/*--------------------------------*- C++ -*----------------------------------*\
  =========                 |
  \\      /  F ield         | OpenFOAM: The Open Source CFD Toolbox
   \\    /   O peration     | Website:  https://openfoam.org
    \\  /    A nd           | Version:  7
     \\/     M anipulation  |
\*---------------------------------------------------------------------------*/
FoamFile
{
    version     2.0;
    format      ascii;
    class       volScalarField;
    location    "0.33";
    object      p;
}
// * * * * * * * * * * * * * * * * * * * * * * * * * * * * * * * * * * * * * //

dimensions      [0 2 -2 0 0 0 0];

internalField   nonuniform List<scalar> 
70000
(
0.109387
0.032494
0.0193414
0.0217843
0.022033
0.0209705
0.0199913
0.0192367
0.018598
0.0180249
0.0175037
0.0170262
0.0165849
0.0161729
0.0157845
0.0154149
0.0150601
0.0147165
0.0143811
0.0140512
0.0137243
0.0133981
0.0130704
0.0127393
0.0124026
0.0120582
0.0117041
0.011338
0.0109576
0.0105606
0.0101442
0.00970574
0.00924218
0.00875008
0.00822622
0.00766634
0.00706694
0.00642297
0.00573029
0.00498418
0.00417773
0.00331129
0.00236801
0.00136718
0.000260887
-0.000875285
-0.00217962
-0.00340707
-0.00499933
-0.00615665
0.105087
0.032856
0.019544
0.0218789
0.0220874
0.0210062
0.0200191
0.0192597
0.0186173
0.0180414
0.017518
0.0170389
0.0165962
0.0161831
0.0157938
0.0154234
0.0150679
0.0147237
0.0143878
0.0140574
0.0137301
0.0134036
0.0130756
0.0127442
0.0124072
0.0120625
0.0117082
0.0113419
0.0109613
0.0105641
0.0101475
0.00970883
0.00924507
0.00875277
0.0082287
0.00766861
0.00706897
0.00642475
0.00573178
0.00498537
0.00417856
0.00331182
0.0023679
0.00136651
0.000259457
-0.000877531
-0.00218273
-0.00341303
-0.00500089
-0.00611411
0.101482
0.0337786
0.0198886
0.0220075
0.0221621
0.0210512
0.0200515
0.0192859
0.0186391
0.0180599
0.017534
0.0170529
0.0166086
0.0161943
0.0158039
0.0154327
0.0150764
0.0147316
0.0143951
0.0140643
0.0137365
0.0134096
0.0130813
0.0127495
0.0124123
0.0120674
0.0117128
0.0113462
0.0109655
0.0105681
0.0101514
0.0097125
0.00924858
0.00875612
0.00823189
0.00767164
0.00707183
0.00642743
0.00573425
0.00498762
0.0041805
0.00331345
0.00236915
0.0013674
0.000259567
-0.000877974
-0.00218389
-0.00341731
-0.00497751
-0.00606522
0.098377
0.0348779
0.0203652
0.0221803
0.0222634
0.0211092
0.0200898
0.0193159
0.0186638
0.0180805
0.0175515
0.0170681
0.0166221
0.0162063
0.0158148
0.0154425
0.0150855
0.0147399
0.0144029
0.0140715
0.0137433
0.013416
0.0130873
0.0127553
0.0124177
0.0120726
0.0117178
0.0113511
0.0109702
0.0105726
0.0101557
0.00971677
0.00925275
0.00876021
0.00823592
0.00767561
0.00707575
0.00643131
0.00573808
0.0049914
0.00418421
0.00331713
0.00237262
0.00137076
0.000262692
-0.000875586
-0.00218041
-0.00341873
-0.00493624
-0.00600714
0.0954209
0.0359719
0.020939
0.0223987
0.0223982
0.0211878
0.0201389
0.0193531
0.0186939
0.0181052
0.0175722
0.0170859
0.0166376
0.01622
0.0158271
0.0154537
0.0150956
0.0147493
0.0144116
0.0140796
0.0137509
0.0134231
0.0130941
0.0127617
0.0124239
0.0120785
0.0117235
0.0113566
0.0109756
0.0105779
0.010161
0.00972196
0.00925793
0.00876541
0.00824117
0.00768095
0.0070812
0.00643692
0.00574387
0.00499743
0.00419047
0.00332366
0.0023794
0.00137775
0.000270277
-0.000868797
-0.00217011
-0.00341442
-0.00487854
-0.00593169
0.0925139
0.0370043
0.0215632
0.0226435
0.0225606
0.0212886
0.0202017
0.0193996
0.0187315
0.018136
0.0175977
0.0171075
0.0166563
0.0162365
0.0158417
0.0154669
0.0151076
0.0147603
0.0144217
0.014089
0.0137597
0.0134314
0.013102
0.0127692
0.0124311
0.0120855
0.0117303
0.0113632
0.0109821
0.0105843
0.0101674
0.00972843
0.0092645
0.00877213
0.0082481
0.00768816
0.00708875
0.00644491
0.00575235
0.00500651
0.00420022
0.00333416
0.00239081
0.00138979
0.000284075
-0.000855522
-0.00215049
-0.00340047
-0.00480545
-0.00583732
0.0896488
0.0379578
0.0222045
0.0228934
0.0227373
0.0214068
0.0202771
0.0194555
0.0187769
0.0181733
0.0176288
0.0171338
0.0166791
0.0162564
0.0158594
0.0154827
0.015122
0.0147734
0.0144338
0.0141002
0.0137702
0.0134413
0.0131113
0.0127781
0.0124397
0.0120938
0.0117384
0.0113712
0.01099
0.0105922
0.0101754
0.00973656
0.00927285
0.0087808
0.00825718
0.00769776
0.00709899
0.00645593
0.00576426
0.00501954
0.00421447
0.00334985
0.00240823
0.0014087
0.000305937
-0.00083344
-0.0021189
-0.00337284
-0.00471725
-0.00572521
0.0868346
0.0388261
0.0228466
0.0231366
0.0229174
0.0215359
0.0203615
0.0195187
0.0188289
0.0182166
0.0176651
0.0171648
0.0167059
0.01628
0.0158804
0.0155016
0.015139
0.014789
0.0144481
0.0141135
0.0137826
0.013453
0.0131225
0.0127888
0.0124499
0.0121038
0.0117482
0.0113809
0.0109996
0.010602
0.0101853
0.00974672
0.00928339
0.00879185
0.00826887
0.00771028
0.00711248
0.00647065
0.00578038
0.00503738
0.00423426
0.00337189
0.00243308
0.00143603
0.000337943
-0.000800208
-0.00207285
-0.00332781
-0.00461396
-0.00559741
0.084078
0.0396065
0.0234842
0.0233693
0.0230948
0.0216709
0.0204516
0.0195865
0.0188855
0.0182645
0.0177057
0.0171997
0.0167365
0.0163071
0.0159046
0.0155234
0.0151589
0.0148072
0.0144649
0.0141292
0.0137973
0.0134668
0.0131356
0.0128014
0.0124621
0.0121157
0.0117598
0.0113925
0.0110113
0.0106137
0.0101973
0.00975919
0.00929643
0.00880564
0.00828359
0.00772617
0.00712975
0.00648965
0.00580135
0.0050608
0.00426047
0.00340134
0.0024666
0.00147325
0.000381852
-0.000753643
-0.00201029
-0.00326237
-0.00449558
-0.00545655
0.0813823
0.0402983
0.0241158
0.0235913
0.0232664
0.021809
0.0205455
0.0196571
0.0189448
0.0183154
0.0177493
0.0172376
0.0167699
0.0163369
0.0159314
0.0155478
0.0151812
0.0148277
0.014484
0.014147
0.0138141
0.0134827
0.0131508
0.012816
0.0124763
0.0121295
0.0117736
0.0114062
0.011025
0.0106278
0.0102118
0.0097742
0.0093122
0.00882242
0.0083016
0.00774573
0.00715116
0.00651334
0.00582769
0.00509038
0.00429379
0.00343898
0.00250972
0.00152148
0.000438901
-0.000691951
-0.00192986
-0.00317462
-0.00436231
-0.00530573
0.0787508
0.0409018
0.0247403
0.0238037
0.0234309
0.0219488
0.020642
0.0197293
0.0190058
0.0183681
0.0177949
0.0172775
0.0168053
0.0163688
0.0159603
0.0155742
0.0152055
0.0148503
0.014505
0.0141667
0.0138327
0.0135006
0.0131679
0.0128325
0.0124924
0.0121454
0.0117893
0.0114219
0.011041
0.010644
0.0102286
0.00979178
0.00933078
0.00884227
0.00832302
0.00776912
0.00717687
0.00654194
0.00585963
0.0051264
0.00433459
0.00348525
0.00256298
0.00158138
0.000509797
-0.000614042
-0.00183095
-0.00306399
-0.00421476
-0.00514816
0.0761865
0.0414174
0.0253564
0.0240077
0.0235874
0.0220893
0.0207408
0.0198026
0.0190677
0.018422
0.0178418
0.0173188
0.0168422
0.016402
0.0159907
0.0156021
0.0152313
0.0148743
0.0145276
0.0141881
0.013853
0.0135199
0.0131866
0.0128507
0.0125102
0.012163
0.0118068
0.0114395
0.0110589
0.0106624
0.0102477
0.00981184
0.00935207
0.00886512
0.00834779
0.00779627
0.00720685
0.0065754
0.00589716
0.00516884
0.00438286
0.00354013
0.00262638
0.00165303
0.000594513
-0.000519688
-0.00171394
-0.00293142
-0.00405406
-0.00498678
0.0736921
0.0418459
0.0259616
0.0242046
0.0237353
0.0222297
0.0208417
0.019877
0.0191303
0.0184768
0.0178897
0.017361
0.01688
0.0164363
0.0160221
0.015631
0.0152582
0.0148995
0.0145513
0.0142106
0.0138745
0.0135406
0.0132066
0.0128703
0.0125294
0.012182
0.0118259
0.0114588
0.0110786
0.0106828
0.0102689
0.00983419
0.00937588
0.00889078
0.0083757
0.00782695
0.00724085
0.00661345
0.00593998
0.00521739
0.00443825
0.00360326
0.00269945
0.00173597
0.000692336
-0.000409477
-0.00158019
-0.00277919
-0.00388177
-0.0048238
0.0712703
0.042188
0.0265533
0.0243959
0.023874
0.0223692
0.0209447
0.0199523
0.0191934
0.0185322
0.0179384
0.017404
0.0169185
0.0164714
0.0160543
0.0156608
0.015286
0.0149256
0.014576
0.014234
0.013897
0.0135623
0.0132277
0.0128909
0.0125499
0.0122024
0.0118463
0.0114796
0.0110998
0.0107048
0.0102919
0.00985857
0.00940194
0.00891895
0.00840644
0.00786086
0.00727852
0.00665571
0.00598767
0.00527153
0.00450019
0.00367395
0.00278137
0.00182928
0.000802047
-0.000284749
-0.0014318
-0.00261031
-0.00369971
-0.00466047
0.0689234
0.0424453
0.0271283
0.0245831
0.0240033
0.0225069
0.0210495
0.0200286
0.0192571
0.0185883
0.0179878
0.0174477
0.0169578
0.0165072
0.0160871
0.0156913
0.0153145
0.0149524
0.0146013
0.0142582
0.0139203
0.0135848
0.0132497
0.0129125
0.0125713
0.0122237
0.0118679
0.0115015
0.0111224
0.0107283
0.0103166
0.00988473
0.00943
0.00894937
0.00843972
0.00789764
0.00731949
0.00670174
0.00603972
0.0053307
0.00456797
0.00375143
0.00287116
0.00193187
0.000922203
-0.000147408
-0.00127097
-0.00242774
-0.0035096
-0.00449698
0.0666534
0.0426195
0.0276835
0.0247678
0.024123
0.0226416
0.021156
0.020106
0.0193211
0.018645
0.0180379
0.0174921
0.0169978
0.0165436
0.0161207
0.0157224
0.0153436
0.0149798
0.0146274
0.0142832
0.0139442
0.0136081
0.0132724
0.0129349
0.0125935
0.0122461
0.0118905
0.0115246
0.0111462
0.0107531
0.0103427
0.00991251
0.00945986
0.00898181
0.00847528
0.00793702
0.00736342
0.00675116
0.00609568
0.00539436
0.00464096
0.00383493
0.00296789
0.00204262
0.00105141
6.63033e-07
-0.00109942
-0.00223424
-0.00331277
-0.00433247
0.0644618
0.0427127
0.0282157
0.0249512
0.0242331
0.0227725
0.0212638
0.0201845
0.0193854
0.0187021
0.0180886
0.0175372
0.0170384
0.0165806
0.0161548
0.0157542
0.0153734
0.0150079
0.0146541
0.0143087
0.0139689
0.0136321
0.0132959
0.0129581
0.0126166
0.0122693
0.011914
0.0115487
0.0111711
0.0107791
0.0103701
0.00994178
0.0094914
0.00901613
0.00851297
0.0079788
0.00741009
0.00680369
0.00615522
0.0054621
0.00471865
0.00392386
0.00307078
0.0021606
0.00118851
0.000157894
-0.000918659
-0.00203209
-0.00311002
-0.00416515
0.06235
0.0427276
0.0287219
0.0251345
0.0243339
0.0228985
0.0213726
0.020264
0.0194501
0.0187596
0.01814
0.017583
0.0170796
0.0166183
0.0161896
0.0157866
0.0154038
0.0150366
0.0146815
0.014335
0.0139943
0.0136568
0.0133201
0.0129821
0.0126405
0.0122933
0.0119385
0.0115738
0.0111971
0.0108063
0.0103989
0.00997251
0.00952456
0.00905226
0.0085527
0.00802287
0.00745937
0.00685916
0.00621812
0.00553368
0.00480071
0.0040178
0.00317929
0.00228515
0.00133266
0.000323142
-0.000730477
-0.00182282
-0.00290153
-0.00399254
0.0603186
0.0426676
0.029199
0.0253184
0.0244256
0.0230187
0.0214819
0.0203446
0.019515
0.0188174
0.018192
0.0176294
0.0171215
0.0166566
0.0162251
0.0158196
0.0154348
0.015066
0.0147095
0.0143619
0.0140203
0.0136822
0.0133451
0.0130068
0.0126653
0.0123183
0.0119639
0.0115999
0.0112242
0.0108347
0.010429
0.0100047
0.00955933
0.0090902
0.00859445
0.00806922
0.00751121
0.00691754
0.0062843
0.00560897
0.00488697
0.00411654
0.00329314
0.00241584
0.00148337
0.000495727
-0.000535272
-0.00160725
-0.00268681
-0.00381171
0.058368
0.0425362
0.029644
0.0255033
0.0245089
0.0231322
0.0215911
0.0204263
0.0195802
0.0188754
0.0182444
0.0176765
0.017164
0.0166955
0.0162611
0.0158533
0.0154665
0.0150961
0.0147382
0.0143895
0.0140471
0.0137083
0.0133708
0.0130324
0.0126908
0.0123441
0.0119902
0.011627
0.0112524
0.0108643
0.0104604
0.0100384
0.00959578
0.00912999
0.00863827
0.00811788
0.00756566
0.00697883
0.00635378
0.00568799
0.0049774
0.00422003
0.00341223
0.00255251
0.00164045
0.000675294
-0.00033323
-0.00138544
-0.00246486
-0.00361947
0.0564982
0.0423375
0.0300542
0.0256893
0.0245844
0.0232381
0.0216996
0.020509
0.0196456
0.0189336
0.0182973
0.0177241
0.0172071
0.0167351
0.0162978
0.0158876
0.0154988
0.0151268
0.0147675
0.0144178
0.0140745
0.0137352
0.0133974
0.0130588
0.0127173
0.0123709
0.0120176
0.0116552
0.0112818
0.0108953
0.0104933
0.0100736
0.00963394
0.00917169
0.00868423
0.00816892
0.00762278
0.00704313
0.00642663
0.00577079
0.00507206
0.00432831
0.0035366
0.00269514
0.00180392
0.000861744
-0.000124241
-0.00115694
-0.00223427
-0.00341266
0.0547086
0.0420763
0.030427
0.0258761
0.0246532
0.0233359
0.0218067
0.0205926
0.0197112
0.0189917
0.0183505
0.0177723
0.0172508
0.0167752
0.0163351
0.0159226
0.0155318
0.0151581
0.0147976
0.0144468
0.0141028
0.0137629
0.0134247
0.013086
0.0127447
0.0123987
0.012046
0.0116846
0.0113125
0.0109275
0.0105276
0.0101105
0.00967391
0.00921539
0.00873241
0.00822245
0.00768267
0.00711054
0.00650295
0.00585751
0.00517108
0.0044415
0.00366638
0.00284383
0.00197391
0.00105519
9.20117e-05
-0.00092098
-0.00199345
-0.00318827
0.0529983
0.0417574
0.0307599
0.026063
0.0247159
0.023425
0.0219115
0.020677
0.019777
0.0190498
0.018404
0.017821
0.0172951
0.0168159
0.016373
0.0159582
0.0155655
0.0151902
0.0148284
0.0144766
0.0141318
0.0137913
0.0134529
0.0131141
0.012773
0.0124275
0.0120755
0.0117152
0.0113444
0.0109612
0.0105635
0.0101491
0.00971575
0.00926118
0.00878292
0.00827856
0.00774546
0.00718117
0.00658289
0.00594827
0.00527461
0.00455975
0.00380173
0.00299871
0.00215063
0.00125586
0.000316
-0.000676593
-0.00174072
-0.00294356
0.0513662
0.041386
0.0310511
0.026249
0.0247738
0.0235051
0.0220132
0.0207618
0.0198431
0.0191078
0.0184577
0.0178701
0.0173399
0.0168572
0.0164115
0.0159944
0.0155998
0.015223
0.0148599
0.0145071
0.0141615
0.0138206
0.0134819
0.0131432
0.0128023
0.0124573
0.0121062
0.0117469
0.0113777
0.0109964
0.010601
0.0101894
0.00975956
0.00930914
0.00883584
0.00833738
0.00781125
0.00725517
0.00666657
0.00604324
0.0053828
0.00468323
0.00394286
0.00315999
0.00233433
0.00146405
0.000548289
-0.000422702
-0.00147442
-0.00267612
0.0498105
0.0409676
0.0312988
0.0264324
0.0248278
0.0235762
0.0221109
0.0208468
0.0199094
0.0191655
0.0185114
0.0179197
0.0173852
0.0168991
0.0164506
0.0160313
0.0156348
0.0152565
0.0148921
0.0145384
0.0141921
0.0138508
0.0135119
0.0131732
0.0128327
0.0124883
0.012138
0.01178
0.0114123
0.0110331
0.0106402
0.0102316
0.00980542
0.00935938
0.00889129
0.008399
0.00788018
0.00733267
0.00675415
0.00614257
0.00549584
0.00481211
0.00408996
0.00332786
0.00252525
0.00168012
0.000789479
-0.000158234
-0.00119297
-0.00238393
0.0483294
0.0405078
0.0315018
0.0266116
0.024879
0.0236384
0.0222038
0.0209315
0.0199759
0.019223
0.018565
0.0179695
0.017431
0.0169415
0.0164903
0.0160688
0.0156705
0.0152906
0.0149251
0.0145704
0.0142236
0.0138818
0.0135428
0.0132042
0.0128641
0.0125203
0.0121711
0.0118144
0.0114485
0.0110713
0.0106811
0.0102758
0.00985343
0.00941199
0.00894938
0.00846356
0.00795237
0.00741381
0.00684578
0.00624641
0.00561388
0.00494656
0.00424323
0.00350255
0.0027237
0.00190446
0.00104017
0.000117844
-0.000894962
-0.00206539
0.0469206
0.0400124
0.0316593
0.0267842
0.0249281
0.0236918
0.0222911
0.0210155
0.0200427
0.0192802
0.0186185
0.0180196
0.0174773
0.0169844
0.0165306
0.0161069
0.0157069
0.0153256
0.0149589
0.0146033
0.0142559
0.0139138
0.0135747
0.0132363
0.0128966
0.0125536
0.0122055
0.0118503
0.0114861
0.0111113
0.0107239
0.010322
0.00990367
0.00946708
0.00901022
0.00853116
0.00802795
0.00749871
0.00694161
0.00635492
0.00573711
0.00508677
0.00440287
0.00368426
0.00292993
0.00213747
0.00130096
0.000406504
-0.000579137
-0.00171933
0.0455816
0.039487
0.0317711
0.026948
0.0249761
0.0237371
0.022372
0.0210982
0.0201095
0.0193371
0.0186716
0.0180698
0.017524
0.0170278
0.0165713
0.0161456
0.0157439
0.0153612
0.0149934
0.014637
0.014289
0.0139467
0.0136075
0.0132694
0.0129303
0.0125882
0.0122412
0.0118875
0.0115254
0.011153
0.0107686
0.0103702
0.00995624
0.00952474
0.0090739
0.00860194
0.00810705
0.00758754
0.00704177
0.00646825
0.00586569
0.00523292
0.00456907
0.00387322
0.00314422
0.00237953
0.00157242
0.000708622
-0.000244475
-0.00134501
0.0443098
0.0389372
0.0318374
0.0271002
0.0250233
0.0237747
0.0224458
0.0211789
0.0201763
0.0193936
0.0187244
0.01812
0.0175709
0.0170716
0.0166127
0.0161849
0.0157816
0.0153975
0.0150287
0.0146716
0.0143231
0.0139805
0.0136414
0.0133037
0.0129651
0.012624
0.0122783
0.0119263
0.0115663
0.0111965
0.0108152
0.0104207
0.0100112
0.00958508
0.00914056
0.008676
0.0081898
0.0076804
0.00714642
0.00658657
0.00599979
0.00538516
0.00474203
0.00406966
0.00336687
0.00263101
0.00185508
0.00102494
0.000109798
-0.00094213
0.0431022
0.0383683
0.031859
0.0272384
0.0250702
0.0238056
0.0225122
0.021257
0.0202429
0.0194497
0.0187767
0.0181702
0.0176182
0.0171159
0.0166544
0.0162248
0.0158199
0.0154346
0.0150648
0.014707
0.0143581
0.0140153
0.0136764
0.013339
0.0130012
0.0126611
0.0123169
0.0119667
0.011609
0.011242
0.010864
0.0104735
0.0100687
0.00964822
0.0092103
0.00875348
0.00827632
0.00777746
0.00725571
0.00671001
0.00613955
0.00554366
0.0049219
0.00427376
0.0035981
0.00289227
0.00214942
0.00135607
0.000484187
-0.000510835
0.0419561
0.0377855
0.0318374
0.0273602
0.0251164
0.0238304
0.0225708
0.0213318
0.020309
0.0195055
0.0188284
0.01822
0.0176656
0.0171605
0.0166967
0.0162652
0.0158589
0.0154724
0.0151017
0.0147433
0.014394
0.0140512
0.0137125
0.0133756
0.0130386
0.0126997
0.0123569
0.0120087
0.0116534
0.0112893
0.0109149
0.0105286
0.0101289
0.00971424
0.00928323
0.00883449
0.00836674
0.00787882
0.00736976
0.00683871
0.00628512
0.00570858
0.00510887
0.00448571
0.00383813
0.00316363
0.00245582
0.00170243
0.00087891
-5.16879e-05
0.0408682
0.0371932
0.0317742
0.0274633
0.0251616
0.0238499
0.0226213
0.0214025
0.0203743
0.0195608
0.0188795
0.0182696
0.0177131
0.0172054
0.0167394
0.0163062
0.0158985
0.0155109
0.0151394
0.0147804
0.0144309
0.0140881
0.0137496
0.0134134
0.0130773
0.0127396
0.0123986
0.0120525
0.0116997
0.0113388
0.0109681
0.0105862
0.0101917
0.00978325
0.00935946
0.00891913
0.00846118
0.00798463
0.00748871
0.00697282
0.00643665
0.00588005
0.00530307
0.00470567
0.00408717
0.00344535
0.0027746
0.00206427
0.00129389
0.000434329
0.0398356
0.0365957
0.0316719
0.027546
0.025205
0.023865
0.022664
0.0214685
0.0204383
0.0196156
0.0189299
0.0183187
0.0177606
0.0172507
0.0167825
0.0163477
0.0159387
0.0155502
0.0151779
0.0148185
0.0144687
0.014126
0.013788
0.0134524
0.0131174
0.0127811
0.0124418
0.012098
0.011748
0.0113903
0.0110236
0.0106464
0.0102574
0.00985536
0.0094391
0.00900754
0.00855977
0.008095
0.00761268
0.00711245
0.00659424
0.0060582
0.00550462
0.00493379
0.00434539
0.0037376
0.0031059
0.00244164
0.00172873
0.000945844
0.0388552
0.0359968
0.0315332
0.0276067
0.0252453
0.0238762
0.022699
0.0215292
0.0205006
0.0196699
0.0189796
0.0183672
0.017808
0.0172961
0.016826
0.0163896
0.0159795
0.0155901
0.0152172
0.0148574
0.0145076
0.0141651
0.0138275
0.0134927
0.0131589
0.0128241
0.0124868
0.0121453
0.0117982
0.011444
0.0110815
0.0107092
0.010326
0.00993066
0.00952225
0.00909982
0.00866261
0.00821004
0.00774178
0.00725771
0.00675803
0.00624313
0.00571364
0.00517017
0.00461288
0.00404048
0.00344977
0.00283438
0.00218275
0.00148113
0.037924
0.0353997
0.0313612
0.0276443
0.0252814
0.023884
0.0227265
0.021584
0.0205607
0.0197234
0.0190285
0.018415
0.0178551
0.0173417
0.0168698
0.016432
0.0160209
0.0156308
0.0152573
0.0148972
0.0145474
0.0142052
0.0138682
0.0135344
0.0132018
0.0128687
0.0125334
0.0121945
0.0118505
0.0115
0.0111418
0.0107747
0.0103975
0.0100093
0.00960902
0.00919606
0.0087698
0.00832986
0.00787612
0.00740871
0.00692808
0.00643494
0.0059302
0.00541487
0.00488967
0.004354
0.00380611
0.00324209
0.00265498
0.00203809
0.037039
0.0348072
0.031159
0.0276579
0.0253116
0.0238888
0.0227472
0.0216325
0.0206181
0.0197759
0.0190765
0.0184621
0.0179018
0.0173872
0.0169139
0.0164749
0.0160628
0.0156721
0.0152983
0.014938
0.0145883
0.0142465
0.0139102
0.0135774
0.0132462
0.0129149
0.0125819
0.0122457
0.011905
0.0115584
0.0112048
0.0108431
0.0104722
0.0100912
0.0096995
0.00929637
0.00888145
0.00845455
0.00801578
0.00756551
0.00710447
0.00663366
0.00615436
0.00566803
0.00517571
0.00467803
0.00417465
0.00366418
0.00314414
0.00261436
0.0361975
0.0342217
0.0309302
0.0276473
0.0253345
0.0238908
0.0227614
0.0216745
0.020672
0.0198272
0.0191237
0.0185083
0.017948
0.0174328
0.0169582
0.0165181
0.0161053
0.015714
0.01534
0.0149797
0.0146302
0.0142889
0.0139534
0.0136218
0.0132922
0.0129628
0.0126322
0.0122989
0.0119616
0.0116192
0.0112704
0.0109143
0.01055
0.0101767
0.00979378
0.00940084
0.00899763
0.00858419
0.00816084
0.00772818
0.00728724
0.00683931
0.00638608
0.00592935
0.00547088
0.00501235
0.00455497
0.00409983
0.00364872
0.00320731
0.0353966
0.0336452
0.0306782
0.0276125
0.0253486
0.0238898
0.0227697
0.0217097
0.0207222
0.019877
0.0191699
0.0185535
0.0179936
0.0174781
0.0170026
0.0165616
0.0161482
0.0157566
0.0153824
0.0150222
0.0146731
0.0143325
0.013998
0.0136677
0.0133397
0.0130124
0.0126844
0.0123541
0.0120205
0.0116824
0.0113387
0.0109885
0.0106311
0.0102657
0.00989194
0.00950954
0.00911843
0.00871885
0.00831133
0.00789675
0.0074764
0.00705188
0.00662529
0.00619884
0.00577507
0.00535666
0.00494646
0.00454798
0.00416694
0.00381408
0.0346339
0.0330791
0.0304062
0.0275539
0.0253523
0.0238855
0.0227725
0.0217383
0.0207679
0.0199249
0.019215
0.0185978
0.0180385
0.0175232
0.0170472
0.0166054
0.0161916
0.0157998
0.0154257
0.0150657
0.0147171
0.0143772
0.0140439
0.013715
0.0133888
0.0130638
0.0127385
0.0124115
0.0120818
0.0117482
0.0114098
0.0110658
0.0107155
0.0103583
0.00999406
0.00962254
0.0092439
0.00885857
0.00846731
0.00807124
0.00767193
0.00727131
0.00687187
0.00647633
0.00608798
0.00571049
0.00534836
0.00500738
0.00469681
0.00443166
0.0339069
0.0325247
0.0301175
0.0274726
0.0253445
0.0238775
0.0227705
0.0217603
0.0208089
0.0199706
0.0192589
0.018641
0.0180825
0.0175678
0.0170917
0.0166495
0.0162354
0.0158436
0.0154697
0.0151101
0.0147621
0.0144232
0.0140911
0.0137638
0.0134396
0.013117
0.0127946
0.0124711
0.0121454
0.0118166
0.0114838
0.0111461
0.0108032
0.0104547
0.0101002
0.00973989
0.00937408
0.00900337
0.00862877
0.00825161
0.00787377
0.0074975
0.00712568
0.00676157
0.00640919
0.00607321
0.00575972
0.00547662
0.00523617
0.00505689
0.0332134
0.0319829
0.0298152
0.0273695
0.0253241
0.023865
0.0227638
0.0217759
0.0208447
0.0200135
0.0193014
0.018683
0.0181256
0.0176119
0.017136
0.0166938
0.0162796
0.015888
0.0155144
0.0151554
0.0148082
0.0144704
0.0141396
0.0138141
0.0134921
0.0131721
0.0128528
0.0125329
0.0122115
0.0118877
0.0115606
0.0112297
0.0108945
0.0105547
0.0102104
0.00986164
0.009509
0.00915328
0.00879568
0.00843782
0.00808183
0.00773028
0.00738648
0.00705422
0.0067382
0.0064441
0.00617947
0.00595407
0.0057827
0.00568656
0.0325511
0.0314542
0.029502
0.027246
0.0252904
0.0238475
0.0227527
0.0217854
0.0208751
0.0200533
0.0193423
0.0187238
0.0181677
0.0176554
0.0171802
0.0167381
0.0163241
0.0159329
0.0155599
0.0152016
0.0148554
0.0145187
0.0141896
0.013866
0.0135463
0.013229
0.012913
0.012597
0.0122801
0.0119615
0.0116405
0.0113165
0.0109892
0.0106586
0.0103247
0.0099878
0.00964866
0.00930825
0.00896801
0.00862978
0.00829596
0.00796946
0.00765399
0.00735384
0.00707441
0.0068223
0.00660638
0.00643798
0.00633394
0.0063174
0.0319183
0.0309391
0.0291804
0.0271039
0.025243
0.023824
0.0227372
0.021789
0.0208999
0.0200895
0.0193813
0.0187633
0.0182086
0.0176981
0.0172241
0.0167825
0.0163689
0.0159783
0.015606
0.0152487
0.0149036
0.0145683
0.0142409
0.0139194
0.0136022
0.0132879
0.0129754
0.0126634
0.0123513
0.0120381
0.0117233
0.0114065
0.0110875
0.0107663
0.0104431
0.0101184
0.00979304
0.00946826
0.00914567
0.00882734
0.00851597
0.00821477
0.00792781
0.00765991
0.00741712
0.00720684
0.00703908
0.00692649
0.00688738
0.00694617
0.031313
0.0304378
0.0288529
0.0269448
0.0251817
0.0237939
0.0227174
0.0217871
0.0209192
0.020122
0.0194181
0.0188014
0.0182484
0.01774
0.0172675
0.0168269
0.016414
0.0160241
0.0156528
0.0152966
0.0149528
0.0146192
0.0142936
0.0139744
0.0136599
0.0133487
0.0130399
0.0127322
0.012425
0.0121175
0.0118092
0.0114999
0.0111894
0.0108778
0.0105656
0.0102534
0.0099421
0.00963322
0.00932853
0.00903036
0.00874163
0.00846587
0.00820752
0.00797185
0.0077655
0.00759659
0.00747606
0.00741758
0.00744048
0.0075697
0.0307336
0.0299504
0.0285213
0.0267704
0.0251065
0.0237564
0.0226931
0.0217799
0.0209328
0.0201502
0.0194524
0.0188379
0.0182869
0.0177809
0.0173104
0.0168711
0.0164592
0.0160703
0.0157001
0.0153453
0.0150031
0.0146712
0.0143478
0.014031
0.0137193
0.0134116
0.0131065
0.0128034
0.0125013
0.0121997
0.0118982
0.0115966
0.0112948
0.0109932
0.0106922
0.0103927
0.0100958
0.00980301
0.00951645
0.00923859
0.00897264
0.00872238
0.0084926
0.00828896
0.00811864
0.00799036
0.00791576
0.00790921
0.00799062
0.00818492
0.0301785
0.0294768
0.0281874
0.0265827
0.0250179
0.0237109
0.0226641
0.0217676
0.0209409
0.0201741
0.019484
0.0188726
0.018324
0.0178208
0.0173526
0.0169151
0.0165045
0.0161168
0.0157481
0.0153948
0.0150543
0.0147245
0.0144033
0.0140891
0.0137806
0.0134764
0.0131754
0.0128769
0.0125802
0.0122848
0.0119902
0.0116966
0.0114038
0.0111124
0.0108229
0.0105363
0.010254
0.00997751
0.00970922
0.00945179
0.00920864
0.00898384
0.00878245
0.00861047
0.00847553
0.00838684
0.00835651
0.0083993
0.00853527
0.00878885
0.0296462
0.0290168
0.0278529
0.0263834
0.0249162
0.023657
0.02263
0.0217504
0.0209436
0.0201933
0.0195125
0.0189053
0.0183597
0.0178595
0.0173941
0.0169587
0.0165498
0.0161637
0.0157966
0.0154451
0.0151066
0.0147789
0.0144602
0.0141489
0.0138436
0.0135432
0.0132465
0.0129529
0.0126618
0.0123727
0.0120854
0.0117999
0.0115164
0.0112354
0.0109576
0.0106842
0.0104165
0.0101565
0.0099066
0.00966964
0.00944925
0.00924973
0.00907639
0.00893553
0.0088351
0.00878465
0.00879657
0.00888574
0.00907195
0.00937874
0.0291355
0.0285704
0.0275189
0.0261742
0.0248023
0.0235944
0.0225905
0.0217284
0.0209411
0.0202078
0.0195376
0.0189359
0.0183938
0.0178969
0.0174348
0.0170019
0.0165951
0.0162108
0.0158456
0.0154961
0.0151598
0.0148345
0.0145186
0.0142103
0.0139085
0.013612
0.0133198
0.0130314
0.012746
0.0124635
0.0121836
0.0119065
0.0116325
0.0113621
0.0110962
0.0108361
0.0105833
0.0103398
0.0101083
0.00989177
0.00969398
0.00951945
0.0093737
0.0092632
0.00919619
0.00918236
0.00923418
0.00936641
0.00959827
0.00995204
0.0286452
0.0281371
0.0271867
0.0259568
0.024677
0.0235228
0.0225454
0.0217016
0.0209334
0.0202176
0.0195593
0.0189641
0.0184262
0.0179331
0.0174745
0.0170446
0.0166402
0.0162581
0.015895
0.0155478
0.0152139
0.0148913
0.0145782
0.0142733
0.0139751
0.0136828
0.0133954
0.0131122
0.0128329
0.0125572
0.0122849
0.0120164
0.011752
0.0114924
0.0112386
0.0109919
0.010754
0.0105272
0.010314
0.0101178
0.00994233
0.00979236
0.00967355
0.00959249
0.00955756
0.00957849
0.00966761
0.00983932
0.010112
0.0105064
0.0281741
0.0277168
0.0268571
0.0257326
0.0245412
0.0234425
0.0224944
0.02167
0.0209208
0.0202227
0.0195771
0.0189898
0.0184568
0.0179679
0.0175131
0.0170867
0.0166851
0.0163055
0.0159449
0.0156002
0.015269
0.0149492
0.0146393
0.0143378
0.0140436
0.0137556
0.0134731
0.0131955
0.0129224
0.0126536
0.0123893
0.0121295
0.0118749
0.0116262
0.0113846
0.0111514
0.0109286
0.0107183
0.0105234
0.0103472
0.0101937
0.0100678
0.00997507
0.00992236
0.00991796
0.00997153
0.0100951
0.0103025
0.010611
0.0110397
0.0277211
0.0273092
0.026531
0.0255031
0.0243959
0.0233534
0.0224372
0.0216336
0.0209034
0.020223
0.0195911
0.0190126
0.0184854
0.0180011
0.0175506
0.017128
0.0167297
0.0163529
0.015995
0.0156531
0.0153248
0.0150082
0.0147017
0.0144039
0.0141138
0.0138304
0.013553
0.0132811
0.0130145
0.0127529
0.0124965
0.0122457
0.0120011
0.0117635
0.0115341
0.0113145
0.0111066
0.0109128
0.010736
0.0105795
0.0104475
0.0103449
0.0102774
0.0102517
0.0102761
0.01036
0.010515
0.0107541
0.0110935
0.0115502
0.0272854
0.0269139
0.026209
0.0252695
0.0242421
0.023256
0.0223737
0.0215923
0.0208812
0.0202187
0.0196012
0.0190324
0.0185119
0.0180328
0.017587
0.0171685
0.0167738
0.0164003
0.0160455
0.0157066
0.0153815
0.0150682
0.0147653
0.0144715
0.0141857
0.0139071
0.0136351
0.0133691
0.0131091
0.0128548
0.0126067
0.0123649
0.0121304
0.0119039
0.0116869
0.0114809
0.0112879
0.0111104
0.0109513
0.0108141
0.010703
0.0106229
0.0105795
0.0105794
0.0106307
0.0107424
0.0109255
0.0111924
0.0115575
0.0120363
0.026866
0.0265307
0.0258917
0.025033
0.0240809
0.0231506
0.0223039
0.021546
0.0208544
0.0202098
0.0196071
0.0190492
0.0185361
0.0180627
0.017622
0.0172081
0.0168174
0.0164476
0.0160961
0.0157606
0.0154389
0.0151293
0.0148302
0.0145405
0.0142593
0.0139857
0.0137192
0.0134594
0.0132061
0.0129594
0.0127196
0.0124871
0.0122627
0.0120474
0.0118427
0.0116502
0.011472
0.0113105
0.0111688
0.0110505
0.0109596
0.010901
0.0108804
0.0109044
0.0109804
0.0111172
0.0113253
0.0116158
0.0120018
0.0124968
0.0264621
0.0261592
0.0255795
0.0247946
0.0239133
0.0230378
0.0222277
0.0214947
0.0208231
0.0201964
0.0196091
0.0190627
0.0185578
0.0180909
0.0176556
0.0172466
0.0168605
0.0164946
0.0161468
0.0158149
0.015497
0.0151912
0.0148963
0.014611
0.0143345
0.0140661
0.0138053
0.0135518
0.0133055
0.0130665
0.0128351
0.0126119
0.0123978
0.0121938
0.0120013
0.0118222
0.0116585
0.0115128
0.0113881
0.0112879
0.0112164
0.0111783
0.0111792
0.0112254
0.011324
0.0114833
0.0117128
0.0120228
0.0124249
0.0129307
0.0260731
0.025799
0.0252728
0.0245553
0.0237403
0.0229181
0.0221455
0.0214383
0.0207872
0.0201787
0.0196069
0.0190728
0.018577
0.018117
0.0176877
0.0172841
0.0169028
0.0165413
0.0161976
0.0158697
0.0155557
0.0152541
0.0149634
0.0146828
0.0144113
0.0141483
0.0138935
0.0136464
0.0134072
0.013176
0.0129531
0.0127393
0.0125354
0.0123426
0.0121624
0.0119965
0.0118471
0.0117167
0.0116084
0.0115258
0.0114727
0.0114539
0.0114748
0.0115414
0.0116602
0.0118392
0.0120868
0.0124123
0.0128258
0.0133372
0.0256981
0.02545
0.0249719
0.024316
0.0235627
0.0227921
0.0220573
0.021377
0.0207469
0.0201566
0.0196008
0.0190795
0.0185935
0.0181412
0.0177183
0.0173205
0.0169443
0.0165875
0.0162483
0.0159246
0.015615
0.0153177
0.0150317
0.0147559
0.0144896
0.0142322
0.0139834
0.013743
0.013511
0.0132877
0.0130735
0.0128691
0.0126755
0.0124938
0.0123256
0.0121727
0.0120372
0.0119218
0.0118293
0.0117633
0.0117276
0.0117269
0.011766
0.0118508
0.0119878
0.0121836
0.0124461
0.0127833
0.0132039
0.013716
0.0253366
0.0251117
0.0246771
0.0240773
0.0233816
0.0226606
0.0219634
0.0213107
0.0207021
0.0201304
0.0195907
0.0190827
0.0186073
0.0181632
0.0177472
0.0173555
0.016985
0.0166333
0.0162988
0.0159798
0.0156747
0.0153821
0.0151009
0.0148301
0.0145692
0.0143177
0.0140751
0.0138415
0.0136169
0.0134015
0.013196
0.013001
0.0128176
0.0126469
0.0124906
0.0123503
0.0122284
0.0121273
0.01205
0.0119998
0.0119805
0.0119963
0.0120521
0.0121533
0.0123058
0.0125156
0.0127895
0.0131347
0.0135584
0.0140671
0.0249879
0.0247839
0.0243886
0.0238399
0.0231978
0.0225242
0.0218642
0.0212395
0.0206531
0.0201001
0.0195768
0.0190825