/*--------------------------------*- C++ -*----------------------------------*\
  =========                 |
  \\      /  F ield         | OpenFOAM: The Open Source CFD Toolbox
   \\    /   O peration     | Website:  https://openfoam.org
    \\  /    A nd           | Version:  7
     \\/     M anipulation  |
\*---------------------------------------------------------------------------*/
FoamFile
{
    version     2.0;
    format      ascii;
    class       surfaceScalarField;
    location    "0.33";
    object      phi;
}
// * * * * * * * * * * * * * * * * * * * * * * * * * * * * * * * * * * * * * //

dimensions      [0 3 -1 0 0 0 0];

internalField   nonuniform List<scalar> 
139350
(
6.45935e-08
9.2038e-08
3.19541e-08
3.26394e-08
2.30656e-08
8.88843e-09
1.95744e-08
3.49127e-09
1.76259e-08
1.94846e-09
1.62018e-08
1.42409e-09
1.50724e-08
1.12943e-09
1.41621e-08
9.10313e-10
1.34133e-08
7.48755e-10
1.2783e-08
6.30314e-10
1.22423e-08
5.40668e-10
1.1772e-08
4.70335e-10
1.13583e-08
4.13697e-10
1.09911e-08
3.67228e-10
1.06625e-08
3.28526e-10
1.03667e-08
2.9587e-10
1.00987e-08
2.67996e-10
9.85473e-09
2.43953e-10
9.63171e-09
2.23017e-10
9.42709e-09
2.04623e-10
9.23876e-09
1.88326e-10
9.06499e-09
1.7377e-10
8.90433e-09
1.60668e-10
8.75555e-09
1.48778e-10
8.61764e-09
1.37906e-10
8.48976e-09
1.27883e-10
8.3712e-09
1.18561e-10
8.26138e-09
1.09817e-10
8.15985e-09
1.01529e-10
8.06625e-09
9.36023e-11
7.98033e-09
8.59193e-11
7.90191e-09
7.84164e-11
7.83097e-09
7.09404e-11
7.76749e-09
6.34881e-11
7.71168e-09
5.58059e-11
7.66366e-09
4.80215e-11
7.62399e-09
3.96708e-11
7.59288e-09
3.11044e-11
7.5713e-09
2.15777e-11
7.5597e-09
1.16036e-11
7.55925e-09
4.47049e-13
7.57128e-09
-1.20262e-11
7.5961e-09
-2.48152e-11
7.63818e-09
-4.20842e-11
7.69297e-09
-5.47873e-11
7.77642e-09
-8.34561e-11
7.86119e-09
-8.47639e-11
8.02991e-09
-1.6872e-10
7.96569e-09
6.42125e-11
-3.78597e-09
1.17517e-08
1.26027e-07
1.27454e-07
9.12689e-08
6.73978e-08
7.19542e-08
2.82031e-08
6.12349e-08
1.42107e-08
5.47969e-08
8.38643e-09
5.03117e-08
5.90922e-09
4.68364e-08
4.60477e-09
4.40293e-08
3.71744e-09
4.17112e-08
3.06688e-09
3.97574e-08
2.58406e-09
3.8081e-08
2.21703e-09
3.66221e-08
1.92925e-09
3.53381e-08
1.69774e-09
3.41974e-08
1.50789e-09
3.31762e-08
1.34979e-09
3.22556e-08
1.21642e-09
3.1421e-08
1.10262e-09
3.06604e-08
1.0045e-09
2.99643e-08
9.19102e-10
2.93248e-08
8.44134e-10
2.87354e-08
7.77783e-10
2.81905e-08
7.18601e-10
2.76858e-08
6.65416e-10
2.72173e-08
6.17262e-10
2.67819e-08
5.73344e-10
2.63768e-08
5.3298e-10
2.59998e-08
4.95591e-10
2.56489e-08
4.60671e-10
2.53227e-08
4.27758e-10
2.50198e-08
3.96454e-10
2.47394e-08
3.66339e-10
2.44807e-08
3.37103e-10
2.42434e-08
3.08264e-10
2.40272e-08
2.7965e-10
2.38325e-08
2.50538e-10
2.36594e-08
2.21071e-10
2.35092e-08
1.8993e-10
2.33823e-08
1.57971e-10
2.32812e-08
1.22657e-10
2.32066e-08
8.62713e-11
2.31629e-08
4.40876e-11
2.31502e-08
6.61829e-13
2.31769e-08
-5.14648e-11
2.3241e-08
-1.06234e-10
2.33558e-08
-1.69512e-10
2.35217e-08
-2.49421e-10
2.37397e-08
-3.02689e-10
2.40979e-08
-5.26947e-10
2.4327e-08
-1.64878e-10
-5.01169e-09
2.55527e-08
1.58808e-07
1.3505e-07
1.365e-07
8.97062e-08
1.17507e-07
4.71963e-08
1.03339e-07
2.83779e-08
9.33443e-08
1.83815e-08
8.60548e-08
1.31987e-08
8.03616e-08
1.0298e-08
7.57229e-08
8.35613e-09
7.18566e-08
6.93323e-09
6.85758e-08
5.86484e-09
6.57476e-08
5.04527e-09
6.32773e-08
4.39954e-09
6.10965e-08
3.87851e-09
5.91542e-08
3.45017e-09
5.74113e-08
3.09276e-09
5.5837e-08
2.79072e-09
5.4407e-08
2.53262e-09
5.31016e-08
2.30986e-09
5.19048e-08
2.11585e-09
5.08035e-08
1.94544e-09
4.97867e-08
1.79459e-09
4.88453e-08
1.66006e-09
4.79715e-08
1.53922e-09
4.71588e-08
1.4299e-09
4.64019e-08
1.33033e-09
4.56959e-08
1.23897e-09
4.50369e-08
1.15454e-09
4.44217e-08
1.0759e-09
4.38474e-08
1.00204e-09
4.33118e-08
9.32068e-10
4.2813e-08
8.65097e-10
4.23497e-08
8.00387e-10
4.1921e-08
7.37006e-10
4.15262e-08
6.74417e-10
4.11654e-08
6.11329e-10
4.08388e-08
5.47695e-10
4.05476e-08
4.81176e-10
4.02925e-08
4.13087e-10
4.00767e-08
3.384e-10
3.99008e-08
2.62207e-10
3.97721e-08
1.72717e-10
3.96883e-08
8.45008e-11
3.96658e-08
-2.89811e-11
3.96945e-08
-1.34867e-10
3.98058e-08
-2.80883e-10
3.99806e-08
-4.24172e-10
4.0257e-08
-5.79132e-10
4.06749e-08
-9.44859e-10
4.11871e-08
-6.77059e-10
-5.41327e-09
4.15887e-08
1.75665e-07
1.30901e-07
1.65599e-07
9.9772e-08
1.52735e-07
6.00601e-08
1.40147e-07
4.0966e-08
1.29471e-07
2.90573e-08
1.20843e-07
2.18268e-08
1.13747e-07
1.73944e-08
1.07781e-07
1.43213e-08
1.02696e-07
1.20185e-08
9.83085e-08
1.02525e-08
9.4479e-08
8.87476e-09
9.11022e-08
7.77631e-09
8.80985e-08
6.88226e-09
8.54064e-08
6.14225e-09
8.29778e-08
5.52131e-09
8.07744e-08
4.99413e-09
7.87651e-08
4.54193e-09
7.69246e-08
4.15039e-09
7.5232e-08
3.80847e-09
7.36699e-08
3.50753e-09
7.22238e-08
3.24067e-09
7.08815e-08
3.00239e-09
6.96325e-08
2.78817e-09
6.84681e-08
2.5943e-09
6.73807e-08
2.41772e-09
6.63639e-08
2.25578e-09
6.54122e-08
2.10627e-09
6.45209e-08
1.96722e-09
6.3686e-08
1.83692e-09
6.29043e-08
1.71378e-09
6.2173e-08
1.59635e-09
6.14901e-08
1.4833e-09
6.0854e-08
1.37316e-09
6.02635e-08
1.26485e-09
5.97184e-08
1.15648e-09
5.92185e-08
1.04761e-09
5.87649e-08
9.348e-10
5.83582e-08
8.19753e-10
5.80021e-08
6.94521e-10
5.76967e-08
5.67591e-10
5.7451e-08
4.18397e-10
5.72615e-08
2.74043e-10
5.71481e-08
8.43399e-11
5.70983e-08
-8.50668e-11
5.715e-08
-3.32535e-10
5.72797e-08
-5.53861e-10
5.7538e-08
-8.37433e-10
5.79398e-08
-1.34665e-09
5.85488e-08
-1.28608e-09
-5.68007e-09
5.88156e-08
1.8456e-07
1.23126e-07
1.82323e-07
1.02009e-07
1.76111e-07
6.6273e-08
1.67777e-07
4.92996e-08
1.59167e-07
3.76676e-08
1.51273e-07
2.97209e-08
1.44216e-07
2.44505e-08
1.37934e-07
2.06038e-08
1.3235e-07
1.76019e-08
1.27382e-07
1.5221e-08
1.22943e-07
1.3314e-08
1.18956e-07
1.17628e-08
1.15358e-07
1.04803e-08
1.12095e-07
9.40552e-09
1.09122e-07
8.49435e-09
1.06402e-07
7.71417e-09
1.03904e-07
7.04011e-09
1.01601e-07
6.45295e-09
9.94719e-08
5.93756e-09
9.74975e-08
5.48195e-09
9.56617e-08
5.07648e-09
9.39508e-08
4.7133e-09
9.2353e-08
4.38597e-09
9.08581e-08
4.08916e-09
8.94574e-08
3.81841e-09
8.81434e-08
3.56987e-09
8.69093e-08
3.34031e-09
8.57497e-08
3.12682e-09
8.46597e-08
2.9269e-09
8.36353e-08
2.7382e-09
8.26731e-08
2.55861e-09
8.17702e-08
2.38612e-09
8.09247e-08
2.21867e-09
8.0135e-08
2.05455e-09
7.94003e-08
1.89119e-09
7.87203e-08
1.72767e-09
7.80956e-08
1.55944e-09
7.75269e-08
1.38843e-09
7.70178e-08
1.20371e-09
7.65683e-08
1.0171e-09
7.61875e-08
7.99156e-10
7.58725e-08
5.89046e-10
7.56426e-08
3.14201e-10
7.54882e-08
6.93264e-11
7.54432e-08
-2.87476e-10
7.54933e-08
-6.03945e-10
7.56792e-08
-1.02333e-09
7.60236e-08
-1.69105e-09
7.65921e-08
-1.85464e-09
-5.90921e-09
7.68213e-08
1.90389e-07
1.14954e-07
1.91853e-07
1.00544e-07
1.90249e-07
6.78774e-08
1.86165e-07
5.33832e-08
1.80737e-07
4.30961e-08
1.74996e-07
3.54622e-08
1.69315e-07
3.01316e-08
1.63848e-07
2.60706e-08
1.58691e-07
2.27592e-08
1.53884e-07
2.00271e-08
1.49432e-07
1.77664e-08
1.45317e-07
1.58779e-08
1.41515e-07
1.42823e-08
1.38e-07
1.29206e-08
1.34746e-07
1.17485e-08
1.31728e-07
1.0732e-08
1.28924e-07
9.84407e-09
1.26314e-07
9.0633e-09
1.23879e-07
8.3724e-09
1.21603e-07
7.75734e-09
1.19473e-07
7.20662e-09
1.17476e-07
6.71075e-09
1.156e-07
6.26181e-09
1.13836e-07
5.85315e-09
1.12175e-07
5.47914e-09
1.1061e-07
5.13491e-09
1.09134e-07
4.81629e-09
1.07742e-07
4.51953e-09
1.06427e-07
4.24136e-09
1.05187e-07
3.97872e-09
1.04016e-07
3.72883e-09
1.02913e-07
3.48901e-09
1.01875e-07
3.25662e-09
1.00901e-07
3.02925e-09
9.99882e-08
2.80373e-09
9.91374e-08
2.57851e-09
9.83488e-08
2.34802e-09
9.7623e-08
2.11425e-09
9.69632e-08
1.86351e-09
9.637e-08
1.61032e-09
9.58514e-08
1.31767e-09
9.54066e-08
1.03385e-09
9.50514e-08
6.69445e-10
9.47825e-08
3.38277e-10
9.46238e-08
-1.2879e-10
9.45771e-08
-5.57321e-10
9.46626e-08
-1.10874e-09
9.49221e-08
-1.95064e-09
9.53971e-08
-2.32958e-09
-6.05959e-09
9.55475e-08
1.95541e-07
1.07227e-07
1.98249e-07
9.78363e-08
1.98973e-07
6.71537e-08
1.97797e-07
5.45592e-08
1.95172e-07
4.57207e-08
1.91841e-07
3.87935e-08
1.88122e-07
3.38502e-08
1.84187e-07
3.00056e-08
1.80184e-07
2.67621e-08
1.76223e-07
2.39885e-08
1.72371e-07
2.16186e-08
1.68666e-07
1.95825e-08
1.65129e-07
1.78192e-08
1.61768e-07
1.62816e-08
1.58584e-07
1.4933e-08
1.55571e-07
1.3744e-08
1.52725e-07
1.26905e-08
1.50036e-07
1.17524e-08
1.47495e-07
1.09132e-08
1.45094e-07
1.01587e-08
1.42823e-07
9.4774e-09
1.40674e-07
8.85924e-09
1.3864e-07
8.29584e-09
1.36714e-07
7.77993e-09
1.34887e-07
7.30532e-09
1.33156e-07
6.86652e-09
1.31513e-07
6.45878e-09
1.29955e-07
6.07777e-09
1.28477e-07
5.71967e-09
1.27075e-07
5.38085e-09
1.25746e-07
5.05802e-09
1.24487e-07
4.74791e-09
1.23296e-07
4.44738e-09
1.22172e-07
4.15339e-09
1.21113e-07
3.86222e-09
1.2012e-07
3.57169e-09
1.19193e-07
3.27532e-09
1.18332e-07
2.97498e-09
1.17541e-07
2.65473e-09
1.1682e-07
2.33069e-09
1.16178e-07
1.96053e-09
1.15614e-07
1.59748e-09
1.15141e-07
1.14261e-09
1.14762e-07
7.16827e-10
1.14491e-07
1.42474e-10
1.14345e-07
-4.11067e-10
1.14324e-07
-1.08832e-09
1.14482e-07
-2.10865e-09
1.14849e-07
-2.69643e-09
-6.1119e-09
1.14901e-07
2.00848e-07
9.99636e-08
2.03777e-07
9.49074e-08
2.05331e-07
6.56005e-08
2.0565e-07
5.424e-08
2.04829e-07
4.65418e-08
2.03356e-07
4.02667e-08
2.01419e-07
3.57872e-08
1.99102e-07
3.23223e-08
1.96511e-07
2.93534e-08
1.93747e-07
2.67524e-08
1.9089e-07
2.4475e-08
1.88001e-07
2.24715e-08
1.85124e-07
2.06967e-08
1.82289e-07
1.91159e-08
1.7952e-07
1.77021e-08
1.76831e-07
1.64332e-08
1.74231e-07
1.52908e-08
1.71725e-07
1.42586e-08
1.69315e-07
1.3323e-08
1.67002e-07
1.2472e-08
1.64784e-07
1.16953e-08
1.62659e-07
1.09837e-08
1.60625e-07
1.03296e-08
1.58679e-07
9.72588e-09
1.56818e-07
9.16655e-09
1.55039e-07
8.64615e-09
1.53338e-07
8.15983e-09
1.51712e-07
7.70311e-09
1.5016e-07
7.27195e-09
1.48678e-07
6.86243e-09
1.47265e-07
6.471e-09
1.45919e-07
6.09397e-09
1.44639e-07
5.72788e-09
1.43423e-07
5.36916e-09
1.42272e-07
5.0137e-09
1.41184e-07
4.65874e-09
1.40163e-07
4.29706e-09
1.39207e-07
3.93025e-09
1.38321e-07
3.54072e-09
1.37507e-07
3.14513e-09
1.36769e-07
2.69808e-09
1.36113e-07
2.2538e-09
1.35545e-07
1.71066e-09
1.35076e-07
1.18607e-09
1.34709e-07
5.09553e-10
1.34473e-07
-1.75137e-10
1.34357e-07
-9.72893e-10
1.34412e-07
-2.16301e-09
1.3467e-07
-2.95421e-09
-6.07201e-09
1.3463e-07
2.06447e-07
9.30483e-08
2.09341e-07
9.20137e-08
2.1104e-07
6.39012e-08
2.11938e-07
5.3343e-08
2.12011e-07
4.64681e-08
2.11632e-07
4.06463e-08
2.10911e-07
3.65077e-08
2.09852e-07
3.33811e-08
2.08492e-07
3.07133e-08
2.06889e-07
2.83555e-08
2.05098e-07
2.6266e-08
2.03168e-07
2.44018e-08
2.01141e-07
2.27241e-08
1.99052e-07
2.12047e-08
1.96931e-07
1.98232e-08
1.94801e-07
1.85634e-08
1.9268e-07
1.74115e-08
1.90583e-07
1.63558e-08
1.8852e-07
1.53858e-08
1.86499e-07
1.44925e-08
1.84527e-07
1.36675e-08
1.82607e-07
1.29036e-08
1.80743e-07
1.21944e-08
1.78935e-07
1.15337e-08
1.77185e-07
1.09164e-08
1.75493e-07
1.03376e-08
1.7386e-07
9.79287e-09
1.72285e-07
9.27788e-09
1.70769e-07
8.78881e-09
1.69309e-07
8.32176e-09
1.67907e-07
7.87318e-09
1.66562e-07
7.4392e-09
1.65273e-07
7.01626e-09
1.64042e-07
6.60045e-09
1.62869e-07
6.18739e-09
1.61753e-07
5.77389e-09
1.60698e-07
5.35218e-09
1.59705e-07
4.92349e-09
1.58777e-07
4.46914e-09
1.57916e-07
4.00544e-09
1.57128e-07
3.48595e-09
1.5642e-07
2.96265e-09
1.55794e-07
2.33669e-09
1.55265e-07
1.71412e-09
1.54833e-07
9.42517e-10
1.54529e-07
1.28083e-10
1.54341e-07
-7.84845e-10
1.54305e-07
-2.12662e-09
1.54462e-07
-3.11168e-09
-5.95755e-09
1.54348e-07
2.12289e-07
8.64213e-08
2.15154e-07
8.91489e-08
2.16795e-07
6.22602e-08
2.1785e-07
5.22879e-08
2.1827e-07
4.60484e-08
2.18392e-07
4.05241e-08
2.18324e-07
3.65756e-08
2.18035e-07
3.36701e-08
2.17517e-07
3.12311e-08
2.16789e-07
2.90838e-08
2.15874e-07
2.7181e-08
2.14797e-07
2.54787e-08
2.13584e-07
2.39374e-08
2.12259e-07
2.25295e-08
2.10846e-07
2.1236e-08
2.09366e-07
2.00431e-08
2.07838e-07
1.89395e-08
2.06278e-07
1.79161e-08
2.04699e-07
1.69647e-08
2.03113e-07
1.60784e-08
2.0153e-07
1.5251e-08
1.99957e-07
1.44766e-08
1.98401e-07
1.37504e-08
1.96867e-07
1.30674e-08
1.9536e-07
1.24235e-08
1.93883e-07
1.18145e-08
1.92439e-07
1.12368e-08
1.91031e-07
1.06864e-08
1.89659e-07
1.01601e-08
1.88327e-07
9.65414e-09
1.87035e-07
9.16518e-09
1.85785e-07
8.68943e-09
1.84578e-07
8.22336e-09
1.83415e-07
7.76293e-09
1.82299e-07
7.30361e-09
1.81231e-07
6.842e-09
1.80213e-07
6.36984e-09
1.79248e-07
5.8881e-09
1.7834e-07
5.37741e-09
1.77492e-07
4.85318e-09
1.76709e-07
4.26941e-09
1.75998e-07
3.67357e-09
1.75361e-07
2.97354e-09
1.74817e-07
2.25885e-09
1.74357e-07
1.40155e-09
1.7402e-07
4.65784e-10
1.7379e-07
-5.55198e-10
1.73688e-07
-2.02466e-09
1.73764e-07
-3.1876e-09
-5.7931e-09
1.736e-07
2.1833e-07
8.00716e-08
2.21208e-07
8.62716e-08
2.22768e-07
6.07002e-08
2.2385e-07
5.12059e-08
2.24379e-07
4.55193e-08
2.24679e-07
4.02244e-08
2.24887e-07
3.63677e-08
2.24975e-07
3.35816e-08
2.24922e-07
3.12841e-08
2.24727e-07
2.92784e-08
2.24396e-07
2.75127e-08
2.23933e-07
2.59417e-08
2.23347e-07
2.45229e-08
2.2265e-07
2.32264e-08
2.21854e-07
2.20319e-08
2.20973e-07
2.0925e-08
2.20017e-07
1.98947e-08
2.19001e-07
1.89323e-08
2.17935e-07
1.80306e-08
2.1683e-07
1.71835e-08
2.15695e-07
1.63858e-08
2.14539e-07
1.56327e-08
2.1337e-07
1.49201e-08
2.12193e-07
1.42442e-08
2.11015e-07
1.36016e-08
2.0984e-07
1.29888e-08
2.08674e-07
1.24027e-08
2.07521e-07
1.18401e-08
2.06383e-07
1.1298e-08
2.05264e-07
1.07731e-08
2.04167e-07
1.02623e-08
2.03094e-07
9.7621e-09
2.02049e-07
9.26899e-09
2.01033e-07
8.77899e-09
2.00049e-07
8.28745e-09
1.991e-07
7.79092e-09
1.98189e-07
7.28077e-09
1.97319e-07
6.75775e-09
1.96494e-07
6.20219e-09
1.9572e-07
5.62808e-09
1.94998e-07
4.99118e-09
1.94339e-07
4.33274e-09
1.93742e-07
3.57012e-09
1.93227e-07
2.77352e-09
1.92787e-07
1.84202e-09
1.92454e-07
7.99052e-10
1.92219e-07
-3.20089e-10
1.92084e-07
-1.89038e-09
1.92106e-07
-3.2093e-09
-5.60811e-09
1.91921e-07
2.24559e-07
7.40057e-08
2.27472e-07
8.33588e-08
2.28965e-07
5.92075e-08
2.30052e-07
5.01185e-08
2.30623e-07
4.49487e-08
2.30971e-07
3.98757e-08
2.31269e-07
3.60704e-08
2.31505e-07
3.33453e-08
2.3166e-07
3.11288e-08
2.31732e-07
2.92062e-08
2.31721e-07
2.75243e-08
2.31623e-07
2.6039e-08
2.3144e-07
2.47066e-08
2.31171e-07
2.34948e-08
2.30822e-07
2.23814e-08
2.30396e-07
2.13508e-08
2.299e-07
2.03911e-08
2.29339e-07
1.94928e-08
2.28721e-07
1.86484e-08
2.28053e-07
1.78517e-08
2.27341e-07
1.70976e-08
2.26592e-07
1.63817e-08
2.25812e-07
1.57001e-08
2.25007e-07
1.50494e-08
2.24182e-07
1.44265e-08
2.23343e-07
1.38284e-08
2.22493e-07
1.32523e-08
2.21638e-07
1.26955e-08
2.2078e-07
1.21551e-08
2.19925e-07
1.16283e-08
2.19075e-07
1.11121e-08
2.18234e-07
1.06032e-08
2.17405e-07
1.00981e-08
2.16591e-07
9.5931e-09
2.15795e-07
9.0833e-09
2.15021e-07
8.56534e-09
2.14271e-07
8.03026e-09
2.13551e-07
7.47857e-09
2.12862e-07
6.89065e-09
2.12212e-07
6.27871e-09
2.11601e-07
5.60119e-09
2.11042e-07
4.89208e-09
2.10532e-07
4.0798e-09
2.10092e-07
3.21439e-09
2.09712e-07
2.22149e-09
2.09422e-07
1.08914e-09
2.09218e-07
-1.15654e-10
2.09087e-07
-1.75943e-09
2.09086e-07
-3.20861e-09
-5.43443e-09
2.08912e-07
2.3098e-07
6.82317e-08
2.33937e-07
8.04021e-08
2.3537e-07
5.77739e-08
2.36464e-07
4.90249e-08
2.37068e-07
4.43444e-08
2.37432e-07
3.95116e-08
2.37751e-07
3.57513e-08
2.38034e-07
3.3063e-08
2.38265e-07
3.08979e-08
2.38446e-07
2.90249e-08
2.3858e-07
2.73906e-08
2.38664e-07
2.59547e-08
2.38696e-07
2.46745e-08
2.38674e-07
2.35167e-08
2.38597e-07
2.24582e-08
2.38466e-07
2.14822e-08
2.38281e-07
2.05759e-08
2.38045e-07
1.97291e-08
2.37759e-07
1.89336e-08
2.37428e-07
1.81828e-08
2.37055e-07
1.74711e-08
2.36643e-07
1.67938e-08
2.36196e-07
1.6147e-08
2.35718e-07
1.55273e-08
2.35213e-07
1.49314e-08
2.34685e-07
1.43565e-08
2.34137e-07
1.37999e-08
2.33574e-07
1.32589e-08
2.32998e-07
1.27309e-08
2.32413e-07
1.22131e-08
2.31823e-07
1.17027e-08
2.3123e-07
1.11963e-08
2.30637e-07
1.06907e-08
2.30048e-07
1.01819e-08
2.29466e-07
9.66516e-09
2.28895e-07
9.13703e-09
2.28337e-07
8.5883e-09
2.27796e-07
8.01917e-09
2.27276e-07
7.41038e-09
2.26783e-07
6.77196e-09
2.26319e-07
6.06582e-09
2.25893e-07
5.31803e-09
2.25504e-07
4.46873e-09
2.25169e-07
3.54857e-09
2.24884e-07
2.50711e-09
2.24669e-07
1.30443e-09
2.24525e-07
2.79001e-11
2.24429e-07
-1.6637e-09
2.24437e-07
-3.21619e-09
-5.30194e-09
2.24304e-07
2.37601e-07
6.27554e-08
2.40604e-07
7.7399e-08
2.41981e-07
5.63975e-08
2.43079e-07
4.79262e-08
2.43721e-07
4.37028e-08
2.44099e-07
3.91338e-08
2.44423e-07
3.54266e-08
2.44718e-07
3.27679e-08
2.44972e-07
3.06439e-08
2.4519e-07
2.88068e-08
2.45379e-07
2.72023e-08
2.45538e-07
2.57953e-08
2.45668e-07
2.45452e-08
2.45765e-07
2.3419e-08
2.4583e-07
2.23934e-08
2.45861e-07
2.14513e-08
2.45857e-07
2.05796e-08
2.45819e-07
1.97677e-08
2.45745e-07
1.90068e-08
2.45638e-07
1.82899e-08
2.45499e-07
1.76109e-08
2.45327e-07
1.6965e-08
2.45126e-07
1.63479e-08
2.44898e-07
1.57557e-08
2.44644e-07
1.51853e-08
2.44367e-07
1.46336e-08
2.44069e-07
1.40979e-08
2.43753e-07
1.35752e-08
2.4342e-07
1.30631e-08
2.43075e-07
1.25587e-08
2.42718e-07
1.2059e-08
2.42354e-07
1.15609e-08
2.41984e-07
1.10609e-08
2.4161e-07
1.05551e-08
2.41237e-07
1.00385e-08
2.40866e-07
9.50762e-09
2.40502e-07
8.95315e-09
2.40146e-07
8.37477e-09
2.39803e-07
7.75388e-09
2.39476e-07
7.098e-09
2.39169e-07
6.37302e-09
2.3889e-07
5.59696e-09
2.38638e-07
4.72135e-09
2.38427e-07
3.75952e-09
2.38253e-07
2.68098e-09
2.38131e-07
1.42612e-09
2.38068e-07
9.11231e-11
2.3803e-07
-1.62607e-09
2.38071e-07
-3.25629e-09
-5.2336e-09
2.38002e-07
2.44431e-07
5.75806e-08
2.47474e-07
7.43562e-08
2.48801e-07
5.50699e-08
2.49901e-07
4.68271e-08
2.50581e-07
4.30223e-08
2.50976e-07
3.87387e-08
2.51306e-07
3.50972e-08
2.51606e-07
3.24672e-08
2.51868e-07
3.0382e-08
2.52098e-07
2.85775e-08
2.52303e-07
2.69967e-08
2.52489e-07
2.56098e-08
2.52655e-07
2.4379e-08
2.52802e-07
2.3272e-08
2.52929e-07
2.2266e-08
2.53037e-07
2.1344e-08
2.53123e-07
2.0493e-08
2.53189e-07
1.97023e-08
2.53232e-07
1.8963e-08
2.53254e-07
1.82679e-08
2.53255e-07
1.76108e-08
2.53233e-07
1.69864e-08
2.53191e-07
1.63902e-08
2.53128e-07
1.58184e-08
2.53046e-07
1.52673e-08
2.52946e-07
1.47339e-08
2.52829e-07
1.42152e-08
2.52696e-07
1.37082e-08
2.52549e-07
1.32103e-08
2.52389e-07
1.27183e-08
2.52218e-07
1.22295e-08
2.52039e-07
1.17405e-08
2.51852e-07
1.12475e-08
2.5166e-07
1.0747e-08
2.51465e-07
1.02333e-08
2.5127e-07
9.70319e-09
2.51076e-07
9.14706e-09
2.50887e-07
8.56404e-09
2.50704e-07
7.9364e-09
2.50533e-07
7.26898e-09
2.50374e-07
6.53179e-09
2.50236e-07
5.73519e-09
2.50116e-07
4.8411e-09
2.50028e-07
3.84829e-09
2.49967e-07
2.74169e-09
2.49943e-07
1.4499e-09
2.49966e-07
6.84649e-11
2.49998e-07
-1.65785e-09
2.50085e-07
-3.3436e-09
-5.24205e-09
2.50093e-07
2.51478e-07
5.27089e-08
2.54551e-07
7.12832e-08
2.5584e-07
5.37808e-08
2.56934e-07
4.57331e-08
2.57653e-07
4.23039e-08
2.58068e-07
3.83233e-08
2.58404e-07
3.47618e-08
2.5871e-07
3.21609e-08
2.58977e-07
3.01145e-08
2.59212e-07
2.83433e-08
2.59423e-07
2.67853e-08
2.59617e-07
2.54159e-08
2.59795e-07
2.42005e-08
2.5996e-07
2.31077e-08
2.60111e-07
2.21149e-08
2.60249e-07
2.12059e-08
2.60374e-07
2.03677e-08
2.60487e-07
1.95898e-08
2.60586e-07
1.88634e-08
2.60673e-07
1.81814e-08
2.60746e-07
1.75374e-08
2.60806e-07
1.69262e-08
2.60853e-07
1.63432e-08
2.60888e-07
1.57842e-08
2.60909e-07
1.52457e-08
2.60919e-07
1.47244e-08
2.60917e-07
1.42172e-08
2.60904e-07
1.3721e-08
2.60881e-07
1.32331e-08
2.60849e-07
1.27502e-08
2.60809e-07
1.22694e-08
2.60762e-07
1.17872e-08
2.6071e-07
1.12999e-08
2.60654e-07
1.08035e-08
2.60594e-07
1.02926e-08
2.60534e-07
9.76344e-09
2.60475e-07
9.20662e-09
2.60418e-07
8.62045e-09
2.60366e-07
7.98831e-09
2.60323e-07
7.31226e-09
2.60288e-07
6.56639e-09
2.60269e-07
5.75413e-09
2.60264e-07
4.84628e-09
2.60282e-07
3.83026e-09
2.60322e-07
2.70172e-09
2.60387e-07
1.38459e-09
2.6049e-07
-3.35521e-11
2.6059e-07
-1.75865e-09
2.60729e-07
-3.48272e-09
-5.32942e-09
2.60817e-07
2.58751e-07
4.81405e-08
2.61845e-07
6.81899e-08
2.63106e-07
5.25197e-08
2.6419e-07
4.46494e-08
2.64943e-07
4.15502e-08
2.65381e-07
3.78856e-08
2.65724e-07
3.44192e-08
2.66036e-07
3.18487e-08
2.66309e-07
2.98412e-08
2.66548e-07
2.81048e-08
2.66762e-07
2.65706e-08
2.6696e-07
2.52186e-08
2.67142e-07
2.40177e-08
2.67313e-07
2.29375e-08
2.67472e-07
2.19559e-08
2.67621e-07
2.10568e-08
2.67761e-07
2.02278e-08
2.67892e-07
1.94586e-08
2.68014e-07
1.87407e-08
2.68129e-07
1.80668e-08
2.68236e-07
1.74308e-08
2.68335e-07
1.68274e-08
2.68426e-07
1.6252e-08
2.6851e-07
1.57004e-08
2.68586e-07
1.51692e-08
2.68656e-07
1.46548e-08
2.68719e-07
1.41542e-08
2.68776e-07
1.36642e-08
2.68827e-07
1.31818e-08
2.68873e-07
1.2704e-08
2.68915e-07
1.22276e-08
2.68953e-07
1.17491e-08
2.68988e-07
1.12645e-08
2.69022e-07
1.077e-08
2.69055e-07
1.02598e-08
2.69088e-07
9.73018e-09
2.69123e-07
9.17171e-09
2.69161e-07
8.5819e-09
2.69204e-07
7.94535e-09
2.69255e-07
7.26144e-09
2.69313e-07
6.50803e-09
2.69385e-07
5.68263e-09
2.69468e-07
4.76317e-09
2.69569e-07
3.72896e-09
2.69689e-07
2.58201e-09
2.69826e-07
1.24728e-09
2.69993e-07
-2.00047e-10
2.70154e-07
-1.91936e-09
2.70341e-07
-3.67011e-09
-5.48945e-09
2.70501e-07
2.66259e-07
4.38737e-08
2.69362e-07
6.50869e-08
2.70606e-07
5.1276e-08
2.71675e-07
4.35803e-08
2.72461e-07
4.07645e-08
2.72922e-07
3.74238e-08
2.73273e-07
3.40687e-08
2.73591e-07
3.15305e-08
2.73871e-07
2.95616e-08
2.74114e-07
2.78615e-08
2.74332e-07
2.63526e-08
2.74532e-07
2.50186e-08
2.74717e-07
2.38324e-08
2.7489e-07
2.27647e-08
2.75052e-07
2.17937e-08
2.75205e-07
2.09039e-08
2.7535e-07
2.00829e-08
2.75488e-07
1.93209e-08
2.75619e-07
1.86094e-08
2.75744e-07
1.79414e-08
2.75864e-07
1.73108e-08
2.75979e-07
1.67123e-08
2.7609e-07
1.61415e-08
2.76196e-07
1.55943e-08
2.76298e-07
1.50669e-08
2.76397e-07
1.45561e-08
2.76493e-07
1.40586e-08
2.76585e-07
1.35714e-08
2.76676e-07
1.30913e-08
2.76765e-07
1.26154e-08
2.76852e-07
1.21403e-08
2.76939e-07
1.16625e-08
2.77025e-07
1.11779e-08
2.77112e-07
1.06828e-08
2.77201e-07
1.01711e-08
2.77292e-07
9.63896e-09
2.77387e-07
9.07719e-09
2.77486e-07
8.48241e-09
2.77591e-07
7.84047e-09
2.77704e-07
7.1483e-09
2.77825e-07
6.38708e-09
2.77958e-07
5.54953e-09
2.78103e-07
4.61893e-09
2.78262e-07
3.56945e-09
2.78438e-07
2.4058e-09
2.78628e-07
1.05803e-09
2.78841e-07
-4.13104e-10
2.79048e-07
-2.1263e-09
2.79275e-07
-3.89737e-09
-5.71096e-09
2.79496e-07
2.7401e-07
3.99051e-08
2.77112e-07
6.19852e-08
2.78348e-07
5.00395e-08
2.79399e-07
4.25293e-08
2.80213e-07
3.99509e-08
2.807e-07
3.69363e-08
2.8106e-07
3.37092e-08
2.81384e-07
3.12063e-08
2.8167e-07
2.92755e-08
2.81918e-07
2.76131e-08
2.8214e-07
2.61309e-08
2.82343e-07
2.48158e-08
2.8253e-07
2.36447e-08
2.82705e-07
2.25898e-08
2.82869e-07
2.16297e-08
2.83024e-07
2.0749e-08
2.83171e-07
1.99359e-08
2.83311e-07
1.91807e-08
2.83446e-07
1.84751e-08
2.83575e-07
1.78121e-08
2.837e-07
1.71859e-08
2.83821e-07
1.65912e-08
2.83939e-07
1.60236e-08
2.84054e-07
1.5479e-08
2.84167e-07
1.49539e-08
2.84279e-07
1.44447e-08
2.84389e-07
1.39485e-08
2.84498e-07
1.3462e-08
2.84607e-07
1.29823e-08
2.84716e-07
1.25061e-08
2.84827e-07
1.20302e-08
2.84938e-07
1.1551e-08
2.85051e-07
1.10645e-08
2.85167e-07
1.05667e-08
2.85287e-07
1.00517e-08
2.8541e-07
9.51537e-09
2.85539e-07
8.94875e-09
2.85674e-07
8.34765e-09
2.85815e-07
7.69913e-09
2.85965e-07
6.99798e-09
2.86124e-07
6.22815e-09
2.86295e-07
5.37871e-09
2.86477e-07
4.43663e-09
2.86673e-07
3.37345e-09
2.86885e-07
2.19386e-09
2.87108e-07
8.35312e-10
2.87351e-07
-6.55951e-10
2.8759e-07
-2.36535e-09
2.87847e-07
-4.15455e-09
-5.98118e-09
2.88117e-07
2.82013e-07
3.62292e-08
2.85102e-07
5.88963e-08
2.86341e-07
4.88006e-08
2.87371e-07
4.14991e-08
2.88208e-07
3.91141e-08
2.88722e-07
3.6422e-08
2.89092e-07
3.33396e-08
2.89422e-07
3.08764e-08
2.89715e-07
2.89828e-08
2.89969e-07
2.73592e-08
2.90194e-07
2.59053e-08
2.904e-07
2.46099e-08
2.9059e-07
2.34545e-08
2.90767e-07
2.24129e-08
2.90933e-07
2.14639e-08
2.9109e-07
2.05926e-08
2.91238e-07
1.97875e-08
2.9138e-07
1.9039e-08
2.91515e-07
1.83392e-08
2.91646e-07
1.76811e-08
2.91773e-07
1.7059e-08
2.91897e-07
1.64677e-08
2.92018e-07
1.59028e-08
2.92136e-07
1.53603e-08
2.92254e-07
1.48366e-08
2.9237e-07
1.43284e-08
2.92486e-07
1.38324e-08
2.92602e-07
1.33457e-08
2.92719e-07
1.28651e-08
2.92838e-07
1.23876e-08
2.92959e-07
1.19097e-08
2.93082e-07
1.1428e-08
2.93208e-07
1.09383e-08
2.93338e-07
1.04366e-08
2.93473e-07
9.91712e-09
2.93613e-07
9.37536e-09
2.93758e-07
8.8028e-09
2.93912e-07
8.1944e-09
2.94072e-07
7.53835e-09
2.94243e-07
6.82764e-09
2.94423e-07
6.0484e-09
2.94614e-07
5.18715e-09
2.94818e-07
4.23311e-09
2.95034e-07
3.15708e-09
2.95266e-07
1.96199e-09
2.95508e-07
5.93541e-10
2.95767e-07
-9.15381e-10
2.96026e-07
-2.62456e-09
2.96304e-07
-4.43246e-09
-6.28814e-09
2.96611e-07
2.90279e-07
3.28391e-08
2.93343e-07
5.58319e-08
2.94593e-07
4.75505e-08
2.95601e-07
4.04916e-08
2.96456e-07
3.82594e-08
2.96998e-07
3.58797e-08
2.97379e-07
3.29584e-08
2.97715e-07
3.05406e-08
2.98014e-07
2.86835e-08
2.98274e-07
2.70994e-08
2.98504e-07
2.56754e-08
2.98713e-07
2.44008e-08
2.98906e-07
2.32615e-08
2.99085e-07
2.22336e-08
2.99253e-07
2.12962e-08
2.99411e-07
2.04346e-08
2.99561e-07
1.96377e-08
2.99704e-07
1.88961e-08
2.99841e-07
1.82022e-08
2.99973e-07
1.75491e-08
3.00101e-07
1.6931e-08
3.00226e-07
1.6343e-08
3.00348e-07
1.57806e-08
3.00468e-07
1.524e-08
3.00587e-07
1.47176e-08
3.00706e-07
1.42099e-08
3.00824e-07
1.37139e-08
3.00943e-07
1.32265e-08
3.01064e-07
1.27446e-08
3.01186e-07
1.22651e-08
3.01311e-07
1.17847e-08
3.0144e-07
1.12998e-08
3.01572e-07
1.08063e-08
3.01708e-07
1.03001e-08
3.0185e-07
9.77543e-09
3.01998e-07
9.22763e-09
3.02152e-07
8.64848e-09
3.02314e-07
8.03225e-09
3.02484e-07
7.36806e-09
3.02664e-07
6.64751e-09
3.02854e-07
5.85833e-09
3.03056e-07
4.98541e-09
3.0327e-07
4.01911e-09
3.03497e-07
2.93078e-09
3.03738e-07
1.72071e-09
3.03989e-07
3.42557e-10
3.04256e-07
-1.18233e-09
3.04526e-07
-2.89522e-09
3.04818e-07
-4.72389e-09
-6.62164e-09
3.05151e-07
2.98816e-07
2.97258e-08
3.01844e-07
5.28041e-08
3.03113e-07
4.62812e-08
3.04097e-07
3.95077e-08
3.04964e-07
3.73921e-08
3.05535e-07
3.53091e-08
3.05929e-07
3.25641e-08
3.06271e-07
3.01989e-08
3.06577e-07
2.83775e-08
3.06843e-07
2.68333e-08
3.07077e-07
2.54409e-08
3.0729e-07
2.41881e-08
3.07486e-07
2.30656e-08
3.07668e-07
2.20518e-08
3.07838e-07
2.11263e-08
3.07997e-07
2.02747e-08
3.08149e-07
1.94863e-08
3.08293e-07
1.87519e-08
3.08431e-07
1.8064e-08
3.08564e-07
1.74159e-08
3.08693e-07
1.6802e-08
3.08819e-07
1.62173e-08
3.08942e-07
1.56576e-08
3.09063e-07
1.51188e-08
3.09184e-07
1.45975e-08
3.09303e-07
1.40903e-08
3.09423e-07
1.35941e-08
3.09544e-07
1.31058e-08
3.09666e-07
1.26224e-08
3.0979e-07
1.21408e-08
3.09917e-07
1.16575e-08
3.10048e-07
1.11692e-08
3.10183e-07
1.06716e-08
3.10322e-07
1.01606e-08
3.10467e-07
9.63046e-09
3.10618e-07
9.07632e-09
3.10777e-07
8.49029e-09
3.10943e-07
7.86601e-09
3.11117e-07
7.1934e-09
3.11302e-07
6.463e-09
3.11497e-07
5.66364e-09
3.11703e-07
4.77935e-09
3.11921e-07
3.80079e-09
3.12151e-07
2.70065e-09
3.12396e-07
1.47628e-09
3.1265e-07
8.83663e-11
3.12919e-07
-1.45123e-09
3.13195e-07
-3.17156e-09
3.13495e-07
-5.02358e-09
-6.9733e-09
3.13846e-07
3.07634e-07
2.68789e-08
3.10613e-07
4.9825e-08
3.11909e-07
4.4986e-08
3.12869e-07
3.85472e-08
3.13744e-07
3.65176e-08
3.14342e-07
3.47105e-08
3.14751e-07
3.21551e-08
3.15099e-07
2.9851e-08
3.15412e-07
2.80649e-08
3.15684e-07
2.65607e-08
3.15924e-07
2.52014e-08
3.1614e-07
2.39716e-08
3.16339e-07
2.28666e-08
3.16524e-07
2.18672e-08
3.16696e-07
2.09541e-08
3.16858e-07
2.01129e-08
3.17011e-07
1.93331e-08
3.17156e-07
1.86061e-08
3.17296e-07
1.79244e-08
3.1743e-07
1.72816e-08
3.1756e-07
1.66719e-08
3.17687e-07
1.60907e-08
3.17811e-07
1.55335e-08
3.17933e-07
1.49966e-08
3.18054e-07
1.44764e-08
3.18175e-07
1.39697e-08
3.18296e-07
1.34733e-08
3.18417e-07
1.29841e-08
3.18541e-07
1.24991e-08
3.18666e-07
1.20153e-08
3.18795e-07
1.15291e-08
3.18927e-07
1.10372e-08
3.19063e-07
1.05353e-08
3.19204e-07
1.00194e-08
3.19351e-07
9.48374e-09
3.19504e-07
8.92319e-09
3.19664e-07
8.33019e-09
3.19832e-07
7.69787e-09
3.20009e-07
7.01678e-09
3.20195e-07
6.2767e-09
3.20391e-07
5.46719e-09
3.20599e-07
4.57192e-09
3.20818e-07
3.58137e-09
3.21049e-07
2.46992e-09
3.21293e-07
1.23214e-09
3.21547e-07
-1.6565e-10
3.21815e-07
-1.71887e-09
3.22093e-07
-3.44986e-09
3.22397e-07
-5.3277e-09
-7.33612e-09
3.2276e-07
3.16744e-07
2.42863e-08
3.19662e-07
4.69065e-08
3.20989e-07
4.36596e-08
3.21927e-07
3.76091e-08
3.22803e-07
3.56411e-08
3.23429e-07
3.4085e-08
3.23854e-07
3.17299e-08
3.24209e-07
2.94965e-08
3.24528e-07
2.77458e-08
3.24807e-07
2.62814e-08
3.25052e-07
2.49565e-08
3.25272e-07
2.37511e-08
3.25475e-07
2.26641e-08
3.25662e-07
2.16798e-08
3.25837e-07
2.07794e-08
3.26001e-07
1.99489e-08
3.26156e-07
1.91782e-08
3.26303e-07
1.84587e-08
3.26444e-07
1.77834e-08
3.2658e-07
1.71459e-08
3.26711e-07
1.65407e-08
3.26839e-07
1.59629e-08
3.26964e-07
1.54085e-08
3.27087e-07
1.48735e-08
3.27209e-07
1.43545e-08
3.27331e-07
1.38482e-08
3.27453e-07
1.33515e-08
3.27575e-07
1.28614e-08
3.277e-07
1.23748e-08
3.27826e-07
1.18887e-08
3.27956e-07
1.13996e-08
3.28089e-07
1.09041e-08
3.28226e-07
1.0398e-08
3.28368e-07
9.8771e-09
3.28516e-07
9.33586e-09
3.2867e-07
8.76891e-09
3.28832e-07
8.16897e-09
3.29001e-07
7.52874e-09
3.29178e-07
6.83923e-09
3.29365e-07
6.08978e-09
3.29562e-07
5.2703e-09
3.2977e-07
4.36454e-09
3.29988e-07
3.3625e-09
3.30218e-07
2.2403e-09
3.3046e-07
9.90134e-10
3.30712e-07
-4.17498e-10
3.30977e-07
-1.98344e-09
3.31254e-07
-3.72753e-09
3.3156e-07
-5.63313e-09
-7.70392e-09
3.31927e-07
3.26154e-07
2.19346e-08
3.29e-07
4.40604e-08
3.30362e-07
4.22983e-08
3.31279e-07
3.66914e-08
3.32153e-07
3.47673e-08
3.32804e-07
3.34342e-08
3.33247e-07
3.12869e-08
3.33609e-07
2.91347e-08
3.33934e-07
2.74204e-08
3.34221e-07
2.59951e-08
3.34471e-07
2.47059e-08
3.34696e-07
2.35262e-08
3.34902e-07
2.24581e-08
3.35093e-07
2.14892e-08
3.3527e-07
2.0602e-08
3.35437e-07
1.97826e-08
3.35594e-07
1.90211e-08
3.35743e-07
1.83095e-08
3.35885e-07
1.76408e-08
3.36023e-07
1.70088e-08
3.36155e-07
1.6408e-08
3.36284e-07
1.58339e-08
3.3641e-07
1.52822e-08
3.36535e-07
1.47492e-08
3.36658e-07
1.42314e-08
3.3678e-07
1.37256e-08
3.36903e-07
1.32287e-08
3.37027e-07