/*--------------------------------*- C++ -*----------------------------------*\
  =========                 |
  \\      /  F ield         | OpenFOAM: The Open Source CFD Toolbox
   \\    /   O peration     | Website:  https://openfoam.org
    \\  /    A nd           | Version:  7
     \\/     M anipulation  |
\*---------------------------------------------------------------------------*/
FoamFile
{
    version     2.0;
    format      ascii;
    class       volVectorField;
    location    "0.33";
    object      U;
}
// * * * * * * * * * * * * * * * * * * * * * * * * * * * * * * * * * * * * * //

dimensions      [0 1 -1 0 0 0 0];

internalField   nonuniform List<vector> 
70000
(
(0.553392 0.0167229 0)
(0.251271 0.00340083 0)
(0.166224 0.0003218 0)
(0.132492 5.41091e-05 0)
(0.117317 4.55479e-05 0)
(0.107409 5.37181e-05 0)
(0.0994785 4.60807e-05 0)
(0.0930559 3.67367e-05 0)
(0.087829 3.04176e-05 0)
(0.0834779 2.60847e-05 0)
(0.0797743 2.27782e-05 0)
(0.0765706 2.01245e-05 0)
(0.0737657 1.79538e-05 0)
(0.0712857 1.61531e-05 0)
(0.0690745 1.46386e-05 0)
(0.067089 1.3348e-05 0)
(0.0652951 1.22351e-05 0)
(0.0636658 1.12647e-05 0)
(0.062179 1.04095e-05 0)
(0.0608172 9.64807e-06 0)
(0.0595655 8.96308e-06 0)
(0.0584118 8.34035e-06 0)
(0.057346 7.7681e-06 0)
(0.0563597 7.23608e-06 0)
(0.0554458 6.7358e-06 0)
(0.0545984 6.25961e-06 0)
(0.0538126 5.79978e-06 0)
(0.0530842 5.35107e-06 0)
(0.0524101 4.90445e-06 0)
(0.0517876 4.45778e-06 0)
(0.0512149 3.99747e-06 0)
(0.0506903 3.52857e-06 0)
(0.0502136 3.02458e-06 0)
(0.0497841 2.50818e-06 0)
(0.0494033 1.92317e-06 0)
(0.049071 1.32884e-06 0)
(0.0487907 6.19911e-07 0)
(0.0485638 -1.05155e-07 0)
(0.0483939 -9.6027e-07 0)
(0.048289 -1.96578e-06 0)
(0.0482423 -2.76643e-06 0)
(0.0482916 -4.68579e-06 0)
(0.048377 -4.85414e-06 0)
(0.0486437 -8.07577e-06 0)
(0.048848 -6.32408e-06 0)
(0.0494575 -1.41405e-05 0)
(0.0497076 -5.10112e-06 0)
(0.0509011 -2.76104e-05 0)
(0.0512191 3.00663e-05 0)
(0.0493437 -0.0019421 0)
(0.884899 0.0431669 0)
(0.649731 0.0201929 0)
(0.494363 0.00659677 0)
(0.403744 0.00276587 0)
(0.354858 0.00155018 0)
(0.323597 0.00112973 0)
(0.29978 0.00090854 0)
(0.280625 0.000744656 0)
(0.264953 0.000621813 0)
(0.251872 0.000531045 0)
(0.240733 0.000462104 0)
(0.231095 0.00040781 0)
(0.222651 0.00036389 0)
(0.21518 0.000327684 0)
(0.208514 0.000297385 0)
(0.202524 0.000271695 0)
(0.197106 0.000249655 0)
(0.192181 0.000230546 0)
(0.187681 0.000213812 0)
(0.183555 0.000199021 0)
(0.179756 0.000185831 0)
(0.17625 0.000173965 0)
(0.173005 0.000163196 0)
(0.169996 0.000153334 0)
(0.1672 0.000144221 0)
(0.1646 0.000135718 0)
(0.162181 0.000127701 0)
(0.159928 0.000120061 0)
(0.157833 0.000112688 0)
(0.155886 0.00010549 0)
(0.154081 9.83514e-05 0)
(0.152411 9.11974e-05 0)
(0.150876 8.38714e-05 0)
(0.149471 7.63392e-05 0)
(0.148198 6.83379e-05 0)
(0.147057 5.99475e-05 0)
(0.146055 5.06667e-05 0)
(0.145194 4.08156e-05 0)
(0.144483 2.94957e-05 0)
(0.143942 1.73669e-05 0)
(0.143553 3.30101e-06 0)
(0.143414 -1.18724e-05 0)
(0.143367 -3.0632e-05 0)
(0.143797 -5.26715e-05 0)
(0.144061 -7.41134e-05 0)
(0.145389 -0.000109384 0)
(0.145808 -0.000123513 0)
(0.148623 -0.000228493 0)
(0.149255 4.10392e-05 0)
(0.150334 -0.00341189 0)
(0.991237 0.0499005 0)
(0.89036 0.0307165 0)
(0.762728 0.0145942 0)
(0.656765 0.00797542 0)
(0.585496 0.00488029 0)
(0.536151 0.00346641 0)
(0.498346 0.00273096 0)
(0.467786 0.00223879 0)
(0.442527 0.00187577 0)
(0.421271 0.00160421 0)
(0.403072 0.00139672 0)
(0.387262 0.0012333 0)
(0.373367 0.00110122 0)
(0.36104 0.000992384 0)
(0.350014 0.000901307 0)
(0.340083 0.000824093 0)
(0.331085 0.000757873 0)
(0.32289 0.000700484 0)
(0.315391 0.000650268 0)
(0.308502 0.00060593 0)
(0.302151 0.000566446 0)
(0.296278 0.000530991 0)
(0.290832 0.000498893 0)
(0.285773 0.000469588 0)
(0.281063 0.00044261 0)
(0.276672 0.00041755 0)
(0.272576 0.000394051 0)
(0.268751 0.000371793 0)
(0.26518 0.000350475 0)
(0.261847 0.000329821 0)
(0.258741 0.000309535 0)
(0.255851 0.000289372 0)
(0.253172 0.000268964 0)
(0.250697 0.000248128 0)
(0.248427 0.00022629 0)
(0.246359 0.000203468 0)
(0.244501 0.000178566 0)
(0.242856 0.000152169 0)
(0.241435 0.000122008 0)
(0.240263 9.01312e-05 0)
(0.239314 5.16906e-05 0)
(0.238729 1.27943e-05 0)
(0.238277 -3.91802e-05 0)
(0.238511 -9.20507e-05 0)
(0.238518 -0.000160584 0)
(0.240023 -0.000237368 0)
(0.240305 -0.00030813 0)
(0.24386 -0.000522003 0)
(0.24436 -0.000262238 0)
(0.248784 -0.00384564 0)
(1.0156 0.0489192 0)
(1.00597 0.0358716 0)
(0.935984 0.0207861 0)
(0.852201 0.0134971 0)
(0.782322 0.00919968 0)
(0.727194 0.00677261 0)
(0.682187 0.00537482 0)
(0.644504 0.0044359 0)
(0.612557 0.00374248 0)
(0.585155 0.00321686 0)
(0.561365 0.00281059 0)
(0.54048 0.00248851 0)
(0.521973 0.00222709 0)
(0.50544 0.00201094 0)
(0.490569 0.00182957 0)
(0.477111 0.00167544 0)
(0.464867 0.00154301 0)
(0.453673 0.00142808 0)
(0.443398 0.00132741 0)
(0.43393 0.00123848 0)
(0.425178 0.00115926 0)
(0.417063 0.00108815 0)
(0.409521 0.00102381 0)
(0.402496 0.000965149 0)
(0.39594 0.000911241 0)
(0.389814 0.000861287 0)
(0.384081 0.000814595 0)
(0.378713 0.000770538 0)
(0.373685 0.000728544 0)
(0.368976 0.000688073 0)
(0.364568 0.000648587 0)
(0.360447 0.000609589 0)
(0.356604 0.000570452 0)
(0.353027 0.000530752 0)
(0.349718 0.000489557 0)
(0.346668 0.000446708 0)
(0.343888 0.000400438 0)
(0.341377 0.000351547 0)
(0.339146 0.000296006 0)
(0.337224 0.000237752 0)
(0.335578 0.000166656 0)
(0.33437 9.53519e-05 0)
(0.333338 -2.45474e-07 0)
(0.333102 -9.05297e-05 0)
(0.332652 -0.000223739 0)
(0.333878 -0.00034979 0)
(0.333854 -0.000505384 0)
(0.33736 -0.00082234 0)
(0.337656 -0.000694234 0)
(0.34317 -0.00401669 0)
(1.01434 0.0460025 0)
(1.04754 0.0374844 0)
(1.0246 0.0241442 0)
(0.974813 0.017549 0)
(0.923553 0.0131102 0)
(0.876849 0.0101926 0)
(0.834767 0.00832853 0)
(0.797104 0.00700752 0)
(0.763626 0.00599798 0)
(0.733892 0.00521069 0)
(0.70739 0.00458864 0)
(0.683651 0.00408764 0)
(0.662274 0.00367626 0)
(0.64293 0.00333303 0)
(0.625343 0.00304288 0)
(0.609285 0.00279481 0)
(0.594562 0.0025806 0)
(0.581014 0.00239391 0)
(0.568505 0.00222983 0)
(0.55692 0.00208446 0)
(0.546162 0.00195471 0)
(0.536146 0.00183803 0)
(0.526802 0.00173236 0)
(0.518066 0.00163596 0)
(0.509886 0.00154738 0)
(0.502216 0.00146535 0)
(0.495016 0.00138878 0)
(0.488252 0.00131668 0)
(0.481895 0.00124815 0)
(0.475919 0.00118232 0)
(0.470304 0.00111839 0)
(0.46503 0.00105553 0)
(0.460088 0.000992847 0)
(0.455463 0.000929587 0)
(0.451153 0.000864458 0)
(0.447149 0.000797029 0)
(0.443459 0.000724843 0)
(0.440079 0.000648857 0)
(0.437024 0.000563117 0)
(0.434318 0.000473662 0)
(0.431932 0.000364408 0)
(0.430022 0.000256228 0)
(0.428337 0.000108872 0)
(0.427475 -2.48644e-05 0)
(0.426485 -0.000229974 0)
(0.427135 -0.000415366 0)
(0.426753 -0.000666154 0)
(0.429646 -0.00108976 0)
(0.429889 -0.00113061 0)
(0.43477 -0.00418944 0)
(1.00933 0.0429137 0)
(1.05528 0.0372591 0)
(1.0587 0.0252871 0)
(1.03641 0.0197462 0)
(1.00718 0.0157955 0)
(0.976185 0.0129177 0)
(0.94473 0.0109404 0)
(0.913945 0.00945804 0)
(0.884676 0.0082679 0)
(0.857304 0.00730039 0)
(0.831908 0.00651043 0)
(0.808422 0.00585783 0)
(0.786727 0.00531118 0)
(0.76668 0.00484771 0)
(0.748135 0.00445074 0)
(0.730952 0.00410763 0)
(0.715002 0.0038086 0)
(0.700168 0.00354598 0)
(0.686344 0.00331365 0)
(0.673437 0.00310667 0)
(0.661364 0.00292105 0)
(0.650051 0.00275348 0)
(0.639435 0.00260123 0)
(0.629457 0.00246198 0)
(0.620069 0.00233378 0)
(0.611226 0.00221491 0)
(0.602888 0.00210389 0)
(0.595022 0.00199935 0)
(0.587599 0.00190006 0)
(0.580592 0.00180484 0)
(0.573981 0.00171257 0)
(0.567745 0.0016221 0)
(0.561873 0.00153224 0)
(0.55635 0.00144187 0)
(0.551174 0.00134937 0)
(0.546332 0.00125394 0)
(0.541834 0.00115248 0)
(0.537674 0.00104601 0)
(0.533866 0.000926697 0)
(0.530431 0.000802466 0)
(0.527348 0.00065173 0)
(0.524751 0.000502336 0)
(0.522434 0.000300243 0)
(0.520905 0.000115293 0)
(0.519379 -0.000161486 0)
(0.519325 -0.000417372 0)
(0.518587 -0.000761538 0)
(0.520594 -0.00130436 0)
(0.520818 -0.00150708 0)
(0.524523 -0.00432994 0)
(1.00625 0.0400321 0)
(1.05207 0.0363311 0)
(1.0661 0.0252153 0)
(1.05963 0.020544 0)
(1.04693 0.0172193 0)
(1.03089 0.0146334 0)
(1.01205 0.0127949 0)
(0.991442 0.0113689 0)
(0.970112 0.010172 0)
(0.948791 0.00915633 0)
(0.927921 0.00829599 0)
(0.907764 0.00756298 0)
(0.888465 0.00693283 0)
(0.870093 0.00638671 0)
(0.852667 0.00591017 0)
(0.836175 0.00549171 0)
(0.820586 0.00512204 0)
(0.805858 0.00479357 0)
(0.791944 0.00450004 0)
(0.778796 0.00423624 0)
(0.766367 0.00399785 0)
(0.754611 0.00378122 0)
(0.743484 0.00358326 0)
(0.732947 0.00340132 0)
(0.722962 0.00323311 0)
(0.713496 0.00307662 0)
(0.704519 0.00293005 0)
(0.696003 0.00279175 0)
(0.687923 0.00266022 0)
(0.680258 0.00253399 0)
(0.67299 0.00241168 0)
(0.666101 0.00229184 0)
(0.659582 0.00217299 0)
(0.653418 0.00205368 0)
(0.64761 0.00193193 0)
(0.642144 0.0018066 0)
(0.637033 0.00167397 0)
(0.632267 0.00153502 0)
(0.627865 0.00138028 0)
(0.623841 0.00121898 0)
(0.620187 0.00102528 0)
(0.617007 0.000831411 0)
(0.614153 0.000574587 0)
(0.61202 0.000332131 0)
(0.610022 -1.41231e-05 0)
(0.609282 -0.000349675 0)
(0.608211 -0.000781267 0)
(0.609314 -0.00145005 0)
(0.609423 -0.00180752 0)
(0.611997 -0.00440211 0)
(1.00495 0.037354 0)
(1.04728 0.0352486 0)
(1.06399 0.0246745 0)
(1.06428 0.0205689 0)
(1.06072 0.0177547 0)
(1.05482 0.0154727 0)
(1.04611 0.013848 0)
(1.03498 0.0125859 0)
(1.02214 0.0114992 0)
(1.00819 0.0105463 0)
(0.993588 0.00971329 0)
(0.978683 0.00898271 0)
(0.96374 0.00833768 0)
(0.948952 0.00776504 0)
(0.934455 0.00725448 0)
(0.920341 0.00679753 0)
(0.906669 0.00638699 0)
(0.893473 0.00601671 0)
(0.880773 0.0056814 0)
(0.868572 0.00537649 0)
(0.85687 0.00509805 0)
(0.845655 0.00484266 0)
(0.834917 0.00460734 0)
(0.824641 0.00438945 0)
(0.81481 0.00418669 0)
(0.805409 0.00399696 0)
(0.796421 0.00381836 0)
(0.787832 0.00364911 0)
(0.779627 0.00348756 0)
(0.771792 0.00333206 0)
(0.764318 0.00318104 0)
(0.757192 0.00303282 0)
(0.750409 0.00288571 0)
(0.74396 0.00273792 0)
(0.737847 0.00258723 0)
(0.732061 0.00243212 0)
(0.726616 0.00226835 0)
(0.721503 0.00209672 0)
(0.716745 0.00190653 0)
(0.712349 0.00170756 0)
(0.708323 0.00147123 0)
(0.704742 0.00123144 0)
(0.70151 0.000921402 0)
(0.698923 0.000618938 0)
(0.696569 0.000205777 0)
(0.695265 -0.000214873 0)
(0.69391 -0.000728528 0)
(0.694239 -0.00151949 0)
(0.694143 -0.00202835 0)
(0.695775 -0.00440293 0)
(1.0044 0.0348058 0)
(1.04324 0.0341749 0)
(1.05995 0.0240327 0)
(1.06231 0.0202738 0)
(1.06254 0.0178167 0)
(1.06187 0.0157512 0)
(1.05934 0.0142988 0)
(1.05484 0.0132011 0)
(1.04869 0.0122559 0)
(1.04119 0.0114144 0)
(1.03262 0.0106654 0)
(1.02324 0.00999538 0)
(1.01328 0.00939132 0)
(1.00292 0.00884368 0)
(0.992341 0.00834545 0)
(0.981662 0.00789098 0)
(0.97099 0.00747539 0)
(0.960404 0.00709442 0)
(0.949968 0.00674422 0)
(0.939726 0.0064214 0)
(0.929714 0.00612289 0)
(0.919956 0.00584594 0)
(0.910468 0.00558807 0)
(0.901262 0.00534701 0)
(0.892345 0.00512073 0)
(0.88372 0.00490728 0)
(0.875389 0.00470491 0)
(0.86735 0.00451186 0)
(0.859602 0.00432652 0)
(0.852144 0.00414716 0)
(0.844973 0.00397217 0)
(0.838087 0.0037997 0)
(0.831488 0.00362798 0)
(0.825171 0.00345494 0)
(0.819145 0.00327815 0)
(0.813405 0.00309578 0)
(0.807967 0.00290318 0)
(0.802827 0.00270089 0)
(0.798009 0.00247729 0)
(0.793522 0.00224214 0)
(0.789378 0.00196548 0)
(0.785637 0.00168051 0)
(0.782242 0.0013206 0)
(0.779409 0.000957863 0)
(0.776864 0.000482795 0)
(0.775184 -2.39996e-05 0)
(0.77364 -0.000615771 0)
(0.773389 -0.00151728 0)
(0.773073 -0.00217219 0)
(0.773967 -0.00434277 0)
(1.00402 0.0323655 0)
(1.03991 0.0331243 0)
(1.05618 0.0234088 0)
(1.05895 0.0198845 0)
(1.06026 0.0176846 0)
(1.06164 0.015753 0)
(1.06205 0.0144009 0)
(1.0612 0.0134172 0)
(1.05919 0.0125872 0)
(1.05613 0.0118508 0)
(1.05211 0.0111942 0)
(1.04724 0.0106036 0)
(1.04164 0.010066 0)
(1.03544 0.00957245 0)
(1.02876 0.00911701 0)
(1.0217 0.00869536 0)
(1.01437 0.008304 0)
(1.00685 0.00793993 0)
(0.999198 0.00760049 0)
(0.991491 0.0072833 0)
(0.983775 0.00698618 0)
(0.976092 0.00670712 0)
(0.968478 0.00644427 0)
(0.96096 0.00619587 0)
(0.953563 0.00596029 0)
(0.946304 0.00573594 0)
(0.939199 0.0055213 0)
(0.932261 0.00531482 0)
(0.9255 0.00511501 0)
(0.918925 0.00492021 0)
(0.912543 0.00472887 0)
(0.906359 0.00453908 0)
(0.900384 0.00434902 0)
(0.894619 0.00415648 0)
(0.889078 0.00395887 0)
(0.883763 0.00375413 0)
(0.878691 0.00353724 0)
(0.873865 0.0033085 0)
(0.869309 0.00305569 0)
(0.865033 0.00278802 0)
(0.861057 0.00247531 0)
(0.857427 0.00214827 0)
(0.854114 0.00174351 0)
(0.851277 0.00132311 0)
(0.848741 0.000792444 0)
(0.846907 0.000203333 0)
(0.845311 -0.000462828 0)
(0.844699 -0.00145887 0)
(0.84422 -0.00224928 0)
(0.844584 -0.00423774 0)
(1.00364 0.030025 0)
(1.03692 0.0320763 0)
(1.05283 0.0228182 0)
(1.05571 0.019478 0)
(1.05717 0.0174909 0)
(1.05909 0.0156506 0)
(1.06057 0.0143453 0)
(1.0613 0.0134237 0)
(1.06135 0.0126665 0)
(1.06076 0.0120036 0)
(1.05952 0.0114187 0)
(1.05764 0.0108965 0)
(1.05515 0.0104227 0)
(1.05211 0.00998713 0)
(1.04858 0.00958332 0)
(1.04461 0.00920683 0)
(1.04026 0.00885434 0)
(1.0356 0.00852318 0)
(1.03067 0.00821114 0)
(1.02554 0.00791635 0)
(1.02025 0.00763711 0)
(1.01484 0.00737192 0)
(1.00934 0.00711938 0)
(1.0038 0.00687813 0)
(0.99824 0.00664691 0)
(0.992686 0.00642444 0)
(0.987161 0.00620949 0)
(0.981686 0.00600071 0)
(0.976277 0.00579679 0)
(0.97095 0.0055962 0)
(0.96572 0.00539748 0)
(0.960598 0.00519874 0)
(0.955599 0.00499815 0)
(0.950732 0.00479344 0)
(0.946013 0.00458189 0)
(0.941449 0.0043613 0)
(0.93706 0.00412634 0)
(0.932854 0.00387707 0)
(0.928853 0.00360091 0)
(0.925074 0.00330618 0)
(0.921534 0.00296338 0)
(0.918277 0.00259945 0)
(0.915288 0.00215635 0)
(0.912687 0.00168372 0)
(0.910368 0.0011044 0)
(0.908602 0.000441197 0)
(0.907114 -0.000294366 0)
(0.90636 -0.00136663 0)
(0.905826 -0.00227708 0)
(0.905869 -0.0041077 0)
(1.00327 0.027785 0)
(1.0341 0.031017 0)
(1.04972 0.022254 0)
(1.05275 0.0190694 0)
(1.05417 0.0172782 0)
(1.05615 0.015519 0)
(1.0579 0.014235 0)
(1.05915 0.013343 0)
(1.06001 0.0126257 0)
(1.06052 0.0120055 0)
(1.06067 0.0114649 0)
(1.06042 0.0109888 0)
(1.05978 0.0105616 0)
(1.05874 0.0101719 0)
(1.05732 0.00981233 0)
(1.05554 0.00947768 0)
(1.05343 0.00916413 0)
(1.051 0.00886871 0)
(1.0483 0.00858908 0)
(1.04535 0.00832331 0)
(1.04218 0.00806979 0)
(1.03883 0.00782712 0)
(1.03533 0.00759403 0)
(1.0317 0.00736937 0)
(1.02796 0.00715205 0)
(1.02414 0.00694096 0)
(1.02027 0.00673503 0)
(1.01637 0.00653306 0)
(1.01244 0.00633389 0)
(1.00852 0.00613606 0)
(1.00462 0.0059382 0)
(1.00074 0.00573844 0)
(0.996919 0.00553496 0)
(0.993154 0.00532546 0)
(0.989467 0.00510708 0)
(0.985869 0.00487755 0)
(0.982378 0.00463126 0)
(0.979008 0.00436805 0)
(0.975779 0.00407516 0)
(0.972709 0.00375979 0)
(0.969816 0.00339376 0)
(0.967137 0.00299944 0)
(0.964672 0.00252548 0)
(0.962505 0.00200804 0)
(0.960584 0.00138778 0)
(0.959082 0.000661537 0)
(0.95785 -0.0001366 0)
(0.957152 -0.0012659 0)
(0.956686 -0.00227801 0)
(0.956607 -0.00397486 0)
(1.00292 0.025649 0)
(1.03138 0.029942 0)
(1.04672 0.0217119 0)
(1.04996 0.0186587 0)
(1.05136 0.0170534 0)
(1.0533 0.0153802 0)
(1.05508 0.014111 0)
(1.05645 0.013234 0)
(1.05754 0.0125391 0)
(1.05844 0.0119421 0)
(1.05914 0.0114256 0)
(1.05963 0.0109755 0)
(1.05989 0.0105764 0)
(1.05992 0.0102164 0)
(1.0597 0.00988723 0)
(1.05923 0.0095832 0)
(1.05853 0.00929993 0)
(1.05759 0.00903402 0)
(1.05643 0.00878273 0)
(1.05506 0.00854386 0)
(1.05349 0.00831559 0)
(1.05175 0.00809637 0)
(1.04984 0.00788486 0)
(1.04778 0.00767985 0)
(1.04559 0.00748024 0)
(1.0433 0.00728493 0)
(1.0409 0.00709288 0)
(1.03843 0.00690292 0)
(1.0359 0.00671391 0)
(1.03332 0.00652445 0)
(1.03071 0.00633313 0)
(1.02808 0.00613814 0)
(1.02544 0.00593756 0)
(1.02281 0.00572911 0)
(1.02021 0.00550974 0)
(1.01765 0.00527716 0)
(1.01514 0.00502549 0)
(1.01269 0.00475431 0)
(1.01033 0.0044509 0)
(1.00808 0.00412109 0)
(1.00595 0.00373858 0)
(1.00397 0.00332063 0)
(1.00214 0.00282326 0)
(1.00054 0.00226932 0)
(0.999134 0.001616 0)
(0.998035 0.000839104 0)
(0.997171 -1.49396e-05 0)
(0.996681 -0.00118154 0)
(0.996391 -0.00227549 0)
(0.996356 -0.00386219 0)
(1.0026 0.0236198 0)
(1.0288 0.02885 0)
(1.0438 0.0211907 0)
(1.04727 0.0182459 0)
(1.04867 0.016815 0)
(1.05058 0.0152368 0)
(1.05235 0.0139844 0)
(1.05373 0.0131176 0)
(1.05486 0.0124384 0)
(1.05585 0.0118559 0)
(1.05672 0.0113525 0)
(1.05747 0.0109163 0)
(1.0581 0.0105324 0)
(1.05859 0.010189 0)
(1.05894 0.0098777 0)
(1.05915 0.00959255 0)
(1.05921 0.0093289 0)
(1.05912 0.00908306 0)
(1.05888 0.00885201 0)
(1.05849 0.00863325 0)
(1.05795 0.00842474 0)
(1.05728 0.00822471 0)
(1.05648 0.00803164 0)
(1.05555 0.00784418 0)
(1.05451 0.0076611 0)
(1.05337 0.00748121 0)
(1.05212 0.00730339 0)
(1.0508 0.00712641 0)
(1.0494 0.00694907 0)
(1.04794 0.00676993 0)
(1.04642 0.00658753 0)
(1.04487 0.00640001 0)
(1.04328 0.00620536 0)
(1.04168 0.00600126 0)
(1.04007 0.00578448 0)
(1.03846 0.00555267 0)
(1.03687 0.00529973 0)
(1.03532 0.00502492 0)
(1.03381 0.00471575 0)
(1.03236 0.00437645 0)
(1.03099 0.00398303 0)
(1.02973 0.00354741 0)
(1.02857 0.00303307 0)
(1.02757 0.00245059 0)
(1.02672 0.00177137 0)
(1.02609 0.000955896 0)
(1.02565 5.68774e-05 0)
(1.02546 -0.00113317 0)
(1.02542 -0.00228999 0)
(1.02554 -0.00378933 0)
(1.0023 0.021699 0)
(1.02634 0.0277418 0)
(1.04097 0.0206888 0)
(1.04466 0.0178324 0)
(1.04609 0.0165618 0)
(1.04796 0.0150872 0)
(1.04973 0.0138562 0)
(1.0511 0.0129987 0)
(1.05222 0.0123335 0)
(1.05322 0.011763 0)
(1.05412 0.0112686 0)
(1.05494 0.0108405 0)
(1.05567 0.0104651 0)
(1.05633 0.0101307 0)
(1.0569 0.00982907 0)
(1.05739 0.00955436 0)
(1.0578 0.00930189 0)
(1.05812 0.00906787 0)
(1.05835 0.00884917 0)
(1.05848 0.00864318 0)
(1.05853 0.00844767 0)
(1.05849 0.00826073 0)
(1.05835 0.0080807 0)
(1.05813 0.00790609 0)
(1.05783 0.00773553 0)
(1.05745 0.00756771 0)
(1.05699 0.0074014 0)
(1.05647 0.00723528 0)
(1.05588 0.00706805 0)
(1.05524 0.00689819 0)
(1.05455 0.00672414 0)
(1.05382 0.00654398 0)
(1.05305 0.00635557 0)
(1.05225 0.00615653 0)
(1.05144 0.00594344 0)
(1.05063 0.00571387 0)
(1.04981 0.00546156 0)
(1.04901 0.00518536 0)
(1.04823 0.00487319 0)
(1.04748 0.00452755 0)
(1.04679 0.00412695 0)
(1.04617 0.00367812 0)
(1.04562 0.00315149 0)
(1.04518 0.00254716 0)
(1.04486 0.0018478 0)
(1.04468 0.0010038 0)
(1.04465 7.09922e-05 0)
(1.04478 -0.00113208 0)
(1.04502 -0.00233538 0)
(1.04536 -0.00376898 0)
(1.00203 0.0198874 0)
(1.02402 0.0266206 0)
(1.03823 0.020203 0)
(1.04214 0.0174201 0)
(1.04359 0.0162937 0)
(1.04543 0.0149301 0)
(1.0472 0.0137258 0)
(1.04857 0.0128778 0)
(1.04968 0.0122265 0)
(1.05066 0.0116678 0)
(1.05156 0.0111814 0)
(1.05238 0.0107596 0)
(1.05313 0.0103899 0)
(1.05383 0.0100611 0)
(1.05447 0.00976513 0)
(1.05505 0.0094962 0)
(1.05559 0.00924981 0)
(1.05607 0.00902223 0)
(1.0565 0.00881034 0)
(1.05688 0.0086115 0)
(1.0572 0.00842345 0)
(1.05747 0.00824421 0)
(1.05769 0.00807204 0)
(1.05785 0.00790537 0)
(1.05797 0.00774275 0)
(1.05803 0.00758278 0)
(1.05804 0.00742413 0)
(1.05801 0.00726539 0)
(1.05794 0.00710518 0)
(1.05783 0.00694189 0)
(1.05768 0.00677387 0)
(1.05751 0.00659913 0)
(1.0573 0.00641538 0)
(1.05708 0.0062202 0)
(1.05685 0.00601 0)
(1.0566 0.00578223 0)
(1.05636 0.00553055 0)
(1.05612 0.00525332 0)
(1.0559 0.00493903 0)
(1.0557 0.00458838 0)
(1.05554 0.0041824 0)
(1.05543 0.00372309 0)
(1.05538 0.00318694 0)
(1.0554 0.00256565 0)
(1.05551 0.0018501 0)
(1.05572 0.000985353 0)
(1.05604 2.57859e-05 0)
(1.05647 -0.00118153 0)
(1.05696 -0.00241801 0)
(1.05753 -0.00380615 0)
(1.00179 0.0181853 0)
(1.02184 0.0254902 0)
(1.03559 0.0197296 0)
(1.0397 0.0170109 0)
(1.04118 0.0160116 0)
(1.04299 0.0147646 0)
(1.04476 0.0135929 0)
(1.04613 0.0127546 0)
(1.04723 0.0121172 0)
(1.0482 0.0115709 0)
(1.04908 0.0110928 0)
(1.04989 0.0106769 0)
(1.05064 0.0103123 0)
(1.05133 0.00998793 0)
(1.05198 0.00969598 0)
(1.05258 0.00943083 0)
(1.05315 0.0091881 0)
(1.05368 0.00896418 0)
(1.05418 0.00875601 0)
(1.05465 0.00856099 0)
(1.05508 0.00837686 0)
(1.05549 0.00820166 0)
(1.05586 0.00803363 0)
(1.05621 0.00787116 0)
(1.05652 0.00771277 0)
(1.05681 0.00755702 0)
(1.05707 0.0074025 0)
(1.0573 0.00724778 0)
(1.05752 0.00709138 0)
(1.05771 0.00693166 0)
(1.05788 0.00676686 0)
(1.05804 0.00659496 0)
(1.05818 0.00641355 0)
(1.05832 0.00622016 0)
(1.05845 0.00601105 0)
(1.05857 0.00578356 0)
(1.05871 0.00553133 0)
(1.05885 0.00525221 0)
(1.05901 0.00493533 0)
(1.05919 0.00457965 0)
(1.05941 0.00416861 0)
(1.05966 0.00370008 0)
(1.05996 0.00315552 0)
(1.06032 0.00252042 0)
(1.06075 0.00179083 0)
(1.06125 0.000911136 0)
(1.06184 -6.98773e-05 0)
(1.0625 -0.00127785 0)
(1.0632 -0.00253757 0)
(1.06397 -0.00389851 0)
(1.00157 0.0165924 0)
(1.01979 0.0243545 0)
(1.03306 0.0192644 0)
(1.03735 0.0166065 0)
(1.03887 0.0157166 0)
(1.04064 0.01459 0)
(1.0424 0.0134569 0)
(1.04378 0.012629 0)
(1.04488 0.0120054 0)
(1.04583 0.0114722 0)
(1.0467 0.0110029 0)
(1.0475 0.0105931 0)
(1.04823 0.0102335 0)
(1.04891 0.0099134 0)
(1.04955 0.00962507 0)
(1.05015 0.00936305 0)
(1.05072 0.0091231 0)
(1.05125 0.0089017 0)
(1.05177 0.00869587 0)
(1.05226 0.00850305 0)
(1.05272 0.00832103 0)
(1.05317 0.00814787 0)
(1.0536 0.00798181 0)
(1.05402 0.00782126 0)
(1.05441 0.00766471 0)
(1.0548 0.00751071 0)
(1.05517 0.00735784 0)
(1.05553 0.00720462 0)
(1.05588 0.00704954 0)
(1.05622 0.00689092 0)
(1.05655 0.00672695 0)
(1.05688 0.00655558 0)
(1.05721 0.00637429 0)
(1.05755 0.0061806 0)
(1.05788 0.00597065 0)
(1.05822 0.00574166 0)
(1.05858 0.00548733 0)
(1.05895 0.00520495 0)
(1.05934 0.00488441 0)
(1.05975 0.00452299 0)
(1.0602 0.00410632 0)
(1.06068 0.00362885 0)
(1.06121 0.0030759 0)
(1.06178 0.00242877 0)
(1.06242 0.00168613 0)
(1.06312 0.000794958 0)
(1.06388 -0.000205027 0)
(1.0647 -0.00141183 0)
(1.06555 -0.00268866 0)
(1.06648 -0.004039 0)
(1.00137 0.0151077 0)
(1.01788 0.0232175 0)
(1.03063 0.0188037 0)
(1.03509 0.0162083 0)
(1.03665 0.0154102 0)
(1.03838 0.0144056 0)
(1.04014 0.0133177 0)
(1.04152 0.0125011 0)
(1.04261 0.011891 0)
(1.04355 0.0113714 0)
(1.04441 0.0109115 0)
(1.04519 0.0105082 0)
(1.04592 0.0101537 0)
(1.04658 0.00983798 0)
(1.04721 0.00955328 0)
(1.0478 0.00929429 0)
(1.04836 0.0090569 0)
(1.04889 0.00883767 0)
(1.04939 0.0086337 0)
(1.04988 0.00844247 0)
(1.05035 0.0082618 0)
(1.05081 0.00808977 0)
(1.05125 0.00792466 0)
(1.05168 0.00776485 0)
(1.0521 0.00760888 0)
(1.05252 0.00745526 0)
(1.05293 0.00730257 0)
(1.05333 0.00714932 0)
(1.05374 0.00699397 0)
(1.05414 0.00683484 0)
(1.05455 0.00667004 0)
(1.05496 0.00649753 0)
(1.05537 0.00631473 0)
(1.0558 0.00611911 0)
(1.05623 0.00590678 0)
(1.05668 0.00567477 0)
(1.05715 0.00541695 0)
(1.05764 0.00513005 0)
(1.05815 0.00480468 0)
(1.05868 0.00443668 0)
(1.05926 0.00401352 0)
(1.05986 0.00352699 0)
(1.06052 0.00296515 0)
(1.06122 0.00230691 0)
(1.06197 0.00155154 0)
(1.06277 0.000650515 0)
(1.06363 -0.000366319 0)
(1.06454 -0.0015725 0)
(1.06549 -0.00286401 0)
(1.06652 -0.00421854 0)
(1.0012 0.0137297 0)
(1.01611 0.0220834 0)
(1.02831 0.0183436 0)
(1.03291 0.0158177 0)
(1.03453 0.0150942 0)
(1.03622 0.0142109 0)
(1.03796 0.0131747 0)
(1.03935 0.0123709 0)
(1.04043 0.0117739 0)
(1.04137 0.0112684 0)
(1.04221 0.0108186 0)
(1.04298 0.0104221 0)
(1.04369 0.0100729 0)
(1.04435 0.00976167 0)
(1.04496 0.00948073 0)
(1.04554 0.00922484 0)
(1.04609 0.00899002 0)
(1.04661 0.00877293 0)
(1.04711 0.00857071 0)
(1.04758 0.00838089 0)
(1.04805 0.00820132 0)
(1.0485 0.00803011 0)
(1.04893 0.00786553 0)
(1.04936 0.00770599 0)
(1.04979 0.00755002 0)
(1.05021 0.00739614 0)
(1.05062 0.00724291 0)
(1.05104 0.00708884 0)
(1.05146 0.00693236 0)
(1.05188 0.00677179 0)
(1.05231 0.00660522 0)
(1.05275 0.00643058 0)
(1.0532 0.00624525 0)
(1.05366 0.00604666 0)
(1.05413 0.00583091 0)
(1.05462 0.00559486 0)
(1.05514 0.00533257 0)
(1.05567 0.00504023 0)
(1.05624 0.00470913 0)
(1.05683 0.00433389 0)
(1.05746 0.00390345 0)
(1.05812 0.00340767 0)
(1.05883 0.00283638 0)
(1.05959 0.00216751 0)
(1.06039 0.0013995 0)
(1.06124 0.000489304 0)
(1.06214 -0.00054269 0)
(1.06309 -0.00175029 0)
(1.06408 -0.00305648 0)
(1.06518 -0.00442804 0)
(1.00104 0.0124561 0)
(1.01447 0.0209564 0)
(1.0261 0.0178808 0)
(1.03082 0.0154353 0)
(1.0325 0.0147705 0)
(1.03415 0.0140054 0)
(1.03587 0.0130273 0)
(1.03726 0.0122384 0)
(1.03834 0.0116542 0)
(1.03927 0.0111631 0)
(1.0401 0.0107239 0)
(1.04087 0.0103346 0)
(1.04157 0.00999099 0)
(1.04221 0.0096844 0)
(1.04282 0.00940735 0)
(1.04338 0.00915469 0)
(1.04392 0.00892252 0)
(1.04443 0.00870762 0)
(1.04491 0.00850717 0)
(1.04538 0.00831876 0)
(1.04583 0.00814025 0)
(1.04627 0.00796976 0)
(1.0467 0.00780559 0)
(1.04712 0.00764616 0)
(1.04754 0.00748997 0)
(1.04795 0.00733557 0)
(1.04837 0.00718149 0)
(1.04878 0.00702625 0)
(1.0492 0.00686825 0)
(1.04962 0.00670581 0)
(1.05005 0.00653698 0)
(1.05049 0.00635969 0)
(1.05095 0.00617129 0)
(1.05141 0.00596916 0)
(1.0519 0.00574941 0)
(1.0524 0.00550875 0)
(1.05293 0.00524139 0)
(1.05348 0.00494307 0)
(1.05406 0.00460567 0)
(1.05467 0.00422281 0)
(1.05531 0.00378456 0)
(1.05599 0.00327949 0)
(1.05672 0.00269836 0)
(1.05748 0.00201917 0)
(1.0583 0.0012387 0)
(1.05916 0.000319436 0)
(1.06006 -0.00072638 0)
(1.06101 -0.00193798 0)
(1.06201 -0.00326022 0)
(1.06315 -0.00465959 0)
(1.0009 0.0112839 0)
(1.01296 0.0198409 0)
(1.024 0.0174121 0)
(1.02881 0.0150615 0)
(1.03056 0.0144411 0)
(1.03217 0.013789 0)
(1.03387 0.012875 0)
(1.03526 0.0121035 0)
(1.03635 0.0115318 0)
(1.03726 0.0110553 0)
(1.03809 0.0106273 0)
(1.03884 0.0102457 0)
(1.03953 0.00990784 0)
(1.04017 0.00960608 0)
(1.04076 0.00933309 0)
(1.04132 0.00908377 0)
(1.04184 0.00885436 0)
(1.04234 0.00864171 0)
(1.04282 0.0084431 0)
(1.04327 0.00825613 0)
(1.04372 0.0080787 0)
(1.04415 0.00790894 0)
(1.04457 0.00774516 0)
(1.04498 0.00758579 0)
(1.04539 0.00742932 0)
(1.04579 0.00727431 0)
(1.0462 0.00711927 0)
(1.0466 0.00696271 0)
(1.04701 0.00680303 0)
(1.04743 0.00663852 0)
(1.04785 0.00646723 0)
(1.04829 0.00628706 0)
(1.04874 0.00609534 0)
(1.0492 0.0058894 0)
(1.04968 0.00566538 0)
(1.05018 0.0054198 0)
(1.0507 0.00514709 0)
(1.05125 0.00484254 0)
(1.05183 0.00449855 0)
(1.05243 0.00410795 0)
(1.05307 0.00366162 0)
(1.05375 0.00314733 0)
(1.05447 0.00255624 0)
(1.05523 0.00186697 0)
(1.05603 0.00107454 0)
(1.05687 0.000145993 0)
(1.05776 -0.00091273 0)
(1.0587 -0.00213084 0)
(1.05969 -0.00347101 0)
(1.06083 -0.00490673 0)
(1.00078 0.0102098 0)
(1.01158 0.0187413 0)
(1.02201 0.0169348 0)
(1.02689 0.0146966 0)
(1.02872 0.0141081 0)
(1.03029 0.0135617 0)
(1.03196 0.0127172 0)
(1.03335 0.0119663 0)
(1.03444 0.0114068 0)
(1.03535 0.0109448 0)
(1.03616 0.0105288 0)
(1.03691 0.0101552 0)
(1.03759 0.00982338 0)
(1.03822 0.00952663 0)
(1.0388 0.00925784 0)
(1.03935 0.009012 0)
(1.03986 0.00878545 0)
(1.04035 0.00857516 0)
(1.04082 0.00837845 0)
(1.04126 0.00819298 0)
(1.0417 0.00801666 0)
(1.04212 0.00784766 0)
(1.04253 0.00768429 0)
(1.04293 0.00752497 0)
(1.04333 0.00736822 0)
(1.04373 0.00721256 0)
(1.04412 0.00705653 0)
(1.04452 0.0068986 0)
(1.04492 0.00673717 0)
(1.04533 0.00657051 0)
(1.04574 0.00639667 0)
(1.04617 0.00621351 0)
(1.04661 0.00601837 0)
(1.04707 0.0058085 0)
(1.04754 0.00558009 0)
(1.04803 0.0053295 0)
(1.04854 0.00505133 0)
(1.04908 0.00474049 0)
(1.04965 0.00438979 0)
(1.05024 0.00399151 0)
(1.05087 0.00353701 0)
(1.05153 0.00301373 0)
(1.05223 0.00241277 0)
(1.05297 0.00171374 0)
(1.05374 0.000909821 0)
(1.05456 -2.78967e-05 0)
(1.05542 -0.00109876 0)
(1.05633 -0.0023258 0)
(1.0573 -0.0036859 0)
(1.05843 -0.00516426 0)
(1.00067 0.00922954 0)
(1.01031 0.0176621 0)
(1.02014 0.0164468 0)
(1.02506 0.0143402 0)
(1.02696 0.0137736 0)
(1.0285 0.0133236 0)
(1.03013 0.0125532 0)
(1.03153 0.0118266 0)
(1.03262 0.0112791 0)
(1.03352 0.0108316 0)
(1.03433 0.0104281 0)
(1.03507 0.0100631 0)
(1.03574 0.00973754 0)
(1.03636 0.00944595 0)
(1.03693 0.00918154 0)
(1.03747 0.00893931 0)
(1.03797 0.00871574 0)
(1.03845 0.00850788 0)
(1.03891 0.00831315 0)
(1.03935 0.00812923 0)
(1.03978 0.00795408 0)
(1.04019 0.00778587 0)
(1.04059 0.00762293 0)
(1.04098 0.00746368 0)
(1.04137 0.00730664 0)
(1.04176 0.00715034 0)
(1.04215 0.0069933 0)
(1.04253 0.00683398 0)
(1.04293 0.00667077 0)
(1.04333 0.00650194 0)
(1.04373 0.0063255 0)
(1.04415 0.00613931 0)
(1.04458 0.00594071 0)
(1.04503 0.00572688 0)
(1.04549 0.00549405 0)
(1.04597 0.00523843 0)
(1.04647 0.00495476 0)
(1.04699 0.00463768 0)
(1.04755 0.00428028 0)
(1.04813 0.00387446 0)
(1.04874 0.00341188 0)
(1.04938 0.00287988 0)
(1.05006 0.00226932 0)
(1.05077 0.00156092 0)
(1.05152 0.000746075 0)
(1.05231 -0.00020059 0)
(1.05313 -0.00128292 0)
(1.05401 -0.00252089 0)
(1.05495 -0.00390265 0)
(1.05604 -0.00542757 0)
(1.00058 0.00833858 0)
(1.00917 0.0166075 0)
(1.01838 0.0159463 0)
(1.02331 0.0139917 0)
(1.02529 0.0134394 0)
(1.0268 0.0130755 0)
(1.0284 0.0123823 0)
(1.02979 0.0116841 0)
(1.03088 0.0111489 0)
(1.03178 0.0107156 0)
(1.03258 0.0103251 0)
(1.03331 0.0099692 0)
(1.03398 0.0096502 0)
(1.03459 0.00936396 0)
(1.03515 0.00910407 0)
(1.03568 0.00886561 0)
(1.03618 0.00864513 0)
(1.03665 0.00843981 0)
(1.0371 0.00824713 0)
(1.03753 0.00806483 0)
(1.03795 0.0078909 0)
(1.03835 0.00772352 0)
(1.03874 0.00756103 0)
(1.03913 0.00740187 0)
(1.03951 0.00724456 0)
(1.03989 0.00708762 0)
(1.04027 0.00692955 0)
(1.04065 0.00676883 0)
(1.04103 0.00660383 0)
(1.04142 0.0064328 0)
(1.04182 0.00625376 0)
(1.04223 0.00606453 0)
(1.04265 0.00586245 0)
(1.04308 0.00564465 0)
(1.04353 0.00540741 0)
(1.044 0.00514679 0)
(1.04449 0.00485766 0)
(1.045 0.00453444 0)
(1.04554 0.00417041 0)
(1.0461 0.00375726 0)
(1.0467 0.00328676 0)
(1.04732 0.00274639 0)
(1.04797 0.00212662 0)
(1.04866 0.00140923 0)
(1.04938 0.000584296 0)
(1.05013 -0.000371299 0)
(1.05092 -0.00146454 0)
(1.05176 -0.00271474 0)
(1.05266 -0.00411927 0)
(1.05372 -0.00569247 0)
(1.0005 0.00753188 0)
(1.00814 0.0155819 0)
(1.01674 0.0154323 0)
(1.02165 0.0136502 0)
(1.0237 0.0131074 0)
(1.02519 0.012818 0)
(1.02675 0.0122041 0)
(1.02814 0.0115385 0)
(1.02923 0.0110162 0)