/*--------------------------------*- C++ -*----------------------------------*\
  =========                 |
  \\      /  F ield         | OpenFOAM: The Open Source CFD Toolbox
   \\    /   O peration     | Website:  https://openfoam.org
    \\  /    A nd           | Version:  7
     \\/     M anipulation  |
\*---------------------------------------------------------------------------*/
FoamFile
{
    version     2.0;
    format      ascii;
    class       volVectorField;
    location    "0.33";
    object      wallShearStress;
}
// * * * * * * * * * * * * * * * * * * * * * * * * * * * * * * * * * * * * * //

dimensions      [0 2 -2 0 0 0 0];

internalField   uniform (0 0 0);

boundaryField
{
    velocityInlet
    {
        type            calculated;
        value           uniform (0 0 0);
    }
    pressureOutlet
    {
        type            calculated;
        value           uniform (0 0 0);
    }
    fixedWalls
    {
        type            calculated;
        value           nonuniform List<vector> 
100
(
(-0.0226953 -0.00819865 0)
(-0.000422561 -0.00157846 0)
(-0.00180128 0.000507009 0)
(-0.00320583 0.000346394 0)
(-0.00408184 0.000146499 0)
(-0.0042064 1.66984e-05 0)
(-0.003936 -3.49467e-05 0)
(-0.0036298 -3.74495e-05 0)
(-0.00342869 -2.46703e-05 0)
(-0.00334519 -1.19726e-05 0)
(-0.00334963 -1.15077e-06 0)
(-0.00340812 6.15255e-06 0)
(-0.00349345 1.03514e-05 0)
(-0.00358821 1.35902e-05 0)
(-0.00368124 1.62006e-05 0)
(-0.00375873 1.67719e-05 0)
(-0.00380396 1.35914e-05 0)
(-0.00380446 4.72971e-06 0)
(-0.00379178 -2.56449e-07 0)
(-0.00390785 2.71357e-05 0)
(-0.00438094 9.65606e-05 0)
(-0.00525145 0.00016146 0)
(-0.0060649 0.000156093 0)
(-0.00595351 -2.03747e-05 0)
(-0.00421487 -0.000301692 0)
(-0.00127698 -0.000449793 0)
(0.0012448 -0.000334664 0)
(0.00190327 -4.85351e-05 0)
(0.000714902 0.000173969 0)
(-0.00124398 0.000238976 0)
(-0.00296032 0.000190671 0)
(-0.00402704 0.00011116 0)
(-0.00449787 5.03147e-05 0)
(-0.00458785 1.53803e-05 0)
(-0.00447018 -6.7989e-06 0)
(-0.00424081 -1.92956e-05 0)
(-0.00394951 -2.72598e-05 0)
(-0.00362241 -3.26362e-05 0)
(-0.00327808 -3.58375e-05 0)
(-0.00293497 -3.66765e-05 0)
(-0.00261349 -3.4849e-05 0)
(-0.00233457 -3.03634e-05 0)
(-0.00211614 -2.37195e-05 0)
(-0.00197036 -1.57173e-05 0)
(-0.00190215 -7.98528e-06 0)
(-0.00190879 -3.97788e-07 0)
(-0.00198254 6.44059e-06 0)
(-0.0021116 1.14613e-05 0)
(-0.00228344 1.48072e-05 0)
(-0.0025046 2.08638e-05 0)
(-0.00280754 3.31158e-05 0)
(-0.00318687 4.30901e-05 0)
(-0.00352666 3.26728e-05 0)
(-0.00365744 1.63178e-06 0)
(-0.00356685 -2.58873e-05 0)
(-0.00350586 -1.58712e-05 0)
(-0.00377577 3.07583e-05 0)
(-0.00441422 6.97278e-05 0)
(-0.00522973 8.41955e-05 0)
(-0.00609864 9.49452e-05 0)
(-0.00700852 0.00011041 0)
(-0.00784324 0.000112118 0)
(-0.00827037 8.68219e-05 0)
(-0.0078646 -3.95004e-06 0)
(-0.00629377 -0.00013932 0)
(-0.00328165 -0.000348087 0)
(0.000720949 -0.000423082 0)
(0.00439682 -0.000406079 0)
(0.0068228 -0.000259905 0)
(0.0074576 -6.2078e-05 0)
(0.00640614 0.000109978 0)
(0.00432061 0.000200062 0)
(0.00197186 0.000208004 0)
(-0.000123065 0.000177858 0)
(-0.00174016 0.000129367 0)
(-0.00288513 8.74692e-05 0)
(-0.00368009 5.98753e-05 0)
(-0.00426617 4.58826e-05 0)
(-0.00474744 4.08624e-05 0)
(-0.00517965 4.0073e-05 0)
(-0.00557946 4.02421e-05 0)
(-0.00593738 3.98005e-05 0)
(-0.00622707 3.79601e-05 0)
(-0.00638584 3.39473e-05 0)
(-0.00629164 1.3518e-05 0)
(-0.00576354 -2.557e-05 0)
(-0.00465903 -8.01192e-05 0)
(-0.00291168 -0.000146658 0)
(-0.000638766 -0.000201219 0)
(0.00176621 -0.000212151 0)
(0.00377758 -0.000181926 0)
(0.00502144 -0.000112206 0)
(0.00531564 -2.78767e-05 0)
(0.0045692 6.4483e-05 0)
(0.00324585 0.000104462 0)
(0.00153722 0.000129821 0)
(9.0175e-05 0.000117969 0)
(-0.00134527 0.000101506 0)
(-0.0022174 6.48366e-05 0)
(-0.00232598 8.93099e-06 0)
)
;
    }
    bottomWall
    {
        type            calculated;
        value           nonuniform List<vector> 
800
(
(-0.0353488 0.00214398 0)
(-0.0160264 0.00052484 0)
(-0.0106074 0.000100723 0)
(-0.00845538 3.52652e-05 0)
(-0.00748547 1.98654e-05 0)
(-0.00685162 1.61258e-05 0)
(-0.00634395 1.33597e-05 0)
(-0.00593264 1.09031e-05 0)
(-0.00559771 9.08117e-06 0)
(-0.00531874 7.76473e-06 0)
(-0.00508111 6.76808e-06 0)
(-0.00487539 5.9809e-06 0)
(-0.0046951 5.34321e-06 0)
(-0.0045355 4.8176e-06 0)
(-0.00439301 4.37827e-06 0)
(-0.00426486 4.00649e-06 0)
(-0.00414886 3.68843e-06 0)
(-0.00404325 3.41353e-06 0)
(-0.00394665 3.17401e-06 0)
(-0.00385788 2.96373e-06 0)
(-0.00377598 2.77782e-06 0)
(-0.00370015 2.61263e-06 0)
(-0.00362972 2.46478e-06 0)
(-0.0035641 2.33192e-06 0)
(-0.00350279 2.21209e-06 0)
(-0.00344538 2.10347e-06 0)
(-0.00339148 2.00466e-06 0)
(-0.00334078 1.91444e-06 0)
(-0.00329298 1.83182e-06 0)
(-0.00324785 1.75581e-06 0)
(-0.00320515 1.68583e-06 0)
(-0.00316469 1.62121e-06 0)
(-0.00312631 1.56137e-06 0)
(-0.00308982 1.50574e-06 0)
(-0.00305511 1.45395e-06 0)
(-0.00302203 1.40568e-06 0)
(-0.00299048 1.36055e-06 0)
(-0.00296036 1.31838e-06 0)
(-0.00293156 1.27869e-06 0)
(-0.002904 1.24153e-06 0)
(-0.0028776 1.20653e-06 0)
(-0.0028523 1.17335e-06 0)
(-0.00282803 1.1422e-06 0)
(-0.00280472 1.11285e-06 0)
(-0.00278231 1.08511e-06 0)
(-0.00276077 1.05851e-06 0)
(-0.00274002 1.03375e-06 0)
(-0.00272007 1.00943e-06 0)
(-0.00270081 9.87563e-07 0)
(-0.00268227 9.64303e-07 0)
(-0.00266676 9.45118e-07 0)
(-0.00265396 9.3421e-07 0)
(-0.00264132 9.20344e-07 0)
(-0.00262888 9.05489e-07 0)
(-0.00261663 8.91619e-07 0)
(-0.00260456 8.7849e-07 0)
(-0.00259266 8.65576e-07 0)
(-0.00258095 8.52899e-07 0)
(-0.0025694 8.4065e-07 0)
(-0.00255802 8.28491e-07 0)
(-0.0025468 8.16747e-07 0)
(-0.00253573 8.05411e-07 0)
(-0.00252482 7.94151e-07 0)
(-0.00251407 7.8313e-07 0)
(-0.00250346 7.72347e-07 0)
(-0.00249299 7.61798e-07 0)
(-0.00248267 7.51649e-07 0)
(-0.00247248 7.41564e-07 0)
(-0.00246243 7.31707e-07 0)
(-0.00245251 7.22078e-07 0)
(-0.00244272 7.12673e-07 0)
(-0.00243305 7.03492e-07 0)
(-0.00242352 6.94199e-07 0)
(-0.00241411 6.85459e-07 0)
(-0.0024048 6.76939e-07 0)
(-0.00239562 6.68302e-07 0)
(-0.00238656 6.59881e-07 0)
(-0.00237761 6.51676e-07 0)
(-0.00236876 6.43686e-07 0)
(-0.00236003 6.35909e-07 0)
(-0.0023514 6.28176e-07 0)
(-0.00234287 6.20655e-07 0)
(-0.00233445 6.13343e-07 0)
(-0.00232612 6.05906e-07 0)
(-0.0023179 5.98845e-07 0)
(-0.00230977 5.91989e-07 0)
(-0.00230173 5.85005e-07 0)
(-0.00229378 5.78226e-07 0)
(-0.00228593 5.71651e-07 0)
(-0.00227817 5.65111e-07 0)
(-0.00227049 5.58774e-07 0)
(-0.0022629 5.52635e-07 0)
(-0.0022554 5.46531e-07 0)
(-0.00224797 5.40458e-07 0)
(-0.00224063 5.34584e-07 0)
(-0.00223336 5.28739e-07 0)
(-0.00222618 5.22924e-07 0)
(-0.00221907 5.17471e-07 0)
(-0.00221204 5.1188e-07 0)
(-0.00220509 5.06482e-07 0)
(-0.0021982 5.01278e-07 0)
(-0.00219139 4.95932e-07 0)
(-0.00218464 4.9078e-07 0)
(-0.00217797 4.85651e-07 0)
(-0.00217137 4.80715e-07 0)
(-0.00216483 4.75802e-07 0)
(-0.00215837 4.70913e-07 0)
(-0.00215196 4.66379e-07 0)
(-0.00214562 4.61702e-07 0)
(-0.00213934 4.56879e-07 0)
(-0.00213313 4.52578e-07 0)
(-0.00212697 4.4813e-07 0)
(-0.00212088 4.43705e-07 0)
(-0.00211484 4.39464e-07 0)
(-0.00210886 4.35079e-07 0)
(-0.00210294 4.31045e-07 0)
(-0.00209707 4.27031e-07 0)
(-0.00209127 4.2287e-07 0)
(-0.00208551 4.18894e-07 0)
(-0.00207981 4.15104e-07 0)
(-0.00207416 4.11332e-07 0)
(-0.00206856 4.07412e-07 0)
(-0.00206302 4.03678e-07 0)
(-0.00205752 4.00126e-07 0)
(-0.00205208 3.96593e-07 0)
(-0.00204668 3.93075e-07 0)
(-0.00204133 3.89409e-07 0)
(-0.00203603 3.85924e-07 0)
(-0.00203077 3.82624e-07 0)
(-0.00202556 3.79338e-07 0)
(-0.0020204 3.76071e-07 0)
(-0.00201528 3.72984e-07 0)
(-0.0020102 3.69748e-07 0)
(-0.00200516 3.66521e-07 0)
(-0.00200017 3.63479e-07 0)
(-0.00199522 3.60449e-07 0)
(-0.00199031 3.57602e-07 0)
(-0.00198544 3.54596e-07 0)
(-0.00198062 3.5161e-07 0)
(-0.00197583 3.48793e-07 0)
(-0.00197108 3.46169e-07 0)
(-0.00196636 3.4337e-07 0)
(-0.00196169 3.40449e-07 0)
(-0.00195705 3.37826e-07 0)
(-0.00195245 3.35283e-07 0)
(-0.00194788 3.32651e-07 0)
(-0.00194335 3.30169e-07 0)
(-0.00193886 3.27503e-07 0)
(-0.00193439 3.2508e-07 0)
(-0.00192997 3.22335e-07 0)
(-0.00192625 3.19993e-07 0)
(-0.00192321 3.18755e-07 0)
(-0.00192017 3.1698e-07 0)
(-0.00191712 3.15323e-07 0)
(-0.00191407 3.13753e-07 0)
(-0.00191101 3.12158e-07 0)
(-0.00190794 3.10623e-07 0)
(-0.00190487 3.08608e-07 0)
(-0.00190179 3.07069e-07 0)
(-0.00189871 3.0576e-07 0)
(-0.00189562 3.04017e-07 0)
(-0.00189253 3.02273e-07 0)
(-0.00188943 3.00781e-07 0)
(-0.00188633 2.99255e-07 0)
(-0.00188322 2.97545e-07 0)
(-0.00188011 2.95837e-07 0)
(-0.001877 2.94581e-07 0)
(-0.00187387 2.92889e-07 0)
(-0.00187075 2.91208e-07 0)
(-0.00186761 2.8996e-07 0)
(-0.00186447 2.88303e-07 0)
(-0.00186133 2.8665e-07 0)
(-0.00185818 2.85218e-07 0)
(-0.00185503 2.83775e-07 0)
(-0.00185187 2.82153e-07 0)
(-0.00184871 2.80729e-07 0)
(-0.00184554 2.79321e-07 0)
(-0.00184236 2.77713e-07 0)
(-0.00183918 2.76126e-07 0)
(-0.001836 2.74738e-07 0)
(-0.00183281 2.73358e-07 0)
(-0.00182962 2.71784e-07 0)
(-0.00182642 2.70406e-07 0)
(-0.00182322 2.68855e-07 0)
(-0.00182001 2.67501e-07 0)
(-0.00181679 2.66156e-07 0)
(-0.00181358 2.64632e-07 0)
(-0.00181035 2.63294e-07 0)
(-0.00180712 2.61796e-07 0)
(-0.00180389 2.60459e-07 0)
(-0.00180065 2.59159e-07 0)
(-0.0017974 2.57663e-07 0)
(-0.00179415 2.56367e-07 0)
(-0.0017909 2.54898e-07 0)
(-0.00178764 2.5344e-07 0)
(-0.00178438 2.52155e-07 0)
(-0.00178111 2.50887e-07 0)
(-0.00177784 2.49624e-07 0)
(-0.00177455 2.48207e-07 0)
(-0.00177127 2.46938e-07 0)
(-0.00176798 2.45693e-07 0)
(-0.00176468 2.44116e-07 0)
(-0.00176139 2.4289e-07 0)
(-0.00175808 2.41664e-07 0)
(-0.00175477 2.40453e-07 0)
(-0.00175145 2.39072e-07 0)
(-0.00174814 2.37717e-07 0)
(-0.00174482 2.36659e-07 0)
(-0.00174148 2.35321e-07 0)
(-0.00173815 2.3396e-07 0)
(-0.00173481 2.32781e-07 0)
(-0.00173147 2.31444e-07 0)
(-0.00172812 2.3027e-07 0)
(-0.00172476 2.29114e-07 0)
(-0.0017214 2.27831e-07 0)
(-0.00171804 2.26473e-07 0)
(-0.00171467 2.25353e-07 0)
(-0.0017113 2.24201e-07 0)
(-0.00170792 2.22937e-07 0)
(-0.00170454 2.2179e-07 0)
(-0.00170115 2.20519e-07 0)
(-0.00169776 2.19398e-07 0)
(-0.00169435 2.18285e-07 0)
(-0.00169095 2.17051e-07 0)
(-0.00168754 2.15817e-07 0)
(-0.00168413 2.14714e-07 0)
(-0.00168071 2.13764e-07 0)
(-0.00167728 2.12597e-07 0)
(-0.00167385 2.11304e-07 0)
(-0.00167042 2.10418e-07 0)
(-0.00166698 2.09209e-07 0)
(-0.00166352 2.08506e-07 0)
(-0.00166007 2.06939e-07 0)
(-0.0016566 2.06731e-07 0)
(-0.00165315 2.04532e-07 0)
(-0.00164964 2.05609e-07 0)
(-0.00164621 2.01618e-07 0)
(-0.00164263 2.05715e-07 0)
(-0.00163926 1.97247e-07 0)
(-0.00163555 2.08318e-07 0)
(-0.00163232 1.89642e-07 0)
(-0.00162836 2.15907e-07 0)
(-0.00162543 1.75391e-07 0)
(-0.00162098 2.34161e-07 0)
(-0.00161865 1.46928e-07 0)
(-0.00161333 2.71823e-07 0)
(-0.00161207 9.33676e-08 0)
(-0.00160538 3.38864e-07 0)
(-0.00160565 8.31206e-09 0)
(-0.00159718 3.72982e-07 0)
(-0.0353489 -0.00214396 0)
(-0.0160272 -0.000524803 0)
(-0.0106093 -0.000100678 0)
(-0.00845858 -3.52221e-05 0)
(-0.00749 -1.98222e-05 0)
(-0.00685743 -1.60821e-05 0)
(-0.0063511 -1.33155e-05 0)
(-0.00594106 -1.08596e-05 0)
(-0.00560735 -9.03779e-06 0)
(-0.00532957 -7.72106e-06 0)
(-0.00509311 -6.7235e-06 0)
(-0.00488858 -5.93457e-06 0)
(-0.0047095 -5.29436e-06 0)
(-0.00455117 -4.76573e-06 0)
(-0.00441 -4.32269e-06 0)
(-0.00428324 -3.94644e-06 0)
(-0.00416871 -3.62316e-06 0)
(-0.00406468 -3.34247e-06 0)
(-0.00396976 -3.09612e-06 0)
(-0.00388282 -2.87782e-06 0)
(-0.00380291 -2.68275e-06 0)
(-0.00372925 -2.50662e-06 0)
(-0.0036612 -2.34607e-06 0)
(-0.00359823 -2.19831e-06 0)
(-0.00353989 -2.06095e-06 0)
(-0.00348579 -1.93188e-06 0)
(-0.00343562 -1.80927e-06 0)
(-0.00338911 -1.69138e-06 0)
(-0.00334608 -1.57631e-06 0)
(-0.00330633 -1.46287e-06 0)
(-0.00326977 -1.3491e-06 0)
(-0.00323628 -1.23401e-06 0)
(-0.00320584 -1.11445e-06 0)
(-0.00317842 -9.90671e-07 0)
(-0.00315411 -8.57352e-07 0)
(-0.00313289 -7.17419e-07 0)
(-0.003115 -5.60153e-07 0)
(-0.00310051 -3.93537e-07 0)
(-0.00308966 -2.00781e-07 0)
(-0.00308297 9.42097e-09 0)
(-0.00307998 2.38967e-07 0)
(-0.00308313 5.43887e-07 0)
(-0.00308858 7.98322e-07 0)
(-0.00310561 1.20757e-06 0)
(-0.00311865 1.45387e-06 0)
(-0.00315758 2.17822e-06 0)
(-0.00317351 2.10673e-06 0)
(-0.00324981 4.11106e-06 0)
(-0.00326661 -4.42539e-06 0)
(-0.00315533 0.000227197 0)
(-6.51939e-05 3.36046e-05 0)
(-6.54791e-05 0.000127735 0)
(-7.68015e-05 0.000219829 0)
(-8.2809e-05 0.000344814 0)
(-7.88242e-05 0.000476559 0)
(-8.10964e-05 0.000600926 0)
(-9.71304e-05 0.000731286 0)
(-0.00011883 0.000881254 0)
(-0.000132094 0.00104308 0)
(-0.000125963 0.00119588 0)
(-9.74234e-05 0.00131323 0)
(-4.96172e-05 0.00137132 0)
(7.77603e-06 0.00135689 0)
(6.4355e-05 0.00127343 0)
(0.000114514 0.00112949 0)
(0.000155323 0.000936486 0)
(0.00018521 0.000707967 0)
(0.000204689 0.000456683 0)
(0.000214905 0.000193718 0)
(0.000217085 -7.18569e-05 0)
(0.000215062 -0.000333914 0)
(0.000209156 -0.000588703 0)
(0.000200218 -0.000831983 0)
(0.00018992 -0.00106353 0)
(0.00017895 -0.0012819 0)
(0.000167843 -0.00148696 0)
(0.000156925 -0.00167889 0)
(0.000146407 -0.00185816 0)
(0.000136423 -0.00202539 0)
(0.000127061 -0.00218127 0)
(0.000118372 -0.00232661 0)
(0.000110358 -0.00246221 0)
(0.000102997 -0.00258887 0)
(9.62349e-05 -0.00270737 0)
(8.99842e-05 -0.00281841 0)
(8.41187e-05 -0.00292261 0)
(7.84752e-05 -0.00302051 0)
(7.28896e-05 -0.00311247 0)
(6.71452e-05 -0.00319878 0)
(6.09405e-05 -0.00327949 0)
(5.40369e-05 -0.00335444 0)
(4.62657e-05 -0.00342337 0)
(3.71161e-05 -0.00348587 0)
(2.61811e-05 -0.00354098 0)
(1.35052e-05 -0.00358792 0)
(-1.79413e-06 -0.00362573 0)
(-2.01856e-05 -0.00365237 0)
(-4.21288e-05 -0.00366738 0)
(-6.93469e-05 -0.00366708 0)
(-0.00010232 -0.00364875 0)
(-0.000141706 -0.00361011 0)
(-0.00018808 -0.00354766 0)
(-0.000241344 -0.00345764 0)
(-0.000300828 -0.00333664 0)
(-0.000364853 -0.00318136 0)
(-0.000430423 -0.00298886 0)
(-0.000492657 -0.00275739 0)
(-0.000545082 -0.00248836 0)
(-0.000581843 -0.00218556 0)
(-0.00059755 -0.00185853 0)
(-0.000594973 -0.00152047 0)
(-0.000586343 -0.00116937 0)
(-0.000549624 -0.000796685 0)
(-0.000429072 -0.000419983 0)
(-0.000224608 -9.87184e-05 0)
(6.1528e-06 0.000128286 0)
(0.000210849 0.000263371 0)
(0.000364006 0.000320451 0)
(0.000446905 0.000319566 0)
(0.000453931 0.000285981 0)
(0.000392029 0.00023986 0)
(0.000292002 0.000201349 0)
(0.000180503 0.000172784 0)
(7.66957e-05 0.000154986 0)
(-6.58351e-06 0.000147124 0)
(-6.61937e-05 0.000147855 0)
(-0.000101893 0.000156565 0)
(-0.000116745 0.000174465 0)
(-0.000115271 0.000200966 0)
(-0.000103938 0.000233604 0)
(-8.88546e-05 0.00026566 0)
(-7.65371e-05 0.000294428 0)
(-7.03453e-05 0.000322026 0)
(-6.95178e-05 0.000352153 0)
(-6.91105e-05 0.000385522 0)
(-6.316e-05 0.000418974 0)
(-4.84355e-05 0.0004464 0)
(-2.60427e-05 0.000462317 0)
(1.18009e-06 0.000464342 0)
(3.15401e-05 0.000451724 0)
(6.46633e-05 0.000422768 0)
(9.82558e-05 0.000375403 0)
(0.000127437 0.000310527 0)
(0.000147044 0.000232837 0)
(0.000155685 0.00014977 0)
(0.000155755 6.72203e-05 0)
(0.000149627 -1.13613e-05 0)
(0.000139601 -8.31119e-05 0)
(0.000128507 -0.000146976 0)
(0.000117969 -0.000202714 0)
(0.000109065 -0.000251118 0)
(0.000102063 -0.000293103 0)
(9.66473e-05 -0.000329691 0)
(9.19895e-05 -0.000362104 0)
(8.65819e-05 -0.000391726 0)
(7.83285e-05 -0.000419363 0)
(6.55238e-05 -0.000444492 0)
(4.80322e-05 -0.000465449 0)
(2.76222e-05 -0.000480514 0)
(7.08925e-06 -0.000489032 0)
(-1.12615e-05 -0.000491661 0)
(-2.65365e-05 -0.000489529 0)
(-3.88938e-05 -0.000483671 0)
(-4.86347e-05 -0.000476711 0)
(-5.50728e-05 -0.000467295 0)
(-5.68053e-05 -0.000455372 0)
(-5.27731e-05 -0.000438644 0)
(-4.35385e-05 -0.000413021 0)
(-2.95863e-05 -0.000372558 0)
(-7.74603e-06 -0.000314028 0)
(2.37205e-05 -0.000248946 0)
(5.11171e-05 -0.000201194 0)
(3.83544e-05 -0.000189425 0)
(-6.49819e-05 -0.000201951 0)
(-0.000283223 -0.00016331 0)
(-0.000539148 2.32552e-05 0)
(-0.000692302 0.000321869 0)
(-0.0007204 0.000601303 0)
(-0.000693041 0.000813674 0)
(-0.000647309 0.00098609 0)
(-0.00059109 0.00113445 0)
(-0.000530336 0.00126016 0)
(-0.000468742 0.00136598 0)
(-0.000408404 0.00145377 0)
(-0.000350851 0.00152523 0)
(-0.000296928 0.0015821 0)
(-0.000247136 0.00162595 0)
(-0.000201741 0.00165831 0)
(-0.000160816 0.00168061 0)
(-0.000124244 0.00169424 0)
(-9.1756e-05 0.00170043 0)
(-6.31191e-05 0.00170022 0)
(-3.84499e-05 0.00169457 0)
(-1.71415e-05 0.00168501 0)
(1.61829e-06 0.00167192 0)
(1.79949e-05 0.00165593 0)
(3.24138e-05 0.00163748 0)
(4.51642e-05 0.00161694 0)
(5.6557e-05 0.00159464 0)
(6.68887e-05 0.00157081 0)
(7.63855e-05 0.00154562 0)
(8.52692e-05 0.00151922 0)
(9.37274e-05 0.00149169 0)
(0.000101914 0.0014631 0)
(0.000109959 0.00143346 0)
(0.000117966 0.0014028 0)
(0.000126026 0.00137109 0)
(0.000134191 0.00133831 0)
(0.0001425 0.00130445 0)
(0.000150993 0.00126949 0)
(0.000159672 0.00123337 0)
(0.000168543 0.0011961 0)
(0.000177605 0.00115765 0)
(0.00018683 0.001118 0)
(0.000196226 0.00107717 0)
(0.000205765 0.00103512 0)
(0.000215413 0.000991886 0)
(0.000225156 0.000947461 0)
(0.000234955 0.000901862 0)
(0.000244777 0.0008551 0)
(0.00025457 0.000807182 0)
(0.000264266 0.000758115 0)
(0.000273776 0.000707929 0)
(0.000282997 0.00065667 0)
(0.000291808 0.000604383 0)
(0.000300075 0.000551112 0)
(0.000307692 0.000496909 0)
(0.000314404 0.000441645 0)
(0.000321734 0.000387954 0)
(0.000327978 0.000333653 0)
(0.000332963 0.000278615 0)
(0.000336206 0.000222692 0)
(0.000337183 0.000165948 0)
(0.000335258 0.000108645 0)
(0.000329803 5.12798e-05 0)
(0.000320191 -5.44587e-06 0)
(0.000305925 -6.06464e-05 0)
(0.000286671 -0.000113358 0)
(0.000262246 -0.000162654 0)
(0.000232712 -0.000207744 0)
(0.000198056 -0.000247691 0)
(0.000160223 -0.000284175 0)
(0.000117426 -0.000314744 0)
(6.94292e-05 -0.000340066 0)
(1.48195e-05 -0.000364482 0)
(-5.0568e-05 -0.000400239 0)
(-0.000139313 -0.000473255 0)
(-0.000283877 -0.000629037 0)
(-0.000533208 -0.000914588 0)
(-0.000894589 -0.0013188 0)
(-1.8722e-07 7.10863e-05 0)
(-8.19033e-05 8.0697e-05 0)
(-0.000143954 8.05297e-05 0)
(-0.000208741 9.19208e-05 0)
(-0.000294265 0.000113594 0)
(-0.000402617 0.000134844 0)
(-0.000526584 0.0001493 0)
(-0.000657987 0.00015549 0)
(-0.000790441 0.000153613 0)
(-0.000917639 0.000144212 0)
(-0.00103471 0.00012871 0)
(-0.0011388 0.000109206 0)
(-0.001229 9.02948e-05 0)
(-0.00130856 8.00232e-05 0)
(-0.00138696 8.42505e-05 0)
(-0.00147624 0.00010252 0)
(-0.00158466 0.00012818 0)
(-0.00171386 0.000148961 0)
(-0.00185565 0.00015196 0)
(-0.00199161 0.000130513 0)
(-0.00210159 8.53164e-05 0)
(-0.00216866 2.31856e-05 0)
(-0.00218695 -5.20754e-05 0)
(-0.00214548 -0.00013881 0)
(-0.00204017 -0.000233456 0)
(-0.00186044 -0.000328172 0)
(-0.00160568 -0.00040571 0)
(-0.00129345 -0.000451089 0)
(-0.000952405 -0.000469144 0)
(-0.000599142 -0.000476201 0)
(-0.000237355 -0.000465835 0)
(0.000129646 -0.000423654 0)
(0.000531283 -0.000324748 0)
(0.000886476 -9.2392e-05 0)
(0.000976434 0.000140476 0)
(0.000840952 0.000208684 0)
(0.000688632 0.000192682 0)
(0.000576242 0.000172276 0)
(0.000480743 0.000136446 0)
(0.00044695 6.84341e-05 0)
(0.000485306 -1.47404e-05 0)
(0.00057753 -7.19623e-05 0)
(0.000691712 -9.81394e-05 0)
(0.000808778 -0.000130627 0)
(0.000936367 -0.000179997 0)
(0.00107493 -0.00019845 0)
(0.00118604 -0.000160113 0)
(0.00123662 -9.32558e-05 0)
(0.00122649 -2.17244e-05 0)
(0.00116182 4.797e-05 0)
(0.00104943 0.000109874 0)
(0.000897454 0.000162355 0)
(0.000712212 0.000206749 0)
(0.000501535 0.000244251 0)
(0.000265695 0.000272055 0)
(1.30622e-05 0.000285708 0)
(-0.000244023 0.000290138 0)
(-0.000497752 0.000280657 0)
(-0.000737184 0.000257672 0)
(-0.000951723 0.00022078 0)
(-0.0011312 0.000171573 0)
(-0.00126714 0.000111705 0)
(-0.00135289 4.33616e-05 0)
(-0.00138457 -3.25563e-05 0)
(-0.00136429 -0.00011434 0)
(-0.00129645 -0.000204015 0)
(-0.00115536 -0.000297752 0)
(-0.000933573 -0.000390543 0)
(-0.000626402 -0.000470769 0)
(-0.000247205 -0.000522687 0)
(0.000184287 -0.000537861 0)
(0.000660184 -0.000469037 0)
(0.00108539 -0.000261616 0)
(0.00123005 3.38215e-05 0)
(0.00109266 0.000258295 0)
(0.000832163 0.000361141 0)
(0.000570034 0.000333403 0)
(0.000423016 0.000237333 0)
(0.000396529 0.000137703 0)
(0.000444691 -2.18874e-05 0)
(0.00061152 -0.000298803 0)
(0.000957986 -0.000460674 0)
(0.00123873 -0.000270744 0)
(0.00123495 -3.15746e-05 0)
(0.00114793 2.23717e-05 0)
(0.00109307 5.78654e-05 0)
(0.000988535 0.000123865 0)
(0.000849418 0.000146879 0)
(0.000718196 0.000144105 0)
(0.000592 0.000142153 0)
(0.000469851 0.000134588 0)
(0.000359761 0.000119012 0)
(0.000266269 0.00010081 0)
(0.00018957 8.47762e-05 0)
(0.00012613 7.46726e-05 0)
(6.74233e-05 7.3423e-05 0)
(1.48393e-06 7.92524e-05 0)
(-8.71738e-05 6.74835e-05 0)
(-0.000146648 -2.77223e-05 0)
(-3.78215e-05 -0.000125219 0)
(-0.00014771 -5.41473e-05 0)
(-0.000104952 -0.000210447 0)
(-4.1089e-05 -0.000240942 0)
(-4.79272e-06 -0.00021941 0)
(-7.23084e-06 -0.000220255 0)
(-3.06552e-05 -0.000256516 0)
(-5.84068e-05 -0.000337996 0)
(-7.93848e-05 -0.00044929 0)
(-8.88812e-05 -0.000578538 0)
(-8.60697e-05 -0.000710334 0)
(-7.17746e-05 -0.000832336 0)
(-4.87473e-05 -0.000934005 0)
(-2.23413e-05 -0.0010076 0)
(-1.43149e-06 -0.00105468 0)
(1.18389e-05 -0.00108443 0)
(2.4572e-05 -0.00110213 0)
(4.42755e-05 -0.00110382 0)
(7.26021e-05 -0.0010804 0)
(0.000104537 -0.00102392 0)
(0.000132316 -0.000933707 0)
(0.000149927 -0.000817072 0)
(0.000155667 -0.000685151 0)
(0.00015024 -0.000548549 0)
(0.000137003 -0.000413629 0)
(0.000107067 -0.000279476 0)
(3.79064e-05 -0.000171531 0)
(-2.1468e-05 -0.000119356 0)
(-5.1405e-06 -9.39567e-05 0)
(5.68423e-05 -3.83153e-05 0)
(9.52947e-05 5.05353e-05 0)
(8.99034e-05 0.000137466 0)
(5.64314e-05 0.000180157 0)
(2.21446e-05 0.000173152 0)
(-1.11874e-05 0.000145215 0)
(-4.92254e-05 0.000121094 0)
(-9.89572e-05 7.70331e-05 0)
(-0.000141033 3.18373e-06 0)
(-0.000127828 -0.000129173 0)
(-1.90276e-05 -0.000275468 0)
(8.98319e-05 -0.000391043 0)
(0.000151743 -0.000479265 0)
(0.000146053 -0.000477476 0)
(-7.75202e-05 -0.000423303 0)
(-0.00038572 -0.000460723 0)
(-0.000569048 -0.000592228 0)
(-0.000591697 -0.000730335 0)
(-0.000465837 -0.000818306 0)
(-0.000251732 -0.000884428 0)
(6.42859e-05 -0.000807766 0)
(0.000396872 -0.000526195 0)
(0.00050969 -8.45901e-05 0)
(0.000490657 0.000251832 0)
(0.000458337 0.000523878 0)
(0.000390776 0.000751824 0)
(0.000321167 0.000925098 0)
(0.000267482 0.00106617 0)
(0.000225624 0.00118389 0)
(0.000189731 0.00128298 0)
(0.000158797 0.00136362 0)
(0.000132453 0.00142909 0)
(0.000110112 0.00148115 0)
(9.11295e-05 0.0015218 0)
(7.51047e-05 0.00155224 0)
(6.20383e-05 0.00157392 0)
(5.18296e-05 0.00158822 0)
(4.42086e-05 0.00159647 0)
(3.93312e-05 0.00159978 0)
(3.74236e-05 0.00159968 0)
(3.87749e-05 0.00159804 0)
(4.38021e-05 0.00159708 0)
(5.31366e-05 0.00159965 0)
(6.7064e-05 0.00160929 0)
(8.48701e-05 0.00163028 0)
(0.000103845 0.00166631 0)
(0.000120209 0.00171992 0)
(0.000127875 0.00178811 0)
(0.000120367 0.00186384 0)
(9.31223e-05 0.00193657 0)
(4.51918e-05 0.00199579 0)
(-1.78591e-05 0.0020341 0)
(-7.95331e-05 0.00205194 0)
(-0.000122066 0.00208395 0)
(-0.000158468 0.00220005 0)
(-0.000193977 0.00234752 0)
(-3.24397e-05 0.00238933 0)
(0.00066094 0.00246249 0)
(0.0016707 0.00309525 0)
(0.00197218 0.00433886 0)
(0.00117081 0.0051913 0)
(0.000421772 0.00513212 0)
(0.000360296 0.00498982 0)
(0.000272284 0.00515737 0)
(-3.56006e-05 0.00515202 0)
(-0.00013669 0.00495847 0)
(-0.000125353 0.00487776 0)
(-0.000208537 0.00480876 0)
(-0.000255617 0.00465782 0)
(-0.000236396 0.00453492 0)
(-0.000244577 0.004443 0)
(-0.000257901 0.00432747 0)
(-0.000245226 0.00421584 0)
(-0.000237572 0.00412378 0)
(-0.000238637 0.00402917 0)
(-0.000232845 0.00393397 0)
(-0.000227055 0.00384758 0)
(-0.000226376 0.00376344 0)
(-0.000225145 0.00367899 0)
(-0.00022357 0.00359804 0)
(-0.000224267 0.00351947 0)
(-0.00022574 0.0034415 0)
(-0.000227335 0.00336535 0)
(-0.000230122 0.00329122 0)
(-0.000234071 0.00321839 0)
(-0.000238991 0.00314705 0)
(-0.000245462 0.00307741 0)
(-0.000253962 0.00300909 0)
(-0.000264782 0.00294185 0)
(-0.000278456 0.00287551 0)
(-0.000295572 0.00280953 0)
(-0.000316911 0.00274786 0)
(-0.000341964 0.00268571 0)
(-0.000370348 0.00262237 0)
(-0.00040149 0.00255725 0)
(-0.0004347 0.00248955 0)
(-0.000469205 0.00241834 0)
(-0.00050398 0.00234266 0)
(-0.000537119 0.00226151 0)
(-0.000564068 0.00217295 0)
(-0.000574722 0.00207499 0)
(-0.000555223 0.00197115 0)
(-0.000504621 0.00190816 0)
(-0.000412027 0.00187883 0)
(-0.000274292 0.00188593 0)
(-8.07389e-05 0.00192121 0)
(0.000194593 0.0019814 0)
(0.000576661 0.00210351 0)
(0.0010646 0.00238928 0)
(0.00155776 0.00285232 0)
(0.00192726 0.00346916 0)
(0.0021202 0.00414269 0)
(0.0021758 0.00478935 0)
(0.00214949 0.00539034 0)
(0.00206769 0.0059447 0)
(0.00194603 0.00644619 0)
(0.00179542 0.00689159 0)
(0.00162184 0.00727172 0)
(0.00143514 0.00758488 0)
(0.00124351 0.00783965 0)
(0.0010514 0.0080363 0)
(0.000863466 0.0081796 0)
(0.000682427 0.00827899 0)
(0.000510667 0.00833588 0)
(0.000349363 0.0083552 0)
(0.000196249 0.00834171 0)
(5.2024e-05 0.00829611 0)
(-7.89136e-05 0.00824339 0)
(-0.000195742 0.00821594 0)
(-0.000304138 0.00817357 0)
(-0.000409381 0.00811501 0)
(-0.000509463 0.00803944 0)
(-0.000605017 0.00794941 0)
(-0.000697618 0.00784548 0)
(-0.000787299 0.00772783 0)
(-0.000874611 0.0075976 0)
(-0.00096025 0.00745531 0)
(-0.00104451 0.00730139 0)
(-0.00112781 0.00713646 0)
(-0.00121056 0.006961 0)
(-0.00129307 0.00677541 0)
(-0.00137571 0.00658015 0)
(-0.00145882 0.00637559 0)
(-0.00154276 0.00616208 0)
(-0.0016279 0.00593993 0)
(-0.00171463 0.00570943 0)
(-0.00180339 0.00547079 0)
(-0.00189461 0.00522421 0)
(-0.00198878 0.00496982 0)
(-0.0020864 0.00470775 0)
(-0.00218802 0.00443802 0)
(-0.00229425 0.00416063 0)
(-0.00240588 0.00387553 0)
(-0.00252355 0.00358251 0)
(-0.00264752 0.00328135 0)
(-0.00277836 0.00297196 0)
(-0.00291874 0.00265354 0)
(-0.00309493 0.0023412 0)
(-0.00339711 0.00208281 0)
(-0.00373525 0.00179409 0)
(-0.00409917 0.00146323 0)
(-0.00446316 0.00108159 0)
(-0.00480504 0.000654312 0)
(-0.00511216 0.000192408 0)
(-0.00537023 -0.00028693 0)
(-0.00558346 -0.000761642 0)
(-0.00576968 -0.00123847 0)
(-0.00595704 -0.00163015 0)
(-0.00618147 -0.00221049 0)
(-0.00635916 -0.00236162 0)
(-0.00670735 -0.00334154 0)
(-0.00659888 -0.00274771 0)
)
;
    }
    frontAndBack
    {
        type            empty;
    }
}


// ************************************************************************* //
