/*--------------------------------*- C++ -*----------------------------------*\
  =========                 |
  \\      /  F ield         | OpenFOAM: The Open Source CFD Toolbox
   \\    /   O peration     | Website:  https://openfoam.org
    \\  /    A nd           | Version:  7
     \\/     M anipulation  |
\*---------------------------------------------------------------------------*/
FoamFile
{
    version     2.0;
    format      ascii;
    class       volScalarField;
    location    "0.33";
    object      yPlus;
}
// * * * * * * * * * * * * * * * * * * * * * * * * * * * * * * * * * * * * * //

dimensions      [0 0 0 0 0 0 0];

internalField   uniform 0;

boundaryField
{
    velocityInlet
    {
        type            calculated;
        value           uniform 0;
    }
    pressureOutlet
    {
        type            calculated;
        value           uniform 0;
    }
    fixedWalls
    {
        type            calculated;
        value           nonuniform List<scalar> 
100
(
2.46948
0.475644
0.677229
0.88594
0.999582
1.01525
0.982462
0.943673
0.917213
0.90598
0.906575
0.91444
0.925808
0.93828
0.950362
0.960293
0.96601
0.966032
0.964509
0.97941
1.03718
1.13545
1.21964
1.20751
1.0157
0.562791
0.553708
0.681482
0.41753
0.553461
0.852061
0.993698
1.05028
1.06081
1.04715
1.01996
0.984316
0.942682
0.896769
0.848553
0.800748
0.756829
0.720569
0.69531
0.683168
0.684358
0.697446
0.719773
0.748487
0.783929
0.83001
0.884251
0.93008
0.947096
0.935373
0.927538
0.962656
1.04078
1.13277
1.22328
1.31137
1.38723
1.42437
1.38878
1.24202
0.896859
0.427677
1.03896
1.29344
1.35211
1.25323
1.02942
0.69584
0.18595
0.653294
0.841209
0.950124
1.02303
1.07922
1.12728
1.16998
1.20693
1.23603
1.25167
1.24235
1.189
1.06893
0.844961
0.396958
0.658764
0.962698
1.10977
1.14173
1.05856
0.892257
0.614208
0.158079
0.574563
0.737432
0.755273
)
;
    }
    bottomWall
    {
        type            calculated;
        value           nonuniform List<scalar> 
800
(
2.94479
1.9839
1.61342
1.4403
1.35515
1.29651
1.24755
1.20643
1.17188
1.14231
1.1165
1.09366
1.07325
1.05485
1.03815
1.0229
1.00889
0.995966
0.983996
0.972867
0.962485
0.952772
0.94366
0.935091
0.927014
0.919386
0.912166
0.905322
0.898822
0.892641
0.886755
0.88114
0.87578
0.870654
0.86575
0.86105
0.856544
0.852219
0.848063
0.844068
0.840223
0.836521
0.832954
0.829514
0.826193
0.822989
0.819891
0.8169
0.814003
0.811205
0.808856
0.806912
0.804988
0.80309
0.801217
0.799367
0.79754
0.795736
0.793953
0.792193
0.790454
0.788735
0.787036
0.785358
0.783699
0.782059
0.780438
0.778835
0.77725
0.775683
0.774134
0.772601
0.771085
0.769586
0.768102
0.766634
0.765182
0.763746
0.762325
0.760918
0.759525
0.758147
0.756783
0.755432
0.754096
0.752771
0.75146
0.750163
0.748878
0.747605
0.746345
0.745096
0.743859
0.742633
0.74142
0.740217
0.739025
0.737845
0.736674
0.735516
0.734366
0.733227
0.732098
0.73098
0.729871
0.728771
0.727682
0.726602
0.725529
0.724468
0.723415
0.72237
0.721335
0.720307
0.719288
0.718278
0.717276
0.716281
0.715296
0.714317
0.713346
0.712383
0.711428
0.710479
0.709539
0.708604
0.707677
0.706758
0.705846
0.70494
0.70404
0.703148
0.702261
0.701381
0.700508
0.699641
0.698779
0.697924
0.697075
0.696232
0.695394
0.694561
0.693736
0.692916
0.6921
0.691291
0.690486
0.689687
0.688893
0.688104
0.687442
0.686899
0.686355
0.685811
0.685263
0.684716
0.684165
0.683615
0.683063
0.682509
0.681954
0.681398
0.68084
0.680281
0.67972
0.679159
0.678596
0.67803
0.677465
0.676897
0.676327
0.675757
0.675186
0.674613
0.674038
0.673462
0.672884
0.672305
0.671725
0.671144
0.670561
0.669976
0.66939
0.668803
0.668215
0.667624
0.667032
0.666439
0.665844
0.665249
0.664651
0.664052
0.663451
0.662849
0.662246
0.661641
0.661035
0.660427
0.659817
0.659207
0.658594
0.65798
0.657365
0.656748
0.65613
0.655509
0.654889
0.654265
0.65364
0.653014
0.652387
0.651757
0.651127
0.650495
0.649861
0.649226
0.64859
0.64795
0.647311
0.646669
0.646026
0.645382
0.644735
0.644087
0.643437
0.642787
0.642134
0.641478
0.640822
0.640165
0.639505
0.638842
0.63818
0.637512
0.636848
0.636171
0.63551
0.634818
0.634166
0.633449
0.632821
0.632055
0.631485
0.630621
0.630167
0.629131
0.628884
0.62758
0.627631
0.625972
2.9448
1.98395
1.61357
1.44057
1.35556
1.29706
1.24826
1.20729
1.17289
1.14347
1.11782
1.09514
1.0749
1.05667
1.04016
1.0251
1.0113
0.998603
0.986873
0.976007
0.965911
0.956511
0.947744
0.939559
0.93191
0.924761
0.918082
0.911847
0.906039
0.900643
0.895649
0.89105
0.88685
0.883049
0.879665
0.876702
0.874195
0.872159
0.870633
0.869688
0.869268
0.869712
0.870481
0.872877
0.874708
0.880148
0.88237
0.892902
0.895686
0.879475
0.748058
1.15065
1.49538
1.86013
2.18447
2.45784
2.71532
2.97981
3.23617
3.45723
3.61534
3.68879
3.66661
3.55192
3.34674
3.05078
2.65895
2.15061
1.46883
1.10509
1.8627
2.4381
2.88866
3.26219
3.57983
3.85479
4.09573
4.30879
4.49854
4.66856
4.82174
4.96042
5.08656
5.2018
5.3075
5.40479
5.49458
5.57755
5.65424
5.72493
5.78973
5.84857
5.90124
5.94718
5.98584
6.01643
6.0375
6.04865
6.04672
6.02965
5.99559
5.94148
5.86383
5.7592
5.6238
5.4534
5.2437
4.99115
4.69228
4.34593
3.95055
3.49813
2.97365
2.32832
1.4889
0.925704
1.6487
1.9985
2.1443
2.14746
2.03164
1.85347
1.65675
1.49006
1.39345
1.36262
1.36391
1.38594
1.43486
1.51598
1.61054
1.70317
1.79189
1.88048
1.96558
2.03938
2.09325
2.12114
2.11995
2.08638
2.01507
1.90055
1.74016
1.5324
1.27871
0.994409
0.831312
1.00493
1.24
1.43575
1.59332
1.72073
1.82421
1.90841
1.97734
2.03444
2.08211
2.12145
2.15246
2.17461
2.18735
2.1902
2.18377
2.17449
2.16126
2.14568
2.12346
2.08633
2.022
1.91704
1.77161
1.5932
1.34067
0.784764
1.1357
1.90266
2.37698
2.69655
2.9548
3.17455
3.36163
3.5199
3.65257
3.76245
3.85215
3.92409
3.98039
4.02303
4.05376
4.07413
4.08547
4.08896
4.08573
4.0775
4.06455
4.04762
4.02717
4.00363
3.97739
3.94869
3.91776
3.88475
3.84975
3.81283
3.774
3.73326
3.69056
3.64585
3.59904
3.55006
3.49877
3.44511
3.38892
3.3301
3.26852
3.20402
3.13649
3.06575
2.99166
2.91403
2.83269
2.74744
2.65807
2.56437
2.46613
2.36316
2.25527
2.14218
2.03022
1.91358
1.79223
1.66719
1.54137
1.42137
1.31987
1.25497
1.24041
1.27151
1.32861
1.39247
1.45172
1.50863
1.55347
1.58324
1.59704
1.59577
1.58886
1.62443
1.82952
2.32214
0.662075
1.22978
1.56414
1.88428
2.2318
2.59564
2.9525
3.28733
3.59316
3.86412
4.09803
4.29692
4.4664
4.61604
4.76122
4.91863
5.09671
5.29374
5.49695
5.68275
5.82799
5.91353
5.93331
5.87322
5.72742
5.4778
5.10925
4.61489
3.99738
3.25435
2.38108
1.93281
2.79323
3.59876
3.89763
3.71271
3.38905
3.10902
2.8665
2.78529
2.88333
3.10599
3.3864
3.67739
3.95374
4.19885
4.37458
4.4518
4.42874
4.30976
4.09894
3.79518
3.38882
2.86442
2.16563
1.48272
2.13501
2.88458
3.46815
3.92196
4.26582
4.50876
4.65463
4.70644
4.67087
4.55435
4.30654
3.8941
3.26594
2.42696
2.28095
3.23693
4.03445
4.31766
4.13698
3.70322
3.168
2.78002
2.71764
2.94499
3.4351
4.03708
4.37148
4.38843
4.29775
4.18598
3.98315
3.71893
3.43059
3.11877
2.78966
2.45359
2.11994
1.79534
1.47129
1.1086
0.786079
1.11019
1.38384
0.95915
1.08371
1.44892
1.51806
1.46188
1.48861
1.61722
1.85437
2.13044
2.40939
2.66318
2.87819
3.04667
3.16533
3.24156
3.2889
3.31456
3.31433
3.2772
3.19148
3.05195
2.86171
2.6289
2.36162
2.06559
1.73307
1.38949
1.13791
0.901049
0.562433
0.876258
1.19531
1.32288
1.27779
1.14998
1.03873
0.921072
0.907635
1.07154
1.50312
1.92469
2.2259
2.35073
2.34918
2.52186
2.75382
2.88307
2.86942
2.82079
2.58565
2.1271
1.63161
1.93573
2.39566
2.757
3.03127
3.25203
3.42763
3.56878
3.68054
3.76945
3.83907
3.89284
3.93305
3.96193
3.98133
3.9931
3.9988
4.00029
3.99999
4.00081
4.00625
4.02031
4.04737
4.09095
4.15278
4.22755
4.30614
4.37706
4.43126
4.46454
4.47628
4.49554
4.61053
4.85641
5.17742
5.55619
6.09311
6.60338
6.87581
6.98883
7.0492
7.09404
7.07883
7.02394
6.96868
6.90034
6.81835
6.73859
6.65963
6.57835
6.49968
6.42408
6.3494
6.27649
6.20571
6.13601
6.06724
5.99956
5.93259
5.86619
5.80043
5.73524
5.67055
5.60634
5.54248
5.47882
5.41509
5.35102
5.28623
5.22479
5.16255
5.09906
5.03391
4.96656
4.89626
4.82214
4.74321
4.65852
4.56816
4.47679
4.43738
4.44484
4.51044
4.63699
4.82373
5.08479
5.46122
5.87068
6.27424
6.6586
7.02556
7.3742
7.69495
7.98063
8.22904
8.43765
8.60854
8.74706
8.85437
8.9337
8.99013
9.02456
9.03912
9.03614
9.01608
8.99249
8.98287
8.96391
8.93497
8.89651
8.84919
8.79322
8.72891
8.65655
8.57631
8.48838
8.39286
8.28985
8.17938
8.06147
7.93608
7.80315
7.6626
7.51429
7.35808
7.1938
7.02127
6.84034
6.65093
6.45306
6.247
6.03331
5.81337
5.58994
5.36744
5.17345
5.08407
5.02863
5.0196
5.07265
5.19588
5.38295
5.62126
5.89179
6.17987
6.47311
6.80608
7.08796
7.53064
7.77207
)
;
    }
    frontAndBack
    {
        type            empty;
    }
}


// ************************************************************************* //
