/*--------------------------------*- C++ -*----------------------------------*\
  =========                 |
  \\      /  F ield         | OpenFOAM: The Open Source CFD Toolbox
   \\    /   O peration     | Website:  https://openfoam.org
    \\  /    A nd           | Version:  7
     \\/     M anipulation  |
\*---------------------------------------------------------------------------*/
FoamFile
{
    version     2.0;
    format      ascii;
    class       volVectorField;
    location    "0.46";
    object      ddtCorrDdt0(U);
}
// * * * * * * * * * * * * * * * * * * * * * * * * * * * * * * * * * * * * * //

dimensions      [0 1 -2 0 0 0 0];

internalField   nonuniform List<vector> 
70000
(
(0.000470012 -4.74921e-05 0)
(0.00463871 -8.43269e-05 0)
(0.0119813 -9.19497e-05 0)
(0.0204188 -7.01715e-05 0)
(0.028889 -6.71346e-05 0)
(0.0373119 -6.55922e-05 0)
(0.0454447 -6.40015e-05 0)
(0.053126 -6.38038e-05 0)
(0.0603571 -6.40969e-05 0)
(0.0671762 -6.41227e-05 0)
(0.0736381 -6.38741e-05 0)
(0.0798436 -6.40732e-05 0)
(0.0859275 -6.47491e-05 0)
(0.0920343 -6.65896e-05 0)
(0.0983095 -6.97035e-05 0)
(0.104879 -7.42793e-05 0)
(0.111843 -7.97683e-05 0)
(0.119268 -8.57352e-05 0)
(0.127215 -9.23917e-05 0)
(0.135746 -9.89573e-05 0)
(0.144925 -0.000106298 0)
(0.154831 -0.000114123 0)
(0.165556 -0.000122705 0)
(0.177196 -0.000132102 0)
(0.189851 -0.000142499 0)
(0.203627 -0.000152955 0)
(0.218627 -0.000164279 0)
(0.234952 -0.000174206 0)
(0.252696 -0.000183445 0)
(0.271959 -0.000189923 0)
(0.292782 -0.000191592 0)
(0.315248 -0.000187396 0)
(0.339278 -0.000173201 0)
(0.364883 -0.000141936 0)
(0.391705 -9.77604e-05 0)
(0.419387 -3.80449e-06 0)
(0.447393 9.00313e-05 0)
(0.473728 0.000324862 0)
(0.498675 0.000501834 0)
(0.515341 0.00100439 0)
(0.526432 0.0014263 0)
(0.517321 0.00222897 0)
(0.485898 0.00355367 0)
(0.42524 0.00446214 0)
(0.282364 0.00842806 0)
(0.111619 0.00961277 0)
(-0.233696 0.0134465 0)
(-0.801603 0.0239072 0)
(-1.18268 0.00649623 0)
(-2.83066 0.151055 0)
(-0.000124849 -0.000246528 0)
(0.00741607 -0.00066486 0)
(0.0252941 -0.000957926 0)
(0.0478339 -0.00104503 0)
(0.0706097 -0.00105147 0)
(0.0930126 -0.0010324 0)
(0.114554 -0.000992559 0)
(0.1347 -0.000944595 0)
(0.153306 -0.000898844 0)
(0.170441 -0.000858377 0)
(0.186284 -0.000828087 0)
(0.201159 -0.000813594 0)
(0.215485 -0.000818061 0)
(0.229698 -0.000843062 0)
(0.244202 -0.000887555 0)
(0.259331 -0.000949386 0)
(0.275345 -0.00102436 0)
(0.292433 -0.00111083 0)
(0.310779 -0.00120898 0)
(0.330576 -0.00131925 0)
(0.352031 -0.00144404 0)
(0.37538 -0.00158593 0)
(0.40088 -0.00174646 0)
(0.428805 -0.00192787 0)
(0.459423 -0.00213135 0)
(0.493037 -0.00235844 0)
(0.52996 -0.00261053 0)
(0.570529 -0.00288798 0)
(0.615118 -0.00319273 0)
(0.664158 -0.00352383 0)
(0.718008 -0.00387861 0)
(0.777234 -0.00425545 0)
(0.842057 -0.00464596 0)
(0.913205 -0.00502366 0)
(0.990429 -0.00539406 0)
(1.07414 -0.00564076 0)
(1.16403 -0.0058575 0)
(1.25733 -0.00562958 0)
(1.35696 -0.00535919 0)
(1.44829 -0.00394192 0)
(1.54445 -0.00227611 0)
(1.60904 0.00147047 0)
(1.65251 0.0070902 0)
(1.65596 0.0150073 0)
(1.50259 0.029329 0)
(1.35998 0.0478422 0)
(0.822335 0.0843653 0)
(-0.106552 0.119885 0)
(-0.549068 0.168038 0)
(-4.32515 0.30707 0)
(-0.000802481 -0.000446953 0)
(0.00524476 -0.00149558 0)
(0.0254964 -0.00240318 0)
(0.0558434 -0.00278367 0)
(0.0889891 -0.00284401 0)
(0.122069 -0.00279966 0)
(0.153932 -0.00268778 0)
(0.183653 -0.00253282 0)
(0.210782 -0.00236979 0)
(0.235261 -0.00221859 0)
(0.257304 -0.00209779 0)
(0.277375 -0.0020244 0)
(0.296122 -0.00200796 0)
(0.314231 -0.00205046 0)
(0.332336 -0.00214701 0)
(0.350951 -0.00229002 0)
(0.370475 -0.00246923 0)
(0.391222 -0.00268136 0)
(0.413488 -0.00292717 0)
(0.437595 -0.00320966 0)
(0.46388 -0.00353378 0)
(0.492709 -0.00390574 0)
(0.52446 -0.00432904 0)
(0.559523 -0.00480866 0)
(0.598269 -0.00534778 0)
(0.64111 -0.00595276 0)
(0.688478 -0.00662889 0)
(0.740858 -0.00738314 0)
(0.798799 -0.00822532 0)
(0.86298 -0.00916032 0)
(0.933997 -0.010194 0)
(1.01284 -0.0113297 0)
(1.09998 -0.0125692 0)
(1.19686 -0.0138679 0)
(1.30349 -0.0152478 0)
(1.42114 -0.0165181 0)
(1.55024 -0.0178052 0)
(1.68778 -0.018465 0)
(1.84026 -0.0189924 0)
(1.98749 -0.0176503 0)
(2.15388 -0.0156809 0)
(2.28777 -0.00949623 0)
(2.41369 -0.000574923 0)
(2.50939 0.016107 0)
(2.41864 0.041702 0)
(2.39144 0.0790361 0)
(1.89169 0.164364 0)
(0.884626 0.218944 0)
(0.645087 0.412546 0)
(-3.86565 0.536862 0)
(-0.00081105 -0.000538305 0)
(0.00215553 -0.00221893 0)
(0.0183531 -0.00398777 0)
(0.048317 -0.00494588 0)
(0.0856706 -0.00522054 0)
(0.125474 -0.00519421 0)
(0.164918 -0.00500214 0)
(0.20219 -0.00470102 0)
(0.236281 -0.00435644 0)
(0.266785 -0.0040166 0)
(0.293754 -0.00372518 0)
(0.31762 -0.00352 0)
(0.33911 -0.00342314 0)
(0.359062 -0.00343921 0)
(0.378279 -0.00355829 0)
(0.397431 -0.00376499 0)
(0.417044 -0.00404132 0)
(0.437553 -0.00438153 0)
(0.459366 -0.00478758 0)
(0.482929 -0.00526581 0)
(0.508712 -0.00582418 0)
(0.537204 -0.00647194 0)
(0.568891 -0.00721394 0)
(0.604256 -0.00805673 0)
(0.643731 -0.00900504 0)
(0.68778 -0.0100701 0)
(0.736869 -0.0112627 0)
(0.791541 -0.0125986 0)
(0.852398 -0.0141 0)
(0.920232 -0.0157807 0)
(0.995733 -0.0176635 0)
(1.08013 -0.0197581 0)
(1.17401 -0.0220908 0)
(1.27924 -0.024601 0)
(1.39604 -0.0273359 0)
(1.52607 -0.0300578 0)
(1.67073 -0.0328768 0)
(1.82618 -0.0350678 0)
(2.00269 -0.0369872 0)
(2.1752 -0.0366201 0)
(2.37764 -0.0351588 0)
(2.5485 -0.0273272 0)
(2.72205 -0.01652 0)
(2.87655 0.00939058 0)
(2.84202 0.0476244 0)
(2.88384 0.10131 0)
(2.49178 0.242324 0)
(1.49618 0.312312 0)
(1.29533 0.651751 0)
(-2.905 0.825699 0)
(-0.000406071 -0.00055048 0)
(0.000470667 -0.0026898 0)
(0.0106979 -0.00531417 0)
(0.0345046 -0.00708777 0)
(0.0691705 -0.00785435 0)
(0.110101 -0.00802366 0)
(0.153349 -0.00782933 0)
(0.19591 -0.00739673 0)
(0.235835 -0.00684214 0)
(0.272057 -0.00625576 0)
(0.304179 -0.00571794 0)
(0.332339 -0.0052975 0)
(0.35711 -0.00503796 0)
(0.379293 -0.00495272 0)
(0.399737 -0.00502922 0)
(0.4192 -0.00524402 0)
(0.438293 -0.00557083 0)
(0.457552 -0.00600122 0)
(0.477475 -0.0065391 0)
(0.498621 -0.00719552 0)
(0.521589 -0.00798242 0)
(0.547009 -0.0089116 0)
(0.575499 -0.00998815 0)
(0.607657 -0.0112179 0)
(0.643994 -0.0126051 0)
(0.685028 -0.0141635 0)
(0.731241 -0.0159097 0)
(0.783185 -0.0178672 0)
(0.841443 -0.0200734 0)
(0.90683 -0.0225519 0)
(0.980014 -0.0253485 0)
(1.06231 -0.0284793 0)
(1.15431 -0.0320035 0)
(1.25801 -0.0358513 0)
(1.37384 -0.0400902 0)
(1.50331 -0.0444766 0)
(1.64892 -0.0490396 0)
(1.80535 -0.0531126 0)
(1.9864 -0.0567176 0)
(2.16267 -0.0578303 0)
(2.37505 -0.0573895 0)
(2.55591 -0.0484328 0)
(2.74642 -0.0366031 0)
(2.91961 -0.00242715 0)
(2.92404 0.0474691 0)
(2.97433 0.116291 0)
(2.66415 0.303718 0)
(1.76354 0.412607 0)
(1.33316 0.836731 0)
(-2.18537 1.16769 0)
(-6.77892e-05 -0.000553614 0)
(0.000257454 -0.0029549 0)
(0.00600818 -0.00623298 0)
(0.0223513 -0.008846 0)
(0.0500806 -0.0103213 0)
(0.0867704 -0.0109392 0)
(0.128938 -0.0109401 0)
(0.173139 -0.0105012 0)
(0.21665 -0.00979742 0)
(0.257621 -0.00897466 0)
(0.294986 -0.00816197 0)
(0.328331 -0.00746951 0)
(0.357801 -0.00697289 0)
(0.38391 -0.0067041 0)
(0.407354 -0.00665512 0)
(0.428834 -0.00679799 0)
(0.44896 -0.00709962 0)
(0.468287 -0.00754956 0)
(0.487343 -0.00815505 0)
(0.506738 -0.00893449 0)
(0.527165 -0.00990663 0)
(0.549383 -0.0110873 0)
(0.574165 -0.0124821 0)
(0.60227 -0.0140944 0)
(0.634351 -0.0159252 0)
(0.67103 -0.0179874 0)
(0.71285 -0.0203003 0)
(0.76039 -0.0228928 0)
(0.814205 -0.0258168 0)
(0.875094 -0.029105 0)
(0.943657 -0.0328286 0)
(1.02119 -0.037011 0)
(1.10824 -0.0417442 0)
(1.20671 -0.0469622 0)
(1.31727 -0.0527336 0)
(1.44089 -0.0588575 0)
(1.58121 -0.0652101 0)
(1.73119 -0.0713012 0)
(1.90752 -0.0766822 0)
(2.07744 -0.0794643 0)
(2.28628 -0.0802507 0)
(2.46262 -0.0704914 0)
(2.65412 -0.0576249 0)
(2.82143 -0.0167352 0)
(2.84862 0.0463131 0)
(2.88763 0.128582 0)
(2.59413 0.363554 0)
(1.85789 0.532814 0)
(1.13224 1.00877 0)
(-1.91304 1.51005 0)
(4.22204e-05 -0.000574326 0)
(0.000636229 -0.00311836 0)
(0.00429235 -0.00682216 0)
(0.0151161 -0.0101362 0)
(0.0355274 -0.012358 0)
(0.0653447 -0.0135933 0)
(0.102562 -0.0140055 0)
(0.144372 -0.0137614 0)
(0.18803 -0.0130668 0)
(0.231298 -0.0121152 0)
(0.272561 -0.0110855 0)
(0.310813 -0.0101342 0)
(0.345622 -0.00937639 0)
(0.377016 -0.00887301 0)
(0.405326 -0.00863086 0)
(0.431024 -0.00862496 0)
(0.454576 -0.00881946 0)
(0.476439 -0.00920366 0)
(0.497058 -0.00978977 0)
(0.516976 -0.0106069 0)
(0.53687 -0.0116859 0)
(0.557551 -0.0130518 0)
(0.57991 -0.0147144 0)
(0.604883 -0.0166759 0)
(0.633313 -0.0189329 0)
(0.666005 -0.021494 0)
(0.703638 -0.024377 0)
(0.746887 -0.0276113 0)
(0.796331 -0.0312603 0)
(0.852763 -0.0353625 0)
(0.916727 -0.0400129 0)
(0.989436 -0.0452441 0)
(1.0714 -0.0511743 0)
(1.16425 -0.0577574 0)
(1.26897 -0.0650373 0)
(1.38576 -0.0729037 0)
(1.51932 -0.0810154 0)
(1.661 -0.0891447 0)
(1.82953 -0.09629 0)
(1.99012 -0.100777 0)
(2.19015 -0.102785 0)
(2.35702 -0.0924852 0)
(2.54205 -0.0781689 0)
(2.69762 -0.0316499 0)
(2.7302 0.0444812 0)
(2.77149 0.143562 0)
(2.45407 0.425622 0)
(1.86914 0.641151 0)
(0.979468 1.18341 0)
(-1.84995 1.838 0)
(8.63795e-06 -0.000608338 0)
(0.000955502 -0.00326071 0)
(0.0041958 -0.007241 0)
(0.0121813 -0.011077 0)
(0.0274069 -0.0139517 0)
(0.0508365 -0.0158286 0)
(0.0818474 -0.0167734 0)
(0.118753 -0.0168982 0)
(0.159471 -0.0163987 0)
(0.201984 -0.0154883 0)
(0.244573 -0.0143793 0)
(0.285904 -0.0132653 0)
(0.325089 -0.0122993 0)
(0.361654 -0.0115753 0)
(0.395486 -0.0111232 0)
(0.426703 -0.0109297 0)
(0.455516 -0.0109619 0)
(0.482172 -0.0112108 0)
(0.506916 -0.0116942 0)
(0.530087 -0.0124544 0)
(0.552187 -0.0135401 0)
(0.573923 -0.0149934 0)
(0.596182 -0.0168372 0)
(0.619999 -0.019079 0)
(0.646399 -0.0217145 0)
(0.676403 -0.0247468 0)
(0.7109 -0.0281895 0)
(0.750744 -0.0320667 0)
(0.796618 -0.0364474 0)
(0.849366 -0.0413714 0)
(0.909532 -0.0469514 0)
(0.978221 -0.0532301 0)
(1.05595 -0.0603408 0)
(1.144 -0.0682742 0)
(1.24361 -0.0770213 0)
(1.35422 -0.086604 0)
(1.48132 -0.0964151 0)
(1.61508 -0.106542 0)
(1.77517 -0.115397 0)
(1.92659 -0.121544 0)
(2.11559 -0.124701 0)
(2.27342 -0.113987 0)
(2.44672 -0.0980083 0)
(2.59473 -0.04611 0)
(2.62071 0.0418724 0)
(2.67266 0.159512 0)
(2.34065 0.472978 0)
(1.84798 0.742854 0)
(0.934739 1.36535 0)
(-1.7272 2.172 0)
(-5.15693e-05 -0.000648078 0)
(0.00105923 -0.003418 0)
(0.00446736 -0.00761892 0)
(0.0116207 -0.0118437 0)
(0.0242058 -0.015242 0)
(0.0433861 -0.0176891 0)
(0.0692471 -0.0191753 0)
(0.100991 -0.0197509 0)
(0.137371 -0.0195799 0)
(0.176962 -0.0188697 0)
(0.218366 -0.0178425 0)
(0.260312 -0.0167111 0)
(0.30176 -0.0156531 0)
(0.341938 -0.01479 0)
(0.380377 -0.0141767 0)
(0.416864 -0.013817 0)
(0.451338 -0.0136855 0)
(0.483806 -0.0137759 0)
(0.514261 -0.0141101 0)
(0.542751 -0.0147419 0)
(0.569468 -0.0157406 0)
(0.594842 -0.0171734 0)
(0.619574 -0.0190871 0)
(0.644637 -0.0215069 0)
(0.67113 -0.0244366 0)
(0.70024 -0.027879 0)
(0.733077 -0.0318445 0)
(0.770719 -0.0363481 0)
(0.814036 -0.0414584 0)
(0.86399 -0.0472106 0)
(0.921201 -0.0537258 0)
(0.986701 -0.0610559 0)
(1.06105 -0.0693347 0)
(1.14516 -0.0786023 0)
(1.24051 -0.0887725 0)
(1.34582 -0.100025 0)
(1.467 -0.111468 0)
(1.59374 -0.123503 0)
(1.74514 -0.134009 0)
(1.8885 -0.141684 0)
(2.06475 -0.145966 0)
(2.21554 -0.134773 0)
(2.37367 -0.11716 0)
(2.51686 -0.0599575 0)
(2.53606 0.0387495 0)
(2.5928 0.176232 0)
(2.27671 0.514429 0)
(1.83647 0.854335 0)
(0.977719 1.55429 0)
(-1.48023 2.75935 0)
(-8.7681e-05 -0.000686831 0)
(0.00103335 -0.00359256 0)
(0.0046362 -0.00800665 0)
(0.0117891 -0.0125691 0)
(0.0235133 -0.0163967 0)
(0.0406388 -0.0193218 0)
(0.0633279 -0.0212936 0)
(0.0912244 -0.0223176 0)
(0.123641 -0.0225266 0)
(0.159731 -0.0221125 0)
(0.198579 -0.0212928 0)
(0.239241 -0.0202819 0)
(0.280817 -0.019266 0)
(0.322505 -0.018382 0)
(0.363685 -0.0177041 0)
(0.403953 -0.0172534 0)
(0.443067 -0.017014 0)
(0.480857 -0.0169816 0)
(0.51712 -0.0171771 0)
(0.551628 -0.0176602 0)
(0.584227 -0.0185175 0)
(0.614964 -0.0198439 0)
(0.644198 -0.0217194 0)
(0.672654 -0.0242003 0)
(0.701331 -0.0273128 0)
(0.731448 -0.0310707 0)
(0.764258 -0.0354878 0)
(0.801042 -0.0405719 0)
(0.842878 -0.0463872 0)
(0.890897 -0.05296 0)
(0.945867 -0.0604092 0)
(1.00879 -0.0687931 0)
(1.08033 -0.0782291 0)
(1.1611 -0.0888138 0)
(1.25268 -0.100365 0)
(1.35334 -0.113226 0)
(1.46887 -0.126231 0)
(1.58935 -0.140039 0)
(1.73167 -0.152149 0)
(1.86799 -0.161134 0)
(2.03028 -0.166544 0)
(2.17471 -0.154778 0)
(2.31754 -0.135484 0)
(2.45409 -0.0733678 0)
(2.47178 0.035373 0)
(2.52666 0.191775 0)
(2.24985 0.55445 0)
(1.83791 0.950824 0)
(1.12493 1.73754 0)
(-1.0864 3.07926 0)
(-0.000100979 -0.000723063 0)
(0.000976655 -0.0037774 0)
(0.00466253 -0.00841782 0)
(0.0119944 -0.01331 0)
(0.0236496 -0.0175292 0)
(0.040108 -0.0208709 0)
(0.0613742 -0.0232657 0)
(0.0871044 -0.0246965 0)
(0.116834 -0.025277 0)
(0.150084 -0.0251882 0)
(0.186314 -0.0246406 0)
(0.224941 -0.0238422 0)
(0.265338 -0.0229762 0)
(0.306858 -0.0221832 0)
(0.348924 -0.0215482 0)
(0.391101 -0.0211062 0)
(0.433103 -0.02085 0)
(0.474705 -0.0207752 0)
(0.515623 -0.0208962 0)
(0.555467 -0.0212685 0)
(0.593808 -0.0219868 0)
(0.630331 -0.0231691 0)
(0.664986 -0.024932 0)
(0.698133 -0.027372 0)
(0.730507 -0.030553 0)
(0.763196 -0.0345138 0)
(0.797456 -0.039284 0)
(0.834674 -0.0448717 0)
(0.876096 -0.0513379 0)
(0.923007 -0.0586992 0)
(0.97636 -0.0670627 0)
(1.03718 -0.0764906 0)
(1.10626 -0.0870681 0)
(1.184 -0.0989458 0)
(1.27202 -0.111839 0)
(1.36841 -0.126228 0)
(1.4783 -0.140737 0)
(1.59305 -0.156141 0)
(1.726 -0.16981 0)
(1.85571 -0.179862 0)
(2.00404 -0.186316 0)
(2.14111 -0.174023 0)
(2.27048 -0.152839 0)
(2.39813 -0.086355 0)
(2.4181 0.0315857 0)
(2.4663 0.205372 0)
(2.24961 0.591356 0)
(1.85449 1.03561 0)
(1.24884 1.90698 0)
(-0.53375 3.17888 0)
(-0.000105381 -0.000757534 0)
(0.000929668 -0.00396835 0)
(0.00462757 -0.0088493 0)
(0.0120926 -0.0140844 0)
(0.0238836 -0.018692 0)
(0.0402795 -0.0224265 0)
(0.0611171 -0.0252079 0)
(0.0859474 -0.0270057 0)
(0.114311 -0.0279269 0)
(0.145818 -0.0281529 0)
(0.180141 -0.0278916 0)
(0.216937 -0.0273462 0)
(0.25583 -0.0266928 0)
(0.296374 -0.0260687 0)
(0.338127 -0.0255627 0)
(0.38073 -0.0252198 0)
(0.423954 -0.0250409 0)
(0.46763 -0.0250195 0)
(0.511508 -0.0251582 0)
(0.555171 -0.0254987 0)
(0.59806 -0.026131 0)
(0.639603 -0.0271859 0)
(0.679402 -0.0288114 0)
(0.717434 -0.031148 0)
(0.754093 -0.0343067 0)
(0.790212 -0.0383652 0)
(0.826913 -0.0433825 0)
(0.865561 -0.0493787 0)
(0.907474 -0.0564172 0)
(0.954034 -0.0645089 0)
(1.00635 -0.0737441 0)
(1.0655 -0.0841859 0)
(1.13239 -0.095877 0)
(1.20734 -0.109011 0)
(1.29189 -0.123207 0)
(1.38425 -0.139031 0)
(1.4885 -0.154989 0)
(1.59788 -0.171798 0)
(1.72159 -0.18695 0)
(1.84464 -0.197879 0)
(1.98007 -0.205168 0)
(2.10875 -0.192472 0)
(2.22632 -0.16925 0)
(2.34446 -0.0989297 0)
(2.37085 0.0276434 0)
(2.40569 0.215657 0)
(2.26102 0.623805 0)
(1.90595 1.11341 0)
(1.3566 2.03802 0)
(0.0749968 3.55413 0)
(-0.000108886 -0.000790896 0)
(0.000894898 -0.00416476 0)
(0.00458564 -0.00929733 0)
(0.0121281 -0.014892 0)
(0.0240478 -0.0199006 0)
(0.0405398 -0.0240284 0)
(0.061355 -0.0271848 0)
(0.0859525 -0.0293297 0)
(0.113799 -0.0305686 0)
(0.144494 -0.0310888 0)
(0.17775 -0.0311044 0)
(0.213342 -0.0308183 0)
(0.251036 -0.0304011 0)
(0.290542 -0.0299849 0)
(0.331544 -0.0296597 0)
(0.373791 -0.0294783 0)
(0.417147 -0.0294493 0)
(0.461544 -0.0295643 0)
(0.506837 -0.0298117 0)
(0.552683 -0.0302111 0)
(0.59852 -0.0308367 0)
(0.643661 -0.0318192 0)
(0.687489 -0.0333281 0)
(0.729675 -0.0355443 0)
(0.770292 -0.038629 0)
(0.809879 -0.0427081 0)
(0.849347 -0.0478811 0)
(0.889929 -0.0541925 0)
(0.932918 -0.0617161 0)
(0.979706 -0.0704643 0)
(1.0315 -0.0805102 0)
(1.0894 -0.0919165 0)
(1.1544 -0.104679 0)
(1.22686 -0.119018 0)
(1.30808 -0.134475 0)
(1.39672 -0.151634 0)
(1.49553 -0.168983 0)
(1.59985 -0.187024 0)
(1.71502 -0.203542 0)
(1.83143 -0.215217 0)
(1.95549 -0.223102 0)
(2.07584 -0.210089 0)
(2.18334 -0.184757 0)
(2.29134 -0.111442 0)
(2.32987 0.0238419 0)
(2.35006 0.222546 0)
(2.26516 0.648231 0)
(2.0011 1.18769 0)
(1.47891 2.1418 0)
(0.604451 3.854 0)
(-0.000113195 -0.000823295 0)
(0.00086618 -0.00436735 0)
(0.00455129 -0.00976087 0)
(0.0121489 -0.0157304 0)
(0.0241641 -0.0211563 0)
(0.0407555 -0.025688 0)
(0.0616488 -0.0292234 0)
(0.0862605 -0.0317129 0)
(0.113999 -0.03326 0)
(0.144418 -0.0340615 0)
(0.177217 -0.0343421 0)
(0.21219 -0.0343092 0)
(0.249165 -0.034131 0)
(0.287926 -0.0339357 0)
(0.328243 -0.033814 0)
(0.369939 -0.0338267 0)
(0.412961 -0.0339912 0)
(0.457331 -0.0342989 0)
(0.503017 -0.0347238 0)
(0.549784 -0.0352601 0)
(0.597141 -0.0359574 0)
(0.644403 -0.0369354 0)
(0.690856 -0.0383743 0)
(0.73599 -0.0404876 0)
(0.779642 -0.0434849 0)
(0.822101 -0.0475429 0)
(0.864056 -0.0528088 0)
(0.906561 -0.0593611 0)
(0.950817 -0.0672918 0)
(0.99815 -0.0766222 0)
(1.04979 -0.0874119 0)
(1.10684 -0.0997222 0)
(1.17031 -0.113506 0)
(1.24065 -0.128988 0)
(1.3189 -0.14566 0)
(1.40422 -0.164055 0)
(1.49812 -0.182732 0)
(1.59786 -0.201866 0)
(1.70562 -0.219612 0)
(1.8159 -0.23194 0)
(1.93036 -0.240218 0)
(2.04326 -0.226992 0)
(2.14356 -0.199384 0)
(2.241 -0.124221 0)
(2.29439 0.0194204 0)
(2.31104 0.227627 0)
(2.25843 0.661965 0)
(2.11789 1.25309 0)
(1.66126 2.23104 0)
(1.03726 4.05292 0)
(-0.000117853 -0.000854716 0)
(0.000840162 -0.00457642 0)
(0.00452342 -0.0102407 0)
(0.0121722 -0.0165993 0)
(0.0242682 -0.0224586 0)
(0.0409407 -0.0274072 0)
(0.0619142 -0.0313316 0)
(0.086595 -0.0341721 0)
(0.114362 -0.0360291 0)
(0.144735 -0.0371088 0)
(0.177391 -0.037649 0)
(0.212115 -0.0378642 0)
(0.248745 -0.0379224 0)
(0.287093 -0.0379497 0)
(0.326961 -0.038038 0)
(0.368215 -0.0382575 0)
(0.410845 -0.038636 0)
(0.454934 -0.0391669 0)
(0.500526 -0.0398114 0)
(0.547479 -0.0405378 0)
(0.595391 -0.0413667 0)
(0.643623 -0.0423997 0)
(0.691465 -0.0438189 0)
(0.738329 -0.0458625 0)
(0.783923 -0.0487836 0)
(0.828361 -0.0528088 0)
(0.872161 -0.0581351 0)
(0.916207 -0.0648806 0)
(0.961584 -0.0731612 0)
(1.00952 -0.083013 0)
(1.0612 -0.094487 0)
(1.11771 -0.107642 0)
(1.18003 -0.122396 0)
(1.2487 -0.138958 0)
(1.32448 -0.156801 0)
(1.40705 -0.176344 0)
(1.49687 -0.196284 0)
(1.5927 -0.216409 0)
(1.69448 -0.235254 0)
(1.79964 -0.248177 0)
(1.90666 -0.256673 0)
(2.01334 -0.24344 0)
(2.10981 -0.213358 0)
(2.19885 -0.137293 0)
(2.26449 0.0130633 0)
(2.2939 0.231572 0)
(2.25761 0.666281 0)
(2.22784 1.30155 0)
(1.90559 2.3052 0)
(1.46376 4.18815 0)
(-0.000122399 -0.000885207 0)
(0.000816252 -0.00479174 0)
(0.00449958 -0.0107381 0)
(0.0121995 -0.0174995 0)
(0.024374 -0.0238081 0)
(0.0411192 -0.0291871 0)
(0.0621624 -0.0335115 0)
(0.0869117 -0.0367127 0)
(0.114732 -0.0388863 0)
(0.145128 -0.0402478 0)
(0.177761 -0.0410485 0)
(0.212407 -0.0415113 0)
(0.2489 -0.0418054 0)
(0.287053 -0.0420552 0)
(0.326682 -0.0423554 0)
(0.367663 -0.0427856 0)
(0.410006 -0.0433861 0)
(0.453819 -0.0441539 0)
(0.499184 -0.0450392 0)
(0.546016 -0.0459852 0)
(0.593972 -0.0469824 0)
(0.642478 -0.0481109 0)
(0.690851 -0.0495499 0)
(0.738502 -0.0515562 0)
(0.785089 -0.0544214 0)
(0.830638 -0.0584196 0)
(0.875558 -0.0637968 0)
(0.920611 -0.0707128 0)
(0.966778 -0.0793099 0)
(1.01518 -0.0896428 0)
(1.06696 -0.101758 0)
(1.12314 -0.115711 0)
(1.18464 -0.131394 0)
(1.25209 -0.148982 0)
(1.32598 -0.167956 0)
(1.40643 -0.188582 0)
(1.49314 -0.209726 0)
(1.58594 -0.230777 0)
(1.68329 -0.250617 0)
(1.78462 -0.264127 0)
(1.88658 -0.272695 0)
(1.98875 -0.259724 0)
(2.08399 -0.227185 0)
(2.16971 -0.150639 0)
(2.2433 0.00392451 0)
(2.29537 0.233238 0)
(2.28234 0.663598 0)
(2.32093 1.32942 0)
(2.18908 2.36466 0)
(1.95429 4.2821 0)
(-0.000126676 -0.000914793 0)
(0.000794642 -0.00501328 0)
(0.00447886 -0.0112542 0)
(0.0122291 -0.0184321 0)
(0.0244829 -0.025206 0)
(0.0412998 -0.0310293 0)
(0.0624074 -0.0357649 0)
(0.0872188 -0.0393369 0)
(0.115091 -0.0418356 0)
(0.14552 -0.0434852 0)
(0.178162 -0.044551 0)
(0.212789 -0.0452647 0)
(0.249228 -0.0457973 0)
(0.287294 -0.0462716 0)
(0.3268 -0.0467856 0)
(0.36763 -0.0474293 0)
(0.409797 -0.0482557 0)
(0.453415 -0.0492665 0)
(0.498576 -0.0504021 0)
(0.545214 -0.0515812 0)
(0.593019 -0.0527649 0)
(0.641455 -0.0540108 0)
(0.689878 -0.0554931 0)
(0.737721 -0.0574846 0)
(0.784645 -0.0603123 0)
(0.830644 -0.0642954 0)
(0.87608 -0.0697266 0)
(0.921636 -0.076808 0)
(0.968229 -0.0857085 0)
(1.0169 -0.0965026 0)
(1.06872 -0.109236 0)
(1.12468 -0.123958 0)
(1.18561 -0.140544 0)
(1.25223 -0.159121 0)
(1.3248 -0.179198 0)
(1.40376 -0.200868 0)
(1.48831 -0.223172 0)
(1.57899 -0.245122 0)
(1.67344 -0.265885 0)
(1.77225 -0.280027 0)
(1.87141 -0.288591 0)
(1.97125 -0.276112 0)
(2.0669 -0.241503 0)
(2.1551 -0.164499 0)
(2.23449 -0.00816109 0)
(2.31202 0.230442 0)
(2.33508 0.656141 0)
(2.41676 1.33671 0)
(2.47704 2.3968 0)
(2.43592 4.30276 0)
(-0.000130663 -0.00094349 0)
(0.000775494 -0.00524129 0)
(0.00446118 -0.0117898 0)
(0.01226 -0.0193982 0)
(0.0245934 -0.0266539 0)
(0.0414826 -0.0329359 0)
(0.0626531 -0.0380938 0)
(0.0875233 -0.042047 0)
(0.115444 -0.0448797 0)
(0.145904 -0.0468245 0)
(0.178558 -0.0481613 0)
(0.213179 -0.0491313 0)
(0.24959 -0.0499066 0)
(0.287605 -0.0506094 0)
(0.327038 -0.0513408 0)
(0.367776 -0.0522017 0)
(0.409834 -0.0532581 0)
(0.453323 -0.0545163 0)
(0.498332 -0.055907 0)
(0.544792 -0.0573248 0)
(0.5924 -0.0587018 0)
(0.640639 -0.0600736 0)
(0.688891 -0.0616094 0)
(0.736616 -0.0635977 0)
(0.783495 -0.0663995 0)
(0.829526 -0.0703782 0)
(0.875061 -0.0758713 0)
(0.920748 -0.0831225 0)
(0.967467 -0.0923271 0)
(1.01621 -0.103579 0)
(1.06798 -0.116924 0)
(1.12377 -0.132403 0)
(1.18431 -0.149884 0)
(1.25038 -0.169434 0)
(1.32208 -0.190601 0)
(1.40008 -0.2133 0)
(1.48329 -0.236743 0)
(1.57269 -0.259602 0)
(1.66549 -0.281249 0)
(1.76306 -0.296118 0)
(1.86128 -0.304696 0)
(1.96088 -0.292869 0)
(2.05827 -0.256853 0)
(2.15298 -0.17938 0)
(2.23995 -0.0232397 0)
(2.34171 0.221804 0)
(2.40811 0.643393 0)
(2.53581 1.32495 0)
(2.73906 2.39517 0)
(2.96002 4.28119 0)
(-0.000134357 -0.000971347 0)
(0.000758843 -0.005476 0)
(0.00444655 -0.0123459 0)
(0.0122917 -0.0203987 0)
(0.0247045 -0.0281531 0)
(0.0416663 -0.0349092 0)
(0.0628986 -0.040501 0)
(0.0878257 -0.0448454 0)
(0.115792 -0.0480213 0)
(0.14628 -0.0502688 0)
(0.178945 -0.051883 0)
(0.213561 -0.053115 0)
(0.249949 -0.0541384 0)
(0.287921 -0.0550744 0)
(0.327295 -0.0560279 0)
(0.367961 -0.0571109 0)
(0.409937 -0.0584024 0)
(0.453332 -0.059913 0)
(0.498224 -0.0615627 0)
(0.544532 -0.0632219 0)
(0.591948 -0.0647936 0)
(0.639955 -0.0662923 0)
(0.687953 -0.0678833 0)
(0.735422 -0.0698716 0)
(0.78207 -0.0726526 0)
(0.827908 -0.0766338 0)
(0.873301 -0.082197 0)
(0.918885 -0.0896266 0)
(0.965527 -0.0991436 0)
(1.01418 -0.11086 0)
(1.06584 -0.124824 0)
(1.12145 -0.141065 0)
(1.18171 -0.159444 0)
(1.2474 -0.17997 0)
(1.31859 -0.20223 0)
(1.39598 -0.225971 0)
(1.47851 -0.250547 0)
(1.56719 -0.274362 0)
(1.65944 -0.296893 0)
(1.75669 -0.312609 0)
(1.85532 -0.321324 0)
(1.95664 -0.310304 0)
(2.05737 -0.27362 0)
(2.16066 -0.19595 0)
(2.25886 -0.0414675 0)
(2.38258 0.206935 0)
(2.49457 0.622713 0)
(2.67822 1.29906 0)
(2.99395 2.35749 0)
(3.46435 4.0237 0)
(-0.000137747 -0.000998443 0)
(0.000744674 -0.00571762 0)
(0.00443495 -0.0129233 0)
(0.012324 -0.0214349 0)
(0.0248151 -0.0297051 0)
(0.0418494 -0.0369516 0)
(0.063142 -0.0429889 0)
(0.0881241 -0.0477349 0)
(0.116134 -0.051263 0)
(0.146648 -0.053821 0)
(0.179323 -0.0557192 0)
(0.213931 -0.0572193 0)
(0.250295 -0.0584964 0)
(0.288225 -0.0596706 0)
(0.327541 -0.0608514 0)
(0.368139 -0.062162 0)
(0.41004 -0.0636947 0)
(0.453351 -0.0654634 0)
(0.498141 -0.0673764 0)
(0.544312 -0.0692788 0)
(0.591544 -0.0710445 0)
(0.639315 -0.0726677 0)
(0.687031 -0.074311 0)
(0.734191 -0.0762977 0)
(0.780525 -0.0790584 0)
(0.826064 -0.0830459 0)
(0.87119 -0.088686 0)
(0.916543 -0.0963037 0)
(0.962988 -0.106145 0)
(1.01146 -0.118339 0)
(1.06295 -0.132937 0)
(1.11836 -0.149953 0)
(1.17839 -0.169249 0)
(1.24381 -0.190768 0)
(1.31468 -0.214136 0)
(1.39172 -0.238952 0)
(1.47395 -0.264676 0)
(1.56238 -0.289516 0)
(1.6547 -0.312976 0)
(1.75243 -0.329668 0)
(1.85238 -0.338727 0)
(1.95661 -0.328722 0)
(2.06194 -0.292115 0)
(2.17488 -0.214825 0)
(2.28705 -0.06313 0)
(2.43334 0.185328 0)
(2.58864 0.593058 0)
(2.83597 1.25812 0)
(3.21358 2.28372 0)
(3.9374 3.85142 0)
(-0.000140827 -0.00102487 0)
(0.000732942 -0.00596635 0)
(0.00442631 -0.0135229 0)
(0.0123565 -0.022508 0)
(0.0249245 -0.0313112 0)
(0.0420307 -0.0390653 0)
(0.0633814 -0.0455603 0)
(0.088416 -0.0507181 0)
(0.116467 -0.054608 0)
(0.147006 -0.0574843 0)
(0.179688 -0.0596734 0)
(0.214287 -0.0614477 0)
(0.250625 -0.0629841 0)
(0.288512 -0.0644019 0)
(0.327768 -0.0658152 0)
(0.368296 -0.0673594 0)
(0.410121 -0.0691395 0)
(0.453349 -0.0711724 0)
(0.498038 -0.0733531 0)
(0.544076 -0.0755006 0)
(0.591126 -0.077459 0)
(0.638658 -0.0792028 0)
(0.686083 -0.0808934 0)
(0.732911 -0.0828741 0)
(0.778895 -0.0856126 0)
(0.824087 -0.0896079 0)
(0.868888 -0.0953307 0)
(0.913943 -0.103146 0)
(0.960125 -0.113326 0)
(1.00836 -0.126014 0)
(1.05963 -0.141265 0)
(1.11482 -0.159078 0)
(1.17464 -0.179314 0)
(1.23984 -0.201853 0)
(1.3105 -0.226355 0)
(1.38733 -0.252292 0)
(1.46949 -0.279195 0)
(1.55793 -0.305151 0)
(1.65073 -0.329611 0)
(1.74941 -0.347435 0)
(1.8513 -0.357098 0)
(1.9592 -0.348358 0)
(2.07013 -0.312561 0)
(2.19334 -0.236399 0)
(2.32095 -0.0887495 0)
(2.4912 0.156883 0)
(2.68732 0.553231 0)
(3.00038 1.20005 0)
(3.47049 2.18701 0)
(4.37014 3.81619 0)
(-0.000143592 -0.00105073 0)
(0.000723582 -0.00622238 0)
(0.00442054 -0.0141456 0)
(0.012389 -0.0236192 0)
(0.0250317 -0.0329726 0)
(0.0422087 -0.0412524 0)
(0.0636153 -0.048218 0)
(0.0886992 -0.0537978 0)
(0.11679 -0.058059 0)
(0.147351 -0.0612619 0)
(0.180037 -0.0637489 0)
(0.214625 -0.0658037 0)
(0.250935 -0.0676051 0)
(0.288775 -0.0692718 0)
(0.327968 -0.0709231 0)
(0.368424 -0.0727068 0)
(0.410171 -0.0747411 0)
(0.453314 -0.0770444 0)
(0.497899 -0.0794975 0)
(0.543801 -0.0818916 0)
(0.590664 -0.0840408 0)
(0.637952 -0.0859005 0)
(0.685077 -0.0876323 0)
(0.731562 -0.0896014 0)
(0.777177 -0.0923145 0)
(0.821998 -0.0963183 0)
(0.866441 -0.102129 0)
(0.911165 -0.110152 0)
(0.957046 -0.120683 0)
(1.00501 -0.133884 0)
(1.05603 -0.14981 0)
(1.11099 -0.168445 0)
(1.17059 -0.189648 0)
(1.23556 -0.213243 0)
(1.30606 -0.238912 0)
(1.38274 -0.266025 0)
(1.46495 -0.294152 0)
(1.55354 -0.321323 0)
(1.64705 -0.346885 0)
(1.74694 -0.36601 0)
(1.85114 -0.37658 0)
(1.9631 -0.369408 0)
(2.08029 -0.335158 0)
(2.21412 -0.261024 0)
(2.35795 -0.118702 0)
(2.55288 0.121169 0)
(2.78873 0.502711 0)
(3.16532 1.12476 0)
(3.72809 2.06159 0)
(4.77176 3.56932 0)
(-0.000146048 -0.00107616 0)
(0.000716494 -0.00648594 0)
(0.00441752 -0.0147923 0)
(0.012421 -0.0247697 0)
(0.0251357 -0.0346909 0)
(0.0423823 -0.0435149 0)
(0.0638418 -0.0509645 0)
(0.0889712 -0.0569769 0)
(0.117098 -0.0616191 0)
(0.147678 -0.065157 0)
(0.180366 -0.0679491 0)
(0.21494 -0.0702908 0)
(0.251219 -0.0723631 0)
(0.289009 -0.074284 0)
(0.328138 -0.0761787 0)
(0.368517 -0.0782082 0)
(0.410183 -0.0805032 0)
(0.453236 -0.0830834 0)
(0.497714 -0.0858134 0)
(0.543473 -0.0884556 0)
(0.590144 -0.0907934 0)
(0.637181 -0.0927635 0)
(0.683997 -0.0945297 0)
(0.730127 -0.0964809 0)
(0.775361 -0.0991645 0)
(0.819793 -0.103177 0)
(0.863859 -0.109079 0)
(0.908228 -0.11732 0)
(0.953782 -0.128218 0)
(1.00145 -0.14195 0)
(1.05219 -0.158574 0)
(1.10689 -0.178059 0)
(1.16627 -0.200259 0)
(1.23101 -0.224948 0)
(1.30135 -0.251821 0)
(1.37789 -0.280172 0)
(1.4602 -0.309579 0)
(1.54902 -0.338071 0)
(1.64332 -0.36486 0)
(1.74455 -0.385467 0)
(1.85127 -0.397273 0)
(1.96746 -0.392026 0)
(2.09128 -0.360074 0)
(2.23584 -0.288964 0)
(2.39621 -0.153334 0)
(2.6158 0.0778013 0)
(2.89062 0.441109 0)
(3.32679 1.03056 0)
(3.97791 1.90524 0)
(5.14439 3.27269 0)
(-0.000148203 -0.00110128 0)
(0.000711555 -0.00675723 0)
(0.00441712 -0.015464 0)
(0.0124525 -0.0259608 0)
(0.0252357 -0.0364677 0)
(0.0425499 -0.0458548 0)
(0.0640593 -0.0538027 0)
(0.0892297 -0.0602582 0)
(0.117389 -0.0652912 0)
(0.147985 -0.0691729 0)
(0.180671 -0.0722774 0)
(0.215228 -0.0749127 0)
(0.251472 -0.0772617 0)
(0.28921 -0.0794422 0)
(0.32827 -0.0815861 0)
(0.368571 -0.0838674 0)
(0.410151 -0.0864301 0)
(0.453109 -0.0892935 0)
(0.497474 -0.0923049 0)
(0.543084 -0.0951962 0)
(0.589555 -0.0977198 0)
(0.636333 -0.0997946 0)
(0.68283 -0.101587 0)
(0.728594 -0.103514 0)
(0.773434 -0.106163 0)
(0.817464 -0.110183 0)
(0.861135 -0.116183 0)
(0.905131 -0.12465 0)
(0.950337 -0.13593 0)
(0.99768 -0.150213 0)
(1.04813 -0.167559 0)
(1.10255 -0.187923 0)
(1.16167 -0.211152 0)
(1.22617 -0.236977 0)
(1.29634 -0.265094 0)
(1.37274 -0.294747 0)
(1.45514 -0.325498 0)
(1.54421 -0.355422 0)
(1.63933 -0.383579 0)
(1.74197 -0.405863 0)
(1.85129 -0.419255 0)
(1.97174 -0.416332 0)
(2.10236 -0.387435 0)
(2.25754 -0.32045 0)
(2.43449 -0.192908 0)
(2.6781 0.0264659 0)
(2.99066 0.367901 0)
(3.4821 0.917427 0)
(4.21333 1.71958 0)
(5.48409 2.93345 0)
(-0.000150071 -0.00112625 0)
(0.000708599 -0.00703646 0)
(0.00441917 -0.0161615 0)
(0.012483 -0.0271937 0)
(0.0253308 -0.0383042 0)
(0.0427104 -0.0482739 0)
(0.0642661 -0.0567353 0)
(0.0894726 -0.0636447 0)
(0.117659 -0.0690782 0)
(0.148268 -0.0733127 0)
(0.180949 -0.0767374 0)
(0.215484 -0.0796728 0)
(0.25169 -0.0823045 0)
(0.289372 -0.0847503 0)
(0.32836 -0.0871489 0)
(0.368577 -0.0896885 0)
(0.410067 -0.0925257 0)
(0.452925 -0.0956788 0)
(0.49717 -0.0989757 0)
(0.542625 -0.102117 0)
(0.588888 -0.104823 0)
(0.635396 -0.106996 0)
(0.681566 -0.108807 0)
(0.726954 -0.110701 0)
(0.771388 -0.113312 0)
(0.815002 -0.117339 0)
(0.858263 -0.123439 0)
(0.901868 -0.132142 0)
(0.946706 -0.143819 0)
(0.993705 -0.158673 0)
(1.04384 -0.176766 0)
(1.09794 -0.198038 0)
(1.15679 -0.22233 0)
(1.22101 -0.249332 0)
(1.291 -0.278739 0)
(1.36724 -0.309761 0)
(1.44972 -0.341927 0)
(1.53903 -0.373397 0)
(1.63495 -0.403078 0)
(1.739 -0.427245 0)
(1.85095 -0.442589 0)
(1.97561 -0.442429 0)
(2.11304 -0.41735 0)
(2.27855 -0.355663 0)
(2.47184 -0.237662 0)
(2.73844 -0.0330509 0)
(3.08678 0.282808 0)
(3.62866 0.785522 0)
(4.42969 1.50591 0)