/*--------------------------------*- C++ -*----------------------------------*\
  =========                 |
  \\      /  F ield         | OpenFOAM: The Open Source CFD Toolbox
   \\    /   O peration     | Website:  https://openfoam.org
    \\  /    A nd           | Version:  7
     \\/     M anipulation  |
\*---------------------------------------------------------------------------*/
FoamFile
{
    version     2.0;
    format      ascii;
    class       surfaceScalarField;
    location    "0.46";
    object      ddtCorrDdt0(phi);
}
// * * * * * * * * * * * * * * * * * * * * * * * * * * * * * * * * * * * * * //

dimensions      [0 3 -2 0 0 0 0];

internalField   nonuniform List<scalar> 
139350
(
4.09874e-10
-4.09514e-10
1.30273e-09
-8.91855e-10
2.53048e-09
-1.22684e-09
3.85779e-09
-1.3264e-09
5.18748e-09
-1.32887e-09
6.48453e-09
-1.29628e-09
7.72086e-09
-1.2356e-09
8.88778e-09
-1.1661e-09
9.98843e-09
-1.09992e-09
1.10294e-08
-1.04003e-09
1.2022e-08
-9.9189e-10
1.29848e-08
-9.62e-10
1.39392e-08
-9.5369e-10
1.49082e-08
-9.68413e-10
1.59134e-08
-1.00451e-09
1.6973e-08
-1.059e-09
1.80999e-08
-1.12628e-09
1.93042e-08
-1.20361e-09
2.05954e-08
-1.29057e-09
2.1983e-08
-1.38688e-09
2.34782e-08
-1.49452e-09
2.50946e-08
-1.61577e-09
2.68464e-08
-1.75125e-09
2.875e-08
-1.90274e-09
3.08208e-08
-2.07036e-09
3.30767e-08
-2.25447e-09
3.55322e-08
-2.45509e-09
3.82048e-08
-2.67095e-09
4.11077e-08
-2.9021e-09
4.42553e-08
-3.14619e-09
4.76537e-08
-3.3976e-09
5.13093e-08
-3.6539e-09
5.52137e-08
-3.90402e-09
5.93376e-08
-4.12116e-09
6.36515e-08
-4.31369e-09
6.80154e-08
-4.36085e-09
7.23996e-08
-4.38356e-09
7.63532e-08
-3.95154e-09
7.99043e-08
-3.55003e-09
8.19609e-08
-2.05537e-09
8.2442e-08
-4.79995e-10
7.96301e-08
2.81383e-09
7.18346e-08
7.79623e-09
5.80635e-08
1.37747e-08
3.14412e-08
2.66233e-08
-7.78318e-09
3.92287e-08
-7.31356e-08
6.53546e-08
-1.68649e-07
9.55173e-08
-2.88977e-07
1.20327e-07
2.97871e-07
-5.86847e-07
6.02448e-10
-1.01153e-09
2.65265e-09
-2.94097e-09
5.90192e-09
-4.47511e-09
9.56026e-09
-4.98378e-09
1.3217e-08
-4.98473e-09
1.67651e-08
-4.8435e-09
2.01263e-08
-4.59607e-09
2.32525e-08
-4.29137e-09
2.61377e-08
-3.98427e-09
2.88003e-08
-3.70169e-09
3.12804e-08
-3.47117e-09
3.36376e-08
-3.31832e-09
3.59404e-08
-3.25573e-09
3.82571e-08
-3.28447e-09
4.06479e-08
-3.39459e-09
4.31615e-08
-3.572e-09
4.58337e-08
-3.79768e-09
4.86947e-08
-4.06397e-09
5.17747e-08
-4.36979e-09
5.51056e-08
-4.71702e-09
5.87229e-08
-5.11114e-09
6.2667e-08
-5.55918e-09
6.69799e-08
-6.06352e-09
7.17069e-08
-6.62879e-09
7.6893e-08
-7.25602e-09
8.25901e-08
-7.95002e-09
8.88488e-08
-8.71334e-09
9.57294e-08
-9.54977e-09
1.03294e-07
-1.0466e-08
1.11612e-07
-1.14621e-08
1.20751e-07
-1.25363e-08
1.30786e-07
-1.3687e-08
1.41786e-07
-1.49038e-08
1.53791e-07
-1.61233e-08
1.66847e-07
-1.73688e-08
1.80868e-07
-1.83786e-08
1.95844e-07
-1.93594e-08
2.11324e-07
-1.94293e-08
2.27192e-07
-1.94168e-08
2.4211e-07
-1.69722e-08
2.55674e-07
-1.40427e-08
2.64785e-07
-6.2946e-09
2.67917e-07
4.66511e-09
2.5901e-07
2.26854e-08
2.31841e-07
5.37932e-08
1.79565e-07
9.15093e-08
6.99773e-08
1.74945e-07
-7.21694e-08
2.37668e-07
-3.43091e-07
3.91249e-07
5.69428e-07
-6.14646e-07
3.83269e-10
-1.3943e-09
2.57564e-09
-5.13219e-09
6.77253e-09
-8.67095e-09
1.20553e-08
-1.02656e-08
1.75756e-08
-1.05041e-08
2.29799e-08
-1.02469e-08
2.80995e-08
-9.71483e-09
3.2827e-08
-9.01788e-09
3.71203e-08
-8.27671e-09
4.09909e-08
-7.57127e-09
4.44947e-08
-6.97412e-09
4.77241e-08
-6.54673e-09
5.07893e-08
-6.32019e-09
5.38007e-08
-6.29521e-09
5.68544e-08
-6.44751e-09
6.00273e-08
-6.74425e-09
6.33782e-08
-7.14775e-09
6.69579e-08
-7.64293e-09
7.08174e-08
-8.22856e-09
7.50113e-08
-8.91014e-09
7.95979e-08
-9.69694e-09
8.46396e-08
-1.06001e-08
9.01994e-08
-1.16227e-08
9.63424e-08
-1.27707e-08
1.03132e-07
-1.40456e-08
1.10642e-07
-1.54579e-08
1.18945e-07
-1.70163e-08
1.28132e-07
-1.87344e-08
1.38301e-07
-2.06339e-08
1.49563e-07
-2.27228e-08
1.62045e-07
-2.50175e-08
1.75879e-07
-2.75189e-08
1.91218e-07
-3.0242e-08
2.08181e-07
-3.30839e-08
2.26912e-07
-3.60991e-08
2.47452e-07
-3.89157e-08
2.69839e-07
-4.17454e-08
2.93874e-07
-4.3462e-08
3.19289e-07
-4.483e-08
3.45163e-07
-4.28454e-08
3.70759e-07
-3.96378e-08
3.92805e-07
-2.83383e-08
4.10543e-07
-1.3072e-08
4.14314e-07
1.89192e-08
4.01088e-07
6.70206e-08
3.60149e-07
1.32453e-07
2.44531e-07
2.90565e-07
1.0727e-07
3.74932e-07
-2.06143e-07
7.04662e-07
9.12521e-07
-5.49235e-07
1.27834e-10
-1.52159e-09
1.7753e-09
-6.77845e-09
5.72183e-09
-1.26164e-08
1.14983e-08
-1.60409e-08
1.81272e-08
-1.7132e-08
2.49247e-08
-1.70434e-08
3.14991e-08
-1.62884e-08
3.7616e-08
-1.51337e-08
4.31543e-08
-1.38142e-08
4.80825e-08
-1.24983e-08
5.24411e-08
-1.13319e-08
5.63297e-08
-1.04343e-08
5.98818e-08
-9.87151e-09
6.32388e-08
-9.65141e-09
6.65273e-08
-9.73526e-09
6.9851e-08
-1.00672e-08
7.32917e-08
-1.05877e-08
7.6922e-08
-1.12724e-08
8.08146e-08
-1.21204e-08
8.50477e-08
-1.31424e-08
8.97032e-08
-1.43517e-08
9.48656e-08
-1.57617e-08
1.00617e-07
-1.73734e-08
1.07037e-07
-1.91898e-08
1.14202e-07
-2.121e-08
1.22194e-07
-2.34479e-08
1.31097e-07
-2.59189e-08
1.41012e-07
-2.8648e-08
1.52057e-07
-3.16779e-08
1.64364e-07
-3.50277e-08
1.78091e-07
-3.87437e-08
1.93405e-07
-4.28306e-08
2.10509e-07
-4.73458e-08
2.29583e-07
-5.21546e-08
2.50826e-07
-5.73414e-08
2.74395e-07
-6.24813e-08
3.00344e-07
-6.76934e-08
3.28715e-07
-7.18308e-08
3.59145e-07
-7.5259e-08
3.9108e-07
-7.47789e-08
4.23723e-07
-7.22797e-08
4.5374e-07
-5.83523e-08
4.81088e-07
-4.04197e-08
4.95003e-07
5.00876e-09
4.91888e-07
7.01371e-08
4.65186e-07
1.5916e-07
3.56479e-07
3.99275e-07
2.21013e-07
5.10402e-07
-6.86704e-08
9.94344e-07
1.34759e-06
-5.03743e-07
1.7599e-11
-1.53861e-09
9.99917e-10
-7.75951e-09
3.99482e-09
-1.56101e-08
9.17053e-09
-2.12155e-08
1.58678e-08
-2.38283e-08
2.33115e-08
-2.44861e-08
3.08924e-08
-2.38684e-08
3.81807e-08
-2.2421e-08
4.49103e-08
-2.05429e-08
5.09503e-08
-1.85371e-08
5.62774e-08
-1.6658e-08
6.09544e-08
-1.51103e-08
6.51021e-08
-1.40184e-08
6.88673e-08
-1.34158e-08
7.23922e-08
-1.32594e-08
7.5799e-08
-1.34733e-08
7.91886e-08
-1.39765e-08
8.26524e-08
-1.47354e-08
8.62836e-08
-1.57507e-08
9.01839e-08
-1.70418e-08
9.4462e-08
-1.86289e-08
9.92286e-08
-2.05275e-08
1.0459e-07
-2.27346e-08
1.10647e-07
-2.52453e-08
1.17488e-07
-2.80507e-08
1.25205e-07
-3.11625e-08
1.33886e-07
-3.45996e-08
1.43636e-07
-3.83955e-08
1.54574e-07
-4.26152e-08
1.66838e-07
-4.72896e-08
1.80597e-07
-5.25019e-08
1.9603e-07
-5.82613e-08
2.13358e-07
-6.4674e-08
2.32798e-07
-7.15904e-08
2.54558e-07
-7.91019e-08
2.78886e-07
-8.68049e-08
3.05804e-07
-9.46105e-08
3.35535e-07
-1.0156e-07
3.67634e-07
-1.07357e-07
4.0177e-07
-1.08914e-07
4.3716e-07
-1.07669e-07
4.70534e-07
-9.17233e-08
5.01788e-07
-7.16728e-08
5.21374e-07
-1.45727e-08
5.22235e-07
6.92771e-08
5.02804e-07
1.78596e-07
4.06738e-07
4.95343e-07
2.58331e-07
6.58814e-07
-1.01178e-09
1.25369e-06
1.82028e-06
-4.73693e-07
2.85416e-11
-1.56654e-09
5.81297e-10
-8.31096e-09
2.57715e-09
-1.76048e-08
6.60104e-09
-2.52383e-08
1.24881e-08
-2.97143e-08
1.96773e-08
-3.16743e-08
2.75436e-08
-3.17337e-08
3.55332e-08
-3.04095e-08
4.32297e-08
-2.82384e-08
5.0366e-08
-2.56723e-08
5.68068e-08
-2.30979e-08
6.25277e-08
-2.08302e-08
6.75882e-08
-1.90781e-08
7.20995e-08
-1.79262e-08
7.61892e-08
-1.73483e-08
7.99779e-08
-1.72613e-08
8.35712e-08
-1.7569e-08
8.7068e-08
-1.82313e-08
9.05716e-08
-1.92534e-08
9.42002e-08
-2.06695e-08
9.8086e-08
-2.25139e-08
1.02369e-07
-2.48098e-08
1.07188e-07
-2.75532e-08
1.12674e-07
-3.07296e-08
1.18941e-07
-3.43171e-08
1.26097e-07
-3.83171e-08
1.34244e-07
-4.27455e-08
1.43486e-07
-4.76363e-08
1.53946e-07
-5.30739e-08
1.65756e-07
-5.90972e-08
1.79082e-07
-6.58275e-08
1.94104e-07
-7.32809e-08
2.11037e-07
-8.16066e-08
2.30116e-07
-9.06658e-08
2.51532e-07
-1.00518e-07
2.75592e-07
-1.10861e-07
3.02267e-07
-1.21285e-07
3.31896e-07
-1.31186e-07
3.63966e-07
-1.39425e-07
3.98265e-07
-1.43212e-07
4.33971e-07
-1.43373e-07
4.68115e-07
-1.25864e-07
4.99777e-07
-1.03334e-07
5.21608e-07
-3.63991e-08
5.23651e-07
6.72353e-08
5.03577e-07
1.98675e-07
4.22105e-07
5.76818e-07
2.60853e-07
8.20069e-07
4.83054e-09
1.50971e-06
2.28434e-06
-4.59235e-07
7.35454e-11
-1.63946e-09
4.73279e-10
-8.70937e-09
1.81246e-09
-1.89428e-08
4.75225e-09
-2.81769e-08
9.48879e-09
-3.44498e-08
1.57898e-08
-3.79743e-08
2.32098e-08
-3.91528e-08
3.12357e-08
-3.84344e-08
3.93997e-08
-3.64013e-08
4.73381e-08
-3.36095e-08
5.48042e-08
-3.05631e-08
6.16634e-08
-2.76883e-08
6.7877e-08
-2.52908e-08
7.34797e-08
-2.35282e-08
7.85477e-08
-2.24154e-08
8.31701e-08
-2.18829e-08
8.74332e-08
-2.18312e-08
9.14216e-08
-2.22188e-08
9.5228e-08
-2.30589e-08
9.89664e-08
-2.44071e-08
1.02776e-07
-2.63231e-08
1.06819e-07
-2.88513e-08
1.11264e-07
-3.19977e-08
1.16281e-07
-3.57449e-08
1.22023e-07
-4.00584e-08
1.28631e-07
-4.49237e-08
1.36232e-07
-5.03454e-08
1.44945e-07
-5.63475e-08
1.54897e-07
-6.30248e-08
1.66218e-07
-7.0417e-08
1.79069e-07
-7.86771e-08
1.93621e-07
-8.78305e-08
2.1007e-07
-9.80548e-08
2.28658e-07
-1.09251e-07
2.49541e-07
-1.214e-07
2.73063e-07
-1.3438e-07
2.9914e-07
-1.47361e-07
3.28171e-07
-1.60215e-07
3.59603e-07
-1.70855e-07
3.93278e-07
-1.76885e-07
4.28306e-07
-1.784e-07
4.6208e-07
-1.59636e-07
4.929e-07
-1.34153e-07
5.14818e-07
-5.83125e-08
5.17861e-07
6.41942e-08
4.94529e-07
2.22012e-07
4.23627e-07
6.47723e-07
2.60042e-07
9.83657e-07
-7.79913e-09
1.77755e-06
2.74457e-06
-4.68026e-07
1.02025e-10
-1.74084e-09
5.09612e-10
-9.11559e-09
1.57301e-09
-2.0005e-08
3.82379e-09
-3.04265e-08
7.58572e-09
-3.82107e-08
1.28615e-08
-4.3249e-08
1.94346e-08
-4.57249e-08
2.69491e-08
-4.59478e-08
3.50077e-08
-4.44589e-08
4.32467e-08
-4.18472e-08
5.13698e-08
-3.86852e-08
5.91621e-08
-3.54795e-08
6.64913e-08
-3.26191e-08
7.33014e-08
-3.03375e-08
7.95937e-08
-2.87069e-08
8.54013e-08
-2.76897e-08
9.07682e-08
-2.71972e-08
9.5742e-08
-2.71916e-08
1.00379e-07
-2.7695e-08
1.0476e-07
-2.87871e-08
1.09002e-07
-3.05642e-08
1.1326e-07
-3.31085e-08
1.17719e-07
-3.64565e-08
1.22581e-07
-4.06054e-08
1.28042e-07
-4.55191e-08
1.3429e-07
-5.11692e-08
1.4149e-07
-5.75454e-08
1.49796e-07
-6.4651e-08
1.59352e-07
-7.25792e-08
1.70297e-07
-8.13602e-08
1.82785e-07
-9.11645e-08
1.96984e-07
-1.02027e-07
2.13063e-07
-1.14133e-07
2.31263e-07
-1.27447e-07
2.51694e-07
-1.4183e-07
2.74714e-07
-1.57397e-07
3.00196e-07
-1.72842e-07
3.28541e-07
-1.88557e-07
3.5921e-07
-2.01523e-07
3.92e-07
-2.09673e-07
4.26085e-07
-2.12484e-07
4.58967e-07
-1.92515e-07
4.88787e-07
-1.63972e-07
5.0989e-07
-7.94107e-08
5.13836e-07
6.02489e-08
4.88837e-07
2.47016e-07
4.23264e-07
7.13298e-07
2.66625e-07
1.1403e-06
-8.43577e-09
2.05261e-06
3.21486e-06
-4.78725e-07
1.08533e-10
-1.84871e-09
5.63393e-10
-9.56906e-09
1.59045e-09
-2.10308e-08
3.56292e-09
-3.23978e-08
6.75297e-09
-4.13996e-08
1.12527e-08
-4.77477e-08
1.69988e-08
-5.147e-08
2.37968e-08
-5.27446e-08
3.13797e-08
-5.20408e-08
3.94633e-08
-4.99296e-08
4.77803e-08
-4.70012e-08
5.61002e-08
-4.37983e-08
6.42418e-08
-4.07597e-08
7.2082e-08
-3.81769e-08
7.95535e-08
-3.61775e-08
8.66303e-08
-3.47658e-08
9.33069e-08
-3.38728e-08
9.95828e-08
-3.34666e-08
1.05462e-07
-3.35736e-08
1.10969e-07
-3.42924e-08
1.16164e-07
-3.57585e-08
1.21161e-07
-3.81053e-08
1.26128e-07
-4.14225e-08
1.31272e-07
-4.57479e-08
1.3682e-07
-5.10669e-08
1.43004e-07
-5.73512e-08
1.5004e-07
-6.45808e-08
1.58126e-07
-7.27346e-08
1.67441e-07
-8.1893e-08
1.78149e-07
-9.20659e-08
1.90408e-07
-1.03422e-07
2.04387e-07
-1.16004e-07
2.20229e-07
-1.29974e-07
2.38169e-07
-1.45383e-07
2.58272e-07
-1.61933e-07
2.80881e-07
-1.80002e-07
3.05847e-07
-1.97807e-07
3.33503e-07
-2.1621e-07
3.63411e-07
-2.3143e-07
3.95175e-07
-2.41435e-07
4.28243e-07
-2.45551e-07
4.59989e-07
-2.24259e-07
4.88694e-07
-1.92677e-07
5.09033e-07
-9.97449e-08
5.13487e-07
5.57969e-08
4.8903e-07
2.71477e-07
4.28111e-07
7.74219e-07
2.82115e-07
1.2863e-06
9.26741e-09
2.32545e-06
3.69686e-06
-4.72733e-07
1.04318e-10
-1.95235e-09
5.96717e-10
-1.006e-08
1.67309e-09
-2.21059e-08
3.61633e-09
-3.43398e-08
6.6049e-09
-4.4387e-08
1.07051e-08
-5.18468e-08
1.5905e-08
-5.66689e-08
2.21085e-08
-5.89469e-08
2.91571e-08
-5.90884e-08
3.68669e-08
-5.76381e-08
4.50455e-08
-5.51787e-08
5.35031e-08
-5.22549e-08
6.20642e-08
-4.93199e-08
7.05833e-08
-4.66952e-08
7.89559e-08
-4.45493e-08
8.71166e-08
-4.29257e-08
9.50232e-08
-4.17784e-08
1.02637e-07
-4.10793e-08
1.09913e-07
-4.0849e-08
1.16812e-07
-4.11905e-08
1.23323e-07
-4.22683e-08
1.29488e-07
-4.42694e-08
1.35418e-07
-4.7352e-08
1.41292e-07
-5.16209e-08
1.47339e-07
-5.71123e-08
1.53813e-07
-6.38233e-08
1.60973e-07
-7.17406e-08
1.69066e-07
-8.08256e-08
1.78316e-07
-9.11412e-08
1.88922e-07
-1.02671e-07
2.01063e-07
-1.15561e-07
2.14918e-07
-1.29857e-07
2.30613e-07
-1.45669e-07
2.48371e-07
-1.63138e-07
2.68225e-07
-1.81786e-07
2.90468e-07
-2.02241e-07
3.14967e-07
-2.22305e-07
3.41907e-07
-2.43148e-07
3.71037e-07
-2.60559e-07
4.01668e-07
-2.72064e-07
4.33561e-07
-2.77442e-07
4.64109e-07
-2.54804e-07
4.91449e-07
-2.20015e-07
5.11191e-07
-1.19483e-07
5.16123e-07
5.08662e-08
4.93987e-07
2.93618e-07
4.3736e-07
8.30849e-07
3.0557e-07
1.41809e-06
6.34674e-08
2.56755e-06
4.21976e-06
-4.5944e-07
9.87682e-11
-2.05042e-09
6.13382e-10
-1.05732e-08
1.74958e-09
-2.32408e-08
3.76195e-09
-3.63509e-08
6.76502e-09
-4.73889e-08
1.07697e-08
-5.58504e-08
1.57481e-08
-6.16462e-08
2.16271e-08
-6.48248e-08
2.83064e-08
-6.57666e-08
3.56747e-08
-6.50052e-08
4.36117e-08
-6.31146e-08
5.19891e-08
-6.06311e-08
6.06712e-08
-5.8001e-08
6.9529e-08
-5.55521e-08
7.84559e-08
-5.34753e-08
8.73764e-08
-5.18454e-08
9.62367e-08
-5.06377e-08
1.04982e-07
-4.98239e-08
1.13541e-07
-4.94072e-08
1.21827e-07
-4.94749e-08
1.29759e-07
-5.02e-08
1.37301e-07
-5.18103e-08
1.44485e-07
-5.45351e-08
1.51428e-07
-5.85626e-08
1.58324e-07
-6.40071e-08
1.65422e-07
-7.09196e-08
1.73001e-07
-7.93193e-08
1.81344e-07
-8.91665e-08
1.90716e-07
-1.00512e-07
2.01359e-07
-1.13312e-07
2.13478e-07
-1.27679e-07
2.27274e-07
-1.4365e-07
2.42869e-07
-1.61264e-07
2.60474e-07
-1.80738e-07
2.80105e-07
-2.01416e-07
3.01979e-07
-2.24112e-07
3.26016e-07
-2.4634e-07
3.52196e-07
-2.69326e-07
3.80479e-07
-2.88839e-07
4.09926e-07
-3.01509e-07
4.40433e-07
-3.07948e-07
4.69742e-07
-2.84111e-07
4.95609e-07
-2.45881e-07
5.14767e-07
-1.38636e-07
5.20123e-07
4.55117e-08
5.02176e-07
3.11569e-07
4.50762e-07
8.82265e-07
3.31808e-07
1.53705e-06
1.21315e-07
2.77804e-06
4.72655e-06
-3.85479e-07
9.47481e-11
-2.14446e-09
6.25114e-10
-1.11021e-08
1.811e-09
-2.44254e-08
3.91214e-09
-3.84508e-08
7.0164e-09
-5.0492e-08
1.10911e-08
-5.99241e-08
1.60765e-08
-6.66305e-08
2.18879e-08
-7.06349e-08
2.84325e-08
-7.23101e-08
3.56284e-08
-7.21998e-08
4.34009e-08
-7.0886e-08
5.16715e-08
-6.89006e-08
6.03497e-08
-6.66783e-08
6.93392e-08
-6.45407e-08
7.85533e-08
-6.26884e-08
8.79286e-08
-6.12199e-08
9.74219e-08
-6.013e-08
1.06987e-07
-5.93876e-08
1.1655e-07
-5.89696e-08
1.26005e-07
-5.89285e-08
1.35226e-07
-5.94208e-08
1.4411e-07
-6.06933e-08
1.5261e-07
-6.30344e-08
1.60768e-07
-6.67188e-08
1.68717e-07
-7.19557e-08
1.76674e-07
-7.88746e-08
1.84909e-07
-8.75528e-08
1.93717e-07
-9.79729e-08
2.03391e-07
-1.10185e-07
2.14209e-07
-1.24128e-07
2.26403e-07
-1.39872e-07
2.402e-07
-1.57444e-07
2.5573e-07
-1.76794e-07
2.73189e-07
-1.98194e-07
2.92602e-07
-2.20828e-07
3.14092e-07
-2.45599e-07
3.3765e-07
-2.69896e-07
3.63055e-07
-2.94729e-07
3.90415e-07
-3.16197e-07
4.18689e-07
-3.29781e-07
4.47701e-07
-3.36958e-07
4.75704e-07
-3.12112e-07
5.00136e-07
-2.70312e-07
5.1898e-07
-1.57476e-07
5.24449e-07
4.00436e-08
5.1158e-07
3.24443e-07
4.69367e-07
9.24479e-07
3.59059e-07
1.64736e-06
1.88021e-07
2.94907e-06
5.17253e-06
-2.57959e-07
9.18241e-11
-2.23556e-09
6.37929e-10
-1.16467e-08
1.8669e-09
-2.5653e-08
4.05302e-09
-4.06357e-08
7.27891e-09
-5.37167e-08
1.14882e-08
-6.41323e-08
1.65975e-08
-7.17387e-08
2.25024e-08
-7.65387e-08
2.90982e-08
-7.89047e-08
3.63033e-08
-7.94036e-08
4.40587e-08
-7.86403e-08
5.23127e-08
-7.71535e-08
6.10058e-08
-7.53704e-08
7.00702e-08
-7.36043e-08
7.9443e-08
-7.20603e-08
8.90815e-08
-7.08575e-08
9.89629e-08
-7.00105e-08
1.09063e-07
-6.94863e-08
1.19325e-07
-6.92315e-08
1.29649e-07
-6.92508e-08
1.39891e-07
-6.96625e-08
1.49907e-07
-7.07083e-08
1.5959e-07
-7.27162e-08
1.68911e-07
-7.60387e-08
1.77941e-07
-8.09843e-08
1.86843e-07
-8.77756e-08
1.95859e-07
-9.65678e-08
2.05277e-07
-1.07388e-07
2.15394e-07
-1.20301e-07
2.2651e-07
-1.35242e-07
2.38879e-07
-1.52239e-07
2.52745e-07
-1.71307e-07
2.68258e-07
-1.92307e-07
2.85596e-07
-2.15528e-07
3.04809e-07
-2.4004e-07
3.25927e-07
-2.66713e-07
3.49011e-07
-2.92978e-07
3.73685e-07
-3.194e-07
4.00113e-07
-3.42624e-07
4.27285e-07
-3.56951e-07
4.54869e-07
-3.64541e-07
4.81628e-07
-3.38867e-07
5.04665e-07
-2.93348e-07
5.23706e-07
-1.76512e-07
5.29672e-07
3.40792e-08
5.20748e-07
3.3337e-07
4.92439e-07
9.52789e-07
3.92418e-07
1.74738e-06
2.52242e-07
3.08925e-06
5.51438e-06
-8.96167e-08
8.92024e-11
-2.32402e-09
6.52988e-10
-1.2209e-08
1.92395e-09
-2.69226e-08
4.19158e-09
-4.2902e-08
7.53995e-09
-5.70639e-08
1.19007e-08
-6.84918e-08
1.71773e-08
-7.70142e-08
2.32521e-08
-8.26122e-08
3.00057e-08
-8.56572e-08
3.7347e-08
-8.67436e-08
4.52156e-08
-8.65078e-08
5.35678e-08
-8.55045e-08
6.23578e-08
-8.41594e-08
7.15348e-08
-8.27803e-08
8.10523e-08
-8.15768e-08
9.08843e-08
-8.06887e-08
1.01028e-07
-8.01527e-08
1.1148e-07
-7.9938e-08
1.22211e-07
-7.99615e-08
1.33135e-07
-8.0174e-08
1.44116e-07
-8.06418e-08
1.54991e-07
-8.1582e-08
1.65618e-07
-8.33424e-08
1.7592e-07
-8.63394e-08
1.85912e-07
-9.09756e-08
1.9571e-07
-9.75715e-08
2.05514e-07
-1.06371e-07
2.1559e-07
-1.17462e-07
2.26228e-07
-1.30937e-07
2.3773e-07
-1.46741e-07
2.50361e-07
-1.64868e-07
2.64375e-07
-1.85319e-07
2.79941e-07
-2.07872e-07
2.97218e-07
-2.32801e-07
3.16288e-07
-2.59109e-07
3.37102e-07
-2.87524e-07
3.59773e-07
-3.15648e-07
3.83834e-07
-3.43458e-07
4.09439e-07
-3.68228e-07
4.35672e-07
-3.83181e-07
4.62034e-07
-3.90902e-07
4.87844e-07
-3.64674e-07
5.09679e-07
-3.15182e-07
5.2918e-07
-1.96008e-07
5.37126e-07
2.61351e-08
5.30574e-07
3.39925e-07
5.17321e-07
9.66042e-07
4.35827e-07
1.82887e-06
3.16751e-07
3.20832e-06
5.73812e-06
9.30105e-08
8.65776e-11
-2.40985e-09
6.67376e-10
-1.27882e-08
1.98412e-09
-2.82379e-08
4.33374e-09
-4.52503e-08
7.80471e-09
-6.05336e-08
1.23205e-08
-7.30065e-08
1.77769e-08
-8.24695e-08
2.40493e-08
-8.88833e-08
3.10081e-08
-9.26149e-08
3.85524e-08
-9.42866e-08
4.66157e-08
-9.45699e-08
5.51532e-08
-9.40408e-08
6.41225e-08
-9.31277e-08
7.34782e-08
-9.21351e-08
8.31816e-08
-9.12792e-08
9.32159e-08
-9.07221e-08
1.0359e-07
-9.05262e-08
1.14319e-07
-9.0666e-08
1.25391e-07
-9.10322e-08
1.3674e-07
-9.15216e-08
1.4824e-07
-9.21411e-08
1.59731e-07
-9.30722e-08
1.71058e-07
-9.46684e-08
1.82116e-07
-9.73959e-08
1.92884e-07
-1.01743e-07
2.0344e-07
-1.08126e-07
2.13951e-07
-1.1688e-07
2.24654e-07
-1.28164e-07
2.35824e-07
-1.42106e-07
2.47755e-07
-1.5867e-07
2.60715e-07
-1.77826e-07
2.74956e-07
-1.99558e-07
2.90662e-07
-2.23577e-07
3.07972e-07
-2.50108e-07
3.26998e-07
-2.78134e-07
3.47636e-07
-3.08158e-07
3.70026e-07
-3.38036e-07
3.93666e-07
-3.67095e-07
4.18664e-07
-3.93224e-07
4.44242e-07
-4.08757e-07
4.69703e-07
-4.16361e-07
4.95e-07
-3.89969e-07
5.16198e-07
-3.36379e-07
5.3614e-07
-2.15946e-07
5.47652e-07
1.46249e-08
5.43743e-07
3.43837e-07
5.42764e-07
9.67022e-07
4.87644e-07
1.88399e-06
3.93084e-07
3.30288e-06
5.86334e-06
2.67859e-07
8.39565e-11
-2.49304e-09
6.81821e-10
-1.33845e-08
2.04748e-09
-2.96022e-08
4.48157e-09
-4.7683e-08
8.07766e-09
-6.41285e-08
1.27519e-08
-7.76796e-08
1.8393e-08
-8.81094e-08
2.48724e-08
-9.53615e-08
3.20542e-08
-9.97956e-08
3.98303e-08
-1.02061e-07
4.81288e-08
-1.02867e-07
5.69019e-08
-1.02813e-07
6.61057e-08
-1.0233e-07
7.56952e-08
-1.01724e-07
8.56334e-08
-1.01216e-07
9.5907e-08
-1.00995e-07
1.06531e-07
-1.01149e-07
1.17527e-07
-1.01662e-07
1.28896e-07
-1.024e-07
1.40584e-07
-1.03208e-07
1.52477e-07
-1.04033e-07
1.64421e-07
-1.05015e-07
1.76258e-07
-1.06505e-07
1.87875e-07
-1.09012e-07
1.99233e-07
-1.131e-07
2.10389e-07
-1.19279e-07
2.21484e-07
-1.27974e-07
2.32738e-07
-1.39415e-07
2.44406e-07
-1.53773e-07
2.56772e-07
-1.71034e-07
2.701e-07
-1.91152e-07
2.84635e-07
-2.1409e-07
3.00571e-07
-2.39511e-07
3.18027e-07
-2.67561e-07
3.37139e-07
-2.97244e-07
3.57769e-07
-3.28785e-07
3.80066e-07
-3.6033e-07
4.03533e-07
-3.9056e-07
4.28217e-07
-4.17906e-07
4.53512e-07
-4.3405e-07
4.78512e-07
-4.4136e-07
5.03749e-07
-4.15202e-07
5.25184e-07
-3.57813e-07
5.45715e-07
-2.36473e-07
5.61505e-07
-1.1645e-09
5.62586e-07
3.42759e-07
5.70107e-07
9.59502e-07
5.4506e-07
1.90904e-06
4.86805e-07
3.36113e-06
5.91646e-06
4.33675e-07
8.14103e-11
-2.57368e-09
6.96867e-10
-1.39984e-08
2.11387e-09
-3.10178e-08
4.63537e-09
-5.02032e-08
8.36027e-09
-6.78521e-08
1.3198e-08
-8.25161e-08
1.90286e-08
-9.39389e-08
2.57207e-08
-1.02052e-07
3.31337e-08
-1.07207e-07
4.11541e-08
-1.1008e-07
4.97062e-08
-1.11418e-07
5.87394e-08
-1.11845e-07
6.82079e-08
-1.11798e-07
7.80653e-08
-1.1158e-07
8.82741e-08
-1.11424e-07
9.88216e-08
-1.11541e-07
1.09725e-07
-1.12051e-07
1.21008e-07
-1.12944e-07
1.32676e-07
-1.14067e-07
1.44679e-07
-1.1521e-07
1.56909e-07
-1.16262e-07
1.69217e-07
-1.17322e-07
1.81449e-07
-1.18736e-07
1.9349e-07
-1.21051e-07
2.05297e-07
-1.24906e-07
2.16918e-07
-1.30898e-07
2.28483e-07
-1.39538e-07
2.402e-07
-1.5113e-07
2.52314e-07
-1.65885e-07
2.65099e-07
-1.83816e-07
2.78813e-07
-2.04865e-07
2.93693e-07
-2.28967e-07
3.09939e-07
-2.55756e-07
3.27656e-07
-2.85274e-07
3.4699e-07
-3.16577e-07
3.67795e-07
-3.49586e-07
3.90207e-07
-3.8274e-07
4.13777e-07
-4.14127e-07
4.38468e-07
-4.42595e-07
4.63879e-07
-4.59459e-07
4.88946e-07
-4.66426e-07
5.14557e-07
-4.40811e-07
5.37145e-07
-3.804e-07
5.58809e-07
-2.58133e-07
5.79011e-07
-2.13651e-08
5.87508e-07
3.34265e-07
6.02514e-07
9.44496e-07
6.06329e-07
1.90522e-06
5.89104e-07
3.37835e-06
5.91244e-06
5.93123e-07
7.89959e-11
-2.65189e-09
7.1257e-10
-1.46304e-08
2.18332e-09
-3.24871e-08
4.79517e-09
-5.28137e-08
8.65273e-09
-7.17084e-08
1.36596e-08
-8.75217e-08
1.96859e-08
-9.99641e-08
2.65965e-08
-1.08962e-07
3.42472e-08
-1.14857e-07
4.25199e-08
-1.18352e-07
5.13355e-08
-1.20233e-07
6.06416e-08
-1.21149e-07
7.03906e-08
-1.21546e-07
8.05345e-08
-1.21723e-07
9.10353e-08
-1.21924e-07
1.01881e-07
-1.22386e-07
1.13087e-07
-1.23256e-07
1.24681e-07
-1.24537e-07
1.36663e-07
-1.26048e-07
1.48986e-07
-1.27531e-07
1.6154e-07
-1.28815e-07
1.74177e-07
-1.29958e-07
1.86747e-07
-1.31305e-07
1.99137e-07
-1.3344e-07
2.11305e-07
-1.37074e-07
2.233e-07
-1.42891e-07
2.3525e-07
-1.51487e-07
2.47361e-07
-1.63238e-07
2.59872e-07
-1.78395e-07
2.73053e-07
-1.96995e-07
2.87159e-07
-2.18969e-07
3.0242e-07
-2.44226e-07
3.1904e-07
-2.72375e-07
3.37115e-07
-3.03345e-07
3.56796e-07
-3.36257e-07
3.77941e-07
-3.70728e-07
4.00671e-07
-4.05468e-07
4.24597e-07
-4.38051e-07
4.49611e-07
-4.67607e-07
4.75516e-07
-4.85362e-07
5.01161e-07
-4.9207e-07
5.27583e-07
-4.6723e-07
5.52041e-07
-4.04856e-07
5.75727e-07
-2.81814e-07
6.00482e-07
-4.61196e-08
6.17764e-07
3.16985e-07
6.42259e-07
9.2e-07
6.69718e-07
1.87776e-06
7.02215e-07
3.34585e-06
5.84234e-06
7.72309e-07
7.67566e-11
-2.72784e-09
7.28993e-10
-1.5281e-08
2.25591e-09
-3.40126e-08
4.96109e-09
-5.55175e-08
8.95501e-09
-7.5701e-08
1.41369e-08
-9.27024e-08
2.03655e-08
-1.06191e-07
2.75011e-08
-1.16096e-07
3.53963e-08
-1.22751e-07
4.39285e-08
-1.26882e-07
5.30157e-08
-1.29319e-07
6.26037e-08
-1.30736e-07
7.26433e-08
-1.31584e-07
8.30851e-08
-1.32164e-07
9.38908e-08
-1.32729e-07
1.05048e-07
-1.33542e-07
1.16575e-07
-1.34782e-07
1.28496e-07
-1.36456e-07
1.40811e-07
-1.38361e-07
1.53465e-07
-1.40185e-07
1.66347e-07
-1.41696e-07
1.79307e-07
-1.42917e-07
1.92194e-07
-1.44191e-07
2.04899e-07
-1.46143e-07
2.17383e-07
-1.49557e-07
2.29701e-07
-1.55207e-07
2.41985e-07
-1.63769e-07
2.54443e-07
-1.75694e-07
2.67317e-07
-1.91267e-07
2.80875e-07
-2.1055e-07
2.95373e-07
-2.33466e-07
3.1104e-07
-2.59889e-07
3.2808e-07
-2.89414e-07
3.46588e-07
-3.21849e-07
3.66713e-07
-3.5638e-07
3.88338e-07
-3.92349e-07
4.11548e-07
-4.28677e-07
4.3605e-07
-4.62549e-07
4.61664e-07
-4.93219e-07
4.88359e-07
-5.12055e-07
5.15051e-07
-5.1876e-07
5.42788e-07
-4.94964e-07
5.69658e-07
-4.31725e-07
5.96322e-07
-3.08475e-07
6.25926e-07
-7.57228e-08
6.52636e-07
2.90278e-07
6.89184e-07
8.83451e-07
7.38045e-07
1.8289e-06
8.22791e-07
3.26109e-06
5.70746e-06
9.57658e-07
7.47368e-11
-2.80177e-09
7.46189e-10
-1.59509e-08
2.33172e-09
-3.55967e-08
5.13329e-09
-5.83176e-08
9.26712e-09
-7.98336e-08
1.463e-08
-9.8064e-08
2.10675e-08
-1.12628e-07
2.84349e-08
-1.23462e-07
3.65817e-08
-1.30896e-07
4.5381e-08
-1.3568e-07
5.47478e-08
-1.38684e-07
6.46258e-08
-1.40613e-07
7.49645e-08
-1.41922e-07
8.57132e-08
-1.42911e-07
9.68333e-08
-1.43848e-07
1.08314e-07
-1.45022e-07
1.20173e-07
-1.4664e-07
1.32434e-07
-1.48716e-07
1.45093e-07
-1.51019e-07
1.58091e-07
-1.53182e-07
1.7131e-07
-1.54914e-07
1.84596e-07
-1.56202e-07
1.97797e-07
-1.5739e-07
2.10805e-07
-1.59149e-07
2.23587e-07
-1.62339e-07
2.36205e-07
-1.67822e-07
2.48797e-07
-1.7636e-07
2.61577e-07
-1.88472e-07
2.74794e-07
-2.04482e-07
2.88718e-07
-2.24471e-07
3.03609e-07
-2.48356e-07
3.19696e-07
-2.75973e-07
3.37187e-07
-3.06903e-07
3.56181e-07
-3.40839e-07
3.76822e-07
-3.7702e-07
3.99023e-07
-4.14546e-07
4.22843e-07
-4.52495e-07
4.48078e-07
-4.87781e-07
4.7451e-07
-5.1965e-07
5.02245e-07
-5.39787e-07
5.30322e-07
-5.46835e-07
5.59771e-07
-5.24409e-07
5.89456e-07
-4.61409e-07
6.19872e-07
-3.38887e-07
6.54958e-07
-1.10808e-07
6.91531e-07
2.53706e-07
7.41964e-07
8.33016e-07
8.12715e-07
1.75815e-06
9.27319e-07
3.14648e-06
5.46145e-06
1.17332e-06
7.29813e-11
-2.87394e-09
7.64209e-10
-1.66405e-08
2.41084e-09
-3.72418e-08
5.31191e-09
-6.12173e-08
9.5891e-09
-8.41095e-08
1.51387e-08
-1.03612e-07
2.1792e-08
-1.1928e-07
2.93982e-08
-1.31067e-07
3.78038e-08
-1.39301e-07
4.6878e-08
-1.44753e-07
5.65324e-08
-1.48337e-07
6.67088e-08
-1.50788e-07
7.73549e-08
-1.52567e-07
8.84189e-08
-1.53974e-07
9.9862e-08
-1.5529e-07
1.11674e-07
-1.56833e-07
1.23875e-07
-1.5884e-07
1.36486e-07
-1.61327e-07
1.495e-07
-1.64032e-07
1.62852e-07
-1.66532e-07
1.76417e-07
-1.68478e-07
1.90035e-07
-1.69818e-07
2.03551e-07
-1.70905e-07
2.16861e-07
-1.72457e-07
2.29936e-07
-1.75413e-07
2.42844e-07
-1.80728e-07
2.55734e-07
-1.89248e-07
2.68826e-07
-2.01561e-07
2.82377e-07
-2.18031e-07
2.96662e-07
-2.38754e-07
3.11948e-07
-2.6364e-07
3.28466e-07
-2.92488e-07
3.46428e-07
-3.24864e-07
3.65941e-07
-3.60348e-07
3.87146e-07
-3.98222e-07
4.0999e-07
-4.37386e-07
4.34509e-07
-4.77012e-07
4.60589e-07
-5.13859e-07
4.87998e-07
-5.47057e-07
5.16955e-07
-5.68742e-07
5.46678e-07
-5.76556e-07
5.78179e-07
-5.55907e-07
6.11015e-07
-4.94243e-07
6.45762e-07
-3.73631e-07
6.86996e-07
-1.52041e-07
7.33911e-07
2.06792e-07
7.99284e-07
7.6764e-07
8.94447e-07
1.66298e-06
1.0528e-06
2.98812e-06
5.14259e-06
1.37166e-06
7.15377e-11
-2.94465e-09
7.83101e-10
-1.73504e-08
2.49331e-09
-3.89506e-08
5.49709e-09
-6.42197e-08
9.92124e-09
-8.85323e-08
1.56631e-08
-1.09353e-07
2.25391e-08
-1.26155e-07
3.03911e-08
-1.38918e-07
3.90628e-08
-1.47971e-07
4.84196e-08
-1.54108e-07
5.83698e-08
-1.58286e-07
6.88529e-08
-1.6127e-07
7.9815e-08
-1.63528e-07
9.12027e-08
-1.65361e-07
1.02977e-07
-1.67064e-07
1.1513e-07
-1.68985e-07
1.27681e-07
-1.71389e-07
1.40652e-07
-1.74296e-07
1.54031e-07
-1.77409e-07
1.67745e-07
-1.80246e-07
1.81663e-07
-1.82395e-07
1.95618e-07
-1.83773e-07
2.09454e-07
-1.8474e-07
2.23067e-07
-1.86068e-07
2.36434e-07
-1.88779e-07
2.49631e-07
-1.93923e-07
2.62815e-07
-2.0243e-07
2.76215e-07
-2.14959e-07
2.90096e-07
-2.3191e-07
3.04742e-07
-2.53397e-07
3.20425e-07
-2.79321e-07
3.37382e-07
-3.09441e-07
3.55828e-07
-3.43308e-07
3.75883e-07
-3.80399e-07
3.97682e-07
-4.2002e-07
4.21211e-07
-4.60912e-07
4.4649e-07
-5.02289e-07
4.73491e-07
-5.40857e-07
5.0199e-07
-5.75554e-07
5.32304e-07
-5.99053e-07
5.63861e-07
-6.08112e-07
5.97681e-07
-5.89725e-07
6.33944e-07
-5.30504e-07
6.73488e-07
-4.13172e-07
7.21431e-07
-1.99984e-07
7.79288e-07
1.48936e-07
8.60426e-07
6.865e-07
9.81753e-07
1.54165e-06
1.18245e-06
2.78742e-06
4.75672e-06
1.56831e-06
7.04517e-11
-3.01428e-09
8.02911e-10
-1.80812e-08
2.57917e-09
-4.07253e-08
5.68893e-09
-6.7328e-08
1.02642e-08
-9.31062e-08
1.62031e-08
-1.15291e-07
2.33087e-08
-1.33259e-07
3.14136e-08
-1.47021e-07
4.03588e-08
-1.56915e-07
5.00061e-08
-1.63754e-07
6.02603e-08
-1.68539e-07
7.10586e-08
-1.72067e-07
8.2345e-08
-1.74813e-07
9.40651e-08
-1.7708e-07
1.0618e-07
-1.79178e-07
1.18682e-07
-1.81486e-07
1.31593e-07
-1.84299e-07
1.44932e-07
-1.87634e-07
1.58683e-07
-1.91159e-07
1.72767e-07
-1.94329e-07
1.87045e-07
-1.96671e-07
2.01343e-07
-1.9807e-07
2.15503e-07
-1.98899e-07
2.29422e-07
-1.99985e-07
2.43082e-07
-2.02438e-07
2.56568e-07
-2.07406e-07
2.70044e-07
-2.15905e-07
2.83752e-07
-2.28664e-07
2.97964e-07
-2.4612e-07
3.12971e-07
-2.68402e-07
3.29054e-07
-2.95402e-07
3.46455e-07
-3.26839e-07
3.65394e-07
-3.62246e-07
3.86004e-07
-4.01006e-07
4.08419e-07
-4.42432e-07
4.32662e-07
-4.85151e-07
4.58744e-07
-5.28368e-07
4.86716e-07
-5.68826e-07
5.16387e-07
-6.05224e-07
5.48159e-07
-6.30821e-07
5.81688e-07
-6.4164e-07
6.18039e-07
-6.26073e-07
6.57953e-07
-5.70417e-07
7.02678e-07
-4.57893e-07
7.57789e-07
-2.55094e-07
8.27143e-07
7.95831e-08
9.24735e-07
5.88906e-07
1.07297e-06
1.39341e-06
1.31511e-06
2.54527e-06
4.31031e-06
1.76152e-06
6.97681e-11
-3.08321e-09
8.23687e-10
-1.88335e-08
2.66841e-09
-4.25686e-08
5.88748e-09
-7.05457e-08
1.06175e-08
-9.78349e-08
1.67586e-08
-1.21431e-07
2.41007e-08
-1.406e-07
3.24657e-08
-1.55385e-07
4.16917e-08
-1.6614e-07
5.16373e-08
-1.73698e-07
6.22039e-08
-1.79104e-07
7.33257e-08
-1.83188e-07
8.49452e-08
-1.86432e-07
9.70062e-08
-1.8914e-07
1.0947e-07
-1.91641e-07
1.22331e-07
-1.94346e-07
1.35609e-07
-1.97576e-07
1.49325e-07
-2.01349e-07
1.63458e-07
-2.0529e-07
1.7792e-07
-2.0879e-07
1.92564e-07
-2.11313e-07
2.0721e-07
-2.12715e-07
2.21698e-07
-2.13385e-07
2.35924e-07
-2.1421e-07
2.49879e-07
-2.16391e-07
2.63653e-07
-2.21178e-07
2.77423e-07
-2.29673e-07
2.91437e-07
-2.42676e-07
3.0598e-07
-2.60661e-07
3.2135e-07
-2.83769e-07
3.37835e-07
-3.11884e-07
3.55685e-07
-3.44685e-07
3.75123e-07
-3.81683e-07
3.96299e-07
-4.22178e-07
4.19344e-07
-4.65475e-07
4.44319e-07
-5.10123e-07
4.71237e-07
-5.55284e-07