/*--------------------------------*- C++ -*----------------------------------*\
  =========                 |
  \\      /  F ield         | OpenFOAM: The Open Source CFD Toolbox
   \\    /   O peration     | Website:  https://openfoam.org
    \\  /    A nd           | Version:  7
     \\/     M anipulation  |
\*---------------------------------------------------------------------------*/
FoamFile
{
    version     2.0;
    format      ascii;
    class       volScalarField;
    location    "0.46";
    object      nut;
}
// * * * * * * * * * * * * * * * * * * * * * * * * * * * * * * * * * * * * * //

dimensions      [0 2 -1 0 0 0 0];

internalField   nonuniform List<scalar> 
70000
(
9.96276e-12
6.88114e-14
2.56195e-16
8.59776e-17
4.81109e-17
7.91101e-17
2.78782e-17
1.30798e-17
8.89286e-18
6.50851e-18
4.78303e-18
3.57667e-18
2.73685e-18
2.138e-18
1.69958e-18
1.37149e-18
1.12134e-18
9.27397e-19
7.74866e-19
6.53264e-19
5.55136e-19
4.7509e-19
4.09062e-19
3.54142e-19
3.07901e-19
2.68801e-19
2.35074e-19
2.0629e-19
1.80497e-19
1.58667e-19
1.37766e-19
1.20769e-19
1.02668e-19
8.91425e-20
7.25091e-20
6.15786e-20
4.57953e-20
3.72426e-20
2.29869e-20
1.62353e-20
8.5133e-21
7.96475e-22
1.34261e-20
1.03919e-19
1.01218e-18
1.5538e-17
7.18857e-17
5.89726e-16
5.40282e-15
1.43696e-12
1.04277e-10
5.98713e-12
6.44301e-14
2.14304e-14
2.88761e-16
1.69353e-17
2.52098e-17
2.11833e-17
1.23225e-17
7.34685e-18
4.82631e-18
3.37374e-18
2.44976e-18
1.83041e-18
1.40088e-18
1.09443e-18
8.70322e-19
7.02848e-19
5.75257e-19
4.76386e-19
3.98652e-19
3.36659e-19
2.86692e-19
2.45866e-19
2.12324e-19
1.84247e-19
1.60946e-19
1.40756e-19
1.24212e-19
1.08903e-19
9.71281e-20
8.47447e-20
7.66209e-20
6.59489e-20
6.07769e-20
5.13269e-20
4.86824e-20
4.0628e-20
3.97555e-20
3.5939e-20
2.84629e-20
6.06123e-20
1.53187e-20
7.12461e-19
3.96925e-18
4.3265e-17
2.91306e-16
1.98133e-15
2.18474e-14
2.58379e-13
3.19183e-10
3.39738e-12
1.90788e-13
1.9888e-14
7.64275e-16
5.79947e-17
7.22888e-18
4.1485e-18
2.11012e-18
1.04832e-18
5.82867e-19
3.58427e-19
2.34449e-19
1.59794e-19
1.12529e-19
8.15023e-20
6.05105e-20
4.59229e-20
3.55331e-20
2.79731e-20
2.23715e-20
1.81474e-20
1.49285e-20
1.24352e-20
1.05105e-20
8.987e-21
7.83565e-21
6.89369e-21
6.27718e-21
5.72369e-21
5.58351e-21
5.37999e-21
5.85002e-21
6.21466e-21
7.80771e-21
9.71542e-21
1.40185e-20
2.11562e-20
3.2749e-20
6.00113e-20
8.67817e-20
2.11675e-19
2.71943e-19
1.72256e-18
6.23812e-18
7.10027e-17
4.06912e-16
3.05512e-15
1.97361e-14
2.59353e-13
6.15387e-09
1.92739e-11
7.83503e-13
6.09868e-14
5.46389e-15
9.22292e-16
1.09183e-16
2.90221e-17
1.21077e-17
5.36765e-18
2.51231e-18
1.29549e-18
7.29657e-19
4.37995e-19
2.7565e-19
1.80324e-19
1.22002e-19
8.50534e-20
6.09146e-20
4.47171e-20
3.3597e-20
2.58184e-20
2.03026e-20
1.63608e-20
1.35499e-20
1.15728e-20
1.02444e-20
9.44743e-21
9.12774e-21
9.30588e-21
1.00383e-20
1.15824e-20
1.41391e-20
1.87442e-20
2.57815e-20
3.93444e-20
5.92436e-20
1.0316e-19
1.61508e-19
3.18925e-19
4.78573e-19
1.11528e-18
1.44926e-18
5.6909e-18
1.04214e-17
9.83323e-17
4.47134e-16
2.53214e-15
1.29552e-14
3.87742e-13
2.32159e-09
2.23341e-10
4.4516e-12
3.21158e-13
2.29218e-14
4.37335e-15
7.13436e-16
1.99717e-16
8.14804e-17
3.61666e-17
1.6951e-17
8.65016e-18
4.79259e-18
2.82954e-18
1.7545e-18
1.1329e-18
7.57712e-19
5.22785e-19
3.70853e-19
2.69768e-19
2.00849e-19
1.52891e-19
1.18988e-19
9.47672e-20
7.74118e-20
6.50456e-20
5.6455e-20
5.08583e-20
4.77846e-20
4.71814e-20
4.90656e-20
5.44218e-20
6.37088e-20
8.09765e-20
1.06973e-19
1.57153e-19
2.29315e-19
3.88022e-19
5.95841e-19
1.16086e-18
1.7171e-18
4.02128e-18
4.97598e-18
1.72189e-17
2.35474e-17
1.4586e-16
5.29298e-16
1.75476e-15
8.37208e-15
4.24771e-13
3.00958e-09
5.28664e-09
4.35599e-11
1.94155e-12
1.07423e-13
1.78524e-14
3.20349e-15
9.30812e-16
3.78322e-16
1.68894e-16
7.97315e-17
4.06818e-17
2.24028e-17
1.31129e-17
8.05507e-18
5.15269e-18
3.4149e-18
2.33553e-18
1.64289e-18
1.18539e-18
8.75457e-19
6.60946e-19
5.09907e-19
4.02213e-19
3.24963e-19
2.69565e-19
2.30449e-19
2.03875e-19
1.87551e-19
1.80588e-19
1.82613e-19
1.96104e-19
2.22094e-19
2.72039e-19
3.4758e-19
4.92101e-19
6.98859e-19
1.14485e-18
1.7288e-18
3.28983e-18
4.82807e-18
1.11373e-17
1.37762e-17
4.32446e-17
5.39208e-17
2.17643e-16
6.29156e-16
1.06222e-15
5.10264e-15
4.2739e-13
1.07674e-09
4.76537e-09
3.71248e-09
1.84683e-11
6.66951e-13
9.0836e-14
1.49685e-14
4.06229e-15
1.56475e-15
6.80549e-16
3.17273e-16
1.60281e-16
8.73815e-17
5.0637e-17
3.08039e-17
1.95192e-17
1.28183e-17
8.68953e-18
6.06075e-18
4.33721e-18
3.1776e-18
2.37982e-18
1.82084e-18
1.42361e-18
1.13897e-18
9.34341e-19
7.88533e-19
6.87181e-19
6.21163e-19
5.85983e-19
5.78914e-19
6.05393e-19
6.66595e-19
7.91136e-19
9.81581e-19
1.34355e-18
1.86158e-18
2.95106e-18
4.39088e-18
8.10899e-18
1.18945e-17
2.65063e-17
3.38378e-17
9.53797e-17
1.2236e-16
3.44526e-16
9.04699e-16
5.69274e-16
2.89723e-15
4.10421e-13
2.42885e-09
3.87023e-09
8.22283e-10
2.41374e-09
8.55215e-12
7.05771e-13
8.91213e-14
2.02422e-14
6.92954e-15
2.79372e-15
1.23733e-15
6.01953e-16
3.18762e-16
1.80498e-16
1.07739e-16
6.7182e-17
4.35051e-17
2.91276e-17
2.00893e-17
1.42301e-17
1.03271e-17
7.66514e-18
5.81341e-18
4.50471e-18
3.5701e-18
2.89854e-18
2.41795e-18
2.0794e-18
1.85132e-18
1.71616e-18
1.66234e-18
1.69951e-18
1.82723e-18
2.10992e-18
2.55245e-18
3.388e-18
4.59324e-18
7.0523e-18
1.03606e-17
1.8509e-17
2.72633e-17
5.80694e-17
7.74192e-17
1.95934e-16
2.68087e-16
5.71293e-16
1.44974e-15
2.8849e-16
1.63232e-15
3.79855e-13
3.37046e-09
4.3711e-09
5.90891e-10
2.99324e-10
5.47471e-10
1.83193e-11
9.41284e-13
1.42248e-13
3.87295e-14
1.34946e-14
5.39115e-15
2.42788e-15
1.21167e-15
6.54991e-16
3.7672e-16
2.27893e-16
1.43896e-16
9.43005e-17
6.38534e-17
4.45119e-17
3.18517e-17
2.33454e-17
1.75024e-17
1.34147e-17
1.05176e-17
8.4455e-18
6.96327e-18
5.91249e-18
5.19058e-18
4.73623e-18
4.50869e-18
4.51921e-18
4.75982e-18
5.36599e-18
6.35069e-18
8.20115e-18
1.09059e-17
1.62518e-17
2.36027e-17
4.0787e-17
6.03776e-17
1.22665e-16
1.70403e-16
3.91742e-16
5.6852e-16
9.9623e-16
2.36577e-15
2.53754e-16
9.7969e-16
3.26731e-13
3.412e-09
4.60829e-09
6.72466e-10
1.93073e-10
4.67521e-11
6.65449e-11
2.99474e-10
2.74649e-12
3.80269e-13
9.4952e-14
3.0806e-14
1.1994e-14
5.37544e-15
2.67584e-15
1.44203e-15
8.27629e-16
5.00427e-16
3.16289e-16
2.07709e-16
1.41056e-16
9.86889e-17
7.09303e-17
5.22668e-17
3.94419e-17
3.04818e-17
2.41418e-17
1.96355e-17
1.64422e-17
1.4227e-17
1.27818e-17
1.1969e-17
1.17806e-17
1.21791e-17
1.34396e-17
1.5598e-17
1.96558e-17
2.56817e-17
3.72469e-17
5.34842e-17
8.95924e-17
1.33017e-16
2.58491e-16
3.71225e-16
7.87278e-16
1.19427e-15
1.86062e-15
4.08116e-15
6.21185e-16
7.69926e-16
2.48856e-13
3.21292e-09
4.39196e-09
7.73636e-10
2.01638e-10
3.62561e-11
2.15311e-11
1.32111e-11
2.06395e-11
1.44623e-10
2.17296e-12
3.45777e-13
9.36472e-14
3.34209e-14
1.41944e-14
6.79748e-15
3.55934e-15
1.99969e-15
1.19005e-15
7.43307e-16
4.83893e-16
3.26592e-16
2.27597e-16
1.63289e-16
1.20367e-16
9.10978e-17
7.07862e-17
5.65543e-17
4.65514e-17
3.96058e-17
3.49822e-17
3.21979e-17
3.11221e-17
3.15983e-17
3.41779e-17
3.89452e-17
4.79982e-17
6.1668e-17
8.72763e-17
1.23829e-16
2.01629e-16
2.99355e-16
5.58545e-16
8.22635e-16
1.6308e-15
2.55534e-15
3.73068e-15
7.56801e-15
2.02003e-15
9.85461e-16
1.83031e-13
3.01862e-09
3.97357e-09
8.46281e-10
2.12488e-10
3.85075e-11
1.98537e-11
8.45944e-12
4.49464e-12
4.09903e-12
6.71946e-12
8.49332e-11
4.72781e-12
5.45937e-13
1.41577e-13
5.0709e-14
2.18265e-14
1.06267e-14
5.66497e-15
3.24143e-15
1.96451e-15
1.24943e-15
8.28258e-16
5.6949e-16
4.04717e-16
2.96691e-16
2.24128e-16
1.7457e-16
1.40379e-16
1.16851e-16
1.01077e-16
9.1174e-17
8.63802e-17
8.60177e-17
9.11724e-17
1.0197e-16
1.2303e-16
1.55393e-16
2.14978e-16
3.01005e-16
4.7739e-16
7.06667e-16
1.26987e-15
1.90383e-15
3.5653e-15
5.70969e-15
8.04297e-15
1.51927e-14
6.2605e-15
2.01573e-15
1.31938e-13
2.84734e-09
3.51363e-09
9.07933e-10
2.09893e-10
4.19967e-11
2.13573e-11
8.86358e-12
3.81833e-12
2.39943e-12
1.86456e-12
1.69928e-12
2.02291e-12
4.26038e-12
8.22295e-11
2.56867e-12
3.88478e-13
1.15928e-13
4.59645e-14
2.14795e-14
1.12159e-14
6.3585e-15
3.84583e-15
2.45361e-15
1.63846e-15
1.13956e-15
8.22839e-16
6.16141e-16
4.78478e-16
3.85966e-16
3.24424e-16
2.8497e-16
2.63315e-16
2.56141e-16
2.65302e-16
2.90525e-16
3.42781e-16
4.2485e-16
5.74543e-16
7.92245e-16
1.22445e-15
1.80128e-15
3.12351e-15
4.73262e-15
8.43922e-15
1.36848e-14
1.89109e-14
3.34898e-14
1.902e-14
6.09279e-15
8.74374e-14
2.67743e-09
3.05815e-09
9.76932e-10
1.98726e-10
4.51515e-11
2.27902e-11
1.00872e-11
4.11091e-12
2.33921e-12
1.56782e-12
1.11527e-12
8.58837e-13
7.44387e-13
7.48755e-13
9.25612e-13
1.65163e-12
8.5807e-12
8.74458e-12
6.57369e-13
1.72203e-13
6.63225e-14
3.11399e-14
1.65802e-14
9.6591e-15
6.03546e-15
3.99654e-15
2.7855e-15
2.03599e-15
1.55887e-15
1.25195e-15
1.05614e-15
9.41064e-16
8.85893e-16
8.89987e-16
9.48148e-16
1.08878e-15
1.318e-15
1.73711e-15
2.34968e-15
3.5322e-15
5.14103e-15
8.60347e-15
1.30794e-14
2.23187e-14
3.63279e-14
4.97766e-14
8.3049e-14
6.02609e-14
2.3849e-14
6.38506e-14
2.49907e-09
2.62331e-09
1.05678e-09
1.84631e-10
4.84529e-11
2.36662e-11
1.14506e-11
4.60896e-12
2.54423e-12
1.64808e-12
1.10344e-12
7.65497e-13
5.6566e-13
4.47973e-13
3.80274e-13
3.48244e-13
3.49444e-13
3.95592e-13
5.35773e-13
1.00251e-12
4.46654e-12
8.93687e-12
7.07566e-13
1.89835e-13
7.71226e-14
3.85938e-14
2.20433e-14
1.38697e-14
9.44107e-15
6.89408e-15
5.37429e-15
4.4792e-15
3.98158e-15
3.80343e-15
3.8775e-15
4.27601e-15
4.99709e-15
6.35938e-15
8.36417e-15
1.21504e-14
1.73614e-14
2.79439e-14
4.22493e-14
6.91032e-14
1.11786e-13
1.5284e-13
2.41528e-13
2.11966e-13
1.11624e-13
1.09853e-13
2.31284e-09
2.22313e-09
1.14215e-09
1.70231e-10
5.23664e-11
2.41171e-11
1.28576e-11
5.17002e-12
2.81221e-12
1.8172e-12
1.20735e-12
8.15691e-13
5.75531e-13
4.26012e-13
3.28996e-13
2.64411e-13
2.21433e-13
1.93863e-13
1.78318e-13
1.73595e-13
1.80884e-13
2.05359e-13
2.61957e-13
3.98747e-13
8.38014e-13
4.15669e-12
2.93305e-12
7.38158e-13
2.32715e-13
1.08925e-13
6.32329e-14
4.26366e-14
3.22747e-14
2.71558e-14
2.4983e-14
2.52739e-14
2.74807e-14
3.27828e-14
4.08912e-14
5.62715e-14
7.74929e-14
1.18469e-13
1.75368e-13
2.73634e-13
4.33817e-13
5.9126e-13
8.89603e-13
9.03904e-13
6.29862e-13
6.90371e-13
2.12102e-09
1.86383e-09
1.22573e-09
1.56565e-10
5.69341e-11
2.42703e-11
1.43328e-11
5.79253e-12
3.10574e-12
2.01373e-12
1.34811e-12
9.08913e-13
6.34075e-13
4.60418e-13
3.45523e-13
2.66656e-13
2.11382e-13
1.72184e-13
1.44269e-13
1.24535e-13
1.10988e-13
1.02392e-13
9.80921e-14
9.79609e-14
1.02526e-13
1.13309e-13
1.33765e-13
1.71802e-13
2.4736e-13
4.22495e-13
9.6719e-13
4.37572e-12
4.33733e-15
2.7374e-12
9.96517e-13
5.9692e-13
4.60144e-13
4.28304e-13
4.43928e-13
5.25111e-13
6.45801e-13
8.86663e-13
1.22305e-12
1.76474e-12
2.65339e-12
3.52856e-12
5.02775e-12
5.61547e-12
4.86414e-12
6.81412e-12
1.92526e-09
1.54585e-09
1.30092e-09
1.44403e-10
6.19108e-11
2.41934e-11
1.58775e-11
6.50048e-12
3.42822e-12
2.22795e-12
1.50798e-12
1.0217e-12
7.12163e-13
5.15231e-13
3.84037e-13
2.93029e-13
2.28356e-13
1.8166e-13
1.4754e-13
1.22411e-13
1.03855e-13
9.02056e-14
8.03033e-14
7.33453e-14
6.88118e-14
6.64148e-14
6.60926e-14
6.80549e-14
7.28175e-14
8.15164e-14
9.60768e-14
1.20514e-13
1.62053e-13
2.37231e-13
3.80889e-13
6.86999e-13
1.4067e-12
3.44894e-12
1.05927e-11
4.59358e-11
8.23629e-10
2.68298e-10
1.18265e-10
9.08066e-11
9.23327e-11
9.45953e-11
1.08684e-10
1.11864e-10
8.96225e-11
9.23196e-11
1.72779e-09
1.26903e-09
1.36205e-09
1.34637e-10
6.68927e-11
2.39551e-11
1.74555e-11
7.31424e-12
3.78854e-12
2.46222e-12
1.68577e-12
1.15011e-12
8.03101e-13
5.81345e-13
4.33285e-13
3.30067e-13
2.56215e-13
2.02483e-13
1.62878e-13
1.33395e-13
1.11309e-13
9.47121e-14
8.22426e-14
7.29184e-14
6.60465e-14
6.11576e-14
5.79662e-14
5.63718e-14
5.64083e-14
5.83746e-14
6.27322e-14
7.05461e-14
8.33038e-14
1.04237e-13
1.38129e-13
1.95725e-13
2.93595e-13
4.72367e-13
7.9393e-13
1.42634e-12
2.61758e-12
5.04318e-12
9.77391e-12
1.88038e-11
3.63998e-11
6.45395e-11
1.1276e-10
1.8454e-10
3.06561e-10
5.40606e-10
1.53138e-09
1.03306e-09
1.40423e-09
1.28209e-10
7.1358e-11
2.36547e-11
1.90057e-11
8.24961e-12
4.19442e-12
2.71982e-12
1.88343e-12
1.29546e-12
9.06876e-13
6.57369e-13
4.90726e-13
3.74259e-13
2.90585e-13
2.29447e-13
1.84197e-13
1.50371e-13
1.24914e-13
1.05674e-13
9.10993e-14
8.00577e-14
7.17339e-14
6.55618e-14
6.11717e-14
5.83871e-14
5.71536e-14
5.76505e-14
6.01608e-14
6.542e-14
7.43896e-14
8.91831e-14
1.12695e-13
1.51293e-13
2.13863e-13
3.21426e-13
5.02107e-13
8.2847e-13
1.3931e-12
2.42651e-12
4.26289e-12
7.40761e-12
1.30483e-11
2.16213e-11
3.60216e-11
6.03706e-11
1.11264e-10
2.7772e-10
1.33896e-09
8.36734e-10
1.42344e-09
1.26017e-10
7.47084e-11
2.34206e-11
2.04515e-11
9.3195e-12
4.65339e-12
3.00354e-12
2.10277e-12
1.45991e-12
1.02517e-12
7.44221e-13
5.56615e-13
4.25298e-13
3.30655e-13
2.61295e-13
2.09841e-13
1.71313e-13
1.42284e-13
1.20327e-13
1.03681e-13
9.10465e-14
8.14812e-14
7.43264e-14
6.91448e-14
6.57185e-14
6.39652e-14
6.40489e-14
6.62408e-14
7.12523e-14
8.00178e-14
9.45329e-14
1.17533e-13
1.54809e-13
2.14414e-13
3.14468e-13
4.79311e-13
7.67005e-13
1.25431e-12
2.11008e-12
3.59616e-12
6.06414e-12
1.03741e-11
1.70407e-11
2.82662e-11
4.88026e-11
9.37562e-11
2.3744e-10
1.15348e-09
6.77768e-10
1.41681e-09
1.28852e-10
7.63829e-11
2.33949e-11
2.17102e-11
1.05326e-11
5.17384e-12
3.31619e-12
2.34509e-12
1.64551e-12
1.15995e-12
8.43371e-13
6.31995e-13
4.83893e-13
3.76834e-13
2.98154e-13
2.39683e-13
1.9587e-13
1.6287e-13
1.37943e-13
1.19086e-13
1.04811e-13
9.40295e-14
8.59808e-14
8.01576e-14
7.63083e-14
7.43424e-14
7.44453e-14
7.6938e-14
8.2611e-14
9.25396e-14
1.08905e-13
1.34786e-13
1.76396e-13
2.42613e-13
3.52311e-13
5.31906e-13
8.39264e-13
1.35642e-12
2.2443e-12
3.77192e-12
6.28214e-12
1.06102e-11
1.74927e-11
2.92806e-11
5.19818e-11
1.03024e-10
2.53641e-10
9.77857e-10
5.52824e-10
1.38293e-09
1.37389e-10
7.59993e-11
2.37083e-11
2.27045e-11
1.18905e-11
5.76553e-12
3.66104e-12
2.61145e-12
1.85408e-12
1.31325e-12
9.56431e-13
7.18111e-13
5.51035e-13
4.29904e-13
3.40616e-13
2.74147e-13
2.24319e-13
1.86822e-13
1.58562e-13
1.37256e-13
1.21203e-13
1.09146e-13
1.00204e-13
9.37946e-14
8.96316e-14
8.76272e-14
8.80093e-14
9.1188e-14
9.80937e-14
1.10046e-13
1.29581e-13
1.60406e-13
2.09668e-13
2.87939e-13
4.16502e-13
6.26606e-13
9.81624e-13
1.57766e-12
2.5869e-12
4.31449e-12
7.14656e-12
1.19991e-11
1.99166e-11
3.37582e-11
6.11116e-11
1.22845e-10
2.88976e-10
8.14788e-10
4.5776e-10
1.32219e-09
1.52148e-10
7.34252e-11
2.44586e-11
2.33749e-11
1.33833e-11
6.4396e-12
4.0419e-12
2.90272e-12
2.08718e-12
1.4871e-12
1.08509e-12
8.16279e-13
6.27805e-13
4.90767e-13
3.89428e-13
3.13841e-13
2.57159e-13
2.1455e-13
1.82523e-13
1.58478e-13
1.40465e-13
1.27031e-13
1.17161e-13
1.10182e-13
1.05773e-13
1.03858e-13
1.04723e-13
1.08901e-13
1.17513e-13
1.32209e-13
1.56014e-13
1.93493e-13
2.53102e-13
3.47762e-13
5.02283e-13
7.5469e-13
1.17732e-12
1.886e-12
3.07512e-12
5.10274e-12
8.42978e-12
1.41159e-11
2.35828e-11
4.04387e-11
7.39723e-11
1.48583e-10
3.31747e-10
6.66575e-10
3.87927e-10
1.2368e-09
1.73361e-10
6.88132e-11
2.56938e-11
2.36921e-11
1.4985e-11
7.20835e-12
4.46315e-12
3.21965e-12
2.34599e-12
1.68351e-12
1.23113e-12
9.27874e-13
7.15328e-13
5.60379e-13
4.45395e-13
3.59446e-13
2.94969e-13
2.46563e-13
2.10286e-13
1.83179e-13
1.63003e-13
1.48083e-13
1.3724e-13
1.29706e-13
1.25116e-13
1.23415e-13
1.24964e-13
1.30456e-13
1.41249e-13
1.59412e-13
1.88588e-13
2.34416e-13
3.07011e-13
4.22234e-13
6.09381e-13
9.14911e-13
1.42283e-12
2.27314e-12
3.69053e-12
6.09831e-12
1.00559e-11
1.68145e-11
2.82247e-11
4.88088e-11
8.94719e-11
1.7756e-10
3.75774e-10
5.34939e-10
3.38498e-10
1.13078e-09
2.00749e-10
6.2631e-11
2.73886e-11
2.36672e-11
1.66496e-11
8.08445e-12
4.92976e-12
3.563e-12
2.63118e-12
1.90432e-12
1.39633e-12
1.0543e-12
8.14749e-13
6.39719e-13
5.09355e-13
4.11677e-13
3.3837e-13
2.83416e-13
2.42367e-13
2.11855e-13
1.89311e-13
1.72798e-13
1.60954e-13
1.52894e-13
1.48209e-13
1.4687e-13
1.49335e-13
1.56494e-13
1.70001e-13
1.92434e-13
2.28196e-13
2.84229e-13
3.72668e-13
5.12914e-13
7.3969e-13
1.10947e-12
1.7204e-12
2.74061e-12
4.43205e-12
7.29349e-12
1.20024e-11
2.00407e-11
3.37169e-11
5.85589e-11
1.06814e-10
2.07789e-10
4.17433e-10
4.20892e-10
3.04699e-10
1.0097e-09
2.33238e-10
5.56405e-11
2.94142e-11
2.33567e-11
1.83099e-11
9.07936e-12
5.44716e-12
3.93363e-12
2.94278e-12
2.15105e-12
1.58244e-12
1.19695e-12
9.27196e-13
7.29759e-13
5.82153e-13
4.71261e-13
3.88e-13
3.25686e-13
2.79312e-13
2.45044e-13
2.19932e-13
2.01742e-13
1.88895e-13
1.80371e-13
1.75711e-13
1.74925e-13
1.78588e-13
1.87832e-13
2.04672e-13
2.32302e-13
2.76043e-13
3.44389e-13
4.51896e-13
6.22138e-13
8.96255e-13
1.34231e-12
2.07512e-12
3.29452e-12
5.30625e-12
8.69376e-12
1.42679e-11
2.37739e-11
3.99804e-11
6.94327e-11
1.2531e-10
2.37727e-10
4.54675e-10
3.24656e-10
2.8199e-10
8.80911e-10
2.68617e-10
4.88325e-11
3.15287e-11
2.28581e-11
1.98819e-11
1.0201e-11
6.02127e-12
4.3326e-12
3.28015e-12
2.42469e-12
1.79108e-12
1.35717e-12
1.05374e-12
8.31425e-13
6.64604e-13
5.38913e-13
4.4449e-13
3.73956e-13
3.21681e-13
2.83307e-13
2.5545e-13
2.35532e-13
2.21718e-13
2.1284e-13
2.08376e-13
2.08387e-13
2.13592e-13
2.25416e-13
2.46316e-13
2.80213e-13
3.33536e-13
4.16605e-13
5.46833e-13
7.52651e-13
1.08267e-12
1.61816e-12
2.49309e-12
3.94252e-12
6.32201e-12
1.03076e-11
1.68559e-11
2.79955e-11
4.69362e-11
8.11677e-11
1.44289e-10
2.6617e-10
4.86425e-10
2.45575e-10
2.66404e-10
7.53099e-10
3.0341e-10
4.32548e-11
3.34149e-11
2.2295e-11
2.12717e-11
1.14504e-11
6.65848e-12
4.76124e-12
3.64194e-12
2.72552e-12
2.02357e-12
1.53616e-12
1.19531e-12
9.45532e-13
7.5745e-13
6.15293e-13
5.08437e-13
4.28783e-13
3.70026e-13
3.27216e-13
2.96473e-13
2.74822e-13
2.60138e-13
2.51073e-13
2.47038e-13
2.48153e-13
2.55319e-13
2.70308e-13
2.96106e-13
3.37499e-13
4.02223e-13
5.0273e-13
6.5977e-13
9.07344e-13
1.30264e-12
1.94174e-12
2.98027e-12
4.69164e-12
7.48668e-12
1.21405e-11
1.97621e-11
3.2673e-11
5.44745e-11
9.34545e-11
1.63102e-10
2.92204e-10
5.12146e-10
1.82264e-10
2.54681e-10
6.33539e-10
3.33499e-10
3.97213e-11
3.47304e-11
2.17972e-11
2.23883e-11
1.28167e-11
7.36534e-12
5.22115e-12
4.0262e-12
3.05283e-12
2.28076e-12
1.73489e-12
1.35267e-12
1.07273e-12
8.61294e-13
7.00962e-13
5.8036e-13
4.90672e-13
4.24864e-13
3.77324e-13
3.4361e-13
3.20292e-13
3.04907e-13
2.95899e-13
2.92601e-13
2.95207e-13
3.04831e-13
3.23659e-13
3.55311e-13
4.05576e-13
4.8373e-13
6.04675e-13
7.93005e-13
1.08902e-12
1.55962e-12
2.31719e-12
3.54141e-12
5.54658e-12
8.80341e-12
1.41893e-11
2.29687e-11
3.77445e-11
6.24456e-11
1.0594e-10
1.81115e-10
3.15131e-10
5.31707e-10
1.32911e-10
2.44006e-10
5.2599e-10
3.55251e-10
3.86706e-11
3.51642e-11
2.1474e-11
2.31617e-11
1.42721e-11
8.1479e-12
5.71397e-12
4.43049e-12
3.40474e-12
2.56282e-12
1.95398e-12
1.52628e-12
1.21339e-12
9.76531e-13
7.96317e-13
6.60649e-13
5.60024e-13
4.86635e-13
4.34135e-13
3.97444e-13
3.72616e-13
3.56796e-13
3.48184e-13
3.46022e-13
3.50589e-13
3.63253e-13
3.86685e-13
4.25249e-13
4.85897e-13
5.79682e-13
7.24291e-13
9.48678e-13
1.30016e-12
1.85641e-12
2.74744e-12
4.17911e-12
6.50829e-12
1.02686e-11
1.64398e-11
2.64367e-11
4.31191e-11
7.06491e-11
1.18235e-10
1.97774e-10
3.34386e-10
5.45047e-10
9.54267e-11
2.32143e-10
4.31964e-10
3.66299e-10
4.02696e-11
3.45484e-11
2.13868e-11
2.35599e-11
1.57701e-11
9.01073e-12
6.24128e-12
4.85218e-12
3.77816e-12
2.86899e-12
2.19356e-12
1.71626e-12
1.3676e-12
1.10328e-12
9.01531e-13
7.49517e-13
6.37095e-13
5.55663e-13
4.98062e-13
4.58499e-13
4.32434e-13
4.16562e-13
4.088e-13
4.08277e-13
4.15367e-13
4.31739e-13
4.60619e-13
5.07237e-13
5.79871e-13
6.91598e-13
8.63223e-13
1.12855e-12
1.54258e-12
2.1947e-12
3.23357e-12
4.8928e-12
7.5724e-12
1.18699e-11
1.88634e-11
3.01055e-11
4.86693e-11
7.88518e-11
1.2993e-10
2.12587e-10
3.49605e-10
5.52241e-10
6.76195e-11
2.17799e-10
3.52022e-10
3.65767e-10
4.45203e-11
3.29544e-11
2.15345e-11
2.35965e-11
1.72462e-11
9.9554e-12
6.80449e-12
5.28866e-12
4.16881e-12
3.19742e-12
2.45318e-12
1.9223e-12
1.53501e-12
1.24129e-12
1.01649e-12
8.46936e-13
7.21944e-13
6.32107e-13
5.6939e-13
5.27195e-13
5.00312e-13
4.84916e-13
4.78589e-13
4.80325e-13
4.90598e-13
5.1142e-13
5.46651e-13
6.02511e-13
6.88768e-13
8.20762e-13
1.02273e-12
1.33377e-12
1.81708e-12
2.57457e-12
3.77405e-12
5.67778e-12
8.72792e-12
1.35849e-11
2.14145e-11
3.3892e-11
5.42347e-11
8.67928e-11
1.40621e-10
2.25124e-10
3.60576e-10
5.53565e-10
4.74202e-11
2.00588e-10
2.85891e-10
3.54157e-10
5.12223e-11
3.06707e-11
2.1853e-11
2.3328e-11
1.86228e-11
1.0978e-11
7.40457e-12
5.73754e-12
4.57149e-12
3.54497e-12
2.73158e-12
2.14356e-12
1.71484e-12
1.38993e-12
1.14071e-12
9.52586e-13
8.14381e-13
7.15919e-13
6.48224e-13
6.03806e-13
5.76697e-13
5.62472e-13
5.58318e-13
5.63059e-13
5.77269e-13
6.03343e-13
6.45852e-13
7.12131e-13
8.13592e-13
9.68057e-13
1.20346e-12
1.56456e-12
2.12308e-12
2.99394e-12
4.36402e-12
6.52423e-12
9.95623e-12
1.53791e-11
2.40327e-11
3.76859e-11
5.96413e-11
9.41777e-11
1.49955e-10
2.35039e-10
3.67127e-10
5.49562e-10
3.30118e-11
1.8084e-10
2.32503e-10
3.33131e-10
5.98654e-11
2.81134e-11
2.22261e-11
2.2842e-11
1.98182e-11
1.20658e-11
8.04175e-12
6.19666e-12
4.98033e-12
3.90713e-12
3.0266e-12
2.37864e-12
1.90581e-12
1.54807e-12
1.27332e-12
1.0658e-12
9.13918e-13
8.06786e-13
7.34443e-13
6.88412e-13
6.61868e-13
6.497e-13
6.48623e-13
6.57246e-13
6.76232e-13
7.08393e-13
7.59084e-13
8.36864e-13
9.54936e-13
1.13378e-12
1.40522e-12
1.8199e-12
2.45818e-12
3.44804e-12
4.9947e-12
7.41653e-12
1.12301e-11
1.72065e-11
2.66394e-11
4.13643e-11
6.46845e-11
1.0074e-10
1.57598e-10
2.42074e-10
3.69284e-10
5.40616e-10
2.2885e-11
1.59431e-10
1.90209e-10
3.05144e-10
6.95939e-11
2.57314e-11
2.25085e-11
2.22393e-11
2.076e-11
1.31949e-11
8.71497e-12
6.66399e-12
5.38924e-12
4.27806e-12
3.33498e-12
2.62548e-12
2.1061e-12
1.71407e-12
1.41297e-12
1.1855e-12
1.01972e-12
9.04094e-13
8.27652e-13
7.80845e-13
7.55886e-13
7.4687e-13
7.49951e-13
7.63462e-13
7.88129e-13
8.27205e-13
8.86888e-13
9.77061e-13
1.11283e-12
1.31746e-12
1.62674e-12
2.09726e-12
2.81781e-12
3.92901e-12
5.65284e-12
8.33276e-12
1.25139e-11
1.90094e-11
2.91441e-11
4.47857e-11
6.91653e-11
1.06214e-10
1.63281e-10
2.46039e-10
3.67445e-10
5.26958e-10
1.58394e-11
1.37593e-10
1.57076e-10
2.72981e-10
7.92871e-11
2.39241e-11
2.25671e-11
2.16122e-11
2.1398e-11
1.43283e-11
9.42121e-12
7.13747e-12
5.79237e-12
4.65079e-12
3.65231e-12
2.88125e-12
2.31333e-12
1.88577e-12
1.55781e-12
1.31019e-12
1.13058e-12
1.00689e-12
9.27142e-13
8.80648e-13
8.58538e-13
8.53993e-13
8.62497e-13
8.82019e-13
9.13309e-13
9.60065e-13
1.02937e-12
1.13252e-12
1.28657e-12
1.51763e-12
1.86542e-12
2.39229e-12
3.19491e-12
4.42554e-12
6.32055e-12
9.24476e-12
1.37636e-11
2.07205e-11
3.14453e-11
4.78043e-11
7.2888e-11
1.10364e-10
1.66815e-10
2.46893e-10
3.61756e-10
5.09282e-10
1.09665e-11
1.16476e-10
1.31178e-10
2.39406e-10
8.77444e-11
2.29746e-11
2.23261e-11
2.10279e-11
2.17142e-11
1.54178e-11
1.01546e-11
7.61488e-12
6.18446e-12
5.01767e-12
3.97304e-12
3.1424e-12
2.5246e-12
2.06053e-12
1.70552e-12
1.43793e-12
1.24489e-12
1.11384e-12
1.03186e-12
9.87035e-13
9.69294e-13
9.70772e-13
9.86139e-13
1.0129e-12
1.05175e-12
1.10682e-12
1.18611e-12
1.30234e-12
1.47457e-12
1.73169e-12
2.11715e-12
2.69865e-12
3.57977e-12
4.92284e-12
6.97539e-12
1.01186e-11
1.49287e-11
2.22651e-11
3.34367e-11
5.02754e-11
7.5672e-11
1.13011e-10
1.68055e-10
2.44711e-10
3.5223e-10
4.88524e-10
7.61067e-12
9.68002e-11
1.10771e-10
2.06779e-10
9.39553e-11
2.30006e-11
2.17871e-11
2.05167e-11
2.17248e-11
1.64079e-11
1.0905e-11
8.09349e-12
6.561e-12
5.37079e-12
4.29055e-12
3.40453e-12
2.73649e-12
2.23524e-12
1.85331e-12
1.56632e-12
1.36062e-12
1.22325e-12
1.14039e-12
1.09886e-12
1.08727e-12
1.09654e-12
1.12038e-12
1.15567e-12
1.20296e-12
1.26677e-12
1.356e-12
1.48481e-12
1.67422e-12
1.95574e-12
2.37618e-12
3.00789e-12
3.96002e-12
5.40275e-12
7.59082e-12
1.09156e-11
1.59537e-11
2.35653e-11
3.50126e-11
5.20634e-11
7.73653e-11
1.14007e-10
1.66954e-10
2.39504e-10
3.39441e-10
4.6483e-10
5.3025e-12
7.90311e-11
9.43841e-11
1.76638e-10
9.73131e-11
2.39582e-11
2.1025e-11
2.00701e-11
2.14744e-11
1.7243e-11
1.16561e-11
8.56953e-12
6.91811e-12
5.70251e-12
4.59733e-12
3.66243e-12
2.94504e-12
2.40636e-12
1.99796e-12
1.69255e-12
1.47537e-12
1.33304e-12
1.25092e-12
1.21458e-12
1.21117e-12
1.23024e-12
1.26429e-12
1.30942e-12
1.36592e-12
1.43859e-12
1.53721e-12
1.67732e-12
1.8818e-12
2.18451e-12
2.63508e-12
3.30952e-12
4.32083e-12
5.84425e-12
8.13716e-12
1.15942e-11
1.6781e-11
2.45435e-11
3.60736e-11
5.30501e-11
7.7848e-11
1.13267e-10
1.63516e-10
2.3147e-10
3.23661e-10
4.38521e-10
3.71024e-12
6.35153e-11
8.08817e-11
1.49741e-10
9.76687e-11
2.56777e-11
2.01686e-11
1.96538e-11
2.1025e-11
1.78764e-11
1.23851e-11
9.03796e-12
7.25239e-12
6.00591e-12
4.88536e-12
3.9101e-12
3.14579e-12
2.57002e-12
2.1359e-12
1.81341e-12
1.58632e-12
1.44074e-12
1.36128e-12
1.33227e-12
1.3393e-12
1.37033e-12
1.41645e-12
1.47273e-12
1.53899e-12
1.62023e-12
1.72703e-12
1.87625e-12
2.09239e-12
2.41133e-12
2.88479e-12
3.59117e-12
4.6453e-12
6.22417e-12
8.58281e-12
1.21115e-11
1.73542e-11
2.5127e-11
3.65326e-11
5.31408e-11
7.70393e-11
1.10756e-10
1.57809e-10
2.20804e-10
3.05173e-10
4.10115e-10
2.60689e-12
5.03882e-11
6.94557e-11
1.26353e-10
9.52807e-11
2.78918e-11
1.93621e-11
1.92276e-11
2.04422e-11
1.82775e-11
1.30634e-11
9.49188e-12
7.56065e-12
6.27513e-12
5.14653e-12
4.14088e-12
3.33382e-12
2.72205e-12
2.26328e-12
1.92541e-12
1.69037e-12
1.54355e-12
1.46893e-12
1.44959e-12
1.46952e-12
1.51484e-12
1.57493e-12
1.64356e-12
1.71987e-12
1.80889e-12
1.92191e-12
2.07694e-12
2.29992e-12
2.62822e-12
3.11481e-12
3.83901e-12
4.91511e-12
6.51827e-12
8.89592e-12
1.24261e-11
1.76212e-11
2.52532e-11
3.63206e-11
5.22699e-11
7.49006e-11
1.06493e-10
1.49954e-10
2.07739e-10
2.84365e-10
3.79814e-10
1.83858e-12
3.95724e-11
5.95756e-11
1.06416e-10
9.0688e-11
3.02738e-11
1.87275e-11
1.87604e-11
1.97835e-11
1.8436e-11
1.3658e-11
9.92196e-12
7.83952e-12
6.50546e-12
5.37315e-12
4.34769e-12
3.5038e-12
2.85808e-12
2.3761e-12
2.02483e-12
1.7841e-12
1.63839e-12
1.57098e-12
1.56384e-12
1.59925e-12
1.66126e-12
1.73723e-12
1.81927e-12
1.90555e-12
2.00097e-12
2.11735e-12
2.27373e-12
2.49721e-12
2.82607e-12
3.31354e-12
4.03824e-12
5.11144e-12
6.70263e-12
9.04644e-12
1.25011e-11
1.75382e-11
2.48736e-11
3.53914e-11
5.04057e-11
7.14375e-11
1.00549e-10
1.40116e-10
1.92542e-10
2.61574e-10
3.48064e-10
1.30088e-12
3.08493e-11
5.09173e-11
8.96489e-11
8.45506e-11
3.2491e-11
1.83407e-11
1.82415e-11
1.90904e-11
1.83622e-11
1.41361e-11
1.03162e-11
8.08521e-12
6.6933e-12
5.55839e-12
4.52335e-12
3.65012e-12
2.97361e-12
2.47033e-12
2.10785e-12
1.86399e-12
1.72194e-12
1.66429e-12
1.67197e-12
1.7255e-12
1.80664e-12
1.90031e-12
1.99657e-12
2.09231e-12
2.19205e-12
2.308e-12
2.46006e-12
2.67615e-12
2.99492e-12
3.4688e-12
4.17394e-12
5.2161e-12
6.75525e-12
9.00835e-12
1.23068e-11
1.70736e-11
2.39587e-11
3.37265e-11
4.75537e-11
6.67025e-11
9.30435e-11
1.28507e-10
1.75506e-10
2.37166e-10
3.1522e-10
9.22884e-13
2.39294e-11
4.32949e-11
7.56561e-11
7.75171e-11
3.42612e-11
1.82222e-11
1.7682e-11
1.83872e-11
1.80833e-11
1.44692e-11
1.06598e-11
8.29324e-12
6.83592e-12
5.6967e-12
4.66094e-12
3.76704e-12
3.06416e-12
2.54201e-12
2.17075e-12
1.92644e-12
1.79076e-12
1.74551e-12
1.77065e-12
1.84493e-12
1.94755e-12
2.0606e-12
2.17159e-12
2.27576e-12
2.37698e-12
2.48771e-12
2.62856e-12
2.828e-12
3.12441e-12
3.5684e-12
4.23195e-12
5.21288e-12
6.65801e-12
8.76222e-12
1.18238e-11
1.62119e-11
2.25025e-11
3.13395e-11
4.37613e-11
6.07962e-11
8.41465e-11
1.15378e-10
1.56957e-10
2.11517e-10
2.81659e-10
6.56165e-13
1.8508e-11
3.66004e-11
6.40067e-11
7.0143e-11
3.53926e-11
1.83416e-11
1.71101e-11
1.76841e-11
1.76361e-11
1.46371e-11
1.0936e-11
8.45821e-12
6.93117e-12
5.78395e-12
4.75428e-12
3.84896e-12
3.12532e-12
2.58739e-12
2.20997e-12
1.96797e-12
1.84141e-12
1.81118e-12
1.85634e-12
1.95387e-12
2.08018e-12
2.21402e-12
2.33988e-12
2.45087e-12
2.54995e-12
2.64973e-12
2.77138e-12
2.94372e-12
3.20431e-12
3.60103e-12
4.20008e-12
5.08914e-12
6.39866e-12
8.29791e-12
1.1047e-11
1.49576e-11
2.05264e-11
2.82803e-11
3.91205e-11
5.38701e-11
7.40801e-11
1.0103e-10
1.37253e-10
1.85022e-10
2.47753e-10
4.67433e-13
1.42986e-11
3.07612e-11
5.4294e-11
6.28471e-11
3.5801e-11
1.86283e-11
1.65601e-11
1.69834e-11
1.70605e-11
1.46314e-11
1.11273e-11
8.57377e-12
6.9772e-12
5.81749e-12
4.79829e-12
3.89069e-12
3.15297e-12
2.60311e-12
2.22234e-12
1.9854e-12
1.87061e-12
1.85788e-12
1.92542e-12
2.04846e-12
2.20038e-12
2.35611e-12
2.4965e-12
2.61208e-12
2.70465e-12
2.78685e-12
2.88044e-12
3.01443e-12
3.22523e-12
3.55716e-12
4.06933e-12
4.83748e-12
5.97313e-12
7.6173e-12
9.98845e-12
1.3339e-11
1.80841e-11
2.46395e-11
3.37728e-11
4.61305e-11
6.31235e-11
8.58139e-11
1.16797e-10
1.58107e-10
2.13897e-10
3.33628e-13
1.10495e-11
2.57185e-11
4.61647e-11
5.59043e-11
3.55007e-11
1.89874e-11
1.6058e-11
1.62848e-11
1.63933e-11
1.44554e-11
1.12177e-11
8.63266e-12
6.97223e-12
5.79599e-12
4.78935e-12
3.88782e-12
3.14348e-12
2.58628e-12
2.20525e-12
1.97599e-12
1.87538e-12
1.88233e-12
1.97428e-12
2.12474e-12
2.30381e-12
2.48209e-12
2.63617e-12
2.75349e-12
2.83446e-12
2.89177e-12
2.94787e-12
3.03206e-12
3.17939e-12
3.43014e-12
3.83536e-12
4.4576e-12
5.38772e-12
6.73709e-12
8.68058e-12
1.14122e-11
1.52652e-11
2.05532e-11
2.79139e-11
3.78454e-11
5.16211e-11
7.01452e-11
9.60494e-11
1.31242e-10
1.80514e-10
2.38675e-13
8.54825e-12
2.14161e-11
3.93288e-11
4.94719e-11
3.45769e-11
1.93191e-11
1.56163e-11
1.55889e-11
1.56649e-11
1.41226e-11
1.11947e-11
8.62718e-12
6.91446e-12
5.7193e-12
4.72552e-12
3.83706e-12
3.09395e-12
2.53475e-12
2.15681e-12
1.93768e-12
1.85329e-12
1.88165e-12
1.99954e-12
2.1788e-12
2.38606e-12
2.58704e-12
2.75341e-12
2.86904e-12
2.93275e-12
2.95743e-12
2.96654e-12
2.98997e-12
3.06153e-12
3.21734e-12
3.49991e-12
3.95809e-12
4.66132e-12
5.69136e-12
7.17948e-12
9.26426e-12
1.21993e-11
1.62072e-11
2.17998e-11
2.9352e-11
3.9994e-11
5.45184e-11
7.55454e-11
1.04959e-10
1.48074e-10
1.71269e-13
6.62353e-12
1.77861e-11
3.35561e-11
4.36235e-11
3.31536e-11
1.95372e-11
1.52322e-11
1.48996e-11
1.48985e-11
1.36543e-11
1.10514e-11
8.55003e-12