/*--------------------------------*- C++ -*----------------------------------*\
  =========                 |
  \\      /  F ield         | OpenFOAM: The Open Source CFD Toolbox
   \\    /   O peration     | Website:  https://openfoam.org
    \\  /    A nd           | Version:  7
     \\/     M anipulation  |
\*---------------------------------------------------------------------------*/
FoamFile
{
    version     2.0;
    format      ascii;
    class       volScalarField;
    location    "0.46";
    object      p;
}
// * * * * * * * * * * * * * * * * * * * * * * * * * * * * * * * * * * * * * //

dimensions      [0 2 -2 0 0 0 0];

internalField   nonuniform List<scalar> 
70000
(
0.0982244
0.0207657
0.0082369
0.0106695
0.0108228
0.00974524
0.00878167
0.00804416
0.00742237
0.00686868
0.00636992
0.00591818
0.00550594
0.0051266
0.00477467
0.00444565
0.00413581
0.00384202
0.00356162
0.00329232
0.00303207
0.00277906
0.0025316
0.0022881
0.00204704
0.00180691
0.00156624
0.00132349
0.00107709
0.000825337
0.000566497
0.000298537
1.94246e-05
-0.000273372
-0.000582271
-0.000910501
-0.0012609
-0.0016376
-0.00204365
-0.0024842
-0.00296217
-0.00348225
-0.00404985
-0.00465633
-0.0053331
-0.00599575
-0.00680376
-0.00738431
-0.0083332
-0.00837406
0.0938565
0.0211326
0.00843991
0.0107652
0.0108774
0.00978133
0.00880992
0.0080675
0.00744196
0.00688544
0.00638452
0.00593108
0.00551748
0.00513701
0.00478414
0.00445433
0.0041438
0.00384943
0.00356852
0.00329876
0.00303812
0.00278476
0.00253698
0.00229319
0.00205187
0.00181151
0.00157063
0.00132768
0.00108109
0.000829171
0.00057017
0.000302056
2.27942e-05
-0.000270149
-0.000579194
-0.000907573
-0.00125813
-0.00163499
-0.00204124
-0.00248199
-0.00296022
-0.00348057
-0.00404856
-0.00465537
-0.0053328
-0.00599592
-0.00680508
-0.00738724
-0.00833114
-0.00835529
0.090276
0.0220725
0.00878026
0.0108943
0.0109517
0.00982611
0.00884228
0.00809373
0.00746382
0.00690395
0.0064005
0.00594512
0.00552997
0.00514825
0.00479434
0.00446365
0.00415238
0.00385737
0.00357591
0.00330567
0.0030446
0.00279086
0.00254274
0.00229866
0.00205707
0.00181647
0.00157536
0.00133221
0.00108544
0.000833357
0.000574205
0.000305952
2.6562e-05
-0.000266501
-0.000575657
-0.000904144
-0.00125481
-0.00163178
-0.00203814
-0.00247903
-0.00295743
-0.00347797
-0.00404631
-0.0046534
-0.00533175
-0.00599506
-0.00680633
-0.00739112
-0.00831651
-0.00836622
0.0871819
0.0231744
0.00924981
0.0110683
0.0110526
0.00988369
0.00888049
0.00812372
0.00748847
0.00692452
0.006418
0.00596032
0.0055434
0.00516025
0.00480518
0.00447352
0.00416143
0.00386572
0.00358366
0.0033129
0.00305138
0.00279724
0.00254877
0.00230437
0.00206251
0.00182166
0.00158034
0.00133699
0.00109006
0.000837822
0.00057854
0.000310176
3.06936e-05
-0.000262444
-0.000571658
-0.000900186
-0.00125087
-0.00162786
-0.00203422
-0.00247512
-0.00295354
-0.00347413
-0.00404262
-0.00464991
-0.00532886
-0.00599302
-0.0068053
-0.00739709
-0.00829347
-0.008412
0.0842226
0.024271
0.00981574
0.0112888
0.0111871
0.00996154
0.00892948
0.0081608
0.00751851
0.00694919
0.00643866
0.00597802
0.00555884
0.00517393
0.00481742
0.00448459
0.00417153
0.00387499
0.00359223
0.00332087
0.00305882
0.00280423
0.00255537
0.00231062
0.00206845
0.00182734
0.00158579
0.00134225
0.00109515
0.000842773
0.000583381
0.000314937
3.54031e-05
-0.000257754
-0.000566957
-0.000895439
-0.00124604
-0.00162291
-0.00202912
-0.00246984
-0.00294805
-0.00346844
-0.0040368
-0.00464406
-0.00532331
-0.00598871
-0.00680077
-0.00740458
-0.00826774
-0.00848766
0.0813137
0.02531
0.010431
0.0115358
0.0113493
0.0100613
0.00899185
0.00820716
0.00755587
0.00697969
0.00646395
0.00599947
0.00557739
0.00519022
0.0048319
0.00449759
0.0041833
0.00388574
0.00360212
0.00333002
0.00306734
0.0028122
0.00256287
0.00231772
0.0020752
0.00183379
0.00159198
0.00134822
0.00110095
0.000848444
0.00058896
0.000320468
4.09297e-05
-0.000252181
-0.000561288
-0.00088961
-0.00124
-0.00161657
-0.00202241
-0.00246268
-0.00294039
-0.0034602
-0.00402807
-0.00463487
-0.00531397
-0.00598092
-0.00679129
-0.00741207
-0.00824354
-0.00859193
0.0784491
0.0262726
0.0110618
0.0117877
0.011526
0.0101782
0.00906653
0.00826273
0.00760092
0.00701665
0.00649461
0.00602541
0.00559977
0.00520979
0.00484924
0.00451309
0.0041973
0.00389847
0.00361377
0.00334077
0.00307732
0.00282151
0.00257161
0.00232597
0.00208303
0.00184126
0.00159916
0.00135516
0.00110771
0.000855071
0.000595513
0.000327008
4.75197e-05
-0.000245466
-0.000554374
-0.000882396
-0.00123239
-0.00160844
-0.00201366
-0.00245313
-0.00292997
-0.00344868
-0.00401557
-0.00462128
-0.00529955
-0.00596823
-0.00677516
-0.00741848
-0.00822453
-0.00872322
0.0756348
0.0271509
0.0116923
0.0120327
0.0117064
0.0103059
0.00915013
0.00832546
0.00765247
0.00705949
0.00653044
0.00605589
0.00562614
0.00523293
0.00486974
0.00453144
0.00421384
0.00391351
0.00362754
0.00335345
0.00308907
0.00283247
0.00258188
0.00233565
0.00209221
0.00185003
0.00160758
0.00136332
0.00111566
0.000862891
0.000603278
0.0003348
5.54231e-05
-0.000237346
-0.000545932
-0.00087349
-0.00122289
-0.00159814
-0.00200242
-0.00244066
-0.00291616
-0.00343314
-0.00399841
-0.00460225
-0.00527871
-0.00594921
-0.00675091
-0.00742034
-0.00821336
-0.00887722
0.0728767
0.0279419
0.0123173
0.0122667
0.0118843
0.0104396
0.00923936
0.00839278
0.00770854
0.00710678
0.00657046
0.00609024
0.00565609
0.00525936
0.0048933
0.0045526
0.00423299
0.00393096
0.00364354
0.00336821
0.00310277
0.00284525
0.00259387
0.00234696
0.00210295
0.00186028
0.00161745
0.00137288
0.001125
0.000872108
0.000612461
0.000344056
6.48624e-05
-0.000227585
-0.00053571
-0.000862614
-0.00121119
-0.00158533
-0.00198829
-0.0024248
-0.00289841
-0.00341291
-0.00397578
-0.00457688
-0.00525025
-0.00592252
-0.00671738
-0.00741594
-0.00821139
-0.00904708
0.0701794
0.0286454
0.0129356
0.0124895
0.0120568
0.0105764
0.00933214
0.00846273
0.00776733
0.00715698
0.00661341
0.00612746
0.00568882
0.00528847
0.00491941
0.0045762
0.00425447
0.00395063
0.00366165
0.00338498
0.00311837
0.00285985
0.0026076
0.00235995
0.0021153
0.00187211
0.00162885
0.00138395
0.00113585
0.000882843
0.000623194
0.000354918
7.5991e-05
-0.000216016
-0.000523524
-0.000849565
-0.00119704
-0.00156973
-0.00197096
-0.0024052
-0.0028763
-0.00338751
-0.00394703
-0.00454446
-0.00521326
-0.005887
-0.00667387
-0.00740308
-0.00821785
-0.00924449
0.0675461
0.029262
0.0135464
0.0127018
0.0122225
0.010715
0.00942748
0.00853424
0.00782766
0.00720898
0.00665826
0.00616659
0.00572348
0.00531952
0.00494746
0.00460171
0.00427782
0.00397212
0.00368154
0.00340348
0.00313567
0.0028761
0.00262294
0.00237451
0.0021292
0.00188546
0.00164175
0.00139653
0.00114821
0.000895115
0.000635508
0.000367429
8.88627e-05
-0.000202573
-0.000509294
-0.000834248
-0.00118035
-0.00155122
-0.00195026
-0.00238167
-0.00284956
-0.00335666
-0.00391179
-0.00450458
-0.00516723
-0.00584179
-0.0066202
-0.00738002
-0.00822884
-0.00941905
0.0649798
0.0297918
0.0141484
0.0129047
0.0123804
0.0108544
0.009525
0.00860682
0.00788892
0.00726213
0.00670435
0.006207
0.00575944
0.00535189
0.00497686
0.00462859
0.00430255
0.003995
0.00370282
0.00342337
0.00315435
0.00289372
0.00263965
0.00239043
0.00214445
0.00190016
0.00165602
0.00141048
0.00116198
0.000908835
0.000649328
0.000381525
0.000103426
-0.0001873
-0.000493054
-0.000816692
-0.00116112
-0.00152982
-0.00192621
-0.00235421
-0.0028182
-0.00332036
-0.00387001
-0.00445716
-0.00511212
-0.0057865
-0.00655662
-0.0073455
-0.00823963
-0.00958126
0.0624831
0.0302354
0.0147395
0.0130994
0.01253
0.0109939
0.00962456
0.00868034
0.00795082
0.00731609
0.00675134
0.00624832
0.00579631
0.0053852
0.00500721
0.00465645
0.00432828
0.0040189
0.00372513
0.0034443
0.00317408
0.00291241
0.00265744
0.00240744
0.00216082
0.00191599
0.00167145
0.00142563
0.00117698
0.000923842
0.000664503
0.000397065
0.000119546
-0.000170328
-0.000474933
-0.000797026
-0.0011395
-0.00150565
-0.00189896
-0.00232301
-0.00278239
-0.00327885
-0.00382193
-0.00440249
-0.00504835
-0.00572129
-0.00648363
-0.0072988
-0.00824513
-0.00972033
0.0600585
0.0305937
0.0153173
0.0132873
0.0126707
0.0111326
0.00972604
0.00875475
0.00801322
0.00737073
0.00679909
0.00629037
0.0058339
0.00541923
0.00503829
0.00468504
0.00435475
0.00404355
0.00374822
0.00346603
0.00319462
0.00293193
0.00267607
0.00242533
0.00217808
0.00193275
0.00168783
0.00144178
0.00119303
0.000939953
0.000680856
0.000413873
0.000137047
-0.000151833
-0.000455113
-0.000775444
-0.00111569
-0.00147896
-0.00186876
-0.00228835
-0.00274247
-0.00323252
-0.00376804
-0.00434108
-0.00497667
-0.00564667
-0.00640189
-0.00723963
-0.0082401
-0.00982652
0.0577082
0.0308679
0.0158789
0.0134699
0.012802
0.0112696
0.0098293
0.00883008
0.00807605
0.00742595
0.00684752
0.00633309
0.00587213
0.00545388
0.00506999
0.00471425
0.00438184
0.00406882
0.00377193
0.00348838
0.00321581
0.0029521
0.00269538
0.00244391
0.00219606
0.00195026
0.00170501
0.00145875
0.00120995
0.000957002
0.00069822
0.000431781
0.000155758
-0.000131995
-0.000433783
-0.00075215
-0.00108991
-0.00145
-0.00183589
-0.00225059
-0.00269885
-0.00318187
-0.00370894
-0.0042736
-0.00489796
-0.00556342
-0.00631207
-0.00716797
-0.00821971
-0.00989171
0.0554345
0.0310597
0.0164211
0.0136487
0.0129238
0.0114041
0.00993414
0.00890633
0.00813922
0.00748168
0.00689661
0.00637645
0.00591096
0.00548911
0.00510225
0.00474402
0.00440948
0.00409465
0.00379618
0.00351129
0.00323755
0.00297285
0.00271527
0.00246309
0.00221466
0.00196842
0.00172285
0.00147644
0.00122764
0.00097487
0.000716472
0.000450662
0.000175544
-0.000110956
-0.000411097
-0.000727315
-0.00106235
-0.001419
-0.00180063
-0.00221004
-0.00265191
-0.00312736
-0.00364521
-0.00420069
-0.00481309
-0.00547236
-0.00621461
-0.00708382
-0.00817969
-0.00990964
0.0532389
0.0311712
0.0169409
0.0138251
0.013036
0.0115349
0.0100403
0.00898354
0.00820269
0.00753784
0.00694629
0.00642042
0.00595037
0.0055249
0.00513507
0.00477433
0.00443766
0.00412099
0.00382096
0.00353471
0.00325981
0.00299411
0.0027357
0.00248281
0.00223382
0.00198716
0.00174131
0.00149477
0.00124602
0.000993485
0.000735537
0.000470435
0.000196321
-8.88118e-05
-0.000387161
-0.000701058
-0.00103316
-0.00138611
-0.00176317
-0.00216693
-0.00260194
-0.00306934
-0.00357734
-0.00412286
-0.00472272
-0.00537415
-0.0061097
-0.00698697
-0.00811651
-0.00987756
0.0511227
0.0312048
0.0174353
0.0140003
0.0131387
0.0116611
0.0101473
0.00906171
0.00826639
0.00759434
0.00699654
0.00646499
0.00599035
0.00556125
0.00516843
0.00480517
0.00446636
0.00414786
0.00384625
0.00355865
0.00328258
0.00301589
0.00275664
0.00250306
0.00225353
0.00200646
0.00176037
0.00151373
0.00126507
0.00101282
0.000755383
0.000491064
0.000218047
-6.56062e-05
-0.000362027
-0.000673443
-0.00100242
-0.00135143
-0.00172363
-0.00212143
-0.00254917
-0.00300806
-0.00350565
-0.0040405
-0.00462731
-0.00526926
-0.00599717
-0.00687698
-0.0080276
-0.00979495
0.0490867
0.0311634
0.0179014
0.0141751
0.0132322
0.0117817
0.0102549
0.00914085
0.00833027
0.00765109
0.00704729
0.00651013
0.00603088
0.00559813
0.00520232
0.00483655
0.00449558
0.00417524
0.00387205
0.00358309
0.00330586
0.00303818
0.0027781
0.00252384
0.00227378
0.00202633
0.00178001
0.00153332
0.00128478
0.00103287
0.000776006
0.000512546
0.000240717
-4.13471e-05
-0.000335706
-0.000644484
-0.000970134
-0.001315
-0.00168206
-0.0020736
-0.00249367
-0.00294364
-0.00343034
-0.0039538
-0.00452704
-0.00515786
-0.0058766
-0.0067532
-0.00791119
-0.00966117
0.0471314
0.0310506
0.0183363
0.0143502
0.0133169
0.0118958
0.0103624
0.00922093
0.00839431
0.007708
0.00709849
0.00655581
0.00607196
0.00563554
0.00523675
0.00486845
0.00452533
0.00420314
0.00389837
0.00360805
0.00332966
0.00306099
0.00280009
0.00254517
0.00229458
0.00204678
0.00180025
0.00155354
0.00130517
0.00105364
0.000797422
0.000534896
0.000264349
-1.60169e-05
-0.000308181
-0.000614166
-0.000936302
-0.0012768
-0.00163846
-0.00202344
-0.00243549
-0.00287611
-0.00335145
-0.0038628
-0.0044219
-0.00503992
-0.00574736
-0.00661478
-0.00776628
-0.00947155
0.0452566
0.0308704
0.0187375
0.0145258
0.0133935
0.0120026
0.0104692
0.0093019
0.00845847
0.00776497
0.00715006
0.00660201
0.00611355
0.00567347
0.00527169
0.00490087
0.0045556
0.00423156
0.00392521
0.00363353
0.00335398
0.00308434
0.00282262
0.00256704
0.00231596
0.00206781
0.00182112
0.00157442
0.00132626
0.00107517
0.000819656
0.000558143
0.000288973
1.04171e-05
-0.000279416
-0.00058245
-0.000900883
-0.00123679
-0.00159279
-0.00197091
-0.00237458
-0.00280543
-0.00326894
-0.00376746
-0.00431173
-0.00491524
-0.00560873
-0.00646089
-0.00759248
-0.00923488
0.043462
0.0306269
0.0191024
0.0147017
0.0134626
0.0121013
0.0105748
0.00938365
0.00852274
0.00782189
0.00720191
0.00664868
0.00615564
0.00571189
0.00530714
0.00493381
0.00458639
0.00426051
0.00395257
0.00365954
0.00337884
0.00310822
0.0028457
0.00258948
0.00233792
0.00208946
0.00184263
0.00159597
0.00134807
0.00109748
0.000842739
0.00058232
0.000314624
3.79953e-05
-0.000249368
-0.000549289
-0.000863825
-0.00119493
-0.001545
-0.00191595
-0.00231088
-0.00273152
-0.00318274
-0.00366767
-0.0041963
-0.00478349
-0.00545997
-0.00629068
-0.00738937
-0.00894997
0.0417466
0.0303251
0.0194288
0.0148773
0.0135251
0.0121915
0.0106781
0.00946602
0.00858711
0.00787868
0.00725394
0.00669578
0.0061982
0.00575079
0.00534308
0.00496726
0.0046177
0.00428998
0.00398047
0.00368609
0.00340424
0.00313266
0.00286935
0.0026125
0.00236048
0.00211173
0.00186479
0.00161823
0.00137063
0.0011206
0.000866703
0.000607464
0.000341344
6.67619e-05
-0.000217989
-0.000514629
-0.000825072
-0.00115113
-0.00149501
-0.00185848
-0.00224431
-0.00265429
-0.00309273
-0.00356328
-0.00407533
-0.00464431
-0.00530041
-0.00610343
-0.00715701
-0.00861944
0.0401094
0.0299698
0.0197147
0.0150519
0.013582
0.0122728
0.0107786
0.00954879
0.00865158
0.00793524
0.00730606
0.00674323
0.0062412
0.00579014
0.00537949
0.00500121
0.00464952
0.00431997
0.00400889
0.00371318
0.00343019
0.00315766
0.00289357
0.00263612
0.00238367
0.00213466
0.00188764
0.00164121
0.00139398
0.00114457
0.000891583
0.000633612
0.000369174
9.67626e-05
-0.000185229
-0.000478416
-0.000784565
-0.00110535
-0.00144276
-0.00179843
-0.0021748
-0.00257364
-0.00299877
-0.00345413
-0.00394854
-0.00449733
-0.00512948
-0.00589864
-0.006896
-0.00824644
0.0385487
0.0295665
0.0199586
0.015224
0.0136342
0.012345
0.0108752
0.00963164
0.00871616
0.00799149
0.00735815
0.00679098
0.00628461
0.00582993
0.00541636
0.00503564
0.00468185
0.00435049
0.00403785
0.00374081
0.0034567
0.00318324
0.00291839
0.00266035
0.00240749
0.00215825
0.0019112
0.00166495
0.00141813
0.0011694
0.000917413
0.000660802
0.000398156
0.000128044
-0.000151037
-0.000440595
-0.000742242
-0.00105752
-0.00138818
-0.00173572
-0.00210225
-0.00248947
-0.00290074
-0.00334007
-0.00381567
-0.00434222
-0.00494677
-0.00567611
-0.00660741
-0.00783463
0.0370626
0.0291206
0.020159
0.0153921
0.0136826
0.0124082
0.0109672
0.0097142
0.00878081
0.00804738
0.00741009
0.00683894
0.00632838
0.00587012
0.00545367
0.00507053
0.00471467
0.00438152
0.00406735
0.00376899
0.00348378
0.00320939
0.00294381
0.00268521
0.00243196
0.00218254
0.00193549
0.00168946
0.00144311
0.00119514
0.000944228
0.000689073
0.000428332
0.000160652
-0.000115364
-0.00040111
-0.000698047
-0.00100757
-0.00133119
-0.00167028
-0.00202658
-0.00240171
-0.00279852
-0.00322095
-0.00367648
-0.00417871
-0.00475202
-0.0054359
-0.00629272
-0.00738813
0.0356489
0.0286378
0.0203153
0.0155541
0.0137281
0.0124624
0.0110537
0.00979599
0.00884549
0.00810285
0.00746176
0.00688702
0.00637247
0.00591068
0.00549138
0.00510588
0.00474798
0.00441307
0.00409737
0.00379773
0.00351143
0.00323614
0.00296984
0.00271071
0.00245711
0.00220753
0.00196053
0.00171478
0.00146896
0.00122181
0.000972064
0.000718465
0.000459745
0.000194634
-7.81581e-05
-0.000359909
-0.000651922
-0.000955434
-0.00127175
-0.00160203
-0.00194772
-0.00231025
-0.00269201
-0.00309665
-0.00353082
-0.00400662
-0.00454517
-0.00517841
-0.00595378
-0.00691139
0.0343053
0.0281236
0.020427
0.0157079
0.0137716
0.0125082
0.0111339
0.00987646
0.00891013
0.00815785
0.00751304
0.00693511
0.00641683
0.00595158
0.00552947
0.00514165
0.00478176
0.00444512
0.00412793
0.00382701
0.00353965
0.00326349
0.0029965
0.00273687
0.00248295
0.00223325
0.00198635
0.00174092
0.0014957
0.00124945
0.00100095
0.000749014
0.000492435
0.000230033
-3.93726e-05
-0.00031694
-0.000603814
-0.000901069
-0.00120978
-0.00153092
-0.00186561
-0.00221504
-0.00258112
-0.00296706
-0.00337854
-0.00382587
-0.00432637
-0.00490438
-0.00559279
-0.00640909
0.033029
0.0275836
0.0204942
0.0158509
0.0138137
0.012546
0.0112073
0.00995502
0.0089746
0.00821236
0.00756381
0.00698311
0.00646137
0.00599277
0.00556791
0.00517783
0.004816
0.00447766
0.00415901
0.00385685
0.00356845
0.00329145
0.0030238
0.0027637
0.0025095
0.00225972
0.00201296
0.00176792
0.00152337
0.00127809
0.00103094
0.00078076
0.000526445
0.000266895
1.03939e-06
-0.000272154
-0.000553671
-0.000844417
-0.00114524
-0.0014569
-0.00178018
-0.00211602
-0.00246579
-0.00283215
-0.00321962
-0.00363648
-0.00409595
-0.00461483
-0.00521223
-0.00588611
0.0318172
0.0270232
0.0205176
0.0159806
0.0138548
0.0125765
0.0112732
0.010031
0.00903871
0.00826635
0.00761398
0.00703089
0.00650603
0.00603422
0.00560666
0.00521438
0.00485066
0.00451068
0.0041906
0.00388724
0.00359783
0.00332002
0.00305174
0.0027912
0.00253677
0.00228695
0.00204039
0.0017958
0.00155198
0.00130776
0.00106204
0.000813739
0.000561814
0.000305261
4.31222e-05
-0.000225506
-0.000501447
-0.000785432
-0.00107808
-0.00137993
-0.00169141
-0.00201315
-0.00234599
-0.00269188
-0.00305407
-0.00343863
-0.00385446
-0.0043111
-0.00481489
-0.00534737
0.030667
0.0264475
0.0204983
0.0160947
0.0138948
0.0126005
0.0113313
0.0101037
0.00910222
0.00831977
0.00766345
0.00707832
0.00655072
0.00607588
0.00564569
0.00525127
0.00488574
0.00454416
0.00422271
0.00391817
0.00362779
0.0033492
0.00308034
0.0028194
0.00256477
0.00231497
0.00206866
0.00182459
0.00158157
0.00133849
0.0010943
0.000847987
0.00059858
0.000345171
8.69172e-05
-0.000176953
-0.000447101
-0.000724077
-0.00100827
-0.00129996
-0.00159927
-0.00190643
-0.00222172
-0.0025463
-0.00288203
-0.00323263
-0.00360265
-0.00399479
-0.00440382
-0.00479785
0.0295754
0.0258612
0.020438
0.016191
0.0139334
0.0126187
0.0113814
0.0101724
0.0091648
0.0083726
0.00771213
0.00712526
0.00659534
0.00611768
0.00568496
0.00528847
0.00492119
0.00457809
0.00425531
0.00394965
0.00365834
0.00337901
0.0031096
0.00284831
0.00259352
0.00234379
0.0020978
0.0018543
0.00161216
0.00137032
0.00112776
0.000883538
0.000636779
0.000386663
0.000132462
-0.000126459
-0.000390598
-0.000660319
-0.000935778
-0.001217
-0.00150376
-0.00179587
-0.00209303
-0.0023955
-0.00270369
-0.00301891
-0.00334145
-0.00366769
-0.0039823
-0.00424254
0.0285393
0.0252685
0.0203388
0.0162676
0.01397
0.0126319
0.0114234
0.0102364
0.00922606
0.00842475
0.00775995
0.00717159
0.00663977
0.00615955
0.00572442
0.00532595
0.004957
0.00461244
0.00428839
0.00398165
0.00368946
0.00340943
0.00313952
0.00287792
0.00262304
0.00237344
0.00212781
0.00188496
0.00164378
0.00140325
0.00116243
0.000920425
0.000676445
0.00042977
0.000179791
-7.39929e-05
-0.000331911
-0.000594137
-0.000860594
-0.00113104
-0.00140488
-0.00168152
-0.00195999
-0.00223966
-0.00251938
-0.00279807
-0.00307197
-0.00333179
-0.00355363
-0.00368638
0.0275557
0.0246734
0.0202032
0.016323
0.0140037
0.0126406
0.0114576
0.0102951
0.00928553
0.00847612
0.00780686
0.00721718
0.00668389
0.00620143
0.00576402
0.00536365
0.00499313
0.00464719
0.00432194
0.00401418
0.00372115
0.00344048
0.00317012
0.00290826
0.00265333
0.00240391
0.00215872
0.00191659
0.00167646
0.00143734
0.00119835
0.000958676
0.000717608
0.000474523
0.000228931
-1.95289e-05
-0.00027102
-0.000525521
-0.00078272
-0.00104209
-0.00130269
-0.00156346
-0.00182276
-0.00207899
-0.0023295
-0.00257084
-0.00279551
-0.00298922
-0.00312115
-0.00313409
0.0266215
0.0240791
0.0200341
0.016356
0.0140331
0.0126454
0.0114841
0.010348
0.00934271
0.00852657
0.00785279
0.00726191
0.00672757
0.00624321
0.0058037
0.00540153
0.00502953
0.00468231
0.00435593
0.00404721
0.00375341
0.00347215
0.00320138
0.00293933
0.00268441
0.00243524
0.00219055
0.00194922
0.0017102
0.00147259
0.00123554
0.00099832
0.000760295
0.000520947
0.000279905
3.69497e-05
-0.000207915
-0.000454473
-0.000702173
-0.000950203
-0.00119726
-0.0014418
-0.00168152
-0.00191383
-0.00213457
-0.00233808
-0.0025135
-0.00264226
-0.00268825
-0.00259012
0.0257337
0.0234886
0.0198346
0.0163657
0.0140569
0.0126468
0.0115033
0.0103946
0.00939707
0.00857589
0.00789769
0.00730567
0.00677067
0.0062848
0.00584341
0.00543956
0.00506617
0.00471777
0.00439035
0.00408074
0.00378622
0.00350443
0.00323333
0.00297113
0.00271629
0.00246743
0.00222331
0.00198285
0.00174505
0.00150903
0.00127403
0.00103938
0.000804528
0.000569062
0.000332728
9.54518e-05
-0.000142599
-0.000381009
-0.000618989
-0.000855439
-0.00108869
-0.0013167
-0.00153651
-0.00174455
-0.00193522
-0.00210079
-0.00222748
-0.00229326
-0.00225822
-0.00205871
0.0248896
0.0229043
0.0196081
0.0163518
0.0140737
0.0126449
0.0115158
0.0104345
0.00944804
0.00862382
0.00794149
0.00734836
0.00681307
0.0063261
0.00588306
0.00547767
0.005103
0.00475352
0.00442516
0.00411474
0.00381958
0.00353732
0.00326594
0.00300367
0.00274896
0.00250048
0.00225702
0.00201751
0.00178101
0.00154669
0.00131384
0.00108187
0.000850325
0.000618882
0.00038741
0.000155976
-7.50843e-05
-0.000305159
-0.000533223
-0.000757885
-0.00097711
-0.00118837
-0.00138805
-0.00157163
-0.00173216
-0.00186008
-0.00193914
-0.00194463
-0.00183424
-0.0015444
0.0240863
0.0223284
0.0193578
0.0163141
0.014082
0.0126396
0.0115221
0.0104677
0.00949508
0.00867007
0.0079841
0.0073899
0.00685463
0.00636697
0.00592259
0.00551581
0.00513999
0.00478953
0.00446033
0.00414919
0.00385346
0.00357082
0.00329922
0.00303694
0.00278245
0.00253442
0.00229168
0.00205321
0.00181809
0.00158557
0.00135498
0.00112582
0.000897698
0.000670413
0.000443948
0.000218511
-5.39835e-06
-0.000226972
-0.000444953
-0.000657659
-0.000862699
-0.00105707
-0.00123651
-0.00139561
-0.00152622
-0.00161715
-0.00165022
-0.00159878
-0.00141936
-0.00104981
0.0233213
0.0217623
0.0190872
0.0162531
0.0140802
0.0126308
0.0115225
0.010494
0.0095377
0.00871427
0.0080254
0.0074302
0.00689521
0.0064073
0.00596189
0.00555391
0.00517706
0.00482576
0.00449582
0.00418407
0.00388786
0.00360489
0.00333317
0.00307095
0.00281674
0.00256924
0.00232731
0.00208995
0.00185632
0.00162569
0.00139747
0.00117122
0.000946652
0.000723655
0.000502333
0.000283034
6.64171e-05
-0.000146514
-0.000354277
-0.000554906
-0.000745663
-0.000923082
-0.00108231
-0.00121711
-0.00131828
-0.0013733
-0.00136252
-0.00125812
-0.00101656
-0.000578276
0.0225921
0.0212075
0.0187993
0.0161696
0.0140673
0.0126181
0.0115176
0.0105136
0.00957544
0.00875602
0.00806525
0.00746918
0.00693471
0.00644695
0.00600088
0.00559191
0.00521418
0.00486216
0.00453161
0.00421934
0.00392274
0.00363954
0.00336776
0.00310568
0.00285184
0.00260495
0.00236391
0.00212776
0.0018957
0.00166706
0.00144131
0.00121809
0.000997186
0.000778598
0.000562543
0.000349506
0.000140304
-6.3872e-05
-0.000261321
-0.000449802
-0.000626252
-0.000786765
-0.000925945
-0.00103683
-0.00110933
-0.00112988
-0.00107786
-0.000924963
-0.000628494
-0.000132307
0.0218963
0.0206648
0.0184972
0.0160644
0.0140421
0.0126008
0.0115076
0.0105265
0.00960792
0.00879493
0.00810346
0.00750676
0.00697299
0.00648579
0.00603943
0.00562973
0.00525128
0.00489868
0.00456765
0.00425498
0.00395809
0.00367475
0.003403
0.00314115
0.00288774
0.00264155
0.00240148
0.00216663
0.00193623
0.00170968
0.0014865
0.00126641
0.00104929
0.000835222
0.000624546
0.000417878
0.000216188
2.08463e-05
-0.000166235
-0.000342559
-0.000504752
-0.000648512
-0.000767963
-0.000855523
-0.000900404
-0.000888287
-0.000798065
-0.000601538
-0.000257641
0.000285678
0.0212319
0.020135
0.0181838
0.015939
0.0140039
0.0125784
0.0114929
0.010533
0.00963488
0.00883056
0.0081398
0.00754284
0.00700997
0.00652368
0.00607744
0.00566729
0.0052883
0.00493526
0.00460388
0.00429094
0.00399388
0.00371049
0.00343886
0.00317732
0.00292445
0.00267903
0.00244002
0.00220656
0.00197792
0.00175355
0.00153305
0.00131619
0.00110295
0.000893499
0.000688298
0.000488084
0.000293974
0.000107511
-6.91984e-05
-0.000233416
-0.000381491
-0.000508768
-0.000608963
-0.000673994
-0.000692575
-0.000649931
-0.000524896
-0.000289926
9.3799e-05
0.000673791
0.0205969
0.0196184
0.0178616
0.0157948
0.0139521
0.01255
0.0114736
0.0105334
0.00965611
0.00886253
0.00817401
0.00757732
0.00704554
0.0065605
0.00611477
0.00570449
0.00532517
0.00497185
0.00464027
0.00432719
0.00403006
0.00374673
0.00347532
0.00321419
0.00296194
0.00271739
0.00247953
0.00224754
0.00202076
0.00179866
0.00158093
0.0013674
0.00115813
0.000953388
0.000753738
0.000560042
0.000373551
0.00019597
2.95849e-05
-0.000122648
-0.000256835
-0.000368019
-0.000449592
-0.000493099
-0.000486957
-0.000416221
-0.000260058
7.95694e-06
0.000423921
0.00103052
0.0199894
0.0191154
0.0175329
0.0156335
0.0138866
0.0125149
0.0114496
0.0105279
0.00967152
0.00889046
0.00820581
0.00761005
0.0070796
0.00659612
0.00615132
0.00574124
0.00536181
0.00500838
0.00467675
0.00436368
0.00406662
0.00378346
0.00351237
0.00325174
0.0030002
0.00275661
0.00252
0.00228958
0.00206473
0.001845
0.00163013
0.00142001
0.00121479
0.00101484
0.000820796
0.000633653
0.000454786
0.000286046
0.000129881
-1.05631e-05
-0.000131187
-0.000226792
-0.000290536
-0.000313724
-0.000284673
-0.000188534
-5.15677e-06
0.000290388
0.000731127
0.00135477
0.0194076
0.018626
0.0171998
0.0154569
0.0138074
0.0124725
0.0114208
0.0105168
0.0096811
0.00891403
0.0082349
0.00764089
0.00711205
0.00663043
0.00618694
0.00577742
0.00539814
0.00504479
0.00471328
0.00440035
0.0041035
0.00382063
0.00354997
0.00328994
0.00303922
0.00279668
0.00256141
0.00233264
0.00210983
0.00189255
0.00168062
0.001474
0.0012729
0.00107778
0.000889384
0.000708801
0.000537526
0.00037754
0.00023143
0.000102502
-4.98386e-06
-8.56493e-05
-0.000132512
-0.000136774
-8.68372e-05
3.18037e-05
0.000238324
0.000555858
0.00101414
0.00164591
0.01885
0.0181501
0.016864
0.0152667
0.0137147
0.0124221
0.011387
0.0105003
0.0096849
0.00893297
0.00826097
0.00766965
0.0071428
0.00666332
0.00622151
0.00581292
0.00543408
0.00508101
0.00474978
0.00443717
0.00414066
0.00385821
0.0035881
0.00332878
0.00307897
0.00283759
0.00260374
0.00237672
0.00215602
0.00194129
0.00173236
0.0015293
0.00133238
0.00114214
0.000959399
0.000785353
0.000621598
0.000470227
0.000333944
0.00021618
0.000121309
5.48198e-05
2.37406e-05
3.68423e-05
0.000105461
0.000243543
0.000469045
0.000803092
0.001272
0.00190369
0.0183151
0.0176877
0.0165272
0.0150646
0.0136091
0.0123633
0.011348
0.0104785
0.00968301
0.00894709
0.00828372
0.00769614
0.00717173
0.00669467
0.00625491
0.00584763
0.00546953
0.00511696
0.0047862
0.00447406
0.00417805
0.00389616
0.00362671
0.00336822
0.00311943
0.00287929
0.00264697
0.00242179
0.00220328
0.00199116
0.00178532
0.00158588
0.00139317
0.00120782
0.00103072
0.000863157
0.000706808
0.000563862
0.000437112
0.000330078
0.0002472
0.000194005
0.000177476
0.000206227
0.000291179
0.000445529
0.000685831
0.00103106
0.0015041
0.00212825
0.0178017
0.0172385
0.0161907
0.0148525
0.0134911
0.0122957
0.0113035
0.0104517
0.00967557
0.00895626
0.00830288
0.00772014
0.00719871
0.00672438
0.00628701
0.00588143
0.00550439
0.00515257
0.00482247
0.00451097
0.00421561
0.00393443
0.00366578
0.00340823
0.00316056
0.00292177
0.00269106
0.00246781
0.00225158
0.00204214
0.00183944
0.00164365
0.00145519
0.00127471
0.00110322
0.000942042
0.000792942
0.000658176
0.000540601
0.000443784
0.00037218
0.000331286
0.000327947
0.000370509
0.000469334
0.000636722
0.00088769
0.00123898
0.00171012
0.00232009
0.0173084
0.0168024
0.0158555
0.0146318
0.0133617
0.0122192
0.0112531
0.0104198
0.00966271
0.00896039
0.00831819
0.00774142
0.00722361
0.00675236
0.00631771
0.00591418
0.00553855
0.00518775
0.00485851
0.00454784
0.0042533
0.00397297
0.00370525
0.00344876
0.00320233
0.00296499
0.00273598
0.00251474
0.00230086
0.00209417
0.00189465
0.00170255
0.00151833
0.00134271
0.00117674
0.00102182
0.000879768
0.000752884
0.000644056
0.000556864
0.000495724
0.000466036
0.000474424
0.000528857
0.000639026
0.000816215
0.00107382
0.00142634
0.00189008
0.00248005
0.0168341
0.0163789
0.0155228
0.0144041
0.0132216
0.0121338
0.0111966
0.0103827
0.00964457
0.00895946
0.00832946
0.00775977
0.00724628
0.00677849
0.00634689
0.00594579
0.00557191
0.0052224
0.00489424
0.00458459
0.00429105
0.00401173
0.00374507
0.00348976
0.00324468
0.0030089
0.00278169
0.00256253
0.00235107
0.00214718
0.00195089
0.00176249
0.00158249
0.00141167
0.00125112
0.00110229
0.000967037
0.00084768
0.000747109
0.000668875
0.000617306
0.00059764
0.000616203
0.000680496
0.000799448
0.000983243
0.00124362
0.00159288
0.00204428
0.00260926
0.0163778
0.0159679
0.0151932
0.0141708
0.0130718
0.0120395
0.0111338
0.0103406
0.00962127
0.00895349
0.00833653
0.00777498
0.00726655
0.00680266
0.00637444
0.00597613
0.00560435
0.00525643
0.00492959
0.00462115
0.00432878
0.00405063
0.00378519
0.0035312
0.00328757
0.00305344
0.00282813
0.00261113
0.00240216
0.0022011
0.00200806
0.00182335
0.00164754
0.00148144
0.00132618
0.00118324
0.00105448
0.000942245
0.00084938
0.000779367
0.000736401
0.000725498
0.000752618
0.00082472
0.000949904
0.0011372
0.0013967
0.00173858
0.0021733
0.00270912
0.0159385
0.0155689
0.0148674
0.0139332
0.0129134
0.0119368
0.0110645
0.0102933
0.0095929
0.00894253
0.00833927
0.00778683
0.00728427
0.00682475
0.00640027
0.00600508
0.00563576
0.00528973
0.00496447
0.00465745
0.00436644
0.00408962
0.00382555
0.003573
0.00333095
0.00309858
0.00287524
0.00266048
0.00245404
0.00225586
0.00206607
0.00188504
0.00171335
0.00155186
0.00140172
0.00126442
0.00114183
0.00103625
0.000950481
0.000887891
0.000852497
0.000849039
0.000883056
0.000960907
0.00108982
0.00127764
0.00153286
0.00186367
0.00227798
0.00278125
0.0155152
0.0151818
0.014546
0.0136924
0.0127474
0.0118259
0.0109887
0.0102407
0.00955956
0.00892664
0.00833761
0.00779517
0.00729927
0.00684465
0.00642427
0.00603255
0.00566602
0.00532222
0.00499879
0.00469341