/*--------------------------------*- C++ -*----------------------------------*\
  =========                 |
  \\      /  F ield         | OpenFOAM: The Open Source CFD Toolbox
   \\    /   O peration     | Website:  https://openfoam.org
    \\  /    A nd           | Version:  7
     \\/     M anipulation  |
\*---------------------------------------------------------------------------*/
FoamFile
{
    version     2.0;
    format      ascii;
    class       surfaceScalarField;
    location    "0.46";
    object      phi;
}
// * * * * * * * * * * * * * * * * * * * * * * * * * * * * * * * * * * * * * //

dimensions      [0 3 -1 0 0 0 0];

internalField   nonuniform List<scalar> 
139350
(
6.45126e-08
9.21189e-08
3.19656e-08
3.2547e-08
2.30602e-08
8.90538e-09
1.95747e-08
3.48546e-09
1.76216e-08
1.95313e-09
1.61897e-08
1.43189e-09
1.50547e-08
1.13503e-09
1.41399e-08
9.14781e-10
1.33867e-08
7.53163e-10
1.27519e-08
6.34832e-10
1.22066e-08
5.45256e-10
1.17317e-08
4.74975e-10
1.13133e-08
4.18397e-10
1.09413e-08
3.72005e-10
1.06079e-08
3.334e-10
1.0307e-08
3.00866e-10
1.00339e-08
2.73142e-10
9.78458e-09
2.4928e-10
9.55602e-09
2.2856e-10
9.34559e-09
2.10424e-10
9.15116e-09
1.94433e-10
8.97092e-09
1.80239e-10
8.80336e-09
1.67558e-10
8.6472e-09
1.5616e-10
8.50135e-09
1.45854e-10
8.36487e-09
1.36477e-10
8.23698e-09
1.2789e-10
8.11701e-09
1.19976e-10
8.00438e-09
1.12622e-10
7.89864e-09
1.05741e-10
7.79941e-09
9.92277e-11
7.70639e-09
9.3023e-11
7.61939e-09
8.69986e-11
7.53825e-09
8.11412e-11
7.463e-09
7.52486e-11
7.3936e-09
6.94075e-11
7.33037e-09
6.32263e-11
7.27331e-09
5.70605e-11
7.22328e-09
5.00309e-11
7.18007e-09
4.32099e-11
7.14546e-09
3.46065e-11
7.11873e-09
2.67295e-11
7.10253e-09
1.62004e-11
7.09658e-09
5.94794e-12
7.10042e-09
-3.8325e-12
7.12147e-09
-2.10525e-11
7.13765e-09
-1.61803e-11
7.2014e-09
-6.37484e-11
7.03505e-09
1.66348e-10
-3.20327e-09
1.02383e-08
1.25944e-07
1.27619e-07
9.12913e-08
6.71995e-08
7.19383e-08
2.82584e-08
6.1221e-08
1.42027e-08
5.47813e-08
8.39285e-09
5.02815e-08
5.93162e-09
4.6791e-08
4.62556e-09
4.39707e-08
3.73512e-09
4.164e-08
3.08387e-09
3.96736e-08
2.60123e-09
3.79844e-08
2.23439e-09
3.65126e-08
1.94676e-09
3.52156e-08
1.7154e-09
3.40619e-08
1.52573e-09
3.30274e-08
1.3679e-09
3.20934e-08
1.23486e-09
3.12451e-08
1.12149e-09
3.04705e-08
1.0239e-09
2.97598e-08
9.39169e-10
2.91053e-08
8.65017e-10
2.85e-08
7.99658e-10
2.79386e-08
7.4167e-10
2.74163e-08
6.89904e-10
2.6929e-08
6.43422e-10
2.64734e-08
6.01445e-10
2.60466e-08
5.63318e-10
2.5646e-08
5.28485e-10
2.52695e-08
4.96464e-10
2.49153e-08
4.66826e-10
2.45818e-08
4.39205e-10
2.42678e-08
4.13226e-10
2.39722e-08
3.88609e-10
2.36943e-08
3.64948e-10
2.34333e-08
3.42083e-10
2.31892e-08
3.19407e-10
2.29615e-08
2.97055e-10
2.27509e-08
2.73817e-10
2.25573e-08
2.50683e-10
2.23825e-08
2.24812e-10
2.22261e-08
1.99604e-10
2.20926e-08
1.68116e-10
2.19796e-08
1.3979e-10
2.1897e-08
9.87351e-11
2.1836e-08
6.69646e-11
2.18192e-08
1.295e-11
2.18183e-08
-2.01589e-11
2.18774e-08
-7.52231e-11
2.19678e-08
-1.54216e-10
2.19177e-08
2.16499e-10
-3.75853e-09
2.2473e-08
1.58753e-07
1.35269e-07
1.36529e-07
8.94237e-08
1.17496e-07
4.72915e-08
1.03317e-07
2.83816e-08
9.33192e-08
1.83904e-08
8.60136e-08
1.32372e-08
8.02993e-08
1.03399e-08
7.56402e-08
8.39426e-09
7.17541e-08
6.96998e-09
6.84536e-08
5.90174e-09
6.56055e-08
5.08247e-09
6.31153e-08
4.43697e-09
6.09145e-08
3.91615e-09
5.89522e-08
3.48809e-09
5.7189e-08
3.13106e-09
5.55943e-08
2.82954e-09
5.41437e-08
2.57214e-09
5.28173e-08
2.35028e-09
5.1599e-08
2.15742e-09
5.04756e-08
1.98848e-09
4.94358e-08
1.83947e-09
4.84702e-08
1.70719e-09
4.75711e-08
1.58907e-09
4.67315e-08
1.483e-09
4.59457e-08
1.38722e-09
4.52088e-08
1.30028e-09
4.45163e-08
1.22091e-09
4.38648e-08
1.14804e-09
4.32509e-08
1.08073e-09
4.26719e-08
1.01814e-09
4.21257e-08
9.59487e-10
4.16102e-08
9.04102e-10
4.11239e-08
8.51194e-10
4.06657e-08
8.00313e-10
4.02348e-08
7.50318e-10
3.98305e-08
7.01311e-10
3.94533e-08
6.5099e-10
3.91029e-08
6.01129e-10
3.87815e-08
5.46177e-10
3.84884e-08
4.92734e-10
3.82298e-08
4.26681e-10
3.80017e-08
3.67941e-10
3.78203e-08
2.80105e-10
3.76677e-08
2.19592e-10
3.75895e-08
9.11466e-11
3.7521e-08
4.82858e-11
3.75728e-08
-1.26952e-10
3.76291e-08
-2.10556e-10
3.77136e-08
1.32058e-10
-3.42089e-09
3.73759e-08
1.75612e-07
1.31173e-07
1.65625e-07
9.94101e-08
1.52738e-07
6.0179e-08
1.40128e-07
4.09918e-08
1.29444e-07
2.90742e-08
1.20799e-07
2.1882e-08
1.13679e-07
1.746e-08
1.07689e-07
1.43846e-08
1.02578e-07
1.20806e-08
9.81649e-08
1.03148e-08
9.43098e-08
8.93764e-09
9.09072e-08
7.83954e-09
8.78776e-08
6.94575e-09
8.51596e-08
6.20605e-09
8.27052e-08
5.58554e-09
8.04757e-08
5.05899e-09
7.84402e-08
4.60765e-09
7.65732e-08
4.21728e-09
7.48537e-08
3.87694e-09
7.32641e-08
3.57806e-09
7.17897e-08
3.31386e-09
7.0418e-08
3.0789e-09
6.91383e-08
2.86878e-09
6.79414e-08
2.67987e-09
6.68195e-08
2.50915e-09
6.57657e-08
2.35407e-09
6.47741e-08
2.21248e-09
6.38397e-08
2.08249e-09
6.29579e-08
1.9625e-09
6.2125e-08
1.85104e-09
6.13377e-08
1.7468e-09
6.05932e-08
1.64859e-09
5.98893e-08
1.55514e-09
5.9224e-08
1.4656e-09
5.85961e-08
1.37818e-09
5.80045e-08
1.2929e-09
5.74493e-08
1.20619e-09
5.69298e-08
1.12064e-09
5.64484e-08
1.02763e-09
5.60038e-08
9.37247e-10
5.56033e-08
8.27244e-10
5.52417e-08
7.29532e-10
5.49385e-08
5.83273e-10
5.46715e-08
4.86642e-10
5.44963e-08
2.6633e-10
5.43379e-08
2.06663e-10
5.43184e-08
-1.07443e-10
5.43244e-08
-2.16507e-10
5.44015e-08
5.48876e-11
-2.93789e-09
5.39185e-08
1.8451e-07
1.23448e-07
1.82342e-07
1.01578e-07
1.76124e-07
6.63974e-08
1.67766e-07
4.93493e-08
1.59145e-07
3.76959e-08
1.51234e-07
2.97926e-08
1.44154e-07
2.45403e-08
1.37844e-07
2.06945e-08
1.32232e-07
1.76926e-08
1.27234e-07
1.53128e-08
1.22765e-07
1.3407e-08
1.18748e-07
1.18564e-08
1.15119e-07
1.05744e-08
1.11825e-07
9.49999e-09
1.08821e-07
8.58929e-09
1.06071e-07
7.80978e-09
1.03542e-07
7.13667e-09
1.01208e-07
6.55085e-09
9.90476e-08
6.03733e-09
9.70414e-08
5.58426e-09
9.51731e-08
5.18213e-09
9.34288e-08
4.82326e-09
9.17962e-08
4.50133e-09
9.0265e-08
4.21114e-09
8.88258e-08
3.94831e-09
8.74707e-08
3.70911e-09
8.61928e-08
3.49041e-09
8.49859e-08
3.28942e-09
8.38446e-08
3.10377e-09
8.27644e-08
2.93129e-09
8.17411e-08
2.77006e-09
8.07714e-08
2.61831e-09
7.98523e-08
2.47421e-09
7.89815e-08
2.33644e-09
7.81571e-08
2.20254e-09
7.73777e-08
2.07233e-09
7.66429e-08
1.94096e-09
7.59519e-08
1.81167e-09
7.53066e-08
1.67293e-09
7.4706e-08
1.53785e-09
7.41567e-08
1.37651e-09
7.36543e-08
1.23199e-09
7.32176e-08
1.01991e-09
7.28265e-08
8.77832e-10
7.25317e-08
5.61076e-10
7.22751e-08
4.63287e-10
7.21419e-08
2.57838e-11
7.20856e-08
-1.60201e-10
7.20741e-08
6.63364e-11
-2.41615e-09
7.15524e-08
1.90343e-07
1.15322e-07
1.91861e-07
1.0006e-07
1.90266e-07
6.79923e-08
1.86161e-07
5.34534e-08
1.80722e-07
4.31355e-08
1.74967e-07
3.55477e-08
1.69264e-07
3.02432e-08
1.6377e-07
2.6188e-08
1.58584e-07
2.28791e-08
1.53747e-07
2.01501e-08
1.49262e-07
1.78919e-08
1.45113e-07
1.60051e-08
1.41277e-07
1.44105e-08
1.37727e-07
1.30495e-08
1.34439e-07
1.18781e-08
1.31386e-07
1.08623e-08
1.28547e-07
9.97547e-09
1.25902e-07
9.19618e-09
1.23432e-07
8.50738e-09
1.21121e-07
7.89522e-09
1.18955e-07
7.34843e-09
1.1692e-07
6.85771e-09
1.15006e-07
6.41533e-09
1.13203e-07
6.01481e-09
1.115e-07
5.65067e-09
1.09891e-07
5.31817e-09
1.08368e-07
5.01328e-09
1.06925e-07
4.7324e-09
1.05557e-07
4.47246e-09
1.04257e-07
4.2306e-09
1.03023e-07
4.00431e-09
1.0185e-07
3.79122e-09
1.00735e-07
3.58895e-09
9.96761e-08
3.39572e-09
9.86702e-08
3.20836e-09
9.77161e-08
3.02645e-09
9.68131e-08
2.84399e-09
9.59602e-08
2.6645e-09
9.51591e-08
2.47411e-09
9.4409e-08
2.28793e-09
9.37155e-08
2.07e-09
9.30759e-08
1.87162e-09
9.25056e-08
1.59021e-09
9.19917e-08
1.39169e-09
9.15697e-08
9.83131e-10
9.12135e-08
8.19475e-10
9.09533e-08
2.85921e-10
9.08137e-08
-2.05957e-11
9.07068e-08
1.73233e-10
-1.8323e-09
9.0123e-08
1.95504e-07
1.07632e-07
1.98248e-07
9.73166e-08
1.98989e-07
6.72522e-08
1.97796e-07
5.4646e-08
1.95162e-07
4.57693e-08
1.91821e-07
3.88889e-08
1.88085e-07
3.39793e-08
1.84126e-07
3.01464e-08
1.80096e-07
2.69095e-08
1.76104e-07
2.41419e-08
1.72219e-07
2.1777e-08
1.6848e-07
1.97443e-08
1.64907e-07
1.79832e-08
1.6151e-07
1.64472e-08
1.58288e-07
1.50998e-08
1.55238e-07
1.39121e-08
1.52354e-07
1.286e-08
1.49626e-07
1.19237e-08
1.47047e-07
1.10868e-08
1.44606e-07
1.03357e-08
1.42296e-07
9.65884e-09
1.40107e-07
9.04661e-09
1.38031e-07
8.49082e-09
1.36062e-07
7.98447e-09
1.34191e-07
7.52152e-09
1.32412e-07
7.09669e-09
1.3072e-07
6.70541e-09
1.29109e-07
6.34355e-09
1.27574e-07
6.00751e-09
1.26111e-07
5.69393e-09
1.24715e-07
5.39984e-09
1.23384e-07
5.12238e-09
1.22114e-07
4.85871e-09
1.20903e-07
4.60659e-09
1.19749e-07
4.36227e-09
1.18651e-07
4.12501e-09
1.17607e-07
3.8879e-09
1.16617e-07
3.65439e-09
1.15682e-07
3.40899e-09
1.14803e-07
3.16752e-09
1.13982e-07
2.8903e-09
1.13221e-07
2.63273e-09
1.1253e-07
2.28174e-09
1.11905e-07
2.01665e-09
1.11363e-07
1.52468e-09
1.10911e-07
1.27188e-09
1.10533e-07
6.63288e-10
1.10295e-07
2.17818e-10
1.10103e-07
3.6567e-10
-1.20395e-09
1.09474e-07
2.0082e-07
1.00397e-07
2.03773e-07
9.43632e-08
2.05348e-07
6.5677e-08
2.05651e-07
5.43431e-08
2.04822e-07
4.65985e-08
2.03342e-07
4.03684e-08
2.01392e-07
3.59293e-08
1.99057e-07
3.24823e-08
1.96442e-07
2.95244e-08
1.9365e-07
2.69333e-08
1.90763e-07
2.46641e-08
1.87841e-07
2.26667e-08
1.84928e-07
2.08962e-08
1.82056e-07
1.93185e-08
1.79249e-07
1.79072e-08
1.76521e-07
1.66406e-08
1.7388e-07
1.55003e-08
1.71333e-07
1.44706e-08
1.68882e-07
1.3538e-08
1.66527e-07
1.2691e-08
1.64266e-07
1.19194e-08
1.62098e-07
1.12147e-08
1.6002e-07
1.05692e-08
1.58028e-07
9.97643e-09
1.56119e-07
9.43049e-09
1.54289e-07
8.9262e-09
1.52536e-07
8.45895e-09
1.50855e-07
8.02449e-09
1.49243e-07
7.61907e-09
1.47698e-07
7.23912e-09
1.46217e-07
6.88139e-09
1.44796e-07
6.54278e-09
1.43435e-07
6.2201e-09
1.4213e-07
5.91081e-09
1.40882e-07
5.61074e-09
1.39688e-07
5.31878e-09
1.38549e-07
5.02745e-09
1.37463e-07
4.73974e-09
1.36433e-07
4.4394e-09
1.35459e-07
4.14169e-09
1.34544e-07
3.80555e-09
1.3369e-07
3.48642e-09
1.32903e-07
3.06832e-09
1.3219e-07
2.73031e-09
1.31551e-07
2.16356e-09
1.31015e-07
1.80804e-09
1.30541e-07
1.13649e-09
1.30207e-07
5.52572e-10
1.29941e-07
6.31598e-10
-5.66254e-10
1.29303e-07
2.06423e-07
9.35064e-08
2.09333e-07
9.14535e-08
2.11059e-07
6.39505e-08
2.11942e-07
5.34606e-08
2.12007e-07
4.65336e-08
2.11622e-07
4.07525e-08
2.10892e-07
3.66595e-08
2.09818e-07
3.35563e-08
2.08439e-07
3.09038e-08
2.06812e-07
2.85599e-08
2.04994e-07
2.64822e-08
2.03033e-07
2.46273e-08
2.00973e-07
2.29567e-08
1.98849e-07
2.14428e-08
1.9669e-07
2.00658e-08
1.94521e-07
1.88097e-08
1.9236e-07
1.76614e-08
1.90221e-07
1.66094e-08
1.88115e-07
1.56436e-08
1.86051e-07
1.47553e-08
1.84034e-07
1.39366e-08
1.82068e-07
1.31806e-08
1.80156e-07
1.24813e-08
1.78299e-07
1.18331e-08
1.76499e-07
1.12309e-08
1.74755e-07
1.06704e-08
1.73066e-07
1.01472e-08
1.71433e-07
9.65751e-09
1.69855e-07
9.19775e-09
1.68329e-07
8.76443e-09
1.66856e-07
8.35437e-09
1.65435e-07
7.96439e-09
1.64064e-07
7.59121e-09
1.62742e-07
7.23213e-09
1.6147e-07
6.88275e-09
1.60247e-07
6.54163e-09
1.59074e-07
6.20105e-09
1.5795e-07
5.8633e-09
1.56878e-07
5.51203e-09
1.55858e-07
5.16109e-09
1.54894e-07
4.76981e-09
1.5399e-07
4.39075e-09
1.53147e-07
3.91058e-09
1.52379e-07
3.49851e-09
1.51677e-07
2.86556e-09
1.51082e-07
2.4033e-09
1.50542e-07
1.67608e-09
1.5013e-07
9.64714e-10
1.49811e-07
9.5097e-10
4.47539e-11
1.492e-07
2.12269e-07
8.68994e-08
2.15142e-07
8.85812e-08
2.16814e-07
6.22779e-08
2.17856e-07
5.24185e-08
2.18267e-07
4.61234e-08
2.18385e-07
4.06341e-08
2.18309e-07
3.67352e-08
2.18008e-07
3.38579e-08
2.17473e-07
3.1438e-08
2.16725e-07
2.93081e-08
2.15787e-07
2.74206e-08
2.14683e-07
2.5731e-08
2.1344e-07
2.41999e-08
2.12083e-07
2.28002e-08
2.10635e-07
2.15136e-08
2.09118e-07
2.03266e-08
2.07551e-07
1.92286e-08
2.0595e-07
1.82106e-08
2.04328e-07
1.72651e-08
2.02698e-07
1.63854e-08
2.01069e-07
1.55657e-08
1.99449e-07
1.48009e-08
1.97844e-07
1.40862e-08
1.96259e-07
1.34174e-08
1.947e-07
1.27906e-08
1.93168e-07
1.22021e-08
1.91666e-07
1.16486e-08
1.90197e-07
1.11265e-08
1.88762e-07
1.0633e-08
1.87362e-07
1.01649e-08
1.85997e-07
9.71909e-09
1.84669e-07
9.29274e-09
1.83377e-07
8.88256e-09
1.82124e-07
8.48589e-09
1.80908e-07
8.09824e-09
1.79732e-07
7.71796e-09
1.78596e-07
7.33729e-09
1.77501e-07
6.95778e-09
1.7645e-07
6.56343e-09
1.75445e-07
6.16621e-09
1.74487e-07
5.72697e-09
1.73584e-07
5.29373e-09
1.72736e-07
4.75919e-09
1.71957e-07
4.27703e-09
1.71235e-07
3.5874e-09
1.70616e-07
3.02227e-09
1.70048e-07
2.24486e-09
1.69589e-07
1.42296e-09
1.69245e-07
1.29505e-09
5.94269e-10
1.68696e-07
2.18315e-07
8.05651e-08
2.21191e-07
8.57053e-08
2.22787e-07
6.06818e-08
2.23858e-07
5.13479e-08
2.24376e-07
4.56047e-08
2.24672e-07
4.0338e-08
2.24873e-07
3.65341e-08
2.24951e-07
3.37807e-08
2.24883e-07
3.15053e-08
2.24671e-07
2.952e-08
2.24319e-07
2.77728e-08
2.23833e-07
2.62175e-08
2.23221e-07
2.48119e-08
2.22494e-07
2.35265e-08
2.21667e-07
2.23414e-08
2.2075e-07
2.1243e-08
2.19758e-07
2.02205e-08
2.18703e-07
1.92658e-08
2.17596e-07
1.83721e-08
2.16448e-07
1.75336e-08
2.15268e-07
1.67457e-08
2.14065e-07
1.60041e-08
2.12846e-07
1.53051e-08
2.11618e-07
1.46455e-08
2.10386e-07
1.40222e-08
2.09156e-07
1.34324e-08
2.07931e-07
1.28732e-08
2.06716e-07
1.2342e-08
2.05513e-07
1.18362e-08
2.04324e-07
1.13531e-08
2.03153e-07
1.08902e-08
2.02002e-07
1.04446e-08
2.00871e-07
1.00133e-08
1.99763e-07
9.5938e-09
1.9868e-07
9.1816e-09
1.97623e-07
8.77492e-09
1.96594e-07
8.36611e-09
1.95595e-07
7.95601e-09
1.9463e-07
7.52917e-09
1.937e-07
7.09569e-09
1.92809e-07
6.6183e-09
1.91963e-07
6.1399e-09
1.91161e-07
5.56112e-09
1.90421e-07
5.01692e-09
1.89727e-07
4.28138e-09
1.89126e-07
3.62343e-09
1.88569e-07
2.80125e-09
1.88104e-07
1.88803e-09
1.87769e-07
1.63004e-09
1.04897e-09
1.87315e-07
2.24549e-07
7.45095e-08
2.27451e-07
8.28032e-08
2.28983e-07
5.91497e-08
2.30061e-07
5.02702e-08
2.3062e-07
4.50454e-08
2.30965e-07
3.99934e-08
2.31255e-07
3.62433e-08
2.31481e-07
3.3555e-08
2.31623e-07
3.13635e-08
2.31679e-07
2.94638e-08
2.31649e-07
2.78031e-08
2.3153e-07
2.63363e-08
2.31322e-07
2.50197e-08
2.31027e-07
2.38215e-08
2.30649e-07
2.27202e-08
2.30191e-07
2.17005e-08
2.29661e-07
2.0751e-08
2.29064e-07
1.98627e-08
2.28407e-07
1.90286e-08
2.27698e-07
1.8243e-08
2.26942e-07
1.75011e-08
2.26148e-07
1.6799e-08
2.25319e-07
1.61335e-08
2.24463e-07
1.55015e-08
2.23585e-07
1.49004e-08
2.2269e-07
1.43279e-08
2.21781e-07
1.37816e-08
2.20864e-07
1.32594e-08
2.19941e-07
1.27589e-08
2.19016e-07
1.22779e-08
2.18092e-07
1.18141e-08
2.17172e-07
1.13649e-08
2.16258e-07
1.09275e-08
2.15352e-07
1.04994e-08
2.14457e-07
1.00763e-08
2.13576e-07
9.65626e-09
2.1271e-07
9.23178e-09
2.11863e-07
8.80311e-09
2.11037e-07
8.35535e-09
2.10236e-07
7.89686e-09
2.09462e-07
7.39247e-09
2.08722e-07
6.87964e-09
2.08015e-07
6.26806e-09
2.07359e-07
5.67251e-09
2.06738e-07
4.9025e-09
2.06196e-07
4.16572e-09
2.05692e-07
3.30482e-09
2.05261e-07
2.31973e-09
2.0497e-07
1.92027e-09
1.38027e-09
2.04639e-07
2.30975e-07
6.87407e-08
2.33912e-07
7.9866e-08
2.35387e-07
5.76745e-08
2.36473e-07
4.91841e-08
2.37065e-07
4.44531e-08
2.37425e-07
3.96339e-08
2.37738e-07
3.59307e-08
2.38009e-07
3.32833e-08
2.38227e-07
3.11459e-08
2.38393e-07
2.9298e-08
2.38508e-07
2.76872e-08
2.38572e-07
2.62723e-08
2.38582e-07
2.50103e-08
2.38535e-07
2.38685e-08
2.38431e-07
2.28243e-08
2.3827e-07
2.18615e-08
2.38053e-07
2.09677e-08
2.37782e-07
2.01333e-08
2.3746e-07
1.93505e-08
2.3709e-07
1.86132e-08
2.36675e-07
1.79161e-08
2.36219e-07
1.72553e-08
2.35725e-07
1.66271e-08
2.35198e-07
1.60287e-08
2.34641e-07
1.54574e-08
2.34058e-07
1.4911e-08
2.33452e-07
1.43873e-08
2.32828e-07
1.38842e-08
2.32187e-07
1.33997e-08
2.31533e-07
1.29318e-08
2.30869e-07
1.24781e-08
2.30197e-07
1.20365e-08
2.29521e-07
1.16041e-08
2.28842e-07
1.11785e-08
2.28163e-07
1.07554e-08
2.27486e-07
1.03328e-08
2.26814e-07
9.90338e-09
2.26151e-07
9.46676e-09
2.25497e-07
9.00858e-09
2.24859e-07
8.53563e-09
2.24236e-07
8.01485e-09
2.23638e-07
7.47822e-09
2.23061e-07
6.84501e-09
2.22524e-07
6.20965e-09
2.2201e-07
5.41616e-09
2.2156e-07
4.61614e-09
2.21142e-07
3.72234e-09
2.20778e-07
2.68398e-09
2.20562e-07
2.13595e-09
1.56599e-09
2.20376e-07
2.37601e-07
6.32645e-08
2.40577e-07
7.68896e-08
2.41996e-07
5.62563e-08
2.43089e-07
4.80907e-08
2.43718e-07
4.38242e-08
2.4409e-07
3.92613e-08
2.44409e-07
3.56127e-08
2.44693e-07
3.29991e-08
2.44933e-07
3.09055e-08
2.45136e-07
2.90956e-08
2.45306e-07
2.75169e-08
2.45445e-07
2.6133e-08
2.45552e-07
2.49033e-08
2.45626e-07
2.37951e-08
2.45664e-07
2.27858e-08
2.45666e-07
2.18591e-08
2.45632e-07
2.1002e-08
2.45561e-07
2.02047e-08
2.45453e-07
1.94588e-08
2.45308e-07
1.87577e-08
2.45128e-07
1.80959e-08
2.44914e-07
1.7469e-08
2.44668e-07
1.68732e-08
2.44392e-07
1.63051e-08
2.44087e-07
1.57622e-08
2.43756e-07
1.52419e-08
2.43402e-07
1.47421e-08
2.43025e-07
1.42607e-08
2.42629e-07
1.37958e-08
2.42216e-07
1.33452e-08
2.41787e-07
1.29067e-08
2.41345e-07
1.24782e-08
2.40893e-07
1.20568e-08
2.40431e-07
1.16401e-08
2.39963e-07
1.12238e-08
2.3949e-07
1.08057e-08
2.39015e-07
1.03786e-08
2.3854e-07
9.94163e-09
2.38068e-07
9.4809e-09
2.37602e-07
9.00163e-09
2.37143e-07
8.47302e-09
2.367e-07
7.92152e-09
2.36269e-07
7.27608e-09
2.35867e-07
6.6115e-09
2.35479e-07
5.80383e-09
2.3514e-07
4.95577e-09
2.34829e-07
4.03344e-09
2.34555e-07
2.95767e-09
2.34432e-07
2.25919e-09
1.5973e-09
2.34401e-07
2.44436e-07
5.80845e-08
2.47451e-07
7.38746e-08
2.48814e-07
5.48934e-08
2.4991e-07
4.69945e-08
2.50578e-07
4.31568e-08
2.50967e-07
3.88722e-08
2.51289e-07
3.52901e-08
2.51579e-07
3.27093e-08
2.51827e-07
3.06576e-08
2.5204e-07
2.88824e-08
2.52227e-07
2.73295e-08
2.52393e-07
2.59679e-08
2.52536e-07
2.47594e-08
2.52659e-07
2.36725e-08
2.5276e-07
2.26848e-08
2.52839e-07
2.178e-08
2.52896e-07
2.09456e-08
2.52929e-07
2.01715e-08
2.52938e-07
1.94493e-08
2.52924e-07
1.87723e-08
2.52885e-07
1.81348e-08
2.52822e-07
1.75319e-08
2.52736e-07
1.69596e-08
2.52626e-07
1.64146e-08
2.52494e-07
1.58938e-08
2.52341e-07
1.53948e-08
2.52168e-07
1.49151e-08
2.51976e-07
1.44527e-08
2.51767e-07
1.40055e-08
2.5154e-07
1.35714e-08
2.51299e-07
1.31481e-08
2.51044e-07
1.27333e-08
2.50776e-07
1.23242e-08
2.50498e-07
1.19184e-08
2.5021e-07
1.15114e-08
2.49915e-07
1.11009e-08
2.49614e-07
1.06797e-08
2.49309e-07
1.02465e-08
2.49002e-07
9.78771e-09
2.48697e-07
9.30719e-09
2.48394e-07
8.77638e-09
2.48099e-07
8.21627e-09
2.4781e-07
7.56533e-09
2.47541e-07
6.87995e-09
2.4728e-07
6.06473e-09
2.47054e-07
5.18191e-09
2.46854e-07
4.23353e-09
2.46681e-07
3.13098e-09
2.46654e-07
2.28595e-09
1.4826e-09
2.46769e-07
2.51489e-07
5.32026e-08
2.54532e-07
7.08313e-08
2.5585e-07
5.35749e-08
2.56944e-07
4.59008e-08
2.57649e-07
4.24517e-08
2.58057e-07
3.84639e-08
2.58386e-07
3.49618e-08
2.58681e-07
3.24143e-08
2.58934e-07
3.04046e-08
2.59151e-07
2.86649e-08
2.59344e-07
2.7137e-08
2.59517e-07
2.5795e-08
2.59672e-07
2.46039e-08
2.59812e-07
2.3533e-08
2.59936e-07
2.25604e-08
2.60046e-07
2.16704e-08
2.60141e-07
2.08506e-08
2.60221e-07
2.00912e-08
2.60286e-07
1.93841e-08
2.60336e-07
1.87223e-08
2.60371e-07
1.81002e-08
2.6039e-07
1.7513e-08
2.60393e-07
1.69564e-08
2.60381e-07
1.64269e-08
2.60353e-07
1.59215e-08
2.6031e-07
1.54374e-08
2.60253e-07
1.49723e-08
2.60182e-07
1.4524e-08
2.60097e-07
1.40903e-08
2.6e-07
1.3669e-08
2.5989e-07
1.32579e-08
2.59769e-07
1.28546e-08
2.59637e-07
1.24561e-08
2.59495e-07
1.20599e-08
2.59345e-07
1.16616e-08
2.59187e-07
1.12587e-08
2.59023e-07
1.08439e-08
2.58854e-07
1.04154e-08
2.58682e-07
9.9602e-09
2.58508e-07
9.48059e-09
2.58334e-07
8.95034e-09
2.58165e-07
8.38517e-09
2.57998e-07
7.73255e-09
2.57846e-07
7.03231e-09
2.57697e-07
6.21312e-09
2.57573e-07
5.30586e-09
2.57474e-07
4.33261e-09
2.57398e-07
3.20725e-09
2.57459e-07
2.22484e-09
1.24341e-09
2.57698e-07
2.58766e-07
4.86194e-08
2.61827e-07
6.77702e-08
2.63113e-07
5.22898e-08
2.64199e-07
4.48148e-08
2.64939e-07
4.17112e-08
2.65369e-07
3.80342e-08
2.65704e-07
3.46267e-08
2.66005e-07
3.21136e-08
2.66263e-07
3.01462e-08
2.66484e-07
2.84437e-08
2.66679e-07
2.69417e-08
2.66855e-07
2.56192e-08
2.67014e-07
2.44447e-08
2.67159e-07
2.33884e-08
2.67291e-07
2.24287e-08
2.67411e-07
2.15505e-08
2.67519e-07
2.07418e-08
2.67618e-07
1.9993e-08
2.67705e-07
1.92962e-08
2.67783e-07
1.86447e-08
2.6785e-07
1.80328e-08
2.67908e-07
1.74557e-08
2.67955e-07
1.69093e-08
2.67992e-07
1.63898e-08
2.68019e-07
1.58943e-08
2.68036e-07
1.542e-08
2.68044e-07
1.49645e-08
2.68043e-07
1.45256e-08
2.68032e-07
1.41009e-08
2.68013e-07
1.36884e-08
2.67985e-07
1.32857e-08
2.67949e-07
1.28905e-08
2.67905e-07
1.24997e-08
2.67854e-07
1.21107e-08
2.67797e-07
1.17189e-08
2.67734e-07
1.13218e-08
2.67666e-07
1.0912e-08
2.67594e-07
1.04874e-08
2.67519e-07
1.00354e-08
2.67442e-07
9.55681e-09
2.67365e-07
9.02774e-09
2.67291e-07
8.45891e-09
2.67218e-07
7.80608e-09
2.67155e-07
7.09471e-09
2.67096e-07
6.2726e-09
2.67054e-07
5.34796e-09
2.67036e-07
4.35008e-09
2.67043e-07
3.2009e-09
2.67176e-07
2.09133e-09
9.09905e-10
2.6751e-07
2.66278e-07
4.43333e-08
2.69347e-07
6.47019e-08
2.70609e-07
5.10272e-08
2.71683e-07
4.37407e-08
2.72456e-07
4.09384e-08
2.72909e-07
3.75816e-08
2.73251e-07
3.4284e-08
2.73558e-07
3.18072e-08
2.73822e-07
2.9882e-08
2.74047e-07
2.82183e-08
2.74245e-07
2.67438e-08
2.74423e-07
2.54415e-08
2.74584e-07
2.42838e-08
2.7473e-07
2.32419e-08
2.74864e-07
2.22949e-08
2.74987e-07
2.14276e-08
2.751e-07
2.06288e-08
2.75204e-07
1.98891e-08
2.753e-07
1.92007e-08
2.75387e-07
1.85571e-08
2.75467e-07
1.79529e-08
2.7554e-07
1.73831e-08
2.75605e-07
1.68437e-08
2.75664e-07
1.63311e-08
2.75716e-07
1.58422e-08
2.75762e-07
1.53743e-08
2.75802e-07
1.49249e-08
2.75835e-07
1.44918e-08
2.75863e-07
1.40729e-08
2.75886e-07
1.36659e-08
2.75903e-07
1.32685e-08
2.75915e-07
1.28784e-08
2.75922e-07
1.24924e-08
2.75925e-07
1.21078e-08
2.75924e-07
1.17203e-08
2.75919e-07
1.13267e-08
2.75911e-07
1.09202e-08
2.759e-07
1.04978e-08
2.75888e-07
1.00477e-08
2.75876e-07
9.56926e-09
2.75863e-07
9.04083e-09
2.75853e-07
8.46848e-09
2.75844e-07
7.81534e-09
2.75843e-07
7.09497e-09
2.75847e-07
6.26946e-09
2.75863e-07
5.33153e-09
2.75904e-07
4.30889e-09
2.75973e-07
3.13208e-09
2.7616e-07
1.90426e-09
5.15034e-10
2.76555e-07
2.74033e-07
4.03415e-08
2.77098e-07
6.16373e-08
2.78348e-07
4.97771e-08
2.79406e-07
4.26821e-08
2.80208e-07
4.0137e-08
2.80685e-07
3.71045e-08
2.81036e-07
3.3933e-08
2.81348e-07
3.14951e-08
2.81618e-07
2.96117e-08
2.81848e-07
2.79884e-08
2.82049e-07
2.65429e-08
2.82229e-07
2.52617e-08
2.82391e-07
2.41213e-08
2.82539e-07
2.30943e-08
2.82674e-07
2.216e-08
2.82798e-07
2.13038e-08
2.82912e-07
2.05147e-08
2.83017e-07
1.97836e-08
2.83115e-07
1.91031e-08
2.83205e-07
1.84667e-08
2.83289e-07
1.78691e-08
2.83367e-07
1.73055e-08
2.83439e-07
1.67718e-08
2.83505e-07
1.62644e-08
2.83567e-07
1.57804e-08
2.83624e-07
1.5317e-08
2.83677e-07
1.48718e-08
2.83727e-07
1.44427e-08
2.83772e-07
1.40274e-08
2.83814e-07
1.36238e-08
2.83853e-07
1.32296e-08
2.83889e-07
1.28425e-08
2.83922e-07
1.24592e-08
2.83953e-07
1.20772e-08
2.83981e-07
1.16919e-08
2.84008e-07
1.13001e-08
2.84033e-07
1.08951e-08
2.84057e-07
1.04734e-08
2.84081e-07
1.0024e-08
2.84106e-07
9.54455e-09
2.84131e-07
9.01581e-09
2.8416e-07
8.4397e-09
2.84189e-07
7.78553e-09
2.84227e-07
7.05736e-09
2.84269e-07
6.22738e-09
2.84323e-07
5.27808e-09
2.84401e-07
4.23052e-09
2.84512e-07
3.02141e-09
2.84732e-07
1.68348e-09
8.89737e-11
2.85159e-07
2.8204e-07
3.6639e-08
2.8509e-07
5.85874e-08
2.86337e-07
4.85299e-08
2.87377e-07
4.16418e-08
2.88203e-07
3.93115e-08
2.88706e-07
3.66017e-08
2.89066e-07
3.35725e-08
2.89384e-07
3.11775e-08
2.8966e-07
2.93354e-08
2.89895e-07
2.77536e-08
2.90099e-07
2.63387e-08
2.90281e-07
2.50796e-08
2.90445e-07
2.39571e-08
2.90594e-07
2.29454e-08
2.9073e-07
2.20242e-08
2.90855e-07
2.11793e-08
2.90969e-07
2.04001e-08
2.91075e-07
1.96778e-08
2.91173e-07
1.90051e-08
2.91264e-07
1.83758e-08
2.91348e-07
1.77846e-08
2.91427e-07
1.72267e-08
2.91501e-07
1.66982e-08
2.9157e-07
1.61956e-08
2.91634e-07
1.57157e-08
2.91695e-07
1.52561e-08
2.91753e-07
1.48142e-08
2.91807e-07
1.4388e-08
2.9186e-07
1.39753e-08
2.91909e-07
1.3574e-08
2.91957e-07
1.31819e-08
2.92003e-07
1.27965e-08
2.92048e-07
1.24148e-08
2.92091e-07
1.2034e-08
2.92133e-07
1.16497e-08
2.92174e-07
1.12586e-08
2.92216e-07
1.0854e-08
2.92257e-07
1.0432e-08
2.92299e-07
9.98217e-09
2.92342e-07
9.50102e-09
2.92387e-07
8.97119e-09
2.92436e-07
8.39109e-09
2.92486e-07
7.73512e-09
2.92543e-07
6.99996e-09
2.92606e-07
6.1645e-09
2.9268e-07
5.20457e-09
2.92778e-07
4.13215e-09
2.92913e-07
2.88669e-09
2.9315e-07
1.44664e-09
-3.42735e-10
2.93581e-07
2.90308e-07
3.32196e-08
2.93332e-07
5.55634e-08
2.94585e-07
4.72768e-08
2.95605e-07
4.0622e-08
2.9645e-07
3.84667e-08
2.9698e-07
3.60721e-08
2.97351e-07
3.32011e-08
2.97674e-07
3.08543e-08
2.97957e-07
2.90528e-08
2.98197e-07
2.75135e-08
2.98404e-07
2.6131e-08
2.98589e-07
2.4895e-08
2.98755e-07
2.37909e-08
2.98905e-07
2.2795e-08
2.99042e-07
2.18874e-08
2.99167e-07
2.10542e-08
2.99282e-07
2.02852e-08
2.99388e-07
1.95718e-08
2.99486e-07
1.89071e-08
2.99577e-07
1.8285e-08
2.99661e-07
1.77002e-08
2.9974e-07
1.71481e-08
2.99814e-07
1.66247e-08
2.99882e-07
1.61266e-08
2.99947e-07
1.56508e-08
3.00009e-07
1.51945e-08
3.00068e-07
1.47556e-08
3.00124e-07
1.4332e-08
3.00177e-07
1.39214e-08
3.00229e-07
1.3522e-08
3.0028e-07
1.31313e-08
3.00329e-07
1.27472e-08
3.00378e-07
1.23664e-08
3.00425e-07
1.19863e-08
3.00473e-07
1.16025e-08
3.0052e-07
1.12113e-08
3.00567e-07
1.08065e-08
3.00616e-07
1.03837e-08
3.00665e-07
9.93296e-09
3.00716e-07
9.44972e-09
3.00769e-07
8.91836e-09
3.00826e-07
8.33433e-09
3.00885e-07
7.67604e-09
3.0095e-07
6.93462e-09
3.01022e-07
6.09307e-09
3.01103e-07
5.12281e-09
3.01209e-07
4.02601e-09
3.01355e-07
2.74158e-09
3.01593e-07
1.20805e-09
-7.59037e-10
3.02009e-07
2.98847e-07
3.0075e-08
3.01834e-07
5.25765e-08
3.03101e-07
4.60097e-08
3.04099e-07
3.96239e-08
3.04958e-07
3.76081e-08
3.05515e-07
3.55152e-08
3.05898e-07
3.28175e-08
3.06227e-07
3.05256e-08
3.06516e-07
2.87641e-08
3.06761e-07
2.7268e-08
3.06973e-07
2.59194e-08
3.0716e-07
2.47076e-08
3.07329e-07
2.36227e-08
3.0748e-07
2.26431e-08
3.07618e-07
2.17495e-08
3.07744e-07
2.09284e-08
3.0786e-07
2.01698e-08
3.07966e-07
1.94657e-08
3.08064e-07
1.88091e-08
3.08154e-07
1.81943e-08
3.08239e-07
1.76161e-08
3.08317e-07
1.70698e-08
3.0839e-07
1.65517e-08
3.08458e-07
1.60582e-08
3.08523e-07
1.55863e-08
3.08584e-07
1.51335e-08
3.08642e-07
1.46974e-08
3.08698e-07
1.42762e-08
3.08752e-07
1.38677e-08
3.08804e-07
1.34699e-08
3.08854e-07
1.30806e-08
3.08904e-07
1.26974e-08
3.08953e-07
1.23174e-08
3.09002e-07
1.19377e-08
3.0905e-07
1.15541e-08
3.09099e-07
1.11627e-08
3.09148e-07
1.07575e-08
3.09198e-07
1.03337e-08
3.09249e-07
9.88191e-09
3.09302e-07
9.39655e-09
3.09357e-07
8.86355e-09
3.09415e-07
8.27592e-09
3.09476e-07
7.61517e-09
3.09542e-07
6.86829e-09
3.09615e-07
6.0205e-09
3.09698e-07
5.0402e-09
3.09803e-07
3.92014e-09
3.09949e-07
2.596e-09
3.10178e-07
9.78872e-10
-1.14396e-09
3.10563e-07
3.07667e-07
2.71954e-08
3.10605e-07
4.96379e-08
3.11893e-07
4.47221e-08
3.12869e-07
3.8648e-08
3.13736e-07
3.67408e-08
3.14321e-07
3.49309e-08
3.14718e-07
3.24201e-08
3.15052e-07
3.01911e-08
3.15347e-07
2.84693e-08
3.15599e-07
2.70166e-08
3.15814e-07
2.57036e-08
3.16005e-07
2.45173e-08
3.16175e-07
2.34522e-08
3.16329e-07
2.24894e-08
3.16468e-07
2.16103e-08
3.16595e-07
2.08016e-08
3.16711e-07
2.00538e-08
3.16817e-07
1.93592e-08
3.16916e-07
1.87111e-08
3.17006e-07
1.81038e-08
3.1709e-07
1.75322e-08
3.17168e-07
1.6992e-08
3.1724e-07
1.64791e-08
3.17308e-07
1.59903e-08
3.17372e-07
1.55224e-08
3.17432e-07
1.5073e-08
3.1749e-07
1.464e-08
3.17545e-07
1.42211e-08
3.17598e-07
1.38146e-08
3.17649e-07
1.34185e-08
3.17699e-07
1.30305e-08
3.17749e-07
1.26483e-08
3.17797e-07
1.22691e-08
3.17845e-07
1.18898e-08
3.17893e-07
1.15063e-08
3.17941e-07
1.11147e-08
3.17989e-07
1.07091e-08
3.18038e-07
1.02843e-08
3.18089e-07
9.83159e-09
3.18141e-07
9.34437e-09
3.18195e-07
8.80984e-09
3.18251e-07
8.21917e-09
3.1831e-07
7.5561e-09
3.18374e-07
6.80467e-09
3.18444e-07
5.95097e-09
3.18523e-07
4.96118e-09
3.18623e-07
3.81967e-09
3.18762e-07
2.45707e-09
3.18973e-07
7.67629e-10
-1.48522e-09
3.19315e-07
3.16777e-07
2.45696e-08
3.19656e-07
4.67587e-08
3.2097e-07
4.34081e-08
3.21924e-07
3.7694e-08
3.22795e-07
3.58699e-08
3.23406e-07
3.43202e-08
3.23819e-07
3.20074e-08
3.24159e-07
2.98505e-08
3.2446e-07
2.81685e-08
3.24717e-07
2.67591e-08
3.24938e-07
2.54833e-08
3.25131e-07
2.43238e-08
3.25304e-07
2.32792e-08
3.2546e-07
2.23337e-08
3.25601e-07
2.14696e-08
3.25728e-07
2.06737e-08
3.25845e-07
1.99371e-08
3.25952e-07
1.92522e-08
3.2605e-07
1.86128e-08
3.26141e-07
1.80132e-08
3.26225e-07
1.74485e-08
3.26302e-07
1.69145e-08
3.26374e-07
1.64071e-08
3.26442e-07
1.59229e-08
3.26505e-07
1.54592e-08
3.26565e-07
1.50134e-08
3.26621e-07
1.45832e-08
3.26675e-07
1.41669e-08
3.26728e-07
1.37625e-08
3.26778e-07
1.3368e-08
3.26827e-07
1.29813e-08
3.26875e-07
1.26002e-08
3.26923e-07
1.22217e-08
3.2697e-07
1.18429e-08
3.27016e-07
1.14597e-08
3.27063e-07
1.10681e-08
3.2711e-07
1.06622e-08
3.27157e-07
1.02367e-08
3.27206e-07
9.78314e-09
3.27256e-07
9.29443e-09
3.27307e-07
8.75869e-09
3.27361e-07
8.16566e-09
3.27416e-07
7.50068e-09
3.27475e-07
6.7457e-09
3.27539e-07
5.88685e-09
3.27612e-07
4.88845e-09
3.27703e-07
3.72802e-09
3.2783e-07
2.33024e-09
3.28017e-07
5.81011e-10
-1.77344e-09
3.28305e-07
3.26187e-07
2.2185e-08
3.28996e-07
4.39498e-08
3.30341e-07
4.20637e-08
3.31274e-07
3.67605e-08
3.32144e-07
3.50001e-08
3.32779e-07
3.36846e-08
3.33209e-07
3.1578e-08
3.33556e-07
2.95032e-08
3.33863e-07
2.78617e-08
3.34127e-07
2.64953e-08
3.34352e-07
2.5258e-08
3.34549e-07
2.41268e-08
3.34725e-07
2.31036e-08
3.34882e-07
2.21759e-08
3.35025e-07
2.13272e-08
3.35154e-07
2.05446e-08
3.35272e-07
1.98194e-08
3.35379e-07
1.91446e-08
3.35478e-07
1.85141e-08
3.35568e-07
1.79225e-08
3.35652e-07
1.73649e-08
3.35729e-07
1.68372e-08
3.35801e-07
1.63353e-08
3.35868e-07
1.58561e-08
3.35931e-07
1.53965e-08
3.3599e-07
1.49543e-08
3.36046e-07
1.45272e-08
3.36099e-07
1.41135e-08
3.3615e-07
1.37111e-08
3.362e-07
1.33184e-08
3.36248e-07
1.29332e-08
3.36295e-07