/*--------------------------------*- C++ -*----------------------------------*\
  =========                 |
  \\      /  F ield         | OpenFOAM: The Open Source CFD Toolbox
   \\    /   O peration     | Website:  https://openfoam.org
    \\  /    A nd           | Version:  7
     \\/     M anipulation  |
\*---------------------------------------------------------------------------*/
FoamFile
{
    version     2.0;
    format      ascii;
    class       surfaceScalarField;
    location    "0.46";
    object      phi_0;
}
// * * * * * * * * * * * * * * * * * * * * * * * * * * * * * * * * * * * * * //

dimensions      [0 3 -1 0 0 0 0];

internalField   nonuniform List<scalar> 
139350
(
6.45126e-08
9.21189e-08
3.19656e-08
3.2547e-08
2.30602e-08
8.90539e-09
1.95747e-08
3.48547e-09
1.76215e-08
1.95315e-09
1.61896e-08
1.43191e-09
1.50546e-08
1.13504e-09
1.41398e-08
9.14793e-10
1.33866e-08
7.53174e-10
1.27518e-08
6.34842e-10
1.22065e-08
5.45266e-10
1.17315e-08
4.74985e-10
1.13131e-08
4.18407e-10
1.09411e-08
3.72015e-10
1.06077e-08
3.3341e-10
1.03068e-08
3.00877e-10
1.00337e-08
2.73153e-10
9.78439e-09
2.49292e-10
9.55581e-09
2.28573e-10
9.34538e-09
2.10438e-10
9.15093e-09
1.94448e-10
8.97067e-09
1.80255e-10
8.8031e-09
1.67575e-10
8.64692e-09
1.56179e-10
8.50104e-09
1.45874e-10
8.36454e-09
1.36499e-10
8.23663e-09
1.27914e-10
8.11663e-09
1.20002e-10
8.00398e-09
1.1265e-10
7.89821e-09
1.05772e-10
7.79895e-09
9.9261e-11
7.70589e-09
9.30588e-11
7.61885e-09
8.70368e-11
7.53767e-09
8.11815e-11
7.46238e-09
7.52907e-11
7.39293e-09
6.94499e-11
7.32966e-09
6.32687e-11
7.27256e-09
5.70983e-11
7.2225e-09
5.00644e-11
7.17927e-09
4.32281e-11
7.14466e-09
3.46084e-11
7.11796e-09
2.66981e-11
7.10184e-09
1.61183e-11
7.09604e-09
5.80539e-12
7.10014e-09
-4.10468e-12
7.1216e-09
-2.14522e-11
7.13844e-09
-1.68421e-11
7.20315e-09
-6.47146e-11
7.03802e-09
1.65131e-10
-3.20626e-09
1.02443e-08
1.25944e-07
1.27619e-07
9.12912e-08
6.71996e-08
7.19382e-08
2.82584e-08
6.12209e-08
1.42028e-08
5.47811e-08
8.3929e-09
5.02814e-08
5.93167e-09
4.67908e-08
4.62561e-09
4.39704e-08
3.73516e-09
4.16397e-08
3.08391e-09
3.96733e-08
2.60127e-09
3.79841e-08
2.23443e-09
3.65123e-08
1.94679e-09
3.52153e-08
1.71543e-09
3.40615e-08
1.52576e-09
3.3027e-08
1.36793e-09
3.2093e-08
1.2349e-09
3.12446e-08
1.12152e-09
3.047e-08
1.02394e-09
2.97593e-08
9.39212e-10
2.91047e-08
8.65064e-10
2.84994e-08
7.99709e-10
2.7938e-08
7.41725e-10
2.74156e-08
6.89964e-10
2.69283e-08
6.43488e-10
2.64726e-08
6.01517e-10
2.60457e-08
5.63397e-10
2.56451e-08
5.28571e-10
2.52685e-08
4.96558e-10
2.49142e-08
4.6693e-10
2.45807e-08
4.39319e-10
2.42666e-08
4.1335e-10
2.39709e-08
3.88744e-10
2.36929e-08
3.65095e-10
2.34318e-08
3.42242e-10
2.31875e-08
3.19579e-10
2.29597e-08
2.97236e-10
2.2749e-08
2.74007e-10
2.25552e-08
2.50873e-10
2.23803e-08
2.25001e-10
2.22237e-08
1.99768e-10
2.20901e-08
1.68249e-10
2.1977e-08
1.39844e-10
2.18944e-08
9.86775e-11
2.18335e-08
6.67249e-11
2.1817e-08
1.23959e-11
2.18166e-08
-2.10934e-11
2.18768e-08
-7.69957e-11
2.19687e-08
-1.56622e-10
2.19213e-08
2.12553e-10
-3.76424e-09
2.24792e-08
1.58753e-07
1.35269e-07
1.36529e-07
8.94238e-08
1.17496e-07
4.72916e-08
1.03317e-07
2.83817e-08
9.3319e-08
1.83905e-08
8.60134e-08
1.32373e-08
8.02991e-08
1.034e-08
7.56399e-08
8.39435e-09
7.17537e-08
6.97007e-09
6.84532e-08
5.90181e-09
6.56051e-08
5.08254e-09
6.31148e-08
4.43704e-09
6.0914e-08
3.91621e-09
5.89516e-08
3.48815e-09
5.71884e-08
3.13112e-09
5.55937e-08
2.82961e-09
5.4143e-08
2.57221e-09
5.28166e-08
2.35036e-09
5.15983e-08
2.1575e-09
5.04748e-08
1.98857e-09
4.9435e-08
1.83956e-09
4.84694e-08
1.70729e-09
4.75702e-08
1.58918e-09
4.67306e-08
1.48312e-09
4.59447e-08
1.38736e-09
4.52077e-08
1.30043e-09
4.45152e-08
1.22108e-09
4.38635e-08
1.14823e-09
4.32495e-08
1.08094e-09
4.26704e-08
1.01837e-09
4.2124e-08
9.59735e-10
4.16084e-08
9.04375e-10
4.1122e-08
8.51494e-10
4.06636e-08
8.00641e-10
4.02325e-08
7.50675e-10
3.98281e-08
7.01695e-10
3.94507e-08
6.51402e-10
3.91e-08
6.01557e-10
3.87784e-08
5.46617e-10
3.8485e-08
4.93152e-10
3.82262e-08
4.27065e-10
3.79978e-08
3.6821e-10
3.78163e-08
2.80217e-10
3.76636e-08
2.19381e-10
3.75856e-08
9.04477e-11
3.75175e-08
4.69276e-11
3.75704e-08
-1.29899e-10
3.76282e-08
-2.14358e-10
3.77158e-08
1.24955e-10
-3.43003e-09
3.73816e-08
1.75612e-07
1.31173e-07
1.65625e-07
9.94102e-08
1.52738e-07
6.01791e-08
1.40128e-07
4.0992e-08
1.29444e-07
2.90744e-08
1.20799e-07
2.18822e-08
1.13679e-07
1.74602e-08
1.07688e-07
1.43848e-08
1.02578e-07
1.20807e-08
9.81644e-08
1.0315e-08
9.43092e-08
8.93775e-09
9.09066e-08
7.83964e-09
8.7877e-08
6.94585e-09
8.5159e-08
6.20614e-09
8.27045e-08
5.58563e-09
8.0475e-08
5.05909e-09
7.84395e-08
4.60775e-09
7.65724e-08
4.2174e-09
7.48529e-08
3.87706e-09
7.32633e-08
3.57819e-09
7.17888e-08
3.314e-09
7.04171e-08
3.07906e-09
6.91373e-08
2.86896e-09
6.79403e-08
2.68006e-09
6.68183e-08
2.50936e-09
6.57645e-08
2.3543e-09
6.47728e-08
2.21273e-09
6.38383e-08
2.08278e-09
6.29564e-08
1.96282e-09
6.21234e-08
1.85139e-09
6.13359e-08
1.74719e-09
6.05913e-08
1.64902e-09
5.98872e-08
1.55561e-09
5.92217e-08
1.46611e-09
5.85936e-08
1.37875e-09
5.80018e-08
1.29352e-09
5.74463e-08
1.20686e-09
5.69265e-08
1.12135e-09
5.64448e-08
1.02837e-09
5.6e-08
9.37981e-10
5.55991e-08
8.27949e-10
5.52372e-08
7.30094e-10
5.49338e-08
5.8365e-10
5.46666e-08
4.8656e-10
5.44914e-08
2.65587e-10
5.43333e-08
2.05023e-10
5.43149e-08
-1.11497e-10
5.43223e-08
-2.21691e-10
5.44024e-08
4.48605e-11
-2.95138e-09
5.39237e-08
1.8451e-07
1.23448e-07
1.82342e-07
1.01578e-07
1.76124e-07
6.63976e-08
1.67766e-07
4.93495e-08
1.59145e-07
3.76962e-08
1.51234e-07
2.97929e-08
1.44154e-07
2.45405e-08
1.37844e-07
2.06947e-08
1.32231e-07
1.76928e-08
1.27233e-07
1.5313e-08
1.22764e-07
1.34071e-08
1.18747e-07
1.18566e-08
1.15118e-07
1.05746e-08
1.11824e-07
9.50012e-09
1.08821e-07
8.58943e-09
1.0607e-07
7.80991e-09
1.03541e-07
7.13681e-09
1.01207e-07
6.551e-09
9.90467e-08
6.03749e-09
9.70405e-08
5.58443e-09
9.51722e-08
5.18232e-09
9.34278e-08
4.82346e-09
9.17952e-08
4.50156e-09
9.02638e-08
4.21139e-09
8.88246e-08
3.94859e-09
8.74695e-08
3.70942e-09
8.61915e-08
3.49075e-09
8.49845e-08
3.2898e-09
8.38431e-08
3.10419e-09
8.27627e-08
2.93176e-09
8.17393e-08
2.77058e-09
8.07694e-08
2.61889e-09
7.98502e-08
2.47485e-09
7.89792e-08
2.33715e-09
7.81546e-08
2.20332e-09
7.73749e-08
2.07319e-09
7.66399e-08
1.9419e-09
7.59486e-08
1.81267e-09
7.5303e-08
1.67399e-09
7.4702e-08
1.53892e-09
7.41524e-08
1.37756e-09
7.36496e-08
1.23288e-09
7.32127e-08
1.02059e-09
7.28213e-08
8.77936e-10
7.25266e-08
5.60328e-10
7.22701e-08
4.61436e-10
7.21379e-08
2.07496e-11
7.20831e-08
-1.66895e-10
7.20743e-08
5.36836e-11
-2.43436e-09
7.15573e-08
1.90343e-07
1.15322e-07
1.91861e-07
1.0006e-07
1.90266e-07
6.79925e-08
1.86161e-07
5.34536e-08
1.80722e-07
4.31358e-08
1.74967e-07
3.55481e-08
1.69264e-07
3.02435e-08
1.6377e-07
2.61883e-08
1.58583e-07
2.28794e-08
1.53746e-07
2.01504e-08
1.49261e-07
1.78922e-08
1.45112e-07
1.60053e-08
1.41276e-07
1.44107e-08
1.37727e-07
1.30496e-08
1.34438e-07
1.18783e-08
1.31385e-07
1.08625e-08
1.28546e-07
9.97564e-09
1.25901e-07
9.19636e-09
1.23431e-07
8.50757e-09
1.2112e-07
7.89543e-09
1.18954e-07
7.34866e-09
1.16919e-07
6.85796e-09
1.15005e-07
6.41561e-09
1.13201e-07
6.01512e-09
1.11499e-07
5.65101e-09
1.0989e-07
5.31855e-09
1.08367e-07
5.0137e-09
1.06924e-07
4.73288e-09
1.05555e-07
4.47299e-09
1.04256e-07
4.23119e-09
1.03021e-07
4.00496e-09
1.01848e-07
3.79195e-09
1.00733e-07
3.58977e-09
9.96738e-08
3.39662e-09
9.86677e-08
3.20936e-09
9.77134e-08
3.02755e-09
9.68101e-08
2.84519e-09
9.59569e-08
2.6658e-09
9.51554e-08
2.47548e-09
9.4405e-08
2.28934e-09
9.37112e-08
2.07141e-09
9.30712e-08
1.87285e-09
9.25006e-08
1.5912e-09
9.19865e-08
1.392e-09
9.15645e-08
9.82391e-10
9.12085e-08
8.17407e-10
9.09492e-08
2.80052e-10
9.08112e-08
-2.89281e-11
9.07069e-08
1.57982e-10
-1.85514e-09
9.01277e-08
1.95504e-07
1.07632e-07
1.98248e-07
9.73166e-08
1.98988e-07
6.72523e-08
1.97796e-07
5.46463e-08
1.95162e-07
4.57696e-08
1.91821e-07
3.88893e-08
1.88085e-07
3.39797e-08
1.84126e-07
3.01468e-08
1.80096e-07
2.69098e-08
1.76104e-07
2.41423e-08
1.72219e-07
2.17773e-08
1.68479e-07
1.97445e-08
1.64907e-07
1.79835e-08
1.61509e-07
1.64474e-08
1.58287e-07
1.51001e-08
1.55237e-07
1.39123e-08
1.52353e-07
1.28602e-08
1.49625e-07
1.19239e-08
1.47046e-07
1.10871e-08
1.44605e-07
1.03359e-08
1.42295e-07
9.6591e-09
1.40106e-07
9.0469e-09
1.3803e-07
8.49114e-09
1.3606e-07
7.98482e-09
1.3419e-07
7.52192e-09
1.32411e-07
7.09714e-09
1.30719e-07
6.70591e-09
1.29108e-07
6.34411e-09
1.27572e-07
6.00814e-09
1.26109e-07
5.69464e-09
1.24713e-07
5.40062e-09
1.23382e-07
5.12326e-09
1.22112e-07
4.85968e-09
1.20901e-07
4.60767e-09
1.19747e-07
4.36348e-09
1.18648e-07
4.12634e-09
1.17604e-07
3.88936e-09
1.16614e-07
3.65598e-09
1.15679e-07
3.41067e-09
1.14799e-07
3.16927e-09
1.13978e-07
2.89206e-09
1.13217e-07
2.63429e-09
1.12525e-07
2.28303e-09
1.119e-07
2.01717e-09
1.11358e-07
1.52396e-09
1.10906e-07
1.26956e-09
1.10529e-07
6.56689e-10
1.10292e-07
2.07824e-10
1.10103e-07
3.477e-10
-1.23138e-09
1.09479e-07
2.0082e-07
1.00397e-07
2.03773e-07
9.43633e-08
2.05348e-07
6.56772e-08
2.05651e-07
5.43434e-08
2.04822e-07
4.65988e-08
2.03342e-07
4.03688e-08
2.01392e-07
3.59298e-08
1.99056e-07
3.24828e-08
1.96441e-07
2.95249e-08
1.9365e-07
2.69338e-08
1.90763e-07
2.46645e-08
1.8784e-07
2.2667e-08
1.84927e-07
2.08965e-08
1.82056e-07
1.93188e-08
1.79248e-07
1.79075e-08
1.7652e-07
1.66408e-08
1.73879e-07
1.55005e-08
1.71332e-07
1.44709e-08
1.68881e-07
1.35383e-08
1.66526e-07
1.26913e-08
1.64265e-07
1.19197e-08
1.62097e-07
1.1215e-08
1.60019e-07
1.05696e-08
1.58027e-07
9.97683e-09
1.56118e-07
9.43094e-09
1.54288e-07
8.92671e-09
1.52534e-07
8.45952e-09
1.50853e-07
8.02513e-09
1.49242e-07
7.6198e-09
1.47696e-07
7.23993e-09
1.46215e-07
6.8823e-09
1.44794e-07
6.5438e-09
1.43433e-07
6.22123e-09
1.42128e-07
5.91208e-09
1.4088e-07
5.61215e-09
1.39686e-07
5.32034e-09
1.38546e-07
5.02916e-09
1.3746e-07
4.74161e-09
1.36429e-07
4.44139e-09
1.35455e-07
4.14376e-09
1.34539e-07
3.80764e-09
1.33685e-07
3.4883e-09
1.32898e-07
3.0699e-09
1.32185e-07
2.73103e-09
1.31546e-07
2.16286e-09
1.3101e-07
1.80545e-09
1.30537e-07
1.12922e-09
1.30204e-07
5.40986e-10
1.29941e-07
6.10833e-10
-5.9837e-10
1.29308e-07
2.06423e-07
9.35064e-08
2.09333e-07
9.14536e-08
2.11059e-07
6.39507e-08
2.11942e-07
5.34609e-08
2.12006e-07
4.6534e-08
2.11622e-07
4.07529e-08
2.10892e-07
3.666e-08
2.09818e-07
3.35568e-08
2.08439e-07
3.09043e-08
2.06812e-07
2.85604e-08
2.04994e-07
2.64827e-08
2.03033e-07
2.46277e-08
2.00972e-07
2.29571e-08
1.98848e-07
2.14432e-08
1.96689e-07
2.00661e-08
1.9452e-07
1.88101e-08
1.92359e-07
1.76618e-08
1.9022e-07
1.66097e-08
1.88114e-07
1.5644e-08
1.8605e-07
1.47556e-08
1.84033e-07
1.39369e-08
1.82067e-07
1.3181e-08
1.80155e-07
1.24817e-08
1.78298e-07
1.18335e-08
1.76497e-07
1.12315e-08
1.74753e-07
1.06709e-08
1.73065e-07
1.01479e-08
1.71432e-07
9.65823e-09
1.69853e-07
9.19856e-09
1.68328e-07
8.76535e-09
1.66854e-07
8.3554e-09
1.65433e-07
7.96555e-09
1.64061e-07
7.5925e-09
1.6274e-07
7.23358e-09
1.61468e-07
6.88436e-09
1.60245e-07
6.54342e-09
1.59071e-07
6.20301e-09
1.57947e-07
5.86544e-09
1.56874e-07
5.51432e-09
1.55854e-07
5.16347e-09
1.5489e-07
4.77222e-09
1.53985e-07
4.39294e-09
1.53143e-07
3.91244e-09
1.52374e-07
3.49943e-09
1.51672e-07
2.8649e-09
1.51077e-07
2.40045e-09
1.50538e-07
1.66817e-09
1.50128e-07
9.51644e-10
1.49811e-07
9.27424e-10
7.84638e-12
1.49205e-07
2.12269e-07
8.68995e-08
2.15142e-07
8.85813e-08
2.16814e-07
6.22781e-08
2.17856e-07
5.24188e-08
2.18266e-07
4.61239e-08
2.18385e-07
4.06346e-08
2.18309e-07
3.67357e-08
2.18007e-07
3.38585e-08
2.17473e-07
3.14385e-08
2.16725e-07
2.93086e-08
2.15786e-07
2.74212e-08
2.14683e-07
2.57315e-08
2.13439e-07
2.42004e-08
2.12082e-07
2.28007e-08
2.10634e-07
2.1514e-08
2.09117e-07
2.0327e-08
2.0755e-07
1.9229e-08
2.05949e-07
1.8211e-08
2.04327e-07
1.72655e-08
2.02697e-07
1.63858e-08
2.01068e-07
1.55662e-08
1.99447e-07
1.48013e-08
1.97842e-07
1.40867e-08
1.96258e-07
1.34179e-08
1.94698e-07
1.27912e-08
1.93166e-07
1.22028e-08
1.91665e-07
1.16493e-08
1.90196e-07
1.11273e-08
1.8876e-07
1.06339e-08
1.8736e-07
1.01659e-08
1.85995e-07
9.72024e-09
1.84667e-07
9.29403e-09
1.83375e-07
8.88401e-09
1.82121e-07
8.48751e-09
1.80905e-07
8.10004e-09
1.79729e-07
7.71997e-09
1.78592e-07
7.3395e-09
1.77498e-07
6.96019e-09
1.76446e-07
6.566e-09
1.75441e-07
6.1689e-09
1.74483e-07
5.72969e-09
1.7358e-07
5.29622e-09
1.72731e-07
4.76132e-09
1.71952e-07
4.27813e-09
1.7123e-07
3.58677e-09
1.70612e-07
3.01919e-09
1.70043e-07
2.23637e-09
1.69586e-07
1.40855e-09
1.69245e-07
1.26909e-09
5.5204e-10
1.68701e-07
2.18315e-07
8.05651e-08
2.21191e-07
8.57054e-08
2.22787e-07
6.06821e-08
2.23858e-07
5.13483e-08
2.24376e-07
4.56051e-08
2.24672e-07
4.03386e-08
2.24873e-07
3.65347e-08
2.24951e-07
3.37813e-08
2.24883e-07
3.1506e-08
2.24671e-07
2.95206e-08
2.24319e-07
2.77735e-08
2.23832e-07
2.62181e-08
2.2322e-07
2.48125e-08
2.22494e-07
2.3527e-08
2.21666e-07
2.2342e-08
2.20749e-07
2.12435e-08
2.19757e-07
2.0221e-08
2.18702e-07
1.92663e-08
2.17595e-07
1.83726e-08
2.16447e-07
1.75341e-08
2.15267e-07
1.67462e-08
2.14063e-07
1.60046e-08
2.12844e-07
1.53057e-08
2.11616e-07
1.46461e-08
2.10385e-07
1.40229e-08
2.09154e-07
1.34331e-08
2.0793e-07
1.2874e-08
2.06714e-07
1.23428e-08
2.05511e-07
1.18372e-08
2.04322e-07
1.13542e-08
2.03151e-07
1.08914e-08
2.01999e-07
1.0446e-08
2.00868e-07
1.00149e-08
1.9976e-07
9.59559e-09
1.98677e-07
9.1836e-09
1.9762e-07
8.77715e-09
1.9659e-07
8.36855e-09
1.95592e-07
7.95868e-09
1.94626e-07
7.53202e-09
1.93696e-07
7.09866e-09
1.92805e-07
6.62133e-09
1.91958e-07
6.14268e-09
1.91156e-07
5.5635e-09
1.90416e-07
5.0182e-09
1.89722e-07
4.2808e-09
1.89121e-07
3.62016e-09
1.88565e-07
2.79223e-09
1.88101e-07
1.87241e-09
1.87768e-07
1.60197e-09
1.0016e-09
1.87319e-07
2.24549e-07
7.45095e-08
2.27451e-07
8.28033e-08
2.28983e-07
5.91499e-08
2.30061e-07
5.02706e-08
2.3062e-07
4.50459e-08
2.30965e-07
3.9994e-08
2.31255e-07
3.6244e-08
2.31481e-07
3.35557e-08
2.31623e-07
3.13642e-08
2.31679e-07
2.94645e-08
2.31649e-07
2.78038e-08
2.3153e-07
2.63369e-08
2.31322e-07
2.50203e-08
2.31027e-07
2.38221e-08
2.30648e-07
2.27208e-08
2.3019e-07
2.17011e-08
2.2966e-07
2.07516e-08
2.29063e-07
1.98633e-08
2.28406e-07
1.90292e-08
2.27697e-07
1.82436e-08
2.26941e-07
1.75017e-08
2.26146e-07
1.67996e-08
2.25318e-07
1.61341e-08
2.24462e-07
1.55021e-08
2.23583e-07
1.49011e-08
2.22688e-07
1.43287e-08
2.21779e-07
1.37825e-08
2.20862e-07
1.32604e-08
2.19939e-07
1.276e-08
2.19014e-07
1.22792e-08
2.1809e-07
1.18155e-08
2.17169e-07
1.13665e-08
2.16255e-07
1.09293e-08
2.15349e-07
1.05014e-08
2.14454e-07
1.00785e-08
2.13573e-07
9.6587e-09
2.12707e-07
9.23445e-09
2.1186e-07
8.80603e-09
2.11033e-07
8.35847e-09
2.10232e-07
7.90012e-09
2.09457e-07
7.39578e-09
2.08717e-07
6.88269e-09
2.0801e-07
6.27067e-09
2.07354e-07
5.67397e-09
2.06733e-07
4.90196e-09
2.06191e-07
4.1623e-09
2.05688e-07
3.29535e-09
2.05257e-07
2.30298e-09
2.04969e-07
1.89048e-09
1.32839e-09
2.04642e-07
2.30975e-07
6.87408e-08
2.33912e-07
7.98661e-08
2.35387e-07
5.76747e-08
2.36473e-07
4.91845e-08
2.37065e-07
4.44536e-08
2.37425e-07
3.96345e-08
2.37737e-07
3.59314e-08
2.38009e-07
3.32841e-08
2.38227e-07
3.11467e-08
2.38392e-07
2.92988e-08
2.38508e-07
2.7688e-08
2.38572e-07
2.62731e-08
2.38581e-07
2.50111e-08
2.38534e-07
2.38692e-08
2.3843e-07
2.2825e-08
2.38269e-07
2.18622e-08
2.38052e-07
2.09684e-08
2.37781e-07
2.0134e-08
2.37459e-07
1.93512e-08
2.37089e-07
1.86138e-08
2.36674e-07
1.79168e-08
2.36217e-07
1.7256e-08
2.35724e-07
1.66279e-08
2.35196e-07
1.60295e-08
2.34639e-07
1.54582e-08
2.34056e-07
1.49118e-08
2.3345e-07
1.43882e-08
2.32826e-07
1.38852e-08
2.32185e-07
1.34009e-08
2.31531e-07
1.29331e-08
2.30867e-07
1.24797e-08
2.30195e-07
1.20382e-08
2.29518e-07
1.1606e-08
2.28839e-07
1.11806e-08
2.28159e-07
1.07578e-08
2.27483e-07
1.03355e-08
2.26811e-07
9.90628e-09
2.26147e-07
9.46992e-09
2.25494e-07
9.01197e-09
2.24854e-07
8.53914e-09
2.24232e-07
8.01843e-09
2.23633e-07
7.48153e-09
2.23056e-07
6.84785e-09
2.22518e-07
6.2113e-09
2.22005e-07
5.41566e-09
2.21554e-07
4.61262e-09
2.21137e-07
3.71258e-09
2.20774e-07
2.66621e-09
2.2056e-07
2.10474e-09
1.51066e-09
2.20377e-07
2.37601e-07
6.32645e-08
2.40577e-07
7.68897e-08
2.41996e-07
5.62566e-08
2.43089e-07
4.80911e-08
2.43718e-07
4.38248e-08
2.4409e-07
3.9262e-08
2.44408e-07
3.56134e-08
2.44693e-07
3.29999e-08
2.44933e-07
3.09064e-08
2.45135e-07
2.90965e-08
2.45305e-07
2.75177e-08
2.45445e-07
2.61339e-08
2.45552e-07
2.49041e-08
2.45625e-07
2.37959e-08
2.45663e-07
2.27867e-08
2.45666e-07
2.18599e-08
2.45631e-07
2.10029e-08
2.4556e-07
2.02055e-08
2.45451e-07
1.94596e-08
2.45307e-07
1.87585e-08
2.45127e-07
1.80968e-08
2.44913e-07
1.74699e-08
2.44667e-07
1.6874e-08
2.4439e-07
1.6306e-08
2.44085e-07
1.57631e-08
2.43754e-07
1.52428e-08
2.434e-07
1.47431e-08
2.43023e-07
1.42619e-08
2.42627e-07
1.37971e-08
2.42213e-07
1.33466e-08
2.41785e-07
1.29083e-08
2.41343e-07
1.248e-08
2.4089e-07
1.20588e-08
2.40428e-07
1.16424e-08
2.3996e-07
1.12263e-08
2.39487e-07
1.08086e-08
2.39011e-07
1.03817e-08
2.38536e-07
9.94503e-09
2.38063e-07
9.48453e-09
2.37597e-07
9.00541e-09
2.37139e-07
8.47686e-09
2.36695e-07
7.92508e-09
2.36264e-07
7.27913e-09
2.35862e-07
6.61333e-09
2.35474e-07
5.80341e-09
2.35135e-07
4.95217e-09
2.34824e-07
4.02353e-09
2.34551e-07
2.93906e-09
2.34429e-07
2.22675e-09
1.53969e-09
2.344e-07
2.44436e-07
5.80845e-08
2.47451e-07
7.38748e-08
2.48814e-07
5.48937e-08
2.4991e-07
4.69949e-08
2.50578e-07
4.31574e-08
2.50967e-07
3.8873e-08
2.51289e-07
3.52909e-08
2.51579e-07
3.27102e-08
2.51827e-07
3.06585e-08
2.5204e-07
2.88834e-08
2.52227e-07
2.73305e-08
2.52392e-07
2.59688e-08
2.52536e-07
2.47604e-08
2.52658e-07
2.36734e-08
2.52759e-07
2.26857e-08
2.52838e-07
2.17809e-08
2.52895e-07
2.09465e-08
2.52928e-07
2.01724e-08
2.52937e-07
1.94502e-08
2.52922e-07
1.87732e-08
2.52883e-07
1.81357e-08
2.5282e-07
1.75328e-08
2.52734e-07
1.69606e-08
2.52624e-07
1.64156e-08
2.52492e-07
1.58949e-08
2.52339e-07
1.53959e-08
2.52166e-07
1.49163e-08
2.51974e-07
1.4454e-08
2.51764e-07
1.40069e-08
2.51538e-07
1.3573e-08
2.51296e-07
1.31498e-08
2.51041e-07
1.27353e-08
2.50773e-07
1.23264e-08
2.50495e-07
1.19209e-08
2.50207e-07
1.15142e-08
2.49912e-07
1.1104e-08
2.4961e-07
1.06831e-08
2.49305e-07
1.02501e-08
2.48998e-07
9.79159e-09
2.48692e-07
9.31122e-09
2.48389e-07
8.78047e-09
2.48094e-07
8.22008e-09
2.47804e-07
7.56858e-09
2.47536e-07
6.88197e-09
2.47275e-07
6.0644e-09
2.47049e-07
5.17825e-09
2.46849e-07
4.2236e-09
2.46676e-07
3.11181e-09
2.4665e-07
2.25254e-09
1.42369e-09
2.46766e-07
2.51489e-07
5.32027e-08
2.54532e-07
7.08315e-08
2.5585e-07
5.35752e-08
2.56944e-07
4.59013e-08
2.57649e-07
4.24524e-08
2.58057e-07
3.84646e-08
2.58386e-07
3.49626e-08
2.58681e-07
3.24152e-08
2.58933e-07
3.04056e-08
2.59151e-07
2.8666e-08
2.59343e-07
2.7138e-08
2.59516e-07
2.5796e-08
2.59672e-07
2.46049e-08
2.59811e-07
2.3534e-08
2.59935e-07
2.25614e-08
2.60045e-07
2.16714e-08
2.6014e-07
2.08516e-08
2.6022e-07
2.00922e-08
2.60285e-07
1.93851e-08
2.60335e-07
1.87233e-08
2.60369e-07
1.81013e-08
2.60388e-07
1.7514e-08
2.60391e-07
1.69574e-08
2.60379e-07
1.6428e-08
2.60351e-07
1.59226e-08
2.60308e-07
1.54386e-08
2.60251e-07
1.49736e-08
2.6018e-07
1.45254e-08
2.60095e-07
1.40918e-08
2.59997e-07
1.36707e-08
2.59887e-07
1.32598e-08
2.59766e-07
1.28567e-08
2.59634e-07
1.24584e-08
2.59492e-07
1.20626e-08
2.59342e-07
1.16646e-08
2.59184e-07
1.1262e-08
2.59019e-07
1.08475e-08
2.5885e-07
1.04192e-08
2.58677e-07
9.96433e-09
2.58504e-07
9.48487e-09
2.58329e-07
8.95468e-09
2.5816e-07
8.38922e-09
2.57993e-07
7.73601e-09
2.5784e-07
7.03453e-09
2.57692e-07
6.21295e-09
2.57568e-07
5.3022e-09
2.57469e-07
4.32274e-09
2.57393e-07
3.18781e-09
2.57454e-07
2.19081e-09
1.18391e-09
2.57694e-07
2.58766e-07
4.86194e-08
2.61827e-07
6.77703e-08
2.63113e-07
5.22901e-08
2.64199e-07
4.48153e-08
2.64939e-07
4.17119e-08
2.65369e-07
3.8035e-08
2.65704e-07
3.46276e-08
2.66004e-07
3.21146e-08
2.66263e-07
3.01473e-08
2.66484e-07
2.84448e-08
2.66679e-07
2.69428e-08
2.66855e-07
2.56204e-08
2.67014e-07
2.44458e-08
2.67158e-07
2.33895e-08
2.6729e-07
2.24299e-08
2.6741e-07
2.15516e-08
2.67518e-07
2.07429e-08
2.67616e-07
1.99941e-08
2.67704e-07
1.92973e-08
2.67782e-07
1.86458e-08
2.67849e-07
1.8034e-08
2.67906e-07
1.74569e-08
2.67953e-07
1.69104e-08
2.6799e-07
1.6391e-08
2.68017e-07
1.58956e-08
2.68034e-07
1.54213e-08
2.68042e-07
1.49659e-08
2.6804e-07
1.45271e-08
2.6803e-07
1.41025e-08
2.6801e-07
1.36903e-08
2.67982e-07
1.32878e-08
2.67946e-07
1.28928e-08
2.67902e-07
1.25022e-08
2.67851e-07
1.21135e-08
2.67794e-07
1.17221e-08
2.6773e-07
1.13253e-08
2.67662e-07
1.09158e-08
2.6759e-07
1.04915e-08
2.67514e-07
1.00398e-08
2.67438e-07
9.56134e-09
2.6736e-07
9.03232e-09
2.67286e-07
8.46322e-09
2.67212e-07
7.80976e-09
2.6715e-07
7.09713e-09
2.6709e-07
6.27262e-09
2.67048e-07
5.34437e-09
2.6703e-07
4.34034e-09
2.67037e-07
3.18148e-09
2.6717e-07
2.0571e-09
8.50435e-10
2.67504e-07
2.66278e-07
4.43333e-08
2.69347e-07
6.4702e-08
2.70609e-07
5.10276e-08
2.71683e-07
4.37412e-08
2.72456e-07
4.09391e-08
2.72909e-07
3.75824e-08
2.73251e-07
3.4285e-08
2.73557e-07
3.18083e-08
2.73822e-07
2.98831e-08
2.74047e-07
2.82195e-08
2.74245e-07
2.6745e-08
2.74422e-07
2.54427e-08
2.74583e-07
2.4285e-08
2.7473e-07
2.32432e-08
2.74863e-07
2.22961e-08
2.74986e-07
2.14288e-08
2.75099e-07
2.063e-08
2.75203e-07
1.98903e-08
2.75298e-07
1.92019e-08
2.75386e-07
1.85584e-08
2.75465e-07
1.79541e-08
2.75538e-07
1.73844e-08
2.75603e-07
1.6845e-08
2.75662e-07
1.63324e-08
2.75714e-07
1.58436e-08
2.7576e-07
1.53757e-08
2.75799e-07
1.49264e-08
2.75833e-07
1.44934e-08
2.75861e-07
1.40747e-08
2.75883e-07
1.36679e-08
2.759e-07
1.32707e-08
2.75912e-07
1.28808e-08
2.75919e-07
1.24951e-08
2.75922e-07
1.21109e-08
2.7592e-07
1.17236e-08
2.75915e-07
1.13304e-08
2.75907e-07
1.09242e-08
2.75896e-07
1.05021e-08
2.75884e-07
1.00523e-08
2.75871e-07
9.57405e-09
2.75858e-07
9.04566e-09
2.75848e-07
8.47305e-09
2.75838e-07
7.81925e-09
2.75838e-07
7.09763e-09
2.75841e-07
6.26972e-09
2.75857e-07
5.3281e-09
2.75898e-07
4.29938e-09
2.75966e-07
3.11292e-09
2.76153e-07
1.87031e-09
4.5626e-10
2.76547e-07
2.74033e-07
4.03415e-08
2.77098e-07
6.16375e-08
2.78348e-07
4.97775e-08
2.79406e-07
4.26826e-08
2.80208e-07
4.01377e-08
2.80685e-07
3.71054e-08
2.81036e-07
3.39341e-08
2.81348e-07
3.14963e-08
2.81618e-07
2.9613e-08
2.81848e-07
2.79897e-08
2.82048e-07
2.65442e-08
2.82228e-07
2.5263e-08
2.82391e-07
2.41226e-08
2.82538e-07
2.30956e-08
2.82673e-07
2.21613e-08
2.82797e-07
2.13051e-08
2.82911e-07
2.0516e-08
2.83016e-07
1.9785e-08
2.83113e-07
1.91045e-08
2.83204e-07
1.84681e-08
2.83287e-07
1.78705e-08
2.83365e-07
1.73069e-08
2.83437e-07
1.67732e-08
2.83503e-07
1.62659e-08
2.83565e-07
1.57819e-08
2.83622e-07
1.53185e-08
2.83675e-07
1.48735e-08
2.83724e-07
1.44444e-08
2.83769e-07
1.40293e-08
2.83811e-07
1.36259e-08
2.8385e-07
1.3232e-08
2.83886e-07
1.28451e-08
2.83919e-07
1.24621e-08
2.83949e-07
1.20804e-08
2.83978e-07
1.16954e-08
2.84004e-07
1.1304e-08
2.84029e-07
1.08993e-08
2.84053e-07
1.0478e-08
2.84077e-07
1.00288e-08
2.84101e-07
9.54959e-09
2.84126e-07
9.0209e-09
2.84154e-07
8.44453e-09
2.84184e-07
7.7897e-09
2.84221e-07
7.06027e-09
2.84263e-07
6.22793e-09
2.84316e-07
5.27491e-09
2.84394e-07
4.22136e-09
2.84504e-07
3.00273e-09
2.84724e-07
1.65033e-09
3.15613e-11
2.85149e-07
2.8204e-07
3.66391e-08
2.8509e-07
5.85876e-08
2.86337e-07
4.85303e-08
2.87377e-07
4.16424e-08
2.88203e-07
3.93122e-08
2.88705e-07
3.66027e-08
2.89066e-07
3.35736e-08
2.89383e-07
3.11787e-08
2.8966e-07
2.93367e-08
2.89895e-07
2.77549e-08
2.90099e-07
2.63401e-08
2.90281e-07
2.5081e-08
2.90445e-07
2.39585e-08
2.90594e-07
2.29468e-08
2.90729e-07
2.20256e-08
2.90854e-07
2.11808e-08
2.90968e-07
2.04016e-08
2.91074e-07
1.96793e-08
2.91172e-07
1.90066e-08
2.91262e-07
1.83773e-08
2.91347e-07
1.77861e-08
2.91425e-07
1.72283e-08
2.91499e-07
1.66998e-08
2.91567e-07
1.61972e-08
2.91632e-07
1.57174e-08
2.91693e-07
1.52577e-08
2.9175e-07
1.48159e-08
2.91805e-07
1.43898e-08
2.91857e-07
1.39773e-08
2.91907e-07
1.35763e-08
2.91954e-07
1.31843e-08
2.92e-07
1.27992e-08
2.92044e-07
1.24178e-08
2.92087e-07
1.20374e-08
2.92129e-07
1.16535e-08
2.9217e-07
1.12627e-08
2.92211e-07
1.08584e-08
2.92253e-07
1.04368e-08
2.92294e-07
9.9873e-09
2.92337e-07
9.50633e-09
2.92382e-07
8.97656e-09
2.9243e-07
8.39622e-09
2.9248e-07
7.73959e-09
2.92537e-07
7.00317e-09
2.926e-07
6.16539e-09
2.92673e-07
5.20176e-09
2.92771e-07
4.12349e-09
2.92905e-07
2.86869e-09
2.9314e-07
1.41465e-09
-3.97787e-10
2.9357e-07
2.90308e-07
3.32196e-08
2.93332e-07
5.55636e-08
2.94585e-07
4.72771e-08
2.95605e-07
4.06226e-08
2.9645e-07
3.84676e-08
2.96979e-07
3.60732e-08
2.97351e-07
3.32023e-08
2.97674e-07
3.08556e-08
2.97956e-07
2.90542e-08
2.98196e-07
2.7515e-08
2.98404e-07
2.61325e-08
2.98588e-07
2.48965e-08
2.98754e-07
2.37924e-08
2.98905e-07
2.27966e-08
2.99041e-07
2.1889e-08
2.99166e-07
2.10558e-08
2.99281e-07
2.02868e-08
2.99387e-07
1.95735e-08
2.99485e-07
1.89088e-08
2.99575e-07
1.82866e-08
2.9966e-07
1.77018e-08
2.99738e-07
1.71498e-08
2.99811e-07
1.66264e-08
2.9988e-07
1.61283e-08
2.99945e-07
1.56525e-08
3.00007e-07
1.51963e-08
3.00065e-07
1.47575e-08
3.00121e-07
1.4334e-08
3.00175e-07
1.39236e-08
3.00226e-07
1.35243e-08
3.00277e-07
1.31339e-08
3.00326e-07
1.27501e-08
3.00374e-07
1.23697e-08
3.00422e-07
1.19899e-08
3.00469e-07
1.16064e-08
3.00516e-07
1.12156e-08
3.00563e-07
1.08112e-08
3.00611e-07
1.03888e-08
3.0066e-07
9.93837e-09
3.00711e-07
9.45532e-09
3.00764e-07
8.92402e-09
3.0082e-07
8.33976e-09
3.00879e-07
7.68083e-09
3.00944e-07
6.93817e-09
3.01015e-07
6.09436e-09
3.01096e-07
5.12046e-09
3.01202e-07
4.01799e-09
3.01346e-07
2.72452e-09
3.01583e-07
1.17763e-09
-8.10983e-10
3.01996e-07
2.98847e-07
3.0075e-08
3.01834e-07
5.25767e-08
3.03101e-07
4.60101e-08
3.04099e-07
3.96246e-08
3.04958e-07
3.7609e-08
3.05515e-07
3.55162e-08
3.05898e-07
3.28188e-08
3.06227e-07
3.0527e-08
3.06515e-07
2.87656e-08
3.06761e-07
2.72695e-08
3.06972e-07
2.5921e-08
3.0716e-07
2.47092e-08
3.07328e-07
2.36243e-08
3.0748e-07
2.26447e-08
3.07617e-07
2.17512e-08
3.07743e-07
2.09301e-08
3.07858e-07
2.01715e-08
3.07964e-07
1.94674e-08
3.08062e-07
1.88109e-08
3.08153e-07
1.81961e-08
3.08237e-07
1.76179e-08
3.08315e-07
1.70717e-08
3.08388e-07
1.65535e-08
3.08456e-07
1.606e-08
3.0852e-07
1.55881e-08
3.08581e-07
1.51354e-08
3.0864e-07
1.46995e-08
3.08695e-07
1.42783e-08
3.08749e-07
1.387e-08
3.08801e-07
1.34724e-08
3.08851e-07
1.30833e-08
3.08901e-07
1.27005e-08
3.0895e-07
1.23209e-08
3.08998e-07
1.19415e-08
3.09046e-07
1.15583e-08
3.09095e-07
1.11673e-08
3.09143e-07
1.07625e-08
3.09193e-07
1.0339e-08
3.09244e-07
9.88759e-09
3.09297e-07
9.40246e-09
3.09351e-07
8.86952e-09
3.09409e-07
8.28169e-09
3.0947e-07
7.62031e-09
3.09536e-07
6.87223e-09
3.09608e-07
6.02226e-09
3.0969e-07
5.03842e-09
3.09795e-07
3.91292e-09
3.09939e-07
2.58014e-09
3.10166e-07
9.5045e-10
-1.19212e-09
3.10548e-07
3.07667e-07
2.71954e-08
3.10605e-07
4.96381e-08
3.11893e-07
4.47225e-08
3.12869e-07
3.86487e-08
3.13736e-07
3.67418e-08
3.1432e-07
3.49321e-08
3.14718e-07
3.24215e-08
3.15052e-07
3.01926e-08
3.15347e-07
2.84709e-08
3.15598e-07
2.70182e-08
3.15814e-07
2.57053e-08
3.16004e-07
2.45191e-08
3.16174e-07
2.34539e-08
3.16328e-07
2.24912e-08
3.16467e-07
2.16121e-08
3.16594e-07
2.08034e-08
3.1671e-07
2.00556e-08
3.16816e-07
1.9361e-08
3.16914e-07
1.8713e-08
3.17004e-07
1.81057e-08
3.17088e-07
1.75342e-08
3.17166e-07
1.6994e-08
3.17238e-07
1.64811e-08
3.17306e-07
1.59923e-08
3.1737e-07
1.55244e-08
3.1743e-07
1.50751e-08
3.17487e-07
1.46421e-08
3.17542e-07
1.42234e-08
3.17595e-07
1.38171e-08
3.17646e-07
1.34212e-08
3.17696e-07
1.30334e-08
3.17745e-07
1.26516e-08
3.17793e-07
1.22727e-08
3.17841e-07
1.18938e-08
3.17889e-07
1.15107e-08
3.17936e-07
1.11195e-08
3.17985e-07
1.07144e-08
3.18034e-07
1.029e-08
3.18084e-07
9.83756e-09
3.18135e-07
9.35058e-09
3.18189e-07
8.81615e-09
3.18245e-07
8.2253e-09
3.18304e-07
7.56164e-09
3.18367e-07
6.80905e-09
3.18436e-07
5.95328e-09
3.18514e-07
4.96008e-09
3.18614e-07
3.81341e-09
3.18751e-07
2.44268e-09
3.1896e-07
7.41614e-10
-1.52897e-09
3.19297e-07
3.16777e-07
2.45696e-08
3.19656e-07
4.67589e-08
3.2097e-07
4.34085e-08
3.21924e-07
3.76947e-08
3.22795e-07
3.58709e-08
3.23406e-07
3.43214e-08
3.23818e-07
3.20088e-08
3.24159e-07
2.9852e-08
3.2446e-07
2.81702e-08
3.24717e-07
2.67608e-08
3.24937e-07
2.54851e-08
3.25131e-07
2.43257e-08
3.25303e-07
2.32811e-08
3.25459e-07
2.23356e-08
3.25599e-07
2.14715e-08
3.25727e-07
2.06757e-08
3.25844e-07
1.9939e-08
3.25951e-07
1.92542e-08
3.26049e-07
1.86148e-08
3.26139e-07
1.80153e-08
3.26223e-07
1.74507e-08
3.263e-07
1.69166e-08
3.26372e-07
1.64092e-08
3.26439e-07
1.59251e-08
3.26502e-07
1.54614e-08
3.26562e-07
1.50156e-08
3.26618e-07
1.45855e-08
3.26673e-07
1.41693e-08
3.26725e-07
1.37651e-08
3.26775e-07
1.33708e-08
3.26824e-07
1.29844e-08
3.26872e-07
1.26036e-08
3.26919e-07
1.22255e-08
3.26966e-07
1.18471e-08
3.27012e-07
1.14643e-08
3.27058e-07
1.10731e-08
3.27105e-07
1.06677e-08
3.27153e-07
1.02426e-08
3.27201e-07
9.78942e-09
3.2725e-07
9.30097e-09
3.27301e-07
8.76535e-09
3.27354e-07
8.17217e-09
3.27409e-07
7.50665e-09
3.27468e-07
6.75057e-09
3.27531e-07
5.88977e-09
3.27603e-07
4.88816e-09
3.27694e-07
3.7229e-09
3.27819e-07
2.31759e-09
3.28003e-07
5.57802e-10
-1.81224e-09
3.28286e-07
3.26187e-07
2.2185e-08
3.28996e-07
4.395e-08
3.30341e-07
4.20641e-08
3.31274e-07
3.67612e-08
3.32144e-07
3.50011e-08
3.32779e-07
3.36858e-08
3.33209e-07
3.15795e-08
3.33556e-07
2.95049e-08
3.33862e-07
2.78635e-08
3.34126e-07
2.64972e-08
3.34351e-07
2.52599e-08
3.34548e-07
2.41288e-08
3.34724e-07
2.31055e-08
3.34881e-07
2.2178e-08
3.35024e-07
2.13292e-08
3.35153e-07
2.05467e-08
3.3527e-07
1.98216e-08
3.35378e-07
1.91468e-08
3.35476e-07
1.85163e-08
3.35567e-07
1.79247e-08
3.3565e-07
1.73672e-08
3.35727e-07
1.68394e-08
3.35799e-07
1.63376e-08
3.35865e-07
1.58584e-08
3.35928e-07
1.53988e-08
3.35987e-07
1.49567e-08
3.36043e-07
1.45297e-08
3.36096e-07
1.4116e-08
3.36147e-07
1.37139e-08
3.36197e-07
1.33214e-08
3.36245e-07
1.29364e-08
3.36291e-07
1.25568e-08
3.36337e-07