/*--------------------------------*- C++ -*----------------------------------*\
  =========                 |
  \\      /  F ield         | OpenFOAM: The Open Source CFD Toolbox
   \\    /   O peration     | Website:  https://openfoam.org
    \\  /    A nd           | Version:  7
     \\/     M anipulation  |
\*---------------------------------------------------------------------------*/
FoamFile
{
    version     2.0;
    format      ascii;
    class       volVectorField;
    location    "0.46";
    object      U;
}
// * * * * * * * * * * * * * * * * * * * * * * * * * * * * * * * * * * * * * //

dimensions      [0 1 -1 0 0 0 0];

internalField   nonuniform List<vector> 
70000
(
(0.553414 0.0169781 0)
(0.251419 0.00340044 0)
(0.165926 0.000319018 0)
(0.132439 4.90628e-05 0)
(0.117328 4.41148e-05 0)
(0.107361 5.22834e-05 0)
(0.0993812 4.44842e-05 0)
(0.0929277 3.54086e-05 0)
(0.0876734 2.93714e-05 0)
(0.0832939 2.52328e-05 0)
(0.0795612 2.20684e-05 0)
(0.0763281 1.953e-05 0)
(0.0734934 1.74579e-05 0)
(0.0709831 1.57434e-05 0)
(0.0687411 1.43058e-05 0)
(0.0667241 1.30858e-05 0)
(0.0648979 1.20388e-05 0)
(0.0632352 1.11313e-05 0)
(0.0617138 1.03374e-05 0)
(0.0603158 9.63653e-06 0)
(0.0590261 9.01279e-06 0)
(0.0578324 8.45303e-06 0)
(0.0567241 7.94656e-06 0)
(0.0556924 7.4846e-06 0)
(0.0547297 7.05941e-06 0)
(0.0538296 6.66459e-06 0)
(0.0529867 6.29359e-06 0)
(0.0521962 5.94198e-06 0)
(0.0514545 5.60208e-06 0)
(0.0507579 5.27261e-06 0)
(0.0501042 4.94142e-06 0)
(0.0494907 4.61307e-06 0)
(0.0489164 4.26599e-06 0)
(0.0483796 3.91591e-06 0)
(0.0478806 3.52358e-06 0)
(0.0474185 3.12579e-06 0)
(0.0469948 2.65052e-06 0)
(0.0466108 2.17887e-06 0)
(0.0462669 1.56968e-06 0)
(0.0459712 9.96341e-07 0)
(0.0457157 2.26525e-07 0)
(0.0455301 -5.83358e-07 0)
(0.0453678 -1.15391e-06 0)
(0.0453424 -3.22874e-06 0)
(0.0452349 -1.15297e-06 0)
(0.0455148 -8.46233e-06 0)
(0.0452291 5.64795e-06 0)
(0.0462224 -1.89158e-05 0)
(0.0451116 4.3845e-05 0)
(0.0441282 -0.00175705 0)
(0.884863 0.0434932 0)
(0.650151 0.0201491 0)
(0.493978 0.00660521 0)
(0.403544 0.00275568 0)
(0.354814 0.00154916 0)
(0.323473 0.00113312 0)
(0.299543 0.000910873 0)
(0.2803 0.000746416 0)
(0.264551 0.000623819 0)
(0.251393 0.000533402 0)
(0.240175 0.000464743 0)
(0.230457 0.000410685 0)
(0.221933 0.000366984 0)
(0.214382 0.000330993 0)
(0.207635 0.000300915 0)
(0.201561 0.000275457 0)
(0.19606 0.00025367 0)
(0.191048 0.000234839 0)
(0.18646 0.000218416 0)
(0.182242 0.000203978 0)
(0.178349 0.000191191 0)
(0.174742 0.000179788 0)
(0.171392 0.000169551 0)
(0.16827 0.000160302 0)
(0.165354 0.000151891 0)
(0.162625 0.00014419 0)
(0.160065 0.000137087 0)
(0.157661 0.000130485 0)
(0.1554 0.00012429 0)
(0.153272 0.000118422 0)
(0.151269 0.000112788 0)
(0.149382 0.000107326 0)
(0.147607 0.000101913 0)
(0.145938 9.65206e-05 0)
(0.144374 9.09401e-05 0)
(0.142912 8.52342e-05 0)
(0.141554 7.8973e-05 0)
(0.140303 7.25075e-05 0)
(0.139156 6.48209e-05 0)
(0.138136 5.71097e-05 0)
(0.137219 4.69143e-05 0)
(0.136484 3.74346e-05 0)
(0.135808 2.36304e-05 0)
(0.13549 1.13658e-05 0)
(0.134968 -4.63818e-06 0)
(0.135464 -2.25664e-05 0)
(0.134545 -3.07616e-05 0)
(0.136957 -7.62859e-05 0)
(0.134209 0.000178261 0)
(0.13643 -0.00274553 0)
(0.991209 0.0499554 0)
(0.890929 0.0305629 0)
(0.762496 0.0146118 0)
(0.656524 0.00797325 0)
(0.585391 0.00488304 0)
(0.53598 0.00347878 0)
(0.498037 0.00274323 0)
(0.467348 0.00224942 0)
(0.441971 0.00188605 0)
(0.420596 0.0016147 0)
(0.402278 0.00140745 0)
(0.386348 0.00124427 0)
(0.372334 0.00111243 0)
(0.359886 0.00100386 0)
(0.348739 0.0009131 0)
(0.338687 0.000836258 0)
(0.329566 0.000770477 0)
(0.321245 0.00071361 0)
(0.313619 0.000664015 0)
(0.306599 0.000620421 0)
(0.300112 0.000581826 0)
(0.294098 0.000547427 0)
(0.288505 0.000516576 0)
(0.283288 0.000488739 0)
(0.278412 0.000463468 0)
(0.273842 0.000440383 0)
(0.269552 0.000419158 0)
(0.265518 0.0003995 0)
(0.261719 0.000381151 0)
(0.258138 0.000363872 0)
(0.25476 0.000347421 0)
(0.251571 0.000331598 0)
(0.248564 0.000316116 0)
(0.245726 0.000300836 0)
(0.243056 0.000285287 0)
(0.240546 0.000269537 0)
(0.238197 0.000252573 0)
(0.236012 0.000235161 0)
(0.233985 0.000214804 0)
(0.232148 0.000194403 0)
(0.230462 0.000167563 0)
(0.229041 0.000143043 0)
(0.227709 0.00010495 0)
(0.22689 7.67228e-05 0)
(0.225788 2.104e-05 0)
(0.226137 -5.13783e-06 0)
(0.22454 -7.9268e-05 0)
(0.227531 -0.000137335 0)
(0.223739 0.000141405 0)
(0.228675 -0.00266861 0)
(1.01554 0.0489534 0)
(1.0065 0.0357244 0)
(0.935894 0.0208211 0)
(0.85201 0.0135026 0)
(0.782208 0.0092041 0)
(0.727016 0.00679122 0)
(0.681868 0.00539643 0)
(0.644036 0.00445626 0)
(0.611942 0.00376238 0)
(0.584393 0.00323705 0)
(0.560454 0.00283119 0)
(0.539419 0.00250947 0)
(0.520761 0.00224843 0)
(0.504077 0.00203269 0)
(0.489055 0.00185179 0)
(0.475446 0.00169824 0)
(0.463049 0.00156649 0)
(0.451703 0.00145238 0)
(0.441272 0.0013527 0)
(0.431646 0.00126497 0)
(0.422731 0.00118723 0)
(0.414449 0.00111788 0)
(0.406732 0.00105566 0)
(0.399523 0.000999512 0)
(0.392772 0.000948551 0)
(0.386438 0.000902028 0)
(0.380482 0.000859302 0)
(0.374873 0.000819799 0)
(0.369583 0.00078302 0)
(0.364589 0.000748497 0)
(0.35987 0.000715785 0)
(0.355407 0.00068448 0)
(0.351187 0.000654088 0)
(0.347196 0.000624303 0)
(0.343429 0.00059433 0)
(0.339874 0.000564216 0)
(0.33653 0.00053223 0)
(0.333398 0.000499631 0)
(0.330472 0.000462073 0)
(0.327782 0.000424561 0)
(0.325288 0.000375659 0)
(0.323112 0.000331454 0)
(0.32106 0.000260826 0)
(0.319605 0.000213289 0)
(0.317859 0.000100506 0)
(0.317751 6.9743e-05 0)
(0.315584 -0.000100642 0)
(0.318277 -0.000162429 0)
(0.314264 5.5017e-05 0)
(0.319292 -0.00231222 0)
(1.01435 0.0460977 0)
(1.04798 0.0373413 0)
(1.02457 0.024189 0)
(0.974686 0.0175629 0)
(0.923472 0.0131176 0)
(0.876707 0.0102169 0)
(0.83449 0.00835924 0)
(0.796675 0.00703831 0)
(0.763038 0.0060288 0)
(0.73314 0.00524216 0)
(0.70647 0.00462085 0)
(0.682558 0.00412049 0)
(0.661009 0.0037097 0)
(0.641492 0.00336708 0)
(0.623731 0.0030776 0)
(0.607499 0.00283032 0)
(0.592602 0.00261702 0)
(0.578879 0.00243144 0)
(0.566194 0.00226871 0)
(0.554431 0.002125 0)
(0.543492 0.00199729 0)
(0.53329 0.0018831 0)
(0.523753 0.00178044 0)
(0.514816 0.00168765 0)
(0.506425 0.00160333 0)
(0.498532 0.00152629 0)
(0.491093 0.00145552 0)
(0.484071 0.0013901 0)
(0.477436 0.00132923 0)
(0.471158 0.00127218 0)
(0.465213 0.00121826 0)
(0.459579 0.00116681 0)
(0.454241 0.00111711 0)
(0.44918 0.00106863 0)
(0.444388 0.00102023 0)
(0.439852 0.000971899 0)
(0.435569 0.000921136 0)
(0.431538 0.000869661 0)
(0.427751 0.000811214 0)
(0.424235 0.000752879 0)
(0.420956 0.000677988 0)
(0.418022 0.000610261 0)
(0.41526 0.000502182 0)
(0.413111 0.000431289 0)
(0.410746 0.000255975 0)
(0.409965 0.000210262 0)
(0.40742 -5.04827e-05 0)
(0.409169 -0.000147773 0)
(0.405555 2.69825e-05 0)
(0.409125 -0.00195328 0)
(1.00941 0.0430473 0)
(1.05564 0.0370965 0)
(1.05868 0.0253304 0)
(1.03631 0.0197686 0)
(1.00713 0.0158075 0)
(0.976092 0.0129478 0)
(0.944523 0.01098 0)
(0.913598 0.00949965 0)
(0.884174 0.00831053 0)
(0.856636 0.00734441 0)
(0.831064 0.00655577 0)
(0.807396 0.00590425 0)
(0.785515 0.00535852 0)
(0.76528 0.00489593 0)
(0.746545 0.00449987 0)
(0.729172 0.00415777 0)
(0.713031 0.00385991 0)
(0.698005 0.00359867 0)
(0.683989 0.00336802 0)
(0.670888 0.00316311 0)
(0.658618 0.00298005 0)
(0.647105 0.00281565 0)
(0.636283 0.00266726 0)
(0.626093 0.00253268 0)
(0.616482 0.00241003 0)
(0.607404 0.00229771 0)
(0.598818 0.00219432 0)
(0.590686 0.00209862 0)
(0.582977 0.00200951 0)
(0.57566 0.00192597 0)
(0.568713 0.00184705 0)
(0.562111 0.00177184 0)
(0.555838 0.00169935 0)
(0.549874 0.00162885 0)
(0.54421 0.00155882 0)
(0.538832 0.00148915 0)
(0.533736 0.00141663 0)
(0.528918 0.00134327 0)
(0.524375 0.00126112 0)
(0.520123 0.0011789 0)
(0.516141 0.00107538 0)
(0.512511 0.00098068 0)
(0.509108 0.000832995 0)
(0.506281 0.000733182 0)
(0.503379 0.000497484 0)
(0.501836 0.000419508 0)
(0.499061 8.68577e-05 0)
(0.499633 -8.17449e-05 0)
(0.496517 7.16882e-05 0)
(0.498504 -0.00155793 0)
(1.00635 0.0401793 0)
(1.05241 0.0361497 0)
(1.06606 0.0252538 0)
(1.05954 0.0205739 0)
(1.0469 0.0172358 0)
(1.03084 0.0146683 0)
(1.01191 0.0128424 0)
(0.991186 0.0114206 0)
(0.96972 0.0102263 0)
(0.948245 0.00921319 0)
(0.927206 0.00835514 0)
(0.906869 0.00762395 0)
(0.887382 0.00699529 0)
(0.868816 0.0064505 0)
(0.851193 0.00597524 0)
(0.834501 0.00555812 0)
(0.81871 0.00518993 0)
(0.803779 0.00486315 0)
(0.78966 0.00457164 0)
(0.776305 0.00431032 0)
(0.763667 0.004075 0)
(0.751697 0.00386217 0)
(0.740353 0.00366887 0)
(0.729592 0.0034926 0)
(0.719375 0.00333118 0)
(0.709666 0.00318273 0)
(0.700432 0.00304559 0)
(0.691644 0.00291824 0)
(0.683273 0.00279937 0)
(0.675295 0.0026877 0)
(0.667688 0.00258208 0)
(0.660432 0.00248135 0)
(0.653511 0.00238429 0)
(0.646908 0.00228995 0)
(0.640615 0.00219648 0)
(0.634618 0.00210363 0)
(0.628916 0.00200757 0)
(0.6235 0.0019104 0)
(0.618374 0.00180292 0)
(0.613543 0.00169467 0)
(0.609006 0.00156122 0)
(0.604808 0.00143669 0)
(0.600888 0.00124955 0)
(0.597475 0.00111459 0)
(0.594144 0.000825059 0)
(0.59189 0.00069736 0)
(0.588943 0.000309596 0)
(0.588446 5.04749e-05 0)
(0.585644 0.000179397 0)
(0.586395 -0.00111537 0)
(1.00506 0.0375021 0)
(1.04763 0.0350513 0)
(1.06396 0.0247064 0)
(1.06419 0.0206052 0)
(1.06071 0.0177748 0)
(1.0548 0.0155109 0)
(1.04602 0.0139015 0)
(1.03481 0.0126462 0)
(1.02185 0.011564 0)
(1.00777 0.0106151 0)
(0.993015 0.00978582 0)
(0.977944 0.00905821 0)
(0.962822 0.00841559 0)
(0.947847 0.00784502 0)
(0.933155 0.00733637 0)
(0.91884 0.00688128 0)
(0.904962 0.00647269 0)
(0.891558 0.00610456 0)
(0.878646 0.00577173 0)
(0.86623 0.00546979 0)
(0.854308 0.00519497 0)
(0.842872 0.00494403 0)
(0.831906 0.00471416 0)
(0.821396 0.00450292 0)
(0.811323 0.00430814 0)
(0.80167 0.00412789 0)
(0.792419 0.00396045 0)
(0.783551 0.0038042 0)
(0.77505 0.00365773 0)
(0.766899 0.00351961 0)
(0.759084 0.00338854 0)
(0.751591 0.00326323 0)
(0.744408 0.00314225 0)
(0.737523 0.00302449 0)
(0.730932 0.00290782 0)
(0.724623 0.00279182 0)
(0.718598 0.00267222 0)
(0.712848 0.00255095 0)
(0.707384 0.00241806 0)
(0.702201 0.0022831 0)
(0.697318 0.00211998 0)
(0.692747 0.00196401 0)
(0.688484 0.00173934 0)
(0.684652 0.0015644 0)
(0.681023 0.00122834 0)
(0.678225 0.00103883 0)
(0.675137 0.000610072 0)
(0.673823 0.000253182 0)
(0.67118 0.000343255 0)
(0.671037 -0.000650416 0)
(1.00451 0.0349662 0)
(1.0436 0.0339714 0)
(1.05994 0.0240556 0)
(1.06224 0.020316 0)
(1.06253 0.0178402 0)
(1.06186 0.0157914 0)
(1.05928 0.0143568 0)
(1.05471 0.0132682 0)
(1.04847 0.0123294 0)
(1.04087 0.0114938 0)
(1.03217 0.0107501 0)
(1.02265 0.0100845 0)
(1.01252 0.00948407 0)
(1.002 0.00893958 0)
(0.991231 0.00844418 0)
(0.98036 0.00799239 0)
(0.969488 0.00757949 0)
(0.958697 0.00720135 0)
(0.948049 0.0068543 0)
(0.937591 0.0065351 0)
(0.927356 0.00624091 0)
(0.91737 0.00596916 0)
(0.907649 0.00571761 0)
(0.898203 0.00548421 0)
(0.889037 0.0052671 0)
(0.880154 0.00506456 0)
(0.871552 0.00487504 0)
(0.86323 0.00469701 0)
(0.855182 0.00452909 0)
(0.847404 0.00436986 0)
(0.839892 0.00421801 0)
(0.832638 0.00407216 0)
(0.825641 0.00393081 0)
(0.818893 0.00379272 0)
(0.812396 0.00365558 0)
(0.806142 0.00351878 0)
(0.800138 0.0033778 0)
(0.794377 0.0032342 0)
(0.788875 0.00307778 0)
(0.783624 0.00291734 0)
(0.778655 0.00272653 0)
(0.773962 0.00253949 0)
(0.769576 0.00228051 0)
(0.765552 0.00206375 0)
(0.761791 0.00168776 0)
(0.758676 0.00143145 0)
(0.755524 0.000968917 0)
(0.753664 0.000520175 0)
(0.751136 0.000552252 0)
(0.750411 -0.000182059 0)
(1.00412 0.0325355 0)
(1.04027 0.032918 0)
(1.05617 0.023421 0)
(1.05888 0.0199317 0)
(1.06026 0.0177116 0)
(1.06164 0.0157948 0)
(1.062 0.0144622 0)
(1.0611 0.0134898 0)
(1.05902 0.0126678 0)
(1.05587 0.0119389 0)
(1.05175 0.0112894 0)
(1.04675 0.0107048 0)
(1.04102 0.0101723 0)
(1.03467 0.0096832 0)
(1.02782 0.00923179 0)
(1.02059 0.00881393 0)
(1.01307 0.00842627 0)
(1.00535 0.00806599 0)
(0.9975 0.00773061 0)
(0.989582 0.00741796 0)
(0.981648 0.00712606 0)
(0.973739 0.00685316 0)
(0.965891 0.00659765 0)
(0.958131 0.00635802 0)
(0.950483 0.0061329 0)
(0.942963 0.00592093 0)
(0.935586 0.00572086 0)
(0.928362 0.00553138 0)
(0.921299 0.00535132 0)
(0.914403 0.00517936 0)
(0.907679 0.00501427 0)
(0.901131 0.00485471 0)
(0.894761 0.00469916 0)
(0.888571 0.00454634 0)
(0.882568 0.00439385 0)
(0.87675 0.00424091 0)
(0.871128 0.00408288 0)
(0.8657 0.00392087 0)
(0.860484 0.00374472 0)
(0.855475 0.00356213 0)
(0.850707 0.00334736 0)
(0.84617 0.00313189 0)
(0.841911 0.00284306 0)
(0.83795 0.00258587 0)
(0.83426 0.00217621 0)
(0.831076 0.00185427 0)
(0.827993 0.00136106 0)
(0.825856 0.000833973 0)
(0.823486 0.000791122 0)
(0.822465 0.000246751 0)
(1.00374 0.0302012 0)
(1.03727 0.0318689 0)
(1.05284 0.0228176 0)
(1.05564 0.0195298 0)
(1.05717 0.0175216 0)
(1.0591 0.0156939 0)
(1.06053 0.0144093 0)
(1.06122 0.0135009 0)
(1.06121 0.0127532 0)
(1.06054 0.0120993 0)
(1.05921 0.0115228 0)
(1.05722 0.0110082 0)
(1.05462 0.010541 0)
(1.05145 0.0101113 0)
(1.04777 0.00971287 0)
(1.04364 0.00934144 0)
(1.03913 0.00899387 0)
(1.03429 0.00866768 0)
(1.02918 0.00836087 0)
(1.02384 0.00807176 0)
(1.01834 0.00779892 0)
(1.01271 0.00754107 0)
(1.00699 0.00729708 0)
(1.00121 0.00706591 0)
(0.995405 0.00684657 0)
(0.989593 0.00663806 0)
(0.983798 0.00643944 0)
(0.978039 0.0062497 0)
(0.97233 0.00606785 0)
(0.966687 0.00589278 0)
(0.961119 0.00572338 0)
(0.955637 0.0055584 0)
(0.950251 0.00539636 0)
(0.944968 0.005236 0)
(0.939798 0.00507487 0)
(0.934747 0.00491205 0)
(0.929826 0.00474291 0)
(0.92504 0.00456805 0)
(0.920407 0.00437757 0)
(0.915928 0.00417788 0)
(0.911635 0.00394432 0)
(0.907523 0.00370505 0)
(0.903637 0.00339205 0)
(0.89999 0.00309842 0)
(0.896583 0.00266176 0)
(0.893569 0.00227941 0)
(0.890717 0.00175856 0)
(0.888557 0.00116779 0)
(0.886436 0.00103788 0)
(0.885384 0.00060664 0)
(1.00337 0.0279657 0)
(1.03443 0.0308117 0)
(1.04973 0.0222392 0)
(1.05268 0.0191251 0)
(1.05416 0.0173131 0)
(1.05615 0.0155637 0)
(1.05786 0.0143016 0)
(1.05907 0.0134245 0)
(1.05987 0.0127179 0)
(1.06032 0.0121079 0)
(1.06038 0.0115771 0)
(1.06005 0.0111099 0)
(1.0593 0.0106906 0)
(1.05815 0.0103082 0)
(1.0566 0.00995528 0)
(1.05468 0.009627 0)
(1.05241 0.00931968 0)
(1.04983 0.00903054 0)
(1.04695 0.00875745 0)
(1.04382 0.00849871 0)
(1.04046 0.00825293 0)
(1.03691 0.00801898 0)
(1.03319 0.00779589 0)
(1.02933 0.00758279 0)
(1.02535 0.00737891 0)
(1.02129 0.00718348 0)
(1.01715 0.00699577 0)
(1.01297 0.00681494 0)
(1.00876 0.0066402 0)
(1.00453 0.00647057 0)
(1.00029 0.00630507 0)
(0.996069 0.00614255 0)
(0.991868 0.00598156 0)
(0.987701 0.00582087 0)
(0.983579 0.00565802 0)
(0.979511 0.00549198 0)
(0.975511 0.00531814 0)
(0.971587 0.00513664 0)
(0.967757 0.00493787 0)
(0.964025 0.00472703 0)
(0.960421 0.00448066 0)
(0.956945 0.00422337 0)
(0.953634 0.00389269 0)
(0.950505 0.00356841 0)
(0.947569 0.00311167 0)
(0.944928 0.00267702 0)
(0.942463 0.00213221 0)
(0.940496 0.00149104 0)
(0.938726 0.00126699 0)
(0.937872 0.000893279 0)
(1.00301 0.0258324 0)
(1.03171 0.0297423 0)
(1.04674 0.0216819 0)
(1.04988 0.0187174 0)
(1.05135 0.0170928 0)
(1.0533 0.0154266 0)
(1.05504 0.0141802 0)
(1.05636 0.0133197 0)
(1.0574 0.0126367 0)
(1.05824 0.0120509 0)
(1.05887 0.0115453 0)
(1.05927 0.0111053 0)
(1.05944 0.0107154 0)
(1.05936 0.0103637 0)
(1.05902 0.0100425 0)
(1.05843 0.0097461 0)
(1.05759 0.00947034 0)
(1.05651 0.00921202 0)
(1.05519 0.00896863 0)
(1.05365 0.0087382 0)
(1.0519 0.00851913 0)
(1.04997 0.00831014 0)
(1.04785 0.00811018 0)
(1.04558 0.00791836 0)
(1.04317 0.0077339 0)
(1.04064 0.00755607 0)
(1.038 0.00738421 0)
(1.03526 0.00721755 0)
(1.03245 0.00705537 0)
(1.02957 0.0068968 0)
(1.02664 0.00674087 0)
(1.02367 0.00658651 0)
(1.02068 0.00643228 0)
(1.01767 0.00627695 0)
(1.01465 0.00611805 0)
(1.01163 0.00595441 0)
(1.00864 0.00578145 0)
(1.00567 0.00559891 0)
(1.00275 0.00539745 0)
(0.999871 0.00518113 0)
(0.99707 0.00492777 0)
(0.994351 0.00465832 0)
(0.99174 0.00431639 0)
(0.989257 0.00396804 0)
(0.986915 0.00349782 0)
(0.984785 0.00302047 0)
(0.982819 0.00245539 0)
(0.981209 0.0017762 0)
(0.979864 0.0014529 0)
(0.979374 0.00108455 0)
(1.00268 0.0238039 0)
(1.02911 0.0286591 0)
(1.04383 0.0211454 0)
(1.04719 0.0183067 0)
(1.04866 0.0168592 0)
(1.05057 0.0152851 0)
(1.05231 0.0140561 0)
(1.05364 0.0132075 0)
(1.05472 0.0125414 0)
(1.05565 0.0119711 0)
(1.05645 0.0114796 0)
(1.05712 0.0110545 0)
(1.05765 0.0106809 0)
(1.05804 0.010347 0)
(1.05828 0.0100447 0)
(1.05837 0.00976831 0)
(1.05831 0.00951336 0)
(1.05808 0.00927636 0)
(1.05769 0.00905452 0)
(1.05715 0.00884559 0)
(1.05645 0.00864775 0)
(1.0556 0.0084595 0)
(1.05461 0.00827961 0)
(1.05348 0.00810702 0)
(1.05223 0.00794087 0)
(1.05085 0.00778034 0)
(1.04938 0.00762472 0)
(1.0478 0.00747324 0)
(1.04613 0.00732515 0)
(1.04439 0.00717958 0)
(1.04257 0.00703556 0)
(1.04069 0.00689201 0)
(1.03877 0.00674745 0)
(1.0368 0.00660064 0)
(1.03479 0.00644905 0)
(1.03276 0.00629138 0)
(1.03072 0.00612306 0)
(1.02867 0.00594344 0)
(1.02662 0.00574343 0)
(1.0246 0.00552603 0)
(1.02261 0.00527038 0)
(1.02066 0.00499376 0)
(1.01877 0.00464602 0)
(1.01697 0.00427982 0)
(1.01527 0.00380175 0)
(1.0137 0.00329131 0)
(1.01228 0.00270869 0)
(1.01113 0.00200284 0)
(1.01023 0.00157749 0)
(1.01019 0.00116733 0)
(1.00238 0.021882 0)
(1.02664 0.0275614 0)
(1.041 0.0206293 0)
(1.04459 0.0178945 0)
(1.04607 0.0166109 0)
(1.04795 0.0151377 0)
(1.04969 0.0139306 0)
(1.05101 0.013093 0)
(1.05208 0.0124421 0)
(1.05301 0.0118847 0)
(1.05385 0.0114032 0)
(1.05458 0.0109872 0)
(1.05523 0.010623 0)
(1.05578 0.0102992 0)
(1.05625 0.0100076 0)
(1.05663 0.0097427 0)
(1.05691 0.00950001 0)
(1.0571 0.00927599 0)
(1.05719 0.00906775 0)
(1.05718 0.00887291 0)
(1.05707 0.0086895 0)
(1.05686 0.00851587 0)
(1.05655 0.00835062 0)
(1.05614 0.00819257 0)
(1.05563 0.00804073 0)
(1.05504 0.00789417 0)
(1.05435 0.00775209 0)
(1.05359 0.00761366 0)
(1.05275 0.00747807 0)
(1.05184 0.00734442 0)
(1.05086 0.00721167 0)
(1.04982 0.00707874 0)
(1.04873 0.00694405 0)
(1.04758 0.00680631 0)
(1.0464 0.00666292 0)
(1.04518 0.00651245 0)
(1.04393 0.00635031 0)
(1.04266 0.00617549 0)
(1.04138 0.00597913 0)
(1.0401 0.00576323 0)
(1.03883 0.00550827 0)
(1.03757 0.00522792 0)
(1.03635 0.00487821 0)
(1.03518 0.00449916 0)
(1.03407 0.00401729 0)
(1.03306 0.00348236 0)
(1.03216 0.0028835 0)
(1.03147 0.00215936 0)
(1.03102 0.00163301 0)
(1.03139 0.00113943 0)
(1.0021 0.0200676 0)
(1.02431 0.0264509 0)
(1.03827 0.0201313 0)
(1.04206 0.0174828 0)
(1.04356 0.0163479 0)
(1.04542 0.0149832 0)
(1.04716 0.0138029 0)
(1.04848 0.0129766 0)
(1.04954 0.0123408 0)
(1.05046 0.0117963 0)
(1.05128 0.0113238 0)
(1.05202 0.010915 0)
(1.05268 0.0105576 0)
(1.05328 0.0102403 0)
(1.05381 0.00995529 0)
(1.05429 0.00969716 0)
(1.0547 0.00946158 0)
(1.05506 0.00924509 0)
(1.05535 0.00904483 0)
(1.05559 0.00885842 0)
(1.05576 0.00868384 0)
(1.05587 0.00851937 0)
(1.05591 0.00836355 0)
(1.0559 0.00821511 0)
(1.05581 0.00807295 0)
(1.05567 0.00793611 0)
(1.05547 0.00780368 0)
(1.05521 0.00767479 0)
(1.05489 0.00754858 0)
(1.05452 0.00742409 0)
(1.0541 0.00730022 0)
(1.05363 0.00717586 0)
(1.05312 0.00704935 0)
(1.05256 0.00691934 0)
(1.05197 0.00678315 0)
(1.05135 0.00663922 0)
(1.05069 0.00648293 0)
(1.05002 0.00631295 0)
(1.04932 0.00612064 0)
(1.04862 0.00590702 0)
(1.04791 0.00565397 0)
(1.04721 0.00537165 0)
(1.04653 0.00502203 0)
(1.04588 0.00463359 0)
(1.04527 0.00415006 0)
(1.04472 0.00359751 0)
(1.04427 0.00298266 0)
(1.04399 0.00224418 0)
(1.04393 0.00162058 0)
(1.04465 0.0010084 0)
(1.00185 0.0183609 0)
(1.02211 0.0253317 0)
(1.03564 0.0196479 0)
(1.03962 0.0170732 0)
(1.04115 0.0160709 0)
(1.04298 0.0148206 0)
(1.04471 0.0136728 0)
(1.04604 0.0128579 0)
(1.04708 0.0122374 0)
(1.04799 0.0117063 0)
(1.0488 0.0112431 0)
(1.04953 0.0108413 0)
(1.05018 0.0104899 0)
(1.05078 0.010178 0)
(1.05132 0.00989803 0)
(1.05181 0.00964465 0)
(1.05226 0.00941375 0)
(1.05267 0.00920198 0)
(1.05304 0.00900658 0)
(1.05336 0.00882521 0)
(1.05365 0.00865588 0)
(1.05389 0.00849689 0)
(1.0541 0.00834673 0)
(1.05426 0.00820411 0)
(1.05439 0.00806791 0)
(1.05448 0.00793711 0)
(1.05453 0.00781078 0)
(1.05454 0.00768802 0)
(1.05452 0.00756793 0)
(1.05446 0.00744953 0)
(1.05436 0.00733168 0)
(1.05424 0.00721322 0)
(1.05408 0.00709246 0)
(1.05389 0.00696797 0)
(1.05368 0.00683703 0)
(1.05344 0.00669792 0)
(1.05319 0.00654606 0)
(1.05291 0.00637975 0)
(1.05262 0.00619067 0)
(1.05232 0.00597884 0)
(1.05202 0.00572758 0)
(1.05172 0.00544371 0)
(1.05143 0.00509473 0)
(1.05116 0.00469898 0)
(1.05092 0.00421419 0)
(1.05073 0.00364886 0)
(1.0506 0.00301774 0)
(1.05065 0.00226436 0)
(1.05091 0.00154943 0)
(1.05187 0.000794075 0)
(1.00162 0.0167618 0)
(1.02004 0.0242083 0)
(1.03311 0.0191748 0)
(1.03727 0.0166674 0)
(1.03883 0.015781 0)
(1.04062 0.0146494 0)
(1.04235 0.0135399 0)
(1.04368 0.0127369 0)
(1.04472 0.0121318 0)
(1.04561 0.0116148 0)
(1.04641 0.0111614 0)
(1.04713 0.0107668 0)
(1.04777 0.0104214 0)
(1.04835 0.0101147 0)
(1.04889 0.00983936 0)
(1.04938 0.00959009 0)
(1.04982 0.00936298 0)
(1.05024 0.00915479 0)
(1.05062 0.00896286 0)
(1.05097 0.00878492 0)
(1.05129 0.00861902 0)
(1.05158 0.00846347 0)
(1.05184 0.00831679 0)
(1.05208 0.00817769 0)
(1.05229 0.00804503 0)
(1.05248 0.00791779 0)
(1.05264 0.00779505 0)
(1.05278 0.00767588 0)
(1.0529 0.00755938 0)
(1.05299 0.00744457 0)
(1.05307 0.00733029 0)
(1.05312 0.00721536 0)
(1.05316 0.00709806 0)
(1.05318 0.0069769 0)
(1.05318 0.00684916 0)
(1.05317 0.00671295 0)
(1.05315 0.00656378 0)
(1.05311 0.00639959 0)
(1.05307 0.0062124 0)
(1.05302 0.00600126 0)
(1.05297 0.00575096 0)
(1.05292 0.00546518 0)
(1.05289 0.0051164 0)
(1.05287 0.00471444 0)
(1.05288 0.00422772 0)
(1.05292 0.00365254 0)
(1.05303 0.00300457 0)
(1.05329 0.00223323 0)
(1.05377 0.00143297 0)
(1.05488 0.000522613 0)
(1.00142 0.0152693 0)
(1.01812 0.0230844 0)
(1.03068 0.0187081 0)
(1.03501 0.0162669 0)
(1.03661 0.0154794 0)
(1.03836 0.0144688 0)
(1.04008 0.0134038 0)
(1.04141 0.0126137 0)
(1.04245 0.0120237 0)
(1.04333 0.0115215 0)
(1.04411 0.0110785 0)
(1.04482 0.0106914 0)
(1.04545 0.0103522 0)
(1.04602 0.0100509 0)
(1.04654 0.00978019 0)
(1.04702 0.00953496 0)
(1.04746 0.00931143 0)
(1.04786 0.0091065 0)
(1.04824 0.00891757 0)
(1.04859 0.00874244 0)
(1.04891 0.00857922 0)
(1.04921 0.00842623 0)
(1.04948 0.00828201 0)
(1.04974 0.00814527 0)
(1.04998 0.00801488 0)
(1.0502 0.00788983 0)
(1.0504 0.00776919 0)
(1.05059 0.00765208 0)
(1.05077 0.00753757 0)
(1.05093 0.00742472 0)
(1.05108 0.00731233 0)
(1.05122 0.00719925 0)
(1.05135 0.00708373 0)
(1.05146 0.00696424 0)
(1.05157 0.00683806 0)
(1.05167 0.00670319 0)
(1.05177 0.00655521 0)
(1.05186 0.00639173 0)
(1.05195 0.00620513 0)
(1.05204 0.00599358 0)
(1.05213 0.00574323 0)
(1.05223 0.00545498 0)
(1.05234 0.00510556 0)
(1.05246 0.00469794 0)
(1.05261 0.00420824 0)
(1.0528 0.00362458 0)
(1.05304 0.00295923 0)
(1.05343 0.00216635 0)
(1.05403 0.00128449 0)
(1.05521 0.000220433 0)
(1.00124 0.0138822 0)
(1.01633 0.0219643 0)
(1.02837 0.0182441 0)
(1.03284 0.0158728 0)
(1.03448 0.0151679 0)
(1.03619 0.0142784 0)
(1.0379 0.0132643 0)
(1.03924 0.0124884 0)
(1.04027 0.0119132 0)
(1.04114 0.0114262 0)
(1.04191 0.0109943 0)
(1.0426 0.0106151 0)
(1.04322 0.0102823 0)
(1.04378 0.0099866 0)
(1.04429 0.00972064 0)
(1.04476 0.00947955 0)
(1.04519 0.00925965 0)
(1.04558 0.00905796 0)
(1.04595 0.00887196 0)
(1.04628 0.0086995 0)
(1.0466 0.00853873 0)
(1.04689 0.008388 0)
(1.04716 0.00824585 0)
(1.04742 0.008111 0)
(1.04766 0.00798233 0)
(1.04788 0.00785884 0)
(1.0481 0.00773962 0)
(1.0483 0.00762378 0)
(1.04849 0.00751043 0)
(1.04867 0.00739862 0)
(1.04885 0.00728719 0)
(1.04902 0.00717497 0)
(1.04918 0.00706021 0)
(1.04934 0.00694135 0)
(1.04949 0.0068157 0)
(1.04964 0.00668111 0)
(1.04979 0.00653329 0)
(1.04994 0.00636953 0)
(1.05009 0.0061826 0)
(1.05024 0.00596981 0)
(1.0504 0.0057186 0)
(1.05056 0.00542743 0)
(1.05074 0.00507661 0)
(1.05094 0.00466367 0)
(1.05115 0.00417003 0)
(1.05141 0.00357839 0)
(1.05171 0.00289545 0)
(1.05216 0.00207727 0)
(1.05281 0.00111888 0)
(1.05398 -8.902e-05 0)
(1.00107 0.0125984 0)
(1.01467 0.0208518 0)
(1.02616 0.0177793 0)
(1.03075 0.0154861 0)
(1.03244 0.0148482 0)
(1.03411 0.0140777 0)
(1.0358 0.0131206 0)
(1.03715 0.0123608 0)
(1.03817 0.0118001 0)
(1.03903 0.0113289 0)
(1.0398 0.0109087 0)
(1.04048 0.0105378 0)
(1.04109 0.0102117 0)
(1.04164 0.0099217 0)
(1.04214 0.00966069 0)
(1.04259 0.00942388 0)
(1.04301 0.00920772 0)
(1.04339 0.00900935 0)
(1.04375 0.00882633 0)
(1.04407 0.00865657 0)
(1.04438 0.00849823 0)
(1.04466 0.0083497 0)
(1.04493 0.00820953 0)
(1.04517 0.00807644 0)
(1.04541 0.00794931 0)
(1.04563 0.00782716 0)
(1.04584 0.00770907 0)
(1.04604 0.00759419 0)
(1.04623 0.00748163 0)
(1.04641 0.00737046 0)
(1.04659 0.00725955 0)
(1.04676 0.00714769 0)
(1.04693 0.0070332 0)
(1.0471 0.00691443 0)
(1.04727 0.00678875 0)
(1.04743 0.00665388 0)
(1.0476 0.00650566 0)
(1.04776 0.00634107 0)
(1.04793 0.00615327 0)
(1.04811 0.00593879 0)
(1.04829 0.00568623 0)
(1.04848 0.00539199 0)
(1.04868 0.00503922 0)
(1.0489 0.00462135 0)
(1.04914 0.00412312 0)
(1.04941 0.00352367 0)
(1.04974 0.00282314 0)
(1.0502 0.00197725 0)
(1.05085 0.000947793 0)
(1.05195 -0.000393773 0)
(1.00093 0.0114151 0)
(1.01314 0.0197512 0)
(1.02406 0.0173106 0)
(1.02875 0.0151074 0)
(1.0305 0.0145223 0)
(1.03213 0.0138664 0)
(1.0338 0.0129724 0)
(1.03514 0.0122311 0)
(1.03617 0.0116846 0)
(1.03702 0.0112293 0)
(1.03778 0.0108215 0)
(1.03845 0.0104594 0)
(1.03905 0.0101402 0)
(1.03959 0.00985614 0)
(1.04007 0.00960027 0)
(1.04052 0.00936789 0)
(1.04093 0.00915561 0)
(1.0413 0.00896067 0)
(1.04164 0.00878072 0)
(1.04196 0.00861372 0)
(1.04226 0.00845788 0)
(1.04253 0.00831159 0)
(1.04279 0.00817341 0)
(1.04302 0.00804208 0)
(1.04325 0.00791646 0)
(1.04346 0.00779558 0)
(1.04366 0.00767855 0)
(1.04385 0.00756453 0)
(1.04404 0.00745264 0)
(1.04422 0.00734198 0)
(1.04439 0.00723141 0)
(1.04456 0.00711975 0)
(1.04473 0.0070053 0)
(1.04489 0.00688641 0)
(1.04506 0.00676047 0)
(1.04522 0.00662509 0)
(1.04539 0.00647623 0)
(1.04555 0.00631061 0)
(1.04572 0.00612173 0)
(1.0459 0.00590543 0)
(1.04608 0.00565133 0)
(1.04627 0.00535413 0)
(1.04648 0.00499919 0)
(1.04669 0.00457685 0)
(1.04693 0.00407379 0)
(1.0472 0.00346667 0)
(1.04751 0.00274905 0)
(1.04795 0.00187423 0)
(1.04856 0.000779731 0)
(1.04955 -0.000683936 0)
(1.0008 0.0103293 0)
(1.01174 0.0186665 0)
(1.02208 0.0168353 0)
(1.02683 0.0147368 0)
(1.02865 0.0141923 0)
(1.03024 0.0136445 0)
(1.03188 0.012819 0)
(1.03323 0.0120991 0)
(1.03426 0.0115667 0)
(1.0351 0.0111273 0)
(1.03585 0.0107327 0)
(1.03651 0.0103798 0)
(1.0371 0.0100678 0)
(1.03763 0.00978986 0)
(1.03811 0.00953932 0)
(1.03854 0.00931153 0)
(1.03894 0.00910326 0)
(1.0393 0.00891186 0)
(1.03964 0.00873508 0)
(1.03995 0.00857094 0)
(1.04023 0.00841767 0)
(1.0405 0.00827369 0)
(1.04074 0.00813756 0)
(1.04097 0.00800801 0)
(1.04119 0.00788393 0)
(1.04139 0.00776435 0)
(1.04158 0.00764838 0)
(1.04177 0.00753521 0)
(1.04195 0.00742398 0)
(1.04212 0.00731379 0)
(1.04228 0.00720353 0)
(1.04245 0.00709202 0)
(1.04261 0.00697759 0)
(1.04276 0.00685852 0)
(1.04292 0.00673227 0)
(1.04308 0.00659635 0)
(1.04324 0.00644682 0)
(1.0434 0.00628015 0)
(1.04356 0.00609018 0)
(1.04373 0.00587216 0)
(1.0439 0.00561655 0)
(1.04408 0.00531669 0)
(1.04427 0.00495961 0)
(1.04447 0.00453337 0)
(1.04469 0.0040256 0)
(1.04494 0.00341111 0)
(1.04524 0.00267739 0)
(1.04563 0.00177384 0)
(1.04618 0.000621656 0)
(1.04704 -0.000947053 0)
(1.00069 0.0093371 0)
(1.01046 0.0176019 0)
(1.02021 0.0163512 0)
(1.025 0.0143745 0)
(1.02689 0.0138601 0)
(1.02844 0.0134122 0)
(1.03006 0.0126597 0)
(1.0314 0.0119648 0)
(1.03243 0.0114463 0)
(1.03327 0.011023 0)
(1.03401 0.010642 0)
(1.03466 0.0102989 0)
(1.03524 0.00999434 0)
(1.03576 0.00972277 0)
(1.03623 0.00947774 0)
(1.03666 0.00925473 0)
(1.03705 0.0090506 0)
(1.0374 0.00886287 0)
(1.03773 0.00868937 0)
(1.03803 0.00852818 0)
(1.0383 0.00837757 0)
(1.03856 0.00823596 0)
(1.0388 0.00810194 0)
(1.03902 0.00797423 0)
(1.03923 0.00785173 0)
(1.03942 0.00773348 0)
(1.03961 0.00761861 0)
(1.03978 0.00750632 0)
(1.03995 0.00739576 0)
(1.04012 0.00728607 0)
(1.04027 0.00717615 0)
(1.04043 0.0070648 0)
(1.04058 0.00695041 0)
(1.04073 0.0068312 0)
(1.04088 0.00670469 0)
(1.04103 0.00656827 0)
(1.04118 0.00641813 0)
(1.04133 0.00625053 0)
(1.04148 0.00605958 0)
(1.04163 0.00584007 0)
(1.0418 0.00558311 0)
(1.04196 0.00528103 0)
(1.04214 0.00492203 0)
(1.04232 0.00449258 0)
(1.04252 0.00398051 0)
(1.04274 0.00335919 0)
(1.043 0.00261088 0)
(1.04334 0.00168026 0)
(1.04381 0.000478831 0)
(1.04452 -0.00117522 0)
(1.0006 0.00843413 0)
(1.0093 0.0165613 0)
(1.01845 0.0158564 0)
(1.02326 0.01402 0)
(1.02522 0.0135276 0)
(1.02674 0.0131699 0)
(1.02832 0.012494 0)
(1.02966 0.011828 0)
(1.03069 0.0113235 0)
(1.03153 0.010916 0)
(1.03226 0.0105494 0)
(1.0329 0.0102166 0)
(1.03348 0.0099198 0)
(1.03399 0.00965479 0)
(1.03445 0.00941547 0)
(1.03487 0.0091974 0)
(1.03525 0.00899758 0)
(1.03559 0.00881365 0)
(1.03591 0.00864354 0)
(1.0362 0.00848539 0)
(1.03647 0.00833752 0)
(1.03672 0.00819837 0)
(1.03695 0.00806652 0)
(1.03716 0.00794071 0)
(1.03736 0.00781985 0)
(1.03755 0.00770297 0)
(1.03773 0.00758924 0)
(1.03789 0.00747786 0)
(1.03806 0.00736802 0)
(1.03821 0.00725886 0)
(1.03836 0.00714931 0)
(1.03851 0.00703819 0)
(1.03865 0.00692388 0)
(1.03879 0.00680459 0)
(1.03893 0.00667789 0)
(1.03907 0.00654109 0)
(1.03921 0.00639045 0)
(1.03935 0.0062221 0)
(1.03949 0.00603035 0)
(1.03964 0.00580963 0)
(1.03979 0.00555159 0)
(1.03993 0.00524779 0)
(1.04009 0.00488726 0)
(1.04025 0.00445533 0)
(1.04042 0.00393965 0)
(1.04061 0.00331234 0)
(1.04083 0.00255144 0)
(1.04112 0.00159682 0)
(1.04151 0.000355562 0)
(1.04205 -0.00136254 0)
(1.00051 0.00761565 0)
(1.00825 0.0155487 0)
(1.0168 0.0153497 0)
(1.0216 0.0136728 0)
(1.02363 0.0131966 0)
(1.02512 0.0129183 0)
(1.02667 0.0123214 0)
(1.02801 0.0116883 0)
(1.02904 0.0111984 0)
(1.02987 0.0108065 0)
(1.03059 0.0104546 0)
(1.03123 0.0101328 0)
(1.0318 0.00984407 0)