/*--------------------------------*- C++ -*----------------------------------*\
  =========                 |
  \\      /  F ield         | OpenFOAM: The Open Source CFD Toolbox
   \\    /   O peration     | Website:  https://openfoam.org
    \\  /    A nd           | Version:  7
     \\/     M anipulation  |
\*---------------------------------------------------------------------------*/
FoamFile
{
    version     2.0;
    format      ascii;
    class       volVectorField;
    location    "0.46";
    object      vorticity;
}
// * * * * * * * * * * * * * * * * * * * * * * * * * * * * * * * * * * * * * //

dimensions      [0 0 -1 0 0 0 0];

internalField   nonuniform List<vector> 
70000
(
(0 -0 -45716.1)
(0 -0 -28617.8)
(0 -0 -20913.3)
(0 -0 -16979.3)
(0 -0 -14957)
(0 -0 -13648.8)
(0 -0 -12637.9)
(0 -0 -11823.8)
(0 -0 -11158.3)
(0 -0 -10602.7)
(0 -0 -10129.1)
(0 -0 -9718.78)
(0 -0 -9358.95)
(0 -0 -9040.19)
(0 -0 -8755.41)
(0 -0 -8499.11)
(0 -0 -8266.96)
(0 -0 -8055.52)
(0 -0 -7861.99)
(0 -0 -7684.07)
(0 -0 -7519.87)
(0 -0 -7367.81)
(0 -0 -7226.55)
(0 -0 -7094.97)
(0 -0 -6972.1)
(0 -0 -6857.13)
(0 -0 -6749.34)
(0 -0 -6648.14)
(0 -0 -6553.03)
(0 -0 -6463.56)
(0 -0 -6379.38)
(0 -0 -6300.17)
(0 -0 -6225.76)
(0 -0 -6155.9)
(0 -0 -6090.56)
(0 -0 -6029.64)
(0 -0 -5973.21)
(0 -0 -5921.42)
(0 -0 -5874.23)
(0 -0 -5832.59)
(0 -0 -5795.47)
(0 -0 -5766.34)
(0 -0 -5739.83)
(0 -0 -5729)
(0 -0 -5709.14)
(0 -0 -5733.76)
(0 -0 -5695.67)
(0 -0 -5803.52)
(0 -0 -5687.48)
(0 -0 -5685.26)
(0 -0 -13549.7)
(0 -0 -19947.4)
(0 -0 -18536.2)
(0 -0 -16249.2)
(0 -0 -14502.5)
(0 -0 -13277.5)
(0 -0 -12348.1)
(0 -0 -11596.7)
(0 -0 -10973)
(0 -0 -10446.3)
(0 -0 -9994.28)
(0 -0 -9600.89)
(0 -0 -9254.52)
(0 -0 -8946.65)
(0 -0 -8670.78)
(0 -0 -8421.87)
(0 -0 -8195.91)
(0 -0 -7989.69)
(0 -0 -7800.59)
(0 -0 -7626.45)
(0 -0 -7465.49)
(0 -0 -7316.19)
(0 -0 -7177.28)
(0 -0 -7047.68)
(0 -0 -6926.46)
(0 -0 -6812.81)
(0 -0 -6706.07)
(0 -0 -6605.61)
(0 -0 -6510.94)
(0 -0 -6421.61)
(0 -0 -6337.25)
(0 -0 -6257.51)
(0 -0 -6182.15)
(0 -0 -6110.92)
(0 -0 -6043.69)
(0 -0 -5980.3)
(0 -0 -5920.7)
(0 -0 -5864.95)
(0 -0 -5812.88)
(0 -0 -5765.18)
(0 -0 -5720.94)
(0 -0 -5682.76)
(0 -0 -5646.6)
(0 -0 -5622.13)
(0 -0 -5591.44)
(0 -0 -5593.72)
(0 -0 -5553.23)
(0 -0 -5614.57)
(0 -0 -5541.57)
(0 -0 -5697.01)
(0 -0 -3818.75)
(0 -0 -10828.8)
(0 -0 -13363.5)
(0 -0 -13519.7)
(0 -0 -12866)
(0 -0 -12139.3)
(0 -0 -11497)
(0 -0 -10935.7)
(0 -0 -10442.9)
(0 -0 -10009.3)
(0 -0 -9626.13)
(0 -0 -9285.43)
(0 -0 -8980.41)
(0 -0 -8705.63)
(0 -0 -8456.69)
(0 -0 -8230.01)
(0 -0 -8022.64)
(0 -0 -7832.12)
(0 -0 -7656.43)
(0 -0 -7493.82)
(0 -0 -7342.85)
(0 -0 -7202.27)
(0 -0 -7071.01)
(0 -0 -6948.14)
(0 -0 -6832.87)
(0 -0 -6724.49)
(0 -0 -6622.41)
(0 -0 -6526.08)
(0 -0 -6435.05)
(0 -0 -6348.89)
(0 -0 -6267.27)
(0 -0 -6189.86)
(0 -0 -6116.4)
(0 -0 -6046.63)
(0 -0 -5980.4)
(0 -0 -5917.51)
(0 -0 -5857.85)
(0 -0 -5801.37)
(0 -0 -5747.92)
(0 -0 -5697.78)
(0 -0 -5650.44)
(0 -0 -5607.21)
(0 -0 -5565.92)
(0 -0 -5531.88)
(0 -0 -5495.09)
(0 -0 -5477.18)
(0 -0 -5439.74)
(0 -0 -5447.32)
(0 -0 -5418.82)
(0 -0 -5480.7)
(0 -0 -533.066)
(0 -0 -4662.64)
(0 -0 -7718.6)
(0 -0 -9328.96)
(0 -0 -9892.97)
(0 -0 -9958.39)
(0 -0 -9826.58)
(0 -0 -9614.33)
(0 -0 -9370.49)
(0 -0 -9119.77)
(0 -0 -8874.62)
(0 -0 -8640.67)
(0 -0 -8420.03)
(0 -0 -8213.17)
(0 -0 -8019.75)
(0 -0 -7839.07)
(0 -0 -7670.26)
(0 -0 -7512.42)
(0 -0 -7364.66)
(0 -0 -7226.15)
(0 -0 -7096.12)
(0 -0 -6973.86)
(0 -0 -6858.73)
(0 -0 -6750.15)
(0 -0 -6647.58)
(0 -0 -6550.56)
(0 -0 -6458.66)
(0 -0 -6371.49)
(0 -0 -6288.72)
(0 -0 -6210.03)
(0 -0 -6135.16)
(0 -0 -6063.83)
(0 -0 -5995.84)
(0 -0 -5930.99)
(0 -0 -5869.11)
(0 -0 -5810.03)
(0 -0 -5753.64)
(0 -0 -5699.82)
(0 -0 -5648.51)
(0 -0 -5599.61)
(0 -0 -5553.17)
(0 -0 -5509.14)
(0 -0 -5467.46)
(0 -0 -5428.87)
(0 -0 -5391.97)
(0 -0 -5359.35)
(0 -0 -5331.72)
(0 -0 -5294.45)
(0 -0 -5307.66)
(0 -0 -5246.14)
(0 -0 322.429)
(0 -0 -1444.52)
(0 -0 -3532.68)
(0 -0 -5259.59)
(0 -0 -6400.09)
(0 -0 -7075.3)
(0 -0 -7453.11)
(0 -0 -7643.92)
(0 -0 -7715.96)
(0 -0 -7713.5)
(0 -0 -7665.12)
(0 -0 -7588.92)
(0 -0 -7496.37)
(0 -0 -7394.77)
(0 -0 -7288.82)
(0 -0 -7181.58)
(0 -0 -7075.02)
(0 -0 -6970.4)
(0 -0 -6868.51)
(0 -0 -6769.8)
(0 -0 -6674.55)
(0 -0 -6582.87)
(0 -0 -6494.77)
(0 -0 -6410.21)
(0 -0 -6329.1)
(0 -0 -6251.33)
(0 -0 -6176.76)
(0 -0 -6105.26)
(0 -0 -6036.69)
(0 -0 -5970.9)
(0 -0 -5907.78)
(0 -0 -5847.19)
(0 -0 -5789.01)
(0 -0 -5733.13)
(0 -0 -5679.44)
(0 -0 -5627.83)
(0 -0 -5578.25)
(0 -0 -5530.54)
(0 -0 -5484.79)
(0 -0 -5440.6)
(0 -0 -5398.54)
(0 -0 -5357.51)
(0 -0 -5319.28)
(0 -0 -5280.69)
(0 -0 -5247.91)
(0 -0 -5207.64)
(0 -0 -5190.57)
(0 -0 -5129.18)
(0 -0 -5161.27)
(0 -0 -5053.77)
(0 -0 364.69)
(0 -0 -158.541)
(0 -0 -1181.54)
(0 -0 -2362.26)
(0 -0 -3418.17)
(0 -0 -4257.31)
(0 -0 -4892.99)
(0 -0 -5359.02)
(0 -0 -5690.45)
(0 -0 -5919.27)
(0 -0 -6071.78)
(0 -0 -6168.11)
(0 -0 -6223.19)
(0 -0 -6248.03)
(0 -0 -6250.69)
(0 -0 -6237.14)
(0 -0 -6211.79)
(0 -0 -6177.9)
(0 -0 -6137.92)
(0 -0 -6093.69)
(0 -0 -6046.59)
(0 -0 -5997.66)
(0 -0 -5947.69)
(0 -0 -5897.28)
(0 -0 -5846.87)
(0 -0 -5796.8)
(0 -0 -5747.32)
(0 -0 -5698.6)
(0 -0 -5650.78)
(0 -0 -5603.96)
(0 -0 -5558.19)
(0 -0 -5513.53)
(0 -0 -5469.98)
(0 -0 -5427.57)
(0 -0 -5386.28)
(0 -0 -5346.11)
(0 -0 -5307.08)
(0 -0 -5269.06)
(0 -0 -5232.26)
(0 -0 -5196.18)
(0 -0 -5161.67)
(0 -0 -5127.09)
(0 -0 -5095.29)
(0 -0 -5060.86)
(0 -0 -5034.26)
(0 -0 -4994.16)
(0 -0 -4983.44)
(0 -0 -4920.08)
(0 -0 -4947.68)
(0 -0 -4850.21)
(0 -0 254.006)
(0 -0 185.303)
(0 -0 -173.274)
(0 -0 -764.754)
(0 -0 -1448.03)
(0 -0 -2116.22)
(0 -0 -2721.96)
(0 -0 -3245.68)
(0 -0 -3683.19)
(0 -0 -4040.21)
(0 -0 -4326.99)
(0 -0 -4554.62)
(0 -0 -4733.43)
(0 -0 -4872.38)
(0 -0 -4979.02)
(0 -0 -5059.54)
(0 -0 -5118.98)
(0 -0 -5161.43)
(0 -0 -5190.15)
(0 -0 -5207.81)
(0 -0 -5216.55)
(0 -0 -5218.08)
(0 -0 -5213.82)
(0 -0 -5204.9)
(0 -0 -5192.25)
(0 -0 -5176.62)
(0 -0 -5158.62)
(0 -0 -5138.76)
(0 -0 -5117.43)
(0 -0 -5094.98)
(0 -0 -5071.68)
(0 -0 -5047.76)
(0 -0 -5023.39)
(0 -0 -4998.74)
(0 -0 -4973.92)
(0 -0 -4949.03)
(0 -0 -4924.18)
(0 -0 -4899.31)
(0 -0 -4874.73)
(0 -0 -4849.97)
(0 -0 -4825.93)
(0 -0 -4800.99)
(0 -0 -4778.08)
(0 -0 -4751.61)
(0 -0 -4732.2)
(0 -0 -4699.09)
(0 -0 -4691.23)
(0 -0 -4639.12)
(0 -0 -4655.51)
(0 -0 -4580.74)
(0 -0 178.731)
(0 -0 204.496)
(0 -0 130.675)
(0 -0 -85.2115)
(0 -0 -418.007)
(0 -0 -815.28)
(0 -0 -1237.17)
(0 -0 -1654.76)
(0 -0 -2048.13)
(0 -0 -2406.23)
(0 -0 -2724.76)
(0 -0 -3003.59)
(0 -0 -3244.87)
(0 -0 -3451.91)
(0 -0 -3628.43)
(0 -0 -3778.16)
(0 -0 -3904.61)
(0 -0 -4010.98)
(0 -0 -4100.08)
(0 -0 -4174.37)
(0 -0 -4235.99)
(0 -0 -4286.76)
(0 -0 -4328.26)
(0 -0 -4361.84)
(0 -0 -4388.63)
(0 -0 -4409.62)
(0 -0 -4425.64)
(0 -0 -4437.39)
(0 -0 -4445.47)
(0 -0 -4450.4)
(0 -0 -4452.61)
(0 -0 -4452.48)
(0 -0 -4450.31)
(0 -0 -4446.41)
(0 -0 -4440.97)
(0 -0 -4434.21)
(0 -0 -4426.31)
(0 -0 -4417.33)
(0 -0 -4407.55)
(0 -0 -4396.71)
(0 -0 -4385.52)
(0 -0 -4372.83)
(0 -0 -4360.8)
(0 -0 -4345.32)
(0 -0 -4334.22)
(0 -0 -4312.24)
(0 -0 -4307.52)
(0 -0 -4270.41)
(0 -0 -4279.83)
(0 -0 -4225.94)
(0 -0 148.005)
(0 -0 164.596)
(0 -0 169.989)
(0 -0 120.99)
(0 -0 1.02016)
(0 -0 -180.865)
(0 -0 -409.316)
(0 -0 -667.988)
(0 -0 -941.03)
(0 -0 -1215.48)
(0 -0 -1482.07)
(0 -0 -1734.75)
(0 -0 -1969.96)
(0 -0 -2185.99)
(0 -0 -2382.43)
(0 -0 -2559.71)
(0 -0 -2718.79)
(0 -0 -2860.91)
(0 -0 -2987.45)
(0 -0 -3099.83)
(0 -0 -3199.41)
(0 -0 -3287.5)
(0 -0 -3365.3)
(0 -0 -3433.93)
(0 -0 -3494.38)
(0 -0 -3547.55)
(0 -0 -3594.24)
(0 -0 -3635.18)
(0 -0 -3670.98)
(0 -0 -3702.21)
(0 -0 -3729.35)
(0 -0 -3752.83)
(0 -0 -3773.02)
(0 -0 -3790.28)
(0 -0 -3804.86)
(0 -0 -3817.05)
(0 -0 -3827.05)
(0 -0 -3835.03)
(0 -0 -3841.2)
(0 -0 -3845.55)
(0 -0 -3848.44)
(0 -0 -3849.43)
(0 -0 -3849.53)
(0 -0 -3846.64)
(0 -0 -3845.18)
(0 -0 -3835.73)
(0 -0 -3836.5)
(0 -0 -3814.09)
(0 -0 -3821.99)
(0 -0 -3786.61)
(0 -0 136.812)
(0 -0 137.06)
(0 -0 148.732)
(0 -0 149.687)
(0 -0 122.203)
(0 -0 60.0918)
(0 -0 -36.4951)
(0 -0 -163.925)
(0 -0 -315.853)
(0 -0 -484.959)
(0 -0 -664.308)
(0 -0 -847.956)
(0 -0 -1031.13)
(0 -0 -1210.22)
(0 -0 -1382.63)
(0 -0 -1546.64)
(0 -0 -1701.22)
(0 -0 -1845.84)
(0 -0 -1980.36)
(0 -0 -2104.93)
(0 -0 -2219.87)
(0 -0 -2325.63)
(0 -0 -2422.72)
(0 -0 -2511.71)
(0 -0 -2593.17)
(0 -0 -2667.65)
(0 -0 -2735.71)
(0 -0 -2797.86)
(0 -0 -2854.57)
(0 -0 -2906.29)
(0 -0 -2953.42)
(0 -0 -2996.34)
(0 -0 -3035.38)
(0 -0 -3070.86)
(0 -0 -3103.03)
(0 -0 -3132.16)
(0 -0 -3158.43)
(0 -0 -3182.07)
(0 -0 -3203.18)
(0 -0 -3221.97)
(0 -0 -3238.44)
(0 -0 -3252.73)
(0 -0 -3264.93)
(0 -0 -3274.45)
(0 -0 -3283.22)
(0 -0 -3285.9)
(0 -0 -3293.89)
(0 -0 -3284.95)
(0 -0 -3294.94)
(0 -0 -3275.95)
(0 -0 129.932)
(0 -0 123.989)
(0 -0 129.177)
(0 -0 136.387)
(0 -0 136.485)
(0 -0 123.218)
(0 -0 92.9187)
(0 -0 43.711)
(0 -0 -24.259)
(0 -0 -109.17)
(0 -0 -208.249)
(0 -0 -318.351)
(0 -0 -436.316)
(0 -0 -559.22)
(0 -0 -684.502)
(0 -0 -810.028)
(0 -0 -934.08)
(0 -0 -1055.33)
(0 -0 -1172.78)
(0 -0 -1285.73)
(0 -0 -1393.71)
(0 -0 -1496.43)
(0 -0 -1593.78)
(0 -0 -1685.73)
(0 -0 -1772.37)
(0 -0 -1853.83)
(0 -0 -1930.29)
(0 -0 -2001.96)
(0 -0 -2069.06)
(0 -0 -2131.82)
(0 -0 -2190.48)
(0 -0 -2245.25)
(0 -0 -2296.34)
(0 -0 -2343.97)
(0 -0 -2388.29)
(0 -0 -2429.53)
(0 -0 -2467.77)
(0 -0 -2503.25)
(0 -0 -2535.95)
(0 -0 -2566.16)
(0 -0 -2593.66)
(0 -0 -2618.89)
(0 -0 -2641.4)
(0 -0 -2661.38)
(0 -0 -2679.42)
(0 -0 -2692.49)
(0 -0 -2707.78)
(0 -0 -2710.37)
(0 -0 -2723.99)
(0 -0 -2719.13)
(0 -0 122.941)
(0 -0 116.638)
(0 -0 118.011)
(0 -0 122.493)
(0 -0 126.443)
(0 -0 126.92)
(0 -0 121.441)
(0 -0 107.691)
(0 -0 84.0119)
(0 -0 49.6805)
(0 -0 4.7796)
(0 -0 -49.9855)
(0 -0 -113.488)
(0 -0 -184.355)
(0 -0 -261.123)
(0 -0 -342.346)
(0 -0 -426.668)
(0 -0 -512.868)
(0 -0 -599.88)
(0 -0 -686.797)
(0 -0 -772.866)
(0 -0 -857.478)
(0 -0 -940.153)
(0 -0 -1020.53)
(0 -0 -1098.33)
(0 -0 -1173.38)
(0 -0 -1245.55)
(0 -0 -1314.78)
(0 -0 -1381.05)
(0 -0 -1444.37)
(0 -0 -1504.76)
(0 -0 -1562.28)
(0 -0 -1616.98)
(0 -0 -1668.94)
(0 -0 -1718.21)
(0 -0 -1764.89)
(0 -0 -1808.98)
(0 -0 -1850.64)
(0 -0 -1889.77)
(0 -0 -1926.63)
(0 -0 -1960.89)
(0 -0 -1993.02)
(0 -0 -2022.41)
(0 -0 -2049.45)
(0 -0 -2074.17)
(0 -0 -2094.71)
(0 -0 -2115.71)
(0 -0 -2127.17)
(0 -0 -2143.99)
(0 -0 -2150.24)
(0 -0 115.62)
(0 -0 110.406)
(0 -0 110.73)
(0 -0 113.174)
(0 -0 115.993)
(0 -0 118.259)
(0 -0 119.139)
(0 -0 117.427)
(0 -0 111.832)
(0 -0 101.288)
(0 -0 85.0613)
(0 -0 62.7707)
(0 -0 34.3535)
(0 -0 0.0254821)
(0 -0 -39.7868)
(0 -0 -84.512)
(0 -0 -133.493)
(0 -0 -186.037)
(0 -0 -241.451)
(0 -0 -299.067)
(0 -0 -358.265)
(0 -0 -418.48)
(0 -0 -479.208)
(0 -0 -540.012)
(0 -0 -600.517)
(0 -0 -660.407)
(0 -0 -719.421)
(0 -0 -777.346)
(0 -0 -834.007)
(0 -0 -889.272)
(0 -0 -943.029)
(0 -0 -995.201)
(0 -0 -1045.72)
(0 -0 -1094.54)
(0 -0 -1141.61)
(0 -0 -1186.94)
(0 -0 -1230.44)
(0 -0 -1272.18)
(0 -0 -1312)
(0 -0 -1350.07)
(0 -0 -1386.05)
(0 -0 -1420.28)
(0 -0 -1452.2)
(0 -0 -1482.12)
(0 -0 -1509.9)
(0 -0 -1534.21)
(0 -0 -1558.15)
(0 -0 -1575.24)
(0 -0 -1593.68)
(0 -0 -1606.94)
(0 -0 108.375)
(0 -0 104.188)
(0 -0 104.405)
(0 -0 106.12)
(0 -0 107.993)
(0 -0 109.709)
(0 -0 111.25)
(0 -0 112.27)
(0 -0 112.183)
(0 -0 110.353)
(0 -0 106.187)
(0 -0 99.1741)
(0 -0 88.9321)
(0 -0 75.2154)
(0 -0 57.9237)
(0 -0 37.0791)
(0 -0 12.8109)
(0 -0 -14.6687)
(0 -0 -45.0872)
(0 -0 -78.1322)
(0 -0 -113.469)
(0 -0 -150.757)
(0 -0 -189.657)
(0 -0 -229.848)
(0 -0 -271.024)
(0 -0 -312.907)
(0 -0 -355.242)
(0 -0 -397.802)
(0 -0 -440.383)
(0 -0 -482.808)
(0 -0 -524.916)
(0 -0 -566.572)
(0 -0 -607.647)
(0 -0 -648.042)
(0 -0 -687.645)
(0 -0 -726.393)
(0 -0 -764.164)
(0 -0 -800.944)
(0 -0 -836.558)
(0 -0 -871.076)
(0 -0 -904.194)
(0 -0 -936.108)
(0 -0 -966.362)
(0 -0 -995.103)
(0 -0 -1022.22)
(0 -0 -1046.66)
(0 -0 -1070.36)
(0 -0 -1089.61)
(0 -0 -1107.92)
(0 -0 -1123.75)
(0 -0 101.396)
(0 -0 97.9965)
(0 -0 98.2287)
(0 -0 99.7096)
(0 -0 101.228)
(0 -0 102.505)
(0 -0 103.733)
(0 -0 104.923)
(0 -0 105.902)
(0 -0 106.42)
(0 -0 106.195)
(0 -0 104.923)
(0 -0 102.31)
(0 -0 98.0933)
(0 -0 92.0583)
(0 -0 84.0487)
(0 -0 73.9677)
(0 -0 61.7768)
(0 -0 47.4897)
(0 -0 31.1658)
(0 -0 12.9018)
(0 -0 -7.17646)
(0 -0 -28.9222)
(0 -0 -52.175)
(0 -0 -76.767)
(0 -0 -102.529)
(0 -0 -129.295)
(0 -0 -156.902)
(0 -0 -185.196)
(0 -0 -214.032)
(0 -0 -243.271)
(0 -0 -272.786)
(0 -0 -302.453)
(0 -0 -332.165)
(0 -0 -361.806)
(0 -0 -391.29)
(0 -0 -420.495)
(0 -0 -449.366)
(0 -0 -477.748)
(0 -0 -505.636)
(0 -0 -532.796)
(0 -0 -559.295)
(0 -0 -584.813)
(0 -0 -609.345)
(0 -0 -632.838)
(0 -0 -654.509)
(0 -0 -675.369)
(0 -0 -693.599)
(0 -0 -710.348)
(0 -0 -725.114)
(0 -0 94.7194)
(0 -0 91.9466)
(0 -0 92.1675)
(0 -0 93.5001)
(0 -0 94.8873)
(0 -0 95.9911)
(0 -0 96.9946)
(0 -0 97.9961)
(0 -0 98.968)
(0 -0 99.8427)
(0 -0 100.53)
(0 -0 100.912)
(0 -0 100.848)
(0 -0 100.187)
(0 -0 98.7795)
(0 -0 96.4869)
(0 -0 93.1881)
(0 -0 88.7845)
(0 -0 83.2027)
(0 -0 76.395)
(0 -0 68.3395)
(0 -0 59.0373)
(0 -0 48.5112)
(0 -0 36.8012)
(0 -0 23.9623)
(0 -0 10.0601)
(0 -0 -4.83094)
(0 -0 -20.6317)
(0 -0 -37.2587)
(0 -0 -54.6279)
(0 -0 -72.6531)
(0 -0 -91.2505)
(0 -0 -110.334)
(0 -0 -129.823)
(0 -0 -149.631)
(0 -0 -169.684)
(0 -0 -189.888)
(0 -0 -210.181)
(0 -0 -230.449)
(0 -0 -250.653)
(0 -0 -270.634)
(0 -0 -290.38)
(0 -0 -309.695)
(0 -0 -328.486)
(0 -0 -346.734)
(0 -0 -363.939)
(0 -0 -380.438)
(0 -0 -395.529)
(0 -0 -409.501)
(0 -0 -421.465)
(0 -0 88.3427)
(0 -0 86.0905)
(0 -0 86.2933)
(0 -0 87.4768)
(0 -0 88.7663)
(0 -0 89.7912)
(0 -0 90.6885)
(0 -0 91.5616)
(0 -0 92.4151)
(0 -0 93.2344)
(0 -0 94.0037)
(0 -0 94.694)
(0 -0 95.2593)
(0 -0 95.64)
(0 -0 95.767)
(0 -0 95.5656)
(0 -0 94.9602)
(0 -0 93.8775)
(0 -0 92.2498)
(0 -0 90.0175)
(0 -0 87.1315)
(0 -0 83.5533)
(0 -0 79.2565)
(0 -0 74.2259)
(0 -0 68.4573)
(0 -0 61.9561)
(0 -0 54.7362)
(0 -0 46.8186)
(0 -0 38.2309)
(0 -0 29.0049)
(0 -0 19.1775)
(0 -0 8.78817)
(0 -0 -2.11984)
(0 -0 -13.5016)
(0 -0 -25.3086)
(0 -0 -37.4929)
(0 -0 -49.9983)
(0 -0 -62.7773)
(0 -0 -75.759)
(0 -0 -88.9031)
(0 -0 -102.11)
(0 -0 -115.343)
(0 -0 -128.501)
(0 -0 -141.467)
(0 -0 -154.229)
(0 -0 -166.511)
(0 -0 -178.328)
(0 -0 -189.42)
(0 -0 -199.909)
(0 -0 -208.888)
(0 -0 82.265)
(0 -0 80.4461)
(0 -0 80.6395)
(0 -0 81.6788)
(0 -0 82.8652)
(0 -0 83.8251)
(0 -0 84.6546)
(0 -0 85.4504)
(0 -0 86.2209)
(0 -0 86.9595)
(0 -0 87.6681)
(0 -0 88.3462)
(0 -0 88.9855)
(0 -0 89.57)
(0 -0 90.077)
(0 -0 90.4779)
(0 -0 90.7396)
(0 -0 90.8258)
(0 -0 90.6985)
(0 -0 90.3195)
(0 -0 89.652)
(0 -0 88.6619)
(0 -0 87.3191)
(0 -0 85.5979)
(0 -0 83.4776)
(0 -0 80.9428)
(0 -0 77.9828)
(0 -0 74.5919)
(0 -0 70.7688)
(0 -0 66.5161)
(0 -0 61.8406)
(0 -0 56.7522)
(0 -0 51.2642)
(0 -0 45.3935)
(0 -0 39.1589)
(0 -0 32.5835)
(0 -0 25.6923)
(0 -0 18.5137)
(0 -0 11.0804)
(0 -0 3.42634)
(0 -0 -4.40618)
(0 -0 -12.3695)
(0 -0 -20.4271)
(0 -0 -28.4778)
(0 -0 -36.5223)
(0 -0 -44.3981)
(0 -0 -52.0887)
(0 -0 -59.3566)
(0 -0 -66.4663)
(0 -0 -72.6606)
(0 -0 76.4867)
(0 -0 75.0251)
(0 -0 75.2181)
(0 -0 76.1259)
(0 -0 77.207)
(0 -0 78.1006)
(0 -0 78.8687)
(0 -0 79.6021)
(0 -0 80.3108)
(0 -0 80.9874)
(0 -0 81.6348)
(0 -0 82.2579)
(0 -0 82.8587)
(0 -0 83.4355)
(0 -0 83.9837)
(0 -0 84.496)
(0 -0 84.9619)
(0 -0 85.3683)
(0 -0 85.6996)
(0 -0 85.9384)
(0 -0 86.0659)
(0 -0 86.0627)
(0 -0 85.9099)
(0 -0 85.5893)
(0 -0 85.084)
(0 -0 84.3787)
(0 -0 83.4601)
(0 -0 82.3169)
(0 -0 80.9398)
(0 -0 79.3214)
(0 -0 77.4566)
(0 -0 75.3425)
(0 -0 72.9776)
(0 -0 70.3641)
(0 -0 67.5042)
(0 -0 64.405)
(0 -0 61.0723)
(0 -0 57.52)
(0 -0 53.7556)
(0 -0 49.8046)
(0 -0 45.6698)
(0 -0 41.3975)
(0 -0 36.9876)
(0 -0 32.5146)
(0 -0 27.9603)
(0 -0 23.44)
(0 -0 18.9116)
(0 -0 14.6414)
(0 -0 10.3128)
(0 -0 6.43387)
(0 -0 71.0076)
(0 -0 69.8376)
(0 -0 70.0361)
(0 -0 70.8269)
(0 -0 71.8044)
(0 -0 72.6315)
(0 -0 73.3399)
(0 -0 74.0141)
(0 -0 74.6668)
(0 -0 75.2904)
(0 -0 75.8857)
(0 -0 76.4579)
(0 -0 77.0102)
(0 -0 77.5443)
(0 -0 78.0606)
(0 -0 78.5584)
(0 -0 79.0359)
(0 -0 79.4901)
(0 -0 79.9163)
(0 -0 80.3085)
(0 -0 80.6593)
(0 -0 80.9606)
(0 -0 81.2037)
(0 -0 81.3794)
(0 -0 81.4787)
(0 -0 81.4928)
(0 -0 81.413)
(0 -0 81.2312)
(0 -0 80.9396)
(0 -0 80.5311)
(0 -0 79.9992)
(0 -0 79.3385)
(0 -0 78.5438)
(0 -0 77.612)
(0 -0 76.5395)
(0 -0 75.3262)
(0 -0 73.9699)
(0 -0 72.4752)
(0 -0 70.8397)
(0 -0 69.0762)
(0 -0 67.1805)
(0 -0 65.1785)
(0 -0 63.0536)
(0 -0 60.864)
(0 -0 58.5703)
(0 -0 56.275)
(0 -0 53.8832)
(0 -0 51.6429)
(0 -0 49.2874)
(0 -0 47.1069)
(0 -0 65.8262)
(0 -0 64.8921)
(0 -0 65.0991)
(0 -0 65.7865)
(0 -0 66.6644)
(0 -0 67.4263)
(0 -0 68.0773)
(0 -0 68.6942)
(0 -0 69.2931)
(0 -0 69.8666)
(0 -0 70.4141)
(0 -0 70.9399)
(0 -0 71.4473)
(0 -0 71.9381)
(0 -0 72.4135)
(0 -0 72.8743)
(0 -0 73.3213)
(0 -0 73.7543)
(0 -0 74.1726)
(0 -0 74.5747)
(0 -0 74.9585)
(0 -0 75.3212)
(0 -0 75.6598)
(0 -0 75.9709)
(0 -0 76.2509)
(0 -0 76.4963)
(0 -0 76.7031)
(0 -0 76.8675)
(0 -0 76.9854)
(0 -0 77.0527)
(0 -0 77.065)
(0 -0 77.0186)
(0 -0 76.9092)
(0 -0 76.7334)
(0 -0 76.4874)
(0 -0 76.1693)
(0 -0 75.7748)
(0 -0 75.3052)
(0 -0 74.7545)
(0 -0 74.1307)
(0 -0 73.4219)
(0 -0 72.6495)
(0 -0 71.7883)
(0 -0 70.8852)
(0 -0 69.8872)
(0 -0 68.8893)
(0 -0 67.7745)
(0 -0 66.7549)
(0 -0 65.5964)
(0 -0 64.5556)
(0 -0 60.9398)
(0 -0 60.1952)
(0 -0 60.4113)
(0 -0 61.008)
(0 -0 61.791)
(0 -0 62.4897)
(0 -0 63.0861)
(0 -0 63.6484)
(0 -0 64.1954)
(0 -0 64.7206)
(0 -0 65.2225)
(0 -0 65.7045)
(0 -0 66.1697)
(0 -0 66.6197)
(0 -0 67.0557)
(0 -0 67.4786)
(0 -0 67.8895)
(0 -0 68.289)
(0 -0 68.6773)
(0 -0 69.0543)
(0 -0 69.4195)
(0 -0 69.7723)
(0 -0 70.1117)
(0 -0 70.4371)
(0 -0 70.7475)
(0 -0 71.0421)
(0 -0 71.3199)
(0 -0 71.5798)
(0 -0 71.8202)
(0 -0 72.0396)
(0 -0 72.236)
(0 -0 72.4073)
(0 -0 72.5515)
(0 -0 72.6662)
(0 -0 72.7489)
(0 -0 72.798)
(0 -0 72.8099)
(0 -0 72.7852)
(0 -0 72.7176)
(0 -0 72.6131)
(0 -0 72.459)
(0 -0 72.2723)
(0 -0 72.0263)
(0 -0 71.7613)
(0 -0 71.4199)
(0 -0 71.0897)
(0 -0 70.6476)
(0 -0 70.2846)
(0 -0 69.7577)
(0 -0 69.3822)
(0 -0 56.3444)
(0 -0 55.7508)
(0 -0 55.9752)
(0 -0 56.4928)
(0 -0 57.1866)
(0 -0 57.824)
(0 -0 58.3689)
(0 -0 58.8795)
(0 -0 59.377)
(0 -0 59.8561)
(0 -0 60.3143)
(0 -0 60.7544)
(0 -0 61.1794)
(0 -0 61.5907)
(0 -0 61.9892)
(0 -0 62.376)
(0 -0 62.7518)
(0 -0 63.1175)
(0 -0 63.4734)
(0 -0 63.8195)
(0 -0 64.1558)
(0 -0 64.4821)
(0 -0 64.7984)
(0 -0 65.1046)
(0 -0 65.401)
(0 -0 65.6878)
(0 -0 65.9654)
(0 -0 66.2336)
(0 -0 66.4926)
(0 -0 66.7419)
(0 -0 66.9811)
(0 -0 67.2092)
(0 -0 67.4255)
(0 -0 67.6286)
(0 -0 67.8174)
(0 -0 67.9908)
(0 -0 68.1464)
(0 -0 68.2847)
(0 -0 68.4008)
(0 -0 68.4992)
(0 -0 68.5689)
(0 -0 68.6239)
(0 -0 68.6391)
(0 -0 68.6503)
(0 -0 68.6013)
(0 -0 68.573)
(0 -0 68.4426)
(0 -0 68.3928)
(0 -0 68.1629)
(0 -0 68.1178)
(0 -0 52.0349)
(0 -0 51.5609)
(0 -0 51.7915)
(0 -0 52.2403)
(0 -0 52.8513)
(0 -0 53.4297)
(0 -0 53.926)
(0 -0 54.3882)
(0 -0 54.8388)
(0 -0 55.274)
(0 -0 55.6907)
(0 -0 56.0911)
(0 -0 56.4778)
(0 -0 56.8522)
(0 -0 57.2151)
(0 -0 57.5675)
(0 -0 57.91)
(0 -0 58.2434)
(0 -0 58.5679)
(0 -0 58.8835)
(0 -0 59.1903)
(0 -0 59.4881)
(0 -0 59.777)
(0 -0 60.0572)
(0 -0 60.3294)
(0 -0 60.5941)
(0 -0 60.8519)
(0 -0 61.1035)
(0 -0 61.3493)
(0 -0 61.5895)
(0 -0 61.8242)
(0 -0 62.0531)
(0 -0 62.2759)
(0 -0 62.492)
(0 -0 62.7009)
(0 -0 62.9019)
(0 -0 63.0935)
(0 -0 63.2761)
(0 -0 63.4461)
(0 -0 63.6071)
(0 -0 63.7501)
(0 -0 63.8868)
(0 -0 63.9951)
(0 -0 64.1065)
(0 -0 64.1689)
(0 -0 64.2574)
(0 -0 64.2528)
(0 -0 64.3318)
(0 -0 64.2279)
(0 -0 64.3207)
(0 -0 48.0048)
(0 -0 47.6254)
(0 -0 47.8592)
(0 -0 48.2484)
(0 -0 48.7834)
(0 -0 49.3054)
(0 -0 49.7561)
(0 -0 50.1731)
(0 -0 50.5795)
(0 -0 50.9733)
(0 -0 51.3508)
(0 -0 51.7136)
(0 -0 52.0641)
(0 -0 52.4036)
(0 -0 52.7328)
(0 -0 53.0525)
(0 -0 53.3634)
(0 -0 53.6661)
(0 -0 53.9608)
(0 -0 54.2475)
(0 -0 54.5259)
(0 -0 54.7961)
(0 -0 55.058)
(0 -0 55.3121)
(0 -0 55.5589)
(0 -0 55.7992)
(0 -0 56.0337)
(0 -0 56.2632)
(0 -0 56.4883)
(0 -0 56.7093)
(0 -0 56.9265)
(0 -0 57.1399)
(0 -0 57.3494)
(0 -0 57.5545)
(0 -0 57.7552)
(0 -0 57.9506)
(0 -0 58.1402)
(0 -0 58.3239)
(0 -0 58.4992)
(0 -0 58.6687)
(0 -0 58.8256)
(0 -0 58.9791)
(0 -0 59.1107)
(0 -0 59.2477)
(0 -0 59.3432)
(0 -0 59.4663)
(0 -0 59.5041)
(0 -0 59.6252)
(0 -0 59.5694)
(0 -0 59.7091)
(0 -0 44.2467)
(0 -0 43.9417)
(0 -0 44.1753)
(0 -0 44.5131)
(0 -0 44.9791)
(0 -0 45.4476)
(0 -0 45.8556)
(0 -0 46.2307)
(0 -0 46.5959)
(0 -0 46.9507)
(0 -0 47.2915)
(0 -0 47.619)
(0 -0 47.9354)
(0 -0 48.242)
(0 -0 48.5395)
(0 -0 48.8284)
(0 -0 49.1095)
(0 -0 49.3832)
(0 -0 49.6498)
(0 -0 49.909)
(0 -0 50.1606)
(0 -0 50.4046)
(0 -0 50.6409)
(0 -0 50.8699)
(0 -0 51.0923)
(0 -0 51.3089)
(0 -0 51.5204)
(0 -0 51.7276)
(0 -0 51.9312)
(0 -0 52.1316)
(0 -0 52.329)
(0 -0 52.5235)
(0 -0 52.7151)
(0 -0 52.9033)
(0 -0 53.0881)
(0 -0 53.2689)
(0 -0 53.4451)
(0 -0 53.6166)
(0 -0 53.7817)
(0 -0 53.9421)
(0 -0 54.0925)
(0 -0 54.2403)
(0 -0 54.3701)
(0 -0 54.5052)
(0 -0 54.6043)
(0 -0 54.7298)
(0 -0 54.7778)
(0 -0 54.905)
(0 -0 54.8661)
(0 -0 55.0157)
(0 -0 40.7517)
(0 -0 40.5057)
(0 -0 40.7352)
(0 -0 41.029)
(0 -0 41.4331)
(0 -0 41.8512)
(0 -0 42.2193)
(0 -0 42.5559)
(0 -0 42.8828)
(0 -0 43.2012)
(0 -0 43.5076)
(0 -0 43.8022)
(0 -0 44.0868)
(0 -0 44.3626)
(0 -0 44.6303)
(0 -0 44.8904)
(0 -0 45.1435)
(0 -0 45.3901)
(0 -0 45.6302)
(0 -0 45.8636)
(0 -0 46.09)
(0 -0 46.3093)
(0 -0 46.5214)
(0 -0 46.7268)
(0 -0 46.9261)
(0 -0 47.1202)
(0 -0 47.3098)
(0 -0 47.4959)
(0 -0 47.6789)
(0 -0 47.8593)
(0 -0 48.0375)
(0 -0 48.2132)
(0 -0 48.3867)
(0 -0 48.5574)
(0 -0 48.7254)
(0 -0 48.8897)
(0 -0 49.0504)
(0 -0 49.2067)
(0 -0 49.3578)
(0 -0 49.5044)
(0 -0 49.6428)
(0 -0 49.7783)
(0 -0 49.8989)
(0 -0 50.0234)
(0 -0 50.1169)
(0 -0 50.2339)
(0 -0 50.2815)
(0 -0 50.4021)
(0 -0 50.369)
(0 -0 50.515)
(0 -0 37.5103)
(0 -0 37.3111)
(0 -0 37.533)
(0 -0 37.7889)
(0 -0 38.1379)
(0 -0 38.509)
(0 -0 38.8402)
(0 -0 39.1414)
(0 -0 39.433)
(0 -0 39.7178)
(0 -0 39.9923)
(0 -0 40.2563)
(0 -0 40.5113)
(0 -0 40.7585)
(0 -0 40.9985)
(0 -0 41.2317)
(0 -0 41.4588)
(0 -0 41.68)
(0 -0 41.8954)
(0 -0 42.1047)
(0 -0 42.3075)
(0 -0 42.5036)
(0 -0 42.6931)
(0 -0 42.8763)
(0 -0 43.054)
(0 -0 43.227)
(0 -0 43.3962)
(0 -0 43.5623)
(0 -0 43.726)
(0 -0 43.8877)
(0 -0 44.0476)
(0 -0 44.2057)
(0 -0 44.362)
(0 -0 44.516)
(0 -0 44.6677)
(0 -0 44.8162)
(0 -0 44.9616)
(0 -0 45.1028)
(0 -0 45.2397)
(0 -0 45.372)
(0 -0 45.4974)
(0 -0 45.6196)
(0 -0 45.7293)
(0 -0 45.8415)
(0 -0 45.927)
(0 -0 46.0327)
(0 -0 46.077)
(0 -0 46.1871)
(0 -0 46.1572)
(0 -0 46.2945)
(0 -0 34.5118)
(0 -0 34.3505)
(0 -0 34.5608)
(0 -0 34.7843)
(0 -0 35.085)
(0 -0 35.4126)
(0 -0 35.7095)
(0 -0 35.9786)
(0 -0 36.238)
(0 -0 36.4917)
(0 -0 36.7368)
(0 -0 36.9726)
(0 -0 37.2004)
(0 -0 37.4211)
(0 -0 37.6354)
(0 -0 37.8438)
(0 -0 38.0467)
(0 -0 38.2444)
(0 -0 38.4369)
(0 -0 38.6238)
(0 -0 38.8046)
(0 -0 38.9792)
(0 -0 39.1476)
(0 -0 39.3102)
(0 -0 39.4677)
(0 -0 39.621)
(0 -0 39.7711)
(0 -0 39.9187)
(0 -0 40.0644)
(0 -0 40.2086)
(0 -0 40.3517)
(0 -0 40.4933)
(0 -0 40.6336)
(0 -0 40.772)
(0 -0 40.9085)
(0 -0 41.0421)
(0 -0 41.1731)
(0 -0 41.3001)
(0 -0 41.4234)
(0 -0 41.5421)
(0 -0 41.6552)
(0 -0 41.7645)
(0 -0 41.8635)
(0 -0 41.9635)
(0 -0 42.041)
(0 -0 42.1351)
(0 -0 42.1756)
(0 -0 42.2745)
(0 -0 42.2476)
(0 -0 42.3741)
(0 -0 31.7447)
(0 -0 31.6144)
(0 -0 31.8102)
(0 -0 32.0061)
(0 -0 32.2647)
(0 -0 32.5526)
(0 -0 32.8179)
(0 -0 33.0578)
(0 -0 33.288)
(0 -0 33.5132)
(0 -0 33.7314)
(0 -0 33.9413)
(0 -0 34.144)
(0 -0 34.3404)
(0 -0 34.5311)
(0 -0 34.7166)
(0 -0 34.8973)
(0 -0 35.0734)
(0 -0 35.2447)
(0 -0 35.4109)
(0 -0 35.5714)
(0 -0 35.7261)
(0 -0 35.8749)
(0 -0 36.0183)
(0 -0 36.1571)
(0 -0 36.2922)
(0 -0 36.4246)
(0 -0 36.555)
(0 -0 36.6841)
(0 -0 36.8122)
(0 -0 36.9396)
(0 -0 37.066)
(0 -0 37.1916)
(0 -0 37.3155)
(0 -0 37.438)
(0 -0 37.5579)
(0 -0 37.6754)
(0 -0 37.7893)
(0 -0 37.8999)
(0 -0 38.006)
(0 -0 38.1074)
(0 -0 38.2048)
(0 -0 38.2936)
(0 -0 38.3822)
(0 -0 38.4521)
(0 -0 38.5351)
(0 -0 38.5723)
(0 -0 38.6599)
(0 -0 38.6365)
(0 -0 38.7518)
(0 -0 29.197)
(0 -0 29.092)
(0 -0 29.2715)
(0 -0 29.4444)
(0 -0 29.6667)
(0 -0 29.9185)
(0 -0 30.1548)
(0 -0 30.3683)
(0 -0 30.572)
(0 -0 30.7714)
(0 -0 30.9649)
(0 -0 31.1512)
(0 -0 31.331)
(0 -0 31.5052)
(0 -0 31.6744)
(0 -0 31.8389)
(0 -0 31.9992)
(0 -0 32.1554)
(0 -0 32.3073)
(0 -0 32.4545)
(0 -0 32.5964)
(0 -0 32.7327)
(0 -0 32.8635)
(0 -0 32.9893)
(0 -0 33.1108)
(0 -0 33.2291)
(0 -0 33.3452)
(0 -0 33.4598)
(0 -0 33.5736)
(0 -0 33.6868)
(0 -0 33.7998)
(0 -0 33.9123)
(0 -0 34.0243)
(0 -0 34.135)
(0 -0 34.2446)
(0 -0 34.3518)
(0 -0 34.457)
(0 -0 34.5588)
(0 -0 34.6577)
(0 -0 34.7523)
(0 -0 34.8429)
(0 -0 34.9292)
(0 -0 35.0087)
(0 -0 35.0866)
(0 -0 35.1496)
(0 -0 35.222)
(0 -0 35.2566)
(0 -0 35.3332)
(0 -0 35.3134)
(0 -0 35.4175)
(0 -0 26.8562)
(0 -0 26.772)
(0 -0 26.9342)
(0 -0 27.0879)
(0 -0 27.2791)
(0 -0 27.4985)
(0 -0 27.7084)
(0 -0 27.8982)
(0 -0 28.0782)
(0 -0 28.2541)
(0 -0 28.4252)
(0 -0 28.5901)
(0 -0 28.7492)
(0 -0 28.9032)
(0 -0 29.0527)
(0 -0 29.1982)
(0 -0 29.3399)
(0 -0 29.478)
(0 -0 29.6123)
(0 -0 29.7421)
(0 -0 29.8669)
(0 -0 29.9864)
(0 -0 30.1007)
(0 -0 30.2103)
(0 -0 30.316)
(0 -0 30.4189)
(0 -0 30.52)
(0 -0 30.6201)
(0 -0 30.7199)
(0 -0 30.8196)
(0 -0 30.9195)
(0 -0 31.0192)
(0 -0 31.1188)
(0 -0 31.2175)
(0 -0 31.3152)
(0 -0 31.4109)
(0 -0 31.5049)
(0 -0 31.5956)
(0 -0 31.6838)
(0 -0 31.7678)
(0 -0 31.8485)
(0 -0 31.9246)
(0 -0 31.9955)
(0 -0 32.0637)
(0 -0 32.1203)
(0 -0 32.183)
(0 -0 32.2151)
(0 -0 32.2813)
(0 -0 32.2654)
(0 -0 32.3582)
(0 -0 24.7095)
(0 -0 24.6422)
(0 -0 24.7873)
(0 -0 24.9245)
(0 -0 25.0894)
(0 -0 25.2802)
(0 -0 25.466)
(0 -0 25.6347)
(0 -0 25.7935)
(0 -0 25.9484)
(0 -0 26.0994)
(0 -0 26.245)
(0 -0 26.3853)
(0 -0 26.5211)
(0 -0 26.6529)
(0 -0 26.7811)
(0 -0 26.906)
(0 -0 27.0277)
(0 -0 27.1459)
(0 -0 27.26)
(0 -0 27.3693)
(0 -0 27.4735)
(0 -0 27.5727)
(0 -0 27.6675)
(0 -0 27.7587)
(0 -0 27.8476)
(0 -0 27.935)
(0 -0 28.022)
(0 -0 28.109)
(0 -0 28.1964)
(0 -0 28.2844)
(0 -0 28.3726)
(0 -0 28.461)
(0 -0 28.5487)
(0 -0 28.6358)
(0 -0 28.7211)
(0 -0 28.8048)
(0 -0 28.8854)
(0 -0 28.9639)
(0 -0 29.0382)
(0 -0 29.1099)
(0 -0 29.1768)
(0 -0 29.2398)
(0 -0 29.2991)
(0 -0 29.3497)
(0 -0 29.4036)
(0 -0 29.4333)
(0 -0 29.4899)
(0 -0 29.4783)
(0 -0 29.5594)
(0 -0 22.7439)
(0 -0 22.6903)
(0 -0 22.819)
(0 -0 22.9421)
(0 -0 23.0848)
(0 -0 23.2505)
(0 -0 23.4147)
(0 -0 23.5644)
(0 -0 23.7045)
(0 -0 23.8408)
(0 -0 23.9737)
(0 -0 24.1019)
(0 -0 24.2255)
(0 -0 24.345)
(0 -0 24.4608)
(0 -0 24.5735)
(0 -0 24.6833)
(0 -0 24.7902)
(0 -0 24.894)
(0 -0 24.9938)
(0 -0 25.0891)
(0 -0 25.1794)
(0 -0 25.2649)
(0 -0 25.3463)
(0 -0 25.4244)
(0 -0 25.5005)
(0 -0 25.5756)
(0 -0 25.6506)
(0 -0 25.7261)
(0 -0 25.8025)
(0 -0 25.8797)
(0 -0 25.9575)
(0 -0 26.0358)
(0 -0 26.1137)
(0 -0 26.1911)
(0 -0 26.267)
(0 -0 26.3415)
(0 -0 26.413)
(0 -0 26.4827)
(0 -0 26.5483)
(0 -0 26.6118)
(0 -0 26.6703)
(0 -0 26.726)
(0 -0 26.7773)
(0 -0 26.8225)
(0 -0 26.8683)
(0 -0 26.896)
(0 -0 26.9434)
(0 -0 26.9361)
(0 -0 27.0061)
(0 -0 20.9464)
(0 -0 20.904)
(0 -0 21.0173)
(0 -0 21.1283)
(0 -0 21.2524)
(0 -0 21.3962)
(0 -0 21.5411)
(0 -0 21.674)
(0 -0 21.7977)
(0 -0 21.9174)
(0 -0 22.0342)
(0 -0 22.147)
(0 -0 22.2557)
(0 -0 22.3605)
(0 -0 22.4621)
(0 -0 22.5609)
(0 -0 22.6572)
(0 -0 22.7509)
(0 -0 22.8417)
(0 -0 22.9287)
(0 -0 23.0114)
(0 -0 23.0892)
(0 -0 23.1625)
(0 -0 23.2317)
(0 -0 23.298)
(0 -0 23.3625)
(0 -0 23.4265)
(0 -0 23.4907)
(0 -0 23.5559)
(0 -0 23.6222)
(0 -0 23.6898)
(0 -0 23.7584)
(0 -0 23.8276)
(0 -0 23.8967)
(0 -0 23.9656)
(0 -0 24.033)
(0 -0 24.0992)
(0 -0 24.1626)
(0 -0 24.2244)
(0 -0 24.2821)
(0 -0 24.3382)
(0 -0 24.3892)
(0 -0 24.4384)
(0 -0 24.4824)
(0 -0 24.5226)
(0 -0 24.5611)
(0 -0 24.5868)
(0 -0 24.6259)
(0 -0 24.6225)
(0 -0 24.6818)
(0 -0 19.3042)
(0 -0 19.2708)
(0 -0 19.3703)
(0 -0 19.4706)
(0 -0 19.5792)
(0 -0 19.7043)
(0 -0 19.832)
(0 -0 19.95)
(0 -0 20.0593)
(0 -0 20.1644)
(0 -0 20.267)
(0 -0 20.3661)
(0 -0 20.4615)
(0 -0 20.5534)
(0 -0 20.6424)
(0 -0 20.7288)
(0 -0 20.8131)
(0 -0 20.8951)
(0 -0 20.9743)
(0 -0 21.0499)
(0 -0 21.1212)
(0 -0 21.1879)
(0 -0 21.25)
(0 -0 21.3083)
(0 -0 21.364)
(0 -0 21.4182)
(0 -0 21.4721)
(0 -0 21.5267)
(0 -0 21.5826)
(0 -0 21.6401)
(0 -0 21.6991)
(0 -0 21.7594)
(0 -0 21.8205)
(0 -0 21.8819)
(0 -0 21.9431)
(0 -0 22.003)
(0 -0 22.0618)
(0 -0 22.1181)
(0 -0 22.1727)
(0 -0 22.2235)
(0 -0 22.2728)
(0 -0 22.3171)
(0 -0 22.3604)
(0 -0 22.3979)
(0 -0 22.4335)
(0 -0 22.4655)
(0 -0 22.4893)
(0 -0 22.5209)
(0 -0 22.5212)
(0 -0 22.5691)
(0 -0 17.8047)
(0 -0 17.7786)
(0 -0 17.8658)
(0 -0 17.9568)
(0 -0 18.0525)
(0 -0 18.1617)
(0 -0 18.2743)
(0 -0 18.3792)
(0 -0 18.4758)
(0 -0 18.5683)
(0 -0 18.6583)
(0 -0 18.7454)
(0 -0 18.829)
(0 -0 18.9095)
(0 -0 18.9873)
(0 -0 19.0628)
(0 -0 19.1365)
(0 -0 19.208)
(0 -0 19.2769)
(0 -0 19.3424)
(0 -0 19.4037)
(0 -0 19.4603)
(0 -0 19.5125)
(0 -0 19.5611)
(0 -0 19.6071)
(0 -0 19.6521)
(0 -0 19.697)
(0 -0 19.743)
(0 -0 19.7907)
(0 -0 19.8403)
(0 -0 19.8917)
(0 -0 19.9447)
(0 -0 19.9987)
(0 -0 20.0532)
(0 -0 20.1076)
(0 -0 20.161)
(0 -0 20.2133)
(0 -0 20.2631)
(0 -0 20.3115)
(0 -0 20.356)
(0 -0 20.3994)
(0 -0 20.4377)
(0 -0 20.4756)
(0 -0 20.5073)
(0 -0 20.5388)
(0 -0 20.5648)
(0 -0 20.5869)
(0 -0 20.6117)
(0 -0 20.6151)
(0 -0 20.6525)
(0 -0 16.4357)
(0 -0 16.4155)
(0 -0 16.4922)
(0 -0 16.5748)
(0 -0 16.66)
(0 -0 16.7557)
(0 -0 16.8551)
(0 -0 16.9485)
(0 -0 17.0343)
(0 -0 17.1157)
(0 -0 17.1947)
(0 -0 17.2712)
(0 -0 17.3446)
(0 -0 17.415)
(0 -0 17.4829)
(0 -0 17.5489)
(0 -0 17.6131)
(0 -0 17.6755)
(0 -0 17.7353)
(0 -0 17.7918)
(0 -0 17.8441)
(0 -0 17.8919)
(0 -0 17.9352)
(0 -0 17.975)
(0 -0 18.0126)
(0 -0 18.0492)
(0 -0 18.0862)
(0 -0 18.1245)
(0 -0 18.1649)
(0 -0 18.2075)
(0 -0 18.2522)
(0 -0 18.2987)
(0 -0 18.3466)
(0 -0 18.395)
(0 -0 18.4435)
(0 -0 18.4911)
(0 -0 18.5377)
(0 -0 18.5819)
(0 -0 18.6246)
(0 -0 18.6637)
(0 -0 18.7018)
(0 -0 18.7348)
(0 -0 18.7679)
(0 -0 18.7944)
(0 -0 18.8221)
(0 -0 18.8429)
(0 -0 18.8632)
(0 -0 18.8819)
(0 -0 18.8879)
(0 -0 18.9166)
(0 -0 15.1858)
(0 -0 15.1704)
(0 -0 15.2382)
(0 -0 15.3134)
(0 -0 15.3899)
(0 -0 15.4744)
(0 -0 15.5623)
(0 -0 15.6456)
(0 -0 15.722)
(0 -0 15.7939)
(0 -0 15.8634)
(0 -0 15.9305)
(0 -0 15.9949)
(0 -0 16.0566)
(0 -0 16.1159)
(0 -0 16.1734)
(0 -0 16.2294)
(0 -0 16.2837)
(0 -0 16.3356)