/*--------------------------------*- C++ -*----------------------------------*\
  =========                 |
  \\      /  F ield         | OpenFOAM: The Open Source CFD Toolbox
   \\    /   O peration     | Website:  https://openfoam.org
    \\  /    A nd           | Version:  7
     \\/     M anipulation  |
\*---------------------------------------------------------------------------*/
FoamFile
{
    version     2.0;
    format      ascii;
    class       volVectorField;
    location    "0.46";
    object      wallShearStress;
}
// * * * * * * * * * * * * * * * * * * * * * * * * * * * * * * * * * * * * * //

dimensions      [0 2 -2 0 0 0 0];

internalField   uniform (0 0 0);

boundaryField
{
    velocityInlet
    {
        type            calculated;
        value           uniform (0 0 0);
    }
    pressureOutlet
    {
        type            calculated;
        value           uniform (0 0 0);
    }
    fixedWalls
    {
        type            calculated;
        value           nonuniform List<vector> 
100
(
(-0.0253281 -0.00179597 0)
(-0.0203091 -0.00132082 0)
(-0.0152363 -0.000750455 0)
(-0.0116658 -0.000341083 0)
(-0.00958496 -0.000137527 0)
(-0.00814462 -9.47292e-05 0)
(-0.00705058 -8.32083e-05 0)
(-0.0062409 -6.50396e-05 0)
(-0.00568979 -4.5309e-05 0)
(-0.00535041 -2.78738e-05 0)
(-0.0051771 -1.32652e-05 0)
(-0.00513525 6.44907e-07 0)
(-0.00520982 1.69363e-05 0)
(-0.0053704 2.99206e-05 0)
(-0.00557407 3.43574e-05 0)
(-0.00583764 3.87919e-05 0)
(-0.00617254 4.55037e-05 0)
(-0.00652468 4.6986e-05 0)
(-0.00686462 4.98955e-05 0)
(-0.0072307 6.21554e-05 0)
(-0.00765559 8.03606e-05 0)
(-0.00807783 9.60693e-05 0)
(-0.00827413 9.01578e-05 0)
(-0.00783175 -2.35405e-06 0)
(-0.00612714 -0.000214681 0)
(-0.0028506 -0.000513675 0)
(0.00144668 -0.00061786 0)
(0.00538101 -0.000590295 0)
(0.00786784 -0.000362973 0)
(0.0084156 -7.04067e-05 0)
(0.00723785 0.000169218 0)
(0.0050332 0.000294431 0)
(0.00254512 0.000311595 0)
(0.000302825 0.000275063 0)
(-0.00145531 0.000212413 0)
(-0.00267367 0.000149579 0)
(-0.00337942 9.2675e-05 0)
(-0.00361941 4.28447e-05 0)
(-0.00343703 -7.13919e-06 0)
(-0.00287711 -5.33691e-05 0)
(-0.00196209 -0.000105659 0)
(-0.000763551 -0.000145513 0)
(0.000613414 -0.000167151 0)
(0.00203321 -0.000182903 0)
(0.00333711 -0.000174966 0)
(0.00438175 -0.000145633 0)
(0.00503522 -9.81701e-05 0)
(0.00519947 -3.80221e-05 0)
(0.00483326 2.89047e-05 0)
(0.003986 8.67043e-05 0)
(0.00279224 0.000126638 0)
(0.00143898 0.000143955 0)
(7.86983e-05 0.000139004 0)
(-0.00112171 0.000120345 0)
(-0.00209082 9.4689e-05 0)
(-0.00281183 6.89879e-05 0)
(-0.00331317 4.74795e-05 0)
(-0.00364556 3.20238e-05 0)
(-0.00386218 2.25725e-05 0)
(-0.00399941 1.69072e-05 0)
(-0.00406319 1.22171e-05 0)
(-0.00403016 2.8175e-06 0)
(-0.00386721 -1.08632e-05 0)
(-0.0035603 -2.62484e-05 0)
(-0.00313242 -3.92435e-05 0)
(-0.00263998 -4.64393e-05 0)
(-0.00215433 -4.62619e-05 0)
(-0.00174199 -3.90125e-05 0)
(-0.00145092 -2.69013e-05 0)
(-0.00130103 -1.33216e-05 0)
(-0.00128202 -1.24265e-06 0)
(-0.00136068 7.81425e-06 0)
(-0.00149353 1.258e-05 0)
(-0.00163983 1.35455e-05 0)
(-0.00176926 1.18353e-05 0)
(-0.00186346 8.60957e-06 0)
(-0.0019143 4.92159e-06 0)
(-0.0019201 1.27207e-06 0)
(-0.00188276 -2.33669e-06 0)
(-0.00180646 -5.56331e-06 0)
(-0.00169739 -8.27341e-06 0)
(-0.00156342 -1.03858e-05 0)
(-0.00141439 -1.17743e-05 0)
(-0.00126071 -1.24593e-05 0)
(-0.0011157 -1.21545e-05 0)
(-0.000993407 -1.0652e-05 0)
(-0.000913325 -7.46215e-06 0)
(-0.000886869 -3.49278e-06 0)
(-0.000926447 1.41376e-06 0)
(-0.00102032 5.59023e-06 0)
(-0.00116476 8.45923e-06 0)
(-0.00134494 1.09732e-05 0)
(-0.00157755 1.54552e-05 0)
(-0.00193312 2.68646e-05 0)
(-0.00241316 4.30019e-05 0)
(-0.00314654 6.10023e-05 0)
(-0.00386931 7.2596e-05 0)
(-0.00465727 6.51769e-05 0)
(-0.00497723 1.15647e-05 0)
(-0.00355293 -5.71338e-05 0)
)
;
    }
    bottomWall
    {
        type            calculated;
        value           nonuniform List<vector> 
800
(
(-0.0353512 0.00216563 0)
(-0.0160363 0.00052497 0)
(-0.0105902 0.00010056 0)
(-0.00845529 3.45934e-05 0)
(-0.00749123 1.9686e-05 0)
(-0.0068556 1.60136e-05 0)
(-0.0063469 1.32124e-05 0)
(-0.00593583 1.0762e-05 0)
(-0.00560141 8.96065e-06 0)
(-0.00532289 7.66044e-06 0)
(-0.00508569 6.67542e-06 0)
(-0.00488038 5.89736e-06 0)
(-0.00470049 5.2673e-06 0)
(-0.00454127 4.7483e-06 0)
(-0.00439914 4.31467e-06 0)
(-0.00427132 3.94785e-06 0)
(-0.00415563 3.63409e-06 0)
(-0.00405032 3.36312e-06 0)
(-0.00395398 3.1271e-06 0)
(-0.00386546 2.91999e-06 0)
(-0.00378379 2.73701e-06 0)
(-0.00370817 2.57437e-06 0)
(-0.00363792 2.42902e-06 0)
(-0.00357247 2.29846e-06 0)
(-0.00351131 2.18063e-06 0)
(-0.00345404 2.07385e-06 0)
(-0.00340026 1.97669e-06 0)
(-0.00334967 1.88797e-06 0)
(-0.00330198 1.80668e-06 0)
(-0.00325694 1.73197e-06 0)
(-0.00321434 1.66311e-06 0)
(-0.00317396 1.59948e-06 0)
(-0.00313565 1.54053e-06 0)
(-0.00309924 1.4858e-06 0)
(-0.00306459 1.43487e-06 0)
(-0.00303158 1.38739e-06 0)
(-0.00300009 1.34303e-06 0)
(-0.00297002 1.30151e-06 0)
(-0.00294127 1.26257e-06 0)
(-0.00291376 1.22601e-06 0)
(-0.00288741 1.19161e-06 0)
(-0.00286214 1.1592e-06 0)
(-0.0028379 1.12865e-06 0)
(-0.00281462 1.09973e-06 0)
(-0.00279224 1.07251e-06 0)
(-0.00277072 1.04647e-06 0)
(-0.00275 1.02227e-06 0)
(-0.00273005 9.98466e-07 0)
(-0.00271081 9.77078e-07 0)
(-0.00269228 9.54259e-07 0)
(-0.00267678 9.35568e-07 0)
(-0.00266397 9.24974e-07 0)
(-0.00265133 9.11385e-07 0)
(-0.00263889 8.96898e-07 0)
(-0.00262664 8.83332e-07 0)
(-0.00261456 8.70428e-07 0)
(-0.00260267 8.57832e-07 0)
(-0.00259094 8.45502e-07 0)
(-0.00257938 8.33466e-07 0)
(-0.00256799 8.21718e-07 0)
(-0.00255676 8.10243e-07 0)
(-0.00254568 7.99026e-07 0)
(-0.00253476 7.88059e-07 0)
(-0.00252398 7.77333e-07 0)
(-0.00251335 7.66841e-07 0)
(-0.00250287 7.56575e-07 0)
(-0.00249252 7.46528e-07 0)
(-0.00248231 7.36693e-07 0)
(-0.00247224 7.27064e-07 0)
(-0.0024623 7.17635e-07 0)
(-0.00245248 7.08399e-07 0)
(-0.00244279 6.99352e-07 0)
(-0.00243323 6.90488e-07 0)
(-0.00242378 6.81801e-07 0)
(-0.00241446 6.73288e-07 0)
(-0.00240525 6.64942e-07 0)
(-0.00239615 6.5676e-07 0)
(-0.00238716 6.48737e-07 0)
(-0.00237829 6.40869e-07 0)
(-0.00236952 6.33151e-07 0)
(-0.00236086 6.2558e-07 0)
(-0.0023523 6.1815e-07 0)
(-0.00234384 6.10861e-07 0)
(-0.00233548 6.03706e-07 0)
(-0.00232722 5.96684e-07 0)
(-0.00231905 5.89789e-07 0)
(-0.00231098 5.83021e-07 0)
(-0.002303 5.76374e-07 0)
(-0.00229511 5.69848e-07 0)
(-0.00228731 5.63437e-07 0)
(-0.00227959 5.5714e-07 0)
(-0.00227196 5.50954e-07 0)
(-0.00226442 5.44876e-07 0)
(-0.00225696 5.38903e-07 0)
(-0.00224958 5.33034e-07 0)
(-0.00224228 5.27265e-07 0)
(-0.00223506 5.21595e-07 0)
(-0.00222792 5.16019e-07 0)
(-0.00222085 5.10538e-07 0)
(-0.00221385 5.05147e-07 0)
(-0.00220694 4.99846e-07 0)
(-0.00220009 4.9463e-07 0)
(-0.00219331 4.89499e-07 0)
(-0.0021866 4.8445e-07 0)
(-0.00217997 4.79481e-07 0)
(-0.0021734 4.74589e-07 0)
(-0.00216689 4.69774e-07 0)
(-0.00216046 4.65031e-07 0)
(-0.00215408 4.60362e-07 0)
(-0.00214777 4.55761e-07 0)
(-0.00214152 4.5123e-07 0)
(-0.00213534 4.46765e-07 0)
(-0.00212921 4.42365e-07 0)
(-0.00212315 4.38029e-07 0)
(-0.00211714 4.33755e-07 0)
(-0.0021112 4.29542e-07 0)
(-0.00210531 4.2539e-07 0)
(-0.00209947 4.21296e-07 0)
(-0.00209369 4.1726e-07 0)
(-0.00208797 4.13281e-07 0)
(-0.0020823 4.09357e-07 0)
(-0.00207668 4.05487e-07 0)
(-0.00207112 4.01672e-07 0)
(-0.00206561 3.97908e-07 0)
(-0.00206015 3.94197e-07 0)
(-0.00205474 3.90536e-07 0)
(-0.00204937 3.86924e-07 0)
(-0.00204406 3.83359e-07 0)
(-0.0020388 3.79844e-07 0)
(-0.00203358 3.76378e-07 0)
(-0.00202841 3.72958e-07 0)
(-0.00202329 3.69582e-07 0)
(-0.00201821 3.66251e-07 0)
(-0.00201318 3.62967e-07 0)
(-0.00200819 3.59727e-07 0)
(-0.00200325 3.56529e-07 0)
(-0.00199835 3.53374e-07 0)
(-0.00199349 3.50258e-07 0)
(-0.00198867 3.47189e-07 0)
(-0.0019839 3.44153e-07 0)
(-0.00197917 3.41169e-07 0)
(-0.00197447 3.38207e-07 0)
(-0.00196982 3.35312e-07 0)
(-0.00196521 3.32417e-07 0)
(-0.00196063 3.2962e-07 0)
(-0.00195609 3.26772e-07 0)
(-0.0019516 3.24087e-07 0)
(-0.00194713 3.21252e-07 0)
(-0.00194271 3.18672e-07 0)
(-0.00193832 3.15768e-07 0)
(-0.00193464 3.1319e-07 0)
(-0.00193163 3.11828e-07 0)
(-0.00192862 3.10198e-07 0)
(-0.0019256 3.08334e-07 0)
(-0.00192258 3.0647e-07 0)
(-0.00191955 3.04687e-07 0)
(-0.00191652 3.02908e-07 0)
(-0.00191349 3.01142e-07 0)
(-0.00191045 2.99379e-07 0)
(-0.00190741 2.97618e-07 0)
(-0.00190437 2.95867e-07 0)
(-0.00190132 2.94118e-07 0)
(-0.00189827 2.92364e-07 0)
(-0.00189521 2.90638e-07 0)
(-0.00189215 2.88902e-07 0)
(-0.00188909 2.87174e-07 0)
(-0.00188603 2.85449e-07 0)
(-0.00188296 2.83738e-07 0)
(-0.00187989 2.82032e-07 0)
(-0.00187681 2.80325e-07 0)
(-0.00187374 2.78635e-07 0)
(-0.00187066 2.76941e-07 0)
(-0.00186757 2.75247e-07 0)
(-0.00186449 2.73581e-07 0)
(-0.0018614 2.71901e-07 0)
(-0.00185831 2.70241e-07 0)
(-0.00185521 2.68591e-07 0)
(-0.00185211 2.6694e-07 0)
(-0.00184901 2.65309e-07 0)
(-0.00184591 2.63669e-07 0)
(-0.0018428 2.62034e-07 0)
(-0.00183969 2.60424e-07 0)
(-0.00183658 2.58807e-07 0)
(-0.00183347 2.57204e-07 0)
(-0.00183035 2.55612e-07 0)
(-0.00182723 2.54012e-07 0)
(-0.00182411 2.52438e-07 0)
(-0.00182098 2.50861e-07 0)
(-0.00181786 2.49281e-07 0)
(-0.00181473 2.47737e-07 0)
(-0.0018116 2.4617e-07 0)
(-0.00180846 2.44634e-07 0)
(-0.00180533 2.43107e-07 0)
(-0.00180219 2.41583e-07 0)
(-0.00179905 2.40065e-07 0)
(-0.00179591 2.38554e-07 0)
(-0.00179276 2.3708e-07 0)
(-0.00178961 2.35586e-07 0)
(-0.00178646 2.3409e-07 0)
(-0.00178331 2.32643e-07 0)
(-0.00178016 2.31176e-07 0)
(-0.001777 2.29736e-07 0)
(-0.00177384 2.28311e-07 0)
(-0.00177068 2.26882e-07 0)
(-0.00176752 2.25494e-07 0)
(-0.00176435 2.24099e-07 0)
(-0.00176118 2.22704e-07 0)
(-0.00175801 2.21363e-07 0)
(-0.00175483 2.19986e-07 0)
(-0.00175166 2.18664e-07 0)
(-0.00174848 2.17357e-07 0)
(-0.0017453 2.16048e-07 0)
(-0.00174211 2.148e-07 0)
(-0.00173892 2.13519e-07 0)
(-0.00173573 2.12229e-07 0)
(-0.00173254 2.1104e-07 0)
(-0.00172934 2.09804e-07 0)
(-0.00172614 2.08616e-07 0)
(-0.00172293 2.07426e-07 0)
(-0.00171972 2.06287e-07 0)
(-0.00171651 2.0516e-07 0)
(-0.00171329 2.04037e-07 0)
(-0.00171007 2.02981e-07 0)
(-0.00170684 2.01897e-07 0)
(-0.00170361 2.00802e-07 0)
(-0.00170037 1.99828e-07 0)
(-0.00169713 1.98757e-07 0)
(-0.00169389 1.97844e-07 0)
(-0.00169064 1.96811e-07 0)
(-0.00168737 1.95995e-07 0)
(-0.00168411 1.94963e-07 0)
(-0.00168083 1.944e-07 0)
(-0.00167756 1.92989e-07 0)
(-0.00167426 1.9307e-07 0)
(-0.00167099 1.90975e-07 0)
(-0.00166765 1.923e-07 0)
(-0.00166439 1.88466e-07 0)
(-0.00166099 1.927e-07 0)
(-0.00165778 1.84643e-07 0)
(-0.00165425 1.95553e-07 0)
(-0.00165117 1.777e-07 0)
(-0.00164739 2.03424e-07 0)
(-0.00164459 1.64162e-07 0)
(-0.00164034 2.21365e-07 0)
(-0.00163813 1.37487e-07 0)
(-0.00163302 2.57919e-07 0)
(-0.00163183 8.68269e-08 0)
(-0.00162539 3.22442e-07 0)
(-0.00162568 6.70246e-09 0)
(-0.0016175 3.54792e-07 0)
(-0.0353512 -0.00216562 0)
(-0.0160364 -0.000524968 0)
(-0.0105903 -0.000100562 0)
(-0.00845519 -3.45998e-05 0)
(-0.00749067 -1.96972e-05 0)
(-0.0068544 -1.60295e-05 0)
(-0.00634489 -1.32324e-05 0)
(-0.00593287 -1.07852e-05 0)
(-0.00559742 -8.98636e-06 0)
(-0.00531782 -7.68783e-06 0)
(-0.00507951 -6.70362e-06 0)
(-0.00487309 -5.92563e-06 0)
(-0.00469211 -5.29502e-06 0)
(-0.00453185 -4.77498e-06 0)
(-0.00438871 -4.34e-06 0)
(-0.00425994 -3.97159e-06 0)
(-0.00414335 -3.65607e-06 0)
(-0.00403719 -3.38314e-06 0)
(-0.00394006 -3.14492e-06 0)
(-0.00385081 -2.93523e-06 0)
(-0.00376847 -2.74925e-06 0)
(-0.00369226 -2.58306e-06 0)
(-0.0036215 -2.43351e-06 0)
(-0.00355563 -2.29798e-06 0)
(-0.00349417 -2.17426e-06 0)
(-0.0034367 -2.06045e-06 0)
(-0.00338289 -1.95486e-06 0)
(-0.00333242 -1.85602e-06 0)
(-0.00328507 -1.76242e-06 0)
(-0.0032406 -1.67291e-06 0)
(-0.00319886 -1.58578e-06 0)
(-0.00315969 -1.5003e-06 0)
(-0.00312303 -1.41401e-06 0)
(-0.00308875 -1.32699e-06 0)
(-0.00305689 -1.23501e-06 0)
(-0.00302739 -1.14014e-06 0)
(-0.00300034 -1.03398e-06 0)
(-0.00297582 -9.24224e-07 0)
(-0.00295387 -7.91899e-07 0)
(-0.00293499 -6.60261e-07 0)
(-0.00291868 -4.86138e-07 0)
(-0.00290682 -3.24041e-07 0)
(-0.00289646 -1.05249e-07 0)
(-0.00289484 1.2735e-07 0)
(-0.00288797 2.94463e-07 0)
(-0.00290586 7.09234e-07 0)
(-0.00288759 3.45667e-07 0)
(-0.00295109 1.45531e-06 0)
(-0.00287699 -6.21564e-06 0)
(-0.00283432 0.000203213 0)
(-2.72639e-05 2.57282e-05 0)
(-1.74779e-06 2.8137e-05 0)
(-1.00187e-05 -1.21456e-06 0)
(-3.56705e-05 2.39866e-05 0)
(-3.81499e-05 9.31517e-05 0)
(-1.83446e-05 0.000154857 0)
(2.84996e-06 0.000176918 0)
(9.519e-06 0.000171483 0)
(-1.43679e-06 0.000182742 0)
(-2.32939e-05 0.00023959 0)
(-6.9624e-05 0.000344332 0)
(-0.000125699 0.000499557 0)
(-0.000146279 0.000672466 0)
(-0.000123979 0.000809965 0)
(-7.73457e-05 0.000884726 0)
(-2.54911e-05 0.000896206 0)
(1.92449e-05 0.00085577 0)
(5.40972e-05 0.000777806 0)
(8.21884e-05 0.000669629 0)
(0.000104576 0.000538012 0)
(0.000122374 0.00038998 0)
(0.000137687 0.000229199 0)
(0.000146476 5.24979e-05 0)
(0.000150586 -0.000127946 0)
(0.000152806 -0.000308037 0)
(0.00015283 -0.000487173 0)
(0.000150678 -0.000663526 0)
(0.000146584 -0.000835075 0)
(0.000140884 -0.00100011 0)
(0.000133911 -0.00115738 0)
(0.000125957 -0.00130599 0)
(0.000117259 -0.00144532 0)
(0.000108011 -0.00157499 0)
(9.83656e-05 -0.00169475 0)
(8.84416e-05 -0.00180453 0)
(7.83269e-05 -0.00190432 0)
(6.80831e-05 -0.0019942 0)
(5.77518e-05 -0.00207428 0)
(4.7357e-05 -0.00214472 0)
(3.69088e-05 -0.00220565 0)
(2.64091e-05 -0.00225726 0)
(1.58426e-05 -0.00229969 0)
(5.19597e-06 -0.00233308 0)
(-5.58683e-06 -0.00235758 0)
(-1.65581e-05 -0.00237323 0)
(-2.78804e-05 -0.00238025 0)
(-3.98222e-05 -0.00237837 0)
(-5.22616e-05 -0.00236756 0)
(-6.50615e-05 -0.00234789 0)
(-7.81258e-05 -0.00231938 0)
(-9.14038e-05 -0.00228209 0)
(-0.000104886 -0.00223603 0)
(-0.000118573 -0.00218124 0)
(-0.000132449 -0.00211773 0)
(-0.000146469 -0.00204553 0)
(-0.000160546 -0.00196468 0)
(-0.000174546 -0.00187527 0)
(-0.000188281 -0.00177743 0)
(-0.000201498 -0.00167135 0)
(-0.000213861 -0.00155733 0)
(-0.000224946 -0.00143579 0)
(-0.000234207 -0.00130727 0)
(-0.000240965 -0.00117252 0)
(-0.000244305 -0.00103245 0)
(-0.000243005 -0.000888363 0)
(-0.00023547 -0.000741889 0)
(-0.000219983 -0.000595944 0)
(-0.000195906 -0.000453939 0)
(-0.000163798 -0.000322395 0)
(-0.00013554 -0.000209127 0)
(-0.000126386 -9.7476e-05 0)
(-0.000109987 2.96008e-05 0)
(-4.26574e-05 0.000154252 0)
(6.59771e-05 0.000245395 0)
(0.000182463 0.000286694 0)
(0.000269474 0.000276207 0)
(0.000309432 0.000234358 0)
(0.000305087 0.00018487 0)
(0.000256593 0.000134634 0)
(0.000166083 9.54171e-05 0)
(5.44553e-05 8.56581e-05 0)
(-4.06541e-05 0.000120293 0)
(-8.79089e-05 0.000160853 0)
(-8.67112e-05 0.000166283 0)
(-8.41978e-05 0.00015189 0)
(-9.39313e-05 0.000137978 0)
(-9.93878e-05 0.000143833 0)
(-8.88853e-05 0.000165112 0)
(-6.34614e-05 0.000190455 0)
(-2.70198e-05 0.000208861 0)
(7.7845e-06 0.000212095 0)
(2.74686e-05 0.000206138 0)
(3.2672e-05 0.000203342 0)
(3.28348e-05 0.00020653 0)
(3.50512e-05 0.000210255 0)
(4.10631e-05 0.000207585 0)
(4.84893e-05 0.000194528 0)
(5.3189e-05 0.000173023 0)
(5.46151e-05 0.000148912 0)
(5.62176e-05 0.000125339 0)
(6.03411e-05 0.000101043 0)
(6.6533e-05 7.40044e-05 0)
(7.32082e-05 4.36708e-05 0)
(7.94469e-05 1.04129e-05 0)
(8.4988e-05 -2.54337e-05 0)
(8.94003e-05 -6.37001e-05 0)
(9.19399e-05 -0.000104123 0)
(9.16101e-05 -0.000145908 0)
(8.73887e-05 -0.000187761 0)
(7.8477e-05 -0.000227878 0)
(6.44532e-05 -0.000264184 0)
(4.52995e-05 -0.000294501 0)
(2.15875e-05 -0.000316742 0)
(-5.88399e-06 -0.000329269 0)
(-3.57901e-05 -0.000330365 0)
(-6.6041e-05 -0.000319023 0)
(-9.4046e-05 -0.000295307 0)
(-0.000117532 -0.000260438 0)
(-0.000134532 -0.000216186 0)
(-0.000143397 -0.00016497 0)
(-0.000143062 -0.000109904 0)
(-0.000133428 -5.46208e-05 0)
(-0.000115539 -2.7267e-06 0)
(-9.13894e-05 4.28763e-05 0)
(-6.32246e-05 8.05317e-05 0)
(-3.26845e-05 0.000109635 0)
(-7.95684e-07 0.000129947 0)
(3.11233e-05 0.000141448 0)
(6.04716e-05 0.000145091 0)
(8.35976e-05 0.000144565 0)
(9.80871e-05 0.000146394 0)
(0.000104607 0.000154288 0)
(0.000101309 0.000162046 0)
(7.50853e-05 0.000159916 0)
(5.51388e-06 0.000153227 0)
(-0.000118688 0.000171933 0)
(-0.000271288 0.000249135 0)
(-0.000404719 0.000393429 0)
(-0.000489892 0.000569598 0)
(-0.000529782 0.000735621 0)
(-0.000543732 0.000881893 0)
(-0.000542761 0.00101544 0)
(-0.00053062 0.00113971 0)
(-0.000509748 0.00125397 0)
(-0.000482389 0.00135762 0)
(-0.000450332 0.00145056 0)
(-0.000415013 0.00153282 0)
(-0.000377551 0.00160464 0)
(-0.000338806 0.00166631 0)
(-0.000299426 0.00171821 0)
(-0.000259893 0.00176071 0)
(-0.000220568 0.00179419 0)
(-0.000181753 0.00181899 0)
(-0.000143705 0.00183556 0)
(-0.000106551 0.0018444 0)
(-7.03813e-05 0.00184583 0)
(-3.58608e-05 0.00184024 0)
(-2.65148e-06 0.00182883 0)
(2.98428e-05 0.00181159 0)
(6.14085e-05 0.00178887 0)
(9.22176e-05 0.0017609 0)
(0.000122314 0.00172791 0)
(0.000151772 0.00169013 0)
(0.000180654 0.00164776 0)
(0.000209008 0.00160099 0)
(0.000236876 0.00154999 0)
(0.000264283 0.00149494 0)
(0.000291242 0.00143598 0)
(0.000317745 0.00137326 0)
(0.000343765 0.0013069 0)
(0.000369246 0.00123701 0)
(0.000394102 0.00116371 0)
(0.000418205 0.00108707 0)
(0.000441381 0.0010072 0)
(0.0004634 0.000924169 0)
(0.000483967 0.000838069 0)
(0.000502711 0.000749003 0)
(0.000519177 0.000657108 0)
(0.000532817 0.000562577 0)
(0.000542985 0.000465683 0)
(0.000548946 0.000366808 0)
(0.000549891 0.000266472 0)
(0.00054497 0.000165355 0)
(0.000533278 6.43132e-05 0)
(0.000513826 -3.56171e-05 0)
(0.000485703 -0.000133151 0)
(0.000448214 -0.000226709 0)
(0.000400841 -0.000314466 0)
(0.000343347 -0.000394392 0)
(0.000275967 -0.00046431 0)
(0.00019944 -0.000521992 0)
(0.000115056 -0.000565276 0)
(2.4595e-05 -0.0005922 0)
(-6.98598e-05 -0.000601373 0)
(-0.000165077 -0.000593405 0)
(-0.00025918 -0.000575274 0)
(-0.000356409 -0.000566666 0)
(-0.000475533 -0.000610407 0)
(-0.000647619 -0.000767824 0)
(-0.000890492 -0.00107936 0)
(2.6548e-06 3.82761e-05 0)
(-2.94941e-05 3.00063e-05 0)
(-2.87232e-05 -3.41657e-06 0)
(8.34833e-06 -4.64356e-05 0)
(6.89161e-05 -7.09686e-05 0)
(0.000126565 -6.70171e-05 0)
(0.000162196 -4.4471e-05 0)
(0.000171612 -1.60688e-05 0)
(0.000156095 1.38634e-05 0)
(0.000117551 4.14994e-05 0)
(5.87886e-05 6.47718e-05 0)
(-1.7854e-05 8.05535e-05 0)
(-0.00010488 8.47081e-05 0)
(-0.000190959 7.10624e-05 0)
(-0.000260012 3.75016e-05 0)
(-0.000295597 -1.13988e-05 0)
(-0.000287771 -6.68415e-05 0)
(-0.000232668 -0.000118737 0)
(-0.000131973 -0.000152607 0)
(-3.75853e-06 -0.00015091 0)
(0.00012039 -0.000117763 0)
(0.00021575 -7.73532e-05 0)
(0.000278655 -4.46759e-05 0)
(0.000318169 -1.62416e-05 0)
(0.000334388 1.13355e-05 0)
(0.000323532 3.82387e-05 0)
(0.000279171 6.58975e-05 0)
(0.000202426 8.48614e-05 0)
(0.000110611 7.9033e-05 0)
(4.04143e-05 4.94323e-05 0)
(2.70622e-06 4.50215e-05 0)
(-2.2576e-05 7.6217e-05 0)
(-3.99366e-05 0.000118374 0)
(-4.12443e-05 0.000155511 0)
(-2.11712e-05 0.0001542 0)
(3.55081e-05 8.3817e-05 0)
(0.000161087 -7.66989e-05 0)
(0.000398237 -0.00028373 0)
(0.000735946 -0.000421355 0)
(0.001083 -0.0004467 0)
(0.00138292 -0.000427742 0)
(0.00164106 -0.000390933 0)
(0.00184985 -0.000324551 0)
(0.00199052 -0.000236477 0)
(0.00205815 -0.000137283 0)
(0.00205206 -4.04516e-05 0)
(0.00198146 3.69335e-05 0)
(0.00186981 9.11249e-05 0)
(0.00173212 0.000129253 0)
(0.0015781 0.000154283 0)
(0.00141678 0.00016885 0)
(0.00125308 0.000178868 0)
(0.00108656 0.00018982 0)
(0.000913724 0.000204481 0)
(0.000730245 0.000223484 0)
(0.000532363 0.000246066 0)
(0.000317365 0.000270617 0)
(8.13689e-05 0.000296585 0)
(-0.000182098 0.000316087 0)
(-0.000450984 0.000319432 0)
(-0.000704377 0.000311331 0)
(-0.000952624 0.000300217 0)
(-0.00119699 0.000285199 0)
(-0.00143172 0.000265886 0)
(-0.00165199 0.000242985 0)
(-0.00185476 0.000217127 0)
(-0.00203778 0.00018864 0)
(-0.0021991 0.000157691 0)
(-0.00233708 0.000124154 0)
(-0.0024501 8.71613e-05 0)
(-0.00253551 4.48402e-05 0)
(-0.00258953 -3.89524e-06 0)
(-0.00260873 -6.33707e-05 0)
(-0.00258089 -0.000134983 0)
(-0.00249835 -0.000218296 0)
(-0.00235136 -0.000313041 0)
(-0.00212866 -0.00041164 0)
(-0.00182735 -0.000501755 0)
(-0.00145152 -0.000564915 0)
(-0.00102233 -0.000580867 0)
(-0.000582196 -0.000545629 0)
(-0.000158003 -0.000475805 0)
(0.000267252 -0.000339789 0)
(0.000586277 -1.39275e-05 0)
(0.000562213 0.000213158 0)
(0.000653655 8.3359e-05 0)
(0.000559744 -0.000145124 0)
(0.000684172 -0.000123811 0)
(0.000731571 -2.3629e-05 0)
(0.000699455 3.14099e-05 0)
(0.000635828 6.49488e-05 0)
(0.00055149 9.23973e-05 0)
(0.000451226 0.000115435 0)
(0.000332588 0.000136904 0)
(0.000194811 0.000143058 0)
(6.15352e-05 0.000120022 0)
(-4.17102e-05 6.9369e-05 0)
(-8.10671e-05 4.46485e-06 0)
(-5.59368e-05 -3.44649e-05 0)
(-1.71259e-06 -3.54342e-05 0)
(-3.46544e-05 -1.4767e-05 0)
(-3.51055e-05 -8.30253e-05 0)
(-1.69235e-05 -0.000129728 0)
(-3.80038e-06 -0.000142212 0)
(-5.68924e-06 -0.000139075 0)
(-2.02143e-05 -0.00013438 0)
(-3.00967e-05 -0.000126724 0)
(-9.32961e-06 -9.39308e-05 0)
(7.52003e-05 8.32479e-06 0)
(0.000226975 0.000238852 0)
(0.000358926 0.000618856 0)
(0.000372705 0.00104614 0)
(0.000239905 0.00135608 0)
(3.6808e-06 0.00141202 0)
(-0.000275683 0.00118679 0)
(-0.000529423 0.00068217 0)
(-0.000598702 -5.31991e-05 0)
(-0.000489596 -0.000694397 0)
(-0.000337237 -0.00117243 0)
(-0.000164597 -0.00149434 0)
(2.7589e-05 -0.00164426 0)
(0.00022253 -0.00159348 0)
(0.000391684 -0.00133849 0)
(0.000468338 -0.000914245 0)
(0.000381931 -0.000444346 0)
(0.000204871 -9.72793e-05 0)
(6.68014e-05 8.39452e-05 0)
(-1.72213e-06 0.000164406 0)
(-2.75548e-05 0.000188241 0)
(-3.42333e-05 0.000185792 0)
(-3.91657e-05 0.000162983 0)
(-5.33475e-05 0.000115374 0)
(-6.60197e-05 3.72148e-05 0)
(-5.69411e-05 -4.49034e-05 0)
(-3.57402e-05 -9.7551e-05 0)
(-1.59675e-05 -0.000104896 0)
(-6.44024e-06 -6.6188e-05 0)
(5.36055e-07 -1.13763e-05 0)
(3.24036e-05 3.44759e-05 0)
(8.62995e-05 7.05468e-05 0)
(9.88512e-05 6.92895e-05 0)
(6.88089e-05 1.92209e-05 0)
(3.42606e-05 -1.61989e-05 0)
(-7.00799e-05 1.08228e-05 0)
(-0.000264265 1.16462e-06 0)
(-0.000415364 -0.000107534 0)
(-0.000435016 -0.000241448 0)
(-0.000359683 -0.000332128 0)
(-0.000209647 -0.000338985 0)
(-3.91353e-05 -0.000244951 0)
(8.87116e-05 -8.91686e-05 0)
(0.000118931 9.4448e-05 0)
(0.000102753 0.000256214 0)
(0.000149648 0.000396626 0)
(0.000267439 0.000573126 0)
(0.000389024 0.000809569 0)
(0.000430757 0.00108556 0)
(0.000348946 0.00132476 0)
(0.000232855 0.00145468 0)
(0.000196114 0.00151228 0)
(0.000221062 0.00156624 0)
(0.00022625 0.00162013 0)
(0.000202753 0.00163657 0)
(0.000197424 0.0016184 0)
(0.00021417 0.00160733 0)
(0.000205466 0.00161593 0)
(0.000147065 0.00162399 0)
(5.44657e-05 0.00163066 0)
(-4.78552e-05 0.00167106 0)
(-0.000165229 0.00176852 0)
(-0.000286417 0.00187907 0)
(-0.0003442 0.00195088 0)
(-0.000275989 0.00198157 0)
(-5.31915e-05 0.00203934 0)
(0.000358557 0.0022145 0)
(0.000866768 0.00240207 0)
(0.00116129 0.00278439 0)
(0.000987536 0.00342358 0)
(0.000354986 0.00370996 0)
(-0.000118861 0.00339789 0)
(-0.000125156 0.00312959 0)
(2.55124e-05 0.00310351 0)
(2.31026e-05 0.00317644 0)
(-8.299e-05 0.00315667 0)
(-0.0001187 0.00305944 0)
(-7.60556e-05 0.00299871 0)
(-4.98214e-05 0.00298846 0)
(-6.4585e-05 0.00297175 0)
(-7.59958e-05 0.00292988 0)
(-6.47839e-05 0.00289033 0)
(-5.18791e-05 0.00286701 0)
(-5.02304e-05 0.00284714 0)
(-5.05239e-05 0.00282182 0)
(-4.52716e-05 0.00279686 0)
(-3.87883e-05 0.00277738 0)
(-3.52263e-05 0.00276062 0)
(-3.25607e-05 0.00274369 0)
(-2.8652e-05 0.00272793 0)
(-2.45696e-05 0.00271477 0)
(-2.14315e-05 0.00270345 0)
(-1.87091e-05 0.00269314 0)
(-1.59055e-05 0.00268417 0)
(-1.33128e-05 0.00267679 0)
(-1.10613e-05 0.00267066 0)
(-8.8052e-06 0.00266561 0)
(-6.29177e-06 0.00266184 0)
(-3.54491e-06 0.00265955 0)
(-6.02216e-07 0.00265872 0)
(2.59928e-06 0.00265938 0)
(6.06128e-06 0.00266165 0)
(9.78313e-06 0.00266556 0)
(1.37884e-05 0.00267125 0)
(1.81042e-05 0.00267878 0)
(2.27748e-05 0.00268828 0)
(2.78392e-05 0.00269987 0)
(3.335e-05 0.00271369 0)
(3.93632e-05 0.00272988 0)
(4.59386e-05 0.0027486 0)
(5.31455e-05 0.00277003 0)
(6.10617e-05 0.00279433 0)
(6.97745e-05 0.00282172 0)
(7.93831e-05 0.00285239 0)
(9.00003e-05 0.00288658 0)
(0.000101754 0.00292452 0)
(0.00011479 0.00296647 0)
(0.000129273 0.00301272 0)
(0.000145385 0.00306357 0)
(0.00016333 0.00311933 0)
(0.00018333 0.00318035 0)
(0.000205625 0.003247 0)
(0.000230471 0.00331967 0)
(0.000258137 0.00339876 0)
(0.000288908 0.00348472 0)
(0.000323086 0.00357799 0)
(0.000360995 0.00367903 0)
(0.000402992 0.00378835 0)
(0.000449467 0.00390647 0)
(0.000500833 0.00403396 0)
(0.000557499 0.00417144 0)
(0.000619814 0.00431963 0)
(0.000687971 0.00447928 0)
(0.00076188 0.00465127 0)
(0.000840969 0.00483659 0)
(0.000923929 0.00503633 0)
(0.00100843 0.00525156 0)
(0.00109098 0.00548297 0)
(0.00116716 0.00573033 0)
(0.00123225 0.00599181 0)
(0.00128216 0.00626378 0)
(0.00131432 0.00654139 0)
(0.00132795 0.00681968 0)
(0.00132337 0.00709472 0)
(0.00130111 0.00736365 0)
(0.0012615 0.00762356 0)
(0.00120543 0.00787033 0)
(0.00113537 0.00809901 0)
(0.00105561 0.00830581 0)
(0.000971031 0.00848983 0)
(0.000885347 0.00865297 0)
(0.000800181 0.0087982 0)
(0.000715378 0.00892775 0)
(0.000629959 0.00904225 0)
(0.000543109 0.00914105 0)
(0.000454506 0.00922352 0)
(0.000363685 0.0092896 0)
(0.000269946 0.00933907 0)
(0.000173097 0.00937136 0)
(7.44862e-05 0.0093857 0)
(-2.27573e-05 0.00938273 0)
(-0.000120935 0.00936594 0)
(-0.000222764 0.00933427 0)
(-0.000327028 0.00928825 0)
(-0.000434564 0.0092281 0)
(-0.000545609 0.00915399 0)
(-0.000660783 0.00906644 0)
(-0.000780776 0.00896561 0)
(-0.000906258 0.00885187 0)
(-0.00103802 0.00872533 0)
(-0.00117674 0.00858617 0)
(-0.00132313 0.00843447 0)
(-0.00147781 0.0082703 0)
(-0.00164144 0.00809373 0)
(-0.00181465 0.00790486 0)
(-0.00199815 0.00770383 0)
(-0.0021928 0.00749082 0)
(-0.00239961 0.00726599 0)
(-0.00261985 0.00702948 0)
(-0.00285506 0.00678126 0)
(-0.00310722 0.00652113 0)
(-0.00337876 0.00624853 0)
(-0.00367251 0.00596256 0)
(-0.00399123 0.00566205 0)
(-0.00433698 0.00534599 0)
(-0.00471131 0.00501456 0)
(-0.00511841 0.00467082 0)
(-0.00557293 0.00432233 0)
(-0.00610887 0.00398442 0)
(-0.00677665 0.00369695 0)
(-0.00750133 0.00355884 0)
(-0.00791546 0.0039839 0)
)
;
    }
    frontAndBack
    {
        type            empty;
    }
}


// ************************************************************************* //
