/*--------------------------------*- C++ -*----------------------------------*\
  =========                 |
  \\      /  F ield         | OpenFOAM: The Open Source CFD Toolbox
   \\    /   O peration     | Website:  https://openfoam.org
    \\  /    A nd           | Version:  7
     \\/     M anipulation  |
\*---------------------------------------------------------------------------*/
FoamFile
{
    version     2.0;
    format      ascii;
    class       volScalarField;
    location    "0.06";
    object      k;
}
// * * * * * * * * * * * * * * * * * * * * * * * * * * * * * * * * * * * * * //

dimensions      [0 2 -2 0 0 0 0];

internalField   nonuniform List<scalar> 
70000
(
1.08549e-05
4.21905e-06
2.82485e-06
2.31753e-06
1.99837e-06
1.75822e-06
1.56633e-06
1.40961e-06
1.27883e-06
1.16826e-06
1.07328e-06
9.91373e-07
9.19753e-07
8.5718e-07
8.01712e-07
7.52758e-07
7.08817e-07
6.69689e-07
6.34181e-07
6.02343e-07
5.73186e-07
5.46902e-07
5.22629e-07
5.00661e-07
4.802e-07
4.61647e-07
4.44207e-07
4.28394e-07
4.13388e-07
3.99798e-07
3.86799e-07
3.75032e-07
3.63745e-07
3.53795e-07
3.44283e-07
3.35939e-07
3.27578e-07
3.20945e-07
3.13114e-07
3.08685e-07
3.0121e-07
2.989e-07
2.92292e-07
2.92143e-07
2.85919e-07
2.91192e-07
2.82122e-07
3.07873e-07
3.03771e-07
3.21698e-07
1.72795e-05
1.13678e-05
8.52181e-06
7.0124e-06
6.03966e-06
5.31399e-06
4.73481e-06
4.26156e-06
3.86658e-06
3.53266e-06
3.24586e-06
2.99851e-06
2.78221e-06
2.59321e-06
2.42566e-06
2.27775e-06
2.145e-06
2.02675e-06
1.91945e-06
1.82322e-06
1.7351e-06
1.65564e-06
1.58227e-06
1.51585e-06
1.454e-06
1.39789e-06
1.34517e-06
1.29733e-06
1.25197e-06
1.21083e-06
1.17156e-06
1.13591e-06
1.10188e-06
1.07142e-06
1.04231e-06
1.01665e-06
9.90855e-07
9.70387e-07
9.46198e-07
9.32035e-07
9.08761e-07
9.00321e-07
8.80037e-07
8.76479e-07
8.58705e-07
8.66355e-07
8.46884e-07
8.91253e-07
9.1904e-07
9.47435e-07
1.93701e-05
1.61301e-05
1.32924e-05
1.1292e-05
9.83171e-06
8.70023e-06
7.78301e-06
7.02616e-06
6.38985e-06
5.84923e-06
5.3832e-06
4.98009e-06
4.62671e-06
4.31721e-06
4.04233e-06
3.79919e-06
3.58064e-06
3.38562e-06
3.20851e-06
3.04942e-06
2.90367e-06
2.77206e-06
2.65048e-06
2.54028e-06
2.43761e-06
2.34437e-06
2.25675e-06
2.1771e-06
2.1017e-06
2.03303e-06
1.96779e-06
1.90814e-06
1.85141e-06
1.79993e-06
1.75085e-06
1.70724e-06
1.66328e-06
1.62828e-06
1.58712e-06
1.56203e-06
1.52225e-06
1.50591e-06
1.47061e-06
1.46085e-06
1.4302e-06
1.43331e-06
1.40712e-06
1.44202e-06
1.53748e-06
1.54547e-06
1.9861e-05
1.82601e-05
1.60861e-05
1.42018e-05
1.26424e-05
1.13521e-05
1.02649e-05
9.34381e-06
8.55276e-06
7.87057e-06
7.27603e-06
6.75723e-06
6.29899e-06
5.89511e-06
5.53436e-06
5.21353e-06
4.92386e-06
4.66426e-06
4.42775e-06
4.21456e-06
4.01878e-06
3.84149e-06
3.67735e-06
3.5282e-06
3.38901e-06
3.26225e-06
3.1431e-06
3.03427e-06
2.93157e-06
2.83727e-06
2.74835e-06
2.66607e-06
2.5886e-06
2.51686e-06
2.44879e-06
2.38746e-06
2.32589e-06
2.27617e-06
2.21885e-06
2.18166e-06
2.12643e-06
2.1008e-06
2.04974e-06
2.03244e-06
1.98807e-06
1.98331e-06
1.94858e-06
1.97043e-06
2.08869e-06
2.08788e-06
1.99707e-05
1.78456e-05
1.60744e-05
1.47661e-05
1.36022e-05
1.25381e-05
1.15702e-05
1.07038e-05
9.92336e-06
9.22906e-06
8.60931e-06
8.05777e-06
7.56228e-06
7.11943e-06
6.71873e-06
6.35824e-06
6.02954e-06
5.73234e-06
5.45968e-06
5.21226e-06
4.98373e-06
4.77562e-06
4.58202e-06
4.40519e-06
4.23963e-06
4.08795e-06
3.94529e-06
3.81385e-06
3.69037e-06
3.57548e-06
3.46823e-06
3.36724e-06
3.27346e-06
3.18486e-06
3.10171e-06
3.02532e-06
2.9497e-06
2.88606e-06
2.81558e-06
2.76503e-06
2.69815e-06
2.66092e-06
2.59755e-06
2.57177e-06
2.51476e-06
2.50117e-06
2.45619e-06
2.46408e-06
2.56013e-06
2.55783e-06
2.00095e-05
1.47041e-05
1.37455e-05
1.32078e-05
1.25876e-05
1.19237e-05
1.12745e-05
1.0655e-05
1.00777e-05
9.54465e-06
9.04446e-06
8.57945e-06
8.14639e-06
7.74782e-06
7.37701e-06
7.03563e-06
6.71825e-06
6.42667e-06
6.15551e-06
5.90638e-06
5.6736e-06
5.45943e-06
5.25825e-06
5.07281e-06
4.89812e-06
4.73623e-06
4.58385e-06
4.44134e-06
4.30833e-06
4.18204e-06
4.06564e-06
3.95336e-06
3.85076e-06
3.75135e-06
3.65963e-06
3.57281e-06
3.48924e-06
3.41495e-06
3.33762e-06
3.27557e-06
3.20331e-06
3.15332e-06
3.08547e-06
3.04803e-06
2.9842e-06
2.96055e-06
2.90813e-06
2.8962e-06
2.95724e-06
2.95218e-06
2.01329e-05
1.5474e-05
9.63461e-06
9.39273e-06
9.48555e-06
9.48393e-06
9.42427e-06
9.28476e-06
9.04496e-06
8.77227e-06
8.47791e-06
8.18188e-06
7.89077e-06
7.60886e-06
7.33308e-06
7.07324e-06
6.82693e-06
6.59406e-06
6.37166e-06
6.1622e-06
5.96185e-06
5.77387e-06
5.59407e-06
5.42553e-06
5.26496e-06
5.11301e-06
4.96986e-06
4.83273e-06
4.7058e-06
4.58165e-06
4.46889e-06
4.35649e-06
4.25569e-06
4.1545e-06
4.06342e-06
3.9732e-06
3.89001e-06
3.81037e-06
3.73396e-06
3.66424e-06
3.59395e-06
3.53358e-06
3.46929e-06
3.41802e-06
3.3599e-06
3.31856e-06
3.27395e-06
3.23296e-06
3.26616e-06
3.25647e-06
2.0171e-05
1.86796e-05
8.7109e-06
5.53928e-06
5.62647e-06
5.92597e-06
6.28141e-06
6.56474e-06
6.74243e-06
6.85027e-06
6.86942e-06
6.85017e-06
6.79834e-06
6.71062e-06
6.60063e-06
6.48037e-06
6.34415e-06
6.20365e-06
6.06218e-06
5.92196e-06
5.78228e-06
5.64675e-06
5.51346e-06
5.38513e-06
5.26023e-06
5.13993e-06
5.02707e-06
4.91461e-06
4.81137e-06
4.70572e-06
4.61124e-06
4.51253e-06
4.42592e-06
4.33442e-06
4.25476e-06
4.17056e-06
4.0972e-06
4.02e-06
3.95272e-06
3.88183e-06
3.8207e-06
3.75533e-06
3.70103e-06
3.63985e-06
3.59335e-06
3.53446e-06
3.50191e-06
3.43757e-06
3.44723e-06
3.43011e-06
2.01668e-05
1.97249e-05
1.61791e-05
4.87861e-06
3.04252e-06
3.10254e-06
3.36634e-06
3.79356e-06
4.15641e-06
4.47187e-06
4.71746e-06
4.90565e-06
5.04536e-06
5.1449e-06
5.20361e-06
5.23919e-06
5.2435e-06
5.23525e-06
5.2139e-06
5.17619e-06
5.12909e-06
5.07485e-06
5.0155e-06
4.95142e-06
4.88572e-06
4.81527e-06
4.74653e-06
4.67192e-06
4.60361e-06
4.52869e-06
4.4626e-06
4.38902e-06
4.32598e-06
4.25457e-06
4.19495e-06
4.12635e-06
4.07047e-06
4.00477e-06
3.95306e-06
3.89e-06
3.84338e-06
3.78227e-06
3.74087e-06
3.68074e-06
3.64472e-06
3.58409e-06
3.55379e-06
3.48736e-06
3.48179e-06
3.4585e-06
2.01473e-05
1.99346e-05
1.90694e-05
1.45185e-05
5.27665e-06
2.15969e-06
1.91403e-06
1.99038e-06
2.19904e-06
2.49456e-06
2.76778e-06
3.01803e-06
3.24069e-06
3.43541e-06
3.59789e-06
3.73485e-06
3.84566e-06
3.93364e-06
4.00452e-06
4.05709e-06
4.09576e-06
4.12005e-06
4.13574e-06
4.1388e-06
4.13605e-06
4.12735e-06
4.11485e-06
4.09255e-06
4.07196e-06
4.04202e-06
4.01552e-06
3.9803e-06
3.95017e-06
3.91063e-06
3.87911e-06
3.83654e-06
3.80451e-06
3.75978e-06
3.72805e-06
3.6815e-06
3.6506e-06
3.60222e-06
3.57286e-06
3.5229e-06
3.49546e-06
3.44423e-06
3.41767e-06
3.35905e-06
3.34612e-06
3.31775e-06
2.01213e-05
1.99663e-05
1.96443e-05
1.85537e-05
1.52391e-05
8.41922e-06
3.14461e-06
1.63892e-06
1.4431e-06
1.44761e-06
1.52103e-06
1.6771e-06
1.85683e-06
2.03124e-06
2.19896e-06
2.35586e-06
2.50127e-06
2.63076e-06
2.74777e-06
2.85016e-06
2.94116e-06
3.0184e-06
3.08652e-06
3.14235e-06
3.19084e-06
3.22871e-06
3.26274e-06
3.28619e-06
3.30717e-06
3.31963e-06
3.32952e-06
3.33391e-06
3.33383e-06
3.33129e-06
3.32671e-06
3.31614e-06
3.30802e-06
3.29114e-06
3.28009e-06
3.25806e-06
3.24451e-06
3.21781e-06
3.20219e-06
3.1712e-06
3.15344e-06
3.118e-06
3.09771e-06
3.05259e-06
3.03726e-06
3.00878e-06
2.00979e-05
1.99328e-05
1.97587e-05
1.93568e-05
1.85165e-05
1.65622e-05
1.23911e-05
6.94147e-06
3.04298e-06
1.50701e-06
1.24604e-06
1.1476e-06
1.14947e-06
1.18872e-06
1.27716e-06
1.38131e-06
1.49199e-06
1.59928e-06
1.70756e-06
1.81031e-06
1.90915e-06
1.99999e-06
2.08605e-06
2.16312e-06
2.23612e-06
2.29963e-06
2.36002e-06
2.41146e-06
2.45989e-06
2.50057e-06
2.53826e-06
2.56932e-06
2.59789e-06
2.61971e-06
2.64096e-06
2.65487e-06
2.66908e-06
2.67673e-06
2.68386e-06
2.68661e-06
2.68643e-06
2.68416e-06
2.67998e-06
2.67045e-06
2.66222e-06
2.64475e-06
2.63235e-06
2.60367e-06
2.59008e-06
2.56397e-06
2.00779e-05
1.98877e-05
1.97582e-05
1.94651e-05
1.91523e-05
1.8652e-05
1.75797e-05
1.5469e-05
1.18283e-05
7.55508e-06
4.07425e-06
1.96522e-06
1.22133e-06
1.06048e-06
9.8541e-07
9.40639e-07
9.4982e-07
9.80165e-07
1.0405e-06
1.1019e-06
1.16952e-06
1.23696e-06
1.30634e-06
1.37347e-06
1.44153e-06
1.50421e-06
1.56684e-06
1.62342e-06
1.67935e-06
1.72926e-06
1.77824e-06
1.82118e-06
1.86316e-06
1.89903e-06
1.93414e-06
1.96333e-06
1.9915e-06
2.01481e-06
2.03599e-06
2.0535e-06
2.06826e-06
2.07959e-06
2.08791e-06
2.09337e-06
2.09411e-06
2.09205e-06
2.08739e-06
2.07448e-06
2.06472e-06
2.04508e-06
2.00611e-05
1.98541e-05
1.97356e-05
1.94753e-05
1.92614e-05
1.90544e-05
1.8747e-05
1.82084e-05
1.71321e-05
1.52896e-05
1.26689e-05
9.37236e-06
6.11794e-06
3.59595e-06
1.9562e-06
1.19608e-06
9.72071e-07
8.94999e-07
8.41157e-07
7.95978e-07
7.95631e-07
8.06552e-07
8.33149e-07
8.69436e-07
9.08865e-07
9.48152e-07
9.91551e-07
1.03296e-06
1.07753e-06
1.1193e-06
1.1626e-06
1.20217e-06
1.24216e-06
1.2784e-06
1.31453e-06
1.34676e-06
1.37845e-06
1.40663e-06
1.43341e-06
1.45675e-06
1.47854e-06
1.49669e-06
1.51269e-06
1.52511e-06
1.53478e-06
1.54068e-06
1.54251e-06
1.54007e-06
1.53473e-06
1.52263e-06
2.00473e-05
1.98306e-05
1.97092e-05
1.94533e-05
1.92785e-05
1.91222e-05
1.89742e-05
1.87607e-05
1.84771e-05
1.79356e-05
1.71149e-05
1.57696e-05
1.39797e-05
1.16777e-05
9.03397e-06
6.43798e-06
4.242e-06
2.63499e-06
1.58909e-06
1.06799e-06
8.76207e-07
8.06617e-07
7.58587e-07
7.16594e-07
6.8497e-07
6.76028e-07
6.80333e-07
6.91257e-07
7.12134e-07
7.33004e-07
7.57019e-07
7.79568e-07
8.04842e-07
8.29488e-07
8.55443e-07
8.80229e-07
9.0565e-07
9.29401e-07
9.52825e-07
9.738e-07
9.94456e-07
1.01195e-06
1.029e-06
1.042e-06
1.05499e-06
1.06255e-06
1.07028e-06
1.071e-06
1.06935e-06
1.06351e-06
2.0036e-05
1.98128e-05
1.96868e-05
1.94236e-05
1.92648e-05
1.91163e-05
1.90088e-05
1.8859e-05
1.87225e-05
1.85142e-05
1.82642e-05
1.78583e-05
1.72717e-05
1.64207e-05
1.52555e-05
1.37503e-05
1.19902e-05
9.94862e-06
7.8291e-06
5.83666e-06
4.12921e-06
2.81606e-06
1.85781e-06
1.24426e-06
9.24715e-07
7.85618e-07
7.24285e-07
6.85917e-07
6.51478e-07
6.19029e-07
5.96833e-07
5.82288e-07
5.82265e-07
5.85251e-07
5.92634e-07
6.03132e-07
6.15085e-07
6.26912e-07
6.38935e-07
6.50438e-07
6.62164e-07
6.73242e-07
6.84442e-07
6.94197e-07
7.0366e-07
7.10666e-07
7.16253e-07
7.19523e-07
7.19128e-07
7.17164e-07
2.00269e-05
1.97989e-05
1.96678e-05
1.94022e-05
1.92394e-05
1.90897e-05
1.89913e-05
1.88627e-05
1.8747e-05
1.86078e-05
1.8473e-05
1.83034e-05
1.81007e-05
1.78181e-05
1.74457e-05
1.69151e-05
1.62315e-05
1.53373e-05
1.4236e-05
1.29262e-05
1.14757e-05
9.85854e-06
8.18376e-06
6.56076e-06
5.07913e-06
3.81072e-06
2.79715e-06
2.00781e-06
1.43116e-06
1.05309e-06
8.37011e-07
7.24543e-07
6.67372e-07
6.3245e-07
6.05521e-07
5.80486e-07
5.5718e-07
5.37264e-07
5.22205e-07
5.12779e-07
5.07274e-07
5.07252e-07
5.08401e-07
5.11321e-07
5.15247e-07
5.21609e-07
5.2706e-07
5.35318e-07
5.40789e-07
5.49961e-07
2.00198e-05
1.97907e-05
1.96472e-05
1.93864e-05
1.9216e-05
1.90615e-05
1.89544e-05
1.88371e-05
1.87263e-05
1.86013e-05
1.8485e-05
1.83583e-05
1.82365e-05
1.80934e-05
1.79412e-05
1.77451e-05
1.75093e-05
1.7199e-05
1.68102e-05
1.63068e-05
1.56945e-05
1.49492e-05
1.40678e-05
1.3059e-05
1.19426e-05
1.0749e-05
9.47098e-06
8.17031e-06
6.89741e-06
5.70354e-06
4.6242e-06
3.68476e-06
2.9061e-06
2.26852e-06
1.75834e-06
1.36756e-06
1.08513e-06
8.94499e-07
7.73255e-07
6.99166e-07
6.5409e-07
6.26315e-07
6.07883e-07
5.95213e-07
5.86995e-07
5.86603e-07
5.88955e-07
5.95847e-07
6.06845e-07
6.29396e-07
2.00143e-05
1.97907e-05
1.96211e-05
1.93732e-05
1.91964e-05
1.90355e-05
1.89199e-05
1.88019e-05
1.86879e-05
1.85668e-05
1.84555e-05
1.83375e-05
1.82271e-05
1.81084e-05
1.79965e-05
1.78753e-05
1.77528e-05
1.76128e-05
1.74569e-05
1.72697e-05
1.70461e-05
1.67753e-05
1.64461e-05
1.60509e-05
1.55794e-05
1.5033e-05
1.44038e-05
1.36925e-05
1.2905e-05
1.2054e-05
1.11518e-05
1.02212e-05
9.25492e-06
8.28661e-06
7.34019e-06
6.44004e-06
5.60307e-06
4.84562e-06
4.174e-06
3.59195e-06
3.10087e-06
2.69393e-06
2.3613e-06
2.09809e-06
1.89938e-06
1.75998e-06
1.67289e-06
1.63126e-06
1.63236e-06
1.64171e-06
2.001e-05
1.97947e-05
1.95947e-05
1.93597e-05
1.91786e-05
1.90111e-05
1.8888e-05
1.87674e-05
1.86496e-05
1.85259e-05
1.84113e-05
1.82935e-05
1.81837e-05
1.80718e-05
1.79649e-05
1.78568e-05
1.77498e-05
1.76427e-05
1.75352e-05
1.74259e-05
1.73096e-05
1.71858e-05
1.70467e-05
1.6891e-05
1.67104e-05
1.6503e-05
1.62612e-05
1.59832e-05
1.56614e-05
1.52968e-05
1.48839e-05
1.44283e-05
1.39264e-05
1.33826e-05
1.28007e-05
1.21892e-05
1.15556e-05
1.09125e-05
1.02653e-05
9.63434e-06
9.01439e-06
8.42925e-06
7.88348e-06
7.39394e-06
6.96114e-06
6.5966e-06
6.29852e-06
6.08166e-06
5.93463e-06
5.85619e-06
2.00069e-05
1.98018e-05
1.95706e-05
1.93467e-05
1.9162e-05
1.89884e-05
1.88576e-05
1.87347e-05
1.86125e-05
1.84864e-05
1.83668e-05
1.82476e-05
1.81334e-05
1.80203e-05
1.79105e-05
1.78035e-05
1.76985e-05
1.75978e-05
1.7496e-05
1.73995e-05
1.72995e-05
1.72035e-05
1.71045e-05
1.7008e-05
1.69057e-05
1.68023e-05
1.66889e-05
1.65697e-05
1.64357e-05
1.62903e-05
1.61259e-05
1.59458e-05
1.57433e-05
1.55212e-05
1.52757e-05
1.50081e-05
1.47187e-05
1.44095e-05
1.40816e-05
1.37425e-05
1.33897e-05
1.30359e-05
1.26816e-05
1.23351e-05
1.20104e-05
1.17086e-05
1.1446e-05
1.12202e-05
1.10465e-05
1.09254e-05
2.00045e-05
1.98101e-05
1.95479e-05
1.93339e-05
1.9146e-05
1.89677e-05
1.88286e-05
1.87037e-05
1.85772e-05
1.8449e-05
1.83242e-05
1.82029e-05
1.80842e-05
1.79693e-05
1.78553e-05
1.77468e-05
1.76371e-05
1.75349e-05
1.74303e-05
1.73338e-05
1.72345e-05
1.71436e-05
1.70496e-05
1.69623e-05
1.68719e-05
1.67871e-05
1.66975e-05
1.66138e-05
1.6526e-05
1.64411e-05
1.6351e-05
1.62619e-05
1.61656e-05
1.6067e-05
1.59608e-05
1.58488e-05
1.57289e-05
1.5601e-05
1.54659e-05
1.5323e-05
1.51716e-05
1.50163e-05
1.48568e-05
1.46919e-05
1.45311e-05
1.43701e-05
1.42207e-05
1.40794e-05
1.39571e-05
1.38578e-05
2.00028e-05
1.98187e-05
1.95269e-05
1.93207e-05
1.91299e-05
1.89487e-05
1.88011e-05
1.8674e-05
1.85437e-05
1.84136e-05
1.82841e-05
1.81606e-05
1.80376e-05
1.79206e-05
1.78025e-05
1.7692e-05
1.75785e-05
1.74738e-05
1.73658e-05
1.72669e-05
1.71637e-05
1.70697e-05
1.69725e-05
1.68835e-05
1.67915e-05
1.6708e-05
1.6622e-05
1.65435e-05
1.6462e-05
1.63867e-05
1.63091e-05
1.62375e-05
1.61622e-05
1.60917e-05
1.60203e-05
1.59519e-05
1.58818e-05
1.5813e-05
1.57443e-05
1.5674e-05
1.56019e-05
1.55305e-05
1.54575e-05
1.53819e-05
1.53055e-05
1.52294e-05
1.51528e-05
1.50773e-05
1.50042e-05
1.49392e-05
2.00016e-05
1.9827e-05
1.95076e-05
1.93066e-05
1.91137e-05
1.89312e-05
1.87752e-05
1.86457e-05
1.85124e-05
1.83804e-05
1.8247e-05
1.8121e-05
1.79945e-05
1.7875e-05
1.77536e-05
1.76405e-05
1.7524e-05
1.74163e-05
1.73057e-05
1.72039e-05
1.70978e-05
1.70009e-05
1.69005e-05
1.68086e-05
1.67135e-05
1.66265e-05
1.65365e-05
1.64549e-05
1.63707e-05
1.62934e-05
1.62147e-05
1.61436e-05
1.60713e-05
1.6005e-05
1.59385e-05
1.58778e-05
1.58153e-05
1.57584e-05
1.57026e-05
1.56491e-05
1.55947e-05
1.55458e-05
1.54965e-05
1.54486e-05
1.53996e-05
1.53551e-05
1.53073e-05
1.5261e-05
1.52125e-05
1.51679e-05
2.00008e-05
1.98308e-05
1.94912e-05
1.92919e-05
1.90974e-05
1.89154e-05
1.87515e-05
1.86191e-05
1.84834e-05
1.835e-05
1.82133e-05
1.80848e-05
1.79554e-05
1.78335e-05
1.77093e-05
1.75937e-05
1.74745e-05
1.7364e-05
1.72512e-05
1.71466e-05
1.70379e-05
1.69384e-05
1.68353e-05
1.67409e-05
1.6643e-05
1.65533e-05
1.64604e-05
1.63759e-05
1.62886e-05
1.62084e-05
1.61266e-05
1.60525e-05
1.59768e-05
1.59075e-05
1.58385e-05
1.57766e-05
1.57123e-05
1.56556e-05
1.56e-05
1.55486e-05
1.54961e-05
1.54507e-05
1.54049e-05
1.53621e-05
1.5318e-05
1.52807e-05
1.52402e-05
1.52025e-05
1.51629e-05
1.51277e-05
2.00002e-05
1.98291e-05
1.94781e-05
1.92767e-05
1.90814e-05
1.89016e-05
1.87305e-05
1.85949e-05
1.84573e-05
1.83227e-05
1.81834e-05
1.80527e-05
1.7921e-05
1.77969e-05
1.76704e-05
1.75526e-05
1.74309e-05
1.73181e-05
1.72031e-05
1.70961e-05
1.69851e-05
1.68834e-05
1.67778e-05
1.66814e-05
1.6581e-05
1.64891e-05
1.63938e-05
1.63072e-05
1.62173e-05
1.6135e-05
1.60507e-05
1.59745e-05
1.58962e-05
1.58247e-05
1.57533e-05
1.56898e-05
1.5623e-05
1.55649e-05
1.55075e-05
1.54549e-05
1.54006e-05
1.53544e-05
1.53082e-05
1.52649e-05
1.52206e-05
1.51837e-05
1.51436e-05
1.51065e-05
1.50683e-05
1.50347e-05
1.99999e-05
1.98273e-05
1.94669e-05
1.92598e-05
1.90647e-05
1.88892e-05
1.8712e-05
1.8573e-05
1.84341e-05
1.8299e-05
1.81576e-05
1.80252e-05
1.78915e-05
1.77659e-05
1.76374e-05
1.7518e-05
1.73941e-05
1.72796e-05
1.71626e-05
1.70538e-05
1.69406e-05
1.6837e-05
1.67293e-05
1.66311e-05
1.65285e-05
1.64347e-05
1.63376e-05
1.62491e-05
1.6157e-05
1.60732e-05
1.59869e-05
1.59091e-05
1.58292e-05
1.57562e-05
1.56832e-05
1.56188e-05
1.55504e-05
1.54915e-05
1.54332e-05
1.53797e-05
1.53246e-05
1.52775e-05
1.52308e-05
1.51866e-05
1.51419e-05
1.51046e-05
1.5064e-05
1.50265e-05
1.49883e-05
1.49553e-05
1.99999e-05
1.98259e-05
1.94585e-05
1.92426e-05
1.9048e-05
1.88786e-05
1.86967e-05
1.85542e-05
1.84142e-05
1.82792e-05
1.81365e-05
1.80031e-05
1.78676e-05
1.77412e-05
1.76112e-05
1.74908e-05
1.7365e-05
1.72494e-05
1.71307e-05
1.70205e-05
1.69055e-05
1.68005e-05
1.6691e-05
1.65913e-05
1.6487e-05
1.63915e-05
1.62929e-05
1.62027e-05
1.6109e-05
1.60239e-05
1.59359e-05
1.5857e-05
1.57758e-05
1.57018e-05
1.56279e-05
1.55629e-05
1.54937e-05
1.54347e-05
1.5376e-05
1.53221e-05
1.5267e-05
1.52198e-05
1.51727e-05
1.51283e-05
1.50839e-05
1.50464e-05
1.50055e-05
1.49677e-05
1.49297e-05
1.4897e-05
1.99999e-05
1.9825e-05
1.94529e-05
1.92259e-05
1.90322e-05
1.88698e-05
1.86851e-05
1.8539e-05
1.83984e-05
1.82641e-05
1.81207e-05
1.79868e-05
1.78502e-05
1.77235e-05
1.75925e-05
1.74715e-05
1.73445e-05
1.72284e-05
1.71083e-05
1.69973e-05
1.6881e-05
1.67749e-05
1.6664e-05
1.65632e-05
1.64576e-05
1.63608e-05
1.62611e-05
1.61695e-05
1.60744e-05
1.59883e-05
1.5899e-05
1.58193e-05
1.57371e-05
1.56625e-05
1.55881e-05
1.55225e-05
1.54533e-05
1.53946e-05
1.53356e-05
1.52817e-05
1.52272e-05
1.51803e-05
1.5133e-05
1.50888e-05
1.50451e-05
1.50072e-05
1.49661e-05
1.49285e-05
1.48906e-05
1.4858e-05
1.99999e-05
1.98244e-05
1.94498e-05
1.92106e-05
1.90177e-05
1.88629e-05
1.86777e-05
1.85281e-05
1.8387e-05
1.8254e-05
1.81107e-05
1.7977e-05
1.78398e-05
1.77135e-05
1.75821e-05
1.74611e-05
1.73335e-05
1.72174e-05
1.70964e-05
1.69852e-05
1.6868e-05
1.67614e-05
1.66495e-05
1.65481e-05
1.64414e-05
1.6344e-05
1.62432e-05
1.61506e-05
1.60547e-05
1.59678e-05
1.58775e-05
1.57974e-05
1.57143e-05
1.56396e-05
1.5565e-05
1.54988e-05
1.54302e-05
1.5372e-05
1.5313e-05
1.52592e-05
1.52057e-05
1.51595e-05
1.51118e-05
1.50685e-05
1.50259e-05
1.49879e-05
1.49468e-05
1.49099e-05
1.48725e-05
1.48402e-05
1.99999e-05
1.98241e-05
1.9449e-05
1.91976e-05
1.90051e-05
1.88577e-05
1.86744e-05
1.85219e-05
1.83804e-05
1.8249e-05
1.81068e-05
1.79741e-05
1.78369e-05
1.77116e-05
1.75807e-05
1.74602e-05
1.73328e-05
1.72172e-05
1.7096e-05
1.69851e-05
1.68675e-05
1.6761e-05
1.66486e-05
1.6547e-05
1.64397e-05
1.63422e-05
1.62405e-05
1.61475e-05
1.60512e-05
1.59636e-05
1.58727e-05
1.57925e-05
1.57087e-05
1.56343e-05
1.55597e-05
1.54932e-05
1.54256e-05
1.5368e-05
1.5309e-05
1.52558e-05
1.52034e-05
1.51577e-05
1.511e-05
1.50673e-05
1.50255e-05
1.49873e-05
1.49459e-05
1.49092e-05
1.48721e-05
1.48398e-05
1.99999e-05
1.98243e-05
1.94503e-05
1.91873e-05
1.89945e-05
1.88539e-05
1.86751e-05
1.85204e-05
1.83787e-05
1.82496e-05
1.81092e-05
1.79778e-05
1.78413e-05
1.77173e-05
1.75873e-05
1.74678e-05
1.73411e-05
1.72264e-05
1.71056e-05
1.69953e-05
1.68779e-05
1.6772e-05
1.66595e-05
1.65584e-05
1.64509e-05
1.63539e-05
1.62517e-05
1.6159e-05
1.60626e-05
1.59747e-05
1.58839e-05
1.58039e-05
1.57199e-05
1.56462e-05
1.55716e-05
1.55053e-05
1.5439e-05
1.53822e-05
1.53233e-05
1.52711e-05
1.522e-05
1.51749e-05
1.51272e-05
1.50855e-05
1.50443e-05
1.50058e-05
1.49642e-05
1.49278e-05
1.48908e-05
1.48583e-05
1.99999e-05
1.98249e-05
1.94537e-05
1.91802e-05
1.89863e-05
1.88515e-05
1.86794e-05
1.85232e-05
1.83815e-05
1.82546e-05
1.81169e-05
1.79877e-05
1.78526e-05
1.77308e-05
1.76024e-05
1.74849e-05
1.73597e-05
1.72467e-05
1.71268e-05
1.7018e-05
1.69013e-05
1.67965e-05
1.66845e-05
1.65843e-05
1.64769e-05
1.63809e-05
1.62783e-05
1.61863e-05
1.60899e-05
1.6002e-05
1.59117e-05
1.58318e-05
1.57479e-05
1.56753e-05
1.56007e-05
1.5535e-05
1.54703e-05
1.54142e-05
1.53556e-05
1.53048e-05
1.52549e-05
1.52103e-05
1.51631e-05
1.51222e-05
1.50813e-05
1.50427e-05
1.5001e-05
1.49647e-05
1.49278e-05
1.48949e-05
1.99999e-05
1.98259e-05
1.9459e-05
1.91763e-05
1.89806e-05
1.88503e-05
1.86869e-05
1.8531e-05
1.8389e-05
1.82649e-05
1.81304e-05
1.80042e-05
1.78712e-05
1.77521e-05
1.76259e-05
1.75109e-05
1.73878e-05
1.7277e-05
1.71588e-05
1.7052e-05
1.69368e-05
1.68336e-05
1.67228e-05
1.66239e-05
1.65174e-05
1.64227e-05
1.63203e-05
1.62296e-05
1.61335e-05
1.60463e-05
1.59567e-05
1.58771e-05
1.5794e-05
1.57224e-05
1.56479e-05
1.55834e-05
1.55204e-05
1.54649e-05
1.54069e-05
1.53576e-05
1.53087e-05
1.52646e-05
1.5218e-05
1.51779e-05
1.51368e-05
1.5098e-05
1.50564e-05
1.502e-05
1.49827e-05
1.49493e-05
1.99999e-05
1.98273e-05
1.94655e-05
1.91757e-05
1.89774e-05
1.88504e-05
1.86968e-05
1.85428e-05
1.84009e-05
1.82798e-05
1.81488e-05
1.80263e-05
1.78959e-05
1.778e-05
1.76566e-05
1.75448e-05
1.74243e-05
1.73163e-05
1.72004e-05
1.70961e-05
1.69829e-05
1.68818e-05
1.67729e-05
1.66756e-05
1.65706e-05
1.64774e-05
1.63761e-05
1.6287e-05
1.61914e-05
1.61055e-05
1.60168e-05
1.59378e-05
1.58559e-05
1.57855e-05
1.57113e-05
1.56484e-05
1.5587e-05
1.55322e-05
1.54752e-05
1.54276e-05
1.53793e-05
1.53358e-05
1.52902e-05
1.52506e-05
1.52092e-05
1.51702e-05
1.51286e-05
1.50921e-05
1.5054e-05
1.50198e-05
1.99999e-05
1.98291e-05
1.94734e-05
1.91782e-05
1.89766e-05
1.88518e-05
1.87084e-05
1.85581e-05
1.84165e-05
1.82982e-05
1.81711e-05
1.8053e-05
1.79258e-05
1.78135e-05
1.76934e-05
1.75853e-05
1.74679e-05
1.73634e-05
1.72501e-05
1.7149e-05
1.70382e-05
1.69398e-05
1.68332e-05
1.67381e-05
1.66352e-05
1.65437e-05
1.64441e-05
1.63568e-05
1.62619e-05
1.6178e-05
1.60903e-05
1.60122e-05
1.59319e-05
1.58626e-05
1.5789e-05
1.57282e-05
1.56679e-05
1.56139e-05
1.55585e-05
1.55124e-05
1.54645e-05
1.54219e-05
1.53772e-05
1.5338e-05
1.52961e-05
1.52568e-05
1.52153e-05
1.51784e-05
1.51393e-05
1.51039e-05
1.99999e-05
1.98312e-05
1.94818e-05
1.91839e-05
1.89784e-05
1.88547e-05
1.87212e-05
1.85763e-05
1.84355e-05
1.832e-05
1.81968e-05
1.80834e-05
1.79601e-05
1.78517e-05
1.77352e-05
1.76313e-05
1.75175e-05
1.74169e-05
1.73067e-05
1.72093e-05
1.71014e-05
1.70061e-05
1.6902e-05
1.68098e-05
1.67092e-05
1.66197e-05
1.65226e-05
1.6437e-05
1.63435e-05
1.62617e-05
1.6175e-05
1.60982e-05
1.60198e-05
1.59514e-05
1.58789e-05
1.58202e-05
1.57609e-05
1.5708e-05
1.56542e-05
1.56094e-05
1.55619e-05
1.55202e-05
1.54764e-05
1.54373e-05
1.5395e-05
1.53555e-05
1.53139e-05
1.52763e-05
1.5236e-05
1.51992e-05
1.99999e-05
1.98335e-05
1.94906e-05
1.9192e-05
1.89828e-05
1.88593e-05
1.87349e-05
1.8597e-05
1.84574e-05
1.83446e-05
1.82253e-05
1.8117e-05
1.79978e-05
1.78937e-05
1.77811e-05
1.76817e-05
1.75717e-05
1.74755e-05
1.73688e-05
1.72754e-05
1.71707e-05
1.70792e-05
1.69777e-05
1.68889e-05
1.67908e-05
1.67039e-05
1.66094e-05
1.65256e-05
1.6434e-05
1.63545e-05
1.62688e-05
1.61939e-05
1.61171e-05
1.60495e-05
1.59787e-05
1.59219e-05
1.58632e-05
1.58117e-05
1.57596e-05
1.57158e-05
1.56688e-05
1.56282e-05
1.55851e-05
1.55459e-05
1.55029e-05
1.54635e-05
1.54216e-05
1.53832e-05
1.53414e-05
1.5303e-05
1.99999e-05
1.9836e-05
1.94996e-05
1.9202e-05
1.89895e-05
1.88656e-05
1.87489e-05
1.86191e-05
1.84817e-05
1.83713e-05
1.82559e-05
1.81527e-05
1.80379e-05
1.79385e-05
1.78299e-05
1.77353e-05
1.76294e-05
1.75379e-05
1.74349e-05
1.73459e-05
1.72447e-05
1.71573e-05
1.70586e-05
1.69738e-05
1.6878e-05
1.67943e-05
1.67024e-05
1.66207e-05
1.65315e-05
1.6454e-05
1.63695e-05
1.62969e-05
1.62212e-05
1.61547e-05
1.60859e-05
1.60305e-05
1.59724e-05
1.59227e-05
1.58721e-05
1.5829e-05
1.57825e-05
1.57429e-05
1.57004e-05
1.56609e-05
1.56173e-05
1.55778e-05
1.55357e-05
1.54963e-05
1.54529e-05
1.54126e-05
1.99999e-05
1.98386e-05
1.95085e-05
1.92135e-05
1.89983e-05
1.88735e-05
1.87631e-05
1.86421e-05
1.85076e-05
1.83997e-05
1.82878e-05
1.81898e-05
1.80796e-05
1.7985e-05
1.78806e-05
1.7791e-05
1.76894e-05
1.76027e-05
1.75038e-05
1.74192e-05
1.7322e-05
1.72387e-05
1.71432e-05
1.70624e-05
1.69692e-05
1.68892e-05
1.67996e-05
1.67206e-05
1.66339e-05
1.65581e-05
1.64752e-05
1.64049e-05
1.633e-05
1.62649e-05
1.6198e-05
1.61434e-05
1.6086e-05
1.60383e-05
1.59889e-05
1.59463e-05
1.59004e-05
1.58618e-05
1.58195e-05
1.578e-05
1.57359e-05
1.56962e-05
1.56535e-05
1.56131e-05
1.55682e-05
1.55261e-05
1.99999e-05
1.98412e-05
1.95171e-05
1.9226e-05
1.90089e-05
1.8883e-05
1.87772e-05
1.86653e-05
1.85346e-05
1.84293e-05
1.83206e-05
1.82276e-05
1.81221e-05
1.80325e-05
1.79323e-05
1.78477e-05
1.77506e-05
1.76688e-05
1.75742e-05
1.74941e-05
1.7401e-05
1.73218e-05
1.72301e-05
1.7153e-05
1.7063e-05
1.69867e-05
1.68992e-05
1.68235e-05
1.67391e-05
1.6665e-05
1.65839e-05
1.65156e-05
1.64412e-05
1.63779e-05
1.63126e-05
1.62586e-05
1.62018e-05
1.6156e-05
1.61075e-05
1.60652e-05
1.60204e-05
1.59824e-05
1.59402e-05
1.59006e-05
1.58563e-05
1.58163e-05
1.57724e-05
1.57309e-05
1.56851e-05
1.56416e-05
1.99999e-05
1.98437e-05
1.95253e-05
1.9239e-05
1.9021e-05
1.88939e-05
1.87912e-05
1.86881e-05
1.85621e-05
1.84595e-05
1.83537e-05
1.82655e-05
1.81647e-05
1.80801e-05
1.79842e-05
1.79047e-05
1.78119e-05
1.77353e-05
1.76448e-05
1.75697e-05
1.74805e-05
1.74058e-05
1.73178e-05
1.72442e-05
1.71579e-05
1.70851e-05
1.69999e-05
1.69276e-05
1.68452e-05
1.6773e-05
1.6694e-05
1.66269e-05
1.65533e-05
1.64918e-05
1.64273e-05
1.6374e-05
1.63178e-05
1.62738e-05
1.62255e-05
1.61841e-05
1.61403e-05
1.61025e-05
1.60602e-05
1.60207e-05
1.59763e-05
1.5936e-05
1.58907e-05
1.58479e-05
1.58013e-05
1.57569e-05
1.99999e-05
1.98461e-05
1.9533e-05
1.9252e-05
1.90341e-05
1.89059e-05
1.88051e-05
1.87101e-05
1.85895e-05
1.84899e-05
1.83867e-05
1.8303e-05
1.82067e-05
1.81272e-05
1.80355e-05
1.7961e-05
1.78726e-05
1.78012e-05
1.77148e-05
1.76448e-05
1.75593e-05
1.74895e-05
1.7405e-05
1.73353e-05
1.72525e-05
1.7183e-05
1.71006e-05
1.70315e-05
1.69507e-05
1.68811e-05
1.68036e-05
1.67373e-05
1.66647e-05
1.66048e-05
1.65406e-05
1.64878e-05
1.64326e-05
1.63894e-05
1.63413e-05
1.63012e-05
1.6258e-05
1.62202e-05
1.61778e-05
1.61385e-05
1.60944e-05
1.60534e-05
1.60065e-05
1.5963e-05
1.59152e-05
1.58695e-05
1.99999e-05
1.98483e-05
1.95401e-05
1.92648e-05
1.90477e-05
1.89185e-05
1.88189e-05
1.87311e-05
1.86163e-05
1.852e-05
1.84191e-05
1.83396e-05
1.82476e-05
1.81731e-05
1.80856e-05
1.80161e-05
1.7932e-05
1.78656e-05
1.77836e-05
1.77184e-05
1.76367e-05
1.75718e-05
1.74905e-05
1.74252e-05
1.73455e-05
1.72795e-05
1.72001e-05
1.71336e-05
1.70547e-05
1.69877e-05
1.69113e-05
1.68458e-05
1.67742e-05
1.67152e-05
1.6651e-05
1.6599e-05
1.65446e-05
1.65013e-05
1.64537e-05
1.64149e-05
1.6372e-05
1.63343e-05
1.62917e-05
1.6253e-05
1.62089e-05
1.61669e-05
1.61189e-05
1.60747e-05
1.60255e-05
1.59785e-05
1.99999e-05
1.98502e-05
1.95464e-05
1.92768e-05
1.90614e-05
1.89315e-05
1.88323e-05
1.87507e-05
1.86419e-05
1.85493e-05
1.84507e-05
1.83749e-05
1.8287e-05
1.82174e-05
1.81339e-05
1.80694e-05
1.79895e-05
1.7928e-05
1.78502e-05
1.77899e-05
1.77122e-05
1.76518e-05
1.75741e-05
1.7513e-05
1.7436e-05
1.73738e-05
1.72974e-05
1.72333e-05
1.71564e-05
1.70916e-05
1.70159e-05
1.69516e-05
1.68805e-05
1.68217e-05
1.67577e-05
1.67064e-05
1.6652e-05
1.66086e-05
1.65617e-05
1.6524e-05
1.64811e-05
1.64436e-05
1.6401e-05
1.6363e-05
1.63185e-05
1.62757e-05
1.62269e-05
1.61817e-05
1.61313e-05
1.60827e-05
1.99999e-05
1.98519e-05
1.95519e-05
1.92878e-05
1.90746e-05
1.89446e-05
1.88454e-05
1.8769e-05
1.8666e-05
1.85774e-05
1.84811e-05
1.84086e-05
1.83245e-05
1.82597e-05
1.81801e-05
1.81204e-05
1.80446e-05
1.79881e-05
1.79141e-05
1.78589e-05
1.7785e-05
1.7729e-05
1.76549e-05
1.75979e-05
1.75237e-05
1.74654e-05
1.73914e-05
1.73302e-05
1.72553e-05
1.7192e-05
1.71171e-05
1.7054e-05
1.69827e-05
1.69237e-05
1.68599e-05
1.68091e-05
1.67541e-05
1.67108e-05
1.66645e-05
1.66273e-05
1.65847e-05
1.65477e-05
1.65051e-05
1.64672e-05
1.64223e-05
1.63793e-05
1.63298e-05
1.62835e-05
1.62316e-05
1.61817e-05
1.99999e-05
1.98533e-05
1.95564e-05
1.92976e-05
1.9087e-05
1.89573e-05
1.8858e-05
1.87858e-05
1.86885e-05
1.8604e-05
1.85099e-05
1.84406e-05
1.83598e-05
1.82996e-05
1.8224e-05
1.81688e-05
1.8097e-05
1.80454e-05
1.79752e-05
1.79249e-05
1.78547e-05
1.78032e-05
1.77324e-05
1.76795e-05
1.76083e-05
1.75535e-05
1.74818e-05
1.74239e-05
1.73503e-05
1.72886e-05
1.72144e-05
1.71521e-05
1.70804e-05
1.70211e-05
1.6957e-05
1.6906e-05
1.68506e-05
1.68077e-05
1.67613e-05
1.67243e-05
1.66822e-05
1.66461e-05
1.66033e-05
1.65652e-05
1.65202e-05
1.64773e-05
1.64271e-05
1.63796e-05
1.63263e-05
1.62752e-05
1.99999e-05
1.98543e-05
1.95599e-05
1.93059e-05
1.90983e-05
1.89692e-05
1.88699e-05
1.88011e-05
1.8709e-05
1.86289e-05
1.8537e-05
1.84706e-05
1.83929e-05
1.8337e-05
1.82651e-05
1.82145e-05
1.81463e-05
1.80996e-05
1.80333e-05
1.79876e-05
1.7921e-05
1.78742e-05
1.78064e-05
1.77576e-05
1.76893e-05
1.7638e-05
1.75685e-05
1.75136e-05
1.74414e-05
1.73815e-05
1.73073e-05
1.72454e-05
1.71734e-05
1.71136e-05
1.70485e-05
1.69969e-05
1.69413e-05
1.68985e-05
1.68517e-05
1.6815e-05
1.67734e-05
1.67379e-05
1.66953e-05
1.66573e-05
1.66121e-05
1.65691e-05
1.65184e-05
1.64699e-05
1.64153e-05
1.63628e-05
1.99999e-05
1.9855e-05
1.95623e-05
1.93125e-05
1.91081e-05
1.89802e-05
1.88809e-05
1.88148e-05
1.87274e-05
1.86517e-05
1.85621e-05
1.84984e-05
1.84235e-05
1.83717e-05
1.83034e-05
1.82572e-05
1.81925e-05
1.81506e-05
1.80878e-05
1.8047e-05
1.79838e-05
1.79415e-05
1.78768e-05
1.7832e-05
1.77664e-05
1.77188e-05
1.76515e-05
1.75992e-05
1.75285e-05
1.74701e-05
1.73959e-05
1.7334e-05
1.72611e-05
1.72009e-05
1.71343e-05
1.70819e-05
1.70258e-05
1.69828e-05
1.69357e-05
1.68995e-05
1.6858e-05
1.68232e-05
1.67814e-05
1.67435e-05
1.66977e-05
1.66547e-05
1.66037e-05
1.65545e-05
1.64983e-05
1.64444e-05
1.99999e-05
1.98552e-05
1.95634e-05
1.93173e-05
1.9116e-05
1.89898e-05
1.88907e-05
1.88269e-05
1.87437e-05
1.86722e-05
1.8585e-05
1.85238e-05
1.84514e-05
1.84035e-05
1.83386e-05
1.82967e-05
1.82355e-05
1.8198e-05