/*--------------------------------*- C++ -*----------------------------------*\
  =========                 |
  \\      /  F ield         | OpenFOAM: The Open Source CFD Toolbox
   \\    /   O peration     | Website:  https://openfoam.org
    \\  /    A nd           | Version:  7
     \\/     M anipulation  |
\*---------------------------------------------------------------------------*/
FoamFile
{
    version     2.0;
    format      ascii;
    class       volScalarField;
    location    "0.06";
    object      k_0;
}
// * * * * * * * * * * * * * * * * * * * * * * * * * * * * * * * * * * * * * //

dimensions      [0 2 -2 0 0 0 0];

internalField   nonuniform List<scalar> 
70000
(
1.08549e-05
4.21905e-06
2.82485e-06
2.31752e-06
1.99837e-06
1.75822e-06
1.56632e-06
1.40961e-06
1.27883e-06
1.16825e-06
1.07328e-06
9.91367e-07
9.19747e-07
8.57174e-07
8.01705e-07
7.52752e-07
7.0881e-07
6.69683e-07
6.34174e-07
6.02336e-07
5.73178e-07
5.46894e-07
5.2262e-07
5.00652e-07
4.8019e-07
4.61637e-07
4.44197e-07
4.28383e-07
4.13376e-07
3.99787e-07
3.86786e-07
3.7502e-07
3.6373e-07
3.53779e-07
3.44265e-07
3.35919e-07
3.27559e-07
3.20922e-07
3.13092e-07
3.08659e-07
3.01184e-07
2.98873e-07
2.92263e-07
2.92114e-07
2.8589e-07
2.91163e-07
2.82103e-07
3.07844e-07
3.03779e-07
3.21684e-07
1.72795e-05
1.13678e-05
8.52181e-06
7.0124e-06
6.03966e-06
5.31399e-06
4.7348e-06
4.26155e-06
3.86657e-06
3.53265e-06
3.24585e-06
2.99849e-06
2.78219e-06
2.59319e-06
2.42564e-06
2.27774e-06
2.14498e-06
2.02673e-06
1.91943e-06
1.82319e-06
1.73508e-06
1.65562e-06
1.58225e-06
1.51583e-06
1.45397e-06
1.39786e-06
1.34513e-06
1.2973e-06
1.25194e-06
1.2108e-06
1.17153e-06
1.13587e-06
1.10184e-06
1.07137e-06
1.04226e-06
1.01659e-06
9.90798e-07
9.70317e-07
9.46134e-07
9.31959e-07
9.08683e-07
9.0024e-07
8.79948e-07
8.76389e-07
8.58613e-07
8.6626e-07
8.46804e-07
8.91142e-07
9.19108e-07
9.47413e-07
1.93701e-05
1.61301e-05
1.32924e-05
1.1292e-05
9.8317e-06
8.70022e-06
7.783e-06
7.02614e-06
6.38983e-06
5.84921e-06
5.38318e-06
4.98007e-06
4.62668e-06
4.31719e-06
4.04231e-06
3.79916e-06
3.5806e-06
3.38559e-06
3.20848e-06
3.04938e-06
2.90363e-06
2.77202e-06
2.65043e-06
2.54023e-06
2.43756e-06
2.34432e-06
2.2567e-06
2.17705e-06
2.10165e-06
2.03298e-06
1.96773e-06
1.90808e-06
1.85134e-06
1.79986e-06
1.75077e-06
1.70714e-06
1.6632e-06
1.62817e-06
1.58702e-06
1.56191e-06
1.52212e-06
1.50578e-06
1.47047e-06
1.46071e-06
1.43005e-06
1.43316e-06
1.40697e-06
1.44186e-06
1.53751e-06
1.54543e-06
1.9861e-05
1.82601e-05
1.60861e-05
1.42018e-05
1.26424e-05
1.13521e-05
1.02649e-05
9.3438e-06
8.55274e-06
7.87056e-06
7.27601e-06
6.7572e-06
6.29896e-06
5.89508e-06
5.53432e-06
5.21349e-06
4.92383e-06
4.66422e-06
4.42771e-06
4.21452e-06
4.01874e-06
3.84144e-06
3.6773e-06
3.52814e-06
3.38895e-06
3.26219e-06
3.14303e-06
3.03421e-06
2.9315e-06
2.83721e-06
2.74826e-06
2.66599e-06
2.58852e-06
2.51677e-06
2.4487e-06
2.38735e-06
2.32579e-06
2.27603e-06
2.21873e-06
2.18151e-06
2.12628e-06
2.10064e-06
2.04956e-06
2.03226e-06
1.98788e-06
1.98311e-06
1.94838e-06
1.97022e-06
2.08866e-06
2.0878e-06
1.99707e-05
1.78456e-05
1.60744e-05
1.47661e-05
1.36022e-05
1.25381e-05
1.15702e-05
1.07038e-05
9.92335e-06
9.22905e-06
8.6093e-06
8.05776e-06
7.56226e-06
7.11941e-06
6.7187e-06
6.35822e-06
6.02951e-06
5.73231e-06
5.45965e-06
5.21222e-06
4.98369e-06
4.77558e-06
4.58197e-06
4.40514e-06
4.23957e-06
4.08789e-06
3.94522e-06
3.81378e-06
3.69029e-06
3.57541e-06
3.46814e-06
3.36715e-06
3.27336e-06
3.18476e-06
3.10161e-06
3.0252e-06
2.94959e-06
2.88592e-06
2.81545e-06
2.76488e-06
2.698e-06
2.66075e-06
2.59738e-06
2.57158e-06
2.51456e-06
2.50096e-06
2.45597e-06
2.46386e-06
2.56008e-06
2.55775e-06
2.00095e-05
1.47041e-05
1.37455e-05
1.32078e-05
1.25876e-05
1.19237e-05
1.12745e-05
1.0655e-05
1.00777e-05
9.54466e-06
9.04447e-06
8.57945e-06
8.14639e-06
7.74782e-06
7.377e-06
7.03563e-06
6.71824e-06
6.42666e-06
6.1555e-06
5.90637e-06
5.67358e-06
5.4594e-06
5.25822e-06
5.07278e-06
4.89807e-06
4.7362e-06
4.58379e-06
4.44129e-06
4.30826e-06
4.18197e-06
4.06556e-06
3.95328e-06
3.85068e-06
3.75125e-06
3.65955e-06
3.57269e-06
3.48914e-06
3.41482e-06
3.33751e-06
3.27542e-06
3.20319e-06
3.15316e-06
3.08532e-06
3.04785e-06
2.98403e-06
2.96036e-06
2.90793e-06
2.896e-06
2.9572e-06
2.95216e-06
2.01329e-05
1.5474e-05
9.63461e-06
9.39274e-06
9.48557e-06
9.48395e-06
9.4243e-06
9.28479e-06
9.045e-06
8.77231e-06
8.47795e-06
8.18191e-06
7.8908e-06
7.60889e-06
7.3331e-06
7.07327e-06
6.82696e-06
6.59408e-06
6.37168e-06
6.16222e-06
5.96186e-06
5.77388e-06
5.59407e-06
5.42554e-06
5.26494e-06
5.11301e-06
4.96983e-06
4.83272e-06
4.70576e-06
4.58161e-06
4.46885e-06
4.35644e-06
4.25564e-06
4.15443e-06
4.06336e-06
3.97312e-06
3.88995e-06
3.81028e-06
3.73388e-06
3.66413e-06
3.59386e-06
3.53347e-06
3.46919e-06
3.41789e-06
3.35978e-06
3.31842e-06
3.2738e-06
3.23282e-06
3.26614e-06
3.25646e-06
2.0171e-05
1.86796e-05
8.71088e-06
5.53929e-06
5.62648e-06
5.926e-06
6.28144e-06
6.56479e-06
6.74248e-06
6.85032e-06
6.86948e-06
6.85023e-06
6.7984e-06
6.71068e-06
6.6007e-06
6.48043e-06
6.34422e-06
6.20371e-06
6.06224e-06
5.92202e-06
5.78233e-06
5.64681e-06
5.5135e-06
5.38519e-06
5.26027e-06
5.13998e-06
5.0271e-06
4.91464e-06
4.81139e-06
4.70574e-06
4.61125e-06
4.51252e-06
4.42593e-06
4.3344e-06
4.25476e-06
4.17053e-06
4.09719e-06
4.01996e-06
3.9527e-06
3.88178e-06
3.82067e-06
3.75528e-06
3.70099e-06
3.63979e-06
3.5933e-06
3.5344e-06
3.50185e-06
3.43751e-06
3.44727e-06
3.43015e-06
2.01668e-05
1.97249e-05
1.61791e-05
4.87859e-06
3.04252e-06
3.10255e-06
3.36636e-06
3.79359e-06
4.15645e-06
4.47193e-06
4.71752e-06
4.90572e-06
5.04543e-06
5.14498e-06
5.20369e-06
5.23928e-06
5.24359e-06
5.23535e-06
5.21401e-06
5.1763e-06
5.12919e-06
5.07496e-06
5.0156e-06
4.95153e-06
4.88581e-06
4.81538e-06
4.74662e-06
4.67201e-06
4.60369e-06
4.52877e-06
4.46268e-06
4.38909e-06
4.32605e-06
4.25462e-06
4.19501e-06
4.12639e-06
4.07052e-06
4.00481e-06
3.95311e-06
3.89004e-06
3.84342e-06
3.78231e-06
3.74092e-06
3.68078e-06
3.64477e-06
3.58413e-06
3.55383e-06
3.48739e-06
3.48186e-06
3.4586e-06
2.01473e-05
1.99346e-05
1.90694e-05
1.45185e-05
5.2766e-06
2.15969e-06
1.91403e-06
1.99039e-06
2.19907e-06
2.4946e-06
2.76783e-06
3.01809e-06
3.24075e-06
3.43549e-06
3.59797e-06
3.73494e-06
3.84576e-06
3.93375e-06
4.00464e-06
4.05722e-06
4.09588e-06
4.12019e-06
4.13588e-06
4.13894e-06
4.1362e-06
4.1275e-06
4.11499e-06
4.0927e-06
4.07211e-06
4.04217e-06
4.01567e-06
3.98044e-06
3.95031e-06
3.91077e-06
3.87925e-06
3.83667e-06
3.80465e-06
3.75992e-06
3.7282e-06
3.68164e-06
3.65075e-06
3.60236e-06
3.57301e-06
3.52304e-06
3.49561e-06
3.44438e-06
3.41782e-06
3.35919e-06
3.34629e-06
3.31793e-06
2.01213e-05
1.99663e-05
1.96443e-05
1.85537e-05
1.52391e-05
8.4191e-06
3.14452e-06
1.6389e-06
1.4431e-06
1.44761e-06
1.52105e-06
1.67713e-06
1.85687e-06
2.03129e-06
2.19902e-06
2.35594e-06
2.50136e-06
2.63086e-06
2.74788e-06
2.85028e-06
2.94128e-06
3.01854e-06
3.08667e-06
3.14251e-06
3.19101e-06
3.22888e-06
3.26292e-06
3.28637e-06
3.30736e-06
3.31981e-06
3.32971e-06
3.3341e-06
3.33402e-06
3.33149e-06
3.32691e-06
3.31635e-06
3.30822e-06
3.29135e-06
3.28031e-06
3.25828e-06
3.24473e-06
3.21805e-06
3.20242e-06
3.17144e-06
3.15368e-06
3.11825e-06
3.09796e-06
3.05283e-06
3.03755e-06
3.00897e-06
2.00979e-05
1.99328e-05
1.97587e-05
1.93568e-05
1.85164e-05
1.65622e-05
1.23909e-05
6.94126e-06
3.04282e-06
1.50696e-06
1.24603e-06
1.1476e-06
1.14948e-06
1.18873e-06
1.27719e-06
1.38135e-06
1.49205e-06
1.59935e-06
1.70764e-06
1.81041e-06
1.90925e-06
2.00011e-06
2.08617e-06
2.16326e-06
2.23627e-06
2.29979e-06
2.3602e-06
2.41163e-06
2.46008e-06
2.50076e-06
2.53846e-06
2.56953e-06
2.59811e-06
2.61993e-06
2.64119e-06
2.6551e-06
2.66933e-06
2.67697e-06
2.68412e-06
2.68689e-06
2.68671e-06
2.68444e-06
2.68027e-06
2.67076e-06
2.66253e-06
2.64506e-06
2.63266e-06
2.60398e-06
2.59041e-06
2.56422e-06
2.00779e-05
1.98877e-05
1.97582e-05
1.94651e-05
1.91523e-05
1.8652e-05
1.75796e-05
1.54688e-05
1.18281e-05
7.55476e-06
4.07397e-06
1.96505e-06
1.22129e-06
1.06047e-06
9.85398e-07
9.40647e-07
9.49836e-07
9.80193e-07
1.04054e-06
1.10195e-06
1.16959e-06
1.23704e-06
1.30643e-06
1.37358e-06
1.44164e-06
1.50434e-06
1.56698e-06
1.62357e-06
1.67951e-06
1.72943e-06
1.77843e-06
1.82137e-06
1.86337e-06
1.89924e-06
1.93436e-06
1.96355e-06
1.99175e-06
2.01506e-06
2.03625e-06
2.05377e-06
2.06855e-06
2.07989e-06
2.08822e-06
2.09369e-06
2.09444e-06
2.09239e-06
2.08773e-06
2.07482e-06
2.06505e-06
2.04534e-06
2.00611e-05
1.98541e-05
1.97356e-05
1.94753e-05
1.92614e-05
1.90544e-05
1.8747e-05
1.82084e-05
1.7132e-05
1.52895e-05
1.26686e-05
9.37194e-06
6.11748e-06
3.59557e-06
1.95595e-06
1.19598e-06
9.72044e-07
8.94985e-07
8.41141e-07
7.95977e-07
7.95652e-07
8.06579e-07
8.33189e-07
8.6949e-07
9.08929e-07
9.48227e-07
9.9164e-07
1.03306e-06
1.07765e-06
1.11942e-06
1.16274e-06
1.20232e-06
1.24232e-06
1.27857e-06
1.31471e-06
1.34695e-06
1.37866e-06
1.40685e-06
1.43364e-06
1.45699e-06
1.4788e-06
1.49696e-06
1.51297e-06
1.5254e-06
1.53509e-06
1.54099e-06
1.54283e-06
1.54038e-06
1.53504e-06
1.52287e-06
2.00473e-05
1.98306e-05
1.97092e-05
1.94533e-05
1.92785e-05
1.91221e-05
1.89741e-05
1.87606e-05
1.84771e-05
1.79356e-05
1.71148e-05
1.57694e-05
1.39794e-05
1.16773e-05
9.03339e-06
6.43733e-06
4.24141e-06
2.63451e-06
1.58876e-06
1.06783e-06
8.76151e-07
8.06588e-07
7.58556e-07
7.16571e-07
6.84954e-07
6.76044e-07
6.80358e-07
6.91297e-07
7.12187e-07
7.33063e-07
7.57092e-07
7.79646e-07
8.04937e-07
8.29593e-07
8.55561e-07
8.80356e-07
9.05796e-07
9.29556e-07
9.52988e-07
9.73979e-07
9.94651e-07
1.01215e-06
1.02922e-06
1.04222e-06
1.05523e-06
1.06279e-06
1.07053e-06
1.07125e-06
1.06959e-06
1.06373e-06
2.0036e-05
1.98128e-05
1.96868e-05
1.94235e-05
1.92648e-05
1.91163e-05
1.90088e-05
1.8859e-05
1.87225e-05
1.85141e-05
1.82642e-05
1.78582e-05
1.72716e-05
1.64205e-05
1.52552e-05
1.37499e-05
1.19896e-05
9.94784e-06
7.82821e-06
5.8357e-06
4.12832e-06
2.81529e-06
1.8572e-06
1.24386e-06
9.24499e-07
7.85517e-07
7.24228e-07
6.85866e-07
6.51422e-07
6.18983e-07
5.96796e-07
5.82285e-07
5.82273e-07
5.85272e-07
5.92675e-07
6.03181e-07
6.15147e-07
6.26981e-07
6.3901e-07
6.50524e-07
6.62265e-07
6.73354e-07
6.84561e-07
6.94328e-07
7.03805e-07
7.10812e-07
7.16408e-07
7.19669e-07
7.19267e-07
7.17289e-07
2.00269e-05
1.97989e-05
1.96678e-05
1.94022e-05
1.92394e-05
1.90897e-05
1.89912e-05
1.88627e-05
1.87469e-05
1.86077e-05
1.8473e-05
1.83034e-05
1.81007e-05
1.7818e-05
1.74456e-05
1.6915e-05
1.62313e-05
1.5337e-05
1.42355e-05
1.29255e-05
1.14748e-05
9.85742e-06
8.18247e-06
6.55936e-06
5.07769e-06
3.8094e-06
2.79596e-06
2.0068e-06
1.43036e-06
1.05254e-06
8.36671e-07
7.24345e-07
6.67246e-07
6.32348e-07
6.05429e-07
5.80389e-07
5.57089e-07
5.3718e-07
5.22144e-07
5.1273e-07
5.07259e-07
5.07248e-07
5.08406e-07
5.11344e-07
5.15281e-07
5.21643e-07
5.27105e-07
5.3537e-07
5.4083e-07
5.50015e-07
2.00198e-05
1.97907e-05
1.96472e-05
1.93864e-05
1.9216e-05
1.90614e-05
1.89544e-05
1.8837e-05
1.87263e-05
1.86013e-05
1.8485e-05
1.83582e-05
1.82365e-05
1.80934e-05
1.79411e-05
1.7745e-05
1.75092e-05
1.71988e-05
1.681e-05
1.63065e-05
1.56941e-05
1.49486e-05
1.40671e-05
1.30581e-05
1.19415e-05
1.07476e-05
9.46931e-06
8.16843e-06
6.89536e-06
5.70143e-06
4.62208e-06
3.68277e-06
2.90427e-06
2.26688e-06
1.7569e-06
1.36637e-06
1.0842e-06
8.93811e-07
7.72765e-07
6.98816e-07
6.53835e-07
6.26114e-07
6.07712e-07
5.95062e-07
5.86848e-07
5.86484e-07
5.88846e-07
5.95783e-07
6.06826e-07
6.2946e-07
2.00143e-05
1.97907e-05
1.96211e-05
1.93732e-05
1.91964e-05
1.90355e-05
1.89199e-05
1.88019e-05
1.86878e-05
1.85668e-05
1.84554e-05
1.83375e-05
1.82271e-05
1.81083e-05
1.79964e-05
1.78752e-05
1.77527e-05
1.76127e-05
1.74569e-05
1.72696e-05
1.7046e-05
1.67751e-05
1.64459e-05
1.60505e-05
1.55789e-05
1.50323e-05
1.4403e-05
1.36914e-05
1.29037e-05
1.20524e-05
1.115e-05
1.02191e-05
9.25252e-06
8.28397e-06
7.33735e-06
6.43707e-06
5.60004e-06
4.84261e-06
4.17104e-06
3.58915e-06
3.09825e-06
2.69152e-06
2.3591e-06
2.09616e-06
1.8977e-06
1.75866e-06
1.67176e-06
1.63073e-06
1.63207e-06
1.64205e-06
2.001e-05
1.97947e-05
1.95947e-05
1.93597e-05
1.91786e-05
1.9011e-05
1.88879e-05
1.87674e-05
1.86495e-05
1.85258e-05
1.84113e-05
1.82934e-05
1.81837e-05
1.80717e-05
1.79649e-05
1.78567e-05
1.77498e-05
1.76426e-05
1.75351e-05
1.74258e-05
1.73095e-05
1.71857e-05
1.70466e-05
1.68908e-05
1.67102e-05
1.65027e-05
1.62609e-05
1.59828e-05
1.56608e-05
1.52961e-05
1.4883e-05
1.44273e-05
1.39252e-05
1.33811e-05
1.2799e-05
1.21872e-05
1.15533e-05
1.09099e-05
1.02626e-05
9.63132e-06
9.01113e-06
8.42585e-06
7.87991e-06
7.39035e-06
6.95757e-06
6.59318e-06
6.2952e-06
6.07882e-06
5.93222e-06
5.85397e-06
2.00069e-05
1.98018e-05
1.95706e-05
1.93467e-05
1.9162e-05
1.89884e-05
1.88576e-05
1.87347e-05
1.86125e-05
1.84864e-05
1.83667e-05
1.82475e-05
1.81334e-05
1.80202e-05
1.79105e-05
1.78034e-05
1.76984e-05
1.75978e-05
1.74959e-05
1.73995e-05
1.72994e-05
1.72034e-05
1.71044e-05
1.70079e-05
1.69056e-05
1.68022e-05
1.66888e-05
1.65695e-05
1.64355e-05
1.629e-05
1.61255e-05
1.59454e-05
1.57428e-05
1.55206e-05
1.5275e-05
1.50073e-05
1.47177e-05
1.44083e-05
1.40803e-05
1.37409e-05
1.33879e-05
1.3034e-05
1.26793e-05
1.23327e-05
1.20078e-05
1.17059e-05
1.14432e-05
1.12174e-05
1.1044e-05
1.09227e-05
2.00045e-05
1.98101e-05
1.95479e-05
1.93339e-05
1.9146e-05
1.89677e-05
1.88286e-05
1.87036e-05
1.85771e-05
1.84489e-05
1.83241e-05
1.82029e-05
1.80841e-05
1.79692e-05
1.78552e-05
1.77468e-05
1.76371e-05
1.75348e-05
1.74302e-05
1.73337e-05
1.72344e-05
1.71435e-05
1.70495e-05
1.69621e-05
1.68718e-05
1.6787e-05
1.66974e-05
1.66136e-05
1.65259e-05
1.64409e-05
1.63508e-05
1.62617e-05
1.61653e-05
1.60668e-05
1.59605e-05
1.58485e-05
1.57285e-05
1.56006e-05
1.54654e-05
1.53224e-05
1.5171e-05
1.50155e-05
1.48558e-05
1.46909e-05
1.45299e-05
1.43688e-05
1.42193e-05
1.40779e-05
1.39557e-05
1.38562e-05
2.00028e-05
1.98187e-05
1.95269e-05
1.93207e-05
1.91299e-05
1.89487e-05
1.8801e-05
1.86739e-05
1.85437e-05
1.84135e-05
1.82841e-05
1.81605e-05
1.80375e-05
1.79205e-05
1.78024e-05
1.76919e-05
1.75784e-05
1.74737e-05
1.73657e-05
1.72668e-05
1.71636e-05
1.70696e-05
1.69723e-05
1.68834e-05
1.67914e-05
1.67078e-05
1.66218e-05
1.65433e-05
1.64618e-05
1.63865e-05
1.63089e-05
1.62373e-05
1.6162e-05
1.60915e-05
1.60201e-05
1.59518e-05
1.58816e-05
1.58128e-05
1.57441e-05
1.56737e-05
1.56016e-05
1.55302e-05
1.54571e-05
1.53815e-05
1.53051e-05
1.52289e-05
1.51522e-05
1.50766e-05
1.50036e-05
1.49384e-05
2.00016e-05
1.9827e-05
1.95076e-05
1.93066e-05
1.91136e-05
1.89311e-05
1.87751e-05
1.86456e-05
1.85123e-05
1.83804e-05
1.82469e-05
1.81209e-05
1.79944e-05
1.78749e-05
1.77535e-05
1.76404e-05
1.75239e-05
1.74162e-05
1.73056e-05
1.72038e-05
1.70977e-05
1.70008e-05
1.69004e-05
1.68084e-05
1.67133e-05
1.66263e-05
1.65363e-05
1.64547e-05
1.63705e-05
1.62932e-05
1.62145e-05
1.61434e-05
1.60711e-05
1.60048e-05
1.59384e-05
1.58776e-05
1.58151e-05
1.57582e-05
1.57025e-05
1.56489e-05
1.55946e-05
1.55457e-05
1.54962e-05
1.54483e-05
1.53994e-05
1.53548e-05
1.5307e-05
1.52606e-05
1.52121e-05
1.51674e-05
2.00008e-05
1.98308e-05
1.94912e-05
1.92919e-05
1.90974e-05
1.89153e-05
1.87514e-05
1.86191e-05
1.84833e-05
1.83499e-05
1.82132e-05
1.80847e-05
1.79554e-05
1.78334e-05
1.77093e-05
1.75936e-05
1.74744e-05
1.73639e-05
1.72511e-05
1.71464e-05
1.70378e-05
1.69383e-05
1.68351e-05
1.67407e-05
1.66428e-05
1.65531e-05
1.64601e-05
1.63757e-05
1.62883e-05
1.62081e-05
1.61263e-05
1.60523e-05
1.59765e-05
1.59072e-05
1.58383e-05
1.57764e-05
1.57121e-05
1.56554e-05
1.55999e-05
1.55484e-05
1.54959e-05
1.54505e-05
1.54047e-05
1.53617e-05
1.53177e-05
1.52805e-05
1.52399e-05
1.52022e-05
1.51626e-05
1.51273e-05
2.00002e-05
1.98291e-05
1.94781e-05
1.92767e-05
1.90814e-05
1.89016e-05
1.87304e-05
1.85948e-05
1.84572e-05
1.83226e-05
1.81833e-05
1.80526e-05
1.79209e-05
1.77968e-05
1.76703e-05
1.75525e-05
1.74308e-05
1.7318e-05
1.7203e-05
1.7096e-05
1.69849e-05
1.68832e-05
1.67776e-05
1.66812e-05
1.65807e-05
1.64888e-05
1.63935e-05
1.63069e-05
1.62169e-05
1.61347e-05
1.60503e-05
1.59742e-05
1.58959e-05
1.58244e-05
1.5753e-05
1.56895e-05
1.56227e-05
1.55647e-05
1.55073e-05
1.54546e-05
1.54003e-05
1.53542e-05
1.53079e-05
1.52645e-05
1.52203e-05
1.51834e-05
1.51432e-05
1.51061e-05
1.50679e-05
1.50342e-05
1.99999e-05
1.98273e-05
1.94669e-05
1.92599e-05
1.90646e-05
1.88892e-05
1.87119e-05
1.85729e-05
1.8434e-05
1.82989e-05
1.81575e-05
1.80251e-05
1.78914e-05
1.77658e-05
1.76373e-05
1.75179e-05
1.73939e-05
1.72795e-05
1.71625e-05
1.70536e-05
1.69404e-05
1.68368e-05
1.6729e-05
1.66308e-05
1.65282e-05
1.64344e-05
1.63372e-05
1.62488e-05
1.61567e-05
1.60728e-05
1.59865e-05
1.59087e-05
1.58288e-05
1.57558e-05
1.56829e-05
1.56185e-05
1.555e-05
1.54913e-05
1.5433e-05
1.53793e-05
1.53242e-05
1.52773e-05
1.52304e-05
1.51861e-05
1.51416e-05
1.51042e-05
1.50635e-05
1.50259e-05
1.49878e-05
1.49547e-05
1.99999e-05
1.98259e-05
1.94585e-05
1.92426e-05
1.9048e-05
1.88785e-05
1.86966e-05
1.8554e-05
1.84141e-05
1.82791e-05
1.81363e-05
1.80029e-05
1.78675e-05
1.77411e-05
1.7611e-05
1.74906e-05
1.73648e-05
1.72493e-05
1.71305e-05
1.70203e-05
1.69053e-05
1.68002e-05
1.66907e-05
1.6591e-05
1.64866e-05
1.63912e-05
1.62925e-05
1.62023e-05
1.61085e-05
1.60234e-05
1.59354e-05
1.58565e-05
1.57754e-05
1.57014e-05
1.56276e-05
1.55625e-05
1.54933e-05
1.54345e-05
1.53757e-05
1.53217e-05
1.52666e-05
1.52194e-05
1.51723e-05
1.51278e-05
1.50835e-05
1.50459e-05
1.50049e-05
1.49671e-05
1.49291e-05
1.48963e-05
1.99999e-05
1.9825e-05
1.94529e-05
1.92259e-05
1.90321e-05
1.88697e-05
1.8685e-05
1.85389e-05
1.83982e-05
1.8264e-05
1.81205e-05
1.79867e-05
1.785e-05
1.77234e-05
1.75924e-05
1.74714e-05
1.73443e-05
1.72283e-05
1.71081e-05
1.69971e-05
1.68807e-05
1.67746e-05
1.66637e-05
1.65629e-05
1.64571e-05
1.63604e-05
1.62606e-05
1.6169e-05
1.60739e-05
1.59878e-05
1.58985e-05
1.58188e-05
1.57366e-05
1.5662e-05
1.55877e-05
1.5522e-05
1.54528e-05
1.53942e-05
1.53352e-05
1.52812e-05
1.52268e-05
1.51799e-05
1.51325e-05
1.50882e-05
1.50446e-05
1.50067e-05
1.49654e-05
1.49278e-05
1.48898e-05
1.48572e-05
1.99999e-05
1.98244e-05
1.94498e-05
1.92107e-05
1.90177e-05
1.88628e-05
1.86776e-05
1.8528e-05
1.83868e-05
1.82538e-05
1.81105e-05
1.79769e-05
1.78396e-05
1.77133e-05
1.7582e-05
1.74609e-05
1.73332e-05
1.72172e-05
1.70962e-05
1.69849e-05
1.68676e-05
1.6761e-05
1.66492e-05
1.65477e-05
1.6441e-05
1.63435e-05
1.62427e-05
1.61501e-05
1.60542e-05
1.59672e-05
1.58769e-05
1.57968e-05
1.57137e-05
1.5639e-05
1.55645e-05
1.54983e-05
1.54297e-05
1.53716e-05
1.53125e-05
1.52587e-05
1.52052e-05
1.5159e-05
1.51113e-05
1.50679e-05
1.50253e-05
1.49872e-05
1.4946e-05
1.4909e-05
1.48716e-05
1.48393e-05
1.99999e-05
1.98241e-05
1.9449e-05
1.91976e-05
1.90051e-05
1.88576e-05
1.86743e-05
1.85217e-05
1.83802e-05
1.82489e-05
1.81067e-05
1.79739e-05
1.78367e-05
1.77114e-05
1.75805e-05
1.746e-05
1.73325e-05
1.7217e-05
1.70957e-05
1.69848e-05
1.68671e-05
1.67606e-05
1.66482e-05
1.65466e-05
1.64392e-05
1.63416e-05
1.624e-05
1.61469e-05
1.60505e-05
1.59629e-05
1.5872e-05
1.57919e-05
1.5708e-05
1.56337e-05
1.55591e-05
1.54926e-05
1.5425e-05
1.53675e-05
1.53084e-05
1.52552e-05
1.52029e-05
1.51572e-05
1.51093e-05
1.50667e-05
1.50248e-05
1.49864e-05
1.49449e-05
1.49083e-05
1.48711e-05
1.48388e-05
1.99999e-05
1.98243e-05
1.94503e-05
1.91873e-05
1.89945e-05
1.88538e-05
1.8675e-05
1.85202e-05
1.83785e-05
1.82494e-05
1.8109e-05
1.79776e-05
1.78411e-05
1.77171e-05
1.75871e-05
1.74676e-05
1.73408e-05
1.72262e-05
1.71053e-05
1.6995e-05
1.68775e-05
1.67716e-05
1.66591e-05
1.65579e-05
1.64503e-05
1.63533e-05
1.6251e-05
1.61583e-05
1.60618e-05
1.59739e-05
1.58832e-05
1.58031e-05
1.57191e-05
1.56455e-05
1.55709e-05
1.55046e-05
1.54384e-05
1.53816e-05
1.53226e-05
1.52705e-05
1.52194e-05
1.51742e-05
1.51265e-05
1.50848e-05
1.50435e-05
1.50048e-05
1.49631e-05
1.49267e-05
1.48897e-05
1.48571e-05
1.99999e-05
1.98249e-05
1.94537e-05
1.91802e-05
1.89862e-05
1.88515e-05
1.86793e-05
1.85231e-05
1.83813e-05
1.82544e-05
1.81167e-05
1.79875e-05
1.78524e-05
1.77306e-05
1.76022e-05
1.74846e-05
1.73594e-05
1.72464e-05
1.71265e-05
1.70176e-05
1.69009e-05
1.67961e-05
1.6684e-05
1.65837e-05
1.64763e-05
1.63802e-05
1.62775e-05
1.61855e-05
1.60891e-05
1.60012e-05
1.59109e-05
1.58309e-05
1.5747e-05
1.56745e-05
1.55998e-05
1.55343e-05
1.54697e-05
1.54135e-05
1.53549e-05
1.53042e-05
1.52542e-05
1.52095e-05
1.51623e-05
1.51214e-05
1.50804e-05
1.50416e-05
1.49998e-05
1.49635e-05
1.49265e-05
1.48936e-05
1.99999e-05
1.98259e-05
1.9459e-05
1.91763e-05
1.89806e-05
1.88503e-05
1.86868e-05
1.85308e-05
1.83888e-05
1.82647e-05
1.81302e-05
1.8004e-05
1.7871e-05
1.77519e-05
1.76257e-05
1.75107e-05
1.73875e-05
1.72767e-05
1.71585e-05
1.70516e-05
1.69363e-05
1.68331e-05
1.67222e-05
1.66233e-05
1.65167e-05
1.64219e-05
1.63195e-05
1.62288e-05
1.61326e-05
1.60453e-05
1.59558e-05
1.58761e-05
1.5793e-05
1.57215e-05
1.5647e-05
1.55826e-05
1.55196e-05
1.54641e-05
1.5406e-05
1.53569e-05
1.53079e-05
1.52637e-05
1.52171e-05
1.5177e-05
1.51358e-05
1.50968e-05
1.50551e-05
1.50187e-05
1.49813e-05
1.49479e-05
1.99999e-05
1.98273e-05
1.94655e-05
1.91758e-05
1.89774e-05
1.88504e-05
1.86967e-05
1.85427e-05
1.84007e-05
1.82795e-05
1.81486e-05
1.8026e-05
1.78957e-05
1.77797e-05
1.76563e-05
1.75445e-05
1.7424e-05
1.7316e-05
1.72e-05
1.70957e-05
1.69823e-05
1.68812e-05
1.67722e-05
1.66749e-05
1.65699e-05
1.64766e-05
1.63752e-05
1.62861e-05
1.61903e-05
1.61045e-05
1.60158e-05
1.59367e-05
1.58549e-05
1.57845e-05
1.57103e-05
1.56476e-05
1.55861e-05
1.55313e-05
1.54743e-05
1.54268e-05
1.53784e-05
1.53349e-05
1.52892e-05
1.52496e-05
1.52081e-05
1.51689e-05
1.51272e-05
1.50906e-05
1.50524e-05
1.50182e-05
1.99999e-05
1.98291e-05
1.94734e-05
1.91782e-05
1.89766e-05
1.88517e-05
1.87083e-05
1.85579e-05
1.84163e-05
1.8298e-05
1.81709e-05
1.80527e-05
1.79256e-05
1.78133e-05
1.76931e-05
1.7585e-05
1.74676e-05
1.7363e-05
1.72497e-05
1.71485e-05
1.70377e-05
1.69391e-05
1.68325e-05
1.67373e-05
1.66344e-05
1.65428e-05
1.64431e-05
1.63557e-05
1.62608e-05
1.61768e-05
1.60891e-05
1.6011e-05
1.59308e-05
1.58614e-05
1.57879e-05
1.57273e-05
1.5667e-05
1.5613e-05
1.55575e-05
1.55115e-05
1.54636e-05
1.54209e-05
1.53762e-05
1.53369e-05
1.52948e-05
1.52554e-05
1.52138e-05
1.51768e-05
1.51376e-05
1.51022e-05
1.99999e-05
1.98312e-05
1.94818e-05
1.91839e-05
1.89785e-05
1.88546e-05
1.87212e-05
1.85762e-05
1.84352e-05
1.83197e-05
1.81966e-05
1.80832e-05
1.79598e-05
1.78515e-05
1.7735e-05
1.7631e-05
1.75171e-05
1.74165e-05
1.73062e-05
1.72088e-05
1.71007e-05
1.70054e-05
1.69013e-05
1.68089e-05
1.67083e-05
1.66187e-05
1.65215e-05
1.64358e-05
1.63422e-05
1.62605e-05
1.61737e-05
1.6097e-05
1.60185e-05
1.59501e-05
1.58777e-05
1.58192e-05
1.57599e-05
1.57069e-05
1.56532e-05
1.56085e-05
1.55609e-05
1.55192e-05
1.54753e-05
1.54361e-05
1.53936e-05
1.5354e-05
1.53123e-05
1.52746e-05
1.52342e-05
1.51973e-05
1.99999e-05
1.98336e-05
1.94907e-05
1.9192e-05
1.89828e-05
1.88593e-05
1.87348e-05
1.85968e-05
1.84572e-05
1.83443e-05
1.82251e-05
1.81167e-05
1.79975e-05
1.78934e-05
1.77808e-05
1.76814e-05
1.75714e-05
1.74751e-05
1.73683e-05
1.72748e-05
1.717e-05
1.70785e-05
1.69769e-05
1.68881e-05
1.67898e-05
1.67028e-05
1.66082e-05
1.65243e-05
1.64327e-05
1.63531e-05
1.62673e-05
1.61926e-05
1.61157e-05
1.60481e-05
1.59774e-05
1.59208e-05
1.58621e-05
1.58106e-05
1.57586e-05
1.57148e-05
1.56677e-05
1.56271e-05
1.55839e-05
1.55445e-05
1.55015e-05
1.54619e-05
1.54199e-05
1.53813e-05
1.53394e-05
1.53009e-05
1.99999e-05
1.98361e-05
1.94997e-05
1.92021e-05
1.89895e-05
1.88656e-05
1.87489e-05
1.86189e-05
1.84814e-05
1.8371e-05
1.82556e-05
1.81524e-05
1.80376e-05
1.79382e-05
1.78296e-05
1.77349e-05
1.7629e-05
1.75374e-05
1.74344e-05
1.73453e-05
1.7244e-05
1.71565e-05
1.70577e-05
1.69728e-05
1.68769e-05
1.67932e-05
1.67012e-05
1.66194e-05
1.65301e-05
1.64525e-05
1.63679e-05
1.62955e-05
1.62198e-05
1.61533e-05
1.60846e-05
1.60293e-05
1.59712e-05
1.59215e-05
1.5871e-05
1.58279e-05
1.57813e-05
1.57418e-05
1.56991e-05
1.56595e-05
1.56158e-05
1.55762e-05
1.5534e-05
1.54943e-05
1.54508e-05
1.54105e-05
1.99999e-05
1.98386e-05
1.95086e-05
1.92136e-05
1.89983e-05
1.88735e-05
1.8763e-05
1.86419e-05
1.85073e-05
1.83994e-05
1.82875e-05
1.81895e-05
1.80793e-05
1.79847e-05
1.78803e-05
1.77906e-05
1.7689e-05
1.76022e-05
1.75033e-05
1.74185e-05
1.73212e-05
1.72378e-05
1.71423e-05
1.70614e-05
1.69681e-05
1.6888e-05
1.67983e-05
1.67192e-05
1.66324e-05
1.65565e-05
1.64735e-05
1.64033e-05
1.63284e-05
1.62633e-05
1.61966e-05
1.61421e-05
1.60847e-05
1.60371e-05
1.59877e-05
1.59451e-05
1.58993e-05
1.58606e-05
1.58182e-05
1.57785e-05
1.57343e-05
1.56945e-05
1.56517e-05
1.5611e-05
1.5566e-05
1.55239e-05
1.99999e-05
1.98412e-05
1.95172e-05
1.92261e-05
1.9009e-05
1.88831e-05
1.87771e-05
1.86651e-05
1.85344e-05
1.8429e-05
1.83202e-05
1.82273e-05
1.81218e-05
1.80322e-05
1.7932e-05
1.78473e-05
1.77501e-05
1.76684e-05
1.75736e-05
1.74935e-05
1.74003e-05
1.7321e-05
1.72292e-05
1.71519e-05
1.70618e-05
1.69855e-05
1.68978e-05
1.6822e-05
1.67375e-05
1.66633e-05
1.65822e-05
1.65139e-05
1.64395e-05
1.63762e-05
1.6311e-05
1.62572e-05
1.62004e-05
1.61548e-05
1.61063e-05
1.6064e-05
1.60192e-05
1.59812e-05
1.59388e-05
1.5899e-05
1.58546e-05
1.58145e-05
1.57705e-05
1.57288e-05
1.56828e-05
1.56392e-05
1.99999e-05
1.98437e-05
1.95254e-05
1.92391e-05
1.90211e-05
1.8894e-05
1.87912e-05
1.86879e-05
1.85619e-05
1.84592e-05
1.83533e-05
1.82652e-05
1.81644e-05
1.80798e-05
1.79838e-05
1.79043e-05
1.78115e-05
1.77348e-05
1.76442e-05
1.7569e-05
1.74797e-05
1.74049e-05
1.73169e-05
1.72432e-05
1.71567e-05
1.70838e-05
1.69984e-05
1.69261e-05
1.68435e-05
1.67713e-05
1.66922e-05
1.66251e-05
1.65515e-05
1.64901e-05
1.64257e-05
1.63725e-05
1.63165e-05
1.62726e-05
1.62243e-05
1.61828e-05
1.6139e-05
1.61012e-05
1.60588e-05
1.60191e-05
1.59746e-05
1.59342e-05
1.58887e-05
1.58458e-05
1.57989e-05
1.57543e-05
1.99999e-05
1.98461e-05
1.95331e-05
1.92521e-05
1.90343e-05
1.89059e-05
1.88051e-05
1.871e-05
1.85893e-05
1.84896e-05
1.83863e-05
1.83027e-05
1.82064e-05
1.81268e-05
1.80352e-05
1.79606e-05
1.78722e-05
1.78007e-05
1.77142e-05
1.76441e-05
1.75585e-05
1.74886e-05
1.74039e-05
1.73341e-05
1.72512e-05
1.71816e-05
1.70991e-05
1.70298e-05
1.69489e-05
1.68792e-05
1.68017e-05
1.67354e-05
1.66628e-05
1.6603e-05
1.65388e-05
1.64863e-05
1.64312e-05
1.63881e-05
1.634e-05
1.63e-05
1.62568e-05
1.62189e-05
1.61764e-05
1.61369e-05
1.60927e-05
1.60515e-05
1.60044e-05
1.59608e-05
1.59128e-05
1.58669e-05
1.99999e-05
1.98483e-05
1.95401e-05
1.92649e-05
1.90479e-05
1.89186e-05
1.88189e-05
1.87309e-05
1.8616e-05
1.85197e-05
1.84188e-05
1.83392e-05
1.82473e-05
1.81727e-05
1.80852e-05
1.80157e-05
1.79316e-05
1.78651e-05
1.7783e-05
1.77177e-05
1.7636e-05
1.75709e-05
1.74895e-05
1.7424e-05
1.73442e-05
1.72781e-05
1.71986e-05
1.71319e-05
1.70528e-05
1.69858e-05
1.69092e-05
1.68438e-05
1.67722e-05
1.67133e-05
1.66492e-05
1.65973e-05
1.65431e-05
1.65e-05
1.64524e-05
1.64137e-05
1.63707e-05
1.63329e-05
1.62902e-05
1.62515e-05
1.62071e-05
1.61649e-05
1.61167e-05
1.60724e-05
1.60231e-05
1.59758e-05
1.99999e-05
1.98503e-05
1.95464e-05
1.92769e-05
1.90616e-05
1.89317e-05
1.88324e-05
1.87506e-05
1.86416e-05
1.8549e-05
1.84503e-05
1.83745e-05
1.82866e-05
1.8217e-05
1.81336e-05
1.8069e-05
1.79891e-05
1.79275e-05
1.78496e-05
1.77892e-05
1.77114e-05
1.76509e-05
1.7573e-05
1.75118e-05
1.74346e-05
1.73724e-05
1.72958e-05
1.72316e-05
1.71545e-05
1.70896e-05
1.70138e-05
1.69495e-05
1.68784e-05
1.68197e-05
1.67558e-05
1.67047e-05
1.66504e-05
1.66072e-05
1.65604e-05
1.65227e-05
1.64798e-05
1.64423e-05
1.63996e-05
1.63614e-05
1.63166e-05
1.62737e-05
1.62247e-05
1.61794e-05
1.61288e-05
1.608e-05
1.99999e-05
1.98519e-05
1.95519e-05
1.9288e-05
1.90749e-05
1.89447e-05
1.88455e-05
1.87689e-05
1.86658e-05
1.85771e-05
1.84807e-05
1.84082e-05
1.83241e-05
1.82593e-05
1.81798e-05
1.812e-05
1.80442e-05
1.79876e-05
1.79136e-05
1.78582e-05
1.77842e-05
1.77281e-05
1.76538e-05
1.75967e-05
1.75224e-05
1.74639e-05
1.73898e-05
1.73284e-05
1.72533e-05
1.71899e-05
1.71149e-05
1.70518e-05
1.69805e-05
1.69216e-05
1.6858e-05
1.68073e-05
1.67525e-05
1.67094e-05
1.66632e-05
1.66261e-05
1.65834e-05
1.65464e-05
1.65037e-05
1.64656e-05
1.64205e-05
1.63773e-05
1.63276e-05
1.62811e-05
1.62291e-05
1.6179e-05
1.99999e-05
1.98533e-05
1.95565e-05
1.92978e-05
1.90873e-05
1.89575e-05
1.88581e-05
1.87857e-05
1.86883e-05
1.86037e-05
1.85096e-05
1.84402e-05
1.83595e-05
1.82993e-05
1.82236e-05
1.81684e-05
1.80966e-05
1.8045e-05
1.79747e-05
1.79243e-05
1.78539e-05
1.78024e-05
1.77314e-05
1.76783e-05
1.7607e-05
1.7552e-05
1.74801e-05
1.7422e-05
1.73483e-05
1.72864e-05
1.72121e-05
1.71498e-05
1.70781e-05
1.70189e-05
1.6955e-05
1.69041e-05
1.68489e-05
1.68062e-05
1.676e-05
1.67231e-05
1.6681e-05
1.66447e-05
1.66018e-05
1.65636e-05
1.65184e-05
1.64753e-05
1.64248e-05
1.63771e-05
1.63237e-05
1.62724e-05
1.99999e-05
1.98543e-05
1.956e-05
1.93061e-05
1.90986e-05
1.89695e-05
1.887e-05
1.88011e-05
1.87088e-05
1.86285e-05
1.85366e-05
1.84702e-05
1.83925e-05
1.83367e-05
1.82648e-05
1.82141e-05
1.81459e-05
1.80992e-05
1.80327e-05
1.7987e-05
1.79203e-05
1.78733e-05
1.78053e-05
1.77565e-05
1.7688e-05
1.76366e-05
1.75668e-05
1.75118e-05
1.74393e-05
1.73793e-05
1.73049e-05
1.7243e-05
1.71709e-05
1.71113e-05
1.70463e-05
1.6995e-05
1.69396e-05
1.6897e-05
1.68504e-05
1.68138e-05
1.67722e-05
1.67366e-05
1.66939e-05
1.66557e-05
1.66103e-05
1.65671e-05
1.65161e-05
1.64675e-05
1.64126e-05
1.63599e-05
1.99999e-05
1.9855e-05
1.95624e-05
1.93128e-05
1.91085e-05
1.89805e-05
1.88811e-05
1.88149e-05
1.87273e-05
1.86514e-05
1.85618e-05
1.8498e-05
1.84232e-05
1.83714e-05
1.83031e-05
1.82569e-05
1.81922e-05
1.81502e-05
1.80874e-05
1.80464e-05
1.79831e-05
1.79407e-05
1.78758e-05
1.78308e-05
1.77651e-05
1.77174e-05
1.76498e-05
1.75974e-05
1.75264e-05
1.74679e-05
1.73934e-05
1.73315e-05
1.72586e-05
1.71985e-05
1.7132e-05
1.70799e-05
1.70241e-05
1.69813e-05
1.69344e-05
1.68983e-05
1.68568e-05
1.6822e-05
1.678e-05
1.67419e-05
1.66959e-05
1.66527e-05
1.66015e-05
1.6552e-05
1.64956e-05
1.64415e-05
1.99999e-05
1.98552e-05
1.95635e-05
1.93176e-05
1.91165e-05
1.89902e-05
1.8891e-05
1.8827e-05
1.87436e-05
1.86719e-05
1.85847e-05
1.85234e-05
1.84511e-05
1.84032e-05
1.83383e-05