/*--------------------------------*- C++ -*----------------------------------*\
  =========                 |
  \\      /  F ield         | OpenFOAM: The Open Source CFD Toolbox
   \\    /   O peration     | Website:  https://openfoam.org
    \\  /    A nd           | Version:  7
     \\/     M anipulation  |
\*---------------------------------------------------------------------------*/
FoamFile
{
    version     2.0;
    format      ascii;
    class       volScalarField;
    location    "0.06";
    object      nut;
}
// * * * * * * * * * * * * * * * * * * * * * * * * * * * * * * * * * * * * * //

dimensions      [0 2 -1 0 0 0 0];

internalField   nonuniform List<scalar> 
70000
(
0
0
0
0
0
0
0
0
0
0
0
0
0
0
0
0
0
0
0
0
0
0
0
0
0
0
0
0
0
0
0
0
1.14459e-15
2.03702e-14
4.15526e-14
6.40211e-14
8.79723e-14
1.14633e-13
1.33912e-13
1.79144e-13
2.09276e-13
2.89003e-13
2.8488e-13
4.57605e-13
3.36978e-13
7.915e-13
2.62088e-13
1.94176e-12
0
0
0
0
0
0
0
0
0
0
0
0
0
0
0
0
0
0
0
0
0
0
0
0
0
0
0
0
0
0
0
0
0
0
2.28806e-14
5.68104e-14
9.45848e-14
1.34663e-13
1.77953e-13
2.27116e-13
2.66876e-13
3.37292e-13
3.90012e-13
5.45728e-13
5.34449e-13
8.68455e-13
6.20709e-13
1.51707e-12
4.57189e-13
3.8652e-12
1.17632e-12
0
0
0
0
0
0
0
0
0
0
0
0
0
0
0
0
0
0
0
0
0
0
0
0
0
0
0
0
0
0
0
0
0
1.16143e-14
5.05165e-14
9.45403e-14
1.41117e-13
1.92823e-13
2.54058e-13
3.11238e-13
3.89787e-13
4.2731e-13
6.28995e-13
5.93391e-13
1.05402e-12
6.51013e-13
1.94246e-12
3.54873e-13
5.20466e-12
7.11392e-12
0
0
0
0
0
0
0
0
0
0
0
0
0
0
0
0
0
0
0
0
0
0
0
0
0
0
0
0
0
0
0
0
0
0
0
0
0
2.13287e-14
8.93762e-14
1.59327e-13
2.60222e-13
2.63747e-13
4.69592e-13
3.95932e-13
9.53936e-13
3.90589e-13
2.00699e-12
4.60872e-14
5.52827e-12
1.21267e-11
0
0
0
0
0
0
0
0
0
0
0
0
0
0
0
0
0
0
0
0
0
0
0
0
0
0
0
0
0
0
0
0
0
0
0
0
0
0
0
0
0
0
1.44923e-13
0
6.31837e-13
0
1.76467e-12
0
5.09383e-12
1.39026e-11
0
9.44073e-10
0
0
0
0
0
0
0
0
0
0
0
0
0
0
0
0
0
0
0
0
0
0
0
0
0
0
0
0
0
0
0
0
0
0
0
0
0
0
0
0
0
0
2.06121e-13
0
1.35639e-12
0
4.3524e-12
1.39843e-11
0
1.3161e-08
0
0
0
0
0
0
0
0
0
0
0
0
0
0
0
0
0
0
0
0
0
0
0
0
0
0
0
0
0
0
0
0
0
0
0
0
0
0
0
0
0
0
0
0
8.90559e-13
0
3.43868e-12
1.38505e-11
0
1.20541e-08
0
0
0
0
0
0
0
0
0
0
0
0
0
0
0
0
0
0
0
0
0
0
0
0
0
0
0
0
0
0
0
0
0
0
0
0
0
0
0
0
0
0
0
0
3.92436e-13
0
2.42032e-12
1.37098e-11
0
1.10368e-08
0
0
0
0
0
0
0
0
0
0
0
0
0
0
0
0
0
0
0
0
0
0
0
0
0
0
0
0
0
0
0
0
0
0
0
0
0
0
0
0
0
0
0
0
0
0
1.45309e-12
1.35581e-11
0
1.01894e-08
0
0
0
0
0
0
0
0
0
0
0
0
0
0
0
0
0
0
0
0
0
0
0
0
0
0
0
0
0
0
0
0
0
0
0
0
0
0
0
0
0
0
0
0
0
0
6.90204e-13
1.34115e-11
0
9.47785e-09
0
0
0
0
0
0
0
0
0
0
0
0
0
0
0
0
0
0
0
0
0
0
0
0
0
0
0
0
0
0
0
0
0
0
0
0
0
0
0
0
0
0
0
0
0
0
2.47748e-13
1.33603e-11
0
8.83252e-09
0
0
0
0
0
0
0
0
0
0
0
0
0
0
0
0
0
0
0
0
0
0
0
0
0
0
0
0
0
0
0
0
0
0
0
0
0
0
0
0
0
0
0
0
0
7.2248e-13
2.57734e-13
1.35726e-11
0
8.1882e-09
0
0
0
0
0
0
0
0
0
0
0
0
0
0
0
0
0
0
0
0
0
0
0
0
0
0
0
0
0
0
0
0
0
0
0
0
0
0
0
0
0
0
0
0
0
2.31206e-12
9.56823e-13
1.43364e-11
0
7.5252e-09
0
0
0
0
0
0
0
0
0
0
0
0
0
0
0
0
0
0
0
0
0
0
0
0
0
0
0
0
0
0
0
0
0
0
0
0
0
0
0
0
0
0
0
0
7.95533e-13
4.87327e-12
2.82671e-12
1.62202e-11
0
6.84963e-09
0
0
0
0
0
0
0
0
0
0
0
0
0
0
0
0
0
0
0
0
0
0
0
0
0
0
0
0
0
0
0
0
0
0
0
0
0
0
0
0
0
0
5.38271e-13
1.29143e-12
3.45085e-12
9.4209e-12
6.97708e-12
2.05281e-11
0
6.17248e-09
0
0
0
0
0
0
0
0
0
0
0
0
0
0
0
0
0
0
0
0
0
0
0
0
0
0
0
0
0
0
0
0
0
0
0
0
0
0
0
0
1.42758e-12
1.99655e-12
4.53071e-12
6.73014e-12
9.74992e-12
1.87566e-11
1.64873e-11
3.0866e-11
8.05637e-13
5.5022e-09
0
0
0
0
0
0
0
0
0
0
0
0
0
0
0
0
0
0
0
0
0
0
0
0
0
0
0
0
0
0
0
0
0
0
0
0
0
0
1.18929e-12
3.20852e-12
6.87161e-12
9.56101e-12
1.45506e-11
2.04935e-11
2.65496e-11
4.26468e-11
4.24806e-11
6.09532e-11
2.26465e-11
4.84497e-09
0
0
0
1.46799e-11
0
0
0
0
0
0
0
0
0
0
0
0
0
0
0
0
0
0
0
0
0
0
0
0
0
0
0
0
0
0
0
0
0
0
0
0
0
0
5.13887e-12
3.03225e-11
5.26575e-11
9.71974e-11
1.11403e-10
1.52728e-10
8.8395e-11
4.20625e-09
0
0
0
5.15826e-11
0
0
0
0
0
0
0
0
0
0
0
0
0
0
0
0
0
0
0
0
0
0
0
0
0
0
0
0
0
0
0
0
0
0
0
0
0
0
0
0
0
0
0
0
0
3.59109e-09
0
0
0
4.15119e-11
0
0
0
0
0
0
0
0
0
0
0
0
0
0
0
0
0
0
0
0
0
0
0
0
0
0
0
0
0
0
0
0
0
0
0
0
0
0
0
0
0
0
0
0
0
3.00372e-09
0
0
0
0
0
0
0
0
0
0
0
0
0
0
0
0
0
0
0
0
0
0
0
0
0
0
0
0
0
0
0
0
0
0
0
0
0
0
0
0
0
0
0
0
0
0
0
0
0
2.44707e-09
0
0
0
0
0
0
0
0
0
0
0
0
0
0
0
0
0
0
0
0
0
0
0
0
0
0
0
0
0
0
0
0
0
0
0
0
0
0
0
0
0
0
0
0
0
0
0
0
0
1.92245e-09
0
0
0
0
0
0
0
0
0
0
0
0
0
0
0
0
0
0
0
0
0
0
0
0
0
0
0
0
0
0
0
0
0
0
0
0
0
0
0
0
0
0
0
0
0
0
0
0
0
1.42949e-09
0
0
0
0
0
0
0
0
0
0
0
0
0
0
0
0
0
0
0
0
0
0
0
0
0
0
0
0
0
0
0
0
0
0
0
0
0
0
0
0
0
0
0
0
0
0
0
0
0
9.66211e-10
0
0
0
0
0
0
0
0
0
0
0
0
0
0
0
0
0
0
0
0
0
0
0
0
0
0
0
0
0
0
0
0
0
0
0
0
0
0
0
0
0
0
0
0
0
0
0
0
0
5.29502e-10
0
0
0
0
0
0
0
0
0
0
0
0
0
0
0
0
0
0
0
0
0
0
0
0
0
0
0
0
0
0
0
0
0
0
0
0
0
0
0
0
0
0
0
0
0
0
0
0
0
1.15626e-10
0
0
0
0
0
0
0
0
0
0
0
0
0
0
0
0
0
0
0
0
0
0
0
0
0
0
0
0
0
0
0
0
0
0
0
0
0
0
0
0
0
0
0
0
0
0
0
0
0
0
0
0
0
0
0
0
0
0
0
0
0
0
0
0
0
0
0
0
0
0
0
0
0
0
0
0
0
0
0
0
0
0
0
0
0
0
0
0
0
0
0
0
0
0
0
0
0
0
0
0
0
0
0
0
0
0
0
0
0
0
0
0
0
0
0
0
0
0
0
0
0
0
0
0
0
0
0
0
0
0
0
0
0
0
0
0
0
0
0
0
0
0
0
0
0
0
0
0
0
0
0
0
0
0
0
0
0
0
0
0
0
0
0
0
0
0
0
0
0
0
0
0
0
0
0
0
0
0
0
0
0
0
0
0
0
0
0
0
0
0
0
0
0
0
0
0
0
0
0
0
0
0
0
0
0
0
0
0
0
0
0
0
0
0
0
0
0
0
0
0
0
0
0
0
0
0
0
0
0
0
0
0
0
0
0
0
0
0
0
0
0
0
0
0
0
0
0
0
0
0
0
0
0
0
0
0
0
0
0
0
0
0
0
0
0
0
0
0
0
0
0
0
0
0
0
0
0
0
0
0
0
0
0
0
0
0
0
0
0
0
0
0
0
0
0
0
0
0
0
0
0
0
0
0
0
0
0
0
0
0
0
0
0
0
0
0
0
0
0
0
0
0
0
0
0
0
0
0
0
0
0
0
0
0
0
0
0
0
0
0
0
0
0
0
0
0
0
0
0
0
7.91495e-10
0
0
0
0
0
0
0
0
0
0
0
0
0
0
0
0
0
0
0
0
0
0
0
0
0
0
0
0
0
0
0
0
0
0
0
0
0
0
0
0
0
0
0
0
0
0
0
0
0
1.50671e-09
0
0
0
0
0
0
0
0
0
0
0
0
0
0
0
0
0
0
0
0
0
0
0
0
0
0
0
0
0
0
0
0
0
0
0
0
0
0
0
0
0
0
0
0
0
0
0
0
0
2.09852e-09
0
0
0
0
0
0
0
0
0
0
0
0
0
0
0
0
0
0
0
0
0
0
0
0
0
0
0
0
0
0
0
0
0
0
0
0
0
0
0
0
0
0
0
0
0
0
0
0
0
2.57369e-09
0
0
0
0
0
0
0
0
0
0
0
0
0
0
0
0
0
0
0
0
0
0
0
0
0
0
0
0
0
0
0
0
0
0
0
0
0
0
0
0
0
0
0
0
0
0
0
0
0
2.94062e-09
0
0
0
0
0
0
0
0
0
0
0
0
0
0
0
0
0
0
0
0
0
0
0
0
0
0
0
0
0
0
0
0
0
0
0
0
0
0
0
0
0
0
0
0
0
0
0
0
0
3.2084e-09
0
0
0
0
0
0
0
0
0
0
0
0
0
0
0
0
0
0
0
0
0
0
0
0
0
0
0
0
0
0
0
0
0
0
0
0
0
0
0
0
0
0
0
0
0
0
0
0
0
3.38672e-09
0
0
0
0
0
0
0
0
0
0
0
0
0
0
0
0
0
0
0
0
0
0
0
0
0
0
0
0
0
0
0
0
0
0
0
0
0
0
0
0
0
0
0
0
0
0
0
0
0
3.48636e-09
0
0
0
0
0
0
0
0
0
0
0
0
0
0
0
0
0
0
0
0
0
0
0
0
0
0
0
0
0
0
0
0
0
0
0
0
0
0
0
0
0
0
0
0
0
0
0
0
0
3.51891e-09
0
0
0
0
0
0
0
0
0
0
0
0
0
0
0
0
0
0
0
0
0
0
0
0
0
0
0
0
0
0
0
0
0
0
0
0
0
0
0
0
0
0
0
0
0
0
0
0
0
3.49578e-09
0
0
0
0
0
0
0
0
0
0
0
0
0
0
0
0
0
0
0
0
0
0
0
0
0
0
0
0
0
0
0
0
0
0
0
0
0
0
0
0
0
0
0
0
0
0
0
0
0
3.42728e-09
0
0
0
0
0
0
0
0
0
0
0
0
0
0
0
0
0
0
0
0
0
0
0
0
0
0
0
0
0
0
0
0
0
0
0
0
0
0
0
0
0
0
0
0
0
0
0
0
0
3.32228e-09
0
0
0
0
0
0
0
0
0
0
0
0
0
0
0
0
0
0
0
0
0
0
0
0
0
0
0
0
0
0
0
0
0
0
0
0
0
0
0
0
0
0
0
0
0
0
0
0
0
3.18817e-09
0
0
0
0
0
0
0
0
0
0
0
0
0
0
0
0
0
0
0
0
0
0
0
0
0
0
0
0
0
0
0
0
0
0
0
0
0
0
0
0
0
0
0
0
0
0
0
0
0
3.03093e-09
0
0
0
0
0
0
0
0
0
0
0
0
0
0
0
0
0
0
0
0
0
0
0
0
0
0
0
0
0
0
0
0
0
0
0
0
0
0
0
0
0
0
0
0
0
0
0
0
0
2.85535e-09
0
0
0
0
0
0
0
0
0
0
0
0
0
0
0
0
0
0
0
0
0
0
0
0
0
0
0
0
0
0
0
0
0
0
0
0
0
0
0
0
0
0
0
0
0
0
0
8.27094e-11
0
2.66521e-09
0
0
0
0
0
0
0
0
0
0
0
0
0
0
0
0
0
0
0
0
0
0
0
0
0
0
0
0
0
0
0
0
0
0
0
0
0
0
0
0
0
0
0
0
0
0
0
4.44573e-10
0
2.46352e-09
0
0
0
0
0
0
0
0
0
0
0
0
0
0
0
0
0
0
0
0
0
0
0
0
0
0
0
0
0
0
0
0
0
0
0
0
0
0
0
0
0
0
0
0
0
0
4.10816e-10
8.00896e-10
0
2.25272e-09
0
0
0
0
0
0
0
0
0
0
0
0
0
0
0
0
0
0
0
0
0
0
0
0
0
0
0
0
0
0
0
0
0
0
0
0
0
0
0
0
0
0
0
0
0
1.75927e-10
8.22649e-10
1.14617e-09
0
2.03476e-09
0
0
0
0
0
0
0
0
0
0
0
0
0
0
0
0
0
0
0
0
0
0
0
0
0
0
0
0
0
0
0
0
0
0
0
0
0
0
0
0
0
0
0
0
0
5.94978e-10
1.22567e-09
1.4751e-09
0
1.81106e-09
0
0
0
0
0
0
0
0
0
0
0
0
0
0
0
0
0
0
0
0
0
0
0
0
0
0
0
0
0
0
0
0
0
0
0
0
0
0
0
0
0
0
0
0
3.42003e-10
1.00655e-09
1.61528e-09
1.78344e-09
0
1.58273e-09
0
0
0
0
0
0
0
0
0
0
0
0
0
0
0
0
0
0
0
0
0
0
0
0
0
0
0
0
0
0
0
0
0
0
0
0
0
0
0
0
0
0
0
6.72258e-11
7.51013e-10
1.40493e-09
1.98577e-09
2.06592e-09
0
1.35058e-09
0
0
0
0
0
0
0
0
0
0
0
0
0
0
0
0
0
0
0
0
0
0
0
0
0
0
0
0
0
0
0
0
0
0
0
0
0
0
0
0
0
0
0
4.72752e-10
1.14693e-09
1.78504e-09
2.3321e-09
2.31784e-09
0
1.1152e-09
0
0
0
0
0
0
0
0
0
0
0
0
0
0
0
0
0
0
0
0
0
0
0
0
0
0
0
0
0
0
0
0
0
0
0
0
0
0
0
0
0
0
2.18613e-10
8.65141e-10
1.52464e-09
2.14185e-09
2.64944e-09
2.53476e-09
0
8.76802e-10
0
0
0
0
0
0
0
0
0
0
0
0
0
0
0
0
0
0
0
0
0
0
0
0
0
0
0
0
0
0
0
0
0
0
0
0
0
0
0
0
0
0
6.07188e-10
1.23904e-09
1.8787e-09
2.47e-09
2.93265e-09
2.71214e-09
0
6.35164e-10
0
0
0
0
0
0
0
0
0
0
0
0
0
0
0
0
0
0
0
0
0
0
0
0
0
0
0
0
0
0
0
0
0
0
0
0
0
0
0
0
0
3.43835e-10
9.77416e-10
1.58964e-09
2.20448e-09
2.76514e-09
3.1776e-09
2.84615e-09
0
3.89561e-10
0
0
0
0
0
0
0
0
0
0
0
0
0
0
0
0
0
0
0
0
0
0
0
0
0
0
0
0
0
0
0
0
0
0
0
0
0
0
0
0
9.51346e-11
7.10306e-10
1.32411e-09
1.91181e-09
2.4971e-09
3.02255e-09
3.37983e-09
2.9328e-09
0
1.3868e-10
0
0
0
0
0
0
0
0
0
0
0
0
0
0
0
0
0
0
0
0
0
0
0
0
0
0
0
0
0
0
0
0
0
0
0
0
0
0
0
0
4.57414e-10
1.05293e-09
1.64177e-09
2.20012e-09
2.75117e-09
3.23708e-09
3.53482e-09
2.96848e-09
0
0
0
0
0
0
0
0
0
0
0
0
0
0
0
0
0
0
0
0
0
0
0
0
0
0
0
0
0
0
0
0
0
0
0
0
0
0
0
0
0
2.04187e-10
7.96052e-10
1.36696e-09
1.92615e-09
2.45054e-09
2.96266e-09
3.40467e-09
3.63858e-09
2.94974e-09
0
0
0
0
0
0
0
0
0
0
0
0
0
0
0
0
0
0
0
0
0
0
0
0
0
0
0
0
0
0
0
0
0
0
0
0
0
0
0
0
0
5.39094e-10
1.10599e-09
1.64756e-09
2.17249e-09
2.65872e-09
3.12789e-09
3.52185e-09
3.68769e-09
2.87355e-09
0
0
0
0
0
0
0
0
0
0
0
0
0
0
0
0
0
0
0
0
0
0
0
0
0
0
0
0
0
0
0
0
0
0
0
0
0
0
0
0
2.88923e-10
8.44969e-10
1.3822e-09
1.88978e-09
2.37585e-09
2.81964e-09
3.24195e-09
3.58446e-09
3.6789e-09
2.73733e-09
0
0
0
0
0
0
0
0
0
0
0
0
0
0
0
0
0
0
0
0
0
0
0
0
0
0
0
0
0
0
0
0
0
0
0
0
0
0
0
3.91789e-11
5.91404e-10
1.11765e-09
1.6204e-09
2.08945e-09
2.53238e-09
2.92952e-09
3.30101e-09
3.58902e-09
3.60937e-09
2.53864e-09
0
0
0
0
0
0
0
0
0
0
0
0
0
0
0
0
0
0
0
0
0
0
0
0
0
0
0
0
0
0
0
0
0
0
0
0
0
0
0
3.39169e-10
8.60917e-10
1.35255e-09
1.816e-09
2.24181e-09
2.63739e-09
2.98441e-09
3.30208e-09
3.53296e-09
3.47697e-09
2.27675e-09
0
0
0
0
0
0
0
0
0
0
0
0
0
0
0
0
0
0
0
0
0
0
0
0
0
0
0
0
0
0
0
0
0
0
0
0
0
0
8.81677e-11
6.05369e-10
1.09288e-09
1.54569e-09
1.96539e-09
2.34363e-09
2.68748e-09
2.9801e-09
3.2402e-09
3.41111e-09
3.27698e-09
1.94803e-09
0
0
0
0
0
0
0
0
0
0
0
0
0
0
0
0
0
0
0
0
0
0
0
0
0
0
0
0
0
0
0
0
0
0
0
0
0
0
3.546e-10
8.36307e-10
1.28383e-09
1.69265e-09
2.06426e-09
2.39136e-09
2.68043e-09
2.91563e-09
3.11483e-09
3.22232e-09
3.00757e-09
1.55025e-09
0
0
0
0
0
0
0
0
0
0
0
0
0
0
0
0
0
0
0
0
0
0
0
0
0
0
0
0
0
0
0
0
0
0
0
0
0
1.05117e-10
5.84462e-10
1.02574e-09
1.42845e-09
1.78878e-09
2.10857e-09
2.38107e-09
2.61232e-09
2.78753e-09
2.92422e-09
2.96745e-09
2.6718e-09
1.08773e-09
0
0
0
0
0
0
0
0
0
0
0
0
0
0
0
0
0
0
0
0
0
0
0
0
0
0
0
0
0
0
0
0
0
0
0
0
0
3.33955e-10
7.72571e-10
1.16919e-09
1.52328e-09
1.83136e-09
2.0952e-09
2.30877e-09
2.47853e-09
2.59173e-09
2.66527e-09
2.64349e-09
2.26587e-09
5.56087e-10
0
0
0
0
0
0
0
0
0
0
0
0
0
0
0
0
0
0
0
0
0
0
0
0
0
0
0
0
0
0
0
0
0
0
0
0
8.72119e-11
5.24523e-10
9.17526e-10
1.26437e-09
1.5653e-09
1.81753e-09
2.02219e-09
2.17336e-09
2.27832e-09
2.32682e-09
2.33488e-09
2.24678e-09
1.7878e-09
0
0
0
0
0
0
0
0
0
0
0
0
0
0
0
0
0
0
0
0
0
0
0
0
0
0
0
0
0
0
0
0
0
0
0
0
0
2.82291e-10
6.7248e-10
1.01471e-09
1.30744e-09
1.55086e-09
1.74265e-09
1.88513e-09
1.97379e-09
2.01441e-09
1.99572e-09
1.93401e-09
1.77764e-09
1.23953e-09
0
0
0
0
0
0
0
0
0
0
0
0
0
0
0
0
0
0
0
0
0
0
0
0
0
0
0
0
0
0
0
0
0
0
0
0
4.6275e-11
4.35247e-10
7.73743e-10
1.06088e-09
1.29522e-09
1.47727e-09
1.60525e-09
1.68254e-09
1.70592e-09
1.68011e-09
1.59355e-09
1.46287e-09
1.23901e-09
6.21797e-10
0
0
0
0
0
0
0
0
0
0
0
0
0
0
0
0
0
0
0
0
0
0
0
0
0
0
0
0
0
0
0
0
0
0
0
0
2.07073e-10
5.42797e-10
8.24879e-10
1.05278e-09
1.22553e-09
1.34351e-09
1.40537e-09
1.41451e-09
1.36777e-09
1.27076e-09
1.11574e-09
9.19593e-10
6.31103e-10
0
0
0
0
0
0
0
0
0
0
0
0
0
0
0
0
0
0
0
0
0
0
0
0
0
0
0
0
0
0
0
0
0
0
0
0
0
3.25551e-10
6.03723e-10
8.24756e-10
9.88583e-10
1.09541e-09
1.14635e-09
1.14053e-09
1.08008e-09
9.61129e-10
7.91164e-10
5.66662e-10
3.04637e-10
0
0
0
0
0
0
0
0
0
0
0
0
0
0
0
0
0
0
0
0
0
0
0
0
0
0
0
0
0
0
0
0
0
0
0
0
0
1.22495e-10
3.97969e-10
6.15098e-10
7.7254e-10
8.69685e-10
9.06568e-10
8.85828e-10
8.07995e-10
6.75247e-10
4.85293e-10
2.46705e-10
0
0
0
0
0
0
0
0
0
0
0
0
0
0
0
0
0
0
0
0
0
0
0
0
0
0
0
0
0
0
0
0
0
0
0
0
0
0
0
2.07753e-10
4.19787e-10
5.71242e-10
6.61195e-10
6.90027e-10
6.57049e-10
5.63742e-10
4.10728e-10
2.01704e-10
0
0
0
0
0
0
0
0
0
0
0
0
0
0
0
0
0
0
0
0
0
0
0
0
0
0
0
0
0
0
0
0
0
0
0
0
0
0
0
0
4.65535e-11
2.52671e-10
3.96751e-10
4.76616e-10
4.92187e-10
4.46876e-10
3.40901e-10
1.72862e-10
0
0
0
0
0
0
0
0
0
0
0
0
0
0
0
0
0
0
0
0
0
0
0
0
0
0
0
0
0
0
0
0
0
0
0
0
0
0
0
0
0
0
1.15562e-10
2.55992e-10
3.30836e-10
3.38248e-10
2.77803e-10
1.52459e-10
0
0
0
0
0
0
0
0
0
0
0
0
0
0
0
0
0
0
0
0
0
0
0
0
0
0
0
0
0
0
0
0
0
0
0
0
0
0
0
0
0
0
0
4.58963e-13
1.38935e-10
2.08133e-10
2.08184e-10
1.40933e-10
6.34069e-12
0
0
0
0
0
0
0
0
0
0
0
0
0
0
0
0
0
0
0
0
0
0
0
0
0
0
0
0
0
0
0
0
0
0
0
0
0
0
0
0
0
0
0
0
5.17444e-11
1.1974e-10
1.16377e-10
3.98923e-11
0
0
0
0
0
0
0
0
0
0
0
0
0
0
0
0
0
0
0
0
0
0
0
0
0
0
0
0
0
0
0
0
0
0
0
0
0
0
0
0
0
0
0
0
0
1.26515e-11
7.31677e-11
6.73809e-11
0
0
0
0
0
0
0
0
0
0
0
0
0
0
0
0
0
0
0
0
0
0
0
0
0
0
0
0
0
0
0
0
0
0
0
0
0
0
0
0
0
0
0
0
0
0
4.89991e-13
6.50471e-11
5.98265e-11
0
0
0
0
0
0
0
0
0
0
0
0
0
0
0
0
0
0
0
0
0
0
0
0
0
0
0
0
0
0
0
0
0
0
0
0
0
0
0
0
0
0
0
0
0
0
1.83157e-11
6.62945e-11
6.66472e-11
7.038e-12
0
0
0
0
0
0
0
0
0
0
0
0
0
0
0
0
0
0
0
0
0
0
0
0
0
0
0
0
0
0
0
0
0
0
0
0
0
0
0
0
0
0
0
0
3.27784e-11
1.06586e-10
1.30834e-10
1.12745e-10
5.47033e-11
0
0
0
0
0
0
0
0
0
0
0
0
0
0
0
0
0
0
0
0
0
0
0
0
0
0
0
0
0
0
0
0
0
0
0
0
0
0
0
0
0
0
0
1.14213e-10
2.17634e-10
2.50833e-10
2.34477e-10
1.88818e-10
1.23725e-10
3.30584e-11
0
0
0
0
0
0
0
0
0
0
0
0
0
0
0
0
0
0
0
0
0
0
0
0
0
0
0
0
0
0
0
0
0
0
0
0
0
0
0
0
1.90976e-11
2.67943e-10
4.31627e-10
5.04908e-10
4.94549e-10
4.18387e-10
3.06187e-10
1.8895e-10
8.25226e-11
0
0
0
0
0
0
0
0
0
0
0
0
0
0
0
0
0
0
0
0
0
0
0
0
0
0
0
0
0
0
0
0
0
0
0
0
0
0
0
1.35094e-10
4.53267e-10
6.95427e-10
8.50145e-10
9.07792e-10
8.63118e-10
7.27178e-10
5.28336e-10
3.13628e-10
1.32423e-10
9.68351e-12
0
0
0
0
0
0
0
0
0
0
0
0
0
0
0
0
0
0
0
0
0
0
0
0
0
0
0
0
0
0
0
0
0
0
0
0
0
2.63038e-10
6.41311e-10
9.65265e-10
1.21587e-09
1.37518e-09
1.42748e-09
1.36257e-09
1.17983e-09
8.96214e-10
5.53607e-10
2.21964e-10
0
0
0
0
0
0
0
0
0
0
0
0
0
0
0
0
0
0
0
0
0
0
0
4.48183e-11
0
0
0
0
0
0
0
0
0
0
0
0
0
3.6813e-10
7.73336e-10
1.16186e-09
1.50878e-09
1.78924e-09
1.98033e-09
2.06001e-09
2.00678e-09
1.8054e-09
1.45628e-09
9.85573e-10
4.59933e-10
0
0
0
0
2.54763e-10
3.20034e-10
0
0
0
0
0
0
0
0
0
0
0
0
0
0
0
0
0
1.00369e-10
4.27614e-10
0
0
0
0
0
0
0
0
0
0
7.56474e-11
4.32169e-10
7.83002e-10
1.1854e-09
1.60255e-09
1.99826e-09
2.34123e-09
2.60092e-09
2.74866e-09
2.75502e-09
2.59113e-09
2.23593e-09
1.68576e-09
9.70517e-10
1.8405e-10
0
0
0
0
7.97504e-10
1.29568e-09
1.08636e-09
1.87664e-10
0
0
0
0
0
0
0
0
0
0
0
0
0
0
0
1.56525e-10
6.20064e-10
2.74282e-10
0
0
0
0
0
0
0
1.54628e-10
5.4628e-10
8.97932e-10
1.21315e-09
1.50754e-09
1.82357e-09
2.25632e-09
2.71943e-09
3.10647e-09
3.38405e-09
3.5168e-09
3.46641e-09
3.19269e-09
2.66109e-09
1.85538e-09
8.03132e-10
0
0
0
0
0
1.70055e-09
3.09408e-09
3.23445e-09
2.20665e-09
4.45513e-10
0
0
0
0
0
0
0
0
0
0
0
0
0
0
1.81166e-10
7.0209e-10
5.77462e-10
4.12244e-10
2.75567e-10
1.54603e-10
8.81893e-11
1.62145e-10
4.07832e-10
7.58703e-10
1.12199e-09
1.45148e-09
1.74769e-09
2.02422e-09
2.2851e-09
2.53401e-09
2.80963e-09
3.22886e-09
3.74023e-09
4.10353e-09
4.27246e-09
4.19922e-09
3.82629e-09
3.09236e-09
1.94938e-09
3.9926e-10
0
0
0
0
0
2.89623e-09
6.40006e-09
7.39789e-09
6.13012e-09
3.62825e-09
7.13647e-10
0
0
0
0
0
0
0
0
0
0
0
0
0
1.89484e-10
7.1989e-10
7.33121e-10
7.51399e-10
8.38318e-10
9.64352e-10
1.10523e-09
1.30151e-09
1.5887e-09
1.93777e-09
2.26822e-09
2.52859e-09
2.73253e-09
2.92436e-09
3.13347e-09
3.35795e-09
3.57713e-09
3.81349e-09
4.18281e-09
4.71041e-09
5.00056e-09
4.96565e-09
4.51791e-09
3.55025e-09
1.94983e-09
0
0
0
0
0
0
3.21756e-09
1.29465e-08
1.64232e-08
1.44039e-08
1.00872e-08
5.41366e-09
1.16048e-09
0
0
0
0
0
0
0
0
0
0
0
0
1.89516e-10
7.01802e-10
7.95091e-10
9.27442e-10
1.16673e-09
1.49043e-09
1.84547e-09
2.23783e-09
2.68364e-09
3.15616e-09
3.56391e-09
3.82529e-09
3.9438e-09
3.99764e-09
4.07479e-09
4.22012e-09
4.42257e-09
4.63178e-09
4.84239e-09
5.17141e-09
5.66519e-09
5.77152e-09
5.30816e-09
4.08183e-09
1.84479e-09
0
0
0
0
0
0
0
2.56226e-08
4.07831e-08
3.511e-08
2.47838e-08
1.54172e-08
7.94433e-09
2.18468e-09
0
0
0
0
0
0
0
0
0
0
0
1.86394e-10
6.67306e-10
8.02593e-10
9.95991e-10
1.32111e-09
1.77514e-09
2.30843e-09
2.90088e-09
3.54186e-09
4.20619e-09
4.80808e-09
5.21096e-09
5.32351e-09
5.2734e-09
5.19323e-09
5.18888e-09
5.30325e-09
5.5096e-09
5.73029e-09
5.93224e-09
6.23289e-09
6.59538e-09
6.23318e-09
4.76461e-09
1.69719e-09
0
0
0
0
0
0
0
0
9.14305e-08
9.45803e-08
6.36515e-08
3.92063e-08
2.26547e-08
1.14843e-08
3.98041e-09
0
0
0
0
0
0
0
0
0
0
1.82984e-10
6.27478e-10
7.80418e-10
9.98376e-10
1.35875e-09
1.87858e-09
2.54009e-09
3.30787e-09
4.12392e-09
4.93471e-09
5.6776e-09
6.28274e-09
6.69603e-09
6.75163e-09
6.54784e-09
6.37095e-09
6.33063e-09
6.46283e-09
6.72021e-09
6.98761e-09
7.18772e-09
7.40822e-09
7.3318e-09
5.73192e-09
1.73245e-09
0
0
0
0
0
0
0
0
0
9.33628e-09
4.20014e-08
5.37719e-08
4.24396e-08
2.56895e-08
1.25358e-08
4.30689e-09
8.3532e-11
0
0
0
0
0
0
0
0
1.80894e-10
5.88963e-10
7.45311e-10
9.64798e-10
1.32447e-09
1.85497e-09
2.57491e-09
3.46111e-09
4.4332e-09
5.39848e-09
6.27787e-09
7.01463e-09
7.59298e-09
7.9896e-09
7.96487e-09
7.69512e-09
7.52033e-09
7.54569e-09
7.79277e-09
8.18211e-09
8.53787e-09
8.69791e-09
8.5933e-09
7.17145e-09
2.49869e-09
0
0
0
0
0
0
0
0
0
0
0
2.28863e-09
9.45665e-09
1.26982e-08
1.03842e-08
6.0077e-09
2.71702e-09
5.08364e-10
0
0
0
0
0
0
0
1.81726e-10
5.56621e-10
7.08049e-10
9.14426e-10
1.24952e-09
1.75284e-09
2.46975e-09
3.40069e-09
4.46999e-09
5.56031e-09
6.56577e-09
7.42404e-09
8.13423e-09
8.72699e-09
9.12159e-09
8.99295e-09
8.78888e-09
8.75244e-09
8.98718e-09
9.49038e-09
1.01222e-08
1.05678e-08
1.04391e-08
9.19894e-09
4.82391e-09
0
0
0
0
0
0
0
0
0
0
0
1.37059e-10
3.21152e-09
5.97329e-09
7.46141e-09
7.27233e-09
6.14433e-09
4.69694e-09
3.49665e-09
2.63273e-09
2.09873e-09
1.88405e-09
1.93717e-09
2.25629e-09
0
1.87396e-10
5.34315e-10
6.76418e-10
8.61624e-10
1.15789e-09
1.60666e-09
2.26685e-09
3.1659e-09
4.25317e-09
5.40815e-09
6.50136e-09
7.45489e-09
8.27115e-09
9.00541e-09
9.67469e-09
1.00177e-08
9.92994e-09
9.93466e-09
1.02063e-08
1.08414e-08
1.17845e-08
1.27398e-08
1.30365e-08
1.19179e-08
8.78001e-09
3.24766e-09
0
0
0
0
0
0
0
8.30122e-10
2.55005e-09
4.4334e-09
6.48812e-09
8.53134e-09
1.01648e-08
1.09495e-08
1.07525e-08
9.93514e-09
8.91479e-09
7.88083e-09
7.00573e-09
6.34891e-09
5.98001e-09
6.1117e-09
6.8163e-09
0
1.98098e-10
5.23412e-10
6.53918e-10
8.11997e-10
1.05762e-09
1.42755e-09
1.98251e-09
2.76785e-09
3.76459e-09
4.87483e-09
5.96772e-09
6.95228e-09
7.82176e-09
8.63551e-09
9.45415e-09
1.02103e-08
1.04916e-08
1.06647e-08
1.10611e-08
1.18552e-08
1.31101e-08
1.46014e-08
1.55847e-08
1.49492e-08
1.27362e-08
9.82317e-09
6.83811e-09
4.94474e-09
4.11694e-09
4.00201e-09
4.34585e-09
5.04486e-09
6.0898e-09
7.43353e-09
8.78693e-09
1.01501e-08
1.1537e-08
1.27024e-08
1.33755e-08
1.34269e-08
1.29606e-08
1.22122e-08
1.1401e-08
1.06308e-08
9.91707e-09
9.31363e-09
8.90735e-09
8.965e-09
9.97327e-09
0
0
0
0
0
0
0
0
0
0
0
0
0
0
0
0
3.68807e-10
1.56114e-09
3.52305e-09
5.00848e-09
5.45082e-09
3.94716e-09
1.44436e-09
2.38703e-10
3.85532e-10
8.55069e-10
1.09753e-09
1.05072e-09
8.00665e-10
4.91472e-10
2.56689e-10
1.6315e-10
5.92395e-11
0
0
0
0
9.70875e-12
4.30551e-10
8.24282e-10
1.2263e-09
1.69979e-09
2.37692e-09
2.38738e-09
1.8067e-09
0
0
0
0
0
0
0
0
0
0
0
0
0
0
0
0
7.27279e-10
6.5903e-10
7.73368e-10
1.18901e-09
2.05754e-09
3.04773e-09
3.68636e-09
3.87321e-09
3.61742e-09
2.69524e-09
1.57469e-09
5.85756e-10
1.76737e-09
9.49519e-09
5.38144e-09
1.9772e-09
0
0
0
0
0
0
0
0
0
0
0
0
0
1.06795e-08
5.86198e-08
1.81497e-07
0
0
0
6.23628e-09
1.06415e-08
1.3768e-09
6.34274e-09
0
0
0
0
0
0
0
0
0
0
0
0
0
0
0
1.85682e-11
3.73796e-10
1.42748e-09
3.14733e-09
4.44874e-09
4.80123e-09
3.24769e-09
9.76447e-10
1.49988e-10
5.54578e-10
1.10596e-09
1.3308e-09
1.23225e-09
8.94127e-10
4.98263e-10
1.92915e-10
7.3941e-11
2.92036e-11
0
0
0
0
5.62724e-11
5.00796e-10
8.96839e-10
1.26706e-09
1.6595e-09
2.28901e-09
2.47304e-09
2.14871e-09
7.45741e-10
0
0
0
0
0
0
0
0
0
0
0
0
0
0
0
5.33961e-10
5.45907e-10
7.18267e-10
1.18913e-09
2.10315e-09
3.12963e-09
3.81151e-09
4.0393e-09
3.77316e-09
2.75496e-09
1.55592e-09
3.41228e-10
8.35931e-09
8.89363e-09
4.25494e-09
1.61969e-09
0
0
0
0
0
0
0
0
0
0
0
0
0
7.71056e-09
5.34517e-08
1.90432e-07
0
0
0
6.35945e-09
1.02868e-08
0
3.89245e-09
0
0
0
0
0
0
0
0
0
0
0
0
0
0
0
5.58331e-11
3.8858e-10
1.34162e-09
2.86497e-09
4.03647e-09
4.28638e-09
2.61357e-09
5.3105e-10
1.26914e-10
8.17629e-10
1.43773e-09
1.64385e-09
1.4699e-09
1.02985e-09
5.32194e-10
1.35813e-10
0
0
0
0
0
0
1.20509e-10
5.92151e-10
9.97563e-10
1.34827e-09
1.68369e-09
2.17491e-09
2.56153e-09
2.34606e-09
1.47891e-09
0
0
0
0
0
0
0
0
0
0
0
0
0
0
0
3.78598e-10
4.66377e-10
6.89e-10
1.202e-09
2.15937e-09
3.23353e-09
3.97363e-09
4.24947e-09
3.9559e-09
2.79498e-09
1.41975e-09
5.0344e-10
1.30519e-08
7.54179e-09
3.43558e-09
1.18504e-09
6.79267e-11
0
0
0
0
0
0
0
0
0
0
0
0
4.60922e-09
4.68096e-08
1.76541e-07
0
0
0
6.50407e-09
1.15091e-08
1.28848e-09
1.08931e-08
0
0
0
0
0
0
0
0
0
0
0
0
0
0
0
9.16779e-11
4.19876e-10
1.31304e-09
2.66259e-09
3.72346e-09
3.80715e-09
1.92336e-09
8.97223e-11
2.09821e-10
1.20643e-09
1.85839e-09
2.05309e-09
1.77856e-09
1.21684e-09
5.94654e-10
8.45575e-11
0
0
0
0
0
0
2.0896e-10
7.06893e-10
1.11624e-09
1.45933e-09
1.7375e-09
2.06181e-09
2.60027e-09
2.47266e-09
1.96788e-09
3.53549e-10
0
0
0
0
0
0
0
0
0
0
0
0
0
0
2.6352e-10
4.13565e-10
6.72511e-10
1.21897e-09
2.21709e-09
3.34916e-09
4.16212e-09
4.48808e-09
4.13894e-09
2.77742e-09
1.00126e-09
6.41565e-09
1.25864e-08
6.68244e-09
2.89507e-09
8.57497e-10
8.07892e-11
0
0
0
0
0
0
0
0
0
0
0
0
1.49473e-09
3.87784e-08
1.42376e-07
0
0
0
6.63527e-09
1.18283e-08
3.91493e-09
1.786e-08
0
6.8522e-12
0
0
0
0
0
0
0
0
0
0
0
0
2.20245e-12
1.31442e-10
4.70606e-10
1.33468e-09
2.52988e-09
3.48242e-09
3.3151e-09
1.16121e-09
0
4.70644e-10
1.72394e-09
2.35106e-09
2.55292e-09
2.16918e-09
1.46791e-09
6.96627e-10
4.20223e-11
0
0
0
0
0
0
3.293e-10
8.45541e-10
1.24446e-09
1.57847e-09
1.79824e-09
2.0271e-09
2.52488e-09
2.56763e-09
2.21263e-09
1.15395e-09
0
0
0
0
0
0
0
0
0
0
0
0
0
0
1.86402e-10
3.77714e-10
6.63688e-10
1.2356e-09
2.27163e-09
3.47069e-09
4.37117e-09
4.7448e-09
4.29343e-09
2.64659e-09
3.58091e-11
1.77946e-08
1.19114e-08
6.22298e-09
2.53514e-09
6.47517e-10
2.69787e-11
0
0
0
0
0
0
0
0
0
0
0
0
0
3.00365e-08
1.0278e-07
0
0
0
6.71768e-09
1.17731e-08
4.66024e-09
1.54821e-08
1.74326e-12
1.30647e-11
0
0
0
0
0
0
0
0
0
0
0
0
3.05738e-11
1.78742e-10
5.43668e-10
1.39331e-09
2.46092e-09
3.29514e-09
2.7322e-09
2.79975e-10
0
9.86337e-10
2.34569e-09
2.94282e-09
3.17558e-09
2.66164e-09
1.80093e-09
8.54231e-10
1.69002e-11
0
0
0
0
0
0
4.94269e-10
1.01543e-09
1.38792e-09
1.69297e-09
1.86327e-09
2.02587e-09
2.36136e-09
2.62773e-09
2.31936e-09
1.6877e-09
6.70084e-11
0
0
0
0
0
0
0
0
0
0
0
0
0
1.34689e-10
3.48381e-10
6.56298e-10
1.24982e-09
2.32094e-09
3.5983e-09
4.60204e-09
5.0116e-09
4.37201e-09
2.31592e-09
0
2.04543e-08
1.17051e-08
5.98808e-09
2.27634e-09
5.20723e-10
0
0
0
0
0
0
0
0
0
0
0
0
0
0
2.14631e-08
6.86318e-08
0
0
0
6.76064e-09
1.15585e-08
4.94895e-09
1.35129e-08
1.27862e-12
1.62048e-11
0
0
0
0
0
0
0
0
0
0
0
0
6.32917e-11
2.36268e-10
6.45846e-10
1.47069e-09
2.45676e-09
3.14155e-09
1.96891e-09
0
0
1.76486e-09
3.03594e-09
3.66133e-09
3.91197e-09
3.26603e-09
2.22991e-09
1.08413e-09
2.41231e-11
0
0
0
0
0
0
7.31759e-10
1.23176e-09
1.55218e-09
1.79868e-09
1.93521e-09
2.0256e-09
2.17671e-09
2.59849e-09
2.38588e-09
1.96042e-09
8.73435e-10
0
0
0
0
0
0
0
0
0
0
0
0
0
9.64943e-11
3.24325e-10
6.48478e-10
1.25975e-09
2.364e-09
3.73388e-09
4.85875e-09
5.27063e-09
4.31768e-09
1.64235e-09
4.16505e-09
2.11047e-08
1.1883e-08
5.82592e-09
2.09799e-09
4.48545e-10
0
0
0
0
0
0
0
0
0
0
0
0
0
0
1.38529e-08
4.3351e-08
0
0
0
6.76055e-09
1.13101e-08
5.35608e-09
1.23796e-08
0
1.65862e-11
1.05214e-12
0
0
0
0
0
0
0
0
0
0
1.78173e-11
1.02412e-10
3.0848e-10
7.74028e-10
1.57596e-09
2.53526e-09
2.96184e-09
8.47096e-10
0
3.61145e-10
2.67004e-09
3.8146e-09
4.59102e-09
4.78956e-09
3.98562e-09
2.76161e-09
1.40031e-09
8.67693e-11
0
0
0
0
0
2.83726e-10
1.09492e-09
1.54399e-09
1.76723e-09
1.89871e-09
2.00286e-09
2.01578e-09
2.07682e-09
2.4366e-09
2.42555e-09
2.05294e-09
1.38858e-09
0
0
0
0
0
0
0
0
0
0
0
0
0
6.72185e-11
3.01778e-10
6.37195e-10
1.26454e-09
2.39787e-09
3.88058e-09
5.14255e-09
5.49752e-09
4.12513e-09
2.4289e-10
2.47359e-08
2.17605e-08
1.23541e-08
5.70661e-09
1.92287e-09
3.84023e-10
0
5.79849e-11
1.57818e-10
0
0
0
0
0
0
0
0
0
0
0
7.62457e-09
2.61076e-08
0
0
0
6.73981e-09
1.10655e-08
5.8723e-09
1.17241e-08
0
1.56964e-11
3.15975e-12
0
0
0
0
0
0
0
0
0
0
4.16266e-11
1.51758e-10
4.01432e-10
9.23314e-10
1.73242e-09
2.68568e-09
2.61168e-09
0
0
1.64758e-09
3.6098e-09
4.76963e-09
5.70394e-09
5.76789e-09
4.79836e-09
3.38788e-09
1.81059e-09
2.33161e-10
0
0
0
0
0
8.17033e-10
1.61938e-09
1.96627e-09
2.06213e-09
2.04488e-09
2.05467e-09
1.99793e-09
2.0034e-09
2.17128e-09
2.42407e-09
2.08117e-09
1.64624e-09
6.7133e-10
0
0
0
0
0
0
0
0
0
0
0
0
4.24754e-11
2.77481e-10
6.21467e-10
1.26297e-09
2.41887e-09
4.05025e-09
5.44122e-09
5.6561e-09
3.75934e-09
0
3.44163e-08
2.26254e-08
1.30081e-08
5.61819e-09
1.67323e-09
2.47654e-10
0
1.26165e-10
3.36831e-10
3.35395e-10
0
0
0
0
0
0
0
0
0
0
2.85595e-09
1.48491e-08
0
0
1.25449e-09
6.74652e-09
1.08425e-08
6.4429e-09
1.13628e-08
0
1.43332e-11
4.98412e-12
0
0
0
0
0
0
0
0
0
1.2799e-11
7.29157e-11
2.1566e-10
5.22884e-10
1.09803e-09
1.9873e-09
2.92742e-09
1.80967e-09
0
0
2.91001e-09
4.60168e-09
6.05761e-09
6.87905e-09
6.80308e-09
5.67884e-09
4.09436e-09
2.31553e-09
4.88702e-10
0
0
0
0
3.39913e-10
1.72209e-09
2.3323e-09
2.49466e-09
2.42517e-09
2.25568e-09
2.10496e-09
1.98376e-09
1.91997e-09
1.94172e-09
2.28708e-09
2.09501e-09
1.71203e-09
1.11338e-09
0
0
0
0
0
0
0
0
0
0
0
0
1.96875e-11
2.51247e-10
6.00931e-10
1.2535e-09
2.43279e-09
4.2482e-09
5.73243e-09
5.71458e-09
3.12202e-09
0
3.73203e-08
2.37168e-08
1.37373e-08
5.60364e-09
1.33941e-09
0
0
1.69897e-10
4.75653e-10
6.14902e-10
4.0137e-10
0
0
0
0
0
0
0
0
0
0
7.66201e-09
0
0
2.78464e-09
6.82445e-09
1.06786e-08
7.09413e-09
1.1157e-08
0
1.27955e-11
6.74789e-12
0
0
0
0
0
0
0
0
3.6874e-13
3.26029e-11
1.15708e-10
3.00956e-10
6.77065e-10
1.35224e-09
2.39677e-09
3.21293e-09
0
0
1.82255e-09
3.98062e-09
5.91207e-09
7.44389e-09
8.12392e-09
7.87551e-09
6.59921e-09
4.86023e-09
2.90627e-09
8.66997e-10
0
0
0
0
2.2154e-09
3.0576e-09
3.22264e-09
3.13354e-09
2.84272e-09
2.50407e-09
2.1855e-09
1.97522e-09
1.82548e-09
1.77153e-09
2.01335e-09
2.08336e-09
1.70812e-09
1.31267e-09
5.38747e-10
0
0
0
0
0
0
0
0
0
0
0
0
2.23221e-10
5.7534e-10
1.23486e-09
2.44954e-09
4.47886e-09
5.98293e-09
5.637e-09
2.05192e-09
4.82005e-10
3.88812e-08
2.50916e-08
1.45417e-08
5.6643e-09
9.93777e-10
0
0
1.53945e-10
5.78202e-10
8.05893e-10
7.69165e-10
2.84985e-10
0
0
0
0
0
0
0
0
0
3.09214e-09
0
0
3.92624e-09
7.03664e-09
1.06118e-08
7.81079e-09
1.09969e-08
0
1.12578e-11
8.50412e-12
0
0
0
0
0
0
0
0
1.32158e-11
6.12311e-11
1.75371e-10
4.19201e-10
8.97881e-10
1.75956e-09
3.05539e-09
3.76988e-09
0
5.9913e-10
3.15482e-09
5.12134e-09
7.46086e-09
8.88167e-09
9.38843e-09
8.94619e-09
7.52719e-09
5.6603e-09
3.56617e-09
1.36585e-09
0
0
0
1.43278e-09
4.74649e-09
4.5896e-09
4.23157e-09
3.81895e-09
3.33026e-09
2.78885e-09
2.30688e-09
1.96485e-09
1.73024e-09
1.60843e-09
1.67744e-09
1.97414e-09
1.69947e-09
1.34035e-09
8.64748e-10
0
0
0
0
0
0
0
0
0
0
0
0
1.93473e-10
5.43876e-10
1.20466e-09
2.47802e-09
4.73908e-09
6.17382e-09
5.41467e-09
9.54484e-11
3.39881e-08
4.05032e-08
2.68646e-08
1.54393e-08
5.73342e-09
6.79369e-10
0
0
2.83664e-11
6.17686e-10
9.44881e-10
1.02101e-09
7.05297e-10
0
0
0
0
0
0
0
0
0
1.48235e-10
0
0
4.81918e-09
7.44353e-09
1.06696e-08
8.54922e-09
1.0819e-08
0
9.88113e-12
1.03267e-11
3.47414e-13
0
0
0
0
0
0
5.04314e-12
3.2904e-11
1.03696e-10
2.6317e-10
5.95439e-10
1.24062e-09
2.40639e-09
4.4296e-09
2.08149e-09
0
2.26599e-09
4.24905e-09
6.69933e-09
9.05961e-09
1.02901e-08
1.06079e-08
9.9635e-09
8.42128e-09
6.46115e-09
4.26958e-09
1.96771e-09
0
0
0
4.13911e-09
6.62276e-09
5.93417e-09
5.25645e-09
4.54825e-09
3.84743e-09
3.11261e-09
2.45391e-09
1.98084e-09
1.6428e-09
1.42697e-09
1.41365e-09
1.70711e-09
1.67361e-09
1.31293e-09
9.80763e-10
4.3651e-10
0
0
0
0
0
0
0
0
0
0
0
1.6228e-10
5.05915e-10
1.16108e-09
2.53083e-09
5.01663e-09
6.27147e-09
5.06614e-09
0
5.47472e-08
4.28293e-08
2.91444e-08
1.64615e-08
5.71239e-09
3.52395e-10
0
0
0
5.54483e-10
1.03343e-09
1.16623e-09
1.03034e-09
4.09465e-10
0
0
0
0
0
0
0
0
0
0
1.15253e-09
5.64499e-09
8.05005e-09
1.08458e-08
9.19008e-09
1.05229e-08
0
8.89307e-12
1.24264e-11
2.9794e-12
0
0
2.94788e-13
0
0
3.66554e-12
1.9831e-11
6.39879e-11
1.69143e-10
3.98083e-10
8.65051e-10
1.78741e-09
3.61678e-09
4.54599e-09
2.87841e-10
1.50728e-09
3.32081e-09
5.64413e-09
8.50415e-09
1.05775e-08
1.16186e-08
1.17268e-08
1.08753e-08
9.23802e-09
7.22656e-09
4.98474e-09
2.63864e-09
4.48832e-10
0
0
3.7997e-09
7.51692e-09
6.98025e-09
6.23424e-09
5.32719e-09
4.42938e-09
3.51432e-09
2.60764e-09
1.98505e-09
1.58992e-09
1.2663e-09
1.14732e-09
1.32739e-09
1.57347e-09
1.28936e-09
9.70081e-10
6.26396e-10
4.78149e-11
0
0
0
0
0
0
0
0
0
0
1.29419e-10
4.58491e-10
1.10235e-09
2.63333e-09
5.26989e-09
6.26819e-09
4.55088e-09
0
6.19372e-08
4.59887e-08
3.19097e-08
1.76441e-08
5.58377e-09
0
0
0
0
3.63664e-10
1.03581e-09
1.25544e-09
1.21237e-09
7.90877e-10
0
0
0
0
0
0
0
0
0
0
2.59472e-09
6.54856e-09
8.76153e-09
1.10471e-08
9.59409e-09
9.99327e-09
0
8.74672e-12
1.53597e-11
7.0243e-12
1.92512e-12
3.00324e-12
4.36159e-12
4.73478e-12
7.10361e-12
1.68313e-11
4.47152e-11
1.14371e-10
2.7388e-10
6.15044e-10
1.31385e-09