/*--------------------------------*- C++ -*----------------------------------*\
  =========                 |
  \\      /  F ield         | OpenFOAM: The Open Source CFD Toolbox
   \\    /   O peration     | Website:  https://openfoam.org
    \\  /    A nd           | Version:  7
     \\/     M anipulation  |
\*---------------------------------------------------------------------------*/
FoamFile
{
    version     2.0;
    format      ascii;
    class       surfaceScalarField;
    location    "0.06";
    object      phi;
}
// * * * * * * * * * * * * * * * * * * * * * * * * * * * * * * * * * * * * * //

dimensions      [0 3 -1 0 0 0 0];

internalField   nonuniform List<scalar> 
139350
(
6.45961e-08
9.20354e-08
3.1961e-08
3.26351e-08
2.30778e-08
8.88325e-09
1.9592e-08
3.48578e-09
1.76493e-08
1.9427e-09
1.62313e-08
1.41802e-09
1.51082e-08
1.12309e-09
1.42045e-08
9.03737e-10
1.34625e-08
7.41972e-10
1.28391e-08
6.23356e-10
1.23056e-08
5.33564e-10
1.18425e-08
4.63097e-10
1.14362e-08
4.06316e-10
1.10765e-08
3.59678e-10
1.07557e-08
3.20765e-10
1.04679e-08
2.87848e-10
1.02082e-08
2.59656e-10
9.97297e-09
2.3524e-10
9.7591e-09
2.13874e-10
9.5641e-09
1.94999e-10
9.38593e-09
1.7817e-10
9.2229e-09
1.63033e-10
9.0736e-09
1.49297e-10
8.93688e-09
1.36724e-10
8.81176e-09
1.25111e-10
8.69748e-09
1.14286e-10
8.59338e-09
1.04098e-10
8.49896e-09
9.44178e-11
8.41384e-09
8.512e-11
8.33774e-09
7.61029e-11
8.27049e-09
6.72476e-11
8.21202e-09
5.84757e-11
8.16237e-09
4.96511e-11
8.12164e-09
4.07259e-11
8.09013e-09
3.15139e-11
8.06811e-09
2.20114e-11
8.05617e-09
1.19488e-11
8.05482e-09
1.34946e-12
8.06492e-09
-1.01039e-11
8.0875e-09
-2.25755e-11
8.12349e-09
-3.59905e-11
8.17521e-09
-5.17234e-11
8.24271e-09
-6.74953e-11
8.33249e-09
-8.9788e-11
8.43955e-09
-1.07052e-10
8.58549e-09
-1.45941e-10
8.74034e-09
-1.54859e-10
9.00877e-09
-2.68428e-10
9.01993e-09
-1.11525e-11
-4.33905e-09
1.3359e-08
1.26031e-07
1.27448e-07
9.12816e-08
6.73845e-08
7.1979e-08
2.81859e-08
6.12727e-08
1.4192e-08
5.48487e-08
8.36675e-09
5.03784e-08
5.88829e-09
4.69188e-08
4.5827e-09
4.41281e-08
3.69443e-09
4.1827e-08
3.04311e-09
3.98906e-08
2.55969e-09
3.8232e-08
2.1922e-09
3.67911e-08
1.90403e-09
3.55253e-08
1.67211e-09
3.44032e-08
1.48174e-09
3.3401e-08
1.32298e-09
3.25001e-08
1.18874e-09
3.16859e-08
1.07386e-09
3.09467e-08
9.74452e-10
3.0273e-08
8.87566e-10
2.96571e-08
8.10916e-10
2.90925e-08
7.42697e-10
2.85741e-08
6.81464e-10
2.80974e-08
6.2604e-10
2.76586e-08
5.75451e-10
2.72549e-08
5.28883e-10
2.68835e-08
4.85642e-10
2.65425e-08
4.45125e-10
2.62301e-08
4.06807e-10
2.5945e-08
3.70204e-10
2.56862e-08
3.34898e-10
2.5453e-08
3.00448e-10
2.5245e-08
2.66514e-10
2.5062e-08
2.32617e-10
2.49042e-08
1.98518e-10
2.47722e-08
1.63565e-10
2.46665e-08
1.27713e-10
2.45885e-08
8.99016e-11
2.45394e-08
5.04719e-11
2.45217e-08
7.54989e-12
2.4537e-08
-3.78905e-11
2.45898e-08
-8.87235e-11
2.4682e-08
-1.43919e-10
2.48209e-08
-2.06405e-10
2.50101e-08
-2.7899e-10
2.52596e-08
-3.56606e-10
2.55842e-08
-4.70533e-10
2.59751e-08
-5.457e-10
2.65741e-08
-8.67461e-10
2.70557e-08
-4.92728e-10
-6.01856e-09
2.87352e-08
1.58811e-07
1.3504e-07
1.36513e-07
8.96832e-08
1.17534e-07
4.7164e-08
1.03385e-07
2.83412e-08
9.34099e-08
1.83421e-08
8.61416e-08
1.31566e-08
8.0471e-08
1.02533e-08
7.58562e-08
8.30924e-09
7.20147e-08
6.88462e-09
6.87594e-08
5.81495e-09
6.59572e-08
4.99444e-09
6.35133e-08
4.34798e-09
6.13592e-08
3.82622e-09
5.94439e-08
3.39697e-09
5.77286e-08
3.03833e-09
5.61827e-08
2.73465e-09
5.4782e-08
2.47447e-09
5.35073e-08
2.24918e-09
5.23427e-08
2.0522e-09
5.12752e-08
1.87843e-09
5.0294e-08
1.72383e-09
4.93903e-08
1.58515e-09
4.85566e-08
1.45977e-09
4.77866e-08
1.34549e-09
4.7075e-08
1.2405e-09
4.64174e-08
1.14323e-09
4.58101e-08
1.05235e-09
4.52503e-08
9.6668e-10
4.47353e-08
8.85159e-10
4.42634e-08
8.06842e-10
4.3833e-08
7.30789e-10
4.34433e-08
6.56221e-10
4.30938e-08
5.82147e-10
4.27843e-08
5.07993e-10
4.25155e-08
4.32418e-10
4.22879e-08
3.55297e-10
4.21034e-08
2.74336e-10
4.19634e-08
1.90487e-10
4.18717e-08
9.92814e-11
4.18298e-08
3.991e-12
4.18452e-08
-1.04073e-10
4.19183e-08
-2.17064e-10
4.20637e-08
-3.51773e-10
4.22788e-08
-4.94132e-10
4.25904e-08
-6.68175e-10
4.29974e-08
-8.77489e-10
4.35255e-08
-1.07389e-09
4.42739e-08
-1.61578e-09
4.51747e-08
-1.39357e-09
-6.92852e-09
4.60847e-08
1.75667e-07
1.3089e-07
1.65609e-07
9.97409e-08
1.5276e-07
6.0013e-08
1.40191e-07
4.09096e-08
1.29538e-07
2.89952e-08
1.20935e-07
2.17595e-08
1.13866e-07
1.73224e-08
1.0793e-07
1.42452e-08
1.02875e-07
1.19393e-08
9.85196e-08
1.01709e-08
9.47225e-08
8.79145e-09
9.13788e-08
7.69176e-09
8.84084e-08
6.79658e-09
8.57501e-08
6.05523e-09
8.3356e-08
5.43248e-09
8.11878e-08
4.90286e-09
7.92148e-08
4.44749e-09
7.74119e-08
4.05204e-09
7.57586e-08
3.70552e-09
7.42377e-08
3.39928e-09
7.28351e-08
3.12648e-09
7.15387e-08
2.8816e-09
7.03383e-08
2.66011e-09
6.92255e-08
2.45826e-09
6.81931e-08
2.27293e-09
6.72349e-08
2.10142e-09
6.63459e-08
1.94142e-09
6.55216e-08
1.7909e-09
6.47587e-08
1.64805e-09
6.40544e-08
1.51122e-09
6.34063e-08
1.37883e-09
6.2813e-08
1.24951e-09
6.22736e-08
1.12163e-09
6.17874e-08
9.94165e-10
6.13549e-08
8.64921e-10
6.09765e-08
7.33633e-10
6.06544e-08
5.965e-10
6.03897e-08
4.55218e-10
6.01869e-08
3.02036e-10
6.00475e-08
1.43427e-10
5.99806e-08
-3.72057e-11
5.9986e-08
-2.22473e-10
6.00817e-08
-4.47513e-10
6.02631e-08
-6.75451e-10
6.05636e-08
-9.68662e-10
6.09774e-08
-1.2913e-09
6.15462e-08
-1.64268e-09
6.23325e-08
-2.40216e-09
6.3414e-08
-2.47505e-09
-7.74889e-09
6.42344e-08
1.84562e-07
1.23113e-07
1.82331e-07
1.01972e-07
1.7613e-07
6.62137e-08
1.67815e-07
4.92252e-08
1.59227e-07
3.75829e-08
1.51359e-07
2.96274e-08
1.44332e-07
2.43491e-08
1.38082e-07
2.04958e-08
1.32533e-07
1.74885e-08
1.276e-07
1.51035e-08
1.23198e-07
1.31935e-08
1.1925e-07
1.16401e-08
1.15691e-07
1.03558e-08
1.12467e-07
9.2791e-09
1.09534e-07
8.36548e-09
1.06855e-07
7.58202e-09
1.04398e-07
6.90373e-09
1.02139e-07
6.31129e-09
1.00055e-07
5.78962e-09
9.81275e-08
5.32676e-09
9.63409e-08
4.91306e-09
9.46818e-08
4.5407e-09
9.31387e-08
4.2032e-09
9.17018e-08
3.89518e-09
9.03626e-08
3.61206e-09
8.91141e-08
3.34994e-09
8.79501e-08
3.10544e-09
8.68654e-08
2.87556e-09
8.58558e-08
2.65765e-09
8.49178e-08
2.44928e-09
8.40485e-08
2.24812e-09
8.32458e-08
2.05216e-09
8.25084e-08
1.85902e-09
8.18355e-08
1.66714e-09
8.1227e-08
1.47339e-09
8.06833e-08
1.27731e-09
8.02064e-08
1.07348e-09
7.97973e-08
8.64265e-10
7.94608e-08
6.38527e-10
7.91984e-08
4.05837e-10
7.90195e-08
1.41728e-10
7.89244e-08
-1.27417e-10
7.89313e-08
-4.54365e-10
7.9037e-08
-7.81219e-10
7.92736e-08
-1.2052e-09
7.96407e-08
-1.65839e-09
8.01768e-08
-2.17883e-09
8.09362e-08
-3.1615e-09
8.20236e-08
-3.56248e-09
-8.55126e-09
8.2826e-08
1.9039e-07
1.1494e-07
1.9186e-07
1.00502e-07
1.90265e-07
6.78086e-08
1.86196e-07
5.32939e-08
1.80787e-07
4.29913e-08
1.75071e-07
3.5344e-08
1.69418e-07
3.00016e-08
1.63984e-07
2.59304e-08
1.58862e-07
2.26105e-08
1.54093e-07
1.98718e-08
1.49681e-07
1.7606e-08
1.45607e-07
1.57138e-08
1.41848e-07
1.41151e-08
1.38377e-07
1.27505e-08
1.35167e-07
1.1575e-08
1.32195e-07
1.05542e-08
1.29438e-07
9.66091e-09
1.26875e-07
8.87351e-09
1.2449e-07
8.1747e-09
1.22267e-07
7.55047e-09
1.2019e-07
6.98932e-09
1.18249e-07
6.48174e-09
1.16433e-07
6.01974e-09
1.14731e-07
5.59661e-09
1.13137e-07
5.20657e-09
1.11642e-07
4.84465e-09
1.10241e-07
4.50649e-09
1.08928e-07
4.18822e-09
1.077e-07
3.88637e-09
1.06551e-07
3.59775e-09
1.0548e-07
3.31932e-09
1.04484e-07
3.04838e-09
1.03561e-07
2.78182e-09
1.02711e-07
2.51754e-09
1.01933e-07
2.25147e-09
1.01227e-07
1.98283e-09
1.00596e-07
1.7047e-09
1.0004e-07
1.41988e-09
9.95645e-08
1.11415e-09
9.91709e-08
7.99491e-10
9.88679e-08
4.44734e-10
9.86574e-08
8.304e-11
9.85552e-08
-3.52163e-10
9.85628e-08
-7.88861e-10
9.87049e-08
-1.34723e-09
9.89928e-08
-1.94635e-09
9.94516e-08
-2.63764e-09
1.00139e-07
-3.84902e-09
1.01152e-07
-4.57501e-09
-9.28313e-09
1.01884e-07
1.95543e-07
1.07212e-07
1.98255e-07
9.77902e-08
1.98986e-07
6.70773e-08
1.97822e-07
5.44578e-08
1.95214e-07
4.55993e-08
1.91904e-07
3.86542e-08
1.88211e-07
3.36947e-08
1.84306e-07
2.98357e-08
1.80336e-07
2.658e-08
1.76412e-07
2.37964e-08
1.72599e-07
2.14184e-08
1.68937e-07
1.9376e-08
1.65444e-07
1.76076e-08
1.6213e-07
1.60652e-08
1.58993e-07
1.47117e-08
1.5603e-07
1.35171e-08
1.53234e-07
1.24567e-08
1.50597e-07
1.15105e-08
1.4811e-07
1.06617e-08
1.45765e-07
9.89618e-09
1.43552e-07
9.20228e-09
1.41463e-07
8.56998e-09
1.39492e-07
7.99076e-09
1.37632e-07
7.45725e-09
1.35875e-07
6.96306e-09
1.34217e-07
6.50254e-09
1.32653e-07
6.07072e-09
1.31178e-07
5.6631e-09
1.29789e-07
5.2756e-09
1.28482e-07
4.90444e-09
1.27256e-07
4.54599e-09
1.26107e-07
4.19696e-09
1.25035e-07
3.85361e-09
1.24039e-07
3.51331e-09
1.2312e-07
3.17117e-09
1.22277e-07
2.82605e-09
1.21512e-07
2.46971e-09
1.20826e-07
2.10507e-09
1.20225e-07
1.71549e-09
1.1971e-07
1.31426e-09
1.1929e-07
8.65416e-10
1.18967e-07
4.05754e-10
1.18754e-07
-1.39689e-10
1.18659e-07
-6.93812e-10
1.18697e-07
-1.3852e-09
1.18892e-07
-2.14069e-09
1.19254e-07
-3.00012e-09
1.19841e-07
-4.43559e-09
1.20742e-07
-5.47632e-09
-9.91407e-09
1.21373e-07
2.0085e-07
9.99462e-08
2.03783e-07
9.4857e-08
2.05343e-07
6.55172e-08
2.05673e-07
5.41284e-08
2.04866e-07
4.64063e-08
2.0341e-07
4.01095e-08
2.01495e-07
3.56098e-08
1.99204e-07
3.21267e-08
1.96643e-07
2.91416e-08
1.93912e-07
2.65267e-08
1.91093e-07
2.42376e-08
1.88245e-07
2.22245e-08
1.85411e-07
2.04415e-08
1.82623e-07
1.88532e-08
1.79902e-07
1.74321e-08
1.77264e-07
1.61554e-08
1.74717e-07
1.50041e-08
1.72265e-07
1.39619e-08
1.69912e-07
1.30148e-08
1.67658e-07
1.21507e-08
1.65501e-07
1.13592e-08
1.63439e-07
1.06312e-08
1.61472e-07
9.95853e-09
1.59595e-07
9.33423e-09
1.57806e-07
8.75195e-09
1.56102e-07
8.206e-09
1.54482e-07
7.69127e-09
1.52942e-07
7.20303e-09
1.51481e-07
6.73692e-09
1.50096e-07
6.28885e-09
1.48787e-07
5.85481e-09
1.47553e-07
5.43115e-09
1.46393e-07
5.01365e-09
1.45307e-07
4.59926e-09
1.44296e-07
4.18246e-09
1.4336e-07
3.7617e-09
1.42502e-07
3.32778e-09
1.41724e-07
2.88339e-09
1.41029e-07
2.41025e-09
1.40421e-07
1.92182e-09
1.39907e-07
1.37949e-09
1.39493e-07
8.20286e-10
1.39187e-07
1.66652e-10
1.39001e-07
-5.07945e-10
1.38943e-07
-1.32769e-09
1.39045e-07
-2.24281e-09
1.39311e-07
-3.266e-09
1.39785e-07
-4.90985e-09
1.40558e-07
-6.24909e-09
-1.04357e-08
1.4108e-07
2.06449e-07
9.30292e-08
2.09347e-07
9.19589e-08
2.11054e-07
6.3811e-08
2.1196e-07
5.32218e-08
2.12046e-07
4.63203e-08
2.11682e-07
4.04737e-08
2.1098e-07
3.63118e-08
2.09943e-07
3.31634e-08
2.08609e-07
3.04759e-08
2.07035e-07
2.81006e-08
2.05277e-07
2.59955e-08
2.03384e-07
2.41179e-08
2.01397e-07
2.24283e-08
1.99352e-07
2.08981e-08
1.97278e-07
1.9506e-08
1.95198e-07
1.82354e-08
1.9313e-07
1.70719e-08
1.91089e-07
1.60036e-08
1.89084e-07
1.50197e-08
1.87124e-07
1.41108e-08
1.85214e-07
1.32687e-08
1.8336e-07
1.24858e-08
1.81563e-07
1.17553e-08
1.79826e-07
1.10712e-08
1.7815e-07
1.04278e-08
1.76536e-07
9.81979e-09
1.74985e-07
9.24251e-09
1.73497e-07
8.69137e-09
1.72072e-07
8.16211e-09
1.7071e-07
7.65059e-09
1.69412e-07
7.15273e-09
1.68178e-07
6.66471e-09
1.6701e-07
6.18206e-09
1.65908e-07
5.70146e-09
1.64873e-07
5.21697e-09
1.63908e-07
4.72671e-09
1.63015e-07
4.22082e-09
1.62197e-07
3.70154e-09
1.61458e-07
3.14967e-09
1.60802e-07
2.57793e-09
1.60234e-07
1.94694e-09
1.59763e-07
1.29119e-09
1.59395e-07
5.35212e-10
1.59144e-07
-2.57507e-10
1.59014e-07
-1.19797e-09
1.5904e-07
-2.26834e-09
1.59222e-07
-3.44837e-09
1.59589e-07
-5.27665e-09
1.6023e-07
-6.89007e-09
-1.08502e-08
1.60645e-07
2.12291e-07
8.64004e-08
2.1516e-07
8.90895e-08
2.16808e-07
6.2163e-08
2.17873e-07
5.21572e-08
2.18305e-07
4.58887e-08
2.18441e-07
4.03373e-08
2.1839e-07
3.63629e-08
2.1812e-07
3.34332e-08
2.17625e-07
3.09716e-08
2.16922e-07
2.88035e-08
2.16035e-07
2.68817e-08
2.14991e-07
2.51623e-08
2.13814e-07
2.36053e-08
2.12529e-07
2.21827e-08
2.1116e-07
2.08749e-08
2.09728e-07
1.96676e-08
2.08251e-07
1.85491e-08
2.06745e-07
1.75098e-08
2.05223e-07
1.65414e-08
2.03697e-07
1.56367e-08
2.02177e-07
1.47893e-08
2.00669e-07
1.39931e-08
1.99182e-07
1.32428e-08
1.9772e-07
1.25334e-08
1.96287e-07
1.18601e-08
1.94888e-07
1.12185e-08
1.93527e-07
1.06044e-08
1.92204e-07
1.00136e-08
1.90924e-07
9.4422e-09
1.89689e-07
8.88626e-09
1.885e-07
8.34179e-09
1.87359e-07
7.80502e-09
1.8627e-07
7.27143e-09
1.85234e-07
6.73757e-09
1.84253e-07
6.19728e-09
1.83332e-07
5.6484e-09
1.82472e-07
5.08071e-09
1.81677e-07
4.4959e-09
1.80953e-07
3.87446e-09
1.80303e-07
3.22769e-09
1.79733e-07
2.51695e-09
1.79252e-07
1.77223e-09
1.78864e-07
9.23487e-10
1.78586e-07
2.03136e-11
1.78418e-07
-1.03007e-09
1.78394e-07
-2.2443e-09
1.78516e-07
-3.57047e-09
1.78793e-07
-5.55362e-09
1.79312e-07
-7.40881e-09
-1.11679e-08
1.79629e-07
2.18332e-07
8.00489e-08
2.21214e-07
8.62074e-08
2.22782e-07
6.05955e-08
2.23874e-07
5.10653e-08
2.24415e-07
4.53475e-08
2.24729e-07
4.00235e-08
2.24952e-07
3.61391e-08
2.25059e-07
3.33267e-08
2.25026e-07
3.10044e-08
2.24854e-07
2.89755e-08
2.24548e-07
2.7188e-08
2.24114e-07
2.55965e-08
2.2356e-07
2.41586e-08
2.22899e-07
2.28436e-08
2.22143e-07
2.16309e-08
2.21305e-07
2.05058e-08
2.20398e-07
1.94568e-08
2.19432e-07
1.84749e-08
2.18421e-07
1.75527e-08
2.17374e-07
1.66838e-08
2.16301e-07
1.58628e-08
2.15209e-07
1.50847e-08
2.14107e-07
1.43451e-08
2.13e-07
1.36396e-08
2.11896e-07
1.29644e-08
2.10799e-07
1.23155e-08
2.09714e-07
1.16893e-08
2.08646e-07
1.10822e-08
2.07597e-07
1.04905e-08
2.06573e-07
9.91058e-09
2.05576e-07
9.33862e-09
2.0461e-07
8.77099e-09
2.03679e-07
8.20318e-09
2.02784e-07
7.63175e-09
2.01931e-07
7.05042e-09
2.01123e-07
6.45684e-09
2.00363e-07
5.84062e-09
1.99656e-07
5.20285e-09
1.99006e-07
4.52419e-09
1.9842e-07
3.81406e-09
1.97901e-07
3.03572e-09
1.9746e-07
2.21336e-09
1.97099e-07
1.28464e-09
1.96836e-07
2.82929e-10
1.9667e-07
-8.63508e-10
1.9663e-07
-2.20451e-09
1.96721e-07
-3.66205e-09
1.96935e-07
-5.76732e-09
1.97352e-07
-7.82542e-09
-1.14067e-08
1.9759e-07
2.24561e-07
7.39811e-08
2.27479e-07
8.32896e-08
2.28979e-07
5.90952e-08
2.30077e-07
4.99678e-08
2.3066e-07
4.47645e-08
2.31022e-07
3.96606e-08
2.31336e-07
3.58257e-08
2.3159e-07
3.30727e-08
2.31765e-07
3.08297e-08
2.31858e-07
2.8882e-08
2.3187e-07
2.7176e-08
2.31799e-07
2.56676e-08
2.31645e-07
2.43129e-08
2.31409e-07
2.30792e-08
2.31096e-07
2.19441e-08
2.3071e-07
2.08916e-08
2.30257e-07
1.99092e-08
2.29745e-07
1.89876e-08
2.29178e-07
1.8119e-08
2.28565e-07
1.7297e-08
2.27912e-07
1.65162e-08
2.27225e-07
1.57719e-08
2.2651e-07
1.50599e-08
2.25773e-07
1.43763e-08
2.2502e-07
1.37175e-08
2.24256e-07
1.30799e-08
2.23485e-07
1.24602e-08
2.22712e-07
1.1855e-08
2.21942e-07
1.12608e-08
2.21178e-07
1.06744e-08
2.20425e-07
1.00918e-08
2.19686e-07
9.50974e-09
2.18966e-07
8.92357e-09
2.18267e-07
8.32988e-09
2.17596e-07
7.72235e-09
2.16954e-07
7.09843e-09
2.16347e-07
6.44774e-09
2.15779e-07
5.77066e-09
2.15255e-07
5.04842e-09
2.14781e-07
4.2882e-09
2.1436e-07
3.45603e-09
2.14004e-07
2.56954e-09
2.13713e-07
1.57532e-09
2.13506e-07
4.90194e-10
2.1338e-07
-7.36891e-10
2.13359e-07
-2.18369e-09
2.13451e-07
-3.7545e-09
2.13632e-07
-5.94851e-09
2.13974e-07
-8.16697e-09
-1.15898e-08
2.14157e-07
2.30982e-07
6.82052e-08
2.33944e-07
8.03279e-08
2.35385e-07
5.76539e-08
2.36489e-07
4.88636e-08
2.37106e-07
4.41474e-08
2.37485e-07
3.92817e-08
2.37821e-07
3.54902e-08
2.38121e-07
3.27724e-08
2.38371e-07
3.05794e-08
2.38574e-07
2.86796e-08
2.3873e-07
2.70193e-08
2.3884e-07
2.55582e-08
2.389e-07
2.42531e-08
2.38908e-07
2.30705e-08
2.38865e-07
2.1987e-08
2.38772e-07
2.09855e-08
2.38628e-07
2.00531e-08
2.38436e-07
1.91793e-08
2.38199e-07
1.83559e-08
2.3792e-07
1.75761e-08
2.37602e-07
1.68341e-08
2.37249e-07
1.6125e-08
2.36864e-07
1.54444e-08
2.36452e-07
1.47883e-08
2.36017e-07
1.41532e-08
2.35561e-07
1.35355e-08
2.35089e-07
1.29318e-08
2.34606e-07
1.23388e-08
2.34113e-07
1.17532e-08
2.33616e-07
1.11716e-08
2.33118e-07
1.05902e-08
2.32622e-07
1.00056e-08
2.32132e-07
9.41312e-09
2.31653e-07
8.80935e-09
2.31187e-07
8.18787e-09
2.3074e-07
7.54589e-09
2.30314e-07
6.87312e-09
2.29916e-07
6.16913e-09
2.29548e-07
5.41603e-09
2.29218e-07
4.6185e-09
2.28928e-07
3.7459e-09
2.28689e-07
2.80899e-09
2.285e-07
1.76371e-09
2.28379e-07
6.11295e-10
2.28323e-07
-6.80877e-10
2.28351e-07
-2.21108e-09
2.28471e-07
-3.87534e-09
2.2865e-07
-6.12669e-09
2.28945e-07
-8.4627e-09
-1.17429e-08
2.29098e-07
2.37603e-07
6.2727e-08
2.40611e-07
7.73195e-08
2.41996e-07
5.62693e-08
2.43105e-07
4.77541e-08
2.4376e-07
4.34926e-08
2.44153e-07
3.88887e-08
2.44495e-07
3.51486e-08
2.44808e-07
3.2459e-08
2.45082e-07
3.03055e-08
2.45322e-07
2.84401e-08
2.45533e-07
2.68079e-08
2.45718e-07
2.53737e-08
2.45874e-07
2.40964e-08
2.46002e-07
2.29428e-08
2.461e-07
2.18892e-08
2.46167e-07
2.09186e-08
2.46202e-07
2.00174e-08
2.46206e-07
1.91751e-08
2.46179e-07
1.83829e-08
2.46122e-07
1.76335e-08
2.46035e-07
1.69209e-08
2.45921e-07
1.62397e-08
2.4578e-07
1.55853e-08
2.45615e-07
1.49536e-08
2.45427e-07
1.43407e-08
2.4522e-07
1.37428e-08
2.44995e-07
1.31567e-08
2.44755e-07
1.25787e-08
2.44503e-07
1.20054e-08
2.44241e-07
1.14334e-08
2.43972e-07
1.08587e-08
2.437e-07
1.02778e-08
2.43427e-07
9.68601e-09
2.43157e-07
9.07966e-09
2.42893e-07
8.45228e-09
2.42638e-07
7.80074e-09
2.42396e-07
7.11492e-09
2.42172e-07
6.39347e-09
2.41968e-07
5.61955e-09
2.41791e-07
4.79523e-09
2.41644e-07
3.89344e-09
2.41535e-07
2.91822e-09
2.41464e-07
1.83453e-09
2.41445e-07
6.29935e-10
2.41477e-07
-7.1319e-10
2.41572e-07
-2.30551e-09
2.4174e-07
-4.04357e-09
2.41939e-07
-6.32512e-09
2.42215e-07
-8.73894e-09
-1.18899e-08
2.42362e-07
2.44433e-07
5.75502e-08
2.47481e-07
7.42713e-08
2.48817e-07
5.49334e-08
2.49927e-07
4.66438e-08
2.50622e-07
4.27984e-08
2.51032e-07
3.84779e-08
2.51379e-07
3.48018e-08
2.51699e-07
3.21392e-08
2.51982e-07
3.00231e-08
2.52233e-07
2.81888e-08
2.52462e-07
2.65787e-08
2.52673e-07
2.51626e-08
2.52867e-07
2.39025e-08
2.53044e-07
2.27657e-08
2.53205e-07
2.1729e-08
2.53348e-07
2.07755e-08
2.53473e-07
1.9892e-08
2.53581e-07
1.90677e-08
2.5367e-07
1.82939e-08
2.5374e-07
1.7563e-08
2.53792e-07
1.68689e-08
2.53826e-07
1.62059e-08
2.53842e-07
1.55694e-08
2.53841e-07
1.49548e-08
2.53823e-07
1.4358e-08
2.53791e-07
1.37754e-08
2.53744e-07
1.32031e-08
2.53685e-07
1.26377e-08
2.53615e-07
1.20753e-08
2.53536e-07
1.15123e-08
2.5345e-07
1.09449e-08
2.53359e-07
1.03691e-08
2.53265e-07
9.78018e-09
2.5317e-07
9.17422e-09
2.53078e-07
8.54465e-09
2.52991e-07
7.88795e-09
2.52911e-07
7.19423e-09
2.52844e-07
6.46111e-09
2.5279e-07
5.67295e-09
2.52756e-07
4.82914e-09
2.52744e-07
3.90625e-09
2.5276e-07
2.90206e-09
2.52805e-07
1.78963e-09
2.52889e-07
5.45469e-10
2.53013e-07
-8.37059e-10
2.53181e-07
-2.4733e-09
2.53405e-07
-4.2674e-09
2.53637e-07
-6.55777e-09
2.53914e-07
-9.01539e-09
-1.20489e-08
2.54073e-07
2.5148e-07
5.26765e-08
2.54559e-07
7.11926e-08
2.55857e-07
5.36358e-08
2.56962e-07
4.55384e-08
2.57695e-07
4.20659e-08
2.58126e-07
3.80463e-08
2.5848e-07
3.44483e-08
2.58806e-07
3.18132e-08
2.59094e-07
2.97345e-08
2.59351e-07
2.79319e-08
2.59587e-07
2.6343e-08
2.59807e-07
2.49425e-08
2.60014e-07
2.36956e-08
2.60209e-07
2.25705e-08
2.60394e-07
2.15445e-08
2.60568e-07
2.06011e-08
2.60733e-07
1.97274e-08
2.60888e-07
1.89129e-08
2.61032e-07
1.81489e-08
2.61167e-07
1.74281e-08
2.61292e-07
1.6744e-08
2.61407e-07
1.60911e-08
2.61512e-07
1.54646e-08
2.61607e-07
1.48598e-08
2.61692e-07
1.42727e-08
2.61768e-07
1.36992e-08
2.61836e-07
1.31355e-08
2.61896e-07
1.25779e-08
2.61948e-07
1.20225e-08
2.61995e-07
1.14655e-08
2.62037e-07
1.09028e-08
2.62076e-07
1.03305e-08
2.62113e-07
9.74336e-09
2.6215e-07
9.13748e-09
2.62188e-07
8.50615e-09
2.62231e-07
7.8454e-09
2.62279e-07
7.14561e-09
2.62337e-07
6.40337e-09
2.62406e-07
5.60426e-09
2.6249e-07
4.74513e-09
2.6259e-07
3.80595e-09
2.62713e-07
2.77907e-09
2.62858e-07
1.64429e-09
2.63034e-07
3.69985e-10
2.6324e-07
-1.04345e-09
2.63476e-07
-2.70956e-09
2.63754e-07
-4.54485e-09
2.64025e-07
-6.82893e-09
2.64313e-07
-9.30352e-09
-1.22309e-08
2.64495e-07
2.58753e-07
4.8106e-08
2.61853e-07
6.80935e-08
2.63123e-07
5.23658e-08
2.64218e-07
4.44428e-08
2.64986e-07
4.12976e-08
2.65441e-07
3.75918e-08
2.65802e-07
3.40871e-08
2.66135e-07
3.14807e-08
2.6643e-07
2.94394e-08
2.66692e-07
2.767e-08
2.66931e-07
2.61031e-08
2.67156e-07
2.47181e-08
2.67368e-07
2.34834e-08
2.6757e-07
2.23686e-08
2.67763e-07
2.1351e-08
2.6795e-07
2.04148e-08
2.6813e-07
1.95474e-08
2.68304e-07
1.87387e-08
2.68473e-07
1.798e-08
2.68636e-07
1.72643e-08
2.68795e-07
1.65851e-08
2.68949e-07
1.59371e-08
2.69099e-07
1.53153e-08
2.69243e-07
1.47151e-08
2.69384e-07
1.41323e-08
2.6952e-07
1.35629e-08
2.69653e-07
1.3003e-08
2.69782e-07
1.24487e-08
2.69908e-07
1.18962e-08
2.70032e-07
1.13414e-08
2.70155e-07
1.07801e-08
2.70277e-07
1.02083e-08
2.704e-07
9.62062e-09
2.70525e-07
9.0129e-09
2.70652e-07
8.37842e-09
2.70785e-07
7.71276e-09
2.70924e-07
7.00663e-09
2.71072e-07
6.25558e-09
2.7123e-07
5.44644e-09
2.71401e-07
4.57373e-09
2.71586e-07
3.62044e-09
2.71791e-07
2.57449e-09
2.72014e-07
1.42091e-09
2.72262e-07
1.22827e-10
2.72534e-07
-1.31583e-09
2.72826e-07
-3.00198e-09
2.73148e-07
-4.86688e-09
2.73455e-07
-7.1353e-09
2.73759e-07
-9.60737e-09
-1.24399e-08
2.73968e-07
2.66261e-07
4.38371e-08
2.6937e-07
6.49846e-08
2.70623e-07
5.11129e-08
2.71704e-07
4.33614e-08
2.72505e-07
4.04968e-08
2.72984e-07
3.71127e-08
2.73354e-07
3.37174e-08
2.73693e-07
3.11416e-08
2.73995e-07
2.91372e-08
2.74263e-07
2.74025e-08
2.74507e-07
2.58591e-08
2.74735e-07
2.44901e-08
2.7495e-07
2.32679e-08
2.75156e-07
2.2163e-08
2.75353e-07
2.11535e-08
2.75544e-07
2.02236e-08
2.75731e-07
1.93613e-08
2.75913e-07
1.85567e-08
2.76091e-07
1.78015e-08
2.76267e-07
1.70886e-08
2.7644e-07
1.64118e-08
2.76612e-07
1.57658e-08
2.76781e-07
1.51456e-08
2.76949e-07
1.45468e-08
2.77117e-07
1.39652e-08
2.77283e-07
1.33966e-08
2.77449e-07
1.28372e-08
2.77614e-07
1.2283e-08
2.7778e-07
1.17301e-08
2.77947e-07
1.11745e-08
2.78116e-07
1.06117e-08
2.78286e-07
1.00376e-08
2.7846e-07
9.44697e-09
2.78638e-07
8.8352e-09
2.78821e-07
8.19567e-09
2.7901e-07
7.52354e-09
2.79207e-07
6.80987e-09
2.79413e-07
6.04925e-09
2.7963e-07
5.22969e-09
2.7986e-07
4.34369e-09
2.80103e-07
3.3768e-09
2.80364e-07
2.31359e-09
2.80642e-07
1.14275e-09
2.8094e-07
-1.75226e-10
2.8126e-07
-1.63552e-09
2.81594e-07
-3.33544e-09
2.81948e-07
-5.22129e-09
2.82282e-07
-7.46931e-09
2.826e-07
-9.92591e-09
-1.26748e-08
2.82835e-07
2.74012e-07
3.98663e-08
2.7712e-07
6.18767e-08
2.78366e-07
4.98669e-08
2.79429e-07
4.22978e-08
2.80259e-07
3.96678e-08
2.80764e-07
3.66074e-08
2.81143e-07
3.33381e-08
2.81489e-07
3.07959e-08
2.81798e-07
2.88278e-08
2.82071e-07
2.71291e-08
2.8232e-07
2.56106e-08
2.82552e-07
2.42584e-08
2.82771e-07
2.3049e-08
2.82979e-07
2.19544e-08
2.8318e-07
2.09529e-08
2.83374e-07
2.00292e-08
2.83564e-07
1.91718e-08
2.83749e-07
1.83708e-08
2.83932e-07
1.76184e-08
2.84114e-07
1.69075e-08
2.84293e-07
1.62321e-08
2.84472e-07
1.55869e-08
2.84651e-07
1.4967e-08
2.8483e-07
1.43681e-08
2.85009e-07
1.37858e-08
2.85189e-07
1.32162e-08
2.85371e-07
1.26554e-08
2.85555e-07
1.20994e-08
2.85741e-07
1.15442e-08
2.85929e-07
1.09856e-08
2.86122e-07
1.04194e-08
2.86318e-07
9.84117e-09
2.8652e-07
9.24561e-09
2.86727e-07
8.62801e-09
2.86941e-07
7.9818e-09
2.87162e-07
7.30171e-09
2.87393e-07
6.5792e-09
2.87634e-07
5.80801e-09
2.87887e-07
4.97717e-09
2.88153e-07
4.0776e-09
2.88433e-07
3.09679e-09
2.88729e-07
2.01713e-09
2.89043e-07
8.29495e-10
2.89374e-07
-5.06143e-10
2.89724e-07
-1.98579e-09
2.90084e-07
-3.69581e-09
2.90459e-07
-5.59627e-09
2.90812e-07
-7.8223e-09
2.91142e-07
-1.02557e-08
-1.29317e-08
2.91399e-07
2.82016e-07
3.61882e-08
2.85111e-07
5.87815e-08
2.86359e-07
4.86183e-08
2.87403e-07
4.12546e-08
2.88255e-07
3.8815e-08
2.88788e-07
3.60747e-08
2.89178e-07
3.29481e-08
2.8953e-07
3.04437e-08
2.89847e-07
2.85111e-08
2.90127e-07
2.68494e-08
2.9038e-07
2.53573e-08
2.90616e-07
2.40227e-08
2.90838e-07
2.28266e-08
2.9105e-07
2.17425e-08
2.91254e-07
2.07494e-08
2.91451e-07
1.98321e-08
2.91643e-07
1.89795e-08
2.91832e-07
1.81822e-08
2.92018e-07
1.74324e-08
2.92202e-07
1.67232e-08
2.92385e-07
1.60488e-08
2.92568e-07
1.5404e-08
2.92751e-07
1.47838e-08
2.92935e-07
1.41841e-08
2.93121e-07
1.36005e-08
2.93308e-07
1.30291e-08
2.93497e-07
1.24659e-08
2.9369e-07
1.1907e-08
2.93885e-07
1.13484e-08
2.94085e-07
1.07859e-08
2.9429e-07
1.0215e-08
2.94499e-07
9.63145e-09
2.94715e-07
9.02981e-09
2.94938e-07
8.40522e-09
2.95168e-07
7.75119e-09
2.95408e-07
7.06209e-09
2.95658e-07
6.32973e-09
2.95918e-07
5.54716e-09
2.96191e-07
4.70425e-09
2.96478e-07
3.79071e-09
2.9678e-07
2.7955e-09
2.97097e-07
1.69973e-09
2.97431e-07
4.95338e-10
2.97781e-07
-8.5658e-10
2.9815e-07
-2.35403e-09
2.98526e-07
-4.07203e-09
2.98912e-07
-5.98241e-09
2.99277e-07
-8.18673e-09
2.99614e-07
-1.05929e-08
-1.32058e-08
2.99888e-07
2.90281e-07
3.27958e-08
2.93352e-07
5.57106e-08
2.94612e-07
4.73581e-08
2.95633e-07
4.02337e-08
2.96504e-07
3.79438e-08
2.97066e-07
3.55135e-08
2.97468e-07
3.25458e-08
2.97827e-07
3.0085e-08
2.98151e-07
2.8187e-08
2.98437e-07
2.6563e-08
2.98696e-07
2.50988e-08
2.98936e-07
2.37827e-08
2.99162e-07
2.26003e-08
2.99377e-07
2.15273e-08
2.99584e-07
2.05427e-08
2.99784e-07
1.9632e-08
2.99979e-07
1.87844e-08
3.0017e-07
1.79908e-08
3.00359e-07
1.72436e-08
3.00546e-07
1.65362e-08
3.00732e-07
1.58627e-08
3.00918e-07
1.52181e-08
3.01104e-07
1.45975e-08
3.01292e-07
1.39967e-08
3.01481e-07
1.34115e-08
3.01672e-07
1.28379e-08
3.01866e-07
1.2272e-08
3.02063e-07
1.17098e-08
3.02264e-07
1.11472e-08
3.0247e-07
1.05802e-08
3.02681e-07
1.00041e-08
3.02898e-07
9.41452e-09
3.03121e-07
8.80616e-09
3.03353e-07
8.17391e-09
3.03593e-07
7.51139e-09
3.03842e-07
6.81265e-09
3.04102e-07
6.06981e-09
3.04374e-07
5.27533e-09
3.04658e-07
4.41979e-09
3.04957e-07
3.49206e-09
3.0527e-07
2.48205e-09
3.056e-07
1.3704e-09
3.05946e-07
1.49304e-10
3.06307e-07
-1.21795e-09
3.06685e-07
-2.73191e-09
3.0707e-07
-4.45661e-09
3.07461e-07
-6.37336e-09
3.07831e-07
-8.55714e-09
3.08173e-07
-1.09346e-08
-1.3493e-08
3.0846e-07
2.98818e-07
2.96802e-08
3.01853e-07
5.26761e-08
3.03132e-07
4.60784e-08
3.0413e-07
3.9236e-08
3.05014e-07
3.70596e-08
3.05605e-07
3.49233e-08
3.06021e-07
3.21298e-08
3.06386e-07
2.97196e-08
3.06718e-07
2.78554e-08
3.07011e-07
2.62695e-08
3.07275e-07
2.48348e-08
3.07519e-07
2.35383e-08
3.0775e-07
2.23701e-08
3.07969e-07
2.13083e-08
3.08179e-07
2.03327e-08
3.08382e-07
1.94289e-08
3.0858e-07
1.85864e-08
3.08774e-07
1.77966e-08
3.08966e-07
1.70521e-08
3.09155e-07
1.63465e-08
3.09344e-07
1.56739e-08
3.09533e-07
1.50294e-08
3.09722e-07
1.44084e-08
3.09912e-07
1.38064e-08
3.10104e-07
1.32195e-08
3.10299e-07
1.26435e-08
3.10496e-07
1.20747e-08
3.10697e-07
1.15089e-08
3.10902e-07
1.09422e-08
3.11112e-07
1.03703e-08
3.11327e-07
9.78877e-09
3.11549e-07
9.19292e-09
3.11777e-07
8.57749e-09
3.12014e-07
7.93725e-09
3.12259e-07
7.26588e-09
3.12515e-07
6.55715e-09
3.12781e-07
5.80346e-09
3.1306e-07
4.99682e-09
3.13351e-07
4.12833e-09
3.13657e-07
3.18633e-09
3.13978e-07
2.16134e-09
3.14314e-07
1.03408e-09
3.14667e-07
-2.03508e-10
3.15034e-07
-1.58535e-09
3.15417e-07
-3.11453e-09
3.15805e-07
-4.84506e-09
3.16197e-07
-6.76535e-09
3.1657e-07
-8.93005e-09
3.16914e-07
-1.12789e-08
-1.37903e-08
3.17212e-07
3.07637e-07
2.68308e-08
3.10623e-07
4.969e-08
3.11929e-07
4.47725e-08
3.12903e-07
3.82613e-08
3.13795e-07
3.61677e-08
3.14414e-07
3.43045e-08
3.14845e-07
3.16984e-08
3.15218e-07
2.93472e-08
3.15557e-07
2.75165e-08
3.15858e-07
2.59686e-08
3.16128e-07
2.45649e-08
3.16377e-07
2.32891e-08
3.16611e-07
2.21357e-08
3.16834e-07
2.10855e-08
3.17048e-07
2.01191e-08
3.17254e-07
1.92223e-08
3.17455e-07
1.83852e-08
3.17653e-07
1.75994e-08
3.17847e-07
1.68577e-08
3.1804e-07
1.61538e-08
3.18231e-07
1.54822e-08
3.18423e-07
1.48379e-08
3.18615e-07
1.42163e-08
3.18808e-07
1.36132e-08
3.19003e-07
1.30244e-08
3.19201e-07
1.24461e-08
3.19401e-07
1.18742e-08
3.19605e-07
1.13049e-08
3.19813e-07
1.07339e-08
3.20027e-07
1.0157e-08
3.20246e-07
9.56982e-09
3.20471e-07
8.96752e-09
3.20704e-07
8.34486e-09
3.20945e-07
7.69645e-09
3.21194e-07
7.01603e-09
3.21454e-07
6.29715e-09
3.21725e-07
5.53242e-09
3.22009e-07
4.71353e-09
3.22305e-07
3.83194e-09
3.22616e-07
2.87575e-09
3.22941e-07
1.83577e-09
3.23282e-07
6.93233e-10
3.23639e-07
-5.6047e-10
3.2401e-07
-1.95616e-09
3.24395e-07
-3.49924e-09
3.24784e-07
-5.23489e-09
3.25176e-07
-7.15646e-09
3.25549e-07
-9.30347e-09
3.25895e-07
-1.16247e-08
-1.40954e-08
3.262e-07
3.16746e-07
2.42357e-08
3.19672e-07
4.67644e-08
3.21009e-07
4.3435e-08
3.21962e-07
3.73085e-08
3.22857e-07
3.52732e-08
3.23503e-07
3.36582e-08
3.23951e-07
3.12501e-08
3.24331e-07
2.89675e-08
3.24677e-07
2.71702e-08
3.24986e-07
2.566e-08
3.25262e-07
2.42886e-08
3.25517e-07
2.30347e-08
3.25755e-07
2.18967e-08
3.25982e-07
2.08586e-08
3.262e-07
1.99016e-08
3.2641e-07
1.90123e-08
3.26614e-07
1.81807e-08
3.26815e-07
1.73989e-08
3.27013e-07
1.66601e-08
3.27208e-07
1.59581e-08
3.27403e-07
1.52875e-08
3.27598e-07
1.46434e-08
3.27793e-07
1.40213e-08
3.27989e-07
1.34169e-08
3.28187e-07
1.28264e-08
3.28387e-07
1.22456e-08
3.28591e-07
1.16707e-08
3.28798e-07
1.10976e-08
3.2901e-07
1.05222e-08
3.29227e-07
9.94038e-09
3.29449e-07
9.34741e-09
3.29678e-07
8.73858e-09
3.29914e-07
8.10858e-09
3.30159e-07
7.45189e-09
3.30412e-07
6.76233e-09
3.30676e-07
6.03324e-09
3.30951e-07
5.25737e-09
3.31239e-07
4.42624e-09
3.31539e-07
3.53151e-09
3.31854e-07
2.56128e-09
3.32183e-07
1.50645e-09
3.32527e-07
3.4902e-10
3.32887e-07
-9.20242e-10
3.3326e-07
-2.32906e-09
3.33645e-07
-3.88467e-09
3.34035e-07
-5.62474e-09
3.34424e-07
-7.54577e-09
3.34797e-07
-9.67631e-09
3.35144e-07
-1.19713e-08
-1.44068e-08
3.35455e-07
3.26157e-07
2.18814e-08
3.2901e-07
4.39109e-08
3.30383e-07
4.20621e-08
3.31316e-07
3.63757e-08
3.32208e-07
3.43809e-08
3.32881e-07
3.29859e-08
3.33347e-07
3.07832e-08
3.33735e-07
2.85798e-08
3.34089e-07
2.68167e-08
3.34405e-07
2.53436e-08
3.34688e-07
2.40056e-08
3.34948e-07
2.27749e-08
3.35192e-07
2.1653e-08
3.35423e-07
2.06272e-08
3.35644e-07
1.96802e-08
3.35858e-07
1.87984e-08
3.36066e-07
1.79725e-08
3.3627e-07
1.7195e-08
3.36471e-07
1.64592e-08
3.3667e-07
1.57591e-08
3.36868e-07
1.50895e-08
3.37066e-07
1.44457e-08
3.37264e-07
1.3823e-08
3.37463e-07
1.32175e-08
3.37665e-07
1.26251e-08
3.37868e-07
1.20418e-08