/*--------------------------------*- C++ -*----------------------------------*\
  =========                 |
  \\      /  F ield         | OpenFOAM: The Open Source CFD Toolbox
   \\    /   O peration     | Website:  https://openfoam.org
    \\  /    A nd           | Version:  7
     \\/     M anipulation  |
\*---------------------------------------------------------------------------*/
FoamFile
{
    version     2.0;
    format      ascii;
    class       volVectorField;
    location    "0.06";
    object      U_0;
}
// * * * * * * * * * * * * * * * * * * * * * * * * * * * * * * * * * * * * * //

dimensions      [0 1 -1 0 0 0 0];

internalField   nonuniform List<vector> 
70000
(
(0.553396 0.0167226 0)
(0.251299 0.00340034 0)
(0.166285 0.000321286 0)
(0.132586 5.36731e-05 0)
(0.117447 4.51205e-05 0)
(0.107577 5.32853e-05 0)
(0.099686 4.56386e-05 0)
(0.0933047 3.6277e-05 0)
(0.0881203 2.99367e-05 0)
(0.083813 2.55818e-05 0)
(0.0801542 2.22527e-05 0)
(0.0769962 1.95759e-05 0)
(0.0742378 1.73816e-05 0)
(0.0718052 1.55558e-05 0)
(0.0696427 1.40138e-05 0)
(0.0677073 1.26926e-05 0)
(0.0659654 1.15449e-05 0)
(0.0643902 1.05352e-05 0)
(0.0629603 9.63583e-06 0)
(0.0616581 8.82522e-06 0)
(0.0604693 8.08604e-06 0)
(0.059382 7.40416e-06 0)
(0.0583866 6.76766e-06 0)
(0.0574748 6.16635e-06 0)
(0.05664 5.59113e-06 0)
(0.0558765 5.03423e-06 0)
(0.0551799 4.48763e-06 0)
(0.0545466 3.94534e-06 0)
(0.0539737 3.39884e-06 0)
(0.0534591 2.84417e-06 0)
(0.0530014 2.26943e-06 0)
(0.0525998 1.67359e-06 0)
(0.0522543 1.03927e-06 0)
(0.0519653 3.69205e-07 0)
(0.051734 -3.61402e-07 0)
(0.0515626 -1.15299e-06 0)
(0.0514526 -2.03001e-06 0)
(0.0514103 -3.02765e-06 0)
(0.0514343 -4.1345e-06 0)
(0.051542 -5.35736e-06 0)
(0.051718 -6.39903e-06 0)
(0.0520122 -8.4076e-06 0)
(0.052361 -9.20155e-06 0)
(0.0529104 -1.30655e-05 0)
(0.0534473 -1.21882e-05 0)
(0.054394 -2.14028e-05 0)
(0.0551153 -1.41873e-05 0)
(0.0567312 -3.93013e-05 0)
(0.0579687 3.04507e-05 0)
(0.0556732 -0.00217881 0)
(0.884902 0.0431653 0)
(0.649774 0.0201898 0)
(0.494476 0.00659291 0)
(0.403936 0.00276171 0)
(0.355133 0.00154576 0)
(0.323961 0.00112501 0)
(0.300239 0.000903544 0)
(0.281184 0.000739411 0)
(0.265615 0.000616338 0)
(0.252641 0.000525362 0)
(0.24161 0.000456234 0)
(0.232082 0.000401756 0)
(0.22375 0.000357639 0)
(0.216393 0.000321205 0)
(0.209843 0.000290634 0)
(0.203971 0.000264618 0)
(0.198677 0.000242193 0)
(0.19388 0.000222636 0)
(0.189515 0.000205392 0)
(0.18553 0.000190028 0)
(0.181882 0.000176202 0)
(0.178534 0.000163634 0)
(0.175457 0.000152095 0)
(0.172625 0.000141391 0)
(0.170019 0.000131355 0)
(0.167621 0.000121841 0)
(0.165416 0.000112718 0)
(0.163393 0.000103865 0)
(0.161544 9.51666e-05 0)
(0.159859 8.65172e-05 0)
(0.158336 7.77962e-05 0)
(0.156968 6.89112e-05 0)
(0.155756 5.97117e-05 0)
(0.154699 5.0125e-05 0)
(0.1538 3.99312e-05 0)
(0.153062 2.91035e-05 0)
(0.152488 1.72917e-05 0)
(0.152095 4.57754e-06 0)
(0.151877 -9.35103e-06 0)
(0.151879 -2.55334e-05 0)
(0.152058 -4.34543e-05 0)
(0.152546 -6.41291e-05 0)
(0.153173 -8.68676e-05 0)
(0.15432 -0.000116353 0)
(0.155426 -0.000144696 0)
(0.157584 -0.000194746 0)
(0.159159 -0.000220251 0)
(0.162952 -0.000369537 0)
(0.165695 -6.037e-05 0)
(0.167122 -0.00397756 0)
(0.991237 0.0498977 0)
(0.890396 0.0307098 0)
(0.762843 0.0145852 0)
(0.656984 0.00796526 0)
(0.585828 0.00486932 0)
(0.536605 0.00345454 0)
(0.498931 0.00271822 0)
(0.468511 0.00222531 0)
(0.443399 0.00186166 0)
(0.422294 0.00158956 0)
(0.404248 0.0013816 0)
(0.388595 0.00121776 0)
(0.37486 0.00108523 0)
(0.362692 0.000975853 0)
(0.351829 0.000884125 0)
(0.342066 0.000806115 0)
(0.333241 0.000738934 0)
(0.325225 0.000680417 0)
(0.317913 0.000628904 0)
(0.311221 0.000583103 0)
(0.305077 0.000541987 0)
(0.299424 0.000504728 0)
(0.294211 0.000470639 0)
(0.289399 0.000439148 0)
(0.284952 0.000409763 0)
(0.280842 0.000382057 0)
(0.277044 0.000355648 0)
(0.273539 0.00033019 0)
(0.270311 0.000305351 0)
(0.267346 0.000280828 0)
(0.264635 0.000256293 0)
(0.26217 0.000231471 0)
(0.259947 0.00020597 0)
(0.257965 0.000179562 0)
(0.256224 0.000151675 0)
(0.25473 0.000122225 0)
(0.253485 9.02325e-05 0)
(0.25251 5.60134e-05 0)
(0.251797 1.80338e-05 0)
(0.251409 -2.33374e-05 0)
(0.251283 -7.28863e-05 0)
(0.251606 -0.000126354 0)
(0.252132 -0.000189916 0)
(0.253405 -0.000261913 0)
(0.254625 -0.000346766 0)
(0.257322 -0.000459881 0)
(0.259226 -0.000555618 0)
(0.264166 -0.000871245 0)
(0.267371 -0.000616814 0)
(0.273087 -0.00475281 0)
(1.01559 0.0489154 0)
(1.00599 0.0358616 0)
(0.936077 0.0207713 0)
(0.852397 0.0134797 0)
(0.782642 0.00918051 0)
(0.727654 0.00675169 0)
(0.682799 0.00535218 0)
(0.645281 0.00441174 0)
(0.613508 0.00371703 0)
(0.586288 0.00319035 0)
(0.562685 0.00278321 0)
(0.54199 0.00246035 0)
(0.523675 0.00219815 0)
(0.507337 0.00198111 0)
(0.492664 0.00179864 0)
(0.479408 0.00164316 0)
(0.46737 0.00150908 0)
(0.456391 0.00139218 0)
(0.446339 0.00128924 0)
(0.437104 0.00119772 0)
(0.428597 0.00111561 0)
(0.420742 0.00104128 0)
(0.413474 0.000973392 0)
(0.406739 0.000910806 0)
(0.400492 0.000852567 0)
(0.394694 0.000797836 0)
(0.389313 0.000745873 0)
(0.384322 0.000696 0)
(0.379697 0.000647588 0)
(0.375421 0.000600045 0)
(0.371478 0.000552758 0)
(0.367859 0.000505183 0)
(0.364555 0.000456606 0)
(0.361563 0.000406568 0)
(0.358881 0.000354025 0)
(0.356514 0.000298795 0)
(0.354464 0.000239004 0)
(0.352753 0.000175315 0)
(0.35137 0.000103847 0)
(0.350387 2.82576e-05 0)
(0.349732 -6.1805e-05 0)
(0.349618 -0.000158398 0)
(0.349763 -0.000277172 0)
(0.350784 -0.000402805 0)
(0.351782 -0.000564555 0)
(0.354457 -0.000753066 0)
(0.356323 -0.000951756 0)
(0.361528 -0.001429 0)
(0.364734 -0.00136824 0)
(0.372216 -0.00531078 0)
(1.01434 0.0459981 0)
(1.04755 0.0374718 0)
(1.02467 0.0241243 0)
(0.974968 0.0175243 0)
(0.923824 0.0130821 0)
(0.877259 0.0101616 0)
(0.835334 0.00829465 0)
(0.797845 0.00697107 0)
(0.764554 0.00595934 0)
(0.735019 0.00517021 0)
(0.708724 0.00454667 0)
(0.685197 0.00404441 0)
(0.664037 0.00363184 0)
(0.644913 0.00328729 0)
(0.62755 0.00299556 0)
(0.611718 0.00274554 0)
(0.597228 0.00252894 0)
(0.58392 0.0023394 0)
(0.571659 0.00217199 0)
(0.560333 0.00202282 0)
(0.549845 0.00188878 0)
(0.540113 0.00176733 0)
(0.531068 0.00165634 0)
(0.522649 0.00155406 0)
(0.514805 0.00145897 0)
(0.507492 0.00136973 0)
(0.500674 0.00128518 0)
(0.494317 0.00120425 0)
(0.488396 0.00112595 0)
(0.482889 0.00104933 0)
(0.477778 0.000973454 0)
(0.473048 0.000897449 0)
(0.468691 0.000820225 0)
(0.4647 0.000741042 0)
(0.461071 0.000658316 0)
(0.457809 0.000571731 0)
(0.454914 0.000478415 0)
(0.452408 0.000379391 0)
(0.450279 0.000268663 0)
(0.448598 0.000150861 0)
(0.447296 1.33832e-05 0)
(0.446584 -0.000132515 0)
(0.446187 -0.000315281 0)
(0.44671 -0.000503312 0)
(0.447287 -0.000752491 0)
(0.449548 -0.00102742 0)
(0.451169 -0.00134498 0)
(0.455976 -0.00198131 0)
(0.459121 -0.00216565 0)
(0.466411 -0.00589557 0)
(1.00933 0.0429089 0)
(1.05529 0.0372445 0)
(1.05875 0.0252632 0)
(1.03653 0.0197152 0)
(1.00739 0.0157592 0)
(0.976523 0.0128766 0)
(0.945215 0.0108949 0)
(0.914596 0.00940866 0)
(0.885512 0.00821508 0)
(0.85834 0.00724468 0)
(0.833156 0.00645233 0)
(0.809893 0.00579772 0)
(0.788429 0.00524925 0)
(0.768618 0.00478391 0)
(0.750314 0.00438479 0)
(0.733378 0.00403908 0)
(0.71768 0.00373692 0)
(0.703104 0.00347054 0)
(0.689547 0.00323382 0)
(0.676916 0.00302181 0)
(0.665131 0.00283049 0)
(0.654119 0.00265654 0)
(0.643818 0.00249716 0)
(0.634173 0.00234999 0)
(0.625136 0.00221298 0)
(0.616665 0.00208433 0)
(0.608723 0.00196245 0)
(0.60128 0.00184586 0)
(0.594309 0.0017332 0)
(0.587787 0.00162317 0)
(0.581696 0.00151447 0)
(0.576022 0.0014059 0)
(0.570755 0.00129596 0)
(0.565886 0.0011836 0)
(0.561414 0.00106668 0)
(0.557339 0.000944712 0)
(0.553663 0.000813819 0)
(0.550404 0.000675311 0)
(0.547556 0.000521033 0)
(0.545181 0.000357333 0)
(0.54322 0.000166091 0)
(0.541864 -3.38296e-05 0)
(0.540876 -0.000284749 0)
(0.540788 -0.000542286 0)
(0.540865 -0.000882382 0)
(0.542499 -0.00125436 0)
(0.543775 -0.00169361 0)
(0.547811 -0.0024941 0)
(0.550816 -0.00292375 0)
(0.557168 -0.00645773 0)
(1.00625 0.0400267 0)
(1.05208 0.036315 0)
(1.06615 0.0251883 0)
(1.05973 0.020508 0)
(1.0471 0.0171759 0)
(1.03117 0.0145834 0)
(1.01245 0.0127387 0)
(0.991988 0.0113071 0)
(0.970825 0.0101052 0)
(0.949691 0.00908518 0)
(0.929025 0.00822118 0)
(0.909086 0.00748507 0)
(0.890018 0.00685214 0)
(0.871886 0.00630331 0)
(0.85471 0.00582383 0)
(0.838475 0.00540199 0)
(0.82315 0.00502834 0)
(0.808694 0.00469518 0)
(0.79506 0.00439619 0)
(0.782202 0.00412614 0)
(0.770073 0.00388066 0)
(0.758629 0.00365607 0)
(0.747828 0.00344919 0)
(0.737633 0.0032573 0)
(0.728007 0.003078 0)
(0.718921 0.00290913 0)
(0.710346 0.00274878 0)
(0.702257 0.00259514 0)
(0.694633 0.00244655 0)
(0.687456 0.00230138 0)
(0.680711 0.00215802 0)
(0.674386 0.00201493 0)
(0.668473 0.00187025 0)
(0.662966 0.00172263 0)
(0.657862 0.00156938 0)
(0.653165 0.0014098 0)
(0.648876 0.00123911 0)
(0.645012 0.00105871 0)
(0.64157 0.000858646 0)
(0.638605 0.000646313 0)
(0.636073 0.000399558 0)
(0.634133 0.000140777 0)
(0.632603 -0.000178986 0)
(0.631914 -0.000511099 0)
(0.6315 -0.00094124 0)
(0.632456 -0.00141851 0)
(0.633345 -0.00197695 0)
(0.636503 -0.00294129 0)
(0.63922 -0.00360903 0)
(0.644495 -0.00695229 0)
(1.00495 0.037348 0)
(1.04729 0.035231 0)
(1.06403 0.0246449 0)
(1.06437 0.0205288 0)
(1.06087 0.0177056 0)
(1.05506 0.0154152 0)
(1.04645 0.0137825 0)
(1.03544 0.0125129 0)
(1.02274 0.0114196 0)
(1.00895 0.0104606 0)
(0.994532 0.00962232 0)
(0.979827 0.00888716 0)
(0.965102 0.008238 0)
(0.950545 0.00766141 0)
(0.936293 0.00714679 0)
(0.922435 0.00668539 0)
(0.90903 0.00626981 0)
(0.896111 0.00589375 0)
(0.883697 0.00555183 0)
(0.871793 0.00523942 0)
(0.860398 0.00495252 0)
(0.849503 0.00468762 0)
(0.839097 0.00444164 0)
(0.829166 0.00421185 0)
(0.819698 0.00399576 0)
(0.810678 0.00379114 0)
(0.802092 0.0035959 0)
(0.793929 0.00340807 0)
(0.786176 0.0032258 0)
(0.778825 0.00304725 0)
(0.771867 0.00287054 0)
(0.765296 0.00269391 0)
(0.759109 0.00251518 0)
(0.753304 0.0023327 0)
(0.747882 0.00214336 0)
(0.742849 0.00194619 0)
(0.738208 0.00173566 0)
(0.733977 0.00151307 0)
(0.730158 0.00126712 0)
(0.726796 0.00100549 0)
(0.723866 0.000703639 0)
(0.721493 0.000384222 0)
(0.71955 -3.68704e-06 0)
(0.71837 -0.000412673 0)
(0.717545 -0.000929338 0)
(0.717895 -0.00151556 0)
(0.718408 -0.0021897 0)
(0.720743 -0.00330858 0)
(0.723058 -0.00420461 0)
(0.7273 -0.00736704 0)
(1.0044 0.0347992 0)
(1.04326 0.0341557 0)
(1.06 0.0240005 0)
(1.0624 0.0202301 0)
(1.06268 0.0177627 0)
(1.06208 0.0156873 0)
(1.05963 0.0142255 0)
(1.05524 0.0131187 0)
(1.0492 0.0121651 0)
(1.04184 0.0113159 0)
(1.03343 0.0105598 0)
(1.02422 0.00988342 0)
(1.01445 0.00927354 0)
(1.00431 0.00872033 0)
(0.993955 0.00821652 0)
(0.983519 0.00775615 0)
(0.973104 0.00733415 0)
(0.962789 0.00694605 0)
(0.952636 0.0065879 0)
(0.94269 0.00625618 0)
(0.932985 0.00594774 0)
(0.923545 0.00565971 0)
(0.91439 0.00538946 0)
(0.90553 0.00513459 0)
(0.896974 0.00489284 0)
(0.888727 0.00466208 0)
(0.880793 0.00444033 0)
(0.873172 0.0042256 0)
(0.865868 0.004016 0)
(0.858881 0.0038096 0)
(0.852213 0.00360441 0)
(0.845865 0.00339849 0)
(0.839842 0.00318945 0)
(0.834147 0.00297542 0)
(0.828788 0.00275295 0)
(0.823771 0.00252078 0)
(0.819108 0.00227286 0)
(0.814814 0.00201019 0)
(0.810898 0.00172057 0)
(0.807399 0.00141139 0)
(0.804307 0.00105682 0)
(0.801719 0.000678621 0)
(0.799555 0.000225145 0)
(0.798063 -0.000260382 0)
(0.796969 -0.000858211 0)
(0.796862 -0.00155171 0)
(0.797067 -0.00233736 0)
(0.798716 -0.00359521 0)
(0.800598 -0.00470386 0)
(0.80391 -0.00770183 0)
(1.00402 0.0323583 0)
(1.03993 0.0331035 0)
(1.05622 0.0233741 0)
(1.05904 0.0198371 0)
(1.0604 0.017626 0)
(1.06184 0.0156835 0)
(1.06232 0.0143208 0)
(1.06156 0.0133267 0)
(1.05965 0.0124869 0)
(1.05671 0.0117411 0)
(1.05282 0.0110758 0)
(1.04809 0.0104771 0)
(1.04266 0.0099318 0)
(1.03665 0.00943081 0)
(1.03017 0.00896796 0)
(1.02334 0.00853865 0)
(1.01624 0.00813915 0)
(1.00897 0.00776629 0)
(1.00159 0.00741727 0)
(0.994172 0.00708957 0)
(0.986753 0.00678088 0)
(0.979382 0.00648905 0)
(0.972092 0.00621204 0)
(0.964913 0.00594791 0)
(0.957869 0.00569477 0)
(0.950979 0.00545079 0)
(0.944262 0.00521416 0)
(0.93773 0.00498305 0)
(0.931398 0.00475563 0)
(0.925277 0.00453002 0)
(0.919377 0.00430417 0)
(0.913708 0.0040761 0)
(0.908282 0.00384327 0)
(0.903108 0.00360367 0)
(0.8982 0.0033536 0)
(0.89357 0.00309156 0)
(0.889231 0.0028111 0)
(0.885202 0.00251285 0)
(0.881498 0.00218411 0)
(0.878152 0.00183143 0)
(0.875165 0.0014289 0)
(0.872616 0.000995646 0)
(0.870458 0.000482583 0)
(0.868875 -7.7403e-05 0)
(0.867691 -0.000749146 0)
(0.867319 -0.00154309 0)
(0.867333 -0.00243393 0)
(0.86847 -0.00381124 0)
(0.869961 -0.00511031 0)
(0.872485 -0.00796212 0)
(1.00364 0.0300171 0)
(1.03694 0.0320536 0)
(1.05288 0.0227808 0)
(1.0558 0.019427 0)
(1.05731 0.0174277 0)
(1.05929 0.0155757 0)
(1.06084 0.0142588 0)
(1.06165 0.0133259 0)
(1.06179 0.0125578 0)
(1.0613 0.0118843 0)
(1.06017 0.0112892 0)
(1.05841 0.0107572 0)
(1.05607 0.010274 0)
(1.0532 0.00982906 0)
(1.04984 0.00941589 0)
(1.04607 0.00902978 0)
(1.04193 0.0086672 0)
(1.0375 0.00832534 0)
(1.03283 0.00800184 0)
(1.02796 0.00769467 0)
(1.02295 0.00740203 0)
(1.01783 0.00712221 0)
(1.01265 0.00685361 0)
(1.00743 0.00659464 0)
(1.00221 0.00634376 0)
(0.997007 0.00609939 0)
(0.991854 0.00585993 0)
(0.986767 0.00562373 0)
(0.981768 0.00538907 0)
(0.976873 0.00515412 0)
(0.972099 0.00491688 0)
(0.967463 0.00467533 0)
(0.962981 0.00442687 0)
(0.958668 0.00416939 0)
(0.95454 0.003899 0)
(0.950614 0.00361399 0)
(0.946907 0.00330768 0)
(0.94344 0.00298021 0)
(0.940229 0.00261876 0)
(0.937308 0.00222864 0)
(0.934685 0.00178473 0)
(0.932422 0.00130247 0)
(0.930497 0.000737108 0)
(0.929044 0.000110406 0)
(0.927962 -0.000628047 0)
(0.927529 -0.00151233 0)
(0.927494 -0.00249934 0)
(0.928311 -0.003974 0)
(0.929502 -0.00543596 0)
(0.931406 -0.00815888 0)
(1.00327 0.0277765 0)
(1.03411 0.0309926 0)
(1.04976 0.0222138 0)
(1.05284 0.0190146 0)
(1.05431 0.0172104 0)
(1.05635 0.0154386 0)
(1.05817 0.0141423 0)
(1.0595 0.0132382 0)
(1.06044 0.0125091 0)
(1.06105 0.0118773 0)
(1.06129 0.0113254 0)
(1.06116 0.0108381 0)
(1.06064 0.0103998 0)
(1.05975 0.0099991 0)
(1.05849 0.00962828 0)
(1.05688 0.00928204 0)
(1.05496 0.00895639 0)
(1.05274 0.00864824 0)
(1.05026 0.00835512 0)
(1.04756 0.00807497 0)
(1.04465 0.00780604 0)
(1.04157 0.00754672 0)
(1.03836 0.00729556 0)
(1.03503 0.00705112 0)
(1.03161 0.00681199 0)
(1.02813 0.00657672 0)
(1.02461 0.00634386 0)
(1.02108 0.00611182 0)
(1.01754 0.00587896 0)
(1.01402 0.0056435 0)
(1.01054 0.00540342 0)
(1.00712 0.00515671 0)
(1.00378 0.00490068 0)
(1.00053 0.00463313 0)
(0.997383 0.00435005 0)
(0.994371 0.00404951 0)
(0.991506 0.00372469 0)
(0.98881 0.0033752 0)
(0.986302 0.00298836 0)
(0.984011 0.00256802 0)
(0.981951 0.00209041 0)
(0.980172 0.00156678 0)
(0.978668 0.000957416 0)
(0.977536 0.000274445 0)
(0.976725 -0.000522331 0)
(0.976413 -0.0014842 0)
(0.976469 -0.00255605 0)
(0.977147 -0.00410489 0)
(0.978156 -0.00569908 0)
(0.979617 -0.00830782 0)
(1.00292 0.0256398 0)
(1.0314 0.0299157 0)
(1.04676 0.0216688 0)
(1.05005 0.0186 0)
(1.0515 0.0169808 0)
(1.0535 0.0152942 0)
(1.05534 0.014012 0)
(1.05679 0.0131221 0)
(1.05797 0.0124147 0)
(1.05896 0.0118053 0)
(1.05976 0.0112765 0)
(1.06035 0.0108141 0)
(1.06073 0.0104027 0)
(1.06088 0.01003 0)
(1.06081 0.00968789 0)
(1.0605 0.00937044 0)
(1.05997 0.00907314 0)
(1.05922 0.0087925 0)
(1.05827 0.00852568 0)
(1.05712 0.00827037 0)
(1.05579 0.00802462 0)
(1.0543 0.00778668 0)
(1.05265 0.007555 0)
(1.05088 0.00732809 0)
(1.04899 0.0071045 0)
(1.04701 0.00688278 0)
(1.04495 0.00666142 0)
(1.04282 0.00643887 0)
(1.04065 0.00621343 0)
(1.03845 0.0059833 0)
(1.03623 0.00574642 0)
(1.03402 0.00550069 0)
(1.03182 0.00524335 0)
(1.02967 0.00497208 0)
(1.02756 0.00468275 0)
(1.02553 0.00437319 0)
(1.02358 0.00403651 0)
(1.02175 0.00367175 0)
(1.02004 0.00326655 0)
(1.01848 0.00282314 0)
(1.0171 0.00231955 0)
(1.01592 0.00176248 0)
(1.01495 0.00111814 0)
(1.01426 0.000387799 0)
(1.01384 -0.000456952 0)
(1.01379 -0.0014818 0)
(1.01404 -0.00262548 0)
(1.01473 -0.00422614 0)
(1.01567 -0.005921 0)
(1.01686 -0.00842744 0)
(1.0026 0.0236099 0)
(1.02881 0.0288218 0)
(1.04384 0.0211447 0)
(1.04736 0.0181832 0)
(1.04881 0.0167374 0)
(1.05078 0.015145 0)
(1.05262 0.0138788 0)
(1.05407 0.0129985 0)
(1.05529 0.0123061 0)
(1.05637 0.0117105 0)
(1.05733 0.0111939 0)
(1.05819 0.0107444 0)
(1.05893 0.010347 0)
(1.05954 0.00998958 0)
(1.06002 0.00966381 0)
(1.06038 0.00936356 0)
(1.0606 0.0090841 0)
(1.06069 0.00882165 0)
(1.06064 0.00857311 0)
(1.06045 0.00833593 0)
(1.06014 0.0081079 0)
(1.05971 0.0078871 0)
(1.05915 0.00767179 0)
(1.05849 0.00746031 0)
(1.05773 0.00725111 0)
(1.05688 0.0070426 0)
(1.05594 0.0068332 0)
(1.05494 0.00662122 0)
(1.05387 0.00640488 0)
(1.05276 0.0061823 0)
(1.05162 0.00595129 0)
(1.05045 0.00570966 0)
(1.04927 0.0054545 0)
(1.04809 0.00518335 0)
(1.04694 0.00489195 0)
(1.04581 0.00457787 0)
(1.04474 0.00423419 0)
(1.04373 0.00385932 0)
(1.0428 0.0034414 0)
(1.04198 0.0029809 0)
(1.04127 0.00245795 0)
(1.04071 0.0018747 0)
(1.04031 0.00120321 0)
(1.04012 0.000434961 0)
(1.04013 -0.000448023 0)
(1.0404 -0.00152181 0)
(1.04091 -0.00272419 0)
(1.04171 -0.00435675 0)
(1.04268 -0.00612231 0)
(1.04373 -0.00853604 0)
(1.0023 0.0216884 0)
(1.02636 0.0277117 0)
(1.04101 0.0206397 0)
(1.04475 0.0177655 0)
(1.04623 0.016479 0)
(1.04816 0.0149895 0)
(1.05 0.0137438 0)
(1.05145 0.0128722 0)
(1.05265 0.0121931 0)
(1.05374 0.0116087 0)
(1.05473 0.0111003 0)
(1.05565 0.010658 0)
(1.0565 0.0102679 0)
(1.05727 0.0099183 0)
(1.05798 0.00960083 0)
(1.05861 0.00930948 0)
(1.05917 0.00903953 0)
(1.05966 0.00878715 0)
(1.06007 0.00854915 0)
(1.06041 0.00832283 0)
(1.06066 0.00810587 0)
(1.06084 0.00789619 0)
(1.06094 0.00769191 0)
(1.06097 0.00749124 0)
(1.06093 0.00729248 0)
(1.06083 0.00709393 0)
(1.06066 0.00689385 0)
(1.06044 0.00669047 0)
(1.06016 0.00648186 0)
(1.05985 0.006266 0)
(1.0595 0.00604059 0)
(1.05913 0.00580329 0)
(1.05874 0.00555105 0)
(1.05834 0.00528124 0)
(1.05795 0.00498945 0)
(1.05757 0.00467298 0)
(1.05721 0.00432493 0)
(1.0569 0.00394302 0)
(1.05664 0.00351601 0)
(1.05646 0.00304258 0)
(1.05635 0.00250506 0)
(1.05636 0.00190129 0)
(1.05648 0.00120877 0)
(1.05674 0.000410815 0)
(1.05717 -0.000502302 0)
(1.05777 -0.00161266 0)
(1.05855 -0.00286143 0)
(1.05951 -0.00450961 0)
(1.06055 -0.00631947 0)
(1.06157 -0.00864868 0)
(1.00204 0.0198761 0)
(1.02404 0.0265885 0)
(1.03828 0.0201508 0)
(1.04223 0.017349 0)
(1.04373 0.0162056 0)
(1.04563 0.0148262 0)
(1.04747 0.0136065 0)
(1.04892 0.0127436 0)
(1.05011 0.0120777 0)
(1.05118 0.0115044 0)
(1.05217 0.0110032 0)
(1.0531 0.0105662 0)
(1.05396 0.0101808 0)
(1.05477 0.00983558 0)
(1.05554 0.00952237 0)
(1.05627 0.00923533 0)
(1.05695 0.00896989 0)
(1.0576 0.00872228 0)
(1.05821 0.00848935 0)
(1.05878 0.0082684 0)
(1.0593 0.00805705 0)
(1.05979 0.00785319 0)
(1.06023 0.00765485 0)
(1.06064 0.00746017 0)
(1.061 0.00726737 0)
(1.06133 0.00707464 0)
(1.06162 0.00688015 0)
(1.06188 0.00668201 0)
(1.0621 0.0064782 0)
(1.0623 0.00626657 0)
(1.06248 0.00604468 0)
(1.06264 0.00581008 0)
(1.06279 0.00555956 0)
(1.06294 0.00529031 0)
(1.06309 0.00499785 0)
(1.06325 0.00467912 0)
(1.06343 0.00432733 0)
(1.06364 0.0039395 0)
(1.0639 0.00350505 0)
(1.0642 0.00302095 0)
(1.06457 0.00247166 0)
(1.06502 0.00185119 0)
(1.06556 0.00114167 0)
(1.06621 0.000320238 0)
(1.06697 -0.000617042 0)
(1.06786 -0.001754 0)
(1.06888 -0.00303854 0)
(1.07 -0.00469028 0)
(1.07113 -0.00652296 0)
(1.07216 -0.00877535 0)
(1.00179 0.0181732 0)
(1.02185 0.025456 0)
(1.03564 0.0196741 0)
(1.03979 0.0169354 0)
(1.04132 0.015918 0)
(1.04319 0.0146543 0)
(1.04503 0.0134664 0)
(1.04648 0.0126124 0)
(1.04766 0.0119597 0)
(1.04872 0.0113981 0)
(1.0497 0.0109043 0)
(1.05061 0.0104723 0)
(1.05146 0.0100909 0)
(1.05228 0.00974888 0)
(1.05305 0.00943836 0)
(1.0538 0.00915364 0)
(1.05452 0.00889031 0)
(1.05521 0.00864473 0)
(1.05589 0.00841383 0)
(1.05654 0.00819495 0)
(1.05717 0.00798575 0)
(1.05779 0.0077841 0)
(1.05839 0.00758805 0)
(1.05896 0.0073957 0)
(1.05952 0.00720522 0)
(1.06007 0.00701477 0)
(1.0606 0.00682245 0)
(1.06111 0.0066263 0)
(1.06161 0.0064242 0)
(1.0621 0.00621395 0)
(1.06259 0.00599299 0)
(1.06307 0.00575874 0)
(1.06355 0.00550789 0)
(1.06403 0.00523748 0)
(1.06452 0.00494292 0)
(1.06503 0.00462089 0)
(1.06557 0.0042647 0)
(1.06613 0.00387069 0)
(1.06673 0.00342897 0)
(1.06737 0.00293495 0)
(1.06807 0.00237499 0)
(1.06883 0.00174 0)
(1.06967 0.00101576 0)
(1.07059 0.00017486 0)
(1.07161 -0.000782727 0)
(1.07271 -0.00193887 0)
(1.07391 -0.00325054 0)
(1.07515 -0.00489785 0)
(1.07636 -0.00673726 0)
(1.07743 -0.00892052 0)
(1.00157 0.0165796 0)
(1.01981 0.0243181 0)
(1.0331 0.0192056 0)
(1.03744 0.0165264 0)
(1.03901 0.0156174 0)
(1.04084 0.0144731 0)
(1.04267 0.0133231 0)
(1.04413 0.0124787 0)
(1.04531 0.0118389 0)
(1.04635 0.0112896 0)
(1.04732 0.0108038 0)
(1.04821 0.010377 0)
(1.04906 0.00999939 0)
(1.04986 0.00966041 0)
(1.05062 0.00935214 0)
(1.05136 0.00906907 0)
(1.05208 0.00880695 0)
(1.05278 0.00856226 0)
(1.05347 0.008332 0)
(1.05415 0.0081136 0)
(1.05481 0.00790474 0)
(1.05547 0.00770334 0)
(1.05612 0.00750745 0)
(1.05676 0.00731517 0)
(1.0574 0.00712468 0)
(1.05804 0.0069341 0)
(1.05867 0.00674151 0)
(1.0593 0.00654492 0)
(1.05993 0.00634215 0)
(1.06057 0.00613092 0)
(1.06121 0.00590861 0)
(1.06185 0.00567256 0)
(1.06251 0.00541937 0)
(1.06318 0.00514592 0)
(1.06386 0.00484762 0)
(1.06457 0.00452082 0)
(1.06531 0.00415904 0)
(1.06607 0.00375794 0)
(1.06688 0.00330833 0)
(1.06773 0.00280423 0)
(1.06863 0.0022337 0)
(1.06959 0.00158506 0)
(1.07062 0.000847049 0)
(1.07171 -1.04204e-05 0)
(1.07289 -0.000986411 0)
(1.07413 -0.002157 0)
(1.07543 -0.00348914 0)
(1.07675 -0.0051274 0)
(1.07801 -0.00696243 0)
(1.07912 -0.00908429 0)
(1.00137 0.0150941 0)
(1.0179 0.023179 0)
(1.03067 0.0187414 0)
(1.03517 0.0161236 0)
(1.03679 0.0153052 0)
(1.03858 0.0142819 0)
(1.04041 0.0131762 0)
(1.04187 0.0123423 0)
(1.04304 0.0117153 0)
(1.04407 0.0111788 0)
(1.04502 0.0107015 0)
(1.04591 0.0102801 0)
(1.04674 0.00990652 0)
(1.04753 0.0095706 0)
(1.04829 0.00926455 0)
(1.04902 0.008983 0)
(1.04972 0.00872184 0)
(1.05042 0.00847766 0)
(1.0511 0.00824755 0)
(1.05177 0.00802898 0)
(1.05244 0.00781969 0)
(1.0531 0.00761763 0)
(1.05376 0.00742086 0)
(1.05443 0.00722751 0)
(1.05509 0.00703574 0)
(1.05575 0.00684368 0)
(1.05642 0.00664939 0)
(1.0571 0.00645085 0)
(1.05778 0.00624585 0)
(1.05847 0.00603208 0)
(1.05918 0.00580684 0)
(1.0599 0.00556741 0)
(1.06063 0.00531035 0)
(1.06139 0.00503238 0)
(1.06216 0.00472893 0)
(1.06297 0.00439607 0)
(1.06381 0.0040275 0)
(1.06468 0.00361833 0)
(1.06559 0.00315997 0)
(1.06655 0.0026453 0)
(1.06756 0.00206373 0)
(1.06862 0.00140183 0)
(1.06975 0.000650034 0)
(1.07094 -0.000222122 0)
(1.0722 -0.00121525 0)
(1.07351 -0.00239741 0)
(1.07486 -0.00374519 0)
(1.07622 -0.00537244 0)
(1.0775 -0.00719618 0)
(1.07863 -0.00926435 0)
(1.0012 0.0137153 0)
(1.01612 0.0220425 0)
(1.02835 0.0182778 0)
(1.033 0.0157281 0)
(1.03467 0.0149832 0)
(1.03642 0.0140802 0)
(1.03823 0.0130252 0)
(1.03969 0.0122034 0)
(1.04086 0.0115887 0)
(1.04188 0.0110654 0)
(1.04283 0.0105972 0)
(1.0437 0.0101816 0)
(1.04452 0.00981218 0)
(1.0453 0.00947943 0)
(1.04604 0.00917569 0)
(1.04676 0.00889569 0)
(1.04746 0.00863546 0)
(1.04814 0.00839171 0)
(1.04881 0.0081616 0)
(1.04948 0.00794265 0)
(1.05014 0.00773266 0)
(1.05079 0.00752957 0)
(1.05145 0.00733149 0)
(1.05211 0.00713656 0)
(1.05277 0.00694293 0)
(1.05344 0.00674874 0)
(1.05411 0.00655202 0)
(1.0548 0.00635075 0)
(1.05549 0.00614268 0)
(1.0562 0.00592546 0)
(1.05693 0.00569636 0)
(1.05767 0.00545259 0)
(1.05843 0.00519066 0)
(1.05922 0.0049072 0)
(1.06003 0.00459762 0)
(1.06088 0.00425777 0)
(1.06175 0.00388152 0)
(1.06267 0.00346349 0)
(1.06363 0.00299563 0)
(1.06463 0.00246992 0)
(1.06569 0.00187676 0)
(1.0668 0.0012017 0)
(1.06796 0.000435932 0)
(1.06919 -0.000450183 0)
(1.07048 -0.00145927 0)
(1.07181 -0.00265122 0)
(1.07318 -0.00401107 0)
(1.07453 -0.00562697 0)
(1.07582 -0.00743562 0)
(1.07695 -0.00945749 0)
(1.00104 0.0124408 0)
(1.01448 0.0209132 0)
(1.02614 0.0178113 0)
(1.0309 0.0153408 0)
(1.03264 0.0146533 0)
(1.03435 0.0138675 0)
(1.03614 0.0128698 0)
(1.03761 0.0120619 0)
(1.03878 0.0114592 0)
(1.03979 0.0109494 0)
(1.04072 0.0104909 0)
(1.04159 0.0100813 0)
(1.0424 0.00971627 0)
(1.04316 0.00938683 0)
(1.04389 0.0090855 0)
(1.0446 0.00880712 0)
(1.04529 0.00854785 0)
(1.04596 0.00830453 0)
(1.04662 0.0080744 0)
(1.04727 0.00785502 0)
(1.04792 0.00764423 0)
(1.04857 0.00744 0)
(1.04922 0.00724045 0)
(1.04987 0.00704373 0)
(1.05052 0.006848 0)
(1.05119 0.00665138 0)
(1.05186 0.00645191 0)
(1.05254 0.00624753 0)
(1.05323 0.00603597 0)
(1.05394 0.00581485 0)
(1.05466 0.0055814 0)
(1.05541 0.00533276 0)
(1.05617 0.00506543 0)
(1.05696 0.00477589 0)
(1.05778 0.00445961 0)
(1.05864 0.00411219 0)
(1.05952 0.00372769 0)
(1.06045 0.00330029 0)
(1.06142 0.0028224 0)
(1.06243 0.00228533 0)
(1.0635 0.00168019 0)
(1.06461 0.000991935 0)
(1.06579 0.000212143 0)
(1.06702 -0.000687484 0)
(1.06831 -0.00171172 0)
(1.06963 -0.00291247 0)
(1.07098 -0.00428157 0)
(1.07231 -0.00588658 0)
(1.07358 -0.0076784 0)
(1.0747 -0.00966072 0)
(1.0009 0.0112679 0)
(1.01297 0.0197952 0)
(1.02404 0.0173388 0)
(1.0289 0.0149619 0)
(1.0307 0.0143175 0)
(1.03237 0.0136437 0)
(1.03414 0.0127091 0)
(1.03561 0.0119178 0)
(1.03678 0.0113266 0)
(1.03778 0.0108305 0)
(1.0387 0.0103823 0)
(1.03956 0.00997927 0)
(1.04036 0.00961871 0)
(1.04112 0.0092927 0)
(1.04184 0.00899388 0)
(1.04254 0.00871719 0)
(1.04321 0.00845895 0)
(1.04388 0.00821609 0)
(1.04453 0.00798594 0)
(1.04517 0.00776613 0)
(1.04581 0.00755451 0)
(1.04645 0.00734909 0)
(1.04708 0.00714801 0)
(1.04772 0.00694942 0)
(1.04837 0.00675148 0)
(1.04902 0.00655231 0)
(1.04968 0.00634994 0)
(1.05036 0.00614228 0)
(1.05104 0.00592703 0)
(1.05174 0.00570178 0)
(1.05246 0.00546374 0)
(1.0532 0.00520996 0)
(1.05396 0.00493692 0)
(1.05474 0.00464101 0)
(1.05555 0.0043177 0)
(1.0564 0.0039624 0)
(1.05728 0.00356931 0)
(1.0582 0.00313227 0)
(1.05916 0.00264402 0)
(1.06017 0.00209545 0)
(1.06123 0.00147806 0)
(1.06234 0.000776758 0)
(1.0635 -1.70598e-05 0)
(1.06472 -0.000929938 0)
(1.06598 -0.0019684 0)
(1.06729 -0.00317717 0)
(1.06861 -0.00455335 0)
(1.0699 -0.00614835 0)
(1.07114 -0.00792307 0)
(1.07225 -0.00987177 0)
(1.00078 0.0101929 0)
(1.01159 0.0186932 0)
(1.02206 0.0168576 0)
(1.02698 0.0145917 0)
(1.02886 0.013978 0)
(1.03049 0.0134086 0)
(1.03223 0.0125426 0)
(1.0337 0.011771 0)
(1.03487 0.0111911 0)
(1.03587 0.0107086 0)
(1.03678 0.0102714 0)
(1.03763 0.00987524 0)
(1.03842 0.00951939 0)
(1.03917 0.00919693 0)
(1.03988 0.00890074 0)
(1.04057 0.00862583 0)
(1.04123 0.00836866 0)
(1.04189 0.0081263 0)
(1.04253 0.00789615 0)
(1.04316 0.0076759 0)
(1.04379 0.00746345 0)
(1.04442 0.00725683 0)
(1.04505 0.00705418 0)
(1.04568 0.00685367 0)
(1.04631 0.00665347 0)
(1.04696 0.00645169 0)
(1.04761 0.00624633 0)
(1.04827 0.00603529 0)
(1.04895 0.00581626 0)
(1.04964 0.00558677 0)
(1.05034 0.00534399 0)
(1.05107 0.00508493 0)
(1.05182 0.00480604 0)
(1.0526 0.00450359 0)
(1.0534 0.00417307 0)
(1.05423 0.00380972 0)
(1.0551 0.00340785 0)
(1.05601 0.00296104 0)
(1.05696 0.00246226 0)
(1.05796 0.00190214 0)
(1.059 0.00127242 0)
(1.06009 0.000558206 0)
(1.06123 -0.000249436 0)
(1.06242 -0.00117514 0)
(1.06366 -0.00222694 0)
(1.06493 -0.00344321 0)
(1.06621 -0.00482477 0)
(1.06747 -0.00641068 0)
(1.06867 -0.00816878 0)
(1.06976 -0.0100889 0)
(1.00067 0.00921172 0)
(1.01033 0.0176114 0)
(1.02018 0.0163655 0)
(1.02515 0.0142299 0)
(1.0271 0.0136367 0)
(1.0287 0.0131626 0)
(1.03041 0.0123696 0)
(1.03188 0.0116214 0)
(1.03305 0.0110527 0)
(1.03404 0.0105837 0)
(1.03495 0.0101578 0)
(1.03579 0.00976912 0)
(1.03657 0.0094182 0)
(1.03731 0.00909942 0)
(1.03801 0.00880597 0)
(1.03869 0.00853294 0)
(1.03935 0.0082769 0)
(1.03999 0.00803507 0)
(1.04062 0.00780495 0)
(1.04125 0.00758428 0)
(1.04187 0.00737098 0)
(1.04249 0.00716314 0)
(1.04311 0.0069589 0)
(1.04373 0.00675645 0)
(1.04435 0.00655395 0)
(1.04499 0.00634951 0)
(1.04563 0.00614111 0)
(1.04628 0.00592663 0)
(1.04695 0.00570374 0)
(1.04763 0.00546993 0)
(1.04833 0.00522234 0)
(1.04904 0.00495791 0)
(1.04978 0.00467307 0)
(1.05055 0.00436397 0)
(1.05134 0.00402614 0)
(1.05216 0.00365465 0)
(1.05302 0.00324388 0)
(1.05391 0.00278726 0)
(1.05484 0.00227787 0)
(1.05582 0.00170624 0)
(1.05684 0.00106421 0)
(1.05791 0.00033724 0)
(1.05903 -0.00048386 0)
(1.0602 -0.00142192 0)
(1.0614 -0.00248617 0)
(1.06264 -0.00370948 0)
(1.06388 -0.00509501 0)
(1.0651 -0.0066727 0)
(1.06626 -0.00841515 0)
(1.06733 -0.010311 0)
(1.00058 0.00831985 0)
(1.00919 0.0165542 0)
(1.01843 0.0158608 0)
(1.0234 0.0138758 0)
(1.02543 0.0132955 0)
(1.027 0.0129063 0)
(1.02867 0.0121896 0)
(1.03014 0.0114687 0)
(1.03132 0.0109113 0)
(1.0323 0.0104555 0)
(1.0332 0.0100416 0)
(1.03403 0.00966078 0)
(1.03481 0.00931503 0)
(1.03554 0.00900007 0)
(1.03623 0.00870947 0)
(1.0369 0.00843841 0)
(1.03755 0.00818358 0)
(1.03819 0.00794232 0)
(1.03881 0.00771225 0)
(1.03943 0.00749116 0)
(1.04004 0.00727703 0)
(1.04065 0.00706795 0)
(1.04126 0.0068621 0)
(1.04187 0.00665768 0)
(1.04249 0.00645285 0)
(1.04311 0.0062457 0)
(1.04375 0.00603422 0)
(1.04439 0.00581626 0)
(1.04505 0.00558945 0)
(1.04572 0.00535126 0)
(1.04641 0.00509879 0)
(1.04711 0.00482892 0)
(1.04784 0.00453805 0)
(1.04859 0.00422226 0)
(1.04937 0.00387703 0)
(1.05018 0.00349735 0)
(1.05102 0.00307763 0)
(1.0519 0.00261118 0)
(1.05282 0.00209116 0)
(1.05378 0.00150812 0)
(1.05478 0.000853863 0)
(1.05583 0.000114328 0)
(1.05692 -0.000719818 0)
(1.05806 -0.00166977 0)
(1.05923 -0.00274553 0)
(1.06042 -0.00397537 0)
(1.06162 -0.00536373 0)
(1.0628 -0.00693393 0)
(1.06393 -0.00866189 0)
(1.06497 -0.0105371 0)
(1.0005 0.00751221 0)
(1.00815 0.0155259 0)
(1.01678 0.0153425 0)
(1.02173 0.0135285 0)
(1.02384 0.0129563 0)
(1.02539 0.0126404 0)
(1.02702 0.0120019 0)