/*--------------------------------*- C++ -*----------------------------------*\
  =========                 |
  \\      /  F ield         | OpenFOAM: The Open Source CFD Toolbox
   \\    /   O peration     | Website:  https://openfoam.org
    \\  /    A nd           | Version:  7
     \\/     M anipulation  |
\*---------------------------------------------------------------------------*/
FoamFile
{
    version     2.0;
    format      ascii;
    class       volVectorField;
    location    "0.06";
    object      wallShearStress;
}
// * * * * * * * * * * * * * * * * * * * * * * * * * * * * * * * * * * * * * //

dimensions      [0 2 -2 0 0 0 0];

internalField   uniform (0 0 0);

boundaryField
{
    velocityInlet
    {
        type            calculated;
        value           uniform (0 0 0);
    }
    pressureOutlet
    {
        type            calculated;
        value           uniform (0 0 0);
    }
    fixedWalls
    {
        type            calculated;
        value           nonuniform List<vector> 
100
(
(-0.0210785 -0.00225696 0)
(-0.0153362 -0.00115516 0)
(-0.0110586 -0.000461612 0)
(-0.00894035 -0.000147284 0)
(-0.00786992 -7.86295e-05 0)
(-0.00711996 -7.53529e-05 0)
(-0.00648779 -6.81041e-05 0)
(-0.00594367 -5.65066e-05 0)
(-0.00548675 -4.52897e-05 0)
(-0.00510133 -3.77374e-05 0)
(-0.00475168 -3.74771e-05 0)
(-0.00440066 -4.34708e-05 0)
(-0.00405082 -4.6222e-05 0)
(-0.00376376 -3.62865e-05 0)
(-0.00362066 -1.56955e-05 0)
(-0.00365148 9.41298e-06 0)
(-0.00380967 2.60936e-05 0)
(-0.00401167 2.97622e-05 0)
(-0.0041855 2.45841e-05 0)
(-0.00429412 1.65918e-05 0)
(-0.00433108 9.44867e-06 0)
(-0.00430545 1.30433e-06 0)
(-0.00422979 -4.88731e-06 0)
(-0.00411498 -9.92243e-06 0)
(-0.00396891 -1.43201e-05 0)
(-0.00380038 -1.77376e-05 0)
(-0.00362746 -1.83496e-05 0)
(-0.00348228 -1.36842e-05 0)
(-0.00340473 -2.93942e-06 0)
(-0.00342068 1.14e-05 0)
(-0.00350411 2.18279e-05 0)
(-0.00355085 1.83305e-05 0)
(-0.00340138 -1.28434e-05 0)
(-0.00291928 -6.25754e-05 0)
(-0.00211521 -0.000106498 0)
(-0.00121597 -0.000115301 0)
(-0.000549858 -7.81847e-05 0)
(-0.000335781 -2.50134e-05 0)
(-0.000559609 2.53494e-05 0)
(-0.00103298 5.20425e-05 0)
(-0.00155719 5.53472e-05 0)
(-0.0020126 4.6365e-05 0)
(-0.00235739 3.4671e-05 0)
(-0.00259722 2.43939e-05 0)
(-0.00275519 1.66501e-05 0)
(-0.00285542 1.13355e-05 0)
(-0.00291726 7.92961e-06 0)
(-0.00295345 5.69569e-06 0)
(-0.00297017 4.06025e-06 0)
(-0.00296858 2.0419e-06 0)
(-0.00294715 -4.06157e-07 0)
(-0.002905 -3.05889e-06 0)
(-0.00284547 -5.26558e-06 0)
(-0.00277806 -6.07722e-06 0)
(-0.00271759 -4.6974e-06 0)
(-0.00267931 -1.05774e-06 0)
(-0.00267104 3.85595e-06 0)
(-0.00268556 8.51354e-06 0)
(-0.00269702 1.11222e-05 0)
(-0.00266174 7.78171e-06 0)
(-0.00252097 -3.54865e-06 0)
(-0.00220858 -2.44979e-05 0)
(-0.00167388 -5.31793e-05 0)
(-0.000922167 -8.24184e-05 0)
(-3.98135e-05 -9.73363e-05 0)
(0.000802941 -9.59231e-05 0)
(0.00139274 -6.80954e-05 0)
(0.00156678 -2.31007e-05 0)
(0.00126525 3.11983e-05 0)
(0.00059467 6.61163e-05 0)
(-0.00024267 7.72055e-05 0)
(-0.0010543 7.37491e-05 0)
(-0.00170802 5.72982e-05 0)
(-0.00216055 3.84227e-05 0)
(-0.0024253 2.18878e-05 0)
(-0.00254106 9.69857e-06 0)
(-0.00254754 8.44947e-07 0)
(-0.00247624 -5.67077e-06 0)
(-0.00235245 -1.00931e-05 0)
(-0.00219783 -1.27109e-05 0)
(-0.00203206 -1.37164e-05 0)
(-0.00187093 -1.35313e-05 0)
(-0.00172648 -1.25617e-05 0)
(-0.00160714 -1.10149e-05 0)
(-0.00152541 -8.35032e-06 0)
(-0.0014961 -4.48432e-06 0)
(-0.00153955 1.98175e-06 0)
(-0.00165278 7.96985e-06 0)
(-0.00182014 1.15649e-05 0)
(-0.00199749 1.14937e-05 0)
(-0.00219949 1.3145e-05 0)
(-0.0024359 1.8706e-05 0)
(-0.00277641 2.95241e-05 0)
(-0.00320335 4.08304e-05 0)
(-0.00366187 4.92075e-05 0)
(-0.00411432 4.78263e-05 0)
(-0.00398146 2.13146e-05 0)
(-0.00371368 -3.70416e-05 0)
(-0.00132504 -0.000182955 0)
(0.000727735 -6.80354e-05 0)
)
;
    }
    bottomWall
    {
        type            calculated;
        value           nonuniform List<vector> 
800
(
(-0.0353487 0.002144 0)
(-0.0160258 0.000524865 0)
(-0.0106061 0.00010075 0)
(-0.00845341 3.52906e-05 0)
(-0.00748285 1.98897e-05 0)
(-0.00684837 1.61505e-05 0)
(-0.00634002 1.33847e-05 0)
(-0.00592803 1.09284e-05 0)
(-0.00559243 9.1069e-06 0)
(-0.00531277 7.79071e-06 0)
(-0.00507446 6.79413e-06 0)
(-0.00486808 6.00674e-06 0)
(-0.00468715 5.36853e-06 0)
(-0.00452695 4.84237e-06 0)
(-0.00438387 4.40253e-06 0)
(-0.00425516 4.03013e-06 0)
(-0.00413862 3.71137e-06 0)
(-0.00403251 3.43601e-06 0)
(-0.00393541 3.19618e-06 0)
(-0.00384615 2.98554e-06 0)
(-0.00376379 2.79927e-06 0)
(-0.00368752 2.63363e-06 0)
(-0.00361665 2.4854e-06 0)
(-0.00355062 2.3522e-06 0)
(-0.00348891 2.23194e-06 0)
(-0.00343112 2.12278e-06 0)
(-0.00337686 2.0233e-06 0)
(-0.00332581 1.93246e-06 0)
(-0.00327769 1.84918e-06 0)
(-0.00323225 1.77241e-06 0)
(-0.00318928 1.70172e-06 0)
(-0.00314856 1.63639e-06 0)
(-0.00310993 1.5757e-06 0)
(-0.00307323 1.5194e-06 0)
(-0.0030383 1.46686e-06 0)
(-0.00300505 1.41781e-06 0)
(-0.00297333 1.37197e-06 0)
(-0.00294305 1.329e-06 0)
(-0.00291412 1.28871e-06 0)
(-0.00288644 1.25072e-06 0)
(-0.00285995 1.21497e-06 0)
(-0.00283456 1.18112e-06 0)
(-0.00281021 1.14921e-06 0)
(-0.00278685 1.11905e-06 0)
(-0.0027644 1.0906e-06 0)
(-0.00274283 1.06326e-06 0)
(-0.00272207 1.03766e-06 0)
(-0.00270211 1.01258e-06 0)
(-0.00268287 9.90073e-07 0)
(-0.00266435 9.6588e-07 0)
(-0.00264888 9.45913e-07 0)
(-0.00263611 9.34703e-07 0)
(-0.00262351 9.20146e-07 0)
(-0.00261112 9.04703e-07 0)
(-0.00259892 8.90262e-07 0)
(-0.00258691 8.76403e-07 0)
(-0.00257509 8.62922e-07 0)
(-0.00256345 8.49674e-07 0)
(-0.00255198 8.36683e-07 0)
(-0.0025407 8.23946e-07 0)
(-0.00252957 8.1162e-07 0)
(-0.00251862 7.99534e-07 0)
(-0.00250782 7.8752e-07 0)
(-0.00249719 7.75741e-07 0)
(-0.00248672 7.64528e-07 0)
(-0.00247639 7.53212e-07 0)
(-0.00246622 7.42125e-07 0)
(-0.00245619 7.3143e-07 0)
(-0.0024463 7.20793e-07 0)
(-0.00243656 7.10379e-07 0)
(-0.00242696 7.00018e-07 0)
(-0.0024175 6.90043e-07 0)
(-0.00240816 6.80118e-07 0)
(-0.00239897 6.7041e-07 0)
(-0.0023899 6.61082e-07 0)
(-0.00238095 6.51465e-07 0)
(-0.00237214 6.42226e-07 0)
(-0.00236345 6.33365e-07 0)
(-0.00235487 6.2421e-07 0)
(-0.00234642 6.1543e-07 0)
(-0.00233809 6.06856e-07 0)
(-0.00232987 5.9832e-07 0)
(-0.00232176 5.89989e-07 0)
(-0.00231377 5.81527e-07 0)
(-0.00230589 5.73434e-07 0)
(-0.00229811 5.65376e-07 0)
(-0.00229045 5.57519e-07 0)
(-0.00228289 5.49694e-07 0)
(-0.00227544 5.41903e-07 0)
(-0.00226808 5.34475e-07 0)
(-0.00226083 5.26913e-07 0)
(-0.00225368 5.19545e-07 0)
(-0.00224662 5.12208e-07 0)
(-0.00223967 5.04899e-07 0)
(-0.00223281 4.97951e-07 0)
(-0.00222605 4.9103e-07 0)
(-0.00221937 4.83968e-07 0)
(-0.0022128 4.77099e-07 0)
(-0.00220631 4.70254e-07 0)
(-0.00219992 4.63599e-07 0)
(-0.00219361 4.57136e-07 0)
(-0.0021874 4.50527e-07 0)
(-0.00218127 4.44108e-07 0)
(-0.00217522 4.3771e-07 0)
(-0.00216926 4.31333e-07 0)
(-0.00216339 4.25143e-07 0)
(-0.0021576 4.18974e-07 0)
(-0.00215189 4.12989e-07 0)
(-0.00214626 4.06858e-07 0)
(-0.00214072 4.00744e-07 0)
(-0.00213525 3.94982e-07 0)
(-0.00212987 3.89071e-07 0)
(-0.00212456 3.83178e-07 0)
(-0.00211933 3.77468e-07 0)
(-0.00211418 3.71776e-07 0)
(-0.0021091 3.66098e-07 0)
(-0.0021041 3.60605e-07 0)
(-0.00209918 3.55126e-07 0)
(-0.00209432 3.49497e-07 0)
(-0.00208955 3.44049e-07 0)
(-0.00208484 3.38616e-07 0)
(-0.00208021 3.33366e-07 0)
(-0.00207565 3.2813e-07 0)
(-0.00207116 3.22742e-07 0)
(-0.00206674 3.17534e-07 0)
(-0.00206239 3.12508e-07 0)
(-0.00205811 3.07498e-07 0)
(-0.0020539 3.02335e-07 0)
(-0.00204975 2.97187e-07 0)
(-0.00204568 2.92217e-07 0)
(-0.00204167 2.8743e-07 0)
(-0.00203773 2.8249e-07 0)
(-0.00203385 2.77733e-07 0)
(-0.00203003 2.72984e-07 0)
(-0.00202628 2.68085e-07 0)
(-0.0020226 2.63362e-07 0)
(-0.00201898 2.58658e-07 0)
(-0.00201542 2.54127e-07 0)
(-0.00201193 2.49621e-07 0)
(-0.00200849 2.44944e-07 0)
(-0.00200512 2.40472e-07 0)
(-0.00200181 2.35975e-07 0)
(-0.00199856 2.31547e-07 0)
(-0.00199536 2.27216e-07 0)
(-0.00199223 2.22847e-07 0)
(-0.00198916 2.18324e-07 0)
(-0.00198615 2.14207e-07 0)
(-0.00198319 2.0996e-07 0)
(-0.00198028 2.05922e-07 0)
(-0.00197744 2.01272e-07 0)
(-0.00197509 1.97389e-07 0)
(-0.00197318 1.95186e-07 0)
(-0.00197128 1.92708e-07 0)
(-0.00196939 1.89833e-07 0)
(-0.00196752 1.86615e-07 0)
(-0.00196567 1.83867e-07 0)
(-0.00196383 1.8121e-07 0)
(-0.001962 1.78077e-07 0)
(-0.00196019 1.75202e-07 0)
(-0.0019584 1.72585e-07 0)
(-0.00195662 1.69537e-07 0)
(-0.00195486 1.66734e-07 0)
(-0.00195311 1.63994e-07 0)
(-0.00195139 1.60992e-07 0)
(-0.00194968 1.58286e-07 0)
(-0.00194799 1.55575e-07 0)
(-0.00194631 1.52684e-07 0)
(-0.00194465 1.49805e-07 0)
(-0.00194301 1.47168e-07 0)
(-0.00194139 1.4414e-07 0)
(-0.00193979 1.41336e-07 0)
(-0.00193821 1.38774e-07 0)
(-0.00193665 1.35845e-07 0)
(-0.00193511 1.33097e-07 0)
(-0.00193358 1.30424e-07 0)
(-0.00193208 1.27538e-07 0)
(-0.0019306 1.24883e-07 0)
(-0.00192914 1.22067e-07 0)
(-0.0019277 1.19262e-07 0)
(-0.00192629 1.16693e-07 0)
(-0.00192489 1.13974e-07 0)
(-0.00192351 1.11239e-07 0)
(-0.00192216 1.0876e-07 0)
(-0.00192083 1.06095e-07 0)
(-0.00191952 1.03269e-07 0)
(-0.00191823 1.00678e-07 0)
(-0.00191697 9.80985e-08 0)
(-0.00191573 9.55517e-08 0)
(-0.00191451 9.30639e-08 0)
(-0.00191332 9.05429e-08 0)
(-0.00191214 8.81143e-08 0)
(-0.00191099 8.54845e-08 0)
(-0.00190987 8.30759e-08 0)
(-0.00190877 8.07067e-08 0)
(-0.00190769 7.83666e-08 0)
(-0.00190663 7.60639e-08 0)
(-0.00190559 7.35873e-08 0)
(-0.00190458 7.1346e-08 0)
(-0.0019036 6.91628e-08 0)
(-0.00190263 6.69398e-08 0)
(-0.00190169 6.48046e-08 0)
(-0.00190077 6.24981e-08 0)
(-0.00189987 6.03985e-08 0)
(-0.001899 5.85196e-08 0)
(-0.00189814 5.64806e-08 0)
(-0.00189731 5.44931e-08 0)
(-0.0018965 5.2728e-08 0)
(-0.00189571 5.09272e-08 0)
(-0.00189494 4.90763e-08 0)
(-0.00189419 4.71919e-08 0)
(-0.00189346 4.55167e-08 0)
(-0.00189275 4.38931e-08 0)
(-0.00189207 4.22667e-08 0)
(-0.00189139 4.0883e-08 0)
(-0.00189074 3.94263e-08 0)
(-0.00189011 3.78663e-08 0)
(-0.00188949 3.65911e-08 0)
(-0.00188889 3.52957e-08 0)
(-0.0018883 3.4231e-08 0)
(-0.00188772 3.301e-08 0)
(-0.00188717 3.18263e-08 0)
(-0.00188663 3.08528e-08 0)
(-0.0018861 2.97205e-08 0)
(-0.00188558 2.89798e-08 0)
(-0.00188507 2.82933e-08 0)
(-0.00188458 2.72588e-08 0)
(-0.0018841 2.67548e-08 0)
(-0.00188362 2.61062e-08 0)
(-0.00188317 2.54716e-08 0)
(-0.00188271 2.51249e-08 0)
(-0.00188226 2.45741e-08 0)
(-0.00188181 2.4408e-08 0)
(-0.00188138 2.40955e-08 0)
(-0.00188094 2.40739e-08 0)
(-0.00188052 2.34568e-08 0)
(-0.00188008 2.41177e-08 0)
(-0.00187967 2.31205e-08 0)
(-0.00187923 2.46279e-08 0)
(-0.00187883 2.24742e-08 0)
(-0.00187837 2.60269e-08 0)
(-0.001878 2.15529e-08 0)
(-0.00187749 2.868e-08 0)
(-0.00187718 1.88847e-08 0)
(-0.00187658 3.40091e-08 0)
(-0.00187637 1.35857e-08 0)
(-0.00187563 4.3116e-08 0)
(-0.00187554 4.55808e-09 0)
(-0.00187463 5.69086e-08 0)
(-0.00187467 -6.44871e-09 0)
(-0.00187353 5.84547e-08 0)
(-0.0353492 -0.00214391 0)
(-0.016029 -0.000524727 0)
(-0.0106132 -0.000100593 0)
(-0.00846464 -3.51417e-05 0)
(-0.0074983 -1.97387e-05 0)
(-0.00686822 -1.59949e-05 0)
(-0.00636438 -1.32252e-05 0)
(-0.00595697 -1.07646e-05 0)
(-0.005626 -8.93844e-06 0)
(-0.00535101 -7.61751e-06 0)
(-0.00511743 -6.61583e-06 0)
(-0.00491581 -5.82278e-06 0)
(-0.00473972 -5.17842e-06 0)
(-0.00458442 -4.6451e-06 0)
(-0.00444637 -4.19674e-06 0)
(-0.00432281 -3.81439e-06 0)
(-0.00421162 -3.48398e-06 0)
(-0.00411106 -3.19512e-06 0)
(-0.00401978 -2.93953e-06 0)
(-0.00393665 -2.71103e-06 0)
(-0.00386076 -2.50445e-06 0)
(-0.00379136 -2.31574e-06 0)
(-0.00372782 -2.14158e-06 0)
(-0.00366962 -1.97897e-06 0)
(-0.00361633 -1.82548e-06 0)
(-0.0035676 -1.67875e-06 0)
(-0.00352314 -1.537e-06 0)
(-0.00348271 -1.39838e-06 0)
(-0.00344615 -1.26083e-06 0)
(-0.00341331 -1.12303e-06 0)
(-0.0033841 -9.82778e-07 0)
(-0.00335847 -8.38788e-07 0)
(-0.00333642 -6.88236e-07 0)
(-0.00331798 -5.30222e-07 0)
(-0.00330322 -3.60947e-07 0)
(-0.00329228 -1.79501e-07 0)
(-0.00328526 2.03719e-08 0)
(-0.00328256 2.3892e-07 0)
(-0.00328409 4.87104e-07 0)
(-0.00329096 7.51178e-07 0)
(-0.00330217 1.04152e-06 0)
(-0.00332093 1.4041e-06 0)
(-0.00334316 1.75983e-06 0)
(-0.00337819 2.30772e-06 0)
(-0.00341238 2.69724e-06 0)
(-0.00347274 3.70782e-06 0)
(-0.00351862 3.89873e-06 0)
(-0.00362175 6.6633e-06 0)
(-0.00369649 -3.90321e-06 0)
(-0.00355535 0.000256361 0)
(4.95169e-07 3.65029e-07 0)
(3.28809e-06 -4.1407e-06 0)
(5.97356e-06 -1.42318e-05 0)
(8.20535e-06 -2.8389e-05 0)
(9.76756e-06 -4.567e-05 0)
(1.06702e-05 -6.45723e-05 0)
(1.11255e-05 -8.41905e-05 0)
(1.13076e-05 -0.000103954 0)
(1.13401e-05 -0.000123564 0)
(1.12988e-05 -0.000142872 0)
(1.12254e-05 -0.000161806 0)
(1.11304e-05 -0.000180338 0)
(1.10269e-05 -0.000198458 0)
(1.0915e-05 -0.000216152 0)
(1.07924e-05 -0.000233412 0)
(1.06557e-05 -0.000250232 0)
(1.05105e-05 -0.000266597 0)
(1.03526e-05 -0.000282491 0)
(1.01856e-05 -0.00029791 0)
(1.00042e-05 -0.000312837 0)
(9.80704e-06 -0.000327258 0)
(9.59913e-06 -0.000341165 0)
(9.37874e-06 -0.000354545 0)
(9.14373e-06 -0.000367386 0)
(8.898e-06 -0.000379673 0)
(8.63536e-06 -0.000391393 0)
(8.35996e-06 -0.000402542 0)
(8.07487e-06 -0.000413107 0)
(7.77291e-06 -0.000423076 0)
(7.45861e-06 -0.000432445 0)
(7.13089e-06 -0.000441199 0)
(6.78816e-06 -0.000449329 0)
(6.43473e-06 -0.00045683 0)
(6.07288e-06 -0.000463696 0)
(5.69576e-06 -0.000469918 0)
(5.30662e-06 -0.000475498 0)
(4.91169e-06 -0.000480425 0)
(4.51223e-06 -0.000484694 0)
(4.10788e-06 -0.000488311 0)
(3.69845e-06 -0.000491268 0)
(3.28797e-06 -0.000493562 0)
(2.87741e-06 -0.000495196 0)
(2.46324e-06 -0.000496175 0)
(2.04064e-06 -0.000496497 0)
(1.61255e-06 -0.000496169 0)
(1.18587e-06 -0.00049521 0)
(7.57149e-07 -0.000493618 0)
(3.28889e-07 -0.000491405 0)
(-1.0022e-07 -0.000488577 0)
(-5.35047e-07 -0.000485141 0)
(-9.73556e-07 -0.000481104 0)
(-1.41292e-06 -0.000476463 0)
(-1.85197e-06 -0.000471238 0)
(-2.29763e-06 -0.000465445 0)
(-2.74255e-06 -0.000459081 0)
(-3.18287e-06 -0.000452161 0)
(-3.624e-06 -0.000444703 0)
(-4.06355e-06 -0.000436725 0)
(-4.5007e-06 -0.000428244 0)
(-4.92705e-06 -0.000419277 0)
(-5.34529e-06 -0.000409832 0)
(-5.75354e-06 -0.000399955 0)
(-6.14613e-06 -0.000389667 0)
(-6.52325e-06 -0.000378979 0)
(-6.88185e-06 -0.000367944 0)
(-7.2261e-06 -0.000356593 0)
(-7.55394e-06 -0.000344953 0)
(-7.85805e-06 -0.000333065 0)
(-8.14234e-06 -0.000320977 0)
(-8.41806e-06 -0.000308719 0)
(-8.6694e-06 -0.000296335 0)
(-8.907e-06 -0.000283878 0)
(-9.13585e-06 -0.000271391 0)
(-9.36374e-06 -0.000258923 0)
(-9.58719e-06 -0.000246501 0)
(-9.81449e-06 -0.000234168 0)
(-1.00523e-05 -0.000222002 0)
(-1.03001e-05 -0.000210012 0)
(-1.05776e-05 -0.000198258 0)
(-1.08617e-05 -0.000186783 0)
(-1.11638e-05 -0.00017563 0)
(-1.14571e-05 -0.000164885 0)
(-1.17364e-05 -0.000154616 0)
(-1.19508e-05 -0.000144887 0)
(-1.20763e-05 -0.000135829 0)
(-1.20684e-05 -0.000127582 0)
(-1.19488e-05 -0.000120304 0)
(-1.17798e-05 -0.000114156 0)
(-1.17377e-05 -0.000108989 0)
(-1.20452e-05 -0.00010393 0)
(-1.29433e-05 -9.72013e-05 0)
(-1.46908e-05 -8.76313e-05 0)
(-1.75561e-05 -7.57827e-05 0)
(-2.16821e-05 -6.25215e-05 0)
(-2.6891e-05 -4.79559e-05 0)
(-3.26269e-05 -3.19386e-05 0)
(-3.79447e-05 -1.46246e-05 0)
(-4.15535e-05 3.32251e-06 0)
(-4.19748e-05 2.06269e-05 0)
(-3.78659e-05 3.53654e-05 0)
(-2.85527e-05 4.52259e-05 0)
(-1.42767e-05 4.80194e-05 0)
(3.67466e-06 4.19121e-05 0)
(2.27851e-05 2.61218e-05 0)
(3.99848e-05 1.43733e-06 0)
(5.25255e-05 -2.99651e-05 0)
(5.8083e-05 -6.48271e-05 0)
(5.54411e-05 -9.88944e-05 0)
(4.50416e-05 -0.000127723 0)
(2.90687e-05 -0.000147699 0)
(1.05558e-05 -0.000157068 0)
(-7.13028e-06 -0.00015989 0)
(-2.16063e-05 -0.000153969 0)
(-3.0156e-05 -0.000137367 0)
(-3.16311e-05 -0.000115663 0)
(-2.70387e-05 -9.41286e-05 0)
(-1.86864e-05 -7.55461e-05 0)
(-9.31468e-06 -6.04778e-05 0)
(-1.6094e-06 -4.80746e-05 0)
(2.27065e-06 -3.6743e-05 0)
(9.24272e-07 -2.48256e-05 0)
(-6.52373e-06 -1.0974e-05 0)
(-2.04131e-05 6.31865e-06 0)
(-3.99365e-05 2.86135e-05 0)
(-6.29791e-05 5.70353e-05 0)
(-8.66246e-05 9.16801e-05 0)
(-0.000108038 0.000131454 0)
(-0.000125244 0.000174459 0)
(-0.000137398 0.000218636 0)
(-0.000144564 0.000262283 0)
(-0.000147308 0.000304226 0)
(-0.000146343 0.000343694 0)
(-0.000142374 0.000380186 0)
(-0.000136039 0.000413387 0)
(-0.000127893 0.000443103 0)
(-0.000118406 0.000469238 0)
(-0.000107968 0.000491771 0)
(-9.68954e-05 0.000510735 0)
(-8.5446e-05 0.000526199 0)
(-7.38281e-05 0.00053827 0)
(-6.22167e-05 0.000547065 0)
(-5.07594e-05 0.000552742 0)
(-3.95394e-05 0.000555466 0)
(-2.8659e-05 0.000555371 0)
(-1.82124e-05 0.000552664 0)
(-8.22995e-06 0.000547543 0)
(1.25944e-06 0.00054019 0)
(1.02401e-05 0.000530783 0)
(1.87061e-05 0.000519498 0)
(2.66573e-05 0.000506505 0)
(3.40978e-05 0.000491968 0)
(4.10395e-05 0.000476045 0)
(4.74976e-05 0.000458883 0)
(5.34897e-05 0.000440619 0)
(5.90355e-05 0.00042138 0)
(6.41554e-05 0.00040129 0)
(6.88721e-05 0.000380458 0)
(7.32082e-05 0.000358988 0)
(7.71868e-05 0.000336972 0)
(8.0831e-05 0.000314497 0)
(8.41579e-05 0.000291638 0)
(8.71865e-05 0.000268471 0)
(8.99389e-05 0.000245062 0)
(9.24641e-05 0.000221543 0)
(9.47588e-05 0.000197921 0)
(9.68078e-05 0.000174201 0)
(9.86102e-05 0.000150423 0)
(0.000100156 0.000126622 0)
(0.00010143 0.000102829 0)
(0.000102407 7.90803e-05 0)
(0.000103052 5.54202e-05 0)
(0.000103328 3.19132e-05 0)
(0.000103198 8.64486e-06 0)
(0.000102633 -1.42802e-05 0)
(0.000101616 -3.67498e-05 0)
(0.000100145 -5.86598e-05 0)
(9.82251e-05 -7.99233e-05 0)
(9.58632e-05 -0.000100473 0)
(9.30633e-05 -0.000120255 0)
(8.99191e-05 -0.00013936 0)
(8.6339e-05 -0.000157609 0)
(8.22949e-05 -0.000174826 0)
(7.78147e-05 -0.000190911 0)
(7.29301e-05 -0.000205759 0)
(6.7694e-05 -0.000219269 0)
(6.21699e-05 -0.000231352 0)
(5.64226e-05 -0.00024194 0)
(5.05176e-05 -0.000250999 0)
(4.44958e-05 -0.000258546 0)
(3.83378e-05 -0.000264697 0)
(3.18881e-05 -0.00026974 0)
(2.47493e-05 -0.000274461 0)
(1.60507e-05 -0.000280347 0)
(3.93906e-06 -0.000290539 0)
(-1.58377e-05 -0.000312474 0)
(-5.23477e-05 -0.000361824 0)
(-0.00012515 -0.000469081 0)
(-0.000275368 -0.000681767 0)
(-0.000564539 -0.00104487 0)
(-0.000994148 -0.001522 0)
(-1.56037e-07 -3.83652e-07 0)
(2.50422e-06 -2.07216e-06 0)
(6.64449e-06 -2.4885e-06 0)
(1.07901e-05 -2.48254e-06 0)
(1.49212e-05 -2.36675e-06 0)
(1.89599e-05 -2.21453e-06 0)
(2.29089e-05 -2.07355e-06 0)
(2.67942e-05 -1.94602e-06 0)
(3.0631e-05 -1.8245e-06 0)
(3.44283e-05 -1.70372e-06 0)
(3.81922e-05 -1.58222e-06 0)
(4.19295e-05 -1.4555e-06 0)
(4.56434e-05 -1.32752e-06 0)
(4.93399e-05 -1.19609e-06 0)
(5.30261e-05 -1.06205e-06 0)
(5.67079e-05 -9.26301e-07 0)
(6.03939e-05 -7.91194e-07 0)
(6.40949e-05 -6.58701e-07 0)
(6.78215e-05 -5.30295e-07 0)
(7.15928e-05 -4.0967e-07 0)
(7.54225e-05 -2.974e-07 0)
(7.93273e-05 -1.95265e-07 0)
(8.33303e-05 -1.09174e-07 0)
(8.74541e-05 -3.92321e-08 0)
(9.17234e-05 9.80051e-09 0)
(9.61701e-05 3.24643e-08 0)
(0.000100825 3.12668e-08 0)
(0.000105718 6.87796e-10 0)
(0.000110889 -6.51707e-08 0)
(0.000116376 -1.7015e-07 0)
(0.000122219 -3.22266e-07 0)
(0.000128466 -5.29359e-07 0)
(0.000135168 -8.0003e-07 0)
(0.000142376 -1.14515e-06 0)
(0.000150152 -1.57804e-06 0)
(0.00015856 -2.11334e-06 0)
(0.000167672 -2.76585e-06 0)
(0.00017757 -3.55399e-06 0)
(0.000188338 -4.49865e-06 0)
(0.000200073 -5.62067e-06 0)
(0.000212877 -6.94089e-06 0)
(0.000226855 -8.47738e-06 0)
(0.000242114 -1.02454e-05 0)
(0.000258754 -1.22549e-05 0)
(0.000276866 -1.45068e-05 0)
(0.000296525 -1.69916e-05 0)
(0.000317776 -1.9686e-05 0)
(0.00034063 -2.25495e-05 0)
(0.000365051 -2.55216e-05 0)
(0.000390945 -2.85206e-05 0)
(0.00041815 -3.14426e-05 0)
(0.000446434 -3.41638e-05 0)
(0.000475489 -3.6548e-05 0)
(0.000504933 -3.84617e-05 0)
(0.000534326 -3.97989e-05 0)
(0.000563183 -4.0508e-05 0)
(0.000591013 -4.05866e-05 0)
(0.00061732 -4.00107e-05 0)
(0.00064154 -3.86764e-05 0)
(0.000663036 -3.64486e-05 0)
(0.000681088 -3.31891e-05 0)
(0.000694894 -2.87871e-05 0)
(0.000703588 -2.31728e-05 0)
(0.00070623 -1.62314e-05 0)
(0.000701813 -7.98663e-06 0)
(0.000689445 1.69561e-06 0)
(0.000667955 1.29919e-05 0)
(0.000636139 2.59814e-05 0)
(0.000592758 4.06936e-05 0)
(0.000536576 5.70688e-05 0)
(0.00046644 7.49133e-05 0)
(0.000381385 9.38378e-05 0)
(0.000280806 0.000113213 0)
(0.000164575 0.000132056 0)
(3.38578e-05 0.00014946 0)
(-0.000110875 0.000163593 0)
(-0.000265874 0.000172535 0)
(-0.000424887 0.00017405 0)
(-0.00058242 0.000166998 0)
(-0.000730762 0.000150071 0)
(-0.000861203 0.000123294 0)
(-0.000965707 8.82961e-05 0)
(-0.0010382 4.77857e-05 0)
(-0.00107524 5.53638e-06 0)
(-0.00107706 -3.51191e-05 0)
(-0.00104511 -6.99883e-05 0)
(-0.000986257 -9.57918e-05 0)
(-0.00090847 -0.000111562 0)
(-0.000819641 -0.000118128 0)
(-0.00072651 -0.000117387 0)
(-0.000633937 -0.000111561 0)
(-0.000545028 -0.00010287 0)
(-0.000461441 -9.31468e-05 0)
(-0.000383753 -8.36775e-05 0)
(-0.000311767 -7.52089e-05 0)
(-0.000244879 -6.80151e-05 0)
(-0.000182301 -6.19667e-05 0)
(-0.000123408 -5.69173e-05 0)
(-6.61503e-05 -5.20493e-05 0)
(-3.65878e-06 -4.13666e-05 0)
(-4.58778e-05 -1.21533e-05 0)
(-7.04236e-05 -0.000115256 0)
(-7.40281e-05 -0.00023634 0)
(-6.87386e-05 -0.000347247 0)
(-6.1777e-05 -0.000448448 0)
(-5.35953e-05 -0.000538898 0)
(-4.39868e-05 -0.000617411 0)
(-3.27796e-05 -0.000682392 0)
(-2.0153e-05 -0.000732133 0)
(-6.64689e-06 -0.000765344 0)
(6.88669e-06 -0.000781537 0)
(1.95398e-05 -0.000781302 0)
(3.01344e-05 -0.00076592 0)
(3.75671e-05 -0.00073845 0)
(4.12857e-05 -0.000702563 0)
(4.10913e-05 -0.000662455 0)
(3.71312e-05 -0.000622359 0)
(2.9977e-05 -0.000586073 0)
(2.04774e-05 -0.000556673 0)
(9.55688e-06 -0.000536373 0)
(-1.94131e-06 -0.000526528 0)
(-1.33277e-05 -0.000527721 0)
(-2.4272e-05 -0.000539919 0)
(-3.4333e-05 -0.000562688 0)
(-4.32777e-05 -0.000595136 0)
(-5.1018e-05 -0.000636202 0)
(-5.74848e-05 -0.000684706 0)
(-6.26576e-05 -0.000739385 0)
(-6.63885e-05 -0.000799041 0)
(-6.83559e-05 -0.00086189 0)
(-6.86552e-05 -0.000926538 0)
(-6.58489e-05 -0.000991239 0)
(-5.97559e-05 -0.00105156 0)
(-5.1914e-05 -0.0011074 0)
(-3.59706e-05 -0.0011553 0)
(-1.43046e-05 -0.00118484 0)
(6.09558e-06 -0.00119692 0)
(3.56895e-05 -0.00119491 0)
(7.80869e-05 -0.00116239 0)
(0.00011518 -0.00109213 0)
(0.000142303 -0.00100208 0)
(0.000171519 -0.000895852 0)
(0.00019032 -0.000756663 0)
(0.000178061 -0.000595736 0)
(0.000162031 -0.000442515 0)
(0.000176635 -0.000288752 0)
(0.000206265 -0.00011828 0)
(0.000232114 5.3932e-05 0)
(0.000228153 0.000213576 0)
(0.000127215 0.000331499 0)
(-5.83999e-05 0.000367582 0)
(-0.000184868 0.000311541 0)
(-0.000222508 0.000226439 0)
(-0.000237605 0.000129692 0)
(-0.000222092 4.25376e-05 0)
(-0.000210549 1.8731e-05 0)
(-0.000232139 -5.5799e-06 0)
(-0.000252929 -7.33841e-05 0)
(-0.000272627 -4.2978e-05 0)
(-0.000293687 6.84164e-05 0)
(-0.000246448 0.000136655 0)
(-2.13916e-05 0.000205112 0)
(0.000409925 0.000391926 0)
(0.000887391 0.000871796 0)
(0.000892368 0.00151059 0)
(0.000496914 0.00184769 0)
(0.000346306 0.00191027 0)
(0.000366489 0.00206195 0)
(0.000272581 0.00223581 0)
(0.000214341 0.00232055 0)
(0.000203623 0.00241184 0)
(0.000162664 0.00249971 0)
(0.000141253 0.0025589 0)
(0.000129891 0.00261945 0)
(0.000112018 0.00267298 0)
(0.000103641 0.00271732 0)
(9.61543e-05 0.00276102 0)
(8.83721e-05 0.00279977 0)
(8.39206e-05 0.0028351 0)
(7.91476e-05 0.00286855 0)
(7.53e-05 0.00289871 0)
(7.27128e-05 0.00292685 0)
(7.02985e-05 0.00295305 0)
(6.84011e-05 0.00297719 0)
(6.62259e-05 0.00299971 0)
(6.29585e-05 0.00302026 0)
(5.81353e-05 0.0030384 0)
(5.11291e-05 0.00305353 0)
(4.17121e-05 0.00306477 0)
(2.98595e-05 0.00307126 0)
(1.55483e-05 0.00307205 0)
(-9.57361e-07 0.00306617 0)
(-1.99178e-05 0.00305312 0)
(-4.27893e-05 0.00303176 0)
(-7.1615e-05 0.00299999 0)
(-0.000108707 0.00295478 0)
(-0.000156337 0.00289234 0)
(-0.000216057 0.0028083 0)
(-0.000287326 0.00270016 0)
(-0.000365772 0.00256871 0)
(-0.000441577 0.00241611 0)
(-0.000500117 0.00225208 0)
(-0.000525699 0.0020939 0)
(-0.000519116 0.00199339 0)
(-0.000502908 0.00200547 0)
(-0.000502429 0.00211591 0)
(-0.000507382 0.00225355 0)
(-0.000401677 0.00229963 0)
(5.22214e-05 0.00221599 0)
(0.00104557 0.0022858 0)
(0.00226042 0.00309981 0)
(0.00271687 0.00465555 0)
(0.00205247 0.00581816 0)
(0.00132856 0.00600889 0)
(0.00114695 0.00608181 0)
(0.000941984 0.00643471 0)
(0.000590683 0.00660807 0)
(0.000394859 0.00661005 0)
(0.000253372 0.00666624 0)
(7.8708e-05 0.00667291 0)
(-3.3801e-05 0.00660653 0)
(-0.000109312 0.00655249 0)
(-0.000187465 0.00648488 0)
(-0.000240693 0.00639181 0)
(-0.00027624 0.00630056 0)
(-0.000306427 0.00620525 0)
(-0.000324066 0.00610382 0)
(-0.000332242 0.00600538 0)
(-0.00033479 0.00590918 0)
(-0.000330152 0.00581577 0)
(-0.000319767 0.00572854 0)
(-0.000304957 0.00564793 0)
(-0.000285681 0.00557495 0)
(-0.000262864 0.00551111 0)
(-0.000237262 0.00545694 0)
(-0.000209335 0.00541302 0)
(-0.000180062 0.00538876 0)
(-0.000148982 0.00537963 0)
(-0.000115326 0.00538309 0)
(-7.90612e-05 0.00539789 0)
(-3.85197e-05 0.00542197 0)
(8.27117e-06 0.00545603 0)
(6.13243e-05 0.00550103 0)
(0.000119687 0.00555689 0)
(0.000182144 0.00562288 0)
(0.000246892 0.00569629 0)
(0.00031144 0.0057784 0)
(0.0003728 0.00587004 0)
(0.000427669 0.00597004 0)
(0.000472884 0.00607667 0)
(0.000506165 0.0061881 0)
(0.000526708 0.0063023 0)
(0.00053522 0.00641707 0)
(0.000533415 0.00653025 0)
(0.000523127 0.00664023 0)
(0.000505458 0.00674588 0)
(0.000480511 0.00684622 0)
(0.000447651 0.00693996 0)
(0.000406111 0.00702528 0)
(0.000355678 0.00710008 0)
(0.000296993 0.0071624 0)
(0.000231374 0.00721065 0)
(0.000160356 0.00724396 0)
(8.5706e-05 0.0072623 0)
(9.77353e-06 0.00726662 0)
(-6.51685e-05 0.00725851 0)
(-0.000137448 0.00723965 0)
(-0.000208797 0.00721592 0)
(-0.000280401 0.00718669 0)
(-0.000351746 0.00714851 0)
(-0.000424011 0.00710137 0)
(-0.000497465 0.00704507 0)
(-0.000572627 0.00697948 0)
(-0.000649853 0.00690423 0)
(-0.000729363 0.0068191 0)
(-0.000811368 0.00672382 0)
(-0.000896001 0.00661825 0)
(-0.000983411 0.00650223 0)
(-0.00107375 0.00637569 0)
(-0.0011672 0.0062385 0)
(-0.00126393 0.00609061 0)
(-0.00136415 0.00593199 0)
(-0.0014681 0.00576258 0)
(-0.00157605 0.0055824 0)
(-0.00168836 0.00539151 0)
(-0.00180545 0.00519001 0)
(-0.00192785 0.00497808 0)
(-0.00205638 0.00475594 0)
(-0.00219178 0.00452333 0)
(-0.00235219 0.00431352 0)
(-0.00253413 0.00410855 0)
(-0.00273898 0.00390126 0)
(-0.00297148 0.00369148 0)
(-0.00323628 0.00348023 0)
(-0.00353663 0.00327044 0)
(-0.00387712 0.00306938 0)
(-0.00427385 0.00289557 0)
(-0.00478187 0.00281234 0)
(-0.00544352 0.00299194 0)
(-0.00583683 0.0038313 0)
)
;
    }
    frontAndBack
    {
        type            empty;
    }
}


// ************************************************************************* //
