/*--------------------------------*- C++ -*----------------------------------*\
  =========                 |
  \\      /  F ield         | OpenFOAM: The Open Source CFD Toolbox
   \\    /   O peration     | Website:  https://openfoam.org
    \\  /    A nd           | Version:  7
     \\/     M anipulation  |
\*---------------------------------------------------------------------------*/
FoamFile
{
    version     2.0;
    format      ascii;
    class       volScalarField;
    location    "0.01";
    object      k;
}
// * * * * * * * * * * * * * * * * * * * * * * * * * * * * * * * * * * * * * //

dimensions      [0 2 -2 0 0 0 0];

internalField   nonuniform List<scalar> 
70000
(
1.08549e-05
4.21872e-06
2.82437e-06
2.31698e-06
1.99806e-06
1.75822e-06
1.567e-06
1.41106e-06
1.28166e-06
1.17253e-06
1.07979e-06
1.00062e-06
9.32377e-07
8.73316e-07
8.23062e-07
7.82101e-07
7.49854e-07
7.23013e-07
6.97671e-07
6.71097e-07
6.41949e-07
6.10179e-07
5.76101e-07
5.39979e-07
5.01988e-07
4.62417e-07
4.21664e-07
3.80328e-07
3.3913e-07
2.98839e-07
2.60207e-07
2.23827e-07
1.90265e-07
1.59692e-07
1.32552e-07
1.08476e-07
8.79672e-08
7.01212e-08
5.55918e-08
4.31755e-08
3.34146e-08
2.54994e-08
1.90285e-08
1.46696e-08
1.03084e-08
8.29178e-09
5.44943e-09
7.57506e-09
1.02028e-08
7.11478e-07
1.72794e-05
1.13671e-05
8.52053e-06
7.01073e-06
6.03855e-06
5.3136e-06
4.73623e-06
4.26501e-06
3.87385e-06
3.5439e-06
3.26319e-06
3.02338e-06
2.8167e-06
2.63749e-06
2.48365e-06
2.35622e-06
2.25499e-06
2.17249e-06
2.09683e-06
2.01928e-06
1.93563e-06
1.84505e-06
1.74808e-06
1.64534e-06
1.53716e-06
1.42407e-06
1.30701e-06
1.18744e-06
1.06722e-06
9.48428e-07
8.33276e-07
7.23565e-07
6.21189e-07
5.26763e-07
4.41935e-07
3.65695e-07
2.99923e-07
2.41924e-07
1.94e-07
1.52532e-07
1.19305e-07
9.21633e-08
6.93705e-08
5.39994e-08
3.81362e-08
3.09084e-08
2.00245e-08
2.44419e-08
2.51423e-08
7.10804e-07
1.937e-05
1.61295e-05
1.3291e-05
1.12898e-05
9.82994e-06
8.69911e-06
7.78425e-06
7.02982e-06
6.39873e-06
5.86358e-06
5.40584e-06
5.01304e-06
4.67365e-06
4.37835e-06
4.12201e-06
3.90442e-06
3.72712e-06
3.58235e-06
3.45538e-06
3.33178e-06
3.20308e-06
3.06594e-06
2.9201e-06
2.76605e-06
2.60394e-06
2.43404e-06
2.2571e-06
2.07458e-06
1.88861e-06
1.70182e-06
1.51743e-06
1.33822e-06
1.1676e-06
1.00686e-06
8.59484e-07
7.24111e-07
6.04796e-07
4.972e-07
4.06195e-07
3.25729e-07
2.59343e-07
2.04276e-07
1.56221e-07
1.23676e-07
8.81349e-08
7.28257e-08
4.68041e-08
5.04292e-08
4.26997e-08
4.06792e-07
1.9861e-05
1.82599e-05
1.60858e-05
1.42003e-05
1.2641e-05
1.13507e-05
1.02654e-05
9.34604e-06
8.55979e-06
7.88292e-06
7.29649e-06
6.78761e-06
6.34412e-06
5.95555e-06
5.61443e-06
5.31775e-06
5.06547e-06
4.85385e-06
4.67395e-06
4.50832e-06
4.34466e-06
4.17592e-06
3.9993e-06
3.81438e-06
3.62075e-06
3.41803e-06
3.20625e-06
2.98604e-06
2.75871e-06
2.52621e-06
2.29177e-06
2.05833e-06
1.83046e-06
1.61006e-06
1.40249e-06
1.20695e-06
1.0294e-06
8.65925e-07
7.22481e-07
5.93666e-07
4.82755e-07
3.89172e-07
3.04029e-07
2.45783e-07
1.7751e-07
1.51027e-07
9.7987e-08
9.52353e-08
7.28063e-08
2.16505e-07
1.99706e-05
1.78458e-05
1.60752e-05
1.47665e-05
1.36025e-05
1.25375e-05
1.15705e-05
1.07039e-05
9.92587e-06
9.2347e-06
8.62005e-06
8.07467e-06
7.59005e-06
7.15865e-06
6.77429e-06
6.43169e-06
6.12925e-06
5.86718e-06
5.63998e-06
5.43532e-06
5.24341e-06
5.0551e-06
4.8636e-06
4.66666e-06
4.4629e-06
4.25115e-06
4.03069e-06
3.80105e-06
3.5621e-06
3.31412e-06
3.05905e-06
2.79883e-06
2.53794e-06
2.27843e-06
2.02641e-06
1.78252e-06
1.55321e-06
1.33762e-06
1.1402e-06
9.61133e-07
7.9787e-07
6.60936e-07
5.26724e-07
4.36698e-07
3.23005e-07
2.77674e-07
1.87698e-07
1.72253e-07
1.22342e-07
1.69419e-07
2.00096e-05
1.47038e-05
1.37485e-05
1.32109e-05
1.25903e-05
1.19249e-05
1.12752e-05
1.0654e-05
1.0075e-05
9.54151e-06
9.04042e-06
8.5752e-06
8.14508e-06
7.74883e-06
7.38572e-06
7.05162e-06
6.74545e-06
6.46947e-06
6.22223e-06
5.99827e-06
5.79132e-06
5.59361e-06
5.39892e-06
5.20382e-06
5.00588e-06
4.8031e-06
4.59436e-06
4.37837e-06
4.15384e-06
3.91925e-06
3.67459e-06
3.42008e-06
3.15849e-06
2.89141e-06
2.62355e-06
2.35752e-06
2.09761e-06
1.8482e-06
1.60914e-06
1.39021e-06
1.17857e-06
1.00187e-06
8.1615e-07
6.9135e-07
5.27735e-07
4.54546e-07
3.22378e-07
2.87104e-07
2.0003e-07
2.01166e-07
2.01332e-05
1.54656e-05
9.63529e-06
9.39764e-06
9.49056e-06
9.48811e-06
9.42637e-06
9.28235e-06
9.03666e-06
8.76014e-06
8.45696e-06
8.15475e-06
7.85753e-06
7.56731e-06
7.28858e-06
7.0201e-06
6.76457e-06
6.52516e-06
6.30032e-06
6.08992e-06
5.89279e-06
5.70516e-06
5.52293e-06
5.34327e-06
5.16383e-06
4.9828e-06
4.79882e-06
4.61075e-06
4.41704e-06
4.21535e-06
4.00379e-06
3.78151e-06
3.5485e-06
3.30585e-06
3.05479e-06
2.79999e-06
2.54094e-06
2.28772e-06
2.0333e-06
1.79771e-06
1.55727e-06
1.3552e-06
1.13177e-06
9.75629e-07
7.72344e-07
6.64232e-07
4.96938e-07
4.2894e-07
3.22167e-07
2.52765e-07
2.01714e-05
1.8675e-05
8.68911e-06
5.53994e-06
5.62928e-06
5.93075e-06
6.28484e-06
6.56385e-06
6.73187e-06
6.83282e-06
6.83138e-06
6.80241e-06
6.73067e-06
6.62076e-06
6.48912e-06
6.33974e-06
6.1825e-06
6.01876e-06
5.85075e-06
5.68418e-06
5.5228e-06
5.36645e-06
5.21367e-06
5.06313e-06
4.91328e-06
4.76314e-06
4.61183e-06
4.45901e-06
4.30371e-06
4.14409e-06
3.97703e-06
3.80117e-06
3.61408e-06
3.41709e-06
3.20756e-06
2.99195e-06
2.76429e-06
2.53871e-06
2.30135e-06
2.07873e-06
1.8406e-06
1.63585e-06
1.40382e-06
1.22824e-06
1.01171e-06
8.67493e-07
6.88701e-07
5.68513e-07
4.63952e-07
3.27382e-07
2.01673e-05
1.97237e-05
1.61655e-05
4.86298e-06
3.04307e-06
3.10467e-06
3.36991e-06
3.79403e-06
4.14853e-06
4.45743e-06
4.68326e-06
4.85644e-06
4.96897e-06
5.04238e-06
5.06508e-06
5.05581e-06
5.02771e-06
4.97118e-06
4.89262e-06
4.80275e-06
4.70719e-06
4.60711e-06
4.50427e-06
4.39967e-06
4.29271e-06
4.18359e-06
4.07247e-06
3.96018e-06
3.84691e-06
3.73219e-06
3.61297e-06
3.48731e-06
3.35103e-06
3.20606e-06
3.04803e-06
2.88415e-06
2.70609e-06
2.52777e-06
2.33415e-06
2.14945e-06
1.94593e-06
1.76359e-06
1.55647e-06
1.38304e-06
1.18271e-06
1.01869e-06
8.47731e-07
6.90097e-07
5.86119e-07
4.12393e-07
2.01478e-05
1.99341e-05
1.90651e-05
1.44994e-05
5.25135e-06
2.15787e-06
1.91479e-06
1.9906e-06
2.19596e-06
2.48642e-06
2.7448e-06
2.98082e-06
3.1785e-06
3.34276e-06
3.47267e-06
3.56141e-06
3.62368e-06
3.66024e-06
3.66048e-06
3.65086e-06
3.62674e-06
3.5869e-06
3.53928e-06
3.48663e-06
3.42754e-06
3.36262e-06
3.29328e-06
3.22128e-06
3.14801e-06
3.07471e-06
2.99909e-06
2.91961e-06
2.83097e-06
2.73511e-06
2.62767e-06
2.51535e-06
2.39117e-06
2.26639e-06
2.12818e-06
1.99356e-06
1.8431e-06
1.70193e-06
1.54276e-06
1.39644e-06
1.23455e-06
1.08e-06
9.28577e-07
7.67527e-07
6.56682e-07
4.89879e-07
2.01217e-05
1.9966e-05
1.9642e-05
1.85464e-05
1.52182e-05
8.38279e-06
3.13205e-06
1.63935e-06
1.44413e-06
1.4465e-06
1.51329e-06
1.65862e-06
1.81973e-06
1.96907e-06
2.10844e-06
2.22645e-06
2.32364e-06
2.40353e-06
2.45635e-06
2.49037e-06
2.51443e-06
2.52048e-06
2.51814e-06
2.51044e-06
2.49324e-06
2.46622e-06
2.4335e-06
2.39617e-06
2.35657e-06
2.3172e-06
2.27697e-06
2.23488e-06
2.18551e-06
2.1291e-06
2.06253e-06
1.99147e-06
1.91229e-06
1.83313e-06
1.74612e-06
1.66076e-06
1.56604e-06
1.47479e-06
1.37339e-06
1.27296e-06
1.15997e-06
1.03948e-06
9.15781e-07
7.77419e-07
6.66353e-07
5.25747e-07
2.00983e-05
1.99326e-05
1.97569e-05
1.93524e-05
1.85079e-05
1.65463e-05
1.23625e-05
6.93851e-06
3.06676e-06
1.52155e-06
1.24929e-06
1.15513e-06
1.13867e-06
1.16584e-06
1.23153e-06
1.31195e-06
1.38439e-06
1.45291e-06
1.50857e-06
1.55321e-06
1.59101e-06
1.61799e-06
1.63898e-06
1.6537e-06
1.65655e-06
1.65459e-06
1.64831e-06
1.63453e-06
1.61797e-06
1.60183e-06
1.5858e-06
1.56939e-06
1.54843e-06
1.52067e-06
1.48344e-06
1.44137e-06
1.39414e-06
1.34788e-06
1.29936e-06
1.2528e-06
1.20223e-06
1.15374e-06
1.10067e-06
1.04651e-06
9.8459e-07
9.11329e-07
8.28772e-07
7.25114e-07
6.3129e-07
5.14851e-07
2.00783e-05
1.98874e-05
1.97565e-05
1.94607e-05
1.91459e-05
1.86443e-05
1.7569e-05
1.54554e-05
1.18467e-05
7.63979e-06
4.19906e-06
2.07981e-06
1.26528e-06
1.07401e-06
1.0002e-06
9.44016e-07
9.18892e-07
9.25113e-07
9.42794e-07
9.67031e-07
9.88561e-07
1.00619e-06
1.02255e-06
1.03608e-06
1.04398e-06
1.04697e-06
1.0469e-06
1.04483e-06
1.03955e-06
1.03529e-06
1.03195e-06
1.02851e-06
1.02345e-06
1.01414e-06
9.94867e-07
9.69889e-07
9.4173e-07
9.15364e-07
8.90656e-07
8.694e-07
8.48317e-07
8.29995e-07
8.11206e-07
7.92584e-07
7.70316e-07
7.39297e-07
6.97255e-07
6.31147e-07
5.58461e-07
4.68232e-07
2.00615e-05
1.98537e-05
1.97339e-05
1.94711e-05
1.92546e-05
1.90488e-05
1.87397e-05
1.82031e-05
1.7134e-05
1.53123e-05
1.27719e-05
9.61086e-06
6.50228e-06
4.02379e-06
2.34331e-06
1.41941e-06
1.05497e-06
9.34569e-07
8.74327e-07
8.22032e-07
7.74285e-07
7.38146e-07
7.16844e-07
7.06613e-07
7.01314e-07
6.9686e-07
6.91484e-07
6.84975e-07
6.7918e-07
6.75676e-07
6.74081e-07
6.73187e-07
6.71627e-07
6.67793e-07
6.57182e-07
6.38501e-07
6.186e-07
6.01147e-07
5.8824e-07
5.80113e-07
5.75528e-07
5.74684e-07
5.75834e-07
5.80622e-07
5.82166e-07
5.80569e-07
5.72151e-07
5.48371e-07
4.94448e-07
4.19882e-07
2.00476e-05
1.98301e-05
1.97072e-05
1.94501e-05
1.92688e-05
1.91191e-05
1.89624e-05
1.87629e-05
1.847e-05
1.79461e-05
1.71288e-05
1.58696e-05
1.41755e-05
1.21052e-05
9.75207e-06
7.43619e-06
5.39643e-06
3.78044e-06
2.5895e-06
1.76854e-06
1.26296e-06
9.88883e-07
8.51482e-07
7.80091e-07
7.3419e-07
6.94951e-07
6.55908e-07
6.18528e-07
5.86537e-07
5.61987e-07
5.44496e-07
5.32537e-07
5.23241e-07
5.11968e-07
4.95355e-07
4.75386e-07
4.54955e-07
4.3728e-07
4.27671e-07
4.26203e-07
4.27669e-07
4.33394e-07
4.48759e-07
4.76294e-07
5.02277e-07
5.18571e-07
5.22482e-07
5.18777e-07
4.95844e-07
4.26948e-07
2.00363e-05
1.98122e-05
1.96846e-05
1.94212e-05
1.92527e-05
1.91144e-05
1.8993e-05
1.88652e-05
1.87133e-05
1.85184e-05
1.8261e-05
1.78921e-05
1.73347e-05
1.65671e-05
1.55426e-05
1.42929e-05
1.28831e-05
1.13471e-05
9.74274e-06
8.17358e-06
6.7223e-06
5.44452e-06
4.35813e-06
3.46899e-06
2.74807e-06
2.1693e-06
1.71665e-06
1.37687e-06
1.13396e-06
9.67126e-07
8.55134e-07
7.79874e-07
7.26382e-07
6.82002e-07
6.38734e-07
5.94623e-07
5.53544e-07
5.20156e-07
4.99468e-07
4.94281e-07
4.97339e-07
5.09134e-07
5.39035e-07
5.87274e-07
6.38829e-07
6.73326e-07
6.81754e-07
6.75178e-07
6.40407e-07
5.44768e-07
2.00273e-05
1.97985e-05
1.96653e-05
1.94e-05
1.92259e-05
1.90866e-05
1.89755e-05
1.88678e-05
1.87397e-05
1.86047e-05
1.84689e-05
1.83239e-05
1.81274e-05
1.78655e-05
1.75133e-05
1.70763e-05
1.65467e-05
1.59157e-05
1.51625e-05
1.43007e-05
1.3368e-05
1.24014e-05
1.14279e-05
1.04479e-05
9.47047e-06
8.51216e-06
7.60418e-06
6.78062e-06
6.06273e-06
5.44481e-06
4.90657e-06
4.42231e-06
3.96888e-06
3.53363e-06
3.12446e-06
2.752e-06
2.43189e-06
2.17728e-06
1.98846e-06
1.84624e-06
1.73914e-06
1.64749e-06
1.59364e-06
1.57204e-06
1.57399e-06
1.55881e-06
1.49608e-06
1.37362e-06
1.20164e-06
9.88693e-07
2.00201e-05
1.97917e-05
1.96415e-05
1.93838e-05
1.92033e-05
1.90553e-05
1.89402e-05
1.88399e-05
1.87197e-05
1.85942e-05
1.84809e-05
1.83776e-05
1.82587e-05
1.81163e-05
1.79505e-05
1.77789e-05
1.75993e-05
1.73925e-05
1.7122e-05
1.67804e-05
1.63882e-05
1.59672e-05
1.55264e-05
1.50629e-05
1.45598e-05
1.40074e-05
1.34236e-05
1.28418e-05
1.22931e-05
1.17778e-05
1.12855e-05
1.07982e-05
1.029e-05
9.74938e-06
9.20073e-06
8.67809e-06
8.20476e-06
7.80632e-06
7.46974e-06
7.16331e-06
6.8798e-06
6.57474e-06
6.24665e-06
5.86517e-06
5.39191e-06
4.80336e-06
4.12693e-06
3.43445e-06
2.77731e-06
2.16635e-06
2.00146e-05
1.9792e-05
1.96154e-05
1.93685e-05
1.91837e-05
1.90265e-05
1.89074e-05
1.88014e-05
1.86797e-05
1.85563e-05
1.84514e-05
1.83564e-05
1.82496e-05
1.81239e-05
1.79932e-05
1.78802e-05
1.77891e-05
1.76999e-05
1.75771e-05
1.74122e-05
1.72252e-05
1.70385e-05
1.68632e-05
1.66943e-05
1.65079e-05
1.628e-05
1.60115e-05
1.5724e-05
1.54451e-05
1.51801e-05
1.4926e-05
1.46679e-05
1.43783e-05
1.40433e-05
1.36852e-05
1.333e-05
1.29888e-05
1.26802e-05
1.24014e-05
1.21343e-05
1.18758e-05
1.16117e-05
1.1348e-05
1.10405e-05
1.04808e-05
9.49814e-06
8.1469e-06
6.68974e-06
5.31859e-06
4.09001e-06
2.00103e-05
1.97958e-05
1.95899e-05
1.93529e-05
1.91654e-05
1.90001e-05
1.88761e-05
1.87632e-05
1.86381e-05
1.8514e-05
1.8409e-05
1.83126e-05
1.82052e-05
1.80819e-05
1.79576e-05
1.78561e-05
1.77806e-05
1.77097e-05
1.76135e-05
1.74854e-05
1.73462e-05
1.72209e-05
1.71227e-05
1.70469e-05
1.69691e-05
1.68616e-05
1.67167e-05
1.65493e-05
1.63861e-05
1.62428e-05
1.61219e-05
1.60074e-05
1.58705e-05
1.56934e-05
1.5483e-05
1.52528e-05
1.50136e-05
1.47817e-05
1.45676e-05
1.43735e-05
1.42064e-05
1.4061e-05
1.39204e-05
1.37335e-05
1.33923e-05
1.26911e-05
1.11293e-05
9.27024e-06
7.47039e-06
5.81716e-06
2.00071e-05
1.98027e-05
1.9566e-05
1.93379e-05
1.91481e-05
1.89761e-05
1.88455e-05
1.87258e-05
1.85974e-05
1.84735e-05
1.83671e-05
1.82663e-05
1.81525e-05
1.80242e-05
1.79009e-05
1.78039e-05
1.77325e-05
1.76618e-05
1.75644e-05
1.74375e-05
1.73037e-05
1.71894e-05
1.71066e-05
1.70485e-05
1.69914e-05
1.69082e-05
1.67885e-05
1.6644e-05
1.6502e-05
1.63878e-05
1.63092e-05
1.62476e-05
1.61707e-05
1.60545e-05
1.58957e-05
1.57023e-05
1.54902e-05
1.52783e-05
1.50866e-05
1.49289e-05
1.48141e-05
1.47316e-05
1.46559e-05
1.45401e-05
1.43123e-05
1.38218e-05
1.25113e-05
1.0541e-05
8.62267e-06
6.81261e-06
2.00048e-05
1.98107e-05
1.95433e-05
1.93232e-05
1.91313e-05
1.8954e-05
1.88151e-05
1.86891e-05
1.85584e-05
1.84351e-05
1.8327e-05
1.82206e-05
1.80995e-05
1.79662e-05
1.78432e-05
1.77497e-05
1.7679e-05
1.76025e-05
1.74964e-05
1.73625e-05
1.72267e-05
1.71155e-05
1.70385e-05
1.69842e-05
1.69266e-05
1.68405e-05
1.67166e-05
1.6567e-05
1.64182e-05
1.63009e-05
1.62283e-05
1.6182e-05
1.61237e-05
1.60205e-05
1.58646e-05
1.56654e-05
1.54436e-05
1.52232e-05
1.50296e-05
1.48801e-05
1.47813e-05
1.47182e-05
1.46609e-05
1.45673e-05
1.43788e-05
1.396e-05
1.27902e-05
1.09029e-05
9.02041e-06
7.18547e-06
2.0003e-05
1.98192e-05
1.9522e-05
1.93079e-05
1.91147e-05
1.89333e-05
1.87853e-05
1.86534e-05
1.85213e-05
1.83985e-05
1.82885e-05
1.81764e-05
1.80482e-05
1.79105e-05
1.77876e-05
1.7697e-05
1.76268e-05
1.75452e-05
1.74297e-05
1.72875e-05
1.71484e-05
1.70398e-05
1.69672e-05
1.69136e-05
1.68509e-05
1.67554e-05
1.66207e-05
1.64609e-05
1.6304e-05
1.61797e-05
1.61019e-05
1.60573e-05
1.60088e-05
1.59103e-05
1.57405e-05
1.55204e-05
1.52769e-05
1.50393e-05
1.48366e-05
1.46868e-05
1.45931e-05
1.4537e-05
1.44867e-05
1.44003e-05
1.42235e-05
1.38197e-05
1.2686e-05
1.09139e-05
9.07798e-06
7.22975e-06
2.00018e-05
1.98274e-05
1.95026e-05
1.92918e-05
1.90976e-05
1.89139e-05
1.87565e-05
1.86191e-05
1.8486e-05
1.83637e-05
1.82516e-05
1.8134e-05
1.79996e-05
1.78583e-05
1.77355e-05
1.76468e-05
1.75767e-05
1.74906e-05
1.73665e-05
1.72161e-05
1.70738e-05
1.69676e-05
1.68998e-05
1.68478e-05
1.67802e-05
1.66747e-05
1.65286e-05
1.63592e-05
1.61962e-05
1.6068e-05
1.59867e-05
1.59401e-05
1.58933e-05
1.58017e-05
1.56149e-05
1.53688e-05
1.51e-05
1.48438e-05
1.46322e-05
1.44829e-05
1.43938e-05
1.43424e-05
1.4294e-05
1.4208e-05
1.40304e-05
1.36171e-05
1.24946e-05
1.08611e-05
9.05029e-06
7.16532e-06
2.0001e-05
1.983e-05
1.94869e-05
1.92757e-05
1.90802e-05
1.88957e-05
1.87293e-05
1.85868e-05
1.84529e-05
1.83307e-05
1.82164e-05
1.80938e-05
1.7954e-05
1.78102e-05
1.76879e-05
1.76001e-05
1.75292e-05
1.7439e-05
1.73078e-05
1.715e-05
1.70039e-05
1.68998e-05
1.68368e-05
1.67867e-05
1.67148e-05
1.65996e-05
1.64422e-05
1.62639e-05
1.60963e-05
1.59664e-05
1.58842e-05
1.58363e-05
1.57893e-05
1.57e-05
1.55012e-05
1.52257e-05
1.49298e-05
1.46547e-05
1.44364e-05
1.4291e-05
1.42106e-05
1.41671e-05
1.41228e-05
1.40397e-05
1.38644e-05
1.34436e-05
1.23741e-05
1.08576e-05
9.00378e-06
7.02691e-06
2.00004e-05
1.98283e-05
1.94739e-05
1.92587e-05
1.90623e-05
1.88792e-05
1.87044e-05
1.85569e-05
1.84222e-05
1.82999e-05
1.81835e-05
1.80564e-05
1.79121e-05
1.77664e-05
1.76451e-05
1.75582e-05
1.74854e-05
1.73908e-05
1.72542e-05
1.70904e-05
1.69401e-05
1.68364e-05
1.67778e-05
1.67308e-05
1.66556e-05
1.6531e-05
1.63622e-05
1.61752e-05
1.60034e-05
1.5873e-05
1.5791e-05
1.57426e-05
1.56946e-05
1.56049e-05
1.53973e-05
1.50899e-05
1.47648e-05
1.44708e-05
1.42477e-05
1.41093e-05
1.40406e-05
1.40066e-05
1.39676e-05
1.38905e-05
1.37211e-05
1.33033e-05
1.2347e-05
1.08979e-05
8.93945e-06
6.8498e-06
2e-05
1.98266e-05
1.94628e-05
1.92401e-05
1.90436e-05
1.8864e-05
1.86816e-05
1.85288e-05
1.83936e-05
1.82716e-05
1.81533e-05
1.80223e-05
1.78743e-05
1.77273e-05
1.76072e-05
1.75213e-05
1.74465e-05
1.73473e-05
1.72056e-05
1.7038e-05
1.68846e-05
1.67784e-05
1.67214e-05
1.66797e-05
1.66044e-05
1.64707e-05
1.629e-05
1.60937e-05
1.59179e-05
1.57872e-05
1.57061e-05
1.56575e-05
1.56084e-05
1.5517e-05
1.53016e-05
1.49605e-05
1.4604e-05
1.42908e-05
1.40644e-05
1.39356e-05
1.38805e-05
1.38562e-05
1.38233e-05
1.37544e-05
1.35939e-05
1.32007e-05
1.23976e-05
1.09398e-05
8.83363e-06
6.64901e-06
1.99999e-05
1.98253e-05
1.94544e-05
1.92209e-05
1.90249e-05
1.88504e-05
1.86613e-05
1.8503e-05
1.83674e-05
1.82463e-05
1.81267e-05
1.79922e-05
1.7841e-05
1.76932e-05
1.75744e-05
1.74896e-05
1.74134e-05
1.73099e-05
1.71633e-05
1.69921e-05
1.68366e-05
1.67286e-05
1.667e-05
1.663e-05
1.65622e-05
1.64208e-05
1.62268e-05
1.60206e-05
1.58404e-05
1.57098e-05
1.56298e-05
1.55812e-05
1.55308e-05
1.54371e-05
1.52146e-05
1.48377e-05
1.44476e-05
1.41148e-05
1.38869e-05
1.37699e-05
1.37288e-05
1.37133e-05
1.36877e-05
1.36286e-05
1.348e-05
1.31321e-05
1.24521e-05
1.09702e-05
8.68667e-06
6.46554e-06
1.99999e-05
1.98246e-05
1.94491e-05
1.92023e-05
1.90069e-05
1.88388e-05
1.86444e-05
1.848e-05
1.83441e-05
1.82246e-05
1.81044e-05
1.79669e-05
1.78126e-05
1.7664e-05
1.75468e-05
1.74635e-05
1.73866e-05
1.72795e-05
1.71282e-05
1.69533e-05
1.67957e-05
1.66866e-05
1.6627e-05
1.65875e-05
1.65241e-05
1.63823e-05
1.61732e-05
1.59564e-05
1.5772e-05
1.56418e-05
1.55633e-05
1.55148e-05
1.5463e-05
1.53666e-05
1.51376e-05
1.47226e-05
1.42961e-05
1.39434e-05
1.3716e-05
1.36125e-05
1.35849e-05
1.35771e-05
1.35606e-05
1.35123e-05
1.33824e-05
1.30781e-05
1.24463e-05
1.09605e-05
8.53814e-06
6.36848e-06
1.99999e-05
1.98244e-05
1.94464e-05
1.91852e-05
1.89901e-05
1.88291e-05
1.86314e-05
1.84604e-05
1.83241e-05
1.82068e-05
1.80867e-05
1.79467e-05
1.77896e-05
1.76403e-05
1.75247e-05
1.74435e-05
1.73667e-05
1.72567e-05
1.71006e-05
1.69218e-05
1.67622e-05
1.66525e-05
1.65927e-05
1.65536e-05
1.64928e-05
1.63529e-05
1.61292e-05
1.59016e-05
1.57134e-05
1.55843e-05
1.55077e-05
1.54596e-05
1.54063e-05
1.53068e-05
1.50717e-05
1.46158e-05
1.415e-05
1.37773e-05
1.35523e-05
1.34633e-05
1.34482e-05
1.34484e-05
1.34416e-05
1.34042e-05
1.32886e-05
1.30087e-05
1.24046e-05
1.08715e-05
8.42631e-06
6.41098e-06
1.99999e-05
1.98246e-05
1.94465e-05
1.91704e-05
1.89749e-05
1.8821e-05
1.86224e-05
1.84448e-05
1.83075e-05
1.81929e-05
1.80739e-05
1.7932e-05
1.77721e-05
1.76219e-05
1.75082e-05
1.743e-05
1.7354e-05
1.72415e-05
1.70808e-05
1.68977e-05
1.67362e-05
1.66266e-05
1.65673e-05
1.65289e-05
1.64698e-05
1.63324e-05
1.60946e-05
1.58565e-05
1.56652e-05
1.5538e-05
1.54639e-05
1.54163e-05
1.53616e-05
1.52587e-05
1.50179e-05
1.45178e-05
1.40095e-05
1.36166e-05
1.33953e-05
1.33236e-05
1.33208e-05
1.33293e-05
1.33284e-05
1.32992e-05
1.31917e-05
1.29187e-05
1.23119e-05
1.06956e-05
8.40139e-06
6.66161e-06
1.99999e-05
1.98252e-05
1.94489e-05
1.91584e-05
1.89614e-05
1.8814e-05
1.86173e-05
1.84335e-05
1.82947e-05
1.81827e-05
1.80655e-05
1.79223e-05
1.776e-05
1.76089e-05
1.74976e-05
1.7423e-05
1.73487e-05
1.72339e-05
1.70682e-05
1.68807e-05
1.67177e-05
1.66089e-05
1.65511e-05
1.65135e-05
1.64555e-05
1.63203e-05
1.6069e-05
1.58209e-05
1.56276e-05
1.55034e-05
1.54324e-05
1.53856e-05
1.53294e-05
1.5223e-05
1.49754e-05
1.44293e-05
1.38739e-05
1.34591e-05
1.32468e-05
1.31954e-05
1.32003e-05
1.32203e-05
1.32207e-05
1.31918e-05
1.30797e-05
1.27941e-05
1.21483e-05
1.04673e-05
8.51834e-06
7.09081e-06
1.99999e-05
1.98264e-05
1.9454e-05
1.915e-05
1.895e-05
1.8808e-05
1.86159e-05
1.84268e-05
1.82859e-05
1.81762e-05
1.80613e-05
1.79174e-05
1.77526e-05
1.76009e-05
1.74925e-05
1.74225e-05
1.73505e-05
1.72334e-05
1.70623e-05
1.68704e-05
1.67063e-05
1.65995e-05
1.65439e-05
1.65074e-05
1.64501e-05
1.63164e-05
1.60516e-05
1.57942e-05
1.56003e-05
1.54805e-05
1.54133e-05
1.53675e-05
1.53098e-05
1.51996e-05
1.49439e-05
1.43493e-05
1.37404e-05
1.33064e-05
1.31077e-05
1.30738e-05
1.30873e-05
1.3114e-05
1.31127e-05
1.30724e-05
1.29316e-05
1.26026e-05
1.18679e-05
1.0289e-05
8.78077e-06
7.62203e-06
1.99999e-05
1.98281e-05
1.94613e-05
1.91454e-05
1.89409e-05
1.88027e-05
1.86175e-05
1.84244e-05
1.8281e-05
1.81734e-05
1.8061e-05
1.79165e-05
1.77494e-05
1.75975e-05
1.74925e-05
1.74273e-05
1.73578e-05
1.72385e-05
1.70621e-05
1.68658e-05
1.67018e-05
1.65981e-05
1.65455e-05
1.65103e-05
1.64534e-05
1.63197e-05
1.60413e-05
1.57754e-05
1.55826e-05
1.54685e-05
1.54059e-05
1.53613e-05
1.5302e-05
1.51878e-05
1.4922e-05
1.42752e-05
1.36092e-05
1.31588e-05
1.2976e-05
1.29563e-05
1.29795e-05
1.30058e-05
1.29973e-05
1.29182e-05
1.26925e-05
1.23181e-05
1.14862e-05
1.0253e-05
9.13784e-06
8.17956e-06
1.99999e-05
1.98304e-05
1.94706e-05
1.91451e-05
1.89344e-05
1.87985e-05
1.86216e-05
1.84259e-05
1.82797e-05
1.81739e-05
1.8064e-05
1.79192e-05
1.77499e-05
1.75975e-05
1.74964e-05
1.74374e-05
1.73707e-05
1.72485e-05
1.70663e-05
1.68664e-05
1.67031e-05
1.66034e-05
1.65546e-05
1.65209e-05
1.6464e-05
1.63291e-05
1.60369e-05
1.57634e-05
1.55735e-05
1.54665e-05
1.54088e-05
1.53652e-05
1.53044e-05
1.51861e-05
1.49082e-05
1.42049e-05
1.34795e-05
1.30155e-05
1.28497e-05
1.28414e-05
1.28734e-05
1.28928e-05
1.2869e-05
1.27179e-05
1.23769e-05
1.18422e-05
1.10958e-05
1.02961e-05
9.53528e-06
8.71707e-06
1.99999e-05
1.98332e-05
1.94817e-05
1.91483e-05
1.89309e-05
1.87952e-05
1.86274e-05
1.84307e-05
1.82816e-05
1.8177e-05
1.80699e-05
1.79248e-05
1.77528e-05
1.76003e-05
1.75036e-05
1.74508e-05
1.73874e-05
1.72625e-05
1.70742e-05
1.68705e-05
1.67093e-05
1.66151e-05
1.65708e-05
1.65386e-05
1.64817e-05
1.63439e-05
1.60371e-05
1.5757e-05
1.55716e-05
1.54726e-05
1.54202e-05
1.53777e-05
1.53151e-05
1.51925e-05
1.49003e-05
1.41353e-05
1.33495e-05
1.28753e-05
1.27281e-05
1.27285e-05
1.27658e-05
1.27719e-05
1.27154e-05
1.2482e-05
1.1908e-05
1.12108e-05
1.06943e-05
1.03422e-05
9.93132e-06
9.23344e-06
1.99999e-05
1.98365e-05
1.94941e-05
1.91557e-05
1.89305e-05
1.87938e-05
1.86345e-05
1.84386e-05
1.82866e-05
1.8183e-05
1.80784e-05
1.79328e-05
1.77581e-05
1.7606e-05
1.75124e-05
1.74629e-05
1.7405e-05
1.72819e-05
1.70853e-05
1.68781e-05
1.67196e-05
1.66315e-05
1.65919e-05
1.65613e-05
1.65042e-05
1.63626e-05
1.60404e-05
1.57547e-05
1.55757e-05
1.54861e-05
1.5439e-05
1.53973e-05
1.5333e-05
1.52058e-05
1.48964e-05
1.40624e-05
1.32169e-05
1.27376e-05
1.26098e-05
1.26181e-05
1.26519e-05
1.26409e-05
1.25169e-05
1.20903e-05
1.13556e-05
1.0655e-05
1.0272e-05
1.01397e-05
1.00242e-05
9.76033e-06
1.99999e-05
1.98402e-05
1.95074e-05
1.91667e-05
1.89326e-05
1.8794e-05
1.86427e-05
1.84484e-05
1.82942e-05
1.81911e-05
1.80879e-05
1.79421e-05
1.77665e-05
1.7614e-05
1.75207e-05
1.74725e-05
1.74198e-05
1.73056e-05
1.71e-05
1.68883e-05
1.67327e-05
1.6651e-05
1.66162e-05
1.6587e-05
1.65301e-05
1.63837e-05
1.60452e-05
1.57555e-05
1.55847e-05
1.55051e-05
1.5463e-05
1.54217e-05
1.53554e-05
1.52233e-05
1.48934e-05
1.39812e-05
1.30785e-05
1.26015e-05
1.24941e-05
1.25096e-05
1.25298e-05
1.24888e-05
1.22456e-05
1.15715e-05
1.07383e-05
1.01287e-05
9.92356e-06
9.92798e-06
9.97162e-06
9.92834e-06
1.99999e-05
1.98442e-05
1.95217e-05
1.91804e-05
1.8938e-05
1.87962e-05
1.86516e-05
1.84598e-05
1.83037e-05
1.82007e-05
1.80982e-05
1.79527e-05
1.77764e-05
1.76227e-05
1.75288e-05
1.74817e-05
1.7433e-05
1.73284e-05
1.71159e-05
1.68998e-05
1.67473e-05
1.66722e-05
1.6642e-05
1.66141e-05
1.65576e-05
1.64055e-05
1.60502e-05
1.57583e-05
1.55973e-05
1.5528e-05
1.54903e-05
1.54488e-05
1.53803e-05
1.52425e-05
1.48867e-05
1.38861e-05
1.2931e-05
1.24662e-05
1.23795e-05
1.23978e-05
1.24013e-05
1.23038e-05
1.18649e-05
1.09673e-05
1.01361e-05
9.70355e-06
9.6468e-06
9.76576e-06
9.97952e-06
9.99375e-06
1.99999e-05
1.98485e-05
1.95365e-05
1.91968e-05
1.89467e-05
1.88007e-05
1.8661e-05
1.84726e-05
1.83143e-05
1.82111e-05
1.81093e-05
1.7964e-05
1.77866e-05
1.76311e-05
1.75363e-05
1.74901e-05
1.74445e-05
1.7348e-05
1.71322e-05
1.69114e-05
1.67622e-05
1.66935e-05
1.66676e-05
1.66412e-05
1.65852e-05
1.64265e-05
1.6054e-05
1.57617e-05
1.56121e-05
1.55531e-05
1.55187e-05
1.54762e-05
1.54052e-05
1.52605e-05
1.4872e-05
1.37707e-05
1.27706e-05
1.23289e-05
1.22634e-05
1.22797e-05
1.22621e-05
1.20733e-05
1.13828e-05
1.03496e-05
9.57458e-06
9.29989e-06
9.32435e-06
9.64451e-06
9.9877e-06
1.0042e-05
1.99999e-05
1.9853e-05
1.95513e-05
1.92157e-05
1.8959e-05
1.88071e-05
1.86707e-05
1.84863e-05
1.83255e-05
1.82212e-05
1.81208e-05
1.7976e-05
1.7797e-05
1.76385e-05
1.7542e-05
1.74964e-05
1.74535e-05
1.73638e-05
1.71483e-05
1.69225e-05
1.67764e-05
1.67138e-05
1.66918e-05
1.66671e-05
1.66117e-05
1.64452e-05
1.6055e-05
1.57646e-05
1.56278e-05
1.55784e-05
1.55457e-05
1.55014e-05
1.54273e-05
1.52742e-05
1.48442e-05
1.36275e-05
1.25928e-05
1.2184e-05
1.21402e-05
1.21516e-05
1.21025e-05
1.17921e-05
1.08415e-05
9.72825e-06
9.04028e-06
8.88859e-06
9.00727e-06
9.57671e-06
9.99498e-06
1.00749e-05
1.99999e-05
1.98577e-05
1.95656e-05
1.92367e-05
1.89751e-05
1.88157e-05
1.86809e-05
1.85008e-05
1.83369e-05
1.82306e-05
1.81321e-05
1.79886e-05
1.78075e-05
1.76447e-05
1.7545e-05
1.74993e-05
1.7459e-05
1.73755e-05
1.71633e-05
1.69324e-05
1.67892e-05
1.67322e-05
1.67137e-05
1.66907e-05
1.66358e-05
1.64598e-05
1.60523e-05
1.57658e-05
1.56426e-05
1.56014e-05
1.55685e-05
1.55212e-05
1.54435e-05
1.52799e-05
1.47961e-05
1.34491e-05
1.23926e-05
1.20262e-05
1.2003e-05
1.20084e-05
1.19181e-05
1.14573e-05
1.02647e-05
9.11231e-06
8.53097e-06
8.47719e-06
8.75357e-06
9.56016e-06
1.00061e-05
1.01003e-05
1.99999e-05
1.98624e-05
1.95796e-05
1.92586e-05
1.89946e-05
1.8827e-05
1.86916e-05
1.85154e-05
1.83481e-05
1.82391e-05
1.81429e-05
1.80014e-05
1.78177e-05
1.76491e-05
1.75451e-05
1.74986e-05
1.74604e-05
1.73826e-05
1.7176e-05
1.69404e-05
1.67997e-05
1.67477e-05
1.67323e-05
1.67111e-05
1.66564e-05
1.6469e-05
1.60444e-05
1.57644e-05
1.5655e-05
1.56196e-05
1.55837e-05
1.55322e-05
1.54502e-05
1.52734e-05
1.47199e-05
1.32283e-05
1.21667e-05
1.18519e-05
1.18471e-05
1.18465e-05
1.17062e-05
1.10635e-05
9.66618e-06
8.51119e-06
8.05208e-06
8.07782e-06
8.62009e-06
9.5682e-06
1.00298e-05
1.01296e-05
1.99999e-05
1.98671e-05
1.95935e-05
1.92807e-05
1.90167e-05
1.88415e-05
1.87032e-05
1.85294e-05
1.83588e-05
1.82467e-05
1.8153e-05
1.80137e-05
1.78272e-05
1.76517e-05
1.75418e-05
1.74938e-05
1.74577e-05
1.7385e-05
1.71856e-05
1.69459e-05
1.68071e-05
1.67596e-05
1.67468e-05
1.67275e-05
1.66728e-05
1.64713e-05
1.60308e-05
1.5759e-05
1.56626e-05
1.56294e-05
1.55869e-05
1.55299e-05
1.5443e-05
1.525e-05
1.46061e-05
1.29606e-05
1.19143e-05
1.16603e-05
1.16706e-05
1.16617e-05
1.14625e-05
1.06083e-05
9.05434e-06
7.93372e-06
7.60335e-06
7.72926e-06
8.59618e-06
9.61211e-06
1.00729e-05
1.01704e-05
1.99999e-05
1.98719e-05
1.96075e-05
1.93026e-05
1.90408e-05
1.88593e-05
1.87161e-05
1.85427e-05
1.83687e-05
1.82533e-05
1.81623e-05
1.80256e-05
1.78355e-05
1.76521e-05
1.75351e-05
1.74847e-05
1.74503e-05
1.73823e-05
1.71914e-05
1.69482e-05
1.6811e-05
1.67673e-05
1.67569e-05
1.67395e-05
1.6684e-05
1.64659e-05
1.60107e-05
1.57482e-05
1.56628e-05
1.56272e-05
1.55745e-05
1.55109e-05
1.54184e-05
1.52047e-05
1.44438e-05
1.26439e-05
1.16352e-05
1.14471e-05
1.14714e-05
1.1452e-05
1.11842e-05
1.01004e-05
8.43423e-06
7.39389e-06
7.19061e-06
7.464e-06
8.67354e-06
9.69465e-06
1.01379e-05
1.02273e-05
1.99999e-05
1.98767e-05
1.96219e-05
1.93239e-05
1.90661e-05
1.88804e-05
1.87307e-05
1.85554e-05
1.83775e-05
1.82589e-05
1.81708e-05
1.80366e-05
1.78426e-05
1.76501e-05
1.75249e-05
1.74714e-05
1.74383e-05
1.73746e-05
1.71928e-05
1.69469e-05
1.68107e-05
1.67703e-05
1.67619e-05
1.67464e-05
1.66894e-05
1.64521e-05
1.59836e-05
1.57308e-05
1.56526e-05
1.56073e-05
1.55388e-05
1.54671e-05
1.53688e-05
1.51307e-05
1.42223e-05
1.22804e-05
1.13294e-05
1.12095e-05
1.12472e-05
1.12153e-05
1.08694e-05
9.5497e-06
7.82217e-06
6.90431e-06
6.82302e-06
7.32809e-06
8.82818e-06
9.80727e-06
1.0224e-05
1.03029e-05
1.99999e-05
1.98814e-05
1.96365e-05
1.93446e-05
1.90918e-05
1.89045e-05
1.87475e-05
1.85676e-05
1.83853e-05
1.82637e-05
1.81784e-05
1.80467e-05
1.78481e-05
1.76455e-05
1.75112e-05
1.74539e-05
1.74218e-05
1.73619e-05
1.71895e-05
1.69414e-05
1.68058e-05
1.6768e-05
1.67614e-05
1.67476e-05
1.66885e-05
1.64304e-05
1.5949e-05
1.57042e-05
1.56262e-05
1.55621e-05
1.54723e-05
1.53922e-05
1.52891e-05
1.50226e-05
1.39358e-05
1.18699e-05
1.09985e-05
1.09442e-05
1.09945e-05
1.09489e-05
1.05187e-05
8.97411e-06
7.24208e-06
6.48015e-06
6.51002e-06
7.37245e-06
9.00876e-06
9.94607e-06
1.03307e-05
1.03962e-05
1.99999e-05
1.98861e-05
1.96515e-05
1.93649e-05
1.91175e-05
1.8931e-05
1.87669e-05
1.85802e-05
1.83925e-05
1.82677e-05
1.81852e-05
1.80559e-05
1.78518e-05
1.76382e-05
1.74938e-05
1.74321e-05
1.74007e-05
1.73441e-05
1.71811e-05
1.69311e-05
1.67953e-05
1.67597e-05
1.67547e-05
1.67424e-05
1.66807e-05
1.64003e-05
1.5906e-05
1.56661e-05
1.55792e-05
1.54854e-05
1.53684e-05
1.52802e-05
1.51736e-05
1.48749e-05
1.35842e-05
1.14079e-05
1.06429e-05
1.06401e-05
1.07141e-05
1.06547e-05
1.01423e-05
8.39855e-06
6.7118e-06
6.12389e-06
6.28711e-06
7.56095e-06
9.22157e-06
1.01075e-05
1.04554e-05
1.05068e-05
1.99999e-05
1.98908e-05
1.96667e-05
1.93853e-05
1.91427e-05
1.89589e-05
1.87894e-05
1.85943e-05
1.83993e-05
1.82706e-05
1.8191e-05
1.80643e-05
1.78544e-05
1.76284e-05
1.74727e-05
1.74058e-05
1.73747e-05
1.73209e-05
1.71669e-05
1.69155e-05
1.6779e-05
1.67446e-05
1.67409e-05
1.673e-05
1.6665e-05
1.63612e-05
1.58529e-05
1.56133e-05
1.55064e-05
1.53701e-05
1.52199e-05
1.51251e-05
1.50177e-05
1.46831e-05
1.31639e-05
1.09002e-05
1.0262e-05
1.03034e-05
1.04028e-05
1.03331e-05
9.74962e-06
7.84838e-06
6.25101e-06
5.83752e-06
6.17647e-06
7.85488e-06
9.46419e-06
1.02858e-05
1.05951e-05
1.06324e-05
1.99999e-05
1.98955e-05
1.96821e-05
1.94058e-05
1.9167e-05
1.89881e-05
1.88147e-05
1.8611e-05
1.8406e-05
1.82717e-05
1.81953e-05
1.80725e-05
1.78563e-05
1.76165e-05
1.74481e-05
1.73751e-05