/*--------------------------------*- C++ -*----------------------------------*\
  =========                 |
  \\      /  F ield         | OpenFOAM: The Open Source CFD Toolbox
   \\    /   O peration     | Website:  https://openfoam.org
    \\  /    A nd           | Version:  7
     \\/     M anipulation  |
\*---------------------------------------------------------------------------*/
FoamFile
{
    version     2.0;
    format      ascii;
    class       volScalarField;
    location    "0.01";
    object      nut;
}
// * * * * * * * * * * * * * * * * * * * * * * * * * * * * * * * * * * * * * //

dimensions      [0 2 -1 0 0 0 0];

internalField   nonuniform List<scalar> 
70000
(
0
0
0
0
0
0
0
0
0
0
0
0
0
0
0
0
0
0
3.33165e-16
2.32049e-14
3.28858e-14
3.00366e-14
1.97415e-14
8.40874e-15
0
0
0
0
0
0
0
0
0
0
0
0
0
0
0
0
0
0
0
0
0
0
0
1.16728e-13
0
0
0
0
0
0
0
0
0
0
0
0
0
0
0
0
0
0
0
6.9853e-14
1.30873e-13
1.65332e-13
1.6995e-13
1.49438e-13
1.16227e-13
8.37706e-14
5.93609e-14
4.35634e-14
3.30864e-14
2.47853e-14
1.68999e-14
8.81895e-15
1.37215e-15
0
0
0
0
0
0
0
0
0
0
0
0
0
0
0
0
3.13613e-13
0
4.59317e-12
0
0
0
0
0
0
0
0
0
0
0
0
0
0
0
0
3.97393e-14
1.88283e-13
2.96415e-13
3.56109e-13
3.64121e-13
3.30186e-13
2.75063e-13
2.20105e-13
1.77086e-13
1.47676e-13
1.27598e-13
1.12289e-13
9.86751e-14
8.5121e-14
7.22595e-14
5.9252e-14
4.99206e-14
3.85142e-14
3.64069e-14
2.1957e-14
2.90101e-14
0
2.02164e-14
0
3.14706e-15
0
0
0
0
0
0
7.32577e-13
0
9.266e-12
0
0
0
0
0
0
0
0
0
0
0
0
0
0
0
0
0
0
1.19769e-13
2.86675e-13
3.70466e-13
3.81516e-13
3.47183e-13
2.981e-13
2.54206e-13
2.22577e-13
2.01641e-13
1.8761e-13
1.76787e-13
1.65915e-13
1.54256e-13
1.39713e-13
1.27693e-13
1.11849e-13
1.10069e-13
9.38071e-14
1.12657e-13
8.25037e-14
1.29198e-13
5.8506e-14
1.39914e-13
1.8876e-14
1.10444e-13
2.10371e-14
0
2.55295e-13
0
1.50045e-12
0
9.23605e-12
0
0
0
0
0
0
0
0
0
0
0
0
0
0
0
0
0
0
0
0
2.07914e-14
1.54912e-13
2.06506e-13
2.1288e-13
2.02952e-13
1.92176e-13
1.85919e-13
1.85371e-13
1.89392e-13
1.94226e-13
1.96783e-13
1.91314e-13
1.82886e-13
1.63348e-13
1.59054e-13
1.36376e-13
1.65674e-13
1.36523e-13
2.19142e-13
1.48759e-13
2.87695e-13
1.58696e-13
2.94539e-13
2.50716e-13
6.10339e-14
7.52379e-13
0
2.78805e-12
0
8.79944e-12
9.45975e-10
0
0
0
0
0
0
0
0
0
0
0
0
0
0
0
0
0
0
0
0
0
0
0
0
0
2.56867e-14
5.22109e-14
8.19583e-14
1.15463e-13
1.49254e-13
1.71794e-13
1.83819e-13
1.69594e-13
1.63004e-13
1.24534e-13
1.52173e-13
1.10632e-13
2.25107e-13
1.58888e-13
3.64691e-13
2.65219e-13
4.28719e-13
5.5376e-13
8.91527e-14
1.53023e-12
0
4.63505e-12
0
8.87427e-12
1.3204e-08
0
0
0
0
0
0
0
0
0
0
0
0
0
0
0
0
0
0
0
0
0
0
0
0
0
0
0
0
0
0
2.82283e-14
8.88152e-14
1.05645e-13
1.13535e-13
5.94492e-14
7.2272e-14
0
1.15012e-13
3.76539e-14
2.95044e-13
2.62006e-13
4.13212e-13
8.62211e-13
0
2.52829e-12
0
6.77059e-12
0
8.32511e-12
1.20982e-08
0
0
0
0
0
0
0
0
0
0
0
0
0
0
0
0
0
0
0
0
0
0
0
0
0
0
0
0
0
0
0
0
0
0
0
0
0
0
0
5.93557e-14
1.10149e-13
1.88621e-13
1.10519e-12
0
3.6358e-12
0
8.85031e-12
0
7.63543e-12
1.10787e-08
0
0
0
0
0
0
0
0
0
0
0
0
0
0
0
0
0
0
0
0
0
0
0
0
0
0
0
0
0
0
0
0
0
0
0
0
0
0
0
0
0
0
1.28668e-12
0
4.83319e-12
0
1.09719e-11
0
7.16306e-12
1.02308e-08
0
0
0
0
0
0
0
0
0
0
0
0
0
0
0
0
0
0
0
0
0
0
0
0
0
0
0
0
0
0
0
0
0
0
0
0
0
0
0
0
0
0
1.55642e-12
0
6.30681e-12
0
1.35432e-11
0
7.67868e-12
9.5215e-09
0
0
0
0
0
0
0
0
0
0
0
0
0
0
0
0
0
0
0
0
0
0
0
0
0
0
0
0
0
0
0
0
0
0
0
0
0
0
0
0
0
0
2.28314e-12
0
8.64245e-12
0
1.76092e-11
4.65582e-13
1.07677e-11
8.88001e-09
0
0
0
0
0
0
0
0
0
0
0
0
0
0
0
0
0
0
0
0
0
0
0
0
0
0
0
0
0
0
0
0
0
0
0
0
0
0
0
0
4.22175e-13
0
4.20335e-12
2.20717e-13
1.32766e-11
1.51232e-12
2.58937e-11
1.42243e-11
1.98829e-11
8.24029e-09
0
0
0
0
0
0
0
0
0
0
0
0
0
0
0
0
0
0
0
0
0
0
0
0
0
0
0
0
0
0
0
0
0
0
0
0
0
0
1.27435e-13
5.12252e-13
2.3612e-12
2.19022e-12
9.05006e-12
6.05891e-12
2.3931e-11
1.49219e-11
4.50514e-11
4.19722e-11
4.23023e-11
7.58246e-09
0
0
0
0
0
0
0
0
0
0
0
0
3.48788e-11
2.95716e-11
0
0
0
0
0
0
0
0
0
0
0
0
0
0
0
0
0
0
0
0
0
0
0
5.65974e-13
1.83252e-12
3.25338e-12
7.54746e-12
9.73496e-12
2.21721e-11
2.38142e-11
5.19495e-11
5.17823e-11
9.49316e-11
1.04823e-10
9.66793e-11
6.91272e-09
0
0
0
0
0
0
0
0
0
0
0
0
0
0
8.82184e-11
2.26515e-10
3.25565e-10
3.06328e-10
1.94223e-10
9.90167e-11
4.9898e-11
2.77555e-11
1.707e-11
1.07143e-11
6.09697e-12
2.78257e-12
9.65372e-13
5.49501e-13
1.03758e-12
1.94514e-12
2.75087e-12
3.12695e-12
2.72384e-12
2.06419e-12
1.46944e-12
1.89734e-12
2.93315e-12
4.96398e-12
8.66338e-12
1.3858e-11
2.59464e-11
3.80464e-11
6.86701e-11
8.91821e-11
1.47171e-10
1.71481e-10
2.44588e-10
2.77663e-10
2.44692e-10
6.24218e-09
0
0
0
0
0
0
0
0
0
0
0
0
0
0
0
4.96724e-11
1.61286e-10
2.7475e-10
3.70135e-10
4.32776e-10
4.6674e-10
4.90535e-10
5.18164e-10
5.36879e-10
5.11099e-10
4.26016e-10
3.15334e-10
2.23918e-10
1.69356e-10
1.4591e-10
1.3974e-10
1.3756e-10
1.29402e-10
1.12704e-10
9.08576e-11
7.17509e-11
5.99077e-11
5.80797e-11
7.03377e-11
9.74204e-11
1.52904e-10
2.25957e-10
3.47415e-10
4.61419e-10
6.2647e-10
7.12701e-10
8.28234e-10
8.51617e-10
6.91469e-10
5.57945e-09
0
0
0
7.11479e-11
0
0
0
0
0
0
0
0
0
0
0
0
8.15636e-11
1.64105e-10
2.22993e-10
2.50219e-10
2.53477e-10
2.50995e-10
2.59978e-10
2.88411e-10
3.29048e-10
3.61234e-10
3.67266e-10
3.50699e-10
3.34301e-10
3.44811e-10
4.03423e-10
5.22033e-10
6.83275e-10
8.29481e-10
8.90059e-10
8.37127e-10
7.14029e-10
5.93604e-10
5.55496e-10
6.47691e-10
1.00606e-09
1.65022e-09
2.53846e-09
3.20972e-09
3.63723e-09
3.55093e-09
3.27309e-09
2.81834e-09
2.03858e-09
4.93083e-09
0
0
0
1.53553e-10
0
0
0
0
0
0
0
0
0
0
0
0
5.06758e-11
1.23128e-10
1.73213e-10
1.94371e-10
1.92674e-10
1.82888e-10
1.79562e-10
1.90342e-10
2.11156e-10
2.26727e-10
2.22017e-10
1.96094e-10
1.60496e-10
1.29951e-10
1.20701e-10
1.54133e-10
2.36683e-10
3.38138e-10
3.98074e-10
3.65506e-10
2.40132e-10
3.39099e-11
0
0
0
0
0
1.26503e-10
3.01661e-09
5.67609e-09
6.69845e-09
6.18695e-09
4.46038e-09
4.30188e-09
0
0
0
2.07744e-10
0
0
0
0
0
0
0
0
0
0
0
0
4.1506e-11
1.10844e-10
1.5751e-10
1.75708e-10
1.70756e-10
1.56365e-10
1.47214e-10
1.52199e-10
1.68616e-10
1.82071e-10
1.7717e-10
1.50399e-10
1.09359e-10
6.63993e-11
3.88188e-11
5.12126e-11
1.14595e-10
2.03809e-10
2.62577e-10
2.34992e-10
1.0971e-10
0
0
0
0
0
0
0
0
0
2.68217e-09
5.43293e-09
5.40997e-09
3.69776e-09
0
0
0
2.18719e-10
0
0
0
0
0
0
0
0
0
0
0
0
4.2102e-11
1.12602e-10
1.59739e-10
1.77748e-10
1.71035e-10
1.52898e-10
1.39215e-10
1.40643e-10
1.55114e-10
1.67726e-10
1.62034e-10
1.32534e-10
8.45231e-11
3.03012e-11
0
0
5.40785e-11
1.43827e-10
2.07441e-10
1.84735e-10
5.73672e-11
0
0
0
0
0
0
0
0
0
0
9.88516e-10
3.90726e-09
3.12278e-09
0
0
0
1.6923e-10
0
0
0
0
0
0
0
0
0
0
0
0
4.68584e-11
1.20818e-10
1.70724e-10
1.90446e-10
1.83228e-10
1.62142e-10
1.44857e-10
1.44187e-10
1.58364e-10
1.71171e-10
1.64535e-10
1.30919e-10
7.38729e-11
7.06313e-12
0
0
2.06421e-11
1.17455e-10
1.8821e-10
1.67745e-10
3.07777e-11
0
0
0
0
0
0
0
0
0
0
0
1.87138e-09
2.57992e-09
0
0
0
4.0355e-11
0
0
0
0
0
0
0
0
0
0
0
0
5.34781e-11
1.3217e-10
1.86156e-10
2.08746e-10
2.01841e-10
1.78362e-10
1.58134e-10
1.56348e-10
1.71281e-10
1.84927e-10
1.77226e-10
1.38344e-10
7.02211e-11
0
0
0
9.36049e-13
1.09317e-10
1.8872e-10
1.68238e-10
1.42696e-11
0
0
0
0
0
0
0
0
0
0
0
4.42538e-10
2.0705e-09
0
0
0
0
0
0
0
0
0
0
0
0
0
0
0
0
6.11897e-11
1.4552e-10
2.04477e-10
2.30665e-10
2.2451e-10
1.98898e-10
1.76137e-10
1.73904e-10
1.90239e-10
2.05009e-10
1.95935e-10
1.50574e-10
6.92555e-11
0
0
0
0
1.11498e-10
2.00039e-10
1.7715e-10
0
0
0
0
0
0
0
0
0
0
0
0
0
1.59414e-09
0
0
0
0
0
0
0
0
0
0
0
0
0
0
0
0
6.97931e-11
1.60588e-10
2.25291e-10
2.5564e-10
2.50479e-10
2.22828e-10
1.97816e-10
1.95646e-10
2.13785e-10
2.29698e-10
2.18682e-10
1.65326e-10
6.84374e-11
0
0
0
0
1.20072e-10
2.1733e-10
1.8913e-10
0
0
0
0
0
0
0
0
0
0
0
0
0
1.14883e-09
0
0
0
0
0
0
0
0
0
0
0
0
0
0
0
0
7.92593e-11
1.77386e-10
2.48635e-10
2.8369e-10
2.79705e-10
2.50065e-10
2.23073e-10
2.21417e-10
2.41611e-10
2.58464e-10
2.44643e-10
1.81387e-10
6.62236e-11
0
0
0
0
1.33329e-10
2.38089e-10
2.00869e-10
0
0
0
0
0
0
0
0
0
0
0
0
0
7.31368e-10
0
0
0
0
0
0
0
0
0
0
0
0
0
0
0
0
8.95867e-11
1.95987e-10
2.7466e-10
3.15005e-10
3.12393e-10
2.80869e-10
2.52252e-10
2.51576e-10
2.73972e-10
2.91367e-10
2.73557e-10
1.98046e-10
6.15592e-11
0
0
0
0
1.50762e-10
2.61083e-10
2.10088e-10
0
0
0
0
0
0
0
0
0
0
0
0
0
3.37946e-10
0
0
0
0
0
0
0
0
0
0
0
0
0
0
0
0
1.00762e-10
2.16456e-10
3.03521e-10
3.4981e-10
3.48809e-10
3.15599e-10
2.85871e-10
2.86714e-10
3.1137e-10
3.28693e-10
3.05344e-10
2.14728e-10
5.3547e-11
0
0
0
0
1.72481e-10
2.85661e-10
2.14833e-10
0
0
0
0
0
0
0
0
0
0
0
0
0
0
0
0
0
0
0
0
0
0
0
0
0
0
0
0
0
0
1.12745e-10
2.38841e-10
3.3533e-10
3.88275e-10
3.89233e-10
3.54684e-10
3.24496e-10
3.27516e-10
3.54404e-10
3.70789e-10
3.39918e-10
2.30798e-10
4.12733e-11
0
0
0
0
1.98874e-10
3.11327e-10
2.13026e-10
0
0
0
0
0
0
0
0
0
0
0
0
0
0
0
0
0
0
0
0
0
0
0
0
0
0
0
0
0
0
1.25462e-10
2.63145e-10
3.70159e-10
4.30516e-10
4.33879e-10
3.98575e-10
3.68812e-10
3.74657e-10
4.03696e-10
4.17971e-10
3.77082e-10
2.45455e-10
2.37286e-11
0
0
0
0
2.30441e-10
3.37517e-10
2.0217e-10
0
0
0
0
0
0
0
0
0
0
0
0
0
0
0
0
0
0
0
0
0
0
0
0
0
0
0
0
0
0
1.38793e-10
2.89318e-10
4.08008e-10
4.76576e-10
4.82909e-10
4.47689e-10
4.19505e-10
4.28896e-10
4.59826e-10
4.70478e-10
4.16467e-10
2.57673e-10
0
0
0
0
2.0659e-11
2.67696e-10
3.63499e-10
1.79126e-10
0
0
0
0
0
0
0
0
0
0
0
0
0
0
0
0
0
0
0
0
0
0
0
0
0
0
0
0
0
0
1.52569e-10
3.17238e-10
4.48789e-10
5.26401e-10
5.36411e-10
5.02412e-10
4.77251e-10
4.90985e-10
5.23342e-10
5.28425e-10
4.57475e-10
2.66155e-10
0
0
0
0
5.17206e-11
3.11121e-10
3.88294e-10
1.40004e-10
0
0
0
0
0
0
0
0
0
0
0
0
0
0
2.0914e-10
0
0
0
0
0
0
0
0
0
0
0
0
0
0
0
1.66563e-10
3.46702e-10
4.92302e-10
5.79818e-10
5.94383e-10
5.63088e-10
5.42708e-10
5.61637e-10
5.94718e-10
5.9176e-10
4.99228e-10
2.69288e-10
0
0
0
0
9.39599e-11
3.61104e-10
4.10627e-10
8.00741e-11
0
0
0
0
0
0
0
0
0
0
1.38313e-09
0
0
0
1.30991e-09
0
0
0
0
0
0
0
0
0
0
0
0
0
0
0
1.80486e-10
3.77415e-10
5.38218e-10
6.36513e-10
6.56709e-10
6.29997e-10
6.1649e-10
6.41497e-10
6.74308e-10
6.60212e-10
5.40513e-10
2.65111e-10
0
0
0
0
1.49267e-10
4.17905e-10
4.28884e-10
0
0
0
0
0
0
0
0
0
0
2.68629e-10
1.05985e-09
0
0
0
2.28956e-09
0
0
0
0
0
0
0
0
0
0
0
0
0
0
0
1.9397e-10
4.08982e-10
5.86073e-10
6.96021e-10
7.23147e-10
7.03328e-10
6.99124e-10
7.31097e-10
7.62299e-10
7.33249e-10
5.79732e-10
2.51282e-10
0
0
0
0
2.19525e-10
4.81571e-10
4.41115e-10
0
0
0
0
0
0
0
0
0
0
6.02424e-09
0
0
0
0
3.14631e-09
0
0
0
0
0
0
0
0
0
0
0
0
0
0
0
2.06585e-10
4.40914e-10
6.35266e-10
7.57712e-10
7.93299e-10
7.83143e-10
7.91013e-10
8.3081e-10
8.58672e-10
8.10037e-10
6.14861e-10
2.25048e-10
0
0
0
0
3.06474e-10
5.51874e-10
4.45054e-10
0
0
0
0
0
0
0
0
0
0
5.41941e-09
0
0
0
0
3.88143e-09
0
0
0
0
0
0
0
0
0
0
0
0
0
0
0
2.17822e-10
4.72628e-10
6.85049e-10
8.20794e-10
8.66644e-10
8.69403e-10
8.92431e-10
9.40844e-10
9.63193e-10
8.89418e-10
6.43429e-10
1.83234e-10
0
0
0
0
4.11522e-10
6.28214e-10
4.38143e-10
0
0
0
0
0
0
0
0
0
9.26384e-09
2.77779e-09
0
0
0
0
4.49941e-09
0
0
0
0
0
0
0
0
0
0
0
0
0
0
0
2.27114e-10
5.03464e-10
7.34582e-10
8.84343e-10
9.42494e-10
9.6189e-10
1.00343e-09
1.06115e-09
1.07535e-09
9.69874e-10
6.62477e-10
1.22234e-10
0
0
0
3.40139e-11
5.35527e-10
7.09518e-10
4.17667e-10
0
0
0
0
0
0
0
0
0
9.86743e-09
0
0
0
0
0
5.0071e-09
0
0
0
0
0
0
0
0
0
0
0
0
0
0
0
2.33802e-10
5.32694e-10
7.82907e-10
9.47292e-10
1.02003e-09
1.06024e-09
1.12388e-09
1.19144e-09
1.19435e-09
1.04954e-09
6.68572e-10
3.79992e-11
0
0
0
1.65903e-10
6.78465e-10
7.94071e-10
3.80911e-10
0
0
0
0
0
0
0
0
2.15418e-09
7.20346e-09
0
0
0
0
0
5.41201e-09
0
0
0
0
0
0
0
0
0
0
0
0
0
0
0
2.37134e-10
5.59477e-10
8.28972e-10
1.00847e-09
1.09832e-09
1.16395e-09
1.2534e-09
1.33114e-09
1.31911e-09
1.12618e-09
6.57776e-10
0
0
0
0
3.29813e-10
8.39088e-10
8.79377e-10
3.25361e-10
0
0
0
0
0
0
0
0
9.44139e-09
3.79976e-09
0
0
0
0
0
5.7222e-09
0
0
0
0
0
0
0
0
0
0
0
0
0
0
0
2.36318e-10
5.82929e-10
8.71654e-10
1.06662e-09
1.17634e-09
1.27234e-09
1.3914e-09
1.47943e-09
1.44829e-09
1.19723e-09
6.25648e-10
0
0
0
0
5.26571e-10
1.01448e-09
9.62045e-10
2.49092e-10
0
0
0
0
0
0
0
0
1.00929e-08
4.24012e-10
0
0
0
0
0
5.94692e-09
0
0
0
0
0
0
0
0
0
0
0
0
0
0
0
2.30532e-10
6.02108e-10
9.09797e-10
1.12046e-09
1.25299e-09
1.38463e-09
1.53704e-09
1.63517e-09
1.58024e-09
1.25979e-09
5.67239e-10
0
0
0
0
7.55052e-10
1.19959e-09
1.03755e-09
1.5137e-10
0
0
0
0
0
0
0
0
8.13139e-09
0
0
0
0
0
0
6.09654e-09
0
0
0
0
0
0
0
0
0
0
0
0
0
0
0
2.18955e-10
6.16014e-10
9.42217e-10
1.16865e-09
1.32714e-09
1.49987e-09
1.68923e-09
1.79697e-09
1.71308e-09
1.31068e-09
4.77074e-10
0
0
0
0
1.01149e-09
1.3868e-09
1.10007e-09
3.33267e-11
0
0
0
0
0
0
0
5.52866e-09
5.25103e-09
0
0
0
0
0
0
6.18142e-09
0
0
0
0
0
0
0
0
0
0
0
0
0
0
0
2.00801e-10
6.23614e-10
9.67706e-10
1.20989e-09
1.39761e-09
1.61703e-09
1.84663e-09
1.96313e-09
1.84469e-09
1.34641e-09
3.49145e-10
0
0
0
1.95429e-10
1.28875e-09
1.56554e-09
1.14251e-09
0
0
0
0
0
0
0
0
8.84518e-09
2.15409e-09
0
0
0
0
0
0
6.21114e-09
0
0
0
0
0
0
0
0
0
0
0
0
0
0
0
1.75364e-10
6.23866e-10
9.85052e-10
1.24286e-09
1.46324e-09
1.73493e-09
2.00766e-09
2.13172e-09
1.97273e-09
1.36326e-09
1.76882e-10
0
0
0
4.42087e-10
1.57567e-09
1.72221e-09
1.15654e-09
0
0
0
0
0
0
0
0
9.37734e-09
0
0
0
0
0
0
0
6.19404e-09
0
0
0
0
0
0
0
0
0
0
0
0
0
0
0
1.42078e-10
6.15753e-10
9.9306e-10
1.26631e-09
1.5229e-09
1.85232e-09
2.17048e-09
2.30053e-09
2.09473e-09
1.35727e-09
0
0
0
0
7.19166e-10
1.8567e-09
1.84043e-09
1.13303e-09
0
0
0
0
0
0
0
0
8.29395e-09
0
0
0
0
0
0
0
6.13717e-09
0
0
0
0
0
0
0
0
0
0
0
0
0
0
0
1.00559e-10
5.98336e-10
9.90575e-10
1.27901e-09
1.57547e-09
1.96787e-09
2.33304e-09
2.46713e-09
2.2081e-09
1.32427e-09
0
0
0
0
1.01702e-09
2.11173e-09
1.90202e-09
1.06307e-09
0
0
0
0
0
0
0
4.81632e-09
6.293e-09
0
0
0
0
0
0
0
6.04645e-09
0
0
0
0
0
0
0
0
0
0
0
0
0
0
0
5.06319e-11
5.70796e-10
9.76506e-10
1.27982e-09
1.61992e-09
2.08013e-09
2.49306e-09
2.62885e-09
2.31017e-09
1.25988e-09
0
0
0
0
1.32138e-09
2.31716e-09
1.88892e-09
9.39454e-10
0
0
0
0
0
0
0
8.32513e-09
3.8097e-09
0
0
0
0
0
0
0
5.9267e-09
0
0
0
0
0
0
0
0
0
0
0
0
0
0
0
0
5.32479e-10
9.49836e-10
1.26764e-09
1.65522e-09
2.18763e-09
2.64804e-09
2.78286e-09
2.39817e-09
1.15947e-09
0
0
0
0
1.61316e-09
2.44783e-09
1.78616e-09
7.58776e-10
0
0
0
0
0
0
0
1.04751e-08
1.15102e-09
0
0
0
0
0
0
0
5.78191e-09
1.25161e-10
0
0
0
0
0
0
0
0
0
0
0
0
0
0
0
4.8295e-10
9.09699e-10
1.24148e-09
1.68044e-09
2.28877e-09
2.79522e-09
2.9261e-09
2.46927e-09
1.01822e-09
0
0
0
0
1.86895e-09
2.48036e-09
1.5855e-09
5.23157e-10
0
0
0
0
0
0
3.35783e-10
1.14962e-08
0
0
0
0
0
0
0
0
5.61558e-09
8.66062e-10
0
0
0
0
0
0
0
0
0
0
0
0
0
0
0
4.22031e-10
8.55404e-10
1.20045e-09
1.69472e-09
2.38193e-09
2.93173e-09
3.05536e-09
2.52058e-09
8.31091e-10
0
0
0
0
2.06261e-09
2.39788e-09
1.28916e-09
2.42767e-10
0
0
0
0
0
0
3.97212e-09
1.15109e-08
0
0
0
0
0
0
0
0
5.43108e-09
1.52366e-09
0
0
0
0
0
0
0
0
0
0
0
0
0
0
0
3.49834e-10
7.86482e-10
1.14378e-09
1.69721e-09
2.46537e-09
3.05452e-09
3.16743e-09
2.5493e-09
5.92958e-10
0
0
0
0
2.16793e-09
2.19439e-09
9.11617e-10
0
2.77725e-10
0
0
0
0
0
7.12071e-09
1.05853e-08
0
0
0
0
0
0
0
0
5.23136e-09
2.09916e-09
0
0
0
0
0
0
0
0
0
0
0
0
0
0
0
2.66838e-10
7.02827e-10
1.07089e-09
1.68718e-09
2.53722e-09
3.16028e-09
3.25889e-09
2.55267e-09
2.98568e-10
0
0
0
0
2.16292e-09
1.87819e-09
4.79194e-10
0
9.50015e-10
6.77169e-09
0
0
0
0
9.94257e-09
8.81727e-09
0
0
0
0
0
0
0
0
5.01893e-09
2.59398e-09
0
0
0
0
0
0
0
0
0
0
0
0
0
0
0
1.73812e-10
6.04693e-10
9.81499e-10
1.66407e-09
2.59568e-09
3.24574e-09
3.32635e-09
2.52801e-09
0
0
0
0
0
2.03529e-09
1.47299e-09
2.69654e-11
0
1.83713e-09
2.01256e-08
0
0
0
1.45339e-09
1.2558e-08
6.43723e-09
0
0
0
0
0
0
0
0
4.79617e-09
3.01013e-09
0
0
0
0
0
0
0
0
0
0
0
0
0
0
0
7.17782e-11
4.92701e-10
8.75576e-10
1.62739e-09
2.63885e-09
3.30765e-09
3.36667e-09
2.47287e-09
0
0
0
0
0
1.78836e-09
1.01551e-09
0
0
2.91762e-09
3.42844e-08
6.68504e-09
0
0
3.27471e-09
1.5017e-08
3.87244e-09
0
0
0
0
0
0
0
0
4.5655e-09
3.35037e-09
0
0
0
0
0
0
0
0
0
0
0
0
0
0
0
0
3.67882e-10
7.53424e-10
1.57685e-09
2.6648e-09
3.34276e-09
3.37677e-09
2.38495e-09
0
0
0
0
0
1.44287e-09
5.48632e-10
0
0
4.14539e-09
4.26742e-08
8.97747e-09
7.09002e-10
6.35858e-10
4.76541e-09
1.72635e-08
1.58282e-09
0
0
0
0
0
0
0
0
4.3293e-09
3.61796e-09
0
0
0
0
0
0
0
0
0
0
0
0
0
0
0
0
2.31792e-10
6.15708e-10
1.5123e-09
2.67151e-09
3.34794e-09
3.354e-09
2.26258e-09
0
0
0
0
0
1.0318e-09
1.12129e-10
0
0
5.46009e-09
4.3521e-08
9.36433e-09
1.85357e-09
1.61859e-09
6.00243e-09
1.9042e-08
0
0
0
0
0
0
0
0
0
4.08983e-09
3.81648e-09
3.17017e-10
0
0
0
0
0
0
0
0
0
0
0
0
0
0
0
8.65985e-11
4.63585e-10
1.43384e-09
2.65703e-09
3.32031e-09
3.2959e-09
2.10392e-09
0
0
0
0
0
5.98599e-10
0
0
0
6.79532e-09
4.00362e-08
8.99488e-09
2.47641e-09
2.27141e-09
7.04196e-09
1.99103e-08
0
0
0
0
0
0
0
0
0
3.84917e-09
3.95e-09
1.08441e-09
0
0
0
0
2.15311e-10
0
0
0
0
0
0
0
0
0
0
0
2.98539e-10
1.3417e-09
2.61962e-09
3.25769e-09
3.20075e-09
1.90766e-09
0
0
0
0
0
1.85749e-10
0
0
0
8.09614e-09
3.5306e-08
8.33169e-09
2.76449e-09
2.66992e-09
7.91258e-09
1.93524e-08
0
0
0
0
0
0
0
0
0
3.60923e-09
4.02315e-09
1.74547e-09
0
0
0
5.07224e-10
1.41602e-09
8.43765e-10
0
0
0
0
0
0
0
0
0
0
1.22574e-10
1.23622e-09
2.55767e-09
3.15868e-09
3.06808e-09
1.67402e-09
0
0
0
0
0
0
0
0
0
9.3242e-09
3.07381e-08
7.5636e-09
2.8304e-09
2.86448e-09
8.60765e-09
1.71553e-08
0
0
0
0
0
0
0
0
0
3.37174e-09
4.04081e-09
2.29804e-09
5.21008e-10
0
4.47782e-10
1.83887e-09
2.77817e-09
2.17822e-09
4.33164e-10
0
0
0
0
0
0
0
0
0
0
1.1184e-09
2.46996e-09
3.02278e-09
2.8984e-09
1.40419e-09
0
0
0
0
0
0
0
0
0
1.04571e-08
2.67143e-08
6.76456e-09
2.74083e-09
2.88696e-09
9.09185e-09
1.37631e-08
0
0
0
0
0
0
0
0
0
3.13824e-09
4.00825e-09
2.74169e-09
1.44076e-09
1.05756e-09
1.80101e-09
3.26687e-09
4.29051e-09
3.68879e-09
1.77946e-09
2.92913e-10
1.86146e-10
5.5493e-10
1.1038e-10
0
0
0
0
0
0
9.89224e-10
2.35587e-09
2.8511e-09
2.69416e-09
1.10113e-09
0
0
0
0
0
0
0
0
0
1.14856e-08
2.32221e-08
5.96279e-09
2.53554e-09
2.749e-09
9.27588e-09
1.00547e-08
0
0
0
0
0
0
0
0
0
2.91011e-09
3.93111e-09
3.07834e-09
2.22881e-09
2.18281e-09
3.12902e-09
4.75177e-09
5.92995e-09
5.37393e-09
3.31689e-09
1.64013e-09
1.4428e-09
1.68244e-09
8.76952e-10
0
0
0
0
0
0
8.49701e-10
2.21488e-09
2.6456e-09
2.45878e-09
7.68798e-10
0
0
0
0
0
0
0
0
0
1.24005e-08
2.01463e-08
5.17028e-09
2.24611e-09
2.46287e-09
9.01771e-09
6.74497e-09
0
0
0
0
0
0
0
0
0
2.68862e-09
3.81535e-09
3.31232e-09
2.87604e-09
3.18012e-09
4.38613e-09
6.24337e-09
7.6592e-09
7.21999e-09
5.0528e-09
3.20546e-09
2.95053e-09
3.07562e-09
1.84513e-09
0
0
0
0
0
0
7.01626e-10
2.04788e-09
2.41013e-09
2.19718e-09
4.12233e-10
0
0
0
0
0
0
0
0
2.14037e-10
1.31814e-08
1.73609e-08
4.38934e-09
1.89252e-09
2.04434e-09
8.16119e-09
4.08254e-09
0
0
0
0
0
0
0
0
0
2.47484e-09
3.66717e-09
3.4501e-09
3.37745e-09
4.02364e-09
5.52521e-09
7.68215e-09
9.42438e-09
9.19705e-09
6.98478e-09
5.00542e-09
4.74308e-09
4.78329e-09
3.05693e-09
3.65441e-10
0
0
0
0
0
5.47113e-10
1.8568e-09
2.15015e-09
1.91589e-09
3.75398e-11
0
0
0
0
0
0
0
0
4.58999e-10
1.37975e-08
1.47677e-08
3.62327e-09
1.49101e-09
1.51029e-09
6.55866e-09
2.05634e-09
0
0
0
0
0
0
0
0
0
2.26974e-09
3.49282e-09
3.50013e-09
3.7326e-09
4.69246e-09
6.49999e-09
9.00108e-09
1.11538e-08
1.12546e-08
9.09564e-09
7.04898e-09
6.85365e-09
6.86176e-09
4.56397e-09
1.04593e-09
0
0
0
0
0
3.88364e-10
1.6447e-09
1.87272e-09
1.62309e-09
0
0
0
0
0
0
0
0
0
6.75325e-10
1.42016e-08
1.23127e-08
2.883e-09
1.06399e-09
8.864e-10
4.15136e-09
5.46576e-10
0
0
0
0
0
0
0
0
0
2.07413e-09
3.29848e-09
3.47262e-09
3.94613e-09
5.17278e-09
7.26899e-09
1.01293e-08
1.27583e-08
1.33164e-08
1.13466e-08
9.33179e-09
9.31011e-09
9.37325e-09
6.42845e-09
1.90559e-09
0
0
0
0
0
2.28069e-10
1.41615e-09
1.58576e-09
1.32666e-09
0
0
0
0
0
0
0
0
0
8.52046e-10
1.43295e-08
9.98246e-09
2.1805e-09
6.33711e-10
2.1289e-10
1.07593e-09
0
0
0
0
0
0
0
0
0
0
1.88868e-09
3.0901e-09
3.37902e-09
4.02764e-09
5.45973e-09
7.80027e-09
1.09989e-08
1.41364e-08
1.52775e-08
1.3668e-08
1.18264e-08
1.21272e-08
1.23828e-08
8.72536e-09
2.98295e-09
0
0
0
0
0
6.97806e-11
1.17787e-09
1.29896e-09
1.03547e-09
0
0
0
0
0
0
0
0
0
9.8154e-10
1.41039e-08
7.80034e-09
1.53085e-09
2.22079e-10
0
0
0
0
0
0
0
0
0
0
0
0
1.71389e-09
2.87323e-09
3.23155e-09
3.99132e-09
5.55832e-09
8.07532e-09
1.15533e-08
1.5184e-08
1.70064e-08
1.59505e-08
1.44675e-08
1.52889e-08
1.59452e-08
1.15446e-08
4.3266e-09
0
0
0
0
0
0
9.36407e-10
1.02094e-09
7.57157e-10
0
0
0
0
0
0
0
0
0
1.05642e-09
1.34335e-08
5.81082e-09
9.51907e-10
0
0
0
0
0
0
0
0
0
0
0
0
0
1.55015e-09
2.65297e-09
3.04261e-09
3.85503e-09
5.48349e-09
8.09228e-09
1.17558e-08
1.58078e-08
1.83553e-08
1.80418e-08
1.71366e-08
1.87226e-08
2.00768e-08
1.49842e-08
5.99784e-09
2.2905e-10
0
0
3.77367e-10
0
0
6.99059e-10
7.59504e-10
4.97493e-10
0
0
0
0
0
0
0
0
0
1.07212e-09
1.22416e-08
4.06557e-09
4.58556e-10
0
0
0
0
0
0
0
0
0
0
0
0
0
1.39766e-09
2.43383e-09
2.82429e-09
3.63887e-09
5.25865e-09
7.86719e-09
1.15971e-08
1.59427e-08
1.91789e-08
1.9751e-08
1.96476e-08
2.22629e-08
2.47058e-08
1.91293e-08
8.0704e-09
8.24936e-10
0
4.24765e-10
1.36094e-09
0
0
4.74576e-10
5.22145e-10
2.60959e-10
0
0
0
0
0
0
0
0
0
1.02216e-09
1.04854e-08
2.59894e-09
5.64158e-11
0
0
0
0
0
0
0
0
0
0
0
3.6047e-11
0
1.25646e-09
2.2197e-09
2.58792e-09
3.36385e-09
4.91325e-09
7.43228e-09
1.10994e-08
1.55692e-08
1.93645e-08
2.0869e-08
2.17424e-08
2.56134e-08
2.95888e-08
2.40054e-08
1.06298e-08
1.57296e-09
0
1.28449e-09
2.9699e-09
0
0
2.68291e-10
3.12638e-10
4.90175e-11
0
0
0
0
0
0
0
0
0
9.02723e-10
8.201e-09
1.42422e-09
0
0
0
0
0
0
0
0
0
0
0
0
1.25533e-10
0
1.12646e-09
2.01375e-09
2.34362e-09
3.05048e-09
4.48008e-09
6.83214e-09
1.03142e-08
1.47211e-08
1.88642e-08
2.12118e-08
2.31149e-08
2.83269e-08
3.4203e-08
2.94741e-08
1.37664e-08
2.50483e-09
0
2.55916e-09
5.68139e-09
3.68463e-10
0
8.47663e-11
1.32435e-10
0
0
0
0
0
0
0
0
0
0
7.09518e-10
5.52603e-09
5.28995e-10
0
0
0
0
0
0
0
0
0
0
0
0
1.70775e-10
0
1.00741e-09
1.81849e-09
2.09996e-09
2.71752e-09
3.99231e-09
6.11851e-09
9.31474e-09
1.34831e-08
1.77161e-08
2.06771e-08
2.34799e-08
2.98615e-08
3.7694e-08
3.50469e-08
1.75439e-08
3.65955e-09
3.5012e-10
4.46616e-09
1.05405e-08
1.82564e-09
0
0
0
0
0
0
0
0
0
0
0
0
0
4.34425e-10
2.69038e-09
0
0
0
0
0
0
0
0
0
0
4.96017e-13
8.28168e-12
3.87332e-11
1.77221e-10
0
8.98966e-10
1.63573e-09
1.86387e-09
2.38108e-09
3.48069e-09
5.34407e-09
8.18523e-09
1.19758e-08
1.60432e-08
1.92902e-08
2.26745e-08
2.97522e-08
3.90482e-08
3.96897e-08
2.19185e-08
5.07575e-09
1.09493e-09
7.37783e-09
2.01085e-08
4.81641e-09
0
0
0
0
0
0
0
0
0
0
0
0
0
7.21885e-11
0
0
0
0
0
0
0
0
0
0
0
2.14671e-11
3.24893e-11
5.67946e-11
1.51016e-10
0
8.00645e-10
1.46662e-09
1.64059e-09
2.05425e-09
2.97161e-09
4.55668e-09
7.00792e-09
1.03328e-08
1.40281e-08
1.72148e-08
2.07492e-08
2.7851e-08
3.75901e-08
4.19145e-08
2.65658e-08
6.78184e-09
2.0717e-09
1.19321e-08
4.09162e-08
1.1874e-08
0
0
0
0
0
0
0
0
0
0
0
0
0
0
0
0
0
0
0
0
0
0
0
0
0
2.10069e-11
3.26228e-11
4.79696e-11
9.88426e-11
0
7.11902e-10
1.31177e-09
1.43377e-09
1.74681e-09
2.48587e-09
3.79578e-09
5.85377e-09
8.67822e-09
1.18711e-08
1.47119e-08
1.79796e-08
2.44675e-08
3.35127e-08
4.05359e-08
3.06419e-08
8.77506e-09
3.34228e-09
1.91068e-08
8.1009e-08
2.90123e-08
0
0
0
0
0
0
0
0
0
0
0
0
0
0
0
0
0
0
0
0
0
0
0
0
0
4.26266e-12
1.42e-11
1.84312e-11
2.77282e-11
0
6.32116e-10
1.1713e-09
1.24561e-09
1.46537e-09
2.03827e-09
3.09037e-09
4.77627e-09
7.11039e-09
9.74957e-09
1.20684e-08
1.47791e-08
2.02579e-08
2.78581e-08
3.57101e-08
3.2725e-08
1.09488e-08
4.96454e-09
2.9513e-08
9.06725e-08
4.08856e-08
0
0
0
0
0
0
0
0
0
0
0
0
0
0
0
0
0
0
0
0
0
0
0
0
0
0
0
0
0
0
5.6061e-10
1.04493e-09
1.07711e-09
1.21368e-09
1.63778e-09
2.4589e-09
3.81039e-09
5.69555e-09
7.7936e-09
9.52734e-09
1.15591e-08
1.59337e-08
2.19004e-08
2.89969e-08
3.15108e-08
1.29569e-08
6.90946e-09
3.93156e-08
4.879e-08
2.21895e-08
0
0
0
0
0
0
0
0
0
0
0
0
0
0
0
0
0
0
0
0
0
0
0
0
0
0
0
0
0
0
4.96694e-10
9.32058e-10
9.28222e-10
9.93123e-10
1.28858e-09
1.9103e-09
2.97347e-09
4.46867e-09
6.08023e-09
7.25325e-09
8.62338e-09
1.20108e-08
1.65434e-08
2.21899e-08
2.70956e-08
1.41157e-08
8.87628e-09
3.78865e-08
2.36241e-08
1.05234e-08
0
0
0
0
0
0
0
0
0
0
0
0
0
0
0
0
0
0
0
0
0
0
0
0
0
0
0
0
0
0
4.39669e-10
8.31894e-10
7.98204e-10
8.03232e-10
9.90851e-10
1.44604e-09
2.2692e-09
3.43946e-09
4.63945e-09
5.32734e-09
6.13571e-09
8.74367e-09
1.21786e-08
1.63711e-08
2.11223e-08
1.358e-08
9.96084e-09
2.64397e-08
1.26449e-08
5.73545e-09
0
0
0
0
0
0
0
0
0
0
0
0
0
0
0
0
0
0
0
0
0
0
0
0
0
0
0
0
0
0
3.88855e-10
7.43504e-10
6.85782e-10
6.4228e-10
7.42151e-10
1.06227e-09
1.69119e-09
2.59934e-09
3.46736e-09
3.76633e-09
4.14118e-09
6.17832e-09
8.8323e-09
1.18485e-08
1.53999e-08
1.11399e-08
9.02161e-09
1.61383e-08
7.47902e-09
3.56134e-09
0
0
0
0
0
0
0
0
0
0
0
0
0
0
0
0
0
0
0
0
0
0
0
0
0
0
0
0
0
0
3.43598e-10
6.65913e-10
5.89405e-10
5.07649e-10
5.38072e-10
7.51817e-10
1.2278e-09
1.92997e-09
2.53918e-09
2.54335e-09
2.60842e-09
4.24821e-09
6.36562e-09
8.51792e-09
1.08286e-08
7.7351e-09
6.41248e-09
9.87054e-09
4.80809e-09
2.46154e-09
0
0
0
0
0
0
0
0
0
0
0
0
0
0
0
0
0
0
0
0
0
0
0
0
0
0
0
0
0
0
3.03281e-10
5.98079e-10
5.07334e-10
3.96474e-10
3.73531e-10
5.0545e-10
8.63604e-10
1.40817e-09
1.82262e-09
1.6143e-09
1.47034e-09
2.83895e-09
4.59116e-09
6.14339e-09
7.51399e-09
4.61912e-09
3.79465e-09
6.35431e-09
3.32488e-09
1.86851e-09
0
0
0
0
0
0
0
0
0
0
0
0
0
0
0
0
0
0
0
0
0
0
0
0
0
0
0
0
0
0
2.67337e-10
5.39093e-10
4.37869e-10
3.05491e-10
2.42834e-10
3.13965e-10
5.83802e-10
1.01018e-09
1.28142e-09
9.26779e-10
6.52471e-10
1.83998e-09
3.34208e-09
4.48773e-09
5.23326e-09
2.37997e-09
2.06874e-09
4.37696e-09
2.46217e-09
1.54426e-09
7.69666e-10
0
0
0
0
0
0
0
0
0
0
0
0
0
0
0
0
0
0
0
0
0
0
0
0
0
0
0
0
0
2.35249e-10
4.88019e-10
3.79376e-10
2.31833e-10
1.40728e-10
1.68083e-10
3.73535e-10
7.13754e-10
8.83004e-10
4.32706e-10
8.37718e-11
1.15104e-09
2.48125e-09
3.35885e-09
3.72148e-09
1.00698e-09
1.16298e-09
3.24339e-09
1.95023e-09
1.37956e-09
1.45464e-09
0
0
0
0
0
0
0
0
0
0
0
0
0
0
0
0
0
0
0
0
0
0
0
0
0
0
0
0
0
2.06557e-10
4.44101e-10
3.30433e-10
1.72698e-10
6.22211e-11
5.98708e-11
2.20428e-10
4.99383e-10
5.97646e-10
8.93954e-11
0
6.9556e-10
1.90512e-09
2.60801e-09
2.7512e-09
2.7531e-10
7.94827e-10
2.59762e-09
1.65498e-09
1.32303e-09
2.04692e-09
1.68114e-10
0
0
0
0
0
0
0
0
0
0
0
0
0
0
0
0
0
0
0
0
0
0
0
0
0
0
0
0
1.8087e-10
4.06611e-10
2.89704e-10
1.25822e-10
3.43123e-12
0
1.13143e-10
3.5038e-10
4.02288e-10
0
0
4.12792e-10
1.53705e-09
2.13122e-09
2.16453e-09
0
7.4054e-10
2.24676e-09
1.50284e-09
1.34691e-09
2.58167e-09
1.40243e-09
0
0
0
0
0
0
0
0
0
0
0
0
0
0
0
0
0
0
0
0
0
0
0
0
0
0
0
0
1.57816e-10
3.75e-10
2.56272e-10
8.9301e-11
0
0
4.36497e-11
2.55311e-10
2.79443e-10
0
0
2.60702e-10
1.32787e-09
1.86244e-09
1.85912e-09
0
8.73669e-10
2.08663e-09
1.45128e-09
1.43417e-09
3.08597e-09
3.53374e-09
0
0
0
0
0
0
0
0
0
0
0
0
0
0
0
0
0
0
0
0
0
0
0
1.41351e-12
6.0854e-12
0
0
0
1.37137e-10
3.48805e-10
2.29239e-10
6.16319e-11
0
0
5.62653e-12
2.0453e-10
2.15658e-10
0
0
2.11773e-10
1.24227e-09
1.75314e-09
1.76489e-09
1.73113e-10
1.13039e-09
2.06425e-09
1.48251e-09
1.58378e-09
3.59223e-09
6.82498e-09
0
0
0
0
0
0
0
0
0
0
0
0
0
0
0
0
0
0
0
0
0
0
5.19134e-11
7.68582e-11
9.26776e-11
1.11924e-10
1.52714e-10
0
1.18607e-10
3.27714e-10
2.08146e-10
4.19765e-11
0
0
0
1.92434e-10
2.03132e-10
0
0
2.46866e-10
1.25718e-09
1.77282e-09
1.83958e-09
5.33831e-10
1.49924e-09
2.16671e-09
1.59601e-09
1.79955e-09
4.1211e-09
1.11454e-08
4.63415e-10
0
0
0
0
0
0
0
0
0
0
0
0
0
0
0
0
0
0
0
0
9.14549e-11
1.3143e-10
1.57908e-10
1.88791e-10
2.38562e-10
3.37079e-10
0
1.02032e-10
3.11589e-10
1.92767e-10
2.97575e-11
0
0
9.70895e-12
2.15913e-10
2.36428e-10
0
0
3.57317e-10
1.36421e-09
1.91176e-09
2.06929e-09
1.03796e-09
1.95712e-09
2.36469e-09
1.77949e-09
2.07922e-09
4.6881e-09
1.57409e-08
2.08132e-09
0
0
0
0
0
0
0
0
0
0
0
0
0
0
0
0
0
0
0
5.70623e-11
1.80877e-10
2.10833e-10
2.42525e-10
2.90861e-10
3.74354e-10
5.35368e-10
0
8.71026e-11
3.00152e-10
1.82956e-10
2.51711e-11
0
0
4.96368e-11
2.73927e-10
3.15144e-10
0
0
5.41519e-10
1.55746e-09
2.15884e-09
2.43788e-09
1.67805e-09
2.53093e-09
2.67812e-09
2.05124e-09
2.44032e-09
5.31597e-09
1.95066e-08
4.90071e-09
3.68022e-09
5.29402e-10
5.2068e-12
0
0
0
0
0
0
0
0
0
0
0
0
0
0
0
0
1.84424e-10
2.69221e-10
2.91195e-10
3.2805e-10
3.94061e-10
5.13323e-10
7.40083e-10
0
7.33214e-11
2.92972e-10
1.78693e-10
2.87863e-11
0
0
1.17144e-10
3.70123e-10
4.43379e-10
2.91814e-11
0
8.01697e-10
1.84093e-09
2.52049e-09
2.95411e-09
2.46282e-09
3.22064e-09
3.10373e-09
2.41633e-09
2.89459e-09
6.02519e-09
2.18181e-08
9.37777e-09
7.92367e-09
1.07873e-09
1.84081e-10
0
0
0
0
0
0
0
0
0
0
0
0
0
0
0
0
2.94281e-10
3.44501e-10
3.6221e-10
4.07713e-10
4.94242e-10
6.51273e-10
9.44986e-10
0
6.04475e-11
2.89921e-10
1.80174e-10
4.16492e-11
0
1.39225e-11
2.16977e-10
5.09235e-10
6.26468e-10
2.72936e-10
1.78008e-10
1.14943e-09
2.22399e-09
3.0043e-09
3.62486e-09
3.40334e-09
4.04733e-09
3.65427e-09
2.88522e-09
3.45271e-09
6.82946e-09
2.28137e-08
1.53031e-08
1.15036e-08
1.63798e-09
3.91605e-10
0
0
0
0
0
0
0
0
0
0
0
0
0
0
0
0
3.7592e-10
4.00748e-10
4.19295e-10
4.76563e-10
5.85548e-10
7.81193e-10
1.1412e-09
0
4.87411e-11
2.91788e-10
1.88891e-10
6.63436e-11
1.67178e-11
1.04881e-10
3.55785e-10
7.00203e-10
8.76411e-10
5.99006e-10
5.8482e-10
1.59638e-09
2.71694e-09
3.62138e-09
4.46456e-09
4.52062e-09
5.03749e-09
4.35152e-09
3.47718e-09
4.13069e-09
7.74044e-09
2.29672e-08
2.08792e-08
1.40167e-08
2.22351e-09
6.3478e-10
1.56825e-10
0
0
0
0
0
0
0
0
0
0
0
0
0
0
7.6156e-11
4.1704e-10
4.29359e-10
4.55599e-10
5.28693e-10
6.62665e-10
8.97668e-10
1.32211e-09
0
3.88498e-11
3.00165e-10
2.07439e-10
1.06912e-10
9.37238e-11
2.32507e-10
5.44115e-10
9.55002e-10
1.20734e-09
1.02529e-09
1.10643e-09
2.16602e-09
3.3433e-09
4.39417e-09
5.49061e-09
5.82361e-09
6.20575e-09
5.21554e-09
4.21447e-09
4.95063e-09
8.77494e-09
2.27339e-08
2.37968e-08
1.56159e-08
2.85461e-09
9.20331e-10
3.91044e-10
3.37128e-10
1.29189e-09
1.31323e-09
1.31237e-10
0
0
0
0
0
0
0
0
0
0
1.94754e-10
4.11326e-10
4.27562e-10
4.68583e-10
5.60466e-10
7.20593e-10
9.94325e-10
1.47955e-09
0
3.15004e-11
3.17007e-10
2.39494e-10
1.69669e-10
2.05094e-10
4.08705e-10
7.96562e-10
1.29169e-09