/*--------------------------------*- C++ -*----------------------------------*\
  =========                 |
  \\      /  F ield         | OpenFOAM: The Open Source CFD Toolbox
   \\    /   O peration     | Website:  https://openfoam.org
    \\  /    A nd           | Version:  7
     \\/     M anipulation  |
\*---------------------------------------------------------------------------*/
FoamFile
{
    version     2.0;
    format      ascii;
    class       volScalarField;
    location    "0.01";
    object      p;
}
// * * * * * * * * * * * * * * * * * * * * * * * * * * * * * * * * * * * * * //

dimensions      [0 2 -2 0 0 0 0];

internalField   nonuniform List<scalar> 
70000
(
0.185736
0.108859
0.0957389
0.098228
0.0985367
0.0975478
0.0966561
0.0960035
0.0954828
0.0950467
0.0946854
0.0943967
0.0941807
0.0940407
0.093984
0.094021
0.0941623
0.0944138
0.0947719
0.0952204
0.0957334
0.0962841
0.0968537
0.0974353
0.0980315
0.0986494
0.0992964
0.0999784
0.1007
0.101466
0.102282
0.103155
0.104093
0.105104
0.1062
0.107388
0.108684
0.110096
0.111648
0.113351
0.115244
0.117342
0.119704
0.122363
0.125363
0.128846
0.132669
0.137499
0.14202
0.150332
0.181436
0.109221
0.0959414
0.0983225
0.0985909
0.0975833
0.0966836
0.096026
0.0955015
0.0950623
0.0946986
0.0944079
0.0941902
0.0940487
0.0939906
0.0940263
0.0941664
0.0944169
0.0947742
0.0952221
0.0957347
0.0962852
0.0968546
0.0974361
0.0980321
0.09865
0.0992969
0.0999788
0.1007
0.101466
0.102282
0.103155
0.104093
0.105104
0.1062
0.107388
0.108684
0.110096
0.111648
0.113351
0.115245
0.117343
0.119706
0.122365
0.125366
0.128852
0.132674
0.13751
0.142038
0.150305
0.17783
0.110143
0.0962859
0.0984512
0.0986656
0.0976283
0.0967158
0.096052
0.0955229
0.0950802
0.0947137
0.0944207
0.0942011
0.0940578
0.0939982
0.0940324
0.0941711
0.0944205
0.0947769
0.095224
0.0957362
0.0962864
0.0968556
0.0974369
0.0980328
0.0986504
0.0992972
0.099979
0.1007
0.101466
0.102282
0.103154
0.104092
0.105103
0.106199
0.107387
0.108683
0.110095
0.111647
0.113349
0.115242
0.11734
0.119702
0.122361
0.125361
0.128847
0.132666
0.137504
0.142043
0.150123
0.174725
0.111242
0.0967623
0.0986239
0.098767
0.0976865
0.0967543
0.0960822
0.0955477
0.0951008
0.0947311
0.0944356
0.0942138
0.0940687
0.0940074
0.09404
0.0941772
0.0944253
0.0947805
0.0952268
0.0957382
0.0962879
0.0968568
0.0974377
0.0980333
0.0986507
0.0992973
0.0999788
0.1007
0.101466
0.102281
0.103153
0.10409
0.105101
0.106196
0.107384
0.108679
0.110091
0.111642
0.113343
0.115235
0.117331
0.119691
0.122349
0.125344
0.128828
0.132639
0.137468
0.142022
0.149772
0.171769
0.112336
0.0973358
0.0988423
0.0989021
0.0977656
0.0968043
0.0961203
0.095579
0.0951269
0.0947532
0.0944548
0.0942306
0.0940835
0.0940203
0.0940512
0.0941867
0.094433
0.0947866
0.0952315
0.0957417
0.0962905
0.0968586
0.097439
0.0980341
0.0986511
0.0992973
0.0999786
0.100699
0.101465
0.10228
0.103151
0.104088
0.105098
0.106193
0.10738
0.108674
0.110084
0.111634
0.113333
0.115223
0.117316
0.119672
0.122325
0.125313
0.128789
0.132587
0.137389
0.141956
0.149269
0.168861
0.113368
0.0979596
0.0990871
0.0990649
0.0978673
0.0968685
0.0961688
0.0956191
0.0951606
0.0947822
0.0944802
0.0942535
0.0941043
0.0940392
0.0940682
0.0942017
0.0944458
0.0947971
0.0952396
0.0957478
0.0962948
0.0968617
0.0974411
0.0980355
0.098652
0.0992977
0.0999784
0.100699
0.101463
0.102278
0.103149
0.104085
0.105094
0.106188
0.107374
0.108666
0.110075
0.111622
0.113319
0.115204
0.117294
0.119642
0.122288
0.125263
0.128726
0.132504
0.137259
0.141828
0.148647
0.165995
0.11432
0.0986005
0.099337
0.0992422
0.0979867
0.0969458
0.0962275
0.0956682
0.0952027
0.0948189
0.0945132
0.0942838
0.0941324
0.0940655
0.0940926
0.0942238
0.0944652
0.0948133
0.0952525
0.0957575
0.0963018
0.0968666
0.0974446
0.098038
0.0986536
0.0992986
0.0999786
0.100698
0.101462
0.102276
0.103146
0.104081
0.105089
0.106181
0.107365
0.108656
0.110062
0.111606
0.113299
0.115178
0.117262
0.1196
0.122236
0.125193
0.128635
0.132385
0.137069
0.141629
0.147944
0.16318
0.115188
0.0992421
0.0995801
0.0994229
0.0981171
0.0970325
0.0962941
0.095725
0.0952522
0.0948629
0.0945535
0.0943215
0.0941683
0.0940997
0.0941251
0.0942539
0.0944921
0.0948362
0.0952709
0.0957716
0.0963122
0.0968741
0.0974499
0.0980418
0.0986563
0.0993003
0.0999795
0.100698
0.101461
0.102274
0.103143
0.104076
0.105083
0.106173
0.107355
0.108643
0.110046
0.111585
0.113273
0.115145
0.11722
0.119545
0.122168
0.125101
0.128514
0.13223
0.136819
0.141352
0.147191
0.160423
0.115968
0.0998791
0.0998127
0.0996007
0.0982535
0.0971251
0.0963658
0.0957869
0.0953073
0.0949128
0.0945998
0.0943655
0.0942109
0.0941411
0.094165
0.0942916
0.0945263
0.0948658
0.0952951
0.0957902
0.0963261
0.0968842
0.0974574
0.0980474
0.0986603
0.0993031
0.099981
0.100699
0.10146
0.102272
0.103139
0.104071
0.105075
0.106163
0.107342
0.108626
0.110025
0.111559
0.113241
0.115104
0.117169
0.119477
0.122082
0.124988
0.128363
0.132036
0.13651
0.140997
0.146409
0.157726
0.116658
0.10051
0.100035
0.0997728
0.0983929
0.0972214
0.0964403
0.095852
0.0953659
0.0949665
0.0946504
0.0944143
0.0942587
0.0941882
0.0942109
0.0943354
0.0945666
0.094901
0.0953242
0.0958131
0.0963433
0.096897
0.097467
0.0980546
0.0986657
0.0993069
0.0999833
0.100699
0.10146
0.102269
0.103135
0.104064
0.105067
0.106151
0.107327
0.108607
0.11
0.111528
0.113202
0.115054
0.117107
0.119396
0.121979
0.124853
0.12818
0.131804
0.136148
0.140566
0.14561
0.155094
0.117261
0.101134
0.100247
0.0999376
0.0985339
0.0973204
0.0965164
0.0959188
0.0954267
0.0950227
0.0947037
0.0944662
0.0943099
0.094239
0.0942609
0.0943836
0.0946113
0.0949405
0.0953572
0.0958393
0.0963633
0.096912
0.0974783
0.0980632
0.0986723
0.0993115
0.0999861
0.1007
0.101459
0.102267
0.10313
0.104057
0.105057
0.106138
0.107309
0.108584
0.109972
0.111491
0.113156
0.114995
0.117034
0.119302
0.121858
0.124697
0.127969
0.131535
0.135739
0.140068
0.1448
0.152528
0.117775
0.101749
0.10045
0.100094
0.0986756
0.0974216
0.0965937
0.0959866
0.0954887
0.0950804
0.0947586
0.0945199
0.0943632
0.0942922
0.0943136
0.0944345
0.0946588
0.0949828
0.0953928
0.0958677
0.0963852
0.0969286
0.0974909
0.0980729
0.0986796
0.0993167
0.0999893
0.100701
0.101458
0.102263
0.103124
0.104049
0.105045
0.106122
0.107289
0.108558
0.109938
0.111448
0.113103
0.114928
0.116949
0.119194
0.12172
0.124519
0.127729
0.131231
0.135289
0.139509
0.143976
0.150033
0.118203
0.102353
0.100646
0.100242
0.0988171
0.0975248
0.0966719
0.096055
0.0955515
0.095139
0.0948146
0.0945747
0.0944177
0.0943467
0.0943676
0.0944869
0.0947079
0.0950266
0.09543
0.0958976
0.0964083
0.0969461
0.0975042
0.0980831
0.0986873
0.0993222
0.0999924
0.100702
0.101456
0.102259
0.103118
0.104039
0.105032
0.106105
0.107266
0.108528
0.109901
0.1114
0.113043
0.114852
0.116854
0.119073
0.121565
0.124322
0.127464
0.130894
0.134804
0.1389
0.143138
0.147609
0.118543
0.102943
0.100837
0.100381
0.0989576
0.09763
0.0967511
0.0961238
0.0956151
0.0951984
0.0948714
0.0946302
0.094473
0.0944019
0.0944223
0.09454
0.0947577
0.0950712
0.0954679
0.0959282
0.096432
0.0969642
0.097518
0.0980935
0.0986951
0.0993275
0.0999953
0.100703
0.101454
0.102254
0.10311
0.104028
0.105017
0.106085
0.107241
0.108495
0.109859
0.111347
0.112976
0.114767
0.116749
0.11894
0.121394
0.124106
0.127175
0.130526
0.134289
0.138246
0.14228
0.145261
0.118799
0.103517
0.101023
0.10051
0.099096
0.0977369
0.0968311
0.0961931
0.0956791
0.0952585
0.0949287
0.0946863
0.0945288
0.0944576
0.0944774
0.0945935
0.0948078
0.0951161
0.0955061
0.0959592
0.0964561
0.0969825
0.0975317
0.0981039
0.0987026
0.0993324
0.0999976
0.100702
0.10145
0.102248
0.1031
0.104015
0.105
0.106062
0.107212
0.108458
0.109812
0.111288
0.112903
0.114675
0.116633
0.118794
0.121208
0.12387
0.126864
0.130129
0.133746
0.137555
0.1414
0.142989
0.118971
0.104071
0.101207
0.10063
0.0992315
0.0978453
0.096912
0.0962626
0.0957436
0.0953191
0.0949867
0.0947429
0.094585
0.0945136
0.0945328
0.094647
0.094858
0.0951611
0.0955444
0.0959903
0.0964803
0.0970008
0.0975454
0.098114
0.0987097
0.0993368
0.0999991
0.100701
0.101446
0.10224
0.103089
0.104
0.10498
0.106037
0.10718
0.108418
0.109761
0.111224
0.112822
0.114574
0.116507
0.118636
0.121007
0.123616
0.126531
0.129704
0.133178
0.13683
0.140493
0.140795
0.119063
0.104601
0.101389
0.100739
0.0993629
0.097955
0.0969939
0.0963324
0.0958085
0.0953803
0.0950451
0.0948
0.0946415
0.0945698
0.0945883
0.0947007
0.0949081
0.095206
0.0955827
0.0960213
0.0965044
0.097019
0.0975589
0.0981237
0.0987163
0.0993404
0.0999998
0.100698
0.10144
0.10223
0.103076
0.103982
0.104958
0.106009
0.107145
0.108373
0.109705
0.111154
0.112735
0.114465
0.116371
0.118466
0.120791
0.123345
0.126178
0.129254
0.132586
0.136076
0.139558
0.138681
0.119076
0.105106
0.101571
0.10084
0.0994893
0.0980654
0.0970768
0.0964023
0.0958736
0.0954419
0.0951041
0.0948575
0.0946983
0.0946263
0.0946438
0.0947542
0.0949581
0.0952508
0.0956208
0.0960522
0.0965284
0.0970371
0.0975721
0.098133
0.0987223
0.0993433
0.0999995
0.100695
0.101433
0.10222
0.103061
0.103963
0.104933
0.105978
0.107106
0.108324
0.109644
0.111078
0.112641
0.114348
0.116225
0.118284
0.12056
0.123055
0.125804
0.12878
0.13197
0.135294
0.138594
0.136647
0.119013
0.105581
0.101754
0.10093
0.0996097
0.0981762
0.0971605
0.0964723
0.0959388
0.0955039
0.0951634
0.0949153
0.0947554
0.0946828
0.0946994
0.0948077
0.095008
0.0952953
0.0956588
0.096083
0.0965523
0.0970549
0.0975849
0.0981418
0.0987275
0.0993452
0.0999981
0.10069
0.101424
0.102207
0.103044
0.103941
0.104905
0.105943
0.107063
0.108271
0.109578
0.110996
0.112539
0.114222
0.116068
0.118089
0.120315
0.122748
0.125411
0.128281
0.131331
0.134486
0.137601
0.134694
0.118879
0.106023
0.101937
0.101013
0.0997231
0.0982867
0.0972452
0.0965424
0.096004
0.0955662
0.0952231
0.0949733
0.0948127
0.0947395
0.094755
0.0948611
0.0950577
0.0953397
0.0956965
0.0961135
0.0965759
0.0970724
0.0975973
0.0981499
0.098732
0.0993462
0.0999955
0.100683
0.101414
0.102192
0.103024
0.103916
0.104874
0.105905
0.107015
0.108213
0.109506
0.110907
0.11243
0.114087
0.115901
0.117882
0.120055
0.122423
0.124998
0.127758
0.130668
0.133653
0.136579
0.132821
0.118678
0.106431
0.102121
0.101087
0.0998288
0.0983963
0.0973306
0.0966125
0.0960691
0.0956286
0.0952831
0.0950317
0.0948701
0.0947962
0.0948105
0.0949143
0.0951071
0.0953837
0.0957339
0.0961438
0.0965992
0.0970895
0.0976093
0.0981575
0.0987356
0.0993461
0.0999916
0.100675
0.101402
0.102176
0.103003
0.103889
0.10484
0.105863
0.106964
0.108149
0.109428
0.110812
0.112312
0.113943
0.115723
0.117662
0.11978
0.12208
0.124565
0.127213
0.129981
0.132796
0.135529
0.131028
0.118413
0.106801
0.102305
0.101154
0.0999261
0.0985041
0.0974166
0.0966825
0.096134
0.0956911
0.0953433
0.0950901
0.0949276
0.0948529
0.0948658
0.0949672
0.0951561
0.0954274
0.095771
0.0961737
0.0966221
0.0971062
0.0976207
0.0981643
0.0987383
0.0993448
0.0999863
0.100666
0.101388
0.102157
0.102978
0.103859
0.104803
0.105817
0.106908
0.10808
0.109344
0.110709
0.112187
0.113789
0.115533
0.117428
0.11949
0.121718
0.124112
0.126646
0.129272
0.131914
0.134452
0.129315
0.118091
0.107131
0.102489
0.101215
0.100014
0.0986095
0.0975031
0.0967525
0.0961985
0.0957535
0.0954036
0.0951487
0.0949851
0.0949094
0.0949209
0.0950199
0.0952048
0.0954707
0.0958077
0.0962032
0.0966447
0.0971225
0.0976314
0.0981703
0.0987399
0.0993423
0.0999795
0.100655
0.101372
0.102136
0.102952
0.103825
0.104762
0.105767
0.106846
0.108006
0.109254
0.110598
0.112052
0.113625
0.115332
0.117181
0.119184
0.121339
0.123638
0.126056
0.128539
0.13101
0.133351
0.127679
0.117716
0.107418
0.102672
0.101271
0.100093
0.0987114
0.0975898
0.0968224
0.0962625
0.0958157
0.0954639
0.0952073
0.0950425
0.0949658
0.0949758
0.0950721
0.0952531
0.0955135
0.0958439
0.0962322
0.0966667
0.0971381
0.0976415
0.0981754
0.0987405
0.0993384
0.0999712
0.100642
0.101354
0.102112
0.102922
0.103789
0.104717
0.105713
0.10678
0.107925
0.109156
0.11048
0.111908
0.11345
0.115118
0.11692
0.118862
0.120941
0.123145
0.125444
0.127783
0.130083
0.132226
0.126119
0.117294
0.107662
0.102853
0.101323
0.100163
0.0988091
0.0976763
0.0968921
0.0963259
0.0958775
0.0955241
0.0952658
0.0950998
0.0950219
0.0950302
0.0951239
0.0953008
0.0955557
0.0958795
0.0962607
0.0966882
0.0971531
0.0976508
0.0981795
0.0987398
0.0993331
0.0999611
0.100627
0.101333
0.102086
0.102889
0.103749
0.104668
0.105653
0.106708
0.107839
0.109051
0.110354
0.111755
0.113265
0.114893
0.116644
0.118523
0.120524
0.122631
0.124811
0.127006
0.129134
0.131081
0.124633
0.116829
0.107861
0.103028
0.101371
0.100223
0.0989015
0.0977622
0.0969617
0.0963886
0.0959387
0.0955841
0.0953242
0.0951568
0.0950777
0.0950843
0.0951751
0.0953479
0.0955973
0.0959145
0.0962886
0.096709
0.0971674
0.0976591
0.0981826
0.0987379
0.0993262
0.0999492
0.100609
0.101311
0.102057
0.102854
0.103705
0.104615
0.105589
0.106631
0.107746
0.108939
0.110219
0.111592
0.113068
0.114654
0.116354
0.118168
0.120089
0.122098
0.124157
0.126208
0.128166
0.129918
0.123219
0.116329
0.108014
0.103197
0.101417
0.100275
0.0989879
0.0978469
0.0970311
0.0964506
0.0959993
0.0956437
0.0953822
0.0952135
0.095133
0.0951378
0.0952258
0.0953944
0.0956382
0.0959488
0.0963157
0.096729
0.0971808
0.0976666
0.0981844
0.0987345
0.0993176
0.0999353
0.10059
0.101285
0.102025
0.102814
0.103657
0.104558
0.10552
0.106548
0.107645
0.108819
0.110075
0.111419
0.11286
0.114402
0.116048
0.117797
0.119636
0.121544
0.123482
0.125389
0.127179
0.128739
0.121875
0.115798
0.108121
0.103356
0.101461
0.100317
0.0990674
0.0979298
0.0971
0.0965116
0.0960589
0.0957027
0.0954399
0.0952697
0.0951878
0.0951906
0.0952757
0.09544
0.0956783
0.0959822
0.096342
0.0967482
0.0971933
0.0976729
0.098185
0.0987296
0.0993072
0.0999193
0.100568
0.101257
0.10199
0.102772
0.103605
0.104495
0.105445
0.106458
0.107538
0.108691
0.109921
0.111236
0.11264
0.114137
0.115728
0.117408
0.119164
0.120972
0.122788
0.124552
0.126176
0.127547
0.120597
0.115243
0.108182
0.103503
0.101504
0.100352
0.0991394
0.0980102
0.0971684
0.0965718
0.0961175
0.0957609
0.095497
0.0953254
0.095242
0.0952427
0.0953248
0.0954848
0.0957175
0.0960148
0.0963674
0.0967665
0.0972048
0.097678
0.0981842
0.098723
0.0992949
0.099901
0.100544
0.101226
0.101952
0.102725
0.103549
0.104428
0.105364
0.106362
0.107424
0.108554
0.109759
0.111042
0.112407
0.113858
0.115392
0.117003
0.118675
0.12038
0.122075
0.123696
0.125157
0.126345
0.119383
0.114668
0.108197
0.103636
0.101546
0.100379
0.0992034
0.0980875
0.0972359
0.0966309
0.0961749
0.0958183
0.0955535
0.0953804
0.0952953
0.095294
0.0953729
0.0955286
0.0957556
0.0960463
0.0963918
0.0967836
0.0972151
0.0976818
0.0981818
0.0987146
0.0992804
0.0998804
0.100517
0.101192
0.10191
0.102674
0.103488
0.104355
0.105278
0.106259
0.107301
0.108409
0.109586
0.110836
0.112162
0.113565
0.115041
0.116581
0.118167
0.11977
0.121344
0.122825
0.124125
0.125135
0.11823
0.114078
0.108169
0.103752
0.101587
0.1004
0.099259
0.0981608
0.0973023
0.0966889
0.0962309
0.0958745
0.095609
0.0954345
0.0953478
0.0953443
0.09542
0.0955713
0.0957927
0.0960767
0.096415
0.0967996
0.0972241
0.0976841
0.0981777
0.0987042
0.0992638
0.0998572
0.100486
0.101154
0.101864
0.102619
0.103423
0.104277
0.105185
0.106149
0.107171
0.108255
0.109403
0.11062
0.111905
0.113258
0.114674
0.116143
0.117642
0.119143
0.120596
0.121938
0.123083
0.12392
0.117134
0.113478
0.108099
0.103848
0.101627
0.100414
0.099306
0.0982294
0.0973671
0.0967457
0.0962854
0.0959294
0.0956636
0.0954877
0.0953993
0.0953934
0.095466
0.0956128
0.0958285
0.0961059
0.096437
0.0968143
0.0972316
0.0976849
0.0981719
0.0986918
0.0992447
0.0998313
0.100453
0.101113
0.101815
0.10256
0.103352
0.104193
0.105086
0.106031
0.107032
0.108091
0.10921
0.110391
0.111634
0.112937
0.114293
0.115688
0.117101
0.118498
0.119832
0.121039
0.122031
0.122704
0.116093
0.112872
0.107988
0.103923
0.101663
0.100424
0.0993443
0.0982925
0.0974299
0.0968011
0.0963383
0.0959827
0.0957168
0.0955398
0.0954496
0.0954414
0.0955106
0.0956529
0.0958629
0.0961336
0.0964575
0.0968275
0.0972377
0.0976839
0.098164
0.0986771
0.0992231
0.0998025
0.100417
0.101069
0.101761
0.102496
0.103276
0.104103
0.104979
0.105906
0.106885
0.107918
0.109007
0.110151
0.111351
0.112602
0.113895
0.115217
0.116543
0.117838
0.119055
0.120129
0.120974
0.121489
0.115104
0.112265
0.107841
0.103976
0.101696
0.100429
0.0993742
0.0983495
0.0974902
0.096855
0.0963894
0.0960343
0.0957687
0.0955906
0.0954986
0.0954879
0.0955538
0.0956916
0.0958958
0.0961599
0.0964765
0.0968391
0.0972419
0.097681
0.098154
0.0986601
0.0991988
0.0997706
0.100377
0.10102
0.101703
0.102427
0.103194
0.104007
0.104866
0.105773
0.106729
0.107735
0.108792
0.109899
0.111055
0.112253
0.113483
0.114731
0.115969
0.117163
0.118264
0.119209
0.119913
0.120279
0.114163
0.111658
0.10766
0.104005
0.101724
0.10043
0.0993958
0.0983997
0.0975472
0.0969071
0.0964385
0.0960839
0.0958188
0.0956399
0.0955461
0.0955329
0.0955953
0.0957286
0.0959271
0.0961844
0.0964938
0.096849
0.0972444
0.097676
0.0981417
0.0986404
0.0991716
0.0997355
0.100333
0.100967
0.10164
0.102352
0.103107
0.103904
0.104746
0.105632
0.106564
0.107543
0.108567
0.109635
0.110745
0.111889
0.113056
0.114229
0.11538
0.116475
0.117463
0.118282
0.118851
0.119075
0.113267
0.111055
0.107448
0.104009
0.101746
0.100426
0.0994096
0.0984426
0.0976004
0.0969571
0.0964856
0.0961314
0.095867
0.0956875
0.0955919
0.0955761
0.0956351
0.0957638
0.0959565
0.0962072
0.0965093
0.0968569
0.0972447
0.0976688
0.098127
0.098618
0.0991413
0.0996969
0.100286
0.10091
0.101572
0.102273
0.103013
0.103795
0.104618
0.105483
0.10639
0.107339
0.10833
0.109359
0.110422
0.111512
0.112615
0.113713
0.114778
0.115774
0.116652
0.11735
0.11779
0.117882
0.112414
0.110458
0.107208
0.103988
0.101759
0.100419
0.099416
0.098478
0.0976492
0.0970047
0.0965305
0.0961765
0.0959131
0.0957332
0.0956359
0.0956175
0.095673
0.095797
0.095984
0.0962279
0.0965227
0.0968627
0.0972429
0.0976592
0.0981096
0.0985926
0.0991076
0.0996546
0.100234
0.100849
0.101499
0.102187
0.102913
0.103678
0.104482
0.105325
0.106207
0.107126
0.108082
0.10907
0.110087
0.111121
0.11216
0.113183
0.114163
0.115062
0.115833
0.116415
0.116733
0.116702
0.1116
0.109869
0.106944
0.103941
0.101762
0.100408
0.0994154
0.0985056
0.0976929
0.0970494
0.0965729
0.0962191
0.0959567
0.0957767
0.0956778
0.0956568
0.0957087
0.0958281
0.0960092
0.0962464
0.0965339
0.0968663
0.0972386
0.097647
0.0980893
0.0985641
0.0990705
0.0996085
0.100179
0.100782
0.101421
0.102096
0.102807
0.103554
0.104338
0.105158
0.106013
0.106902
0.107822
0.10877
0.109738
0.110717
0.111691
0.11264
0.113536
0.114341
0.115008
0.115479
0.115683
0.115539
0.110824
0.10929
0.106659
0.10387
0.101754
0.100393
0.0994082
0.0985252
0.0977309
0.0970908
0.0966127
0.096259
0.0959977
0.0958178
0.0957175
0.0956938
0.0957421
0.0958568
0.0960322
0.0962626
0.0965428
0.0968673
0.0972317
0.097632
0.098066
0.0985322
0.0990297
0.0995582
0.100118
0.100711
0.101337
0.101998
0.102693
0.103423
0.104186
0.104982
0.10581
0.106667
0.107551
0.108457
0.109377
0.110299
0.111209
0.112085
0.112898
0.113612
0.114179
0.114546
0.114642
0.114393
0.110083
0.108721
0.106356
0.103775
0.101733
0.100373
0.0993948
0.0985369
0.0977626
0.0971283
0.0966496
0.0962959
0.0960357
0.0958562
0.0957546
0.0957284
0.095773
0.095883
0.0960525
0.0962763
0.096549
0.0968657
0.0972219
0.0976139
0.0980393
0.0984967
0.098985
0.0995036
0.100053
0.100634
0.101248
0.101894
0.102573
0.103283
0.104025
0.104797
0.105597
0.106422
0.107269
0.108132
0.109003
0.10987
0.110716
0.111519
0.112251
0.112876
0.113349
0.113616
0.113612
0.113269
0.109373
0.108163
0.106038
0.103657
0.101698
0.100347
0.0993754
0.0985407
0.0977877
0.0971615
0.0966832
0.0963296
0.0960706
0.0958917
0.095789
0.0957602
0.0958012
0.0959064
0.0960702
0.0962871
0.0965524
0.0968612
0.0972092
0.0975926
0.0980092
0.0984574
0.0989361
0.0994445
0.0999828
0.100552
0.101152
0.101783
0.102445
0.103136
0.103856
0.104603
0.105374
0.106166
0.106976
0.107796
0.108618
0.109428
0.110211
0.110943
0.111596
0.112136
0.112518
0.112692
0.112597
0.112169
0.108694
0.107618
0.105708
0.103517
0.101649
0.100314
0.0993501
0.0985369
0.0978057
0.0971897
0.0967132
0.09636
0.0961022
0.0959239
0.0958203
0.0957891
0.0958264
0.0959268
0.0960848
0.096295
0.0965527
0.0968536
0.0971931
0.0975679
0.0979754
0.0984141
0.0988828
0.0993805
0.0999074
0.100464
0.10105
0.101666
0.10231
0.102981
0.103678
0.104399
0.105141
0.1059
0.106671
0.107448
0.10822
0.108975
0.109695
0.110358
0.110935
0.111393
0.11169
0.111777
0.111598
0.111095
0.108042
0.107084
0.105369
0.103358
0.101584
0.100274
0.0993189
0.0985256
0.0978164
0.0972125
0.0967393
0.0963867
0.0961301
0.0959526
0.0958483
0.0958148
0.0958484
0.095944
0.0960962
0.0962996
0.0965498
0.0968425
0.0971736
0.0975394
0.0979375
0.0983665
0.0988248
0.0993115
0.0998265
0.10037
0.100942
0.101541
0.102167
0.102817
0.103491
0.104185
0.104897
0.105622
0.106355
0.107089
0.107812
0.108512
0.10917
0.109765
0.110269
0.110649
0.110865
0.110873
0.110618
0.110049
0.107417
0.106563
0.105022
0.103179
0.101504
0.100226
0.0992816
0.0985068
0.0978195
0.0972294
0.0967608
0.0964096
0.0961541
0.0959775
0.0958727
0.0958369
0.0958669
0.0959578
0.0961041
0.0963007
0.0965433
0.0968279
0.0971503
0.0975069
0.0978955
0.0983144
0.098762
0.0992373
0.0997398
0.10027
0.100827
0.101409
0.102016
0.102645
0.103295
0.103962
0.104644
0.105335
0.106029
0.106719
0.107393
0.108038
0.108637
0.109166
0.1096
0.109906
0.110047
0.109981
0.109659
0.109033
0.106816
0.106054
0.104669
0.102984
0.101408
0.100168
0.0992379
0.0984809
0.0978149
0.0972398
0.0967775
0.0964282
0.096174
0.0959983
0.0958932
0.0958553
0.0958818
0.0959679
0.0961083
0.0962981
0.0965331
0.0968094
0.097123
0.0974702
0.0978489
0.0982574
0.0986941
0.0991575
0.0996471
0.100163
0.100704
0.10127
0.101857
0.102465
0.10309
0.10373
0.10438
0.105037
0.105692
0.106338
0.106964
0.107556
0.108096
0.108562
0.108929
0.109166
0.109237
0.109105
0.108723
0.108049
0.106238
0.105558
0.104312
0.102774
0.101297
0.100101
0.0991875
0.0984478
0.0978025
0.0972434
0.0967888
0.0964422
0.0961894
0.0960148
0.0959094
0.0958697
0.0958926
0.095974
0.0961086
0.0962915
0.0965188
0.0967868
0.0970913
0.0974291
0.0977977
0.0981955
0.0986207
0.0990719
0.0995482
0.10005
0.100575
0.101122
0.10169
0.102275
0.102875
0.103487
0.104107
0.104728
0.105345
0.105948
0.106527
0.107066
0.107549
0.107955
0.108258
0.10843
0.108438
0.108245
0.107812
0.107099
0.10568
0.105073
0.103953
0.10255
0.101172
0.100023
0.09913
0.0984075
0.0977824
0.0972399
0.0967943
0.0964513
0.0962002
0.0960266
0.0959212
0.0958796
0.0958992
0.0959758
0.0961046
0.0962806
0.0965002
0.0967597
0.0970552
0.0973831
0.0977414
0.0981282
0.0985417
0.0989802
0.0994429
0.0999292
0.100438
0.100967
0.101514
0.102077
0.102652
0.103236
0.103824
0.10441
0.104988
0.105549
0.10608
0.106569
0.106997
0.107345
0.107588
0.1077
0.10765
0.107404
0.106927
0.106183
0.105143
0.104599
0.103592
0.102314
0.101031
0.0999346
0.0990648
0.0983599
0.0977544
0.0972289
0.0967935
0.096455
0.096206
0.0960335
0.0959281
0.0958849
0.0959012
0.0959731
0.096096
0.0962652
0.096477
0.096728
0.0970142
0.0973322
0.0976798
0.0980554
0.0984568
0.0988823
0.0993308
0.0998017
0.100294
0.100804
0.10133
0.10187
0.102419
0.102974
0.103531
0.104082
0.104622
0.105141
0.105626
0.106066
0.106441
0.106734
0.106922
0.106978
0.106876
0.106584
0.10607
0.105304
0.104623
0.104137
0.103231
0.102068
0.100877
0.0998347
0.0989914
0.098305
0.0977186
0.0972102
0.096786
0.0964529
0.0962064
0.0960351
0.0959298
0.0958852
0.0958983
0.0959656
0.0960826
0.0962449
0.0964489
0.0966912
0.096968
0.0972759
0.0976127
0.0979767
0.0983658
0.0987778
0.0992118
0.0996668
0.100141
0.100633
0.101138
0.101653
0.102177
0.102704
0.103229
0.103746
0.104247
0.104725
0.105166
0.105557
0.105883
0.106125
0.10626
0.106266
0.106117
0.105785
0.105242
0.104461
0.104121
0.103685
0.10287
0.101813
0.100711
0.0997235
0.0989096
0.0982426
0.0976749
0.0971836
0.0967713
0.0964447
0.0962011
0.0960312
0.0959261
0.0958801
0.0958901
0.0959529
0.096064
0.0962194
0.0964156
0.0966492
0.0969164
0.097214
0.0975397
0.0978919
0.0982683
0.0986666
0.0990856
0.0995244
0.0999811
0.100453
0.100936
0.101428
0.101926
0.102424
0.102917
0.1034
0.103864
0.104301
0.104699
0.105045
0.105324
0.105517
0.105604
0.105565
0.105375
0.10501
0.104444
0.103655
0.103634
0.103244
0.10251
0.10155
0.100532
0.0996009
0.0988187
0.0981723
0.0976232
0.097149
0.0967493
0.0964298
0.0961897
0.0960214
0.0959166
0.0958693
0.0958764
0.0959347
0.09604
0.0961884
0.0963767
0.0966016
0.0968591
0.0971461
0.0974606
0.0978007
0.098164
0.0985483
0.098952
0.0993742
0.0998128
0.100265
0.100726
0.101194
0.101665
0.102135
0.102597
0.103046
0.103474
0.103871
0.104228
0.104531
0.104764
0.104912
0.104956
0.104877
0.104652
0.104259
0.103678
0.102887
0.103162
0.102812
0.102152
0.10128
0.100342
0.099467
0.0987186
0.098094
0.0975635
0.0971061
0.0967194
0.0964079
0.0961719
0.0960054
0.0959009
0.0958525
0.0958568
0.0959107
0.0960102
0.0961517
0.096332
0.096548
0.0967958
0.0970721
0.097375
0.0977028
0.0980529
0.0984227
0.0988109
0.0992161
0.0996363
0.100068
0.100507
0.100951
0.101396
0.101837
0.102268
0.102684
0.103076
0.103436
0.103753
0.104014
0.104206
0.104313
0.104318
0.104202
0.103947
0.103534
0.102942
0.102157
0.102703
0.10239
0.101796
0.101004
0.100141
0.0993221
0.0986089
0.0980074
0.0974956
0.097055
0.0966816
0.0963786
0.0961472
0.0959829
0.0958788
0.0958293
0.0958309
0.0958805
0.0959743
0.0961088
0.0962811
0.0964881
0.096726
0.0969915
0.0972827
0.0975979
0.0979345
0.0982897
0.0986619
0.0990499
0.0994514
0.0998627
0.10028
0.1007
0.101118
0.101531
0.101932
0.102315
0.102672
0.102996
0.103274
0.103497
0.10365
0.103719
0.103689
0.103543
0.103263
0.102834
0.102239
0.101465
0.102257
0.101976
0.101441
0.100723
0.0999311
0.0991665
0.0984896
0.0979121
0.0974193
0.0969953
0.0966354
0.0963416
0.0961153
0.0959534
0.0958499
0.0957995
0.0957984
0.0958437
0.0959319
0.0960594
0.0962237
0.0964217
0.0966496
0.0969041
0.0971834
0.0974858
0.0978086
0.0981489
0.098505
0.0988755
0.099258
0.0996488
0.100044
0.100439
0.100832
0.101217
0.101588
0.101939
0.102263
0.102551
0.102794
0.10298
0.103098
0.103133
0.103071
0.102899
0.1026
0.102161
0.101568
0.100808
0.101823
0.101571
0.101089
0.100439
0.0997123
0.0990006
0.0983604
0.097808
0.0973345
0.0969271
0.0965807
0.0962964
0.0960758
0.0959166
0.0958139
0.0957625
0.095759
0.0958001
0.0958826
0.0960033
0.0961595
0.0963484
0.0965662
0.0968095
0.0970768
0.0973662
0.097675
0.0980002
0.0983399
0.0986927
0.0990561
0.0994263
0.0997989
0.100171
0.100537
0.100894
0.101236
0.101557
0.101848
0.102103
0.102313
0.102465
0.10255
0.102554
0.102466
0.102272
0.101959
0.101515
0.100928
0.100188
0.1014
0.101173
0.10074
0.10015
0.0994853
0.0988246
0.0982214
0.0976949
0.097241
0.0968501
0.0965172
0.0962428
0.0960282
0.0958722
0.0957704
0.0957182
0.0957122
0.0957493
0.0958262
0.0959399
0.0960881
0.0962678
0.0964754
0.0967075
0.0969625
0.0972388
0.0975335
0.0978433
0.0981664
0.0985014
0.0988457
0.0991951
0.0995455
0.0998933
0.100235
0.100565
0.100878
0.101169
0.10143
0.101653
0.101831
0.101952
0.102008
0.101985
0.101874
0.101663
0.10134
0.100896
0.10032
0.0996017
0.100986
0.100783
0.100392
0.0998588
0.099251
0.0986392
0.0980727
0.0975725
0.0971386
0.0967641
0.0964448
0.0961804
0.0959723
0.0958197
0.095719
0.0956661
0.0956577
0.0956909
0.0957623
0.0958691
0.0960091
0.0961797
0.096377
0.0965977
0.0968404
0.0971034
0.0973837
0.0976781
0.0979845
0.0983015
0.0986266
0.0989554
0.0992837
0.0996078
0.0999242
0.100228
0.100514
0.100776
0.101007
0.101201
0.101349
0.101443
0.101472
0.101426
0.101296
0.101072
0.100744
0.100303
0.0997435
0.0990631
0.100581
0.100399
0.100048
0.0995647
0.0990098
0.0984446
0.0979143
0.0974407
0.097027
0.096669
0.0963632
0.0961091
0.0959077
0.0957588
0.0956594
0.0956059
0.0955952
0.0956245
0.0956904
0.0957903
0.0959223
0.0960836
0.0962706
0.0964799
0.0967101
0.0969597
0.0972256
0.0975043
0.097794
0.098093
0.0983988
0.098707
0.0990135
0.0993144
0.0996063
0.0998845
0.100144
0.100378
0.100582
0.100748
0.10087
0.100937
0.100943
0.100877
0.100732
0.100499
0.100169
0.0997364
0.0991946
0.0985427
0.100185
0.100021
0.0997051
0.0992684
0.0987624
0.0982414
0.0977465
0.0972995
0.0969063
0.0965647
0.0962723
0.0960285
0.0958341
0.0956891
0.0955913
0.0955373
0.0955243
0.0955497
0.0956103
0.0957034
0.0958272
0.0959793
0.0961558
0.0963537
0.0965714
0.0968075
0.0970588
0.0973219
0.0975947
0.0978757
0.0981624
0.0984503
0.0987351
0.0990132
0.0992813
0.0995347
0.0997685
0.099977
0.100155
0.100295
0.100392
0.100436
0.100422
0.10034
0.100183
0.099944
0.099616
0.099194
0.0986748
0.0980548
0.0997963
0.0996494
0.0993647
0.09897
0.0985092
0.0980298
0.0975692
0.0971489
0.0967761
0.096451
0.0961719
0.0959383
0.0957511
0.0956103
0.0955142
0.0954598
0.0954447
0.0954663
0.0955215
0.0956078
0.0957236
0.0958664
0.0960325
0.0962188
0.096424
0.0966465
0.0968832
0.0971306
0.0973865
0.0976497
0.0979173
0.098185
0.0984486
0.0987045
0.0989494
0.099179
0.0993884
0.0995723
0.0997256
0.0998425
0.0999165
0.0999409
0.0999088
0.0998133
0.0996481
0.0994071
0.0990844
0.0986753
0.0981806
0.0975963
0.0994144
0.0992825
0.0990264
0.0986697
0.0982506
0.0978104
0.0973829
0.0969887
0.0966364
0.0963276
0.0960617
0.0958385
0.0956585
0.0955221
0.0954278
0.0953731
0.095356
0.0953739
0.0954238
0.0955033
0.095611
0.0957446
0.0959003
0.096075
0.0962675
0.0964764
0.0966986
0.0969303
0.0971695
0.0974148
0.0976636
0.0979115
0.0981543
0.0983885
0.098611
0.0988177
0.099004
0.0991647
0.0992953
0.0993905
0.0994445
0.0994512
0.0994044
0.0992985
0.0991278
0.0988877
0.0985731
0.0981788
0.097712
0.0971645
0.0990386
0.0989201
0.0986898
0.0983677
0.0979869
0.0975834
0.0971876
0.0968191
0.0964871
0.0961945
0.0959417
0.0957286
0.095556
0.0954241
0.0953317
0.0952769
0.0952578
0.095272
0.0953167
0.0953896
0.0954892
0.0956135
0.0957588
0.095922
0.0961019
0.0962972
0.0965047
0.0967209
0.0969434
0.0971711
0.0974013
0.0976298
0.0978523
0.0980655
0.0982664
0.0984513
0.0986156
0.0987547
0.0988644
0.0989399
0.098976
0.0989674
0.0989087
0.0987951
0.098622
0.0983853
0.0980822
0.0977129
0.097268
0.0967572
0.0986682
0.0985619
0.0983547
0.0980641
0.0977184
0.0973492
0.0969836
0.09664
0.096328
0.0960515
0.0958117
0.0956087
0.0954433
0.095316
0.0952257
0.0951709