/*--------------------------------*- C++ -*----------------------------------*\
  =========                 |
  \\      /  F ield         | OpenFOAM: The Open Source CFD Toolbox
   \\    /   O peration     | Website:  https://openfoam.org
    \\  /    A nd           | Version:  7
     \\/     M anipulation  |
\*---------------------------------------------------------------------------*/
FoamFile
{
    version     2.0;
    format      ascii;
    class       volVectorField;
    location    "0.01";
    object      U;
}
// * * * * * * * * * * * * * * * * * * * * * * * * * * * * * * * * * * * * * //

dimensions      [0 1 -1 0 0 0 0];

internalField   nonuniform List<vector> 
70000
(
(0.553388 0.0167232 0)
(0.251247 0.00340118 0)
(0.166178 0.000322104 0)
(0.132431 5.43104e-05 0)
(0.117254 4.56576e-05 0)
(0.10736 5.37148e-05 0)
(0.0994655 4.59491e-05 0)
(0.093107 3.64465e-05 0)
(0.0879786 2.99353e-05 0)
(0.0837671 2.53831e-05 0)
(0.0802516 2.18285e-05 0)
(0.0772916 1.89026e-05 0)
(0.0747932 1.64494e-05 0)
(0.0726892 1.43635e-05 0)
(0.0709303 1.25443e-05 0)
(0.0694793 1.08848e-05 0)
(0.0683061 9.27366e-06 0)
(0.0673835 7.62505e-06 0)
(0.0666812 5.94543e-06 0)
(0.0661615 4.37497e-06 0)
(0.0657803 3.12609e-06 0)
(0.0654925 2.34225e-06 0)
(0.0652601 2.00686e-06 0)
(0.065058 1.96848e-06 0)
(0.0648735 2.05296e-06 0)
(0.064702 2.14794e-06 0)
(0.064542 2.22934e-06 0)
(0.0643921 2.31672e-06 0)
(0.0642498 2.4452e-06 0)
(0.0641122 2.63699e-06 0)
(0.063976 2.89415e-06 0)
(0.0638378 3.22323e-06 0)
(0.0636955 3.59895e-06 0)
(0.0635445 4.07862e-06 0)
(0.0633829 4.59166e-06 0)
(0.0632006 5.3695e-06 0)
(0.0629976 6.12655e-06 0)
(0.0627502 7.5472e-06 0)
(0.0624661 8.67716e-06 0)
(0.0620981 1.1274e-05 0)
(0.061667 1.28903e-05 0)
(0.0611027 1.71917e-05 0)
(0.0603991 2.00322e-05 0)
(0.059569 2.55358e-05 0)
(0.0582838 3.38204e-05 0)
(0.05726 3.48323e-05 0)
(0.0544722 6.53666e-05 0)
(0.054157 3.69249e-05 0)
(0.0463204 0.000134168 0)
(0.0522017 -0.000824811 0)
(0.884897 0.0431682 0)
(0.649694 0.0201952 0)
(0.49428 0.00659874 0)
(0.40363 0.00276665 0)
(0.354746 0.00154913 0)
(0.323532 0.00112615 0)
(0.299826 0.000901589 0)
(0.280864 0.000733443 0)
(0.265486 0.00060535 0)
(0.252824 0.000508236 0)
(0.242251 0.000431766 0)
(0.233351 0.000368712 0)
(0.225844 0.000314796 0)
(0.219535 0.000267378 0)
(0.214279 0.000224709 0)
(0.209967 0.000185692 0)
(0.206507 0.000149851 0)
(0.203804 0.000117399 0)
(0.201751 8.92168e-05 0)
(0.200224 6.65106e-05 0)
(0.199085 5.00682e-05 0)
(0.19821 3.95857e-05 0)
(0.197499 3.36486e-05 0)
(0.196891 3.03852e-05 0)
(0.196354 2.82722e-05 0)
(0.195874 2.65041e-05 0)
(0.195445 2.49024e-05 0)
(0.195059 2.35781e-05 0)
(0.194711 2.26857e-05 0)
(0.194392 2.23035e-05 0)
(0.194095 2.24365e-05 0)
(0.193811 2.30787e-05 0)
(0.193536 2.42491e-05 0)
(0.193257 2.61485e-05 0)
(0.192972 2.88833e-05 0)
(0.192657 3.31552e-05 0)
(0.192315 3.87625e-05 0)
(0.19189 4.76154e-05 0)
(0.19141 5.78358e-05 0)
(0.190762 7.48982e-05 0)
(0.190007 9.15297e-05 0)
(0.188979 0.000123233 0)
(0.187668 0.000148665 0)
(0.186134 0.000207827 0)
(0.183519 0.000246519 0)
(0.181742 0.000360558 0)
(0.17556 0.000414349 0)
(0.175766 0.000669914 0)
(0.158026 0.000687808 0)
(0.171448 2.76726e-05 0)
(0.991237 0.049903 0)
(0.890328 0.0307214 0)
(0.76264 0.0145989 0)
(0.656633 0.00797723 0)
(0.58536 0.00487711 0)
(0.536078 0.00345608 0)
(0.498427 0.00271094 0)
(0.468145 0.0022063 0)
(0.44332 0.00182772 0)
(0.42269 0.00153714 0)
(0.405349 0.0013068 0)
(0.390673 0.00111651 0)
(0.378232 0.000953334 0)
(0.367725 0.000809151 0)
(0.358931 0.000678789 0)
(0.35168 0.000559369 0)
(0.345825 0.000450146 0)
(0.341213 0.000352415 0)
(0.337667 0.000268987 0)
(0.334982 0.000202804 0)
(0.332941 0.000155013 0)
(0.331349 0.00012374 0)
(0.330054 0.000104597 0)
(0.328959 9.25491e-05 0)
(0.32801 8.3761e-05 0)
(0.327179 7.62465e-05 0)
(0.326452 6.94981e-05 0)
(0.325815 6.36628e-05 0)
(0.325255 5.90017e-05 0)
(0.324759 5.56219e-05 0)
(0.324317 5.35307e-05 0)
(0.323914 5.26826e-05 0)
(0.323542 5.32058e-05 0)
(0.323183 5.54002e-05 0)
(0.322835 5.97431e-05 0)
(0.322462 6.72879e-05 0)
(0.322074 7.83362e-05 0)
(0.321597 9.58686e-05 0)
(0.321077 0.000117633 0)
(0.32036 0.000153318 0)
(0.319543 0.000190095 0)
(0.318403 0.000260444 0)
(0.316931 0.000315628 0)
(0.315232 0.000458993 0)
(0.312114 0.000529552 0)
(0.310247 0.000840111 0)
(0.302538 0.000886668 0)
(0.303222 0.00163429 0)
(0.281513 0.0015105 0)
(0.296116 0.00223936 0)
(1.0156 0.0489225 0)
(1.00594 0.0358791 0)
(0.935909 0.0207941 0)
(0.852072 0.013501 0)
(0.782174 0.00919505 0)
(0.727096 0.00675516 0)
(0.682243 0.00533953 0)
(0.644859 0.00437719 0)
(0.613399 0.0036541 0)
(0.58672 0.00309176 0)
(0.563942 0.00264098 0)
(0.544416 0.00226595 0)
(0.527675 0.00194267 0)
(0.51338 0.00165549 0)
(0.501283 0.00139448 0)
(0.491186 0.00115436 0)
(0.482916 0.000934237 0)
(0.476288 0.000737245 0)
(0.471083 0.000569132 0)
(0.467047 0.000435315 0)
(0.463909 0.000337365 0)
(0.461422 0.000271179 0)
(0.459389 0.000228326 0)
(0.457679 0.000199506 0)
(0.456213 0.000177692 0)
(0.454944 0.00015913 0)
(0.453842 0.000142639 0)
(0.452886 0.000128217 0)
(0.452055 0.000116143 0)
(0.45133 0.000106511 0)
(0.450695 9.93445e-05 0)
(0.450133 9.45396e-05 0)
(0.449629 9.23937e-05 0)
(0.449159 9.3177e-05 0)
(0.448718 9.78514e-05 0)
(0.448264 0.000107491 0)
(0.447809 0.000123227 0)
(0.44727 0.000148537 0)
(0.446706 0.000181605 0)
(0.445947 0.000235653 0)
(0.445115 0.00029304 0)
(0.443955 0.000404674 0)
(0.442487 0.000489912 0)
(0.440795 0.000729944 0)
(0.437662 0.000827997 0)
(0.435791 0.00137171 0)
(0.428077 0.00140044 0)
(0.428298 0.00269339 0)
(0.407747 0.00254416 0)
(0.417724 0.00447993 0)
(1.01434 0.0460064 0)
(1.04752 0.0374941 0)
(1.02454 0.0241557 0)
(0.974699 0.0175557 0)
(0.923404 0.0131055 0)
(0.87672 0.0101696 0)
(0.834753 0.00827904 0)
(0.797349 0.00692253 0)
(0.764323 0.00586728 0)
(0.735292 0.00502269 0)
(0.709804 0.00433047 0)
(0.687457 0.00374529 0)
(0.667924 0.00323472 0)
(0.650951 0.00277668 0)
(0.636337 0.00235683 0)
(0.623919 0.00196774 0)
(0.613542 0.00160878 0)
(0.605034 0.00128561 0)
(0.598179 0.0010078 0)
(0.592713 0.000784037 0)
(0.588354 0.000616825 0)
(0.584832 0.000499918 0)
(0.581927 0.000420576 0)
(0.579482 0.000364764 0)
(0.577392 0.000321725 0)
(0.575589 0.000285439 0)
(0.574028 0.000253632 0)
(0.572672 0.00022583 0)
(0.571491 0.000202108 0)
(0.570461 0.000182417 0)
(0.56956 0.000166782 0)
(0.568767 0.000155068 0)
(0.568064 0.00014785 0)
(0.56742 0.000145352 0)
(0.566824 0.000149064 0)
(0.566227 0.000159826 0)
(0.565637 0.000179577 0)
(0.564966 0.000211759 0)
(0.564278 0.00025523 0)
(0.563399 0.000326046 0)
(0.562472 0.000402422 0)
(0.561224 0.00055284 0)
(0.559737 0.000666548 0)
(0.557984 0.000998439 0)
(0.55504 0.00112961 0)
(0.552961 0.00188406 0)
(0.546145 0.00194922 0)
(0.545082 0.00365772 0)
(0.528341 0.00377796 0)
(0.531842 0.00636298 0)
(1.00933 0.0429182 0)
(1.05526 0.0372706 0)
(1.05865 0.0253016 0)
(1.03631 0.0197561 0)
(1.00703 0.0157923 0)
(0.976028 0.0128916 0)
(0.944634 0.0108802 0)
(0.914028 0.00935087 0)
(0.885112 0.00809913 0)
(0.858326 0.00705339 0)
(0.833813 0.00616659 0)
(0.811583 0.00539676 0)
(0.791592 0.00471095 0)
(0.773777 0.00408532 0)
(0.758075 0.00350396 0)
(0.744417 0.0029589 0)
(0.732723 0.00245082 0)
(0.722878 0.00198869 0)
(0.714714 0.00158665 0)
(0.708012 0.00125754 0)
(0.702516 0.00100569 0)
(0.697978 0.000823553 0)
(0.69418 0.000694707 0)
(0.690959 0.000600704 0)
(0.688198 0.0005271 0)
(0.685813 0.000465455 0)
(0.683742 0.000412132 0)
(0.681935 0.000365854 0)
(0.68035 0.000326141 0)
(0.678954 0.000292499 0)
(0.677723 0.000264787 0)
(0.676633 0.000242833 0)
(0.675665 0.000227646 0)
(0.674787 0.000219631 0)
(0.673979 0.000220999 0)
(0.673185 0.000232353 0)
(0.672404 0.000256343 0)
(0.671539 0.000295889 0)
(0.670648 0.000350379 0)
(0.669559 0.000437519 0)
(0.668428 0.000532606 0)
(0.666967 0.00071756 0)
(0.665349 0.000860368 0)
(0.663384 0.00126857 0)
(0.660595 0.00144745 0)
(0.658125 0.00235915 0)
(0.652376 0.00253548 0)
(0.64991 0.00448939 0)
(0.63714 0.00509398 0)
(0.635596 0.00795697 0)
(1.00625 0.0400371 0)
(1.05205 0.0363442 0)
(1.06606 0.0252323 0)
(1.05954 0.0205572 0)
(1.04679 0.0172186 0)
(1.03072 0.0146071 0)
(1.01189 0.0127288 0)
(0.991369 0.0112462 0)
(0.970263 0.00997385 0)
(0.949357 0.00886091 0)
(0.929157 0.0078788 0)
(0.909996 0.006997 0)
(0.892096 0.00618887 0)
(0.875607 0.0054341 0)
(0.86063 0.00471899 0)
(0.847223 0.00403757 0)
(0.83541 0.00339329 0)
(0.825166 0.00279926 0)
(0.816408 0.00227482 0)
(0.808994 0.00183771 0)
(0.802739 0.00149514 0)
(0.797445 0.00123956 0)
(0.792929 0.00105207 0)
(0.789047 0.000910778 0)
(0.785688 0.000798215 0)
(0.78277 0.00070392 0)
(0.780223 0.000623089 0)
(0.777986 0.000553617 0)
(0.776006 0.000494214 0)
(0.774241 0.000443507 0)
(0.77266 0.000400736 0)
(0.771242 0.000365433 0)
(0.769972 0.000339075 0)
(0.768822 0.000322618 0)
(0.767772 0.000319471 0)
(0.766759 0.000330487 0)
(0.76577 0.000359227 0)
(0.764697 0.000407909 0)
(0.763579 0.000476144 0)
(0.762243 0.000581786 0)
(0.76084 0.00069839 0)
(0.759086 0.000915449 0)
(0.757212 0.00109088 0)
(0.754923 0.00155857 0)
(0.752111 0.00179973 0)
(0.749196 0.00281504 0)
(0.744207 0.00315584 0)
(0.740674 0.00522764 0)
(0.730888 0.00638468 0)
(0.726457 0.00935664 0)
(1.00495 0.0373595 0)
(1.04726 0.0352631 0)
(1.06394 0.0246939 0)
(1.0642 0.0205852 0)
(1.0606 0.0177574 0)
(1.05465 0.0154485 0)
(1.04591 0.0137803 0)
(1.0348 0.0124551 0)
(1.02206 0.0112823 0)
(1.00835 0.0102168 0)
(0.994172 0.00924118 0)
(0.97995 0.00833455 0)
(0.966017 0.0074772 0)
(0.952641 0.00665413 0)
(0.940032 0.00585581 0)
(0.928351 0.0050799 0)
(0.917709 0.00433361 0)
(0.908171 0.00363451 0)
(0.899745 0.00300724 0)
(0.892382 0.0024748 0)
(0.885983 0.00204822 0)
(0.880421 0.00172126 0)
(0.87557 0.00147399 0)
(0.871321 0.00128224 0)
(0.867591 0.0011264 0)
(0.864313 0.000994749 0)
(0.861428 0.000882048 0)
(0.858877 0.000785947 0)
(0.856599 0.000704568 0)
(0.854541 0.000635396 0)
(0.852668 0.000576413 0)
(0.850954 0.000526166 0)
(0.849395 0.000486178 0)
(0.847973 0.000458131 0)
(0.84668 0.000447205 0)
(0.845459 0.000455546 0)
(0.844284 0.000488353 0)
(0.843042 0.000547744 0)
(0.841738 0.000633385 0)
(0.840199 0.000762264 0)
(0.838537 0.000906366 0)
(0.836498 0.00115754 0)
(0.834309 0.00137176 0)
(0.831664 0.00188807 0)
(0.828655 0.00220167 0)
(0.825314 0.00328119 0)
(0.820684 0.00380976 0)
(0.81645 0.00592282 0)
(0.808585 0.0075959 0)
(0.802833 0.0106222 0)
(1.0044 0.0348119 0)
(1.04323 0.0341909 0)
(1.05991 0.0240545 0)
(1.06223 0.0202933 0)
(1.06241 0.017823 0)
(1.06169 0.0157303 0)
(1.05911 0.014233 0)
(1.05458 0.0130684 0)
(1.04844 0.0120303 0)
(1.04104 0.0110656 0)
(1.03269 0.0101587 0)
(1.0237 0.00929168 0)
(1.01436 0.00844804 0)
(1.00492 0.00761595 0)
(0.995618 0.00678925 0)
(0.986639 0.00596894 0)
(0.978136 0.00516554 0)
(0.970222 0.00440032 0)
(0.962975 0.00370233 0)
(0.956423 0.00309942 0)
(0.950551 0.00260688 0)
(0.945305 0.00222098 0)
(0.940615 0.00192207 0)
(0.936412 0.00168469 0)
(0.932648 0.00148775 0)
(0.929286 0.00131886 0)
(0.926293 0.0011732 0)
(0.923623 0.00104926 0)
(0.92122 0.000945517 0)
(0.919025 0.000858653 0)
(0.916989 0.000784947 0)
(0.915085 0.000720987 0)
(0.913312 0.000667281 0)
(0.91167 0.000625777 0)
(0.910169 0.000603613 0)
(0.908775 0.00060546 0)
(0.907461 0.00063935 0)
(0.906117 0.000708975 0)
(0.904713 0.000814423 0)
(0.903072 0.000971978 0)
(0.901248 0.0011514 0)
(0.899018 0.00144329 0)
(0.896556 0.00170541 0)
(0.893612 0.00226761 0)
(0.890329 0.00266164 0)
(0.886618 0.00378151 0)
(0.882061 0.00450051 0)
(0.877374 0.00661397 0)
(0.870645 0.00871461 0)
(0.86445 0.0117919 0)
(1.00402 0.0323723 0)
(1.0399 0.0331419 0)
(1.05613 0.023433 0)
(1.05887 0.019907 0)
(1.06014 0.0176947 0)
(1.06146 0.0157363 0)
(1.06181 0.014339 0)
(1.0609 0.0132868 0)
(1.05886 0.0123604 0)
(1.0558 0.0114946 0)
(1.05184 0.0106707 0)
(1.04713 0.00986944 0)
(1.04183 0.00907341 0)
(1.03612 0.00827091 0)
(1.03016 0.00745698 0)
(1.02412 0.0066344 0)
(1.01813 0.00581552 0)
(1.0123 0.00502352 0)
(1.00673 0.00428994 0)
(1.00151 0.00364608 0)
(0.996671 0.00311125 0)
(0.992223 0.002685 0)
(0.988139 0.00234913 0)
(0.984386 0.00207769 0)
(0.980941 0.00184824 0)
(0.977798 0.00164773 0)
(0.974954 0.00147216 0)
(0.972392 0.00132195 0)
(0.970069 0.00119738 0)
(0.967926 0.00109546 0)
(0.965904 0.00101094 0)
(0.963965 0.000937659 0)
(0.962105 0.000873589 0)
(0.960341 0.000819691 0)
(0.958704 0.000784395 0)
(0.957193 0.000775689 0)
(0.955796 0.000805677 0)
(0.954422 0.000882112 0)
(0.953011 0.00100668 0)
(0.95139 0.00119647 0)
(0.94954 0.00141858 0)
(0.947267 0.00176011 0)
(0.944658 0.00208187 0)
(0.941538 0.00269435 0)
(0.938025 0.0031778 0)
(0.934036 0.00432779 0)
(0.929425 0.00522917 0)
(0.924447 0.00732714 0)
(0.918355 0.00975049 0)
(0.912147 0.0128919 0)
(1.00364 0.0300323 0)
(1.03691 0.0320955 0)
(1.05279 0.0228449 0)
(1.05563 0.0195038 0)
(1.05704 0.0175048 0)
(1.05891 0.0156384 0)
(1.06033 0.0142882 0)
(1.06099 0.013298 0)
(1.06098 0.0124431 0)
(1.06034 0.0116483 0)
(1.05906 0.0108915 0)
(1.05719 0.0101515 0)
(1.05478 0.0094085 0)
(1.05191 0.00864912 0)
(1.04868 0.0078679 0)
(1.04517 0.00706796 0)
(1.04147 0.00626197 0)
(1.03767 0.00547304 0)
(1.03385 0.00473291 0)
(1.03011 0.00407432 0)
(1.02651 0.00351962 0)
(1.0231 0.00307192 0)
(1.01989 0.00271539 0)
(1.01685 0.00242424 0)
(1.01398 0.00217455 0)
(1.01129 0.00195198 0)
(1.00881 0.00175301 0)
(1.00654 0.00158056 0)
(1.00447 0.00143814 0)
(1.00255 0.00132478 0)
(1.00071 0.00123466 0)
(0.998896 0.0011586 0)
(0.997095 0.00109062 0)
(0.99533 0.00102887 0)
(0.993652 0.000981498 0)
(0.992095 0.000959691 0)
(0.990673 0.000980368 0)
(0.989327 0.00105786 0)
(0.987985 0.00119739 0)
(0.986484 0.00141933 0)
(0.984738 0.00168882 0)
(0.982568 0.00208819 0)
(0.979975 0.00248206 0)
(0.976833 0.00315381 0)
(0.973217 0.00373737 0)
(0.969077 0.00491853 0)
(0.964412 0.00599033 0)
(0.959281 0.00807409 0)
(0.953546 0.0107219 0)
(0.947519 0.0139388 0)
(1.00327 0.027793 0)
(1.03408 0.031038 0)
(1.04967 0.0222834 0)
(1.05267 0.0190987 0)
(1.05404 0.0172962 0)
(1.05596 0.0155116 0)
(1.05765 0.0141834 0)
(1.05884 0.0132232 0)
(1.05962 0.0124083 0)
(1.06005 0.0116557 0)
(1.06012 0.0109421 0)
(1.0598 0.0102458 0)
(1.0591 0.00954521 0)
(1.05803 0.00882499 0)
(1.05663 0.00807884 0)
(1.05493 0.00730964 0)
(1.05297 0.00652958 0)
(1.05078 0.0057604 0)
(1.04843 0.00503205 0)
(1.046 0.00437674 0)
(1.04357 0.00381855 0)
(1.04118 0.003364 0)
(1.03887 0.00300029 0)
(1.03662 0.00270235 0)
(1.03441 0.00244463 0)
(1.03229 0.00221057 0)
(1.03027 0.00199621 0)
(1.02841 0.00180683 0)
(1.0267 0.00165017 0)
(1.0251 0.00152895 0)
(1.02355 0.00143828 0)
(1.02197 0.00136645 0)
(1.02035 0.00130251 0)
(1.01869 0.00123999 0)
(1.01707 0.0011846 0)
(1.01553 0.00114967 0)
(1.01414 0.00115689 0)
(1.01286 0.00122901 0)
(1.01164 0.00137699 0)
(1.01031 0.00162724 0)
(1.00876 0.00194502 0)
(1.0068 0.00240742 0)
(1.00436 0.00288411 0)
(1.00134 0.0036257 0)
(0.99777 0.00432035 0)
(0.993625 0.00554173 0)
(0.988979 0.00677177 0)
(0.98383 0.00885329 0)
(0.978333 0.0116454 0)
(0.972566 0.0149426 0)
(1.00292 0.0256578 0)
(1.03137 0.0299648 0)
(1.04667 0.021744 0)
(1.04987 0.0186916 0)
(1.05122 0.0170757 0)
(1.05311 0.0153778 0)
(1.05483 0.0140652 0)
(1.05612 0.0131207 0)
(1.05714 0.0123289 0)
(1.05795 0.0116001 0)
(1.05855 0.0109113 0)
(1.05893 0.0102419 0)
(1.05906 0.00956961 0)
(1.05895 0.00887806 0)
(1.05858 0.00816044 0)
(1.05798 0.00741966 0)
(1.05712 0.00666743 0)
(1.05602 0.00592356 0)
(1.05471 0.00521513 0)
(1.05325 0.0045723 0)
(1.05171 0.00401971 0)
(1.05016 0.00356692 0)
(1.0486 0.00320453 0)
(1.04704 0.00290876 0)
(1.04545 0.00265235 0)
(1.04387 0.00241575 0)
(1.04232 0.00219339 0)
(1.04087 0.00199227 0)
(1.03953 0.00182471 0)
(1.03827 0.00169845 0)
(1.03704 0.00161111 0)
(1.03575 0.00154937 0)
(1.03436 0.001497 0)
(1.03288 0.00144144 0)
(1.03137 0.00138386 0)
(1.02993 0.0013381 0)
(1.0286 0.00132982 0)
(1.02742 0.00139107 0)
(1.02632 0.00154046 0)
(1.02518 0.00181277 0)
(1.02385 0.00217633 0)
(1.02215 0.00270307 0)
(1.01995 0.00326967 0)
(1.01716 0.0040905 0)
(1.01375 0.00490543 0)
(1.00974 0.00618016 0)
(1.00521 0.00755728 0)
(1.00017 0.00965351 0)
(0.994886 0.0125314 0)
(0.989421 0.0159073 0)
(1.0026 0.0236292 0)
(1.02878 0.0288747 0)
(1.04375 0.0212257 0)
(1.04718 0.0182825 0)
(1.04854 0.0168419 0)
(1.05038 0.0152396 0)
(1.05209 0.0139446 0)
(1.0534 0.0130113 0)
(1.05445 0.012236 0)
(1.05535 0.0115229 0)
(1.05612 0.0108489 0)
(1.05674 0.0101957 0)
(1.0572 0.00954124 0)
(1.0575 0.00886889 0)
(1.05763 0.00817188 0)
(1.05758 0.00745371 0)
(1.05732 0.006726 0)
(1.05684 0.00600671 0)
(1.05615 0.00531961 0)
(1.05531 0.00469204 0)
(1.05436 0.0041484 0)
(1.05338 0.00370091 0)
(1.05237 0.00334373 0)
(1.05131 0.00305475 0)
(1.0502 0.00280519 0)
(1.04905 0.00257196 0)
(1.04789 0.00234699 0)
(1.04678 0.00213817 0)
(1.04576 0.00196228 0)
(1.04481 0.00183285 0)
(1.04385 0.00175119 0)
(1.04283 0.00170348 0)
(1.04167 0.00166837 0)
(1.04039 0.00162638 0)
(1.03904 0.00157249 0)
(1.0377 0.00151935 0)
(1.03647 0.00149551 0)
(1.03538 0.00154221 0)
(1.03441 0.00168702 0)
(1.03344 0.00197461 0)
(1.03231 0.00237938 0)
(1.03087 0.00296851 0)
(1.02893 0.00362787 0)
(1.0264 0.00453442 0)
(1.02324 0.00547519 0)
(1.01944 0.00681665 0)
(1.01512 0.00833054 0)
(1.01029 0.0104588 0)
(1.00526 0.0133841 0)
(1.00012 0.0168314 0)
(1.0023 0.0217091 0)
(1.02633 0.0277686 0)
(1.04092 0.0207268 0)
(1.04457 0.017873 0)
(1.04595 0.0165933 0)
(1.04776 0.0150956 0)
(1.04947 0.0138229 0)
(1.05077 0.0128998 0)
(1.0518 0.0121395 0)
(1.0527 0.0114396 0)
(1.0535 0.0107767 0)
(1.05418 0.0101347 0)
(1.05475 0.00949251 0)
(1.05519 0.00883354 0)
(1.05551 0.00815152 0)
(1.05568 0.00745091 0)
(1.05569 0.00674363 0)
(1.05552 0.00604609 0)
(1.05516 0.00537879 0)
(1.05465 0.00476602 0)
(1.05405 0.00423152 0)
(1.0534 0.00378989 0)
(1.05272 0.00343883 0)
(1.05199 0.00315813 0)
(1.05119 0.00291767 0)
(1.05033 0.00269074 0)
(1.04945 0.00246625 0)
(1.0486 0.00225235 0)
(1.04782 0.0020699 0)
(1.04708 0.00193839 0)
(1.04634 0.00186357 0)
(1.04552 0.0018319 0)
(1.04456 0.00181739 0)
(1.04345 0.00179339 0)
(1.04224 0.00174772 0)
(1.04103 0.00169058 0)
(1.0399 0.00165236 0)
(1.0389 0.00168277 0)
(1.03802 0.00181903 0)
(1.03719 0.00211613 0)
(1.03623 0.0025571 0)
(1.03498 0.00320476 0)
(1.03329 0.00395609 0)
(1.03102 0.00495141 0)
(1.02812 0.00601903 0)
(1.02458 0.00743796 0)
(1.02052 0.00907819 0)
(1.01598 0.0112527 0)
(1.01124 0.0142026 0)
(1.00646 0.0177101 0)
(1.00203 0.0198983 0)
(1.024 0.0266494 0)
(1.03818 0.0202443 0)
(1.04205 0.0174649 0)
(1.04345 0.0163303 0)
(1.04523 0.0149443 0)
(1.04694 0.0136993 0)
(1.04823 0.0127867 0)
(1.04925 0.0120413 0)
(1.05014 0.0113547 0)
(1.05092 0.010702 0)
(1.0516 0.0100696 0)
(1.05218 0.00943752 0)
(1.05266 0.00878929 0)
(1.05303 0.00811937 0)
(1.05328 0.00743335 0)
(1.05339 0.00674362 0)
(1.05334 0.00606523 0)
(1.05312 0.00541568 0)
(1.05277 0.00481632 0)
(1.05234 0.00429016 0)
(1.05187 0.00385391 0)
(1.05136 0.00350863 0)
(1.05081 0.00323603 0)
(1.05019 0.00300486 0)
(1.04952 0.00278499 0)
(1.04881 0.00256223 0)
(1.04813 0.0023447 0)
(1.04749 0.00215691 0)
(1.0469 0.00202411 0)
(1.0463 0.00195661 0)
(1.04561 0.00194163 0)
(1.04478 0.00194896 0)
(1.04381 0.00194497 0)
(1.04273 0.00191015 0)
(1.04162 0.00185148 0)
(1.04058 0.00180054 0)
(1.03967 0.00181456 0)
(1.03887 0.00194052 0)
(1.03811 0.00224331 0)
(1.03727 0.00271619 0)
(1.03617 0.00341792 0)
(1.03465 0.00425787 0)
(1.0326 0.00534213 0)
(1.02995 0.00653367 0)
(1.02669 0.00803705 0)
(1.02292 0.00979244 0)
(1.01871 0.0120221 0)
(1.0143 0.0149839 0)
(1.0099 0.0185381 0)
(1.00179 0.018197 0)
(1.02182 0.0255212 0)
(1.03555 0.0197742 0)
(1.03961 0.01706 0)
(1.04104 0.0160534 0)
(1.04279 0.014785 0)
(1.04449 0.0135735 0)
(1.04579 0.0126717 0)
(1.0468 0.0119414 0)
(1.04766 0.0112686 0)
(1.04843 0.0106267 0)
(1.0491 0.0100037 0)
(1.04966 0.00938107 0)
(1.05014 0.00874277 0)
(1.05051 0.00808392 0)
(1.05077 0.00741123 0)
(1.05091 0.00673754 0)
(1.0509 0.00607665 0)
(1.05074 0.00544329 0)
(1.05046 0.00485616 0)
(1.0501 0.00433765 0)
(1.04971 0.00390637 0)
(1.04928 0.00356641 0)
(1.04881 0.00330124 0)
(1.04829 0.00307858 0)
(1.04771 0.00286528 0)
(1.04711 0.0026444 0)
(1.04653 0.00242398 0)
(1.04598 0.00223189 0)
(1.04547 0.00209865 0)
(1.04494 0.00203879 0)
(1.04432 0.00204031 0)
(1.04358 0.00206919 0)
(1.0427 0.00208526 0)
(1.04171 0.00206202 0)
(1.0407 0.00200316 0)
(1.03974 0.00194118 0)
(1.03889 0.00193992 0)
(1.03815 0.00205582 0)
(1.03744 0.00236264 0)
(1.03665 0.00286455 0)
(1.03564 0.00361616 0)
(1.03425 0.00453949 0)
(1.03237 0.00570978 0)
(1.02994 0.00701831 0)
(1.02694 0.00860897 0)
(1.02346 0.0104683 0)
(1.01959 0.0127573 0)
(1.01554 0.0157244 0)
(1.01153 0.0193105 0)
(1.00157 0.0166049 0)
(1.01977 0.0243877 0)
(1.03301 0.0193125 0)
(1.03726 0.0166602 0)
(1.03873 0.015764 0)
(1.04044 0.0146168 0)
(1.04213 0.0134452 0)
(1.04343 0.0125548 0)
(1.04443 0.0118395 0)
(1.04528 0.0111814 0)
(1.04603 0.0105507 0)
(1.04668 0.00993746 0)
(1.04723 0.00932439 0)
(1.04769 0.00869597 0)
(1.04806 0.00804808 0)
(1.04831 0.00738844 0)
(1.04845 0.00673017 0)
(1.04844 0.00608583 0)
(1.0483 0.00546765 0)
(1.04805 0.00489204 0)
(1.04773 0.00438092 0)
(1.04737 0.00395464 0)
(1.04697 0.00361987 0)
(1.04654 0.00336152 0)
(1.04606 0.00314638 0)
(1.04553 0.00293868 0)
(1.04499 0.00271927 0)
(1.04446 0.00249642 0)
(1.04396 0.00230109 0)
(1.04349 0.00216848 0)
(1.04299 0.00211671 0)
(1.04241 0.00213424 0)
(1.04171 0.00218346 0)
(1.04089 0.00221828 0)
(1.03998 0.00220596 0)
(1.03904 0.00214726 0)
(1.03815 0.00207574 0)
(1.03736 0.00206107 0)
(1.03665 0.00216867 0)
(1.03596 0.00247982 0)
(1.0352 0.00300936 0)
(1.03423 0.00380765 0)
(1.03292 0.00480862 0)
(1.03116 0.00606063 0)
(1.02891 0.00747656 0)
(1.02615 0.0091523 0)
(1.02296 0.0111025 0)
(1.01943 0.01345 0)
(1.01575 0.0164192 0)
(1.01213 0.0200228 0)
(1.00137 0.0151211 0)
(1.01786 0.0232531 0)
(1.03058 0.0188554 0)
(1.03499 0.0162669 0)
(1.03651 0.0154635 0)
(1.03818 0.0144393 0)
(1.03985 0.0133139 0)
(1.04116 0.0124361 0)
(1.04215 0.0117356 0)
(1.04299 0.0110929 0)
(1.04372 0.0104742 0)
(1.04436 0.00987098 0)
(1.0449 0.00926765 0)
(1.04534 0.00864932 0)
(1.04569 0.00801262 0)
(1.04594 0.00736613 0)
(1.04606 0.00672308 0)
(1.04605 0.00609477 0)
(1.04592 0.00549113 0)
(1.04568 0.00492667 0)
(1.04538 0.00442304 0)
(1.04503 0.00400213 0)
(1.04464 0.00367275 0)
(1.04422 0.00342082 0)
(1.04376 0.00321221 0)
(1.04326 0.00300903 0)
(1.04275 0.00279057 0)
(1.04226 0.00256569 0)
(1.04179 0.00236831 0)
(1.04133 0.00223762 0)
(1.04084 0.00219454 0)
(1.04027 0.00222751 0)
(1.03959 0.00229543 0)
(1.03881 0.00234692 0)
(1.03796 0.00234401 0)
(1.03709 0.00228519 0)
(1.03626 0.00220548 0)
(1.03551 0.00217975 0)
(1.03482 0.00228178 0)
(1.03414 0.00259891 0)
(1.03338 0.00315584 0)
(1.03242 0.0039985 0)
(1.03115 0.0050714 0)
(1.02949 0.00640012 0)
(1.02739 0.00791315 0)
(1.02485 0.00966944 0)
(1.02193 0.0116974 0)
(1.01874 0.0140974 0)
(1.01543 0.0170652 0)
(1.01221 0.0206719 0)
(1.00119 0.0137439 0)
(1.01609 0.0221215 0)
(1.02826 0.0183991 0)
(1.03282 0.0158812 0)
(1.03438 0.0151536 0)
(1.03601 0.0142518 0)
(1.03767 0.0131793 0)
(1.03897 0.0123155 0)
(1.03997 0.0116296 0)
(1.04079 0.0110029 0)
(1.04151 0.010397 0)
(1.04213 0.00980419 0)
(1.04265 0.00921082 0)
(1.04308 0.00860285 0)
(1.04342 0.00797767 0)
(1.04365 0.00734457 0)
(1.04377 0.0067167 0)
(1.04375 0.00610403 0)
(1.04362 0.00551448 0)
(1.0434 0.00496098 0)
(1.0431 0.00446513 0)
(1.04276 0.00405017 0)
(1.04238 0.00372655 0)
(1.04196 0.0034808 0)
(1.04151 0.00327787 0)
(1.04103 0.0030782 0)
(1.04054 0.00286018 0)
(1.04007 0.00263373 0)
(1.03962 0.00243558 0)
(1.03916 0.00230823 0)
(1.03867 0.00227455 0)
(1.0381 0.00232233 0)
(1.03744 0.00240709 0)
(1.03668 0.0024728 0)
(1.03588 0.00247737 0)
(1.03506 0.00241783 0)
(1.03429 0.00233119 0)
(1.03358 0.00229704 0)
(1.03291 0.00239675 0)
(1.03223 0.00272235 0)
(1.03145 0.00330716 0)
(1.03049 0.0041925 0)
(1.02925 0.00533152 0)
(1.02766 0.0067308 0)
(1.02569 0.00832939 0)
(1.02335 0.0101595 0)
(1.02069 0.0122533 0)
(1.01782 0.0146982 0)
(1.01487 0.0176607 0)
(1.01205 0.021256 0)
(1.00104 0.0124712 0)
(1.01445 0.020997 0)
(1.02605 0.0179402 0)
(1.03072 0.0155041 0)
(1.03235 0.0148363 0)
(1.03393 0.014054 0)
(1.03558 0.0130408 0)
(1.03688 0.0121932 0)
(1.03787 0.0115216 0)
(1.03868 0.0109114 0)
(1.03939 0.0103189 0)
(1.03999 0.00973703 0)
(1.0405 0.00915386 0)
(1.04092 0.00855654 0)
(1.04124 0.00794323 0)
(1.04146 0.00732378 0)
(1.04157 0.00671107 0)
(1.04155 0.00611374 0)
(1.04142 0.00553789 0)
(1.0412 0.00499526 0)
(1.04092 0.00450755 0)
(1.04058 0.00409916 0)
(1.0402 0.00378175 0)
(1.03978 0.00354202 0)
(1.03934 0.00334399 0)
(1.03887 0.00314692 0)
(1.03841 0.00292896 0)
(1.03795 0.00270147 0)
(1.03751 0.00250388 0)
(1.03706 0.00238133 0)
(1.03656 0.00235772 0)
(1.03598 0.00241966 0)
(1.03533 0.0025193 0)
(1.0346 0.00259668 0)
(1.03384 0.00260667 0)
(1.03308 0.00254574 0)
(1.03235 0.00245342 0)
(1.03167 0.00241359 0)
(1.03102 0.00251444 0)
(1.03033 0.0028514 0)
(1.02954 0.00346489 0)
(1.02857 0.00439157 0)
(1.02735 0.00559109 0)
(1.02582 0.0070547 0)
(1.02397 0.00872754 0)
(1.02182 0.0106223 0)
(1.01941 0.0127691 0)
(1.01685 0.0152493 0)
(1.01425 0.018202 0)
(1.01181 0.0217728 0)
(1.0009 0.0113 0)
(1.01294 0.0198842 0)
(1.02395 0.0174757 0)
(1.02872 0.0151359 0)
(1.03041 0.0145137 0)
(1.03195 0.0138457 0)
(1.03357 0.012898 0)
(1.03488 0.0120692 0)
(1.03586 0.0114117 0)
(1.03666 0.0108181 0)
(1.03735 0.0102399 0)
(1.03795 0.00966945 0)
(1.03844 0.00909676 0)
(1.03885 0.00851036 0)
(1.03916 0.00790927 0)
(1.03937 0.00730372 0)
(1.03947 0.00670616 0)
(1.03945 0.00612387 0)
(1.03932 0.00556139 0)
(1.03911 0.00502958 0)
(1.03883 0.00455039 0)
(1.03849 0.00414922 0)
(1.03812 0.00383842 0)
(1.0377 0.00360456 0)
(1.03726 0.00341073 0)
(1.03681 0.00321544 0)
(1.03636 0.00299726 0)
(1.03592 0.00276936 0)
(1.03549 0.00257367 0)
(1.03503 0.00245729 0)
(1.03453 0.00244438 0)
(1.03395 0.00251972 0)
(1.0333 0.00263226 0)
(1.0326 0.00271875 0)
(1.03188 0.00273213 0)
(1.03117 0.00266917 0)
(1.03049 0.00257244 0)
(1.02984 0.00252974 0)
(1.02919 0.0026352 0)
(1.0285 0.00298648 0)
(1.0277 0.00362948 0)
(1.02672 0.00459621 0)
(1.02552 0.00585077 0)
(1.02406 0.00737217 0)
(1.02232 0.00910821 0)
(1.02034 0.0110581 0)
(1.01816 0.0132457 0)
(1.0159 0.0157498 0)
(1.01365 0.0186866 0)
(1.01159 0.0222203 0)
(1.00078 0.0102269 0)
(1.01156 0.0187874 0)
(1.02196 0.0170028 0)
(1.0268 0.0147767 0)
(1.02856 0.0141879 0)
(1.03007 0.0136268 0)
(1.03165 0.01275 0)
(1.03296 0.0119434 0)
(1.03394 0.0112998 0)
(1.03473 0.0107232 0)
(1.03541 0.01016 0)
(1.03599 0.00960138 0)
(1.03648 0.00903946 0)
(1.03687 0.0084643 0)
(1.03717 0.00787576 0)
(1.03737 0.00728435 0)
(1.03746 0.00670192 0)
(1.03744 0.0061344 0)
(1.03731 0.00558498 0)
(1.0371 0.00506397 0)
(1.03683 0.00459371 0)
(1.0365 0.00420033 0)
(1.03613 0.00389652 0)
(1.03572 0.00366834 0)
(1.03528 0.00347804 0)
(1.03484 0.00328383 0)
(1.03441 0.00306526 0)
(1.03399 0.00283762 0)
(1.03356 0.00264516 0)
(1.0331 0.00253627 0)
(1.03259 0.00253452 0)
(1.03201 0.00262245 0)
(1.03137 0.00274587 0)
(1.03069 0.00283896 0)
(1.03001 0.00285379 0)
(1.02935 0.00278829 0)
(1.02871 0.00268844 0)
(1.02809 0.00264564 0)
(1.02746 0.00275906 0)
(1.02676 0.00312749 0)
(1.02595 0.0038007 0)
(1.02497 0.00480612 0)
(1.02379 0.00611032 0)
(1.02238 0.00768271 0)
(1.02076 0.00947127 0)
(1.01895 0.0114659 0)
(1.017 0.013683 0)
(1.01502 0.0161993 0)
(1.0131 0.0191126 0)
(1.0114 0.0225967 0)
(1.00067 0.00924763 0)
(1.0103 0.0177111 0)
(1.02009 0.0165193 0)
(1.02496 0.0144264 0)
(1.0268 0.0138609 0)
(1.02827 0.0133978 0)
(1.02983 0.0125964 0)
(1.03113 0.0118156 0)
(1.03211 0.011186 0)
(1.03289 0.0106264 0)
(1.03356 0.0100789 0)
(1.03413 0.00953276 0)
(1.0346 0.00898194 0)
(1.03499 0.00841831 0)
(1.03528 0.00784266 0)
(1.03547 0.00726562 0)
(1.03555 0.00669828 0)
(1.03552 0.00614527 0)
(1.0354 0.00560865 0)
(1.0352 0.00509845 0)
(1.03493 0.0046375 0)
(1.03461 0.00425248 0)
(1.03424 0.00395598 0)
(1.03383 0.00373328 0)
(1.0334 0.00354586 0)
(1.03297 0.00335209 0)
(1.03256 0.00313304 0)
(1.03215 0.00290639 0)
(1.03172 0.00271847 0)
(1.03126 0.00261826 0)
(1.03075 0.00262803 0)
(1.03017 0.00272761 0)
(1.02954 0.00285989 0)
(1.02889 0.00295716 0)
(1.02824 0.00297163 0)
(1.02762 0.00290318 0)
(1.02703 0.00280153 0)
(1.02644 0.00276137 0)
(1.02581 0.00288588 0)
(1.02512 0.0032741 0)
(1.0243 0.00397801 0)
(1.02332 0.00502051 0)
(1.02216 0.00636899 0)
(1.02082 0.00798537 0)
(1.01931 0.00981615 0)
(1.01767 0.011845 0)
(1.01594 0.0140803 0)
(1.01423 0.0165971 0)
(1.01262 0.0194785 0)
(1.01128 0.0229005 0)
(1.00058 0.00835773 0)
(1.00915 0.0166597 0)
(1.01833 0.0160236 0)
(1.02321 0.0140842 0)
(1.02513 0.0135346 0)
(1.02657 0.0131591 0)
(1.02809 0.0124365 0)
(1.02938 0.0116858 0)
(1.03037 0.0110705 0)
(1.03114 0.0105277 0)
(1.0318 0.00999649 0)
(1.03235 0.0094635 0)
(1.03282 0.00892415 0)
(1.03319 0.00837236 0)
(1.03347 0.00780993 0)
(1.03365 0.00724747 0)
(1.03372 0.00669519 0)
(1.03369 0.00615643 0)
(1.03358 0.00563236 0)
(1.03338 0.00513303 0)
(1.03312 0.00468179 0)
(1.0328 0.00430564 0)
(1.03244 0.00401671 0)
(1.03203 0.00379926 0)
(1.03161 0.00361409 0)
(1.0312 0.0034202 0)
(1.0308 0.00320068 0)
(1.0304 0.0029758 0)
(1.02998 0.00279367 0)
(1.02952 0.00270323 0)
(1.029 0.00272474 0)
(1.02842 0.00283495 0)
(1.0278 0.00297405 0)
(1.02718 0.00307316 0)
(1.02657 0.00308561 0)
(1.02599 0.00301391 0)
(1.02543 0.00291181 0)
(1.02487 0.00287692 0)
(1.02426 0.00301546 0)
(1.02356 0.00342581 0)
(1.02274 0.00416067 0)
(1.02177 0.0052384 0)
(1.02064 0.00662582 0)
(1.01937 0.00827903 0)
(1.01797 0.0101421 0)
(1.01649 0.0121944 0)
(1.01497 0.0144369 0)
(1.01352 0.0169426 0)
(1.01221 0.0197825 0)
(1.01121 0.0231305 0)
(1.0005 0.00755213 0)
(1.00812 0.0156372 0)
(1.01669 0.0155146 0)
(1.02154 0.0137494 0)
(1.02354 0.0132109 0)
(1.02495 0.0129116 0)
(1.02643 0.0122699 0)
(1.02772 0.0115536 0)
(1.02871 0.0109533 0)
(1.02947 0.0104271 0)
(1.03012 0.00991275 0)
(1.03066 0.00939351 0)
(1.03112 0.00886604 0)
(1.03148 0.00832642 0)
(1.03175 0.00777753 0)