/*--------------------------------*- C++ -*----------------------------------*\
  =========                 |
  \\      /  F ield         | OpenFOAM: The Open Source CFD Toolbox
   \\    /   O peration     | Website:  https://openfoam.org
    \\  /    A nd           | Version:  7
     \\/     M anipulation  |
\*---------------------------------------------------------------------------*/
FoamFile
{
    version     2.0;
    format      ascii;
    class       volVectorField;
    location    "0.01";
    object      wallShearStress;
}
// * * * * * * * * * * * * * * * * * * * * * * * * * * * * * * * * * * * * * //

dimensions      [0 2 -2 0 0 0 0];

internalField   uniform (0 0 0);

boundaryField
{
    velocityInlet
    {
        type            calculated;
        value           uniform (0 0 0);
    }
    pressureOutlet
    {
        type            calculated;
        value           uniform (0 0 0);
    }
    fixedWalls
    {
        type            calculated;
        value           nonuniform List<vector> 
100
(
(-0.00602655 -0.00779929 0)
(0.0150334 -0.000249915 0)
(-0.000227108 0.000252803 0)
(0.00757507 0.000194729 0)
(-0.00320398 0.00101078 0)
(-0.00895967 -9.36119e-05 0)
(-0.00562489 -0.000665435 0)
(-0.00255364 -1.1556e-05 0)
(-0.00382471 0.000177488 0)
(-0.00496762 0.000142021 0)
(-0.00541235 0.000136526 0)
(-0.00303983 -0.000239209 0)
(0.0034355 -0.000975158 0)
(0.0134099 -0.00177644 0)
(0.0228263 -0.00174079 0)
(0.0282478 -0.00107465 0)
(0.0286487 -0.000253588 0)
(0.023687 0.00071387 0)
(0.0121741 0.00227894 0)
(-0.0070703 0.00302832 0)
(-0.0265027 0.00154002 0)
(-0.0355463 -0.0007096 0)
(-0.0320912 -0.00240042 0)
(-0.0158807 -0.00216115 0)
(-0.00434698 -0.000569676 0)
(-0.000758928 -0.000309768 0)
(0.00243348 -0.000229562 0)
(-0.000725698 0.000496248 0)
(-0.00597081 0.00034955 0)
(-0.0068124 4.11805e-06 0)
(-0.00770886 0.000238199 0)
(-0.0105985 0.000382442 0)
(-0.012774 0.0004403 0)
(-0.0111907 -1.04592e-05 0)
(-0.00264905 -0.000988432 0)
(0.0092271 -0.00174412 0)
(0.02005 -0.00167479 0)
(0.0274836 -0.00117586 0)
(0.0314603 -0.000665021 0)
(0.0324235 -0.000227401 0)
(0.0309775 0.000112328 0)
(0.0278007 0.000345439 0)
(0.023554 0.000479045 0)
(0.0188237 0.000529253 0)
(0.0140674 0.000520224 0)
(0.0095966 0.000474357 0)
(0.00562278 0.000408004 0)
(0.00230719 0.000315126 0)
(-0.000351751 0.00025662 0)
(-0.00245865 0.000192222 0)
(-0.00405921 0.000139336 0)
(-0.00522714 9.71322e-05 0)
(-0.00604266 6.44985e-05 0)
(-0.0065797 4.00661e-05 0)
(-0.00690276 2.23884e-05 0)
(-0.00706562 9.99805e-06 0)
(-0.00711139 1.63424e-06 0)
(-0.00707388 -4.90788e-06 0)
(-0.0069785 -9.21358e-06 0)
(-0.00684382 -1.19568e-05 0)
(-0.00668336 -1.36068e-05 0)
(-0.00650694 -1.44905e-05 0)
(-0.00632173 -1.48385e-05 0)
(-0.0061333 -1.47969e-05 0)
(-0.00594595 -1.44675e-05 0)
(-0.00576322 -1.3917e-05 0)
(-0.0055879 -1.31983e-05 0)
(-0.00542221 -1.23529e-05 0)
(-0.00526772 -1.14208e-05 0)
(-0.00512538 -1.0441e-05 0)
(-0.00499559 -9.45638e-06 0)
(-0.00487815 -8.50731e-06 0)
(-0.00477245 -7.63067e-06 0)
(-0.00467751 -6.84812e-06 0)
(-0.00459226 -6.16609e-06 0)
(-0.0045157 -5.56304e-06 0)
(-0.0044471 -5.00663e-06 0)
(-0.00438608 -4.45585e-06 0)
(-0.00433248 -3.88723e-06 0)
(-0.00428617 -3.30425e-06 0)
(-0.0042466 -2.76203e-06 0)
(-0.00421256 -2.3423e-06 0)
(-0.00418221 -2.10719e-06 0)
(-0.00415367 -2.04849e-06 0)
(-0.00412571 -2.08502e-06 0)
(-0.00409823 -2.09275e-06 0)
(-0.0040722 -1.97386e-06 0)
(-0.00404899 -1.72107e-06 0)
(-0.00402958 -1.39859e-06 0)
(-0.00401425 -1.07591e-06 0)
(-0.00400339 -6.80327e-07 0)
(-0.0039973 -2.342e-07 0)
(-0.00399703 3.64538e-07 0)
(-0.00399988 6.39002e-07 0)
(-0.00400488 8.2209e-07 0)
(-0.00400269 -1.78561e-08 0)
(-0.00399763 -2.72809e-07 0)
(-0.00397882 -1.7259e-06 0)
(-0.00396494 -9.80146e-07 0)
(-0.00393877 -1.53079e-06 0)
)
;
    }
    bottomWall
    {
        type            calculated;
        value           nonuniform List<vector> 
800
(
(-0.0353493 0.0021439 0)
(-0.0160297 0.000524694 0)
(-0.0106148 0.000100543 0)
(-0.00846783 3.50766e-05 0)
(-0.00750398 1.96486e-05 0)
(-0.00687735 1.58705e-05 0)
(-0.00637841 1.30582e-05 0)
(-0.00597748 1.05458e-05 0)
(-0.00565496 8.65577e-06 0)
(-0.00539082 7.25853e-06 0)
(-0.00517091 6.16723e-06 0)
(-0.00498623 5.27085e-06 0)
(-0.00483079 4.50998e-06 0)
(-0.0047003 3.84795e-06 0)
(-0.00459161 3.25807e-06 0)
(-0.00450231 2.71925e-06 0)
(-0.0044305 2.21599e-06 0)
(-0.00437445 1.74258e-06 0)
(-0.00433223 1.30829e-06 0)
(-0.00430146 9.37498e-07 0)
(-0.00427934 6.57349e-07 0)
(-0.00426297 4.78471e-07 0)
(-0.00424995 3.86025e-07 0)
(-0.00423866 3.4806e-07 0)
(-0.00422831 3.32157e-07 0)
(-0.00421866 3.18079e-07 0)
(-0.0042097 2.99443e-07 0)
(-0.00420144 2.78665e-07 0)
(-0.00419381 2.60156e-07 0)
(-0.0041867 2.46383e-07 0)
(-0.00418003 2.36837e-07 0)
(-0.00417375 2.28262e-07 0)
(-0.00416787 2.16484e-07 0)
(-0.00416248 1.98387e-07 0)
(-0.00415765 1.73451e-07 0)
(-0.00415345 1.43778e-07 0)
(-0.00414988 1.1324e-07 0)
(-0.00414689 8.65288e-08 0)
(-0.00414437 6.76753e-08 0)
(-0.00414219 5.84781e-08 0)
(-0.00414021 5.81054e-08 0)
(-0.00413839 6.25387e-08 0)
(-0.00413668 6.73511e-08 0)
(-0.00413513 6.65601e-08 0)
(-0.00413382 5.92076e-08 0)
(-0.00413282 4.36782e-08 0)
(-0.00413214 2.52953e-08 0)
(-0.00413183 4.97614e-09 0)
(-0.00413182 -1.34619e-08 0)
(-0.00413208 -3.03717e-08 0)
(-0.00413251 -4.44054e-08 0)
(-0.00413297 -4.92451e-08 0)
(-0.00413348 -5.37131e-08 0)
(-0.00413403 -5.90634e-08 0)
(-0.00413463 -6.40179e-08 0)
(-0.00413529 -6.80569e-08 0)
(-0.00413599 -7.15673e-08 0)
(-0.00413673 -7.47778e-08 0)
(-0.00413751 -7.77322e-08 0)
(-0.00413832 -8.01872e-08 0)
(-0.00413916 -8.21087e-08 0)
(-0.00414002 -8.36076e-08 0)
(-0.00414089 -8.47679e-08 0)
(-0.00414178 -8.56007e-08 0)
(-0.00414268 -8.6328e-08 0)
(-0.00414359 -8.69685e-08 0)
(-0.00414452 -8.73966e-08 0)
(-0.00414545 -8.76347e-08 0)
(-0.00414639 -8.80274e-08 0)
(-0.00414734 -8.84252e-08 0)
(-0.0041483 -8.86631e-08 0)
(-0.00414926 -8.90778e-08 0)
(-0.00415024 -8.9504e-08 0)
(-0.00415122 -8.97725e-08 0)
(-0.00415221 -9.02136e-08 0)
(-0.00415321 -9.0659e-08 0)
(-0.00415422 -9.09371e-08 0)
(-0.00415524 -9.12184e-08 0)
(-0.00415626 -9.16654e-08 0)
(-0.00415729 -9.21141e-08 0)
(-0.00415833 -9.22321e-08 0)
(-0.00415937 -9.25216e-08 0)
(-0.00416043 -9.29798e-08 0)
(-0.00416149 -9.327e-08 0)
(-0.00416255 -9.3556e-08 0)
(-0.00416363 -9.38331e-08 0)
(-0.00416471 -9.40953e-08 0)
(-0.00416579 -9.41739e-08 0)
(-0.00416688 -9.42397e-08 0)
(-0.00416797 -9.44608e-08 0)
(-0.00416907 -9.45105e-08 0)
(-0.00417016 -9.45585e-08 0)
(-0.00417127 -9.46034e-08 0)
(-0.00417237 -9.46414e-08 0)
(-0.00417348 -9.467e-08 0)
(-0.00417459 -9.45107e-08 0)
(-0.00417571 -9.43318e-08 0)
(-0.00417682 -9.41329e-08 0)
(-0.00417793 -9.39158e-08 0)
(-0.00417904 -9.36802e-08 0)
(-0.00418015 -9.34303e-08 0)
(-0.00418126 -9.31691e-08 0)
(-0.00418237 -9.27315e-08 0)
(-0.00418348 -9.21126e-08 0)
(-0.00418457 -9.1643e-08 0)
(-0.00418567 -9.13195e-08 0)
(-0.00418677 -9.08121e-08 0)
(-0.00418786 -9.01245e-08 0)
(-0.00418895 -8.9432e-08 0)
(-0.00419003 -8.87333e-08 0)
(-0.0041911 -8.80198e-08 0)
(-0.00419216 -8.72778e-08 0)
(-0.00419322 -8.65069e-08 0)
(-0.00419428 -8.57164e-08 0)
(-0.00419532 -8.4756e-08 0)
(-0.00419636 -8.37995e-08 0)
(-0.00419739 -8.28471e-08 0)
(-0.0041984 -8.18842e-08 0)
(-0.00419941 -8.08963e-08 0)
(-0.00420041 -7.9875e-08 0)
(-0.0042014 -7.88315e-08 0)
(-0.00420237 -7.7448e-08 0)
(-0.00420333 -7.62371e-08 0)
(-0.00420428 -7.51959e-08 0)
(-0.00420522 -7.39795e-08 0)
(-0.00420615 -7.27371e-08 0)
(-0.00420706 -7.14608e-08 0)
(-0.00420796 -6.99914e-08 0)
(-0.00420884 -6.85163e-08 0)
(-0.00420971 -6.70506e-08 0)
(-0.00421056 -6.57747e-08 0)
(-0.0042114 -6.4516e-08 0)
(-0.00421222 -6.293e-08 0)
(-0.00421303 -6.14852e-08 0)
(-0.00421382 -6.00078e-08 0)
(-0.00421459 -5.84847e-08 0)
(-0.00421535 -5.67596e-08 0)
(-0.00421609 -5.50158e-08 0)
(-0.00421681 -5.34442e-08 0)
(-0.00421751 -5.17261e-08 0)
(-0.00421819 -5.00381e-08 0)
(-0.00421886 -4.85438e-08 0)
(-0.00421951 -4.69023e-08 0)
(-0.00422013 -4.52607e-08 0)
(-0.00422075 -4.37836e-08 0)
(-0.00422134 -4.21129e-08 0)
(-0.00422192 -4.06059e-08 0)
(-0.00422248 -3.88772e-08 0)
(-0.00422301 -3.68556e-08 0)
(-0.00422352 -3.50763e-08 0)
(-0.00422395 -3.37734e-08 0)
(-0.00422428 -3.27755e-08 0)
(-0.00422462 -3.13772e-08 0)
(-0.00422494 -2.99798e-08 0)
(-0.00422525 -2.88425e-08 0)
(-0.00422555 -2.77336e-08 0)
(-0.00422585 -2.63675e-08 0)
(-0.00422614 -2.52641e-08 0)
(-0.00422643 -2.41814e-08 0)
(-0.0042267 -2.26491e-08 0)
(-0.00422697 -2.13556e-08 0)
(-0.00422722 -2.03128e-08 0)
(-0.00422747 -1.92507e-08 0)
(-0.00422771 -1.7998e-08 0)
(-0.00422794 -1.65151e-08 0)
(-0.00422816 -1.52804e-08 0)
(-0.00422837 -1.42767e-08 0)
(-0.00422857 -1.30605e-08 0)
(-0.00422877 -1.18498e-08 0)
(-0.00422895 -1.06542e-08 0)
(-0.00422912 -9.2576e-09 0)
(-0.00422928 -8.08621e-09 0)
(-0.00422944 -6.93524e-09 0)
(-0.00422958 -5.78634e-09 0)
(-0.00422971 -4.65554e-09 0)
(-0.00422983 -3.33685e-09 0)
(-0.00422994 -2.24026e-09 0)
(-0.00423004 -1.16239e-09 0)
(-0.00423013 -9.48083e-11 0)
(-0.00423022 9.52142e-10 0)
(-0.00423029 2.16659e-09 0)
(-0.00423034 3.1823e-09 0)
(-0.00423039 4.16189e-09 0)
(-0.00423043 5.1371e-09 0)
(-0.00423046 6.2859e-09 0)
(-0.00423048 7.23524e-09 0)
(-0.00423049 8.16322e-09 0)
(-0.00423048 9.2694e-09 0)
(-0.00423047 9.94536e-09 0)
(-0.00423045 1.08167e-08 0)
(-0.00423042 1.18543e-08 0)
(-0.00423038 1.26951e-08 0)
(-0.00423032 1.35154e-08 0)
(-0.00423026 1.432e-08 0)
(-0.00423019 1.49278e-08 0)
(-0.00423011 1.5737e-08 0)
(-0.00423002 1.6674e-08 0)
(-0.00422992 1.72186e-08 0)
(-0.00422982 1.77179e-08 0)
(-0.0042297 1.83687e-08 0)
(-0.00422958 1.89911e-08 0)
(-0.00422945 1.94242e-08 0)
(-0.00422932 1.96652e-08 0)
(-0.00422917 2.02197e-08 0)
(-0.00422902 2.05955e-08 0)
(-0.00422887 2.07722e-08 0)
(-0.00422871 2.10887e-08 0)
(-0.00422854 2.12328e-08 0)
(-0.00422838 2.13482e-08 0)
(-0.0042282 2.16046e-08 0)
(-0.00422803 2.16845e-08 0)
(-0.00422785 2.17347e-08 0)
(-0.00422766 2.16281e-08 0)
(-0.00422748 2.14987e-08 0)
(-0.0042273 2.16411e-08 0)
(-0.00422711 2.14539e-08 0)
(-0.00422692 2.10917e-08 0)
(-0.00422674 2.08887e-08 0)
(-0.00422655 2.05252e-08 0)
(-0.00422637 2.02557e-08 0)
(-0.00422619 1.98217e-08 0)
(-0.00422601 1.92036e-08 0)
(-0.00422584 1.87351e-08 0)
(-0.00422568 1.80702e-08 0)
(-0.00422552 1.7212e-08 0)
(-0.00422537 1.64821e-08 0)
(-0.00422522 1.5603e-08 0)
(-0.0042251 1.47366e-08 0)
(-0.00422497 1.39138e-08 0)
(-0.00422486 1.28359e-08 0)
(-0.00422476 1.1972e-08 0)
(-0.00422467 1.08552e-08 0)
(-0.00422459 9.90405e-09 0)
(-0.00422453 8.6947e-09 0)
(-0.00422448 7.54507e-09 0)
(-0.00422445 6.04493e-09 0)
(-0.00422443 5.22172e-09 0)
(-0.00422445 2.9901e-09 0)
(-0.00422446 2.51594e-09 0)
(-0.00422453 -2.64301e-10 0)
(-0.00422457 2.05072e-10 0)
(-0.00422471 -4.29046e-09 0)
(-0.00422475 -1.27513e-09 0)
(-0.00422499 -9.39163e-09 0)
(-0.00422501 -1.75708e-09 0)
(-0.0042254 -1.68635e-08 0)
(-0.00422534 3.71758e-10 0)
(-0.00422593 -2.6643e-08 0)
(-0.00422577 6.10109e-09 0)
(-0.00422654 -3.4591e-08 0)
(-0.0353486 -0.002144 0)
(-0.0160257 -0.000524859 0)
(-0.0106064 -0.000100727 0)
(-0.00845468 -3.52499e-05 0)
(-0.00748598 -1.98239e-05 0)
(-0.0068543 -1.60494e-05 0)
(-0.00635027 -1.32386e-05 0)
(-0.00594432 -1.07267e-05 0)
(-0.0056169 -8.83613e-06 0)
(-0.00534803 -7.43718e-06 0)
(-0.00512359 -6.34313e-06 0)
(-0.00493461 -5.44351e-06 0)
(-0.0047751 -4.67939e-06 0)
(-0.00464077 -4.01408e-06 0)
(-0.00452848 -3.42029e-06 0)
(-0.00443584 -2.87704e-06 0)
(-0.00436094 -2.36919e-06 0)
(-0.00430204 -1.89121e-06 0)
(-0.0042572 -1.45346e-06 0)
(-0.00422402 -1.08077e-06 0)
(-0.00419968 -7.99668e-07 0)
(-0.00418131 -6.20278e-07 0)
(-0.00416647 -5.27489e-07 0)
(-0.00415357 -4.8948e-07 0)
(-0.00414179 -4.75434e-07 0)
(-0.00413084 -4.66819e-07 0)
(-0.00412063 -4.59031e-07 0)
(-0.00411106 -4.54719e-07 0)
(-0.00410197 -4.58347e-07 0)
(-0.00409319 -4.72728e-07 0)
(-0.00408449 -4.98729e-07 0)
(-0.00407567 -5.36041e-07 0)
(-0.00406658 -5.83892e-07 0)
(-0.00405694 -6.47209e-07 0)
(-0.00404663 -7.25686e-07 0)
(-0.00403499 -8.37534e-07 0)
(-0.00402203 -9.72738e-07 0)
(-0.00400624 -1.18239e-06 0)
(-0.0039881 -1.41081e-06 0)
(-0.00396461 -1.79483e-06 0)
(-0.00393708 -2.1528e-06 0)
(-0.00390106 -2.82684e-06 0)
(-0.00385614 -3.37763e-06 0)
(-0.00380315 -4.51537e-06 0)
(-0.00372109 -5.46543e-06 0)
(-0.00365577 -7.3132e-06 0)
(-0.00347773 -9.12266e-06 0)
(-0.00345773 -1.27403e-05 0)
(-0.00295574 -1.36256e-05 0)
(-0.0033792 7.9156e-05 0)
(1.12253e-05 -5.09292e-06 0)
(1.10898e-05 -2.15802e-05 0)
(1.09736e-05 -3.51385e-05 0)
(1.10177e-05 -4.85982e-05 0)
(1.1107e-05 -6.19862e-05 0)
(1.12281e-05 -7.53716e-05 0)
(1.13691e-05 -8.8777e-05 0)
(1.15389e-05 -0.000102231 0)
(1.17254e-05 -0.000115761 0)
(1.19368e-05 -0.000129391 0)
(1.21741e-05 -0.000143145 0)
(1.24239e-05 -0.000157049 0)
(1.27021e-05 -0.000171122 0)
(1.3001e-05 -0.000185385 0)
(1.33195e-05 -0.000199858 0)
(1.36589e-05 -0.000214564 0)
(1.40221e-05 -0.000229522 0)
(1.44062e-05 -0.000244748 0)
(1.48095e-05 -0.000260256 0)
(1.52428e-05 -0.000276072 0)
(1.56924e-05 -0.000292214 0)
(1.61652e-05 -0.000308689 0)
(1.66572e-05 -0.00032552 0)
(1.71689e-05 -0.000342725 0)
(1.77152e-05 -0.000360314 0)
(1.82792e-05 -0.000378307 0)
(1.88655e-05 -0.000396716 0)
(1.94758e-05 -0.000415559 0)
(2.01125e-05 -0.000434845 0)
(2.07681e-05 -0.000454593 0)
(2.14477e-05 -0.000474822 0)
(2.21617e-05 -0.000495532 0)
(2.2894e-05 -0.000516747 0)
(2.36527e-05 -0.00053848 0)
(2.44362e-05 -0.000560742 0)
(2.52438e-05 -0.000583544 0)
(2.60849e-05 -0.000606899 0)
(2.69523e-05 -0.000630821 0)
(2.78426e-05 -0.000655324 0)
(2.87633e-05 -0.000680412 0)
(2.97107e-05 -0.000706102 0)
(3.06827e-05 -0.000732408 0)
(3.16836e-05 -0.000759334 0)
(3.27142e-05 -0.00078689 0)
(3.37725e-05 -0.000815088 0)
(3.48599e-05 -0.000843937 0)
(3.59757e-05 -0.000873445 0)
(3.71177e-05 -0.00090362 0)
(3.8288e-05 -0.000934466 0)
(3.94853e-05 -0.000965994 0)
(4.07073e-05 -0.000998207 0)
(4.19562e-05 -0.00103111 0)
(4.32293e-05 -0.00106471 0)
(4.45248e-05 -0.001099 0)
(4.58468e-05 -0.00113398 0)
(4.71888e-05 -0.00116966 0)
(4.85512e-05 -0.00120603 0)
(4.99299e-05 -0.0012431 0)
(5.13198e-05 -0.00128085 0)
(5.2726e-05 -0.00131929 0)
(5.41434e-05 -0.00135839 0)
(5.55647e-05 -0.00139815 0)
(5.6988e-05 -0.00143856 0)
(5.84144e-05 -0.00147959 0)
(5.98325e-05 -0.00152125 0)
(6.12415e-05 -0.00156349 0)
(6.26341e-05 -0.00160632 0)
(6.40042e-05 -0.00164967 0)
(6.53509e-05 -0.00169355 0)
(6.66639e-05 -0.00173791 0)
(6.7934e-05 -0.00178273 0)
(6.91526e-05 -0.00182794 0)
(7.03207e-05 -0.00187353 0)
(7.14281e-05 -0.00191944 0)
(7.24604e-05 -0.00196563 0)
(7.34169e-05 -0.00201204 0)
(7.42873e-05 -0.00205861 0)
(7.50579e-05 -0.0021053 0)
(7.57208e-05 -0.00215203 0)
(7.62681e-05 -0.00219874 0)
(7.66878e-05 -0.00224536 0)
(7.69684e-05 -0.00229182 0)
(7.70974e-05 -0.00233805 0)
(7.70663e-05 -0.00238395 0)
(7.68695e-05 -0.00242947 0)
(7.64866e-05 -0.00247451 0)
(7.59114e-05 -0.00251897 0)
(7.51301e-05 -0.0025628 0)
(7.41331e-05 -0.00260588 0)
(7.29107e-05 -0.00264813 0)
(7.14504e-05 -0.00268946 0)
(6.97502e-05 -0.00272977 0)
(6.77902e-05 -0.00276898 0)
(6.55615e-05 -0.00280698 0)
(6.3067e-05 -0.00284367 0)
(6.02904e-05 -0.00287899 0)
(5.72237e-05 -0.00291281 0)
(5.38626e-05 -0.00294507 0)
(5.01997e-05 -0.00297565 0)
(4.62313e-05 -0.00300448 0)
(4.19425e-05 -0.00303147 0)
(3.73391e-05 -0.00305652 0)
(3.24145e-05 -0.00307956 0)
(2.71541e-05 -0.00310051 0)
(2.15643e-05 -0.00311927 0)
(1.56428e-05 -0.00313578 0)
(9.3734e-06 -0.00314998 0)
(2.74686e-06 -0.00316176 0)
(-4.24486e-06 -0.00317108 0)
(-1.16189e-05 -0.00317785 0)
(-1.93587e-05 -0.00318202 0)
(-2.75469e-05 -0.00318356 0)
(-3.62125e-05 -0.00318231 0)
(-4.5322e-05 -0.00317816 0)
(-5.48296e-05 -0.00317107 0)
(-6.47507e-05 -0.003161 0)
(-7.50714e-05 -0.00314788 0)
(-8.57811e-05 -0.00313169 0)
(-9.68689e-05 -0.00311239 0)
(-0.00010834 -0.00308996 0)
(-0.000120194 -0.00306435 0)
(-0.000132413 -0.00303557 0)
(-0.000145008 -0.00300359 0)
(-0.000157984 -0.00296835 0)
(-0.000171326 -0.00292985 0)
(-0.000185034 -0.00288806 0)
(-0.000199107 -0.00284298 0)
(-0.000213541 -0.00279458 0)
(-0.000228327 -0.00274285 0)
(-0.000243467 -0.0026878 0)
(-0.000258954 -0.0026294 0)
(-0.000274769 -0.00256765 0)
(-0.000290908 -0.00250256 0)
(-0.000307355 -0.0024341 0)
(-0.000324078 -0.0023623 0)
(-0.000341069 -0.00228717 0)
(-0.000358289 -0.0022087 0)
(-0.000375707 -0.00212696 0)
(-0.00039328 -0.00204196 0)
(-0.000410953 -0.00195374 0)
(-0.000428665 -0.0018623 0)
(-0.000446346 -0.00176772 0)
(-0.000463912 -0.00167003 0)
(-0.000481262 -0.00156931 0)
(-0.000498292 -0.00146565 0)
(-0.000514868 -0.00135913 0)
(-0.000530853 -0.00124988 0)
(-0.000546101 -0.00113802 0)
(-0.00056043 -0.00102369 0)
(-0.000573652 -0.00090705 0)
(-0.000585741 -0.000788514 0)
(-0.000596462 -0.000668138 0)
(-0.000605624 -0.000546105 0)
(-0.000613125 -0.000422642 0)
(-0.000618952 -0.000297941 0)
(-0.000623333 -0.000172111 0)
(-0.000626823 -4.50008e-05 0)
(-0.00063107 8.4568e-05 0)
(-0.000640258 0.000223325 0)
(-0.000658706 0.00039342 0)
(-0.000677996 0.000634187 0)
(-0.000661201 0.000968783 0)
(-0.000561078 0.0013477 0)
(-0.000373626 0.00164991 0)
(-0.000160469 0.00182438 0)
(1.97668e-05 0.0019039 0)
(0.000139396 0.00192311 0)
(0.000197859 0.00193109 0)
(0.000209918 0.00196011 0)
(0.000191604 0.00201624 0)
(0.000156145 0.0020823 0)
(0.000115631 0.00213065 0)
(8.19846e-05 0.00213996 0)
(6.44085e-05 0.00210615 0)
(6.62489e-05 0.00204058 0)
(8.51496e-05 0.00195949 0)
(0.000116462 0.00187596 0)
(0.000156657 0.00179691 0)
(0.0002031 0.00172416 0)
(0.000254405 0.00165676 0)
(0.000311167 0.00159264 0)
(0.000375217 0.00152994 0)
(0.000447381 0.00146678 0)
(0.000534493 0.00142407 0)
(0.000628088 0.00137424 0)
(0.000723232 0.00130703 0)
(0.000817088 0.00122078 0)
(0.000906118 0.00111528 0)
(0.000993403 0.000998363 0)
(0.00108171 0.000873414 0)
(0.00115765 0.000728279 0)
(0.00121413 0.000559712 0)
(0.00124129 0.000365195 0)
(0.00122787 0.00014486 0)
(0.00116005 -9.63236e-05 0)
(0.00102516 -0.000345565 0)
(0.000819353 -0.00058495 0)
(0.000547823 -0.000811766 0)
(0.000210323 -0.00107172 0)
(-0.000216242 -0.0014638 0)
(6.67619e-07 -1.1393e-05 0)
(1.34465e-05 -1.16026e-05 0)
(2.18862e-05 -1.11558e-05 0)
(3.00126e-05 -1.09893e-05 0)
(3.80409e-05 -1.08973e-05 0)
(4.60362e-05 -1.0809e-05 0)
(5.39504e-05 -1.07031e-05 0)
(6.17733e-05 -1.05815e-05 0)
(6.94919e-05 -1.0444e-05 0)
(7.70904e-05 -1.02881e-05 0)
(8.45566e-05 -1.01188e-05 0)
(9.18778e-05 -9.93355e-06 0)
(9.9041e-05 -9.73301e-06 0)
(0.000106035 -9.51701e-06 0)
(0.000112848 -9.28461e-06 0)
(0.000119468 -9.04249e-06 0)
(0.000125887 -8.78683e-06 0)
(0.000132093 -8.51792e-06 0)
(0.000138078 -8.23821e-06 0)
(0.000143833 -7.94796e-06 0)
(0.000149351 -7.64736e-06 0)
(0.000154626 -7.33777e-06 0)
(0.000159648 -7.01954e-06 0)
(0.00016441 -6.69028e-06 0)
(0.000168913 -6.35906e-06 0)
(0.000173153 -6.02044e-06 0)
(0.000177117 -5.67445e-06 0)
(0.000180806 -5.32706e-06 0)
(0.000184224 -4.97487e-06 0)
(0.000187364 -4.61989e-06 0)
(0.000190228 -4.26383e-06 0)
(0.000192812 -3.90619e-06 0)
(0.00019512 -3.54892e-06 0)
(0.000197152 -3.1925e-06 0)
(0.00019891 -2.8346e-06 0)
(0.000200393 -2.48267e-06 0)
(0.00020161 -2.13381e-06 0)
(0.000202565 -1.78618e-06 0)
(0.000203254 -1.43485e-06 0)
(0.000203684 -1.09534e-06 0)
(0.000203862 -7.59464e-07 0)
(0.000203793 -4.28982e-07 0)
(0.000203487 -1.06457e-07 0)
(0.000202949 2.08874e-07 0)
(0.000202186 5.16673e-07 0)
(0.000201207 8.16704e-07 0)
(0.000200018 1.11194e-06 0)
(0.000198619 1.39586e-06 0)
(0.000197025 1.66925e-06 0)
(0.000195247 1.93221e-06 0)
(0.00019329 2.1828e-06 0)
(0.000191168 2.41987e-06 0)
(0.000188891 2.64786e-06 0)
(0.000186465 2.87139e-06 0)
(0.000183897 3.09128e-06 0)
(0.000181185 3.30308e-06 0)
(0.00017834 3.51047e-06 0)
(0.000175376 3.71065e-06 0)
(0.000172289 3.90958e-06 0)
(0.000169093 4.09182e-06 0)
(0.000165795 4.26758e-06 0)
(0.000162401 4.43674e-06 0)
(0.000158916 4.60554e-06 0)
(0.000155345 4.75733e-06 0)
(0.0001517 4.90547e-06 0)
(0.000147983 5.04659e-06 0)
(0.0001442 5.1809e-06 0)
(0.000140358 5.30843e-06 0)
(0.000136462 5.4329e-06 0)
(0.000132513 5.54655e-06 0)
(0.000128517 5.6571e-06 0)
(0.000124483 5.76183e-06 0)
(0.000120411 5.86189e-06 0)
(0.000116308 5.9561e-06 0)
(0.000112173 6.04365e-06 0)
(0.000108008 6.12704e-06 0)
(0.000103822 6.20706e-06 0)
(9.96141e-05 6.2841e-06 0)
(9.53885e-05 6.35483e-06 0)
(9.11478e-05 6.42251e-06 0)
(8.68913e-05 6.48654e-06 0)
(8.26222e-05 6.5457e-06 0)
(7.83452e-05 6.60178e-06 0)
(7.40569e-05 6.65359e-06 0)
(6.97587e-05 6.7028e-06 0)
(6.54563e-05 6.74831e-06 0)
(6.11473e-05 6.79049e-06 0)
(5.68329e-05 6.8301e-06 0)
(5.25145e-05 6.86645e-06 0)
(4.81922e-05 6.89997e-06 0)
(4.38665e-05 6.9308e-06 0)
(3.95376e-05 6.95887e-06 0)
(3.52057e-05 6.98537e-06 0)
(3.08701e-05 7.01014e-06 0)
(2.65322e-05 7.03498e-06 0)
(2.21877e-05 7.05988e-06 0)
(1.78621e-05 7.1096e-06 0)
(1.34931e-05 7.24675e-06 0)
(8.95141e-06 7.77683e-06 0)
(5.67285e-07 8.33202e-06 0)
(8.16578e-06 3.93228e-06 0)
(7.16627e-06 1.41962e-05 0)
(6.84124e-06 2.11578e-05 0)
(6.78267e-06 2.81503e-05 0)
(6.77638e-06 3.4952e-05 0)
(6.77884e-06 4.17001e-05 0)
(6.78015e-06 4.83461e-05 0)
(6.7815e-06 5.48941e-05 0)
(6.78201e-06 6.13389e-05 0)
(6.77983e-06 6.7676e-05 0)
(6.775e-06 7.39005e-05 0)
(6.76686e-06 8.00068e-05 0)
(6.75476e-06 8.59907e-05 0)
(6.74034e-06 9.18443e-05 0)
(6.71954e-06 9.7562e-05 0)
(6.69421e-06 0.000103138 0)
(6.6626e-06 0.000108566 0)
(6.62459e-06 0.000113837 0)
(6.58011e-06 0.000118946 0)
(6.52756e-06 0.000123883 0)
(6.4667e-06 0.000128641 0)
(6.39706e-06 0.000133211 0)
(6.3182e-06 0.000137583 0)
(6.22894e-06 0.000141751 0)
(6.12816e-06 0.000145702 0)
(6.01613e-06 0.000149429 0)
(5.8922e-06 0.000152921 0)
(5.75572e-06 0.00015617 0)
(5.6036e-06 0.000159164 0)
(5.43692e-06 0.000161893 0)
(5.25057e-06 0.000164344 0)
(5.04877e-06 0.000166502 0)
(4.83143e-06 0.000168359 0)
(4.59721e-06 0.000169905 0)
(4.34384e-06 0.000171133 0)
(4.07441e-06 0.000172021 0)
(3.77698e-06 0.000172556 0)
(3.45925e-06 0.000172738 0)
(3.11154e-06 0.000172554 0)
(2.75096e-06 0.000171988 0)
(2.36257e-06 0.000171027 0)
(1.95361e-06 0.000169667 0)
(1.51959e-06 0.000167895 0)
(1.06188e-06 0.000165694 0)
(5.79667e-07 0.000163057 0)
(6.90115e-08 0.000159979 0)
(-4.62046e-07 0.000156435 0)
(-1.02709e-06 0.000152415 0)
(-1.6159e-06 0.000147927 0)
(-2.23508e-06 0.000142952 0)
(-2.87903e-06 0.000137475 0)
(-3.5544e-06 0.000131475 0)
(-4.26044e-06 0.000124961 0)
(-4.99568e-06 0.000117924 0)
(-5.76455e-06 0.000110355 0)
(-6.55989e-06 0.000102233 0)
(-7.39042e-06 9.35549e-05 0)
(-8.24937e-06 8.43205e-05 0)
(-9.14268e-06 7.45132e-05 0)
(-1.00675e-05 6.41307e-05 0)
(-1.1025e-05 5.31653e-05 0)
(-1.20154e-05 4.16097e-05 0)
(-1.30383e-05 2.94578e-05 0)
(-1.40961e-05 1.67055e-05 0)
(-1.51869e-05 3.34026e-06 0)
(-1.63123e-05 -1.06401e-05 0)
(-1.74707e-05 -2.5233e-05 0)
(-1.86649e-05 -4.04477e-05 0)
(-1.98936e-05 -5.62887e-05 0)
(-2.1157e-05 -7.27598e-05 0)
(-2.24553e-05 -8.98643e-05 0)
(-2.37892e-05 -0.000107605 0)
(-2.51586e-05 -0.000125986 0)
(-2.65631e-05 -0.000145009 0)
(-2.80039e-05 -0.000164675 0)
(-2.94814e-05 -0.000184988 0)
(-3.09957e-05 -0.000205949 0)
(-3.25463e-05 -0.00022756 0)
(-3.41346e-05 -0.00024982 0)
(-3.57613e-05 -0.000272731 0)
(-3.74262e-05 -0.000296295 0)
(-3.913e-05 -0.00032051 0)
(-4.08734e-05 -0.000345378 0)
(-4.26569e-05 -0.000370898 0)
(-4.44807e-05 -0.000397071 0)
(-4.63451e-05 -0.000423895 0)
(-4.82506e-05 -0.000451371 0)
(-5.01978e-05 -0.000479497 0)
(-5.21876e-05 -0.000508274 0)
(-5.42195e-05 -0.000537701 0)
(-5.62948e-05 -0.000567776 0)
(-5.84137e-05 -0.0005985 0)
(-6.05765e-05 -0.00062987 0)
(-6.27851e-05 -0.000661885 0)
(-6.50393e-05 -0.000694547 0)
(-6.73396e-05 -0.000727852 0)
(-6.96872e-05 -0.0007618 0)
(-7.20826e-05 -0.00079639 0)
(-7.45278e-05 -0.00083162 0)
(-7.70226e-05 -0.000867491 0)
(-7.95678e-05 -0.000904001 0)
(-8.21654e-05 -0.000941149 0)
(-8.4817e-05 -0.000978936 0)
(-8.75222e-05 -0.00101736 0)
(-9.02784e-05 -0.00105642 0)
(-9.30968e-05 -0.00109611 0)
(-9.59731e-05 -0.00113645 0)
(-9.8909e-05 -0.00117742 0)
(-0.000101906 -0.00121903 0)
(-0.00010496 -0.00126127 0)
(-0.000108087 -0.00130415 0)
(-0.000111275 -0.00134767 0)
(-0.000114529 -0.00139182 0)
(-0.000117862 -0.00143662 0)
(-0.00012126 -0.00148207 0)
(-0.000124735 -0.00152815 0)
(-0.000128284 -0.00157489 0)
(-0.00013191 -0.00162227 0)
(-0.000135629 -0.0016703 0)
(-0.000139424 -0.00171899 0)
(-0.000143302 -0.00176834 0)
(-0.000147276 -0.00181835 0)
(-0.000151343 -0.00186902 0)
(-0.000155507 -0.00192037 0)
(-0.00015977 -0.00197239 0)
(-0.000164135 -0.0020251 0)
(-0.000168606 -0.00207849 0)
(-0.000173192 -0.00213257 0)
(-0.000177896 -0.00218736 0)
(-0.000182717 -0.00224286 0)
(-0.000187664 -0.00229908 0)
(-0.000192742 -0.00235602 0)
(-0.000197956 -0.0024137 0)
(-0.000203309 -0.00247212 0)
(-0.000208808 -0.0025313 0)
(-0.000214463 -0.00259125 0)
(-0.000220282 -0.00265197 0)
(-0.000226269 -0.0027135 0)
(-0.000232431 -0.00277583 0)
(-0.000238769 -0.00283899 0)
(-0.000245302 -0.00290297 0)
(-0.000252046 -0.00296782 0)
(-0.000258996 -0.00303354 0)
(-0.000266165 -0.00310015 0)
(-0.000273566 -0.00316768 0)
(-0.000281214 -0.00323613 0)
(-0.000289128 -0.00330554 0)
(-0.000297311 -0.00337594 0)
(-0.000305776 -0.00344734 0)
(-0.000314544 -0.00351977 0)
(-0.000323637 -0.00359327 0)
(-0.000333071 -0.00366786 0)
(-0.000342869 -0.00374357 0)
(-0.000353043 -0.00382045 0)
(-0.00036362 -0.00389852 0)
(-0.000374645 -0.00397784 0)
(-0.000386118 -0.00405844 0)
(-0.000398078 -0.00414035 0)
(-0.000410572 -0.00422365 0)
(-0.00042363 -0.00430836 0)
(-0.000437293 -0.00439455 0)
(-0.000451608 -0.00448229 0)
(-0.00046662 -0.00457163 0)
(-0.000482388 -0.00466263 0)
(-0.000498967 -0.00475537 0)
(-0.00051643 -0.00484993 0)
(-0.000534866 -0.00494638 0)
(-0.000554337 -0.00504483 0)
(-0.000574954 -0.00514535 0)
(-0.000596831 -0.00524806 0)
(-0.000620068 -0.00535307 0)
(-0.0006448 -0.0054605 0)
(-0.000671197 -0.00557047 0)
(-0.000699431 -0.00568312 0)
(-0.000729687 -0.00579861 0)
(-0.000762183 -0.00591711 0)
(-0.000797162 -0.00603877 0)
(-0.000834918 -0.00616379 0)
(-0.000875769 -0.00629238 0)
(-0.000920059 -0.00642476 0)
(-0.000968209 -0.00656118 0)
(-0.00102068 -0.00670188 0)
(-0.00107798 -0.00684721 0)
(-0.00114067 -0.00699735 0)
(-0.00120946 -0.00715286 0)
(-0.00128504 -0.00731374 0)
(-0.00136834 -0.00748107 0)
(-0.00146003 -0.00765411 0)
(-0.00156165 -0.00783544 0)
(-0.00167348 -0.00802198 0)
(-0.0017983 -0.00822064 0)
(-0.00193493 -0.00842114 0)
(-0.00208945 -0.00864326 0)
(-0.00225552 -0.00885485 0)
(-0.00244861 -0.0091136 0)
(-0.00264597 -0.0093226 0)
(-0.00288833 -0.00965002 0)
(-0.0030991 -0.00980873 0)
(-0.00337776 -0.0102827 0)
(-0.00343794 -0.0101812 0)
)
;
    }
    frontAndBack
    {
        type            empty;
    }
}


// ************************************************************************* //
