/*--------------------------------*- C++ -*----------------------------------*\
  =========                 |
  \\      /  F ield         | OpenFOAM: The Open Source CFD Toolbox
   \\    /   O peration     | Website:  https://openfoam.org
    \\  /    A nd           | Version:  7
     \\/     M anipulation  |
\*---------------------------------------------------------------------------*/
FoamFile
{
    version     2.0;
    format      ascii;
    class       volScalarField;
    location    "0.12";
    object      nut;
}
// * * * * * * * * * * * * * * * * * * * * * * * * * * * * * * * * * * * * * //

dimensions      [0 2 -1 0 0 0 0];

internalField   nonuniform List<scalar> 
70000
(
9.96286e-12
6.88039e-14
2.56518e-16
8.63235e-17
4.78014e-17
7.86326e-17
2.76372e-17
1.29325e-17
8.77878e-18
6.41847e-18
4.71389e-18
3.52433e-18
2.69763e-18
2.10894e-18
1.67844e-18
1.35643e-18
1.11102e-18
9.20824e-19
7.713e-19
6.52161e-19
5.56111e-19
4.77808e-19
4.13311e-19
3.59697e-19
3.14659e-19
2.76625e-19
2.43982e-19
2.16188e-19
1.91583e-19
1.70813e-19
1.5139e-19
1.35678e-19
1.19451e-19
1.07536e-19
9.32923e-20
8.3772e-20
7.19413e-20
6.131e-20
5.69783e-20
3.54588e-20
5.71981e-20
6.23726e-21
1.32182e-19
1.03379e-20
1.19791e-18
3.04883e-18
2.89314e-17
1.67444e-16
5.0628e-15
4.37659e-13
1.04278e-10
5.98747e-12
6.44495e-14
2.14317e-14
2.89234e-16
1.69885e-17
2.52228e-17
2.11642e-17
1.22889e-17
7.30997e-18
4.79078e-18
3.34167e-18
2.42205e-18
1.80723e-18
1.3818e-18
1.079e-18
8.57992e-19
6.93173e-19
5.67808e-19
4.70858e-19
3.9473e-19
3.34142e-19
2.85341e-19
2.45561e-19
2.12874e-19
1.85608e-19
1.62944e-19
1.43459e-19
1.27383e-19
1.12797e-19
1.01356e-19
8.97928e-20
8.18686e-20
7.20947e-20
6.68064e-20
5.86705e-20
5.39032e-20
5.05499e-20
3.90035e-20
5.5191e-20
1.59858e-20
1.21738e-19
1.29545e-21
8.81712e-19
9.64091e-19
1.69295e-17
6.63731e-17
5.83571e-16
2.25925e-14
3.4626e-14
3.19187e-10
3.39799e-12
1.90966e-13
1.99163e-14
7.69783e-16
5.89112e-17
7.41673e-18
4.24247e-18
2.1575e-18
1.06965e-18
5.91705e-19
3.61417e-19
2.34661e-19
1.58735e-19
1.1094e-19
7.97624e-20
5.87856e-20
4.42945e-20
3.40308e-20
2.6612e-20
2.11481e-20
1.70588e-20
1.39564e-20
1.15683e-20
9.71954e-21
8.25662e-21
7.1249e-21
6.18772e-21
5.50752e-21
4.87865e-21
4.52981e-21
4.08971e-21
4.04127e-21
3.74307e-21
4.00697e-21
3.98876e-21
4.44306e-21
5.607e-21
5.22177e-21
1.25911e-20
6.97527e-21
6.15211e-20
5.71159e-20
8.44615e-19
2.52778e-18
2.22177e-17
1.05588e-16
7.8312e-16
2.56896e-14
5.02789e-14
6.15357e-09
1.92774e-11
7.84514e-13
6.11554e-14
5.50792e-15
9.34416e-16
1.11818e-16
2.99314e-17
1.2511e-17
5.54212e-18
2.58382e-18
1.32251e-18
7.37301e-19
4.37206e-19
2.71357e-19
1.74745e-19
1.16121e-19
7.93067e-20
5.55004e-20
3.97162e-20
2.90277e-20
2.1659e-20
1.65027e-20
1.28482e-20
1.02353e-20
8.35653e-21
7.00649e-21
6.05134e-21
5.39469e-21
4.99332e-21
4.79652e-21
4.84682e-21
5.07975e-21
5.71839e-21
6.56928e-21
8.40265e-21
1.04578e-20
1.54713e-20
2.02692e-20
3.61497e-20
5.0404e-20
1.27069e-19
2.4822e-19
1.08457e-18
4.07243e-18
2.22118e-17
1.15423e-16
5.95422e-16
2.06109e-14
8.07568e-14
2.32224e-09
2.23372e-10
4.45832e-12
3.22171e-13
2.31251e-14
4.43359e-15
7.29591e-16
2.05556e-16
8.40416e-17
3.72784e-17
1.74081e-17
8.82193e-18
4.84061e-18
2.82439e-18
1.72765e-18
1.09835e-18
7.21596e-19
4.87804e-19
3.38202e-19
2.3992e-19
1.73888e-19
1.28664e-19
9.71807e-20
7.49484e-20
5.90759e-20
4.76509e-20
3.93928e-20
3.34705e-20
2.9275e-20
2.65141e-20
2.48476e-20
2.44312e-20
2.48689e-20
2.71482e-20
3.02514e-20
3.75651e-20
4.54784e-20
6.56866e-20
8.40277e-20
1.45418e-19
1.92762e-19
4.32033e-19
6.82841e-19
2.25487e-18
6.50964e-18
2.61178e-17
1.31287e-16
3.97561e-16
1.68383e-14
6.99286e-14
3.01138e-09
5.28631e-09
4.36342e-11
1.94836e-12
1.08465e-13
1.81244e-14
3.27815e-15
9.58069e-16
3.90226e-16
1.74114e-16
8.19203e-17
4.15294e-17
2.266e-17
1.31128e-17
7.94786e-18
5.00592e-18
3.25871e-18
2.18339e-18
1.50084e-18
1.05588e-18
7.5906e-19
5.57069e-19
4.17227e-19
3.18918e-19
2.4895e-19
1.98637e-19
1.62224e-19
1.35899e-19
1.16993e-19
1.03986e-19
9.54917e-20
9.16207e-20
9.10408e-20
9.64933e-20
1.04816e-19
1.26127e-19
1.49087e-19
2.09455e-19
2.62048e-19
4.43551e-19
5.68633e-19
1.21698e-18
1.72953e-18
4.87435e-18
1.14486e-17
3.37501e-17
1.63437e-16
2.46813e-16
1.43673e-14
5.73846e-14
1.0768e-09
4.76587e-09
3.72333e-09
1.85428e-11
6.74101e-13
9.23534e-14
1.53399e-14
4.18729e-15
1.61652e-15
7.02793e-16
3.26651e-16
1.64042e-16
8.86654e-17
5.08255e-17
3.05205e-17
1.90481e-17
1.22892e-17
8.16234e-18
5.56324e-18
3.88159e-18
2.76778e-18
2.01481e-18
1.49662e-18
1.13423e-18
8.77382e-19
6.93193e-19
5.59992e-19
4.634e-19
3.93461e-19
3.44194e-19
3.10505e-19
2.91797e-19
2.83665e-19
2.92972e-19
3.10613e-19
3.62731e-19
4.19225e-19
5.70407e-19
7.02594e-19
1.148e-18
1.46089e-18
2.95097e-18
4.09484e-18
1.0028e-17
2.12832e-17
4.69914e-17
2.25691e-16
1.77235e-16
1.26134e-14
4.63932e-14
2.4282e-09
3.87014e-09
8.23084e-10
2.42946e-09
8.65807e-12
7.18771e-13
9.15176e-14
2.0916e-14
7.17879e-15
2.89405e-15
1.27844e-15
6.18626e-16
3.24997e-16
1.82158e-16
1.07393e-16
6.59904e-17
4.2001e-17
2.75611e-17
1.85797e-17
1.28327e-17
9.06386e-18
6.53841e-18
4.814e-18
3.61633e-18
2.77237e-18
2.16988e-18
1.73546e-18
1.42044e-18
1.19158e-18
1.02814e-18
9.13485e-19
8.43234e-19
8.04373e-19
8.11903e-19
8.42506e-19
9.56475e-19
1.08323e-18
1.42578e-18
1.73385e-18
2.72083e-18
3.46628e-18
6.58048e-18
9.19169e-18
1.99127e-17
4.04879e-17
7.16652e-17
3.38671e-16
2.01236e-16
1.14343e-14
3.68457e-14
3.36984e-09
4.37072e-09
5.91441e-10
3.00169e-10
5.49411e-10
1.87354e-11
9.69794e-13
1.47532e-13
4.02881e-14
1.40426e-14
5.59851e-15
2.50944e-15
1.24335e-15
6.65764e-16
3.78463e-16
2.25748e-16
1.40174e-16
9.00766e-17
5.96373e-17
4.05451e-17
2.82378e-17
2.01127e-17
1.4636e-17
1.08745e-17
8.24912e-18
6.38975e-18
5.05741e-18
4.09478e-18
3.39611e-18
2.8939e-18
2.53676e-18
2.30531e-18
2.16339e-18
2.14002e-18
2.17943e-18
2.41141e-18
2.68166e-18
3.41861e-18
4.10906e-18
6.18947e-18
7.90542e-18
1.41268e-17
2.00131e-17
3.91594e-17
7.80749e-17
1.20751e-16
5.42751e-16
3.60228e-16
1.08947e-14
2.97958e-14
3.41144e-09
4.60782e-09
6.72987e-10
1.93672e-10
4.72366e-11
6.73644e-11
3.18388e-10
2.87301e-12
3.98342e-13
9.948e-14
3.22192e-14
1.2493e-14
5.56279e-15
2.74497e-15
1.46311e-15
8.28534e-16
4.92942e-16
3.05658e-16
1.96341e-16
1.30067e-16
8.85684e-17
6.18477e-17
4.42204e-17
3.23375e-17
2.41761e-17
1.84745e-17
1.44355e-17
1.15424e-17
9.45513e-18
7.95455e-18
6.88184e-18
6.16334e-18
5.69824e-18
5.53583e-18
5.54381e-18
5.99396e-18
6.55542e-18
8.11348e-18
9.64131e-18
1.39678e-17
1.78595e-17
3.01756e-17
4.32935e-17
7.80485e-17
1.5356e-16
2.22708e-16
9.16831e-16
7.68507e-16
1.11391e-14
2.48507e-14
3.21233e-09
4.39146e-09
7.7416e-10
2.02264e-10
3.66663e-11
2.18998e-11
1.35326e-11
2.1097e-11
1.6411e-10
2.31819e-12
3.66366e-13
9.87111e-14
3.50003e-14
1.47415e-14
6.98604e-15
3.61127e-15
1.99736e-15
1.16668e-15
7.13018e-16
4.52859e-16
2.97444e-16
2.01315e-16
1.40055e-16
9.99743e-17
7.31473e-17
5.48189e-17
4.20796e-17
3.30958e-17
2.66938e-17
2.21225e-17
1.88608e-17
1.66369e-17
1.51516e-17
1.4469e-17
1.42591e-17
1.50948e-17
1.62479e-17
1.95721e-17
2.29858e-17
3.21168e-17
4.10109e-17
6.58526e-17
9.52792e-17
1.60871e-16
3.12157e-16
4.43368e-16
1.62842e-15
1.67425e-15
1.24319e-14
2.19714e-14
3.01797e-09
3.97302e-09
8.4682e-10
2.1317e-10
3.8961e-11
2.0225e-11
8.69701e-12
4.6589e-12
4.25203e-12
6.89523e-12
7.92268e-11
5.25119e-12
5.87613e-13
1.50257e-13
5.31526e-14
2.2569e-14
1.08151e-14
5.6586e-15
3.16802e-15
1.87296e-15
1.15879e-15
7.4553e-16
4.9657e-16
3.41313e-16
2.41585e-16
1.75821e-16
1.31479e-16
1.01002e-16
7.97368e-17
6.47852e-17
5.422e-17
4.69748e-17
4.20524e-17
3.94357e-17
3.82124e-17
3.96282e-17
4.19672e-17
4.92779e-17
5.71459e-17
7.71802e-17
9.81657e-17
1.50461e-16
2.1848e-16
3.49728e-16
6.67109e-16
9.4612e-16
3.06527e-15
3.62505e-15
1.55596e-14
2.2023e-14
2.84662e-09
3.51297e-09
9.08487e-10
2.10621e-10
4.2507e-11
2.17859e-11
9.12995e-12
3.97468e-12
2.50934e-12
1.95031e-12
1.77031e-12
2.08297e-12
4.23977e-12
8.28732e-11
2.95719e-12
4.21738e-13
1.22357e-13
4.73637e-14
2.15954e-14
1.09795e-14
6.0456e-15
3.54302e-15
2.18566e-15
1.40875e-15
9.43997e-16
6.55346e-16
4.70319e-16
3.48466e-16
2.66414e-16
2.10325e-16
1.71504e-16
1.45058e-16
1.27005e-16
1.16532e-16
1.10675e-16
1.12244e-16
1.16716e-16
1.33548e-16
1.52635e-16
1.99416e-16
2.51859e-16
3.6956e-16
5.35766e-16
8.19895e-16
1.52947e-15
2.17825e-15
6.20387e-15
8.01086e-15
2.2469e-14
2.63983e-14
2.67666e-09
3.05736e-09
9.77497e-10
1.99492e-10
4.57155e-11
2.32838e-11
1.04078e-11
4.29318e-12
2.45854e-12
1.65165e-12
1.17484e-12
9.02059e-13
7.76422e-13
7.71238e-13
9.32788e-13
1.5933e-12
7.12749e-12
1.32634e-11
7.38612e-13
1.80469e-13
6.63755e-14
2.9915e-14
1.53013e-14
8.55877e-15
5.12893e-15
3.25195e-15
2.16458e-15
1.50503e-15
1.0897e-15
8.20674e-16
6.42104e-16
5.23523e-16
4.43558e-16
3.94775e-16
3.64804e-16
3.59783e-16
3.6546e-16
4.06078e-16
4.55543e-16
5.74759e-16
7.17491e-16
1.00882e-15
1.45074e-15
2.13332e-15
3.86497e-15
5.51655e-15
1.38406e-14
1.87617e-14
3.8159e-14
3.91822e-14
2.49824e-09
2.62239e-09
1.05735e-09
1.85435e-10
4.90713e-11
2.42241e-11
1.18355e-11
4.82868e-12
2.68615e-12
1.74612e-12
1.17093e-12
8.12004e-13
5.9818e-13
4.70776e-13
3.95663e-13
3.57074e-13
3.50962e-13
3.85878e-13
5.00619e-13
8.70956e-13
3.21181e-12
2.97171e-11
8.04112e-13
1.8745e-13
7.03526e-14
3.30332e-14
1.77834e-14
1.05449e-14
6.74106e-15
4.59229e-15
3.30759e-15
2.51537e-15
2.00811e-15
1.69649e-15
1.49824e-15
1.41595e-15
1.38752e-15
1.4822e-15
1.61671e-15
1.95709e-15
2.39421e-15
3.21701e-15
4.54595e-15
6.43097e-15
1.12109e-14
1.59349e-14
3.53467e-14
4.88254e-14
7.8302e-14
7.34041e-14
2.31195e-09
2.22207e-09
1.14272e-09
1.71077e-10
5.30447e-11
2.47405e-11
1.33157e-11
5.43467e-12
2.98306e-12
1.93618e-12
1.28981e-12
8.72439e-13
6.14928e-13
4.53484e-13
3.47857e-13
2.76716e-13
2.28444e-13
1.96253e-13
1.76209e-13
1.66453e-13
1.67144e-13
1.81392e-13
2.18893e-13
3.10234e-13
5.86953e-13
2.322e-12
2.49086e-11
7.32415e-13
1.86584e-13
7.7311e-14
4.0391e-14
2.44666e-14
1.64654e-14
1.21635e-14
9.64383e-15
8.31815e-15
7.56245e-15
7.52784e-15
7.77461e-15
8.84718e-15
1.03947e-14
1.31839e-14
1.79903e-14
2.43195e-14
4.02129e-14
5.62299e-14
1.1047e-13
1.51574e-13
2.03791e-13
1.78978e-13
2.12007e-09
1.86263e-09
1.2263e-09
1.5746e-10
5.76801e-11
2.49621e-11
1.48752e-11
6.11065e-12
3.31107e-12
2.15846e-12
1.45015e-12
9.80137e-13
6.84118e-13
4.95766e-13
3.7025e-13
2.83428e-13
2.22034e-13
1.78001e-13
1.46124e-13
1.22974e-13
1.06287e-13
9.45839e-14
8.69547e-14
8.29513e-14
8.25989e-14
8.65412e-14
9.64958e-14
1.16511e-13
1.56666e-13
2.47425e-13
5.15909e-13
2.09462e-12
6.97088e-11
1.34234e-12
3.80683e-13
1.89113e-13
1.20572e-13
9.27907e-14
7.93466e-14
7.69792e-14
8.03368e-14
9.08974e-14
1.13762e-13
1.41896e-13
2.14993e-13
2.86951e-13
4.94112e-13
6.51538e-13
7.58705e-13
6.23964e-13
1.92426e-09
1.54451e-09
1.30148e-09
1.45353e-10
6.27319e-11
2.49572e-11
1.65175e-11
6.88306e-12
3.67471e-12
2.40356e-12
1.63409e-12
1.11125e-12
7.76121e-13
5.6123e-13
4.16928e-13
3.16034e-13
2.43768e-13
1.91168e-13
1.5238e-13
1.23472e-13
1.01764e-13
8.53958e-14
7.30642e-14
6.38474e-14
5.71014e-14
5.23899e-14
4.9442e-14
4.81535e-14
4.85621e-14
5.097e-14
5.5911e-14
6.4666e-14
7.9238e-14
1.046e-13
1.49643e-13
2.40166e-13
4.40193e-13
1.00659e-12
3.29278e-12
2.61712e-11
6.02067e-11
9.57733e-12
5.23754e-12
3.98153e-12
4.24321e-12
4.46932e-12
5.98434e-12
6.7361e-12
6.41549e-12
4.54101e-12
1.72674e-09
1.26755e-09
1.3626e-09
1.35653e-10
6.77963e-11
2.4795e-11
1.82077e-11
7.77494e-12
4.0846e-12
2.67493e-12
1.84122e-12
1.26239e-12
8.84569e-13
6.40965e-13
4.76804e-13
3.61315e-13
2.77963e-13
2.16814e-13
1.71357e-13
1.37185e-13
1.11267e-13
9.14827e-14
7.63194e-14
6.46845e-14
5.57822e-14
4.90326e-14
4.40119e-14
4.04343e-14
3.80965e-14
3.69314e-14
3.69006e-14
3.81999e-14
4.09778e-14
4.59504e-14
5.36569e-14
6.61746e-14
8.53104e-14
1.17198e-13
1.69089e-13
2.60104e-13
4.25931e-13
7.29947e-13
1.37652e-12
2.60506e-12
5.65314e-12
1.16609e-11
2.65368e-11
5.4248e-11
9.54295e-11
1.06653e-10
1.53028e-09
1.03144e-09
1.40476e-09
1.29305e-10
7.23511e-11
2.45755e-11
1.98855e-11
8.80498e-12
4.55042e-12
2.97721e-12
2.07468e-12
1.43586e-12
1.01023e-12
7.34174e-13
5.47801e-13
4.16151e-13
3.20609e-13
2.50133e-13
1.9747e-13
1.57677e-13
1.27337e-13
1.04046e-13
8.60836e-14
7.21967e-14
6.14623e-14
5.31993e-14
4.68969e-14
4.21948e-14
3.88174e-14
3.6623e-14
3.54882e-14
3.54825e-14
3.6607e-14
3.92525e-14
4.36039e-14
5.07196e-14
6.12915e-14
7.79136e-14
1.03241e-13
1.43261e-13
2.09242e-13
3.13297e-13
5.0473e-13
8.0223e-13
1.40002e-12
2.30412e-12
3.94992e-12
6.05501e-12
7.69461e-12
8.32948e-12
1.33782e-09
8.34998e-10
1.42394e-09
1.27212e-10
7.57978e-11
2.44289e-11
2.14747e-11
9.98929e-12
5.082e-12
3.31476e-12
2.33763e-12
1.6351e-12
1.15586e-12
8.42647e-13
6.30885e-13
4.80816e-13
3.71382e-13
2.90288e-13
2.29448e-13
1.83307e-13
1.48004e-13
1.2081e-13
9.97661e-14
8.34394e-14
7.0769e-14
6.0968e-14
5.34402e-14
4.77602e-14
4.35969e-14
4.07657e-14
3.91045e-14
3.86436e-14
3.93525e-14
4.15498e-14
4.5385e-14
5.17052e-14
6.11245e-14
7.55618e-14
9.72843e-14
1.30229e-13
1.83093e-13
2.62668e-13
4.01845e-13
6.09004e-13
9.90037e-13
1.54048e-12
2.41629e-12
3.44781e-12
4.09041e-12
4.1274e-12
1.15232e-09
6.75919e-10
1.41727e-09
1.30171e-10
7.75754e-11
2.44998e-11
2.28922e-11
1.13401e-11
5.69059e-12
3.6923e-12
2.63302e-12
1.86368e-12
1.32476e-12
9.68973e-13
7.28033e-13
5.568e-13
4.31338e-13
3.37943e-13
2.67612e-13
2.14107e-13
1.73055e-13
1.41355e-13
1.16769e-13
9.7659e-14
8.28036e-14
7.12951e-14
6.2442e-14
5.57481e-14
5.08262e-14
4.74533e-14
4.54394e-14
4.47973e-14
4.54951e-14
4.784e-14
5.20214e-14
5.88467e-14
6.90504e-14
8.43872e-14
1.0736e-13
1.41396e-13
1.95142e-13
2.74393e-13
4.07941e-13
6.03946e-13
9.40533e-13
1.41787e-12
2.1069e-12
2.88242e-12
3.32943e-12
3.30692e-12
9.76687e-10
5.50873e-10
1.38335e-09
1.38862e-10
7.73022e-11
2.49223e-11
2.40601e-11
1.28627e-11
6.38935e-12
4.11537e-12
2.96377e-12
2.12525e-12
1.52059e-12
1.11615e-12
8.41661e-13
6.46086e-13
5.02093e-13
3.94382e-13
3.12957e-13
2.50818e-13
2.03017e-13
1.66024e-13
1.37283e-13
1.14916e-13
9.7516e-14
8.40349e-14
7.36708e-14
6.58459e-14
6.01108e-14
5.62016e-14
5.39035e-14
5.32186e-14
5.41306e-14
5.69596e-14
6.19751e-14
7.00146e-14
8.2025e-14
9.97908e-14
1.26284e-13
1.64963e-13
2.25154e-13
3.13017e-13
4.56266e-13
6.65213e-13
1.00392e-12
1.47735e-12
2.11235e-12
2.80122e-12
3.19605e-12
3.17787e-12
8.13622e-10
4.55715e-10
1.32254e-09
1.53808e-10
7.48464e-11
2.57978e-11
2.49178e-11
1.45509e-11
7.19358e-12
4.59055e-12
3.333e-12
2.42352e-12
1.74738e-12
1.28757e-12
9.74538e-13
7.50991e-13
5.85598e-13
4.6123e-13
3.66817e-13
2.9453e-13
2.38772e-13
1.95526e-13
1.61871e-13
1.35652e-13
1.15247e-13
9.94454e-14
8.73152e-14
7.81837e-14
7.15302e-14
6.70439e-14
6.4486e-14
6.38502e-14
6.51477e-14
6.87268e-14
7.49672e-14
8.47789e-14
9.9384e-14
1.20713e-13
1.52329e-13
1.98034e-13
2.68103e-13
3.69772e-13
5.30577e-13
7.63848e-13
1.12396e-12
1.61911e-12
2.24731e-12
2.9063e-12
3.29516e-12
3.30148e-12
6.65431e-10
3.85791e-10
1.23707e-09
1.75242e-10
7.03614e-11
2.71774e-11
2.54346e-11
1.63822e-11
8.12045e-12
5.12557e-12
3.74407e-12
2.76222e-12
2.00952e-12
1.4871e-12
1.12982e-12
8.74171e-13
6.84113e-13
5.40394e-13
4.3079e-13
3.46576e-13
2.81431e-13
2.30789e-13
1.9131e-13
1.6052e-13
1.36552e-13
1.18001e-13
1.03786e-13
9.31236e-14
8.54094e-14
8.02783e-14
7.74661e-14
7.69595e-14
7.88074e-14
8.33991e-14
9.12508e-14
1.03382e-13
1.21337e-13
1.47288e-13
1.85463e-13
2.40242e-13
3.22928e-13
4.42286e-13
6.25847e-13
8.90102e-13
1.28138e-12
1.80896e-12
2.45031e-12
3.10246e-12
3.50361e-12
3.54398e-12
5.33835e-10
3.36271e-10
1.13096e-09
2.02882e-10
6.43152e-11
2.90387e-11
2.56204e-11
1.83134e-11
9.18835e-12
5.72942e-12
4.20082e-12
3.14498e-12
2.31172e-12
1.71906e-12
1.3111e-12
1.01866e-12
8.00238e-13
6.34089e-13
5.06744e-13
4.08525e-13
3.32317e-13
2.72929e-13
2.26547e-13
1.90332e-13
1.62133e-13
1.4032e-13
1.2364e-13
1.11176e-13
1.02228e-13
9.63678e-14
9.33034e-14
9.30151e-14
9.55998e-14
1.01502e-13
1.11398e-13
1.26456e-13
1.48585e-13
1.80289e-13
2.26509e-13
2.92401e-13
3.90298e-13
5.30759e-13
7.41236e-13
1.041e-12
1.46916e-12
2.0336e-12
2.69699e-12
3.35265e-12
3.77307e-12
3.8513e-12
4.19845e-10
3.02378e-10
1.00977e-09
2.35651e-10
5.74715e-11
3.1254e-11
2.55315e-11
2.02793e-11
1.04151e-11
6.41237e-12
4.70769e-12
3.57523e-12
2.65888e-12
1.98827e-12
1.52242e-12
1.18787e-12
9.36934e-13
7.44862e-13
5.96841e-13
4.82206e-13
3.92973e-13
3.23256e-13
2.68699e-13
2.26051e-13
1.92831e-13
1.67151e-13
1.47555e-13
1.3297e-13
1.22588e-13
1.15903e-13
1.12594e-13
1.12637e-13
1.16186e-13
1.23758e-13
1.36216e-13
1.54917e-13
1.82174e-13
2.2092e-13
2.76841e-13
3.56038e-13
4.7185e-13
6.36737e-13
8.77921e-13
1.21671e-12
1.68552e-12
2.28859e-12
2.97788e-12
3.64208e-12
4.08347e-12
4.19905e-12
3.2368e-10
2.79573e-10
8.80852e-10
2.71327e-10
5.08266e-11
3.35812e-11
2.52662e-11
2.21962e-11
1.18157e-11
7.18606e-12
5.26996e-12
4.05619e-12
3.05592e-12
2.29998e-12
1.76833e-12
1.38567e-12
1.09755e-12
8.75616e-13
7.03569e-13
5.69728e-13
4.6519e-13
3.83292e-13
3.19071e-13
2.68804e-13
2.29633e-13
1.99373e-13
1.76333e-13
1.59257e-13
1.47209e-13
1.39595e-13
1.36062e-13
1.36582e-13
1.4138e-13
1.51064e-13
1.6671e-13
1.89912e-13
2.23428e-13
2.7071e-13
3.38227e-13
4.33159e-13
5.69811e-13
7.62512e-13
1.03808e-12
1.41889e-12
1.93106e-12
2.5733e-12
3.28984e-12
3.96502e-12
4.42632e-12
4.5755e-12
2.44683e-10
2.6389e-10
7.52899e-10
3.06421e-10
4.54403e-11
3.57029e-11
2.4951e-11
2.39695e-11
1.33983e-11
8.06359e-12
5.89391e-12
4.59093e-12
3.50764e-12
2.65983e-12
2.05383e-12
1.61633e-12
1.28583e-12
1.02963e-12
8.29755e-13
6.73508e-13
5.51025e-13
4.54793e-13
3.7917e-13
3.19894e-13
2.73685e-13
2.38012e-13
2.10911e-13
1.90915e-13
1.76937e-13
1.68284e-13
1.64566e-13
1.65754e-13
1.72155e-13
1.84494e-13
2.04085e-13
2.32817e-13
2.73928e-13
3.31481e-13
4.1276e-13
5.26116e-13
6.86776e-13
9.10765e-13
1.2243e-12
1.64973e-12
2.20716e-12
2.88837e-12
3.63196e-12
4.31884e-12
4.79731e-12
4.97389e-12
1.81464e-10
2.52076e-10
6.33193e-10
3.36807e-10
4.21462e-11
3.7276e-11
2.47209e-11
2.55059e-11
1.51589e-11
9.05928e-12
6.58689e-12
5.18241e-12
4.01841e-12
3.07366e-12
2.38442e-12
1.88458e-12
1.50591e-12
1.21056e-12
9.78587e-13
7.96284e-13
6.5282e-13
5.39765e-13
4.50719e-13
3.80821e-13
3.26306e-13
2.84248e-13
2.5237e-13
2.28959e-13
2.12755e-13
2.02948e-13
1.99106e-13
2.01206e-13
2.0965e-13
2.25305e-13
2.49755e-13
2.85234e-13
3.35504e-13
4.05322e-13
5.02809e-13
6.37533e-13
8.25572e-13
1.08435e-12
1.43924e-12
1.91145e-12
2.51518e-12
3.2345e-12
4.00362e-12
4.70144e-12
5.19286e-12
5.38886e-12
1.32205e-10
2.41321e-10
5.25494e-10
3.58841e-10
4.14066e-11
3.79882e-11
2.46917e-11
2.6732e-11
1.70754e-11
1.01879e-11
7.35718e-12
5.83367e-12
4.59202e-12
3.54737e-12
2.76598e-12
2.19554e-12
1.7623e-12
1.42244e-12
1.1536e-12
9.4112e-13
7.73206e-13
6.40469e-13
5.35672e-13
4.53283e-13
3.88991e-13
3.39425e-13
3.01944e-13
2.74553e-13
2.5579e-13
2.44712e-13
2.40838e-13
2.44159e-13
2.55182e-13
2.74949e-13
3.05343e-13
3.48998e-13
4.10236e-13
4.94575e-13
6.10984e-13
7.70231e-13
9.89145e-13
1.28614e-12
1.68542e-12
2.20595e-12
2.85605e-12
3.61172e-12
4.40361e-12
5.10997e-12
5.60873e-12
5.81483e-12
9.48139e-11
2.29395e-10
4.31318e-10
3.70152e-10
4.34096e-11
3.7671e-11
2.49322e-11
2.76119e-11
1.91055e-11
1.14634e-11
8.21398e-12
6.54818e-12
5.23151e-12
4.08662e-12
3.20468e-12
2.55473e-12
2.05987e-12
1.66963e-12
1.3587e-12
1.11141e-12
9.15113e-13
7.59427e-13
6.3621e-13
5.39182e-13
4.63424e-13
4.05056e-13
3.61026e-13
3.29011e-13
3.07316e-13
2.9485e-13
2.91073e-13
2.95997e-13
3.10249e-13
3.35077e-13
3.72689e-13
4.2617e-13
5.00435e-13
6.01801e-13
7.40079e-13
9.27151e-13
1.18043e-12
1.51882e-12
1.96495e-12
2.53454e-12
3.22993e-12
4.01909e-12
4.82966e-12
5.54038e-12
6.03956e-12
6.24517e-12
6.70952e-11
2.15013e-10
3.51233e-10
3.69856e-10
4.81711e-11
3.63971e-11
2.54473e-11
2.81564e-11
2.11865e-11
1.28973e-11
9.16736e-12
7.33013e-12
5.93923e-12
4.69664e-12
3.70692e-12
2.96804e-12
2.40383e-12
1.95683e-12
1.59808e-12
1.31086e-12
1.08176e-12
8.99427e-13
7.5475e-13
6.40631e-13
5.51472e-13
4.82823e-13
4.31164e-13
3.93797e-13
3.68761e-13
3.5479e-13
3.51284e-13
3.58276e-13
3.76532e-13
4.0753e-13
4.53836e-13
5.19021e-13
6.08613e-13
7.29736e-13
8.92999e-13
1.11124e-12
1.40222e-12
1.78475e-12
2.27939e-12
2.89774e-12
3.63601e-12
4.45448e-12
5.27816e-12
5.98733e-12
6.47851e-12
6.67215e-12
4.69773e-11
1.97791e-10
2.84971e-10
3.58454e-10
5.5491e-11
3.44588e-11
2.61767e-11
2.84203e-11
2.324e-11
1.44956e-11
1.02279e-11
8.18472e-12
6.71704e-12
5.38195e-12
4.27913e-12
3.4417e-12
2.7997e-12
2.28903e-12
1.8763e-12
1.54351e-12
1.27667e-12
1.06351e-12
8.93934e-13
7.5994e-13
6.55182e-13
5.74573e-13
5.1406e-13
4.70523e-13
4.41692e-13
4.26106e-13
4.23091e-13
4.32711e-13
4.55878e-13
4.9433e-13
5.51007e-13
6.29995e-13
7.3743e-13
8.81212e-13
1.07265e-12
1.32532e-12
1.657e-12
2.08575e-12
2.62953e-12
3.29506e-12
4.0723e-12
4.91441e-12
5.74409e-12
6.44404e-12
6.91731e-12
7.08698e-12
3.26412e-11
1.78063e-10
2.31467e-10
3.37599e-10
6.4845e-11
3.22801e-11
2.70059e-11
2.84925e-11
2.5181e-11
1.62545e-11
1.14065e-11
9.11821e-12
7.56653e-12
6.14615e-12
4.92755e-12
3.98216e-12
3.2533e-12
2.67151e-12
2.19814e-12
1.81366e-12
1.50361e-12
1.25497e-12
1.05662e-12
8.99615e-13
7.76774e-13
6.82304e-13
6.11559e-13
5.60935e-13
5.27811e-13
5.10506e-13
5.08255e-13
5.21157e-13
5.50282e-13
5.97645e-13
6.6657e-13
7.61656e-13
8.89624e-13
1.05906e-12
1.28184e-12
1.57192e-12
1.94674e-12
2.42292e-12
3.01519e-12
3.72487e-12
4.53552e-12
5.39396e-12
6.22096e-12
6.90232e-12
7.34659e-12
7.4798e-12
2.25772e-11
1.56706e-10
1.89075e-10
3.09745e-10
7.53522e-11
3.03242e-11
2.77891e-11
2.84776e-11
2.69315e-11
1.8157e-11
1.27132e-11
1.01379e-11
8.48955e-12
6.99187e-12
5.65796e-12
4.59604e-12
3.77071e-12
3.10973e-12
2.56864e-12
2.12586e-12
1.76661e-12
1.47731e-12
1.24587e-12
1.06233e-12
9.1862e-13
8.08157e-13
7.25633e-13
6.66898e-13
6.28935e-13
6.09808e-13
6.08648e-13
6.25587e-13
6.61856e-13
7.19752e-13
8.02979e-13
9.16625e-13
1.06792e-12
1.26601e-12
1.52309e-12
1.85315e-12
2.27276e-12
2.79645e-12
3.4351e-12
4.18423e-12
5.02104e-12
5.88684e-12
6.70091e-12
7.35284e-12
7.75591e-12
7.83993e-12
1.55851e-11
1.3495e-10
1.55862e-10
2.77675e-10
8.5861e-11
2.90136e-11
2.83919e-11
2.84748e-11
2.8435e-11
2.01706e-11
1.41565e-11
1.12519e-11
9.48859e-12
7.92079e-12
6.47552e-12
5.28998e-12
4.35824e-12
3.6094e-12
2.99303e-12
2.48488e-12
2.06992e-12
1.73425e-12
1.46492e-12
1.25093e-12
1.08323e-12
9.54387e-13
8.58354e-13
7.90372e-13
7.46967e-13
7.25916e-13
7.26224e-13
7.48049e-13
7.92776e-13
8.62978e-13
9.62708e-13
1.09748e-12
1.27492e-12
1.50452e-12
1.79852e-12
2.17046e-12
2.63552e-12
3.20544e-12
3.88673e-12
4.66887e-12
5.52285e-12
6.38542e-12
7.17489e-12
7.78528e-12
8.13416e-12
8.15646e-12
1.07571e-11
1.13943e-10
1.29902e-10
2.44151e-10
9.51395e-11
2.86614e-11
2.87397e-11
2.85595e-11
2.96672e-11
2.22483e-11
1.57418e-11
1.2469e-11
1.05674e-11
8.93408e-12
7.38457e-12
6.07054e-12
5.02243e-12
4.17643e-12
3.47672e-12
2.8957e-12
2.418e-12
2.0297e-12
1.71717e-12
1.46836e-12
1.27321e-12
1.12334e-12
1.01188e-12
9.33384e-13
8.83873e-13
8.60788e-13
8.62984e-13
8.90625e-13
9.45237e-13
1.02964e-12
1.14817e-12
1.30667e-12
1.51298e-12
1.77668e-12
2.10967e-12
2.52455e-12
3.03449e-12
3.64787e-12
4.36629e-12
5.17322e-12
6.03371e-12
6.88096e-12
7.6329e-12
8.1887e-12
8.47003e-12
8.41841e-12
7.4386e-12
9.44015e-11
1.0945e-10
2.11538e-10
1.0215e-10
2.94127e-11
2.88379e-11
2.87709e-11
3.06395e-11
2.43319e-11
1.7469e-11
1.37985e-11
1.17312e-11
1.00328e-11
8.38856e-12
6.94398e-12
5.77001e-12
4.81694e-12
4.02529e-12
3.36344e-12
2.81547e-12
2.36772e-12
2.00615e-12
1.71773e-12
1.49129e-12
1.31744e-12
1.18841e-12
1.098e-12
1.04164e-12
1.01639e-12
1.02092e-12
1.05537e-12
1.12138e-12
1.22195e-12
1.36162e-12
1.54638e-12
1.78409e-12
2.08404e-12
2.45738e-12
2.9152e-12
3.46808e-12
4.12047e-12
4.86873e-12
5.69047e-12
6.54525e-12
7.36383e-12
8.06434e-12
8.55193e-12
8.75234e-12
8.61534e-12
5.16119e-12
7.67872e-11
9.30361e-11
1.81378e-10
1.06264e-10
3.12382e-11
2.8769e-11
2.91069e-11
3.13942e-11
2.63606e-11
1.93301e-11
1.52485e-11
1.29864e-11
1.12183e-11
9.49004e-12
7.91613e-12
6.60779e-12
5.5373e-12
4.64445e-12
3.89336e-12
3.26709e-12
2.75252e-12
2.33551e-12
2.00217e-12
1.74021e-12
1.53913e-12
1.39016e-12
1.28627e-12
1.22222e-12
1.19464e-12
1.20196e-12
1.24427e-12
1.32323e-12
1.44196e-12
1.60506e-12
1.81847e-12
2.08974e-12
2.42751e-12
2.84164e-12
3.34119e-12
3.93351e-12
4.61876e-12
5.38781e-12
6.21276e-12
7.04829e-12
7.82383e-12
8.4584e-12
8.864e-12
8.97056e-12
8.73777e-12
3.5942e-12
6.14409e-11
7.95219e-11
1.54432e-10
1.07317e-10
3.39644e-11
2.86742e-11
2.95384e-11
3.19943e-11
2.828e-11
2.13077e-11
1.6826e-11
1.43408e-11
1.24931e-11
1.06909e-11
8.99214e-12
7.54255e-12
6.34404e-12
5.34009e-12
4.49078e-12
3.77772e-12
3.18841e-12
2.70898e-12
2.3249e-12
2.02275e-12
1.79085e-12
1.61933e-12
1.5002e-12
1.42751e-12
1.39738e-12
1.40793e-12
1.45912e-12
1.55258e-12
1.69143e-12
1.88012e-12
2.12429e-12
2.43079e-12
2.80719e-12
3.26151e-12
3.8002e-12
4.42689e-12
5.13712e-12
5.91624e-12
6.73139e-12
7.53304e-12
8.25052e-12
8.8044e-12
9.1145e-12
9.11518e-12
8.77763e-12
2.51159e-12
4.84914e-11
6.80996e-11
1.30972e-10
1.05556e-10
3.73031e-11
2.87147e-11
3.00288e-11
3.25096e-11
3.0051e-11
2.3375e-11
1.85355e-11
1.58028e-11
1.3861e-11
1.19925e-11
1.01764e-11
8.58089e-12
7.24383e-12
6.11821e-12
5.16113e-12
4.35226e-12
3.67971e-12
3.1303e-12
2.68912e-12
2.34167e-12
2.07498e-12
1.87799e-12
1.74169e-12
1.65928e-12
1.62627e-12
1.64042e-12
1.70149e-12
1.81096e-12
1.97175e-12
2.18796e-12
2.46459e-12
2.8074e-12
3.22233e-12
3.71502e-12
4.28882e-12
4.94317e-12
5.66888e-12
6.44585e-12
7.23702e-12
7.98944e-12
8.63356e-12
9.09222e-12
9.29403e-12
9.17812e-12
8.7286e-12
1.76029e-12
3.78552e-11
5.82379e-11
1.10944e-10
1.01512e-10
4.08939e-11
2.90311e-11
3.05514e-11
3.30042e-11
3.16556e-11
2.54973e-11
2.03773e-11
1.7381e-11
1.53271e-11
1.33968e-11
1.14725e-11
9.72905e-12
8.24347e-12
6.98495e-12
5.90986e-12
4.99561e-12
4.23079e-12
3.60324e-12
3.09801e-12
2.69962e-12
2.39379e-12
2.16813e-12
2.01247e-12
1.91906e-12
1.88274e-12
1.90079e-12
1.97263e-12
2.09947e-12
2.28384e-12
2.52918e-12
2.83946e-12
3.21887e-12
3.67121e-12
4.19919e-12
4.80258e-12
5.4763e-12
6.20647e-12
6.96786e-12
7.72001e-12
8.40748e-12
8.96308e-12
9.31263e-12
9.39453e-12
9.15308e-12
8.58655e-12
1.23658e-12
2.9308e-11
4.96115e-11
9.40745e-11
9.5844e-11
4.43658e-11
2.9716e-11
3.1101e-11
3.35277e-11
3.30978e-11
2.76363e-11
2.23468e-11
1.90833e-11
1.68984e-11
1.49058e-11
1.28835e-11
1.09928e-11
9.3497e-12
7.94659e-12
6.74247e-12
5.71266e-12
4.84595e-12
4.13146e-12
3.55462e-12
3.09915e-12
2.74939e-12
2.49151e-12
2.31403e-12
2.20816e-12
2.16792e-12
2.19e-12
2.27336e-12
2.41875e-12
2.62804e-12
2.90367e-12
3.24817e-12
3.66361e-12
4.15114e-12
4.70999e-12
5.33598e-12
6.01933e-12
6.74165e-12
7.47305e-12
8.17065e-12
8.77748e-12
9.22996e-12
9.4576e-12
9.40958e-12
9.03583e-12
8.34974e-12
8.70067e-13
2.25561e-11
4.20331e-11
7.99714e-11
8.91998e-11
4.73989e-11
3.08002e-11
3.16967e-11
3.41126e-11
3.44012e-11
2.97554e-11
2.44336e-11
2.09163e-11
1.85829e-11
1.65231e-11
1.44118e-11
1.23772e-11
1.05691e-11
9.00948e-12
7.66448e-12
6.50822e-12
5.52939e-12
4.71855e-12
4.06191e-12
3.54262e-12
3.14366e-12
2.84962e-12
2.64759e-12
2.52754e-12
2.48257e-12
2.50861e-12
2.60403e-12
2.76885e-12
3.00403e-12
3.3106e-12
3.68915e-12
4.13912e-12
4.65844e-12
5.2424e-12
5.88264e-12
6.56456e-12
7.26571e-12
7.95209e-12
8.57952e-12
9.09044e-12
9.42619e-12
9.52065e-12
9.33474e-12
8.82448e-12
8.01917e-12
6.12794e-13
1.72917e-11
3.53926e-11
6.82067e-11
8.21385e-11
4.97688e-11
3.22532e-11
3.23769e-11
3.47772e-11
3.56022e-11
3.1825e-11
2.66216e-11
2.28843e-11
2.03892e-11
1.82534e-11
1.60601e-11
1.38867e-11
1.1908e-11
1.01799e-11
8.68142e-12
7.38698e-12
6.28512e-12
5.36787e-12
4.62258e-12
4.03214e-12
3.5782e-12
3.24365e-12
3.01396e-12
2.87774e-12
2.82696e-12
2.85666e-12
2.96438e-12
3.14919e-12
3.41076e-12
3.74829e-12
4.15994e-12
4.64192e-12
5.18848e-12
5.79054e-12
6.4354e-12
7.1038e-12
7.7697e-12
8.39578e-12
8.93768e-12
9.33832e-12
9.54511e-12
9.49705e-12
9.16768e-12
8.51965e-12
7.59867e-12
4.31828e-13
1.32266e-11
2.96153e-11
5.83756e-11
7.50843e-11
5.13662e-11
3.39931e-11
3.31863e-11
3.55309e-11
3.67429e-11
3.38271e-11
2.88902e-11
2.49883e-11
2.23255e-11
2.01027e-11
1.7831e-11
1.55251e-11
1.33721e-11
1.14641e-11
9.7987e-12
8.35347e-12
7.11692e-12
6.08251e-12
5.23904e-12
4.56948e-12
4.05423e-12
3.67436e-12
3.41354e-12
3.2588e-12
3.20084e-12
3.23358e-12
3.35351e-12
3.55844e-12
3.84639e-12
4.21424e-12
4.65716e-12
5.16763e-12
5.73573e-12
6.34772e-12
6.98654e-12
7.62851e-12
8.2447e-12
8.79532e-12
9.23702e-12
9.51423e-12
9.58162e-12
9.38406e-12
8.90843e-12
8.12465e-12
7.09507e-12
3.04402e-13
1.01083e-11
2.46405e-11
5.01257e-11
6.83183e-11
5.21872e-11
3.59029e-11
3.41597e-11
3.63797e-11
3.78639e-11
3.57562e-11
3.12168e-11
2.72253e-11
2.43994e-11
2.20781e-11
1.97277e-11
1.72954e-11
1.49663e-11
1.28678e-11
1.10215e-11
9.41194e-12
8.02823e-12
6.86519e-12
5.91333e-12
5.15601e-12
4.57251e-12
4.14202e-12
3.84617e-12
3.67022e-12
3.60334e-12
3.63814e-12
3.76979e-12
3.9945e-12
4.30822e-12
4.70501e-12
5.17654e-12
5.711e-12
6.29389e-12
6.90663e-12
7.52793e-12
8.13008e-12
8.68207e-12
9.14256e-12
9.47046e-12
9.61274e-12
9.53245e-12
9.18104e-12
8.55946e-12
7.64551e-12
6.51822e-12
2.14681e-13
7.72428e-12
2.04096e-11
4.31678e-11
6.2005e-11
5.23051e-11
3.78542e-11
3.5313e-11
3.73304e-11
3.90012e-11
3.76188e-11
3.35795e-11
2.95884e-11
2.66164e-11
2.41869e-11
2.17544e-11
1.92004e-11
1.66948e-11
1.43962e-11
1.23549e-11
1.05664e-11
9.02204e-12
7.71815e-12
6.64697e-12
5.79257e-12
5.13329e-12
4.64633e-12
4.31111e-12
4.11083e-12
4.03291e-12
4.06838e-12
4.21081e-12
4.45444e-12
4.7927e-12
5.21634e-12
5.71296e-12
6.26597e-12
6.85601e-12
7.45954e-12
8.05129e-12
8.60006e-12
9.07365e-12
9.43024e-12
9.63217e-12
9.63002e-12
9.39625e-12
8.88964e-12
8.12578e-12
7.09104e-12
5.88095e-12
1.51559e-13
5.90385e-12
1.68526e-11
3.72725e-11
5.6225e-11
5.18376e-11
3.97291e-11
3.66416e-11
3.8392e-11
4.01836e-11
3.94312e-11
3.59602e-11
3.2067e-11
2.89796e-11