/*--------------------------------*- C++ -*----------------------------------*\
  =========                 |
  \\      /  F ield         | OpenFOAM: The Open Source CFD Toolbox
   \\    /   O peration     | Website:  https://openfoam.org
    \\  /    A nd           | Version:  7
     \\/     M anipulation  |
\*---------------------------------------------------------------------------*/
FoamFile
{
    version     2.0;
    format      ascii;
    class       volScalarField;
    location    "0.12";
    object      p;
}
// * * * * * * * * * * * * * * * * * * * * * * * * * * * * * * * * * * * * * //

dimensions      [0 2 -2 0 0 0 0];

internalField   nonuniform List<scalar> 
70000
(
0.127709
0.0502536
0.0377335
0.0401806
0.0403541
0.0393025
0.0383703
0.0376696
0.0370897
0.0365828
0.0361355
0.0357397
0.0353878
0.0350731
0.0347901
0.0345344
0.0343024
0.0340912
0.0338982
0.0337213
0.0335589
0.0334093
0.0332713
0.0331438
0.0330258
0.0329165
0.0328152
0.0327212
0.032634
0.032553
0.0324778
0.032408
0.0323431
0.0322827
0.0322268
0.0321748
0.0321267
0.0320822
0.0320414
0.0320049
0.0319714
0.0319457
0.0319197
0.0319136
0.031894
0.0319309
0.031907
0.0320564
0.0319679
0.0324681
0.123341
0.0506205
0.0379365
0.0402761
0.0404087
0.0393385
0.0383985
0.0376928
0.0371092
0.0365995
0.03615
0.0357526
0.0353993
0.0350834
0.0347995
0.034543
0.0343104
0.0340985
0.033905
0.0337278
0.0335649
0.033415
0.0332767
0.0331489
0.0330306
0.0329211
0.0328196
0.0327254
0.032638
0.0325568
0.0324815
0.0324115
0.0323465
0.032286
0.0322299
0.0321777
0.0321295
0.0320849
0.0320439
0.0320073
0.0319736
0.0319478
0.0319216
0.0319153
0.0318953
0.031932
0.0319078
0.0320554
0.0319721
0.0324996
0.11976
0.0515604
0.0382769
0.0404052
0.0404829
0.0393832
0.0384308
0.037719
0.037131
0.0366179
0.0361659
0.0357665
0.0354117
0.0350946
0.0348096
0.0345523
0.0343189
0.0341064
0.0339124
0.0337346
0.0335713
0.033421
0.0332823
0.0331542
0.0330357
0.032926
0.0328242
0.0327298
0.0326422
0.0325609
0.0324854
0.0324152
0.03235
0.0322894
0.0322332
0.0321809
0.0321325
0.0320878
0.0320467
0.0320099
0.031976
0.0319501
0.0319236
0.0319171
0.0318968
0.0319332
0.0319086
0.0320542
0.0319898
0.0325207
0.116666
0.0526623
0.0387465
0.0405792
0.0405838
0.0394408
0.038469
0.0377489
0.0371555
0.0366384
0.0361833
0.0357816
0.035425
0.0351065
0.0348203
0.034562
0.0343278
0.0341147
0.03392
0.0337417
0.033578
0.0334272
0.0332882
0.0331598
0.033041
0.032931
0.032829
0.0327344
0.0326466
0.0325651
0.0324894
0.032419
0.0323537
0.032293
0.0322366
0.0321842
0.0321357
0.0320908
0.0320496
0.0320127
0.0319786
0.0319526
0.0319258
0.0319192
0.0318986
0.0319345
0.0319105
0.0320517
0.0320191
0.0325325
0.113707
0.0537588
0.0393125
0.0407999
0.0407184
0.0395187
0.038518
0.037786
0.0371855
0.036663
0.0362039
0.0357992
0.0354403
0.03512
0.0348324
0.0345729
0.0343377
0.0341238
0.0339284
0.0337495
0.0335852
0.033434
0.0332946
0.0331658
0.0330467
0.0329363
0.0328341
0.0327392
0.0326512
0.0325695
0.0324937
0.0324231
0.0323577
0.0322968
0.0322403
0.0321877
0.0321391
0.0320942
0.0320528
0.0320159
0.0319817
0.0319555
0.0319287
0.0319218
0.0319012
0.0319362
0.0319144
0.0320493
0.0320565
0.0325455
0.110798
0.0547978
0.0399278
0.041047
0.0408807
0.0396186
0.0385804
0.0378324
0.0372229
0.0366934
0.0362291
0.0358205
0.0354587
0.0351361
0.0348467
0.0345857
0.0343493
0.0341343
0.033938
0.0337583
0.0335934
0.0334417
0.0333017
0.0331725
0.033053
0.0329423
0.0328398
0.0327446
0.0326564
0.0325745
0.0324984
0.0324277
0.0323621
0.0323011
0.0322444
0.0321918
0.0321431
0.0320981
0.0320566
0.0320196
0.0319854
0.0319592
0.0319324
0.0319253
0.0319052
0.0319389
0.0319212
0.0320486
0.0320993
0.0325628
0.107933
0.0557605
0.0405587
0.0412991
0.0410576
0.0397357
0.0386552
0.037888
0.0372679
0.0367303
0.0362597
0.0358463
0.0354809
0.0351555
0.0348638
0.0346009
0.034363
0.0341466
0.0339493
0.0337687
0.033603
0.0334505
0.03331
0.0331802
0.0330603
0.0329492
0.0328462
0.0327508
0.0326623
0.0325801
0.0325038
0.0324329
0.0323671
0.0323059
0.0322492
0.0321965
0.0321477
0.0321027
0.0320612
0.0320243
0.0319901
0.031964
0.0319374
0.0319303
0.0319111
0.0319434
0.0319317
0.0320515
0.0321459
0.0325852
0.105118
0.0566386
0.0411892
0.0415442
0.0412381
0.0398636
0.038739
0.0379509
0.0373195
0.0367732
0.0362954
0.0358766
0.0355071
0.0351783
0.034884
0.0346189
0.0343791
0.0341613
0.0339626
0.0337809
0.0336142
0.0334609
0.0333196
0.0331892
0.0330687
0.0329571
0.0328537
0.0327579
0.032669
0.0325865
0.03251
0.0324389
0.032373
0.0323116
0.0322548
0.032202
0.0321532
0.0321082
0.0320669
0.03203
0.0319961
0.0319702
0.0319441
0.0319371
0.0319195
0.0319505
0.0319465
0.0320595
0.0321948
0.0326133
0.10236
0.0574295
0.0418142
0.0417783
0.0414162
0.0399974
0.0388284
0.0380183
0.0373757
0.0368204
0.0363353
0.0359108
0.0355368
0.0352045
0.0349072
0.0346397
0.0343978
0.0341782
0.033978
0.033795
0.0336271
0.0334729
0.0333308
0.0331996
0.0330784
0.0329662
0.0328624
0.0327661
0.0326768
0.032594
0.0325172
0.0324459
0.0323797
0.0323183
0.0322614
0.0322086
0.0321598
0.0321149
0.0320737
0.0320372
0.0320036
0.0319781
0.0319529
0.0319462
0.0319309
0.0319607
0.0319661
0.0320739
0.0322449
0.0326473
0.0996627
0.058133
0.0424325
0.0420011
0.0415888
0.0401343
0.0389213
0.0380883
0.0374345
0.0368706
0.0363781
0.0359478
0.0355692
0.0352332
0.0349329
0.0346628
0.0344187
0.0341972
0.0339954
0.033811
0.0336419
0.0334865
0.0333435
0.0332115
0.0330895
0.0329767
0.0328723
0.0327755
0.0326858
0.0326026
0.0325255
0.0324539
0.0323876
0.032326
0.032269
0.0322162
0.0321675
0.0321229
0.0320819
0.0320458
0.0320128
0.031988
0.0319639
0.0319578
0.0319457
0.0319747
0.0319908
0.0320956
0.0322955
0.0326858
0.0970292
0.0587493
0.0430433
0.0422135
0.0417545
0.040273
0.0390167
0.0381599
0.0374948
0.0369225
0.0364228
0.0359867
0.0356035
0.0352638
0.0349604
0.0346877
0.0344414
0.0342179
0.0340145
0.0338285
0.0336582
0.0335017
0.0333576
0.0332247
0.033102
0.0329885
0.0328834
0.0327861
0.0326959
0.0326124
0.0325349
0.0324631
0.0323965
0.0323348
0.0322778
0.0322251
0.0321765
0.0321322
0.0320916
0.0320561
0.0320238
0.0319999
0.0319774
0.0319722
0.0319638
0.0319928
0.0320203
0.0321246
0.0323462
0.0327275
0.0944627
0.059279
0.0436452
0.0424164
0.0419126
0.0404124
0.0391143
0.0382325
0.037556
0.0369755
0.0364687
0.0360268
0.0356391
0.0352958
0.0349892
0.0347139
0.0344654
0.03424
0.0340348
0.0338474
0.0336757
0.033518
0.0333729
0.0332391
0.0331155
0.0330013
0.0328956
0.0327977
0.0327071
0.0326231
0.0325453
0.0324732
0.0324065
0.0323447
0.0322877
0.0322351
0.0321867
0.0321428
0.0321027
0.0320679
0.0320366
0.0320138
0.0319932
0.0319893
0.0319854
0.0320152
0.0320541
0.0321604
0.0323967
0.0327708
0.0919657
0.0597224
0.0442362
0.042611
0.0420621
0.0405519
0.0392138
0.038306
0.0376178
0.0370293
0.0365155
0.0360678
0.0356755
0.0353285
0.035019
0.0347411
0.0344903
0.0342629
0.0340561
0.0338672
0.0336942
0.0335353
0.0333892
0.0332544
0.03313
0.0330151
0.0329087
0.0328103
0.0327192
0.0326348
0.0325566
0.0324843
0.0324174
0.0323556
0.0322986
0.0322461
0.032198
0.0321545
0.0321151
0.0320812
0.0320511
0.0320296
0.0320113
0.032009
0.03201
0.0320415
0.0320915
0.0322019
0.0324466
0.0328142
0.0895407
0.0600804
0.0448138
0.0427988
0.0422027
0.0406906
0.0393153
0.0383803
0.0376801
0.0370837
0.0365629
0.0361094
0.0357126
0.035362
0.0350494
0.0347689
0.0345158
0.0342866
0.034078
0.0338876
0.0337133
0.0335533
0.0334061
0.0332704
0.0331452
0.0330295
0.0329225
0.0328235
0.0327319
0.0326471
0.0325686
0.0324961
0.032429
0.0323672
0.0323102
0.032258
0.0322103
0.0321673
0.0321286
0.0320957
0.032067
0.0320469
0.0320312
0.0320309
0.032037
0.0320712
0.0321315
0.0322475
0.0324959
0.0328564
0.0871902
0.0603543
0.0453751
0.0429812
0.0423339
0.0408276
0.0394184
0.0384555
0.0377427
0.0371387
0.0366109
0.0361517
0.0357503
0.0353959
0.0350803
0.0347972
0.0345419
0.0343107
0.0341005
0.0339086
0.0337329
0.0335717
0.0334235
0.0332869
0.0331609
0.0330444
0.0329368
0.0328373
0.0327452
0.03266
0.0325812
0.0325084
0.0324413
0.0323794
0.0323226
0.0322706
0.0322233
0.0321809
0.0321431
0.0321112
0.032084
0.0320656
0.0320527
0.0320545
0.032066
0.0321036
0.0321733
0.0322957
0.032544
0.0328965
0.084916
0.0605458
0.0459171
0.0431598
0.0424556
0.0409619
0.0395231
0.0385315
0.0378056
0.037194
0.0366596
0.0361945
0.0357885
0.0354304
0.0351117
0.034826
0.0345685
0.0343353
0.0341234
0.03393
0.033753
0.0335906
0.0334413
0.0333038
0.0331769
0.0330598
0.0329515
0.0328514
0.0327589
0.0326733
0.0325942
0.0325213
0.032454
0.0323921
0.0323354
0.0322837
0.0322368
0.0321951
0.0321582
0.0321274
0.0321019
0.0320852
0.0320752
0.0320796
0.0320962
0.0321379
0.0322158
0.0323448
0.0325907
0.0329338
0.08272
0.0606568
0.0464365
0.0433359
0.0425675
0.0410925
0.039629
0.0386085
0.0378687
0.0372498
0.0367087
0.0362378
0.0358271
0.0354653
0.0351435
0.0348552
0.0345954
0.0343603
0.0341466
0.0339517
0.0337734
0.0336099
0.0334595
0.0333211
0.0331934
0.0330755
0.0329666
0.0328659
0.0327729
0.0326869
0.0326076
0.0325344
0.032467
0.0324052
0.0323486
0.0322972
0.0322508
0.0322098
0.0321738
0.0321443
0.0321204
0.0321056
0.0320985
0.0321056
0.0321273
0.0321735
0.0322585
0.0323937
0.0326356
0.0329683
0.0806033
0.0606899
0.0469305
0.0435108
0.04267
0.0412184
0.0397358
0.0386863
0.037932
0.0373058
0.0367584
0.0362817
0.0358663
0.0355007
0.0351758
0.0348848
0.0346228
0.0343857
0.0341703
0.0339739
0.0337942
0.0336295
0.033478
0.0333386
0.0332101
0.0330915
0.0329819
0.0328807
0.0327872
0.0327009
0.0326212
0.0325479
0.0324804
0.0324186
0.0323622
0.0323111
0.0322652
0.0322249
0.0321899
0.0321615
0.0321394
0.0321265
0.0321223
0.0321323
0.0321588
0.0322096
0.0323007
0.0324415
0.0326784
0.0329999
0.0785667
0.0606481
0.0473961
0.0436853
0.0427631
0.0413386
0.0398429
0.038765
0.0379954
0.0373619
0.0368084
0.036326
0.0359059
0.0355366
0.0352085
0.0349149
0.0346506
0.0344115
0.0341943
0.0339963
0.0338153
0.0336494
0.0334969
0.0333565
0.0332271
0.0331078
0.0329975
0.0328958
0.0328018
0.0327151
0.0326351
0.0325616
0.032494
0.0324323
0.032376
0.0323253
0.0322799
0.0322403
0.0322063
0.0321791
0.0321588
0.0321477
0.0321465
0.0321594
0.0321904
0.0322459
0.032342
0.0324874
0.0327191
0.033029
0.0766107
0.0605347
0.0478305
0.0438599
0.0428473
0.0414523
0.03995
0.0388446
0.0380588
0.0374182
0.0368589
0.0363708
0.035946
0.0355728
0.0352417
0.0349454
0.0346787
0.0344376
0.0342187
0.0340192
0.0338368
0.0336696
0.033516
0.0333747
0.0332444
0.0331243
0.0330134
0.0329111
0.0328166
0.0327295
0.0326493
0.0325755
0.0325079
0.0324462
0.0323901
0.0323397
0.0322948
0.0322559
0.032223
0.032197
0.0321784
0.0321693
0.0321709
0.0321868
0.0322219
0.0322819
0.0323823
0.0325313
0.0327575
0.0330558
0.0747352
0.0603537
0.0482311
0.0440349
0.0429234
0.0415585
0.0400563
0.0389249
0.0381223
0.0374744
0.0369095
0.036416
0.0359864
0.0356095
0.0352752
0.0349762
0.0347073
0.0344641
0.0342434
0.0340423
0.0338586
0.0336901
0.0335355
0.0333931
0.033262
0.0331411
0.0330296
0.0329267
0.0328317
0.0327442
0.0326637
0.0325897
0.032522
0.0324603
0.0324044
0.0323543
0.03231
0.0322718
0.0322399
0.0322152
0.0321983
0.0321911
0.0321953
0.0322143
0.0322532
0.0323175
0.0324214
0.0325729
0.0327938
0.0330807
0.0729398
0.0601096
0.0485953
0.0442102
0.0429919
0.0416566
0.0401612
0.039006
0.0381858
0.0375304
0.0369604
0.0364616
0.0360272
0.0356465
0.0353091
0.0350075
0.0347362
0.034491
0.0342685
0.0340659
0.0338807
0.033711
0.0335552
0.0334119
0.0332799
0.0331582
0.033046
0.0329425
0.0328471
0.0327592
0.0326783
0.0326042
0.0325363
0.0324747
0.0324189
0.0323692
0.0323254
0.0322879
0.032257
0.0322335
0.0322183
0.0322131
0.0322199
0.0322417
0.0322842
0.0323524
0.0324591
0.0326122
0.0328279
0.0331038
0.0712236
0.0598069
0.0489209
0.0443851
0.0430537
0.0417461
0.0402638
0.0390876
0.0382493
0.0375862
0.0370113
0.0365074
0.0360684
0.0356839
0.0353433
0.035039
0.0347654
0.0345182
0.0342939
0.0340897
0.0339031
0.0337321
0.0335752
0.0334309
0.0332981
0.0331756
0.0330627
0.0329586
0.0328626
0.0327743
0.0326932
0.0326188
0.0325509
0.0324892
0.0324337
0.0323843
0.032341
0.0323042
0.0322743
0.0322521
0.0322385
0.0322352
0.0322444
0.0322691
0.0323147
0.0323865
0.0324955
0.0326493
0.0328599
0.0331254
0.0695855
0.0594507
0.049206
0.0445588
0.0431098
0.0418266
0.0403634
0.0391694
0.0383128
0.0376416
0.0370622
0.0365535
0.0361099
0.0357215
0.0353779
0.0350709
0.034795
0.0345458
0.0343197
0.0341138
0.0339258
0.0337536
0.0335956
0.0334503
0.0333165
0.0331932
0.0330796
0.0329749
0.0328785
0.0327897
0.0327083
0.0326337
0.0325657
0.032504
0.0324487
0.0323996
0.0323568
0.0323207
0.0322918
0.0322707
0.0322587
0.0322573
0.0322689
0.0322963
0.0323448
0.0324196
0.0325304
0.0326843
0.0328898
0.0331456
0.0680237
0.0590464
0.0494489
0.04473
0.043161
0.0418978
0.040459
0.0392512
0.0383762
0.0376966
0.0371129
0.0365997
0.0361516
0.0357595
0.0354127
0.0351032
0.0348249
0.0345736
0.0343457
0.0341383
0.0339488
0.0337754
0.0336162
0.0334699
0.0333352
0.0332111
0.0330968
0.0329915
0.0328945
0.0328054
0.0327236
0.0326488
0.0325806
0.032519
0.0324638
0.032415
0.0323728
0.0323374
0.0323094
0.0322896
0.0322791
0.0322795
0.0322932
0.0323232
0.0323743
0.0324518
0.0325638
0.0327171
0.0329177
0.0331644
0.0665364
0.0585994
0.0496482
0.044897
0.0432084
0.0419599
0.0405499
0.0393326
0.0384396
0.0377511
0.0371633
0.036646
0.0361935
0.0357976
0.0354478
0.0351356
0.0348551
0.0346018
0.0343721
0.034163
0.0339722
0.0337974
0.0336371
0.0334897
0.0333541
0.0332293
0.0331142
0.0330083
0.0329108
0.0328212
0.0327391
0.0326641
0.0325958
0.0325342
0.0324792
0.0324307
0.0323889
0.0323542
0.0323271
0.0323085
0.0322994
0.0323016
0.0323174
0.0323497
0.0324032
0.0324828
0.0325957
0.0327478
0.0329436
0.0331817
0.0651215
0.0581153
0.0498033
0.0450579
0.0432528
0.042013
0.0406351
0.0394131
0.0385029
0.037805
0.0372133
0.0366922
0.0362356
0.035836
0.0354831
0.0351684
0.0348856
0.0346302
0.0343987
0.0341881
0.0339958
0.0338197
0.0336582
0.0335098
0.0333733
0.0332476
0.0331319
0.0330253
0.0329273
0.0328373
0.0327548
0.0326796
0.0326112
0.0325496
0.0324947
0.0324465
0.0324052
0.0323712
0.032345
0.0323274
0.0323198
0.0323236
0.0323413
0.0323758
0.0324313
0.0325127
0.032626
0.0327765
0.0329675
0.0331975
0.0637765
0.0575998
0.0499136
0.0452104
0.043295
0.0420574
0.040714
0.0394921
0.0385659
0.0378584
0.0372627
0.0367383
0.0362778
0.0358745
0.0355186
0.0352013
0.0349163
0.0346589
0.0344256
0.0342134
0.0340196
0.0338423
0.0336797
0.0335302
0.0333928
0.0332663
0.0331498
0.0330426
0.032944
0.0328536
0.0327708
0.0326952
0.0326268
0.0325652
0.0325104
0.0324625
0.0324216
0.0323883
0.0323629
0.0323464
0.0323401
0.0323455
0.032365
0.0324014
0.0324587
0.0325413
0.0326547
0.0328032
0.0329894
0.0332117
0.0624987
0.0570583
0.0499794
0.045352
0.0433356
0.0420937
0.0407858
0.039569
0.0386287
0.037911
0.0373114
0.0367841
0.0363199
0.0359131
0.0355542
0.0352344
0.0349472
0.0346879
0.0344528
0.0342389
0.0340437
0.0338651
0.0337013
0.0335508
0.0334125
0.0332851
0.0331679
0.0330601
0.0329609
0.03287
0.0327869
0.0327111
0.0326425
0.0325809
0.0325262
0.0324786
0.0324382
0.0324054
0.0323809
0.0323654
0.0323604
0.0323672
0.0323883
0.0324263
0.0324851
0.0325686
0.0326816
0.0328279
0.0330092
0.0332242
0.0612853
0.0564963
0.0500012
0.0454801
0.043375
0.0421226
0.04085
0.0396432
0.0386909
0.0379629
0.0373594
0.0368294
0.036362
0.0359517
0.0355899
0.0352677
0.0349782
0.034717
0.0344801
0.0342647
0.0340681
0.0338882
0.0337232
0.0335717
0.0334324
0.0333042
0.0331862
0.0330777
0.0329781
0.0328867
0.0328032
0.0327272
0.0326584
0.0325968
0.0325422
0.0324948
0.0324548
0.0324226
0.0323989
0.0323844
0.0323804
0.0323886
0.0324111
0.0324506
0.0325105
0.0325946
0.0327069
0.0328505
0.033027
0.0332349
0.0601333
0.0559188
0.0499801
0.0455924
0.0434133
0.0421447
0.0409062
0.0397139
0.0387523
0.0380141
0.0374064
0.0368742
0.0364038
0.0359903
0.0356257
0.035301
0.0350094
0.0347462
0.0345077
0.0342906
0.0340926
0.0339114
0.0337453
0.0335927
0.0334525
0.0333234
0.0332047
0.0330956
0.0329954
0.0329035
0.0328196
0.0327434
0.0326745
0.0326128
0.0325583
0.0325111
0.0324715
0.0324399
0.0324168
0.0324032
0.0324003
0.0324097
0.0324335
0.0324742
0.0325349
0.0326191
0.0327303
0.0328712
0.0330427
0.0332437
0.0590397
0.0553305
0.0499179
0.0456867
0.04345
0.0421609
0.0409542
0.0397804
0.0388126
0.0380644
0.0374524
0.0369183
0.0364454
0.0360288
0.0356613
0.0353343
0.0350407
0.0347756
0.0345353
0.0343168
0.0341173
0.0339349
0.0337676
0.033614
0.0334728
0.0333429
0.0332234
0.0331136
0.0330128
0.0329205
0.0328363
0.0327597
0.0326906
0.0326289
0.0325745
0.0325275
0.0324882
0.0324571
0.0324347
0.0324219
0.03242
0.0324304
0.0324553
0.0324969
0.0325581
0.0326422
0.032752
0.0328897
0.0330563
0.0332504
0.0580015
0.0547358
0.0498165
0.0457612
0.0434845
0.0421719
0.0409939
0.0398421
0.0388713
0.0381139
0.0374974
0.0369616
0.0364865
0.0360671
0.0356969
0.0353676
0.035072
0.0348051
0.0345632
0.034343
0.0341422
0.0339585
0.03379
0.0336354
0.0334932
0.0333625
0.0332423
0.0331318
0.0330305
0.0329377
0.032853
0.0327762
0.0327069
0.0326451
0.0325907
0.0325439
0.032505
0.0324742
0.0324524
0.0324404
0.0324393
0.0324507
0.0324764
0.0325186
0.0325802
0.0326637
0.0327717
0.0329062
0.0330676
0.033255
0.0570156
0.0541383
0.0496786
0.0458143
0.0435157
0.0421782
0.0410256
0.0398982
0.038928
0.0381623
0.0375412
0.0370038
0.036527
0.0361051
0.0357324
0.0354008
0.0351033
0.0348346
0.034591
0.0343694
0.0341672
0.0339822
0.0338127
0.033657
0.0335139
0.0333823
0.0332613
0.0331502
0.0330482
0.0329549
0.0328699
0.0327927
0.0327232
0.0326613
0.032607
0.0325603
0.0325216
0.0324913
0.03247
0.0324586
0.0324583
0.0324704
0.0324967
0.0325394
0.0326009
0.0326835
0.0327896
0.0329205
0.0330768
0.0332573
0.0560789
0.0535415
0.049507
0.0458447
0.0435426
0.0421804
0.0410493
0.0399482
0.0389822
0.0382096
0.0375837
0.0370449
0.0365668
0.0361427
0.0357676
0.0354339
0.0351345
0.0348641
0.0346189
0.0343959
0.0341923
0.0340061
0.0338354
0.0336786
0.0335346
0.0334022
0.0332805
0.0331686
0.0330661
0.0329723
0.0328868
0.0328093
0.0327396
0.0326776
0.0326233
0.0325767
0.0325382
0.0325083
0.0324874
0.0324766
0.0324768
0.0324894
0.0325162
0.0325591
0.0326202
0.0327017
0.0328055
0.0329327
0.0330836
0.0332573
0.0551884
0.0529483
0.0493048
0.0458517
0.0435637
0.0421789
0.0410656
0.0399916
0.0390333
0.0382555
0.0376249
0.0370847
0.0366057
0.0361798
0.0358024
0.0354667
0.0351655
0.0348936
0.0346468
0.0344223
0.0342174
0.03403
0.0338582
0.0337004
0.0335555
0.0334222
0.0332997
0.0331872
0.0330841
0.0329897
0.0329038
0.032826
0.0327561
0.0326939
0.0326395
0.032593
0.0325547
0.032525
0.0325046
0.0324941
0.0324948
0.0325078
0.0325349
0.0325777
0.0326381
0.0327181
0.0328193
0.0329425
0.033088
0.0332548
0.0543413
0.0523611
0.0490753
0.0458348
0.0435774
0.0421739
0.0410749
0.0400282
0.0390807
0.0382996
0.0376647
0.0371232
0.0366435
0.0362162
0.0358369
0.0354992
0.0351964
0.0349228
0.0346747
0.0344488
0.0342426
0.034054
0.033881
0.0337223
0.0335764
0.0334423
0.033319
0.0332058
0.0331021
0.0330072
0.0329209
0.0328427
0.0327725
0.0327102
0.0326557
0.0326093
0.0325711
0.0325416
0.0325214
0.0325112
0.0325122
0.0325255
0.0325525
0.032595
0.0326545
0.0327328
0.0328311
0.0329501
0.03309
0.0332498
0.0535348
0.051782
0.0488218
0.0457939
0.0435823
0.0421652
0.0410775
0.0400577
0.0391239
0.0383418
0.037703
0.0371601
0.0366802
0.0362519
0.0358708
0.0355314
0.0352269
0.0349519
0.0347024
0.0344751
0.0342677
0.0340779
0.0339039
0.0337442
0.0335973
0.0334624
0.0333383
0.0332245
0.0331201
0.0330247
0.032938
0.0328594
0.0327889
0.0327264
0.0326718
0.0326253
0.0325872
0.0325578
0.0325378
0.0325278
0.0325289
0.0325423
0.0325691
0.032611
0.0326693
0.0327455
0.0328407
0.0329554
0.0330896
0.0332423
0.0527664
0.0512125
0.0485477
0.0457294
0.043577
0.0421527
0.0410741
0.04008
0.0391623
0.0383816
0.0377397
0.0371955
0.0367155
0.0362866
0.0359041
0.0355631
0.0352571
0.0349807
0.0347299
0.0345014
0.0342927
0.0341018
0.0339268
0.033766
0.0336183
0.0334825
0.0333577
0.0332431
0.0331382
0.0330423
0.032955
0.0328761
0.0328053
0.0327425
0.0326878
0.0326412
0.032603
0.0325737
0.0325537
0.0325439
0.032545
0.0325581
0.0325846
0.0326255
0.0326824
0.0327563
0.0328481
0.0329583
0.0330866
0.0332321
0.0520334
0.0506539
0.048256
0.045642
0.0435602
0.042136
0.0410651
0.0400952
0.0391955
0.0384187
0.0377745
0.0372291
0.0367494
0.0363202
0.0359367
0.0355942
0.0352868
0.0350092
0.0347571
0.0345274
0.0343176
0.0341256
0.0339495
0.0337878
0.0336392
0.0335026
0.033377
0.0332618
0.0331562
0.0330597
0.032972
0.0328926
0.0328215
0.0327584
0.0327035
0.0326568
0.0326186
0.0325892
0.0325692
0.0325592
0.0325602
0.032573
0.0325988
0.0326386
0.0326938
0.0327651
0.0328534
0.0329587
0.033081
0.0332192
0.0513336
0.0501072
0.0479499
0.0455327
0.0435307
0.0421144
0.0410506
0.0401035
0.0392231
0.0384524
0.0378073
0.037261
0.0367816
0.0363526
0.0359684
0.0356246
0.035316
0.0350372
0.034784
0.0345532
0.0343423
0.0341493
0.0339722
0.0338095
0.0336601
0.0335226
0.0333963
0.0332804
0.0331741
0.0330771
0.0329888
0.0329091
0.0328376
0.0327742
0.032719
0.0326721
0.0326337
0.0326042
0.0325841
0.0325739
0.0325745
0.0325868
0.0326117
0.0326502
0.0327033
0.0327718
0.0328563
0.0329567
0.0330728
0.0332036
0.0506649
0.049573
0.0476321
0.0454028
0.043488
0.0420873
0.0410311
0.0401049
0.0392448
0.0384826
0.0378378
0.0372909
0.036812
0.0363836
0.035999
0.0356543
0.0353446
0.0350648
0.0348105
0.0345787
0.0343667
0.0341727
0.0339946
0.0338311
0.0336808
0.0335425
0.0334155
0.0332988
0.033192
0.0330943
0.0330056
0.0329253
0.0328534
0.0327897
0.0327342
0.0326871
0.0326485
0.0326187
0.0325983
0.0325878
0.0325879
0.0325994
0.0326232
0.0326601
0.032711
0.0327764
0.0328569
0.0329522
0.0330619
0.0331852
0.0500252
0.0490517
0.0473051
0.0452538
0.0434313
0.0420538
0.0410065
0.0400999
0.0392604
0.0385086
0.0378658
0.0373188
0.0368406
0.036413
0.0360284
0.0356831
0.0353725
0.0350917
0.0348365
0.0346037
0.0343909
0.0341958
0.0340169
0.0338525
0.0337013
0.0335623
0.0334345
0.0333171
0.0332096
0.0331114
0.0330221
0.0329414
0.032869
0.0328049
0.0327491
0.0327016
0.0326627
0.0326326
0.0326118
0.0326008
0.0326002
0.0326108
0.0326332
0.0326683
0.0327167
0.0327789
0.0328551
0.0329451
0.0330484
0.0331641
0.0494126
0.0485436
0.0469713
0.0450873
0.0433605
0.0420134
0.0409769
0.0400885
0.0392697
0.0385301
0.0378909
0.0373444
0.0368671
0.0364406
0.0360565
0.0357108
0.0353995
0.0351179
0.0348619
0.0346283
0.0344145
0.0342187
0.0340388
0.0338736
0.0337216
0.0335818
0.0334532
0.0333352
0.0332271
0.0331283
0.0330384
0.0329572
0.0328843
0.0328198
0.0327636
0.0327157
0.0326763
0.0326458
0.0326244
0.0326128
0.0326114
0.0326208
0.0326417
0.0326748
0.0327205
0.0327791
0.0328508
0.0329354
0.0330322
0.0331402
0.0488254
0.0480487
0.0466327
0.044905
0.0432755
0.0419651
0.0409421
0.0400711
0.0392727
0.0385468
0.0379128
0.0373677
0.0368916
0.0364664
0.0360831
0.0357374
0.0354256
0.0351433
0.0348867
0.0346523
0.0344378
0.034241
0.0340604
0.0338943
0.0337416
0.033601
0.0334718
0.0333531
0.0332442
0.0331448
0.0330544
0.0329726
0.0328993
0.0328343
0.0327775
0.0327292
0.0326893
0.0326582
0.0326362
0.0326238
0.0326213
0.0326294
0.0326486
0.0326794
0.0327221
0.0327771
0.0328442
0.0329231
0.0330132
0.0331135
0.0482619
0.0475669
0.046291
0.0447088
0.0431767
0.0419084
0.0409018
0.0400478
0.0392694
0.0385584
0.0379311
0.0373883
0.0369137
0.0364902
0.036108
0.0357626
0.0354505
0.0351679
0.0349106
0.0346756
0.0344604
0.034263
0.0340816
0.0339147
0.0337612
0.0336199
0.03349
0.0333706
0.0332611
0.0331611
0.03307
0.0329877
0.0329138
0.0328482
0.032791
0.0327421
0.0327016
0.0326698
0.0326471
0.0326336
0.03263
0.0326366
0.0326538
0.0326821
0.0327217
0.0327727
0.032835
0.0329082
0.0329916
0.0330841
0.0477208
0.0470982
0.0459478
0.0445003
0.0430645
0.0418428
0.0408558
0.0400188
0.03926
0.0385646
0.0379456
0.0374061
0.0369335
0.0365118
0.0361311
0.0357864
0.0354743
0.0351914
0.0349337
0.0346982
0.0344824
0.0342843
0.0341022
0.0339347
0.0337804
0.0336384
0.0335078
0.0333877
0.0332776
0.0331769
0.0330852
0.0330023
0.0329278
0.0328617
0.0328038
0.0327542
0.0327131
0.0326806
0.0326569
0.0326423
0.0326373
0.0326422
0.0326572
0.0326828
0.0327191
0.032766
0.0328234
0.0328907
0.0329673
0.033052
0.0472006
0.0466423
0.0456044
0.0442812
0.0429394
0.0417679
0.0408037
0.0399842
0.0392444
0.0385653
0.0379559
0.0374208
0.0369506
0.0365312
0.0361522
0.0358085
0.0354968
0.0352137
0.0349558
0.0347199
0.0345036
0.0343049
0.0341222
0.033954
0.0337991
0.0336564
0.0335251
0.0334044
0.0332936
0.0331923
0.0331
0.0330164
0.0329413
0.0328745
0.0328159
0.0327657
0.0327237
0.0326903
0.0326655
0.0326497
0.0326432
0.0326461
0.0326589
0.0326815
0.0327143
0.0327569
0.0328092
0.0328706
0.0329403
0.0330172
0.0467
0.0461988
0.0452619
0.044053
0.0428023
0.0416835
0.0407453
0.0399439
0.0392229
0.0385604
0.0379617
0.0374321
0.0369651
0.0365481
0.0361712
0.0358288
0.0355177
0.0352348
0.0349768
0.0347407
0.034524
0.0343249
0.0341416
0.0339728
0.0338172
0.0336739
0.0335419
0.0334205
0.0333091
0.0332071
0.0331142
0.0330299
0.0329541
0.0328866
0.0328273
0.0327762
0.0327334
0.0326989
0.032673
0.0326558
0.0326475
0.0326484
0.0326586
0.0326782
0.0327072
0.0327455
0.0327926
0.0328479
0.0329107
0.0329797
0.046218
0.0457676
0.0449212
0.0438173
0.042654
0.0415897
0.0406801
0.039898
0.0391954
0.0385498
0.0379629
0.0374398
0.0369765
0.0365624
0.0361879
0.0358472
0.035537
0.0352545
0.0349966
0.0347604
0.0345434
0.0343439
0.0341602
0.0339908
0.0338347
0.0336908
0.0335581
0.0334361
0.033324
0.0332213
0.0331277
0.0330427
0.0329662
0.032898
0.0328378
0.0327859
0.032742
0.0327064
0.0326791
0.0326604
0.0326502
0.0326489
0.0326564
0.0326727
0.0326979
0.0327316
0.0327734
0.0328226
0.0328784
0.0329397
0.0457533
0.0453481
0.0445832
0.0435754
0.0424955
0.0414864
0.0406081
0.0398462
0.0391622
0.0385334
0.0379591
0.0374437
0.0369849
0.036574
0.0362022
0.0358635
0.0355546
0.0352727
0.035015
0.0347788
0.0345618
0.034362
0.0341779
0.034008
0.0338514
0.0337069
0.0335737
0.033451
0.0333382
0.0332349
0.0331405
0.0330548
0.0329775
0.0329084
0.0328474
0.0327945
0.0327495
0.0327127
0.0326839
0.0326635
0.0326513
0.0326475
0.0326521
0.0326651
0.0326863
0.0327153
0.0327517
0.0327948
0.0328437
0.0328973
0.0453051
0.0449402
0.0442483
0.0433286
0.0423277
0.041374
0.0405289
0.0397887
0.0391232
0.0385114
0.0379503
0.0374435
0.0369899
0.0365828
0.0362139
0.0358775
0.0355701
0.0352892
0.035032
0.034796
0.034579
0.034379
0.0341946
0.0340244
0.0338673
0.0337222
0.0335884
0.0334651
0.0333517
0.0332476
0.0331526
0.0330661
0.032988
0.032918
0.032856
0.032802
0.0327559
0.0327176
0.0326873
0.0326649
0.0326506
0.0326442
0.0326459
0.0326553
0.0326723
0.0326966
0.0327275
0.0327644
0.0328064
0.0328524
0.0448723
0.0445435
0.0439173
0.0430779
0.0421516
0.0412528
0.0404424
0.0397251
0.0390785
0.0384837
0.0379363
0.0374389
0.0369914
0.0365884
0.0362229
0.0358891
0.0355836
0.0353038
0.0350473
0.0348117
0.0345948
0.0343948
0.0342102
0.0340397
0.0338822
0.0337366
0.0336023
0.0334783
0.0333643
0.0332595
0.0331637
0.0330764
0.0329974
0.0329265
0.0328635
0.0328083
0.0327609
0.0327212
0.0326891
0.0326648
0.0326481
0.032639
0.0326375
0.0326433
0.0326561
0.0326755
0.0327009
0.0327316
0.0327667
0.0328051
0.0444541
0.0441575
0.0435904
0.0428244
0.0419681
0.0411233
0.0403488
0.0396555
0.0390281
0.0384504
0.0379171
0.0374299
0.0369891
0.0365909
0.036229
0.0358982
0.0355948
0.0353165
0.0350609
0.0348259
0.0346093
0.0344094
0.0342247
0.0340539
0.033896
0.03375
0.0336151
0.0334906
0.0333759
0.0332705
0.0331739
0.0330858
0.0330059
0.032934
0.0328698
0.0328134
0.0327646
0.0327232
0.0326893
0.0326629
0.0326437
0.0326318
0.032627
0.032629
0.0326375
0.0326519
0.0326718
0.0326964
0.0327247
0.0327557
0.0440498
0.0437819
0.043268
0.042569
0.0417782
0.0409859
0.040248
0.0395798
0.0389721
0.0384115
0.0378926
0.0374162
0.0369829
0.03659
0.0362321
0.0359045
0.0356036
0.035327
0.0350726
0.0348383
0.0346222
0.0344225
0.0342378
0.0340669
0.0339087
0.0337623
0.033627
0.0335019
0.0333865
0.0332804
0.033183
0.033094
0.0330131
0.0329402
0.0328749
0.0328171
0.0327668
0.0327237
0.0326879
0.0326592
0.0326375
0.0326226
0.0326144
0.0326125
0.0326165
0.032626
0.0326404
0.0326588
0.0326804
0.0327041
0.0436585
0.0434164
0.0429504
0.0423124
0.0415828
0.0408412
0.0401402
0.039498
0.0389104
0.038367
0.0378627
0.0373977
0.0369726
0.0365855
0.0362321
0.035908
0.0356099
0.0353353
0.0350823
0.0348489
0.0346334
0.0344341
0.0342495
0.0340785
0.0339201
0.0337734
0.0336376
0.033512
0.033396
0.0332891
0.0331909
0.033101
0.0330192
0.0329451
0.0328785
0.0328194
0.0327674
0.0327226
0.0326847
0.0326536
0.0326292
0.0326113
0.0325995
0.0325937
0.0325933
0.0325978
0.0326066
0.0326189
0.0326339
0.0326506
0.0432796
0.0430606
0.0426378
0.0420554
0.0413827
0.0406899
0.0400256
0.0394101
0.038843
0.038317
0.0378276
0.0373744
0.036958
0.0365773
0.0362287
0.0359085
0.0356134
0.0353411
0.0350898
0.0348576
0.0346428
0.0344439
0.0342596
0.0340887
0.0339302
0.0337832
0.033647
0.0335208
0.0334042
0.0332966
0.0331976
0.0331068
0.0330239
0.0329486
0.0328807
0.0328201
0.0327664
0.0327197
0.0326796
0.0326461
0.0326189
0.0325978
0.0325825
0.0325726
0.0325677
0.0325672
0.0325705
0.0325769
0.0325854
0.0325951
0.0429125
0.0427142
0.0423302
0.0417985
0.0411788
0.0405325
0.0399045
0.0393161
0.03877
0.0382616
0.0377872
0.0373461
0.036939
0.0365652
0.0362219
0.0359059
0.0356141
0.0353444
0.0350949
0.0348641
0.0346503
0.034452
0.0342681
0.0340973
0.0339387
0.0337915
0.0336549
0.0335283
0.0334111
0.0333027
0.0332029
0.0331111
0.0330271
0.0329506
0.0328814
0.0328191
0.0327638
0.032715
0.0326727
0.0326366
0.0326065
0.0325822
0.0325632
0.0325493
0.0325399
0.0325344
0.0325323
0.0325327
0.0325349
0.0325378
0.0425564
0.0423768
0.042028
0.0415424
0.0409716
0.0403696
0.0397773
0.0392162
0.0386915
0.0382008
0.0377415
0.0373129
0.0369156
0.0365491
0.0362115
0.0359
0.0356118
0.0353449
0.0350976
0.0348683
0.0346556
0.0344582
0.0342747
0.0341042
0.0339456
0.0337982
0.0336613
0.0335343
0.0334164
0.0333074
0.0332067
0.0331139
0.0330288
0.032951
0.0328804
0.0328165
0.0327593
0.0327085
0.0326638
0.0326251
0.0325921
0.0325644
0.0325418
0.0325237
0.0325098
0.0324994
0.0324918
0.0324865
0.0324825
0.0324789
0.042211
0.0420481
0.041731
0.0412874
0.040762
0.0402019
0.0396444
0.0391105
0.0386074
0.0381347
0.0376906
0.0372747
0.0368875