/*--------------------------------*- C++ -*----------------------------------*\
  =========                 |
  \\      /  F ield         | OpenFOAM: The Open Source CFD Toolbox
   \\    /   O peration     | Website:  https://openfoam.org
    \\  /    A nd           | Version:  7
     \\/     M anipulation  |
\*---------------------------------------------------------------------------*/
FoamFile
{
    version     2.0;
    format      ascii;
    class       surfaceScalarField;
    location    "0.12";
    object      phi;
}
// * * * * * * * * * * * * * * * * * * * * * * * * * * * * * * * * * * * * * //

dimensions      [0 3 -1 0 0 0 0];

internalField   nonuniform List<scalar> 
139350
(
6.45123e-08
9.21192e-08
3.19653e-08
3.2547e-08
2.30606e-08
8.90474e-09
1.95763e-08
3.48425e-09
1.76248e-08
1.95151e-09
1.61948e-08
1.43e-09
1.50618e-08
1.13298e-09
1.41491e-08
9.12693e-10
1.3398e-08
7.51122e-10
1.27651e-08
6.32912e-10
1.22216e-08
5.43516e-10
1.17481e-08
4.73456e-10
1.1331e-08
4.17123e-10
1.096e-08
3.70985e-10
1.06274e-08
3.32633e-10
1.0327e-08
3.00344e-10
1.00542e-08
2.72856e-10
9.80495e-09
2.49223e-10
9.57622e-09
2.28727e-10
9.36541e-09
2.10812e-10
9.17037e-09
1.95042e-10
8.9893e-09
1.8107e-10
8.82068e-09
1.68616e-10
8.66323e-09
1.57451e-10
8.51584e-09
1.47388e-10
8.37757e-09
1.38271e-10
8.24761e-09
1.29967e-10
8.12524e-09
1.22369e-10
8.00986e-09
1.15376e-10
7.90095e-09
1.08915e-10
7.79805e-09
1.02899e-10
7.70076e-09
9.729e-11
7.60877e-09
9.1989e-11
7.52176e-09
8.70074e-11
7.43956e-09
8.2197e-11
7.36191e-09
7.76569e-11
7.28878e-09
7.31309e-11
7.21992e-09
6.88554e-11
7.15549e-09
6.44299e-11
7.09531e-09
6.01803e-11
7.03953e-09
5.5781e-11
6.98851e-09
5.10216e-11
6.94145e-09
4.70555e-11
6.90128e-09
4.01706e-11
6.86242e-09
3.88567e-11
6.83816e-09
2.4265e-11
6.8017e-09
3.64598e-11
6.82316e-09
-2.14592e-11
6.62842e-09
1.94739e-10
-3.05597e-09
9.68439e-09
1.25943e-07
1.27619e-07
9.12912e-08
6.71992e-08
7.19405e-08
2.82554e-08
6.12274e-08
1.41973e-08
5.47933e-08
8.38562e-09
5.03002e-08
5.92316e-09
4.68168e-08
4.61639e-09
4.40037e-08
3.72571e-09
4.16802e-08
3.07463e-09
3.97207e-08
2.59246e-09
3.80379e-08
2.22634e-09
3.65717e-08
1.9396e-09
3.52796e-08
1.70922e-09
3.413e-08
1.52057e-09
3.30989e-08
1.36374e-09
3.21676e-08
1.23168e-09
3.13212e-08
1.11923e-09
3.05479e-08
1.02253e-09
2.9838e-08
9.38664e-10
2.91834e-08
8.65346e-10
2.85777e-08
8.00799e-10
2.80151e-08
7.43606e-10
2.74911e-08
6.92623e-10
2.70017e-08
6.46918e-10
2.65433e-08
6.05726e-10
2.61132e-08
5.6841e-10
2.57087e-08
5.34436e-10
2.53277e-08
5.03356e-10
2.49683e-08
4.74777e-10
2.46289e-08
4.48381e-10
2.43079e-08
4.23848e-10
2.40042e-08
4.00968e-10
2.37168e-08
3.79419e-10
2.34447e-08
3.59138e-10
2.31872e-08
3.39668e-10
2.29436e-08
3.21226e-10
2.27138e-08
3.02971e-10
2.24969e-08
2.85702e-10
2.22936e-08
2.67742e-10
2.21028e-08
2.5098e-10
2.19263e-08
2.32311e-10
2.17622e-08
2.15099e-10
2.16144e-08
1.94897e-10
2.14797e-08
1.74858e-10
2.13643e-08
1.54275e-10
2.12668e-08
1.21729e-10
2.1183e-08
1.20304e-10
2.11804e-08
-1.88474e-11
2.10037e-08
3.71377e-10
-3.7176e-09
2.16653e-08
1.58752e-07
1.35271e-07
1.36528e-07
8.94233e-08
1.17498e-07
4.72857e-08
1.03325e-07
2.837e-08
9.33366e-08
1.83744e-08
8.60417e-08
1.32181e-08
8.03392e-08
1.03188e-08
7.56925e-08
8.37241e-09
7.18189e-08
6.94828e-09
6.85303e-08
5.88096e-09
6.56935e-08
5.06323e-09
6.32134e-08
4.41968e-09
6.10215e-08
3.90105e-09
5.90668e-08
3.47528e-09
5.73101e-08
3.12052e-09
5.57205e-08
2.82121e-09
5.42738e-08
2.56594e-09
5.29502e-08
2.34612e-09
5.17337e-08
2.15522e-09
5.06108e-08
1.98818e-09
4.95707e-08
1.84098e-09
4.86038e-08
1.71045e-09
4.77024e-08
1.59402e-09
4.68597e-08
1.48959e-09
4.607e-08
1.39544e-09
4.53283e-08
1.31012e-09
4.46303e-08
1.23244e-09
4.39723e-08
1.16137e-09
4.3351e-08
1.09605e-09
4.27637e-08
1.03573e-09
4.22078e-08
9.79733e-10
4.16812e-08
9.27527e-10
4.11822e-08
8.78462e-10
4.0709e-08
8.32291e-10
4.02606e-08
7.88134e-10
3.98355e-08
7.46287e-10
3.94334e-08
7.05085e-10
3.9053e-08
6.66114e-10
3.86951e-08
6.25676e-10
3.83577e-08
5.88364e-10
3.80441e-08
5.45852e-10
3.77501e-08
5.09154e-10
3.74843e-08
4.60622e-10
3.72363e-08
4.22893e-10
3.70262e-08
3.64351e-10
3.68329e-08
3.15055e-10
3.66857e-08
2.67546e-10
3.66048e-08
6.19913e-11
3.65262e-08
4.49975e-10
-3.44349e-09
3.62521e-08
1.75611e-07
1.31175e-07
1.65624e-07
9.94101e-08
1.52739e-07
6.01712e-08
1.40135e-07
4.09742e-08
1.29461e-07
2.90483e-08
1.20829e-07
2.185e-08
1.13724e-07
1.74239e-08
1.0775e-07
1.43463e-08
1.02656e-07
1.2042e-08
9.826e-08
1.02774e-08
9.44206e-08
8.90255e-09
9.10327e-08
7.80765e-09
8.80161e-08
6.91759e-09
8.53095e-08
6.18187e-09
8.28647e-08
5.56538e-09
8.06431e-08
5.04281e-09
7.86137e-08
4.59532e-09
7.67511e-08
4.20869e-09
7.50344e-08
3.87195e-09
7.3446e-08
3.57653e-09
7.19714e-08
3.31565e-09
7.05979e-08
3.08388e-09
6.93152e-08
2.8768e-09
6.8114e-08
2.69079e-09
6.69865e-08
2.52289e-09
6.5926e-08
2.3706e-09
6.49266e-08
2.23183e-09
6.39832e-08
2.1048e-09
6.30913e-08
1.98801e-09
6.22468e-08
1.88015e-09
6.14465e-08
1.78004e-09
6.06873e-08
1.68673e-09
5.99667e-08
1.59914e-09
5.92822e-08
1.51675e-09
5.86322e-08
1.43817e-09
5.80147e-08
1.36372e-09
5.74291e-08
1.29074e-09
5.68735e-08
1.22171e-09
5.63487e-08
1.15048e-09
5.58521e-08
1.08494e-09
5.53878e-08
1.0102e-09
5.49499e-08
9.47022e-10
5.45498e-08
8.60698e-10
5.41734e-08
7.99306e-10
5.3847e-08
6.90716e-10
5.35423e-08
6.19827e-10
5.33021e-08
5.07752e-10
5.31187e-08
2.45336e-10
5.30422e-08
5.26443e-10
-2.93527e-09
5.2534e-08
1.8451e-07
1.2345e-07
1.82341e-07
1.01579e-07
1.76123e-07
6.63889e-08
1.6777e-07
4.93274e-08
1.59157e-07
3.76615e-08
1.51259e-07
2.97479e-08
1.44195e-07
2.4488e-08
1.37903e-07
2.06378e-08
1.32311e-07
1.76342e-08
1.27333e-07
1.52552e-08
1.22884e-07
1.33521e-08
1.18885e-07
1.18058e-08
1.15274e-07
1.05291e-08
1.11995e-07
9.46055e-09
1.09005e-07
8.55595e-09
1.06265e-07
7.78257e-09
1.03745e-07
7.11553e-09
1.01418e-07
6.53564e-09
9.92618e-08
6.02791e-09
9.72579e-08
5.58043e-09
9.53898e-08
5.18369e-09
9.36437e-08
4.82997e-09
9.20076e-08
4.51296e-09
9.04709e-08
4.22745e-09
8.90247e-08
3.96911e-09
8.7661e-08
3.7343e-09
8.63729e-08
3.51996e-09
8.51542e-08
3.32347e-09
8.39996e-08
3.14259e-09
8.29044e-08
2.97538e-09
8.18643e-08
2.82011e-09
8.08757e-08
2.67532e-09
7.99354e-08
2.53946e-09
7.90405e-08
2.41165e-09
7.81887e-08
2.28995e-09
7.73778e-08
2.17463e-09
7.66065e-08
2.06202e-09
7.58728e-08
1.95542e-09
7.51771e-08
1.84617e-09
7.45167e-08
1.74539e-09
7.38953e-08
1.6316e-09
7.33071e-08
1.53517e-09
7.27633e-08
1.40451e-09
7.22505e-08
1.31212e-09
7.17932e-08
1.14798e-09
7.1368e-08
1.04506e-09
7.10112e-08
8.64541e-10
7.07191e-08
5.3747e-10
7.05521e-08
6.93433e-10
-2.3593e-09
6.99761e-08
1.90342e-07
1.15325e-07
1.91859e-07
1.00062e-07
1.90264e-07
6.79844e-08
1.86161e-07
5.34296e-08
1.80728e-07
4.30952e-08
1.74983e-07
3.54927e-08
1.69294e-07
3.01765e-08
1.63819e-07
2.61133e-08
1.58653e-07
2.28004e-08
1.53837e-07
2.00708e-08
1.49374e-07
1.78149e-08
1.45247e-07
1.59327e-08
1.41432e-07
1.43445e-08
1.37902e-07
1.2991e-08
1.3463e-07
1.18277e-08
1.31592e-07
1.08204e-08
1.28766e-07
9.94204e-09
1.2613e-07
9.17126e-09
1.23667e-07
8.49085e-09
1.21361e-07
7.88692e-09
1.19196e-07
7.34811e-09
1.17161e-07
6.86507e-09
1.15244e-07
6.43005e-09
1.13435e-07
6.03653e-09
1.11725e-07
5.67909e-09
1.10106e-07
5.35309e-09
1.08571e-07
5.0546e-09
1.07115e-07
4.78023e-09
1.0573e-07
4.52708e-09
1.04413e-07
4.29258e-09
1.03159e-07
4.07448e-09
1.01963e-07
3.87081e-09
1.00823e-07
3.67957e-09
9.97352e-08
3.4995e-09
9.8697e-08
3.32811e-09
9.7706e-08
3.16559e-09
9.67607e-08
3.00733e-09
9.58589e-08
2.85722e-09
9.50007e-08
2.70442e-09
9.41834e-08
2.56269e-09
9.34101e-08
2.40492e-09
9.2676e-08
2.26922e-09
9.199e-08
2.09056e-09
9.13428e-08
1.95935e-09
9.07514e-08
1.73932e-09
9.02054e-08
1.59112e-09
8.97222e-08
1.34767e-09
8.93185e-08
9.41183e-10
8.90296e-08
9.82346e-10
-1.70572e-09
8.8376e-08
1.95504e-07
1.07635e-07
1.98247e-07
9.73195e-08
1.98986e-07
6.72453e-08
1.97793e-07
5.46221e-08
1.95163e-07
4.5726e-08
1.91828e-07
3.8827e-08
1.88103e-07
3.39015e-08
1.8416e-07
3.00567e-08
1.80148e-07
2.68122e-08
1.76177e-07
2.40416e-08
1.72315e-07
2.16774e-08
1.68599e-07
1.96487e-08
1.65049e-07
1.78943e-08
1.61674e-07
1.63666e-08
1.58472e-07
1.50289e-08
1.55441e-07
1.38516e-08
1.52573e-07
1.28103e-08
1.49859e-07
1.18851e-08
1.47291e-07
1.10594e-08
1.44858e-07
1.03194e-08
1.42553e-07
9.65349e-09
1.40366e-07
9.05191e-09
1.3829e-07
8.50639e-09
1.36316e-07
8.00989e-09
1.34439e-07
7.55639e-09
1.32651e-07
7.14069e-09
1.30948e-07
6.75837e-09
1.29322e-07
6.40551e-09
1.27771e-07
6.07875e-09
1.26288e-07
5.77508e-09
1.24871e-07
5.49183e-09
1.23515e-07
5.22668e-09
1.22217e-07
4.97721e-09
1.20975e-07
4.74185e-09
1.19785e-07
4.51769e-09
1.18646e-07
4.30474e-09
1.17556e-07
4.09764e-09
1.16512e-07
3.90067e-09
1.15516e-07
3.7013e-09
1.14563e-07
3.51501e-09
1.13657e-07
3.31078e-09
1.12795e-07
3.13142e-09
1.11982e-07
2.90377e-09
1.11214e-07
2.72704e-09
1.105e-07
2.4539e-09
1.09842e-07
2.24872e-09
1.0924e-07
1.94989e-09
1.08725e-07
1.45596e-09
1.08318e-07
1.38953e-09
-9.65298e-10
1.07577e-07
2.00819e-07
1.00401e-07
2.03772e-07
9.43672e-08
2.05345e-07
6.56716e-08
2.05647e-07
5.432e-08
2.04819e-07
4.65542e-08
2.03344e-07
4.03026e-08
2.01401e-07
3.5844e-08
1.99077e-07
3.23812e-08
1.96477e-07
2.94122e-08
1.93703e-07
2.68147e-08
1.90837e-07
2.45437e-08
1.87937e-07
2.25486e-08
1.85048e-07
2.07838e-08
1.822e-07
1.92144e-08
1.79415e-07
1.78133e-08
1.76709e-07
1.65583e-08
1.74089e-07
1.54305e-08
1.71559e-07
1.44141e-08
1.69124e-07
1.34953e-08
1.66781e-07
1.26621e-08
1.6453e-07
1.19045e-08
1.62368e-07
1.12136e-08
1.60293e-07
1.05816e-08
1.58301e-07
1.00018e-08
1.56389e-07
9.46851e-09
1.54553e-07
8.97643e-09
1.5279e-07
8.52114e-09
1.51097e-07
8.09864e-09
1.49471e-07
7.70543e-09
1.47907e-07
7.33835e-09
1.46405e-07
6.99454e-09
1.4496e-07
6.67148e-09
1.4357e-07
6.36655e-09
1.42234e-07
6.07799e-09
1.40949e-07
5.80257e-09
1.39714e-07
5.54018e-09
1.38527e-07
5.28497e-09
1.37386e-07
5.04131e-09
1.36292e-07
4.79567e-09
1.35242e-07
4.56422e-09
1.34239e-07
4.31397e-09
1.33281e-07
4.08924e-09
1.32371e-07
3.81419e-09
1.3151e-07
3.58805e-09
1.30698e-07
3.26625e-09
1.29949e-07
2.99716e-09
1.2925e-07
2.64898e-09
1.28636e-07
2.0702e-09
1.28127e-07
1.89853e-09
-1.53259e-10
1.27315e-07
2.06423e-07
9.35101e-08
2.09331e-07
9.14584e-08
2.11056e-07
6.39465e-08
2.11938e-07
5.34388e-08
2.12002e-07
4.64896e-08
2.1162e-07
4.06849e-08
2.10894e-07
3.65697e-08
2.09828e-07
3.34474e-08
2.0846e-07
3.07803e-08
2.06848e-07
2.84268e-08
2.05047e-07
2.63443e-08
2.03107e-07
2.44892e-08
2.01068e-07
2.28223e-08
1.98967e-07
2.13155e-08
1.96832e-07
1.99482e-08
1.94687e-07
1.87039e-08
1.92548e-07
1.75689e-08
1.90431e-07
1.65315e-08
1.88345e-07
1.55813e-08
1.86298e-07
1.47091e-08
1.84296e-07
1.3907e-08
1.82341e-07
1.31678e-08
1.80438e-07
1.2485e-08
1.78587e-07
1.18531e-08
1.76788e-07
1.12669e-08
1.75043e-07
1.07219e-08
1.7335e-07
1.0214e-08
1.71709e-07
9.73955e-09
1.70119e-07
9.29526e-09
1.68579e-07
8.87811e-09
1.67089e-07
8.48535e-09
1.65646e-07
8.11446e-09
1.64249e-07
7.76285e-09
1.62899e-07
7.42868e-09
1.61593e-07
7.10866e-09
1.6033e-07
6.80258e-09
1.59111e-07
6.50437e-09
1.57934e-07
6.21832e-09
1.56799e-07
5.93051e-09
1.55706e-07
5.65698e-09
1.54656e-07
5.3644e-09
1.53649e-07
5.09603e-09
1.52685e-07
4.77785e-09
1.51771e-07
4.50223e-09
1.509e-07
4.13753e-09
1.50093e-07
3.80353e-09
1.49332e-07
3.41075e-09
1.48644e-07
2.75816e-09
1.48058e-07
2.48403e-09
7.01346e-10
1.47204e-07
2.12269e-07
8.69036e-08
2.1514e-07
8.85871e-08
2.16811e-07
6.22753e-08
2.17852e-07
5.2398e-08
2.18262e-07
4.608e-08
2.18381e-07
4.05658e-08
2.18308e-07
3.66425e-08
2.18012e-07
3.37437e-08
2.17486e-07
3.13063e-08
2.16749e-07
2.91637e-08
2.15825e-07
2.72686e-08
2.14738e-07
2.5576e-08
2.13514e-07
2.40462e-08
2.12178e-07
2.26515e-08
2.10753e-07
2.13731e-08
2.0926e-07
2.0197e-08
2.07717e-07
1.91121e-08
2.06139e-07
1.81091e-08
2.0454e-07
1.718e-08
2.02932e-07
1.63179e-08
2.01322e-07
1.55167e-08
1.99719e-07
1.47709e-08
1.98128e-07
1.40755e-08
1.96555e-07
1.3426e-08
1.95004e-07
1.28183e-08
1.93477e-07
1.22486e-08
1.91978e-07
1.17137e-08
1.90507e-07
1.12103e-08
1.89067e-07
1.07356e-08
1.87658e-07
1.02871e-08
1.86281e-07
9.86217e-09
1.84937e-07
9.4586e-09
1.83626e-07
9.07393e-09
1.82348e-07
8.70645e-09
1.81104e-07
8.35292e-09
1.79893e-07
8.01317e-09
1.78716e-07
7.68109e-09
1.77574e-07
7.36085e-09
1.76466e-07
7.03857e-09
1.75393e-07
6.72963e-09
1.74356e-07
6.40163e-09
1.73357e-07
6.09488e-09
1.72394e-07
5.74045e-09
1.71477e-07
5.41924e-09
1.70596e-07
5.01889e-09
1.69775e-07
4.62456e-09
1.68994e-07
4.19209e-09
1.6827e-07
3.48213e-09
1.67642e-07
3.11207e-09
1.56223e-09
1.66781e-07
2.18315e-07
8.05697e-08
2.21189e-07
8.57123e-08
2.22784e-07
6.06806e-08
2.23853e-07
5.13288e-08
2.24371e-07
4.55619e-08
2.24668e-07
4.02692e-08
2.24871e-07
3.64394e-08
2.24952e-07
3.36624e-08
2.24891e-07
3.13674e-08
2.24688e-07
2.93669e-08
2.24347e-07
2.76094e-08
2.23875e-07
2.60485e-08
2.23279e-07
2.46416e-08
2.22572e-07
2.33588e-08
2.21765e-07
2.218e-08
2.20871e-07
2.10907e-08
2.19903e-07
2.00803e-08
2.18872e-07
1.91399e-08
2.1779e-07
1.82624e-08
2.16666e-07
1.74421e-08
2.15509e-07
1.66736e-08
2.14327e-07
1.59525e-08
2.13128e-07
1.52748e-08
2.11917e-07
1.46368e-08
2.107e-07
1.40352e-08
2.09482e-07
1.3467e-08
2.08266e-07
1.29296e-08
2.07056e-07
1.24202e-08
2.05855e-07
1.19366e-08
2.04666e-07
1.14766e-08
2.0349e-07
1.1038e-08
2.0233e-07
1.06188e-08
2.01187e-07
1.02169e-08
2.00062e-07
9.8308e-09
1.98958e-07
9.45735e-09
1.97875e-07
9.0965e-09
1.96813e-07
8.74226e-09
1.95776e-07
8.39865e-09
1.94762e-07
8.05217e-09
1.93774e-07
7.71717e-09
1.92813e-07
7.36308e-09
1.91882e-07
7.026e-09
1.90978e-07
6.64431e-09
1.90112e-07
6.28474e-09
1.89274e-07
5.8573e-09
1.88487e-07
5.41177e-09
1.87733e-07
4.94558e-09
1.87018e-07
4.19737e-09
1.86388e-07
3.74239e-09
2.39003e-09
1.8556e-07
2.24548e-07
7.45146e-08
2.27449e-07
8.28113e-08
2.2898e-07
5.915e-08
2.30056e-07
5.02524e-08
2.30615e-07
4.50032e-08
2.3096e-07
3.99242e-08
2.31253e-07
3.61467e-08
2.31482e-07
3.34332e-08
2.31629e-07
3.12202e-08
2.31693e-07
2.93033e-08
2.31672e-07
2.76301e-08
2.31565e-07
2.61552e-08
2.31372e-07
2.4835e-08
2.31094e-07
2.36371e-08
2.30734e-07
2.25397e-08
2.30297e-07
2.15273e-08
2.2979e-07
2.0588e-08
2.29217e-07
1.97127e-08
2.28585e-07
1.88941e-08
2.27901e-07
1.81261e-08
2.27171e-07
1.74037e-08
2.26401e-07
1.67227e-08
2.25596e-07
1.60794e-08
2.24763e-07
1.54705e-08
2.23905e-07
1.48931e-08
2.23027e-07
1.43446e-08
2.22134e-07
1.38227e-08
2.21229e-07
1.3325e-08
2.20316e-07
1.28497e-08
2.19398e-07
1.23949e-08
2.18477e-07
1.19586e-08
2.17557e-07
1.15393e-08
2.16639e-07
1.11349e-08
2.15725e-07
1.07441e-08
2.14819e-07
1.0364e-08
2.13921e-07
9.99472e-09
2.13032e-07
9.63038e-09
2.12156e-07
9.27481e-09
2.11293e-07
8.91515e-09
2.10446e-07
8.5644e-09
2.09615e-07
8.19456e-09
2.08804e-07
7.8366e-09
2.08011e-07
7.43759e-09
2.07246e-07
7.04896e-09
2.065e-07
6.60358e-09
2.05793e-07
6.11889e-09
2.05113e-07
5.62608e-09
2.04451e-07
4.85904e-09
2.03859e-07
4.33406e-09
3.14671e-09
2.03103e-07
2.30974e-07
6.87463e-08
2.3391e-07
7.98753e-08
2.35384e-07
5.76763e-08
2.36469e-07
4.91677e-08
2.3706e-07
4.44116e-08
2.3742e-07
3.95641e-08
2.37735e-07
3.58323e-08
2.3801e-07
3.31581e-08
2.38233e-07
3.09974e-08
2.38405e-07
2.91305e-08
2.3853e-07
2.75053e-08
2.38605e-07
2.60804e-08
2.38627e-07
2.48125e-08
2.38596e-07
2.36688e-08
2.38509e-07
2.26263e-08
2.38368e-07
2.16686e-08
2.38173e-07
2.07832e-08
2.37925e-07
1.996e-08
2.37628e-07
1.91913e-08
2.37284e-07
1.84705e-08
2.36895e-07
1.77924e-08
2.36465e-07
1.71524e-08
2.35998e-07
1.65467e-08
2.35496e-07
1.59721e-08
2.34964e-07
1.54257e-08
2.34403e-07
1.49048e-08
2.33819e-07
1.44073e-08
2.33213e-07
1.39311e-08
2.32588e-07
1.34742e-08
2.31948e-07
1.30351e-08
2.31295e-07
1.26118e-08
2.30631e-07
1.2203e-08
2.29959e-07
1.18068e-08
2.29281e-07
1.1422e-08
2.28599e-07
1.10458e-08
2.27916e-07
1.06783e-08
2.27232e-07
1.0314e-08
2.26551e-07
9.95626e-09
2.25873e-07
9.59318e-09
2.25201e-07
9.2361e-09
2.24536e-07
8.86003e-09
2.23882e-07
8.49035e-09
2.23236e-07
8.08339e-09
2.2261e-07
7.67546e-09
2.21992e-07
7.22075e-09
2.21401e-07
6.70991e-09
2.20829e-07
6.19808e-09
2.20259e-07
5.42985e-09
2.19741e-07
4.85207e-09
3.80102e-09
2.19086e-07
2.37601e-07
6.32706e-08
2.40576e-07
7.69001e-08
2.41992e-07
5.62598e-08
2.43084e-07
4.80757e-08
2.43712e-07
4.37834e-08
2.44086e-07
3.9191e-08
2.44406e-07
3.55122e-08
2.44693e-07
3.28702e-08
2.44939e-07
3.07518e-08
2.45148e-07
2.89212e-08
2.45328e-07
2.73262e-08
2.45478e-07
2.59304e-08
2.45597e-07
2.46928e-08
2.45685e-07
2.35807e-08
2.4574e-07
2.25711e-08
2.45762e-07
2.16474e-08
2.45748e-07
2.07968e-08
2.45699e-07
2.00088e-08
2.45615e-07
1.92754e-08
2.45496e-07
1.85895e-08
2.45343e-07
1.79455e-08
2.45157e-07
1.73387e-08
2.44939e-07
1.6765e-08
2.4469e-07
1.62208e-08
2.44412e-07
1.57032e-08
2.44108e-07
1.52094e-08
2.43778e-07
1.47371e-08
2.43425e-07
1.42841e-08
2.43051e-07
1.38487e-08
2.42657e-07
1.34289e-08
2.42245e-07
1.30231e-08
2.41819e-07
1.26299e-08
2.41378e-07
1.22474e-08
2.40926e-07
1.18744e-08
2.40463e-07
1.15082e-08
2.39992e-07
1.1149e-08
2.39515e-07
1.07913e-08
2.39033e-07
1.04382e-08
2.38548e-07
1.00787e-08
2.38061e-07
9.72223e-09
2.37574e-07
9.3472e-09
2.37091e-07
8.97321e-09
2.36609e-07
8.56572e-09
2.36137e-07
8.14715e-09
2.35668e-07
7.69009e-09
2.35213e-07
7.16517e-09
2.34769e-07
6.6415e-09
2.34313e-07
5.88631e-09
2.33892e-07
5.27312e-09
4.33365e-09
2.33359e-07
2.44436e-07
5.80912e-08
2.47449e-07
7.38865e-08
2.48811e-07
5.48986e-08
2.49905e-07
4.69809e-08
2.50572e-07
4.31166e-08
2.50962e-07
3.88014e-08
2.51286e-07
3.51875e-08
2.5158e-07
3.25767e-08
2.51833e-07
3.04984e-08
2.52054e-07
2.87008e-08
2.5225e-07
2.71299e-08
2.52426e-07
2.57545e-08
2.52582e-07
2.45364e-08
2.52719e-07
2.34435e-08
2.52837e-07
2.24534e-08
2.52935e-07
2.15498e-08
2.53012e-07
2.07198e-08
2.53067e-07
1.99534e-08
2.53101e-07
1.92419e-08
2.53112e-07
1.85786e-08
2.531e-07
1.79575e-08
2.53065e-07
1.73736e-08
2.53007e-07
1.68228e-08
2.52926e-07
1.63013e-08
2.52824e-07
1.58059e-08
2.52699e-07
1.53337e-08
2.52554e-07
1.48823e-08
2.52389e-07
1.44494e-08
2.52204e-07
1.4033e-08
2.52002e-07
1.36313e-08
2.51783e-07
1.32424e-08
2.51548e-07
1.28649e-08
2.51298e-07
1.24968e-08
2.51036e-07
1.21371e-08
2.50761e-07
1.1783e-08
2.50476e-07
1.14343e-08
2.50181e-07
1.10861e-08
2.49878e-07
1.07408e-08
2.49568e-07
1.03885e-08
2.49254e-07
1.00366e-08
2.48934e-07
9.66691e-09
2.48614e-07
9.29344e-09
2.4829e-07
8.89014e-09
2.47969e-07
8.46747e-09
2.47647e-07
8.0127e-09
2.47328e-07
7.48347e-09
2.47016e-07
6.9539e-09
2.46681e-07
6.22168e-09
2.46365e-07
5.58878e-09
4.73984e-09
2.45959e-07
2.51488e-07
5.32099e-08
2.5453e-07
7.08446e-08
2.55847e-07
5.35818e-08
2.56939e-07
4.58888e-08
2.57643e-07
4.24122e-08
2.58052e-07
3.83923e-08
2.58383e-07
3.4857e-08
2.58682e-07
3.22777e-08
2.58941e-07
3.02397e-08
2.59166e-07
2.84758e-08
2.59367e-07
2.69281e-08
2.59551e-07
2.55705e-08
2.5972e-07
2.43678e-08
2.59874e-07
2.32891e-08
2.60015e-07
2.23123e-08
2.60144e-07
2.14214e-08
2.60259e-07
2.06042e-08
2.60362e-07
1.98507e-08
2.60451e-07
1.91526e-08
2.60527e-07
1.85029e-08
2.60589e-07
1.78959e-08
2.60636e-07
1.73265e-08
2.60668e-07
1.67904e-08
2.60686e-07
1.62838e-08
2.60688e-07
1.58034e-08
2.60676e-07
1.53463e-08
2.60648e-07
1.49098e-08
2.60606e-07
1.44917e-08
2.60549e-07
1.40897e-08
2.60478e-07
1.3702e-08
2.60394e-07
1.33267e-08
2.60297e-07
1.29622e-08
2.60187e-07
1.26064e-08
2.60066e-07
1.22583e-08
2.59934e-07
1.1915e-08
2.59792e-07
1.15763e-08
2.59641e-07
1.12374e-08
2.59481e-07
1.09002e-08
2.59314e-07
1.05558e-08
2.59141e-07
1.02097e-08
2.58961e-07
9.8468e-09
2.58778e-07
9.47615e-09
2.5859e-07
9.07905e-09
2.58401e-07
8.65641e-09
2.58207e-07
8.20622e-09
2.58011e-07
7.67949e-09
2.57817e-07
7.1484e-09
2.57594e-07
6.44464e-09
2.57378e-07
5.80482e-09
5.02865e-09
2.57089e-07
2.58766e-07
4.86272e-08
2.61825e-07
6.77848e-08
2.63109e-07
5.22985e-08
2.64193e-07
4.48043e-08
2.64933e-07
4.16723e-08
2.65363e-07
3.79619e-08
2.65701e-07
3.45195e-08
2.66006e-07
3.19729e-08
2.6627e-07
2.99753e-08
2.66499e-07
2.82468e-08
2.66704e-07
2.67232e-08
2.66891e-07
2.53833e-08
2.67064e-07
2.41952e-08
2.67224e-07
2.31291e-08
2.67373e-07
2.21633e-08
2.67512e-07
2.12823e-08
2.67642e-07
2.04743e-08
2.67763e-07
1.97296e-08
2.67875e-07
1.90401e-08
2.67979e-07
1.83991e-08
2.68074e-07
1.78009e-08
2.6816e-07
1.72404e-08
2.68237e-07
1.67135e-08
2.68305e-07
1.62162e-08
2.68363e-07
1.57454e-08
2.68411e-07
1.52979e-08
2.6845e-07
1.48712e-08
2.68479e-07
1.44629e-08
2.68498e-07
1.40706e-08
2.68507e-07
1.36926e-08
2.68507e-07
1.33268e-08
2.68498e-07
1.29715e-08
2.68479e-07
1.26248e-08
2.68452e-07
1.22853e-08
2.68417e-07
1.19503e-08
2.68374e-07
1.16194e-08
2.68323e-07
1.1288e-08
2.68266e-07
1.09574e-08
2.68202e-07
1.06197e-08
2.68133e-07
1.02787e-08
2.68058e-07
9.92216e-09
2.67979e-07
9.55476e-09
2.67894e-07
9.16384e-09
2.67808e-07
8.74328e-09
2.67716e-07
8.29809e-09
2.67617e-07
7.77793e-09
2.67517e-07
7.24815e-09
2.67388e-07
6.57462e-09
2.67255e-07
5.93736e-09
5.21911e-09
2.67065e-07
2.66278e-07
4.43418e-08
2.69344e-07
6.4718e-08
2.70605e-07
5.10378e-08
2.71678e-07
4.37318e-08
2.7245e-07
4.09001e-08
2.72903e-07
3.75085e-08
2.73248e-07
3.41744e-08
2.73559e-07
3.16622e-08
2.73829e-07
2.97049e-08
2.74063e-07
2.80133e-08
2.74271e-07
2.65152e-08
2.74461e-07
2.51936e-08
2.74635e-07
2.40204e-08
2.74798e-07
2.29668e-08
2.7495e-07
2.20115e-08
2.75092e-07
2.11396e-08
2.75227e-07
2.03396e-08
2.75354e-07
1.96021e-08
2.75475e-07
1.89194e-08
2.7559e-07
1.82848e-08
2.75698e-07
1.76927e-08
2.758e-07
1.71383e-08
2.75896e-07
1.66174e-08
2.75986e-07
1.61263e-08
2.7607e-07
1.56615e-08
2.76147e-07
1.52203e-08
2.76219e-07
1.47998e-08
2.76284e-07
1.43977e-08
2.76343e-07
1.40117e-08
2.76396e-07
1.36399e-08
2.76442e-07
1.32802e-08
2.76483e-07
1.29311e-08
2.76517e-07
1.25902e-08
2.76546e-07
1.22565e-08
2.76569e-07
1.19271e-08
2.76587e-07
1.16014e-08
2.766e-07
1.12752e-08
2.76608e-07
1.09492e-08
2.76611e-07
1.06164e-08
2.76611e-07
1.0279e-08
2.76606e-07
9.92741e-09
2.76598e-07
9.56264e-09
2.76585e-07
9.17675e-09
2.76569e-07
8.75897e-09
2.76549e-07
8.31815e-09
2.76521e-07
7.80648e-09
2.76489e-07
7.27978e-09
2.76428e-07
6.63559e-09
2.76358e-07
6.00731e-09
5.33488e-09
2.76242e-07
2.74032e-07
4.03506e-08
2.77095e-07
6.1655e-08
2.78344e-07
4.97897e-08
2.79401e-07
4.26748e-08
2.80201e-07
4.00993e-08
2.80679e-07
3.70306e-08
2.81033e-07
3.38208e-08
2.81349e-07
3.13456e-08
2.81626e-07
2.94282e-08
2.81865e-07
2.7775e-08
2.82076e-07
2.63039e-08
2.82268e-07
2.50014e-08
2.82445e-07
2.38435e-08
2.82609e-07
2.28026e-08
2.82763e-07
2.18581e-08
2.82907e-07
2.09952e-08
2.83043e-07
2.0203e-08
2.83173e-07
1.94724e-08
2.83297e-07
1.87958e-08
2.83415e-07
1.81668e-08
2.83528e-07
1.75799e-08
2.83636e-07
1.70304e-08
2.83739e-07
1.65142e-08
2.83837e-07
1.60275e-08
2.83932e-07
1.55672e-08
2.84022e-07
1.51302e-08
2.84108e-07
1.4714e-08
2.84189e-07
1.43161e-08
2.84267e-07
1.39343e-08
2.8434e-07
1.35665e-08
2.84409e-07
1.32108e-08
2.84475e-07
1.28655e-08
2.84537e-07
1.25284e-08
2.84595e-07
1.21982e-08
2.8465e-07
1.18723e-08
2.84701e-07
1.15499e-08
2.8475e-07
1.12269e-08
2.84795e-07
1.09036e-08
2.84838e-07
1.0574e-08
2.84878e-07
1.02387e-08
2.84915e-07
9.89046e-09
2.8495e-07
9.52746e-09
2.84982e-07
9.14516e-09
2.85011e-07
8.7302e-09
2.85036e-07
8.2928e-09
2.85052e-07
7.79021e-09
2.85064e-07
7.26775e-09
2.85049e-07
6.65055e-09
2.85021e-07
6.03526e-09
5.39911e-09
2.84957e-07
2.82039e-07
3.66489e-08
2.85087e-07
5.86068e-08
2.86333e-07
4.85445e-08
2.87371e-07
4.16363e-08
2.88196e-07
3.92744e-08
2.887e-07
3.65269e-08
2.89063e-07
3.34575e-08
2.89386e-07
3.10232e-08
2.89669e-07
2.9145e-08
2.89912e-07
2.75314e-08
2.90127e-07
2.6089e-08
2.90322e-07
2.48064e-08
2.90501e-07
2.36643e-08
2.90667e-07
2.26366e-08
2.90822e-07
2.17031e-08
2.90968e-07
2.08496e-08
2.91106e-07
2.00653e-08
2.91237e-07
1.93416e-08
2.91361e-07
1.8671e-08
2.91481e-07
1.80474e-08
2.91595e-07
1.74655e-08
2.91705e-07
1.69205e-08
2.91811e-07
1.64085e-08
2.91913e-07
1.59257e-08
2.92011e-07
1.54691e-08
2.92105e-07
1.50357e-08
2.92197e-07
1.46228e-08
2.92285e-07
1.42281e-08
2.9237e-07
1.38493e-08
2.92452e-07
1.34844e-08
2.92531e-07
1.31315e-08
2.92608e-07
1.27887e-08
2.92682e-07
1.24541e-08
2.92754e-07
1.21262e-08
2.92824e-07
1.18024e-08
2.92892e-07
1.14818e-08
2.92958e-07
1.11609e-08
2.93023e-07
1.08389e-08
2.93085e-07
1.05113e-08
2.93147e-07
1.0177e-08
2.93207e-07
9.83083e-09
2.93265e-07
9.46892e-09
2.93321e-07
9.08898e-09
2.93375e-07
8.6767e-09
2.93426e-07
8.24197e-09
2.93468e-07
7.74839e-09
2.93504e-07
7.23113e-09
2.93517e-07
6.63806e-09
2.93514e-07
6.03805e-09
5.43102e-09
2.93482e-07
2.90308e-07
3.32301e-08
2.9333e-07
5.55845e-08
2.94581e-07
4.72934e-08
2.95599e-07
4.06182e-08
2.96443e-07
3.84303e-08
2.96974e-07
3.59963e-08
2.97348e-07
3.30833e-08
2.97676e-07
3.06951e-08
2.97966e-07
2.88555e-08
2.98215e-07
2.72822e-08
2.98434e-07
2.587e-08
2.98632e-07
2.46084e-08
2.98813e-07
2.34826e-08
2.98981e-07
2.24686e-08
2.99138e-07
2.15465e-08
2.99285e-07
2.07025e-08
2.99424e-07
1.99264e-08
2.99556e-07
1.92097e-08
2.99681e-07
1.85453e-08
2.99802e-07
1.79272e-08
2.99917e-07
1.73502e-08
3.00028e-07
1.68097e-08
3.00134e-07
1.63018e-08
3.00237e-07
1.58228e-08
3.00337e-07
1.53697e-08
3.00433e-07
1.49395e-08
3.00526e-07
1.45297e-08
3.00616e-07
1.41378e-08
3.00704e-07
1.37616e-08
3.00789e-07
1.33991e-08
3.00872e-07
1.30484e-08
3.00953e-07
1.27077e-08
3.01032e-07
1.23749e-08
3.0111e-07
1.20485e-08
3.01186e-07
1.17262e-08
3.01262e-07
1.14067e-08
3.01335e-07
1.1087e-08
3.01409e-07
1.07658e-08
3.01481e-07
1.04392e-08
3.01552e-07
1.01054e-08
3.01623e-07
9.76045e-09
3.01692e-07
9.39929e-09
3.0176e-07
9.0209e-09
3.01826e-07
8.61125e-09
3.01889e-07
8.17884e-09
3.01943e-07
7.69397e-09
3.01992e-07
7.18284e-09
3.02019e-07
6.61115e-09
3.02029e-07
6.0276e-09
5.44454e-09
3.02016e-07
2.98846e-07
3.00862e-08
3.01832e-07
5.25993e-08
3.03096e-07
4.60285e-08
3.04093e-07
3.96219e-08
3.04951e-07
3.75724e-08
3.05509e-07
3.54383e-08
3.05895e-07
3.26966e-08
3.06229e-07
3.03613e-08
3.06525e-07
2.85594e-08
3.0678e-07
2.70271e-08
3.07004e-07
2.56467e-08
3.07205e-07
2.44072e-08
3.07389e-07
2.32983e-08
3.07559e-07
2.22983e-08
3.07718e-07
2.13881e-08
3.07867e-07
2.0554e-08
3.08007e-07
1.97862e-08
3.0814e-07
1.90768e-08
3.08266e-07
1.84187e-08
3.08387e-07
1.78063e-08
3.08503e-07
1.72343e-08
3.08614e-07
1.66983e-08
3.08722e-07
1.61946e-08
3.08825e-07
1.57194e-08
3.08925e-07
1.52698e-08
3.09022e-07
1.48428e-08
3.09115e-07
1.44359e-08
3.09207e-07
1.40467e-08
3.09295e-07
1.3673e-08
3.09381e-07
1.33128e-08
3.09466e-07
1.29641e-08
3.09548e-07
1.26251e-08
3.09629e-07
1.22939e-08
3.09709e-07
1.19688e-08
3.09787e-07
1.16477e-08
3.09865e-07
1.1329e-08
3.09942e-07
1.10101e-08
3.10018e-07
1.06893e-08
3.10094e-07
1.03634e-08
3.1017e-07
1.00299e-08
3.10244e-07
9.68573e-09
3.10318e-07
9.32525e-09
3.10391e-07
8.94803e-09
3.10461e-07
8.54108e-09
3.10529e-07
8.11105e-09
3.10589e-07
7.63459e-09
3.10641e-07
7.13051e-09
3.10674e-07
6.57787e-09
3.10691e-07
6.01124e-09
5.44865e-09
3.10687e-07
3.07666e-07
2.72074e-08
3.10603e-07
4.96626e-08
3.11888e-07
4.47431e-08
3.12862e-07
3.86479e-08
3.13729e-07
3.67057e-08
3.14314e-07
3.48529e-08
3.14715e-07
3.2296e-08
3.15055e-07
3.00214e-08
3.15357e-07
2.8257e-08
3.15619e-07
2.67658e-08
3.15847e-07
2.54188e-08
3.16051e-07
2.42025e-08
3.16238e-07
2.31111e-08
3.16411e-07
2.21257e-08
3.16572e-07
2.12276e-08
3.16722e-07
2.04037e-08
3.16863e-07
1.96446e-08
3.16998e-07
1.89426e-08
3.17125e-07
1.82911e-08
3.17247e-07
1.76844e-08
3.17364e-07
1.71176e-08
3.17476e-07
1.65863e-08
3.17584e-07
1.60868e-08
3.17687e-07
1.56155e-08
3.17788e-07
1.51695e-08
3.17885e-07
1.47458e-08
3.17979e-07
1.43419e-08
3.1807e-07
1.39554e-08
3.18159e-07
1.35842e-08
3.18246e-07
1.32262e-08
3.1833e-07
1.28794e-08
3.18413e-07
1.25422e-08
3.18495e-07
1.22124e-08
3.18575e-07
1.18886e-08
3.18654e-07
1.15685e-08
3.18733e-07
1.12506e-08
3.1881e-07
1.09323e-08
3.18888e-07
1.06119e-08
3.18965e-07
1.02865e-08
3.19041e-07
9.95332e-09
3.19117e-07
9.60973e-09
3.19193e-07
9.25005e-09
3.19267e-07
8.87392e-09
3.19338e-07
8.46983e-09
3.19406e-07
8.04251e-09
3.19467e-07
7.57423e-09
3.19519e-07
7.07809e-09
3.19554e-07
6.54266e-09
3.19573e-07
5.99297e-09
5.44857e-09
3.19573e-07
3.16776e-07
2.45825e-08
3.19653e-07
4.67853e-08
3.20965e-07
4.34314e-08
3.21917e-07
3.76957e-08
3.22788e-07
3.58354e-08
3.23399e-07
3.4241e-08
3.23816e-07
3.188e-08
3.24162e-07
2.96751e-08
3.24471e-07
2.79482e-08
3.24738e-07
2.6498e-08
3.24971e-07
2.51859e-08
3.2518e-07
2.39941e-08
3.2537e-07
2.29208e-08
3.25545e-07
2.19503e-08
3.25708e-07
2.10648e-08
3.2586e-07
2.02515e-08
3.26003e-07
1.95014e-08
3.26139e-07
1.88071e-08
3.26268e-07
1.81623e-08
3.26391e-07
1.75616e-08
3.26508e-07
1.7e-08
3.26621e-07
1.64736e-08
3.26729e-07
1.59784e-08
3.26834e-07
1.55111e-08
3.26935e-07
1.50687e-08
3.27032e-07
1.46483e-08
3.27126e-07
1.42475e-08
3.27218e-07
1.38638e-08
3.27307e-07
1.34951e-08
3.27394e-07
1.31394e-08
3.27479e-07
1.27946e-08
3.27562e-07
1.24591e-08
3.27643e-07
1.21308e-08
3.27724e-07
1.18082e-08
3.27803e-07
1.14891e-08
3.27882e-07
1.1172e-08
3.27959e-07
1.08544e-08
3.28037e-07
1.05345e-08
3.28114e-07
1.02096e-08
3.2819e-07
9.87672e-09
3.28266e-07
9.53373e-09
3.28341e-07
9.17505e-09
3.28415e-07
8.80013e-09
3.28486e-07
8.39913e-09
3.28553e-07
7.97501e-09
3.28613e-07
7.51475e-09
3.28664e-07
7.02732e-09
3.28699e-07
6.5077e-09
3.28717e-07
5.9747e-09
5.44704e-09
3.28718e-07
3.26186e-07
2.21987e-08
3.28993e-07
4.39784e-08
3.30335e-07
4.20894e-08
3.31267e-07
3.67642e-08
3.32136e-07
3.49662e-08
3.32773e-07
3.3604e-08
3.33206e-07
3.1447e-08
3.33559e-07
2.9322e-08
3.33874e-07
2.76331e-08
3.34149e-07
2.62236e-08
3.34387e-07
2.49475e-08
3.34599e-07
2.37816e-08
3.34793e-07
2.27272e-08
3.34971e-07
2.17722e-08
3.35136e-07
2.08997e-08
3.35291e-07
2.00973e-08
3.35436e-07
1.93564e-08
3.35573e-07
1.867e-08
3.35703e-07
1.80321e-08
3.35827e-07
1.74375e-08
3.35946e-07
1.68815e-08
3.36059e-07
1.63599e-08
3.36168e-07
1.58692e-08
3.36273e-07
1.5406e-08
3.36375e-07
1.49674e-08
3.36473e-07
1.45504e-08
3.36567e-07
1.41527e-08
3.36659e-07
1.37719e-08
3.36749e-07
1.34058e-08
3.36836e-07
1.30524e-08
3.36921e-07
1.27097e-08