/*--------------------------------*- C++ -*----------------------------------*\
  =========                 |
  \\      /  F ield         | OpenFOAM: The Open Source CFD Toolbox
   \\    /   O peration     | Website:  https://openfoam.org
    \\  /    A nd           | Version:  7
     \\/     M anipulation  |
\*---------------------------------------------------------------------------*/
FoamFile
{
    version     2.0;
    format      ascii;
    class       surfaceScalarField;
    location    "0.12";
    object      phi_0;
}
// * * * * * * * * * * * * * * * * * * * * * * * * * * * * * * * * * * * * * //

dimensions      [0 3 -1 0 0 0 0];

internalField   nonuniform List<scalar> 
139350
(
6.45123e-08
9.21192e-08
3.19653e-08
3.2547e-08
2.30606e-08
8.90472e-09
1.95764e-08
3.48423e-09
1.76249e-08
1.9515e-09
1.61949e-08
1.42999e-09
1.50619e-08
1.13297e-09
1.41492e-08
9.12684e-10
1.33981e-08
7.51114e-10
1.27652e-08
6.32904e-10
1.22217e-08
5.43508e-10
1.17482e-08
4.73449e-10
1.13311e-08
4.17116e-10
1.09601e-08
3.70977e-10
1.06275e-08
3.32625e-10
1.03272e-08
3.00336e-10
1.00543e-08
2.72847e-10
9.80513e-09
2.49213e-10
9.57641e-09
2.28716e-10
9.36561e-09
2.10801e-10
9.17058e-09
1.9503e-10
8.98952e-09
1.81057e-10
8.82092e-09
1.68602e-10
8.66348e-09
1.57436e-10
8.51611e-09
1.47372e-10
8.37786e-09
1.38253e-10
8.24791e-09
1.29948e-10
8.12556e-09
1.22348e-10
8.01021e-09
1.15353e-10
7.90132e-09
1.0889e-10
7.79845e-09
1.02872e-10
7.70119e-09
9.72594e-11
7.60923e-09
9.1955e-11
7.52226e-09
8.69693e-11
7.44011e-09
8.21541e-11
7.3625e-09
7.76084e-11
7.28943e-09
7.30756e-11
7.22063e-09
6.87918e-11
7.15628e-09
6.43563e-11
7.09618e-09
6.00944e-11
7.0405e-09
5.56794e-11
6.9896e-09
5.09011e-11
6.94269e-09
4.69096e-11
6.9027e-09
3.99938e-11
6.86406e-09
3.86377e-11
6.84007e-09
2.39895e-11
6.80396e-09
3.61118e-11
6.82591e-09
-2.19471e-11
6.63161e-09
1.94297e-10
-3.05864e-09
9.69025e-09
1.25943e-07
1.27619e-07
9.12912e-08
6.71992e-08
7.19406e-08
2.82554e-08
6.12275e-08
1.41972e-08
5.47935e-08
8.38559e-09
5.03003e-08
5.92313e-09
4.68169e-08
4.61636e-09
4.40039e-08
3.72569e-09
4.16804e-08
3.07461e-09
3.97209e-08
2.59244e-09
3.80381e-08
2.22633e-09
3.65719e-08
1.93958e-09
3.52799e-08
1.70921e-09
3.41303e-08
1.52056e-09
3.30992e-08
1.36372e-09
3.21679e-08
1.23166e-09
3.13215e-08
1.11921e-09
3.05482e-08
1.02251e-09
2.98383e-08
9.3864e-10
2.91837e-08
8.6532e-10
2.8578e-08
8.00771e-10
2.80155e-08
7.43575e-10
2.74915e-08
6.9259e-10
2.70021e-08
6.46881e-10
2.65437e-08
6.05686e-10
2.61136e-08
5.68366e-10
2.57092e-08
5.34389e-10
2.53282e-08
5.03304e-10
2.49689e-08
4.74719e-10
2.46294e-08
4.48317e-10
2.43085e-08
4.23776e-10
2.40049e-08
4.00888e-10
2.37175e-08
3.79329e-10
2.34455e-08
3.59037e-10
2.31881e-08
3.39553e-10
2.29446e-08
3.21095e-10
2.27148e-08
3.0282e-10
2.24981e-08
2.85527e-10
2.22949e-08
2.67538e-10
2.21043e-08
2.50739e-10
2.19279e-08
2.32024e-10
2.17641e-08
2.14754e-10
2.16165e-08
1.94475e-10
2.14822e-08
1.7434e-10
2.13672e-08
1.53628e-10
2.12703e-08
1.20903e-10
2.11871e-08
1.19267e-10
2.11856e-08
-2.03945e-11
2.101e-08
3.69848e-10
-3.723e-09
2.16744e-08
1.58752e-07
1.35271e-07
1.36528e-07
8.94232e-08
1.17498e-07
4.72856e-08
1.03326e-07
2.83699e-08
9.33367e-08
1.83744e-08
8.60419e-08
1.3218e-08
8.03394e-08
1.03188e-08
7.56927e-08
8.37238e-09
7.18191e-08
6.94825e-09
6.85306e-08
5.88094e-09
6.56937e-08
5.06321e-09
6.32136e-08
4.41967e-09
6.10218e-08
3.90104e-09
5.90671e-08
3.47526e-09
5.73103e-08
3.1205e-09
5.57208e-08
2.82119e-09
5.42741e-08
2.56591e-09
5.29505e-08
2.34609e-09
5.17339e-08
2.1552e-09
5.06111e-08
1.98814e-09
4.95709e-08
1.84094e-09
4.86041e-08
1.71041e-09
4.77027e-08
1.59398e-09
4.68601e-08
1.48954e-09
4.60704e-08
1.39538e-09
4.53287e-08
1.31006e-09
4.46307e-08
1.23237e-09
4.39727e-08
1.16129e-09
4.33515e-08
1.09596e-09
4.27641e-08
1.03564e-09
4.22083e-08
9.79623e-10
4.16818e-08
9.27403e-10
4.11828e-08
8.78322e-10
4.07097e-08
8.32131e-10
4.02613e-08
7.87951e-10
3.98363e-08
7.46077e-10
3.94343e-08
7.0484e-10
3.9054e-08
6.65827e-10
3.86962e-08
6.25337e-10
3.8359e-08
5.8796e-10
3.80456e-08
5.45365e-10
3.77518e-08
5.08563e-10
3.74864e-08
4.59894e-10
3.72387e-08
4.21988e-10
3.70292e-08
3.63212e-10
3.68365e-08
3.13578e-10
3.66901e-08
2.65701e-10
3.66105e-08
5.91474e-11
3.65334e-08
4.4699e-10
-3.45186e-09
3.62622e-08
1.75611e-07
1.31175e-07
1.65625e-07
9.941e-08
1.52739e-07
6.0171e-08
1.40135e-07
4.09741e-08
1.29461e-07
2.90482e-08
1.20829e-07
2.18499e-08
1.13724e-07
1.74238e-08
1.0775e-07
1.43463e-08
1.02657e-07
1.20419e-08
9.82602e-08
1.02774e-08
9.44209e-08
8.90253e-09
9.10329e-08
7.80764e-09
8.80164e-08
6.91758e-09
8.53098e-08
6.18186e-09
8.28649e-08
5.56538e-09
8.06433e-08
5.0428e-09
7.86139e-08
4.59531e-09
7.67513e-08
4.20868e-09
7.50346e-08
3.87193e-09
7.34462e-08
3.57651e-09
7.19715e-08
3.31562e-09
7.05981e-08
3.08384e-09
6.93153e-08
2.87676e-09
6.81141e-08
2.69075e-09
6.69867e-08
2.52284e-09
6.59262e-08
2.37053e-09
6.49268e-08
2.23175e-09
6.39834e-08
2.10471e-09
6.30914e-08
1.98791e-09
6.2247e-08
1.88003e-09
6.14468e-08
1.7799e-09
6.06876e-08
1.68658e-09
5.99669e-08
1.59897e-09
5.92825e-08
1.51656e-09
5.86325e-08
1.43794e-09
5.80152e-08
1.36345e-09
5.74296e-08
1.29042e-09
5.68741e-08
1.22133e-09
5.63494e-08
1.15003e-09
5.5853e-08
1.08439e-09
5.53888e-08
1.00953e-09
5.49511e-08
9.46201e-10
5.45514e-08
8.59678e-10
5.41753e-08
7.98022e-10
5.38495e-08
6.89088e-10
5.35453e-08
6.17685e-10
5.3306e-08
5.05084e-10
5.3124e-08
2.41156e-10
5.30492e-08
5.21785e-10
-2.9465e-09
5.25438e-08
1.8451e-07
1.2345e-07
1.82341e-07
1.01579e-07
1.76123e-07
6.63887e-08
1.6777e-07
4.93272e-08
1.59157e-07
3.76613e-08
1.51259e-07
2.97477e-08
1.44195e-07
2.44879e-08
1.37904e-07
2.06377e-08
1.32311e-07
1.76342e-08
1.27334e-07
1.52552e-08
1.22884e-07
1.33521e-08
1.18886e-07
1.18059e-08
1.15274e-07
1.05291e-08
1.11995e-07
9.46057e-09
1.09005e-07
8.55597e-09
1.06265e-07
7.78258e-09
1.03745e-07
7.11554e-09
1.01418e-07
6.53565e-09
9.92619e-08
6.02791e-09
9.7258e-08
5.58043e-09
9.53899e-08
5.18368e-09
9.36438e-08
4.82996e-09
9.20076e-08
4.51294e-09
9.04709e-08
4.22742e-09
8.90247e-08
3.96907e-09
8.7661e-08
3.73424e-09
8.63728e-08
3.51989e-09
8.51542e-08
3.32339e-09
8.39996e-08
3.1425e-09
8.29043e-08
2.97527e-09
8.18643e-08
2.81998e-09
8.08757e-08
2.67516e-09
7.99354e-08
2.53928e-09
7.90405e-08
2.41143e-09
7.81887e-08
2.28969e-09
7.73779e-08
2.17432e-09
7.66066e-08
2.06165e-09
7.5873e-08
1.95498e-09
7.51774e-08
1.84563e-09
7.45171e-08
1.74473e-09
7.38958e-08
1.63077e-09
7.33079e-08
1.53415e-09
7.27643e-08
1.40323e-09
7.22519e-08
1.31049e-09
7.17951e-08
1.14589e-09
7.13705e-08
1.04227e-09
7.10145e-08
8.6106e-10
7.07236e-08
5.32006e-10
7.05585e-08
6.86958e-10
-2.37309e-09
6.99851e-08
1.90342e-07
1.15325e-07
1.91859e-07
1.00062e-07
1.90264e-07
6.79841e-08
1.86162e-07
5.34294e-08
1.80728e-07
4.3095e-08
1.74983e-07
3.54925e-08
1.69295e-07
3.01763e-08
1.63819e-07
2.61133e-08
1.58653e-07
2.28004e-08
1.53837e-07
2.00708e-08
1.49375e-07
1.78149e-08
1.45248e-07
1.59327e-08
1.41432e-07
1.43445e-08
1.37902e-07
1.2991e-08
1.3463e-07
1.18278e-08
1.31592e-07
1.08204e-08
1.28766e-07
9.94209e-09
1.2613e-07
9.1713e-09
1.23667e-07
8.49089e-09
1.21361e-07
7.88695e-09
1.19196e-07
7.34814e-09
1.17161e-07
6.8651e-09
1.15244e-07
6.43006e-09
1.13435e-07
6.03654e-09
1.11725e-07
5.67908e-09
1.10106e-07
5.35306e-09
1.08571e-07
5.05456e-09
1.07114e-07
4.78017e-09
1.0573e-07
4.527e-09
1.04413e-07
4.29248e-09
1.03158e-07
4.07435e-09
1.01963e-07
3.87066e-09
1.00823e-07
3.67938e-09
9.97349e-08
3.49927e-09
9.86968e-08
3.32784e-09
9.77058e-08
3.16526e-09
9.67606e-08
3.00692e-09
9.58588e-08
2.85672e-09
9.50006e-08
2.70381e-09
9.41835e-08
2.56192e-09
9.34103e-08
2.40397e-09
9.26764e-08
2.26802e-09
9.19906e-08
2.08903e-09
9.13437e-08
1.95738e-09
9.07528e-08
1.73679e-09
9.02073e-08
1.58772e-09
8.9725e-08
1.34339e-09
8.93225e-08
9.34516e-10
8.90355e-08
9.73991e-10
-1.72184e-09
8.83842e-08
1.95504e-07
1.07635e-07
1.98247e-07
9.73193e-08
1.98986e-07
6.72451e-08
1.97794e-07
5.46218e-08
1.95163e-07
4.57257e-08
1.91829e-07
3.88268e-08
1.88104e-07
3.39013e-08
1.8416e-07
3.00566e-08
1.80149e-07
2.68122e-08
1.76178e-07
2.40415e-08
1.72315e-07
2.16774e-08
1.68599e-07
1.96487e-08
1.6505e-07
1.78943e-08
1.61674e-07
1.63667e-08
1.58473e-07
1.5029e-08
1.55441e-07
1.38516e-08
1.52573e-07
1.28104e-08
1.49859e-07
1.18852e-08
1.47291e-07
1.10595e-08
1.44858e-07
1.03195e-08
1.42553e-07
9.65356e-09
1.40366e-07
9.05197e-09
1.38289e-07
8.50645e-09
1.36316e-07
8.00993e-09
1.34439e-07
7.55642e-09
1.32651e-07
7.14071e-09
1.30947e-07
6.75836e-09
1.29322e-07
6.40548e-09
1.2777e-07
6.0787e-09
1.26288e-07
5.775e-09
1.2487e-07
5.49173e-09
1.23515e-07
5.22654e-09
1.22217e-07
4.97703e-09
1.20975e-07
4.74163e-09
1.19785e-07
4.51742e-09
1.18646e-07
4.3044e-09
1.17556e-07
4.09722e-09
1.16512e-07
3.90014e-09
1.15515e-07
3.70063e-09
1.14563e-07
3.51416e-09
1.13657e-07
3.30971e-09
1.12795e-07
3.13005e-09
1.11982e-07
2.90201e-09
1.11215e-07
2.72476e-09
1.10501e-07
2.45094e-09
1.09844e-07
2.24471e-09
1.09242e-07
1.9448e-09
1.08729e-07
1.44816e-09
1.08323e-07
1.37932e-09
-9.83463e-10
1.07585e-07
2.00819e-07
1.00401e-07
2.03772e-07
9.4367e-08
2.05345e-07
6.56713e-08
2.05648e-07
5.43197e-08
2.04819e-07
4.65539e-08
2.03344e-07
4.03023e-08
2.01401e-07
3.58438e-08
1.99077e-07
3.2381e-08
1.96477e-07
2.94121e-08
1.93704e-07
2.68147e-08
1.90837e-07
2.45437e-08
1.87938e-07
2.25486e-08
1.85048e-07
2.07839e-08
1.822e-07
1.92145e-08
1.79416e-07
1.78134e-08
1.76709e-07
1.65584e-08
1.74089e-07
1.54306e-08
1.7156e-07
1.44142e-08
1.69124e-07
1.34954e-08
1.66781e-07
1.26623e-08
1.6453e-07
1.19047e-08
1.62368e-07
1.12137e-08
1.60293e-07
1.05817e-08
1.58301e-07
1.00019e-08
1.56389e-07
9.46858e-09
1.54553e-07
8.97649e-09
1.5279e-07
8.52118e-09
1.51097e-07
8.09865e-09
1.4947e-07
7.70542e-09
1.47907e-07
7.3383e-09
1.46404e-07
6.99447e-09
1.44959e-07
6.67137e-09
1.4357e-07
6.3664e-09
1.42234e-07
6.07778e-09
1.40949e-07
5.8023e-09
1.39714e-07
5.53983e-09
1.38526e-07
5.28453e-09
1.37386e-07
5.04074e-09
1.36291e-07
4.79495e-09
1.35242e-07
4.5633e-09
1.34239e-07
4.31278e-09
1.33282e-07
4.08771e-09
1.32371e-07
3.81221e-09
1.31511e-07
3.58547e-09
1.30699e-07
3.26288e-09
1.29951e-07
2.99258e-09
1.29253e-07
2.64308e-09
1.28639e-07
2.06132e-09
1.28132e-07
1.88657e-09
-1.73319e-10
1.27322e-07
2.06423e-07
9.351e-08
2.09331e-07
9.14582e-08
2.11057e-07
6.39462e-08
2.11938e-07
5.34384e-08
2.12002e-07
4.64892e-08
2.1162e-07
4.06845e-08
2.10895e-07
3.65694e-08
2.09829e-07
3.34472e-08
2.0846e-07
3.07802e-08
2.06848e-07
2.84266e-08
2.05048e-07
2.63443e-08
2.03107e-07
2.44892e-08
2.01069e-07
2.28224e-08
1.98968e-07
2.13156e-08
1.96833e-07
1.99482e-08
1.94687e-07
1.8704e-08
1.92549e-07
1.7569e-08
1.90431e-07
1.65316e-08
1.88345e-07
1.55814e-08
1.86298e-07
1.47093e-08
1.84296e-07
1.39072e-08
1.82342e-07
1.31679e-08
1.80438e-07
1.24852e-08
1.78587e-07
1.18533e-08
1.76788e-07
1.12671e-08
1.75043e-07
1.0722e-08
1.7335e-07
1.02141e-08
1.71709e-07
9.7396e-09
1.70119e-07
9.29529e-09
1.68579e-07
8.8781e-09
1.67088e-07
8.4853e-09
1.65645e-07
8.11438e-09
1.64249e-07
7.76271e-09
1.62898e-07
7.42849e-09
1.61592e-07
7.1084e-09
1.6033e-07
6.80223e-09
1.59111e-07
6.50391e-09
1.57934e-07
6.21773e-09
1.56799e-07
5.92973e-09
1.55706e-07
5.65598e-09
1.54656e-07
5.3631e-09
1.53649e-07
5.09435e-09
1.52686e-07
4.77566e-09
1.51772e-07
4.49934e-09
1.50901e-07
4.13376e-09
1.50095e-07
3.79839e-09
1.49334e-07
3.40406e-09
1.48647e-07
2.74827e-09
1.48063e-07
2.47045e-09
6.79594e-10
1.4721e-07
2.12269e-07
8.69035e-08
2.1514e-07
8.85869e-08
2.16811e-07
6.22749e-08
2.17852e-07
5.23976e-08
2.18262e-07
4.60795e-08
2.18381e-07
4.05653e-08
2.18308e-07
3.66421e-08
2.18012e-07
3.37434e-08
2.17486e-07
3.13061e-08
2.16749e-07
2.91636e-08
2.15825e-07
2.72685e-08
2.14738e-07
2.55759e-08
2.13514e-07
2.40462e-08
2.12179e-07
2.26516e-08
2.10754e-07
2.13732e-08
2.0926e-07
2.01971e-08
2.07717e-07
1.91122e-08
2.0614e-07
1.81092e-08
2.04541e-07
1.71801e-08
2.02932e-07
1.63181e-08
2.01322e-07
1.55169e-08
1.99719e-07
1.47711e-08
1.98129e-07
1.40757e-08
1.96556e-07
1.34262e-08
1.95004e-07
1.28184e-08
1.93478e-07
1.22488e-08
1.91978e-07
1.17138e-08
1.90507e-07
1.12104e-08
1.89067e-07
1.07357e-08
1.87658e-07
1.02871e-08
1.86281e-07
9.86215e-09
1.84937e-07
9.45853e-09
1.83626e-07
9.07381e-09
1.82348e-07
8.70627e-09
1.81104e-07
8.35266e-09
1.79893e-07
8.01281e-09
1.78716e-07
7.68061e-09
1.77574e-07
7.36022e-09
1.76466e-07
7.03774e-09
1.75393e-07
6.72855e-09
1.74356e-07
6.40022e-09
1.73357e-07
6.09303e-09
1.72395e-07
5.73804e-09
1.71478e-07
5.41606e-09
1.70597e-07
5.01472e-09
1.69777e-07
4.61889e-09
1.68996e-07
4.18464e-09
1.68273e-07
3.47128e-09
1.67647e-07
3.09704e-09
1.53902e-09
1.66787e-07
2.18315e-07
8.05696e-08
2.21189e-07
8.57121e-08
2.22784e-07
6.06803e-08
2.23853e-07
5.13283e-08
2.24372e-07
4.55614e-08
2.24668e-07
4.02687e-08
2.24871e-07
3.6439e-08
2.24953e-07
3.36621e-08
2.24892e-07
3.13671e-08
2.24688e-07
2.93667e-08
2.24348e-07
2.76093e-08
2.23875e-07
2.60484e-08
2.2328e-07
2.46416e-08
2.22572e-07
2.33588e-08
2.21766e-07
2.218e-08
2.20872e-07
2.10908e-08
2.19904e-07
2.00804e-08
2.18873e-07
1.914e-08
2.17791e-07
1.82626e-08
2.16666e-07
1.74423e-08
2.15509e-07
1.66738e-08
2.14328e-07
1.59527e-08
2.13129e-07
1.5275e-08
2.11918e-07
1.4637e-08
2.10701e-07
1.40354e-08
2.09482e-07
1.34672e-08
2.08266e-07
1.29297e-08
2.07057e-07
1.24203e-08
2.05855e-07
1.19367e-08
2.04666e-07
1.14766e-08
2.0349e-07
1.1038e-08
2.0233e-07
1.06188e-08
2.01187e-07
1.02168e-08
2.00063e-07
9.83062e-09
1.98958e-07
9.45708e-09
1.97875e-07
9.09612e-09
1.96814e-07
8.74175e-09
1.95776e-07
8.39797e-09
1.94762e-07
8.05127e-09
1.93775e-07
7.71599e-09
1.92814e-07
7.36154e-09
1.91883e-07
7.02398e-09
1.90979e-07
6.64168e-09
1.90114e-07
6.28126e-09
1.89276e-07
5.85273e-09
1.88489e-07
5.40558e-09
1.87736e-07
4.9374e-09
1.87022e-07
4.18563e-09
1.86393e-07
3.7261e-09
2.36564e-09
1.85566e-07
2.24548e-07
7.45145e-08
2.27449e-07
8.28111e-08
2.2898e-07
5.91496e-08
2.30056e-07
5.02519e-08
2.30615e-07
4.50027e-08
2.3096e-07
3.99236e-08
2.31253e-07
3.61462e-08
2.31482e-07
3.34328e-08
2.31629e-07
3.12198e-08
2.31693e-07
2.9303e-08
2.31673e-07
2.76299e-08
2.31566e-07
2.61551e-08
2.31373e-07
2.48349e-08
2.31094e-07
2.3637e-08
2.30735e-07
2.25397e-08
2.30298e-07
2.15273e-08
2.2979e-07
2.05881e-08
2.29218e-07
1.97128e-08
2.28586e-07
1.88942e-08
2.27902e-07
1.81262e-08
2.27172e-07
1.74039e-08
2.26402e-07
1.67229e-08
2.25597e-07
1.60796e-08
2.24763e-07
1.54707e-08
2.23905e-07
1.48933e-08
2.23028e-07
1.43448e-08
2.22135e-07
1.38228e-08
2.2123e-07
1.33252e-08
2.20317e-07
1.28498e-08
2.19398e-07
1.23949e-08
2.18478e-07
1.19586e-08
2.17557e-07
1.15392e-08
2.16639e-07
1.11347e-08
2.15726e-07
1.07439e-08
2.14819e-07
1.03637e-08
2.13921e-07
9.99431e-09
2.13033e-07
9.62982e-09
2.12157e-07
9.27406e-09
2.11294e-07
8.91417e-09
2.10447e-07
8.56312e-09
2.09616e-07
8.19288e-09
2.08805e-07
7.8344e-09
2.08012e-07
7.43472e-09
2.07248e-07
7.04519e-09
2.06502e-07
6.59862e-09
2.05796e-07
6.1122e-09
2.05116e-07
5.61722e-09
2.04455e-07
4.84649e-09
2.03865e-07
4.31671e-09
3.12141e-09
2.03109e-07
2.30974e-07
6.87463e-08
2.3391e-07
7.98751e-08
2.35384e-07
5.76759e-08
2.36469e-07
4.91671e-08
2.3706e-07
4.4411e-08
2.3742e-07
3.95635e-08
2.37735e-07
3.58317e-08
2.3801e-07
3.31576e-08
2.38233e-07
3.0997e-08
2.38406e-07
2.91302e-08
2.38531e-07
2.75051e-08
2.38605e-07
2.60802e-08
2.38628e-07
2.48124e-08
2.38596e-07
2.36687e-08
2.3851e-07
2.26262e-08
2.38369e-07
2.16686e-08
2.38173e-07
2.07832e-08
2.37926e-07
1.99601e-08
2.37629e-07
1.91915e-08
2.37284e-07
1.84707e-08
2.36896e-07
1.77926e-08
2.36466e-07
1.71526e-08
2.35999e-07
1.6547e-08
2.35497e-07
1.59723e-08
2.34964e-07
1.54259e-08
2.34404e-07
1.4905e-08
2.3382e-07
1.44075e-08
2.33214e-07
1.39312e-08
2.32589e-07
1.34743e-08
2.31949e-07
1.30351e-08
2.31296e-07
1.26118e-08
2.30632e-07
1.2203e-08
2.2996e-07
1.18066e-08
2.29282e-07
1.14218e-08
2.286e-07
1.10454e-08
2.27917e-07
1.06778e-08
2.27233e-07
1.03133e-08
2.26552e-07
9.95544e-09
2.25874e-07
9.5921e-09
2.25203e-07
9.23469e-09
2.24537e-07
8.85819e-09
2.23884e-07
8.48796e-09
2.23238e-07
8.08028e-09
2.22612e-07
7.67138e-09
2.21995e-07
7.2154e-09
2.21405e-07
6.70274e-09
2.20833e-07
6.18859e-09
2.20263e-07
5.41657e-09
2.19746e-07
4.83384e-09
3.77507e-09
2.19092e-07
2.37601e-07
6.32705e-08
2.40576e-07
7.68999e-08
2.41992e-07
5.62593e-08
2.43084e-07
4.80751e-08
2.43713e-07
4.37827e-08
2.44086e-07
3.91903e-08
2.44406e-07
3.55116e-08
2.44694e-07
3.28697e-08
2.4494e-07
3.07513e-08
2.45149e-07
2.89208e-08
2.45328e-07
2.73259e-08
2.45478e-07
2.59302e-08
2.45598e-07
2.46926e-08
2.45686e-07
2.35806e-08
2.45741e-07
2.2571e-08
2.45762e-07
2.16474e-08
2.45749e-07
2.07968e-08
2.457e-07
2.00089e-08
2.45616e-07
1.92755e-08
2.45497e-07
1.85896e-08
2.45344e-07
1.79457e-08
2.45158e-07
1.73389e-08
2.4494e-07
1.67652e-08
2.44691e-07
1.6221e-08
2.44413e-07
1.57034e-08
2.44109e-07
1.52096e-08
2.43779e-07
1.47372e-08
2.43426e-07
1.42843e-08
2.43052e-07
1.38488e-08
2.42658e-07
1.34289e-08
2.42247e-07
1.30231e-08
2.4182e-07
1.26298e-08
2.41379e-07
1.22472e-08
2.40927e-07
1.18741e-08
2.40464e-07
1.15079e-08
2.39994e-07
1.11485e-08
2.39516e-07
1.07906e-08
2.39035e-07
1.04373e-08
2.38549e-07
1.00775e-08
2.38063e-07
9.72067e-09
2.37576e-07
9.34519e-09
2.37094e-07
8.9706e-09
2.36612e-07
8.56235e-09
2.3614e-07
8.14275e-09
2.35671e-07
7.68436e-09
2.35216e-07
7.15754e-09
2.34774e-07
6.63141e-09
2.34318e-07
5.8724e-09
2.33897e-07
5.2542e-09
4.3073e-09
2.33365e-07
2.44436e-07
5.80911e-08
2.47449e-07
7.38862e-08
2.48811e-07
5.48981e-08
2.49905e-07
4.69803e-08
2.50572e-07
4.31159e-08
2.50962e-07
3.88006e-08
2.51287e-07
3.51869e-08
2.5158e-07
3.25761e-08
2.51834e-07
3.04979e-08
2.52054e-07
2.87004e-08
2.5225e-07
2.71296e-08
2.52426e-07
2.57542e-08
2.52583e-07
2.45361e-08
2.5272e-07
2.34433e-08
2.52838e-07
2.24533e-08
2.52936e-07
2.15497e-08
2.53013e-07
2.07198e-08
2.53068e-07
1.99534e-08
2.53102e-07
1.9242e-08
2.53113e-07
1.85787e-08
2.53101e-07
1.79576e-08
2.53066e-07
1.73738e-08
2.53008e-07
1.6823e-08
2.52927e-07
1.63015e-08
2.52825e-07
1.58061e-08
2.527e-07
1.53339e-08
2.52555e-07
1.48824e-08
2.5239e-07
1.44495e-08
2.52206e-07
1.40331e-08
2.52003e-07
1.36313e-08
2.51784e-07
1.32424e-08
2.51549e-07
1.28648e-08
2.513e-07
1.24966e-08
2.51037e-07
1.21368e-08
2.50762e-07
1.17825e-08
2.50477e-07
1.14337e-08
2.50182e-07
1.10853e-08
2.4988e-07
1.07398e-08
2.4957e-07
1.03871e-08
2.49256e-07
1.00349e-08
2.48937e-07
9.6647e-09
2.48617e-07
9.2906e-09
2.48292e-07
8.88649e-09
2.47972e-07
8.46275e-09
2.4765e-07
8.00658e-09
2.47332e-07
7.47538e-09
2.4702e-07
6.94327e-09
2.46686e-07
6.2072e-09
2.46371e-07
5.56931e-09
4.71329e-09
2.45965e-07
2.51488e-07
5.32098e-08
2.5453e-07
7.08443e-08
2.55847e-07
5.35813e-08
2.56939e-07
4.58881e-08
2.57643e-07
4.24114e-08
2.58052e-07
3.83915e-08
2.58383e-07
3.48562e-08
2.58682e-07
3.22771e-08
2.58941e-07
3.02391e-08
2.59166e-07
2.84754e-08
2.59368e-07
2.69277e-08
2.59552e-07
2.55701e-08
2.59721e-07
2.43675e-08
2.59875e-07
2.32889e-08
2.60016e-07
2.23121e-08
2.60145e-07
2.14213e-08
2.6026e-07
2.06041e-08
2.60363e-07
1.98507e-08
2.60452e-07
1.91526e-08
2.60528e-07
1.85029e-08
2.6059e-07
1.7896e-08
2.60637e-07
1.73266e-08
2.6067e-07
1.67905e-08
2.60687e-07
1.6284e-08
2.6069e-07
1.58036e-08
2.60677e-07
1.53465e-08
2.60649e-07
1.491e-08
2.60607e-07
1.44918e-08
2.6055e-07
1.40898e-08
2.6048e-07
1.3702e-08
2.60396e-07
1.33266e-08
2.60298e-07
1.2962e-08
2.60189e-07
1.26061e-08
2.60068e-07
1.22579e-08
2.59936e-07
1.19144e-08
2.59794e-07
1.15756e-08
2.59643e-07
1.12365e-08
2.59483e-07
1.08991e-08
2.59316e-07
1.05543e-08
2.59143e-07
1.02077e-08
2.58964e-07
9.84437e-09
2.58781e-07
9.47307e-09
2.58593e-07
9.07512e-09
2.58404e-07
8.65135e-09
2.58211e-07
8.19971e-09
2.58015e-07
7.67097e-09
2.57821e-07
7.13726e-09
2.57599e-07
6.42967e-09
2.57383e-07
5.78494e-09
5.00205e-09
2.57095e-07
2.58766e-07
4.86271e-08
2.61825e-07
6.77845e-08
2.63109e-07
5.22979e-08
2.64193e-07
4.48036e-08
2.64933e-07
4.16714e-08
2.65364e-07
3.7961e-08
2.65701e-07
3.45187e-08
2.66006e-07
3.19722e-08
2.66271e-07
2.99747e-08
2.665e-07
2.82463e-08
2.66705e-07
2.67227e-08
2.66892e-07
2.53828e-08
2.67065e-07
2.41949e-08
2.67225e-07
2.31288e-08
2.67374e-07
2.2163e-08
2.67513e-07
2.12821e-08
2.67643e-07
2.04742e-08
2.67764e-07
1.97295e-08
2.67876e-07
1.90401e-08
2.6798e-07
1.83991e-08
2.68075e-07
1.78009e-08
2.68161e-07
1.72405e-08
2.68238e-07
1.67136e-08
2.68306e-07
1.62164e-08
2.68364e-07
1.57455e-08
2.68412e-07
1.5298e-08
2.68451e-07
1.48713e-08
2.6848e-07
1.44629e-08
2.68499e-07
1.40706e-08
2.68509e-07
1.36925e-08
2.68508e-07
1.33266e-08
2.68499e-07
1.29713e-08
2.68481e-07
1.26244e-08
2.68454e-07
1.22848e-08
2.68419e-07
1.19496e-08
2.68376e-07
1.16186e-08
2.68325e-07
1.12869e-08
2.68268e-07
1.09561e-08
2.68205e-07
1.0618e-08
2.68136e-07
1.02766e-08
2.68061e-07
9.91951e-09
2.67982e-07
9.55141e-09
2.67898e-07
9.15961e-09
2.67811e-07
8.73789e-09
2.6772e-07
8.29119e-09
2.67622e-07
7.76898e-09
2.67523e-07
7.23654e-09
2.67393e-07
6.55922e-09
2.67261e-07
5.91716e-09
5.19259e-09
2.6707e-07
2.66278e-07
4.43417e-08
2.69344e-07
6.47177e-08
2.70605e-07
5.10372e-08
2.71678e-07
4.3731e-08
2.7245e-07
4.08991e-08
2.72903e-07
3.75076e-08
2.73249e-07
3.41735e-08
2.73559e-07
3.16614e-08
2.7383e-07
2.97042e-08
2.74063e-07
2.80127e-08
2.74272e-07
2.65147e-08
2.74461e-07
2.51931e-08
2.74636e-07
2.402e-08
2.74799e-07
2.29664e-08
2.7495e-07
2.20112e-08
2.75093e-07
2.11393e-08
2.75228e-07
2.03394e-08
2.75355e-07
1.9602e-08
2.75476e-07
1.89193e-08
2.75591e-07
1.82847e-08
2.75699e-07
1.76927e-08
2.75801e-07
1.71384e-08
2.75897e-07
1.66175e-08
2.75987e-07
1.61264e-08
2.76071e-07
1.56616e-08
2.76149e-07
1.52203e-08
2.7622e-07
1.47998e-08
2.76285e-07
1.43977e-08
2.76344e-07
1.40116e-08
2.76397e-07
1.36398e-08
2.76444e-07
1.328e-08
2.76484e-07
1.29307e-08
2.76519e-07
1.25898e-08
2.76548e-07
1.22559e-08
2.76571e-07
1.19263e-08
2.76589e-07
1.16005e-08
2.76602e-07
1.1274e-08
2.76611e-07
1.09477e-08
2.76614e-07
1.06146e-08
2.76614e-07
1.02767e-08
2.76609e-07
9.92452e-09
2.76601e-07
9.55902e-09
2.76589e-07
9.17221e-09
2.76573e-07
8.75324e-09
2.76554e-07
8.31087e-09
2.76525e-07
7.79711e-09
2.76494e-07
7.26773e-09
2.76434e-07
6.61981e-09
2.76364e-07
5.98688e-09
5.30851e-09
2.76248e-07
2.74032e-07
4.03505e-08
2.77095e-07
6.16546e-08
2.78344e-07
4.9789e-08
2.79401e-07
4.26739e-08
2.80202e-07
4.00983e-08
2.80679e-07
3.70296e-08
2.81033e-07
3.38198e-08
2.8135e-07
3.13447e-08
2.81627e-07
2.94274e-08
2.81865e-07
2.77743e-08
2.82076e-07
2.63033e-08
2.82269e-07
2.50008e-08
2.82446e-07
2.3843e-08
2.8261e-07
2.28022e-08
2.82763e-07
2.18577e-08
2.82908e-07
2.09949e-08
2.83044e-07
2.02028e-08
2.83174e-07
1.94722e-08
2.83298e-07
1.87956e-08
2.83416e-07
1.81667e-08
2.83529e-07
1.75799e-08
2.83637e-07
1.70304e-08
2.8374e-07
1.65142e-08
2.83839e-07
1.60276e-08
2.83933e-07
1.55673e-08
2.84023e-07
1.51303e-08
2.84109e-07
1.4714e-08
2.84191e-07
1.4316e-08
2.84268e-07
1.39341e-08
2.84342e-07
1.35663e-08
2.84411e-07
1.32105e-08
2.84477e-07
1.28651e-08
2.84539e-07
1.25279e-08
2.84597e-07
1.21976e-08
2.84652e-07
1.18714e-08
2.84704e-07
1.15488e-08
2.84752e-07
1.12256e-08
2.84798e-07
1.09019e-08
2.8484e-07
1.05719e-08
2.84881e-07
1.02362e-08
2.84918e-07
9.88732e-09
2.84954e-07
9.52357e-09
2.84985e-07
9.14031e-09
2.85015e-07
8.72411e-09
2.8504e-07
8.28513e-09
2.85057e-07
7.78043e-09
2.85069e-07
7.25528e-09
2.85055e-07
6.63442e-09
2.85027e-07
6.01465e-09
5.37294e-09
2.84963e-07
2.82039e-07
3.66488e-08
2.85087e-07
5.86064e-08
2.86333e-07
4.85438e-08
2.87371e-07
4.16353e-08
2.88196e-07
3.92733e-08
2.887e-07
3.65258e-08
2.89064e-07
3.34564e-08
2.89386e-07
3.10223e-08
2.89669e-07
2.91442e-08
2.89913e-07
2.75306e-08
2.90128e-07
2.60883e-08
2.90323e-07
2.48058e-08
2.90502e-07
2.36637e-08
2.90668e-07
2.26361e-08
2.90823e-07
2.17027e-08
2.90969e-07
2.08492e-08
2.91107e-07
2.0065e-08
2.91238e-07
1.93413e-08
2.91363e-07
1.86708e-08
2.91482e-07
1.80473e-08
2.91596e-07
1.74654e-08
2.91706e-07
1.69204e-08
2.91812e-07
1.64084e-08
2.91914e-07
1.59257e-08
2.92012e-07
1.54691e-08
2.92107e-07
1.50357e-08
2.92198e-07
1.46227e-08
2.92286e-07
1.4228e-08
2.92371e-07
1.38491e-08
2.92453e-07
1.34842e-08
2.92533e-07
1.31311e-08
2.9261e-07
1.27883e-08
2.92684e-07
1.24535e-08
2.92756e-07
1.21254e-08
2.92826e-07
1.18015e-08
2.92894e-07
1.14806e-08
2.9296e-07
1.11594e-08
2.93025e-07
1.08371e-08
2.93088e-07
1.0509e-08
2.9315e-07
1.01743e-08
2.9321e-07
9.82744e-09
2.93269e-07
9.46475e-09
2.93325e-07
9.08382e-09
2.93379e-07
8.67027e-09
2.9343e-07
8.23393e-09
2.93473e-07
7.73822e-09
2.9351e-07
7.21827e-09
2.93522e-07
6.62163e-09
2.9352e-07
6.01731e-09
5.40508e-09
2.93488e-07
2.90308e-07
3.323e-08
2.9333e-07
5.55841e-08
2.94581e-07
4.72927e-08
2.95599e-07
4.06172e-08
2.96443e-07
3.84292e-08
2.96974e-07
3.59951e-08
2.97348e-07
3.30821e-08
2.97676e-07
3.06941e-08
2.97966e-07
2.88545e-08
2.98215e-07
2.72814e-08
2.98434e-07
2.58693e-08
2.98632e-07
2.46077e-08
2.98814e-07
2.3482e-08
2.98982e-07
2.2468e-08
2.99139e-07
2.1546e-08
2.99286e-07
2.07021e-08
2.99425e-07
1.9926e-08
2.99557e-07
1.92094e-08
2.99683e-07
1.85451e-08
2.99803e-07
1.7927e-08
2.99918e-07
1.73501e-08
3.00029e-07
1.68096e-08
3.00136e-07
1.63017e-08
3.00239e-07
1.58228e-08
3.00338e-07
1.53697e-08
3.00434e-07
1.49395e-08
3.00527e-07
1.45296e-08
3.00618e-07
1.41376e-08
3.00705e-07
1.37614e-08
3.00791e-07
1.33988e-08
3.00874e-07
1.3048e-08
3.00955e-07
1.27071e-08
3.01034e-07
1.23741e-08
3.01112e-07
1.20476e-08
3.01189e-07
1.17251e-08
3.01264e-07
1.14054e-08
3.01338e-07
1.10853e-08
3.01411e-07
1.07637e-08
3.01484e-07
1.04367e-08
3.01555e-07
1.01024e-08
3.01626e-07
9.7568e-09
3.01696e-07
9.39483e-09
3.01764e-07
9.01542e-09
3.0183e-07
8.60447e-09
3.01894e-07
8.17043e-09
3.01948e-07
7.68343e-09
3.01997e-07
7.16962e-09
3.02024e-07
6.59446e-09
3.02035e-07
6.00677e-09
5.41885e-09
3.02021e-07
2.98846e-07
3.00861e-08
3.01832e-07
5.25989e-08
3.03097e-07
4.60278e-08
3.04093e-07
3.96209e-08
3.04951e-07
3.75711e-08
3.05509e-07
3.5437e-08
3.05896e-07
3.26954e-08
3.0623e-07
3.03601e-08
3.06526e-07
2.85584e-08
3.06781e-07
2.70262e-08
3.07004e-07
2.56459e-08
3.07206e-07
2.44065e-08
3.0739e-07
2.32976e-08
3.0756e-07
2.22977e-08
3.07719e-07
2.13875e-08
3.07868e-07
2.05534e-08
3.08008e-07
1.97858e-08
3.08141e-07
1.90764e-08
3.08267e-07
1.84184e-08
3.08388e-07
1.7806e-08
3.08504e-07
1.72341e-08
3.08616e-07
1.66982e-08
3.08723e-07
1.61944e-08
3.08827e-07
1.57193e-08
3.08927e-07
1.52697e-08
3.09023e-07
1.48427e-08
3.09117e-07
1.44358e-08
3.09208e-07
1.40466e-08
3.09297e-07
1.36728e-08
3.09383e-07
1.33125e-08
3.09468e-07
1.29636e-08
3.0955e-07
1.26245e-08
3.09631e-07
1.22931e-08
3.09711e-07
1.19678e-08
3.0979e-07
1.16464e-08
3.09867e-07
1.13275e-08
3.09945e-07
1.10082e-08
3.10021e-07
1.06871e-08
3.10097e-07
1.03607e-08
3.10173e-07
1.00267e-08
3.10248e-07
9.68183e-09
3.10322e-07
9.32051e-09
3.10395e-07
8.94224e-09
3.10466e-07
8.53396e-09
3.10534e-07
8.10228e-09
3.10594e-07
7.62368e-09
3.10646e-07
7.11696e-09
3.1068e-07
6.56095e-09
3.10696e-07
5.99036e-09
5.42323e-09
3.10692e-07
3.07666e-07
2.72073e-08
3.10603e-07
4.96621e-08
3.11888e-07
4.47423e-08
3.12862e-07
3.86468e-08
3.13729e-07
3.67044e-08
3.14315e-07
3.48515e-08
3.14715e-07
3.22947e-08
3.15055e-07
3.00202e-08
3.15358e-07
2.82559e-08
3.15619e-07
2.67648e-08
3.15847e-07
2.5418e-08
3.16052e-07
2.42017e-08
3.16239e-07
2.31103e-08
3.16412e-07
2.21249e-08
3.16573e-07
2.12269e-08
3.16723e-07
2.04031e-08
3.16865e-07
1.96441e-08
3.16999e-07
1.89422e-08
3.17126e-07
1.82907e-08
3.17248e-07
1.76841e-08
3.17365e-07
1.71173e-08
3.17477e-07
1.65861e-08
3.17585e-07
1.60866e-08
3.17689e-07
1.56154e-08
3.17789e-07
1.51693e-08
3.17886e-07
1.47456e-08
3.1798e-07
1.43417e-08
3.18072e-07
1.39552e-08
3.18161e-07
1.35839e-08
3.18248e-07
1.32258e-08
3.18332e-07
1.28789e-08
3.18415e-07
1.25415e-08
3.18497e-07
1.22115e-08
3.18577e-07
1.18875e-08
3.18657e-07
1.15671e-08
3.18735e-07
1.12489e-08
3.18813e-07
1.09303e-08
3.18891e-07
1.06095e-08
3.18968e-07
1.02837e-08
3.19045e-07
9.94987e-09
3.19121e-07
9.60557e-09
3.19196e-07
9.24502e-09
3.19271e-07
8.86782e-09
3.19342e-07
8.46238e-09
3.19411e-07
8.03339e-09
3.19472e-07
7.56298e-09
3.19525e-07
7.06423e-09
3.1956e-07
6.52553e-09
3.19578e-07
5.97206e-09
5.42342e-09
3.19578e-07
3.16776e-07
2.45823e-08
3.19653e-07
4.67848e-08
3.20965e-07
4.34306e-08
3.21917e-07
3.76945e-08
3.22788e-07
3.5834e-08
3.234e-07
3.42395e-08
3.23816e-07
3.18786e-08
3.24162e-07
2.96738e-08
3.24471e-07
2.7947e-08
3.24739e-07
2.6497e-08
3.24972e-07
2.51849e-08
3.25181e-07
2.39932e-08
3.25371e-07
2.292e-08
3.25546e-07
2.19496e-08
3.25709e-07
2.10641e-08
3.25861e-07
2.02509e-08
3.26005e-07
1.95008e-08
3.2614e-07
1.88066e-08
3.26269e-07
1.81618e-08
3.26392e-07
1.75612e-08
3.2651e-07
1.69997e-08
3.26622e-07
1.64733e-08
3.26731e-07
1.59782e-08
3.26835e-07
1.55109e-08
3.26936e-07
1.50685e-08
3.27034e-07
1.46481e-08
3.27128e-07
1.42473e-08
3.2722e-07
1.38635e-08
3.27309e-07
1.34947e-08
3.27396e-07
1.31389e-08
3.27481e-07
1.2794e-08
3.27564e-07
1.24583e-08
3.27645e-07
1.21298e-08
3.27726e-07
1.1807e-08
3.27805e-07
1.14877e-08
3.27884e-07
1.11702e-08
3.27962e-07
1.08523e-08
3.2804e-07
1.05319e-08
3.28117e-07
1.02065e-08
3.28194e-07
9.87303e-09
3.2827e-07
9.52932e-09
3.28345e-07
9.16974e-09
3.28419e-07
8.79373e-09
3.2849e-07
8.39136e-09
3.28558e-07
7.96556e-09
3.28618e-07
7.50318e-09
3.28669e-07
7.01317e-09
3.28704e-07
6.4904e-09
3.28722e-07
5.9538e-09
5.42216e-09
3.28724e-07
3.26186e-07
2.21985e-08
3.28993e-07
4.39779e-08
3.30335e-07
4.20885e-08
3.31267e-07
3.67629e-08
3.32136e-07
3.49647e-08
3.32773e-07
3.36024e-08
3.33206e-07
3.14455e-08
3.3356e-07
2.93206e-08
3.33875e-07
2.76319e-08
3.34149e-07
2.62225e-08
3.34388e-07
2.49465e-08
3.346e-07
2.37806e-08
3.34794e-07
2.27263e-08
3.34972e-07
2.17713e-08
3.35137e-07
2.08989e-08
3.35292e-07
2.00966e-08
3.35437e-07
1.93557e-08
3.35574e-07
1.86694e-08
3.35704e-07
1.80316e-08
3.35828e-07
1.74371e-08
3.35947e-07
1.68811e-08
3.36061e-07
1.63596e-08
3.3617e-07
1.5869e-08
3.36275e-07
1.54058e-08
3.36376e-07
1.49671e-08
3.36474e-07
1.45502e-08
3.36569e-07
1.41525e-08
3.36661e-07
1.37716e-08
3.3675e-07
1.34054e-08
3.36837e-07
1.30518e-08
3.36922e-07
1.2709e-08
3.37006e-07