/*--------------------------------*- C++ -*----------------------------------*\
  =========                 |
  \\      /  F ield         | OpenFOAM: The Open Source CFD Toolbox
   \\    /   O peration     | Website:  https://openfoam.org
    \\  /    A nd           | Version:  7
     \\/     M anipulation  |
\*---------------------------------------------------------------------------*/
FoamFile
{
    version     2.0;
    format      ascii;
    class       volVectorField;
    location    "0.12";
    object      U_0;
}
// * * * * * * * * * * * * * * * * * * * * * * * * * * * * * * * * * * * * * //

dimensions      [0 1 -1 0 0 0 0];

internalField   nonuniform List<vector> 
70000
(
(0.553413 0.0169782 0)
(0.251416 0.00340046 0)
(0.165925 0.000319012 0)
(0.132445 4.90692e-05 0)
(0.117343 4.41155e-05 0)
(0.107388 5.22772e-05 0)
(0.0994206 4.44754e-05 0)
(0.0929805 3.53976e-05 0)
(0.0877396 2.93597e-05 0)
(0.0833728 2.52234e-05 0)
(0.079652 2.20644e-05 0)
(0.0764293 1.95341e-05 0)
(0.0736036 1.74725e-05 0)
(0.0711007 1.57704e-05 0)
(0.0688645 1.43465e-05 0)
(0.0668517 1.31409e-05 0)
(0.0650281 1.2109e-05 0)
(0.0633664 1.12172e-05 0)
(0.0618448 1.044e-05 0)
(0.0604451 9.75753e-06 0)
(0.0591523 9.15409e-06 0)
(0.057954 8.61708e-06 0)
(0.0568398 8.13629e-06 0)
(0.0558006 7.70329e-06 0)
(0.054829 7.31101e-06 0)
(0.0539184 6.95366e-06 0)
(0.0530633 6.62579e-06 0)
(0.0522587 6.32396e-06 0)
(0.0515007 6.04263e-06 0)
(0.0507855 5.78159e-06 0)
(0.0501101 5.53273e-06 0)
(0.0494716 5.30146e-06 0)
(0.048868 5.07304e-06 0)
(0.0482971 4.86324e-06 0)
(0.0477575 4.64476e-06 0)
(0.0472476 4.44839e-06 0)
(0.0467665 4.23441e-06 0)
(0.0463143 4.03419e-06 0)
(0.0458876 3.84307e-06 0)
(0.0454935 3.57554e-06 0)
(0.0451168 3.52026e-06 0)
(0.0447891 2.94613e-06 0)
(0.044452 3.47034e-06 0)
(0.0442179 1.75525e-06 0)
(0.043887 4.37876e-06 0)
(0.0438232 -1.22527e-06 0)
(0.043396 8.49293e-06 0)
(0.043694 -1.00941e-05 0)
(0.0430668 3.3772e-05 0)
(0.0408242 -0.00161025 0)
(0.884862 0.0434933 0)
(0.650147 0.020149 0)
(0.493981 0.00660459 0)
(0.403569 0.0027546 0)
(0.35487 0.00154775 0)
(0.323568 0.00113147 0)
(0.299681 0.000909094 0)
(0.280484 0.00074459 0)
(0.26478 0.000622017 0)
(0.251665 0.000531686 0)
(0.240488 0.000463164 0)
(0.230807 0.000409281 0)
(0.222317 0.000365777 0)
(0.214793 0.000329996 0)
(0.208069 0.00030013 0)
(0.202015 0.000274883 0)
(0.196528 0.000253304 0)
(0.191526 0.000234678 0)
(0.186945 0.00021846 0)
(0.182729 0.00020423 0)
(0.178834 0.000191654 0)
(0.175223 0.000180467 0)
(0.171864 0.000170455 0)
(0.16873 0.00016144 0)
(0.165799 0.000153279 0)
(0.163051 0.000145847 0)
(0.160469 0.000139043 0)
(0.158039 0.000132779 0)
(0.155749 0.000126975 0)
(0.153587 0.00012157 0)
(0.151543 0.000116492 0)
(0.14961 0.000111706 0)
(0.147781 0.000107124 0)
(0.146049 0.000102755 0)
(0.144411 9.84557e-05 0)
(0.14286 9.43235e-05 0)
(0.141394 9.00805e-05 0)
(0.140013 8.60002e-05 0)
(0.138708 8.15617e-05 0)
(0.137497 7.72894e-05 0)
(0.136341 7.24169e-05 0)
(0.135322 6.74544e-05 0)
(0.134288 6.22001e-05 0)
(0.133535 5.50865e-05 0)
(0.132542 5.09588e-05 0)
(0.132259 3.63443e-05 0)
(0.131065 4.3846e-05 0)
(0.131721 -2.26282e-05 0)
(0.130115 0.000229089 0)
(0.128919 -0.00269557 0)
(0.991208 0.0499557 0)
(0.890923 0.0305627 0)
(0.762497 0.0146102 0)
(0.656553 0.00797004 0)
(0.585466 0.0048787 0)
(0.536115 0.00347363 0)
(0.49824 0.00273756 0)
(0.467626 0.00224354 0)
(0.442324 0.00188019 0)
(0.421024 0.00160907 0)
(0.402776 0.00140221 0)
(0.386911 0.00123954 0)
(0.372954 0.00110828 0)
(0.360555 0.00100032 0)
(0.349451 0.000910184 0)
(0.339433 0.000833959 0)
(0.330339 0.000768783 0)
(0.322039 0.00071251 0)
(0.314426 0.000663504 0)
(0.307413 0.000620492 0)
(0.300927 0.000582476 0)
(0.294908 0.000548657 0)
(0.289304 0.000518386 0)
(0.284071 0.000491136 0)
(0.279173 0.000466469 0)
(0.274578 0.000444017 0)
(0.270257 0.000423473 0)
(0.266187 0.000404573 0)
(0.262347 0.000387084 0)
(0.258719 0.000370814 0)
(0.255287 0.000355567 0)
(0.252037 0.000341209 0)
(0.248958 0.000327526 0)
(0.246038 0.00031448 0)
(0.243271 0.000301733 0)
(0.240647 0.00028946 0)
(0.238162 0.000276971 0)
(0.235814 0.000264957 0)
(0.23359 0.00025188 0)
(0.231515 0.000239596 0)
(0.229531 0.000224786 0)
(0.227759 0.000211552 0)
(0.225977 0.000193524 0)
(0.22461 0.000177826 0)
(0.222917 0.000155717 0)
(0.222241 0.000130413 0)
(0.22032 0.000118486 0)
(0.220967 -3.85684e-06 0)
(0.218439 0.000310147 0)
(0.219353 -0.00269731 0)
(1.01554 0.048954 0)
(1.00649 0.0357242 0)
(0.93589 0.0208185 0)
(0.852029 0.0134969 0)
(0.782274 0.00919604 0)
(0.72715 0.00678134 0)
(0.682085 0.0053853 0)
(0.644346 0.00444447 0)
(0.612351 0.00375046 0)
(0.584901 0.00322545 0)
(0.561057 0.00282027 0)
(0.540111 0.0024995 0)
(0.521534 0.00223957 0)
(0.504922 0.00202505 0)
(0.489961 0.00184539 0)
(0.476402 0.00169308 0)
(0.464046 0.00156256 0)
(0.45273 0.00144966 0)
(0.442321 0.00135119 0)
(0.432706 0.00126464 0)
(0.423794 0.00118806 0)
(0.415506 0.00111987 0)
(0.407775 0.00105878 0)
(0.400544 0.00100376 0)
(0.393765 0.000953929 0)
(0.387394 0.000908567 0)
(0.381396 0.000867061 0)
(0.375738 0.000828884 0)
(0.370393 0.000793584 0)
(0.365336 0.000760769 0)
(0.360545 0.000730067 0)
(0.356002 0.000701189 0)
(0.351691 0.000673755 0)
(0.347597 0.000647631 0)
(0.343709 0.000622241 0)
(0.340016 0.000597816 0)
(0.336509 0.000573141 0)
(0.333186 0.00054944 0)
(0.33003 0.000523777 0)
(0.327068 0.000499924 0)
(0.324235 0.000470737 0)
(0.321665 0.000446036 0)
(0.319108 0.000409243 0)
(0.317045 0.000382867 0)
(0.314638 0.00033297 0)
(0.313395 0.000297452 0)
(0.310813 0.000247312 0)
(0.311058 8.51636e-05 0)
(0.307842 0.000340887 0)
(0.309445 -0.00233416 0)
(1.01435 0.0460984 0)
(1.04798 0.0373414 0)
(1.02457 0.0241858 0)
(0.974689 0.0175553 0)
(0.923511 0.0131059 0)
(0.876807 0.0102019 0)
(0.834673 0.0083418 0)
(0.796957 0.00701939 0)
(0.76343 0.0060093 0)
(0.733646 0.00522287 0)
(0.707089 0.00460243 0)
(0.683287 0.00410344 0)
(0.66184 0.00369437 0)
(0.642414 0.00335367 0)
(0.624735 0.00306622 0)
(0.60857 0.00282101 0)
(0.593729 0.0026098 0)
(0.58005 0.00242629 0)
(0.567396 0.00226562 0)
(0.555653 0.00212395 0)
(0.54472 0.00199824 0)
(0.534514 0.00188603 0)
(0.524961 0.00178531 0)
(0.515999 0.00169442 0)
(0.507573 0.00161199 0)
(0.499634 0.00153685 0)
(0.492142 0.00146805 0)
(0.485058 0.00140472 0)
(0.478352 0.00134615 0)
(0.471994 0.0012917 0)
(0.465959 0.00124079 0)
(0.460225 0.00119294 0)
(0.454773 0.00114756 0)
(0.449585 0.0011044 0)
(0.444648 0.00106261 0)
(0.439947 0.00102245 0)
(0.435473 0.000982129 0)
(0.431221 0.000943427 0)
(0.427171 0.000901851 0)
(0.423352 0.000863294 0)
(0.419694 0.000816282 0)
(0.416333 0.000777108 0)
(0.413019 0.000717589 0)
(0.410225 0.000677559 0)
(0.407136 0.000595117 0)
(0.405205 0.000545562 0)
(0.402062 0.00045074 0)
(0.401582 0.000249996 0)
(0.39804 0.000415007 0)
(0.398936 -0.00193082 0)
(1.00941 0.0430481 0)
(1.05563 0.0370969 0)
(1.05867 0.0253272 0)
(1.0363 0.0197598 0)
(1.00714 0.015793 0)
(0.976147 0.0129281 0)
(0.944647 0.0109564 0)
(0.913812 0.00947329 0)
(0.884495 0.00828271 0)
(0.857073 0.00731633 0)
(0.831623 0.00652845 0)
(0.808077 0.00587852 0)
(0.786313 0.005335 0)
(0.766187 0.00487504 0)
(0.747552 0.00448185 0)
(0.730266 0.00414276 0)
(0.7142 0.00384799 0)
(0.699234 0.00358988 0)
(0.685264 0.00336238 0)
(0.672194 0.00316062 0)
(0.659942 0.00298068 0)
(0.648432 0.00281935 0)
(0.637599 0.00267397 0)
(0.627385 0.00254234 0)
(0.617738 0.00242261 0)
(0.608612 0.00231319 0)
(0.599967 0.00221277 0)
(0.591765 0.00212017 0)
(0.583974 0.00203442 0)
(0.576566 0.00195461 0)
(0.569514 0.00187994 0)
(0.562795 0.00180973 0)
(0.55639 0.0017432 0)
(0.550279 0.00167993 0)
(0.544449 0.0016188 0)
(0.538882 0.00156009 0)
(0.533571 0.00150143 0)
(0.528505 0.00144508 0)
(0.523671 0.00138509 0)
(0.519086 0.00132925 0)
(0.514695 0.00126209 0)
(0.510609 0.00120568 0)
(0.506615 0.00112153 0)
(0.503123 0.00106401 0)
(0.499432 0.000948774 0)
(0.496779 0.000877708 0)
(0.49319 0.000741599 0)
(0.491827 0.000493028 0)
(0.488178 0.000574976 0)
(0.487885 -0.0014894 0)
(1.00635 0.0401803 0)
(1.05241 0.0361505 0)
(1.06605 0.025251 0)
(1.05953 0.0205647 0)
(1.04689 0.0172195 0)
(1.03086 0.0146453 0)
(1.01198 0.0128137 0)
(0.991322 0.0113875 0)
(0.969946 0.0101904 0)
(0.948577 0.00917612 0)
(0.927656 0.00831829 0)
(0.907442 0.00758853 0)
(0.888079 0.00696225 0)
(0.869634 0.00642055 0)
(0.852125 0.00594886 0)
(0.835538 0.00553563 0)
(0.81984 0.00517155 0)
(0.804988 0.00484905 0)
(0.790934 0.00456191 0)
(0.77763 0.00430502 0)
(0.765026 0.00407414 0)
(0.753075 0.00386572 0)
(0.741734 0.00367678 0)
(0.73096 0.00350478 0)
(0.720716 0.00334757 0)
(0.710965 0.00320331 0)
(0.701676 0.0030704 0)
(0.692819 0.00294745 0)
(0.684366 0.00283324 0)
(0.676292 0.0027267 0)
(0.668576 0.00262682 0)
(0.661196 0.00253276 0)
(0.654136 0.00244354 0)
(0.647376 0.00235861 0)
(0.640904 0.00227661 0)
(0.634706 0.00219779 0)
(0.628772 0.0021193 0)
(0.623094 0.00204374 0)
(0.617659 0.00196396 0)
(0.612479 0.00188915 0)
(0.607512 0.00180078 0)
(0.602843 0.00172493 0)
(0.598308 0.001616 0)
(0.594226 0.00153718 0)
(0.590056 0.00139168 0)
(0.586754 0.0012911 0)
(0.582827 0.00112067 0)
(0.580621 0.000816504 0)
(0.576909 0.000823354 0)
(0.575522 -0.000984707 0)
(1.00506 0.0375032 0)
(1.04762 0.0350525 0)
(1.06395 0.024704 0)
(1.06418 0.0205962 0)
(1.06069 0.0177579 0)
(1.05479 0.0154858 0)
(1.04605 0.0138691 0)
(1.03488 0.0126077 0)
(1.02199 0.0115212 0)
(1.00799 0.0105699 0)
(0.993342 0.00973977 0)
(0.978384 0.00901294 0)
(0.963382 0.00837241 0)
(0.948529 0.00780497 0)
(0.933958 0.00730023 0)
(0.919759 0.00684965 0)
(0.90599 0.00644601 0)
(0.892684 0.00608317 0)
(0.879858 0.00575589 0)
(0.867515 0.00545969 0)
(0.85565 0.00519072 0)
(0.844254 0.00494567 0)
(0.833313 0.00472167 0)
(0.822811 0.00451624 0)
(0.81273 0.0043272 0)
(0.803053 0.00415267 0)
(0.793761 0.00399099 0)
(0.784838 0.00384067 0)
(0.776266 0.00370042 0)
(0.768029 0.00356905 0)
(0.760112 0.00344548 0)
(0.752501 0.00332871 0)
(0.745183 0.00321769 0)
(0.738145 0.00311175 0)
(0.731378 0.00300936 0)
(0.724868 0.00291071 0)
(0.718612 0.00281261 0)
(0.7126 0.00271783 0)
(0.706826 0.00261839 0)
(0.701295 0.00252426 0)
(0.69598 0.00241503 0)
(0.690941 0.00231874 0)
(0.686062 0.00218633 0)
(0.681576 0.00208353 0)
(0.677093 0.00191151 0)
(0.673307 0.00177586 0)
(0.669162 0.00157689 0)
(0.666292 0.00121744 0)
(0.66252 0.00115142 0)
(0.660301 -0.000420716 0)
(1.00451 0.0349674 0)
(1.04359 0.033973 0)
(1.05993 0.0240537 0)
(1.06222 0.0203074 0)
(1.06251 0.0178231 0)
(1.06184 0.0157653 0)
(1.05928 0.014322 0)
(1.05474 0.013226 0)
(1.04855 0.0122813 0)
(1.04101 0.0114418 0)
(1.03239 0.010696 0)
(1.02296 0.0100301 0)
(1.01295 0.00943101 0)
(1.00253 0.00888919 0)
(0.991887 0.00839757 0)
(0.981135 0.00795044 0)
(0.97038 0.00754294 0)
(0.9597 0.00717079 0)
(0.949155 0.00683022 0)
(0.93879 0.00651789 0)
(0.928636 0.00623085 0)
(0.918716 0.00596643 0)
(0.909046 0.00572229 0)
(0.899634 0.00549631 0)
(0.890487 0.00528661 0)
(0.881605 0.00509148 0)
(0.872989 0.00490943 0)
(0.864635 0.00473904 0)
(0.856539 0.00457911 0)
(0.848697 0.00442846 0)
(0.841103 0.00428601 0)
(0.833752 0.00415079 0)
(0.826638 0.00402167 0)
(0.819754 0.00389797 0)
(0.813098 0.00377806 0)
(0.806661 0.00366209 0)
(0.800443 0.00354668 0)
(0.794437 0.00343459 0)
(0.788643 0.00331746 0)
(0.783063 0.00320538 0)
(0.777683 0.00307725 0)
(0.772545 0.00296114 0)
(0.76757 0.00280791 0)
(0.762925 0.00268047 0)
(0.75834 0.00248611 0)
(0.754299 0.00231362 0)
(0.750091 0.00209009 0)
(0.746801 0.00168198 0)
(0.743022 0.00154532 0)
(0.740256 0.000185938 0)
(1.00412 0.0325369 0)
(1.04026 0.0329199 0)
(1.05616 0.0234197 0)
(1.05886 0.0199236 0)
(1.06024 0.0176947 0)
(1.06161 0.0157683 0)
(1.06199 0.0144261 0)
(1.0611 0.013445 0)
(1.05906 0.0126159 0)
(1.05596 0.0118817 0)
(1.05189 0.0112287 0)
(1.04698 0.0106426 0)
(1.04133 0.0101103 0)
(1.03508 0.00962303 0)
(1.02834 0.00917479 0)
(1.02122 0.00876126 0)
(1.01382 0.00837895 0)
(1.00622 0.00802489 0)
(0.998481 0.0076965 0)
(0.99067 0.00739147 0)
(0.982835 0.00710772 0)
(0.975016 0.00684334 0)
(0.967244 0.00659661 0)
(0.959548 0.00636593 0)
(0.951948 0.00614984 0)
(0.94446 0.00594698 0)
(0.937099 0.00575613 0)
(0.929875 0.00557611 0)
(0.922796 0.00540589 0)
(0.915867 0.00524442 0)
(0.909093 0.00509076 0)
(0.902476 0.00494398 0)
(0.89602 0.00480304 0)
(0.889725 0.00466724 0)
(0.883593 0.00453498 0)
(0.877623 0.00440638 0)
(0.87182 0.00427798 0)
(0.86618 0.0041525 0)
(0.860707 0.00402144 0)
(0.855406 0.00389463 0)
(0.85027 0.00375119 0)
(0.84533 0.00361774 0)
(0.840536 0.00344759 0)
(0.836005 0.00329711 0)
(0.831558 0.00308505 0)
(0.827524 0.00287759 0)
(0.823441 0.0026327 0)
(0.820001 0.00218666 0)
(0.816328 0.00198278 0)
(0.813294 0.000812395 0)
(1.00374 0.0302028 0)
(1.03727 0.0318712 0)
(1.05283 0.0228168 0)
(1.05562 0.0195221 0)
(1.05714 0.0175049 0)
(1.05907 0.0156671 0)
(1.06052 0.0143723 0)
(1.06121 0.0134544 0)
(1.06123 0.0126984 0)
(1.0606 0.0120381 0)
(1.05931 0.011457 0)
(1.05739 0.0109396 0)
(1.05486 0.0104714 0)
(1.05177 0.0100424 0)
(1.04819 0.00964617 0)
(1.04416 0.00927834 0)
(1.03976 0.00893561 0)
(1.03503 0.0086154 0)
(1.03003 0.00831559 0)
(1.02482 0.00803439 0)
(1.01943 0.00777022 0)
(1.0139 0.00752169 0)
(1.00828 0.00728751 0)
(1.00259 0.00706651 0)
(0.996858 0.00685759 0)
(0.991108 0.00665974 0)
(0.985362 0.00647199 0)
(0.979636 0.00629345 0)
(0.973946 0.00612327 0)
(0.968304 0.0059606 0)
(0.962723 0.00580463 0)
(0.95721 0.00565457 0)
(0.951776 0.00550947 0)
(0.946425 0.00536871 0)
(0.941167 0.00523073 0)
(0.936005 0.00509567 0)
(0.930946 0.00496009 0)
(0.925993 0.00482657 0)
(0.921153 0.00468678 0)
(0.916432 0.00454993 0)
(0.91183 0.00439605 0)
(0.907371 0.00424932 0)
(0.903026 0.00406724 0)
(0.898876 0.00389732 0)
(0.894809 0.00367265 0)
(0.891037 0.00343515 0)
(0.887281 0.00317218 0)
(0.883953 0.0027011 0)
(0.880535 0.00243669 0)
(0.877496 0.00142893 0)
(1.00337 0.0279674 0)
(1.03443 0.0308143 0)
(1.04972 0.0222389 0)
(1.05266 0.0191179 0)
(1.05414 0.0172967 0)
(1.05613 0.0155368 0)
(1.05784 0.0142639 0)
(1.05906 0.0133765 0)
(1.05989 0.0126609 0)
(1.06036 0.0120434 0)
(1.06047 0.011507 0)
(1.06018 0.0110358 0)
(1.05949 0.0106144 0)
(1.05841 0.0102315 0)
(1.05695 0.0098798 0)
(1.05512 0.00955415 0)
(1.05295 0.00925086 0)
(1.05048 0.00896707 0)
(1.04771 0.00870056 0)
(1.0447 0.00844953 0)
(1.04145 0.00821249 0)
(1.03801 0.00798817 0)
(1.0344 0.00777545 0)
(1.03065 0.00757333 0)
(1.02677 0.00738092 0)
(1.0228 0.00719737 0)
(1.01874 0.00702192 0)
(1.01462 0.00685382 0)
(1.01046 0.00669238 0)
(1.00626 0.0065369 0)
(1.00205 0.0063867 0)
(0.997836 0.00624109 0)
(0.993627 0.00609922 0)
(0.989434 0.00596056 0)
(0.985267 0.00582358 0)
(0.981134 0.00568846 0)
(0.977045 0.00555183 0)
(0.973005 0.00541613 0)
(0.969024 0.0052733 0)
(0.965109 0.00513175 0)
(0.961264 0.00497293 0)
(0.957508 0.00481786 0)
(0.953827 0.00462936 0)
(0.950276 0.00444493 0)
(0.946789 0.00421296 0)
(0.943498 0.00395232 0)
(0.940244 0.00367519 0)
(0.937256 0.00319191 0)
(0.934239 0.00287779 0)
(0.931424 0.0020061 0)
(1.00301 0.0258343 0)
(1.03171 0.0297454 0)
(1.04673 0.0216821 0)
(1.04987 0.0187108 0)
(1.05132 0.0170766 0)
(1.05327 0.0153995 0)
(1.05502 0.0141417 0)
(1.05636 0.0132703 0)
(1.05742 0.0125775 0)
(1.05828 0.0119835 0)
(1.05894 0.0114713 0)
(1.05939 0.0110265 0)
(1.05961 0.0106334 0)
(1.05959 0.0102802 0)
(1.05933 0.00995906 0)
(1.05882 0.00966423 0)
(1.05808 0.00939152 0)
(1.05709 0.00913768 0)
(1.05588 0.00890015 0)
(1.05445 0.00867688 0)
(1.05282 0.00846621 0)
(1.051 0.00826673 0)
(1.04901 0.00807727 0)
(1.04685 0.00789679 0)
(1.04456 0.00772441 0)
(1.04213 0.00755928 0)
(1.03958 0.00740071 0)
(1.03693 0.00724797 0)
(1.0342 0.00710044 0)
(1.03139 0.00695748 0)
(1.02851 0.00681846 0)
(1.02559 0.00668276 0)
(1.02262 0.00654956 0)
(1.01962 0.0064184 0)
(1.0166 0.00628777 0)
(1.01357 0.00615786 0)
(1.01053 0.00602539 0)
(1.0075 0.00589259 0)
(1.00448 0.00575181 0)
(1.00148 0.00561049 0)
(0.998508 0.00545182 0)
(0.99558 0.00529329 0)
(0.992688 0.00510358 0)
(0.989869 0.00491001 0)
(0.987091 0.00467566 0)
(0.984425 0.00439962 0)
(0.981795 0.00411253 0)
(0.979308 0.00362917 0)
(0.976804 0.00327717 0)
(0.974383 0.00251787 0)
(1.00268 0.023806 0)
(1.02911 0.0286627 0)
(1.04382 0.0211462 0)
(1.04717 0.0183006 0)
(1.04863 0.0168432 0)
(1.05055 0.0152577 0)
(1.05229 0.0140168 0)
(1.05364 0.0131567 0)
(1.05473 0.0124801 0)
(1.05569 0.0119009 0)
(1.05652 0.011402 0)
(1.05724 0.0109712 0)
(1.05782 0.0105934 0)
(1.05827 0.010257 0)
(1.05858 0.00995378 0)
(1.05874 0.00967792 0)
(1.05876 0.00942501 0)
(1.05863 0.00919153 0)
(1.05834 0.00897467 0)
(1.0579 0.00877215 0)
(1.05732 0.00858208 0)
(1.05659 0.0084029 0)
(1.05571 0.00823325 0)
(1.05471 0.00807199 0)
(1.05357 0.00791812 0)
(1.05232 0.00777073 0)
(1.05095 0.00762904 0)
(1.04948 0.0074923 0)
(1.04791 0.00735985 0)
(1.04625 0.00723103 0)
(1.04452 0.00710518 0)
(1.04271 0.00698172 0)
(1.04084 0.00685977 0)
(1.03891 0.0067389 0)
(1.03694 0.00661761 0)
(1.03493 0.00649605 0)
(1.03289 0.00637101 0)
(1.03082 0.00624447 0)
(1.02873 0.00610929 0)
(1.02664 0.00597176 0)
(1.02454 0.00581708 0)
(1.02245 0.00565897 0)
(1.02037 0.00547213 0)
(1.01831 0.00527422 0)
(1.01628 0.00504138 0)
(1.01429 0.00475735 0)
(1.01233 0.00446433 0)
(1.01042 0.00399074 0)
(1.00848 0.00361306 0)
(1.00655 0.00294585 0)
(1.00238 0.0218842 0)
(1.02664 0.0275654 0)
(1.04099 0.0206307 0)
(1.04457 0.0178889 0)
(1.04604 0.0165951 0)
(1.04793 0.0151101 0)
(1.04967 0.0138904 0)
(1.05101 0.0130407 0)
(1.0521 0.0123787 0)
(1.05306 0.0118116 0)
(1.05392 0.0113219 0)
(1.0547 0.0108994 0)
(1.05539 0.0105302 0)
(1.05601 0.0102029 0)
(1.05654 0.00990938 0)
(1.05699 0.00964402 0)
(1.05736 0.00940237 0)
(1.05764 0.0091809 0)
(1.05782 0.00897671 0)
(1.05792 0.00878741 0)
(1.05791 0.00861101 0)
(1.05782 0.00844579 0)
(1.05762 0.00829031 0)
(1.05733 0.00814329 0)
(1.05695 0.00800362 0)
(1.05648 0.0078703 0)
(1.05591 0.00774245 0)
(1.05526 0.00761925 0)
(1.05453 0.00749995 0)
(1.05372 0.00738385 0)
(1.05284 0.00727022 0)
(1.05189 0.00715844 0)
(1.05088 0.00704758 0)
(1.04981 0.00693718 0)
(1.04868 0.00682571 0)
(1.04751 0.00671326 0)
(1.0463 0.0065967 0)
(1.04505 0.00647769 0)
(1.04377 0.00634966 0)
(1.04246 0.00621768 0)
(1.04114 0.00606901 0)
(1.0398 0.0059137 0)
(1.03845 0.00573212 0)
(1.0371 0.00553346 0)
(1.03575 0.00530456 0)
(1.03442 0.00501857 0)
(1.03308 0.00472298 0)
(1.03175 0.00426615 0)
(1.03037 0.00387398 0)
(1.02894 0.00328159 0)
(1.0021 0.0200701 0)
(1.0243 0.0264553 0)
(1.03826 0.0201334 0)
(1.04204 0.0174777 0)
(1.04354 0.0163324 0)
(1.0454 0.0149553 0)
(1.04714 0.0137619 0)
(1.04848 0.0129227 0)
(1.04955 0.0122751 0)
(1.0505 0.0117201 0)
(1.05136 0.0112387 0)
(1.05214 0.0108226 0)
(1.05285 0.0104593 0)
(1.0535 0.0101376 0)
(1.0541 0.00984971 0)
(1.05465 0.00959016 0)
(1.05514 0.00935466 0)
(1.05559 0.00913977 0)
(1.05598 0.00894262 0)
(1.05631 0.00876085 0)
(1.05659 0.00859244 0)
(1.05681 0.00843565 0)
(1.05697 0.00828898 0)
(1.05708 0.0081511 0)
(1.05712 0.00802082 0)
(1.0571 0.00789709 0)
(1.05702 0.00777895 0)
(1.05687 0.00766551 0)
(1.05667 0.00755597 0)
(1.05641 0.00744954 0)
(1.0561 0.00734544 0)
(1.05573 0.00724299 0)
(1.05531 0.00714121 0)
(1.05484 0.0070396 0)
(1.05433 0.00693657 0)
(1.05377 0.00683213 0)
(1.05318 0.00672326 0)
(1.05255 0.00661123 0)
(1.05189 0.00649012 0)
(1.0512 0.00636372 0)
(1.05048 0.00622136 0)
(1.04974 0.00606965 0)
(1.04899 0.00589402 0)
(1.04822 0.0056967 0)
(1.04745 0.00547263 0)
(1.04666 0.00518891 0)
(1.04586 0.00489316 0)
(1.04502 0.00445705 0)
(1.04413 0.00405955 0)
(1.04316 0.00352748 0)
(1.00185 0.0183636 0)
(1.0221 0.0253367 0)
(1.03563 0.0196506 0)
(1.03961 0.0170687 0)
(1.04113 0.0160556 0)
(1.04295 0.0147924 0)
(1.04469 0.0136309 0)
(1.04603 0.0128024 0)
(1.0471 0.0121693 0)
(1.04803 0.011627 0)
(1.04888 0.011154 0)
(1.04965 0.0107441 0)
(1.05035 0.0103859 0)
(1.051 0.0100687 0)
(1.05161 0.00978492 0)
(1.05218 0.00952917 0)
(1.05271 0.00929739 0)
(1.0532 0.00908626 0)
(1.05366 0.00889304 0)
(1.05408 0.00871541 0)
(1.05448 0.0085514 0)
(1.05483 0.00839931 0)
(1.05515 0.00825763 0)
(1.05544 0.00812502 0)
(1.05569 0.00800029 0)
(1.05589 0.00788236 0)
(1.05607 0.00777022 0)
(1.0562 0.00766297 0)
(1.05629 0.00755973 0)
(1.05635 0.0074597 0)
(1.05637 0.00736204 0)
(1.05635 0.00726603 0)
(1.0563 0.00717063 0)
(1.05621 0.00707531 0)
(1.05608 0.00697846 0)
(1.05593 0.00687996 0)
(1.05575 0.00677695 0)
(1.05553 0.00667028 0)
(1.0553 0.00655471 0)
(1.05503 0.00643278 0)
(1.05475 0.00629579 0)
(1.05445 0.00614729 0)
(1.05413 0.00597697 0)
(1.05379 0.0057818 0)
(1.05344 0.00556224 0)
(1.05306 0.00528321 0)
(1.05267 0.00498879 0)
(1.05223 0.00457467 0)
(1.05171 0.0041787 0)
(1.05111 0.00369485 0)
(1.00162 0.0167647 0)
(1.02004 0.0242138 0)
(1.0331 0.0191782 0)
(1.03726 0.0166634 0)
(1.03881 0.0157659 0)
(1.0406 0.0146209 0)
(1.04233 0.013497 0)
(1.04368 0.0126797 0)
(1.04474 0.0120612 0)
(1.04566 0.0115322 0)
(1.04649 0.0110682 0)
(1.04725 0.0106646 0)
(1.04794 0.0103115 0)
(1.04858 0.00999866 0)
(1.04918 0.00971848 0)
(1.04974 0.00946587 0)
(1.05027 0.00923691 0)
(1.05077 0.00902841 0)
(1.05124 0.00883772 0)
(1.05169 0.00866261 0)
(1.05212 0.00850117 0)
(1.05252 0.00835173 0)
(1.0529 0.00821284 0)
(1.05325 0.00808316 0)
(1.05358 0.00796153 0)
(1.05389 0.00784685 0)
(1.05418 0.00773812 0)
(1.05444 0.00763441 0)
(1.05467 0.00753484 0)
(1.05489 0.0074386 0)
(1.05508 0.00734478 0)
(1.05524 0.00725267 0)
(1.05539 0.00716119 0)
(1.05551 0.00706976 0)
(1.05561 0.00697681 0)
(1.05569 0.00688206 0)
(1.05574 0.00678287 0)
(1.05579 0.00667965 0)
(1.05581 0.00656783 0)
(1.05581 0.00644881 0)
(1.0558 0.00631565 0)
(1.05578 0.00616937 0)
(1.05574 0.00600306 0)
(1.05568 0.00580999 0)
(1.05562 0.00559394 0)
(1.05552 0.00532064 0)
(1.05541 0.00502833 0)
(1.05524 0.00463558 0)
(1.055 0.00424579 0)
(1.05467 0.00380015 0)
(1.00142 0.0152725 0)
(1.01811 0.0230905 0)
(1.03067 0.0187122 0)
(1.03499 0.0162635 0)
(1.03659 0.0154646 0)
(1.03834 0.01444 0)
(1.04006 0.0133599 0)
(1.04141 0.0125547 0)
(1.04247 0.0119505 0)
(1.04337 0.0114355 0)
(1.0442 0.0109811 0)
(1.04494 0.0105841 0)
(1.04562 0.0102363 0)
(1.04625 0.0099278 0)
(1.04684 0.00965127 0)
(1.04739 0.00940171 0)
(1.04791 0.00917534 0)
(1.0484 0.00896912 0)
(1.04887 0.00878049 0)
(1.04931 0.00860728 0)
(1.04974 0.00844764 0)
(1.05015 0.00829997 0)
(1.05054 0.00816282 0)
(1.05091 0.00803491 0)
(1.05127 0.00791508 0)
(1.05161 0.00780225 0)
(1.05194 0.00769543 0)
(1.05225 0.00759369 0)
(1.05254 0.00749614 0)
(1.05282 0.00740195 0)
(1.05309 0.00731023 0)
(1.05334 0.00722024 0)
(1.05357 0.00713089 0)
(1.0538 0.00704156 0)
(1.05401 0.00695072 0)
(1.0542 0.00685797 0)
(1.05439 0.00676086 0)
(1.05456 0.00665942 0)
(1.05473 0.00654973 0)
(1.05488 0.00643218 0)
(1.05502 0.00630132 0)
(1.05516 0.00615622 0)
(1.05528 0.00599245 0)
(1.05539 0.00580109 0)
(1.05549 0.00558743 0)
(1.05557 0.00532002 0)
(1.05562 0.0050303 0)
(1.05563 0.00465716 0)
(1.05556 0.00427644 0)
(1.05541 0.00386095 0)
(1.00124 0.0138856 0)
(1.01632 0.0219709 0)
(1.02835 0.0182489 0)
(1.03282 0.01587 0)
(1.03446 0.0151532 0)
(1.03616 0.0142492 0)
(1.03788 0.0132192 0)
(1.03923 0.0124275 0)
(1.04028 0.0118373 0)
(1.04118 0.0113366 0)
(1.04199 0.0108924 0)
(1.04273 0.0105024 0)
(1.0434 0.0101601 0)
(1.04401 0.00985617 0)
(1.04459 0.00958341 0)
(1.04513 0.00933696 0)
(1.04564 0.00911322 0)
(1.04612 0.00890924 0)
(1.04658 0.00872256 0)
(1.04701 0.00855108 0)
(1.04743 0.00839302 0)
(1.04784 0.00824679 0)
(1.04822 0.00811099 0)
(1.0486 0.00798438 0)
(1.04896 0.00786579 0)
(1.0493 0.00775417 0)
(1.04964 0.00764854 0)
(1.04996 0.00754798 0)
(1.05027 0.00745158 0)
(1.05057 0.00735853 0)
(1.05086 0.00726792 0)
(1.05114 0.00717899 0)
(1.05141 0.00709069 0)
(1.05167 0.00700233 0)
(1.05193 0.00691246 0)
(1.05218 0.00682053 0)
(1.05242 0.00672433 0)
(1.05265 0.00662352 0)
(1.05288 0.00651476 0)
(1.05311 0.00639762 0)
(1.05333 0.00626786 0)
(1.05354 0.00612313 0)
(1.05375 0.0059607 0)
(1.05394 0.00577066 0)
(1.05413 0.0055585 0)
(1.0543 0.00529675 0)
(1.05444 0.00501003 0)
(1.05453 0.00465436 0)
(1.05456 0.00428436 0)
(1.05452 0.00389278 0)
(1.00107 0.012602 0)
(1.01466 0.0208591 0)
(1.02615 0.0177848 0)
(1.03073 0.015484 0)
(1.03242 0.0148337 0)
(1.03409 0.0140481 0)
(1.03579 0.0130745 0)
(1.03714 0.012298 0)
(1.03819 0.0117214 0)
(1.03908 0.0112356 0)
(1.03988 0.0108022 0)
(1.04061 0.0104195 0)
(1.04127 0.0100829 0)
(1.04187 0.00978369 0)
(1.04244 0.00951485 0)
(1.04296 0.00927163 0)
(1.04346 0.00905059 0)
(1.04393 0.0088489 0)
(1.04438 0.00866421 0)
(1.04481 0.00849447 0)
(1.04522 0.00833794 0)
(1.04561 0.00819309 0)
(1.04599 0.00805855 0)
(1.04636 0.00793308 0)
(1.04671 0.00781555 0)
(1.04705 0.00770492 0)
(1.04738 0.0076002 0)
(1.0477 0.00750048 0)
(1.04801 0.00740486 0)
(1.04831 0.00731252 0)
(1.0486 0.00722255 0)
(1.04889 0.00713418 0)
(1.04917 0.00704637 0)
(1.04944 0.00695839 0)
(1.04971 0.00686886 0)
(1.04998 0.00677711 0)
(1.05024 0.00668113 0)
(1.05049 0.00658029 0)
(1.05075 0.00647173 0)
(1.051 0.00635437 0)
(1.05125 0.00622493 0)
(1.05149 0.0060801 0)
(1.05173 0.00591823 0)
(1.05196 0.00572927 0)
(1.05219 0.00551809 0)
(1.05239 0.0052617 0)
(1.05257 0.00497846 0)
(1.05271 0.00463818 0)
(1.05279 0.00427975 0)
(1.05279 0.00390751 0)
(1.00093 0.011419 0)
(1.01314 0.0197591 0)
(1.02405 0.0173169 0)
(1.02873 0.0151059 0)
(1.03048 0.014508 0)
(1.03211 0.0138364 0)
(1.03378 0.012925 0)
(1.03514 0.0121662 0)
(1.03619 0.011603 0)
(1.03707 0.0111321 0)
(1.03786 0.0107103 0)
(1.03858 0.0103354 0)
(1.03923 0.0100046 0)
(1.03982 0.00971029 0)
(1.04038 0.00944552 0)
(1.0409 0.00920565 0)
(1.04138 0.00898741 0)
(1.04184 0.00878811 0)
(1.04228 0.00860546 0)
(1.0427 0.00843751 0)
(1.0431 0.00828256 0)
(1.04348 0.0081391 0)
(1.04385 0.00800582 0)
(1.04421 0.00788148 0)
(1.04455 0.00776498 0)
(1.04489 0.00765527 0)
(1.04521 0.00755139 0)
(1.04552 0.00745241 0)
(1.04582 0.00735744 0)
(1.04612 0.00726566 0)
(1.04641 0.00717614 0)
(1.04669 0.00708813 0)
(1.04697 0.00700057 0)
(1.04724 0.00691272 0)
(1.04751 0.00682323 0)
(1.04777 0.00673137 0)
(1.04803 0.00663528 0)
(1.04829 0.00653408 0)
(1.04855 0.00642534 0)
(1.04881 0.00630749 0)
(1.04906 0.00617794 0)
(1.04931 0.00603284 0)
(1.04956 0.0058711 0)
(1.0498 0.00568317 0)
(1.05004 0.00547284 0)
(1.05025 0.00522154 0)
(1.05045 0.00494238 0)
(1.0506 0.00461571 0)
(1.05069 0.00426918 0)
(1.05072 0.00391311 0)
(1.0008 0.0103335 0)
(1.01174 0.0186751 0)
(1.02206 0.0168424 0)
(1.02681 0.014736 0)
(1.02863 0.0141782 0)
(1.03022 0.013614 0)
(1.03187 0.0127704 0)
(1.03323 0.0120321 0)
(1.03428 0.011482 0)
(1.03515 0.0110262 0)
(1.03593 0.0106165 0)
(1.03664 0.0102498 0)
(1.03728 0.00992514 0)
(1.03787 0.00963589 0)
(1.03841 0.00937533 0)
(1.03892 0.00913895 0)
(1.0394 0.00892362 0)
(1.03985 0.00872678 0)
(1.04028 0.00854626 0)
(1.04069 0.00838016 0)
(1.04108 0.00822683 0)
(1.04145 0.00808483 0)
(1.04181 0.00795284 0)
(1.04216 0.00782966 0)
(1.0425 0.0077142 0)
(1.04282 0.00760544 0)
(1.04313 0.00750238 0)
(1.04344 0.00740414 0)
(1.04373 0.0073098 0)
(1.04402 0.00721853 0)
(1.0443 0.00712943 0)
(1.04458 0.0070417 0)
(1.04485 0.00695433 0)
(1.04511 0.00686651 0)
(1.04537 0.00677698 0)
(1.04563 0.00668488 0)
(1.04589 0.00658856 0)
(1.04614 0.0064869 0)
(1.0464 0.00637782 0)
(1.04665 0.00625942 0)
(1.0469 0.00612957 0)
(1.04715 0.00598422 0)
(1.0474 0.00582246 0)
(1.04763 0.00563563 0)
(1.04786 0.00542631 0)
(1.04808 0.00517991 0)
(1.04827 0.00490544 0)
(1.04841 0.00459097 0)
(1.04851 0.00425638 0)
(1.04855 0.00391435 0)
(1.00069 0.00934155 0)
(1.01046 0.0176111 0)
(1.02019 0.0163592 0)
(1.02498 0.0143744 0)
(1.02687 0.0138462 0)
(1.02842 0.0133812 0)
(1.03004 0.0126098 0)
(1.0314 0.0118956 0)
(1.03245 0.0113584 0)
(1.03332 0.0109176 0)
(1.03409 0.0105206 0)
(1.03479 0.0101627 0)
(1.03543 0.00984441 0)
(1.03601 0.00956038 0)
(1.03654 0.0093042 0)
(1.03704 0.00907145 0)
(1.03751 0.00885914 0)
(1.03795 0.00866486 0)
(1.03837 0.00848654 0)
(1.03877 0.00832236 0)
(1.03916 0.00817072 0)
(1.03952 0.00803022 0)
(1.03987 0.00789957 0)
(1.04021 0.0077776 0)
(1.04054 0.00766323 0)
(1.04085 0.00755543 0)
(1.04116 0.00745324 0)
(1.04145 0.00735575 0)
(1.04174 0.00726205 0)
(1.04202 0.00717132 0)
(1.0423 0.00708263 0)
(1.04256 0.00699518 0)
(1.04282 0.00690798 0)
(1.04308 0.00682018 0)
(1.04334 0.00673059 0)
(1.04359 0.00663825 0)
(1.04384 0.00654165 0)
(1.04409 0.00643954 0)
(1.04433 0.00633008 0)
(1.04458 0.00621117 0)
(1.04482 0.00608099 0)
(1.04506 0.0059355 0)
(1.0453 0.00577376 0)
(1.04553 0.00558817 0)
(1.04575 0.00538014 0)
(1.04595 0.00513855 0)
(1.04613 0.00486935 0)
(1.04627 0.004566 0)
(1.04637 0.0042432 0)
(1.0464 0.00391386 0)
(1.0006 0.00843888 0)
(1.0093 0.0165712 0)
(1.01843 0.0158652 0)
(1.02324 0.0140206 0)
(1.02519 0.013514 0)
(1.02671 0.0131383 0)
(1.0283 0.0124427 0)
(1.02966 0.0117564 0)
(1.03072 0.0112323 0)
(1.03158 0.0108064 0)
(1.03234 0.0104226 0)
(1.03303 0.0100739 0)
(1.03366 0.0097623 0)
(1.03423 0.00948368 0)
(1.03476 0.00923204 0)
(1.03525 0.00900307 0)
(1.03571 0.00879389 0)
(1.03615 0.00860227 0)
(1.03656 0.00842623 0)
(1.03695 0.00826404 0)
(1.03733 0.00811416 0)
(1.03768 0.00797522 0)
(1.03803 0.00784596 0)
(1.03836 0.00772524 0)
(1.03868 0.007612 0)
(1.03898 0.00750521 0)
(1.03928 0.00740392 0)
(1.03957 0.00730721 0)
(1.03985 0.00721419 0)
(1.04012 0.00712401 0)
(1.04039 0.00703576 0)
(1.04065 0.00694862 0)
(1.0409 0.00686161 0)
(1.04115 0.00677385 0)
(1.0414 0.0066842 0)
(1.04164 0.00659165 0)
(1.04188 0.00649479 0)
(1.04212 0.00639227 0)
(1.04236 0.00628244 0)
(1.0426 0.00616312 0)
(1.04283 0.00603264 0)
(1.04307 0.00588715 0)
(1.04329 0.00572558 0)
(1.04351 0.00554139 0)
(1.04372 0.00533504 0)
(1.04392 0.00509822 0)
(1.04408 0.00483476 0)
(1.04421 0.00454175 0)
(1.0443 0.00423048 0)
(1.04433 0.00391294 0)
(1.00051 0.0076207 0)
(1.00825 0.0155594 0)
(1.01679 0.0153594 0)
(1.02158 0.013674 0)
(1.0236 0.0131832 0)
(1.0251 0.0128862 0)
(1.02665 0.0122686 0)
(1.02801 0.0116143 0)
(1.02906 0.0111038 0)
(1.02992 0.0106924 0)
(1.03068 0.0103222 0)
(1.03136 0.00998334 0)
(1.03198 0.00967873 0)
(1.03255 0.00940569 0)
(1.03307 0.00915876 0)
(1.03355 0.0089337 0)