/*--------------------------------*- C++ -*----------------------------------*\
  =========                 |
  \\      /  F ield         | OpenFOAM: The Open Source CFD Toolbox
   \\    /   O peration     | Website:  https://openfoam.org
    \\  /    A nd           | Version:  7
     \\/     M anipulation  |
\*---------------------------------------------------------------------------*/
FoamFile
{
    version     2.0;
    format      ascii;
    class       volVectorField;
    location    "0.12";
    object      vorticity;
}
// * * * * * * * * * * * * * * * * * * * * * * * * * * * * * * * * * * * * * //

dimensions      [0 0 -1 0 0 0 0];

internalField   nonuniform List<vector> 
70000
(
(0 -0 -45716)
(0 -0 -28617.5)
(0 -0 -20913.3)
(0 -0 -16980.2)
(0 -0 -14959.2)
(0 -0 -13652.5)
(0 -0 -12643.4)
(0 -0 -11831.2)
(0 -0 -11167.6)
(0 -0 -10613.8)
(0 -0 -10141.8)
(0 -0 -9733.02)
(0 -0 -9374.5)
(0 -0 -9056.87)
(0 -0 -8773)
(0 -0 -8517.42)
(0 -0 -8285.81)
(0 -0 -8074.72)
(0 -0 -7881.37)
(0 -0 -7703.46)
(0 -0 -7539.11)
(0 -0 -7386.74)
(0 -0 -7245.02)
(0 -0 -7112.81)
(0 -0 -6989.17)
(0 -0 -6873.26)
(0 -0 -6764.38)
(0 -0 -6661.91)
(0 -0 -6565.32)
(0 -0 -6474.15)
(0 -0 -6388.01)
(0 -0 -6306.53)
(0 -0 -6229.45)
(0 -0 -6156.48)
(0 -0 -6087.45)
(0 -0 -6022.15)
(0 -0 -5960.44)
(0 -0 -5902.34)
(0 -0 -5847.45)
(0 -0 -5796.57)
(0 -0 -5747.95)
(0 -0 -5705.25)
(0 -0 -5661.75)
(0 -0 -5630.4)
(0 -0 -5588.35)
(0 -0 -5577.19)
(0 -0 -5525.68)
(0 -0 -5555.65)
(0 -0 -5490.15)
(0 -0 -5355.02)
(0 -0 -13549.7)
(0 -0 -19947.3)
(0 -0 -18536.2)
(0 -0 -16249.9)
(0 -0 -14504.4)
(0 -0 -13280.8)
(0 -0 -12353.2)
(0 -0 -11603.7)
(0 -0 -10981.8)
(0 -0 -10457)
(0 -0 -10006.9)
(0 -0 -9615.15)
(0 -0 -9270.29)
(0 -0 -8963.73)
(0 -0 -8688.99)
(0 -0 -8441.02)
(0 -0 -8215.83)
(0 -0 -8010.2)
(0 -0 -7821.53)
(0 -0 -7647.66)
(0 -0 -7486.82)
(0 -0 -7337.5)
(0 -0 -7198.44)
(0 -0 -7068.58)
(0 -0 -6946.98)
(0 -0 -6832.85)
(0 -0 -6725.52)
(0 -0 -6624.39)
(0 -0 -6528.95)
(0 -0 -6438.74)
(0 -0 -6353.37)
(0 -0 -6272.49)
(0 -0 -6195.83)
(0 -0 -6123.1)
(0 -0 -6054.12)
(0 -0 -5988.68)
(0 -0 -5926.62)
(0 -0 -5867.93)
(0 -0 -5812.26)
(0 -0 -5760.21)
(0 -0 -5710.44)
(0 -0 -5665.71)
(0 -0 -5620.97)
(0 -0 -5585.91)
(0 -0 -5543.71)
(0 -0 -5524.75)
(0 -0 -5478.55)
(0 -0 -5488.59)
(0 -0 -5439.72)
(0 -0 -5520.43)
(0 -0 -3818.78)
(0 -0 -10828.8)
(0 -0 -13363.3)
(0 -0 -13519.5)
(0 -0 -12866.3)
(0 -0 -12140.5)
(0 -0 -11499.3)
(0 -0 -10939.6)
(0 -0 -10448.3)
(0 -0 -10016.3)
(0 -0 -9634.85)
(0 -0 -9295.72)
(0 -0 -8992.15)
(0 -0 -8718.67)
(0 -0 -8470.88)
(0 -0 -8245.17)
(0 -0 -8038.59)
(0 -0 -7848.69)
(0 -0 -7673.44)
(0 -0 -7511.12)
(0 -0 -7360.27)
(0 -0 -7219.67)
(0 -0 -7088.24)
(0 -0 -6965.08)
(0 -0 -6849.41)
(0 -0 -6740.52)
(0 -0 -6637.83)
(0 -0 -6540.81)
(0 -0 -6449)
(0 -0 -6361.99)
(0 -0 -6279.43)
(0 -0 -6200.99)
(0 -0 -6126.41)
(0 -0 -6055.43)
(0 -0 -5987.86)
(0 -0 -5923.49)
(0 -0 -5862.17)
(0 -0 -5803.83)
(0 -0 -5748.21)
(0 -0 -5695.64)
(0 -0 -5645.25)
(0 -0 -5598.69)
(0 -0 -5552.93)
(0 -0 -5513.63)
(0 -0 -5471.18)
(0 -0 -5442.4)
(0 -0 -5400.94)
(0 -0 -5387.62)
(0 -0 -5349.42)
(0 -0 -5422.72)
(0 -0 -533.091)
(0 -0 -4662.65)
(0 -0 -7718.31)
(0 -0 -9328.2)
(0 -0 -9891.92)
(0 -0 -9957.39)
(0 -0 -9825.99)
(0 -0 -9614.48)
(0 -0 -9371.63)
(0 -0 -9122.08)
(0 -0 -8878.21)
(0 -0 -8645.57)
(0 -0 -8426.23)
(0 -0 -8220.6)
(0 -0 -8028.3)
(0 -0 -7848.61)
(0 -0 -7680.65)
(0 -0 -7523.49)
(0 -0 -7376.25)
(0 -0 -7238.09)
(0 -0 -7108.25)
(0 -0 -6986.01)
(0 -0 -6870.75)
(0 -0 -6761.88)
(0 -0 -6658.9)
(0 -0 -6561.34)
(0 -0 -6468.79)
(0 -0 -6380.87)
(0 -0 -6297.24)
(0 -0 -6217.59)
(0 -0 -6141.67)
(0 -0 -6069.21)
(0 -0 -6000)
(0 -0 -5933.84)
(0 -0 -5870.56)
(0 -0 -5809.98)
(0 -0 -5751.98)
(0 -0 -5696.44)
(0 -0 -5643.24)
(0 -0 -5592.39)
(0 -0 -5543.61)
(0 -0 -5497.32)
(0 -0 -5452.66)
(0 -0 -5411.13)
(0 -0 -5370.49)
(0 -0 -5333.94)
(0 -0 -5298.75)
(0 -0 -5264.96)
(0 -0 -5244.27)
(0 -0 -5235.61)
(0 -0 322.419)
(0 -0 -1444.58)
(0 -0 -3532.51)
(0 -0 -5258.82)
(0 -0 -6398.55)
(0 -0 -7073.1)
(0 -0 -7450.5)
(0 -0 -7641.21)
(0 -0 -7713.48)
(0 -0 -7711.54)
(0 -0 -7663.9)
(0 -0 -7588.63)
(0 -0 -7497.11)
(0 -0 -7396.59)
(0 -0 -7291.72)
(0 -0 -7185.52)
(0 -0 -7079.91)
(0 -0 -6976.12)
(0 -0 -6874.94)
(0 -0 -6776.8)
(0 -0 -6681.97)
(0 -0 -6590.54)
(0 -0 -6502.55)
(0 -0 -6417.93)
(0 -0 -6336.62)
(0 -0 -6258.5)
(0 -0 -6183.45)
(0 -0 -6111.35)
(0 -0 -6042.06)
(0 -0 -5975.45)
(0 -0 -5911.39)
(0 -0 -5849.77)
(0 -0 -5790.45)
(0 -0 -5733.34)
(0 -0 -5678.32)
(0 -0 -5625.29)
(0 -0 -5574.19)
(0 -0 -5524.88)
(0 -0 -5477.38)
(0 -0 -5431.46)
(0 -0 -5387.37)
(0 -0 -5344.51)
(0 -0 -5303.88)
(0 -0 -5263.51)
(0 -0 -5227.2)
(0 -0 -5187.4)
(0 -0 -5159.43)
(0 -0 -5113.11)
(0 -0 -5108.54)
(0 -0 -5047.94)
(0 -0 364.696)
(0 -0 -158.596)
(0 -0 -1181.52)
(0 -0 -2361.79)
(0 -0 -3416.88)
(0 -0 -4255.05)
(0 -0 -4889.76)
(0 -0 -5355.02)
(0 -0 -5685.93)
(0 -0 -5914.54)
(0 -0 -6067.13)
(0 -0 -6163.83)
(0 -0 -6219.52)
(0 -0 -6245.15)
(0 -0 -6248.73)
(0 -0 -6236.18)
(0 -0 -6211.84)
(0 -0 -6178.94)
(0 -0 -6139.91)
(0 -0 -6096.54)
(0 -0 -6050.19)
(0 -0 -6001.9)
(0 -0 -5952.44)
(0 -0 -5902.39)
(0 -0 -5852.2)
(0 -0 -5802.21)
(0 -0 -5752.67)
(0 -0 -5703.76)
(0 -0 -5655.64)
(0 -0 -5608.39)
(0 -0 -5562.09)
(0 -0 -5516.79)
(0 -0 -5472.5)
(0 -0 -5429.25)
(0 -0 -5387.04)
(0 -0 -5345.85)
(0 -0 -5305.72)
(0 -0 -5266.52)
(0 -0 -5228.43)
(0 -0 -5191.07)
(0 -0 -5155.07)
(0 -0 -5119.22)
(0 -0 -5085.67)
(0 -0 -5050.4)
(0 -0 -5020.71)
(0 -0 -4983.19)
(0 -0 -4962.25)
(0 -0 -4914.13)
(0 -0 -4916.05)
(0 -0 -4847.54)
(0 -0 254.019)
(0 -0 185.274)
(0 -0 -173.318)
(0 -0 -764.575)
(0 -0 -1447.28)
(0 -0 -2114.59)
(0 -0 -2719.24)
(0 -0 -3241.86)
(0 -0 -3678.36)
(0 -0 -4034.58)
(0 -0 -4320.82)
(0 -0 -4548.21)
(0 -0 -4727.07)
(0 -0 -4866.36)
(0 -0 -4973.58)
(0 -0 -5054.87)
(0 -0 -5115.23)
(0 -0 -5158.68)
(0 -0 -5188.47)
(0 -0 -5207.21)
(0 -0 -5217.01)
(0 -0 -5219.55)
(0 -0 -5216.23)
(0 -0 -5208.15)
(0 -0 -5196.24)
(0 -0 -5181.22)
(0 -0 -5163.73)
(0 -0 -5144.25)
(0 -0 -5123.19)
(0 -0 -5100.91)
(0 -0 -5077.68)
(0 -0 -5053.73)
(0 -0 -5029.25)
(0 -0 -5004.4)
(0 -0 -4979.31)
(0 -0 -4954.07)
(0 -0 -4928.81)
(0 -0 -4903.51)
(0 -0 -4878.39)
(0 -0 -4853.13)
(0 -0 -4828.47)
(0 -0 -4803.09)
(0 -0 -4779.46)
(0 -0 -4753.08)
(0 -0 -4732.02)
(0 -0 -4701.9)
(0 -0 -4687.78)
(0 -0 -4646.95)
(0 -0 -4649.17)
(0 -0 -4593.32)
(0 -0 178.742)
(0 -0 204.49)
(0 -0 130.629)
(0 -0 -85.1982)
(0 -0 -417.702)
(0 -0 -814.392)
(0 -0 -1235.43)
(0 -0 -1651.98)
(0 -0 -2044.23)
(0 -0 -2401.26)
(0 -0 -2718.85)
(0 -0 -2996.95)
(0 -0 -3237.78)
(0 -0 -3444.64)
(0 -0 -3621.26)
(0 -0 -3771.37)
(0 -0 -3898.44)
(0 -0 -4005.62)
(0 -0 -4095.7)
(0 -0 -4171.09)
(0 -0 -4233.88)
(0 -0 -4285.88)
(0 -0 -4328.63)
(0 -0 -4363.42)
(0 -0 -4391.39)
(0 -0 -4413.5)
(0 -0 -4430.55)
(0 -0 -4443.26)
(0 -0 -4452.22)
(0 -0 -4457.94)
(0 -0 -4460.87)
(0 -0 -4461.38)
(0 -0 -4459.81)
(0 -0 -4456.43)
(0 -0 -4451.48)
(0 -0 -4445.16)
(0 -0 -4437.67)
(0 -0 -4429.1)
(0 -0 -4419.71)
(0 -0 -4409.31)
(0 -0 -4398.56)
(0 -0 -4386.4)
(0 -0 -4374.99)
(0 -0 -4360.47)
(0 -0 -4349.82)
(0 -0 -4330.76)
(0 -0 -4324.24)
(0 -0 -4295.68)
(0 -0 -4298.37)
(0 -0 -4259.37)
(0 -0 148.012)
(0 -0 164.599)
(0 -0 169.964)
(0 -0 120.953)
(0 -0 1.07971)
(0 -0 -180.52)
(0 -0 -408.454)
(0 -0 -666.387)
(0 -0 -938.516)
(0 -0 -1211.96)
(0 -0 -1477.54)
(0 -0 -1729.28)
(0 -0 -1963.71)
(0 -0 -2179.17)
(0 -0 -2375.28)
(0 -0 -2552.5)
(0 -0 -2711.78)
(0 -0 -2854.35)
(0 -0 -2981.58)
(0 -0 -3094.85)
(0 -0 -3195.49)
(0 -0 -3284.78)
(0 -0 -3363.9)
(0 -0 -3433.9)
(0 -0 -3495.76)
(0 -0 -3550.36)
(0 -0 -3598.47)
(0 -0 -3640.79)
(0 -0 -3677.94)
(0 -0 -3710.48)
(0 -0 -3738.89)
(0 -0 -3763.6)
(0 -0 -3785.01)
(0 -0 -3803.45)
(0 -0 -3819.21)
(0 -0 -3832.58)
(0 -0 -3843.76)
(0 -0 -3852.97)
(0 -0 -3860.41)
(0 -0 -3866.09)
(0 -0 -3870.48)
(0 -0 -3872.93)
(0 -0 -3875.02)
(0 -0 -3873.92)
(0 -0 -3874.92)
(0 -0 -3868.71)
(0 -0 -3871.04)
(0 -0 -3856.38)
(0 -0 -3862.31)
(0 -0 -3839.51)
(0 -0 136.819)
(0 -0 137.063)
(0 -0 148.721)
(0 -0 149.653)
(0 -0 122.176)
(0 -0 60.1615)
(0 -0 -36.187)
(0 -0 -163.205)
(0 -0 -314.546)
(0 -0 -482.919)
(0 -0 -661.437)
(0 -0 -844.221)
(0 -0 -1026.57)
(0 -0 -1204.92)
(0 -0 -1376.75)
(0 -0 -1540.37)
(0 -0 -1694.77)
(0 -0 -1839.45)
(0 -0 -1974.28)
(0 -0 -2099.39)
(0 -0 -2215.09)
(0 -0 -2321.8)
(0 -0 -2420.03)
(0 -0 -2510.31)
(0 -0 -2593.16)
(0 -0 -2669.13)
(0 -0 -2738.72)
(0 -0 -2802.45)
(0 -0 -2860.75)
(0 -0 -2914.08)
(0 -0 -2962.83)
(0 -0 -3007.38)
(0 -0 -3048.05)
(0 -0 -3085.19)
(0 -0 -3119.04)
(0 -0 -3149.9)
(0 -0 -3177.95)
(0 -0 -3203.44)
(0 -0 -3226.54)
(0 -0 -3247.35)
(0 -0 -3266.19)
(0 -0 -3282.71)
(0 -0 -3297.99)
(0 -0 -3310.09)
(0 -0 -3322.8)
(0 -0 -3329.38)
(0 -0 -3341.15)
(0 -0 -3340.03)
(0 -0 -3351.39)
(0 -0 -3343.21)
(0 -0 129.939)
(0 -0 123.991)
(0 -0 129.17)
(0 -0 136.362)
(0 -0 136.445)
(0 -0 123.191)
(0 -0 92.968)
(0 -0 43.9365)
(0 -0 -23.7347)
(0 -0 -108.218)
(0 -0 -206.753)
(0 -0 -316.224)
(0 -0 -433.512)
(0 -0 -555.741)
(0 -0 -680.401)
(0 -0 -805.402)
(0 -0 -929.067)
(0 -0 -1050.1)
(0 -0 -1167.52)
(0 -0 -1280.65)
(0 -0 -1389.02)
(0 -0 -1492.36)
(0 -0 -1590.51)
(0 -0 -1683.46)
(0 -0 -1771.26)
(0 -0 -1854.02)
(0 -0 -1931.89)
(0 -0 -2005.07)
(0 -0 -2073.76)
(0 -0 -2138.18)
(0 -0 -2198.54)
(0 -0 -2255.07)
(0 -0 -2307.97)
(0 -0 -2357.47)
(0 -0 -2403.73)
(0 -0 -2446.98)
(0 -0 -2487.34)
(0 -0 -2525.03)
(0 -0 -2560.14)
(0 -0 -2592.81)
(0 -0 -2623.21)
(0 -0 -2651.19)
(0 -0 -2677.44)
(0 -0 -2700.63)
(0 -0 -2723.44)
(0 -0 -2741.06)
(0 -0 -2761.4)
(0 -0 -2772.02)
(0 -0 -2789.41)
(0 -0 -2793.6)
(0 -0 122.949)
(0 -0 116.638)
(0 -0 118.002)
(0 -0 122.472)
(0 -0 126.407)
(0 -0 126.873)
(0 -0 121.404)
(0 -0 107.707)
(0 -0 84.1438)
(0 -0 50.0106)
(0 -0 5.39725)
(0 -0 -48.9946)
(0 -0 -112.053)
(0 -0 -182.43)
(0 -0 -258.694)
(0 -0 -339.434)
(0 -0 -423.33)
(0 -0 -509.192)
(0 -0 -595.986)
(0 -0 -682.83)
(0 -0 -768.991)
(0 -0 -853.873)
(0 -0 -937.003)
(0 -0 -1018.01)
(0 -0 -1096.63)
(0 -0 -1172.65)
(0 -0 -1245.95)
(0 -0 -1316.43)
(0 -0 -1384.07)
(0 -0 -1448.86)
(0 -0 -1510.81)
(0 -0 -1569.97)
(0 -0 -1626.41)
(0 -0 -1680.19)
(0 -0 -1731.38)
(0 -0 -1780.08)
(0 -0 -1826.34)
(0 -0 -1870.28)
(0 -0 -1911.91)
(0 -0 -1951.36)
(0 -0 -1988.68)
(0 -0 -2023.77)
(0 -0 -2057.09)
(0 -0 -2087.67)
(0 -0 -2117.39)
(0 -0 -2142.83)
(0 -0 -2169.37)
(0 -0 -2188.72)
(0 -0 -2211.07)
(0 -0 -2224.6)
(0 -0 115.63)
(0 -0 110.406)
(0 -0 110.72)
(0 -0 113.154)
(0 -0 115.96)
(0 -0 118.213)
(0 -0 119.085)
(0 -0 117.378)
(0 -0 111.813)
(0 -0 101.337)
(0 -0 85.2314)
(0 -0 63.1191)
(0 -0 34.9392)
(0 -0 0.900942)
(0 -0 -38.5826)
(0 -0 -82.959)
(0 -0 -131.594)
(0 -0 -183.82)
(0 -0 -238.968)
(0 -0 -296.398)
(0 -0 -355.51)
(0 -0 -415.761)
(0 -0 -476.662)
(0 -0 -537.787)
(0 -0 -598.762)
(0 -0 -659.272)
(0 -0 -719.05)
(0 -0 -777.874)
(0 -0 -835.561)
(0 -0 -891.969)
(0 -0 -946.979)
(0 -0 -1000.51)
(0 -0 -1052.49)
(0 -0 -1102.88)
(0 -0 -1151.64)
(0 -0 -1198.77)
(0 -0 -1244.23)
(0 -0 -1288.06)
(0 -0 -1330.2)
(0 -0 -1370.7)
(0 -0 -1409.55)
(0 -0 -1446.64)
(0 -0 -1482.26)
(0 -0 -1515.67)
(0 -0 -1548.16)
(0 -0 -1577.34)
(0 -0 -1606.69)
(0 -0 -1630.93)
(0 -0 -1655.97)
(0 -0 -1675.2)
(0 -0 108.386)
(0 -0 104.189)
(0 -0 104.395)
(0 -0 106.097)
(0 -0 107.959)
(0 -0 109.664)
(0 -0 111.195)
(0 -0 112.208)
(0 -0 112.121)
(0 -0 110.305)
(0 -0 106.175)
(0 -0 99.2279)
(0 -0 89.0875)
(0 -0 75.5104)
(0 -0 58.3942)
(0 -0 37.7548)
(0 -0 13.711)
(0 -0 -13.5383)
(0 -0 -43.7372)
(0 -0 -76.591)
(0 -0 -111.784)
(0 -0 -148.994)
(0 -0 -187.9)
(0 -0 -228.193)
(0 -0 -269.579)
(0 -0 -311.786)
(0 -0 -354.562)
(0 -0 -397.679)
(0 -0 -440.931)
(0 -0 -484.138)
(0 -0 -527.134)
(0 -0 -569.785)
(0 -0 -611.96)
(0 -0 -653.563)
(0 -0 -694.488)
(0 -0 -734.677)
(0 -0 -774.035)
(0 -0 -812.531)
(0 -0 -850.083)
(0 -0 -886.651)
(0 -0 -922.211)
(0 -0 -956.602)
(0 -0 -990.024)
(0 -0 -1021.89)
(0 -0 -1053.05)
(0 -0 -1081.88)
(0 -0 -1110.48)
(0 -0 -1135.66)
(0 -0 -1160.6)
(0 -0 -1181.82)
(0 -0 101.408)
(0 -0 97.9982)
(0 -0 98.2177)
(0 -0 99.6857)
(0 -0 101.192)
(0 -0 102.459)
(0 -0 103.678)
(0 -0 104.86)
(0 -0 105.831)
(0 -0 106.346)
(0 -0 106.124)
(0 -0 104.868)
(0 -0 102.287)
(0 -0 98.1231)
(0 -0 92.1637)
(0 -0 84.2527)
(0 -0 74.2912)
(0 -0 62.2351)
(0 -0 48.0911)
(0 -0 31.9086)
(0 -0 13.7726)
(0 -0 -6.20385)
(0 -0 -27.8874)
(0 -0 -51.1304)
(0 -0 -75.7764)
(0 -0 -101.666)
(0 -0 -128.638)
(0 -0 -156.536)
(0 -0 -185.207)
(0 -0 -214.509)
(0 -0 -244.301)
(0 -0 -274.46)
(0 -0 -304.861)
(0 -0 -335.401)
(0 -0 -365.969)
(0 -0 -396.485)
(0 -0 -426.848)
(0 -0 -456.991)
(0 -0 -486.83)
(0 -0 -516.286)
(0 -0 -545.323)
(0 -0 -573.776)
(0 -0 -601.761)
(0 -0 -628.841)
(0 -0 -655.515)
(0 -0 -680.759)
(0 -0 -705.724)
(0 -0 -728.597)
(0 -0 -750.915)
(0 -0 -770.965)
(0 -0 94.7323)
(0 -0 91.9489)
(0 -0 92.1562)
(0 -0 93.4749)
(0 -0 94.8495)
(0 -0 95.9426)
(0 -0 96.9373)
(0 -0 97.9311)
(0 -0 98.8958)
(0 -0 99.7638)
(0 -0 100.446)
(0 -0 100.826)
(0 -0 100.766)
(0 -0 100.117)
(0 -0 98.7339)
(0 -0 96.4789)
(0 -0 93.2317)
(0 -0 88.8932)
(0 -0 83.3877)
(0 -0 76.664)
(0 -0 68.6946)
(0 -0 59.4735)
(0 -0 49.0158)
(0 -0 37.3526)
(0 -0 24.5298)
(0 -0 10.6052)
(0 -0 -4.3542)
(0 -0 -20.2751)
(0 -0 -37.0785)
(0 -0 -54.6841)
(0 -0 -73.0079)
(0 -0 -91.9698)
(0 -0 -111.485)
(0 -0 -131.477)
(0 -0 -151.866)
(0 -0 -172.579)
(0 -0 -193.541)
(0 -0 -214.683)
(0 -0 -235.938)
(0 -0 -257.227)
(0 -0 -278.513)
(0 -0 -299.658)
(0 -0 -320.718)
(0 -0 -341.395)
(0 -0 -361.949)
(0 -0 -381.774)
(0 -0 -401.429)
(0 -0 -419.96)
(0 -0 -438.001)
(0 -0 -454.774)
(0 -0 88.357)
(0 -0 86.0934)
(0 -0 86.2817)
(0 -0 87.4503)
(0 -0 88.7262)
(0 -0 89.74)
(0 -0 90.6283)
(0 -0 91.4941)
(0 -0 92.3408)
(0 -0 93.1535)
(0 -0 93.916)
(0 -0 94.6)
(0 -0 95.1605)
(0 -0 95.5395)
(0 -0 95.6695)
(0 -0 95.4777)
(0 -0 94.8894)
(0 -0 93.8322)
(0 -0 92.2384)
(0 -0 90.0479)
(0 -0 87.2096)
(0 -0 83.6827)
(0 -0 79.4366)
(0 -0 74.4516)
(0 -0 68.7179)
(0 -0 62.2354)
(0 -0 55.0123)
(0 -0 47.0648)
(0 -0 38.4159)
(0 -0 29.0936)
(0 -0 19.1316)
(0 -0 8.56606)
(0 -0 -2.56218)
(0 -0 -14.2123)
(0 -0 -26.3392)
(0 -0 -38.8992)
(0 -0 -51.8461)
(0 -0 -65.1319)
(0 -0 -78.7142)
(0 -0 -92.5322)
(0 -0 -106.56)
(0 -0 -120.701)
(0 -0 -134.976)
(0 -0 -149.202)
(0 -0 -163.493)
(0 -0 -177.523)
(0 -0 -191.517)
(0 -0 -205.018)
(0 -0 -218.221)
(0 -0 -230.806)
(0 -0 82.2806)
(0 -0 80.4497)
(0 -0 80.6276)
(0 -0 81.6509)
(0 -0 82.823)
(0 -0 83.7711)
(0 -0 84.5914)
(0 -0 85.3799)
(0 -0 86.144)
(0 -0 86.8763)
(0 -0 87.5782)
(0 -0 88.2495)
(0 -0 88.8821)
(0 -0 89.461)
(0 -0 89.9643)
(0 -0 90.3644)
(0 -0 90.6291)
(0 -0 90.7229)
(0 -0 90.6081)
(0 -0 90.2471)
(0 -0 89.6031)
(0 -0 88.6413)
(0 -0 87.3303)
(0 -0 85.6423)
(0 -0 83.5541)
(0 -0 81.0466)
(0 -0 78.1062)
(0 -0 74.7234)
(0 -0 70.8936)
(0 -0 66.6166)
(0 -0 61.8962)
(0 -0 56.7402)
(0 -0 51.1586)
(0 -0 45.1665)
(0 -0 38.78)
(0 -0 32.0183)
(0 -0 24.9014)
(0 -0 17.4549)
(0 -0 9.69892)
(0 -0 1.66945)
(0 -0 -6.61971)
(0 -0 -15.1115)
(0 -0 -23.8104)
(0 -0 -32.6197)
(0 -0 -41.5756)
(0 -0 -50.5243)
(0 -0 -59.5276)
(0 -0 -68.392)
(0 -0 -77.1358)
(0 -0 -85.6444)
(0 -0 76.5037)
(0 -0 75.0293)
(0 -0 75.2059)
(0 -0 76.0966)
(0 -0 77.1624)
(0 -0 78.0437)
(0 -0 78.8024)
(0 -0 79.5285)
(0 -0 80.2309)
(0 -0 80.9015)
(0 -0 81.5425)
(0 -0 82.1589)
(0 -0 82.7529)
(0 -0 83.3233)
(0 -0 83.8663)
(0 -0 84.3749)
(0 -0 84.8392)
(0 -0 85.2465)
(0 -0 85.5818)
(0 -0 85.828)
(0 -0 85.9667)
(0 -0 85.979)
(0 -0 85.8456)
(0 -0 85.5475)
(0 -0 85.0667)
(0 -0 84.3863)
(0 -0 83.4909)
(0 -0 82.3673)
(0 -0 81.004)
(0 -0 79.3917)
(0 -0 77.5235)
(0 -0 75.3945)
(0 -0 73.0024)
(0 -0 70.3465)
(0 -0 67.4282)
(0 -0 64.252)
(0 -0 60.8219)
(0 -0 57.1475)
(0 -0 53.2345)
(0 -0 49.099)
(0 -0 44.7461)
(0 -0 40.2023)
(0 -0 35.4695)
(0 -0 30.589)
(0 -0 25.5584)
(0 -0 20.4367)
(0 -0 15.2262)
(0 -0 9.99271)
(0 -0 4.77127)
(0 -0 -0.410113)
(0 -0 71.0261)
(0 -0 69.8425)
(0 -0 70.0235)
(0 -0 70.7961)
(0 -0 71.7575)
(0 -0 72.5718)
(0 -0 73.2705)
(0 -0 73.9373)
(0 -0 74.5839)
(0 -0 75.2016)
(0 -0 75.7908)
(0 -0 76.3565)
(0 -0 76.9022)
(0 -0 77.43)
(0 -0 77.9408)
(0 -0 78.4344)
(0 -0 78.9093)
(0 -0 79.3625)
(0 -0 79.7898)
(0 -0 80.1855)
(0 -0 80.5428)
(0 -0 80.8539)
(0 -0 81.1101)
(0 -0 81.3022)
(0 -0 81.4206)
(0 -0 81.4555)
(0 -0 81.3971)
(0 -0 81.2361)
(0 -0 80.9635)
(0 -0 80.5711)
(0 -0 80.0512)
(0 -0 79.3974)
(0 -0 78.6038)
(0 -0 77.6662)
(0 -0 76.5804)
(0 -0 75.3448)
(0 -0 73.9572)
(0 -0 72.4186)
(0 -0 70.7284)
(0 -0 68.891)
(0 -0 66.9073)
(0 -0 64.785)
(0 -0 62.5277)
(0 -0 60.1465)
(0 -0 57.6499)
(0 -0 55.0515)
(0 -0 52.3701)
(0 -0 49.6172)
(0 -0 46.8312)
(0 -0 44.0075)
(0 -0 65.8463)
(0 -0 64.8978)
(0 -0 65.0861)
(0 -0 65.7543)
(0 -0 66.6151)
(0 -0 67.3637)
(0 -0 68.0047)
(0 -0 68.6143)
(0 -0 69.2072)
(0 -0 69.775)
(0 -0 70.3166)
(0 -0 70.8361)
(0 -0 71.337)
(0 -0 71.8217)
(0 -0 72.2917)
(0 -0 72.7485)
(0 -0 73.1926)
(0 -0 73.6244)
(0 -0 74.0431)
(0 -0 74.4477)
(0 -0 74.8365)
(0 -0 75.207)
(0 -0 75.5565)
(0 -0 75.8813)
(0 -0 76.1776)
(0 -0 76.4411)
(0 -0 76.6673)
(0 -0 76.8513)
(0 -0 76.9883)
(0 -0 77.0734)
(0 -0 77.1019)
(0 -0 77.0692)
(0 -0 76.9708)
(0 -0 76.8031)
(0 -0 76.562)
(0 -0 76.2447)
(0 -0 75.8482)
(0 -0 75.3707)
(0 -0 74.8101)
(0 -0 74.1657)
(0 -0 73.4371)
(0 -0 72.6239)
(0 -0 71.7292)
(0 -0 70.7512)
(0 -0 69.6993)
(0 -0 68.5692)
(0 -0 67.3788)
(0 -0 66.1206)
(0 -0 64.8225)
(0 -0 63.4711)
(0 -0 60.9615)
(0 -0 60.2016)
(0 -0 60.398)
(0 -0 60.9743)
(0 -0 61.7393)
(0 -0 62.4239)
(0 -0 63.0102)
(0 -0 63.5652)
(0 -0 64.1064)
(0 -0 64.6262)
(0 -0 65.1224)
(0 -0 65.5983)
(0 -0 66.0572)
(0 -0 66.5013)
(0 -0 66.9321)
(0 -0 67.3511)
(0 -0 67.7594)
(0 -0 68.1578)
(0 -0 68.5465)
(0 -0 68.926)
(0 -0 69.2959)
(0 -0 69.6561)
(0 -0 70.0057)
(0 -0 70.344)
(0 -0 70.6697)
(0 -0 70.9813)
(0 -0 71.2771)
(0 -0 71.5554)
(0 -0 71.8139)
(0 -0 72.0507)
(0 -0 72.2633)
(0 -0 72.4495)
(0 -0 72.6069)
(0 -0 72.7334)
(0 -0 72.8265)
(0 -0 72.8843)
(0 -0 72.9047)
(0 -0 72.8859)
(0 -0 72.8263)
(0 -0 72.724)
(0 -0 72.5788)
(0 -0 72.3875)
(0 -0 72.153)
(0 -0 71.8696)
(0 -0 71.5449)
(0 -0 71.1697)
(0 -0 70.7571)
(0 -0 70.2954)
(0 -0 69.8026)
(0 -0 69.2643)
(0 -0 56.3678)
(0 -0 55.758)
(0 -0 55.9616)
(0 -0 56.4575)
(0 -0 57.1323)
(0 -0 57.7551)
(0 -0 58.2896)
(0 -0 58.793)
(0 -0 59.2849)
(0 -0 59.7588)
(0 -0 60.2116)
(0 -0 60.6459)
(0 -0 61.0648)
(0 -0 61.4704)
(0 -0 61.8641)
(0 -0 62.2472)
(0 -0 62.6207)
(0 -0 62.9855)
(0 -0 63.342)
(0 -0 63.6907)
(0 -0 64.0319)
(0 -0 64.3658)
(0 -0 64.6923)
(0 -0 65.0114)
(0 -0 65.3229)
(0 -0 65.6263)
(0 -0 65.9213)
(0 -0 66.2072)
(0 -0 66.4834)
(0 -0 66.7492)
(0 -0 67.0037)
(0 -0 67.2459)
(0 -0 67.475)
(0 -0 67.6899)
(0 -0 67.8897)
(0 -0 68.0733)
(0 -0 68.2397)
(0 -0 68.3879)
(0 -0 68.5171)
(0 -0 68.6256)
(0 -0 68.7137)
(0 -0 68.7783)
(0 -0 68.8217)
(0 -0 68.8383)
(0 -0 68.8336)
(0 -0 68.7991)
(0 -0 68.7434)
(0 -0 68.6559)
(0 -0 68.5477)
(0 -0 68.4069)
(0 -0 52.06)
(0 -0 51.5691)
(0 -0 51.7776)
(0 -0 52.2034)
(0 -0 52.7944)
(0 -0 53.3577)
(0 -0 53.8434)
(0 -0 54.2984)
(0 -0 54.7436)
(0 -0 55.1739)
(0 -0 55.5855)
(0 -0 55.9802)
(0 -0 56.3611)
(0 -0 56.7301)
(0 -0 57.0885)
(0 -0 57.4375)
(0 -0 57.7781)
(0 -0 58.1108)
(0 -0 58.4363)
(0 -0 58.7549)
(0 -0 59.0669)
(0 -0 59.3726)
(0 -0 59.6721)
(0 -0 59.9655)
(0 -0 60.2528)
(0 -0 60.534)
(0 -0 60.8091)
(0 -0 61.0779)
(0 -0 61.3403)
(0 -0 61.5961)
(0 -0 61.845)
(0 -0 62.0869)
(0 -0 62.3213)
(0 -0 62.5481)
(0 -0 62.7669)
(0 -0 62.9774)
(0 -0 63.1792)
(0 -0 63.3718)
(0 -0 63.5551)
(0 -0 63.7279)
(0 -0 63.8909)
(0 -0 64.0415)
(0 -0 64.1817)
(0 -0 64.307)
(0 -0 64.4214)
(0 -0 64.5182)
(0 -0 64.603)
(0 -0 64.6676)
(0 -0 64.7192)
(0 -0 64.7483)
(0 -0 48.0318)
(0 -0 47.6344)
(0 -0 47.8449)
(0 -0 48.2098)
(0 -0 48.7238)
(0 -0 49.23)
(0 -0 49.6699)
(0 -0 50.0798)
(0 -0 50.4811)
(0 -0 50.8703)
(0 -0 51.2429)
(0 -0 51.6004)
(0 -0 51.9454)
(0 -0 52.2797)
(0 -0 52.6048)
(0 -0 52.9215)
(0 -0 53.2309)
(0 -0 53.5334)
(0 -0 53.8294)
(0 -0 54.1194)
(0 -0 54.4036)
(0 -0 54.6821)
(0 -0 54.9551)
(0 -0 55.2227)
(0 -0 55.4849)
(0 -0 55.7419)
(0 -0 55.9936)
(0 -0 56.24)
(0 -0 56.4811)
(0 -0 56.7169)
(0 -0 56.9474)
(0 -0 57.1726)
(0 -0 57.3924)
(0 -0 57.6068)
(0 -0 57.8159)
(0 -0 58.0195)
(0 -0 58.2178)
(0 -0 58.4103)
(0 -0 58.5975)
(0 -0 58.7785)
(0 -0 58.9539)
(0 -0 59.1219)
(0 -0 59.2842)
(0 -0 59.4373)
(0 -0 59.5841)
(0 -0 59.7197)
(0 -0 59.8478)
(0 -0 59.9624)
(0 -0 60.0683)
(0 -0 60.1583)
(0 -0 44.2756)
(0 -0 43.9517)
(0 -0 44.1606)
(0 -0 44.4729)
(0 -0 44.9168)
(0 -0 45.3689)
(0 -0 45.7658)
(0 -0 46.1339)
(0 -0 46.4942)
(0 -0 46.8447)
(0 -0 47.1809)
(0 -0 47.5034)
(0 -0 47.8146)
(0 -0 48.1165)
(0 -0 48.4101)
(0 -0 48.6965)
(0 -0 48.9765)
(0 -0 49.2505)
(0 -0 49.5189)
(0 -0 49.7819)
(0 -0 50.0398)
(0 -0 50.2926)
(0 -0 50.5405)
(0 -0 50.7836)
(0 -0 51.0218)
(0 -0 51.2553)
(0 -0 51.4839)
(0 -0 51.7078)
(0 -0 51.927)
(0 -0 52.1414)
(0 -0 52.3512)
(0 -0 52.5564)
(0 -0 52.757)
(0 -0 52.9531)
(0 -0 53.1448)
(0 -0 53.3323)
(0 -0 53.5155)
(0 -0 53.6946)
(0 -0 53.8697)
(0 -0 54.0404)
(0 -0 54.2072)
(0 -0 54.3688)
(0 -0 54.5265)
(0 -0 54.6778)
(0 -0 54.8246)
(0 -0 54.9634)
(0 -0 55.0968)
(0 -0 55.2202)
(0 -0 55.3373)
(0 -0 55.4425)
(0 -0 40.7826)
(0 -0 40.5166)
(0 -0 40.7202)
(0 -0 40.987)
(0 -0 41.3679)
(0 -0 41.7689)
(0 -0 42.1258)
(0 -0 42.4553)
(0 -0 42.7776)
(0 -0 43.0921)
(0 -0 43.3943)
(0 -0 43.6842)
(0 -0 43.9639)
(0 -0 44.2353)
(0 -0 44.4996)
(0 -0 44.7577)
(0 -0 45.0102)
(0 -0 45.2576)
(0 -0 45.5)
(0 -0 45.7378)
(0 -0 45.971)
(0 -0 46.1998)
(0 -0 46.4242)
(0 -0 46.6442)
(0 -0 46.8598)
(0 -0 47.0711)
(0 -0 47.2779)
(0 -0 47.4804)
(0 -0 47.6786)
(0 -0 47.8724)
(0 -0 48.062)
(0 -0 48.2474)
(0 -0 48.4286)
(0 -0 48.6059)
(0 -0 48.7792)
(0 -0 48.9488)
(0 -0 49.1149)
(0 -0 49.2774)
(0 -0 49.4367)
(0 -0 49.5924)
(0 -0 49.7449)
(0 -0 49.8934)
(0 -0 50.0387)
(0 -0 50.179)
(0 -0 50.3156)
(0 -0 50.4459)
(0 -0 50.5719)
(0 -0 50.6899)
(0 -0 50.8029)
(0 -0 50.9063)
(0 -0 37.5433)
(0 -0 37.3231)
(0 -0 37.5176)
(0 -0 37.7452)
(0 -0 38.0698)
(0 -0 38.4231)
(0 -0 38.7427)
(0 -0 39.037)
(0 -0 39.3243)
(0 -0 39.6055)
(0 -0 39.8761)
(0 -0 40.1357)
(0 -0 40.3862)
(0 -0 40.6294)
(0 -0 40.8665)
(0 -0 41.0982)
(0 -0 41.3252)
(0 -0 41.5477)
(0 -0 41.7661)
(0 -0 41.9804)
(0 -0 42.1907)
(0 -0 42.3971)
(0 -0 42.5995)
(0 -0 42.798)
(0 -0 42.9925)
(0 -0 43.1831)
(0 -0 43.3695)
(0 -0 43.552)
(0 -0 43.7304)
(0 -0 43.9049)
(0 -0 44.0754)
(0 -0 44.2421)
(0 -0 44.4049)
(0 -0 44.5641)
(0 -0 44.7198)
(0 -0 44.8721)
(0 -0 45.0213)
(0 -0 45.1675)
(0 -0 45.3108)
(0 -0 45.451)
(0 -0 45.5886)
(0 -0 45.7228)
(0 -0 45.8543)
(0 -0 45.9816)
(0 -0 46.1057)
(0 -0 46.2247)
(0 -0 46.3399)
(0 -0 46.4485)
(0 -0 46.5529)
(0 -0 46.6494)
(0 -0 34.5469)
(0 -0 34.3636)
(0 -0 34.5451)
(0 -0 34.7387)
(0 -0 35.0139)
(0 -0 35.323)
(0 -0 35.6081)
(0 -0 35.8703)
(0 -0 36.1256)
(0 -0 36.376)
(0 -0 36.6176)
(0 -0 36.8494)
(0 -0 37.0729)
(0 -0 37.2901)
(0 -0 37.502)
(0 -0 37.7094)
(0 -0 37.9128)
(0 -0 38.1125)
(0 -0 38.3086)
(0 -0 38.5012)
(0 -0 38.6903)
(0 -0 38.8759)
(0 -0 39.0581)
(0 -0 39.2366)
(0 -0 39.4116)
(0 -0 39.5828)
(0 -0 39.7504)
(0 -0 39.9142)
(0 -0 40.0743)
(0 -0 40.2307)
(0 -0 40.3835)
(0 -0 40.5326)
(0 -0 40.6783)
(0 -0 40.8206)
(0 -0 40.9598)
(0 -0 41.0959)
(0 -0 41.2292)
(0 -0 41.3599)
(0 -0 41.4881)
(0 -0 41.6137)
(0 -0 41.737)
(0 -0 41.8574)
(0 -0 41.9754)
(0 -0 42.09)
(0 -0 42.2018)
(0 -0 42.3092)
(0 -0 42.4134)
(0 -0 42.512)
(0 -0 42.6071)
(0 -0 42.6956)
(0 -0 31.782)
(0 -0 31.6285)
(0 -0 31.7941)
(0 -0 31.9587)
(0 -0 32.1905)
(0 -0 32.4591)
(0 -0 32.7123)
(0 -0 32.9454)
(0 -0 33.1717)
(0 -0 33.394)
(0 -0 33.609)
(0 -0 33.8152)
(0 -0 34.0141)
(0 -0 34.2074)
(0 -0 34.3962)
(0 -0 34.5813)
(0 -0 34.7631)
(0 -0 34.9417)
(0 -0 35.1174)
(0 -0 35.2901)
(0 -0 35.4597)
(0 -0 35.6262)
(0 -0 35.7897)
(0 -0 35.9499)
(0 -0 36.1068)
(0 -0 36.2603)
(0 -0 36.4104)
(0 -0 36.557)
(0 -0 36.7002)
(0 -0 36.8399)
(0 -0 36.9762)
(0 -0 37.1091)
(0 -0 37.2389)
(0 -0 37.3656)
(0 -0 37.4893)
(0 -0 37.6104)
(0 -0 37.729)
(0 -0 37.8453)
(0 -0 37.9595)
(0 -0 38.0714)
(0 -0 38.1814)
(0 -0 38.2891)
(0 -0 38.3946)
(0 -0 38.4972)
(0 -0 38.5974)
(0 -0 38.6939)
(0 -0 38.7877)
(0 -0 38.8767)
(0 -0 38.9628)
(0 -0 39.0434)
(0 -0 29.2366)
(0 -0 29.1074)
(0 -0 29.255)
(0 -0 29.395)
(0 -0 29.5893)
(0 -0 29.821)
(0 -0 30.0449)
(0 -0 30.2517)
(0 -0 30.4518)
(0 -0 30.6485)
(0 -0 30.8391)
(0 -0 31.0221)
(0 -0 31.1985)
(0 -0 31.37)
(0 -0 31.5378)
(0 -0 31.7025)
(0 -0 31.8645)
(0 -0 32.024)
(0 -0 32.181)
(0 -0 32.3355)
(0 -0 32.4873)
(0 -0 32.6364)
(0 -0 32.7828)
(0 -0 32.9262)
(0 -0 33.0666)
(0 -0 33.2038)
(0 -0 33.3379)
(0 -0 33.4687)
(0 -0 33.5963)
(0 -0 33.7206)
(0 -0 33.8418)
(0 -0 33.9599)
(0 -0 34.0749)
(0 -0 34.1872)
(0 -0 34.2968)
(0 -0 34.404)
(0 -0 34.5091)
(0 -0 34.6121)
(0 -0 34.7134)
(0 -0 34.8128)
(0 -0 34.9105)
(0 -0 35.0063)
(0 -0 35.1003)
(0 -0 35.192)
(0 -0 35.2815)
(0 -0 35.368)
(0 -0 35.4521)
(0 -0 35.5323)
(0 -0 35.61)
(0 -0 35.6831)
(0 -0 26.8981)
(0 -0 26.7885)
(0 -0 26.9174)
(0 -0 27.0365)
(0 -0 27.1983)
(0 -0 27.3969)
(0 -0 27.5941)
(0 -0 27.7772)
(0 -0 27.9537)
(0 -0 28.1274)
(0 -0 28.2959)
(0 -0 28.4578)
(0 -0 28.6138)
(0 -0 28.7656)
(0 -0 28.9143)
(0 -0 29.0605)
(0 -0 29.2046)
(0 -0 29.3467)
(0 -0 29.4868)
(0 -0 29.6247)
(0 -0 29.7604)
(0 -0 29.8937)
(0 -0 30.0245)
(0 -0 30.1527)
(0 -0 30.278)
(0 -0 30.4005)
(0 -0 30.5199)
(0 -0 30.6363)
(0 -0 30.7497)
(0 -0 30.86)
(0 -0 30.9673)
(0 -0 31.0717)
(0 -0 31.1734)
(0 -0 31.2724)
(0 -0 31.3691)
(0 -0 31.4636)
(0 -0 31.5562)
(0 -0 31.6472)
(0 -0 31.7366)
(0 -0 31.8245)
(0 -0 31.9111)
(0 -0 31.9961)
(0 -0 32.0796)
(0 -0 32.1611)
(0 -0 32.2409)
(0 -0 32.3182)
(0 -0 32.3935)
(0 -0 32.4656)
(0 -0 32.5357)
(0 -0 32.6018)
(0 -0 24.7539)
(0 -0 24.66)
(0 -0 24.7701)
(0 -0 24.8711)
(0 -0 25.0053)
(0 -0 25.1743)
(0 -0 25.3471)
(0 -0 25.509)
(0 -0 25.6647)
(0 -0 25.8177)
(0 -0 25.9664)
(0 -0 26.1092)
(0 -0 26.2469)
(0 -0 26.3809)
(0 -0 26.5123)
(0 -0 26.6419)
(0 -0 26.7699)
(0 -0 26.8963)
(0 -0 27.0211)
(0 -0 27.1442)
(0 -0 27.2653)
(0 -0 27.3844)
(0 -0 27.5011)
(0 -0 27.6155)
(0 -0 27.7273)
(0 -0 27.8363)
(0 -0 27.9425)
(0 -0 28.0458)
(0 -0 28.1463)
(0 -0 28.2438)
(0 -0 28.3386)
(0 -0 28.4306)
(0 -0 28.52)
(0 -0 28.607)
(0 -0 28.6919)
(0 -0 28.7748)
(0 -0 28.8562)
(0 -0 28.9361)
(0 -0 29.0147)
(0 -0 29.0923)
(0 -0 29.1687)
(0 -0 29.2438)
(0 -0 29.3178)
(0 -0 29.3902)
(0 -0 29.4612)
(0 -0 29.5301)
(0 -0 29.5975)
(0 -0 29.662)
(0 -0 29.7252)
(0 -0 29.7849)
(0 -0 22.7908)
(0 -0 22.7094)
(0 -0 22.8014)
(0 -0 22.8866)
(0 -0 22.9972)
(0 -0 23.1402)
(0 -0 23.291)
(0 -0 23.434)
(0 -0 23.5712)
(0 -0 23.7057)
(0 -0 23.8367)
(0 -0 23.9626)
(0 -0 24.0838)
(0 -0 24.2018)
(0 -0 24.3179)
(0 -0 24.4326)
(0 -0 24.5461)
(0 -0 24.6585)
(0 -0 24.7697)
(0 -0 24.8794)
(0 -0 24.9875)
(0 -0 25.0938)
(0 -0 25.198)
(0 -0 25.3)
(0 -0 25.3995)
(0 -0 25.4965)
(0 -0 25.5908)
(0 -0 25.6823)
(0 -0 25.7711)
(0 -0 25.8572)
(0 -0 25.9405)
(0 -0 26.0213)
(0 -0 26.0997)
(0 -0 26.1758)
(0 -0 26.25)
(0 -0 26.3225)
(0 -0 26.3936)
(0 -0 26.4635)
(0 -0 26.5325)
(0 -0 26.6006)
(0 -0 26.6678)
(0 -0 26.7341)
(0 -0 26.7995)
(0 -0 26.8637)
(0 -0 26.9267)
(0 -0 26.9881)
(0 -0 27.0482)
(0 -0 27.1061)
(0 -0 27.1629)
(0 -0 27.2168)
(0 -0 20.9959)
(0 -0 20.9244)
(0 -0 20.9993)
(0 -0 21.0706)
(0 -0 21.1611)
(0 -0 21.2815)
(0 -0 21.4125)
(0 -0 21.5387)
(0 -0 21.6596)
(0 -0 21.7779)
(0 -0 21.893)
(0 -0 22.0037)
(0 -0 22.1104)
(0 -0 22.2142)
(0 -0 22.3166)
(0 -0 22.418)
(0 -0 22.5187)
(0 -0 22.6186)
(0 -0 22.7177)
(0 -0 22.8155)
(0 -0 22.912)
(0 -0 23.0069)
(0 -0 23.1)
(0 -0 23.1909)
(0 -0 23.2796)
(0 -0 23.3658)
(0 -0 23.4495)
(0 -0 23.5304)
(0 -0 23.6088)
(0 -0 23.6845)
(0 -0 23.7576)
(0 -0 23.8283)
(0 -0 23.8967)
(0 -0 23.9631)
(0 -0 24.0276)
(0 -0 24.0907)
(0 -0 24.1526)
(0 -0 24.2136)
(0 -0 24.2739)
(0 -0 24.3335)
(0 -0 24.3925)
(0 -0 24.4509)
(0 -0 24.5085)
(0 -0 24.5653)
(0 -0 24.6212)
(0 -0 24.6758)
(0 -0 24.7295)
(0 -0 24.7814)
(0 -0 24.8325)
(0 -0 24.8811)
(0 -0 19.3563)
(0 -0 19.2926)
(0 -0 19.3519)
(0 -0 19.4106)
(0 -0 19.4842)
(0 -0 19.5848)
(0 -0 19.6983)
(0 -0 19.8095)
(0 -0 19.9162)
(0 -0 20.0202)
(0 -0 20.1214)
(0 -0 20.2187)
(0 -0 20.3124)
(0 -0 20.4037)
(0 -0 20.4939)
(0 -0 20.5836)
(0 -0 20.6729)
(0 -0 20.7619)
(0 -0 20.8502)
(0 -0 20.9376)
(0 -0 21.0239)
(0 -0 21.1087)
(0 -0 21.1918)
(0 -0 21.273)
(0 -0 21.3521)
(0 -0 21.4287)
(0 -0 21.5029)
(0 -0 21.5745)
(0 -0 21.6435)
(0 -0 21.71)
(0 -0 21.774)
(0 -0 21.8357)
(0 -0 21.8952)
(0 -0 21.9528)
(0 -0 22.0087)
(0 -0 22.0634)
(0 -0 22.1171)
(0 -0 22.1701)
(0 -0 22.2225)
(0 -0 22.2746)
(0 -0 22.3263)
(0 -0 22.3775)
(0 -0 22.4284)
(0 -0 22.4786)
(0 -0 22.5282)
(0 -0 22.5767)
(0 -0 22.6247)
(0 -0 22.6712)
(0 -0 22.7173)
(0 -0 22.7611)
(0 -0 17.8596)
(0 -0 17.8018)
(0 -0 17.8471)
(0 -0 17.8945)
(0 -0 17.9537)
(0 -0 18.0374)
(0 -0 18.1352)
(0 -0 18.2333)
(0 -0 18.3276)
(0 -0 18.4191)
(0 -0 18.508)
(0 -0 18.5935)
(0 -0 18.6758)
(0 -0 18.7561)
(0 -0 18.8356)
(0 -0 18.9149)
(0 -0 18.9943)
(0 -0 19.0736)
(0 -0 19.1525)
(0 -0 19.2307)
(0 -0 19.308)
(0 -0 19.384)
(0 -0 19.4585)
(0 -0 19.5311)
(0 -0 19.6016)
(0 -0 19.6699)
(0 -0 19.7357)
(0 -0 19.799)
(0 -0 19.8597)
(0 -0 19.918)
(0 -0 19.9739)
(0 -0 20.0276)
(0 -0 20.0792)
(0 -0 20.1289)
(0 -0 20.1772)
(0 -0 20.2244)
(0 -0 20.2708)
(0 -0 20.3166)
(0 -0 20.3621)
(0 -0 20.4075)
(0 -0 20.4527)
(0 -0 20.4977)
(0 -0 20.5425)
(0 -0 20.5868)
(0 -0 20.6309)
(0 -0 20.6741)
(0 -0 20.717)
(0 -0 20.7587)
(0 -0 20.8003)
(0 -0 20.84)
(0 -0 16.4935)
(0 -0 16.4403)
(0 -0 16.4731)
(0 -0 16.5102)
(0 -0 16.5573)
(0 -0 16.6264)
(0 -0 16.7106)
(0 -0 16.7971)
(0 -0 16.8806)
(0 -0 16.9613)
(0 -0 17.0395)
(0 -0 17.1145)
(0 -0 17.1868)
(0 -0 17.2575)
(0 -0 17.3276)
(0 -0 17.398)
(0 -0 17.4686)
(0 -0 17.5395)
(0 -0 17.6102)
(0 -0 17.6804)
(0 -0 17.7499)
(0 -0 17.8182)
(0 -0 17.8851)
(0 -0 17.9502)
(0 -0 18.0133)
(0 -0 18.0741)
(0 -0 18.1326)
(0 -0 18.1886)
(0 -0 18.2421)
(0 -0 18.2932)
(0 -0 18.3419)
(0 -0 18.3884)
(0 -0 18.433)
(0 -0 18.4758)
(0 -0 18.5173)
(0 -0 18.5578)
(0 -0 18.5977)
(0 -0 18.6373)
(0 -0 18.6767)
(0 -0 18.7161)
(0 -0 18.7556)
(0 -0 18.7951)
(0 -0 18.8345)
(0 -0 18.8738)
(0 -0 18.9129)
(0 -0 18.9514)
(0 -0 18.9899)
(0 -0 19.0273)
(0 -0 19.0651)
(0 -0 19.101)
(0 -0 15.2465)
(0 -0 15.1967)
(0 -0 15.2186)
(0 -0 15.2464)
(0 -0 15.2831)
(0 -0 15.3399)
(0 -0 15.4122)
(0 -0 15.4885)
(0 -0 15.5627)
(0 -0 15.6341)
(0 -0 15.7029)
(0 -0 15.7689)
(0 -0 15.8325)
(0 -0 15.8947)
(0 -0 15.9567)
(0 -0 16.0192)
(0 -0 16.0823)
(0 -0 16.1458)
(0 -0 16.2094)