/*--------------------------------*- C++ -*----------------------------------*\
  =========                 |
  \\      /  F ield         | OpenFOAM: The Open Source CFD Toolbox
   \\    /   O peration     | Website:  https://openfoam.org
    \\  /    A nd           | Version:  7
     \\/     M anipulation  |
\*---------------------------------------------------------------------------*/
FoamFile
{
    version     2.0;
    format      ascii;
    class       volVectorField;
    location    "0.01";
    object      ddt0(U);
}
// * * * * * * * * * * * * * * * * * * * * * * * * * * * * * * * * * * * * * //

dimensions      [0 1 -2 0 0 0 0];

internalField   nonuniform List<vector> 
70000
(
(-0.00261637 0.000191082 0)
(-0.0165886 0.000298282 0)
(-0.0372142 0.000341817 0)
(-0.0634554 0.000312649 0)
(-0.0962636 0.000340316 0)
(-0.13799 0.000389953 0)
(-0.190438 0.000447803 0)
(-0.255512 0.00051798 0)
(-0.335684 0.00059611 0)
(-0.433846 0.000685711 0)
(-0.553008 0.000789241 0)
(-0.695915 0.000889756 0)
(-0.865033 0.000971941 0)
(-1.063 0.00105062 0)
(-1.29281 0.00117758 0)
(-1.55698 0.00144406 0)
(-1.85446 0.00193005 0)
(-2.17529 0.00256426 0)
(-2.49677 0.00305307 0)
(-2.7881 0.00307065 0)
(-3.02383 0.00255153 0)
(-3.19673 0.00177126 0)
(-3.31941 0.00111778 0)
(-3.41437 0.000813915 0)
(-3.50157 0.000825389 0)
(-3.59197 0.000983025 0)
(-3.68834 0.00113347 0)
(-3.7896 0.00121405 0)
(-3.89464 0.00123863 0)
(-4.00448 0.00127134 0)
(-4.1222 0.00137826 0)
(-4.25241 0.00160288 0)
(-4.39848 0.00191691 0)
(-4.56333 0.00228657 0)
(-4.74574 0.00260431 0)
(-4.94628 0.00288818 0)
(-5.1599 0.00299621 0)
(-5.3897 0.0030977 0)
(-5.63063 0.00306265 0)
(-5.89223 0.00313207 0)
(-6.1751 0.00352069 0)
(-6.48258 0.00345069 0)
(-6.8363 0.0048983 0)
(-7.19248 0.00402425 0)
(-7.62315 0.00600058 0)
(-8.03402 0.00491529 0)
(-8.46742 0.00597876 0)
(-8.969 0.00625898 0)
(-9.5722 0.00117128 0)
(-9.56187 -0.0461216 0)
(-0.0016838 0.000897084 0)
(-0.0249951 0.001917 0)
(-0.0693593 0.00276982 0)
(-0.131403 0.00360399 0)
(-0.211885 0.00463801 0)
(-0.317321 0.00594544 0)
(-0.453812 0.00754543 0)
(-0.627455 0.00948408 0)
(-0.846308 0.0118266 0)
(-1.12001 0.0146408 0)
(-1.45851 0.0179496 0)
(-1.87178 0.0217192 0)
(-2.37056 0.025931 0)
(-2.96628 0.0305987 0)
(-3.66849 0.0356509 0)
(-4.47829 0.0407613 0)
(-5.37715 0.0450912 0)
(-6.31618 0.0471318 0)
(-7.21861 0.0452723 0)
(-8.00393 0.0391395 0)
(-8.6228 0.0304226 0)
(-9.07711 0.0220762 0)
(-9.41057 0.0164704 0)
(-9.67992 0.0141735 0)
(-9.92931 0.0142224 0)
(-10.1815 0.0152502 0)
(-10.4428 0.0163482 0)
(-10.7133 0.0172714 0)
(-10.9931 0.0182318 0)
(-11.2862 0.0196032 0)
(-11.5995 0.0216764 0)
(-11.942 0.0245167 0)
(-12.3196 0.0279223 0)
(-12.7389 0.0316188 0)
(-13.1983 0.0352479 0)
(-13.7036 0.0387699 0)
(-14.2471 0.0419941 0)
(-14.8432 0.0455332 0)
(-15.4817 0.0492953 0)
(-16.1908 0.0542449 0)
(-16.9644 0.060559 0)
(-17.8139 0.0668254 0)
(-18.7831 0.0766214 0)
(-19.763 0.0804458 0)
(-20.9464 0.0936048 0)
(-22.0911 0.0893922 0)
(-23.2943 0.109237 0)
(-24.7954 0.102921 0)
(-26.2519 0.0978287 0)
(-26.869 -0.18838 0)
(3.69055e-05 0.00166433 0)
(-0.0204625 0.00409433 0)
(-0.0691817 0.00644853 0)
(-0.147051 0.00889543 0)
(-0.254439 0.0118727 0)
(-0.398872 0.0156627 0)
(-0.590034 0.0203564 0)
(-0.838068 0.0260921 0)
(-1.15601 0.0331077 0)
(-1.55979 0.0416155 0)
(-2.06604 0.051715 0)
(-2.69197 0.06345 0)
(-3.45711 0.0768899 0)
(-4.38262 0.091963 0)
(-5.48532 0.107996 0)
(-6.76492 0.1232 0)
(-8.18502 0.134304 0)
(-9.65985 0.137017 0)
(-11.0659 0.128167 0)
(-12.2841 0.10863 0)
(-13.2495 0.0840742 0)
(-13.9721 0.0620657 0)
(-14.517 0.0477351 0)
(-14.9626 0.0416732 0)
(-15.369 0.0412158 0)
(-15.7685 0.0431547 0)
(-16.1731 0.0455013 0)
(-16.586 0.0477396 0)
(-17.0096 0.050299 0)
(-17.4493 0.0538932 0)
(-17.9122 0.0590749 0)
(-18.408 0.0659409 0)
(-18.9432 0.0741688 0)
(-19.5277 0.0832686 0)
(-20.1632 0.0927811 0)
(-20.8637 0.102624 0)
(-21.6253 0.11267 0)
(-22.4743 0.123958 0)
(-23.3992 0.136474 0)
(-24.442 0.151924 0)
(-25.5895 0.169844 0)
(-26.8564 0.189329 0)
(-28.3042 0.213482 0)
(-29.7726 0.229085 0)
(-31.5501 0.263405 0)
(-33.2822 0.257471 0)
(-35.186 0.315881 0)
(-37.3403 0.303666 0)
(-40.0347 0.314541 0)
(-40.4189 0.1302 0)
(0.000464523 0.00218496 0)
(-0.0136995 0.00604314 0)
(-0.0536804 0.0103255 0)
(-0.126939 0.014917 0)
(-0.237487 0.0204183 0)
(-0.393435 0.0274456 0)
(-0.606024 0.0362631 0)
(-0.887872 0.0471675 0)
(-1.2552 0.0606631 0)
(-1.72855 0.0771801 0)
(-2.33003 0.0969471 0)
(-3.08249 0.120185 0)
(-4.01176 0.147194 0)
(-5.14642 0.177842 0)
(-6.51029 0.21054 0)
(-8.10549 0.241172 0)
(-9.88776 0.262708 0)
(-11.7503 0.266852 0)
(-13.5407 0.248536 0)
(-15.1136 0.210727 0)
(-16.3889 0.164619 0)
(-17.3741 0.123781 0)
(-18.1392 0.0968118 0)
(-18.7704 0.084397 0)
(-19.3355 0.0819131 0)
(-19.8736 0.0839914 0)
(-20.4033 0.0873077 0)
(-20.9339 0.0908719 0)
(-21.4719 0.0951591 0)
(-22.0245 0.101071 0)
(-22.5975 0.109379 0)
(-23.1974 0.120239 0)
(-23.8274 0.133446 0)
(-24.4971 0.148497 0)
(-25.2106 0.165119 0)
(-25.9901 0.183351 0)
(-26.84 0.203321 0)
(-27.8004 0.22618 0)
(-28.865 0.252087 0)
(-30.0886 0.283186 0)
(-31.4571 0.317691 0)
(-32.9833 0.356607 0)
(-34.7458 0.39964 0)
(-36.5407 0.434042 0)
(-38.7305 0.495233 0)
(-40.833 0.49814 0)
(-43.3632 0.59138 0)
(-45.6751 0.623658 0)
(-49.7691 0.59222 0)
(-49.5872 0.779722 0)
(-2.18137e-05 0.00252088 0)
(-0.00979549 0.00749282 0)
(-0.0380325 0.013569 0)
(-0.0947677 0.020522 0)
(-0.188554 0.0289179 0)
(-0.329788 0.0396139 0)
(-0.53127 0.0530923 0)
(-0.806878 0.0698868 0)
(-1.17366 0.0908537 0)
(-1.65405 0.116757 0)
(-2.27374 0.148006 0)
(-3.05928 0.185006 0)
(-4.03924 0.228352 0)
(-5.2448 0.277968 0)
(-6.70369 0.331328 0)
(-8.42324 0.381638 0)
(-10.3631 0.417349 0)
(-12.4157 0.425294 0)
(-14.4225 0.398008 0)
(-16.2276 0.340667 0)
(-17.7393 0.270557 0)
(-18.9534 0.207909 0)
(-19.9307 0.165294 0)
(-20.7511 0.143783 0)
(-21.4789 0.136957 0)
(-22.153 0.137399 0)
(-22.7948 0.140528 0)
(-23.4199 0.144852 0)
(-24.0428 0.150703 0)
(-24.6773 0.158834 0)
(-25.3311 0.169859 0)
(-26.0072 0.183761 0)
(-26.7003 0.200471 0)
(-27.4111 0.21984 0)
(-28.1376 0.242311 0)
(-28.9032 0.268534 0)
(-29.7195 0.299412 0)
(-30.6423 0.336266 0)
(-31.6794 0.379342 0)
(-32.9037 0.430988 0)
(-34.3133 0.487152 0)
(-35.9214 0.551571 0)
(-37.8217 0.6182 0)
(-39.7822 0.677886 0)
(-42.2097 0.767191 0)
(-44.49 0.796179 0)
(-47.4844 0.90482 0)
(-49.7663 1.02957 0)
(-54.6257 0.952157 0)
(-54.8318 1.49574 0)
(-0.000507253 0.00282688 0)
(-0.00882654 0.00856501 0)
(-0.0288611 0.015936 0)
(-0.0683591 0.0249156 0)
(-0.137189 0.0361102 0)
(-0.247301 0.0505173 0)
(-0.413108 0.0687666 0)
(-0.64976 0.0915907 0)
(-0.973878 0.120195 0)
(-1.407 0.155801 0)
(-1.97595 0.199113 0)
(-2.70962 0.250679 0)
(-3.6369 0.311292 0)
(-4.78674 0.380987 0)
(-6.18547 0.456567 0)
(-7.84461 0.528833 0)
(-9.73567 0.581753 0)
(-11.7678 0.59694 0)
(-13.7971 0.563927 0)
(-15.6739 0.489509 0)
(-17.3014 0.396706 0)
(-18.6628 0.31236 0)
(-19.8035 0.253172 0)
(-20.7892 0.220825 0)
(-21.672 0.207345 0)
(-22.4798 0.203601 0)
(-23.2265 0.204218 0)
(-23.9268 0.207693 0)
(-24.6029 0.214469 0)
(-25.2821 0.224956 0)
(-25.9846 0.238959 0)
(-26.7177 0.255494 0)
(-27.4691 0.273971 0)
(-28.222 0.294459 0)
(-28.9543 0.318655 0)
(-29.6731 0.348699 0)
(-30.3849 0.387405 0)
(-31.1544 0.437136 0)
(-32.009 0.498601 0)
(-33.0481 0.574586 0)
(-34.2982 0.657606 0)
(-35.791 0.754249 0)
(-37.6314 0.850726 0)
(-39.5965 0.943527 0)
(-42.0809 1.06151 0)
(-44.4287 1.13162 0)
(-47.6225 1.24716 0)
(-49.9979 1.46689 0)
(-54.8113 1.40835 0)
(-56.0771 2.15272 0)
(-0.00068059 0.00315403 0)
(-0.00907557 0.00946418 0)
(-0.0254996 0.0176534 0)
(-0.0535794 0.028056 0)
(-0.100714 0.0414447 0)
(-0.17764 0.0590417 0)
(-0.298481 0.0816541 0)
(-0.478939 0.110107 0)
(-0.734628 0.14583 0)
(-1.08404 0.190531 0)
(-1.55224 0.245377 0)
(-2.16915 0.311075 0)
(-2.96378 0.388382 0)
(-3.96054 0.477276 0)
(-5.17922 0.574166 0)
(-6.63127 0.668197 0)
(-8.30247 0.73967 0)
(-10.1301 0.76528 0)
(-12.0008 0.731069 0)
(-13.7845 0.64441 0)
(-15.3854 0.533096 0)
(-16.7746 0.430105 0)
(-17.9833 0.356227 0)
(-19.0659 0.313753 0)
(-20.0636 0.292992 0)
(-20.9886 0.283002 0)
(-21.8343 0.278006 0)
(-22.5984 0.277473 0)
(-23.2997 0.283138 0)
(-23.9786 0.295784 0)
(-24.6799 0.314158 0)
(-25.4328 0.335075 0)
(-26.2329 0.355799 0)
(-27.0497 0.375233 0)
(-27.8306 0.395898 0)
(-28.5447 0.422077 0)
(-29.1673 0.460155 0)
(-29.7499 0.515491 0)
(-30.3299 0.590968 0)
(-31.0344 0.690984 0)
(-31.9319 0.804614 0)
(-33.1003 0.939998 0)
(-34.6583 1.07507 0)
(-36.445 1.21039 0)
(-38.7847 1.36325 0)
(-41.1136 1.48302 0)
(-44.2538 1.61507 0)
(-46.822 1.90682 0)
(-51.21 1.92903 0)
(-53.41 2.76169 0)
(-0.000661868 0.00349772 0)
(-0.00933934 0.0103341 0)
(-0.0250576 0.019065 0)
(-0.0478287 0.0303557 0)
(-0.0816601 0.0451914 0)
(-0.133619 0.0650838 0)
(-0.21502 0.091134 0)
(-0.340286 0.124255 0)
(-0.523155 0.165942 0)
(-0.777309 0.218304 0)
(-1.1228 0.283136 0)
(-1.58834 0.361457 0)
(-2.20359 0.453777 0)
(-2.98928 0.55961 0)
(-3.95604 0.674989 0)
(-5.10972 0.788307 0)
(-6.4475 0.877641 0)
(-7.93959 0.915784 0)
(-9.51472 0.885006 0)
(-11.0721 0.79185 0)
(-12.5201 0.667394 0)
(-13.8153 0.550178 0)
(-14.9741 0.465365 0)
(-16.0475 0.416112 0)
(-17.0786 0.390504 0)
(-18.0727 0.374715 0)
(-18.9996 0.361898 0)
(-19.8226 0.353114 0)
(-20.5344 0.353297 0)
(-21.1733 0.365831 0)
(-21.8098 0.389667 0)
(-22.5137 0.418913 0)
(-23.3149 0.446503 0)
(-24.1921 0.467246 0)
(-25.0693 0.482081 0)
(-25.8651 0.496573 0)
(-26.4959 0.521662 0)
(-26.9624 0.568431 0)
(-27.2831 0.645195 0)
(-27.5946 0.760669 0)
(-28.0073 0.903044 0)
(-28.6667 1.08042 0)
(-29.7208 1.26377 0)
(-31.1159 1.4522 0)
(-33.094 1.65321 0)
(-35.2622 1.83031 0)
(-38.1684 1.99749 0)
(-40.8589 2.34479 0)
(-44.7946 2.4737 0)
(-47.5176 3.32916 0)
(-0.000615033 0.00385488 0)
(-0.00935833 0.0112323 0)
(-0.0251418 0.0204208 0)
(-0.0465777 0.0322749 0)
(-0.0745424 0.0479669 0)
(-0.112308 0.0692754 0)
(-0.16716 0.0976701 0)
(-0.250602 0.13421 0)
(-0.373765 0.180316 0)
(-0.544378 0.238315 0)
(-0.774514 0.310732 0)
(-1.08838 0.399198 0)
(-1.51591 0.503965 0)
(-2.07639 0.623589 0)
(-2.77173 0.753407 0)
(-3.5975 0.881773 0)
(-4.5555 0.986358 0)
(-5.64679 1.03777 0)
(-6.84794 1.01464 0)
(-8.09648 0.920925 0)
(-9.30817 0.788763 0)
(-10.4203 0.661357 0)
(-11.4279 0.569109 0)
(-12.3802 0.51736 0)
(-13.3373 0.492013 0)
(-14.319 0.474616 0)
(-15.2839 0.454922 0)
(-16.1559 0.434564 0)
(-16.8784 0.423066 0)
(-17.4597 0.429729 0)
(-17.9784 0.457148 0)
(-18.5494 0.498364 0)
(-19.2627 0.540769 0)
(-20.1412 0.571478 0)
(-21.115 0.585312 0)
(-22.0622 0.585545 0)
(-22.8266 0.586496 0)
(-23.3229 0.606675 0)
(-23.5084 0.663817 0)
(-23.4895 0.775577 0)
(-23.3977 0.934495 0)
(-23.4437 1.1491 0)
(-23.8257 1.3863 0)
(-24.619 1.6381 0)
(-26.0256 1.90386 0)
(-27.8299 2.15096 0)
(-30.3563 2.3746 0)
(-32.9917 2.77572 0)
(-36.5207 3.01513 0)
(-39.434 3.85797 0)
(-0.000601001 0.00421767 0)
(-0.00925065 0.0121612 0)
(-0.0250213 0.0217987 0)
(-0.0464141 0.0341183 0)
(-0.0728124 0.0503364 0)
(-0.104607 0.0724268 0)
(-0.145123 0.102258 0)
(-0.203198 0.14108 0)
(-0.28721 0.190102 0)
(-0.398825 0.251607 0)
(-0.540795 0.328837 0)
(-0.729851 0.424394 0)
(-0.994613 0.538503 0)
(-1.35466 0.668387 0)
(-1.80537 0.808089 0)
(-2.32975 0.946221 0)
(-2.92621 1.06183 0)
(-3.61835 1.12565 0)
(-4.4291 1.11345 0)
(-5.34037 1.02492 0)
(-6.28188 0.890266 0)
(-7.17005 0.755626 0)
(-7.96911 0.65759 0)
(-8.71963 0.606226 0)
(-9.50496 0.586787 0)
(-10.3797 0.57494 0)
(-11.316 0.553563 0)
(-12.2106 0.5216 0)
(-12.9481 0.492595 0)
(-13.4786 0.484692 0)
(-13.859 0.509122 0)
(-14.2332 0.562239 0)
(-14.7601 0.627254 0)
(-15.5379 0.681091 0)
(-16.5434 0.706965 0)
(-17.6459 0.699784 0)
(-18.6292 0.672666 0)
(-19.3061 0.650583 0)
(-19.5362 0.663541 0)
(-19.348 0.743603 0)
(-18.8541 0.894838 0)
(-18.302 1.13017 0)
(-17.9473 1.41716 0)
(-17.9931 1.73797 0)
(-18.662 2.08366 0)
(-19.8942 2.41764 0)
(-21.8966 2.72096 0)
(-24.2758 3.18563 0)
(-27.3933 3.53348 0)
(-30.2731 4.34507 0)
(-0.000612156 0.00458556 0)
(-0.00913262 0.0131109 0)
(-0.0246852 0.0232158 0)
(-0.046171 0.0359985 0)
(-0.0725708 0.0526251 0)
(-0.102543 0.0751531 0)
(-0.136936 0.105835 0)
(-0.182472 0.146155 0)
(-0.245349 0.196992 0)
(-0.323189 0.260243 0)
(-0.409597 0.339734 0)
(-0.512676 0.439353 0)
(-0.658092 0.559695 0)
(-0.866201 0.696471 0)
(-1.12841 0.841729 0)
(-1.41547 0.984185 0)
(-1.71625 1.10567 0)
(-2.06584 1.17946 0)
(-2.52473 1.18004 0)
(-3.11912 1.10163 0)
(-3.79946 0.969299 0)
(-4.46612 0.82949 0)
(-5.04832 0.725286 0)
(-5.5673 0.674533 0)
(-6.12409 0.66492 0)
(-6.8174 0.666475 0)
(-7.65562 0.651868 0)
(-8.53133 0.612509 0)
(-9.27886 0.562915 0)
(-9.77753 0.531139 0)
(-10.0332 0.542012 0)
(-10.1904 0.601532 0)
(-10.4648 0.693068 0)
(-11.0414 0.783438 0)
(-11.9761 0.839737 0)
(-13.17 0.841313 0)
(-14.3791 0.792671 0)
(-15.3261 0.720934 0)
(-15.7597 0.668284 0)
(-15.5944 0.685483 0)
(-14.8807 0.795857 0)
(-13.8573 1.02377 0)
(-12.8234 1.34413 0)
(-12.0881 1.73058 0)
(-11.9393 2.16535 0)
(-12.4526 2.60284 0)
(-13.8084 3.00949 0)
(-15.7578 3.55457 0)
(-18.4153 4.01066 0)
(-21.1033 4.78949 0)
(-0.000631168 0.00496048 0)
(-0.0090349 0.0140761 0)
(-0.024273 0.0246638 0)
(-0.0457032 0.0379448 0)
(-0.0723601 0.0549616 0)
(-0.10193 0.0777735 0)
(-0.133945 0.109018 0)
(-0.17415 0.15044 0)
(-0.228285 0.202448 0)
(-0.290431 0.266278 0)
(-0.347793 0.346107 0)
(-0.400885 0.447321 0)
(-0.471853 0.571297 0)
(-0.581356 0.712223 0)
(-0.718796 0.859499 0)
(-0.84478 1.0015 0)
(-0.936635 1.12368 0)
(-1.0314 1.20406 0)
(-1.21421 1.21767 0)
(-1.54796 1.15293 0)
(-2.00668 1.02699 0)
(-2.48332 0.883527 0)
(-2.87621 0.771525 0)
(-3.18103 0.719238 0)
(-3.50506 0.720633 0)
(-3.98634 0.741907 0)
(-4.67921 0.743421 0)
(-5.49365 0.704019 0)
(-6.23432 0.634419 0)
(-6.71556 0.57133 0)
(-6.87869 0.556649 0)
(-6.84208 0.612636 0)
(-6.85241 0.729158 0)
(-7.17135 0.865825 0)
(-7.94506 0.971392 0)
(-9.13562 1.00324 0)
(-10.509 0.948848 0)
(-11.7294 0.830486 0)
(-12.4481 0.699198 0)
(-12.4567 0.62602 0)
(-11.7136 0.660038 0)
(-10.407 0.845087 0)
(-8.84827 1.17149 0)
(-7.41765 1.60961 0)
(-6.48164 2.13379 0)
(-6.23437 2.68663 0)
(-6.88405 3.21763 0)
(-8.29375 3.86278 0)
(-10.4443 4.43122 0)
(-12.8321 5.18701 0)
(-0.000649638 0.00534339 0)
(-0.00894622 0.0150565 0)
(-0.0238651 0.0261361 0)
(-0.0451451 0.0399527 0)
(-0.0719196 0.0573718 0)
(-0.10128 0.0804046 0)
(-0.132215 0.112093 0)
(-0.170371 0.154482 0)
(-0.221344 0.207417 0)
(-0.277687 0.271191 0)
(-0.322445 0.350151 0)
(-0.351258 0.451288 0)
(-0.382931 0.577083 0)
(-0.438035 0.720237 0)
(-0.504083 0.867052 0)
(-0.535846 1.00501 0)
(-0.500781 1.12356 0)
(-0.432654 1.20706 0)
(-0.428372 1.23281 0)
(-0.574898 1.18369 0)
(-0.866622 1.06701 0)
(-1.19731 0.920971 0)
(-1.44515 0.799258 0)
(-1.58219 0.742178 0)
(-1.7118 0.753491 0)
(-1.99737 0.798193 0)
(-2.53397 0.82375 0)
(-3.25945 0.792472 0)
(-3.97051 0.706229 0)
(-4.4364 0.607503 0)
(-4.53917 0.556657 0)
(-4.35725 0.597567 0)
(-4.14242 0.733246 0)
(-4.20779 0.920773 0)
(-4.77829 1.09079 0)
(-5.88585 1.17441 0)
(-7.33255 1.13456 0)
(-8.76095 0.980833 0)
(-9.75698 0.767667 0)
(-10.0077 0.585081 0)
(-9.37451 0.511712 0)
(-7.97008 0.617796 0)
(-6.0853 0.917379 0)
(-4.13226 1.38511 0)
(-2.54143 1.99018 0)
(-1.60478 2.66273 0)
(-1.57922 3.33329 0)
(-2.42423 4.09709 0)
(-4.06043 4.7844 0)
(-6.09455 5.53577 0)
(-0.000664126 0.00573402 0)
(-0.00885239 0.0160538 0)
(-0.0234895 0.027632 0)
(-0.0446006 0.0420135 0)
(-0.0713022 0.0598468 0)
(-0.100312 0.0830706 0)
(-0.130533 0.11517 0)
(-0.167847 0.158513 0)
(-0.217723 0.212311 0)
(-0.27189 0.275747 0)
(-0.311777 0.353222 0)
(-0.330792 0.453372 0)
(-0.345717 0.579933 0)
(-0.375426 0.724159 0)
(-0.406543 0.868956 0)
(-0.390532 1.00057 0)
(-0.290121 1.11255 0)
(-0.135194 1.19643 0)
(-0.0247268 1.23295 0)
(-0.0552368 1.19994 0)
(-0.234368 1.094 0)
(-0.461973 0.946039 0)
(-0.609231 0.813155 0)
(-0.633189 0.748321 0)
(-0.628345 0.767473 0)
(-0.76705 0.836884 0)
(-1.16951 0.891614 0)
(-1.79937 0.875152 0)
(-2.46061 0.776529 0)
(-2.90204 0.640756 0)
(-2.96576 0.546359 0)
(-2.69226 0.562115 0)
(-2.32075 0.709567 0)
(-2.18694 0.948121 0)
(-2.56785 1.1922 0)
(-3.5538 1.34469 0)
(-4.99165 1.33868 0)
(-6.53162 1.16439 0)
(-7.73121 0.873742 0)
(-8.20933 0.572443 0)
(-7.74855 0.369547 0)
(-6.38409 0.366408 0)
(-4.36425 0.607585 0)
(-2.09841 1.0797 0)
(-0.0513966 1.75098 0)
(1.41512 2.54035 0)
(1.999 3.35839 0)
(1.65927 4.25495 0)
(0.490257 5.06795 0)
(-1.19369 5.83722 0)
(-0.000671971 0.0061318 0)
(-0.00874634 0.0170694 0)
(-0.0231593 0.0291553 0)
(-0.0441076 0.04412 0)
(-0.0705538 0.0623714 0)
(-0.0990524 0.085773 0)
(-0.128761 0.118289 0)
(-0.165729 0.162609 0)
(-0.21489 0.217246 0)
(-0.267431 0.280224 0)
(-0.305017 0.355977 0)
(-0.321144 0.454788 0)
(-0.331256 0.581624 0)
(-0.351545 0.726251 0)
(-0.366857 0.868126 0)
(-0.329106 0.992204 0)
(-0.201649 1.09612 0)
(-0.0122449 1.17876 0)
(0.144447 1.22476 0)
(0.173388 1.20731 0)
(0.0628624 1.11227 0)
(-0.0952405 0.962586 0)
(-0.177071 0.817887 0)
(-0.136057 0.743632 0)
(-0.0578383 0.768861 0)
(-0.109758 0.862669 0)
(-0.418313 0.948657 0)
(-0.962652 0.950842 0)
(-1.56103 0.843247 0)
(-1.96374 0.670926 0)
(-1.9977 0.529397 0)
(-1.67846 0.513515 0)
(-1.22554 0.666528 0)
(-0.972628 0.953902 0)
(-1.21729 1.27622 0)
(-2.08457 1.5081 0)
(-3.45968 1.55013 0)
(-5.01693 1.36881 0)
(-6.31755 1.00878 0)
(-6.95327 0.587632 0)
(-6.6595 0.243508 0)
(-5.41062 0.110803 0)
(-3.40576 0.268644 0)
(-1.02768 0.722083 0)
(1.25634 1.4429 0)
(3.04758 2.34126 0)
(4.0164 3.30781 0)
(4.06023 4.34514 0)
(3.26468 5.28891 0)
(1.88042 6.09689 0)
(-0.000671356 0.00653601 0)
(-0.00862729 0.0181039 0)
(-0.0228825 0.0307109 0)
(-0.0436664 0.0462653 0)
(-0.069683 0.0649311 0)
(-0.0975597 0.0885151 0)
(-0.126984 0.121478 0)
(-0.163915 0.166786 0)
(-0.212204 0.222206 0)
(-0.262619 0.284653 0)
(-0.298336 0.358671 0)
(-0.314492 0.456135 0)
(-0.32532 0.583059 0)
(-0.343213 0.727624 0)
(-0.350829 0.866007 0)
(-0.302968 0.982117 0)
(-0.168191 1.07766 0)
(0.0252423 1.15856 0)
(0.190156 1.21308 0)
(0.241616 1.21 0)
(0.170567 1.12501 0)
(0.0600644 0.973414 0)
(0.020323 0.817149 0)
(0.0912908 0.73346 0)
(0.193918 0.764087 0)
(0.175204 0.881282 0)
(-0.0812509 0.998039 0)
(-0.557541 1.01954 0)
(-1.08721 0.90457 0)
(-1.4379 0.697087 0)
(-1.44391 0.508305 0)
(-1.1125 0.458653 0)
(-0.644046 0.613914 0)
(-0.353021 0.947448 0)
(-0.529468 1.34793 0)
(-1.3068 1.66284 0)
(-2.59408 1.76013 0)
(-4.09504 1.58087 0)
(-5.39716 1.15977 0)
(-6.10048 0.623064 0)
(-5.92769 0.135589 0)
(-4.81783 -0.135741 0)
(-2.92714 -0.0761376 0)
(-0.599607 0.342023 0)
(1.72078 1.09737 0)
(3.62967 2.09414 0)
(4.79323 3.20439 0)
(5.07056 4.38427 0)
(4.53041 5.46073 0)
(3.36836 6.3242 0)
(-0.000662084 0.00694579 0)
(-0.0084997 0.0191598 0)
(-0.0226572 0.032303 0)
(-0.0432579 0.0484411 0)
(-0.0686935 0.0675128 0)
(-0.0958975 0.0913048 0)
(-0.125264 0.124762 0)
(-0.162362 0.171044 0)
(-0.209517 0.227142 0)
(-0.257228 0.288993 0)
(-0.291027 0.361391 0)
(-0.308442 0.457685 0)
(-0.322232 0.584623 0)
(-0.340067 0.728686 0)
(-0.342334 0.863122 0)
(-0.288466 0.971282 0)
(-0.155097 1.05896 0)
(0.0272833 1.13843 0)
(0.180582 1.20086 0)
(0.234435 1.21058 0)
(0.186602 1.13408 0)
(0.111249 0.980199 0)
(0.0997688 0.813399 0)
(0.178767 0.721767 0)
(0.273251 0.758324 0)
(0.249836 0.897743 0)
(0.0133837 1.04297 0)
(-0.411297 1.08183 0)
(-0.871434 0.959185 0)
(-1.16141 0.718186 0)
(-1.13921 0.484714 0)
(-0.818166 0.403168 0)
(-0.383209 0.560667 0)
(-0.11953 0.938387 0)
(-0.289008 1.41417 0)
(-1.01138 1.81003 0)
(-2.20455 1.96298 0)
(-3.60081 1.78938 0)
(-4.82654 1.31357 0)
(-5.51537 0.668388 0)
(-5.40629 0.0426112 0)
(-4.42833 -0.3664 0)
(-2.70718 -0.409598 0)
(-0.54508 -0.0351553 0)
(1.65417 0.744364 0)
(3.5059 1.82929 0)
(4.69342 3.07468 0)
(5.05962 4.39299 0)
(4.65733 5.5997 0)
(3.63415 6.53057 0)
(-0.00064554 0.00736042 0)
(-0.00837129 0.0202398 0)
(-0.0224715 0.0339342 0)
(-0.0428541 0.0506396 0)
(-0.0676034 0.0701073 0)
(-0.0941418 0.0941521 0)
(-0.123618 0.128164 0)
(-0.160953 0.175379 0)
(-0.206729 0.232009 0)
(-0.251404 0.293209 0)
(-0.283347 0.364178 0)
(-0.302598 0.459559 0)
(-0.320026 0.586442 0)
(-0.338139 0.729513 0)
(-0.335338 0.859577 0)
(-0.276757 0.960067 0)
(-0.14832 1.04086 0)
(0.0167793 1.1197 0)
(0.150262 1.18957 0)
(0.197909 1.21032 0)
(0.165692 1.14043 0)
(0.118759 0.983831 0)
(0.127543 0.808094 0)
(0.202316 0.711053 0)
(0.270726 0.754977 0)
(0.221374 0.915501 0)
(-0.014134 1.0858 0)
(-0.398485 1.13828 0)
(-0.79095 1.0063 0)
(-1.01715 0.733497 0)
(-0.967904 0.45977 0)
(-0.671779 0.351226 0)
(-0.30187 0.513706 0)
(-0.1092 0.934594 0)
(-0.315256 1.4811 0)
(-1.01158 1.95172 0)
(-2.11339 2.15532 0)
(-3.37801 1.98614 0)
(-4.47655 1.45939 0)
(-5.09104 0.713825 0)
(-4.99609 -0.0404425 0)
(-4.13032 -0.578495 0)
(-2.60233 -0.720214 0)
(-0.675615 -0.390168 0)
(1.29435 0.40812 0)
(2.96067 1.57245 0)
(4.04084 2.94289 0)
(4.37958 4.39202 0)
(4.01805 5.72296 0)
(3.06189 6.72835 0)
(-0.000624223 0.00777973 0)
(-0.00824945 0.0213463 0)
(-0.0223073 0.0356052 0)
(-0.0424281 0.0528543 0)
(-0.0664438 0.07271 0)
(-0.0923673 0.0970661 0)
(-0.122035 0.131694 0)
(-0.159538 0.179778 0)
(-0.203745 0.236775 0)
(-0.24534 0.297287 0)
(-0.275663 0.367062 0)
(-0.296997 0.461807 0)
(-0.317965 0.588529 0)
(-0.336009 0.730074 0)
(-0.328128 0.855374 0)
(-0.265641 0.948627 0)
(-0.143685 1.02373 0)
(0.00231515 1.10289 0)
(0.11411 1.17979 0)
(0.15332 1.20971 0)
(0.133645 1.14445 0)
(0.110981 0.984798 0)
(0.134784 0.802087 0)
(0.198902 0.702722 0)
(0.233572 0.755891 0)
(0.149826 0.936398 0)
(-0.0926967 1.12779 0)
(-0.442585 1.18925 0)
(-0.770472 1.04559 0)
(-0.934563 0.742808 0)
(-0.86185 0.434438 0)
(-0.60006 0.305689 0)
(-0.312417 0.477672 0)
(-0.214067 0.941397 0)
(-0.480608 1.55307 0)
(-1.16827 2.08955 0)
(-2.18318 2.33521 0)
(-3.30467 2.16574 0)
(-4.24982 1.5897 0)
(-4.75535 0.751976 0)
(-4.64179 -0.118086 0)
(-3.86941 -0.771214 0)
(-2.5398 -1.00051 0)
(-0.882499 -0.709306 0)
(0.797622 0.106564 0)
(2.20028 1.34304 0)
(3.08673 2.82754 0)
(3.3166 4.39741 0)
(2.92533 5.8444 0)
(1.98308 6.92792 0)
(-0.000600963 0.00820397 0)
(-0.00813839 0.0224802 0)
(-0.0221464 0.0373151 0)
(-0.0419629 0.0550809 0)
(-0.0652493 0.0753209 0)
(-0.0906284 0.100053 0)
(-0.120482 0.135351 0)
(-0.157995 0.184225 0)
(-0.200516 0.241426 0)
(-0.2392 0.301237 0)
(-0.268226 0.370071 0)
(-0.291651 0.464435 0)
(-0.315671 0.590849 0)
(-0.333163 0.730328 0)
(-0.32044 0.850538 0)
(-0.255056 0.937079 0)
(-0.140484 1.00774 0)
(-0.0134522 1.08814 0)
(0.0776867 1.1716 0)
(0.109063 1.20884 0)
(0.100688 1.14633 0)
(0.0989914 0.983455 0)
(0.13366 0.795931 0)
(0.183757 0.697484 0)
(0.182909 0.761825 0)
(0.0640604 0.961078 0)
(-0.186391 1.16932 0)
(-0.503993 1.23483 0)
(-0.770971 1.07703 0)
(-0.87769 0.746361 0)
(-0.786903 0.409648 0)
(-0.565542 0.268433 0)
(-0.367299 0.455257 0)
(-0.371477 0.961736 0)
(-0.706956 1.63239 0)
(-1.39306 2.22445 0)
(-2.32472 2.50164 0)
(-3.30136 2.32524 0)
(-4.08497 1.70023 0)
(-4.46768 0.778442 0)
(-4.31919 -0.193332 0)
(-3.62687 -0.944739 0)
(-2.49146 -1.24682 0)
(-1.11315 -0.984937 0)
(0.252351 -0.149046 0)
(1.35457 1.15459 0)
(2.0024 2.74218 0)
(2.07706 4.42087 0)
(1.61192 5.97367 0)
(0.648522 7.13623 0)
(-0.000578133 0.00863377 0)
(-0.00803856 0.0236416 0)
(-0.0219753 0.0390622 0)
(-0.0414529 0.057318 0)
(-0.0640478 0.0779428 0)
(-0.08895 0.103117 0)
(-0.118923 0.139129 0)
(-0.156251 0.188705 0)
(-0.197043 0.245959 0)
(-0.233099 0.305081 0)
(-0.261145 0.373223 0)
(-0.286505 0.467422 0)
(-0.312934 0.59335 0)
(-0.329447 0.730253 0)
(-0.312378 0.84513 0)
(-0.245268 0.925544 0)
(-0.138727 0.992974 0)
(-0.0297672 1.07543 0)
(0.0427881 1.16491 0)
(0.0678559 1.20765 0)
(0.0700756 1.14619 0)
(0.0862979 0.980135 0)
(0.128199 0.790052 0)
(0.162411 0.695688 0)
(0.127101 0.77293 0)
(-0.0238488 0.989501 0)
(-0.279762 1.21028 0)
(-0.565485 1.275 0)
(-0.775546 1.10083 0)
(-0.83117 0.744707 0)
(-0.72843 0.386301 0)
(-0.55134 0.240644 0)
(-0.44336 0.447768 0)
(-0.548881 0.996794 0)
(-0.951939 1.71987 0)
(-1.63673 2.35658 0)
(-2.48767 2.654 0)
(-3.3234 2.4633 0)
(-3.94872 1.78909 0)
(-4.20878 0.791246 0)
(-4.02123 -0.267662 0)
(-3.40134 -1.09932 0)
(-2.45172 -1.45738 0)
(-1.34687 -1.21305 0)
(-0.296461 -0.352857 0)
(0.497971 1.01404 0)
(0.892221 2.69448 0)
(0.792009 4.47032 0)
(0.230689 6.11807 0)
(-0.773546 7.35814 0)
(-0.000557132 0.00906979 0)
(-0.00794796 0.02483 0)
(-0.0217868 0.0408445 0)
(-0.0409015 0.0595657 0)
(-0.062855 0.0805792 0)
(-0.0873324 0.106257 0)
(-0.117327 0.143014 0)
(-0.154283 0.193202 0)
(-0.193354 0.250381 0)
(-0.227094 0.308845 0)
(-0.254423 0.376529 0)
(-0.28148 0.470732 0)
(-0.309676 0.595975 0)
(-0.324892 0.729844 0)
(-0.304079 0.839235 0)
(-0.236392 0.91415 0)
(-0.13835 0.979483 0)
(-0.046332 1.06467 0)
(0.00988214 1.15953 0)
(0.0302518 1.20605 0)
(0.0424376 1.14416 0)
(0.0737275 0.975172 0)
(0.119668 0.784815 0)
(0.136913 0.697507 0)
(0.0693261 0.789077 0)
(-0.109438 1.02131 0)
(-0.367282 1.25033 0)
(-0.621068 1.3097 0)
(-0.778424 1.11736 0)
(-0.789716 0.738546 0)
(-0.681042 0.365244 0)
(-0.55046 0.22306 0)
(-0.530081 0.45565 0)
(-0.730788 1.04667 0)
(-1.19498 1.81533 0)
(-1.87518 2.48562 0)
(-2.64735 2.79196 0)
(-3.34911 2.57964 0)
(-3.82556 1.85601 0)
(-3.97105 0.79005 0)
(-3.74763 -0.341353 0)
(-3.19655 -1.23498 0)
(-2.42263 -1.63166 0)
(-1.57738 -1.39235 0)
(-0.828268 -0.502658 0)
(-0.330921 0.924478 0)
(-0.186087 2.68808 0)
(-0.463546 4.54968 0)
(-1.12902 6.28182 0)
(-2.18293 7.59676 0)
(-0.000538399 0.0095127 0)
(-0.00786388 0.0260444 0)
(-0.0215799 0.0426602 0)
(-0.0403153 0.0618251 0)
(-0.0616748 0.0832332 0)
(-0.0857618 0.109471 0)
(-0.115679 0.146994 0)
(-0.152105 0.197706 0)
(-0.189488 0.254701 0)
(-0.221195 0.312552 0)
(-0.248009 0.379993 0)
(-0.276515 0.474328 0)
(-0.305913 0.598676 0)
(-0.319612 0.729105 0)
(-0.295653 0.832944 0)
(-0.228392 0.903013 0)
(-0.139158 0.967307 0)
(-0.0629374 1.05577 0)
(-0.0209831 1.15529 0)
(-0.00389559 1.20395 0)
(0.0176029 1.14038 0)
(0.0613537 0.968882 0)
(0.108589 0.780541 0)
(0.108273 0.703036 0)
(0.0109551 0.810031 0)
(-0.191181 1.05607 0)
(-0.447463 1.28909 0)
(-0.669415 1.33889 0)
(-0.778419 1.12703 0)
(-0.752075 0.728636 0)
(-0.642968 0.347249 0)
(-0.559966 0.216137 0)
(-0.6227 0.478863 0)
(-0.910228 1.11088 0)
(-1.42705 1.91808 0)
(-2.09807 2.61104 0)
(-2.79339 2.91537 0)
(-3.36956 2.67456 0)
(-3.70936 1.9016 0)
(-3.75198 0.775521 0)
(-3.49933 -0.413952 0)
(-3.01551 -1.35164 0)
(-2.40666 -1.76987 0)
(-1.80319 -1.52319 0)
(-1.33436 -0.598584 0)
(-1.11396 0.886414 0)
(-1.20403 2.72425 0)
(-1.65133 4.6607 0)
(-2.42053 6.46695 0)
(-3.52641 7.85348 0)
(-0.000521739 0.00996307 0)
(-0.00778397 0.0272839 0)
(-0.0213564 0.044508 0)
(-0.0397007 0.0640971 0)
(-0.0605037 0.0859068 0)
(-0.0842216 0.112754 0)
(-0.113972 0.151056 0)
(-0.149742 0.202207 0)
(-0.185476 0.258926 0)
(-0.215387 0.316224 0)
(-0.241838 0.383618 0)
(-0.271566 0.478175 0)
(-0.301706 0.601408 0)
(-0.313743 0.728044 0)
(-0.287174 0.82634 0)
(-0.221174 0.892239 0)
(-0.140923 0.956475 0)
(-0.0794077 1.04861 0)
(-0.0498635 1.15204 0)
(-0.0348824 1.20129 0)
(-0.00476337 1.13496 0)
(0.0490872 0.961567 0)
(0.0952927 0.777514 0)
(0.0771763 0.712328 0)
(-0.0472369 0.835521 0)
(-0.268526 1.0933 0)
(-0.520163 1.32619 0)
(-0.710736 1.36259 0)
(-0.775829 1.13032 0)
(-0.718255 0.715742 0)
(-0.613579 0.333013 0)
(-0.578375 0.220152 0)
(-0.718843 0.5171 0)
(-1.08407 1.18866 0)
(-1.64454 2.02725 0)
(-2.30165 2.73224 0)
(-2.92228 3.02422 0)
(-3.38179 2.7487 0)
(-3.59805 1.92692 0)
(-3.55062 0.748816 0)
(-3.27649 -0.484647 0)
(-2.85909 -1.44923 0)
(-2.40451 -1.87261 0)
(-2.02353 -1.60671 0)
(-1.81109 -0.642009 0)
(-1.84355 0.898699 0)
(-2.14937 2.80265 0)
(-2.75449 4.80405 0)
(-3.62258 6.67471 0)
(-4.77898 8.12875 0)
(-0.000506755 0.0104214 0)
(-0.00770655 0.0285476 0)
(-0.0211188 0.0463864 0)
(-0.0390625 0.0663822 0)
(-0.0593361 0.0886015 0)
(-0.0826976 0.116104 0)
(-0.112206 0.155188 0)
(-0.147221 0.206696 0)
(-0.181344 0.263062 0)
(-0.209651 0.319875 0)
(-0.235854 0.387404 0)
(-0.26661 0.482244 0)
(-0.297115 0.604138 0)
(-0.307398 0.726671 0)
(-0.278699 0.819498 0)
(-0.214648 0.881923 0)
(-0.14345 0.947009 0)
(-0.0955961 1.04311 0)
(-0.076815 1.14963 0)
(-0.0629789 1.198 0)
(-0.0249779 1.12805 0)
(0.0368129 0.953509 0)
(0.0800175 0.775988 0)
(0.0441497 0.725399 0)
(-0.104704 0.865262 0)
(-0.341224 1.13256 0)
(-0.585592 1.36132 0)
(-0.745605 1.38087 0)
(-0.771263 1.12775 0)
(-0.688509 0.700625 0)
(-0.592504 0.323168 0)
(-0.604667 0.235261 0)
(-0.817064 0.569908 0)
(-1.25079 1.27911 0)
(-1.84614 2.14186 0)
(-2.48499 2.84864 0)
(-3.03336 3.11859 0)
(-3.38531 2.80285 0)
(-3.49106 1.93329 0)
(-3.36627 0.711261 0)
(-3.07827 -0.552545 0)
(-2.72639 -1.52764 0)
(-2.41522 -1.94077 0)
(-2.23725 -1.6446 0)
(-2.25687 -0.634847 0)
(-2.51718 0.959652 0)
(-3.0181 2.92213 0)
(-3.76722 4.97938 0)
(-4.7274 6.90563 0)
(-5.93092 8.42264 0)
(-0.00049309 0.0108881 0)
(-0.00763041 0.0298347 0)
(-0.0208691 0.0482946 0)
(-0.0384037 0.0686805 0)
(-0.0581674 0.0913176 0)
(-0.0811799 0.119517 0)
(-0.110385 0.159382 0)
(-0.144562 0.211166 0)
(-0.177107 0.267115 0)
(-0.203974 0.32352 0)
(-0.230019 0.391353 0)
(-0.261629 0.486508 0)
(-0.292187 0.606834 0)
(-0.300667 0.724996 0)
(-0.270279 0.81249 0)
(-0.208758 0.872149 0)
(-0.14659 0.938928 0)
(-0.11138 1.03919 0)
(-0.10187 1.14793 0)
(-0.0883999 1.19405 0)
(-0.0433112 1.11977 0)
(0.0244134 0.94498 0)
(0.0629413 0.776187 0)
(0.00961669 0.742238 0)
(-0.161015 0.898952 0)
(-0.409125 1.17343 0)
(-0.644028 1.39421 0)
(-0.77462 1.39385 0)
(-0.765316 1.11988 0)
(-0.663052 0.684039 0)
(-0.579365 0.318287 0)
(-0.637941 0.261522 0)
(-0.916258 0.636732 0)
(-1.40947 1.38124 0)
(-2.03144 2.26093 0)
(-2.64821 2.95968 0)
(-3.12709 3.19864 0)
(-3.38048 2.83793 0)
(-3.38829 1.92208 0)
(-3.19809 0.664241 0)
(-2.90317 -0.616743 0)
(-2.61553 -1.5869 0)
(-2.43696 -1.97536 0)
(-2.44291 -1.63876 0)
(-2.67083 -0.57944 0)
(-3.13459 1.06726 0)
(-3.81018 3.08147 0)
(-4.68908 5.18608 0)
(-5.73359 7.15958 0)
(-6.97967 8.73458 0)
(-0.00048053 0.0113636 0)
(-0.00755456 0.0311445 0)
(-0.0206085 0.0502313 0)
(-0.0377269 0.0709917 0)
(-0.0569952 0.0940556 0)
(-0.0796618 0.122987 0)