/*--------------------------------*- C++ -*----------------------------------*\
  =========                 |
  \\      /  F ield         | OpenFOAM: The Open Source CFD Toolbox
   \\    /   O peration     | Website:  https://openfoam.org
    \\  /    A nd           | Version:  7
     \\/     M anipulation  |
\*---------------------------------------------------------------------------*/
FoamFile
{
    version     2.0;
    format      ascii;
    class       surfaceScalarField;
    location    "0.01";
    object      ddtCorrDdt0(phi);
}
// * * * * * * * * * * * * * * * * * * * * * * * * * * * * * * * * * * * * * //

dimensions      [0 3 -2 0 0 0 0];

internalField   nonuniform List<scalar> 
139350
(
-1.51625e-09
1.51746e-09
-4.21547e-09
2.70253e-09
-7.87609e-09
3.66354e-09
-1.25163e-08
4.6433e-09
-1.83726e-08
5.85906e-09
-2.57627e-08
7.39335e-09
-3.49885e-08
9.22917e-09
-4.63961e-08
1.14125e-08
-6.03934e-08
1.40014e-08
-7.74455e-08
1.70586e-08
-9.80359e-08
2.05948e-08
-1.22563e-07
2.45334e-08
-1.51377e-07
2.88186e-08
-1.84843e-07
3.34708e-08
-2.23305e-07
3.84669e-08
-2.66871e-07
4.35696e-08
-3.14886e-07
4.80214e-08
-3.65141e-07
5.02573e-08
-4.13557e-07
4.84222e-08
-4.55459e-07
4.19038e-08
-4.87849e-07
3.23945e-08
-5.10963e-07
2.31148e-08
-5.27699e-07
1.67408e-08
-5.4167e-07
1.39724e-08
-5.55443e-07
1.37787e-08
-5.70094e-07
1.4651e-08
-5.85655e-07
1.55678e-08
-6.01888e-07
1.62321e-08
-6.18723e-07
1.68401e-08
-6.36493e-07
1.77699e-08
-6.55812e-07
1.9324e-08
-6.7739e-07
2.1578e-08
-7.01702e-07
2.43185e-08
-7.28977e-07
2.72717e-08
-7.59019e-07
3.00489e-08
-7.91657e-07
3.26317e-08
-8.26408e-07
3.47547e-08
-8.6344e-07
3.7027e-08
-9.0272e-07
3.92788e-08
-9.45114e-07
4.23901e-08
-9.91793e-07
4.66797e-08
-1.04222e-06
5.04191e-08
-1.09998e-06
5.7764e-08
-1.15898e-06
5.89827e-08
-1.22766e-06
6.86807e-08
-1.29186e-06
6.41718e-08
-1.36908e-06
7.72173e-08
-1.44207e-06
7.29825e-08
-1.50575e-06
6.36797e-08
-1.80984e-07
-1.32476e-06
-2.16925e-09
3.68817e-09
-7.64858e-09
8.18544e-09
-1.62218e-08
1.22399e-08
-2.77386e-08
1.61635e-08
-4.27825e-08
2.09059e-08
-6.23477e-08
2.69622e-08
-8.74293e-08
3.43145e-08
-1.19175e-07
4.31633e-08
-1.58999e-07
5.38304e-08
-2.08498e-07
6.65645e-08
-2.6932e-07
8.14219e-08
-3.4311e-07
9.83293e-08
-4.31566e-07
1.17281e-07
-5.36261e-07
1.38171e-07
-6.5793e-07
1.60141e-07
-7.95205e-07
1.80848e-07
-9.43011e-07
1.95834e-07
-1.0917e-06
1.98947e-07
-1.22864e-06
1.85374e-07
-1.34288e-06
1.56143e-07
-1.42996e-06
1.19477e-07
-1.49338e-06
8.65363e-08
-1.54154e-06
6.49071e-08
-1.583e-06
5.54302e-08
-1.62332e-06
5.41077e-08
-1.66482e-06
5.61549e-08
-1.70787e-06
5.86195e-08
-1.75237e-06
6.07307e-08
-1.7986e-06
6.30792e-08
-1.84747e-06
6.66422e-08
-1.90029e-06
7.21461e-08
-1.95837e-06
7.96577e-08
-2.02268e-06
8.86405e-08
-2.09377e-06
9.83493e-08
-2.17173e-06
1.08019e-07
-2.25669e-06
1.17585e-07
-2.34868e-06
1.26749e-07
-2.44858e-06
1.36921e-07
-2.55718e-06
1.47879e-07
-2.67662e-06
1.61823e-07
-2.80823e-06
1.78295e-07
-2.95323e-06
1.95411e-07
-3.11389e-06
2.18422e-07
-3.28434e-06
2.29414e-07
-3.47723e-06
2.61572e-07
-3.66293e-06
2.49852e-07
-3.88822e-06
3.02505e-07
-4.10008e-06
2.84825e-07
-4.31855e-06
2.8216e-07
-7.98263e-08
-4.41971e-06
-1.71245e-09
5.40228e-09
-7.50424e-09
1.39811e-08
-1.80213e-08
2.27603e-08
-3.3449e-08
3.15947e-08
-5.44453e-08
4.19054e-08
-8.24141e-08
5.49349e-08
-1.19016e-07
7.09209e-08
-1.66186e-07
9.0339e-08
-2.2632e-07
1.13969e-07
-3.02143e-07
1.42395e-07
-3.96513e-07
1.75797e-07
-5.12459e-07
2.14282e-07
-6.53273e-07
2.581e-07
-8.21983e-07
3.06886e-07
-1.01983e-06
3.57994e-07
-1.24379e-06
4.04817e-07
-1.48409e-06
4.36135e-07
-1.72381e-06
4.38671e-07
-1.94286e-06
4.04428e-07
-2.12542e-06
3.3871e-07
-2.26629e-06
2.60352e-07
-2.37153e-06
1.91778e-07
-2.45339e-06
1.46775e-07
-2.52384e-06
1.25878e-07
-2.59072e-06
1.20999e-07
-2.65768e-06
1.23108e-07
-2.72581e-06
1.26757e-07
-2.79549e-06
1.30413e-07
-2.86731e-06
1.349e-07
-2.94232e-06
1.4166e-07
-3.02197e-06
1.51796e-07
-3.1077e-06
1.65385e-07
-3.20084e-06
1.81797e-07
-3.30252e-06
2.00017e-07
-3.41378e-06
2.19289e-07
-3.53576e-06
2.39554e-07
-3.66978e-06
2.6078e-07
-3.81765e-06
2.84783e-07
-3.9812e-06
3.11429e-07
-4.1632e-06
3.43818e-07
-4.36473e-06
3.79819e-07
-4.58875e-06
4.19424e-07
-4.83482e-06
4.645e-07
-5.10063e-06
4.95196e-07
-5.3977e-06
5.58648e-07
-5.69629e-06
5.48421e-07
-6.04199e-06
6.48194e-07
-6.41111e-06
6.53936e-07
-6.75179e-06
6.22843e-07
6.07345e-07
-7.43896e-06
-1.14492e-09
6.54902e-09
-5.82132e-09
1.86615e-08
-1.55159e-08
3.24583e-08
-3.13003e-08
4.73828e-08
-5.42063e-08
6.48149e-08
-8.58641e-08
8.65966e-08
-1.28335e-07
1.13396e-07
-1.84099e-07
1.46109e-07
-2.56294e-07
1.86169e-07
-3.48596e-07
2.34704e-07
-4.64904e-07
2.9211e-07
-6.09362e-07
3.58748e-07
-7.86542e-07
4.35286e-07
-1.0008e-06
5.21148e-07
-1.25421e-06
6.11414e-07
-1.5432e-06
6.93808e-07
-1.85519e-06
7.48136e-07
-2.16849e-06
7.5197e-07
-2.45764e-06
6.93583e-07
-2.7028e-06
5.83873e-07
-2.89707e-06
4.54631e-07
-3.04691e-06
3.41623e-07
-3.16607e-06
2.65932e-07
-3.26817e-06
2.27988e-07
-3.36259e-06
2.15421e-07
-3.45421e-06
2.14732e-07
-3.54526e-06
2.17812e-07
-3.63699e-06
2.22142e-07
-3.73051e-06
2.28425e-07
-3.82695e-06
2.38099e-07
-3.9274e-06
2.52252e-07
-4.03282e-06
2.708e-07
-4.14425e-06
2.93244e-07
-4.26304e-06
3.18796e-07
-4.39118e-06
3.47444e-07
-4.53126e-06
3.79623e-07
-4.68655e-06
4.16069e-07
-4.86051e-06
4.58744e-07
-5.05659e-06
5.07505e-07
-5.27866e-06
5.65888e-07
-5.52759e-06
6.28741e-07
-5.80776e-06
6.99586e-07
-6.11633e-06
7.73073e-07
-6.45388e-06
8.32724e-07
-6.82684e-06
9.31613e-07
-7.2207e-06
9.42254e-07
-7.64391e-06
1.0714e-06
-8.15726e-06
1.16727e-06
-8.60448e-06
1.07007e-06
1.59171e-06
-9.58885e-06
-8.76687e-10
7.42764e-09
-4.2633e-09
2.20522e-08
-1.17506e-08
3.99493e-08
-2.50824e-08
6.07183e-08
-4.59134e-08
8.56494e-08
-7.62618e-08
1.16949e-07
-1.18507e-07
1.55646e-07
-1.75388e-07
2.02996e-07
-2.50381e-07
2.61167e-07
-3.47757e-07
3.32089e-07
-4.72182e-07
4.16541e-07
-6.28497e-07
5.1507e-07
-8.21881e-07
6.28676e-07
-1.0574e-06
7.56673e-07
-1.338e-06
8.92025e-07
-1.6608e-06
1.01661e-06
-2.01312e-06
1.10047e-06
-2.37199e-06
1.11084e-06
-2.7097e-06
1.0313e-06
-3.00382e-06
8.77996e-07
-3.24518e-06
6.95998e-07
-3.43862e-06
5.35058e-07
-3.5969e-06
4.24219e-07
-3.73323e-06
3.64325e-07
-3.85693e-06
3.39127e-07
-3.97328e-06
3.31083e-07
-4.08538e-06
3.29921e-07
-4.19579e-06
3.32542e-07
-4.30691e-06
3.39554e-07
-4.42069e-06
3.51877e-07
-4.53809e-06
3.69667e-07
-4.65906e-06
3.9176e-07
-4.78312e-06
4.17318e-07
-4.91032e-06
4.45995e-07
-5.04232e-06
4.79448e-07
-5.18249e-06
5.19783e-07
-5.33625e-06
5.69831e-07
-5.5098e-06
6.32295e-07
-5.70956e-06
7.07257e-07
-5.94217e-06
7.98498e-07
-6.20961e-06
8.96182e-07
-6.51791e-06
1.00787e-06
-6.86263e-06
1.11779e-06
-7.24661e-06
1.21669e-06
-7.66709e-06
1.35209e-06
-8.13083e-06
1.40597e-06
-8.60477e-06
1.54533e-06
-9.20246e-06
1.76495e-06
-9.78071e-06
1.64833e-06
2.56774e-06
-1.07567e-05
-8.58128e-10
8.28778e-09
-3.46633e-09
2.46647e-08
-8.85554e-09
4.53422e-08
-1.87498e-08
7.06165e-08
-3.5111e-08
1.02014e-07
-6.0302e-08
1.42145e-07
-9.70419e-08
1.9239e-07
-1.48232e-07
2.54193e-07
-2.17333e-07
3.30274e-07
-3.0877e-07
4.23534e-07
-4.27668e-07
5.35444e-07
-5.79258e-07
6.66669e-07
-7.68706e-07
8.18129e-07
-1.0009e-06
9.88873e-07
-1.27914e-06
1.17027e-06
-1.60191e-06
1.33938e-06
-1.95876e-06
1.45733e-06
-2.32887e-06
1.48095e-06
-2.68556e-06
1.388e-06
-3.00584e-06
1.19828e-06
-3.27862e-06
9.68785e-07
-3.50631e-06
7.62748e-07
-3.69939e-06
6.1731e-07
-3.86909e-06
5.3402e-07
-4.02287e-06
4.9292e-07
-4.16452e-06
4.72729e-07
-4.29645e-06
4.61862e-07
-4.42193e-06
4.58021e-07
-4.54539e-06
4.63015e-07
-4.67117e-06
4.77665e-07
-4.80183e-06
5.00328e-07
-4.93701e-06
5.26936e-07
-5.07402e-06
5.54336e-07
-5.20946e-06
5.81438e-07
-5.34175e-06
6.1174e-07
-5.4724e-06
6.50431e-07
-5.60737e-06
7.04798e-07
-5.75565e-06
7.80569e-07
-5.92803e-06
8.79641e-07
-6.1364e-06
1.00686e-06
-6.38702e-06
1.14681e-06
-6.68898e-06
1.30981e-06
-7.03902e-06
1.46783e-06
-7.44098e-06
1.61863e-06
-7.88489e-06
1.796e-06
-8.38827e-06
1.90932e-06
-8.90327e-06
2.06033e-06
-9.52942e-06
2.39109e-06
-1.02213e-05
2.34026e-06
3.45183e-06
-1.11054e-05
-9.19934e-10
9.20981e-09
-3.28175e-09
2.70309e-08
-7.41803e-09
4.94822e-08
-1.44961e-08
7.76986e-08
-2.62024e-08
1.13724e-07
-4.48203e-08
1.60767e-07
-7.31809e-08
2.20755e-07
-1.14233e-07
2.95252e-07
-1.7116e-07
3.87206e-07
-2.48073e-07
5.00456e-07
-3.50187e-07
6.37564e-07
-4.83001e-07
7.9949e-07
-6.5142e-07
9.86555e-07
-8.59443e-07
1.1969e-06
-1.10986e-06
1.42069e-06
-1.40245e-06
1.63198e-06
-1.73042e-06
1.78531e-06
-2.07784e-06
1.82837e-06
-2.4219e-06
1.73207e-06
-2.74081e-06
1.51718e-06
-3.02211e-06
1.25009e-06
-3.26582e-06
1.00646e-06
-3.48034e-06
8.31843e-07
-3.67516e-06
7.28841e-07
-3.85547e-06
6.7324e-07
-4.02176e-06
6.39012e-07
-4.17301e-06
6.13123e-07
-4.31067e-06
5.95684e-07
-4.44024e-06
5.92586e-07
-4.56975e-06
6.07172e-07
-4.70617e-06
6.3676e-07
-4.85196e-06
6.7272e-07
-5.00377e-06
7.06155e-07
-5.15393e-06
7.31599e-07
-5.29436e-06
7.52175e-07
-5.42016e-06
7.76221e-07
-5.53329e-06
8.17931e-07
-5.64271e-06
8.89988e-07
-5.76316e-06
1.00009e-06
-5.91339e-06
1.15708e-06
-6.10811e-06
1.34153e-06
-6.36253e-06
1.56423e-06
-6.67977e-06
1.78507e-06
-7.06443e-06
2.00326e-06
-7.50582e-06
2.23739e-06
-8.0188e-06
2.42227e-06
-8.5631e-06
2.60463e-06
-9.19325e-06
3.02123e-06
-9.94594e-06
3.09297e-06
4.25907e-06
-1.07532e-05
-9.68405e-10
1.01804e-08
-3.36709e-09
2.94341e-08
-7.04449e-09
5.31635e-08
-1.25294e-08
8.31875e-08
-2.08865e-08
1.22085e-07
-3.38333e-08
1.73718e-07
-5.38941e-08
2.40821e-07
-8.3805e-08
3.25169e-07
-1.26198e-07
4.29605e-07
-1.84359e-07
5.58626e-07
-2.63061e-07
7.16271e-07
-3.67917e-07
9.04354e-07
-5.0369e-07
1.12233e-06
-6.73259e-07
1.36648e-06
-8.78073e-07
1.62551e-06
-1.11849e-06
1.8724e-06
-1.3918e-06
2.05864e-06
-1.68883e-06
2.1254e-06
-1.99298e-06
2.03623e-06
-2.28501e-06
1.80921e-06
-2.55109e-06
1.51617e-06
-2.7884e-06
1.24377e-06
-3.00383e-06
1.04729e-06
-3.20701e-06
9.32015e-07
-3.40281e-06
8.69053e-07
-3.58876e-06
8.24962e-07
-3.7582e-06
7.8257e-07
-3.90678e-06
7.4426e-07
-4.03744e-06
7.23252e-07
-4.16077e-06
7.30504e-07
-4.29038e-06
7.66371e-07
-4.43603e-06
8.18367e-07
-4.59849e-06
8.68632e-07
-4.76847e-06
9.01568e-07
-4.93044e-06
9.14159e-07
-5.06875e-06
9.14519e-07
-5.17483e-06
9.24016e-07
-5.25117e-06
9.66325e-07
-5.31211e-06
1.06103e-06
-5.38193e-06
1.22689e-06
-5.48637e-06
1.44597e-06
-5.65075e-06
1.72859e-06
-5.89073e-06
2.02506e-06
-6.21505e-06
2.32756e-06
-6.61878e-06
2.64112e-06
-7.11008e-06
2.91355e-06
-7.66101e-06
3.15556e-06
-8.28516e-06
3.64536e-06
-9.051e-06
3.85882e-06
5.00299e-06
-9.79491e-06
-9.93515e-10
1.11761e-08
-3.48338e-09
3.19285e-08
-7.13971e-09
5.68237e-08
-1.20727e-08
8.81247e-08
-1.86831e-08
1.287e-07
-2.79561e-08
1.82996e-07
-4.1801e-08
2.5467e-07
-6.24891e-08
3.45865e-07
-9.18782e-08
4.59e-07
-1.31962e-07
5.98718e-07
-1.86414e-07
7.70729e-07
-2.60599e-07
9.78548e-07
-3.59311e-07
1.22105e-06
-4.84501e-07
1.49167e-06
-6.35778e-07
1.7768e-06
-8.12958e-07
2.04958e-06
-1.0168e-06
2.26249e-06
-1.24568e-06
2.35428e-06
-1.49109e-06
2.28164e-06
-1.73773e-06
2.05586e-06
-1.97017e-06
1.74862e-06
-2.18145e-06
1.45505e-06
-2.37636e-06
1.24221e-06
-2.56636e-06
1.12202e-06
-2.75961e-06
1.06231e-06
-2.95385e-06
1.0192e-06
-3.13718e-06
9.65909e-07
-3.29626e-06
9.03336e-07
-3.4262e-06
8.53203e-07
-3.53578e-06
8.40079e-07
-3.64435e-06
8.74951e-07
-3.77248e-06
9.46492e-07
-3.93135e-06
1.02752e-06
-4.11639e-06
1.0866e-06
-4.30812e-06
1.1059e-06
-4.47909e-06
1.08548e-06
-4.60468e-06
1.04961e-06
-4.67271e-06
1.03435e-06
-4.68896e-06
1.07728e-06
-4.67748e-06
1.2154e-06
-4.67349e-06
1.44198e-06
-4.7148e-06
1.76989e-06
-4.83471e-06
2.14497e-06
-5.05267e-06
2.5455e-06
-5.37497e-06
2.96342e-06
-5.80783e-06
3.34638e-06
-6.33295e-06
3.68068e-06
-6.93615e-06
4.24855e-06
-7.68233e-06
4.60501e-06
5.68942e-06
-8.36875e-06
-1.00952e-09
1.21879e-08
-3.57121e-09
3.44949e-08
-7.32759e-09
6.05841e-08
-1.22449e-08
9.30462e-08
-1.82841e-08
1.34743e-07
-2.57505e-08
1.90467e-07
-3.59304e-08
2.64855e-07
-5.06098e-08
3.60551e-07
-7.07955e-08
4.79192e-07
-9.69574e-08
6.24889e-07
-1.31154e-07
8.04932e-07
-1.78012e-07
1.02541e-06
-2.42367e-07
1.28541e-06
-3.25594e-07
1.57491e-06
-4.25331e-07
1.87654e-06
-5.39765e-07
2.16402e-06
-6.71652e-07
2.39438e-06
-8.26392e-07
2.50903e-06
-1.00452e-06
2.45978e-06
-1.19629e-06
2.24763e-06
-1.38507e-06
1.9374e-06
-1.55838e-06
1.62837e-06
-1.71713e-06
1.40096e-06
-1.87459e-06
1.27948e-06
-2.04515e-06
1.23288e-06
-2.23148e-06
1.20553e-06
-2.41987e-06
1.1543e-06
-2.58768e-06
1.07115e-06
-2.71789e-06
9.83419e-07
-2.81133e-06
9.3352e-07
-2.88873e-06
9.52362e-07
-2.9814e-06
1.03916e-06
-3.11571e-06
1.16183e-06
-3.29941e-06
1.27029e-06
-3.51635e-06
1.32285e-06
-3.73109e-06
1.30022e-06
-3.9016e-06
1.22011e-06
-3.99476e-06
1.12751e-06
-3.99856e-06
1.08108e-06
-3.92779e-06
1.14462e-06
-3.82065e-06
1.33485e-06
-3.72605e-06
1.67528e-06
-3.69663e-06
2.11554e-06
-3.76921e-06
2.61806e-06
-3.96635e-06
3.16056e-06
-4.30038e-06
3.68039e-06
-4.76176e-06
4.14205e-06
-5.31979e-06
4.80657e-06
-6.02011e-06
5.30535e-06
6.32056e-06
-6.65124e-06
-1.02698e-09
1.32172e-08
-3.63784e-09
3.71104e-08
-7.49329e-09
6.44436e-08
-1.2567e-08
9.81242e-08
-1.86012e-08
1.40781e-07
-2.54554e-08
1.97326e-07
-3.39651e-08
2.7337e-07
-4.55206e-08
3.72114e-07
-6.04982e-08
4.94175e-07
-7.79796e-08
6.42379e-07
-9.81997e-08
8.25158e-07
-1.24701e-07
1.05192e-06
-1.62241e-07
1.32296e-06
-2.119e-07
1.62457e-06
-2.69533e-07
1.93418e-06
-3.30971e-07
2.22546e-06
-3.99268e-07
2.46269e-06
-4.85171e-07
2.59493e-06
-5.97897e-07
2.57251e-06
-7.34284e-07
2.38401e-06
-8.77706e-07
2.08083e-06
-1.00989e-06
1.76055e-06
-1.126e-06
1.51708e-06
-1.23956e-06
1.39304e-06
-1.37196e-06
1.36528e-06
-1.53445e-06
1.36802e-06
-1.71626e-06
1.33613e-06
-1.88831e-06
1.24319e-06
-2.02017e-06
1.11529e-06
-2.09981e-06
1.01316e-06
-2.14332e-06
9.95874e-07
-2.18906e-06
1.0849e-06
-2.27944e-06
1.25222e-06
-2.44006e-06
1.43091e-06
-2.66597e-06
1.54877e-06
-2.92101e-06
1.55525e-06
-3.14937e-06
1.44847e-06
-3.29551e-06
1.27364e-06
-3.32332e-06
1.10889e-06
-3.2293e-06
1.05059e-06
-3.04538e-06
1.15093e-06
-2.82599e-06
1.45588e-06
-2.64044e-06
1.92999e-06
-2.54633e-06
2.52393e-06
-2.58641e-06
3.20064e-06
-2.78644e-06
3.8804e-06
-3.14789e-06
4.5035e-06
-3.6325e-06
5.29117e-06
-4.26341e-06
5.93627e-06
6.89505e-06
-4.83788e-06
-1.04751e-09
1.42671e-08
-3.69988e-09
3.97676e-08
-7.63e-09
6.83779e-08
-1.28763e-08
1.03375e-07
-1.90831e-08
1.46992e-07
-2.58474e-08
2.04095e-07
-3.37745e-08
2.81302e-07
-4.4145e-08
3.82492e-07
-5.69089e-08
5.06945e-07
-7.00303e-08
6.5551e-07
-8.22183e-08
8.37353e-07
-9.59112e-08
1.06563e-06
-1.15663e-07
1.34272e-06
-1.42408e-07
1.65132e-06
-1.70557e-07
1.96234e-06
-1.93454e-07
2.24836e-06
-2.13195e-07
2.48244e-06
-2.43743e-07
2.62548e-06
-3.01285e-07
2.63006e-06
-3.89157e-07
2.47189e-06
-4.92005e-07
2.18368e-06
-5.86816e-07
1.85537e-06
-6.6243e-07
1.5927e-06
-7.30666e-07
1.46127e-06
-8.18566e-07
1.45319e-06
-9.47046e-07
1.4965e-06
-1.11192e-06
1.50101e-06
-1.28184e-06
1.4131e-06
-1.41509e-06
1.24854e-06
-1.48511e-06
1.08319e-06
-1.4986e-06
1.00937e-06
-1.49569e-06
1.08198e-06
-1.53187e-06
1.28841e-06
-1.65175e-06
1.55078e-06
-1.86677e-06
1.7638e-06
-2.14734e-06
1.8358e-06
-2.43061e-06
1.73174e-06
-2.64222e-06
1.48525e-06
-2.72098e-06
1.18765e-06
-2.63969e-06
9.69289e-07
-2.41575e-06
9.26988e-07
-2.10134e-06
1.14146e-06
-1.77632e-06
1.60497e-06
-1.51779e-06
2.26538e-06
-1.38982e-06
3.07266e-06
-1.43611e-06
3.92666e-06
-1.67216e-06
4.73955e-06
-2.05983e-06
5.67883e-06
-2.60289e-06
6.47935e-06
7.40873e-06
-3.11656e-06
-1.06918e-09
1.53387e-08
-3.76483e-09
4.24681e-08
-7.75896e-09
7.23762e-08
-1.31567e-08
1.08777e-07
-1.95468e-08
1.53386e-07
-2.63784e-08
2.10931e-07
-3.41968e-08
2.89126e-07
-4.42978e-08
3.926e-07
-5.64434e-08
5.19097e-07
-6.78905e-08
6.66967e-07
-7.62867e-08
8.45756e-07
-8.32186e-08
1.07257e-06
-9.29975e-08
1.3525e-06
-1.0637e-07
1.6647e-06
-1.16718e-07
1.9727e-06
-1.15422e-07
2.24707e-06
-1.03154e-07
2.47018e-06
-9.52363e-08
2.61757e-06
-1.12373e-07
2.64721e-06
-1.63021e-07
2.52254e-06
-2.33769e-07
2.25444e-06
-2.98727e-07
1.92033e-06
-3.4145e-07
1.63543e-06
-3.7101e-07
1.49084e-06
-4.17697e-07
1.49989e-06
-5.10518e-07
1.58932e-06
-6.52885e-07
1.64339e-06
-8.14694e-07
1.57491e-06
-9.46971e-07
1.38083e-06
-1.01059e-06
1.1468e-06
-1.00128e-06
1.00007e-06
-9.56515e-07
1.03721e-06
-9.39898e-07
1.2718e-06
-1.01207e-06
1.62295e-06
-1.20157e-06
1.95331e-06
-1.48976e-06
2.12398e-06
-1.81352e-06
2.05551e-06
-2.0863e-06
1.75802e-06
-2.22596e-06
1.32731e-06
-2.18169e-06
9.25014e-07
-1.95202e-06
6.97316e-07
-1.58025e-06
7.69685e-07
-1.14925e-06
1.17397e-06
-7.50533e-07
1.86664e-06
-4.67131e-07
2.78926e-06
-3.61371e-07
3.82088e-06
-4.64316e-07
4.84249e-06
-7.43786e-07
5.95829e-06
-1.19005e-06
6.92563e-06
7.85895e-06
-1.64026e-06
-1.09005e-09
1.64312e-08
-3.83481e-09
4.52178e-08
-7.8947e-09
7.64404e-08
-1.34233e-08
1.1431e-07
-1.99629e-08
1.5993e-07
-2.68867e-08
2.1786e-07
-3.47661e-08
2.9701e-07
-4.49514e-08
4.02793e-07
-5.70898e-08
5.31242e-07
-6.80687e-08
6.77955e-07
-7.50117e-08
8.52706e-07
-7.90578e-08
1.07662e-06
-8.42208e-08
1.35767e-06
-9.09791e-08
1.67147e-06
-9.20369e-08
1.97376e-06
-7.75898e-08
2.23263e-06
-4.73197e-08
2.43992e-06
-1.67704e-08
2.58702e-06
-8.61171e-09
2.63906e-06
-3.42294e-08
2.54816e-06
-8.20847e-08
2.3023e-06
-1.25403e-07
1.96365e-06
-1.44661e-07
1.6547e-06
-1.46417e-07
1.49259e-06
-1.61897e-07
1.51538e-06
-2.24966e-07
1.65239e-06
-3.45054e-07
1.76348e-06
-4.94965e-07
1.72482e-06
-6.22689e-07
1.50856e-06
-6.80874e-07
1.20499e-06
-6.56096e-07
9.75303e-07
-5.8111e-07
9.62224e-07
-5.22672e-07
1.21337e-06
-5.51955e-07
1.65223e-06
-7.11215e-07
2.11258e-06
-9.93174e-07
2.40594e-06
-1.33891e-06
2.40125e-06
-1.65666e-06
2.07577e-06
-1.85068e-06
1.52132e-06
-1.8514e-06
9.25733e-07
-1.63915e-06
4.85068e-07
-1.24498e-06
3.75503e-07
-7.48354e-07
6.77337e-07
-2.48372e-07
1.36663e-06
1.58285e-07
2.38259e-06
3.93556e-07
3.58559e-06
4.11902e-07
4.82415e-06
2.36231e-07
6.13396e-06
-1.16436e-07
7.27831e-06
8.24857e-06
-5.06034e-07
-1.10888e-09
1.75425e-08
-3.90319e-09
4.80171e-08
-8.04383e-09
8.05853e-08
-1.36848e-08
1.19955e-07
-2.03349e-08
1.66584e-07
-2.7356e-08
2.24886e-07
-3.53768e-08
3.05036e-07
-4.57466e-08
4.1317e-07
-5.79771e-08
5.43479e-07
-6.88228e-08
6.8881e-07
-7.53523e-08
8.59242e-07
-7.85863e-08
1.07986e-06
-8.21831e-08
1.36128e-06
-8.61114e-08
1.6754e-06
-8.27088e-08
1.97037e-06
-6.20123e-08
2.21194e-06
-2.34975e-08
2.40141e-06
1.76285e-08
2.5459e-06
3.87173e-08
2.61798e-06
2.76984e-08
2.55918e-06
-5.06158e-09
2.33506e-06
-3.35712e-08
1.99216e-06
-3.78525e-08
1.65898e-06
-2.31418e-08
1.47788e-06
-1.99502e-08
1.51219e-06
-6.3336e-08
1.69577e-06
-1.65637e-07
1.86579e-06
-3.02396e-07
1.86158e-06
-4.21891e-07
1.62806e-06
-4.73675e-07
1.25677e-06
-4.39106e-07
9.4074e-07
-3.466e-07
8.69718e-07
-2.6238e-07
1.12916e-06
-2.62011e-07
1.65186e-06
-3.95689e-07
2.24626e-06
-6.64622e-07
2.67486e-06
-1.0156e-06
2.75223e-06
-1.35729e-06
2.41745e-06
-1.58826e-06
1.75229e-06
-1.62785e-06
9.65313e-07
-1.44278e-06
2.99997e-07
-1.05223e-06
-1.50563e-08
-5.28376e-07
1.53484e-07
2.85678e-08
8.0967e-07
5.15e-07
1.89616e-06
8.42489e-07
3.25808e-06
9.54543e-07
4.71209e-06
8.64216e-07
6.22428e-06
5.90588e-07
7.55196e-06
8.58693e-06
2.52248e-07
-1.12518e-09
1.86702e-08
-3.97459e-09
5.08715e-08
-8.20841e-09
8.48235e-08
-1.39415e-08
1.25693e-07
-2.06664e-08
1.73313e-07
-2.77995e-08
2.32025e-07
-3.603e-08
3.13272e-07
-4.66036e-08
4.23752e-07
-5.88384e-08
5.5572e-07
-6.95244e-08
6.99506e-07
-7.60227e-08
8.65747e-07
-7.94342e-08
1.08328e-06
-8.29134e-08
1.36476e-06
-8.57e-08
1.6782e-06
-8.00017e-08
1.96468e-06
-5.65602e-08
2.1885e-06
-1.5518e-08
2.36038e-06
2.83613e-08
2.50202e-06
5.39303e-08
2.59242e-06
5.02928e-08
2.56282e-06
2.73141e-08
2.35805e-06
8.98392e-09
2.01049e-06
1.34127e-08
1.65456e-06
3.52364e-08
1.45606e-06
4.5613e-08
1.50182e-06
1.14267e-08
1.72996e-06
-7.91705e-08
1.9564e-06
-2.03238e-07
1.98565e-06
-3.11509e-07
1.73633e-06
-3.55039e-07
1.3003e-06
-3.14492e-07
9.002e-07
-2.15753e-07
7.70977e-07
-1.22343e-07
1.03576e-06
-1.08839e-07
1.63835e-06
-2.2711e-07
2.36454e-06
-4.82352e-07
2.9301e-06
-8.26365e-07
3.09624e-06
-1.17179e-06
2.76288e-06
-1.41843e-06
1.99893e-06
-1.48255e-06
1.02942e-06
-1.32379e-06
1.41243e-07
-9.52635e-07
-3.86226e-07
-4.32747e-07
-3.66405e-07
1.39416e-07
2.37487e-07
6.5984e-07
1.37573e-06
1.03612e-06
2.88178e-06
1.20575e-06
4.54246e-06
1.1735e-06
6.25653e-06
9.57325e-07
7.76815e-06
8.88854e-06
6.55737e-07
-1.13931e-09
1.98121e-08
-4.05154e-09
5.37888e-08
-8.38699e-09
8.91634e-08
-1.4191e-08
1.31501e-07
-2.09618e-08
1.80088e-07
-2.82299e-08
2.39298e-07
-3.6731e-08
3.21779e-07
-4.75029e-08
4.34531e-07
-5.96228e-08
5.67847e-07
-7.00493e-08
7.09942e-07
-7.66591e-08
8.72364e-07
-8.06982e-08
1.08733e-06
-8.46322e-08
1.36871e-06
-8.68008e-08
1.68037e-06
-7.94932e-08
1.95738e-06
-5.47941e-08
2.16381e-06
-1.41364e-08
2.31973e-06
2.81873e-08
2.4597e-06
5.34154e-08
2.56719e-06
5.30027e-08
2.56324e-06
3.67903e-08
2.37427e-06
2.59494e-08
2.02133e-06
3.50765e-08
1.64544e-06
5.75045e-08
1.43363e-06
6.6546e-08
1.49279e-06
3.32738e-08
1.76323e-06
-5.0959e-08
2.04064e-06
-1.63397e-07
2.09809e-06
-2.58427e-07
1.83137e-06
-2.92016e-07
1.33389e-06
-2.48006e-07
8.56195e-07
-1.51855e-07
6.74826e-07
-6.33367e-08
9.47248e-07
-5.19889e-08
1.627e-06
-1.65988e-07
2.47854e-06
-4.10057e-07
3.17416e-06
-7.39352e-07
3.42554e-06
-1.07235e-06
3.09587e-06
-1.31507e-06
2.24164e-06
-1.3875e-06
1.10184e-06
-1.24871e-06
2.45381e-09
-9.04674e-07
-7.30272e-07
-4.11217e-07
-8.59863e-07
1.41992e-07
-3.15741e-07
6.55787e-07
8.61929e-07
1.0397e-06
2.49785e-06
1.23028e-06
4.35188e-06
1.2266e-06
6.2602e-06
1.04411e-06
7.95066e-06
9.16992e-06
7.62751e-07
-1.15232e-09
2.09671e-08
-4.13393e-09
5.67755e-08
-8.57534e-09
9.36092e-08
-1.44311e-08
1.37362e-07
-2.12298e-08
1.86891e-07
-2.86577e-08
2.46731e-07
-3.74703e-08
3.30597e-07
-4.84186e-08
4.45487e-07
-6.03285e-08
5.79763e-07
-7.04341e-08
7.20058e-07
-7.72396e-08
8.79177e-07
-8.21054e-08
1.09221e-06
-8.66521e-08
1.37326e-06
-8.82451e-08
1.68197e-06
-7.94449e-08
1.94858e-06
-5.40678e-08
2.13844e-06
-1.51359e-08
2.28081e-06
2.36068e-08
2.42096e-06
4.62508e-08
2.54456e-06
4.71436e-08
2.56234e-06
3.62562e-08
2.38516e-06
3.14501e-08
2.02614e-06
4.29032e-08
1.63399e-06
6.19938e-08
1.41455e-06
6.44761e-08
1.49032e-06
2.69307e-08
1.80078e-06
-5.44285e-08
2.122e-06
-1.56119e-07
2.19978e-06
-2.36831e-07
1.91209e-06
-2.59584e-07
1.35664e-06
-2.14009e-07
8.10626e-07
-1.26753e-07
5.87569e-07
-5.3376e-08
8.73877e-07
-5.57525e-08
1.62937e-06
-1.74583e-07
2.59738e-06
-4.10676e-07
3.41025e-06
-7.20825e-07
3.73568e-06
-1.03011e-06
3.40515e-06
-1.25392e-06
2.46545e-06
-1.3208e-06
1.16871e-06
-1.1943e-06
-1.24041e-07
-8.79939e-07
-1.04465e-06
-4.27363e-07
-1.31244e-06
8.18854e-08
-8.25008e-07
5.57184e-07
3.86627e-07
9.14895e-07
2.14012e-06
1.09507e-06
4.17171e-06
1.09382e-06
6.26145e-06
9.23589e-07
8.12092e-06
9.44631e-06
6.47218e-07
-1.16546e-09
2.21352e-08
-4.22074e-09
5.98358e-08
-8.76798e-09
9.81609e-08
-1.46616e-08
1.4326e-07
-2.1482e-08
1.93716e-07
-2.90904e-08
2.54345e-07
-3.82284e-08
3.3974e-07
-4.93185e-08
4.56585e-07
-6.09613e-08
5.91413e-07
-7.0742e-08
7.29848e-07
-7.78139e-08
8.86257e-07
-8.35729e-08
1.09797e-06
-8.87068e-08
1.3784e-06
-8.96412e-08
1.68291e-06
-7.93744e-08
1.93833e-06
-5.36212e-08
2.11269e-06
-1.70127e-08
2.24421e-06
1.73943e-08
2.38656e-06
3.67202e-08
2.52524e-06
3.82818e-08
2.56079e-06
3.20831e-08
2.39136e-06
3.24208e-08
2.02581e-06
4.47566e-08
1.62166e-06
5.83809e-08
1.40092e-06
5.17168e-08
1.49699e-06
7.45216e-09
1.84504e-06
-7.26424e-08
2.2021e-06
-1.64027e-07
2.29116e-06
-2.30097e-07
1.97816e-06
-2.42029e-07
1.36858e-06
-1.96596e-07
7.65197e-07
-1.22473e-07
5.13445e-07
-7.07256e-08
8.22137e-07
-9.4054e-08
1.65269e-06
-2.23473e-07
2.7268e-06
-4.5381e-07
3.64058e-06
-7.42359e-07
4.02423e-06
-1.02106e-06
3.68385e-06
-1.21635e-06
2.66073e-06
-1.26818e-06
1.22053e-06
-1.14792e-06
-2.44293e-07
-8.63542e-07
-1.32904e-06
-4.60186e-07
-1.7158e-06
-1.08586e-08
-1.27435e-06
4.04355e-07
-2.85907e-08
7.11685e-07
1.83277e-06
8.57915e-07
4.02548e-06
8.38662e-07
6.2807e-06
6.6369e-07
8.29591e-06
9.72973e-06
3.80298e-07
-1.1798e-09
2.33176e-08
-4.31036e-09
6.29715e-08
-8.96002e-09
1.02815e-07
-1.48838e-08
1.49188e-07
-2.17296e-08
2.00566e-07
-2.95309e-08
2.62151e-07
-3.89842e-08
3.49199e-07
-5.01757e-08
4.67785e-07
-6.15304e-08
6.02774e-07
-7.10246e-08
7.39352e-07
-7.84182e-08
8.93658e-07
-8.50536e-08
1.10462e-06
-9.06726e-08
1.38403e-06
-9.08755e-08
1.68312e-06
-7.92376e-08
1.9267e-06
-5.33759e-08
2.08683e-06
-1.93748e-08
2.21021e-06
1.05603e-08
2.35663e-06
2.65726e-08
2.50923e-06
2.87523e-08
2.55861e-06
2.69035e-08
2.39322e-06
3.1665e-08
2.02105e-06
4.38811e-08
1.60945e-06
5.09728e-08
1.39383e-06
3.42552e-08
1.51371e-06
-1.73307e-08
1.89663e-06
-9.64376e-08
2.28122e-06
-1.77605e-07
2.37233e-06
-2.29231e-07
2.02979e-06
-2.31069e-07
1.37042e-06
-1.87428e-07
7.21561e-07
-1.29168e-07
4.55184e-07
-1.02581e-07
7.95556e-07
-1.50462e-07
1.70057e-06
-2.93167e-07
2.86951e-06
-5.18667e-07
3.86607e-06
-7.84259e-07
4.28983e-06
-1.02884e-06
3.92842e-06
-1.19056e-06
2.82245e-06
-1.22216e-06
1.25212e-06
-1.10453e-06
-3.61915e-07
-8.49817e-07
-1.58377e-06
-4.99931e-07
-2.06569e-06
-1.19422e-07
-1.65488e-06
2.23004e-07
-3.7102e-07
4.65166e-07
1.5906e-06
5.62375e-07
3.92827e-06
5.11276e-07
6.3318e-06
3.19476e-07
8.48774e-06
1.00287e-05
2.04821e-08
-1.19588e-09
2.45162e-08
-4.40107e-09
6.61818e-08
-9.14831e-09
1.07567e-07
-1.51003e-08
1.55145e-07
-2.19796e-08
2.0745e-07
-2.99775e-08
2.70155e-07
-3.97205e-08
3.58948e-07
-5.09749e-08
4.79047e-07
-6.20464e-08
6.13853e-07
-7.13128e-08
7.48628e-07
-7.90634e-08
9.01416e-07
-8.65086e-08
1.11207e-06
-9.24859e-08
1.39001e-06
-9.1925e-08
1.68257e-06
-7.90837e-08
1.91386e-06
-5.33923e-08
2.06115e-06
-2.21537e-08
2.17898e-06
3.43317e-09
2.33105e-06
1.64283e-08
2.49625e-06
1.93768e-08
2.55566e-06
2.16071e-08
2.39099e-06
3.01028e-08
2.01255e-06
4.13937e-08
1.59817e-06
4.14276e-08
1.3938e-06
1.46315e-08
1.54052e-06
-4.3898e-08
1.95516e-06
-1.21589e-07
2.35892e-06
-1.92462e-07
2.4432e-06
-2.30172e-07
2.06751e-06
-2.23067e-07
1.36331e-06
-1.82799e-07
6.81299e-07
-1.42116e-07
4.145e-07
-1.42231e-07
7.95677e-07
-2.15783e-07
1.77412e-06
-3.72308e-07
3.02604e-06
-5.92857e-07
4.08661e-06
-8.34735e-07
4.5317e-06
-1.04386e-06
4.13754e-06
-1.17027e-06
2.94885e-06
-1.17977e-06
1.26161e-06
-1.06338e-06
-4.78307e-07
-8.38089e-07
-1.80907e-06
-5.4336e-07
-2.36042e-06
-2.35554e-07
-1.9627e-06
2.81048e-08
-6.34683e-07
1.97593e-07
1.4211e-06
2.37536e-07
3.88834e-06
1.46452e-07
6.42289e-06
-6.97965e-08
8.70401e-06
1.03488e-05
-3.89829e-07
-1.21382e-09
2.57327e-08
-4.49159e-09
6.94646e-08
-9.33156e-09
1.12411e-07
-1.5313e-08
1.61131e-07
-2.22345e-08
2.14376e-07
-3.04258e-08
2.78351e-07
-4.04259e-08
3.68954e-07
-5.17108e-08
4.9034e-07
-6.25174e-08
6.24667e-07
-7.16171e-08
7.57738e-07
-7.97427e-08
9.09549e-07
-8.79111e-08
1.12025e-06
-9.41232e-08
1.39623e-06
-9.27973e-08
1.68125e-06
-7.89516e-08
1.90002e-06
-5.37037e-08
2.0359e-06
-2.53272e-08
2.15062e-06
-3.88023e-09
2.3096e-06
6.46838e-09
2.4859e-06
1.03724e-08
2.55176e-06
1.64139e-08
2.38495e-06
2.79724e-08
2.001e-06
3.76405e-08
1.5885e-06
3.03454e-08
1.4011e-06
-6.17102e-09
1.57704e-06
-7.08657e-08
2.01985e-06
-1.46452e-07
2.43451e-06
-2.06942e-07
2.50369e-06
-2.31463e-07
2.09203e-06
-2.16756e-07
1.3486e-06
-1.81327e-07
6.45874e-07
-1.59285e-07
3.92457e-07
-1.86455e-07
8.22852e-07
-2.85344e-07
1.873e-06
-4.54964e-07
3.19566e-06
-6.69857e-07
4.3015e-06
-8.87633e-07
4.74948e-06
-1.06133e-06
4.31123e-06
-1.15268e-06
3.0402e-06
-1.14036e-06
1.24929e-06
-1.02533e-06
-5.93341e-07
-8.2945e-07
-2.00496e-06
-5.90083e-07
-2.59979e-06
-3.5568e-07
-2.19712e-06
-1.72302e-07
-8.18065e-07
-7.80194e-08
1.3268e-06
-9.88404e-08
3.90916e-06
-2.34031e-07
6.55809e-06
-4.79094e-07
8.94909e-06
1.06929e-05
-8.23154e-07
-1.23347e-09
2.69689e-08
-4.58125e-09
7.28174e-08
-9.50976e-09
1.17344e-07
-1.55231e-08
1.67149e-07
-2.24934e-08
2.21351e-07
-3.08708e-08
2.86734e-07
-4.10947e-08
3.79183e-07
-5.23844e-08
5.01638e-07
-6.29472e-08
6.35237e-07
-7.19338e-08
7.66734e-07
-8.04424e-08
9.18066e-07
-8.92479e-08
1.12906e-06
-9.55866e-08
1.40258e-06
-9.35101e-08
1.67918e-06
-7.88571e-08
1.88538e-06
-5.43034e-08
2.01135e-06
-2.88623e-08
2.12518e-06
-1.13371e-08
2.29208e-06
-3.27577e-09
2.47785e-06
1.75189e-09
2.54673e-06
1.13341e-08
2.37538e-06
2.53179e-08
1.98702e-06
3.27473e-08
1.58108e-06
1.79764e-08
1.41587e-06
-2.77625e-08
1.62278e-06
-9.77362e-08
2.08983e-06
-1.70503e-07
2.50728e-06
-2.20593e-07
2.55378e-06
-2.32769e-07
2.10421e-06
-2.11859e-07
1.32769e-06
-1.82601e-07
6.16621e-07
-1.79856e-07
3.89711e-07
-2.33775e-07
8.76777e-07
-3.56913e-07
1.99614e-06
-5.38291e-07
3.37704e-06
-7.46576e-07
4.50978e-06
-9.40115e-07
4.94302e-06
-1.07916e-06
4.45027e-06
-1.13683e-06
3.09787e-06
-1.10413e-06
1.21657e-06
-9.91428e-07
-7.06041e-07
-8.25083e-07
-2.17132e-06
-6.40435e-07
-2.78444e-06
-4.78279e-07
-2.35929e-06
-3.74079e-07
-9.22268e-07
-3.54543e-07
1.30726e-06
-4.36719e-07
3.99135e-06
-6.17617e-07
6.73899e-06
-8.93794e-07
9.2253e-06
1.10623e-05
-1.26321e-06
-1.25462e-09
2.82263e-08
-4.66986e-09
7.62376e-08
-9.68337e-09
1.22362e-07
-1.57307e-08
1.732e-07
-2.27543e-08
2.28379e-07
-3.13085e-08
2.95293e-07
-4.17269e-08
3.89607e-07
-5.29985e-08
5.12918e-07
-6.33351e-08
6.4558e-07
-7.22528e-08
7.75662e-07
-8.1148e-08
9.26969e-07
-9.05149e-08
1.13844e-06
-9.6889e-08
1.40896e-06
-9.40821e-08
1.67638e-06
-7.88028e-08
1.87011e-06
-5.51671e-08
1.98772e-06
-3.27201e-08
2.10274e-06
-1.89108e-08
2.27827e-06
-1.28111e-08
2.47176e-06
-6.52296e-09
2.54045e-06
6.32661e-09
2.36253e-06
2.21359e-08
1.97121e-06
2.6781e-08
1.57644e-06
4.46425e-09
1.43819e-06
-4.99485e-08
1.6772e-06
-1.24318e-07
2.1642e-06
-1.93612e-07
2.57658e-06
-2.33381e-07
2.59355e-06
-2.34141e-07
2.10498e-06
-2.08434e-07
1.30199e-06
-1.86552e-07
5.94744e-07
-2.0349e-07
4.06647e-07
-2.83489e-07
9.56781e-07
-4.29426e-07
2.14207e-06
-6.20973e-07
3.56859e-06