/*--------------------------------*- C++ -*----------------------------------*\
  =========                 |
  \\      /  F ield         | OpenFOAM: The Open Source CFD Toolbox
   \\    /   O peration     | Website:  https://openfoam.org
    \\  /    A nd           | Version:  7
     \\/     M anipulation  |
\*---------------------------------------------------------------------------*/
FoamFile
{
    version     2.0;
    format      ascii;
    class       volScalarField;
    location    "0.01";
    object      nut;
}
// * * * * * * * * * * * * * * * * * * * * * * * * * * * * * * * * * * * * * //

dimensions      [0 2 -1 0 0 0 0];

internalField   nonuniform List<scalar> 
70000
(
9.96308e-12
6.88135e-14
2.56497e-16
8.66837e-17
4.71928e-17
7.70419e-17
2.63828e-17
1.18288e-17
7.60341e-18
5.16376e-18
3.42051e-18
2.22303e-18
1.41727e-18
8.79183e-19
5.26868e-19
3.03301e-19
1.64183e-19
7.90656e-20
3.17134e-20
1.06204e-20
3.55678e-21
1.68254e-21
1.30955e-21
1.29133e-21
1.23457e-21
1.05165e-21
8.43589e-22
6.81766e-22
5.89945e-22
5.77476e-22
5.91207e-22
7.20135e-22
7.42067e-22
1.20962e-21
1.02711e-21
3.15489e-21
1.64856e-21
1.37725e-20
3.19315e-21
7.59452e-20
1.02758e-20
3.07324e-19
1.52779e-19
2.79742e-19
9.09101e-18
2.57516e-18
7.9386e-16
2.77935e-15
8.05006e-14
1.07299e-11
1.04282e-10
5.98698e-12
6.44629e-14
2.14487e-14
2.9142e-16
1.74774e-17
2.60103e-17
2.21138e-17
1.30924e-17
7.94635e-18
5.30249e-18
3.74316e-18
2.70334e-18
1.94941e-18
1.36487e-18
8.989e-19
5.47185e-19
3.1099e-19
1.67854e-19
8.54403e-20
4.01136e-20
1.74977e-20
7.59152e-21
3.70614e-21
2.2143e-21
1.60211e-21
1.27665e-21
1.04622e-21
8.63102e-22
6.9238e-22
6.09063e-22
4.89197e-22
6.14411e-22
4.8123e-22
1.35185e-21
8.92986e-22
5.99484e-21
3.13163e-21
3.40482e-20
1.61193e-20
1.66424e-19
8.5451e-20
4.47055e-19
1.19888e-18
4.99221e-18
1.27789e-16
1.20464e-15
1.83645e-14
2.07306e-13
5.65665e-12
3.19221e-10
3.39712e-12
1.90995e-13
1.9957e-14
7.85456e-16
6.35369e-17
9.09063e-18
5.70462e-18
3.48357e-18
2.24837e-18
1.70797e-18
1.49526e-18
1.43708e-18
1.45382e-18
1.48616e-18
1.46804e-18
1.33436e-18
1.05446e-18
6.80997e-19
3.42491e-19
1.32725e-19
4.17883e-20
1.23607e-20
4.34806e-21
2.17825e-21
1.47986e-21
1.10921e-21
7.99258e-22
5.3602e-22
3.2801e-22
2.25758e-22
1.44989e-22
2.5522e-22
3.32575e-22
1.73249e-21
3.14739e-21
1.64351e-20
2.73446e-20
1.26429e-19
1.84912e-19
7.90397e-19
1.01135e-18
4.34723e-18
6.21299e-18
4.48098e-17
2.03982e-16
2.65787e-15
2.58322e-14
3.00164e-13
4.60613e-12
6.15386e-09
1.92714e-11
7.84645e-13
6.13527e-14
5.62449e-15
9.91188e-16
1.32976e-16
4.26368e-17
2.26627e-17
1.40994e-17
1.02609e-17
8.84743e-18
8.68554e-18
9.2156e-18
1.00377e-17
1.06079e-17
1.01974e-17
8.32583e-18
5.43025e-18
2.72293e-18
1.05273e-18
3.36049e-19
1.04006e-19
3.90979e-20
2.03814e-20
1.35047e-20
9.48773e-21
6.23549e-21
3.62202e-21
1.7593e-21
6.6783e-22
1.26211e-22
1.19462e-23
1.17241e-22
1.93424e-21
8.90027e-21
4.18795e-20
1.10005e-19
4.15749e-19
8.05669e-19
3.13984e-18
4.59614e-18
2.21959e-17
2.59473e-17
2.03054e-16
3.89842e-16
4.96789e-15
3.06556e-14
3.12964e-13
4.81586e-12
2.32424e-09
2.23304e-10
4.45891e-12
3.23266e-13
2.36307e-14
4.70018e-15
8.50915e-16
2.80816e-16
1.42885e-16
8.63293e-17
6.076e-17
5.03815e-17
4.77778e-17
4.94622e-17
5.31248e-17
5.58592e-17
5.38132e-17
4.4374e-17
2.95826e-17
1.54588e-17
6.40776e-18
2.27059e-18
7.99109e-19
3.3437e-19
1.81252e-19
1.18665e-19
8.25497e-20
5.56897e-20
3.48693e-20
1.94638e-20
9.16199e-21
2.9166e-21
3.32511e-22
1.30445e-23
2.69273e-21
2.09808e-20
1.04773e-19
3.12265e-19
1.15563e-18
2.3787e-18
9.48469e-18
1.42188e-17
7.37365e-17
8.43616e-17
6.50591e-16
9.58723e-16
1.00673e-14
4.40594e-14
3.26937e-13
5.16872e-12
3.01546e-09
5.28781e-09
4.36377e-11
1.95531e-12
1.109e-13
1.9253e-14
3.80298e-15
1.28347e-15
6.39548e-16
3.7932e-16
2.61045e-16
2.10324e-16
1.93726e-16
1.95726e-16
2.06693e-16
2.15574e-16
2.08035e-16
1.73879e-16
1.1933e-16
6.55439e-17
2.93224e-17
1.15203e-17
4.54085e-18
2.06677e-18
1.14959e-18
7.40233e-19
5.04203e-19
3.40917e-19
2.22087e-19
1.34946e-19
7.28365e-20
2.97904e-20
6.43647e-21
3.99356e-23
3.40277e-21
4.86535e-20
2.67615e-19
8.44987e-19
2.98688e-18
6.29359e-18
2.43234e-17
3.79359e-17
1.94026e-16
2.3782e-16
1.68316e-15
2.42618e-15
1.9961e-14
6.96299e-14
3.46954e-13
5.46748e-12
1.07685e-09
4.76401e-09
3.73074e-09
1.86119e-11
6.89736e-13
9.82284e-14
1.77753e-14
5.56887e-15
2.60452e-15
1.47946e-15
9.81755e-16
7.62685e-16
6.77984e-16
6.63462e-16
6.82822e-16
7.00125e-16
6.71714e-16
5.65875e-16
3.97976e-16
2.28551e-16
1.09398e-16
4.69792e-17
2.03752e-17
9.98312e-18
5.72505e-18
3.66026e-18
2.43552e-18
1.61785e-18
1.06125e-18
6.76287e-19
4.02586e-19
1.95844e-19
5.9851e-20
3.39714e-21
3.12616e-21
1.16354e-19
7.53106e-19
2.48215e-18
8.26981e-18
1.72541e-17
6.11989e-17
9.86464e-17
4.64902e-16
6.2951e-16
3.89169e-15
6.01742e-15
3.86503e-14
1.20555e-13
4.05633e-13
5.96908e-12
2.42727e-09
3.8683e-09
8.22525e-10
2.44217e-09
8.86785e-12
7.651e-13
1.06056e-13
2.77774e-14
1.15017e-14
6.00067e-15
3.72642e-15
2.7351e-15
2.31209e-15
2.16359e-15
2.14254e-15
2.13156e-15
2.00704e-15
1.68315e-15
1.19792e-15
7.08954e-16
3.56452e-16
1.63518e-16
7.63021e-17
3.98162e-17
2.37165e-17
1.53027e-17
1.003e-17
6.47118e-18
4.14158e-18
2.6576e-18
1.68499e-18
9.44277e-19
3.77282e-19
5.11795e-20
8.11364e-22
2.55871e-19
2.20345e-18
7.9285e-18
2.55624e-17
5.25819e-17
1.65912e-16
2.71236e-16
1.11815e-15
1.65672e-15
8.68168e-15
1.47916e-14
7.53516e-14
2.30295e-13
5.59817e-13
6.95308e-12
3.36877e-09
4.36885e-09
5.90886e-10
3.00912e-10
5.51836e-10
2.00217e-11
1.12638e-12
1.96491e-13
6.46548e-14
2.90171e-14
1.61151e-14
1.08215e-14
8.49782e-15
7.46515e-15
6.9978e-15
6.6499e-15
6.05104e-15
4.97539e-15
3.52792e-15
2.11394e-15
1.09221e-15
5.21042e-16
2.54544e-16
1.39048e-16
8.60867e-17
5.68822e-17
3.72792e-17
2.33534e-17
1.4206e-17
8.74465e-18
5.60981e-18
3.48338e-18
1.74523e-18
4.14024e-19
1.35825e-21
4.40359e-19
6.08194e-18
2.58268e-17
8.53317e-17
1.78202e-16
5.03344e-16
8.26007e-16
2.88568e-15
4.5585e-15
1.98416e-14
3.7026e-14
1.52825e-13
4.75716e-13
9.42099e-13
8.85568e-12
3.41018e-09
4.60594e-09
6.72235e-10
1.94088e-10
4.82058e-11
7.06599e-11
3.91478e-10
3.88994e-12
6.4731e-13
2.07299e-13
9.29591e-14
5.35798e-14
3.74451e-14
2.99407e-14
2.59262e-14
2.30407e-14
1.98755e-14
1.57408e-14
1.09327e-14
6.5159e-15
3.38757e-15
1.63716e-15
8.13363e-16
4.54359e-16
2.89895e-16
1.97639e-16
1.31531e-16
8.07097e-17
4.59366e-17
2.57839e-17
1.5583e-17
1.00852e-17
6.06117e-18
2.18783e-18
9.42468e-20
5.06446e-19
1.49504e-17
8.12019e-17
2.9314e-16
6.48305e-16
1.70046e-15
2.81762e-15
8.31863e-15
1.36366e-14
4.88663e-14
9.71753e-14
3.33166e-13
1.04465e-12
1.89504e-12
1.2543e-11
3.21091e-09
4.38941e-09
7.73181e-10
2.02624e-10
3.74055e-11
2.30917e-11
1.53228e-11
2.63779e-11
3.45531e-10
5.1324e-12
1.09515e-12
4.33443e-13
2.39073e-13
1.61584e-13
1.22863e-13
9.82888e-14
7.79359e-14
5.79349e-14
3.85511e-14
2.2395e-14
1.14696e-14
5.4754e-15
2.68576e-15
1.49201e-15
9.64936e-16
6.78422e-16
4.6382e-16
2.82362e-16
1.49597e-16
7.30138e-17
3.7884e-17
2.32593e-17
1.58534e-17
8.06398e-18
1.07396e-18
3.0757e-19
3.26909e-17
2.43836e-16
1.0146e-15
2.4646e-15
6.28401e-15
1.0673e-14
2.7271e-14
4.54854e-14
1.35136e-13
2.76082e-13
8.05525e-13
2.45138e-12
4.35672e-12
2.00581e-11
3.01643e-09
3.97069e-09
8.45614e-10
2.13485e-10
3.97098e-11
2.13242e-11
9.86732e-12
6.01962e-12
6.46947e-12
1.24623e-11
1.0923e-10
3.12037e-11
4.60625e-12
1.80367e-12
9.96245e-13
6.40138e-13
4.32017e-13
2.85059e-13
1.74201e-13
9.53881e-14
4.67407e-14
2.1395e-14
1.00217e-14
5.35259e-15
3.42363e-15
2.46119e-15
1.7382e-15
1.062e-15
5.24398e-16
2.13132e-16
8.38883e-17
4.16469e-17
2.95844e-17
2.05591e-17
5.62914e-18
4.82909e-20
6.7144e-17
7.25042e-16
3.60303e-15
9.84118e-15
2.53316e-14
4.47512e-14
1.02644e-13
1.7231e-13
4.33699e-13
8.7758e-13
2.2224e-12
6.26787e-12
1.10895e-11
3.66937e-11
2.84499e-09
3.51032e-09
9.07034e-10
2.1087e-10
4.32745e-11
2.29604e-11
1.03372e-11
5.14774e-12
3.87806e-12
3.75767e-12
4.46904e-12
7.05479e-12
1.74193e-11
1.18151e-10
1.48353e-10
1.81227e-11
6.28156e-12
2.84125e-12
1.36531e-12
6.3642e-13
2.77485e-13
1.14882e-13
4.86748e-14
2.37324e-14
1.44172e-14
1.03816e-14
7.5491e-15
4.65256e-15
2.13972e-15
6.90673e-16
1.70094e-16
4.7382e-17
2.83817e-17
2.8502e-17
1.47142e-17
1.24946e-23
1.5092e-16
2.33496e-15
1.39719e-14
4.32307e-14
1.14878e-13
2.12808e-13
4.53613e-13
7.61999e-13
1.67072e-12
3.2382e-12
7.19245e-12
1.79202e-11
3.09403e-11
7.70666e-11
2.67493e-09
3.05439e-09
9.75764e-10
1.99657e-10
4.64781e-11
2.45325e-11
1.17521e-11
5.55504e-12
3.81226e-12
3.20897e-12
3.0302e-12
3.26915e-12
4.08833e-12
5.83785e-12
9.3711e-12
1.72464e-11
4.05062e-11
1.61122e-10
9.71861e-11
2.15454e-11
5.05868e-12
1.41829e-12
4.45155e-13
1.69866e-13
8.79673e-14
6.00582e-14
4.41534e-14
2.72408e-14
1.14233e-14
2.65119e-15
2.49827e-16
4.28479e-18
3.30183e-20
6.37792e-19
2.8191e-18
5.52847e-19
5.8694e-16
1.00078e-14
6.81228e-14
2.34146e-13
6.42775e-13
1.24376e-12
2.5186e-12
4.19381e-12
8.16502e-12
1.4591e-11
2.81426e-11
5.86648e-11
9.41331e-11
1.8243e-10
2.49641e-09
2.61907e-09
1.0553e-09
1.855e-10
4.98115e-11
2.55201e-11
1.33269e-11
6.2371e-12
4.16921e-12
3.39621e-12
3.02049e-12
2.95629e-12
3.2174e-12
3.78437e-12
4.60689e-12
5.61885e-12
6.76721e-12
8.00418e-12
9.22008e-12
1.02462e-11
1.11519e-11
1.30575e-11
2.12829e-11
7.35501e-11
1.56683e-10
1.56642e-12
7.6879e-15
9.68554e-14
5.03666e-14
3.30294e-15
3.85085e-16
1.10587e-14
2.15271e-14
1.64426e-14
7.62533e-15
5.103e-15
1.70845e-14
1.12599e-13
6.39245e-13
2.17725e-12
5.83575e-12
1.13147e-11
2.1354e-11
3.36562e-11
5.64184e-11
8.59751e-11
1.35395e-10
2.17876e-10
3.00226e-10
4.54546e-10
2.31002e-09
2.21838e-09
1.14031e-09
1.71026e-10
5.37499e-11
2.6062e-11
1.49519e-11
7.00495e-12
4.63159e-12
3.76351e-12
3.31126e-12
3.15346e-12
3.28978e-12
3.64734e-12
4.09427e-12
4.489e-12
4.73477e-12
4.76978e-12
4.51065e-12
3.87786e-12
2.9419e-12
1.98206e-12
1.29125e-12
9.71894e-13
9.88759e-13
1.28052e-12
1.66174e-12
1.73924e-12
1.31557e-12
7.52548e-13
5.22778e-13
1.16112e-12
6.75584e-12
3.47979e-11
1.0213e-10
1.77118e-10
2.07846e-10
1.93564e-10
1.76658e-10
1.92396e-10
2.44412e-10
3.05848e-10
3.84308e-10
4.44216e-10
5.21483e-10
5.76366e-10
6.56889e-10
7.55778e-10
8.38045e-10
9.97868e-10
2.11804e-09
1.85857e-09
1.22349e-09
1.57274e-10
5.83365e-11
2.62914e-11
1.66565e-11
7.85592e-12
5.14028e-12
4.19074e-12
3.70021e-12
3.50607e-12
3.61467e-12
3.93107e-12
4.28235e-12
4.50493e-12
4.52405e-12
4.32854e-12
3.8859e-12
3.15702e-12
2.23021e-12
1.35877e-12
7.67255e-13
4.827e-13
4.11695e-13
4.6254e-13
5.27291e-13
4.64336e-13
2.57067e-13
7.33079e-14
9.04228e-15
1.43752e-15
7.71821e-15
8.23254e-14
3.36412e-13
5.39251e-13
2.50204e-13
5.54351e-16
6.54104e-13
8.73682e-12
3.60681e-11
6.04849e-11
2.68391e-11
6.96729e-15
7.27481e-11
3.9565e-10
8.09681e-10
1.09637e-09
1.25332e-09
1.40648e-09
1.92214e-09
1.54008e-09
1.29823e-09
1.45009e-10
6.33227e-11
2.62772e-11
1.84449e-11
8.82089e-12
5.70065e-12
4.65918e-12
4.14223e-12
3.93041e-12
4.04139e-12
4.36599e-12
4.69501e-12
4.84634e-12
4.76652e-12
4.48107e-12
3.97304e-12
3.19248e-12
2.21572e-12
1.30437e-12
6.95491e-13
4.08062e-13
3.31334e-13
3.67699e-13
4.19285e-13
3.61488e-13
1.83606e-13
3.95524e-14
1.44452e-15
1.6483e-18
2.10883e-17
9.218e-15
7.80364e-14
1.58638e-13
7.00712e-14
1.68341e-17
5.18237e-13
5.95783e-12
2.55687e-11
5.90951e-11
8.43499e-11
7.28959e-11
2.19359e-11
3.03339e-13
1.59042e-11
1.84306e-10
5.36357e-10
9.78016e-10
1.72453e-09
1.26277e-09
1.35886e-09
1.35117e-10
6.83012e-11
2.60873e-11
2.02786e-11
9.92541e-12
6.32674e-12
5.17396e-12
4.63504e-12
4.41284e-12
4.53508e-12
4.88144e-12
5.20769e-12
5.31597e-12
5.17602e-12
4.84417e-12
4.30326e-12
3.47258e-12
2.40865e-12
1.39977e-12
7.25523e-13
4.12073e-13
3.31166e-13
3.74096e-13
4.35371e-13
3.74624e-13
1.80291e-13
3.13411e-14
2.40016e-16
5.81471e-16
1.67959e-16
2.08515e-15
4.59389e-14
1.20862e-13
6.03542e-14
1.83001e-17
5.03799e-13
6.05983e-12
2.67829e-11
6.63359e-11
1.09589e-10
1.31817e-10
1.04511e-10
6.05612e-11
1.18834e-11
2.01547e-14
3.62e-11
3.35176e-10
1.52799e-09
1.02632e-09
1.4005e-09
1.28537e-10
7.27474e-11
2.58211e-11
2.20911e-11
1.11884e-11
7.03055e-12
5.74202e-12
5.18464e-12
4.95834e-12
5.09499e-12
5.46486e-12
5.78948e-12
5.85926e-12
5.67136e-12
5.31072e-12
4.75038e-12
3.86715e-12
2.69411e-12
1.5575e-12
7.95061e-13
4.45513e-13
3.61112e-13
4.19327e-13
4.98681e-13
4.28089e-13
1.96156e-13
2.78575e-14
8.15728e-18
3.03816e-15
1.63884e-15
5.38166e-16
3.8889e-14
1.26315e-13
7.08749e-14
6.00682e-18
5.75156e-13
7.34929e-12
3.34e-11
8.60687e-11
1.50418e-10
2.00792e-10
2.02865e-10
1.80226e-10
1.19236e-10
4.053e-11
4.07495e-13
6.54511e-11
1.33546e-09
8.2956e-10
1.4191e-09
1.26158e-10
7.60607e-11
2.56086e-11
2.37988e-11
1.26245e-11
7.82336e-12
6.3691e-12
5.79656e-12
5.57463e-12
5.72853e-12
6.12024e-12
6.43846e-12
6.4666e-12
6.23417e-12
5.85321e-12
5.27901e-12
4.3369e-12
3.03563e-12
1.74983e-12
8.85639e-13
4.95343e-13
4.09317e-13
4.89603e-13
5.92011e-13
5.03844e-13
2.1894e-13
2.51478e-14
1.01052e-17
8.51436e-15
5.19588e-15
1.23481e-16
3.93288e-14
1.48686e-13
8.98247e-14
3.17476e-18
7.26733e-13
9.67957e-12
4.49363e-11
1.19097e-10
2.15397e-10
3.03151e-10
3.42559e-10
3.56603e-10
3.31834e-10
2.24634e-10
4.96136e-11
7.63361e-12
1.14992e-09
6.7019e-10
1.4118e-09
1.28758e-10
7.76779e-11
2.55935e-11
2.53102e-11
1.42427e-11
8.71734e-12
7.06067e-12
6.47507e-12
6.26888e-12
6.44401e-12
6.85478e-12
7.15983e-12
7.14117e-12
6.86569e-12
6.47048e-12
5.88464e-12
4.87365e-12
3.42318e-12
1.96829e-12
9.91946e-13
5.58465e-13
4.73651e-13
5.8262e-13
7.10951e-13
5.94926e-13
2.43265e-13
2.20375e-14
2.85473e-16
1.83036e-14
1.12348e-14
2.08609e-17
4.39641e-14
1.82506e-13
1.13187e-13
8.42103e-18
9.84894e-13
1.32913e-11
6.2486e-11
1.68989e-10
3.13638e-10
4.57293e-10
5.54726e-10
6.30937e-10
6.91303e-10
6.03871e-10
2.17616e-10
4.50221e-13
9.74278e-10
5.44872e-10
1.37718e-09
1.36995e-10
7.72147e-11
2.59085e-11
2.65383e-11
1.60423e-11
9.72585e-12
7.82257e-12
7.22356e-12
7.04741e-12
7.24943e-12
7.67571e-12
7.95952e-12
7.88868e-12
7.57224e-12
7.16921e-12
6.57276e-12
5.47972e-12
3.85609e-12
2.21161e-12
1.11375e-12
6.35734e-13
5.55977e-13
7.00743e-13
8.558e-13
6.97959e-13
2.65991e-13
1.8272e-14
1.46328e-15
3.37092e-14
1.97746e-14
2.36939e-18
5.24466e-14
2.26364e-13
1.37627e-13
6.70599e-17
1.4059e-12
1.86824e-11
8.81426e-11
2.41548e-10
4.57646e-10
6.85655e-10
8.77305e-10
1.06289e-09
1.28424e-09
1.27223e-09
5.1717e-10
2.00717e-14
8.11231e-10
4.4945e-10
1.31561e-09
1.51368e-10
7.45364e-11
2.66513e-11
2.74138e-11
1.80087e-11
1.08631e-11
8.66101e-12
8.04461e-12
7.91557e-12
8.15226e-12
8.58957e-12
8.8428e-12
8.71473e-12
8.36113e-12
7.95821e-12
7.35155e-12
6.16016e-12
4.33618e-12
2.4808e-12
1.25284e-12
7.29912e-13
6.60395e-13
8.48917e-13
1.02895e-12
8.10786e-13
2.84909e-13
1.40213e-14
4.48332e-15
5.58371e-14
3.03209e-14
4.26282e-19
6.56239e-14
2.80111e-13
1.59676e-13
5.03867e-16
2.08804e-12
2.6662e-11
1.25149e-10
3.45211e-10
6.64253e-10
1.01667e-09
1.35674e-09
1.72552e-09
2.20904e-09
2.31302e-09
9.23213e-10
2.52028e-14
6.63091e-10
3.79258e-10
1.22932e-09
1.72087e-10
6.97926e-11
2.7868e-11
2.78978e-11
2.01074e-11
1.21436e-11
9.58248e-12
8.94006e-12
8.8773e-12
9.15899e-12
9.60194e-12
9.81387e-12
9.62427e-12
9.23976e-12
8.84681e-12
8.22968e-12
6.9201e-12
4.86534e-12
2.77738e-12
1.41186e-12
8.4498e-13
7.92704e-13
1.03387e-12
1.23364e-12
9.31293e-13
2.98211e-13
9.67311e-15
1.06267e-14
8.53688e-14
4.18068e-14
1.02381e-18
8.52238e-14
3.4398e-13
1.75734e-13
2.75375e-15
3.1961e-12
3.84849e-11
1.78288e-10
4.91655e-10
9.54918e-10
1.48343e-09
2.04084e-09
2.68004e-09
3.49092e-09
3.63663e-09
1.32328e-09
4.01602e-13
5.3158e-10
3.29451e-10
1.1223e-09
1.98851e-10
6.34472e-11
2.95287e-11
2.79933e-11
2.22793e-11
1.35801e-11
1.05935e-11
9.91086e-12
9.93461e-12
1.02745e-11
1.0717e-11
1.08756e-11
1.06213e-11
1.02152e-11
9.84443e-12
9.21553e-12
7.76377e-12
5.44467e-12
3.10274e-12
1.59401e-12
9.86028e-13
9.60394e-13
1.26388e-12
1.47321e-12
1.0568e-12
3.04329e-13
5.71429e-15
2.15252e-14
1.22308e-13
5.26407e-14
1.15748e-17
1.13928e-13
4.18035e-13
1.8233e-13
1.15142e-14
5.00383e-12
5.60681e-11
2.54445e-10
6.96256e-10
1.35411e-09
2.1166e-09
2.95629e-09
3.91125e-09
4.94393e-09
4.87573e-09
1.51666e-09
3.86084e-12
4.17707e-10
2.95243e-10
1.00014e-09
2.30573e-10
5.62578e-11
3.1498e-11
2.77515e-11
2.44403e-11
1.51816e-11
1.17002e-11
1.09571e-11
1.10869e-11
1.15013e-11
1.19368e-11
1.20289e-11
1.17087e-11
1.1294e-11
1.09601e-11
1.03166e-11
8.69404e-12
6.07408e-12
3.45797e-12
1.80297e-12
1.15938e-12
1.17286e-12
1.54863e-12
1.75067e-12
1.18377e-12
3.01968e-13
2.62302e-15
3.91287e-14
1.65712e-13
6.0881e-14
1.03191e-16
1.55624e-13
5.01761e-13
1.7662e-13
3.94906e-14
7.96515e-12
8.23292e-11
3.63275e-10
9.77802e-10
1.88408e-09
2.92759e-09
4.06796e-09
5.25169e-09
6.17439e-09
5.64097e-09
1.3299e-09
1.84232e-11
3.21689e-10
2.72096e-10
8.70196e-10
2.65031e-10
4.92114e-11
3.35261e-11
2.72667e-11
2.6485e-11
1.69496e-11
1.29079e-11
1.2078e-11
1.23307e-11
1.28384e-11
1.32607e-11
1.32729e-11
1.28877e-11
1.24816e-11
1.22019e-11
1.15391e-11
9.71179e-12
6.75205e-12
3.84375e-12
2.0429e-12
1.37281e-12
1.44172e-12
1.89926e-12
2.06822e-12
1.30768e-12
2.90244e-13
7.32212e-16
6.5614e-14
2.13452e-13
6.45599e-14
5.97088e-16
2.1578e-13
5.93746e-13
1.5717e-13
1.1703e-13
1.2832e-11
1.21702e-10
5.17898e-10
1.35629e-09
2.55409e-09
3.88345e-09
5.24302e-09
6.40528e-09
6.87566e-09
5.84807e-09
7.96892e-10
5.49206e-11
2.4286e-10
2.56055e-10
7.41192e-10
2.98745e-10
4.33493e-11
3.52887e-11
2.66627e-11
2.8296e-11
1.88737e-11
1.42206e-11
1.32716e-11
1.36591e-11
1.42807e-11
1.46846e-11
1.46035e-11
1.41572e-11
1.37818e-11
1.35764e-11
1.28869e-11
1.08154e-11
7.47526e-12
4.26019e-12
2.31853e-12
1.63582e-12
1.78115e-12
2.3282e-12
2.42685e-12
1.42301e-12
2.68867e-13
4.33717e-17
1.0322e-13
2.6206e-13
6.21697e-14
2.51317e-15
3.01936e-13
6.91389e-13
1.24982e-13
3.10824e-13
2.08532e-11
1.80877e-10
7.35168e-10
1.8475e-09
3.34501e-09
4.88903e-09
6.27516e-09
7.1285e-09
7.04809e-09
5.61529e-09
2.59373e-10
1.1922e-10
1.79824e-10
2.43881e-10
6.20433e-10
3.27604e-10
3.94713e-11
3.64368e-11
2.6071e-11
2.9757e-11
2.09252e-11
1.56398e-11
1.45347e-11
1.50615e-11
1.58179e-11
1.61999e-11
1.60136e-11
1.55139e-11
1.51966e-11
1.50882e-11
1.43612e-11
1.20003e-11
8.23829e-12
4.7067e-12
2.63511e-12
1.95989e-12
2.20819e-12
2.84896e-12
2.8259e-12
1.52338e-12
2.38333e-13
2.05554e-17
1.54002e-13
3.06743e-13
5.32568e-14
8.45089e-15
4.2431e-13
7.90688e-13
8.44397e-14
7.59207e-13
3.41084e-11
2.69837e-10
1.03464e-09
2.453e-09
4.19655e-09
5.80379e-09
6.98777e-09
7.38344e-09
6.86949e-09
4.98539e-09
2.68874e-11
2.08248e-10
1.30755e-10
2.32787e-10
5.11711e-10
3.47978e-10
3.79906e-11
3.66518e-11
2.56027e-11
3.07739e-11
2.30517e-11
1.71628e-11
1.58621e-11
1.6524e-11
1.74337e-11
1.77928e-11
1.74923e-11
1.69514e-11
1.67249e-11
1.67389e-11
1.59595e-11
1.3258e-11
9.03333e-12
5.18179e-12
2.99838e-12
2.35874e-12
2.74299e-12
3.47574e-12
3.26251e-12
1.60177e-12
2.00086e-13
9.32494e-16
2.19502e-13
3.41681e-13
3.90031e-14
2.4132e-14
5.96509e-13
8.86184e-13
4.36346e-14
1.73776e-12
5.60682e-11
4.03106e-10
1.4349e-09
3.1483e-09
5.01163e-09
6.49669e-09
7.32536e-09
7.29021e-09
6.49768e-09
3.74233e-09
4.4802e-14
3.1307e-10
9.35513e-11
2.20567e-10
4.16574e-10
3.57512e-10
3.90362e-11
3.57592e-11
2.53192e-11
3.12943e-11
2.51754e-11
1.87811e-11
1.72463e-11
1.80294e-11
1.91058e-11
1.94437e-11
1.90243e-11
1.846e-11
1.8363e-11
1.85264e-11
1.76751e-11
1.45762e-11
9.84999e-12
5.68294e-12
3.41458e-12
2.84861e-12
3.40897e-12
4.22296e-12
3.73127e-12
1.65091e-12
1.56637e-13
5.45896e-15
3.0036e-13
3.60684e-13
2.25278e-14
6.08974e-14
8.36336e-13
9.71139e-13
1.3065e-14
3.78078e-12
9.25273e-11
6.00778e-10
1.94546e-09
3.87674e-09
5.68826e-09
6.90372e-09
7.3453e-09
6.99247e-09
5.99928e-09
1.7404e-09
1.71304e-11
4.24073e-10
6.60111e-11
2.05959e-10
3.35616e-10
3.55339e-10
4.25651e-11
3.38252e-11
2.52155e-11
3.13168e-11
2.71957e-11
2.04777e-11
1.8677e-11
1.95581e-11
2.0806e-11
2.1127e-11
2.05899e-11
2.00265e-11
2.01036e-11
2.0445e-11
1.94968e-11
1.59384e-11
1.06753e-11
6.20647e-12
3.89034e-12
3.44843e-12
4.23285e-12
5.10454e-12
4.22384e-12
1.66378e-12
1.11554e-13
1.81511e-14
3.95902e-13
3.5826e-13
8.44301e-15
1.3949e-13
1.16681e-12
1.0378e-12
5.91078e-16
7.90691e-12
1.53111e-10
8.88186e-10
2.55481e-09
4.55829e-09
6.15914e-09
7.04082e-09
7.14908e-09
6.58651e-09
5.32354e-09
2.97106e-10
8.63252e-11
5.34108e-10
4.60574e-11
1.88598e-10
2.68591e-10
3.41979e-10
4.83339e-11
3.11348e-11
2.522e-11
3.08896e-11
2.89961e-11
2.22242e-11
2.01404e-11
2.10886e-11
2.25013e-11
2.2811e-11
2.21653e-11
2.16346e-11
2.1936e-11
2.24846e-11
2.14083e-11
1.73238e-11
1.14937e-11
6.74751e-12
4.43266e-12
4.18001e-12
5.24449e-12
6.13322e-12
4.72876e-12
1.63441e-12
6.92609e-14
4.59485e-14
5.03747e-13
3.31086e-13
1.00568e-15
2.95467e-13
1.61735e-12
1.07801e-12
1.29823e-15
1.60388e-11
2.53578e-10
1.2914e-09
3.22075e-09
5.11651e-09
6.40969e-09
6.96949e-09
6.82599e-09
6.11493e-09
4.16793e-09
6.48644e-12
1.94343e-10
6.38847e-10
3.18683e-11
1.68835e-10
2.14443e-10
3.19114e-10
5.58025e-11
2.80994e-11
2.52075e-11
3.00986e-11
3.04568e-11
2.39768e-11
2.16181e-11
2.25974e-11
2.41552e-11
2.44584e-11
2.37218e-11
2.32644e-11
2.38458e-11
2.46307e-11
2.33883e-11
1.87077e-11
1.22874e-11
7.29989e-12
5.04874e-12
5.06808e-12
6.4766e-12
7.31967e-12
5.23152e-12
1.55863e-12
3.45085e-14
9.89249e-14
6.19501e-13
2.7962e-13
2.8276e-17
5.86573e-13
2.2251e-12
1.08435e-12
4.31723e-14
3.17801e-11
4.18831e-10
1.82542e-09
3.87306e-09
5.50622e-09
6.46843e-09
6.7578e-09
6.43292e-09
5.57316e-09
2.08254e-09
3.6247e-12
3.17167e-10
7.36059e-10
2.19325e-11
1.47557e-10
1.71527e-10
2.89232e-10
6.41047e-11
2.51602e-11
2.50233e-11
2.90479e-11
3.14708e-11
2.56744e-11
2.30868e-11
2.40599e-11
2.57289e-11
2.60277e-11
2.52269e-11
2.48926e-11
2.58155e-11
2.68643e-11
2.54108e-11
2.00616e-11
1.30367e-11
7.8562e-12
5.74594e-12
6.14036e-12
7.96425e-12
8.67182e-12
5.71475e-12
1.43511e-12
1.13266e-14
1.91217e-13
7.36701e-13
2.09464e-13
6.91343e-15
1.1023e-12
3.03658e-12
1.0512e-12
2.75367e-13
6.18674e-11
6.8508e-10
2.47505e-09
4.43628e-09
5.72148e-09
6.38258e-09
6.46018e-09
5.9976e-09
4.87605e-09
3.67734e-10
5.59539e-11
4.39074e-10
8.2494e-10
1.50501e-11
1.25998e-10
1.37906e-10
2.55163e-10
7.21295e-11
2.27033e-11
2.45277e-11
2.78368e-11
3.19614e-11
2.72386e-11
2.45165e-11
2.54498e-11
2.71836e-11
2.74741e-11
2.66444e-11
2.64931e-11
2.7824e-11
2.91626e-11
2.74458e-11
2.13546e-11
1.37204e-11
8.4078e-12
6.53155e-12
7.42731e-12
9.7442e-12
1.01941e-11
6.15883e-12
1.26636e-12
1.19208e-15
3.42194e-13
8.4697e-13
1.31897e-13
5.58384e-14
1.97536e-12
4.1101e-12
9.75958e-13
1.06041e-12
1.18799e-10
1.09633e-09
3.17954e-09
4.85854e-09
5.78601e-09
6.19789e-09
6.11217e-09
5.525e-09
3.73736e-09
9.40599e-12
1.58419e-10
5.52455e-10
9.05575e-10
1.03149e-11
1.05292e-10
1.11647e-10
2.19728e-10
7.87031e-11
2.09867e-11
2.36408e-11
2.65402e-11
3.18941e-11
2.85782e-11
2.58705e-11
2.67395e-11
2.84818e-11
2.87525e-11
2.79357e-11
2.80371e-11
2.98478e-11
3.14992e-11
2.94597e-11
2.25536e-11
1.43165e-11
8.94508e-12
7.4128e-12
8.96207e-12
1.18542e-11
1.1887e-11
6.54262e-12
1.05959e-12
3.26541e-17
5.77931e-13
9.40413e-13
6.24455e-14
2.24054e-13
3.39488e-12
5.51812e-12
8.60415e-13
3.19354e-12
2.25262e-10
1.68488e-09
3.84419e-09
5.12524e-09
5.73571e-09
5.94966e-09
5.73323e-09
4.99397e-09
1.86616e-09
2.61657e-12
2.7935e-10
6.54432e-10
9.78225e-10
7.07397e-12
8.61469e-11
9.10066e-11
1.85349e-10
8.28556e-11
2.00921e-11
2.23615e-11
2.51954e-11
3.12796e-11
2.95963e-11
2.71037e-11
2.78993e-11
2.95889e-11
2.9819e-11
2.9061e-11
2.94937e-11
3.18609e-11
3.38451e-11
3.14164e-11
2.36248e-11
1.48031e-11
9.45747e-12
8.39665e-12
1.07802e-11
1.43322e-11
1.37469e-11
6.84457e-12
8.27376e-13
7.0262e-15
9.33172e-13
1.00658e-12
1.64889e-14
6.52331e-13
5.61979e-12
7.35102e-12
7.11755e-13
8.33367e-12
4.20257e-10
2.42995e-09
4.38215e-09
5.25295e-09
5.60453e-09
5.66157e-09
5.3308e-09
4.33078e-09
3.72775e-10
4.96178e-11
3.98567e-10
7.44485e-10
1.04342e-09
4.86098e-12
6.9016e-11
7.45228e-11
1.53621e-10
8.40295e-11
1.99371e-11
2.07634e-11
2.37993e-11
3.01682e-11
3.02022e-11
2.81616e-11
2.88976e-11
3.0473e-11
3.0633e-11
2.99802e-11
3.08304e-11
3.38356e-11
3.61693e-11
3.32783e-11
2.45341e-11
1.51587e-11
9.93374e-12
9.48979e-12
1.29192e-11
1.72157e-11
1.57658e-11
7.04375e-12
5.87841e-13
5.2793e-14
1.45361e-12
1.03552e-12
5.14854e-16
1.57159e-12
8.99024e-12
9.72099e-12
5.42561e-13
1.98424e-11
7.62281e-10
3.22478e-09
4.75327e-09
5.2725e-09
5.41843e-09
5.34762e-09
4.90161e-09
3.36505e-09
1.50145e-11
1.4487e-10
5.0723e-10
8.23246e-10
1.10179e-09
3.34721e-12
5.42248e-11
6.10743e-11
1.2535e-10
8.21323e-11
2.03222e-11
1.89749e-11
2.23229e-11
2.86374e-11
3.03235e-11
2.89824e-11
2.96999e-11
3.11059e-11
3.11595e-11
3.06549e-11
3.20131e-11
3.57423e-11
3.84396e-11
3.50079e-11
2.52485e-11
1.53628e-11
1.03619e-11
1.06985e-11
1.54187e-11
2.05413e-11
1.79319e-11
7.121e-12
3.63612e-13
2.00899e-13
2.1993e-12
1.01925e-12
2.11725e-15
3.33117e-12
1.39353e-11
1.27678e-11
3.70424e-13
4.4404e-11
1.31236e-09
3.9163e-09
4.9679e-09
5.21451e-09
5.19497e-09
5.01494e-09
4.43081e-09
1.95791e-09
7.6415e-13
2.57514e-10
6.02437e-10
8.91739e-10
1.15389e-09
2.30855e-12
4.1879e-11
4.98702e-11
1.00845e-10
7.74863e-11
2.09709e-11
1.71381e-11
2.07324e-11
2.67758e-11
2.99165e-11
2.94995e-11
3.02692e-11
3.14619e-11
3.13699e-11
3.10504e-11
3.30075e-11
3.75498e-11
4.06227e-11
3.65676e-11
2.57377e-11
1.53977e-11
1.07298e-11
1.20282e-11
1.83191e-11
2.43438e-11
2.02307e-11
7.06128e-12
1.79629e-13
5.64539e-13
3.24908e-12
9.53905e-13
5.17315e-14
6.4219e-12
2.09685e-11
1.66642e-11
2.15679e-13
9.50168e-11
2.07008e-09
4.40469e-09
5.06255e-09
5.10263e-09
4.94555e-09
4.66699e-09
3.88838e-09
6.27629e-10
3.3437e-11
3.67627e-10
6.83955e-10
9.5081e-10
1.20021e-09
1.59355e-12
3.18705e-11
4.03928e-11
8.00784e-11
7.06997e-11
2.15729e-11
1.53703e-11
1.90068e-11
2.46687e-11
2.89721e-11
2.96473e-11
3.05666e-11
3.15184e-11
3.12427e-11
3.11372e-11
3.37808e-11
3.92269e-11
4.2685e-11
3.79206e-11
2.59734e-11
1.52479e-11
1.10256e-11
1.34846e-11
2.1662e-11
2.86551e-11
2.26428e-11
6.85327e-12
5.74824e-14
1.33606e-12
4.70456e-12
8.40367e-13
2.79154e-13
1.14871e-11
3.06684e-11
2.16196e-11
9.70815e-14
1.95987e-10
2.89733e-09
4.68954e-09
5.07587e-09
4.95276e-09
4.67783e-09
4.30523e-09
3.22665e-09
7.75808e-11
1.12925e-10
4.66156e-10
7.5265e-10
1.0014e-09
1.24084e-09
1.09983e-12
2.39529e-11
3.23229e-11
6.27901e-11
6.2505e-11
2.18372e-11
1.37405e-11
1.71483e-11
2.23884e-11
2.75166e-11
2.93688e-11
3.05521e-11
3.12554e-11
3.07637e-11
3.08918e-11
3.43011e-11
4.07422e-11
4.45953e-11
3.90339e-11
2.59314e-11
1.4901e-11
1.12366e-11
1.50722e-11
2.5491e-11
3.35079e-11
2.51501e-11
6.4927e-12
5.3614e-15
2.83438e-12
6.70086e-12
6.86983e-13
9.17116e-13
1.93099e-11
4.36407e-11
2.78889e-11
2.65532e-14
3.88726e-10
3.57833e-09
4.82796e-09
5.03706e-09
4.7746e-09
4.39779e-09
3.93063e-09
2.40051e-09
4.64069e-13
2.13224e-10
5.49931e-10
8.09512e-10
1.04444e-09
1.27646e-09
7.58107e-13
1.78143e-11
2.5469e-11
4.8594e-11
5.36239e-11
2.1544e-11
1.22654e-11
1.5184e-11
1.99927e-11
2.56065e-11
2.86229e-11
3.01867e-11
3.06559e-11
2.99269e-11
3.02991e-11
3.45394e-11
4.2063e-11
4.63209e-11
3.98772e-11
2.55947e-11
1.4351e-11
1.13513e-11
1.67937e-11
2.98457e-11
3.89282e-11
2.77319e-11
5.98397e-12
3.87563e-16
5.57447e-12
9.41088e-12
5.09129e-13
2.33111e-12
3.0753e-11
6.04354e-11
3.57605e-11
1.64739e-15
7.2942e-10
4.00405e-09
4.88029e-09
4.96349e-09
4.57358e-09
4.11221e-09
3.54603e-09
1.45083e-09
6.17889e-12
3.13304e-10
6.18572e-10
8.55752e-10
1.08043e-09
1.30712e-09
5.21308e-13
1.31327e-11
1.97072e-11
3.70623e-11
4.4682e-11
2.05796e-11
1.09187e-11
1.31621e-11
1.75275e-11
2.33208e-11
2.73928e-11
2.94357e-11
2.97057e-11
2.87326e-11
2.93533e-11
3.44729e-11
4.3159e-11
4.78304e-11
4.04208e-11
2.49495e-11
1.35969e-11
1.13607e-11
1.86547e-11
3.47693e-11
4.49397e-11
3.0364e-11
5.3377e-12
4.78507e-14
1.03818e-11
1.30568e-11
3.28088e-13
5.04663e-12
4.6669e-11
8.14586e-11
4.55509e-11
6.8283e-16
1.25453e-09
4.21673e-09
4.88767e-09
4.86293e-09
4.35353e-09
3.82908e-09
3.15518e-09
6.12158e-10
5.12496e-11
4.0213e-10
6.72877e-10
8.92435e-10
1.10977e-09
1.33303e-09
3.5724e-13
9.61029e-12
1.494e-11
2.77842e-11
3.61601e-11
1.89479e-11
9.6482e-12
1.11397e-11
1.50346e-11
2.0751e-11
2.56893e-11
2.82739e-11
2.83959e-11
2.71881e-11
2.80558e-11
3.40832e-11
4.40028e-11
4.90962e-11
4.06415e-11
2.39889e-11
1.26426e-11
1.12543e-11
2.06578e-11
4.0304e-11
5.15685e-11
3.30291e-11
4.57756e-12
3.46115e-13
1.85668e-11
1.79343e-11
1.70274e-13
9.75129e-12
6.77405e-11
1.0685e-10
5.7583e-11
2.69162e-14
1.90468e-09
4.30725e-09
4.87188e-09
4.73641e-09
4.11838e-09
3.55817e-09
2.7596e-09
1.4412e-10
1.30668e-10
4.75291e-10
7.14244e-10
9.20615e-10
1.13297e-09
1.35405e-09
2.43742e-13
6.98846e-12
1.10766e-11
2.03956e-11
2.8384e-11
1.6755e-11
8.39762e-12
9.17049e-12
1.25569e-11
1.79936e-11
2.35518e-11
2.66899e-11
2.67246e-11
2.53088e-11
2.64182e-11
3.33578e-11
4.45673e-11
5.00909e-11
4.05195e-11
2.27161e-11
1.15026e-11
1.10261e-11
2.28056e-11
4.64856e-11
5.88276e-11
3.57033e-11
3.73663e-12
1.32269e-12
3.21635e-11
2.43931e-11
5.90699e-14
1.72762e-11
9.43007e-11
1.36354e-10
7.2119e-11
1.41873e-13
2.5094e-09
4.34352e-09
4.84195e-09
4.58194e-09
3.87501e-09
3.30971e-09
2.35938e-09
9.75919e-12
2.21558e-10
5.31965e-10
7.44085e-10
9.41045e-10
1.15077e-09
1.37085e-09
1.65473e-13
5.05253e-12
8.02178e-12
1.45874e-11
2.15475e-11
1.41781e-11
7.12713e-12
7.30149e-12
1.01441e-11
1.51461e-11
2.10477e-11
2.46916e-11
2.46991e-11
2.31185e-11
2.4462e-11
3.2294e-11
4.48316e-11
5.07886e-11
4.00356e-11
2.11394e-11
1.0199e-11
1.06731e-11
2.51077e-11
5.33597e-11
6.67353e-11
3.83634e-11
2.8575e-12
3.79813e-12
5.43708e-11
3.2897e-11
7.15702e-15
2.85403e-11
1.26201e-10
1.69291e-10
8.93406e-11
4.1023e-13
2.92837e-09
4.36055e-09
4.79885e-09
4.3981e-09
3.63516e-09
3.09413e-09
1.95009e-09
1.25892e-13
3.06766e-10
5.73075e-10
7.6365e-10
9.54539e-10
1.16328e-09
1.38367e-09
1.11734e-13
3.63222e-12
5.66826e-12
1.01002e-11
1.57445e-11
1.14279e-11
5.8277e-12
5.57322e-12
7.85457e-12
1.2305e-11
1.82671e-11
2.23113e-11
2.23412e-11
2.06514e-11
2.22171e-11
3.08952e-11
4.47803e-11