/*--------------------------------*- C++ -*----------------------------------*\
  =========                 |
  \\      /  F ield         | OpenFOAM: The Open Source CFD Toolbox
   \\    /   O peration     | Website:  https://openfoam.org
    \\  /    A nd           | Version:  7
     \\/     M anipulation  |
\*---------------------------------------------------------------------------*/
FoamFile
{
    version     2.0;
    format      ascii;
    class       volScalarField;
    location    "0.01";
    object      p;
}
// * * * * * * * * * * * * * * * * * * * * * * * * * * * * * * * * * * * * * //

dimensions      [0 2 -2 0 0 0 0];

internalField   nonuniform List<scalar> 
70000
(
0.182857
0.10541
0.0929036
0.0953697
0.0955671
0.0945442
0.0936458
0.0929845
0.0924513
0.0920013
0.091625
0.0913201
0.0910867
0.0909278
0.0908504
0.0908647
0.0909814
0.0912073
0.0915387
0.0919589
0.0924414
0.0929598
0.093496
0.0940439
0.0946059
0.0951885
0.0957986
0.0964418
0.0971227
0.0978462
0.0986179
0.0994444
0.100334
0.101294
0.102336
0.103468
0.104703
0.10605
0.107533
0.109161
0.110975
0.112985
0.115254
0.117805
0.120687
0.124031
0.127689
0.132338
0.136564
0.144791
0.178489
0.105777
0.0931066
0.0954652
0.0956216
0.0945801
0.0936736
0.0930072
0.0924702
0.0920171
0.0916384
0.0913315
0.0910963
0.0909358
0.0908571
0.09087
0.0909856
0.0912105
0.0915411
0.0919606
0.0924428
0.0929609
0.093497
0.0940447
0.0946066
0.0951891
0.0957991
0.0964422
0.0971231
0.0978465
0.0986181
0.0994446
0.100334
0.101294
0.102336
0.103468
0.104703
0.10605
0.107534
0.109161
0.110976
0.112986
0.115255
0.117807
0.120689
0.124037
0.127694
0.132349
0.136582
0.144763
0.174909
0.106716
0.0934469
0.0955943
0.0956958
0.0946248
0.0937058
0.0930332
0.0924916
0.0920349
0.0916534
0.0913443
0.0911072
0.090945
0.0908646
0.0908762
0.0909904
0.0912141
0.0915438
0.0919627
0.0924443
0.0929622
0.093498
0.0940456
0.0946072
0.0951896
0.0957995
0.0964424
0.0971232
0.0978465
0.0986179
0.0994442
0.100333
0.101294
0.102335
0.103467
0.104702
0.106049
0.107532
0.109159
0.110973
0.112984
0.115252
0.117804
0.120685
0.124033
0.127687
0.132345
0.136588
0.144578
0.171814
0.107818
0.0939165
0.0957685
0.0957969
0.0946826
0.0937443
0.0930634
0.0925165
0.0920556
0.0916708
0.0913592
0.0911199
0.0909559
0.0908739
0.0908838
0.0909966
0.0912189
0.0915475
0.0919654
0.0924465
0.0929638
0.0934993
0.0940465
0.0946079
0.09519
0.0957996
0.0964423
0.0971229
0.0978459
0.0986171
0.0994431
0.100332
0.101292
0.102333
0.103464
0.104699
0.106045
0.107527
0.109154
0.110967
0.112976
0.115242
0.117792
0.120669
0.124015
0.127661
0.132312
0.136571
0.144224
0.168855
0.108914
0.0944824
0.0959893
0.095932
0.0947612
0.0937943
0.0931017
0.0925478
0.0920817
0.091693
0.0913783
0.0911368
0.0909707
0.0908869
0.090895
0.0910061
0.0912267
0.0915537
0.0919702
0.09245
0.0929664
0.0935012
0.0940478
0.0946088
0.0951905
0.0957998
0.0964422
0.0971224
0.0978451
0.0986158
0.0994413
0.10033
0.101289
0.10233
0.10346
0.104693
0.106039
0.107519
0.109145
0.110955
0.112961
0.115223
0.117769
0.120638
0.123978
0.12761
0.132237
0.136512
0.143718
0.165946
0.109953
0.0950977
0.0962368
0.0960951
0.0948622
0.0938584
0.0931503
0.0925879
0.0921154
0.0917219
0.0914038
0.0911597
0.0909915
0.0909058
0.0909121
0.0910211
0.0912396
0.0915642
0.0919784
0.0924562
0.0929709
0.0935044
0.0940501
0.0946103
0.0951914
0.0958002
0.0964421
0.0971218
0.097844
0.0986142
0.099439
0.100327
0.101285
0.102325
0.103454
0.104686
0.10603
0.107508
0.10913
0.110937
0.112939
0.115193
0.117733
0.12059
0.123917
0.12753
0.132113
0.136396
0.143095
0.163081
0.110916
0.0957286
0.0964891
0.0962728
0.0949809
0.0939355
0.0932091
0.0926371
0.0921574
0.0917586
0.0914368
0.0911899
0.0910197
0.0909321
0.0909365
0.0910433
0.091259
0.0915805
0.0919913
0.092466
0.092978
0.0935095
0.0940537
0.0946129
0.0951932
0.0958013
0.0964425
0.0971215
0.0978429
0.0986123
0.0994362
0.100323
0.10128
0.102318
0.103446
0.104676
0.106017
0.107492
0.109111
0.110911
0.112908
0.115152
0.117683
0.120522
0.12383
0.127415
0.131931
0.136214
0.142394
0.160266
0.111794
0.096359
0.0967346
0.0964542
0.0951105
0.094022
0.0932758
0.0926939
0.092207
0.0918027
0.091477
0.0912275
0.0910554
0.0909662
0.0909689
0.0910734
0.091286
0.0916034
0.0920098
0.0924801
0.0929885
0.0935171
0.0940593
0.0946169
0.0951961
0.0958032
0.0964435
0.0971216
0.0978421
0.0986104
0.0994331
0.100318
0.101274
0.10231
0.103436
0.104663
0.106001
0.107472
0.109086
0.110879
0.112868
0.115099
0.117616
0.120432
0.123713
0.127264
0.13169
0.135957
0.141647
0.157507
0.112584
0.0969839
0.096969
0.0966332
0.0952461
0.0941143
0.0933475
0.092756
0.092262
0.0918525
0.0915233
0.0912716
0.091098
0.0910076
0.0910088
0.0911111
0.0913202
0.091633
0.092034
0.0924989
0.0930026
0.0935275
0.094067
0.0946227
0.0952004
0.0958061
0.0964452
0.0971221
0.0978414
0.0986084
0.0994296
0.100313
0.101267
0.102301
0.103423
0.104647
0.105981
0.107446
0.109054
0.110838
0.112817
0.115032
0.117533
0.120322
0.123566
0.127077
0.131391
0.135626
0.140878
0.154809
0.113287
0.097602
0.0971921
0.0968068
0.0953849
0.0942102
0.0934221
0.0928211
0.0923207
0.0919062
0.0915738
0.0913203
0.0911457
0.0910546
0.0910547
0.0911549
0.0913605
0.0916683
0.0920632
0.0925219
0.09302
0.0935406
0.0940768
0.0946302
0.095206
0.0958102
0.0964477
0.0971232
0.0978409
0.0986063
0.0994257
0.100307
0.101258
0.102289
0.103408
0.104628
0.105957
0.107416
0.109016
0.110789
0.112757
0.114953
0.117432
0.12019
0.123389
0.126853
0.131039
0.135223
0.140099
0.152175
0.113903
0.0982126
0.0974047
0.0969735
0.0955254
0.0943087
0.0934983
0.092888
0.0923814
0.0919624
0.0916271
0.0913721
0.0911969
0.0911054
0.0911047
0.0912031
0.0914053
0.0917078
0.0920963
0.0925482
0.0930402
0.0935558
0.0940885
0.0946392
0.0952128
0.0958151
0.0964509
0.0971245
0.0978404
0.0986039
0.0994213
0.1003
0.101249
0.102276
0.103391
0.104605
0.105929
0.107379
0.108971
0.110732
0.112685
0.11486
0.117314
0.120037
0.123183
0.126593
0.130642
0.134754
0.139315
0.149608
0.114432
0.0988143
0.0976079
0.0971324
0.0956667
0.0944094
0.0935756
0.0929559
0.0924435
0.09202
0.091682
0.0914257
0.0912501
0.0911585
0.0911573
0.091254
0.0914529
0.0917502
0.092132
0.0925768
0.0930623
0.0935727
0.0941014
0.0946492
0.0952205
0.0958206
0.0964543
0.0971258
0.0978396
0.098601
0.099416
0.100292
0.101238
0.102261
0.103371
0.10458
0.105896
0.107338
0.108919
0.110665
0.112603
0.114755
0.11718
0.119864
0.12295
0.1263
0.130205
0.134225
0.138524
0.147111
0.114875
0.099405
0.0978027
0.0972828
0.0958081
0.0945121
0.0936538
0.0930244
0.0925064
0.0920786
0.091738
0.0914805
0.0913046
0.0912129
0.0912113
0.0913065
0.091502
0.0917941
0.0921692
0.0926068
0.0930857
0.0935907
0.0941152
0.0946598
0.0952286
0.0958264
0.0964578
0.097127
0.0978384
0.0985973
0.0994097
0.100283
0.101225
0.102244
0.103349
0.104551
0.105859
0.107291
0.108861
0.110591
0.112509
0.114636
0.117028
0.119672
0.122692
0.125974
0.129735
0.133646
0.137723
0.144685
0.115233
0.0999823
0.0979906
0.0974243
0.0959486
0.0946166
0.0937329
0.0930934
0.09257
0.092138
0.0917947
0.0915361
0.0913599
0.0912681
0.0912661
0.0913597
0.0915519
0.0918388
0.0922073
0.0926376
0.0931098
0.0936091
0.0941293
0.0946707
0.0952367
0.0958321
0.096461
0.0971277
0.0978364
0.0985926
0.0994021
0.100272
0.10121
0.102225
0.103324
0.104518
0.105818
0.107238
0.108795
0.110508
0.112406
0.114505
0.116861
0.119461
0.12241
0.125618
0.129236
0.133024
0.136906
0.142334
0.115506
0.100543
0.0981731
0.0975563
0.0960873
0.0947229
0.0938128
0.0931629
0.0926342
0.0921981
0.0918521
0.0915922
0.0914156
0.0913238
0.0913213
0.0914132
0.0916021
0.0918839
0.0922457
0.0926688
0.0931342
0.0936278
0.0941436
0.0946815
0.0952447
0.0958374
0.0964637
0.0971276
0.0978335
0.0985867
0.0993931
0.10026
0.101194
0.102203
0.103296
0.104482
0.105772
0.107181
0.108723
0.110417
0.112292
0.114363
0.116679
0.119231
0.122107
0.125234
0.128711
0.132363
0.136067
0.140059
0.115697
0.101085
0.0983517
0.0976787
0.0962234
0.0948307
0.0938937
0.0932326
0.0926988
0.0922588
0.0919101
0.0916488
0.0914719
0.0913799
0.0913767
0.0914669
0.0916525
0.091929
0.0922842
0.0927001
0.0931587
0.0936466
0.0941578
0.0946921
0.0952523
0.0958423
0.0964658
0.0971267
0.0978295
0.0985794
0.0993824
0.100245
0.101175
0.102179
0.103265
0.104443
0.105723
0.107118
0.108644
0.110319
0.112169
0.114208
0.116482
0.118984
0.121783
0.124824
0.128161
0.13167
0.135204
0.137862
0.115807
0.101604
0.0985278
0.0977914
0.0963557
0.0949396
0.0939754
0.0933025
0.0927638
0.09232
0.0919686
0.091706
0.0915284
0.0914362
0.0914323
0.0915207
0.0917028
0.0919741
0.0923227
0.0927315
0.0931832
0.0936653
0.0941718
0.0947024
0.0952594
0.0958464
0.096467
0.0971248
0.0978243
0.0985707
0.09937
0.100229
0.101153
0.102152
0.10323
0.104399
0.105668
0.107049
0.108558
0.110212
0.112036
0.114042
0.116271
0.118719
0.121439
0.124388
0.127589
0.130946
0.134312
0.135744
0.115839
0.102097
0.0987026
0.0978945
0.0964833
0.0950494
0.094058
0.0933727
0.0928291
0.0923818
0.0920276
0.0917635
0.0915854
0.0914927
0.091488
0.0915744
0.091753
0.0920191
0.0923611
0.0927627
0.0932077
0.0936839
0.0941856
0.0947122
0.095266
0.0958499
0.0964672
0.0971218
0.0978178
0.0985605
0.0993557
0.10021
0.101129
0.102121
0.103192
0.104351
0.105608
0.106975
0.108466
0.110097
0.111892
0.113864
0.116046
0.118437
0.121075
0.123929
0.126994
0.130195
0.133391
0.133707
0.115796
0.102562
0.0988769
0.0979882
0.0966052
0.0951596
0.0941414
0.0934429
0.0928945
0.0924439
0.0920871
0.0918214
0.0916426
0.0915494
0.0915437
0.0916281
0.0918031
0.0920639
0.0923993
0.0927939
0.093232
0.0937022
0.094199
0.0947216
0.0952718
0.0958524
0.0964665
0.0971175
0.0978098
0.0985485
0.0993394
0.100189
0.101103
0.102088
0.103151
0.104299
0.105543
0.106894
0.108367
0.109974
0.111739
0.113674
0.115807
0.118138
0.120693
0.123446
0.126376
0.129418
0.132439
0.131749
0.115682
0.102995
0.0990512
0.098073
0.0967204
0.0952696
0.0942257
0.0935131
0.0929599
0.0925063
0.0921469
0.0918796
0.0917
0.0916062
0.0915994
0.0916818
0.0918531
0.0921086
0.0924374
0.0928248
0.0932561
0.0937203
0.0942121
0.0947305
0.095277
0.0958541
0.0964646
0.0971119
0.0978003
0.0985348
0.0993211
0.100165
0.101073
0.102051
0.103105
0.104242
0.105473
0.106807
0.10826
0.109842
0.111576
0.113471
0.115553
0.117821
0.120291
0.12294
0.125735
0.128615
0.131457
0.129872
0.1155
0.103395
0.0992259
0.0981494
0.0968282
0.0953788
0.0943107
0.0935833
0.0930253
0.0925689
0.092207
0.091938
0.0917576
0.0916631
0.0916551
0.0917352
0.0919028
0.092153
0.0924752
0.0928556
0.09328
0.0937381
0.0942248
0.0947388
0.0952814
0.0958548
0.0964615
0.0971049
0.0977891
0.0985191
0.0993005
0.100139
0.10104
0.10201
0.103055
0.104181
0.105397
0.106714
0.108145
0.109701
0.111402
0.113256
0.115285
0.117487
0.11987
0.122411
0.125071
0.127788
0.130446
0.128076
0.115254
0.103758
0.0994006
0.0982182
0.0969277
0.0954865
0.0943963
0.0936535
0.0930905
0.0926316
0.0922674
0.0919967
0.0918152
0.09172
0.0917107
0.0917884
0.0919523
0.0921971
0.0925128
0.092886
0.0933036
0.0937556
0.0942369
0.0947464
0.0952849
0.0958543
0.0964571
0.0970963
0.0977761
0.0985014
0.0992775
0.10011
0.101004
0.101966
0.103
0.104114
0.105315
0.106614
0.108022
0.109551
0.111217
0.113029
0.115002
0.117136
0.119429
0.121861
0.124384
0.126936
0.129406
0.126358
0.11495
0.104083
0.0995749
0.0982803
0.0970185
0.0955919
0.0944824
0.0937236
0.0931553
0.0926943
0.0923279
0.0920555
0.091873
0.0917768
0.0917661
0.0918414
0.0920014
0.0922408
0.0925499
0.0929161
0.0933268
0.0937726
0.0942485
0.0947532
0.0952874
0.0958527
0.0964513
0.0970861
0.0977612
0.0984814
0.0992519
0.100078
0.100965
0.101917
0.102941
0.104041
0.105227
0.106506
0.107891
0.109391
0.11102
0.112787
0.114703
0.116766
0.118969
0.121288
0.123675
0.126061
0.128341
0.124718
0.114592
0.104366
0.0997478
0.0983364
0.0971002
0.0956941
0.0945686
0.0937935
0.0932196
0.0927568
0.0923885
0.0921143
0.0919306
0.0918334
0.0918213
0.0918941
0.0920501
0.0922841
0.0925867
0.0929458
0.0933495
0.0937891
0.0942595
0.0947593
0.095289
0.0958499
0.096444
0.0970742
0.0977443
0.0984592
0.0992237
0.100043
0.100922
0.101864
0.102876
0.103963
0.105132
0.106391
0.107751
0.10922
0.110812
0.112533
0.114389
0.116379
0.11849
0.120695
0.122943
0.125163
0.127251
0.123154
0.114186
0.104608
0.0999181
0.0983876
0.0971725
0.0957922
0.0946547
0.0938633
0.0932834
0.0928189
0.092449
0.0921731
0.0919882
0.0918899
0.0918762
0.0919463
0.0920983
0.0923269
0.0926229
0.0929749
0.0933718
0.0938049
0.0942697
0.0947644
0.0952894
0.0958456
0.096435
0.0970603
0.0977253
0.0984344
0.0991926
0.100004
0.100874
0.101807
0.102807
0.103879
0.10503
0.106268
0.107601
0.109039
0.110592
0.112264
0.11406
0.115974
0.11799
0.12008
0.122189
0.124244
0.12614
0.121664
0.113737
0.104805
0.100084
0.0984347
0.0972355
0.0958855
0.0947402
0.0939329
0.0933465
0.0928806
0.0925092
0.0922318
0.0920456
0.0919461
0.0919306
0.091998
0.092146
0.0923691
0.0926586
0.0930036
0.0933934
0.0938202
0.0942791
0.0947686
0.0952885
0.0958399
0.0964243
0.0970445
0.0977039
0.098407
0.0991584
0.0999624
0.100823
0.101745
0.102732
0.103788
0.104921
0.106136
0.107443
0.108848
0.110359
0.111981
0.113714
0.11555
0.117472
0.119444
0.121414
0.123304
0.125009
0.120247
0.113251
0.104959
0.100244
0.0984787
0.0972892
0.0959729
0.0948246
0.0940022
0.0934089
0.0929416
0.0925692
0.0922902
0.0921027
0.0920018
0.0919846
0.0920492
0.092193
0.0924107
0.0926936
0.0930315
0.0934144
0.0938346
0.0942876
0.0947716
0.0952864
0.0958326
0.0964118
0.0970265
0.0976801
0.0983768
0.0991209
0.0999166
0.100768
0.101678
0.102651
0.103691
0.104804
0.105996
0.107274
0.108645
0.110114
0.111683
0.113352
0.115109
0.116934
0.118789
0.120619
0.122345
0.123861
0.118899
0.112733
0.105067
0.100395
0.0985203
0.0973342
0.0960537
0.0949074
0.0940711
0.0934703
0.0930017
0.0926286
0.0923483
0.0921593
0.0920571
0.092038
0.0920997
0.0922394
0.0924515
0.0927279
0.0930587
0.0934346
0.0938483
0.0942952
0.0947734
0.0952828
0.0958236
0.0963973
0.0970062
0.0976536
0.0983436
0.09908
0.0998669
0.100708
0.101605
0.102564
0.103587
0.10468
0.105847
0.107096
0.10843
0.109855
0.111371
0.112974
0.11465
0.116377
0.118114
0.119805
0.121369
0.122699
0.117619
0.112188
0.10513
0.100534
0.0985601
0.0973709
0.0961273
0.0949879
0.0941395
0.0935309
0.0930609
0.0926874
0.0924059
0.0922155
0.0921118
0.0920908
0.0921495
0.0922849
0.0924915
0.0927613
0.0930851
0.093454
0.0938609
0.0943016
0.094774
0.0952776
0.0958128
0.0963806
0.0969834
0.0976244
0.0983071
0.0990355
0.099813
0.100643
0.101528
0.102471
0.103476
0.104547
0.105689
0.106907
0.108204
0.109584
0.111045
0.11258
0.114174
0.115801
0.11742
0.118973
0.120377
0.121526
0.116402
0.111623
0.105149
0.100661
0.0985985
0.0973998
0.096193
0.0950653
0.094207
0.0935904
0.0931189
0.0927453
0.0924629
0.0922711
0.0921658
0.0921427
0.0921984
0.0923295
0.0925305
0.0927938
0.0931106
0.0934723
0.0938725
0.0943067
0.0947731
0.0952708
0.0958
0.0963617
0.0969581
0.0975922
0.0982674
0.0989871
0.0997546
0.100573
0.101444
0.102371
0.103357
0.104406
0.105521
0.106707
0.107966
0.109299
0.110703
0.112169
0.11368
0.115208
0.116709
0.118125
0.119372
0.120345
0.115247
0.111043
0.105125
0.100771
0.0986353
0.0974218
0.0962505
0.095139
0.0942734
0.0936488
0.0931755
0.0928022
0.0925191
0.0923259
0.092219
0.0921937
0.0922464
0.0923731
0.0925685
0.0928253
0.0931349
0.0934896
0.0938829
0.0943106
0.0947706
0.0952621
0.0957851
0.0963404
0.0969301
0.0975569
0.098224
0.0989347
0.0996917
0.100498
0.101354
0.102265
0.103231
0.104256
0.105344
0.106496
0.107715
0.109
0.110346
0.111742
0.113169
0.114597
0.115981
0.117262
0.118355
0.119157
0.114149
0.110451
0.10506
0.100862
0.0986704
0.0974375
0.0962994
0.0952081
0.0943383
0.093706
0.0932307
0.0928577
0.0925743
0.0923798
0.0922712
0.0922437
0.0922932
0.0924156
0.0926054
0.0928556
0.0931582
0.0935056
0.0938919
0.0943129
0.0947664
0.0952515
0.0957679
0.0963165
0.0968991
0.0975182
0.0981769
0.0988779
0.0996238
0.100417
0.101259
0.102151
0.103097
0.104098
0.105156
0.106274
0.107453
0.108688
0.109975
0.1113
0.112642
0.11397
0.115238
0.116385
0.117329
0.117968
0.113107
0.109852
0.104955
0.100934
0.0987029
0.0974477
0.0963397
0.0952721
0.0944013
0.0937619
0.0932843
0.0929119
0.0926283
0.0924326
0.0923223
0.0922925
0.0923388
0.0924568
0.092641
0.0928846
0.0931801
0.0935203
0.0938995
0.0943136
0.0947604
0.0952387
0.0957484
0.0962899
0.096865
0.0974761
0.0981258
0.0988167
0.0995509
0.10033
0.101156
0.10203
0.102954
0.10393
0.104959
0.106041
0.107177
0.108362
0.109589
0.110842
0.112099
0.113327
0.114481
0.115498
0.116297
0.116779
0.112117
0.10925
0.104813
0.100984
0.0987318
0.0974528
0.0963716
0.09533
0.0944618
0.0938162
0.0933362
0.0929643
0.0926809
0.0924843
0.0923722
0.0923401
0.0923831
0.0924966
0.0926752
0.0929122
0.0932006
0.0935336
0.0939055
0.0943126
0.0947523
0.0952237
0.0957263
0.0962604
0.0968276
0.0974302
0.0980705
0.0987507
0.0994726
0.100238
0.101047
0.101902
0.102803
0.103753
0.10475
0.105797
0.106889
0.108023
0.109188
0.110368
0.111541
0.11267
0.113711
0.114601
0.11526
0.115594
0.111175
0.108649
0.104637
0.101011
0.0987558
0.0974534
0.0963951
0.0953814
0.0945192
0.0938688
0.0933861
0.0930149
0.092732
0.0925345
0.0924207
0.0923861
0.0924258
0.0925348
0.0927078
0.0929382
0.0932195
0.0935451
0.0939098
0.0943096
0.0947422
0.0952063
0.0957014
0.0962278
0.0967868
0.0973804
0.0980108
0.0986798
0.0993887
0.100139
0.100931
0.101766
0.102644
0.103566
0.104532
0.10554
0.106588
0.10767
0.108773
0.109881
0.110968
0.112
0.112929
0.113696
0.114222
0.114415
0.110279
0.10805
0.104431
0.101013
0.0987737
0.0974498
0.0964107
0.0954258
0.094573
0.0939194
0.0934341
0.0930633
0.0927812
0.0925831
0.0924676
0.0924306
0.0924669
0.0925714
0.0927387
0.0929625
0.0932366
0.0935549
0.0939122
0.0943045
0.0947297
0.0951863
0.0956736
0.0961919
0.0967422
0.0973265
0.0979465
0.0986036
0.099299
0.100034
0.100808
0.101621
0.102475
0.103369
0.104302
0.105272
0.106275
0.107303
0.108344
0.109379
0.110381
0.111317
0.112139
0.112787
0.113185
0.113246
0.109426
0.107458
0.104196
0.100992
0.0987837
0.0974421
0.0964187
0.0954627
0.0946225
0.0939676
0.0934798
0.0931096
0.0928284
0.0926299
0.0925128
0.0924732
0.0925061
0.0926061
0.0927677
0.092985
0.0932519
0.0935628
0.0939124
0.0942972
0.0947147
0.0951635
0.0956428
0.0961525
0.0966938
0.0972682
0.0978773
0.0985221
0.0992033
0.0999215
0.100677
0.101469
0.102298
0.103163
0.104062
0.104993
0.105949
0.106923
0.107901
0.108863
0.109783
0.110624
0.11134
0.111874
0.112152
0.11209
0.108613
0.106872
0.103937
0.100946
0.0987843
0.0974303
0.0964196
0.0954919
0.0946671
0.094013
0.0935232
0.0931533
0.0928732
0.0926747
0.092556
0.0925139
0.0925433
0.0926388
0.0927947
0.0930054
0.0932651
0.0935684
0.0939104
0.0942874
0.094697
0.0951377
0.0956086
0.0961095
0.0966413
0.0972054
0.097803
0.0984348
0.0991013
0.0998025
0.100538
0.101308
0.102111
0.102946
0.103811
0.104701
0.105611
0.106531
0.107446
0.108335
0.109172
0.109922
0.110536
0.110961
0.111125
0.110949
0.107838
0.106296
0.103656
0.100876
0.0987741
0.0974141
0.0964138
0.0955133
0.0947062
0.0940552
0.093564
0.0931944
0.0929155
0.0927171
0.0925971
0.0925525
0.0925784
0.0926693
0.0928195
0.0930236
0.0932761
0.0935718
0.093906
0.094275
0.0946764
0.0951088
0.0955709
0.0960626
0.0965845
0.0971379
0.0977235
0.0983417
0.0989927
0.0996763
0.100392
0.101138
0.101915
0.102719
0.103548
0.104398
0.105261
0.106126
0.106978
0.107796
0.108552
0.109211
0.109728
0.110049
0.110106
0.109827
0.107097
0.10573
0.103358
0.100782
0.0987518
0.0973929
0.0964015
0.0955268
0.0947393
0.0940937
0.093602
0.0932326
0.0929551
0.092757
0.0926358
0.0925887
0.092611
0.0926973
0.0928419
0.0930394
0.0932846
0.0935727
0.0938989
0.0942597
0.0946528
0.0950765
0.0955296
0.0960116
0.0965232
0.0970653
0.0976384
0.0982425
0.0988774
0.0995427
0.100237
0.10096
0.101709
0.102482
0.103275
0.104084
0.104899
0.105709
0.106498
0.107246
0.107923
0.108495
0.108919
0.109141
0.1091
0.108725
0.106389
0.105175
0.103044
0.100666
0.0987161
0.0973661
0.0963832
0.0955325
0.0947659
0.094128
0.0936368
0.0932678
0.0929915
0.0927941
0.0926718
0.0926223
0.0926411
0.0927228
0.0928617
0.0930525
0.0932905
0.0935708
0.093889
0.0942414
0.0946259
0.0950406
0.0954843
0.0959564
0.0964572
0.0969875
0.0975475
0.0981369
0.0987552
0.0994015
0.100075
0.100773
0.101494
0.102235
0.102992
0.103758
0.104525
0.105281
0.106008
0.106686
0.107286
0.107775
0.108109
0.10824
0.108107
0.107647
0.105711
0.104632
0.102718
0.100528
0.0986664
0.097333
0.0963589
0.0955305
0.0947855
0.0941576
0.0936682
0.0932997
0.0930247
0.0928281
0.092705
0.0926531
0.0926683
0.0927454
0.0928786
0.0930629
0.0932935
0.093566
0.0938759
0.0942199
0.0945954
0.0950009
0.0954348
0.0958965
0.0963862
0.0969042
0.0974506
0.0980248
0.0986259
0.0992526
0.0999035
0.100576
0.101269
0.101977
0.102697
0.103421
0.10414
0.104841
0.105508
0.106117
0.106643
0.107052
0.107302
0.107347
0.107131
0.106596
0.105062
0.104101
0.102381
0.10037
0.0986019
0.0972928
0.0963286
0.095521
0.0947979
0.0941818
0.0936956
0.0933281
0.0930545
0.0928587
0.092735
0.0926808
0.0926925
0.092765
0.0928926
0.0930702
0.0932934
0.093558
0.0938596
0.0941948
0.0945613
0.0949572
0.095381
0.095832
0.09631
0.0968153
0.0973476
0.097906
0.0984892
0.0990957
0.0997239
0.100371
0.101034
0.10171
0.102392
0.103074
0.103745
0.104392
0.104998
0.105542
0.105996
0.106328
0.106499
0.106465
0.106173
0.105572
0.104439
0.103583
0.102038
0.100194
0.0985223
0.0972444
0.0962922
0.0955041
0.094803
0.0942003
0.0937188
0.0933527
0.0930804
0.0928856
0.0927615
0.0927052
0.0927135
0.0927813
0.0929032
0.0930742
0.09329
0.0935466
0.0938398
0.094166
0.0945231
0.0949092
0.0953226
0.0957624
0.0962283
0.0967204
0.0972381
0.0977802
0.098345
0.0989308
0.0995356
0.100157
0.10079
0.101432
0.102077
0.102716
0.10334
0.103934
0.104481
0.10496
0.105345
0.105605
0.105702
0.105595
0.105237
0.104578
0.10384
0.103077
0.101688
0.100002
0.0984276
0.0971873
0.0962496
0.09548
0.0948004
0.0942126
0.0937372
0.0933732
0.0931024
0.0929086
0.0927843
0.0927261
0.0927309
0.0927941
0.0929103
0.0930746
0.0932831
0.0935316
0.0938161
0.0941333
0.0944808
0.0948567
0.0952594
0.0956876
0.096141
0.0966195
0.097122
0.0976472
0.0981931
0.0987577
0.0993387
0.099933
0.100537
0.101145
0.101752
0.102349
0.102925
0.103467
0.103957
0.104374
0.104694
0.104885
0.104914
0.104741
0.104323
0.103617
0.103264
0.102583
0.101334
0.0997939
0.098318
0.0971206
0.0962003
0.0954488
0.0947903
0.0942182
0.0937505
0.0933893
0.0931201
0.0929275
0.092803
0.092743
0.0927445
0.0928031
0.0929136
0.0930713
0.0932723
0.0935127
0.0937885
0.0940963
0.094434
0.0947995
0.0951911
0.0956074
0.0960479
0.0965122
0.0969991
0.0975069
0.0980334
0.0985764
0.0991331
0.0997002
0.100273
0.100848
0.101417
0.101972
0.102502
0.102992
0.103427
0.103785
0.104042
0.10417
0.104136
0.103904
0.103435
0.102689
0.102709
0.1021
0.100978
0.0995728
0.0981938
0.0970438
0.096144
0.0954104
0.0947724
0.0942169
0.0937581
0.0934005
0.0931332
0.0929419
0.0928174
0.0927558
0.092754
0.0928081
0.0929129
0.093064
0.0932575
0.0934896
0.0937565
0.0940549
0.0943824
0.0947373
0.0951175
0.0955215
0.0959486
0.0963983
0.0968693
0.0973592
0.0978658
0.0983867
0.0989187
0.0994584
0.100001
0.100542
0.101073
0.101586
0.10207
0.102512
0.102893
0.103195
0.103393
0.103462
0.10337
0.103086
0.102573
0.101797
0.102174
0.10163
0.10062
0.0993398
0.0980555
0.0969564
0.0960803
0.095365
0.0947468
0.0942083
0.0937596
0.0934066
0.0931416
0.0929515
0.0928272
0.0927641
0.0927592
0.0928088
0.0929079
0.0930523
0.0932383
0.0934621
0.09372
0.0940087
0.0943259
0.0946699
0.0950383
0.0954296
0.095843
0.0962778
0.0967322
0.0972039
0.0976902
0.0981885
0.0986957
0.0992077
0.0997198
0.100226
0.10072
0.101193
0.101632
0.102025
0.102355
0.102603
0.102747
0.102762
0.102619
0.102289
0.101739
0.10094
0.101657
0.10117
0.100262
0.0990965
0.0979038
0.0968581
0.0960086
0.0953122
0.0947136
0.0941922
0.0937546
0.0934072
0.0931447
0.0929561
0.092832
0.0927676
0.0927597
0.0928048
0.0928984
0.0930361
0.0932144
0.0934299
0.0936787
0.0939575
0.0942642
0.0945969
0.0949533
0.0953316
0.0957309
0.0961503
0.0965878
0.0970408
0.0975065
0.097982
0.0984639
0.0989481
0.0994296
0.0999025
0.10036
0.100792
0.101188
0.101535
0.101816
0.102013
0.102106
0.102071
0.101883
0.101514
0.100935
0.100121
0.101158
0.100722
0.0999044
0.0988442
0.0977394
0.0967488
0.0959286
0.0952521
0.0946725
0.0941684
0.0937428
0.0934017
0.0931424
0.0929553
0.0928316
0.092766
0.0927552
0.092796
0.0928839
0.0930149
0.0931857
0.0933927
0.0936322
0.093901
0.094197
0.0945182
0.0948623
0.0952272
0.0956121
0.0960156
0.0964359
0.0968699
0.0973147
0.0977671
0.0982236
0.09868
0.0991309
0.0995704
0.0999912
0.100384
0.100738
0.101041
0.101276
0.101426
0.101472
0.101393
0.101164
0.100762
0.100162
0.0993396
0.100674
0.100283
0.0995478
0.0985841
0.0975632
0.0966284
0.0958399
0.0951843
0.0946237
0.0941368
0.0937237
0.0933899
0.0931342
0.0929489
0.0928257
0.0927589
0.0927454
0.0927819
0.0928642
0.0929886
0.0931517
0.0933502
0.0935803
0.0938389
0.094124
0.0944335
0.0947649
0.0951163
0.0954863
0.0958737
0.0962764
0.0966911
0.0971147
0.0975438
0.0979749
0.0984034
0.098824
0.0992306
0.0996159
0.0999709
0.100285
0.100545
0.100736
0.100843
0.100846
0.100727
0.100464
0.100036
0.0994198
0.0985966
0.100205
0.0998552
0.0991928
0.0983175
0.097376
0.096497
0.0957423
0.0951087
0.0945669
0.0940971
0.0936971
0.0933713
0.0931198
0.0929365
0.0928138
0.0927461
0.09273
0.0927623
0.0928391
0.0929567
0.0931122
0.0933021
0.0935227
0.093771
0.0940449
0.0943425
0.0946611
0.0949984
0.0953533
0.0957244
0.0961092
0.0965044
0.0969065
0.0973123
0.0977179
0.0981187
0.0985094
0.0988837
0.0992343
0.0995524
0.0998275
0.100047
0.100198
0.100265
0.10023
0.100076
0.0997843
0.0993354
0.0987099
0.0978918
0.0997504
0.0994363
0.0988398
0.0980452
0.0971786
0.096355
0.0956353
0.0950249
0.0945022
0.0940493
0.0936627
0.0933456
0.0930988
0.0929178
0.0927958
0.0927272
0.0927086
0.0927368
0.0928081
0.0929191
0.0930669
0.0932482
0.0934592
0.0936969
0.0939595
0.094245
0.0945504
0.0948736
0.0952131
0.0955675
0.0959342
0.0963096
0.0966902
0.0970725
0.0974528
0.0978262
0.0981873
0.09853
0.098847
0.0991297
0.099368
0.0995502
0.0996633
0.0996931
0.0996243
0.0994407
0.0991251
0.0986614
0.0980328
0.0972257
0.0993082
0.0990263
0.0984891
0.0977682
0.0969719
0.0962025
0.0955189
0.0949328
0.0944293
0.0939933
0.0936202
0.0933123
0.0930709
0.0928925
0.0927713
0.0927019
0.0926809
0.0927051
0.092771
0.0928753
0.0930154
0.093188
0.0933893
0.0936165
0.0938676
0.0941406
0.0944328
0.0947415
0.0950654
0.0954029
0.0957513
0.0961068
0.0964657
0.0968247
0.0971798
0.0975262
0.0978584
0.0981702
0.0984548
0.0987036
0.0989071
0.0990541
0.0991325
0.0991294
0.0990306
0.0988218
0.0984877
0.0980145
0.0973881
0.0965974
0.0988778
0.0986248
0.098141
0.0974871
0.0967567
0.0960399
0.0953931
0.0948321
0.0943482
0.0939289
0.0935695
0.0932712
0.0930356
0.0928601
0.0927399
0.0926699
0.0926466
0.0926669
0.0927274
0.0928251
0.0929574
0.0931213
0.0933129
0.0935293
0.0937688
0.0940293
0.0943079
0.094602
0.0949101
0.0952305
0.0955604
0.0958959
0.0962333
0.096569
0.0968992
0.097219
0.0975229
0.0978049
0.0980583
0.098275
0.0984457
0.0985601
0.098607
0.0985745
0.0984498
0.0982203
0.0978728
0.0973952
0.0967759
0.0960061
0.0984583
0.0982312
0.0977954
0.0972027
0.0965336
0.0958676
0.0952577
0.0947226
0.0942585
0.093856
0.0935102
0.093222
0.0929926
0.0928204
0.0927013
0.0926307
0.0926053
0.0926218
0.092677
0.0927681
0.0928927
0.0930477
0.0932295
0.0934351
0.0936628
0.0939106
0.0941756
0.0944549
0.094747
0.0950502
0.0953615
0.0956771
0.095993
0.0963057
0.0966113
0.096905
0.0971814
0.0974347
0.0976583
0.0978445
0.0979847
0.0980692
0.0980877
0.0980293
0.0978828
0.097637
0.0972805
0.0968032
0.0961954
0.0954511
0.098049
0.097845
0.0974524
0.0969155
0.0963033
0.0956861
0.0951129
0.0946042
0.0941603
0.0937744
0.0934424
0.0931644
0.0929415
0.092773
0.0926552
0.0925842
0.0925566
0.0925695
0.0926195
0.092704
0.0928208
0.0929671
0.0931389
0.0933336
0.0935495
0.0937845
0.0940356
0.0943
0.094576
0.0948619
0.0951547
0.0954503
0.0957448
0.0960348
0.0963163
0.0965846
0.0968345
0.0970602
0.0972555
0.0974131
0.0975251
0.0975823
0.0975755
0.0974948
0.0973304
0.0970723
0.0967111
0.0962383
0.0956461
0.0949302
0.097649
0.0974657
0.0971121
0.0966258
0.0960666
0.0954959
0.0949588
0.0944768
0.0940532
0.093684
0.0933657
0.093098
0.0928821
0.0927175
0.0926013
0.0925299
0.0925003
0.0925096
0.0925544
0.0926324
0.0927415
0.0928789
0.0930409
0.0932246
0.0934284
0.0936506
0.0938878
0.0941372
0.094397
0.0946655
0.0949398
0.0952156
0.095489
0.0957566
0.0960146
0.0962583
0.0964826
0.0966819
0.0968505
0.0969816
0.0970675
0.0971002
0.0970711
0.0969716
0.0967929
0.0965265
0.0961646
0.0957001
0.0951267
0.0944436
0.0972575
0.0970928
0.0967743
0.0963342
0.0958238
0.0952972
0.0947955
0.0943403
0.0939373
0.0935847
0.0932799
0.0930228
0.092814
0.0926536
0.0925392
0.0924675
0.092436
0.0924417
0.0924815
0.092553
0.0926545
0.092783
0.092935
0.0931077
0.0932995
0.0935087
0.0937319
0.0939662
0.0942099
0.0944611
0.094717
0.0949732
0.0952258
0.0954715
0.0957065
0.0959264
0.0961261
0.0963005
0.096444
0.0965505
0.0966128
0.0966236
0.0965753
0.0964602
0.0962707
0.0959996
0.0956407
0.0951882
0.0946356
0.0939875
0.0968738
0.0967259
0.096439
0.0960408
0.0955756
0.0950906
0.0946232
0.0941946
0.0938122
0.0934762
0.093185
0.0929383
0.092737
0.092581
0.0924685
0.0923968
0.0923634
0.0923657
0.0924005
0.0924656
0.0925593
0.092679
0.0928211
0.0929827
0.0931625
0.0933586
0.0935679
0.0937871
0.0940145
0.0942486
0.0944862
0.094723
0.0949552
0.0951796
0.0953924
0.0955894
0.0957657
0.0959166
0.0960367
0.0961205
0.0961615
0.0961531
0.0960884
0.0959609
0.095764
0.0954917
0.0951389
0.0947018
0.0941782
0.093562
0.0964972
0.0963643
0.0961059
0.0957458
0.0953222
0.0948764
0.0944421
0.0940398
0.093678
0.0933586
0.0930808
0.0928446
0.0926507
0.0924993
0.0923889
0.0923172
0.0922821
0.092281
0.0923109
0.0923696
0.0924558
0.0925667
0.0926987
0.0928493
0.093017
0.0932002
0.0933954
0.0935996
0.093811
0.094028
0.0942475
0.0944653
0.0946776
0.0948811
0.0950725
0.0952476
0.0954018
0.0955305
0.0956291
0.0956922
0.0957143
0.0956892
0.0956109
0.0954739
0.0952727
0.0950024
0.0946586
0.094238
0.0937405
0.0931634
0.096127
0.0960076
0.095775
0.0954495
0.0950641
0.0946551
0.0942525
0.0938759
0.0935346
0.0932315
0.092967
0.0927412
0.0925549
0.0924083
0.0923001