/*--------------------------------*- C++ -*----------------------------------*\
  =========                 |
  \\      /  F ield         | OpenFOAM: The Open Source CFD Toolbox
   \\    /   O peration     | Website:  https://openfoam.org
    \\  /    A nd           | Version:  7
     \\/     M anipulation  |
\*---------------------------------------------------------------------------*/
FoamFile
{
    version     2.0;
    format      ascii;
    class       surfaceScalarField;
    location    "0.01";
    object      phi;
}
// * * * * * * * * * * * * * * * * * * * * * * * * * * * * * * * * * * * * * //

dimensions      [0 3 -1 0 0 0 0];

internalField   nonuniform List<scalar> 
139350
(
6.45113e-08
9.21202e-08
3.1963e-08
3.25484e-08
2.30574e-08
8.9056e-09
1.95736e-08
3.48374e-09
1.76248e-08
1.94883e-09
1.62006e-08
1.42426e-09
1.50773e-08
1.12326e-09
1.41793e-08
8.98007e-10
1.34489e-08
7.30401e-10
1.28439e-08
6.05019e-10
1.23366e-08
5.07268e-10
1.19089e-08
4.27681e-10
1.15482e-08
3.60716e-10
1.12453e-08
3.02932e-10
1.09932e-08
2.52027e-10
1.07868e-08
2.06455e-10
1.06215e-08
1.65323e-10
1.04929e-08
1.28518e-10
1.03961e-08
9.68057e-11
1.03247e-08
7.14201e-11
1.02716e-08
5.31322e-11
1.02301e-08
4.14644e-11
1.01954e-08
3.47549e-11
1.01644e-08
3.09537e-11
1.0136e-08
2.84653e-11
1.01095e-08
2.64572e-11
1.00848e-08
2.47119e-11
1.00615e-08
2.32881e-11
1.00392e-08
2.23002e-11
1.00174e-08
2.18086e-11
9.99558e-09
2.18043e-11
9.9733e-09
2.22797e-11
9.95009e-09
2.32087e-11
9.9253e-09
2.47905e-11
9.8983e-09
2.70034e-11
9.86772e-09
3.05821e-11
9.8327e-09
3.50141e-11
9.79035e-09
4.23559e-11
9.74024e-09
5.01057e-11
9.67627e-09
6.39715e-11
9.60038e-09
7.58928e-11
9.49961e-09
1.00769e-10
9.38141e-09
1.18201e-10
9.21959e-09
1.61822e-10
9.03046e-09
1.89123e-10
8.76539e-09
2.65067e-10
8.45697e-09
3.08428e-10
7.98958e-09
4.67383e-10
7.51316e-09
4.76423e-10
-5.78873e-10
8.09203e-09
1.25942e-07
1.27622e-07
9.1287e-08
6.72034e-08
7.19343e-08
2.82583e-08
6.12227e-08
1.41953e-08
5.47962e-08
8.37534e-09
5.03194e-08
5.90104e-09
4.68641e-08
4.57855e-09
4.40942e-08
3.66796e-09
4.18322e-08
2.99237e-09
3.99565e-08
2.48072e-09
3.83839e-08
2.07986e-09
3.70586e-08
1.75302e-09
3.5942e-08
1.47729e-09
3.50067e-08
1.23827e-09
3.4232e-08
1.02667e-09
3.36017e-08
8.36799e-10
3.31008e-08
6.66251e-10
3.27134e-08
5.15881e-10
3.24211e-08
3.89136e-10
3.22027e-08
2.89779e-10
3.20371e-08
2.18755e-10
3.19061e-08
1.72478e-10
3.17969e-08
1.43987e-10
3.17019e-08
1.2587e-10
3.16177e-08
1.12733e-10
3.15423e-08
1.01822e-10
3.14747e-08
9.23255e-11
3.14137e-08
8.42834e-11
3.13581e-08
7.79175e-11
3.13066e-08
7.33044e-11
3.1258e-08
7.0403e-11
3.12111e-08
6.91292e-11
3.11648e-08
6.95515e-11
3.11175e-08
7.20442e-11
3.10676e-08
7.698e-11
3.10124e-08
8.57642e-11
3.09492e-08
9.81529e-11
3.08734e-08
1.18189e-10
3.07818e-08
1.41686e-10
3.06645e-08
1.81295e-10
3.05215e-08
2.18947e-10
3.0328e-08
2.94259e-10
3.00986e-08
3.47565e-10
2.9766e-08
4.94386e-10
2.93963e-08
5.58843e-10
2.87995e-08
8.61913e-10
2.82146e-08
8.93255e-10
2.70626e-08
1.61939e-09
2.617e-08
1.36901e-09
1.64778e-09
2.39434e-08
1.58751e-07
1.35274e-07
1.36524e-07
8.94306e-08
1.17491e-07
4.72916e-08
1.03319e-07
2.83669e-08
9.33399e-08
1.83546e-08
8.60675e-08
1.31734e-08
8.04055e-08
1.02405e-08
7.58226e-08
8.25092e-09
7.20419e-08
6.77303e-09
6.88823e-08
5.64035e-09
6.62173e-08
4.74489e-09
6.39594e-08
4.01083e-09
6.20479e-08
3.38884e-09
6.0439e-08
2.84721e-09
5.91001e-08
2.36552e-09
5.8005e-08
1.93192e-09
5.71289e-08
1.54235e-09
5.64447e-08
1.20004e-09
5.59209e-08
9.12972e-10
5.55223e-08
6.88335e-10
5.52147e-08
5.26363e-10
5.49693e-08
4.17924e-10
5.47655e-08
3.47724e-10
5.45911e-08
3.00316e-10
5.44392e-08
2.64644e-10
5.43061e-08
2.34923e-10
5.41892e-08
2.09166e-10
5.40864e-08
1.8709e-10
5.39955e-08
1.6887e-10
5.39143e-08
1.54496e-10
5.38408e-08
1.43884e-10
5.37731e-08
1.36791e-10
5.37092e-08
1.33478e-10
5.3647e-08
1.3427e-10
5.35837e-08
1.40241e-10
5.35166e-08
1.52896e-10
5.34416e-08
1.73132e-10
5.33539e-08
2.05867e-10
5.32486e-08
2.47068e-10
5.31149e-08
3.14979e-10
5.29507e-08
3.8312e-10
5.27262e-08
5.18745e-10
5.246e-08
6.1375e-10
5.20586e-08
8.95859e-10
5.16251e-08
9.92308e-10
5.08712e-08
1.61584e-09
5.01758e-08
1.58863e-09
4.8703e-08
3.09214e-09
4.74874e-08
2.58464e-09
4.77372e-09
4.43615e-08
1.7561e-07
1.31179e-07
1.65621e-07
9.94203e-08
1.52732e-07
6.01807e-08
1.40127e-07
4.09715e-08
1.29461e-07
2.90203e-08
1.20852e-07
2.17826e-08
1.13791e-07
1.73016e-08
1.0789e-07
1.41524e-08
1.02905e-07
1.17577e-08
9.86631e-08
9.88226e-09
9.50336e-08
8.37431e-09
9.19213e-08
7.12317e-09
8.92569e-08
6.05325e-09
8.69897e-08
5.11437e-09
8.50814e-08
4.27382e-09
8.35004e-08
3.51298e-09
8.22162e-08
2.82656e-09
8.11946e-08
2.22159e-09
8.03953e-08
1.71232e-09
7.9773e-08
1.31059e-09
7.92834e-08
1.01594e-09
7.88888e-08
8.12611e-10
7.85612e-08
6.75277e-10
7.82828e-08
5.78685e-10
7.80429e-08
5.04615e-10
7.78347e-08
4.43128e-10
7.76536e-08
3.90255e-10
7.74958e-08
3.44836e-10
7.7358e-08
3.06649e-10
7.72372e-08
2.75391e-10
7.71301e-08
2.50894e-10
7.70342e-08
2.3273e-10
7.69462e-08
2.21457e-10
7.68633e-08
2.17174e-10
7.67818e-08
2.21746e-10
7.66985e-08
2.36231e-10
7.66087e-08
2.62923e-10
7.65079e-08
3.06682e-10
7.63904e-08
3.64496e-10
7.62463e-08
4.59084e-10
7.60727e-08
5.5678e-10
7.58386e-08
7.52779e-10
7.55635e-08
8.88926e-10
7.51475e-08
1.31183e-09
7.46966e-08
1.44324e-09
7.39172e-08
2.39523e-09
7.31556e-08
2.35018e-09
7.16897e-08
4.55809e-09
7.01327e-08
4.14162e-09
7.61483e-09
6.72916e-08
1.84509e-07
1.23455e-07
1.82338e-07
1.01592e-07
1.76117e-07
6.6402e-08
1.67761e-07
4.93267e-08
1.59153e-07
3.76289e-08
1.51273e-07
2.96627e-08
1.44247e-07
2.4327e-08
1.38024e-07
2.03754e-08
1.3254e-07
1.72422e-08
1.2772e-07
1.47023e-08
1.2349e-07
1.26044e-08
1.19785e-07
1.08275e-08
1.16555e-07
9.28329e-09
1.13759e-07
7.91065e-09
1.11364e-07
6.66869e-09
1.09343e-07
5.53443e-09
1.07666e-07
4.50316e-09
1.06301e-07
3.58733e-09
1.05204e-07
2.80923e-09
1.04327e-07
2.18695e-09
1.03622e-07
1.72069e-09
1.03046e-07
1.38878e-09
1.02566e-07
1.15597e-09
1.02157e-07
9.86843e-10
1.01807e-07
8.55345e-10
1.01503e-07
7.46619e-10
1.0124e-07
6.53959e-10
1.0101e-07
5.74631e-10
1.00809e-07
5.07427e-10
1.00633e-07
4.51308e-10
1.00478e-07
4.05835e-10
1.0034e-07
3.70383e-10
1.00216e-07
3.46006e-10
1.001e-07
3.32696e-10
9.99889e-08
3.3324e-10
9.98772e-08
3.47958e-10
9.97597e-08
3.8039e-10
9.96319e-08
4.34476e-10
9.94881e-08
5.08312e-10
9.93196e-08
6.27569e-10
9.91233e-08
7.5308e-10
9.88721e-08
1.00394e-09
9.85803e-08
1.18075e-09
9.81632e-08
1.72892e-09
9.76946e-08
1.91187e-09
9.6954e-08
3.13578e-09
9.61315e-08
3.17268e-09
9.48276e-08
5.86201e-09
9.30318e-08
5.93743e-09
9.95038e-09
9.06963e-08
1.90342e-07
1.1533e-07
1.91857e-07
1.00077e-07
1.90258e-07
6.80006e-08
1.86153e-07
5.34321e-08
1.8072e-07
4.3062e-08
1.74985e-07
3.53971e-08
1.69325e-07
2.99875e-08
1.63904e-07
2.57963e-08
1.58829e-07
2.23168e-08
1.54154e-07
1.93776e-08
1.49893e-07
1.68652e-08
1.46044e-07
1.46769e-08
1.42596e-07
1.27311e-08
1.39538e-07
1.09685e-08
1.36858e-07
9.34902e-09
1.34541e-07
7.85079e-09
1.32571e-07
6.47314e-09
1.30923e-07
5.23611e-09
1.2956e-07
4.17177e-09
1.28441e-07
3.30643e-09
1.27518e-07
2.64315e-09
1.2675e-07
2.15668e-09
1.26102e-07
1.80371e-09
1.25549e-07
1.53983e-09
1.25073e-07
1.3317e-09
1.2466e-07
1.15964e-09
1.243e-07
1.01405e-09
1.23984e-07
8.90173e-10
1.23707e-07
7.852e-10
1.23461e-07
6.96633e-10
1.23244e-07
6.23197e-10
1.23051e-07
5.63844e-10
1.22876e-07
5.20314e-10
1.22716e-07
4.92978e-10
1.22563e-07
4.86047e-10
1.22412e-07
4.99428e-10
1.22254e-07
5.37829e-10
1.22085e-07
6.03626e-10
1.21898e-07
6.95573e-10
1.21685e-07
8.40191e-10
1.21444e-07
9.94664e-10
1.21153e-07
1.29436e-09
1.2082e-07
1.51421e-09
1.20386e-07
2.16247e-09
1.19879e-07
2.41867e-09
1.19181e-07
3.83431e-09
1.18302e-07
4.05138e-09
1.17167e-07
6.99746e-09
1.15304e-07
7.80013e-09
1.19188e-08
1.13336e-07
1.95503e-07
1.07641e-07
1.98245e-07
9.73354e-08
1.98981e-07
6.72644e-08
1.97785e-07
5.46282e-08
1.95152e-07
4.5695e-08
1.91821e-07
3.8728e-08
1.88111e-07
3.3697e-08
1.84204e-07
2.97036e-08
1.80259e-07
2.62619e-08
1.76397e-07
2.32397e-08
1.72698e-07
2.05641e-08
1.69215e-07
1.81601e-08
1.65982e-07
1.59637e-08
1.63023e-07
1.39275e-08
1.60353e-07
1.20196e-08
1.57978e-07
1.02253e-08
1.55899e-07
8.55171e-09
1.54107e-07
7.02832e-09
1.52581e-07
5.69829e-09
1.51289e-07
4.59786e-09
1.50197e-07
3.73563e-09
1.49268e-07
3.08592e-09
1.48471e-07
2.60034e-09
1.47783e-07
2.22771e-09
1.47186e-07
1.92889e-09
1.46665e-07
1.68047e-09
1.46208e-07
1.47074e-09
1.45805e-07
1.29341e-09
1.45446e-07
1.14387e-09
1.45126e-07
1.01747e-09
1.44838e-07
9.11105e-10
1.44579e-07
8.22521e-10
1.44345e-07
7.53897e-10
1.44132e-07
7.06545e-10
1.43931e-07
6.87008e-10
1.43734e-07
6.96016e-10
1.43532e-07
7.39999e-10
1.43316e-07
8.19983e-10
1.43077e-07
9.34689e-10
1.42807e-07
1.10952e-09
1.42503e-07
1.29878e-09
1.42152e-07
1.64582e-09
1.41751e-07
1.91457e-09
1.41273e-07
2.64039e-09
1.40705e-07
2.98743e-09
1.40016e-07
4.52275e-09
1.39086e-07
4.98134e-09
1.38062e-07
8.02194e-09
1.36263e-07
9.59935e-09
1.3655e-08
1.34526e-07
2.00819e-07
1.00408e-07
2.03769e-07
9.43847e-08
2.0534e-07
6.56933e-08
2.05639e-07
5.43297e-08
2.04807e-07
4.65271e-08
2.03329e-07
4.02053e-08
2.01392e-07
3.56345e-08
1.99086e-07
3.20097e-08
1.96526e-07
2.88217e-08
1.93825e-07
2.5941e-08
1.91073e-07
2.33153e-08
1.88345e-07
2.08882e-08
1.85699e-07
1.86103e-08
1.8318e-07
1.64464e-08
1.80824e-07
1.43751e-08
1.78658e-07
1.23915e-08
1.76698e-07
1.05114e-08
1.74953e-07
8.77419e-09
1.73417e-07
7.23382e-09
1.72078e-07
5.93712e-09
1.70913e-07
4.90039e-09
1.69898e-07
4.10085e-09
1.6901e-07
3.48831e-09
1.68231e-07
3.0073e-09
1.67545e-07
2.61456e-09
1.66941e-07
2.28437e-09
1.66407e-07
2.00447e-09
1.65932e-07
1.76851e-09
1.65505e-07
1.57109e-09
1.65117e-07
1.40531e-09
1.64763e-07
1.26516e-09
1.6444e-07
1.14576e-09
1.64145e-07
1.04858e-09
1.63876e-07
9.75851e-10
1.63626e-07
9.37259e-10
1.63385e-07
9.36361e-10
1.63142e-07
9.82787e-10
1.62884e-07
1.07797e-09
1.62599e-07
1.22027e-09
1.62275e-07
1.43323e-09
1.61907e-07
1.66737e-09
1.61485e-07
2.06738e-09
1.61004e-07
2.3952e-09
1.60459e-07
3.18602e-09
1.5981e-07
3.63656e-09
1.59093e-07
5.23975e-09
1.5811e-07
5.96367e-09
1.57132e-07
8.99995e-09
1.55455e-07
1.12762e-08
1.52444e-08
1.53866e-07
2.06422e-07
9.35178e-08
2.09329e-07
9.14777e-08
2.11051e-07
6.39708e-08
2.11929e-07
5.34522e-08
2.11989e-07
4.6467e-08
2.11602e-07
4.0592e-08
2.10875e-07
3.6362e-08
2.09813e-07
3.30709e-08
2.08463e-07
3.01719e-08
2.0689e-07
2.75146e-08
2.05157e-07
2.50478e-08
2.03325e-07
2.27201e-08
2.01449e-07
2.0487e-08
1.99576e-07
1.83192e-08
1.97748e-07
1.62028e-08
1.95999e-07
1.41402e-08
1.94356e-07
1.21547e-08
1.92837e-07
1.02928e-08
1.91455e-07
8.61676e-09
1.90209e-07
7.18273e-09
1.89094e-07
6.01561e-09
1.88096e-07
5.0982e-09
1.87203e-07
4.38162e-09
1.86402e-07
3.80822e-09
1.85685e-07
3.33174e-09
1.85044e-07
2.92495e-09
1.84472e-07
2.57648e-09
1.83959e-07
2.28209e-09
1.83492e-07
2.0377e-09
1.83062e-07
1.83533e-09
1.82662e-07
1.66562e-09
1.82288e-07
1.51941e-09
1.81941e-07
1.39529e-09
1.81622e-07
1.29523e-09
1.81327e-07
1.23197e-09
1.8105e-07
1.21393e-09
1.80776e-07
1.25605e-09
1.80491e-07
1.36357e-09
1.80176e-07
1.53531e-09
1.79815e-07
1.79407e-09
1.79397e-07
2.08504e-09
1.78915e-07
2.54962e-09
1.78359e-07
2.95155e-09
1.77738e-07
3.8064e-09
1.77002e-07
4.37241e-09
1.76229e-07
6.01296e-09
1.75192e-07
7.00137e-09
1.74209e-07
9.98282e-09
1.72662e-07
1.28224e-08
1.67422e-08
1.71165e-07
2.12268e-07
8.69121e-08
2.15137e-07
8.86083e-08
2.16806e-07
6.23024e-08
2.17843e-07
5.24152e-08
2.18248e-07
4.60623e-08
2.18361e-07
4.04786e-08
2.18283e-07
3.64405e-08
2.17983e-07
3.33704e-08
2.1746e-07
3.0695e-08
2.16737e-07
2.82379e-08
2.15843e-07
2.59416e-08
2.14811e-07
2.37519e-08
2.13676e-07
2.16219e-08
2.12474e-07
1.95216e-08
2.11237e-07
1.74394e-08
2.09996e-07
1.53815e-08
2.08776e-07
1.33749e-08
2.07599e-07
1.14695e-08
2.06485e-07
9.73125e-09
2.05445e-07
8.22227e-09
2.04485e-07
6.97532e-09
2.03603e-07
5.98041e-09
2.02792e-07
5.19246e-09
2.02047e-07
4.55339e-09
2.01365e-07
4.01416e-09
2.00744e-07
3.54578e-09
2.00182e-07
3.13819e-09
1.99673e-07
2.7911e-09
1.99206e-07
2.50453e-09
1.9877e-07
2.27179e-09
1.98354e-07
2.08093e-09
1.97957e-07
1.9173e-09
1.97578e-07
1.77397e-09
1.97223e-07
1.65023e-09
1.96895e-07
1.56034e-09
1.9659e-07
1.51867e-09
1.96298e-07
1.54742e-09
1.96002e-07
1.66e-09
1.95679e-07
1.85797e-09
1.95307e-07
2.16634e-09
1.94868e-07
2.52449e-09
1.9435e-07
3.06741e-09
1.93739e-07
3.56203e-09
1.93056e-07
4.48956e-09
1.92243e-07
5.1854e-09
1.91404e-07
6.8521e-09
1.90314e-07
8.09163e-09
1.89294e-07
1.10029e-08
1.8786e-07
1.42557e-08
1.81831e-08
1.8642e-07
2.18314e-07
8.0579e-08
2.21187e-07
8.57356e-08
2.22778e-07
6.07107e-08
2.23843e-07
5.135e-08
2.24356e-07
4.55493e-08
2.24647e-07
4.01885e-08
2.24842e-07
3.62448e-08
2.24916e-07
3.32966e-08
2.24849e-07
3.07618e-08
2.24645e-07
2.84425e-08
2.24309e-07
2.6277e-08
2.23853e-07
2.42079e-08
2.23291e-07
2.21837e-08
2.22642e-07
2.01708e-08
2.21925e-07
1.81565e-08
2.21159e-07
1.61481e-08
2.2036e-07
1.41732e-08
2.19549e-07
1.22809e-08
2.18744e-07
1.05365e-08
2.17962e-07
9.00375e-09
2.17216e-07
7.72104e-09
2.16511e-07
6.68608e-09
2.15844e-07
5.85938e-09
2.15214e-07
5.18372e-09
2.14621e-07
4.60716e-09
2.14069e-07
4.09764e-09
2.13561e-07
3.6456e-09
2.13097e-07
3.25551e-09
2.12667e-07
2.93395e-09
2.12261e-07
2.67862e-09
2.11865e-07
2.47686e-09
2.11474e-07
2.30839e-09
2.11089e-07
2.15836e-09
2.10719e-07
2.02021e-09
2.10373e-07
1.9069e-09
2.10053e-07
1.83829e-09
2.09755e-07
1.84497e-09
2.09463e-07
1.95255e-09
2.09152e-07
2.16869e-09
2.08794e-07
2.52478e-09
2.08362e-07
2.95598e-09
2.07841e-07
3.58888e-09
2.07208e-07
4.19502e-09
2.06488e-07
5.20958e-09
2.05621e-07
6.05186e-09
2.04724e-07
7.74916e-09
2.03594e-07
9.22211e-09
2.02525e-07
1.20722e-08
2.01179e-07
1.56012e-08
1.95852e-08
1.99777e-07
2.24547e-07
7.45248e-08
2.27446e-07
8.28367e-08
2.28974e-07
5.91833e-08
2.30046e-07
5.02779e-08
2.30599e-07
4.49961e-08
2.30937e-07
3.98502e-08
2.31222e-07
3.59604e-08
2.31441e-07
3.30768e-08
2.31579e-07
3.06244e-08
2.31633e-07
2.83885e-08
2.31603e-07
2.63064e-08
2.3149e-07
2.43215e-08
2.31294e-07
2.23792e-08
2.31023e-07
2.04425e-08
2.30682e-07
1.8497e-08
2.3028e-07
1.65501e-08
2.29824e-07
1.46288e-08
2.29326e-07
1.27791e-08
2.28801e-07
1.10616e-08
2.28267e-07
9.53791e-09
2.27738e-07
8.24973e-09
2.27222e-07
7.20189e-09
2.2672e-07
6.36161e-09
2.2623e-07
5.67362e-09
2.25755e-07
5.08276e-09
2.253e-07
4.55237e-09
2.24874e-07
4.07163e-09
2.2448e-07
3.64947e-09
2.24113e-07
3.30063e-09
2.23762e-07
3.03006e-09
2.23412e-07
2.82699e-09
2.23054e-07
2.66635e-09
2.22688e-07
2.52381e-09
2.22325e-07
2.38396e-09
2.21977e-07
2.25491e-09
2.21655e-07
2.16022e-09
2.21361e-07
2.1387e-09
2.21082e-07
2.23105e-09
2.20796e-07
2.45467e-09
2.2047e-07
2.85141e-09
2.2007e-07
3.35603e-09
2.19573e-07
4.08561e-09
2.18949e-07
4.81877e-09
2.18223e-07
5.93602e-09
2.17334e-07
6.94096e-09
2.16399e-07
8.68396e-09
2.15249e-07
1.03724e-08
2.14136e-07
1.31849e-08
2.12856e-07
1.68806e-08
2.09526e-08
2.11489e-07
2.30973e-07
6.87574e-08
2.33907e-07
7.9903e-08
2.35377e-07
5.77131e-08
2.36457e-07
4.91978e-08
2.37043e-07
4.44104e-08
2.37396e-07
3.94974e-08
2.37701e-07
3.56549e-08
2.37966e-07
3.28122e-08
2.38177e-07
3.04135e-08
2.38336e-07
2.82291e-08
2.38445e-07
2.61974e-08
2.38501e-07
2.42658e-08
2.38501e-07
2.2379e-08
2.38445e-07
2.04981e-08
2.38334e-07
1.86082e-08
2.38167e-07
1.6717e-08
2.37945e-07
1.48511e-08
2.37672e-07
1.30526e-08
2.37358e-07
1.13755e-08
2.37019e-07
9.87679e-09
2.36669e-07
8.59914e-09
2.36318e-07
7.55379e-09
2.35964e-07
6.71517e-09
2.35607e-07
6.03076e-09
2.35248e-07
5.44213e-09
2.34893e-07
4.90668e-09
2.34554e-07
4.41051e-09
2.34238e-07
3.96592e-09
2.33942e-07
3.5964e-09
2.33656e-07
3.31629e-09
2.33364e-07
3.11915e-09
2.33053e-07
2.9766e-09
2.32723e-07
2.85429e-09
2.32381e-07
2.72563e-09
2.32046e-07
2.59059e-09
2.31732e-07
2.47392e-09
2.31449e-07
2.42156e-09
2.3119e-07
2.49049e-09
2.30933e-07
2.71094e-09
2.30646e-07
3.13852e-09
2.3029e-07
3.71236e-09
2.29836e-07
4.53973e-09
2.29245e-07
5.40973e-09
2.28538e-07
6.64295e-09
2.27656e-07
7.82318e-09
2.26708e-07
9.63181e-09
2.25561e-07
1.1519e-08
2.24423e-07
1.43236e-08
2.23195e-07
1.81078e-08
2.22807e-08
2.21867e-07
2.376e-07
6.32826e-08
2.40572e-07
7.69302e-08
2.41985e-07
5.63002e-08
2.43072e-07
4.81108e-08
2.43694e-07
4.37884e-08
2.4406e-07
3.91321e-08
2.4437e-07
3.53445e-08
2.44647e-07
3.25358e-08
2.44879e-07
3.01809e-08
2.45073e-07
2.8035e-08
2.45233e-07
2.60375e-08
2.45358e-07
2.41409e-08
2.45445e-07
2.22916e-08
2.45494e-07
2.04499e-08
2.455e-07
1.86014e-08
2.45462e-07
1.67553e-08
2.45375e-07
1.49385e-08
2.45238e-07
1.31891e-08
2.45059e-07
1.15542e-08
2.44851e-07
1.0085e-08
2.44627e-07
8.82355e-09
2.44394e-07
7.78697e-09
2.44152e-07
6.95692e-09
2.43898e-07
6.2841e-09
2.43634e-07
5.70695e-09
2.43364e-07
5.17621e-09
2.43101e-07
4.67357e-09
2.42853e-07
4.21353e-09
2.42622e-07
3.82817e-09
2.42396e-07
3.5423e-09
2.42159e-07
3.35562e-09
2.41898e-07
3.23793e-09
2.41607e-07
3.14503e-09
2.41295e-07
3.03791e-09
2.40979e-07
2.90598e-09
2.40681e-07
2.77276e-09
2.40412e-07
2.68984e-09
2.40173e-07
2.73027e-09
2.39944e-07
2.93921e-09
2.39695e-07
3.3878e-09
2.39383e-07
4.02425e-09
2.38977e-07
4.94613e-09
2.3843e-07
5.9565e-09
2.37758e-07
7.31445e-09
2.36905e-07
8.67668e-09
2.35966e-07
1.05704e-08
2.34845e-07
1.26402e-08
2.33703e-07
1.54658e-08
2.32523e-07
1.92879e-08
2.35595e-08
2.31244e-07
2.44435e-07
5.81041e-08
2.47446e-07
7.39191e-08
2.48803e-07
5.49429e-08
2.49893e-07
4.70213e-08
2.50553e-07
4.31283e-08
2.50934e-07
3.87508e-08
2.51248e-07
3.50301e-08
2.5153e-07
3.22545e-08
2.51769e-07
2.99416e-08
2.51973e-07
2.78313e-08
2.52148e-07
2.58623e-08
2.52296e-07
2.39932e-08
2.52415e-07
2.21723e-08
2.52505e-07
2.03603e-08
2.52562e-07
1.85438e-08
2.52583e-07
1.67345e-08
2.52562e-07
1.49599e-08
2.52496e-07
1.32545e-08
2.52392e-07
1.16589e-08
2.52258e-07
1.02181e-08
2.52109e-07
8.97336e-09
2.51949e-07
7.94688e-09
2.51778e-07
7.12732e-09
2.51594e-07
6.46872e-09
2.51394e-07
5.90659e-09
2.51185e-07
5.38496e-09
2.50978e-07
4.88059e-09
2.50782e-07
4.40936e-09
2.50599e-07
4.01142e-09
2.50419e-07
3.7222e-09
2.50227e-07
3.54839e-09
2.50005e-07
3.45902e-09
2.4975e-07
3.40064e-09
2.49466e-07
3.32148e-09
2.49173e-07
3.19922e-09
2.48891e-07
3.05439e-09
2.48638e-07
2.94294e-09
2.48416e-07
2.95292e-09
2.48209e-07
3.14541e-09
2.4799e-07
3.6073e-09
2.47715e-07
4.2996e-09
2.4735e-07
5.31027e-09
2.46848e-07
6.45921e-09
2.46217e-07
7.94554e-09
2.45404e-07
9.4896e-09
2.4449e-07
1.14838e-08
2.43411e-07
1.37197e-08
2.42287e-07
1.65896e-08
2.41154e-07
2.04206e-08
2.4778e-08
2.39936e-07
2.51487e-07
5.32238e-08
2.54526e-07
7.08798e-08
2.55839e-07
5.36302e-08
2.56925e-07
4.59348e-08
2.57623e-07
4.24311e-08
2.58023e-07
3.83508e-08
2.58342e-07
3.47106e-08
2.58628e-07
3.19686e-08
2.58872e-07
2.9698e-08
2.59079e-07
2.76242e-08
2.59258e-07
2.56832e-08
2.59412e-07
2.38393e-08
2.5954e-07
2.20436e-08
2.59643e-07
2.02572e-08
2.59719e-07
1.84685e-08
2.59762e-07
1.66915e-08
2.59767e-07
1.49544e-08
2.59733e-07
1.32888e-08
2.59663e-07
1.17289e-08
2.59567e-07
1.0314e-08
2.59455e-07
9.08494e-09
2.59334e-07
8.0683e-09
2.59202e-07
7.25919e-09
2.59056e-07
6.61474e-09
2.58895e-07
6.06778e-09
2.58724e-07
5.55608e-09
2.58553e-07
5.05163e-09
2.58391e-07
4.57149e-09
2.58239e-07
4.16328e-09
2.58088e-07
3.87256e-09
2.57924e-07
3.71287e-09
2.5773e-07
3.65292e-09
2.575e-07
3.63063e-09
2.5724e-07
3.5819e-09
2.56966e-07
3.47265e-09
2.56701e-07
3.31962e-09
2.56462e-07
3.1824e-09
2.56252e-07
3.16252e-09
2.5606e-07
3.33714e-09
2.5586e-07
3.80781e-09
2.55609e-07
4.5506e-09
2.55275e-07
5.64384e-09
2.54809e-07
6.92577e-09
2.54215e-07
8.53957e-09
2.53445e-07
1.02589e-08
2.52566e-07
1.23629e-08
2.51538e-07
1.47476e-08
2.50451e-07
1.76768e-08
2.4937e-07
2.15017e-08
2.59258e-08
2.48222e-07
2.58765e-07
4.86422e-08
2.61822e-07
6.78229e-08
2.63101e-07
5.23512e-08
2.64179e-07
4.48563e-08
2.64911e-07
4.1699e-08
2.65332e-07
3.79301e-08
2.65657e-07
3.4385e-08
2.65948e-07
3.16778e-08
2.66196e-07
2.94498e-08
2.66406e-07
2.74144e-08
2.66587e-07
2.55027e-08
2.66742e-07
2.3684e-08
2.66873e-07
2.19128e-08
2.66979e-07
2.01511e-08
2.67059e-07
1.83888e-08
2.67108e-07
1.66424e-08
2.67122e-07
1.49406e-08
2.67098e-07
1.3312e-08
2.67042e-07
1.1785e-08
2.66962e-07
1.03942e-08
2.66867e-07
9.17988e-09
2.66763e-07
8.17293e-09
2.66648e-07
7.37407e-09
2.66519e-07
6.74293e-09
2.66377e-07
6.20978e-09
2.66227e-07
5.70686e-09
2.66076e-07
5.20227e-09
2.65933e-07
4.71445e-09
2.65798e-07
4.29801e-09
2.65663e-07
4.00765e-09
2.65513e-07
3.86298e-09
2.65334e-07
3.83217e-09
2.65119e-07
3.84504e-09
2.64875e-07
3.82607e-09
2.64618e-07
3.73028e-09
2.64367e-07
3.57077e-09
2.64138e-07
3.4106e-09
2.63938e-07
3.36329e-09
2.63753e-07
3.52161e-09
2.63561e-07
3.99983e-09
2.63322e-07
4.78979e-09
2.63006e-07
5.96002e-09
2.62564e-07
7.36716e-09
2.62e-07
9.10408e-09
2.61271e-07
1.09873e-08
2.6043e-07
1.32039e-08
2.59459e-07
1.57194e-08
2.58421e-07
1.87145e-08
2.57397e-07
2.25262e-08
2.6995e-08
2.56327e-07
2.66277e-07
4.43579e-08
2.6934e-07
6.4759e-08
2.70596e-07
5.10952e-08
2.71663e-07
4.37902e-08
2.72426e-07
4.0935e-08
2.72869e-07
3.74871e-08
2.73202e-07
3.40526e-08
2.73498e-07
3.1382e-08
2.73751e-07
2.91967e-08
2.73963e-07
2.72017e-08
2.74145e-07
2.53208e-08
2.74301e-07
2.35282e-08
2.74432e-07
2.17816e-08
2.74539e-07
2.00447e-08
2.74619e-07
1.8309e-08
2.74668e-07
1.6593e-08
2.74683e-07
1.49257e-08
2.74662e-07
1.33325e-08
2.74611e-07
1.18366e-08
2.74536e-07
1.04687e-08
2.74447e-07
9.26891e-09
2.74348e-07
8.27216e-09
2.74238e-07
7.48378e-09
2.74116e-07
6.86513e-09
2.73982e-07
6.34399e-09
2.73841e-07
5.84801e-09
2.737e-07
5.3425e-09
2.73567e-07
4.8479e-09
2.7344e-07
4.42535e-09
2.7331e-07
4.13753e-09
2.73164e-07
4.00881e-09
2.7299e-07
4.00618e-09
2.72783e-07
4.05181e-09
2.72549e-07
4.05982e-09
2.72304e-07
3.97591e-09
2.72064e-07
3.81029e-09
2.71845e-07
3.62985e-09
2.7165e-07
3.55876e-09
2.71467e-07
3.70451e-09
2.71275e-07
4.19171e-09
2.71037e-07
5.02748e-09
2.70727e-07
6.27033e-09
2.703e-07
7.79388e-09
2.69757e-07
9.64723e-09
2.69065e-07
1.16794e-08
2.68263e-07
1.4006e-08
2.67348e-07
1.66336e-08
2.66369e-07
1.96936e-08
2.65407e-07
2.34887e-08
2.79794e-08
2.64422e-07
2.74031e-07
4.03678e-08
2.77091e-07
6.16991e-08
2.78334e-07
4.98519e-08
2.79385e-07
4.274e-08
2.80176e-07
4.01431e-08
2.80643e-07
3.70203e-08
2.80983e-07
3.37126e-08
2.81284e-07
3.10814e-08
2.81542e-07
2.89386e-08
2.81758e-07
2.69856e-08
2.81941e-07
2.51375e-08
2.82098e-07
2.33717e-08
2.82229e-07
2.16503e-08
2.82335e-07
1.99386e-08
2.82414e-07
1.82302e-08
2.82462e-07
1.65451e-08
2.82476e-07
1.4912e-08
2.82455e-07
1.33531e-08
2.82405e-07
1.18871e-08
2.82332e-07
1.05414e-08
2.82244e-07
9.35659e-09
2.82145e-07
8.37106e-09
2.82035e-07
7.59376e-09
2.81913e-07
6.98699e-09
2.81781e-07
6.4761e-09
2.81644e-07
5.9851e-09
2.81509e-07
5.4778e-09
2.8138e-07
4.97734e-09
2.81254e-07
4.55103e-09
2.81123e-07
4.2682e-09
2.80976e-07
4.15647e-09
2.80801e-07
4.18077e-09
2.80597e-07
4.25594e-09
2.8037e-07
4.28701e-09
2.80133e-07
4.21222e-09
2.79904e-07
4.04003e-09
2.79692e-07
3.84188e-09
2.79499e-07
3.75142e-09
2.79314e-07
3.88966e-09
2.79116e-07
4.38916e-09
2.78873e-07
5.27081e-09
2.7856e-07
6.58295e-09
2.7814e-07
8.21382e-09
2.77612e-07
1.01755e-08
2.76952e-07
1.23401e-08
2.76188e-07
1.47695e-08
2.75331e-07
1.74906e-08
2.74416e-07
2.06087e-08
2.7352e-07
2.43843e-08
2.88747e-08
2.72625e-07
2.82038e-07
3.66673e-08
2.85083e-07
5.86541e-08
2.86323e-07
4.86119e-08
2.87354e-07
4.17087e-08
2.8817e-07
3.93277e-08
2.88661e-07
3.65286e-08
2.8901e-07
3.33638e-08
2.89316e-07
3.07761e-08
2.89579e-07
2.86754e-08
2.89798e-07
2.6766e-08
2.89984e-07
2.49523e-08
2.90141e-07
2.32144e-08
2.90272e-07
2.15187e-08
2.90378e-07
1.9833e-08
2.90456e-07
1.81526e-08
2.90502e-07
1.64989e-08
2.90514e-07
1.48999e-08
2.90492e-07
1.33747e-08
2.90442e-07
1.19376e-08
2.90369e-07
1.06137e-08
2.90281e-07
9.4446e-09
2.90181e-07
8.47151e-09
2.90069e-07
7.70609e-09
2.89945e-07
7.11074e-09
2.89813e-07
6.60845e-09
2.89677e-07
6.12061e-09
2.89544e-07
5.61079e-09
2.89416e-07
5.10557e-09
2.89289e-07
4.67802e-09
2.89154e-07
4.40275e-09
2.89002e-07
4.30906e-09
2.88824e-07
4.35887e-09
2.8862e-07
4.45998e-09
2.88397e-07
4.50968e-09
2.88168e-07
4.44069e-09
2.87947e-07
4.26118e-09
2.87741e-07
4.04783e-09
2.8755e-07
3.9428e-09
2.8736e-07
4.07927e-09
2.87154e-07
4.59541e-09
2.86901e-07
5.52381e-09
2.86581e-07
6.90266e-09
2.86163e-07
8.63178e-09
2.85646e-07
1.06926e-08
2.85014e-07
1.29726e-08
2.84289e-07
1.54944e-08
2.83489e-07
1.8291e-08
2.82641e-07
2.14561e-08
2.81817e-07
2.52086e-08
2.96777e-08
2.81014e-07
2.90306e-07
3.32498e-08
2.93325e-07
5.56353e-08
2.94571e-07
4.73663e-08
2.95581e-07
4.06984e-08
2.96415e-07
3.84938e-08
2.96933e-07
3.60108e-08
2.97291e-07
3.30051e-08
2.97601e-07
3.04662e-08
2.9787e-07
2.84072e-08
2.98093e-07
2.65425e-08
2.9828e-07
2.47652e-08
2.98438e-07
2.30563e-08
2.9857e-07
2.13868e-08
2.98675e-07
1.97277e-08
2.98752e-07
1.80761e-08
2.98796e-07
1.64545e-08
2.98807e-07
1.48896e-08
2.98784e-07
1.33972e-08
2.98734e-07
1.19882e-08
2.98661e-07
1.06861e-08
2.98572e-07
9.53347e-09
2.9847e-07
8.57412e-09
2.98354e-07
7.82136e-09
2.98228e-07
7.23699e-09
2.98095e-07
6.74177e-09
2.9796e-07
6.25544e-09
2.97828e-07
5.74262e-09
2.977e-07
5.23392e-09
2.9757e-07
4.80774e-09
2.9743e-07
4.54258e-09
2.97271e-07
4.46787e-09
2.97089e-07
4.5416e-09
2.96884e-07
4.66487e-09
2.96665e-07
4.7286e-09
2.96444e-07
4.66201e-09
2.9623e-07
4.47437e-09
2.9603e-07
4.24835e-09
2.95839e-07
4.13375e-09
2.95644e-07
4.27438e-09
2.95427e-07
4.81194e-09
2.95163e-07
5.78824e-09
2.94834e-07
7.23152e-09
2.94416e-07
9.04994e-09
2.93908e-07
1.12003e-08
2.93302e-07
1.35786e-08
2.92616e-07
1.61802e-08
2.91872e-07
1.9035e-08
2.91095e-07
2.22336e-08
2.90346e-07
2.59574e-08
3.03858e-08
2.89638e-07
2.98845e-07
3.01072e-08
3.01827e-07
5.26539e-08
3.03086e-07
4.61073e-08
3.04074e-07
3.97103e-08
3.04921e-07
3.76467e-08
3.05465e-07
3.54665e-08
3.05835e-07
3.2635e-08
3.0615e-07
3.01518e-08
3.06423e-07
2.8134e-08
3.0665e-07
2.6315e-08
3.0684e-07
2.45759e-08
3.06999e-07
2.28971e-08
3.07131e-07
2.12546e-08
3.07236e-07
1.96227e-08
3.07312e-07
1.80008e-08
3.07354e-07
1.64117e-08
3.07363e-07
1.48808e-08
3.0734e-07
1.34206e-08
3.07289e-07
1.20391e-08
3.07216e-07
1.07587e-08
3.07126e-07
9.6234e-09
3.07021e-07
8.67903e-09
3.06903e-07
7.93963e-09
3.06774e-07
7.36577e-09
3.0664e-07
6.87614e-09
3.06506e-07
6.38989e-09
3.06374e-07
5.87378e-09
3.06245e-07
5.36304e-09
3.06112e-07
4.94086e-09
3.05966e-07
4.68823e-09
3.05801e-07
4.63325e-09
3.05614e-07
4.72914e-09
3.05408e-07
4.87072e-09
3.05192e-07
4.94391e-09
3.04978e-07
4.8764e-09
3.04772e-07
4.67995e-09
3.04577e-07
4.44385e-09
3.04386e-07
4.3247e-09
3.04185e-07
4.47533e-09
3.03958e-07
5.03906e-09
3.03682e-07
6.06434e-09
3.03344e-07
7.56976e-09
3.02925e-07
9.46864e-09
3.02427e-07
1.16984e-08
3.01847e-07
1.41585e-08
3.01201e-07
1.6826e-08
3.00514e-07
1.97225e-08
2.99808e-07
2.29395e-08
2.99138e-07
2.66273e-08
3.09965e-08
2.98527e-07
3.07665e-07
2.72298e-08
3.10598e-07
4.9721e-08
3.11877e-07
4.4828e-08
3.12842e-07
3.87449e-08
3.13697e-07
3.67916e-08
3.14268e-07
3.48957e-08
3.14651e-07
3.22521e-08
3.1497e-07
2.98327e-08
3.15248e-07
2.7856e-08
3.1548e-07
2.60831e-08
3.15672e-07
2.43841e-08
3.15832e-07
2.27367e-08
3.15965e-07
2.11219e-08
3.16069e-07
1.95181e-08
3.16144e-07
1.79265e-08
3.16185e-07
1.63705e-08
3.16192e-07
1.48734e-08
3.16168e-07
1.34448e-08
3.16117e-07
1.20901e-08
3.16044e-07
1.08316e-08
3.15953e-07
9.71447e-09
3.15846e-07
8.78625e-09
3.15725e-07
8.0608e-09
3.15594e-07
7.49688e-09
3.15458e-07
7.01146e-09
3.15324e-07
6.524e-09
3.15193e-07
6.00454e-09
3.15063e-07
5.4933e-09
3.14926e-07
5.0777e-09
3.14775e-07
4.83985e-09
3.14603e-07
4.80509e-09
3.14411e-07
4.92121e-09
3.14204e-07
5.07721e-09
3.13993e-07
5.15544e-09
3.13785e-07
5.08389e-09
3.13587e-07
4.87816e-09
3.13396e-07
4.63459e-09
3.13205e-07
4.51586e-09
3.12998e-07
4.68206e-09
3.12761e-07
5.27645e-09
3.12474e-07
6.3515e-09
3.12127e-07
7.91652e-09
3.11709e-07
9.88718e-09
3.11221e-07
1.21858e-08
3.10668e-07
1.47118e-08
3.10063e-07
1.74305e-08
3.09433e-07
2.03529e-08
3.088e-07
2.35726e-08
3.08212e-07
2.72149e-08
3.15078e-08
3.07701e-07
3.16775e-07
2.46063e-08
3.19648e-07
4.68478e-08
3.20953e-07
4.35229e-08
3.21896e-07
3.7802e-08
3.22754e-07
3.59337e-08
3.2335e-07
3.42994e-08
3.23747e-07
3.18548e-08
3.24071e-07
2.95086e-08
3.24354e-07
2.75733e-08
3.2459e-07
2.58469e-08
3.24785e-07
2.41895e-08
3.24947e-07
2.2575e-08
3.2508e-07
2.09887e-08
3.25184e-07
1.94136e-08
3.25258e-07
1.78532e-08
3.25298e-07
1.63307e-08
3.25304e-07
1.48673e-08
3.25279e-07
1.34697e-08
3.25228e-07
1.21413e-08
3.25154e-07
1.09047e-08
3.25062e-07
9.80673e-09
3.24953e-07
8.89574e-09
3.24829e-07
8.18469e-09
3.24696e-07
7.63012e-09
3.24559e-07
7.14755e-09
3.24426e-07
6.65777e-09
3.24295e-07
6.13506e-09
3.24163e-07
5.62497e-09
3.24023e-07
5.21844e-09
3.23865e-07
4.99741e-09
3.23687e-07
4.98313e-09
3.23491e-07
5.11738e-09
3.23284e-07
5.28392e-09
3.23077e-07
5.36292e-09
3.22876e-07
5.28445e-09
3.22685e-07
5.06916e-09
3.22499e-07
4.82079e-09
3.22308e-07
4.70731e-09
3.22095e-07
4.8943e-09
3.21848e-07
5.52345e-09
3.21551e-07
6.64869e-09
3.21197e-07
8.27044e-09
3.2078e-07
1.03042e-08
3.20305e-07
1.26609e-08
3.19779e-07
1.52376e-08
3.19218e-07
1.79922e-08
3.18645e-07
2.09252e-08
3.18086e-07
2.41317e-08
3.17583e-07
2.77177e-08
3.19173e-08
3.17174e-07
3.26185e-07
2.2224e-08
3.28987e-07
4.40452e-08
3.30323e-07
4.21878e-08
3.31244e-07
3.68804e-08
3.321e-07
3.50777e-08
3.32721e-07
3.36791e-08
3.33133e-07
3.14419e-08
3.33463e-07
2.91791e-08
3.3375e-07
2.72862e-08
3.33991e-07
2.5606e-08
3.34189e-07
2.39919e-08
3.34352e-07
2.24117e-08
3.34486e-07
2.08548e-08
3.3459e-07
1.93092e-08
3.34663e-07
1.77807e-08
3.34701e-07
1.62921e-08
3.34706e-07
1.48624e-08
3.34681e-07
1.34951e-08
3.34629e-07
1.21926e-08
3.34556e-07
1.09782e-08
3.34462e-07
9.90019e-09
3.34351e-07
9.00744e-09
3.34224e-07
8.31114e-09
3.34089e-07
7.76525e-09
3.33952e-07
7.28424e-09
3.33819e-07
6.79118e-09
3.33688e-07
6.26551e-09
3.33555e-07
5.75826e-09
3.3341e-07
5.36321e-09
3.33247e-07
5.16079e-09
3.33063e-07
5.167e-09
3.32863e-07
5.31713e-09