/*--------------------------------*- C++ -*----------------------------------*\
  =========                 |
  \\      /  F ield         | OpenFOAM: The Open Source CFD Toolbox
   \\    /   O peration     | Website:  https://openfoam.org
    \\  /    A nd           | Version:  7
     \\/     M anipulation  |
\*---------------------------------------------------------------------------*/
FoamFile
{
    version     2.0;
    format      ascii;
    class       surfaceScalarField;
    location    "0.01";
    object      phi_0;
}
// * * * * * * * * * * * * * * * * * * * * * * * * * * * * * * * * * * * * * //

dimensions      [0 3 -1 0 0 0 0];

internalField   nonuniform List<scalar> 
139350
(
6.45114e-08
9.21201e-08
3.1963e-08
3.25483e-08
2.30575e-08
8.90556e-09
1.95738e-08
3.48369e-09
1.7625e-08
1.94877e-09
1.62008e-08
1.42418e-09
1.50776e-08
1.12317e-09
1.41798e-08
8.97893e-10
1.34495e-08
7.30261e-10
1.28446e-08
6.04849e-10
1.23376e-08
5.07063e-10
1.19101e-08
4.27436e-10
1.15497e-08
3.60428e-10
1.12471e-08
3.02598e-10
1.09955e-08
2.51644e-10
1.07895e-08
2.06021e-10
1.06246e-08
1.64844e-10
1.04966e-08
1.28016e-10
1.04003e-08
9.63216e-11
1.03293e-08
7.10006e-11
1.02765e-08
5.28075e-11
1.02352e-08
4.12325e-11
1.02006e-08
3.45871e-11
1.01698e-08
3.08138e-11
1.01415e-08
2.83276e-11
1.01152e-08
2.63108e-11
1.00906e-08
2.45562e-11
1.00675e-08
2.31258e-11
1.00454e-08
2.21318e-11
1.00237e-08
2.1631e-11
1.00021e-08
2.16113e-11
9.98007e-09
2.20643e-11
9.95711e-09
2.2966e-11
9.93259e-09
2.45182e-11
9.90589e-09
2.67033e-11
9.87563e-09
3.02559e-11
9.84096e-09
3.46666e-11
9.79898e-09
4.19856e-11
9.74926e-09
4.97129e-11
9.68572e-09
6.35477e-11
9.61029e-09
7.54263e-11
9.51003e-09
1.00265e-10
9.3924e-09
1.17624e-10
9.23117e-09
1.61232e-10
9.04273e-09
1.88436e-10
8.77831e-09
2.64424e-10
8.47066e-09
3.07655e-10
8.00401e-09
4.66648e-10
7.52823e-09
4.75782e-10
-5.7704e-10
8.10527e-09
1.25942e-07
1.27622e-07
9.1287e-08
6.72033e-08
7.19344e-08
2.82582e-08
6.1223e-08
1.41951e-08
5.47966e-08
8.37513e-09
5.032e-08
5.90077e-09
4.6865e-08
4.5782e-09
4.40954e-08
3.66753e-09
4.18338e-08
2.99183e-09
3.99586e-08
2.48005e-09
3.83866e-08
2.07904e-09
3.7062e-08
1.75204e-09
3.59463e-08
1.47612e-09
3.5012e-08
1.23689e-09
3.42386e-08
1.02507e-09
3.36096e-08
8.34994e-10
3.31102e-08
6.64297e-10
3.27243e-08
5.13893e-10
3.24334e-08
3.87282e-10
3.22161e-08
2.88215e-10
3.20514e-08
2.17557e-10
3.1921e-08
1.7161e-10
3.18123e-08
1.43337e-10
3.17178e-08
1.25315e-10
3.16339e-08
1.12192e-10
3.15589e-08
1.01261e-10
3.14918e-08
9.17393e-11
3.14312e-08
8.3676e-11
3.13761e-08
7.72867e-11
3.1325e-08
7.26383e-11
3.1277e-08
6.96823e-11
3.12307e-08
6.83337e-11
3.1185e-08
6.86664e-11
3.11385e-08
7.1062e-11
3.10893e-08
7.59008e-11
3.10349e-08
8.45891e-11
3.09727e-08
9.68859e-11
3.08979e-08
1.1682e-10
3.08074e-08
1.40208e-10
3.06913e-08
1.79678e-10
3.05495e-08
2.17165e-10
3.03575e-08
2.92307e-10
3.01297e-08
3.45383e-10
2.97989e-08
4.92093e-10
2.94311e-08
5.56228e-10
2.88361e-08
8.59411e-10
2.82535e-08
8.9023e-10
2.71036e-08
1.61652e-09
2.62132e-08
1.36618e-09
1.64863e-09
2.39876e-08
1.58751e-07
1.35274e-07
1.36524e-07
8.94305e-08
1.17491e-07
4.72914e-08
1.03319e-07
2.83665e-08
9.33404e-08
1.83541e-08
8.60684e-08
1.31728e-08
8.04067e-08
1.02398e-08
7.58242e-08
8.25002e-09
7.20442e-08
6.77189e-09
6.88853e-08
5.63893e-09
6.62212e-08
4.74313e-09
6.39646e-08
4.0087e-09
6.20544e-08
3.38627e-09
6.04472e-08
2.84415e-09
5.91103e-08
2.36195e-09
5.80174e-08
1.92788e-09
5.71437e-08
1.538e-09
5.64619e-08
1.19566e-09
5.59403e-08
9.08927e-10
5.55436e-08
6.84943e-10
5.52374e-08
5.23753e-10
5.4993e-08
4.16001e-10
5.479e-08
3.46253e-10
5.46163e-08
2.99057e-10
5.44651e-08
2.63434e-10
5.43326e-08
2.33692e-10
5.42165e-08
2.07898e-10
5.41144e-08
1.85786e-10
5.40241e-08
1.67521e-10
5.39437e-08
1.5308e-10
5.3871e-08
1.42367e-10
5.38042e-08
1.35139e-10
5.37412e-08
1.31662e-10
5.368e-08
1.32272e-10
5.36178e-08
1.3805e-10
5.35519e-08
1.50502e-10
5.34783e-08
1.70526e-10
5.33921e-08
2.03021e-10
5.32883e-08
2.43956e-10
5.31565e-08
3.11545e-10
5.29943e-08
3.79326e-10
5.27721e-08
5.14555e-10
5.25083e-08
6.09109e-10
5.21095e-08
8.90909e-10
5.1679e-08
9.86724e-10
5.09281e-08
1.61035e-09
5.02362e-08
1.58215e-09
4.87671e-08
3.08558e-09
4.75549e-08
2.5784e-09
4.76772e-09
4.44358e-08
1.7561e-07
1.31179e-07
1.65621e-07
9.94201e-08
1.52732e-07
6.01803e-08
1.40128e-07
4.0971e-08
1.29462e-07
2.90197e-08
1.20853e-07
2.17817e-08
1.13792e-07
1.73005e-08
1.07891e-07
1.4151e-08
1.02908e-07
1.17559e-08
9.86665e-08
9.87991e-09
9.50383e-08
8.3714e-09
9.19274e-08
7.11959e-09
8.92647e-08
6.0489e-09
8.69997e-08
5.10917e-09
8.5094e-08
4.26772e-09
8.35158e-08
3.50605e-09
8.22347e-08
2.81909e-09
8.12163e-08
2.21407e-09
8.04198e-08
1.70539e-09
7.98e-08
1.30474e-09
7.93124e-08
1.01138e-09
7.89192e-08
8.09186e-10
7.85928e-08
6.72613e-10
7.83155e-08
5.76403e-10
7.80765e-08
5.0246e-10
7.78692e-08
4.4098e-10
7.7689e-08
3.88077e-10
7.75322e-08
3.42615e-10
7.73953e-08
3.04365e-10
7.72754e-08
2.7301e-10
7.71694e-08
2.48372e-10
7.70745e-08
2.30024e-10
7.69876e-08
2.18526e-10
7.69059e-08
2.13988e-10
7.68257e-08
2.18274e-10
7.67438e-08
2.32437e-10
7.66555e-08
2.58765e-10
7.65565e-08
3.02099e-10
7.6441e-08
3.59426e-10
7.62991e-08
4.53432e-10
7.61279e-08
5.505e-10
7.58967e-08
7.45791e-10
7.56246e-08
8.81202e-10
7.5212e-08
1.30351e-09
7.47648e-08
1.43392e-09
7.39893e-08
2.3858e-09
7.3232e-08
2.33947e-09
7.17712e-08
4.54639e-09
7.02187e-08
4.1309e-09
7.59899e-09
6.73875e-08
1.84509e-07
1.23455e-07
1.82338e-07
1.01591e-07
1.76117e-07
6.64016e-08
1.67762e-07
4.93261e-08
1.59153e-07
3.76281e-08
1.51274e-07
2.96615e-08
1.44249e-07
2.43254e-08
1.38026e-07
2.03734e-08
1.32542e-07
1.72396e-08
1.27723e-07
1.4699e-08
1.23494e-07
1.26002e-08
1.19792e-07
1.08223e-08
1.16564e-07
9.27701e-09
1.1377e-07
7.90311e-09
1.11378e-07
6.65979e-09
1.09359e-07
5.52428e-09
1.07686e-07
4.49217e-09
1.06324e-07
3.57623e-09
1.05231e-07
2.79891e-09
1.04357e-07
2.17816e-09
1.03655e-07
1.71372e-09
1.03081e-07
1.38342e-09
1.02602e-07
1.15172e-09
1.02195e-07
9.83196e-10
1.01845e-07
8.51953e-10
1.01543e-07
7.43307e-10
1.0128e-07
6.50659e-10
1.01052e-07
5.71305e-10
1.00852e-07
5.04031e-10
1.00677e-07
4.4779e-10
1.00523e-07
4.02139e-10
1.00387e-07
3.66467e-10
1.00264e-07
3.41834e-10
1.00149e-07
3.28237e-10
1.00039e-07
3.28446e-10
9.9929e-08
3.42762e-10
9.9813e-08
3.74696e-10
9.9687e-08
4.2816e-10
9.95452e-08
5.01249e-10
9.9379e-08
6.19596e-10
9.91854e-08
7.44131e-10
9.89373e-08
9.9387e-10
9.86489e-08
1.16958e-09
9.82356e-08
1.71676e-09
9.77712e-08
1.89836e-09
9.70353e-08
3.12171e-09
9.62175e-08
3.15723e-09
9.49196e-08
5.84433e-09
9.31296e-08
5.92092e-09
9.92475e-09
9.08038e-08
1.90342e-07
1.1533e-07
1.91857e-07
1.00076e-07
1.90258e-07
6.80002e-08
1.86153e-07
5.34314e-08
1.8072e-07
4.3061e-08
1.74986e-07
3.53957e-08
1.69326e-07
2.99856e-08
1.63905e-07
2.57938e-08
1.58831e-07
2.23135e-08
1.54157e-07
1.93733e-08
1.49897e-07
1.68599e-08
1.4605e-07
1.46702e-08
1.42604e-07
1.27229e-08
1.39548e-07
1.09587e-08
1.3687e-07
9.33734e-09
1.34557e-07
7.83742e-09
1.32591e-07
6.45859e-09
1.30946e-07
5.22132e-09
1.29587e-07
4.15789e-09
1.28471e-07
3.29443e-09
1.27551e-07
2.63345e-09
1.26785e-07
2.14903e-09
1.26139e-07
1.79753e-09
1.25588e-07
1.53449e-09
1.25113e-07
1.32677e-09
1.24702e-07
1.15491e-09
1.24343e-07
1.00942e-09
1.24029e-07
8.85591e-10
1.23752e-07
7.8057e-10
1.23508e-07
6.91858e-10
1.23292e-07
6.18195e-10
1.231e-07
5.58576e-10
1.22927e-07
5.14771e-10
1.22768e-07
4.87161e-10
1.22617e-07
4.79927e-10
1.22466e-07
4.92922e-10
1.2231e-07
5.30783e-10
1.22143e-07
5.95827e-10
1.21957e-07
6.86788e-10
1.21747e-07
8.30139e-10
1.21507e-07
9.83216e-10
1.2122e-07
1.28128e-09
1.2089e-07
1.49955e-09
1.20461e-07
2.1463e-09
1.19958e-07
2.40072e-09
1.19265e-07
3.81521e-09
1.18391e-07
4.03078e-09
1.17262e-07
6.97352e-09
1.15406e-07
7.77668e-09
1.18843e-08
1.13447e-07
1.95503e-07
1.07641e-07
1.98245e-07
9.73351e-08
1.98981e-07
6.72639e-08
1.97785e-07
5.46274e-08
1.95152e-07
4.56939e-08
1.91821e-07
3.87264e-08
1.88112e-07
3.36948e-08
1.84205e-07
2.97006e-08
1.80261e-07
2.6258e-08
1.76399e-07
2.32347e-08
1.72701e-07
2.05578e-08
1.6922e-07
1.81521e-08
1.65989e-07
1.59539e-08
1.63032e-07
1.39156e-08
1.60364e-07
1.20054e-08
1.57992e-07
1.0209e-08
1.55917e-07
8.53389e-09
1.54128e-07
7.01005e-09
1.52605e-07
5.68097e-09
1.51317e-07
4.58267e-09
1.50227e-07
3.72311e-09
1.493e-07
3.07584e-09
1.48506e-07
2.59201e-09
1.4782e-07
2.22041e-09
1.47224e-07
1.92215e-09
1.46705e-07
1.67408e-09
1.4625e-07
1.46461e-09
1.45848e-07
1.28745e-09
1.45491e-07
1.13794e-09
1.45171e-07
1.0114e-09
1.44885e-07
9.04741e-10
1.44628e-07
8.15797e-10
1.44395e-07
7.46835e-10
1.44183e-07
6.99224e-10
1.43984e-07
6.79478e-10
1.43789e-07
6.88245e-10
1.43587e-07
7.31814e-10
1.43372e-07
8.11085e-10
1.43134e-07
9.247e-10
1.42866e-07
1.09797e-09
1.42564e-07
1.28539e-09
1.42215e-07
1.63021e-09
1.41818e-07
1.89675e-09
1.41344e-07
2.62039e-09
1.4078e-07
2.96508e-09
1.40096e-07
4.49853e-09
1.39172e-07
4.9553e-09
1.38154e-07
7.9917e-09
1.36362e-07
9.56837e-09
1.36124e-08
1.34634e-07
2.00819e-07
1.00407e-07
2.03769e-07
9.43844e-08
2.0534e-07
6.56927e-08
2.05639e-07
5.43289e-08
2.04807e-07
4.65259e-08
2.0333e-07
4.02035e-08
2.01393e-07
3.56321e-08
1.99087e-07
3.20065e-08
1.96527e-07
2.88175e-08
1.93826e-07
2.59354e-08
1.91076e-07
2.33082e-08
1.88349e-07
2.08792e-08
1.85704e-07
1.85991e-08
1.83187e-07
1.64327e-08
1.80833e-07
1.43589e-08
1.78669e-07
1.23728e-08
1.76712e-07
1.04909e-08
1.74969e-07
8.75296e-09
1.73437e-07
7.21346e-09
1.72101e-07
5.91901e-09
1.70939e-07
4.88521e-09
1.69926e-07
4.08839e-09
1.6904e-07
3.47783e-09
1.68263e-07
2.99797e-09
1.67579e-07
2.60587e-09
1.66977e-07
2.27612e-09
1.66445e-07
1.99664e-09
1.65971e-07
1.76106e-09
1.65545e-07
1.56385e-09
1.65159e-07
1.398e-09
1.64806e-07
1.2575e-09
1.64484e-07
1.13758e-09
1.64191e-07
1.0399e-09
1.63923e-07
9.6683e-10
1.63675e-07
9.28103e-10
1.63436e-07
9.27196e-10
1.63194e-07
9.73528e-10
1.62937e-07
1.06829e-09
1.62652e-07
1.20967e-09
1.62329e-07
1.42098e-09
1.61961e-07
1.65295e-09
1.61541e-07
2.05014e-09
1.61063e-07
2.375e-09
1.60521e-07
3.16278e-09
1.59876e-07
3.61018e-09
1.59164e-07
5.21062e-09
1.58187e-07
5.93213e-09
1.57215e-07
8.96346e-09
1.55546e-07
1.12375e-08
1.51943e-08
1.53964e-07
2.06422e-07
9.35177e-08
2.09329e-07
9.14774e-08
2.11051e-07
6.39702e-08
2.11929e-07
5.34513e-08
2.11989e-07
4.64658e-08
2.11602e-07
4.05902e-08
2.10875e-07
3.63595e-08
2.09814e-07
3.30675e-08
2.08464e-07
3.01674e-08
2.06891e-07
2.75086e-08
2.05159e-07
2.50401e-08
2.03328e-07
2.27103e-08
2.01452e-07
2.04748e-08
1.99581e-07
1.83043e-08
1.97754e-07
1.61851e-08
1.96007e-07
1.41198e-08
1.94366e-07
1.21321e-08
1.9285e-07
1.02692e-08
1.91469e-07
8.59395e-09
1.90226e-07
7.16216e-09
1.89113e-07
5.9981e-09
1.88118e-07
5.08363e-09
1.87227e-07
4.36918e-09
1.86428e-07
3.797e-09
1.85713e-07
3.32112e-09
1.85074e-07
2.91476e-09
1.84504e-07
2.56681e-09
1.83992e-07
2.27304e-09
1.83526e-07
2.02915e-09
1.83098e-07
1.82692e-09
1.82698e-07
1.65688e-09
1.82326e-07
1.50996e-09
1.81981e-07
1.38502e-09
1.81663e-07
1.28436e-09
1.8137e-07
1.2209e-09
1.81094e-07
1.20305e-09
1.80822e-07
1.24552e-09
1.80538e-07
1.35319e-09
1.80223e-07
1.52452e-09
1.79862e-07
1.78193e-09
1.79444e-07
2.07065e-09
1.78962e-07
2.53198e-09
1.78407e-07
2.93017e-09
1.77789e-07
3.78101e-09
1.77056e-07
4.34283e-09
1.76287e-07
5.97953e-09
1.75255e-07
6.96458e-09
1.74278e-07
9.94031e-09
1.72739e-07
1.27763e-08
1.66852e-08
1.71248e-07
2.12268e-07
8.6912e-08
2.15137e-07
8.8608e-08
2.16806e-07
6.23018e-08
2.17843e-07
5.24142e-08
2.18248e-07
4.60609e-08
2.18361e-07
4.04767e-08
2.18283e-07
3.64378e-08
2.17984e-07
3.33668e-08
2.17461e-07
3.06902e-08
2.16738e-07
2.82316e-08
2.15844e-07
2.59336e-08
2.14813e-07
2.37417e-08
2.13679e-07
2.1609e-08
2.12477e-07
1.95059e-08
2.11242e-07
1.74207e-08
2.10001e-07
1.53599e-08
2.08782e-07
1.3351e-08
2.07607e-07
1.14444e-08
2.06495e-07
9.70666e-09
2.05457e-07
8.19978e-09
2.04499e-07
6.95592e-09
2.03619e-07
5.9641e-09
2.02809e-07
5.17844e-09
2.02066e-07
4.54059e-09
2.01385e-07
4.00184e-09
2.00766e-07
3.53373e-09
2.00206e-07
3.12663e-09
1.99699e-07
2.78037e-09
1.99233e-07
2.49467e-09
1.98798e-07
2.26244e-09
1.98383e-07
2.07141e-09
1.97986e-07
1.90692e-09
1.97609e-07
1.76238e-09
1.97256e-07
1.63753e-09
1.9693e-07
1.5471e-09
1.96627e-07
1.50563e-09
1.96337e-07
1.53516e-09
1.96042e-07
1.64867e-09
1.95719e-07
1.84711e-09
1.95346e-07
2.15488e-09
1.94906e-07
2.51116e-09
1.94387e-07
3.05072e-09
1.93776e-07
3.54095e-09
1.93094e-07
4.46347e-09
1.92283e-07
5.15388e-09
1.91447e-07
6.81535e-09
1.90361e-07
8.05025e-09
1.89347e-07
1.09548e-08
1.87921e-07
1.42026e-08
1.81198e-08
1.86486e-07
2.18314e-07
8.05789e-08
2.21187e-07
8.57352e-08
2.22778e-07
6.07101e-08
2.23843e-07
5.1349e-08
2.24357e-07
4.55479e-08
2.24647e-07
4.01865e-08
2.24843e-07
3.62421e-08
2.24917e-07
3.32929e-08
2.2485e-07
3.07568e-08
2.24645e-07
2.84361e-08
2.2431e-07
2.62688e-08
2.23854e-07
2.41974e-08
2.23293e-07
2.21705e-08
2.22644e-07
2.01546e-08
2.21928e-07
1.81372e-08
2.21162e-07
1.61259e-08
2.20364e-07
1.41486e-08
2.19554e-07
1.2255e-08
2.1875e-07
1.05108e-08
2.1797e-07
8.9799e-09
2.17225e-07
7.70021e-09
2.16521e-07
6.66845e-09
2.15855e-07
5.84419e-09
2.15226e-07
5.16979e-09
2.14634e-07
4.59352e-09
2.14084e-07
4.08397e-09
2.13578e-07
3.63223e-09
2.13116e-07
3.24305e-09
2.12688e-07
2.92276e-09
2.12282e-07
2.66846e-09
2.11886e-07
2.4669e-09
2.11495e-07
2.29756e-09
2.11112e-07
2.14587e-09
2.10744e-07
2.00593e-09
2.10399e-07
1.89142e-09
2.10082e-07
1.82271e-09
2.09787e-07
1.83041e-09
2.09496e-07
1.93972e-09
2.09185e-07
2.15751e-09
2.08826e-07
2.51421e-09
2.08393e-07
2.94446e-09
2.07869e-07
3.57437e-09
2.07234e-07
4.17581e-09
2.06513e-07
5.18445e-09
2.05647e-07
6.01998e-09
2.04752e-07
7.71046e-09
2.03625e-07
9.17716e-09
2.02561e-07
1.20193e-08
2.01222e-07
1.55417e-08
1.95161e-08
1.99825e-07
2.24547e-07
7.45246e-08
2.27446e-07
8.28363e-08
2.28974e-07
5.91826e-08
2.30046e-07
5.02769e-08
2.30599e-07
4.49947e-08
2.30937e-07
3.98482e-08
2.31222e-07
3.59576e-08
2.31442e-07
3.3073e-08
2.31579e-07
3.06193e-08
2.31633e-07
2.83819e-08
2.31604e-07
2.6298e-08
2.31491e-07
2.43109e-08
2.31295e-07
2.23658e-08
2.31024e-07
2.0426e-08
2.30684e-07
1.84774e-08
2.30282e-07
1.65277e-08
2.29826e-07
1.46041e-08
2.29329e-07
1.27529e-08
2.28804e-07
1.10353e-08
2.28271e-07
9.51319e-09
2.27743e-07
8.22786e-09
2.27228e-07
7.1833e-09
2.26727e-07
6.34566e-09
2.26238e-07
5.65901e-09
2.25763e-07
5.06825e-09
2.25309e-07
4.53742e-09
2.24885e-07
4.05662e-09
2.24493e-07
3.63531e-09
2.24127e-07
3.2881e-09
2.23777e-07
3.01919e-09
2.23427e-07
2.81688e-09
2.23069e-07
2.65555e-09
2.22704e-07
2.51098e-09
2.22341e-07
2.36851e-09
2.21995e-07
2.2373e-09
2.21676e-07
2.14184e-09
2.21385e-07
2.1213e-09
2.21109e-07
2.21607e-09
2.20824e-07
2.44265e-09
2.20496e-07
2.8416e-09
2.20094e-07
3.3467e-09
2.19594e-07
4.07421e-09
2.18967e-07
4.80281e-09
2.18238e-07
5.9135e-09
2.17348e-07
6.91039e-09
2.16413e-07
8.64484e-09
2.15265e-07
1.03252e-08
2.14156e-07
1.31282e-08
2.12882e-07
1.68158e-08
2.08784e-08
2.1152e-07
2.30973e-07
6.87572e-08
2.33907e-07
7.99026e-08
2.35377e-07
5.77124e-08
2.36457e-07
4.91967e-08
2.37043e-07
4.44089e-08
2.37396e-07
3.94953e-08
2.37702e-07
3.5652e-08
2.37966e-07
3.28083e-08
2.38177e-07
3.04083e-08
2.38337e-07
2.82224e-08
2.38446e-07
2.6189e-08
2.38502e-07
2.42551e-08
2.38502e-07
2.23655e-08
2.38446e-07
2.04815e-08
2.38335e-07
1.85885e-08
2.38169e-07
1.66946e-08
2.37946e-07
1.48265e-08
2.37673e-07
1.30264e-08
2.37359e-07
1.1349e-08
2.37021e-07
9.85156e-09
2.36672e-07
8.57656e-09
2.36321e-07
7.53454e-09
2.35967e-07
6.69879e-09
2.35611e-07
6.01586e-09
2.35252e-07
5.42716e-09
2.34898e-07
4.89081e-09
2.34561e-07
4.39409e-09
2.34246e-07
3.95014e-09
2.33952e-07
3.58253e-09
2.33666e-07
3.30476e-09
2.33374e-07
3.10912e-09
2.33063e-07
2.96625e-09
2.32732e-07
2.84164e-09
2.32391e-07
2.70949e-09
2.32058e-07
2.57112e-09
2.31747e-07
2.45268e-09
2.31467e-07
2.40092e-09
2.3121e-07
2.47275e-09
2.30956e-07
2.69747e-09
2.30668e-07
3.12909e-09
2.3031e-07
3.70527e-09
2.29852e-07
4.532e-09
2.29257e-07
5.39806e-09
2.28546e-07
6.62443e-09
2.27661e-07
7.79549e-09
2.26712e-07
9.59381e-09
2.25566e-07
1.14708e-08
2.2443e-07
1.42642e-08
2.23207e-07
1.80385e-08
2.2202e-08
2.21884e-07
2.376e-07
6.32824e-08
2.40572e-07
7.69298e-08
2.41985e-07
5.62994e-08
2.43072e-07
4.81096e-08
2.43695e-07
4.37868e-08
2.4406e-07
3.913e-08
2.4437e-07
3.53415e-08
2.44647e-07
3.25317e-08
2.4488e-07
3.01756e-08
2.45074e-07
2.80283e-08
2.45234e-07
2.6029e-08
2.45359e-07
2.41302e-08
2.45446e-07
2.22781e-08
2.45494e-07
2.04333e-08
2.45501e-07
1.85816e-08
2.45463e-07
1.6733e-08
2.45375e-07
1.49142e-08
2.45238e-07
1.31633e-08
2.45059e-07
1.15279e-08
2.44851e-07
1.00595e-08
2.44628e-07
8.8005e-09
2.44395e-07
7.76729e-09
2.44153e-07
6.94034e-09
2.439e-07
6.26918e-09
2.43635e-07
5.69183e-09
2.43366e-07
5.15973e-09
2.43104e-07
4.65596e-09
2.42858e-07
4.19625e-09
2.42628e-07
3.81301e-09
2.42402e-07
3.53016e-09
2.42166e-07
3.34581e-09
2.41904e-07
3.22832e-09
2.41612e-07
3.13297e-09
2.413e-07
3.02151e-09
2.40987e-07
2.88496e-09
2.4069e-07
2.74873e-09
2.40426e-07
2.66575e-09
2.40189e-07
2.70933e-09
2.39963e-07
2.92375e-09
2.39714e-07
3.37829e-09
2.394e-07
4.01921e-09
2.38989e-07
4.94229e-09
2.38438e-07
5.94977e-09
2.37761e-07
7.30094e-09
2.36904e-07
8.65309e-09
2.35963e-07
1.05348e-08
2.34841e-07
1.25922e-08
2.33701e-07
1.54047e-08
2.32524e-07
1.92152e-08
2.3477e-08
2.31249e-07
2.44435e-07
5.81039e-08
2.47446e-07
7.39186e-08
2.48803e-07
5.49421e-08
2.49893e-07
4.70201e-08
2.50553e-07
4.31267e-08
2.50934e-07
3.87486e-08
2.51249e-07
3.50271e-08
2.5153e-07
3.22503e-08
2.5177e-07
2.99362e-08
2.51973e-07
2.78244e-08
2.52149e-07
2.58537e-08
2.52296e-07
2.39824e-08
2.52416e-07
2.21587e-08
2.52506e-07
2.03435e-08
2.52563e-07
1.85241e-08
2.52584e-07
1.67125e-08
2.52562e-07
1.49359e-08
2.52496e-07
1.32291e-08
2.52391e-07
1.16328e-08
2.52258e-07
1.01925e-08
2.52109e-07
8.94998e-09
2.51949e-07
7.92691e-09
2.51779e-07
7.11069e-09
2.51594e-07
6.45393e-09
2.51394e-07
5.8915e-09
2.51186e-07
5.36806e-09
2.5098e-07
4.86197e-09
2.50785e-07
4.39071e-09
2.50603e-07
3.99505e-09
2.50424e-07
3.70952e-09
2.50231e-07
3.5389e-09
2.50009e-07
3.45033e-09
2.49753e-07
3.38944e-09
2.49469e-07
3.30511e-09
2.49177e-07
3.1769e-09
2.48898e-07
3.0277e-09
2.48648e-07
2.91536e-09
2.48429e-07
2.92855e-09
2.48225e-07
3.12759e-09
2.48006e-07
3.59732e-09
2.47729e-07
4.29633e-09
2.47361e-07
5.31027e-09
2.46853e-07
6.45768e-09
2.46217e-07
7.93759e-09
2.45399e-07
9.47091e-09
2.44482e-07
1.14516e-08
2.43401e-07
1.36729e-08
2.42278e-07
1.65276e-08
2.41148e-07
2.03452e-08
2.46921e-08
2.39933e-07
2.51487e-07
5.32236e-08
2.54526e-07
7.08793e-08
2.55839e-07
5.36293e-08
2.56926e-07
4.59336e-08
2.57623e-07
4.24294e-08
2.58023e-07
3.83485e-08
2.58343e-07
3.47075e-08
2.58629e-07
3.19644e-08
2.58872e-07
2.96924e-08
2.59079e-07
2.76172e-08
2.59259e-07
2.56746e-08
2.59412e-07
2.38285e-08
2.59541e-07
2.20299e-08
2.59644e-07
2.02405e-08
2.5972e-07
1.84489e-08
2.59762e-07
1.66696e-08
2.59767e-07
1.49308e-08
2.59733e-07
1.32638e-08
2.59662e-07
1.1703e-08
2.59567e-07
1.02884e-08
2.59455e-07
9.06133e-09
2.59334e-07
8.04813e-09
2.59202e-07
7.24259e-09
2.59056e-07
6.60017e-09
2.58894e-07
6.05281e-09
2.58724e-07
5.53885e-09
2.58554e-07
5.03211e-09
2.58393e-07
4.55161e-09
2.58242e-07
4.14581e-09
2.58092e-07
3.85942e-09
2.57927e-07
3.70376e-09
2.57732e-07
3.6452e-09
2.57501e-07
3.62037e-09
2.57241e-07
3.5657e-09
2.56968e-07
3.44919e-09
2.56706e-07
3.29042e-09
2.5647e-07
3.15139e-09
2.56264e-07
3.13468e-09
2.56074e-07
3.31681e-09
2.55875e-07
3.79713e-09
2.55622e-07
4.54885e-09
2.55285e-07
5.64749e-09
2.54813e-07
6.9294e-09
2.54213e-07
8.53734e-09
2.53439e-07
1.02455e-08
2.52556e-07
1.23345e-08
2.51526e-07
1.47026e-08
2.50439e-07
1.76146e-08
2.4936e-07
2.14242e-08
2.5837e-08
2.48215e-07
2.58765e-07
4.8642e-08
2.61822e-07
6.78223e-08
2.63101e-07
5.23503e-08
2.64179e-07
4.4855e-08
2.64911e-07
4.16972e-08
2.65332e-07
3.79277e-08
2.65658e-07
3.43818e-08
2.65949e-07
3.16735e-08
2.66197e-07
2.94441e-08
2.66407e-07
2.74073e-08
2.66588e-07
2.5494e-08
2.66743e-07
2.36732e-08
2.66874e-07
2.18991e-08
2.6698e-07
2.01343e-08
2.67059e-07
1.83692e-08
2.67108e-07
1.66208e-08
2.67122e-07
1.49174e-08
2.67098e-07
1.32875e-08
2.67042e-07
1.17594e-08
2.66962e-07
1.03686e-08
2.66867e-07
9.1561e-09
2.66762e-07
8.15265e-09
2.66647e-07
7.35756e-09
2.66519e-07
6.72859e-09
2.66377e-07
6.1949e-09
2.66226e-07
5.68932e-09
2.66077e-07
5.18192e-09
2.65935e-07
4.69345e-09
2.65801e-07
4.27958e-09
2.65666e-07
3.99416e-09
2.65516e-07
3.85429e-09
2.65335e-07
3.8254e-09
2.6512e-07
3.83568e-09
2.64876e-07
3.81001e-09
2.64619e-07
3.70572e-09
2.64371e-07
3.53916e-09
2.64146e-07
3.37632e-09
2.63948e-07
3.33211e-09
2.63766e-07
3.49881e-09
2.63575e-07
3.98835e-09
2.63334e-07
4.78934e-09
2.63015e-07
5.96704e-09
2.62569e-07
7.37568e-09
2.61999e-07
9.10738e-09
2.61265e-07
1.0979e-08
2.6042e-07
1.31794e-08
2.59446e-07
1.56764e-08
2.58409e-07
1.86523e-08
2.57386e-07
2.2447e-08
2.69034e-08
2.5632e-07
2.66277e-07
4.43577e-08
2.6934e-07
6.47584e-08
2.70597e-07
5.10942e-08
2.71663e-07
4.37888e-08
2.72427e-07
4.09332e-08
2.7287e-07
3.74846e-08
2.73202e-07
3.40493e-08
2.73498e-07
3.13776e-08
2.73751e-07
2.91909e-08
2.73964e-07
2.71945e-08
2.74146e-07
2.53121e-08
2.74302e-07
2.35173e-08
2.74433e-07
2.17679e-08
2.7454e-07
2.00279e-08
2.74619e-07
1.82895e-08
2.74668e-07
1.65717e-08
2.74683e-07
1.49029e-08
2.74662e-07
1.33083e-08
2.7461e-07
1.18112e-08
2.74536e-07
1.04431e-08
2.74447e-07
9.24503e-09
2.74348e-07
8.25183e-09
2.74238e-07
7.46738e-09
2.74115e-07
6.85097e-09
2.73981e-07
6.32914e-09
2.7384e-07
5.8301e-09
2.73701e-07
5.32134e-09
2.73569e-07
4.82587e-09
2.73442e-07
4.4061e-09
2.73312e-07
4.12379e-09
2.73166e-07
4.00056e-09
2.72991e-07
4.00028e-09
2.72784e-07
4.0432e-09
2.7255e-07
4.04377e-09
2.72306e-07
3.9502e-09
2.72068e-07
3.77635e-09
2.71852e-07
3.59247e-09
2.7166e-07
3.52447e-09
2.71479e-07
3.67943e-09
2.71288e-07
4.17951e-09
2.71049e-07
5.02823e-09
2.70736e-07
6.28043e-09
2.70305e-07
7.80689e-09
2.69756e-07
9.65561e-09
2.69059e-07
1.16759e-08
2.68254e-07
1.39851e-08
2.67338e-07
1.65925e-08
2.66358e-07
1.96315e-08
2.65397e-07
2.34079e-08
2.78851e-08
2.64416e-07
2.74031e-07
4.03676e-08
2.77091e-07
6.16985e-08
2.78335e-07
4.98509e-08
2.79385e-07
4.27386e-08
2.80177e-07
4.01412e-08
2.80644e-07
3.70178e-08
2.80984e-07
3.37092e-08
2.81284e-07
3.10769e-08
2.81543e-07
2.89327e-08
2.81759e-07
2.69783e-08
2.81942e-07
2.51286e-08
2.82099e-07
2.33607e-08
2.8223e-07
2.16365e-08
2.82336e-07
1.99218e-08
2.82415e-07
1.82108e-08
2.82463e-07
1.6524e-08
2.82476e-07
1.48896e-08
2.82455e-07
1.33293e-08
2.82404e-07
1.18619e-08
2.82332e-07
1.05158e-08
2.82244e-07
9.33265e-09
2.82145e-07
8.35072e-09
2.82035e-07
7.57748e-09
2.81913e-07
6.97298e-09
2.81781e-07
6.46119e-09
2.81644e-07
5.96676e-09
2.8151e-07
5.45585e-09
2.81381e-07
4.9544e-09
2.81256e-07
4.53111e-09
2.81126e-07
4.25432e-09
2.80978e-07
4.14866e-09
2.80802e-07
4.17561e-09
2.80598e-07
4.24785e-09
2.80371e-07
4.27075e-09
2.80136e-07
4.18524e-09
2.79908e-07
4.00382e-09
2.79699e-07
3.80163e-09
2.79509e-07
3.71432e-09
2.79326e-07
3.86258e-09
2.79129e-07
4.37638e-09
2.78885e-07
5.2727e-09
2.78569e-07
6.59584e-09
2.78145e-07
8.23083e-09
2.77613e-07
1.01883e-08
2.76948e-07
1.23408e-08
2.76181e-07
1.47517e-08
2.75323e-07
1.7451e-08
2.74408e-07
2.05465e-08
2.73514e-07
2.43019e-08
2.87777e-08
2.72621e-07
2.82038e-07
3.6667e-08
2.85083e-07
5.86535e-08
2.86323e-07
4.86109e-08
2.87354e-07
4.17072e-08
2.8817e-07
3.93257e-08
2.88662e-07
3.65259e-08
2.89011e-07
3.33603e-08
2.89316e-07
3.07715e-08
2.89579e-07
2.86694e-08
2.89799e-07
2.67586e-08
2.89984e-07
2.49434e-08
2.90142e-07
2.32034e-08
2.90273e-07
2.15049e-08
2.90379e-07
1.98162e-08
2.90456e-07
1.81333e-08
2.90502e-07
1.64781e-08
2.90514e-07
1.48779e-08
2.90492e-07
1.33512e-08
2.90442e-07
1.19125e-08
2.90369e-07
1.05882e-08
2.90281e-07
9.42063e-09
2.90181e-07
8.45122e-09
2.90068e-07
7.68993e-09
2.89944e-07
7.0968e-09
2.89812e-07
6.59338e-09
2.89677e-07
6.10175e-09
2.89545e-07
5.58805e-09
2.89418e-07
5.08181e-09
2.89291e-07
4.65757e-09
2.89157e-07
4.38883e-09
2.89004e-07
4.30167e-09
2.88825e-07
4.35429e-09
2.88621e-07
4.45217e-09
2.88398e-07
4.49296e-09
2.88171e-07
4.41232e-09
2.87952e-07
4.22273e-09
2.87749e-07
4.00492e-09
2.8756e-07
3.90324e-09
2.87372e-07
4.05054e-09
2.87166e-07
4.58227e-09
2.86912e-07
5.52683e-09
2.8659e-07
6.91806e-09
2.86169e-07
8.65226e-09
2.85648e-07
1.07093e-08
2.85012e-07
1.29767e-08
2.84284e-07
1.54791e-08
2.83483e-07
1.82524e-08
2.82636e-07
2.13934e-08
2.81814e-07
2.51242e-08
2.95778e-08
2.81014e-07
2.90306e-07
3.32495e-08
2.93325e-07
5.56347e-08
2.94571e-07
4.73652e-08
2.95581e-07
4.06968e-08
2.96415e-07
3.84917e-08
2.96933e-07
3.60081e-08
2.97292e-07
3.30015e-08
2.97602e-07
3.04615e-08
2.9787e-07
2.8401e-08
2.98094e-07
2.6535e-08
2.98281e-07
2.47562e-08
2.98439e-07
2.30452e-08
2.98571e-07
2.1373e-08
2.98676e-07
1.97109e-08
2.98753e-07
1.8057e-08
2.98797e-07
1.64339e-08
2.98807e-07
1.48678e-08
2.98784e-07
1.33739e-08
2.98733e-07
1.19633e-08
2.98661e-07
1.06606e-08
2.98572e-07
9.50952e-09
2.98469e-07
8.55391e-09
2.98354e-07
7.80531e-09
2.98228e-07
7.22305e-09
2.98095e-07
6.72644e-09
2.9796e-07
6.23601e-09
2.97829e-07
5.71911e-09
2.97702e-07
5.20945e-09
2.97572e-07
4.7869e-09
2.97433e-07
4.52872e-09
2.97273e-07
4.46088e-09
2.9709e-07
4.53744e-09
2.96885e-07
4.65709e-09
2.96667e-07
4.71118e-09
2.96447e-07
4.6321e-09
2.96236e-07
4.43372e-09
2.96038e-07
4.20302e-09
2.95849e-07
4.09208e-09
2.95655e-07
4.24435e-09
2.95439e-07
4.79865e-09
2.95174e-07
5.79238e-09
2.94842e-07
7.24914e-09
2.94421e-07
9.07334e-09
2.93911e-07
1.122e-08
2.93302e-07
1.35854e-08
2.92614e-07
1.61667e-08
2.9187e-07
1.89969e-08
2.91093e-07
2.21701e-08
2.90347e-07
2.5871e-08
3.02827e-08
2.89642e-07
2.98845e-07
3.0107e-08
3.01827e-07
5.26532e-08
3.03086e-07
4.61062e-08
3.04074e-07
3.97087e-08
3.04921e-07
3.76446e-08
3.05466e-07
3.54637e-08
3.05836e-07
3.26313e-08
3.0615e-07
3.01469e-08
3.06424e-07
2.81277e-08
3.06651e-07
2.63074e-08
3.06841e-07
2.45668e-08
3.07e-07
2.28859e-08
3.07132e-07
2.12407e-08
3.07237e-07
1.9606e-08
3.07312e-07
1.79818e-08
3.07355e-07
1.63914e-08
3.07363e-07
1.48593e-08
3.0734e-07
1.33976e-08
3.07289e-07
1.20143e-08
3.07216e-07
1.07332e-08
3.07126e-07
9.59951e-09
3.07021e-07
8.65894e-09
3.06903e-07
7.92368e-09
3.06774e-07
7.35176e-09
3.0664e-07
6.86046e-09
3.06506e-07
6.36982e-09
3.06376e-07
5.84951e-09
3.06247e-07
5.33796e-09
3.06114e-07
4.91976e-09
3.05969e-07
4.67451e-09
3.05803e-07
4.62661e-09
3.05615e-07
4.7252e-09
3.0541e-07
4.86268e-09
3.05195e-07
4.92552e-09
3.04983e-07
4.84481e-09
3.04779e-07
4.63717e-09
3.04586e-07
4.39633e-09
3.04397e-07
4.28127e-09
3.04197e-07
4.44435e-09
3.03969e-07
5.02586e-09
3.03692e-07
6.06959e-09
3.03352e-07
7.58931e-09
3.02931e-07
9.49443e-09
3.0243e-07
1.17205e-08
3.01849e-07
1.41671e-08
3.01202e-07
1.68134e-08
3.00515e-07
1.96842e-08
2.9981e-07
2.28747e-08
2.99142e-07
2.65384e-08
3.08901e-08
2.98535e-07
3.07665e-07
2.72295e-08
3.10598e-07
4.97202e-08
3.11877e-07
4.48268e-08
3.12842e-07
3.87433e-08
3.13697e-07
3.67894e-08
3.14268e-07
3.48928e-08
3.14651e-07
3.22483e-08
3.14971e-07
2.98277e-08
3.15249e-07
2.78496e-08
3.15481e-07
2.60755e-08
3.15673e-07
2.43749e-08
3.15833e-07
2.27255e-08
3.15966e-07
2.11079e-08
3.1607e-07
1.95013e-08
3.16145e-07
1.79076e-08
3.16186e-07
1.63504e-08
3.16193e-07
1.48522e-08
3.16168e-07
1.34219e-08
3.16117e-07
1.20654e-08
3.16044e-07
1.08061e-08
3.15953e-07
9.69067e-09
3.15846e-07
8.7663e-09
3.15724e-07
8.04492e-09
3.15593e-07
7.48273e-09
3.15459e-07
6.99533e-09
3.15325e-07
6.50323e-09
3.15195e-07
5.97954e-09
3.15065e-07
5.46771e-09
3.14929e-07
5.05646e-09
3.14777e-07
4.82633e-09
3.14605e-07
4.79875e-09
3.14413e-07
4.91731e-09
3.14207e-07
5.06865e-09
3.13996e-07
5.13584e-09
3.13791e-07
5.0505e-09
3.13595e-07
4.83329e-09
3.13406e-07
4.58512e-09
3.13216e-07
4.47102e-09
3.1301e-07
4.65047e-09
3.12772e-07
5.26355e-09
3.12484e-07
6.35785e-09
3.12136e-07
7.93772e-09
3.11715e-07
9.91481e-09
3.11226e-07
1.22095e-08
3.10672e-07
1.47215e-08
3.10067e-07
1.74181e-08
3.09437e-07
2.03138e-08
3.08806e-07
2.3506e-08
3.08221e-07
2.71234e-08
3.13977e-08
3.07714e-07
3.16775e-07
2.4606e-08
3.19648e-07
4.6847e-08
3.20953e-07
4.35217e-08
3.21896e-07
3.78003e-08
3.22754e-07
3.59314e-08
3.2335e-07
3.42965e-08
3.23748e-07
3.18509e-08
3.24072e-07
2.95035e-08
3.24355e-07
2.75669e-08
3.24591e-07
2.58391e-08
3.24786e-07
2.41803e-08
3.24948e-07
2.25636e-08
3.25081e-07
2.09746e-08
3.25185e-07
1.93968e-08
3.25259e-07
1.78345e-08
3.25298e-07
1.63108e-08
3.25304e-07
1.48463e-08
3.25279e-07
1.3447e-08
3.25228e-07
1.21167e-08
3.25154e-07
1.08793e-08
3.25062e-07
9.78305e-09
3.24952e-07
8.87594e-09
3.24828e-07
8.16886e-09
3.24695e-07
7.61576e-09
3.2456e-07
7.13088e-09
3.24427e-07
6.63626e-09
3.24297e-07
6.10937e-09
3.24166e-07
5.59897e-09
3.24025e-07
5.19719e-09
3.23867e-07
4.98414e-09
3.23689e-07
4.97701e-09
3.23493e-07
5.11332e-09
3.23287e-07
5.27458e-09
3.23081e-07
5.34188e-09
3.22882e-07
5.24915e-09
3.22693e-07
5.02228e-09
3.22509e-07
4.76961e-09
3.22319e-07
4.66138e-09
3.22107e-07
4.86242e-09
3.21859e-07
5.51103e-09
3.21561e-07
6.65612e-09
3.21206e-07
8.293e-09
3.20787e-07
1.03332e-08
3.20311e-07
1.26856e-08
3.19785e-07
1.52476e-08
3.19224e-07
1.79793e-08
3.18653e-07
2.08848e-08
3.18096e-07
2.40629e-08
3.17596e-07
2.76231e-08
3.18033e-08
3.17191e-07
3.26185e-07
2.22237e-08
3.28988e-07
4.40444e-08
3.30323e-07
4.21866e-08
3.31244e-07
3.68786e-08
3.321e-07
3.50754e-08
3.32721e-07
3.36761e-08
3.33134e-07
3.14379e-08
3.33463e-07
2.91738e-08
3.33751e-07
2.72797e-08
3.33992e-07
2.55982e-08
3.34189e-07
2.39826e-08
3.34353e-07
2.24002e-08
3.34487e-07
2.08407e-08
3.34591e-07
1.92925e-08
3.34663e-07
1.77622e-08
3.34702e-07
1.62725e-08
3.34706e-07
1.48416e-08
3.34681e-07
1.34725e-08
3.34629e-07
1.2168e-08
3.34556e-07
1.09528e-08
3.34462e-07
9.87667e-09
3.3435e-07
8.98781e-09
3.34224e-07
8.29533e-09
3.34089e-07
7.75059e-09
3.33953e-07
7.26695e-09
3.3382e-07
6.7689e-09
3.33691e-07
6.23915e-09
3.33558e-07
5.73195e-09
3.33413e-07
5.34205e-09
3.33249e-07
5.14781e-09
3.33065e-07
5.16102e-09