/*--------------------------------*- C++ -*----------------------------------*\
  =========                 |
  \\      /  F ield         | OpenFOAM: The Open Source CFD Toolbox
   \\    /   O peration     | Website:  https://openfoam.org
    \\  /    A nd           | Version:  7
     \\/     M anipulation  |
\*---------------------------------------------------------------------------*/
FoamFile
{
    version     2.0;
    format      ascii;
    class       volVectorField;
    location    "0.01";
    object      U;
}
// * * * * * * * * * * * * * * * * * * * * * * * * * * * * * * * * * * * * * //

dimensions      [0 1 -1 0 0 0 0];

internalField   nonuniform List<vector> 
70000
(
(0.553411 0.0169783 0)
(0.251405 0.0034006 0)
(0.165906 0.000319099 0)
(0.132423 4.90867e-05 0)
(0.11733 4.4052e-05 0)
(0.1074 5.21061e-05 0)
(0.0994803 4.41792e-05 0)
(0.0931162 3.49455e-05 0)
(0.0879861 2.87189e-05 0)
(0.0837721 2.43671e-05 0)
(0.0802535 2.09656e-05 0)
(0.0772901 1.81684e-05 0)
(0.0747879 1.58255e-05 0)
(0.0726798 1.38356e-05 0)
(0.0709162 1.21086e-05 0)
(0.0694596 1.05441e-05 0)
(0.0682803 9.02119e-06 0)
(0.0673514 7.43781e-06 0)
(0.0666429 5.80009e-06 0)
(0.0661171 4.26508e-06 0)
(0.0657292 3.05501e-06 0)
(0.0654343 2.30379e-06 0)
(0.0651951 1.979e-06 0)
(0.0649873 1.92849e-06 0)
(0.0647986 1.99279e-06 0)
(0.0646238 2.07523e-06 0)
(0.064461 2.15444e-06 0)
(0.0643083 2.24496e-06 0)
(0.0641633 2.37441e-06 0)
(0.0640229 2.56238e-06 0)
(0.0638843 2.81027e-06 0)
(0.0637439 3.12703e-06 0)
(0.0635996 3.4863e-06 0)
(0.0634466 3.95043e-06 0)
(0.0632834 4.44139e-06 0)
(0.0630992 5.20126e-06 0)
(0.0628946 5.92038e-06 0)
(0.062645 7.32001e-06 0)
(0.06236 8.36831e-06 0)
(0.0619892 1.09409e-05 0)
(0.0615593 1.23749e-05 0)
(0.0609924 1.66474e-05 0)
(0.0602946 1.91123e-05 0)
(0.0594657 2.45493e-05 0)
(0.0581913 3.21691e-05 0)
(0.057192 3.28618e-05 0)
(0.0543969 6.20338e-05 0)
(0.0542455 3.4718e-05 0)
(0.046143 0.000121305 0)
(0.0529373 -0.000793038 0)
(0.884861 0.0434939 0)
(0.650131 0.0201499 0)
(0.493945 0.00660517 0)
(0.403527 0.00275407 0)
(0.354852 0.00154543 0)
(0.323619 0.00112661 0)
(0.299865 0.000900846 0)
(0.280882 0.000732037 0)
(0.265495 0.000604137 0)
(0.252824 0.000507344 0)
(0.242241 0.000431137 0)
(0.233329 0.000368311 0)
(0.22581 0.000314611 0)
(0.219486 0.000267411 0)
(0.214214 0.000224975 0)
(0.209884 0.000186187 0)
(0.206403 0.000150519 0)
(0.20368 0.000118152 0)
(0.201607 9.0023e-05 0)
(0.200058 6.74081e-05 0)
(0.198897 5.10782e-05 0)
(0.197999 4.06331e-05 0)
(0.197267 3.45961e-05 0)
(0.196641 3.1142e-05 0)
(0.196089 2.88515e-05 0)
(0.195597 2.69879e-05 0)
(0.195156 2.53659e-05 0)
(0.194759 2.40518e-05 0)
(0.194399 2.31629e-05 0)
(0.194069 2.27661e-05 0)
(0.193761 2.28727e-05 0)
(0.193466 2.34878e-05 0)
(0.19318 2.46381e-05 0)
(0.19289 2.65286e-05 0)
(0.192595 2.92626e-05 0)
(0.192267 3.35477e-05 0)
(0.191913 3.91474e-05 0)
(0.191475 4.80207e-05 0)
(0.190983 5.81438e-05 0)
(0.190317 7.52153e-05 0)
(0.189554 9.14615e-05 0)
(0.188504 0.000123209 0)
(0.18719 0.00014751 0)
(0.185636 0.000206981 0)
(0.183018 0.000242453 0)
(0.181265 0.000358325 0)
(0.175008 0.000399515 0)
(0.175536 0.000676234 0)
(0.15715 0.000614869 0)
(0.172305 8.88951e-05 0)
(0.991208 0.0499568 0)
(0.890909 0.0305649 0)
(0.762458 0.0146117 0)
(0.656502 0.00796889 0)
(0.58544 0.00487268 0)
(0.536178 0.00346047 0)
(0.498484 0.00271467 0)
(0.468173 0.00220806 0)
(0.443332 0.00182895 0)
(0.422687 0.00153846 0)
(0.40533 0.00130832 0)
(0.390636 0.00111822 0)
(0.378175 0.000955289 0)
(0.367645 0.000811418 0)
(0.358824 0.000681422 0)
(0.351543 0.000562328 0)
(0.345656 0.000453277 0)
(0.341011 0.000355573 0)
(0.337433 0.000272187 0)
(0.334713 0.000206172 0)
(0.332636 0.000158565 0)
(0.331007 0.000127253 0)
(0.329677 0.000107755 0)
(0.328553 9.51889e-05 0)
(0.327578 8.59593e-05 0)
(0.326726 7.82119e-05 0)
(0.325978 7.14041e-05 0)
(0.325321 6.55809e-05 0)
(0.324742 6.09276e-05 0)
(0.324227 5.75321e-05 0)
(0.323765 5.54192e-05 0)
(0.323342 5.45637e-05 0)
(0.322951 5.51133e-05 0)
(0.322573 5.73646e-05 0)
(0.322203 6.18043e-05 0)
(0.321808 6.94715e-05 0)
(0.321399 8.06567e-05 0)
(0.320896 9.83471e-05 0)
(0.320354 0.000120174 0)
(0.319607 0.00015605 0)
(0.318771 0.000192484 0)
(0.317593 0.000263274 0)
(0.316107 0.000316741 0)
(0.314369 0.000461772 0)
(0.311227 0.000525762 0)
(0.309376 0.000843787 0)
(0.301528 0.000861666 0)
(0.302591 0.00165848 0)
(0.28007 0.00138022 0)
(0.296558 0.00229958 0)
(1.01554 0.0489554 0)
(1.00648 0.0357275 0)
(0.935857 0.0208214 0)
(0.851976 0.0134958 0)
(0.782235 0.00918664 0)
(0.727191 0.0067592 0)
(0.68231 0.0053453 0)
(0.644898 0.0043809 0)
(0.613418 0.00365689 0)
(0.586721 0.00309459 0)
(0.563923 0.00264409 0)
(0.544375 0.00226941 0)
(0.527609 0.00194657 0)
(0.513286 0.00165999 0)
(0.501155 0.00139967 0)
(0.491021 0.00116014 0)
(0.48271 0.000940316 0)
(0.476042 0.000743405 0)
(0.470796 0.000575459 0)
(0.466716 0.000442037 0)
(0.463532 0.000344448 0)
(0.460997 0.000278173 0)
(0.45892 0.000234659 0)
(0.457171 0.000204907 0)
(0.455671 0.000182305 0)
(0.454371 0.000163314 0)
(0.453242 0.00014669 0)
(0.452259 0.000132265 0)
(0.451401 0.000120201 0)
(0.45065 0.000110563 0)
(0.44999 0.000103402 0)
(0.449401 9.86468e-05 0)
(0.448871 9.6614e-05 0)
(0.448374 9.75603e-05 0)
(0.447904 0.000102473 0)
(0.447419 0.000112357 0)
(0.446934 0.000128409 0)
(0.446361 0.000153997 0)
(0.445768 0.000187338 0)
(0.444969 0.000241716 0)
(0.444111 0.000298914 0)
(0.442905 0.000411386 0)
(0.441414 0.00049442 0)
(0.439674 0.000737822 0)
(0.436503 0.000825478 0)
(0.434642 0.00138399 0)
(0.426762 0.00136631 0)
(0.427348 0.00273462 0)
(0.406015 0.00237406 0)
(0.417661 0.00450591 0)
(1.01435 0.0461001 0)
(1.04797 0.0373456 0)
(1.02454 0.0241901 0)
(0.974641 0.0175547 0)
(0.923461 0.0130942 0)
(0.876809 0.010172 0)
(0.834823 0.00828552 0)
(0.797397 0.00692748 0)
(0.764352 0.00587126 0)
(0.735302 0.00502678 0)
(0.709793 0.00433503 0)
(0.687423 0.00375042 0)
(0.667864 0.00324056 0)
(0.65086 0.00278348 0)
(0.63621 0.00236477 0)
(0.623752 0.00197664 0)
(0.613331 0.00161819 0)
(0.604778 0.00129522 0)
(0.597877 0.00101776 0)
(0.592363 0.000794705 0)
(0.587952 0.000628117 0)
(0.584378 0.000511136 0)
(0.581423 0.000430858 0)
(0.578932 0.000373693 0)
(0.576802 0.000329486 0)
(0.574963 0.000292526 0)
(0.573367 0.000260465 0)
(0.571978 0.000232608 0)
(0.570765 0.000208872 0)
(0.569704 0.000189177 0)
(0.568774 0.000173593 0)
(0.56795 0.000162022 0)
(0.567215 0.000155065 0)
(0.566539 0.000152899 0)
(0.565909 0.000157052 0)
(0.565273 0.00016821 0)
(0.564647 0.00018847 0)
(0.563934 0.000221034 0)
(0.56321 0.000264953 0)
(0.562284 0.000336174 0)
(0.561326 0.000412455 0)
(0.560026 0.000564091 0)
(0.558512 0.000675033 0)
(0.556709 0.00101214 0)
(0.553723 0.00112913 0)
(0.551649 0.00190545 0)
(0.544676 0.00190944 0)
(0.543917 0.00370921 0)
(0.526544 0.00359166 0)
(0.531335 0.0063337 0)
(1.00941 0.04305 0)
(1.05563 0.0371019 0)
(1.05865 0.0253329 0)
(1.03626 0.0197603 0)
(1.00708 0.0157805 0)
(0.976111 0.0128929 0)
(0.944704 0.0108872 0)
(0.914081 0.00935694 0)
(0.885149 0.00810431 0)
(0.858346 0.00705879 0)
(0.833814 0.00617268 0)
(0.811562 0.00540367 0)
(0.791545 0.00471885 0)
(0.773701 0.00409456 0)
(0.757965 0.00351479 0)
(0.744268 0.00297113 0)
(0.732531 0.00246383 0)
(0.72264 0.00200205 0)
(0.71443 0.00160056 0)
(0.707679 0.00127244 0)
(0.702132 0.0010215 0)
(0.697541 0.000839371 0)
(0.693692 0.00070941 0)
(0.690423 0.000613716 0)
(0.687618 0.000538608 0)
(0.685192 0.000476051 0)
(0.683082 0.00042233 0)
(0.681238 0.000375902 0)
(0.679617 0.000336105 0)
(0.678187 0.000302418 0)
(0.676922 0.000274778 0)
(0.675799 0.000253068 0)
(0.674798 0.000238344 0)
(0.673884 0.000230919 0)
(0.673038 0.000233038 0)
(0.672202 0.00024505 0)
(0.671378 0.000269821 0)
(0.670464 0.000309885 0)
(0.66953 0.00036497 0)
(0.668387 0.000452522 0)
(0.667217 0.000547445 0)
(0.665701 0.000733869 0)
(0.664051 0.000873166 0)
(0.662035 0.00128814 0)
(0.659206 0.00144952 0)
(0.656733 0.00238822 0)
(0.65086 0.00249393 0)
(0.648617 0.00454214 0)
(0.635403 0.00490983 0)
(0.634755 0.00786656 0)
(1.00635 0.0401824 0)
(1.0524 0.0361561 0)
(1.06603 0.0252577 0)
(1.05949 0.0205665 0)
(1.04684 0.0172074 0)
(1.0308 0.0146076 0)
(1.01196 0.012736 0)
(0.991424 0.0112532 0)
(0.970306 0.00998011 0)
(0.949387 0.00886755 0)
(0.92917 0.00788635 0)
(0.909989 0.00700563 0)
(0.892067 0.00619878 0)
(0.875553 0.00544569 0)
(0.860545 0.0047326 0)
(0.847104 0.00405301 0)
(0.835252 0.00340985 0)
(0.824966 0.00281641 0)
(0.816165 0.00229272 0)
(0.808705 0.00185686 0)
(0.802402 0.00151544 0)
(0.797059 0.00125996 0)
(0.792495 0.00107127 0)
(0.788567 0.000928084 0)
(0.785165 0.000813809 0)
(0.782205 0.000718453 0)
(0.779616 0.00063713 0)
(0.777339 0.000567421 0)
(0.77532 0.00050783 0)
(0.773517 0.000456964 0)
(0.771902 0.000414201 0)
(0.770449 0.000379179 0)
(0.769146 0.000353475 0)
(0.76796 0.000337931 0)
(0.766871 0.000335979 0)
(0.765815 0.000348119 0)
(0.764779 0.000378108 0)
(0.763653 0.000427611 0)
(0.762483 0.000496662 0)
(0.761086 0.00060275 0)
(0.759633 0.000718987 0)
(0.757818 0.000937561 0)
(0.755905 0.00110857 0)
(0.753562 0.00158389 0)
(0.750712 0.00180503 0)
(0.747784 0.00284947 0)
(0.742707 0.00311596 0)
(0.739323 0.00527386 0)
(0.729258 0.00621427 0)
(0.7254 0.00920379 0)
(1.00506 0.0375056 0)
(1.04762 0.0350587 0)
(1.06393 0.0247117 0)
(1.06414 0.0205994 0)
(1.06063 0.0177469 0)
(1.05472 0.0154479 0)
(1.04597 0.0137876 0)
(1.03485 0.0124628 0)
(1.02211 0.0112895 0)
(1.00838 0.0102245 0)
(0.994195 0.00924999 0)
(0.979958 0.00834469 0)
(0.966006 0.00748889 0)
(0.952609 0.00666779 0)
(0.939976 0.00587183 0)
(0.928266 0.00509814 0)
(0.917593 0.00435334 0)
(0.908019 0.00365514 0)
(0.899555 0.00302888 0)
(0.892152 0.00249793 0)
(0.88571 0.00207268 0)
(0.880106 0.00174592 0)
(0.875213 0.00149741 0)
(0.870924 0.00130367 0)
(0.867154 0.00114604 0)
(0.863836 0.00101334 0)
(0.860912 0.000900191 0)
(0.85832 0.000803874 0)
(0.856001 0.000722246 0)
(0.853904 0.000652765 0)
(0.851992 0.00059361 0)
(0.850244 0.000543529 0)
(0.848651 0.000504252 0)
(0.847197 0.000477394 0)
(0.845868 0.000468184 0)
(0.844607 0.000478318 0)
(0.843387 0.000513124 0)
(0.842089 0.000573988 0)
(0.840728 0.000660927 0)
(0.839121 0.000790514 0)
(0.837399 0.000934079 0)
(0.83529 0.00118669 0)
(0.833049 0.00139549 0)
(0.830345 0.00191945 0)
(0.827293 0.00221125 0)
(0.823929 0.00331912 0)
(0.819237 0.00377413 0)
(0.815095 0.00595768 0)
(0.807073 0.00744382 0)
(0.801661 0.0104173 0)
(1.00451 0.0349701 0)
(1.04358 0.0339798 0)
(1.05991 0.0240623 0)
(1.06218 0.0203119 0)
(1.06245 0.0178138 0)
(1.06176 0.0157286 0)
(1.05918 0.01424 0)
(1.05464 0.0130766 0)
(1.0485 0.0120382 0)
(1.04108 0.0110741 0)
(1.03272 0.0101685 0)
(1.02372 0.0093031 0)
(1.01436 0.00846125 0)
(1.00491 0.00763136 0)
(0.995587 0.00680726 0)
(0.986587 0.00598945 0)
(0.978059 0.00518787 0)
(0.970119 0.00442388 0)
(0.962841 0.00372722 0)
(0.956256 0.00312605 0)
(0.950349 0.00263501 0)
(0.945067 0.00224935 0)
(0.940342 0.00194915 0)
(0.936106 0.00170973 0)
(0.932309 0.00151103 0)
(0.928914 0.00134122 0)
(0.925886 0.00119535 0)
(0.923179 0.00107142 0)
(0.920736 0.000967539 0)
(0.918499 0.000880291 0)
(0.916424 0.000806173 0)
(0.914483 0.000742082 0)
(0.912677 0.000688898 0)
(0.911006 0.000648647 0)
(0.909475 0.000628615 0)
(0.908047 0.000633007 0)
(0.906694 0.000669894 0)
(0.905299 0.000742081 0)
(0.903837 0.000849764 0)
(0.902126 0.00100878 0)
(0.900232 0.00118779 0)
(0.897923 0.00148114 0)
(0.895395 0.00173694 0)
(0.89238 0.00230611 0)
(0.889045 0.00267714 0)
(0.885298 0.00382211 0)
(0.880693 0.0044712 0)
(0.876053 0.00663527 0)
(0.869247 0.00858105 0)
(0.863236 0.011548 0)
(1.00412 0.0325399 0)
(1.04026 0.0329274 0)
(1.05614 0.0234293 0)
(1.05882 0.0199295 0)
(1.06018 0.0176872 0)
(1.06153 0.0157336 0)
(1.06187 0.0143457 0)
(1.06096 0.0132955 0)
(1.05891 0.0123689 0)
(1.05584 0.0115039 0)
(1.05188 0.0106814 0)
(1.04716 0.00988191 0)
(1.04185 0.00908787 0)
(1.03612 0.00828774 0)
(1.03015 0.00747656 0)
(1.0241 0.00665664 0)
(1.01809 0.00583982 0)
(1.01224 0.00504937 0)
(1.00665 0.00431744 0)
(1.0014 0.00367561 0)
(0.996535 0.00314245 0)
(0.992058 0.00271648 0)
(0.987947 0.00237926 0)
(0.984167 0.00210569 0)
(0.980696 0.00187448 0)
(0.977528 0.00167325 0)
(0.974657 0.00149783 0)
(0.972064 0.00134809 0)
(0.969705 0.00122376 0)
(0.967522 0.00112161 0)
(0.965459 0.00103653 0)
(0.963482 0.00096271 0)
(0.961589 0.0008987 0)
(0.959797 0.000845767 0)
(0.958136 0.000812704 0)
(0.956599 0.000807146 0)
(0.955172 0.000841206 0)
(0.953757 0.000921641 0)
(0.952294 0.0010499 0)
(0.950606 0.00124256 0)
(0.948682 0.00146498 0)
(0.946323 0.00180841 0)
(0.943635 0.00212332 0)
(0.940432 0.00274167 0)
(0.936854 0.00320144 0)
(0.932813 0.00437141 0)
(0.928156 0.00520809 0)
(0.923189 0.00733526 0)
(0.917064 0.00963275 0)
(0.910939 0.0126231 0)
(1.00374 0.030206 0)
(1.03726 0.0318794 0)
(1.05281 0.0228275 0)
(1.05559 0.0195295 0)
(1.05709 0.0174993 0)
(1.05899 0.0156347 0)
(1.0604 0.0142945 0)
(1.06106 0.0133071 0)
(1.06104 0.0124523 0)
(1.06039 0.0116582 0)
(1.0591 0.0109029 0)
(1.05722 0.0101648 0)
(1.0548 0.00942398 0)
(1.05192 0.0086671 0)
(1.04868 0.00788869 0)
(1.04516 0.00709146 0)
(1.04145 0.00628764 0)
(1.03764 0.0055005 0)
(1.03381 0.00476234 0)
(1.03004 0.00410609 0)
(1.02643 0.00355327 0)
(1.023 0.00310592 0)
(1.01976 0.00274798 0)
(1.0167 0.00245456 0)
(1.01381 0.00220304 0)
(1.01111 0.00197984 0)
(1.00861 0.00178141 0)
(1.00632 0.00161005 0)
(1.00422 0.00146856 0)
(1.00226 0.00135544 0)
(1.00038 0.00126485 0)
(0.998528 0.00118792 0)
(0.996693 0.00111935 0)
(0.9949 0.00105791 0)
(0.993201 0.00101241 0)
(0.991626 0.000993972 0)
(0.990185 0.00101961 0)
(0.98881 0.00110266 0)
(0.987428 0.00124774 0)
(0.985868 0.0014746 0)
(0.98405 0.0017459 0)
(0.981794 0.00214829 0)
(0.979111 0.00253549 0)
(0.975877 0.00321195 0)
(0.97218 0.00377177 0)
(0.967972 0.00496668 0)
(0.963254 0.00597947 0)
(0.958105 0.00807164 0)
(0.952354 0.0106165 0)
(0.946346 0.0136583 0)
(1.00337 0.0279709 0)
(1.03442 0.0308233 0)
(1.0497 0.0222508 0)
(1.05262 0.0191269 0)
(1.05408 0.0172931 0)
(1.05604 0.015507 0)
(1.05772 0.0141892 0)
(1.0589 0.0132327 0)
(1.05968 0.012418 0)
(1.06011 0.0116662 0)
(1.06017 0.0109542 0)
(1.05984 0.0102599 0)
(1.05913 0.00956154 0)
(1.05805 0.0088439 0)
(1.05664 0.00810055 0)
(1.05494 0.00733402 0)
(1.05297 0.00655615 0)
(1.05077 0.00578889 0)
(1.04842 0.00506276 0)
(1.04597 0.00441008 0)
(1.04352 0.00385402 0)
(1.04113 0.00339997 0)
(1.0388 0.00303484 0)
(1.03652 0.00273448 0)
(1.03431 0.00247472 0)
(1.03217 0.00223999 0)
(1.03015 0.00202644 0)
(1.02827 0.0018388 0)
(1.02654 0.00168396 0)
(1.02491 0.00156383 0)
(1.02332 0.00147315 0)
(1.02171 0.00140034 0)
(1.02004 0.00133515 0)
(1.01836 0.00127199 0)
(1.01671 0.00121764 0)
(1.01517 0.00118578 0)
(1.01377 0.00119842 0)
(1.01247 0.00127752 0)
(1.01122 0.00143306 0)
(1.00985 0.00169078 0)
(1.00823 0.00201265 0)
(1.00619 0.00247994 0)
(1.00366 0.00295105 0)
(1.00054 0.00369653 0)
(0.996875 0.00436812 0)
(0.992647 0.00559665 0)
(0.987937 0.00677311 0)
(0.982745 0.00884441 0)
(0.97723 0.0115497 0)
(0.971442 0.0146615 0)
(1.00301 0.0258381 0)
(1.0317 0.0297552 0)
(1.04671 0.0216953 0)
(1.04983 0.0187215 0)
(1.05126 0.0170753 0)
(1.05318 0.0153724 0)
(1.0549 0.0140704 0)
(1.05619 0.0131305 0)
(1.0572 0.0123392 0)
(1.058 0.0116112 0)
(1.0586 0.010924 0)
(1.05897 0.0102566 0)
(1.0591 0.00958667 0)
(1.05897 0.00889776 0)
(1.0586 0.00818289 0)
(1.05799 0.00744466 0)
(1.05713 0.00669454 0)
(1.05602 0.00595264 0)
(1.0547 0.0052466 0)
(1.05324 0.00460664 0)
(1.05169 0.00405645 0)
(1.05013 0.00360438 0)
(1.04856 0.00324066 0)
(1.04699 0.00294234 0)
(1.04539 0.00268363 0)
(1.04379 0.00244611 0)
(1.04224 0.00222462 0)
(1.04078 0.00202578 0)
(1.03943 0.001861 0)
(1.03816 0.00173696 0)
(1.03689 0.00165046 0)
(1.03556 0.00158798 0)
(1.03413 0.00153387 0)
(1.03262 0.00147662 0)
(1.0311 0.00141886 0)
(1.02964 0.00137533 0)
(1.02831 0.0013724 0)
(1.02712 0.00144167 0)
(1.02601 0.00160056 0)
(1.02484 0.00188314 0)
(1.02346 0.00225366 0)
(1.02168 0.00278786 0)
(1.01939 0.00335097 0)
(1.0165 0.00417543 0)
(1.01299 0.00496873 0)
(1.00888 0.0062443 0)
(1.00427 0.00757262 0)
(0.999171 0.00964308 0)
(0.993861 0.012444 0)
(0.988348 0.0156345 0)
(1.00268 0.0238102 0)
(1.0291 0.0286733 0)
(1.04379 0.0211607 0)
(1.04714 0.0183131 0)
(1.04857 0.0168442 0)
(1.05046 0.0152336 0)
(1.05216 0.0139492 0)
(1.05346 0.0130213 0)
(1.0545 0.0122468 0)
(1.0554 0.0115345 0)
(1.05616 0.0108621 0)
(1.05678 0.010211 0)
(1.05724 0.00955897 0)
(1.05753 0.00888929 0)
(1.05765 0.00819498 0)
(1.05759 0.00747922 0)
(1.05733 0.00675348 0)
(1.05684 0.0060361 0)
(1.05616 0.00535145 0)
(1.05531 0.00472692 0)
(1.05436 0.00418594 0)
(1.05337 0.00373946 0)
(1.05235 0.00338115 0)
(1.05128 0.00308959 0)
(1.05016 0.00283742 0)
(1.049 0.00260289 0)
(1.04784 0.00237861 0)
(1.04673 0.00217242 0)
(1.04571 0.00200023 0)
(1.04474 0.00187428 0)
(1.04376 0.00179464 0)
(1.0427 0.00174679 0)
(1.04151 0.00170971 0)
(1.04019 0.00166502 0)
(1.03882 0.0016095 0)
(1.03747 0.00155734 0)
(1.03624 0.00153825 0)
(1.03515 0.00159355 0)
(1.03417 0.00174955 0)
(1.03318 0.00205019 0)
(1.03202 0.00246517 0)
(1.03051 0.00306487 0)
(1.02849 0.00372371 0)
(1.02586 0.00463432 0)
(1.02259 0.00555561 0)
(1.01869 0.00689242 0)
(1.01428 0.0083614 0)
(1.00937 0.0104516 0)
(1.0043 0.0133048 0)
(0.999093 0.0165736 0)
(1.00238 0.0218888 0)
(1.02663 0.0275769 0)
(1.04097 0.0206466 0)
(1.04453 0.0179033 0)
(1.04598 0.0165986 0)
(1.04783 0.0150892 0)
(1.04953 0.0138267 0)
(1.05082 0.01291 0)
(1.05186 0.0121509 0)
(1.05275 0.0114518 0)
(1.05354 0.0107905 0)
(1.05422 0.0101506 0)
(1.05478 0.00951088 0)
(1.05521 0.00885459 0)
(1.05552 0.00817521 0)
(1.0557 0.00747689 0)
(1.0557 0.00677144 0)
(1.05553 0.00607569 0)
(1.05516 0.00541079 0)
(1.05465 0.00480112 0)
(1.05405 0.00426951 0)
(1.0534 0.00382923 0)
(1.05271 0.00347734 0)
(1.05197 0.00319413 0)
(1.05116 0.00295078 0)
(1.0503 0.00272206 0)
(1.04942 0.00249789 0)
(1.04857 0.00228673 0)
(1.04778 0.00210877 0)
(1.04704 0.00198204 0)
(1.04628 0.00191062 0)
(1.04543 0.00187973 0)
(1.04443 0.00186329 0)
(1.04329 0.00183572 0)
(1.04206 0.00178692 0)
(1.04083 0.00172923 0)
(1.0397 0.00169476 0)
(1.03871 0.00173393 0)
(1.03784 0.00188275 0)
(1.03699 0.00219553 0)
(1.036 0.00265012 0)
(1.0347 0.00331174 0)
(1.03292 0.00406611 0)
(1.03055 0.00506657 0)
(1.02755 0.00611756 0)
(1.02391 0.00752755 0)
(1.01976 0.00912601 0)
(1.01513 0.0112534 0)
(1.01033 0.0141326 0)
(1.00547 0.0174723 0)
(1.0021 0.0200749 0)
(1.0243 0.0264679 0)
(1.03824 0.0201508 0)
(1.042 0.0174942 0)
(1.04347 0.0163385 0)
(1.0453 0.0149378 0)
(1.047 0.0137025 0)
(1.04828 0.0127971 0)
(1.0493 0.0120532 0)
(1.05018 0.0113674 0)
(1.05096 0.0107163 0)
(1.05164 0.0100861 0)
(1.05221 0.0094565 0)
(1.05268 0.00881095 0)
(1.05304 0.00814362 0)
(1.05329 0.00745979 0)
(1.0534 0.00677176 0)
(1.05334 0.00609503 0)
(1.05313 0.00544776 0)
(1.05278 0.00485147 0)
(1.05235 0.00432836 0)
(1.05187 0.00389383 0)
(1.05136 0.00354813 0)
(1.0508 0.00327321 0)
(1.05017 0.00303893 0)
(1.04949 0.00281671 0)
(1.04878 0.00259376 0)
(1.0481 0.00237887 0)
(1.04747 0.0021962 0)
(1.04687 0.00206945 0)
(1.04625 0.00200682 0)
(1.04553 0.00199373 0)
(1.04468 0.00199939 0)
(1.04367 0.00199111 0)
(1.04256 0.00195167 0)
(1.04145 0.00189079 0)
(1.04041 0.00184236 0)
(1.0395 0.00186499 0)
(1.03871 0.00200463 0)
(1.03795 0.00232555 0)
(1.03707 0.00281549 0)
(1.03592 0.00353465 0)
(1.03434 0.00438143 0)
(1.03219 0.00547204 0)
(1.02944 0.00664975 0)
(1.02608 0.00814092 0)
(1.02221 0.00985716 0)
(1.0179 0.0120339 0)
(1.01342 0.0149248 0)
(1.00892 0.0183235 0)
(1.00185 0.0183689 0)
(1.0221 0.0253503 0)
(1.03561 0.0196695 0)
(1.03956 0.0170874 0)
(1.04106 0.0160646 0)
(1.04285 0.0147785 0)
(1.04455 0.013576 0)
(1.04583 0.0126822 0)
(1.04684 0.0119538 0)
(1.0477 0.0112819 0)
(1.04847 0.0106415 0)
(1.04913 0.0100208 0)
(1.04969 0.00940066 0)
(1.05015 0.00876502 0)
(1.05052 0.00810871 0)
(1.05078 0.00743815 0)
(1.05091 0.00676608 0)
(1.0509 0.00610669 0)
(1.05074 0.00547542 0)
(1.05046 0.00489124 0)
(1.0501 0.00437588 0)
(1.04971 0.00394671 0)
(1.04928 0.00360682 0)
(1.0488 0.00333962 0)
(1.04827 0.00311373 0)
(1.04768 0.00289752 0)
(1.04708 0.00267581 0)
(1.0465 0.0024578 0)
(1.04595 0.00227132 0)
(1.04544 0.00214532 0)
(1.04489 0.00209183 0)
(1.04426 0.00209645 0)
(1.04348 0.00212407 0)
(1.04257 0.00213526 0)
(1.04156 0.00210598 0)
(1.04054 0.00204323 0)
(1.03958 0.00198242 0)
(1.03874 0.00198944 0)
(1.038 0.00211996 0)
(1.03729 0.00244721 0)
(1.03648 0.00296961 0)
(1.03542 0.00374223 0)
(1.03396 0.00467656 0)
(1.03199 0.00585507 0)
(1.02946 0.00715276 0)
(1.02636 0.00872851 0)
(1.02278 0.0105499 0)
(1.01882 0.012782 0)
(1.01468 0.0156774 0)
(1.01057 0.0191209 0)
(1.00162 0.0167703 0)
(1.02003 0.0242284 0)
(1.03307 0.0191988 0)
(1.03721 0.0166845 0)
(1.03874 0.015778 0)
(1.04049 0.0146109 0)
(1.04218 0.0134469 0)
(1.04347 0.0125653 0)
(1.04447 0.0118525 0)
(1.04532 0.0111953 0)
(1.04606 0.0105662 0)
(1.04671 0.00995514 0)
(1.04725 0.00934458 0)
(1.04771 0.00871879 0)
(1.04806 0.00807341 0)
(1.04832 0.00741586 0)
(1.04845 0.00675915 0)
(1.04844 0.00611617 0)
(1.0483 0.00549985 0)
(1.04805 0.00492701 0)
(1.04773 0.00441909 0)
(1.04736 0.0039953 0)
(1.04696 0.00366115 0)
(1.04652 0.00340114 0)
(1.04603 0.00318266 0)
(1.0455 0.00297151 0)
(1.04495 0.00275061 0)
(1.04443 0.00252986 0)
(1.04393 0.00234056 0)
(1.04345 0.0022163 0)
(1.04294 0.00217236 0)
(1.04234 0.00219422 0)
(1.04161 0.00224263 0)
(1.04076 0.00227205 0)
(1.03983 0.00225234 0)
(1.03888 0.00218812 0)
(1.038 0.00211647 0)
(1.03721 0.00210971 0)
(1.0365 0.00223283 0)
(1.03581 0.00256656 0)
(1.03502 0.00311997 0)
(1.03401 0.00394281 0)
(1.03263 0.00495903 0)
(1.03079 0.00622145 0)
(1.02845 0.00762978 0)
(1.02558 0.00928943 0)
(1.02229 0.0112028 0)
(1.01867 0.0134909 0)
(1.0149 0.0163869 0)
(1.01117 0.0198598 0)
(1.00142 0.0152785 0)
(1.01811 0.0231062 0)
(1.03065 0.0187346 0)
(1.03495 0.0162871 0)
(1.03651 0.01548 0)
(1.03822 0.0144342 0)
(1.03991 0.013315 0)
(1.0412 0.0124465 0)
(1.04219 0.0117491 0)
(1.04302 0.0111074 0)
(1.04375 0.0104903 0)
(1.04438 0.00988929 0)
(1.04491 0.00928844 0)
(1.04535 0.00867269 0)
(1.0457 0.00803848 0)
(1.04594 0.00739408 0)
(1.04606 0.00675257 0)
(1.04604 0.00612546 0)
(1.04591 0.00552342 0)
(1.04567 0.00496149 0)
(1.04537 0.0044611 0)
(1.04502 0.00404307 0)
(1.04463 0.00371488 0)
(1.0442 0.0034617 0)
(1.04373 0.0032497 0)
(1.04322 0.00304255 0)
(1.04271 0.00282193 0)
(1.04222 0.00259885 0)
(1.04175 0.00240786 0)
(1.04129 0.0022866 0)
(1.04078 0.00225275 0)
(1.0402 0.00229119 0)
(1.03949 0.00235872 0)
(1.03868 0.00240428 0)
(1.03781 0.00239269 0)
(1.03693 0.00232679 0)
(1.0361 0.00224574 0)
(1.03536 0.00222764 0)
(1.03467 0.00234615 0)
(1.03399 0.002688 0)
(1.0332 0.00327212 0)
(1.0322 0.00414276 0)
(1.03087 0.0052349 0)
(1.02912 0.006576 0)
(1.02693 0.00808404 0)
(1.02428 0.00982355 0)
(1.02127 0.0118158 0)
(1.01798 0.014156 0)
(1.01457 0.0170499 0)
(1.01124 0.0205368 0)
(1.00124 0.0138921 0)
(1.01631 0.0219878 0)
(1.02833 0.0182732 0)
(1.03277 0.0158963 0)
(1.03438 0.0151722 0)
(1.03605 0.0142479 0)
(1.03772 0.0131799 0)
(1.03901 0.0123259 0)
(1.04 0.0116437 0)
(1.04082 0.0110181 0)
(1.04153 0.0104137 0)
(1.04214 0.00982315 0)
(1.04266 0.00923222 0)
(1.04309 0.00862677 0)
(1.04342 0.00800406 0)
(1.04365 0.00737308 0)
(1.04376 0.00674673 0)
(1.04374 0.00613512 0)
(1.04361 0.00554687 0)
(1.04338 0.00499567 0)
(1.04309 0.00450308 0)
(1.04275 0.00409138 0)
(1.04236 0.00376954 0)
(1.04194 0.00352294 0)
(1.04147 0.00331657 0)
(1.04098 0.00311243 0)
(1.0405 0.00289165 0)
(1.04003 0.00266673 0)
(1.03957 0.00247537 0)
(1.03911 0.00235849 0)
(1.03861 0.00233534 0)
(1.03802 0.00238965 0)
(1.03733 0.00247434 0)
(1.03655 0.00253356 0)
(1.03573 0.00252819 0)
(1.03491 0.00246012 0)
(1.03413 0.00237111 0)
(1.03343 0.00234444 0)
(1.03275 0.00246173 0)
(1.03207 0.00281423 0)
(1.03126 0.00342952 0)
(1.03026 0.00434619 0)
(1.02895 0.00550831 0)
(1.02728 0.00692227 0)
(1.02522 0.00851844 0)
(1.02278 0.0103312 0)
(1.02002 0.0123891 0)
(1.01706 0.0147743 0)
(1.01401 0.0176629 0)
(1.01108 0.0211488 0)
(1.00107 0.0126089 0)
(1.01466 0.0208772 0)
(1.02612 0.0178111 0)
(1.03068 0.0155131 0)
(1.03234 0.0148564 0)
(1.03397 0.0140516 0)
(1.03562 0.0130411 0)
(1.03691 0.0122035 0)
(1.03789 0.0115362 0)
(1.0387 0.0109272 0)
(1.0394 0.0103364 0)
(1.04 0.00975666 0)
(1.04051 0.00917588 0)
(1.04092 0.00858102 0)
(1.04124 0.00797016 0)
(1.04146 0.00735288 0)
(1.04156 0.00674167 0)
(1.04153 0.00614524 0)
(1.0414 0.0055704 0)
(1.04118 0.00502982 0)
(1.0409 0.00454541 0)
(1.04056 0.00414068 0)
(1.04018 0.0038256 0)
(1.03975 0.0035854 0)
(1.0393 0.00338387 0)
(1.03882 0.00318186 0)
(1.03836 0.0029606 0)
(1.0379 0.00273446 0)
(1.03746 0.0025441 0)
(1.037 0.00243304 0)
(1.03649 0.00242119 0)
(1.03589 0.00249057 0)
(1.03521 0.00259035 0)
(1.03446 0.0026606 0)
(1.03368 0.00265941 0)
(1.03292 0.00258861 0)
(1.03219 0.00249306 0)
(1.03152 0.0024608 0)
(1.03086 0.00258051 0)
(1.03016 0.00294664 0)
(1.02934 0.00359388 0)
(1.02833 0.00455517 0)
(1.02704 0.00578147 0)
(1.02544 0.007262 0)
(1.02349 0.00893467 0)
(1.02124 0.0108123 0)
(1.01874 0.0129233 0)
(1.01608 0.015344 0)
(1.01339 0.0182232 0)
(1.01084 0.0216936 0)
(1.00093 0.0114264 0)
(1.01313 0.0197785 0)
(1.02402 0.0173453 0)
(1.02868 0.015138 0)
(1.0304 0.0145348 0)
(1.03198 0.0138451 0)
(1.03361 0.012898 0)
(1.03491 0.0120792 0)
(1.03588 0.0114267 0)
(1.03668 0.0108348 0)
(1.03737 0.0102581 0)
(1.03795 0.00968977 0)
(1.03845 0.00911941 0)
(1.03885 0.00853541 0)
(1.03916 0.00793677 0)
(1.03936 0.00733343 0)
(1.03945 0.00673736 0)
(1.03942 0.00615579 0)
(1.0393 0.00559403 0)
(1.03908 0.00506405 0)
(1.0388 0.00458823 0)
(1.03847 0.00419109 0)
(1.03809 0.00388316 0)
(1.03767 0.00364915 0)
(1.03722 0.00345173 0)
(1.03676 0.00325106 0)
(1.03631 0.00302912 0)
(1.03587 0.00280249 0)
(1.03543 0.00261455 0)
(1.03497 0.00251068 0)
(1.03445 0.00251065 0)
(1.03385 0.00259421 0)
(1.03318 0.00270694 0)
(1.03246 0.00278558 0)
(1.03172 0.00278655 0)
(1.03101 0.00271252 0)
(1.03033 0.0026119 0)
(1.02968 0.00257706 0)
(1.02903 0.00270286 0)
(1.02833 0.0030857 0)
(1.02749 0.00376573 0)
(1.02647 0.0047703 0)
(1.0252 0.00605507 0)
(1.02365 0.00759555 0)
(1.02183 0.00933336 0)
(1.01976 0.0112664 0)
(1.01749 0.0134185 0)
(1.01513 0.015864 0)
(1.01278 0.0187282 0)
(1.01061 0.0221695 0)
(1.0008 0.0103414 0)
(1.01173 0.0186959 0)
(1.02204 0.0168731 0)
(1.02676 0.0147713 0)
(1.02854 0.0142093 0)
(1.03009 0.0136282 0)
(1.03169 0.0127501 0)
(1.03299 0.0119532 0)
(1.03396 0.0113153 0)
(1.03475 0.0107405 0)
(1.03542 0.0101789 0)
(1.03599 0.00962241 0)
(1.03648 0.00906275 0)
(1.03687 0.00848994 0)
(1.03716 0.00790386 0)
(1.03736 0.0073147 0)
(1.03744 0.00673372 0)
(1.03741 0.00616674 0)
(1.03728 0.00561776 0)
(1.03708 0.00509839 0)
(1.0368 0.00463158 0)
(1.03647 0.00424264 0)
(1.0361 0.00394218 0)
(1.03568 0.00371413 0)
(1.03523 0.00352011 0)
(1.03479 0.00332009 0)
(1.03435 0.00309738 0)
(1.03393 0.00287104 0)
(1.0335 0.00268693 0)
(1.03303 0.00259156 0)
(1.0325 0.00260374 0)
(1.0319 0.0027005 0)
(1.03124 0.00282402 0)
(1.03055 0.00290846 0)
(1.02985 0.00290968 0)
(1.02918 0.00283201 0)
(1.02855 0.00272782 0)
(1.02793 0.00269341 0)
(1.02729 0.00282882 0)
(1.02658 0.00323135 0)
(1.02573 0.00394488 0)
(1.0247 0.0049913 0)
(1.02345 0.00632889 0)
(1.02197 0.00792245 0)
(1.02026 0.00971443 0)
(1.01836 0.0116928 0)
(1.01632 0.0138744 0)
(1.01425 0.0163334 0)
(1.01223 0.0191758 0)
(1.01042 0.0225746 0)
(1.00069 0.00934993 0)
(1.01045 0.0176334 0)
(1.02017 0.0163922 0)
(1.02493 0.0144131 0)
(1.02678 0.0138819 0)
(1.02829 0.0134013 0)
(1.02985 0.0125967 0)
(1.03115 0.0118252 0)
(1.03213 0.011202 0)
(1.0329 0.0106445 0)
(1.03356 0.0100986 0)
(1.03413 0.00955451 0)
(1.0346 0.00900589 0)
(1.03498 0.00844457 0)
(1.03526 0.00787139 0)
(1.03544 0.00729663 0)
(1.03552 0.0067307 0)
(1.03549 0.00617803 0)
(1.03536 0.00564157 0)
(1.03516 0.00513286 0)
(1.0349 0.00467548 0)
(1.03457 0.00429529 0)
(1.0342 0.00400258 0)
(1.03378 0.00378023 0)
(1.03335 0.00358892 0)
(1.03291 0.00338895 0)
(1.03249 0.00316547 0)
(1.03208 0.00294028 0)
(1.03166 0.00276137 0)
(1.03119 0.00267569 0)
(1.03065 0.00270034 0)
(1.03005 0.00280922 0)
(1.0294 0.00294135 0)
(1.02874 0.00302908 0)
(1.02808 0.00302877 0)
(1.02746 0.00294718 0)
(1.02686 0.00284095 0)
(1.02627 0.00280992 0)
(1.02564 0.0029583 0)
(1.02492 0.00338326 0)
(1.02407 0.00413077 0)
(1.02304 0.00521739 0)
(1.02181 0.00660224 0)
(1.0204 0.00824174 0)
(1.0188 0.0100774 0)
(1.01707 0.0120904 0)
(1.01525 0.0142904 0)
(1.01345 0.0167513 0)
(1.01175 0.0195638 0)
(1.0103 0.0229072 0)
(1.0006 0.00844779 0)
(1.00929 0.0165951 0)
(1.01841 0.0159008 0)
(1.02319 0.0140629 0)
(1.0251 0.0135546 0)
(1.02658 0.0131647 0)
(1.02811 0.0124373 0)
(1.0294 0.0116952 0)
(1.03038 0.0110868 0)
(1.03115 0.0105466 0)
(1.03179 0.010017 0)
(1.03235 0.009486 0)
(1.03281 0.00894878 0)
(1.03318 0.00839927 0)
(1.03345 0.00783933 0)
(1.03362 0.00727917 0)
(1.03369 0.00672822 0)
(1.03366 0.0061896 0)
(1.03354 0.00566545 0)
(1.03334 0.00516747 0)
(1.03308 0.00471997 0)
(1.03276 0.00434904 0)
(1.03239 0.0040643 0)
(1.03198 0.00384732 0)
(1.03156 0.00365807 0)
(1.03114 0.00345763 0)
(1.03073 0.00323349 0)
(1.03033 0.00301032 0)
(1.02991 0.00283795 0)
(1.02943 0.00276303 0)
(1.0289 0.00280026 0)
(1.0283 0.00292009 0)
(1.02766 0.00305866 0)
(1.02702 0.00314728 0)
(1.02641 0.00314379 0)
(1.02583 0.00305813 0)
(1.02527 0.00295141 0)
(1.0247 0.00292661 0)
(1.02408 0.00309107 0)
(1.02336 0.00354093 0)
(1.0225 0.00432265 0)
(1.02148 0.00544756 0)
(1.02028 0.00687413 0)
(1.01893 0.0085523 0)
(1.01745 0.0104214 0)
(1.01588 0.0124585 0)
(1.01428 0.0146659 0)
(1.01274 0.017117 0)
(1.01134 0.0198904 0)
(1.01023 0.0231659 0)
(1.00051 0.00763018 0)
(1.00824 0.0155848 0)
(1.01676 0.0153976 0)
(1.02152 0.0137203 0)
(1.02351 0.013229 0)
(1.02496 0.0129193 0)
(1.02645 0.0122714 0)
(1.02774 0.0115628 0)
(1.02871 0.01097 0)
(1.02947 0.0104469 0)
(1.03011 0.00993414 0)
(1.03065 0.00941677 0)
(1.0311 0.00889137 0)
(1.03146 0.00835401 0)
(1.03173 0.00780763 0)
(1.03189 0.00726226 0)