/*--------------------------------*- C++ -*----------------------------------*\
  =========                 |
  \\      /  F ield         | OpenFOAM: The Open Source CFD Toolbox
   \\    /   O peration     | Website:  https://openfoam.org
    \\  /    A nd           | Version:  7
     \\/     M anipulation  |
\*---------------------------------------------------------------------------*/
FoamFile
{
    version     2.0;
    format      ascii;
    class       volVectorField;
    location    "0.01";
    object      U_0;
}
// * * * * * * * * * * * * * * * * * * * * * * * * * * * * * * * * * * * * * //

dimensions      [0 1 -1 0 0 0 0];

internalField   nonuniform List<vector> 
70000
(
(0.553411 0.0169783 0)
(0.251406 0.00340059 0)
(0.165907 0.000319096 0)
(0.132423 4.90836e-05 0)
(0.117331 4.40486e-05 0)
(0.107402 5.21022e-05 0)
(0.0994822 4.41748e-05 0)
(0.0931188 3.49404e-05 0)
(0.0879894 2.87129e-05 0)
(0.0837764 2.43603e-05 0)
(0.080259 2.09577e-05 0)
(0.077297 1.81596e-05 0)
(0.0747966 1.58158e-05 0)
(0.0726905 1.38251e-05 0)
(0.0709291 1.20969e-05 0)
(0.0694751 1.05297e-05 0)
(0.0682988 9.00198e-06 0)
(0.0673731 7.41228e-06 0)
(0.0666678 5.76964e-06 0)
(0.0661449 4.23439e-06 0)
(0.0657594 3.02945e-06 0)
(0.0654662 2.28601e-06 0)
(0.0652282 1.96778e-06 0)
(0.0650215 1.92035e-06 0)
(0.0648336 1.98457e-06 0)
(0.0646597 2.06544e-06 0)
(0.0644978 2.14313e-06 0)
(0.0643461 2.23282e-06 0)
(0.0642022 2.36201e-06 0)
(0.064063 2.54968e-06 0)
(0.0639255 2.79652e-06 0)
(0.0637864 3.11106e-06 0)
(0.0636436 3.4672e-06 0)
(0.0634923 3.92764e-06 0)
(0.0633309 4.4154e-06 0)
(0.0631486 5.1724e-06 0)
(0.0629462 5.89039e-06 0)
(0.0626988 7.28897e-06 0)
(0.0624163 8.3376e-06 0)
(0.0620481 1.09095e-05 0)
(0.061621 1.23396e-05 0)
(0.0610572 1.66129e-05 0)
(0.0603629 1.90633e-05 0)
(0.0595376 2.45089e-05 0)
(0.0582675 3.2109e-05 0)
(0.0572723 3.28122e-05 0)
(0.0544815 6.19735e-05 0)
(0.0543352 3.46546e-05 0)
(0.0462388 0.000121292 0)
(0.053033 -0.00079257 0)
(0.884861 0.0434939 0)
(0.650131 0.0201499 0)
(0.493946 0.00660515 0)
(0.403529 0.00275404 0)
(0.354854 0.00154538 0)
(0.323622 0.00112655 0)
(0.299869 0.000900771 0)
(0.280888 0.000731942 0)
(0.265504 0.000604019 0)
(0.252835 0.000507197 0)
(0.242255 0.000430958 0)
(0.233348 0.000368094 0)
(0.225834 0.000314352 0)
(0.219516 0.000267106 0)
(0.21425 0.000224619 0)
(0.209928 0.00018578 0)
(0.206457 0.000150069 0)
(0.203743 0.000117681 0)
(0.201679 8.95703e-05 0)
(0.200138 6.70163e-05 0)
(0.198984 5.07732e-05 0)
(0.19809 4.04116e-05 0)
(0.197361 3.4431e-05 0)
(0.196738 3.10001e-05 0)
(0.196188 2.87094e-05 0)
(0.195699 2.68355e-05 0)
(0.19526 2.52025e-05 0)
(0.194866 2.38791e-05 0)
(0.194509 2.29806e-05 0)
(0.194182 2.25702e-05 0)
(0.193876 2.26562e-05 0)
(0.193585 2.32431e-05 0)
(0.193303 2.43594e-05 0)
(0.193018 2.62129e-05 0)
(0.192727 2.89104e-05 0)
(0.192404 3.31602e-05 0)
(0.192056 3.87275e-05 0)
(0.191623 4.75653e-05 0)
(0.191138 5.7651e-05 0)
(0.190479 7.46732e-05 0)
(0.189723 9.08564e-05 0)
(0.188682 0.000122542 0)
(0.187378 0.000146744 0)
(0.185834 0.000206177 0)
(0.183227 0.000241518 0)
(0.181486 0.00035743 0)
(0.175241 0.000398422 0)
(0.175784 0.000675199 0)
(0.157412 0.000613886 0)
(0.172573 9.08038e-05 0)
(0.991208 0.0499568 0)
(0.890909 0.0305648 0)
(0.762459 0.0146117 0)
(0.656503 0.0079688 0)
(0.585443 0.00487256 0)
(0.536182 0.00346031 0)
(0.49849 0.00271447 0)
(0.468182 0.0022078 0)
(0.443343 0.00182862 0)
(0.422702 0.00153804 0)
(0.40535 0.0013078 0)
(0.390662 0.00111759 0)
(0.378209 0.000954522 0)
(0.367688 0.000810501 0)
(0.358878 0.000680345 0)
(0.35161 0.000561099 0)
(0.345737 0.000451936 0)
(0.341108 0.000354204 0)
(0.337543 0.000270905 0)
(0.334836 0.000205085 0)
(0.332768 0.000157722 0)
(0.331146 0.000126631 0)
(0.329823 0.000107277 0)
(0.328702 9.47718e-05 0)
(0.327732 8.55473e-05 0)
(0.326884 7.77805e-05 0)
(0.32614 7.09491e-05 0)
(0.325487 6.51034e-05 0)
(0.324912 6.04246e-05 0)
(0.324401 5.69934e-05 0)
(0.323944 5.4829e-05 0)
(0.323526 5.39052e-05 0)
(0.32314 5.43726e-05 0)
(0.322768 5.65329e-05 0)
(0.322405 6.08773e-05 0)
(0.322017 6.84459e-05 0)
(0.321615 7.95305e-05 0)
(0.321121 9.71081e-05 0)
(0.320588 0.00011881 0)
(0.319851 0.000154532 0)
(0.319027 0.000190787 0)
(0.317862 0.000261383 0)
(0.316389 0.000314609 0)
(0.314667 0.000459482 0)
(0.311542 0.000523129 0)
(0.309709 0.00084121 0)
(0.30188 0.000858508 0)
(0.302964 0.00165543 0)
(0.28047 0.00137707 0)
(0.296962 0.00229832 0)
(1.01554 0.0489554 0)
(1.00648 0.0357274 0)
(0.935857 0.0208213 0)
(0.851977 0.0134956 0)
(0.782238 0.00918644 0)
(0.727195 0.00675893 0)
(0.682316 0.00534494 0)
(0.644907 0.00438043 0)
(0.61343 0.00365628 0)
(0.586738 0.00309382 0)
(0.563946 0.00264312 0)
(0.544406 0.00226822 0)
(0.527649 0.0019451 0)
(0.513338 0.00165821 0)
(0.50122 0.00139757 0)
(0.491101 0.00115774 0)
(0.482809 0.000937694 0)
(0.476159 0.000740739 0)
(0.470931 0.000572974 0)
(0.466867 0.000439927 0)
(0.463695 0.000342798 0)
(0.46117 0.000276932 0)
(0.459101 0.000233689 0)
(0.457358 0.000204063 0)
(0.455864 0.000181486 0)
(0.45457 0.000162474 0)
(0.453446 0.000145817 0)
(0.452468 0.000131356 0)
(0.451616 0.000119249 0)
(0.450871 0.000109552 0)
(0.450216 0.000102309 0)
(0.449633 9.74455e-05 0)
(0.449109 9.52809e-05 0)
(0.448618 9.60766e-05 0)
(0.448156 0.000100823 0)
(0.447679 0.000110525 0)
(0.447203 0.000126377 0)
(0.446639 0.000151737 0)
(0.446056 0.000184819 0)
(0.44527 0.000238887 0)
(0.444425 0.00029574 0)
(0.443234 0.000407824 0)
(0.441761 0.000490427 0)
(0.440039 0.000733484 0)
(0.43689 0.000820528 0)
(0.43505 0.001379 0)
(0.427196 0.00136039 0)
(0.427804 0.00272836 0)
(0.406512 0.00236812 0)
(0.418156 0.00449817 0)
(1.01435 0.0461001 0)
(1.04797 0.0373455 0)
(1.02454 0.02419 0)
(0.974642 0.0175545 0)
(0.923463 0.013094 0)
(0.876812 0.0101716 0)
(0.834828 0.00828499 0)
(0.797405 0.00692678 0)
(0.764364 0.00587036 0)
(0.735318 0.00502561 0)
(0.709816 0.00433355 0)
(0.687453 0.00374857 0)
(0.667904 0.00323829 0)
(0.650912 0.00278071 0)
(0.636277 0.00236146 0)
(0.623836 0.00197283 0)
(0.613435 0.00161402 0)
(0.604902 0.00129097 0)
(0.598021 0.00101378 0)
(0.592525 0.000791295 0)
(0.588129 0.000625406 0)
(0.584567 0.000509052 0)
(0.581622 0.000429202 0)
(0.57914 0.000372254 0)
(0.577016 0.000328116 0)
(0.575184 0.000291152 0)
(0.573595 0.00025906 0)
(0.572212 0.000231159 0)
(0.571006 0.000207365 0)
(0.569951 0.000187589 0)
(0.569027 0.000171895 0)
(0.56821 0.000160186 0)
(0.567482 0.000153061 0)
(0.566813 0.000150701 0)
(0.56619 0.000154631 0)
(0.565562 0.000165526 0)
(0.564944 0.000185478 0)
(0.56424 0.000217674 0)
(0.563526 0.000261164 0)
(0.562613 0.000331869 0)
(0.561669 0.00040759 0)
(0.560385 0.000558582 0)
(0.55889 0.000668856 0)
(0.557107 0.00100537 0)
(0.554145 0.00112146 0)
(0.552093 0.00189748 0)
(0.545151 0.00190039 0)
(0.544414 0.00369889 0)
(0.52709 0.00358212 0)
(0.531883 0.00631879 0)
(1.00941 0.04305 0)
(1.05563 0.0371018 0)
(1.05865 0.0253327 0)
(1.03626 0.01976 0)
(1.00709 0.0157801 0)
(0.976114 0.0128924 0)
(0.944708 0.0108865 0)
(0.914087 0.00935602 0)
(0.885159 0.00810311 0)
(0.85836 0.00705724 0)
(0.833834 0.00617069 0)
(0.811589 0.00540116 0)
(0.791581 0.00471575 0)
(0.773749 0.00409076 0)
(0.758027 0.00351023 0)
(0.744346 0.00296585 0)
(0.732628 0.00245802 0)
(0.722758 0.00199609 0)
(0.714568 0.00159492 0)
(0.707835 0.00126754 0)
(0.702305 0.00101752 0)
(0.697727 0.000836241 0)
(0.69389 0.000706874 0)
(0.690631 0.000611506 0)
(0.687834 0.000536534 0)
(0.685417 0.000474014 0)
(0.683315 0.000420288 0)
(0.681477 0.000373824 0)
(0.679863 0.000333961 0)
(0.67844 0.000300169 0)
(0.677182 0.000272389 0)
(0.676066 0.000250513 0)
(0.675072 0.000235604 0)
(0.674166 0.000227974 0)
(0.673328 0.000229851 0)
(0.672499 0.000241564 0)
(0.671682 0.00026595 0)
(0.670776 0.000305519 0)
(0.66985 0.000359991 0)
(0.668718 0.000446785 0)
(0.667559 0.000540879 0)
(0.666059 0.000726337 0)
(0.664427 0.000864668 0)
(0.662431 0.00127871 0)
(0.659627 0.00143891 0)
(0.657177 0.0023769 0)
(0.651336 0.00248147 0)
(0.649117 0.00452745 0)
(0.635951 0.00489572 0)
(0.635315 0.00784505 0)
(1.00635 0.0401824 0)
(1.0524 0.036156 0)
(1.06603 0.0252575 0)
(1.05949 0.0205662 0)
(1.04684 0.017207 0)
(1.0308 0.014607 0)
(1.01196 0.0127352 0)
(0.991429 0.0112521 0)
(0.970313 0.00997866 0)
(0.949397 0.00886565 0)
(0.929186 0.0078839 0)
(0.910011 0.00700253 0)
(0.892097 0.0061949 0)
(0.875592 0.00544093 0)
(0.860597 0.00472687 0)
(0.84717 0.00404634 0)
(0.835335 0.00340247 0)
(0.825067 0.00280876 0)
(0.816285 0.00228541 0)
(0.808843 0.00185041 0)
(0.802556 0.0015101 0)
(0.797226 0.00125565 0)
(0.792675 0.0010677 0)
(0.788757 0.000924944 0)
(0.785365 0.000810877 0)
(0.782414 0.000715622 0)
(0.779835 0.000634349 0)
(0.777565 0.000564645 0)
(0.775553 0.000504998 0)
(0.773757 0.000454007 0)
(0.772148 0.000411061 0)
(0.770704 0.000375829 0)
(0.769408 0.000349916 0)
(0.76823 0.000334177 0)
(0.767149 0.000332017 0)
(0.766101 0.000343896 0)
(0.765071 0.000373506 0)
(0.76395 0.00042246 0)
(0.762786 0.00049076 0)
(0.761397 0.000595852 0)
(0.759953 0.000710956 0)
(0.758149 0.000928178 0)
(0.756251 0.00109784 0)
(0.753926 0.0015718 0)
(0.7511 0.0017914 0)
(0.748195 0.00283464 0)
(0.743149 0.00309982 0)
(0.739791 0.00525477 0)
(0.729769 0.00619495 0)
(0.725934 0.00917617 0)
(1.00506 0.0375055 0)
(1.04762 0.0350586 0)
(1.06393 0.0247115 0)
(1.06414 0.0205991 0)
(1.06063 0.0177465 0)
(1.05472 0.0154472 0)
(1.04597 0.0137867 0)
(1.03485 0.0124615 0)
(1.02211 0.0112878 0)
(1.00839 0.0102223 0)
(0.994207 0.00924716 0)
(0.979974 0.00834108 0)
(0.966028 0.00748437 0)
(0.952638 0.00666221 0)
(0.940015 0.00586509 0)
(0.928317 0.00509028 0)
(0.917657 0.00434458 0)
(0.908099 0.00364599 0)
(0.89965 0.00302003 0)
(0.892262 0.00249 0)
(0.885835 0.002066 0)
(0.880244 0.00174041 0)
(0.875363 0.00149275 0)
(0.871084 0.0012995 0)
(0.867324 0.00114214 0)
(0.864017 0.00100959 0)
(0.861102 0.000896569 0)
(0.858518 0.00080034 0)
(0.856206 0.000718711 0)
(0.854116 0.000649108 0)
(0.85221 0.000589716 0)
(0.850469 0.000539342 0)
(0.848884 0.000499787 0)
(0.847439 0.000472718 0)
(0.846119 0.000463356 0)
(0.844866 0.000473344 0)
(0.843652 0.000507901 0)
(0.842359 0.000568302 0)
(0.841001 0.000654481 0)
(0.839397 0.000782922 0)
(0.83768 0.000925069 0)
(0.835576 0.00117591 0)
(0.833347 0.00138288 0)
(0.830656 0.00190495 0)
(0.827624 0.00219474 0)
(0.824281 0.00330082 0)
(0.819618 0.00375416 0)
(0.815503 0.00593421 0)
(0.807521 0.00741904 0)
(0.802136 0.010384 0)
(1.00451 0.03497 0)
(1.04358 0.0339797 0)
(1.05991 0.0240621 0)
(1.06218 0.0203116 0)
(1.06245 0.0178133 0)
(1.06176 0.0157279 0)
(1.05918 0.0142391 0)
(1.05464 0.0130753 0)
(1.0485 0.0120364 0)
(1.04109 0.0110718 0)
(1.03273 0.0101654 0)
(1.02373 0.00929912 0)
(1.01438 0.00845622 0)
(1.00493 0.00762513 0)
(0.995614 0.00679974 0)
(0.986623 0.00598065 0)
(0.978105 0.00517802 0)
(0.970175 0.00441352 0)
(0.962909 0.00371708 0)
(0.956337 0.00311684 0)
(0.950442 0.00262711 0)
(0.945171 0.00224273 0)
(0.940456 0.00194345 0)
(0.93623 0.00170455 0)
(0.932442 0.0015061 0)
(0.929057 0.00133647 0)
(0.926039 0.0011908 0)
(0.92334 0.00106707 0)
(0.920905 0.000963305 0)
(0.918674 0.000875994 0)
(0.916603 0.000801606 0)
(0.914669 0.000737104 0)
(0.91287 0.000683493 0)
(0.911207 0.000642929 0)
(0.909686 0.000622752 0)
(0.908268 0.000627136 0)
(0.906922 0.000664013 0)
(0.905532 0.000736003 0)
(0.904072 0.000843124 0)
(0.902361 0.00100103 0)
(0.900466 0.00117847 0)
(0.898157 0.00146968 0)
(0.895633 0.00172311 0)
(0.892627 0.00228976 0)
(0.889305 0.00265813 0)
(0.885576 0.00380061 0)
(0.880996 0.00444746 0)
(0.876382 0.00660749 0)
(0.869612 0.00855086 0)
(0.86363 0.0115093 0)
(1.00412 0.0325398 0)
(1.04026 0.0329273 0)
(1.05614 0.0234291 0)
(1.05883 0.0199292 0)
(1.06018 0.0176867 0)
(1.06153 0.0157329 0)
(1.06188 0.0143447 0)
(1.06096 0.0132941 0)
(1.05891 0.012367 0)
(1.05585 0.0115014 0)
(1.05188 0.0106781 0)
(1.04716 0.00987768 0)
(1.04186 0.0090825 0)
(1.03613 0.00828107 0)
(1.03017 0.0074685 0)
(1.02412 0.0066472 0)
(1.01812 0.00582922 0)
(1.01227 0.00503812 0)
(1.00669 0.00430631 0)
(1.00145 0.00366536 0)
(0.996597 0.00313354 0)
(0.99213 0.00270891 0)
(0.988026 0.00237267 0)
(0.984254 0.00209962 0)
(0.980791 0.00186862 0)
(0.977632 0.00166749 0)
(0.97477 0.00149229 0)
(0.972186 0.00134287 0)
(0.969834 0.00121883 0)
(0.967657 0.00111676 0)
(0.965598 0.00103144 0)
(0.963624 0.000957097 0)
(0.961736 0.000892436 0)
(0.959952 0.000838958 0)
(0.958301 0.000805624 0)
(0.956775 0.000800127 0)
(0.955359 0.00083445 0)
(0.95395 0.000915107 0)
(0.95249 0.00104325 0)
(0.9508 0.00123512 0)
(0.948871 0.00145605 0)
(0.946506 0.00179714 0)
(0.943815 0.0021092 0)
(0.940613 0.00272434 0)
(0.93704 0.00318065 0)
(0.933012 0.00434727 0)
(0.928375 0.00518091 0)
(0.923431 0.00730339 0)
(0.917338 0.00959738 0)
(0.911242 0.0125795 0)
(1.00374 0.030206 0)
(1.03726 0.0318792 0)
(1.05281 0.0228273 0)
(1.05559 0.0195291 0)
(1.05709 0.0174988 0)
(1.05899 0.015634 0)
(1.0604 0.0142934 0)
(1.06106 0.0133056 0)
(1.06104 0.0124503 0)
(1.06039 0.0116556 0)
(1.05911 0.0108995 0)
(1.05723 0.0101604 0)
(1.05481 0.0094184 0)
(1.05193 0.00866015 0)
(1.04869 0.00788029 0)
(1.04518 0.00708163 0)
(1.04147 0.0062766 0)
(1.03766 0.00548872 0)
(1.03383 0.00475055 0)
(1.03007 0.00409506 0)
(1.02647 0.00354356 0)
(1.02305 0.00309761 0)
(1.01981 0.00274072 0)
(1.01676 0.00244782 0)
(1.01388 0.00219639 0)
(1.01118 0.00197318 0)
(1.00868 0.00177488 0)
(1.0064 0.00160391 0)
(1.00432 0.00146291 0)
(1.00236 0.00135012 0)
(1.00048 0.00125944 0)
(0.99863 0.00118192 0)
(0.996797 0.00111244 0)
(0.99501 0.00105009 0)
(0.993321 0.00100401 0)
(0.991757 0.000985536 0)
(0.990329 0.00101164 0)
(0.988964 0.0010954 0)
(0.987585 0.00124102 0)
(0.986024 0.00146772 0)
(0.9842 0.00173795 0)
(0.981933 0.00213809 0)
(0.97924 0.00252211 0)
(0.975999 0.00319472 0)
(0.9723 0.00375019 0)
(0.968097 0.0049407 0)
(0.963392 0.00594942 0)
(0.958262 0.0080361 0)
(0.952538 0.0105764 0)
(0.946556 0.0136103 0)
(1.00337 0.0279709 0)
(1.03442 0.0308232 0)
(1.0497 0.0222505 0)
(1.05262 0.0191265 0)
(1.05408 0.0172926 0)
(1.05604 0.0155062 0)
(1.05772 0.0141881 0)
(1.0589 0.0132312 0)
(1.05968 0.012416 0)
(1.06011 0.0116635 0)
(1.06017 0.0109507 0)
(1.05984 0.0102554 0)
(1.05913 0.00955584 0)
(1.05806 0.00883679 0)
(1.05665 0.00809197 0)
(1.05494 0.00732402 0)
(1.05298 0.00654493 0)
(1.05078 0.00577686 0)
(1.04843 0.00505059 0)
(1.04599 0.00439855 0)
(1.04354 0.00384374 0)
(1.04115 0.00339112 0)
(1.03882 0.00302711 0)
(1.03656 0.00272729 0)
(1.03434 0.00246753 0)
(1.03221 0.00223258 0)
(1.03019 0.002019 0)
(1.02832 0.00183174 0)
(1.0266 0.00167759 0)
(1.02498 0.00155809 0)
(1.02339 0.00146758 0)
(1.02177 0.00139422 0)
(1.02011 0.00132789 0)
(1.01843 0.00126336 0)
(1.01679 0.00120794 0)
(1.01526 0.00117573 0)
(1.01387 0.00118888 0)
(1.01259 0.00126914 0)
(1.01134 0.001426 0)
(1.00997 0.00168447 0)
(1.00835 0.00200603 0)
(1.00629 0.00247151 0)
(1.00375 0.0029394 0)
(1.00061 0.00368051 0)
(0.99694 0.00434687 0)
(0.99271 0.00556986 0)
(0.988006 0.006741 0)
(0.982828 0.00880581 0)
(0.977334 0.0115054 0)
(0.97157 0.0146095 0)
(1.00301 0.0258381 0)
(1.0317 0.0297551 0)
(1.04671 0.021695 0)
(1.04983 0.0187211 0)
(1.05126 0.0170747 0)
(1.05318 0.0153716 0)
(1.0549 0.0140693 0)
(1.05619 0.0131289 0)
(1.0572 0.0123371 0)
(1.058 0.0116085 0)
(1.0586 0.0109205 0)
(1.05897 0.0102521 0)
(1.0591 0.00958092 0)
(1.05898 0.00889057 0)
(1.05861 0.00817424 0)
(1.05799 0.00743463 0)
(1.05713 0.00668332 0)
(1.05603 0.00594058 0)
(1.05471 0.00523428 0)
(1.05324 0.0045948 0)
(1.0517 0.00404576 0)
(1.05014 0.00359516 0)
(1.04858 0.00323266 0)
(1.047 0.00293492 0)
(1.04541 0.0026761 0)
(1.04381 0.00243814 0)
(1.04227 0.00221638 0)
(1.04082 0.00201784 0)
(1.03947 0.00185391 0)
(1.0382 0.00173085 0)
(1.03693 0.00164488 0)
(1.0356 0.00158202 0)
(1.03418 0.00152657 0)
(1.03267 0.00146745 0)
(1.03115 0.00140798 0)
(1.0297 0.00136358 0)
(1.02839 0.00136101 0)
(1.02721 0.00143177 0)
(1.02611 0.00159278 0)
(1.02494 0.00187719 0)
(1.02355 0.00224849 0)
(1.02176 0.00278168 0)
(1.01946 0.00334185 0)
(1.01654 0.00416167 0)
(1.01302 0.00494895 0)
(1.0089 0.0062178 0)
(1.00429 0.0075394 0)
(0.999195 0.00960218 0)
(0.993902 0.0123962 0)
(0.988408 0.015579 0)
(1.00268 0.0238101 0)
(1.0291 0.0286732 0)
(1.04379 0.0211604 0)
(1.04714 0.0183127 0)
(1.04857 0.0168436 0)
(1.05046 0.0152328 0)
(1.05216 0.0139481 0)
(1.05346 0.0130197 0)
(1.0545 0.0122447 0)
(1.0554 0.0115317 0)
(1.05616 0.0108586 0)
(1.05678 0.0102065 0)
(1.05724 0.00955319 0)
(1.05753 0.00888206 0)
(1.05765 0.0081863 0)
(1.05759 0.00746923 0)
(1.05733 0.00674237 0)
(1.05685 0.00602415 0)
(1.05616 0.00533913 0)
(1.05531 0.00471492 0)
(1.05436 0.00417498 0)
(1.05337 0.00372998 0)
(1.05235 0.003373 0)
(1.05129 0.00308211 0)
(1.05017 0.00282976 0)
(1.04901 0.00259454 0)
(1.04785 0.0023697 0)
(1.04675 0.00216365 0)
(1.04573 0.00199243 0)
(1.04477 0.00186783 0)
(1.04379 0.00178915 0)
(1.04273 0.00174118 0)
(1.04153 0.00170265 0)
(1.04021 0.0016556 0)
(1.03884 0.00159763 0)
(1.03751 0.0015439 0)
(1.03629 0.00152482 0)
(1.03522 0.0015818 0)
(1.03425 0.00174067 0)
(1.03327 0.00204433 0)
(1.0321 0.00246137 0)
(1.03057 0.00306117 0)
(1.02853 0.00371767 0)
(1.02588 0.00462363 0)
(1.02259 0.00553825 0)
(1.01868 0.00686717 0)
(1.01426 0.00832797 0)
(1.00936 0.0104092 0)
(1.00429 0.0132542 0)
(0.999105 0.0165152 0)
(1.00238 0.0218887 0)
(1.02663 0.0275768 0)
(1.04097 0.0206463 0)
(1.04453 0.0179029 0)
(1.04598 0.016598 0)
(1.04783 0.0150883 0)
(1.04953 0.0138256 0)
(1.05082 0.0129084 0)
(1.05186 0.0121487 0)
(1.05275 0.011449 0)
(1.05354 0.0107869 0)
(1.05422 0.010146 0)
(1.05478 0.00950508 0)
(1.05522 0.00884734 0)
(1.05553 0.00816654 0)
(1.0557 0.00746698 0)
(1.05571 0.00676049 0)
(1.05553 0.00606391 0)
(1.05516 0.00539855 0)
(1.05465 0.00478905 0)
(1.05405 0.00425837 0)
(1.0534 0.00381959 0)
(1.05271 0.00346914 0)
(1.05197 0.0031867 0)
(1.05116 0.00294311 0)
(1.0503 0.00271346 0)
(1.04942 0.00248842 0)
(1.04858 0.00227721 0)
(1.0478 0.00210029 0)
(1.04706 0.00197528 0)
(1.0463 0.00190529 0)
(1.04544 0.0018746 0)
(1.04444 0.00185668 0)
(1.0433 0.00182626 0)
(1.04207 0.00177423 0)
(1.04085 0.00171417 0)
(1.03974 0.00167922 0)
(1.03876 0.00172013 0)
(1.0379 0.00187249 0)
(1.03706 0.00218948 0)
(1.03606 0.00264754 0)
(1.03475 0.00331055 0)
(1.03296 0.00406344 0)
(1.03057 0.00505945 0)
(1.02754 0.0061033 0)
(1.02388 0.00750434 0)
(1.01972 0.00909314 0)
(1.01509 0.0112101 0)
(1.0103 0.0140798 0)
(1.00545 0.0174113 0)
(1.0021 0.0200749 0)
(1.0243 0.0264677 0)
(1.03824 0.0201504 0)
(1.042 0.0174937 0)
(1.04347 0.0163379 0)
(1.0453 0.0149369 0)
(1.047 0.0137013 0)
(1.04829 0.0127954 0)
(1.0493 0.012051 0)
(1.05018 0.0113645 0)
(1.05096 0.0107128 0)
(1.05164 0.0100816 0)
(1.05221 0.00945069 0)
(1.05268 0.00880369 0)
(1.05305 0.00813497 0)
(1.05329 0.00744997 0)
(1.0534 0.006761 0)
(1.05334 0.00608346 0)
(1.05312 0.00543565 0)
(1.05278 0.00483938 0)
(1.05234 0.0043171 0)
(1.05187 0.00388407 0)
(1.05136 0.00353994 0)
(1.0508 0.00326588 0)
(1.05017 0.00303131 0)
(1.04949 0.00280793 0)
(1.04878 0.0025838 0)
(1.04811 0.00236866 0)
(1.04748 0.0021871 0)
(1.04688 0.00206241 0)
(1.04626 0.00200169 0)
(1.04555 0.00198914 0)
(1.04468 0.0019933 0)
(1.04367 0.00198173 0)
(1.04257 0.00193828 0)
(1.04146 0.00187421 0)
(1.04044 0.00182473 0)
(1.03954 0.00184906 0)
(1.03876 0.00199283 0)
(1.03801 0.00231909 0)
(1.03713 0.00281394 0)
(1.03597 0.00353588 0)
(1.03437 0.00438218 0)
(1.0322 0.00546871 0)
(1.02943 0.00663896 0)
(1.02604 0.00812022 0)
(1.02216 0.00982537 0)
(1.01785 0.0119902 0)
(1.01338 0.0148704 0)
(1.00889 0.0182603 0)
(1.00185 0.0183688 0)
(1.0221 0.0253501 0)
(1.03561 0.0196692 0)
(1.03956 0.0170869 0)
(1.04106 0.016064 0)
(1.04285 0.0147776 0)
(1.04455 0.0135747 0)
(1.04584 0.0126805 0)
(1.04684 0.0119516 0)
(1.04771 0.011279 0)
(1.04847 0.0106379 0)
(1.04913 0.0100162 0)
(1.04969 0.00939483 0)
(1.05016 0.00875775 0)
(1.05053 0.0081001 0)
(1.05079 0.00742845 0)
(1.05092 0.0067555 0)
(1.0509 0.00609532 0)
(1.05074 0.00546343 0)
(1.05046 0.00487914 0)
(1.0501 0.00436453 0)
(1.04971 0.00393687 0)
(1.04928 0.00359866 0)
(1.0488 0.0033324 0)
(1.04826 0.00310617 0)
(1.04768 0.00288859 0)
(1.04708 0.0026654 0)
(1.0465 0.00244697 0)
(1.04596 0.00226167 0)
(1.04545 0.00213806 0)
(1.0449 0.00208692 0)
(1.04426 0.00209241 0)
(1.04349 0.00211852 0)
(1.04257 0.00212599 0)
(1.04156 0.00209196 0)
(1.04055 0.0020252 0)
(1.0396 0.00196277 0)
(1.03877 0.00197141 0)
(1.03804 0.0021066 0)
(1.03734 0.00244026 0)
(1.03653 0.00296894 0)
(1.03546 0.00374573 0)
(1.03399 0.00468062 0)
(1.032 0.00585551 0)
(1.02945 0.00714552 0)
(1.02632 0.0087105 0)
(1.02274 0.0105194 0)
(1.01877 0.0127383 0)
(1.01464 0.0156216 0)
(1.01053 0.0190557 0)
(1.00162 0.0167702 0)
(1.02003 0.0242282 0)
(1.03307 0.0191985 0)
(1.03721 0.016684 0)
(1.03874 0.0157773 0)
(1.04049 0.0146099 0)
(1.04218 0.0134456 0)
(1.04347 0.0125636 0)
(1.04447 0.0118502 0)
(1.04532 0.0111924 0)
(1.04606 0.0105626 0)
(1.04671 0.00995056 0)
(1.04726 0.00933873 0)
(1.04771 0.00871151 0)
(1.04807 0.00806482 0)
(1.04832 0.00740627 0)
(1.04845 0.00674875 0)
(1.04844 0.00610499 0)
(1.04829 0.00548797 0)
(1.04804 0.00491491 0)
(1.04772 0.00440768 0)
(1.04736 0.00398543 0)
(1.04696 0.00365304 0)
(1.04652 0.00339402 0)
(1.04603 0.00317514 0)
(1.04549 0.0029624 0)
(1.04495 0.00273978 0)
(1.04443 0.00251847 0)
(1.04394 0.00233043 0)
(1.04346 0.00220888 0)
(1.04295 0.00216769 0)
(1.04235 0.00219069 0)
(1.04162 0.00223757 0)
(1.04076 0.00226283 0)
(1.03983 0.00223767 0)
(1.03889 0.0021687 0)
(1.03802 0.0020949 0)
(1.03724 0.00208971 0)
(1.03654 0.00221799 0)
(1.03586 0.00255912 0)
(1.03508 0.00312009 0)
(1.03405 0.00394839 0)
(1.03266 0.00496617 0)
(1.0308 0.00622543 0)
(1.02843 0.00762593 0)
(1.02555 0.00927403 0)
(1.02225 0.0111738 0)
(1.01863 0.0134473 0)
(1.01486 0.01633 0)
(1.01114 0.0197927 0)
(1.00142 0.0152784 0)
(1.01811 0.023106 0)
(1.03065 0.0187343 0)
(1.03495 0.0162866 0)
(1.03651 0.0154792 0)
(1.03822 0.0144332 0)
(1.03991 0.0133137 0)
(1.0412 0.0124448 0)
(1.04219 0.0117467 0)
(1.04302 0.0111045 0)
(1.04375 0.0104866 0)
(1.04438 0.00988469 0)
(1.04491 0.00928257 0)
(1.04535 0.0086654 0)
(1.0457 0.00802993 0)
(1.04594 0.0073846 0)
(1.04606 0.00674234 0)
(1.04604 0.00611445 0)
(1.04591 0.00551164 0)
(1.04567 0.00494941 0)
(1.04537 0.00444964 0)
(1.04502 0.00403318 0)
(1.04463 0.00370683 0)
(1.0442 0.00345466 0)
(1.04373 0.00324217 0)
(1.04322 0.00303324 0)
(1.04271 0.00281069 0)
(1.04222 0.00258694 0)
(1.04176 0.00239733 0)
(1.0413 0.00227907 0)
(1.04079 0.00224832 0)
(1.0402 0.00228812 0)
(1.0395 0.00235402 0)
(1.03869 0.00239502 0)
(1.03781 0.00237732 0)
(1.03694 0.002306 0)
(1.03613 0.00222238 0)
(1.03539 0.00220584 0)
(1.03471 0.00232998 0)
(1.03404 0.00268013 0)
(1.03325 0.00327297 0)
(1.03224 0.00415023 0)
(1.03089 0.00524481 0)
(1.02913 0.00658317 0)
(1.02692 0.00808321 0)
(1.02426 0.00981047 0)
(1.02124 0.0117879 0)
(1.01795 0.0141125 0)
(1.01454 0.0169918 0)
(1.01122 0.0204677 0)
(1.00124 0.013892 0)
(1.01631 0.0219876 0)
(1.02833 0.0182728 0)
(1.03277 0.0158957 0)
(1.03438 0.0151714 0)
(1.03605 0.0142469 0)
(1.03772 0.0131786 0)
(1.03901 0.0123241 0)
(1.04 0.0116413 0)
(1.04082 0.0110151 0)
(1.04153 0.01041 0)
(1.04215 0.00981852 0)
(1.04267 0.00922632 0)
(1.04309 0.00861948 0)
(1.04342 0.00799556 0)
(1.04365 0.00736372 0)
(1.04376 0.00673666 0)
(1.04374 0.00612425 0)
(1.04361 0.00553517 0)
(1.04338 0.00498359 0)
(1.04309 0.0044916 0)
(1.04274 0.00408151 0)
(1.04236 0.00376154 0)
(1.04193 0.00351596 0)
(1.04147 0.00330899 0)
(1.04098 0.00310287 0)
(1.0405 0.00288 0)
(1.04003 0.00265437 0)
(1.03958 0.00246452 0)
(1.03912 0.00235091 0)
(1.03862 0.00233115 0)
(1.03802 0.00238695 0)
(1.03733 0.00246987 0)
(1.03655 0.00252411 0)
(1.03573 0.00251204 0)
(1.03492 0.002438 0)
(1.03416 0.00234608 0)
(1.03346 0.00232103 0)
(1.0328 0.00244443 0)
(1.03211 0.00280607 0)
(1.03131 0.00343109 0)
(1.0303 0.00435537 0)
(1.02898 0.00552067 0)
(1.02729 0.0069322 0)
(1.02522 0.00852019 0)
(1.02277 0.01032 0)
(1.02 0.0123621 0)
(1.01704 0.0147305 0)
(1.014 0.0176035 0)
(1.01107 0.0210776 0)
(1.00107 0.0126088 0)
(1.01466 0.020877 0)
(1.02612 0.0178107 0)
(1.03068 0.0155125 0)
(1.03234 0.0148557 0)
(1.03397 0.0140506 0)
(1.03562 0.0130397 0)
(1.03692 0.0122016 0)
(1.0379 0.0115337 0)
(1.03871 0.0109242 0)
(1.03941 0.0103326 0)
(1.04001 0.009752 0)
(1.04051 0.00916997 0)
(1.04093 0.00857373 0)
(1.04124 0.00796172 0)
(1.04146 0.00734363 0)
(1.04156 0.00673175 0)
(1.04154 0.0061345 0)
(1.0414 0.00555877 0)
(1.04118 0.00501775 0)
(1.0409 0.00453393 0)
(1.04056 0.00413084 0)
(1.04018 0.00381766 0)
(1.03975 0.00357844 0)
(1.0393 0.00337618 0)
(1.03882 0.00317202 0)
(1.03836 0.00294854 0)
(1.03791 0.0027217 0)
(1.03747 0.00253301 0)
(1.03701 0.00242547 0)
(1.03649 0.00241723 0)
(1.0359 0.00248815 0)
(1.03522 0.00258596 0)
(1.03447 0.00265081 0)
(1.03369 0.0026424 0)
(1.03293 0.00256518 0)
(1.03222 0.00246651 0)
(1.03155 0.00243599 0)
(1.0309 0.00256229 0)
(1.0302 0.00293832 0)
(1.02938 0.00359616 0)
(1.02836 0.00456587 0)
(1.02707 0.00579592 0)
(1.02545 0.00727421 0)
(1.0235 0.00893847 0)
(1.02124 0.0108026 0)
(1.01873 0.0128969 0)
(1.01607 0.0152998 0)
(1.01338 0.0181624 0)
(1.01084 0.0216203 0)
(1.00093 0.0114263 0)
(1.01313 0.0197783 0)
(1.02402 0.0173449 0)
(1.02868 0.0151374 0)
(1.0304 0.014534 0)
(1.03198 0.013844 0)
(1.03361 0.0128966 0)
(1.03491 0.0120773 0)
(1.03588 0.0114242 0)
(1.03668 0.0108317 0)
(1.03737 0.0102544 0)
(1.03796 0.00968507 0)
(1.03845 0.00911346 0)
(1.03885 0.00852813 0)
(1.03916 0.00792839 0)
(1.03936 0.00732429 0)
(1.03945 0.00672757 0)
(1.03942 0.00614517 0)
(1.0393 0.00558246 0)
(1.03908 0.00505199 0)
(1.0388 0.00457677 0)
(1.03847 0.0041813 0)
(1.03809 0.00387528 0)
(1.03767 0.00364218 0)
(1.03722 0.00344388 0)
(1.03676 0.00324091 0)
(1.03631 0.00301666 0)
(1.03588 0.00278937 0)
(1.03544 0.00260329 0)
(1.03498 0.00250317 0)
(1.03445 0.0025069 0)
(1.03386 0.00259197 0)
(1.03318 0.00270249 0)
(1.03247 0.0027753 0)
(1.03173 0.00276861 0)
(1.03102 0.0026878 0)
(1.03035 0.00258397 0)
(1.02972 0.00255108 0)
(1.02907 0.00268395 0)
(1.02837 0.00307737 0)
(1.02753 0.00376872 0)
(1.0265 0.00478234 0)
(1.02522 0.00607125 0)
(1.02367 0.00760956 0)
(1.02184 0.00933868 0)
(1.01976 0.0112576 0)
(1.01749 0.0133922 0)
(1.01514 0.0158191 0)
(1.01279 0.0186659 0)
(1.01063 0.0220938 0)
(1.0008 0.0103413 0)
(1.01173 0.0186956 0)
(1.02204 0.0168727 0)
(1.02676 0.0147707 0)
(1.02854 0.0142085 0)
(1.03009 0.0136271 0)
(1.03169 0.0127486 0)
(1.03299 0.0119512 0)
(1.03396 0.0113127 0)
(1.03475 0.0107374 0)
(1.03542 0.0101751 0)
(1.036 0.00961768 0)
(1.03648 0.00905678 0)
(1.03687 0.00848266 0)
(1.03717 0.00789554 0)
(1.03736 0.00730567 0)
(1.03744 0.00672406 0)
(1.03741 0.00615621 0)
(1.03728 0.00560623 0)
(1.03708 0.00508635 0)
(1.0368 0.00462015 0)
(1.03647 0.00423291 0)
(1.0361 0.00393434 0)
(1.03568 0.00370711 0)
(1.03523 0.00351205 0)
(1.03479 0.0033096 0)
(1.03436 0.00308453 0)
(1.03394 0.00285763 0)
(1.03351 0.00267556 0)
(1.03304 0.00258414 0)
(1.03251 0.00260017 0)
(1.03191 0.00269834 0)
(1.03125 0.00281934 0)
(1.03056 0.00289755 0)
(1.02987 0.00289071 0)
(1.02921 0.00280604 0)
(1.02858 0.00269865 0)
(1.02797 0.00266646 0)
(1.02733 0.00280944 0)
(1.02662 0.00322314 0)
(1.02577 0.00394858 0)
(1.02473 0.00500449 0)
(1.02348 0.00634646 0)
(1.02199 0.00793777 0)
(1.02027 0.00972073 0)
(1.01837 0.0116844 0)
(1.01634 0.0138477 0)
(1.01427 0.0162873 0)
(1.01225 0.0191116 0)
(1.01046 0.0224964 0)
(1.00069 0.00934983 0)
(1.01045 0.0176331 0)
(1.02017 0.0163918 0)
(1.02493 0.0144125 0)
(1.02678 0.0138811 0)
(1.02829 0.0134002 0)
(1.02986 0.0125952 0)
(1.03115 0.0118232 0)
(1.03213 0.0111994 0)
(1.0329 0.0106414 0)
(1.03357 0.0100947 0)
(1.03413 0.00954974 0)
(1.0346 0.0089999 0)
(1.03498 0.0084373 0)
(1.03526 0.00786314 0)
(1.03545 0.00728771 0)
(1.03552 0.00672114 0)
(1.03549 0.00616756 0)
(1.03537 0.00563008 0)
(1.03516 0.00512085 0)
(1.0349 0.00466411 0)
(1.03457 0.00428564 0)
(1.0342 0.00399478 0)
(1.03378 0.00377311 0)
(1.03335 0.00358061 0)
(1.03292 0.00337809 0)
(1.0325 0.00315225 0)
(1.03209 0.00292662 0)
(1.03166 0.00274997 0)
(1.03119 0.0026684 0)
(1.03066 0.00269691 0)
(1.03006 0.00280702 0)
(1.02941 0.0029363 0)
(1.02875 0.0030174 0)
(1.0281 0.00300872 0)
(1.02748 0.00291999 0)
(1.02689 0.00281068 0)
(1.02631 0.00278221 0)
(1.02568 0.00293864 0)
(1.02496 0.0033753 0)
(1.0241 0.00413516 0)
(1.02307 0.00523154 0)
(1.02184 0.00662083 0)
(1.02042 0.00825791 0)
(1.01882 0.0100841 0)
(1.01709 0.012082 0)
(1.01527 0.0142629 0)
(1.01348 0.0167038 0)
(1.01178 0.0194975 0)
(1.01034 0.0228264 0)
(1.0006 0.00844769 0)
(1.00929 0.0165948 0)
(1.01841 0.0159003 0)
(1.02319 0.0140623 0)
(1.0251 0.0135537 0)
(1.02658 0.0131636 0)
(1.02811 0.0124357 0)
(1.0294 0.0116931 0)
(1.03038 0.0110842 0)
(1.03115 0.0105434 0)
(1.0318 0.0100132 0)
(1.03235 0.00948119 0)
(1.03281 0.00894276 0)
(1.03318 0.00839202 0)
(1.03345 0.00783114 0)
(1.03363 0.00727035 0)
(1.03369 0.00671876 0)
(1.03366 0.00617919 0)
(1.03354 0.00565398 0)
(1.03335 0.0051555 0)
(1.03308 0.00470866 0)
(1.03276 0.00433946 0)
(1.03239 0.00405651 0)
(1.03198 0.00384008 0)
(1.03156 0.00364948 0)
(1.03114 0.00344637 0)
(1.03074 0.00321991 0)
(1.03034 0.00299647 0)
(1.02991 0.00282656 0)
(1.02944 0.00275589 0)
(1.0289 0.00279693 0)
(1.02831 0.00291775 0)
(1.02767 0.00305309 0)
(1.02704 0.00313471 0)
(1.02643 0.0031226 0)
(1.02585 0.00302977 0)
(1.0253 0.00292018 0)
(1.02474 0.00289835 0)
(1.02412 0.00307133 0)
(1.0234 0.00353333 0)
(1.02253 0.00432771 0)
(1.02151 0.0054625 0)
(1.02031 0.0068934 0)
(1.01896 0.00856886 0)
(1.01747 0.0104281 0)
(1.01591 0.0124494 0)
(1.01431 0.0146372 0)
(1.01278 0.0170678 0)
(1.01139 0.0198219 0)
(1.01029 0.0230821 0)
(1.00051 0.00763007 0)
(1.00824 0.0155845 0)
(1.01676 0.0153972 0)
(1.02152 0.0137196 0)
(1.02351 0.0132281 0)
(1.02496 0.0129181 0)
(1.02645 0.0122698 0)
(1.02774 0.0115607 0)
(1.02871 0.0109673 0)
(1.02948 0.0104436 0)
(1.03011 0.00993023 0)
(1.03066 0.00941192 0)
(1.03111 0.00888532 0)
(1.03147 0.00834678 0)
(1.03173 0.00779951 0)
(1.0319 0.00725354 0)
(1.03196 0.00671685 0)
(1.03192 0.00619102 0)