/*--------------------------------*- C++ -*----------------------------------*\
  =========                 |
  \\      /  F ield         | OpenFOAM: The Open Source CFD Toolbox
   \\    /   O peration     | Website:  https://openfoam.org
    \\  /    A nd           | Version:  7
     \\/     M anipulation  |
\*---------------------------------------------------------------------------*/
FoamFile
{
    version     2.0;
    format      ascii;
    class       volVectorField;
    location    "0.01";
    object      vorticity;
}
// * * * * * * * * * * * * * * * * * * * * * * * * * * * * * * * * * * * * * //

dimensions      [0 0 -1 0 0 0 0];

internalField   nonuniform List<vector> 
70000
(
(0 -0 -45715.9)
(0 -0 -28616.7)
(0 -0 -20911.6)
(0 -0 -16978.2)
(0 -0 -14958.3)
(0 -0 -13654.6)
(0 -0 -12651.2)
(0 -0 -11848.1)
(0 -0 -11198.1)
(0 -0 -10663.2)
(0 -0 -10216.5)
(0 -0 -9840.26)
(0 -0 -9522.78)
(0 -0 -9255.65)
(0 -0 -9032.74)
(0 -0 -8849.4)
(0 -0 -8701.76)
(0 -0 -8586.04)
(0 -0 -8497.92)
(0 -0 -8432.19)
(0 -0 -8383.12)
(0 -0 -8345.31)
(0 -0 -8314.55)
(0 -0 -8288.13)
(0 -0 -8264.67)
(0 -0 -8243.52)
(0 -0 -8224.38)
(0 -0 -8206.96)
(0 -0 -8190.95)
(0 -0 -8176.02)
(0 -0 -8161.83)
(0 -0 -8148.02)
(0 -0 -8134.35)
(0 -0 -8120.29)
(0 -0 -8105.7)
(0 -0 -8089.43)
(0 -0 -8071.68)
(0 -0 -8049.79)
(0 -0 -8025.1)
(0 -0 -7992.15)
(0 -0 -7954.21)
(0 -0 -7902.84)
(0 -0 -7838.91)
(0 -0 -7763.18)
(0 -0 -7639.59)
(0 -0 -7552.01)
(0 -0 -7264.82)
(0 -0 -7276.31)
(0 -0 -6438.88)
(0 -0 -7038.79)
(0 -0 -13549.7)
(0 -0 -19947.2)
(0 -0 -18535.6)
(0 -0 -16249)
(0 -0 -14504)
(0 -0 -13282.5)
(0 -0 -12359)
(0 -0 -11616.5)
(0 -0 -11005.6)
(0 -0 -10496.4)
(0 -0 -10067.6)
(0 -0 -9704.14)
(0 -0 -9395.65)
(0 -0 -9134.78)
(0 -0 -8916.22)
(0 -0 -8735.86)
(0 -0 -8590.09)
(0 -0 -8475.07)
(0 -0 -8386.23)
(0 -0 -8318.33)
(0 -0 -8266.05)
(0 -0 -8224.76)
(0 -0 -8191.03)
(0 -0 -8162.66)
(0 -0 -8138.36)
(0 -0 -8117.39)
(0 -0 -8099.29)
(0 -0 -8083.67)
(0 -0 -8070.21)
(0 -0 -8058.61)
(0 -0 -8048.58)
(0 -0 -8039.84)
(0 -0 -8032.16)
(0 -0 -8025.15)
(0 -0 -8018.74)
(0 -0 -8012.16)
(0 -0 -8005.76)
(0 -0 -7997.86)
(0 -0 -7989.79)
(0 -0 -7978.01)
(0 -0 -7965.28)
(0 -0 -7946.16)
(0 -0 -7921.42)
(0 -0 -7892.99)
(0 -0 -7834.55)
(0 -0 -7807.85)
(0 -0 -7649.93)
(0 -0 -7687.96)
(0 -0 -7241.37)
(0 -0 -7467.78)
(0 -0 -3818.82)
(0 -0 -10829)
(0 -0 -13363.4)
(0 -0 -13519.2)
(0 -0 -12865.7)
(0 -0 -12140.3)
(0 -0 -11500.7)
(0 -0 -10944.3)
(0 -0 -10459.1)
(0 -0 -10036.5)
(0 -0 -9668.65)
(0 -0 -9348.49)
(0 -0 -9070.28)
(0 -0 -8829.68)
(0 -0 -8623.44)
(0 -0 -8448.95)
(0 -0 -8303.79)
(0 -0 -8185.23)
(0 -0 -8089.9)
(0 -0 -8013.85)
(0 -0 -7953.06)
(0 -0 -7903.9)
(0 -0 -7863.51)
(0 -0 -7829.8)
(0 -0 -7801.34)
(0 -0 -7777.13)
(0 -0 -7756.48)
(0 -0 -7738.88)
(0 -0 -7723.94)
(0 -0 -7711.33)
(0 -0 -7700.77)
(0 -0 -7691.94)
(0 -0 -7684.6)
(0 -0 -7678.36)
(0 -0 -7673.13)
(0 -0 -7668.39)
(0 -0 -7664.44)
(0 -0 -7660.37)
(0 -0 -7657.25)
(0 -0 -7653.2)
(0 -0 -7650.22)
(0 -0 -7645.4)
(0 -0 -7639.76)
(0 -0 -7634.06)
(0 -0 -7616.62)
(0 -0 -7613.49)
(0 -0 -7562.33)
(0 -0 -7565.54)
(0 -0 -7474.07)
(0 -0 -7307.21)
(0 -0 -533.084)
(0 -0 -4662.86)
(0 -0 -7718.69)
(0 -0 -9328.31)
(0 -0 -9891.26)
(0 -0 -9955.7)
(0 -0 -9823.37)
(0 -0 -9611.5)
(0 -0 -9369.37)
(0 -0 -9122.18)
(0 -0 -8882.99)
(0 -0 -8658.07)
(0 -0 -8450.31)
(0 -0 -8260.99)
(0 -0 -8090.64)
(0 -0 -7939.39)
(0 -0 -7807.02)
(0 -0 -7692.9)
(0 -0 -7595.88)
(0 -0 -7514.31)
(0 -0 -7446.18)
(0 -0 -7389.41)
(0 -0 -7342)
(0 -0 -7302.18)
(0 -0 -7268.49)
(0 -0 -7239.75)
(0 -0 -7215.06)
(0 -0 -7193.74)
(0 -0 -7175.32)
(0 -0 -7159.42)
(0 -0 -7145.77)
(0 -0 -7134.09)
(0 -0 -7124.1)
(0 -0 -7115.42)
(0 -0 -7107.8)
(0 -0 -7100.8)
(0 -0 -7094.44)
(0 -0 -7088.29)
(0 -0 -7082.92)
(0 -0 -7077.7)
(0 -0 -7073.95)
(0 -0 -7070.34)
(0 -0 -7069.12)
(0 -0 -7067.2)
(0 -0 -7070.59)
(0 -0 -7064.5)
(0 -0 -7086.73)
(0 -0 -7035.2)
(0 -0 -7181.18)
(0 -0 -6783.47)
(0 -0 322.453)
(0 -0 -1444.68)
(0 -0 -3532.88)
(0 -0 -5259.15)
(0 -0 -6398.12)
(0 -0 -7071)
(0 -0 -7445.88)
(0 -0 -7633.4)
(0 -0 -7702.08)
(0 -0 -7696.42)
(0 -0 -7645.31)
(0 -0 -7567.22)
(0 -0 -7474.03)
(0 -0 -7373.49)
(0 -0 -7270.79)
(0 -0 -7169.47)
(0 -0 -7072.08)
(0 -0 -6980.56)
(0 -0 -6896.35)
(0 -0 -6820.46)
(0 -0 -6753.37)
(0 -0 -6695.01)
(0 -0 -6644.76)
(0 -0 -6601.7)
(0 -0 -6564.76)
(0 -0 -6532.89)
(0 -0 -6505.17)
(0 -0 -6480.81)
(0 -0 -6459.22)
(0 -0 -6440.01)
(0 -0 -6422.93)
(0 -0 -6407.82)
(0 -0 -6394.51)
(0 -0 -6382.71)
(0 -0 -6372.06)
(0 -0 -6362.11)
(0 -0 -6352.45)
(0 -0 -6342.77)
(0 -0 -6333.03)
(0 -0 -6323.25)
(0 -0 -6314.19)
(0 -0 -6305.39)
(0 -0 -6300.3)
(0 -0 -6292.53)
(0 -0 -6300.69)
(0 -0 -6283.85)
(0 -0 -6336.86)
(0 -0 -6257.38)
(0 -0 -6483.34)
(0 -0 -6083.17)
(0 -0 364.728)
(0 -0 -158.605)
(0 -0 -1181.74)
(0 -0 -2362.13)
(0 -0 -3416.76)
(0 -0 -4253.39)
(0 -0 -4885.18)
(0 -0 -5345.96)
(0 -0 -5670.79)
(0 -0 -5891.71)
(0 -0 -6035.03)
(0 -0 -6120.95)
(0 -0 -6164.53)
(0 -0 -6176.87)
(0 -0 -6166.15)
(0 -0 -6138.45)
(0 -0 -6098.52)
(0 -0 -6050.36)
(0 -0 -5997.65)
(0 -0 -5943.7)
(0 -0 -5891.29)
(0 -0 -5842.36)
(0 -0 -5797.93)
(0 -0 -5758.31)
(0 -0 -5723.32)
(0 -0 -5692.48)
(0 -0 -5665.2)
(0 -0 -5640.78)
(0 -0 -5618.61)
(0 -0 -5598.23)
(0 -0 -5579.41)
(0 -0 -5562.14)
(0 -0 -5546.5)
(0 -0 -5532.48)
(0 -0 -5519.87)
(0 -0 -5508.27)
(0 -0 -5496.96)
(0 -0 -5485.5)
(0 -0 -5473.15)
(0 -0 -5460.09)
(0 -0 -5446.23)
(0 -0 -5431.98)
(0 -0 -5420.28)
(0 -0 -5405.44)
(0 -0 -5407.44)
(0 -0 -5384.21)
(0 -0 -5432.39)
(0 -0 -5359.3)
(0 -0 -5556.77)
(0 -0 -5273.55)
(0 -0 254.039)
(0 -0 185.305)
(0 -0 -173.391)
(0 -0 -764.801)
(0 -0 -1447.35)
(0 -0 -2113.66)
(0 -0 -2715.93)
(0 -0 -3234.29)
(0 -0 -3664.3)
(0 -0 -4011.45)
(0 -0 -4285.75)
(0 -0 -4498.06)
(0 -0 -4658.55)
(0 -0 -4776.04)
(0 -0 -4857.87)
(0 -0 -4910.07)
(0 -0 -4937.72)
(0 -0 -4945.49)
(0 -0 -4938.03)
(0 -0 -4919.95)
(0 -0 -4895.47)
(0 -0 -4867.96)
(0 -0 -4839.75)
(0 -0 -4812.29)
(0 -0 -4786.4)
(0 -0 -4762.52)
(0 -0 -4740.71)
(0 -0 -4720.71)
(0 -0 -4702.04)
(0 -0 -4684.21)
(0 -0 -4666.92)
(0 -0 -4650.22)
(0 -0 -4634.42)
(0 -0 -4619.97)
(0 -0 -4607.02)
(0 -0 -4595.6)
(0 -0 -4584.94)
(0 -0 -4574.58)
(0 -0 -4563.03)
(0 -0 -4550.48)
(0 -0 -4535.44)
(0 -0 -4519.42)
(0 -0 -4502.88)
(0 -0 -4484.36)
(0 -0 -4476.54)
(0 -0 -4452.63)
(0 -0 -4480.27)
(0 -0 -4427.14)
(0 -0 -4562.63)
(0 -0 -4397.42)
(0 -0 178.756)
(0 -0 204.523)
(0 -0 130.636)
(0 -0 -85.2928)
(0 -0 -417.808)
(0 -0 -814.035)
(0 -0 -1233.59)
(0 -0 -1647.03)
(0 -0 -2033.95)
(0 -0 -2382.84)
(0 -0 -2688.9)
(0 -0 -2951.47)
(0 -0 -3172.28)
(0 -0 -3354.24)
(0 -0 -3500.68)
(0 -0 -3614.94)
(0 -0 -3700.3)
(0 -0 -3760.3)
(0 -0 -3798.97)
(0 -0 -3820.83)
(0 -0 -3830.33)
(0 -0 -3831.3)
(0 -0 -3826.62)
(0 -0 -3818.29)
(0 -0 -3807.83)
(0 -0 -3796.39)
(0 -0 -3784.85)
(0 -0 -3773.58)
(0 -0 -3762.5)
(0 -0 -3751.18)
(0 -0 -3739.21)
(0 -0 -3726.51)
(0 -0 -3713.44)
(0 -0 -3700.79)
(0 -0 -3689.26)
(0 -0 -3679.49)
(0 -0 -3671.13)
(0 -0 -3664.01)
(0 -0 -3656.2)
(0 -0 -3647.85)
(0 -0 -3636.02)
(0 -0 -3622.99)
(0 -0 -3606.19)
(0 -0 -3588.54)
(0 -0 -3573.99)
(0 -0 -3552.24)
(0 -0 -3560.69)
(0 -0 -3524.44)
(0 -0 -3605.92)
(0 -0 -3519.16)
(0 -0 148.026)
(0 -0 164.621)
(0 -0 169.994)
(0 -0 120.941)
(0 -0 1.01546)
(0 -0 -180.452)
(0 -0 -407.685)
(0 -0 -663.815)
(0 -0 -932.429)
(0 -0 -1199.96)
(0 -0 -1456.49)
(0 -0 -1695.23)
(0 -0 -1911.94)
(0 -0 -2104.29)
(0 -0 -2271.32)
(0 -0 -2412.89)
(0 -0 -2529.52)
(0 -0 -2622.46)
(0 -0 -2694.01)
(0 -0 -2747.37)
(0 -0 -2786.2)
(0 -0 -2813.85)
(0 -0 -2832.92)
(0 -0 -2845.3)
(0 -0 -2852.51)
(0 -0 -2856.01)
(0 -0 -2857.14)
(0 -0 -2856.92)
(0 -0 -2855.75)
(0 -0 -2853.45)
(0 -0 -2849.54)
(0 -0 -2843.69)
(0 -0 -2836.05)
(0 -0 -2827.46)
(0 -0 -2818.97)
(0 -0 -2811.89)
(0 -0 -2806.49)
(0 -0 -2803.28)
(0 -0 -2800.41)
(0 -0 -2798.11)
(0 -0 -2792.55)
(0 -0 -2785.97)
(0 -0 -2773.76)
(0 -0 -2760.84)
(0 -0 -2745.61)
(0 -0 -2727.63)
(0 -0 -2724.89)
(0 -0 -2699.51)
(0 -0 -2744.16)
(0 -0 -2701.58)
(0 -0 136.836)
(0 -0 137.079)
(0 -0 148.746)
(0 -0 149.673)
(0 -0 122.16)
(0 -0 60.1421)
(0 -0 -35.9722)
(0 -0 -162.173)
(0 -0 -311.631)
(0 -0 -476.482)
(0 -0 -649.117)
(0 -0 -822.808)
(0 -0 -991.967)
(0 -0 -1152.22)
(0 -0 -1300.28)
(0 -0 -1433.76)
(0 -0 -1550.99)
(0 -0 -1651.16)
(0 -0 -1734.58)
(0 -0 -1802.75)
(0 -0 -1857.92)
(0 -0 -1902.45)
(0 -0 -1938.2)
(0 -0 -1966.44)
(0 -0 -1988.23)
(0 -0 -2004.75)
(0 -0 -2017.36)
(0 -0 -2027.38)
(0 -0 -2035.62)
(0 -0 -2042.25)
(0 -0 -2046.82)
(0 -0 -2048.79)
(0 -0 -2047.97)
(0 -0 -2044.89)
(0 -0 -2040.63)
(0 -0 -2036.83)
(0 -0 -2034.43)
(0 -0 -2034.6)
(0 -0 -2036.14)
(0 -0 -2039.48)
(0 -0 -2040.78)
(0 -0 -2041.68)
(0 -0 -2036.93)
(0 -0 -2031.01)
(0 -0 -2020.24)
(0 -0 -2007.66)
(0 -0 -2001.47)
(0 -0 -1983.79)
(0 -0 -2006.25)
(0 -0 -1986.96)
(0 -0 129.959)
(0 -0 124.006)
(0 -0 129.189)
(0 -0 136.386)
(0 -0 136.454)
(0 -0 123.171)
(0 -0 92.9794)
(0 -0 44.2211)
(0 -0 -22.6529)
(0 -0 -105.424)
(0 -0 -200.79)
(0 -0 -304.926)
(0 -0 -413.904)
(0 -0 -524.027)
(0 -0 -632.015)
(0 -0 -735.008)
(0 -0 -830.573)
(0 -0 -916.857)
(0 -0 -992.876)
(0 -0 -1058.71)
(0 -0 -1115.3)
(0 -0 -1163.9)
(0 -0 -1205.55)
(0 -0 -1240.87)
(0 -0 -1270.28)
(0 -0 -1294.4)
(0 -0 -1314.22)
(0 -0 -1330.95)
(0 -0 -1345.58)
(0 -0 -1358.52)
(0 -0 -1369.53)
(0 -0 -1377.98)
(0 -0 -1383.35)
(0 -0 -1385.78)
(0 -0 -1386)
(0 -0 -1385.59)
(0 -0 -1385.81)
(0 -0 -1388.32)
(0 -0 -1392.74)
(0 -0 -1399.79)
(0 -0 -1406.38)
(0 -0 -1413.45)
(0 -0 -1416.17)
(0 -0 -1417.5)
(0 -0 -1413.61)
(0 -0 -1407.54)
(0 -0 -1403.02)
(0 -0 -1392.13)
(0 -0 -1402.95)
(0 -0 -1395.79)
(0 -0 122.972)
(0 -0 116.656)
(0 -0 118.02)
(0 -0 122.493)
(0 -0 126.423)
(0 -0 126.866)
(0 -0 121.375)
(0 -0 107.727)
(0 -0 84.4045)
(0 -0 50.9233)
(0 -0 7.69714)
(0 -0 -44.0961)
(0 -0 -102.739)
(0 -0 -166.22)
(0 -0 -232.428)
(0 -0 -299.261)
(0 -0 -364.674)
(0 -0 -426.829)
(0 -0 -484.362)
(0 -0 -536.623)
(0 -0 -583.671)
(0 -0 -625.956)
(0 -0 -663.893)
(0 -0 -697.622)
(0 -0 -727.101)
(0 -0 -752.425)
(0 -0 -774.071)
(0 -0 -792.878)
(0 -0 -809.726)
(0 -0 -825.151)
(0 -0 -839.101)
(0 -0 -851.061)
(0 -0 -860.38)
(0 -0 -866.818)
(0 -0 -870.677)
(0 -0 -873.119)
(0 -0 -875.355)
(0 -0 -879.114)
(0 -0 -884.703)
(0 -0 -893.107)
(0 -0 -902.326)
(0 -0 -912.851)
(0 -0 -920.886)
(0 -0 -927.869)
(0 -0 -930.54)
(0 -0 -930.836)
(0 -0 -930.345)
(0 -0 -925.828)
(0 -0 -931.983)
(0 -0 -931.421)
(0 -0 115.654)
(0 -0 110.427)
(0 -0 110.739)
(0 -0 113.173)
(0 -0 115.975)
(0 -0 118.213)
(0 -0 119.061)
(0 -0 117.334)
(0 -0 111.8)
(0 -0 101.491)
(0 -0 85.847)
(0 -0 64.7483)
(0 -0 38.5001)
(0 -0 7.75778)
(0 -0 -26.5626)
(0 -0 -63.3734)
(0 -0 -101.463)
(0 -0 -139.583)
(0 -0 -176.63)
(0 -0 -211.836)
(0 -0 -244.871)
(0 -0 -275.735)
(0 -0 -304.507)
(0 -0 -331.124)
(0 -0 -355.359)
(0 -0 -377.009)
(0 -0 -396.128)
(0 -0 -413.113)
(0 -0 -428.555)
(0 -0 -442.95)
(0 -0 -456.416)
(0 -0 -468.654)
(0 -0 -479.096)
(0 -0 -487.322)
(0 -0 -493.254)
(0 -0 -497.52)
(0 -0 -500.983)
(0 -0 -505.088)
(0 -0 -510.484)
(0 -0 -518.287)
(0 -0 -527.539)
(0 -0 -538.62)
(0 -0 -548.949)
(0 -0 -558.972)
(0 -0 -566.205)
(0 -0 -571.458)
(0 -0 -575.197)
(0 -0 -576.199)
(0 -0 -581.663)
(0 -0 -585.077)
(0 -0 108.412)
(0 -0 104.212)
(0 -0 104.416)
(0 -0 106.118)
(0 -0 107.975)
(0 -0 109.669)
(0 -0 111.18)
(0 -0 112.161)
(0 -0 112.042)
(0 -0 110.225)
(0 -0 106.183)
(0 -0 99.5172)
(0 -0 90.0195)
(0 -0 77.7012)
(0 -0 62.7768)
(0 -0 45.6281)
(0 -0 26.7539)
(0 -0 6.7506)
(0 -0 -13.7427)
(0 -0 -34.154)
(0 -0 -54.0932)
(0 -0 -73.3905)
(0 -0 -92.0085)
(0 -0 -109.887)
(0 -0 -126.841)
(0 -0 -142.61)
(0 -0 -157.004)
(0 -0 -170.053)
(0 -0 -182.019)
(0 -0 -193.256)
(0 -0 -203.988)
(0 -0 -214.164)
(0 -0 -223.448)
(0 -0 -231.439)
(0 -0 -237.839)
(0 -0 -242.79)
(0 -0 -246.694)
(0 -0 -250.504)
(0 -0 -254.883)
(0 -0 -260.899)
(0 -0 -268.389)
(0 -0 -277.822)
(0 -0 -287.764)
(0 -0 -298.246)
(0 -0 -307.546)
(0 -0 -315.734)
(0 -0 -322.659)
(0 -0 -327.822)
(0 -0 -334.338)
(0 -0 -340.377)
(0 -0 101.437)
(0 -0 98.0237)
(0 -0 98.2417)
(0 -0 99.7072)
(0 -0 101.209)
(0 -0 102.467)
(0 -0 103.669)
(0 -0 104.818)
(0 -0 105.744)
(0 -0 106.217)
(0 -0 105.973)
(0 -0 104.733)
(0 -0 102.252)
(0 -0 98.3938)
(0 -0 93.1365)
(0 -0 86.5394)
(0 -0 78.7054)
(0 -0 69.7882)
(0 -0 60.0386)
(0 -0 49.7881)
(0 -0 39.3593)
(0 -0 28.9512)
(0 -0 18.6026)
(0 -0 8.2782)
(0 -0 -1.98692)
(0 -0 -12.0114)
(0 -0 -21.5238)
(0 -0 -30.3155)
(0 -0 -38.3695)
(0 -0 -45.8755)
(0 -0 -53.1011)
(0 -0 -60.2217)
(0 -0 -67.1781)
(0 -0 -73.717)
(0 -0 -79.4728)
(0 -0 -84.2421)
(0 -0 -87.9944)
(0 -0 -91.1568)
(0 -0 -94.2033)
(0 -0 -98.0212)
(0 -0 -102.941)
(0 -0 -109.589)
(0 -0 -117.459)
(0 -0 -126.57)
(0 -0 -135.867)
(0 -0 -145.092)
(0 -0 -153.771)
(0 -0 -161.578)
(0 -0 -169.476)
(0 -0 -177.271)
(0 -0 94.7635)
(0 -0 91.9769)
(0 -0 92.1826)
(0 -0 93.4978)
(0 -0 94.8672)
(0 -0 95.9535)
(0 -0 96.9324)
(0 -0 97.8918)
(0 -0 98.808)
(0 -0 99.6313)
(0 -0 100.276)
(0 -0 100.602)
(0 -0 100.459)
(0 -0 99.7516)
(0 -0 98.4522)
(0 -0 96.5482)
(0 -0 93.9897)
(0 -0 90.7184)
(0 -0 86.759)
(0 -0 82.2822)
(0 -0 77.5411)
(0 -0 72.7208)
(0 -0 67.8282)
(0 -0 62.7285)
(0 -0 57.3054)
(0 -0 51.6249)
(0 -0 45.9516)
(0 -0 40.6208)
(0 -0 35.8385)
(0 -0 31.5508)
(0 -0 27.4785)
(0 -0 23.2805)
(0 -0 18.7696)
(0 -0 14.0173)
(0 -0 9.36067)
(0 -0 5.20882)
(0 -0 1.9161)
(0 -0 -0.503452)
(0 -0 -2.27153)
(0 -0 -4.04959)
(0 -0 -6.41035)
(0 -0 -10.1175)
(0 -0 -15.3205)
(0 -0 -22.2206)
(0 -0 -30.2965)
(0 -0 -39.2369)
(0 -0 -48.4402)
(0 -0 -57.555)
(0 -0 -66.4752)
(0 -0 -75.3327)
(0 -0 88.3906)
(0 -0 86.124)
(0 -0 86.3106)
(0 -0 87.4749)
(0 -0 88.7459)
(0 -0 89.7543)
(0 -0 90.6269)
(0 -0 91.4558)
(0 -0 92.2528)
(0 -0 93.0246)
(0 -0 93.7543)
(0 -0 94.3748)
(0 -0 94.8062)
(0 -0 95.0168)
(0 -0 95.0278)
(0 -0 94.8418)
(0 -0 94.3786)
(0 -0 93.5074)
(0 -0 92.1658)
(0 -0 90.4514)
(0 -0 88.5785)
(0 -0 86.7154)
(0 -0 84.8414)
(0 -0 82.7547)
(0 -0 80.2414)
(0 -0 77.2736)
(0 -0 74.0899)
(0 -0 71.0781)
(0 -0 68.5468)
(0 -0 66.5266)
(0 -0 64.738)
(0 -0 62.7355)
(0 -0 60.1592)
(0 -0 56.9305)
(0 -0 53.3286)
(0 -0 49.8637)
(0 -0 47.0935)
(0 -0 45.3377)
(0 -0 44.5942)
(0 -0 44.4034)
(0 -0 44.1107)
(0 -0 42.87)
(0 -0 40.1263)
(0 -0 35.4622)
(0 -0 29.0115)
(0 -0 21.0029)
(0 -0 12.0546)
(0 -0 2.57919)
(0 -0 -6.81961)
(0 -0 -16.164)
(0 -0 82.3168)
(0 -0 80.4829)
(0 -0 80.659)
(0 -0 81.6776)
(0 -0 82.8452)
(0 -0 83.7886)
(0 -0 84.5924)
(0 -0 85.3422)
(0 -0 86.0565)
(0 -0 86.7515)
(0 -0 87.4255)
(0 -0 88.0345)
(0 -0 88.5308)
(0 -0 88.9213)
(0 -0 89.2615)
(0 -0 89.5753)
(0 -0 89.7868)
(0 -0 89.7555)
(0 -0 89.4021)
(0 -0 88.8065)
(0 -0 88.1672)
(0 -0 87.6389)
(0 -0 87.1814)
(0 -0 86.5612)
(0 -0 85.5197)
(0 -0 83.988)
(0 -0 82.1835)
(0 -0 80.508)
(0 -0 79.3085)
(0 -0 78.6512)
(0 -0 78.254)
(0 -0 77.6174)
(0 -0 76.2863)
(0 -0 74.0921)
(0 -0 71.2673)
(0 -0 68.3628)
(0 -0 66.0412)
(0 -0 64.7962)
(0 -0 64.7726)
(0 -0 65.6534)
(0 -0 66.7835)
(0 -0 67.2868)
(0 -0 66.3973)
(0 -0 63.5316)
(0 -0 58.5753)
(0 -0 51.6434)
(0 -0 43.313)
(0 -0 34.0364)
(0 -0 24.621)
(0 -0 15.226)
(0 -0 76.5427)
(0 -0 75.0652)
(0 -0 75.2398)
(0 -0 76.126)
(0 -0 77.1876)
(0 -0 78.0642)
(0 -0 78.8052)
(0 -0 79.4915)
(0 -0 80.1454)
(0 -0 80.7814)
(0 -0 81.3961)
(0 -0 81.9503)
(0 -0 82.4096)
(0 -0 82.7973)
(0 -0 83.1814)
(0 -0 83.5925)
(0 -0 83.9604)
(0 -0 84.1535)
(0 -0 84.1031)
(0 -0 83.8924)
(0 -0 83.7125)
(0 -0 83.702)
(0 -0 83.8058)
(0 -0 83.7809)
(0 -0 83.3637)
(0 -0 82.4809)
(0 -0 81.3453)
(0 -0 80.3551)
(0 -0 79.8565)
(0 -0 79.9149)
(0 -0 80.2405)
(0 -0 80.3134)
(0 -0 79.6443)
(0 -0 78.0307)
(0 -0 75.6844)
(0 -0 73.1685)
(0 -0 71.1846)
(0 -0 70.3006)
(0 -0 70.7338)
(0 -0 72.2486)
(0 -0 74.2169)
(0 -0 75.7684)
(0 -0 76.0563)
(0 -0 74.4071)
(0 -0 70.5744)
(0 -0 64.5853)
(0 -0 56.9605)
(0 -0 48.161)
(0 -0 39.0482)
(0 -0 29.9076)
(0 -0 71.0681)
(0 -0 69.8812)
(0 -0 70.0602)
(0 -0 70.8285)
(0 -0 71.786)
(0 -0 72.5949)
(0 -0 73.2746)
(0 -0 73.9015)
(0 -0 74.5015)
(0 -0 75.0867)
(0 -0 75.649)
(0 -0 76.1509)
(0 -0 76.5655)
(0 -0 76.9224)
(0 -0 77.2893)
(0 -0 77.6926)
(0 -0 78.0636)
(0 -0 78.2832)
(0 -0 78.2992)
(0 -0 78.2032)
(0 -0 78.1775)
(0 -0 78.342)
(0 -0 78.6267)
(0 -0 78.7898)
(0 -0 78.5829)
(0 -0 77.9502)
(0 -0 77.11)
(0 -0 76.4499)
(0 -0 76.2945)
(0 -0 76.6882)
(0 -0 77.3294)
(0 -0 77.6973)
(0 -0 77.3076)
(0 -0 75.9636)
(0 -0 73.8787)
(0 -0 71.6167)
(0 -0 69.8796)
(0 -0 69.246)
(0 -0 69.951)
(0 -0 71.7924)
(0 -0 74.1717)
(0 -0 76.2444)
(0 -0 77.1588)
(0 -0 76.2165)
(0 -0 73.1184)
(0 -0 67.8426)
(0 -0 60.8629)
(0 -0 52.6325)
(0 -0 44.0007)
(0 -0 35.3056)
(0 -0 65.8913)
(0 -0 64.9393)
(0 -0 65.1257)
(0 -0 65.79)
(0 -0 66.6471)
(0 -0 67.3893)
(0 -0 68.0099)
(0 -0 68.5799)
(0 -0 69.1286)
(0 -0 69.6653)
(0 -0 70.1784)
(0 -0 70.6322)
(0 -0 71.0061)
(0 -0 71.3328)
(0 -0 71.6748)
(0 -0 72.0501)
(0 -0 72.3893)
(0 -0 72.5851)
(0 -0 72.602)
(0 -0 72.5384)
(0 -0 72.566)
(0 -0 72.7836)
(0 -0 73.107)
(0 -0 73.2989)
(0 -0 73.1343)
(0 -0 72.5827)
(0 -0 71.8724)
(0 -0 71.3772)
(0 -0 71.3911)
(0 -0 71.9284)
(0 -0 72.6746)
(0 -0 73.1188)
(0 -0 72.8024)
(0 -0 71.5566)
(0 -0 69.6098)
(0 -0 67.5221)
(0 -0 65.9758)
(0 -0 65.5255)
(0 -0 66.3909)
(0 -0 68.3734)
(0 -0 70.898)
(0 -0 73.1552)
(0 -0 74.3267)
(0 -0 73.733)
(0 -0 71.0727)
(0 -0 66.308)
(0 -0 59.8779)
(0 -0 52.216)
(0 -0 44.1357)
(0 -0 35.9801)
(0 -0 61.0098)
(0 -0 60.2461)
(0 -0 60.4407)
(0 -0 61.0136)
(0 -0 61.775)
(0 -0 62.4522)
(0 -0 63.0168)
(0 -0 63.5325)
(0 -0 64.0317)
(0 -0 64.5216)
(0 -0 64.9873)
(0 -0 65.3957)
(0 -0 65.7321)
(0 -0 66.0309)
(0 -0 66.3482)
(0 -0 66.6936)
(0 -0 66.9964)
(0 -0 67.1602)
(0 -0 67.1644)
(0 -0 67.1122)
(0 -0 67.1639)
(0 -0 67.3972)
(0 -0 67.7141)
(0 -0 67.8839)
(0 -0 67.7059)
(0 -0 67.1767)
(0 -0 66.5342)
(0 -0 66.1366)
(0 -0 66.2441)
(0 -0 66.8392)
(0 -0 67.5952)
(0 -0 68.0168)
(0 -0 67.6811)
(0 -0 66.4564)
(0 -0 64.5918)
(0 -0 62.6414)
(0 -0 61.2579)
(0 -0 60.9558)
(0 -0 61.9225)
(0 -0 63.948)
(0 -0 66.4746)
(0 -0 68.7305)
(0 -0 69.9476)
(0 -0 69.4893)
(0 -0 67.0788)
(0 -0 62.6839)
(0 -0 56.72)
(0 -0 49.5961)
(0 -0 42.0797)
(0 -0 34.4938)
(0 -0 56.4195)
(0 -0 55.8058)
(0 -0 56.0076)
(0 -0 56.5006)
(0 -0 57.1718)
(0 -0 57.7862)
(0 -0 58.2978)
(0 -0 58.7623)
(0 -0 59.214)
(0 -0 59.6587)
(0 -0 60.0793)
(0 -0 60.4449)
(0 -0 60.7458)
(0 -0 61.0177)
(0 -0 61.311)
(0 -0 61.6272)
(0 -0 61.8949)
(0 -0 62.0278)
(0 -0 62.0179)
(0 -0 61.9725)
(0 -0 62.0397)
(0 -0 62.2776)
(0 -0 62.5757)
(0 -0 62.7107)
(0 -0 62.5062)
(0 -0 61.9838)
(0 -0 61.3897)
(0 -0 61.0646)
(0 -0 61.2347)
(0 -0 61.8513)
(0 -0 62.578)
(0 -0 62.9385)
(0 -0 62.5491)
(0 -0 61.3184)
(0 -0 59.5168)
(0 -0 57.6902)
(0 -0 56.4576)
(0 -0 56.2868)
(0 -0 57.3265)
(0 -0 59.3487)
(0 -0 61.8097)
(0 -0 63.9758)
(0 -0 65.1341)
(0 -0 64.7013)
(0 -0 62.4375)
(0 -0 58.3269)
(0 -0 52.7683)
(0 -0 46.1455)
(0 -0 39.1781)
(0 -0 32.1574)
(0 -0 52.1153)
(0 -0 51.6202)
(0 -0 51.8271)
(0 -0 52.2505)
(0 -0 52.8379)
(0 -0 53.3917)
(0 -0 53.8534)
(0 -0 54.2698)
(0 -0 54.6763)
(0 -0 55.078)
(0 -0 55.4558)
(0 -0 55.7809)
(0 -0 56.0482)
(0 -0 56.2943)
(0 -0 56.564)
(0 -0 56.852)
(0 -0 57.0866)
(0 -0 57.1907)
(0 -0 57.1681)
(0 -0 57.1282)
(0 -0 57.2076)
(0 -0 57.4456)
(0 -0 57.7214)
(0 -0 57.82)
(0 -0 57.5883)
(0 -0 57.0716)
(0 -0 56.5212)
(0 -0 56.2594)
(0 -0 56.4787)
(0 -0 57.1007)
(0 -0 57.7822)
(0 -0 58.0684)
(0 -0 57.616)
(0 -0 56.3736)
(0 -0 54.6317)
(0 -0 52.9259)
(0 -0 51.8394)
(0 -0 51.7914)
(0 -0 52.8906)
(0 -0 54.8898)
(0 -0 57.2573)
(0 -0 59.2977)
(0 -0 60.3529)
(0 -0 59.8968)
(0 -0 57.7286)
(0 -0 53.854)
(0 -0 48.6585)
(0 -0 42.502)
(0 -0 36.0564)
(0 -0 29.5791)
(0 -0 48.0909)
(0 -0 47.6891)
(0 -0 47.8982)
(0 -0 48.2611)
(0 -0 48.7715)
(0 -0 49.2674)
(0 -0 49.6821)
(0 -0 50.0536)
(0 -0 50.4174)
(0 -0 50.7782)
(0 -0 51.1157)
(0 -0 51.4029)
(0 -0 51.6386)
(0 -0 51.8599)
(0 -0 52.1067)
(0 -0 52.3674)
(0 -0 52.5706)
(0 -0 52.6481)
(0 -0 52.6142)
(0 -0 52.5798)
(0 -0 52.6693)
(0 -0 52.9047)
(0 -0 53.1566)
(0 -0 53.2191)
(0 -0 52.9628)
(0 -0 52.4539)
(0 -0 51.9471)
(0 -0 51.7447)
(0 -0 52.0056)
(0 -0 52.6244)
(0 -0 53.2534)
(0 -0 53.4613)
(0 -0 52.9457)
(0 -0 51.6937)
(0 -0 50.0136)
(0 -0 48.429)
(0 -0 47.4858)
(0 -0 47.5556)
(0 -0 48.7069)
(0 -0 50.6747)
(0 -0 52.939)
(0 -0 54.8422)
(0 -0 55.7795)
(0 -0 55.2809)
(0 -0 53.1843)
(0 -0 49.5177)
(0 -0 44.6542)
(0 -0 38.9323)
(0 -0 32.9771)
(0 -0 27.0138)
(0 -0 44.3386)
(0 -0 44.0103)
(0 -0 44.2179)
(0 -0 44.5286)
(0 -0 44.9689)
(0 -0 45.4097)
(0 -0 45.7805)
(0 -0 46.1102)
(0 -0 46.434)
(0 -0 46.7563)
(0 -0 47.0559)
(0 -0 47.3076)
(0 -0 47.5138)
(0 -0 47.7119)
(0 -0 47.9366)
(0 -0 48.1707)
(0 -0 48.344)
(0 -0 48.3969)
(0 -0 48.3535)
(0 -0 48.3246)
(0 -0 48.4228)
(0 -0 48.6534)
(0 -0 48.8799)
(0 -0 48.9073)
(0 -0 48.6289)
(0 -0 48.1306)
(0 -0 47.6682)
(0 -0 47.5225)
(0 -0 47.8197)
(0 -0 48.4292)
(0 -0 49.0015)
(0 -0 49.1304)
(0 -0 48.5542)
(0 -0 47.2969)
(0 -0 45.6822)
(0 -0 44.2198)
(0 -0 43.4179)
(0 -0 43.6008)
(0 -0 44.7991)
(0 -0 46.7314)
(0 -0 48.8898)
(0 -0 50.6539)
(0 -0 51.4704)
(0 -0 50.9228)
(0 -0 48.8857)
(0 -0 45.4083)
(0 -0 40.8511)
(0 -0 35.5349)
(0 -0 30.0376)
(0 -0 24.5566)
(0 -0 40.8498)
(0 -0 40.5793)
(0 -0 40.7818)
(0 -0 41.0475)
(0 -0 41.4246)
(0 -0 41.8135)
(0 -0 42.1433)
(0 -0 42.4345)
(0 -0 42.721)
(0 -0 43.0072)
(0 -0 43.2712)
(0 -0 43.4899)
(0 -0 43.6688)
(0 -0 43.8452)
(0 -0 44.0488)
(0 -0 44.2573)
(0 -0 44.402)
(0 -0 44.4323)
(0 -0 44.3809)
(0 -0 44.3581)
(0 -0 44.4638)
(0 -0 44.6874)
(0 -0 44.8874)
(0 -0 44.8804)
(0 -0 44.5824)
(0 -0 44.0975)
(0 -0 43.6804)
(0 -0 43.5891)
(0 -0 43.9179)
(0 -0 44.5129)
(0 -0 45.0254)
(0 -0 45.0758)
(0 -0 44.4426)
(0 -0 43.1849)
(0 -0 41.6394)
(0 -0 40.2999)
(0 -0 39.6368)
(0 -0 39.9284)
(0 -0 41.169)
(0 -0 43.0629)
(0 -0 45.1149)
(0 -0 46.7414)
(0 -0 47.4382)
(0 -0 46.8393)
(0 -0 44.8539)
(0 -0 41.5507)
(0 -0 37.2773)
(0 -0 32.3392)
(0 -0 27.2677)
(0 -0 22.2374)
(0 -0 37.6148)
(0 -0 37.39)
(0 -0 37.5838)
(0 -0 37.8106)
(0 -0 38.1314)
(0 -0 38.4717)
(0 -0 38.7633)
(0 -0 39.0193)
(0 -0 39.2714)
(0 -0 39.5238)
(0 -0 39.7546)
(0 -0 39.9427)
(0 -0 40.0966)
(0 -0 40.253)
(0 -0 40.4365)
(0 -0 40.6204)
(0 -0 40.7378)
(0 -0 40.7472)
(0 -0 40.6896)
(0 -0 40.6734)
(0 -0 40.7854)
(0 -0 41.0004)
(0 -0 41.1729)
(0 -0 41.1323)
(0 -0 40.8174)
(0 -0 40.3484)
(0 -0 39.977)
(0 -0 39.9378)
(0 -0 40.2935)
(0 -0 40.8694)
(0 -0 41.3199)
(0 -0 41.2929)
(0 -0 40.6068)
(0 -0 39.3537)
(0 -0 37.8808)
(0 -0 36.6648)
(0 -0 36.1377)
(0 -0 36.5334)
(0 -0 37.8116)
(0 -0 39.6644)
(0 -0 41.61)
(0 -0 43.101)
(0 -0 43.6798)
(0 -0 43.0286)
(0 -0 41.0886)
(0 -0 37.9455)
(0 -0 33.9355)
(0 -0 29.3488)
(0 -0 24.6718)
(0 -0 20.0612)
(0 -0 34.6231)
(0 -0 34.435)
(0 -0 34.6161)
(0 -0 34.8094)
(0 -0 35.0806)
(0 -0 35.3759)
(0 -0 35.632)
(0 -0 35.8559)
(0 -0 36.0765)
(0 -0 36.2975)
(0 -0 36.4974)
(0 -0 36.6574)
(0 -0 36.7886)
(0 -0 36.9267)
(0 -0 37.0912)
(0 -0 37.2513)
(0 -0 37.3428)
(0 -0 37.3334)
(0 -0 37.2712)
(0 -0 37.2619)
(0 -0 37.3793)
(0 -0 37.584)
(0 -0 37.7282)
(0 -0 37.6553)
(0 -0 37.326)
(0 -0 36.8753)
(0 -0 36.5498)
(0 -0 36.5602)
(0 -0 36.9383)
(0 -0 37.4909)
(0 -0 37.8775)
(0 -0 37.7747)
(0 -0 37.0401)
(0 -0 35.7966)
(0 -0 34.3996)
(0 -0 33.3072)
(0 -0 32.913)
(0 -0 33.4077)
(0 -0 34.7189)
(0 -0 36.528)
(0 -0 38.3669)
(0 -0 39.7245)
(0 -0 40.1868)
(0 -0 39.4825)
(0 -0 37.5814)
(0 -0 34.5853)
(0 -0 30.8189)
(0 -0 26.5579)
(0 -0 22.2454)
(0 -0 18.0245)
(0 -0 31.8631)
(0 -0 31.7048)
(0 -0 31.8702)
(0 -0 32.035)
(0 -0 32.2628)
(0 -0 32.5166)
(0 -0 32.74)
(0 -0 32.9347)
(0 -0 33.1265)
(0 -0 33.3186)
(0 -0 33.4899)
(0 -0 33.6242)
(0 -0 33.7348)
(0 -0 33.8562)
(0 -0 34.0028)
(0 -0 34.1401)
(0 -0 34.2073)
(0 -0 34.1808)
(0 -0 34.1155)
(0 -0 34.1136)
(0 -0 34.2352)
(0 -0 34.4282)
(0 -0 34.5438)
(0 -0 34.4399)
(0 -0 34.0988)
(0 -0 33.6684)
(0 -0 33.3889)
(0 -0 33.446)
(0 -0 33.8424)
(0 -0 34.3678)
(0 -0 34.6894)
(0 -0 34.5128)
(0 -0 33.734)
(0 -0 32.5048)
(0 -0 31.1867)
(0 -0 30.2175)
(0 -0 29.9529)
(0 -0 30.5418)
(0 -0 31.8812)
(0 -0 33.6438)
(0 -0 35.376)
(0 -0 36.6014)
(0 -0 36.9487)
(0 -0 36.19)
(0 -0 34.3212)
(0 -0 31.4592)
(0 -0 27.9173)
(0 -0 23.9568)
(0 -0 19.9805)
(0 -0 16.1207)
(0 -0 29.3228)
(0 -0 29.1887)
(0 -0 29.3365)
(0 -0 29.4773)
(0 -0 29.6674)
(0 -0 29.8834)
(0 -0 30.0766)
(0 -0 30.245)
(0 -0 30.4106)
(0 -0 30.576)
(0 -0 30.7211)
(0 -0 30.8319)
(0 -0 30.924)
(0 -0 31.0303)
(0 -0 31.1601)
(0 -0 31.2756)
(0 -0 31.3199)
(0 -0 31.2782)
(0 -0 31.2113)
(0 -0 31.2169)
(0 -0 31.3418)
(0 -0 31.5219)
(0 -0 31.6086)
(0 -0 31.4753)
(0 -0 31.1249)
(0 -0 30.7167)
(0 -0 30.4829)
(0 -0 30.584)
(0 -0 30.9945)
(0 -0 31.4895)
(0 -0 31.7451)
(0 -0 31.4972)
(0 -0 30.6787)
(0 -0 29.4683)
(0 -0 28.2315)
(0 -0 27.3849)
(0 -0 27.2464)
(0 -0 27.9245)
(0 -0 29.2875)
(0 -0 31.0008)
(0 -0 32.6258)
(0 -0 33.7202)
(0 -0 33.9535)
(0 -0 33.1385)
(0 -0 31.2955)
(0 -0 28.5546)
(0 -0 25.2188)
(0 -0 21.5342)
(0 -0 17.8678)
(0 -0 14.3427)
(0 -0 26.9897)
(0 -0 26.8752)
(0 -0 27.0047)
(0 -0 27.125)
(0 -0 27.2827)
(0 -0 27.4646)
(0 -0 27.6302)
(0 -0 27.7748)
(0 -0 27.9169)
(0 -0 28.0579)
(0 -0 28.1788)
(0 -0 28.2683)
(0 -0 28.3441)
(0 -0 28.4367)
(0 -0 28.5506)
(0 -0 28.6455)
(0 -0 28.6684)
(0 -0 28.6133)
(0 -0 28.5461)
(0 -0 28.5593)
(0 -0 28.6867)
(0 -0 28.8528)
(0 -0 28.9107)
(0 -0 28.7495)
(0 -0 28.3921)
(0 -0 28.0078)
(0 -0 27.8193)
(0 -0 27.9618)
(0 -0 28.3826)
(0 -0 28.8443)
(0 -0 29.0335)
(0 -0 28.7167)
(0 -0 27.8627)
(0 -0 26.6752)
(0 -0 25.5218)
(0 -0 24.797)
(0 -0 24.7808)
(0 -0 25.5433)
(0 -0 26.9256)
(0 -0 28.587)
(0 -0 30.1043)
(0 -0 31.0686)
(0 -0 31.1884)
(0 -0 30.3148)
(0 -0 28.4904)
(0 -0 25.8584)
(0 -0 22.7104)
(0 -0 19.2789)
(0 -0 15.898)
(0 -0 12.6827)
(0 -0 24.8512)
(0 -0 24.7524)
(0 -0 24.8635)
(0 -0 24.9662)
(0 -0 25.0961)
(0 -0 25.2477)
(0 -0 25.388)
(0 -0 25.5113)
(0 -0 25.6323)
(0 -0 25.7512)
(0 -0 25.85)
(0 -0 25.9205)
(0 -0 25.9816)
(0 -0 26.062)
(0 -0 26.1612)
(0 -0 26.2365)
(0 -0 26.2395)
(0 -0 26.1727)
(0 -0 26.1064)
(0 -0 26.1274)
(0 -0 26.2563)
(0 -0 26.4076)
(0 -0 26.437)
(0 -0 26.2494)
(0 -0 25.8875)
(0 -0 25.5285)
(0 -0 25.3847)
(0 -0 25.566)
(0 -0 25.9936)
(0 -0 26.4195)
(0 -0 26.5424)
(0 -0 26.1591)
(0 -0 25.2737)
(0 -0 24.1128)
(0 -0 23.0443)
(0 -0 22.44)
(0 -0 22.5428)
(0 -0 23.385)
(0 -0 24.7825)
(0 -0 26.3895)
(0 -0 27.7986)
(0 -0 28.6334)
(0 -0 28.6398)
(0 -0 27.7049)
(0 -0 25.8921)
(0 -0 23.357)
(0 -0 20.3789)
(0 -0 17.1798)
(0 -0 14.0618)
(0 -0 11.1329)
(0 -0 22.8941)
(0 -0 22.8078)
(0 -0 22.9012)
(0 -0 22.9888)
(0 -0 23.095)
(0 -0 23.2197)
(0 -0 23.3372)
(0 -0 23.4414)
(0 -0 23.5435)
(0 -0 23.6424)
(0 -0 23.7213)
(0 -0 23.7746)
(0 -0 23.8229)
(0 -0 23.8924)
(0 -0 23.9778)
(0 -0 24.0346)
(0 -0 24.0193)
(0 -0 23.9424)
(0 -0 23.8781)
(0 -0 23.9069)
(0 -0 24.0367)
(0 -0 24.1725)
(0 -0 24.1736)
(0 -0 23.9614)
(0 -0 23.5969)
(0 -0 23.2646)
(0 -0 23.1649)
(0 -0 23.3825)
(0 -0 23.814)
(0 -0 24.202)
(0 -0 24.2587)
(0 -0 23.8115)
(0 -0 22.8984)
(0 -0 21.7673)
(0 -0 20.785)
(0 -0 20.2998)
(0 -0 20.518)
(0 -0 21.4356)
(0 -0 22.8444)
(0 -0 24.3949)
(0 -0 25.6953)
(0 -0 26.4012)
(0 -0 26.2939)
(0 -0 25.2947)
(0 -0 23.4865)
(0 -0 21.0368)
(0 -0 18.2113)
(0 -0 15.2254)
(0 -0 12.3492)
(0 -0 9.68527)
(0 -0 21.1055)
(0 -0 21.0292)
(0 -0 21.106)
(0 -0 21.1802)
(0 -0 21.2663)
(0 -0 21.3674)
(0 -0 21.4644)
(0 -0 21.5515)
(0 -0 21.6369)
(0 -0 21.7177)
(0 -0 21.7786)
(0 -0 21.8167)
(0 -0 21.8538)
(0 -0 21.9136)
(0 -0 21.9862)
(0 -0 22.0257)
(0 -0 21.9934)
(0 -0 21.9079)
(0 -0 21.8466)
(0 -0 21.8834)
(0 -0 22.0133)
(0 -0 22.1331)
(0 -0 22.1065)
(0 -0 21.8712)
(0 -0 21.5061)
(0 -0 21.2015)
(0 -0 21.1453)
(0 -0 21.397)
(0 -0 21.8296)
(0 -0 22.1782)
(0 -0 22.169)
(0 -0 21.6603)
(0 -0 20.7229)
(0 -0 19.6243)
(0 -0 18.729)
(0 -0 18.3614)
(0 -0 18.6917)
(0 -0 19.6807)
(0 -0 21.0976)
(0 -0 22.5894)
(0 -0 23.7809)
(0 -0 24.3582)
(0 -0 24.1368)
(0 -0 23.0699)
(0 -0 21.2595)
(0 -0 18.8835)
(0 -0 16.195)
(0 -0 13.4045)
(0 -0 10.7509)
(0 -0 8.33171)
(0 -0 19.4726)
(0 -0 19.404)
(0 -0 19.4658)
(0 -0 19.5281)
(0 -0 19.5972)
(0 -0 19.6778)
(0 -0 19.7564)
(0 -0 19.8283)
(0 -0 19.8989)
(0 -0 19.9635)
(0 -0 20.0081)
(0 -0 20.0327)
(0 -0 20.0602)
(0 -0 20.1115)
(0 -0 20.1722)
(0 -0 20.1953)
(0 -0 20.1474)
(0 -0 20.0548)
(0 -0 19.9973)
(0 -0 20.0421)
(0 -0 20.1716)
(0 -0 20.275)
(0 -0 20.2211)
(0 -0 19.9643)
(0 -0 19.6005)
(0 -0 19.3245)
(0 -0 19.3112)
(0 -0 19.595)
(0 -0 20.0264)
(0 -0 20.3341)
(0 -0 20.2597)
(0 -0 19.6918)
(0 -0 18.7329)
(0 -0 17.6692)
(0 -0 16.8614)
(0 -0 16.6099)
(0 -0 17.0491)
(0 -0 18.106)
(0 -0 19.5278)
(0 -0 20.9595)
(0 -0 22.0419)
(0 -0 22.4908)
(0 -0 22.1543)
(0 -0 21.0165)
(0 -0 19.1976)
(0 -0 16.8836)
(0 -0 14.3185)
(0 -0 11.7067)
(0 -0 9.25767)
(0 -0 7.06463)
(0 -0 17.9828)
(0 -0 17.9203)
(0 -0 17.9686)
(0 -0 18.0202)
(0 -0 18.075)
(0 -0 18.1378)
(0 -0 18.2)
(0 -0 18.2584)
(0 -0 18.3159)
(0 -0 18.3661)
(0 -0 18.3961)
(0 -0 18.4087)
(0 -0 18.428)
(0 -0 18.4718)
(0 -0 18.5215)
(0 -0 18.5293)
(0 -0 18.467)
(0 -0 18.3685)
(0 -0 18.3158)
(0 -0 18.3686)
(0 -0 18.4973)
(0 -0 18.584)
(0 -0 18.5035)
(0 -0 18.2265)
(0 -0 17.8655)
(0 -0 17.6189)
(0 -0 17.6479)
(0 -0 17.9621)
(0 -0 18.3903)
(0 -0 18.6562)
(0 -0 18.5171)
(0 -0 17.892)
(0 -0 16.9145)
(0 -0 15.8874)
(0 -0 15.1673)
(0 -0 15.0302)
(0 -0 15.5755)
(0 -0 16.697)
(0 -0 18.1213)
(0 -0 19.4917)
(0 -0 20.4651)
(0 -0 20.7857)
(0 -0 20.3332)
(0 -0 19.1213)
(0 -0 17.2874)
(0 -0 15.0248)
(0 -0 12.5708)
(0 -0 10.1219)
(0 -0 7.86083)
(0 -0 5.87688)
(0 -0 16.624)
(0 -0 16.5662)
(0 -0 16.6027)
(0 -0 16.6447)
(0 -0 16.6873)
(0 -0 16.7349)
(0 -0 16.7827)
(0 -0 16.829)
(0 -0 16.875)
(0 -0 16.9122)
(0 -0 16.9292)
(0 -0 16.9314)
(0 -0 16.9436)
(0 -0 16.9809)
(0 -0 17.0204)
(0 -0 17.0138)
(0 -0 16.9384)
(0 -0 16.8352)
(0 -0 16.7878)
(0 -0 16.8487)
(0 -0 16.9762)
(0 -0 17.0461)
(0 -0 16.9395)
(0 -0 16.6438)
(0 -0 16.287)
(0 -0 16.0705)
(0 -0 16.1411)
(0 -0 16.484)
(0 -0 16.9074)
(0 -0 17.1307)
(0 -0 16.9278)
(0 -0 16.2476)
(0 -0 15.2535)
(0 -0 14.2646)
(0 -0 13.6321)
(0 -0 13.6077)
(0 -0 14.2565)
(0 -0 15.4399)
(0 -0 16.8645)
(0 -0 18.173)
(0 -0 19.0375)
(0 -0 19.2301)
(0 -0 18.6609)
(0 -0 17.3719)
(0 -0 15.5167)
(0 -0 13.2961)
(0 -0 10.9413)
(0 -0 8.64067)
(0 -0 6.55257)
(0 -0 4.76218)
(0 -0 15.3848)
(0 -0 15.3305)
(0 -0 15.3567)
(0 -0 15.3901)
(0 -0 15.4223)
(0 -0 15.4569)
(0 -0 15.492)
(0 -0 15.5278)
(0 -0 15.5635)
(0 -0 15.5893)
(0 -0 15.5946)
(0 -0 15.5876)
(0 -0 15.5939)
(0 -0 15.6256)
(0 -0 15.6557)
(0 -0 15.6356)
(0 -0 15.548)
(0 -0 15.4412)
(0 -0 15.3999)
(0 -0 15.4688)
(0 -0 15.5947)
(0 -0 15.6478)