/*--------------------------------*- C++ -*----------------------------------*\
  =========                 |
  \\      /  F ield         | OpenFOAM: The Open Source CFD Toolbox
   \\    /   O peration     | Website:  https://openfoam.org
    \\  /    A nd           | Version:  7
     \\/     M anipulation  |
\*---------------------------------------------------------------------------*/
FoamFile
{
    version     2.0;
    format      ascii;
    class       volVectorField;
    location    "0.01";
    object      wallShearStress;
}
// * * * * * * * * * * * * * * * * * * * * * * * * * * * * * * * * * * * * * //

dimensions      [0 2 -2 0 0 0 0];

internalField   uniform (0 0 0);

boundaryField
{
    velocityInlet
    {
        type            calculated;
        value           uniform (0 0 0);
    }
    pressureOutlet
    {
        type            calculated;
        value           uniform (0 0 0);
    }
    fixedWalls
    {
        type            calculated;
        value           nonuniform List<vector> 
100
(
(-0.00798204 -0.0116387 0)
(0.0134754 2.21562e-05 0)
(0.00102839 4.10443e-05 0)
(0.00995841 -0.000112179 0)
(-0.000108328 0.00133746 0)
(-0.00935742 0.000296938 0)
(-0.00731983 -0.0010606 0)
(-0.000573145 -0.000311579 0)
(-0.00131203 0.000219713 0)
(-0.00293639 0.000255694 0)
(-0.00382891 0.000152432 0)
(-0.00236271 -0.000204673 0)
(0.00297712 -0.000828241 0)
(0.0117284 -0.00151355 0)
(0.0201658 -0.00152376 0)
(0.0247276 -0.000859215 0)
(0.0240003 3.59288e-05 0)
(0.0181369 0.00102591 0)
(0.00556249 0.00279085 0)
(-0.0176069 0.00368431 0)
(-0.036461 0.000451993 0)
(-0.0384685 -0.00237597 0)
(-0.0240777 -0.00266316 0)
(-0.00813349 -0.00111853 0)
(-0.00178819 -0.000152604 0)
(0.000372457 -0.000310702 0)
(0.00341571 -0.000165636 0)
(-0.000787252 0.000644076 0)
(-0.00605838 0.000347171 0)
(-0.00710975 5.49069e-05 0)
(-0.00839714 0.000256831 0)
(-0.0112384 0.000390666 0)
(-0.0122207 0.000474019 0)
(-0.00749991 -0.000442506 0)
(0.00668139 -0.00201075 0)
(0.0250653 -0.00290146 0)
(0.0378559 -0.00205044 0)
(0.0433684 -0.00095393 0)
(0.0432952 -0.000142923 0)
(0.0394015 0.000405597 0)
(0.0332091 0.000701785 0)
(0.0260663 0.000802618 0)
(0.0188981 0.000776077 0)
(0.0123208 0.000673697 0)
(0.00666633 0.000556472 0)
(0.0020657 0.000412663 0)
(-0.00142154 0.000304076 0)
(-0.00400651 0.00020295 0)
(-0.00584009 0.000131276 0)
(-0.00707554 7.97896e-05 0)
(-0.0078547 4.40469e-05 0)
(-0.00829501 2.02576e-05 0)
(-0.00849117 5.08937e-06 0)
(-0.00851692 -5.71233e-06 0)
(-0.00842816 -1.2513e-05 0)
(-0.00826648 -1.66616e-05 0)
(-0.00806108 -1.89625e-05 0)
(-0.0078316 -1.99634e-05 0)
(-0.00759054 -2.01636e-05 0)
(-0.00734536 -1.99006e-05 0)
(-0.00710035 -1.93851e-05 0)
(-0.00685813 -1.87324e-05 0)
(-0.00662063 -1.79964e-05 0)
(-0.00638957 -1.71932e-05 0)
(-0.00616672 -1.63249e-05 0)
(-0.00595385 -1.53918e-05 0)
(-0.00575259 -1.43974e-05 0)
(-0.00556431 -1.33502e-05 0)
(-0.00539004 -1.22639e-05 0)
(-0.00523036 -1.11591e-05 0)
(-0.00508537 -1.00653e-05 0)
(-0.00495473 -9.01711e-06 0)
(-0.00483763 -8.04992e-06 0)
(-0.00473293 -7.18857e-06 0)
(-0.00463937 -6.43724e-06 0)
(-0.00455582 -5.76989e-06 0)
(-0.00448147 -5.14766e-06 0)
(-0.00441582 -4.53426e-06 0)
(-0.0043585 -3.9216e-06 0)
(-0.004309 -3.33345e-06 0)
(-0.00426637 -2.8253e-06 0)
(-0.00422914 -2.45329e-06 0)
(-0.00419557 -2.24244e-06 0)
(-0.00416414 -2.16405e-06 0)
(-0.00413399 -2.14324e-06 0)
(-0.0041052 -2.079e-06 0)
(-0.00407868 -1.89528e-06 0)
(-0.00405557 -1.6017e-06 0)
(-0.00403649 -1.27187e-06 0)
(-0.00402136 -9.74596e-07 0)
(-0.00401022 -6.41773e-07 0)
(-0.00400315 -2.6375e-07 0)
(-0.00400112 2.42798e-07 0)
(-0.00400185 4.87335e-07 0)
(-0.00400483 6.83929e-07 0)
(-0.00400151 -7.21901e-08 0)
(-0.00399621 -2.49817e-07 0)
(-0.00397809 -1.61185e-06 0)
(-0.00396522 -8.95262e-07 0)
(-0.0039395 -1.47223e-06 0)
)
;
    }
    bottomWall
    {
        type            calculated;
        value           nonuniform List<vector> 
800
(
(-0.0353516 0.00216555 0)
(-0.0160394 0.000524834 0)
(-0.0105972 0.000100393 0)
(-0.00846713 3.44179e-05 0)
(-0.0075087 1.94844e-05 0)
(-0.00687987 1.57756e-05 0)
(-0.00637936 1.29308e-05 0)
(-0.00597811 1.04263e-05 0)
(-0.00565551 8.55866e-06 0)
(-0.00539123 7.17964e-06 0)
(-0.00517113 6.10202e-06 0)
(-0.00498626 5.21693e-06 0)
(-0.0048306 4.46592e-06 0)
(-0.00469987 3.81284e-06 0)
(-0.00459089 3.23178e-06 0)
(-0.00450127 2.70196e-06 0)
(-0.0044291 2.20683e-06 0)
(-0.00437268 1.73893e-06 0)
(-0.0043301 1.30798e-06 0)
(-0.00429899 9.40585e-07 0)
(-0.00427649 6.64406e-07 0)
(-0.00425973 4.88321e-07 0)
(-0.00424634 3.95616e-07 0)
(-0.00423476 3.54503e-07 0)
(-0.00422422 3.34742e-07 0)
(-0.00421446 3.18111e-07 0)
(-0.00420542 2.98789e-07 0)
(-0.00419709 2.78239e-07 0)
(-0.00418939 2.59903e-07 0)
(-0.00418224 2.45889e-07 0)
(-0.00417554 2.35585e-07 0)
(-0.00416925 2.25944e-07 0)
(-0.0041634 2.13072e-07 0)
(-0.00415804 1.942e-07 0)
(-0.00415327 1.68942e-07 0)
(-0.00414913 1.3938e-07 0)
(-0.00414562 1.09453e-07 0)
(-0.00414269 8.36293e-08 0)
(-0.00414021 6.57342e-08 0)
(-0.00413807 5.73522e-08 0)
(-0.00413613 5.74823e-08 0)
(-0.00413434 6.18415e-08 0)
(-0.00413267 6.58894e-08 0)
(-0.00413118 6.41898e-08 0)
(-0.00412994 5.613e-08 0)
(-0.00412901 3.99653e-08 0)
(-0.00412841 2.15525e-08 0)
(-0.00412817 2.03461e-09 0)
(-0.00412822 -1.58451e-08 0)
(-0.00412853 -3.25562e-08 0)
(-0.004129 -4.59015e-08 0)
(-0.00412949 -5.01891e-08 0)
(-0.00413002 -5.41038e-08 0)
(-0.00413059 -5.90899e-08 0)
(-0.00413121 -6.38106e-08 0)
(-0.00413188 -6.78291e-08 0)
(-0.0041326 -7.12086e-08 0)
(-0.00413336 -7.43044e-08 0)
(-0.00413415 -7.71104e-08 0)
(-0.00413497 -7.95914e-08 0)
(-0.00413581 -8.15633e-08 0)
(-0.00413668 -8.31496e-08 0)
(-0.00413757 -8.43434e-08 0)
(-0.00413847 -8.52305e-08 0)
(-0.00413938 -8.58884e-08 0)
(-0.00414031 -8.63783e-08 0)
(-0.00414124 -8.6778e-08 0)
(-0.00414219 -8.71199e-08 0)
(-0.00414314 -8.74389e-08 0)
(-0.0041441 -8.77555e-08 0)
(-0.00414507 -8.8083e-08 0)
(-0.00414604 -8.84261e-08 0)
(-0.00414703 -8.87874e-08 0)
(-0.00414802 -8.91653e-08 0)
(-0.00414902 -8.95594e-08 0)
(-0.00415003 -8.99567e-08 0)
(-0.00415105 -9.03545e-08 0)
(-0.00415208 -9.07462e-08 0)
(-0.00415311 -9.11283e-08 0)
(-0.00415415 -9.14971e-08 0)
(-0.0041552 -9.18511e-08 0)
(-0.00415626 -9.21911e-08 0)
(-0.00415732 -9.25197e-08 0)
(-0.0041584 -9.28406e-08 0)
(-0.00415948 -9.31508e-08 0)
(-0.00416056 -9.34482e-08 0)
(-0.00416165 -9.37318e-08 0)
(-0.00416275 -9.39928e-08 0)
(-0.00416385 -9.42212e-08 0)
(-0.00416496 -9.44153e-08 0)
(-0.00416607 -9.45816e-08 0)
(-0.00416719 -9.47111e-08 0)
(-0.00416831 -9.48009e-08 0)
(-0.00416943 -9.48524e-08 0)
(-0.00417056 -9.48478e-08 0)
(-0.00417168 -9.4763e-08 0)
(-0.00417281 -9.45878e-08 0)
(-0.00417394 -9.43163e-08 0)
(-0.00417506 -9.39568e-08 0)
(-0.00417618 -9.35288e-08 0)
(-0.0041773 -9.30614e-08 0)
(-0.00417842 -9.25829e-08 0)
(-0.00417953 -9.21127e-08 0)
(-0.00418064 -9.1655e-08 0)
(-0.00418175 -9.12048e-08 0)
(-0.00418285 -9.07475e-08 0)
(-0.00418395 -9.02662e-08 0)
(-0.00418505 -8.9743e-08 0)
(-0.00418614 -8.91688e-08 0)
(-0.00418722 -8.85388e-08 0)
(-0.0041883 -8.78524e-08 0)
(-0.00418937 -8.71092e-08 0)
(-0.00419044 -8.63154e-08 0)
(-0.0041915 -8.54782e-08 0)
(-0.00419254 -8.46045e-08 0)
(-0.00419359 -8.3697e-08 0)
(-0.00419462 -8.27612e-08 0)
(-0.00419564 -8.18003e-08 0)
(-0.00419665 -8.08175e-08 0)
(-0.00419765 -7.98118e-08 0)
(-0.00419864 -7.87832e-08 0)
(-0.00419962 -7.77257e-08 0)
(-0.00420059 -7.66289e-08 0)
(-0.00420155 -7.5479e-08 0)
(-0.00420249 -7.42695e-08 0)
(-0.00420342 -7.30016e-08 0)
(-0.00420434 -7.16883e-08 0)
(-0.00420524 -7.03472e-08 0)
(-0.00420613 -6.89941e-08 0)
(-0.004207 -6.76294e-08 0)
(-0.00420786 -6.62522e-08 0)
(-0.0042087 -6.48508e-08 0)
(-0.00420953 -6.34163e-08 0)
(-0.00421034 -6.19339e-08 0)
(-0.00421113 -6.04153e-08 0)
(-0.00421191 -5.88708e-08 0)
(-0.00421267 -5.73181e-08 0)
(-0.00421341 -5.5766e-08 0)
(-0.00421414 -5.42178e-08 0)
(-0.00421484 -5.26649e-08 0)
(-0.00421553 -5.10988e-08 0)
(-0.0042162 -4.95109e-08 0)
(-0.00421686 -4.78999e-08 0)
(-0.00421749 -4.62653e-08 0)
(-0.00421811 -4.46213e-08 0)
(-0.0042187 -4.29683e-08 0)
(-0.00421928 -4.13306e-08 0)
(-0.00421984 -3.9674e-08 0)
(-0.00422038 -3.80487e-08 0)
(-0.0042209 -3.63606e-08 0)
(-0.00422133 -3.49133e-08 0)
(-0.00422167 -3.3884e-08 0)
(-0.004222 -3.27292e-08 0)
(-0.00422233 -3.14945e-08 0)
(-0.00422264 -3.02981e-08 0)
(-0.00422295 -2.90798e-08 0)
(-0.00422326 -2.78625e-08 0)
(-0.00422355 -2.66396e-08 0)
(-0.00422384 -2.54102e-08 0)
(-0.00422411 -2.41845e-08 0)
(-0.00422438 -2.29516e-08 0)
(-0.00422464 -2.17161e-08 0)
(-0.00422489 -2.05005e-08 0)
(-0.00422513 -1.9256e-08 0)
(-0.00422536 -1.80319e-08 0)
(-0.00422558 -1.68007e-08 0)
(-0.0042258 -1.5574e-08 0)
(-0.004226 -1.43503e-08 0)
(-0.00422619 -1.31323e-08 0)
(-0.00422637 -1.19258e-08 0)
(-0.00422655 -1.07169e-08 0)
(-0.00422671 -9.51181e-09 0)
(-0.00422686 -8.34207e-09 0)
(-0.004227 -7.13715e-09 0)
(-0.00422713 -5.96421e-09 0)
(-0.00422725 -4.7791e-09 0)
(-0.00422736 -3.59081e-09 0)
(-0.00422746 -2.40898e-09 0)
(-0.00422754 -1.21737e-09 0)
(-0.00422762 -2.42123e-11 0)
(-0.00422768 1.13896e-09 0)
(-0.00422773 2.33087e-09 0)
(-0.00422777 3.48238e-09 0)
(-0.0042278 4.63065e-09 0)
(-0.00422781 5.75594e-09 0)
(-0.00422782 6.83328e-09 0)
(-0.00422781 7.89293e-09 0)
(-0.00422779 8.92251e-09 0)
(-0.00422776 9.89484e-09 0)
(-0.00422772 1.08669e-08 0)
(-0.00422767 1.17863e-08 0)
(-0.00422761 1.27082e-08 0)
(-0.00422754 1.36148e-08 0)
(-0.00422746 1.43692e-08 0)
(-0.00422737 1.50794e-08 0)
(-0.00422727 1.57603e-08 0)
(-0.00422716 1.64266e-08 0)
(-0.00422705 1.70623e-08 0)
(-0.00422692 1.76598e-08 0)
(-0.00422678 1.82221e-08 0)
(-0.00422664 1.87413e-08 0)
(-0.00422649 1.92484e-08 0)
(-0.00422633 1.97186e-08 0)
(-0.00422617 2.01465e-08 0)
(-0.00422599 2.05695e-08 0)
(-0.00422581 2.09834e-08 0)
(-0.00422562 2.13569e-08 0)
(-0.00422543 2.17456e-08 0)
(-0.00422523 2.20801e-08 0)
(-0.00422502 2.23855e-08 0)
(-0.00422481 2.26067e-08 0)
(-0.00422459 2.27156e-08 0)
(-0.00422437 2.27607e-08 0)
(-0.00422415 2.27176e-08 0)
(-0.00422392 2.25627e-08 0)
(-0.0042237 2.23359e-08 0)
(-0.00422348 2.19939e-08 0)
(-0.00422326 2.16586e-08 0)
(-0.00422304 2.12855e-08 0)
(-0.00422283 2.08193e-08 0)
(-0.00422262 2.02795e-08 0)
(-0.00422241 1.97249e-08 0)
(-0.00422221 1.92441e-08 0)
(-0.00422202 1.87452e-08 0)
(-0.00422183 1.8148e-08 0)
(-0.00422164 1.74575e-08 0)
(-0.00422147 1.66512e-08 0)
(-0.00422131 1.58923e-08 0)
(-0.00422115 1.51221e-08 0)
(-0.00422101 1.41334e-08 0)
(-0.00422088 1.29835e-08 0)
(-0.00422076 1.15678e-08 0)
(-0.00422066 1.02486e-08 0)
(-0.00422058 8.89354e-09 0)
(-0.00422052 7.86503e-09 0)
(-0.00422047 6.36809e-09 0)
(-0.00422044 5.38708e-09 0)
(-0.00422044 3.3391e-09 0)
(-0.00422044 2.65537e-09 0)
(-0.00422049 -1.54755e-10 0)
(-0.00422051 7.19056e-10 0)
(-0.00422063 -3.25165e-09 0)
(-0.00422064 1.69396e-10 0)
(-0.00422086 -7.49293e-09 0)
(-0.00422084 4.02223e-10 0)
(-0.0042212 -1.46109e-08 0)
(-0.00422111 2.22007e-09 0)
(-0.00422166 -2.45882e-08 0)
(-0.00422149 6.93109e-09 0)
(-0.0042222 -3.19781e-08 0)
(-0.0353511 -0.00216565 0)
(-0.0160356 -0.000524991 0)
(-0.010589 -0.000100571 0)
(-0.00845416 -3.4588e-05 0)
(-0.0074908 -1.96569e-05 0)
(-0.00685687 -1.59517e-05 0)
(-0.00635122 -1.31082e-05 0)
(-0.00594491 -1.06038e-05 0)
(-0.00561738 -8.73541e-06 0)
(-0.00534835 -7.35451e-06 0)
(-0.00512371 -6.27418e-06 0)
(-0.00493451 -5.38604e-06 0)
(-0.00477477 -4.63187e-06 0)
(-0.00464018 -3.97553e-06 0)
(-0.00452758 -3.39081e-06 0)
(-0.00443458 -2.85679e-06 0)
(-0.00435929 -2.35706e-06 0)
(-0.00429999 -1.88481e-06 0)
(-0.00425475 -1.45062e-06 0)
(-0.00422118 -1.08145e-06 0)
(-0.00419642 -8.04649e-07 0)
(-0.00417759 -6.28302e-07 0)
(-0.00416232 -5.35307e-07 0)
(-0.00414906 -4.94296e-07 0)
(-0.00413701 -4.76669e-07 0)
(-0.00412585 -4.65876e-07 0)
(-0.00411545 -4.57565e-07 0)
(-0.0041057 -4.53455e-07 0)
(-0.00409645 -4.57171e-07 0)
(-0.00408749 -4.71097e-07 0)
(-0.00407864 -4.95846e-07 0)
(-0.00406967 -5.31718e-07 0)
(-0.00406046 -5.78049e-07 0)
(-0.0040507 -6.39743e-07 0)
(-0.00404028 -7.16378e-07 0)
(-0.00402851 -8.26657e-07 0)
(-0.00401546 -9.59018e-07 0)
(-0.00399952 -1.16621e-06 0)
(-0.00398133 -1.38828e-06 0)
(-0.00395765 -1.76814e-06 0)
(-0.00393021 -2.11047e-06 0)
(-0.00389402 -2.77705e-06 0)
(-0.00384947 -3.29173e-06 0)
(-0.00379656 -4.41801e-06 0)
(-0.00371519 -5.28517e-06 0)
(-0.00365142 -7.12619e-06 0)
(-0.00347292 -8.65706e-06 0)
(-0.00346336 -1.26753e-05 0)
(-0.00294448 -1.17532e-05 0)
(-0.00342668 7.47044e-05 0)
(1.12366e-05 -5.10355e-06 0)
(1.1111e-05 -2.16454e-05 0)
(1.09918e-05 -3.52639e-05 0)
(1.10351e-05 -4.87775e-05 0)
(1.11242e-05 -6.22196e-05 0)
(1.12439e-05 -7.56588e-05 0)
(1.13872e-05 -8.91184e-05 0)
(1.15529e-05 -0.000102627 0)
(1.17426e-05 -0.000116211 0)
(1.19521e-05 -0.000129895 0)
(1.21852e-05 -0.000143703 0)
(1.24402e-05 -0.000157658 0)
(1.27161e-05 -0.000171783 0)
(1.30135e-05 -0.000186098 0)
(1.33326e-05 -0.000200624 0)
(1.36722e-05 -0.000215382 0)
(1.40341e-05 -0.000230388 0)
(1.44159e-05 -0.000245666 0)
(1.48243e-05 -0.000261228 0)
(1.52497e-05 -0.000277095 0)
(1.5701e-05 -0.000293284 0)
(1.61719e-05 -0.000309809 0)
(1.66658e-05 -0.00032669 0)
(1.7178e-05 -0.000343945 0)
(1.77189e-05 -0.000361582 0)
(1.82815e-05 -0.000379622 0)
(1.88687e-05 -0.00039808 0)
(1.94791e-05 -0.000416967 0)
(2.01116e-05 -0.000436302 0)
(2.07684e-05 -0.000456097 0)
(2.14494e-05 -0.000476368 0)
(2.21575e-05 -0.000497126 0)
(2.28892e-05 -0.000518386 0)
(2.36478e-05 -0.00054016 0)
(2.44297e-05 -0.000562464 0)
(2.52406e-05 -0.000585308 0)
(2.6079e-05 -0.000608703 0)
(2.69402e-05 -0.000632665 0)
(2.78303e-05 -0.000657206 0)
(2.87494e-05 -0.000682332 0)
(2.96944e-05 -0.000708058 0)
(3.06662e-05 -0.000734396 0)
(3.16661e-05 -0.000761355 0)
(3.26943e-05 -0.000788943 0)
(3.37506e-05 -0.000817171 0)
(3.4835e-05 -0.000846048 0)
(3.5947e-05 -0.000875582 0)
(3.70867e-05 -0.00090578 0)
(3.82537e-05 -0.00093665 0)
(3.94481e-05 -0.000968196 0)
(4.06681e-05 -0.00100043 0)
(4.19133e-05 -0.00103334 0)
(4.3184e-05 -0.00106695 0)
(4.44799e-05 -0.00110124 0)
(4.57982e-05 -0.00113623 0)
(4.71353e-05 -0.00117192 0)
(4.84907e-05 -0.00120829 0)
(4.98649e-05 -0.00124535 0)
(5.12554e-05 -0.00128308 0)
(5.26566e-05 -0.0013215 0)
(5.4065e-05 -0.00136058 0)
(5.54797e-05 -0.00140031 0)
(5.68982e-05 -0.00144069 0)
(5.83155e-05 -0.00148168 0)
(5.97259e-05 -0.00152329 0)
(6.11244e-05 -0.00156548 0)
(6.2507e-05 -0.00160824 0)
(6.38691e-05 -0.00165153 0)
(6.52031e-05 -0.00169533 0)
(6.6501e-05 -0.00173961 0)
(6.77565e-05 -0.00178432 0)
(6.89633e-05 -0.00182943 0)
(7.01146e-05 -0.00187491 0)
(7.12024e-05 -0.00192069 0)
(7.22188e-05 -0.00196675 0)
(7.31549e-05 -0.00201301 0)
(7.40018e-05 -0.00205943 0)
(7.47503e-05 -0.00210594 0)
(7.53908e-05 -0.00215249 0)
(7.59134e-05 -0.00219901 0)
(7.63072e-05 -0.00224542 0)
(7.65614e-05 -0.00229166 0)
(7.66647e-05 -0.00233765 0)
(7.66058e-05 -0.00238332 0)
(7.63741e-05 -0.00242857 0)
(7.59589e-05 -0.00247333 0)
(7.53494e-05 -0.00251752 0)
(7.45349e-05 -0.00256104 0)
(7.35046e-05 -0.00260381 0)
(7.22481e-05 -0.00264573 0)
(7.07551e-05 -0.00268672 0)
(6.90156e-05 -0.00272668 0)
(6.70203e-05 -0.00276552 0)
(6.47598e-05 -0.00280314 0)
(6.22259e-05 -0.00283946 0)
(5.94105e-05 -0.00287437 0)
(5.6306e-05 -0.00290778 0)
(5.29057e-05 -0.00293961 0)
(4.92029e-05 -0.00296976 0)
(4.51918e-05 -0.00299815 0)
(4.08667e-05 -0.00302468 0)
(3.62225e-05 -0.00304927 0)
(3.12544e-05 -0.00307183 0)
(2.59578e-05 -0.00309229 0)
(2.03277e-05 -0.00311056 0)
(1.43587e-05 -0.00312657 0)
(8.04378e-06 -0.00314025 0)
(1.37303e-06 -0.00315151 0)
(-5.66654e-06 -0.0031603 0)
(-1.30967e-05 -0.00316653 0)
(-2.08998e-05 -0.00317015 0)
(-2.91701e-05 -0.00317114 0)
(-3.79257e-05 -0.00316929 0)
(-4.71036e-05 -0.00316454 0)
(-5.66905e-05 -0.00315684 0)
(-6.66923e-05 -0.00314614 0)
(-7.7098e-05 -0.0031324 0)
(-8.78951e-05 -0.00311556 0)
(-9.90802e-05 -0.00309561 0)
(-0.000110651 -0.00307251 0)
(-0.000122607 -0.00304622 0)
(-0.000134947 -0.00301671 0)
(-0.000147671 -0.00298397 0)
(-0.000160777 -0.00294796 0)
(-0.000174265 -0.00290866 0)
(-0.000188133 -0.00286605 0)
(-0.000202381 -0.00282011 0)
(-0.000217008 -0.00277083 0)
(-0.00023201 -0.00271819 0)
(-0.000247384 -0.00266218 0)
(-0.000263125 -0.00260278 0)
(-0.000279225 -0.00253999 0)
(-0.000295674 -0.0024738 0)
(-0.00031246 -0.00240421 0)
(-0.000329566 -0.0023312 0)
(-0.000346972 -0.0022548 0)
(-0.000364651 -0.002175 0)
(-0.000382572 -0.00209181 0)
(-0.000400697 -0.00200525 0)
(-0.000418979 -0.00191534 0)
(-0.000437366 -0.00182212 0)
(-0.000455796 -0.00172563 0)
(-0.000474196 -0.00162591 0)
(-0.000492485 -0.00152302 0)
(-0.000510573 -0.00141704 0)
(-0.000528359 -0.00130805 0)
(-0.000545737 -0.00119615 0)
(-0.000562596 -0.00108146 0)
(-0.000578827 -0.000964095 0)
(-0.000594325 -0.000844206 0)
(-0.000608997 -0.000721956 0)
(-0.000622782 -0.000597537 0)
(-0.000635682 -0.000471178 0)
(-0.000647795 -0.000343176 0)
(-0.000659401 -0.000213969 0)
(-0.00067105 -8.42452e-05 0)
(-0.000683689 4.4891e-05 0)
(-0.000699269 0.000172769 0)
(-0.000719574 0.000304917 0)
(-0.000738572 0.000462951 0)
(-0.000728856 0.000678789 0)
(-0.000644398 0.000949136 0)
(-0.000464115 0.00119815 0)
(-0.000231137 0.00132652 0)
(-2.90427e-05 0.00132514 0)
(9.58003e-05 0.00128025 0)
(0.000154363 0.00125631 0)
(0.000175877 0.00126265 0)
(0.000180414 0.0012878 0)
(0.000177236 0.00132274 0)
(0.000171652 0.00136384 0)
(0.000167436 0.00140782 0)
(0.000167084 0.00145167 0)
(0.000172151 0.00149331 0)
(0.000183683 0.00153137 0)
(0.000202453 0.00156489 0)
(0.000228835 0.00159302 0)
(0.000262559 0.00161509 0)
(0.000303636 0.00163117 0)
(0.000354088 0.00164163 0)
(0.000416315 0.00164474 0)
(0.000490422 0.00163657 0)
(0.0005745 0.00161323 0)
(0.00066577 0.00157215 0)
(0.000761043 0.00151176 0)
(0.000856908 0.00143143 0)
(0.000949989 0.00133153 0)
(0.00103721 0.0012131 0)
(0.00111581 0.00107738 0)
(0.00118304 0.000925305 0)
(0.00123575 0.000756995 0)
(0.00126969 0.000571605 0)
(0.00127858 0.000367911 0)
(0.00125402 0.000144076 0)
(0.001183 -9.88527e-05 0)
(0.00105145 -0.000350844 0)
(0.00085187 -0.000595227 0)
(0.000581661 -0.00082572 0)
(0.000238025 -0.00107991 0)
(-0.000192719 -0.00147181 0)
(6.57778e-07 -1.14149e-05 0)
(1.34906e-05 -1.16572e-05 0)
(2.199e-05 -1.1206e-05 0)
(3.01605e-05 -1.10328e-05 0)
(3.82322e-05 -1.09395e-05 0)
(4.62765e-05 -1.08511e-05 0)
(5.42369e-05 -1.07456e-05 0)
(6.21072e-05 -1.06247e-05 0)
(6.98734e-05 -1.04868e-05 0)
(7.75196e-05 -1.0333e-05 0)
(8.50349e-05 -1.01635e-05 0)
(9.24026e-05 -9.97393e-06 0)
(9.9611e-05 -9.7751e-06 0)
(0.000106651 -9.55917e-06 0)
(0.000113511 -9.32996e-06 0)
(0.000120178 -9.08796e-06 0)
(0.000126641 -8.83045e-06 0)
(0.000132894 -8.55931e-06 0)
(0.000138922 -8.2779e-06 0)
(0.000144717 -7.98709e-06 0)
(0.000150277 -7.68645e-06 0)
(0.000155592 -7.37794e-06 0)
(0.000160653 -7.0609e-06 0)
(0.000165459 -6.73337e-06 0)
(0.000170002 -6.39307e-06 0)
(0.000174274 -6.05926e-06 0)
(0.000178278 -5.71644e-06 0)
(0.000182002 -5.35867e-06 0)
(0.000185452 -5.01089e-06 0)
(0.000188626 -4.65327e-06 0)
(0.000191519 -4.2962e-06 0)
(0.000194134 -3.93924e-06 0)
(0.000196475 -3.58208e-06 0)
(0.000198531 -3.21547e-06 0)
(0.000200312 -2.86724e-06 0)
(0.000201827 -2.51167e-06 0)
(0.000203063 -2.15084e-06 0)
(0.000204033 -1.80845e-06 0)
(0.000204746 -1.46448e-06 0)
(0.000205201 -1.12046e-06 0)
(0.000205394 -7.72461e-07 0)
(0.000205337 -4.44495e-07 0)
(0.000205045 -1.20112e-07 0)
(0.000204519 1.96394e-07 0)
(0.000203767 5.05661e-07 0)
(0.000202797 8.0652e-07 0)
(0.000201617 1.09835e-06 0)
(0.000200224 1.38918e-06 0)
(0.000198629 1.66579e-06 0)
(0.000196851 1.92907e-06 0)
(0.000194894 2.1802e-06 0)
(0.000192771 2.41859e-06 0)
(0.000190489 2.6495e-06 0)
(0.000188058 2.87302e-06 0)
(0.000185487 3.09283e-06 0)
(0.000182764 3.31343e-06 0)
(0.000179902 3.52311e-06 0)
(0.000176922 3.72299e-06 0)
(0.000173824 3.91566e-06 0)
(0.000170624 4.10299e-06 0)
(0.000167304 4.28889e-06 0)
(0.00016388 4.45579e-06 0)
(0.000160384 4.61935e-06 0)
(0.00015679 4.77656e-06 0)
(0.000153122 4.92313e-06 0)
(0.00014938 5.07662e-06 0)
(0.000145568 5.20659e-06 0)
(0.0001417 5.33639e-06 0)
(0.000137778 5.46359e-06 0)
(0.000133799 5.57421e-06 0)
(0.000129768 5.68881e-06 0)
(0.000125703 5.79394e-06 0)
(0.000121598 5.89598e-06 0)
(0.000117458 5.9913e-06 0)
(0.000113287 6.0802e-06 0)
(0.00010909 6.1645e-06 0)
(0.000104865 6.25076e-06 0)
(0.000100617 6.32471e-06 0)
(9.63556e-05 6.39889e-06 0)
(9.20735e-05 6.46251e-06 0)
(8.77773e-05 6.52825e-06 0)
(8.3468e-05 6.59308e-06 0)
(7.91436e-05 6.65283e-06 0)
(7.48142e-05 6.70288e-06 0)
(7.04785e-05 6.74818e-06 0)
(6.61305e-05 6.79964e-06 0)
(6.17701e-05 6.83842e-06 0)
(5.74111e-05 6.87773e-06 0)
(5.30479e-05 6.91791e-06 0)
(4.86763e-05 6.95133e-06 0)
(4.43059e-05 6.98064e-06 0)
(3.99301e-05 7.01236e-06 0)
(3.55501e-05 7.03873e-06 0)
(3.1167e-05 7.06331e-06 0)
(2.67828e-05 7.08873e-06 0)
(2.23905e-05 7.11323e-06 0)
(1.80198e-05 7.16399e-06 0)
(1.3604e-05 7.30544e-06 0)
(9.00575e-06 7.8394e-06 0)
(5.60583e-07 8.37235e-06 0)
(8.19651e-06 3.95185e-06 0)
(7.20745e-06 1.42821e-05 0)
(6.88297e-06 2.1315e-05 0)
(6.82269e-06 2.83791e-05 0)
(6.81578e-06 3.52485e-05 0)
(6.82041e-06 4.20664e-05 0)
(6.82148e-06 4.87787e-05 0)
(6.8234e-06 5.53981e-05 0)
(6.82812e-06 6.19132e-05 0)
(6.82135e-06 6.83197e-05 0)
(6.82214e-06 7.46125e-05 0)
(6.81417e-06 8.07874e-05 0)
(6.80453e-06 8.68441e-05 0)
(6.78533e-06 9.2767e-05 0)
(6.76739e-06 9.85532e-05 0)
(6.74528e-06 0.000104201 0)
(6.71455e-06 0.000109705 0)
(6.68278e-06 0.000115052 0)
(6.63047e-06 0.000120227 0)
(6.58238e-06 0.000125242 0)
(6.52968e-06 0.000130076 0)
(6.45386e-06 0.000134716 0)
(6.37823e-06 0.000139163 0)
(6.2916e-06 0.000143407 0)
(6.19423e-06 0.000147439 0)
(6.08065e-06 0.000151245 0)
(5.96113e-06 0.000154813 0)
(5.82391e-06 0.000158141 0)
(5.67544e-06 0.000161214 0)
(5.50877e-06 0.000164031 0)
(5.33296e-06 0.000166563 0)
(5.12942e-06 0.000168799 0)
(4.91432e-06 0.000170743 0)
(4.68128e-06 0.000172374 0)
(4.4285e-06 0.000173682 0)
(4.15783e-06 0.000174656 0)
(3.86423e-06 0.000175292 0)
(3.55674e-06 0.000175558 0)
(3.2099e-06 0.000175458 0)
(2.85739e-06 0.000174983 0)
(2.46697e-06 0.000174105 0)
(2.06158e-06 0.000172838 0)
(1.63024e-06 0.000171154 0)
(1.17504e-06 0.000169045 0)
(6.94497e-07 0.0001665 0)
(1.87249e-07 0.00016351 0)
(-3.42724e-07 0.000160059 0)
(-9.05222e-07 0.000156147 0)
(-1.4863e-06 0.000151749 0)
(-2.10518e-06 0.000146854 0)
(-2.74822e-06 0.000141478 0)
(-3.42364e-06 0.000135619 0)
(-4.13051e-06 0.000129297 0)
(-4.86534e-06 0.000122357 0)
(-5.62814e-06 0.000114795 0)
(-6.4226e-06 0.000106731 0)
(-7.24693e-06 9.81432e-05 0)
(-8.10464e-06 8.90153e-05 0)
(-8.99245e-06 7.93139e-05 0)
(-9.91436e-06 6.90135e-05 0)
(-1.08684e-05 5.81361e-05 0)
(-1.18545e-05 4.66808e-05 0)
(-1.28776e-05 3.46322e-05 0)
(-1.39327e-05 2.19779e-05 0)
(-1.50228e-05 8.7115e-06 0)
(-1.6145e-05 -5.16722e-06 0)
(-1.73024e-05 -1.96622e-05 0)
(-1.84939e-05 -3.47762e-05 0)
(-1.97206e-05 -5.0516e-05 0)
(-2.0982e-05 -6.68857e-05 0)
(-2.22782e-05 -8.38885e-05 0)
(-2.36096e-05 -0.000101528 0)
(-2.49764e-05 -0.000119806 0)
(-2.63787e-05 -0.000138726 0)
(-2.7817e-05 -0.00015829 0)
(-2.92914e-05 -0.000178499 0)
(-3.08022e-05 -0.000199356 0)
(-3.23499e-05 -0.000220862 0)
(-3.3935e-05 -0.000243017 0)
(-3.55579e-05 -0.000265824 0)
(-3.72194e-05 -0.000289282 0)
(-3.89198e-05 -0.000313392 0)
(-4.06597e-05 -0.000338154 0)
(-4.24395e-05 -0.000363567 0)
(-4.42595e-05 -0.000389633 0)
(-4.61202e-05 -0.00041635 0)
(-4.80219e-05 -0.000443718 0)
(-4.99652e-05 -0.000471737 0)
(-5.19505e-05 -0.000500405 0)
(-5.39782e-05 -0.000529722 0)
(-5.60489e-05 -0.000559687 0)
(-5.81631e-05 -0.0005903 0)
(-6.03216e-05 -0.000621558 0)
(-6.25249e-05 -0.000653462 0)
(-6.47736e-05 -0.00068601 0)
(-6.70686e-05 -0.000719201 0)
(-6.94107e-05 -0.000753034 0)
(-7.18006e-05 -0.000787508 0)
(-7.42392e-05 -0.000822622 0)
(-7.67275e-05 -0.000858375 0)
(-7.92664e-05 -0.000894766 0)
(-8.1857e-05 -0.000931794 0)
(-8.45005e-05 -0.000969459 0)
(-8.71979e-05 -0.00100776 0)
(-8.99504e-05 -0.0010467 0)
(-9.27595e-05 -0.00108627 0)
(-9.56264e-05 -0.00112648 0)
(-9.85527e-05 -0.00116732 0)
(-0.00010154 -0.0012088 0)
(-0.000104589 -0.00125091 0)
(-0.000107703 -0.00129366 0)
(-0.000110882 -0.00133705 0)
(-0.000114129 -0.00138107 0)
(-0.000117446 -0.00142573 0)
(-0.000120835 -0.00147104 0)
(-0.000124298 -0.00151698 0)
(-0.000127837 -0.00156358 0)
(-0.000131454 -0.00161081 0)
(-0.000135153 -0.0016587 0)
(-0.000138936 -0.00170724 0)
(-0.000142805 -0.00175644 0)
(-0.000146764 -0.0018063 0)
(-0.000150816 -0.00185682 0)
(-0.000154964 -0.00190801 0)
(-0.000159211 -0.00195988 0)
(-0.000163561 -0.00201242 0)
(-0.000168019 -0.00206565 0)
(-0.000172587 -0.00211958 0)
(-0.000177271 -0.0021742 0)
(-0.000182075 -0.00222953 0)
(-0.000187003 -0.00228557 0)
(-0.000192061 -0.00234234 0)
(-0.000197254 -0.00239984 0)
(-0.000202588 -0.00245808 0)
(-0.000208069 -0.00251708 0)
(-0.000213703 -0.00257684 0)
(-0.000219496 -0.00263738 0)
(-0.000225457 -0.00269871 0)
(-0.000231592 -0.00276085 0)
(-0.00023791 -0.0028238 0)
(-0.00024442 -0.00288759 0)
(-0.00025113 -0.00295223 0)
(-0.000258051 -0.00301775 0)
(-0.000265193 -0.00308414 0)
(-0.000272567 -0.00315145 0)
(-0.000280186 -0.00321969 0)
(-0.000288062 -0.00328888 0)
(-0.000296209 -0.00335904 0)
(-0.000304643 -0.00343021 0)
(-0.000313379 -0.00350241 0)
(-0.000322434 -0.00357566 0)
(-0.000331828 -0.00365 0)
(-0.00034158 -0.00372547 0)
(-0.000351714 -0.00380209 0)
(-0.000362252 -0.00387991 0)
(-0.00037322 -0.00395895 0)
(-0.000384648 -0.00403927 0)
(-0.000396565 -0.00412092 0)
(-0.000409007 -0.00420392 0)
(-0.00042201 -0.00428835 0)
(-0.000435615 -0.00437425 0)
(-0.000449868 -0.00446168 0)
(-0.000464818 -0.0045507 0)
(-0.000480521 -0.00464138 0)
(-0.000497039 -0.00473379 0)
(-0.000514439 -0.00482801 0)
(-0.000532799 -0.00492412 0)
(-0.000552203 -0.00502221 0)
(-0.000572747 -0.00512237 0)
(-0.000594537 -0.00522471 0)
(-0.000617695 -0.00532933 0)
(-0.000642356 -0.00543636 0)
(-0.000668671 -0.00554591 0)
(-0.000696814 -0.00565814 0)
(-0.000726976 -0.00577319 0)
(-0.000759378 -0.00589121 0)
(-0.000794266 -0.00601239 0)
(-0.000831919 -0.00613691 0)
(-0.000872653 -0.00626497 0)
(-0.000916821 -0.0063968 0)
(-0.00096483 -0.00653264 0)
(-0.00101712 -0.00667273 0)
(-0.00107423 -0.00681741 0)
(-0.00113669 -0.00696687 0)
(-0.00120522 -0.00712165 0)
(-0.00128043 -0.00728178 0)
(-0.00136333 -0.00744829 0)
(-0.00145448 -0.00762052 0)
(-0.0015555 -0.00780092 0)
(-0.00166645 -0.00798666 0)
(-0.00179044 -0.00818426 0)
(-0.00192558 -0.00838416 0)
(-0.00207906 -0.00860484 0)
(-0.00224264 -0.00881668 0)
(-0.0024348 -0.00907274 0)
(-0.00262786 -0.00928504 0)
(-0.0028705 -0.00960507 0)
(-0.00307532 -0.00977877 0)
(-0.00336105 -0.0102321 0)
(-0.00346322 -0.0102684 0)
)
;
    }
    frontAndBack
    {
        type            empty;
    }
}


// ************************************************************************* //
