/*--------------------------------*- C++ -*----------------------------------*\
  =========                 |
  \\      /  F ield         | OpenFOAM: The Open Source CFD Toolbox
   \\    /   O peration     | Website:  https://openfoam.org
    \\  /    A nd           | Version:  7
     \\/     M anipulation  |
\*---------------------------------------------------------------------------*/
FoamFile
{
    version     2.0;
    format      ascii;
    class       volVectorField;
    location    "0.22";
    object      ddtCorrDdt0(U);
}
// * * * * * * * * * * * * * * * * * * * * * * * * * * * * * * * * * * * * * //

dimensions      [0 1 -2 0 0 0 0];

internalField   nonuniform List<vector> 
70000
(
(0.000868292 -5.82885e-05 0)
(0.0050589 -8.19468e-05 0)
(0.0102021 -8.60231e-05 0)
(0.0158239 -7.45106e-05 0)
(0.0220867 -7.33955e-05 0)
(0.0290561 -7.57183e-05 0)
(0.0364782 -7.84298e-05 0)
(0.0440577 -8.14713e-05 0)
(0.0515827 -8.4286e-05 0)
(0.0588831 -8.61869e-05 0)
(0.0658499 -8.73859e-05 0)
(0.0724252 -8.83082e-05 0)
(0.0785967 -8.89431e-05 0)
(0.0844083 -8.99636e-05 0)
(0.0899063 -9.12139e-05 0)
(0.0951836 -9.33346e-05 0)
(0.100307 -9.5876e-05 0)
(0.105379 -9.93204e-05 0)
(0.110475 -0.000103352 0)
(0.11568 -0.000107959 0)
(0.121084 -0.000113626 0)
(0.126757 -0.000119856 0)
(0.132791 -0.00012713 0)
(0.139274 -0.000135672 0)
(0.146273 -0.0001448 0)
(0.153893 -0.000155405 0)
(0.162191 -0.000166793 0)
(0.171237 -0.000178897 0)
(0.181108 -0.000192364 0)
(0.191835 -0.00020618 0)
(0.203484 -0.000220674 0)
(0.216107 -0.000236303 0)
(0.229713 -0.000250581 0)
(0.244382 -0.00026642 0)
(0.260041 -0.000278705 0)
(0.276772 -0.00029266 0)
(0.294328 -0.000298311 0)
(0.312895 -0.000308685 0)
(0.331762 -0.000299623 0)
(0.351429 -0.000301447 0)
(0.370416 -0.000270038 0)
(0.389348 -0.000248192 0)
(0.406529 -0.000197637 0)
(0.42079 -0.000123451 0)
(0.433249 -7.91013e-05 0)
(0.436248 4.697e-05 0)
(0.438577 1.72904e-05 0)
(0.426792 5.28148e-05 0)
(0.414641 -0.00153378 0)
(0.406678 0.00014628 0)
(0.000682964 -0.000274778 0)
(0.00770323 -0.000504314 0)
(0.0182476 -0.000615125 0)
(0.0306554 -0.000702215 0)
(0.0450312 -0.000796041 0)
(0.0615843 -0.000875792 0)
(0.0796601 -0.000923048 0)
(0.0983072 -0.000938263 0)
(0.116753 -0.000929111 0)
(0.134423 -0.000901237 0)
(0.150938 -0.000861199 0)
(0.166097 -0.000816278 0)
(0.179855 -0.000771885 0)
(0.192307 -0.000733705 0)
(0.203604 -0.000703722 0)
(0.213973 -0.000684942 0)
(0.223632 -0.000677248 0)
(0.232841 -0.000681993 0)
(0.241836 -0.000699445 0)
(0.250867 -0.000729375 0)
(0.260192 -0.00077421 0)
(0.270043 -0.00083247 0)
(0.280675 -0.000906067 0)
(0.292329 -0.000995256 0)
(0.305218 -0.00109859 0)
(0.319579 -0.00121759 0)
(0.335599 -0.00135123 0)
(0.353464 -0.00149829 0)
(0.373371 -0.00166147 0)
(0.395454 -0.00183739 0)
(0.419899 -0.00202732 0)
(0.446853 -0.00223173 0)
(0.476429 -0.00244433 0)
(0.508822 -0.00266926 0)
(0.543974 -0.00289463 0)
(0.582193 -0.0031243 0)
(0.622932 -0.00333487 0)
(0.666953 -0.00354124 0)
(0.712482 -0.00367707 0)
(0.761239 -0.00379931 0)
(0.809486 -0.00374958 0)
(0.859335 -0.00366276 0)
(0.906491 -0.00324195 0)
(0.948259 -0.00271268 0)
(0.987568 -0.00165454 0)
(1.00387 -0.000296998 0)
(1.01847 0.00127326 0)
(0.994924 0.00432004 0)
(0.94075 -0.00100548 0)
(0.903502 0.00743944 0)
(0.000167672 -0.000521576 0)
(0.00676173 -0.00107437 0)
(0.018584 -0.00140219 0)
(0.0340822 -0.0016787 0)
(0.0530374 -0.001976 0)
(0.0755998 -0.00223861 0)
(0.101001 -0.0024031 0)
(0.127836 -0.00245825 0)
(0.154742 -0.00242575 0)
(0.180629 -0.00232877 0)
(0.204736 -0.00218946 0)
(0.226612 -0.00203086 0)
(0.246083 -0.00187071 0)
(0.263211 -0.00172512 0)
(0.278186 -0.00160204 0)
(0.291316 -0.00150863 0)
(0.30293 -0.00144734 0)
(0.313418 -0.00142062 0)
(0.323161 -0.00143132 0)
(0.332562 -0.00147887 0)
(0.342035 -0.00156877 0)
(0.351973 -0.00169842 0)
(0.362781 -0.00187142 0)
(0.374846 -0.00208719 0)
(0.388513 -0.00234427 0)
(0.404144 -0.00264298 0)
(0.422041 -0.00298349 0)
(0.442492 -0.00336208 0)
(0.465801 -0.00378455 0)
(0.492195 -0.00424515 0)
(0.521962 -0.0047471 0)
(0.555348 -0.0052903 0)
(0.592561 -0.00586798 0)
(0.633931 -0.00648173 0)
(0.679439 -0.00711956 0)
(0.729664 -0.00777535 0)
(0.783883 -0.00842139 0)
(0.843463 -0.00905903 0)
(0.905947 -0.00958606 0)
(0.974213 -0.0100703 0)
(1.04311 -0.0102086 0)
(1.11617 -0.0102618 0)
(1.18764 -0.00949429 0)
(1.25434 -0.00855503 0)
(1.32041 -0.00606511 0)
(1.35875 -0.00287968 0)
(1.39528 0.00135846 0)
(1.38501 0.0103112 0)
(1.32393 0.00335601 0)
(1.23627 0.0166145 0)
(-5.88883e-05 -0.000706197 0)
(0.00505137 -0.00161255 0)
(0.0155021 -0.002255 0)
(0.0306133 -0.00280913 0)
(0.0504606 -0.00339772 0)
(0.0753125 -0.00394573 0)
(0.104516 -0.00432891 0)
(0.136533 -0.00449896 0)
(0.169588 -0.00447785 0)
(0.202069 -0.00430797 0)
(0.232734 -0.00403496 0)
(0.26074 -0.00370698 0)
(0.28563 -0.0033622 0)
(0.307289 -0.00303414 0)
(0.325818 -0.00274234 0)
(0.341507 -0.00250163 0)
(0.354713 -0.00232041 0)
(0.365894 -0.00220376 0)
(0.37553 -0.00215959 0)
(0.38414 -0.00218774 0)
(0.392275 -0.00229803 0)
(0.400467 -0.00248704 0)
(0.409262 -0.00276022 0)
(0.41918 -0.00311547 0)
(0.430697 -0.00355158 0)
(0.444288 -0.00406624 0)
(0.460362 -0.00466145 0)
(0.479305 -0.00532993 0)
(0.501509 -0.00608097 0)
(0.527287 -0.0069063 0)
(0.557005 -0.00781203 0)
(0.590997 -0.00879676 0)
(0.629535 -0.00985719 0)
(0.673079 -0.0109885 0)
(0.721624 -0.0121877 0)
(0.776003 -0.0134291 0)
(0.835374 -0.0146973 0)
(0.901599 -0.0159608 0)
(0.971839 -0.0171058 0)
(1.04981 -0.0181856 0)
(1.12969 -0.018762 0)
(1.21601 -0.0192273 0)
(1.30227 -0.0183346 0)
(1.38607 -0.0172396 0)
(1.47055 -0.0134637 0)
(1.53005 -0.00833842 0)
(1.58515 -0.00143298 0)
(1.59677 0.0143332 0)
(1.55576 0.0100605 0)
(1.4166 0.0218393 0)
(-1.74093e-05 -0.000837512 0)
(0.00389555 -0.0020558 0)
(0.0122449 -0.00301611 0)
(0.0248684 -0.00389952 0)
(0.0423963 -0.00485152 0)
(0.0656782 -0.00577772 0)
(0.09465 -0.00649023 0)
(0.128109 -0.00688533 0)
(0.164233 -0.00696211 0)
(0.201084 -0.00677027 0)
(0.236964 -0.00637745 0)
(0.270556 -0.00586153 0)
(0.300981 -0.00528818 0)
(0.327777 -0.00471572 0)
(0.350791 -0.00418198 0)
(0.370141 -0.0037148 0)
(0.386084 -0.00333328 0)
(0.399038 -0.00304843 0)
(0.409489 -0.0028766 0)
(0.418007 -0.00282026 0)
(0.42522 -0.00289546 0)
(0.431763 -0.00309911 0)
(0.438296 -0.00343906 0)
(0.445458 -0.00391153 0)
(0.453839 -0.00451567 0)
(0.464025 -0.0052455 0)
(0.476527 -0.00610491 0)
(0.491825 -0.00708211 0)
(0.510393 -0.0081897 0)
(0.532625 -0.00941641 0)
(0.558946 -0.0107717 0)
(0.589772 -0.0122517 0)
(0.625408 -0.0138598 0)
(0.666426 -0.0155815 0)
(0.712811 -0.0174298 0)
(0.765584 -0.0193533 0)
(0.823829 -0.0213603 0)
(0.889716 -0.0233771 0)
(0.960257 -0.0252919 0)
(1.03962 -0.0271348 0)
(1.12173 -0.0283426 0)
(1.21185 -0.0294266 0)
(1.3027 -0.0286609 0)
(1.39401 -0.0276029 0)
(1.4851 -0.0229027 0)
(1.55801 -0.0158855 0)
(1.62141 -0.00654641 0)
(1.64738 0.0152053 0)
(1.63151 0.0182398 0)
(1.45696 0.0291035 0)
(8.29904e-05 -0.000954478 0)
(0.00344104 -0.0024226 0)
(0.0102246 -0.00363613 0)
(0.0201124 -0.00481207 0)
(0.0338727 -0.00613141 0)
(0.0529139 -0.00748599 0)
(0.0780611 -0.00862333 0)
(0.108964 -0.00936954 0)
(0.144304 -0.0096753 0)
(0.182255 -0.00957541 0)
(0.220923 -0.00914604 0)
(0.258621 -0.0084896 0)
(0.29402 -0.00770015 0)
(0.326212 -0.00686515 0)
(0.354646 -0.00604679 0)
(0.379108 -0.00529193 0)
(0.3996 -0.00463612 0)
(0.41635 -0.00410132 0)
(0.429721 -0.00371695 0)
(0.440214 -0.00349208 0)
(0.448443 -0.00345231 0)
(0.455067 -0.0035975 0)
(0.460807 -0.00393955 0)
(0.466381 -0.00447392 0)
(0.47247 -0.0052006 0)
(0.479754 -0.00610965 0)
(0.488837 -0.00720671 0)
(0.500289 -0.00847492 0)
(0.514662 -0.00992972 0)
(0.532432 -0.0115561 0)
(0.554079 -0.0133669 0)
(0.580099 -0.0153544 0)
(0.610816 -0.0175301 0)
(0.646893 -0.0198678 0)
(0.688305 -0.0223998 0)
(0.736183 -0.0250469 0)
(0.789589 -0.0278446 0)
(0.850818 -0.0306768 0)
(0.916901 -0.0334373 0)
(0.992137 -0.0361292 0)
(1.07044 -0.0380857 0)
(1.15761 -0.039884 0)
(1.24538 -0.0394514 0)
(1.33637 -0.0384805 0)
(1.42477 -0.0332025 0)
(1.50186 -0.0243588 0)
(1.56505 -0.0125622 0)
(1.59364 0.0139196 0)
(1.59302 0.0271562 0)
(1.40797 0.0430412 0)
(0.000143612 -0.00107144 0)
(0.00335916 -0.00275206 0)
(0.00940047 -0.00415027 0)
(0.0174331 -0.00553358 0)
(0.0278198 -0.00714148 0)
(0.0420595 -0.00888992 0)
(0.0616252 -0.0104836 0)
(0.0871418 -0.0116739 0)
(0.118209 -0.0123436 0)
(0.153617 -0.0124865 0)
(0.191738 -0.0121645 0)
(0.230844 -0.0114879 0)
(0.269351 -0.0105703 0)
(0.305978 -0.00952541 0)
(0.339753 -0.00844117 0)
(0.370051 -0.00738709 0)
(0.396496 -0.00642 0)
(0.418992 -0.00557781 0)
(0.437631 -0.0049082 0)
(0.452706 -0.00443206 0)
(0.464681 -0.00418934 0)
(0.474128 -0.00418742 0)
(0.481731 -0.0044456 0)
(0.488218 -0.00496119 0)
(0.494309 -0.00573656 0)
(0.500741 -0.00675861 0)
(0.508184 -0.00803508 0)
(0.517284 -0.00954415 0)
(0.528657 -0.0113038 0)
(0.542861 -0.0132949 0)
(0.56043 -0.0155334 0)
(0.581936 -0.0180063 0)
(0.607733 -0.0207335 0)
(0.638553 -0.0236759 0)
(0.67438 -0.026885 0)
(0.71639 -0.0302546 0)
(0.763684 -0.0338456 0)
(0.818533 -0.0375031 0)
(0.878113 -0.0411266 0)
(0.94663 -0.0446858 0)
(1.01816 -0.0474437 0)
(1.09877 -0.0499637 0)
(1.17948 -0.0499967 0)
(1.26522 -0.0490836 0)
(1.34635 -0.043435 0)
(1.4205 -0.0328889 0)
(1.47936 -0.0184003 0)
(1.50337 0.0119582 0)
(1.50543 0.0361768 0)
(1.32871 0.0645116 0)
(0.000161965 -0.00119069 0)
(0.00337555 -0.00307498 0)
(0.00921803 -0.00461767 0)
(0.0163892 -0.0061278 0)
(0.0246826 -0.00791648 0)
(0.0352131 -0.00995742 0)
(0.0495742 -0.0119531 0)
(0.069015 -0.013601 0)
(0.0940241 -0.0147151 0)
(0.124256 -0.015232 0)
(0.158734 -0.0151755 0)
(0.196105 -0.014642 0)
(0.234886 -0.0137465 0)
(0.273682 -0.0126171 0)
(0.311265 -0.0113612 0)
(0.346672 -0.0100688 0)
(0.379156 -0.00881855 0)
(0.408243 -0.00766656 0)
(0.433669 -0.00668208 0)
(0.455398 -0.00590246 0)
(0.473615 -0.00538703 0)
(0.488672 -0.00515646 0)
(0.501097 -0.00524261 0)
(0.511522 -0.00564913 0)
(0.520623 -0.00638401 0)
(0.529131 -0.00743332 0)
(0.537731 -0.00880816 0)
(0.547106 -0.0104828 0)
(0.55791 -0.0124782 0)
(0.570762 -0.0147715 0)
(0.586237 -0.0173816 0)
(0.604978 -0.0202898 0)
(0.627377 -0.0235239 0)
(0.654219 -0.0270311 0)
(0.685526 -0.03088 0)
(0.722471 -0.0349394 0)
(0.764247 -0.0392912 0)
(0.812994 -0.0437462 0)
(0.866147 -0.0482088 0)
(0.927612 -0.0526078 0)
(0.991882 -0.0561688 0)
(1.06482 -0.0593723 0)
(1.13756 -0.0599264 0)
(1.21579 -0.0590356 0)
(1.28882 -0.0530876 0)
(1.35634 -0.0409973 0)
(1.40984 -0.0236686 0)
(1.42799 0.0104182 0)
(1.42525 0.044976 0)
(1.2658 0.0906014 0)
(0.000164325 -0.00131479 0)
(0.00338585 -0.00340643 0)
(0.00921593 -0.00508138 0)
(0.0161698 -0.00666881 0)
(0.0235405 -0.00855039 0)
(0.0319553 -0.010772 0)
(0.0427301 -0.0130666 0)
(0.0572266 -0.0151105 0)
(0.0764485 -0.0166683 0)
(0.100771 -0.0176213 0)
(0.129957 -0.0179453 0)
(0.163265 -0.0177045 0)
(0.199631 -0.0169966 0)
(0.237865 -0.0159471 0)
(0.276764 -0.0146703 0)
(0.315244 -0.0132677 0)
(0.352336 -0.011834 0)
(0.387278 -0.0104408 0)
(0.419472 -0.00917771 0)
(0.448532 -0.00809978 0)
(0.474295 -0.00728837 0)
(0.496799 -0.00678243 0)
(0.516303 -0.00663184 0)
(0.533238 -0.0068525 0)
(0.548134 -0.00746279 0)
(0.561631 -0.00845187 0)
(0.574364 -0.0098365 0)
(0.586986 -0.0115893 0)
(0.600146 -0.0137354 0)
(0.614474 -0.0162496 0)
(0.630564 -0.0191547 0)
(0.6491 -0.0224269 0)
(0.670507 -0.026101 0)
(0.695607 -0.0301114 0)
(0.72448 -0.0345397 0)
(0.75826 -0.0392337 0)
(0.796282 -0.0442884 0)
(0.840472 -0.0494879 0)
(0.88863 -0.054735 0)
(0.944159 -0.0599194 0)
(1.00229 -0.0642439 0)
(1.06811 -0.0680761 0)
(1.13382 -0.0691447 0)
(1.20434 -0.0682577 0)
(1.27033 -0.0620142 0)
(1.33065 -0.048531 0)
(1.37926 -0.028383 0)
(1.39373 0.0095205 0)
(1.38526 0.0536857 0)
(1.24621 0.118517 0)
(0.000165336 -0.00144262 0)
(0.00338304 -0.00374899 0)
(0.00921841 -0.00555606 0)
(0.0161684 -0.00720583 0)
(0.0232945 -0.00913133 0)
(0.0308462 -0.0114515 0)
(0.0397418 -0.0139453 0)
(0.0511586 -0.0162929 0)
(0.066182 -0.0182339 0)
(0.0855491 -0.0196118 0)
(0.109561 -0.0203586 0)
(0.138058 -0.0205015 0)
(0.1705 -0.0201098 0)
(0.206106 -0.0192923 0)
(0.243935 -0.0181563 0)
(0.283031 -0.016803 0)
(0.322427 -0.0153335 0)
(0.361257 -0.0138267 0)
(0.398732 -0.0123863 0)
(0.434206 -0.0110812 0)
(0.467209 -0.0100131 0)
(0.497452 -0.00924067 0)
(0.524881 -0.00883527 0)
(0.549651 -0.00883033 0)
(0.57207 -0.0092599 0)
(0.592608 -0.0101211 0)
(0.611773 -0.0114397 0)
(0.63013 -0.0131896 0)
(0.648257 -0.0154017 0)
(0.66674 -0.0180509 0)
(0.686142 -0.0211653 0)
(0.70714 -0.0247184 0)
(0.730174 -0.0287516 0)
(0.756064 -0.0331892 0)
(0.784961 -0.0381212 0)
(0.817924 -0.0433794 0)
(0.85447 -0.049062 0)
(0.896246 -0.0549365 0)
(0.941505 -0.060892 0)
(0.992987 -0.0667911 0)
(1.0469 -0.0718103 0)
(1.10715 -0.0762071 0)
(1.16763 -0.0777468 0)
(1.23168 -0.0768498 0)
(1.2923 -0.0703088 0)
(1.34688 -0.0555578 0)
(1.39186 -0.0327711 0)
(1.4059 0.00901853 0)
(1.39497 0.0621034 0)
(1.27811 0.146015 0)
(0.000166905 -0.00157391 0)
(0.00337836 -0.00410229 0)
(0.00920103 -0.00604532 0)
(0.0161688 -0.00775637 0)
(0.0232882 -0.00970999 0)
(0.0306242 -0.0120875 0)
(0.0388245 -0.0147141 0)
(0.0487751 -0.0172857 0)
(0.0614111 -0.0195348 0)
(0.0775353 -0.0212841 0)
(0.0976731 -0.0224363 0)
(0.122031 -0.0229873 0)
(0.150491 -0.0229775 0)
(0.182686 -0.0224932 0)
(0.218035 -0.0216263 0)
(0.255856 -0.0204681 0)
(0.295368 -0.0191156 0)
(0.335791 -0.017646 0)
(0.376329 -0.0161678 0)
(0.416236 -0.0147561 0)
(0.454859 -0.0135264 0)
(0.49167 -0.0125539 0)
(0.526339 -0.0119309 0)
(0.558744 -0.0117112 0)
(0.588946 -0.0119482 0)
(0.617201 -0.0126519 0)
(0.643848 -0.01386 0)
(0.66931 -0.0155511 0)
(0.694046 -0.0177635 0)
(0.718545 -0.0204746 0)
(0.743287 -0.0237197 0)
(0.768885 -0.0274723 0)
(0.795755 -0.0317814 0)
(0.824669 -0.0365656 0)
(0.855837 -0.0419187 0)
(0.890212 -0.0476638 0)
(0.927508 -0.0538909 0)
(0.969059 -0.0603629 0)
(1.0136 -0.0669398 0)
(1.06316 -0.0734733 0)
(1.11498 -0.0791034 0)
(1.1717 -0.0839916 0)
(1.22897 -0.0859449 0)
(1.28856 -0.085018 0)
(1.34568 -0.0781948 0)
(1.39687 -0.0622893 0)
(1.44001 -0.0371415 0)
(1.45677 0.00846059 0)
(1.44819 0.0696833 0)
(1.35552 0.171233 0)
(0.000167883 -0.00170892 0)
(0.00337576 -0.00446627 0)
(0.00917778 -0.0065485 0)
(0.0161407 -0.00832465 0)
(0.0232848 -0.0103057 0)
(0.030627 -0.0127279 0)
(0.0386846 -0.0154579 0)
(0.0481466 -0.0182062 0)
(0.0597663 -0.0207051 0)
(0.074224 -0.0227692 0)
(0.0920693 -0.0242836 0)
(0.113636 -0.0252236 0)
(0.139038 -0.0256065 0)
(0.168194 -0.0254989 0)
(0.200824 -0.024975 0)
(0.236539 -0.0241123 0)
(0.274807 -0.022998 0)
(0.315047 -0.0217004 0)
(0.356593 -0.0203239 0)
(0.398749 -0.0189416 0)
(0.440834 -0.0176741 0)
(0.482207 -0.0166065 0)
(0.522367 -0.0158477 0)
(0.560987 -0.0154706 0)
(0.597912 -0.0155494 0)
(0.633198 -0.0161097 0)
(0.667008 -0.017204 0)
(0.699612 -0.0188177 0)
(0.731328 -0.0209978 0)
(0.762518 -0.0237258 0)
(0.793544 -0.027045 0)
(0.824908 -0.0309327 0)
(0.856962 -0.0354459 0)
(0.890385 -0.0405034 0)
(0.925414 -0.0461994 0)
(0.962872 -0.0523564 0)
(1.00265 -0.0590464 0)
(1.04578 -0.0660388 0)
(1.09143 -0.0731512 0)
(1.141 -0.080237 0)
(1.1926 -0.0863946 0)
(1.24787 -0.0916969 0)
(1.30381 -0.0940076 0)
(1.36116 -0.0930283 0)
(1.41665 -0.0859539 0)
(1.4669 -0.0690223 0)
(1.51026 -0.0418204 0)
(1.53239 0.00730751 0)
(1.53086 0.0757801 0)
(1.46442 0.192438 0)
(0.00016808 -0.00184781 0)
(0.00337425 -0.00484143 0)
(0.00915661 -0.0070651 0)
(0.0161019 -0.00890992 0)
(0.0232524 -0.0109224 0)
(0.0306327 -0.0133898 0)
(0.038725 -0.0162162 0)
(0.0481258 -0.0191234 0)
(0.0594588 -0.0218428 0)
(0.0732863 -0.0241838 0)
(0.0900745 -0.0260214 0)
(0.110153 -0.0273184 0)
(0.133698 -0.0280769 0)
(0.160755 -0.0283485 0)
(0.191234 -0.0281939 0)
(0.224945 -0.0276774 0)
(0.261575 -0.0268751 0)
(0.300748 -0.0258435 0)
(0.341977 -0.0246784 0)
(0.384702 -0.0234441 0)
(0.428321 -0.0222587 0)
(0.472201 -0.0212096 0)
(0.515787 -0.0204161 0)
(0.558642 -0.0199663 0)
(0.600475 -0.0199537 0)
(0.641197 -0.0204203 0)
(0.680828 -0.0214341 0)
(0.719508 -0.0229893 0)
(0.75743 -0.0251409 0)
(0.794828 -0.0278756 0)
(0.831943 -0.0312441 0)
(0.869146 -0.0352301 0)
(0.906699 -0.0398986 0)
(0.945153 -0.0451745 0)
(0.984744 -0.0511504 0)
(1.02614 -0.0576563 0)
(1.06938 -0.0647393 0)
(1.11522 -0.0721839 0)
(1.16318 -0.0797581 0)
(1.21417 -0.0873214 0)
(1.26695 -0.0939353 0)
(1.32245 -0.0995812 0)
(1.37862 -0.102204 0)
(1.43568 -0.10116 0)
(1.49121 -0.0938789 0)
(1.54262 -0.0760768 0)
(1.58815 -0.0471403 0)
(1.61766 0.00503312 0)
(1.62683 0.0797641 0)
(1.58812 0.208372 0)
(0.000167951 -0.0019906 0)
(0.00337287 -0.0052284 0)
(0.00913775 -0.00759543 0)
(0.0160639 -0.00951154 0)
(0.0232086 -0.0115596 0)
(0.0306138 -0.0140766 0)
(0.0387648 -0.0170024 0)
(0.0482294 -0.0200675 0)
(0.0595689 -0.0229993 0)
(0.0732685 -0.0256015 0)
(0.0897182 -0.0277409 0)
(0.109192 -0.0293712 0)
(0.131848 -0.0304844 0)
(0.157762 -0.0311221 0)
(0.186904 -0.0313362 0)
(0.219193 -0.0311808 0)
(0.254447 -0.0307232 0)
(0.292437 -0.0300089 0)
(0.332832 -0.0291236 0)
(0.375215 -0.0281205 0)
(0.419102 -0.0271098 0)
(0.463938 -0.0261757 0)
(0.509193 -0.0254418 0)
(0.554412 -0.0250067 0)
(0.599246 -0.0249803 0)
(0.64353 -0.02542 0)
(0.687201 -0.0264089 0)
(0.730312 -0.02795 0)
(0.772966 -0.0301057 0)
(0.8153 -0.0328672 0)
(0.857455 -0.0362911 0)
(0.89968 -0.0403683 0)
(0.942146 -0.0451713 0)
(0.985268 -0.0506356 0)
(1.02926 -0.0568507 0)
(1.07463 -0.0636616 0)
(1.12152 -0.071087 0)
(1.17045 -0.0789314 0)
(1.22122 -0.0869132 0)
(1.27436 -0.0948949 0)
(1.32908 -0.101915 0)
(1.38591 -0.107851 0)
(1.44334 -0.110761 0)
(1.50151 -0.109659 0)
(1.55837 -0.102232 0)
(1.61245 -0.0837415 0)
(1.66168 -0.0534126 0)
(1.69981 0.00121878 0)
(1.72195 0.0810217 0)
(1.71133 0.218449 0)
(0.000167786 -0.00213739 0)
(0.00337169 -0.00562735 0)
(0.00912012 -0.0081403 0)
(0.0160286 -0.0101297 0)
(0.0231651 -0.0122168 0)
(0.0305852 -0.0147882 0)
(0.0387852 -0.017819 0)
(0.0483285 -0.0210477 0)
(0.0597524 -0.0241953 0)
(0.0735053 -0.0270579 0)
(0.0899312 -0.0294936 0)
(0.109258 -0.0314476 0)
(0.131608 -0.0329036 0)
(0.157038 -0.0338964 0)
(0.185526 -0.0344712 0)
(0.21702 -0.034676 0)
(0.251394 -0.0345718 0)
(0.288496 -0.0341954 0)
(0.328089 -0.0336236 0)
(0.369864 -0.0328986 0)
(0.413439 -0.0321209 0)
(0.458347 -0.0313687 0)
(0.504122 -0.0307652 0)
(0.550339 -0.0304164 0)
(0.59665 -0.030445 0)
(0.642871 -0.0309226 0)
(0.688906 -0.0319459 0)
(0.734769 -0.0335269 0)
(0.780519 -0.0357332 0)
(0.826233 -0.0385598 0)
(0.871987 -0.0420666 0)
(0.917937 -0.0462515 0)
(0.964183 -0.0511924 0)
(1.01102 -0.0568389 0)
(1.05863 -0.0632764 0)
(1.10739 -0.0703694 0)
(1.15748 -0.0781089 0)
(1.20927 -0.0863202 0)
(1.26271 -0.0946781 0)
(1.31812 -0.10304 0)
(1.37497 -0.110439 0)
(1.4336 -0.116638 0)
(1.49278 -0.119828 0)
(1.55282 -0.118707 0)
(1.61181 -0.11121 0)
(1.66938 -0.0922403 0)
(1.72326 -0.0608738 0)
(1.77045 -0.00444252 0)
(1.80644 0.0791527 0)
(1.82289 0.222355 0)
(0.000167637 -0.00228833 0)
(0.00337103 -0.00603816 0)
(0.00910335 -0.00870062 0)
(0.0159949 -0.0107651 0)
(0.0231245 -0.0128946 0)
(0.0305569 -0.0155247 0)
(0.0387987 -0.0186664 0)
(0.0484138 -0.022066 0)
(0.0599299 -0.0254372 0)
(0.0737789 -0.0285664 0)
(0.0902827 -0.0313024 0)
(0.109643 -0.0335813 0)
(0.131955 -0.0353787 0)
(0.157255 -0.0367231 0)
(0.185506 -0.0376548 0)
(0.216654 -0.0382171 0)
(0.250583 -0.0384665 0)
(0.287166 -0.0384338 0)
(0.326211 -0.0381884 0)
(0.367464 -0.0377629 0)
(0.410609 -0.0372484 0)
(0.455248 -0.036716 0)
(0.500973 -0.0362871 0)
(0.547402 -0.0360725 0)
(0.594219 -0.036206 0)
(0.641248 -0.0367718 0)
(0.688399 -0.0378794 0)
(0.735677 -0.039549 0)
(0.78313 -0.0418521 0)
(0.830811 -0.0447862 0)
(0.878767 -0.0484118 0)
(0.927093 -0.0527332 0)
(0.975848 -0.0578311 0)
(1.02524 -0.0636706 0)
(1.07541 -0.0703326 0)
(1.12666 -0.0777033 0)
(1.17916 -0.0857487 0)
(1.23319 -0.0943127 0)
(1.28877 -0.103036 0)
(1.34614 -0.111761 0)
(1.40487 -0.119534 0)
(1.46528 -0.125994 0)
(1.52628 -0.129481 0)
(1.58841 -0.128404 0)
(1.64983 -0.12093 0)
(1.71115 -0.101713 0)
(1.77 -0.0696644 0)
(1.82603 -0.0121393 0)
(1.87561 0.0739807 0)
(1.91692 0.220076 0)
(0.00016749 -0.00244356 0)
(0.00337099 -0.00646102 0)
(0.00908744 -0.00927705 0)
(0.0159624 -0.0114182 0)
(0.0230862 -0.0135933 0)
(0.0305312 -0.0162867 0)
(0.0388123 -0.0195452 0)
(0.0484947 -0.0231233 0)
(0.0600986 -0.0267267 0)
(0.0740467 -0.0301315 0)
(0.0906494 -0.0331758 0)
(0.110095 -0.0357865 0)
(0.132465 -0.0379305 0)
(0.157781 -0.0396301 0)
(0.185993 -0.0409209 0)
(0.217037 -0.0418418 0)
(0.250792 -0.042446 0)
(0.287133 -0.0427592 0)
(0.325877 -0.0428447 0)
(0.366793 -0.0427273 0)
(0.409595 -0.042489 0)
(0.453924 -0.0421946 0)
(0.499412 -0.041963 0)
(0.545714 -0.0419094 0)
(0.592542 -0.0421777 0)
(0.639745 -0.0428646 0)
(0.68725 -0.044091 0)
(0.735071 -0.0458856 0)
(0.783262 -0.048322 0)
(0.831871 -0.0514 0)
(0.880941 -0.0551781 0)
(0.930537 -0.0596662 0)
(0.980701 -0.0649458 0)
(1.03158 -0.0709974 0)
(1.08331 -0.0778974 0)
(1.13612 -0.0855538 0)
(1.19018 -0.0939115 0)
(1.24572 -0.102829 0)
(1.30279 -0.111925 0)
(1.36158 -0.121013 0)
(1.42175 -0.129174 0)
(1.48364 -0.135915 0)
(1.54624 -0.139731 0)
(1.61034 -0.138787 0)
(1.67415 -0.131444 0)
(1.73906 -0.112219 0)
(1.80281 -0.0798523 0)
(1.867 -0.0219172 0)
(1.92917 0.0654632 0)
(1.99252 0.211898 0)
(0.000167336 -0.00260321 0)
(0.00337154 -0.00689634 0)
(0.00907239 -0.0098702 0)
(0.0159307 -0.0120895 0)
(0.0230497 -0.0143137 0)
(0.0305077 -0.0170753 0)
(0.0388275 -0.0204564 0)
(0.0485753 -0.0242208 0)
(0.0602645 -0.0280654 0)
(0.0743091 -0.031755 0)
(0.0910113 -0.0351172 0)
(0.110551 -0.0380686 0)
(0.133004 -0.040568 0)
(0.158381 -0.0426303 0)
(0.186629 -0.0442866 0)
(0.217672 -0.0455716 0)
(0.251384 -0.0465348 0)
(0.287634 -0.0471975 0)
(0.326236 -0.0476175 0)
(0.366965 -0.0478124 0)
(0.409543 -0.0478558 0)
(0.453628 -0.0478069 0)
(0.498872 -0.0477826 0)
(0.544951 -0.0479029 0)
(0.591605 -0.0483214 0)
(0.6387 -0.0491476 0)
(0.68618 -0.0505135 0)
(0.734073 -0.052456 0)
(0.782444 -0.0550506 0)
(0.831345 -0.0582984 0)
(0.880823 -0.062255 0)
(0.930935 -0.0669348 0)
(0.981719 -0.072419 0)
(1.0333 -0.0787031 0)
(1.0858 -0.0858591 0)
(1.13942 -0.0938152 0)
(1.19432 -0.102501 0)
(1.25073 -0.111782 0)
(1.30868 -0.121267 0)
(1.36839 -0.130733 0)
(1.42953 -0.139305 0)
(1.49252 -0.146367 0)
(1.55641 -0.150558 0)
(1.62219 -0.149851 0)
(1.6882 -0.142756 0)
(1.75638 -0.123768 0)
(1.82468 -0.0914386 0)
(1.89625 -0.0337606 0)
(1.96971 0.053688 0)
(2.05214 0.1983 0)
(0.000167185 -0.00276741 0)
(0.0033726 -0.00734453 0)
(0.00905815 -0.0104806 0)
(0.0158996 -0.0127796 0)
(0.0230144 -0.0150562 0)
(0.0304858 -0.0178913 0)
(0.0388437 -0.0214012 0)
(0.0486561 -0.0253597 0)
(0.0604294 -0.0294548 0)
(0.074569 -0.0334391 0)
(0.0913691 -0.037129 0)
(0.111004 -0.040431 0)
(0.133542 -0.0432953 0)
(0.158992 -0.0457297 0)
(0.187295 -0.0477602 0)
(0.218371 -0.0494172 0)
(0.25209 -0.0507461 0)
(0.288313 -0.0517643 0)
(0.326854 -0.0525235 0)
(0.36748 -0.0530347 0)
(0.409916 -0.0533633 0)
(0.453824 -0.0535637 0)
(0.498864 -0.053751 0)
(0.544725 -0.0540506 0)
(0.591162 -0.0546264 0)
(0.638054 -0.0556011 0)
(0.685361 -0.0571176 0)
(0.733119 -0.0592214 0)
(0.781403 -0.061989 0)
(0.830269 -0.065423 0)
(0.879771 -0.0695754 0)
(0.929964 -0.0744649 0)
(0.980892 -0.0801719 0)
(1.03267 -0.0867059 0)
(1.08543 -0.0941359 0)
(1.13935 -0.102408 0)
(1.1946 -0.111439 0)
(1.2514 -0.121101 0)
(1.30979 -0.130997 0)
(1.37001 -0.140866 0)
(1.43176 -0.149881 0)
(1.49552 -0.157314 0)
(1.56042 -0.161933 0)
(1.62761 -0.161576 0)
(1.69559 -0.154855 0)
(1.76669 -0.136347 0)
(1.83921 -0.10441 0)
(1.9174 -0.0476121 0)
(2.0009 0.0388048 0)
(2.09984 0.179738 0)
(0.000167047 -0.00293633 0)
(0.00337408 -0.00780593 0)
(0.00904461 -0.0111089 0)
(0.0158692 -0.0134891 0)
(0.0229803 -0.0158215 0)
(0.0304652 -0.0187356 0)
(0.0388605 -0.0223807 0)
(0.0487365 -0.0265414 0)
(0.0605929 -0.0308967 0)
(0.0748265 -0.0351856 0)
(0.0917233 -0.0392134 0)
(0.111451 -0.0428764 0)
(0.134075 -0.0461157 0)
(0.159599 -0.0489322 0)
(0.187961 -0.0513465 0)
(0.219079 -0.0533844 0)
(0.252819 -0.0550874 0)
(0.289038 -0.0564683 0)
(0.327546 -0.0575728 0)
(0.368108 -0.0584052 0)
(0.410443 -0.0590228 0)
(0.454214 -0.0594751 0)
(0.499083 -0.0598763 0)
(0.544747 -0.0603579 0)
(0.590971 -0.0610944 0)
(0.637644 -0.0622224 0)
(0.684736 -0.0638955 0)
(0.732288 -0.0661683 0)
(0.780379 -0.0691175 0)
(0.829069 -0.0727476 0)
(0.878415 -0.0771067 0)
(0.928475 -0.0822178 0)
(0.979301 -0.0881608 0)
(1.03101 -0.0949587 0)
(1.08374 -0.102679 0)
(1.13766 -0.111282 0)
(1.19297 -0.12068 0)
(1.24987 -0.130741 0)
(1.30843 -0.141073 0)
(1.3689 -0.151374 0)
(1.43102 -0.160867 0)
(1.49533 -0.16873 0)
(1.56106 -0.173836 0)
(1.62944 -0.173948 0)
(1.69922 -0.167735 0)
(1.77298 -0.149944 0)
(1.84942 -0.118753 0)
(1.93364 -0.0634165 0)
(2.0262 0.0209412 0)
(2.13943 0.15665 0)
(0.000166934 -0.00311014 0)
(0.0033759 -0.00828091 0)
(0.00903168 -0.0117557 0)
(0.0158392 -0.0142187 0)
(0.022947 -0.0166101 0)
(0.0304457 -0.0196092 0)
(0.0388775 -0.0233963 0)
(0.0488155 -0.0277674 0)
(0.0607538 -0.0323926 0)
(0.0750802 -0.0369967 0)
(0.0920725 -0.0413731 0)
(0.111893 -0.0454074 0)
(0.134602 -0.0490323 0)
(0.160199 -0.0522412 0)
(0.18862 -0.0550493 0)
(0.219781 -0.0574777 0)
(0.253544 -0.0595635 0)
(0.289765 -0.0613153 0)
(0.32825 -0.0627719 0)
(0.368759 -0.0639312 0)
(0.411009 -0.0648417 0)
(0.45466 -0.0655486 0)
(0.499375 -0.0661656 0)
(0.544856 -0.0668309 0)
(0.590876 -0.0677305 0)
(0.637333 -0.069015 0)
(0.684202 -0.0708489 0)
(0.73153 -0.0732955 0)
(0.779395 -0.0764319 0)
(0.827858 -0.0802642 0)
(0.876978 -0.0848371 0)
(0.926814 -0.0901778 0)
(0.977427 -0.0963669 0)
(1.02894 -0.10344 0)
(1.08149 -0.111465 0)
(1.13528 -0.120415 0)
(1.19049 -0.130199 0)
(1.24735 -0.140679 0)
(1.30592 -0.151475 0)
(1.36651 -0.162241 0)
(1.42888 -0.172249 0)
(1.4936 -0.180605 0)
(1.56005 -0.186262 0)
(1.62951 -0.186965 0)
(1.70098 -0.181403 0)
(1.77725 -0.164565 0)
(1.8574 -0.13447 0)
(1.94724 -0.0811537 0)
(2.0481 0.000207547 0)
(2.174 0.129391 0)
(0.000166851 -0.00328901 0)
(0.00337796 -0.00876981 0)
(0.00901926 -0.0124217 0)
(0.0158095 -0.0149689 0)
(0.0229143 -0.0174226 0)
(0.0304269 -0.0205129 0)
(0.0388942 -0.0244491 0)
(0.0488926 -0.0290392 0)
(0.060911 -0.0339445 0)
(0.0753285 -0.0388746 0)
(0.0924149 -0.0436104 0)
(0.112326 -0.0480269 0)
(0.135118 -0.0520483 0)
(0.160788 -0.0556602 0)
(0.189268 -0.0588723 0)
(0.22047 -0.0617011 0)
(0.254257 -0.0641789 0)
(0.29048 -0.0663099 0)
(0.328942 -0.0681259 0)
(0.369402 -0.0696178 0)
(0.41157 -0.0708255 0)
(0.455106 -0.07179 0)
(0.499672 -0.0726246 0)
(0.544975 -0.0734753 0)
(0.590796 -0.0745397 0)
(0.637039 -0.0759837 0)
(0.683686 -0.0779817 0)
(0.730786 -0.0806061 0)
(0.778416 -0.0839341 0)
(0.826635 -0.0879732 0)
(0.875502 -0.092765 0)
(0.925079 -0.0983416 0)
(0.975434 -0.104785 0)
(1.0267 -0.112143 0)
(1.07902 -0.120486 0)
(1.1326 -0.129798 0)
(1.18765 -0.139988 0)
(1.24439 -0.15091 0)
(1.30292 -0.162196 0)
(1.36355 -0.173464 0)
(1.42611 -0.184027 0)
(1.49119 -0.192942 0)
(1.55831 -0.199223 0)
(1.6288 -0.200638 0)
(1.7019 -0.195879 0)
(1.78058 -0.180228 0)
(1.86431 -0.151588 0)
(1.95948 -0.100823 0)
(2.06806 -0.0233263 0)
(2.20534 0.0981974 0)
(0.000166803 -0.00347312 0)
(0.00338018 -0.00927299 0)
(0.00900723 -0.0131073 0)
(0.0157799 -0.0157405 0)
(0.0228818 -0.0182597 0)
(0.0304085 -0.0214476 0)
(0.0389103 -0.0255404 0)
(0.048967 -0.0303582 0)
(0.0610635 -0.0355541 0)
(0.07557 -0.0408215 0)
(0.0927483 -0.0459279 0)
(0.112748 -0.0507379 0)
(0.135622 -0.0551668 0)
(0.161362 -0.0591926 0)
(0.1899 -0.0628193 0)
(0.221142 -0.0660584 0)
(0.25495 -0.0689376 0)
(0.291174 -0.0714565 0)
(0.329613 -0.0736394 0)
(0.370022 -0.07547 0)
(0.412108 -0.0769791 0)
(0.455529 -0.0782039 0)
(0.499946 -0.0792579 0)
(0.545071 -0.0802956 0)
(0.590692 -0.0815269 0)
(0.636721 -0.0831329 0)
(0.683145 -0.0852984 0)
(0.730013 -0.0881044 0)
(0.777403 -0.0916278 0)
(0.825372 -0.0958775 0)
(0.873975 -0.100893 0)
(0.923279 -0.106711 0)
(0.973356 -0.113416 0)
(1.02435 -0.121069 0)
(1.07641 -0.129744 0)
(1.12976 -0.139432 0)
(1.18461 -0.150048 0)
(1.24121 -0.161436 0)
(1.29967 -0.17324 0)
(1.36031 -0.185049 0)
(1.42303 -0.19621 0)
(1.48846 -0.205753 0)
(1.55622 -0.212733 0)
(1.62771 -0.214987 0)
(1.70242 -0.211193 0)
(1.78345 -0.196966 0)
(1.87067 -0.170142 0)
(1.97094 -0.122446 0)
(2.08675 -0.0496256 0)
(2.23434 0.0632639 0)
(0.000166787 -0.00366265 0)
(0.00338242 -0.00979081 0)
(0.0089955 -0.0138134 0)
(0.0157504 -0.0165342 0)
(0.0228493 -0.0191221 0)
(0.0303901 -0.0224141 0)
(0.0389252 -0.0266714 0)
(0.0490379 -0.0317259 0)
(0.0612099 -0.037223 0)
(0.0758031 -0.0428393 0)
(0.0930706 -0.0483281 0)
(0.113157 -0.0535431 0)
(0.13611 -0.058391 0)
(0.161918 -0.062842 0)
(0.19051 -0.0668939 0)
(0.22179 -0.0705537 0)
(0.255618 -0.073844 0)
(0.29184 -0.0767595 0)
(0.330255 -0.0793168 0)
(0.370611 -0.0814921 0)
(0.412613 -0.083307 0)
(0.455915 -0.0847948 0)
(0.500181 -0.08607 0)
(0.545126 -0.087296 0)
(0.590545 -0.0886961 0)
(0.636356 -0.0904668 0)
(0.682554 -0.0928031 0)
(0.729187 -0.0957944 0)
(0.776332 -0.0995168 0)
(0.824043 -0.103981 0)
(0.872376 -0.109224 0)
(0.921396 -0.115288 0)
(0.971185 -0.122263 0)
(1.02189 -0.13022 0)
(1.07368 -0.13924 0)
(1.12679 -0.149321 0)
(1.18143 -0.160383 0)
(1.23787 -0.172262 0)
(1.29623 -0.184615 0)
(1.35688 -0.197005 0)
(1.41975 -0.20881 0)
(1.48551 -0.219052 0)
(1.5539 -0.226816 0)
(1.62638 -0.230036 0)
(1.70266 -0.227378 0)
(1.78599 -0.214817 0)
(1.87659 -0.190173 0)
(1.98173 -0.146054 0)
(2.1043 -0.0786558 0)
(2.2612 0.024709 0)
(0.000166804 -0.00385779 0)
(0.00338459 -0.0103236 0)
(0.00898396 -0.0145404 0)
(0.0157208 -0.0173508 0)
(0.0228165 -0.0200105 0)
(0.0303712 -0.0234131 0)
(0.0389386 -0.0278434 0)
(0.0491048 -0.0331439 0)
(0.0613493 -0.0389532 0)
(0.076026 -0.0449303 0)
(0.0933797 -0.0508136 0)
(0.113549 -0.0564454 0)
(0.136578 -0.061724 0)
(0.162452 -0.0666117 0)
(0.191095 -0.0711 0)
(0.22241 -0.075191 0)
(0.256255 -0.0789022 0)
(0.292472 -0.0822234 0)
(0.330858 -0.0851627 0)
(0.37116 -0.0876888 0)
(0.413074 -0.0898137 0)