/*--------------------------------*- C++ -*----------------------------------*\
  =========                 |
  \\      /  F ield         | OpenFOAM: The Open Source CFD Toolbox
   \\    /   O peration     | Website:  https://openfoam.org
    \\  /    A nd           | Version:  7
     \\/     M anipulation  |
\*---------------------------------------------------------------------------*/
FoamFile
{
    version     2.0;
    format      ascii;
    class       volScalarField;
    location    "0.22";
    object      nut;
}
// * * * * * * * * * * * * * * * * * * * * * * * * * * * * * * * * * * * * * //

dimensions      [0 2 -1 0 0 0 0];

internalField   nonuniform List<scalar> 
70000
(
9.96292e-12
6.88218e-14
2.55882e-16
8.575e-17
4.83113e-17
7.9428e-17
2.80559e-17
1.32036e-17
9.00346e-18
6.61086e-18
4.87689e-18
3.66245e-18
2.81568e-18
2.21084e-18
1.76721e-18
1.43454e-18
1.18036e-18
9.83057e-19
8.27669e-19
7.03804e-19
6.03919e-19
5.22603e-19
4.5576e-19
4.00458e-19
3.54221e-19
3.15572e-19
2.82636e-19
2.55127e-19
2.30882e-19
2.11301e-19
1.92493e-19
1.79219e-19
1.63142e-19
1.55732e-19
1.39916e-19
1.38448e-19
1.21566e-19
1.23749e-19
1.11017e-19
1.01501e-19
1.26872e-19
4.91477e-20
2.96524e-19
7.70503e-24
2.4939e-18
2.51194e-18
6.36741e-17
2.65878e-16
4.84861e-15
1.94066e-12
1.04279e-10
5.98656e-12
6.44196e-14
2.14339e-14
2.88725e-16
1.69341e-17
2.52199e-17
2.11896e-17
1.23295e-17
7.3572e-18
4.83973e-18
3.39036e-18
2.4687e-18
1.8507e-18
1.42171e-18
1.11529e-18
8.90913e-19
7.22903e-19
5.94709e-19
4.95198e-19
4.16836e-19
3.54294e-19
3.03853e-19
2.62665e-19
2.28883e-19
2.0068e-19
1.77406e-19
1.57349e-19
1.41146e-19
1.26127e-19
1.15207e-19
1.0287e-19
9.66196e-20
8.48954e-20
8.34301e-20
7.07322e-20
7.35008e-20
6.12368e-20
6.14291e-20
6.48152e-20
3.34658e-20
1.38385e-19
1.2854e-22
1.09977e-18
9.19567e-19
2.70878e-17
1.06245e-16
1.2528e-15
2.0159e-14
2.9611e-13
3.1921e-10
3.39635e-12
1.90667e-13
1.98763e-14
7.62075e-16
5.75411e-17
7.11577e-18
4.07438e-18
2.05768e-18
1.01331e-18
5.58912e-19
3.41294e-19
2.21841e-19
1.50371e-19
1.05379e-19
7.59803e-20
5.61548e-20
4.23864e-20
3.25827e-20
2.5434e-20
2.01198e-20
1.60947e-20
1.30052e-20
1.05908e-20
8.70154e-21
7.1771e-21
5.98822e-21
4.97558e-21
4.23618e-21
3.50658e-21
3.10283e-21
2.48643e-21
2.39375e-21
1.74594e-21
1.98604e-21
1.20732e-21
1.72864e-21
9.41274e-22
1.19329e-21
1.64882e-21
1.06781e-22
1.73782e-20
2.17257e-20
6.22393e-19
2.95838e-18
2.99478e-17
1.81451e-16
1.68046e-15
1.71823e-14
2.02682e-13
6.15412e-09
1.92669e-11
7.82834e-13
6.09155e-14
5.44825e-15
9.1715e-16
1.0772e-16
2.83386e-17
1.16853e-17
5.10273e-18
2.34435e-18
1.18432e-18
6.52891e-19
3.83287e-19
2.35608e-19
1.50214e-19
9.86922e-20
6.6454e-20
4.56276e-20
3.17914e-20
2.23763e-20
1.58382e-20
1.12239e-20
7.92678e-21
5.55322e-21
3.83764e-21
2.60135e-21
1.71607e-21
1.09121e-21
6.62239e-22
3.72749e-22
1.95862e-22
8.34167e-23
3.61826e-23
5.31273e-24
6.30292e-24
4.52562e-25
1.08057e-23
4.40351e-23
1.49287e-23
1.10009e-21
3.67498e-21
6.38256e-20
4.25994e-19
3.75219e-18
2.69796e-17
1.72143e-16
1.35963e-15
9.37813e-15
2.41787e-13
2.32296e-09
2.23259e-10
4.447e-12
3.20734e-13
2.28512e-14
4.34937e-15
7.05129e-16
1.95661e-16
7.89975e-17
3.46016e-17
1.5955e-17
7.99466e-18
4.3451e-18
2.51475e-18
1.52704e-18
9.63957e-19
6.28444e-19
4.20793e-19
2.87909e-19
2.00334e-19
1.41129e-19
1.00218e-19
7.14362e-20
5.08951e-20
3.60882e-20
2.53458e-20
1.75437e-20
1.18941e-20
7.83501e-21
4.97896e-21
2.9887e-21
1.69734e-21
8.39845e-22
3.94381e-22
1.12112e-22
4.31418e-23
9.15544e-26
5.47795e-24
7.96828e-23
2.41551e-23
2.02348e-21
4.2808e-21
7.89968e-20
4.47473e-19
3.91573e-18
2.65287e-17
1.40707e-16
1.00111e-15
4.72715e-15
2.23908e-13
3.01238e-09
5.28741e-09
4.35054e-11
1.93856e-12
1.07056e-13
1.77473e-14
3.16722e-15
9.13137e-16
3.67638e-16
1.62159e-16
7.54278e-17
3.785e-17
2.0478e-17
1.17678e-17
7.09098e-18
4.44298e-18
2.87705e-18
1.91536e-18
1.30463e-18
9.0506e-19
6.36721e-19
4.52366e-19
3.23272e-19
2.31437e-19
1.65348e-19
1.17367e-19
8.24243e-20
5.6944e-20
3.84814e-20
2.52413e-20
1.58797e-20
9.50997e-21
5.21237e-21
2.65861e-21
1.0526e-21
3.95154e-22
4.49171e-23
6.30769e-24
6.77264e-23
3.86348e-23
3.00906e-21
6.34169e-21
9.92676e-20
5.10912e-19
4.09853e-18
2.60821e-17
1.07551e-16
6.90252e-16
2.14509e-15
1.9069e-13
1.07676e-09
4.76403e-09
3.71103e-09
1.84313e-11
6.64312e-13
9.02573e-14
1.47965e-14
3.98642e-15
1.5219e-15
6.54523e-16
3.00985e-16
1.49716e-16
8.02843e-17
4.57288e-17
2.73197e-17
1.69788e-17
1.09117e-17
7.21499e-18
4.88569e-18
3.37338e-18
2.36518e-18
1.67724e-18
1.19843e-18
8.59542e-19
6.16587e-19
4.40589e-19
3.12445e-19
2.18793e-19
1.50576e-19
1.01194e-19
6.57857e-20
4.11565e-20
2.403e-20
1.33415e-20
6.14297e-21
2.80494e-21
5.92235e-22
2.02101e-22
1.05561e-23
3.08748e-23
3.98213e-21
8.03057e-21
1.30266e-19
5.73025e-19
4.2756e-18
2.4717e-17
7.53873e-17
4.46627e-16
7.92429e-16
1.571e-13
2.42815e-09
3.86876e-09
8.21215e-10
2.40508e-09
8.50919e-12
7.00791e-13
8.80556e-14
1.98591e-14
6.73989e-15
2.68808e-15
1.17504e-15
5.63258e-16
2.93597e-16
1.63527e-16
9.59329e-17
5.87193e-17
3.72495e-17
2.43565e-17
1.63366e-17
1.119e-17
7.79534e-18
5.50125e-18
3.91839e-18
2.80659e-18
2.01462e-18
1.44376e-18
1.02951e-18
7.27134e-19
5.06654e-19
3.46325e-19
2.30494e-19
1.4875e-19
9.08621e-20
5.34504e-20
2.72459e-20
1.39718e-20
4.21978e-21
1.88514e-21
9.40843e-24
8.47734e-23
4.15709e-21
9.6518e-21
1.64375e-19
6.37534e-19
4.3127e-18
2.25131e-17
4.69867e-17
2.88433e-16
2.3171e-16
1.25346e-13
3.36969e-09
4.36949e-09
5.89931e-10
2.9892e-10
5.46343e-10
1.81539e-11
9.29078e-13
1.39441e-13
3.76453e-14
1.2979e-14
5.11902e-15
2.27215e-15
1.11651e-15
5.93842e-16
3.35784e-16
1.99459e-16
1.23429e-16
7.90456e-17
5.20963e-17
3.51603e-17
2.41926e-17
1.69004e-17
1.1941e-17
8.50162e-18
6.0787e-18
4.34868e-18
3.10293e-18
2.19883e-18
1.54208e-18
1.06478e-18
7.19549e-19
4.7396e-19
2.98712e-19
1.82518e-19
9.98112e-20
5.48278e-20
2.06644e-20
1.02965e-20
6.97436e-22
7.40645e-22
3.46636e-21
1.17514e-20
1.96717e-19
7.09304e-19
4.19455e-18
2.00555e-17
2.60197e-17
2.16177e-16
8.07373e-17
9.67641e-14
3.41117e-09
4.60662e-09
6.71286e-10
1.92694e-10
4.65702e-11
6.62714e-11
2.91896e-10
2.68483e-12
3.6895e-13
9.1193e-14
2.92145e-14
1.12114e-14
4.94735e-15
2.42294e-15
1.28354e-15
7.23268e-16
4.2856e-16
2.64699e-16
1.69215e-16
1.11291e-16
7.49135e-17
5.13688e-17
3.57319e-17
2.51128e-17
1.77696e-17
1.26111e-17
8.94887e-18
6.32256e-18
4.43365e-18
3.07033e-18
2.08956e-18
1.39155e-18
8.93818e-19
5.589e-19
3.19882e-19
1.8314e-19
7.90533e-20
4.16345e-20
6.39908e-21
4.51229e-21
2.67795e-21
1.49647e-20
2.27765e-19
7.93689e-19
3.99428e-18
1.80788e-17
1.33088e-17
2.14581e-16
1.11606e-16
7.45585e-14
3.21202e-09
4.39018e-09
7.72217e-10
2.01178e-10
3.6084e-11
2.13944e-11
1.30789e-11
2.03832e-11
1.3599e-10
2.07408e-12
3.26653e-13
8.7252e-14
3.06611e-14
1.28091e-14
6.02756e-15
3.09728e-15
1.70432e-15
9.90656e-16
6.02031e-16
3.79385e-16
2.46252e-16
1.63683e-16
1.1086e-16
7.6154e-17
5.28474e-17
3.68958e-17
2.58294e-17
1.80536e-17
1.25601e-17
8.65405e-18
5.88041e-18
3.92268e-18
2.53871e-18
1.60446e-18
9.42227e-19
5.51719e-19
2.58231e-19
1.39895e-19
3.16819e-20
1.92368e-20
2.95171e-21
2.05694e-20
2.62335e-19
9.06696e-19
3.8163e-18
1.73242e-17
7.40855e-18
2.80888e-16
3.37505e-16
5.95251e-14
3.01765e-09
3.97162e-09
8.44665e-10
2.11939e-10
3.83042e-11
1.97133e-11
8.36486e-12
4.41674e-12
4.00238e-12
6.53123e-12
8.56656e-11
4.31169e-12
4.95504e-13
1.26685e-13
4.46085e-14
1.88377e-14
8.97757e-15
4.67062e-15
2.59773e-15
1.52237e-15
9.30025e-16
5.8727e-16
3.80686e-16
2.51822e-16
1.69143e-16
1.14798e-16
7.84258e-17
5.36783e-17
3.66875e-17
2.49107e-17
1.67346e-17
1.10708e-17
7.13672e-18
4.50521e-18
2.6688e-18
1.57347e-18
7.68921e-19
4.20084e-19
1.1671e-19
6.50097e-20
6.41363e-21
3.08809e-20
3.10165e-19
1.08877e-18
3.8001e-18
1.88359e-17
6.92004e-18
4.39843e-16
9.37425e-16
5.12381e-14
2.8463e-09
3.51149e-09
9.06133e-10
2.09269e-10
4.17565e-11
2.11941e-11
8.7605e-12
3.74862e-12
2.33769e-12
1.80019e-12
1.62355e-12
1.91418e-12
4.0313e-12
7.3144e-11
2.15552e-12
3.2672e-13
9.59386e-14
3.71792e-14
1.68885e-14
8.52029e-15
4.63314e-15
2.66423e-15
1.59881e-15
9.91246e-16
6.30031e-16
4.07738e-16
2.67273e-16
1.76452e-16
1.16848e-16
7.71823e-17
5.06228e-17
3.28107e-17
2.07975e-17
1.29463e-17
7.61048e-18
4.44926e-18
2.20432e-18
1.19179e-18
3.67331e-19
1.89299e-19
1.88985e-20
4.94627e-20
3.91798e-19
1.44347e-18
4.20565e-18
2.49133e-17
1.40072e-17
7.6424e-16
2.26682e-15
4.92555e-14
2.67634e-09
3.05581e-09
9.74936e-10
1.98033e-10
4.48754e-11
2.26021e-11
9.96672e-12
4.03386e-12
2.27712e-12
1.51148e-12
1.06238e-12
8.06944e-13
6.89498e-13
6.84278e-13
8.3744e-13
1.49778e-12
8.46762e-12
5.61901e-12
4.76544e-13
1.2368e-13
4.60659e-14
2.06138e-14
1.03199e-14
5.57037e-15
3.17096e-15
1.87491e-15
1.13936e-15
7.05133e-16
4.41528e-16
2.77733e-16
1.74451e-16
1.08829e-16
6.66631e-17
4.0245e-17
2.30436e-17
1.31208e-17
6.41405e-18
3.3576e-18
1.07141e-18
5.01476e-19
5.29803e-20
8.13206e-20
5.62552e-19
2.28146e-18
5.73581e-18
4.21369e-17
4.27108e-17
1.44352e-15
5.13906e-15
5.42241e-14
2.49792e-09
2.62077e-09
1.05457e-09
1.83866e-10
4.81396e-11
2.34537e-11
1.13102e-11
4.5207e-12
2.47525e-12
1.58758e-12
1.04977e-12
7.17576e-13
5.21711e-13
4.06165e-13
3.38742e-13
3.04701e-13
3.0045e-13
3.34939e-13
4.49878e-13
8.56507e-13
4.49171e-12
2.49522e-12
3.43909e-13
9.31899e-14
3.5487e-14
1.60296e-14
8.0074e-15
4.2619e-15
2.36454e-15
1.34584e-15
7.76437e-16
4.50047e-16
2.58226e-16
1.46989e-16
7.97269e-17
4.30494e-17
2.00902e-17
9.87044e-18
3.0535e-18
1.24036e-18
1.24381e-19
1.38078e-19
1.03419e-18
4.80552e-18
1.10347e-17
9.32055e-17
1.48617e-16
3.02061e-15
1.16979e-14
6.96695e-14
2.31163e-09
2.22038e-09
1.13971e-09
1.69386e-10
5.20115e-11
2.38798e-11
1.26955e-11
5.06886e-12
2.73439e-12
1.74924e-12
1.14753e-12
7.63456e-13
5.29472e-13
3.84688e-13
2.91207e-13
2.29079e-13
1.87467e-13
1.60066e-13
1.43241e-13
1.35288e-13
1.36405e-13
1.49707e-13
1.85453e-13
2.79881e-13
6.29869e-13
4.97674e-12
1.85037e-14
9.81831e-14
3.44404e-14
1.39877e-14
6.29745e-15
3.01438e-15
1.48005e-15
7.38634e-16
3.56144e-16
1.72319e-16
7.21459e-17
3.13169e-17
8.42849e-18
2.65869e-18
2.02464e-19
3.38337e-19
3.16376e-18
1.57949e-17
3.42586e-17
2.77826e-16
5.799e-16
7.36848e-15
2.86315e-14
1.06916e-13
2.11976e-09
1.86089e-09
1.22305e-09
1.55632e-10
5.65327e-11
2.40069e-11
1.41462e-11
5.67663e-12
3.01788e-12
1.93693e-12
1.28009e-12
8.49509e-13
5.82053e-13
4.14385e-13
3.04369e-13
2.29454e-13
1.77268e-13
1.40323e-13
1.13825e-13
9.46479e-14
8.07388e-14
7.07466e-14
6.3811e-14
5.94336e-14
5.74662e-14
5.81689e-14
6.25495e-14
7.32989e-14
9.83029e-14
1.67686e-13
4.80394e-13
6.7491e-12
1.34943e-12
2.11422e-16
9.21738e-16
5.16699e-16
1.79813e-16
6.05291e-17
8.58107e-18
1.15494e-18
9.0864e-19
6.18249e-18
2.96908e-17
1.11113e-16
2.09336e-16
1.2777e-15
2.91011e-15
2.34911e-14
8.37834e-14
2.07165e-13
1.92396e-09
1.54272e-09
1.29798e-09
1.43369e-10
6.14575e-11
2.39023e-11
1.56631e-11
6.36738e-12
3.32892e-12
2.14113e-12
1.43039e-12
9.53503e-13
6.52273e-13
4.6221e-13
3.36753e-13
2.50581e-13
1.89925e-13
1.4646e-13
1.14804e-13
9.13923e-14
7.38332e-14
6.04891e-14
5.02244e-14
4.22335e-14
3.59484e-14
3.0958e-14
2.69777e-14
2.38044e-14
2.13023e-14
1.94007e-14
1.80483e-14
1.73394e-14
1.73319e-14
1.86378e-14
2.20068e-14
3.16672e-14
6.12605e-14
2.31194e-13
3.61892e-12
5.39029e-11
5.1319e-13
3.81276e-14
1.18501e-14
8.57356e-15
7.40786e-15
1.87656e-14
3.22705e-14
1.43696e-13
3.92541e-13
6.23451e-13
1.72645e-09
1.26574e-09
1.35884e-09
1.33486e-10
6.63825e-11
2.36345e-11
1.72099e-11
7.1609e-12
3.676e-12
2.36397e-12
1.59714e-12
1.0716e-12
7.33803e-13
5.19727e-13
3.78136e-13
2.80467e-13
2.11345e-13
1.61547e-13
1.25088e-13
9.79837e-14
7.75459e-14
6.19278e-14
4.98406e-14
4.03652e-14
3.2847e-14
2.681e-14
2.19147e-14
1.7913e-14
1.46196e-14
1.1906e-14
9.64952e-15
7.79742e-15
6.2362e-15
4.98579e-15
3.90354e-15
3.09338e-15
2.35542e-15
1.87269e-15
1.3978e-15
1.12904e-15
8.80068e-16
6.57559e-16
6.33974e-16
1.93163e-16
1.97226e-16
9.16436e-16
7.86521e-15
1.17523e-12
4.47224e-11
1.62947e-11
1.53e-09
1.02961e-09
1.40075e-09
1.26922e-10
7.07861e-11
2.33025e-11
1.87251e-11
8.07243e-12
4.06645e-12
2.60846e-12
1.78206e-12
1.20488e-12
8.2648e-13
5.85523e-13
4.26099e-13
3.15889e-13
2.37632e-13
1.81082e-13
1.39575e-13
1.08651e-13
8.52897e-14
6.74142e-14
5.35703e-14
4.27201e-14
3.41219e-14
2.72388e-14
2.16851e-14
1.71818e-14
1.35173e-14
1.05443e-14
8.12336e-15
6.18268e-15
4.60518e-15
3.37779e-15
2.38268e-15
1.65372e-15
1.06746e-15
6.77535e-16
3.75632e-16
1.94067e-16
7.77511e-17
1.48473e-17
1.25408e-18
2.34931e-17
2.6495e-16
3.98278e-15
2.34284e-14
1.57558e-13
7.27328e-13
8.1924e-13
1.33756e-09
8.33167e-10
1.41967e-09
1.24565e-10
7.40703e-11
2.30341e-11
2.01323e-11
9.11431e-12
4.50737e-12
2.87708e-12
1.98665e-12
1.3552e-12
9.31669e-13
6.60243e-13
4.80685e-13
3.56399e-13
2.67924e-13
2.03856e-13
1.56771e-13
1.21662e-13
9.51314e-14
7.48311e-14
5.91159e-14
4.681e-14
3.70712e-14
2.92918e-14
2.30344e-14
1.79854e-14
1.39048e-14
1.06257e-14
7.98982e-15
5.90908e-15
4.25552e-15
2.99576e-15
2.01387e-15
1.3128e-15
7.87551e-16
4.4928e-16
2.18967e-16
9.02934e-17
2.56425e-17
1.47268e-18
5.38156e-19
4.69469e-17
3.10122e-16
2.54972e-15
1.18867e-14
5.16952e-14
1.52291e-13
7.36274e-14
1.15208e-09
6.741e-10
1.41273e-09
1.272e-10
7.56738e-11
2.29702e-11
2.13489e-11
1.02947e-11
5.00665e-12
3.17233e-12
2.21193e-12
1.52422e-12
1.05096e-12
7.44992e-13
5.42595e-13
4.02392e-13
3.02354e-13
2.29775e-13
1.76386e-13
1.36573e-13
1.06498e-13
8.35053e-14
6.57269e-14
5.18257e-14
4.08415e-14
3.2084e-14
2.50551e-14
1.94014e-14
1.4851e-14
1.12151e-14
8.31541e-15
6.0468e-15
4.26886e-15
2.93067e-15
1.91336e-15
1.198e-15
6.86251e-16
3.63935e-16
1.6255e-16
5.65115e-17
1.19456e-17
1.10006e-19
2.09863e-18
6.0395e-17
3.24561e-16
1.91913e-15
7.71062e-15
2.42465e-14
4.69952e-14
5.12875e-15
9.76465e-10
5.49074e-10
1.37854e-09
1.35491e-10
7.5214e-11
2.32405e-11
2.22978e-11
1.16144e-11
5.57344e-12
3.49709e-12
2.45861e-12
1.71338e-12
1.18595e-12
8.4095e-13
6.12653e-13
4.54456e-13
3.41323e-13
2.59077e-13
1.98526e-13
1.53375e-13
1.19293e-13
9.32686e-14
7.31789e-14
5.75003e-14
4.51357e-14
3.52981e-14
2.74199e-14
2.11007e-14
1.60326e-14
1.20013e-14
8.80617e-15
6.32292e-15
4.39749e-15
2.96082e-15
1.88948e-15
1.14484e-15
6.31126e-16
3.14235e-16
1.29523e-16
3.82362e-17
5.73236e-18
8.24815e-24
5.05564e-18
7.18479e-17
3.30117e-16
1.49985e-15
5.1186e-15
1.14293e-14
1.19836e-14
3.4809e-16
8.13424e-10
4.53939e-10
1.31745e-09
1.49953e-10
7.25576e-11
2.39415e-11
2.292e-11
1.30632e-11
6.21821e-12
3.85469e-12
2.7272e-12
1.92381e-12
1.33816e-12
9.4931e-13
6.91691e-13
5.13195e-13
3.85275e-13
2.92074e-13
2.23391e-13
1.72183e-13
1.33562e-13
1.04116e-13
8.14266e-14
6.37577e-14
4.98545e-14
3.88188e-14
3.0003e-14
2.29527e-14
1.73191e-14
1.28581e-14
9.34392e-15
6.6299e-15
4.54672e-15
3.00518e-15
1.87583e-15
1.10051e-15
5.83134e-16
2.72042e-16
1.02317e-16
2.49771e-17
2.25571e-18
1.06745e-19
9.80225e-18
8.26982e-17
3.21662e-16
1.13138e-15
3.10304e-15
4.3755e-15
1.23926e-15
1.20208e-14
6.65258e-10
3.84037e-10
1.23172e-09
1.70814e-10
6.78567e-11
2.512e-11
2.31864e-11
1.46145e-11
6.95246e-12
4.24899e-12
3.01803e-12
2.15618e-12
1.50905e-12
1.07126e-12
7.80516e-13
5.79183e-13
4.34629e-13
3.2906e-13
2.51176e-13
1.93116e-13
1.4937e-13
1.1607e-13
9.0465e-14
7.0572e-14
5.49571e-14
4.25946e-14
3.27462e-14
2.48957e-14
1.86484e-14
1.37254e-14
9.87292e-15
6.91778e-15
4.67346e-15
3.02817e-15
1.84452e-15
1.04434e-15
5.28288e-16
2.2849e-16
7.63341e-17
1.43733e-17
4.96706e-19
8.97038e-19
1.70959e-17
9.31918e-17
2.9629e-16
7.83142e-16
1.55364e-15
9.7701e-16
2.30846e-17
6.54519e-14
5.33688e-10
3.34533e-10
1.12533e-09
1.97797e-10
6.15785e-11
2.67502e-11
2.31083e-11
1.62221e-11
7.78797e-12
4.68429e-12
3.33139e-12
2.41066e-12
1.69982e-12
1.20793e-12
8.79886e-13
6.52933e-13
4.8975e-13
3.70284e-13
2.82035e-13
2.16258e-13
1.66754e-13
1.29136e-13
1.00276e-13
7.79117e-14
6.04035e-14
4.65808e-14
3.5603e-14
2.68836e-14
1.99767e-14
1.45631e-14
1.03577e-14
7.15653e-15
4.75333e-15
3.01122e-15
1.78233e-15
9.67946e-16
4.62167e-16
1.81751e-16
5.14362e-17
6.40815e-18
1.31144e-20
3.47515e-18
2.80788e-17
1.03462e-16
2.55577e-16
4.72625e-16
5.48112e-16
3.52233e-17
2.81971e-15
1.88852e-13
4.19724e-10
3.00647e-10
1.00389e-09
2.29838e-10
5.44836e-11
2.87032e-11
2.27427e-11
1.78189e-11
8.73526e-12
5.1653e-12
3.66761e-12
2.68673e-12
1.91129e-12
1.36033e-12
9.90461e-13
7.34856e-13
5.50913e-13
4.15921e-13
3.16059e-13
2.41639e-13
1.85699e-13
1.43276e-13
1.10808e-13
8.57174e-14
6.61322e-14
5.07171e-14
3.85164e-14
2.88642e-14
2.12577e-14
1.53317e-14
1.07658e-14
7.32092e-15
4.76774e-15
2.94195e-15
1.68212e-15
8.68396e-16
3.84872e-16
1.33275e-16
2.93434e-17
1.63054e-18
1.70434e-19
9.89567e-18
4.44653e-17
1.13783e-16
2.04682e-16
2.30216e-16
9.16769e-17
1.01884e-16
1.82287e-14
4.02931e-13
3.23584e-10
2.77842e-10
8.74722e-10
2.64733e-10
4.75603e-11
3.07372e-11
2.21866e-11
1.93208e-11
9.80135e-12
5.69708e-12
4.02713e-12
2.98315e-12
2.1437e-12
1.52922e-12
1.11275e-12
8.25214e-13
6.18259e-13
4.66033e-13
3.53245e-13
2.69205e-13
2.06125e-13
1.58392e-13
1.21959e-13
9.389e-14
7.20496e-14
5.49174e-14
4.14093e-14
3.07706e-14
2.24352e-14
1.59858e-14
1.10621e-14
7.38542e-15
4.69966e-15
2.81071e-15
1.54015e-15
7.46151e-16
2.99395e-16
8.64538e-17
1.24388e-17
5.2681e-20
2.52014e-18
2.38955e-17
6.89321e-17
1.24755e-16
1.50697e-16
7.73605e-17
7.11912e-18
1.78073e-15
5.68457e-14
7.18645e-13
2.44609e-10
2.62154e-10
7.46552e-10
2.9902e-10
4.18491e-11
3.25356e-11
2.15631e-11
2.06348e-11
1.09864e-11
6.28505e-12
4.41061e-12
3.29798e-12
2.39656e-12
1.71503e-12
1.24704e-12
9.24063e-13
6.91747e-13
5.20534e-13
3.93467e-13
2.98802e-13
2.27861e-13
1.74315e-13
1.33569e-13
1.02281e-13
7.80221e-14
5.90643e-14
4.41809e-14
3.25186e-14
2.34409e-14
1.64725e-14
1.12076e-14
7.32365e-15
4.53339e-15
2.61056e-15
1.35604e-15
6.04948e-16
2.11291e-16
4.59609e-17
2.71031e-18
2.29535e-19
1.24521e-17
5.21114e-17
1.05824e-16
1.37553e-16
1.00772e-16
1.17858e-17
1.26679e-16
7.84794e-15
1.27462e-13
1.13608e-12
1.8141e-10
2.50333e-10
6.26665e-10
3.28594e-10
3.81512e-11
3.37566e-11
2.1001e-11
2.16707e-11
1.22787e-11
6.93474e-12
4.81888e-12
3.62865e-12
2.66837e-12
1.91765e-12
1.39332e-12
1.03119e-12
7.71095e-13
5.79136e-13
4.36436e-13
3.3014e-13
2.50631e-13
1.90787e-13
1.45403e-13
1.10684e-13
8.3871e-14
6.30057e-14
4.67046e-14
3.40055e-14
2.41947e-14
1.67323e-14
1.11611e-14
7.11011e-15
4.25625e-15
2.33874e-15
1.13394e-15
4.5242e-16
1.2854e-16
1.68217e-17
2.62658e-20
5.36727e-18
4.07866e-17
1.06162e-16
1.62393e-16
1.54289e-16
6.03462e-17
1.10283e-18
8.59216e-16
2.12005e-14
2.3567e-13
1.64436e-12
1.32168e-10
2.39574e-10
5.18833e-10
3.49827e-10
3.68899e-11
3.40895e-11
2.06079e-11
2.23593e-11
1.36503e-11
7.65108e-12
5.25273e-12
3.97211e-12
2.95649e-12
2.13624e-12
1.55115e-12
1.14607e-12
8.55724e-13
6.41305e-13
4.81666e-13
3.62773e-13
2.74026e-13
2.07446e-13
1.57147e-13
1.18829e-13
8.93684e-14
6.6553e-14
4.88279e-14
3.51122e-14
2.46075e-14
1.67024e-14
1.08824e-14
6.72341e-15
3.86157e-15
1.99909e-15
8.84054e-16
3.00586e-16
6.081e-17
2.36659e-18
1.10645e-18
2.98737e-17
1.08007e-16
2.06227e-16
2.50986e-16
1.78635e-16
3.19303e-17
2.0286e-17
2.84603e-15
4.42081e-14
3.82683e-13
2.22216e-12
9.47908e-11
2.27653e-10
4.2458e-10
3.60361e-10
3.82172e-11
3.33668e-11
2.04441e-11
2.26697e-11
1.50547e-11
8.43754e-12
5.71283e-12
4.3251e-12
3.25713e-12
2.36908e-12
1.71959e-12
1.26776e-12
9.44712e-13
7.06218e-13
5.28439e-13
3.96068e-13
2.97492e-13
2.23813e-13
1.68395e-13
1.26378e-13
9.4237e-14
6.94833e-14
5.03763e-14
3.57074e-14
2.45856e-14
1.63219e-14
1.03377e-14
6.15089e-15
3.35239e-15
1.60468e-15
6.23886e-16
1.65457e-16
1.71649e-17
3.6481e-21
1.74955e-17
1.03764e-16
2.51535e-16
3.87195e-16
3.9293e-16
2.17014e-16
1.48944e-17
1.21649e-16
6.64393e-15
7.8088e-14
5.64503e-13
2.83895e-12
6.70828e-11
2.13287e-10
3.44474e-10
3.59322e-10
4.21259e-11
3.16595e-11
2.05075e-11
2.26166e-11
1.64279e-11
9.29467e-12
6.19958e-12
4.68436e-12
3.56541e-12
2.6134e-12
1.89712e-12
1.39491e-12
1.03676e-12
7.72733e-13
5.75784e-13
4.29197e-13
3.20325e-13
2.39295e-13
1.78656e-13
1.3293e-13
9.81562e-14
7.1546e-14
5.11609e-14
3.56558e-14
2.40399e-14
1.55397e-14
9.5061e-15
5.3944e-15
2.74578e-15
1.18021e-15
3.78406e-16
6.46289e-17
8.59518e-19
6.87366e-18
8.77806e-17
2.84705e-16
5.38017e-16
7.09204e-16
6.25503e-16
2.81042e-16
6.39849e-18
3.62568e-16
1.25291e-14
1.22348e-13
7.71634e-13
3.45697e-12
4.69727e-11
1.96098e-10
2.78242e-10
3.47221e-10
4.84151e-11
2.9255e-11
2.07337e-11
2.22572e-11
1.76934e-11
1.02177e-11
6.71294e-12
5.04687e-12
3.87561e-12
2.86529e-12
2.08146e-12
1.5257e-12
1.13019e-12
8.39368e-13
6.22461e-13
4.61129e-13
3.41666e-13
2.53187e-13
1.87358e-13
1.38032e-13
1.00773e-13
7.24757e-14
5.09914e-14
3.48309e-14
2.28968e-14
1.43247e-14
8.38862e-15
4.47685e-15
2.07675e-15
7.6303e-16
1.77619e-16
1.10382e-17
9.95536e-19
6.32576e-17
2.90429e-16
6.78332e-16
1.08388e-15
1.27564e-15
1.01447e-15
3.92609e-16
3.05483e-18
7.51675e-16
2.03123e-14
1.74421e-13
9.89449e-13
4.03393e-12
3.26421e-11
1.7642e-10
2.24813e-10
3.25725e-10
5.65844e-11
2.65674e-11
2.10072e-11
2.16794e-11
1.8771e-11
1.11937e-11
7.25213e-12
5.40978e-12
4.1815e-12
3.11962e-12
2.26956e-12
1.65783e-12
1.22292e-12
9.04311e-13
6.66967e-13
4.9064e-13
3.60521e-13
2.64689e-13
1.93872e-13
1.41197e-13
1.01725e-13
7.20125e-14
4.96948e-14
3.31321e-14
2.11139e-14
1.26787e-14
7.0177e-15
3.44828e-15
1.40042e-15
4.00757e-16
4.91803e-17
6.5569e-22
3.63417e-17
2.6745e-16
7.73778e-16
1.47174e-15
2.08937e-15
2.26374e-15
1.67659e-15
5.94411e-16
2.56698e-18
1.22261e-15
2.92175e-14
2.29605e-13
1.19927e-12
4.52633e-12
2.25815e-11
1.55131e-10
1.8253e-10
2.973e-10
6.5795e-11
2.40415e-11
2.11836e-11
2.09839e-11
1.95902e-11
1.21984e-11
7.81517e-12
5.77041e-12
4.47677e-12
3.3702e-12
2.45751e-12
1.78847e-12
1.31252e-12
9.65449e-13
7.07561e-13
5.16338e-13
3.7579e-13
2.72941e-13
1.97539e-13
1.41938e-13
1.00665e-13
6.99286e-14
4.71402e-14
3.05064e-14
1.86977e-14
1.06499e-14
5.46609e-15
2.38941e-15
7.89631e-16
1.42442e-16
2.24902e-18
1.50206e-17
2.21018e-16
8.12515e-16
1.80523e-15
2.98806e-15
3.8946e-15
3.9763e-15
2.81992e-15
9.71565e-16
5.42587e-18
1.63282e-15
3.78832e-14
2.81406e-13
1.38016e-12
4.89312e-12
1.55915e-11
1.33459e-10
1.49451e-10
2.64744e-10
7.49466e-11
2.20693e-11
2.1131e-11
2.02624e-11
2.01028e-11
1.31959e-11
8.39828e-12
6.12606e-12
4.75543e-12
3.61003e-12
2.64049e-12
1.91432e-12
1.39623e-12
1.02042e-12
7.42316e-13
5.36711e-13
3.86312e-13
2.7707e-13
1.97721e-13
1.39809e-13
9.7306e-14
6.60635e-14
4.32691e-14
2.6973e-14
1.57225e-14
8.34528e-15
3.85201e-15
1.40925e-15
3.24123e-16
1.82438e-17
3.34607e-18
1.649e-16
7.93771e-16
2.05399e-15
3.85061e-15
5.77438e-15
7.0709e-15
6.92844e-15
4.8153e-15
1.69529e-15
2.04881e-17
1.80278e-15
4.45369e-14
3.22301e-13
1.5112e-12
5.09946e-12
1.07647e-11
1.12548e-10
1.23641e-10
2.30832e-10
8.28584e-11
2.09236e-11
2.07743e-11
1.95814e-11
2.02929e-11
1.41392e-11
8.99518e-12
6.47391e-12
5.01225e-12
3.83172e-12
2.81293e-12
2.03158e-12
1.4711e-12
1.06671e-12
7.69198e-13
5.50205e-13
3.90939e-13
2.76252e-13
1.93856e-13
1.3446e-13
9.14635e-14
6.03645e-14
3.81282e-14
2.26488e-14
1.23467e-14
5.93757e-15
2.33621e-15
6.30976e-16
6.43643e-17
9.58989e-20
1.11686e-16
7.36254e-16
2.20596e-15
4.61845e-15
7.70057e-15
1.07425e-14
1.2569e-14
1.19923e-14
8.32213e-15
3.1094e-15
8.75172e-17
1.60032e-15
4.73631e-14
3.44907e-13
1.57418e-12
5.12022e-12
7.44651e-12
9.31133e-11
1.03353e-10
1.97936e-10
8.85374e-11
2.07125e-11
2.01148e-11
1.89706e-11
2.01785e-11
1.4975e-11
9.59556e-12
6.81076e-12
5.2428e-12
4.02797e-12
2.96864e-12
2.13609e-12
1.53397e-12
1.10177e-12
7.86176e-13
5.5531e-13
3.88615e-13
2.69796e-13
1.85533e-13
1.25696e-13
8.31118e-14
5.29299e-14
3.19021e-14
1.77692e-14
8.82201e-15
3.66085e-15
1.10298e-15
1.57624e-16
2.08715e-19
6.9677e-17
6.62813e-16
2.2879e-15
5.26502e-15
9.57535e-15
1.46703e-14
1.93922e-14
2.19577e-14
2.06365e-14
1.45069e-14
5.8971e-15
3.4837e-16
1.04974e-15
4.50382e-14
3.4343e-13
1.55635e-12
4.94316e-12
5.16898e-12
7.56129e-11
8.71151e-11
1.67602e-10
9.13905e-11
2.13873e-11
1.92266e-11
1.84214e-11
1.98057e-11
1.56504e-11
1.01838e-11
7.13259e-12
5.44343e-12
4.19208e-12
3.1011e-12
2.22334e-12
1.58169e-12
1.12313e-12
7.91348e-13
5.50681e-13
3.78484e-13
2.57231e-13
1.72573e-13
1.13551e-13
7.24373e-14
4.40495e-14
2.49388e-14
1.26974e-14
5.4849e-15
1.78406e-15
3.13943e-16
4.219e-18
4.09298e-17
5.95457e-16
2.34296e-15
5.83683e-15
1.13605e-14
1.87062e-14
2.69123e-14
3.41636e-14
3.78063e-14
3.53192e-14
2.54184e-14
1.13943e-14
1.23138e-15
4.02304e-16
3.73394e-14
3.15214e-13
1.45295e-12
4.57133e-12
3.60159e-12
6.03843e-11
7.37944e-11
1.4059e-10
9.128e-11
2.27804e-11
1.82367e-11
1.79e-11
1.92373e-11
1.61216e-11
1.07385e-11
7.43441e-12
5.61111e-12
4.31839e-12
3.20382e-12
2.28868e-12
1.61114e-12
1.12854e-12
7.8309e-13
5.35266e-13
3.60002e-13
2.38407e-13
1.55107e-13
9.83507e-14
5.98873e-14
3.42336e-14
1.77583e-14
7.91107e-15
2.71973e-15
5.47984e-16
1.73109e-17
2.3357e-17
5.49249e-16
2.42444e-15
6.42412e-15
1.31504e-14
2.28165e-14
3.49231e-14
4.79041e-14
5.89914e-14
6.42935e-14
6.01298e-14
4.46246e-14
2.21617e-14
3.86794e-15
3.6482e-17
2.56486e-14
2.62127e-13
1.26932e-12
4.02475e-12
2.51841e-12
4.75519e-11
6.25858e-11
1.17165e-10
8.84738e-11
2.46341e-11
1.72866e-11
1.73666e-11
1.85396e-11
1.63613e-11
1.12331e-11
7.70984e-12
5.74321e-12
4.40257e-12
3.27084e-12
2.3275e-12
1.6194e-12
1.11614e-12
7.60217e-13
5.08459e-13
3.33063e-13
2.13596e-13
1.33661e-13
8.07687e-14
4.62015e-14
2.42186e-14
1.10295e-14
3.94886e-15
8.7176e-16
4.27158e-17
1.34891e-17
5.32585e-16
2.58538e-15
7.15491e-15
1.51398e-14
2.72005e-14
4.34366e-14
6.29159e-14
8.32053e-14
1.00171e-13
1.08175e-13
1.01829e-13
7.82798e-14
4.30032e-14
1.09477e-14
5.10326e-17
1.30611e-14
1.91425e-13
1.02209e-12
3.341e-12
1.76648e-12
3.70284e-11
5.29601e-11
9.72631e-11
8.35188e-11
2.66354e-11
1.64954e-11
1.67909e-11
1.77702e-11
1.63622e-11
1.16377e-11
7.95069e-12
5.8372e-12
4.44173e-12
3.29719e-12
2.33557e-12
1.60396e-12
1.08459e-12
7.2215e-13
4.70257e-13
2.98125e-13
1.83589e-13
1.09219e-13
6.18599e-14
3.24102e-14
1.49283e-14
5.49296e-15
1.29018e-15
8.12803e-17
8.29784e-18
5.50534e-16
2.87614e-15
8.18229e-15
1.76207e-14
3.22679e-14
5.28639e-14
7.9343e-14
1.10149e-13
1.4163e-13
1.67714e-13
1.80311e-13
1.71524e-13
1.36896e-13
8.27387e-14
2.83577e-14
1.5332e-15
3.6445e-15
1.15619e-13
7.39245e-13
2.57478e-12
1.2421e-12
2.85868e-11
4.45924e-11
8.05994e-11
7.70813e-11
2.84675e-11
1.59362e-11
1.61624e-11
1.69706e-11
1.61374e-11
1.1923e-11
8.1468e-12
5.89056e-12
4.43434e-12
3.27937e-12
2.3094e-12
1.56285e-12
1.03325e-12
6.6908e-13
4.21401e-13
2.56327e-13
1.49768e-13
8.32493e-14
4.30436e-14
1.97719e-14
7.36274e-15
1.79505e-15
1.30632e-16
5.8539e-18
6.08416e-16
3.34957e-15
9.67795e-15
2.09732e-14
3.86406e-14
6.40266e-14
9.79956e-14
1.40262e-13
1.88397e-13
2.37059e-13
2.77457e-13
2.98088e-13
2.87368e-13
2.38261e-13
1.57234e-13
6.81738e-14
1.05049e-14
1.45848e-16
5.05963e-14
4.58229e-13
1.79548e-12
8.74946e-13
2.19317e-11
3.72933e-11
6.67695e-11
6.9814e-11
2.98631e-11
1.56288e-11
1.54923e-11
1.61653e-11
1.57163e-11
1.20649e-11
8.28614e-12
5.90054e-12
4.3801e-12
3.2156e-12
2.24663e-12
1.49497e-12
9.62359e-13
6.02107e-13
3.63506e-13
2.09568e-13
1.1413e-13
5.76698e-14
2.60077e-14
9.61354e-15
2.36925e-15
1.84049e-16
5.23443e-18
7.17117e-16
4.06768e-15
1.18422e-14
2.56531e-14
4.71616e-14
7.81685e-14
1.20446e-13
1.75071e-13
2.41496e-13
3.161e-13
3.91245e-13
4.54363e-13
4.89225e-13
4.78871e-13
4.1221e-13
2.94506e-13
1.53937e-13
4.26787e-14
1.02204e-15
1.08797e-14
2.21147e-13
1.08217e-12
6.17059e-13
1.67543e-11
3.09488e-11
5.53354e-11
6.22746e-11
3.06435e-11
1.55439e-11
1.48085e-11
1.53647e-11
1.51376e-11
1.20476e-11
8.35554e-12
5.86418e-12
4.27961e-12
3.106e-12
2.14643e-12
1.4003e-12
8.73151e-13
5.23352e-13
2.99127e-13
1.60522e-13
7.92289e-14
3.47128e-14
1.24856e-14
3.01744e-15
2.3255e-16
6.47894e-18
8.99e-16
5.11976e-15
1.4915e-14
3.22117e-14
5.88716e-14
9.70071e-14
1.49051e-13
2.17459e-13
3.03695e-13
4.06937e-13
5.21995e-13
6.3816e-13
7.3767e-13
7.97809e-13
7.93827e-13
7.08411e-13
5.43252e-13
3.29753e-13
1.3279e-13
1.92284e-14
8.73332e-17
6.50688e-14
5.13973e-13
4.35525e-13
1.27663e-11
2.54788e-11
4.58838e-11
5.48821e-11
3.07352e-11
1.56152e-11
1.41448e-11
1.45715e-11
1.44426e-11
1.1867e-11
8.34206e-12
5.77831e-12
4.13428e-12
2.95256e-12
2.0098e-12
1.28019e-12
7.68048e-13
4.36019e-13
2.31757e-13
1.12557e-13
4.79939e-14
1.66235e-14
3.83619e-15
2.73696e-16
1.08401e-17
1.19622e-15
6.64757e-15
1.92205e-14
4.13109e-14
7.50457e-14
1.2269e-13
1.87091e-13
2.71701e-13
3.80093e-13
5.14427e-13
6.73698e-13
8.50713e-13
1.03074e-12
1.18896e-12
1.29383e-12
1.30942e-12
1.20905e-12
9.87013e-13
6.75779e-13
3.51079e-13
1.06967e-13
6.72447e-15
4.1367e-15
1.52575e-13
3.07584e-13
9.71532e-12
2.08161e-11
3.80551e-11
4.79095e-11
3.01601e-11
1.57544e-11
1.35274e-11
1.37857e-11
1.36688e-11
1.15306e-11
8.23485e-12
5.63972e-12
3.94613e-12
2.75899e-12
1.83977e-12
1.13762e-12
6.50761e-13
3.44382e-13
1.65702e-13
6.9484e-14
2.33388e-14
5.11327e-15
3.25534e-16
2.0593e-17
1.67271e-15
8.87983e-15
2.52336e-14
5.38152e-14
9.72103e-14
1.57858e-13
2.3869e-13
3.4376e-13
4.78171e-13
6.47328e-13
8.54652e-13
1.09923e-12
1.37144e-12
1.65142e-12
1.90489e-12
2.08839e-12
2.15008e-12
2.04958e-12
1.76771e-12
1.33444e-12
8.31777e-13
3.80203e-13
9.45966e-14
2.56643e-15
1.08712e-14
2.17403e-13
7.38985e-12
1.68952e-11
3.15529e-11
4.15105e-11
2.90091e-11
1.58702e-11
1.29694e-11
1.30089e-11
1.28476e-11
1.10554e-11
8.02711e-12
5.44571e-12
3.71782e-12
2.53052e-12
1.64146e-12
9.77359e-13
5.26336e-13
2.53668e-13
1.05781e-13
3.50767e-14
7.47196e-15
4.4273e-16
3.4781e-17
2.38758e-15
1.21299e-14
3.36686e-14
7.09335e-14
1.2731e-13
2.05653e-13
3.08914e-13
4.41139e-13
6.08357e-13
8.1835e-13
1.07952e-12
1.39756e-12
1.7723e-12
2.19138e-12
2.62863e-12
3.03724e-12
3.35796e-12
3.51647e-12
3.45265e-12
3.12479e-12
2.55475e-12
1.82216e-12
1.07159e-12
4.64666e-13
1.08247e-13
3.01008e-15
1.53873e-13
5.61996e-12
1.364e-11
2.61406e-11
3.57538e-11
2.74096e-11
1.58845e-11
1.247e-11
1.22455e-11
1.20028e-11
1.04657e-11
7.71783e-12
5.19475e-12
3.4528e-12
2.27366e-12
1.42195e-12