/*--------------------------------*- C++ -*----------------------------------*\
  =========                 |
  \\      /  F ield         | OpenFOAM: The Open Source CFD Toolbox
   \\    /   O peration     | Website:  https://openfoam.org
    \\  /    A nd           | Version:  7
     \\/     M anipulation  |
\*---------------------------------------------------------------------------*/
FoamFile
{
    version     2.0;
    format      ascii;
    class       volScalarField;
    location    "0.22";
    object      p;
}
// * * * * * * * * * * * * * * * * * * * * * * * * * * * * * * * * * * * * * //

dimensions      [0 2 -2 0 0 0 0];

internalField   nonuniform List<scalar> 
70000
(
0.105641
0.0281862
0.0156658
0.0181107
0.0182802
0.0172229
0.0162835
0.0155737
0.0149829
0.0144635
0.0140022
0.0135911
0.0132228
0.0128907
0.0125896
0.0123152
0.012064
0.0118332
0.0116205
0.0114238
0.0112415
0.0110721
0.0109145
0.0107675
0.0106302
0.0105016
0.010381
0.0102677
0.0101609
0.01006
0.00996432
0.00987326
0.00978633
0.0097027
0.00962211
0.00954349
0.00946687
0.0093909
0.00931582
0.0092405
0.00916433
0.00908921
0.00900855
0.00893809
0.00884611
0.00880006
0.00867429
0.00872627
0.00846681
0.00891942
0.101273
0.0285531
0.0158688
0.0182063
0.0183348
0.0172591
0.0163118
0.015597
0.0150025
0.0144803
0.0140169
0.0136041
0.0132344
0.0129012
0.0125992
0.012324
0.0120721
0.0118407
0.0116274
0.0114303
0.0112476
0.0110779
0.01092
0.0107727
0.0106352
0.0105064
0.0103856
0.010272
0.0101651
0.010064
0.00996823
0.00987705
0.00979001
0.00970628
0.0096256
0.0095469
0.0094702
0.00939416
0.00931901
0.00924365
0.0091674
0.00909226
0.00901151
0.00894107
0.00884895
0.00880303
0.00867708
0.00872852
0.00847428
0.00894328
0.0976923
0.029493
0.0162091
0.0183354
0.0184091
0.0173038
0.0163441
0.0156233
0.0150244
0.0144988
0.0140329
0.0136182
0.0132469
0.0129125
0.0126094
0.0123333
0.0120807
0.0118487
0.0116349
0.0114373
0.0112541
0.0110841
0.0109258
0.0107782
0.0106404
0.0105114
0.0103904
0.0102766
0.0101695
0.0100683
0.00997236
0.00988104
0.00979389
0.00971005
0.00962928
0.00955049
0.00947372
0.0093976
0.00932238
0.00924697
0.00917065
0.00909549
0.00901462
0.00894422
0.00885185
0.0088061
0.00867982
0.00873015
0.00849279
0.00894564
0.0945981
0.0305947
0.0166786
0.0185093
0.0185099
0.0173613
0.0163823
0.0156532
0.015049
0.0145194
0.0140504
0.0136334
0.0132603
0.0129245
0.0126202
0.0123432
0.0120898
0.011857
0.0116426
0.0114445
0.0112609
0.0110904
0.0109318
0.0107839
0.0106458
0.0105165
0.0103953
0.0102813
0.010174
0.0100726
0.00997654
0.00988509
0.00979781
0.00971386
0.00963299
0.00955411
0.00947726
0.00940108
0.00932579
0.00925032
0.00917394
0.00909872
0.00901776
0.00894729
0.00885477
0.00880874
0.00868291
0.0087294
0.00852005
0.00892409
0.0916387
0.0316911
0.0172444
0.0187297
0.0186443
0.0174391
0.0164311
0.0156902
0.0150789
0.0145439
0.0140709
0.0136509
0.0132757
0.0129381
0.0126324
0.0123542
0.0120998
0.0118662
0.0116511
0.0114523
0.0112682
0.0110973
0.0109382
0.01079
0.0106515
0.0105219
0.0104004
0.0102863
0.0101787
0.0100771
0.00998089
0.00988929
0.00980187
0.0097178
0.00963682
0.00955784
0.0094809
0.00940464
0.00932927
0.00925374
0.00917728
0.00910199
0.00902094
0.00895029
0.00885771
0.00881081
0.00868649
0.00872602
0.00855108
0.00888733
0.0887296
0.0327299
0.0178594
0.0189766
0.0188063
0.0175386
0.0164933
0.0157363
0.0151161
0.0145742
0.014096
0.0136722
0.013294
0.0129541
0.0126466
0.0123669
0.0121113
0.0118767
0.0116607
0.0114612
0.0112764
0.0111049
0.0109454
0.0107967
0.0106578
0.0105279
0.0104061
0.0102916
0.0101838
0.010082
0.00998555
0.00989375
0.00980616
0.00972194
0.00964082
0.00956172
0.00948466
0.00940832
0.00933285
0.00925725
0.00918069
0.0091053
0.00902412
0.00895319
0.0088606
0.0088122
0.00869044
0.00871996
0.00858116
0.00883818
0.0858648
0.0336924
0.01849
0.0192283
0.0189828
0.0176553
0.0165677
0.0157916
0.0151608
0.0146108
0.0141263
0.0136977
0.013316
0.0129733
0.0126636
0.0123821
0.0121249
0.011889
0.011672
0.0114715
0.0112859
0.0111137
0.0109536
0.0108043
0.010665
0.0105346
0.0104124
0.0102976
0.0101895
0.0100873
0.00999061
0.00989858
0.00981077
0.00972636
0.00964505
0.00956581
0.0094886
0.00941214
0.00933654
0.00926085
0.00918413
0.00910863
0.00902728
0.00895592
0.00886337
0.00881276
0.00869452
0.0087112
0.00860611
0.008779
0.0830503
0.0345704
0.0191202
0.019473
0.0191629
0.0177827
0.016651
0.0158539
0.0152119
0.0146532
0.0141616
0.0137277
0.0133419
0.012996
0.0126836
0.0123999
0.0121409
0.0119035
0.0116851
0.0114836
0.011297
0.0111239
0.010963
0.0108131
0.0106731
0.0105422
0.0104195
0.0103043
0.0101958
0.0100933
0.00999623
0.00990389
0.00981581
0.00973114
0.0096496
0.00957016
0.00949275
0.00941615
0.00934036
0.00926455
0.00918763
0.00911197
0.00903037
0.00895843
0.00886596
0.00881234
0.00869835
0.0086998
0.00862228
0.0087111
0.080292
0.0353611
0.019745
0.0197068
0.0193405
0.017916
0.0167398
0.0159208
0.0152675
0.0147
0.0142011
0.0137615
0.0133712
0.0130217
0.0127065
0.0124203
0.0121593
0.0119202
0.0117003
0.0114975
0.0113098
0.0111357
0.0109739
0.0108232
0.0106825
0.010551
0.0104277
0.0103119
0.0102029
0.0101
0.0100025
0.00990979
0.00982136
0.00973638
0.00965455
0.00957486
0.00949718
0.00942039
0.00934434
0.00926839
0.00919118
0.00911531
0.0090334
0.00896067
0.00886835
0.00881091
0.00870148
0.00868596
0.00862698
0.00863605
0.0775944
0.0360644
0.0203629
0.0199292
0.0195127
0.0180525
0.0168322
0.0159903
0.0153258
0.0147496
0.0142434
0.013798
0.0134032
0.0130501
0.0127318
0.0124431
0.01218
0.011939
0.0117175
0.0115132
0.0113243
0.0111491
0.0109863
0.0108347
0.0106932
0.0105609
0.010437
0.0103205
0.010211
0.0101075
0.0100095
0.00991637
0.00982751
0.00974215
0.00965995
0.00957995
0.00950195
0.00942491
0.00934854
0.00927239
0.00919484
0.00911867
0.0090364
0.00896263
0.00887049
0.00880849
0.00870338
0.00866991
0.00861888
0.00855528
0.0749608
0.0366806
0.0209735
0.0201412
0.019678
0.0181907
0.0169271
0.0160613
0.0153855
0.0148009
0.0142875
0.0138364
0.0134371
0.0130803
0.0127589
0.0124677
0.0122023
0.0119594
0.0117362
0.0115305
0.0113402
0.0111639
0.011
0.0108474
0.0107051
0.010572
0.0104473
0.0103301
0.0102199
0.0101158
0.0100173
0.00992365
0.0098343
0.0097485
0.00966586
0.00958548
0.00950709
0.00942975
0.009353
0.00927659
0.00919863
0.00912207
0.00903941
0.00896432
0.00887238
0.00880523
0.00870359
0.00865193
0.00859813
0.00847018
0.0723942
0.03721
0.0215751
0.0203437
0.0198356
0.0183296
0.0170241
0.0161333
0.0154462
0.0148534
0.0143329
0.013876
0.0134721
0.0131117
0.0127873
0.0124935
0.0122259
0.0119811
0.0117562
0.011549
0.0113574
0.0111798
0.0110148
0.0108613
0.010718
0.010584
0.0104585
0.0103406
0.0102297
0.010125
0.0100259
0.0099316
0.0098417
0.0097554
0.00967227
0.00959147
0.00951262
0.00943493
0.00935775
0.00928101
0.00920261
0.00912553
0.00904246
0.00896581
0.008874
0.00880132
0.0087018
0.0086323
0.00856626
0.00838235
0.0698971
0.0376533
0.0221658
0.020538
0.0199848
0.0184686
0.0171231
0.0162062
0.0155074
0.0149066
0.014379
0.0139164
0.0135081
0.013144
0.0128166
0.0125202
0.0122504
0.0120037
0.0117771
0.0115683
0.0113754
0.0111966
0.0110305
0.0108759
0.0107317
0.0105968
0.0104705
0.0103519
0.0102402
0.0101348
0.010035
0.00994015
0.00984966
0.00976281
0.00967915
0.00959788
0.00951854
0.00944044
0.00936279
0.00928566
0.00920679
0.0091291
0.0090456
0.00896718
0.00887535
0.00879697
0.00869793
0.00861137
0.00852576
0.00829374
0.0674721
0.0380111
0.0227431
0.0207255
0.0201249
0.0186068
0.017224
0.01628
0.0155691
0.0149605
0.0144259
0.0139575
0.0135446
0.0131769
0.0128465
0.0125476
0.0122756
0.0120269
0.0117986
0.0115884
0.0113941
0.0112141
0.0110469
0.0108912
0.0107461
0.0106103
0.0104831
0.0103637
0.0102513
0.0101452
0.0100447
0.00994919
0.00985809
0.00977067
0.00968644
0.00960466
0.00952481
0.00944626
0.00936812
0.00929055
0.0092112
0.00913279
0.00904885
0.00896852
0.00887644
0.00879243
0.0086921
0.00858953
0.00847959
0.0082066
0.0651214
0.0382849
0.0233042
0.0209075
0.0202558
0.0187433
0.0173267
0.0163546
0.0156311
0.0150148
0.0144734
0.0139992
0.0135818
0.0132104
0.012877
0.0125755
0.0123012
0.0120506
0.0118207
0.0116089
0.0114133
0.011232
0.0110637
0.010907
0.0107609
0.0106242
0.0104962
0.010376
0.0102628
0.010156
0.0100548
0.00995863
0.00986689
0.00977888
0.00969407
0.00961177
0.00953138
0.00945236
0.00937372
0.00929566
0.00921583
0.00913663
0.00905223
0.00896993
0.00887733
0.00878788
0.00868463
0.00856723
0.00843072
0.00812329
0.0628472
0.0384762
0.0238459
0.0210858
0.020377
0.0188772
0.0174308
0.0164301
0.0156935
0.0150696
0.0145215
0.0140415
0.0136195
0.0132444
0.0129079
0.0126038
0.0123274
0.0120748
0.0118432
0.0116299
0.0114329
0.0112504
0.0110809
0.0109232
0.0107761
0.0106385
0.0105097
0.0103886
0.0102747
0.0101671
0.0100652
0.00996839
0.00987601
0.00978739
0.00970199
0.00961915
0.00953821
0.00945871
0.00937956
0.00930099
0.00922068
0.00914065
0.00905576
0.0089715
0.00887807
0.0087835
0.00867596
0.00854496
0.00838187
0.00804594
0.0606511
0.0385872
0.0243651
0.0212616
0.0204886
0.0190073
0.0175362
0.0165065
0.0157561
0.0151248
0.0145701
0.0140843
0.0136576
0.0132789
0.0129394
0.0126326
0.0123539
0.0120994
0.011866
0.0116512
0.0114528
0.0112691
0.0110985
0.0109397
0.0107916
0.0106531
0.0105234
0.0104015
0.0102868
0.0101785
0.0100759
0.00997841
0.00988538
0.00979615
0.00971016
0.00962677
0.00954529
0.00946528
0.00938564
0.00930652
0.00922575
0.00914487
0.00905946
0.0089733
0.00887875
0.00877942
0.00866662
0.00852324
0.00833521
0.00797638
0.0585343
0.0386201
0.0248589
0.0214362
0.0205906
0.0191328
0.0176425
0.0165838
0.0158188
0.0151803
0.0146193
0.0141277
0.0136963
0.0133139
0.0129712
0.0126619
0.0123809
0.0121244
0.0118893
0.0116729
0.0114731
0.0112882
0.0111164
0.0109566
0.0108074
0.010668
0.0105374
0.0104147
0.0102992
0.0101902
0.0100869
0.00998867
0.00989498
0.00980514
0.00971854
0.0096346
0.00955258
0.00947206
0.00939194
0.00931228
0.00923105
0.00914933
0.00906336
0.0089754
0.00887947
0.00877577
0.00865713
0.0085026
0.00829241
0.00791594
0.0564977
0.0385781
0.0253242
0.0216103
0.0206834
0.0192526
0.0177492
0.016662
0.0158817
0.0152359
0.0146688
0.0141715
0.0137355
0.0133492
0.0130035
0.0126915
0.0124083
0.0121498
0.0119129
0.011695
0.0114938
0.0113075
0.0111346
0.0109737
0.0108236
0.0106832
0.0105517
0.0104282
0.0103119
0.010202
0.010098
0.00999915
0.0099048
0.00981433
0.00972714
0.00964264
0.00956009
0.00947906
0.00939846
0.00931825
0.00923658
0.00915405
0.00906748
0.00897785
0.00888035
0.00877266
0.00864799
0.00848353
0.00825462
0.00786555
0.0545416
0.0384647
0.0257585
0.0217847
0.0207673
0.0193658
0.0178558
0.0167411
0.0159446
0.0152917
0.0147187
0.0142158
0.013775
0.0133851
0.0130362
0.0127216
0.012436
0.0121756
0.0119369
0.0117174
0.0115148
0.0113272
0.0111531
0.0109911
0.01084
0.0106987
0.0105662
0.0104419
0.0103248
0.0102142
0.0101094
0.0100098
0.00991482
0.00982374
0.00973595
0.00965088
0.0095678
0.00948626
0.0094052
0.00932446
0.00924235
0.00915906
0.00907187
0.00898069
0.00888151
0.0087702
0.00863963
0.00846653
0.0082226
0.00782574
0.0526661
0.0382836
0.0261588
0.0219594
0.020843
0.0194717
0.0179616
0.016821
0.0160076
0.0153474
0.0147689
0.0142606
0.013815
0.0134213
0.0130694
0.0127521
0.0124642
0.0122017
0.0119613
0.0117402
0.0115361
0.0113472
0.0111719
0.0110088
0.0108566
0.0107144
0.010581
0.0104558
0.0103379
0.0102265
0.010121
0.0100207
0.00992506
0.00983334
0.00974496
0.00965934
0.00957574
0.00949369
0.00941218
0.00933093
0.00924839
0.00916437
0.00907654
0.00898398
0.00888308
0.00876851
0.00863245
0.00845204
0.00819682
0.00779673
0.0508707
0.0380394
0.0265229
0.0221344
0.0209112
0.0195695
0.0180661
0.0169016
0.0160706
0.0154029
0.0148193
0.0143057
0.0138554
0.0134579
0.0131029
0.0127829
0.0124928
0.0122282
0.011986
0.0117633
0.0115578
0.0113676
0.0111911
0.0110268
0.0108736
0.0107303
0.0105961
0.01047
0.0103512
0.0102391
0.0101328
0.0100319
0.00993551
0.00984316
0.00975418
0.009668
0.00958389
0.00950134
0.0094194
0.00933765
0.00925469
0.00917003
0.00908156
0.00898776
0.00888517
0.00876773
0.0086268
0.00844048
0.00817757
0.00777851
0.0491545
0.0377366
0.0268483
0.0223091
0.0209727
0.0196586
0.0181683
0.0169827
0.0161336
0.0154583
0.0148698
0.0143511
0.0138962
0.0134949
0.0131367
0.0128141
0.0125217
0.0122551
0.0120111
0.0117867
0.0115798
0.0113882
0.0112105
0.0110451
0.0108908
0.0107466
0.0106114
0.0104844
0.0103648
0.0102519
0.0101449
0.0100432
0.00994617
0.00985319
0.00976362
0.00967688
0.00959226
0.00950923
0.00942687
0.00934465
0.0092613
0.00917604
0.00908696
0.00899207
0.0088879
0.00876799
0.00862298
0.0084322
0.008165
0.00777092
0.0475163
0.0373804
0.0271333
0.0224825
0.0210285
0.0197387
0.0182675
0.0170641
0.0161967
0.0155133
0.0149202
0.0143967
0.0139373
0.0135322
0.0131709
0.0128457
0.0125509
0.0122823
0.0120365
0.0118105
0.0116021
0.0114092
0.0112302
0.0110637
0.0109083
0.0107631
0.010627
0.0104991
0.0103787
0.0102649
0.0101572
0.0100548
0.00995705
0.00986344
0.00977327
0.00968599
0.00960087
0.00951737
0.0094346
0.00935195
0.00926822
0.00918244
0.0090928
0.00899698
0.00889141
0.00876946
0.00862126
0.00842754
0.00815917
0.00777364
0.0459545
0.0369761
0.027376
0.0226535
0.0210795
0.0198097
0.0183628
0.0171456
0.0162597
0.0155679
0.0149705
0.0144426
0.0139786
0.0135698
0.0132055
0.0128776
0.0125805
0.0123099
0.0120622
0.0118346
0.0116247
0.0114305
0.0112502
0.0110825
0.0109261
0.0107799
0.0106428
0.010514
0.0103927
0.0102782
0.0101697
0.0100665
0.00996815
0.0098739
0.00978315
0.00969532
0.00960972
0.00952576
0.0094426
0.00935955
0.00927548
0.00918926
0.00909911
0.00900253
0.00889582
0.00877229
0.00862187
0.00842676
0.00816006
0.0077863
0.0444673
0.036529
0.0275753
0.0228204
0.0211267
0.0198715
0.0184533
0.0172266
0.0163227
0.015622
0.0150206
0.0144885
0.0140202
0.0136076
0.0132403
0.0129098
0.0126104
0.0123378
0.0120883
0.011859
0.0116476
0.011452
0.0112705
0.0111017
0.0109442
0.0107969
0.0106589
0.0105292
0.010407
0.0102917
0.0101824
0.0100785
0.00997947
0.00988459
0.00979325
0.00970488
0.0096188
0.00953441
0.00945088
0.00936748
0.0092831
0.00919652
0.00910596
0.00900881
0.00890122
0.00877664
0.00862501
0.00843007
0.00816761
0.00780841
0.0430524
0.036045
0.0277303
0.0229811
0.0211708
0.0199243
0.0185383
0.0173067
0.0163856
0.0156756
0.0150702
0.0145344
0.014062
0.0136457
0.0132753
0.0129423
0.0126407
0.0123659
0.0121146
0.0118837
0.0116708
0.0114739
0.0112911
0.0111211
0.0109625
0.0108142
0.0106752
0.0105446
0.0104216
0.0103054
0.0101954
0.0100908
0.00999102
0.0098955
0.00980358
0.00971468
0.00962814
0.00954333
0.00945946
0.00937574
0.0092911
0.00920425
0.0091134
0.00901587
0.00890774
0.00878266
0.00863085
0.00843761
0.00818169
0.00783944
0.0417074
0.0355294
0.0278406
0.0231335
0.0212129
0.0199685
0.0186169
0.0173854
0.0164484
0.0157285
0.0151193
0.0145802
0.0141039
0.0136839
0.0133105
0.012975
0.0126711
0.0123944
0.0121413
0.0119088
0.0116944
0.011496
0.011312
0.0111408
0.0109811
0.0108318
0.0106918
0.0105603
0.0104364
0.0103194
0.0102085
0.0101032
0.0100028
0.00990663
0.00981415
0.00972473
0.00963774
0.00955253
0.00946834
0.00938435
0.00929951
0.00921249
0.00912147
0.00902378
0.00891548
0.00879049
0.00863952
0.00844947
0.00820213
0.00787882
0.0404297
0.034988
0.0279064
0.023275
0.0212534
0.0200047
0.0186884
0.0174621
0.0165108
0.0157809
0.0151678
0.0146257
0.0141458
0.0137223
0.013346
0.0130079
0.0127018
0.0124231
0.0121682
0.011934
0.0117182
0.0115185
0.0113332
0.0111608
0.011
0.0108496
0.0107086
0.0105762
0.0104514
0.0103336
0.0102219
0.0101159
0.0100148
0.009918
0.00982494
0.00973502
0.00964759
0.00956202
0.00947754
0.00939334
0.00930836
0.00922126
0.00913022
0.0090326
0.00892453
0.00880024
0.00865112
0.00846567
0.00822869
0.00792594
0.0392164
0.0344261
0.0279282
0.023403
0.0212927
0.0200334
0.0187524
0.017536
0.0165728
0.0158326
0.0152155
0.0146709
0.0141876
0.0137607
0.0133815
0.013041
0.0127328
0.0124521
0.0121954
0.0119596
0.0117422
0.0115411
0.0113546
0.011181
0.0110191
0.0108676
0.0107257
0.0105923
0.0104666
0.010348
0.0102356
0.0101288
0.010027
0.00992959
0.00983597
0.00974556
0.00965771
0.0095718
0.00948707
0.0094027
0.00931766
0.00923059
0.0091397
0.00904241
0.00893497
0.00881201
0.00866572
0.00848619
0.00826109
0.00798015
0.0380646
0.0338487
0.0279072
0.0235153
0.0213309
0.0200555
0.0188085
0.0176065
0.016634
0.0158835
0.0152623
0.0147155
0.0142293
0.0137992
0.0134171
0.0130742
0.0127638
0.0124812
0.0122228
0.0119854
0.0117665
0.0115641
0.0113762
0.0112015
0.0110384
0.0108859
0.010743
0.0106087
0.0104821
0.0103626
0.0102494
0.0101419
0.0100394
0.00994141
0.00984724
0.00975634
0.0096681
0.00958187
0.00949694
0.00941246
0.00932743
0.00924052
0.00914996
0.00905326
0.00894688
0.00882588
0.00868334
0.00851092
0.00829901
0.00804078
0.0369712
0.0332606
0.027845
0.0236097
0.0213675
0.0200716
0.0188564
0.0176729
0.0166941
0.0159337
0.0153082
0.0147594
0.0142708
0.0138376
0.0134527
0.0131075
0.012795
0.0125106
0.0122503
0.0120113
0.011791
0.0115872
0.0113981
0.0112222
0.011058
0.0109045
0.0107605
0.0106252
0.0104978
0.0103774
0.0102635
0.0101552
0.0100521
0.00995345
0.00985875
0.00976738
0.00967877
0.00959226
0.00950715
0.00942263
0.0093377
0.00925106
0.00916102
0.0090652
0.00896031
0.00884188
0.00870397
0.00853973
0.00834205
0.00810712
0.0359332
0.032666
0.0277438
0.0236843
0.021402
0.0200826
0.0188961
0.0177345
0.0167527
0.0159831
0.0153531
0.0148026
0.0143118
0.0138758
0.0134882
0.0131407
0.0128263
0.01254
0.0122781
0.0120375
0.0118157
0.0116106
0.0114202
0.0112431
0.0110778
0.0109232
0.0107782
0.010642
0.0105137
0.0103925
0.0102777
0.0101688
0.010065
0.00996572
0.00987048
0.00977867
0.00968971
0.00960295
0.00951772
0.00943322
0.00934847
0.00926225
0.00917292
0.00907827
0.00897529
0.00886005
0.00872755
0.00857242
0.0083898
0.00817846
0.0349475
0.0320688
0.0276061
0.0237375
0.0214334
0.0200889
0.0189278
0.0177905
0.0168094
0.0160315
0.0153968
0.0148448
0.0143523
0.0139138
0.0135237
0.013174
0.0128576
0.0125695
0.012306
0.0120638
0.0118406
0.0116341
0.0114425
0.0112642
0.0110978
0.0109421
0.0107962
0.010659
0.0105298
0.0104078
0.0102922
0.0101825
0.010078
0.0099782
0.00988245
0.00979021
0.00970092
0.00961395
0.00952865
0.00944423
0.00935978
0.0092741
0.00918569
0.00909249
0.00899184
0.00888035
0.00875398
0.00860874
0.00844178
0.00825405
0.0340111
0.0314723
0.0274348
0.0237681
0.0214604
0.0200912
0.0189516
0.0178406
0.0168635
0.0160787
0.0154393
0.0148859
0.0143921
0.0139515
0.013559
0.0132071
0.0128889
0.0125991
0.0123339
0.0120903
0.0118657
0.0116578
0.011465
0.0112855
0.0111179
0.0109612
0.0108143
0.0106762
0.0105461
0.0104232
0.0103069
0.0101965
0.0100913
0.0099909
0.00989465
0.009802
0.0097124
0.00962526
0.00953993
0.00945568
0.00937161
0.00928663
0.00919933
0.00910788
0.00900996
0.00890275
0.00878314
0.00864842
0.0084975
0.00833315
0.0331209
0.0308794
0.0272329
0.0237753
0.0214816
0.0200899
0.018968
0.0178841
0.0169147
0.0161246
0.0154806
0.0149258
0.0144311
0.0139887
0.013594
0.0132401
0.0129201
0.0126287
0.0123619
0.0121168
0.0118908
0.0116817
0.0114876
0.0113069
0.0111383
0.0109805
0.0108326
0.0106936
0.0105626
0.0104388
0.0103217
0.0102106
0.0101048
0.0100038
0.00990706
0.00981403
0.00972416
0.00963688
0.00955158
0.00946756
0.00938398
0.00929984
0.00921386
0.00912444
0.00902962
0.00892716
0.00881483
0.00869111
0.00855641
0.00841498
0.0322743
0.0302926
0.0270037
0.0237587
0.0214956
0.020085
0.0189775
0.0179209
0.0169622
0.016169
0.0155206
0.0149644
0.0144692
0.0140253
0.0136286
0.0132728
0.0129512
0.0126582
0.0123899
0.0121434
0.011916
0.0117056
0.0115103
0.0113285
0.0111588
0.011
0.0108511
0.0107111
0.0105792
0.0104546
0.0103368
0.0102249
0.0101185
0.0100169
0.00991969
0.00982629
0.00973618
0.0096488
0.00956359
0.00947987
0.00939689
0.00931373
0.00922927
0.00914214
0.00905077
0.00895348
0.00884886
0.00873644
0.00861795
0.00849877
0.0314682
0.0297139
0.0267507
0.0237181
0.0215008
0.0200766
0.0189804
0.0179506
0.0170056
0.0162114
0.0155591
0.0150016
0.0145061
0.0140613
0.0136628
0.0133053
0.012982
0.0126875
0.0124179
0.01217
0.0119413
0.0117296
0.0115331
0.0113502
0.0111794
0.0110196
0.0108697
0.0107287
0.010596
0.0104706
0.0103519
0.0102394
0.0101323
0.0100302
0.00993253
0.00983878
0.00974845
0.00966102
0.00957594
0.00949261
0.00941033
0.00932829
0.00924553
0.00916094
0.00907333
0.00898154
0.00888495
0.00878402
0.00868152
0.00858373
0.0307003
0.0291449
0.026477
0.0236541
0.0214959
0.0200645
0.0189774
0.0179733
0.0170444
0.0162514
0.015596
0.0150373
0.0145417
0.0140963
0.0136965
0.0133373
0.0130125
0.0127167
0.0124457
0.0121965
0.0119665
0.0117537
0.011556
0.0113719
0.0112001
0.0110392
0.0108884
0.0107465
0.0106129
0.0104867
0.0103673
0.010254
0.0101463
0.0100437
0.00994555
0.00985148
0.00976097
0.00967352
0.00958864
0.00950576
0.00942428
0.00934349
0.00926262
0.00918079
0.00909719
0.00901118
0.00892283
0.00883339
0.00874652
0.00866909
0.0299679
0.0285869
0.0261859
0.0235672
0.0214795
0.0200482
0.0189687
0.0179889
0.017078
0.0162888
0.0156313
0.0150713
0.014576
0.0141304
0.0137295
0.0133689
0.0130427
0.0127456
0.0124734
0.0122229
0.0119917
0.0117777
0.0115789
0.0113937
0.0112208
0.011059
0.0109072
0.0107644
0.0106299
0.0105029
0.0103827
0.0102688
0.0101605
0.0100573
0.00995875
0.00986438
0.00977371
0.00968629
0.00960166
0.00951931
0.00943872
0.00935931
0.00928047
0.0092016
0.00912222
0.00904219
0.00896217
0.0088841
0.00881231
0.00875407
0.0292688
0.0280408
0.0258804
0.0234584
0.0214506
0.0200271
0.0189548
0.0179976
0.0171061
0.0163231
0.0156645
0.0151037
0.0146087
0.0141633
0.0137617
0.0133999
0.0130725
0.0127742
0.0125008
0.0122492
0.0120168
0.0118017
0.0116018
0.0114156
0.0112416
0.0110788
0.010926
0.0107824
0.010647
0.0105192
0.0103983
0.0102836
0.0101747
0.0100711
0.00997211
0.00987746
0.00978667
0.00969931
0.00961498
0.00953322
0.00945361
0.00937569
0.00929903
0.00922326
0.00914827
0.00907432
0.00900262
0.00893567
0.00887827
0.00883792
0.0286008
0.0275073
0.0255633
0.0233292
0.0214085
0.0200006
0.0189358
0.0179997
0.0171283
0.0163538
0.0156956
0.0151342
0.0146398
0.0141948
0.013793
0.0134302
0.0131017
0.0128023
0.0125279
0.0122752
0.0120418
0.0118255
0.0116246
0.0114373
0.0112624
0.0110986
0.0109449
0.0108004
0.0106642
0.0105356
0.0104139
0.0102986
0.0101891
0.0100849
0.00998561
0.0098907
0.00979981
0.00971256
0.00962856
0.00954746
0.00946891
0.00939257
0.0093182
0.00924566
0.00917514
0.00910731
0.00904381
0.00898758
0.00894375
0.00891988
0.0279619
0.0269869
0.0252371
0.023181
0.0213525
0.0199678
0.0189119
0.0179953
0.0171446
0.0163804
0.0157243
0.0151628
0.014669
0.014225
0.0138231
0.0134597
0.0131303
0.01283
0.0125546
0.0123009
0.0120665
0.0118492
0.0116473
0.0114591
0.0112832
0.0111184
0.0109638
0.0108184
0.0106814
0.010552
0.0104296
0.0103136
0.0102036
0.0100989
0.00999921
0.00990407
0.00981311
0.00972599
0.00964239
0.00956199
0.00948456
0.00940989
0.00933788
0.00926864
0.00920263
0.00914086
0.00908534
0.00903931
0.00900814
0.00899924
0.0273502
0.0264796
0.0249042
0.0230154
0.0212825
0.0199281
0.0188831
0.0179847
0.0171547
0.0164028
0.0157501
0.0151892
0.0146964
0.0142535
0.0138521
0.0134883
0.0131582
0.0128571
0.0125809
0.0123263
0.012091
0.0118727
0.0116698
0.0114806
0.0113038
0.0111382
0.0109827
0.0108364
0.0106985
0.0105684
0.0104453
0.0103287
0.0102181
0.010113
0.0100129
0.00991755
0.00982654
0.00973958
0.0096564
0.00957676
0.0095005
0.00942754
0.00935795
0.00929203
0.00923051
0.00917466
0.00912679
0.00909036
0.00907079
0.0090753
0.0267639
0.0259858
0.0245665
0.0228341
0.0211986
0.0198808
0.0188492
0.0179682
0.0171586
0.0164204
0.0157729
0.0152134
0.0147218
0.0142802
0.0138796
0.0135159
0.0131852
0.0128835
0.0126066
0.0123513
0.0121151
0.011896
0.0116921
0.0115021
0.0113243
0.0111578
0.0110015
0.0108544
0.0107157
0.0105848
0.010461
0.0103438
0.0102326
0.010127
0.0100266
0.00993109
0.00984006
0.00975329
0.00967055
0.0095917
0.00951665
0.00944543
0.00937827
0.00931566
0.00925852
0.00920838
0.00916774
0.00914019
0.00913112
0.00914742
0.0262016
0.0255051
0.0242259
0.022639
0.0211008
0.0198251
0.0188099
0.017946
0.0171564
0.016433
0.0157923
0.0152351
0.014745
0.0143051
0.0139057
0.0135422
0.0132114
0.0129091
0.0126316
0.0123757
0.0121387
0.0119188
0.0117142
0.0115233
0.0113447
0.0111773
0.0110201
0.0108722
0.0107328
0.0106012
0.0104767
0.0103589
0.0102471
0.0101411
0.0100404
0.00994465
0.00985362
0.00976705
0.00968478
0.00960673
0.0095329
0.00946343
0.00939869
0.00933931
0.0092864
0.00924167
0.00920775
0.0091883
0.00918853
0.00921498
0.0256617
0.0250376
0.023884
0.0224317
0.0209897
0.0197607
0.0187651
0.0179182
0.0171481
0.0164404
0.015808
0.0152541
0.014766
0.014328
0.01393
0.0135673
0.0132364
0.0129339
0.012656
0.0123995
0.0121619
0.0119413
0.0117359
0.0115442
0.0113648
0.0111966
0.0110386
0.0108899
0.0107498
0.0106174
0.0104923
0.0103738
0.0102616
0.0101551
0.0100541
0.0099582
0.00986716
0.00978081
0.00969903
0.00962178
0.00954917
0.00948142
0.00941903
0.00936276
0.00931387
0.00927418
0.00924641
0.00923416
0.00924248
0.00927741
0.0251429
0.024583
0.0235419
0.0222139
0.020866
0.0196871
0.0187143
0.0178848
0.0171338
0.0164424
0.0158196
0.0152701
0.0147845
0.0143488
0.0139526
0.0135908
0.0132603
0.0129577
0.0126795
0.0124226
0.0121845
0.0119633
0.0117572
0.0115647
0.0113846
0.0112157
0.0110569
0.0109075
0.0107666
0.0106335
0.0105078
0.0103887
0.010276
0.0101691
0.0100678
0.00997168
0.00988065
0.00979451
0.0097132
0.00963675
0.00956532
0.00949924
0.0094391
0.00938577
0.00934062
0.00930554
0.00928327
0.00927731
0.00929243
0.0093342
0.0246438
0.0241411
0.0232009
0.0219872
0.0207304
0.0196042
0.0186573
0.017846
0.0171138
0.016439
0.0158269
0.0152829
0.0148005
0.0143672
0.0139731
0.0136128
0.0132829
0.0129804
0.0127021
0.0124449
0.0122065
0.0119847
0.011778
0.0115849
0.0114041
0.0112344
0.0110749
0.0109248
0.0107832
0.0106495
0.0105231
0.0104035
0.0102902
0.0101829
0.0100813
0.00998503
0.009894
0.00980807
0.00972722
0.00965153
0.00958124
0.00951674
0.00945871
0.00940811
0.00936636
0.0093354
0.00931792
0.00931727
0.00933791
0.00938489
0.0241634
0.0237114
0.0228619
0.0217531
0.0205837
0.019512
0.0185938
0.0178017
0.017088
0.01643
0.0158297
0.0152923
0.0148137
0.0143833
0.0139916
0.0136329
0.013304
0.0130019
0.0127237
0.0124664
0.0122277
0.0120055
0.0117983
0.0116046
0.0114231
0.0112528
0.0110926
0.0109418
0.0107995
0.0106651
0.0105381
0.010418
0.0103042
0.0101965
0.0100946
0.00999818
0.00990715
0.00982141
0.00974098
0.00966601
0.00959678
0.00953375
0.00947765
0.0094295
0.00939078
0.00936339
0.00934995
0.00935362
0.00937849
0.00942909
0.0237005
0.0232938
0.0225256
0.0215131
0.020427
0.0194105
0.0185235
0.0177517
0.0170565
0.0164155
0.0158278
0.0152981
0.0148239
0.0143968
0.0140078
0.0136512
0.0133235
0.0130221
0.0127441
0.0124869
0.012248
0.0120255
0.0118179
0.0116237
0.0114417
0.0112707
0.0111099
0.0109584
0.0108155
0.0106805
0.0105529
0.0104322
0.010318
0.0102099
0.0101077
0.0100111
0.00992001
0.00983443
0.00975439
0.00968006
0.00961179
0.00955007
0.00949569
0.0094497
0.00941357
0.00938917
0.00937898
0.00938594
0.00941377
0.00946646
0.0232542
0.0228879
0.0221927
0.0212682
0.0202611
0.0193001
0.0184463
0.0176961
0.0170195
0.0163955
0.015821
0.0152999
0.0148311
0.0144077
0.0140217
0.0136674
0.0133413
0.0130408
0.0127633
0.0125063
0.0122674
0.0120448
0.0118368
0.0116422
0.0114596
0.0112882
0.0111268
0.0109747
0.0108312
0.0106956
0.0105674
0.0104462
0.0103314
0.010223
0.0101204
0.0100236
0.00993251
0.00984705
0.00976733
0.00969356
0.00962611
0.00956553
0.00951262
0.00946845
0.00943444
0.0094124
0.00940465
0.00941389
0.00944343
0.00949675
0.0228236
0.0224933
0.0218638
0.0210197
0.0200872
0.019181
0.018362
0.0176348
0.016977
0.01637
0.0158093
0.0152976
0.0148348
0.0144157
0.0140331
0.0136814
0.0133572
0.0130579
0.0127811
0.0125245
0.0122857
0.0120631
0.0118549
0.0116599
0.011477
0.011305
0.0111431
0.0109904
0.0108463
0.0107102
0.0105815
0.0104597
0.0103445
0.0102356
0.0101327
0.0100358
0.00994455
0.00985915
0.00977967
0.00970635
0.00963958
0.00957994
0.00952822
0.00948548
0.00945309
0.00943277
0.00942665
0.00943715
0.00946718
0.00951975
0.0224077
0.0221096
0.0215393
0.0207685
0.0199061
0.0190539
0.0182707
0.0175676
0.0169291
0.0163391
0.0157926
0.0152911
0.0148351
0.0144207
0.0140418
0.0136931
0.0133711
0.0130733
0.0127974
0.0125413
0.0123029
0.0120803
0.0118721
0.0116769
0.0114936
0.0113212
0.0111588
0.0110057
0.010861
0.0107243
0.0105951
0.0104728
0.0103571
0.0102478
0.0101446
0.0100474
0.00995603
0.00987063
0.0097913
0.0097183
0.00965204
0.00959309
0.00954225
0.00950054
0.00946926
0.00944999
0.00944466
0.00945544
0.00948483
0.00953534
0.0220059
0.0217366
0.0212194
0.0205156
0.0197188
0.0189191
0.0181725
0.0174945
0.0168757
0.0163029
0.0157707
0.0152801
0.0148317
0.0144226
0.0140478
0.0137024
0.0133828
0.0130868
0.0128121
0.0125568
0.0123188
0.0120965
0.0118883
0.011693
0.0115094
0.0113367
0.0111739
0.0110202
0.0108751
0.0107379
0.0106081
0.0104853
0.0103692
0.0102595
0.0101559
0.0100584
0.00996684
0.00988136
0.00980207
0.00972924
0.0096633
0.0096048
0.00955451
0.0095134
0.00948268
0.00946379
0.00945846
0.00946855
0.00949621
0.00954348
0.0216174
0.0213738
0.0209046
0.0202618
0.0195262
0.0187772
0.0180675
0.0174155
0.0168168
0.0162613
0.0157439
0.0152647
0.0148244
0.0144212
0.0140509
0.013709
0.0133923
0.0130983
0.0128251
0.0125707
0.0123334
0.0121114
0.0119034
0.011708
0.0115243
0.0113513
0.0111882
0.0110341
0.0108885
0.0107508
0.0106205
0.0104973
0.0103807
0.0102705
0.0101665
0.0100687
0.00997688
0.00989122
0.00981185
0.00973904
0.00967319
0.00961486
0.00956477
0.00952382
0.00949312
0.00947395
0.00946782
0.00947632
0.00950123
0.00954417
0.0212415
0.021021
0.0205949
0.0200078
0.0193291
0.0186289
0.017956
0.0173307
0.0167526
0.0162146
0.015712
0.0152446
0.0148131
0.0144164
0.0140509
0.013713
0.0133993
0.0131077
0.0128361
0.012583
0.0123465
0.012125
0.0119173
0.011722
0.0115383
0.0113651
0.0112016
0.0110472
0.0109012
0.010763
0.0106323
0.0105085
0.0103914
0.0102808
0.0101764
0.0100782
0.00998604
0.0099001
0.00982051
0.00974753
0.00968155
0.0096231
0.00957284
0.0095316
0.00950037
0.00948027
0.00947259
0.00947865
0.00949987
0.00953753
0.0208776
0.0206778
0.0202907
0.0197543
0.0191284
0.0184748
0.0178383
0.0172401
0.0166831
0.0161626
0.015675
0.0152199
0.0147978
0.014408
0.0140478
0.0137141