/*--------------------------------*- C++ -*----------------------------------*\
  =========                 |
  \\      /  F ield         | OpenFOAM: The Open Source CFD Toolbox
   \\    /   O peration     | Website:  https://openfoam.org
    \\  /    A nd           | Version:  7
     \\/     M anipulation  |
\*---------------------------------------------------------------------------*/
FoamFile
{
    version     2.0;
    format      ascii;
    class       surfaceScalarField;
    location    "0.22";
    object      phi;
}
// * * * * * * * * * * * * * * * * * * * * * * * * * * * * * * * * * * * * * //

dimensions      [0 3 -1 0 0 0 0];

internalField   nonuniform List<scalar> 
139350
(
6.45119e-08
9.21196e-08
3.19637e-08
3.25482e-08
2.3057e-08
8.90669e-09
1.95702e-08
3.48678e-09
1.76157e-08
1.95451e-09
1.61823e-08
1.4334e-09
1.50456e-08
1.13671e-09
1.41289e-08
9.16668e-10
1.33737e-08
7.55283e-10
1.27365e-08
6.37195e-10
1.21886e-08
5.47861e-10
1.17108e-08
4.77815e-10
1.12893e-08
4.21458e-10
1.09141e-08
3.75271e-10
1.05772e-08
3.36857e-10
1.02727e-08
3.04503e-10
9.99575e-09
2.76952e-10
9.74248e-09
2.53266e-10
9.50975e-09
2.32731e-10
9.29495e-09
2.14798e-10
9.09592e-09
1.99035e-10
8.91081e-09
1.85102e-10
8.73809e-09
1.72723e-10
8.57642e-09
1.61676e-10
8.42464e-09
1.51778e-10
8.28176e-09
1.42877e-10
8.14691e-09
1.34847e-10
8.01933e-09
1.27582e-10
7.89835e-09
1.20986e-10
7.78335e-09
1.14992e-10
7.67384e-09
1.09514e-10
7.56931e-09
1.04526e-10
7.46939e-09
9.99202e-11
7.37365e-09
9.57433e-11
7.28184e-09
9.18086e-11
7.19353e-09
8.831e-11
7.10866e-09
8.48672e-11
7.0267e-09
8.19666e-11
6.94784e-09
7.88626e-11
6.87133e-09
7.65084e-11
6.79762e-09
7.37039e-11
6.72589e-09
7.17369e-11
6.6562e-09
6.96916e-11
6.58891e-09
6.72805e-11
6.52055e-09
6.83645e-11
6.45873e-09
6.18227e-11
6.38219e-09
7.65383e-11
6.34203e-09
4.01611e-11
6.10445e-09
2.37575e-10
-2.82999e-09
8.93444e-09
1.25943e-07
1.2762e-07
9.12878e-08
6.72031e-08
7.19318e-08
2.82627e-08
6.12115e-08
1.42071e-08
5.47687e-08
8.39735e-09
5.02655e-08
5.93661e-09
4.67709e-08
4.63125e-09
4.39459e-08
3.74166e-09
4.16099e-08
3.09136e-09
3.96374e-08
2.6097e-09
3.79414e-08
2.24383e-09
3.64621e-08
1.95712e-09
3.51569e-08
1.72662e-09
3.39944e-08
1.53774e-09
3.29507e-08
1.38061e-09
3.2007e-08
1.24822e-09
3.11485e-08
1.13545e-09
3.03633e-08
1.03846e-09
2.96417e-08
9.54352e-10
2.89756e-08
8.80875e-10
2.83584e-08
8.16274e-10
2.77843e-08
7.59153e-10
2.72486e-08
7.08393e-10
2.67472e-08
6.63085e-10
2.62765e-08
6.22484e-10
2.58334e-08
5.85971e-10
2.54152e-08
5.53029e-10
2.50196e-08
5.23224e-10
2.46444e-08
4.96182e-10
2.42878e-08
4.71595e-10
2.39482e-08
4.49166e-10
2.3624e-08
4.28707e-10
2.3314e-08
4.09913e-10
2.30169e-08
3.92776e-10
2.27319e-08
3.76825e-10
2.24578e-08
3.6244e-10
2.2194e-08
3.48625e-10
2.19393e-08
3.36668e-10
2.16939e-08
3.2427e-10
2.14557e-08
3.14734e-10
2.12264e-08
3.02981e-10
2.10019e-08
2.96285e-10
2.0787e-08
2.84578e-10
2.05728e-08
2.81473e-10
2.03703e-08
2.70854e-10
2.01617e-08
2.70484e-10
1.99626e-08
2.75541e-10
1.9778e-08
2.24769e-10
1.94367e-08
5.78957e-10
-3.1108e-09
1.97175e-08
1.58752e-07
1.35272e-07
1.36525e-07
8.943e-08
1.17488e-07
4.72997e-08
1.03305e-07
2.839e-08
9.33035e-08
1.83992e-08
8.59932e-08
1.32469e-08
8.02734e-08
1.03511e-08
7.56078e-08
8.40731e-09
7.1714e-08
6.98514e-09
6.84046e-08
5.9191e-09
6.55464e-08
5.10203e-09
6.30449e-08
4.45863e-09
6.08318e-08
3.93974e-09
5.88561e-08
3.51343e-09
5.70787e-08
3.15795e-09
5.54691e-08
2.85784e-09
5.40028e-08
2.60172e-09
5.26602e-08
2.38111e-09
5.1425e-08
2.18952e-09
5.02839e-08
2.02194e-09
4.92258e-08
1.87443e-09
4.82411e-08
1.74386e-09
4.73217e-08
1.62773e-09
4.64608e-08
1.52398e-09
4.56524e-08
1.43094e-09
4.48911e-08
1.3472e-09
4.41726e-08
1.27161e-09
4.34926e-08
1.20318e-09
4.28477e-08
1.14106e-09
4.22348e-08
1.08456e-09
4.16509e-08
1.03302e-09
4.10936e-08
9.85966e-10
4.05607e-08
9.42819e-10
4.00501e-08
9.03372e-10
3.95601e-08
8.6685e-10
3.90889e-08
8.33695e-10
3.86353e-08
8.0223e-10
3.81973e-08
7.74618e-10
3.77751e-08
7.46528e-10
3.73652e-08
7.24589e-10
3.69705e-08
6.97633e-10
3.65837e-08
6.83152e-10
3.62144e-08
6.53892e-10
3.5844e-08
6.51875e-10
3.54993e-08
6.1552e-10
3.5135e-08
6.34816e-10
3.48094e-08
6.01125e-10
3.44605e-08
5.73606e-10
3.40915e-08
9.47963e-10
-2.35045e-09
3.33312e-08
1.75611e-07
1.31176e-07
1.65623e-07
9.94186e-08
1.52731e-07
6.0191e-08
1.40116e-07
4.10048e-08
1.29428e-07
2.90879e-08
1.20777e-07
2.18972e-08
1.13651e-07
1.74776e-08
1.07653e-07
1.44052e-08
1.02533e-07
1.21047e-08
9.81098e-08
1.03428e-08
9.42423e-08
8.96952e-09
9.08257e-08
7.87517e-09
8.77806e-08
6.98487e-09
8.50457e-08
6.24831e-09
8.25731e-08
5.6306e-09
8.03244e-08
5.10655e-09
7.82686e-08
4.65748e-09
7.63804e-08
4.26928e-09
7.46389e-08
3.93108e-09
7.30264e-08
3.63444e-09
7.15281e-08
3.37269e-09
7.01315e-08
3.1405e-09
6.88256e-08
2.93356e-09
6.76013e-08
2.74835e-09
6.64502e-08
2.58198e-09
6.53654e-08
2.43202e-09
6.43405e-08
2.29647e-09
6.33701e-08
2.17359e-09
6.24493e-08
2.06194e-09
6.15736e-08
1.96024e-09
6.07391e-08
1.86744e-09
5.99425e-08
1.7826e-09
5.91805e-08
1.70482e-09
5.84503e-08
1.63358e-09
5.77494e-08
1.56776e-09
5.70753e-08
1.50778e-09
5.64263e-08
1.45122e-09
5.57998e-08
1.40113e-09
5.51955e-08
1.35089e-09
5.46091e-08
1.31093e-09
5.40439e-08
1.26287e-09
5.34906e-08
1.23646e-09
5.2961e-08
1.18349e-09
5.24321e-08
1.18074e-09
5.19366e-08
1.111e-09
5.14203e-08
1.15115e-09
5.09517e-08
1.06976e-09
5.04528e-08
1.07244e-09
4.99852e-08
1.41563e-09
-1.31183e-09
4.89466e-08
1.8451e-07
1.23452e-07
1.8234e-07
1.01589e-07
1.76118e-07
6.64127e-08
1.67756e-07
4.93667e-08
1.5913e-07
3.77147e-08
1.51213e-07
2.98135e-08
1.44127e-07
2.45644e-08
1.37809e-07
2.07229e-08
1.32187e-07
1.77262e-08
1.27178e-07
1.53521e-08
1.22695e-07
1.34522e-08
1.18663e-07
1.19074e-08
1.15017e-07
1.06309e-08
1.11704e-07
9.5615e-09
1.08679e-07
8.65529e-09
1.05906e-07
7.87978e-09
1.03353e-07
7.21032e-09
1.00995e-07
6.6279e-09
9.88079e-08
6.1177e-09
9.67743e-08
5.66804e-09
9.48774e-08
5.26955e-09
9.31032e-08
4.91471e-09
9.14394e-08
4.59736e-09
8.98753e-08
4.31246e-09
8.84015e-08
4.05581e-09
8.70096e-08
3.82389e-09
8.56924e-08
3.61374e-09
8.44431e-08
3.42282e-09
8.32561e-08
3.24901e-09
8.21259e-08
3.0904e-09
8.10479e-08
2.94543e-09
8.00178e-08
2.81266e-09
7.90318e-08
2.69083e-09
7.80864e-08
2.57902e-09
7.71784e-08
2.47577e-09
7.63048e-08
2.38136e-09
7.54633e-08
2.29268e-09
7.46509e-08
2.21353e-09
7.38667e-08
2.13508e-09
7.31063e-08
2.07136e-09
7.23721e-08
1.99703e-09
7.1655e-08
1.95358e-09
7.09657e-08
1.87284e-09
7.02824e-08
1.86397e-09
6.96337e-08
1.7597e-09
6.89742e-08
1.81065e-09
6.83531e-08
1.69092e-09
6.7724e-08
1.70155e-09
6.71032e-08
2.0364e-09
-1.83944e-10
6.59753e-08
1.90342e-07
1.15326e-07
1.91859e-07
1.00072e-07
1.90261e-07
6.80104e-08
1.86153e-07
5.34748e-08
1.80709e-07
4.31591e-08
1.74948e-07
3.55741e-08
1.69239e-07
3.02736e-08
1.63738e-07
2.62239e-08
1.58542e-07
2.29218e-08
1.53694e-07
2.02004e-08
1.49196e-07
1.79503e-08
1.45032e-07
1.60715e-08
1.41178e-07
1.44847e-08
1.37609e-07
1.3131e-08
1.34298e-07
1.19662e-08
1.31221e-07
1.09565e-08
1.28356e-07
1.0075e-08
1.25683e-07
9.30083e-09
1.23184e-07
8.61691e-09
1.20842e-07
8.00968e-09
1.18644e-07
7.46804e-09
1.16576e-07
6.9829e-09
1.14626e-07
6.54676e-09
1.12785e-07
6.15335e-09
1.11044e-07
5.79744e-09
1.09393e-07
5.47455e-09
1.07826e-07
5.18094e-09
1.06335e-07
4.91331e-09
1.04916e-07
4.66893e-09
1.03561e-07
4.44529e-09
1.02266e-07
4.24037e-09
1.01026e-07
4.05223e-09
9.98377e-08
3.87924e-09
9.86967e-08
3.7201e-09
9.75994e-08
3.57301e-09
9.65427e-08
3.43807e-09
9.55239e-08
3.31154e-09
9.45396e-08
3.1978e-09
9.35885e-08
3.08616e-09
9.26663e-08
2.99353e-09
9.17744e-08
2.88896e-09
9.09049e-08
2.82307e-09
9.00652e-08
2.71259e-09
8.92392e-08
2.68999e-09
8.84441e-08
2.55474e-09
8.76545e-08
2.60032e-09
8.68854e-08
2.45995e-09
8.61373e-08
2.44973e-09
8.53702e-08
2.80344e-09
1.03507e-09
8.41512e-08
1.95504e-07
1.07636e-07
1.98247e-07
9.73295e-08
1.98985e-07
6.72725e-08
1.97789e-07
5.46709e-08
1.9515e-07
4.57971e-08
1.91804e-07
3.89202e-08
1.88062e-07
3.40155e-08
1.84097e-07
3.0189e-08
1.80059e-07
2.69601e-08
1.76057e-07
2.4202e-08
1.72161e-07
2.18471e-08
1.68407e-07
1.98249e-08
1.64818e-07
1.80742e-08
1.61401e-07
1.65479e-08
1.58157e-07
1.52097e-08
1.55084e-07
1.40303e-08
1.52173e-07
1.29859e-08
1.49417e-07
1.20568e-08
1.46807e-07
1.12268e-08
1.44334e-07
1.04825e-08
1.41989e-07
9.81272e-09
1.39764e-07
9.208e-09
1.37651e-07
8.66045e-09
1.35641e-07
8.16332e-09
1.33727e-07
7.71091e-09
1.31903e-07
7.29826e-09
1.30163e-07
6.92116e-09
1.28501e-07
6.57588e-09
1.2691e-07
6.25927e-09
1.25387e-07
5.96841e-09
1.23927e-07
5.70094e-09
1.22524e-07
5.45453e-09
1.21176e-07
5.22732e-09
1.19879e-07
5.01763e-09
1.18628e-07
4.82343e-09
1.17422e-07
4.6446e-09
1.16256e-07
4.47699e-09
1.15129e-07
4.32525e-09
1.14038e-07
4.17746e-09
1.12979e-07
4.05231e-09
1.11953e-07
3.91529e-09
1.10953e-07
3.82245e-09
1.09984e-07
3.68213e-09
1.09035e-07
3.63822e-09
1.08113e-07
3.47746e-09
1.07211e-07
3.50204e-09
1.06314e-07
3.35644e-09
1.05456e-07
3.30829e-09
1.04575e-07
3.68463e-09
2.3352e-09
1.03275e-07
2.00819e-07
1.00402e-07
2.03771e-07
9.43774e-08
2.05344e-07
6.56995e-08
2.05644e-07
5.4371e-08
2.04811e-07
4.66302e-08
2.03327e-07
4.04041e-08
2.01372e-07
3.59705e-08
1.99031e-07
3.25306e-08
1.96409e-07
2.95818e-08
1.93609e-07
2.70015e-08
1.90712e-07
2.47441e-08
1.87778e-07
2.27593e-08
1.84851e-07
2.10015e-08
1.81962e-07
1.94362e-08
1.79135e-07
1.80366e-08
1.76385e-07
1.6781e-08
1.7372e-07
1.5651e-08
1.71145e-07
1.4631e-08
1.68664e-07
1.37078e-08
1.66277e-07
1.287e-08
1.63982e-07
1.21078e-08
1.61777e-07
1.14129e-08
1.59659e-07
1.07781e-08
1.57626e-07
1.0197e-08
1.55672e-07
9.66422e-09
1.53796e-07
9.17494e-09
1.51992e-07
8.72501e-09
1.50257e-07
8.31063e-09
1.48588e-07
7.92863e-09
1.4698e-07
7.57595e-09
1.45431e-07
7.25014e-09
1.43937e-07
6.94869e-09
1.42494e-07
6.66963e-09
1.41101e-07
6.41109e-09
1.39753e-07
6.17093e-09
1.38449e-07
5.94885e-09
1.37186e-07
5.74048e-09
1.3596e-07
5.55056e-09
1.34771e-07
5.36655e-09
1.33616e-07
5.20787e-09
1.32492e-07
5.03856e-09
1.31398e-07
4.91642e-09
1.30333e-07
4.74788e-09
1.29294e-07
4.6773e-09
1.28275e-07
4.49656e-09
1.27287e-07
4.48947e-09
1.26296e-07
4.34766e-09
1.25346e-07
4.2586e-09
1.24385e-07
4.64543e-09
3.67672e-09
1.23043e-07
2.06423e-07
9.35115e-08
2.09331e-07
9.14689e-08
2.11055e-07
6.39751e-08
2.11935e-07
5.34915e-08
2.11996e-07
4.6569e-08
2.11608e-07
4.07923e-08
2.10873e-07
3.67051e-08
2.09794e-07
3.36095e-08
2.0841e-07
3.09667e-08
2.06777e-07
2.86345e-08
2.04951e-07
2.65701e-08
2.0298e-07
2.47294e-08
2.00908e-07
2.30736e-08
1.9877e-07
2.15744e-08
1.96595e-07
2.02117e-08
1.94407e-07
1.89693e-08
1.92224e-07
1.7834e-08
1.90061e-07
1.67944e-08
1.87928e-07
1.58406e-08
1.85834e-07
1.49642e-08
1.83784e-07
1.41576e-08
1.81782e-07
1.34143e-08
1.79832e-07
1.27283e-08
1.77934e-07
1.20947e-08
1.7609e-07
1.15087e-08
1.74299e-07
1.09663e-08
1.7256e-07
1.04639e-08
1.70872e-07
9.99798e-09
1.69235e-07
9.56575e-09
1.67647e-07
9.16432e-09
1.66106e-07
8.79145e-09
1.6461e-07
8.44466e-09
1.63157e-07
8.12211e-09
1.61746e-07
7.82189e-09
1.60375e-07
7.54191e-09
1.59042e-07
7.28182e-09
1.57746e-07
7.03724e-09
1.56483e-07
6.81286e-09
1.55254e-07
6.59606e-09
1.54055e-07
6.4062e-09
1.52886e-07
6.20755e-09
1.51746e-07
6.05681e-09
1.5063e-07
5.86354e-09
1.49543e-07
5.76441e-09
1.48471e-07
5.56901e-09
1.47435e-07
5.52565e-09
1.46391e-07
5.39154e-09
1.45381e-07
5.26784e-09
1.44379e-07
5.64836e-09
5.01052e-09
1.43045e-07
2.12269e-07
8.6905e-08
2.1514e-07
8.85979e-08
2.1681e-07
6.23046e-08
2.17849e-07
5.24523e-08
2.18256e-07
4.61623e-08
2.18371e-07
4.06779e-08
2.18291e-07
3.67849e-08
2.17985e-07
3.39155e-08
2.17446e-07
3.15055e-08
2.16693e-07
2.93878e-08
2.15748e-07
2.75145e-08
2.14637e-07
2.58403e-08
2.13386e-07
2.43255e-08
2.12018e-07
2.29424e-08
2.10557e-07
2.16723e-08
2.09025e-07
2.05014e-08
2.0744e-07
1.9419e-08
2.05818e-07
1.84161e-08
2.04173e-07
1.74855e-08
2.02517e-07
1.66206e-08
2.00858e-07
1.58159e-08
1.99206e-07
1.50666e-08
1.97566e-07
1.43684e-08
1.95943e-07
1.37174e-08
1.94342e-07
1.31101e-08
1.92765e-07
1.25432e-08
1.91215e-07
1.2014e-08
1.89693e-07
1.15197e-08
1.88201e-07
1.1058e-08
1.86739e-07
1.06264e-08
1.85307e-07
1.02231e-08
1.83906e-07
9.8458e-09
1.82535e-07
9.49301e-09
1.81194e-07
9.16298e-09
1.79882e-07
8.85377e-09
1.78599e-07
8.56514e-09
1.77343e-07
8.2928e-09
1.76115e-07
8.04144e-09
1.74912e-07
7.7987e-09
1.73735e-07
7.5834e-09
1.72581e-07
7.36121e-09
1.71452e-07
7.1858e-09
1.70343e-07
6.97331e-09
1.6926e-07
6.84737e-09
1.68186e-07
6.64285e-09
1.67147e-07
6.5641e-09
1.661e-07
6.43897e-09
1.65076e-07
6.29163e-09
1.64074e-07
6.65033e-09
6.28618e-09
1.62798e-07
2.18315e-07
8.05711e-08
2.21189e-07
8.57234e-08
2.22783e-07
6.07108e-08
2.2385e-07
5.13848e-08
2.24366e-07
4.56471e-08
2.24658e-07
4.03857e-08
2.24855e-07
3.65879e-08
2.24928e-07
3.38423e-08
2.24857e-07
3.1577e-08
2.2464e-07
2.96041e-08
2.24283e-07
2.78715e-08
2.23791e-07
2.63323e-08
2.23173e-07
2.49441e-08
2.22439e-07
2.36766e-08
2.21601e-07
2.25097e-08
2.20673e-07
2.14293e-08
2.19668e-07
2.04247e-08
2.18596e-07
1.94876e-08
2.1747e-07
1.86113e-08
2.163e-07
1.77904e-08
2.15096e-07
1.70204e-08
2.13865e-07
1.62974e-08
2.12615e-07
1.56181e-08
2.11353e-07
1.49796e-08
2.10084e-07
1.43792e-08
2.08813e-07
1.38146e-08
2.07543e-07
1.32837e-08
2.06279e-07
1.27842e-08
2.05022e-07
1.23146e-08
2.03776e-07
1.18728e-08
2.02541e-07
1.14574e-08
2.0132e-07
1.10667e-08
2.00114e-07
1.06993e-08
1.98923e-07
1.03538e-08
1.97749e-07
1.00284e-08
1.96591e-07
9.72331e-09
1.95449e-07
9.43425e-09
1.94325e-07
9.16598e-09
1.93217e-07
8.90661e-09
1.92126e-07
8.67415e-09
1.91051e-07
8.43644e-09
1.89994e-07
8.24286e-09
1.88949e-07
8.01833e-09
1.87926e-07
7.87037e-09
1.86906e-07
7.6627e-09
1.85916e-07
7.5537e-09
1.84917e-07
7.43777e-09
1.83929e-07
7.27947e-09
1.82975e-07
7.60478e-09
7.45506e-09
1.81806e-07
2.24548e-07
7.4516e-08
2.27449e-07
8.28227e-08
2.28979e-07
5.9181e-08
2.30053e-07
5.03101e-08
2.30609e-07
4.50915e-08
2.3095e-07
4.0045e-08
2.31236e-07
3.63011e-08
2.31458e-07
3.36207e-08
2.31596e-07
3.14392e-08
2.31648e-07
2.95519e-08
2.31614e-07
2.79058e-08
2.31491e-07
2.64555e-08
2.31278e-07
2.51568e-08
2.30977e-07
2.39775e-08
2.30591e-07
2.28956e-08
2.30125e-07
2.18955e-08
2.29584e-07
2.09656e-08
2.28975e-07
2.00969e-08
2.28303e-07
1.92825e-08
2.27577e-07
1.85169e-08
2.26802e-07
1.77956e-08
2.25984e-07
1.7115e-08
2.2513e-07
1.64721e-08
2.24245e-07
1.58644e-08
2.23335e-07
1.52897e-08
2.22403e-07
1.47462e-08
2.21455e-07
1.4232e-08
2.20494e-07
1.37456e-08
2.19523e-07
1.32857e-08
2.18545e-07
1.28506e-08
2.17563e-07
1.24394e-08
2.16579e-07
1.20505e-08
2.15595e-07
1.1683e-08
2.14613e-07
1.13358e-08
2.13634e-07
1.10074e-08
2.1266e-07
1.06979e-08
2.1169e-07
1.04036e-08
2.10727e-07
1.01291e-08
2.09771e-07
9.86315e-09
2.08822e-07
9.62275e-09
2.0788e-07
9.37842e-09
2.06949e-07
9.17445e-09
2.06021e-07
8.94578e-09
2.05109e-07
8.78245e-09
2.04194e-07
8.57759e-09
2.03302e-07
8.44617e-09
2.024e-07
8.33932e-09
2.01497e-07
8.18211e-09
2.00635e-07
8.46723e-09
8.47491e-09
1.99615e-07
2.30974e-07
6.87477e-08
2.3391e-07
7.9887e-08
2.35383e-07
5.77082e-08
2.36466e-07
4.92273e-08
2.37054e-07
4.4503e-08
2.3741e-07
3.96895e-08
2.37718e-07
3.59927e-08
2.37986e-07
3.33531e-08
2.38199e-07
3.12256e-08
2.38361e-07
2.93899e-08
2.38473e-07
2.77938e-08
2.38533e-07
2.63955e-08
2.38538e-07
2.51518e-08
2.38486e-07
2.40293e-08
2.38377e-07
2.30053e-08
2.38209e-07
2.20631e-08
2.37984e-07
2.11903e-08
2.37704e-07
2.03771e-08
2.37371e-07
1.96158e-08
2.36987e-07
1.89005e-08
2.36557e-07
1.82263e-08
2.36082e-07
1.75894e-08
2.35568e-07
1.69866e-08
2.35017e-07
1.64155e-08
2.34432e-07
1.58738e-08
2.33819e-07
1.53598e-08
2.33179e-07
1.48719e-08
2.32516e-07
1.44086e-08
2.31833e-07
1.39689e-08
2.31132e-07
1.35513e-08
2.30416e-07
1.31551e-08
2.29688e-07
1.27789e-08
2.28949e-07
1.24221e-08
2.28201e-07
1.20837e-08
2.27446e-07
1.17623e-08
2.26685e-07
1.14585e-08
2.25921e-07
1.11684e-08
2.25153e-07
1.08969e-08
2.24383e-07
1.06332e-08
2.23612e-07
1.03932e-08
2.2284e-07
1.01504e-08
2.22071e-07
9.94353e-09
2.21299e-07
9.71796e-09
2.20535e-07
9.54629e-09
2.19763e-07
9.34935e-09
2.19005e-07
9.20428e-09
2.18238e-07
9.10609e-09
2.17461e-07
8.95965e-09
2.16726e-07
9.20204e-09
9.3155e-09
2.15885e-07
2.37601e-07
6.3272e-08
2.40575e-07
7.69121e-08
2.41991e-07
5.62925e-08
2.43081e-07
4.81372e-08
2.43706e-07
4.3878e-08
2.44075e-07
3.93211e-08
2.44388e-07
3.56789e-08
2.44668e-07
3.3073e-08
2.44905e-07
3.09893e-08
2.45103e-07
2.91915e-08
2.4527e-07
2.76273e-08
2.45405e-07
2.62601e-08
2.45508e-07
2.50486e-08
2.45578e-07
2.39602e-08
2.45611e-07
2.29716e-08
2.45608e-07
2.20662e-08
2.45567e-07
2.12311e-08
2.45488e-07
2.04562e-08
2.45371e-07
1.97332e-08
2.45215e-07
1.90558e-08
2.45023e-07
1.84188e-08
2.44794e-07
1.78179e-08
2.44531e-07
1.72498e-08
2.44235e-07
1.67116e-08
2.43908e-07
1.62012e-08
2.43551e-07
1.57164e-08
2.43167e-07
1.52558e-08
2.42758e-07
1.48179e-08
2.42325e-07
1.44016e-08
2.41871e-07
1.40055e-08
2.41397e-07
1.36289e-08
2.40905e-07
1.32707e-08
2.40397e-07
1.293e-08
2.39875e-07
1.26062e-08
2.39339e-07
1.22979e-08
2.38792e-07
1.20058e-08
2.38234e-07
1.17262e-08
2.37667e-07
1.14637e-08
2.37092e-07
1.12085e-08
2.3651e-07
1.09749e-08
2.35921e-07
1.07397e-08
2.35329e-07
1.05356e-08
2.34728e-07
1.03185e-08
2.3413e-07
1.01445e-08
2.33521e-07
9.95893e-09
2.32917e-07
9.80816e-09
2.32305e-07
9.71772e-09
2.31677e-07
9.58819e-09
2.3109e-07
9.78833e-09
9.96328e-09
2.30443e-07
2.44436e-07
5.80924e-08
2.47449e-07
7.38987e-08
2.48809e-07
5.49321e-08
2.49902e-07
4.70444e-08
2.50566e-07
4.32146e-08
2.5095e-07
3.89364e-08
2.51269e-07
3.53607e-08
2.51554e-07
3.27876e-08
2.51798e-07
3.07455e-08
2.52007e-07
2.89823e-08
2.5219e-07
2.74438e-08
2.52352e-07
2.60987e-08
2.52492e-07
2.49087e-08
2.5261e-07
2.38417e-08
2.52707e-07
2.28751e-08
2.52781e-07
2.19922e-08
2.52831e-07
2.11805e-08
2.52858e-07
2.04298e-08
2.52859e-07
1.97317e-08
2.52835e-07
1.90797e-08
2.52786e-07
1.84684e-08
2.5271e-07
1.78933e-08
2.52609e-07
1.73508e-08
2.52483e-07
1.68379e-08
2.52332e-07
1.63522e-08
2.52157e-07
1.58914e-08
2.51959e-07
1.5454e-08
2.51738e-07
1.50384e-08
2.51497e-07
1.46433e-08
2.51235e-07
1.42675e-08
2.50953e-07
1.39101e-08
2.50654e-07
1.35699e-08
2.50338e-07
1.32462e-08
2.50006e-07
1.29384e-08
2.49659e-07
1.2645e-08
2.49298e-07
1.23667e-08
2.48924e-07
1.21e-08
2.48538e-07
1.18493e-08
2.48141e-07
1.16056e-08
2.47735e-07
1.13813e-08
2.47318e-07
1.11568e-08
2.46895e-07
1.09588e-08
2.4646e-07
1.07532e-08
2.46023e-07
1.05811e-08
2.45574e-07
1.0408e-08
2.45125e-07
1.02576e-08
2.44669e-07
1.01732e-08
2.44195e-07
1.00628e-08
2.4376e-07
1.02227e-08
1.0423e-08
2.43301e-07
2.51488e-07
5.32111e-08
2.5453e-07
7.0857e-08
2.55846e-07
5.36162e-08
2.56936e-07
4.59542e-08
2.57637e-07
4.25136e-08
2.58041e-07
3.85324e-08
2.58365e-07
3.50368e-08
2.58655e-07
3.2497e-08
2.58904e-07
3.04968e-08
2.59117e-07
2.87689e-08
2.59306e-07
2.72553e-08
2.59475e-07
2.59298e-08
2.59626e-07
2.47572e-08
2.59762e-07
2.37064e-08
2.59881e-07
2.27552e-08
2.59986e-07
2.18876e-08
2.60075e-07
2.10912e-08
2.60149e-07
2.0356e-08
2.60207e-07
1.96739e-08
2.60248e-07
1.90383e-08
2.60273e-07
1.84438e-08
2.6028e-07
1.78858e-08
2.6027e-07
1.73607e-08
2.60243e-07
1.68653e-08
2.60198e-07
1.63971e-08
2.60136e-07
1.59538e-08
2.60056e-07
1.55337e-08
2.5996e-07
1.51351e-08
2.59846e-07
1.47567e-08
2.59717e-07
1.43972e-08
2.59571e-07
1.40555e-08
2.5941e-07
1.37307e-08
2.59235e-07
1.34218e-08
2.59045e-07
1.31282e-08
2.58842e-07
1.28483e-08
2.58625e-07
1.25831e-08
2.58397e-07
1.23288e-08
2.58156e-07
1.20897e-08
2.57904e-07
1.18575e-08
2.57642e-07
1.1643e-08
2.57369e-07
1.14298e-08
2.57089e-07
1.1239e-08
2.56797e-07
1.10452e-08
2.56501e-07
1.0877e-08
2.56193e-07
1.07158e-08
2.55882e-07
1.05692e-08
2.55567e-07
1.04885e-08
2.55234e-07
1.03958e-08
2.54938e-07
1.0518e-08
1.07154e-08
2.54646e-07
2.58766e-07
4.86284e-08
2.61825e-07
6.77975e-08
2.63108e-07
5.23338e-08
2.6419e-07
4.48718e-08
2.64926e-07
4.17773e-08
2.65352e-07
3.81072e-08
2.65682e-07
3.47063e-08
2.65978e-07
3.22008e-08
2.66232e-07
3.02428e-08
2.66449e-07
2.85519e-08
2.6664e-07
2.70641e-08
2.66812e-07
2.57581e-08
2.66967e-07
2.46022e-08
2.67107e-07
2.35661e-08
2.67234e-07
2.26282e-08
2.67349e-07
2.17729e-08
2.67452e-07
2.09881e-08
2.67544e-07
2.02643e-08
2.67624e-07
1.95935e-08
2.67694e-07
1.89692e-08
2.67751e-07
1.8386e-08
2.67798e-07
1.78396e-08
2.67832e-07
1.73261e-08
2.67855e-07
1.68425e-08
2.67866e-07
1.63862e-08
2.67865e-07
1.5955e-08
2.67851e-07
1.55469e-08
2.67826e-07
1.51603e-08
2.67789e-07
1.47939e-08
2.6774e-07
1.44463e-08
2.67679e-07
1.41164e-08
2.67606e-07
1.38033e-08
2.67522e-07
1.35057e-08
2.67427e-07
1.32233e-08
2.67321e-07
1.29543e-08
2.67205e-07
1.26996e-08
2.67078e-07
1.24557e-08
2.66941e-07
1.22263e-08
2.66795e-07
1.20041e-08
2.6664e-07
1.17981e-08
2.66474e-07
1.15949e-08
2.66303e-07
1.14107e-08
2.66121e-07
1.12273e-08
2.65934e-07
1.10635e-08
2.65738e-07
1.09119e-08
2.65537e-07
1.07704e-08
2.65335e-07
1.06907e-08
2.65119e-07
1.06116e-08
2.64939e-07
1.06984e-08
1.08721e-08
2.64782e-07
2.66278e-07
4.43429e-08
2.69344e-07
6.4731e-08
2.70604e-07
5.1074e-08
2.71674e-07
4.38014e-08
2.72443e-07
4.10088e-08
2.72891e-07
3.76593e-08
2.73229e-07
3.43685e-08
2.73531e-07
3.18991e-08
2.7379e-07
2.9983e-08
2.74011e-07
2.83309e-08
2.74205e-07
2.68704e-08
2.74379e-07
2.55846e-08
2.74535e-07
2.44455e-08
2.74677e-07
2.34241e-08
2.74806e-07
2.24991e-08
2.74924e-07
2.16553e-08
2.75031e-07
2.08811e-08
2.75128e-07
2.0167e-08
2.75216e-07
1.95055e-08
2.75295e-07
1.88902e-08
2.75365e-07
1.83158e-08
2.75427e-07
1.7778e-08
2.7548e-07
1.72731e-08
2.75525e-07
1.6798e-08
2.75561e-07
1.63502e-08
2.75588e-07
1.59274e-08
2.75607e-07
1.55278e-08
2.75618e-07
1.51496e-08
2.7562e-07
1.47917e-08
2.75614e-07
1.44525e-08
2.756e-07
1.4131e-08
2.75577e-07
1.38262e-08
2.75546e-07
1.35368e-08
2.75506e-07
1.32626e-08
2.75459e-07
1.30016e-08
2.75404e-07
1.27548e-08
2.75341e-07
1.25188e-08
2.7527e-07
1.22967e-08
2.75192e-07
1.20824e-08
2.75107e-07
1.18829e-08
2.75014e-07
1.16877e-08
2.74916e-07
1.15086e-08
2.7481e-07
1.13335e-08
2.747e-07
1.11734e-08
2.74584e-07
1.10286e-08
2.74462e-07
1.08919e-08
2.74342e-07
1.08103e-08
2.74215e-07
1.07395e-08
2.7412e-07
1.07925e-08
1.09284e-08
2.74064e-07
2.74032e-07
4.03516e-08
2.77095e-07
6.16682e-08
2.78343e-07
4.98268e-08
2.79397e-07
4.27466e-08
2.80194e-07
4.02119e-08
2.80667e-07
3.7187e-08
2.81013e-07
3.40223e-08
2.8132e-07
3.15918e-08
2.81586e-07
2.97174e-08
2.81811e-07
2.81054e-08
2.82008e-07
2.66738e-08
2.82183e-07
2.54091e-08
2.82341e-07
2.42874e-08
2.82484e-07
2.32811e-08
2.82614e-07
2.23692e-08
2.82733e-07
2.15369e-08
2.82841e-07
2.0773e-08
2.82939e-07
2.00685e-08
2.83029e-07
1.94157e-08
2.83111e-07
1.88086e-08
2.83184e-07
1.8242e-08
2.83251e-07
1.77116e-08
2.8331e-07
1.72139e-08
2.83362e-07
1.67458e-08
2.83408e-07
1.63047e-08
2.83447e-07
1.58885e-08
2.83479e-07
1.54953e-08
2.83505e-07
1.51236e-08
2.83525e-07
1.47718e-08
2.83539e-07
1.44389e-08
2.83546e-07
1.41235e-08
2.83548e-07
1.38248e-08
2.83543e-07
1.35414e-08
2.83532e-07
1.3273e-08
2.83516e-07
1.3018e-08
2.83494e-07
1.27768e-08
2.83466e-07
1.25466e-08
2.83433e-07
1.23298e-08
2.83394e-07
1.21213e-08
2.83351e-07
1.19264e-08
2.83301e-07
1.17372e-08
2.83248e-07
1.15619e-08
2.83189e-07
1.13926e-08
2.83127e-07
1.12354e-08
2.83061e-07
1.10947e-08
2.82991e-07
1.09616e-08
2.82925e-07
1.08758e-08
2.82858e-07
1.08075e-08
2.82822e-07
1.08282e-08
1.09172e-08
2.82833e-07
2.82039e-07
3.66497e-08
2.85087e-07
5.86201e-08
2.86332e-07
4.85826e-08
2.87368e-07
4.17103e-08
2.88189e-07
3.93909e-08
2.88687e-07
3.66891e-08
2.89042e-07
3.36667e-08
2.89355e-07
3.1279e-08
2.89627e-07
2.94458e-08
2.89857e-07
2.78752e-08
2.90057e-07
2.64742e-08
2.90234e-07
2.52315e-08
2.90394e-07
2.41277e-08
2.90538e-07
2.31369e-08
2.90669e-07
2.22385e-08
2.90788e-07
2.14181e-08
2.90896e-07
2.06648e-08
2.90994e-07
1.99698e-08
2.91084e-07
1.93258e-08
2.91166e-07
1.87268e-08
2.9124e-07
1.81678e-08
2.91307e-07
1.76445e-08
2.91368e-07
1.71535e-08
2.91422e-07
1.66917e-08
2.9147e-07
1.62567e-08
2.91512e-07
1.58463e-08
2.91549e-07
1.54587e-08
2.9158e-07
1.50923e-08
2.91606e-07
1.47458e-08
2.91627e-07
1.44179e-08
2.91643e-07
1.41074e-08
2.91655e-07
1.38134e-08
2.91661e-07
1.35347e-08
2.91663e-07
1.32709e-08
2.91661e-07
1.30203e-08
2.91654e-07
1.27834e-08
2.91643e-07
1.25576e-08
2.91629e-07
1.23447e-08
2.91609e-07
1.21405e-08
2.91587e-07
1.19489e-08
2.9156e-07
1.17641e-08
2.91531e-07
1.15913e-08
2.91497e-07
1.14261e-08
2.91462e-07
1.12709e-08
2.91424e-07
1.11321e-08
2.91385e-07
1.10011e-08
2.91351e-07
1.09093e-08
2.9132e-07
1.08382e-08
2.91321e-07
1.08278e-08
1.08657e-08
2.91372e-07
2.90308e-07
3.32309e-08
2.9333e-07
5.5598e-08
2.9458e-07
4.73325e-08
2.95596e-07
4.06945e-08
2.96436e-07
3.85509e-08
2.9696e-07
3.61646e-08
2.97326e-07
3.33005e-08
2.97645e-07
3.09609e-08
2.97922e-07
2.91681e-08
2.98158e-07
2.76399e-08
2.98361e-07
2.62711e-08
2.98541e-07
2.50514e-08
2.98702e-07
2.39663e-08
2.98848e-07
2.29915e-08
2.98979e-07
2.21071e-08
2.99098e-07
2.12989e-08
2.99207e-07
2.05564e-08
2.99305e-07
1.98712e-08
2.99395e-07
1.92362e-08
2.99476e-07
1.86454e-08
2.9955e-07
1.8094e-08
2.99616e-07
1.75779e-08
2.99676e-07
1.70935e-08
2.9973e-07
1.6638e-08
2.99778e-07
1.62088e-08
2.9982e-07
1.5804e-08
2.99857e-07
1.54217e-08
2.99889e-07
1.50603e-08
2.99916e-07
1.47185e-08
2.99939e-07
1.43952e-08
2.99957e-07
1.40891e-08
2.99972e-07
1.37993e-08
2.99982e-07
1.35246e-08
2.99988e-07
1.32647e-08
2.9999e-07
1.30178e-08
2.99989e-07
1.27844e-08
2.99985e-07
1.25621e-08
2.99977e-07
1.23523e-08
2.99966e-07
1.21515e-08
2.99953e-07
1.19625e-08
2.99936e-07
1.1781e-08
2.99917e-07
1.16101e-08
2.99896e-07
1.14476e-08
2.99873e-07
1.12937e-08
2.9985e-07
1.11552e-08
2.99826e-07
1.10251e-08
2.99809e-07
1.09261e-08
2.99799e-07
1.08481e-08
2.99819e-07
1.08076e-08
1.07933e-08
2.99892e-07
2.98847e-07
3.00869e-08
3.01832e-07
5.26131e-08
3.03095e-07
4.60686e-08
3.04089e-07
3.97006e-08
3.04943e-07
3.76972e-08
3.05495e-07
3.56128e-08
3.05873e-07
3.29221e-08
3.06197e-07
3.06373e-08
3.06481e-07
2.88844e-08
3.06721e-07
2.73991e-08
3.06928e-07
2.60642e-08
3.07111e-07
2.48688e-08
3.07274e-07
2.38029e-08
3.07421e-07
2.28447e-08
3.07553e-07
2.19747e-08
3.07673e-07
2.11791e-08
3.07782e-07
2.04479e-08
3.0788e-07
1.97727e-08
3.0797e-07
1.91469e-08
3.0805e-07
1.85645e-08
3.08124e-07
1.80209e-08
3.08189e-07
1.7512e-08
3.08248e-07
1.70344e-08
3.08301e-07
1.65852e-08
3.08348e-07
1.6162e-08
3.08389e-07
1.57627e-08
3.08425e-07
1.53856e-08
3.08456e-07
1.50292e-08
3.08483e-07
1.46921e-08
3.08505e-07
1.43732e-08
3.08523e-07
1.40713e-08
3.08537e-07
1.37855e-08
3.08547e-07
1.35146e-08
3.08553e-07
1.32581e-08
3.08556e-07
1.30147e-08
3.08556e-07
1.27845e-08
3.08553e-07
1.25653e-08
3.08547e-07
1.23583e-08
3.08538e-07
1.21605e-08
3.08527e-07
1.19736e-08
3.08513e-07
1.17948e-08
3.08498e-07
1.16254e-08
3.0848e-07
1.14648e-08
3.08462e-07
1.13119e-08
3.08445e-07
1.11728e-08
3.08427e-07
1.10422e-08
3.08418e-07
1.09356e-08
3.08419e-07
1.08473e-08
3.08448e-07
1.07781e-08
1.07129e-08
3.08529e-07
3.07666e-07
2.72079e-08
3.10603e-07
4.96765e-08
3.11887e-07
4.47842e-08
3.12859e-07
3.8729e-08
3.13721e-07
3.68349e-08
3.143e-07
3.50338e-08
3.14692e-07
3.25301e-08
3.15021e-07
3.03081e-08
3.15311e-07
2.85947e-08
3.15557e-07
2.71527e-08
3.15768e-07
2.58533e-08
3.15954e-07
2.46834e-08
3.16119e-07
2.36374e-08
3.16268e-07
2.26963e-08
3.16401e-07
2.18412e-08
3.16522e-07
2.10586e-08
3.16631e-07
2.03389e-08
3.16729e-07
1.96741e-08
3.16818e-07
1.90577e-08
3.16899e-07
1.84841e-08
3.16971e-07
1.79485e-08
3.17036e-07
1.7447e-08
3.17094e-07
1.69763e-08
3.17146e-07
1.65336e-08
3.17192e-07
1.61164e-08
3.17232e-07
1.57227e-08
3.17266e-07
1.53509e-08
3.17296e-07
1.49995e-08
3.17321e-07
1.46671e-08
3.17342e-07
1.43526e-08
3.17358e-07
1.40549e-08
3.1737e-07
1.3773e-08
3.17379e-07
1.35059e-08
3.17384e-07
1.32529e-08
3.17386e-07
1.30129e-08
3.17385e-07
1.27857e-08
3.17381e-07
1.25696e-08
3.17374e-07
1.23651e-08
3.17364e-07
1.217e-08
3.17353e-07
1.19853e-08
3.17339e-07
1.18088e-08
3.17323e-07
1.16409e-08
3.17306e-07
1.14817e-08
3.17289e-07
1.13296e-08
3.17272e-07
1.11894e-08
3.17257e-07
1.10573e-08
3.1725e-07
1.09427e-08
3.17255e-07
1.08421e-08
3.17288e-07
1.07455e-08
1.06323e-08
3.17369e-07
3.16776e-07
2.45828e-08
3.19653e-07
4.67994e-08
3.20964e-07
4.34736e-08
3.21914e-07
3.77793e-08
3.2278e-07
3.59691e-08
3.23385e-07
3.44286e-08
3.23792e-07
3.21229e-08
3.24127e-07
2.99729e-08
3.24423e-07
2.82992e-08
3.24675e-07
2.69003e-08
3.2489e-07
2.5638e-08
3.25079e-07
2.44949e-08
3.25247e-07
2.34696e-08
3.25397e-07
2.25461e-08
3.25532e-07
2.17064e-08
3.25653e-07
2.09373e-08
3.25762e-07
2.02295e-08
3.25861e-07
1.95754e-08
3.2595e-07
1.89687e-08
3.2603e-07
1.84039e-08
3.26102e-07
1.78765e-08
3.26167e-07
1.73827e-08
3.26224e-07
1.69191e-08
3.26274e-07
1.6483e-08
3.26319e-07
1.60719e-08
3.26358e-07
1.56841e-08
3.26391e-07
1.53177e-08
3.26419e-07
1.49713e-08
3.26442e-07
1.46437e-08
3.26461e-07
1.43337e-08
3.26476e-07
1.40402e-08
3.26487e-07
1.37624e-08
3.26494e-07
1.3499e-08
3.26497e-07
1.32496e-08
3.26497e-07
1.30129e-08
3.26494e-07
1.27887e-08
3.26488e-07
1.25756e-08
3.26479e-07
1.23738e-08
3.26468e-07
1.21814e-08
3.26454e-07
1.19987e-08
3.26439e-07
1.18244e-08
3.26422e-07
1.16581e-08
3.26403e-07
1.15e-08
3.26385e-07
1.13484e-08
3.26367e-07
1.12069e-08
3.26352e-07
1.10726e-08
3.26344e-07
1.09499e-08
3.26351e-07
1.08357e-08
3.26383e-07
1.07132e-08
1.05561e-08
3.26459e-07
3.26187e-07
2.21988e-08
3.28993e-07
4.39926e-08
3.30334e-07
4.21327e-08
3.31263e-07
3.68504e-08
3.32128e-07
3.51045e-08
3.32758e-07
3.37985e-08
3.33182e-07
3.16991e-08
3.33523e-07
2.96312e-08
3.33825e-07
2.79978e-08
3.34083e-07
2.66418e-08
3.34303e-07
2.54179e-08
3.34495e-07
2.43031e-08
3.34665e-07
2.32993e-08
3.34818e-07
2.23939e-08
3.34954e-07
2.15701e-08
3.35076e-07
2.08149e-08
3.35186e-07
2.01194e-08
3.35285e-07
1.94763e-08
3.35375e-07
1.88796e-08
3.35454e-07
1.8324e-08
3.35526e-07
1.78051e-08
3.3559e-07
1.7319e-08
3.35646e-07
1.68627e-08
3.35696e-07
1.64333e-08
3.35739e-07
1.60286e-08
3.35776e-07
1.56467e-08
3.35808e-07
1.52858e-08
3.35835e-07
1.49446e-08
3.35857e-07
1.46219e-08
3.35874e-07
1.43165e-08
3.35887e-07