/*--------------------------------*- C++ -*----------------------------------*\
  =========                 |
  \\      /  F ield         | OpenFOAM: The Open Source CFD Toolbox
   \\    /   O peration     | Website:  https://openfoam.org
    \\  /    A nd           | Version:  7
     \\/     M anipulation  |
\*---------------------------------------------------------------------------*/
FoamFile
{
    version     2.0;
    format      ascii;
    class       volVectorField;
    location    "0.22";
    object      U;
}
// * * * * * * * * * * * * * * * * * * * * * * * * * * * * * * * * * * * * * //

dimensions      [0 1 -1 0 0 0 0];

internalField   nonuniform List<vector> 
70000
(
(0.553413 0.0169782 0)
(0.251411 0.00340057 0)
(0.16591 0.000319148 0)
(0.132414 4.9175e-05 0)
(0.117295 4.42252e-05 0)
(0.107319 5.23958e-05 0)
(0.0993291 4.46013e-05 0)
(0.0928642 3.55337e-05 0)
(0.0875972 2.95067e-05 0)
(0.0832033 2.53796e-05 0)
(0.0794548 2.22281e-05 0)
(0.0762042 1.97041e-05 0)
(0.0733506 1.76475e-05 0)
(0.0708201 1.59492e-05 0)
(0.0685567 1.45287e-05 0)
(0.066517 1.33262e-05 0)
(0.064667 1.22977e-05 0)
(0.0629794 1.14098e-05 0)
(0.061432 1.0637e-05 0)
(0.0600068 9.95981e-06 0)
(0.0586885 9.36249e-06 0)
(0.0574646 8.83279e-06 0)
(0.0563243 8.36064e-06 0)
(0.0552586 7.93809e-06 0)
(0.0542594 7.5582e-06 0)
(0.0533201 7.21595e-06 0)
(0.0524347 6.90577e-06 0)
(0.0515979 6.62521e-06 0)
(0.0508053 6.36825e-06 0)
(0.0500527 6.13631e-06 0)
(0.0493368 5.91936e-06 0)
(0.048654 5.72748e-06 0)
(0.0480021 5.5384e-06 0)
(0.0473777 5.38213e-06 0)
(0.0467798 5.20858e-06 0)
(0.0462048 5.08706e-06 0)
(0.0456527 4.91852e-06 0)
(0.0451202 4.82828e-06 0)
(0.0446067 4.67314e-06 0)
(0.0441128 4.57627e-06 0)
(0.0436284 4.53386e-06 0)
(0.0431759 4.23229e-06 0)
(0.0427009 4.75092e-06 0)
(0.0423107 3.4386e-06 0)
(0.0417895 6.20916e-06 0)
(0.0415395 9.04438e-07 0)
(0.040799 1.20204e-05 0)
(0.0409454 -7.98786e-06 0)
(0.0395479 3.84585e-05 0)
(0.0379984 -0.00156748 0)
(0.884863 0.0434936 0)
(0.650139 0.0201499 0)
(0.493948 0.00660617 0)
(0.403495 0.00275666 0)
(0.354746 0.0015502 0)
(0.323385 0.00113428 0)
(0.299432 0.000912194 0)
(0.280163 0.00074793 0)
(0.264382 0.00062555 0)
(0.251189 0.000535362 0)
(0.239931 0.000466936 0)
(0.230168 0.000413108 0)
(0.221596 0.000369629 0)
(0.213992 0.000333853 0)
(0.207189 0.00030398 0)
(0.201057 0.000278722 0)
(0.195494 0.000257135 0)
(0.190418 0.000238508 0)
(0.185763 0.000222305 0)
(0.181475 0.000208109 0)
(0.177509 0.000195594 0)
(0.173827 0.000184501 0)
(0.170396 0.000174622 0)
(0.167189 0.000165789 0)
(0.164183 0.000157863 0)
(0.161357 0.00015073 0)
(0.158693 0.000144293 0)
(0.156175 0.000138472 0)
(0.153791 0.000133194 0)
(0.151526 0.000128407 0)
(0.149372 0.000124046 0)
(0.147318 0.000120089 0)
(0.145356 0.000116454 0)
(0.143476 0.000113181 0)
(0.141676 0.000110108 0)
(0.139944 0.000107418 0)
(0.138281 0.000104747 0)
(0.136675 0.000102601 0)
(0.135126 0.000100166 0)
(0.133634 9.8587e-05 0)
(0.132173 9.62584e-05 0)
(0.1308 9.52961e-05 0)
(0.129373 9.32619e-05 0)
(0.128175 9.266e-05 0)
(0.126641 9.25694e-05 0)
(0.125821 9.02034e-05 0)
(0.123751 0.000101119 0)
(0.123934 7.00553e-05 0)
(0.120324 0.000294758 0)
(0.119832 -0.00240303 0)
(0.991209 0.0499562 0)
(0.890918 0.0305647 0)
(0.762464 0.0146141 0)
(0.656468 0.00797559 0)
(0.58531 0.00488552 0)
(0.535873 0.00348159 0)
(0.497899 0.0027465 0)
(0.467174 0.00225327 0)
(0.441755 0.00189054 0)
(0.420331 0.00161986 0)
(0.401955 0.0014133 0)
(0.385961 0.00125079 0)
(0.371876 0.00111959 0)
(0.35935 0.00101163 0)
(0.34812 0.000921432 0)
(0.33798 0.000845129 0)
(0.328767 0.000779874 0)
(0.320351 0.000723539 0)
(0.312625 0.000674504 0)
(0.305501 0.000631519 0)
(0.298907 0.000593604 0)
(0.29278 0.000559982 0)
(0.287069 0.000530027 0)
(0.281728 0.000503232 0)
(0.276719 0.00047918 0)
(0.272009 0.000457526 0)
(0.267568 0.000437982 0)
(0.263371 0.000420303 0)
(0.259394 0.000404281 0)
(0.255618 0.000389742 0)
(0.252026 0.00037652 0)
(0.2486 0.000364507 0)
(0.245327 0.000353528 0)
(0.242193 0.000343589 0)
(0.23919 0.000334386 0)
(0.236302 0.00032621 0)
(0.233527 0.000318329 0)
(0.230848 0.000311788 0)
(0.228263 0.000304684 0)
(0.225772 0.000299966 0)
(0.223335 0.000292872 0)
(0.221035 0.000290772 0)
(0.218667 0.000282608 0)
(0.216634 0.000285023 0)
(0.214134 0.000274843 0)
(0.212649 0.000284616 0)
(0.209444 0.000280569 0)
(0.209318 0.000254473 0)
(0.204103 0.00054665 0)
(0.205015 -0.00208162 0)
(1.01554 0.0489545 0)
(1.00649 0.0357271 0)
(0.935868 0.0208249 0)
(0.851959 0.0135066 0)
(0.782129 0.00920834 0)
(0.726907 0.00679601 0)
(0.681725 0.00540206 0)
(0.643853 0.00446296 0)
(0.611711 0.00377031 0)
(0.584106 0.00324632 0)
(0.560099 0.00284182 0)
(0.538987 0.00252145 0)
(0.520243 0.00226169 0)
(0.503464 0.00204716 0)
(0.48834 0.00186738 0)
(0.474621 0.00171488 0)
(0.462109 0.00158414 0)
(0.450642 0.00147102 0)
(0.440085 0.00137238 0)
(0.430328 0.00128576 0)
(0.421277 0.00120924 0)
(0.412853 0.00114128 0)
(0.404987 0.00108065 0)
(0.397622 0.00102635 0)
(0.390707 0.000977554 0)
(0.384198 0.000933572 0)
(0.378055 0.000893836 0)
(0.372245 0.000857856 0)
(0.366737 0.000825226 0)
(0.361504 0.000795585 0)
(0.356524 0.000768627 0)
(0.351773 0.000744101 0)
(0.347234 0.000721723 0)
(0.342886 0.000701402 0)
(0.338718 0.000682698 0)
(0.33471 0.000665951 0)
(0.330858 0.000650046 0)
(0.327141 0.000636607 0)
(0.323553 0.00062241 0)
(0.320092 0.000612711 0)
(0.316713 0.000598458 0)
(0.313507 0.000594479 0)
(0.310242 0.000576902 0)
(0.30737 0.000584089 0)
(0.303993 0.000557419 0)
(0.30175 0.000586653 0)
(0.29766 0.000554622 0)
(0.296847 0.000555233 0)
(0.290774 0.000829688 0)
(0.291472 -0.00134873 0)
(1.01435 0.0460989 0)
(1.04798 0.0373447 0)
(1.02456 0.0241941 0)
(0.974644 0.0175687 0)
(0.923402 0.0131238 0)
(0.876607 0.0102239 0)
(0.834356 0.00836742 0)
(0.7965 0.00704809 0)
(0.762815 0.00604051 0)
(0.732859 0.005256 0)
(0.706119 0.00463692 0)
(0.682126 0.00413878 0)
(0.660484 0.00373014 0)
(0.640863 0.00338954 0)
(0.622989 0.00310194 0)
(0.606633 0.00285642 0)
(0.591605 0.00264479 0)
(0.577744 0.00246084 0)
(0.564914 0.00229976 0)
(0.553 0.00215781 0)
(0.541902 0.00203199 0)
(0.531535 0.00191993 0)
(0.521825 0.00181969 0)
(0.512708 0.0017297 0)
(0.504127 0.00164864 0)
(0.496031 0.00157543 0)
(0.488377 0.00150916 0)
(0.481126 0.00144904 0)
(0.474242 0.00139443 0)
(0.467694 0.00134474 0)
(0.461454 0.00129949 0)
(0.455496 0.00125825 0)
(0.449799 0.00122061 0)
(0.444339 0.00118635 0)
(0.439102 0.00115488 0)
(0.434064 0.00112656 0)
(0.429219 0.00109988 0)
(0.424542 0.00107704 0)
(0.420028 0.00105342 0)
(0.415669 0.00103673 0)
(0.411422 0.00101329 0)
(0.40737 0.00100599 0)
(0.40329 0.000977055 0)
(0.39961 0.000988216 0)
(0.395478 0.000943382 0)
(0.392428 0.000990508 0)
(0.387711 0.000932343 0)
(0.385921 0.000954485 0)
(0.37966 0.00121388 0)
(0.378899 -0.000553868 0)
(1.00941 0.0430486 0)
(1.05564 0.0371005 0)
(1.05866 0.0253367 0)
(1.03628 0.0197759 0)
(1.00707 0.0158156 0)
(0.976005 0.0129569 0)
(0.944404 0.0109908 0)
(0.913442 0.00951251 0)
(0.883973 0.008326 0)
(0.856381 0.00736285 0)
(0.830743 0.0065774 0)
(0.806997 0.00592912 0)
(0.785025 0.00538659 0)
(0.764686 0.00492704 0)
(0.745835 0.00453384 0)
(0.728335 0.00419442 0)
(0.712056 0.0038991 0)
(0.696884 0.00364032 0)
(0.682711 0.00341213 0)
(0.669446 0.00320978 0)
(0.657004 0.00302946 0)
(0.64531 0.00286806 0)
(0.634298 0.00272306 0)
(0.623909 0.00259236 0)
(0.614089 0.00247421 0)
(0.604789 0.00236713 0)
(0.595968 0.00226991 0)
(0.587585 0.00218146 0)
(0.579605 0.0021009 0)
(0.571997 0.0020274 0)
(0.564732 0.00196034 0)
(0.557781 0.00189906 0)
(0.551125 0.00184305 0)
(0.544735 0.00179192 0)
(0.538599 0.00174497 0)
(0.53269 0.00170252 0)
(0.527 0.00166272 0)
(0.521504 0.00162825 0)
(0.516197 0.00159325 0)
(0.511064 0.00156758 0)
(0.506072 0.00153347 0)
(0.50128 0.00152083 0)
(0.496509 0.00148003 0)
(0.492102 0.00149204 0)
(0.48736 0.00143169 0)
(0.483529 0.00148804 0)
(0.478401 0.00141667 0)
(0.475553 0.00143935 0)
(0.469426 0.00171275 0)
(0.467045 0.000291857 0)
(1.00635 0.0401807 0)
(1.05241 0.0361542 0)
(1.06605 0.025261 0)
(1.05951 0.0205826 0)
(1.04685 0.0172456 0)
(1.03077 0.0146795 0)
(1.01181 0.0128555 0)
(0.991051 0.0114363 0)
(0.969546 0.0102452 0)
(0.948024 0.00923591 0)
(0.926929 0.008382 0)
(0.906522 0.00765514 0)
(0.886953 0.00703081 0)
(0.868292 0.00649023 0)
(0.85056 0.00601899 0)
(0.833747 0.00560567 0)
(0.817821 0.00524109 0)
(0.802744 0.00491783 0)
(0.788468 0.0046298 0)
(0.774946 0.00437205 0)
(0.76213 0.00414049 0)
(0.749973 0.00393174 0)
(0.738431 0.00374296 0)
(0.727461 0.0035718 0)
(0.717023 0.00341625 0)
(0.707081 0.0032746 0)
(0.6976 0.0031454 0)
(0.688547 0.00302737 0)
(0.679893 0.00291946 0)
(0.671609 0.00282066 0)
(0.663671 0.00273021 0)
(0.656053 0.0026473 0)
(0.648736 0.00257132 0)
(0.641696 0.00250174 0)
(0.634918 0.00243776 0)
(0.628378 0.00237965 0)
(0.622069 0.00232531 0)
(0.615965 0.00227773 0)
(0.610063 0.00223015 0)
(0.604342 0.00219396 0)
(0.598784 0.00214849 0)
(0.59342 0.00212845 0)
(0.588122 0.00207649 0)
(0.583134 0.00208517 0)
(0.577944 0.00201417 0)
(0.573455 0.00206898 0)
(0.568071 0.00199865 0)
(0.564305 0.00200537 0)
(0.558354 0.00230391 0)
(0.554749 0.00120497 0)
(1.00506 0.0375037 0)
(1.04762 0.0350563 0)
(1.06395 0.0247143 0)
(1.06417 0.0206152 0)
(1.06066 0.0177862 0)
(1.05473 0.0155239 0)
(1.04593 0.0139168 0)
(1.03469 0.0126644 0)
(1.0217 0.0115859 0)
(1.00758 0.0106415 0)
(0.992782 0.00981722 0)
(0.977654 0.00909496 0)
(0.962465 0.00845782 0)
(0.947409 0.00789269 0)
(0.932622 0.00738931 0)
(0.918199 0.0069393 0)
(0.9042 0.00653559 0)
(0.890661 0.0061722 0)
(0.877601 0.00584408 0)
(0.865025 0.00554694 0)
(0.852932 0.00527712 0)
(0.841311 0.00503153 0)
(0.830149 0.00480752 0)
(0.819429 0.0046028 0)
(0.809135 0.00441542 0)
(0.799246 0.00424366 0)
(0.789743 0.00408607 0)
(0.780607 0.00394131 0)
(0.771819 0.00380828 0)
(0.763358 0.00368592 0)
(0.755208 0.00357341 0)
(0.74735 0.00346986 0)
(0.73977 0.00337462 0)
(0.732447 0.00328707 0)
(0.725372 0.00320636 0)
(0.718523 0.00313272 0)
(0.711897 0.0030639 0)
(0.705467 0.00300306 0)
(0.699237 0.00294293 0)
(0.693181 0.0028957 0)
(0.687295 0.0028392 0)
(0.681583 0.00281043 0)
(0.675972 0.00274889 0)
(0.670611 0.00275068 0)
(0.665159 0.00267402 0)
(0.660218 0.00271889 0)
(0.654717 0.00265895 0)
(0.650301 0.00264499 0)
(0.644511 0.00296182 0)
(0.640135 0.00216788 0)
(1.00451 0.0349679 0)
(1.04359 0.0339768 0)
(1.05992 0.0240643 0)
(1.06221 0.0203271 0)
(1.06249 0.017853 0)
(1.0618 0.0158061 0)
(1.0592 0.0143738 0)
(1.05461 0.0132885 0)
(1.04834 0.0123538 0)
(1.0407 0.0115232 0)
(1.03198 0.0107851 0)
(1.02241 0.0101257 0)
(1.01223 0.00953186 0)
(1.00164 0.00899397 0)
(0.990801 0.00850511 0)
(0.979841 0.00805971 0)
(0.968866 0.00765305 0)
(0.957959 0.00728103 0)
(0.947181 0.00694008 0)
(0.936579 0.00662709 0)
(0.926188 0.00633933 0)
(0.916031 0.00607441 0)
(0.906126 0.00583025 0)
(0.896481 0.00560498 0)
(0.887102 0.00539698 0)
(0.877991 0.0052048 0)
(0.869145 0.00502716 0)
(0.860559 0.00486288 0)
(0.85223 0.00471098 0)
(0.844148 0.00457045 0)
(0.836307 0.00444054 0)
(0.828697 0.00432038 0)
(0.821311 0.00420937 0)
(0.814136 0.00410687 0)
(0.807169 0.00401206 0)
(0.800392 0.00392513 0)
(0.793807 0.00384383 0)
(0.787393 0.00377136 0)
(0.781154 0.00370027 0)
(0.775068 0.003643 0)
(0.769138 0.00357707 0)
(0.763358 0.0035396 0)
(0.757688 0.00347082 0)
(0.752212 0.00346387 0)
(0.746718 0.00338587 0)
(0.741585 0.0034164 0)
(0.736126 0.00337115 0)
(0.731371 0.00333998 0)
(0.725791 0.00366315 0)
(0.72104 0.00314368 0)
(1.00412 0.0325375 0)
(1.04026 0.0329239 0)
(1.05616 0.0234306 0)
(1.05885 0.0199439 0)
(1.06022 0.0177257 0)
(1.06158 0.015811 0)
(1.06192 0.014481 0)
(1.061 0.0135119 0)
(1.0589 0.0126942 0)
(1.05573 0.0119707 0)
(1.05157 0.0113273 0)
(1.04655 0.0107495 0)
(1.04078 0.0102244 0)
(1.03438 0.00974289 0)
(1.02748 0.00929916 0)
(1.02018 0.00888893 0)
(1.01258 0.00850884 0)
(1.00476 0.00815609 0)
(0.996807 0.00782827 0)
(0.988769 0.00752332 0)
(0.9807 0.00723942 0)
(0.972642 0.00697497 0)
(0.96463 0.00672854 0)
(0.956692 0.00649884 0)
(0.948849 0.00628472 0)
(0.941119 0.00608512 0)
(0.933513 0.00589911 0)
(0.926043 0.00572577 0)
(0.918714 0.00556436 0)
(0.91153 0.00541405 0)
(0.904495 0.00527427 0)
(0.897607 0.00514426 0)
(0.890868 0.00502354 0)
(0.884274 0.00491152 0)
(0.877826 0.00480748 0)
(0.871515 0.00471165 0)
(0.865346 0.00462183 0)
(0.859304 0.00454121 0)
(0.853398 0.00446247 0)
(0.847609 0.00439783 0)
(0.841946 0.00432542 0)
(0.836398 0.00428093 0)
(0.830947 0.00420806 0)
(0.825641 0.00419259 0)
(0.820349 0.00411701 0)
(0.815305 0.00413251 0)
(0.810082 0.00410324 0)
(0.805299 0.00406221 0)
(0.800046 0.00438076 0)
(0.79527 0.00409481 0)
(1.00374 0.0302033 0)
(1.03727 0.0318752 0)
(1.05282 0.022828 0)
(1.05561 0.0195431 0)
(1.05712 0.0175371 0)
(1.05904 0.0157116 0)
(1.06045 0.0144297 0)
(1.06112 0.0135247 0)
(1.06109 0.0127814 0)
(1.0604 0.0121329 0)
(1.05905 0.0115629 0)
(1.05704 0.0110556 0)
(1.05441 0.0105963 0)
(1.05121 0.010175 0)
(1.04749 0.0097851 0)
(1.04331 0.00942238 0)
(1.03874 0.00908357 0)
(1.03382 0.00876621 0)
(1.02863 0.00846836 0)
(1.0232 0.00818845 0)
(1.01759 0.00792519 0)
(1.01184 0.00767745 0)
(1.00598 0.00744432 0)
(1.00005 0.00722495 0)
(0.994073 0.0070186 0)
(0.988076 0.0068246 0)
(0.982078 0.00664233 0)
(0.976097 0.00647119 0)
(0.970148 0.0063107 0)
(0.964241 0.00616026 0)
(0.958388 0.00601949 0)
(0.952594 0.00588782 0)
(0.946869 0.00576491 0)
(0.941213 0.00565032 0)
(0.935634 0.00554342 0)
(0.930129 0.00544456 0)
(0.924706 0.00535161 0)
(0.919359 0.00526779 0)
(0.914096 0.00518601 0)
(0.908907 0.00511804 0)
(0.9038 0.00504325 0)
(0.89877 0.00499484 0)
(0.893808 0.00492175 0)
(0.888944 0.00489977 0)
(0.884097 0.00483016 0)
(0.879411 0.00483283 0)
(0.874631 0.00481931 0)
(0.870109 0.00477707 0)
(0.865334 0.00508264 0)
(0.860839 0.00498484 0)
(1.00337 0.0279679 0)
(1.03443 0.0308185 0)
(1.04972 0.0222504 0)
(1.05265 0.0191395 0)
(1.05412 0.01733 0)
(1.05609 0.015583 0)
(1.05778 0.0143236 0)
(1.05897 0.0134499 0)
(1.05976 0.0127477 0)
(1.06019 0.0121432 0)
(1.06023 0.011619 0)
(1.05988 0.0111593 0)
(1.05911 0.0107483 0)
(1.05793 0.0103747 0)
(1.05635 0.0100311 0)
(1.0544 0.00971235 0)
(1.05209 0.00941477 0)
(1.04945 0.00913558 0)
(1.04651 0.00887269 0)
(1.04331 0.0086245 0)
(1.03987 0.00838977 0)
(1.03621 0.00816754 0)
(1.03238 0.00795702 0)
(1.0284 0.00775759 0)
(1.02428 0.00756872 0)
(1.02006 0.00738994 0)
(1.01576 0.00722089 0)
(1.01138 0.00706116 0)
(1.00696 0.00691047 0)
(1.0025 0.00676842 0)
(0.998009 0.0066348 0)
(0.993508 0.0065092 0)
(0.989003 0.00639143 0)
(0.984502 0.00628119 0)
(0.980014 0.00617796 0)
(0.975541 0.00608221 0)
(0.971093 0.0059919 0)
(0.966668 0.00591028 0)
(0.962277 0.00583056 0)
(0.957914 0.00576394 0)
(0.953589 0.00569135 0)
(0.9493 0.00564289 0)
(0.945044 0.00557379 0)
(0.940841 0.00554849 0)
(0.936645 0.00548808 0)
(0.932538 0.005482 0)
(0.928382 0.00548335 0)
(0.924361 0.00544817 0)
(0.920211 0.0057352 0)
(0.916241 0.00578049 0)
(1.00301 0.0258348 0)
(1.03171 0.0297497 0)
(1.04672 0.0216939 0)
(1.04986 0.0187331 0)
(1.0513 0.0171112 0)
(1.05324 0.0154474 0)
(1.05496 0.0142038 0)
(1.05627 0.0133467 0)
(1.05729 0.0126681 0)
(1.05811 0.0120878 0)
(1.05872 0.0115888 0)
(1.05911 0.0111565 0)
(1.05925 0.010775 0)
(1.05915 0.0104326 0)
(1.05879 0.010121 0)
(1.05818 0.00983476 0)
(1.05731 0.00956949 0)
(1.05618 0.00932199 0)
(1.05482 0.00908982 0)
(1.05323 0.00887109 0)
(1.05142 0.00866436 0)
(1.0494 0.00846851 0)
(1.0472 0.00828271 0)
(1.04483 0.00810628 0)
(1.04231 0.00793873 0)
(1.03965 0.00777962 0)
(1.03686 0.00762866 0)
(1.03397 0.00748552 0)
(1.03097 0.00735002 0)
(1.0279 0.00722185 0)
(1.02475 0.00710092 0)
(1.02154 0.00698691 0)
(1.01828 0.00687972 0)
(1.01498 0.00677918 0)
(1.01164 0.00668481 0)
(1.00828 0.00659721 0)
(1.00489 0.00651442 0)
(1.00148 0.00643967 0)
(0.998069 0.00636655 0)
(0.994646 0.00630551 0)
(0.991222 0.00623933 0)
(0.987799 0.00619457 0)
(0.984376 0.00613328 0)
(0.980968 0.00610816 0)
(0.977551 0.00605952 0)
(0.97417 0.00604951 0)
(0.970757 0.00606444 0)
(0.967401 0.00604289 0)
(0.963982 0.0063085 0)
(0.9607 0.00645526 0)
(1.00268 0.0238065 0)
(1.02911 0.0286671 0)
(1.04381 0.0211583 0)
(1.04717 0.0183236 0)
(1.04862 0.016879 0)
(1.05051 0.0153075 0)
(1.05223 0.0140813 0)
(1.05355 0.0132362 0)
(1.05461 0.0125744 0)
(1.05552 0.0120096 0)
(1.0563 0.0115248 0)
(1.05696 0.0111073 0)
(1.05747 0.0107422 0)
(1.05784 0.0104177 0)
(1.05807 0.0101255 0)
(1.05813 0.00985962 0)
(1.05804 0.00961569 0)
(1.05778 0.00939019 0)
(1.05736 0.00918037 0)
(1.05677 0.00898408 0)
(1.05602 0.00879964 0)
(1.05511 0.00862574 0)
(1.05405 0.00846136 0)
(1.05285 0.00830571 0)
(1.0515 0.00815817 0)
(1.05003 0.00801825 0)
(1.04843 0.00788562 0)
(1.04672 0.00775991 0)
(1.04491 0.00764095 0)
(1.04299 0.00752845 0)
(1.04099 0.00742232 0)
(1.03891 0.00732231 0)
(1.03676 0.0072283 0)
(1.03454 0.00714023 0)
(1.03226 0.00705759 0)
(1.02992 0.00698111 0)
(1.02754 0.00690883 0)
(1.02512 0.00684393 0)
(1.02266 0.00678043 0)
(1.02016 0.00672789 0)
(1.01764 0.00667109 0)
(1.01509 0.00663282 0)
(1.01252 0.006582 0)
(1.00994 0.00656006 0)
(1.00734 0.0065246 0)
(1.00473 0.00651513 0)
(1.0021 0.00654197 0)
(0.999479 0.00653803 0)
(0.996829 0.00678131 0)
(0.994303 0.00699306 0)
(1.00238 0.0218848 0)
(1.02664 0.0275699 0)
(1.04099 0.0206431 0)
(1.04456 0.0179127 0)
(1.04602 0.0166322 0)
(1.04789 0.0151617 0)
(1.04961 0.0139574 0)
(1.05092 0.0131234 0)
(1.05197 0.0124768 0)
(1.05288 0.0119249 0)
(1.0537 0.0114499 0)
(1.05442 0.0110416 0)
(1.05505 0.0106861 0)
(1.05559 0.0103717 0)
(1.05604 0.0100904 0)
(1.0564 0.00983633 0)
(1.05666 0.00960509 0)
(1.05682 0.00939309 0)
(1.05688 0.0091975 0)
(1.05683 0.00901604 0)
(1.05668 0.0088469 0)
(1.05642 0.00868862 0)
(1.05605 0.00854004 0)
(1.05557 0.00840024 0)
(1.05499 0.00826849 0)
(1.05431 0.00814421 0)
(1.05353 0.00802697 0)
(1.05266 0.00791637 0)
(1.05169 0.00781215 0)
(1.05064 0.007714 0)
(1.0495 0.00762179 0)
(1.04829 0.00753529 0)
(1.047 0.0074543 0)
(1.04564 0.00737885 0)
(1.04422 0.00730835 0)
(1.04274 0.00724358 0)
(1.04121 0.00718262 0)
(1.03962 0.00712851 0)
(1.03798 0.00707573 0)
(1.0363 0.00703281 0)
(1.03458 0.00698665 0)
(1.03283 0.00695621 0)
(1.03103 0.00691695 0)
(1.02921 0.00690007 0)
(1.02736 0.00687777 0)
(1.02549 0.00687212 0)
(1.02359 0.00690868 0)
(1.02168 0.00692347 0)
(1.01976 0.00714458 0)
(1.01797 0.00739067 0)
(1.0021 0.0200705 0)
(1.0243 0.02646 0)
(1.03826 0.0201462 0)
(1.04204 0.0175022 0)
(1.04352 0.0163708 0)
(1.04536 0.0150089 0)
(1.04708 0.0138316 0)
(1.04839 0.0130086 0)
(1.04942 0.0123772 0)
(1.05033 0.0118381 0)
(1.05113 0.0113721 0)
(1.05186 0.0109711 0)
(1.05251 0.0106223 0)
(1.05309 0.0103146 0)
(1.0536 0.01004 0)
(1.05406 0.00979302 0)
(1.05445 0.00956923 0)
(1.05478 0.0093652 0)
(1.05505 0.00917812 0)
(1.05525 0.0090057 0)
(1.05538 0.00884612 0)
(1.05545 0.00869785 0)
(1.05545 0.00855968 0)
(1.05537 0.00843061 0)
(1.05522 0.00830985 0)
(1.05501 0.00819675 0)
(1.05472 0.00809081 0)
(1.05436 0.00799158 0)
(1.05394 0.00789873 0)
(1.05344 0.00781194 0)
(1.05288 0.00773099 0)
(1.05226 0.00765566 0)
(1.05158 0.00758568 0)
(1.05084 0.0075211 0)
(1.05004 0.00746126 0)
(1.04919 0.00740697 0)
(1.04829 0.00735633 0)
(1.04734 0.00731216 0)
(1.04634 0.00726948 0)
(1.0453 0.00723568 0)
(1.04421 0.00719978 0)
(1.04309 0.00717704 0)
(1.04193 0.00714886 0)
(1.04074 0.00713762 0)
(1.03951 0.00712712 0)
(1.03826 0.007127 0)
(1.03698 0.00717063 0)
(1.0357 0.00720263 0)
(1.03442 0.00740194 0)
(1.03327 0.00765785 0)
(1.00185 0.0183641 0)
(1.0221 0.0253415 0)
(1.03563 0.0196637 0)
(1.0396 0.017094 0)
(1.04111 0.0160954 0)
(1.04292 0.0148481 0)
(1.04463 0.0137032 0)
(1.04594 0.0128917 0)
(1.04697 0.0122756 0)
(1.04786 0.0117498 0)
(1.04865 0.0112931 0)
(1.04937 0.0108991 0)
(1.05001 0.0105564 0)
(1.05058 0.0102542 0)
(1.05111 0.00998477 0)
(1.05158 0.00974276 0)
(1.05201 0.00952397 0)
(1.05239 0.00932505 0)
(1.05273 0.0091433 0)
(1.05303 0.00897649 0)
(1.05328 0.0088228 0)
(1.05348 0.00868075 0)
(1.05364 0.00854911 0)
(1.05375 0.00842687 0)
(1.05382 0.00831322 0)
(1.05384 0.00820748 0)
(1.05381 0.00810912 0)
(1.05374 0.00801766 0)
(1.05361 0.00793275 0)
(1.05344 0.00785403 0)
(1.05323 0.00778124 0)
(1.05296 0.00771416 0)
(1.05266 0.00765246 0)
(1.0523 0.00759619 0)
(1.05191 0.00754466 0)
(1.05147 0.00749864 0)
(1.05099 0.00745629 0)
(1.05047 0.00742019 0)
(1.04992 0.0073859 0)
(1.04932 0.00735965 0)
(1.04869 0.0073325 0)
(1.04803 0.00731629 0)
(1.04733 0.00729756 0)
(1.04661 0.00729148 0)
(1.04586 0.00729048 0)
(1.04508 0.00729615 0)
(1.04428 0.00734393 0)
(1.04348 0.00738969 0)
(1.0427 0.00756739 0)
(1.04206 0.00781449 0)
(1.00162 0.0167651 0)
(1.02004 0.0242186 0)
(1.0331 0.0191917 0)
(1.03725 0.0166896 0)
(1.03879 0.0158071 0)
(1.04056 0.0146786 0)
(1.04227 0.0135721 0)
(1.04359 0.0127726 0)
(1.04461 0.0121717 0)
(1.04548 0.0116601 0)
(1.04627 0.0112131 0)
(1.04697 0.0108263 0)
(1.04759 0.0104896 0)
(1.04816 0.0101928 0)
(1.04868 0.00992817 0)
(1.04914 0.00969051 0)
(1.04957 0.00947582 0)
(1.04996 0.00928088 0)
(1.05032 0.00910305 0)
(1.05063 0.0089402 0)
(1.05092 0.00879055 0)
(1.05117 0.00865265 0)
(1.05139 0.00852531 0)
(1.05157 0.00840753 0)
(1.05173 0.0082985 0)
(1.05185 0.00819754 0)
(1.05194 0.00810413 0)
(1.052 0.00801779 0)
(1.05202 0.00793814 0)
(1.05201 0.00786484 0)
(1.05197 0.0077976 0)
(1.0519 0.00773619 0)
(1.0518 0.00768025 0)
(1.05167 0.00762985 0)
(1.0515 0.00758425 0)
(1.0513 0.00754419 0)
(1.05108 0.00750795 0)
(1.05082 0.00747777 0)
(1.05054 0.00744983 0)
(1.05023 0.0074292 0)
(1.04989 0.00740883 0)
(1.04953 0.00739754 0)
(1.04914 0.00738611 0)
(1.04872 0.00738414 0)
(1.04829 0.00738995 0)
(1.04784 0.00740067 0)
(1.04738 0.00744975 0)
(1.04693 0.00750472 0)
(1.0465 0.00766082 0)
(1.04622 0.00788576 0)
(1.00142 0.0152729 0)
(1.01811 0.0230954 0)
(1.03067 0.018726 0)
(1.03499 0.0162904 0)
(1.03657 0.0155072 0)
(1.0383 0.0144998 0)
(1.04 0.013438 0)
(1.04132 0.0126513 0)
(1.04234 0.0120655 0)
(1.0432 0.0115686 0)
(1.04397 0.011132 0)
(1.04466 0.0107527 0)
(1.04527 0.0104223 0)
(1.04583 0.010131 0)
(1.04633 0.00987115 0)
(1.04679 0.00963777 0)
(1.04721 0.00942699 0)
(1.04759 0.00923569 0)
(1.04794 0.00906133 0)
(1.04825 0.00890182 0)
(1.04854 0.00875546 0)
(1.0488 0.00862082 0)
(1.04903 0.00849673 0)
(1.04924 0.00838222 0)
(1.04942 0.00827651 0)
(1.04958 0.00817893 0)
(1.04971 0.00808895 0)
(1.04982 0.00800612 0)
(1.0499 0.00793007 0)
(1.04996 0.00786046 0)
(1.05 0.00779698 0)
(1.05002 0.00773943 0)
(1.05001 0.00768743 0)
(1.04999 0.00764103 0)
(1.04994 0.00759953 0)
(1.04986 0.00756358 0)
(1.04977 0.00753161 0)
(1.04966 0.00750553 0)
(1.04953 0.00748211 0)
(1.04937 0.00746537 0)
(1.0492 0.0074499 0)
(1.04901 0.00744201 0)
(1.0488 0.00743579 0)
(1.04858 0.00743674 0)
(1.04834 0.00744687 0)
(1.04809 0.00746135 0)
(1.04784 0.00750932 0)
(1.04761 0.00756875 0)
(1.04742 0.00770317 0)
(1.04737 0.00789717 0)
(1.00124 0.013886 0)
(1.01632 0.0219759 0)
(1.02835 0.0182631 0)
(1.03281 0.0158978 0)
(1.03444 0.0151974 0)
(1.03613 0.0143113 0)
(1.03782 0.0133003 0)
(1.03914 0.0125279 0)
(1.04015 0.0119568 0)
(1.04101 0.0114751 0)
(1.04177 0.0110497 0)
(1.04244 0.0106782 0)
(1.04305 0.0103544 0)
(1.04359 0.0100687 0)
(1.04408 0.00981383 0)
(1.04453 0.00958485 0)
(1.04493 0.00937803 0)
(1.0453 0.00919037 0)
(1.04564 0.00901941 0)
(1.04595 0.00886312 0)
(1.04623 0.00871982 0)
(1.04648 0.00858814 0)
(1.04671 0.00846693 0)
(1.04692 0.00835524 0)
(1.0471 0.00825229 0)
(1.04726 0.00815745 0)
(1.0474 0.00807019 0)
(1.04753 0.00799009 0)
(1.04763 0.00791676 0)
(1.04771 0.00784991 0)
(1.04778 0.0077892 0)
(1.04783 0.00773445 0)
(1.04786 0.00768528 0)
(1.04788 0.00764173 0)
(1.04788 0.00760314 0)
(1.04786 0.00757006 0)
(1.04783 0.00754112 0)
(1.04778 0.00751786 0)
(1.04772 0.00749766 0)
(1.04765 0.00748354 0)
(1.04756 0.00747153 0)
(1.04746 0.00746588 0)
(1.04734 0.00746316 0)
(1.04722 0.00746607 0)
(1.04709 0.00747851 0)
(1.04695 0.00749539 0)
(1.04682 0.0075404 0)
(1.04672 0.00759997 0)
(1.04666 0.00771276 0)
(1.04675 0.00787084 0)
(1.00107 0.0126023 0)
(1.01466 0.0208642 0)
(1.02614 0.0177994 0)
(1.03072 0.0155127 0)
(1.0324 0.0148794 0)
(1.03405 0.0141125 0)
(1.03573 0.0131587 0)
(1.03705 0.0124023 0)
(1.03806 0.0118458 0)
(1.03891 0.0113797 0)
(1.03965 0.010966 0)
(1.04032 0.0106028 0)
(1.04091 0.0102857 0)
(1.04144 0.0100059 0)
(1.04192 0.00975618 0)
(1.04236 0.00953175 0)
(1.04276 0.00932902 0)
(1.04312 0.0091451 0)
(1.04344 0.00897761 0)
(1.04374 0.00882456 0)
(1.04401 0.00868434 0)
(1.04425 0.00855559 0)
(1.04447 0.00843718 0)
(1.04467 0.00832818 0)
(1.04485 0.00822784 0)
(1.04501 0.00813552 0)
(1.04514 0.00805073 0)
(1.04526 0.00797303 0)
(1.04537 0.00790207 0)
(1.04545 0.00783756 0)
(1.04552 0.00777916 0)
(1.04558 0.0077267 0)
(1.04562 0.0076798 0)
(1.04565 0.00763851 0)
(1.04567 0.00760219 0)
(1.04567 0.00757131 0)
(1.04566 0.00754468 0)
(1.04564 0.00752351 0)
(1.04561 0.0075057 0)
(1.04556 0.00749346 0)
(1.04551 0.00748394 0)
(1.04545 0.00747984 0)
(1.04538 0.00747942 0)
(1.0453 0.00748362 0)
(1.04522 0.00749696 0)
(1.04514 0.00751504 0)
(1.04507 0.00755589 0)
(1.04503 0.00761203 0)
(1.04505 0.00770346 0)
(1.0452 0.00782359 0)
(1.00093 0.0114193 0)
(1.01314 0.0197642 0)
(1.02405 0.0173319 0)
(1.02872 0.0151355 0)
(1.03046 0.0145554 0)
(1.03207 0.0139032 0)
(1.03372 0.0130125 0)
(1.03505 0.0122746 0)
(1.03606 0.0117323 0)
(1.0369 0.0112821 0)
(1.03763 0.0108808 0)
(1.03829 0.0105264 0)
(1.03887 0.0102162 0)
(1.03939 0.0099425 0)
(1.03986 0.00969815 0)
(1.04029 0.00947843 0)
(1.04067 0.00927993 0)
(1.04102 0.00909987 0)
(1.04134 0.00893595 0)
(1.04163 0.00878625 0)
(1.04189 0.00864918 0)
(1.04212 0.00852341 0)
(1.04233 0.00840784 0)
(1.04252 0.00830156 0)
(1.04269 0.00820381 0)
(1.04284 0.008114 0)
(1.04297 0.00803161 0)
(1.04308 0.00795625 0)
(1.04318 0.00788755 0)
(1.04326 0.00782524 0)
(1.04333 0.00776899 0)
(1.04338 0.00771864 0)
(1.04342 0.0076738 0)
(1.04345 0.00763451 0)
(1.04347 0.00760018 0)
(1.04347 0.00757119 0)
(1.04346 0.00754653 0)
(1.04345 0.00752709 0)
(1.04342 0.00751126 0)
(1.04339 0.00750053 0)
(1.04335 0.00749294 0)
(1.0433 0.00749004 0)
(1.04324 0.00749119 0)
(1.04318 0.00749629 0)
(1.04312 0.00750968 0)
(1.04307 0.00752796 0)
(1.04302 0.00756396 0)
(1.04301 0.007614 0)
(1.04306 0.00768459 0)
(1.04324 0.00776689 0)
(1.0008 0.0103337 0)
(1.01174 0.0186803 0)
(1.02206 0.0168578 0)
(1.02681 0.0147665 0)
(1.02861 0.0142272 0)
(1.03018 0.0136834 0)
(1.03181 0.0128611 0)
(1.03314 0.0121447 0)
(1.03415 0.0116163 0)
(1.03498 0.0111821 0)
(1.0357 0.0107939 0)
(1.03635 0.0104488 0)
(1.03693 0.0101459 0)
(1.03744 0.00987847 0)
(1.0379 0.00963966 0)
(1.03831 0.00942484 0)
(1.03869 0.00923071 0)
(1.03903 0.00905464 0)
(1.03933 0.00889441 0)
(1.03961 0.00874816 0)
(1.03986 0.00861433 0)
(1.04009 0.00849162 0)
(1.04029 0.00837897 0)
(1.04047 0.00827547 0)
(1.04063 0.00818038 0)
(1.04077 0.00809311 0)
(1.04089 0.00801316 0)
(1.041 0.00794015 0)
(1.04109 0.00787373 0)
(1.04116 0.00781362 0)
(1.04122 0.0077595 0)
(1.04127 0.00771121 0)
(1.0413 0.00766838 0)
(1.04132 0.00763103 0)
(1.04134 0.00759861 0)
(1.04134 0.00757141 0)
(1.04133 0.00754859 0)
(1.04131 0.00753078 0)
(1.04128 0.00751673 0)
(1.04125 0.00750738 0)
(1.04121 0.00750144 0)
(1.04116 0.00749964 0)
(1.0411 0.00750193 0)
(1.04105 0.00750773 0)
(1.04099 0.00752069 0)
(1.04094 0.00753842 0)
(1.04091 0.00756924 0)
(1.04091 0.0076113 0)
(1.04097 0.00766181 0)
(1.04114 0.00770788 0)
(1.00069 0.00934174 0)
(1.01046 0.0176164 0)
(1.02019 0.0163749 0)
(1.02498 0.0144058 0)
(1.02685 0.013897 0)
(1.02838 0.0134531 0)
(1.02998 0.012704 0)
(1.03131 0.0120125 0)
(1.03232 0.0114981 0)
(1.03315 0.0110798 0)
(1.03386 0.0107053 0)
(1.0345 0.01037 0)
(1.03507 0.0100747 0)
(1.03557 0.00981371 0)
(1.03602 0.00958064 0)
(1.03643 0.00937089 0)
(1.0368 0.0091813 0)
(1.03713 0.00900936 0)
(1.03742 0.00885294 0)
(1.03769 0.00871024 0)
(1.03793 0.00857976 0)
(1.03815 0.00846022 0)
(1.03834 0.00835057 0)
(1.03851 0.00824993 0)
(1.03867 0.00815756 0)
(1.0388 0.0080729 0)
(1.03891 0.00799546 0)
(1.03901 0.00792486 0)
(1.03909 0.00786075 0)
(1.03916 0.00780288 0)
(1.03921 0.00775093 0)
(1.03925 0.00770473 0)
(1.03928 0.00766394 0)
(1.0393 0.00762853 0)
(1.0393 0.00759803 0)
(1.0393 0.00757263 0)
(1.03928 0.00755163 0)
(1.03926 0.00753543 0)
(1.03923 0.0075231 0)
(1.03919 0.00751515 0)
(1.03914 0.00751073 0)
(1.03909 0.00751003 0)
(1.03903 0.00751327 0)
(1.03897 0.00751966 0)
(1.03892 0.00753196 0)
(1.03887 0.00754855 0)
(1.03883 0.00757406 0)
(1.03883 0.00760699 0)
(1.03889 0.00763835 0)
(1.03905 0.00765074 0)
(1.0006 0.00843901 0)
(1.0093 0.0165766 0)
(1.01843 0.0158814 0)
(1.02323 0.014053 0)
(1.02517 0.0135665 0)
(1.02668 0.0132129 0)
(1.02824 0.0125405 0)
(1.02957 0.0118778 0)
(1.03058 0.0113774 0)
(1.0314 0.010975 0)
(1.03211 0.0106148 0)
(1.03274 0.0102899 0)
(1.0333 0.0100024 0)
(1.0338 0.00974813 0)
(1.03424 0.00952101 0)
(1.03464 0.00931652 0)
(1.035 0.00913163 0)
(1.03532 0.00896396 0)
(1.03561 0.00881149 0)
(1.03587 0.00867246 0)
(1.0361 0.00854543 0)
(1.03631 0.00842915 0)
(1.03649 0.0083226 0)
(1.03666 0.00822489 0)
(1.0368 0.00813534 0)
(1.03693 0.00805336 0)
(1.03703 0.00797849 0)
(1.03712 0.00791036 0)
(1.0372 0.00784864 0)
(1.03726 0.00779307 0)
(1.0373 0.00774334 0)
(1.03734 0.00769928 0)
(1.03736 0.00766057 0)
(1.03737 0.00762715 0)
(1.03737 0.00759861 0)
(1.03736 0.00757505 0)
(1.03733 0.00755589 0)
(1.03731 0.00754136 0)
(1.03727 0.00753076 0)
(1.03722 0.00752426 0)
(1.03717 0.00752131 0)
(1.03711 0.00752176 0)
(1.03705 0.00752585 0)
(1.03699 0.00753277 0)
(1.03693 0.00754434 0)
(1.03687 0.00755934 0)
(1.03683 0.00757955 0)
(1.03683 0.00760274 0)
(1.03688 0.00761606 0)
(1.03702 0.00759788 0)
(1.00051 0.00762077 0)
(1.00825 0.0155648 0)
(1.01679 0.015376 0)
(1.02157 0.0137075 0)
(1.02358 0.0132375 0)
(1.02506 0.0129636 0)
(1.02659 0.0123701 0)
(1.02791 0.0117404 0)
(1.02893 0.0112545 0)
(1.02974 0.0108677 0)
(1.03045 0.0105222 0)
(1.03107 0.0102082 0)
(1.03162 0.00992895 0)
(1.03211 0.00968165 0)
(1.03255 0.00946069 0)
(1.03294 0.00926166 0)
(1.03329 0.00908164 0)
(1.0336 0.00891839 0)