/*--------------------------------*- C++ -*----------------------------------*\
  =========                 |
  \\      /  F ield         | OpenFOAM: The Open Source CFD Toolbox
   \\    /   O peration     | Website:  https://openfoam.org
    \\  /    A nd           | Version:  7
     \\/     M anipulation  |
\*---------------------------------------------------------------------------*/
FoamFile
{
    version     2.0;
    format      ascii;
    class       volVectorField;
    location    "0.22";
    object      vorticity;
}
// * * * * * * * * * * * * * * * * * * * * * * * * * * * * * * * * * * * * * //

dimensions      [0 0 -1 0 0 0 0];

internalField   nonuniform List<vector> 
70000
(
(0 -0 -45716)
(0 -0 -28617.1)
(0 -0 -20911.8)
(0 -0 -16976.9)
(0 -0 -14953.8)
(0 -0 -13644.6)
(0 -0 -12632.7)
(0 -0 -11817.4)
(0 -0 -11150.6)
(0 -0 -10593.4)
(0 -0 -10117.9)
(0 -0 -9705.68)
(0 -0 -9343.71)
(0 -0 -9022.65)
(0 -0 -8735.42)
(0 -0 -8476.53)
(0 -0 -8241.68)
(0 -0 -8027.42)
(0 -0 -7830.94)
(0 -0 -7649.95)
(0 -0 -7482.54)
(0 -0 -7327.11)
(0 -0 -7182.29)
(0 -0 -7046.94)
(0 -0 -6920.05)
(0 -0 -6800.75)
(0 -0 -6688.31)
(0 -0 -6582.04)
(0 -0 -6481.39)
(0 -0 -6385.81)
(0 -0 -6294.89)
(0 -0 -6208.17)
(0 -0 -6125.37)
(0 -0 -6046.05)
(0 -0 -5970.07)
(0 -0 -5896.99)
(0 -0 -5826.8)
(0 -0 -5759.07)
(0 -0 -5693.73)
(0 -0 -5630.83)
(0 -0 -5569.18)
(0 -0 -5511.36)
(0 -0 -5451.11)
(0 -0 -5400.79)
(0 -0 -5335.68)
(0 -0 -5301.76)
(0 -0 -5212.76)
(0 -0 -5223.12)
(0 -0 -5070.03)
(0 -0 -4963.03)
(0 -0 -13549.7)
(0 -0 -19947.3)
(0 -0 -18535.7)
(0 -0 -16248.2)
(0 -0 -14501)
(0 -0 -13275.5)
(0 -0 -12345.5)
(0 -0 -11593.3)
(0 -0 -10968.6)
(0 -0 -10440.8)
(0 -0 -9987.54)
(0 -0 -9592.7)
(0 -0 -9244.7)
(0 -0 -8935.06)
(0 -0 -8657.28)
(0 -0 -8406.36)
(0 -0 -8178.28)
(0 -0 -7969.86)
(0 -0 -7778.48)
(0 -0 -7601.97)
(0 -0 -7438.55)
(0 -0 -7286.69)
(0 -0 -7145.11)
(0 -0 -7012.7)
(0 -0 -6888.52)
(0 -0 -6771.73)
(0 -0 -6661.61)
(0 -0 -6557.52)
(0 -0 -6458.92)
(0 -0 -6365.28)
(0 -0 -6276.19)
(0 -0 -6191.22)
(0 -0 -6110.07)
(0 -0 -6032.34)
(0 -0 -5957.85)
(0 -0 -5886.21)
(0 -0 -5817.35)
(0 -0 -5750.89)
(0 -0 -5686.73)
(0 -0 -5624.88)
(0 -0 -5564.39)
(0 -0 -5507.19)
(0 -0 -5448.55)
(0 -0 -5397.68)
(0 -0 -5336.38)
(0 -0 -5298.12)
(0 -0 -5221.81)
(0 -0 -5212.77)
(0 -0 -5103.83)
(0 -0 -5151.35)
(0 -0 -3818.79)
(0 -0 -10829)
(0 -0 -13363.6)
(0 -0 -13519.6)
(0 -0 -12865.7)
(0 -0 -12138.7)
(0 -0 -11496)
(0 -0 -10934.4)
(0 -0 -10441)
(0 -0 -10006.7)
(0 -0 -9622.78)
(0 -0 -9281.1)
(0 -0 -8974.96)
(0 -0 -8698.9)
(0 -0 -8448.56)
(0 -0 -8220.36)
(0 -0 -8011.37)
(0 -0 -7819.15)
(0 -0 -7641.67)
(0 -0 -7477.22)
(0 -0 -7324.33)
(0 -0 -7181.77)
(0 -0 -7048.45)
(0 -0 -6923.44)
(0 -0 -6805.93)
(0 -0 -6695.2)
(0 -0 -6590.63)
(0 -0 -6491.66)
(0 -0 -6397.79)
(0 -0 -6308.57)
(0 -0 -6223.62)
(0 -0 -6142.55)
(0 -0 -6065.09)
(0 -0 -5990.89)
(0 -0 -5919.75)
(0 -0 -5851.34)
(0 -0 -5785.55)
(0 -0 -5722.07)
(0 -0 -5660.79)
(0 -0 -5601.62)
(0 -0 -5543.97)
(0 -0 -5488.89)
(0 -0 -5433.62)
(0 -0 -5383.32)
(0 -0 -5327.9)
(0 -0 -5285.19)
(0 -0 -5224.46)
(0 -0 -5193.67)
(0 -0 -5128.67)
(0 -0 -5143.18)
(0 -0 -533.062)
(0 -0 -4662.8)
(0 -0 -7718.95)
(0 -0 -9329.36)
(0 -0 -9893.29)
(0 -0 -9958.6)
(0 -0 -9826.67)
(0 -0 -9614.3)
(0 -0 -9370.27)
(0 -0 -9119.3)
(0 -0 -8873.79)
(0 -0 -8639.34)
(0 -0 -8418.07)
(0 -0 -8210.43)
(0 -0 -8016.11)
(0 -0 -7834.4)
(0 -0 -7664.45)
(0 -0 -7505.36)
(0 -0 -7356.28)
(0 -0 -7216.37)
(0 -0 -7084.87)
(0 -0 -6961.07)
(0 -0 -6844.35)
(0 -0 -6734.11)
(0 -0 -6629.83)
(0 -0 -6531.02)
(0 -0 -6437.26)
(0 -0 -6348.13)
(0 -0 -6263.29)
(0 -0 -6182.4)
(0 -0 -6105.17)
(0 -0 -6031.3)
(0 -0 -5960.56)
(0 -0 -5892.69)
(0 -0 -5827.53)
(0 -0 -5764.81)
(0 -0 -5704.43)
(0 -0 -5646.13)
(0 -0 -5589.85)
(0 -0 -5535.37)
(0 -0 -5482.56)
(0 -0 -5431.45)
(0 -0 -5381.49)
(0 -0 -5333.47)
(0 -0 -5285.78)
(0 -0 -5240.22)
(0 -0 -5196.12)
(0 -0 -5146.67)
(0 -0 -5123.68)
(0 -0 -5056.85)
(0 -0 322.453)
(0 -0 -1444.61)
(0 -0 -3532.98)
(0 -0 -5260.09)
(0 -0 -6400.68)
(0 -0 -7075.94)
(0 -0 -7453.79)
(0 -0 -7644.67)
(0 -0 -7716.8)
(0 -0 -7714.41)
(0 -0 -7666.06)
(0 -0 -7589.82)
(0 -0 -7497.13)
(0 -0 -7395.26)
(0 -0 -7288.93)
(0 -0 -7181.19)
(0 -0 -7073.99)
(0 -0 -6968.63)
(0 -0 -6865.88)
(0 -0 -6766.23)
(0 -0 -6669.95)
(0 -0 -6577.17)
(0 -0 -6487.91)
(0 -0 -6402.13)
(0 -0 -6319.75)
(0 -0 -6240.65)
(0 -0 -6164.71)
(0 -0 -6091.78)
(0 -0 -6021.73)
(0 -0 -5954.41)
(0 -0 -5889.66)
(0 -0 -5827.36)
(0 -0 -5767.37)
(0 -0 -5709.54)
(0 -0 -5653.76)
(0 -0 -5599.9)
(0 -0 -5547.87)
(0 -0 -5497.49)
(0 -0 -5448.79)
(0 -0 -5401.43)
(0 -0 -5355.74)
(0 -0 -5310.86)
(0 -0 -5268.14)
(0 -0 -5224.76)
(0 -0 -5185.97)
(0 -0 -5141.08)
(0 -0 -5111.72)
(0 -0 -5053.09)
(0 -0 -5057.83)
(0 -0 -4954.36)
(0 -0 364.714)
(0 -0 -158.556)
(0 -0 -1181.72)
(0 -0 -2362.64)
(0 -0 -3418.72)
(0 -0 -4258.01)
(0 -0 -4893.85)
(0 -0 -5360.09)
(0 -0 -5691.78)
(0 -0 -5920.92)
(0 -0 -6073.77)
(0 -0 -6170.43)
(0 -0 -6225.81)
(0 -0 -6250.87)
(0 -0 -6253.66)
(0 -0 -6240.14)
(0 -0 -6214.69)
(0 -0 -6180.59)
(0 -0 -6140.29)
(0 -0 -6095.63)
(0 -0 -6047.99)
(0 -0 -5998.44)
(0 -0 -5947.77)
(0 -0 -5896.59)
(0 -0 -5845.35)
(0 -0 -5794.4)
(0 -0 -5744)
(0 -0 -5694.34)
(0 -0 -5645.56)
(0 -0 -5597.74)
(0 -0 -5550.97)
(0 -0 -5505.26)
(0 -0 -5460.66)
(0 -0 -5417.15)
(0 -0 -5374.74)
(0 -0 -5333.4)
(0 -0 -5293.14)
(0 -0 -5253.85)
(0 -0 -5215.67)
(0 -0 -5178.23)
(0 -0 -5142.15)
(0 -0 -5106.09)
(0 -0 -5072.52)
(0 -0 -5036.65)
(0 -0 -5007.39)
(0 -0 -4967.89)
(0 -0 -4949.65)
(0 -0 -4894.15)
(0 -0 -4907.82)
(0 -0 -4815.36)
(0 -0 254.024)
(0 -0 185.318)
(0 -0 -173.335)
(0 -0 -764.961)
(0 -0 -1448.41)
(0 -0 -2116.77)
(0 -0 -2722.7)
(0 -0 -3246.68)
(0 -0 -3684.54)
(0 -0 -4042)
(0 -0 -4329.3)
(0 -0 -4557.52)
(0 -0 -4736.94)
(0 -0 -4876.51)
(0 -0 -4983.72)
(0 -0 -5064.75)
(0 -0 -5124.61)
(0 -0 -5167.37)
(0 -0 -5196.31)
(0 -0 -5214.08)
(0 -0 -5222.82)
(0 -0 -5224.26)
(0 -0 -5219.81)
(0 -0 -5210.62)
(0 -0 -5197.63)
(0 -0 -5181.6)
(0 -0 -5163.16)
(0 -0 -5142.83)
(0 -0 -5121.02)
(0 -0 -5098.09)
(0 -0 -5074.32)
(0 -0 -5049.96)
(0 -0 -5025.18)
(0 -0 -5000.15)
(0 -0 -4975)
(0 -0 -4949.83)
(0 -0 -4924.74)
(0 -0 -4899.76)
(0 -0 -4875.05)
(0 -0 -4850.38)
(0 -0 -4826.42)
(0 -0 -4801.87)
(0 -0 -4779.33)
(0 -0 -4753.91)
(0 -0 -4734.78)
(0 -0 -4705.15)
(0 -0 -4695.33)
(0 -0 -4652.17)
(0 -0 -4665.12)
(0 -0 -4599.95)
(0 -0 178.744)
(0 -0 204.517)
(0 -0 130.672)
(0 -0 -85.2889)
(0 -0 -418.196)
(0 -0 -815.605)
(0 -0 -1237.67)
(0 -0 -1655.49)
(0 -0 -2049.19)
(0 -0 -2407.73)
(0 -0 -2726.83)
(0 -0 -3006.33)
(0 -0 -3248.38)
(0 -0 -3456.25)
(0 -0 -3633.62)
(0 -0 -3784.21)
(0 -0 -3911.49)
(0 -0 -4018.62)
(0 -0 -4108.42)
(0 -0 -4183.32)
(0 -0 -4245.46)
(0 -0 -4296.67)
(0 -0 -4338.51)
(0 -0 -4372.35)
(0 -0 -4399.32)
(0 -0 -4420.43)
(0 -0 -4436.51)
(0 -0 -4448.29)
(0 -0 -4456.39)
(0 -0 -4461.34)
(0 -0 -4463.6)
(0 -0 -4463.57)
(0 -0 -4461.57)
(0 -0 -4457.91)
(0 -0 -4452.82)
(0 -0 -4446.53)
(0 -0 -4439.22)
(0 -0 -4431.05)
(0 -0 -4422.2)
(0 -0 -4412.63)
(0 -0 -4402.86)
(0 -0 -4392.05)
(0 -0 -4382.21)
(0 -0 -4369.59)
(0 -0 -4361.49)
(0 -0 -4344.73)
(0 -0 -4342.9)
(0 -0 -4315.91)
(0 -0 -4328.27)
(0 -0 -4288.98)
(0 -0 148.017)
(0 -0 164.614)
(0 -0 170.005)
(0 -0 120.979)
(0 -0 0.952333)
(0 -0 -181.015)
(0 -0 -409.581)
(0 -0 -668.422)
(0 -0 -941.71)
(0 -0 -1216.52)
(0 -0 -1483.59)
(0 -0 -1736.88)
(0 -0 -1972.83)
(0 -0 -2189.72)
(0 -0 -2387.1)
(0 -0 -2565.39)
(0 -0 -2725.5)
(0 -0 -2868.66)
(0 -0 -2996.23)
(0 -0 -3109.6)
(0 -0 -3210.12)
(0 -0 -3299.09)
(0 -0 -3377.71)
(0 -0 -3447.08)
(0 -0 -3508.21)
(0 -0 -3562)
(0 -0 -3609.27)
(0 -0 -3650.74)
(0 -0 -3687.06)
(0 -0 -3718.81)
(0 -0 -3746.5)
(0 -0 -3770.59)
(0 -0 -3791.47)
(0 -0 -3809.53)
(0 -0 -3825.04)
(0 -0 -3838.34)
(0 -0 -3849.62)
(0 -0 -3859.17)
(0 -0 -3867.12)
(0 -0 -3873.67)
(0 -0 -3879.09)
(0 -0 -3883.09)
(0 -0 -3886.9)
(0 -0 -3888.23)
(0 -0 -3891.99)
(0 -0 -3889.21)
(0 -0 -3896.34)
(0 -0 -3885.72)
(0 -0 -3900.87)
(0 -0 -3883.21)
(0 -0 136.826)
(0 -0 137.076)
(0 -0 148.749)
(0 -0 149.698)
(0 -0 122.192)
(0 -0 60.0428)
(0 -0 -36.6046)
(0 -0 -164.129)
(0 -0 -316.208)
(0 -0 -485.546)
(0 -0 -665.231)
(0 -0 -849.339)
(0 -0 -1033.11)
(0 -0 -1212.92)
(0 -0 -1386.18)
(0 -0 -1551.15)
(0 -0 -1706.76)
(0 -0 -1852.48)
(0 -0 -1988.15)
(0 -0 -2113.89)
(0 -0 -2230)
(0 -0 -2336.91)
(0 -0 -2435.14)
(0 -0 -2525.24)
(0 -0 -2607.77)
(0 -0 -2683.29)
(0 -0 -2752.35)
(0 -0 -2815.48)
(0 -0 -2873.15)
(0 -0 -2925.85)
(0 -0 -2973.98)
(0 -0 -3017.97)
(0 -0 -3058.16)
(0 -0 -3094.92)
(0 -0 -3128.5)
(0 -0 -3159.26)
(0 -0 -3187.37)
(0 -0 -3213.17)
(0 -0 -3236.73)
(0 -0 -3258.4)
(0 -0 -3278.26)
(0 -0 -3296.4)
(0 -0 -3313.43)
(0 -0 -3328.2)
(0 -0 -3343.76)
(0 -0 -3354.36)
(0 -0 -3371)
(0 -0 -3375.32)
(0 -0 -3395.72)
(0 -0 -3396.05)
(0 -0 129.947)
(0 -0 124.004)
(0 -0 129.193)
(0 -0 136.401)
(0 -0 136.493)
(0 -0 123.212)
(0 -0 92.888)
(0 -0 43.6373)
(0 -0 -24.4071)
(0 -0 -109.442)
(0 -0 -208.716)
(0 -0 -319.106)
(0 -0 -437.469)
(0 -0 -560.89)
(0 -0 -686.815)
(0 -0 -813.103)
(0 -0 -938.03)
(0 -0 -1060.25)
(0 -0 -1178.76)
(0 -0 -1292.84)
(0 -0 -1401.99)
(0 -0 -1505.94)
(0 -0 -1604.54)
(0 -0 -1697.76)
(0 -0 -1785.68)
(0 -0 -1868.41)
(0 -0 -1946.15)
(0 -0 -2019.1)
(0 -0 -2087.48)
(0 -0 -2151.56)
(0 -0 -2211.56)
(0 -0 -2267.74)
(0 -0 -2320.34)
(0 -0 -2369.6)
(0 -0 -2415.7)
(0 -0 -2458.95)
(0 -0 -2499.42)
(0 -0 -2537.46)
(0 -0 -2573.06)
(0 -0 -2606.61)
(0 -0 -2638.04)
(0 -0 -2667.65)
(0 -0 -2695.67)
(0 -0 -2721.6)
(0 -0 -2747.3)
(0 -0 -2769.15)
(0 -0 -2794.39)
(0 -0 -2811.14)
(0 -0 -2837.33)
(0 -0 -2851.85)
(0 -0 122.958)
(0 -0 116.654)
(0 -0 118.026)
(0 -0 122.506)
(0 -0 126.455)
(0 -0 126.927)
(0 -0 121.44)
(0 -0 107.675)
(0 -0 83.9673)
(0 -0 49.5823)
(0 -0 4.58847)
(0 -0 -50.3261)
(0 -0 -114.052)
(0 -0 -185.231)
(0 -0 -262.412)
(0 -0 -344.155)
(0 -0 -429.105)
(0 -0 -516.039)
(0 -0 -603.885)
(0 -0 -691.729)
(0 -0 -778.811)
(0 -0 -864.513)
(0 -0 -948.346)
(0 -0 -1029.94)
(0 -0 -1109.01)
(0 -0 -1185.36)
(0 -0 -1258.88)
(0 -0 -1329.49)
(0 -0 -1397.18)
(0 -0 -1461.96)
(0 -0 -1523.86)
(0 -0 -1582.98)
(0 -0 -1639.36)
(0 -0 -1693.14)
(0 -0 -1744.38)
(0 -0 -1793.25)
(0 -0 -1839.76)
(0 -0 -1884.16)
(0 -0 -1926.38)
(0 -0 -1966.76)
(0 -0 -2005.16)
(0 -0 -2041.88)
(0 -0 -2076.99)
(0 -0 -2110.25)
(0 -0 -2142.85)
(0 -0 -2172.46)
(0 -0 -2203.79)
(0 -0 -2229.42)
(0 -0 -2260.13)
(0 -0 -2284.52)
(0 -0 115.638)
(0 -0 110.423)
(0 -0 110.746)
(0 -0 113.187)
(0 -0 116.004)
(0 -0 118.268)
(0 -0 119.146)
(0 -0 117.43)
(0 -0 111.827)
(0 -0 101.266)
(0 -0 85.0049)
(0 -0 62.6516)
(0 -0 34.1309)
(0 -0 -0.354832)
(0 -0 -40.3915)
(0 -0 -85.4181)
(0 -0 -134.786)
(0 -0 -187.805)
(0 -0 -243.786)
(0 -0 -302.061)
(0 -0 -362.009)
(0 -0 -423.063)
(0 -0 -484.715)
(0 -0 -546.525)
(0 -0 -608.112)
(0 -0 -669.155)
(0 -0 -729.387)
(0 -0 -788.593)
(0 -0 -846.599)
(0 -0 -903.274)
(0 -0 -958.513)
(0 -0 -1012.26)
(0 -0 -1064.44)
(0 -0 -1115.06)
(0 -0 -1164.09)
(0 -0 -1211.57)
(0 -0 -1257.45)
(0 -0 -1301.86)
(0 -0 -1344.7)
(0 -0 -1386.18)
(0 -0 -1426.16)
(0 -0 -1464.84)
(0 -0 -1502.23)
(0 -0 -1538.17)
(0 -0 -1573.44)
(0 -0 -1606.52)
(0 -0 -1640.37)
(0 -0 -1670.58)
(0 -0 -1703.26)
(0 -0 -1732.83)
(0 -0 108.394)
(0 -0 104.207)
(0 -0 104.422)
(0 -0 106.133)
(0 -0 108.004)
(0 -0 109.718)
(0 -0 111.258)
(0 -0 112.277)
(0 -0 112.19)
(0 -0 110.358)
(0 -0 106.183)
(0 -0 99.1511)
(0 -0 88.8717)
(0 -0 75.0908)
(0 -0 57.6981)
(0 -0 36.7066)
(0 -0 12.2366)
(0 -0 -15.5067)
(0 -0 -46.2571)
(0 -0 -79.7067)
(0 -0 -115.525)
(0 -0 -153.373)
(0 -0 -192.915)
(0 -0 -233.829)
(0 -0 -275.81)
(0 -0 -318.578)
(0 -0 -361.876)
(0 -0 -405.476)
(0 -0 -449.174)
(0 -0 -492.795)
(0 -0 -536.181)
(0 -0 -579.209)
(0 -0 -621.757)
(0 -0 -663.754)
(0 -0 -705.097)
(0 -0 -745.768)
(0 -0 -785.665)
(0 -0 -824.83)
(0 -0 -863.143)
(0 -0 -900.701)
(0 -0 -937.379)
(0 -0 -973.267)
(0 -0 -1008.36)
(0 -0 -1042.5)
(0 -0 -1076.2)
(0 -0 -1108.48)
(0 -0 -1141.1)
(0 -0 -1171.6)
(0 -0 -1203.17)
(0 -0 -1233.46)
(0 -0 101.417)
(0 -0 98.0168)
(0 -0 98.2467)
(0 -0 99.7241)
(0 -0 101.239)
(0 -0 102.514)
(0 -0 103.741)
(0 -0 104.931)
(0 -0 105.91)
(0 -0 106.431)
(0 -0 106.206)
(0 -0 104.933)
(0 -0 102.312)
(0 -0 98.0771)
(0 -0 92.0074)
(0 -0 83.9404)
(0 -0 73.7727)
(0 -0 61.459)
(0 -0 47.0072)
(0 -0 30.4706)
(0 -0 11.9407)
(0 -0 -8.46178)
(0 -0 -30.5943)
(0 -0 -54.3003)
(0 -0 -79.415)
(0 -0 -105.772)
(0 -0 -133.205)
(0 -0 -161.554)
(0 -0 -190.665)
(0 -0 -220.398)
(0 -0 -250.613)
(0 -0 -281.194)
(0 -0 -312.022)
(0 -0 -343.009)
(0 -0 -374.048)
(0 -0 -405.085)
(0 -0 -436.017)
(0 -0 -466.829)
(0 -0 -497.413)
(0 -0 -527.788)
(0 -0 -557.856)
(0 -0 -587.625)
(0 -0 -617.087)
(0 -0 -646.099)
(0 -0 -674.959)
(0 -0 -703.08)
(0 -0 -731.41)
(0 -0 -758.698)
(0 -0 -786.444)
(0 -0 -813.863)
(0 -0 94.7411)
(0 -0 91.9683)
(0 -0 92.1868)
(0 -0 93.5156)
(0 -0 94.8991)
(0 -0 95.9999)
(0 -0 97.0018)
(0 -0 98.0032)
(0 -0 98.9764)
(0 -0 99.8538)
(0 -0 100.545)
(0 -0 100.931)
(0 -0 100.869)
(0 -0 100.208)
(0 -0 98.7952)
(0 -0 96.488)
(0 -0 93.1617)
(0 -0 88.7134)
(0 -0 83.0651)
(0 -0 76.1648)
(0 -0 67.9854)
(0 -0 58.5238)
(0 -0 47.7978)
(0 -0 35.8428)
(0 -0 22.7095)
(0 -0 8.45959)
(0 -0 -6.83582)
(0 -0 -23.101)
(0 -0 -40.2545)
(0 -0 -58.2166)
(0 -0 -76.903)
(0 -0 -96.2374)
(0 -0 -116.137)
(0 -0 -136.536)
(0 -0 -157.353)
(0 -0 -178.538)
(0 -0 -200.01)
(0 -0 -221.739)
(0 -0 -243.643)
(0 -0 -265.706)
(0 -0 -287.86)
(0 -0 -310.075)
(0 -0 -332.343)
(0 -0 -354.549)
(0 -0 -376.849)
(0 -0 -398.914)
(0 -0 -421.2)
(0 -0 -443.137)
(0 -0 -465.333)
(0 -0 -487.658)
(0 -0 88.3659)
(0 -0 86.1137)
(0 -0 86.314)
(0 -0 87.4934)
(0 -0 88.7787)
(0 -0 89.8003)
(0 -0 90.6957)
(0 -0 91.5686)
(0 -0 92.4232)
(0 -0 93.2452)
(0 -0 94.0185)
(0 -0 94.7138)
(0 -0 95.2848)
(0 -0 95.6712)
(0 -0 95.8029)
(0 -0 95.6039)
(0 -0 94.9964)
(0 -0 93.905)
(0 -0 92.2594)
(0 -0 89.9973)
(0 -0 87.0665)
(0 -0 83.4252)
(0 -0 79.0434)
(0 -0 73.9022)
(0 -0 67.9935)
(0 -0 61.3184)
(0 -0 53.8875)
(0 -0 45.718)
(0 -0 36.8343)
(0 -0 27.2644)
(0 -0 17.0426)
(0 -0 6.20252)
(0 -0 -5.21514)
(0 -0 -17.1756)
(0 -0 -29.6346)
(0 -0 -42.56)
(0 -0 -55.9051)
(0 -0 -69.6429)
(0 -0 -83.7267)
(0 -0 -98.132)
(0 -0 -112.82)
(0 -0 -127.758)
(0 -0 -142.936)
(0 -0 -158.279)
(0 -0 -173.856)
(0 -0 -189.501)
(0 -0 -205.4)
(0 -0 -221.331)
(0 -0 -237.488)
(0 -0 -253.944)
(0 -0 82.2897)
(0 -0 80.4709)
(0 -0 80.6616)
(0 -0 81.6964)
(0 -0 82.8783)
(0 -0 83.8346)
(0 -0 84.6619)
(0 -0 85.4573)
(0 -0 86.2289)
(0 -0 86.9701)
(0 -0 87.6826)
(0 -0 88.3658)
(0 -0 89.0113)
(0 -0 89.6029)
(0 -0 90.1175)
(0 -0 90.526)
(0 -0 90.7946)
(0 -0 90.8859)
(0 -0 90.7608)
(0 -0 90.3797)
(0 -0 89.7044)
(0 -0 88.699)
(0 -0 87.3313)
(0 -0 85.5731)
(0 -0 83.4011)
(0 -0 80.7966)
(0 -0 77.7463)
(0 -0 74.241)
(0 -0 70.2767)
(0 -0 65.8528)
(0 -0 60.9734)
(0 -0 55.6445)
(0 -0 49.8769)
(0 -0 43.6811)
(0 -0 37.0731)
(0 -0 30.0656)
(0 -0 22.678)
(0 -0 14.9244)
(0 -0 6.82547)
(0 -0 -1.60251)
(0 -0 -10.3424)
(0 -0 -19.3705)
(0 -0 -28.683)
(0 -0 -38.2373)
(0 -0 -48.0587)
(0 -0 -58.0758)
(0 -0 -68.3469)
(0 -0 -78.8058)
(0 -0 -89.4863)
(0 -0 -100.48)
(0 -0 76.5129)
(0 -0 75.0514)
(0 -0 75.2416)
(0 -0 76.1446)
(0 -0 77.2207)
(0 -0 78.1103)
(0 -0 78.876)
(0 -0 79.6088)
(0 -0 80.3185)
(0 -0 80.9978)
(0 -0 81.6491)
(0 -0 82.2773)
(0 -0 82.8842)
(0 -0 83.4682)
(0 -0 84.0246)
(0 -0 84.5458)
(0 -0 85.021)
(0 -0 85.4367)
(0 -0 85.777)
(0 -0 86.0239)
(0 -0 86.1581)
(0 -0 86.1598)
(0 -0 86.0088)
(0 -0 85.6856)
(0 -0 85.1719)
(0 -0 84.4505)
(0 -0 83.506)
(0 -0 82.3249)
(0 -0 80.8958)
(0 -0 79.2089)
(0 -0 77.2573)
(0 -0 75.0353)
(0 -0 72.5398)
(0 -0 69.769)
(0 -0 66.7233)
(0 -0 63.4038)
(0 -0 59.8137)
(0 -0 55.9567)
(0 -0 51.8377)
(0 -0 47.4627)
(0 -0 42.8364)
(0 -0 37.9698)
(0 -0 32.8631)
(0 -0 27.5344)
(0 -0 21.9767)
(0 -0 16.2141)
(0 -0 10.2354)
(0 -0 4.0517)
(0 -0 -2.33069)
(0 -0 -8.96637)
(0 -0 71.0354)
(0 -0 69.8655)
(0 -0 70.061)
(0 -0 70.8466)
(0 -0 71.8187)
(0 -0 72.6416)
(0 -0 73.3473)
(0 -0 74.0206)
(0 -0 74.6744)
(0 -0 75.3006)
(0 -0 75.8998)
(0 -0 76.4771)
(0 -0 77.0356)
(0 -0 77.5769)
(0 -0 78.1013)
(0 -0 78.6081)
(0 -0 79.0954)
(0 -0 79.5598)
(0 -0 79.9966)
(0 -0 80.3999)
(0 -0 80.7622)
(0 -0 81.0753)
(0 -0 81.3301)
(0 -0 81.517)
(0 -0 81.6262)
(0 -0 81.6476)
(0 -0 81.5715)
(0 -0 81.3883)
(0 -0 81.089)
(0 -0 80.6649)
(0 -0 80.1083)
(0 -0 79.4122)
(0 -0 78.5704)
(0 -0 77.5778)
(0 -0 76.4298)
(0 -0 75.1233)
(0 -0 73.6548)
(0 -0 72.0233)
(0 -0 70.2263)
(0 -0 68.2647)
(0 -0 66.1362)
(0 -0 63.8441)
(0 -0 61.386)
(0 -0 58.7672)
(0 -0 55.9852)
(0 -0 53.0455)
(0 -0 49.9471)
(0 -0 46.6894)
(0 -0 43.2759)
(0 -0 39.6905)
(0 -0 65.8557)
(0 -0 64.9217)
(0 -0 65.1254)
(0 -0 65.8073)
(0 -0 66.6793)
(0 -0 67.4366)
(0 -0 68.0847)
(0 -0 68.7006)
(0 -0 69.3005)
(0 -0 69.8765)
(0 -0 70.428)
(0 -0 70.9589)
(0 -0 71.4725)
(0 -0 71.9705)
(0 -0 72.4539)
(0 -0 72.9237)
(0 -0 73.3803)
(0 -0 73.8235)
(0 -0 74.2527)
(0 -0 74.6664)
(0 -0 75.0628)
(0 -0 75.4392)
(0 -0 75.7926)
(0 -0 76.1194)
(0 -0 76.4157)
(0 -0 76.6771)
(0 -0 76.8992)
(0 -0 77.0772)
(0 -0 77.2062)
(0 -0 77.2812)
(0 -0 77.2973)
(0 -0 77.2497)
(0 -0 77.1338)
(0 -0 76.9455)
(0 -0 76.6804)
(0 -0 76.3354)
(0 -0 75.9064)
(0 -0 75.3912)
(0 -0 74.7858)
(0 -0 74.0892)
(0 -0 73.2976)
(0 -0 72.4108)
(0 -0 71.4256)
(0 -0 70.3424)
(0 -0 69.1585)
(0 -0 67.875)
(0 -0 66.4883)
(0 -0 65.0021)
(0 -0 63.4065)
(0 -0 61.7146)
(0 -0 60.9709)
(0 -0 60.2265)
(0 -0 60.4392)
(0 -0 61.0299)
(0 -0 61.8066)
(0 -0 62.5002)
(0 -0 63.0934)
(0 -0 63.6546)
(0 -0 64.2025)
(0 -0 64.7303)
(0 -0 65.2362)
(0 -0 65.7234)
(0 -0 66.1948)
(0 -0 66.6519)
(0 -0 67.0959)
(0 -0 67.5277)
(0 -0 67.9481)
(0 -0 68.3576)
(0 -0 68.7566)
(0 -0 69.1452)
(0 -0 69.523)
(0 -0 69.8897)
(0 -0 70.2446)
(0 -0 70.5868)
(0 -0 70.9152)
(0 -0 71.2286)
(0 -0 71.5253)
(0 -0 71.8038)
(0 -0 72.062)
(0 -0 72.2978)
(0 -0 72.5088)
(0 -0 72.6928)
(0 -0 72.8472)
(0 -0 72.9699)
(0 -0 73.0584)
(0 -0 73.1107)
(0 -0 73.124)
(0 -0 73.0968)
(0 -0 73.0262)
(0 -0 72.9109)
(0 -0 72.7478)
(0 -0 72.5363)
(0 -0 72.2731)
(0 -0 71.9582)
(0 -0 71.5878)
(0 -0 71.1643)
(0 -0 70.6794)
(0 -0 70.144)
(0 -0 69.5369)
(0 -0 68.8889)
(0 -0 56.3772)
(0 -0 55.7839)
(0 -0 56.0046)
(0 -0 56.5158)
(0 -0 57.2028)
(0 -0 57.8347)
(0 -0 58.3761)
(0 -0 58.8855)
(0 -0 59.3839)
(0 -0 59.8655)
(0 -0 60.3278)
(0 -0 60.7732)
(0 -0 61.2044)
(0 -0 61.6228)
(0 -0 62.0293)
(0 -0 62.4249)
(0 -0 62.8101)
(0 -0 63.1856)
(0 -0 63.5519)
(0 -0 63.9093)
(0 -0 64.258)
(0 -0 64.5982)
(0 -0 64.9298)
(0 -0 65.253)
(0 -0 65.5676)
(0 -0 65.8737)
(0 -0 66.1709)
(0 -0 66.459)
(0 -0 66.7374)
(0 -0 67.0055)
(0 -0 67.2624)
(0 -0 67.5074)
(0 -0 67.7394)
(0 -0 67.9578)
(0 -0 68.1613)
(0 -0 68.3492)
(0 -0 68.5202)
(0 -0 68.6735)
(0 -0 68.8075)
(0 -0 68.9216)
(0 -0 69.0137)
(0 -0 69.0836)
(0 -0 69.1286)
(0 -0 69.1497)
(0 -0 69.1421)
(0 -0 69.1109)
(0 -0 69.0443)
(0 -0 68.9591)
(0 -0 68.8269)
(0 -0 68.6887)
(0 -0 52.0695)
(0 -0 51.5959)
(0 -0 51.8226)
(0 -0 52.2645)
(0 -0 52.8682)
(0 -0 53.4406)
(0 -0 53.9332)
(0 -0 54.394)
(0 -0 54.8454)
(0 -0 55.2832)
(0 -0 55.704)
(0 -0 56.1097)
(0 -0 56.5026)
(0 -0 56.8842)
(0 -0 57.2552)
(0 -0 57.6162)
(0 -0 57.968)
(0 -0 58.311)
(0 -0 58.6457)
(0 -0 58.9723)
(0 -0 59.2913)
(0 -0 59.6027)
(0 -0 59.9067)
(0 -0 60.2037)
(0 -0 60.494)
(0 -0 60.7777)
(0 -0 61.0551)
(0 -0 61.3264)
(0 -0 61.5916)
(0 -0 61.8506)
(0 -0 62.1032)
(0 -0 62.3494)
(0 -0 62.5889)
(0 -0 62.8216)
(0 -0 63.0473)
(0 -0 63.2658)
(0 -0 63.4766)
(0 -0 63.6798)
(0 -0 63.8742)
(0 -0 64.0601)
(0 -0 64.2359)
(0 -0 64.4024)
(0 -0 64.5568)
(0 -0 64.7016)
(0 -0 64.8311)
(0 -0 64.9529)
(0 -0 65.0531)
(0 -0 65.152)
(0 -0 65.2174)
(0 -0 65.2961)
(0 -0 48.0413)
(0 -0 47.6622)
(0 -0 47.8918)
(0 -0 48.2737)
(0 -0 48.8009)
(0 -0 49.3165)
(0 -0 49.7632)
(0 -0 50.1786)
(0 -0 50.5858)
(0 -0 50.9822)
(0 -0 51.3639)
(0 -0 51.7321)
(0 -0 52.0889)
(0 -0 52.4356)
(0 -0 52.7728)
(0 -0 53.1012)
(0 -0 53.4212)
(0 -0 53.7333)
(0 -0 54.038)
(0 -0 54.3354)
(0 -0 54.6257)
(0 -0 54.9092)
(0 -0 55.1861)
(0 -0 55.4567)
(0 -0 55.7213)
(0 -0 55.9803)
(0 -0 56.234)
(0 -0 56.4826)
(0 -0 56.7264)
(0 -0 56.9655)
(0 -0 57.1999)
(0 -0 57.4298)
(0 -0 57.6551)
(0 -0 57.8762)
(0 -0 58.093)
(0 -0 58.3059)
(0 -0 58.5145)
(0 -0 58.7193)
(0 -0 58.9196)
(0 -0 59.1159)
(0 -0 59.307)
(0 -0 59.4942)
(0 -0 59.6748)
(0 -0 59.852)
(0 -0 60.0199)
(0 -0 60.1874)
(0 -0 60.3395)
(0 -0 60.4985)
(0 -0 60.6307)
(0 -0 60.785)
(0 -0 44.285)
(0 -0 43.9805)
(0 -0 44.2096)
(0 -0 44.5396)
(0 -0 44.9973)
(0 -0 45.4589)
(0 -0 45.8626)
(0 -0 46.236)
(0 -0 46.6019)
(0 -0 46.9594)
(0 -0 47.3044)
(0 -0 47.6374)
(0 -0 47.9602)
(0 -0 48.274)
(0 -0 48.5795)
(0 -0 48.877)
(0 -0 49.1671)
(0 -0 49.4501)
(0 -0 49.7264)
(0 -0 49.9961)
(0 -0 50.2594)
(0 -0 50.5164)
(0 -0 50.7675)
(0 -0 51.0128)
(0 -0 51.2526)
(0 -0 51.4875)
(0 -0 51.7176)
(0 -0 51.9434)
(0 -0 52.1649)
(0 -0 52.3823)
(0 -0 52.5959)
(0 -0 52.8056)
(0 -0 53.0117)
(0 -0 53.2145)
(0 -0 53.4141)
(0 -0 53.6108)
(0 -0 53.8047)
(0 -0 53.9961)
(0 -0 54.1846)
(0 -0 54.3709)
(0 -0 54.5537)
(0 -0 54.7347)
(0 -0 54.9111)
(0 -0 55.0868)
(0 -0 55.2554)
(0 -0 55.4264)
(0 -0 55.5849)
(0 -0 55.7533)
(0 -0 55.8978)
(0 -0 56.0681)
(0 -0 40.792)
(0 -0 40.5465)
(0 -0 40.7713)
(0 -0 41.0568)
(0 -0 41.4519)
(0 -0 41.8627)
(0 -0 42.2262)
(0 -0 42.5608)
(0 -0 42.8884)
(0 -0 43.2097)
(0 -0 43.5204)
(0 -0 43.8205)
(0 -0 44.1115)
(0 -0 44.3947)
(0 -0 44.6704)
(0 -0 44.9391)
(0 -0 45.2011)
(0 -0 45.4568)
(0 -0 45.7064)
(0 -0 45.95)
(0 -0 46.1878)
(0 -0 46.4199)
(0 -0 46.6466)
(0 -0 46.868)
(0 -0 47.0845)
(0 -0 47.2964)
(0 -0 47.5042)
(0 -0 47.708)
(0 -0 47.9081)
(0 -0 48.1045)
(0 -0 48.2975)
(0 -0 48.4872)
(0 -0 48.6737)
(0 -0 48.8573)
(0 -0 49.0383)
(0 -0 49.217)
(0 -0 49.3934)
(0 -0 49.568)
(0 -0 49.7402)
(0 -0 49.9109)
(0 -0 50.0789)
(0 -0 50.2457)
(0 -0 50.4088)
(0 -0 50.5721)
(0 -0 50.7292)
(0 -0 50.8896)
(0 -0 51.0387)
(0 -0 51.1987)
(0 -0 51.3362)
(0 -0 51.5003)
(0 -0 37.5526)
(0 -0 37.354)
(0 -0 37.5708)
(0 -0 37.8179)
(0 -0 38.1574)
(0 -0 38.5207)
(0 -0 38.8469)
(0 -0 39.146)
(0 -0 39.4384)
(0 -0 39.7259)
(0 -0 40.0049)
(0 -0 40.2745)
(0 -0 40.5361)
(0 -0 40.7907)
(0 -0 41.0388)
(0 -0 41.2806)
(0 -0 41.5164)
(0 -0 41.7466)
(0 -0 41.9713)
(0 -0 42.1905)
(0 -0 42.4045)
(0 -0 42.6133)
(0 -0 42.8171)
(0 -0 43.0161)
(0 -0 43.2106)
(0 -0 43.4011)
(0 -0 43.5877)
(0 -0 43.7709)
(0 -0 43.9508)
(0 -0 44.1274)
(0 -0 44.3009)
(0 -0 44.4714)
(0 -0 44.6392)
(0 -0 44.8044)
(0 -0 44.9674)
(0 -0 45.1284)
(0 -0 45.2876)
(0 -0 45.4451)
(0 -0 45.6008)
(0 -0 45.7552)
(0 -0 45.9072)
(0 -0 46.0584)
(0 -0 46.2063)
(0 -0 46.3545)
(0 -0 46.4971)
(0 -0 46.6433)
(0 -0 46.7788)
(0 -0 46.9252)
(0 -0 47.0499)
(0 -0 47.201)
(0 -0 34.5561)
(0 -0 34.3955)
(0 -0 34.6005)
(0 -0 34.8146)
(0 -0 35.1051)
(0 -0 35.4245)
(0 -0 35.7161)
(0 -0 35.983)
(0 -0 36.243)
(0 -0 36.4996)
(0 -0 36.7493)
(0 -0 36.9908)
(0 -0 37.2252)
(0 -0 37.4535)
(0 -0 37.676)
(0 -0 37.8929)
(0 -0 38.1046)
(0 -0 38.3111)
(0 -0 38.5126)
(0 -0 38.7093)
(0 -0 38.9011)
(0 -0 39.0882)
(0 -0 39.2707)
(0 -0 39.4487)
(0 -0 39.6228)
(0 -0 39.7932)
(0 -0 39.9602)
(0 -0 40.1241)
(0 -0 40.285)
(0 -0 40.443)
(0 -0 40.5982)
(0 -0 40.7508)
(0 -0 40.9009)
(0 -0 41.0489)
(0 -0 41.1949)
(0 -0 41.3393)
(0 -0 41.482)
(0 -0 41.6234)
(0 -0 41.7633)
(0 -0 41.9019)
(0 -0 42.0386)
(0 -0 42.1745)
(0 -0 42.3074)
(0 -0 42.4407)
(0 -0 42.5688)
(0 -0 42.7003)
(0 -0 42.8217)
(0 -0 42.9536)
(0 -0 43.0647)
(0 -0 43.2016)
(0 -0 31.7912)
(0 -0 31.6615)
(0 -0 31.8517)
(0 -0 32.0377)
(0 -0 32.2856)
(0 -0 32.5647)
(0 -0 32.8243)
(0 -0 33.0619)
(0 -0 33.2926)
(0 -0 33.5208)
(0 -0 33.7436)
(0 -0 33.9595)
(0 -0 34.169)
(0 -0 34.3731)
(0 -0 34.572)
(0 -0 34.7661)
(0 -0 34.9555)
(0 -0 35.1402)
(0 -0 35.3204)
(0 -0 35.4962)
(0 -0 35.6676)
(0 -0 35.8345)
(0 -0 35.9973)
(0 -0 36.156)
(0 -0 36.311)
(0 -0 36.4628)
(0 -0 36.6115)
(0 -0 36.7574)
(0 -0 36.9007)
(0 -0 37.0415)
(0 -0 37.1797)
(0 -0 37.3156)
(0 -0 37.4493)
(0 -0 37.5812)
(0 -0 37.7113)
(0 -0 37.8401)
(0 -0 37.9675)
(0 -0 38.0939)
(0 -0 38.2188)
(0 -0 38.3428)
(0 -0 38.465)
(0 -0 38.5865)
(0 -0 38.7053)
(0 -0 38.8244)
(0 -0 38.9387)
(0 -0 39.0561)
(0 -0 39.1641)
(0 -0 39.282)
(0 -0 39.3801)
(0 -0 39.5029)
(0 -0 29.2456)
(0 -0 29.1414)
(0 -0 29.3149)
(0 -0 29.4774)
(0 -0 29.6883)
(0 -0 29.9307)
(0 -0 30.1611)
(0 -0 30.3721)
(0 -0 30.5763)
(0 -0 30.7787)
(0 -0 30.977)
(0 -0 31.1694)
(0 -0 31.3562)
(0 -0 31.5382)
(0 -0 31.7157)
(0 -0 31.8889)
(0 -0 32.0578)
(0 -0 32.2226)
(0 -0 32.3833)
(0 -0 32.5399)
(0 -0 32.6924)
(0 -0 32.8409)
(0 -0 32.9854)
(0 -0 33.1263)
(0 -0 33.2638)
(0 -0 33.3984)
(0 -0 33.5302)
(0 -0 33.6596)
(0 -0 33.7866)
(0 -0 33.9113)
(0 -0 34.0339)
(0 -0 34.1543)
(0 -0 34.2728)
(0 -0 34.3897)
(0 -0 34.5052)
(0 -0 34.6195)
(0 -0 34.7328)
(0 -0 34.8451)
(0 -0 34.9563)
(0 -0 35.0666)
(0 -0 35.1754)
(0 -0 35.2835)
(0 -0 35.389)
(0 -0 35.495)
(0 -0 35.5963)
(0 -0 35.7007)
(0 -0 35.7961)
(0 -0 35.9009)
(0 -0 35.9869)
(0 -0 36.0964)
(0 -0 26.9071)
(0 -0 26.8236)
(0 -0 26.9796)
(0 -0 27.1222)
(0 -0 27.3014)
(0 -0 27.511)
(0 -0 27.7145)
(0 -0 27.9016)
(0 -0 28.0821)
(0 -0 28.2612)
(0 -0 28.4372)
(0 -0 28.6084)
(0 -0 28.7746)
(0 -0 28.9366)
(0 -0 29.0946)
(0 -0 29.2487)
(0 -0 29.3991)
(0 -0 29.5457)
(0 -0 29.6886)
(0 -0 29.8277)
(0 -0 29.963)
(0 -0 30.0946)
(0 -0 30.2225)
(0 -0 30.347)
(0 -0 30.4684)
(0 -0 30.5872)
(0 -0 30.7035)
(0 -0 30.8177)
(0 -0 30.9298)
(0 -0 31.0398)
(0 -0 31.1478)
(0 -0 31.254)
(0 -0 31.3585)
(0 -0 31.4617)
(0 -0 31.5637)
(0 -0 31.6647)
(0 -0 31.7649)
(0 -0 31.8643)
(0 -0 31.9627)
(0 -0 32.0605)
(0 -0 32.1568)
(0 -0 32.2525)
(0 -0 32.3459)
(0 -0 32.4396)
(0 -0 32.5291)
(0 -0 32.6212)
(0 -0 32.7051)
(0 -0 32.7976)
(0 -0 32.8725)
(0 -0 32.9696)
(0 -0 24.7627)
(0 -0 24.6962)
(0 -0 24.8347)
(0 -0 24.9603)
(0 -0 25.1125)
(0 -0 25.2929)
(0 -0 25.472)
(0 -0 25.6377)
(0 -0 25.7971)
(0 -0 25.9553)
(0 -0 26.1113)
(0 -0 26.2633)
(0 -0 26.411)
(0 -0 26.5549)
(0 -0 26.6953)
(0 -0 26.8323)
(0 -0 26.9659)
(0 -0 27.096)
(0 -0 27.2227)
(0 -0 27.346)
(0 -0 27.4657)
(0 -0 27.5819)
(0 -0 27.6946)
(0 -0 27.8042)
(0 -0 27.911)
(0 -0 28.0154)
(0 -0 28.1176)
(0 -0 28.2179)
(0 -0 28.3162)
(0 -0 28.4128)
(0 -0 28.5076)
(0 -0 28.6008)
(0 -0 28.6925)
(0 -0 28.783)
(0 -0 28.8726)
(0 -0 28.9615)
(0 -0 29.0497)
(0 -0 29.1373)
(0 -0 29.2241)
(0 -0 29.3103)
(0 -0 29.3952)
(0 -0 29.4795)
(0 -0 29.5617)
(0 -0 29.6441)
(0 -0 29.7226)
(0 -0 29.8035)
(0 -0 29.8768)
(0 -0 29.958)
(0 -0 30.0229)
(0 -0 30.1085)
(0 -0 22.7994)
(0 -0 22.7468)
(0 -0 22.8684)
(0 -0 22.9793)
(0 -0 23.1087)
(0 -0 23.2634)
(0 -0 23.4205)
(0 -0 23.5672)
(0 -0 23.7078)
(0 -0 23.8474)
(0 -0 23.9855)
(0 -0 24.1204)
(0 -0 24.2515)
(0 -0 24.3793)
(0 -0 24.5039)
(0 -0 24.6255)
(0 -0 24.744)
(0 -0 24.8593)
(0 -0 24.9715)
(0 -0 25.0805)
(0 -0 25.1861)
(0 -0 25.2884)
(0 -0 25.3874)
(0 -0 25.4835)
(0 -0 25.577)
(0 -0 25.6683)
(0 -0 25.7577)
(0 -0 25.8453)
(0 -0 25.9313)
(0 -0 26.0156)
(0 -0 26.0983)
(0 -0 26.1796)
(0 -0 26.2597)
(0 -0 26.3388)
(0 -0 26.4171)
(0 -0 26.4949)
(0 -0 26.5721)
(0 -0 26.649)
(0 -0 26.7252)
(0 -0 26.8008)
(0 -0 26.8753)
(0 -0 26.9493)
(0 -0 27.0213)
(0 -0 27.0933)
(0 -0 27.1619)
(0 -0 27.2324)
(0 -0 27.2961)
(0 -0 27.3668)
(0 -0 27.4226)
(0 -0 27.4976)
(0 -0 21.0043)
(0 -0 20.9629)
(0 -0 21.0689)
(0 -0 21.167)
(0 -0 21.2771)
(0 -0 21.4094)
(0 -0 21.5467)
(0 -0 21.6764)
(0 -0 21.8006)
(0 -0 21.9237)
(0 -0 22.046)
(0 -0 22.1656)
(0 -0 22.282)
(0 -0 22.3954)
(0 -0 22.506)
(0 -0 22.6138)
(0 -0 22.7188)
(0 -0 22.821)
(0 -0 22.9202)
(0 -0 23.0163)
(0 -0 23.1093)
(0 -0 23.1991)
(0 -0 23.2858)
(0 -0 23.3697)
(0 -0 23.4512)
(0 -0 23.5307)
(0 -0 23.6085)
(0 -0 23.6847)
(0 -0 23.7595)
(0 -0 23.8327)
(0 -0 23.9046)
(0 -0 23.9752)
(0 -0 24.0447)
(0 -0 24.1134)
(0 -0 24.1815)
(0 -0 24.2492)
(0 -0 24.3166)
(0 -0 24.3837)
(0 -0 24.4502)
(0 -0 24.5163)
(0 -0 24.5814)
(0 -0 24.6459)
(0 -0 24.7087)
(0 -0 24.7713)
(0 -0 24.8308)
(0 -0 24.8919)
(0 -0 24.9468)
(0 -0 25.008)
(0 -0 25.0556)
(0 -0 25.1208)
(0 -0 19.3646)
(0 -0 19.3323)
(0 -0 19.4241)
(0 -0 19.5108)
(0 -0 19.6047)
(0 -0 19.7177)
(0 -0 19.8375)
(0 -0 19.9521)
(0 -0 20.0618)
(0 -0 20.1705)
(0 -0 20.2787)
(0 -0 20.3849)
(0 -0 20.4883)
(0 -0 20.589)
(0 -0 20.6871)
(0 -0 20.7828)
(0 -0 20.8758)
(0 -0 20.9662)
(0 -0 21.0539)
(0 -0 21.1386)
(0 -0 21.2203)
(0 -0 21.2989)
(0 -0 21.3745)
(0 -0 21.4476)
(0 -0 21.5184)
(0 -0 21.5873)
(0 -0 21.6547)
(0 -0 21.7206)
(0 -0 21.7853)
(0 -0 21.8486)
(0 -0 21.9106)
(0 -0 21.9715)
(0 -0 22.0315)
(0 -0 22.0909)
(0 -0 22.1498)
(0 -0 22.2085)
(0 -0 22.267)
(0 -0 22.3253)
(0 -0 22.3832)
(0 -0 22.4406)
(0 -0 22.4972)
(0 -0 22.5532)
(0 -0 22.6076)
(0 -0 22.6617)
(0 -0 22.713)
(0 -0 22.7656)
(0 -0 22.8125)
(0 -0 22.865)
(0 -0 22.9054)
(0 -0 22.9616)
(0 -0 17.8677)
(0 -0 17.8427)
(0 -0 17.9219)
(0 -0 17.9986)
(0 -0 18.0789)
(0 -0 18.1753)
(0 -0 18.2795)
(0 -0 18.3809)
(0 -0 18.478)
(0 -0 18.5742)
(0 -0 18.67)
(0 -0 18.7643)
(0 -0 18.8563)
(0 -0 18.9458)
(0 -0 19.033)
(0 -0 19.1179)
(0 -0 19.2004)
(0 -0 19.2804)
(0 -0 19.3578)
(0 -0 19.4324)
(0 -0 19.5041)
(0 -0 19.5728)
(0 -0 19.6386)
(0 -0 19.7019)
(0 -0 19.7631)
(0 -0 19.8226)
(0 -0 19.8807)
(0 -0 19.9375)
(0 -0 19.9931)
(0 -0 20.0475)
(0 -0 20.1007)
(0 -0 20.153)
(0 -0 20.2045)
(0 -0 20.2554)
(0 -0 20.3061)
(0 -0 20.3567)
(0 -0 20.4072)
(0 -0 20.4576)
(0 -0 20.5077)
(0 -0 20.5575)
(0 -0 20.6064)
(0 -0 20.6548)
(0 -0 20.7016)
(0 -0 20.7481)
(0 -0 20.792)
(0 -0 20.8368)
(0 -0 20.8767)
(0 -0 20.9213)
(0 -0 20.9552)
(0 -0 21.0032)
(0 -0 16.5013)
(0 -0 16.4823)
(0 -0 16.5506)
(0 -0 16.6183)
(0 -0 16.6873)
(0 -0 16.7696)
(0 -0 16.8602)
(0 -0 16.9498)
(0 -0 17.0361)
(0 -0 17.1213)
(0 -0 17.2064)
(0 -0 17.2904)
(0 -0 17.3723)
(0 -0 17.4521)
(0 -0 17.5297)
(0 -0 17.6052)
(0 -0 17.6784)
(0 -0 17.7493)
(0 -0 17.8177)
(0 -0 17.8834)
(0 -0 17.9462)
(0 -0 18.0061)
(0 -0 18.0632)
(0 -0 18.1179)
(0 -0 18.1706)
(0 -0 18.2216)
(0 -0 18.2714)
(0 -0 18.3201)
(0 -0 18.3676)
(0 -0 18.4141)
(0 -0 18.4595)
(0 -0 18.504)
(0 -0 18.5479)
(0 -0 18.5913)
(0 -0 18.6347)
(0 -0 18.6781)
(0 -0 18.7215)
(0 -0 18.7648)
(0 -0 18.808)
(0 -0 18.8509)
(0 -0 18.893)
(0 -0 18.9345)
(0 -0 18.9746)
(0 -0 19.0142)
(0 -0 19.0515)
(0 -0 19.0894)
(0 -0 19.1229)
(0 -0 19.1604)
(0 -0 19.1885)
(0 -0 19.2291)
(0 -0 15.2541)
(0 -0 15.24)
(0 -0 15.2989)
(0 -0 15.3585)
(0 -0 15.4181)
(0 -0 15.4885)
(0 -0 15.5673)
(0 -0 15.6466)
(0 -0 15.7235)
(0 -0 15.7993)
(0 -0 15.875)
(0 -0 15.95)
(0 -0 16.0233)
(0 -0 16.0945)
(0 -0 16.1638)
(0 -0 16.2311)
(0 -0 16.2962)
(0 -0 16.3592)
(0 -0 16.4196)