/*--------------------------------*- C++ -*----------------------------------*\
  =========                 |
  \\      /  F ield         | OpenFOAM: The Open Source CFD Toolbox
   \\    /   O peration     | Website:  https://openfoam.org
    \\  /    A nd           | Version:  7
     \\/     M anipulation  |
\*---------------------------------------------------------------------------*/
FoamFile
{
    version     2.0;
    format      ascii;
    class       surfaceScalarField;
    location    "0.15";
    object      ddtCorrDdt0(phi);
}
// * * * * * * * * * * * * * * * * * * * * * * * * * * * * * * * * * * * * * //

dimensions      [0 3 -2 0 0 0 0];

internalField   nonuniform List<scalar> 
139350
(
-5.47763e-10
5.47969e-10
-1.35167e-09
8.04541e-10
-2.01942e-09
6.68302e-10
-2.4075e-09
3.88676e-10
-2.56979e-09
1.62868e-10
-2.58045e-09
1.12271e-11
-2.49549e-09
-8.43546e-11
-2.34809e-09
-1.46718e-10
-2.1472e-09
-2.00259e-10
-1.88565e-09
-2.60727e-10
-1.55078e-09
-3.34234e-10
-1.13129e-09
-4.1874e-10
-6.23055e-10
-5.07626e-10
-2.88627e-11
-5.9359e-10
6.43536e-10
-6.7166e-10
1.38357e-09
-7.39452e-10
2.18115e-09
-7.96576e-10
3.02594e-09
-8.44189e-10
3.91108e-09
-8.84075e-10
4.82989e-09
-9.18217e-10
5.77916e-09
-9.48422e-10
6.75649e-09
-9.76721e-10
7.76185e-09
-1.00456e-09
8.79585e-09
-1.0334e-09
9.86098e-09
-1.06411e-09
1.09589e-08
-1.09735e-09
1.20933e-08
-1.13331e-09
1.32656e-08
-1.17173e-09
1.44785e-08
-1.21197e-09
1.57312e-08
-1.25219e-09
1.70229e-08
-1.29083e-09
1.83468e-08
-1.32335e-09
1.96949e-08
-1.3469e-09
2.10472e-08
-1.35206e-09
2.23822e-08
-1.33362e-09
2.36579e-08
-1.27561e-09
2.48221e-08
-1.16322e-09
2.5801e-08
-9.78654e-10
2.6471e-08
-6.6925e-10
2.67152e-08
-2.4367e-10
2.6252e-08
4.64225e-10
2.48871e-08
1.36536e-09
2.20314e-08
2.85738e-09
1.72382e-08
4.79298e-09
9.34247e-09
7.89745e-09
-2.83952e-09
1.21815e-08
-2.19222e-08
1.90839e-08
-5.2339e-08
3.04168e-08
-9.02838e-08
3.79462e-08
1.82625e-07
-2.72909e-07
-8.25376e-10
1.37359e-09
-2.45624e-09
2.4361e-09
-3.81477e-09
2.02742e-09
-4.27849e-09
8.53041e-10
-3.97715e-09
-1.3784e-10
-3.18513e-09
-7.80184e-10
-2.08701e-09
-1.18182e-09
-7.83097e-10
-1.44988e-09
7.02857e-10
-1.68552e-09
2.39973e-09
-1.95671e-09
4.35329e-09
-2.2871e-09
6.60057e-09
-2.66522e-09
9.1565e-09
-3.06289e-09
1.20145e-08
-3.45091e-09
1.51527e-08
-3.80904e-09
1.85413e-08
-4.12742e-09
2.21501e-08
-4.40431e-09
2.59511e-08
-4.64451e-09
2.99236e-08
-4.85548e-09
3.40522e-08
-5.04616e-09
3.83299e-08
-5.22525e-09
4.27558e-08
-5.40189e-09
4.73357e-08
-5.58365e-09
5.2081e-08
-5.778e-09
5.70085e-08
-5.99048e-09
6.21379e-08
-6.22623e-09
6.74944e-08
-6.4886e-09
7.31032e-08
-6.77989e-09
7.89931e-08
-7.10093e-09
8.51911e-08
-7.44958e-09
9.17245e-08
-7.82326e-09
9.86151e-08
-8.21341e-09
1.05881e-07
-8.61182e-09
1.13528e-07
-8.9986e-09
1.21553e-07
-9.35664e-09
1.29925e-07
-9.6475e-09
1.38596e-07
-9.83343e-09
1.47467e-07
-9.84956e-09
1.56399e-07
-9.60031e-09
1.65151e-07
-8.99538e-09
1.73403e-07
-7.78649e-09
1.80619e-07
-5.85055e-09
1.86077e-07
-2.59815e-09
1.88608e-07
2.26182e-09
1.86511e-07
9.99587e-09
1.76525e-07
2.21675e-08
1.57091e-07
3.85192e-08
1.08079e-07
7.94291e-08
4.93108e-08
9.67154e-08
4.14755e-07
-1.82818e-07
-6.97688e-10
2.07157e-09
-2.59392e-09
4.33307e-09
-4.4399e-09
3.87404e-09
-5.07525e-09
1.48907e-09
-4.36751e-09
-8.44913e-10
-2.68232e-09
-2.46472e-09
-3.63363e-10
-3.50007e-09
2.37805e-09
-4.19048e-09
5.46497e-09
-4.77171e-09
8.92175e-09
-5.41254e-09
1.28158e-08
-6.18045e-09
1.72104e-08
-7.05895e-09
2.21387e-08
-7.99046e-09
2.76006e-08
-8.91214e-09
3.35699e-08
-9.77751e-09
4.00048e-08
-1.05616e-08
4.68589e-08
-1.12573e-08
5.40876e-08
-1.18725e-08
6.16556e-08
-1.24223e-08
6.95364e-08
-1.29264e-08
7.77171e-08
-1.3405e-08
8.61953e-08
-1.38794e-08
9.49811e-08
-1.43685e-08
1.04095e-07
-1.4891e-08
1.13568e-07
-1.54622e-08
1.23439e-07
-1.60967e-08
1.33757e-07
-1.68056e-08
1.44576e-07
-1.75984e-08
1.55957e-07
-1.84812e-08
1.67964e-07
-1.94559e-08
1.80663e-07
-2.05212e-08
1.9412e-07
-2.16694e-08
2.08396e-07
-2.28863e-08
2.23546e-07
-2.41482e-08
2.39612e-07
-2.54213e-08
2.56616e-07
-2.66511e-08
2.74557e-07
-2.77742e-08
2.93373e-07
-2.86645e-08
3.12994e-07
-2.92205e-08
3.33143e-07
-2.91442e-08
3.53638e-07
-2.828e-08
3.73742e-07
-2.59545e-08
3.92935e-07
-2.17888e-08
4.09613e-07
-1.44164e-08
4.22339e-07
-2.72854e-09
4.26199e-07
1.83075e-08
4.22518e-07
4.22015e-08
3.79889e-07
1.22058e-07
3.24489e-07
1.52117e-07
6.26847e-07
1.12397e-07
-4.70466e-10
2.54234e-09
-2.25082e-09
6.1142e-09
-4.42548e-09
6.04936e-09
-5.5758e-09
2.64011e-09
-5.07372e-09
-1.34629e-09
-3.07195e-09
-4.46581e-09
3.92605e-11
-6.61055e-09
3.92593e-09
-8.0763e-09
8.40503e-09
-9.25003e-09
1.34399e-08
-1.04465e-08
1.9079e-08
-1.18187e-08
2.5392e-08
-1.3371e-08
3.24291e-08
-1.50268e-08
4.02075e-08
-1.66898e-08
4.87128e-08
-1.82819e-08
5.79068e-08
-1.97549e-08
6.77397e-08
-2.10889e-08
7.81573e-08
-2.22893e-08
8.9112e-08
-2.33757e-08
1.00565e-07
-2.43783e-08
1.12491e-07
-2.53306e-08
1.24882e-07
-2.62693e-08
1.37743e-07
-2.72288e-08
1.51096e-07
-2.82435e-08
1.64979e-07
-2.93435e-08
1.79441e-07
-3.05582e-08
1.94549e-07
-3.19118e-08
2.10377e-07
-3.34262e-08
2.27015e-07
-3.51176e-08
2.44557e-07
-3.69974e-08
2.63105e-07
-3.90688e-08
2.82767e-07
-4.1331e-08
3.03647e-07
-4.37648e-08
3.2585e-07
-4.63504e-08
3.49466e-07
-4.90357e-08
3.74572e-07
-5.17571e-08
4.01228e-07
-5.44287e-08
4.29417e-07
-5.68535e-08
4.59155e-07
-5.89578e-08
4.90181e-07
-6.01698e-08
5.22433e-07
-6.05304e-08
5.55146e-07
-5.86676e-08
5.87913e-07
-5.45532e-08
6.1905e-07
-4.55537e-08
6.47404e-07
-3.10806e-08
6.67101e-07
-1.38991e-09
6.80928e-07
2.83757e-08
6.56662e-07
1.46324e-07
6.04881e-07
2.03899e-07
7.87785e-07
4.43943e-07
-3.12217e-10
2.85489e-09
-1.80313e-09
7.60592e-09
-4.08867e-09
8.33559e-09
-5.8952e-09
4.44737e-09
-6.2005e-09
-1.04026e-09
-4.72753e-09
-5.93806e-09
-1.67684e-09
-9.66047e-09
2.60944e-09
-1.23617e-08
7.8532e-09
-1.4493e-08
1.39151e-08
-1.65073e-08
2.07693e-08
-1.86722e-08
2.84474e-08
-2.10482e-08
3.69911e-08
-2.35697e-08
4.64296e-08
-2.61276e-08
5.67704e-08
-2.86217e-08
6.7998e-08
-3.09818e-08
8.00792e-08
-3.31688e-08
9.29675e-08
-3.51769e-08
1.06614e-07
-3.70213e-08
1.20973e-07
-3.87364e-08
1.36009e-07
-4.03652e-08
1.51699e-07
-4.19586e-08
1.68038e-07
-4.35674e-08
1.8504e-07
-4.52444e-08
2.02736e-07
-4.7038e-08
2.21175e-07
-4.89966e-08
2.40426e-07
-5.11619e-08
2.60575e-07
-5.3574e-08
2.81722e-07
-5.62638e-08
3.03983e-07
-5.92579e-08
3.27484e-07
-6.25681e-08
3.5236e-07
-6.62068e-08
3.78749e-07
-7.01515e-08
4.06792e-07
-7.43935e-08
4.36621e-07
-7.88633e-08
4.68357e-07
-8.34923e-08
5.02108e-07
-8.81786e-08
5.37901e-07
-9.26462e-08
5.75814e-07
-9.68698e-08
6.15628e-07
-9.99836e-08
6.57332e-07
-1.02233e-07
7.00242e-07
-1.01577e-07
7.43936e-07
-9.82451e-08
7.86821e-07
-8.84385e-08
8.27789e-07
-7.20471e-08
8.60948e-07
-3.45492e-08
8.87929e-07
1.39609e-09
8.83189e-07
1.51064e-07
8.34373e-07
2.52718e-07
9.03222e-07
7.18936e-07
-2.58303e-10
3.11354e-09
-1.47455e-09
8.823e-09
-3.68386e-09
1.05456e-08
-6.01146e-09
6.77573e-09
-7.33925e-09
2.88266e-10
-7.00721e-09
-6.26937e-09
-4.87655e-09
-1.17903e-08
-1.12135e-09
-1.6116e-08
3.99615e-09
-1.96097e-08
1.02689e-08
-2.27791e-08
1.75805e-08
-2.5983e-08
2.5884e-08
-2.93508e-08
3.51709e-08
-3.28559e-08
4.54526e-08
-3.64085e-08
5.67471e-08
-3.99152e-08
6.90677e-08
-4.33016e-08
8.24162e-08
-4.65161e-08
9.67767e-08
-4.95366e-08
1.12121e-07
-5.23641e-08
1.2841e-07
-5.50249e-08
1.45608e-07
-5.75618e-08
1.63683e-07
-6.00326e-08
1.82617e-07
-6.25004e-08
2.02407e-07
-6.50342e-08
2.23071e-07
-6.7701e-08
2.44646e-07
-7.05699e-08
2.67188e-07
-7.37031e-08
2.90777e-07
-7.71625e-08
3.15512e-07
-8.09975e-08
3.41511e-07
-8.52561e-08
3.68906e-07
-8.99619e-08
3.97847e-07
-9.51469e-08
4.28485e-07
-1.00789e-07
4.60986e-07
-1.06894e-07
4.95506e-07
-1.13381e-07
5.32191e-07
-1.20177e-07
5.71185e-07
-1.27171e-07
6.12545e-07
-1.34006e-07
6.56381e-07
-1.40705e-07
7.02528e-07
-1.4613e-07
7.50964e-07
-1.50667e-07
8.01129e-07
-1.51742e-07
8.52505e-07
-1.49619e-07
9.03659e-07
-1.39593e-07
9.53391e-07
-1.21778e-07
9.96294e-07
-7.74522e-08
1.03129e-06
-3.35958e-08
1.04196e-06
1.40388e-07
9.98828e-07
2.95855e-07
9.87355e-07
9.14695e-07
-2.71381e-10
3.38528e-09
-1.32979e-09
9.88225e-09
-3.39421e-09
1.26108e-08
-5.99412e-09
9.37642e-09
-8.17449e-09
2.4694e-09
-9.11167e-09
-5.33145e-09
-8.3717e-09
-1.25295e-08
-5.87476e-09
-1.8612e-08
-1.74337e-09
-2.37402e-08
3.8468e-09
-2.83682e-08
1.07411e-08
-3.28765e-08
1.88234e-08
-3.74321e-08
2.80138e-08
-4.20455e-08
3.82716e-08
-4.66656e-08
4.95945e-08
-5.12371e-08
6.20084e-08
-5.57147e-08
7.55516e-08
-6.0058e-08
9.02544e-08
-6.42386e-08
1.06131e-07
-6.82396e-08
1.23176e-07
-7.20685e-08
1.41369e-07
-7.57539e-08
1.60685e-07
-7.9348e-08
1.81102e-07
-8.29161e-08
2.02604e-07
-8.65362e-08
2.25193e-07
-9.02888e-08
2.48885e-07
-9.42611e-08
2.73718e-07
-9.85348e-08
2.99751e-07
-1.03195e-07
3.27065e-07
-1.0831e-07
3.55765e-07
-1.13955e-07
3.85971e-07
-1.20167e-07
4.17829e-07
-1.27004e-07
4.51488e-07
-1.34446e-07
4.87115e-07
-1.42521e-07
5.24875e-07
-1.5114e-07
5.64922e-07
-1.60224e-07
6.07416e-07
-1.69664e-07
6.5243e-07
-1.79018e-07
7.0008e-07
-1.88354e-07
7.50251e-07
-1.96301e-07
8.02877e-07
-2.03292e-07
8.57518e-07
-2.06383e-07
9.13542e-07
-2.05642e-07
9.69717e-07
-1.95767e-07
1.0245e-06
-1.76563e-07
1.07356e-06
-1.26509e-07
1.11268e-06
-7.27125e-08
1.13322e-06
1.19843e-07
1.09875e-06
3.30331e-07
1.04771e-06
1.0384e-06
-3.06424e-10
3.69207e-09
-1.32321e-09
1.08999e-08
-3.28052e-09
1.45688e-08
-5.96715e-09
1.20638e-08
-8.67232e-09
5.17535e-09
-1.06181e-08
-3.38492e-09
-1.12396e-08
-1.19072e-08
-1.02568e-08
-1.95938e-08
-7.61571e-09
-2.63805e-08
-3.38195e-09
-3.26008e-08
2.33109e-09
-3.85887e-08
9.39433e-09
-4.44944e-08
1.76802e-08
-5.03305e-08
2.70884e-08
-5.6073e-08
3.75705e-08
-6.17182e-08
4.91364e-08
-6.72798e-08
6.18429e-08
-7.27631e-08
7.57643e-08
-7.81592e-08
9.09705e-08
-8.34445e-08
1.07508e-07
-8.86052e-08
1.254e-07
-9.36448e-08
1.44649e-07
-9.85958e-08
1.65245e-07
-1.03512e-07
1.87177e-07
-1.08467e-07
2.10437e-07
-1.13547e-07
2.35025e-07
-1.18848e-07
2.60958e-07
-1.24466e-07
2.88269e-07
-1.30506e-07
3.17014e-07
-1.37054e-07
3.47269e-07
-1.44209e-07
3.7913e-07
-1.52027e-07
4.12717e-07
-1.60591e-07
4.48164e-07
-1.69892e-07
4.85619e-07
-1.79976e-07
5.25237e-07
-1.90757e-07
5.67161e-07
-2.02148e-07
6.11549e-07
-2.14051e-07
6.58472e-07
-2.25941e-07
7.08035e-07
-2.37917e-07
7.60159e-07
-2.48424e-07
8.14718e-07
-2.5785e-07
8.71375e-07
-2.63039e-07
9.29382e-07
-2.63647e-07
9.87718e-07
-2.54103e-07
1.04446e-06
-2.33307e-07
1.09646e-06
-1.78506e-07
1.13693e-06
-1.13181e-07
1.16274e-06
9.40355e-08
1.13832e-06
3.54749e-07
1.08652e-06
1.09951e-06
-3.36602e-10
4.02905e-09
-1.38308e-09
1.19473e-08
-3.31403e-09
1.65005e-08
-6.01685e-09
1.47675e-08
-8.97117e-09
8.13047e-09
-1.15348e-08
-8.20518e-10
-1.31631e-08
-1.02781e-08
-1.34998e-08
-1.92562e-08
-1.23712e-08
-2.75082e-08
-9.7293e-09
-3.52416e-08
-5.6037e-09
-4.27134e-08
-8.08333e-11
-5.00163e-08
6.71074e-09
-5.71212e-08
1.46353e-08
-6.39968e-08
2.35952e-08
-7.0677e-08
3.35634e-08
-7.72472e-08
4.45897e-08
-8.37881e-08
5.67748e-08
-9.03436e-08
7.02396e-08
-9.69079e-08
8.5092e-08
-1.03457e-07
1.01415e-07
-1.09966e-07
1.19259e-07
-1.1644e-07
1.38654e-07
-1.22905e-07
1.59609e-07
-1.29421e-07
1.82126e-07
-1.36063e-07
2.06204e-07
-1.42926e-07
2.31849e-07
-1.50109e-07
2.59073e-07
-1.57729e-07
2.87904e-07
-1.65884e-07
3.18388e-07
-1.74692e-07
3.50587e-07
-1.84225e-07
3.84585e-07
-1.94589e-07
4.20485e-07
-2.0579e-07
4.58399e-07
-2.1789e-07
4.9846e-07
-2.30816e-07
5.40777e-07
-2.44466e-07
5.8549e-07
-2.58762e-07
6.32656e-07
-2.73106e-07
6.82345e-07
-2.87605e-07
7.34503e-07
-3.00581e-07
7.88934e-07
-3.1228e-07
8.45388e-07
-3.19493e-07
9.03009e-07
-3.21266e-07
9.60972e-07
-3.12067e-07
1.01709e-06
-2.89419e-07
1.06909e-06
-2.30514e-07
1.10893e-06
-1.53016e-07
1.13674e-06
6.62284e-08
1.12254e-06
3.68948e-07
1.10454e-06
1.10451e-06
-3.56291e-10
4.38573e-09
-1.45734e-09
1.30492e-08
-3.42738e-09
1.84713e-08
-6.15852e-09
1.74994e-08
-9.21872e-09
1.11915e-08
-1.20873e-08
2.04882e-09
-1.43057e-08
-8.05876e-09
-1.55412e-08
-1.80197e-08
-1.55927e-08
-2.74558e-08
-1.43524e-08
-3.64807e-08
-1.17801e-08
-4.52849e-08
-7.90269e-09
-5.38927e-08
-2.81737e-09
-6.22057e-08
3.33501e-09
-7.01484e-08
1.04226e-08
-7.77635e-08
1.83762e-08
-8.52001e-08
2.72186e-08
-9.26291e-08
3.70528e-08
-1.00177e-07
4.80322e-08
-1.07886e-07
6.03184e-08
-1.15742e-07
7.4057e-08
-1.23704e-07
8.9361e-08
-1.31743e-07
1.06312e-07
-1.39855e-07
1.24962e-07
-1.4807e-07
1.45344e-07
-1.56443e-07
1.67475e-07
-1.65056e-07
1.91366e-07
-1.73999e-07
2.17025e-07
-1.83387e-07
2.44462e-07
-1.9332e-07
2.73698e-07
-2.03927e-07
3.04763e-07
-2.15289e-07
3.37703e-07
-2.27529e-07
3.72582e-07
-2.40667e-07
4.09468e-07
-2.54775e-07
4.48456e-07
-2.69802e-07
4.89614e-07
-2.85624e-07
5.33043e-07
-3.02191e-07
5.78776e-07
-3.18838e-07
6.26831e-07
-3.3566e-07
6.77167e-07
-3.50916e-07
7.29514e-07
-3.64626e-07
7.83685e-07
-3.73663e-07
8.38753e-07
-3.76332e-07
8.94031e-07
-3.67346e-07
9.47238e-07
-3.42625e-07
9.9669e-07
-2.79966e-07
1.03429e-06
-1.90616e-07
1.06183e-06
3.86926e-08
1.05729e-06
3.73489e-07
1.10273e-06
1.0591e-06
-3.69763e-10
4.75589e-09
-1.527e-09
1.42074e-08
-3.56824e-09
2.05134e-08
-6.3617e-09
2.02937e-08
-9.49032e-09
1.43209e-08
-1.24946e-08
5.05392e-09
-1.49951e-08
-5.55744e-09
-1.67246e-08
-1.62892e-08
-1.75143e-08
-2.66651e-08
-1.72566e-08
-3.67372e-08
-1.58876e-08
-4.6653e-08
-1.33959e-08
-5.63834e-08
-9.84574e-09
-6.5755e-08
-5.36816e-09
-7.46251e-08
-1.14073e-10
-8.30166e-08
5.80933e-09
-9.11226e-08
1.23873e-08
-9.92057e-08
1.97039e-08
-1.07493e-07
2.79206e-08
-1.16101e-07
3.72321e-08
-1.25053e-07
4.78341e-08
-1.34305e-07
5.98967e-08
-1.43805e-07
7.35585e-08
-1.53516e-07
8.89244e-08
-1.63435e-07
1.06071e-07
-1.73589e-07
1.25051e-07
-1.84036e-07
1.45899e-07
-1.94846e-07
1.68635e-07
-2.06121e-07
1.93269e-07
-2.17954e-07
2.19811e-07
-2.30468e-07
2.48271e-07
-2.43747e-07
2.78661e-07
-2.57919e-07
3.1101e-07
-2.73015e-07
3.45342e-07
-2.89106e-07
3.81708e-07
-3.06166e-07
4.2013e-07
-3.24046e-07
4.60659e-07
-3.42719e-07
5.03296e-07
-3.61475e-07
5.47997e-07
-3.80359e-07
5.94722e-07
-3.9764e-07
6.4313e-07
-4.13033e-07
6.93066e-07
-4.23598e-07
7.43597e-07
-4.26862e-07
7.94073e-07
-4.17822e-07
8.42378e-07
-3.90928e-07
8.87104e-07
-3.24693e-07
9.20835e-07
-2.24345e-07
9.46816e-07
1.27122e-08
9.50636e-07
3.69671e-07
1.08266e-06
9.70704e-07
-3.81613e-10
5.13791e-09
-1.59165e-09
1.54183e-08
-3.71335e-09
2.26359e-08
-6.59311e-09
2.31743e-08
-9.79773e-09
1.75264e-08
-1.28814e-08
8.1384e-09
-1.55066e-08
-2.93139e-09
-1.74588e-08
-1.43359e-08
-1.8621e-08
-2.5502e-08
-1.89217e-08
-3.64354e-08
-1.83096e-08
-4.72642e-08
-1.67677e-08
-5.79243e-08
-1.43463e-08
-6.81755e-08
-1.11708e-08
-7.77998e-08
-7.40547e-09
-8.67808e-08
-3.19024e-09
-9.5337e-08
1.41974e-09
-1.03814e-07
6.4753e-09
-1.12547e-07
1.21234e-08
-1.21748e-07
1.85664e-08
-1.31495e-07
2.60265e-08
-1.41764e-07
3.47131e-08
-1.52491e-07
4.48106e-08
-1.63612e-07
5.6471e-08
-1.75095e-07
6.9817e-08
-1.86933e-07
8.49412e-08
-1.99159e-07
1.01913e-07
-2.11816e-07
1.20778e-07
-2.24985e-07
1.41563e-07
-2.38737e-07
1.64279e-07
-2.53184e-07
1.88932e-07
-2.68398e-07
2.15514e-07
-2.845e-07
2.44028e-07
-3.01527e-07
2.7446e-07
-3.19539e-07
3.06821e-07
-3.38526e-07
3.41092e-07
-3.58317e-07
3.77266e-07
-3.78892e-07
4.15314e-07
-3.99522e-07
4.55123e-07
-4.20168e-07
4.96646e-07
-4.39163e-07
5.39487e-07
-4.55872e-07
5.83488e-07
-4.67598e-07
6.27769e-07
-4.71141e-07
6.71657e-07
-4.61711e-07
7.13351e-07
-4.3262e-07
7.51573e-07
-3.62915e-07
7.80245e-07
-2.53016e-07
8.03491e-07
-1.05342e-08
8.14134e-07
3.5903e-07
1.04685e-06
8.49951e-07
-3.93898e-10
5.53222e-09
-1.65556e-09
1.6681e-08
-3.85869e-09
2.48398e-08
-6.83503e-09
2.61515e-08
-1.01297e-08
2.08219e-08
-1.32875e-08
1.1297e-08
-1.59827e-08
-2.35307e-10
-1.8029e-08
-1.22886e-08
-1.93468e-08
-2.41834e-08
-1.99027e-08
-3.58782e-08
-1.9675e-08
-4.7491e-08
-1.86627e-08
-5.89357e-08
-1.69225e-08
-6.99147e-08
-1.45859e-08
-8.01355e-08
-1.18328e-08
-8.95328e-08
-8.832e-09
-9.8337e-08
-5.67703e-09
-1.06968e-07
-2.35595e-09
-1.15868e-07
1.24889e-09
-1.25351e-07
5.32569e-09
-1.35571e-07
1.00983e-08
-1.46535e-07
1.57914e-08
-1.58183e-07
2.26134e-08
-1.70433e-07
3.07465e-08
-1.83227e-07
4.03471e-08
-1.96532e-07
5.15419e-08
-2.10353e-07
6.44332e-08
-2.24706e-07
7.90941e-08
-2.39645e-07
9.55748e-08
-2.55217e-07
1.139e-07
-2.71509e-07
1.3408e-07
-2.88577e-07
1.56102e-07
-3.06521e-07
1.79951e-07
-3.25375e-07
2.05592e-07
-3.45179e-07
2.33e-07
-3.65932e-07
2.62121e-07
-3.87438e-07
2.92898e-07
-4.09668e-07
3.25273e-07
-4.31896e-07
3.59072e-07
-4.53966e-07
3.94229e-07
-4.74318e-07
4.30314e-07
-4.91957e-07
4.67144e-07
-5.04427e-07
5.03931e-07
-5.07926e-07
5.39967e-07
-4.97747e-07
5.73812e-07
-4.66463e-07
6.04374e-07
-3.93478e-07
6.27054e-07
-2.75695e-07
6.4682e-07
-3.02999e-08
6.62521e-07
3.43331e-07
9.98385e-07
7.10984e-07
-4.06935e-10
5.93958e-09
-1.72148e-09
1.79965e-08
-4.00662e-09
2.71258e-08
-7.08299e-09
2.92288e-08
-1.04762e-08
2.4216e-08
-1.37155e-08
1.45372e-08
-1.64726e-08
2.52277e-09
-1.85703e-08
-1.01898e-08
-1.99476e-08
-2.28051e-08
-2.05965e-08
-3.52282e-08
-2.05204e-08
-4.75662e-08
-1.97398e-08
-5.97152e-08
-1.83283e-08
-7.13253e-08
-1.64322e-08
-8.20308e-08
-1.42496e-08
-9.17143e-08
-1.1975e-08
-1.00611e-07
-9.73536e-09
-1.09206e-07
-7.5549e-09
-1.18047e-07
-5.34913e-09
-1.27556e-07
-2.95683e-09
-1.37962e-07
-1.69404e-10
-1.49322e-07
3.23054e-09
-1.61582e-07
7.45233e-09
-1.74654e-07
1.2689e-08
-1.88463e-07
1.91113e-08
-2.02953e-07
2.68646e-08
-2.18106e-07
3.60719e-08
-2.33912e-07
4.68267e-08
-2.50399e-07
5.91983e-08
-2.67587e-07
7.32262e-08
-2.85536e-07
8.89286e-08
-3.04278e-07
1.06294e-07
-3.23886e-07
1.25302e-07
-3.44382e-07
1.45901e-07
-3.65778e-07
1.68041e-07
-3.8807e-07
1.91644e-07
-4.11041e-07
2.16611e-07
-4.34635e-07
2.42857e-07
-4.58141e-07
2.70163e-07
-4.81271e-07
2.98433e-07
-5.02588e-07
3.27232e-07
-5.20755e-07
3.56332e-07
-5.33527e-07
3.85065e-07
-5.36657e-07
4.12696e-07
-5.25378e-07
4.38153e-07
-4.91919e-07
4.60601e-07
-4.15926e-07
4.76912e-07
-2.92005e-07
4.9288e-07
-4.62675e-08
5.11968e-07
3.24245e-07
9.40594e-07
5.69759e-07
-4.20545e-10
6.36055e-09
-1.7902e-09
1.93671e-08
-4.15931e-09
2.94958e-08
-7.33776e-09
3.24081e-08
-1.08336e-08
2.77126e-08
-1.41602e-08
1.78647e-08
-1.69835e-08
5.34694e-09
-1.91262e-08
-8.04606e-09
-2.05337e-08
-2.13966e-08
-2.12095e-08
-3.45513e-08
-2.11721e-08
-4.76026e-08
-2.04584e-08
-6.04279e-08
-1.91588e-08
-7.2624e-08
-1.74365e-08
-8.37522e-08
-1.55081e-08
-9.36417e-08
-1.35892e-08
-1.02529e-07
-1.18317e-08
-1.10962e-07
-1.02882e-08
-1.1959e-07
-8.90461e-09
-1.28938e-07
-7.54538e-09
-1.39321e-07
-6.0292e-09
-1.50837e-07
-4.15499e-09
-1.63455e-07
-1.72229e-09
-1.77085e-07
1.45038e-09
-1.91635e-07
5.5299e-09
-2.07031e-07
1.06662e-08
-2.23241e-07
1.69853e-08
-2.4023e-07
2.45854e-08
-2.57999e-07
3.35482e-08
-2.76549e-07
4.39204e-08
-2.95908e-07
5.57255e-08
-3.16082e-07
6.89528e-08
-3.37113e-07
8.35763e-08
-3.59004e-07
9.95365e-08
-3.81738e-07
1.16763e-07
-4.05295e-07
1.35162e-07
-4.2944e-07
1.546e-07
-4.54072e-07
1.7497e-07
-4.78511e-07
1.96022e-07
-5.02322e-07
2.17629e-07
-5.24195e-07
2.39368e-07
-5.42492e-07
2.60965e-07
-5.55123e-07
2.81872e-07
-5.57563e-07
3.01366e-07
-5.44872e-07
3.18702e-07
-5.09254e-07
3.33381e-07
-4.30605e-07
3.43624e-07
-3.02247e-07
3.55981e-07
-5.86244e-08
3.77207e-07
3.03021e-07
8.7657e-07
4.41232e-07
-4.34613e-10
6.7956e-09
-1.86134e-09
2.07948e-08
-4.31762e-09
3.19529e-08
-7.60067e-09
3.5692e-08
-1.12019e-08
3.13148e-08
-1.46193e-08
2.12829e-08
-1.75126e-08
8.24115e-09
-1.9703e-08
-5.85457e-09
-2.11366e-08
-1.9962e-08
-2.18205e-08
-3.38662e-08
-2.17796e-08
-4.76426e-08
-2.10602e-08
-6.11461e-08
-1.97656e-08
-7.39177e-08
-1.80737e-08
-8.54432e-08
-1.62167e-08
-9.54976e-08
-1.44261e-08
-1.04318e-07
-1.28707e-08
-1.12516e-07
-1.16215e-08
-1.20838e-07
-1.06441e-08
-1.29914e-07
-9.82602e-09
-1.40138e-07
-9.00356e-09
-1.51658e-07
-7.99841e-09
-1.6446e-07
-6.63184e-09
-1.78451e-07
-4.73578e-09
-1.9353e-07
-2.15295e-09
-2.09613e-07
1.24681e-09
-2.2664e-07
5.58827e-09
-2.4457e-07
1.0975e-08
-2.63385e-07
1.74754e-08
-2.83048e-07
2.51339e-08
-3.03565e-07
3.3973e-08
-3.2492e-07
4.39764e-08
-3.47116e-07
5.51128e-08
-3.70139e-07
6.73168e-08
-3.93942e-07
8.04983e-08
-4.18475e-07
9.45501e-08
-4.43491e-07
1.09314e-07
-4.68835e-07
1.24663e-07
-4.9386e-07
1.40329e-07
-5.17987e-07
1.56153e-07
-5.40018e-07
1.71737e-07
-5.58075e-07
1.86765e-07
-5.70151e-07
2.00805e-07
-5.71601e-07
2.13181e-07
-5.57249e-07
2.23419e-07
-5.1949e-07
2.31429e-07
-4.38616e-07
2.36546e-07
-3.07363e-07
2.4603e-07
-6.81073e-08
2.68749e-07
2.80304e-07
8.08799e-07
3.36522e-07
-4.49135e-10
7.24517e-09
-1.93473e-09
2.22814e-08
-4.48169e-09
3.45007e-08
-7.87234e-09
3.90836e-08
-1.15819e-08
3.50252e-08
-1.50923e-08
2.47943e-08
-1.8058e-08
1.12077e-08
-2.02988e-08
-3.6127e-09
-2.176e-08
-1.84997e-08
-2.24492e-08
-3.31759e-08
-2.23929e-08
-4.76979e-08
-2.16426e-08
-6.18953e-08
-2.03104e-08
-7.52491e-08
-1.85861e-08
-8.71666e-08
-1.67142e-08
-9.73684e-08
-1.49374e-08
-1.06094e-07
-1.34344e-08
-1.14018e-07
-1.22861e-08
-1.21985e-07
-1.14688e-08
-1.3073e-07
-1.08823e-08
-1.40724e-07
-1.03782e-08
-1.52161e-07
-9.79239e-09
-1.65045e-07
-8.9619e-09
-1.7928e-07
-7.73461e-09
-1.94757e-07
-5.97165e-09
-2.11374e-07
-3.54805e-09
-2.29063e-07
-3.58249e-10
-2.47758e-07
3.68002e-09
-2.67422e-07
8.63514e-09
-2.88002e-07
1.45433e-08
-3.09473e-07
2.1414e-08
-3.3179e-07
2.92301e-08
-3.54931e-07
3.79443e-08
-3.78852e-07
4.7472e-08
-4.03469e-07
5.77155e-08
-4.28717e-07
6.85554e-08
-4.54331e-07
7.98146e-08
-4.80094e-07
9.13454e-08
-5.0539e-07
1.02873e-07
-5.29514e-07
1.14204e-07
-5.51349e-07
1.24976e-07
-5.68846e-07
1.34846e-07
-5.80021e-07
1.43474e-07
-5.80228e-07
1.50271e-07
-5.64045e-07
1.54968e-07
-5.24186e-07
1.57937e-07
-4.41585e-07
1.59396e-07
-3.08821e-07
1.67137e-07
-7.58473e-08
1.9129e-07
2.56153e-07
7.38956e-07
2.61134e-07
-4.6415e-10
7.70977e-09
-2.01035e-09
2.38286e-08
-4.6515e-09
3.71427e-08
-8.15297e-09
4.25859e-08
-1.19739e-08
3.88471e-08
-1.558e-08
2.84012e-08
-1.86196e-08
1.42483e-08
-2.09124e-08
-1.31889e-09
-2.24027e-08
-1.70084e-08
-2.30972e-08
-3.24801e-08
-2.30231e-08
-4.7771e-08
-2.22346e-08
-6.26827e-08
-2.08507e-08
-7.6632e-08
-1.90712e-08
-8.89452e-08
-1.71508e-08
-9.92877e-08
-1.53403e-08
-1.07904e-07
-1.38239e-08
-1.15533e-07
-1.2686e-08
-1.23122e-07
-1.19067e-08
-1.31508e-07
-1.13902e-08
-1.41239e-07
-1.09952e-08
-1.52555e-07
-1.05661e-08
-1.65473e-07
-9.94947e-09
-1.79896e-07
-9.00462e-09
-1.95701e-07
-7.60404e-09
-2.12774e-07
-5.63771e-09
-2.31029e-07
-3.01018e-09
-2.50385e-07
3.50105e-10
-2.70782e-07
4.49593e-09
-2.92147e-07
9.45085e-09
-3.14427e-07
1.52152e-08
-3.37553e-07
2.1753e-08
-3.61468e-07
2.90081e-08
-3.86105e-07
3.68933e-08
-4.11354e-07
4.5287e-08
-4.3711e-07
5.40561e-08
-4.631e-07
6.30092e-08
-4.89046e-07
7.19826e-08
-5.14363e-07
8.0698e-08
-5.38228e-07
8.89403e-08
-5.59591e-07
9.6379e-08
-5.76283e-07
1.02649e-07
-5.8629e-07
1.07493e-07
-5.8507e-07
1.10437e-07
-5.6699e-07
1.11387e-07
-5.25135e-07
1.11137e-07
-4.41335e-07
1.1063e-07
-3.08313e-07
1.18097e-07
-8.33133e-08
1.44014e-07
2.30237e-07
6.67855e-07
2.15116e-07
-4.79702e-10
8.18993e-09
-2.08821e-09
2.54381e-08
-4.82708e-09
3.98825e-08
-8.44262e-09
4.62024e-08
-1.23784e-08
4.27837e-08
-1.60827e-08
3.21065e-08
-1.9198e-08
1.73646e-08
-2.15438e-08
1.02801e-09
-2.30639e-08
-1.54873e-08
-2.3764e-08
-3.17788e-08
-2.3671e-08
-4.7863e-08
-2.28419e-08
-6.35108e-08
-2.14017e-08
-7.80713e-08
-1.95597e-08
-9.07863e-08
-1.75798e-08
-1.01266e-07
-1.57196e-08
-1.09763e-07
-1.41659e-08
-1.17085e-07
-1.30035e-08
-1.24284e-07
-1.22117e-08
-1.32298e-07
-1.16944e-08
-1.41756e-07
-1.13112e-08
-1.52937e-07
-1.09095e-08
-1.65874e-07
-1.03398e-08
-1.80464e-07
-9.46705e-09
-1.96573e-07
-8.17021e-09
-2.14069e-07
-6.34747e-09
-2.32851e-07
-3.91249e-09
-2.52818e-07
-8.02875e-10
-2.7389e-07
3.02331e-09
-2.95972e-07
7.57858e-09
-3.18982e-07
1.28511e-08
-3.42824e-07
1.87953e-08
-3.67412e-07
2.53408e-08
-3.92649e-07
3.23872e-08
-4.184e-07
3.98023e-08
-4.44523e-07
4.74406e-08
-4.70738e-07
5.5101e-08
-4.96706e-07
6.26021e-08
-5.21864e-07
6.96727e-08
-5.45298e-07
7.60721e-08
-5.6599e-07
8.15052e-08
-5.81715e-07
8.56156e-08
-5.904e-07
8.82017e-08
-5.87655e-07
8.89258e-08
-5.67715e-07
8.78308e-08
-5.24039e-07
8.61029e-08
-4.39608e-07
8.52851e-08
-3.07494e-07
9.37653e-08
-9.1793e-08
1.21975e-07
2.02029e-07
5.95852e-07
1.9398e-07
-4.95828e-10
8.68621e-09
-2.16832e-09
2.71116e-08
-5.00846e-09
4.27235e-08
-8.74142e-09
4.99363e-08
-1.27953e-08
4.68385e-08
-1.66008e-08
3.59129e-08
-1.97937e-08
2.05585e-08
-2.21937e-08
3.42914e-09
-2.3744e-08
-1.3936e-08
-2.44493e-08
-3.10723e-08
-2.43365e-08
-4.79747e-08
-2.34649e-08
-6.43813e-08
-2.19663e-08
-7.9569e-08
-2.0059e-08
-9.26926e-08
-1.80163e-08
-1.03308e-07
-1.61015e-08
-1.11677e-07
-1.45037e-08
-1.18681e-07
-1.3306e-08
-1.2548e-07
-1.24846e-08
-1.33118e-07
-1.19405e-08
-1.42299e-07
-1.15312e-08
-1.53345e-07
-1.11028e-08
-1.66301e-07
-1.05063e-08
-1.81059e-07
-9.60769e-09
-1.9747e-07
-8.28819e-09
-2.15387e-07
-6.44947e-09
-2.34688e-07
-4.01003e-09
-2.55256e-07
-9.13361e-10
-2.76986e-07
2.87532e-09
-2.9976e-07
7.36066e-09
-3.23466e-07
1.25214e-08
-3.47984e-07
1.83036e-08
-3.73194e-07
2.46261e-08
-3.98971e-07
3.13789e-08
-4.25153e-07
3.84198e-08
-4.51563e-07
4.55935e-08
-4.77911e-07
5.26934e-08
-5.03805e-07
5.95253e-08
-5.28696e-07
6.58267e-08
-5.51599e-07
7.13447e-08
-5.71508e-07
7.5814e-08
-5.86184e-07
7.8895e-08
-5.93481e-07
8.04404e-08
-5.89199e-07
8.02576e-08
-5.67532e-07
7.85185e-08
-5.22299e-07
7.67572e-08
-4.37847e-07
7.69698e-08
-3.07705e-07
8.75427e-08
-1.02365e-07
1.18625e-07
1.70949e-07
5.22938e-07
1.91541e-07
-5.12569e-10
9.19924e-09
-2.2507e-09
2.88507e-08
-5.19568e-09
4.56694e-08
-9.04946e-09
5.3791e-08
-1.32249e-08
5.10148e-08
-1.71346e-08
3.98235e-08
-2.04071e-08
2.3832e-08
-2.28626e-08
5.88576e-09
-2.44437e-08
-1.23539e-08
-2.51539e-08
-3.03608e-08
-2.50201e-08
-4.81075e-08
-2.41044e-08
-6.5296e-08
-2.25453e-08
-8.11271e-08
-2.0571e-08
-9.4666e-08
-1.84638e-08
-1.05414e-07
-1.64933e-08
-1.13647e-07
-1.48497e-08
-1.20323e-07
-1.36141e-08
-1.26715e-07
-1.27588e-08
-1.33972e-07
-1.21801e-08
-1.42877e-07
-1.17321e-08
-1.53792e-07
-1.12579e-08
-1.66774e-07
-1.06065e-08
-1.8171e-07
-9.64233e-09
-1.98434e-07
-8.24636e-09
-2.16782e-07
-6.3206e-09
-2.36613e-07
-3.78522e-09
-2.5779e-07
-5.864e-10
-2.80185e-07
3.30657e-09
-3.03652e-07
7.89348e-09
-3.28053e-07
1.31469e-08
-3.53236e-07
1.90065e-08
-3.79053e-07
2.53839e-08
-4.05347e-07
3.21623e-08
-4.31931e-07
3.91927e-08
-4.58593e-07
4.63125e-08
-4.85031e-07
5.33142e-08
-5.10806e-07
5.99945e-08
-5.35376e-07
6.6103e-08
-5.57707e-07
7.13822e-08
-5.76787e-07
7.55966e-08
-5.90397e-07
7.84391e-08
-5.96323e-07
7.98091e-08
-5.90568e-07
7.96634e-08
-5.67387e-07
7.83062e-08
-5.20941e-07
7.75528e-08
-4.37094e-07
7.97706e-08
-3.09922e-07
9.32079e-08
-1.15802e-07
1.27519e-07
1.3664e-07
4.49098e-07
2.0136e-07
-5.29963e-10
9.72967e-09
-2.33537e-09
3.06571e-08
-5.38872e-09
4.87236e-08
-9.36686e-09
5.777e-08
-1.36672e-08
5.5316e-08
-1.76843e-08
4.38416e-08
-2.10387e-08
2.71874e-08
-2.35511e-08
8.39922e-09
-2.51636e-08
-1.07404e-08
-2.58784e-08
-2.96447e-08
-2.57225e-08
-4.82624e-08
-2.4761e-08
-6.62564e-08
-2.31397e-08
-8.27476e-08
-2.10966e-08
-9.67082e-08
-1.89239e-08
-1.07586e-07
-1.68969e-08
-1.15673e-07
-1.52074e-08
-1.22012e-07
-1.39337e-08
-1.27988e-07
-1.30437e-08
-1.34861e-07
-1.24289e-08
-1.4349e-07
-1.19387e-08
-1.54281e-07
-1.14127e-08
-1.673e-07
-1.06966e-08
-1.82425e-07
-9.65248e-09
-1.99477e-07
-8.15931e-09
-2.18274e-07
-6.1179e-09
-2.38654e-07
-3.44825e-09
-2.60459e-07
-9.7282e-11
-2.83535e-07
3.96372e-09
-3.07712e-07
8.73181e-09
-3.3282e-07
1.41756e-08
-3.58679e-07
2.02307e-08
-3.85108e-07
2.68038e-08
-4.11919e-07
3.37736e-08
-4.389e-07
4.09874e-08
-4.65805e-07
4.82779e-08
-4.92321e-07
5.54398e-08
-5.17967e-07
6.22652e-08
-5.42201e-07
6.85179e-08
-5.63959e-07
7.39435e-08
-5.82212e-07
7.83362e-08
-5.94789e-07
8.14327e-08
-5.9942e-07
8.31793e-08
-5.92314e-07
8.36798e-08
-5.67888e-07
8.33744e-08
-5.20635e-07
8.43023e-08
-4.38022e-07
8.91321e-08
-3.14751e-07
1.05842e-07
-1.32511e-07
1.43494e-07
9.89892e-08
3.74384e-07
2.1821e-07
-5.48051e-10
1.02782e-08
-2.42233e-09
3.25324e-08
-5.58758e-09
5.18898e-08
-9.69372e-09
6.18771e-08
-1.41223e-08
5.97456e-08
-1.82503e-08
4.79705e-08
-2.1689e-08
3.0627e-08
-2.42596e-08
1.0971e-08
-2.59043e-08
-9.09462e-09
-2.66238e-08
-2.89241e-08
-2.64448e-08
-4.84404e-08
-2.5436e-08
-6.72641e-08
-2.37506e-08
-8.4432e-08
-2.16374e-08
-9.88205e-08
-1.9398e-08
-1.09824e-07
-1.7314e-08
-1.17756e-07
-1.55785e-08
-1.23746e-07
-1.4267e-08
-1.29298e-07
-1.33426e-08
-1.35784e-07
-1.26915e-08
-1.44141e-07
-1.21584e-08
-1.54813e-07
-1.15787e-08
-1.67878e-07
-1.07946e-08
-1.83208e-07
-9.66515e-09
-2.00606e-07
-8.06669e-09
-2.19871e-07
-5.89812e-09
-2.40822e-07
-3.07841e-09
-2.63277e-07
4.45733e-10
-2.87058e-07
4.70213e-09
-3.11967e-07
9.68625e-09
-3.37803e-07
1.5364e-08
-3.64356e-07
2.16685e-08
-3.91412e-07
2.85029e-08
-4.18752e-07
3.57431e-08
-4.4614e-07
4.32349e-08
-4.73296e-07
5.08081e-08
-4.99895e-07
5.82621e-08
-5.2542e-07
6.53878e-08
-5.49327e-07
7.1965e-08
-5.70535e-07
7.77491e-08
-5.87996e-07
8.25635e-08
-5.99602e-07
8.61973e-08
-6.03054e-07
8.86469e-08
-5.94762e-07
9.01557e-08
-5.69397e-07
9.13036e-08
-5.21782e-07
9.43035e-08
-4.41023e-07
1.0205e-07
-3.22496e-07
1.22158e-07
-1.52619e-07
1.6305e-07
5.80986e-08
2.98958e-07
2.38478e-07
-5.66873e-10
1.08455e-08
-2.5116e-09
3.44781e-08
-5.7922e-09
5.51712e-08
-1.00301e-08
6.61159e-08
-1.45905e-08
6.43069e-08
-1.88328e-08
5.22138e-08
-2.23583e-08
3.41535e-08
-2.49888e-08
1.36025e-08
-2.66666e-08
-7.41577e-09
-2.73907e-08
-2.81988e-08
-2.71878e-08
-4.86422e-08
-2.61304e-08
-6.83205e-08
-2.43795e-08
-8.61819e-08
-2.21946e-08
-1.01005e-07
-1.98876e-08
-1.1213e-07
-1.77462e-08
-1.19896e-07
-1.59647e-08
-1.25526e-07
-1.46158e-08
-1.30646e-07
-1.36574e-08
-1.36741e-07
-1.29704e-08
-1.44827e-07
-1.23943e-08
-1.55388e-07
-1.17603e-08
-1.68512e-07
-1.09067e-08
-1.8406e-07