/*--------------------------------*- C++ -*----------------------------------*\
  =========                 |
  \\      /  F ield         | OpenFOAM: The Open Source CFD Toolbox
   \\    /   O peration     | Website:  https://openfoam.org
    \\  /    A nd           | Version:  7
     \\/     M anipulation  |
\*---------------------------------------------------------------------------*/
FoamFile
{
    version     2.0;
    format      ascii;
    class       volVectorField;
    location    "0.15";
    object      ddtCorrDdt0(U);
}
// * * * * * * * * * * * * * * * * * * * * * * * * * * * * * * * * * * * * * //

dimensions      [0 1 -2 0 0 0 0];

internalField   nonuniform List<vector> 
70000
(
(-0.000943282 6.60517e-05 0)
(-0.00601834 8.49908e-05 0)
(-0.011325 7.94064e-05 0)
(-0.0145853 6.80792e-05 0)
(-0.0161512 5.99872e-05 0)
(-0.0166139 5.2812e-05 0)
(-0.0163204 4.88121e-05 0)
(-0.0155632 4.69842e-05 0)
(-0.0144702 4.65059e-05 0)
(-0.0130244 4.683e-05 0)
(-0.0111459 4.71462e-05 0)
(-0.00875101 4.69257e-05 0)
(-0.00579014 4.61924e-05 0)
(-0.00226227 4.54181e-05 0)
(0.00179455 4.4905e-05 0)
(0.00631805 4.48505e-05 0)
(0.0112397 4.53847e-05 0)
(0.0164925 4.6551e-05 0)
(0.0220211 4.83511e-05 0)
(0.0277821 5.0809e-05 0)
(0.0337436 5.39918e-05 0)
(0.0398885 5.78824e-05 0)
(0.0462088 6.25831e-05 0)
(0.0527068 6.81382e-05 0)
(0.059393 7.47089e-05 0)
(0.0662804 8.24219e-05 0)
(0.0733869 9.1579e-05 0)
(0.0807291 0.00010241 0)
(0.0883206 0.000115359 0)
(0.0961675 0.000130995 0)
(0.104268 0.00014976 0)
(0.112592 0.000172975 0)
(0.121108 0.000201043 0)
(0.129699 0.000236521 0)
(0.138285 0.00028 0)
(0.146592 0.000334935 0)
(0.154416 0.000404511 0)
(0.16128 0.000490055 0)
(0.16655 0.00060967 0)
(0.169753 0.000742745 0)
(0.168753 0.000959198 0)
(0.164097 0.00117343 0)
(0.149367 0.00155083 0)
(0.128251 0.00200418 0)
(0.084696 0.00276469 0)
(0.0292966 0.00348783 0)
(-0.08358 0.00544541 0)
(-0.183231 0.00536563 0)
(-0.607185 0.0121087 0)
(-0.271416 0.0456553 0)
(-0.000578072 0.000326655 0)
(-0.00960869 0.000552512 0)
(-0.0208509 0.000451568 0)
(-0.0265309 0.000229795 0)
(-0.0264703 5.40113e-05 0)
(-0.0227619 -6.0539e-05 0)
(-0.0167194 -0.000135144 0)
(-0.00921404 -0.000186963 0)
(-0.000617084 -0.000234956 0)
(0.0091522 -0.000291871 0)
(0.0203789 -0.0003622 0)
(0.033344 -0.000443611 0)
(0.0482116 -0.00053034 0)
(0.0649992 -0.000616489 0)
(0.0836064 -0.000697669 0)
(0.103862 -0.000771632 0)
(0.125572 -0.000837806 0)
(0.148551 -0.00089706 0)
(0.172645 -0.000950824 0)
(0.197741 -0.00100087 0)
(0.223771 -0.00104892 0)
(0.25071 -0.00109695 0)
(0.278573 -0.00114653 0)
(0.307415 -0.00119931 0)
(0.337324 -0.00125643 0)
(0.368414 -0.00131897 0)
(0.400825 -0.00138748 0)
(0.434712 -0.00146221 0)
(0.470247 -0.00154291 0)
(0.507598 -0.00162825 0)
(0.546947 -0.00171682 0)
(0.588422 -0.00180456 0)
(0.6322 -0.00188802 0)
(0.67827 -0.00195801 0)
(0.726783 -0.00200737 0)
(0.777436 -0.00201759 0)
(0.830255 -0.00197089 0)
(0.884566 -0.00184196 0)
(0.939613 -0.00157654 0)
(0.99506 -0.00115574 0)
(1.04668 -0.000422057 0)
(1.09767 0.000607489 0)
(1.13307 0.00229016 0)
(1.16639 0.00461098 0)
(1.1587 0.00866108 0)
(1.14364 0.0142779 0)
(1.01555 0.0228464 0)
(0.947897 0.0405427 0)
(0.216325 0.0362351 0)
(0.76532 0.223332 0)
(0.000232342 0.000630344 0)
(-0.00859258 0.0012331 0)
(-0.0225747 0.00104695 0)
(-0.0308848 0.000388917 0)
(-0.0301227 -0.000203622 0)
(-0.0223618 -0.000594463 0)
(-0.00994485 -0.000846505 0)
(0.00544266 -0.00102314 0)
(0.0229455 -0.00118534 0)
(0.0424956 -0.00137596 0)
(0.06446 -0.00161017 0)
(0.0892811 -0.00188086 0)
(0.117262 -0.00217058 0)
(0.148496 -0.00246153 0)
(0.182889 -0.00274034 0)
(0.220219 -0.00299986 0)
(0.260207 -0.00323809 0)
(0.302572 -0.00345743 0)
(0.347066 -0.0036623 0)
(0.393503 -0.00385855 0)
(0.44176 -0.00405221 0)
(0.491794 -0.00424996 0)
(0.543627 -0.00445779 0)
(0.597351 -0.00468193 0)
(0.653123 -0.00492757 0)
(0.711154 -0.00519993 0)
(0.771709 -0.00550309 0)
(0.835099 -0.00584068 0)
(0.901672 -0.00621522 0)
(0.971796 -0.00662733 0)
(1.04589 -0.00707683 0)
(1.1243 -0.00755969 0)
(1.20749 -0.00807041 0)
(1.29569 -0.00859632 0)
(1.38941 -0.0091227 0)
(1.48852 -0.00961875 0)
(1.5935 -0.010051 0)
(1.70383 -0.0103602 0)
(1.81906 -0.0104718 0)
(1.93947 -0.0102676 0)
(2.05982 -0.00957941 0)
(2.18615 -0.00816862 0)
(2.29836 -0.00563602 0)
(2.4179 -0.00154074 0)
(2.4931 0.00478948 0)
(2.57359 0.0167299 0)
(2.52028 0.0316634 0)
(2.57267 0.0747678 0)
(1.83336 0.0786749 0)
(2.47772 0.378795 0)
(0.000610655 0.000849276 0)
(-0.00608708 0.00193092 0)
(-0.0201437 0.00182636 0)
(-0.031531 0.00072381 0)
(-0.033483 -0.000477117 0)
(-0.0256765 -0.00136993 0)
(-0.0102344 -0.00197348 0)
(0.0105197 -0.00239538 0)
(0.0350168 -0.00275877 0)
(0.0626919 -0.00315897 0)
(0.0936884 -0.0036384 0)
(0.128424 -0.00419283 0)
(0.167279 -0.0047935 0)
(0.210456 -0.00540642 0)
(0.257953 -0.00600442 0)
(0.309603 -0.00657118 0)
(0.365132 -0.0071002 0)
(0.424227 -0.00759391 0)
(0.486578 -0.00805954 0)
(0.55193 -0.00850798 0)
(0.620092 -0.0089513 0)
(0.690965 -0.00940305 0)
(0.764537 -0.00987621 0)
(0.840891 -0.0103843 0)
(0.920197 -0.0109396 0)
(1.00271 -0.0115545 0)
(1.08878 -0.0122398 0)
(1.1788 -0.0130057 0)
(1.27326 -0.0138607 0)
(1.3727 -0.0148109 0)
(1.47771 -0.0158599 0)
(1.58884 -0.017008 0)
(1.70684 -0.0182488 0)
(1.83211 -0.019572 0)
(1.96555 -0.0209548 0)
(2.1072 -0.0223624 0)
(2.258 -0.0237485 0)
(2.41767 -0.0250133 0)
(2.58609 -0.0260899 0)
(2.76422 -0.0267016 0)
(2.94642 -0.026778 0)
(3.14061 -0.0256384 0)
(3.32475 -0.0230798 0)
(3.5236 -0.0177381 0)
(3.68243 -0.00934867 0)
(3.85607 0.00802344 0)
(3.89416 0.0274788 0)
(4.05908 0.0984505 0)
(3.46017 0.129967 0)
(4.01297 0.515625 0)
(0.000485017 0.000980768 0)
(-0.00401883 0.00253899 0)
(-0.0163747 0.00268468 0)
(-0.0299329 0.00130205 0)
(-0.0367293 -0.000527466 0)
(-0.0333887 -0.0020906 0)
(-0.0201697 -0.00324868 0)
(0.00102408 -0.00408974 0)
(0.0282355 -0.00478292 0)
(0.0602781 -0.00548588 0)
(0.0967667 -0.00628608 0)
(0.137792 -0.00719729 0)
(0.183602 -0.00818911 0)
(0.234418 -0.00921612 0)
(0.290348 -0.0102375 0)
(0.351367 -0.0112251 0)
(0.417329 -0.0121639 0)
(0.488 -0.0130524 0)
(0.563098 -0.0138976 0)
(0.642345 -0.014714 0)
(0.725501 -0.0155192 0)
(0.812398 -0.0163343 0)
(0.902958 -0.0171805 0)
(0.997199 -0.0180807 0)
(1.09525 -0.0190564 0)
(1.19733 -0.0201301 0)
(1.30378 -0.0213222 0)
(1.41504 -0.022653 0)
(1.53164 -0.0241397 0)
(1.65417 -0.0257979 0)
(1.78336 -0.0276375 0)
(1.91988 -0.0296678 0)
(2.06464 -0.0318834 0)
(2.21819 -0.0342819 0)
(2.3817 -0.0368336 0)
(2.55535 -0.0395037 0)
(2.74041 -0.0422375 0)
(2.93681 -0.044892 0)
(3.1447 -0.0474282 0)
(3.36549 -0.0493847 0)
(3.59363 -0.0508311 0)
(3.83757 -0.0506129 0)
(4.07594 -0.0487587 0)
(4.33263 -0.0430056 0)
(4.55595 -0.0327911 0)
(4.79762 -0.0101993 0)
(4.91421 0.0122048 0)
(5.14298 0.108385 0)
(4.73997 0.165433 0)
(5.10967 0.610591 0)
(0.000176616 0.00107819 0)
(-0.00302533 0.00303119 0)
(-0.0131702 0.00353261 0)
(-0.0273134 0.00210375 0)
(-0.0386101 -0.000205686 0)
(-0.0418756 -0.00246073 0)
(-0.0350671 -0.00431517 0)
(-0.0185997 -0.00575731 0)
(0.0060488 -0.0069459 0)
(0.0374863 -0.00807833 0)
(0.0748398 -0.00928859 0)
(0.117701 -0.0106209 0)
(0.165946 -0.0120581 0)
(0.219601 -0.0135569 0)
(0.278761 -0.0150721 0)
(0.343527 -0.0165675 0)
(0.413948 -0.0180189 0)
(0.48999 -0.0194168 0)
(0.571523 -0.0207631 0)
(0.658353 -0.0220709 0)
(0.750264 -0.0233601 0)
(0.847059 -0.0246571 0)
(0.948598 -0.0259908 0)
(1.05482 -0.0273933 0)
(1.16576 -0.0288965 0)
(1.28156 -0.0305344 0)
(1.40248 -0.032339 0)
(1.52889 -0.0343433 0)
(1.6613 -0.0365762 0)
(1.80027 -0.0390658 0)
(1.94654 -0.0418313 0)
(2.10079 -0.0448945 0)
(2.26403 -0.0482534 0)
(2.43685 -0.0519177 0)
(2.62055 -0.055853 0)
(2.81543 -0.0600267 0)
(3.02288 -0.0643813 0)
(3.24305 -0.068728 0)
(3.47618 -0.073064 0)
(3.72395 -0.0767479 0)
(3.98118 -0.0799652 0)
(4.25583 -0.081166 0)
(4.5287 -0.0804638 0)
(4.82034 -0.0748598 0)
(5.08539 -0.0643087 0)
(5.36685 -0.0362873 0)
(5.542 -0.0106862 0)
(5.78898 0.104875 0)
(5.571 0.197209 0)
(5.78133 0.68091 0)
(-6.68953e-05 0.00117244 0)
(-0.0028561 0.00343728 0)
(-0.011325 0.0043222 0)
(-0.0248786 0.00304742 0)
(-0.0388779 0.00048846 0)
(-0.0480643 -0.0023319 0)
(-0.048944 -0.00489292 0)
(-0.0402923 -0.00704325 0)
(-0.022462 -0.008874 0)
(0.0036085 -0.0105769 0)
(0.0369977 -0.0123086 0)
(0.0769798 -0.0141383 0)
(0.123027 -0.0160685 0)
(0.174811 -0.0180712 0)
(0.232223 -0.0201125 0)
(0.295344 -0.0221616 0)
(0.364371 -0.0241923 0)
(0.43951 -0.0261885 0)
(0.520887 -0.028143 0)
(0.608519 -0.0300619 0)
(0.702331 -0.0319612 0)
(0.802191 -0.0338678 0)
(0.907963 -0.0358142 0)
(1.01954 -0.0378394 0)
(1.13687 -0.0399841 0)
(1.26001 -0.0422936 0)
(1.38908 -0.0448118 0)
(1.52435 -0.0475856 0)
(1.6662 -0.0506566 0)
(1.81509 -0.0540686 0)
(1.97169 -0.0578516 0)
(2.1366 -0.0620438 0)
(2.31078 -0.0666483 0)
(2.4948 -0.0716899 0)
(2.68995 -0.077133 0)
(2.89658 -0.0829476 0)
(3.11607 -0.0890786 0)
(3.34872 -0.0952912 0)
(3.59474 -0.101617 0)
(3.8559 -0.107257 0)
(4.1275 -0.112457 0)
(4.41654 -0.115383 0)
(4.70638 -0.116063 0)
(5.01357 -0.111064 0)
(5.30019 -0.100077 0)
(5.59723 -0.0687898 0)
(5.81093 -0.0370354 0)
(6.05019 0.0924468 0)
(5.97271 0.223781 0)
(6.08883 0.732365 0)
(-0.000171939 0.00127544 0)
(-0.00304258 0.00380743 0)
(-0.0106444 0.00505907 0)
(-0.0233133 0.00404747 0)
(-0.0382587 0.00144499 0)
(-0.0512091 -0.00174319 0)
(-0.0584281 -0.00489526 0)
(-0.0577256 -0.00773603 0)
(-0.0483779 -0.0102658 0)
(-0.0305341 -0.0126333 0)
(-0.00471118 -0.014985 0)
(0.0284389 -0.0173924 0)
(0.0682204 -0.0198668 0)
(0.114006 -0.0223967 0)
(0.165384 -0.0249703 0)
(0.222259 -0.0275783 0)
(0.284833 -0.0302083 0)
(0.353482 -0.0328467 0)
(0.428607 -0.0354803 0)
(0.51052 -0.0381048 0)
(0.599399 -0.0407268 0)
(0.6953 -0.0433665 0)
(0.798194 -0.0460544 0)
(0.908016 -0.048831 0)
(1.02471 -0.051742 0)
(1.14823 -0.0548408 0)
(1.27865 -0.058181 0)
(1.41605 -0.0618222 0)
(1.56071 -0.0658188 0)
(1.7129 -0.0702306 0)
(1.87316 -0.0750997 0)
(2.04191 -0.0804822 0)
(2.22 -0.0863889 0)
(2.4079 -0.0928608 0)
(2.60674 -0.0998659 0)
(2.81691 -0.107374 0)
(3.03954 -0.115341 0)
(3.27513 -0.123484 0)
(3.52366 -0.131862 0)
(3.78696 -0.13955 0)
(4.06069 -0.146795 0)
(4.35083 -0.151575 0)
(4.64322 -0.153716 0)
(4.95036 -0.149467 0)
(5.24209 -0.138068 0)
(5.53662 -0.104302 0)
(5.76992 -0.0644239 0)
(5.99113 0.0756845 0)
(6.00622 0.243843 0)
(6.08349 0.767808 0)
(-0.00018473 0.00139231 0)
(-0.0032466 0.00418108 0)
(-0.0106239 0.00577274 0)
(-0.0226598 0.0050595 0)
(-0.0375768 0.00253958 0)
(-0.0522069 -0.000839967 0)
(-0.0633242 -0.00441673 0)
(-0.0686092 -0.00783344 0)
(-0.0667901 -0.0110109 0)
(-0.0573849 -0.0140448 0)
(-0.0403804 -0.0170507 0)
(-0.016083 -0.0200802 0)
(0.0149353 -0.0231335 0)
(0.0519545 -0.0262025 0)
(0.0943313 -0.0292957 0)
(0.141726 -0.032435 0)
(0.194209 -0.0356372 0)
(0.252199 -0.0389075 0)
(0.316296 -0.042236 0)
(0.3871 -0.045612 0)
(0.465102 -0.0490298 0)
(0.550636 -0.0524982 0)
(0.643894 -0.0560388 0)
(0.744956 -0.0596874 0)
(0.853849 -0.0634887 0)
(0.97056 -0.0674988 0)
(1.0951 -0.0717766 0)
(1.2275 -0.0763908 0)
(1.36787 -0.0814053 0)
(1.51636 -0.0868943 0)
(1.6733 -0.0929113 0)
(1.83894 -0.0995297 0)
(2.01392 -0.10677 0)
(2.19856 -0.114689 0)
(2.39374 -0.123262 0)
(2.5998 -0.132458 0)
(2.81757 -0.142245 0)
(3.04764 -0.152298 0)
(3.28967 -0.162693 0)
(3.54549 -0.172412 0)
(3.81104 -0.181639 0)
(4.09124 -0.188274 0)
(4.3743 -0.19179 0)
(4.66883 -0.188343 0)
(4.9521 -0.176508 0)
(5.23119 -0.140067 0)
(5.46647 -0.0930911 0)
(5.66696 0.0559396 0)
(5.73704 0.257174 0)
(5.81065 0.788686 0)
(-0.000166997 0.00151856 0)
(-0.00336359 0.00457386 0)
(-0.0108061 0.00649247 0)
(-0.0225896 0.00607929 0)
(-0.0372335 0.00369275 0)
(-0.0522767 0.000231039 0)
(-0.0651705 -0.00362912 0)
(-0.0739199 -0.00748084 0)
(-0.0772636 -0.01119 0)
(-0.0744976 -0.0148101 0)
(-0.0652661 -0.0184253 0)
(-0.0495283 -0.0220576 0)
(-0.0275987 -0.0256801 0)
(-0.000109715 -0.0292703 0)
(0.0321998 -0.0328454 0)
(0.068783 -0.036457 0)
(0.109514 -0.0401615 0)
(0.154731 -0.0439973 0)
(0.205105 -0.0479729 0)
(0.261444 -0.0520799 0)
(0.324523 -0.056304 0)
(0.394976 -0.0606407 0)
(0.473273 -0.0650986 0)
(0.559731 -0.0697032 0)
(0.654552 -0.0744921 0)
(0.757842 -0.0795181 0)
(0.869673 -0.0848391 0)
(0.990064 -0.0905274 0)
(1.11908 -0.0966512 0)
(1.25675 -0.103295 0)
(1.40326 -0.110519 0)
(1.55869 -0.118413 0)
(1.72343 -0.127007 0)
(1.89765 -0.136368 0)
(2.08192 -0.146486 0)
(2.2765 -0.157321 0)
(2.48184 -0.168863 0)
(2.69852 -0.180746 0)
(2.92592 -0.193048 0)
(3.16565 -0.204696 0)
(3.41405 -0.215754 0)
(3.67482 -0.224138 0)
(3.93851 -0.228853 0)
(4.21019 -0.226177 0)
(4.47351 -0.213577 0)
(4.7277 -0.175171 0)
(4.95011 -0.120215 0)
(5.12899 0.0356189 0)
(5.22789 0.262735 0)
(5.31732 0.794374 0)
(-0.000150327 0.00165022 0)
(-0.00341378 0.00498808 0)
(-0.0109786 0.0072361 0)
(-0.0227512 0.00711689 0)
(-0.0372107 0.00487466 0)
(-0.0521929 0.00137639 0)
(-0.0655932 -0.00268264 0)
(-0.0758471 -0.00685912 0)
(-0.0819798 -0.0109816 0)
(-0.0833646 -0.0150757 0)
(-0.0796032 -0.0192056 0)
(-0.0704866 -0.023367 0)
(-0.056127 -0.0275003 0)
(-0.0370202 -0.0315557 0)
(-0.0139074 -0.0355446 0)
(0.0125261 -0.0395406 0)
(0.0419552 -0.043641 0)
(0.0745564 -0.0479281 0)
(0.110952 -0.0524425 0)
(0.152031 -0.0571905 0)
(0.19875 -0.0621567 0)
(0.251991 -0.0673265 0)
(0.312487 -0.0726949 0)
(0.380806 -0.0782742 0)
(0.457375 -0.0840907 0)
(0.542485 -0.0901887 0)
(0.636348 -0.0966196 0)
(0.739067 -0.103453 0)
(0.850737 -0.110754 0)
(0.971358 -0.118612 0)
(1.10102 -0.127091 0)
(1.2397 -0.136287 0)
(1.38759 -0.146241 0)
(1.5447 -0.157022 0)
(1.71129 -0.168639 0)
(1.88752 -0.18104 0)
(2.07347 -0.194232 0)
(2.26961 -0.20782 0)
(2.47511 -0.221863 0)
(2.69117 -0.235276 0)
(2.91466 -0.247948 0)
(3.14795 -0.257887 0)
(3.38376 -0.263586 0)
(3.62439 -0.261506 0)
(3.85808 -0.247957 0)
(4.08048 -0.207864 0)
(4.27832 -0.145158 0)
(4.43418 0.0161923 0)
(4.54449 0.262284 0)
(4.65829 0.786377 0)
(-0.000141009 0.00178605 0)
(-0.0034385 0.0054222 0)
(-0.0111021 0.00800934 0)
(-0.0229488 0.00818437 0)
(-0.0373492 0.00608319 0)
(-0.0522033 0.00255746 0)
(-0.0656124 -0.00166746 0)
(-0.0762936 -0.00610855 0)
(-0.083546 -0.0105604 0)
(-0.0869909 -0.015032 0)
(-0.0863453 -0.0195772 0)
(-0.0814194 -0.0241749 0)
(-0.0722574 -0.0287348 0)
(-0.059278 -0.0331743 0)
(-0.0432089 -0.0374881 0)
(-0.0248293 -0.041762 0)
(-0.00463934 -0.046131 0)
(0.0173467 -0.0507257 0)
(0.0416137 -0.0556289 0)
(0.0690092 -0.060873 0)
(0.100547 -0.0664515 0)
(0.137238 -0.0723457 0)
(0.179997 -0.0785396 0)
(0.229591 -0.0850333 0)
(0.28665 -0.0918402 0)
(0.351659 -0.0989935 0)
(0.424995 -0.106534 0)
(0.506901 -0.114524 0)
(0.59756 -0.123021 0)
(0.697025 -0.13211 0)
(0.805363 -0.141854 0)
(0.92252 -0.152348 0)
(1.04853 -0.16364 0)
(1.18331 -0.175796 0)
(1.32689 -0.188839 0)
(1.47927 -0.202704 0)
(1.64026 -0.217409 0)
(1.81012 -0.232541 0)
(1.98792 -0.248117 0)
(2.17435 -0.26308 0)
(2.36682 -0.277103 0)
(2.56648 -0.288335 0)
(2.76786 -0.29477 0)
(2.97139 -0.292987 0)
(3.16833 -0.278544 0)
(3.35382 -0.23633 0)
(3.51902 -0.167417 0)
(3.65045 -0.00175494 0)
(3.7604 0.257425 0)
(3.89876 0.766948 0)
(-0.000135953 0.00192614 0)
(-0.00346033 0.00587515 0)
(-0.0111977 0.00881285 0)
(-0.0231252 0.00928734 0)
(-0.0375296 0.00732407 0)
(-0.0523015 0.00376639 0)
(-0.0656096 -0.000620051 0)
(-0.0762978 -0.00530491 0)
(-0.0838428 -0.0100457 0)
(-0.0880553 -0.0148351 0)
(-0.0888229 -0.019723 0)
(-0.0860599 -0.0246782 0)
(-0.0798537 -0.0295847 0)
(-0.070623 -0.0343261 0)
(-0.0591161 -0.0388748 0)
(-0.0461848 -0.043321 0)
(-0.032474 -0.0478321 0)
(-0.0181797 -0.0525873 0)
(-0.0029943 -0.0577171 0)
(0.0138064 -0.0632881 0)
(0.0331775 -0.0693113 0)
(0.0561445 -0.0757709 0)
(0.0836827 -0.0826451 0)
(0.116662 -0.0899242 0)
(0.155839 -0.0976105 0)
(0.201835 -0.105726 0)
(0.255167 -0.114301 0)
(0.316212 -0.123384 0)
(0.385257 -0.133026 0)
(0.462445 -0.1433 0)
(0.547872 -0.154262 0)
(0.641499 -0.166001 0)
(0.743283 -0.178564 0)
(0.853101 -0.19201 0)
(0.970792 -0.206368 0)
(1.09625 -0.221562 0)
(1.22909 -0.237608 0)
(1.36933 -0.254088 0)
(1.51602 -0.270957 0)
(1.66932 -0.287212 0)
(1.82716 -0.302293 0)
(1.98971 -0.314505 0)
(2.15282 -0.321394 0)
(2.31595 -0.319637 0)
(2.47216 -0.30408 0)
(2.61796 -0.260043 0)
(2.74643 -0.18542 0)
(2.85224 -0.0170053 0)
(2.95433 0.247993 0)
(3.11249 0.736735 0)
(-0.000132064 0.00207084 0)
(-0.00348474 0.0063471 0)
(-0.0112852 0.0096465 0)
(-0.0232832 0.0104276 0)
(-0.0377065 0.00860156 0)
(-0.0524324 0.00500543 0)
(-0.0656519 0.000451411 0)
(-0.0762507 -0.00447726 0)
(-0.0837842 -0.00949598 0)
(-0.0881705 -0.0145781 0)
(-0.0894153 -0.0197704 0)
(-0.0875397 -0.0250342 0)
(-0.0827083 -0.0302307 0)
(-0.0753922 -0.0352107 0)
(-0.0663799 -0.0399216 0)
(-0.0565932 -0.0444532 0)
(-0.0467838 -0.0490008 0)
(-0.0373033 -0.0537903 0)
(-0.0280036 -0.0590014 0)
(-0.0183175 -0.0647393 0)
(-0.00741566 -0.0710383 0)
(0.00566233 -0.0778908 0)
(0.0218342 -0.0852739 0)
(0.0419808 -0.0931724 0)
(0.0668909 -0.10158 0)
(0.0972372 -0.11051 0)
(0.133612 -0.119982 0)
(0.176469 -0.130033 0)
(0.226173 -0.140702 0)
(0.282943 -0.15205 0)
(0.346915 -0.164122 0)
(0.418086 -0.176994 0)
(0.496387 -0.19071 0)
(0.581667 -0.205313 0)
(0.673674 -0.220834 0)
(0.772191 -0.237183 0)
(0.876736 -0.254364 0)
(0.987075 -0.271964 0)
(1.10232 -0.289857 0)
(1.22218 -0.307111 0)
(1.34495 -0.322939 0)
(1.47017 -0.335781 0)
(1.59457 -0.342844 0)
(1.7173 -0.340771 0)
(1.83248 -0.324058 0)
(1.93886 -0.278188 0)
(2.03037 -0.19885 0)
(2.11078 -0.0295949 0)
(2.20117 0.235609 0)
(2.37215 0.698881 0)
(-0.000128222 0.00222037 0)
(-0.00351085 0.0068388 0)
(-0.0113719 0.0105108 0)
(-0.0234339 0.0116058 0)
(-0.0378746 0.00991768 0)
(-0.0525657 0.0062775 0)
(-0.0657173 0.0015479 0)
(-0.07623 -0.00363192 0)
(-0.083686 -0.00893179 0)
(-0.0880469 -0.014303 0)
(-0.0893755 -0.0197873 0)
(-0.0877589 -0.0253384 0)
(-0.0834269 -0.0307952 0)
(-0.0769069 -0.0359755 0)
(-0.0690365 -0.0408008 0)
(-0.0607899 -0.0453581 0)
(-0.0529944 -0.0498676 0)
(-0.0461016 -0.0545995 0)
(-0.0400941 -0.0597821 0)
(-0.0345492 -0.0655607 0)
(-0.0287499 -0.0719943 0)
(-0.0219044 -0.0790883 0)
(-0.0131197 -0.0868208 0)
(-0.00161707 -0.095174 0)
(0.0133471 -0.104136 0)
(0.0324152 -0.113714 0)
(0.0562096 -0.123918 0)
(0.0851483 -0.134776 0)
(0.119647 -0.146315 0)
(0.159958 -0.158581 0)
(0.206235 -0.171611 0)
(0.258498 -0.18546 0)
(0.316663 -0.200165 0)
(0.380558 -0.215754 0)
(0.449889 -0.232249 0)
(0.524342 -0.249548 0)
(0.603396 -0.26763 0)
(0.686615 -0.286096 0)
(0.773163 -0.304728 0)
(0.862423 -0.322672 0)
(0.952973 -0.338929 0)
(1.04396 -0.352044 0)
(1.13268 -0.35899 0)
(1.2184 -0.356294 0)
(1.29592 -0.338353 0)
(1.36634 -0.290699 0)
(1.42436 -0.207793 0)
(1.48167 -0.0393819 0)
(1.5598 0.22147 0)
(1.73693 0.655582 0)
(-0.000124361 0.00237491 0)
(-0.00353749 0.00735103 0)
(-0.0114586 0.011407 0)
(-0.0235824 0.0128229 0)
(-0.0380383 0.0112735 0)
(-0.0526946 0.00758423 0)
(-0.0657856 0.00267132 0)
(-0.0762256 -0.00276824 0)
(-0.0836063 -0.00835725 0)
(-0.0879019 -0.0140232 0)
(-0.0891931 -0.0198013 0)
(-0.0875952 -0.0256363 0)
(-0.0833767 -0.0313433 0)
(-0.0771068 -0.0367064 0)
(-0.0696611 -0.0416205 0)
(-0.0620479 -0.0461688 0)
(-0.0551358 -0.0505952 0)
(-0.0494335 -0.0552125 0)
(-0.0450043 -0.0602961 0)
(-0.0415175 -0.0660308 0)
(-0.0383835 -0.0725011 0)
(-0.0348724 -0.0797238 0)
(-0.0302629 -0.0876826 0)
(-0.0238319 -0.0963566 0)
(-0.014934 -0.105731 0)
(-0.00294731 -0.115806 0)
(0.0125725 -0.126588 0)
(0.032179 -0.138094 0)
(0.0561733 -0.150341 0)
(0.0847933 -0.163361 0)
(0.118177 -0.177179 0)
(0.156346 -0.191832 0)
(0.199171 -0.207345 0)
(0.246493 -0.22373 0)
(0.297966 -0.240996 0)
(0.353197 -0.259026 0)
(0.411647 -0.277768 0)
(0.472733 -0.296841 0)
(0.535663 -0.315932 0)
(0.599609 -0.334254 0)
(0.663315 -0.350635 0)
(0.725779 -0.363682 0)
(0.784631 -0.370234 0)
(0.839479 -0.366662 0)
(0.885685 -0.347387 0)
(0.926348 -0.298122 0)
(0.957195 -0.212872 0)
(0.995887 -0.0464169 0)
(1.06387 0.20658 0)
(1.24244 0.608294 0)
(-0.000120636 0.00253461 0)
(-0.00356425 0.00788447 0)
(-0.0115442 0.0123362 0)
(-0.0237291 0.0140799 0)
(-0.0382 0.0126702 0)
(-0.0528201 0.00892658 0)
(-0.0658508 0.00382282 0)
(-0.0762233 -0.00188487 0)
(-0.083537 -0.00777192 0)
(-0.0877689 -0.0137413 0)
(-0.0889999 -0.0198207 0)
(-0.0873525 -0.0259447 0)
(-0.0831146 -0.0319026 0)
(-0.0768812 -0.0374436 0)
(-0.069552 -0.0424352 0)
(-0.0621528 -0.046957 0)
(-0.0555673 -0.0512765 0)
(-0.0503263 -0.0557484 0)
(-0.0465307 -0.0606945 0)
(-0.0439048 -0.0663375 0)
(-0.0419284 -0.0727866 0)
(-0.0399609 -0.0800706 0)
(-0.037348 -0.0881755 0)
(-0.0334656 -0.0970793 0)
(-0.0277357 -0.106764 0)
(-0.019652 -0.117226 0)
(-0.00872756 -0.128463 0)
(0.00536946 -0.140489 0)
(0.0229664 -0.153307 0)
(0.04426 -0.166938 0)
(0.0693517 -0.181391 0)
(0.0981952 -0.19669 0)
(0.130725 -0.212844 0)
(0.166602 -0.229845 0)
(0.205519 -0.247687 0)
(0.247016 -0.266243 0)
(0.290547 -0.285423 0)
(0.335416 -0.304861 0)
(0.380859 -0.324155 0)
(0.425934 -0.342575 0)
(0.469466 -0.35881 0)
(0.510471 -0.371487 0)
(0.546788 -0.377408 0)
(0.578405 -0.372752 0)
(0.601285 -0.352101 0)
(0.619954 -0.30153 0)
(0.631666 -0.214624 0)
(0.657726 -0.0518752 0)
(0.719331 0.190568 0)
(0.897077 0.559317 0)
(-0.000117139 0.00269966 0)
(-0.00359112 0.00843979 0)
(-0.0116282 0.0132997 0)
(-0.0238729 0.0153781 0)
(-0.0383595 0.0141088 0)
(-0.0529432 0.0103054 0)
(-0.0659127 0.00500309 0)
(-0.0762185 -0.00098104 0)
(-0.0834686 -0.00717504 0)
(-0.087641 -0.0134573 0)
(-0.0888118 -0.0198474 0)
(-0.0871028 -0.0262686 0)
(-0.0828113 -0.0324827 0)
(-0.0765494 -0.0382023 0)
(-0.0692315 -0.0432675 0)
(-0.0618894 -0.0477545 0)
(-0.0554061 -0.0519553 0)
(-0.0503125 -0.0562671 0)
(-0.0467184 -0.0610574 0)
(-0.0443718 -0.0665861 0)
(-0.0427882 -0.0729859 0)
(-0.0413783 -0.0802962 0)
(-0.03954 -0.0885051 0)
(-0.0367093 -0.0975886 0)
(-0.0323699 -0.107525 0)
(-0.0260732 -0.118305 0)
(-0.017418 -0.129922 0)
(-0.00608923 -0.142379 0)
(0.00815651 -0.155672 0)
(0.0254655 -0.169807 0)
(0.0458835 -0.184782 0)
(0.0693498 -0.200602 0)
(0.0956689 -0.217264 0)
(0.124583 -0.234737 0)
(0.155697 -0.252997 0)
(0.188484 -0.271909 0)
(0.222392 -0.291342 0)
(0.256648 -0.310945 0)
(0.290526 -0.330235 0)
(0.322992 -0.34852 0)
(0.353014 -0.364394 0)
(0.37957 -0.376465 0)
(0.400742 -0.381567 0)
(0.416837 -0.375703 0)
(0.42453 -0.353689 0)
(0.429277 -0.302087 0)
(0.429961 -0.214378 0)
(0.44979 -0.0568147 0)
(0.509995 0.173274 0)
(0.687045 0.509359 0)
(-0.000113904 0.00287024 0)
(-0.00361811 0.00901759 0)
(-0.0117104 0.0142989 0)
(-0.0240131 0.0167186 0)
(-0.038516 0.0155906 0)
(-0.0530637 0.0117218 0)
(-0.0659719 0.00621277 0)
(-0.0762112 -5.62599e-05 0)
(-0.0833982 -0.00656625 0)
(-0.0875123 -0.0131709 0)
(-0.0886244 -0.0198817 0)
(-0.0868531 -0.0266092 0)
(-0.0825027 -0.0330862 0)
(-0.0761983 -0.0389874 0)
(-0.0688647 -0.0441248 0)
(-0.0615345 -0.0485726 0)
(-0.055082 -0.0526485 0)
(-0.0500267 -0.0567929 0)
(-0.0464721 -0.0614197 0)
(-0.0441709 -0.0668255 0)
(-0.0426535 -0.0731654 0)
(-0.0413555 -0.0804887 0)
(-0.0397058 -0.0887846 0)
(-0.0371741 -0.0980262 0)
(-0.0332842 -0.108187 0)
(-0.0276242 -0.119253 0)
(-0.0198424 -0.131209 0)
(-0.00966247 -0.144051 0)
(0.00311263 -0.157764 0)
(0.018584 -0.17234 0)
(0.0367547 -0.187765 0)
(0.0575179 -0.204025 0)
(0.08066 -0.2211 0)
(0.105852 -0.238946 0)
(0.132687 -0.257514 0)
(0.160604 -0.276661 0)
(0.189028 -0.296214 0)
(0.217162 -0.315834 0)
(0.244265 -0.33497 0)
(0.26934 -0.35295 0)
(0.291337 -0.368314 0)
(0.309409 -0.379621 0)
(0.321823 -0.383781 0)
(0.32911 -0.376686 0)
(0.328746 -0.353354 0)
(0.326638 -0.301049 0)
(0.32342 -0.213633 0)
(0.342864 -0.0617497 0)
(0.405803 0.154507 0)
(0.582831 0.457647 0)
(-0.000110954 0.00304656 0)
(-0.00364521 0.00961849 0)
(-0.0117906 0.0153351 0)
(-0.024149 0.0181026 0)
(-0.0386686 0.0171169 0)
(-0.053181 0.0131769 0)
(-0.0660283 0.00745255 0)
(-0.0762015 0.000889907 0)
(-0.0833257 -0.00594532 0)
(-0.0873815 -0.0128824 0)
(-0.0884349 -0.0199241 0)
(-0.0866016 -0.0269674 0)
(-0.0821923 -0.0337144 0)
(-0.0758444 -0.0398003 0)
(-0.0684919 -0.0450094 0)
(-0.0611657 -0.0494146 0)
(-0.0547283 -0.0533609 0)
(-0.0496834 -0.0573339 0)
(-0.0461215 -0.061794 0)
(-0.0437906 -0.0670744 0)
(-0.0422252 -0.0733526 0)
(-0.0408721 -0.0806867 0)
(-0.0391757 -0.0890667 0)
(-0.0366238 -0.0984619 0)
(-0.032761 -0.108841 0)
(-0.0271972 -0.120182 0)
(-0.0196068 -0.132464 0)
(-0.00974038 -0.145673 0)
(0.00256931 -0.159782 0)
(0.0173933 -0.17477 0)
(0.0347045 -0.190609 0)
(0.0543635 -0.207266 0)
(0.0761346 -0.224705 0)
(0.0996558 -0.242864 0)
(0.124502 -0.261672 0)
(0.150089 -0.280977 0)
(0.175835 -0.300568 0)
(0.200933 -0.320111 0)
(0.224654 -0.339002 0)
(0.246028 -0.356574 0)
(0.264078 -0.371336 0)
(0.278027 -0.381798 0)
(0.286411 -0.384974 0)
(0.289935 -0.376686 0)
(0.286879 -0.352185 0)
(0.283367 -0.299633 0)
(0.281639 -0.213063 0)
(0.305068 -0.0680243 0)
(0.37396 0.133406 0)
(0.552336 0.405244 0)
(-0.000108308 0.00322883 0)
(-0.00367232 0.0102431 0)
(-0.0118685 0.0164095 0)
(-0.02428 0.0195316 0)
(-0.0388165 0.0186889 0)
(-0.0532944 0.0146717 0)
(-0.0660816 0.00872319 0)
(-0.0761896 0.00185794 0)
(-0.0832516 -0.00531207 0)
(-0.087249 -0.0125918 0)
(-0.0882435 -0.019975 0)
(-0.0863484 -0.0273439 0)
(-0.081881 -0.034368 0)
(-0.075491 -0.040642 0)
(-0.0681212 -0.045922 0)
(-0.0608004 -0.0502813 0)
(-0.0543785 -0.054094 0)
(-0.0493415 -0.0578921 0)
(-0.0457648 -0.0621837 0)
(-0.043388 -0.067339 0)
(-0.0417453 -0.073557 0)
(-0.0402879 -0.0809047 0)
(-0.0384687 -0.0893722 0)
(-0.0357845 -0.0989248 0)
(-0.0317905 -0.109525 0)
(-0.0261076 -0.121145 0)
(-0.0184238 -0.133755 0)
(-0.00850427 -0.147329 0)
(0.00380114 -0.161831 0)
(0.0185457 -0.177225 0)
(0.0356843 -0.193465 0)
(0.0550585 -0.210503 0)
(0.0764177 -0.228284 0)
(0.0993837 -0.246731 0)
(0.123522 -0.265746 0)
(0.148241 -0.28517 0)
(0.172961 -0.304758 0)
(0.196885 -0.324175 0)
(0.219304 -0.342777 0)
(0.239298 -0.359888 0)
(0.255967 -0.374018 0)
(0.268634 -0.383619 0)
(0.276109 -0.385824 0)
(0.279227 -0.376459 0)
(0.277065 -0.351005 0)
(0.27582 -0.29859 0)
(0.279066 -0.213667 0)
(0.309315 -0.0762779 0)
(0.386103 0.11021 0)
(0.566563 0.352361 0)
(-0.000105982 0.0034173 0)
(-0.00369937 0.010892 0)
(-0.011944 0.0175235 0)
(-0.0244056 0.0210067 0)
(-0.038959 0.0203081 0)
(-0.0534034 0.0162075 0)
(-0.0661313 0.0100255 0)
(-0.0761754 0.00284834 0)
(-0.083176 -0.00466623 0)
(-0.0871154 -0.0122992 0)
(-0.0880511 -0.0200348 0)
(-0.0860948 -0.0277393 0)
(-0.0815704 -0.0350479 0)
(-0.0751403 -0.0415131 0)
(-0.0677558 -0.0468633 0)
(-0.0604436 -0.051173 0)
(-0.0540407 -0.0548479 0)
(-0.0490152 -0.0584678 0)
(-0.0454267 -0.0625896 0)
(-0.0430055 -0.0676205 0)
(-0.0412833 -0.0737813 0)
(-0.039714 -0.0811472 0)
(-0.0377553 -0.0897084 0)
(-0.0349094 -0.0994257 0)
(-0.0307372 -0.110256 0)
(-0.0248654 -0.122163 0)
(-0.016989 -0.135109 0)
(-0.00688074 -0.149058 0)
(0.00560018 -0.16396 0)
(0.0204975 -0.179764 0)
(0.037756 -0.196409 0)
(0.0572081 -0.213828 0)
(0.0785958 -0.231949 0)
(0.101535 -0.250675 0)
(0.125592 -0.269889 0)
(0.150178 -0.289419 0)
(0.174723 -0.308989 0)
(0.198457 -0.328263 0)
(0.2207 -0.346565 0)
(0.240595 -0.363207 0)
(0.257333 -0.376711 0)
(0.270342 -0.385485 0)
(0.27872 -0.386783 0)
(0.283412 -0.376511 0)
(0.284235 -0.350355 0)
(0.287386 -0.298536 0)
(0.297497 -0.215993 0)
(0.335955 -0.0866908 0)
(0.421235 0.0846643 0)
(0.603798 0.29862 0)
(-0.000103986 0.0036122 0)
(-0.00372624 0.0115658 0)
(-0.0120168 0.0186784 0)
(-0.0245255 0.0225294 0)
(-0.0390953 0.0219756 0)
(-0.0535071 0.0177856 0)
(-0.0661768 0.0113604 0)
(-0.0761585 0.00386168 0)
(-0.0830992 -0.00400754 0)
(-0.0869813 -0.0120048 0)
(-0.0878589 -0.020104 0)
(-0.0858425 -0.0281544 0)
(-0.0812629 -0.0357548 0)
(-0.0747951 -0.0424145 0)
(-0.0673989 -0.0478337 0)
(-0.0600987 -0.0520901 0)
(-0.0537186 -0.0556227 0)
(-0.048709 -0.059061 0)
(-0.0451137 -0.0630117 0)
(-0.0426534 -0.0679192 0)
(-0.0408569 -0.074026 0)
(-0.0391797 -0.0814155 0)
(-0.0370832 -0.0900776 0)
(-0.0340738 -0.0999685 0)
(-0.029716 -0.111039 0)
(-0.0236402 -0.123244 0)
(-0.0155454 -0.136539 0)
(-0.00520907 -0.150874 0)
(0.00750442 -0.166189 0)
(0.0226332 -0.182415 0)
(0.0401171 -0.199475 0)
(0.059784 -0.217284 0)
(0.0813742 -0.23575 0)
(0.104505 -0.254761 0)
(0.128746 -0.274176 0)
(0.153523 -0.293813 0)
(0.178279 -0.313369 0)
(0.202284 -0.332501 0)
(0.22489 -0.350515 0)
(0.245316 -0.366703 0)
(0.26285 -0.379618 0)
(0.277032 -0.387631 0)
(0.287242 -0.388125 0)
(0.294541 -0.377142 0)
(0.299401 -0.350591 0)
(0.307977 -0.299812 0)
(0.325711 -0.220266 0)
(0.372668 -0.0995162 0)
(0.466065 0.0566801 0)
(0.650147 0.244281 0)
(-0.000102323 0.0038138 0)
(-0.0037528 0.0122652 0)
(-0.0120868 0.0198755 0)
(-0.024639 0.0241009 0)
(-0.0392248 0.0236928 0)
(-0.0536051 0.0194073 0)
(-0.0662177 0.012729 0)
(-0.0761388 0.00489855 0)
(-0.0830213 -0.00333564 0)
(-0.0868472 -0.0117085 0)
(-0.0876679 -0.0201831 0)
(-0.0855931 -0.0285897 0)
(-0.0809609 -0.0364894 0)
(-0.0744584 -0.0433466 0)
(-0.0670538 -0.0488336 0)
(-0.059769 -0.0530327 0)
(-0.0534154 -0.0564182 0)
(-0.0484259 -0.0596715 0)
(-0.0448289 -0.0634496 0)
(-0.0423355 -0.068235 0)
(-0.0404712 -0.0742914 0)
(-0.038693 -0.0817102 0)
(-0.0364656 -0.0904808 0)
(-0.0332986 -0.100555 0)
(-0.0287598 -0.111876 0)
(-0.0224825 -0.124393 0)
(-0.0141685 -0.13805 0)
(-0.00359893 -0.152786 0)
(0.0093583 -0.168527 0)
(0.0247377 -0.185189 0)
(0.0424759 -0.202677 0)
(0.0623996 -0.220888 0)
(0.0842492 -0.239711 0)
(0.107647 -0.259017 0)
(0.13217 -0.278643 0)
(0.157263 -0.298395 0)
(0.182386 -0.317951 0)
(0.206852 -0.336954 0)
(0.230055 -0.354704 0)
(0.251289 -0.37047 0)
(0.26995 -0.382846 0)
(0.285686 -0.390189 0)
(0.298154 -0.390004 0)
(0.308528 -0.378529 0)
(0.317851 -0.3519 0)
(0.332202 -0.302598 0)
(0.35759 -0.226621 0)
(0.412666 -0.114774 0)
(0.513263 0.0264651 0)
(0.697877 0.189549 0)
(-0.000100987 0.00402237 0)
(-0.00377892 0.0129906 0)
(-0.0121537 0.0211161 0)
(-0.0247459 0.0257229 0)
(-0.0393468 0.0254609 0)
(-0.0536967 0.021074 0)
(-0.0662534 0.0141322 0)
(-0.0761159 0.0059596 0)
(-0.0829422 -0.00265014 0)
(-0.0867134 -0.0114102 0)