/*--------------------------------*- C++ -*----------------------------------*\
  =========                 |
  \\      /  F ield         | OpenFOAM: The Open Source CFD Toolbox
   \\    /   O peration     | Website:  https://openfoam.org
    \\  /    A nd           | Version:  7
     \\/     M anipulation  |
\*---------------------------------------------------------------------------*/
FoamFile
{
    version     2.0;
    format      ascii;
    class       volScalarField;
    location    "0.15";
    object      nut;
}
// * * * * * * * * * * * * * * * * * * * * * * * * * * * * * * * * * * * * * //

dimensions      [0 2 -1 0 0 0 0];

internalField   nonuniform List<scalar> 
70000
(
9.96255e-12
6.87843e-14
2.57118e-16
8.67468e-17
4.74493e-17
7.81174e-17
2.73784e-17
1.27698e-17
8.64588e-18
6.30446e-18
4.6162e-18
3.44011e-18
2.62435e-18
2.04459e-18
1.62141e-18
1.30541e-18
1.06483e-18
8.785e-19
7.31965e-19
6.15106e-19
5.20701e-19
4.43541e-19
3.79726e-19
3.26448e-19
2.81407e-19
2.43114e-19
2.09987e-19
1.81443e-19
1.56053e-19
1.34071e-19
1.13796e-19
9.63919e-20
7.96554e-20
6.55022e-20
5.17423e-20
3.96516e-20
2.97804e-20
1.82628e-20
1.48773e-20
3.2383e-21
8.40175e-21
3.3384e-22
1.64018e-20
1.50471e-19
2.92766e-19
5.64113e-18
9.66269e-18
1.26457e-16
8.15061e-15
1.42794e-13
1.04272e-10
5.9885e-12
6.44703e-14
2.14244e-14
2.89202e-16
1.69627e-17
2.51527e-17
2.10934e-17
1.22325e-17
7.26315e-18
4.7495e-18
3.30412e-18
2.3876e-18
1.77579e-18
1.35332e-18
1.05328e-18
8.34828e-19
6.72221e-19
5.4877e-19
4.53381e-19
3.78525e-19
3.1891e-19
2.70864e-19
2.31603e-19
1.99284e-19
1.72221e-19
1.49625e-19
1.30167e-19
1.1389e-19
9.93111e-20
8.73567e-20
7.60101e-20
6.71257e-20
5.82094e-20
5.12716e-20
4.52165e-20
3.79535e-20
3.79346e-20
2.47347e-20
4.22143e-20
1.2656e-20
9.09045e-20
6.39627e-20
4.70552e-19
2.79075e-18
9.48676e-18
6.24238e-17
2.47438e-16
3.77483e-14
2.31283e-14
3.19136e-10
3.39991e-12
1.91201e-13
1.99387e-14
7.73438e-16
5.95225e-17
7.53786e-18
4.30582e-18
2.19613e-18
1.09226e-18
6.04972e-19
3.69324e-19
2.39334e-19
1.61403e-19
1.12399e-19
8.05268e-20
5.9193e-20
4.45403e-20
3.42381e-20
2.68431e-20
2.1441e-20
1.74303e-20
1.44223e-20
1.21375e-20
1.04112e-20
9.09077e-21
8.13421e-21
7.42637e-21
7.02999e-21
6.81563e-21
6.98291e-21
7.36566e-21
8.36677e-21
9.88793e-21
1.25229e-20
1.7014e-20
2.33196e-20
3.71317e-20
5.23852e-20
9.98292e-20
1.44554e-19
3.43486e-19
6.19426e-19
1.95443e-18
7.13244e-18
2.00745e-17
1.20931e-16
3.71757e-16
5.30882e-14
1.10588e-13
6.1531e-09
1.92901e-11
7.85823e-13
6.1295e-14
5.53446e-15
9.41216e-16
1.13382e-16
3.05532e-17
1.28515e-17
5.73527e-18
2.69448e-18
1.38801e-18
7.77349e-19
4.62407e-19
2.87811e-19
1.86089e-19
1.2452e-19
8.60343e-20
6.12964e-20
4.501e-20
3.40737e-20
2.66202e-20
2.14993e-20
1.79901e-20
1.5639e-20
1.41678e-20
1.34129e-20
1.33179e-20
1.38846e-20
1.52638e-20
1.76319e-20
2.15492e-20
2.75084e-20
3.72389e-20
5.19186e-20
7.71012e-20
1.15362e-19
1.85991e-19
2.93674e-19
5.12863e-19
8.51804e-19
1.64939e-18
3.02173e-18
6.97411e-18
1.67653e-17
3.93445e-17
2.35772e-16
3.08831e-16
5.27899e-14
1.72976e-13
2.31969e-09
2.23519e-10
4.46725e-12
3.23004e-13
2.32477e-14
4.46619e-15
7.38533e-16
2.09194e-16
8.59807e-17
3.83677e-17
1.80267e-17
9.18132e-18
5.05431e-18
2.95425e-18
1.80898e-18
1.15189e-18
7.5949e-19
5.17076e-19
3.62842e-19
2.62174e-19
1.95029e-19
1.49452e-19
1.1813e-19
9.64989e-20
8.16681e-20
7.18294e-20
6.58482e-20
6.31729e-20
6.35429e-20
6.73545e-20
7.50636e-20
8.86461e-20
1.09642e-19
1.44337e-19
1.96385e-19
2.8625e-19
4.21026e-19
6.73145e-19
1.04905e-18
1.8297e-18
2.99062e-18
5.70828e-18
1.01297e-17
2.11104e-17
4.71492e-17
9.22412e-17
4.8878e-16
3.81868e-16
5.48988e-14
1.65871e-13
3.00619e-09
5.28465e-09
4.37384e-11
1.95421e-12
1.09115e-13
1.82738e-14
3.31881e-15
9.74324e-16
3.98644e-16
1.78775e-16
8.45459e-17
4.30396e-17
2.3546e-17
1.36417e-17
8.27127e-18
5.2122e-18
3.39929e-18
2.28783e-18
1.58588e-18
1.13088e-18
8.29248e-19
6.25467e-19
4.85753e-19
3.8908e-19
3.2215e-19
2.76527e-19
2.46831e-19
2.30029e-19
2.24396e-19
2.30324e-19
2.48573e-19
2.84248e-19
3.41191e-19
4.36592e-19
5.79505e-19
8.26847e-19
1.19372e-18
1.8844e-18
2.89588e-18
5.02348e-18
8.1101e-18
1.53559e-17
2.68468e-17
5.37039e-17
1.18726e-16
2.09637e-16
9.66487e-16
8.17689e-16
5.72122e-14
1.56818e-13
1.07675e-09
4.76836e-09
3.72637e-09
1.8614e-11
6.78854e-13
9.32158e-14
1.55436e-14
4.26054e-15
1.65156e-15
7.21241e-16
3.36717e-16
1.69705e-16
9.19357e-17
5.27549e-17
3.16879e-17
1.97826e-17
1.27795e-17
8.51631e-18
5.84196e-18
4.11947e-18
2.98422e-18
2.22107e-18
1.6997e-18
1.3393e-18
1.08884e-18
9.15822e-19
7.99301e-19
7.26734e-19
6.90351e-19
6.88791e-19
7.22014e-19
8.01355e-19
9.34576e-19
1.16262e-18
1.50475e-18
2.09674e-18
2.96845e-18
4.60352e-18
6.97943e-18
1.19511e-17
1.91367e-17
3.57157e-17
6.21065e-17
1.20339e-16
2.6293e-16
4.39189e-16
1.8476e-15
1.9525e-15
6.12694e-14
1.54053e-13
2.42948e-09
3.87275e-09
8.25098e-10
2.44553e-09
8.73661e-12
7.26576e-13
9.28645e-14
2.13108e-14
7.34307e-15
2.97253e-15
1.31839e-15
6.40002e-16
3.36921e-16
1.89043e-16
1.11511e-16
6.85634e-17
4.37046e-17
2.87715e-17
1.95083e-17
1.35992e-17
9.73685e-18
7.15859e-18
5.40691e-18
4.20024e-18
3.36186e-18
2.77928e-18
2.37996e-18
2.119e-18
1.96763e-18
1.91545e-18
1.95683e-18
2.11398e-18
2.40066e-18
2.90671e-18
3.67075e-18
4.99051e-18
6.92568e-18
1.05187e-17
1.57294e-17
2.64492e-17
4.20658e-17
7.69531e-17
1.33639e-16
2.51711e-16
5.43871e-16
8.94727e-16
3.46075e-15
4.4456e-15
6.8725e-14
1.57895e-13
3.37129e-09
4.37352e-09
5.93204e-10
3.00968e-10
5.51375e-10
1.90122e-11
9.86478e-13
1.50669e-13
4.13014e-14
1.44521e-14
5.7833e-15
2.59993e-15
1.29069e-15
6.91925e-16
3.93691e-16
2.35123e-16
1.46319e-16
9.43862e-17
6.28741e-17
4.31367e-17
3.04315e-17
2.20579e-17
1.64278e-17
1.25801e-17
9.91998e-18
8.07195e-18
6.7956e-18
5.93987e-18
5.40712e-18
5.15174e-18
5.14533e-18
5.42619e-18
6.01528e-18
7.10201e-18
8.76241e-18
1.16258e-17
1.58167e-17
2.34893e-17
3.46288e-17
5.69992e-17
9.002e-17
1.60865e-16
2.79021e-16
5.11816e-16
1.09299e-15
1.81087e-15
6.38498e-15
9.54182e-15
8.25587e-14
1.72955e-13
3.41304e-09
4.61075e-09
6.75123e-10
1.94392e-10
4.75755e-11
6.77815e-11
3.31324e-10
2.95067e-12
4.10053e-13
1.02743e-13
3.33878e-14
1.2981e-14
5.7906e-15
2.86108e-15
1.52705e-15
8.66475e-16
5.17176e-16
3.22268e-16
2.08493e-16
1.39488e-16
9.62489e-17
6.83869e-17
5.00021e-17
3.76282e-17
2.9172e-17
2.33388e-17
1.93129e-17
1.65818e-17
1.48156e-17
1.38394e-17
1.35405e-17
1.39704e-17
1.51494e-17
1.74735e-17
2.10909e-17
2.73305e-17
3.64621e-17
5.2917e-17
7.68643e-17
1.23631e-16
1.93649e-16
3.3751e-16
5.83356e-16
1.0448e-15
2.19684e-15
3.6887e-15
1.18869e-14
1.9677e-14
1.07733e-13
2.08051e-13
3.21408e-09
4.39462e-09
7.76712e-10
2.03122e-10
3.69888e-11
2.21298e-11
1.37166e-11
2.1343e-11
1.78156e-10
2.41965e-12
3.82206e-13
1.03121e-13
3.66092e-14
1.54373e-14
7.32798e-15
3.79857e-15
2.11018e-15
1.24043e-15
7.64678e-16
4.91204e-16
3.27333e-16
2.25625e-16
1.6059e-16
1.17949e-16
8.94189e-17
7.00489e-17
5.68059e-17
4.78153e-17
4.18875e-17
3.8351e-17
3.67681e-17
3.71434e-17
3.94361e-17
4.44852e-17
5.25701e-17
6.65781e-17
8.71075e-17
1.23511e-16
1.76623e-16
2.77315e-16
4.30062e-16
7.30484e-16
1.25444e-15
2.19795e-15
4.5338e-15
7.71786e-15
2.27203e-14
4.01588e-14
1.54876e-13
2.79967e-13
3.01983e-09
3.97648e-09
8.49719e-10
2.1419e-10
3.93445e-11
2.047e-11
8.83975e-12
4.7561e-12
4.3479e-12
7.02688e-12
7.67869e-11
5.64296e-12
6.22728e-13
1.5885e-13
5.62268e-14
2.39444e-14
1.15353e-14
6.08278e-15
3.44124e-15
2.06161e-15
1.29654e-15
8.50969e-16
5.8071e-16
4.11115e-16
3.01669e-16
2.29472e-16
1.8114e-16
1.48684e-16
1.27181e-16
1.13789e-16
1.06669e-16
1.05366e-16
1.0943e-16
1.20674e-16
1.39556e-16
1.72692e-16
2.21432e-16
3.06558e-16
4.31044e-16
6.59946e-16
1.01115e-15
1.67254e-15
2.84446e-15
4.87949e-15
9.83943e-15
1.69258e-14
4.55269e-14
8.36313e-14
2.48992e-13
4.25615e-13
2.84859e-09
3.51676e-09
9.1171e-10
2.1178e-10
4.29639e-11
2.20792e-11
9.29394e-12
4.06875e-12
2.57841e-12
2.00944e-12
1.82633e-12
2.14406e-12
4.30928e-12
7.89954e-11
3.27307e-12
4.57741e-13
1.32862e-13
5.17916e-14
2.38815e-14
1.23233e-14
6.91092e-15
4.14036e-15
2.62212e-15
1.7439e-15
1.21326e-15
8.81245e-16
6.6791e-16
5.28651e-16
4.37509e-16
3.79685e-16
3.45929e-16
3.32534e-16
3.36527e-16
3.61699e-16
4.08275e-16
4.92598e-16
6.17691e-16
8.3342e-16
1.14963e-15
1.71332e-15
2.58614e-15
4.16091e-15
6.98136e-15
1.1722e-14
2.30296e-14
3.97555e-14
9.84106e-14
1.8378e-13
4.51751e-13
7.37626e-13
2.67873e-09
3.06149e-09
9.81061e-10
2.00778e-10
4.62453e-11
2.36314e-11
1.06085e-11
4.4038e-12
2.53334e-12
1.70818e-12
1.21883e-12
9.37578e-13
8.07268e-13
8.01138e-13
9.66468e-13
1.63668e-12
6.95951e-12
1.76365e-11
8.65185e-13
2.10831e-13
7.86017e-14
3.61806e-14
1.90097e-14
1.09854e-14
6.84458e-15
4.5466e-15
3.19937e-15
2.37772e-15
1.86353e-15
1.54164e-15
1.34582e-15
1.24436e-15
1.21522e-15
1.26283e-15
1.38182e-15
1.61624e-15
1.97176e-15
2.58135e-15
3.47791e-15
5.02783e-15
7.44371e-15
1.16224e-14
1.91451e-14
3.14211e-14
5.98863e-14
1.03081e-13
2.36202e-13
4.40998e-13
9.41131e-13
1.48048e-12
2.50042e-09
2.62688e-09
1.06129e-09
1.86854e-10
4.96783e-11
2.46274e-11
1.20797e-11
4.96281e-12
2.77478e-12
1.81111e-12
1.21893e-12
8.47623e-13
6.25559e-13
4.93205e-13
4.15744e-13
3.77083e-13
3.73308e-13
4.13973e-13
5.41044e-13
9.39843e-13
3.28763e-12
7.23188e-11
1.13019e-12
2.6016e-13
1.00106e-13
4.89603e-14
2.77902e-14
1.75875e-14
1.21573e-14
9.08653e-15
7.2911e-15
6.27494e-15
5.75952e-15
5.66382e-15
5.90223e-15
6.59441e-15
7.72931e-15
9.71509e-15
1.26638e-14
1.76237e-14
2.53889e-14
3.82742e-14
6.14547e-14
9.82358e-14
1.80671e-13
3.07884e-13
6.56229e-13
1.20987e-12
2.32728e-12
3.54623e-12
2.31423e-09
2.22692e-09
1.14706e-09
1.72645e-10
5.37383e-11
2.52026e-11
1.36099e-11
5.59705e-12
3.08939e-12
2.01388e-12
1.34675e-12
9.13808e-13
6.45631e-13
4.7743e-13
3.67909e-13
2.94924e-13
2.46267e-13
2.14797e-13
1.96475e-13
1.89632e-13
1.95026e-13
2.17171e-13
2.69092e-13
3.90768e-13
7.48373e-13
2.79296e-12
1.15284e-10
1.46128e-12
3.74632e-13
1.66179e-13
9.55493e-14
6.49973e-14
5.0004e-14
4.27895e-14
3.98525e-14
4.04868e-14
4.38411e-14
5.12725e-14
6.29978e-14
8.26664e-14
1.1375e-13
1.63329e-13
2.5213e-13
3.88953e-13
6.84389e-13
1.14372e-12
2.27549e-12
4.10485e-12
7.31064e-12
1.08348e-11
2.12245e-09
1.86783e-09
1.23105e-09
1.59195e-10
5.84717e-11
2.54878e-11
1.52278e-11
6.30687e-12
3.43852e-12
2.25177e-12
1.51884e-12
1.03e-12
7.20881e-13
5.24138e-13
3.93647e-13
3.0418e-13
2.41628e-13
1.97335e-13
1.65748e-13
1.43291e-13
1.27705e-13
1.1763e-13
1.12392e-13
1.11949e-13
1.17017e-13
1.29522e-13
1.5373e-13
1.99328e-13
2.90629e-13
5.02434e-13
1.15204e-12
4.96449e-12
1.06079e-11
4.88716e-12
1.628e-12
9.50439e-13
7.20849e-13
6.52811e-13
6.64072e-13
7.47491e-13
9.14079e-13
1.18429e-12
1.68352e-12
2.42714e-12
3.99016e-12
6.41366e-12
1.18818e-11
2.08173e-11
3.49654e-11
5.05611e-11
1.92673e-09
1.55003e-09
1.30668e-09
1.4728e-10
6.36338e-11
2.55521e-11
1.69386e-11
7.12037e-12
3.82753e-12
2.51558e-12
1.71716e-12
1.17181e-12
8.20857e-13
5.95825e-13
4.45517e-13
3.41392e-13
2.67594e-13
2.1439e-13
1.75458e-13
1.46639e-13
1.25192e-13
1.09293e-13
9.77297e-14
8.97166e-14
8.47919e-14
8.27908e-14
8.38402e-14
8.84862e-14
9.78078e-14
1.13963e-13
1.40722e-13
1.85753e-13
2.63474e-13
4.06796e-13
6.87966e-13
1.30488e-12
2.82528e-12
7.38744e-12
2.50242e-11
9.98623e-11
1.46182e-11
8.80168e-11
7.89159e-11
7.83063e-11
9.90971e-11
1.35302e-10
2.18151e-10
3.62241e-10
5.67954e-10
7.88059e-10
1.72929e-09
1.27337e-09
1.36826e-09
1.37799e-10
6.88205e-11
2.54652e-11
1.87088e-11
8.06243e-12
4.26814e-12
2.80946e-12
1.94173e-12
1.33608e-12
9.3923e-13
6.83455e-13
5.12167e-13
3.92916e-13
3.07815e-13
2.45962e-13
2.00245e-13
1.65968e-13
1.40014e-13
1.20291e-13
1.05372e-13
9.42773e-14
8.63448e-14
8.11714e-14
7.85596e-14
7.85627e-14
8.14534e-14
8.79401e-14
9.91321e-14
1.17235e-13
1.45503e-13
1.90459e-13
2.62004e-13
3.80751e-13
5.80126e-13
9.30809e-13
1.56001e-12
2.72605e-12
4.96598e-12
9.23801e-12
1.78779e-11
3.40204e-11
6.60121e-11
1.18082e-10
2.00974e-10
2.92904e-10
3.74931e-10
4.15022e-10
1.53288e-09
1.03752e-09
1.41091e-09
1.31712e-10
7.35096e-11
2.53281e-11
2.04789e-11
9.15374e-12
4.77134e-12
3.13893e-12
2.19641e-12
1.52569e-12
1.07716e-12
7.86496e-13
5.91696e-13
4.55729e-13
3.58301e-13
2.87155e-13
2.34289e-13
1.94392e-13
1.6394e-13
1.40569e-13
1.22658e-13
1.09085e-13
9.90726e-14
9.21176e-14
8.7924e-14
8.64378e-14
8.77898e-14
9.24768e-14
1.0127e-13
1.15747e-13
1.38097e-13
1.72607e-13
2.25279e-13
3.07918e-13
4.38065e-13
6.49254e-13
9.97355e-13
1.57874e-12
2.5859e-12
4.28971e-12
7.37728e-12
1.25629e-11
2.21091e-11
3.74824e-11
6.35018e-11
9.98314e-11
1.45449e-10
1.92297e-10
1.34046e-09
8.41298e-10
1.43061e-09
1.29932e-10
7.71026e-11
2.52727e-11
2.21736e-11
1.04127e-11
5.34855e-12
3.50941e-12
2.4852e-12
1.74479e-12
1.23798e-12
9.07203e-13
6.85469e-13
5.3047e-13
4.1906e-13
3.37433e-13
2.76566e-13
2.3045e-13
1.95091e-13
1.67816e-13
1.46795e-13
1.30762e-13
1.18833e-13
1.10433e-13
1.05217e-13
1.03102e-13
1.04206e-13
1.0903e-13
1.18355e-13
1.33764e-13
1.57437e-13
1.93496e-13
2.47696e-13
3.30721e-13
4.58506e-13
6.5919e-13
9.80177e-13
1.49567e-12
2.35604e-12
3.75333e-12
6.17516e-12
1.01022e-11
1.69795e-11
2.78072e-11
4.53317e-11
6.9718e-11
1.00133e-10
1.31916e-10
1.15497e-09
6.82399e-10
1.42447e-09
1.33276e-10
7.90392e-11
2.54462e-11
2.37104e-11
1.18542e-11
6.01292e-12
3.92684e-12
2.81204e-12
1.99782e-12
1.42571e-12
1.04877e-12
7.96015e-13
6.19165e-13
4.91691e-13
3.98006e-13
3.27947e-13
2.74707e-13
2.33758e-13
2.02073e-13
1.7759e-13
1.58883e-13
1.44962e-13
1.35185e-13
1.29176e-13
1.2686e-13
1.28399e-13
1.34395e-13
1.45787e-13
1.64405e-13
1.92811e-13
2.35633e-13
2.99475e-13
3.95915e-13
5.42664e-13
7.68988e-13
1.12525e-12
1.68542e-12
2.59974e-12
4.05292e-12
6.49493e-12
1.03751e-11
1.68988e-11
2.69581e-11
4.25445e-11
6.38177e-11
8.99737e-11
1.1737e-10
9.7932e-10
5.57502e-10
1.39111e-09
1.42437e-10
7.89391e-11
2.5986e-11
2.50116e-11
1.34861e-11
6.77997e-12
4.39832e-12
3.18106e-12
2.28946e-12
1.6449e-12
1.21497e-12
9.2645e-13
7.24493e-13
5.78532e-13
4.70919e-13
3.90212e-13
3.28713e-13
2.81283e-13
2.44499e-13
2.16035e-13
1.94294e-13
1.78169e-13
1.66958e-13
1.60263e-13
1.58046e-13
1.60558e-13
1.68569e-13
1.83293e-13
2.06971e-13
2.42822e-13
2.96392e-13
3.75817e-13
4.94653e-13
6.74165e-13
9.47749e-13
1.37365e-12
2.03416e-12
3.09393e-12
4.75397e-12
7.473e-12
1.17245e-11
1.86246e-11
2.90423e-11
4.45785e-11
6.52981e-11
9.04543e-11
1.16789e-10
8.16202e-10
4.62473e-10
1.3309e-09
1.57952e-10
7.66725e-11
2.69968e-11
2.60168e-11
1.53055e-11
7.66785e-12
4.93228e-12
3.59677e-12
2.62469e-12
1.90068e-12
1.41012e-12
1.08042e-12
8.49652e-13
6.82455e-13
5.58771e-13
4.6573e-13
3.94636e-13
3.39664e-13
2.96942e-13
2.63854e-13
2.38612e-13
2.19989e-13
2.07223e-13
1.99911e-13
1.98076e-13
2.02106e-13
2.13007e-13
2.32377e-13
2.63033e-13
3.09102e-13
3.77417e-13
4.78229e-13
6.27943e-13
8.52737e-13
1.19226e-12
1.71576e-12
2.5191e-12
3.78855e-12
5.75323e-12
8.89809e-12
1.37408e-11
2.13572e-11
3.26081e-11
4.88382e-11
6.99779e-11
9.53654e-11
1.21892e-10
6.67922e-10
3.92676e-10
1.24605e-09
1.8006e-10
7.23944e-11
2.85335e-11
2.66951e-11
1.72928e-11
8.69719e-12
5.53877e-12
4.06425e-12
3.00874e-12
2.19876e-12
1.63926e-12
1.26216e-12
9.98394e-13
8.0688e-13
6.6471e-13
5.57416e-13
4.75196e-13
4.11459e-13
3.61828e-13
3.23364e-13
2.94075e-13
2.72608e-13
2.58147e-13
2.50302e-13
2.49188e-13
2.55384e-13
2.70216e-13
2.9579e-13
3.35672e-13
3.95175e-13
4.82806e-13
6.11524e-13
8.01431e-13
1.08487e-12
1.50961e-12
2.15834e-12
3.14444e-12
4.67994e-12
7.02886e-12
1.07085e-11
1.6285e-11
2.48076e-11
3.71169e-11
5.43593e-11
7.63081e-11
1.02397e-10
1.29568e-10
5.36203e-10
3.43295e-10
1.14059e-09
2.08477e-10
6.65751e-11
3.05763e-11
2.70566e-11
1.94074e-11
9.89039e-12
6.22955e-12
4.58937e-12
3.44702e-12
2.54546e-12
1.90815e-12
1.47662e-12
1.17511e-12
9.55856e-13
7.92507e-13
6.68802e-13
5.73728e-13
4.99837e-13
4.42192e-13
3.97501e-13
3.63551e-13
3.38863e-13
3.22577e-13
3.14341e-13
3.14404e-13
3.23604e-13
3.43683e-13
3.77408e-13
4.29307e-13
5.06194e-13
6.1869e-13
7.83118e-13
1.02419e-12
1.38168e-12
1.91332e-12
2.71739e-12
3.928e-12
5.78561e-12
8.59259e-12
1.28993e-11
1.93156e-11
2.88633e-11
4.2339e-11
6.07211e-11
8.36116e-11
1.10536e-10
1.38441e-10
4.22058e-10
3.09561e-10
1.02007e-09
2.42113e-10
5.99814e-11
3.29996e-11
2.71582e-11
2.15866e-11
1.12699e-11
7.01828e-12
5.179e-12
3.94505e-12
2.94761e-12
2.22335e-12
1.72951e-12
1.38493e-12
1.13415e-12
9.46658e-13
8.04147e-13
6.94285e-13
6.08685e-13
5.4179e-13
4.89922e-13
4.50639e-13
4.2234e-13
4.04135e-13
3.95746e-13
3.97612e-13
4.10916e-13
4.3794e-13
4.82296e-13
5.49731e-13
6.48936e-13
7.93171e-13
1.00286e-12
1.30836e-12
1.75819e-12
2.42194e-12
3.41547e-12
4.8964e-12
7.13518e-12
1.04736e-11
1.54926e-11
2.28347e-11
3.34877e-11
4.81769e-11
6.77317e-11
9.1577e-11
1.19311e-10
1.4787e-10
3.25713e-10
2.86933e-10
8.91813e-10
2.78727e-10
5.36174e-11
3.55622e-11
2.70997e-11
2.37483e-11
1.28559e-11
7.92063e-12
5.84129e-12
4.5085e-12
3.41243e-12
2.59224e-12
2.02738e-12
1.63376e-12
1.34733e-12
1.13249e-12
9.68552e-13
8.41771e-13
7.42745e-13
6.65237e-13
6.05154e-13
5.59819e-13
5.27521e-13
5.07369e-13
4.99204e-13
5.03727e-13
5.22577e-13
5.58731e-13
6.16872e-13
7.04279e-13
8.31967e-13
1.01645e-12
1.28308e-12
1.66902e-12
2.23297e-12
3.05828e-12
4.28022e-12
6.08216e-12
8.76519e-12
1.27093e-11
1.85211e-11
2.68615e-11
3.86743e-11
5.45878e-11
7.529e-11
1.00041e-10
1.28494e-10
1.57543e-10
2.46516e-10
2.71438e-10
7.64511e-10
3.14808e-10
4.85607e-11
3.79472e-11
2.70107e-11
2.5799e-11
1.4662e-11
8.95449e-12
6.58597e-12
5.14325e-12
3.94738e-12
3.023e-12
2.37772e-12
1.92843e-12
1.60187e-12
1.35626e-12
1.16809e-12
1.02208e-12
9.07764e-13
8.18167e-13
7.48758e-13
6.96627e-13
6.59974e-13
6.37947e-13
6.30569e-13
6.38898e-13
6.65166e-13
7.13238e-13
7.89141e-13
9.02065e-13
1.06587e-12
1.30103e-12
1.63878e-12
2.12434e-12
2.82805e-12
3.8489e-12
5.34319e-12
7.52152e-12
1.07153e-11
1.53392e-11
2.20186e-11
3.14163e-11
4.44181e-11
6.15432e-11
8.33293e-11
1.08886e-10
1.37923e-10
1.67275e-10
1.83087e-10
2.59807e-10
6.45408e-10
3.46208e-10
4.56733e-11
3.98123e-11
2.70305e-11
2.76458e-11
1.66895e-11
1.01397e-11
7.42441e-12
5.85553e-12
4.55995e-12
3.52448e-12
2.78897e-12
2.2767e-12
1.90523e-12
1.62528e-12
1.40993e-12
1.24225e-12
1.11066e-12
1.00741e-12
9.2752e-13
8.67852e-13
8.26554e-13
8.0287e-13
7.97089e-13
8.10743e-13
8.46828e-13
9.10334e-13
1.00896e-12
1.15425e-12
1.36351e-12
1.66199e-12
2.08781e-12
2.69558e-12
3.56873e-12
4.82363e-12
6.63882e-12
9.25267e-12
1.30254e-11
1.84005e-11
2.60132e-11
3.65101e-11
5.07085e-11
6.89967e-11
9.1781e-11
1.18031e-10
1.47468e-10
1.76901e-10
1.33619e-10
2.49211e-10
5.38242e-10
3.6927e-10
4.54522e-11
4.08457e-11
2.7281e-11
2.92147e-11
1.89218e-11
1.14974e-11
8.36963e-12
6.65209e-12
5.25741e-12
4.10606e-12
3.27049e-12
2.68735e-12
2.26588e-12
1.94797e-12
1.70245e-12
1.51059e-12
1.35967e-12
1.24117e-12
1.14964e-12
1.08174e-12
1.03563e-12
1.0107e-12
1.00764e-12
1.0286e-12
1.07753e-12
1.16085e-12
1.2883e-12
1.4743e-12
1.74027e-12
2.11711e-12
2.65093e-12
3.40703e-12
4.48331e-12
6.01487e-12
8.20316e-12
1.13137e-11
1.57322e-11
2.19237e-11
3.0522e-11
4.21401e-11
5.75137e-11
7.68919e-11
1.00563e-10
1.2735e-10
1.56983e-10
1.86281e-10
9.60259e-11
2.374e-10
4.44511e-10
3.81611e-10
4.81178e-11
4.08803e-11
2.78371e-11
3.04697e-11
2.13206e-11
1.30485e-11
9.43628e-12
7.54061e-12
6.04676e-12
4.77742e-12
3.83256e-12
3.1702e-12
2.6934e-12
2.33395e-12
2.05536e-12
1.83683e-12
1.66454e-12
1.52922e-12
1.42494e-12
1.34823e-12
1.29729e-12
1.27182e-12
1.27298e-12
1.30375e-12
1.36931e-12
1.4778e-12
1.64146e-12
1.87816e-12
2.21417e-12
2.68698e-12
3.35172e-12
4.2857e-12
5.60238e-12
7.45647e-12
1.00722e-11
1.374e-11
1.8867e-11
2.59292e-11
3.55479e-11
4.82847e-11
6.47825e-11
8.51553e-11
1.09561e-10
1.3671e-10
1.6635e-10
1.95297e-10
6.81199e-11
2.2307e-10
3.64769e-10
3.82341e-10
5.37068e-11
3.99919e-11
2.87092e-11
3.14211e-11
2.38263e-11
1.48119e-11
1.06407e-11
8.53011e-12
6.93473e-12
5.54831e-12
4.48631e-12
3.73618e-12
3.19855e-12
2.79413e-12
2.4798e-12
2.23227e-12
2.03669e-12
1.88306e-12
1.76507e-12
1.67913e-12
1.62361e-12
1.59861e-12
1.60598e-12
1.64971e-12
1.7365e-12
1.8766e-12
2.08525e-12
2.38438e-12
2.8059e-12
3.39481e-12
4.21631e-12
5.3607e-12
6.95785e-12
9.18219e-12
1.22796e-11
1.65621e-11
2.24514e-11
3.04243e-11
4.10761e-11
5.49018e-11
7.24481e-11
9.36792e-11
1.18655e-10
1.46004e-10
1.75436e-10
2.03803e-10
4.78335e-11
2.05825e-10
2.98747e-10
3.71948e-10
6.20217e-11
3.84791e-11
2.98415e-11
3.21248e-11
2.63625e-11
1.68011e-11
1.20004e-11
9.63118e-12
7.92797e-12
6.42828e-12
5.24353e-12
4.3973e-12
3.79328e-12
3.34075e-12
2.98842e-12
2.7099e-12
2.48933e-12
2.31614e-12
2.18369e-12
2.08836e-12
2.02882e-12
2.00572e-12
2.0218e-12
2.08233e-12
2.19585e-12
2.37517e-12
2.63903e-12
3.0141e-12
3.53867e-12
4.26614e-12
5.27265e-12
6.66228e-12
8.58149e-12
1.12238e-11
1.48544e-11
1.98021e-11
2.64953e-11
3.54e-11
4.70721e-11
6.19307e-11
8.0414e-11
1.02357e-10
1.27723e-10
1.55055e-10
1.84077e-10
2.11692e-10
3.33501e-11
1.85991e-10
2.45388e-10
3.52076e-10
7.25201e-11
3.67761e-11
3.11224e-11
3.26721e-11
2.88447e-11
1.90197e-11
1.35339e-11
1.08562e-11
9.03333e-12
7.42641e-12
6.11648e-12
5.16664e-12
4.49077e-12
3.98743e-12
3.59544e-12
3.28447e-12
3.03762e-12
2.84395e-12
2.69661e-12
2.59209e-12
2.52949e-12
2.51019e-12
2.53808e-12
2.61999e-12
2.76668e-12
2.99396e-12
3.32464e-12
3.79077e-12
4.43776e-12
5.32818e-12
6.54969e-12
8.22046e-12
1.05032e-11
1.36088e-11
1.78184e-11
2.34711e-11
3.09937e-11
4.08289e-11
5.34826e-11
6.92883e-11
8.8574e-11
1.11064e-10
1.36612e-10
1.63732e-10
1.92163e-10
2.18846e-10
2.31603e-11
1.64441e-10
2.03058e-10
3.25159e-10
8.4288e-11
3.53623e-11
3.24076e-11
3.31719e-11
3.11942e-11
2.14568e-11
1.52597e-11
1.2219e-11
1.02583e-11
8.55118e-12
7.11756e-12
6.05822e-12
5.30546e-12
4.74913e-12
4.31668e-12
3.97256e-12
3.69875e-12
3.48416e-12
3.32196e-12
3.20889e-12
3.14464e-12
3.13159e-12
3.17498e-12
3.28359e-12
3.47077e-12
3.75581e-12
4.16614e-12
4.73981e-12
5.52997e-12
6.60887e-12
8.07603e-12
1.00635e-11
1.27489e-11
1.63582e-11
2.11835e-11
2.75673e-11
3.5925e-11
4.66656e-11
6.02345e-11
7.68756e-11
9.68105e-11
1.19657e-10
1.4519e-10
1.71918e-10
1.99565e-10
2.25156e-10
1.60626e-11
1.42411e-10
1.69841e-10
2.93962e-10
9.61334e-11
3.46846e-11
3.35645e-11
3.37292e-11
3.33534e-11
2.40849e-11
1.71944e-11
1.37353e-11
1.16116e-11
9.81048e-12
8.25902e-12
7.08685e-12
6.25295e-12
5.64221e-12
5.16951e-12
4.7926e-12
4.49195e-12
4.25666e-12
4.0802e-12
3.95974e-12
3.8958e-12
3.89196e-12
3.95516e-12
4.09644e-12
4.33219e-12
4.68563e-12
5.18933e-12
5.88789e-12
6.84261e-12
8.13572e-12
9.87844e-12
1.22158e-11
1.53386e-11
1.94838e-11
2.49495e-11
3.20735e-11
4.12505e-11
5.28463e-11
6.72388e-11
8.45801e-11
1.04994e-10
1.28005e-10
1.53325e-10
1.79472e-10
2.06168e-10
2.30555e-10
1.11471e-11
1.21062e-10
1.43822e-10
2.61226e-10
1.06784e-10
3.50866e-11
3.45222e-11
3.44269e-11
3.52971e-11
2.68601e-11
1.9352e-11
1.54219e-11
1.31034e-11
1.1212e-11
9.55277e-12
8.26796e-12
7.35008e-12
6.68441e-12
6.1729e-12
5.76481e-12
5.43854e-12
5.1836e-12
4.99415e-12
4.86809e-12
4.80695e-12
4.8158e-12
4.90361e-12
5.08405e-12
5.37695e-12
5.80993e-12
6.42113e-12
7.26207e-12
8.40247e-12
9.93444e-12
1.19802e-11
1.46964e-11
1.8284e-11
2.2987e-11
2.91029e-11
3.69571e-11
4.69148e-11
5.92918e-11
7.43922e-11
9.22846e-11
1.12992e-10
1.35976e-10
1.60902e-10
1.86285e-10
2.11868e-10
2.34949e-10
7.75666e-12
1.01116e-10
1.23265e-10
2.29297e-10
1.15169e-10
3.67401e-11
3.52923e-11
3.53112e-11
3.70364e-11
2.97257e-11
2.17403e-11
1.72961e-11
1.47462e-11
1.27635e-11
1.10101e-11
9.61732e-12
8.61474e-12
7.89481e-12
7.34731e-12
6.9112e-12
6.56182e-12
6.28928e-12
6.08891e-12
5.95966e-12
5.90435e-12
5.9298e-12
6.04736e-12
6.2737e-12
6.63248e-12
7.15611e-12
7.88865e-12
8.88875e-12
1.02345e-11
1.20273e-11
1.43995e-11
1.75167e-11
2.15873e-11
2.68567e-11
3.36157e-11
4.21698e-11
5.28477e-11
6.59089e-11
8.15857e-11
9.98607e-11
1.20682e-10
1.43453e-10
1.67784e-10
1.92269e-10
2.16655e-10
2.38344e-10
5.4207e-12
8.30472e-11
1.06697e-10
1.99706e-10
1.20631e-10
3.9629e-11
3.59666e-11
3.63867e-11
3.8615e-11
3.26205e-11
2.43581e-11
1.93748e-11
1.65539e-11
1.44735e-11
1.26415e-11
1.11506e-11
1.00657e-11
9.29371e-12
8.71457e-12
8.25532e-12
7.88689e-12
7.60001e-12
7.39165e-12
7.26227e-12
7.21626e-12
7.26251e-12
7.41502e-12
7.69388e-12
8.1269e-12
8.75161e-12
9.61817e-12
1.07924e-11
1.23602e-11
1.44318e-11
1.71474e-11
2.06795e-11
2.52393e-11
3.1069e-11
3.8446e-11
4.76499e-11
5.89663e-11
7.25975e-11
8.87018e-11
1.07192e-10
1.2794e-10
1.50317e-10
1.7391e-10
1.97355e-10
2.20423e-10
2.40676e-10
3.80609e-12
6.72116e-11
9.29758e-11
1.73208e-10
1.22986e-10
4.35748e-11
3.66991e-11
3.76295e-11
4.00987e-11
3.54889e-11
2.7193e-11
2.16734e-11
1.85419e-11
1.63514e-11
1.44569e-11
1.28832e-11
1.17221e-11
1.09024e-11
1.02977e-11
9.82206e-12
9.44041e-12
9.14376e-12
8.93126e-12
8.80539e-12
8.77246e-12
8.84371e-12
9.03613e-12
9.37349e-12
9.8881e-12
1.06228e-11
1.16339e-11
1.29941e-11
1.47966e-11
1.71588e-11
2.0227e-11
2.41772e-11
2.92193e-11
3.55871e-11
4.35392e-11
5.33234e-11
6.51789e-11
7.92508e-11
9.56266e-11
1.14161e-10
1.34656e-10
1.5648e-10
1.79195e-10
2.0149e-10
2.23161e-10
2.41936e-10
2.68476e-12
5.37571e-11
8.12878e-11
1.50079e-10
1.22463e-10
4.82687e-11
3.7666e-11
3.90082e-11
4.1562e-11
3.829e-11
3.02216e-11
2.4204e-11
2.07266e-11
1.84081e-11
1.64657e-11
1.48294e-11
1.36034e-11
1.27431e-11
1.21206e-11
1.16373e-11
1.12502e-11
1.09498e-11
1.07379e-11
1.06197e-11
1.06037e-11
1.07038e-11
1.09403e-11
1.13409e-11
1.19427e-11
1.27939e-11
1.39568e-11
1.55103e-11
1.75543e-11
2.02115e-11
2.36318e-11
2.79915e-11
3.34948e-11
4.03624e-11
4.88289e-11
5.91072e-11
7.13883e-11
8.57606e-11
1.02252e-10
1.20657e-10
1.40744e-10
1.61862e-10
1.83557e-10
2.04643e-10
2.24887e-10
2.42158e-10
1.90195e-12
4.26173e-11
7.10976e-11
1.30272e-10
1.19581e-10
5.33182e-11
3.90238e-11
4.05019e-11
4.30751e-11
4.10042e-11
3.34102e-11
2.69735e-11
2.31242e-11
2.06562e-11
1.8677e-11
1.70026e-11
1.57285e-11
1.4838e-11
1.4208e-11
1.37276e-11
1.33446e-11
1.30479e-11
1.28424e-11
1.27361e-11
1.27407e-11
1.28728e-11
1.31562e-11
1.36229e-11
1.43148e-11
1.52854e-11
1.66028e-11
1.83517e-11
2.06367e-11
2.35843e-11
2.73454e-11
3.2093e-11
3.80218e-11
4.53351e-11
5.42401e-11
6.49121e-11
7.74942e-11
9.20238e-11
1.0847e-10
1.26591e-10
1.46113e-10
1.66388e-10
1.86994e-10
2.06779e-10
2.25509e-10
2.41307e-10
1.35255e-12
3.35822e-11
6.20802e-11
1.13524e-10
1.14987e-10
5.83165e-11
4.08771e-11
4.21119e-11
4.4694e-11
4.36348e-11
3.67199e-11
2.99825e-11
2.57499e-11
2.31093e-11
2.11005e-11
1.94149e-11
1.81156e-11
1.72096e-11
1.65844e-11
1.61196e-11
1.57521e-11
1.54682e-11
1.52753e-11
1.51855e-11
1.52136e-11
1.53795e-11
1.57107e-11
1.62436e-11
1.70249e-11
1.81134e-11
1.95825e-11
2.15214e-11
2.40387e-11
2.72622e-11
3.13411e-11
3.64419e-11
4.27464e-11
5.0437e-11
5.96909e-11
7.06458e-11
8.33984e-11
9.79389e-11
1.1419e-10
1.31875e-10
1.50698e-10
1.70024e-10
1.89443e-10
2.07885e-10
2.25111e-10
2.39448e-10
9.65084e-13
2.63691e-11
5.40529e-11
9.94541e-11
1.09326e-10
6.29092e-11
4.32626e-11
4.38647e-11
4.64576e-11
4.62056e-11
4.01116e-11
3.32235e-11
2.86164e-11
2.57821e-11
2.37461e-11
2.20773e-11
2.07811e-11
1.98793e-11
1.92741e-11
1.88394e-11
1.85006e-11
1.82398e-11
1.80665e-11
1.79972e-11
1.80506e-11
1.82502e-11
1.86274e-11
1.92229e-11
2.00884e-11
2.12878e-11
2.28989e-11
2.50149e-11
2.77463e-11
3.12205e-11
3.55823e-11
4.09889e-11
4.76059e-11
5.5593e-11
6.5096e-11
7.62156e-11
8.90054e-11
1.03415e-10
1.19327e-10
1.36443e-10
1.5445e-10
1.72729e-10
1.90904e-10
2.07987e-10
2.23719e-10
2.36605e-10
6.90689e-13
2.06771e-11
4.69143e-11
8.76459e-11
1.03152e-10
6.68425e-11
4.61472e-11
4.58067e-11
4.83899e-11
4.87542e-11
4.35527e-11
3.66813e-11
3.17325e-11
2.86885e-11
2.66242e-11
2.49993e-11
2.37395e-11
2.28671e-11
2.23005e-11
2.1912e-11
2.16165e-11
2.139e-11
2.12434e-11
2.11981e-11
2.1277e-11
2.15077e-11
2.19255e-11
2.25758e-11
2.35149e-11
2.48116e-11
2.65476e-11
2.88188e-11
3.17364e-11
3.54252e-11
4.00233e-11
4.5676e-11
5.25311e-11
6.07238e-11
7.03685e-11
8.15312e-11
9.42257e-11
1.08369e-10
1.23807e-10
1.40238e-10
1.57326e-10
1.74498e-10
1.91381e-10
2.07072e-10
2.21346e-10
2.3284e-10
4.95728e-13
1.6222e-11
4.06011e-11
7.77043e-11
9.6892e-11
6.99837e-11
4.94372e-11
4.79899e-11
5.05057e-11
5.13246e-11
4.70211e-11
4.03336e-11
3.5102e-11
3.18415e-11
2.97455e-11
2.81891e-11
2.70029e-11
2.61904e-11
2.56846e-11
2.53604e-11
2.51237e-11
2.49433e-11
2.48306e-11
2.48114e-11
2.49139e-11
2.51698e-11
2.56188e-11
2.63106e-11
2.73067e-11
2.86799e-11
3.05154e-11
3.2911e-11
3.59766e-11
3.98332e-11
4.461e-11
5.04389e-11
5.7448e-11
6.57479e-11
7.54227e-11
8.65061e-11
9.89776e-11
1.12726e-10
1.27574e-10
1.43211e-10
1.59301e-10
1.75318e-10
1.90867e-10
2.05164e-10
2.18007e-10
2.28152e-10
3.56865e-13
1.27525e-11
3.50658e-11
6.92855e-11
9.08302e-11
7.2312e-11
5.29964e-11
5.04529e-11
5.28148e-11
5.39599e-11
5.05071e-11
4.41536e-11
3.87219e-11
3.52507e-11
3.31202e-11
3.16539e-11
3.05802e-11
2.98634e-11
2.94446e-11
2.92047e-11
2.90429e-11
2.89206e-11
2.88482e-11
2.88557e-11
2.89769e-11
2.92484e-11
2.97142e-11
3.04288e-11
3.14582e-11
3.28794e-11
3.47806e-11
3.72602e-11
4.04261e-11
4.43936e-11
4.92819e-11
5.52079e-11
6.22797e-11
7.05838e-11
8.01755e-11
9.106e-11
1.03187e-10
1.16424e-10
1.30574e-10
1.4533e-10
1.60358e-10
1.7517e-10
1.89383e-10
2.023e-10
2.13716e-10
2.22562e-10
2.57807e-13
1.00551e-11
3.02651e-11
6.21088e-11
8.51376e-11
7.3889e-11
5.66724e-11
5.32109e-11
5.53267e-11
5.66974e-11
5.40131e-11
4.81133e-11
4.25825e-11
3.89218e-11
3.67568e-11
3.53993e-11
3.44773e-11
3.38962e-11
3.35946e-11
3.34606e-11
3.33902e-11
3.33375e-11
3.33106e-11
3.33434e-11
3.34753e-11
3.37482e-11
3.42111e-11
3.49234e-11
3.59554e-11
3.73883e-11
3.93127e-11
4.18271e-11
4.50363e-11
4.9049e-11
5.39731e-11
5.99104e-11
6.69488e-11
7.51518e-11
8.45485e-11
9.51192e-11
1.06789e-10
1.19409e-10
1.3277e-10
1.46573e-10
1.60486e-10
1.74062e-10
1.86946e-10
1.98501e-10
2.08527e-10
2.16143e-10
1.87072e-13
7.95679e-12
2.61426e-11
5.59537e-11
7.99029e-11
7.48242e-11
6.03224e-11
5.62536e-11
5.80515e-11
5.95672e-11
5.75512e-11
5.21865e-11
4.66676e-11