/*--------------------------------*- C++ -*----------------------------------*\
  =========                 |
  \\      /  F ield         | OpenFOAM: The Open Source CFD Toolbox
   \\    /   O peration     | Website:  https://openfoam.org
    \\  /    A nd           | Version:  7
     \\/     M anipulation  |
\*---------------------------------------------------------------------------*/
FoamFile
{
    version     2.0;
    format      ascii;
    class       volScalarField;
    location    "0.15";
    object      p;
}
// * * * * * * * * * * * * * * * * * * * * * * * * * * * * * * * * * * * * * //

dimensions      [0 2 -2 0 0 0 0];

internalField   nonuniform List<scalar> 
70000
(
0.103499
0.0260356
0.0134982
0.0159204
0.0160612
0.014969
0.0139885
0.0132318
0.0125886
0.0120111
0.0114859
0.0110048
0.0105601
0.0101448
0.00975325
0.00938058
0.00902288
0.0086768
0.00833948
0.00800839
0.00768132
0.00735626
0.00703136
0.00670487
0.00637512
0.00604048
0.00569932
0.00534996
0.00499071
0.00461975
0.0042352
0.00383495
0.00341685
0.00297841
0.00251704
0.00202975
0.00151329
0.000964221
0.000377955
-0.000248612
-0.000923595
-0.00164653
-0.0024357
-0.0032766
-0.00421679
-0.00519706
-0.00634884
-0.00747456
-0.00895955
-0.0102108
0.0991313
0.0264026
0.0137012
0.0160159
0.0161158
0.015005
0.0140166
0.013255
0.012608
0.0120277
0.0115004
0.0110176
0.0105715
0.0101552
0.00976263
0.00938918
0.0090308
0.00868414
0.00834631
0.00801478
0.00768731
0.0073619
0.00703668
0.0067099
0.0063799
0.00604502
0.00570363
0.00535407
0.00499463
0.00462349
0.00423875
0.00383834
0.00342007
0.00298146
0.00251993
0.00203246
0.00151582
0.000966564
0.000380086
-0.000246704
-0.000921951
-0.00164517
-0.00243467
-0.00327593
-0.00421665
-0.00519764
-0.00634991
-0.00747854
-0.00896011
-0.010167
0.0955509
0.0273427
0.0140417
0.0161451
0.01619
0.0150497
0.0140489
0.0132812
0.0126298
0.0120461
0.0115163
0.0110316
0.010584
0.0101663
0.00977277
0.00939845
0.00903934
0.00869205
0.00835366
0.00802165
0.00769377
0.00736799
0.00704243
0.00671536
0.00638508
0.00604996
0.00570835
0.00535859
0.00499896
0.00462765
0.00424275
0.00384219
0.00342378
0.00298504
0.00252337
0.00203578
0.00151901
0.00096963
0.000383016
-0.000243907
-0.000919325
-0.00164269
-0.00243247
-0.00327393
-0.00421491
-0.00519618
-0.0063487
-0.00747996
-0.00893534
-0.0101169
0.092457
0.0284448
0.0145115
0.0163192
0.0162911
0.0151074
0.0140872
0.0133112
0.0126545
0.0120667
0.0115337
0.0110467
0.0105974
0.0101783
0.00978358
0.0094083
0.00904838
0.0087004
0.00836143
0.00802891
0.00770058
0.0073744
0.00704851
0.00672113
0.00639058
0.00605522
0.0057134
0.00536345
0.00500365
0.00463219
0.00424716
0.00384648
0.00342798
0.00298915
0.00252742
0.00203977
0.00152297
0.000973567
0.000386945
-0.000239965
-0.000915359
-0.00163868
-0.00242838
-0.00326976
-0.00421065
-0.00519185
-0.00634262
-0.00747762
-0.00889415
-0.0100566
0.0894979
0.0295416
0.0150778
0.0165401
0.0164259
0.0151855
0.0141364
0.0133484
0.0126846
0.0120914
0.0115545
0.0110645
0.0106128
0.010192
0.00979585
0.00941939
0.0090585
0.00870971
0.00837005
0.00803694
0.0077081
0.00738149
0.00705521
0.0067275
0.00639666
0.00606105
0.00571902
0.00536888
0.00500893
0.00463734
0.00425221
0.00385146
0.00343291
0.00299407
0.00253235
0.00204476
0.00152803
0.000978759
0.00039231
-0.000234376
-0.000909471
-0.00163244
-0.00242163
-0.00326255
-0.0042023
-0.00518338
-0.00632963
-0.00746862
-0.00883537
-0.00997701
0.0865893
0.030581
0.0156935
0.0167876
0.0165885
0.0152857
0.0141991
0.0133951
0.0127223
0.0121222
0.0115799
0.0110861
0.0106315
0.0102084
0.0098104
0.00943246
0.00907034
0.00872053
0.00838002
0.00804618
0.00771673
0.0073896
0.00706287
0.00673477
0.00640361
0.00606773
0.00572546
0.00537514
0.00501504
0.00464335
0.00425816
0.00385739
0.00343886
0.00300008
0.00253848
0.00205106
0.00153458
0.00098563
0.000399592
-0.00022658
-0.00090101
-0.0016232
-0.00241128
-0.00325115
-0.00418866
-0.00516912
-0.00630747
-0.00744899
-0.00875943
-0.00987511
0.0837249
0.0315441
0.0163248
0.0170401
0.0167658
0.0154032
0.0142743
0.0134511
0.0127677
0.0121595
0.0116109
0.0111122
0.010654
0.0102281
0.00982786
0.00944807
0.00908443
0.00873336
0.00839178
0.00805706
0.00772686
0.00739908
0.00707181
0.00674326
0.00641172
0.00607551
0.00573299
0.00538248
0.00502224
0.00465046
0.00426525
0.00386451
0.00344607
0.00300747
0.00254611
0.00205904
0.001543
0.000994619
0.000409297
-0.000215986
-0.000889281
-0.00161015
-0.00239633
-0.00323435
-0.00416814
-0.00514687
-0.00627395
-0.00741472
-0.00866585
-0.00974971
0.0809109
0.0324227
0.0169559
0.0172856
0.0169468
0.0155315
0.0143585
0.0135144
0.0128198
0.0122028
0.0116471
0.0111431
0.0106807
0.0102515
0.00984854
0.00946656
0.00910112
0.00874853
0.00840568
0.00806989
0.00773878
0.00741023
0.00708232
0.00675322
0.00642123
0.00608466
0.00574186
0.00539113
0.00503076
0.00465892
0.00427372
0.00387308
0.00345483
0.00301652
0.00255556
0.00206903
0.00155367
0.00100616
0.000421926
-0.000202005
-0.000873589
-0.00159243
-0.00237577
-0.00321095
-0.00413921
-0.00511472
-0.0062266
-0.00736222
-0.00855369
-0.0096002
0.0781531
0.0332142
0.0175814
0.0175203
0.0171253
0.0156658
0.0144484
0.0135824
0.0128765
0.0122506
0.0116876
0.0111778
0.010711
0.0102782
0.00987233
0.00948792
0.00912044
0.00876614
0.00842184
0.00808482
0.00775266
0.00742324
0.00709457
0.00676486
0.00643235
0.00609537
0.00575225
0.0054013
0.0050408
0.00466892
0.00428379
0.00388332
0.00346537
0.00302748
0.0025671
0.00208133
0.00156693
0.00102065
0.000437932
-0.000184109
-0.000853306
-0.00156932
-0.00234869
-0.00317982
-0.00410051
-0.00507081
-0.00616367
-0.00728856
-0.008422
-0.00942652
0.0754561
0.0339182
0.0182003
0.0177437
0.0172985
0.0158034
0.014542
0.0136531
0.012936
0.0123015
0.0117311
0.0112155
0.0107441
0.0103076
0.00989875
0.00951178
0.00914214
0.008786
0.00844015
0.00810179
0.0077685
0.0074381
0.00710862
0.00677822
0.00644515
0.00610773
0.00576427
0.0054131
0.00505248
0.00468061
0.0042956
0.00389539
0.00347785
0.00304054
0.00258093
0.00209617
0.00158305
0.00103838
0.000457658
-0.000161898
-0.000827949
-0.00154023
-0.00231438
-0.00314011
-0.00405104
-0.00501369
-0.00608383
-0.00719176
-0.00827018
-0.00922942
0.0728232
0.0345352
0.0188118
0.0179567
0.017465
0.0159427
0.0146381
0.0137254
0.012997
0.0123541
0.0117766
0.0112552
0.0107793
0.0103391
0.00992715
0.0095376
0.00916576
0.00880775
0.00846029
0.00812055
0.00778607
0.00745466
0.00712433
0.00679321
0.00645957
0.00612169
0.0057779
0.00542652
0.00506582
0.004694
0.00430919
0.00390934
0.00349233
0.00305578
0.00259715
0.00211367
0.00160214
0.00105951
0.000481293
-0.000135149
-0.000797244
-0.00150484
-0.00227245
-0.00309128
-0.00399023
-0.00494242
-0.00598651
-0.00707075
-0.00809825
-0.00901051
0.0702573
0.0350655
0.0194144
0.0181603
0.0176237
0.0160829
0.0147364
0.0137987
0.0130591
0.012408
0.0118233
0.0112962
0.0108158
0.0103719
0.00995696
0.00956485
0.00919083
0.00883095
0.00848187
0.00814075
0.00780509
0.00747267
0.00714148
0.00680965
0.00647543
0.00613711
0.00579301
0.00544145
0.00508072
0.00470902
0.00432449
0.00392511
0.00350877
0.00307315
0.00261572
0.00213379
0.00162421
0.00108402
0.000508843
-0.000103849
-0.000761164
-0.0014631
-0.00222286
-0.00303323
-0.00391808
-0.00485679
-0.00587217
-0.00692709
-0.00790688
-0.00877216
0.0677611
0.0355097
0.0200062
0.0183558
0.0177741
0.0162233
0.0148368
0.0138731
0.0131218
0.0124628
0.0118711
0.0113382
0.0108532
0.0104058
0.00998779
0.00959314
0.00921696
0.00885523
0.00850457
0.00816208
0.00782525
0.00749183
0.0071598
0.00682728
0.00649251
0.00615378
0.00580942
0.00545773
0.00509703
0.00472552
0.00434136
0.00394257
0.00352705
0.00309253
0.00263653
0.00215642
0.00164911
0.00111178
0.00054015
-6.81789e-05
-0.000719914
-0.00141526
-0.0021659
-0.00296628
-0.00383513
-0.00475734
-0.00574205
-0.00676261
-0.00769771
-0.00851741
0.0653369
0.0358685
0.0205847
0.0185444
0.0179155
0.0163629
0.0149392
0.0139484
0.013185
0.0125182
0.0119196
0.011381
0.0108915
0.0104404
0.0100194
0.00962223
0.0092439
0.00888034
0.00852811
0.00818428
0.0078463
0.00751191
0.00717907
0.0068459
0.00651061
0.00617151
0.00582692
0.00547517
0.00511456
0.00474332
0.00435964
0.00396155
0.003547
0.00311375
0.00265938
0.00218135
0.00167664
0.00114253
0.000574937
-2.84581e-05
-0.000673875
-0.00136175
-0.00210215
-0.00289106
-0.00374231
-0.00464526
-0.00559795
-0.00658039
-0.00747323
-0.00824959
0.0629872
0.0361434
0.021147
0.0187278
0.0180477
0.0165008
0.0150434
0.0140246
0.0132487
0.0125743
0.0119688
0.0114244
0.0109304
0.0104757
0.0100517
0.009652
0.00927153
0.00890614
0.00855236
0.0082072
0.00786809
0.00753276
0.00719913
0.00686533
0.00652957
0.00619014
0.00584537
0.00549361
0.00513316
0.00476227
0.00437915
0.00398188
0.00356843
0.00313662
0.00268408
0.00220837
0.00170654
0.00117601
0.000612885
1.49365e-05
-0.000623504
-0.00130311
-0.0020323
-0.00280843
-0.0036408
-0.00452209
-0.00544196
-0.00638388
-0.00723632
-0.00797185
0.0607141
0.0363359
0.02169
0.0189074
0.0181704
0.0166362
0.0151492
0.0141019
0.0133129
0.0126309
0.0120188
0.0114686
0.01097
0.0105116
0.0100846
0.0096824
0.00929978
0.00893258
0.00857724
0.00823076
0.00789054
0.00755427
0.00721989
0.00688548
0.00654928
0.00620956
0.00586466
0.00551294
0.00515271
0.00478226
0.00439979
0.00400344
0.00359121
0.003161
0.00271046
0.00223728
0.0017386
0.00121196
0.000653694
6.16489e-05
-0.000569246
-0.00123989
-0.00195707
-0.00271923
-0.00353175
-0.00438945
-0.00527615
-0.00617644
-0.00698984
-0.00768691
0.0585191
0.036448
0.0222107
0.0190847
0.0182835
0.016768
0.0152563
0.0141801
0.0133773
0.012688
0.0120694
0.0115134
0.0110102
0.0105482
0.0101182
0.00971341
0.00932865
0.00895962
0.00860273
0.00825494
0.00791362
0.00757643
0.0072413
0.00690632
0.00656969
0.00622972
0.00588474
0.0055331
0.00517316
0.0048032
0.00442148
0.00402615
0.00361526
0.00318677
0.00273842
0.00226796
0.00177267
0.00125021
0.000697138
0.000111401
-0.00051146
-0.00117253
-0.00187704
-0.00262422
-0.0034162
-0.00424884
-0.00510235
-0.00596088
-0.00673627
-0.00739682
0.0564036
0.0364823
0.0227059
0.0192609
0.0183872
0.0168952
0.0153644
0.0142593
0.0134421
0.0127455
0.0121206
0.0115589
0.0110511
0.0105854
0.0101523
0.00974503
0.00935812
0.00898726
0.00862883
0.00827973
0.00793731
0.00759922
0.00726336
0.00692782
0.00659081
0.00625061
0.00590558
0.00555409
0.00519448
0.00482509
0.00444419
0.00404998
0.00364055
0.00321392
0.0027679
0.00230035
0.00180867
0.00129063
0.000743075
0.000164013
-0.000450387
-0.00110132
-0.00179264
-0.002524
-0.0032949
-0.00410146
-0.00492195
-0.00573933
-0.00647747
-0.00710297
0.0543683
0.0364418
0.0231729
0.0194367
0.0184817
0.0170169
0.0154731
0.0143395
0.013507
0.0128034
0.0121724
0.0116051
0.0110925
0.0106231
0.0101871
0.00977726
0.0093882
0.00901552
0.00865554
0.00830514
0.00796163
0.00762265
0.00728608
0.00695001
0.00661263
0.00627224
0.00592721
0.0055759
0.00521669
0.00484794
0.00446794
0.00407493
0.00366706
0.00324242
0.0027989
0.00233443
0.00184657
0.0013332
0.000791447
0.000219404
-0.000386158
-0.00102647
-0.00170412
-0.00241894
-0.00316838
-0.00394818
-0.00473594
-0.00551315
-0.00621465
-0.00680621
0.0524137
0.0363298
0.0236087
0.0196129
0.0185675
0.0171321
0.0155818
0.0144208
0.0135722
0.0128614
0.0122247
0.0116518
0.0111346
0.0106615
0.0102225
0.00981011
0.0094189
0.0090444
0.00868288
0.00833118
0.00798659
0.00764673
0.00730948
0.00697289
0.00663517
0.00629464
0.00594963
0.00559856
0.00523981
0.00487176
0.00449274
0.00410104
0.00369485
0.00327233
0.00283144
0.00237024
0.0018864
0.00137794
0.000842261
0.000277564
-0.000318807
-0.000948028
-0.00161163
-0.00230929
-0.00303696
-0.0037896
-0.00454496
-0.00528317
-0.00594856
-0.00650696
0.0505397
0.0361504
0.0240109
0.0197895
0.0186452
0.01724
0.0156898
0.014503
0.0136376
0.0129196
0.0122774
0.0116991
0.0111773
0.0107005
0.0102585
0.00984357
0.00945022
0.0090739
0.00871085
0.00835787
0.00801222
0.0076715
0.00733357
0.00699649
0.00665847
0.00631782
0.00597289
0.00562211
0.00526388
0.0048966
0.00451865
0.00412835
0.00372395
0.00330367
0.00286559
0.00240782
0.00192822
0.0014249
0.000895565
0.000338537
-0.000248307
-0.000866006
-0.00151517
-0.00219516
-0.00290081
-0.00362608
-0.00434939
-0.00504981
-0.0056796
-0.00620536
0.048746
0.0359079
0.0243769
0.0199665
0.0187155
0.01734
0.0157966
0.014586
0.0137031
0.0129777
0.0123305
0.011747
0.0112206
0.0107401
0.010295
0.00987765
0.00948217
0.00910405
0.00873947
0.00838522
0.00803852
0.00769695
0.00735838
0.00702084
0.00668255
0.00634182
0.00599702
0.00564658
0.00528893
0.0049225
0.0045457
0.00415691
0.00375442
0.00333653
0.0029014
0.00244724
0.00197208
0.00147415
0.000951432
0.000402393
-0.000174595
-0.000780357
-0.00141473
-0.0020766
-0.00275999
-0.00345785
-0.00414948
-0.00481328
-0.00540796
-0.00590139
0.0470316
0.0356071
0.0247044
0.0201434
0.0187792
0.0174315
0.0159013
0.0146697
0.0137688
0.0130358
0.0123838
0.0117954
0.0112644
0.0107802
0.0103322
0.00991234
0.00951476
0.00913484
0.00876876
0.00841325
0.00806552
0.00772313
0.00738393
0.00704597
0.00670744
0.00636667
0.00602205
0.00567201
0.00531501
0.00494952
0.00457396
0.00418677
0.00378632
0.00337095
0.00293894
0.00248859
0.00201809
0.00152579
0.00100995
0.000469219
-9.75879e-05
-0.000691016
-0.00131025
-0.00195361
-0.00261456
-0.00328505
-0.00394536
-0.00457366
-0.00513375
-0.00559503
0.0453954
0.0352529
0.0249915
0.0203192
0.0188374
0.0175141
0.0160031
0.0147539
0.0138347
0.0130938
0.0124373
0.0118442
0.0113087
0.0108209
0.01037
0.00994765
0.00954797
0.00916629
0.00879871
0.00844197
0.00809323
0.00775005
0.00741025
0.00707189
0.00673318
0.00639242
0.00604803
0.00569845
0.00534217
0.00497769
0.00460348
0.00421801
0.00381972
0.00340702
0.0029783
0.00253194
0.00206631
0.00157989
0.00107121
0.000539106
-1.71953e-05
-0.000597911
-0.00120168
-0.0018262
-0.00246453
-0.00310777
-0.00373715
-0.00433096
-0.004857
-0.00528632
0.0438358
0.0348507
0.0252366
0.0204926
0.0188909
0.0175877
0.0161012
0.0148383
0.0139008
0.0131515
0.0124909
0.0118934
0.0113536
0.0108621
0.0104083
0.00998356
0.00958182
0.00919839
0.00882935
0.0084714
0.00812167
0.00777772
0.00743737
0.00709865
0.00675978
0.00641909
0.00607498
0.00572594
0.00537046
0.00500708
0.00463431
0.00425068
0.00385468
0.00344481
0.00301954
0.00257738
0.00211684
0.00163656
0.00113531
0.000612146
6.66725e-05
-0.000500972
-0.00108895
-0.00169435
-0.00230993
-0.00292609
-0.00352495
-0.00408521
-0.00457777
-0.00497534
0.0423508
0.034406
0.0254384
0.0206621
0.0189408
0.0176523
0.0161947
0.0149224
0.013967
0.013209
0.0125444
0.0119429
0.0113989
0.0109039
0.0104472
0.0100201
0.00961631
0.00923116
0.00886069
0.00850154
0.00815087
0.00780618
0.0074653
0.00712627
0.0067873
0.00644672
0.00610296
0.00575452
0.00539992
0.00503773
0.00466651
0.00428484
0.00389127
0.00348439
0.00306275
0.00262499
0.00216977
0.00169588
0.00120233
0.000688429
0.000154102
-0.00040013
-0.000972009
-0.00155806
-0.00215079
-0.00274009
-0.00330886
-0.00383642
-0.00429613
-0.00466226
0.0409384
0.0339244
0.025596
0.0208257
0.0189878
0.0177081
0.0162828
0.0150058
0.0140334
0.0132661
0.0125977
0.0119926
0.0114447
0.0109461
0.0104866
0.0100572
0.00965143
0.00926461
0.00889272
0.00853243
0.00818083
0.00783545
0.00749409
0.00715478
0.00681575
0.00647535
0.006132
0.00578423
0.00543061
0.00506971
0.00470015
0.00432056
0.00392957
0.00352583
0.00310802
0.00267486
0.00222518
0.00175795
0.00127239
0.000768045
0.000245176
-0.000295325
-0.000850828
-0.00141733
-0.00198716
-0.00254984
-0.00308898
-0.00358465
-0.00401219
-0.0043473
0.0395961
0.0334116
0.0257091
0.020981
0.0190329
0.0177555
0.0163647
0.0150881
0.0140998
0.0133229
0.0126507
0.0120425
0.0114908
0.0109888
0.0105265
0.0100948
0.00968718
0.00929872
0.00892547
0.00856406
0.00821158
0.00786554
0.00752374
0.00718422
0.00684519
0.00650501
0.00616215
0.00581514
0.00546257
0.00510306
0.00473528
0.00435791
0.00396964
0.00356922
0.00315541
0.00272707
0.00228317
0.00182285
0.00134555
0.000851075
0.000339969
-0.000186502
-0.000725372
-0.00127218
-0.00181909
-0.00235543
-0.00286543
-0.00333
-0.00372609
-0.00403073
0.0383212
0.032873
0.0257779
0.0211256
0.0190767
0.017795
0.0164399
0.0151684
0.0141661
0.0133793
0.0127034
0.0120924
0.0115373
0.011032
0.0105669
0.010133
0.00972355
0.00933351
0.00895894
0.00859645
0.00824314
0.00789649
0.00755429
0.0072146
0.00687563
0.00653576
0.00619345
0.00584728
0.00549586
0.00513786
0.00477198
0.00439695
0.00401157
0.00361463
0.00320502
0.00278171
0.00234383
0.00189068
0.00142192
0.000937599
0.000438549
-7.36167e-05
-0.000595626
-0.00112262
-0.00164664
-0.00215695
-0.00263835
-0.00307258
-0.00343798
-0.00371285
0.037111
0.0323142
0.0258029
0.0212571
0.0191195
0.0178273
0.0165076
0.0152463
0.0142322
0.0134352
0.0127555
0.0121422
0.011584
0.0110755
0.0106078
0.0101718
0.00976053
0.00936897
0.00899313
0.00862962
0.00827552
0.00792831
0.00758577
0.00724597
0.00690712
0.00656762
0.00622595
0.00588071
0.00553054
0.00517415
0.00481029
0.00443776
0.00405541
0.00366214
0.00325693
0.00283887
0.00240724
0.00196152
0.00150157
0.00102769
0.000540976
4.33681e-05
-0.000461583
-0.00096869
-0.00146991
-0.00195452
-0.00240786
-0.00281252
-0.00314807
-0.00339397
0.0359624
0.0317401
0.0257853
0.021373
0.0191614
0.0178532
0.0165677
0.0153211
0.0142977
0.0134907
0.0128071
0.0121918
0.0116308
0.0111194
0.0106492
0.0102111
0.00979811
0.0094051
0.00902805
0.00866357
0.00830874
0.00796102
0.00761821
0.00727835
0.0069397
0.00660064
0.0062597
0.00591548
0.00556666
0.005212
0.0048503
0.00448041
0.00410126
0.00371183
0.00331121
0.00289863
0.00247349
0.00203545
0.00158459
0.00112142
0.000647302
0.000164478
-0.000323253
-0.000810437
-0.00128898
-0.00174825
-0.00217412
-0.00255001
-0.0028566
-0.00307445
0.0348725
0.0311556
0.0257268
0.0214711
0.0192021
0.0178734
0.0166198
0.0153919
0.0143625
0.0135458
0.012858
0.012241
0.0116778
0.0111636
0.0106909
0.0102509
0.00983628
0.00944189
0.0090637
0.00869832
0.00834281
0.00799464
0.00765162
0.00731178
0.00697339
0.00663487
0.00629473
0.00595163
0.00560428
0.00525147
0.00489206
0.00452496
0.00414917
0.00376378
0.00336796
0.00296106
0.00254266
0.00211256
0.00167103
0.00121884
0.000757566
0.000289727
-0.000180656
-0.00064792
-0.00110396
-0.00153829
-0.00193731
-0.00228524
-0.00256381
-0.00275464
0.0338383
0.0305648
0.0256295
0.0215498
0.0192408
0.0178887
0.0166641
0.0154582
0.0144261
0.0136003
0.0129083
0.0122898
0.0117247
0.0112081
0.010733
0.0102911
0.00987501
0.00947934
0.00910009
0.00873386
0.00837775
0.00802921
0.00768603
0.00734629
0.00700825
0.00667033
0.0063311
0.00598922
0.00564345
0.00529262
0.00493564
0.00457149
0.00419924
0.00381806
0.00342725
0.00302627
0.00261482
0.00219291
0.00176098
0.00132001
0.000871802
0.000419118
-3.38255e-05
-0.000481215
-0.000914962
-0.00132479
-0.0016976
-0.00201842
-0.00226998
-0.00243491
0.0328566
0.0299716
0.0254959
0.0216073
0.0192766
0.0178997
0.0167005
0.0155193
0.014488
0.0136542
0.0129577
0.012338
0.0117715
0.0112527
0.0107755
0.0103318
0.00991429
0.00951744
0.00913721
0.00877022
0.00841357
0.00806473
0.00772148
0.00738191
0.0070443
0.00670708
0.00636885
0.00602831
0.00568423
0.00533551
0.00498111
0.00462007
0.00425153
0.00387476
0.00348916
0.00309431
0.00269007
0.00227659
0.00185449
0.00142497
0.000990027
0.000552641
0.000117189
-0.00031041
-0.000722122
-0.00110791
-0.00145521
-0.00174981
-0.00197539
-0.00211561
0.0319245
0.0293794
0.025329
0.0216426
0.0193084
0.017907
0.0167295
0.0155746
0.0145478
0.0137073
0.0130064
0.0123855
0.0118181
0.0112974
0.0108183
0.010373
0.0099541
0.00955617
0.00917505
0.00880739
0.00845029
0.00810122
0.00775799
0.00741868
0.00708158
0.00674516
0.00640804
0.00606894
0.00572669
0.00538022
0.00502854
0.00467077
0.00430612
0.00393395
0.00355377
0.00316528
0.00276846
0.00236364
0.00195161
0.00153375
0.00111225
0.000690272
0.000272325
-0.000135609
-0.000525589
-0.000887854
-0.00121036
-0.00147965
-0.00168035
-0.00179711
0.031039
0.0287912
0.0251318
0.0216547
0.0193347
0.0179109
0.0167513
0.0156239
0.0146049
0.0137594
0.0130542
0.0124322
0.0118642
0.0113422
0.0108613
0.0104145
0.00999441
0.00959552
0.00921363
0.00884538
0.00848792
0.00813871
0.00779558
0.00745661
0.00712013
0.00678462
0.00644871
0.00611117
0.00577087
0.00542679
0.00507799
0.00472365
0.00436308
0.00399571
0.00362115
0.00323923
0.00285007
0.00245413
0.00205239
0.00164638
0.00123847
0.000831972
0.000431506
4.30677e-05
-0.000325526
-0.00066481
-0.000963278
-0.00120821
-0.00138517
-0.00147978
0.0301972
0.0282093
0.0249077
0.0216433
0.0193541
0.0179116
0.0167665
0.0156667
0.0146588
0.0138103
0.013101
0.0124781
0.0119099
0.0113869
0.0109045
0.0104563
0.0100352
0.00963547
0.00925292
0.0088842
0.00852646
0.00817721
0.00783427
0.00749575
0.00715998
0.00682548
0.0064909
0.00615506
0.00581684
0.00547529
0.00512953
0.0047788
0.00442248
0.0040601
0.00369137
0.00331623
0.00293494
0.00254811
0.00215684
0.00176286
0.00136866
0.000977691
0.000594638
0.000225485
-0.000122108
-0.000439001
-0.000714224
-0.000935795
-0.00109016
-0.00116397
0.0293964
0.0276359
0.02466
0.0216083
0.0193652
0.0179092
0.0167756
0.0157028
0.0147089
0.0138598
0.0131469
0.012523
0.011955
0.0114314
0.0109479
0.0104984
0.0100764
0.009676
0.00929291
0.00892383
0.00856593
0.00821674
0.0078741
0.00753613
0.00720118
0.0068678
0.00653468
0.00620064
0.00586466
0.00552579
0.00518322
0.00483627
0.00448439
0.00412719
0.0037645
0.00339636
0.00302314
0.00264561
0.00226501
0.00188319
0.00150279
0.00112736
0.000761614
0.000411493
8.44706e-05
-0.000210656
-0.000463458
-0.000662687
-0.000795667
-0.000850032
0.0286341
0.0270725
0.0243921
0.0215501
0.0193663
0.0179034
0.0167791
0.0157323
0.0147548
0.0139073
0.0131917
0.0125669
0.0119993
0.0114756
0.0109912
0.0105409
0.0101181
0.00971708
0.0093336
0.00896428
0.00860633
0.00825731
0.00791507
0.00757776
0.00724375
0.00691161
0.00658007
0.00624799
0.00591437
0.00557834
0.00523913
0.00489613
0.00454887
0.00419705
0.00384059
0.00347965
0.00311471
0.00274667
0.00237689
0.00200736
0.00164082
0.0012809
0.000932311
0.000600925
0.000294003
1.99828e-05
-0.000211257
-0.000389197
-0.000502014
-0.00053831
0.0279077
0.0265206
0.0241071
0.0214695
0.0193565
0.0178938
0.0167774
0.0157551
0.014796
0.0139527
0.0132352
0.0126097
0.0120428
0.0115195
0.0110346
0.0105835
0.0101601
0.00975869
0.00937497
0.00900555
0.00864767
0.00829893
0.00795722
0.00762069
0.00728774
0.00695696
0.00662713
0.00629714
0.00596604
0.00563299
0.00529731
0.00495845
0.00461599
0.00426975
0.00391971
0.00356616
0.00320969
0.0028513
0.00249249
0.00213534
0.00178269
0.0014382
0.00110659
0.000793602
0.00050627
0.000252658
4.20928e-05
-0.000115636
-0.000209519
-0.000229128
0.027215
0.0259809
0.0238082
0.0213675
0.0193346
0.0178799
0.0167709
0.0157716
0.0148321
0.0139954
0.0132774
0.0126513
0.0120853
0.0115628
0.0110778
0.0106262
0.0102024
0.0098008
0.00941699
0.00904762
0.00868995
0.00834162
0.00800055
0.00766493
0.00733316
0.00700389
0.0066759
0.00634815
0.00601971
0.00568982
0.00535784
0.00502327
0.00468581
0.00434532
0.0040019
0.00365592
0.00330809
0.00295951
0.00261179
0.00226709
0.00192832
0.00159917
0.0012843
0.000989329
0.000721035
0.000487101
0.000296308
0.000157683
8.14811e-05
7.71866e-05
0.0265538
0.0254543
0.023498
0.0212454
0.0192998
0.017861
0.0167599
0.0157818
0.014863
0.0140351
0.0133179
0.0126918
0.0121268
0.0116054
0.0111209
0.0106691
0.0102451
0.00984338
0.00945965
0.00909048
0.00873317
0.00838539
0.0080451
0.0077105
0.00738006
0.00705242
0.00672642
0.00640105
0.00607544
0.00574886
0.00542075
0.00509066
0.00475837
0.00442382
0.0040872
0.00374897
0.00340994
0.00307131
0.00273476
0.00240255
0.00207762
0.00176366
0.00146526
0.0011879
0.000938054
0.000723035
0.000551089
0.000430445
0.000370681
0.000380332
0.0259222
0.0249412
0.0231793
0.0211048
0.0192517
0.0178364
0.0167444
0.0157862
0.0148883
0.0140713
0.0133566
0.0127309
0.0121672
0.0116473
0.0111636
0.010712
0.0102879
0.0098864
0.00950292
0.00913412
0.00877732
0.00843024
0.00809087
0.00775745
0.00742846
0.0071026
0.00677874
0.00645591
0.00613328
0.00581018
0.0054861
0.00516067
0.00483373
0.0045053
0.00417565
0.00384533
0.00351524
0.00318667
0.00286136
0.00254165
0.00223048
0.00193154
0.00164931
0.00138908
0.00115707
0.000960169
0.000806132
0.000702337
0.000657762
0.000680018
0.0253183
0.0244418
0.0228543
0.0209473
0.0191901
0.0178054
0.0167245
0.0157849
0.0149081
0.0141038
0.0133931
0.0127685
0.0122064
0.0116883
0.0112058
0.0107548
0.010331
0.00992982
0.00954678
0.00917853
0.00882241
0.00847617
0.00813787
0.00780577
0.00747839
0.00715447
0.00683289
0.00651275
0.00619326
0.00587381
0.00555393
0.00523334
0.00491192
0.00458978
0.00426726
0.00394501
0.00362399
0.00330556
0.00299155
0.0026843
0.00238679
0.00210264
0.00183623
0.00159265
0.00137782
0.0011982
0.0010611
0.000973034
0.000942413
0.000975977
0.0247404
0.0239563
0.0225251
0.0207747
0.019115
0.0177672
0.0167001
0.0157783
0.0149223
0.0141322
0.0134272
0.0128046
0.0122444
0.0117284
0.0112476
0.0107974
0.0103743
0.00997359
0.00959119
0.00922368
0.00886842
0.0085232
0.00818612
0.00785549
0.00752988
0.00720804
0.00688891
0.00657162
0.00625544
0.0059398
0.0056243
0.00530871
0.00499298
0.00467729
0.00436207
0.00404801
0.00373617
0.00342795
0.00312525
0.00283041
0.00254641
0.0022768
0.00202583
0.00179837
0.00160002
0.00143682
0.00131543
0.00124222
0.00122437
0.00126797
0.0241869
0.0234845
0.0221935
0.0205887
0.0190266
0.0177213
0.0166709
0.0157665
0.014931
0.0141563
0.0134587
0.012839
0.012281
0.0117675
0.0112886
0.0108399
0.0104176
0.0100177
0.00963613
0.00926956
0.00891534
0.00857131
0.00823562
0.00790663
0.00758294
0.00726334
0.00694683
0.00663255
0.00631984
0.00600819
0.00569723
0.00538681
0.00507693
0.00476786
0.00446006
0.00415432
0.00385174
0.00355379
0.00326237
0.00297986
0.00270919
0.00245382
0.00221787
0.00200598
0.00182341
0.00167576
0.00156898
0.00150964
0.00150336
0.00155577
0.0236564
0.0230265
0.0218611
0.0203911
0.0189256
0.0176672
0.0166368
0.0157498
0.0149343
0.0141758
0.0134871
0.0128714
0.0123162
0.0118054
0.011329
0.010882
0.0104609
0.0100621
0.00968156
0.00931613
0.00896315
0.0086205
0.00828638
0.0079592
0.0076376
0.00732041
0.00700667
0.00669558
0.00638651
0.006079
0.00577276
0.00546766
0.0051638
0.00486148
0.00456124
0.00426392
0.00397066
0.00368299
0.00340282
0.00313251
0.00287496
0.00263352
0.00241214
0.00221522
0.0020477
0.00191477
0.00182191
0.00177502
0.00177915
0.00183917
0.0231476
0.0225819
0.0215292
0.0201837
0.0188125
0.0176047
0.0165975
0.0157283
0.0149324
0.0141907
0.0135123
0.0129018
0.0123498
0.0118422
0.0113685
0.0109236
0.0105042
0.0101066
0.00972745
0.00936338
0.00901185
0.00867077
0.0083384
0.0080132
0.00769386
0.00737925
0.00706846
0.00676072
0.00645546
0.00615227
0.0058509
0.00555129
0.00525359
0.00495815
0.00466558
0.00437676
0.00409288
0.00381548
0.00354648
0.00328823
0.00304354
0.00281567
0.00260838
0.00242583
0.00227262
0.00215355
0.00207365
0.00203811
0.00205149
0.00211799
0.0226592
0.0221507
0.0211991
0.0199681
0.0186882
0.0175335
0.0165526
0.0157021
0.0149255
0.014201
0.013534
0.0129298
0.0123818
0.0118776
0.0114071
0.0109648
0.0105473
0.0101514
0.00977375
0.00941127
0.0090614
0.0087221
0.00839167
0.00806865
0.00775174
0.00743989
0.00713221
0.006828
0.00652672
0.006228
0.00593167
0.0056377
0.0053463
0.00505787
0.00477307
0.00449281
0.00421832
0.00395116
0.00369323
0.00344686
0.00321476
0.00300007
0.00280636
0.00263754
0.00249788
0.0023918
0.00232388
0.00229863
0.00232016
0.00239205
0.0221901
0.0217325
0.0208716
0.0197458
0.0185536
0.0174536
0.0165019
0.0156711
0.0149136
0.0142066
0.0135521
0.0129553
0.012412
0.0119117
0.0114447
0.0110054
0.0105902
0.0101962
0.00982042
0.00945977
0.00911179
0.00877448
0.0084462
0.00812553
0.00781125
0.00750234
0.00719795
0.00689743
0.00660029
0.00630622
0.00601507
0.00572689
0.00544192
0.0051606
0.00488364
0.004612
0.0043469
0.00408992
0.00384294
0.00360822
0.0033884
0.00318647
0.00300581
0.00285007
0.0027232
0.00262923
0.0025723
0.00255635
0.00258497
0.00266123
0.0217393
0.021327
0.0205476
0.0195182
0.0184097
0.0173654
0.0164453
0.0156353
0.0148969
0.0142075
0.0135664
0.0129781
0.0124403
0.0119443
0.0114812
0.0110452
0.0106328
0.0102411
0.00986742
0.00950884
0.00916298
0.00882789
0.00850196
0.00818385
0.00787239
0.00756659
0.00726568
0.00696903
0.0066762
0.00638693
0.00610112
0.00581885
0.00554042
0.00526631
0.00499726
0.00473425
0.00447852
0.00423162
0.00399543
0.00377213
0.00356425
0.00337464
0.00320647
0.00306315
0.00294829
0.00286556
0.00281867
0.00281104
0.00284576
0.00292543
0.0213058
0.0209339
0.0202277
0.0192866
0.0182574
0.017269
0.0163825
0.0155948
0.0148755
0.0142039
0.0135768
0.012998
0.0124665
0.0119754
0.0115166
0.0110843
0.010675
0.010286
0.0099147
0.00955845
0.00921495
0.0088823
0.00855895
0.0082436
0.00793515
0.00763266
0.00733539
0.00704278
0.00675443
0.00647011
0.00618978
0.00591356
0.00564177
0.00537495
0.00511386
0.00485947
0.00461306
0.00437614
0.00415055
0.00393839
0.00374209
0.00356434
0.00340809
0.00327649
0.00317286
0.00310051
0.00306275
0.00306253
0.00310238
0.00318456
0.0208888
0.020553
0.0199127
0.0190521
0.0180979
0.0171648
0.0163136
0.0155494
0.0148496
0.0141958
0.0135833
0.0130149
0.0124905
0.0120048
0.0115507
0.0111226
0.0107168
0.0103308
0.00996219
0.00960855
0.00926767
0.0089377
0.00861714
0.00830477
0.00799952
0.00770053
0.00740709
0.00711869
0.00683498
0.00655576
0.00628104
0.00601098
0.00574593
0.00548646
0.00523334
0.00498757
0.0047504
0.00452332
0.00430812
0.00410681
0.0039217
0.00375531
0.00361039
0.00348984
0.00339666
0.00333383
0.00330429
0.00331063
0.00335465
0.00343851
0.0204874
0.0201839
0.0196028
0.0188159
0.0179321
0.0170533
0.0162386
0.0154991
0.0148193
0.0141833
0.0135858
0.0130287
0.0125122
0.0120326
0.0115835
0.0111599
0.010758
0.0103754
0.0100099
0.00965911
0.00932109
0.00899404
0.00867651
0.00836733
0.00806549
0.00777018
0.00748076
0.00719674
0.00691782
0.00664385
0.00637487
0.00611107
0.00585284
0.00560076
0.00535562
0.00511842
0.00489039
0.004673
0.00446794
0.00427716
0.00410282
0.0039473
0.00381311
0.00370292
0.00361942
0.00356526
0.00354309
0.00355527
0.00360248
0.00368723
0.020101
0.0198263
0.0192986
0.018579
0.0177611
0.0169353
0.0161577
0.0154439
0.0147845
0.0141665
0.0135845
0.0130392
0.0125315
0.0120584
0.011615
0.0111962
0.0107986
0.0104198
0.0100576