/*--------------------------------*- C++ -*----------------------------------*\
  =========                 |
  \\      /  F ield         | OpenFOAM: The Open Source CFD Toolbox
   \\    /   O peration     | Website:  https://openfoam.org
    \\  /    A nd           | Version:  7
     \\/     M anipulation  |
\*---------------------------------------------------------------------------*/
FoamFile
{
    version     2.0;
    format      ascii;
    class       surfaceScalarField;
    location    "0.15";
    object      phi;
}
// * * * * * * * * * * * * * * * * * * * * * * * * * * * * * * * * * * * * * //

dimensions      [0 3 -1 0 0 0 0];

internalField   nonuniform List<scalar> 
139350
(
6.45136e-08
9.21179e-08
3.19688e-08
3.25449e-08
2.30665e-08
8.90226e-09
1.95848e-08
3.48173e-09
1.76358e-08
1.94898e-09
1.62084e-08
1.42741e-09
1.5078e-08
1.13036e-09
1.4168e-08
9.10014e-10
1.34196e-08
7.4837e-10
1.27896e-08
6.30078e-10
1.2249e-08
5.40601e-10
1.17785e-08
4.70471e-10
1.13644e-08
4.14081e-10
1.09965e-08
3.679e-10
1.0667e-08
3.29512e-10
1.03698e-08
2.97188e-10
1.01002e-08
2.69654e-10
9.85421e-09
2.45957e-10
9.62884e-09
2.25369e-10
9.42151e-09
2.07329e-10
9.23011e-09
1.91395e-10
9.0529e-09
1.77215e-10
8.88839e-09
1.64504e-10
8.73536e-09
1.53031e-10
8.59276e-09
1.42601e-10
8.45971e-09
1.33055e-10
8.33546e-09
1.24251e-10
8.21938e-09
1.16073e-10
8.11097e-09
1.0841e-10
8.0098e-09
1.01175e-10
7.91553e-09
9.42667e-11
7.82791e-09
8.76231e-11
7.74678e-09
8.11293e-11
7.67202e-09
7.47544e-11
7.60368e-09
6.83415e-11
7.54178e-09
6.18999e-11
7.48658e-09
5.52056e-11
7.43829e-09
4.82863e-11
7.39739e-09
4.09042e-11
7.36451e-09
3.28812e-11
7.34009e-09
2.44136e-11
7.32601e-09
1.4079e-11
7.32159e-09
4.42517e-12
7.33265e-09
-1.10633e-11
7.35329e-09
-2.06371e-11
7.40271e-09
-4.94232e-11
7.45189e-09
-4.91834e-11
7.59039e-09
-1.38494e-10
7.49532e-09
9.5073e-11
-3.65441e-09
1.11497e-08
1.25945e-07
1.27616e-07
9.12975e-08
6.71926e-08
7.19525e-08
2.82472e-08
6.12453e-08
1.41889e-08
5.48171e-08
8.3772e-09
5.03299e-08
5.91459e-09
4.68526e-08
4.60766e-09
4.40458e-08
3.71679e-09
4.17288e-08
3.06545e-09
3.97759e-08
2.58299e-09
3.80998e-08
2.21662e-09
3.66406e-08
1.92967e-09
3.53555e-08
1.69917e-09
3.4213e-08
1.51047e-09
3.31888e-08
1.35364e-09
3.22644e-08
1.22159e-09
3.1425e-08
1.10913e-09
3.06585e-08
1.01237e-09
2.99556e-08
9.28335e-10
2.93082e-08
8.54741e-10
2.87098e-08
7.89784e-10
2.8155e-08
7.32031e-10
2.76391e-08
6.80324e-10
2.71585e-08
6.33719e-10
2.67096e-08
5.91433e-10
2.62899e-08
5.52814e-10
2.58968e-08
5.17302e-10
2.55285e-08
4.84422e-10
2.51831e-08
4.53742e-10
2.48594e-08
4.24903e-10
2.45561e-08
3.97528e-10
2.42724e-08
3.71348e-10
2.40076e-08
3.4596e-10
2.37611e-08
3.21199e-10
2.3533e-08
2.96523e-10
2.33229e-08
2.71937e-10
2.31316e-08
2.46576e-10
2.29591e-08
2.20745e-10
2.2807e-08
1.93013e-10
2.26758e-08
1.64034e-10
2.25684e-08
1.31802e-10
2.2486e-08
9.65565e-11
2.24331e-08
5.73363e-11
2.24128e-08
9.2105e-12
2.24304e-08
-3.82585e-11
2.24999e-08
-1.18912e-10
2.26057e-08
-1.55001e-10
2.28726e-08
-4.05348e-10
2.29736e-08
-5.93824e-12
-4.83584e-09
2.4155e-08
1.58754e-07
1.35266e-07
1.36535e-07
8.94119e-08
1.17512e-07
4.72704e-08
1.03347e-07
2.83535e-08
9.33665e-08
1.83578e-08
8.60799e-08
1.32011e-08
8.0386e-08
1.03016e-08
7.5748e-08
8.35478e-09
7.18833e-08
6.93015e-09
6.8604e-08
5.86226e-09
6.57767e-08
5.04401e-09
6.33062e-08
4.40009e-09
6.11241e-08
3.88128e-09
5.91791e-08
3.45552e-09
5.74318e-08
3.10091e-09
5.58516e-08
2.80182e-09
5.4414e-08
2.54673e-09
5.30993e-08
2.32701e-09
5.18916e-08
2.13603e-09
5.07777e-08
1.96868e-09
4.97466e-08
1.82092e-09
4.87891e-08
1.68954e-09
4.78975e-08
1.57192e-09
4.70652e-08
1.46596e-09
4.62868e-08
1.36989e-09
4.55573e-08
1.28225e-09
4.48728e-08
1.20178e-09
4.42298e-08
1.12742e-09
4.36254e-08
1.05821e-09
4.30569e-08
9.93348e-10
4.25224e-08
9.32015e-10
4.20202e-08
8.73592e-10
4.15489e-08
8.17248e-10
4.11075e-08
7.6257e-10
4.06956e-08
7.08459e-10
4.03126e-08
6.54889e-10
3.99592e-08
6.00009e-10
3.96353e-08
5.44655e-10
3.9343e-08
4.85295e-10
3.90825e-08
4.24588e-10
3.88586e-08
3.5568e-10
3.86707e-08
2.84436e-10
3.85292e-08
1.98856e-10
3.84313e-08
1.07113e-10
3.83961e-08
-3.03809e-12
3.84236e-08
-1.46495e-10
3.85263e-08
-2.5768e-10
3.87956e-08
-6.74642e-10
3.91197e-08
-3.30014e-10
-5.12127e-09
3.94051e-08
1.75612e-07
1.31169e-07
1.6563e-07
9.93945e-08
1.52751e-07
6.01487e-08
1.40156e-07
4.09488e-08
1.29492e-07
2.9022e-08
1.2087e-07
2.1823e-08
1.13775e-07
1.73964e-08
1.07812e-07
1.43182e-08
1.02729e-07
1.2013e-08
9.83434e-08
1.02476e-08
9.45155e-08
8.87191e-09
9.11392e-08
7.77643e-09
8.81343e-08
6.88613e-09
8.54394e-08
6.15051e-09
8.30059e-08
5.53441e-09
8.07953e-08
5.01237e-09
7.87766e-08
4.56545e-09
7.69243e-08
4.17925e-09
7.52177e-08
3.84271e-09
7.36392e-08
3.54717e-09
7.21743e-08
3.28576e-09
7.08109e-08
3.053e-09
6.95384e-08
2.84443e-09
6.83479e-08
2.65639e-09
6.7232e-08
2.48585e-09
6.61839e-08
2.33027e-09
6.51982e-08
2.18749e-09
6.427e-08
2.05565e-09
6.33951e-08
1.93312e-09
6.257e-08
1.81848e-09
6.17916e-08
1.71036e-09
6.10576e-08
1.60766e-09
6.03658e-08
1.50902e-09
5.97147e-08
1.41367e-09
5.91033e-08
1.31983e-09
5.85308e-08
1.2274e-09
5.79975e-08
1.13333e-09
5.7503e-08
1.0391e-09
5.70498e-08
9.38533e-10
5.66374e-08
8.36952e-10
5.6272e-08
7.21113e-10
5.59517e-08
6.04707e-10
5.569e-08
4.60603e-10
5.54813e-08
3.15833e-10
5.5351e-08
1.27274e-10
5.52937e-08
-8.92043e-11
5.53376e-08
-3.01577e-10
5.55377e-08
-8.74801e-10
5.59341e-08
-7.26376e-10
-5.19661e-09
5.60094e-08
1.84511e-07
1.23444e-07
1.82345e-07
1.0156e-07
1.76133e-07
6.63604e-08
1.67788e-07
4.92936e-08
1.59185e-07
3.76252e-08
1.51298e-07
2.97101e-08
1.44245e-07
2.44492e-08
1.37965e-07
2.0598e-08
1.32385e-07
1.75932e-08
1.2742e-07
1.5213e-08
1.22983e-07
1.33087e-08
1.18998e-07
1.17616e-08
1.154e-07
1.04845e-08
1.12134e-07
9.41608e-09
1.09156e-07
8.51208e-09
1.06429e-07
7.73959e-09
1.03921e-07
7.07354e-09
1.01606e-07
6.49456e-09
9.9461e-08
5.98746e-09
9.7468e-08
5.54022e-09
9.56105e-08
5.14319e-09
9.3875e-08
4.78857e-09
9.22494e-08
4.46998e-09
9.07237e-08
4.18214e-09
8.92889e-08
3.92064e-09
8.79374e-08
3.68178e-09
8.66625e-08
3.46237e-09
8.54584e-08
3.2597e-09
8.43202e-08
3.07134e-09
8.32435e-08
2.89521e-09
8.22246e-08
2.72929e-09
8.12603e-08
2.57194e-09
8.03481e-08
2.42119e-09
7.94859e-08
2.27585e-09
7.86723e-08
2.13341e-09
7.79061e-08
1.99362e-09
7.71873e-08
1.85215e-09
7.65153e-08
1.7111e-09
7.58923e-08
1.56149e-09
7.53179e-08
1.41137e-09
7.47983e-08
1.24077e-09
7.43315e-08
1.07146e-09
7.39314e-08
8.60697e-10
7.35929e-08
6.54306e-10
7.33414e-08
3.78851e-10
7.31734e-08
7.87612e-11
7.31197e-08
-2.47916e-10
7.32196e-08
-9.74702e-10
7.35599e-08
-1.06665e-09
-5.20187e-09
7.35651e-08
1.90343e-07
1.15317e-07
1.91862e-07
1.00041e-07
1.90272e-07
6.7951e-08
1.86177e-07
5.33886e-08
1.80752e-07
4.30498e-08
1.75018e-07
3.54444e-08
1.69341e-07
3.01261e-08
1.63878e-07
2.60613e-08
1.58724e-07
2.27466e-08
1.53922e-07
2.00152e-08
1.49473e-07
1.77578e-08
1.4536e-07
1.58744e-08
1.41559e-07
1.42856e-08
1.38043e-07
1.29322e-08
1.34785e-07
1.17697e-08
1.31761e-07
1.07635e-08
1.28948e-07
9.88649e-09
1.26326e-07
9.11705e-09
1.23876e-07
8.43775e-09
1.21581e-07
7.83449e-09
1.19429e-07
7.29576e-09
1.17405e-07
6.81207e-09
1.155e-07
6.37557e-09
1.13702e-07
5.97965e-09
1.12004e-07
5.61877e-09
1.10398e-07
5.28818e-09
1.08876e-07
4.98381e-09
1.07434e-07
4.70212e-09
1.06065e-07
4.43997e-09
1.04766e-07
4.19461e-09
1.03532e-07
3.96341e-09
1.02359e-07
3.74417e-09
1.01246e-07
3.53432e-09
1.0019e-07
3.33225e-09
9.91885e-08
3.1347e-09
9.82409e-08
2.94123e-09
9.73468e-08
2.74626e-09
9.65055e-08
2.55237e-09
9.5719e-08
2.34797e-09
9.4987e-08
2.1434e-09
9.43151e-08
1.91268e-09
9.37024e-08
1.68417e-09
9.3161e-08
1.40211e-09
9.2689e-08
1.1263e-09
9.23067e-08
7.611e-10
9.20189e-08
3.66567e-10
9.18483e-08
-7.7281e-11
9.18344e-08
-9.60769e-10
9.20642e-08
-1.29645e-09
-5.11949e-09
9.19818e-08
1.95505e-07
1.07627e-07
1.9825e-07
9.72962e-08
1.98993e-07
6.7208e-08
1.97806e-07
5.4575e-08
1.95184e-07
4.56726e-08
1.91859e-07
3.87692e-08
1.88145e-07
3.38403e-08
1.84213e-07
2.99927e-08
1.80214e-07
2.67457e-08
1.76257e-07
2.39726e-08
1.72408e-07
2.16062e-08
1.68707e-07
1.95759e-08
1.65172e-07
1.78206e-08
1.61811e-07
1.62928e-08
1.58625e-07
1.49557e-08
1.55609e-07
1.37796e-08
1.52756e-07
1.27398e-08
1.50057e-07
1.18162e-08
1.47502e-07
1.0992e-08
1.45084e-07
1.0253e-08
1.42792e-07
9.58748e-09
1.40619e-07
8.98554e-09
1.38556e-07
8.43874e-09
1.36595e-07
7.93989e-09
1.34731e-07
7.48283e-09
1.32957e-07
7.06223e-09
1.31268e-07
6.67344e-09
1.29657e-07
6.31237e-09
1.28122e-07
5.97536e-09
1.26657e-07
5.65915e-09
1.2526e-07
5.36063e-09
1.23927e-07
5.07713e-09
1.22656e-07
4.80559e-09
1.21444e-07
4.54398e-09
1.2029e-07
4.28841e-09
1.19194e-07
4.03819e-09
1.18153e-07
3.7867e-09
1.17169e-07
3.53674e-09
1.16242e-07
3.27458e-09
1.15373e-07
3.01205e-09
1.14568e-07
2.7186e-09
1.13825e-07
2.42668e-09
1.13155e-07
2.07188e-09
1.12561e-07
1.72061e-09
1.12055e-07
1.26675e-09
1.11653e-07
7.68925e-10
1.11366e-07
2.09981e-10
1.11234e-07
-8.28991e-10
1.11341e-07
-1.40335e-09
-4.93738e-09
1.11159e-07
2.0082e-07
1.00392e-07
2.03775e-07
9.43416e-08
2.05352e-07
6.56307e-08
2.05659e-07
5.42676e-08
2.04838e-07
4.64939e-08
2.03371e-07
4.02363e-08
2.01438e-07
3.5773e-08
1.99125e-07
3.23062e-08
1.96537e-07
2.93336e-08
1.93777e-07
2.67328e-08
1.90924e-07
2.44589e-08
1.88038e-07
2.24615e-08
1.85163e-07
2.06953e-08
1.82331e-07
1.91254e-08
1.79562e-07
1.77246e-08
1.76871e-07
1.64706e-08
1.74267e-07
1.53442e-08
1.71754e-07
1.43294e-08
1.69334e-07
1.34119e-08
1.67007e-07
1.25799e-08
1.64771e-07
1.18228e-08
1.62625e-07
1.11316e-08
1.60566e-07
1.04984e-08
1.58589e-07
9.91638e-09
1.56692e-07
9.37941e-09
1.54872e-07
8.88219e-09
1.53126e-07
8.42e-09
1.5145e-07
7.98859e-09
1.49841e-07
7.58411e-09
1.48297e-07
7.20306e-09
1.46816e-07
6.84206e-09
1.45395e-07
6.49818e-09
1.44032e-07
6.168e-09
1.42727e-07
5.84922e-09
1.41478e-07
5.53746e-09
1.40284e-07
5.23177e-09
1.39146e-07
4.92476e-09
1.38064e-07
4.61919e-09
1.37039e-07
4.29981e-09
1.36072e-07
3.97905e-09
1.35167e-07
3.62352e-09
1.34326e-07
3.26693e-09
1.33557e-07
2.84103e-09
1.32866e-07
2.4114e-09
1.32261e-07
1.87268e-09
1.31762e-07
1.26745e-09
1.31375e-07
5.96828e-10
1.31134e-07
-5.8783e-10
1.31123e-07
-1.39216e-09
-4.66521e-09
1.30851e-07
2.06423e-07
9.35004e-08
2.09335e-07
9.14306e-08
2.11063e-07
6.39019e-08
2.11949e-07
5.33814e-08
2.1202e-07
4.64229e-08
2.11646e-07
4.0611e-08
2.10929e-07
3.64898e-08
2.09873e-07
3.33625e-08
2.08516e-07
3.06907e-08
2.06916e-07
2.83328e-08
2.05128e-07
2.62466e-08
2.03201e-07
2.43885e-08
2.01177e-07
2.27196e-08
1.9909e-07
2.12117e-08
1.96971e-07
1.98442e-08
1.94841e-07
1.86004e-08
1.92719e-07
1.74664e-08
1.90618e-07
1.64301e-08
1.88549e-07
1.54809e-08
1.8652e-07
1.46095e-08
1.84535e-07
1.38077e-08
1.82598e-07
1.3068e-08
1.80713e-07
1.23839e-08
1.7888e-07
1.17494e-08
1.771e-07
1.11594e-08
1.75373e-07
1.06089e-08
1.737e-07
1.00936e-08
1.72079e-07
9.60963e-09
1.7051e-07
9.15315e-09
1.68992e-07
8.72077e-09
1.67525e-07
8.30912e-09
1.66108e-07
7.91519e-09
1.6474e-07
7.53545e-09
1.63422e-07
7.16743e-09
1.62153e-07
6.80647e-09
1.60933e-07
6.45144e-09
1.59764e-07
6.09441e-09
1.58645e-07
5.73795e-09
1.57579e-07
5.36592e-09
1.56568e-07
4.9905e-09
1.55614e-07
4.57712e-09
1.54723e-07
4.15827e-09
1.53897e-07
3.66613e-09
1.5315e-07
3.15931e-09
1.5248e-07
2.54191e-09
1.51917e-07
1.83112e-09
1.5146e-07
1.05369e-09
1.51132e-07
-2.59558e-10
1.51019e-07
-1.27918e-09
-4.32385e-09
1.50677e-07
2.1227e-07
8.6893e-08
2.15143e-07
8.85569e-08
2.16818e-07
6.22269e-08
2.17864e-07
5.23356e-08
2.1828e-07
4.60072e-08
2.18406e-07
4.04847e-08
2.18342e-07
3.65545e-08
2.18055e-07
3.36495e-08
2.17539e-07
3.12065e-08
2.16813e-07
2.90587e-08
2.15901e-07
2.71589e-08
2.14826e-07
2.54625e-08
2.13616e-07
2.393e-08
2.12294e-07
2.25337e-08
2.10884e-07
2.12545e-08
2.09406e-07
2.00782e-08
2.07879e-07
1.89935e-08
2.06318e-07
1.79908e-08
2.04737e-07
1.7062e-08
2.03146e-07
1.62e-08
2.01556e-07
1.53984e-08
1.99972e-07
1.46514e-08
1.98402e-07
1.3954e-08
1.9685e-07
1.33014e-08
1.9532e-07
1.26892e-08
1.93816e-07
1.21135e-08
1.92339e-07
1.15706e-08
1.90891e-07
1.10569e-08
1.89476e-07
1.05691e-08
1.88092e-07
1.01041e-08
1.86743e-07
9.65867e-09
1.85428e-07
9.23e-09
1.84149e-07
8.81455e-09
1.82906e-07
8.40987e-09
1.81702e-07
8.01118e-09
1.80536e-07
7.61723e-09
1.7941e-07
7.21979e-09
1.78327e-07
6.82115e-09
1.77288e-07
6.4048e-09
1.76297e-07
5.98205e-09
1.75355e-07
5.51858e-09
1.7447e-07
5.04364e-09
1.73643e-07
4.49327e-09
1.72887e-07
3.91474e-09
1.72202e-07
3.22725e-09
1.71615e-07
2.41867e-09
1.71126e-07
1.5418e-09
1.70745e-07
1.22075e-10
1.70557e-07
-1.09108e-09
-3.94065e-09
1.70174e-07
2.18316e-07
8.05581e-08
2.21193e-07
8.56796e-08
2.22791e-07
6.06284e-08
2.23866e-07
5.12612e-08
2.2439e-07
4.54828e-08
2.24694e-07
4.0181e-08
2.24905e-07
3.63434e-08
2.24995e-07
3.35595e-08
2.24943e-07
3.1258e-08
2.24751e-07
2.92515e-08
2.24421e-07
2.74886e-08
2.2396e-07
2.59232e-08
2.23377e-07
2.4513e-08
2.22683e-07
2.32278e-08
2.2189e-07
2.20475e-08
2.21011e-07
2.09573e-08
2.20059e-07
1.99462e-08
2.19044e-07
1.90052e-08
2.17979e-07
1.8127e-08
2.16874e-07
1.73055e-08
2.15737e-07
1.65354e-08
2.14576e-07
1.58121e-08
2.13399e-07
1.51313e-08
2.12211e-07
1.44891e-08
2.11018e-07
1.38821e-08
2.09825e-07
1.33069e-08
2.08635e-07
1.27604e-08
2.07452e-07
1.22397e-08
2.06279e-07
1.17418e-08
2.0512e-07
1.12639e-08
2.03975e-07
1.08031e-08
2.02848e-07
1.03568e-08
2.01741e-07
9.92166e-09
2.00656e-07
9.49519e-09
1.99594e-07
9.07265e-09
1.98559e-07
8.65272e-09
1.97552e-07
8.22709e-09
1.96575e-07
7.79767e-09
1.95632e-07
7.34802e-09
1.94726e-07
6.88808e-09
1.93859e-07
6.38492e-09
1.9304e-07
5.86316e-09
1.92268e-07
5.26503e-09
1.91559e-07
4.62407e-09
1.90909e-07
3.87717e-09
1.90344e-07
2.98357e-09
1.89868e-07
2.01772e-09
1.89474e-07
5.16211e-10
1.89245e-07
-8.62073e-10
-3.54716e-09
1.88851e-07
2.24549e-07
7.45021e-08
2.27453e-07
8.2776e-08
2.28987e-07
5.90938e-08
2.30069e-07
5.01795e-08
2.30634e-07
4.49178e-08
2.30987e-07
3.98287e-08
2.31287e-07
3.60427e-08
2.31525e-07
3.33215e-08
2.31682e-07
3.11013e-08
2.31756e-07
2.91777e-08
2.31746e-07
2.74985e-08
2.3165e-07
2.60185e-08
2.31469e-07
2.46943e-08
2.31203e-07
2.34935e-08
2.30857e-07
2.2394e-08
2.30434e-07
2.13799e-08
2.29941e-07
2.04391e-08
2.29384e-07
1.95622e-08
2.2877e-07
1.87415e-08
2.28104e-07
1.7971e-08
2.27394e-07
1.72456e-08
2.26645e-07
1.65609e-08
2.25864e-07
1.5913e-08
2.25054e-07
1.52984e-08
2.24222e-07
1.47141e-08
2.23372e-07
1.41571e-08
2.22508e-07
1.36247e-08
2.21633e-07
1.31142e-08
2.20752e-07
1.2623e-08
2.19867e-07
1.21487e-08
2.18982e-07
1.16884e-08
2.18099e-07
1.12398e-08
2.17221e-07
1.07996e-08
2.16351e-07
1.03654e-08
2.15491e-07
9.93251e-09
2.14644e-07
9.49957e-09
2.13813e-07
9.05826e-09
2.13001e-07
8.61003e-09
2.1221e-07
8.13886e-09
2.11445e-07
7.65296e-09
2.10708e-07
7.12163e-09
2.10007e-07
6.56391e-09
2.09343e-07
5.92975e-09
2.08729e-07
5.23803e-09
2.08162e-07
4.44362e-09
2.07665e-07
3.48109e-09
2.07243e-07
2.43925e-09
2.06878e-07
8.8161e-10
2.06645e-07
-6.29443e-10
-3.1757e-09
2.06274e-07
2.30975e-07
6.87329e-08
2.33914e-07
7.98374e-08
2.35392e-07
5.7616e-08
2.36482e-07
4.90892e-08
2.3708e-07
4.43195e-08
2.37448e-07
3.94611e-08
2.3777e-07
3.57199e-08
2.38054e-07
3.30374e-08
2.38287e-07
3.0869e-08
2.3847e-07
2.89948e-08
2.38605e-07
2.7363e-08
2.38691e-07
2.59325e-08
2.38725e-07
2.46602e-08
2.38706e-07
2.3513e-08
2.38632e-07
2.24679e-08
2.38504e-07
2.15079e-08
2.38323e-07
2.062e-08
2.38091e-07
1.97942e-08
2.3781e-07
1.90221e-08
2.37484e-07
1.82974e-08
2.37115e-07
1.76145e-08
2.36707e-07
1.6969e-08
2.36263e-07
1.6357e-08
2.35787e-07
1.57748e-08
2.35281e-07
1.52196e-08
2.3475e-07
1.46883e-08
2.34196e-07
1.41785e-08
2.33623e-07
1.36875e-08
2.33033e-07
1.32129e-08
2.32429e-07
1.27522e-08
2.31815e-07
1.23028e-08
2.31192e-07
1.18624e-08
2.30564e-07
1.14276e-08
2.29933e-07
1.09963e-08
2.29302e-07
1.05637e-08
2.28674e-07
1.01282e-08
2.2805e-07
9.68166e-09
2.27435e-07
9.22496e-09
2.26831e-07
8.74275e-09
2.26243e-07
8.2412e-09
2.25672e-07
7.69244e-09
2.25127e-07
7.10946e-09
2.24606e-07
6.45052e-09
2.24124e-07
5.72034e-09
2.23677e-07
4.89021e-09
2.23282e-07
3.87592e-09
2.22949e-07
2.77258e-09
2.22648e-07
1.18297e-09
2.22445e-07
-4.27141e-10
-2.85484e-09
2.22125e-07
2.37601e-07
6.32562e-08
2.40579e-07
7.68595e-08
2.42e-07
5.61952e-08
2.43098e-07
4.79916e-08
2.43733e-07
4.36844e-08
2.44114e-07
3.90803e-08
2.44442e-07
3.53914e-08
2.44739e-07
3.27404e-08
2.44995e-07
3.06136e-08
2.45214e-07
2.87752e-08
2.45404e-07
2.71731e-08
2.45566e-07
2.57712e-08
2.45697e-07
2.45288e-08
2.45797e-07
2.34128e-08
2.45865e-07
2.24001e-08
2.459e-07
2.14735e-08
2.459e-07
2.06196e-08
2.45866e-07
1.98279e-08
2.45799e-07
1.90898e-08
2.45697e-07
1.83985e-08
2.45564e-07
1.77481e-08
2.45399e-07
1.71339e-08
2.45204e-07
1.65517e-08
2.44981e-07
1.59979e-08
2.44731e-07
1.54693e-08
2.44457e-07
1.4963e-08
2.44159e-07
1.44761e-08
2.43841e-07
1.40061e-08
2.43503e-07
1.35506e-08
2.43148e-07
1.31069e-08
2.42778e-07
1.26726e-08
2.42396e-07
1.22451e-08
2.42002e-07
1.18211e-08
2.416e-07
1.13984e-08
2.41191e-07
1.09722e-08
2.40779e-07
1.05407e-08
2.40365e-07
1.00958e-08
2.39952e-07
9.63779e-09
2.39543e-07
9.15213e-09
2.39141e-07
8.64274e-09
2.38749e-07
8.08492e-09
2.38373e-07
7.48556e-09
2.38012e-07
6.81113e-09
2.37679e-07
6.05369e-09
2.37371e-07
5.1981e-09
2.37098e-07
4.1482e-09
2.36873e-07
2.99777e-09
2.36659e-07
1.39688e-09
2.36512e-07
-2.80159e-10
-2.60484e-09
2.36262e-07
2.44437e-07
5.80757e-08
2.47453e-07
7.3843e-08
2.48819e-07
5.48296e-08
2.49919e-07
4.68909e-08
2.50593e-07
4.30106e-08
2.50991e-07
3.86826e-08
2.51324e-07
3.50579e-08
2.51627e-07
3.24375e-08
2.51891e-07
3.03502e-08
2.52122e-07
2.85442e-08
2.52329e-07
2.69657e-08
2.52517e-07
2.55838e-08
2.52685e-07
2.43604e-08
2.52834e-07
2.32633e-08
2.52965e-07
2.22697e-08
2.53076e-07
2.13625e-08
2.53167e-07
2.05286e-08
2.53237e-07
1.97574e-08
2.53287e-07
1.90401e-08
2.53316e-07
1.83698e-08
2.53323e-07
1.77405e-08
2.5331e-07
1.71473e-08
2.53276e-07
1.6586e-08
2.53221e-07
1.60526e-08
2.53146e-07
1.55439e-08
2.53053e-07
1.50567e-08
2.5294e-07
1.45883e-08
2.52811e-07
1.41358e-08
2.52665e-07
1.36967e-08
2.52503e-07
1.32685e-08
2.52327e-07
1.28483e-08
2.52139e-07
1.24336e-08
2.51939e-07
1.20211e-08
2.51729e-07
1.16083e-08
2.51511e-07
1.11903e-08
2.51287e-07
1.07651e-08
2.51057e-07
1.03249e-08
2.50826e-07
9.86906e-09
2.50594e-07
9.38403e-09
2.50366e-07
8.87143e-09
2.50141e-07
8.30978e-09
2.49926e-07
7.70023e-09
2.4972e-07
7.01669e-09
2.49533e-07
6.24084e-09
2.49364e-07
5.36763e-09
2.49216e-07
4.29559e-09
2.49103e-07
3.11104e-09
2.48985e-07
1.51481e-09
2.48906e-07
-2.01048e-10
-2.43474e-09
2.48736e-07
2.51489e-07
5.31934e-08
2.54534e-07
7.07981e-08
2.55855e-07
5.35083e-08
2.56953e-07
4.57928e-08
2.57665e-07
4.22988e-08
2.58082e-07
3.82653e-08
2.58422e-07
3.47183e-08
2.58731e-07
3.21287e-08
2.59e-07
3.00811e-08
2.59236e-07
2.83083e-08
2.59449e-07
2.67524e-08
2.59645e-07
2.53879e-08
2.59826e-07
2.41796e-08
2.59993e-07
2.30963e-08
2.60147e-07
2.21155e-08
2.60289e-07
2.12206e-08
2.60419e-07
2.03987e-08
2.60537e-07
1.96394e-08
2.60643e-07
1.89342e-08
2.60736e-07
1.82761e-08
2.60818e-07
1.76591e-08
2.60886e-07
1.70785e-08
2.60943e-07
1.65297e-08
2.60986e-07
1.6009e-08
2.61017e-07
1.55129e-08
2.61036e-07
1.50383e-08
2.61042e-07
1.45821e-08
2.61036e-07
1.41417e-08
2.61019e-07
1.37143e-08
2.6099e-07
1.32972e-08
2.60951e-07
1.28875e-08
2.60901e-07
1.24827e-08
2.60843e-07
1.20792e-08
2.60777e-07
1.16745e-08
2.60704e-07
1.12635e-08
2.60625e-07
1.08441e-08
2.60541e-07
1.04085e-08
2.60455e-07
9.95522e-09
2.60367e-07
9.4719e-09
2.60281e-07
8.95781e-09
2.60196e-07
8.39457e-09
2.60118e-07
7.77823e-09
2.60046e-07
7.08903e-09
2.59986e-07
6.30086e-09
2.59938e-07
5.41518e-09
2.59903e-07
4.33099e-09
2.59891e-07
3.12299e-09
2.59863e-07
1.54229e-09
2.59852e-07
-1.89729e-10
-2.34221e-09
2.5976e-07
2.58767e-07
4.86097e-08
2.61829e-07
6.77354e-08
2.63118e-07
5.22202e-08
2.64208e-07
4.4702e-08
2.64956e-07
4.15514e-08
2.65395e-07
3.78264e-08
2.65741e-07
3.43715e-08
2.66056e-07
3.18139e-08
2.66331e-07
2.9806e-08
2.66572e-07
2.8068e-08
2.66788e-07
2.65358e-08
2.66988e-07
2.51884e-08
2.67173e-07
2.39944e-08
2.67346e-07
2.29233e-08
2.67508e-07
2.19531e-08
2.67661e-07
2.10676e-08
2.67806e-07
2.02542e-08
2.67943e-07
1.95027e-08
2.68072e-07
1.88049e-08
2.68194e-07
1.81539e-08
2.68309e-07
1.7544e-08
2.68417e-07
1.69703e-08
2.68519e-07
1.64285e-08
2.68613e-07
1.59148e-08
2.687e-07
1.54258e-08
2.6878e-07
1.49582e-08
2.68853e-07
1.45091e-08
2.68919e-07
1.40757e-08
2.68978e-07
1.36551e-08
2.69031e-07
1.32447e-08
2.69077e-07
1.28414e-08
2.69117e-07
1.24427e-08
2.69151e-07
1.20447e-08
2.69181e-07
1.1645e-08
2.69206e-07
1.12384e-08
2.69228e-07
1.08224e-08
2.69246e-07
1.03896e-08
2.69264e-07
9.93758e-09
2.69281e-07
9.45506e-09
2.693e-07
8.93921e-09
2.6932e-07
8.37446e-09
2.69345e-07
7.7526e-09
2.69375e-07
7.05886e-09
2.69414e-07
6.26199e-09
2.69463e-07
5.3667e-09
2.69517e-07
4.27702e-09
2.69586e-07
3.05372e-09
2.69633e-07
1.49482e-09
2.6968e-07
-2.36345e-10
-2.31611e-09
2.69654e-07
2.66279e-07
4.43232e-08
2.69349e-07
6.46654e-08
2.70614e-07
5.09547e-08
2.71693e-07
4.3623e-08
2.72473e-07
4.07715e-08
2.72935e-07
3.73642e-08
2.7329e-07
3.40168e-08
2.73611e-07
3.14928e-08
2.73893e-07
2.95246e-08
2.74138e-07
2.78229e-08
2.74358e-07
2.63156e-08
2.7456e-07
2.49861e-08
2.74748e-07
2.38065e-08
2.74924e-07
2.27476e-08
2.75089e-07
2.17875e-08
2.75246e-07
2.09105e-08
2.75396e-07
2.01043e-08
2.7554e-07
1.93591e-08
2.75678e-07
1.86668e-08
2.75811e-07
1.80207e-08
2.7594e-07
1.74152e-08
2.76065e-07
1.68456e-08
2.76185e-07
1.63077e-08
2.76303e-07
1.57977e-08
2.76416e-07
1.53122e-08
2.76526e-07
1.48481e-08
2.76633e-07
1.44025e-08
2.76736e-07
1.39725e-08
2.76836e-07
1.35552e-08
2.76933e-07
1.31479e-08
2.77027e-07
1.27476e-08
2.77118e-07
1.23515e-08
2.77206e-07
1.19561e-08
2.77293e-07
1.15583e-08
2.77378e-07
1.11534e-08
2.77462e-07
1.07383e-08
2.77546e-07
1.0306e-08
2.7763e-07
9.8532e-09
2.77715e-07
9.36978e-09
2.77804e-07
8.85099e-09
2.77895e-07
8.28367e-09
2.77991e-07
7.65634e-09
2.78092e-07
6.9578e-09
2.782e-07
6.1541e-09
2.78316e-07
5.2506e-09
2.78433e-07
4.15939e-09
2.7856e-07
2.92685e-09
2.78663e-07
1.39259e-09
2.78752e-07
-3.25819e-10
-2.34031e-09
2.78776e-07
2.74034e-07
4.03309e-08
2.771e-07
6.15992e-08
2.78353e-07
4.97015e-08
2.79417e-07
4.25594e-08
2.80225e-07
3.99627e-08
2.80712e-07
3.68772e-08
2.81076e-07
3.36533e-08
2.81403e-07
3.11655e-08
2.81691e-07
2.92365e-08
2.81942e-07
2.75726e-08
2.82165e-07
2.60918e-08
2.82371e-07
2.47809e-08
2.82561e-07
2.36161e-08
2.82739e-07
2.25696e-08
2.82907e-07
2.16198e-08
2.83066e-07
2.07513e-08
2.83218e-07
1.99522e-08
2.83364e-07
1.92128e-08
2.83506e-07
1.85253e-08
2.83643e-07
1.78833e-08
2.83777e-07
1.72812e-08
2.83908e-07
1.67144e-08
2.84037e-07
1.61789e-08
2.84164e-07
1.5671e-08
2.84289e-07
1.51874e-08
2.84412e-07
1.47249e-08
2.84534e-07
1.42807e-08
2.84654e-07
1.3852e-08
2.84774e-07
1.34357e-08
2.84892e-07
1.30294e-08
2.8501e-07
1.26298e-08
2.85127e-07
1.22342e-08
2.85244e-07
1.18389e-08
2.85362e-07
1.14409e-08
2.8548e-07
1.10355e-08
2.85599e-07
1.06192e-08
2.85719e-07
1.01854e-08
2.85842e-07
9.73015e-09
2.85968e-07
9.24416e-09
2.86098e-07
8.72118e-09
2.86231e-07
8.14997e-09
2.86371e-07
7.51678e-09
2.86516e-07
6.8127e-09
2.86667e-07
6.00307e-09
2.86826e-07
5.09207e-09
2.86984e-07
4.00151e-09
2.87146e-07
2.76426e-09
2.87283e-07
1.25527e-09
2.874e-07
-4.42511e-10
-2.39814e-09
2.87458e-07
2.8204e-07
3.6628e-08
2.85092e-07
5.85476e-08
2.86342e-07
4.84512e-08
2.87388e-07
4.1514e-08
2.88221e-07
3.91295e-08
2.88734e-07
3.63642e-08
2.89108e-07
3.32798e-08
2.89441e-07
3.08321e-08
2.89736e-07
2.89417e-08
2.89992e-07
2.73166e-08
2.9022e-07
2.58639e-08
2.90428e-07
2.45725e-08
2.90621e-07
2.34231e-08
2.90801e-07
2.23894e-08
2.90971e-07
2.14502e-08
2.91132e-07
2.05904e-08
2.91286e-07
1.97984e-08
2.91434e-07
1.90649e-08
2.91577e-07
1.83821e-08
2.91716e-07
1.77439e-08
2.91853e-07
1.71448e-08
2.91986e-07
1.65805e-08
2.92118e-07
1.60469e-08
2.92249e-07
1.55404e-08
2.92378e-07
1.50579e-08
2.92507e-07
1.45963e-08
2.92635e-07
1.41525e-08
2.92763e-07
1.3724e-08
2.92891e-07
1.33077e-08
2.9302e-07
1.29011e-08
2.93148e-07
1.2501e-08
2.93278e-07
1.21045e-08
2.93409e-07
1.17081e-08
2.93541e-07
1.13085e-08
2.93676e-07
1.09011e-08
2.93813e-07
1.04823e-08
2.93952e-07
1.00458e-08
2.94096e-07
9.5868e-09
2.94243e-07
9.09699e-09
2.94395e-07
8.56891e-09
2.94552e-07
7.99277e-09
2.94716e-07
7.35339e-09
2.94885e-07
6.64312e-09
2.9506e-07
5.82809e-09
2.95242e-07
4.91021e-09
2.95422e-07
3.82152e-09
2.95603e-07
2.58316e-09
2.95759e-07
1.09901e-09
2.9589e-07
-5.73143e-10
-2.47502e-09
2.95967e-07
2.90309e-07
3.32081e-08
2.93334e-07
5.55219e-08
2.94591e-07
4.71947e-08
2.95616e-07
4.04889e-08
2.96469e-07
3.82769e-08
2.97009e-07
3.58239e-08
2.97394e-07
3.2895e-08
2.97733e-07
3.04927e-08
2.98035e-07
2.864e-08
2.98297e-07
2.70547e-08
2.98529e-07
2.56316e-08
2.98741e-07
2.43607e-08
2.98937e-07
2.32272e-08
2.99119e-07
2.22067e-08
2.99291e-07
2.12785e-08
2.99454e-07
2.04277e-08
2.99609e-07
1.9643e-08
2.99759e-07
1.89154e-08
2.99903e-07
1.82374e-08
3.00044e-07
1.7603e-08
3.00182e-07
1.7007e-08
3.00318e-07
1.6445e-08
3.00451e-07
1.59131e-08
3.00584e-07
1.5408e-08
3.00715e-07
1.49263e-08
3.00847e-07
1.44651e-08
3.00978e-07
1.40214e-08
3.01109e-07
1.35927e-08
3.01241e-07
1.31759e-08
3.01374e-07
1.27684e-08
3.01507e-07
1.23672e-08
3.01643e-07
1.19692e-08
3.0178e-07
1.15709e-08
3.01919e-07
1.11691e-08
3.02061e-07
1.07591e-08
3.02206e-07
1.03371e-08
3.02355e-07
9.89698e-09
3.02508e-07
9.43362e-09
3.02666e-07
8.93928e-09
3.02829e-07
8.40564e-09
3.02998e-07
7.82394e-09
3.03173e-07
7.1783e-09
3.03355e-07
6.46155e-09
3.03541e-07
5.64163e-09
3.03734e-07
4.7177e-09
3.03924e-07
3.63172e-09
3.04111e-07
2.39534e-09
3.04275e-07
9.35281e-10
3.0441e-07
-7.08094e-10
-2.55996e-09
3.04495e-07
2.98848e-07
3.0063e-08
3.01836e-07
5.25332e-08
3.03107e-07
4.59243e-08
3.0411e-07
3.94853e-08
3.04977e-07
3.74101e-08
3.05545e-07
3.5256e-08
3.05943e-07
3.24975e-08
3.06288e-07
3.01471e-08
3.06597e-07
2.83315e-08
3.06865e-07
2.67864e-08
3.07102e-07
2.53946e-08
3.07317e-07
2.41452e-08
3.07516e-07
2.30282e-08
3.07702e-07
2.20213e-08
3.07876e-07
2.11044e-08
3.08041e-07
2.02629e-08
3.08198e-07
1.94857e-08
3.08349e-07
1.87643e-08
3.08495e-07
1.80913e-08
3.08637e-07
1.74608e-08
3.08777e-07
1.68678e-08
3.08913e-07
1.63082e-08
3.09048e-07
1.57781e-08
3.09182e-07
1.52741e-08
3.09315e-07
1.47932e-08
3.09448e-07
1.43323e-08
3.09581e-07
1.38887e-08
3.09714e-07
1.34595e-08
3.09848e-07
1.30421e-08
3.09983e-07
1.26335e-08
3.10119e-07
1.22309e-08
3.10257e-07
1.18312e-08
3.10397e-07
1.14308e-08
3.1054e-07
1.10264e-08
3.10686e-07
1.06134e-08
3.10835e-07
1.01879e-08
3.10988e-07
9.74388e-09
3.11146e-07
9.2759e-09
3.11308e-07
8.77669e-09
3.11477e-07
8.23739e-09
3.11651e-07
7.64988e-09
3.11831e-07
6.99819e-09
3.12017e-07
6.27507e-09
3.12208e-07
5.45086e-09
3.12404e-07
4.52199e-09
3.12596e-07
3.43948e-09
3.12783e-07
2.20785e-09
3.12947e-07
7.71312e-10
3.13081e-07
-8.41271e-10
-2.64562e-09
3.13166e-07
3.07667e-07
2.71829e-08
3.10608e-07
4.95928e-08
3.11899e-07
4.46332e-08
3.1288e-07
3.85037e-08
3.13756e-07
3.65344e-08
3.14352e-07
3.46603e-08
3.14764e-07
3.20857e-08
3.15116e-07
2.97952e-08
3.15431e-07
2.80162e-08
3.15706e-07
2.65116e-08
3.15948e-07
2.51525e-08
3.16167e-07
2.39258e-08
3.16369e-07
2.28258e-08
3.16558e-07
2.18331e-08
3.16734e-07
2.09279e-08
3.16901e-07
2.00959e-08
3.1706e-07
1.93266e-08
3.17213e-07
1.86114e-08
3.17361e-07
1.79434e-08
3.17505e-07
1.7317e-08
3.17646e-07
1.67272e-08
3.17784e-07
1.61699e-08
3.1792e-07
1.56416e-08
3.18056e-07
1.51389e-08
3.1819e-07
1.46587e-08
3.18324e-07
1.41982e-08
3.18458e-07
1.37545e-08
3.18593e-07
1.33249e-08
3.18728e-07
1.29067e-08
3.18865e-07
1.24971e-08
3.19003e-07
1.2093e-08
3.19142e-07
1.16914e-08
3.19284e-07
1.12888e-08
3.19429e-07
1.08817e-08
3.19577e-07
1.04657e-08
3.19728e-07
1.00365e-08
3.19883e-07
9.58858e-09
3.20043e-07
9.11595e-09
3.20208e-07
8.61181e-09
3.20379e-07
8.06699e-09
3.20555e-07
7.47373e-09
3.20737e-07
6.81637e-09
3.20924e-07
6.0873e-09
3.21116e-07
5.25951e-09
3.21311e-07
4.32705e-09
3.21501e-07
3.24885e-09
3.21685e-07
2.02445e-09
3.21845e-07
6.11197e-10
3.21973e-07
-9.69226e-10
-2.72751e-09
3.22055e-07
3.16777e-07
2.45567e-08
3.19659e-07
4.67117e-08
3.20976e-07
4.33156e-08
3.21936e-07
3.75438e-08
3.22816e-07
3.56548e-08
3.23438e-07
3.40378e-08
3.23866e-07
3.16581e-08
3.24224e-07
2.94365e-08
3.24546e-07
2.76942e-08
3.24828e-07
2.62299e-08
3.25076e-07
2.4905e-08
3.25299e-07
2.37023e-08
3.25505e-07
2.262e-08
3.25696e-07
2.16417e-08
3.25876e-07
2.07486e-08
3.26045e-07
1.99265e-08
3.26206e-07
1.91652e-08
3.26361e-07
1.84565e-08
3.26511e-07
1.77938e-08
3.26656e-07
1.71715e-08
3.26799e-07
1.65849e-08
3.26938e-07
1.60301e-08
3.27076e-07
1.55036e-08
3.27213e-07
1.50022e-08
3.27349e-07
1.45228e-08
3.27485e-07
1.40626e-08
3.2762e-07
1.36189e-08
3.27756e-07
1.31889e-08
3.27893e-07
1.277e-08
3.28031e-07
1.23592e-08
3.2817e-07
1.19536e-08
3.28311e-07
1.15502e-08
3.28455e-07
1.11454e-08
3.28601e-07
1.07356e-08
3.2875e-07
1.03166e-08
3.28903e-07
9.8838e-09
3.29059e-07
9.43188e-09
3.29221e-07
8.95472e-09
3.29387e-07
8.44573e-09
3.29558e-07
7.89565e-09
3.29735e-07
7.29687e-09
3.29917e-07
6.63435e-09
3.30104e-07
5.89995e-09
3.30294e-07
5.06938e-09
3.30487e-07
4.13482e-09
3.30674e-07
3.06186e-09
3.30851e-07
1.84697e-09
3.31005e-07
4.57111e-10
3.31126e-07
-1.09015e-09
-2.80307e-09
3.31202e-07
3.26188e-07
2.21716e-08
3.28998e-07
4.39009e-08
3.30347e-07
4.19675e-08
3.31286e-07
3.66043e-08
3.32165e-07
3.4776e-08
3.32813e-07
3.33899e-08
3.33258e-07
3.12132e-08
3.33624e-07
2.90706e-08
3.33952e-07
2.73656e-08
3.34241e-07
2.59411e-08
3.34494e-07
2.46516e-08
3.34723e-07
2.34741e-08
3.34932e-07
2.24103e-08
3.35127e-07
2.1447e-08
3.35309e-07
2.05664e-08
3.35481e-07
1.97546e-08
3.35645e-07
1.90015e-08
3.35802e-07
1.82996e-08
3.35953e-07
1.76422e-08
3.36101e-07
1.70241e-08
3.36245e-07
1.64409e-08
3.36386e-07
1.58887e-08
3.36526e-07
1.53641e-08
3.36664e-07
1.48639e-08
3.36802e-07
1.43854e-08
3.36939e-07
1.39256e-08
3.37076e-07
1.34818e-08
3.37213e-07
1.30515e-08
3.37351e-07
1.26317e-08