/*--------------------------------*- C++ -*----------------------------------*\
  =========                 |
  \\      /  F ield         | OpenFOAM: The Open Source CFD Toolbox
   \\    /   O peration     | Website:  https://openfoam.org
    \\  /    A nd           | Version:  7
     \\/     M anipulation  |
\*---------------------------------------------------------------------------*/
FoamFile
{
    version     2.0;
    format      ascii;
    class       volVectorField;
    location    "0.15";
    object      U;
}
// * * * * * * * * * * * * * * * * * * * * * * * * * * * * * * * * * * * * * //

dimensions      [0 1 -1 0 0 0 0];

internalField   nonuniform List<vector> 
70000
(
(0.553415 0.016978 0)
(0.25143 0.00340022 0)
(0.165955 0.000318771 0)
(0.13249 4.88638e-05 0)
(0.117404 4.39155e-05 0)
(0.107466 5.20765e-05 0)
(0.0995151 4.42719e-05 0)
(0.0930919 3.51883e-05 0)
(0.0878682 2.9143e-05 0)
(0.0835193 2.49977e-05 0)
(0.0798168 2.1828e-05 0)
(0.076613 1.92854e-05 0)
(0.0738064 1.72104e-05 0)
(0.0713231 1.5494e-05 0)
(0.0691066 1.40552e-05 0)
(0.0671138 1.28337e-05 0)
(0.0653104 1.17845e-05 0)
(0.0636694 1.08735e-05 0)
(0.0621688 1.00746e-05 0)
(0.0607907 9.36709e-06 0)
(0.0595206 8.73473e-06 0)
(0.0583462 8.16427e-06 0)
(0.0572572 7.64475e-06 0)
(0.0562451 7.16714e-06 0)
(0.0553027 6.72342e-06 0)
(0.0544238 6.3071e-06 0)
(0.0536034 5.91148e-06 0)
(0.052837 5.53191e-06 0)
(0.052121 5.16147e-06 0)
(0.0514525 4.79756e-06 0)
(0.050829 4.43102e-06 0)
(0.0502486 4.06234e-06 0)
(0.0497101 3.6776e-06 0)
(0.0492125 3.28146e-06 0)
(0.0487555 2.85402e-06 0)
(0.0483398 2.39978e-06 0)
(0.0479651 1.90412e-06 0)
(0.0476353 1.33561e-06 0)
(0.0473477 7.61263e-07 0)
(0.0471153 -5.19373e-08 0)
(0.0469235 -6.37824e-07 0)
(0.0468128 -2.05504e-06 0)
(0.046727 -2.3918e-06 0)
(0.0467881 -5.37893e-06 0)
(0.0468124 -3.90698e-06 0)
(0.0471516 -1.11703e-05 0)
(0.0472704 -4.07963e-06 0)
(0.0480806 -2.43912e-05 0)
(0.0485474 2.6336e-05 0)
(0.04594 -0.00185483 0)
(0.884864 0.0434926 0)
(0.650169 0.0201475 0)
(0.494037 0.00660278 0)
(0.403661 0.00275273 0)
(0.354998 0.00154584 0)
(0.323732 0.00112951 0)
(0.299883 0.000907071 0)
(0.280724 0.000742496 0)
(0.265059 0.000619837 0)
(0.251985 0.00052941 0)
(0.24085 0.000460792 0)
(0.231211 0.000406823 0)
(0.222764 0.000363246 0)
(0.215284 0.000327402 0)
(0.208603 0.000297479 0)
(0.202592 0.000272174 0)
(0.197147 0.000250527 0)
(0.192189 0.000231813 0)
(0.18765 0.000215482 0)
(0.183477 0.000201103 0)
(0.179627 0.000188338 0)
(0.176062 0.000176915 0)
(0.172752 0.000166613 0)
(0.169671 0.000157251 0)
(0.166796 0.000148675 0)
(0.164109 0.000140756 0)
(0.161595 0.000133378 0)
(0.159239 0.000126444 0)
(0.157031 0.000119857 0)
(0.15496 0.000113537 0)
(0.15302 0.000107391 0)
(0.151203 0.000101353 0)
(0.149504 9.53088e-05 0)
(0.147921 8.92155e-05 0)
(0.146451 8.28985e-05 0)
(0.145094 7.6358e-05 0)
(0.143849 6.93123e-05 0)
(0.142723 6.18138e-05 0)
(0.14171 5.34512e-05 0)
(0.140842 4.421e-05 0)
(0.140079 3.38001e-05 0)
(0.139525 2.13733e-05 0)
(0.139032 8.20121e-06 0)
(0.138917 -1.03853e-05 0)
(0.138697 -2.64066e-05 0)
(0.139284 -6.15638e-05 0)
(0.139301 -7.02872e-05 0)
(0.141036 -0.000184657 0)
(0.141851 8.81865e-05 0)
(0.140873 -0.00331693 0)
(0.991208 0.0499543 0)
(0.890942 0.0305595 0)
(0.762554 0.0146059 0)
(0.656658 0.00796551 0)
(0.58562 0.00487406 0)
(0.536318 0.00346884 0)
(0.498494 0.0027326 0)
(0.467931 0.00223839 0)
(0.442682 0.00187482 0)
(0.421437 0.00160345 0)
(0.403245 0.00139636 0)
(0.387438 0.0012335 0)
(0.373539 0.00110209 0)
(0.3612 0.000994041 0)
(0.350152 0.000903838 0)
(0.340191 0.00082756 0)
(0.331153 0.000762316 0)
(0.322907 0.000705935 0)
(0.315347 0.000656756 0)
(0.308387 0.000613489 0)
(0.301955 0.000575119 0)
(0.295991 0.00054083 0)
(0.290444 0.000509962 0)
(0.285272 0.00048197 0)
(0.280439 0.000456401 0)
(0.275914 0.000432869 0)
(0.27167 0.000411037 0)
(0.267685 0.000390616 0)
(0.26394 0.000371333 0)
(0.260419 0.000352954 0)
(0.257107 0.000335221 0)
(0.253993 0.000317943 0)
(0.251069 0.000300817 0)
(0.248328 0.000283707 0)
(0.245764 0.000266167 0)
(0.243376 0.000248184 0)
(0.24116 0.000228978 0)
(0.239128 0.000208827 0)
(0.237265 0.000186275 0)
(0.235618 0.000162142 0)
(0.234126 0.000133869 0)
(0.23294 0.00010283 0)
(0.231842 6.5659e-05 0)
(0.231286 2.20603e-05 0)
(0.23058 -2.70285e-05 0)
(0.231013 -0.000104031 0)
(0.230651 -0.000152319 0)
(0.232671 -0.000392808 0)
(0.233152 -9.54276e-05 0)
(0.235029 -0.00369234 0)
(1.01554 0.048952 0)
(1.0065 0.0357193 0)
(0.935936 0.0208115 0)
(0.852124 0.0134891 0)
(0.782424 0.00918795 0)
(0.727357 0.00677297 0)
(0.682351 0.00537664 0)
(0.644673 0.00443547 0)
(0.612739 0.00374106 0)
(0.585353 0.00321561 0)
(0.561575 0.00281002 0)
(0.540697 0.00248891 0)
(0.522187 0.00222875 0)
(0.505643 0.0020141 0)
(0.49075 0.00183441 0)
(0.477257 0.0016821 0)
(0.464964 0.00155159 0)
(0.45371 0.00143864 0)
(0.443359 0.00134001 0)
(0.433803 0.00125318 0)
(0.424948 0.00117615 0)
(0.416717 0.00110731 0)
(0.409045 0.00104536 0)
(0.401875 0.000989227 0)
(0.39516 0.000938012 0)
(0.38886 0.000890956 0)
(0.382937 0.000847403 0)
(0.377363 0.00080678 0)
(0.372111 0.000768563 0)
(0.367159 0.000732293 0)
(0.362488 0.00069749 0)
(0.358081 0.00066377 0)
(0.353927 0.000630591 0)
(0.350013 0.000597671 0)
(0.346333 0.000564213 0)
(0.342883 0.000530181 0)
(0.339656 0.000494122 0)
(0.336664 0.000456664 0)
(0.333888 0.000414828 0)
(0.331381 0.000370879 0)
(0.329072 0.000318531 0)
(0.327133 0.000263547 0)
(0.32531 0.000193465 0)
(0.324128 0.000118857 0)
(0.32279 2.28388e-05 0)
(0.322759 -9.95e-05 0)
(0.321865 -0.000211422 0)
(0.323655 -0.000568243 0)
(0.323535 -0.000375187 0)
(0.326705 -0.0037459 0)
(1.01435 0.0460962 0)
(1.04799 0.0373351 0)
(1.0246 0.0241763 0)
(0.974766 0.0175441 0)
(0.92364 0.013094 0)
(0.876995 0.0101894 0)
(0.834924 0.00832886 0)
(0.797273 0.00700594 0)
(0.763813 0.00599526 0)
(0.734099 0.00520818 0)
(0.707614 0.0045871 0)
(0.683885 0.00408759 0)
(0.662512 0.00367818 0)
(0.643161 0.00333732 0)
(0.625556 0.00304986 0)
(0.609464 0.00280475 0)
(0.594693 0.00259366 0)
(0.581081 0.00241022 0)
(0.568492 0.00224951 0)
(0.55681 0.00210763 0)
(0.545938 0.00198147 0)
(0.535792 0.00186854 0)
(0.526299 0.00176679 0)
(0.517398 0.00167451 0)
(0.509034 0.00159029 0)
(0.501162 0.00151293 0)
(0.493741 0.00144138 0)
(0.486736 0.00137472 0)
(0.480117 0.00131214 0)
(0.473857 0.0012529 0)
(0.467934 0.00119626 0)
(0.462328 0.00114159 0)
(0.457023 0.00108808 0)
(0.452006 0.00103526 0)
(0.447267 0.000981934 0)
(0.442801 0.000928026 0)
(0.438597 0.000871323 0)
(0.434668 0.000812841 0)
(0.430992 0.00074785 0)
(0.427622 0.00068032 0)
(0.424486 0.000599596 0)
(0.421756 0.000516686 0)
(0.419178 0.00040848 0)
(0.417277 0.00029872 0)
(0.415263 0.000147151 0)
(0.414577 -2.47367e-05 0)
(0.413117 -0.000212481 0)
(0.414295 -0.000676196 0)
(0.413688 -0.000654205 0)
(0.416601 -0.00376409 0)
(1.00941 0.0430456 0)
(1.05564 0.0370897 0)
(1.05869 0.0253157 0)
(1.03636 0.0197456 0)
(1.00725 0.0157774 0)
(0.976307 0.0129115 0)
(0.944867 0.0109389 0)
(0.914098 0.00945502 0)
(0.884849 0.00826361 0)
(0.8575 0.00729633 0)
(0.832123 0.00650758 0)
(0.808654 0.00585693 0)
(0.786968 0.0053129 0)
(0.76692 0.00485269 0)
(0.748364 0.00445949 0)
(0.731156 0.00412056 0)
(0.715165 0.00382602 0)
(0.700273 0.00356813 0)
(0.686373 0.00334074 0)
(0.673372 0.00313889 0)
(0.661186 0.00295858 0)
(0.64974 0.00279655 0)
(0.638971 0.00265008 0)
(0.62882 0.00251691 0)
(0.619238 0.00239511 0)
(0.610178 0.00228305 0)
(0.601603 0.00217931 0)
(0.593476 0.00208263 0)
(0.585768 0.00199187 0)
(0.578451 0.00190603 0)
(0.571503 0.00182408 0)
(0.564903 0.00174515 0)
(0.558635 0.00166814 0)
(0.552684 0.00159237 0)
(0.547038 0.00151625 0)
(0.541692 0.00143961 0)
(0.536636 0.00135948 0)
(0.531877 0.00127722 0)
(0.527399 0.00118637 0)
(0.523247 0.00109248 0)
(0.519356 0.000980672 0)
(0.515885 0.000866753 0)
(0.512604 0.000717824 0)
(0.509988 0.00056869 0)
(0.507339 0.000360586 0)
(0.505931 0.000130468 0)
(0.503953 -0.000134719 0)
(0.504313 -0.000706216 0)
(0.503361 -0.000862215 0)
(0.505368 -0.00373806 0)
(1.00635 0.0401775 0)
(1.05242 0.0361424 0)
(1.06607 0.0252379 0)
(1.05958 0.0205481 0)
(1.04698 0.0172006 0)
(1.03099 0.0146247 0)
(1.01217 0.0127917 0)
(0.991571 0.0113644 0)
(0.970261 0.0101661 0)
(0.948962 0.00915059 0)
(0.928114 0.00829161 0)
(0.907976 0.00756088 0)
(0.888691 0.00693389 0)
(0.870325 0.00639178 0)
(0.852897 0.00591999 0)
(0.836391 0.0055069 0)
(0.820773 0.00514309 0)
(0.806 0.00482089 0)
(0.792024 0.00453397 0)
(0.778795 0.00427711 0)
(0.766265 0.00404597 0)
(0.754386 0.00383691 0)
(0.743115 0.00364689 0)
(0.732412 0.00347327 0)
(0.722238 0.00331384 0)
(0.712558 0.00316663 0)
(0.703343 0.00302996 0)
(0.694563 0.0029023 0)
(0.686193 0.00278225 0)
(0.67821 0.00266858 0)
(0.670595 0.00256 0)
(0.663329 0.00245545 0)
(0.656398 0.00235352 0)
(0.64979 0.00225337 0)
(0.643493 0.00215301 0)
(0.637502 0.00205216 0)
(0.63181 0.00194718 0)
(0.626422 0.00183963 0)
(0.621325 0.00172154 0)
(0.616557 0.00159962 0)
(0.612066 0.00145553 0)
(0.607987 0.00130848 0)
(0.604133 0.00111826 0)
(0.6009 0.000926342 0)
(0.597724 0.000662931 0)
(0.595642 0.000367895 0)
(0.593235 2.66285e-05 0)
(0.592764 -0.000652414 0)
(0.591515 -0.000981698 0)
(0.592548 -0.00364039 0)
(1.00506 0.0375001 0)
(1.04763 0.0350437 0)
(1.06397 0.0246896 0)
(1.06422 0.0205776 0)
(1.06076 0.0177362 0)
(1.05491 0.0154618 0)
(1.04621 0.0138431 0)
(1.03509 0.01258 0)
(1.02227 0.0114918 0)
(1.00834 0.0105389 0)
(0.993752 0.00970728 0)
(0.978866 0.00897916 0)
(0.96394 0.00833765 0)
(0.949164 0.00776958 0)
(0.934672 0.00726456 0)
(0.920555 0.00681397 0)
(0.906868 0.00641051 0)
(0.893644 0.00604792 0)
(0.8809 0.00572085 0)
(0.868639 0.00542469 0)
(0.856856 0.00515549 0)
(0.845542 0.00490983 0)
(0.834681 0.00468474 0)
(0.824259 0.00447764 0)
(0.814258 0.00428625 0)
(0.804662 0.00410856 0)
(0.795453 0.00394277 0)
(0.786615 0.00378723 0)
(0.778133 0.00364044 0)
(0.769992 0.00350098 0)
(0.76218 0.00336744 0)
(0.754685 0.00323857 0)
(0.747497 0.00311279 0)
(0.740607 0.00298906 0)
(0.73401 0.00286509 0)
(0.727701 0.00274048 0)
(0.721677 0.00261101 0)
(0.715943 0.0024783 0)
(0.710491 0.00233323 0)
(0.705353 0.0021831 0)
(0.700492 0.00200716 0)
(0.696016 0.00182621 0)
(0.691785 0.00159593 0)
(0.688112 0.00135927 0)
(0.684574 0.00104345 0)
(0.681964 0.00068088 0)
(0.679248 0.000265224 0)
(0.678074 -0.000515603 0)
(0.676555 -0.00101247 0)
(0.676747 -0.00347096 0)
(1.00451 0.0349641 0)
(1.0436 0.0339633 0)
(1.05995 0.0240379 0)
(1.06226 0.0202869 0)
(1.06258 0.017799 0)
(1.06195 0.0157382 0)
(1.05943 0.0142924 0)
(1.05494 0.0131941 0)
(1.0488 0.0122473 0)
(1.04131 0.0114056 0)
(1.03276 0.0106579 0)
(1.0234 0.00999038 0)
(1.01345 0.00938999 0)
(1.00311 0.00884724 0)
(0.992539 0.00835506 0)
(0.981865 0.00790767 0)
(0.971191 0.0075001 0)
(0.960594 0.00712798 0)
(0.950133 0.00678742 0)
(0.939854 0.00647497 0)
(0.929788 0.00618756 0)
(0.919958 0.00592241 0)
(0.910378 0.00567706 0)
(0.901058 0.00544928 0)
(0.892002 0.00523706 0)
(0.883214 0.00503854 0)
(0.874693 0.00485204 0)
(0.866437 0.00467598 0)
(0.858443 0.00450887 0)
(0.850708 0.00434928 0)
(0.843229 0.00419574 0)
(0.836002 0.00404695 0)
(0.829024 0.00390119 0)
(0.822294 0.0037573 0)
(0.81581 0.0036128 0)
(0.809572 0.00346713 0)
(0.803583 0.00331568 0)
(0.797848 0.00315997 0)
(0.792366 0.0029901 0)
(0.787164 0.00281342 0)
(0.78222 0.00260786 0)
(0.777618 0.00239405 0)
(0.773261 0.00212662 0)
(0.769387 0.00184534 0)
(0.765697 0.00148144 0)
(0.762773 0.0010516 0)
(0.759904 0.000565521 0)
(0.758233 -0.000306989 0)
(0.75651 -0.000962238 0)
(0.756049 -0.00324281 0)
(1.00412 0.0325333 0)
(1.04027 0.0329094 0)
(1.05619 0.0234025 0)
(1.0589 0.0199012 0)
(1.06031 0.0176682 0)
(1.06172 0.0157384 0)
(1.06213 0.0143932 0)
(1.06128 0.0134094 0)
(1.05929 0.0125776 0)
(1.05624 0.0118409 0)
(1.05223 0.0111855 0)
(1.04737 0.0105973 0)
(1.04179 0.0100634 0)
(1.03561 0.00957481 0)
(1.02894 0.00912565 0)
(1.02189 0.00871149 0)
(1.01457 0.00832874 0)
(1.00704 0.00797433 0)
(0.99939 0.00764556 0)
(0.991667 0.00734003 0)
(0.983923 0.00705554 0)
(0.976198 0.0067901 0)
(0.968524 0.00654184 0)
(0.960928 0.00630905 0)
(0.953431 0.00609011 0)
(0.94605 0.00588351 0)
(0.938798 0.0056878 0)
(0.931686 0.00550161 0)
(0.924723 0.00532357 0)
(0.917916 0.00515235 0)
(0.91127 0.00498654 0)
(0.904791 0.00482483 0)
(0.898483 0.00466548 0)
(0.892351 0.00450727 0)
(0.8864 0.0043476 0)
(0.880635 0.00418578 0)
(0.875062 0.00401695 0)
(0.869691 0.00384242 0)
(0.864526 0.00365188 0)
(0.859591 0.00345223 0)
(0.854876 0.00322109 0)
(0.850447 0.00297743 0)
(0.846243 0.00267738 0)
(0.842439 0.00235407 0)
(0.838837 0.00194739 0)
(0.835849 0.0014543 0)
(0.833012 0.000902634 0)
(0.831086 -4.94831e-05 0)
(0.829273 -0.000847986 0)
(0.828373 -0.00297433 0)
(1.00374 0.0301988 0)
(1.03728 0.0318597 0)
(1.05285 0.0227983 0)
(1.05567 0.0194978 0)
(1.05721 0.0174761 0)
(1.05918 0.0156345 0)
(1.06065 0.0143363 0)
(1.06139 0.0134152 0)
(1.06145 0.0126562 0)
(1.06086 0.0119929 0)
(1.05963 0.011409 0)
(1.05776 0.0108892 0)
(1.05529 0.0104189 0)
(1.05226 0.00998827 0)
(1.04874 0.00959076 0)
(1.04478 0.00922188 0)
(1.04045 0.00887825 0)
(1.0358 0.00855717 0)
(1.03088 0.00825643 0)
(1.02575 0.00797415 0)
(1.02045 0.00770867 0)
(1.01502 0.00745848 0)
(1.0095 0.00722221 0)
(1.00392 0.00699854 0)
(0.998296 0.00678622 0)
(0.992663 0.00658406 0)
(0.987037 0.00639088 0)
(0.981437 0.00620551 0)
(0.975877 0.00602677 0)
(0.970373 0.00585347 0)
(0.964935 0.00568427 0)
(0.959575 0.00551794 0)
(0.954303 0.00535274 0)
(0.949129 0.00518747 0)
(0.944063 0.00501943 0)
(0.939114 0.00484785 0)
(0.934292 0.0046677 0)
(0.92961 0.00448005 0)
(0.925077 0.00427444 0)
(0.920714 0.00405697 0)
(0.916521 0.00380575 0)
(0.912552 0.00353701 0)
(0.908769 0.00321019 0)
(0.905301 0.00284969 0)
(0.902027 0.00240653 0)
(0.899225 0.00185751 0)
(0.896615 0.00124591 0)
(0.894676 0.000232239 0)
(0.892921 -0.000691725 0)
(0.891799 -0.00268725 0)
(1.00337 0.0279631 0)
(1.03444 0.030802 0)
(1.04974 0.0222189 0)
(1.0527 0.0190916 0)
(1.05421 0.0172655 0)
(1.05623 0.0155014 0)
(1.05798 0.0142247 0)
(1.05924 0.0133339 0)
(1.06011 0.0126149 0)
(1.06063 0.0119941 0)
(1.06078 0.0114545 0)
(1.06054 0.0109806 0)
(1.05991 0.0105568 0)
(1.05888 0.0101719 0)
(1.05748 0.00981849 0)
(1.05571 0.00949137 0)
(1.05361 0.00918666 0)
(1.0512 0.00890142 0)
(1.04851 0.00863332 0)
(1.04558 0.00838049 0)
(1.04242 0.00814137 0)
(1.03908 0.00791461 0)
(1.03557 0.00769899 0)
(1.03192 0.0074934 0)
(1.02816 0.00729678 0)
(1.02431 0.00710811 0)
(1.02038 0.00692638 0)
(1.0164 0.00675059 0)
(1.01238 0.00657965 0)
(1.00833 0.0064125 0)
(1.00428 0.00624788 0)
(1.00023 0.0060846 0)
(0.996195 0.00592095 0)
(0.992191 0.0057557 0)
(0.988229 0.00558613 0)
(0.984321 0.00541137 0)
(0.980477 0.00522631 0)
(0.976713 0.0050317 0)
(0.973039 0.00481716 0)
(0.969478 0.00458774 0)
(0.966032 0.00432264 0)
(0.962745 0.0040346 0)
(0.959599 0.00368761 0)
(0.956686 0.00329635 0)
(0.953939 0.0028237 0)
(0.951538 0.00222837 0)
(0.949329 0.00156411 0)
(0.947592 0.000508708 0)
(0.946041 -0.000519976 0)
(0.944901 -0.0024056 0)
(1.00301 0.0258296 0)
(1.03172 0.0297321 0)
(1.04675 0.0216606 0)
(1.04991 0.0186825 0)
(1.0514 0.017043 0)
(1.05338 0.0153612 0)
(1.05516 0.0140994 0)
(1.05653 0.0132242 0)
(1.05763 0.0125277 0)
(1.05854 0.0119301 0)
(1.05925 0.0114145 0)
(1.05975 0.0109665 0)
(1.06002 0.0105707 0)
(1.06005 0.0102153 0)
(1.05984 0.00989211 0)
(1.0594 0.0095954 0)
(1.05871 0.00932079 0)
(1.05779 0.0090649 0)
(1.05665 0.00882508 0)
(1.0553 0.00859921 0)
(1.05375 0.00838557 0)
(1.05202 0.00818271 0)
(1.05013 0.00798935 0)
(1.04808 0.00780437 0)
(1.0459 0.00762673 0)
(1.04359 0.00745543 0)
(1.04118 0.00728949 0)
(1.03868 0.00712794 0)
(1.03609 0.00696975 0)
(1.03344 0.00681387 0)
(1.03073 0.00665906 0)
(1.02798 0.00650415 0)
(1.0252 0.00634739 0)
(1.02241 0.00618756 0)
(1.0196 0.00602184 0)
(1.0168 0.00584927 0)
(1.01402 0.00566472 0)
(1.01127 0.00546852 0)
(1.00856 0.0052506 0)
(1.00591 0.00501469 0)
(1.00333 0.00474156 0)
(1.00085 0.00444004 0)
(0.998466 0.0040793 0)
(0.996244 0.00366428 0)
(0.994152 0.00316914 0)
(0.992298 0.00253799 0)
(0.99061 0.00183032 0)
(0.989235 0.000749 0)
(0.988006 -0.000360406 0)
(0.987014 -0.00215257 0)
(1.00268 0.023801 0)
(1.02912 0.0286484 0)
(1.04384 0.0211231 0)
(1.04722 0.0182702 0)
(1.04871 0.016807 0)
(1.05065 0.0152166 0)
(1.05243 0.0139712 0)
(1.05381 0.013107 0)
(1.05495 0.0124264 0)
(1.05595 0.0118433 0)
(1.05683 0.0113407 0)
(1.05759 0.0109065 0)
(1.05822 0.0105258 0)
(1.05872 0.0101868 0)
(1.05908 0.0098813 0)
(1.0593 0.0096032 0)
(1.05938 0.00934793 0)
(1.05931 0.00911182 0)
(1.05909 0.00889196 0)
(1.05873 0.00868601 0)
(1.05822 0.00849205 0)
(1.05758 0.00830844 0)
(1.0568 0.00813379 0)
(1.0559 0.00796685 0)
(1.05488 0.0078065 0)
(1.05375 0.00765166 0)
(1.05251 0.0075013 0)
(1.05119 0.00735441 0)
(1.04977 0.00720989 0)
(1.04828 0.00706668 0)
(1.04671 0.00692348 0)
(1.04509 0.00677907 0)
(1.04342 0.00663167 0)
(1.0417 0.00647995 0)
(1.03995 0.00632106 0)
(1.03818 0.00615386 0)
(1.0364 0.00597323 0)
(1.03462 0.00577905 0)
(1.03284 0.00556165 0)
(1.03109 0.00532334 0)
(1.02938 0.00504672 0)
(1.02772 0.00473658 0)
(1.02612 0.00436738 0)
(1.02463 0.00393512 0)
(1.02323 0.0034236 0)
(1.02198 0.00276692 0)
(1.02086 0.00202488 0)
(1.01993 0.000932239 0)
(1.01909 -0.000234033 0)
(1.01836 -0.00194602 0)
(1.00238 0.0218789 0)
(1.02665 0.02755 0)
(1.04101 0.020606 0)
(1.04461 0.0178564 0)
(1.04612 0.0165563 0)
(1.04803 0.0150659 0)
(1.04981 0.0138415 0)
(1.05118 0.0129873 0)
(1.05231 0.012321 0)
(1.05332 0.0117497 0)
(1.05423 0.0112561 0)
(1.05505 0.0108299 0)
(1.0558 0.0104576 0)
(1.05646 0.0101274 0)
(1.05704 0.00983136 0)
(1.05755 0.00956343 0)
(1.05797 0.00931899 0)
(1.05831 0.00909433 0)
(1.05856 0.00888645 0)
(1.05873 0.0086929 0)
(1.0588 0.00851164 0)
(1.05879 0.00834093 0)
(1.05869 0.00817927 0)
(1.0585 0.00802531 0)
(1.05823 0.00787782 0)
(1.05788 0.00773565 0)
(1.05745 0.00759767 0)
(1.05694 0.00746278 0)
(1.05637 0.00732983 0)
(1.05572 0.00719767 0)
(1.05502 0.00706493 0)
(1.05426 0.00693031 0)
(1.05344 0.00679193 0)
(1.05258 0.00664839 0)
(1.05169 0.00649676 0)
(1.05076 0.00633569 0)
(1.04981 0.00616012 0)
(1.04885 0.00596939 0)
(1.04788 0.00575437 0)
(1.04691 0.00551586 0)
(1.04596 0.0052384 0)
(1.04504 0.0049229 0)
(1.04416 0.0045488 0)
(1.04333 0.0041045 0)
(1.04258 0.00358123 0)
(1.04191 0.00290779 0)
(1.04134 0.00213975 0)
(1.04086 0.00104737 0)
(1.04042 -0.000154098 0)
(1.03998 -0.00179653 0)
(1.0021 0.0200643 0)
(1.02431 0.026439 0)
(1.03828 0.0201071 0)
(1.04209 0.0174429 0)
(1.04361 0.0162908 0)
(1.0455 0.014908 0)
(1.04728 0.0137095 0)
(1.04865 0.0128655 0)
(1.04977 0.0122133 0)
(1.05076 0.0116538 0)
(1.05166 0.0111682 0)
(1.05249 0.0107482 0)
(1.05325 0.0103815 0)
(1.05396 0.0100568 0)
(1.05461 0.00976606 0)
(1.05521 0.00950361 0)
(1.05576 0.0092649 0)
(1.05626 0.00904627 0)
(1.05671 0.00884476 0)
(1.05712 0.00865792 0)
(1.05747 0.00848369 0)
(1.05778 0.00832033 0)
(1.05803 0.00816629 0)
(1.05823 0.00802016 0)
(1.05839 0.00788067 0)
(1.05849 0.00774659 0)
(1.05854 0.00761676 0)
(1.05854 0.00748999 0)
(1.05849 0.00736507 0)
(1.0584 0.00724077 0)
(1.05826 0.00711564 0)
(1.05808 0.00698831 0)
(1.05786 0.00685683 0)
(1.05761 0.00671966 0)
(1.05732 0.00657382 0)
(1.05701 0.00641776 0)
(1.05668 0.00624649 0)
(1.05634 0.00605879 0)
(1.05598 0.00584614 0)
(1.05563 0.00560783 0)
(1.05528 0.00533035 0)
(1.05494 0.00501106 0)
(1.05464 0.00463375 0)
(1.05436 0.00418091 0)
(1.05414 0.00364888 0)
(1.05397 0.00296523 0)
(1.05385 0.00217834 0)
(1.05377 0.00109419 0)
(1.05369 -0.00012437 0)
(1.05354 -0.00170589 0)
(1.00185 0.0183575 0)
(1.02211 0.0253193 0)
(1.03565 0.0196226 0)
(1.03965 0.0170316 0)
(1.0412 0.0160112 0)
(1.04306 0.0147419 0)
(1.04483 0.0135749 0)
(1.04621 0.0127413 0)
(1.04732 0.0121033 0)
(1.04829 0.0115562 0)
(1.04918 0.0110787 0)
(1.05 0.0106647 0)
(1.05075 0.0103028 0)
(1.05146 0.00998239 0)
(1.05211 0.00969549 0)
(1.05273 0.00943652 0)
(1.05332 0.0092011 0)
(1.05387 0.00898571 0)
(1.05439 0.00878744 0)
(1.05489 0.00860392 0)
(1.05535 0.00843314 0)
(1.05579 0.00827339 0)
(1.05621 0.00812312 0)
(1.05659 0.00798094 0)
(1.05695 0.00784556 0)
(1.05728 0.00771575 0)
(1.05758 0.00759029 0)
(1.05785 0.00746798 0)
(1.0581 0.00734756 0)
(1.05832 0.00722776 0)
(1.05851 0.00710705 0)
(1.05868 0.00698401 0)
(1.05883 0.00685662 0)
(1.05895 0.00672324 0)
(1.05906 0.00658086 0)
(1.05915 0.00642769 0)
(1.05923 0.0062589 0)
(1.0593 0.00607268 0)
(1.05937 0.00586118 0)
(1.05943 0.00562223 0)
(1.05951 0.00534416 0)
(1.0596 0.00502133 0)
(1.05971 0.00464101 0)
(1.05984 0.00418161 0)
(1.06001 0.00364229 0)
(1.0602 0.00295289 0)
(1.06043 0.00215263 0)
(1.06066 0.00108149 0)
(1.06085 -0.000140431 0)
(1.06094 -0.0016683 0)
(1.00162 0.0167582 0)
(1.02005 0.0241952 0)
(1.03312 0.0191484 0)
(1.0373 0.016624 0)
(1.03888 0.0157186 0)
(1.0407 0.014567 0)
(1.04247 0.0134373 0)
(1.04385 0.0126146 0)
(1.04496 0.0119908 0)
(1.04592 0.0114568 0)
(1.0468 0.010988 0)
(1.0476 0.0105799 0)
(1.04834 0.010223 0)
(1.04903 0.00990662 0)
(1.04968 0.00962309 0)
(1.0503 0.00936694 0)
(1.05088 0.00913392 0)
(1.05144 0.0089206 0)
(1.05198 0.00872418 0)
(1.05249 0.00854235 0)
(1.05299 0.00837318 0)
(1.05348 0.00821498 0)
(1.05395 0.00806626 0)
(1.0544 0.00792567 0)
(1.05484 0.00779193 0)
(1.05527 0.0076638 0)
(1.05568 0.00754008 0)
(1.05608 0.00741956 0)
(1.05647 0.00730095 0)
(1.05684 0.00718295 0)
(1.05721 0.00706401 0)
(1.05756 0.00694266 0)
(1.0579 0.00681682 0)
(1.05824 0.00668478 0)
(1.05857 0.00654351 0)
(1.05889 0.00639103 0)
(1.05921 0.00622265 0)
(1.05953 0.00603605 0)
(1.05985 0.005824 0)
(1.06018 0.00558306 0)
(1.06052 0.00530316 0)
(1.06088 0.00497627 0)
(1.06125 0.00459229 0)
(1.06165 0.00412718 0)
(1.06207 0.0035811 0)
(1.06251 0.00288858 0)
(1.06297 0.00207907 0)
(1.06341 0.00102325 0)
(1.06379 -0.000192717 0)
(1.06404 -0.00167293 0)
(1.00142 0.0152656 0)
(1.01812 0.0230708 0)
(1.03069 0.0186806 0)
(1.03504 0.0162216 0)
(1.03666 0.0154143 0)
(1.03844 0.0143827 0)
(1.0402 0.0132964 0)
(1.04159 0.0124854 0)
(1.04268 0.0118756 0)
(1.04364 0.0113552 0)
(1.0445 0.0108957 0)
(1.04529 0.010494 0)
(1.04602 0.0101421 0)
(1.0467 0.00982989 0)
(1.04734 0.00954974 0)
(1.04794 0.0092963 0)
(1.04852 0.00906544 0)
(1.04907 0.00885384 0)
(1.0496 0.00865878 0)
(1.05012 0.008478 0)
(1.05062 0.00830964 0)
(1.05111 0.00815208 0)
(1.05159 0.00800386 0)
(1.05206 0.00786367 0)
(1.05253 0.00773024 0)
(1.05299 0.00760238 0)
(1.05344 0.00747887 0)
(1.05389 0.00735852 0)
(1.05434 0.00724002 0)
(1.05478 0.00712207 0)
(1.05521 0.00700311 0)
(1.05565 0.0068816 0)
(1.05608 0.00675548 0)
(1.05652 0.00662293 0)
(1.05695 0.00648096 0)
(1.05739 0.00632737 0)
(1.05783 0.00615769 0)
(1.05828 0.00596908 0)
(1.05874 0.0057549 0)
(1.05922 0.00551068 0)
(1.0597 0.00522762 0)
(1.06021 0.00489597 0)
(1.06073 0.0045074 0)
(1.06128 0.00403686 0)
(1.06185 0.00348415 0)
(1.06243 0.00278991 0)
(1.06302 0.0019743 0)
(1.06358 0.000934404 0)
(1.06406 -0.000269779 0)
(1.06441 -0.001707 0)
(1.00124 0.0138783 0)
(1.01633 0.02195 0)
(1.02838 0.0182154 0)
(1.03286 0.0158256 0)
(1.03453 0.0150998 0)
(1.03627 0.0141884 0)
(1.03802 0.0131518 0)
(1.03941 0.0123539 0)
(1.0405 0.0117578 0)
(1.04144 0.0112514 0)
(1.0423 0.0108018 0)
(1.04308 0.0104068 0)
(1.0438 0.0100601 0)
(1.04447 0.00975221 0)
(1.04509 0.00947555 0)
(1.04568 0.00922487 0)
(1.04625 0.00899619 0)
(1.04679 0.00878625 0)
(1.04731 0.00859242 0)
(1.04782 0.00841251 0)
(1.04831 0.00824471 0)
(1.0488 0.00808744 0)
(1.04928 0.0079393 0)
(1.04975 0.007799 0)
(1.05021 0.0076653 0)
(1.05068 0.00753703 0)
(1.05114 0.00741298 0)
(1.0516 0.00729198 0)
(1.05206 0.0071727 0)
(1.05252 0.00705384 0)
(1.05298 0.00693382 0)
(1.05344 0.00681109 0)
(1.05391 0.00668356 0)
(1.05438 0.00654934 0)
(1.05486 0.00640549 0)
(1.05535 0.00624962 0)
(1.05585 0.00607743 0)
(1.05635 0.00588568 0)
(1.05688 0.00566823 0)
(1.05741 0.00541976 0)
(1.05797 0.00513251 0)
(1.05854 0.00479555 0)
(1.05914 0.00440161 0)
(1.05976 0.00392576 0)
(1.0604 0.00336652 0)
(1.06104 0.00267137 0)
(1.06169 0.00185214 0)
(1.0623 0.000827924 0)
(1.06283 -0.000360681 0)
(1.06322 -0.00175872 0)
(1.00107 0.0125943 0)
(1.01467 0.0208369 0)
(1.02617 0.0177494 0)
(1.03078 0.015437 0)
(1.03249 0.0147772 0)
(1.03419 0.0139836 0)
(1.03593 0.013003 0)
(1.03732 0.0122199 0)
(1.03841 0.0116371 0)
(1.03934 0.0111452 0)
(1.04019 0.0107061 0)
(1.04096 0.0103182 0)
(1.04167 0.00997695 0)
(1.04232 0.00967349 0)
(1.04294 0.00940046 0)
(1.04352 0.00915266 0)
(1.04407 0.00892621 0)
(1.0446 0.00871798 0)
(1.04512 0.00852538 0)
(1.04561 0.00834632 0)
(1.0461 0.00817901 0)
(1.04657 0.00802194 0)
(1.04704 0.00787374 0)
(1.04751 0.00773315 0)
(1.04797 0.00759897 0)
(1.04842 0.00747002 0)
(1.04888 0.00734513 0)
(1.04934 0.0072231 0)
(1.0498 0.00710263 0)
(1.05026 0.0069824 0)
(1.05072 0.00686083 0)
(1.05119 0.00673632 0)
(1.05166 0.00660681 0)
(1.05215 0.00647031 0)
(1.05264 0.00632393 0)
(1.05314 0.00616511 0)
(1.05365 0.00598974 0)
(1.05417 0.00579418 0)
(1.05472 0.00557276 0)
(1.05527 0.00531952 0)
(1.05585 0.00502741 0)
(1.05645 0.00468487 0)
(1.05707 0.00428512 0)
(1.05771 0.00380413 0)
(1.05837 0.00323873 0)
(1.05903 0.00254319 0)
(1.05969 0.00172249 0)
(1.0603 0.000713447 0)
(1.06084 -0.000457075 0)
(1.06124 -0.001819 0)
(1.00093 0.0114109 0)
(1.01314 0.0197357 0)
(1.02407 0.0172795 0)
(1.02877 0.0150562 0)
(1.03055 0.0144482 0)
(1.03221 0.0137681 0)
(1.03392 0.0128494 0)
(1.03532 0.0120836 0)
(1.03641 0.0115138 0)
(1.03733 0.0110365 0)
(1.03817 0.0106086 0)
(1.03893 0.0102282 0)
(1.03963 0.00989249 0)
(1.04028 0.00959366 0)
(1.04088 0.0093244 0)
(1.04145 0.00907958 0)
(1.042 0.00885546 0)
(1.04252 0.00864899 0)
(1.04302 0.00845768 0)
(1.0435 0.00827947 0)
(1.04398 0.00811267 0)
(1.04445 0.00795579 0)
(1.0449 0.0078075 0)
(1.04536 0.00766658 0)
(1.04581 0.00753183 0)
(1.04626 0.00740212 0)
(1.04671 0.00727626 0)
(1.04716 0.00715307 0)
(1.04761 0.00703126 0)
(1.04806 0.00690947 0)
(1.04852 0.00678613 0)
(1.04899 0.00665961 0)
(1.04946 0.00652785 0)
(1.04993 0.00638878 0)
(1.05042 0.00623957 0)
(1.05092 0.00607749 0)
(1.05143 0.00589859 0)
(1.05195 0.00569894 0)
(1.0525 0.00547321 0)
(1.05305 0.00521499 0)
(1.05363 0.00491771 0)
(1.05423 0.0045696 0)
(1.05485 0.00416392 0)
(1.05549 0.00367811 0)
(1.05614 0.00310717 0)
(1.05679 0.00241172 0)
(1.05743 0.00159156 0)
(1.05803 0.000597237 0)
(1.05855 -0.00055352 0)
(1.05893 -0.00188152 0)
(1.0008 0.0103249 0)
(1.01174 0.0186503 0)
(1.02209 0.016803 0)
(1.02686 0.0146836 0)
(1.0287 0.014115 0)
(1.03032 0.0135419 0)
(1.03201 0.0126904 0)
(1.03341 0.0119448 0)
(1.0345 0.0113877 0)
(1.03541 0.0109251 0)
(1.03624 0.010509 0)
(1.03699 0.0101365 0)
(1.03768 0.00980667 0)
(1.03832 0.00951263 0)
(1.03892 0.00924728 0)
(1.03948 0.00900557 0)
(1.04001 0.00878386 0)
(1.04052 0.00857922 0)
(1.04102 0.00838924 0)
(1.04149 0.00821194 0)
(1.04196 0.00804566 0)
(1.04242 0.00788898 0)
(1.04287 0.00774061 0)
(1.04331 0.00759934 0)
(1.04375 0.00746401 0)
(1.04419 0.0073335 0)
(1.04463 0.00720665 0)
(1.04507 0.00708225 0)
(1.04552 0.00695903 0)
(1.04596 0.00683562 0)
(1.04641 0.00671043 0)
(1.04687 0.00658181 0)
(1.04733 0.00644769 0)
(1.0478 0.00630595 0)
(1.04828 0.00615379 0)
(1.04877 0.00598834 0)
(1.04927 0.00580578 0)
(1.04979 0.00560197 0)
(1.05032 0.00537179 0)
(1.05087 0.0051086 0)
(1.05144 0.00480609 0)
(1.05202 0.00445258 0)
(1.05263 0.00404117 0)
(1.05325 0.00355095 0)
(1.05388 0.00297531 0)
(1.05451 0.00228053 0)
(1.05513 0.00146271 0)
(1.05569 0.000482925 0)
(1.05618 -0.000646915 0)
(1.05654 -0.00194238 0)
(1.00069 0.00933251 0)
(1.01047 0.017585 0)
(1.02022 0.0163175 0)
(1.02503 0.0143191 0)
(1.02694 0.0137795 0)
(1.02852 0.0133051 0)
(1.03018 0.0125254 0)
(1.03158 0.0118034 0)
(1.03267 0.0112589 0)
(1.03358 0.010811 0)
(1.0344 0.0104072 0)
(1.03515 0.0100431 0)
(1.03583 0.00971939 0)
(1.03646 0.00943029 0)
(1.03705 0.009169 0)
(1.0376 0.00893053 0)
(1.03812 0.00871133 0)
(1.03862 0.00850859 0)
(1.03911 0.00832 0)
(1.03958 0.00814364 0)
(1.04003 0.00797792 0)
(1.04048 0.00782146 0)
(1.04092 0.00767301 0)
(1.04136 0.0075314 0)
(1.04179 0.0073955 0)
(1.04223 0.00726419 0)
(1.04266 0.00713632 0)
(1.04309 0.00701071 0)
(1.04352 0.00688605 0)
(1.04396 0.00676099 0)
(1.0444 0.00663393 0)
(1.04485 0.00650318 0)
(1.0453 0.00636668 0)
(1.04576 0.00622223 0)
(1.04623 0.00606708 0)
(1.04671 0.00589826 0)
(1.0472 0.00571202 0)
(1.04771 0.00550406 0)
(1.04823 0.00526945 0)
(1.04877 0.00500141 0)
(1.04932 0.00469377 0)
(1.04989 0.00433516 0)
(1.05048 0.00391837 0)
(1.05108 0.00342425 0)
(1.05168 0.00284488 0)
(1.05228 0.00215143 0)
(1.05287 0.00133762 0)
(1.0534 0.000372436 0)
(1.05385 -0.000735657 0)
(1.05417 -0.00199932 0)
(1.0006 0.00842937 0)
(1.0093 0.0165438 0)
(1.01846 0.0158214 0)
(1.02329 0.0139623 0)
(1.02526 0.0134437 0)
(1.02682 0.0130581 0)
(1.02844 0.0123537 0)
(1.02984 0.0116593 0)
(1.03093 0.0111274 0)
(1.03184 0.010694 0)
(1.03265 0.0103031 0)
(1.03339 0.00994792 0)
(1.03406 0.00963054 0)
(1.03469 0.00934656 0)
(1.03526 0.00908948 0)
(1.03581 0.00885438 0)
(1.03633 0.00863779 0)
(1.03682 0.00843703 0)
(1.03729 0.00824988 0)
(1.03776 0.00807451 0)
(1.0382 0.00790938 0)
(1.03864 0.00775316 0)
(1.03908 0.00760465 0)
(1.03951 0.00746271 0)
(1.03993 0.00732624 0)
(1.04036 0.00719413 0)
(1.04078 0.00706524 0)
(1.0412 0.0069384 0)
(1.04163 0.00681231 0)
(1.04206 0.00668559 0)
(1.04249 0.00655665 0)
(1.04293 0.00642376 0)
(1.04337 0.00628487 0)
(1.04382 0.00613774 0)
(1.04428 0.00597961 0)
(1.04475 0.00580743 0)
(1.04523 0.00561754 0)
(1.04573 0.00540552 0)
(1.04623 0.00516656 0)
(1.04676 0.00489385 0)
(1.04729 0.00458129 0)
(1.04785 0.00421791 0)
(1.04841 0.00379622 0)
(1.04899 0.00329877 0)
(1.04957 0.00271672 0)
(1.05014 0.00202532 0)
(1.05069 0.00121704 0)
(1.05118 0.000266747 0)
(1.0516 -0.000818943 0)
(1.05188 -0.00205107 0)
(1.00051 0.00761071 0)
(1.00826 0.0155305 0)
(1.01681 0.0153133 0)
(1.02162 0.0136128 0)
(1.02368 0.0131092 0)
(1.0252 0.0128017 0)
(1.02679 0.0121749 0)
(1.02818 0.011512 0)
(1.02928 0.0109933 0)
(1.03018 0.010574 0)
(1.03098 0.0101964 0)
(1.03172 0.00985072 0)