/*--------------------------------*- C++ -*----------------------------------*\
  =========                 |
  \\      /  F ield         | OpenFOAM: The Open Source CFD Toolbox
   \\    /   O peration     | Website:  https://openfoam.org
    \\  /    A nd           | Version:  7
     \\/     M anipulation  |
\*---------------------------------------------------------------------------*/
FoamFile
{
    version     2.0;
    format      ascii;
    class       volVectorField;
    location    "0.15";
    object      vorticity;
}
// * * * * * * * * * * * * * * * * * * * * * * * * * * * * * * * * * * * * * //

dimensions      [0 0 -1 0 0 0 0];

internalField   nonuniform List<vector> 
70000
(
(0 -0 -45716.1)
(0 -0 -28618.7)
(0 -0 -20916.1)
(0 -0 -16984.6)
(0 -0 -14965.3)
(0 -0 -13660.3)
(0 -0 -12652.9)
(0 -0 -11842.4)
(0 -0 -11180.6)
(0 -0 -10628.6)
(0 -0 -10158.6)
(0 -0 -9751.73)
(0 -0 -9395.21)
(0 -0 -9079.57)
(0 -0 -8797.71)
(0 -0 -8544.14)
(0 -0 -8314.53)
(0 -0 -8105.45)
(0 -0 -7914.13)
(0 -0 -7738.3)
(0 -0 -7576.09)
(0 -0 -7425.96)
(0 -0 -7286.6)
(0 -0 -7156.92)
(0 -0 -7036)
(0 -0 -6923.06)
(0 -0 -6817.42)
(0 -0 -6718.52)
(0 -0 -6625.89)
(0 -0 -6539.13)
(0 -0 -6457.92)
(0 -0 -6381.98)
(0 -0 -6311.14)
(0 -0 -6245.24)
(0 -0 -6184.21)
(0 -0 -6128.08)
(0 -0 -6076.78)
(0 -0 -6030.73)
(0 -0 -5989.56)
(0 -0 -5954.73)
(0 -0 -5924.52)
(0 -0 -5903.53)
(0 -0 -5885.24)
(0 -0 -5883.6)
(0 -0 -5877.49)
(0 -0 -5906.9)
(0 -0 -5911.34)
(0 -0 -5992)
(0 -0 -6039.41)
(0 -0 -5909.13)
(0 -0 -13549.6)
(0 -0 -19947.4)
(0 -0 -18537.1)
(0 -0 -16251.8)
(0 -0 -14507.3)
(0 -0 -13284.8)
(0 -0 -12358.2)
(0 -0 -11609.8)
(0 -0 -10989)
(0 -0 -10465.4)
(0 -0 -10016.4)
(0 -0 -9625.86)
(0 -0 -9282.22)
(0 -0 -8976.87)
(0 -0 -8703.31)
(0 -0 -8456.47)
(0 -0 -8232.37)
(0 -0 -8027.78)
(0 -0 -7840.12)
(0 -0 -7667.23)
(0 -0 -7507.35)
(0 -0 -7359)
(0 -0 -7220.94)
(0 -0 -7092.12)
(0 -0 -6971.63)
(0 -0 -6858.71)
(0 -0 -6752.7)
(0 -0 -6653.05)
(0 -0 -6559.26)
(0 -0 -6470.92)
(0 -0 -6387.69)
(0 -0 -6309.26)
(0 -0 -6235.42)
(0 -0 -6165.95)
(0 -0 -6100.74)
(0 -0 -6039.7)
(0 -0 -5982.74)
(0 -0 -5930.07)
(0 -0 -5881.35)
(0 -0 -5837.6)
(0 -0 -5797.43)
(0 -0 -5764.22)
(0 -0 -5732.98)
(0 -0 -5714.02)
(0 -0 -5691.55)
(0 -0 -5694.63)
(0 -0 -5680.16)
(0 -0 -5716.93)
(0 -0 -5729.49)
(0 -0 -5859.51)
(0 -0 -3818.72)
(0 -0 -10828.5)
(0 -0 -13363)
(0 -0 -13519.6)
(0 -0 -12867)
(0 -0 -12141.8)
(0 -0 -11501.3)
(0 -0 -10942.2)
(0 -0 -10451.6)
(0 -0 -10020.4)
(0 -0 -9639.6)
(0 -0 -9301.21)
(0 -0 -8998.39)
(0 -0 -8725.65)
(0 -0 -8478.57)
(0 -0 -8253.53)
(0 -0 -8047.57)
(0 -0 -7858.24)
(0 -0 -7683.48)
(0 -0 -7521.6)
(0 -0 -7371.13)
(0 -0 -7230.85)
(0 -0 -7099.72)
(0 -0 -6976.83)
(0 -0 -6861.4)
(0 -0 -6752.77)
(0 -0 -6650.34)
(0 -0 -6553.61)
(0 -0 -6462.14)
(0 -0 -6375.55)
(0 -0 -6293.49)
(0 -0 -6215.68)
(0 -0 -6141.88)
(0 -0 -6071.87)
(0 -0 -6005.48)
(0 -0 -5942.61)
(0 -0 -5883.09)
(0 -0 -5827.02)
(0 -0 -5774.1)
(0 -0 -5724.92)
(0 -0 -5678.53)
(0 -0 -5636.99)
(0 -0 -5597.16)
(0 -0 -5565.21)
(0 -0 -5531.79)
(0 -0 -5513.37)
(0 -0 -5486.64)
(0 -0 -5487.3)
(0 -0 -5471.39)
(0 -0 -5593.76)
(0 -0 -533.099)
(0 -0 -4662.37)
(0 -0 -7717.65)
(0 -0 -9327.38)
(0 -0 -9891.22)
(0 -0 -9956.97)
(0 -0 -9825.93)
(0 -0 -9614.81)
(0 -0 -9372.38)
(0 -0 -9123.26)
(0 -0 -8879.83)
(0 -0 -8647.65)
(0 -0 -8428.77)
(0 -0 -8223.61)
(0 -0 -8031.79)
(0 -0 -7852.55)
(0 -0 -7685.01)
(0 -0 -7528.24)
(0 -0 -7381.32)
(0 -0 -7243.43)
(0 -0 -7113.79)
(0 -0 -6991.69)
(0 -0 -6876.49)
(0 -0 -6767.63)
(0 -0 -6664.59)
(0 -0 -6566.92)
(0 -0 -6474.21)
(0 -0 -6386.09)
(0 -0 -6302.23)
(0 -0 -6222.33)
(0 -0 -6146.15)
(0 -0 -6073.44)
(0 -0 -6004)
(0 -0 -5937.65)
(0 -0 -5874.23)
(0 -0 -5813.62)
(0 -0 -5755.68)
(0 -0 -5700.38)
(0 -0 -5647.56)
(0 -0 -5597.38)
(0 -0 -5549.47)
(0 -0 -5504.54)
(0 -0 -5461.49)
(0 -0 -5422.39)
(0 -0 -5384.47)
(0 -0 -5351.99)
(0 -0 -5320.81)
(0 -0 -5295.39)
(0 -0 -5274.45)
(0 -0 -5304.16)
(0 -0 322.377)
(0 -0 -1444.44)
(0 -0 -3531.96)
(0 -0 -5257.83)
(0 -0 -6397.3)
(0 -0 -7071.76)
(0 -0 -7449.21)
(0 -0 -7640.07)
(0 -0 -7712.54)
(0 -0 -7710.81)
(0 -0 -7663.42)
(0 -0 -7588.4)
(0 -0 -7497.15)
(0 -0 -7396.92)
(0 -0 -7292.38)
(0 -0 -7186.51)
(0 -0 -7081.25)
(0 -0 -6977.81)
(0 -0 -6876.95)
(0 -0 -6779.11)
(0 -0 -6684.52)
(0 -0 -6593.28)
(0 -0 -6505.41)
(0 -0 -6420.86)
(0 -0 -6339.53)
(0 -0 -6261.32)
(0 -0 -6186.11)
(0 -0 -6113.77)
(0 -0 -6044.16)
(0 -0 -5977.17)
(0 -0 -5912.67)
(0 -0 -5850.55)
(0 -0 -5790.68)
(0 -0 -5732.97)
(0 -0 -5677.33)
(0 -0 -5623.66)
(0 -0 -5571.89)
(0 -0 -5521.92)
(0 -0 -5473.76)
(0 -0 -5427.25)
(0 -0 -5382.55)
(0 -0 -5339.28)
(0 -0 -5298.11)
(0 -0 -5257.73)
(0 -0 -5220.85)
(0 -0 -5182.08)
(0 -0 -5152.43)
(0 -0 -5111.35)
(0 -0 -5097.3)
(0 -0 -5064.14)
(0 -0 364.655)
(0 -0 -158.579)
(0 -0 -1181.22)
(0 -0 -2361.05)
(0 -0 -3415.72)
(0 -0 -4253.55)
(0 -0 -4888.05)
(0 -0 -5353.19)
(0 -0 -5684.06)
(0 -0 -5912.68)
(0 -0 -6065.33)
(0 -0 -6162.1)
(0 -0 -6217.89)
(0 -0 -6243.65)
(0 -0 -6247.42)
(0 -0 -6235.09)
(0 -0 -6211.03)
(0 -0 -6178.45)
(0 -0 -6139.77)
(0 -0 -6096.76)
(0 -0 -6050.77)
(0 -0 -6002.81)
(0 -0 -5953.65)
(0 -0 -5903.85)
(0 -0 -5853.86)
(0 -0 -5804)
(0 -0 -5754.51)
(0 -0 -5705.58)
(0 -0 -5657.34)
(0 -0 -5609.89)
(0 -0 -5563.3)
(0 -0 -5517.62)
(0 -0 -5472.87)
(0 -0 -5429.07)
(0 -0 -5386.24)
(0 -0 -5344.34)
(0 -0 -5303.41)
(0 -0 -5263.35)
(0 -0 -5224.3)
(0 -0 -5185.94)
(0 -0 -5148.81)
(0 -0 -5111.84)
(0 -0 -5076.9)
(0 -0 -5040.52)
(0 -0 -5008.88)
(0 -0 -4970.78)
(0 -0 -4945.98)
(0 -0 -4900.35)
(0 -0 -4891.05)
(0 -0 -4839.52)
(0 -0 253.989)
(0 -0 185.242)
(0 -0 -173.226)
(0 -0 -764.193)
(0 -0 -1446.52)
(0 -0 -2113.42)
(0 -0 -2717.72)
(0 -0 -3240.02)
(0 -0 -3676.29)
(0 -0 -4032.33)
(0 -0 -4318.43)
(0 -0 -4545.72)
(0 -0 -4724.51)
(0 -0 -4863.78)
(0 -0 -4971.02)
(0 -0 -5052.4)
(0 -0 -5112.92)
(0 -0 -5156.62)
(0 -0 -5186.72)
(0 -0 -5205.82)
(0 -0 -5216.03)
(0 -0 -5219.02)
(0 -0 -5216.15)
(0 -0 -5208.53)
(0 -0 -5197.04)
(0 -0 -5182.41)
(0 -0 -5165.25)
(0 -0 -5146.04)
(0 -0 -5125.19)
(0 -0 -5103.02)
(0 -0 -5079.81)
(0 -0 -5055.79)
(0 -0 -5031.14)
(0 -0 -5006.01)
(0 -0 -4980.55)
(0 -0 -4954.81)
(0 -0 -4928.95)
(0 -0 -4902.91)
(0 -0 -4876.93)
(0 -0 -4850.68)
(0 -0 -4824.86)
(0 -0 -4798.18)
(0 -0 -4772.98)
(0 -0 -4745.01)
(0 -0 -4721.64)
(0 -0 -4689.88)
(0 -0 -4671.57)
(0 -0 -4630.65)
(0 -0 -4622.7)
(0 -0 -4574.9)
(0 -0 178.72)
(0 -0 204.453)
(0 -0 130.623)
(0 -0 -85.0681)
(0 -0 -417.33)
(0 -0 -813.703)
(0 -0 -1234.39)
(0 -0 -1650.58)
(0 -0 -2042.5)
(0 -0 -2399.21)
(0 -0 -2716.54)
(0 -0 -2994.4)
(0 -0 -3235)
(0 -0 -3441.69)
(0 -0 -3618.19)
(0 -0 -3768.23)
(0 -0 -3895.31)
(0 -0 -4002.6)
(0 -0 -4092.86)
(0 -0 -4168.53)
(0 -0 -4231.7)
(0 -0 -4284.15)
(0 -0 -4327.4)
(0 -0 -4362.74)
(0 -0 -4391.28)
(0 -0 -4413.96)
(0 -0 -4431.58)
(0 -0 -4444.83)
(0 -0 -4454.27)
(0 -0 -4460.43)
(0 -0 -4463.71)
(0 -0 -4464.5)
(0 -0 -4463.11)
(0 -0 -4459.79)
(0 -0 -4454.81)
(0 -0 -4448.31)
(0 -0 -4440.53)
(0 -0 -4431.5)
(0 -0 -4421.5)
(0 -0 -4410.29)
(0 -0 -4398.56)
(0 -0 -4385.15)
(0 -0 -4372.27)
(0 -0 -4355.93)
(0 -0 -4343.02)
(0 -0 -4321.55)
(0 -0 -4311.03)
(0 -0 -4280.31)
(0 -0 -4274.1)
(0 -0 -4236.49)
(0 -0 147.99)
(0 -0 164.57)
(0 -0 169.933)
(0 -0 120.963)
(0 -0 1.20229)
(0 -0 -180.211)
(0 -0 -407.896)
(0 -0 -665.535)
(0 -0 -937.347)
(0 -0 -1210.47)
(0 -0 -1475.72)
(0 -0 -1727.15)
(0 -0 -1961.29)
(0 -0 -2176.47)
(0 -0 -2372.35)
(0 -0 -2549.37)
(0 -0 -2708.51)
(0 -0 -2851.03)
(0 -0 -2978.29)
(0 -0 -3091.69)
(0 -0 -3192.57)
(0 -0 -3282.2)
(0 -0 -3361.75)
(0 -0 -3432.26)
(0 -0 -3494.71)
(0 -0 -3549.94)
(0 -0 -3598.72)
(0 -0 -3641.72)
(0 -0 -3679.55)
(0 -0 -3712.74)
(0 -0 -3741.76)
(0 -0 -3767.03)
(0 -0 -3788.91)
(0 -0 -3807.73)
(0 -0 -3823.77)
(0 -0 -3837.28)
(0 -0 -3848.49)
(0 -0 -3857.52)
(0 -0 -3864.65)
(0 -0 -3869.74)
(0 -0 -3873.4)
(0 -0 -3874.71)
(0 -0 -3875.5)
(0 -0 -3872.48)
(0 -0 -3871.33)
(0 -0 -3862.21)
(0 -0 -3860.66)
(0 -0 -3842.38)
(0 -0 -3840.13)
(0 -0 -3814.08)
(0 -0 136.794)
(0 -0 137.038)
(0 -0 148.69)
(0 -0 149.627)
(0 -0 122.187)
(0 -0 60.2537)
(0 -0 -35.9605)
(0 -0 -162.794)
(0 -0 -313.907)
(0 -0 -482.02)
(0 -0 -660.256)
(0 -0 -842.746)
(0 -0 -1024.79)
(0 -0 -1202.85)
(0 -0 -1374.39)
(0 -0 -1537.75)
(0 -0 -1691.92)
(0 -0 -1836.42)
(0 -0 -1971.14)
(0 -0 -2096.22)
(0 -0 -2211.99)
(0 -0 -2318.88)
(0 -0 -2417.38)
(0 -0 -2508.03)
(0 -0 -2591.36)
(0 -0 -2667.88)
(0 -0 -2738.1)
(0 -0 -2802.5)
(0 -0 -2861.53)
(0 -0 -2915.59)
(0 -0 -2965.07)
(0 -0 -3010.32)
(0 -0 -3051.66)
(0 -0 -3089.38)
(0 -0 -3123.74)
(0 -0 -3154.98)
(0 -0 -3183.3)
(0 -0 -3208.87)
(0 -0 -3231.89)
(0 -0 -3252.34)
(0 -0 -3270.65)
(0 -0 -3286.17)
(0 -0 -3300.3)
(0 -0 -3310.48)
(0 -0 -3321.09)
(0 -0 -3324.5)
(0 -0 -3332.39)
(0 -0 -3326.7)
(0 -0 -3330.19)
(0 -0 -3315.68)
(0 -0 129.911)
(0 -0 123.965)
(0 -0 129.143)
(0 -0 136.333)
(0 -0 136.422)
(0 -0 123.194)
(0 -0 93.0249)
(0 -0 44.0842)
(0 -0 -23.4576)
(0 -0 -107.775)
(0 -0 -206.114)
(0 -0 -315.364)
(0 -0 -432.412)
(0 -0 -554.386)
(0 -0 -678.783)
(0 -0 -803.52)
(0 -0 -926.929)
(0 -0 -1047.73)
(0 -0 -1164.96)
(0 -0 -1277.94)
(0 -0 -1386.25)
(0 -0 -1489.59)
(0 -0 -1587.85)
(0 -0 -1680.99)
(0 -0 -1769.09)
(0 -0 -1852.23)
(0 -0 -1930.59)
(0 -0 -2004.33)
(0 -0 -2073.64)
(0 -0 -2138.73)
(0 -0 -2199.79)
(0 -0 -2257.03)
(0 -0 -2310.63)
(0 -0 -2360.79)
(0 -0 -2407.66)
(0 -0 -2451.42)
(0 -0 -2492.19)
(0 -0 -2530.12)
(0 -0 -2565.31)
(0 -0 -2597.79)
(0 -0 -2627.82)
(0 -0 -2654.94)
(0 -0 -2680.16)
(0 -0 -2701.52)
(0 -0 -2722.27)
(0 -0 -2736.66)
(0 -0 -2753.09)
(0 -0 -2758.65)
(0 -0 -2768.38)
(0 -0 -2764.44)
(0 -0 122.919)
(0 -0 116.61)
(0 -0 117.976)
(0 -0 122.446)
(0 -0 126.381)
(0 -0 126.851)
(0 -0 121.398)
(0 -0 107.734)
(0 -0 84.2281)
(0 -0 50.1793)
(0 -0 5.67734)
(0 -0 -48.5778)
(0 -0 -111.477)
(0 -0 -181.674)
(0 -0 -257.742)
(0 -0 -338.271)
(0 -0 -421.947)
(0 -0 -507.589)
(0 -0 -594.173)
(0 -0 -680.831)
(0 -0 -766.843)
(0 -0 -851.628)
(0 -0 -934.725)
(0 -0 -1015.78)
(0 -0 -1094.51)
(0 -0 -1170.74)
(0 -0 -1244.32)
(0 -0 -1315.18)
(0 -0 -1383.27)
(0 -0 -1448.56)
(0 -0 -1511.08)
(0 -0 -1570.85)
(0 -0 -1627.9)
(0 -0 -1682.29)
(0 -0 -1734.06)
(0 -0 -1783.28)
(0 -0 -1829.98)
(0 -0 -1874.21)
(0 -0 -1916.02)
(0 -0 -1955.37)
(0 -0 -1992.43)
(0 -0 -2026.8)
(0 -0 -2059.19)
(0 -0 -2088.09)
(0 -0 -2115.84)
(0 -0 -2138.18)
(0 -0 -2160.91)
(0 -0 -2175.11)
(0 -0 -2190.18)
(0 -0 -2194.9)
(0 -0 115.597)
(0 -0 110.376)
(0 -0 110.693)
(0 -0 113.128)
(0 -0 115.935)
(0 -0 118.188)
(0 -0 119.063)
(0 -0 117.364)
(0 -0 111.818)
(0 -0 101.376)
(0 -0 85.3216)
(0 -0 63.2786)
(0 -0 35.1863)
(0 -0 1.25328)
(0 -0 -38.1074)
(0 -0 -82.344)
(0 -0 -130.824)
(0 -0 -182.882)
(0 -0 -237.857)
(0 -0 -295.114)
(0 -0 -354.067)
(0 -0 -414.18)
(0 -0 -474.977)
(0 -0 -536.042)
(0 -0 -597.011)
(0 -0 -657.577)
(0 -0 -717.476)
(0 -0 -776.491)
(0 -0 -834.438)
(0 -0 -891.171)
(0 -0 -946.564)
(0 -0 -1000.52)
(0 -0 -1052.96)
(0 -0 -1103.83)
(0 -0 -1153.06)
(0 -0 -1200.62)
(0 -0 -1246.47)
(0 -0 -1290.56)
(0 -0 -1332.88)
(0 -0 -1373.33)
(0 -0 -1411.98)
(0 -0 -1448.46)
(0 -0 -1483.27)
(0 -0 -1515.2)
(0 -0 -1545.88)
(0 -0 -1572.27)
(0 -0 -1598.09)
(0 -0 -1617.48)
(0 -0 -1635.92)
(0 -0 -1646.61)
(0 -0 108.351)
(0 -0 104.156)
(0 -0 104.365)
(0 -0 106.07)
(0 -0 107.935)
(0 -0 109.64)
(0 -0 111.171)
(0 -0 112.184)
(0 -0 112.101)
(0 -0 110.296)
(0 -0 106.184)
(0 -0 99.266)
(0 -0 89.1655)
(0 -0 75.64)
(0 -0 58.5877)
(0 -0 38.0256)
(0 -0 14.0731)
(0 -0 -13.0712)
(0 -0 -43.1529)
(0 -0 -75.8809)
(0 -0 -110.945)
(0 -0 -148.028)
(0 -0 -186.819)
(0 -0 -227.016)
(0 -0 -268.335)
(0 -0 -310.509)
(0 -0 -353.294)
(0 -0 -396.468)
(0 -0 -439.828)
(0 -0 -483.194)
(0 -0 -526.399)
(0 -0 -569.302)
(0 -0 -611.765)
(0 -0 -653.678)
(0 -0 -694.924)
(0 -0 -735.416)
(0 -0 -775.052)
(0 -0 -813.746)
(0 -0 -851.425)
(0 -0 -887.947)
(0 -0 -923.333)
(0 -0 -957.233)
(0 -0 -989.961)
(0 -0 -1020.61)
(0 -0 -1050.19)
(0 -0 -1076.64)
(0 -0 -1102.2)
(0 -0 -1123.15)
(0 -0 -1142.43)
(0 -0 -1156.09)
(0 -0 101.37)
(0 -0 97.963)
(0 -0 98.1855)
(0 -0 99.6568)
(0 -0 101.166)
(0 -0 102.435)
(0 -0 103.654)
(0 -0 104.835)
(0 -0 105.807)
(0 -0 106.323)
(0 -0 106.107)
(0 -0 104.86)
(0 -0 102.294)
(0 -0 98.1507)
(0 -0 92.2188)
(0 -0 84.343)
(0 -0 74.4256)
(0 -0 62.4237)
(0 -0 48.3446)
(0 -0 32.2373)
(0 -0 14.185)
(0 -0 -5.70194)
(0 -0 -27.2943)
(0 -0 -50.4496)
(0 -0 -75.0167)
(0 -0 -100.842)
(0 -0 -127.771)
(0 -0 -155.652)
(0 -0 -184.337)
(0 -0 -213.685)
(0 -0 -243.558)
(0 -0 -273.83)
(0 -0 -304.374)
(0 -0 -335.078)
(0 -0 -365.827)
(0 -0 -396.517)
(0 -0 -427.044)
(0 -0 -457.3)
(0 -0 -487.203)
(0 -0 -516.603)
(0 -0 -545.483)
(0 -0 -573.546)
(0 -0 -600.967)
(0 -0 -627.088)
(0 -0 -652.497)
(0 -0 -675.85)
(0 -0 -698.352)
(0 -0 -717.802)
(0 -0 -735.599)
(0 -0 -749.507)
(0 -0 94.6922)
(0 -0 91.9112)
(0 -0 92.1217)
(0 -0 93.4439)
(0 -0 94.8217)
(0 -0 95.917)
(0 -0 96.9128)
(0 -0 97.9065)
(0 -0 98.8706)
(0 -0 99.7384)
(0 -0 100.421)
(0 -0 100.804)
(0 -0 100.748)
(0 -0 100.107)
(0 -0 98.7327)
(0 -0 96.4899)
(0 -0 93.2591)
(0 -0 88.9424)
(0 -0 83.4653)
(0 -0 76.7775)
(0 -0 68.852)
(0 -0 59.6817)
(0 -0 49.2811)
(0 -0 37.6786)
(0 -0 24.9175)
(0 -0 11.0519)
(0 -0 -3.85474)
(0 -0 -19.7332)
(0 -0 -36.5082)
(0 -0 -54.1022)
(0 -0 -72.434)
(0 -0 -91.423)
(0 -0 -110.986)
(0 -0 -131.04)
(0 -0 -151.504)
(0 -0 -172.292)
(0 -0 -193.325)
(0 -0 -214.51)
(0 -0 -235.777)
(0 -0 -256.998)
(0 -0 -278.145)
(0 -0 -298.994)
(0 -0 -319.623)
(0 -0 -339.594)
(0 -0 -359.199)
(0 -0 -377.627)
(0 -0 -395.444)
(0 -0 -411.412)
(0 -0 -426.099)
(0 -0 -438.278)
(0 -0 88.3142)
(0 -0 86.0531)
(0 -0 86.2448)
(0 -0 87.4173)
(0 -0 88.6967)
(0 -0 89.7131)
(0 -0 90.6028)
(0 -0 91.4689)
(0 -0 92.3153)
(0 -0 93.1276)
(0 -0 93.8903)
(0 -0 94.575)
(0 -0 95.137)
(0 -0 95.5177)
(0 -0 95.6497)
(0 -0 95.46)
(0 -0 94.8747)
(0 -0 93.8223)
(0 -0 92.2363)
(0 -0 90.0578)
(0 -0 87.2366)
(0 -0 83.7324)
(0 -0 79.5144)
(0 -0 74.5626)
(0 -0 68.8662)
(0 -0 62.4239)
(0 -0 55.241)
(0 -0 47.3332)
(0 -0 38.7201)
(0 -0 29.4278)
(0 -0 19.4876)
(0 -0 8.93487)
(0 -0 -2.19079)
(0 -0 -13.8464)
(0 -0 -25.9869)
(0 -0 -38.5613)
(0 -0 -51.522)
(0 -0 -64.8049)
(0 -0 -78.3671)
(0 -0 -92.1166)
(0 -0 -106.031)
(0 -0 -119.958)
(0 -0 -133.926)
(0 -0 -147.668)
(0 -0 -161.303)
(0 -0 -174.377)
(0 -0 -187.108)
(0 -0 -198.84)
(0 -0 -209.747)
(0 -0 -219.164)
(0 -0 82.2351)
(0 -0 80.4068)
(0 -0 80.5883)
(0 -0 81.6159)
(0 -0 82.7918)
(0 -0 83.7428)
(0 -0 84.5648)
(0 -0 85.3539)
(0 -0 86.1179)
(0 -0 86.8501)
(0 -0 87.5523)
(0 -0 88.2242)
(0 -0 88.8577)
(0 -0 89.437)
(0 -0 89.9398)
(0 -0 90.3385)
(0 -0 90.6008)
(0 -0 90.692)
(0 -0 90.5755)
(0 -0 90.2144)
(0 -0 89.5728)
(0 -0 88.6168)
(0 -0 87.3154)
(0 -0 85.641)
(0 -0 83.5703)
(0 -0 81.0841)
(0 -0 78.1683)
(0 -0 74.812)
(0 -0 71.0098)
(0 -0 66.7604)
(0 -0 62.066)
(0 -0 56.9334)
(0 -0 51.3723)
(0 -0 45.3972)
(0 -0 39.024)
(0 -0 32.2758)
(0 -0 25.1725)
(0 -0 17.7484)
(0 -0 10.0245)
(0 -0 2.05331)
(0 -0 -6.15009)
(0 -0 -14.4995)
(0 -0 -22.998)
(0 -0 -31.5012)
(0 -0 -40.0425)
(0 -0 -48.3905)
(0 -0 -56.6012)
(0 -0 -64.3491)
(0 -0 -71.6564)
(0 -0 -78.1672)
(0 -0 76.4554)
(0 -0 74.9837)
(0 -0 75.1641)
(0 -0 76.0596)
(0 -0 77.1296)
(0 -0 78.0141)
(0 -0 78.7747)
(0 -0 79.5016)
(0 -0 80.2041)
(0 -0 80.8748)
(0 -0 81.5162)
(0 -0 82.1336)
(0 -0 82.7286)
(0 -0 83.2994)
(0 -0 83.8414)
(0 -0 84.3474)
(0 -0 84.8075)
(0 -0 85.2096)
(0 -0 85.5392)
(0 -0 85.7801)
(0 -0 85.9146)
(0 -0 85.9245)
(0 -0 85.7908)
(0 -0 85.4951)
(0 -0 85.0196)
(0 -0 84.3476)
(0 -0 83.4638)
(0 -0 82.3546)
(0 -0 81.0082)
(0 -0 79.4149)
(0 -0 77.5668)
(0 -0 75.4589)
(0 -0 73.0876)
(0 -0 70.4525)
(0 -0 67.5544)
(0 -0 64.3988)
(0 -0 60.99)
(0 -0 57.3409)
(0 -0 53.4584)
(0 -0 49.3657)
(0 -0 45.0709)
(0 -0 40.6139)
(0 -0 35.9995)
(0 -0 31.2947)
(0 -0 26.5)
(0 -0 21.7197)
(0 -0 16.9558)
(0 -0 12.3585)
(0 -0 7.94437)
(0 -0 3.90112)
(0 -0 70.9749)
(0 -0 69.7941)
(0 -0 69.9793)
(0 -0 70.7569)
(0 -0 71.7231)
(0 -0 72.5409)
(0 -0 73.2418)
(0 -0 73.9095)
(0 -0 74.5564)
(0 -0 75.1744)
(0 -0 75.7644)
(0 -0 76.3313)
(0 -0 76.8783)
(0 -0 77.4066)
(0 -0 77.9163)
(0 -0 78.407)
(0 -0 78.8771)
(0 -0 79.3241)
(0 -0 79.7443)
(0 -0 80.1327)
(0 -0 80.4832)
(0 -0 80.7883)
(0 -0 81.0399)
(0 -0 81.2291)
(0 -0 81.3466)
(0 -0 81.3829)
(0 -0 81.3284)
(0 -0 81.1738)
(0 -0 80.9102)
(0 -0 80.529)
(0 -0 80.0225)
(0 -0 79.3838)
(0 -0 78.6066)
(0 -0 77.6863)
(0 -0 76.6185)
(0 -0 75.4016)
(0 -0 74.0332)
(0 -0 72.5157)
(0 -0 70.8487)
(0 -0 69.0399)
(0 -0 67.0909)
(0 -0 65.0165)
(0 -0 62.8214)
(0 -0 60.53)
(0 -0 58.1511)
(0 -0 55.7244)
(0 -0 53.2632)
(0 -0 50.8326)
(0 -0 48.4441)
(0 -0 46.2026)
(0 -0 65.792)
(0 -0 64.8466)
(0 -0 65.0393)
(0 -0 65.713)
(0 -0 66.5789)
(0 -0 67.3314)
(0 -0 67.975)
(0 -0 68.5857)
(0 -0 69.1791)
(0 -0 69.7473)
(0 -0 70.2899)
(0 -0 70.811)
(0 -0 71.3135)
(0 -0 71.7988)
(0 -0 72.268)
(0 -0 72.7217)
(0 -0 73.1608)
(0 -0 73.5858)
(0 -0 73.9968)
(0 -0 74.3933)
(0 -0 74.7742)
(0 -0 75.1374)
(0 -0 75.4804)
(0 -0 75.8001)
(0 -0 76.0929)
(0 -0 76.3546)
(0 -0 76.5809)
(0 -0 76.7672)
(0 -0 76.9086)
(0 -0 77.0004)
(0 -0 77.0375)
(0 -0 77.0152)
(0 -0 76.9288)
(0 -0 76.7742)
(0 -0 76.5471)
(0 -0 76.2445)
(0 -0 75.863)
(0 -0 75.401)
(0 -0 74.8562)
(0 -0 74.229)
(0 -0 73.5193)
(0 -0 72.7292)
(0 -0 71.8619)
(0 -0 70.9224)
(0 -0 69.9178)
(0 -0 68.8596)
(0 -0 67.756)
(0 -0 66.6352)
(0 -0 65.4938)
(0 -0 64.3971)
(0 -0 60.9041)
(0 -0 60.1474)
(0 -0 60.3486)
(0 -0 60.9308)
(0 -0 61.7014)
(0 -0 62.3904)
(0 -0 62.9795)
(0 -0 63.5358)
(0 -0 64.0777)
(0 -0 64.5982)
(0 -0 65.0957)
(0 -0 65.5734)
(0 -0 66.0342)
(0 -0 66.4791)
(0 -0 66.9091)
(0 -0 67.325)
(0 -0 67.728)
(0 -0 68.1192)
(0 -0 68.4999)
(0 -0 68.8707)
(0 -0 69.2323)
(0 -0 69.5845)
(0 -0 69.9271)
(0 -0 70.2594)
(0 -0 70.5804)
(0 -0 70.889)
(0 -0 71.1835)
(0 -0 71.4622)
(0 -0 71.7232)
(0 -0 71.9643)
(0 -0 72.1831)
(0 -0 72.3771)
(0 -0 72.5437)
(0 -0 72.6805)
(0 -0 72.7847)
(0 -0 72.8541)
(0 -0 72.8861)
(0 -0 72.8785)
(0 -0 72.8297)
(0 -0 72.7375)
(0 -0 72.6015)
(0 -0 72.4195)
(0 -0 72.1934)
(0 -0 71.921)
(0 -0 71.6061)
(0 -0 71.2499)
(0 -0 70.8535)
(0 -0 70.4311)
(0 -0 69.9676)
(0 -0 69.5108)
(0 -0 56.3072)
(0 -0 55.7008)
(0 -0 55.9094)
(0 -0 56.4117)
(0 -0 57.0927)
(0 -0 57.7203)
(0 -0 58.2578)
(0 -0 58.7628)
(0 -0 59.2556)
(0 -0 59.7305)
(0 -0 60.1848)
(0 -0 60.6213)
(0 -0 61.0424)
(0 -0 61.449)
(0 -0 61.8419)
(0 -0 62.2217)
(0 -0 62.5897)
(0 -0 62.947)
(0 -0 63.2951)
(0 -0 63.6349)
(0 -0 63.9673)
(0 -0 64.2929)
(0 -0 64.612)
(0 -0 64.9248)
(0 -0 65.2313)
(0 -0 65.5312)
(0 -0 65.8244)
(0 -0 66.1102)
(0 -0 66.3882)
(0 -0 66.6574)
(0 -0 66.917)
(0 -0 67.166)
(0 -0 67.403)
(0 -0 67.6269)
(0 -0 67.8363)
(0 -0 68.0297)
(0 -0 68.2058)
(0 -0 68.3629)
(0 -0 68.5)
(0 -0 68.6149)
(0 -0 68.7074)
(0 -0 68.7745)
(0 -0 68.8171)
(0 -0 68.8318)
(0 -0 68.8195)
(0 -0 68.7793)
(0 -0 68.7072)
(0 -0 68.6131)
(0 -0 68.4757)
(0 -0 68.3352)
(0 -0 51.9961)
(0 -0 51.5087)
(0 -0 51.7226)
(0 -0 52.1553)
(0 -0 52.753)
(0 -0 53.3214)
(0 -0 53.8106)
(0 -0 54.2674)
(0 -0 54.7137)
(0 -0 55.1452)
(0 -0 55.5587)
(0 -0 55.956)
(0 -0 56.3393)
(0 -0 56.7096)
(0 -0 57.0672)
(0 -0 57.4128)
(0 -0 57.7475)
(0 -0 58.0725)
(0 -0 58.3892)
(0 -0 58.6985)
(0 -0 59.0015)
(0 -0 59.2986)
(0 -0 59.5905)
(0 -0 59.8774)
(0 -0 60.1596)
(0 -0 60.4373)
(0 -0 60.7104)
(0 -0 60.9791)
(0 -0 61.2431)
(0 -0 61.5022)
(0 -0 61.7561)
(0 -0 62.0044)
(0 -0 62.2464)
(0 -0 62.4817)
(0 -0 62.7096)
(0 -0 62.9291)
(0 -0 63.1398)
(0 -0 63.3403)
(0 -0 63.5303)
(0 -0 63.708)
(0 -0 63.8732)
(0 -0 64.0236)
(0 -0 64.1593)
(0 -0 64.2777)
(0 -0 64.3777)
(0 -0 64.4591)
(0 -0 64.515)
(0 -0 64.5549)
(0 -0 64.5546)
(0 -0 64.5517)
(0 -0 47.9645)
(0 -0 47.5708)
(0 -0 47.787)
(0 -0 48.1594)
(0 -0 48.6806)
(0 -0 49.1924)
(0 -0 49.636)
(0 -0 50.048)
(0 -0 50.4506)
(0 -0 50.8412)
(0 -0 51.2162)
(0 -0 51.5766)
(0 -0 51.9243)
(0 -0 52.2601)
(0 -0 52.5844)
(0 -0 52.8976)
(0 -0 53.2008)
(0 -0 53.4952)
(0 -0 53.7821)
(0 -0 54.0625)
(0 -0 54.3373)
(0 -0 54.6071)
(0 -0 54.8724)
(0 -0 55.1335)
(0 -0 55.3906)
(0 -0 55.644)
(0 -0 55.8939)
(0 -0 56.1402)
(0 -0 56.3831)
(0 -0 56.6224)
(0 -0 56.858)
(0 -0 57.0897)
(0 -0 57.3172)
(0 -0 57.5402)
(0 -0 57.7583)
(0 -0 57.9709)
(0 -0 58.1778)
(0 -0 58.378)
(0 -0 58.5715)
(0 -0 58.7568)
(0 -0 58.9338)
(0 -0 59.1009)
(0 -0 59.2577)
(0 -0 59.4024)
(0 -0 59.5332)
(0 -0 59.6507)
(0 -0 59.7468)
(0 -0 59.8315)
(0 -0 59.88)
(0 -0 59.9285)
(0 -0 44.2047)
(0 -0 43.8848)
(0 -0 44.0998)
(0 -0 44.42)
(0 -0 44.8717)
(0 -0 45.3299)
(0 -0 45.7309)
(0 -0 46.1013)
(0 -0 46.4631)
(0 -0 46.8154)
(0 -0 47.1542)
(0 -0 47.48)
(0 -0 47.7943)
(0 -0 48.0978)
(0 -0 48.3907)
(0 -0 48.6734)
(0 -0 48.947)
(0 -0 49.2126)
(0 -0 49.4714)
(0 -0 49.7245)
(0 -0 49.9728)
(0 -0 50.2168)
(0 -0 50.4569)
(0 -0 50.6934)
(0 -0 50.9266)
(0 -0 51.1566)
(0 -0 51.3837)
(0 -0 51.6078)
(0 -0 51.829)
(0 -0 52.0473)
(0 -0 52.2625)
(0 -0 52.4745)
(0 -0 52.683)
(0 -0 52.8879)
(0 -0 53.0889)
(0 -0 53.2855)
(0 -0 53.4775)
(0 -0 53.6643)
(0 -0 53.8457)
(0 -0 54.0207)
(0 -0 54.1893)
(0 -0 54.35)
(0 -0 54.5023)
(0 -0 54.6453)
(0 -0 54.7764)
(0 -0 54.8973)
(0 -0 54.9994)
(0 -0 55.0931)
(0 -0 55.1542)
(0 -0 55.2178)
(0 -0 40.7082)
(0 -0 40.4463)
(0 -0 40.6564)
(0 -0 40.9316)
(0 -0 41.3208)
(0 -0 41.7284)
(0 -0 42.0897)
(0 -0 42.4219)
(0 -0 42.746)
(0 -0 43.0626)
(0 -0 43.3677)
(0 -0 43.6612)
(0 -0 43.9444)
(0 -0 44.2177)
(0 -0 44.4812)
(0 -0 44.7354)
(0 -0 44.9812)
(0 -0 45.2198)
(0 -0 45.4523)
(0 -0 45.6799)
(0 -0 45.9034)
(0 -0 46.1232)
(0 -0 46.3397)
(0 -0 46.5532)
(0 -0 46.7639)
(0 -0 46.9719)
(0 -0 47.1775)
(0 -0 47.3806)
(0 -0 47.5812)
(0 -0 47.7792)
(0 -0 47.9747)
(0 -0 48.1673)
(0 -0 48.3569)
(0 -0 48.5433)
(0 -0 48.7262)
(0 -0 48.9053)
(0 -0 49.0803)
(0 -0 49.2509)
(0 -0 49.4166)
(0 -0 49.5769)
(0 -0 49.7314)
(0 -0 49.8793)
(0 -0 50.0198)
(0 -0 50.1524)
(0 -0 50.2745)
(0 -0 50.3881)
(0 -0 50.4849)
(0 -0 50.5752)
(0 -0 50.6361)
(0 -0 50.7011)
(0 -0 37.4651)
(0 -0 37.2493)
(0 -0 37.4507)
(0 -0 37.6871)
(0 -0 38.0208)
(0 -0 38.3812)
(0 -0 38.7056)
(0 -0 39.0028)
(0 -0 39.2921)
(0 -0 39.5756)
(0 -0 39.8495)
(0 -0 40.1132)
(0 -0 40.3675)
(0 -0 40.6128)
(0 -0 40.8491)
(0 -0 41.0768)
(0 -0 41.2967)
(0 -0 41.5101)
(0 -0 41.7182)
(0 -0 41.922)
(0 -0 42.1223)
(0 -0 42.3196)
(0 -0 42.5142)
(0 -0 42.7063)
(0 -0 42.8961)
(0 -0 43.0837)
(0 -0 43.2692)
(0 -0 43.4527)
(0 -0 43.634)
(0 -0 43.8132)
(0 -0 43.9901)
(0 -0 44.1645)
(0 -0 44.3363)
(0 -0 44.5051)
(0 -0 44.6707)
(0 -0 44.8329)
(0 -0 44.9914)
(0 -0 45.1458)
(0 -0 45.2959)
(0 -0 45.4411)
(0 -0 45.581)
(0 -0 45.7151)
(0 -0 45.8424)
(0 -0 45.9629)
(0 -0 46.0738)
(0 -0 46.1775)
(0 -0 46.266)
(0 -0 46.3494)
(0 -0 46.4063)
(0 -0 46.4685)
(0 -0 34.4649)
(0 -0 34.2861)
(0 -0 34.475)
(0 -0 34.678)
(0 -0 34.9627)
(0 -0 35.2795)
(0 -0 35.5698)
(0 -0 35.8352)
(0 -0 36.0928)
(0 -0 36.3459)
(0 -0 36.5911)
(0 -0 36.8273)
(0 -0 37.0551)
(0 -0 37.2745)
(0 -0 37.4857)
(0 -0 37.6888)
(0 -0 37.8849)
(0 -0 38.075)
(0 -0 38.2605)
(0 -0 38.4423)
(0 -0 38.6212)
(0 -0 38.7976)
(0 -0 38.9719)
(0 -0 39.1442)
(0 -0 39.3147)
(0 -0 39.4834)
(0 -0 39.6504)
(0 -0 39.8157)
(0 -0 39.9793)
(0 -0 40.141)
(0 -0 40.3008)
(0 -0 40.4583)
(0 -0 40.6134)
(0 -0 40.7659)
(0 -0 40.9155)
(0 -0 41.0619)
(0 -0 41.2049)
(0 -0 41.3442)
(0 -0 41.4795)
(0 -0 41.6104)
(0 -0 41.7364)
(0 -0 41.8572)
(0 -0 41.9718)
(0 -0 42.0804)
(0 -0 42.1803)
(0 -0 42.2739)
(0 -0 42.3539)
(0 -0 42.4299)
(0 -0 42.482)
(0 -0 42.5402)
(0 -0 31.6961)
(0 -0 31.5473)
(0 -0 31.7206)
(0 -0 31.8952)
(0 -0 32.1372)
(0 -0 32.414)
(0 -0 32.6729)
(0 -0 32.9094)
(0 -0 33.1383)
(0 -0 33.3635)
(0 -0 33.5825)
(0 -0 33.7936)
(0 -0 33.997)
(0 -0 34.1928)
(0 -0 34.3809)
(0 -0 34.5615)
(0 -0 34.7356)
(0 -0 34.9043)
(0 -0 35.0689)
(0 -0 35.2305)
(0 -0 35.3898)
(0 -0 35.5471)
(0 -0 35.7027)
(0 -0 35.8568)
(0 -0 36.0095)
(0 -0 36.1608)
(0 -0 36.3109)
(0 -0 36.4596)
(0 -0 36.6068)
(0 -0 36.7525)
(0 -0 36.8965)
(0 -0 37.0385)
(0 -0 37.1783)
(0 -0 37.3157)
(0 -0 37.4505)
(0 -0 37.5824)
(0 -0 37.7111)
(0 -0 37.8364)
(0 -0 37.958)
(0 -0 38.0756)
(0 -0 38.1888)
(0 -0 38.2972)
(0 -0 38.4)
(0 -0 38.4975)
(0 -0 38.5871)
(0 -0 38.6713)
(0 -0 38.7433)
(0 -0 38.8122)
(0 -0 38.8596)
(0 -0 38.9136)
(0 -0 29.1466)
(0 -0 29.0223)
(0 -0 29.1781)
(0 -0 29.3288)
(0 -0 29.5338)
(0 -0 29.7743)
(0 -0 30.0042)
(0 -0 30.2147)
(0 -0 30.4176)
(0 -0 30.6177)
(0 -0 30.8127)
(0 -0 31.001)
(0 -0 31.1823)
(0 -0 31.3564)
(0 -0 31.5234)
(0 -0 31.6835)
(0 -0 31.8374)
(0 -0 31.9866)
(0 -0 32.1322)
(0 -0 32.2753)
(0 -0 32.4165)
(0 -0 32.5563)
(0 -0 32.6949)
(0 -0 32.8324)
(0 -0 32.9689)
(0 -0 33.1044)
(0 -0 33.239)
(0 -0 33.3724)
(0 -0 33.5048)
(0 -0 33.6358)
(0 -0 33.7654)
(0 -0 33.8932)
(0 -0 34.0191)
(0 -0 34.1428)
(0 -0 34.264)
(0 -0 34.3825)
(0 -0 34.4982)
(0 -0 34.6107)
(0 -0 34.7197)
(0 -0 34.8252)
(0 -0 34.9265)
(0 -0 35.0236)
(0 -0 35.1156)
(0 -0 35.2029)
(0 -0 35.2831)
(0 -0 35.3586)
(0 -0 35.4232)
(0 -0 35.4854)
(0 -0 35.5285)
(0 -0 35.5783)
(0 -0 26.804)
(0 -0 26.6995)
(0 -0 26.837)
(0 -0 26.9673)
(0 -0 27.1406)
(0 -0 27.3485)
(0 -0 27.552)
(0 -0 27.7392)
(0 -0 27.9189)
(0 -0 28.0961)
(0 -0 28.2696)
(0 -0 28.4372)
(0 -0 28.5984)
(0 -0 28.753)
(0 -0 28.9009)
(0 -0 29.0422)
(0 -0 29.1779)
(0 -0 29.3092)
(0 -0 29.4375)
(0 -0 29.5638)
(0 -0 29.6887)
(0 -0 29.8126)
(0 -0 29.9357)
(0 -0 30.0582)
(0 -0 30.18)
(0 -0 30.3011)
(0 -0 30.4216)
(0 -0 30.5413)
(0 -0 30.6602)
(0 -0 30.778)
(0 -0 30.8945)
(0 -0 31.0094)
(0 -0 31.1226)
(0 -0 31.2338)
(0 -0 31.3427)
(0 -0 31.4491)
(0 -0 31.5529)
(0 -0 31.6537)
(0 -0 31.7514)
(0 -0 31.8457)
(0 -0 31.9363)
(0 -0 32.0231)
(0 -0 32.1052)
(0 -0 32.1832)
(0 -0 32.2548)
(0 -0 32.3224)
(0 -0 32.3803)
(0 -0 32.4363)
(0 -0 32.4755)
(0 -0 32.5213)
(0 -0 24.6554)
(0 -0 24.5669)
(0 -0 24.6861)
(0 -0 24.7989)
(0 -0 24.9452)
(0 -0 25.1241)
(0 -0 25.3037)
(0 -0 25.47)
(0 -0 25.629)
(0 -0 25.7859)
(0 -0 25.94)
(0 -0 26.089)
(0 -0 26.2323)
(0 -0 26.3693)
(0 -0 26.4999)
(0 -0 26.6243)
(0 -0 26.7435)
(0 -0 26.8587)
(0 -0 26.9713)
(0 -0 27.0824)
(0 -0 27.1925)
(0 -0 27.3021)
(0 -0 27.4113)
(0 -0 27.5201)
(0 -0 27.6287)
(0 -0 27.7369)
(0 -0 27.8448)
(0 -0 27.9521)
(0 -0 28.0588)
(0 -0 28.1647)
(0 -0 28.2694)
(0 -0 28.3728)
(0 -0 28.4746)
(0 -0 28.5745)
(0 -0 28.6723)
(0 -0 28.7678)
(0 -0 28.8607)
(0 -0 28.951)
(0 -0 29.0384)
(0 -0 29.1227)
(0 -0 29.2035)
(0 -0 29.281)
(0 -0 29.3542)
(0 -0 29.4237)
(0 -0 29.4876)
(0 -0 29.5479)
(0 -0 29.5998)
(0 -0 29.6502)
(0 -0 29.6858)
(0 -0 29.7278)
(0 -0 22.688)
(0 -0 22.6121)
(0 -0 22.7136)
(0 -0 22.8114)
(0 -0 22.9347)
(0 -0 23.0882)
(0 -0 23.2462)
(0 -0 23.3939)
(0 -0 23.5347)
(0 -0 23.6736)
(0 -0 23.8102)
(0 -0 23.9427)
(0 -0 24.0699)
(0 -0 24.1912)
(0 -0 24.3063)
(0 -0 24.4156)
(0 -0 24.5199)
(0 -0 24.6206)
(0 -0 24.7192)
(0 -0 24.8166)
(0 -0 24.9135)
(0 -0 25.0102)
(0 -0 25.1069)
(0 -0 25.2036)
(0 -0 25.3003)
(0 -0 25.397)
(0 -0 25.4936)
(0 -0 25.5899)
(0 -0 25.6857)
(0 -0 25.7809)
(0 -0 25.8751)
(0 -0 25.9682)
(0 -0 26.0597)
(0 -0 26.1495)
(0 -0 26.2374)
(0 -0 26.3231)
(0 -0 26.4064)
(0 -0 26.4872)
(0 -0 26.5653)
(0 -0 26.6406)
(0 -0 26.7127)
(0 -0 26.7817)
(0 -0 26.8469)
(0 -0 26.9088)
(0 -0 26.9657)
(0 -0 27.0196)
(0 -0 27.066)
(0 -0 27.1113)
(0 -0 27.1436)
(0 -0 27.1821)
(0 -0 20.8885)
(0 -0 20.8228)
(0 -0 20.9078)
(0 -0 20.9922)
(0 -0 21.0961)
(0 -0 21.2275)
(0 -0 21.3662)
(0 -0 21.4974)
(0 -0 21.6222)
(0 -0 21.7451)
(0 -0 21.8664)
(0 -0 21.9842)
(0 -0 22.0972)
(0 -0 22.2045)
(0 -0 22.3058)
(0 -0 22.4015)
(0 -0 22.4926)
(0 -0 22.5804)
(0 -0 22.6664)
(0 -0 22.7516)
(0 -0 22.8366)
(0 -0 22.9219)
(0 -0 23.0075)
(0 -0 23.0934)
(0 -0 23.1796)
(0 -0 23.266)
(0 -0 23.3526)
(0 -0 23.4391)
(0 -0 23.5253)
(0 -0 23.611)
(0 -0 23.696)
(0 -0 23.7798)
(0 -0 23.8623)
(0 -0 23.9432)
(0 -0 24.0222)
(0 -0 24.0991)
(0 -0 24.1739)
(0 -0 24.2462)
(0 -0 24.316)
(0 -0 24.3832)
(0 -0 24.4476)
(0 -0 24.5091)
(0 -0 24.5671)
(0 -0 24.6222)
(0 -0 24.6729)
(0 -0 24.721)
(0 -0 24.7625)
(0 -0 24.8032)
(0 -0 24.8326)
(0 -0 24.8676)
(0 -0 19.2443)
(0 -0 19.1866)
(0 -0 19.2564)
(0 -0 19.3289)
(0 -0 19.4166)
(0 -0 19.5289)
(0 -0 19.6504)
(0 -0 19.767)
(0 -0 19.8779)
(0 -0 19.9869)
(0 -0 20.0946)
(0 -0 20.1995)
(0 -0 20.2999)
(0 -0 20.3948)
(0 -0 20.4839)
(0 -0 20.5676)
(0 -0 20.6469)
(0 -0 20.7232)
(0 -0 20.798)
(0 -0 20.8723)
(0 -0 20.9469)
(0 -0 21.022)
(0 -0 21.0978)
(0 -0 21.1742)
(0 -0 21.2511)
(0 -0 21.3285)
(0 -0 21.4062)
(0 -0 21.4841)
(0 -0 21.5619)
(0 -0 21.6393)
(0 -0 21.716)
(0 -0 21.7918)
(0 -0 21.8663)
(0 -0 21.9393)
(0 -0 22.0105)
(0 -0 22.0797)
(0 -0 22.1468)
(0 -0 22.2117)
(0 -0 22.2742)
(0 -0 22.3343)
(0 -0 22.3917)
(0 -0 22.4465)
(0 -0 22.4982)
(0 -0 22.5473)
(0 -0 22.5925)
(0 -0 22.6353)
(0 -0 22.6725)
(0 -0 22.709)
(0 -0 22.7358)
(0 -0 22.7676)
(0 -0 17.7428)
(0 -0 17.6912)
(0 -0 17.7475)
(0 -0 17.8094)
(0 -0 17.8835)
(0 -0 17.9794)
(0 -0 18.0858)
(0 -0 18.1895)
(0 -0 18.2882)
(0 -0 18.3851)
(0 -0 18.481)
(0 -0 18.5745)
(0 -0 18.6639)
(0 -0 18.748)
(0 -0 18.8264)
(0 -0 18.8994)
(0 -0 18.9682)
(0 -0 19.0344)
(0 -0 19.0992)
(0 -0 19.164)
(0 -0 19.2293)
(0 -0 19.2955)
(0 -0 19.3626)
(0 -0 19.4306)
(0 -0 19.4995)
(0 -0 19.569)
(0 -0 19.639)
(0 -0 19.7093)
(0 -0 19.7797)
(0 -0 19.8499)
(0 -0 19.9195)
(0 -0 19.9882)
(0 -0 20.0557)
(0 -0 20.1218)
(0 -0 20.1861)
(0 -0 20.2486)
(0 -0 20.3091)
(0 -0 20.3674)
(0 -0 20.4234)
(0 -0 20.4772)
(0 -0 20.5285)
(0 -0 20.5774)
(0 -0 20.6236)
(0 -0 20.6673)
(0 -0 20.7076)
(0 -0 20.7458)
(0 -0 20.7792)
(0 -0 20.812)
(0 -0 20.8363)
(0 -0 20.8653)
(0 -0 16.3718)
(0 -0 16.325)
(0 -0 16.3693)
(0 -0 16.4217)
(0 -0 16.4843)
(0 -0 16.5663)
(0 -0 16.6594)
(0 -0 16.7518)
(0 -0 16.8402)
(0 -0 16.9266)
(0 -0 17.0122)
(0 -0 17.0958)
(0 -0 17.1756)
(0 -0 17.2502)
(0 -0 17.3191)
(0 -0 17.3828)
(0 -0 17.4424)
(0 -0 17.4996)
(0 -0 17.5557)
(0 -0 17.6121)
(0 -0 17.6693)
(0 -0 17.7277)
(0 -0 17.7872)
(0 -0 17.8479)
(0 -0 17.9097)
(0 -0 17.9723)
(0 -0 18.0357)
(0 -0 18.0995)
(0 -0 18.1635)
(0 -0 18.2274)
(0 -0 18.2908)
(0 -0 18.3534)
(0 -0 18.4149)
(0 -0 18.4749)
(0 -0 18.5333)
(0 -0 18.5899)
(0 -0 18.6446)
(0 -0 18.6971)
(0 -0 18.7476)
(0 -0 18.7958)
(0 -0 18.8418)
(0 -0 18.8855)
(0 -0 18.9268)
(0 -0 18.9658)
(0 -0 19.0018)
(0 -0 19.036)
(0 -0 19.066)
(0 -0 19.0954)
(0 -0 19.1177)
(0 -0 19.1439)
(0 -0 15.1197)
(0 -0 15.0765)
(0 -0 15.1105)
(0 -0 15.1542)
(0 -0 15.2072)
(0 -0 15.2776)
(0 -0 15.3592)
(0 -0 15.4418)
(0 -0 15.5211)
(0 -0 15.5985)
(0 -0 15.6753)
(0 -0 15.7503)
(0 -0 15.8217)
(0 -0 15.8881)
(0 -0 15.9488)
(0 -0 16.0043)
(0 -0 16.0559)
(0 -0 16.1051)
(0 -0 16.1536)
(0 -0 16.2026)