/*--------------------------------*- C++ -*----------------------------------*\
  =========                 |
  \\      /  F ield         | OpenFOAM: The Open Source CFD Toolbox
   \\    /   O peration     | Website:  https://openfoam.org
    \\  /    A nd           | Version:  7
     \\/     M anipulation  |
\*---------------------------------------------------------------------------*/
FoamFile
{
    version     2.0;
    format      ascii;
    class       volVectorField;
    location    "0.15";
    object      wallShearStress;
}
// * * * * * * * * * * * * * * * * * * * * * * * * * * * * * * * * * * * * * //

dimensions      [0 2 -2 0 0 0 0];

internalField   uniform (0 0 0);

boundaryField
{
    velocityInlet
    {
        type            calculated;
        value           uniform (0 0 0);
    }
    pressureOutlet
    {
        type            calculated;
        value           uniform (0 0 0);
    }
    fixedWalls
    {
        type            calculated;
        value           nonuniform List<vector> 
100
(
(-0.0105456 -0.00222878 0)
(-0.00515821 -0.000482976 0)
(-0.00368043 -0.000212677 0)
(-0.0025677 -0.000177578 0)
(-0.00162326 -0.000149528 0)
(-0.000923505 -0.000111515 0)
(-0.000475038 -7.52864e-05 0)
(-0.000243531 -4.29911e-05 0)
(-0.000199765 -1.41726e-05 0)
(-0.000311319 1.16336e-05 0)
(-0.000558437 3.43807e-05 0)
(-0.000943869 5.71214e-05 0)
(-0.00149312 8.62017e-05 0)
(-0.00224569 0.000124273 0)
(-0.00313622 0.000150079 0)
(-0.00377744 0.000116756 0)
(-0.00344534 -7.76265e-05 0)
(-0.00178061 -0.000287424 0)
(0.00022466 -0.000277084 0)
(0.000932304 -5.99914e-05 0)
(-0.000161755 0.000159566 0)
(-0.00216055 0.000248853 0)
(-0.00393755 0.000191522 0)
(-0.0050104 0.000101302 0)
(-0.00541053 3.48566e-05 0)
(-0.00539143 -2.67411e-06 0)
(-0.00516135 -2.24408e-05 0)
(-0.00484009 -3.09723e-05 0)
(-0.00449172 -3.37635e-05 0)
(-0.0041493 -3.33769e-05 0)
(-0.00383066 -3.10758e-05 0)
(-0.00354483 -2.77699e-05 0)
(-0.00329402 -2.43585e-05 0)
(-0.00307506 -2.15784e-05 0)
(-0.00288265 -1.96966e-05 0)
(-0.00271509 -1.79809e-05 0)
(-0.00257941 -1.49545e-05 0)
(-0.00248828 -1.07722e-05 0)
(-0.00245451 -6.59761e-06 0)
(-0.00250573 3.94827e-06 0)
(-0.0026845 2.119e-05 0)
(-0.00296732 2.98951e-05 0)
(-0.00322818 1.64246e-05 0)
(-0.00345447 9.20498e-06 0)
(-0.00392798 5.30901e-05 0)
(-0.00489977 0.000121683 0)
(-0.0062219 0.000163106 0)
(-0.00749982 0.000167547 0)
(-0.00823922 0.000128253 0)
(-0.00783805 -1.19921e-05 0)
(-0.00595059 -0.000206442 0)
(-0.00272571 -0.000392539 0)
(0.000999332 -0.000439915 0)
(0.00406873 -0.000369864 0)
(0.0056908 -0.000190293 0)
(0.00556169 1.60837e-05 0)
(0.00396846 0.000171303 0)
(0.00162594 0.000239453 0)
(-0.000827914 0.000228453 0)
(-0.00289034 0.000186187 0)
(-0.00444154 0.000139352 0)
(-0.00567647 0.000127497 0)
(-0.00684215 0.000141693 0)
(-0.0078003 0.000135084 0)
(-0.007911 4.87739e-05 0)
(-0.00642123 -0.000155733 0)
(-0.00288303 -0.000415037 0)
(0.00179815 -0.000501265 0)
(0.00561111 -0.000399695 0)
(0.00705176 -0.000132423 0)
(0.00583858 0.000147357 0)
(0.00307822 0.000268516 0)
(0.000201146 0.000254814 0)
(-0.00199454 0.000179552 0)
(-0.00329383 9.89048e-05 0)
(-0.00387835 4.18991e-05 0)
(-0.00401794 1.06503e-05 0)
(-0.00392155 -7.36702e-06 0)
(-0.00371628 -1.50512e-05 0)
(-0.0034715 -1.76626e-05 0)
(-0.00322116 -1.78925e-05 0)
(-0.00297989 -1.71373e-05 0)
(-0.00275302 -1.60653e-05 0)
(-0.00254189 -1.49492e-05 0)
(-0.00234672 -1.39145e-05 0)
(-0.00216818 -1.28694e-05 0)
(-0.00200898 -1.16961e-05 0)
(-0.00187557 -9.88931e-06 0)
(-0.00177823 -7.22197e-06 0)
(-0.00173439 -3.0356e-06 0)
(-0.00176159 3.10469e-06 0)
(-0.00188453 1.16138e-05 0)
(-0.00208926 1.93417e-05 0)
(-0.00232665 2.05613e-05 0)
(-0.00238575 7.14017e-06 0)
(-0.00213755 -2.49239e-05 0)
(-0.00143355 -4.94735e-05 0)
(-0.000814596 -5.4404e-05 0)
(-0.00017827 -2.39996e-05 0)
(-0.000413176 4.66039e-06 0)
)
;
    }
    bottomWall
    {
        type            calculated;
        value           nonuniform List<vector> 
800
(
(-0.0353512 0.00216563 0)
(-0.0160361 0.000524981 0)
(-0.0105896 0.000100575 0)
(-0.00845421 3.46093e-05 0)
(-0.00748956 1.97038e-05 0)
(-0.00685327 1.60332e-05 0)
(-0.00634385 1.32334e-05 0)
(-0.00593201 1.07841e-05 0)
(-0.00559681 8.98344e-06 0)
(-0.0053175 7.68365e-06 0)
(-0.00507952 6.69862e-06 0)
(-0.00487345 5.92013e-06 0)
(-0.00469283 5.28927e-06 0)
(-0.00453294 4.76915e-06 0)
(-0.00439018 4.33418e-06 0)
(-0.00426179 3.96588e-06 0)
(-0.00414559 3.65059e-06 0)
(-0.00403982 3.3781e-06 0)
(-0.00394308 3.14058e-06 0)
(-0.0038542 2.93202e-06 0)
(-0.00377223 2.74765e-06 0)
(-0.00369634 2.5837e-06 0)
(-0.00362586 2.43712e-06 0)
(-0.00356022 2.30543e-06 0)
(-0.0034989 2.18659e-06 0)
(-0.00344149 2.07892e-06 0)
(-0.0033876 1.98098e-06 0)
(-0.00333691 1.89161e-06 0)
(-0.00328914 1.80978e-06 0)
(-0.00324403 1.73464e-06 0)
(-0.00320136 1.66544e-06 0)
(-0.00316093 1.60156e-06 0)
(-0.00312256 1.54244e-06 0)
(-0.0030861 1.4876e-06 0)
(-0.0030514 1.43661e-06 0)
(-0.00301834 1.3891e-06 0)
(-0.0029868 1.34475e-06 0)
(-0.00295667 1.30328e-06 0)
(-0.00292787 1.26441e-06 0)
(-0.0029003 1.22793e-06 0)
(-0.00287389 1.19363e-06 0)
(-0.00284856 1.16132e-06 0)
(-0.00282425 1.13089e-06 0)
(-0.00280091 1.10207e-06 0)
(-0.00277846 1.07496e-06 0)
(-0.00275687 1.04902e-06 0)
(-0.00273607 1.02491e-06 0)
(-0.00271605 1.00118e-06 0)
(-0.00269673 9.79852e-07 0)
(-0.00267812 9.57094e-07 0)
(-0.00266255 9.38419e-07 0)
(-0.00264969 9.27824e-07 0)
(-0.00263699 9.14279e-07 0)
(-0.00262449 8.99817e-07 0)
(-0.00261218 8.8625e-07 0)
(-0.00260004 8.7334e-07 0)
(-0.00258809 8.60734e-07 0)
(-0.0025763 8.4839e-07 0)
(-0.00256468 8.36335e-07 0)
(-0.00255323 8.24563e-07 0)
(-0.00254193 8.13059e-07 0)
(-0.00253079 8.01809e-07 0)
(-0.00251981 7.90805e-07 0)
(-0.00250897 7.80039e-07 0)
(-0.00249828 7.69503e-07 0)
(-0.00248773 7.5919e-07 0)
(-0.00247733 7.49092e-07 0)
(-0.00246706 7.39203e-07 0)
(-0.00245692 7.29516e-07 0)
(-0.00244692 7.20026e-07 0)
(-0.00243705 7.10725e-07 0)
(-0.0024273 7.0161e-07 0)
(-0.00241767 6.92674e-07 0)
(-0.00240817 6.83912e-07 0)
(-0.00239879 6.7532e-07 0)
(-0.00238952 6.66892e-07 0)
(-0.00238037 6.58625e-07 0)
(-0.00237133 6.50512e-07 0)
(-0.0023624 6.42551e-07 0)
(-0.00235358 6.34736e-07 0)
(-0.00234486 6.27064e-07 0)
(-0.00233625 6.19531e-07 0)
(-0.00232775 6.12134e-07 0)
(-0.00231934 6.04868e-07 0)
(-0.00231103 5.97731e-07 0)
(-0.00230282 5.90719e-07 0)
(-0.0022947 5.83829e-07 0)
(-0.00228668 5.77059e-07 0)
(-0.00227875 5.70404e-07 0)
(-0.00227091 5.63863e-07 0)
(-0.00226316 5.57432e-07 0)
(-0.00225549 5.5111e-07 0)
(-0.00224792 5.44893e-07 0)
(-0.00224042 5.38778e-07 0)
(-0.00223301 5.32764e-07 0)
(-0.00222568 5.26847e-07 0)
(-0.00221844 5.21026e-07 0)
(-0.00221127 5.15297e-07 0)
(-0.00220418 5.09659e-07 0)
(-0.00219716 5.04108e-07 0)
(-0.00219023 4.98642e-07 0)
(-0.00218336 4.93259e-07 0)
(-0.00217657 4.87957e-07 0)
(-0.00216985 4.82734e-07 0)
(-0.00216321 4.77587e-07 0)
(-0.00215663 4.72515e-07 0)
(-0.00215012 4.67517e-07 0)
(-0.00214368 4.6259e-07 0)
(-0.00213731 4.57734e-07 0)
(-0.002131 4.52946e-07 0)
(-0.00212476 4.48227e-07 0)
(-0.00211858 4.43575e-07 0)
(-0.00211247 4.38989e-07 0)
(-0.00210642 4.34468e-07 0)
(-0.00210043 4.30012e-07 0)
(-0.0020945 4.25619e-07 0)
(-0.00208863 4.21289e-07 0)
(-0.00208282 4.1702e-07 0)
(-0.00207707 4.12812e-07 0)
(-0.00207137 4.08664e-07 0)
(-0.00206573 4.04575e-07 0)
(-0.00206015 4.00544e-07 0)
(-0.00205462 3.96569e-07 0)
(-0.00204915 3.9265e-07 0)
(-0.00204373 3.88787e-07 0)
(-0.00203836 3.84976e-07 0)
(-0.00203304 3.8122e-07 0)
(-0.00202778 3.77515e-07 0)
(-0.00202256 3.73861e-07 0)
(-0.0020174 3.70255e-07 0)
(-0.00201228 3.66698e-07 0)
(-0.00200722 3.63187e-07 0)
(-0.0020022 3.59724e-07 0)
(-0.00199722 3.56306e-07 0)
(-0.0019923 3.52932e-07 0)
(-0.00198742 3.49602e-07 0)
(-0.00198259 3.46318e-07 0)
(-0.0019778 3.43074e-07 0)
(-0.00197305 3.39877e-07 0)
(-0.00196835 3.36716e-07 0)
(-0.00196369 3.33609e-07 0)
(-0.00195908 3.30525e-07 0)
(-0.00195451 3.27509e-07 0)
(-0.00194997 3.24492e-07 0)
(-0.00194548 3.21578e-07 0)
(-0.00194103 3.18611e-07 0)
(-0.00193662 3.15815e-07 0)
(-0.00193225 3.12867e-07 0)
(-0.00192791 3.1018e-07 0)
(-0.00192362 3.07159e-07 0)
(-0.00192002 3.0449e-07 0)
(-0.00191708 3.03086e-07 0)
(-0.00191413 3.01383e-07 0)
(-0.00191118 2.99436e-07 0)
(-0.00190823 2.9751e-07 0)
(-0.00190528 2.95641e-07 0)
(-0.00190232 2.93807e-07 0)
(-0.00189937 2.91973e-07 0)
(-0.0018964 2.90141e-07 0)
(-0.00189344 2.88322e-07 0)
(-0.00189048 2.86503e-07 0)
(-0.00188751 2.84694e-07 0)
(-0.00188454 2.82902e-07 0)
(-0.00188157 2.81109e-07 0)
(-0.0018786 2.7934e-07 0)
(-0.00187562 2.77567e-07 0)
(-0.00187264 2.75799e-07 0)
(-0.00186966 2.74043e-07 0)
(-0.00186668 2.72296e-07 0)
(-0.0018637 2.70558e-07 0)
(-0.00186072 2.6882e-07 0)
(-0.00185773 2.67092e-07 0)
(-0.00185474 2.65382e-07 0)
(-0.00185175 2.63669e-07 0)
(-0.00184876 2.61978e-07 0)
(-0.00184577 2.60285e-07 0)
(-0.00184277 2.586e-07 0)
(-0.00183977 2.56928e-07 0)
(-0.00183678 2.55256e-07 0)
(-0.00183378 2.53595e-07 0)
(-0.00183078 2.51953e-07 0)
(-0.00182777 2.50307e-07 0)
(-0.00182477 2.4869e-07 0)
(-0.00182176 2.47069e-07 0)
(-0.00181876 2.4546e-07 0)
(-0.00181575 2.43865e-07 0)
(-0.00181274 2.42272e-07 0)
(-0.00180973 2.40695e-07 0)
(-0.00180672 2.39133e-07 0)
(-0.0018037 2.37579e-07 0)
(-0.00180069 2.36047e-07 0)
(-0.00179767 2.34521e-07 0)
(-0.00179465 2.33007e-07 0)
(-0.00179163 2.31505e-07 0)
(-0.00178861 2.30019e-07 0)
(-0.00178559 2.28549e-07 0)
(-0.00178256 2.27086e-07 0)
(-0.00177954 2.25641e-07 0)
(-0.00177651 2.24215e-07 0)
(-0.00177348 2.22804e-07 0)
(-0.00177045 2.21421e-07 0)
(-0.00176741 2.20044e-07 0)
(-0.00176438 2.18684e-07 0)
(-0.00176134 2.17343e-07 0)
(-0.0017583 2.16011e-07 0)
(-0.00175525 2.14703e-07 0)
(-0.00175221 2.13413e-07 0)
(-0.00174916 2.12144e-07 0)
(-0.00174611 2.10898e-07 0)
(-0.00174305 2.09668e-07 0)
(-0.00174 2.08458e-07 0)
(-0.00173694 2.07266e-07 0)
(-0.00173387 2.06089e-07 0)
(-0.00173081 2.04929e-07 0)
(-0.00172773 2.03786e-07 0)
(-0.00172466 2.02682e-07 0)
(-0.00172158 2.01595e-07 0)
(-0.0017185 2.00523e-07 0)
(-0.00171541 1.99465e-07 0)
(-0.00171232 1.98435e-07 0)
(-0.00170922 1.97427e-07 0)
(-0.00170612 1.96437e-07 0)
(-0.00170301 1.95465e-07 0)
(-0.0016999 1.94522e-07 0)
(-0.00169678 1.93585e-07 0)
(-0.00169365 1.92717e-07 0)
(-0.00169052 1.91824e-07 0)
(-0.00168738 1.91034e-07 0)
(-0.00168424 1.90143e-07 0)
(-0.00168108 1.89481e-07 0)
(-0.00167792 1.88531e-07 0)
(-0.00167475 1.88127e-07 0)
(-0.00167158 1.86911e-07 0)
(-0.00166837 1.87098e-07 0)
(-0.0016652 1.85212e-07 0)
(-0.00166195 1.86668e-07 0)
(-0.00165878 1.83016e-07 0)
(-0.00165547 1.87384e-07 0)
(-0.00165235 1.79511e-07 0)
(-0.0016489 1.9051e-07 0)
(-0.0016459 1.72985e-07 0)
(-0.0016422 1.98649e-07 0)
(-0.00163948 1.59929e-07 0)
(-0.00163531 2.16799e-07 0)
(-0.00163316 1.33754e-07 0)
(-0.00162814 2.53288e-07 0)
(-0.00162699 8.38671e-08 0)
(-0.00162065 3.17317e-07 0)
(-0.00162096 4.9287e-09 0)
(-0.0016129 3.49396e-07 0)
(-0.0353513 -0.00216561 0)
(-0.0160372 -0.000524932 0)
(-0.0105922 -0.000100517 0)
(-0.00845848 -3.4553e-05 0)
(-0.00749557 -1.96466e-05 0)
(-0.00686107 -1.5975e-05 0)
(-0.00635344 -1.31752e-05 0)
(-0.00594336 -1.0726e-05 0)
(-0.00560986 -8.92567e-06 0)
(-0.00533221 -7.62633e-06 0)
(-0.00509583 -6.64196e-06 0)
(-0.00489128 -5.86437e-06 0)
(-0.0047121 -5.23465e-06 0)
(-0.00455355 -4.71585e-06 0)
(-0.00441205 -4.28225e-06 0)
(-0.00428482 -3.91519e-06 0)
(-0.00416968 -3.60082e-06 0)
(-0.00406491 -3.32873e-06 0)
(-0.00396911 -3.09093e-06 0)
(-0.00388113 -2.88119e-06 0)
(-0.00380004 -2.6946e-06 0)
(-0.00372506 -2.52722e-06 0)
(-0.00365553 -2.3758e-06 0)
(-0.00359092 -2.23767e-06 0)
(-0.00353075 -2.11057e-06 0)
(-0.00347464 -1.99258e-06 0)
(-0.00342226 -1.88194e-06 0)
(-0.00337333 -1.7772e-06 0)
(-0.00332762 -1.67682e-06 0)
(-0.00328494 -1.57964e-06 0)
(-0.00324513 -1.48405e-06 0)
(-0.00320808 -1.38919e-06 0)
(-0.00317369 -1.29296e-06 0)
(-0.00314193 -1.19493e-06 0)
(-0.00311275 -1.09196e-06 0)
(-0.00308621 -9.84204e-07 0)
(-0.00306229 -8.67068e-07 0)
(-0.00304123 -7.40283e-07 0)
(-0.00302287 -5.99915e-07 0)
(-0.00300803 -4.38341e-07 0)
(-0.00299579 -2.65553e-07 0)
(-0.00298872 -3.6039e-08 0)
(-0.00298324 1.77879e-07 0)
(-0.00298715 5.51993e-07 0)
(-0.00298869 7.42527e-07 0)
(-0.00301035 1.46992e-06 0)
(-0.00301792 1.42425e-06 0)
(-0.00306972 3.56709e-06 0)
(-0.00309619 -4.80704e-06 0)
(-0.00293724 0.000217985 0)
(2.26168e-05 -9.44899e-06 0)
(2.17289e-05 -4.09585e-05 0)
(1.70536e-05 -6.02146e-05 0)
(1.19482e-05 -6.68522e-05 0)
(5.65013e-06 -6.0743e-05 0)
(-4.62187e-06 -3.81697e-05 0)
(-2.30951e-05 7.67099e-06 0)
(-5.52724e-05 8.68791e-05 0)
(-9.76408e-05 0.000207094 0)
(-0.000128426 0.000359105 0)
(-0.000123381 0.000504487 0)
(-8.19828e-05 0.000596876 0)
(-2.53126e-05 0.000618125 0)
(3.08138e-05 0.000572185 0)
(7.78958e-05 0.00047151 0)
(0.00011533 0.000327495 0)
(0.00014237 0.000152817 0)
(0.000154746 -4.52222e-05 0)
(0.000157329 -0.000244563 0)
(0.000154695 -0.000439995 0)
(0.000147436 -0.000628384 0)
(0.00013661 -0.000805232 0)
(0.000123396 -0.000967778 0)
(0.000108522 -0.00111445 0)
(9.23567e-05 -0.00124423 0)
(7.51233e-05 -0.0013563 0)
(5.7114e-05 -0.00145001 0)
(3.88088e-05 -0.00152501 0)
(2.08677e-05 -0.00158143 0)
(4.02378e-06 -0.00162007 0)
(-1.10594e-05 -0.0016424 0)
(-2.40562e-05 -0.0016505 0)
(-3.48844e-05 -0.00164643 0)
(-4.33941e-05 -0.00163266 0)
(-4.99471e-05 -0.0016114 0)
(-5.49491e-05 -0.00158445 0)
(-5.89757e-05 -0.00155315 0)
(-6.25719e-05 -0.00151834 0)
(-6.6143e-05 -0.00148046 0)
(-6.99337e-05 -0.00143962 0)
(-7.4047e-05 -0.00139573 0)
(-7.84436e-05 -0.00134859 0)
(-8.29239e-05 -0.00129797 0)
(-8.71205e-05 -0.00124375 0)
(-9.0511e-05 -0.00118593 0)
(-9.24357e-05 -0.0011248 0)
(-9.21598e-05 -0.00106102 0)
(-8.90403e-05 -0.000995685 0)
(-8.27237e-05 -0.000930266 0)
(-7.32733e-05 -0.000866505 0)
(-6.12576e-05 -0.000806148 0)
(-4.76605e-05 -0.000750656 0)
(-3.36513e-05 -0.000701029 0)
(-2.03316e-05 -0.000657788 0)
(-8.54212e-06 -0.00062105 0)
(1.24131e-06 -0.000590646 0)
(8.94127e-06 -0.000566256 0)
(1.48213e-05 -0.000547546 0)
(1.93396e-05 -0.000534222 0)
(2.30251e-05 -0.000526029 0)
(2.64449e-05 -0.00052273 0)
(3.00946e-05 -0.000524159 0)
(3.4197e-05 -0.000530224 0)
(3.86167e-05 -0.000540723 0)
(4.29954e-05 -0.000555274 0)
(4.67888e-05 -0.0005732 0)
(4.93743e-05 -0.000593457 0)
(5.00886e-05 -0.00061455 0)
(4.84004e-05 -0.000634525 0)
(4.39086e-05 -0.00065106 0)
(3.6726e-05 -0.000661582 0)
(2.78686e-05 -0.000664001 0)
(1.86607e-05 -0.000657801 0)
(9.81384e-06 -0.000643782 0)
(1.16605e-06 -0.000623007 0)
(-7.58157e-06 -0.000596267 0)
(-1.64816e-05 -0.000564036 0)
(-2.55049e-05 -0.000526664 0)
(-3.47453e-05 -0.000484544 0)
(-4.4708e-05 -0.000437945 0)
(-5.61242e-05 -0.000387078 0)
(-6.97133e-05 -0.000331945 0)
(-8.57731e-05 -0.000271939 0)
(-0.000103352 -0.000205861 0)
(-0.000120524 -0.000133753 0)
(-0.000135404 -5.80501e-05 0)
(-0.000146717 1.88587e-05 0)
(-0.000154079 9.50466e-05 0)
(-0.000158023 0.000168992 0)
(-0.00015969 0.00024022 0)
(-0.000159902 0.000308689 0)
(-0.000159111 0.000374511 0)
(-0.000157459 0.000437715 0)
(-0.000154958 0.00049823 0)
(-0.000151567 0.000555925 0)
(-0.000147217 0.000610629 0)
(-0.000141843 0.000662148 0)
(-0.000135433 0.000710275 0)
(-0.000128058 0.000754825 0)
(-0.000119895 0.000795668 0)
(-0.000111221 0.000832756 0)
(-0.000102384 0.000866147 0)
(-9.37523e-05 0.000896016 0)
(-8.56384e-05 0.000922651 0)
(-7.82218e-05 0.000946402 0)
(-7.15101e-05 0.000967614 0)
(-6.53571e-05 0.000986546 0)
(-5.95305e-05 0.00100333 0)
(-5.37924e-05 0.00101797 0)
(-4.79586e-05 0.00103038 0)
(-4.1925e-05 0.00104045 0)
(-3.56605e-05 0.00104807 0)
(-2.91572e-05 0.00105313 0)
(-2.24416e-05 0.00105558 0)
(-1.55589e-05 0.00105536 0)
(-8.55255e-06 0.00105251 0)
(-1.41973e-06 0.00104704 0)
(5.79637e-06 0.00103897 0)
(1.30565e-05 0.00102836 0)
(2.03126e-05 0.00101528 0)
(2.75038e-05 0.000999829 0)
(3.45436e-05 0.000982114 0)
(4.13088e-05 0.000962276 0)
(4.76379e-05 0.000940512 0)
(5.33433e-05 0.000917089 0)
(5.82308e-05 0.000892362 0)
(6.21225e-05 0.000866774 0)
(6.48836e-05 0.000840849 0)
(6.64529e-05 0.000815173 0)
(6.68645e-05 0.000790349 0)
(6.62527e-05 0.000766942 0)
(6.4835e-05 0.000745412 0)
(6.28721e-05 0.000726059 0)
(6.06167e-05 0.000708998 0)
(5.826e-05 0.000694147 0)
(5.58784e-05 0.000681263 0)
(5.33883e-05 0.000670011 0)
(5.0528e-05 0.000660065 0)
(4.68748e-05 0.000651226 0)
(4.19001e-05 0.000643524 0)
(3.50652e-05 0.000637285 0)
(2.607e-05 0.000633065 0)
(1.4851e-05 0.000631408 0)
(1.45864e-06 0.000632862 0)
(-1.37696e-05 0.000637982 0)
(-3.01547e-05 0.000647076 0)
(-4.68261e-05 0.00066022 0)
(-6.27251e-05 0.000677272 0)
(-7.66255e-05 0.00069782 0)
(-8.72162e-05 0.000721098 0)
(-9.32567e-05 0.000745925 0)
(-9.37813e-05 0.000770765 0)
(-8.82715e-05 0.0007939 0)
(-7.67251e-05 0.000813627 0)
(-5.95788e-05 0.000828435 0)
(-3.75107e-05 0.000837163 0)
(-1.16922e-05 0.000838842 0)
(1.67412e-05 0.000833333 0)
(4.71111e-05 0.000820511 0)
(7.85087e-05 0.000800359 0)
(0.000110105 0.000773028 0)
(0.000141155 0.000738807 0)
(0.000170976 0.00069811 0)
(0.000198951 0.000651441 0)
(0.000224528 0.000599384 0)
(0.000247206 0.000542594 0)
(0.000266537 0.000481795 0)
(0.000282132 0.000417773 0)
(0.000293668 0.000351379 0)
(0.000300901 0.000283517 0)
(0.00030368 0.000215136 0)
(0.000301966 0.000147211 0)
(0.000295853 8.0708e-05 0)
(0.000285476 1.65419e-05 0)
(0.000271066 -4.43412e-05 0)
(0.000253124 -0.000101123 0)
(0.000232166 -0.000153182 0)
(0.00020871 -0.000199952 0)
(0.000183355 -0.000241016 0)
(0.000156741 -0.000276098 0)
(0.000129524 -0.000305065 0)
(0.000102346 -0.000327904 0)
(7.58328e-05 -0.000344709 0)
(5.05813e-05 -0.000355674 0)
(2.71483e-05 -0.000361086 0)
(6.05403e-06 -0.000361331 0)
(-1.2196e-05 -0.000356899 0)
(-2.70961e-05 -0.000348359 0)
(-3.83766e-05 -0.000336488 0)
(-4.60352e-05 -0.000322225 0)
(-5.01977e-05 -0.000306787 0)
(-5.13854e-05 -0.000291873 0)
(-5.08808e-05 -0.000280103 0)
(-5.13273e-05 -0.000275887 0)
(-5.77861e-05 -0.000287164 0)
(-7.97255e-05 -0.00032807 0)
(-0.000135221 -0.000421211 0)
(-0.000258699 -0.000599528 0)
(-0.000499364 -0.000892812 0)
(-0.000852273 -0.00127412 0)
(3.1112e-06 -2.18628e-05 0)
(2.84977e-05 -1.30898e-05 0)
(2.70996e-05 5.61207e-06 0)
(4.33448e-06 2.01394e-05 0)
(-2.78704e-05 2.37599e-05 0)
(-5.79719e-05 1.80438e-05 0)
(-7.96105e-05 6.76103e-06 0)
(-8.94484e-05 -6.44275e-06 0)
(-8.71843e-05 -1.87571e-05 0)
(-7.41219e-05 -2.85458e-05 0)
(-5.2444e-05 -3.49768e-05 0)
(-2.48089e-05 -3.78348e-05 0)
(5.88042e-06 -3.75582e-05 0)
(3.72645e-05 -3.46514e-05 0)
(6.75837e-05 -2.98966e-05 0)
(9.47128e-05 -2.36479e-05 0)
(0.000117385 -1.62956e-05 0)
(0.000134957 -8.10897e-06 0)
(0.000146321 1.25837e-06 0)
(0.000149991 1.20188e-05 0)
(0.000144273 2.42044e-05 0)
(0.000127677 3.73912e-05 0)
(9.94069e-05 5.07326e-05 0)
(5.97344e-05 6.29677e-05 0)
(9.88285e-06 7.303e-05 0)
(-5.14103e-05 7.81035e-05 0)
(-0.000116325 7.68639e-05 0)
(-0.000188321 5.90701e-05 0)
(-0.00026116 -1.36739e-05 0)
(-0.000266774 -0.000113052 0)
(-0.000266978 -8.36152e-05 0)
(-0.000324173 9.4535e-06 0)
(-0.000233342 0.000188851 0)
(-0.0002038 0.000393429 0)
(-0.000360851 0.000421911 0)
(-0.000351602 -0.000131151 0)
(0.000141024 -0.000585867 0)
(0.000719202 -0.000554528 0)
(0.00091745 -0.000294316 0)
(0.00105221 -0.000305553 0)
(0.00125873 -0.000266539 0)
(0.00138495 -0.000225838 0)
(0.00150918 -0.000203661 0)
(0.0015952 -0.000147715 0)
(0.00163848 -0.000103214 0)
(0.00165316 -5.12518e-05 0)
(0.00162742 -6.2366e-06 0)
(0.00157865 2.86167e-05 0)
(0.00150712 6.25339e-05 0)
(0.00141387 9.06763e-05 0)
(0.00130299 0.000116051 0)
(0.00117476 0.000138409 0)
(0.00103218 0.000155978 0)
(0.000879091 0.000168002 0)
(0.000720748 0.000172641 0)
(0.000564002 0.000169227 0)
(0.000415336 0.000158557 0)
(0.000279791 0.000142492 0)
(0.000160511 0.000123949 0)
(5.78705e-05 0.000106187 0)
(-3.0739e-05 9.18658e-05 0)
(-0.000109997 8.30733e-05 0)
(-0.000184648 8.08387e-05 0)
(-0.000257914 8.58668e-05 0)
(-0.000337354 0.000100042 0)
(-0.000431634 0.000123348 0)
(-0.000546907 0.000155209 0)
(-0.000689591 0.000194289 0)
(-0.000866333 0.000237471 0)
(-0.00108068 0.000279284 0)
(-0.00133098 0.000313558 0)
(-0.00160903 0.000331249 0)
(-0.00189864 0.000323378 0)
(-0.0021753 0.00028091 0)
(-0.00240534 0.000199134 0)
(-0.00255488 8.48618e-05 0)
(-0.00260701 -5.91015e-05 0)
(-0.00253361 -0.000224563 0)
(-0.00232934 -0.000396761 0)
(-0.0019945 -0.000562281 0)
(-0.00154071 -0.000707013 0)
(-0.000981006 -0.0008083 0)
(-0.000294228 -0.000801748 0)
(0.000405623 -0.000467072 0)
(0.000696239 9.15782e-05 0)
(0.000543807 0.000202533 0)
(0.000496071 4.78377e-05 0)
(0.00049037 2.46696e-05 0)
(0.00049257 9.34163e-06 0)
(0.000500625 -6.71162e-06 0)
(0.000497914 6.40665e-06 0)
(0.000481257 1.93085e-05 0)
(0.000446549 3.86086e-05 0)
(0.000396602 5.57e-05 0)
(0.000332705 7.0413e-05 0)
(0.000258407 7.96618e-05 0)
(0.000178798 8.25321e-05 0)
(9.9224e-05 7.71958e-05 0)
(2.34599e-05 5.59241e-05 0)
(-1.28586e-05 1.35963e-05 0)
(4.96342e-07 8.79392e-06 0)
(3.49585e-06 3.72884e-05 0)
(1.38905e-05 7.98e-05 0)
(2.96999e-05 0.000144682 0)
(3.9966e-05 0.000222385 0)
(3.07923e-05 0.000288723 0)
(3.64211e-06 0.000319676 0)
(-2.84963e-05 0.000310362 0)
(-4.68485e-05 0.000275321 0)
(-3.12421e-05 0.00024972 0)
(3.52785e-05 0.000274654 0)
(0.00012976 0.000377772 0)
(0.000140352 0.000515355 0)
(-1.45182e-05 0.000519656 0)
(-0.000240459 0.000276932 0)
(-0.000363306 -0.00015493 0)
(-0.000379904 -0.000618178 0)
(-0.000332696 -0.0010342 0)
(-0.000250545 -0.00137405 0)
(-0.000157113 -0.00161625 0)
(-6.61588e-05 -0.00176444 0)
(1.93557e-05 -0.00182839 0)
(0.000102695 -0.00181875 0)
(0.000189958 -0.00173408 0)
(0.000276754 -0.00156619 0)
(0.000341196 -0.00131613 0)
(0.000342104 -0.00100797 0)
(0.000249853 -0.00071225 0)
(9.64376e-05 -0.000519211 0)
(-3.75747e-05 -0.000465732 0)
(-0.000132777 -0.000522294 0)
(-0.000196155 -0.000649433 0)
(-0.000225258 -0.000805425 0)
(-0.00023831 -0.000953978 0)
(-0.000236166 -0.00108904 0)
(-0.000202297 -0.00120542 0)
(-0.000141028 -0.00128371 0)
(-7.62707e-05 -0.00132557 0)
(-1.84609e-05 -0.00135469 0)
(3.38613e-05 -0.00139113 0)
(8.5278e-05 -0.00143722 0)
(0.000131345 -0.0014798 0)
(0.000146641 -0.00150817 0)
(0.0001042 -0.00153388 0)
(-1.78274e-05 -0.00159117 0)
(-0.000180924 -0.00171632 0)
(-0.000310728 -0.00189087 0)
(-0.000377005 -0.00206483 0)
(-0.000380016 -0.00218048 0)
(-0.000332721 -0.00220901 0)
(-0.000238952 -0.00215143 0)
(-0.000104535 -0.00202546 0)
(7.59061e-05 -0.00184743 0)
(0.000295737 -0.00159608 0)
(0.000517559 -0.00121528 0)
(0.000708394 -0.000750307 0)
(0.000807321 -0.000224701 0)
(0.000679649 0.000344567 0)
(0.000418748 0.000802563 0)
(0.000303112 0.00110571 0)
(0.000391991 0.00132865 0)
(0.000454936 0.00159626 0)
(0.000211152 0.00216441 0)
(-0.000309278 0.00247758 0)
(-9.55389e-05 0.00271686 0)
(0.00222282 0.00415523 0)
(0.00298587 0.0045872 0)
(0.00242218 0.006996 0)
(0.000930179 0.0070979 0)
(0.000834967 0.00694688 0)
(0.000710907 0.00740584 0)
(0.000226023 0.00753274 0)
(0.00016502 0.00743916 0)
(9.86383e-05 0.00750501 0)
(-6.65058e-05 0.00745185 0)
(-6.60138e-05 0.00735371 0)
(-9.61326e-05 0.00731305 0)
(-0.000143388 0.00722165 0)
(-0.000129338 0.00713229 0)
(-0.000137981 0.00706329 0)
(-0.000143464 0.00697685 0)
(-0.000129408 0.00690023 0)
(-0.000127444 0.00683159 0)
(-0.000121543 0.00675912 0)
(-0.000111552 0.00669412 0)
(-0.000107923 0.00663223 0)
(-0.000103302 0.00656993 0)
(-9.99463e-05 0.00651073 0)
(-0.000100733 0.00645129 0)
(-0.000102712 0.00639029 0)
(-0.000107296 0.00632821 0)
(-0.000114797 0.00626297 0)
(-0.000123873 0.006194 0)
(-0.000134826 0.00612112 0)
(-0.000147119 0.00604347 0)
(-0.000159851 0.00596112 0)
(-0.000172711 0.0058743 0)
(-0.000185029 0.00578323 0)
(-0.000196171 0.00568861 0)
(-0.000205799 0.00559124 0)
(-0.000213542 0.00549198 0)
(-0.000219192 0.00539184 0)
(-0.000222753 0.00529174 0)
(-0.000224306 0.00519255 0)
(-0.00022406 0.005095 0)
(-0.000222326 0.00499968 0)
(-0.000219446 0.00490696 0)
(-0.000215782 0.00481709 0)
(-0.000211692 0.00473012 0)
(-0.00020749 0.00464597 0)
(-0.000203435 0.00456447 0)
(-0.000199728 0.00448536 0)
(-0.000196503 0.00440836 0)
(-0.000193834 0.00433317 0)
(-0.000191738 0.00425952 0)
(-0.000190194 0.00418716 0)
(-0.000189151 0.00411587 0)
(-0.000188544 0.0040455 0)
(-0.000188306 0.00397594 0)
(-0.000188378 0.00390709 0)
(-0.000188715 0.00383891 0)
(-0.000189293 0.00377134 0)
(-0.000190102 0.00370435 0)
(-0.000191146 0.0036379 0)
(-0.00019244 0.00357194 0)
(-0.000194003 0.00350641 0)
(-0.000195849 0.00344124 0)
(-0.00019799 0.00337637 0)
(-0.000200424 0.0033117 0)
(-0.000203141 0.00324718 0)
(-0.000206116 0.00318274 0)
(-0.000209314 0.00311832 0)
(-0.00021269 0.0030539 0)
(-0.000216189 0.00298946 0)
(-0.000219754 0.002925 0)
(-0.000223324 0.00286055 0)
(-0.000226838 0.00279615 0)
(-0.000230239 0.00273186 0)
(-0.000233473 0.00266777 0)
(-0.000236491 0.00260395 0)
(-0.000239249 0.00254052 0)
(-0.000241706 0.00247757 0)
(-0.000243826 0.00241523 0)
(-0.000245574 0.0023536 0)
(-0.000246919 0.00229281 0)
(-0.00024783 0.00223298 0)
(-0.000248275 0.00217424 0)
(-0.000248226 0.00211672 0)
(-0.000247658 0.00206054 0)
(-0.000246549 0.00200584 0)
(-0.000244878 0.00195271 0)
(-0.000242629 0.00190127 0)
(-0.000239778 0.00185158 0)
(-0.000236294 0.00180368 0)
(-0.000232131 0.00175762 0)
(-0.000227244 0.0017134 0)
(-0.000221615 0.00167107 0)
(-0.000215297 0.00163072 0)
(-0.000208473 0.00159248 0)
(-0.000201523 0.0015565 0)
(-0.000195093 0.00152293 0)
(-0.000190136 0.00149185 0)
(-0.000187909 0.00146309 0)
(-0.00018986 0.00143605 0)
(-0.000197352 0.00140941 0)
(-0.000211164 0.00138085 0)
(-0.000230814 0.00134702 0)
(-0.000253891 0.0013039 0)
(-0.000275771 0.00124796 0)
(-0.000290099 0.0011777 0)
(-0.000290115 0.00109514 0)
(-0.000270531 0.00100593 0)
(-0.000229515 0.000918834 0)
(-0.000169811 0.00084767 0)
(-9.566e-05 0.00080462 0)
(-1.2473e-05 0.000781527 0)
(6.55443e-05 0.000763574 0)
(0.000125124 0.000748103 0)
(0.000166398 0.000735143 0)
(0.000197303 0.000714908 0)
(0.000227531 0.000679211 0)
(0.000266458 0.000631681 0)
(0.000313433 0.000583393 0)
(0.000354035 0.00056275 0)
(0.000373456 0.000607091 0)
(0.000341564 0.000700626 0)
(0.00023705 0.000789495 0)
(6.93288e-05 0.000833579 0)
(-0.000140302 0.000818478 0)
(-0.000372206 0.000749113 0)
(-0.000613591 0.000640275 0)
(-0.000859894 0.000506109 0)
(-0.00111158 0.000354494 0)
(-0.00137103 0.000188217 0)
(-0.00164077 7.31946e-06 0)
(-0.00192284 -0.000188671 0)
(-0.00221874 -0.000400465 0)
(-0.00253623 -0.000607289 0)
(-0.00283588 -0.00105896 0)
(-0.00294094 -0.00011901 0)
)
;
    }
    frontAndBack
    {
        type            empty;
    }
}


// ************************************************************************* //
