/*--------------------------------*- C++ -*----------------------------------*\
  =========                 |
  \\      /  F ield         | OpenFOAM: The Open Source CFD Toolbox
   \\    /   O peration     | Website:  https://openfoam.org
    \\  /    A nd           | Version:  7
     \\/     M anipulation  |
\*---------------------------------------------------------------------------*/
FoamFile
{
    version     2.0;
    format      ascii;
    class       surfaceScalarField;
    location    "0.18";
    object      ddtCorrDdt0(phi);
}
// * * * * * * * * * * * * * * * * * * * * * * * * * * * * * * * * * * * * * //

dimensions      [0 3 -2 0 0 0 0];

internalField   nonuniform List<scalar> 
139350
(
-4.63689e-10
4.65536e-10
-1.2166e-09
7.55688e-10
-1.85021e-09
6.37981e-10
-2.15336e-09
3.06078e-10
-2.15546e-09
5.42495e-12
-1.94405e-09
-2.08649e-10
-1.60528e-09
-3.36031e-10
-1.20898e-09
-3.94978e-10
-7.92024e-10
-4.14321e-10
-3.78233e-10
-4.14204e-10
3.3973e-11
-4.09481e-10
4.4469e-10
-4.1087e-10
8.69385e-10
-4.22632e-10
1.31795e-09
-4.47118e-10
1.79894e-09
-4.80856e-10
2.32581e-09
-5.23214e-10
2.89309e-09
-5.69586e-10
3.52013e-09
-6.19985e-10
4.19089e-09
-6.73207e-10
4.92835e-09
-7.2921e-10
5.72038e-09
-7.91786e-10
6.5859e-09
-8.59921e-10
7.52393e-09
-9.37392e-10
8.55527e-09
-1.0263e-09
9.67843e-09
-1.12595e-09
1.0928e-08
-1.24068e-09
1.22946e-08
-1.37052e-09
1.3821e-08
-1.51619e-09
1.55024e-08
-1.68203e-09
1.73748e-08
-1.86581e-09
1.94445e-08
-2.06918e-09
2.17437e-08
-2.29349e-09
2.42721e-08
-2.53091e-09
2.70698e-08
-2.78766e-09
3.01096e-08
-3.04304e-09
3.34313e-08
-3.30974e-09
3.69673e-08
-3.5351e-09
4.07408e-08
-3.76432e-09
4.45947e-08
-3.84923e-09
4.85335e-08
-3.93069e-09
5.21823e-08
-3.6446e-09
5.55112e-08
-3.31483e-09
5.77074e-08
-2.19483e-09
5.85513e-08
-8.18521e-10
5.6442e-08
2.1117e-09
5.03539e-08
6.11784e-09
3.70294e-08
1.33318e-08
1.2262e-08
2.47902e-08
-1.99153e-08
3.21713e-08
1.60816e-07
-1.8073e-07
-7.22897e-10
1.19068e-09
-2.37812e-09
2.41393e-09
-3.83874e-09
2.10329e-09
-4.2517e-09
7.22227e-10
-3.64299e-09
-5.99707e-10
-2.33258e-09
-1.51611e-09
-6.07405e-10
-2.05824e-09
1.31234e-09
-2.31341e-09
3.29459e-09
-2.39369e-09
5.27231e-09
-2.3924e-09
7.24164e-09
-2.37586e-09
9.21844e-09
-2.38775e-09
1.12431e-08
-2.44511e-09
1.33499e-08
-2.55225e-09
1.55669e-08
-2.69786e-09
1.79219e-08
-2.87414e-09
2.04189e-08
-3.06913e-09
2.3085e-08
-3.2783e-09
2.59109e-08
-3.50165e-09
2.89292e-08
-3.73864e-09
3.21386e-08
-4.00081e-09
3.55735e-08
-4.28893e-09
3.92514e-08
-4.61481e-09
4.3217e-08
-4.98618e-09
4.74959e-08
-5.40809e-09
5.21565e-08
-5.89149e-09
5.72269e-08
-6.44488e-09
6.2794e-08
-7.07253e-09
6.89018e-08
-7.79026e-09
7.56413e-08
-8.59845e-09
8.30785e-08
-9.50594e-09
9.13115e-08
-1.05201e-08
1.0041e-07
-1.16327e-08
1.1049e-07
-1.28564e-08
1.21604e-07
-1.41598e-08
1.33866e-07
-1.55596e-08
1.47297e-07
-1.69643e-08
1.61976e-07
-1.84342e-08
1.77822e-07
-1.96903e-08
1.94845e-07
-2.09448e-08
2.1266e-07
-2.1455e-08
2.31147e-07
-2.17862e-08
2.49163e-07
-2.0209e-08
2.66203e-07
-1.78312e-08
2.79675e-07
-1.13572e-08
2.86627e-07
-8.0202e-10
2.84576e-07
1.53901e-08
2.51371e-07
5.80194e-08
2.13849e-07
6.96846e-08
3.76599e-07
-1.933e-09
-5.69829e-10
1.76306e-09
-2.50216e-09
4.34949e-09
-4.55945e-09
4.16553e-09
-5.25761e-09
1.42378e-09
-4.22082e-09
-1.63271e-09
-1.81918e-09
-3.91464e-09
1.45994e-09
-5.33422e-09
5.20743e-09
-6.05959e-09
9.14874e-09
-6.33194e-09
1.31314e-08
-6.3756e-09
1.71162e-08
-6.35757e-09
2.11164e-08
-6.38798e-09
2.51871e-08
-6.51357e-09
2.93825e-08
-6.74583e-09
3.37493e-08
-7.06475e-09
3.83305e-08
-7.45085e-09
4.31413e-08
-7.88266e-09
4.82187e-08
-8.34732e-09
5.35616e-08
-8.84711e-09
5.92123e-08
-9.38016e-09
6.51801e-08
-9.96801e-09
7.15123e-08
-1.0615e-08
7.82421e-08
-1.13442e-08
8.54341e-08
-1.2172e-08
9.31376e-08
-1.31152e-08
1.01451e-07
-1.41943e-08
1.10436e-07
-1.5434e-08
1.20221e-07
-1.68463e-08
1.30896e-07
-1.84657e-08
1.42606e-07
-2.03008e-08
1.55475e-07
-2.23749e-08
1.69668e-07
-2.47066e-08
1.85332e-07
-2.72996e-08
2.02661e-07
-3.01732e-08
2.21806e-07
-3.33085e-08
2.42972e-07
-3.67121e-08
2.66313e-07
-4.03036e-08
2.91991e-07
-4.41021e-08
3.20115e-07
-4.78093e-08
3.5074e-07
-5.156e-08
3.83726e-07
-5.44367e-08
4.18938e-07
-5.69809e-08
4.55448e-07
-5.67178e-08
4.92608e-07
-5.49616e-08
5.2803e-07
-4.67761e-08
5.57168e-07
-2.99071e-08
5.81005e-07
-8.43834e-09
5.6432e-07
7.47293e-08
5.40971e-07
9.30221e-08
5.70025e-07
3.47546e-07
-3.16956e-10
2.08281e-09
-2.06603e-09
6.10195e-09
-4.46368e-09
6.56834e-09
-5.81095e-09
2.77463e-09
-5.1185e-09
-2.32121e-09
-2.41211e-09
-6.61779e-09
1.82108e-09
-9.56412e-09
7.02086e-09
-1.1258e-08
1.27367e-08
-1.20445e-08
1.86719e-08
-1.23114e-08
2.46937e-08
-1.23761e-08
3.07662e-08
-1.24604e-08
3.69276e-08
-1.26727e-08
4.32336e-08
-1.30499e-08
4.97407e-08
-1.3572e-08
5.65041e-08
-1.42095e-08
6.35507e-08
-1.49322e-08
7.09296e-08
-1.57175e-08
7.86501e-08
-1.65702e-08
8.67657e-08
-1.74862e-08
9.52958e-08
-1.84974e-08
1.04299e-07
-1.96118e-08
1.1382e-07
-2.0865e-08
1.23938e-07
-2.22831e-08
1.34717e-07
-2.38984e-08
1.46278e-07
-2.57439e-08
1.58706e-07
-2.78659e-08
1.72159e-07
-3.02882e-08
1.86763e-07
-3.30695e-08
2.02701e-07
-3.62322e-08
2.20147e-07
-3.98206e-08
2.39317e-07
-4.38688e-08
2.60417e-07
-4.84033e-08
2.83707e-07
-5.34512e-08
3.09422e-07
-5.90267e-08
3.3784e-07
-6.51165e-08
3.69233e-07
-7.16951e-08
4.03843e-07
-7.87013e-08
4.41946e-07
-8.59064e-08
4.83672e-07
-9.32762e-08
5.29105e-07
-9.98654e-08
5.78179e-07
-1.06037e-07
6.30245e-07
-1.08782e-07
6.8458e-07
-1.09266e-07
7.39416e-07
-1.01608e-07
7.89129e-07
-7.9587e-08
8.36858e-07
-5.61581e-08
8.45293e-07
6.63192e-08
8.31205e-07
1.07097e-07
7.0368e-07
6.97552e-07
-1.49922e-10
2.23571e-09
-1.51589e-09
7.47145e-09
-3.94488e-09
9.00267e-09
-6.03253e-09
4.86599e-09
-6.38338e-09
-1.96628e-09
-4.45018e-09
-8.54764e-09
-3.95626e-10
-1.36153e-08
5.27289e-09
-1.69252e-08
1.20009e-08
-1.87692e-08
1.93359e-08
-1.9647e-08
2.70004e-08
-2.00373e-08
3.485e-08
-2.031e-08
4.28539e-08
-2.06743e-08
5.1031e-08
-2.1225e-08
5.94228e-08
-2.19639e-08
6.80825e-08
-2.28642e-08
7.70419e-08
-2.38946e-08
8.63598e-08
-2.50263e-08
9.60565e-08
-2.62694e-08
1.06199e-07
-2.76185e-08
1.16818e-07
-2.91158e-08
1.27985e-07
-3.07725e-08
1.39755e-07
-3.26352e-08
1.52218e-07
-3.47393e-08
1.65449e-07
-3.71328e-08
1.79578e-07
-3.98617e-08
1.94705e-07
-4.29968e-08
2.11005e-07
-4.65767e-08
2.28624e-07
-5.06882e-08
2.4777e-07
-5.53712e-08
2.68646e-07
-6.06965e-08
2.91502e-07
-6.67167e-08
3.16585e-07
-7.34898e-08
3.44197e-07
-8.10504e-08
3.74629e-07
-8.94627e-08
4.08212e-07
-9.86849e-08
4.45297e-07
-1.08778e-07
4.86182e-07
-1.19577e-07
5.31258e-07
-1.30977e-07
5.80721e-07
-1.42729e-07
6.34805e-07
-1.53945e-07
6.935e-07
-1.64713e-07
7.56417e-07
-1.71698e-07
8.22681e-07
-1.75499e-07
8.91257e-07
-1.70179e-07
9.5568e-07
-1.43976e-07
1.01911e-06
-1.19576e-07
1.05102e-06
3.44322e-08
1.04022e-06
1.17884e-07
7.88215e-07
9.55679e-07
-1.02604e-10
2.34143e-09
-1.12216e-09
8.49465e-09
-3.35555e-09
1.12416e-08
-5.96671e-09
7.48099e-09
-7.56071e-09
-3.6808e-10
-7.1371e-09
-8.96781e-09
-4.36754e-09
-1.63813e-08
5.4304e-10
-2.18345e-08
7.12923e-09
-2.53519e-08
1.48812e-08
-2.73995e-08
2.33969e-08
-2.85496e-08
3.23969e-08
-2.93098e-08
4.17362e-08
-3.00113e-08
5.13506e-08
-3.08374e-08
6.12281e-08
-3.18417e-08
7.13916e-08
-3.30226e-08
8.18573e-08
-3.43635e-08
9.26812e-08
-3.58408e-08
1.03887e-07
-3.7478e-08
1.15553e-07
-3.92741e-08
1.27723e-07
-4.12849e-08
1.40483e-07
-4.35261e-08
1.53902e-07
-4.6054e-08
1.6808e-07
-4.89109e-08
1.83101e-07
-5.21578e-08
1.99103e-07
-5.58517e-08
2.16189e-07
-6.00871e-08
2.34542e-07
-6.49176e-08
2.54314e-07
-7.04599e-08
2.75724e-07
-7.67736e-08
2.98987e-07
-8.396e-08
3.2437e-07
-9.20917e-08
3.52142e-07
-1.01265e-07
3.82625e-07
-1.11521e-07
4.16143e-07
-1.22985e-07
4.53053e-07
-1.35581e-07
4.93754e-07
-1.49476e-07
5.38577e-07
-1.64389e-07
5.87971e-07
-1.80365e-07
6.42177e-07
-1.96924e-07
7.01515e-07
-2.13279e-07
7.65989e-07
-2.29168e-07
8.35426e-07
-2.41133e-07
9.08762e-07
-2.48804e-07
9.85409e-07
-2.46822e-07
1.05922e-06
-2.17752e-07
1.13011e-06
-1.90455e-07
1.17906e-06
-1.44954e-08
1.17209e-06
1.24838e-07
8.4257e-07
1.11773e-06
-1.26191e-10
2.47085e-09
-9.53578e-10
9.3258e-09
-2.93765e-09
1.32313e-08
-5.76498e-09
1.03123e-08
-8.34502e-09
2.21627e-09
-9.53723e-09
-7.77207e-09
-8.6224e-09
-1.72926e-08
-5.40715e-09
-2.50483e-08
-8.89698e-11
-3.06666e-08
6.93098e-09
-3.44201e-08
1.52361e-08
-3.68513e-08
2.44615e-08
-3.85351e-08
3.43532e-08
-3.99006e-08
4.47439e-08
-4.1226e-08
5.55382e-08
-4.26362e-08
6.66973e-08
-4.41764e-08
7.81946e-08
-4.5864e-08
9.0059e-08
-4.76959e-08
1.023e-07
-4.97218e-08
1.14993e-07
-5.19571e-08
1.2819e-07
-5.44805e-08
1.41989e-07
-5.73188e-08
1.56476e-07
-6.05404e-08
1.71765e-07
-6.41934e-08
1.87952e-07
-6.83486e-08
2.05181e-07
-7.30693e-08
2.2356e-07
-7.84692e-08
2.43269e-07
-8.46149e-08
2.6446e-07
-9.16507e-08
2.8735e-07
-9.96564e-08
3.12155e-07
-1.08765e-07
3.39142e-07
-1.1907e-07
3.68583e-07
-1.3071e-07
4.00807e-07
-1.43732e-07
4.36148e-07
-1.58329e-07
4.74971e-07
-1.7439e-07
5.17689e-07
-1.92191e-07
5.64651e-07
-2.11342e-07
6.16323e-07
-2.32031e-07
6.7297e-07
-2.53561e-07
7.34946e-07
-2.7525e-07
8.02252e-07
-2.96455e-07
8.74832e-07
-3.13711e-07
9.51569e-07
-3.2551e-07
1.03185e-06
-3.27098e-07
1.11063e-06
-2.96499e-07
1.18395e-06
-2.63767e-07
1.2425e-06
-7.30285e-08
1.24242e-06
1.2491e-07
8.75839e-07
1.20914e-06
-1.67139e-10
2.64133e-09
-9.46158e-10
1.01087e-08
-2.76028e-09
1.50511e-08
-5.60538e-09
1.31614e-08
-8.75484e-09
5.37011e-09
-1.11915e-08
-5.33183e-09
-1.20472e-08
-1.64332e-08
-1.0831e-08
-2.6263e-08
-7.43518e-09
-3.40589e-08
-2.03843e-09
-3.98174e-08
5.05519e-09
-4.39414e-08
1.34988e-08
-4.69786e-08
2.2995e-08
-4.93945e-08
3.33047e-08
-5.15335e-08
4.42552e-08
-5.3587e-08
5.57375e-08
-5.56534e-08
6.76649e-08
-5.77946e-08
8.00182e-08
-6.00397e-08
9.27703e-08
-6.24763e-08
1.05973e-07
-6.51493e-08
1.19667e-07
-6.81737e-08
1.33955e-07
-7.16005e-08
1.48934e-07
-7.55191e-08
1.64736e-07
-7.99877e-08
1.81469e-07
-8.5086e-08
1.99291e-07
-9.08798e-08
2.18314e-07
-9.74955e-08
2.38718e-07
-1.05007e-07
2.60649e-07
-1.13582e-07
2.84316e-07
-1.23316e-07
3.09925e-07
-1.34374e-07
3.37732e-07
-1.46869e-07
3.68001e-07
-1.60983e-07
4.01049e-07
-1.76767e-07
4.37203e-07
-1.94486e-07
4.76822e-07
-2.13996e-07
5.20308e-07
-2.35674e-07
5.68014e-07
-2.59038e-07
6.20386e-07
-2.84397e-07
6.77707e-07
-3.10871e-07
7.40307e-07
-3.37846e-07
8.08213e-07
-3.64342e-07
8.81353e-07
-3.86849e-07
9.58742e-07
-4.02867e-07
1.0394e-06
-4.07752e-07
1.11968e-06
-3.76749e-07
1.19255e-06
-3.3663e-07
1.25505e-06
-1.35499e-07
1.26377e-06
1.16164e-07
8.89466e-07
1.25014e-06
-1.96842e-10
2.8416e-09
-1.00872e-09
1.09245e-08
-2.77223e-09
1.68205e-08
-5.5858e-09
1.59792e-08
-8.97963e-09
8.76842e-09
-1.21523e-08
-2.15548e-09
-1.42896e-08
-1.42921e-08
-1.47895e-08
-2.57617e-08
-1.33368e-08
-3.5508e-08
-9.8926e-09
-4.32621e-08
-4.58938e-09
-4.92411e-08
2.32854e-09
-5.38963e-08
1.06024e-08
-5.76659e-08
1.99856e-08
-6.09145e-08
3.02719e-08
-6.38735e-08
4.13065e-08
-6.66827e-08
5.29528e-08
-6.94441e-08
6.51415e-08
-7.22188e-08
7.77973e-08
-7.51345e-08
9.0931e-08
-7.82731e-08
1.04555e-07
-8.17964e-08
1.18756e-07
-8.5795e-08
1.3363e-07
-9.0393e-08
1.4932e-07
-9.56704e-08
1.65951e-07
-1.0172e-07
1.83693e-07
-1.08611e-07
2.02669e-07
-1.16476e-07
2.23064e-07
-1.2539e-07
2.45017e-07
-1.35535e-07
2.68728e-07
-1.47019e-07
2.94389e-07
-1.60034e-07
3.22235e-07
-1.74707e-07
3.52513e-07
-1.91264e-07
3.85519e-07
-2.0976e-07
4.21554e-07
-2.30524e-07
4.60961e-07
-2.53389e-07
5.04107e-07
-2.78818e-07
5.51341e-07
-3.06261e-07
6.03054e-07
-3.36104e-07
6.59547e-07
-3.67352e-07
7.21075e-07
-3.9937e-07
7.87721e-07
-4.30968e-07
8.59304e-07
-4.58429e-07
9.35058e-07
-4.7859e-07
1.01362e-06
-4.86309e-07
1.09246e-06
-4.55555e-07
1.16311e-06
-4.07278e-07
1.2259e-06
-1.98267e-07
1.24389e-06
9.81559e-08
8.82828e-07
1.25051e-06
-2.11909e-10
3.05703e-09
-1.08068e-09
1.17974e-08
-2.88046e-09
1.86263e-08
-5.70304e-09
1.8806e-08
-9.18868e-09
1.22586e-08
-1.27086e-08
1.36819e-09
-1.55801e-08
-1.14168e-08
-1.72327e-08
-2.41076e-08
-1.72855e-08
-3.54515e-08
-1.55716e-08
-4.49766e-08
-1.20806e-08
-5.27286e-08
-6.9355e-09
-5.90412e-08
-3.11083e-10
-6.42879e-08
7.59274e-09
-6.88161e-08
1.65864e-08
-7.28673e-08
2.65114e-08
-7.66024e-08
3.72124e-08
-8.01483e-08
4.85902e-08
-8.35871e-08
6.05311e-08
-8.70776e-08
7.30031e-08
-9.07351e-08
8.59783e-08
-9.47703e-08
9.95132e-08
-9.93233e-08
1.13688e-07
-1.04567e-07
1.28642e-07
-1.10617e-07
1.4451e-07
-1.17593e-07
1.61479e-07
-1.25568e-07
1.79683e-07
-1.34682e-07
1.99312e-07
-1.45008e-07
2.2051e-07
-1.56732e-07
2.43466e-07
-1.69968e-07
2.68356e-07
-1.84924e-07
2.95397e-07
-2.0174e-07
3.24807e-07
-2.20677e-07
3.56855e-07
-2.41796e-07
3.91807e-07
-2.65478e-07
4.29977e-07
-2.91546e-07
4.71681e-07
-3.20519e-07
5.17251e-07
-3.5182e-07
5.67003e-07
-3.8585e-07
6.21246e-07
-4.21584e-07
6.80131e-07
-4.5825e-07
7.43794e-07
-4.94612e-07
8.11936e-07
-5.26569e-07
8.83968e-07
-5.5059e-07
9.58333e-07
-5.60669e-07
1.0332e-06
-5.30394e-07
1.10005e-06
-4.74124e-07
1.16086e-06
-2.59054e-07
1.18757e-06
7.1424e-08
8.55534e-07
1.21484e-06
-2.1925e-10
3.27988e-09
-1.14249e-09
1.27248e-08
-3.01765e-09
2.05076e-08
-5.90293e-09
2.16956e-08
-9.45282e-09
1.58132e-08
-1.31201e-08
5.03934e-09
-1.63332e-08
-8.19974e-09
-1.8609e-08
-2.18303e-08
-1.95935e-08
-3.44633e-08
-1.90893e-08
-4.54813e-08
-1.70189e-08
-5.47955e-08
-1.34228e-08
-6.2637e-08
-8.39861e-09
-6.93097e-08
-2.08437e-09
-7.5128e-08
5.37414e-09
-8.03261e-08
1.38462e-08
-8.50691e-08
2.31894e-08
-8.94946e-08
3.33031e-08
-9.36912e-08
4.40573e-08
-9.78339e-08
5.53907e-08
-1.02059e-07
6.7239e-08
-1.06617e-07
7.96227e-08
-1.117e-07
9.25941e-08
-1.17538e-07
1.06279e-07
-1.24295e-07
1.20811e-07
-1.32128e-07
1.36383e-07
-1.41129e-07
1.53143e-07
-1.51446e-07
1.71293e-07
-1.63146e-07
1.90977e-07
-1.76416e-07
2.12382e-07
-1.91365e-07
2.35672e-07
-2.08213e-07
2.61042e-07
-2.27103e-07
2.88684e-07
-2.48322e-07
3.18835e-07
-2.71935e-07
3.51718e-07
-2.98363e-07
3.87613e-07
-3.27428e-07
4.26771e-07
-3.59675e-07
4.69499e-07
-3.94539e-07
5.16021e-07
-4.32366e-07
5.66642e-07
-4.72194e-07
6.21403e-07
-5.13006e-07
6.80461e-07
-5.53652e-07
7.43438e-07
-5.89543e-07
8.09838e-07
-6.1696e-07
8.78117e-07
-6.28943e-07
9.46849e-07
-5.99096e-07
1.00838e-06
-5.35648e-07
1.06583e-06
-3.16487e-07
1.09998e-06
3.72422e-08
8.08468e-07
1.14703e-06
-2.24837e-10
3.50841e-09
-1.19623e-09
1.37005e-08
-3.1559e-09
2.24735e-08
-6.13655e-09
2.46808e-08
-9.76975e-09
1.94511e-08
-1.3524e-08
8.79752e-09
-1.68836e-08
-4.83617e-09
-1.94341e-08
-1.92782e-08
-2.08803e-08
-3.30134e-08
-2.10542e-08
-4.53078e-08
-1.98739e-08
-5.59724e-08
-1.73527e-08
-6.5158e-08
-1.3548e-08
-7.3112e-08
-8.55535e-09
-8.01184e-08
-2.48074e-09
-8.64009e-08
4.57951e-09
-9.2124e-08
1.25103e-08
-9.74283e-08
2.12283e-08
-1.024e-07
3.06077e-08
-1.07215e-07
4.05766e-08
-1.12018e-07
5.10467e-08
-1.17086e-07
6.20073e-08
-1.22654e-07
7.34801e-08
-1.2901e-07
8.55684e-08
-1.36376e-07
9.83942e-08
-1.44957e-07
1.12151e-07
-1.54874e-07
1.26993e-07
-1.66291e-07
1.43129e-07
-1.7927e-07
1.60711e-07
-1.93997e-07
1.79923e-07
-2.1057e-07
2.0092e-07
-2.2921e-07
2.23881e-07
-2.50057e-07
2.48969e-07
-2.73413e-07
2.76394e-07
-2.99348e-07
3.06329e-07
-3.283e-07
3.3902e-07
-3.60106e-07
3.74647e-07
-3.95299e-07
4.13484e-07
-4.33365e-07
4.55659e-07
-4.74536e-07
5.01451e-07
-5.17975e-07
5.50808e-07
-5.62359e-07
6.0386e-07
-6.06685e-07
6.60213e-07
-6.45892e-07
7.19376e-07
-6.76093e-07
7.79982e-07
-6.89543e-07
8.40916e-07
-6.60003e-07
8.95766e-07
-5.90494e-07
9.48627e-07
-3.69336e-07
9.89047e-07
-3.20219e-09
7.43775e-07
1.05371e-06
-2.31037e-10
3.74322e-09
-1.24816e-09
1.4722e-08
-3.29175e-09
2.45234e-08
-6.38019e-09
2.77738e-08
-1.01174e-08
2.31932e-08
-1.39576e-08
1.26417e-08
-1.73985e-08
-1.39121e-09
-2.00602e-08
-1.66149e-08
-2.16911e-08
-3.13787e-08
-2.21637e-08
-4.48357e-08
-2.14233e-08
-5.67093e-08
-1.94934e-08
-6.70875e-08
-1.64288e-08
-7.61743e-08
-1.23121e-08
-8.42328e-08
-7.23099e-09
-9.14823e-08
-1.26029e-09
-9.80894e-08
5.50743e-09
-1.04199e-07
1.30086e-08
-1.09892e-07
2.11304e-08
-1.15339e-07
2.98023e-08
-1.2068e-07
3.89248e-08
-1.26207e-07
4.84651e-08
-1.32188e-07
5.84181e-08
-1.38962e-07
6.8862e-08
-1.46813e-07
7.9901e-08
-1.56e-07
9.17199e-08
-1.66682e-07
1.04472e-07
-1.79046e-07
1.18369e-07
-1.93157e-07
1.33566e-07
-2.09193e-07
1.50247e-07
-2.27243e-07
1.68557e-07
-2.47519e-07
1.88663e-07
-2.70155e-07
2.10701e-07
-2.95455e-07
2.34856e-07
-3.23491e-07
2.61253e-07
-3.54699e-07
2.90104e-07
-3.88945e-07
3.21519e-07
-4.26711e-07
3.5573e-07
-4.67566e-07
3.92782e-07
-5.11581e-07
4.329e-07
-5.58082e-07
4.7597e-07
-6.05424e-07
5.22049e-07
-6.52745e-07
5.70781e-07
-6.9462e-07
6.21634e-07
-7.26916e-07
6.73508e-07
-7.41412e-07
7.25564e-07
-7.12032e-07
7.72845e-07
-6.37772e-07
8.20647e-07
-4.17129e-07
8.65581e-07
-4.81628e-08
6.6439e-07
9.44936e-07
-2.38062e-10
3.98514e-09
-1.30182e-09
1.57903e-08
-3.42895e-09
2.6657e-08
-6.62862e-09
3.09781e-08
-1.04812e-08
2.70507e-08
-1.44185e-08
1.65832e-08
-1.79325e-08
2.12685e-09
-2.06515e-08
-1.38943e-08
-2.23446e-08
-2.96818e-08
-2.29125e-08
-4.42681e-08
-2.23289e-08
-5.72896e-08
-2.06402e-08
-6.87757e-08
-1.7917e-08
-7.88953e-08
-1.42505e-08
-8.7897e-08
-9.7307e-09
-9.60022e-08
-4.42883e-09
-1.03386e-07
1.57083e-09
-1.10201e-07
8.21567e-09
-1.16527e-07
1.54033e-08
-1.22528e-07
2.30667e-08
-1.28333e-07
3.11024e-08
-1.34241e-07
3.94627e-08
-1.40542e-07
4.81217e-08
-1.47621e-07
5.71346e-08
-1.55818e-07
6.65855e-08
-1.65454e-07
7.66447e-08
-1.7673e-07
8.74575e-08
-1.89861e-07
9.92321e-08
-2.0492e-07
1.12121e-07
-2.22081e-07
1.26304e-07
-2.41419e-07
1.41919e-07
-2.63134e-07
1.59119e-07
-2.87347e-07
1.78017e-07
-3.14356e-07
1.98772e-07
-3.44234e-07
2.21469e-07
-3.77398e-07
2.46283e-07
-4.13747e-07
2.73264e-07
-4.5369e-07
3.02596e-07
-4.96889e-07
3.34254e-07
-5.43234e-07
3.68396e-07
-5.92213e-07
4.04871e-07
-6.41894e-07
4.43639e-07
-6.91494e-07
4.8441e-07
-7.35387e-07
5.26612e-07
-7.6909e-07
5.69421e-07
-7.84216e-07
6.12342e-07
-7.54929e-07
6.51896e-07
-6.77324e-07
6.94551e-07
-4.59778e-07
7.42556e-07
-9.6196e-08
5.7349e-07
8.33424e-07
-2.45605e-10
4.23468e-09
-1.35853e-09
1.69079e-08
-3.57051e-09
2.88755e-08
-6.88329e-09
3.42957e-08
-1.08563e-08
3.10287e-08
-1.4899e-08
2.063e-08
-1.84915e-08
5.72357e-09
-2.12591e-08
-1.11249e-08
-2.29762e-08
-2.7961e-08
-2.35567e-08
-4.36879e-08
-2.29925e-08
-5.78505e-08
-2.13492e-08
-7.04186e-08
-1.87155e-08
-8.15267e-08
-1.51982e-08
-9.1412e-08
-1.08997e-08
-1.00301e-07
-5.8995e-09
-1.08381e-07
-2.85409e-10
-1.15818e-07
5.88967e-09
-1.22693e-07
1.25252e-08
-1.29165e-07
1.95548e-08
-1.35354e-07
2.6871e-08
-1.41555e-07
3.44162e-08
-1.4808e-07
4.215e-08
-1.55354e-07
5.01077e-08
-1.63769e-07
5.83541e-08
-1.73703e-07
6.70431e-08
-1.85408e-07
7.63075e-08
-1.99128e-07
8.63454e-08
-2.14948e-07
9.73025e-08
-2.33037e-07
1.0935e-07
-2.53459e-07
1.22614e-07
-2.76397e-07
1.37236e-07
-3.01961e-07
1.53305e-07
-3.30428e-07
1.70957e-07
-3.61875e-07
1.90241e-07
-3.96684e-07
2.11298e-07
-4.34791e-07
2.34126e-07
-4.76515e-07
2.5886e-07
-5.21613e-07
2.85423e-07
-5.69791e-07
3.13898e-07
-6.20677e-07
3.44116e-07
-6.72108e-07
3.75939e-07
-7.23299e-07
4.09154e-07
-7.68599e-07
4.43171e-07
-8.03079e-07
4.77425e-07
-8.18465e-07
5.11837e-07
-7.89318e-07
5.44273e-07
-7.0976e-07
5.8236e-07
-4.97863e-07
6.32529e-07
-1.46395e-07
4.74039e-07
7.31944e-07
-2.53489e-10
4.4922e-09
-1.41751e-09
1.80767e-08
-3.71752e-09
3.11822e-08
-7.14606e-09
3.77292e-08
-1.1243e-08
3.51308e-08
-1.53955e-08
2.47867e-08
-1.90715e-08
9.4039e-09
-2.18902e-08
-8.30445e-09
-2.36246e-08
-2.62229e-08
-2.41931e-08
-4.31197e-08
-2.35967e-08
-5.84436e-08
-2.19125e-08
-7.21023e-08
-1.92423e-08
-8.41947e-08
-1.57063e-08
-9.49457e-08
-1.14197e-08
-1.04588e-07
-6.4738e-09
-1.13322e-07
-9.65426e-10
-1.21329e-07
5.04546e-09
-1.28695e-07
1.14542e-08
-1.35575e-07
1.81895e-08
-1.4208e-07
2.51397e-08
-1.48503e-07
3.22384e-08
-1.55173e-07
3.94329e-08
-1.62547e-07
4.67447e-08
-1.71073e-07
5.42237e-08
-1.81185e-07
6.20067e-08
-1.9318e-07
7.02138e-08
-2.07337e-07
7.90312e-08
-2.23755e-07
8.85929e-08
-2.42598e-07
9.90585e-08
-2.63918e-07
1.10541e-07
-2.87879e-07
1.23166e-07
-3.14579e-07
1.37003e-07
-3.44267e-07
1.52164e-07
-3.77025e-07
1.68668e-07
-4.1319e-07
1.86624e-07
-4.52736e-07
2.05991e-07
-4.95879e-07
2.26853e-07
-5.42465e-07
2.49101e-07
-5.92034e-07
2.72742e-07
-6.44307e-07
2.97606e-07
-6.96966e-07
3.2347e-07
-7.49145e-07
3.50191e-07
-7.95315e-07
3.77205e-07
-8.30066e-07
4.04171e-07
-8.45427e-07
4.31469e-07
-8.16594e-07
4.58148e-07
-7.36442e-07
4.92876e-07
-5.32591e-07
5.44967e-07
-1.98518e-07
3.68391e-07
6.50578e-07
-2.61691e-10
4.75799e-09
-1.47844e-09
1.92984e-08
-3.87018e-09
3.35808e-08
-7.41774e-09
4.12818e-08
-1.16422e-08
3.93604e-08
-1.59076e-08
2.90565e-08
-1.96701e-08
1.31707e-08
-2.25423e-08
-5.43038e-09
-2.42943e-08
-2.44671e-08
-2.48458e-08
-4.25685e-08
-2.42022e-08
-5.9084e-08
-2.24469e-08
-7.38571e-08
-1.96893e-08
-8.69501e-08
-1.60586e-08
-9.85742e-08
-1.16796e-08
-1.08967e-07
-6.65333e-09
-1.18343e-07
-1.08554e-09
-1.26899e-07
4.95493e-09
-1.34727e-07
1.13565e-08
-1.41978e-07
1.80406e-08
-1.48755e-07
2.48894e-08
-1.5535e-07
3.18293e-08
-1.62106e-07
3.87997e-08
-1.69517e-07
4.5812e-08
-1.78079e-07
5.2905e-08
-1.88281e-07
6.02043e-08
-2.00469e-07
6.78178e-08
-2.14953e-07
7.59182e-08
-2.31845e-07
8.4629e-08
-2.51307e-07
9.40967e-08
-2.73379e-07
1.04422e-07
-2.98204e-07
1.1571e-07
-3.2586e-07
1.28016e-07
-3.56576e-07
1.41436e-07
-3.90434e-07
1.55959e-07
-4.27714e-07
1.71662e-07
-4.68429e-07
1.88478e-07
-5.12693e-07
2.06446e-07
-5.60424e-07
2.25438e-07
-6.11021e-07
2.45397e-07
-6.64255e-07
2.66156e-07
-7.17722e-07
2.87437e-07
-7.70408e-07
3.0915e-07
-8.17023e-07
3.30809e-07
-8.51701e-07
3.5226e-07
-8.66873e-07
3.74347e-07
-8.38662e-07
3.97163e-07
-7.59263e-07
4.30189e-07
-5.65621e-07
4.8454e-07
-2.52903e-07
2.58017e-07
5.94874e-07
-2.70246e-10
5.03243e-09
-1.54128e-09
2.05744e-08
-4.02849e-09
3.60749e-08
-7.69861e-09
4.4957e-08
-1.20544e-08
4.37215e-08
-1.6436e-08
3.34426e-08
-2.02869e-08
1.70259e-08
-2.3214e-08
-2.50142e-09
-2.49841e-08
-2.26933e-08
-2.55173e-08
-4.20354e-08
-2.48223e-08
-5.97758e-08
-2.29864e-08
-7.56926e-08
-2.0124e-08
-8.98104e-08
-1.63699e-08
-1.02326e-07
-1.1855e-08
-1.13482e-07
-6.68726e-09
-1.23506e-07
-9.79157e-10
-1.3261e-07
5.19264e-09
-1.4089e-07
1.17097e-08
-1.48496e-07
1.84858e-08
-1.55522e-07
2.53971e-08
-1.62259e-07
3.2364e-08
-1.69067e-07
3.93208e-08
-1.76473e-07
4.62732e-08
-1.85024e-07
5.32541e-08
-1.95264e-07
6.03811e-08
-2.07586e-07
6.77549e-08
-2.22328e-07
7.55383e-08
-2.39619e-07
8.38447e-08
-2.59612e-07
9.28103e-08
-2.82339e-07
1.02521e-07
-3.07914e-07
1.13075e-07
-3.36408e-07
1.24508e-07
-3.68011e-07
1.3689e-07
-4.02807e-07
1.50204e-07
-4.41028e-07
1.64492e-07
-4.82707e-07
1.79677e-07
-5.27875e-07
1.95761e-07
-5.76498e-07
2.12588e-07
-6.27843e-07
2.3006e-07
-6.81716e-07
2.48051e-07
-7.35708e-07
2.66246e-07
-7.88586e-07
2.84568e-07
-8.35341e-07
3.02658e-07
-8.69767e-07
3.20526e-07
-8.84737e-07
3.39483e-07
-8.57602e-07
3.60514e-07
-7.80302e-07
3.93677e-07
-5.98789e-07
4.5112e-07
-3.10382e-07
1.43631e-07
5.65463e-07
-2.792e-10
5.3159e-09
-1.60605e-09
2.19064e-08
-4.19249e-09
3.86683e-08
-7.98877e-09
4.87586e-08
-1.24797e-08
4.82178e-08
-1.6981e-08
3.79483e-08
-2.09223e-08
2.09717e-08
-2.39051e-08
4.83293e-10
-2.56932e-08
-2.09016e-08
-2.62069e-08
-4.15218e-08
-2.54582e-08
-6.05215e-08
-2.35375e-08
-7.76127e-08
-2.05636e-08
-9.27822e-08
-1.66754e-08
-1.06212e-07
-1.20082e-08
-1.18149e-07
-6.67458e-09
-1.28835e-07
-7.91814e-10
-1.38494e-07
5.55707e-09
-1.47231e-07
1.22479e-08
-1.55187e-07
1.91873e-08
-1.62453e-07
2.62466e-08
-1.69316e-07
3.33412e-08
-1.76155e-07
4.0403e-08
-1.83533e-07
4.74354e-08
-1.9205e-07
5.44694e-08
-2.02301e-07
6.16192e-08
-2.14726e-07
6.89821e-08
-2.29692e-07
7.67148e-08
-2.47342e-07
8.49244e-08
-2.6782e-07
9.37386e-08
-2.91147e-07
1.03235e-07
-3.1741e-07
1.135e-07
-3.46666e-07
1.24557e-07
-3.79071e-07
1.36468e-07
-4.14708e-07
1.49195e-07
-4.53757e-07
1.62769e-07
-4.9627e-07
1.77095e-07
-5.42199e-07
1.92143e-07
-5.91537e-07
2.0778e-07
-6.43476e-07
2.23862e-07
-6.97787e-07
2.40255e-07
-7.52097e-07
2.5666e-07
-8.04973e-07
2.73051e-07
-8.51728e-07
2.89228e-07
-8.85921e-07
3.05331e-07
-9.00837e-07
3.23111e-07
-8.75367e-07
3.44299e-07
-8.01499e-07
3.79251e-07
-6.3375e-07
4.40686e-07
-3.71855e-07
2.54611e-08
5.58811e-07
-2.88597e-10
5.60885e-09
-1.67276e-09
2.32959e-08
-4.36222e-09
4.13649e-08
-8.28836e-09
5.26901e-08
-1.29185e-08
5.28534e-08
-1.7543e-08
4.25774e-08
-2.1577e-08
2.50101e-08
-2.46163e-08
3.52464e-09
-2.6422e-08
-1.90922e-08
-2.69147e-08
-4.10292e-08
-2.61096e-08
-6.13237e-08
-2.41009e-08
-7.96209e-08
-2.10113e-08
-9.58698e-08
-1.69835e-08
-1.10238e-07
-1.21563e-08
-1.22976e-07
-6.64654e-09
-1.3434e-07
-5.74844e-10
-1.44568e-07
5.97027e-09
-1.53768e-07
1.28598e-08
-1.62077e-07
1.99939e-08
-1.69578e-07
2.72397e-08
-1.76559e-07
3.4509e-08
-1.83418e-07
4.17329e-08
-1.90756e-07
4.89148e-08
-1.99225e-07
5.60871e-08
-2.09475e-07
6.33639e-08
-2.21993e-07
7.08425e-08
-2.37172e-07
7.86766e-08
-2.55168e-07
8.69707e-08
-2.76113e-07
9.58471e-08
-3.00017e-07
1.05378e-07
-3.26941e-07
1.15642e-07
-3.56924e-07
1.26658e-07
-3.90089e-07
1.38475e-07
-4.26515e-07
1.5105e-07
-4.66334e-07
1.64398e-07
-5.09608e-07
1.78423e-07
-5.56223e-07
1.93073e-07
-6.06179e-07
2.08223e-07
-6.58622e-07
2.23711e-07
-7.13264e-07
2.39425e-07
-7.67808e-07
2.55096e-07
-8.20627e-07
2.70727e-07
-8.67356e-07
2.86299e-07
-9.01472e-07
3.02097e-07
-9.16633e-07
3.20259e-07
-8.93517e-07
3.43174e-07
-8.24425e-07
3.81286e-07
-6.71875e-07
4.474e-07
-4.38007e-07
-9.65706e-08
5.69386e-07
-2.98481e-10
5.91177e-09
-1.74146e-09
2.47443e-08
-4.53772e-09
4.41684e-08
-8.59749e-09
5.67553e-08
-1.33709e-08
5.76322e-08
-1.81223e-08
4.73334e-08
-2.22512e-08
2.91436e-08
-2.53482e-08
6.62365e-09
-2.71713e-08
-1.72655e-08
-2.76415e-08
-4.05591e-08
-2.67774e-08
-6.21851e-08
-2.46772e-08
-8.17206e-08
-2.14677e-08
-9.90774e-08
-1.72956e-08
-1.14408e-07
-1.23033e-08
-1.27968e-07
-6.61117e-09
-1.40028e-07
-3.43055e-10
-1.50838e-07
6.40736e-09
-1.60511e-07
1.35067e-08
-1.69177e-07
2.08488e-08
-1.76913e-07
2.82971e-08
-1.84005e-07
3.57608e-08
-1.90876e-07
4.31709e-08
-1.98165e-07
5.05326e-08
-2.0658e-07
5.78813e-08
-2.16826e-07
6.53331e-08
-2.29436e-07
7.29879e-08
-2.44828e-07
8.09986e-08
-2.6317e-07
8.94698e-08
-2.84583e-07
9.8521e-08
-3.09062e-07
1.08222e-07
-3.36641e-07
1.18647e-07
-3.67343e-07
1.29811e-07
-4.01256e-07
1.41757e-07
-4.38453e-07
1.54441e-07
-4.79019e-07
1.67864e-07
-5.23024e-07
1.81939e-07
-5.70296e-07
1.96597e-07
-6.20828e-07
2.11725e-07
-6.73746e-07
2.2716e-07
-7.28689e-07
2.42815e-07
-7.83459e-07
2.58468e-07
-8.36264e-07
2.74157e-07
-8.83041e-07
2.90049e-07
-9.17344e-07
3.06588e-07
-9.3317e-07
3.2626e-07
-9.13178e-07
3.51993e-07
-8.50172e-07
3.94153e-07
-7.1405e-07
4.65448e-07
-5.09343e-07
-2.22304e-07
5.91135e-07
-3.08899e-10
6.22518e-09
-1.81215e-09
2.62532e-08
-4.719e-09
4.70826e-08
-8.91628e-09
6.09582e-08
-1.38368e-08
6.25583e-08
-1.8719e-08
5.22203e-08
-2.29455e-08
3.33748e-08
-2.61013e-08
9.7815e-09
-2.79418e-08
-1.54215e-08
-2.83881e-08
-4.01128e-08
-2.74626e-08
-6.31081e-08
-2.52674e-08
-8.39152e-08
-2.19341e-08
-1.02409e-07
-1.76132e-08
-1.18727e-07
-1.24507e-08
-1.33131e-07
-6.57087e-09
-1.45904e-07
-1.00637e-10
-1.5731e-07
6.86112e-09
-1.67466e-07
1.41766e-08
-1.76493e-07
2.17335e-08
-1.84462e-07
2.93918e-08
-1.91661e-07
3.70579e-08
-1.98536e-07
4.46639e-08
-2.0577e-07
5.22172e-08
-2.14127e-07
5.97576e-08
-2.24368e-07
6.74039e-08
-2.37073e-07
7.52604e-08
-2.52686e-07
8.34804e-08
-2.71382e-07
9.21701e-08
-2.93271e-07
1.01448e-07
-3.18335e-07
1.11382e-07
-3.46576e-07
1.22047e-07
-3.78002e-07
1.33455e-07
-4.12666e-07
1.45644e-07
-4.50634e-07
1.58573e-07
-4.9195e-07
1.72237e-07
-5.36679e-07
1.86553e-07
-5.84611e-07
2.01448e-07
-6.35716e-07
2.16824e-07
-6.89119e-07
2.32527e-07
-7.44382e-07
2.48493e-07
-7.99422e-07
2.64566e-07
-8.52323e-07
2.80827e-07
-8.99298e-07
2.97628e-07
-9.34127e-07
3.15585e-07
-9.51126e-07
3.37473e-07
-9.35058e-07
3.66675e-07
-8.79391e-07
4.1337e-07
-7.60761e-07
4.89884e-07
-5.85899e-07
-3.5142e-07
6.18953e-07
-3.19899e-10
6.54967e-09
-1.88486e-09
2.78239e-08
-4.90602e-09
5.01111e-08
-9.24483e-09
6.53027e-08
-1.43162e-08
6.76353e-08
-1.93335e-08
5.72424e-08
-2.36604e-08
3.77063e-08
-2.68763e-08
1.29995e-08
-2.87344e-08
-1.356e-08
-2.91557e-08
-3.96915e-08
-2.81663e-08
-6.40951e-08
-2.58729e-08
-8.62081e-08
-2.24118e-08
-1.05868e-07
-1.79376e-08
-1.232e-07
-1.26002e-08
-1.38468e-07
-6.52747e-09
-1.51973e-07
1.50193e-10
-1.63989e-07
7.32857e-09
-1.74638e-07
1.48653e-08
-1.84029e-07
2.26418e-08
-1.92231e-07
3.05144e-08
-1.99531e-07
3.83874e-08
-2.06403e-07
4.61936e-08
-2.13575e-07
5.39434e-08
-2.2187e-07
6.16812e-08
-2.32108e-07
6.95296e-08
-2.44914e-07
7.75975e-08
-2.60754e-07
8.60396e-08
-2.79817e-07
9.49643e-08
-3.02195e-07
1.0449e-07
-3.27855e-07
1.14685e-07
-3.56772e-07
1.25623e-07
-3.88933e-07
1.37316e-07
-4.24363e-07
1.49801e-07
-4.63111e-07
1.63039e-07
-5.0519e-07
1.77021e-07
-5.50653e-07
1.91673e-07
-5.99262e-07
2.06922e-07
-6.50957e-07
2.22684e-07
-7.04879e-07
2.38824e-07
-7.60513e-07
2.55304e-07
-8.15899e-07
2.72043e-07
-8.69047e-07
2.89171e-07
-9.16423e-07
3.07219e-07
-9.52159e-07
3.26985e-07
-9.70893e-07
3.51476e-07
-9.59544e-07
3.84452e-07
-9.12385e-07
4.35773e-07
-8.12101e-07
5.17263e-07
-6.67431e-07
-4.8342e-07
6.49216e-07
-3.31529e-10
6.88587e-09
-1.95961e-09
2.94578e-08
-5.09873e-09
5.32578e-08
-9.58321e-09
6.9793e-08
-1.48095e-08
7.28672e-08
-1.9966e-08
6.24037e-08
-2.43963e-08
4.21413e-08
-2.76738e-08
1.62791e-08
-2.95499e-08
-1.16807e-08
-2.99452e-08
-3.92962e-08
-2.88899e-08
-6.51483e-08
-2.64952e-08
-8.86024e-08
-2.29025e-08
-1.0946e-07
-1.82708e-08
-1.2783e-07
-1.27536e-08
-1.43985e-07
-6.48305e-09
-1.58241e-07
4.07171e-10
-1.70881e-07
7.80718e-09
-1.82032e-07
1.55699e-08
-1.91792e-07
2.35701e-08
-2.00224e-07
3.16607e-08
-2.07619e-07
3.97435e-08
-2.1448e-07
4.77525e-08
-2.21583e-07
5.57012e-08
-2.29813e-07
6.36391e-08
-2.40047e-07
7.16927e-08
-2.52959e-07
7.99757e-08