/*--------------------------------*- C++ -*----------------------------------*\
  =========                 |
  \\      /  F ield         | OpenFOAM: The Open Source CFD Toolbox
   \\    /   O peration     | Website:  https://openfoam.org
    \\  /    A nd           | Version:  7
     \\/     M anipulation  |
\*---------------------------------------------------------------------------*/
FoamFile
{
    version     2.0;
    format      ascii;
    class       volScalarField;
    location    "0.18";
    object      nut;
}
// * * * * * * * * * * * * * * * * * * * * * * * * * * * * * * * * * * * * * //

dimensions      [0 2 -1 0 0 0 0];

internalField   nonuniform List<scalar> 
70000
(
9.96271e-12
6.87965e-14
2.56713e-16
8.64146e-17
4.7743e-17
7.85837e-17
2.76297e-17
1.29358e-17
8.78591e-18
6.42677e-18
4.72174e-18
3.53104e-18
2.70313e-18
2.11342e-18
1.68213e-18
1.35954e-18
1.11363e-18
9.23015e-19
7.7303e-19
6.53419e-19
5.56816e-19
4.77927e-19
4.12761e-19
3.58454e-19
3.12629e-19
2.73791e-19
2.4022e-19
2.11454e-19
1.85725e-19
1.63735e-19
1.42902e-19
1.25658e-19
1.07668e-19
9.37865e-20
7.75453e-20
6.54837e-20
5.17989e-20
3.84961e-20
3.20201e-20
1.28987e-20
2.26208e-20
3.34772e-23
4.26611e-20
1.00278e-19
5.10593e-19
5.38469e-18
1.39697e-17
1.64582e-16
7.04548e-15
2.17414e-13
1.04275e-10
5.98787e-12
6.44541e-14
2.14272e-14
2.89007e-16
1.69432e-17
2.51593e-17
2.11112e-17
1.22575e-17
7.2922e-18
4.78013e-18
3.33495e-18
2.41754e-18
1.80392e-18
1.37924e-18
1.07691e-18
8.56287e-19
6.91711e-19
5.66552e-19
4.69696e-19
3.93606e-19
3.32959e-19
2.8406e-19
2.44089e-19
2.11201e-19
1.83642e-19
1.60696e-19
1.40848e-19
1.24421e-19
1.09405e-19
9.75573e-20
8.54657e-20
7.71151e-20
6.67783e-20
6.10188e-20
5.25536e-20
4.72355e-20
4.4426e-20
3.26484e-20
5.01497e-20
1.53008e-20
1.14515e-19
3.50854e-20
7.00864e-19
2.29164e-18
1.04387e-17
7.45228e-17
3.58237e-16
3.38163e-14
1.70214e-14
3.19164e-10
3.39874e-12
1.91033e-13
1.99184e-14
7.69444e-16
5.87611e-17
7.36232e-18
4.20351e-18
2.13267e-18
1.05514e-18
5.82853e-19
3.55564e-19
2.30474e-19
1.55531e-19
1.08371e-19
7.76391e-20
5.70137e-20
4.27987e-20
3.27692e-20
2.55389e-20
2.02316e-20
1.62656e-20
1.32655e-20
1.09569e-20
9.17934e-21
7.77451e-21
6.7046e-21
5.83041e-21
5.22861e-21
4.70232e-21
4.49612e-21
4.26481e-21
4.54422e-21
4.76321e-21
5.89757e-21
7.40343e-21
1.045e-20
1.69918e-20
2.5041e-20
5.44826e-20
8.22663e-20
2.40772e-19
4.62801e-19
1.72411e-18
5.56593e-18
2.10475e-17
1.42141e-16
5.20943e-16
4.63789e-14
6.86079e-14
6.1534e-09
1.92824e-11
7.84891e-13
6.11741e-14
5.50453e-15
9.32014e-16
1.11043e-16
2.95858e-17
1.23239e-17
5.44325e-18
2.53076e-18
1.29165e-18
7.17508e-19
4.23404e-19
2.6116e-19
1.66975e-19
1.10129e-19
7.46839e-20
5.19493e-20
3.70053e-20
2.69731e-20
2.01167e-20
1.53637e-20
1.20348e-20
9.69521e-21
8.06191e-21
6.95255e-21
6.25805e-21
5.91293e-21
5.92408e-21
6.30325e-21
7.23962e-21
8.84673e-21
1.18581e-20
1.66216e-20
2.58974e-20
4.06626e-20
7.20552e-20
1.2292e-19
2.42587e-19
4.45629e-19
9.86478e-19
2.05646e-18
5.38632e-18
1.44934e-17
4.53181e-17
2.44737e-16
4.39306e-16
4.54731e-14
1.21151e-13
2.32101e-09
2.23431e-10
4.46094e-12
3.22288e-13
2.3112e-14
4.42208e-15
7.24834e-16
2.03292e-16
8.28089e-17
3.66139e-17
1.70462e-17
8.61147e-18
4.7071e-18
2.73282e-18
1.66115e-18
1.04838e-18
6.83413e-19
4.58431e-19
3.15549e-19
2.22419e-19
1.60334e-19
1.18135e-19
8.89854e-20
6.85911e-20
5.42079e-20
4.40537e-20
3.69621e-20
3.22028e-20
2.92961e-20
2.81075e-20
2.85364e-20
3.11633e-20
3.62533e-20
4.62897e-20
6.21862e-20
9.34682e-20
1.42183e-19
2.47885e-19
4.12113e-19
8.15099e-19
1.4472e-18
3.19768e-18
6.26175e-18
1.52018e-17
3.85664e-17
9.20036e-17
4.47263e-16
5.02909e-16
4.68523e-14
1.19311e-13
3.00882e-09
5.28558e-09
4.36657e-11
1.94929e-12
1.0842e-13
1.80787e-14
3.25762e-15
9.47926e-16
3.84636e-16
1.71039e-16
8.02118e-17
4.05272e-17
2.20268e-17
1.2684e-17
7.64158e-18
4.77949e-18
3.088e-18
2.05331e-18
1.40105e-18
9.78837e-19
6.99125e-19
5.10039e-19
3.79996e-19
2.89269e-19
2.2532e-19
1.79994e-19
1.4798e-19
1.25815e-19
1.11254e-19
1.03203e-19
1.00981e-19
1.05726e-19
1.17973e-19
1.44047e-19
1.86069e-19
2.69286e-19
3.97025e-19
6.76212e-19
1.09766e-18
2.15323e-18
3.73896e-18
8.22155e-18
1.56304e-17
3.66125e-17
8.83703e-17
1.82264e-16
8.41638e-16
8.93522e-16
4.96164e-14
1.17322e-13
1.07677e-09
4.76694e-09
3.72263e-09
1.85566e-11
6.74011e-13
9.21429e-14
1.52483e-14
4.14432e-15
1.59373e-15
6.90431e-16
3.19797e-16
1.60028e-16
8.61496e-17
4.91461e-17
2.9343e-17
1.81944e-17
1.16571e-17
7.68824e-18
5.20409e-18
3.60684e-18
2.55524e-18
1.84831e-18
1.36448e-18
1.02823e-18
7.91769e-19
6.24139e-19
5.05182e-19
4.21621e-19
3.64744e-19
3.2967e-19
3.13119e-19
3.16839e-19
3.40975e-19
4.00348e-19
4.98337e-19
6.94681e-19
9.93081e-19
1.64205e-18
2.60981e-18
5.01368e-18
8.59851e-18
1.8545e-17
3.494e-17
7.90409e-17
1.87102e-16
3.64931e-16
1.58734e-15
1.87852e-15
5.44177e-14
1.21483e-13
2.42885e-09
3.87132e-09
8.23825e-10
2.43298e-09
8.662e-12
7.17448e-13
9.10103e-14
2.0709e-14
7.07908e-15
2.84306e-15
1.2512e-15
6.03101e-16
3.15497e-16
1.75975e-16
1.03172e-16
6.30113e-17
3.98512e-17
2.5986e-17
1.74111e-17
1.19547e-17
8.39463e-18
6.02003e-18
4.40565e-18
3.28984e-18
2.50847e-18
1.95579e-18
1.56332e-18
1.2858e-18
1.09345e-18
9.68372e-19
8.98333e-19
8.8423e-19
9.23462e-19
1.04817e-18
1.26271e-18
1.69858e-18
2.35907e-18
3.77629e-18
5.88529e-18
1.09939e-17
1.8693e-17
3.91888e-17
7.37903e-17
1.60809e-16
3.77864e-16
7.16157e-16
2.92726e-15
4.03729e-15
6.26985e-14
1.32208e-13
3.37056e-09
4.37201e-09
5.92113e-10
3.0033e-10
5.49808e-10
1.8718e-11
9.65008e-13
1.46141e-13
3.97388e-14
1.37946e-14
5.47674e-15
2.44422e-15
1.2054e-15
6.4213e-16
3.62984e-16
2.15242e-16
1.32865e-16
8.48991e-17
5.59141e-17
3.78263e-17
2.62177e-17
1.85823e-17
1.34522e-17
9.94114e-18
7.50198e-18
5.78693e-18
4.57318e-18
3.71408e-18
3.11378e-18
2.71221e-18
2.46876e-18
2.37606e-18
2.42132e-18
2.67068e-18
3.12831e-18
4.07377e-18
5.51126e-18
8.5398e-18
1.30635e-17
2.36526e-17
3.99028e-17
8.09627e-17
1.5257e-16
3.2062e-16
7.48038e-16
1.40404e-15
5.33145e-15
8.44492e-15
7.71884e-14
1.53773e-13
3.41222e-09
4.60917e-09
6.73824e-10
1.93857e-10
4.72502e-11
6.72375e-11
3.17549e-10
2.84759e-12
3.9302e-13
9.77142e-14
3.15002e-14
1.21541e-14
5.38349e-15
2.64158e-15
1.3997e-15
7.87928e-16
4.66131e-16
2.87547e-16
1.83874e-16
1.21326e-16
8.23158e-17
5.72724e-17
4.07895e-17
2.97032e-17
2.21127e-17
1.6838e-17
1.31382e-17
1.05324e-17
8.71045e-18
7.47438e-18
6.69259e-18
6.32019e-18
6.30936e-18
6.79243e-18
7.76763e-18
9.82845e-18
1.29864e-17
1.95088e-17
2.9314e-17
5.14059e-17
8.59865e-17
1.6864e-16
3.17412e-16
6.45278e-16
1.48863e-15
2.80419e-15
9.79505e-15
1.72948e-14
1.02637e-13
1.96085e-13
3.21319e-09
4.39292e-09
7.75177e-10
2.02506e-10
3.66994e-11
2.18793e-11
1.34795e-11
2.09276e-11
1.6194e-10
2.27549e-12
3.57806e-13
9.58719e-14
3.37918e-14
1.41435e-14
6.65985e-15
3.42132e-15
1.8816e-15
1.09374e-15
6.65836e-16
4.21606e-16
2.76241e-16
1.86554e-16
1.29485e-16
9.21896e-17
6.72691e-17
5.03019e-17
3.85959e-17
3.04517e-17
2.47961e-17
2.09455e-17
1.84533e-17
1.71221e-17
1.67786e-17
1.76823e-17
1.9797e-17
2.44174e-17
3.15775e-17
4.60857e-17
6.80532e-17
1.15645e-16
1.91539e-16
3.63164e-16
6.80605e-16
1.34233e-15
3.05e-15
5.78071e-15
1.85623e-14
3.51498e-14
1.48743e-13
2.78264e-13
3.0189e-09
3.97462e-09
8.47989e-10
2.13475e-10
3.90148e-11
2.02175e-11
8.66924e-12
4.62393e-12
4.20154e-12
6.78926e-12
7.87021e-11
5.06523e-12
5.64506e-13
1.43443e-13
5.04025e-14
2.12633e-14
1.01312e-14
5.27624e-15
2.94401e-15
1.73677e-15
1.07325e-15
6.90064e-16
4.59403e-16
3.15573e-16
2.23209e-16
1.62399e-16
1.21598e-16
9.38375e-17
7.48643e-17
6.20287e-17
5.36384e-17
4.88435e-17
4.6969e-17
4.84961e-17
5.32128e-17
6.40937e-17
8.12158e-17
1.1533e-16
1.67359e-16
2.75759e-16
4.51461e-16
8.27946e-16
1.53936e-15
2.95164e-15
6.57722e-15
1.25068e-14
3.70262e-14
7.27978e-14
2.39548e-13
4.39518e-13
2.8476e-09
3.51474e-09
9.09802e-10
2.10983e-10
4.25845e-11
2.17888e-11
9.10666e-12
3.94743e-12
2.48037e-12
1.91869e-12
1.73299e-12
2.02973e-12
4.1282e-12
8.09826e-11
2.74178e-12
3.91976e-13
1.13361e-13
4.37377e-14
1.98979e-14
1.01076e-14
5.5676e-15
3.26701e-15
2.01885e-15
1.30357e-15
8.75114e-16
6.0887e-16
4.38571e-16
3.27143e-16
2.53234e-16
2.04186e-16
1.72216e-16
1.53183e-16
1.44046e-16
1.45407e-16
1.56129e-16
1.83556e-16
2.27735e-16
3.14652e-16
4.48194e-16
7.15898e-16
1.15567e-15
2.05011e-15
3.76576e-15
7.02832e-15
1.52827e-14
2.90546e-14
7.94184e-14
1.58971e-13
4.34826e-13
7.79907e-13
2.67769e-09
3.0593e-09
9.78967e-10
1.99909e-10
4.58186e-11
2.32989e-11
1.03875e-11
4.26649e-12
2.43122e-12
1.62488e-12
1.1491e-12
8.76557e-13
7.49416e-13
7.3993e-13
8.91592e-13
1.52762e-12
7.10543e-12
1.09253e-11
6.566e-13
1.62536e-13
6.01917e-14
2.72849e-14
1.40342e-14
7.89308e-15
4.75559e-15
3.03238e-15
2.03254e-15
1.4272e-15
1.04921e-15
8.09096e-16
6.56203e-16
5.63629e-16
5.13475e-16
5.03049e-16
5.25424e-16
6.00224e-16
7.26213e-16
9.73329e-16
1.35617e-15
2.0953e-15
3.32158e-15
5.69282e-15
1.02773e-14
1.8664e-14
3.94047e-14
7.44755e-14
1.8865e-13
3.7842e-13
9.01182e-13
1.58091e-12
2.49933e-09
2.62451e-09
1.05899e-09
1.8591e-10
4.9203e-11
2.42537e-11
1.18194e-11
4.80173e-12
2.65746e-12
1.71796e-12
1.14472e-12
7.87944e-13
5.75774e-13
4.49472e-13
3.74954e-13
3.36391e-13
3.29526e-13
3.62498e-13
4.73448e-13
8.39766e-13
3.3199e-12
1.89897e-11
6.8902e-13
1.67441e-13
6.41574e-14
3.05822e-14
1.66942e-14
1.0053e-14
6.55623e-15
4.59212e-15
3.44068e-15
2.76488e-15
2.37915e-15
2.21629e-15
2.21437e-15
2.42449e-15
2.82764e-15
3.64159e-15
4.91951e-15
7.30317e-15
1.12803e-14
1.85998e-14
3.27494e-14
5.77137e-14
1.17566e-13
2.19454e-13
5.17003e-13
1.02628e-12
2.20196e-12
3.77205e-12
2.31309e-09
2.22437e-09
1.14455e-09
1.71617e-10
5.3209e-11
2.47871e-11
1.33059e-11
5.4079e-12
2.95252e-12
1.9051e-12
1.26039e-12
8.45566e-13
5.90586e-13
4.3149e-13
3.28076e-13
2.59009e-13
2.12632e-13
1.82129e-13
1.63559e-13
1.55081e-13
1.56899e-13
1.72246e-13
2.11246e-13
3.06404e-13
6.02858e-13
2.66671e-12
1.47993e-11
6.44668e-13
1.76481e-13
7.67778e-14
4.2227e-14
2.7243e-14
1.98724e-14
1.62522e-14
1.46172e-14
1.46292e-14
1.58353e-14
1.90108e-14
2.42708e-14
3.3934e-14
5.01178e-14
7.84766e-14
1.32819e-13
2.25173e-13
4.38241e-13
8.00495e-13
1.75733e-12
3.41817e-12
6.77257e-12
1.13106e-11
2.12127e-09
1.86511e-09
1.22832e-09
1.58073e-10
5.78817e-11
2.50284e-11
1.48738e-11
6.08483e-12
3.27873e-12
2.12397e-12
1.41641e-12
9.48794e-13
6.55624e-13
4.70229e-13
3.47735e-13
2.63922e-13
2.05406e-13
1.64037e-13
1.34564e-13
1.13554e-13
9.87526e-14
8.87037e-14
8.2534e-14
7.98498e-14
8.07716e-14
8.61186e-14
9.7981e-14
1.21282e-13
1.6859e-13
2.79306e-13
6.28791e-13
3.01675e-12
4.67956e-11
1.62518e-12
5.59271e-13
3.30264e-13
2.53699e-13
2.37219e-13
2.51648e-13
3.01685e-13
3.96019e-13
5.57937e-13
8.67928e-13
1.3704e-12
2.48392e-12
4.34914e-12
8.85643e-12
1.67108e-11
3.10765e-11
5.05172e-11
1.92551e-09
1.54716e-09
1.30371e-09
1.4605e-10
6.29761e-11
2.50462e-11
1.65274e-11
6.85911e-12
3.64072e-12
2.36533e-12
1.59528e-12
1.07435e-12
7.42145e-13
5.3061e-13
3.89952e-13
2.92828e-13
2.24258e-13
1.75119e-13
1.3947e-13
1.1334e-13
9.40416e-14
7.97282e-14
6.91229e-14
6.1344e-14
5.58075e-14
5.2157e-14
5.02354e-14
5.00933e-14
5.20092e-14
5.66791e-14
6.53506e-14
8.07396e-14
1.07842e-13
1.5882e-13
2.60264e-13
4.90839e-13
1.08819e-12
3.07626e-12
1.26963e-11
4.7069e-11
1.74795e-10
5.5194e-11
4.17877e-11
4.26342e-11
5.7738e-11
8.39641e-11
1.46809e-10
2.56758e-10
4.40191e-10
6.76248e-10
1.72803e-09
1.27036e-09
1.36505e-09
1.36445e-10
6.80882e-11
2.49096e-11
1.82322e-11
7.75409e-12
4.04912e-12
2.63262e-12
1.79654e-12
1.21884e-12
8.4388e-13
6.03963e-13
4.44042e-13
3.33094e-13
2.5429e-13
1.97459e-13
1.55948e-13
1.2528e-13
1.02402e-13
8.5193e-14
7.21662e-14
6.22713e-14
5.47782e-14
4.91924e-14
4.51988e-14
4.26393e-14
4.14729e-14
4.18476e-14
4.40383e-14
4.87622e-14
5.70293e-14
7.12294e-14
9.48598e-14
1.36313e-13
2.09375e-13
3.47043e-13
6.12958e-13
1.15233e-12
2.30161e-12
4.7529e-12
1.03964e-11
2.24223e-11
4.98218e-11
1.00642e-10
1.89086e-10
2.89593e-10
3.64727e-10
3.69402e-10
1.5316e-09
1.03439e-09
1.40744e-09
1.3021e-10
7.26963e-11
2.47191e-11
1.99285e-11
8.78884e-12
4.51373e-12
2.93043e-12
2.02321e-12
1.38438e-12
9.61409e-13
6.89356e-13
5.07869e-13
3.81628e-13
2.91612e-13
2.2645e-13
1.78686e-13
1.43274e-13
1.16752e-13
9.67074e-14
8.14384e-14
6.97363e-14
6.07531e-14
5.39077e-14
4.88146e-14
4.52564e-14
4.31263e-14
4.24891e-14
4.34957e-14
4.66413e-14
5.25773e-14
6.28877e-14
7.97154e-14
1.07995e-13
1.55214e-13
2.37603e-13
3.84126e-13
6.50942e-13
1.15986e-12
2.10979e-12
4.02889e-12
7.61051e-12
1.49654e-11
2.81473e-11
5.28669e-11
9.13532e-11
1.45704e-10
2.10811e-10
1.33916e-09
8.38062e-10
1.42687e-09
1.28253e-10
7.62017e-11
2.46054e-11
2.15406e-11
9.98e-12
5.04451e-12
3.26312e-12
2.27831e-12
1.57416e-12
1.09718e-12
7.88283e-13
5.82139e-13
4.38497e-13
3.35756e-13
2.61177e-13
2.06395e-13
1.65712e-13
1.35196e-13
1.12096e-13
9.44649e-14
8.09152e-14
7.04707e-14
6.24636e-14
5.64489e-14
5.21743e-14
4.95085e-14
4.85057e-14
4.93091e-14
5.24068e-14
5.84476e-14
6.8954e-14
8.60179e-14
1.14147e-13
1.60312e-13
2.38355e-13
3.73372e-13
6.09499e-13
1.04291e-12
1.81709e-12
3.30604e-12
5.97496e-12
1.11569e-11
2.01777e-11
3.6306e-11
6.12377e-11
9.63021e-11
1.3898e-10
1.15367e-09
6.79085e-10
1.42046e-09
1.31378e-10
7.80438e-11
2.47137e-11
2.29861e-11
1.13405e-11
5.6529e-12
3.63539e-12
2.56463e-12
1.79146e-12
1.25414e-12
9.02944e-13
6.68456e-13
5.04854e-13
3.87496e-13
3.02084e-13
2.39241e-13
1.92528e-13
1.57474e-13
1.30936e-13
1.10679e-13
9.51094e-14
8.31029e-14
7.38948e-14
6.69784e-14
6.20731e-14
5.90392e-14
5.79495e-14
5.8986e-14
6.27108e-14
6.99007e-14
8.22565e-14
1.02223e-13
1.34692e-13
1.8754e-13
2.75281e-13
4.24935e-13
6.81036e-13
1.14059e-12
1.94296e-12
3.43603e-12
6.0532e-12
1.09192e-11
1.91944e-11
3.33386e-11
5.4729e-11
8.43232e-11
1.20082e-10
9.78033e-10
5.54125e-10
1.38682e-09
1.40272e-10
7.78417e-11
2.51792e-11
2.41874e-11
1.28762e-11
6.35234e-12
4.0528e-12
2.88495e-12
2.03957e-12
1.43549e-12
1.03586e-12
7.68769e-13
5.82253e-13
4.48072e-13
3.50145e-13
2.77976e-13
2.24292e-13
1.84006e-13
1.53521e-13
1.30269e-13
1.12417e-13
9.86683e-14
8.81476e-14
8.02808e-14
7.47609e-14
7.14506e-14
7.04607e-14
7.20469e-14
7.68983e-14
8.60115e-14
1.01413e-13
1.26158e-13
1.65965e-13
2.30402e-13
3.36108e-13
5.14614e-13
8.1589e-13
1.34721e-12
2.26115e-12
3.91671e-12
6.76992e-12
1.18839e-11
2.03873e-11
3.43651e-11
5.49778e-11
8.30353e-11
1.16574e-10
8.14945e-10
4.59044e-10
1.3263e-09
1.55466e-10
7.54642e-11
2.61043e-11
2.50845e-11
1.45821e-11
7.15847e-12
4.52193e-12
3.2422e-12
2.32186e-12
1.64473e-12
1.18985e-12
8.85283e-13
6.72482e-13
5.18962e-13
4.06587e-13
3.23619e-13
2.6186e-13
2.15519e-13
1.80477e-13
1.53781e-13
1.33317e-13
1.17592e-13
1.05601e-13
9.66958e-14
9.05451e-14
8.70241e-14
8.63003e-14
8.87367e-14
9.51985e-14
1.06989e-13
1.26588e-13
1.57888e-13
2.07796e-13
2.88183e-13
4.18875e-13
6.37634e-13
1.00305e-12
1.6376e-12
2.71606e-12
4.62351e-12
7.85947e-12
1.34748e-11
2.2602e-11
3.71028e-11
5.7948e-11
8.58928e-11
1.18917e-10
6.66712e-10
3.89195e-10
1.24115e-09
1.77194e-10
7.10654e-11
2.75417e-11
2.56468e-11
1.64366e-11
8.08892e-12
5.05057e-12
3.63957e-12
2.6416e-12
1.88565e-12
1.36809e-12
1.02047e-12
7.77552e-13
6.01854e-13
4.72831e-13
3.77378e-13
3.06275e-13
2.52931e-13
2.12629e-13
1.81969e-13
1.58513e-13
1.40536e-13
1.26887e-13
1.16837e-13
1.1003e-13
1.06368e-13
1.06095e-13
1.09719e-13
1.18337e-13
1.3365e-13
1.58729e-13
1.98532e-13
2.61514e-13
3.62425e-13
5.25241e-13
7.95344e-13
1.24245e-12
2.00732e-12
3.29245e-12
5.5152e-12
9.22524e-12
1.54766e-11
2.5403e-11
4.0702e-11
6.21576e-11
9.0493e-11
1.23588e-10
5.35056e-10
3.39756e-10
1.13536e-09
2.05176e-10
6.51145e-11
2.94699e-11
2.58846e-11
1.83975e-11
9.16267e-12
5.64776e-12
4.08069e-12
3.00196e-12
2.16223e-12
1.57409e-12
1.17709e-12
8.99712e-13
6.98644e-13
5.50493e-13
4.4064e-13
3.58746e-13
2.97322e-13
2.50964e-13
2.15754e-13
1.88877e-13
1.68343e-13
1.52831e-13
1.41523e-13
1.34043e-13
1.30334e-13
1.30743e-13
1.35971e-13
1.47408e-13
1.6726e-13
1.99347e-13
2.49947e-13
3.29452e-13
4.56088e-13
6.5895e-13
9.92311e-13
1.53919e-12
2.46084e-12
3.99079e-12
6.58075e-12
1.08291e-11
1.77937e-11
2.85907e-11
4.47801e-11
6.69379e-11
9.57794e-11
1.29082e-10
4.20989e-10
3.05954e-10
1.01451e-09
2.3833e-10
5.83763e-11
3.17622e-11
2.58544e-11
2.04009e-11
1.03983e-11
6.32387e-12
4.5698e-12
3.40584e-12
2.47852e-12
1.81168e-12
1.35821e-12
1.04145e-12
8.11444e-13
6.41389e-13
5.14979e-13
4.20659e-13
3.49942e-13
2.96634e-13
2.56223e-13
2.25454e-13
2.02031e-13
1.84441e-13
1.71766e-13
1.63616e-13
1.59997e-13
1.61393e-13
1.6875e-13
1.83832e-13
2.09478e-13
2.50439e-13
3.14603e-13
4.14747e-13
5.73202e-13
8.25217e-13
1.23518e-12
1.9014e-12
3.00722e-12
4.81904e-12
7.82233e-12
1.26577e-11
2.03806e-11
3.20665e-11
4.91415e-11
7.19764e-11
1.01251e-10
1.34642e-10
3.24734e-10
2.83248e-10
8.85928e-10
2.74426e-10
5.185e-11
3.41771e-11
2.56549e-11
2.2364e-11
1.18117e-11
7.09069e-12
5.11193e-12
3.85591e-12
2.83853e-12
2.08497e-12
1.56719e-12
1.2055e-12
9.42582e-13
7.47543e-13
6.02165e-13
4.93588e-13
4.12219e-13
3.5097e-13
3.04641e-13
2.69472e-13
2.4281e-13
2.22922e-13
2.08785e-13
2.00004e-13
1.96671e-13
1.99452e-13
2.09606e-13
2.29365e-13
2.6235e-13
3.14468e-13
3.95541e-13
5.21241e-13
7.18691e-13
1.03037e-12
1.53199e-12
2.33891e-12
3.6577e-12
5.78795e-12
9.24657e-12
1.47065e-11
2.32109e-11
3.57698e-11
5.36762e-11
7.70964e-11
1.06644e-10
1.39929e-10
2.45636e-10
2.6767e-10
7.58312e-10
3.09968e-10
4.66024e-11
3.63975e-11
2.54133e-11
2.41933e-11
1.34121e-11
7.96154e-12
5.71308e-12
4.35458e-12
3.24599e-12
2.39826e-12
1.80767e-12
1.39481e-12
1.09458e-12
8.71176e-13
7.04164e-13
5.79295e-13
4.85774e-13
4.15497e-13
3.62476e-13
3.22363e-13
2.92101e-13
2.69704e-13
2.54037e-13
2.44709e-13
2.41937e-13
2.46617e-13
2.60405e-13
2.86121e-13
3.28338e-13
3.94379e-13
4.9637e-13
6.53442e-13
8.98243e-13
1.28158e-12
1.89165e-12
2.86225e-12
4.42383e-12
6.90801e-12
1.0859e-11
1.69701e-11
2.6259e-11
3.96505e-11
5.82993e-11
8.21697e-11
1.11784e-10
1.4474e-10
1.8231e-10
2.55957e-10
6.38923e-10
3.40821e-10
4.34783e-11
3.8081e-11
2.52659e-11
2.57963e-11
1.51968e-11
8.95101e-12
6.38032e-12
4.90415e-12
3.70411e-12
2.75591e-12
2.08351e-12
1.61254e-12
1.27014e-12
1.01468e-12
8.23128e-13
6.79734e-13
5.72416e-13
4.91936e-13
4.31399e-13
3.85784e-13
3.51562e-13
3.26464e-13
3.09236e-13
2.99511e-13
2.97669e-13
3.04906e-13
3.23368e-13
3.56605e-13
4.10344e-13
4.93616e-13
6.21262e-13
8.16481e-13
1.1182e-12
1.58662e-12
2.32344e-12
3.48187e-12
5.31606e-12
8.18707e-12
1.26605e-11
1.94364e-11
2.9493e-11
4.36529e-11
6.29259e-11
8.70894e-11
1.16596e-10
1.48902e-10
1.32944e-10
2.4529e-10
5.31509e-10
3.63333e-10
4.29545e-11
3.89154e-11
2.53299e-11
2.71e-11
1.71451e-11
1.00742e-11
7.12158e-12
5.50693e-12
4.21541e-12
3.16205e-12
2.39871e-12
1.86198e-12
1.47208e-12
1.1806e-12
9.61369e-13
7.97034e-13
6.74146e-13
5.82211e-13
5.13302e-13
4.61619e-13
4.23097e-13
3.95145e-13
3.76383e-13
3.66493e-13
3.66069e-13
3.76686e-13
4.01096e-13
4.4374e-13
5.11724e-13
6.16122e-13
7.74921e-13
1.01603e-12
1.38539e-12
1.95356e-12
2.83649e-12
4.20718e-12
6.34244e-12
9.6286e-12
1.4645e-11
2.2084e-11
3.28699e-11
4.77101e-11
6.74678e-11
9.17416e-11
1.20944e-10
1.52349e-10
9.54486e-11
2.33431e-10
4.37577e-10
3.75131e-10
4.52334e-11
3.8733e-11
2.56759e-11
2.80689e-11
1.9216e-11
1.13457e-11
7.94572e-12
6.16557e-12
4.78158e-12
3.62046e-12
2.75732e-12
2.14655e-12
1.70331e-12
1.37157e-12
1.12133e-12
9.33477e-13
7.93135e-13
6.88439e-13
6.10289e-13
5.51995e-13
5.08874e-13
4.77973e-13
4.57783e-13
4.48062e-13
4.49683e-13
4.64692e-13
4.96583e-13
5.50869e-13
6.36286e-13
7.66303e-13
9.6251e-13
1.25814e-12
1.70685e-12
2.39029e-12
3.4391e-12
5.04566e-12
7.50728e-12
1.123e-11
1.67975e-11
2.48805e-11
3.63344e-11
5.1746e-11
7.18208e-11
9.60244e-11
1.24632e-10
1.54938e-10
6.76331e-11
2.19082e-10
3.57687e-10
3.75325e-10
5.03408e-11
3.76076e-11
2.63104e-11
2.8714e-11
2.13483e-11
1.27776e-11
8.86237e-12
6.88334e-12
5.40356e-12
4.13429e-12
3.16332e-12
2.46972e-12
1.96678e-12
1.59028e-12
1.30555e-12
1.09148e-12
9.31714e-13
8.1292e-13
7.24679e-13
6.59277e-13
6.11327e-13
5.77465e-13
5.56052e-13
5.4696e-13
5.51411e-13
5.72036e-13
6.13214e-13
6.81741e-13
7.88243e-13
9.48955e-13
1.18951e-12
1.54905e-12
2.08948e-12
2.90404e-12
4.13796e-12
6.00174e-12
8.80987e-12
1.29811e-11
1.90934e-11
2.77819e-11
3.98202e-11
5.56711e-11
7.58856e-11
9.98094e-11
1.27591e-10
1.56574e-10
4.74277e-11
2.01856e-10
2.9157e-10
3.64412e-10
5.80796e-11
3.58337e-11
2.71748e-11
2.90903e-11
2.34647e-11
1.43766e-11
9.88174e-12
7.66442e-12
6.08162e-12
4.70579e-12
3.62044e-12
2.83497e-12
2.26545e-12
1.83943e-12
1.51662e-12
1.27355e-12
1.09235e-12
9.58121e-13
8.58987e-13
7.86063e-13
7.33151e-13
6.96429e-13
6.74123e-13
6.66263e-13
6.74505e-13
7.02188e-13
7.54741e-13
8.40461e-13
9.72137e-13
1.16913e-12
1.46152e-12
1.89482e-12
2.53958e-12
3.50068e-12
4.93725e-12
7.07574e-12
1.02433e-11
1.48637e-11
2.14975e-11
3.07328e-11
4.32505e-11
5.93908e-11
7.95548e-11
1.02988e-10
1.2975e-10
1.57056e-10
3.30149e-11
1.8208e-10
2.38162e-10
3.44039e-10
6.79196e-11
3.38391e-11
2.81553e-11
2.92869e-11
2.54812e-11
1.61399e-11
1.10142e-11
8.51388e-12
6.81575e-12
5.33619e-12
4.13192e-12
3.24568e-12
2.60222e-12
2.12163e-12
1.7571e-12
1.48223e-12
1.27759e-12
1.12664e-12
1.0159e-12
9.35162e-13
8.77293e-13
8.37951e-13
8.1523e-13
8.09364e-13
8.22541e-13
8.58943e-13
9.25224e-13
1.03141e-12
1.1927e-12
1.43193e-12
1.78396e-12
2.30098e-12
3.06226e-12
4.18397e-12
5.83773e-12
8.26284e-12
1.17936e-11
1.685e-11
2.39647e-11
3.36682e-11
4.65411e-11
6.28064e-11
8.27222e-11
1.05465e-10
1.30982e-10
1.56585e-10
2.2885e-11
1.60629e-10
1.95824e-10
3.16651e-10
7.89676e-11
3.20928e-11
2.91067e-11
2.94093e-11
2.73206e-11
1.80515e-11
1.22693e-11
9.43766e-12
7.60598e-12
6.02557e-12
4.70037e-12
3.70503e-12
2.97988e-12
2.43944e-12
2.02949e-12
1.72009e-12
1.49005e-12
1.32119e-12
1.19827e-12
1.10958e-12
1.04692e-12
1.00538e-12
9.82883e-13
9.79944e-13
9.99379e-13
1.04636e-12
1.12894e-12
1.25909e-12
1.4547e-12
1.74228e-12
2.16172e-12
2.77202e-12
3.66088e-12
4.95484e-12
6.83592e-12
9.5523e-12
1.34389e-11
1.89038e-11
2.64407e-11
3.65154e-11
4.96035e-11
6.58198e-11
8.529e-11
1.07145e-10
1.31231e-10
1.55137e-10
1.58376e-11
1.38738e-10
1.62628e-10
2.8502e-10
9.0056e-11
3.10265e-11
2.98955e-11
2.95573e-11
2.89267e-11
2.00798e-11
1.36552e-11
1.04424e-11
8.45282e-12
6.77299e-12
5.32745e-12
4.21586e-12
3.40108e-12
2.79521e-12
2.33617e-12
1.9896e-12
1.73234e-12
1.54451e-12
1.40902e-12
1.31245e-12
1.2454e-12
1.20226e-12
1.18082e-12
1.18191e-12
1.20909e-12
1.26866e-12
1.37027e-12
1.52802e-12
1.76265e-12
2.10459e-12
2.59879e-12
3.31086e-12
4.33635e-12
5.81064e-12
7.92334e-12
1.09269e-11
1.51501e-11
2.09803e-11
2.88639e-11
3.91966e-11
5.23484e-11
6.83373e-11
8.71691e-11
1.07954e-10
1.30469e-10
1.52361e-10
1.09636e-11
1.17559e-10
1.36656e-10
2.51899e-10
9.99363e-11
3.09651e-11
3.0448e-11
2.98079e-11
3.02752e-11
2.21788e-11
1.51769e-11
1.15352e-11
9.35783e-12
7.57683e-12
6.01386e-12
4.78059e-12
3.86831e-12
3.19116e-12
2.67934e-12
2.29314e-12
2.00704e-12
1.79941e-12
1.65117e-12
1.54704e-12
1.47623e-12
1.43232e-12
1.41296e-12
1.41933e-12
1.45585e-12
1.53013e-12
1.65352e-12
1.84244e-12
2.12063e-12
2.52243e-12
3.09776e-12
3.91838e-12
5.08657e-12
6.74459e-12
9.08614e-12
1.23629e-11
1.68904e-11
2.30281e-11
3.11675e-11
4.16324e-11
5.46896e-11
7.02738e-11
8.82848e-11
1.07833e-10
1.28629e-10
1.48462e-10
7.60716e-12
9.78137e-11
1.16164e-10
2.1964e-10
1.07556e-10
3.2065e-11
3.07717e-11
3.02014e-11
3.13775e-11
2.42914e-11
1.6834e-11
1.27233e-11
1.03236e-11
8.43514e-12
6.7592e-12
5.40104e-12
4.3838e-12
3.62931e-12
3.06099e-12
2.63294e-12
2.31664e-12
2.08862e-12
1.92774e-12
1.81667e-12
1.743e-12
1.6994e-12
1.68331e-12
1.69634e-12
1.74387e-12
1.83492e-12
1.98274e-12
2.20614e-12
2.53187e-12
2.99814e-12
3.65943e-12
4.59287e-12
5.90597e-12
7.74535e-12
1.03049e-11
1.38302e-11
1.86171e-11
2.49907e-11
3.32825e-11
4.37451e-11
5.65475e-11
7.15556e-11
8.85773e-11
1.06746e-10
1.25707e-10
1.43455e-10
5.29879e-12
7.99681e-11
9.96823e-11
1.89779e-10
1.12274e-10
3.43034e-11
3.09521e-11
3.07373e-11
3.22756e-11
2.63573e-11
1.86184e-11
1.40131e-11
1.13539e-11
9.34616e-12
7.56198e-12
6.07821e-12
4.94948e-12
4.11147e-12
3.48291e-12
3.01097e-12
2.66346e-12
2.4148e-12
2.24173e-12
2.12465e-12
2.04932e-12
2.00734e-12
1.99588e-12
2.01702e-12
2.07719e-12
2.18695e-12
2.36152e-12
2.62215e-12
2.99854e-12
3.53246e-12
4.28237e-12
5.32963e-12
6.78513e-12
8.79692e-12
1.1555e-11
1.52936e-11
2.02828e-11
2.68087e-11
3.51402e-11
4.54619e-11
5.78521e-11
7.21231e-11
8.8006e-11
1.04674e-10
1.21723e-10
1.37336e-10
3.70657e-12
6.43716e-11
8.6071e-11
1.63072e-10
1.13917e-10
3.75063e-11
3.11346e-11
3.13873e-11
3.30322e-11
2.83226e-11
2.05127e-11
1.54093e-11
1.24533e-11
1.03088e-11
8.41987e-12
6.81223e-12
5.5668e-12
4.6392e-12
3.94656e-12
3.42896e-12
3.04961e-12
2.78047e-12
2.59601e-12
2.47421e-12
2.39874e-12
2.35992e-12
2.35457e-12
2.38526e-12
2.45954e-12
2.58961e-12
2.7927e-12
3.09246e-12
3.52133e-12
4.12417e-12
4.96256e-12
6.1207e-12
7.71061e-12
9.87868e-12
1.28068e-11
1.6713e-11
2.1837e-11
2.84226e-11
3.66755e-11
4.67174e-11
5.85453e-11
7.19327e-11
8.65478e-11
1.0162e-10
1.167e-10
1.30194e-10
2.6034e-12
5.11629e-11
7.45188e-11
1.39791e-10
1.12721e-10
4.13786e-11
3.14853e-11
3.2116e-11
3.37173e-11
3.01481e-11
2.249e-11
1.69144e-11
1.36265e-11
1.13229e-11
9.32998e-12
7.60218e-12
6.23666e-12
5.21373e-12
4.45316e-12
3.8883e-12
3.47691e-12
3.18788e-12
2.99326e-12
2.8684e-12
2.79461e-12
2.7607e-12
2.76302e-12
2.80459e-12
2.89416e-12
3.04561e-12
3.27816e-12
3.61774e-12
4.09916e-12
4.76975e-12
5.69311e-12
6.95462e-12
8.66503e-12
1.09658e-11
1.40268e-11
1.80459e-11
2.32285e-11
2.97746e-11
3.78288e-11
4.74562e-11
5.85829e-11
7.09575e-11
8.4199e-11
9.76052e-11
1.1069e-10
1.22084e-10
1.83534e-12
4.02673e-11
6.44925e-11
1.19884e-10
1.09211e-10
4.55483e-11
3.21507e-11
3.2898e-11
3.43948e-11
3.18156e-11
2.45157e-11
1.85268e-11
1.48784e-11
1.23894e-11
1.02893e-11
8.44618e-12
6.95923e-12
5.83594e-12
5.00359e-12
4.39004e-12
3.9468e-12
3.639e-12
3.43589e-12
3.31001e-12
3.24003e-12
3.21295e-12
3.22445e-12
3.27801e-12
3.38356e-12
3.55669e-12
3.81853e-12
4.19704e-12
4.72894e-12
5.46318e-12
6.46414e-12
7.81654e-12
9.62733e-12
1.203e-11
1.51788e-11
1.92481e-11
2.44068e-11
3.08114e-11
3.85487e-11
4.76347e-11
5.79357e-11
6.9188e-11
8.09741e-11
9.26695e-11
1.03761e-10
1.13104e-10
1.29795e-12
3.1468e-11
5.56672e-11
1.03084e-10
1.0404e-10
4.96302e-11
3.32277e-11
3.37297e-11
3.51146e-11
3.33283e-11
2.65515e-11
2.02398e-11
1.6213e-11
1.35104e-11
1.12951e-11
9.34146e-12
7.73388e-12
6.50625e-12
5.5984e-12
4.93483e-12
4.46034e-12
4.13538e-12
3.92596e-12
3.80149e-12
3.73769e-12
3.71944e-12
3.74155e-12
3.80781e-12
3.92936e-12
4.12343e-12
4.41295e-12
4.82756e-12
5.40528e-12
6.19576e-12
7.26273e-12
8.68833e-12
1.05733e-11
1.30403e-11
1.62249e-11
2.02759e-11
2.53247e-11
3.14859e-11
3.87935e-11
4.72224e-11
5.65902e-11
6.66322e-11
7.69064e-11
8.68717e-11
9.5997e-11
1.03359e-10
9.20268e-13
2.44773e-11
4.78578e-11
8.90004e-11
9.78501e-11
5.32907e-11
3.475e-11
3.46319e-11
3.59092e-11
3.47089e-11
2.85607e-11
2.20415e-11
1.76327e-11
1.46887e-11
1.23453e-11
1.02846e-11
8.55908e-12
7.2245e-12
6.23775e-12
5.52292e-12
5.01809e-12
4.6781e-12
4.46503e-12
4.34477e-12
4.28975e-12
4.28235e-12
4.31622e-12
4.39536e-12
4.53202e-12
4.74502e-12
5.05887e-12
5.50446e-12
6.12045e-12
6.95612e-12
8.07309e-12
9.54903e-12
1.14762e-11
1.39639e-11
1.71272e-11
2.10876e-11
2.59398e-11
3.17592e-11
3.85329e-11
4.6203e-11
5.45495e-11
6.3316e-11
7.2047e-11
8.02891e-11
8.75015e-11
9.29777e-11
6.53857e-13
1.89911e-11
4.0959e-11
7.72122e-11
9.11986e-11
5.62931e-11
3.66867e-11
3.56451e-11
3.6797e-11
3.59924e-11
3.05132e-11
2.39143e-11
1.91375e-11
1.5927e-11
1.34389e-11
1.1272e-11
9.43234e-12
7.98983e-12
6.92133e-12
6.15408e-12
5.62009e-12
5.26768e-12
5.0541e-12
4.94121e-12
4.8977e-12
4.90308e-12
4.94949e-12
5.04094e-12
5.1907e-12
5.41906e-12
5.75183e-12
6.22075e-12
6.86429e-12
7.7303e-12
8.87686e-12
1.03754e-11
1.23077e-11
1.4768e-11
1.78493e-11
2.16456e-11
2.62166e-11
3.16021e-11
3.77493e-11
4.45754e-11
5.18335e-11
5.9283e-11
6.64661e-11
7.30175e-11
7.83973e-11
8.2106e-11
4.65419e-13
1.47233e-11
3.49021e-11
6.73189e-11
8.45083e-11
5.85175e-11
3.89525e-11
3.68161e-11
3.77877e-11
3.72192e-11
3.23898e-11
2.58362e-11
2.07244e-11
1.72279e-11
1.45754e-11
1.22997e-11
1.03503e-11
8.80052e-12
7.64824e-12
6.82758e-12
6.26579e-12
5.90396e-12
5.69346e-12
5.5914e-12
5.56224e-12
5.58209e-12
5.64127e-12
5.74353e-12
5.90304e-12
6.14137e-12
6.48542e-12
6.96719e-12
7.62428e-12
8.50199e-12
9.65354e-12
1.11426e-11
1.30389e-11
1.54204e-11
1.83575e-11
2.19175e-11
2.61275e-11
3.09967e-11
3.64389e-11
4.23544e-11
4.84795e-11
5.45958e-11
6.02529e-11
6.51733e-11
6.88285e-11
7.09134e-11
3.31885e-13
1.14223e-11
2.96332e-11
5.89725e-11
7.80607e-11
5.99523e-11
4.14243e-11
3.81806e-11
3.8887e-11
3.84285e-11
3.41835e-11
2.77832e-11
2.23868e-11
1.85924e-11
1.5755e-11
1.33643e-11
1.13089e-11
9.65393e-12
8.41687e-12
7.5421e-12
6.95399e-12
6.58602e-12
6.38259e-12
6.29509e-12
6.28306e-12
6.31876e-12
6.39022e-12
6.50068e-12
6.66501e-12
6.90595e-12
7.25113e-12
7.73242e-12
8.38573e-12
9.2529e-12
1.03811e-11
1.18251e-11
1.36416e-11
1.58914e-11
1.86227e-11
2.18779e-11
2.56549e-11
2.9937e-11
3.46124e-11
3.95714e-11
4.45429e-11
4.93361e-11
5.35176e-11
5.68952e-11
5.89638e-11
5.95973e-11
2.37177e-13
8.87515e-12
2.51018e-11
5.1888e-11
7.20223e-11
6.06647e-11
4.39654e-11
3.97546e-11
4.01015e-11
3.9654e-11
3.58986e-11
2.9732e-11
2.41141e-11
2.00202e-11
1.6978e-11
1.44626e-11
1.23033e-11
1.05464e-11
9.2248e-12
8.29563e-12
7.68275e-12
7.31215e-12
7.12006e-12
7.05101e-12
7.05881e-12
7.11124e-12
7.19361e-12
7.30834e-12
7.47085e-12
7.70486e-12
8.03851e-12
8.50304e-12
9.13211e-12
9.96328e-12
1.10368e-11
1.23976e-11
1.40889e-11
1.61545e-11
1.86216e-11
2.15097e-11
2.4792e-11
2.84308e-11
3.22963e-11
3.62754e-11
4.00988e-11
4.36068e-11
4.63933e-11
4.83475e-11
4.90009e-11
4.83881e-11
1.6999e-13
6.91004e-12
2.12452e-11
4.58406e-11
6.64767e-11
6.07676e-11
4.64489e-11
4.15318e-11
4.14396e-11
4.09227e-11
3.75487e-11
3.16625e-11
2.58927e-11
2.15085e-11