/*--------------------------------*- C++ -*----------------------------------*\
  =========                 |
  \\      /  F ield         | OpenFOAM: The Open Source CFD Toolbox
   \\    /   O peration     | Website:  https://openfoam.org
    \\  /    A nd           | Version:  7
     \\/     M anipulation  |
\*---------------------------------------------------------------------------*/
FoamFile
{
    version     2.0;
    format      ascii;
    class       volScalarField;
    location    "0.18";
    object      p;
}
// * * * * * * * * * * * * * * * * * * * * * * * * * * * * * * * * * * * * * //

dimensions      [0 2 -2 0 0 0 0];

internalField   nonuniform List<scalar> 
70000
(
0.107539
0.0300793
0.0175501
0.0199836
0.0201392
0.0190649
0.0181052
0.0173721
0.0167551
0.0162064
0.0157125
0.0152656
0.0148579
0.0144828
0.0141346
0.0138086
0.0135012
0.0132089
0.0129292
0.0126596
0.012398
0.0121425
0.0118914
0.0116431
0.0113959
0.0111484
0.010899
0.0106461
0.0103882
0.0101235
0.00985005
0.00956586
0.00926876
0.00895611
0.00862529
0.00827297
0.00789582
0.00748972
0.00704995
0.00657225
0.00604831
0.00547685
0.00483933
0.00414785
0.00335446
0.00251621
0.00149898
0.000506249
-0.000872852
-0.00195301
0.103171
0.0304463
0.0177531
0.0200792
0.0201937
0.0191009
0.0181334
0.0173954
0.0167747
0.0162231
0.0157271
0.0152785
0.0148695
0.0144932
0.014144
0.0138173
0.0135091
0.0132164
0.0129361
0.0126661
0.0124041
0.0121483
0.0118968
0.0116482
0.0114008
0.011153
0.0109034
0.0106504
0.0103923
0.0101273
0.00985378
0.00956945
0.0092722
0.0089594
0.00862845
0.00827598
0.00789869
0.00749244
0.00705249
0.00657462
0.00605045
0.00547876
0.00484092
0.00414913
0.00335532
0.0025164
0.00149863
0.000503216
-0.000872282
-0.00191463
0.0995904
0.0313863
0.0180935
0.0202083
0.020268
0.0191457
0.0181657
0.0174216
0.0167965
0.0162415
0.015743
0.0152925
0.0148819
0.0145044
0.0141542
0.0138266
0.0135177
0.0132243
0.0129435
0.012673
0.0124106
0.0121544
0.0119026
0.0116537
0.011406
0.011158
0.0109082
0.010655
0.0103967
0.0101316
0.00985789
0.00957342
0.00927605
0.00896314
0.00863209
0.00827952
0.00790214
0.0074958
0.00705577
0.00657781
0.00605353
0.00548176
0.00484373
0.00415184
0.0033576
0.00251873
0.00150057
0.000502849
-0.00084948
-0.00187435
0.0964965
0.0324882
0.0185631
0.0203824
0.020369
0.0192033
0.0182039
0.0174516
0.0168211
0.0162621
0.0157605
0.0153077
0.0148953
0.0145164
0.014165
0.0138364
0.0135268
0.0132326
0.0129513
0.0126803
0.0124174
0.0121608
0.0119087
0.0116595
0.0114115
0.0111633
0.0109132
0.0106598
0.0104014
0.0101361
0.0098623
0.00957772
0.00928027
0.00896729
0.00863619
0.0082836
0.00790621
0.00749989
0.00705989
0.00658201
0.00605781
0.00548618
0.00484829
0.00415659
0.00336264
0.00252366
0.00150742
0.000506227
-0.000809528
-0.00182817
0.0935372
0.0335849
0.0191293
0.0206031
0.0205036
0.0192812
0.018253
0.0174887
0.0168511
0.0162867
0.0157811
0.0153253
0.0149107
0.01453
0.0141772
0.0138475
0.0135368
0.0132419
0.0129598
0.0126882
0.0124248
0.0121678
0.0119153
0.0116657
0.0114175
0.011169
0.0109187
0.0106651
0.0104065
0.0101411
0.00986719
0.00958254
0.00928505
0.00897206
0.00864098
0.00828845
0.00791116
0.007505
0.00706521
0.0065876
0.00606377
0.00549258
0.0048553
0.00416421
0.00337145
0.00253285
0.00152096
0.000516107
-0.000752279
-0.00176447
0.0906284
0.0346241
0.0197447
0.0208504
0.020666
0.0193811
0.0183155
0.0175351
0.0168885
0.0163172
0.0158064
0.0153467
0.0149292
0.0145462
0.0141916
0.0138604
0.0135485
0.0132526
0.0129696
0.0126973
0.0124333
0.0121757
0.0119228
0.0116728
0.0114242
0.0111754
0.0109249
0.010671
0.0104123
0.0101468
0.00987277
0.00958808
0.00929058
0.00897764
0.00864667
0.00829431
0.00791726
0.00751144
0.00707207
0.00659503
0.00607191
0.00550159
0.00486553
0.00417568
0.00338531
0.00254776
0.00154339
0.000536273
-0.000677797
-0.00167836
0.0877638
0.0355869
0.0203758
0.0211025
0.020843
0.0194983
0.0183903
0.0175908
0.0169336
0.0163542
0.015837
0.0153726
0.0149515
0.0145657
0.0142088
0.0138758
0.0135624
0.0132651
0.0129812
0.0127079
0.0124431
0.0121849
0.0119314
0.0116809
0.0114319
0.0111827
0.0109319
0.0106779
0.0104189
0.0101533
0.00987922
0.00959452
0.00929707
0.00898426
0.00865348
0.00830143
0.00792479
0.00751952
0.00708086
0.00660474
0.00608279
0.0055139
0.00487983
0.00419206
0.00340558
0.0025702
0.00157718
0.000570552
-0.000585307
-0.00156714
0.0849496
0.0364653
0.0210065
0.0213478
0.0210236
0.0196262
0.0184741
0.0176537
0.0169853
0.0163971
0.0158729
0.015403
0.0149778
0.0145887
0.0142292
0.0138939
0.0135787
0.01328
0.0129947
0.0127203
0.0124546
0.0121956
0.0119414
0.0116903
0.0114408
0.0111913
0.0109401
0.0106858
0.0104266
0.0101609
0.00988674
0.00960205
0.00930471
0.0089921
0.00866164
0.00831005
0.00793401
0.00752956
0.00709194
0.00661716
0.00609692
0.00553015
0.00489902
0.00421437
0.00343363
0.00260202
0.00162434
0.000622517
-0.000473712
-0.00142888
0.0821916
0.0372565
0.0216318
0.0215821
0.0212018
0.0197601
0.0185636
0.0177212
0.0170415
0.0164444
0.0159129
0.0154373
0.0150076
0.014615
0.0142525
0.0139148
0.0135976
0.0132971
0.0130104
0.0127347
0.012468
0.012208
0.011953
0.0117013
0.0114512
0.0112011
0.0109496
0.010695
0.0104356
0.0101697
0.0098955
0.00961087
0.00931369
0.00900138
0.00867136
0.0083204
0.00794519
0.00754186
0.00710564
0.00663271
0.00611482
0.00555095
0.00492387
0.00424356
0.00347065
0.00264488
0.00168665
0.00069535
-0.000341966
-0.00126256
0.0794944
0.0379602
0.0222503
0.0218051
0.0213746
0.0198972
0.0186566
0.0177913
0.0171004
0.0164947
0.0159558
0.0154745
0.0150402
0.0146439
0.0142784
0.0139381
0.0136187
0.0133164
0.0130281
0.0127511
0.0124831
0.0122221
0.0119663
0.0117138
0.011463
0.0112125
0.0109605
0.0107055
0.0104459
0.0101799
0.00990562
0.00962109
0.00932413
0.00901223
0.00868278
0.00833265
0.00795852
0.00755663
0.00712224
0.00665169
0.00613686
0.00557677
0.00495496
0.00428039
0.00351756
0.00270015
0.00176534
0.000791025
-0.000189281
-0.00106842
0.0768612
0.0385769
0.0228614
0.0220177
0.0215406
0.0200361
0.0187522
0.017863
0.0171609
0.0165468
0.0160007
0.0155135
0.0150747
0.0146747
0.0143061
0.0139633
0.0136417
0.0133375
0.0130475
0.0127691
0.0124999
0.0122378
0.011981
0.0117277
0.0114763
0.0112252
0.0109727
0.0107174
0.0104575
0.0101914
0.00991714
0.00963276
0.00933611
0.00902472
0.008696
0.0083469
0.0079741
0.00757401
0.0071419
0.00667429
0.00616327
0.00560786
0.00499265
0.00432531
0.00357485
0.00276869
0.00186088
0.000910336
-1.5007e-05
-0.00084787
0.074295
0.0391068
0.0234636
0.0222209
0.0216988
0.0201758
0.01885
0.0179358
0.0172222
0.0166
0.0160468
0.0155539
0.0151105
0.0147069
0.0143353
0.0139899
0.013666
0.0133599
0.0130683
0.0127884
0.012518
0.0122548
0.0119971
0.011743
0.0114909
0.0112391
0.0109862
0.0107305
0.0104705
0.0102042
0.00993001
0.00964584
0.0093496
0.00903883
0.00871101
0.00836314
0.00799195
0.007594
0.00716462
0.00670053
0.00619409
0.0056443
0.00503698
0.00437843
0.00364256
0.00285072
0.00197293
0.00105248
0.000179344
-0.000603293
0.0717983
0.0395506
0.024055
0.0224159
0.0218487
0.0203155
0.0189498
0.0180095
0.0172843
0.016654
0.0160938
0.0155951
0.0151473
0.01474
0.0143653
0.0140174
0.0136913
0.0133833
0.0130901
0.0128088
0.0125371
0.0122729
0.0120142
0.0117593
0.0115065
0.0112542
0.0110008
0.0107448
0.0104845
0.0102182
0.00994413
0.00966024
0.00936449
0.00905449
0.00872772
0.0083813
0.008012
0.00761653
0.00719033
0.00673031
0.0062292
0.00568592
0.00508774
0.00443951
0.00372022
0.00294577
0.00210035
0.00121543
0.000392396
-0.000338073
0.0693738
0.039909
0.024633
0.0226041
0.0219896
0.0204545
0.0190515
0.0180841
0.0173468
0.0167087
0.0161415
0.0156371
0.0151847
0.0147738
0.0143961
0.0140456
0.0137174
0.0134075
0.0131126
0.0128299
0.012557
0.0122917
0.0120321
0.0117764
0.0115229
0.0112701
0.0110163
0.01076
0.0104996
0.0102333
0.00995934
0.00967583
0.00938067
0.00907156
0.008746
0.00840124
0.00803408
0.00764142
0.00721884
0.0067634
0.00626831
0.00573238
0.00514446
0.00450802
0.00380701
0.00305281
0.00224144
0.00139634
0.000621708
-5.62782e-05
0.0670237
0.0401834
0.0251948
0.0227869
0.0221212
0.0205918
0.019155
0.0181596
0.0174098
0.016764
0.0161899
0.0156797
0.0152228
0.0148082
0.0144275
0.0140745
0.0137441
0.0134323
0.0131358
0.0128517
0.0125776
0.0123112
0.0120507
0.0117942
0.0115401
0.0112867
0.0110326
0.010776
0.0105155
0.0102492
0.00997553
0.00969246
0.00939801
0.00908991
0.00876573
0.00842281
0.00805805
0.00766849
0.00724991
0.00679953
0.00631109
0.00578326
0.00520658
0.00458327
0.0039019
0.00317046
0.00239419
0.0015919
0.000864333
0.000238047
0.0647501
0.0403754
0.0257373
0.0229659
0.0222433
0.0207265
0.01926
0.0182361
0.0174731
0.0168198
0.016239
0.015723
0.0152615
0.0148432
0.0144595
0.0141039
0.0137713
0.0134576
0.0131595
0.012874
0.0125987
0.0123313
0.0120698
0.0118126
0.0115579
0.011304
0.0110495
0.0107927
0.0105321
0.010266
0.00999258
0.00971005
0.0094164
0.00910943
0.00878677
0.00844588
0.00808374
0.00769757
0.00728335
0.00683845
0.00635721
0.00583817
0.00527354
0.00466453
0.00400386
0.00329721
0.00255662
0.00179886
0.00111733
0.000541327
0.0625546
0.040487
0.0262573
0.0231426
0.0223557
0.0208576
0.0193664
0.0183134
0.0175366
0.016876
0.0162887
0.0157669
0.0153007
0.0148788
0.014492
0.0141338
0.013799
0.0134835
0.0131837
0.0128968
0.0126203
0.0123518
0.0120895
0.0118316
0.0115762
0.0113219
0.0110671
0.0108101
0.0105495
0.0102835
0.0100104
0.00972853
0.00943577
0.00913005
0.00880906
0.00847036
0.00811106
0.00772853
0.00731899
0.00687995
0.00640639
0.00589674
0.00534484
0.00475117
0.00411197
0.0034317
0.00272699
0.00201443
0.00137813
0.000850724
0.0604385
0.0405208
0.0267519
0.0233181
0.0224587
0.0209841
0.0194737
0.0183918
0.0176005
0.0169326
0.0163389
0.0158114
0.0153405
0.0149149
0.0145251
0.0141643
0.0138273
0.0135098
0.0132085
0.0129202
0.0126424
0.0123729
0.0121097
0.011851
0.0115951
0.0113404
0.0110852
0.0108281
0.0105675
0.0103017
0.0100291
0.00974787
0.00945609
0.00915174
0.00883255
0.00849621
0.00813996
0.00776129
0.00735673
0.0069239
0.00645844
0.00595874
0.00542011
0.00484266
0.00422552
0.0035728
0.00290393
0.00223643
0.0016447
0.00116424
0.0584026
0.0404796
0.0272182
0.0234932
0.0225524
0.0211049
0.0195814
0.0184711
0.0176645
0.0169894
0.0163896
0.0158564
0.0153809
0.0149516
0.0145587
0.0141953
0.0138561
0.0135367
0.0132337
0.012944
0.012665
0.0123945
0.0121305
0.0118711
0.0116146
0.0113594
0.011104
0.0108467
0.0105862
0.0103207
0.0100485
0.00976807
0.00947738
0.0091745
0.00885725
0.00852342
0.00817041
0.00779584
0.00739653
0.00697025
0.00651328
0.00602402
0.00549915
0.00493866
0.00434401
0.00371963
0.00308642
0.00246337
0.00191561
0.00148065
0.0564473
0.0403669
0.0276533
0.0236685
0.0226374
0.0212192
0.0196892
0.0185513
0.0177286
0.0170463
0.0164408
0.015902
0.0154218
0.0149887
0.0145928
0.0142268
0.0138854
0.0135642
0.0132595
0.0129684
0.0126882
0.0124167
0.0121517
0.0118916
0.0116346
0.011379
0.0111233
0.010866
0.0106056
0.0103404
0.0100688
0.00978917
0.00949965
0.00919835
0.00888317
0.00855202
0.00820244
0.00783219
0.00743841
0.007019
0.00657086
0.00609251
0.00558183
0.00503894
0.00446714
0.00387162
0.00327381
0.00269426
0.00218991
0.00179924
0.0545727
0.0401868
0.0280547
0.0238443
0.0227142
0.0213262
0.0197962
0.0186325
0.0177929
0.0171033
0.0164924
0.0159481
0.0154632
0.0150264
0.0146274
0.0142589
0.0139152
0.0135921
0.0132858
0.0129933
0.0127119
0.0124393
0.0121736
0.0119127
0.0116551
0.0113992
0.0111433
0.010886
0.0106257
0.0103608
0.0100899
0.00981118
0.00952294
0.00922333
0.00891037
0.00858205
0.00823609
0.00787039
0.0074824
0.00707017
0.00663121
0.00616422
0.0056681
0.00514338
0.00459472
0.00402834
0.00346565
0.00292852
0.00246699
0.00211965
0.0527781
0.0399435
0.0284198
0.0240205
0.0227835
0.0214252
0.0199019
0.0187144
0.0178572
0.0171603
0.0165442
0.0159947
0.0155052
0.0150646
0.0146626
0.0142914
0.0139456
0.0136205
0.0133126
0.0130187
0.0127361
0.0124625
0.0121959
0.0119344
0.0116763
0.01142
0.0111639
0.0109066
0.0106465
0.0103821
0.0101119
0.00983415
0.00954728
0.00924949
0.00893888
0.00861356
0.00827141
0.00791049
0.00752855
0.00712383
0.00669437
0.00623915
0.00575798
0.0052519
0.00472663
0.00418953
0.00366163
0.0031658
0.00274648
0.00244163
0.0510629
0.0396418
0.0287464
0.0241963
0.0228463
0.0215156
0.0200055
0.0187969
0.0179217
0.0172171
0.0165962
0.0160417
0.0155475
0.0151032
0.0146982
0.0143245
0.0139765
0.0136495
0.01334
0.0130447
0.0127609
0.0124863
0.0122189
0.0119567
0.0116981
0.0114415
0.0111853
0.010928
0.0106681
0.0104042
0.0101347
0.00985812
0.00957272
0.00927687
0.00896876
0.00864661
0.00830848
0.00795257
0.00757693
0.00718002
0.0067604
0.00631736
0.00585148
0.00536445
0.00486279
0.00435498
0.00386151
0.00340589
0.00302807
0.002765
0.0494258
0.0392867
0.0290325
0.0243711
0.0229034
0.0215971
0.0201061
0.0188798
0.0179862
0.0172736
0.0166482
0.016089
0.0155904
0.0151423
0.0147343
0.0143581
0.0140078
0.013679
0.0133679
0.0130712
0.0127862
0.0125106
0.0122424
0.0119796
0.0117205
0.0114636
0.0112073
0.0109501
0.0106905
0.0104272
0.0101586
0.00988313
0.00959932
0.00930552
0.00900006
0.00868126
0.00834734
0.00799667
0.0076276
0.00723882
0.00682935
0.00639887
0.00594863
0.005481
0.00500313
0.00452452
0.00406508
0.0036486
0.00331153
0.00308951
0.0478652
0.0388835
0.0292765
0.0245434
0.0229557
0.0216695
0.0202029
0.0189628
0.0180509
0.0173299
0.0167003
0.0161366
0.0156336
0.0151819
0.0147708
0.0143921
0.0140397
0.013709
0.0133963
0.0130982
0.0128121
0.0125356
0.0122665
0.0120031
0.0117436
0.0114864
0.01123
0.010973
0.0107138
0.0104511
0.0101834
0.00990921
0.0096271
0.0093355
0.00903284
0.00871756
0.00838806
0.00804288
0.00768064
0.00730029
0.00690129
0.00648372
0.00604944
0.00560149
0.00514756
0.00469798
0.00427213
0.00389376
0.00359658
0.00341483
0.0463792
0.0384377
0.0294772
0.0247117
0.0230043
0.0217327
0.020295
0.0190455
0.0181156
0.0173858
0.0167521
0.0161845
0.0156772
0.0152218
0.0148078
0.0144266
0.0140721
0.0137396
0.0134252
0.0131258
0.0128386
0.0125611
0.0122913
0.0120273
0.0117674
0.01151
0.0112535
0.0109967
0.0107379
0.0104759
0.0102092
0.00993642
0.00965613
0.00936686
0.00906716
0.00875558
0.0084307
0.00809124
0.0077361
0.00736448
0.00697626
0.00657195
0.00615391
0.00572589
0.00529597
0.00487519
0.00448244
0.00414117
0.00388293
0.00374058
0.0449656
0.0379549
0.0296336
0.024874
0.0230501
0.0217871
0.0203817
0.0191273
0.0181803
0.0174412
0.0168037
0.0162324
0.015721
0.0152621
0.0148452
0.0144616
0.014105
0.0137706
0.0134547
0.013154
0.0128656
0.0125872
0.0123167
0.0120521
0.0117918
0.0115342
0.0112778
0.0110212
0.0107629
0.0105017
0.0102361
0.0099648
0.00968644
0.00939965
0.00910306
0.00879537
0.00847533
0.00814183
0.00779404
0.00743145
0.0070543
0.00666355
0.00626203
0.00585412
0.00544824
0.00505598
0.00469578
0.0043906
0.00417027
0.00406629
0.043622
0.0374408
0.0297454
0.0250279
0.0230938
0.021833
0.020462
0.0192079
0.018245
0.0174962
0.0168549
0.0162804
0.0157652
0.0153027
0.014883
0.014497
0.0141383
0.0138022
0.0134848
0.0131827
0.0128932
0.0126139
0.0123427
0.0120776
0.011817
0.0115593
0.0113029
0.0110466
0.0107889
0.0105285
0.0102641
0.0099944
0.00971809
0.00943391
0.00914061
0.008837
0.008522
0.0081947
0.00785452
0.00750124
0.00713545
0.00675854
0.00637377
0.0059861
0.00560423
0.00524014
0.00491186
0.00464177
0.00445823
0.00439143
0.0423458
0.0369009
0.0298127
0.0251711
0.023136
0.021871
0.0205355
0.0192865
0.0183095
0.0175507
0.0169056
0.0163282
0.0158095
0.0153436
0.0149211
0.0145328
0.0141721
0.0138343
0.0135153
0.013212
0.0129214
0.0126413
0.0123694
0.0121038
0.0118429
0.011585
0.0113288
0.0110729
0.0108158
0.0105564
0.0102932
0.0100252
0.00975113
0.00946971
0.00917986
0.00888051
0.00857077
0.00824991
0.00791759
0.00757388
0.00721972
0.0068569
0.00648909
0.00612172
0.00576378
0.00542747
0.00513043
0.00489438
0.00474638
0.00471544
0.0411341
0.0363406
0.0298362
0.025301
0.0231772
0.0219016
0.0206015
0.0193626
0.0183736
0.0176046
0.0169557
0.0163758
0.015854
0.0153848
0.0149595
0.0145689
0.0142063
0.0138668
0.0135464
0.0132418
0.0129503
0.0126693
0.0123967
0.0121307
0.0118695
0.0116116
0.0113556
0.0111001
0.0108437
0.0105853
0.0103236
0.0100574
0.0097856
0.00950709
0.00922086
0.00892597
0.00862169
0.00830749
0.00798328
0.00764941
0.00730712
0.00695862
0.00660792
0.00626088
0.0059267
0.00561771
0.00535117
0.00514807
0.00503429
0.00503768
0.039984
0.035765
0.0298171
0.0254151
0.0232173
0.0219257
0.0206596
0.0194353
0.0184371
0.017658
0.017005
0.0164231
0.0158984
0.0154262
0.0149982
0.0146054
0.014241
0.0138998
0.013578
0.0132722
0.0129797
0.0126979
0.0124247
0.0121583
0.0118969
0.0116391
0.0113833
0.0111282
0.0108727
0.0106154
0.0103551
0.0100909
0.00982155
0.00954611
0.00926366
0.00897341
0.0086748
0.00836751
0.00805164
0.00772784
0.00739766
0.00706365
0.00673017
0.00640343
0.00609278
0.00581061
0.00557375
0.00540246
0.00532151
0.00535748
0.0388924
0.0351788
0.0297568
0.0255115
0.0232561
0.021944
0.0207097
0.019504
0.0184997
0.0177108
0.0170536
0.0164698
0.0159428
0.0154677
0.0150371
0.0146422
0.014276
0.0139333
0.0136101
0.0133032
0.0130097
0.0127271
0.0124534
0.0121866
0.0119251
0.0116673
0.0114119
0.0111574
0.0109027
0.0106466
0.010388
0.0101258
0.00985902
0.0095868
0.00930831
0.0090229
0.00873017
0.00842998
0.00812268
0.00780918
0.0074913
0.00717194
0.00685574
0.00654921
0.00626182
0.00600588
0.00579783
0.00565713
0.00560753
0.00567429
0.0378564
0.0345862
0.0296577
0.0255882
0.0232928
0.0219572
0.0207518
0.0195681
0.0185609
0.0177628
0.0171012
0.016516
0.015987
0.0155092
0.0150762
0.0146793
0.0143114
0.0139671
0.0136427
0.0133347
0.0130403
0.012757
0.0124828
0.0122157
0.0119541
0.0116965
0.0114414
0.0111875
0.0109338
0.010679
0.0104221
0.0101621
0.00989807
0.00962921
0.00935485
0.00907447
0.00878781
0.00849494
0.00819643
0.00789342
0.00758803
0.00728342
0.00698452
0.00669805
0.00643355
0.00620322
0.00602302
0.00591166
0.00589178
0.00598742
0.0368728
0.033991
0.0295221
0.0256437
0.0233265
0.021966
0.020786
0.0196268
0.0186204
0.0178141
0.017148
0.0165613
0.0160308
0.0155508
0.0151154
0.0147166
0.0143471
0.0140014
0.0136757
0.0133667
0.0130715
0.0127876
0.0125129
0.0122456
0.0119839
0.0117265
0.0114718
0.0112187
0.0109661
0.0107127
0.0104576
0.0101999
0.00993872
0.00967339
0.00940333
0.00912815
0.00884777
0.00856242
0.00827289
0.00798055
0.00768777
0.007398
0.00711635
0.00684974
0.00660771
0.00640228
0.00624892
0.00616555
0.00617372
0.00629617
0.0359386
0.0333968
0.029353
0.0256767
0.023356
0.0219709
0.0208125
0.0196796
0.0186775
0.0178645
0.0171938
0.0166058
0.0160742
0.0155923
0.0151548
0.0147541
0.014383
0.0140361
0.0137093
0.0133992
0.0131032
0.0128188
0.0125437
0.0122762
0.0120146
0.0117574
0.0115033
0.011251
0.0109995
0.0107476
0.0104944
0.0102392
0.00998102
0.00971938
0.00945378
0.00918399
0.00891006
0.00863242
0.00835204
0.00807054
0.00779049
0.00751557
0.00725108
0.00700407
0.00678402
0.00660272
0.00647511
0.00641833
0.00645279
0.00659984
0.0350509
0.0328063
0.0291536
0.0256865
0.0233799
0.0219722
0.0208317
0.0197261
0.0187318
0.0179136
0.0172385
0.0166494
0.0161171
0.0156336
0.0151941
0.0147917
0.0144193
0.0140711
0.0137432
0.0134323
0.0131356
0.0128506
0.0125752
0.0123076
0.0120461
0.0117892
0.0115357
0.0112844
0.011034
0.0107838
0.0105327
0.01028
0.010025
0.0097672
0.00950623
0.009242
0.0089747
0.00870495
0.00843388
0.00816333
0.00789608
0.007636
0.00738853
0.00716078
0.00696215
0.00680415
0.00670116
0.00666948
0.00672839
0.0068979
0.0342067
0.032222
0.028927
0.0256726
0.0233967
0.0219703
0.0208442
0.019766
0.0187826
0.0179614
0.0172821
0.0166918
0.0161592
0.0156745
0.0152334
0.0148295
0.0144557
0.0141064
0.0137776
0.0134659
0.0131685
0.0128831
0.0126074
0.0123398
0.0120784
0.011822
0.0115692
0.0113188
0.0110699
0.0108213
0.0105724
0.0103224
0.0100707
0.00981689
0.00956072
0.0093022
0.00904171
0.00877999
0.00851837
0.00825887
0.00800444
0.00775914
0.00752848
0.00731962
0.00714179
0.00700619
0.0069266
0.00691848
0.00699997
0.0071897
0.0334034
0.031646
0.0286767
0.0256349
0.0234049
0.021965
0.0208503
0.0197991
0.0188295
0.0180075
0.0173245
0.0167331
0.0162004
0.0157151
0.0152726
0.0148672
0.0144923
0.014142
0.0138123
0.0134999
0.013202
0.0129162
0.0126404
0.0123728
0.0121117
0.0118558
0.0116037
0.0113544
0.0111069
0.0108602
0.0106136
0.0103664
0.0101182
0.00986848
0.00961725
0.00936461
0.00911106
0.00885752
0.00860546
0.00835708
0.00811547
0.00788482
0.00767073
0.00748029
0.00732258
0.00720841
0.00715095
0.00716481
0.00726694
0.00747459
0.0326383
0.0310799
0.028406
0.0255739
0.0234031
0.0219561
0.0208506
0.0198252
0.018872
0.0180515
0.0173656
0.0167731
0.0162407
0.0157551
0.0153115
0.0149049
0.0145289
0.0141779
0.0138474
0.0135344
0.013236
0.0129499
0.012674
0.0124065
0.0121458
0.0118905
0.0116393
0.0113912
0.0111452
0.0109005
0.0106563
0.0104121
0.0101674
0.00992197
0.00967584
0.00942923
0.00918277
0.00893751
0.0086951
0.00845786
0.00822902
0.00801287
0.00781501
0.00764249
0.00750415
0.00741039
0.00737374
0.00740792
0.00752872
0.00775199
0.031909
0.030525
0.0281181
0.0254902
0.0233901
0.0219433
0.0208456
0.0198446
0.0189095
0.0180931
0.0174052
0.0168118
0.0162799
0.0157944
0.0153501
0.0149425
0.0145657
0.0142139
0.0138828
0.0135693
0.0132706
0.0129843
0.0127084
0.0124411
0.0121808
0.0119261
0.0116759
0.0114291
0.0111848
0.0109422
0.0107005
0.0104594
0.0102184
0.0099774
0.00973649
0.00949604
0.00925678
0.00901992
0.0087872
0.0085611
0.00834494
0.00814306
0.00796108
0.00780591
0.00768612
0.0076117
0.00759447
0.0076473
0.00778478
0.00802137
0.0312132
0.0299823
0.0278159
0.025385
0.0233648
0.0219259
0.0208355
0.0198573
0.0189418
0.0181318
0.0174431
0.0168491
0.0163178
0.0158328
0.0153883
0.01498
0.0146024
0.01425
0.0139185
0.0136046
0.0133057
0.0130193
0.0127435
0.0124764
0.0122167
0.0119628
0.0117137
0.0114683
0.0112257
0.0109852
0.0107463
0.0105083
0.0102712
0.0100347
0.0097992
0.00956503
0.00933308
0.00910467
0.00888168
0.00866667
0.00846305
0.00827519
0.00810865
0.00797019
0.00786809
0.00781187
0.00781266
0.00788241
0.00803456
0.0082822
0.0305487
0.0294523
0.0275024
0.0252594
0.0233265
0.0219034
0.0208206
0.0198636
0.0189685
0.0181671
0.0174792
0.0168849
0.0163545
0.0158704
0.0154259
0.0150172
0.014639
0.0142862
0.0139544
0.0136403
0.0133412
0.0130548
0.0127792
0.0125126
0.0122534
0.0120005
0.0117525
0.0115086
0.0112679
0.0110297
0.0107936
0.010559
0.0103258
0.010094
0.00986396
0.00963616
0.00941161
0.0091917
0.00897843
0.00877443
0.00858316
0.008409
0.00825741
0.00813499
0.00804966
0.00801046
0.00802781
0.00811275
0.00827757
0.00853403
0.0299135
0.0289356
0.02718
0.025115
0.0232745
0.0218748
0.020801
0.0198638
0.0189895
0.0181988
0.0175131
0.016919
0.0163897
0.0159068
0.0154629
0.015054
0.0146755
0.0143225
0.0139905
0.0136763
0.0133772
0.013091
0.0128156
0.0125495
0.0122911
0.0120391
0.0117924
0.0115501
0.0113114
0.0110757
0.0108424
0.0106113
0.0103822
0.0101552
0.00993073
0.00970941
0.0094923
0.00928092
0.00907732
0.00888421
0.00870506
0.00854423
0.00840707
0.00829994
0.00823042
0.00820701
0.00823943
0.00833783
0.00851333
0.00877642
0.0293057
0.0284323
0.0268511
0.0249535
0.0232088
0.0218395
0.0207768
0.019858
0.0190046
0.0182264
0.0175446
0.0169514
0.0164234
0.0159421
0.0154991
0.0150904
0.0147118
0.0143587
0.0140267
0.0137126
0.0134136
0.0131276
0.0128527
0.0125872
0.0123296
0.0120787
0.0118335
0.0115929
0.0113563
0.0111231
0.0108928
0.0106653
0.0104404
0.0102183
0.00999949
0.00978471
0.00957508
0.00937221
0.00917821
0.00899582
0.00882853
0.00868061
0.00855728
0.00846466
0.00840993
0.00840107
0.00844706
0.00855717
0.00874141
0.00900901
0.0287237
0.0279427
0.0265177
0.0247767
0.0231294
0.0217969
0.0207477
0.0198466
0.0190139
0.0182497
0.0175733
0.0169819
0.0164555
0.015976
0.0155343
0.0151262
0.0147478
0.0143948
0.014063
0.0137491
0.0134504
0.0131648
0.0128904
0.0126257
0.012369
0.0121194
0.0118756
0.0116369
0.0114025
0.0111719
0.0109448
0.0107209
0.0105003
0.0102832
0.0100702
0.00986199
0.00965987
0.00946546
0.00928094
0.00910908
0.00895332
0.00881785
0.00870771
0.00862877
0.00858778
0.00859218
0.00865023
0.00877033
0.0089614
0.00923148
0.0281659
0.0274665
0.0261817
0.0245862
0.0230364
0.0217462
0.0207137
0.0198297
0.0190173
0.0182683
0.017599
0.0170103
0.0164858
0.0160085
0.0155685
0.0151614
0.0147835
0.0144308
0.0140993
0.0137857
0.0134875
0.0132025
0.0129288
0.0126649
0.0124093
0.0121609
0.0119188
0.011682
0.01145
0.0112222
0.0109983
0.0107782
0.010562
0.01035
0.0101428
0.00994118
0.00974654
0.00956053
0.00938535
0.00922376
0.00907917
0.00895564
0.00885802
0.00879188
0.00876355
0.00877992
0.00884852
0.0089769
0.00917295
0.00944358
0.0276307
0.0270038
0.0258446
0.0243838
0.0229304
0.021687
0.0206743
0.0198076
0.019015
0.018282
0.0176213
0.0170363
0.0165144
0.0160395
0.0156016
0.0151957
0.0148186
0.0144665
0.0141356
0.0138226
0.0135249
0.0132406
0.0129677
0.0127048
0.0124504
0.0122035
0.0119631
0.0117284
0.0114988
0.0112739
0.0110533
0.0108372
0.0106254
0.0104185
0.0102171
0.0100222
0.00983498
0.00965727
0.00949124
0.00933965
0.00920581
0.00909367
0.00900785
0.0089536
0.00893683
0.00896386
0.00904152
0.00917652
0.00937576
0.00964512
0.0271169
0.0265543
0.0255077
0.0241713
0.0228121
0.0216191
0.0206294
0.0197804
0.0190071
0.0182907
0.0176401
0.0170599
0.0165409
0.0160688
0.0156333
0.0152292
0.0148532
0.0145019
0.0141717
0.0138595
0.0135626
0.0132791
0.0130072
0.0127453
0.0124923
0.012247
0.0120084
0.0117759
0.0115489
0.0113269
0.0111099
0.0108976
0.0106905
0.0104888
0.0102933
0.0101049
0.00992506
0.0097555
0.00959842
0.00945649
0.00933296
0.00923162
0.00915684
0.00911356
0.00910722
0.0091436
0.00922883
0.00936884
0.00956959
0.00983595
0.0266233
0.0261178
0.0251721
0.0239502
0.0226822
0.0215421
0.0205786
0.019748
0.0189938
0.0182944
0.0176549
0.0170808
0.0165654
0.0160963
0.0156636
0.0152616
0.0148871
0.0145369
0.0142077
0.0138963
0.0136004
0.0133179
0.0130471
0.0127866
0.012535
0.0122914
0.0120548
0.0118246
0.0116002
0.0113814
0.0111678
0.0109597
0.0107571
0.0105606
0.010371
0.0101892
0.0100166
0.00985506
0.00970666
0.00957404
0.00946033
0.00936916
0.00930464
0.00927135
0.00927432
0.00931876
0.00941012
0.00955359
0.00975422
0.010016
0.0261485
0.0256939
0.0248389
0.023722
0.0225417
0.0214562
0.0205216
0.0197105
0.0189752
0.0182929
0.0176657
0.0170986
0.0165876
0.0161221
0.0156924
0.0152929
0.0149202
0.0145714
0.0142434
0.0139332
0.0136384
0.0133571
0.0130876
0.0128284
0.0125785
0.0123367
0.0121022
0.0118744
0.0116528
0.0114371
0.0112272
0.0110232
0.0108253
0.010634
0.0104502
0.0102749
0.0101095
0.00995574
0.00981573
0.00969203
0.00958763
0.00950596
0.00945088
0.00942663
0.00943777
0.00948898
0.00958507
0.00973051
0.00992953
0.0101853
0.0256917
0.0252823
0.0245088
0.0234882
0.0223914
0.0213614
0.0204583
0.0196678
0.0189513
0.0182864
0.0176723
0.0171134
0.0166074
0.0161458
0.0157196
0.015323
0.0149524
0.0146053
0.0142787
0.0139699
0.0136765
0.0133965
0.0131284
0.0128708
0.0126226
0.0123828
0.0121505
0.0119253
0.0117065
0.0114941
0.0112879
0.0110881
0.0108949
0.0107089
0.0105309
0.010362
0.0102036
0.0100573
0.0099254
0.00981018
0.00971454
0.00964169
0.00959523
0.00957902
0.00959721
0.00965394
0.00975342
0.00989941
0.0100954
0.0103438
0.0252519
0.0248829
0.0241825
0.02325
0.0222324
0.0212581
0.0203884
0.0196199
0.0189224
0.0182749
0.0176744
0.0171247
0.0166246
0.0161675
0.0157451
0.0153516
0.0149836
0.0146385
0.0143137
0.0140064
0.0137146
0.0134361
0.0131697
0.0129138
0.0126674
0.0124297
0.0121998
0.0119772
0.0117614
0.0115524
0.0113499
0.0111543
0.0109658
0.010785
0.0106128
0.0104502
0.0102986
0.0101596
0.0100354
0.00992822
0.00984076
0.00977602
0.00973733
0.0097282
0.00975232
0.00981336
0.00991492
0.0100602
0.0102519
0.0104918
0.024828
0.0244951
0.0238605
0.0230086
0.0220657
0.0211465
0.0203119
0.0195667
0.0188884
0.0182584
0.0176722
0.0171325
0.0166391
0.0161869
0.0157687
0.0153788
0.0150137
0.014671
0.0143481
0.0140427
0.0137526
0.0134759
0.0132112
0.0129572
0.0127129
0.0124773
0.0122499
0.01203
0.0118174
0.0116117
0.0114131
0.0112217
0.0110379
0.0108623
0.0106958
0.0105393
0.0103943
0.0102624
0.0101455
0.0100459
0.00996598
0.00990864
0.00987686
0.00987382
0.0099028
0.00996698
0.0100694
0.0102126
0.0103989
0.0106293
0.0244194
0.0241187
0.0235433
0.0227649
0.0218923
0.0210273
0.0202289
0.0195081
0.0188495
0.018237
0.0176655
0.0171366
0.0166507
0.016204
0.0157904
0.0154044
0.0150426
0.0147025
0.0143819
0.0140786
0.0137904
0.0135157
0.0132529
0.013001
0.0127588
0.0125257
0.0123008
0.0120838
0.0118743
0.0116722
0.0114774
0.0112903
0.0111112
0.0109407
0.0107797
0.0106293
0.0104906
0.0103654
0.0102555
0.0101628
0.0100899
0.0100392
0.0100135
0.0100156
0.0100484
0.0101146
0.0102167
0.0103568
0.0105366
0.0107565
0.0240253
0.0237534
0.0232313
0.02252
0.0217131
0.0209009
0.0201394
0.0194441
0.0188056
0.0182108
0.0176543
0.0171369
0.0166593
0.0162187
0.01581
0.0154283
0.0150701
0.0147331
0.0144151
0.014114
0.0138281
0.0135555
0.0132949
0.0130451
0.0128053
0.0125746
0.0123525
0.0121384
0.0119321
0.0117336
0.0115427
0.0113599
0.0111855
0.01102
0.0108645
0.0107198
0.0105873
0.0104684
0.010365
0.0102788
0.0102122
0.0101675
0.010147
0.0101533
0.0101889
0.010256
0.0103568
0.0104927
0.010665
0.0108738
0.0236449
0.0233988
0.0229247
0.0222746
0.0215292
0.020768
0.0200437
0.0193748
0.0187569
0.0181799
0.0176386
0.0171333
0.0166646
0.0162308
0.0158275
0.0154504
0.0150962
0.0147625
0.0144474
0.0141489
0.0138654
0.0135951
0.0133369
0.0130895
0.0128522
0.0126241
0.0124048
0.0121938
0.0119908
0.0117959
0.011609
0.0114304
0.0112605
0.0111001
0.0109498
0.0108107
0.010684
0.0105712
0.0104738
0.0103936
0.0103327
0.0102931
0.010277
0.0102866
0.010324
0.0103911
0.0104895
0.0106204
0.0107845
0.0109815
0.0232776
0.0230547
0.0226238
0.0220296
0.0213413
0.0206291
0.019942
0.0193002
0.0187034
0.0181443
0.0176185
0.0171258
0.0166667
0.0162401
0.0158428
0.0154707
0.0151208
0.0147908
0.0144788
0.0141832
0.0139023
0.0136346
0.0133789
0.0131341
0.0128994
0.0126741
0.0124577
0.0122498
0.0120502
0.0118589
0.0116759
0.0115016
0.0113363
0.0111807
0.0110355
0.0109018
0.0107807
0.0106734
0.0105816
0.0105069
0.010451
0.0104158
0.0104033
0.0104153
0.0104537
0.0105198
0.010615
0.01074
0.0108951
0.0110799
0.0229227
0.0227206
0.0223288
0.0217854
0.0211503
0.020485
0.0198346
0.0192203
0.0186451
0.0181042
0.0175941
0.0171143
0.0166654
0.0162467