/*--------------------------------*- C++ -*----------------------------------*\
  =========                 |
  \\      /  F ield         | OpenFOAM: The Open Source CFD Toolbox
   \\    /   O peration     | Website:  https://openfoam.org
    \\  /    A nd           | Version:  7
     \\/     M anipulation  |
\*---------------------------------------------------------------------------*/
FoamFile
{
    version     2.0;
    format      ascii;
    class       surfaceScalarField;
    location    "0.18";
    object      phi_0;
}
// * * * * * * * * * * * * * * * * * * * * * * * * * * * * * * * * * * * * * //

dimensions      [0 3 -1 0 0 0 0];

internalField   nonuniform List<scalar> 
139350
(
6.45129e-08
9.21186e-08
3.19669e-08
3.25461e-08
2.30631e-08
8.90377e-09
1.95797e-08
3.48343e-09
1.76288e-08
1.95089e-09
1.61992e-08
1.42956e-09
1.50665e-08
1.13273e-09
1.41539e-08
9.12594e-10
1.34028e-08
7.51132e-10
1.27698e-08
6.32987e-10
1.22262e-08
5.43619e-10
1.17526e-08
4.7356e-10
1.13354e-08
4.17211e-10
1.09643e-08
3.7105e-10
1.06317e-08
3.32674e-10
1.03313e-08
3.00361e-10
1.00585e-08
2.72847e-10
9.80927e-09
2.49184e-10
9.58062e-09
2.28649e-10
9.36994e-09
2.10684e-10
9.17509e-09
1.94849e-10
8.99429e-09
1.80795e-10
8.82605e-09
1.68239e-10
8.6691e-09
1.5695e-10
8.52237e-09
1.46737e-10
8.38493e-09
1.37441e-10
8.256e-09
1.28925e-10
8.13493e-09
1.21072e-10
8.02116e-09
1.13774e-10
7.91421e-09
1.06945e-10
7.81372e-09
1.00485e-10
7.71939e-09
9.43361e-11
7.63101e-09
8.8376e-11
7.54843e-09
8.25872e-11
7.47164e-09
7.67866e-11
7.40062e-09
7.10213e-11
7.33562e-09
6.49954e-11
7.27679e-09
5.88326e-11
7.22466e-09
5.21251e-11
7.17975e-09
4.49187e-11
7.14271e-09
3.70357e-11
7.11516e-09
2.75513e-11
7.09694e-09
1.82142e-11
7.09334e-09
3.60832e-12
7.09954e-09
-6.20243e-12
7.13354e-09
-3.39976e-11
7.16885e-09
-3.53174e-11
7.28989e-09
-1.21038e-10
7.1953e-09
9.45941e-11
-3.51708e-09
1.07124e-08
1.25944e-07
1.27618e-07
9.1294e-08
6.71964e-08
7.19454e-08
2.82523e-08
6.1234e-08
1.41948e-08
5.4801e-08
8.38396e-09
5.03082e-08
5.92233e-09
4.68246e-08
4.61636e-09
4.40108e-08
3.72636e-09
4.16862e-08
3.07577e-09
3.97252e-08
2.59391e-09
3.80409e-08
2.22795e-09
3.65732e-08
1.94126e-09
3.52796e-08
1.71088e-09
3.41284e-08
1.52221e-09
3.30957e-08
1.36535e-09
3.21628e-08
1.23328e-09
3.13148e-08
1.12082e-09
3.05399e-08
1.02411e-09
2.98283e-08
9.40204e-10
2.91722e-08
8.66815e-10
2.85649e-08
8.02158e-10
2.80009e-08
7.44806e-10
2.74755e-08
6.93611e-10
2.69848e-08
6.47637e-10
2.65255e-08
6.06109e-10
2.60945e-08
5.68382e-10
2.56895e-08
5.33905e-10
2.53084e-08
5.0221e-10
2.49493e-08
4.72878e-10
2.46107e-08
4.45553e-10
2.42913e-08
4.19871e-10
2.39901e-08
3.95565e-10
2.37062e-08
3.72241e-10
2.34391e-08
3.49739e-10
2.31883e-08
3.275e-10
2.29538e-08
3.05567e-10
2.27358e-08
2.82972e-10
2.25345e-08
2.60171e-10
2.23512e-08
2.35397e-10
2.21863e-08
2.09778e-10
2.2043e-08
1.80388e-10
2.19218e-08
1.48755e-10
2.18284e-08
1.1164e-10
2.17646e-08
6.74223e-11
2.17383e-08
2.00398e-11
2.17601e-08
-5.57586e-11
2.18228e-08
-9.80168e-11
2.20338e-08
-3.32027e-10
2.21037e-08
2.46168e-11
-4.61101e-09
2.31977e-08
1.58753e-07
1.35268e-07
1.36531e-07
8.94183e-08
1.17504e-07
4.72799e-08
1.03333e-07
2.83652e-08
9.33459e-08
1.83714e-08
8.60512e-08
1.32169e-08
8.0348e-08
1.03196e-08
7.56995e-08
8.37484e-09
7.18233e-08
6.95197e-09
6.85317e-08
5.88548e-09
6.56915e-08
5.06823e-09
6.32078e-08
4.42491e-09
6.10123e-08
3.90638e-09
5.90539e-08
3.48065e-09
5.72933e-08
3.12595e-09
5.56998e-08
2.82673e-09
5.42491e-08
2.57154e-09
5.29214e-08
2.35181e-09
5.17006e-08
2.16096e-09
5.05736e-08
1.99391e-09
4.95291e-08
1.84664e-09
4.85579e-08
1.71597e-09
4.76522e-08
1.5993e-09
4.68053e-08
1.49455e-09
4.60115e-08
1.39996e-09
4.52657e-08
1.31409e-09
4.45639e-08
1.23571e-09
4.39024e-08
1.16377e-09
4.32779e-08
1.09734e-09
4.26878e-08
1.03562e-09
4.21299e-08
9.77841e-10
4.16021e-08
9.23368e-10
4.11029e-08
8.71424e-10
4.06311e-08
8.2157e-10
4.01858e-08
7.72748e-10
3.97665e-08
7.24912e-10
3.93733e-08
6.76167e-10
3.9006e-08
6.27459e-10
3.86665e-08
5.74859e-10
3.83546e-08
5.21652e-10
3.80755e-08
4.59566e-10
3.78277e-08
3.96561e-10
3.76226e-08
3.16651e-10
3.74562e-08
2.33908e-10
3.73505e-08
1.25666e-10
3.73012e-08
-6.43179e-12
3.73322e-08
-1.2901e-10
3.75137e-08
-5.13564e-10
3.77665e-08
-2.28182e-10
-4.80748e-09
3.7963e-08
1.75612e-07
1.31172e-07
1.65627e-07
9.94032e-08
1.52744e-07
6.01625e-08
1.40143e-07
4.09666e-08
1.29471e-07
2.90434e-08
1.2084e-07
2.18483e-08
1.13734e-07
1.74255e-08
1.07757e-07
1.43511e-08
1.0266e-07
1.20492e-08
9.82593e-08
1.02864e-08
9.44149e-08
8.91265e-09
9.10214e-08
7.81841e-09
8.79991e-08
6.92873e-09
8.52865e-08
6.19326e-09
8.28354e-08
5.57702e-09
8.06074e-08
5.05471e-09
7.85714e-08
4.60751e-09
7.67021e-08
4.22115e-09
7.49784e-08
3.88464e-09
7.3383e-08
3.58938e-09
7.1901e-08
3.32857e-09
7.05202e-08
3.09676e-09
6.923e-08
2.88954e-09
6.80213e-08
2.70328e-09
6.68862e-08
2.53498e-09
6.58182e-08
2.38214e-09
6.48113e-08
2.24263e-09
6.38604e-08
2.11464e-09
6.29612e-08
1.99656e-09
6.21098e-08
1.88701e-09
6.13029e-08
1.78469e-09
6.05378e-08
1.68847e-09
5.98121e-08
1.59711e-09
5.91239e-08
1.50977e-09
5.84719e-08
1.42481e-09
5.78548e-08
1.34201e-09
5.72726e-08
1.25839e-09
5.67246e-08
1.17545e-09
5.62128e-08
1.08663e-09
5.57365e-08
9.97954e-10
5.53017e-08
8.94351e-10
5.4906e-08
7.92312e-10
5.45635e-08
6.59099e-10
5.42673e-08
5.30169e-10
5.40461e-08
3.46835e-10
5.38893e-08
1.5037e-10
5.38372e-08
-7.68735e-11
5.39269e-08
-6.03335e-10
5.42188e-08
-5.20018e-10
-4.78819e-09
5.41995e-08
1.8451e-07
1.23447e-07
1.82343e-07
1.01571e-07
1.76128e-07
6.63777e-08
1.67777e-07
4.93169e-08
1.59167e-07
3.7654e-08
1.5127e-07
2.97448e-08
1.44206e-07
2.44899e-08
1.37912e-07
2.06445e-08
1.32317e-07
1.7645e-08
1.27334e-07
1.52692e-08
1.22878e-07
1.33683e-08
1.18873e-07
1.18235e-08
1.15254e-07
1.05477e-08
1.11967e-07
9.47987e-09
1.08969e-07
8.57587e-09
1.0622e-07
7.80308e-09
1.03691e-07
7.13662e-09
1.01355e-07
6.55729e-09
9.91896e-08
6.05005e-09
9.7176e-08
5.60297e-09
9.5298e-08
5.20653e-09
9.35418e-08
4.85298e-09
9.18953e-08
4.53601e-09
9.03482e-08
4.25041e-09
8.88914e-08
3.99183e-09
8.75169e-08
3.75661e-09
8.62179e-08
3.54165e-09
8.49882e-08
3.34425e-09
8.38227e-08
3.1621e-09
8.27166e-08
2.99312e-09
8.16659e-08
2.83541e-09
8.06671e-08
2.6873e-09
7.97172e-08
2.54699e-09
7.88138e-08
2.4132e-09
7.79549e-08
2.28364e-09
7.71391e-08
2.15787e-09
7.63657e-08
2.03174e-09
7.56339e-08
1.90729e-09
7.49453e-08
1.77519e-09
7.4299e-08
1.64422e-09
7.37011e-08
1.4923e-09
7.31489e-08
1.34446e-09
7.26569e-08
1.15113e-09
7.22187e-08
9.68431e-10
7.18622e-08
7.03254e-10
7.15803e-08
4.32298e-10
7.14126e-08
9.08683e-11
7.13884e-08
-5.792e-10
7.16007e-08
-7.32286e-10
-4.69768e-09
7.15102e-08
1.90343e-07
1.15321e-07
1.91861e-07
1.00053e-07
1.90267e-07
6.79709e-08
1.86168e-07
5.34162e-08
1.80737e-07
4.30848e-08
1.74995e-07
3.54874e-08
1.69307e-07
3.01775e-08
1.63831e-07
2.61208e-08
1.58662e-07
2.28139e-08
1.53842e-07
2.00891e-08
1.49373e-07
1.7837e-08
1.45239e-07
1.59575e-08
1.41416e-07
1.43713e-08
1.37876e-07
1.30193e-08
1.34595e-07
1.18573e-08
1.31547e-07
1.08511e-08
1.2871e-07
9.97381e-09
1.26063e-07
9.20398e-09
1.23589e-07
8.52442e-09
1.2127e-07
7.9212e-09
1.19094e-07
7.38297e-09
1.17047e-07
6.90036e-09
1.15117e-07
6.46563e-09
1.13295e-07
6.07227e-09
1.11572e-07
5.71483e-09
1.0994e-07
5.38866e-09
1.08392e-07
5.08977e-09
1.06921e-07
4.81469e-09
1.05523e-07
4.56041e-09
1.04192e-07
4.3242e-09
1.02924e-07
4.1036e-09
1.01715e-07
3.89637e-09
1.00562e-07
3.7002e-09
9.94615e-08
3.51332e-09
9.84123e-08
3.33281e-09
9.74122e-08
3.15795e-09
9.64605e-08
2.9835e-09
9.55559e-08
2.81183e-09
9.47e-08
2.63111e-09
9.38919e-08
2.45235e-09
9.31368e-08
2.24734e-09
9.24334e-08
2.0479e-09
9.17938e-08
1.7907e-09
9.12154e-08
1.54686e-09
9.07202e-08
1.19842e-09
9.03109e-08
8.41663e-10
9.00149e-08
3.86844e-10
8.98705e-08
-4.34823e-10
8.99589e-08
-8.2071e-10
-4.51792e-09
8.97792e-08
1.95505e-07
1.07631e-07
1.98248e-07
9.73087e-08
1.98989e-07
6.723e-08
1.978e-07
5.4606e-08
1.95172e-07
4.57125e-08
1.9184e-07
3.88189e-08
1.88117e-07
3.39005e-08
1.84175e-07
3.00635e-08
1.80162e-07
2.68266e-08
1.76188e-07
2.40627e-08
1.72321e-07
2.17041e-08
1.68599e-07
1.96798e-08
1.65042e-07
1.79288e-08
1.61657e-07
1.64039e-08
1.58446e-07
1.50685e-08
1.55404e-07
1.38932e-08
1.52524e-07
1.28536e-08
1.49798e-07
1.193e-08
1.47217e-07
1.11056e-08
1.44771e-07
1.03667e-08
1.42452e-07
9.70176e-09
1.40252e-07
9.10092e-09
1.38161e-07
8.55598e-09
1.36174e-07
8.05991e-09
1.34282e-07
7.6067e-09
1.32479e-07
7.19112e-09
1.30761e-07
6.80868e-09
1.2912e-07
6.45539e-09
1.27553e-07
6.12774e-09
1.26054e-07
5.82252e-09
1.24621e-07
5.53684e-09
1.23249e-07
5.26801e-09
1.21936e-07
5.01326e-09
1.20679e-07
4.77041e-09
1.19476e-07
4.53599e-09
1.18325e-07
4.30897e-09
1.17225e-07
4.08317e-09
1.16176e-07
3.86111e-09
1.15178e-07
3.62889e-09
1.14232e-07
3.39894e-09
1.13341e-07
3.13847e-09
1.12505e-07
2.88332e-09
1.11735e-07
2.56124e-09
1.11031e-07
2.25022e-09
1.10409e-07
1.82054e-09
1.09882e-07
1.36837e-09
1.09464e-07
8.04897e-10
1.09201e-07
-1.71027e-10
1.09162e-07
-7.81771e-10
-4.23569e-09
1.08879e-07
2.0082e-07
1.00396e-07
2.03773e-07
9.43553e-08
2.05349e-07
6.56544e-08
2.05653e-07
5.43014e-08
2.04828e-07
4.65377e-08
2.03356e-07
4.02913e-08
2.01416e-07
3.58401e-08
1.99094e-07
3.23859e-08
1.96495e-07
2.94257e-08
1.93721e-07
2.68366e-08
1.90852e-07
2.45729e-08
1.87948e-07
2.25841e-08
1.85052e-07
2.08245e-08
1.82196e-07
1.92595e-08
1.79403e-07
1.78621e-08
1.76686e-07
1.66103e-08
1.74054e-07
1.54853e-08
1.71513e-07
1.44713e-08
1.69064e-07
1.35545e-08
1.66708e-07
1.2723e-08
1.64443e-07
1.19668e-08
1.62267e-07
1.12769e-08
1.60177e-07
1.06458e-08
1.5817e-07
1.00668e-08
1.56242e-07
9.53406e-09
1.54391e-07
9.0424e-09
1.52613e-07
8.58731e-09
1.50903e-07
8.16467e-09
1.4926e-07
7.77085e-09
1.4768e-07
7.40244e-09
1.46161e-07
7.05633e-09
1.44699e-07
6.72955e-09
1.43293e-07
6.41908e-09
1.41941e-07
6.12242e-09
1.40642e-07
5.83571e-09
1.39393e-07
5.55764e-09
1.38195e-07
5.2813e-09
1.37047e-07
5.00915e-09
1.3595e-07
4.72585e-09
1.34904e-07
4.44429e-09
1.33914e-07
4.12893e-09
1.32981e-07
3.81666e-09
1.3211e-07
3.43141e-09
1.31311e-07
3.05005e-09
1.30588e-07
2.54343e-09
1.29965e-07
1.9908e-09
1.29446e-07
1.32385e-09
1.29075e-07
2.00747e-10
1.28919e-07
-6.26478e-10
-3.86118e-09
1.28545e-07
2.06423e-07
9.35052e-08
2.09333e-07
9.14454e-08
2.1106e-07
6.39275e-08
2.11944e-07
5.34177e-08
2.12011e-07
4.64701e-08
2.11632e-07
4.06702e-08
2.1091e-07
3.65623e-08
2.09847e-07
3.34489e-08
2.08481e-07
3.07915e-08
2.0687e-07
2.84474e-08
2.0507e-07
2.63738e-08
2.03127e-07
2.45266e-08
2.01085e-07
2.28668e-08
1.98978e-07
2.13662e-08
1.96836e-07
2.00042e-08
1.94681e-07
1.87647e-08
1.92533e-07
1.76339e-08
1.90404e-07
1.66e-08
1.88306e-07
1.56527e-08
1.86246e-07
1.4783e-08
1.8423e-07
1.39828e-08
1.82262e-07
1.32452e-08
1.80344e-07
1.25637e-08
1.78478e-07
1.19328e-08
1.76664e-07
1.13475e-08
1.74904e-07
1.08032e-08
1.73195e-07
1.02957e-08
1.71538e-07
9.82143e-09
1.69932e-07
9.3768e-09
1.68376e-07
8.95854e-09
1.66869e-07
8.56361e-09
1.6541e-07
8.189e-09
1.63997e-07
7.83162e-09
1.62631e-07
7.48883e-09
1.6131e-07
7.15654e-09
1.60034e-07
6.83324e-09
1.58804e-07
6.51157e-09
1.57619e-07
6.19375e-09
1.56482e-07
5.8636e-09
1.55392e-07
5.53369e-09
1.54354e-07
5.16737e-09
1.5337e-07
4.80006e-09
1.52445e-07
4.35626e-09
1.5159e-07
3.90527e-09
1.50806e-07
3.32799e-09
1.50121e-07
2.67582e-09
1.49533e-07
1.91121e-09
1.49078e-07
6.56285e-10
1.48826e-07
-3.74724e-10
-3.41653e-09
1.48381e-07
2.12269e-07
8.68982e-08
2.15142e-07
8.85729e-08
2.16815e-07
6.22544e-08
2.17858e-07
5.23744e-08
2.18271e-07
4.60575e-08
2.18393e-07
4.05476e-08
2.18324e-07
3.66314e-08
2.18032e-07
3.37415e-08
2.17509e-07
3.1314e-08
2.16775e-07
2.91817e-08
2.15852e-07
2.72964e-08
2.14766e-07
2.56131e-08
2.13541e-07
2.4092e-08
2.12201e-07
2.27053e-08
2.10772e-07
2.14341e-08
2.09272e-07
2.02644e-08
2.07721e-07
1.91851e-08
2.06134e-07
1.8187e-08
2.04524e-07
1.7262e-08
2.02904e-07
1.64033e-08
2.01282e-07
1.56049e-08
1.99666e-07
1.48612e-08
1.98062e-07
1.41675e-08
1.96476e-07
1.35193e-08
1.94911e-07
1.29127e-08
1.9337e-07
1.2344e-08
1.91856e-07
1.18097e-08
1.9037e-07
1.13067e-08
1.88915e-07
1.08319e-08
1.87491e-07
1.03825e-08
1.86099e-07
9.95548e-09
1.8474e-07
9.54815e-09
1.83414e-07
9.15747e-09
1.82122e-07
8.78085e-09
1.80865e-07
8.41411e-09
1.79642e-07
8.05567e-09
1.78456e-07
7.69788e-09
1.77307e-07
7.34272e-09
1.76197e-07
6.97361e-09
1.75129e-07
6.60224e-09
1.74104e-07
6.19223e-09
1.73128e-07
5.77557e-09
1.72204e-07
5.28077e-09
1.71344e-07
4.76504e-09
1.70546e-07
4.1255e-09
1.69842e-07
3.38068e-09
1.69227e-07
2.52603e-09
1.68723e-07
1.16053e-09
1.68403e-07
-5.52842e-11
-2.93027e-09
1.67917e-07
2.18315e-07
8.05638e-08
2.21191e-07
8.56968e-08
2.22788e-07
6.06578e-08
2.2386e-07
5.13026e-08
2.24381e-07
4.55363e-08
2.24681e-07
4.02476e-08
2.24888e-07
3.64244e-08
2.24973e-07
3.36562e-08
2.24916e-07
3.13711e-08
2.24716e-07
2.93812e-08
2.24378e-07
2.76343e-08
2.23908e-07
2.60837e-08
2.23313e-07
2.46868e-08
2.22605e-07
2.34134e-08
2.21796e-07
2.22433e-08
2.20898e-07
2.11622e-08
2.19924e-07
2.01589e-08
2.18886e-07
1.92248e-08
2.17796e-07
1.83528e-08
2.16662e-07
1.75369e-08
2.15495e-07
1.6772e-08
2.14302e-07
1.60537e-08
2.13092e-07
1.53782e-08
2.11869e-07
1.47419e-08
2.1064e-07
1.41417e-08
2.0941e-07
1.35746e-08
2.08181e-07
1.3038e-08
2.06959e-07
1.25291e-08
2.05746e-07
1.20455e-08
2.04543e-07
1.15845e-08
2.03355e-07
1.11439e-08
2.02182e-07
1.07208e-08
2.01027e-07
1.03126e-08
1.99891e-07
9.91681e-09
1.98776e-07
9.52921e-09
1.97684e-07
9.14823e-09
1.96615e-07
8.76611e-09
1.95574e-07
8.38455e-09
1.9456e-07
7.98697e-09
1.93579e-07
7.58377e-09
1.92631e-07
7.13987e-09
1.91724e-07
6.6825e-09
1.90858e-07
6.1466e-09
1.90049e-07
5.57468e-09
1.89291e-07
4.88315e-09
1.88614e-07
4.05758e-09
1.88017e-07
3.123e-09
1.87506e-07
1.67191e-09
1.87154e-07
2.96026e-10
-2.43494e-09
1.86659e-07
2.24549e-07
7.45083e-08
2.27451e-07
8.27945e-08
2.28984e-07
5.91252e-08
2.30063e-07
5.02236e-08
2.30625e-07
4.49745e-08
2.30973e-07
3.98989e-08
2.3127e-07
3.61278e-08
2.31503e-07
3.34228e-08
2.31655e-07
3.12196e-08
2.31723e-07
2.93134e-08
2.31706e-07
2.76512e-08
2.31602e-07
2.61874e-08
2.31411e-07
2.4878e-08
2.31134e-07
2.36907e-08
2.30773e-07
2.26035e-08
2.30335e-07
2.16006e-08
2.29824e-07
2.067e-08
2.29246e-07
1.98024e-08
2.28609e-07
1.89904e-08
2.27918e-07
1.82279e-08
2.2718e-07
1.751e-08
2.26401e-07
1.68325e-08
2.25587e-07
1.61919e-08
2.24744e-07
1.55851e-08
2.23876e-07
1.50093e-08
2.22989e-07
1.4462e-08
2.22086e-07
1.39408e-08
2.21172e-07
1.34437e-08
2.20249e-07
1.29683e-08
2.19321e-07
1.25124e-08
2.18391e-07
1.20739e-08
2.17461e-07
1.16504e-08
2.16534e-07
1.12393e-08
2.15613e-07
1.08382e-08
2.14699e-07
1.04429e-08
2.13796e-07
1.0052e-08
2.12904e-07
9.65768e-09
2.12027e-07
9.26123e-09
2.11168e-07
8.84643e-09
2.1033e-07
8.42203e-09
2.09514e-07
7.95511e-09
2.0873e-07
7.46722e-09
2.07975e-07
6.90123e-09
2.07266e-07
6.284e-09
2.06597e-07
5.5518e-09
2.05994e-07
4.66074e-09
2.05458e-07
3.6586e-09
2.04982e-07
2.14791e-09
2.04637e-07
6.41836e-10
-1.96417e-09
2.04166e-07
2.30975e-07
6.87395e-08
2.33912e-07
7.98572e-08
2.35388e-07
5.76494e-08
2.36475e-07
4.91361e-08
2.3707e-07
4.43796e-08
2.37434e-07
3.95352e-08
2.37752e-07
3.58093e-08
2.38032e-07
3.31433e-08
2.38259e-07
3.09924e-08
2.38436e-07
2.91362e-08
2.38565e-07
2.75222e-08
2.38644e-07
2.61088e-08
2.38669e-07
2.48526e-08
2.38639e-07
2.37204e-08
2.38554e-07
2.26892e-08
2.38412e-07
2.17422e-08
2.38215e-07
2.08667e-08
2.37965e-07
2.00525e-08
2.37664e-07
1.92915e-08
2.37315e-07
1.85773e-08
2.3692e-07
1.79044e-08
2.36484e-07
1.72686e-08
2.3601e-07
1.66661e-08
2.35501e-07
1.60938e-08
2.34962e-07
1.55491e-08
2.34394e-07
1.50294e-08
2.33803e-07
1.45326e-08
2.3319e-07
1.40566e-08
2.32559e-07
1.35994e-08
2.31912e-07
1.31589e-08
2.31253e-07
1.2733e-08
2.30584e-07
1.23196e-08
2.29907e-07
1.1916e-08
2.29225e-07
1.152e-08
2.28541e-07
1.11275e-08
2.27856e-07
1.07369e-08
2.27173e-07
1.03404e-08
2.26496e-07
9.93893e-09
2.25825e-07
9.51686e-09
2.25166e-07
9.08097e-09
2.2452e-07
8.60111e-09
2.23895e-07
8.09264e-09
2.23289e-07
7.5071e-09
2.22717e-07
6.85604e-09
2.22174e-07
6.09423e-09
2.21681e-07
5.15422e-09
2.21242e-07
4.09797e-09
2.20837e-07
2.55258e-09
2.2053e-07
9.48325e-10
-1.54748e-09
2.20114e-07
2.37601e-07
6.32633e-08
2.40578e-07
7.68806e-08
2.41996e-07
5.62308e-08
2.43091e-07
4.80413e-08
2.43723e-07
4.37479e-08
2.441e-07
3.91582e-08
2.44424e-07
3.54851e-08
2.44716e-07
3.2851e-08
2.44966e-07
3.07422e-08
2.4518e-07
2.89223e-08
2.45364e-07
2.73387e-08
2.45518e-07
2.59548e-08
2.45641e-07
2.47295e-08
2.45732e-07
2.36297e-08
2.45789e-07
2.26323e-08
2.4581e-07
2.17203e-08
2.45796e-07
2.08806e-08
2.45746e-07
2.01027e-08
2.4566e-07
1.93779e-08
2.45538e-07
1.86995e-08
2.45381e-07
1.80615e-08
2.4519e-07
1.74595e-08
2.44967e-07
1.68892e-08
2.44713e-07
1.63476e-08
2.4443e-07
1.58316e-08
2.44121e-07
1.53388e-08
2.43787e-07
1.48669e-08
2.43429e-07
1.44138e-08
2.43051e-07
1.39775e-08
2.42654e-07
1.35558e-08
2.42241e-07
1.31468e-08
2.41812e-07
1.27482e-08
2.4137e-07
1.23574e-08
2.40918e-07
1.19722e-08
2.40457e-07
1.15884e-08
2.3999e-07
1.12043e-08
2.39518e-07
1.08123e-08
2.39044e-07
1.04125e-08
2.38571e-07
9.9903e-09
2.38102e-07
9.55015e-09
2.37638e-07
9.0651e-09
2.37186e-07
8.54423e-09
2.36746e-07
7.94769e-09
2.36328e-07
7.2732e-09
2.35931e-07
6.49127e-09
2.35568e-07
5.51791e-09
2.35245e-07
4.42084e-09
2.34935e-07
2.86234e-09
2.34692e-07
1.19116e-09
-1.20561e-09
2.3435e-07
2.44436e-07
5.80833e-08
2.47451e-07
7.38654e-08
2.48815e-07
5.48673e-08
2.49912e-07
4.69436e-08
2.50583e-07
4.30777e-08
2.50976e-07
3.87646e-08
2.51305e-07
3.51561e-08
2.51603e-07
3.2553e-08
2.51862e-07
3.04841e-08
2.52087e-07
2.86972e-08
2.52287e-07
2.71379e-08
2.52467e-07
2.57748e-08
2.52628e-07
2.45694e-08
2.52768e-07
2.34896e-08
2.52887e-07
2.25125e-08
2.52986e-07
2.16215e-08
2.53063e-07
2.08034e-08
2.53118e-07
2.00478e-08
2.5315e-07
1.9346e-08
2.53159e-07
1.86908e-08
2.53144e-07
1.80763e-08
2.53106e-07
1.74976e-08
2.53045e-07
1.69505e-08
2.52961e-07
1.64316e-08
2.52855e-07
1.59376e-08
2.52727e-07
1.54661e-08
2.5258e-07
1.50146e-08
2.52412e-07
1.4581e-08
2.52227e-07
1.4163e-08
2.52024e-07
1.37586e-08
2.51805e-07
1.33656e-08
2.51572e-07
1.29818e-08
2.51325e-07
1.26043e-08
2.51066e-07
1.2231e-08
2.50797e-07
1.18576e-08
2.50519e-07
1.14823e-08
2.50234e-07
1.10973e-08
2.49944e-07
1.07025e-08
2.49651e-07
1.02837e-08
2.49357e-07
9.84342e-09
2.49065e-07
9.35785e-09
2.48779e-07
8.83009e-09
2.48498e-07
8.2283e-09
2.48233e-07
7.53852e-09
2.4798e-07
6.74354e-09
2.47749e-07
5.74989e-09
2.47546e-07
4.62382e-09
2.47339e-07
3.06912e-09
2.47171e-07
1.35902e-09
-9.47437e-10
2.46913e-07
2.51489e-07
5.32015e-08
2.54532e-07
7.0822e-08
2.55851e-07
5.35482e-08
2.56946e-07
4.58484e-08
2.57654e-07
4.23696e-08
2.58067e-07
3.83515e-08
2.58402e-07
3.48211e-08
2.58706e-07
3.22493e-08
2.5897e-07
3.02205e-08
2.59199e-07
2.84674e-08
2.59406e-07
2.69314e-08
2.59594e-07
2.55865e-08
2.59766e-07
2.43971e-08
2.59924e-07
2.33322e-08
2.60067e-07
2.23691e-08
2.60197e-07
2.14917e-08
2.60313e-07
2.06873e-08
2.60416e-07
1.99454e-08
2.60504e-07
1.92576e-08
2.60578e-07
1.86167e-08
2.60638e-07
1.80168e-08
2.60682e-07
1.74529e-08
2.60712e-07
1.69206e-08
2.60727e-07
1.64165e-08
2.60728e-07
1.59374e-08
2.60713e-07
1.54804e-08
2.60685e-07
1.50433e-08
2.60642e-07
1.46236e-08
2.60586e-07
1.42191e-08
2.60517e-07
1.38278e-08
2.60435e-07
1.34471e-08
2.60342e-07
1.3075e-08
2.60238e-07
1.27085e-08
2.60124e-07
1.23452e-08
2.6e-07
1.19809e-08
2.59869e-07
1.16134e-08
2.59731e-07
1.12353e-08
2.59588e-07
1.08454e-08
2.59441e-07
1.04308e-08
2.59293e-07
9.99169e-09
2.59143e-07
9.50739e-09
2.58998e-07
8.97559e-09
2.58855e-07
8.3714e-09
2.58721e-07
7.67185e-09
2.58597e-07
6.86826e-09
2.58483e-07
5.86409e-09
2.58388e-07
4.71867e-09
2.58277e-07
3.17956e-09
2.58183e-07
1.45365e-09
-7.69734e-10
2.58005e-07
2.58766e-07
4.86182e-08
2.61828e-07
6.77607e-08
2.63113e-07
5.22625e-08
2.64201e-07
4.47608e-08
2.64945e-07
4.1626e-08
2.65379e-07
3.79169e-08
2.65721e-07
3.4479e-08
2.66031e-07
3.19396e-08
2.663e-07
2.99512e-08
2.66534e-07
2.82334e-08
2.66744e-07
2.67218e-08
2.66935e-07
2.53949e-08
2.67112e-07
2.42207e-08
2.67275e-07
2.31691e-08
2.67426e-07
2.22178e-08
2.67567e-07
2.13512e-08
2.67697e-07
2.05567e-08
2.67818e-07
1.98245e-08
2.6793e-07
1.9146e-08
2.68032e-07
1.85144e-08
2.68125e-07
1.79236e-08
2.68209e-07
1.73689e-08
2.68284e-07
1.68458e-08
2.6835e-07
1.63508e-08
2.68406e-07
1.58808e-08
2.68454e-07
1.5433e-08
2.68492e-07
1.50048e-08
2.68522e-07
1.4594e-08
2.68543e-07
1.41982e-08
2.68555e-07
1.38153e-08
2.6856e-07
1.34429e-08
2.68556e-07
1.30786e-08
2.68545e-07
1.27195e-08
2.68527e-07
1.23631e-08
2.68503e-07
1.2005e-08
2.68473e-07
1.16429e-08
2.68439e-07
1.12697e-08
2.68401e-07
1.08832e-08
2.6836e-07
1.04717e-08
2.68319e-07
1.0033e-08
2.68277e-07
9.54968e-09
2.68238e-07
9.0147e-09
2.682e-07
8.40878e-09
2.68169e-07
7.70265e-09
2.68145e-07
6.89275e-09
2.68124e-07
5.88459e-09
2.68116e-07
4.72721e-09
2.68085e-07
3.21083e-09
2.68051e-07
1.48688e-09
-6.59796e-10
2.67941e-07
2.66278e-07
4.43322e-08
2.69347e-07
6.46923e-08
2.7061e-07
5.09993e-08
2.71686e-07
4.3685e-08
2.72462e-07
4.08499e-08
2.72919e-07
3.74591e-08
2.73269e-07
3.41292e-08
2.73585e-07
3.16239e-08
2.73861e-07
2.96757e-08
2.74099e-07
2.79948e-08
2.74312e-07
2.65089e-08
2.74506e-07
2.52007e-08
2.74685e-07
2.4042e-08
2.7485e-07
2.30035e-08
2.75004e-07
2.20637e-08
2.75149e-07
2.12069e-08
2.75284e-07
2.04214e-08
2.75411e-07
1.96971e-08
2.75531e-07
1.90261e-08
2.75644e-07
1.84014e-08
2.75751e-07
1.78172e-08
2.75851e-07
1.72687e-08
2.75945e-07
1.67517e-08
2.76033e-07
1.62626e-08
2.76116e-07
1.57982e-08
2.76193e-07
1.53558e-08
2.76265e-07
1.4933e-08
2.76331e-07
1.45274e-08
2.76393e-07
1.41367e-08
2.76449e-07
1.37588e-08
2.76501e-07
1.3391e-08
2.76549e-07
1.30313e-08
2.76592e-07
1.26763e-08
2.76631e-07
1.23237e-08
2.76667e-07
1.19691e-08
2.767e-07
1.16097e-08
2.76731e-07
1.12388e-08
2.76761e-07
1.08536e-08
2.76789e-07
1.04432e-08
2.76819e-07
1.00037e-08
2.76848e-07
9.51998e-09
2.76882e-07
8.98155e-09
2.76917e-07
8.37332e-09
2.76957e-07
7.66221e-09
2.77003e-07
6.84695e-09
2.77049e-07
5.83879e-09
2.77101e-07
4.67504e-09
2.77127e-07
3.18498e-09
2.77138e-07
1.47587e-09
-5.99686e-10
2.77078e-07
2.74033e-07
4.03404e-08
2.77098e-07
6.16275e-08
2.78348e-07
4.97486e-08
2.79409e-07
4.26247e-08
2.80214e-07
4.00451e-08
2.80696e-07
3.69767e-08
2.81055e-07
3.37707e-08
2.81376e-07
3.13022e-08
2.81658e-07
2.93937e-08
2.81902e-07
2.77513e-08
2.82118e-07
2.62926e-08
2.82315e-07
2.50039e-08
2.82496e-07
2.38611e-08
2.82663e-07
2.28362e-08
2.82819e-07
2.19079e-08
2.82965e-07
2.10611e-08
2.83102e-07
2.02842e-08
2.83231e-07
1.95676e-08
2.83354e-07
1.89033e-08
2.83471e-07
1.82848e-08
2.83582e-07
1.77062e-08
2.83688e-07
1.71627e-08
2.83789e-07
1.66503e-08
2.83886e-07
1.61654e-08
2.8398e-07
1.57049e-08
2.84069e-07
1.52662e-08
2.84156e-07
1.48467e-08
2.84239e-07
1.44442e-08
2.84319e-07
1.40564e-08
2.84397e-07
1.36811e-08
2.84472e-07
1.33158e-08
2.84545e-07
1.29581e-08
2.84617e-07
1.26051e-08
2.84686e-07
1.2254e-08
2.84755e-07
1.19006e-08
2.84823e-07
1.15418e-08
2.8489e-07
1.11713e-08
2.84958e-07
1.07854e-08
2.85027e-07
1.03744e-08
2.85098e-07
9.9325e-09
2.85171e-07
9.44699e-09
2.85248e-07
8.90456e-09
2.85329e-07
8.29306e-09
2.85413e-07
7.57778e-09
2.85502e-07
6.75758e-09
2.85589e-07
5.75175e-09
2.85679e-07
4.58595e-09
2.8574e-07
3.12357e-09
2.85778e-07
1.43824e-09
-5.70898e-10
2.85749e-07
2.8204e-07
3.6638e-08
2.8509e-07
5.85776e-08
2.86338e-07
4.85007e-08
2.8738e-07
4.15826e-08
2.88209e-07
3.9216e-08
2.88717e-07
3.64683e-08
2.89086e-07
3.34024e-08
2.89413e-07
3.09745e-08
2.89702e-07
2.91052e-08
2.89951e-07
2.75023e-08
2.90171e-07
2.60725e-08
2.9037e-07
2.48043e-08
2.90554e-07
2.36779e-08
2.90723e-07
2.26669e-08
2.9088e-07
2.17506e-08
2.91027e-07
2.0914e-08
2.91166e-07
2.01459e-08
2.91296e-07
1.9437e-08
2.9142e-07
1.87795e-08
2.91538e-07
1.81669e-08
2.91651e-07
1.75936e-08
2.91759e-07
1.70548e-08
2.91862e-07
1.65465e-08
2.91963e-07
1.60652e-08
2.9206e-07
1.56079e-08
2.92154e-07
1.51719e-08
2.92246e-07
1.47548e-08
2.92336e-07
1.43543e-08
2.92424e-07
1.39683e-08
2.9251e-07
1.35944e-08
2.92596e-07
1.32303e-08
2.9268e-07
1.28735e-08
2.92765e-07
1.2521e-08
2.92848e-07
1.217e-08
2.92933e-07
1.18164e-08
2.93018e-07
1.14569e-08
2.93103e-07
1.10854e-08
2.93191e-07
1.06975e-08
2.93281e-07
1.02845e-08
2.93374e-07
9.8394e-09
2.9347e-07
9.35094e-09
2.93571e-07
8.80411e-09
2.93675e-07
8.18858e-09
2.93783e-07
7.46969e-09
2.93896e-07
6.64503e-09
2.94005e-07
5.64301e-09
2.94112e-07
4.47881e-09
2.94191e-07
3.04437e-09
2.9424e-07
1.38893e-09
-5.57317e-10
2.94227e-07
2.90308e-07
3.32187e-08
2.93332e-07
5.55535e-08
2.94586e-07
4.72469e-08
2.95608e-07
4.05609e-08
2.96456e-07
3.83676e-08
2.96992e-07
3.59329e-08
2.97371e-07
3.3023e-08
2.97705e-07
3.0641e-08
2.98e-07
2.881e-08
2.98254e-07
2.72476e-08
2.98479e-07
2.58483e-08
2.98681e-07
2.46015e-08
2.98867e-07
2.34921e-08
2.99038e-07
2.24956e-08
2.99197e-07
2.15916e-08
2.99346e-07
2.07655e-08
2.99485e-07
2.00064e-08
2.99617e-07
1.93054e-08
2.99742e-07
1.86548e-08
2.9986e-07
1.80483e-08
2.99973e-07
1.74803e-08
3.00082e-07
1.69462e-08
3.00187e-07
1.64419e-08
3.00288e-07
1.5964e-08
3.00386e-07
1.55096e-08
3.00482e-07
1.50761e-08
3.00576e-07
1.4661e-08
3.00668e-07
1.42622e-08
3.00759e-07
1.38774e-08
3.00849e-07
1.35045e-08
3.00938e-07
1.31409e-08
3.01027e-07
1.27844e-08
3.01117e-07
1.24317e-08
3.01206e-07
1.20802e-08
3.01297e-07
1.17256e-08
3.01389e-07
1.13647e-08
3.01483e-07
1.09913e-08
3.0158e-07
1.06009e-08
3.01679e-07
1.01852e-08
3.01783e-07
9.73632e-09
3.01889e-07
9.24426e-09
3.02e-07
8.69299e-09
3.02116e-07
8.07312e-09
3.02234e-07
7.35124e-09
3.02356e-07
6.52296e-09
3.02473e-07
5.5259e-09
3.02586e-07
4.3666e-09
3.0267e-07
2.9601e-09
3.0272e-07
1.33887e-09
-5.46851e-10
3.02709e-07
2.98847e-07
3.00741e-08
3.01834e-07
5.25665e-08
3.03102e-07
4.59791e-08
3.04102e-07
3.95609e-08
3.04964e-07
3.75052e-08
3.05527e-07
3.53699e-08
3.05919e-07
3.2631e-08
3.06259e-07
3.03015e-08
3.06561e-07
2.85083e-08
3.06821e-07
2.69869e-08
3.0705e-07
2.56197e-08
3.07256e-07
2.43954e-08
3.07444e-07
2.33036e-08
3.07618e-07
2.2322e-08
3.07779e-07
2.14307e-08
3.07929e-07
2.06155e-08
3.0807e-07
1.98657e-08
3.08202e-07
1.91728e-08
3.08328e-07
1.85293e-08
3.08447e-07
1.7929e-08
3.08561e-07
1.73664e-08
3.0867e-07
1.6837e-08
3.08775e-07
1.63368e-08
3.08877e-07
1.58624e-08
3.08975e-07
1.54109e-08
3.09072e-07
1.49797e-08
3.09166e-07
1.45666e-08
3.09259e-07
1.41693e-08
3.09351e-07
1.37857e-08
3.09442e-07
1.34135e-08
3.09533e-07
1.30503e-08
3.09623e-07
1.26937e-08
3.09714e-07
1.23406e-08
3.09806e-07
1.19882e-08
3.09899e-07
1.16325e-08
3.09994e-07
1.12697e-08
3.10091e-07
1.08943e-08
3.10191e-07
1.0501e-08
3.10294e-07
1.00823e-08
3.10401e-07
9.62962e-09
3.10511e-07
9.13374e-09
3.10626e-07
8.57832e-09
3.10745e-07
7.95425e-09
3.10866e-07
7.23016e-09
3.1099e-07
6.39946e-09
3.11107e-07
5.4085e-09
3.11216e-07
4.25724e-09
3.11298e-07
2.87885e-09
3.11342e-07
1.29497e-09
-5.31399e-10
3.11326e-07
3.07667e-07
2.71946e-08
3.10605e-07
4.96278e-08
3.11894e-07
4.46907e-08
3.12872e-07
3.8583e-08
3.13743e-07
3.6634e-08
3.14334e-07
3.47794e-08
3.1474e-07
3.22249e-08
3.15085e-07
2.99559e-08
3.15394e-07
2.82e-08
3.15661e-07
2.67198e-08
3.15894e-07
2.53863e-08
3.16104e-07
2.41858e-08
3.16295e-07
2.31121e-08
3.16471e-07
2.21459e-08
3.16634e-07
2.12678e-08
3.16786e-07
2.04638e-08
3.16928e-07
1.97237e-08
3.17062e-07
1.90391e-08
3.17188e-07
1.84029e-08
3.17308e-07
1.7809e-08
3.17423e-07
1.72519e-08
3.17532e-07
1.67273e-08
3.17638e-07
1.62312e-08
3.1774e-07
1.57604e-08
3.17839e-07
1.53118e-08
3.17936e-07
1.48831e-08
3.1803e-07
1.44719e-08
3.18123e-07
1.40762e-08
3.18215e-07
1.36936e-08
3.18307e-07
1.33221e-08
3.18398e-07
1.29592e-08
3.18489e-07
1.26025e-08
3.18581e-07
1.2249e-08
3.18673e-07
1.18957e-08
3.18767e-07
1.15386e-08
3.18863e-07
1.1174e-08
3.18961e-07
1.07964e-08
3.19061e-07
1.04003e-08
3.19165e-07
9.97863e-09
3.19272e-07
9.52229e-09
3.19383e-07
9.02271e-09
3.19498e-07
8.46364e-09
3.19616e-07
7.83588e-09
3.19736e-07
7.1105e-09
3.19857e-07
6.2789e-09
3.1997e-07
5.29527e-09
3.20072e-07
4.155e-09
3.20146e-07
2.80526e-09
3.2018e-07
1.2612e-09
-5.06073e-10
3.20154e-07
3.16777e-07
2.45689e-08
3.19656e-07
4.67485e-08
3.20971e-07
4.3376e-08
3.21927e-07
3.76268e-08
3.22802e-07
3.5759e-08
3.23419e-07
3.41622e-08
3.23841e-07
3.18032e-08
3.24193e-07
2.96037e-08
3.24508e-07
2.78851e-08
3.24782e-07
2.64461e-08
3.2502e-07
2.51477e-08
3.25234e-07
2.39722e-08
3.25428e-07
2.29175e-08
3.25607e-07
2.19672e-08
3.25772e-07
2.11026e-08
3.25926e-07
2.03102e-08
3.2607e-07
1.958e-08
3.26205e-07
1.89041e-08
3.26332e-07
1.82754e-08
3.26453e-07
1.7688e-08
3.26568e-07
1.71367e-08
3.26679e-07
1.6617e-08
3.26785e-07
1.61252e-08
3.26887e-07
1.56579e-08
3.26986e-07
1.52124e-08
3.27083e-07
1.47862e-08
3.27178e-07
1.4377e-08
3.27272e-07
1.39828e-08
3.27364e-07
1.36013e-08
3.27456e-07
1.32305e-08
3.27547e-07
1.2868e-08
3.27638e-07
1.25112e-08
3.2773e-07
1.21572e-08
3.27823e-07
1.1803e-08
3.27916e-07
1.14447e-08
3.28012e-07
1.10783e-08
3.2811e-07
1.06986e-08
3.2821e-07
1.02998e-08
3.28314e-07
9.87529e-09
3.2842e-07
9.41566e-09
3.2853e-07
8.91268e-09
3.28643e-07
8.35059e-09
3.28759e-07
7.7199e-09
3.28876e-07
6.99424e-09
3.28991e-07
6.16346e-09
3.29098e-07
5.18852e-09
3.29191e-07
4.06202e-09
3.29254e-07
2.74181e-09
3.29276e-07
1.23961e-09
-4.68153e-10
3.29238e-07
3.26187e-07
2.21844e-08
3.28996e-07
4.39395e-08
3.30341e-07
4.20308e-08
3.31277e-07
3.66912e-08
3.32151e-07
3.48849e-08
3.32793e-07
3.35198e-08
3.33232e-07
3.13644e-08
3.33592e-07
2.92445e-08
3.33913e-07
2.75639e-08
3.34193e-07
2.61656e-08
3.34437e-07
2.49036e-08
3.34655e-07
2.37545e-08
3.34853e-07
2.27195e-08
3.35035e-07
2.17855e-08
3.35202e-07
2.0935e-08
3.35358e-07
2.01546e-08
3.35503e-07
1.94347e-08
3.3564e-07
1.87676e-08
3.35769e-07
1.81467e-08
3.35891e-07
1.7566e-08
3.36007e-07
1.70206e-08
3.36118e-07
1.6506e-08
3.36224e-07
1.60185e-08
3.36327e-07
1.5555e-08
3.36427e-07
1.51125e-08
3.36525e-07
1.46889e-08
3.3662e-07
1.42817e-08
3.36714e-07
1.38891e-08
3.36806e-07
1.35088e-08
3.36898e-07
1.31388e-08
3.36989e-07
1.27766e-08