/*--------------------------------*- C++ -*----------------------------------*\
  =========                 |
  \\      /  F ield         | OpenFOAM: The Open Source CFD Toolbox
   \\    /   O peration     | Website:  https://openfoam.org
    \\  /    A nd           | Version:  7
     \\/     M anipulation  |
\*---------------------------------------------------------------------------*/
FoamFile
{
    version     2.0;
    format      ascii;
    class       volVectorField;
    location    "0.18";
    object      U;
}
// * * * * * * * * * * * * * * * * * * * * * * * * * * * * * * * * * * * * * //

dimensions      [0 1 -1 0 0 0 0];

internalField   nonuniform List<vector> 
70000
(
(0.553414 0.0169781 0)
(0.251423 0.00340035 0)
(0.165939 0.000318911 0)
(0.132463 4.89833e-05 0)
(0.117366 4.40346e-05 0)
(0.107415 5.22001e-05 0)
(0.0994493 4.44012e-05 0)
(0.0930103 3.53262e-05 0)
(0.0877695 2.92907e-05 0)
(0.0834024 2.51555e-05 0)
(0.0796809 2.19957e-05 0)
(0.0764576 1.94625e-05 0)
(0.0736312 1.73962e-05 0)
(0.0711278 1.56878e-05 0)
(0.0688912 1.42567e-05 0)
(0.0668782 1.3043e-05 0)
(0.0650545 1.20021e-05 0)
(0.0633931 1.11003e-05 0)
(0.0618718 1.03117e-05 0)
(0.0604726 9.616e-06 0)
(0.0591809 8.99695e-06 0)
(0.0579841 8.44154e-06 0)
(0.0568718 7.93896e-06 0)
(0.0558354 7.48034e-06 0)
(0.0548674 7.05779e-06 0)
(0.0539615 6.66501e-06 0)
(0.0531123 6.29527e-06 0)
(0.0523152 5.9443e-06 0)
(0.0515663 5.60474e-06 0)
(0.0508624 5.27489e-06 0)
(0.0502009 4.94401e-06 0)
(0.0495794 4.61529e-06 0)
(0.0489966 4.2696e-06 0)
(0.0484511 3.91957e-06 0)
(0.0479426 3.53127e-06 0)
(0.0474708 3.12935e-06 0)
(0.0470365 2.66779e-06 0)
(0.0466415 2.15893e-06 0)
(0.0462855 1.60682e-06 0)
(0.0459783 8.59289e-07 0)
(0.0457089 2.75242e-07 0)
(0.0455144 -1.0672e-06 0)
(0.045342 -1.35171e-06 0)
(0.045313 -4.35241e-06 0)
(0.0452411 -3.11908e-06 0)
(0.0454922 -1.03742e-05 0)
(0.0454973 -3.17554e-06 0)
(0.0462565 -2.41783e-05 0)
(0.0464949 2.47582e-05 0)
(0.0443548 -0.00179426 0)
(0.884863 0.043493 0)
(0.650157 0.0201484 0)
(0.494005 0.00660392 0)
(0.403605 0.00275404 0)
(0.354914 0.00154734 0)
(0.323616 0.00113121 0)
(0.29973 0.000908979 0)
(0.280529 0.000744598 0)
(0.264819 0.000622115 0)
(0.251697 0.000531838 0)
(0.240511 0.000463341 0)
(0.230821 0.000409462 0)
(0.222321 0.00036595 0)
(0.214788 0.000330156 0)
(0.208054 0.000300275 0)
(0.20199 0.000275015 0)
(0.196493 0.00025342 0)
(0.191482 0.000234775 0)
(0.18689 0.000218531 0)
(0.182664 0.000204262 0)
(0.17876 0.000191634 0)
(0.175139 0.000180378 0)
(0.171771 0.000170276 0)
(0.16863 0.000161149 0)
(0.165692 0.000152849 0)
(0.162938 0.000145248 0)
(0.160353 0.000138236 0)
(0.157921 0.000131718 0)
(0.155631 0.000125601 0)
(0.153472 0.000119812 0)
(0.151436 0.000114259 0)
(0.149516 0.000108882 0)
(0.147705 0.000103566 0)
(0.146 9.82796e-05 0)
(0.144397 9.28332e-05 0)
(0.142895 8.72545e-05 0)
(0.141493 8.12067e-05 0)
(0.140196 7.48194e-05 0)
(0.139 6.75302e-05 0)
(0.13793 5.95342e-05 0)
(0.136954 5.01551e-05 0)
(0.136169 3.9076e-05 0)
(0.135432 2.6674e-05 0)
(0.135059 9.20563e-06 0)
(0.134561 -5.94989e-06 0)
(0.134885 -3.95982e-05 0)
(0.134568 -5.0191e-05 0)
(0.136126 -0.000158024 0)
(0.136344 9.1621e-05 0)
(0.135919 -0.0031802 0)
(0.991208 0.0499551 0)
(0.890932 0.0305613 0)
(0.762522 0.0146086 0)
(0.656594 0.00796877 0)
(0.585518 0.00487787 0)
(0.536172 0.00347329 0)
(0.498296 0.00273771 0)
(0.467673 0.0022441 0)
(0.442358 0.00188107 0)
(0.421041 0.00161015 0)
(0.402774 0.00140341 0)
(0.386888 0.0012408 0)
(0.372909 0.00110956 0)
(0.360489 0.00100162 0)
(0.349362 0.000911494 0)
(0.339321 0.000835293 0)
(0.330204 0.000770144 0)
(0.32188 0.000713894 0)
(0.314242 0.000664897 0)
(0.307204 0.000621875 0)
(0.300692 0.000583821 0)
(0.294648 0.000549932 0)
(0.289018 0.000519554 0)
(0.28376 0.000492155 0)
(0.278837 0.000467289 0)
(0.274218 0.000444582 0)
(0.269874 0.00042371 0)
(0.265782 0.000404393 0)
(0.261922 0.000386374 0)
(0.258277 0.000369428 0)
(0.254831 0.000353319 0)
(0.251571 0.000337858 0)
(0.248488 0.000322767 0)
(0.245572 0.000307911 0)
(0.242819 0.000292858 0)
(0.240222 0.000277609 0)
(0.237781 0.000261341 0)
(0.235498 0.000244417 0)
(0.233368 0.000225162 0)
(0.231424 0.00020474 0)
(0.229618 0.000179855 0)
(0.228085 0.000152955 0)
(0.226619 0.000118573 0)
(0.225672 7.92735e-05 0)
(0.224538 3.1348e-05 0)
(0.224559 -3.74457e-05 0)
(0.22368 -9.16684e-05 0)
(0.225386 -0.000314042 0)
(0.225041 -5.19868e-05 0)
(0.227255 -0.00350181 0)
(1.01554 0.048953 0)
(1.0065 0.0357221 0)
(0.935911 0.0208159 0)
(0.852067 0.0134947 0)
(0.782327 0.0091946 0)
(0.72721 0.00678086 0)
(0.682145 0.00538583 0)
(0.644397 0.00444591 0)
(0.612384 0.00375263 0)
(0.584911 0.00322813 0)
(0.561039 0.00282328 0)
(0.540063 0.0025027 0)
(0.521452 0.00224289 0)
(0.504806 0.00202847 0)
(0.48981 0.00184891 0)
(0.476215 0.00169671 0)
(0.463822 0.00156632 0)
(0.452468 0.00145355 0)
(0.442018 0.00135518 0)
(0.432363 0.00126872 0)
(0.42341 0.00119218 0)
(0.41508 0.00112399 0)
(0.407306 0.00106285 0)
(0.400032 0.00100772 0)
(0.393209 0.000957722 0)
(0.386795 0.00091211 0)
(0.380754 0.000870256 0)
(0.375053 0.000831606 0)
(0.369666 0.000795672 0)
(0.364567 0.000762007 0)
(0.359738 0.000730178 0)
(0.355159 0.000699806 0)
(0.350817 0.000670409 0)
(0.346698 0.00064169 0)
(0.342794 0.00061292 0)
(0.339096 0.000584044 0)
(0.335601 0.000553628 0)
(0.33231 0.000522355 0)
(0.329214 0.000487022 0)
(0.326349 0.00045032 0)
(0.323659 0.000404947 0)
(0.321297 0.000358233 0)
(0.319025 0.000294582 0)
(0.317356 0.000229366 0)
(0.315491 0.00013569 0)
(0.314935 2.8017e-05 0)
(0.313403 -9.12594e-05 0)
(0.314748 -0.00041757 0)
(0.313703 -0.000270388 0)
(0.316936 -0.00348684 0)
(1.01435 0.0460973 0)
(1.04798 0.0373386 0)
(1.02458 0.0241822 0)
(0.974722 0.017552 0)
(0.92356 0.0131036 0)
(0.876867 0.010201 0)
(0.834737 0.00834256 0)
(0.797015 0.00702172 0)
(0.763472 0.00601297 0)
(0.733664 0.00522755 0)
(0.707077 0.00460782 0)
(0.683238 0.00410931 0)
(0.661751 0.00370057 0)
(0.642282 0.00336014 0)
(0.624557 0.00307295 0)
(0.608345 0.002828 0)
(0.593455 0.00261707 0)
(0.579726 0.00243384 0)
(0.56702 0.00227343 0)
(0.555223 0.002132 0)
(0.544235 0.00200649 0)
(0.533973 0.00189442 0)
(0.524364 0.00179378 0)
(0.515344 0.00170291 0)
(0.506858 0.00162042 0)
(0.49886 0.00154514 0)
(0.491307 0.00147607 0)
(0.484163 0.00141233 0)
(0.477396 0.00135316 0)
(0.470977 0.00129783 0)
(0.464882 0.00124568 0)
(0.45909 0.0011961 0)
(0.453583 0.00114838 0)
(0.448345 0.00110202 0)
(0.443365 0.00105596 0)
(0.438631 0.00101006 0)
(0.434138 0.000962207 0)
(0.429885 0.000913437 0)
(0.425861 0.000858823 0)
(0.422102 0.000802811 0)
(0.418549 0.000733512 0)
(0.415355 0.000663912 0)
(0.412284 0.000566848 0)
(0.409843 0.000472204 0)
(0.407248 0.000327953 0)
(0.405967 0.000174492 0)
(0.40381 -1.87461e-05 0)
(0.404439 -0.000441555 0)
(0.402899 -0.000464399 0)
(0.405619 -0.00343478 0)
(1.00941 0.0430469 0)
(1.05564 0.0370937 0)
(1.05868 0.0253227 0)
(1.03633 0.0197553 0)
(1.00718 0.0157896 0)
(0.976205 0.0129266 0)
(0.944715 0.010957 0)
(0.91388 0.00947619 0)
(0.884554 0.00828767 0)
(0.857114 0.00732298 0)
(0.831635 0.0065364 0)
(0.808053 0.00588742 0)
(0.786248 0.00534461 0)
(0.766075 0.00488522 0)
(0.747389 0.00449255 0)
(0.730049 0.00415397 0)
(0.713926 0.0038597 0)
(0.698902 0.00360209 0)
(0.68487 0.00337506 0)
(0.671738 0.00317373 0)
(0.659421 0.00299418 0)
(0.647845 0.00283318 0)
(0.636946 0.00268807 0)
(0.626663 0.00255665 0)
(0.616947 0.00243705 0)
(0.60775 0.00232767 0)
(0.599032 0.00222717 0)
(0.590756 0.00213433 0)
(0.582892 0.0020481 0)
(0.575408 0.0019675 0)
(0.568282 0.00189161 0)
(0.561489 0.0018196 0)
(0.555012 0.00175049 0)
(0.548832 0.00168357 0)
(0.542939 0.00161747 0)
(0.537319 0.0015519 0)
(0.531965 0.00148411 0)
(0.526876 0.00141541 0)
(0.52204 0.00133919 0)
(0.517488 0.0012615 0)
(0.51317 0.00116611 0)
(0.509219 0.00107104 0)
(0.50543 0.000938703 0)
(0.502253 0.000811088 0)
(0.499006 0.000615269 0)
(0.496969 0.000410911 0)
(0.494282 0.000140924 0)
(0.494024 -0.000381671 0)
(0.492184 -0.000574362 0)
(0.493805 -0.00333738 0)
(1.00635 0.0401789 0)
(1.05241 0.0361469 0)
(1.06606 0.0252457 0)
(1.05955 0.0205592 0)
(1.04693 0.017215 0)
(1.03091 0.0146428 0)
(1.01205 0.0128137 0)
(0.991399 0.0113904 0)
(0.970023 0.0101961 0)
(0.948645 0.00918427 0)
(0.927704 0.00832846 0)
(0.907461 0.00760032 0)
(0.888061 0.00697533 0)
(0.869572 0.00643469 0)
(0.852013 0.00596394 0)
(0.835371 0.00555158 0)
(0.819613 0.00518833 0)
(0.804699 0.00486661 0)
(0.79058 0.0045802 0)
(0.777208 0.00432399 0)
(0.764534 0.00409373 0)
(0.752512 0.00388586 0)
(0.741098 0.00369741 0)
(0.73025 0.00352585 0)
(0.71993 0.00336901 0)
(0.710102 0.00322502 0)
(0.700735 0.00309227 0)
(0.691797 0.0029693 0)
(0.683263 0.00285484 0)
(0.675107 0.00274768 0)
(0.667307 0.00264671 0)
(0.659845 0.00255085 0)
(0.652702 0.00245894 0)
(0.645863 0.00237004 0)
(0.639318 0.00228248 0)
(0.633053 0.00219584 0)
(0.627064 0.00210675 0)
(0.621346 0.0020167 0)
(0.615893 0.00191765 0)
(0.610728 0.00181678 0)
(0.605812 0.00169436 0)
(0.601257 0.00157188 0)
(0.596898 0.00140415 0)
(0.593104 0.00124027 0)
(0.589336 0.000994874 0)
(0.58662 0.000733351 0)
(0.583519 0.000390649 0)
(0.582399 -0.000235493 0)
(0.580328 -0.000589835 0)
(0.580857 -0.00316624 0)
(1.00506 0.0375017 0)
(1.04763 0.0350485 0)
(1.06396 0.0246981 0)
(1.0642 0.0205898 0)
(1.06072 0.0177523 0)
(1.05484 0.0154821 0)
(1.04611 0.0138682 0)
(1.03496 0.0126101 0)
(1.02208 0.0115269 0)
(1.00809 0.0105787 0)
(0.993426 0.00975144 0)
(0.97845 0.009027 0)
(0.963421 0.0083885 0)
(0.948533 0.00782279 0)
(0.933918 0.00731959 0)
(0.91967 0.0068704 0)
(0.905845 0.00646804 0)
(0.892478 0.00610638 0)
(0.879587 0.00578017 0)
(0.867176 0.00548495 0)
(0.855241 0.00521687 0)
(0.843773 0.00497262 0)
(0.832758 0.00474935 0)
(0.822181 0.00454459 0)
(0.812023 0.00435617 0)
(0.802267 0.00418218 0)
(0.792896 0.00402092 0)
(0.783891 0.00387086 0)
(0.775236 0.00373062 0)
(0.766915 0.00359887 0)
(0.758914 0.00347436 0)
(0.751218 0.0033559 0)
(0.743815 0.00324214 0)
(0.736695 0.00313199 0)
(0.729849 0.00302352 0)
(0.723269 0.00291618 0)
(0.716952 0.0028061 0)
(0.710894 0.0026948 0)
(0.705094 0.00257316 0)
(0.699568 0.00244889 0)
(0.694293 0.00229991 0)
(0.689354 0.00214923 0)
(0.684633 0.00194748 0)
(0.680414 0.00174522 0)
(0.676302 0.00145378 0)
(0.673072 0.00113091 0)
(0.669691 0.00072127 0)
(0.667867 -7.02296e-06 0)
(0.665592 -0.000516566 0)
(0.665225 -0.0029217 0)
(1.00451 0.0349658 0)
(1.0436 0.0339685 0)
(1.05994 0.0240472 0)
(1.06224 0.0203001 0)
(1.06254 0.0178164 0)
(1.06189 0.0157604 0)
(1.05935 0.0143199 0)
(1.05483 0.0132273 0)
(1.04865 0.0122863 0)
(1.04111 0.0114505 0)
(1.03251 0.0107082 0)
(1.02307 0.0100455 0)
(1.01304 0.00944921 0)
(1.0026 0.00890992 0)
(0.991924 0.00842058 0)
(0.981132 0.00797552 0)
(0.97033 0.0075699 0)
(0.959596 0.00719945 0)
(0.948993 0.00686041 0)
(0.938565 0.00654944 0)
(0.928345 0.00626361 0)
(0.918356 0.00600028 0)
(0.908616 0.00575713 0)
(0.899132 0.00553207 0)
(0.889912 0.00532323 0)
(0.880955 0.00512889 0)
(0.872263 0.00494753 0)
(0.863831 0.00477767 0)
(0.855657 0.00461801 0)
(0.847734 0.00446722 0)
(0.84006 0.00432405 0)
(0.832627 0.00418724 0)
(0.825433 0.00405538 0)
(0.81847 0.00392727 0)
(0.811739 0.00380083 0)
(0.805233 0.00367535 0)
(0.798956 0.00354665 0)
(0.792906 0.00341611 0)
(0.787085 0.0032739 0)
(0.781509 0.00312774 0)
(0.776164 0.0029543 0)
(0.771118 0.00277627 0)
(0.76629 0.00254332 0)
(0.761895 0.00230255 0)
(0.757657 0.00196946 0)
(0.75414 0.00158487 0)
(0.750641 0.00111288 0)
(0.748339 0.000291234 0)
(0.745924 -0.000366279 0)
(0.744891 -0.00261783 0)
(1.00412 0.0325351 0)
(1.04027 0.032915 0)
(1.05617 0.0234125 0)
(1.05888 0.0199154 0)
(1.06027 0.0176869 0)
(1.06166 0.0157621 0)
(1.06206 0.0144225 0)
(1.06119 0.0134449 0)
(1.05916 0.0126197 0)
(1.05608 0.0118896 0)
(1.05202 0.0112406 0)
(1.04711 0.0106583 0)
(1.04146 0.0101296 0)
(1.0352 0.00964562 0)
(1.02844 0.00920046 0)
(1.0213 0.00878977 0)
(1.01386 0.00841005 0)
(1.00622 0.00805834 0)
(0.99843 0.00773203 0)
(0.990567 0.00742883 0)
(0.982674 0.00714669 0)
(0.974794 0.00688373 0)
(0.96696 0.00663828 0)
(0.959199 0.00640877 0)
(0.951533 0.00619377 0)
(0.943978 0.00599193 0)
(0.936549 0.005802 0)
(0.929256 0.00562275 0)
(0.922107 0.00545304 0)
(0.915106 0.00529166 0)
(0.908261 0.00513746 0)
(0.901572 0.00498921 0)
(0.895045 0.00484551 0)
(0.888681 0.00470513 0)
(0.882483 0.0045659 0)
(0.876454 0.00442702 0)
(0.870599 0.00428406 0)
(0.864921 0.00413825 0)
(0.859428 0.00397936 0)
(0.854134 0.00381464 0)
(0.849035 0.0036205 0)
(0.844185 0.00341786 0)
(0.839533 0.00315798 0)
(0.835238 0.0028809 0)
(0.831118 0.00251139 0)
(0.827571 0.00206858 0)
(0.824145 0.00153834 0)
(0.82162 0.000638572 0)
(0.819175 -0.000157705 0)
(0.817716 -0.0022748 0)
(1.00374 0.0302008 0)
(1.03727 0.0318658 0)
(1.05284 0.0228089 0)
(1.05564 0.019513 0)
(1.05718 0.017496 0)
(1.05912 0.0156596 0)
(1.06058 0.0143673 0)
(1.0613 0.0134528 0)
(1.06133 0.0127008 0)
(1.06072 0.0120446 0)
(1.05945 0.0114678 0)
(1.05754 0.0109547 0)
(1.05501 0.0104907 0)
(1.05193 0.0100658 0)
(1.04834 0.00967337 0)
(1.0443 0.00930916 0)
(1.03987 0.00896977 0)
(1.03511 0.0086526 0)
(1.03008 0.0083555 0)
(1.02482 0.00807668 0)
(1.01939 0.00781458 0)
(1.01381 0.00756785 0)
(1.00814 0.00733525 0)
(1.00239 0.00711567 0)
(0.996606 0.00690806 0)
(0.9908 0.00671142 0)
(0.984997 0.00652479 0)
(0.979214 0.0063472 0)
(0.973466 0.0061777 0)
(0.967766 0.00601528 0)
(0.962126 0.00585891 0)
(0.956556 0.00570744 0)
(0.951065 0.00555954 0)
(0.945659 0.00541401 0)
(0.94035 0.0052686 0)
(0.935141 0.0051225 0)
(0.930045 0.00497112 0)
(0.925067 0.00481548 0)
(0.920218 0.00464519 0)
(0.915513 0.00446675 0)
(0.910956 0.00425706 0)
(0.906589 0.00403418 0)
(0.902384 0.00375287 0)
(0.898458 0.00344385 0)
(0.8947 0.00304401 0)
(0.891379 0.00254953 0)
(0.888225 0.00196696 0)
(0.885727 0.00100524 0)
(0.883396 8.86794e-05 0)
(0.881745 -0.00191366 0)
(1.00337 0.0279653 0)
(1.03443 0.0308086 0)
(1.04973 0.0222302 0)
(1.05268 0.0191078 0)
(1.05418 0.0172866 0)
(1.05618 0.0155279 0)
(1.05791 0.0142574 0)
(1.05915 0.0133733 0)
(1.05999 0.0126615 0)
(1.06049 0.0120484 0)
(1.06061 0.0115164 0)
(1.06034 0.0110499 0)
(1.05966 0.0106331 0)
(1.05859 0.0102548 0)
(1.05713 0.00990756 0)
(1.0553 0.00958621 0)
(1.05312 0.00928696 0)
(1.05062 0.00900689 0)
(1.04783 0.00874373 0)
(1.04479 0.00849564 0)
(1.04151 0.00826116 0)
(1.03803 0.00803904 0)
(1.03438 0.00782822 0)
(1.03059 0.00762777 0)
(1.02667 0.00743685 0)
(1.02265 0.00725465 0)
(1.01855 0.00708043 0)
(1.01438 0.00691337 0)
(1.01018 0.00675271 0)
(1.00594 0.00659755 0)
(1.00169 0.00644698 0)
(0.997428 0.00629994 0)
(0.993178 0.00615515 0)
(0.988948 0.00601144 0)
(0.984748 0.00586655 0)
(0.980587 0.00571962 0)
(0.976478 0.00556597 0)
(0.97243 0.00540637 0)
(0.968455 0.00523051 0)
(0.96457 0.00504385 0)
(0.96078 0.00482438 0)
(0.957123 0.00458661 0)
(0.953584 0.00429003 0)
(0.950248 0.00395494 0)
(0.947054 0.00353138 0)
(0.944177 0.00299411 0)
(0.94147 0.00236666 0)
(0.939221 0.00135993 0)
(0.937149 0.000346143 0)
(0.935517 -0.0015589 0)
(1.00301 0.0258319 0)
(1.03171 0.0297391 0)
(1.04674 0.0216728 0)
(1.04989 0.0186997 0)
(1.05136 0.0170654 0)
(1.05332 0.0153892 0)
(1.05509 0.0141337 0)
(1.05644 0.0132654 0)
(1.05752 0.0125764 0)
(1.0584 0.0119867 0)
(1.05909 0.0114791 0)
(1.05955 0.0110391 0)
(1.05979 0.0106509 0)
(1.05978 0.0103028 0)
(1.05952 0.00998664 0)
(1.05902 0.00969669 0)
(1.05827 0.00942863 0)
(1.05728 0.00917912 0)
(1.05605 0.00894552 0)
(1.0546 0.00872573 0)
(1.05295 0.00851807 0)
(1.0511 0.00832117 0)
(1.04908 0.0081339 0)
(1.04689 0.0079553 0)
(1.04456 0.00778454 0)
(1.0421 0.00762085 0)
(1.03953 0.00746352 0)
(1.03685 0.00731183 0)
(1.03408 0.00716505 0)
(1.03125 0.00702235 0)
(1.02835 0.00688286 0)
(1.0254 0.00674558 0)
(1.02241 0.00660922 0)
(1.01939 0.00647263 0)
(1.01635 0.00633351 0)
(1.01331 0.00619094 0)
(1.01027 0.00604019 0)
(1.00725 0.00588175 0)
(1.00426 0.0057055 0)
(1.00131 0.00551571 0)
(0.998404 0.00529188 0)
(0.995582 0.00504456 0)
(0.992838 0.00473859 0)
(0.990229 0.00438387 0)
(0.987729 0.00394305 0)
(0.985443 0.0033731 0)
(0.983305 0.00270858 0)
(0.981465 0.00167475 0)
(0.979768 0.000584767 0)
(0.978325 -0.00123609 0)
(1.00268 0.0238035 0)
(1.02911 0.0286559 0)
(1.04383 0.0211361 0)
(1.0472 0.0182885 0)
(1.04867 0.0168307 0)
(1.0506 0.0152461 0)
(1.05236 0.0140072 0)
(1.05372 0.0131501 0)
(1.05484 0.0124772 0)
(1.05581 0.0119022 0)
(1.05667 0.011408 0)
(1.0574 0.0109821 0)
(1.058 0.0106096 0)
(1.05846 0.0102785 0)
(1.05878 0.00998073 0)
(1.05895 0.00971023 0)
(1.05897 0.00946248 0)
(1.05883 0.00923384 0)
(1.05854 0.00902141 0)
(1.05809 0.00882283 0)
(1.05749 0.00863618 0)
(1.05674 0.0084599 0)
(1.05584 0.00829268 0)
(1.05481 0.00813345 0)
(1.05366 0.00798126 0)
(1.05238 0.00783529 0)
(1.05099 0.00769478 0)
(1.0495 0.00755896 0)
(1.04792 0.00742709 0)
(1.04625 0.00729833 0)
(1.0445 0.00717176 0)
(1.04268 0.0070464 0)
(1.04081 0.00692088 0)
(1.03888 0.00679407 0)
(1.03692 0.00666357 0)
(1.03491 0.00652838 0)
(1.03289 0.00638376 0)
(1.03085 0.0062298 0)
(1.02881 0.00605676 0)
(1.02678 0.00586754 0)
(1.02477 0.00564346 0)
(1.02279 0.00539093 0)
(1.02087 0.00508038 0)
(1.01902 0.00471195 0)
(1.01725 0.00425941 0)
(1.01561 0.00366651 0)
(1.01409 0.00297324 0)
(1.01275 0.00192729 0)
(1.01149 0.000783181 0)
(1.01034 -0.000962623 0)
(1.00238 0.0218815 0)
(1.02664 0.0275581 0)
(1.041 0.0206198 0)
(1.04459 0.0178758 0)
(1.04608 0.0165813 0)
(1.04798 0.015097 0)
(1.04974 0.0138792 0)
(1.05109 0.0130323 0)
(1.0522 0.0123739 0)
(1.05318 0.011811 0)
(1.05407 0.0113261 0)
(1.05486 0.0109086 0)
(1.05557 0.0105449 0)
(1.0562 0.0102232 0)
(1.05674 0.00993548 0)
(1.0572 0.00967587 0)
(1.05757 0.00943982 0)
(1.05785 0.00922362 0)
(1.05803 0.00902427 0)
(1.05812 0.0088393 0)
(1.0581 0.00866664 0)
(1.05799 0.00850458 0)
(1.05779 0.0083517 0)
(1.05748 0.00820678 0)
(1.05709 0.00806878 0)
(1.0566 0.00793678 0)
(1.05602 0.00780993 0)
(1.05536 0.0076874 0)
(1.05463 0.00756837 0)
(1.05381 0.00745197 0)
(1.05293 0.0073372 0)
(1.05199 0.00722304 0)
(1.05098 0.00710803 0)
(1.04993 0.00699099 0)
(1.04882 0.00686944 0)
(1.04768 0.00674226 0)
(1.0465 0.0066047 0)
(1.0453 0.00645641 0)
(1.04408 0.00628815 0)
(1.04285 0.00610133 0)
(1.04162 0.00587927 0)
(1.04041 0.00562433 0)
(1.03923 0.00531224 0)
(1.03808 0.00493476 0)
(1.03699 0.00447455 0)
(1.03598 0.00386705 0)
(1.03504 0.00315254 0)
(1.03419 0.00210649 0)
(1.03337 0.000928766 0)
(1.03256 -0.000749029 0)
(1.0021 0.0200671 0)
(1.02431 0.0264475 0)
(1.03827 0.0201216 0)
(1.04207 0.0174634 0)
(1.04358 0.0163173 0)
(1.04545 0.0149407 0)
(1.04721 0.013749 0)
(1.04856 0.0129125 0)
(1.04966 0.0122685 0)
(1.05062 0.0117176 0)
(1.0515 0.0112409 0)
(1.0523 0.01083 0)
(1.05303 0.0104724 0)
(1.0537 0.0101566 0)
(1.05431 0.00987485 0)
(1.05486 0.00962142 0)
(1.05536 0.00939189 0)
(1.0558 0.00918265 0)
(1.05619 0.00899071 0)
(1.05652 0.00881357 0)
(1.05679 0.00864917 0)
(1.057 0.00849573 0)
(1.05715 0.00835176 0)
(1.05725 0.00821598 0)
(1.05728 0.00808729 0)
(1.05725 0.00796468 0)
(1.05716 0.00784726 0)
(1.05702 0.00773413 0)
(1.05682 0.00762443 0)
(1.05656 0.0075172 0)
(1.05626 0.00741139 0)
(1.0559 0.00730591 0)
(1.0555 0.00719923 0)
(1.05506 0.0070901 0)
(1.05458 0.00697595 0)
(1.05406 0.00685551 0)
(1.05352 0.00672409 0)
(1.05295 0.00658085 0)
(1.05236 0.0064171 0)
(1.05176 0.00623277 0)
(1.05116 0.00601319 0)
(1.05056 0.00575698 0)
(1.04997 0.00544462 0)
(1.04941 0.00506113 0)
(1.04888 0.00459565 0)
(1.04839 0.0039799 0)
(1.04795 0.00325034 0)
(1.04753 0.00221285 0)
(1.0471 0.00101874 0)
(1.04661 -0.00059682 0)
(1.00185 0.0183605 0)
(1.02211 0.0253284 0)
(1.03564 0.019638 0)
(1.03963 0.0170533 0)
(1.04116 0.0160391 0)
(1.043 0.0147762 0)
(1.04476 0.0136162 0)
(1.04612 0.0127903 0)
(1.04721 0.0121607 0)
(1.04816 0.0116226 0)
(1.04902 0.0111544 0)
(1.04981 0.0107498 0)
(1.05053 0.0103974 0)
(1.0512 0.0100864 0)
(1.05181 0.00980907 0)
(1.05239 0.00955979 0)
(1.05292 0.00933434 0)
(1.05341 0.00912922 0)
(1.05387 0.00894152 0)
(1.05429 0.00876881 0)
(1.05468 0.00860903 0)
(1.05503 0.00846043 0)
(1.05534 0.00832149 0)
(1.05562 0.00819093 0)
(1.05586 0.00806762 0)
(1.05606 0.00795054 0)
(1.05623 0.00783876 0)
(1.05637 0.00773137 0)
(1.05647 0.00762743 0)
(1.05653 0.00752599 0)
(1.05656 0.00742591 0)
(1.05657 0.00732608 0)
(1.05654 0.00722489 0)
(1.05648 0.00712102 0)
(1.0564 0.00701185 0)
(1.05629 0.00689595 0)
(1.05617 0.00676871 0)
(1.05602 0.00662878 0)
(1.05587 0.0064681 0)
(1.05571 0.00628518 0)
(1.05554 0.00606723 0)
(1.05538 0.00580966 0)
(1.05523 0.00549687 0)
(1.05509 0.00510897 0)
(1.05498 0.00463924 0)
(1.05489 0.00401948 0)
(1.05482 0.00327973 0)
(1.05474 0.00225616 0)
(1.05462 0.00105911 0)
(1.05437 -0.00049924 0)
(1.00162 0.0167614 0)
(1.02004 0.0242048 0)
(1.03311 0.0191647 0)
(1.03728 0.0166469 0)
(1.03885 0.015748 0)
(1.04065 0.0146031 0)
(1.0424 0.0134805 0)
(1.04377 0.0126657 0)
(1.04484 0.0120506 0)
(1.04578 0.0115257 0)
(1.04663 0.0110666 0)
(1.04741 0.0106684 0)
(1.04812 0.0103214 0)
(1.04877 0.010015 0)
(1.04938 0.00974161 0)
(1.04995 0.00949583 0)
(1.05048 0.00927356 0)
(1.05098 0.00907142 0)
(1.05145 0.00888657 0)
(1.0519 0.00871664 0)
(1.05232 0.00855962 0)
(1.05271 0.00841378 0)
(1.05308 0.00827764 0)
(1.05343 0.00814992 0)
(1.05376 0.00802949 0)
(1.05406 0.00791535 0)
(1.05435 0.00780655 0)
(1.05461 0.00770218 0)
(1.05486 0.0076013 0)
(1.05508 0.00750293 0)
(1.05529 0.00740591 0)
(1.05548 0.00730908 0)
(1.05565 0.0072108 0)
(1.05581 0.00710968 0)
(1.05595 0.00700309 0)
(1.05609 0.0068894 0)
(1.05621 0.00676419 0)
(1.05632 0.00662556 0)
(1.05644 0.00646612 0)
(1.05654 0.00628306 0)
(1.05666 0.00606529 0)
(1.05678 0.0058056 0)
(1.05691 0.00549145 0)
(1.05705 0.00509975 0)
(1.05721 0.00462594 0)
(1.05738 0.00400471 0)
(1.05756 0.00325849 0)
(1.05771 0.00225162 0)
(1.05779 0.00106149 0)
(1.05773 -0.00044416 0)
(1.00142 0.0152689 0)
(1.01812 0.023081 0)
(1.03068 0.0186978 0)
(1.03502 0.0162457 0)
(1.03662 0.0154452 0)
(1.03839 0.0144205 0)
(1.04013 0.0133416 0)
(1.0415 0.0125388 0)
(1.04257 0.0119379 0)
(1.0435 0.0114269 0)
(1.04434 0.0109774 0)
(1.0451 0.010586 0)
(1.0458 0.0102445 0)
(1.04644 0.00994278 0)
(1.04704 0.00967337 0)
(1.0476 0.009431 0)
(1.04812 0.00921171 0)
(1.04861 0.00901219 0)
(1.04908 0.00882972 0)
(1.04952 0.00866195 0)
(1.04994 0.00850692 0)
(1.05034 0.00836293 0)
(1.05073 0.00822853 0)
(1.0511 0.00810245 0)
(1.05145 0.00798358 0)
(1.05179 0.00787093 0)
(1.05211 0.00776358 0)
(1.05243 0.00766061 0)
(1.05273 0.00756108 0)
(1.05302 0.00746401 0)
(1.05331 0.00736822 0)
(1.05358 0.00727254 0)
(1.05385 0.00717529 0)
(1.05411 0.00707504 0)
(1.05437 0.00696916 0)
(1.05462 0.00685586 0)
(1.05487 0.00673087 0)
(1.05512 0.00659184 0)
(1.05538 0.00643196 0)
(1.05563 0.00624732 0)
(1.0559 0.00602827 0)
(1.05618 0.00576562 0)
(1.05647 0.00544898 0)
(1.05677 0.00505365 0)
(1.05709 0.00457561 0)
(1.05741 0.00395441 0)
(1.05774 0.00320455 0)
(1.05802 0.00221554 0)
(1.05821 0.00103925 0)
(1.05825 -0.000417635 0)
(1.00124 0.0138818 0)
(1.01633 0.0219608 0)
(1.02837 0.0182335 0)
(1.03284 0.015851 0)
(1.03449 0.0151323 0)
(1.03622 0.014228 0)
(1.03795 0.013199 0)
(1.03932 0.0124095 0)
(1.04039 0.0118225 0)
(1.04131 0.0113259 0)
(1.04214 0.0108867 0)
(1.04289 0.0105024 0)
(1.04358 0.0101666 0)
(1.04421 0.00986976 0)
(1.04479 0.00960447 0)
(1.04534 0.0093656 0)
(1.04585 0.0091493 0)
(1.04633 0.0089524 0)
(1.04679 0.00877219 0)
(1.04722 0.00860643 0)
(1.04763 0.00845315 0)
(1.04803 0.0083107 0)
(1.04841 0.00817763 0)
(1.04878 0.0080527 0)
(1.04913 0.00793482 0)
(1.04947 0.007823 0)
(1.04981 0.00771635 0)
(1.05013 0.00761395 0)
(1.05045 0.00751488 0)
(1.05077 0.00741813 0)
(1.05108 0.00732255 0)
(1.05138 0.00722693 0)
(1.05169 0.00712959 0)
(1.05199 0.00702903 0)
(1.05229 0.00692267 0)
(1.05259 0.00680853 0)
(1.0529 0.00668254 0)
(1.05321 0.00654191 0)
(1.05353 0.00638041 0)
(1.05386 0.00619317 0)
(1.0542 0.00597172 0)
(1.05455 0.00570547 0)
(1.05492 0.00538547 0)
(1.0553 0.0049866 0)
(1.0557 0.00450432 0)
(1.05609 0.00388406 0)
(1.05648 0.00313304 0)
(1.05681 0.00216216 0)
(1.05706 0.00100453 0)
(1.05714 -0.000406574 0)
(1.00107 0.012598 0)
(1.01467 0.0208483 0)
(1.02616 0.0177685 0)
(1.03075 0.0154637 0)
(1.03246 0.0148112 0)
(1.03414 0.0140251 0)
(1.03586 0.0130523 0)
(1.03723 0.0122779 0)
(1.0383 0.0117045 0)
(1.03921 0.0112227 0)
(1.04003 0.0107943 0)
(1.04077 0.0104176 0)
(1.04144 0.0100877 0)
(1.04206 0.00979587 0)
(1.04264 0.00953486 0)
(1.04317 0.00929962 0)
(1.04367 0.00908642 0)
(1.04414 0.00889218 0)
(1.04459 0.00871429 0)
(1.04501 0.00855053 0)
(1.04542 0.00839898 0)
(1.0458 0.00825799 0)
(1.04617 0.00812615 0)
(1.04653 0.00800221 0)
(1.04688 0.00788512 0)
(1.04722 0.0077739 0)
(1.04755 0.00766764 0)
(1.04787 0.00756547 0)
(1.04819 0.00746645 0)
(1.04851 0.00736959 0)
(1.04882 0.00727372 0)
(1.04913 0.00717762 0)
(1.04944 0.00707961 0)
(1.04975 0.00697813 0)
(1.05007 0.00687063 0)
(1.05039 0.00675499 0)
(1.05071 0.00662731 0)
(1.05105 0.00648442 0)
(1.05139 0.00632057 0)
(1.05174 0.0061302 0)
(1.05211 0.00590566 0)
(1.05248 0.00563556 0)
(1.05288 0.00531171 0)
(1.05329 0.00490953 0)
(1.0537 0.00442334 0)
(1.05412 0.00380474 0)
(1.05452 0.00305485 0)
(1.05486 0.00210209 0)
(1.05511 0.000966533 0)
(1.0552 -0.000400814 0)
(1.00093 0.0114148 0)
(1.01314 0.0197476 0)
(1.02406 0.0172995 0)
(1.02875 0.0150842 0)
(1.03051 0.0144839 0)
(1.03216 0.0138115 0)
(1.03385 0.0129009 0)
(1.03523 0.012144 0)
(1.0363 0.0115838 0)
(1.0372 0.011117 0)
(1.03801 0.0107002 0)
(1.03874 0.0103314 0)
(1.0394 0.0100076 0)
(1.04001 0.00972104 0)
(1.04058 0.00946447 0)
(1.0411 0.009233 0)
(1.04159 0.009023 0)
(1.04205 0.00883153 0)
(1.04249 0.00865603 0)
(1.0429 0.00849433 0)
(1.0433 0.00834454 0)
(1.04367 0.00820504 0)
(1.04403 0.00807442 0)
(1.04438 0.00795147 0)
(1.04472 0.00783511 0)
(1.04505 0.00772441 0)
(1.04537 0.00761847 0)
(1.04569 0.00751641 0)
(1.046 0.0074173 0)
(1.04631 0.00732016 0)
(1.04662 0.0072238 0)
(1.04693 0.007127 0)
(1.04723 0.00702807 0)
(1.04754 0.00692539 0)
(1.04786 0.00681647 0)
(1.04818 0.00669903 0)
(1.0485 0.00656934 0)
(1.04883 0.00642392 0)
(1.04918 0.00625739 0)
(1.04953 0.00606369 0)
(1.0499 0.00583578 0)
(1.05028 0.00556187 0)
(1.05067 0.0052341 0)
(1.05108 0.00482902 0)
(1.05149 0.00433957 0)
(1.05189 0.0037234 0)
(1.05228 0.00297681 0)
(1.0526 0.00204234 0)
(1.05283 0.00093139 0)
(1.0529 -0.00039346 0)
(1.0008 0.0103291 0)
(1.01174 0.0186629 0)
(1.02208 0.016824 0)
(1.02684 0.014713 0)
(1.02866 0.0141524 0)
(1.03027 0.0135873 0)
(1.03194 0.0127441 0)
(1.03332 0.0120077 0)
(1.03439 0.0114605 0)
(1.03528 0.0110087 0)
(1.03608 0.0106042 0)
(1.0368 0.0102437 0)
(1.03746 0.00992636 0)
(1.03806 0.00964518 0)
(1.03861 0.00939323 0)
(1.03913 0.00916566 0)
(1.03961 0.008959 0)
(1.04006 0.00877039 0)
(1.04049 0.00859736 0)
(1.04089 0.00843779 0)
(1.04127 0.00828983 0)
(1.04164 0.00815186 0)
(1.04199 0.0080225 0)
(1.04233 0.00790054 0)
(1.04266 0.00778495 0)
(1.04298 0.00767476 0)
(1.0433 0.00756912 0)
(1.04361 0.00746715 0)
(1.04391 0.00736792 0)
(1.04421 0.00727045 0)
(1.04451 0.00717355 0)
(1.04481 0.00707598 0)
(1.04511 0.00697606 0)
(1.04541 0.0068721 0)
(1.04572 0.00676166 0)
(1.04603 0.00664233 0)
(1.04635 0.00651053 0)
(1.04667 0.00636251 0)
(1.04701 0.00619322 0)
(1.04735 0.00599624 0)
(1.04771 0.00576494 0)
(1.04808 0.00548747 0)
(1.04846 0.00515602 0)
(1.04885 0.00474861 0)
(1.04925 0.00425686 0)
(1.04963 0.00364395 0)
(1.04998 0.00290281 0)
(1.05027 0.00198698 0)
(1.05047 0.000902643 0)
(1.05049 -0.000380117 0)
(1.00069 0.00933686 0)
(1.01046 0.0175983 0)
(1.02021 0.0163396 0)
(1.02501 0.0143499 0)
(1.0269 0.0138187 0)
(1.02847 0.0133525 0)
(1.03011 0.0125814 0)
(1.03149 0.0118688 0)
(1.03256 0.0113345 0)
(1.03345 0.0108978 0)
(1.03424 0.010506 0)
(1.03495 0.0101545 0)
(1.0356 0.0098438 0)
(1.03619 0.0095682 0)
(1.03674 0.00932104 0)
(1.03725 0.00909753 0)
(1.03772 0.00889433 0)
(1.03816 0.00870868 0)
(1.03858 0.00853823 0)
(1.03897 0.00838086 0)
(1.03935 0.00823478 0)
(1.03971 0.0080984 0)
(1.04005 0.00797035 0)
(1.04038 0.00784943 0)
(1.0407 0.00773461 0)
(1.04101 0.00762498 0)
(1.04132 0.00751965 0)
(1.04162 0.00741777 0)
(1.04192 0.00731843 0)
(1.04221 0.00722063 0)
(1.0425 0.00712319 0)
(1.04279 0.00702484 0)
(1.04308 0.00692392 0)
(1.04337 0.00681868 0)
(1.04367 0.00670672 0)
(1.04397 0.00658552 0)
(1.04428 0.00645161 0)
(1.0446 0.00630108 0)
(1.04492 0.00612906 0)
(1.04526 0.00592899 0)
(1.0456 0.00569445 0)
(1.04596 0.00541381 0)
(1.04632 0.00507911 0)
(1.04669 0.00467005 0)
(1.04706 0.00417713 0)
(1.04741 0.00356843 0)
(1.04773 0.00283477 0)
(1.04798 0.00193823 0)
(1.04813 0.00088212 0)
(1.04812 -0.000358338 0)
(1.0006 0.00843393 0)
(1.0093 0.0165577 0)
(1.01845 0.0158446 0)
(1.02326 0.0139946 0)
(1.02523 0.0134847 0)
(1.02677 0.0131076 0)
(1.02837 0.0124121 0)
(1.02975 0.0117273 0)
(1.03082 0.011206 0)
(1.03171 0.0107841 0)
(1.03249 0.0104057 0)
(1.0332 0.0100636 0)
(1.03384 0.00975983 0)
(1.03442 0.00949001 0)
(1.03496 0.00924781 0)
(1.03546 0.00902853 0)
(1.03592 0.00882891 0)
(1.03635 0.00864635 0)
(1.03676 0.00847855 0)
(1.03715 0.00832347 0)
(1.03752 0.00817935 0)
(1.03787 0.00804461 0)
(1.0382 0.00791791 0)
(1.03853 0.00779807 0)
(1.03884 0.00768408 0)
(1.03914 0.00757501 0)
(1.03944 0.00747002 0)
(1.03973 0.00736827 0)
(1.04002 0.00726883 0)
(1.0403 0.00717072 0)
(1.04059 0.00707276 0)
(1.04087 0.00697366 0)
(1.04115 0.00687176 0)
(1.04144 0.00676527 0)
(1.04173 0.00665183 0)
(1.04202 0.00652882 0)
(1.04232 0.00639287 0)
(1.04262 0.00623994 0)
(1.04293 0.00606534 0)
(1.04325 0.00586242 0)
(1.04358 0.0056249 0)
(1.04392 0.00534154 0)
(1.04427 0.00500417 0)
(1.04461 0.00459419 0)
(1.04495 0.00410132 0)
(1.04527 0.00349786 0)
(1.04556 0.0027736 0)
(1.04577 0.00189721 0)
(1.04588 0.000870725 0)
(1.04582 -0.000326809 0)
(1.00051 0.00761549 0)
(1.00825 0.015545 0)
(1.0168 0.0153376 0)
(1.0216 0.0136465 0)
(1.02364 0.013152 0)
(1.02515 0.0128534 0)
(1.02672 0.0122358 0)
(1.02809 0.0115828 0)
(1.02917 0.011075 0)
(1.03005 0.0106676 0)
(1.03082 0.0103029 0)
(1.03152 0.00997085 0)
(1.03216 0.00967436 0)
(1.03274 0.00941051 0)