/*--------------------------------*- C++ -*----------------------------------*\
  =========                 |
  \\      /  F ield         | OpenFOAM: The Open Source CFD Toolbox
   \\    /   O peration     | Website:  https://openfoam.org
    \\  /    A nd           | Version:  7
     \\/     M anipulation  |
\*---------------------------------------------------------------------------*/
FoamFile
{
    version     2.0;
    format      ascii;
    class       volVectorField;
    location    "0.18";
    object      U_0;
}
// * * * * * * * * * * * * * * * * * * * * * * * * * * * * * * * * * * * * * //

dimensions      [0 1 -1 0 0 0 0];

internalField   nonuniform List<vector> 
70000
(
(0.553414 0.0169781 0)
(0.251423 0.00340035 0)
(0.165939 0.00031891 0)
(0.132464 4.89828e-05 0)
(0.117366 4.40342e-05 0)
(0.107415 5.21998e-05 0)
(0.0994494 4.44009e-05 0)
(0.0930104 3.53259e-05 0)
(0.0877696 2.92905e-05 0)
(0.0834025 2.51553e-05 0)
(0.0796809 2.19955e-05 0)
(0.0764576 1.94623e-05 0)
(0.0736311 1.7396e-05 0)
(0.0711277 1.56876e-05 0)
(0.0688911 1.42565e-05 0)
(0.0668781 1.30427e-05 0)
(0.0650544 1.20019e-05 0)
(0.0633929 1.11001e-05 0)
(0.0618715 1.03115e-05 0)
(0.0604724 9.61584e-06 0)
(0.0591805 8.9968e-06 0)
(0.0579837 8.44141e-06 0)
(0.0568714 7.93886e-06 0)
(0.0558349 7.48026e-06 0)
(0.0548669 7.05773e-06 0)
(0.0539609 6.66498e-06 0)
(0.0531116 6.29527e-06 0)
(0.0523143 5.94433e-06 0)
(0.0515654 5.6048e-06 0)
(0.0508613 5.27497e-06 0)
(0.0501997 4.94411e-06 0)
(0.0495781 4.61539e-06 0)
(0.0489952 4.26967e-06 0)
(0.0484494 3.91959e-06 0)
(0.0479408 3.53114e-06 0)
(0.0474688 3.12905e-06 0)
(0.0470342 2.66709e-06 0)
(0.046639 2.15784e-06 0)
(0.0462827 1.60481e-06 0)
(0.0459753 8.5648e-07 0)
(0.0457057 2.70495e-07 0)
(0.045511 -1.07364e-06 0)
(0.0453384 -1.36187e-06 0)
(0.0453093 -4.3658e-06 0)
(0.0452374 -3.14041e-06 0)
(0.0454887 -1.04045e-05 0)
(0.0454946 -3.22639e-06 0)
(0.0462544 -2.42261e-05 0)
(0.0464967 2.46853e-05 0)
(0.0443525 -0.0017946 0)
(0.884863 0.043493 0)
(0.650157 0.0201483 0)
(0.494006 0.00660392 0)
(0.403605 0.00275404 0)
(0.354914 0.00154734 0)
(0.323616 0.00113121 0)
(0.29973 0.000908983 0)
(0.280529 0.000744602 0)
(0.264819 0.000622119 0)
(0.251697 0.000531842 0)
(0.240511 0.000463345 0)
(0.23082 0.000409466 0)
(0.22232 0.000365955 0)
(0.214787 0.00033016 0)
(0.208053 0.00030028 0)
(0.201989 0.00027502 0)
(0.196492 0.000253426 0)
(0.19148 0.000234781 0)
(0.186889 0.000218538 0)
(0.182663 0.00020427 0)
(0.178758 0.000191642 0)
(0.175137 0.000180387 0)
(0.171769 0.000170286 0)
(0.168627 0.000161161 0)
(0.165689 0.000152862 0)
(0.162935 0.000145262 0)
(0.160349 0.000138252 0)
(0.157917 0.000131735 0)
(0.155627 0.000125621 0)
(0.153468 0.000119834 0)
(0.151431 0.000114283 0)
(0.14951 0.00010891 0)
(0.147699 0.000103597 0)
(0.145993 9.83145e-05 0)
(0.14439 9.2872e-05 0)
(0.142887 8.72974e-05 0)
(0.141484 8.12536e-05 0)
(0.140186 7.48704e-05 0)
(0.138989 6.7584e-05 0)
(0.137918 5.95906e-05 0)
(0.136942 5.02103e-05 0)
(0.136155 3.91291e-05 0)
(0.135417 2.67157e-05 0)
(0.135043 9.23258e-06 0)
(0.134544 -5.95855e-06 0)
(0.134868 -3.96582e-05 0)
(0.13455 -5.0338e-05 0)
(0.136108 -0.000158354 0)
(0.136333 9.12397e-05 0)
(0.1359 -0.00318222 0)
(0.991208 0.049955 0)
(0.890932 0.0305613 0)
(0.762522 0.0146086 0)
(0.656595 0.00796877 0)
(0.585519 0.00487787 0)
(0.536172 0.0034733 0)
(0.498296 0.00273772 0)
(0.467673 0.00224411 0)
(0.442358 0.00188109 0)
(0.421041 0.00161017 0)
(0.402773 0.00140343 0)
(0.386887 0.00124081 0)
(0.372908 0.00110958 0)
(0.360487 0.00100164 0)
(0.34936 0.000911514 0)
(0.339319 0.000835314 0)
(0.330202 0.000770167 0)
(0.321877 0.000713918 0)
(0.314239 0.000664923 0)
(0.3072 0.000621903 0)
(0.300689 0.000583852 0)
(0.294643 0.000549965 0)
(0.289013 0.00051959 0)
(0.283755 0.000492195 0)
(0.278832 0.000467333 0)
(0.274212 0.00044463 0)
(0.269868 0.000423763 0)
(0.265775 0.000404451 0)
(0.261915 0.000386439 0)
(0.258268 0.000369501 0)
(0.254822 0.000353401 0)
(0.251561 0.00033795 0)
(0.248477 0.00032287 0)
(0.24556 0.000308027 0)
(0.242806 0.000292987 0)
(0.240208 0.000277753 0)
(0.237766 0.000261501 0)
(0.235482 0.000244594 0)
(0.23335 0.000225355 0)
(0.231404 0.000204949 0)
(0.229596 0.000180075 0)
(0.228061 0.000153184 0)
(0.226593 0.000118795 0)
(0.225643 7.9481e-05 0)
(0.224508 3.15022e-05 0)
(0.224526 -3.73659e-05 0)
(0.223647 -9.17444e-05 0)
(0.22535 -0.000314562 0)
(0.225011 -5.26681e-05 0)
(0.227215 -0.0035053 0)
(1.01554 0.048953 0)
(1.0065 0.035722 0)
(0.935911 0.0208159 0)
(0.852068 0.0134947 0)
(0.782327 0.00919461 0)
(0.727211 0.00678088 0)
(0.682145 0.00538586 0)
(0.644396 0.00444594 0)
(0.612384 0.00375266 0)
(0.58491 0.00322817 0)
(0.561038 0.00282332 0)
(0.540061 0.00250274 0)
(0.52145 0.00224293 0)
(0.504804 0.00202851 0)
(0.489807 0.00184895 0)
(0.476212 0.00169676 0)
(0.463819 0.00156637 0)
(0.452464 0.0014536 0)
(0.442014 0.00135524 0)
(0.432359 0.00126878 0)
(0.423405 0.00119225 0)
(0.415074 0.00112406 0)
(0.4073 0.00106293 0)
(0.400025 0.00100781 0)
(0.393202 0.000957813 0)
(0.386787 0.000912209 0)
(0.380745 0.000870365 0)
(0.375043 0.000831728 0)
(0.369655 0.000795807 0)
(0.364556 0.000762158 0)
(0.359726 0.000730346 0)
(0.355146 0.000699994 0)
(0.350803 0.000670619 0)
(0.346682 0.000641925 0)
(0.342777 0.000613184 0)
(0.339078 0.000584339 0)
(0.335581 0.000553956 0)
(0.332288 0.000522721 0)
(0.32919 0.000487425 0)
(0.326322 0.000450762 0)
(0.323629 0.000405423 0)
(0.321264 0.000358742 0)
(0.31899 0.000295103 0)
(0.317318 0.000229885 0)
(0.31545 0.000136158 0)
(0.31489 2.83687e-05 0)
(0.313357 -9.10672e-05 0)
(0.314698 -0.000418125 0)
(0.313657 -0.000271139 0)
(0.316881 -0.00349151 0)
(1.01435 0.0460973 0)
(1.04798 0.0373386 0)
(1.02458 0.0241822 0)
(0.974722 0.0175519 0)
(0.92356 0.0131036 0)
(0.876868 0.0102011 0)
(0.834737 0.00834261 0)
(0.797015 0.00702178 0)
(0.763472 0.00601303 0)
(0.733664 0.00522762 0)
(0.707075 0.00460789 0)
(0.683237 0.00410937 0)
(0.661748 0.00370064 0)
(0.642279 0.00336021 0)
(0.624554 0.00307302 0)
(0.608342 0.00282808 0)
(0.593451 0.00261715 0)
(0.579721 0.00243393 0)
(0.567015 0.00227353 0)
(0.555217 0.00213211 0)
(0.544229 0.0020066 0)
(0.533966 0.00189454 0)
(0.524356 0.00179391 0)
(0.515335 0.00170305 0)
(0.506849 0.00162057 0)
(0.49885 0.00154531 0)
(0.491297 0.00147626 0)
(0.484152 0.00141254 0)
(0.477383 0.00135338 0)
(0.470963 0.00129807 0)
(0.464868 0.00124595 0)
(0.459074 0.00119641 0)
(0.453566 0.00114872 0)
(0.448326 0.0011024 0)
(0.443345 0.00105639 0)
(0.438609 0.00101054 0)
(0.434114 0.000962745 0)
(0.429859 0.000914037 0)
(0.425833 0.000859488 0)
(0.422071 0.000803544 0)
(0.418515 0.000734311 0)
(0.415318 0.000664775 0)
(0.412243 0.000567753 0)
(0.409798 0.000473133 0)
(0.4072 0.000328846 0)
(0.405915 0.000175223 0)
(0.403755 -1.81663e-05 0)
(0.404379 -0.000441963 0)
(0.402841 -0.000465225 0)
(0.405555 -0.00344018 0)
(1.00941 0.0430469 0)
(1.05564 0.0370937 0)
(1.05868 0.0253227 0)
(1.03633 0.0197553 0)
(1.00719 0.0157896 0)
(0.976206 0.0129266 0)
(0.944715 0.0109571 0)
(0.91388 0.00947626 0)
(0.884554 0.00828776 0)
(0.857113 0.00732308 0)
(0.831634 0.0065365 0)
(0.808052 0.00588752 0)
(0.786246 0.00534472 0)
(0.766073 0.00488533 0)
(0.747386 0.00449267 0)
(0.730046 0.00415409 0)
(0.713922 0.00385984 0)
(0.698897 0.00360223 0)
(0.684865 0.00337521 0)
(0.671732 0.00317389 0)
(0.659414 0.00299435 0)
(0.647838 0.00283336 0)
(0.636938 0.00268827 0)
(0.626654 0.00255686 0)
(0.616937 0.00243727 0)
(0.607739 0.00232792 0)
(0.59902 0.00222744 0)
(0.590744 0.00213462 0)
(0.582878 0.00204842 0)
(0.575394 0.00196786 0)
(0.568266 0.00189201 0)
(0.561472 0.00182004 0)
(0.554994 0.00175098 0)
(0.548812 0.00168412 0)
(0.542917 0.00161808 0)
(0.537295 0.00155259 0)
(0.53194 0.00148488 0)
(0.526848 0.00141627 0)
(0.52201 0.00134015 0)
(0.517455 0.00126256 0)
(0.513133 0.00116727 0)
(0.509179 0.0010723 0)
(0.505387 0.000940046 0)
(0.502205 0.000812486 0)
(0.498954 0.000616658 0)
(0.496912 0.000412124 0)
(0.494222 0.000141965 0)
(0.49396 -0.000381786 0)
(0.49212 -0.000575257 0)
(0.493737 -0.00334325 0)
(1.00635 0.0401789 0)
(1.05241 0.0361468 0)
(1.06606 0.0252457 0)
(1.05955 0.0205592 0)
(1.04693 0.017215 0)
(1.03091 0.0146428 0)
(1.01205 0.0128138 0)
(0.9914 0.0113905 0)
(0.970023 0.0101962 0)
(0.948644 0.0091844 0)
(0.927703 0.0083286 0)
(0.90746 0.00760047 0)
(0.888059 0.00697548 0)
(0.86957 0.00643485 0)
(0.85201 0.0059641 0)
(0.835367 0.00555175 0)
(0.819609 0.00518851 0)
(0.804694 0.0048668 0)
(0.790575 0.0045804 0)
(0.777202 0.00432421 0)
(0.764528 0.00409396 0)
(0.752505 0.00388611 0)
(0.74109 0.00369767 0)
(0.730241 0.00352613 0)
(0.71992 0.00336931 0)
(0.710092 0.00322535 0)
(0.700723 0.00309263 0)
(0.691785 0.0029697 0)
(0.683249 0.00285528 0)
(0.675092 0.00274816 0)
(0.667292 0.00264724 0)
(0.659827 0.00255144 0)
(0.652683 0.0024596 0)
(0.645843 0.00237078 0)
(0.639296 0.0022833 0)
(0.633029 0.00219676 0)
(0.627037 0.00210778 0)
(0.621317 0.00201784 0)
(0.615862 0.00191892 0)
(0.610694 0.00181819 0)
(0.605775 0.00169591 0)
(0.601216 0.00157357 0)
(0.596854 0.00140596 0)
(0.593056 0.00124217 0)
(0.589283 0.000996796 0)
(0.586563 0.000735089 0)
(0.583458 0.000392203 0)
(0.582334 -0.000235212 0)
(0.580262 -0.000590751 0)
(0.580788 -0.00317241 0)
(1.00506 0.0375017 0)
(1.04763 0.0350485 0)
(1.06396 0.0246981 0)
(1.0642 0.0205898 0)
(1.06072 0.0177522 0)
(1.05484 0.0154822 0)
(1.04612 0.0138683 0)
(1.03496 0.0126102 0)
(1.02208 0.011527 0)
(1.00809 0.0105789 0)
(0.993426 0.00975161 0)
(0.978449 0.00902718 0)
(0.963421 0.00838869 0)
(0.948531 0.00782299 0)
(0.933916 0.0073198 0)
(0.919667 0.00687062 0)
(0.905842 0.00646827 0)
(0.892474 0.00610662 0)
(0.879583 0.00578043 0)
(0.867171 0.00548523 0)
(0.855236 0.00521716 0)
(0.843767 0.00497293 0)
(0.832751 0.00474969 0)
(0.822173 0.00454495 0)
(0.812014 0.00435656 0)
(0.802257 0.0041826 0)
(0.792885 0.00402138 0)
(0.783879 0.00387137 0)
(0.775223 0.00373117 0)
(0.766901 0.00359947 0)
(0.758899 0.00347503 0)
(0.751201 0.00335664 0)
(0.743797 0.00324296 0)
(0.736675 0.00313291 0)
(0.729828 0.00302455 0)
(0.723245 0.00291733 0)
(0.716926 0.00280739 0)
(0.710866 0.00269624 0)
(0.705064 0.00257475 0)
(0.699535 0.00245066 0)
(0.694257 0.00230186 0)
(0.689314 0.00215136 0)
(0.684589 0.00194977 0)
(0.680367 0.00174763 0)
(0.67625 0.00145624 0)
(0.673016 0.0011332 0)
(0.669632 0.000723334 0)
(0.667803 -6.30648e-06 0)
(0.665527 -0.000517449 0)
(0.665157 -0.00292805 0)
(1.00451 0.0349657 0)
(1.0436 0.0339685 0)
(1.05994 0.0240471 0)
(1.06224 0.0203001 0)
(1.06254 0.0178164 0)
(1.06189 0.0157604 0)
(1.05935 0.0143199 0)
(1.05483 0.0132274 0)
(1.04865 0.0122865 0)
(1.04112 0.0114507 0)
(1.03251 0.0107084 0)
(1.02307 0.0100457 0)
(1.01304 0.00944944 0)
(1.0026 0.00891016 0)
(0.991922 0.00842084 0)
(0.98113 0.0079758 0)
(0.970327 0.00757019 0)
(0.959593 0.00719975 0)
(0.948989 0.00686073 0)
(0.93856 0.00654978 0)
(0.92834 0.00626397 0)
(0.918351 0.00600066 0)
(0.908609 0.00575754 0)
(0.899125 0.00553251 0)
(0.889904 0.0053237 0)
(0.880947 0.00512941 0)
(0.872253 0.00494809 0)
(0.86382 0.00477828 0)
(0.855645 0.00461868 0)
(0.847722 0.00446795 0)
(0.840046 0.00432486 0)
(0.832612 0.00418814 0)
(0.825416 0.00405638 0)
(0.818452 0.00392839 0)
(0.811719 0.00380207 0)
(0.805211 0.00367674 0)
(0.798932 0.00354819 0)
(0.792879 0.00341783 0)
(0.787056 0.00327582 0)
(0.781477 0.00312986 0)
(0.77613 0.00295664 0)
(0.77108 0.00277883 0)
(0.766249 0.00254608 0)
(0.76185 0.00230546 0)
(0.757608 0.00197246 0)
(0.754087 0.00158769 0)
(0.750585 0.00111544 0)
(0.748279 0.000292389 0)
(0.745861 -0.00036707 0)
(0.744827 -0.00262422 0)
(1.00412 0.0325351 0)
(1.04027 0.032915 0)
(1.05617 0.0234124 0)
(1.05888 0.0199154 0)
(1.06027 0.0176868 0)
(1.06166 0.0157621 0)
(1.06206 0.0144226 0)
(1.06119 0.013445 0)
(1.05916 0.0126198 0)
(1.05608 0.0118898 0)
(1.05202 0.0112408 0)
(1.04711 0.0106585 0)
(1.04146 0.0101299 0)
(1.0352 0.0096459 0)
(1.02844 0.00920076 0)
(1.0213 0.00879009 0)
(1.01386 0.00841039 0)
(1.00621 0.00805869 0)
(0.998428 0.00773241 0)
(0.990563 0.00742923 0)
(0.98267 0.00714711 0)
(0.97479 0.00688418 0)
(0.966955 0.00663876 0)
(0.959193 0.00640928 0)
(0.951526 0.00619432 0)
(0.943971 0.00599253 0)
(0.936541 0.00580266 0)
(0.929247 0.00562347 0)
(0.922096 0.00545383 0)
(0.915095 0.00529253 0)
(0.908248 0.00513842 0)
(0.901559 0.00499026 0)
(0.89503 0.00484668 0)
(0.888664 0.00470643 0)
(0.882465 0.00456735 0)
(0.876434 0.00442863 0)
(0.870577 0.00428586 0)
(0.864897 0.00414026 0)
(0.859402 0.00398159 0)
(0.854105 0.00381711 0)
(0.849004 0.00362323 0)
(0.844151 0.00342084 0)
(0.839495 0.0031612 0)
(0.835197 0.00288431 0)
(0.831073 0.0025149 0)
(0.827523 0.00207193 0)
(0.824094 0.00154138 0)
(0.821565 0.000640169 0)
(0.819118 -0.000158356 0)
(0.817656 -0.00228109 0)
(1.00374 0.0302008 0)
(1.03727 0.0318658 0)
(1.05284 0.0228088 0)
(1.05564 0.0195129 0)
(1.05718 0.0174959 0)
(1.05912 0.0156596 0)
(1.06058 0.0143673 0)
(1.0613 0.0134529 0)
(1.06134 0.0127009 0)
(1.06072 0.0120448 0)
(1.05945 0.0114681 0)
(1.05754 0.010955 0)
(1.05502 0.010491 0)
(1.05193 0.0100661 0)
(1.04834 0.00967371 0)
(1.0443 0.00930952 0)
(1.03987 0.00897016 0)
(1.03511 0.00865301 0)
(1.03008 0.00835593 0)
(1.02482 0.00807713 0)
(1.01939 0.00781506 0)
(1.01381 0.00756836 0)
(1.00814 0.0073358 0)
(1.00239 0.00711626 0)
(0.996601 0.0069087 0)
(0.990794 0.00671211 0)
(0.98499 0.00652554 0)
(0.979206 0.00634801 0)
(0.973457 0.0061786 0)
(0.967757 0.00601627 0)
(0.962116 0.00585999 0)
(0.956544 0.00570864 0)
(0.951052 0.00556087 0)
(0.945645 0.00541549 0)
(0.940334 0.00527025 0)
(0.935124 0.00512434 0)
(0.930026 0.00497316 0)
(0.925046 0.00481775 0)
(0.920195 0.00464772 0)
(0.915488 0.00446955 0)
(0.910928 0.00426014 0)
(0.906558 0.00403756 0)
(0.902351 0.00375652 0)
(0.898422 0.00344772 0)
(0.89466 0.003048 0)
(0.891336 0.00255337 0)
(0.888179 0.00197044 0)
(0.885678 0.00100726 0)
(0.883345 8.82508e-05 0)
(0.881691 -0.00191968 0)
(1.00337 0.0279652 0)
(1.03443 0.0308085 0)
(1.04973 0.0222302 0)
(1.05268 0.0191078 0)
(1.05418 0.0172865 0)
(1.05618 0.0155279 0)
(1.05791 0.0142574 0)
(1.05915 0.0133733 0)
(1.06 0.0126617 0)
(1.06049 0.0120485 0)
(1.06061 0.0115166 0)
(1.06034 0.0110502 0)
(1.05966 0.0106334 0)
(1.05859 0.0102551 0)
(1.05713 0.00990793 0)
(1.0553 0.00958661 0)
(1.05312 0.00928738 0)
(1.05062 0.00900734 0)
(1.04783 0.0087442 0)
(1.04478 0.00849615 0)
(1.04151 0.0082617 0)
(1.03803 0.00803961 0)
(1.03438 0.00782883 0)
(1.03058 0.00762842 0)
(1.02666 0.00743755 0)
(1.02264 0.00725541 0)
(1.01854 0.00708126 0)
(1.01438 0.00691428 0)
(1.01017 0.00675371 0)
(1.00593 0.00659865 0)
(1.00168 0.00644818 0)
(0.997418 0.00630128 0)
(0.993168 0.00615663 0)
(0.988936 0.00601308 0)
(0.984734 0.00586838 0)
(0.980572 0.00572165 0)
(0.976461 0.00556823 0)
(0.972412 0.00540889 0)
(0.968435 0.00523331 0)
(0.964548 0.00504695 0)
(0.960757 0.0048278 0)
(0.957097 0.00459035 0)
(0.953556 0.00429406 0)
(0.950217 0.00395922 0)
(0.94702 0.00353581 0)
(0.94414 0.00299839 0)
(0.941431 0.00237054 0)
(0.939178 0.00136233 0)
(0.937104 0.000346002 0)
(0.93547 -0.00156451 0)
(1.00301 0.0258319 0)
(1.03171 0.0297391 0)
(1.04674 0.0216727 0)
(1.04989 0.0186996 0)
(1.05136 0.0170653 0)
(1.05332 0.0153892 0)
(1.05509 0.0141337 0)
(1.05644 0.0132655 0)
(1.05752 0.0125765 0)
(1.05841 0.0119869 0)
(1.05909 0.0114793 0)
(1.05955 0.0110394 0)
(1.05979 0.0106513 0)
(1.05978 0.0103032 0)
(1.05953 0.00998703 0)
(1.05902 0.00969711 0)
(1.05827 0.00942909 0)
(1.05728 0.00917961 0)
(1.05605 0.00894604 0)
(1.0546 0.00872628 0)
(1.05295 0.00851866 0)
(1.0511 0.00832179 0)
(1.04908 0.00813457 0)
(1.04689 0.00795601 0)
(1.04456 0.0077853 0)
(1.0421 0.00762168 0)
(1.03952 0.00746443 0)
(1.03684 0.00731282 0)
(1.03408 0.00716613 0)
(1.03124 0.00702354 0)
(1.02834 0.00688418 0)
(1.02539 0.00674704 0)
(1.0224 0.00661083 0)
(1.01938 0.00647442 0)
(1.01634 0.0063355 0)
(1.0133 0.00619316 0)
(1.01026 0.00604266 0)
(1.00724 0.00588449 0)
(1.00424 0.00570854 0)
(1.00129 0.00551908 0)
(0.998384 0.00529559 0)
(0.99556 0.00504861 0)
(0.992814 0.00474297 0)
(0.990203 0.00438851 0)
(0.9877 0.00394785 0)
(0.985412 0.00337776 0)
(0.983272 0.00271282 0)
(0.98143 0.0016775 0)
(0.979731 0.000584926 0)
(0.978284 -0.00124121 0)
(1.00268 0.0238034 0)
(1.02911 0.0286558 0)
(1.04383 0.021136 0)
(1.0472 0.0182884 0)
(1.04867 0.0168306 0)
(1.0506 0.015246 0)
(1.05236 0.0140072 0)
(1.05372 0.0131502 0)
(1.05484 0.0124773 0)
(1.05582 0.0119024 0)
(1.05667 0.0114083 0)
(1.0574 0.0109824 0)
(1.058 0.0106099 0)
(1.05846 0.0102789 0)
(1.05878 0.00998114 0)
(1.05895 0.00971068 0)
(1.05897 0.00946296 0)
(1.05883 0.00923436 0)
(1.05854 0.00902196 0)
(1.05809 0.00882341 0)
(1.05748 0.0086368 0)
(1.05673 0.00846056 0)
(1.05584 0.00829339 0)
(1.05481 0.00813421 0)
(1.05366 0.00798208 0)
(1.05238 0.00783618 0)
(1.05099 0.00769574 0)
(1.0495 0.00756002 0)
(1.04791 0.00742825 0)
(1.04624 0.0072996 0)
(1.04449 0.00717317 0)
(1.04268 0.00704796 0)
(1.0408 0.00692262 0)
(1.03888 0.00679599 0)
(1.03691 0.00666571 0)
(1.0349 0.00653076 0)
(1.03288 0.0063864 0)
(1.03084 0.00623273 0)
(1.0288 0.00606001 0)
(1.02676 0.00587114 0)
(1.02475 0.00564742 0)
(1.02278 0.00539526 0)
(1.02085 0.00508504 0)
(1.019 0.0047169 0)
(1.01723 0.00426453 0)
(1.01559 0.00367149 0)
(1.01406 0.00297778 0)
(1.01272 0.00193035 0)
(1.01146 0.000783666 0)
(1.0103 -0.000967143 0)
(1.00238 0.0218815 0)
(1.02664 0.027558 0)
(1.041 0.0206197 0)
(1.04459 0.0178756 0)
(1.04608 0.0165812 0)
(1.04798 0.0150969 0)
(1.04974 0.0138792 0)
(1.0511 0.0130324 0)
(1.0522 0.012374 0)
(1.05318 0.0118112 0)
(1.05407 0.0113263 0)
(1.05486 0.0109089 0)
(1.05557 0.0105452 0)
(1.0562 0.0102236 0)
(1.05674 0.00993591 0)
(1.0572 0.00967635 0)
(1.05757 0.00944033 0)
(1.05785 0.00922417 0)
(1.05803 0.00902486 0)
(1.05812 0.00883992 0)
(1.0581 0.0086673 0)
(1.05799 0.00850528 0)
(1.05778 0.00835245 0)
(1.05748 0.00820758 0)
(1.05708 0.00806964 0)
(1.05659 0.00793771 0)
(1.05602 0.00781094 0)
(1.05536 0.00768851 0)
(1.05462 0.00756959 0)
(1.05381 0.00745332 0)
(1.05293 0.00733869 0)
(1.05198 0.00722469 0)
(1.05098 0.00710986 0)
(1.04992 0.00699303 0)
(1.04881 0.0068717 0)
(1.04767 0.00674477 0)
(1.04649 0.00660749 0)
(1.04529 0.00645951 0)
(1.04407 0.00629158 0)
(1.04284 0.00610513 0)
(1.04161 0.00588344 0)
(1.0404 0.00562888 0)
(1.03921 0.00531715 0)
(1.03807 0.00493996 0)
(1.03697 0.00447992 0)
(1.03596 0.0038723 0)
(1.03502 0.00315732 0)
(1.03417 0.00210982 0)
(1.03335 0.000929594 0)
(1.03253 -0.000752876 0)
(1.0021 0.0200671 0)
(1.02431 0.0264475 0)
(1.03827 0.0201215 0)
(1.04207 0.0174633 0)
(1.04358 0.0163171 0)
(1.04545 0.0149406 0)
(1.04721 0.013749 0)
(1.04856 0.0129125 0)
(1.04966 0.0122686 0)
(1.05062 0.0117178 0)
(1.0515 0.0112412 0)
(1.0523 0.0108303 0)
(1.05303 0.0104727 0)
(1.0537 0.010157 0)
(1.05431 0.0098753 0)
(1.05486 0.00962192 0)
(1.05536 0.00939243 0)
(1.0558 0.00918323 0)
(1.05619 0.00899132 0)
(1.05652 0.00881423 0)
(1.05679 0.00864987 0)
(1.057 0.00849647 0)
(1.05715 0.00835255 0)
(1.05724 0.00821682 0)
(1.05728 0.00808819 0)
(1.05725 0.00796565 0)
(1.05716 0.00784832 0)
(1.05702 0.00773529 0)
(1.05682 0.0076257 0)
(1.05656 0.0075186 0)
(1.05626 0.00741294 0)
(1.0559 0.00730763 0)
(1.0555 0.00720115 0)
(1.05506 0.00709223 0)
(1.05457 0.00697831 0)
(1.05406 0.00685814 0)
(1.05351 0.00672701 0)
(1.05294 0.00658408 0)
(1.05235 0.00642068 0)
(1.05175 0.00623673 0)
(1.05114 0.00601753 0)
(1.05054 0.00576172 0)
(1.04996 0.00544972 0)
(1.04939 0.00506653 0)
(1.04886 0.00460123 0)
(1.04837 0.00398535 0)
(1.04793 0.00325532 0)
(1.04751 0.00221643 0)
(1.04708 0.00101992 0)
(1.04658 -0.00059994 0)
(1.00185 0.0183605 0)
(1.02211 0.0253283 0)
(1.03564 0.0196379 0)
(1.03963 0.0170531 0)
(1.04117 0.016039 0)
(1.04301 0.0147761 0)
(1.04476 0.0136162 0)
(1.04612 0.0127903 0)
(1.04721 0.0121608 0)
(1.04816 0.0116227 0)
(1.04902 0.0111546 0)
(1.04981 0.0107501 0)
(1.05053 0.0103978 0)
(1.0512 0.0100869 0)
(1.05181 0.00980953 0)
(1.05239 0.0095603 0)
(1.05292 0.0093349 0)
(1.05341 0.00912982 0)
(1.05387 0.00894217 0)
(1.05429 0.0087695 0)
(1.05468 0.00860976 0)
(1.05503 0.0084612 0)
(1.05534 0.00832231 0)
(1.05561 0.0081918 0)
(1.05586 0.00806855 0)
(1.05606 0.00795155 0)
(1.05623 0.00783986 0)
(1.05636 0.00773257 0)
(1.05646 0.00762876 0)
(1.05653 0.00752745 0)
(1.05656 0.00742753 0)
(1.05656 0.00732787 0)
(1.05653 0.00722688 0)
(1.05648 0.00712323 0)
(1.05639 0.00701431 0)
(1.05629 0.00689867 0)
(1.05616 0.00677174 0)
(1.05602 0.00663213 0)
(1.05586 0.00647181 0)
(1.0557 0.00628927 0)
(1.05553 0.00607172 0)
(1.05537 0.00581455 0)
(1.05522 0.00550213 0)
(1.05508 0.00511453 0)
(1.05497 0.00464498 0)
(1.05487 0.00402509 0)
(1.0548 0.00328487 0)
(1.05473 0.00225998 0)
(1.0546 0.00106066 0)
(1.05435 -0.000501595 0)
(1.00162 0.0167613 0)
(1.02004 0.0242048 0)
(1.03311 0.0191646 0)
(1.03728 0.0166467 0)
(1.03885 0.0157478 0)
(1.04065 0.0146029 0)
(1.0424 0.0134805 0)
(1.04377 0.0126658 0)
(1.04484 0.0120507 0)
(1.04578 0.0115259 0)
(1.04664 0.0110668 0)
(1.04741 0.0106687 0)
(1.04812 0.0103218 0)
(1.04877 0.0100154 0)
(1.04938 0.00974209 0)
(1.04995 0.00949637 0)
(1.05048 0.00927415 0)
(1.05098 0.00907205 0)
(1.05145 0.00888724 0)
(1.0519 0.00871736 0)
(1.05232 0.00856038 0)
(1.05271 0.00841459 0)
(1.05308 0.0082785 0)
(1.05343 0.00815083 0)
(1.05376 0.00803046 0)
(1.05406 0.00791639 0)
(1.05435 0.00780769 0)
(1.05461 0.00770343 0)
(1.05485 0.00760267 0)
(1.05508 0.00750444 0)
(1.05529 0.00740758 0)
(1.05548 0.00731093 0)
(1.05565 0.00721285 0)
(1.05581 0.00711196 0)
(1.05595 0.00700562 0)
(1.05608 0.00689222 0)
(1.0562 0.00676731 0)
(1.05632 0.00662902 0)
(1.05643 0.00646994 0)
(1.05654 0.00628727 0)
(1.05665 0.00606989 0)
(1.05677 0.00581062 0)
(1.0569 0.00549683 0)
(1.05704 0.00510544 0)
(1.0572 0.0046318 0)
(1.05737 0.00401047 0)
(1.05755 0.00326378 0)
(1.0577 0.00225566 0)
(1.05777 0.00106342 0)
(1.05771 -0.00044571 0)
(1.00142 0.0152689 0)
(1.01812 0.0230809 0)
(1.03068 0.0186976 0)
(1.03502 0.0162456 0)
(1.03662 0.015445 0)
(1.03839 0.0144203 0)
(1.04013 0.0133415 0)
(1.0415 0.0125388 0)
(1.04257 0.0119379 0)
(1.0435 0.0114271 0)
(1.04434 0.0109776 0)
(1.0451 0.0105863 0)
(1.0458 0.0102449 0)
(1.04644 0.00994323 0)
(1.04704 0.00967387 0)
(1.0476 0.00943157 0)
(1.04812 0.00921232 0)
(1.04861 0.00901285 0)
(1.04908 0.00883042 0)
(1.04952 0.0086627 0)
(1.04994 0.00850771 0)
(1.05034 0.00836377 0)
(1.05073 0.00822942 0)
(1.05109 0.00810339 0)
(1.05145 0.00798459 0)
(1.05178 0.00787202 0)
(1.05211 0.00776476 0)
(1.05242 0.0076619 0)
(1.05273 0.00756249 0)
(1.05302 0.00746557 0)
(1.0533 0.00736994 0)
(1.05358 0.00727445 0)
(1.05384 0.00717741 0)
(1.05411 0.00707739 0)
(1.05436 0.00697177 0)
(1.05461 0.00685875 0)
(1.05486 0.00673408 0)
(1.05511 0.00659539 0)
(1.05537 0.00643588 0)
(1.05563 0.00625163 0)
(1.05589 0.00603298 0)
(1.05617 0.00577074 0)
(1.05646 0.00545447 0)
(1.05676 0.00505944 0)
(1.05708 0.00458158 0)
(1.0574 0.00396028 0)
(1.05772 0.00320998 0)
(1.058 0.00221981 0)
(1.0582 0.00104159 0)
(1.05824 -0.000418348 0)
(1.00124 0.0138818 0)
(1.01633 0.0219607 0)
(1.02837 0.0182334 0)
(1.03284 0.0158508 0)
(1.03449 0.0151321 0)
(1.03622 0.0142278 0)
(1.03795 0.013199 0)
(1.03932 0.0124095 0)
(1.04039 0.0118226 0)
(1.04131 0.0113261 0)
(1.04214 0.0108869 0)
(1.04289 0.0105027 0)
(1.04358 0.010167 0)
(1.04421 0.00987023 0)
(1.04479 0.009605 0)
(1.04534 0.00936619 0)
(1.04585 0.00914994 0)
(1.04633 0.00895309 0)
(1.04679 0.00877293 0)
(1.04722 0.00860721 0)
(1.04763 0.00845398 0)
(1.04803 0.00831157 0)
(1.04841 0.00817855 0)
(1.04877 0.00805367 0)
(1.04913 0.00793586 0)
(1.04947 0.00782413 0)
(1.04981 0.00771756 0)
(1.05013 0.00761528 0)
(1.05045 0.00751633 0)
(1.05077 0.00741974 0)
(1.05107 0.00732432 0)
(1.05138 0.00722889 0)
(1.05168 0.00713177 0)
(1.05198 0.00703145 0)
(1.05229 0.00692535 0)
(1.05259 0.0068115 0)
(1.0529 0.00668583 0)
(1.05321 0.00654555 0)
(1.05353 0.00638442 0)
(1.05385 0.00619758 0)
(1.05419 0.00597653 0)
(1.05455 0.0057107 0)
(1.05491 0.00539107 0)
(1.05529 0.0049925 0)
(1.05569 0.0045104 0)
(1.05608 0.00389006 0)
(1.05647 0.00313862 0)
(1.0568 0.00216667 0)
(1.05704 0.00100733 0)
(1.05713 -0.000406422 0)
(1.00107 0.012598 0)
(1.01467 0.0208482 0)
(1.02616 0.0177683 0)
(1.03075 0.0154635 0)
(1.03246 0.014811 0)
(1.03414 0.0140249 0)
(1.03586 0.0130522 0)
(1.03723 0.0122779 0)
(1.0383 0.0117045 0)
(1.03921 0.0112228 0)
(1.04003 0.0107946 0)
(1.04077 0.0104179 0)
(1.04144 0.0100881 0)
(1.04206 0.00979636 0)
(1.04264 0.00953541 0)
(1.04317 0.00930023 0)
(1.04367 0.00908709 0)
(1.04414 0.0088929 0)
(1.04459 0.00871506 0)
(1.04501 0.00855135 0)
(1.04542 0.00839984 0)
(1.0458 0.0082589 0)
(1.04617 0.0081271 0)
(1.04653 0.00800323 0)
(1.04688 0.0078862 0)
(1.04722 0.00777505 0)
(1.04755 0.0076689 0)
(1.04787 0.00756684 0)
(1.04819 0.00746795 0)
(1.0485 0.00737125 0)
(1.04882 0.00727555 0)
(1.04913 0.00717964 0)
(1.04944 0.00708185 0)
(1.04975 0.00698061 0)
(1.05006 0.00687338 0)
(1.05038 0.00675804 0)
(1.05071 0.00663069 0)
(1.05104 0.00648815 0)
(1.05138 0.00632468 0)
(1.05173 0.0061347 0)
(1.0521 0.00591057 0)
(1.05248 0.00564088 0)
(1.05287 0.00531741 0)
(1.05328 0.00491553 0)
(1.05369 0.00442952 0)
(1.05411 0.00381086 0)
(1.0545 0.00306059 0)
(1.05485 0.00210688 0)
(1.0551 0.000969815 0)
(1.05518 -0.000399767 0)
(1.00093 0.0114148 0)
(1.01314 0.0197476 0)
(1.02406 0.0172994 0)
(1.02875 0.015084 0)
(1.03051 0.0144837 0)
(1.03216 0.0138113 0)
(1.03385 0.0129008 0)
(1.03523 0.0121439 0)
(1.0363 0.0115839 0)
(1.0372 0.0111172 0)
(1.03801 0.0107005 0)
(1.03874 0.0103317 0)
(1.03941 0.010008 0)
(1.04002 0.00972154 0)
(1.04058 0.00946505 0)
(1.0411 0.00923363 0)
(1.04159 0.0090237 0)
(1.04205 0.00883228 0)
(1.04249 0.00865684 0)
(1.0429 0.00849518 0)
(1.04329 0.00834544 0)
(1.04367 0.00820598 0)
(1.04403 0.00807541 0)
(1.04438 0.00795252 0)
(1.04472 0.00783623 0)
(1.04505 0.00772561 0)
(1.04537 0.00761976 0)
(1.04569 0.00751782 0)
(1.046 0.00741884 0)
(1.04631 0.00732186 0)
(1.04662 0.00722568 0)
(1.04692 0.00712908 0)
(1.04723 0.00703038 0)
(1.04754 0.00692795 0)
(1.04785 0.0068193 0)
(1.04817 0.00670216 0)
(1.04849 0.0065728 0)
(1.04883 0.00642773 0)
(1.04917 0.00626159 0)
(1.04952 0.00606829 0)
(1.04989 0.00584079 0)
(1.05027 0.00556729 0)
(1.05066 0.0052399 0)
(1.05107 0.00483513 0)
(1.05148 0.00434587 0)
(1.05188 0.00372966 0)
(1.05227 0.00298274 0)
(1.05259 0.00204745 0)
(1.05282 0.000935195 0)
(1.05288 -0.000391494 0)
(1.0008 0.010329 0)
(1.01174 0.0186628 0)
(1.02208 0.0168238 0)
(1.02684 0.0147127 0)
(1.02866 0.0141522 0)
(1.03027 0.013587 0)
(1.03194 0.012744 0)
(1.03332 0.0120076 0)
(1.03439 0.0114605 0)
(1.03528 0.0110089 0)
(1.03608 0.0106044 0)
(1.0368 0.0102441 0)
(1.03746 0.0099268 0)
(1.03806 0.0096457 0)
(1.03861 0.00939382 0)
(1.03913 0.00916632 0)
(1.03961 0.00895972 0)
(1.04006 0.00877117 0)
(1.04048 0.0085982 0)
(1.04089 0.00843868 0)
(1.04127 0.00829076 0)
(1.04164 0.00815284 0)
(1.04199 0.00802353 0)
(1.04233 0.00790163 0)
(1.04266 0.0077861 0)
(1.04298 0.007676 0)
(1.0433 0.00757046 0)
(1.0436 0.0074686 0)
(1.04391 0.00736951 0)
(1.04421 0.0072722 0)
(1.04451 0.00717549 0)
(1.04481 0.00707812 0)
(1.04511 0.00697843 0)
(1.04541 0.00687472 0)
(1.04571 0.00676456 0)
(1.04602 0.00664554 0)
(1.04634 0.00651407 0)
(1.04667 0.00636642 0)
(1.047 0.00619751 0)
(1.04735 0.00600094 0)
(1.0477 0.00577005 0)
(1.04807 0.005493 0)
(1.04846 0.00516193 0)
(1.04884 0.00475483 0)
(1.04924 0.00426329 0)
(1.04962 0.00365036 0)
(1.04997 0.00290895 0)
(1.05026 0.00199243 0)
(1.05045 0.00090701 0)
(1.05048 -0.000377209 0)
(1.00069 0.00933684 0)
(1.01046 0.0175982 0)
(1.02021 0.0163394 0)
(1.02501 0.0143496 0)
(1.0269 0.0138185 0)
(1.02847 0.0133522 0)
(1.03011 0.0125812 0)
(1.03149 0.0118688 0)
(1.03256 0.0113346 0)
(1.03345 0.010898 0)
(1.03424 0.0105063 0)
(1.03496 0.0101549 0)
(1.0356 0.00984425 0)
(1.0362 0.00956874 0)
(1.03674 0.00932166 0)
(1.03725 0.00909822 0)
(1.03772 0.00889508 0)
(1.03816 0.0087095 0)
(1.03858 0.0085391 0)
(1.03897 0.00838179 0)
(1.03935 0.00823576 0)
(1.0397 0.00809942 0)
(1.04005 0.00797142 0)
(1.04038 0.00785056 0)
(1.0407 0.00773581 0)
(1.04101 0.00762625 0)
(1.04132 0.00752103 0)
(1.04162 0.00741927 0)
(1.04191 0.00732007 0)
(1.0422 0.00722244 0)
(1.0425 0.00712519 0)
(1.04279 0.00702705 0)
(1.04308 0.00692636 0)
(1.04337 0.00682137 0)
(1.04367 0.0067097 0)
(1.04397 0.00658881 0)
(1.04428 0.00645525 0)
(1.04459 0.00630508 0)
(1.04492 0.00613346 0)
(1.04525 0.0059338 0)
(1.04559 0.00569967 0)
(1.04595 0.00541945 0)
(1.04631 0.00508514 0)
(1.04668 0.0046764 0)
(1.04705 0.00418369 0)
(1.0474 0.00357502 0)
(1.04772 0.00284115 0)
(1.04797 0.00194405 0)
(1.04812 0.000887082 0)
(1.0481 -0.000354467 0)
(1.0006 0.00843391 0)
(1.0093 0.0165576 0)
(1.01845 0.0158444 0)
(1.02326 0.0139943 0)
(1.02523 0.0134844 0)
(1.02677 0.0131073 0)
(1.02837 0.0124119 0)
(1.02975 0.0117272 0)
(1.03082 0.0112061 0)
(1.03171 0.0107843 0)
(1.03249 0.010406 0)
(1.0332 0.010064 0)
(1.03384 0.00976031 0)
(1.03442 0.00949057 0)
(1.03496 0.00924845 0)
(1.03546 0.00902925 0)
(1.03592 0.0088297 0)
(1.03635 0.0086472 0)
(1.03676 0.00847946 0)
(1.03715 0.00832444 0)
(1.03751 0.00818036 0)
(1.03786 0.00804567 0)
(1.0382 0.00791902 0)
(1.03852 0.00779924 0)
(1.03884 0.00768531 0)
(1.03914 0.00757633 0)
(1.03944 0.00747145 0)
(1.03973 0.00736981 0)
(1.04002 0.00727052 0)
(1.0403 0.00717258 0)
(1.04058 0.00707481 0)
(1.04087 0.00697593 0)
(1.04115 0.00687427 0)
(1.04143 0.00676804 0)
(1.04172 0.00665489 0)
(1.04201 0.0065322 0)
(1.04231 0.0063966 0)
(1.04261 0.00624404 0)
(1.04293 0.00606983 0)
(1.04325 0.00586733 0)
(1.04358 0.00563023 0)
(1.04391 0.00534729 0)
(1.04426 0.00501032 0)
(1.0446 0.00460067 0)
(1.04494 0.00410803 0)
(1.04526 0.00350465 0)
(1.04555 0.00278025 0)
(1.04575 0.00190344 0)
(1.04586 0.000876311 0)
(1.0458 -0.00032196 0)
(1.00051 0.00761547 0)
(1.00825 0.0155449 0)
(1.0168 0.0153373 0)
(1.0216 0.0136462 0)
(1.02364 0.0131517 0)
(1.02515 0.0128531 0)
(1.02672 0.0122356 0)
(1.02809 0.0115827 0)
(1.02917 0.011075 0)
(1.03005 0.0106678 0)
(1.03082 0.0103032 0)
(1.03152 0.00997124 0)
(1.03216 0.00967485 0)
(1.03274 0.00941109 0)
(1.03326 0.00917412 0)