/*--------------------------------*- C++ -*----------------------------------*\
  =========                 |
  \\      /  F ield         | OpenFOAM: The Open Source CFD Toolbox
   \\    /   O peration     | Website:  https://openfoam.org
    \\  /    A nd           | Version:  7
     \\/     M anipulation  |
\*---------------------------------------------------------------------------*/
FoamFile
{
    version     2.0;
    format      ascii;
    class       volVectorField;
    location    "0.18";
    object      vorticity;
}
// * * * * * * * * * * * * * * * * * * * * * * * * * * * * * * * * * * * * * //

dimensions      [0 0 -1 0 0 0 0];

internalField   nonuniform List<vector> 
70000
(
(0 -0 -45716.1)
(0 -0 -28618.1)
(0 -0 -20914.5)
(0 -0 -16982)
(0 -0 -14961.4)
(0 -0 -13655)
(0 -0 -12645.9)
(0 -0 -11833.6)
(0 -0 -11169.9)
(0 -0 -10615.8)
(0 -0 -10143.5)
(0 -0 -9734.42)
(0 -0 -9375.59)
(0 -0 -9057.64)
(0 -0 -8773.46)
(0 -0 -8517.57)
(0 -0 -8285.66)
(0 -0 -8074.27)
(0 -0 -7880.62)
(0 -0 -7702.42)
(0 -0 -7537.81)
(0 -0 -7385.2)
(0 -0 -7243.27)
(0 -0 -7110.92)
(0 -0 -6987.18)
(0 -0 -6871.26)
(0 -0 -6762.45)
(0 -0 -6660.16)
(0 -0 -6563.9)
(0 -0 -6473.22)
(0 -0 -6387.78)
(0 -0 -6307.26)
(0 -0 -6231.46)
(0 -0 -6160.16)
(0 -0 -6093.3)
(0 -0 -6030.77)
(0 -0 -5972.63)
(0 -0 -5919.05)
(0 -0 -5869.92)
(0 -0 -5826.32)
(0 -0 -5786.93)
(0 -0 -5755.92)
(0 -0 -5727.17)
(0 -0 -5714.52)
(0 -0 -5696.54)
(0 -0 -5714.84)
(0 -0 -5705.08)
(0 -0 -5778.51)
(0 -0 -5799.55)
(0 -0 -5697.79)
(0 -0 -13549.6)
(0 -0 -19947.4)
(0 -0 -18536.6)
(0 -0 -16250.6)
(0 -0 -14505.3)
(0 -0 -13281.8)
(0 -0 -12354.1)
(0 -0 -11604.3)
(0 -0 -10982)
(0 -0 -10456.7)
(0 -0 -10005.9)
(0 -0 -9613.6)
(0 -0 -9268.09)
(0 -0 -8960.87)
(0 -0 -8685.45)
(0 -0 -8436.77)
(0 -0 -8210.85)
(0 -0 -8004.48)
(0 -0 -7815.03)
(0 -0 -7640.37)
(0 -0 -7478.7)
(0 -0 -7328.55)
(0 -0 -7188.64)
(0 -0 -7057.91)
(0 -0 -6935.43)
(0 -0 -6820.42)
(0 -0 -6712.2)
(0 -0 -6610.17)
(0 -0 -6513.83)
(0 -0 -6422.74)
(0 -0 -6336.52)
(0 -0 -6254.83)
(0 -0 -6177.42)
(0 -0 -6104.03)
(0 -0 -6034.53)
(0 -0 -5968.75)
(0 -0 -5906.64)
(0 -0 -5848.23)
(0 -0 -5793.34)
(0 -0 -5742.69)
(0 -0 -5695.16)
(0 -0 -5653.79)
(0 -0 -5613.84)
(0 -0 -5585.51)
(0 -0 -5552.79)
(0 -0 -5545.8)
(0 -0 -5518.82)
(0 -0 -5547.51)
(0 -0 -5541.04)
(0 -0 -5664.21)
(0 -0 -3818.75)
(0 -0 -10828.7)
(0 -0 -13363.2)
(0 -0 -13519.6)
(0 -0 -12866.6)
(0 -0 -12140.9)
(0 -0 -11499.7)
(0 -0 -10939.7)
(0 -0 -10448.1)
(0 -0 -10015.7)
(0 -0 -9633.63)
(0 -0 -9293.85)
(0 -0 -8989.58)
(0 -0 -8715.37)
(0 -0 -8466.8)
(0 -0 -8240.29)
(0 -0 -8032.87)
(0 -0 -7842.12)
(0 -0 -7665.98)
(0 -0 -7502.73)
(0 -0 -7350.93)
(0 -0 -7209.33)
(0 -0 -7076.88)
(0 -0 -6952.66)
(0 -0 -6835.89)
(0 -0 -6725.86)
(0 -0 -6621.98)
(0 -0 -6523.73)
(0 -0 -6430.63)
(0 -0 -6342.29)
(0 -0 -6258.33)
(0 -0 -6178.45)
(0 -0 -6102.38)
(0 -0 -6029.86)
(0 -0 -5960.72)
(0 -0 -5894.75)
(0 -0 -5831.86)
(0 -0 -5771.97)
(0 -0 -5714.9)
(0 -0 -5661.01)
(0 -0 -5609.52)
(0 -0 -5562.23)
(0 -0 -5516.19)
(0 -0 -5477.35)
(0 -0 -5436.43)
(0 -0 -5410.14)
(0 -0 -5374.23)
(0 -0 -5366.95)
(0 -0 -5340.63)
(0 -0 -5445.39)
(0 -0 -533.092)
(0 -0 -4662.53)
(0 -0 -7718.06)
(0 -0 -9327.96)
(0 -0 -9891.84)
(0 -0 -9957.5)
(0 -0 -9826.25)
(0 -0 -9614.79)
(0 -0 -9371.87)
(0 -0 -9122.1)
(0 -0 -8877.89)
(0 -0 -8644.79)
(0 -0 -8424.9)
(0 -0 -8218.65)
(0 -0 -8025.68)
(0 -0 -7845.28)
(0 -0 -7676.57)
(0 -0 -7518.63)
(0 -0 -7370.59)
(0 -0 -7231.6)
(0 -0 -7100.9)
(0 -0 -6977.77)
(0 -0 -6861.58)
(0 -0 -6751.76)
(0 -0 -6647.78)
(0 -0 -6549.18)
(0 -0 -6455.54)
(0 -0 -6366.47)
(0 -0 -6281.63)
(0 -0 -6200.72)
(0 -0 -6123.46)
(0 -0 -6049.58)
(0 -0 -5978.88)
(0 -0 -5911.14)
(0 -0 -5846.2)
(0 -0 -5783.87)
(0 -0 -5724.04)
(0 -0 -5666.59)
(0 -0 -5611.39)
(0 -0 -5558.5)
(0 -0 -5507.61)
(0 -0 -5459.26)
(0 -0 -5412.51)
(0 -0 -5369.1)
(0 -0 -5326.65)
(0 -0 -5288.87)
(0 -0 -5252.36)
(0 -0 -5220.19)
(0 -0 -5195.66)
(0 -0 -5207.62)
(0 -0 322.401)
(0 -0 -1444.51)
(0 -0 -3532.29)
(0 -0 -5258.5)
(0 -0 -6398.3)
(0 -0 -7073.04)
(0 -0 -7450.71)
(0 -0 -7641.71)
(0 -0 -7714.21)
(0 -0 -7712.38)
(0 -0 -7664.74)
(0 -0 -7589.33)
(0 -0 -7497.55)
(0 -0 -7396.66)
(0 -0 -7291.35)
(0 -0 -7184.64)
(0 -0 -7078.48)
(0 -0 -6974.12)
(0 -0 -6872.32)
(0 -0 -6773.55)
(0 -0 -6678.06)
(0 -0 -6585.96)
(0 -0 -6497.26)
(0 -0 -6411.93)
(0 -0 -6329.86)
(0 -0 -6250.96)
(0 -0 -6175.09)
(0 -0 -6102.12)
(0 -0 -6031.91)
(0 -0 -5964.33)
(0 -0 -5899.25)
(0 -0 -5836.53)
(0 -0 -5776.06)
(0 -0 -5717.7)
(0 -0 -5661.37)
(0 -0 -5606.94)
(0 -0 -5554.34)
(0 -0 -5503.44)
(0 -0 -5454.23)
(0 -0 -5406.52)
(0 -0 -5360.48)
(0 -0 -5315.62)
(0 -0 -5272.77)
(0 -0 -5230.25)
(0 -0 -5191.34)
(0 -0 -5149.64)
(0 -0 -5117.87)
(0 -0 -5072.04)
(0 -0 -5058.66)
(0 -0 -5011.01)
(0 -0 364.677)
(0 -0 -158.583)
(0 -0 -1181.39)
(0 -0 -2361.53)
(0 -0 -3416.6)
(0 -0 -4254.89)
(0 -0 -4889.89)
(0 -0 -5355.52)
(0 -0 -5686.86)
(0 -0 -5915.87)
(0 -0 -6068.79)
(0 -0 -6165.7)
(0 -0 -6221.48)
(0 -0 -6247.08)
(0 -0 -6250.53)
(0 -0 -6237.76)
(0 -0 -6213.13)
(0 -0 -6179.9)
(0 -0 -6140.5)
(0 -0 -6096.73)
(0 -0 -6049.98)
(0 -0 -6001.26)
(0 -0 -5951.35)
(0 -0 -5900.85)
(0 -0 -5850.19)
(0 -0 -5799.72)
(0 -0 -5749.67)
(0 -0 -5700.23)
(0 -0 -5651.54)
(0 -0 -5603.69)
(0 -0 -5556.75)
(0 -0 -5510.75)
(0 -0 -5465.73)
(0 -0 -5421.69)
(0 -0 -5378.64)
(0 -0 -5336.54)
(0 -0 -5295.41)
(0 -0 -5255.16)
(0 -0 -5215.89)
(0 -0 -5177.31)
(0 -0 -5139.91)
(0 -0 -5102.61)
(0 -0 -5067.34)
(0 -0 -5030.4)
(0 -0 -4998.4)
(0 -0 -4959.27)
(0 -0 -4934.45)
(0 -0 -4886.21)
(0 -0 -4879.69)
(0 -0 -4818.24)
(0 -0 254.004)
(0 -0 185.262)
(0 -0 -173.271)
(0 -0 -764.428)
(0 -0 -1447.07)
(0 -0 -2114.42)
(0 -0 -2719.26)
(0 -0 -3242.22)
(0 -0 -3679.19)
(0 -0 -4035.94)
(0 -0 -4322.71)
(0 -0 -4550.59)
(0 -0 -4729.86)
(0 -0 -4869.46)
(0 -0 -4976.87)
(0 -0 -5058.26)
(0 -0 -5118.64)
(0 -0 -5162.05)
(0 -0 -5191.74)
(0 -0 -5210.34)
(0 -0 -5219.98)
(0 -0 -5222.35)
(0 -0 -5218.84)
(0 -0 -5210.58)
(0 -0 -5198.47)
(0 -0 -5183.26)
(0 -0 -5165.56)
(0 -0 -5145.86)
(0 -0 -5124.58)
(0 -0 -5102.05)
(0 -0 -5078.54)
(0 -0 -5054.29)
(0 -0 -5029.49)
(0 -0 -5004.28)
(0 -0 -4978.79)
(0 -0 -4953.11)
(0 -0 -4927.35)
(0 -0 -4901.5)
(0 -0 -4875.75)
(0 -0 -4849.8)
(0 -0 -4824.32)
(0 -0 -4798.06)
(0 -0 -4773.31)
(0 -0 -4745.79)
(0 -0 -4723.03)
(0 -0 -4691.57)
(0 -0 -4674.35)
(0 -0 -4632.64)
(0 -0 -4628.11)
(0 -0 -4574.74)
(0 -0 178.731)
(0 -0 204.473)
(0 -0 130.631)
(0 -0 -85.1409)
(0 -0 -417.584)
(0 -0 -814.261)
(0 -0 -1235.39)
(0 -0 -1652.17)
(0 -0 -2044.8)
(0 -0 -2402.32)
(0 -0 -2720.49)
(0 -0 -2999.2)
(0 -0 -3240.62)
(0 -0 -3448.02)
(0 -0 -3625.12)
(0 -0 -3775.62)
(0 -0 -3903)
(0 -0 -4010.42)
(0 -0 -4100.67)
(0 -0 -4176.19)
(0 -0 -4239.08)
(0 -0 -4291.15)
(0 -0 -4333.95)
(0 -0 -4368.81)
(0 -0 -4396.83)
(0 -0 -4419)
(0 -0 -4436.12)
(0 -0 -4448.89)
(0 -0 -4457.92)
(0 -0 -4463.71)
(0 -0 -4466.69)
(0 -0 -4467.26)
(0 -0 -4465.71)
(0 -0 -4462.35)
(0 -0 -4457.39)
(0 -0 -4451.03)
(0 -0 -4443.46)
(0 -0 -4434.78)
(0 -0 -4425.2)
(0 -0 -4414.56)
(0 -0 -4403.47)
(0 -0 -4390.86)
(0 -0 -4378.84)
(0 -0 -4363.53)
(0 -0 -4351.74)
(0 -0 -4331.4)
(0 -0 -4322.49)
(0 -0 -4292.28)
(0 -0 -4289.44)
(0 -0 -4249.48)
(0 -0 148.002)
(0 -0 164.586)
(0 -0 169.952)
(0 -0 120.962)
(0 -0 1.12666)
(0 -0 -180.445)
(0 -0 -408.402)
(0 -0 -666.449)
(0 -0 -938.814)
(0 -0 -1212.62)
(0 -0 -1478.68)
(0 -0 -1730.99)
(0 -0 -1966.03)
(0 -0 -2182.13)
(0 -0 -2378.85)
(0 -0 -2556.64)
(0 -0 -2716.44)
(0 -0 -2859.49)
(0 -0 -2987.13)
(0 -0 -3100.76)
(0 -0 -3201.72)
(0 -0 -3291.31)
(0 -0 -3370.7)
(0 -0 -3440.97)
(0 -0 -3503.11)
(0 -0 -3557.99)
(0 -0 -3606.39)
(0 -0 -3649.02)
(0 -0 -3686.49)
(0 -0 -3719.36)
(0 -0 -3748.1)
(0 -0 -3773.16)
(0 -0 -3794.9)
(0 -0 -3813.68)
(0 -0 -3829.76)
(0 -0 -3843.43)
(0 -0 -3854.88)
(0 -0 -3864.32)
(0 -0 -3871.95)
(0 -0 -3877.74)
(0 -0 -3882.16)
(0 -0 -3884.48)
(0 -0 -3886.33)
(0 -0 -3884.66)
(0 -0 -3884.89)
(0 -0 -3877.37)
(0 -0 -3877.71)
(0 -0 -3860.76)
(0 -0 -3861.67)
(0 -0 -3835.33)
(0 -0 136.807)
(0 -0 137.052)
(0 -0 148.708)
(0 -0 149.645)
(0 -0 122.185)
(0 -0 60.1918)
(0 -0 -36.1507)
(0 -0 -163.208)
(0 -0 -314.664)
(0 -0 -483.251)
(0 -0 -662.09)
(0 -0 -845.298)
(0 -0 -1028.15)
(0 -0 -1207.07)
(0 -0 -1379.51)
(0 -0 -1543.74)
(0 -0 -1698.75)
(0 -0 -1844.01)
(0 -0 -1979.4)
(0 -0 -2105.02)
(0 -0 -2221.21)
(0 -0 -2328.39)
(0 -0 -2427.07)
(0 -0 -2517.78)
(0 -0 -2601.07)
(0 -0 -2677.49)
(0 -0 -2747.55)
(0 -0 -2811.76)
(0 -0 -2870.58)
(0 -0 -2924.45)
(0 -0 -2973.75)
(0 -0 -3018.87)
(0 -0 -3060.13)
(0 -0 -3097.85)
(0 -0 -3132.29)
(0 -0 -3163.73)
(0 -0 -3192.34)
(0 -0 -3218.36)
(0 -0 -3241.93)
(0 -0 -3263.14)
(0 -0 -3282.3)
(0 -0 -3298.94)
(0 -0 -3314.25)
(0 -0 -3325.96)
(0 -0 -3338.12)
(0 -0 -3343.39)
(0 -0 -3353.31)
(0 -0 -3349.44)
(0 -0 -3355.91)
(0 -0 -3342.38)
(0 -0 129.926)
(0 -0 123.979)
(0 -0 129.159)
(0 -0 136.352)
(0 -0 136.44)
(0 -0 123.197)
(0 -0 92.985)
(0 -0 43.9491)
(0 -0 -23.7626)
(0 -0 -108.344)
(0 -0 -207.054)
(0 -0 -316.784)
(0 -0 -434.417)
(0 -0 -557.067)
(0 -0 -682.211)
(0 -0 -807.743)
(0 -0 -931.967)
(0 -0 -1053.57)
(0 -0 -1171.57)
(0 -0 -1285.27)
(0 -0 -1394.2)
(0 -0 -1498.07)
(0 -0 -1596.76)
(0 -0 -1690.24)
(0 -0 -1778.58)
(0 -0 -1861.89)
(0 -0 -1940.33)
(0 -0 -2014.11)
(0 -0 -2083.43)
(0 -0 -2148.51)
(0 -0 -2209.56)
(0 -0 -2266.82)
(0 -0 -2320.46)
(0 -0 -2370.73)
(0 -0 -2417.77)
(0 -0 -2461.8)
(0 -0 -2502.94)
(0 -0 -2541.37)
(0 -0 -2577.18)
(0 -0 -2610.47)
(0 -0 -2641.43)
(0 -0 -2669.73)
(0 -0 -2696.22)
(0 -0 -2719.19)
(0 -0 -2741.61)
(0 -0 -2757.99)
(0 -0 -2776.57)
(0 -0 -2784.23)
(0 -0 -2796.8)
(0 -0 -2794.59)
(0 -0 122.935)
(0 -0 116.626)
(0 -0 117.992)
(0 -0 122.463)
(0 -0 126.4)
(0 -0 126.871)
(0 -0 121.409)
(0 -0 107.717)
(0 -0 84.1475)
(0 -0 49.9815)
(0 -0 5.2939)
(0 -0 -49.2269)
(0 -0 -112.478)
(0 -0 -183.114)
(0 -0 -259.702)
(0 -0 -340.823)
(0 -0 -425.148)
(0 -0 -511.479)
(0 -0 -598.767)
(0 -0 -686.122)
(0 -0 -772.805)
(0 -0 -858.214)
(0 -0 -941.876)
(0 -0 -1023.43)
(0 -0 -1102.59)
(0 -0 -1179.18)
(0 -0 -1253.07)
(0 -0 -1324.18)
(0 -0 -1392.48)
(0 -0 -1457.96)
(0 -0 -1520.65)
(0 -0 -1580.6)
(0 -0 -1637.85)
(0 -0 -1692.48)
(0 -0 -1744.54)
(0 -0 -1794.14)
(0 -0 -1841.28)
(0 -0 -1886.1)
(0 -0 -1928.59)
(0 -0 -1968.81)
(0 -0 -2006.84)
(0 -0 -2042.43)
(0 -0 -2076.15)
(0 -0 -2106.68)
(0 -0 -2136.15)
(0 -0 -2160.53)
(0 -0 -2185.44)
(0 -0 -2201.87)
(0 -0 -2219.64)
(0 -0 -2226.46)
(0 -0 115.614)
(0 -0 110.393)
(0 -0 110.709)
(0 -0 113.145)
(0 -0 115.953)
(0 -0 118.209)
(0 -0 119.086)
(0 -0 117.384)
(0 -0 111.822)
(0 -0 101.343)
(0 -0 85.2149)
(0 -0 63.0531)
(0 -0 34.7865)
(0 -0 0.616657)
(0 -0 -39.0474)
(0 -0 -83.6544)
(0 -0 -132.568)
(0 -0 -185.116)
(0 -0 -240.624)
(0 -0 -298.445)
(0 -0 -357.973)
(0 -0 -418.66)
(0 -0 -480.014)
(0 -0 -541.608)
(0 -0 -603.072)
(0 -0 -664.093)
(0 -0 -724.408)
(0 -0 -783.804)
(0 -0 -842.101)
(0 -0 -899.161)
(0 -0 -954.867)
(0 -0 -1009.14)
(0 -0 -1061.91)
(0 -0 -1113.13)
(0 -0 -1162.75)
(0 -0 -1210.78)
(0 -0 -1257.15)
(0 -0 -1301.88)
(0 -0 -1344.93)
(0 -0 -1386.26)
(0 -0 -1425.9)
(0 -0 -1463.59)
(0 -0 -1499.72)
(0 -0 -1533.25)
(0 -0 -1565.63)
(0 -0 -1593.98)
(0 -0 -1621.93)
(0 -0 -1643.53)
(0 -0 -1664.48)
(0 -0 -1677.37)
(0 -0 108.369)
(0 -0 104.175)
(0 -0 104.383)
(0 -0 106.088)
(0 -0 107.953)
(0 -0 109.66)
(0 -0 111.195)
(0 -0 112.211)
(0 -0 112.13)
(0 -0 110.318)
(0 -0 106.187)
(0 -0 99.2293)
(0 -0 89.0602)
(0 -0 75.4305)
(0 -0 58.232)
(0 -0 37.4765)
(0 -0 13.2806)
(0 -0 -14.1573)
(0 -0 -44.5798)
(0 -0 -77.6898)
(0 -0 -113.168)
(0 -0 -150.689)
(0 -0 -189.929)
(0 -0 -230.578)
(0 -0 -272.343)
(0 -0 -314.953)
(0 -0 -358.16)
(0 -0 -401.74)
(0 -0 -445.493)
(0 -0 -489.24)
(0 -0 -532.822)
(0 -0 -576.103)
(0 -0 -618.956)
(0 -0 -661.282)
(0 -0 -702.973)
(0 -0 -743.963)
(0 -0 -784.152)
(0 -0 -823.488)
(0 -0 -861.887)
(0 -0 -899.261)
(0 -0 -935.599)
(0 -0 -970.627)
(0 -0 -1004.6)
(0 -0 -1036.7)
(0 -0 -1067.88)
(0 -0 -1096.13)
(0 -0 -1123.64)
(0 -0 -1146.64)
(0 -0 -1168.19)
(0 -0 -1183.96)
(0 -0 101.39)
(0 -0 97.9824)
(0 -0 98.2047)
(0 -0 99.6758)
(0 -0 101.185)
(0 -0 102.455)
(0 -0 103.677)
(0 -0 104.863)
(0 -0 105.839)
(0 -0 106.36)
(0 -0 106.144)
(0 -0 104.89)
(0 -0 102.306)
(0 -0 98.129)
(0 -0 92.1417)
(0 -0 84.1842)
(0 -0 74.1543)
(0 -0 62.0056)
(0 -0 47.7436)
(0 -0 31.4174)
(0 -0 13.1128)
(0 -0 -7.05585)
(0 -0 -28.9539)
(0 -0 -52.433)
(0 -0 -77.3369)
(0 -0 -103.507)
(0 -0 -130.784)
(0 -0 -159.016)
(0 -0 -188.053)
(0 -0 -217.755)
(0 -0 -247.986)
(0 -0 -278.624)
(0 -0 -309.548)
(0 -0 -340.654)
(0 -0 -371.831)
(0 -0 -402.993)
(0 -0 -434.037)
(0 -0 -464.88)
(0 -0 -495.437)
(0 -0 -525.592)
(0 -0 -555.317)
(0 -0 -584.361)
(0 -0 -612.873)
(0 -0 -640.246)
(0 -0 -667.04)
(0 -0 -691.935)
(0 -0 -716.131)
(0 -0 -737.359)
(0 -0 -757.08)
(0 -0 -772.84)
(0 -0 94.7127)
(0 -0 91.9319)
(0 -0 92.1422)
(0 -0 93.4641)
(0 -0 94.842)
(0 -0 95.9384)
(0 -0 96.9366)
(0 -0 97.9344)
(0 -0 98.9037)
(0 -0 99.7775)
(0 -0 100.466)
(0 -0 100.853)
(0 -0 100.799)
(0 -0 100.152)
(0 -0 98.7657)
(0 -0 96.4986)
(0 -0 93.2283)
(0 -0 88.8533)
(0 -0 83.2962)
(0 -0 76.5043)
(0 -0 68.4496)
(0 -0 59.126)
(0 -0 48.5484)
(0 -0 36.7482)
(0 -0 23.7714)
(0 -0 9.67454)
(0 -0 -5.47638)
(0 -0 -21.6103)
(0 -0 -38.6507)
(0 -0 -56.5202)
(0 -0 -75.1378)
(0 -0 -94.4258)
(0 -0 -114.302)
(0 -0 -134.692)
(0 -0 -155.514)
(0 -0 -176.695)
(0 -0 -198.159)
(0 -0 -219.826)
(0 -0 -241.63)
(0 -0 -263.463)
(0 -0 -285.297)
(0 -0 -306.931)
(0 -0 -328.441)
(0 -0 -349.409)
(0 -0 -370.128)
(0 -0 -389.786)
(0 -0 -408.961)
(0 -0 -426.362)
(0 -0 -442.587)
(0 -0 -456.27)
(0 -0 88.336)
(0 -0 86.0751)
(0 -0 86.2666)
(0 -0 87.4387)
(0 -0 88.7181)
(0 -0 89.7355)
(0 -0 90.6275)
(0 -0 91.4974)
(0 -0 92.3489)
(0 -0 93.1673)
(0 -0 93.9367)
(0 -0 94.6284)
(0 -0 95.1968)
(0 -0 95.583)
(0 -0 95.7183)
(0 -0 95.5283)
(0 -0 94.9371)
(0 -0 93.8705)
(0 -0 92.2596)
(0 -0 90.043)
(0 -0 87.1685)
(0 -0 83.5947)
(0 -0 79.2908)
(0 -0 74.2365)
(0 -0 68.4221)
(0 -0 61.8467)
(0 -0 54.5178)
(0 -0 46.4502)
(0 -0 37.6652)
(0 -0 28.1887)
(0 -0 18.0522)
(0 -0 7.28948)
(0 -0 -4.06071)
(0 -0 -15.9591)
(0 -0 -28.3623)
(0 -0 -41.2256)
(0 -0 -54.504)
(0 -0 -68.1429)
(0 -0 -82.1014)
(0 -0 -96.3013)
(0 -0 -110.721)
(0 -0 -125.224)
(0 -0 -139.841)
(0 -0 -154.313)
(0 -0 -168.77)
(0 -0 -182.75)
(0 -0 -196.486)
(0 -0 -209.282)
(0 -0 -221.332)
(0 -0 -231.879)
(0 -0 82.2582)
(0 -0 80.4302)
(0 -0 80.6115)
(0 -0 81.6384)
(0 -0 82.8143)
(0 -0 83.7663)
(0 -0 84.5905)
(0 -0 85.3833)
(0 -0 86.1522)
(0 -0 86.8905)
(0 -0 87.5994)
(0 -0 88.2785)
(0 -0 88.9195)
(0 -0 89.5068)
(0 -0 90.0178)
(0 -0 90.4244)
(0 -0 90.6934)
(0 -0 90.7886)
(0 -0 90.6716)
(0 -0 90.3039)
(0 -0 89.6478)
(0 -0 88.6683)
(0 -0 87.3334)
(0 -0 85.615)
(0 -0 83.4897)
(0 -0 80.9384)
(0 -0 77.9468)
(0 -0 74.5046)
(0 -0 70.6064)
(0 -0 66.2505)
(0 -0 61.4393)
(0 -0 56.1786)
(0 -0 50.4773)
(0 -0 44.3484)
(0 -0 37.8064)
(0 -0 30.8707)
(0 -0 23.5595)
(0 -0 15.9017)
(0 -0 7.91568)
(0 -0 -0.352602)
(0 -0 -8.89219)
(0 -0 -17.6233)
(0 -0 -26.5554)
(0 -0 -35.5463)
(0 -0 -44.6402)
(0 -0 -53.5972)
(0 -0 -62.489)
(0 -0 -70.9606)
(0 -0 -79.0493)
(0 -0 -86.3378)
(0 -0 76.4799)
(0 -0 75.0084)
(0 -0 75.1886)
(0 -0 76.0833)
(0 -0 77.1532)
(0 -0 78.0385)
(0 -0 78.8014)
(0 -0 79.5319)
(0 -0 80.2394)
(0 -0 80.9161)
(0 -0 81.5642)
(0 -0 82.1887)
(0 -0 82.7912)
(0 -0 83.3704)
(0 -0 83.9216)
(0 -0 84.4377)
(0 -0 84.9084)
(0 -0 85.3205)
(0 -0 85.6587)
(0 -0 85.9055)
(0 -0 86.0422)
(0 -0 86.0494)
(0 -0 85.9077)
(0 -0 85.598)
(0 -0 85.1023)
(0 -0 84.4037)
(0 -0 83.4869)
(0 -0 82.3381)
(0 -0 80.9454)
(0 -0 79.2988)
(0 -0 77.3904)
(0 -0 75.2144)
(0 -0 72.767)
(0 -0 70.0467)
(0 -0 67.0535)
(0 -0 63.7911)
(0 -0 60.2623)
(0 -0 56.4778)
(0 -0 52.4414)
(0 -0 48.1748)
(0 -0 43.68)
(0 -0 38.9965)
(0 -0 34.1223)
(0 -0 29.1246)
(0 -0 23.9951)
(0 -0 18.845)
(0 -0 13.6636)
(0 -0 8.62113)
(0 -0 3.72057)
(0 -0 -0.808447)
(0 -0 71.0007)
(0 -0 69.8203)
(0 -0 70.0051)
(0 -0 70.782)
(0 -0 71.7477)
(0 -0 72.5663)
(0 -0 73.2694)
(0 -0 73.9408)
(0 -0 74.5927)
(0 -0 75.2167)
(0 -0 75.8133)
(0 -0 76.3872)
(0 -0 76.9416)
(0 -0 77.4782)
(0 -0 77.9974)
(0 -0 78.4986)
(0 -0 78.9802)
(0 -0 79.439)
(0 -0 79.8705)
(0 -0 80.269)
(0 -0 80.6273)
(0 -0 80.9377)
(0 -0 81.1915)
(0 -0 81.3796)
(0 -0 81.4925)
(0 -0 81.5207)
(0 -0 81.4546)
(0 -0 81.2849)
(0 -0 81.0023)
(0 -0 80.5984)
(0 -0 80.0651)
(0 -0 79.3953)
(0 -0 78.5823)
(0 -0 77.6213)
(0 -0 76.5072)
(0 -0 75.2376)
(0 -0 73.8093)
(0 -0 72.2236)
(0 -0 70.4784)
(0 -0 68.58)
(0 -0 66.5279)
(0 -0 64.3355)
(0 -0 62.0035)
(0 -0 59.5573)
(0 -0 56.999)
(0 -0 54.3734)
(0 -0 51.6843)
(0 -0 49.0103)
(0 -0 46.3497)
(0 -0 43.8375)
(0 -0 65.8193)
(0 -0 64.8742)
(0 -0 65.0665)
(0 -0 65.7392)
(0 -0 66.6047)
(0 -0 67.3578)
(0 -0 68.0035)
(0 -0 68.6179)
(0 -0 69.2163)
(0 -0 69.7906)
(0 -0 70.3398)
(0 -0 70.8678)
(0 -0 71.3777)
(0 -0 71.8712)
(0 -0 72.3497)
(0 -0 72.814)
(0 -0 73.2648)
(0 -0 73.702)
(0 -0 74.125)
(0 -0 74.5326)
(0 -0 74.923)
(0 -0 75.2939)
(0 -0 75.6424)
(0 -0 75.9654)
(0 -0 76.2594)
(0 -0 76.5204)
(0 -0 76.7442)
(0 -0 76.9261)
(0 -0 77.0614)
(0 -0 77.1451)
(0 -0 77.1723)
(0 -0 77.1382)
(0 -0 77.0378)
(0 -0 76.867)
(0 -0 76.6212)
(0 -0 76.2972)
(0 -0 75.891)
(0 -0 75.4007)
(0 -0 74.8232)
(0 -0 74.1583)
(0 -0 73.4043)
(0 -0 72.5634)
(0 -0 71.6362)
(0 -0 70.6284)
(0 -0 69.543)
(0 -0 68.3948)
(0 -0 67.1851)
(0 -0 65.952)
(0 -0 64.6791)
(0 -0 63.4547)
(0 -0 60.9328)
(0 -0 60.1765)
(0 -0 60.3772)
(0 -0 60.9583)
(0 -0 61.7282)
(0 -0 62.4177)
(0 -0 63.0089)
(0 -0 63.5689)
(0 -0 64.1159)
(0 -0 64.6424)
(0 -0 65.1464)
(0 -0 65.6311)
(0 -0 66.0991)
(0 -0 66.5522)
(0 -0 66.9915)
(0 -0 67.4181)
(0 -0 67.8328)
(0 -0 68.2363)
(0 -0 68.6291)
(0 -0 69.0111)
(0 -0 69.3824)
(0 -0 69.7427)
(0 -0 70.0914)
(0 -0 70.4281)
(0 -0 70.752)
(0 -0 71.0621)
(0 -0 71.3571)
(0 -0 71.6355)
(0 -0 71.8952)
(0 -0 72.1343)
(0 -0 72.3504)
(0 -0 72.541)
(0 -0 72.7036)
(0 -0 72.8358)
(0 -0 72.9347)
(0 -0 72.9981)
(0 -0 73.0233)
(0 -0 73.0082)
(0 -0 72.9504)
(0 -0 72.848)
(0 -0 72.6997)
(0 -0 72.5035)
(0 -0 72.2597)
(0 -0 71.967)
(0 -0 71.6266)
(0 -0 71.2421)
(0 -0 70.8095)
(0 -0 70.3505)
(0 -0 69.8379)
(0 -0 69.3386)
(0 -0 56.3374)
(0 -0 55.7315)
(0 -0 55.9395)
(0 -0 56.4405)
(0 -0 57.1207)
(0 -0 57.7486)
(0 -0 58.2882)
(0 -0 58.7969)
(0 -0 59.2947)
(0 -0 59.7756)
(0 -0 60.2365)
(0 -0 60.6798)
(0 -0 61.1081)
(0 -0 61.5228)
(0 -0 61.9249)
(0 -0 62.3155)
(0 -0 62.6952)
(0 -0 63.0649)
(0 -0 63.425)
(0 -0 63.7759)
(0 -0 64.1179)
(0 -0 64.4513)
(0 -0 64.7763)
(0 -0 65.0934)
(0 -0 65.4028)
(0 -0 65.7046)
(0 -0 65.9989)
(0 -0 66.2853)
(0 -0 66.5634)
(0 -0 66.8326)
(0 -0 67.092)
(0 -0 67.3407)
(0 -0 67.5776)
(0 -0 67.8014)
(0 -0 68.011)
(0 -0 68.2051)
(0 -0 68.3822)
(0 -0 68.5409)
(0 -0 68.6799)
(0 -0 68.7973)
(0 -0 68.8925)
(0 -0 68.9627)
(0 -0 69.0081)
(0 -0 69.0259)
(0 -0 69.0154)
(0 -0 68.9778)
(0 -0 68.9048)
(0 -0 68.8127)
(0 -0 68.6693)
(0 -0 68.5311)
(0 -0 52.0279)
(0 -0 51.5409)
(0 -0 51.7542)
(0 -0 52.1855)
(0 -0 52.7821)
(0 -0 53.3508)
(0 -0 53.8418)
(0 -0 54.3024)
(0 -0 54.7538)
(0 -0 55.1914)
(0 -0 55.6113)
(0 -0 56.0154)
(0 -0 56.4058)
(0 -0 56.7841)
(0 -0 57.1509)
(0 -0 57.5072)
(0 -0 57.8537)
(0 -0 58.191)
(0 -0 58.5196)
(0 -0 58.8399)
(0 -0 59.1521)
(0 -0 59.4566)
(0 -0 59.754)
(0 -0 60.0447)
(0 -0 60.3294)
(0 -0 60.6086)
(0 -0 60.8826)
(0 -0 61.1517)
(0 -0 61.416)
(0 -0 61.6754)
(0 -0 61.9296)
(0 -0 62.1783)
(0 -0 62.4213)
(0 -0 62.658)
(0 -0 62.8879)
(0 -0 63.1104)
(0 -0 63.3249)
(0 -0 63.5304)
(0 -0 63.7265)
(0 -0 63.9115)
(0 -0 64.0855)
(0 -0 64.2459)
(0 -0 64.393)
(0 -0 64.5242)
(0 -0 64.6378)
(0 -0 64.7349)
(0 -0 64.8057)
(0 -0 64.8646)
(0 -0 64.8783)
(0 -0 64.8982)
(0 -0 47.9979)
(0 -0 47.6046)
(0 -0 47.8201)
(0 -0 48.1909)
(0 -0 48.7108)
(0 -0 49.2228)
(0 -0 49.6683)
(0 -0 50.084)
(0 -0 50.4917)
(0 -0 50.8885)
(0 -0 51.2698)
(0 -0 51.6369)
(0 -0 51.9916)
(0 -0 52.3353)
(0 -0 52.6688)
(0 -0 52.9927)
(0 -0 53.3077)
(0 -0 53.6144)
(0 -0 53.9131)
(0 -0 54.2041)
(0 -0 54.4878)
(0 -0 54.7645)
(0 -0 55.0346)
(0 -0 55.2989)
(0 -0 55.5579)
(0 -0 55.8123)
(0 -0 56.0624)
(0 -0 56.3088)
(0 -0 56.5516)
(0 -0 56.7909)
(0 -0 57.0266)
(0 -0 57.2587)
(0 -0 57.4872)
(0 -0 57.7117)
(0 -0 57.9322)
(0 -0 58.1482)
(0 -0 58.3596)
(0 -0 58.5657)
(0 -0 58.7665)
(0 -0 58.9606)
(0 -0 59.1482)
(0 -0 59.3275)
(0 -0 59.4984)
(0 -0 59.6592)
(0 -0 59.8076)
(0 -0 59.9454)
(0 -0 60.0621)
(0 -0 60.1719)
(0 -0 60.2422)
(0 -0 60.3213)
(0 -0 44.2398)
(0 -0 43.9203)
(0 -0 44.1345)
(0 -0 44.4529)
(0 -0 44.9031)
(0 -0 45.3612)
(0 -0 45.7641)
(0 -0 46.1382)
(0 -0 46.5053)
(0 -0 46.8637)
(0 -0 47.2089)
(0 -0 47.5412)
(0 -0 47.8624)
(0 -0 48.1738)
(0 -0 48.4758)
(0 -0 48.7693)
(0 -0 49.0546)
(0 -0 49.3324)
(0 -0 49.6029)
(0 -0 49.8663)
(0 -0 50.123)
(0 -0 50.3733)
(0 -0 50.6176)
(0 -0 50.8566)
(0 -0 51.0909)
(0 -0 51.3212)
(0 -0 51.5479)
(0 -0 51.7715)
(0 -0 51.992)
(0 -0 52.2098)
(0 -0 52.4247)
(0 -0 52.6367)
(0 -0 52.8459)
(0 -0 53.0521)
(0 -0 53.2552)
(0 -0 53.455)
(0 -0 53.6515)
(0 -0 53.8441)
(0 -0 54.0329)
(0 -0 54.2168)
(0 -0 54.396)
(0 -0 54.5692)
(0 -0 54.736)
(0 -0 54.8955)
(0 -0 55.0451)
(0 -0 55.1869)
(0 -0 55.3112)
(0 -0 55.4309)
(0 -0 55.5163)
(0 -0 55.6119)
(0 -0 40.7449)
(0 -0 40.4835)
(0 -0 40.6927)
(0 -0 40.9659)
(0 -0 41.3535)
(0 -0 41.7609)
(0 -0 42.124)
(0 -0 42.4599)
(0 -0 42.7892)
(0 -0 43.1119)
(0 -0 43.4234)
(0 -0 43.7234)
(0 -0 44.0134)
(0 -0 44.2944)
(0 -0 44.5671)
(0 -0 44.832)
(0 -0 45.0896)
(0 -0 45.3403)
(0 -0 45.5843)
(0 -0 45.8219)
(0 -0 46.0532)
(0 -0 46.2786)
(0 -0 46.4986)
(0 -0 46.7138)
(0 -0 46.9249)
(0 -0 47.1325)
(0 -0 47.337)
(0 -0 47.5388)
(0 -0 47.7381)
(0 -0 47.9351)
(0 -0 48.1297)
(0 -0 48.3218)
(0 -0 48.5116)
(0 -0 48.6989)
(0 -0 48.8836)
(0 -0 49.0655)
(0 -0 49.2446)
(0 -0 49.4205)
(0 -0 49.5932)
(0 -0 49.762)
(0 -0 49.9268)
(0 -0 50.0867)
(0 -0 50.2412)
(0 -0 50.3897)
(0 -0 50.5298)
(0 -0 50.6637)
(0 -0 50.7822)
(0 -0 50.8977)
(0 -0 50.983)
(0 -0 51.0793)
(0 -0 37.5035)
(0 -0 37.2882)
(0 -0 37.4886)
(0 -0 37.7229)
(0 -0 38.0547)
(0 -0 38.4147)
(0 -0 38.7409)
(0 -0 39.0418)
(0 -0 39.3364)
(0 -0 39.6261)
(0 -0 39.9064)
(0 -0 40.1765)
(0 -0 40.4375)
(0 -0 40.6904)
(0 -0 40.9359)
(0 -0 41.1742)
(0 -0 41.406)
(0 -0 41.6314)
(0 -0 41.8507)
(0 -0 42.0641)
(0 -0 42.2718)
(0 -0 42.474)
(0 -0 42.6713)
(0 -0 42.8642)
(0 -0 43.0535)
(0 -0 43.2398)
(0 -0 43.4235)
(0 -0 43.605)
(0 -0 43.7844)
(0 -0 43.9618)
(0 -0 44.1373)
(0 -0 44.3107)
(0 -0 44.4821)
(0 -0 44.6512)
(0 -0 44.8182)
(0 -0 44.9828)
(0 -0 45.1449)
(0 -0 45.3042)
(0 -0 45.4607)
(0 -0 45.6138)
(0 -0 45.7634)
(0 -0 45.9087)
(0 -0 46.0494)
(0 -0 46.1848)
(0 -0 46.3129)
(0 -0 46.4356)
(0 -0 46.545)
(0 -0 46.6521)
(0 -0 46.7326)
(0 -0 46.8243)
(0 -0 34.5051)
(0 -0 34.3268)
(0 -0 34.5145)
(0 -0 34.7153)
(0 -0 34.9979)
(0 -0 35.3142)
(0 -0 35.6061)
(0 -0 35.8753)
(0 -0 36.1383)
(0 -0 36.3976)
(0 -0 36.6492)
(0 -0 36.8918)
(0 -0 37.1261)
(0 -0 37.3531)
(0 -0 37.5734)
(0 -0 37.7873)
(0 -0 37.9951)
(0 -0 38.1972)
(0 -0 38.3936)
(0 -0 38.5846)
(0 -0 38.7703)
(0 -0 38.951)
(0 -0 39.1271)
(0 -0 39.2994)
(0 -0 39.4684)
(0 -0 39.6349)
(0 -0 39.7993)
(0 -0 39.9618)
(0 -0 40.1227)
(0 -0 40.282)
(0 -0 40.4397)
(0 -0 40.5956)
(0 -0 40.7498)
(0 -0 40.9021)
(0 -0 41.0525)
(0 -0 41.2008)
(0 -0 41.3469)
(0 -0 41.4905)
(0 -0 41.6317)
(0 -0 41.7698)
(0 -0 41.9049)
(0 -0 42.0361)
(0 -0 42.1633)
(0 -0 42.2858)
(0 -0 42.4019)
(0 -0 42.5132)
(0 -0 42.613)
(0 -0 42.7109)
(0 -0 42.7858)
(0 -0 42.8711)
(0 -0 31.738)
(0 -0 31.5898)
(0 -0 31.7619)
(0 -0 31.934)
(0 -0 32.1737)
(0 -0 32.4498)
(0 -0 32.7103)
(0 -0 32.9507)
(0 -0 33.185)
(0 -0 33.4165)
(0 -0 33.6419)
(0 -0 33.8593)
(0 -0 34.0692)
(0 -0 34.2725)
(0 -0 34.4697)
(0 -0 34.6611)
(0 -0 34.8469)
(0 -0 35.0275)
(0 -0 35.2029)
(0 -0 35.3733)
(0 -0 35.5386)
(0 -0 35.6994)
(0 -0 35.856)
(0 -0 36.0092)
(0 -0 36.1595)
(0 -0 36.3077)
(0 -0 36.4542)
(0 -0 36.5993)
(0 -0 36.7431)
(0 -0 36.8856)
(0 -0 37.0268)
(0 -0 37.1665)
(0 -0 37.3048)
(0 -0 37.4415)
(0 -0 37.5766)
(0 -0 37.7098)
(0 -0 37.8411)
(0 -0 37.9702)
(0 -0 38.0971)
(0 -0 38.2213)
(0 -0 38.3428)
(0 -0 38.4609)
(0 -0 38.5754)
(0 -0 38.6858)
(0 -0 38.7906)
(0 -0 38.8911)
(0 -0 38.9819)
(0 -0 39.0708)
(0 -0 39.14)
(0 -0 39.2187)
(0 -0 29.1904)
(0 -0 29.0667)
(0 -0 29.2212)
(0 -0 29.3691)
(0 -0 29.5716)
(0 -0 29.8113)
(0 -0 30.0428)
(0 -0 30.2572)
(0 -0 30.4656)
(0 -0 30.672)
(0 -0 30.8734)
(0 -0 31.0679)
(0 -0 31.2557)
(0 -0 31.4374)
(0 -0 31.6135)
(0 -0 31.7843)
(0 -0 31.9501)
(0 -0 32.111)
(0 -0 32.2671)
(0 -0 32.4185)
(0 -0 32.5653)
(0 -0 32.7078)
(0 -0 32.8465)
(0 -0 32.982)
(0 -0 33.1152)
(0 -0 33.2466)
(0 -0 33.3767)
(0 -0 33.5057)
(0 -0 33.6338)
(0 -0 33.7609)
(0 -0 33.887)
(0 -0 34.0119)
(0 -0 34.1356)
(0 -0 34.258)
(0 -0 34.3789)
(0 -0 34.4982)
(0 -0 34.6159)
(0 -0 34.7317)
(0 -0 34.8455)
(0 -0 34.9568)
(0 -0 35.0658)
(0 -0 35.1718)
(0 -0 35.2746)
(0 -0 35.3737)
(0 -0 35.4681)
(0 -0 35.5587)
(0 -0 35.6409)
(0 -0 35.7214)
(0 -0 35.7854)
(0 -0 35.8574)
(0 -0 26.8497)
(0 -0 26.7458)
(0 -0 26.8819)
(0 -0 27.0093)
(0 -0 27.1798)
(0 -0 27.3867)
(0 -0 27.5918)
(0 -0 27.7829)
(0 -0 27.9681)
(0 -0 28.1518)
(0 -0 28.3317)
(0 -0 28.5055)
(0 -0 28.6732)
(0 -0 28.8353)
(0 -0 28.9923)
(0 -0 29.1445)
(0 -0 29.2921)
(0 -0 29.4351)
(0 -0 29.5737)
(0 -0 29.7078)
(0 -0 29.8376)
(0 -0 29.9634)
(0 -0 30.0857)
(0 -0 30.2052)
(0 -0 30.3227)
(0 -0 30.4387)
(0 -0 30.5538)
(0 -0 30.6682)
(0 -0 30.7819)
(0 -0 30.895)
(0 -0 31.0073)
(0 -0 31.1186)
(0 -0 31.229)
(0 -0 31.3383)
(0 -0 31.4463)
(0 -0 31.553)
(0 -0 31.6582)
(0 -0 31.7617)
(0 -0 31.8635)
(0 -0 31.9632)
(0 -0 32.0608)
(0 -0 32.1556)
(0 -0 32.2478)
(0 -0 32.3366)
(0 -0 32.4214)
(0 -0 32.5027)
(0 -0 32.5771)
(0 -0 32.6499)
(0 -0 32.7086)
(0 -0 32.7747)
(0 -0 24.7031)
(0 -0 24.6152)
(0 -0 24.7328)
(0 -0 24.8425)
(0 -0 24.9858)
(0 -0 25.1636)
(0 -0 25.3447)
(0 -0 25.515)
(0 -0 25.6797)
(0 -0 25.8432)
(0 -0 26.0036)
(0 -0 26.1589)
(0 -0 26.3085)
(0 -0 26.453)
(0 -0 26.5929)
(0 -0 26.7282)
(0 -0 26.8593)
(0 -0 26.9862)
(0 -0 27.1089)
(0 -0 27.2274)
(0 -0 27.3418)
(0 -0 27.4524)
(0 -0 27.5598)
(0 -0 27.6648)
(0 -0 27.768)
(0 -0 27.8701)
(0 -0 27.9716)
(0 -0 28.0727)
(0 -0 28.1734)
(0 -0 28.2737)
(0 -0 28.3735)
(0 -0 28.4726)
(0 -0 28.5709)
(0 -0 28.6683)
(0 -0 28.7646)
(0 -0 28.8598)
(0 -0 28.9537)
(0 -0 29.0461)
(0 -0 29.137)
(0 -0 29.226)
(0 -0 29.3132)
(0 -0 29.3979)
(0 -0 29.4804)
(0 -0 29.5598)
(0 -0 29.6359)
(0 -0 29.7088)
(0 -0 29.776)
(0 -0 29.8416)
(0 -0 29.8955)
(0 -0 29.9558)
(0 -0 22.7376)
(0 -0 22.6624)
(0 -0 22.7623)
(0 -0 22.8566)
(0 -0 22.9768)
(0 -0 23.129)
(0 -0 23.2885)
(0 -0 23.4402)
(0 -0 23.5869)
(0 -0 23.7323)
(0 -0 23.8755)
(0 -0 24.0142)
(0 -0 24.1478)
(0 -0 24.2766)
(0 -0 24.4011)
(0 -0 24.5214)
(0 -0 24.6377)
(0 -0 24.7501)
(0 -0 24.8585)
(0 -0 24.9629)
(0 -0 25.0634)
(0 -0 25.1604)
(0 -0 25.2544)
(0 -0 25.3461)
(0 -0 25.4365)
(0 -0 25.5261)
(0 -0 25.6153)
(0 -0 25.7043)
(0 -0 25.7933)
(0 -0 25.8821)
(0 -0 25.9707)
(0 -0 26.0587)
(0 -0 26.1461)
(0 -0 26.2328)
(0 -0 26.3186)
(0 -0 26.4034)
(0 -0 26.4871)
(0 -0 26.5695)
(0 -0 26.6506)
(0 -0 26.7299)
(0 -0 26.8077)
(0 -0 26.8833)
(0 -0 26.957)
(0 -0 27.0279)
(0 -0 27.0962)
(0 -0 27.1613)
(0 -0 27.2221)
(0 -0 27.281)
(0 -0 27.3306)
(0 -0 27.3851)
(0 -0 20.9403)
(0 -0 20.8752)
(0 -0 20.9584)
(0 -0 21.0392)
(0 -0 21.1397)
(0 -0 21.2697)
(0 -0 21.4098)
(0 -0 21.545)
(0 -0 21.6759)
(0 -0 21.8056)
(0 -0 21.9334)
(0 -0 22.0575)
(0 -0 22.1768)
(0 -0 22.2917)
(0 -0 22.4025)
(0 -0 22.5094)
(0 -0 22.6126)
(0 -0 22.7121)
(0 -0 22.8077)
(0 -0 22.8995)
(0 -0 22.9876)
(0 -0 23.0723)
(0 -0 23.1542)
(0 -0 23.2342)
(0 -0 23.3129)
(0 -0 23.3912)
(0 -0 23.4694)
(0 -0 23.5478)
(0 -0 23.6263)
(0 -0 23.7048)
(0 -0 23.7832)
(0 -0 23.8613)
(0 -0 23.939)
(0 -0 24.0161)
(0 -0 24.0925)
(0 -0 24.168)
(0 -0 24.2426)
(0 -0 24.316)
(0 -0 24.3882)
(0 -0 24.4589)
(0 -0 24.5283)
(0 -0 24.5957)
(0 -0 24.6615)
(0 -0 24.7248)
(0 -0 24.786)
(0 -0 24.8442)
(0 -0 24.8991)
(0 -0 24.9518)
(0 -0 24.9975)
(0 -0 25.0466)
(0 -0 19.2982)
(0 -0 19.2411)
(0 -0 19.309)
(0 -0 19.3777)
(0 -0 19.4618)
(0 -0 19.5724)
(0 -0 19.6954)
(0 -0 19.8161)
(0 -0 19.9332)
(0 -0 20.049)
(0 -0 20.1635)
(0 -0 20.2746)
(0 -0 20.3814)
(0 -0 20.484)
(0 -0 20.5827)
(0 -0 20.6778)
(0 -0 20.7694)
(0 -0 20.8573)
(0 -0 20.9416)
(0 -0 21.0222)
(0 -0 21.0992)
(0 -0 21.1729)
(0 -0 21.2441)
(0 -0 21.3135)
(0 -0 21.382)
(0 -0 21.4502)
(0 -0 21.5186)
(0 -0 21.5873)
(0 -0 21.6565)
(0 -0 21.7259)
(0 -0 21.7953)
(0 -0 21.8646)
(0 -0 21.9337)
(0 -0 22.0023)
(0 -0 22.0703)
(0 -0 22.1375)
(0 -0 22.2039)
(0 -0 22.2693)
(0 -0 22.3337)
(0 -0 22.3967)
(0 -0 22.4586)
(0 -0 22.5187)
(0 -0 22.5775)
(0 -0 22.6338)
(0 -0 22.6887)
(0 -0 22.7406)
(0 -0 22.7903)
(0 -0 22.8374)
(0 -0 22.8795)
(0 -0 22.9236)
(0 -0 17.7988)
(0 -0 17.7479)
(0 -0 17.8021)
(0 -0 17.8601)
(0 -0 17.9302)
(0 -0 18.0244)
(0 -0 18.1321)
(0 -0 18.2401)
(0 -0 18.3452)
(0 -0 18.4491)
(0 -0 18.5518)
(0 -0 18.6517)
(0 -0 18.7475)
(0 -0 18.8394)
(0 -0 18.9275)
(0 -0 19.0122)
(0 -0 19.0934)
(0 -0 19.1713)
(0 -0 19.2456)
(0 -0 19.3162)
(0 -0 19.3833)
(0 -0 19.4473)
(0 -0 19.5089)
(0 -0 19.5689)
(0 -0 19.6282)
(0 -0 19.6875)
(0 -0 19.7472)
(0 -0 19.8075)
(0 -0 19.8684)
(0 -0 19.9297)
(0 -0 19.9912)
(0 -0 20.0527)
(0 -0 20.1141)
(0 -0 20.1752)
(0 -0 20.2358)
(0 -0 20.2957)
(0 -0 20.3549)
(0 -0 20.4133)
(0 -0 20.4707)
(0 -0 20.5269)
(0 -0 20.5821)
(0 -0 20.6357)
(0 -0 20.6882)
(0 -0 20.7385)
(0 -0 20.7877)
(0 -0 20.8341)
(0 -0 20.879)
(0 -0 20.9211)
(0 -0 20.9599)
(0 -0 20.9993)
(0 -0 16.43)
(0 -0 16.3839)
(0 -0 16.4261)
(0 -0 16.4742)
(0 -0 16.5326)
(0 -0 16.6128)
(0 -0 16.7073)
(0 -0 16.8041)
(0 -0 16.8989)
(0 -0 16.9925)
(0 -0 17.0851)
(0 -0 17.1751)
(0 -0 17.2614)
(0 -0 17.3439)
(0 -0 17.4228)
(0 -0 17.4983)
(0 -0 17.5706)
(0 -0 17.6396)
(0 -0 17.7051)
(0 -0 17.767)
(0 -0 17.8254)
(0 -0 17.8808)
(0 -0 17.9339)
(0 -0 17.9856)
(0 -0 18.0368)
(0 -0 18.0881)
(0 -0 18.1402)
(0 -0 18.193)
(0 -0 18.2466)
(0 -0 18.3008)
(0 -0 18.3553)
(0 -0 18.41)
(0 -0 18.4647)
(0 -0 18.5191)
(0 -0 18.5732)
(0 -0 18.6267)
(0 -0 18.6797)
(0 -0 18.7318)
(0 -0 18.7831)
(0 -0 18.8333)
(0 -0 18.8827)
(0 -0 18.9305)
(0 -0 18.9775)
(0 -0 19.0224)
(0 -0 19.0666)
(0 -0 19.1081)
(0 -0 19.1487)
(0 -0 19.1863)
(0 -0 19.2222)
(0 -0 19.2571)
(0 -0 15.1802)
(0 -0 15.1378)
(0 -0 15.1694)
(0 -0 15.2087)
(0 -0 15.2573)
(0 -0 15.3256)
(0 -0 15.4086)
(0 -0 15.4957)
(0 -0 15.5816)
(0 -0 15.6665)
(0 -0 15.7503)
(0 -0 15.8318)
(0 -0 15.9099)
(0 -0 15.9843)
(0 -0 16.0552)
(0 -0 16.1229)
(0 -0 16.1873)