/*--------------------------------*- C++ -*----------------------------------*\
  =========                 |
  \\      /  F ield         | OpenFOAM: The Open Source CFD Toolbox
   \\    /   O peration     | Website:  https://openfoam.org
    \\  /    A nd           | Version:  7
     \\/     M anipulation  |
\*---------------------------------------------------------------------------*/
FoamFile
{
    version     2.0;
    format      ascii;
    class       volScalarField;
    location    "0.3";
    object      nut;
}
// * * * * * * * * * * * * * * * * * * * * * * * * * * * * * * * * * * * * * //

dimensions      [0 2 -1 0 0 0 0];

internalField   nonuniform List<scalar> 
70000
(
9.96278e-12
6.87993e-14
2.56674e-16
8.64601e-17
4.76659e-17
7.83812e-17
2.74784e-17
1.28119e-17
8.66325e-18
6.30496e-18
4.60414e-18
3.41937e-18
2.59764e-18
2.01385e-18
1.58819e-18
1.27089e-18
1.03015e-18
8.44218e-19
6.98859e-19
5.83518e-19
4.91097e-19
4.16201e-19
3.55e-19
3.0453e-19
2.62675e-19
2.27698e-19
1.98273e-19
1.73629e-19
1.52432e-19
1.35048e-19
1.19434e-19
1.07488e-19
9.56971e-20
8.83269e-20
7.91142e-20
7.58856e-20
6.9173e-20
6.85464e-20
6.86144e-20
6.20118e-20
9.33181e-20
4.17892e-20
2.56825e-19
1.84601e-21
2.09028e-18
6.60379e-19
4.8175e-17
1.35437e-16
4.47615e-15
2.94279e-12
1.04276e-10
5.98771e-12
6.44555e-14
2.1431e-14
2.89384e-16
1.70183e-17
2.52631e-17
2.12112e-17
1.23235e-17
7.33103e-18
4.80162e-18
3.34387e-18
2.41676e-18
1.79642e-18
1.36711e-18
1.06173e-18
8.38931e-19
6.73158e-19
5.47187e-19
4.50029e-19
3.7391e-19
3.1351e-19
2.65016e-19
2.25692e-19
1.93478e-19
1.66849e-19
1.44799e-19
1.2608e-19
1.10722e-19
9.70396e-20
8.63814e-20
7.58962e-20
6.88444e-20
6.02005e-20
5.62475e-20
4.87779e-20
4.69114e-20
4.21989e-20
3.7857e-20
4.64154e-20
2.23324e-20
1.01938e-19
3.0045e-21
7.37419e-19
4.50644e-19
1.63181e-17
5.28017e-17
8.59399e-16
1.46655e-14
5.37636e-13
3.19174e-10
3.39845e-12
1.91026e-13
1.99246e-14
7.71814e-16
5.9397e-17
7.56034e-18
4.34926e-18
2.23962e-18
1.12902e-18
6.35587e-19
3.95074e-19
2.61111e-19
1.79781e-19
1.2787e-19
9.35572e-20
7.01567e-20
5.38206e-20
4.20899e-20
3.35147e-20
2.71072e-20
2.22405e-20
1.8484e-20
1.55445e-20
1.32084e-20
1.13264e-20
9.80517e-21
8.50922e-21
7.47972e-21
6.49149e-21
5.77606e-21
4.91791e-21
4.42898e-21
3.57053e-21
3.29749e-21
2.43628e-21
2.3434e-21
1.8917e-21
1.70153e-21
4.04849e-21
2.77785e-21
3.34004e-20
4.77776e-20
5.86682e-19
2.08942e-18
1.91697e-17
9.6302e-17
1.17224e-15
9.43706e-15
4.25503e-13
6.15348e-09
1.92805e-11
7.84844e-13
6.12022e-14
5.52273e-15
9.40231e-16
1.13672e-16
3.08849e-17
1.31516e-17
5.97595e-18
2.87885e-18
1.5306e-18
8.89501e-19
5.51514e-19
3.59074e-19
2.43419e-19
1.70948e-19
1.23888e-19
9.23434e-20
7.05918e-20
5.52017e-20
4.40595e-20
3.58249e-20
2.96125e-20
2.48403e-20
2.10994e-20
1.80974e-20
1.56267e-20
1.35181e-20
1.16563e-20
9.93141e-21
8.29659e-21
6.64776e-21
5.06226e-21
3.42337e-21
2.03424e-21
7.90885e-22
1.80991e-22
3.32478e-24
5.01426e-22
6.75575e-21
3.28696e-20
1.89941e-19
7.65939e-19
4.16925e-18
2.31662e-17
1.00246e-16
1.11544e-15
3.20805e-15
5.0824e-13
2.32162e-09
2.23409e-10
4.46055e-12
3.22442e-13
2.31904e-14
4.46089e-15
7.40269e-16
2.11288e-16
8.78507e-17
3.98662e-17
1.91727e-17
1.00594e-17
5.73664e-18
3.49025e-18
2.23369e-18
1.49115e-18
1.03286e-18
7.39233e-19
5.44788e-19
4.12172e-19
3.19289e-19
2.52681e-19
2.03903e-19
1.67451e-19
1.39725e-19
1.18236e-19
1.01215e-19
8.7443e-20
7.58925e-20
6.59525e-20
5.68761e-20
4.85196e-20
4.00181e-20
3.20166e-20
2.31984e-20
1.5698e-20
7.69203e-21
3.03111e-21
1.20903e-22
1.25965e-22
1.01307e-20
5.30831e-20
4.05194e-19
1.37845e-18
7.29794e-18
3.45918e-17
1.0118e-16
1.15378e-15
6.7517e-16
4.976e-13
3.01007e-09
5.286e-09
4.36603e-11
1.95021e-12
1.08791e-13
1.82414e-14
3.32461e-15
9.83081e-16
4.0663e-16
1.85242e-16
8.95275e-17
4.68605e-17
2.65051e-17
1.59549e-17
1.0095e-17
6.66226e-18
4.563e-18
3.23039e-18
2.3559e-18
1.7647e-18
1.35414e-18
1.06211e-18
8.49948e-19
6.92663e-19
5.74004e-19
4.82853e-19
4.11433e-19
3.54338e-19
3.07264e-19
2.67445e-19
2.3194e-19
1.99801e-19
1.67798e-19
1.37767e-19
1.04597e-19
7.56406e-20
4.28277e-20
2.14788e-20
3.20546e-21
1.88446e-22
9.74074e-21
7.35057e-20
7.23657e-19
2.413e-18
1.2378e-17
5.41683e-17
1.13197e-16
1.34584e-15
5.71259e-17
4.64739e-13
1.07679e-09
4.76639e-09
3.72407e-09
1.85644e-11
6.76306e-13
9.29752e-14
1.55572e-14
4.29414e-15
1.68211e-15
7.45602e-16
3.5526e-16
1.83774e-16
1.02719e-16
6.11059e-17
3.82173e-17
2.49373e-17
1.68908e-17
1.18287e-17
8.53563e-18
6.32819e-18
4.80771e-18
3.73469e-18
2.96097e-18
2.39166e-18
1.96532e-18
1.64033e-18
1.38794e-18
1.18817e-18
1.02568e-18
8.90291e-19
7.72061e-19
6.66979e-19
5.64869e-19
4.70066e-19
3.66689e-19
2.75311e-19
1.6969e-19
9.60104e-20
2.38364e-20
3.16894e-21
6.38285e-21
8.89464e-20
1.15691e-18
4.08015e-18
2.01043e-17
8.63265e-17
1.46203e-16
1.76252e-15
1.74956e-16
4.2362e-13
2.42856e-09
3.87077e-09
8.23576e-10
2.43411e-09
8.69081e-12
7.23838e-13
9.28308e-14
2.14497e-14
7.46731e-15
3.06677e-15
1.38703e-15
6.90216e-16
3.74276e-16
2.17273e-16
1.33146e-16
8.53664e-17
5.69268e-17
3.93061e-17
2.79957e-17
2.05041e-17
1.53994e-17
1.18322e-17
9.28295e-18
7.42285e-18
6.04071e-18
4.99516e-18
4.18978e-18
3.55781e-18
3.04969e-18
2.63156e-18
2.27317e-18
1.95979e-18
1.66325e-18
1.39114e-18
1.10182e-18
8.43953e-19
5.48528e-19
3.31281e-19
1.07512e-19
2.27875e-20
2.70072e-21
1.0201e-19
1.74045e-18
6.85614e-18
3.20756e-17
1.40011e-16
2.25361e-16
2.56891e-15
1.49171e-15
3.79802e-13
3.37022e-09
4.37143e-09
5.91881e-10
3.00404e-10
5.50042e-10
1.88874e-11
9.84231e-13
1.51369e-13
4.19208e-14
1.4879e-14
6.06884e-15
2.79463e-15
1.42747e-15
7.90576e-16
4.6645e-16
2.89867e-16
1.88282e-16
1.271e-16
8.87578e-17
6.38756e-17
4.72202e-17
3.57606e-17
2.76819e-17
2.18581e-17
1.75771e-17
1.43703e-17
1.19237e-17
1.00218e-17
8.50982e-18
7.2801e-18
6.24404e-18
5.3518e-18
4.52959e-18
3.78473e-18
3.01749e-18
2.33118e-18
1.56494e-18
9.78701e-19
3.71403e-19
9.91261e-20
1.08379e-21
1.17935e-19
2.59441e-18
1.17138e-17
5.21847e-17
2.33992e-16
4.05551e-16
4.06412e-15
5.63583e-15
3.48717e-13
3.41184e-09
4.60859e-09
6.73526e-10
1.93872e-10
4.73776e-11
6.7685e-11
3.26013e-10
2.95399e-12
4.1508e-13
1.05509e-13
3.49424e-14
1.39106e-14
6.38066e-15
3.25378e-15
1.7984e-15
1.05998e-15
6.59046e-16
4.28842e-16
2.90233e-16
2.03285e-16
1.46753e-16
1.0882e-16
8.26538e-17
6.41457e-17
5.07647e-17
4.08874e-17
3.34529e-17
2.77455e-17
2.32681e-17
1.96747e-17
1.66994e-17
1.41783e-17
1.19151e-17
9.8964e-18
7.88726e-18
6.09534e-18
4.16301e-18
2.64557e-18
1.10243e-18
3.31114e-19
2.96208e-21
1.45827e-19
4.01505e-18
2.08278e-17
8.93088e-17
4.091e-16
8.05013e-16
6.80962e-15
1.49406e-14
3.41794e-13
3.21277e-09
4.39229e-09
7.74806e-10
2.02497e-10
3.67874e-11
2.20312e-11
1.36935e-11
2.14941e-11
1.75941e-10
2.47312e-12
3.98664e-13
1.1016e-13
4.02063e-14
1.74886e-14
8.58894e-15
4.61858e-15
2.66821e-15
1.63473e-15
1.05211e-15
7.06159e-16
4.91442e-16
3.52981e-16
2.60681e-16
1.97304e-16
1.52651e-16
1.20428e-16
9.66613e-17
7.87476e-17
6.49441e-17
5.40577e-17
4.52212e-17
3.78771e-17
3.14607e-17
2.58501e-17
2.04636e-17
1.57111e-17
1.0787e-17
6.87183e-18
3.01975e-18
9.57903e-19
1.67573e-20
2.06321e-19
6.72829e-18
3.94782e-17
1.64643e-16
7.59088e-16
1.69772e-15
1.19916e-14
3.3643e-14
3.70537e-13
3.01843e-09
3.97391e-09
8.47551e-10
2.1344e-10
3.90951e-11
2.03515e-11
8.80549e-12
4.76569e-12
4.40158e-12
7.21783e-12
8.018e-11
5.99755e-12
6.82014e-13
1.79466e-13
6.56833e-14
2.89865e-14
1.45015e-14
7.95627e-15
4.69038e-15
2.93037e-15
1.92105e-15
1.31162e-15
9.27302e-16
6.75644e-16
5.05429e-16
3.86888e-16
3.02149e-16
2.40046e-16
1.93422e-16
1.5755e-16
1.29167e-16
1.06164e-16
8.66732e-17
7.00666e-17
5.47331e-17
4.14661e-17
2.83221e-17
1.78805e-17
8.04904e-18
2.58244e-18
6.7906e-20
3.57505e-19
1.26903e-17
8.16959e-17
3.33431e-16
1.51814e-15
3.77256e-15
2.23591e-14
7.08324e-14
4.54904e-13
2.84711e-09
3.51395e-09
9.09294e-10
2.10921e-10
4.26572e-11
2.19258e-11
9.24396e-12
4.06773e-12
2.60219e-12
2.0546e-12
1.89986e-12
2.2784e-12
4.68381e-12
8.41146e-11
3.8541e-12
5.55452e-13
1.66929e-13
6.75382e-14
3.23768e-14
1.73843e-14
1.01414e-14
6.30793e-15
4.13122e-15
2.82296e-15
1.99901e-15
1.45888e-15
1.09234e-15
8.35697e-16
6.50747e-16
5.13723e-16
4.09177e-16
3.2739e-16
2.60711e-16
2.05853e-16
1.57444e-16
1.1679e-16
7.85416e-17
4.85909e-17
2.18936e-17
6.86119e-18
2.11972e-19
7.99695e-19
2.78838e-17
1.89039e-16
7.55768e-16
3.33229e-15
8.92921e-15
4.48723e-14
1.48267e-13
6.39176e-13
2.67717e-09
3.05843e-09
9.78383e-10
1.99817e-10
4.58797e-11
2.34379e-11
1.0537e-11
4.39412e-12
2.55072e-12
1.74177e-12
1.26384e-12
9.93043e-13
8.76394e-13
8.93235e-13
1.10665e-12
1.91553e-12
8.03666e-12
2.56869e-11
1.20668e-12
3.01041e-13
1.15858e-13
5.50994e-14
2.98291e-14
1.76574e-14
1.11678e-14
7.43447e-15
5.15505e-15
3.69343e-15
2.71632e-15
2.03868e-15
1.55176e-15
1.19146e-15
9.13631e-16
6.96436e-16
5.15707e-16
3.70549e-16
2.42421e-16
1.45093e-16
6.40686e-17
1.89909e-17
5.7014e-19
2.37421e-18
7.36231e-17
5.02353e-16
1.95971e-15
8.21517e-15
2.30246e-14
9.91603e-14
3.23461e-13
1.03339e-12
2.49878e-09
2.62355e-09
1.05832e-09
1.85785e-10
4.9249e-11
2.43905e-11
1.19814e-11
4.94229e-12
2.78753e-12
1.84206e-12
1.26029e-12
8.94908e-13
6.76918e-13
5.48341e-13
4.75537e-13
4.43919e-13
4.52102e-13
5.14824e-13
6.87472e-13
1.20186e-12
3.94943e-12
1.95757e-10
2.01182e-12
4.43816e-13
1.6907e-13
8.17342e-14
4.52867e-14
2.74265e-14
1.76756e-14
1.19144e-14
8.28774e-15
5.89069e-15
4.22207e-15
3.02987e-15
2.12501e-15
1.45032e-15
9.05848e-16
5.14892e-16
2.17591e-16
5.89593e-17
1.44092e-18
9.4859e-18
2.42339e-16
1.59262e-15
6.00941e-15
2.35386e-14
6.69477e-14
2.48993e-13
7.68953e-13
1.9445e-12
2.31252e-09
2.22332e-09
1.14378e-09
1.71454e-10
5.32368e-11
2.4918e-11
1.34791e-11
5.56254e-12
3.09629e-12
2.04305e-12
1.38844e-12
9.61683e-13
6.96198e-13
5.28805e-13
4.19127e-13
3.45761e-13
2.97161e-13
2.66735e-13
2.50952e-13
2.48769e-13
2.61894e-13
2.96606e-13
3.69333e-13
5.26958e-13
9.43848e-13
2.78363e-12
2.81684e-11
3.55117e-12
6.6778e-13
2.46136e-13
1.17514e-13
6.41989e-14
3.77661e-14
2.31854e-14
1.43105e-14
8.75059e-15
4.97109e-15
2.57374e-15
9.98885e-16
2.35854e-16
3.79021e-18
5.35888e-17
1.07151e-15
6.49158e-15
2.3279e-14
8.34487e-14
2.328e-13
7.4757e-13
2.10507e-12
4.38303e-12
2.12066e-09
1.86397e-09
1.22745e-09
1.57868e-10
5.78879e-11
2.51503e-11
1.50573e-11
6.25436e-12
3.43749e-12
2.27818e-12
1.56116e-12
1.08034e-12
7.74493e-13
5.78167e-13
4.46337e-13
3.54634e-13
2.89654e-13
2.43212e-13
2.09987e-13
1.86492e-13
1.70459e-13
1.60473e-13
1.55788e-13
1.56211e-13
1.62193e-13
1.75047e-13
1.97554e-13
2.35424e-13
3.01102e-13
4.26008e-13
7.08925e-13
1.63042e-12
1.00763e-11
1.31985e-11
1.06067e-12
2.8358e-13
9.84884e-14
3.59635e-14
1.06544e-14
1.88528e-15
1.33596e-17
5.57445e-16
8.10751e-15
4.20638e-14
1.36295e-13
4.27219e-13
1.10506e-12
2.99045e-12
7.30722e-12
1.2689e-11
1.92488e-09
1.54593e-09
1.30273e-09
1.45796e-10
6.29568e-11
2.51558e-11
1.67196e-11
7.04471e-12
3.81588e-12
2.53764e-12
1.75937e-12
1.22476e-12
8.78498e-13
6.54396e-13
5.02589e-13
3.95575e-13
3.1837e-13
2.61823e-13
2.19893e-13
1.88497e-13
1.64839e-13
1.46976e-13
1.33545e-13
1.23569e-13
1.16356e-13
1.11412e-13
1.08389e-13
1.07063e-13
1.07269e-13
1.08955e-13
1.11993e-13
1.16468e-13
1.21997e-13
1.28823e-13
1.35534e-13
1.4256e-13
1.45421e-13
1.44389e-13
1.27764e-13
9.53865e-14
9.91172e-14
6.14504e-13
7.95086e-13
1.60005e-12
3.01009e-12
6.11273e-12
1.15833e-11
2.25101e-11
4.13924e-11
5.72926e-11
1.72738e-09
1.26905e-09
1.36395e-09
1.36135e-10
6.80392e-11
2.50037e-11
1.84313e-11
7.95708e-12
4.24246e-12
2.82508e-12
1.98267e-12
1.39122e-12
1.00106e-12
7.47194e-13
5.74672e-13
4.523e-13
3.63267e-13
2.97405e-13
2.4797e-13
2.10367e-13
1.8142e-13
1.58897e-13
1.41202e-13
1.27162e-13
1.15905e-13
1.06771e-13
9.92438e-14
9.29226e-14
8.74492e-14
8.25502e-14
7.7872e-14
7.31971e-14
6.80136e-14
6.21771e-14
5.48898e-14
4.62985e-14
3.55443e-14
2.38072e-14
1.16969e-14
2.85149e-15
4.73441e-18
4.91322e-15
8.86546e-14
7.06446e-13
4.09148e-12
2.50838e-11
1.829e-10
1.55086e-09
2.27219e-09
2.14806e-11
1.53093e-09
1.033e-09
1.40621e-09
1.29834e-10
7.26127e-11
2.47942e-11
2.01317e-11
9.01047e-12
4.7273e-12
3.14546e-12
2.23448e-12
1.5823e-12
1.14305e-12
8.55649e-13
6.60123e-13
5.20978e-13
4.1924e-13
3.4358e-13
2.86469e-13
2.42738e-13
2.08797e-13
1.8211e-13
1.60854e-13
1.43684e-13
1.29592e-13
1.1781e-13
1.0774e-13
9.89234e-14
9.09603e-14
8.35613e-14
7.63806e-14
6.92338e-14
6.17185e-14
5.3793e-14
4.4989e-14
3.56092e-14
2.54208e-14
1.55275e-14
6.79235e-15
1.33629e-15
6.82577e-20
3.04446e-15
4.12103e-14
2.54342e-13
1.11311e-12
4.4301e-12
1.6648e-11
5.90463e-11
1.96719e-10
3.47717e-10
1.33848e-09
8.36611e-10
1.42551e-09
1.27797e-10
7.60787e-11
2.46578e-11
2.17441e-11
1.02213e-11
5.28061e-12
3.50344e-12
2.51826e-12
1.80178e-12
1.30757e-12
9.81838e-13
7.60114e-13
6.01983e-13
4.85926e-13
3.993e-13
3.337e-13
2.83304e-13
2.44044e-13
2.13037e-13
1.88199e-13
1.67983e-13
1.51223e-13
1.37036e-13
1.24726e-13
1.13771e-13
1.03723e-13
9.42688e-14
8.50487e-14
7.58892e-14
6.64206e-14
5.66424e-14
4.62071e-14
3.54769e-14
2.44536e-14
1.42363e-14
5.83235e-15
9.84841e-16
3.24692e-19
3.22204e-15
3.75456e-14
2.08808e-13
8.42822e-13
2.98742e-12
9.82962e-12
2.86897e-11
7.37653e-11
1.07198e-10
1.15298e-09
6.77573e-10
1.41895e-09
1.30824e-10
7.78762e-11
2.47396e-11
2.31851e-11
1.16019e-11
5.91403e-12
3.90404e-12
2.83725e-12
2.05359e-12
1.49833e-12
1.12876e-12
8.77022e-13
6.97194e-13
5.64745e-13
4.65553e-13
3.90246e-13
3.32272e-13
2.8702e-13
2.51203e-13
2.22431e-13
1.98925e-13
1.79332e-13
1.62621e-13
1.47982e-13
1.34813e-13
1.22597e-13
1.10985e-13
9.95875e-14
8.82238e-14
7.65304e-14
6.45264e-14
5.19374e-14
3.91809e-14
2.64432e-14
1.49145e-14
5.82349e-15
8.62339e-16
3.18989e-18
4.00888e-15
4.21086e-14
2.18947e-13
8.43927e-13
2.79965e-12
8.54964e-12
2.24566e-11
5.00308e-11
6.41471e-11
9.77345e-10
5.5256e-10
1.38514e-09
1.39596e-10
7.76235e-11
2.5174e-11
2.43763e-11
1.31578e-11
6.64119e-12
4.35313e-12
3.19467e-12
2.34178e-12
1.71944e-12
1.29987e-12
1.01375e-12
8.09105e-13
6.57856e-13
5.44187e-13
4.57671e-13
3.9095e-13
3.38796e-13
2.97459e-13
2.64199e-13
2.36962e-13
2.14171e-13
1.94623e-13
1.77369e-13
1.61702e-13
1.47027e-13
1.32943e-13
1.19019e-13
1.05057e-13
9.06908e-14
7.5951e-14
6.06288e-14
4.52076e-14
3.00688e-14
1.65664e-14
6.22175e-15
8.19669e-16
1.14749e-17
5.2245e-15
5.07706e-14
2.51168e-13
9.35435e-13
2.95767e-12
8.52601e-12
2.07137e-11
4.13739e-11
4.79663e-11
8.14267e-10
4.57428e-10
1.32445e-09
1.5464e-10
7.5189e-11
2.60627e-11
2.52565e-11
1.48826e-11
7.47785e-12
4.85769e-12
3.59394e-12
2.67045e-12
1.97542e-12
1.4991e-12
1.1736e-12
9.40632e-13
7.67862e-13
6.37529e-13
5.38063e-13
4.6122e-13
4.01076e-13
3.53354e-13
3.14906e-13
2.83357e-13
2.56872e-13
2.34038e-13
2.13739e-13
1.95145e-13
1.77563e-13
1.60531e-13
1.43569e-13
1.26457e-13
1.08823e-13
9.07104e-14
7.19838e-14
5.32117e-14
3.49992e-14
1.89308e-14
6.88356e-15
8.18949e-16
2.71752e-17
6.80598e-15
6.2293e-14
2.9634e-13
1.07148e-12
3.25612e-12
8.91681e-12
2.02695e-11
3.68708e-11
3.91361e-11
6.66053e-10
3.8753e-10
1.23911e-09
1.76188e-10
7.07263e-11
2.74573e-11
2.57947e-11
1.67538e-11
8.44171e-12
5.4259e-12
4.03876e-12
3.04374e-12
2.2712e-12
1.73089e-12
1.36038e-12
1.09512e-12
8.97788e-13
7.48332e-13
6.33937e-13
5.45398e-13
4.76014e-13
4.20905e-13
3.76453e-13
3.39909e-13
3.09129e-13
2.82453e-13
2.58566e-13
2.36488e-13
2.15414e-13
1.94806e-13
1.74134e-13
1.53152e-13
1.31488e-13
1.09204e-13
8.6256e-14
6.3325e-14
4.1279e-14
2.20036e-14
7.79448e-15
8.53377e-16
5.01648e-17
8.68599e-15
7.59339e-14
3.49938e-13
1.23088e-12
3.60977e-12
9.4148e-12
2.01315e-11
3.36506e-11
3.29722e-11
5.34425e-10
3.38038e-10
1.13313e-09
2.03956e-10
6.47037e-11
2.93351e-11
2.60002e-11
1.87275e-11
9.5516e-12
6.06723e-12
4.53331e-12
3.46569e-12
2.61203e-12
2.00019e-12
1.57835e-12
1.27637e-12
1.05111e-12
8.79797e-13
7.48249e-13
6.4624e-13
5.66204e-13
5.02577e-13
4.51197e-13
4.08878e-13
3.73113e-13
3.41946e-13
3.13822e-13
2.87585e-13
2.62293e-13
2.37326e-13
2.12098e-13
1.86336e-13
1.59684e-13
1.3223e-13
1.04047e-13
7.59671e-14
4.91699e-14
2.59221e-14
9.00747e-15
9.30105e-16
7.70395e-17
1.07603e-14
9.09757e-14
4.0851e-13
1.39943e-12
3.96844e-12
9.86855e-12
1.99007e-11
3.0751e-11
2.7988e-11
4.20395e-10
3.04177e-10
1.01208e-09
2.36863e-10
5.78848e-11
3.15682e-11
2.59295e-11
2.07378e-11
1.08258e-11
6.79249e-12
5.08241e-12
3.94011e-12
3.00338e-12
2.31253e-12
1.83236e-12
1.48869e-12
1.23182e-12
1.03563e-12
8.84455e-13
7.66992e-13
6.7473e-13
6.01325e-13
5.41989e-13
4.93028e-13
4.51502e-13
4.15102e-13
3.81988e-13
3.50787e-13
3.20404e-13
2.90117e-13
2.59288e-13
2.27621e-13
1.94785e-13
1.6092e-13
1.26245e-13
9.1791e-14
5.91076e-14
3.09353e-14
1.06292e-14
1.06737e-15
1.0079e-16
1.28677e-14
1.06533e-13
4.68509e-13
1.56474e-12
4.29492e-12
1.01895e-11
1.94042e-11
2.78386e-11
2.36478e-11
3.24185e-10
2.81408e-10
8.83287e-10
2.72683e-10
5.12669e-11
3.39141e-11
2.56806e-11
2.27001e-11
1.22794e-11
7.61386e-12
5.69172e-12
4.4706e-12
3.45075e-12
2.6739e-12
2.12779e-12
1.73693e-12
1.44441e-12
1.22007e-12
1.04656e-12
9.11455e-13
8.0523e-13
7.20666e-13
6.52252e-13
5.95698e-13
5.47556e-13
5.05092e-13
4.66123e-13
4.29018e-13
3.925e-13
3.55732e-13
3.18025e-13
2.79067e-13
2.38574e-13
1.96764e-13
1.5404e-13
1.11692e-13
7.17094e-14
3.74124e-14
1.28277e-14
1.29832e-15
1.12014e-16
1.47761e-14
1.21421e-13
5.2566e-13
1.71385e-12
4.55615e-12
1.03172e-11
1.85667e-11
2.48091e-11
1.97338e-11
2.45137e-10
2.65764e-10
7.5546e-10
3.07923e-10
4.5912e-11
3.60547e-11
2.53806e-11
2.45187e-11
1.39208e-11
8.54502e-12
6.36796e-12
5.06053e-12
3.95946e-12
3.0907e-12
2.4706e-12
2.02647e-12
1.69392e-12
1.43793e-12
1.23916e-12
1.08404e-12
9.61972e-13
8.64759e-13
7.86066e-13
7.20901e-13
6.6522e-13
6.15776e-13
5.69975e-13
5.25875e-13
4.81988e-13
4.37346e-13
3.91211e-13
3.43271e-13
2.93315e-13
2.41674e-13
1.88981e-13
1.3686e-13
8.78191e-14
4.58781e-14
1.58567e-14
1.68125e-15
1.02463e-16
1.61829e-14
1.34097e-13
5.74653e-13
1.83219e-12
4.71973e-12
1.02044e-11
1.73582e-11
2.16445e-11
1.6143e-11
1.81864e-10
2.53986e-10
6.35866e-10
3.38452e-10
4.26568e-11
3.76468e-11
2.51648e-11
2.60991e-11
1.57454e-11
9.60079e-12
7.11889e-12
5.71316e-12
4.53436e-12
3.56955e-12
2.86723e-12
2.3632e-12
1.98596e-12
1.69463e-12
1.4675e-12
1.28983e-12
1.14992e-12
1.03849e-12
9.48258e-13
8.73426e-13
8.09233e-13
7.51823e-13
6.98106e-13
6.45765e-13
5.93063e-13
5.38889e-13
4.82461e-13
4.23487e-13
3.61866e-13
2.98089e-13
2.33078e-13
1.68866e-13
1.08582e-13
5.70743e-14
2.00987e-14
2.3195e-15
7.10495e-17
1.67415e-14
1.42688e-13
6.09196e-13
1.90371e-12
4.75415e-12
9.81557e-12
1.57776e-11
1.8368e-11
1.28274e-11
1.32553e-10
2.43261e-10
5.28261e-10
3.60625e-10
4.1967e-11
3.83775e-11
2.51497e-11
2.73665e-11
1.77306e-11
1.07963e-11
7.95324e-12
6.43177e-12
5.17962e-12
4.11707e-12
3.3246e-12
2.75354e-12
2.32663e-12
1.99616e-12
1.73747e-12
1.53461e-12
1.37477e-12
1.24752e-12
1.1445e-12
1.05894e-12
9.85256e-13
9.18848e-13
8.56035e-13
7.94049e-13
7.30859e-13
6.65196e-13
5.96249e-13
5.23776e-13
4.47828e-13
3.69119e-13
2.88926e-13
2.09787e-13
1.35556e-13
7.20529e-14
2.6134e-14
3.39809e-15
3.00691e-17
1.61275e-14
1.45169e-13
6.22499e-13
1.91218e-12
4.6319e-12
9.13038e-12
1.38529e-11
1.50349e-11
9.77924e-12
9.51108e-11
2.31354e-10
4.34156e-10
3.7207e-10
4.40335e-11
3.80783e-11
2.54044e-11
2.82843e-11
1.98328e-11
1.21459e-11
8.88064e-12
7.22001e-12
5.89854e-12
4.73957e-12
3.84993e-12
3.20438e-12
2.72255e-12
2.34908e-12
2.05563e-12
1.82492e-12
1.64307e-12
1.49842e-12
1.3814e-12
1.28412e-12
1.19999e-12
1.12355e-12
1.0504e-12
9.7721e-13
9.01624e-13
8.22193e-13
7.38097e-13
6.49186e-13
5.55724e-13
4.58718e-13
3.59887e-13
2.62369e-13
1.70865e-13
9.23111e-14
3.48486e-14
5.24987e-15
3.53169e-18
1.41495e-14
1.39721e-13
6.08264e-13
1.84374e-12
4.33476e-12
8.15213e-12
1.16476e-11
1.17342e-11
7.02831e-12
6.73451e-11
2.16974e-10
3.54118e-10
3.71901e-10
4.88726e-11
3.68215e-11
2.59338e-11
2.88624e-11
2.19876e-11
1.36609e-11
9.91149e-12
8.08225e-12
6.69363e-12
5.44286e-12
4.45062e-12
3.72303e-12
3.1808e-12
2.76051e-12
2.4292e-12
2.16805e-12
1.96218e-12
1.79868e-12
1.66659e-12
1.55674e-12
1.46134e-12
1.37389e-12
1.28911e-12
1.20304e-12
1.11292e-12
1.0171e-12
9.14781e-13
8.05969e-13
6.91215e-13
5.71908e-13
4.50301e-13
3.30243e-13
2.17405e-13
1.19986e-13
4.76007e-14
8.47288e-15
2.41667e-18
1.08975e-14
1.25279e-13
5.62202e-13
1.69044e-12
3.86061e-12
6.9164e-12
9.26621e-12
8.59014e-12
4.63782e-12
4.71851e-11
1.99736e-10
2.87878e-10
3.60619e-10
5.6282e-11
3.48999e-11
2.66774e-11
2.91552e-11
2.41148e-11
1.5347e-11
1.10567e-11
9.02379e-12
7.56675e-12
6.23185e-12
5.13409e-12
4.31721e-12
3.70893e-12
3.2381e-12
2.86607e-12
2.57211e-12
2.34042e-12
2.15682e-12
2.00885e-12
1.88581e-12
1.77852e-12
1.67922e-12
1.58158e-12
1.48087e-12
1.37384e-12
1.25866e-12
1.13458e-12
1.00184e-12
8.6137e-13
7.15047e-13
5.65771e-13
4.18212e-13
2.79134e-13
1.5813e-13
6.6474e-14
1.41338e-14
9.54762e-17
6.88333e-15
1.02223e-13
4.83952e-13
1.45448e-12
3.2303e-12
5.49767e-12
6.85529e-12
5.75498e-12
2.69172e-12
3.28124e-11
1.79971e-10
2.34375e-10
3.39876e-10
6.5733e-11
3.27379e-11
2.75201e-11
2.92517e-11
2.61275e-11
1.71996e-11
1.23273e-11
1.0051e-11
8.51941e-12
7.1104e-12
5.90744e-12
4.99487e-12
4.31489e-12
3.78998e-12
3.37476e-12
3.046e-12
2.78703e-12
2.58245e-12
2.41816e-12
2.28171e-12
2.16224e-12
2.05049e-12
1.93887e-12
1.82173e-12
1.69526e-12
1.55742e-12
1.40757e-12
1.24628e-12
1.07498e-12
8.96172e-13
7.13518e-13
5.32619e-13
3.61451e-13
2.111e-13
9.46582e-14
2.41106e-14
7.34809e-16
3.07274e-15
7.30299e-14
3.79007e-13
1.15204e-12
2.49234e-12
4.00997e-12
4.59362e-12
3.39012e-12
1.26952e-12
2.27172e-11
1.58555e-10
1.91964e-10
3.12123e-10
7.63392e-11
3.07994e-11
2.83152e-11
2.92569e-11
2.79456e-11
1.92002e-11
1.37331e-11
1.11712e-11
9.55324e-12
8.08118e-12
6.77724e-12
5.76416e-12
5.00701e-12
4.42475e-12
3.96439e-12
3.59943e-12
3.31224e-12
3.08633e-12
2.90583e-12
2.75628e-12
2.62485e-12
2.50044e-12
2.37398e-12
2.23869e-12
2.09011e-12
1.92601e-12
1.74593e-12
1.55088e-12
1.34295e-12
1.1254e-12
9.0281e-13
6.81818e-13
4.717e-13
2.85096e-13
1.37011e-13
4.16509e-14
3.22023e-15
6.1796e-16
4.2542e-14
2.599e-13
8.15106e-13
1.72249e-12
2.59725e-12
2.6687e-12
1.63231e-12
4.07499e-13
1.56991e-11
1.36722e-10
1.58717e-10
2.8014e-10
8.69437e-11
2.95078e-11
2.89278e-11
2.92702e-11
2.95108e-11
2.13145e-11
1.52824e-11
1.23925e-11
1.06705e-11
9.14574e-12
7.74923e-12
6.63318e-12
5.79397e-12
5.15143e-12
4.64465e-12
4.24286e-12
3.92728e-12
3.68041e-12
3.48457e-12
3.32298e-12
3.18047e-12
3.04377e-12
2.90199e-12
2.74703e-12
2.57368e-12
2.3795e-12
2.16432e-12
1.92973e-12
1.6787e-12
1.41541e-12
1.14551e-12
8.76768e-13
6.19833e-13
3.88888e-13
2.00863e-13
7.22464e-14
1.06013e-14
2.15644e-18
1.72628e-14
1.45484e-13
4.89186e-13
1.01497e-12
1.41033e-12
1.23794e-12
5.47032e-13
4.9733e-14
1.08497e-11
1.15621e-10
1.32711e-10
2.46687e-10
9.63101e-11
2.91774e-11
2.92829e-11
2.93677e-11
3.07975e-11
2.34931e-11
1.69797e-11
1.37236e-11
1.18747e-11
1.0305e-11
8.8282e-12
7.60995e-12
6.68478e-12
5.9795e-12
5.42584e-12
4.98758e-12
4.64443e-12
4.37795e-12
4.1686e-12
3.99701e-12
3.84521e-12
3.69736e-12
3.54039e-12
3.3646e-12
3.16394e-12
2.93575e-12
2.68028e-12
2.39993e-12
2.09873e-12
1.78202e-12
1.45671e-12
1.13177e-12
8.19246e-13
5.34788e-13
2.9714e-13
1.24943e-13
2.9213e-14
7.91004e-16
2.98574e-15
5.69877e-14
2.24678e-13
4.62944e-13
5.70723e-13
3.7895e-13
7.70172e-14
2.89569e-16
7.51359e-12
9.59715e-11
1.12203e-10
2.14126e-10
1.03398e-10
2.99534e-11
2.93854e-11
2.95885e-11
3.18164e-11
2.56756e-11
1.88238e-11
1.51734e-11
1.31706e-11
1.15595e-11
1.00178e-11
8.70211e-12
7.68873e-12
6.91895e-12
6.31881e-12
5.84569e-12
5.47704e-12
5.19353e-12
4.97375e-12
4.79543e-12
4.63732e-12
4.48049e-12
4.30927e-12
4.11207e-12
3.88185e-12
3.61578e-12
3.31469e-12
2.98202e-12
2.62317e-12
2.24488e-12
1.85551e-12
1.46534e-12
1.08782e-12
7.39888e-13
4.41875e-13
2.1421e-13
7.10563e-14
9.47213e-15
2.83967e-18
9.7093e-15
6.08123e-14
1.28672e-13
1.25327e-13
3.92737e-14
1.64488e-17
1.10669e-13
5.22196e-12
7.8238e-11
9.57233e-11
1.83997e-10
1.07578e-10
3.1805e-11
2.93178e-11
2.99307e-11
3.26093e-11
2.77983e-11
2.08051e-11
1.67495e-11
1.45645e-11
1.29105e-11
1.13207e-11
9.91674e-12
8.81531e-12
7.98022e-12
7.33504e-12
6.83006e-12
6.43956e-12
6.14314e-12
5.91754e-12
5.73729e-12
5.57734e-12
5.41503e-12
5.2316e-12
5.01325e-12
4.75177e-12
4.44424e-12
4.09224e-12
3.70059e-12
3.27641e-12
2.82816e-12
2.36588e-12
1.90128e-12
1.44919e-12
1.02761e-12
6.58144e-13
3.62451e-13
1.57191e-13
4.43203e-14
4.52678e-15
3.63014e-18
3.00576e-15
8.05258e-15
2.6003e-15
4.67676e-16
8.82331e-14
8.19334e-13
3.64345e-12
6.27656e-11
8.21332e-11
1.57061e-10
1.08683e-10
3.45563e-11
2.92211e-11
3.03646e-11
3.32392e-11
2.98047e-11
2.29041e-11
1.84582e-11
1.60636e-11
1.43596e-11
1.27387e-11
1.12601e-11
1.0074e-11
9.17419e-12
8.48658e-12
7.95434e-12
7.54749e-12
7.24419e-12
7.01926e-12
6.84377e-12
6.68824e-12
6.52562e-12
6.33346e-12
6.09534e-12
5.80175e-12
5.44972e-12
5.04188e-12
4.5848e-12
4.08778e-12
3.56135e-12
3.0176e-12
2.46978e-12
1.93413e-12
1.4295e-12
9.78419e-13
6.03155e-13
3.22143e-13
1.40687e-13
4.67535e-14
1.11979e-14
2.65342e-15
2.54476e-15
1.65371e-14
1.34423e-13
7.53225e-13
2.78764e-12
2.55152e-12
4.96878e-11
7.06238e-11
1.33592e-10
1.06962e-10
3.79157e-11
2.92561e-11
3.0853e-11
3.37764e-11
3.16539e-11
2.50917e-11
2.03028e-11
1.7676e-11
1.59103e-11
1.42731e-11
1.27377e-11
1.14741e-11
1.05122e-11
9.78611e-12
9.23297e-12
8.81742e-12
8.5155e-12
8.29999e-12
8.13817e-12
7.99552e-12
7.83981e-12
7.64419e-12
7.3892e-12
7.06383e-12
6.66517e-12
6.19728e-12
5.66894e-12
5.09215e-12
4.48007e-12
3.84723e-12
3.20867e-12
2.58214e-12
1.98723e-12
1.44721e-12
9.84521e-13
6.19043e-13
3.58581e-13
1.97622e-13
1.15295e-13
9.13285e-14
1.26226e-13
3.01194e-13
9.02427e-13
2.66061e-12
6.71405e-12
1.79269e-12
3.89253e-11
6.06636e-11
1.13538e-10
1.02946e-10
4.15199e-11
2.95631e-11
3.13688e-11
3.42854e-11
3.33262e-11
2.73304e-11
2.2282e-11
1.94095e-11
1.75675e-11
1.59254e-11
1.4354e-11
1.30247e-11
1.20059e-11
1.12469e-11
1.06811e-11
1.0267e-11
9.97732e-12
9.78262e-12
9.64603e-12
9.52731e-12
9.38816e-12
9.19657e-12
8.92949e-12
8.57426e-12
8.1282e-12
7.59719e-12
6.99284e-12
6.33057e-12
5.6268e-12
4.89906e-12
4.16458e-12
3.44296e-12
2.7546e-12
2.12375e-12
1.57315e-12
1.12482e-12
7.90047e-13
5.73119e-13
4.68722e-13
4.90241e-13
7.03324e-13
1.34008e-12
2.92483e-12
6.48377e-12
1.32247e-11
1.26287e-12
3.02571e-11
5.19279e-11
9.66277e-11
9.72927e-11
4.49954e-11
3.02335e-11
3.19061e-11
3.48161e-11
3.48252e-11
2.95795e-11
2.43896e-11
2.12714e-11
1.93376e-11
1.76977e-11
1.61129e-11
1.47343e-11
1.36671e-11
1.2883e-11
1.23149e-11
1.19147e-11
1.16513e-11
1.14918e-11
1.13951e-11
1.13143e-11
1.12043e-11
1.10268e-11
1.07548e-11
1.03737e-11
9.8812e-12
9.28567e-12
8.60227e-12
7.85068e-12
7.05141e-12
6.22581e-12
5.39392e-12
4.57782e-12
3.79925e-12
3.0843e-12
2.45713e-12
1.94434e-12
1.56444e-12
1.34e-12
1.29625e-12
1.51194e-12
2.16267e-12
3.68084e-12
6.81344e-12
1.28013e-11
2.27739e-11
8.91401e-13
2.33922e-11
4.42305e-11
8.24707e-11
9.06515e-11
4.80208e-11
3.12967e-11
3.24833e-11
3.54011e-11
3.61739e-11
3.17999e-11
2.66128e-11
2.32673e-11
2.12282e-11
1.95934e-11
1.80175e-11
1.66107e-11
1.55078e-11
1.47087e-11
1.41509e-11
1.37804e-11
1.35602e-11
1.3454e-11
1.34152e-11
1.33899e-11
1.33248e-11
1.31747e-11
1.29075e-11
1.2507e-11
1.19714e-11
1.13122e-11
1.0549e-11
9.70693e-12
8.81154e-12
7.88912e-12
6.96349e-12
6.06027e-12
5.20366e-12
4.42348e-12
3.74761e-12
3.21204e-12
2.84934e-12
2.71376e-12
2.88083e-12
3.52779e-12
4.96948e-12
7.85132e-12
1.30806e-11
2.20105e-11
3.55706e-11
6.30105e-13
1.8024e-11
3.74636e-11
7.06416e-11
8.35823e-11
5.03714e-11
3.27205e-11
3.31382e-11
3.60586e-11
3.74088e-11
3.39604e-11
2.89333e-11
2.54e-11
2.32474e-11
2.16171e-11
2.00714e-11
1.86611e-11
1.75396e-11
1.67389e-11
1.62066e-11
1.58842e-11
1.57283e-11
1.56971e-11
1.57382e-11
1.57897e-11
1.5789e-11
1.56829e-11
1.54338e-11
1.50232e-11
1.44507e-11
1.37314e-11
1.28908e-11
1.19603e-11
1.09724e-11
9.95938e-12
8.95035e-12
7.97605e-12
7.0651e-12
6.25381e-12
5.57794e-12
5.08957e-12
4.84505e-12
4.9467e-12
5.53948e-12
6.92456e-12
9.5604e-12
1.42823e-11
2.20634e-11
3.42773e-11
5.15665e-11
4.45872e-13
1.38652e-11
3.1555e-11
6.07378e-11
7.65101e-11
5.19377e-11
3.4421e-11
3.39146e-11
3.67978e-11
3.85722e-11
3.60412e-11
3.13283e-11
2.7669e-11
2.54032e-11
2.37749e-11
2.2278e-11
2.08919e-11
1.97738e-11
1.89886e-11
1.85e-11
1.82475e-11
1.81803e-11
1.82502e-11
1.83976e-11
1.85513e-11
1.86386e-11
1.8597e-11
1.83827e-11
1.7975e-11
1.73749e-11
1.66025e-11
1.56902e-11
1.46779e-11
1.3606e-11
1.25149e-11
1.14408e-11
1.04219e-11
9.49366e-12
8.70313e-12
8.09923e-12
7.75856e-12
7.77205e-12
8.30585e-12
9.58798e-12
1.2053e-11
1.62813e-11
2.32467e-11
3.38865e-11
4.95263e-11
7.04684e-11
3.15794e-13
1.06634e-11
2.64468e-11
5.24086e-11
6.97173e-11
5.27169e-11
3.62797e-11
3.48461e-11
3.76242e-11
3.97053e-11
3.80359e-11
3.37728e-11
3.00696e-11
2.77022e-11
2.60742e-11
2.46415e-11
2.33087e-11
2.22209e-11
2.14727e-11
2.10492e-11
2.08916e-11
2.09419e-11
2.11433e-11
2.14278e-11
2.17139e-11
2.19171e-11
2.19647e-11
2.18059e-11
2.14175e-11
2.08029e-11
1.99882e-11
1.90144e-11
1.79314e-11
1.67897e-11
1.56402e-11
1.45283e-11
1.35023e-11
1.26085e-11
1.19091e-11
1.14721e-11
1.1408e-11
1.18518e-11
1.30445e-11
1.53004e-11
1.91798e-11
2.53399e-11
3.48291e-11
4.84633e-11
6.74722e-11
9.18057e-11
2.23926e-13
8.20558e-12
2.20834e-11
4.53665e-11
6.33697e-11
5.27832e-11
3.8167e-11
3.59475e-11
3.8544e-11
4.08439e-11
3.99506e-11
3.62427e-11
3.25929e-11
3.0149e-11
2.85224e-11
2.71671e-11
2.59169e-11
2.48903e-11
2.42055e-11
2.38725e-11
2.38384e-11
2.40387e-11
2.44068e-11
2.48641e-11
2.53172e-11
2.56689e-11
2.58346e-11
2.57561e-11
2.54076e-11
2.47954e-11
2.39533e-11
2.29323e-11
2.17949e-11
2.06039e-11
1.9423e-11
1.83097e-11
1.73258e-11
1.65319e-11
1.60106e-11
1.58556e-11
1.62177e-11
1.7283e-11
1.93718e-11
2.2874e-11
2.84507e-11
3.67827e-11
4.89299e-11
6.5523e-11
8.76736e-11
1.15007e-10
1.59066e-13
6.32037e-12
1.83975e-11
3.93835e-11
5.75493e-11
5.22551e-11
3.99646e-11
3.72127e-11
3.95654e-11
4.20175e-11
4.18014e-11
3.87185e-11
3.52263e-11
3.27459e-11