/*--------------------------------*- C++ -*----------------------------------*\
  =========                 |
  \\      /  F ield         | OpenFOAM: The Open Source CFD Toolbox
   \\    /   O peration     | Website:  https://openfoam.org
    \\  /    A nd           | Version:  7
     \\/     M anipulation  |
\*---------------------------------------------------------------------------*/
FoamFile
{
    version     2.0;
    format      ascii;
    class       surfaceScalarField;
    location    "0.3";
    object      phi;
}
// * * * * * * * * * * * * * * * * * * * * * * * * * * * * * * * * * * * * * //

dimensions      [0 3 -1 0 0 0 0];

internalField   nonuniform List<scalar> 
139350
(
6.45126e-08
9.21189e-08
3.19661e-08
3.25465e-08
2.3062e-08
8.90412e-09
1.95785e-08
3.48355e-09
1.76278e-08
1.95066e-09
1.61989e-08
1.42891e-09
1.50673e-08
1.13161e-09
1.41563e-08
9.10973e-10
1.34073e-08
7.49011e-10
1.27769e-08
6.30378e-10
1.22364e-08
5.40539e-10
1.17664e-08
4.70036e-10
1.13531e-08
4.13271e-10
1.09864e-08
3.66725e-10
1.06584e-08
3.27993e-10
1.0363e-08
2.95356e-10
1.00955e-08
2.67549e-10
9.85185e-09
2.43624e-10
9.62899e-09
2.2286e-10
9.42429e-09
2.047e-10
9.23558e-09
1.88708e-10
9.06104e-09
1.74539e-10
8.89912e-09
1.61917e-10
8.74851e-09
1.50617e-10
8.60805e-09
1.4046e-10
8.47675e-09
1.31295e-10
8.35375e-09
1.23001e-10
8.23827e-09
1.1548e-10
8.12962e-09
1.08646e-10
8.02718e-09
1.02442e-10
7.93038e-09
9.68002e-11
7.83867e-09
9.17074e-11
7.75158e-09
8.70971e-11
7.66856e-09
8.30181e-11
7.58919e-09
7.93661e-11
7.51288e-09
7.63084e-11
7.43925e-09
7.36353e-11
7.36752e-09
7.17253e-11
7.29734e-09
7.01834e-11
7.22766e-09
6.96834e-11
7.15797e-09
6.96866e-11
7.08702e-09
7.09509e-11
7.01341e-09
7.36121e-11
6.93665e-09
7.67619e-11
6.85128e-09
8.5364e-11
6.7626e-09
8.86839e-11
6.64704e-09
1.15554e-10
6.54927e-09
9.77761e-11
6.22703e-09
3.22242e-10
-2.70216e-09
8.92919e-09
1.25944e-07
1.27619e-07
9.12927e-08
6.71976e-08
7.19434e-08
2.82534e-08
6.12319e-08
1.4195e-08
5.47999e-08
8.38275e-09
5.03094e-08
5.91936e-09
4.68296e-08
4.61141e-09
4.40213e-08
3.71931e-09
4.17037e-08
3.06659e-09
3.97514e-08
2.58264e-09
3.80773e-08
2.21466e-09
3.66213e-08
1.92604e-09
3.53407e-08
1.69384e-09
3.4204e-08
1.50347e-09
3.3187e-08
1.34502e-09
3.22709e-08
1.21146e-09
3.14408e-08
1.09763e-09
3.06848e-08
9.9965e-10
2.9993e-08
9.14578e-10
2.93576e-08
8.40139e-10
2.87718e-08
7.74551e-10
2.82299e-08
7.164e-10
2.77273e-08
6.64557e-10
2.72598e-08
6.18103e-10
2.68239e-08
5.76294e-10
2.64167e-08
5.38514e-10
2.60355e-08
5.0426e-10
2.56778e-08
4.73115e-10
2.53417e-08
4.44731e-10
2.50253e-08
4.18845e-10
2.47269e-08
3.95206e-10
2.44449e-08
3.73687e-10
2.4178e-08
3.54076e-10
2.39245e-08
3.36438e-10
2.36834e-08
3.20486e-10
2.34531e-08
3.06642e-10
2.32324e-08
2.94304e-10
2.30195e-08
2.84638e-10
2.28134e-08
2.76247e-10
2.26113e-08
2.71806e-10
2.24128e-08
2.68252e-10
2.22127e-08
2.7106e-10
2.20119e-08
2.74409e-10
2.18008e-08
2.87846e-10
2.15825e-08
3.03613e-10
2.13397e-08
3.31508e-10
2.10716e-08
3.83663e-10
2.07866e-08
3.82762e-10
2.02736e-08
8.35287e-10
-2.66067e-09
2.02321e-08
1.58753e-07
1.35269e-07
1.3653e-07
8.94205e-08
1.17501e-07
4.72821e-08
1.03331e-07
2.83656e-08
9.33446e-08
1.83689e-08
8.60534e-08
1.32105e-08
8.03561e-08
1.03088e-08
7.57162e-08
8.35916e-09
7.18514e-08
6.93137e-09
6.85741e-08
5.86e-09
6.57508e-08
5.03799e-09
6.32867e-08
4.3901e-09
6.11133e-08
3.86723e-09
5.91794e-08
3.43741e-09
5.74455e-08
3.07884e-09
5.5881e-08
2.77599e-09
5.44613e-08
2.51739e-09
5.31664e-08
2.29447e-09
5.19804e-08
2.10065e-09
5.08897e-08
1.93084e-09
4.98832e-08
1.78105e-09
4.89515e-08
1.6481e-09
4.80866e-08
1.52945e-09
4.72817e-08
1.42302e-09
4.65308e-08
1.32711e-09
4.5829e-08
1.24034e-09
4.51717e-08
1.16155e-09
4.4555e-08
1.08979e-09
4.39755e-08
1.02426e-09
4.343e-08
9.64329e-10
4.29158e-08
9.09442e-10
4.24302e-08
8.59243e-10
4.1971e-08
8.13297e-10
4.15359e-08
7.71605e-10
4.11227e-08
7.33646e-10
4.07292e-08
7.00089e-10
4.03537e-08
6.69837e-10
3.99933e-08
6.45063e-10
3.96466e-08
6.22922e-10
3.93093e-08
6.0912e-10
3.89813e-08
5.96262e-10
3.86541e-08
5.98233e-10
3.83315e-08
5.96978e-10
3.79951e-08
6.24263e-10
3.76586e-08
6.40175e-10
3.72813e-08
7.08775e-10
3.68916e-08
7.73342e-10
3.64437e-08
8.30722e-10
3.58733e-08
1.40561e-09
-1.539e-09
3.47517e-08
1.75612e-07
1.31174e-07
1.65626e-07
9.94062e-08
1.52742e-07
6.01658e-08
1.4014e-07
4.09676e-08
1.29469e-07
2.90399e-08
1.20841e-07
2.18384e-08
1.13742e-07
1.7408e-08
1.07776e-07
1.43252e-08
1.02693e-07
1.20145e-08
9.83099e-08
1.02429e-08
9.44873e-08
8.86049e-09
9.11196e-08
7.75785e-09
8.81267e-08
6.86013e-09
8.54471e-08
6.11701e-09
8.30324e-08
5.49352e-09
8.08441e-08
4.96434e-09
7.88508e-08
4.51065e-09
7.70271e-08
4.11816e-09
7.53519e-08
3.77587e-09
7.38076e-08
3.47519e-09
7.23793e-08
3.20934e-09
7.10545e-08
2.97288e-09
6.98225e-08
2.76143e-09
6.86741e-08
2.57142e-09
6.76013e-08
2.39992e-09
6.65972e-08
2.24448e-09
6.56556e-08
2.10311e-09
6.47713e-08
1.9741e-09
6.39395e-08
1.85607e-09
6.31559e-08
1.74788e-09
6.24168e-08
1.64854e-09
6.17187e-08
1.55736e-09
6.10584e-08
1.47362e-09
6.04328e-08
1.39717e-09
5.98393e-08
1.3272e-09
5.92748e-08
1.26458e-09
5.87369e-08
1.20768e-09
5.82223e-08
1.15973e-09
5.7729e-08
1.11623e-09
5.72517e-08
1.08639e-09
5.67903e-08
1.05762e-09
5.63346e-08
1.05394e-09
5.58893e-08
1.0423e-09
5.54321e-08
1.08151e-09
5.49796e-08
1.09265e-09
5.44846e-08
1.20375e-09
5.39789e-08
1.27906e-09
5.3405e-08
1.40462e-09
5.27444e-08
2.06622e-09
-1.60946e-10
5.13663e-08
1.8451e-07
1.23449e-07
1.82342e-07
1.01574e-07
1.76126e-07
6.63821e-08
1.67774e-07
4.93188e-08
1.59164e-07
3.76503e-08
1.5127e-07
2.97324e-08
1.44211e-07
2.44666e-08
1.37928e-07
2.06088e-08
1.32346e-07
1.7596e-08
1.27383e-07
1.52065e-08
1.22951e-07
1.32921e-08
1.18975e-07
1.17339e-08
1.1539e-07
1.04453e-08
1.12142e-07
9.36506e-09
1.09186e-07
8.44928e-09
1.06485e-07
7.66526e-09
1.04008e-07
6.98813e-09
1.01727e-07
6.39866e-09
9.96212e-08
5.88179e-09
9.76708e-08
5.42562e-09
9.58595e-08
5.02061e-09
9.41733e-08
4.65906e-09
9.26001e-08
4.3347e-09
9.11291e-08
4.04236e-09
8.97513e-08
3.77778e-09
8.84584e-08
3.53738e-09
8.72433e-08
3.3182e-09
8.60997e-08
3.11773e-09
8.50219e-08
2.93389e-09
8.40048e-08
2.76494e-09
8.30439e-08
2.60943e-09
8.2135e-08
2.46625e-09
8.12743e-08
2.33432e-09
8.04582e-08
2.21329e-09
7.96833e-08
2.10206e-09
7.89463e-08
2.00162e-09
7.82442e-08
1.9098e-09
7.75731e-08
1.83084e-09
7.69307e-08
1.75863e-09
7.63113e-08
1.70578e-09
7.57142e-08
1.65472e-09
7.51289e-08
1.63917e-09
7.45591e-08
1.61215e-09
7.39834e-08
1.65723e-09
7.3414e-08
1.66206e-09
7.28115e-08
1.80621e-09
7.21895e-08
1.90107e-09
7.1515e-08
2.07908e-09
7.07365e-08
2.84471e-09
1.27937e-09
6.92962e-08
1.90343e-07
1.15323e-07
1.9186e-07
1.00057e-07
1.90266e-07
6.79763e-08
1.86165e-07
5.34193e-08
1.80734e-07
4.30817e-08
1.74992e-07
3.5474e-08
1.69309e-07
3.01504e-08
1.6384e-07
2.60775e-08
1.58683e-07
2.27526e-08
1.53881e-07
2.0009e-08
1.49435e-07
1.77377e-08
1.4533e-07
1.58392e-08
1.41541e-07
1.42343e-08
1.38042e-07
1.28643e-08
1.34806e-07
1.16849e-08
1.31809e-07
1.06621e-08
1.29028e-07
9.76883e-09
1.26443e-07
8.98378e-09
1.24035e-07
8.28971e-09
1.21788e-07
7.67269e-09
1.19688e-07
7.12138e-09
1.1772e-07
6.62644e-09
1.15875e-07
6.18019e-09
1.14141e-07
5.77617e-09
1.1251e-07
5.40902e-09
1.10973e-07
5.07418e-09
1.09523e-07
4.76786e-09
1.08154e-07
4.48677e-09
1.0686e-07
4.22821e-09
1.05635e-07
3.98988e-09
1.04474e-07
3.76984e-09
1.03374e-07
3.56658e-09
1.0233e-07
3.37869e-09
1.01337e-07
3.20559e-09
1.00394e-07
3.04589e-09
9.94946e-08
2.90065e-09
9.86371e-08
2.76727e-09
9.78172e-08
2.65079e-09
9.7032e-08
2.54384e-09
9.6276e-08
2.46175e-09
9.55475e-08
2.38321e-09
9.48373e-08
2.34942e-09
9.41459e-08
2.30353e-09
9.34567e-08
2.34641e-09
9.27727e-08
2.34603e-09
9.20701e-08
2.5088e-09
9.13366e-08
2.63462e-09
9.05692e-08
2.84653e-09
8.96895e-08
3.72433e-09
2.77364e-09
8.81953e-08
1.95504e-07
1.07633e-07
1.98248e-07
9.73136e-08
1.98988e-07
6.72362e-08
1.97797e-07
5.46103e-08
1.95168e-07
4.57106e-08
1.91836e-07
3.88058e-08
1.88115e-07
3.38718e-08
1.84177e-07
3.00155e-08
1.80173e-07
2.67567e-08
1.76213e-07
2.3969e-08
1.72365e-07
2.15857e-08
1.68667e-07
1.95364e-08
1.65141e-07
1.77605e-08
1.61794e-07
1.62112e-08
1.58627e-07
1.48521e-08
1.55635e-07
1.36538e-08
1.52812e-07
1.25921e-08
1.50149e-07
1.16473e-08
1.47636e-07
1.08025e-08
1.45264e-07
1.00442e-08
1.43025e-07
9.36063e-09
1.40909e-07
8.74219e-09
1.38909e-07
8.18067e-09
1.37016e-07
7.6691e-09
1.35223e-07
7.20158e-09
1.33525e-07
6.773e-09
1.31913e-07
6.37906e-09
1.30384e-07
6.016e-09
1.28932e-07
5.68068e-09
1.27551e-07
5.37039e-09
1.26238e-07
5.08287e-09
1.24988e-07
4.81627e-09
1.23798e-07
4.56896e-09
1.22664e-07
4.34012e-09
1.21581e-07
4.12822e-09
1.20548e-07
3.93432e-09
1.19559e-07
3.75557e-09
1.18613e-07
3.59754e-09
1.17704e-07
3.45214e-09
1.16829e-07
3.33652e-09
1.15985e-07
3.22726e-09
1.15165e-07
3.17013e-09
1.14365e-07
3.1036e-09
1.13574e-07
3.13669e-09
1.12787e-07
3.13319e-09
1.11995e-07
3.30134e-09
1.11164e-07
3.46506e-09
1.10308e-07
3.70288e-09
1.09355e-07
4.67753e-09
4.29786e-09
1.0783e-07
2.00819e-07
1.00398e-07
2.03772e-07
9.43606e-08
2.05347e-07
6.56615e-08
2.05651e-07
5.43069e-08
2.04824e-07
4.65372e-08
2.0335e-07
4.02795e-08
2.0141e-07
3.58118e-08
1.99089e-07
3.23363e-08
1.96495e-07
2.93512e-08
1.9373e-07
2.67344e-08
1.90874e-07
2.44411e-08
1.87989e-07
2.24216e-08
1.85118e-07
2.06311e-08
1.82294e-07
1.90352e-08
1.79539e-07
1.76074e-08
1.76867e-07
1.63259e-08
1.74287e-07
1.51722e-08
1.71804e-07
1.41302e-08
1.6942e-07
1.31864e-08
1.67135e-07
1.2329e-08
1.64948e-07
1.15479e-08
1.62856e-07
1.08344e-08
1.60856e-07
1.01808e-08
1.58944e-07
9.58064e-09
1.57117e-07
9.02816e-09
1.55372e-07
8.51835e-09
1.53704e-07
8.0469e-09
1.5211e-07
7.60999e-09
1.50587e-07
7.20438e-09
1.4913e-07
6.82723e-09
1.47736e-07
6.47616e-09
1.46403e-07
6.14921e-09
1.45128e-07
5.84464e-09
1.43906e-07
5.56156e-09
1.42736e-07
5.29839e-09
1.41614e-07
5.05622e-09
1.40538e-07
4.83215e-09
1.39503e-07
4.63208e-09
1.38508e-07
4.44775e-09
1.37547e-07
4.29725e-09
1.36617e-07
4.15668e-09
1.35714e-07
4.07353e-09
1.34831e-07
3.98648e-09
1.33963e-07
4.0046e-09
1.33096e-07
4.00007e-09
1.32233e-07
4.16478e-09
1.3133e-07
4.36775e-09
1.304e-07
4.6327e-09
1.294e-07
5.67828e-09
5.80583e-09
1.27892e-07
2.06423e-07
9.35076e-08
2.09332e-07
9.14513e-08
2.11058e-07
6.39354e-08
2.11941e-07
5.34244e-08
2.12007e-07
4.64711e-08
2.11626e-07
4.06602e-08
2.10902e-07
3.65355e-08
2.09839e-07
3.34001e-08
2.08474e-07
3.07159e-08
2.06867e-07
2.83413e-08
2.05074e-07
2.62344e-08
2.03143e-07
2.4352e-08
2.01118e-07
2.2656e-08
1.99035e-07
2.11187e-08
1.96922e-07
1.97201e-08
1.94804e-07
1.84443e-08
1.92698e-07
1.72778e-08
1.90619e-07
1.62091e-08
1.88578e-07
1.5228e-08
1.86581e-07
1.43254e-08
1.84636e-07
1.34936e-08
1.82745e-07
1.27256e-08
1.8091e-07
1.20152e-08
1.79134e-07
1.13568e-08
1.77416e-07
1.07457e-08
1.75757e-07
1.01774e-08
1.74156e-07
9.64812e-09
1.72612e-07
9.15436e-09
1.71123e-07
8.69317e-09
1.69688e-07
8.26188e-09
1.68306e-07
7.85827e-09
1.66975e-07
7.48047e-09
1.65693e-07
7.12687e-09
1.64458e-07
6.79662e-09
1.63268e-07
6.48826e-09
1.62121e-07
6.203e-09
1.61015e-07
5.93807e-09
1.59948e-07
5.6996e-09
1.58916e-07
5.47958e-09
1.57917e-07
5.29638e-09
1.56946e-07
5.12696e-09
1.56002e-07
5.01829e-09
1.55075e-07
4.91297e-09
1.54166e-07
4.9142e-09
1.53255e-07
4.91097e-09
1.52351e-07
5.06822e-09
1.51411e-07
5.3083e-09
1.50438e-07
5.60567e-09
1.49421e-07
6.69542e-09
7.2488e-09
1.47978e-07
2.12269e-07
8.69009e-08
2.15141e-07
8.85793e-08
2.16813e-07
6.22631e-08
2.17855e-07
5.23823e-08
2.18266e-07
4.60602e-08
2.18387e-07
4.05397e-08
2.18315e-07
3.66069e-08
2.18021e-07
3.36947e-08
2.17497e-07
3.12396e-08
2.16763e-07
2.90752e-08
2.15843e-07
2.71543e-08
2.14763e-07
2.54327e-08
2.13547e-07
2.38713e-08
2.12223e-07
2.24431e-08
2.10813e-07
2.11299e-08
2.09339e-07
1.99182e-08
2.0782e-07
1.87971e-08
2.06271e-07
1.77577e-08
2.04707e-07
1.67922e-08
2.03139e-07
1.58939e-08
2.01575e-07
1.5057e-08
2.00025e-07
1.42762e-08
1.98493e-07
1.35468e-08
1.96985e-07
1.28646e-08
1.95505e-07
1.22258e-08
1.94056e-07
1.16269e-08
1.92639e-07
1.10648e-08
1.91257e-07
1.05367e-08
1.8991e-07
1.00401e-08
1.88599e-07
9.57286e-09
1.87324e-07
9.13301e-09
1.86085e-07
8.719e-09
1.84883e-07
8.32949e-09
1.83716e-07
7.96387e-09
1.82583e-07
7.6209e-09
1.81484e-07
7.30201e-09
1.80417e-07
7.00473e-09
1.79382e-07
6.73535e-09
1.78375e-07
6.48643e-09
1.77395e-07
6.2762e-09
1.76438e-07
6.08339e-09
1.75504e-07
5.9529e-09
1.74583e-07
5.83376e-09
1.73678e-07
5.81946e-09
1.72768e-07
5.82047e-09
1.71866e-07
5.97038e-09
1.7093e-07
6.2439e-09
1.69957e-07
6.57965e-09
1.68962e-07
7.68989e-09
8.5797e-09
1.67631e-07
2.18315e-07
8.05668e-08
2.2119e-07
8.57039e-08
2.22786e-07
6.06675e-08
2.23856e-07
5.13118e-08
2.24376e-07
4.55407e-08
2.24674e-07
4.02418e-08
2.24878e-07
3.64025e-08
2.24961e-07
3.36122e-08
2.24901e-07
3.12993e-08
2.247e-07
2.92767e-08
2.24361e-07
2.74928e-08
2.23892e-07
2.59019e-08
2.23301e-07
2.44621e-08
2.226e-07
2.31439e-08
2.21802e-07
2.19278e-08
2.20921e-07
2.08e-08
2.19968e-07
1.97499e-08
2.18956e-07
1.8769e-08
2.17898e-07
1.78506e-08
2.16803e-07
1.69891e-08
2.1568e-07
1.61795e-08
2.14539e-07
1.54177e-08
2.13386e-07
1.47e-08
2.12227e-07
1.40233e-08
2.11068e-07
1.33845e-08
2.09914e-07
1.27811e-08
2.08768e-07
1.22107e-08
2.07634e-07
1.1671e-08
2.06514e-07
1.11602e-08
2.0541e-07
1.06765e-08
2.04325e-07
1.02185e-08
2.03258e-07
9.78509e-09
2.02213e-07
9.37515e-09
2.01188e-07
8.98843e-09
2.00185e-07
8.62402e-09
1.99204e-07
8.2836e-09
1.98243e-07
7.96507e-09
1.97304e-07
7.67491e-09
1.96384e-07
7.40644e-09
1.95482e-07
7.17741e-09
1.94597e-07
6.96895e-09
1.93727e-07
6.82287e-09
1.92865e-07
6.6961e-09
1.92014e-07
6.67033e-09
1.91155e-07
6.67916e-09
1.903e-07
6.82498e-09
1.89417e-07
7.12781e-09
1.8849e-07
7.50666e-09
1.87561e-07
8.61811e-09
9.75515e-09
1.86386e-07
2.24548e-07
7.45115e-08
2.2745e-07
8.28022e-08
2.28982e-07
5.91357e-08
2.3006e-07
5.0234e-08
2.3062e-07
4.49806e-08
2.30966e-07
3.98954e-08
2.3126e-07
3.61086e-08
2.3149e-07
3.33818e-08
2.31639e-07
3.11511e-08
2.31703e-07
2.9212e-08
2.31684e-07
2.75123e-08
2.31579e-07
2.60071e-08
2.31387e-07
2.46533e-08
2.31112e-07
2.34191e-08
2.30757e-07
2.22832e-08
2.30326e-07
2.12304e-08
2.29827e-07
2.02491e-08
2.29266e-07
1.93306e-08
2.28649e-07
1.84676e-08
2.27983e-07
1.76545e-08
2.27276e-07
1.68867e-08
2.26534e-07
1.61602e-08
2.25762e-07
1.54719e-08
2.24966e-07
1.48189e-08
2.24152e-07
1.41989e-08
2.23323e-07
1.36095e-08
2.22485e-07
1.3049e-08
2.2164e-07
1.25156e-08
2.20792e-07
1.20079e-08
2.19944e-07
1.15246e-08
2.19098e-07
1.10645e-08
2.18257e-07
1.06269e-08
2.17421e-07
1.02111e-08
2.16592e-07
9.81708e-09
2.15772e-07
9.44426e-09
2.14961e-07
9.09462e-09
2.14159e-07
8.76644e-09
2.13368e-07
8.4663e-09
2.12586e-07
8.18841e-09
2.11814e-07
7.94982e-09
2.11048e-07
7.7344e-09
2.10291e-07
7.5802e-09
2.09534e-07
7.45275e-09
2.08783e-07
7.42119e-09
2.08021e-07
7.44156e-09
2.07258e-07
7.58838e-09
2.06469e-07
7.91642e-09
2.05635e-07
8.34063e-09
2.04814e-07
9.43864e-09
1.07401e-08
2.0383e-07
2.30974e-07
6.8743e-08
2.33911e-07
7.98655e-08
2.35386e-07
5.7661e-08
2.36472e-07
4.9148e-08
2.37065e-07
4.43876e-08
2.37426e-07
3.95339e-08
2.37742e-07
3.57929e-08
2.38018e-07
3.31056e-08
2.38242e-07
3.09274e-08
2.38416e-07
2.90384e-08
2.38541e-07
2.73869e-08
2.38617e-07
2.59317e-08
2.3864e-07
2.46301e-08
2.38609e-07
2.34498e-08
2.38524e-07
2.23683e-08
2.38385e-07
2.13694e-08
2.38193e-07
2.04407e-08
2.37951e-07
1.95725e-08
2.37662e-07
1.87573e-08
2.37327e-07
1.79888e-08
2.36952e-07
1.7262e-08
2.36539e-07
1.6573e-08
2.36093e-07
1.59184e-08
2.35616e-07
1.52953e-08
2.35114e-07
1.47016e-08
2.34588e-07
1.41351e-08
2.34043e-07
1.35942e-08
2.33481e-07
1.30774e-08
2.32906e-07
1.25835e-08
2.32319e-07
1.21113e-08
2.31723e-07
1.16601e-08
2.31121e-07
1.12293e-08
2.30513e-07
1.08185e-08
2.29903e-07
1.04279e-08
2.2929e-07
1.00572e-08
2.28676e-07
9.7085e-09
2.28062e-07
9.3805e-09
2.27448e-07
9.07981e-09
2.26835e-07
8.80154e-09
2.26223e-07
8.56182e-09
2.2561e-07
8.34747e-09
2.24998e-07
8.19235e-09
2.2438e-07
8.07066e-09
2.23762e-07
8.03927e-09
2.23129e-07
8.07428e-09
2.2249e-07
8.22754e-09
2.2183e-07
8.57679e-09
2.21125e-07
9.04547e-09
2.20444e-07
1.01195e-08
1.15132e-08
2.19671e-07
2.37601e-07
6.3267e-08
2.40577e-07
7.68896e-08
2.41994e-07
5.62433e-08
2.43088e-07
4.80546e-08
2.43717e-07
4.37578e-08
2.44092e-07
3.91594e-08
2.44413e-07
3.54716e-08
2.44702e-07
3.28166e-08
2.44949e-07
3.06808e-08
2.45159e-07
2.88284e-08
2.45338e-07
2.72072e-08
2.45489e-07
2.57815e-08
2.45608e-07
2.45104e-08
2.45696e-07
2.33618e-08
2.45751e-07
2.23132e-08
2.45773e-07
2.13479e-08
2.4576e-07
2.04535e-08
2.45713e-07
1.96197e-08
2.45632e-07
1.88385e-08
2.45517e-07
1.81033e-08
2.4537e-07
1.74087e-08
2.45193e-07
1.67504e-08
2.44987e-07
1.61248e-08
2.44753e-07
1.5529e-08
2.44494e-07
1.49606e-08
2.44212e-07
1.44174e-08
2.43908e-07
1.38978e-08
2.43585e-07
1.34004e-08
2.43245e-07
1.29239e-08
2.42889e-07
1.24674e-08
2.42519e-07
1.20301e-08
2.42136e-07
1.16118e-08
2.41743e-07
1.12119e-08
2.4134e-07
1.0831e-08
2.40928e-07
1.04688e-08
2.40509e-07
1.01277e-08
2.40083e-07
9.80652e-09
2.39651e-07
9.51187e-09
2.39212e-07
9.23975e-09
2.38769e-07
9.00517e-09
2.38319e-07
8.7979e-09
2.37863e-07
8.64753e-09
2.37398e-07
8.53639e-09
2.36927e-07
8.51018e-09
2.3644e-07
8.56161e-09
2.35941e-07
8.72578e-09
2.35426e-07
9.09218e-09
2.3487e-07
9.60118e-09
2.34346e-07
1.06438e-08
1.20705e-08
2.33789e-07
2.44436e-07
5.80873e-08
2.4745e-07
7.38752e-08
2.48813e-07
5.4881e-08
2.49909e-07
4.69584e-08
2.50577e-07
4.30895e-08
2.50968e-07
3.87683e-08
2.51294e-07
3.51456e-08
2.51589e-07
3.2522e-08
2.51843e-07
3.04265e-08
2.52064e-07
2.86073e-08
2.52261e-07
2.70105e-08
2.52437e-07
2.56054e-08
2.52593e-07
2.43541e-08
2.5273e-07
2.32251e-08
2.52847e-07
2.21962e-08
2.52944e-07
2.12511e-08
2.5302e-07
2.03774e-08
2.53075e-07
1.95647e-08
2.53108e-07
1.8805e-08
2.5312e-07
1.80914e-08
2.5311e-07
1.74184e-08
2.53079e-07
1.67816e-08
2.53027e-07
1.6177e-08
2.52954e-07
1.56017e-08
2.52862e-07
1.50529e-08
2.52751e-07
1.45286e-08
2.52622e-07
1.4027e-08
2.52475e-07
1.35466e-08
2.52313e-07
1.30862e-08
2.52136e-07
1.26448e-08
2.51944e-07
1.22218e-08
2.51739e-07
1.18168e-08
2.51521e-07
1.14294e-08
2.51292e-07
1.10602e-08
2.51052e-07
1.0709e-08
2.50801e-07
1.03782e-08
2.50541e-07
1.0067e-08
2.50271e-07
9.78171e-09
2.49992e-07
9.51923e-09
2.49704e-07
9.29328e-09
2.49405e-07
9.09653e-09
2.49098e-07
8.95435e-09
2.48778e-07
8.85632e-09
2.4845e-07
8.8386e-09
2.48105e-07
8.90657e-09
2.47746e-07
9.08428e-09
2.47375e-07
9.46361e-09
2.4697e-07
1.00059e-08
2.46602e-07
1.1012e-08
1.24257e-08
2.46247e-07
2.51488e-07
5.32058e-08
2.54531e-07
7.08325e-08
2.55849e-07
5.3563e-08
2.56942e-07
4.58648e-08
2.57648e-07
4.23836e-08
2.58059e-07
3.83578e-08
2.58391e-07
3.48137e-08
2.58691e-07
3.22219e-08
2.5895e-07
3.01669e-08
2.59176e-07
2.83817e-08
2.59378e-07
2.68083e-08
2.59562e-07
2.54213e-08
2.59731e-07
2.41859e-08
2.59884e-07
2.30714e-08
2.60025e-07
2.2056e-08
2.60152e-07
2.1124e-08
2.60266e-07
2.02631e-08
2.60367e-07
1.94635e-08
2.60455e-07
1.87168e-08
2.6053e-07
1.80165e-08
2.60592e-07
1.73569e-08
2.6064e-07
1.67336e-08
2.60674e-07
1.61425e-08
2.60695e-07
1.55806e-08
2.60703e-07
1.50452e-08
2.60698e-07
1.45341e-08
2.60679e-07
1.40453e-08
2.60649e-07
1.35775e-08
2.60605e-07
1.31294e-08
2.6055e-07
1.27e-08
2.60483e-07
1.22887e-08
2.60405e-07
1.1895e-08
2.60316e-07
1.15186e-08
2.60216e-07
1.11602e-08
2.60105e-07
1.08195e-08
2.59984e-07
1.0499e-08
2.59853e-07
1.01981e-08
2.59712e-07
9.92271e-09
2.59561e-07
9.67071e-09
2.594e-07
9.45442e-09
2.59227e-07
9.26918e-09
2.59045e-07
9.13648e-09
2.58849e-07
9.05199e-09
2.58644e-07
9.04419e-09
2.58423e-07
9.12728e-09
2.58188e-07
9.31913e-09
2.57945e-07
9.707e-09
2.57677e-07
1.02737e-08
2.57449e-07
1.12396e-08
1.26067e-08
2.57268e-07
2.58766e-07
4.86229e-08
2.61826e-07
6.7772e-08
2.63111e-07
5.22784e-08
2.64197e-07
4.47789e-08
2.64938e-07
4.16422e-08
2.6537e-07
3.7926e-08
2.65709e-07
3.4475e-08
2.66015e-07
3.1916e-08
2.6628e-07
2.99016e-08
2.6651e-07
2.8152e-08
2.66715e-07
2.6603e-08
2.66903e-07
2.5234e-08
2.67075e-07
2.40136e-08
2.67234e-07
2.29121e-08
2.67382e-07
2.19081e-08
2.6752e-07
2.09863e-08
2.67648e-07
2.01349e-08
2.67767e-07
1.93441e-08
2.67878e-07
1.86061e-08
2.6798e-07
1.79142e-08
2.68074e-07
1.72631e-08
2.6816e-07
1.6648e-08
2.68237e-07
1.60653e-08
2.68306e-07
1.55118e-08
2.68366e-07
1.49847e-08
2.68419e-07
1.44818e-08
2.68463e-07
1.40014e-08
2.68498e-07
1.35419e-08
2.68526e-07
1.3102e-08
2.68545e-07
1.2681e-08
2.68555e-07
1.22779e-08
2.68558e-07
1.18926e-08
2.68552e-07
1.15246e-08
2.68537e-07
1.11747e-08
2.68514e-07
1.08426e-08
2.68483e-07
1.05308e-08
2.68442e-07
1.02388e-08
2.68392e-07
9.97219e-09
2.68333e-07
9.7298e-09
2.68265e-07
9.52253e-09
2.68186e-07
9.3481e-09
2.68098e-07
9.2246e-09
2.67998e-07
9.15251e-09
2.67887e-07
9.15457e-09
2.67764e-07
9.25032e-09
2.67628e-07
9.45518e-09
2.67488e-07
9.84726e-09
2.67333e-07
1.04284e-08
2.67221e-07
1.13515e-08
1.26494e-08
2.67179e-07
2.66278e-07
4.43372e-08
2.69346e-07
6.47044e-08
2.70607e-07
5.10165e-08
2.71681e-07
4.37048e-08
2.72455e-07
4.08684e-08
2.7291e-07
3.74711e-08
2.73257e-07
3.41286e-08
2.73568e-07
3.16041e-08
2.7384e-07
2.96303e-08
2.74074e-07
2.79178e-08
2.74282e-07
2.63947e-08
2.74472e-07
2.50443e-08
2.74647e-07
2.38391e-08
2.74808e-07
2.27504e-08
2.74959e-07
2.17574e-08
2.751e-07
2.0845e-08
2.75233e-07
2.00019e-08
2.75359e-07
1.92185e-08
2.75478e-07
1.84872e-08
2.7559e-07
1.78017e-08
2.75697e-07
1.71564e-08
2.75798e-07
1.6547e-08
2.75894e-07
1.59697e-08
2.75984e-07
1.54214e-08
2.76069e-07
1.48995e-08
2.76149e-07
1.44018e-08
2.76224e-07
1.39265e-08
2.76294e-07
1.34721e-08
2.76358e-07
1.30375e-08
2.76418e-07
1.26218e-08
2.76471e-07
1.22242e-08
2.76519e-07
1.18445e-08
2.76561e-07
1.14824e-08
2.76598e-07
1.11386e-08
2.76627e-07
1.08129e-08
2.7665e-07
1.05077e-08
2.76666e-07
1.02227e-08
2.76675e-07
9.96331e-09
2.76676e-07
9.72895e-09
2.76669e-07
9.52932e-09
2.76653e-07
9.36419e-09
2.76629e-07
9.24879e-09
2.76594e-07
9.18723e-09
2.76551e-07
9.19815e-09
2.76497e-07
9.30371e-09
2.76433e-07
9.51927e-09
2.76369e-07
9.91158e-09
2.763e-07
1.04976e-08
2.76276e-07
1.13758e-08
1.25908e-08
2.76334e-07
2.74033e-07
4.03457e-08
2.77097e-07
6.16405e-08
2.78346e-07
4.97671e-08
2.79404e-07
4.26463e-08
2.80207e-07
4.0066e-08
2.80686e-07
3.69917e-08
2.81041e-07
3.37736e-08
2.81359e-07
3.12864e-08
2.81637e-07
2.93527e-08
2.81876e-07
2.76788e-08
2.82087e-07
2.6183e-08
2.8228e-07
2.4852e-08
2.82456e-07
2.36624e-08
2.8262e-07
2.2587e-08
2.82772e-07
2.16051e-08
2.82915e-07
2.07021e-08
2.8305e-07
1.9867e-08
2.83178e-07
1.90907e-08
2.83299e-07
1.83656e-08
2.83415e-07
1.76855e-08
2.83527e-07
1.70451e-08
2.83634e-07
1.64402e-08
2.83736e-07
1.5867e-08
2.83835e-07
1.53225e-08
2.8393e-07
1.48042e-08
2.84022e-07
1.43099e-08
2.84111e-07
1.38379e-08
2.84196e-07
1.33868e-08
2.84278e-07
1.29555e-08
2.84357e-07
1.25432e-08
2.84432e-07
1.21492e-08
2.84503e-07
1.17733e-08
2.8457e-07
1.14152e-08
2.84633e-07
1.10757e-08
2.84691e-07
1.07546e-08
2.84745e-07
1.04542e-08
2.84793e-07
1.01748e-08
2.84835e-07
9.92091e-09
2.84871e-07
9.69302e-09
2.84901e-07
9.49961e-09
2.84923e-07
9.34213e-09
2.84938e-07
9.23356e-09
2.84945e-07
9.1805e-09
2.84944e-07
9.19895e-09
2.84936e-07
9.31157e-09
2.8492e-07
9.53501e-09
2.84908e-07
9.92411e-09
2.84899e-07
1.05062e-08
2.84937e-07
1.13382e-08
1.24635e-08
2.85064e-07
2.8204e-07
3.66437e-08
2.85089e-07
5.85914e-08
2.86335e-07
4.85206e-08
2.87375e-07
4.16062e-08
2.88202e-07
3.92395e-08
2.88707e-07
3.64864e-08
2.89072e-07
3.3409e-08
2.89395e-07
3.09629e-08
2.89679e-07
2.90686e-08
2.89923e-07
2.74345e-08
2.90139e-07
2.59676e-08
2.90334e-07
2.4657e-08
2.90513e-07
2.34835e-08
2.90678e-07
2.24217e-08
2.90832e-07
2.14512e-08
2.90976e-07
2.05579e-08
2.91112e-07
1.9731e-08
2.91241e-07
1.89617e-08
2.91364e-07
1.82427e-08
2.91482e-07
1.75678e-08
2.91595e-07
1.69321e-08
2.91703e-07
1.63313e-08
2.91809e-07
1.57617e-08
2.91911e-07
1.52205e-08
2.9201e-07
1.4705e-08
2.92106e-07
1.42134e-08
2.922e-07
1.37439e-08
2.92292e-07
1.32952e-08
2.92381e-07
1.28662e-08
2.92468e-07
1.24563e-08
2.92553e-07
1.20648e-08
2.92635e-07
1.16915e-08
2.92714e-07
1.13363e-08
2.92789e-07
1.09999e-08
2.92862e-07
1.06823e-08
2.9293e-07
1.03857e-08
2.92995e-07
1.01104e-08
2.93054e-07
9.86103e-09
2.93109e-07
9.63839e-09
2.93159e-07
9.4501e-09
2.93202e-07
9.29889e-09
2.93239e-07
9.19604e-09
2.9327e-07
9.14973e-09
2.93295e-07
9.17435e-09
2.93315e-07
9.2917e-09
2.9333e-07
9.5201e-09
2.93351e-07
9.90312e-09
2.93383e-07
1.0474e-08
2.93462e-07
1.12589e-08
1.2293e-08
2.93633e-07
2.90308e-07
3.32247e-08
2.93331e-07
5.55682e-08
2.94583e-07
4.72682e-08
2.95603e-07
4.05865e-08
2.96449e-07
3.83937e-08
2.96981e-07
3.59543e-08
2.97357e-07
3.30334e-08
2.97686e-07
3.06337e-08
2.97976e-07
2.87781e-08
2.98226e-07
2.71847e-08
2.98445e-07
2.57483e-08
2.98643e-07
2.44589e-08
2.98825e-07
2.33022e-08
2.98992e-07
2.22544e-08
2.99148e-07
2.12957e-08
2.99293e-07
2.04123e-08
2.9943e-07
1.95938e-08
2.9956e-07
1.88316e-08
2.99684e-07
1.81188e-08
2.99803e-07
1.74493e-08
2.99917e-07
1.68183e-08
3.00026e-07
1.62215e-08
3.00133e-07
1.56554e-08
3.00236e-07
1.51171e-08
3.00337e-07
1.46044e-08
3.00435e-07
1.41151e-08
3.00531e-07
1.36477e-08
3.00625e-07
1.3201e-08
3.00718e-07
1.27739e-08
3.00808e-07
1.23659e-08
3.00897e-07
1.19763e-08
3.00983e-07
1.16052e-08
3.01067e-07
1.12523e-08
3.01149e-07
1.09183e-08
3.01227e-07
1.06036e-08
3.01303e-07
1.031e-08
3.01375e-07
1.00384e-08
3.01443e-07
9.79268e-09
3.01507e-07
9.57447e-09
3.01567e-07
9.39054e-09
3.01621e-07
9.24458e-09
3.0167e-07
9.14662e-09
3.01715e-07
9.10566e-09
3.01754e-07
9.13523e-09
3.0179e-07
9.25545e-09
3.01824e-07
9.48605e-09
3.01866e-07
9.86067e-09
3.01926e-07
1.04144e-08
3.02033e-07
1.11519e-08
1.20965e-08
3.02229e-07
2.98847e-07
3.00806e-08
3.01833e-07
5.25822e-08
3.03099e-07
4.60019e-08
3.04097e-07
3.95886e-08
3.04957e-07
3.75341e-08
3.05516e-07
3.53947e-08
3.05904e-07
3.26454e-08
3.06239e-07
3.02987e-08
3.06536e-07
2.84812e-08
3.06792e-07
2.69289e-08
3.07016e-07
2.55247e-08
3.07217e-07
2.42577e-08
3.07401e-07
2.31182e-08
3.0757e-07
2.20849e-08
3.07728e-07
2.11384e-08
3.07875e-07
2.02652e-08
3.08013e-07
1.94553e-08
3.08144e-07
1.87005e-08
3.08269e-07
1.7994e-08
3.08388e-07
1.733e-08
3.08503e-07
1.67036e-08
3.08614e-07
1.61108e-08
3.08721e-07
1.55483e-08
3.08825e-07
1.5013e-08
3.08926e-07
1.45028e-08
3.09026e-07
1.40158e-08
3.09123e-07
1.35504e-08
3.09218e-07
1.31056e-08
3.09312e-07
1.26802e-08
3.09404e-07
1.22739e-08
3.09494e-07
1.18861e-08
3.09583e-07
1.15168e-08
3.09669e-07
1.11659e-08
3.09753e-07
1.08342e-08
3.09835e-07
1.05219e-08
3.09914e-07
1.02311e-08
3.09989e-07
9.96266e-09
3.10062e-07
9.72026e-09
3.1013e-07
9.50597e-09
3.10195e-07
9.32592e-09
3.10255e-07
9.18448e-09
3.10311e-07
9.09077e-09
3.10362e-07
9.05411e-09
3.1041e-07
9.08754e-09
3.10456e-07
9.20911e-09
3.10503e-07
9.43939e-09
3.1056e-07
9.80369e-09
3.10639e-07
1.03358e-08
3.10764e-07
1.1026e-08
1.18849e-08
3.10976e-07
3.07666e-07
2.72015e-08
3.10604e-07
4.96445e-08
3.11891e-07
4.47151e-08
3.12867e-07
3.86128e-08
3.13735e-07
3.66657e-08
3.14322e-07
3.48078e-08
3.14724e-07
3.22435e-08
3.15065e-07
2.99577e-08
3.15368e-07
2.81779e-08
3.1563e-07
2.6667e-08
3.15858e-07
2.52964e-08
3.16063e-07
2.4053e-08
3.1625e-07
2.29314e-08
3.16422e-07
2.1913e-08
3.16581e-07
2.0979e-08
3.1673e-07
2.01164e-08
3.1687e-07
1.93153e-08
3.17002e-07
1.85681e-08
3.17128e-07
1.78681e-08
3.17249e-07
1.72097e-08
3.17364e-07
1.65881e-08
3.17475e-07
1.59994e-08
3.17583e-07
1.54404e-08
3.17688e-07
1.49082e-08
3.1779e-07
1.44006e-08
3.1789e-07
1.39158e-08
3.17989e-07
1.34524e-08
3.18085e-07
1.30093e-08
3.18179e-07
1.25857e-08
3.18272e-07
1.2181e-08
3.18364e-07
1.17948e-08
3.18453e-07
1.14273e-08
3.18541e-07
1.10783e-08
3.18626e-07
1.07486e-08
3.18709e-07
1.04387e-08
3.1879e-07
1.01504e-08
3.18868e-07
9.88493e-09
3.18943e-07
9.6456e-09
3.19014e-07
9.43488e-09
3.19081e-07
9.25839e-09
3.19145e-07
9.12091e-09
3.19205e-07
9.03096e-09
3.19261e-07
8.99775e-09
3.19314e-07
9.03401e-09
3.19368e-07
9.15567e-09
3.19424e-07
9.38336e-09
3.19492e-07
9.73564e-09
3.19585e-07
1.02429e-08
3.19725e-07
1.08862e-08
1.16644e-08
3.19945e-07
3.16776e-07
2.45762e-08
3.19655e-07
4.67663e-08
3.20968e-07
4.3402e-08
3.21922e-07
3.7659e-08
3.22794e-07
3.57937e-08
3.23407e-07
3.41943e-08
3.23825e-07
3.18261e-08
3.24172e-07
2.96104e-08
3.24482e-07
2.78682e-08
3.2475e-07
2.63986e-08
3.24983e-07
2.50632e-08
3.25192e-07
2.38446e-08
3.25382e-07
2.27416e-08
3.25556e-07
2.17384e-08
3.25718e-07
2.08175e-08
3.25868e-07
1.99657e-08
3.2601e-07
1.91738e-08
3.26144e-07
1.84344e-08
3.26271e-07
1.7741e-08
3.26392e-07
1.70883e-08
3.26509e-07
1.64716e-08
3.26621e-07
1.58871e-08
3.2673e-07
1.53316e-08
3.26836e-07
1.48025e-08
3.26939e-07
1.42975e-08
3.27039e-07
1.3815e-08
3.27138e-07
1.33536e-08
3.27235e-07
1.29123e-08
3.27331e-07
1.24903e-08
3.27425e-07
1.20872e-08
3.27517e-07
1.17026e-08
3.27607e-07
1.13368e-08
3.27696e-07
1.09896e-08
3.27783e-07
1.0662e-08
3.27867e-07
1.03543e-08
3.27949e-07
1.00685e-08
3.28028e-07
9.80572e-09
3.28105e-07
9.5693e-09
3.28178e-07
9.36188e-09
3.28247e-07
9.18869e-09
3.28313e-07
9.05472e-09
3.28376e-07
8.96805e-09
3.28437e-07
8.93755e-09
3.28495e-07
8.97566e-09
3.28554e-07
9.09626e-09
3.28618e-07
9.31929e-09
3.28696e-07
9.65802e-09
3.28801e-07
1.01381e-08
3.28952e-07
1.07351e-08
1.14381e-08
3.29178e-07
3.26187e-07
2.21921e-08
3.28995e-07
4.39584e-08
3.30338e-07
4.20585e-08
3.31271e-07
3.67257e-08
3.32142e-07
3.49227e-08
3.32781e-07
3.35557e-08
3.33215e-07
3.13918e-08
3.33569e-07
2.92561e-08
3.33885e-07
2.75523e-08
3.3416e-07
2.61236e-08
3.34399e-07
2.48245e-08
3.34611e-07
2.36321e-08
3.34805e-07
2.25484e-08
3.34982e-07
2.15611e-08
3.35146e-07
2.06535e-08
3.35299e-07
1.98129e-08
3.35442e-07
1.90305e-08
3.35578e-07
1.8299e-08
3.35706e-07
1.76125e-08
3.35829e-07
1.69656e-08
3.35946e-07
1.63539e-08
3.3606e-07
1.57737e-08
3.36169e-07
1.52219e-08
3.36276e-07
1.46959e-08
3.3638e-07
1.41935e-08
3.36482e-07
1.37133e-08
3.36582e-07
1.32538e-08
3.3668e-07
1.28143e-08
3.36776e-07
1.23939e-08
3.36871e-07
1.19924e-08
3.36964e-07
1.16095e-08
3.37055e-07
1.12453e-08
3.37145e-07
1.08999e-08