/*--------------------------------*- C++ -*----------------------------------*\
  =========                 |
  \\      /  F ield         | OpenFOAM: The Open Source CFD Toolbox
   \\    /   O peration     | Website:  https://openfoam.org
    \\  /    A nd           | Version:  7
     \\/     M anipulation  |
\*---------------------------------------------------------------------------*/
FoamFile
{
    version     2.0;
    format      ascii;
    class       surfaceScalarField;
    location    "0.3";
    object      phi_0;
}
// * * * * * * * * * * * * * * * * * * * * * * * * * * * * * * * * * * * * * //

dimensions      [0 3 -1 0 0 0 0];

internalField   nonuniform List<scalar> 
139350
(
6.45126e-08
9.21189e-08
3.19662e-08
3.25465e-08
2.30621e-08
8.90411e-09
1.95785e-08
3.48354e-09
1.76279e-08
1.95065e-09
1.6199e-08
1.4289e-09
1.50674e-08
1.13159e-09
1.41564e-08
9.10959e-10
1.34074e-08
7.48997e-10
1.27771e-08
6.30362e-10
1.22366e-08
5.40523e-10
1.17665e-08
4.70018e-10
1.13533e-08
4.13253e-10
1.09866e-08
3.66706e-10
1.06586e-08
3.27975e-10
1.03633e-08
2.95337e-10
1.00957e-08
2.67529e-10
9.85213e-09
2.43603e-10
9.62929e-09
2.22838e-10
9.42461e-09
2.04677e-10
9.23593e-09
1.88684e-10
9.06142e-09
1.74513e-10
8.89953e-09
1.61889e-10
8.74894e-09
1.50587e-10
8.60851e-09
1.40428e-10
8.47725e-09
1.31261e-10
8.35429e-09
1.22965e-10
8.23885e-09
1.15441e-10
8.13024e-09
1.08603e-10
8.02785e-09
1.02395e-10
7.9311e-09
9.67495e-11
7.83945e-09
9.1652e-11
7.75241e-09
8.70366e-11
7.66946e-09
8.2952e-11
7.59016e-09
7.92937e-11
7.51393e-09
7.62291e-11
7.44039e-09
7.35482e-11
7.36876e-09
7.16296e-11
7.29868e-09
7.00779e-11
7.22911e-09
6.9567e-11
7.15955e-09
6.95577e-11
7.08875e-09
7.08078e-11
7.01529e-09
7.34523e-11
6.93871e-09
7.65822e-11
6.85355e-09
8.51599e-11
6.7651e-09
8.84498e-11
6.64982e-09
1.15279e-10
6.55239e-09
9.74374e-11
6.23049e-09
3.219e-10
-2.70358e-09
8.93406e-09
1.25944e-07
1.27619e-07
9.12927e-08
6.71976e-08
7.19435e-08
2.82534e-08
6.1232e-08
1.4195e-08
5.48e-08
8.38271e-09
5.03096e-08
5.91932e-09
4.68298e-08
4.61136e-09
4.40215e-08
3.71926e-09
4.17039e-08
3.06654e-09
3.97517e-08
2.58259e-09
3.80776e-08
2.21461e-09
3.66217e-08
1.92599e-09
3.53411e-08
1.69378e-09
3.42044e-08
1.50341e-09
3.31874e-08
1.34496e-09
3.22714e-08
1.2114e-09
3.14413e-08
1.09757e-09
3.06854e-08
9.99583e-10
2.99937e-08
9.14509e-10
2.93583e-08
8.40065e-10
2.87725e-08
7.74473e-10
2.82307e-08
7.16318e-10
2.77281e-08
6.64469e-10
2.72607e-08
6.18009e-10
2.68249e-08
5.76193e-10
2.64178e-08
5.38404e-10
2.60366e-08
5.04141e-10
2.56791e-08
4.72986e-10
2.53431e-08
4.44591e-10
2.50268e-08
4.18692e-10
2.47285e-08
3.95038e-10
2.44467e-08
3.73504e-10
2.41798e-08
3.53875e-10
2.39265e-08
3.36218e-10
2.36856e-08
3.20243e-10
2.34555e-08
3.06375e-10
2.3235e-08
2.9401e-10
2.30223e-08
2.84313e-10
2.28165e-08
2.75889e-10
2.26147e-08
2.7141e-10
2.24164e-08
2.67813e-10
2.22166e-08
2.70572e-10
2.20162e-08
2.73865e-10
2.18056e-08
2.87235e-10
2.15878e-08
3.02923e-10
2.13455e-08
3.30716e-10
2.10781e-08
3.82754e-10
2.07939e-08
3.81609e-10
2.02817e-08
8.34069e-10
-2.66349e-09
2.02416e-08
1.58753e-07
1.35269e-07
1.3653e-07
8.94204e-08
1.17501e-07
4.7282e-08
1.03331e-07
2.83656e-08
9.33448e-08
1.83688e-08
8.60536e-08
1.32105e-08
8.03563e-08
1.03087e-08
7.57165e-08
8.35908e-09
7.18518e-08
6.93128e-09
6.85744e-08
5.8599e-09
6.57512e-08
5.03788e-09
6.32871e-08
4.39e-09
6.11138e-08
3.86712e-09
5.91799e-08
3.43729e-09
5.74462e-08
3.07873e-09
5.58817e-08
2.77587e-09
5.4462e-08
2.51727e-09
5.31672e-08
2.29434e-09
5.19812e-08
2.10051e-09
5.08906e-08
1.9307e-09
4.98842e-08
1.7809e-09
4.89525e-08
1.64795e-09
4.80877e-08
1.52928e-09
4.72829e-08
1.42284e-09
4.65322e-08
1.32692e-09
4.58304e-08
1.24013e-09
4.51733e-08
1.16132e-09
4.45567e-08
1.08954e-09
4.39773e-08
1.02399e-09
4.3432e-08
9.64032e-10
4.29179e-08
9.09116e-10
4.24325e-08
8.58885e-10
4.19735e-08
8.12903e-10
4.15385e-08
7.71171e-10
4.11256e-08
7.33167e-10
4.07324e-08
6.9956e-10
4.03572e-08
6.69253e-10
3.99971e-08
6.44418e-10
3.96508e-08
6.22208e-10
3.93138e-08
6.08329e-10
3.89863e-08
5.95382e-10
3.86596e-08
5.97256e-10
3.83376e-08
5.95886e-10
3.80018e-08
6.2304e-10
3.76659e-08
6.38796e-10
3.72894e-08
7.07192e-10
3.69006e-08
7.71555e-10
3.64538e-08
8.28428e-10
3.58847e-08
1.40315e-09
-1.54374e-09
3.4765e-08
1.75612e-07
1.31174e-07
1.65626e-07
9.94061e-08
1.52742e-07
6.01657e-08
1.4014e-07
4.09675e-08
1.29469e-07
2.90397e-08
1.20841e-07
2.18383e-08
1.13742e-07
1.74079e-08
1.07776e-07
1.4325e-08
1.02693e-07
1.20144e-08
9.83102e-08
1.02427e-08
9.44878e-08
8.86033e-09
9.11201e-08
7.75768e-09
8.81273e-08
6.85995e-09
8.54477e-08
6.11683e-09
8.30331e-08
5.49333e-09
8.08448e-08
4.96415e-09
7.88517e-08
4.51046e-09
7.7028e-08
4.11796e-09
7.53529e-08
3.77566e-09
7.38086e-08
3.47497e-09
7.23804e-08
3.20911e-09
7.10557e-08
2.97263e-09
6.98238e-08
2.76117e-09
6.86755e-08
2.57114e-09
6.76028e-08
2.39962e-09
6.65988e-08
2.24416e-09
6.56574e-08
2.10275e-09
6.47732e-08
1.97372e-09
6.39415e-08
1.85565e-09
6.31582e-08
1.74741e-09
6.24192e-08
1.64803e-09
6.17213e-08
1.5568e-09
6.10612e-08
1.473e-09
6.04359e-08
1.39648e-09
5.98427e-08
1.32644e-09
5.92785e-08
1.26374e-09
5.8741e-08
1.20675e-09
5.82267e-08
1.1587e-09
5.77338e-08
1.11509e-09
5.7257e-08
1.08512e-09
5.67962e-08
1.05621e-09
5.63411e-08
1.05237e-09
5.58964e-08
1.04054e-09
5.54399e-08
1.07955e-09
5.49883e-08
1.09044e-09
5.44942e-08
1.2012e-09
5.39896e-08
1.27622e-09
5.3417e-08
1.40097e-09
5.27579e-08
2.06225e-09
-1.67833e-10
5.1382e-08
1.8451e-07
1.23449e-07
1.82342e-07
1.01574e-07
1.76126e-07
6.63819e-08
1.67775e-07
4.93187e-08
1.59164e-07
3.76501e-08
1.5127e-07
2.97323e-08
1.44212e-07
2.44665e-08
1.37928e-07
2.06086e-08
1.32347e-07
1.75958e-08
1.27383e-07
1.52063e-08
1.22952e-07
1.32918e-08
1.18976e-07
1.17337e-08
1.1539e-07
1.0445e-08
1.12142e-07
9.36481e-09
1.09187e-07
8.44902e-09
1.06486e-07
7.66499e-09
1.04009e-07
6.98786e-09
1.01728e-07
6.39838e-09
9.96223e-08
5.8815e-09
9.76719e-08
5.42531e-09
9.58608e-08
5.02029e-09
9.41747e-08
4.65872e-09
9.26015e-08
4.33434e-09
9.11307e-08
4.04197e-09
8.97529e-08
3.77736e-09
8.84602e-08
3.53693e-09
8.72452e-08
3.31771e-09
8.61017e-08
3.11719e-09
8.50241e-08
2.9333e-09
8.40072e-08
2.7643e-09
8.30465e-08
2.60872e-09
8.21379e-08
2.46546e-09
8.12774e-08
2.33345e-09
8.04616e-08
2.21233e-09
7.9687e-08
2.10099e-09
7.89503e-08
2.00044e-09
7.82486e-08
1.90849e-09
7.75779e-08
1.82939e-09
7.6936e-08
1.75702e-09
7.63171e-08
1.70398e-09
7.57206e-08
1.65272e-09
7.5136e-08
1.63694e-09
7.45669e-08
1.60966e-09
7.3992e-08
1.65443e-09
7.34235e-08
1.65892e-09
7.28221e-08
1.80259e-09
7.22013e-08
1.89704e-09
7.15283e-08
2.07395e-09
7.07516e-08
2.83901e-09
1.27035e-09
6.93134e-08
1.90343e-07
1.15323e-07
1.9186e-07
1.00057e-07
1.90266e-07
6.79761e-08
1.86165e-07
5.34191e-08
1.80734e-07
4.30815e-08
1.74992e-07
3.54738e-08
1.69309e-07
3.01502e-08
1.6384e-07
2.60773e-08
1.58684e-07
2.27523e-08
1.53881e-07
2.00087e-08
1.49436e-07
1.77374e-08
1.4533e-07
1.58389e-08
1.41541e-07
1.4234e-08
1.38042e-07
1.2864e-08
1.34807e-07
1.16846e-08
1.3181e-07
1.06617e-08
1.29029e-07
9.76847e-09
1.26444e-07
8.98341e-09
1.24036e-07
8.28933e-09
1.2179e-07
7.67229e-09
1.19689e-07
7.12096e-09
1.17722e-07
6.626e-09
1.15876e-07
6.17971e-09
1.14143e-07
5.77566e-09
1.12511e-07
5.40848e-09
1.10975e-07
5.0736e-09
1.09525e-07
4.76722e-09
1.08156e-07
4.48608e-09
1.06862e-07
4.22745e-09
1.05637e-07
3.98904e-09
1.04477e-07
3.76891e-09
1.03377e-07
3.56556e-09
1.02333e-07
3.37756e-09
1.01341e-07
3.20434e-09
1.00398e-07
3.0445e-09
9.94988e-08
2.89912e-09
9.86418e-08
2.76556e-09
9.78223e-08
2.64889e-09
9.70376e-08
2.54172e-09
9.62821e-08
2.4594e-09
9.55543e-08
2.38058e-09
9.48447e-08
2.3465e-09
9.41541e-08
2.30026e-09
9.34658e-08
2.34273e-09
9.27828e-08
2.34192e-09
9.20814e-08
2.50404e-09
9.13491e-08
2.62932e-09
9.05832e-08
2.83987e-09
8.97054e-08
3.71674e-09
2.76253e-09
8.82133e-08
1.95504e-07
1.07633e-07
1.98248e-07
9.73134e-08
1.98988e-07
6.7236e-08
1.97797e-07
5.461e-08
1.95168e-07
4.57103e-08
1.91836e-07
3.88055e-08
1.88115e-07
3.38716e-08
1.84177e-07
3.00153e-08
1.80173e-07
2.67564e-08
1.76213e-07
2.39687e-08
1.72365e-07
2.15853e-08
1.68668e-07
1.9536e-08
1.65142e-07
1.77601e-08
1.61795e-07
1.62108e-08
1.58628e-07
1.48517e-08
1.55636e-07
1.36533e-08
1.52813e-07
1.25917e-08
1.5015e-07
1.16468e-08
1.47637e-07
1.08021e-08
1.45266e-07
1.00437e-08
1.43026e-07
9.36009e-09
1.40911e-07
8.74163e-09
1.3891e-07
8.18008e-09
1.37018e-07
7.66847e-09
1.35225e-07
7.2009e-09
1.33526e-07
6.77227e-09
1.31915e-07
6.37827e-09
1.30386e-07
6.01514e-09
1.28934e-07
5.67974e-09
1.27554e-07
5.36936e-09
1.26241e-07
5.08173e-09
1.24991e-07
4.81501e-09
1.23801e-07
4.56756e-09
1.22667e-07
4.33858e-09
1.21585e-07
4.12651e-09
1.20552e-07
3.93242e-09
1.19564e-07
3.75345e-09
1.18618e-07
3.59518e-09
1.1771e-07
3.44951e-09
1.16836e-07
3.3336e-09
1.15992e-07
3.224e-09
1.15172e-07
3.1665e-09
1.14373e-07
3.09953e-09
1.13584e-07
3.13212e-09
1.12798e-07
3.12806e-09
1.12006e-07
3.29542e-09
1.11177e-07
3.45845e-09
1.10322e-07
3.69469e-09
1.09371e-07
4.66798e-09
4.28468e-09
1.07849e-07
2.00819e-07
1.00398e-07
2.03772e-07
9.43605e-08
2.05347e-07
6.56612e-08
2.05651e-07
5.43066e-08
2.04824e-07
4.65369e-08
2.0335e-07
4.02792e-08
2.01411e-07
3.58115e-08
1.9909e-07
3.2336e-08
1.96495e-07
2.93509e-08
1.9373e-07
2.6734e-08
1.90875e-07
2.44407e-08
1.87989e-07
2.24212e-08
1.85119e-07
2.06306e-08
1.82295e-07
1.90347e-08
1.7954e-07
1.76069e-08
1.76868e-07
1.63254e-08
1.74288e-07
1.51716e-08
1.71805e-07
1.41296e-08
1.69421e-07
1.31858e-08
1.67136e-07
1.23284e-08
1.64949e-07
1.15473e-08
1.62857e-07
1.08337e-08
1.60857e-07
1.01801e-08
1.58946e-07
9.57988e-09
1.57119e-07
9.02734e-09
1.55374e-07
8.51747e-09
1.53706e-07
8.04595e-09
1.52113e-07
7.60896e-09
1.50589e-07
7.20326e-09
1.49132e-07
6.826e-09
1.47739e-07
6.4748e-09
1.46407e-07
6.14771e-09
1.45131e-07
5.84298e-09
1.4391e-07
5.55972e-09
1.4274e-07
5.29635e-09
1.41619e-07
5.05395e-09
1.40543e-07
4.82962e-09
1.39508e-07
4.62927e-09
1.38513e-07
4.44462e-09
1.37553e-07
4.29376e-09
1.36624e-07
4.15279e-09
1.35722e-07
4.06918e-09
1.3484e-07
3.98162e-09
1.33973e-07
3.99913e-09
1.33107e-07
3.99394e-09
1.32244e-07
4.15772e-09
1.31343e-07
4.35982e-09
1.30415e-07
4.62301e-09
1.29416e-07
5.66682e-09
5.79062e-09
1.2791e-07
2.06423e-07
9.35076e-08
2.09332e-07
9.14511e-08
2.11058e-07
6.39351e-08
2.11941e-07
5.3424e-08
2.12007e-07
4.64708e-08
2.11626e-07
4.06599e-08
2.10903e-07
3.65352e-08
2.09839e-07
3.33997e-08
2.08474e-07
3.07155e-08
2.06867e-07
2.83409e-08
2.05074e-07
2.62339e-08
2.03144e-07
2.43516e-08
2.01119e-07
2.26555e-08
1.99036e-07
2.11181e-08
1.96923e-07
1.97195e-08
1.94805e-07
1.84437e-08
1.92699e-07
1.72772e-08
1.9062e-07
1.62084e-08
1.88579e-07
1.52273e-08
1.86583e-07
1.43247e-08
1.84637e-07
1.34929e-08
1.82746e-07
1.27248e-08
1.80912e-07
1.20143e-08
1.79136e-07
1.13559e-08
1.77418e-07
1.07447e-08
1.75759e-07
1.01764e-08
1.74158e-07
9.647e-09
1.72614e-07
9.15316e-09
1.71125e-07
8.69186e-09
1.69691e-07
8.26044e-09
1.68309e-07
7.85669e-09
1.66978e-07
7.47873e-09
1.65696e-07
7.12494e-09
1.64461e-07
6.79449e-09
1.63272e-07
6.4859e-09
1.62125e-07
6.20037e-09
1.6102e-07
5.93515e-09
1.59953e-07
5.69635e-09
1.58921e-07
5.47595e-09
1.57923e-07
5.29234e-09
1.56953e-07
5.12245e-09
1.56009e-07
5.01325e-09
1.55083e-07
4.90733e-09
1.54175e-07
4.90785e-09
1.53265e-07
4.90385e-09
1.52363e-07
5.06004e-09
1.51423e-07
5.29907e-09
1.50452e-07
5.59454e-09
1.49436e-07
6.68215e-09
7.23167e-09
1.47995e-07
2.12269e-07
8.69009e-08
2.15141e-07
8.85791e-08
2.16813e-07
6.22628e-08
2.17855e-07
5.23819e-08
2.18266e-07
4.60598e-08
2.18387e-07
4.05393e-08
2.18316e-07
3.66065e-08
2.18021e-07
3.36943e-08
2.17497e-07
3.12392e-08
2.16763e-07
2.90748e-08
2.15844e-07
2.71538e-08
2.14763e-07
2.54321e-08
2.13548e-07
2.38707e-08
2.12223e-07
2.24425e-08
2.10814e-07
2.11293e-08
2.0934e-07
1.99175e-08
2.07821e-07
1.87964e-08
2.06272e-07
1.77569e-08
2.04708e-07
1.67914e-08
2.0314e-07
1.58931e-08
2.01576e-07
1.50561e-08
2.00026e-07
1.42753e-08
1.98494e-07
1.35458e-08
1.96987e-07
1.28635e-08
1.95507e-07
1.22247e-08
1.94058e-07
1.16257e-08
1.92641e-07
1.10635e-08
1.91259e-07
1.05353e-08
1.89912e-07
1.00386e-08
1.88601e-07
9.57122e-09
1.87327e-07
9.13121e-09
1.86089e-07
8.71702e-09
1.84886e-07
8.32731e-09
1.83719e-07
7.96145e-09
1.82587e-07
7.61823e-09
1.81488e-07
7.29904e-09
1.80422e-07
7.00142e-09
1.79387e-07
6.73167e-09
1.7838e-07
6.48233e-09
1.77401e-07
6.27163e-09
1.76445e-07
6.07829e-09
1.75511e-07
5.9472e-09
1.74591e-07
5.82738e-09
1.73687e-07
5.81228e-09
1.72778e-07
5.81241e-09
1.71877e-07
5.96114e-09
1.70943e-07
6.23343e-09
1.6997e-07
6.56715e-09
1.68977e-07
7.67494e-09
8.56081e-09
1.67648e-07
2.18315e-07
8.05667e-08
2.2119e-07
8.57037e-08
2.22786e-07
6.06671e-08
2.23857e-07
5.13114e-08
2.24376e-07
4.55402e-08
2.24674e-07
4.02413e-08
2.24879e-07
3.64021e-08
2.24961e-07
3.36117e-08
2.24901e-07
3.12989e-08
2.247e-07
2.92762e-08
2.24362e-07
2.74923e-08
2.23892e-07
2.59014e-08
2.23302e-07
2.44615e-08
2.22601e-07
2.31433e-08
2.21803e-07
2.19272e-08
2.20921e-07
2.07993e-08
2.19969e-07
1.97491e-08
2.18957e-07
1.87682e-08
2.17899e-07
1.78498e-08
2.16804e-07
1.69881e-08
2.15682e-07
1.61785e-08
2.1454e-07
1.54166e-08
2.13387e-07
1.46989e-08
2.12229e-07
1.40221e-08
2.1107e-07
1.33833e-08
2.09916e-07
1.27798e-08
2.0877e-07
1.22092e-08
2.07636e-07
1.16694e-08
2.06516e-07
1.11585e-08
2.05413e-07
1.06747e-08
2.04327e-07
1.02165e-08
2.03262e-07
9.78288e-09
2.02216e-07
9.37271e-09
2.01192e-07
8.98574e-09
2.00189e-07
8.62104e-09
1.99208e-07
8.28029e-09
1.98248e-07
7.9614e-09
1.97309e-07
7.67082e-09
1.96389e-07
7.40189e-09
1.95488e-07
7.17234e-09
1.94603e-07
6.96329e-09
1.93734e-07
6.81655e-09
1.92872e-07
6.68902e-09
1.92022e-07
6.66236e-09
1.91164e-07
6.67022e-09
1.90311e-07
6.81476e-09
1.89428e-07
7.1162e-09
1.88502e-07
7.4929e-09
1.87576e-07
8.60166e-09
9.73469e-09
1.86402e-07
2.24548e-07
7.45114e-08
2.2745e-07
8.2802e-08
2.28982e-07
5.91354e-08
2.3006e-07
5.02336e-08
2.3062e-07
4.49801e-08
2.30966e-07
3.98949e-08
2.3126e-07
3.61081e-08
2.31491e-07
3.33813e-08
2.31639e-07
3.11505e-08
2.31704e-07
2.92114e-08
2.31684e-07
2.75117e-08
2.31579e-07
2.60065e-08
2.31388e-07
2.46527e-08
2.31113e-07
2.34184e-08
2.30757e-07
2.22825e-08
2.30327e-07
2.12296e-08
2.29828e-07
2.02483e-08
2.29266e-07
1.93297e-08
2.2865e-07
1.84666e-08
2.27984e-07
1.76535e-08
2.27277e-07
1.68856e-08
2.26535e-07
1.61591e-08
2.25763e-07
1.54707e-08
2.24967e-07
1.48176e-08
2.24153e-07
1.41975e-08
2.23325e-07
1.3608e-08
2.22487e-07
1.30474e-08
2.21642e-07
1.25139e-08
2.20795e-07
1.20061e-08
2.19947e-07
1.15225e-08
2.19101e-07
1.10623e-08
2.1826e-07
1.06245e-08
2.17424e-07
1.02084e-08
2.16596e-07
9.81412e-09
2.15776e-07
9.44099e-09
2.14965e-07
9.091e-09
2.14164e-07
8.76242e-09
2.13373e-07
8.46184e-09
2.12591e-07
8.18344e-09
2.11819e-07
7.94428e-09
2.11054e-07
7.72822e-09
2.10298e-07
7.5733e-09
2.09542e-07
7.44503e-09
2.08791e-07
7.41251e-09
2.0803e-07
7.43181e-09
2.07267e-07
7.57725e-09
2.0648e-07
7.90376e-09
2.05647e-07
8.32573e-09
2.04828e-07
9.42086e-09
1.07183e-08
2.03844e-07
2.30974e-07
6.87429e-08
2.33911e-07
7.98653e-08
2.35386e-07
5.76606e-08
2.36472e-07
4.91475e-08
2.37065e-07
4.4387e-08
2.37427e-07
3.95334e-08
2.37742e-07
3.57924e-08
2.38019e-07
3.3105e-08
2.38242e-07
3.09268e-08
2.38416e-07
2.90378e-08
2.38541e-07
2.73863e-08
2.38617e-07
2.5931e-08
2.3864e-07
2.46295e-08
2.38609e-07
2.34491e-08
2.38524e-07
2.23675e-08
2.38386e-07
2.13685e-08
2.38194e-07
2.04398e-08
2.37952e-07
1.95716e-08
2.37662e-07
1.87563e-08
2.37328e-07
1.79877e-08
2.36953e-07
1.72608e-08
2.3654e-07
1.65717e-08
2.36094e-07
1.5917e-08
2.35618e-07
1.52939e-08
2.35115e-07
1.47e-08
2.3459e-07
1.41334e-08
2.34045e-07
1.35924e-08
2.33483e-07
1.30755e-08
2.32908e-07
1.25814e-08
2.32321e-07
1.2109e-08
2.31726e-07
1.16577e-08
2.31124e-07
1.12267e-08
2.30517e-07
1.08156e-08
2.29906e-07
1.04247e-08
2.29293e-07
1.00536e-08
2.2868e-07
9.70458e-09
2.28066e-07
9.37616e-09
2.27453e-07
9.075e-09
2.2684e-07
8.79619e-09
2.26229e-07
8.55586e-09
2.25616e-07
8.34082e-09
2.25004e-07
8.18493e-09
2.24387e-07
8.06236e-09
2.2377e-07
8.02995e-09
2.23138e-07
8.0638e-09
2.22499e-07
8.21561e-09
2.2184e-07
8.5632e-09
2.21136e-07
9.02956e-09
2.20456e-07
1.01006e-08
1.14903e-08
2.19684e-07
2.37601e-07
6.3267e-08
2.40577e-07
7.68893e-08
2.41994e-07
5.62429e-08
2.43088e-07
4.80541e-08
2.43718e-07
4.37572e-08
2.44092e-07
3.91588e-08
2.44413e-07
3.5471e-08
2.44702e-07
3.2816e-08
2.44949e-07
3.06802e-08
2.45159e-07
2.88278e-08
2.45339e-07
2.72066e-08
2.45489e-07
2.57808e-08
2.45609e-07
2.45097e-08
2.45697e-07
2.33611e-08
2.45752e-07
2.23123e-08
2.45774e-07
2.1347e-08
2.45761e-07
2.04526e-08
2.45714e-07
1.96187e-08
2.45632e-07
1.88374e-08
2.45518e-07
1.81021e-08
2.45371e-07
1.74074e-08
2.45194e-07
1.6749e-08
2.44988e-07
1.61234e-08
2.44754e-07
1.55275e-08
2.44495e-07
1.49589e-08
2.44213e-07
1.44156e-08
2.4391e-07
1.38959e-08
2.43587e-07
1.33982e-08
2.43247e-07
1.29216e-08
2.42891e-07
1.24649e-08
2.42521e-07
1.20275e-08
2.42139e-07
1.16089e-08
2.41746e-07
1.12088e-08
2.41343e-07
1.08276e-08
2.40931e-07
1.0465e-08
2.40513e-07
1.01235e-08
2.40087e-07
9.80188e-09
2.39655e-07
9.50673e-09
2.39217e-07
9.23404e-09
2.38774e-07
8.99881e-09
2.38324e-07
8.79082e-09
2.3787e-07
8.63963e-09
2.37404e-07
8.52756e-09
2.36934e-07
8.50028e-09
2.36447e-07
8.55049e-09
2.3595e-07
8.71313e-09
2.35435e-07
9.07777e-09
2.3488e-07
9.5844e-09
2.34357e-07
1.0624e-08
1.20467e-08
2.33801e-07
2.44436e-07
5.80872e-08
2.4745e-07
7.38749e-08
2.48813e-07
5.48805e-08
2.49909e-07
4.69579e-08
2.50577e-07
4.30889e-08
2.50968e-07
3.87677e-08
2.51294e-07
3.5145e-08
2.51589e-07
3.25214e-08
2.51843e-07
3.04259e-08
2.52064e-07
2.86067e-08
2.52261e-07
2.70098e-08
2.52437e-07
2.56047e-08
2.52594e-07
2.43534e-08
2.5273e-07
2.32243e-08
2.52847e-07
2.21953e-08
2.52944e-07
2.12502e-08
2.5302e-07
2.03763e-08
2.53076e-07
1.95636e-08
2.53109e-07
1.88038e-08
2.53121e-07
1.80901e-08
2.53111e-07
1.74171e-08
2.5308e-07
1.67801e-08
2.53028e-07
1.61754e-08
2.52956e-07
1.56e-08
2.52864e-07
1.50511e-08
2.52752e-07
1.45267e-08
2.52623e-07
1.40249e-08
2.52477e-07
1.35443e-08
2.52315e-07
1.30837e-08
2.52138e-07
1.26422e-08
2.51946e-07
1.2219e-08
2.51742e-07
1.18137e-08
2.51524e-07
1.1426e-08
2.51295e-07
1.10565e-08
2.51055e-07
1.07049e-08
2.50805e-07
1.03738e-08
2.50545e-07
1.00621e-08
2.50275e-07
9.77626e-09
2.49996e-07
9.51319e-09
2.49709e-07
9.28657e-09
2.4941e-07
9.08906e-09
2.49104e-07
8.94603e-09
2.48784e-07
8.84702e-09
2.48457e-07
8.82817e-09
2.48112e-07
8.89486e-09
2.47754e-07
9.071e-09
2.47384e-07
9.44849e-09
2.4698e-07
9.9884e-09
2.46612e-07
1.09915e-08
1.24013e-08
2.46258e-07
2.51488e-07
5.32057e-08
2.54531e-07
7.08322e-08
2.55849e-07
5.35625e-08
2.56943e-07
4.58642e-08
2.57649e-07
4.23829e-08
2.58059e-07
3.83572e-08
2.58391e-07
3.48131e-08
2.58691e-07
3.22212e-08
2.58951e-07
3.01662e-08
2.59177e-07
2.8381e-08
2.59379e-07
2.68076e-08
2.59563e-07
2.54205e-08
2.59731e-07
2.41851e-08
2.59885e-07
2.30705e-08
2.60025e-07
2.20551e-08
2.60152e-07
2.1123e-08
2.60267e-07
2.02621e-08
2.60368e-07
1.94623e-08
2.60456e-07
1.87155e-08
2.60531e-07
1.80151e-08
2.60593e-07
1.73555e-08
2.60641e-07
1.6732e-08
2.60676e-07
1.61408e-08
2.60697e-07
1.55788e-08
2.60705e-07
1.50433e-08
2.60699e-07
1.45319e-08
2.60681e-07
1.40431e-08
2.6065e-07
1.35751e-08
2.60607e-07
1.31268e-08
2.60552e-07
1.26972e-08
2.60486e-07
1.22856e-08
2.60408e-07
1.18917e-08
2.60319e-07
1.1515e-08
2.60219e-07
1.11563e-08
2.60109e-07
1.08152e-08
2.59988e-07
1.04943e-08
2.59857e-07
1.01929e-08
2.59717e-07
9.91697e-09
2.59565e-07
9.66436e-09
2.59405e-07
9.44737e-09
2.59232e-07
9.26135e-09
2.59051e-07
9.12776e-09
2.58855e-07
9.04226e-09
2.5865e-07
9.03329e-09
2.5843e-07
9.11505e-09
2.58196e-07
9.30529e-09
2.57953e-07
9.69126e-09
2.57686e-07
1.02555e-08
2.57459e-07
1.12184e-08
1.25818e-08
2.57278e-07
2.58766e-07
4.86228e-08
2.61826e-07
6.77717e-08
2.63111e-07
5.22779e-08
2.64197e-07
4.47782e-08
2.64939e-07
4.16415e-08
2.6537e-07
3.79252e-08
2.65709e-07
3.44743e-08
2.66015e-07
3.19153e-08
2.66281e-07
2.99009e-08
2.6651e-07
2.81512e-08
2.66716e-07
2.66022e-08
2.66903e-07
2.52332e-08
2.67075e-07
2.40127e-08
2.67235e-07
2.29112e-08
2.67383e-07
2.19071e-08
2.6752e-07
2.09853e-08
2.67649e-07
2.01337e-08
2.67768e-07
1.93429e-08
2.67879e-07
1.86048e-08
2.67981e-07
1.79128e-08
2.68075e-07
1.72615e-08
2.68161e-07
1.66464e-08
2.68238e-07
1.60635e-08
2.68307e-07
1.55098e-08
2.68368e-07
1.49825e-08
2.6842e-07
1.44795e-08
2.68464e-07
1.39989e-08
2.685e-07
1.35392e-08
2.68528e-07
1.30992e-08
2.68547e-07
1.26779e-08
2.68558e-07
1.22747e-08
2.68561e-07
1.18891e-08
2.68555e-07
1.15208e-08
2.68541e-07
1.11706e-08
2.68518e-07
1.08381e-08
2.68486e-07
1.05258e-08
2.68446e-07
1.02333e-08
2.68397e-07
9.96617e-09
2.68338e-07
9.72314e-09
2.6827e-07
9.51516e-09
2.68192e-07
9.33992e-09
2.68104e-07
9.2155e-09
2.68004e-07
9.14239e-09
2.67894e-07
9.14324e-09
2.67771e-07
9.23763e-09
2.67636e-07
9.44083e-09
2.67496e-07
9.83098e-09
2.67342e-07
1.04097e-08
2.6723e-07
1.13298e-08
1.26241e-08
2.67188e-07
2.66278e-07
4.43371e-08
2.69346e-07
6.4704e-08
2.70607e-07
5.1016e-08
2.71682e-07
4.37041e-08
2.72455e-07
4.08676e-08
2.7291e-07
3.74703e-08
2.73257e-07
3.41278e-08
2.73569e-07
3.16033e-08
2.7384e-07
2.96295e-08
2.74074e-07
2.7917e-08
2.74283e-07
2.63938e-08
2.74472e-07
2.50434e-08
2.74647e-07
2.38381e-08
2.74809e-07
2.27495e-08
2.7496e-07
2.17564e-08
2.75101e-07
2.08439e-08
2.75234e-07
2.00007e-08
2.7536e-07
1.92172e-08
2.75479e-07
1.84859e-08
2.75591e-07
1.78001e-08
2.75698e-07
1.71547e-08
2.75799e-07
1.65452e-08
2.75895e-07
1.59678e-08
2.75985e-07
1.54193e-08
2.76071e-07
1.48972e-08
2.76151e-07
1.43994e-08
2.76226e-07
1.39239e-08
2.76296e-07
1.34693e-08
2.76361e-07
1.30345e-08
2.7642e-07
1.26185e-08
2.76474e-07
1.22207e-08
2.76522e-07
1.18408e-08
2.76565e-07
1.14784e-08
2.76601e-07
1.11342e-08
2.76631e-07
1.08081e-08
2.76654e-07
1.05024e-08
2.7667e-07
1.0217e-08
2.7668e-07
9.95701e-09
2.76681e-07
9.722e-09
2.76674e-07
9.52164e-09
2.76659e-07
9.35568e-09
2.76635e-07
9.23934e-09
2.766e-07
9.17672e-09
2.76557e-07
9.18641e-09
2.76504e-07
9.29057e-09
2.76441e-07
9.50446e-09
2.76377e-07
9.89481e-09
2.76308e-07
1.04784e-08
2.76284e-07
1.13537e-08
1.25653e-08
2.76343e-07
2.74033e-07
4.03456e-08
2.77097e-07
6.16401e-08
2.78346e-07
4.97666e-08
2.79405e-07
4.26456e-08
2.80207e-07
4.00652e-08
2.80686e-07
3.69908e-08
2.81041e-07
3.37728e-08
2.81359e-07
3.12856e-08
2.81637e-07
2.93518e-08
2.81876e-07
2.76779e-08
2.82088e-07
2.61821e-08
2.8228e-07
2.48511e-08
2.82457e-07
2.36615e-08
2.8262e-07
2.2586e-08
2.82773e-07
2.1604e-08
2.82916e-07
2.07009e-08
2.83051e-07
1.98658e-08
2.83178e-07
1.90893e-08
2.833e-07
1.83641e-08
2.83416e-07
1.76839e-08
2.83528e-07
1.70434e-08
2.83635e-07
1.64383e-08
2.83738e-07
1.5865e-08
2.83837e-07
1.53203e-08
2.83932e-07
1.48018e-08
2.84024e-07
1.43073e-08
2.84113e-07
1.38351e-08
2.84198e-07
1.33839e-08
2.8428e-07
1.29524e-08
2.84359e-07
1.25398e-08
2.84434e-07
1.21456e-08
2.84506e-07
1.17694e-08
2.84573e-07
1.1411e-08
2.84636e-07
1.10711e-08
2.84695e-07
1.07496e-08
2.84748e-07
1.04488e-08
2.84797e-07
1.01688e-08
2.84839e-07
9.91433e-09
2.84876e-07
9.68577e-09
2.84906e-07
9.49162e-09
2.84928e-07
9.3333e-09
2.84944e-07
9.22377e-09
2.84951e-07
9.16962e-09
2.8495e-07
9.18682e-09
2.84943e-07
9.29802e-09
2.84928e-07
9.51976e-09
2.84915e-07
9.90689e-09
2.84907e-07
1.04866e-08
2.84945e-07
1.13158e-08
1.24378e-08
2.85073e-07
2.8204e-07
3.66436e-08
2.85089e-07
5.8591e-08
2.86335e-07
4.852e-08
2.87375e-07
4.16054e-08
2.88202e-07
3.92386e-08
2.88707e-07
3.64855e-08
2.89072e-07
3.34081e-08
2.89395e-07
3.0962e-08
2.8968e-07
2.90677e-08
2.89924e-07
2.74336e-08
2.90139e-07
2.59667e-08
2.90334e-07
2.4656e-08
2.90513e-07
2.34825e-08
2.90679e-07
2.24206e-08
2.90833e-07
2.14501e-08
2.90977e-07
2.05567e-08
2.91113e-07
1.97296e-08
2.91242e-07
1.89602e-08
2.91365e-07
1.82411e-08
2.91483e-07
1.75662e-08
2.91596e-07
1.69303e-08
2.91705e-07
1.63293e-08
2.9181e-07
1.57596e-08
2.91912e-07
1.52181e-08
2.92012e-07
1.47025e-08
2.92108e-07
1.42107e-08
2.92202e-07
1.37409e-08
2.92294e-07
1.3292e-08
2.92384e-07
1.28628e-08
2.92471e-07
1.24527e-08
2.92556e-07
1.20609e-08
2.92638e-07
1.16874e-08
2.92717e-07
1.13318e-08
2.92793e-07
1.0995e-08
2.92865e-07
1.0677e-08
2.92934e-07
1.03799e-08
2.92999e-07
1.01042e-08
2.93059e-07
9.85417e-09
2.93114e-07
9.63085e-09
2.93164e-07
9.4418e-09
2.93207e-07
9.28973e-09
2.93245e-07
9.1859e-09
2.93276e-07
9.13848e-09
2.93301e-07
9.16183e-09
2.93322e-07
9.27773e-09
2.93337e-07
9.50443e-09
2.93358e-07
9.88547e-09
2.93391e-07
1.0454e-08
2.93471e-07
1.12361e-08
1.22671e-08
2.93641e-07
2.90308e-07
3.32246e-08
2.93331e-07
5.55678e-08
2.94583e-07
4.72675e-08
2.95603e-07
4.05857e-08
2.96449e-07
3.83928e-08
2.96981e-07
3.59534e-08
2.97357e-07
3.30325e-08
2.97686e-07
3.06327e-08
2.97977e-07
2.87772e-08
2.98227e-07
2.71837e-08
2.98446e-07
2.57473e-08
2.98644e-07
2.44579e-08
2.98825e-07
2.33011e-08
2.98993e-07
2.22533e-08
2.99148e-07
2.12945e-08
2.99294e-07
2.0411e-08
2.99431e-07
1.95924e-08
2.99561e-07
1.88301e-08
2.99685e-07
1.81172e-08
2.99804e-07
1.74476e-08
2.99918e-07
1.68164e-08
3.00028e-07
1.62193e-08
3.00134e-07
1.56531e-08
3.00238e-07
1.51147e-08
3.00338e-07
1.46017e-08
3.00437e-07
1.41122e-08
3.00533e-07
1.36446e-08
3.00628e-07
1.31976e-08
3.0072e-07
1.27703e-08
3.00811e-07
1.23621e-08
3.00899e-07
1.19722e-08
3.00986e-07
1.16008e-08
3.0107e-07
1.12476e-08
3.01152e-07
1.09132e-08
3.01231e-07
1.05981e-08
3.01307e-07
1.0304e-08
3.01379e-07
1.00319e-08
3.01448e-07
9.78553e-09
3.01512e-07
9.56664e-09
3.01572e-07
9.38193e-09
3.01627e-07
9.23509e-09
3.01676e-07
9.13613e-09
3.01721e-07
9.09405e-09
3.0176e-07
9.12233e-09
3.01797e-07
9.24107e-09
3.01831e-07
9.46996e-09
3.01874e-07
9.84261e-09
3.01934e-07
1.0394e-08
3.02042e-07
1.11289e-08
1.20705e-08
3.02238e-07
2.98847e-07
3.00804e-08
3.01833e-07
5.25818e-08
3.03099e-07
4.60013e-08
3.04097e-07
3.95877e-08
3.04957e-07
3.75331e-08
3.05516e-07
3.53937e-08
3.05905e-07
3.26444e-08
3.0624e-07
3.02977e-08
3.06537e-07
2.84802e-08
3.06792e-07
2.69279e-08
3.07016e-07
2.55236e-08
3.07217e-07
2.42566e-08
3.07401e-07
2.31171e-08
3.07571e-07
2.20837e-08
3.07728e-07
2.11371e-08
3.07875e-07
2.02638e-08
3.08014e-07
1.94538e-08
3.08145e-07
1.86989e-08
3.0827e-07
1.79923e-08
3.0839e-07
1.73281e-08
3.08504e-07
1.67016e-08
3.08615e-07
1.61086e-08
3.08722e-07
1.55458e-08
3.08827e-07
1.50104e-08
3.08928e-07
1.45e-08
3.09028e-07
1.40128e-08
3.09125e-07
1.35471e-08
3.09221e-07
1.3102e-08
3.09315e-07
1.26765e-08
3.09407e-07
1.22699e-08
3.09497e-07
1.18818e-08
3.09586e-07
1.15122e-08
3.09672e-07
1.1161e-08
3.09757e-07
1.08289e-08
3.09839e-07
1.05162e-08
3.09918e-07
1.02249e-08
3.09994e-07
9.95585e-09
3.10066e-07
9.71283e-09
3.10135e-07
9.49784e-09
3.102e-07
9.31699e-09
3.10261e-07
9.17465e-09
3.10317e-07
9.07993e-09
3.10369e-07
9.04213e-09
3.10417e-07
9.07425e-09
3.10464e-07
9.19433e-09
3.10511e-07
9.4229e-09
3.10568e-07
9.78522e-09
3.10647e-07
1.03151e-08
3.10773e-07
1.10027e-08
1.18588e-08
3.10985e-07
3.07666e-07
2.72013e-08
3.10604e-07
4.9644e-08
3.11891e-07
4.47144e-08
3.12867e-07
3.86119e-08
3.13735e-07
3.66647e-08
3.14322e-07
3.48067e-08
3.14724e-07
3.22424e-08
3.15065e-07
2.99566e-08
3.15369e-07
2.81768e-08
3.15631e-07
2.6666e-08
3.15859e-07
2.52953e-08
3.16064e-07
2.40519e-08
3.16251e-07
2.29303e-08
3.16423e-07
2.19117e-08
3.16582e-07
2.09777e-08
3.16731e-07
2.0115e-08
3.16871e-07
1.93138e-08
3.17003e-07
1.85665e-08
3.17129e-07
1.78663e-08
3.1725e-07
1.72077e-08
3.17365e-07
1.6586e-08
3.17477e-07
1.59971e-08
3.17585e-07
1.54378e-08
3.1769e-07
1.49054e-08
3.17792e-07
1.43976e-08
3.17892e-07
1.39126e-08
3.17991e-07
1.34489e-08
3.18087e-07
1.30056e-08
3.18182e-07
1.25817e-08
3.18275e-07
1.21767e-08
3.18367e-07
1.17903e-08
3.18456e-07
1.14224e-08
3.18544e-07
1.10731e-08
3.1863e-07
1.0743e-08
3.18713e-07
1.04327e-08
3.18794e-07
1.01439e-08
3.18872e-07
9.87784e-09
3.18947e-07
9.63788e-09
3.19019e-07
9.42644e-09
3.19087e-07
9.24914e-09
3.19151e-07
9.11075e-09
3.19211e-07
9.01976e-09
3.19267e-07
8.98539e-09
3.19321e-07
9.02033e-09
3.19375e-07
9.14049e-09
3.19432e-07
9.36646e-09
3.195e-07
9.71678e-09
3.19593e-07
1.02218e-08
3.19734e-07
1.08626e-08
1.16382e-08
3.19954e-07
3.16776e-07
2.4576e-08
3.19655e-07
4.67658e-08
3.20968e-07
4.34012e-08
3.21922e-07
3.7658e-08
3.22794e-07
3.57926e-08
3.23407e-07
3.41931e-08
3.23825e-07
3.18249e-08
3.24172e-07
2.96092e-08
3.24482e-07
2.78671e-08
3.24751e-07
2.63975e-08
3.24984e-07
2.5062e-08
3.25192e-07
2.38434e-08
3.25382e-07
2.27403e-08
3.25557e-07
2.17371e-08
3.25718e-07
2.08161e-08
3.25869e-07
1.99642e-08
3.26011e-07
1.91722e-08
3.26145e-07
1.84326e-08
3.26272e-07
1.77391e-08
3.26393e-07
1.70862e-08
3.2651e-07
1.64693e-08
3.26623e-07
1.58846e-08
3.26731e-07
1.53289e-08
3.26837e-07
1.47996e-08
3.2694e-07
1.42944e-08
3.27041e-07
1.38116e-08
3.2714e-07
1.33499e-08
3.27238e-07
1.29083e-08
3.27333e-07
1.24861e-08
3.27427e-07
1.20827e-08
3.2752e-07
1.16979e-08
3.27611e-07
1.13317e-08
3.277e-07
1.09842e-08
3.27786e-07
1.06561e-08
3.27871e-07
1.0348e-08
3.27953e-07
1.00617e-08
3.28033e-07
9.79834e-09
3.28109e-07
9.56128e-09
3.28183e-07
9.35312e-09
3.28253e-07
9.17911e-09
3.28319e-07
9.04422e-09
3.28383e-07
8.95649e-09
3.28443e-07
8.92481e-09
3.28502e-07
8.96158e-09
3.28562e-07
9.08067e-09
3.28626e-07
9.30198e-09
3.28704e-07
9.63876e-09
3.28809e-07
1.01166e-08
3.28961e-07
1.07112e-08
1.14118e-08
3.29187e-07
3.26187e-07
2.21919e-08
3.28995e-07
4.39579e-08
3.30338e-07
4.20576e-08
3.31272e-07
3.67247e-08
3.32143e-07
3.49216e-08
3.32781e-07
3.35545e-08
3.33216e-07
3.13906e-08
3.3357e-07
2.92549e-08
3.33886e-07
2.75511e-08
3.34161e-07
2.61224e-08
3.344e-07
2.48233e-08
3.34612e-07
2.36309e-08
3.34805e-07
2.25471e-08
3.34983e-07
2.15597e-08
3.35147e-07
2.0652e-08
3.353e-07
1.98114e-08
3.35443e-07
1.90288e-08
3.35579e-07
1.82972e-08
3.35707e-07
1.76105e-08
3.3583e-07
1.69634e-08
3.35948e-07
1.63515e-08
3.36061e-07
1.57711e-08
3.36171e-07
1.52191e-08
3.36278e-07
1.46928e-08
3.36382e-07
1.41902e-08
3.36484e-07
1.37097e-08
3.36584e-07
1.325e-08
3.36682e-07
1.28101e-08
3.36779e-07
1.23895e-08
3.36874e-07
1.19877e-08
3.36967e-07
1.16045e-08
3.37059e-07
1.12399e-08