/*--------------------------------*- C++ -*----------------------------------*\
  =========                 |
  \\      /  F ield         | OpenFOAM: The Open Source CFD Toolbox
   \\    /   O peration     | Website:  https://openfoam.org
    \\  /    A nd           | Version:  7
     \\/     M anipulation  |
\*---------------------------------------------------------------------------*/
FoamFile
{
    version     2.0;
    format      ascii;
    class       volVectorField;
    location    "0.3";
    object      U_0;
}
// * * * * * * * * * * * * * * * * * * * * * * * * * * * * * * * * * * * * * //

dimensions      [0 1 -1 0 0 0 0];

internalField   nonuniform List<vector> 
70000
(
(0.553414 0.0169781 0)
(0.25142 0.0034004 0)
(0.165933 0.000318949 0)
(0.132456 4.90116e-05 0)
(0.117359 4.40557e-05 0)
(0.10741 5.22114e-05 0)
(0.0994507 4.44024e-05 0)
(0.0930204 3.53152e-05 0)
(0.0877917 2.9266e-05 0)
(0.0834398 2.51167e-05 0)
(0.0797365 2.19431e-05 0)
(0.0765344 1.93967e-05 0)
(0.0737319 1.73179e-05 0)
(0.071255 1.55987e-05 0)
(0.0690473 1.41584e-05 0)
(0.0670653 1.29378e-05 0)
(0.0652747 1.18927e-05 0)
(0.063648 1.09891e-05 0)
(0.062163 1.02022e-05 0)
(0.0608016 9.51143e-06 0)
(0.0595487 8.90184e-06 0)
(0.0583916 8.36071e-06 0)
(0.0573197 7.87859e-06 0)
(0.0563239 7.44745e-06 0)
(0.0553963 7.06154e-06 0)
(0.0545303 6.71536e-06 0)
(0.0537198 6.40572e-06 0)
(0.0529597 6.12954e-06 0)
(0.0522453 5.88399e-06 0)
(0.0515725 5.67014e-06 0)
(0.0509375 5.48275e-06 0)
(0.0503367 5.3298e-06 0)
(0.049767 5.20059e-06 0)
(0.0492248 5.11504e-06 0)
(0.0487076 5.04968e-06 0)
(0.0482117 5.0471e-06 0)
(0.0477341 5.06235e-06 0)
(0.0472718 5.16418e-06 0)
(0.0468191 5.30695e-06 0)
(0.0463768 5.51868e-06 0)
(0.0459284 5.9311e-06 0)
(0.0454925 6.15184e-06 0)
(0.0450129 7.29607e-06 0)
(0.0445755 6.97589e-06 0)
(0.0439895 1.04074e-05 0)
(0.0435728 7.2761e-06 0)
(0.0426886 1.86294e-05 0)
(0.0424269 3.80461e-06 0)
(0.0407824 5.18759e-05 0)
(0.0382247 -0.00156547 0)
(0.884863 0.0434931 0)
(0.650153 0.0201486 0)
(0.493995 0.00660414 0)
(0.403592 0.00275407 0)
(0.354903 0.00154709 0)
(0.323615 0.00113061 0)
(0.299748 0.000907972 0)
(0.280576 0.00074316 0)
(0.264905 0.000620233 0)
(0.251831 0.000529511 0)
(0.240704 0.000460572 0)
(0.231081 0.000406263 0)
(0.222658 0.000362335 0)
(0.215211 0.00032614 0)
(0.20857 0.000295875 0)
(0.202607 0.000270246 0)
(0.197218 0.000248302 0)
(0.19232 0.000229325 0)
(0.187849 0.000212771 0)
(0.183749 0.000198215 0)
(0.179975 0.000185327 0)
(0.17649 0.000173844 0)
(0.173261 0.000163557 0)
(0.170262 0.000154293 0)
(0.167469 0.000145916 0)
(0.164862 0.000138313 0)
(0.162424 0.000131391 0)
(0.160139 0.000125076 0)
(0.157994 0.000119307 0)
(0.155976 0.000114043 0)
(0.154074 0.000109239 0)
(0.152279 0.000104892 0)
(0.150582 0.00010096 0)
(0.148973 9.75015e-05 0)
(0.147444 9.44377e-05 0)
(0.145986 9.19558e-05 0)
(0.144592 8.9864e-05 0)
(0.143254 8.8605e-05 0)
(0.141957 8.7743e-05 0)
(0.140704 8.81815e-05 0)
(0.139453 8.90953e-05 0)
(0.138254 9.20045e-05 0)
(0.136961 9.59529e-05 0)
(0.135802 0.000102348 0)
(0.134283 0.000112729 0)
(0.133232 0.00012293 0)
(0.131024 0.000152479 0)
(0.130406 0.00014494 0)
(0.126493 0.000413902 0)
(0.123905 -0.00220732 0)
(0.991208 0.0499554 0)
(0.890928 0.0305619 0)
(0.762511 0.0146091 0)
(0.656578 0.00796881 0)
(0.585505 0.00487709 0)
(0.536173 0.00347144 0)
(0.498324 0.00273461 0)
(0.467745 0.00223966 0)
(0.44249 0.00187524 0)
(0.42125 0.00160291 0)
(0.403076 0.00139477 0)
(0.3873 0.00123077 0)
(0.373447 0.0010982 0)
(0.361167 0.000988951 0)
(0.350194 0.000897563 0)
(0.340321 0.000820135 0)
(0.331384 0.000753799 0)
(0.323252 0.000696401 0)
(0.315817 0.000646299 0)
(0.308993 0.000602219 0)
(0.302705 0.000563163 0)
(0.296893 0.000528337 0)
(0.291505 0.000497104 0)
(0.286496 0.000468948 0)
(0.281829 0.000443449 0)
(0.277471 0.000420259 0)
(0.273393 0.000399095 0)
(0.26957 0.000379726 0)
(0.265981 0.000361959 0)
(0.262605 0.000345653 0)
(0.259425 0.000330676 0)
(0.256424 0.000316978 0)
(0.25359 0.000304453 0)
(0.250906 0.00029319 0)
(0.248361 0.000283028 0)
(0.245941 0.000274345 0)
(0.243634 0.000266722 0)
(0.241429 0.000261201 0)
(0.239305 0.000256632 0)
(0.237266 0.000255563 0)
(0.235252 0.000255052 0)
(0.233335 0.000260946 0)
(0.231308 0.00026642 0)
(0.229497 0.000283922 0)
(0.227202 0.000299832 0)
(0.225589 0.000336415 0)
(0.222416 0.000382509 0)
(0.221399 0.000404782 0)
(0.216055 0.000803606 0)
(0.214402 -0.00161954 0)
(1.01554 0.0489535 0)
(1.00649 0.035723 0)
(0.935901 0.0208168 0)
(0.852052 0.0134949 0)
(0.782311 0.00919336 0)
(0.727207 0.00677762 0)
(0.682169 0.00538016 0)
(0.64447 0.00443756 0)
(0.612528 0.00374144 0)
(0.585148 0.00321405 0)
(0.561393 0.00280629 0)
(0.540555 0.00248283 0)
(0.522106 0.0022202 0)
(0.505642 0.00200301 0)
(0.490848 0.00182075 0)
(0.477475 0.00166592 0)
(0.465322 0.00153297 0)
(0.454225 0.00141769 0)
(0.444051 0.00131688 0)
(0.434686 0.00122805 0)
(0.426038 0.00114923 0)
(0.418028 0.00107885 0)
(0.410587 0.00101565 0)
(0.403659 0.000958594 0)
(0.397194 0.000906854 0)
(0.391148 0.000859725 0)
(0.385483 0.00081664 0)
(0.380167 0.000777122 0)
(0.375171 0.000740783 0)
(0.370467 0.000707318 0)
(0.366034 0.000676464 0)
(0.361849 0.000648075 0)
(0.357894 0.000621956 0)
(0.35415 0.000598194 0)
(0.350601 0.000576528 0)
(0.34723 0.000557527 0)
(0.344021 0.000540508 0)
(0.34096 0.000527217 0)
(0.338023 0.000515581 0)
(0.335212 0.000510315 0)
(0.332458 0.000505445 0)
(0.329844 0.000513068 0)
(0.327133 0.000517238 0)
(0.324691 0.000547594 0)
(0.32174 0.000565362 0)
(0.319554 0.000636159 0)
(0.31572 0.000693367 0)
(0.314124 0.00076884 0)
(0.308158 0.00123214 0)
(0.30625 -0.000631753 0)
(1.01435 0.0460978 0)
(1.04798 0.0373398 0)
(1.02457 0.0241835 0)
(0.974708 0.0175524 0)
(0.923542 0.0131021 0)
(0.876856 0.0101966 0)
(0.834748 0.00833442 0)
(0.797069 0.00700929 0)
(0.763594 0.00599589 0)
(0.73388 0.00520565 0)
(0.707415 0.00458101 0)
(0.683726 0.00407759 0)
(0.662416 0.003664 0)
(0.643153 0.0033188 0)
(0.625658 0.00302692 0)
(0.609703 0.00277738 0)
(0.595094 0.00256194 0)
(0.581667 0.0023743 0)
(0.569287 0.00220956 0)
(0.557837 0.0020639 0)
(0.547217 0.00193425 0)
(0.537341 0.00181818 0)
(0.528137 0.00171369 0)
(0.51954 0.00161916 0)
(0.511493 0.00153325 0)
(0.503949 0.00145483 0)
(0.496865 0.00138299 0)
(0.490201 0.00131695 0)
(0.483925 0.00125608 0)
(0.478007 0.00119987 0)
(0.472419 0.00114787 0)
(0.467136 0.00109983 0)
(0.462137 0.00105543 0)
(0.457399 0.00101472 0)
(0.452905 0.000977328 0)
(0.448634 0.000943999 0)
(0.444569 0.000913774 0)
(0.440693 0.000889114 0)
(0.43698 0.000866975 0)
(0.433429 0.000854375 0)
(0.429974 0.000842071 0)
(0.426686 0.000848905 0)
(0.423342 0.000849124 0)
(0.42028 0.000890605 0)
(0.416768 0.000908827 0)
(0.413977 0.00101167 0)
(0.409714 0.00108378 0)
(0.407363 0.00120887 0)
(0.401372 0.00174303 0)
(0.398347 0.000392753 0)
(1.00941 0.0430475 0)
(1.05564 0.0370951 0)
(1.05867 0.0253245 0)
(1.03632 0.0197562 0)
(1.00717 0.0157882 0)
(0.976187 0.0129215 0)
(0.944708 0.010947 0)
(0.913904 0.00946024 0)
(0.884631 0.00826514 0)
(0.857272 0.00729344 0)
(0.831904 0.00649961 0)
(0.808464 0.00584329 0)
(0.786832 0.00529314 0)
(0.766864 0.00482647 0)
(0.748414 0.0044266 0)
(0.731341 0.00408093 0)
(0.715513 0.00377968 0)
(0.700812 0.00351519 0)
(0.687132 0.00328139 0)
(0.674377 0.00307341 0)
(0.662463 0.00288733 0)
(0.651315 0.00271996 0)
(0.640866 0.00256867 0)
(0.631056 0.00243129 0)
(0.621832 0.002306 0)
(0.613149 0.0021913 0)
(0.604962 0.0020859 0)
(0.597236 0.00198873 0)
(0.589934 0.00189892 0)
(0.583028 0.00181572 0)
(0.576489 0.00173854 0)
(0.570291 0.00166694 0)
(0.564412 0.00160051 0)
(0.558828 0.00153924 0)
(0.553522 0.00148266 0)
(0.54847 0.00143164 0)
(0.543656 0.001385 0)
(0.53906 0.00134582 0)
(0.53466 0.00131022 0)
(0.530446 0.00128728 0)
(0.526363 0.00126496 0)
(0.522462 0.00126795 0)
(0.518556 0.00126251 0)
(0.514914 0.00131113 0)
(0.510932 0.00133099 0)
(0.507541 0.00145741 0)
(0.502998 0.00155415 0)
(0.499857 0.00171359 0)
(0.494049 0.00233525 0)
(0.489959 0.00144705 0)
(1.00635 0.0401796 0)
(1.05241 0.0361485 0)
(1.06606 0.0252478 0)
(1.05954 0.0205605 0)
(1.04692 0.017214 0)
(1.03089 0.0146376 0)
(1.01203 0.0128026 0)
(0.991394 0.0113721 0)
(0.970051 0.0101693 0)
(0.948731 0.0091483 0)
(0.927876 0.0082828 0)
(0.90775 0.00754467 0)
(0.8885 0.00690955 0)
(0.870194 0.00635876 0)
(0.852852 0.0058779 0)
(0.836461 0.00545551 0)
(0.820988 0.00508233 0)
(0.806391 0.00475078 0)
(0.792621 0.00445467 0)
(0.779628 0.00418887 0)
(0.767363 0.00394918 0)
(0.755779 0.00373205 0)
(0.744829 0.00353456 0)
(0.734473 0.00335421 0)
(0.724669 0.00318891 0)
(0.715382 0.00303687 0)
(0.706577 0.00289657 0)
(0.698223 0.00276672 0)
(0.690291 0.00264624 0)
(0.682755 0.00253423 0)
(0.67559 0.00242993 0)
(0.668772 0.00233281 0)
(0.662282 0.00224234 0)
(0.656097 0.00215846 0)
(0.650201 0.00208065 0)
(0.644572 0.00200986 0)
(0.639196 0.00194476 0)
(0.63405 0.00188893 0)
(0.629117 0.00183794 0)
(0.624382 0.00180239 0)
(0.619803 0.00176842 0)
(0.615406 0.00176477 0)
(0.611052 0.00175304 0)
(0.606926 0.00180422 0)
(0.602578 0.00182814 0)
(0.598671 0.00196867 0)
(0.593939 0.002098 0)
(0.590131 0.00228293 0)
(0.584488 0.00298588 0)
(0.579711 0.00254066 0)
(1.00506 0.0375024 0)
(1.04762 0.0350503 0)
(1.06396 0.0247004 0)
(1.06419 0.0205916 0)
(1.06071 0.0177517 0)
(1.05482 0.0154772 0)
(1.04609 0.0138569 0)
(1.03493 0.0125905 0)
(1.02207 0.0114974 0)
(1.00811 0.0105382 0)
(0.993501 0.00969896 0)
(0.978608 0.00896195 0)
(0.963693 0.0083105 0)
(0.94895 0.00773164 0)
(0.934515 0.0072152 0)
(0.920481 0.00675276 0)
(0.906905 0.00633719 0)
(0.893823 0.00596239 0)
(0.88125 0.00562314 0)
(0.869192 0.00531499 0)
(0.857642 0.00503413 0)
(0.846591 0.0047773 0)
(0.836024 0.00454168 0)
(0.825925 0.00432485 0)
(0.816273 0.00412473 0)
(0.807052 0.00393949 0)
(0.79824 0.00376757 0)
(0.789819 0.0036076 0)
(0.781771 0.00345844 0)
(0.774077 0.00331911 0)
(0.766719 0.00318879 0)
(0.759682 0.00306689 0)
(0.752948 0.00295285 0)
(0.746502 0.0028466 0)
(0.74033 0.00274759 0)
(0.734414 0.00265685 0)
(0.728742 0.00257302 0)
(0.723293 0.00250002 0)
(0.718056 0.00243319 0)
(0.713011 0.00238406 0)
(0.70813 0.0023381 0)
(0.703421 0.00232605 0)
(0.698785 0.00230838 0)
(0.694338 0.00235851 0)
(0.689764 0.00238883 0)
(0.685498 0.00253654 0)
(0.680673 0.00270143 0)
(0.676409 0.0029119 0)
(0.670914 0.00367757 0)
(0.665793 0.00364111 0)
(1.00451 0.0349666 0)
(1.04359 0.0339705 0)
(1.05993 0.0240498 0)
(1.06223 0.0203023 0)
(1.06253 0.0178164 0)
(1.06187 0.0157561 0)
(1.05931 0.0143089 0)
(1.05479 0.0132075 0)
(1.04861 0.0122558 0)
(1.04109 0.0114075 0)
(1.0325 0.0106514 0)
(1.02312 0.00997386 0)
(1.01316 0.0093621 0)
(1.00282 0.00880681 0)
(0.992276 0.00830116 0)
(0.981648 0.00783961 0)
(0.971043 0.0074174 0)
(0.960542 0.00703033 0)
(0.950205 0.00667469 0)
(0.940078 0.0063472 0)
(0.930194 0.00604496 0)
(0.920575 0.00576539 0)
(0.911236 0.00550624 0)
(0.902187 0.00526548 0)
(0.893432 0.00504133 0)
(0.884971 0.00483218 0)
(0.876802 0.00463666 0)
(0.86892 0.00445349 0)
(0.861321 0.00428164 0)
(0.853997 0.00412016 0)
(0.846941 0.00396832 0)
(0.840144 0.00382553 0)
(0.833598 0.00369129 0)
(0.827292 0.00356556 0)
(0.82122 0.00344785 0)
(0.815366 0.00333929 0)
(0.809727 0.0032386 0)
(0.804283 0.00314988 0)
(0.799029 0.00306859 0)
(0.793945 0.00300668 0)
(0.789014 0.00294987 0)
(0.784232 0.00292924 0)
(0.779533 0.00290699 0)
(0.774982 0.00295423 0)
(0.770365 0.0029929 0)
(0.765953 0.00314419 0)
(0.761173 0.00334394 0)
(0.756701 0.00358405 0)
(0.751418 0.00439348 0)
(0.746244 0.00471145 0)
(1.00412 0.032536 0)
(1.04026 0.0329172 0)
(1.05617 0.0234154 0)
(1.05887 0.019918 0)
(1.06025 0.0176874 0)
(1.06164 0.0157585 0)
(1.06202 0.0144124 0)
(1.06114 0.0134257 0)
(1.05911 0.0125892 0)
(1.05602 0.0118458 0)
(1.05197 0.0111817 0)
(1.04708 0.010583 0)
(1.04147 0.0100367 0)
(1.03526 0.00953436 0)
(1.02859 0.00907018 0)
(1.02156 0.00864003 0)
(1.01426 0.00824054 0)
(1.00678 0.00786884 0)
(0.999201 0.00752243 0)
(0.991573 0.00719908 0)
(0.983949 0.00689682 0)
(0.97637 0.00661387 0)
(0.968871 0.00634861 0)
(0.961476 0.00609958 0)
(0.954209 0.00586546 0)
(0.947083 0.00564502 0)
(0.940113 0.0054372 0)
(0.933307 0.00524099 0)
(0.926671 0.00505555 0)
(0.920209 0.00488013 0)
(0.913923 0.00471413 0)
(0.907813 0.00455708 0)
(0.901879 0.00440862 0)
(0.896119 0.0042688 0)
(0.89053 0.00413728 0)
(0.885105 0.00401526 0)
(0.879844 0.00390166 0)
(0.874734 0.00380072 0)
(0.869774 0.00370821 0)
(0.864947 0.00363613 0)
(0.860245 0.00357114 0)
(0.855659 0.00354349 0)
(0.851145 0.00351904 0)
(0.846739 0.00356345 0)
(0.842297 0.00361236 0)
(0.83798 0.00376641 0)
(0.833422 0.00399854 0)
(0.829003 0.00427299 0)
(0.82406 0.00511013 0)
(0.819108 0.00571714 0)
(1.00374 0.0302018 0)
(1.03727 0.0318682 0)
(1.05283 0.0228121 0)
(1.05563 0.019516 0)
(1.05716 0.0174971 0)
(1.0591 0.0156567 0)
(1.06055 0.0143581 0)
(1.06125 0.0134346 0)
(1.06127 0.0126711 0)
(1.06065 0.0120012 0)
(1.05937 0.0114087 0)
(1.05746 0.0108781 0)
(1.05495 0.0103951 0)
(1.05189 0.00994989 0)
(1.04834 0.00953637 0)
(1.04436 0.00915026 0)
(1.04002 0.00878838 0)
(1.03538 0.00844827 0)
(1.03048 0.0081279 0)
(1.02539 0.00782558 0)
(1.02015 0.00753988 0)
(1.0148 0.00726954 0)
(1.00938 0.00701345 0)
(1.00392 0.00677059 0)
(0.998453 0.00654007 0)
(0.992993 0.00632102 0)
(0.987564 0.00611272 0)
(0.982182 0.00591444 0)
(0.976863 0.00572561 0)
(0.971616 0.00554568 0)
(0.966451 0.00537427 0)
(0.961375 0.00521107 0)
(0.956394 0.00505589 0)
(0.951511 0.00490893 0)
(0.94673 0.00476999 0)
(0.942048 0.00464046 0)
(0.937471 0.00451944 0)
(0.93299 0.00441128 0)
(0.928608 0.00431221 0)
(0.924315 0.00423403 0)
(0.920105 0.00416484 0)
(0.915971 0.00413316 0)
(0.911886 0.00410978 0)
(0.907867 0.00415307 0)
(0.903821 0.00421414 0)
(0.899836 0.00437221 0)
(0.895688 0.00463351 0)
(0.891575 0.00494609 0)
(0.887126 0.00579745 0)
(0.882645 0.00662545 0)
(1.00337 0.0279663 0)
(1.03443 0.0308111 0)
(1.04973 0.0222338 0)
(1.05267 0.0191113 0)
(1.05416 0.0172883 0)
(1.05615 0.0155259 0)
(1.05787 0.0142491 0)
(1.0591 0.0133562 0)
(1.05993 0.0126331 0)
(1.06041 0.0120061 0)
(1.06052 0.011458 0)
(1.06024 0.0109734 0)
(1.05956 0.0105368 0)
(1.05849 0.0101371 0)
(1.05704 0.00976723 0)
(1.05524 0.0094222 0)
(1.0531 0.00909839 0)
(1.05067 0.00879304 0)
(1.04797 0.00850401 0)
(1.04502 0.00822962 0)
(1.04188 0.00796853 0)
(1.03855 0.00771963 0)
(1.03508 0.007482 0)
(1.03149 0.00725486 0)
(1.0278 0.00703752 0)
(1.02404 0.00682937 0)
(1.02022 0.00662991 0)
(1.01636 0.00643863 0)
(1.01249 0.00625516 0)
(1.00861 0.00607915 0)
(1.00473 0.00591039 0)
(1.00086 0.00574876 0)
(0.997024 0.00559421 0)
(0.993214 0.00544709 0)
(0.98944 0.00530738 0)
(0.985707 0.00517661 0)
(0.982019 0.00505409 0)
(0.978374 0.00494426 0)
(0.974777 0.00484387 0)
(0.971221 0.00476436 0)
(0.967705 0.00469551 0)
(0.964226 0.0046636 0)
(0.960764 0.00464498 0)
(0.957328 0.00468988 0)
(0.953861 0.00476493 0)
(0.950404 0.00492955 0)
(0.946833 0.00521653 0)
(0.943234 0.00556916 0)
(0.939422 0.00642384 0)
(0.935609 0.00740782 0)
(1.00301 0.0258331 0)
(1.03171 0.0297419 0)
(1.04673 0.0216767 0)
(1.04988 0.0187037 0)
(1.05134 0.0170678 0)
(1.0533 0.0153881 0)
(1.05505 0.0141265 0)
(1.05639 0.0132496 0)
(1.05746 0.0125493 0)
(1.05832 0.0119458 0)
(1.05899 0.011422 0)
(1.05944 0.0109637 0)
(1.05966 0.0105552 0)
(1.05965 0.0101851 0)
(1.05939 0.00984535 0)
(1.05889 0.00953054 0)
(1.05816 0.00923651 0)
(1.05719 0.00896004 0)
(1.05601 0.00869866 0)
(1.05462 0.00845043 0)
(1.05304 0.00821381 0)
(1.05129 0.0079876 0)
(1.04938 0.00777082 0)
(1.04733 0.00756267 0)
(1.04515 0.00736254 0)
(1.04287 0.00716985 0)
(1.04049 0.00698419 0)
(1.03803 0.00680517 0)
(1.0355 0.00663251 0)
(1.03292 0.006466 0)
(1.03029 0.00630552 0)
(1.02763 0.00615108 0)
(1.02494 0.00600274 0)
(1.02224 0.00586099 0)
(1.01952 0.00572592 0)
(1.0168 0.00559918 0)
(1.01407 0.00548028 0)
(1.01135 0.00537371 0)
(1.00862 0.00527676 0)
(1.00591 0.00520033 0)
(1.00319 0.00513606 0)
(1.00047 0.00510766 0)
(0.997743 0.0050972 0)
(0.995007 0.0051467 0)
(0.992232 0.00523704 0)
(0.989431 0.00541107 0)
(0.98654 0.00572015 0)
(0.983595 0.00611227 0)
(0.980515 0.00696176 0)
(0.977488 0.0080437 0)
(1.00268 0.0238047 0)
(1.02911 0.0286589 0)
(1.04382 0.0211403 0)
(1.04719 0.0182929 0)
(1.04865 0.0168338 0)
(1.05057 0.0152458 0)
(1.05232 0.0140011 0)
(1.05367 0.0131355 0)
(1.05477 0.0124516 0)
(1.05573 0.0118629 0)
(1.05657 0.0113525 0)
(1.05728 0.0109082 0)
(1.05787 0.0105152 0)
(1.05831 0.0101617 0)
(1.05862 0.00983984 0)
(1.05879 0.00954379 0)
(1.05881 0.00926917 0)
(1.05868 0.00901249 0)
(1.0584 0.00877099 0)
(1.05798 0.00854248 0)
(1.05742 0.00832521 0)
(1.05672 0.00811777 0)
(1.05589 0.00791905 0)
(1.05494 0.00772812 0)
(1.05388 0.0075443 0)
(1.05271 0.00736696 0)
(1.05145 0.00719568 0)
(1.0501 0.00703007 0)
(1.04867 0.00686988 0)
(1.04717 0.00671492 0)
(1.0456 0.00656513 0)
(1.04398 0.00642057 0)
(1.04231 0.00628136 0)
(1.04059 0.00614807 0)
(1.03884 0.00602085 0)
(1.03705 0.00590146 0)
(1.03523 0.00578956 0)
(1.03338 0.0056896 0)
(1.03151 0.00559944 0)
(1.02961 0.00552931 0)
(1.02769 0.00547274 0)
(1.02574 0.00545071 0)
(1.02376 0.00545082 0)
(1.02175 0.00550742 0)
(1.01969 0.00561348 0)
(1.01758 0.0057992 0)
(1.0154 0.00612666 0)
(1.01316 0.00655512 0)
(1.01084 0.00739274 0)
(1.00863 0.00852372 0)
(1.00238 0.0218829 0)
(1.02664 0.0275614 0)
(1.041 0.0206244 0)
(1.04458 0.0178807 0)
(1.04606 0.0165851 0)
(1.04795 0.0150976 0)
(1.0497 0.0138742 0)
(1.05104 0.0130191 0)
(1.05213 0.0123497 0)
(1.0531 0.0117733 0)
(1.05397 0.0112722 0)
(1.05475 0.0108364 0)
(1.05544 0.010452 0)
(1.05605 0.0101077 0)
(1.05658 0.00979567 0)
(1.05703 0.0095101 0)
(1.05739 0.00924664 0)
(1.05767 0.00900173 0)
(1.05785 0.00877252 0)
(1.05795 0.00855666 0)
(1.05795 0.00835229 0)
(1.05787 0.00815785 0)
(1.05769 0.0079721 0)
(1.05743 0.00779402 0)
(1.05709 0.00762281 0)
(1.05666 0.00745779 0)
(1.05616 0.00729845 0)
(1.05558 0.00714439 0)
(1.05494 0.00699532 0)
(1.05423 0.00685106 0)
(1.05346 0.00671152 0)
(1.05263 0.00657681 0)
(1.05175 0.00644703 0)
(1.05081 0.00632282 0)
(1.04983 0.00620435 0)
(1.04881 0.00609341 0)
(1.04774 0.00598982 0)
(1.04663 0.00589791 0)
(1.04548 0.00581608 0)
(1.0443 0.00575381 0)
(1.04308 0.0057065 0)
(1.04181 0.00569238 0)
(1.04051 0.00570406 0)
(1.03915 0.00576921 0)
(1.03775 0.0058903 0)
(1.03629 0.00608885 0)
(1.03477 0.00643079 0)
(1.0332 0.0068901 0)
(1.03159 0.00771048 0)
(1.03015 0.00885125 0)
(1.0021 0.0200686 0)
(1.02431 0.0264511 0)
(1.03827 0.0201266 0)
(1.04206 0.017469 0)
(1.04356 0.0163218 0)
(1.04542 0.0149423 0)
(1.04717 0.0137452 0)
(1.04851 0.0129006 0)
(1.04959 0.0122458 0)
(1.05054 0.0116815 0)
(1.0514 0.0111888 0)
(1.05218 0.0107595 0)
(1.0529 0.0103811 0)
(1.05355 0.0100427 0)
(1.05414 0.0097364 0)
(1.05468 0.00945676 0)
(1.05517 0.00919948 0)
(1.05561 0.0089611 0)
(1.05599 0.00873877 0)
(1.05633 0.00853017 0)
(1.0566 0.00833336 0)
(1.05683 0.00814677 0)
(1.05699 0.00796908 0)
(1.05711 0.00779923 0)
(1.05717 0.00763633 0)
(1.05717 0.00747967 0)
(1.05712 0.0073287 0)
(1.05702 0.00718298 0)
(1.05687 0.00704219 0)
(1.05667 0.00690615 0)
(1.05643 0.00677474 0)
(1.05613 0.00664808 0)
(1.0558 0.00652626 0)
(1.05541 0.00640995 0)
(1.05499 0.00629933 0)
(1.05452 0.00619619 0)
(1.05401 0.00610049 0)
(1.05346 0.00601637 0)
(1.05287 0.0059428 0)
(1.05223 0.00588842 0)
(1.05156 0.00585039 0)
(1.05084 0.00584436 0)
(1.05008 0.00586725 0)
(1.04927 0.00594122 0)
(1.04841 0.00607561 0)
(1.04749 0.00628678 0)
(1.04653 0.00663915 0)
(1.04553 0.00712218 0)
(1.04453 0.00792082 0)
(1.04373 0.00904158 0)
(1.00185 0.0183621 0)
(1.02211 0.0253322 0)
(1.03563 0.0196434 0)
(1.03962 0.0170594 0)
(1.04115 0.0160445 0)
(1.04298 0.0147789 0)
(1.04472 0.0136137 0)
(1.04607 0.0127799 0)
(1.04714 0.0121397 0)
(1.04807 0.0115882 0)
(1.04892 0.011104 0)
(1.04969 0.010681 0)
(1.0504 0.0103079 0)
(1.05105 0.00997416 0)
(1.05165 0.00967208 0)
(1.05221 0.00939638 0)
(1.05273 0.00914292 0)
(1.05322 0.00890835 0)
(1.05367 0.00868992 0)
(1.05409 0.00848533 0)
(1.05448 0.0082927 0)
(1.05483 0.00811045 0)
(1.05515 0.00793727 0)
(1.05544 0.00777208 0)
(1.05569 0.007614 0)
(1.05592 0.0074623 0)
(1.05611 0.00731641 0)
(1.05626 0.00717589 0)
(1.05639 0.00704041 0)
(1.05648 0.00690979 0)
(1.05654 0.00678391 0)
(1.05657 0.0066629 0)
(1.05656 0.00654685 0)
(1.05652 0.00643644 0)
(1.05645 0.00633186 0)
(1.05634 0.00623491 0)
(1.0562 0.00614567 0)
(1.05602 0.00606806 0)
(1.05581 0.00600162 0)
(1.05556 0.00595412 0)
(1.05528 0.00592432 0)
(1.05495 0.00592559 0)
(1.05458 0.00595831 0)
(1.05417 0.00604043 0)
(1.05371 0.00618571 0)
(1.05321 0.0064081 0)
(1.05267 0.00676692 0)
(1.05213 0.0072657 0)
(1.0516 0.00803876 0)
(1.0513 0.00911836 0)
(1.00162 0.0167631 0)
(1.02004 0.0242089 0)
(1.0331 0.0191705 0)
(1.03727 0.0166536 0)
(1.03883 0.0157541 0)
(1.04062 0.0146067 0)
(1.04236 0.0134793 0)
(1.04371 0.0126568 0)
(1.04477 0.0120312 0)
(1.0457 0.0114931 0)
(1.04653 0.011018 0)
(1.04729 0.0106015 0)
(1.04798 0.0102337 0)
(1.04862 0.00990439 0)
(1.04922 0.00960613 0)
(1.04977 0.00933372 0)
(1.0503 0.00908321 0)
(1.05079 0.00885134 0)
(1.05125 0.00863546 0)
(1.0517 0.00843333 0)
(1.05211 0.00824312 0)
(1.05251 0.00806329 0)
(1.05289 0.00789256 0)
(1.05324 0.00772987 0)
(1.05358 0.00757435 0)
(1.05389 0.0074253 0)
(1.05419 0.00728215 0)
(1.05447 0.00714448 0)
(1.05472 0.00701199 0)
(1.05496 0.00688451 0)
(1.05518 0.00676193 0)
(1.05537 0.00664442 0)
(1.05554 0.00653206 0)
(1.0557 0.00642555 0)
(1.05582 0.00632515 0)
(1.05592 0.00623258 0)
(1.056 0.00614811 0)
(1.05605 0.00607541 0)
(1.05607 0.00601455 0)
(1.05606 0.0059725 0)
(1.05602 0.00594942 0)
(1.05594 0.00595671 0)
(1.05583 0.00599744 0)
(1.05569 0.00608648 0)
(1.0555 0.00624003 0)
(1.05529 0.00647149 0)
(1.05505 0.00683307 0)
(1.05482 0.0073397 0)
(1.05464 0.00808399 0)
(1.0547 0.00910856 0)
(1.00142 0.0152707 0)
(1.01812 0.0230854 0)
(1.03068 0.0187041 0)
(1.035 0.0162531 0)
(1.0366 0.0154522 0)
(1.03836 0.0144252 0)
(1.04009 0.0133417 0)
(1.04144 0.0125314 0)
(1.0425 0.0119201 0)
(1.04341 0.0113961 0)
(1.04424 0.0109307 0)
(1.04498 0.0105209 0)
(1.04566 0.0101586 0)
(1.04629 0.00983384 0)
(1.04687 0.0095394 0)
(1.04742 0.0092702 0)
(1.04793 0.00902241 0)
(1.04842 0.00879291 0)
(1.04888 0.00857911 0)
(1.04932 0.00837884 0)
(1.04974 0.00819032 0)
(1.05014 0.00801204 0)
(1.05053 0.00784278 0)
(1.05091 0.00768149 0)
(1.05126 0.00752733 0)
(1.05161 0.00737964 0)
(1.05195 0.00723787 0)
(1.05227 0.00710164 0)
(1.05258 0.00697066 0)
(1.05288 0.00684481 0)
(1.05316 0.00672401 0)
(1.05343 0.00660845 0)
(1.05369 0.00649825 0)
(1.05393 0.00639413 0)
(1.05416 0.00629639 0)
(1.05437 0.00620672 0)
(1.05456 0.00612556 0)
(1.05472 0.00605634 0)
(1.05487 0.00599964 0)
(1.05499 0.00596169 0)
(1.05509 0.00594379 0)
(1.05516 0.00595582 0)
(1.0552 0.00600272 0)
(1.05522 0.00609734 0)
(1.0552 0.00625669 0)
(1.05517 0.00649481 0)
(1.05512 0.00685597 0)
(1.0551 0.0073632 0)
(1.05515 0.00807633 0)
(1.05544 0.00903786 0)
(1.00124 0.0138838 0)
(1.01632 0.0219655 0)
(1.02836 0.0182403 0)
(1.03283 0.0158591 0)
(1.03447 0.0151403 0)
(1.03619 0.0142339 0)
(1.03791 0.0132005 0)
(1.03927 0.0124037 0)
(1.04032 0.0118065 0)
(1.04122 0.011297 0)
(1.04203 0.0108419 0)
(1.04277 0.0104392 0)
(1.04344 0.0100825 0)
(1.04405 0.00976253 0)
(1.04462 0.00947202 0)
(1.04516 0.0092061 0)
(1.04566 0.00896105 0)
(1.04614 0.00873388 0)
(1.04659 0.00852205 0)
(1.04702 0.00832347 0)
(1.04743 0.0081364 0)
(1.04783 0.00795938 0)
(1.04822 0.00779119 0)
(1.04859 0.00763084 0)
(1.04895 0.00747751 0)
(1.0493 0.00733057 0)
(1.04965 0.00718951 0)
(1.04998 0.00705398 0)
(1.0503 0.00692374 0)
(1.05062 0.00679869 0)
(1.05093 0.00667879 0)
(1.05123 0.00656427 0)
(1.05152 0.00645529 0)
(1.0518 0.00635258 0)
(1.05207 0.00625651 0)
(1.05232 0.00616874 0)
(1.05256 0.00608986 0)
(1.05278 0.0060231 0)
(1.05299 0.00596946 0)
(1.05318 0.00593456 0)
(1.05335 0.00592063 0)
(1.0535 0.00593634 0)
(1.05362 0.00598787 0)
(1.05372 0.0060868 0)
(1.0538 0.00624993 0)
(1.05388 0.00649233 0)
(1.05394 0.00685046 0)
(1.05405 0.00735219 0)
(1.05425 0.00803246 0)
(1.05468 0.00892749 0)
(1.00107 0.0126001 0)
(1.01467 0.0208533 0)
(1.02615 0.0177757 0)
(1.03074 0.0154724 0)
(1.03244 0.0148201 0)
(1.03411 0.0140322 0)
(1.03581 0.0130552 0)
(1.03718 0.0122737 0)
(1.03823 0.0116903 0)
(1.03912 0.0111957 0)
(1.03992 0.0107516 0)
(1.04065 0.0103563 0)
(1.04131 0.0100055 0)
(1.04191 0.00969037 0)
(1.04247 0.00940395 0)
(1.04299 0.00914141 0)
(1.04349 0.00889919 0)
(1.04395 0.00867439 0)
(1.04439 0.00846456 0)
(1.04481 0.00826766 0)
(1.04522 0.00808199 0)
(1.04561 0.00790613 0)
(1.04599 0.00773891 0)
(1.04635 0.00757934 0)
(1.04671 0.00742664 0)
(1.04705 0.00728021 0)
(1.04739 0.00713959 0)
(1.04773 0.00700444 0)
(1.04805 0.00687457 0)
(1.04837 0.00674993 0)
(1.04868 0.0066305 0)
(1.04899 0.00651655 0)
(1.04929 0.00640829 0)
(1.04958 0.00630646 0)
(1.04986 0.00621152 0)
(1.05013 0.00612504 0)
(1.05038 0.00604784 0)
(1.05063 0.00598288 0)
(1.05086 0.00593159 0)
(1.05108 0.00589906 0)
(1.05128 0.00588822 0)
(1.05146 0.00590683 0)
(1.05163 0.00596183 0)
(1.05177 0.00606404 0)
(1.05191 0.00622936 0)
(1.05204 0.00647386 0)
(1.05217 0.0068269 0)
(1.05236 0.00731822 0)
(1.05264 0.00796454 0)
(1.05315 0.00879286 0)
(1.00093 0.011417 0)
(1.01314 0.019753 0)
(1.02405 0.0173073 0)
(1.02874 0.0150937 0)
(1.03049 0.0144938 0)
(1.03213 0.0138199 0)
(1.03381 0.0129053 0)
(1.03517 0.0121415 0)
(1.03623 0.0115716 0)
(1.03711 0.011092 0)
(1.0379 0.0106595 0)
(1.03862 0.0102722 0)
(1.03927 0.00992734 0)
(1.03986 0.0096173 0)
(1.04041 0.00933512 0)
(1.04092 0.00907608 0)
(1.04141 0.00883678 0)
(1.04186 0.00861442 0)
(1.04229 0.00840664 0)
(1.04271 0.00821146 0)
(1.0431 0.00802721 0)
(1.04348 0.00785252 0)
(1.04385 0.00768624 0)
(1.04421 0.00752741 0)
(1.04456 0.00737529 0)
(1.04489 0.0072293 0)
(1.04523 0.007089 0)
(1.04555 0.00695412 0)
(1.04587 0.00682448 0)
(1.04619 0.00670007 0)
(1.0465 0.00658093 0)
(1.0468 0.00646734 0)
(1.0471 0.00635957 0)
(1.04739 0.00625836 0)
(1.04767 0.00616425 0)
(1.04794 0.00607878 0)
(1.0482 0.00600289 0)
(1.04845 0.00593939 0)
(1.04869 0.00589001 0)
(1.04892 0.00585943 0)
(1.04913 0.00585107 0)
(1.04933 0.00587206 0)
(1.04951 0.00592966 0)
(1.04968 0.0060343 0)
(1.04984 0.0062006 0)
(1.05001 0.00644528 0)
(1.05019 0.00679158 0)
(1.05042 0.00726872 0)
(1.05076 0.00788059 0)
(1.05131 0.00864411 0)
(1.0008 0.0103314 0)
(1.01174 0.0186686 0)
(1.02207 0.0168323 0)
(1.02683 0.0147232 0)
(1.02864 0.0141634 0)
(1.03024 0.0135969 0)
(1.03189 0.0127501 0)
(1.03326 0.012007 0)
(1.03431 0.0114502 0)
(1.03519 0.0109858 0)
(1.03597 0.0105655 0)
(1.03668 0.0101866 0)
(1.03732 0.00984803 0)
(1.03791 0.00954322 0)
(1.03845 0.00926543 0)
(1.03895 0.00901003 0)
(1.03942 0.00877375 0)
(1.03987 0.00855391 0)
(1.04029 0.00834825 0)
(1.04069 0.00815483 0)
(1.04108 0.00797204 0)
(1.04145 0.00779854 0)
(1.04181 0.00763321 0)
(1.04216 0.00747512 0)
(1.0425 0.00732357 0)
(1.04283 0.00717799 0)
(1.04316 0.00703798 0)
(1.04348 0.00690332 0)
(1.04379 0.00677386 0)
(1.0441 0.00664962 0)
(1.0444 0.00653068 0)
(1.0447 0.00641737 0)
(1.04499 0.00630998 0)
(1.04528 0.00620928 0)
(1.04555 0.00611587 0)
(1.04582 0.00603124 0)
(1.04609 0.00595649 0)
(1.04634 0.00589425 0)
(1.04658 0.00584651 0)
(1.04681 0.00581761 0)
(1.04702 0.00581131 0)
(1.04723 0.0058343 0)
(1.04742 0.00589386 0)
(1.0476 0.00600017 0)
(1.04778 0.00616647 0)
(1.04796 0.00640964 0)
(1.04817 0.00674781 0)
(1.04844 0.00720796 0)
(1.04881 0.00778529 0)
(1.04938 0.00848713 0)
(1.00069 0.00933932 0)
(1.01046 0.0176043 0)
(1.0202 0.0163485 0)
(1.025 0.0143609 0)
(1.02688 0.0138307 0)
(1.02844 0.0133635 0)
(1.03007 0.0125889 0)
(1.03143 0.01187 0)
(1.03249 0.0113263 0)
(1.03336 0.010877 0)
(1.03413 0.0104696 0)
(1.03483 0.0100995 0)
(1.03546 0.00976746 0)
(1.03604 0.00946805 0)
(1.03657 0.00919481 0)
(1.03707 0.00894318 0)
(1.03753 0.00871003 0)
(1.03797 0.0084928 0)
(1.03838 0.00828931 0)
(1.03878 0.00809771 0)
(1.03916 0.00791643 0)
(1.03952 0.00774415 0)
(1.03987 0.00757978 0)
(1.04021 0.00742245 0)
(1.04055 0.00727146 0)
(1.04087 0.00712629 0)
(1.04119 0.00698657 0)
(1.0415 0.00685211 0)
(1.04181 0.0067228 0)
(1.04211 0.0065987 0)
(1.04241 0.00647993 0)
(1.0427 0.00636685 0)
(1.04299 0.00625979 0)
(1.04327 0.00615954 0)
(1.04354 0.00606675 0)
(1.0438 0.00598288 0)
(1.04406 0.00590914 0)
(1.04431 0.00584803 0)
(1.04455 0.00580174 0)
(1.04478 0.00577433 0)
(1.045 0.00576978 0)
(1.0452 0.00579442 0)
(1.0454 0.0058554 0)
(1.04559 0.0059627 0)
(1.04578 0.00612816 0)
(1.04598 0.00636828 0)
(1.04621 0.00669711 0)
(1.0465 0.00713822 0)
(1.0469 0.00768122 0)
(1.04748 0.00832513 0)
(1.0006 0.00843654 0)
(1.0093 0.0165641 0)
(1.01844 0.015854 0)
(1.02325 0.0140065 0)
(1.02521 0.0134978 0)
(1.02674 0.01312 0)
(1.02833 0.0124214 0)
(1.02969 0.0117304 0)
(1.03075 0.0111998 0)
(1.03162 0.0107655 0)
(1.03238 0.0103714 0)
(1.03307 0.0100107 0)
(1.0337 0.00968554 0)
(1.03427 0.0093917 0)
(1.03479 0.00912317 0)
(1.03528 0.00887545 0)
(1.03573 0.00864553 0)
(1.03616 0.008431 0)
(1.03657 0.00822977 0)
(1.03696 0.00804004 0)
(1.03733 0.0078603 0)
(1.03769 0.00768927 0)
(1.03803 0.0075259 0)
(1.03836 0.00736933 0)
(1.03869 0.00721891 0)
(1.03901 0.00707415 0)
(1.03932 0.00693471 0)
(1.03962 0.00680043 0)
(1.03992 0.00667126 0)
(1.04022 0.00654729 0)
(1.04051 0.00642867 0)
(1.0408 0.00631579 0)
(1.04108 0.00620903 0)
(1.04135 0.00610918 0)
(1.04162 0.00601696 0)
(1.04188 0.00593378 0)
(1.04214 0.00586096 0)
(1.04238 0.00580089 0)
(1.04262 0.00575587 0)
(1.04285 0.00572979 0)
(1.04307 0.00572668 0)
(1.04328 0.00575266 0)
(1.04348 0.00581458 0)
(1.04368 0.00592218 0)
(1.04388 0.00608599 0)
(1.04409 0.00632169 0)
(1.04434 0.00664006 0)
(1.04465 0.00706069 0)
(1.04506 0.00756977 0)
(1.04565 0.00815969 0)
(1.00051 0.00761825 0)
(1.00825 0.0155519 0)
(1.01679 0.0153476 0)
(1.02159 0.0136593 0)
(1.02362 0.0131663 0)
(1.02512 0.0128673 0)
(1.02668 0.0122467 0)
(1.02804 0.0115879 0)
(1.02909 0.011071 0)
(1.02996 0.0106512 0)
(1.03071 0.010271 0)
(1.0314 0.00992021 0)
(1.03202 0.00960215 0)
(1.03258 0.00931407 0)
(1.0331 0.0090504 0)
(1.03358 0.00880675 0)
(1.03403 0.00858018 0)