/*--------------------------------*- C++ -*----------------------------------*\
  =========                 |
  \\      /  F ield         | OpenFOAM: The Open Source CFD Toolbox
   \\    /   O peration     | Website:  https://openfoam.org
    \\  /    A nd           | Version:  7
     \\/     M anipulation  |
\*---------------------------------------------------------------------------*/
FoamFile
{
    version     2.0;
    format      ascii;
    class       volVectorField;
    location    "0.3";
    object      vorticity;
}
// * * * * * * * * * * * * * * * * * * * * * * * * * * * * * * * * * * * * * //

dimensions      [0 0 -1 0 0 0 0];

internalField   nonuniform List<vector> 
70000
(
(0 -0 -45716.1)
(0 -0 -28617.8)
(0 -0 -20914)
(0 -0 -16981.3)
(0 -0 -14960.8)
(0 -0 -13654.8)
(0 -0 -12646.5)
(0 -0 -11835.4)
(0 -0 -11173.2)
(0 -0 -10621.2)
(0 -0 -10151.3)
(0 -0 -9745.01)
(0 -0 -9389.36)
(0 -0 -9074.94)
(0 -0 -8794.62)
(0 -0 -8542.89)
(0 -0 -8315.42)
(0 -0 -8108.73)
(0 -0 -7920.02)
(0 -0 -7746.99)
(0 -0 -7587.73)
(0 -0 -7440.64)
(0 -0 -7304.39)
(0 -0 -7177.81)
(0 -0 -7059.92)
(0 -0 -6949.88)
(0 -0 -6846.94)
(0 -0 -6750.44)
(0 -0 -6659.82)
(0 -0 -6574.54)
(0 -0 -6494.16)
(0 -0 -6418.22)
(0 -0 -6346.35)
(0 -0 -6278.15)
(0 -0 -6213.28)
(0 -0 -6151.33)
(0 -0 -6091.98)
(0 -0 -6034.85)
(0 -0 -5979.34)
(0 -0 -5925.54)
(0 -0 -5871.58)
(0 -0 -5819.67)
(0 -0 -5763.38)
(0 -0 -5712.67)
(0 -0 -5645.78)
(0 -0 -5599.07)
(0 -0 -5500.88)
(0 -0 -5472.66)
(0 -0 -5301.77)
(0 -0 -5089.32)
(0 -0 -13549.7)
(0 -0 -19947.3)
(0 -0 -18536.4)
(0 -0 -16250.3)
(0 -0 -14505.1)
(0 -0 -13281.9)
(0 -0 -12354.9)
(0 -0 -11606.2)
(0 -0 -10985.4)
(0 -0 -10462)
(0 -0 -10013.6)
(0 -0 -9623.96)
(0 -0 -9281.59)
(0 -0 -8977.89)
(0 -0 -8706.34)
(0 -0 -8461.89)
(0 -0 -8240.52)
(0 -0 -8039)
(0 -0 -7854.72)
(0 -0 -7685.5)
(0 -0 -7529.55)
(0 -0 -7385.37)
(0 -0 -7251.68)
(0 -0 -7127.39)
(0 -0 -7011.56)
(0 -0 -6903.4)
(0 -0 -6802.19)
(0 -0 -6707.33)
(0 -0 -6618.28)
(0 -0 -6534.54)
(0 -0 -6455.71)
(0 -0 -6381.38)
(0 -0 -6311.21)
(0 -0 -6244.86)
(0 -0 -6182.03)
(0 -0 -6122.42)
(0 -0 -6065.73)
(0 -0 -6011.71)
(0 -0 -5959.89)
(0 -0 -5910.37)
(0 -0 -5861.79)
(0 -0 -5815.83)
(0 -0 -5767.79)
(0 -0 -5725.11)
(0 -0 -5672.03)
(0 -0 -5634.79)
(0 -0 -5563.67)
(0 -0 -5539.34)
(0 -0 -5433.55)
(0 -0 -5427.98)
(0 -0 -3818.76)
(0 -0 -10828.7)
(0 -0 -13363.2)
(0 -0 -13519.5)
(0 -0 -12866.4)
(0 -0 -12140.8)
(0 -0 -11499.9)
(0 -0 -10940.5)
(0 -0 -10449.9)
(0 -0 -10018.8)
(0 -0 -9638.48)
(0 -0 -9300.83)
(0 -0 -8999.09)
(0 -0 -8727.79)
(0 -0 -8482.5)
(0 -0 -8259.63)
(0 -0 -8056.2)
(0 -0 -7869.76)
(0 -0 -7698.25)
(0 -0 -7539.95)
(0 -0 -7393.4)
(0 -0 -7257.35)
(0 -0 -7130.73)
(0 -0 -7012.62)
(0 -0 -6902.22)
(0 -0 -6798.83)
(0 -0 -6701.85)
(0 -0 -6610.75)
(0 -0 -6525.05)
(0 -0 -6444.32)
(0 -0 -6368.22)
(0 -0 -6296.38)
(0 -0 -6228.52)
(0 -0 -6164.34)
(0 -0 -6103.62)
(0 -0 -6046.08)
(0 -0 -5991.53)
(0 -0 -5939.73)
(0 -0 -5890.4)
(0 -0 -5843.54)
(0 -0 -5798.34)
(0 -0 -5755.73)
(0 -0 -5713.05)
(0 -0 -5674.36)
(0 -0 -5631.18)
(0 -0 -5596.92)
(0 -0 -5547.89)
(0 -0 -5517.28)
(0 -0 -5463.85)
(0 -0 -5458.9)
(0 -0 -533.09)
(0 -0 -4662.58)
(0 -0 -7718.17)
(0 -0 -9328.02)
(0 -0 -9891.72)
(0 -0 -9957.17)
(0 -0 -9825.77)
(0 -0 -9614.31)
(0 -0 -9371.6)
(0 -0 -9122.35)
(0 -0 -8878.97)
(0 -0 -8647.04)
(0 -0 -8428.68)
(0 -0 -8224.32)
(0 -0 -8033.6)
(0 -0 -7855.78)
(0 -0 -7690)
(0 -0 -7535.32)
(0 -0 -7390.86)
(0 -0 -7255.76)
(0 -0 -7129.25)
(0 -0 -7010.61)
(0 -0 -6899.2)
(0 -0 -6794.45)
(0 -0 -6695.82)
(0 -0 -6602.84)
(0 -0 -6515.09)
(0 -0 -6432.2)
(0 -0 -6353.81)
(0 -0 -6279.63)
(0 -0 -6209.37)
(0 -0 -6142.77)
(0 -0 -6079.63)
(0 -0 -6019.7)
(0 -0 -5962.84)
(0 -0 -5908.82)
(0 -0 -5857.53)
(0 -0 -5808.75)
(0 -0 -5762.39)
(0 -0 -5718.27)
(0 -0 -5676.19)
(0 -0 -5636.17)
(0 -0 -5597.65)
(0 -0 -5561.11)
(0 -0 -5525.4)
(0 -0 -5490.89)
(0 -0 -5458.95)
(0 -0 -5418.69)
(0 -0 -5406.44)
(0 -0 -5344.31)
(0 -0 322.41)
(0 -0 -1444.54)
(0 -0 -3532.39)
(0 -0 -5258.61)
(0 -0 -6398.24)
(0 -0 -7072.65)
(0 -0 -7449.86)
(0 -0 -7640.34)
(0 -0 -7712.37)
(0 -0 -7710.2)
(0 -0 -7662.4)
(0 -0 -7587.07)
(0 -0 -7495.65)
(0 -0 -7395.41)
(0 -0 -7291.06)
(0 -0 -7185.62)
(0 -0 -7081.03)
(0 -0 -6978.55)
(0 -0 -6878.93)
(0 -0 -6782.64)
(0 -0 -6689.91)
(0 -0 -6600.86)
(0 -0 -6515.48)
(0 -0 -6433.74)
(0 -0 -6355.53)
(0 -0 -6280.74)
(0 -0 -6209.25)
(0 -0 -6140.92)
(0 -0 -6075.61)
(0 -0 -6013.18)
(0 -0 -5953.52)
(0 -0 -5896.49)
(0 -0 -5841.98)
(0 -0 -5789.87)
(0 -0 -5740.08)
(0 -0 -5692.47)
(0 -0 -5647.01)
(0 -0 -5603.52)
(0 -0 -5562.05)
(0 -0 -5522.31)
(0 -0 -5484.6)
(0 -0 -5448.16)
(0 -0 -5414.18)
(0 -0 -5380.17)
(0 -0 -5350.73)
(0 -0 -5316.44)
(0 -0 -5296.21)
(0 -0 -5250.87)
(0 -0 -5260.53)
(0 -0 -5178.57)
(0 -0 364.686)
(0 -0 -158.586)
(0 -0 -1181.45)
(0 -0 -2361.63)
(0 -0 -3416.62)
(0 -0 -4254.6)
(0 -0 -4889.05)
(0 -0 -5353.92)
(0 -0 -5684.33)
(0 -0 -5912.35)
(0 -0 -6064.29)
(0 -0 -6160.3)
(0 -0 -6215.32)
(0 -0 -6240.34)
(0 -0 -6243.43)
(0 -0 -6230.52)
(0 -0 -6206.02)
(0 -0 -6173.17)
(0 -0 -6134.4)
(0 -0 -6091.53)
(0 -0 -6045.93)
(0 -0 -5998.61)
(0 -0 -5950.36)
(0 -0 -5901.76)
(0 -0 -5853.24)
(0 -0 -5805.14)
(0 -0 -5757.69)
(0 -0 -5711.09)
(0 -0 -5665.45)
(0 -0 -5620.88)
(0 -0 -5577.45)
(0 -0 -5535.19)
(0 -0 -5494.14)
(0 -0 -5454.31)
(0 -0 -5415.72)
(0 -0 -5378.36)
(0 -0 -5342.25)
(0 -0 -5307.32)
(0 -0 -5273.72)
(0 -0 -5241.13)
(0 -0 -5210.14)
(0 -0 -5179.61)
(0 -0 -5151.69)
(0 -0 -5122.39)
(0 -0 -5099.12)
(0 -0 -5068.2)
(0 -0 -5055.18)
(0 -0 -5013.23)
(0 -0 -5026.56)
(0 -0 -4960.65)
(0 -0 254.01)
(0 -0 185.27)
(0 -0 -173.292)
(0 -0 -764.494)
(0 -0 -1447.11)
(0 -0 -2114.27)
(0 -0 -2718.67)
(0 -0 -3240.88)
(0 -0 -3676.82)
(0 -0 -4032.29)
(0 -0 -4317.61)
(0 -0 -4543.94)
(0 -0 -4721.61)
(0 -0 -4859.64)
(0 -0 -4965.56)
(0 -0 -5045.58)
(0 -0 -5104.74)
(0 -0 -5147.09)
(0 -0 -5175.92)
(0 -0 -5193.86)
(0 -0 -5203.04)
(0 -0 -5205.15)
(0 -0 -5201.6)
(0 -0 -5193.49)
(0 -0 -5181.74)
(0 -0 -5167.1)
(0 -0 -5150.16)
(0 -0 -5131.41)
(0 -0 -5111.27)
(0 -0 -5090.07)
(0 -0 -5068.08)
(0 -0 -5045.54)
(0 -0 -5022.62)
(0 -0 -4999.49)
(0 -0 -4976.3)
(0 -0 -4953.13)
(0 -0 -4930.13)
(0 -0 -4907.3)
(0 -0 -4884.88)
(0 -0 -4862.62)
(0 -0 -4841.21)
(0 -0 -4819.55)
(0 -0 -4799.89)
(0 -0 -4778.27)
(0 -0 -4762.16)
(0 -0 -4738.42)
(0 -0 -4730.74)
(0 -0 -4698.69)
(0 -0 -4709.32)
(0 -0 -4666.78)
(0 -0 178.735)
(0 -0 204.482)
(0 -0 130.633)
(0 -0 -85.1688)
(0 -0 -417.625)
(0 -0 -814.219)
(0 -0 -1235.07)
(0 -0 -1651.31)
(0 -0 -2043.07)
(0 -0 -2399.39)
(0 -0 -2716.06)
(0 -0 -2993)
(0 -0 -3232.44)
(0 -0 -3437.72)
(0 -0 -3612.61)
(0 -0 -3760.86)
(0 -0 -3886.01)
(0 -0 -3991.24)
(0 -0 -4079.39)
(0 -0 -4152.9)
(0 -0 -4213.9)
(0 -0 -4264.22)
(0 -0 -4305.41)
(0 -0 -4338.8)
(0 -0 -4365.52)
(0 -0 -4386.53)
(0 -0 -4402.65)
(0 -0 -4414.58)
(0 -0 -4422.9)
(0 -0 -4428.15)
(0 -0 -4430.73)
(0 -0 -4431.04)
(0 -0 -4429.39)
(0 -0 -4426.07)
(0 -0 -4421.33)
(0 -0 -4415.37)
(0 -0 -4408.4)
(0 -0 -4400.55)
(0 -0 -4392.07)
(0 -0 -4382.91)
(0 -0 -4373.62)
(0 -0 -4363.48)
(0 -0 -4354.3)
(0 -0 -4343.08)
(0 -0 -4335.76)
(0 -0 -4322.19)
(0 -0 -4320.65)
(0 -0 -4301.28)
(0 -0 -4311.47)
(0 -0 -4288.73)
(0 -0 148.006)
(0 -0 164.592)
(0 -0 169.96)
(0 -0 120.958)
(0 -0 1.10483)
(0 -0 -180.448)
(0 -0 -408.28)
(0 -0 -666.014)
(0 -0 -937.802)
(0 -0 -1210.72)
(0 -0 -1475.54)
(0 -0 -1726.27)
(0 -0 -1959.43)
(0 -0 -2173.34)
(0 -0 -2367.66)
(0 -0 -2542.85)
(0 -0 -2699.91)
(0 -0 -2840.11)
(0 -0 -2964.86)
(0 -0 -3075.57)
(0 -0 -3173.62)
(0 -0 -3260.32)
(0 -0 -3336.86)
(0 -0 -3404.36)
(0 -0 -3463.8)
(0 -0 -3516.06)
(0 -0 -3561.94)
(0 -0 -3602.15)
(0 -0 -3637.29)
(0 -0 -3667.94)
(0 -0 -3694.57)
(0 -0 -3717.62)
(0 -0 -3737.46)
(0 -0 -3754.45)
(0 -0 -3768.87)
(0 -0 -3781.03)
(0 -0 -3791.16)
(0 -0 -3799.48)
(0 -0 -3806.23)
(0 -0 -3811.52)
(0 -0 -3815.76)
(0 -0 -3818.64)
(0 -0 -3821.39)
(0 -0 -3822.13)
(0 -0 -3825.05)
(0 -0 -3823.14)
(0 -0 -3829.43)
(0 -0 -3823.31)
(0 -0 -3836.83)
(0 -0 -3830.9)
(0 -0 136.812)
(0 -0 137.057)
(0 -0 148.715)
(0 -0 149.65)
(0 -0 122.179)
(0 -0 60.1809)
(0 -0 -36.1239)
(0 -0 -163.043)
(0 -0 -314.192)
(0 -0 -482.238)
(0 -0 -660.248)
(0 -0 -842.305)
(0 -0 -1023.67)
(0 -0 -1200.77)
(0 -0 -1371.05)
(0 -0 -1532.85)
(0 -0 -1685.16)
(0 -0 -1827.5)
(0 -0 -1959.76)
(0 -0 -2082.12)
(0 -0 -2194.91)
(0 -0 -2298.6)
(0 -0 -2393.72)
(0 -0 -2480.83)
(0 -0 -2560.5)
(0 -0 -2633.28)
(0 -0 -2699.73)
(0 -0 -2760.33)
(0 -0 -2815.58)
(0 -0 -2865.91)
(0 -0 -2911.73)
(0 -0 -2953.42)
(0 -0 -2991.31)
(0 -0 -3025.74)
(0 -0 -3056.97)
(0 -0 -3085.31)
(0 -0 -3110.96)
(0 -0 -3134.22)
(0 -0 -3155.25)
(0 -0 -3174.3)
(0 -0 -3191.6)
(0 -0 -3207.17)
(0 -0 -3221.78)
(0 -0 -3234.38)
(0 -0 -3247.82)
(0 -0 -3257.49)
(0 -0 -3272.41)
(0 -0 -3278.89)
(0 -0 -3297.93)
(0 -0 -3306.56)
(0 -0 129.932)
(0 -0 123.984)
(0 -0 129.164)
(0 -0 136.357)
(0 -0 136.442)
(0 -0 123.192)
(0 -0 92.9813)
(0 -0 43.9873)
(0 -0 -23.5977)
(0 -0 -107.915)
(0 -0 -206.167)
(0 -0 -315.198)
(0 -0 -431.851)
(0 -0 -553.215)
(0 -0 -676.754)
(0 -0 -800.358)
(0 -0 -922.342)
(0 -0 -1041.41)
(0 -0 -1156.59)
(0 -0 -1267.22)
(0 -0 -1372.85)
(0 -0 -1473.23)
(0 -0 -1568.25)
(0 -0 -1657.9)
(0 -0 -1742.28)
(0 -0 -1821.52)
(0 -0 -1895.81)
(0 -0 -1965.37)
(0 -0 -2030.4)
(0 -0 -2091.16)
(0 -0 -2147.86)
(0 -0 -2200.74)
(0 -0 -2250.02)
(0 -0 -2295.93)
(0 -0 -2338.66)
(0 -0 -2378.44)
(0 -0 -2415.41)
(0 -0 -2449.85)
(0 -0 -2481.84)
(0 -0 -2511.68)
(0 -0 -2539.46)
(0 -0 -2565.37)
(0 -0 -2589.87)
(0 -0 -2612.42)
(0 -0 -2634.96)
(0 -0 -2654.52)
(0 -0 -2677.22)
(0 -0 -2694.39)
(0 -0 -2719.17)
(0 -0 -2739.41)
(0 -0 122.942)
(0 -0 116.631)
(0 -0 117.997)
(0 -0 122.468)
(0 -0 126.404)
(0 -0 126.869)
(0 -0 121.402)
(0 -0 107.713)
(0 -0 84.1788)
(0 -0 50.1122)
(0 -0 5.62793)
(0 -0 -48.5426)
(0 -0 -111.255)
(0 -0 -181.126)
(0 -0 -256.694)
(0 -0 -336.518)
(0 -0 -419.253)
(0 -0 -503.697)
(0 -0 -588.803)
(0 -0 -673.686)
(0 -0 -757.618)
(0 -0 -840.012)
(0 -0 -920.409)
(0 -0 -998.463)
(0 -0 -1073.92)
(0 -0 -1146.61)
(0 -0 -1216.41)
(0 -0 -1283.28)
(0 -0 -1347.19)
(0 -0 -1408.17)
(0 -0 -1466.25)
(0 -0 -1521.49)
(0 -0 -1573.95)
(0 -0 -1623.75)
(0 -0 -1670.94)
(0 -0 -1715.68)
(0 -0 -1757.99)
(0 -0 -1798.08)
(0 -0 -1835.97)
(0 -0 -1871.89)
(0 -0 -1905.88)
(0 -0 -1938.12)
(0 -0 -1968.9)
(0 -0 -1997.95)
(0 -0 -2026.57)
(0 -0 -2052.92)
(0 -0 -2080.98)
(0 -0 -2105.66)
(0 -0 -2134.7)
(0 -0 -2162.63)
(0 -0 115.621)
(0 -0 110.398)
(0 -0 110.714)
(0 -0 113.149)
(0 -0 115.956)
(0 -0 118.209)
(0 -0 119.08)
(0 -0 117.372)
(0 -0 111.811)
(0 -0 101.355)
(0 -0 85.2942)
(0 -0 63.2717)
(0 -0 35.2481)
(0 -0 1.45779)
(0 -0 -37.6586)
(0 -0 -81.5208)
(0 -0 -129.469)
(0 -0 -180.809)
(0 -0 -234.855)
(0 -0 -290.949)
(0 -0 -348.482)
(0 -0 -406.905)
(0 -0 -465.729)
(0 -0 -524.533)
(0 -0 -582.955)
(0 -0 -640.692)
(0 -0 -697.495)
(0 -0 -753.159)
(0 -0 -807.521)
(0 -0 -860.457)
(0 -0 -911.866)
(0 -0 -961.684)
(0 -0 -1009.85)
(0 -0 -1056.36)
(0 -0 -1101.16)
(0 -0 -1144.31)
(0 -0 -1185.76)
(0 -0 -1225.62)
(0 -0 -1263.83)
(0 -0 -1300.56)
(0 -0 -1335.78)
(0 -0 -1369.62)
(0 -0 -1402.28)
(0 -0 -1433.56)
(0 -0 -1464.36)
(0 -0 -1493.57)
(0 -0 -1523.65)
(0 -0 -1551.87)
(0 -0 -1582.49)
(0 -0 -1613.75)
(0 -0 108.377)
(0 -0 104.181)
(0 -0 104.388)
(0 -0 106.093)
(0 -0 107.956)
(0 -0 109.661)
(0 -0 111.19)
(0 -0 112.2)
(0 -0 112.11)
(0 -0 110.296)
(0 -0 106.175)
(0 -0 99.2542)
(0 -0 89.1687)
(0 -0 75.6902)
(0 -0 58.7344)
(0 -0 38.3377)
(0 -0 14.6407)
(0 -0 -12.1353)
(0 -0 -41.7132)
(0 -0 -73.7778)
(0 -0 -107.998)
(0 -0 -144.033)
(0 -0 -181.557)
(0 -0 -220.252)
(0 -0 -259.823)
(0 -0 -300)
(0 -0 -340.537)
(0 -0 -381.216)
(0 -0 -421.839)
(0 -0 -462.24)
(0 -0 -502.267)
(0 -0 -541.796)
(0 -0 -580.713)
(0 -0 -618.937)
(0 -0 -656.377)
(0 -0 -692.997)
(0 -0 -728.72)
(0 -0 -763.556)
(0 -0 -797.44)
(0 -0 -830.421)
(0 -0 -862.473)
(0 -0 -893.637)
(0 -0 -924.03)
(0 -0 -953.531)
(0 -0 -982.686)
(0 -0 -1010.88)
(0 -0 -1039.54)
(0 -0 -1067.39)
(0 -0 -1096.55)
(0 -0 -1127.05)
(0 -0 101.398)
(0 -0 97.9892)
(0 -0 98.2107)
(0 -0 99.6809)
(0 -0 101.189)
(0 -0 102.456)
(0 -0 103.673)
(0 -0 104.852)
(0 -0 105.82)
(0 -0 106.331)
(0 -0 106.106)
(0 -0 104.852)
(0 -0 102.282)
(0 -0 98.1463)
(0 -0 92.2406)
(0 -0 84.4214)
(0 -0 74.6037)
(0 -0 62.7592)
(0 -0 48.9117)
(0 -0 33.128)
(0 -0 15.5096)
(0 -0 -3.81406)
(0 -0 -24.6958)
(0 -0 -46.976)
(0 -0 -70.4894)
(0 -0 -95.0702)
(0 -0 -120.555)
(0 -0 -146.786)
(0 -0 -173.615)
(0 -0 -200.902)
(0 -0 -228.513)
(0 -0 -256.332)
(0 -0 -284.244)
(0 -0 -312.157)
(0 -0 -339.97)
(0 -0 -367.619)
(0 -0 -395.017)
(0 -0 -422.131)
(0 -0 -448.888)
(0 -0 -475.281)
(0 -0 -501.271)
(0 -0 -526.853)
(0 -0 -552.084)
(0 -0 -576.879)
(0 -0 -601.545)
(0 -0 -625.78)
(0 -0 -650.322)
(0 -0 -674.711)
(0 -0 -699.895)
(0 -0 -726.496)
(0 -0 94.722)
(0 -0 91.9393)
(0 -0 92.1487)
(0 -0 93.4698)
(0 -0 94.846)
(0 -0 95.9393)
(0 -0 96.9326)
(0 -0 97.9238)
(0 -0 98.8846)
(0 -0 99.748)
(0 -0 100.425)
(0 -0 100.8)
(0 -0 100.736)
(0 -0 100.088)
(0 -0 98.7134)
(0 -0 96.4804)
(0 -0 93.2764)
(0 -0 89.0107)
(0 -0 83.6189)
(0 -0 77.0603)
(0 -0 69.3221)
(0 -0 60.4074)
(0 -0 50.3482)
(0 -0 39.186)
(0 -0 26.9778)
(0 -0 13.7904)
(0 -0 -0.30164)
(0 -0 -15.2195)
(0 -0 -30.8808)
(0 -0 -47.2037)
(0 -0 -64.1044)
(0 -0 -81.5043)
(0 -0 -99.3219)
(0 -0 -117.487)
(0 -0 -135.922)
(0 -0 -154.569)
(0 -0 -173.356)
(0 -0 -192.242)
(0 -0 -211.163)
(0 -0 -230.094)
(0 -0 -248.994)
(0 -0 -267.84)
(0 -0 -286.651)
(0 -0 -305.374)
(0 -0 -324.156)
(0 -0 -342.875)
(0 -0 -361.866)
(0 -0 -381.055)
(0 -0 -400.798)
(0 -0 -421.76)
(0 -0 88.346)
(0 -0 86.0831)
(0 -0 86.2737)
(0 -0 87.4449)
(0 -0 88.7226)
(0 -0 89.7367)
(0 -0 90.6237)
(0 -0 91.4869)
(0 -0 92.3299)
(0 -0 93.1379)
(0 -0 93.895)
(0 -0 94.5726)
(0 -0 95.1259)
(0 -0 95.4973)
(0 -0 95.6206)
(0 -0 95.4246)
(0 -0 94.8379)
(0 -0 93.792)
(0 -0 92.2248)
(0 -0 90.0824)
(0 -0 87.3212)
(0 -0 83.9095)
(0 -0 79.8243)
(0 -0 75.0556)
(0 -0 69.6029)
(0 -0 63.4749)
(0 -0 56.6876)
(0 -0 49.2643)
(0 -0 41.2338)
(0 -0 32.6287)
(0 -0 23.486)
(0 -0 13.8437)
(0 -0 3.74403)
(0 -0 -6.77359)
(0 -0 -17.6644)
(0 -0 -28.8909)
(0 -0 -40.4084)
(0 -0 -52.184)
(0 -0 -64.1769)
(0 -0 -76.3606)
(0 -0 -88.7058)
(0 -0 -101.189)
(0 -0 -113.812)
(0 -0 -126.544)
(0 -0 -139.444)
(0 -0 -152.481)
(0 -0 -165.779)
(0 -0 -179.403)
(0 -0 -193.455)
(0 -0 -208.429)
(0 -0 82.269)
(0 -0 80.4387)
(0 -0 80.6191)
(0 -0 81.6453)
(0 -0 82.8193)
(0 -0 83.7678)
(0 -0 84.5868)
(0 -0 85.3727)
(0 -0 86.133)
(0 -0 86.8609)
(0 -0 87.5575)
(0 -0 88.2225)
(0 -0 88.8476)
(0 -0 89.4173)
(0 -0 89.9099)
(0 -0 90.2981)
(0 -0 90.5506)
(0 -0 90.6331)
(0 -0 90.5104)
(0 -0 90.1478)
(0 -0 89.5117)
(0 -0 88.5725)
(0 -0 87.3033)
(0 -0 85.6822)
(0 -0 83.6918)
(0 -0 81.3197)
(0 -0 78.5583)
(0 -0 75.4039)
(0 -0 71.8578)
(0 -0 67.9243)
(0 -0 63.612)
(0 -0 58.9312)
(0 -0 53.8964)
(0 -0 48.5222)
(0 -0 42.8275)
(0 -0 36.8295)
(0 -0 30.5493)
(0 -0 24.0047)
(0 -0 17.217)
(0 -0 10.2026)
(0 -0 2.97888)
(0 -0 -4.44018)
(0 -0 -12.0484)
(0 -0 -19.8361)
(0 -0 -27.8164)
(0 -0 -35.9983)
(0 -0 -44.4105)
(0 -0 -53.1415)
(0 -0 -62.1913)
(0 -0 -71.8869)
(0 -0 76.4914)
(0 -0 75.0176)
(0 -0 75.1968)
(0 -0 76.0908)
(0 -0 77.1588)
(0 -0 78.0405)
(0 -0 78.7979)
(0 -0 79.5212)
(0 -0 80.2199)
(0 -0 80.8861)
(0 -0 81.522)
(0 -0 82.1323)
(0 -0 82.719)
(0 -0 83.2804)
(0 -0 83.8123)
(0 -0 84.3074)
(0 -0 84.756)
(0 -0 85.1456)
(0 -0 85.4619)
(0 -0 85.6888)
(0 -0 85.8096)
(0 -0 85.8071)
(0 -0 85.6646)
(0 -0 85.3661)
(0 -0 84.8969)
(0 -0 84.2439)
(0 -0 83.3958)
(0 -0 82.3432)
(0 -0 81.0787)
(0 -0 79.5969)
(0 -0 77.8944)
(0 -0 75.9695)
(0 -0 73.8227)
(0 -0 71.4557)
(0 -0 68.8722)
(0 -0 66.0766)
(0 -0 63.0754)
(0 -0 59.8749)
(0 -0 56.4829)
(0 -0 52.9064)
(0 -0 49.1529)
(0 -0 45.2281)
(0 -0 41.1373)
(0 -0 36.8803)
(0 -0 32.4592)
(0 -0 27.8563)
(0 -0 23.0735)
(0 -0 18.0438)
(0 -0 12.7832)
(0 -0 7.12193)
(0 -0 71.013)
(0 -0 69.8301)
(0 -0 70.014)
(0 -0 70.79)
(0 -0 71.7538)
(0 -0 72.5686)
(0 -0 73.266)
(0 -0 73.9301)
(0 -0 74.573)
(0 -0 75.1863)
(0 -0 75.7705)
(0 -0 76.3303)
(0 -0 76.869)
(0 -0 77.3881)
(0 -0 77.888)
(0 -0 78.3683)
(0 -0 78.827)
(0 -0 79.2614)
(0 -0 79.667)
(0 -0 80.0387)
(0 -0 80.37)
(0 -0 80.654)
(0 -0 80.883)
(0 -0 81.0492)
(0 -0 81.1446)
(0 -0 81.1615)
(0 -0 81.0924)
(0 -0 80.9303)
(0 -0 80.6686)
(0 -0 80.3015)
(0 -0 79.8238)
(0 -0 79.2312)
(0 -0 78.52)
(0 -0 77.6877)
(0 -0 76.7324)
(0 -0 75.653)
(0 -0 74.4493)
(0 -0 73.1217)
(0 -0 71.6715)
(0 -0 70.0998)
(0 -0 68.4088)
(0 -0 66.599)
(0 -0 64.6732)
(0 -0 62.6283)
(0 -0 60.4677)
(0 -0 58.1788)
(0 -0 55.7657)
(0 -0 53.1938)
(0 -0 50.4647)
(0 -0 47.5166)
(0 -0 65.8324)
(0 -0 64.8847)
(0 -0 65.0761)
(0 -0 65.748)
(0 -0 66.6114)
(0 -0 67.3606)
(0 -0 68.0003)
(0 -0 68.6071)
(0 -0 69.1962)
(0 -0 69.7596)
(0 -0 70.2963)
(0 -0 70.8102)
(0 -0 71.3044)
(0 -0 71.7806)
(0 -0 72.2402)
(0 -0 72.684)
(0 -0 73.1124)
(0 -0 73.5253)
(0 -0 73.9222)
(0 -0 74.3021)
(0 -0 74.6632)
(0 -0 75.0036)
(0 -0 75.3207)
(0 -0 75.6118)
(0 -0 75.8738)
(0 -0 76.1035)
(0 -0 76.2975)
(0 -0 76.4523)
(0 -0 76.5645)
(0 -0 76.6305)
(0 -0 76.647)
(0 -0 76.6106)
(0 -0 76.5182)
(0 -0 76.3672)
(0 -0 76.1548)
(0 -0 75.879)
(0 -0 75.5379)
(0 -0 75.1304)
(0 -0 74.6551)
(0 -0 74.1113)
(0 -0 73.4989)
(0 -0 72.8166)
(0 -0 72.0657)
(0 -0 71.2427)
(0 -0 70.3504)
(0 -0 69.3814)
(0 -0 68.3381)
(0 -0 67.2078)
(0 -0 65.9908)
(0 -0 64.6599)
(0 -0 60.9468)
(0 -0 60.1878)
(0 -0 60.3875)
(0 -0 60.9677)
(0 -0 61.7356)
(0 -0 62.421)
(0 -0 63.0059)
(0 -0 63.558)
(0 -0 64.0955)
(0 -0 64.6109)
(0 -0 65.1023)
(0 -0 65.5727)
(0 -0 66.0251)
(0 -0 66.4611)
(0 -0 66.8818)
(0 -0 67.2882)
(0 -0 67.6811)
(0 -0 68.061)
(0 -0 68.4283)
(0 -0 68.7832)
(0 -0 69.1257)
(0 -0 69.4554)
(0 -0 69.772)
(0 -0 70.0751)
(0 -0 70.3638)
(0 -0 70.6374)
(0 -0 70.895)
(0 -0 71.1354)
(0 -0 71.3575)
(0 -0 71.5597)
(0 -0 71.7404)
(0 -0 71.8982)
(0 -0 72.0312)
(0 -0 72.1378)
(0 -0 72.2161)
(0 -0 72.2649)
(0 -0 72.2825)
(0 -0 72.2677)
(0 -0 72.2193)
(0 -0 72.1363)
(0 -0 72.0182)
(0 -0 71.8638)
(0 -0 71.6734)
(0 -0 71.4453)
(0 -0 71.1802)
(0 -0 70.8762)
(0 -0 70.5323)
(0 -0 70.1484)
(0 -0 69.7178)
(0 -0 69.2459)
(0 -0 56.3523)
(0 -0 55.7435)
(0 -0 55.9505)
(0 -0 56.4507)
(0 -0 57.1286)
(0 -0 57.7523)
(0 -0 58.2854)
(0 -0 58.7859)
(0 -0 59.274)
(0 -0 59.7435)
(0 -0 60.1916)
(0 -0 60.6206)
(0 -0 61.0332)
(0 -0 61.431)
(0 -0 61.8148)
(0 -0 62.1856)
(0 -0 62.5441)
(0 -0 62.8908)
(0 -0 63.2263)
(0 -0 63.551)
(0 -0 63.8651)
(0 -0 64.169)
(0 -0 64.4629)
(0 -0 64.7471)
(0 -0 65.0217)
(0 -0 65.287)
(0 -0 65.543)
(0 -0 65.7898)
(0 -0 66.0271)
(0 -0 66.2547)
(0 -0 66.4722)
(0 -0 66.6789)
(0 -0 66.8741)
(0 -0 67.0572)
(0 -0 67.2271)
(0 -0 67.3833)
(0 -0 67.5247)
(0 -0 67.6509)
(0 -0 67.7609)
(0 -0 67.8544)
(0 -0 67.9308)
(0 -0 67.9899)
(0 -0 68.0313)
(0 -0 68.0551)
(0 -0 68.0606)
(0 -0 68.0497)
(0 -0 68.0187)
(0 -0 67.9751)
(0 -0 67.9077)
(0 -0 67.8348)
(0 -0 52.0437)
(0 -0 51.5537)
(0 -0 51.766)
(0 -0 52.1964)
(0 -0 52.7908)
(0 -0 53.3549)
(0 -0 53.8393)
(0 -0 54.2913)
(0 -0 54.7326)
(0 -0 55.1586)
(0 -0 55.5655)
(0 -0 55.9552)
(0 -0 56.33)
(0 -0 56.6914)
(0 -0 57.0402)
(0 -0 57.3772)
(0 -0 57.703)
(0 -0 58.0181)
(0 -0 58.3229)
(0 -0 58.6178)
(0 -0 58.9033)
(0 -0 59.1796)
(0 -0 59.4471)
(0 -0 59.7063)
(0 -0 59.9576)
(0 -0 60.2016)
(0 -0 60.4387)
(0 -0 60.6692)
(0 -0 60.8935)
(0 -0 61.1117)
(0 -0 61.3238)
(0 -0 61.5297)
(0 -0 61.7291)
(0 -0 61.922)
(0 -0 62.1078)
(0 -0 62.2863)
(0 -0 62.457)
(0 -0 62.6198)
(0 -0 62.7742)
(0 -0 62.9203)
(0 -0 63.0577)
(0 -0 63.1867)
(0 -0 63.3068)
(0 -0 63.4193)
(0 -0 63.5226)
(0 -0 63.6208)
(0 -0 63.7088)
(0 -0 63.7973)
(0 -0 63.8731)
(0 -0 63.9598)
(0 -0 48.0147)
(0 -0 47.6183)
(0 -0 47.8327)
(0 -0 48.2026)
(0 -0 48.7202)
(0 -0 49.2274)
(0 -0 49.666)
(0 -0 50.0728)
(0 -0 50.4701)
(0 -0 50.855)
(0 -0 51.2231)
(0 -0 51.5756)
(0 -0 51.9147)
(0 -0 52.2417)
(0 -0 52.5574)
(0 -0 52.8624)
(0 -0 53.1572)
(0 -0 53.4423)
(0 -0 53.718)
(0 -0 53.9847)
(0 -0 54.2427)
(0 -0 54.4924)
(0 -0 54.7341)
(0 -0 54.9684)
(0 -0 55.1956)
(0 -0 55.4165)
(0 -0 55.6315)
(0 -0 55.8411)
(0 -0 56.0458)
(0 -0 56.2458)
(0 -0 56.4413)
(0 -0 56.6323)
(0 -0 56.8188)
(0 -0 57.0007)
(0 -0 57.1779)
(0 -0 57.3502)
(0 -0 57.5175)
(0 -0 57.6797)
(0 -0 57.8366)
(0 -0 57.9885)
(0 -0 58.1351)
(0 -0 58.2771)
(0 -0 58.4139)
(0 -0 58.5473)
(0 -0 58.6755)
(0 -0 58.8031)
(0 -0 58.9249)
(0 -0 59.0523)
(0 -0 59.1717)
(0 -0 59.3077)
(0 -0 44.2576)
(0 -0 43.9348)
(0 -0 44.1479)
(0 -0 44.4655)
(0 -0 44.9132)
(0 -0 45.3664)
(0 -0 45.762)
(0 -0 46.1269)
(0 -0 46.4832)
(0 -0 46.8294)
(0 -0 47.1611)
(0 -0 47.4788)
(0 -0 47.7843)
(0 -0 48.079)
(0 -0 48.3635)
(0 -0 48.6384)
(0 -0 48.9041)
(0 -0 49.1609)
(0 -0 49.4092)
(0 -0 49.6492)
(0 -0 49.8814)
(0 -0 50.1059)
(0 -0 50.3231)
(0 -0 50.5336)
(0 -0 50.7378)
(0 -0 50.9364)
(0 -0 51.1298)
(0 -0 51.3186)
(0 -0 51.5033)
(0 -0 51.684)
(0 -0 51.861)
(0 -0 52.0345)
(0 -0 52.2042)
(0 -0 52.3703)
(0 -0 52.5326)
(0 -0 52.691)
(0 -0 52.8455)
(0 -0 52.996)
(0 -0 53.1425)
(0 -0 53.2852)
(0 -0 53.424)
(0 -0 53.5596)
(0 -0 53.6914)
(0 -0 53.8213)
(0 -0 53.9475)
(0 -0 54.0748)
(0 -0 54.1978)
(0 -0 54.3278)
(0 -0 54.4513)
(0 -0 54.5922)
(0 -0 40.7637)
(0 -0 40.4989)
(0 -0 40.707)
(0 -0 40.9794)
(0 -0 41.3644)
(0 -0 41.7666)
(0 -0 42.1221)
(0 -0 42.4484)
(0 -0 42.7666)
(0 -0 43.0768)
(0 -0 43.3746)
(0 -0 43.6597)
(0 -0 43.9339)
(0 -0 44.1984)
(0 -0 44.4537)
(0 -0 44.7004)
(0 -0 44.9388)
(0 -0 45.1691)
(0 -0 45.3917)
(0 -0 45.6068)
(0 -0 45.8146)
(0 -0 46.0155)
(0 -0 46.2098)
(0 -0 46.398)
(0 -0 46.5806)
(0 -0 46.7581)
(0 -0 46.9312)
(0 -0 47.1003)
(0 -0 47.2659)
(0 -0 47.4282)
(0 -0 47.5874)
(0 -0 47.7436)
(0 -0 47.8966)
(0 -0 48.0466)
(0 -0 48.1933)
(0 -0 48.3367)
(0 -0 48.4766)
(0 -0 48.6132)
(0 -0 48.7463)
(0 -0 48.8762)
(0 -0 49.0026)
(0 -0 49.1265)
(0 -0 49.2471)
(0 -0 49.3665)
(0 -0 49.4825)
(0 -0 49.6)
(0 -0 49.7136)
(0 -0 49.8341)
(0 -0 49.9484)
(0 -0 50.0792)
(0 -0 37.5235)
(0 -0 37.3046)
(0 -0 37.5038)
(0 -0 37.7373)
(0 -0 38.0664)
(0 -0 38.4211)
(0 -0 38.7392)
(0 -0 39.0302)
(0 -0 39.3133)
(0 -0 39.5901)
(0 -0 39.8563)
(0 -0 40.1113)
(0 -0 40.3564)
(0 -0 40.5929)
(0 -0 40.8211)
(0 -0 41.0416)
(0 -0 41.2545)
(0 -0 41.4602)
(0 -0 41.6589)
(0 -0 41.8507)
(0 -0 42.0359)
(0 -0 42.2148)
(0 -0 42.3876)
(0 -0 42.555)
(0 -0 42.7174)
(0 -0 42.8753)
(0 -0 43.0295)
(0 -0 43.1802)
(0 -0 43.328)
(0 -0 43.4732)
(0 -0 43.6157)
(0 -0 43.7557)
(0 -0 43.8931)
(0 -0 44.0278)
(0 -0 44.1596)
(0 -0 44.2886)
(0 -0 44.4145)
(0 -0 44.5374)
(0 -0 44.6571)
(0 -0 44.7739)
(0 -0 44.8877)
(0 -0 44.9991)
(0 -0 45.1075)
(0 -0 45.2148)
(0 -0 45.319)
(0 -0 45.4245)
(0 -0 45.5263)
(0 -0 45.6342)
(0 -0 45.7361)
(0 -0 45.8527)
(0 -0 34.5261)
(0 -0 34.3441)
(0 -0 34.5308)
(0 -0 34.7307)
(0 -0 35.0105)
(0 -0 35.3211)
(0 -0 35.6048)
(0 -0 35.8636)
(0 -0 36.1146)
(0 -0 36.3606)
(0 -0 36.5979)
(0 -0 36.8251)
(0 -0 37.0434)
(0 -0 37.2539)
(0 -0 37.4572)
(0 -0 37.6534)
(0 -0 37.8428)
(0 -0 38.0257)
(0 -0 38.2021)
(0 -0 38.3724)
(0 -0 38.5366)
(0 -0 38.6951)
(0 -0 38.8481)
(0 -0 38.9962)
(0 -0 39.1398)
(0 -0 39.2796)
(0 -0 39.4162)
(0 -0 39.55)
(0 -0 39.6814)
(0 -0 39.8106)
(0 -0 39.9377)
(0 -0 40.0628)
(0 -0 40.1857)
(0 -0 40.3063)
(0 -0 40.4244)
(0 -0 40.5399)
(0 -0 40.6527)
(0 -0 40.7628)
(0 -0 40.87)
(0 -0 40.9746)
(0 -0 41.0762)
(0 -0 41.1758)
(0 -0 41.2725)
(0 -0 41.368)
(0 -0 41.4607)
(0 -0 41.5543)
(0 -0 41.6444)
(0 -0 41.7396)
(0 -0 41.829)
(0 -0 41.9311)
(0 -0 31.7603)
(0 -0 31.6082)
(0 -0 31.7792)
(0 -0 31.9505)
(0 -0 32.1872)
(0 -0 32.4575)
(0 -0 32.7092)
(0 -0 32.9389)
(0 -0 33.1608)
(0 -0 33.3786)
(0 -0 33.5892)
(0 -0 33.791)
(0 -0 33.9847)
(0 -0 34.1714)
(0 -0 34.3517)
(0 -0 34.5256)
(0 -0 34.6935)
(0 -0 34.8553)
(0 -0 35.0114)
(0 -0 35.1618)
(0 -0 35.3066)
(0 -0 35.4463)
(0 -0 35.581)
(0 -0 35.7113)
(0 -0 35.8377)
(0 -0 35.9608)
(0 -0 36.0812)
(0 -0 36.1994)
(0 -0 36.3157)
(0 -0 36.4303)
(0 -0 36.5433)
(0 -0 36.6547)
(0 -0 36.7643)
(0 -0 36.872)
(0 -0 36.9775)
(0 -0 37.0807)
(0 -0 37.1815)
(0 -0 37.2798)
(0 -0 37.3755)
(0 -0 37.4687)
(0 -0 37.5593)
(0 -0 37.6478)
(0 -0 37.7336)
(0 -0 37.8183)
(0 -0 37.9002)
(0 -0 37.9826)
(0 -0 38.0618)
(0 -0 38.145)
(0 -0 38.2227)
(0 -0 38.3112)
(0 -0 29.2139)
(0 -0 29.0861)
(0 -0 29.2395)
(0 -0 29.3866)
(0 -0 29.5861)
(0 -0 29.8196)
(0 -0 30.042)
(0 -0 30.2452)
(0 -0 30.4408)
(0 -0 30.633)
(0 -0 30.8193)
(0 -0 30.9979)
(0 -0 31.1692)
(0 -0 31.3342)
(0 -0 31.4935)
(0 -0 31.647)
(0 -0 31.7951)
(0 -0 31.9377)
(0 -0 32.0751)
(0 -0 32.2073)
(0 -0 32.3344)
(0 -0 32.4568)
(0 -0 32.5747)
(0 -0 32.6887)
(0 -0 32.7993)
(0 -0 32.9072)
(0 -0 33.0128)
(0 -0 33.1167)
(0 -0 33.2192)
(0 -0 33.3206)
(0 -0 33.4207)
(0 -0 33.5196)
(0 -0 33.6171)
(0 -0 33.713)
(0 -0 33.8071)
(0 -0 33.8992)
(0 -0 33.989)
(0 -0 34.0766)
(0 -0 34.1617)
(0 -0 34.2446)
(0 -0 34.325)
(0 -0 34.4034)
(0 -0 34.4793)
(0 -0 34.554)
(0 -0 34.626)
(0 -0 34.6982)
(0 -0 34.7673)
(0 -0 34.8396)
(0 -0 34.9066)
(0 -0 34.9827)
(0 -0 26.8745)
(0 -0 26.7664)
(0 -0 26.9013)
(0 -0 27.0279)
(0 -0 27.1953)
(0 -0 27.3958)
(0 -0 27.5914)
(0 -0 27.7708)
(0 -0 27.9428)
(0 -0 28.1118)
(0 -0 28.2761)
(0 -0 28.4336)
(0 -0 28.5846)
(0 -0 28.73)
(0 -0 28.8701)
(0 -0 29.0051)
(0 -0 29.1352)
(0 -0 29.2604)
(0 -0 29.3807)
(0 -0 29.4963)
(0 -0 29.6073)
(0 -0 29.7139)
(0 -0 29.8165)
(0 -0 29.9156)
(0 -0 30.0118)
(0 -0 30.1058)
(0 -0 30.198)
(0 -0 30.2889)
(0 -0 30.379)
(0 -0 30.4683)
(0 -0 30.5568)
(0 -0 30.6444)
(0 -0 30.731)
(0 -0 30.8163)
(0 -0 30.8999)
(0 -0 30.9819)
(0 -0 31.0618)
(0 -0 31.1397)
(0 -0 31.2153)
(0 -0 31.2889)
(0 -0 31.36)
(0 -0 31.4293)
(0 -0 31.4962)
(0 -0 31.5618)
(0 -0 31.6248)
(0 -0 31.6877)
(0 -0 31.7476)
(0 -0 31.81)
(0 -0 31.8674)
(0 -0 31.9323)
(0 -0 24.7292)
(0 -0 24.6369)
(0 -0 24.7534)
(0 -0 24.8623)
(0 -0 25.0024)
(0 -0 25.1735)
(0 -0 25.3447)
(0 -0 25.5028)
(0 -0 25.6537)
(0 -0 25.802)
(0 -0 25.9464)
(0 -0 26.085)
(0 -0 26.2177)
(0 -0 26.3453)
(0 -0 26.4681)
(0 -0 26.5865)
(0 -0 26.7003)
(0 -0 26.8096)
(0 -0 26.9145)
(0 -0 27.015)
(0 -0 27.1114)
(0 -0 27.2037)
(0 -0 27.2925)
(0 -0 27.3781)
(0 -0 27.4613)
(0 -0 27.5426)
(0 -0 27.6227)
(0 -0 27.702)
(0 -0 27.7807)
(0 -0 27.8592)
(0 -0 27.9372)
(0 -0 28.0147)
(0 -0 28.0915)
(0 -0 28.1672)
(0 -0 28.2416)
(0 -0 28.3145)
(0 -0 28.3855)
(0 -0 28.4547)
(0 -0 28.5218)
(0 -0 28.5869)
(0 -0 28.6498)
(0 -0 28.7108)
(0 -0 28.7696)
(0 -0 28.8269)
(0 -0 28.8818)
(0 -0 28.9363)
(0 -0 28.988)
(0 -0 29.0414)
(0 -0 29.0902)
(0 -0 29.1452)
(0 -0 22.765)
(0 -0 22.6854)
(0 -0 22.7841)
(0 -0 22.8777)
(0 -0 22.9945)
(0 -0 23.1397)
(0 -0 23.2889)
(0 -0 23.428)
(0 -0 23.5603)
(0 -0 23.6901)
(0 -0 23.8166)
(0 -0 23.9382)
(0 -0 24.0545)
(0 -0 24.1662)
(0 -0 24.2736)
(0 -0 24.3769)
(0 -0 24.4761)
(0 -0 24.5712)
(0 -0 24.6622)
(0 -0 24.7492)
(0 -0 24.8323)
(0 -0 24.9118)
(0 -0 24.988)
(0 -0 25.0615)
(0 -0 25.133)
(0 -0 25.2029)
(0 -0 25.2721)
(0 -0 25.3409)
(0 -0 25.4096)
(0 -0 25.4783)
(0 -0 25.547)
(0 -0 25.6155)
(0 -0 25.6835)
(0 -0 25.7508)
(0 -0 25.8169)
(0 -0 25.8817)
(0 -0 25.9448)
(0 -0 26.0062)
(0 -0 26.0656)
(0 -0 26.1232)
(0 -0 26.1787)
(0 -0 26.2324)
(0 -0 26.2838)
(0 -0 26.3338)
(0 -0 26.3814)
(0 -0 26.4284)
(0 -0 26.4726)
(0 -0 26.5181)
(0 -0 26.5593)
(0 -0 26.6054)
(0 -0 20.9691)
(0 -0 20.8994)
(0 -0 20.9814)
(0 -0 21.0615)
(0 -0 21.1586)
(0 -0 21.2812)
(0 -0 21.4106)
(0 -0 21.5328)
(0 -0 21.6487)
(0 -0 21.7621)
(0 -0 21.8728)
(0 -0 21.9793)
(0 -0 22.081)
(0 -0 22.1785)
(0 -0 22.2721)
(0 -0 22.3619)
(0 -0 22.448)
(0 -0 22.5304)
(0 -0 22.609)
(0 -0 22.6839)
(0 -0 22.7552)
(0 -0 22.8231)
(0 -0 22.8881)
(0 -0 22.9507)
(0 -0 23.0116)
(0 -0 23.0714)
(0 -0 23.1308)
(0 -0 23.1902)
(0 -0 23.2499)
(0 -0 23.3101)
(0 -0 23.3705)
(0 -0 23.431)
(0 -0 23.4913)
(0 -0 23.551)
(0 -0 23.6098)
(0 -0 23.6675)
(0 -0 23.7236)
(0 -0 23.7781)
(0 -0 23.8308)
(0 -0 23.8817)
(0 -0 23.9306)
(0 -0 23.9777)
(0 -0 24.0227)
(0 -0 24.0662)
(0 -0 24.1073)
(0 -0 24.1476)
(0 -0 24.1852)
(0 -0 24.2236)
(0 -0 24.258)
(0 -0 24.2963)
(0 -0 19.3284)
(0 -0 19.2666)
(0 -0 19.3334)
(0 -0 19.4014)
(0 -0 19.4819)
(0 -0 19.5849)
(0 -0 19.6967)
(0 -0 19.8038)
(0 -0 19.9053)
(0 -0 20.0044)
(0 -0 20.1011)
(0 -0 20.1941)
(0 -0 20.2829)
(0 -0 20.3678)
(0 -0 20.4491)
(0 -0 20.527)
(0 -0 20.6015)
(0 -0 20.6725)
(0 -0 20.74)
(0 -0 20.8041)
(0 -0 20.8648)
(0 -0 20.9224)
(0 -0 20.9774)
(0 -0 21.0303)
(0 -0 21.0818)
(0 -0 21.1326)
(0 -0 21.1833)
(0 -0 21.2344)
(0 -0 21.2862)
(0 -0 21.3387)
(0 -0 21.3918)
(0 -0 21.4453)
(0 -0 21.4988)
(0 -0 21.552)
(0 -0 21.6044)
(0 -0 21.6557)
(0 -0 21.7057)
(0 -0 21.7542)
(0 -0 21.801)
(0 -0 21.846)
(0 -0 21.8891)
(0 -0 21.9305)
(0 -0 21.9697)
(0 -0 22.0074)
(0 -0 22.0428)
(0 -0 22.0772)
(0 -0 22.109)
(0 -0 22.141)
(0 -0 22.1696)
(0 -0 22.201)
(0 -0 17.8306)
(0 -0 17.7748)
(0 -0 17.8279)
(0 -0 17.8851)
(0 -0 17.9516)
(0 -0 18.0378)
(0 -0 18.134)
(0 -0 18.2277)
(0 -0 18.3167)
(0 -0 18.4032)
(0 -0 18.4876)
(0 -0 18.5688)
(0 -0 18.6461)
(0 -0 18.7199)
(0 -0 18.7904)
(0 -0 18.8578)
(0 -0 18.922)
(0 -0 18.9829)
(0 -0 19.0406)
(0 -0 19.095)
(0 -0 19.1464)
(0 -0 19.1948)
(0 -0 19.2409)
(0 -0 19.2851)
(0 -0 19.3282)
(0 -0 19.371)
(0 -0 19.414)
(0 -0 19.4578)
(0 -0 19.5027)
(0 -0 19.5485)
(0 -0 19.5953)
(0 -0 19.6426)
(0 -0 19.6902)
(0 -0 19.7376)
(0 -0 19.7845)
(0 -0 19.8304)
(0 -0 19.875)
(0 -0 19.9182)
(0 -0 19.9598)
(0 -0 19.9997)
(0 -0 20.0377)
(0 -0 20.0741)
(0 -0 20.1083)
(0 -0 20.1409)
(0 -0 20.1712)
(0 -0 20.2004)
(0 -0 20.2271)
(0 -0 20.2537)
(0 -0 20.277)
(0 -0 20.3026)
(0 -0 16.4633)
(0 -0 16.4122)
(0 -0 16.4532)
(0 -0 16.5007)
(0 -0 16.5554)
(0 -0 16.6273)
(0 -0 16.7097)
(0 -0 16.7917)
(0 -0 16.8698)
(0 -0 16.9453)
(0 -0 17.0189)
(0 -0 17.0897)
(0 -0 17.157)
(0 -0 17.221)
(0 -0 17.282)
(0 -0 17.3401)
(0 -0 17.3952)
(0 -0 17.4473)
(0 -0 17.4963)
(0 -0 17.5422)
(0 -0 17.5852)
(0 -0 17.6255)
(0 -0 17.6637)
(0 -0 17.7002)
(0 -0 17.736)
(0 -0 17.7717)
(0 -0 17.808)
(0 -0 17.8453)
(0 -0 17.884)
(0 -0 17.9241)
(0 -0 17.9653)
(0 -0 18.0073)
(0 -0 18.0498)
(0 -0 18.0923)
(0 -0 18.1343)
(0 -0 18.1755)
(0 -0 18.2155)
(0 -0 18.2542)
(0 -0 18.2913)
(0 -0 18.3268)
(0 -0 18.3604)
(0 -0 18.3923)
(0 -0 18.4221)
(0 -0 18.4503)
(0 -0 18.4762)
(0 -0 18.5009)
(0 -0 18.523)
(0 -0 18.5449)
(0 -0 18.5637)
(0 -0 18.5842)
(0 -0 15.2152)
(0 -0 15.1675)
(0 -0 15.1981)
(0 -0 15.2367)
(0 -0 15.2814)
(0 -0 15.3412)
(0 -0 15.4117)
(0 -0 15.4833)
(0 -0 15.5519)
(0 -0 15.618)
(0 -0 15.6822)
(0 -0 15.7439)
(0 -0 15.8025)
(0 -0 15.8579)
(0 -0 15.9106)
(0 -0 15.9605)
(0 -0 16.0076)
(0 -0 16.0519)
(0 -0 16.0932)
(0 -0 16.1316)
(0 -0 16.1673)