/*--------------------------------*- C++ -*----------------------------------*\
  =========                 |
  \\      /  F ield         | OpenFOAM: The Open Source CFD Toolbox
   \\    /   O peration     | Website:  https://openfoam.org
    \\  /    A nd           | Version:  7
     \\/     M anipulation  |
\*---------------------------------------------------------------------------*/
FoamFile
{
    version     2.0;
    format      ascii;
    class       volVectorField;
    location    "0.3";
    object      wallShearStress;
}
// * * * * * * * * * * * * * * * * * * * * * * * * * * * * * * * * * * * * * //

dimensions      [0 2 -2 0 0 0 0];

internalField   uniform (0 0 0);

boundaryField
{
    velocityInlet
    {
        type            calculated;
        value           uniform (0 0 0);
    }
    pressureOutlet
    {
        type            calculated;
        value           uniform (0 0 0);
    }
    fixedWalls
    {
        type            calculated;
        value           nonuniform List<vector> 
100
(
(-0.0104239 -0.00282922 0)
(-0.00169357 -0.000494782 0)
(-0.00243637 8.22957e-05 0)
(-0.00183686 -7.14348e-05 0)
(-0.00121638 -7.93634e-05 0)
(-0.000699461 -6.18279e-05 0)
(-0.000331565 -4.01378e-05 0)
(-0.000119011 -1.84016e-05 0)
(-5.77308e-05 3.54234e-07 0)
(-0.000125127 1.65657e-05 0)
(-0.000292564 2.88991e-05 0)
(-0.000528716 3.53846e-05 0)
(-0.000779848 3.05788e-05 0)
(-0.00103005 2.85706e-05 0)
(-0.00153478 7.99408e-05 0)
(-0.00280755 0.000201267 0)
(-0.00489003 0.00030432 0)
(-0.0071373 0.00032791 0)
(-0.00860346 0.000266535 0)
(-0.00758476 -0.000171595 0)
(-0.00241335 -0.000922735 0)
(0.00506834 -0.00113998 0)
(0.0105243 -0.000818726 0)
(0.012203 -0.000214468 0)
(0.010247 0.000318712 0)
(0.00622866 0.000544198 0)
(0.00197928 0.000503213 0)
(-0.00137052 0.000361355 0)
(-0.0034175 0.00019766 0)
(-0.00447284 9.20044e-05 0)
(-0.00497228 4.55853e-05 0)
(-0.00528642 4.33393e-05 0)
(-0.00555267 5.00877e-05 0)
(-0.00564757 3.13526e-05 0)
(-0.00534912 -2.82928e-05 0)
(-0.00460802 -8.84722e-05 0)
(-0.00364817 -0.000114072 0)
(-0.00277384 -9.85817e-05 0)
(-0.00215617 -6.5466e-05 0)
(-0.0017891 -3.7101e-05 0)
(-0.00157217 -2.20974e-05 0)
(-0.00140851 -1.89753e-05 0)
(-0.0012446 -2.14484e-05 0)
(-0.00107283 -2.36243e-05 0)
(-0.000917345 -2.17456e-05 0)
(-0.000813391 -1.52103e-05 0)
(-0.000788763 -5.67128e-06 0)
(-0.000851535 4.98792e-06 0)
(-0.000989159 1.37774e-05 0)
(-0.00117683 1.94958e-05 0)
(-0.00138711 2.20547e-05 0)
(-0.00159649 2.2092e-05 0)
(-0.00178759 2.03888e-05 0)
(-0.0019484 1.75394e-05 0)
(-0.002071 1.39743e-05 0)
(-0.00214977 9.84074e-06 0)
(-0.00218048 5.73101e-06 0)
(-0.00216125 5.91266e-07 0)
(-0.00209342 -4.47904e-06 0)
(-0.00198229 -9.19879e-06 0)
(-0.00183776 -1.30692e-05 0)
(-0.00167416 -1.5549e-05 0)
(-0.00150924 -1.61922e-05 0)
(-0.00136184 -1.47999e-05 0)
(-0.00124853 -1.15822e-05 0)
(-0.00118033 -7.26885e-06 0)
(-0.0011612 -2.71241e-06 0)
(-0.00118803 1.88903e-06 0)
(-0.00125161 5.53515e-06 0)
(-0.0013385 7.78236e-06 0)
(-0.00143284 8.25472e-06 0)
(-0.00151878 6.87841e-06 0)
(-0.00158491 4.16661e-06 0)
(-0.00163078 1.38029e-06 0)
(-0.00167231 3.91811e-07 0)
(-0.00174005 2.94253e-06 0)
(-0.00186982 9.41173e-06 0)
(-0.00209036 1.89227e-05 0)
(-0.00241111 2.95778e-05 0)
(-0.0028077 3.81005e-05 0)
(-0.00320768 3.98218e-05 0)
(-0.00349152 3.07641e-05 0)
(-0.00351752 9.55073e-06 0)
(-0.00317065 -2.38147e-05 0)
(-0.0024206 -6.07941e-05 0)
(-0.00135483 -9.12218e-05 0)
(-0.000182385 -0.000101634 0)
(0.000804952 -8.57446e-05 0)
(0.0013253 -4.42998e-05 0)
(0.00124956 7.20123e-06 0)
(0.00066526 4.77019e-05 0)
(-0.000179597 6.25315e-05 0)
(-0.00104287 6.3458e-05 0)
(-0.00176324 5.15789e-05 0)
(-0.00228323 3.64654e-05 0)
(-0.00259812 2.19953e-05 0)
(-0.00275353 1.04554e-05 0)
(-0.00275432 1.0939e-06 0)
(-0.00272978 -3.40337e-06 0)
(-0.00251063 -8.8535e-06 0)
)
;
    }
    bottomWall
    {
        type            calculated;
        value           nonuniform List<vector> 
800
(
(-0.0353512 0.00216563 0)
(-0.0160363 0.000524971 0)
(-0.0105901 0.000100564 0)
(-0.00845503 3.45988e-05 0)
(-0.00749068 1.96934e-05 0)
(-0.00685469 1.60229e-05 0)
(-0.00634557 1.32234e-05 0)
(-0.00593401 1.07744e-05 0)
(-0.00559907 8.97436e-06 0)
(-0.00532 7.67525e-06 0)
(-0.00508222 6.6911e-06 0)
(-0.00487631 5.91369e-06 0)
(-0.00469581 5.28409e-06 0)
(-0.00453599 4.76537e-06 0)
(-0.00439325 4.33189e-06 0)
(-0.00426484 3.9651e-06 0)
(-0.00414856 3.6513e-06 0)
(-0.00404267 3.38024e-06 0)
(-0.00394577 3.14408e-06 0)
(-0.00385669 2.93677e-06 0)
(-0.00377448 2.75355e-06 0)
(-0.00369834 2.59064e-06 0)
(-0.00362758 2.44498e-06 0)
(-0.00356163 2.31408e-06 0)
(-0.0035 2.1959e-06 0)
(-0.00344226 2.08874e-06 0)
(-0.00338804 1.9912e-06 0)
(-0.00333702 1.90209e-06 0)
(-0.00328891 1.8204e-06 0)
(-0.00324348 1.74529e-06 0)
(-0.00320048 1.67604e-06 0)
(-0.00315974 1.61201e-06 0)
(-0.00312107 1.55266e-06 0)
(-0.00308432 1.49753e-06 0)
(-0.00304935 1.44619e-06 0)
(-0.00301603 1.3983e-06 0)
(-0.00298424 1.35351e-06 0)
(-0.00295388 1.31157e-06 0)
(-0.00292485 1.27222e-06 0)
(-0.00289708 1.23525e-06 0)
(-0.00287048 1.20045e-06 0)
(-0.00284498 1.16764e-06 0)
(-0.00282051 1.13671e-06 0)
(-0.00279701 1.10742e-06 0)
(-0.00277443 1.07984e-06 0)
(-0.00275271 1.05345e-06 0)
(-0.0027318 1.02891e-06 0)
(-0.00271168 1.00477e-06 0)
(-0.00269226 9.83073e-07 0)
(-0.00267357 9.59912e-07 0)
(-0.00265793 9.40913e-07 0)
(-0.00264502 9.30139e-07 0)
(-0.00263228 9.16347e-07 0)
(-0.00261973 9.01622e-07 0)
(-0.00260738 8.8782e-07 0)
(-0.00259521 8.74686e-07 0)
(-0.00258322 8.61861e-07 0)
(-0.0025714 8.49301e-07 0)
(-0.00255976 8.37036e-07 0)
(-0.00254828 8.2506e-07 0)
(-0.00253696 8.13357e-07 0)
(-0.00252581 8.01912e-07 0)
(-0.00251481 7.90719e-07 0)
(-0.00250396 7.79769e-07 0)
(-0.00249326 7.69054e-07 0)
(-0.00248271 7.58566e-07 0)
(-0.0024723 7.48298e-07 0)
(-0.00246203 7.38244e-07 0)
(-0.0024519 7.28399e-07 0)
(-0.0024419 7.18756e-07 0)
(-0.00243203 7.09309e-07 0)
(-0.0024223 7.00052e-07 0)
(-0.00241268 6.90982e-07 0)
(-0.0024032 6.82092e-07 0)
(-0.00239383 6.73379e-07 0)
(-0.00238458 6.64836e-07 0)
(-0.00237545 6.56461e-07 0)
(-0.00236643 6.48249e-07 0)
(-0.00235753 6.40196e-07 0)
(-0.00234873 6.32298e-07 0)
(-0.00234005 6.24552e-07 0)
(-0.00233146 6.16953e-07 0)
(-0.00232299 6.09499e-07 0)
(-0.00231461 6.02186e-07 0)
(-0.00230633 5.9501e-07 0)
(-0.00229815 5.87968e-07 0)
(-0.00229007 5.81057e-07 0)
(-0.00228208 5.74274e-07 0)
(-0.00227419 5.67616e-07 0)
(-0.00226638 5.61079e-07 0)
(-0.00225867 5.54662e-07 0)
(-0.00225104 5.4836e-07 0)
(-0.0022435 5.42172e-07 0)
(-0.00223604 5.36093e-07 0)
(-0.00222867 5.30123e-07 0)
(-0.00222138 5.24258e-07 0)
(-0.00221416 5.18494e-07 0)
(-0.00220703 5.12831e-07 0)
(-0.00219997 5.07266e-07 0)
(-0.002193 5.01796e-07 0)
(-0.00218609 4.96419e-07 0)
(-0.00217926 4.91133e-07 0)
(-0.0021725 4.85937e-07 0)
(-0.00216581 4.80828e-07 0)
(-0.00215919 4.75805e-07 0)
(-0.00215265 4.70865e-07 0)
(-0.00214616 4.66008e-07 0)
(-0.00213975 4.61231e-07 0)
(-0.0021334 4.56534e-07 0)
(-0.00212711 4.51915e-07 0)
(-0.00212089 4.47373e-07 0)
(-0.00211473 4.42905e-07 0)
(-0.00210863 4.38512e-07 0)
(-0.00210259 4.34192e-07 0)
(-0.00209661 4.29943e-07 0)
(-0.00209069 4.25765e-07 0)
(-0.00208483 4.21656e-07 0)
(-0.00207902 4.17614e-07 0)
(-0.00207327 4.13639e-07 0)
(-0.00206757 4.09729e-07 0)
(-0.00206193 4.05882e-07 0)
(-0.00205633 4.02099e-07 0)
(-0.00205079 3.98377e-07 0)
(-0.00204531 3.94714e-07 0)
(-0.00203987 3.91111e-07 0)
(-0.00203448 3.87565e-07 0)
(-0.00202914 3.84077e-07 0)
(-0.00202385 3.80645e-07 0)
(-0.0020186 3.77267e-07 0)
(-0.0020134 3.73941e-07 0)
(-0.00200825 3.70669e-07 0)
(-0.00200314 3.67449e-07 0)
(-0.00199808 3.6428e-07 0)
(-0.00199306 3.61159e-07 0)
(-0.00198808 3.58089e-07 0)
(-0.00198314 3.55065e-07 0)
(-0.00197825 3.52092e-07 0)
(-0.0019734 3.49162e-07 0)
(-0.00196859 3.46283e-07 0)
(-0.00196381 3.43442e-07 0)
(-0.00195908 3.40655e-07 0)
(-0.00195439 3.37895e-07 0)
(-0.00194973 3.35203e-07 0)
(-0.00194511 3.32512e-07 0)
(-0.00194053 3.2992e-07 0)
(-0.00193598 3.27281e-07 0)
(-0.00193147 3.24804e-07 0)
(-0.001927 3.22181e-07 0)
(-0.00192256 3.19808e-07 0)
(-0.00191815 3.17119e-07 0)
(-0.00191445 3.14725e-07 0)
(-0.00191143 3.13504e-07 0)
(-0.0019084 3.12014e-07 0)
(-0.00190537 3.10291e-07 0)
(-0.00190233 3.08591e-07 0)
(-0.00189928 3.06937e-07 0)
(-0.00189623 3.05314e-07 0)
(-0.00189318 3.03692e-07 0)
(-0.00189012 3.02073e-07 0)
(-0.00188706 3.00463e-07 0)
(-0.00188399 2.98858e-07 0)
(-0.00188091 2.9726e-07 0)
(-0.00187784 2.95674e-07 0)
(-0.00187475 2.94085e-07 0)
(-0.00187167 2.92509e-07 0)
(-0.00186857 2.90935e-07 0)
(-0.00186548 2.89366e-07 0)
(-0.00186237 2.87803e-07 0)
(-0.00185927 2.86246e-07 0)
(-0.00185616 2.84696e-07 0)
(-0.00185304 2.8315e-07 0)
(-0.00184992 2.8161e-07 0)
(-0.0018468 2.80081e-07 0)
(-0.00184367 2.78549e-07 0)
(-0.00184053 2.7703e-07 0)
(-0.00183739 2.75511e-07 0)
(-0.00183425 2.73999e-07 0)
(-0.00183111 2.72493e-07 0)
(-0.00182795 2.70992e-07 0)
(-0.0018248 2.69497e-07 0)
(-0.00182164 2.68011e-07 0)
(-0.00181848 2.66524e-07 0)
(-0.00181531 2.65047e-07 0)
(-0.00181213 2.63573e-07 0)
(-0.00180896 2.62105e-07 0)
(-0.00180578 2.60642e-07 0)
(-0.00180259 2.59184e-07 0)
(-0.0017994 2.5773e-07 0)
(-0.00179621 2.56284e-07 0)
(-0.00179302 2.54838e-07 0)
(-0.00178982 2.53402e-07 0)
(-0.00178661 2.51966e-07 0)
(-0.0017834 2.50537e-07 0)
(-0.00178019 2.49113e-07 0)
(-0.00177698 2.47695e-07 0)
(-0.00177376 2.4628e-07 0)
(-0.00177053 2.44871e-07 0)
(-0.00176731 2.43469e-07 0)
(-0.00176407 2.42074e-07 0)
(-0.00176084 2.40681e-07 0)
(-0.0017576 2.39296e-07 0)
(-0.00175436 2.37917e-07 0)
(-0.00175112 2.36545e-07 0)
(-0.00174787 2.3518e-07 0)
(-0.00174462 2.33824e-07 0)
(-0.00174136 2.32474e-07 0)
(-0.0017381 2.31133e-07 0)
(-0.00173484 2.29798e-07 0)
(-0.00173157 2.28472e-07 0)
(-0.0017283 2.27153e-07 0)
(-0.00172503 2.25843e-07 0)
(-0.00172175 2.24541e-07 0)
(-0.00171847 2.23251e-07 0)
(-0.00171518 2.2197e-07 0)
(-0.00171189 2.20698e-07 0)
(-0.0017086 2.19432e-07 0)
(-0.00170531 2.18175e-07 0)
(-0.00170201 2.1693e-07 0)
(-0.0016987 2.15695e-07 0)
(-0.0016954 2.14469e-07 0)
(-0.00169209 2.13253e-07 0)
(-0.00168877 2.12049e-07 0)
(-0.00168545 2.10856e-07 0)
(-0.00168213 2.09685e-07 0)
(-0.0016788 2.08506e-07 0)
(-0.00167547 2.0737e-07 0)
(-0.00167213 2.06199e-07 0)
(-0.00166879 2.05123e-07 0)
(-0.00166545 2.03939e-07 0)
(-0.00166209 2.02977e-07 0)
(-0.00165874 2.01705e-07 0)
(-0.00165537 2.00994e-07 0)
(-0.00165202 1.99444e-07 0)
(-0.00164863 1.99289e-07 0)
(-0.00164527 1.96999e-07 0)
(-0.00164185 1.98134e-07 0)
(-0.00163851 1.94025e-07 0)
(-0.00163502 1.9814e-07 0)
(-0.00163174 1.89694e-07 0)
(-0.00162813 2.00595e-07 0)
(-0.00162498 1.82227e-07 0)
(-0.00162112 2.08155e-07 0)
(-0.00161827 1.6801e-07 0)
(-0.00161394 2.25968e-07 0)
(-0.00161168 1.40304e-07 0)
(-0.00160648 2.6264e-07 0)
(-0.00160527 8.8297e-08 0)
(-0.00159874 3.27726e-07 0)
(-0.00159903 6.54804e-09 0)
(-0.00159073 3.59913e-07 0)
(-0.0353512 -0.00216562 0)
(-0.0160365 -0.00052496 0)
(-0.0105907 -0.000100547 0)
(-0.00845627 -3.45803e-05 0)
(-0.00749265 -1.96722e-05 0)
(-0.00685749 -1.59989e-05 0)
(-0.00634929 -1.31968e-05 0)
(-0.00593875 -1.07451e-05 0)
(-0.00560493 -8.94179e-06 0)
(-0.00532708 -7.63921e-06 0)
(-0.00509065 -6.65134e-06 0)
(-0.0048862 -5.87009e-06 0)
(-0.00470727 -5.23658e-06 0)
(-0.00454913 -4.71407e-06 0)
(-0.00440818 -4.27699e-06 0)
(-0.00428163 -3.90684e-06 0)
(-0.0041673 -3.58995e-06 0)
(-0.00406344 -3.31599e-06 0)
(-0.00396862 -3.07716e-06 0)
(-0.0038817 -2.8673e-06 0)
(-0.00380169 -2.68171e-06 0)
(-0.00372781 -2.51657e-06 0)
(-0.00365937 -2.36889e-06 0)
(-0.00359578 -2.23621e-06 0)
(-0.00353654 -2.11664e-06 0)
(-0.00348124 -2.00851e-06 0)
(-0.00342948 -1.91063e-06 0)
(-0.00338094 -1.82193e-06 0)
(-0.00333531 -1.74161e-06 0)
(-0.00329234 -1.66923e-06 0)
(-0.00325178 -1.60409e-06 0)
(-0.0032134 -1.54652e-06 0)
(-0.003177 -1.49569e-06 0)
(-0.00314236 -1.45318e-06 0)
(-0.00310931 -1.41728e-06 0)
(-0.00307762 -1.39212e-06 0)
(-0.0030471 -1.37371e-06 0)
(-0.00301754 -1.37077e-06 0)
(-0.0029886 -1.37575e-06 0)
(-0.00296032 -1.40287e-06 0)
(-0.00293164 -1.44463e-06 0)
(-0.00290376 -1.51116e-06 0)
(-0.00287307 -1.62401e-06 0)
(-0.00284508 -1.73059e-06 0)
(-0.00280759 -2.01387e-06 0)
(-0.00278091 -2.10828e-06 0)
(-0.00272434 -2.90939e-06 0)
(-0.00270759 -2.57401e-06 0)
(-0.00259952 -9.41861e-06 0)
(-0.00246041 0.00017943 0)
(6.63225e-05 -2.85127e-05 0)
(7.12249e-05 -0.000146721 0)
(5.39241e-05 -0.000243019 0)
(3.23044e-05 -0.000305211 0)
(1.19399e-05 -0.000337706 0)
(-1.52239e-06 -0.0003392 0)
(-3.65409e-06 -0.000312846 0)
(-4.48206e-06 -0.000262794 0)
(-2.75714e-05 -0.000175307 0)
(-0.000101298 -1.93567e-05 0)
(-0.000237165 0.00024731 0)
(-0.000357078 0.000641747 0)
(-0.000364788 0.00105127 0)
(-0.00026756 0.00134441 0)
(-0.000139581 0.00147622 0)
(-2.18442e-05 0.00147128 0)
(7.46404e-05 0.00136175 0)
(0.000143535 0.00118105 0)
(0.000193206 0.000950686 0)
(0.000227152 0.000694617 0)
(0.00024936 0.000416256 0)
(0.000250739 0.000112668 0)
(0.00024449 -0.00017804 0)
(0.000237817 -0.000455844 0)
(0.000228689 -0.000722348 0)
(0.000216995 -0.000975094 0)
(0.000203305 -0.00121201 0)
(0.000188234 -0.00143184 0)
(0.000172287 -0.00163395 0)
(0.000155858 -0.00181815 0)
(0.000139261 -0.00198462 0)
(0.00012274 -0.00213374 0)
(0.00010648 -0.00226613 0)
(9.06167e-05 -0.00238249 0)
(7.52437e-05 -0.00248362 0)
(6.0424e-05 -0.00257036 0)
(4.6197e-05 -0.00264358 0)
(3.25777e-05 -0.00270413 0)
(1.95733e-05 -0.00275282 0)
(7.15847e-06 -0.00279044 0)
(-4.74867e-06 -0.00281764 0)
(-1.61293e-05 -0.00283501 0)
(-2.6946e-05 -0.00284321 0)
(-3.75379e-05 -0.00284284 0)
(-4.79308e-05 -0.0028341 0)
(-5.78392e-05 -0.00281767 0)
(-6.74302e-05 -0.00279411 0)
(-7.73598e-05 -0.00276389 0)
(-8.85939e-05 -0.00272716 0)
(-0.000102457 -0.00268338 0)
(-0.000120081 -0.00263169 0)
(-0.000143325 -0.0025709 0)
(-0.000175202 -0.0024978 0)
(-0.000216716 -0.00240857 0)
(-0.000270677 -0.00230005 0)
(-0.000343125 -0.00216456 0)
(-0.000433416 -0.0019922 0)
(-0.000538339 -0.00176782 0)
(-0.000630798 -0.00146337 0)
(-0.000630127 -0.00108631 0)
(-0.000484878 -0.00071305 0)
(-0.000248559 -0.000422628 0)
(-1.1988e-05 -0.000228623 0)
(0.00016896 -0.000111731 0)
(0.000279272 -5.19656e-05 0)
(0.00032515 -3.12116e-05 0)
(0.000312874 -3.37633e-05 0)
(0.000256084 -4.48038e-05 0)
(0.000172898 -5.21486e-05 0)
(8.18464e-05 -4.93284e-05 0)
(-2.28783e-06 -3.39775e-05 0)
(-7.1324e-05 -4.53831e-06 0)
(-0.000120441 3.98099e-05 0)
(-0.000148924 9.60078e-05 0)
(-0.000158045 0.000156467 0)
(-0.000151413 0.000212809 0)
(-0.000134034 0.000259657 0)
(-0.000110439 0.000294873 0)
(-8.34771e-05 0.00031867 0)
(-5.44506e-05 0.000331558 0)
(-2.45053e-05 0.000334028 0)
(5.53075e-06 0.000326711 0)
(3.55082e-05 0.000309796 0)
(6.55447e-05 0.000282618 0)
(9.508e-05 0.000244085 0)
(0.000122538 0.000193877 0)
(0.000146092 0.000133282 0)
(0.000165249 6.49742e-05 0)
(0.000180174 -9.34748e-06 0)
(0.000191505 -8.79322e-05 0)
(0.000199792 -0.00016941 0)
(0.000205391 -0.000253923 0)
(0.000207407 -0.000341316 0)
(0.000204212 -0.000430873 0)
(0.000193654 -0.000520277 0)
(0.000174432 -0.00060501 0)
(0.000147718 -0.000679359 0)
(0.000117402 -0.000738741 0)
(8.85159e-05 -0.000781599 0)
(6.49896e-05 -0.000809624 0)
(4.82193e-05 -0.000826489 0)
(3.72029e-05 -0.000836117 0)
(2.96788e-05 -0.000841481 0)
(2.35371e-05 -0.000844213 0)
(1.76485e-05 -0.000845055 0)
(1.17569e-05 -0.000844509 0)
(5.94982e-06 -0.000843039 0)
(2.29464e-07 -0.000840994 0)
(-5.6468e-06 -0.000838463 0)
(-1.20916e-05 -0.0008352 0)
(-1.95545e-05 -0.000830691 0)
(-2.84078e-05 -0.000824234 0)
(-3.8834e-05 -0.000814993 0)
(-5.06247e-05 -0.000801993 0)
(-6.27163e-05 -0.000784202 0)
(-7.27135e-05 -0.000761172 0)
(-7.76366e-05 -0.000733993 0)
(-7.6231e-05 -0.000704054 0)
(-6.90852e-05 -0.000668343 0)
(-5.3132e-05 -0.000620805 0)
(-2.14206e-05 -0.000561186 0)
(2.02168e-05 -0.000510441 0)
(3.72679e-05 -0.000504697 0)
(-2.61103e-05 -0.00052187 0)
(-0.000190958 -0.000489908 0)
(-0.000394134 -0.000348753 0)
(-0.000544609 -0.000121309 0)
(-0.000616628 0.00011657 0)
(-0.000634352 0.000327095 0)
(-0.000621232 0.000510035 0)
(-0.000590458 0.000670933 0)
(-0.000549004 0.000812028 0)
(-0.000501449 0.000934545 0)
(-0.000450891 0.00103962 0)
(-0.000399443 0.00112842 0)
(-0.000348535 0.00120208 0)
(-0.000299122 0.00126172 0)
(-0.000251802 0.00130843 0)
(-0.000207057 0.00134323 0)
(-0.000165147 0.0013673 0)
(-0.000126049 0.00138172 0)
(-8.96189e-05 0.00138749 0)
(-5.58966e-05 0.00138543 0)
(-2.46401e-05 0.00137667 0)
(4.80325e-06 0.00136188 0)
(3.2819e-05 0.00134156 0)
(5.97218e-05 0.00131609 0)
(8.58445e-05 0.0012858 0)
(0.00011153 0.00125094 0)
(0.000137095 0.00121165 0)
(0.000162836 0.00116801 0)
(0.000189017 0.00112003 0)
(0.000215856 0.00106767 0)
(0.000243521 0.0010108 0)
(0.00027212 0.000949267 0)
(0.000301688 0.000882871 0)
(0.000332171 0.000811359 0)
(0.000363406 0.000734447 0)
(0.000395089 0.000651832 0)
(0.000426762 0.000563238 0)
(0.000457784 0.00046847 0)
(0.000487321 0.000367487 0)
(0.00051439 0.000260482 0)
(0.00053798 0.000147977 0)
(0.000556975 3.07901e-05 0)
(0.0005702 -8.98964e-05 0)
(0.000576766 -0.000212579 0)
(0.000576072 -0.000335597 0)
(0.000567664 -0.000457197 0)
(0.000551362 -0.000575602 0)
(0.000527299 -0.000689096 0)
(0.000495893 -0.000796134 0)
(0.000457777 -0.0008954 0)
(0.00041373 -0.000985851 0)
(0.000364616 -0.00106672 0)
(0.000311306 -0.00113748 0)
(0.000254648 -0.00119778 0)
(0.000195432 -0.00124746 0)
(0.000134404 -0.00128659 0)
(7.20569e-05 -0.00131551 0)
(9.11957e-06 -0.00133443 0)
(-5.47784e-05 -0.00134357 0)
(-0.000119743 -0.00134206 0)
(-0.000184403 -0.00132981 0)
(-0.000247816 -0.00130709 0)
(-0.000309267 -0.00127417 0)
(-0.000368073 -0.00123133 0)
(-0.00042346 -0.0011788 0)
(-0.000474496 -0.00111703 0)
(-0.000520277 -0.00104662 0)
(-0.000559878 -0.000968081 0)
(-0.000592208 -0.000881912 0)
(-0.000616067 -0.000788779 0)
(-0.000630219 -0.000689852 0)
(-0.000633665 -0.000588356 0)
(-0.000627148 -0.000494036 0)
(-0.000618146 -0.000431159 0)
(-0.000630918 -0.00044527 0)
(-0.000700097 -0.000591281 0)
(-0.00084884 -0.000896494 0)
(3.92079e-06 -6.7743e-05 0)
(9.75639e-05 -6.37849e-05 0)
(0.000134909 -1.8187e-05 0)
(0.000111573 3.02821e-05 0)
(5.20663e-05 5.68621e-05 0)
(-2.06872e-05 5.84918e-05 0)
(-8.36075e-05 4.02046e-05 0)
(-0.00012493 9.26774e-06 0)
(-0.000137309 -2.75556e-05 0)
(-0.000116076 -6.22933e-05 0)
(-5.96883e-05 -7.91802e-05 0)
(1.32242e-05 -5.93215e-05 0)
(6.94165e-05 -2.12452e-05 0)
(9.9314e-05 -3.57481e-06 0)
(0.000116249 -1.02433e-05 0)
(0.000140256 -3.14422e-05 0)
(0.000183623 -4.67062e-05 0)
(0.000226686 -2.94191e-05 0)
(0.000228635 2.02497e-05 0)
(0.000177365 6.55543e-05 0)
(0.000102361 8.54952e-05 0)
(2.44484e-05 8.97736e-05 0)
(-6.29179e-05 8.28794e-05 0)
(-0.000155974 2.48013e-05 0)
(-0.000182934 -6.2137e-05 0)
(-0.000215508 -2.97547e-05 0)
(-0.000279906 3.30432e-05 0)
(-0.000207812 0.000177131 0)
(-0.000191173 0.000354716 0)
(-0.000356605 0.000387619 0)
(-0.00035583 -8.45973e-05 0)
(5.1522e-05 -0.000470801 0)
(0.00051016 -0.000470258 0)
(0.000681553 -0.000245328 0)
(0.000765371 -0.000209209 0)
(0.000891659 -0.000175412 0)
(0.000981179 -0.0001397 0)
(0.00106685 -0.000119598 0)
(0.00113661 -9.34403e-05 0)
(0.0011912 -7.20401e-05 0)
(0.00123008 -4.81979e-05 0)
(0.00124947 -2.53904e-05 0)
(0.00125 -3.82628e-06 0)
(0.00123011 1.70462e-05 0)
(0.001191 3.79277e-05 0)
(0.0011322 5.89893e-05 0)
(0.00105468 7.92292e-05 0)
(0.00095993 9.82351e-05 0)
(0.000849822 0.00011519 0)
(0.000726858 0.000129597 0)
(0.000593671 0.000141303 0)
(0.000452876 0.000150458 0)
(0.000306761 0.000157703 0)
(0.00015663 0.000164231 0)
(1.05062e-06 0.000171726 0)
(-0.000162857 0.000178501 0)
(-0.000325897 0.000181196 0)
(-0.000486675 0.000185262 0)
(-0.0006547 0.00019302 0)
(-0.000832812 0.000204008 0)
(-0.00102211 0.000217217 0)
(-0.00122341 0.000231449 0)
(-0.00143672 0.000244966 0)
(-0.00166046 0.0002558 0)
(-0.00189165 0.000262051 0)
(-0.00212614 0.000261876 0)
(-0.00235824 0.000253686 0)
(-0.00258081 0.000236725 0)
(-0.00278638 0.000211396 0)
(-0.00296835 0.000179467 0)
(-0.00312205 0.000141954 0)
(-0.00324297 0.000101229 0)
(-0.0033304 5.84289e-05 0)
(-0.00338181 1.40671e-05 0)
(-0.00339992 -3.23231e-05 0)
(-0.00337975 -8.22628e-05 0)
(-0.0033236 -0.000133744 0)
(-0.00322624 -0.000192443 0)
(-0.0030889 -0.000252204 0)
(-0.00290553 -0.000326888 0)
(-0.00267048 -0.000402722 0)
(-0.00238014 -0.000506908 0)
(-0.00201427 -0.000600889 0)
(-0.00159011 -0.000742406 0)
(-0.00105246 -0.000830912 0)
(-0.000369735 -0.000989741 0)
(0.000613662 -0.000495159 0)
(0.000752399 0.000408322 0)
(0.000882991 7.9879e-05 0)
(0.000689215 -0.000138602 0)
(0.000869877 -0.000253752 0)
(0.00119597 -0.000460447 0)
(0.00155909 -0.00038777 0)
(0.00178901 -0.000222154 0)
(0.00182835 -6.71516e-06 0)
(0.00169389 0.000203941 0)
(0.00145105 0.000383555 0)
(0.00109066 0.000551649 0)
(0.000534341 0.00061372 0)
(-1.38419e-05 0.000340374 0)
(0.000362669 0.000100856 0)
(0.000507207 0.000891344 0)
(0.000284021 0.00138683 0)
(6.32048e-05 0.0014237 0)
(1.99938e-05 0.00140848 0)
(-2.7223e-05 0.00134585 0)
(-4.26754e-05 0.00124156 0)
(-2.41888e-05 0.00113269 0)
(1.41629e-05 0.00108167 0)
(4.67446e-05 0.0011045 0)
(3.95462e-05 0.00120293 0)
(-3.29545e-05 0.00131452 0)
(-0.000130938 0.00133287 0)
(-0.000221085 0.00117779 0)
(-0.000294469 0.000878761 0)
(-0.000284243 0.000566129 0)
(-0.000208318 0.000409475 0)
(-0.000110439 0.000422327 0)
(7.24115e-05 0.000524629 0)
(0.000198511 0.000651066 0)
(4.75572e-05 0.000659749 0)
(-0.000246747 0.000371989 0)
(-0.000377949 -0.000107055 0)
(-0.000360271 -0.000540379 0)
(-0.000325124 -0.000901097 0)
(-0.000288954 -0.00123282 0)
(-0.000238868 -0.00152171 0)
(-0.000177047 -0.00175136 0)
(-0.000105535 -0.00191394 0)
(-2.66612e-05 -0.00200153 0)
(5.62958e-05 -0.0020096 0)
(0.000136154 -0.00193486 0)
(0.000200249 -0.00178701 0)
(0.000246298 -0.00158251 0)
(0.000279988 -0.00133538 0)
(0.000308636 -0.00105824 0)
(0.000341651 -0.000765726 0)
(0.000393433 -0.000470452 0)
(0.00047314 -0.000170405 0)
(0.000565433 0.000142209 0)
(0.000584405 0.000484785 0)
(0.000369169 0.000820017 0)
(-0.000184084 0.000946397 0)
(-0.000803009 0.000724887 0)
(-0.00112841 0.000363432 0)
(-0.00118747 3.48447e-05 0)
(-0.00108277 -0.000234773 0)
(-0.000874069 -0.000479823 0)
(-0.000258991 -0.000416583 0)
(0.000292463 -6.39799e-05 0)
(0.000616924 0.0004334 0)
(0.000601964 0.000967041 0)
(0.000517289 0.00131256 0)
(0.00061966 0.00162363 0)
(0.000604729 0.00203731 0)
(0.000483382 0.00234953 0)
(0.000419491 0.00257412 0)
(0.000384888 0.00278932 0)
(0.000370573 0.00298635 0)
(0.000344455 0.00317509 0)
(0.000307269 0.00333399 0)
(0.000278853 0.00346606 0)
(0.000255154 0.00358218 0)
(0.000232959 0.00368217 0)
(0.000209311 0.00376727 0)
(0.000185273 0.00383674 0)
(0.000160591 0.00389264 0)
(0.000134009 0.00393537 0)
(0.000106119 0.00396498 0)
(7.78772e-05 0.00398212 0)
(5.12644e-05 0.00398786 0)
(2.8066e-05 0.00398422 0)
(9.27281e-06 0.00397388 0)
(-5.75738e-06 0.0039597 0)
(-1.75602e-05 0.00394296 0)
(-2.53496e-05 0.0039251 0)
(-2.84542e-05 0.00390811 0)
(-2.66592e-05 0.00389381 0)
(-1.98008e-05 0.00388367 0)
(-7.92137e-06 0.00387886 0)
(8.81941e-06 0.00387996 0)
(3.00533e-05 0.00388741 0)
(5.4486e-05 0.00390149 0)
(7.93978e-05 0.00392194 0)
(0.000100612 0.0039475 0)
(0.000113192 0.00397539 0)
(0.000113102 0.00400117 0)
(9.89274e-05 0.00401946 0)
(7.29183e-05 0.00402522 0)
(4.09625e-05 0.00401558 0)
(9.26758e-06 0.00399211 0)
(-1.89701e-05 0.00395807 0)
(-4.28209e-05 0.00391645 0)
(-6.22417e-05 0.00386942 0)
(-7.73051e-05 0.00381876 0)
(-8.82169e-05 0.00376614 0)
(-9.5446e-05 0.003713 0)
(-9.96668e-05 0.00366043 0)
(-0.000101569 0.00360909 0)
(-0.000101724 0.00355939 0)
(-0.00010057 0.00351156 0)
(-9.84529e-05 0.00346573 0)
(-9.56485e-05 0.00342194 0)
(-9.23634e-05 0.00338019 0)
(-8.87391e-05 0.00334042 0)
(-8.48724e-05 0.00330257 0)
(-8.08372e-05 0.00326658 0)
(-7.66949e-05 0.00323235 0)
(-7.24987e-05 0.00319981 0)
(-6.82984e-05 0.00316885 0)
(-6.41455e-05 0.00313937 0)
(-6.00945e-05 0.00311125 0)
(-5.62018e-05 0.00308436 0)
(-5.25246e-05 0.00305855 0)
(-4.91196e-05 0.00303367 0)
(-4.60408e-05 0.00300956 0)
(-4.33367e-05 0.00298608 0)
(-4.10483e-05 0.00296304 0)
(-3.92072e-05 0.00294031 0)
(-3.78338e-05 0.00291772 0)
(-3.69371e-05 0.00289515 0)
(-3.65141e-05 0.00287246 0)
(-3.65509e-05 0.00284956 0)
(-3.70243e-05 0.00282636 0)
(-3.79031e-05 0.00280279 0)
(-3.91512e-05 0.00277881 0)
(-4.07293e-05 0.00275437 0)
(-4.25992e-05 0.00272948 0)
(-4.47257e-05 0.00270412 0)
(-4.70804e-05 0.00267832 0)
(-4.96449e-05 0.00265208 0)
(-5.2413e-05 0.00262543 0)
(-5.53938e-05 0.00259838 0)
(-5.86128e-05 0.00257094 0)
(-6.21135e-05 0.0025431 0)
(-6.59574e-05 0.00251485 0)
(-7.02225e-05 0.00248612 0)
(-7.50009e-05 0.00245684 0)
(-8.03948e-05 0.00242691 0)
(-8.65108e-05 0.00239617 0)
(-9.34526e-05 0.00236445 0)
(-0.000101314 0.00233154 0)
(-0.000110168 0.00229721 0)
(-0.000120062 0.00226118 0)
(-0.000131005 0.0022232 0)
(-0.000142969 0.00218301 0)
(-0.000155881 0.00214035 0)
(-0.000169624 0.00209501 0)
(-0.000184046 0.00204683 0)
(-0.000198961 0.00199571 0)
(-0.000214162 0.00194158 0)
(-0.000229429 0.00188448 0)
(-0.000244539 0.00182448 0)
(-0.000259274 0.00176174 0)
(-0.000273428 0.00169646 0)
(-0.000286815 0.00162889 0)
(-0.000299271 0.00155932 0)
(-0.000310658 0.00148805 0)
(-0.000320864 0.00141544 0)
(-0.000329804 0.00134181 0)
(-0.000337417 0.00126752 0)
(-0.000343671 0.00119291 0)
(-0.000348556 0.00111831 0)
(-0.000352088 0.00104403 0)
(-0.000354308 0.000970392 0)
(-0.000355286 0.000897665 0)
(-0.000355121 0.00082612 0)
(-0.000353955 0.000756004 0)
(-0.000351974 0.000687542 0)
(-0.000349429 0.000620938 0)
(-0.000346647 0.000556373 0)
(-0.000344049 0.000493996 0)
(-0.000342173 0.00043391 0)
(-0.000341689 0.000376147 0)
(-0.000343397 0.000320631 0)
(-0.000348211 0.000267116 0)
(-0.000357116 0.000215111 0)
(-0.000371067 0.000163788 0)
(-0.000390825 0.000111929 0)
(-0.000416817 5.79445e-05 0)
(-0.000448958 1.57654e-08 0)
(-0.00048653 -6.35531e-05 0)
(-0.000528388 -0.000133881 0)
(-0.000573372 -0.000211209 0)
(-0.000620589 -0.000294797 0)
(-0.000669914 -0.000383012 0)
(-0.000722464 -0.000473803 0)
(-0.000780569 -0.000565359 0)
(-0.000847517 -0.000656694 0)
(-0.000927202 -0.000748053 0)
(-0.00102361 -0.000840953 0)
(-0.00114037 -0.000937937 0)
(-0.0012804 -0.0010422 0)
(-0.00144605 -0.00115716 0)
(-0.00163824 -0.00128705 0)
(-0.00185946 -0.00142826 0)
(-0.00210597 -0.00162461 0)
(-0.00236731 -0.00170207 0)
(-0.00268167 -0.00220828 0)
(-0.00271423 -0.00166002 0)
)
;
    }
    frontAndBack
    {
        type            empty;
    }
}


// ************************************************************************* //
