/*--------------------------------*- C++ -*----------------------------------*\
  =========                 |
  \\      /  F ield         | OpenFOAM: The Open Source CFD Toolbox
   \\    /   O peration     | Website:  https://openfoam.org
    \\  /    A nd           | Version:  7
     \\/     M anipulation  |
\*---------------------------------------------------------------------------*/
FoamFile
{
    version     2.0;
    format      ascii;
    class       surfaceScalarField;
    location    "0.1";
    object      ddtCorrDdt0(phi);
}
// * * * * * * * * * * * * * * * * * * * * * * * * * * * * * * * * * * * * * //

dimensions      [0 3 -2 0 0 0 0];

internalField   nonuniform List<scalar> 
139350
(
6.11554e-10
-6.10482e-10
1.70918e-09
-1.09528e-09
2.99876e-09
-1.28686e-09
4.24054e-09
-1.23963e-09
5.3813e-09
-1.13853e-09
6.4253e-09
-1.0423e-09
7.38573e-09
-9.58875e-10
8.28961e-09
-9.02994e-10
9.17315e-09
-8.82204e-10
1.00688e-08
-8.95572e-10
1.10096e-08
-9.39448e-10
1.20176e-08
-1.00793e-09
1.31112e-08
-1.09258e-09
1.42981e-08
-1.18628e-09
1.55814e-08
-1.28295e-09
1.69636e-08
-1.38091e-09
1.84425e-08
-1.47909e-09
2.00244e-08
-1.5796e-09
2.17102e-08
-1.68585e-09
2.35143e-08
-1.80135e-09
2.54456e-08
-1.93059e-09
2.75241e-08
-2.07633e-09
2.9767e-08
-2.24197e-09
3.21992e-08
-2.43017e-09
3.48425e-08
-2.64274e-09
3.77278e-08
-2.88247e-09
4.08808e-08
-3.15245e-09
4.43399e-08
-3.45587e-09
4.81398e-08
-3.79876e-09
5.23291e-08
-4.1867e-09
5.69584e-08
-4.62794e-09
6.20932e-08
-5.13246e-09
6.78062e-08
-5.71189e-09
7.41908e-08
-6.38154e-09
8.13492e-08
-7.15704e-09
8.94165e-08
-8.06378e-09
9.85369e-08
-9.11845e-09
1.08917e-07
-1.03765e-08
1.20748e-07
-1.18285e-08
1.34373e-07
-1.36221e-08
1.50011e-07
-1.56356e-08
1.6829e-07
-1.82755e-08
1.89368e-07
-2.10754e-08
2.14485e-07
-2.51121e-08
2.43459e-07
-2.89716e-08
2.78971e-07
-3.55078e-08
3.1934e-07
-4.03677e-08
3.74278e-07
-5.49358e-08
4.10021e-07
-3.57466e-08
-2.8904e-07
6.99057e-07
8.95134e-10
-1.50431e-09
3.25167e-09
-3.44928e-09
6.39412e-09
-4.42637e-09
9.45077e-09
-4.29396e-09
1.21478e-08
-3.83313e-09
1.45106e-08
-3.40335e-09
1.65853e-08
-3.03186e-09
1.84464e-08
-2.76325e-09
2.02038e-08
-2.63808e-09
2.19676e-08
-2.65934e-09
2.38373e-08
-2.80769e-09
2.58821e-08
-3.05258e-09
2.81474e-08
-3.35688e-09
3.0651e-08
-3.68907e-09
3.33941e-08
-4.02575e-09
3.6373e-08
-4.35841e-09
3.95794e-08
-4.68576e-09
4.30185e-08
-5.01612e-09
4.66962e-08
-5.36362e-09
5.06396e-08
-5.7418e-09
5.48758e-08
-6.16592e-09
5.94477e-08
-6.64595e-09
6.43987e-08
-7.19194e-09
6.97821e-08
-7.81134e-09
7.56499e-08
-8.50996e-09
8.2066e-08
-9.29545e-09
8.90922e-08
-1.0178e-08
9.68084e-08
-1.11686e-08
1.05297e-07
-1.22863e-08
1.14664e-07
-1.3551e-08
1.25028e-07
-1.499e-08
1.36535e-07
-1.66373e-08
1.49356e-07
-1.85313e-08
1.63702e-07
-2.07249e-08
1.79817e-07
-2.327e-08
1.98011e-07
-2.62537e-08
2.18634e-07
-2.974e-08
2.42156e-07
-3.38951e-08
2.69085e-07
-3.87546e-08
3.00157e-07
-4.46907e-08
3.36086e-07
-5.15616e-08
3.78132e-07
-6.03179e-08
4.27163e-07
-7.01041e-08
4.85703e-07
-8.36461e-08
5.54083e-07
-9.73491e-08
6.38735e-07
-1.20155e-07
7.35358e-07
-1.3699e-07
8.70117e-07
-1.89693e-07
9.98132e-07
-1.63765e-07
-5.1762e-07
1.22671e-06
6.72531e-10
-2.17536e-09
3.25442e-09
-6.02847e-09
7.33119e-09
-8.50001e-09
1.16988e-08
-8.65916e-09
1.56243e-08
-7.75603e-09
1.89668e-08
-6.74393e-09
2.17682e-08
-5.83152e-09
2.41355e-08
-5.12959e-09
2.6237e-08
-4.73806e-09
2.82591e-08
-4.68134e-09
3.03745e-08
-4.92161e-09
3.27105e-08
-5.38837e-09
3.53501e-08
-5.99544e-09
3.83296e-08
-6.66778e-09
4.16545e-08
-7.35028e-09
4.53166e-08
-8.01894e-09
4.93008e-08
-8.67018e-09
5.36075e-08
-9.32015e-09
5.82428e-08
-9.99888e-09
6.32391e-08
-1.07351e-08
6.86337e-08
-1.15596e-08
7.4483e-08
-1.24928e-08
8.08454e-08
-1.35533e-08
8.77903e-08
-1.47538e-08
9.53859e-08
-1.6105e-08
1.03714e-07
-1.76197e-08
1.12854e-07
-1.93175e-08
1.22909e-07
-2.12197e-08
1.33986e-07
-2.33626e-08
1.46224e-07
-2.57865e-08
1.59779e-07
-2.85433e-08
1.74846e-07
-3.17013e-08
1.91649e-07
-3.53332e-08
2.10474e-07
-3.95457e-08
2.31642e-07
-4.44372e-08
2.55573e-07
-5.01808e-08
2.82743e-07
-5.6907e-08
3.13772e-07
-6.49211e-08
3.49378e-07
-7.43576e-08
3.90511e-07
-8.58197e-08
4.38242e-07
-9.92895e-08
4.94156e-07
-1.16227e-07
5.59656e-07
-1.35602e-07
6.38033e-07
-1.62017e-07
7.29888e-07
-1.89202e-07
8.44642e-07
-2.34904e-07
9.75136e-07
-2.67483e-07
1.15566e-06
-3.70219e-07
1.35552e-06
-3.63628e-07
-7.6777e-07
1.60567e-06
3.78572e-10
-2.55231e-09
2.49762e-09
-8.14468e-09
6.52878e-09
-1.25279e-08
1.15021e-08
-1.36299e-08
1.6372e-08
-1.26232e-08
2.06395e-08
-1.10095e-08
2.41761e-08
-9.36628e-09
2.70375e-08
-7.99004e-09
2.94008e-08
-7.09972e-09
3.14985e-08
-6.7789e-09
3.35679e-08
-6.98945e-09
3.58013e-08
-7.62153e-09
3.83361e-08
-8.5292e-09
4.12474e-08
-9.57825e-09
4.45639e-08
-1.06664e-08
4.82882e-08
-1.17415e-08
5.24077e-08
-1.279e-08
5.69225e-08
-1.38321e-08
6.18375e-08
-1.49138e-08
6.71865e-08
-1.60809e-08
7.30101e-08
-1.73823e-08
7.93707e-08
-1.88509e-08
8.63333e-08
-2.05148e-08
9.39742e-08
-2.23922e-08
1.02368e-07
-2.44986e-08
1.11604e-07
-2.68519e-08
1.21769e-07
-2.94814e-08
1.32973e-07
-3.24207e-08
1.45337e-07
-3.57251e-08
1.59013e-07
-3.94589e-08
1.74174e-07
-4.37029e-08
1.91041e-07
-4.8565e-08
2.09866e-07
-5.41572e-08
2.30973e-07
-6.06491e-08
2.54729e-07
-6.81918e-08
2.8161e-07
-7.7057e-08
3.12161e-07
-8.74561e-08
3.47085e-07
-9.98411e-08
3.87219e-07
-1.14488e-07
4.3362e-07
-1.32217e-07
4.87566e-07
-1.53232e-07
5.50818e-07
-1.79475e-07
6.25059e-07
-2.09841e-07
7.14026e-07
-2.50978e-07
8.18531e-07
-2.93704e-07
9.48947e-07
-3.65315e-07
1.09941e-06
-4.17946e-07
1.29957e-06
-5.70376e-07
1.54379e-06
-6.07856e-07
-1.04544e-06
1.82145e-06
2.26752e-10
-2.77733e-09
1.71765e-09
-9.63263e-09
5.07474e-09
-1.58816e-08
9.88277e-09
-1.84353e-08
1.51804e-08
-1.79181e-08
2.02133e-08
-1.60404e-08
2.45839e-08
-1.3735e-08
2.81688e-08
-1.1574e-08
3.10498e-08
-9.97907e-09
3.34301e-08
-9.15909e-09
3.5565e-08
-9.12273e-09
3.76922e-08
-9.74854e-09
4.00057e-08
-1.08415e-08
4.26351e-08
-1.22067e-08
4.56551e-08
-1.36862e-08
4.91031e-08
-1.51877e-08
5.29898e-08
-1.6677e-08
5.73297e-08
-1.81691e-08
6.2135e-08
-1.97191e-08
6.74432e-08
-2.13858e-08
7.3297e-08
-2.32351e-08
7.97602e-08
-2.53116e-08
8.68994e-08
-2.76529e-08
9.47923e-08
-3.02824e-08
1.03515e-07
-3.32202e-08
1.13155e-07
-3.64885e-08
1.238e-07
-4.01263e-08
1.35563e-07
-4.41797e-08
1.48564e-07
-4.87243e-08
1.62958e-07
-5.38504e-08
1.78927e-07
-5.96697e-08
1.96699e-07
-6.63339e-08
2.1654e-07
-7.39974e-08
2.38793e-07
-8.28977e-08
2.63847e-07
-9.32445e-08
2.92205e-07
-1.05411e-07
3.24455e-07
-1.19704e-07
3.61334e-07
-1.36716e-07
4.0375e-07
-1.56902e-07
4.52809e-07
-1.81273e-07
5.09896e-07
-2.10316e-07
5.76865e-07
-2.46439e-07
6.55544e-07
-2.88518e-07
7.49814e-07
-3.45241e-07
8.60922e-07
-4.0481e-07
9.98597e-07
-5.02985e-07
1.16042e-06
-5.79771e-07
1.36857e-06
-7.78526e-07
1.63394e-06
-8.73232e-07
-1.3414e-06
1.9299e-06
2.1361e-10
-2.98913e-09
1.26301e-09
-1.0679e-08
3.82836e-09
-1.84435e-08
7.98991e-09
-2.25941e-08
1.31389e-08
-2.30644e-08
1.85323e-08
-2.14317e-08
2.36057e-08
-1.88063e-08
2.80313e-08
-1.59986e-08
3.17145e-08
-1.36606e-08
3.47358e-08
-1.21802e-08
3.72871e-08
-1.16724e-08
3.95941e-08
-1.20553e-08
4.18751e-08
-1.31214e-08
4.43051e-08
-1.46359e-08
4.70122e-08
-1.6393e-08
5.00859e-08
-1.82596e-08
5.35827e-08
-2.01741e-08
5.75531e-08
-2.21365e-08
6.20346e-08
-2.42004e-08
6.70805e-08
-2.64285e-08
7.27423e-08
-2.88958e-08
7.90876e-08
-3.16543e-08
8.61845e-08
-3.47486e-08
9.41103e-08
-3.82056e-08
1.02939e-07
-4.20484e-08
1.12757e-07
-4.63029e-08
1.23648e-07
-5.10165e-08
1.3572e-07
-5.62474e-08
1.49088e-07
-6.20909e-08
1.63905e-07
-6.86647e-08
1.8035e-07
-7.61122e-08
1.9865e-07
-8.46315e-08
2.19076e-07
-9.44217e-08
2.41972e-07
-1.0579e-07
2.67743e-07
-1.19013e-07
2.96897e-07
-1.34561e-07
3.30049e-07
-1.52854e-07
3.67947e-07
-1.74609e-07
4.11539e-07
-2.00491e-07
4.61951e-07
-2.31681e-07
5.20625e-07
-2.68987e-07
5.89438e-07
-3.15247e-07
6.70347e-07
-3.69424e-07
7.67084e-07
-4.41972e-07
8.81646e-07
-5.1937e-07
1.02207e-06
-6.43404e-07
1.19103e-06
-7.48734e-07
1.40009e-06
-9.87579e-07
1.67408e-06
-1.14722e-06
-1.64831e-06
1.98099e-06
2.55895e-10
-3.24314e-09
1.12509e-09
-1.1545e-08
3.12994e-09
-2.04447e-08
6.5864e-09
-2.60477e-08
1.1246e-08
-2.77211e-08
1.65643e-08
-2.67479e-08
2.19927e-08
-2.42328e-08
2.71019e-08
-2.11068e-08
3.16401e-08
-1.81971e-08
3.55274e-08
-1.60674e-08
3.88265e-08
-1.49699e-08
4.16812e-08
-1.49097e-08
4.4276e-08
-1.5715e-08
4.67902e-08
-1.71492e-08
4.93827e-08
-1.89851e-08
5.21889e-08
-2.1064e-08
5.53179e-08
-2.33034e-08
5.88715e-08
-2.56871e-08
6.29312e-08
-2.826e-08
6.75843e-08
-3.10782e-08
7.29051e-08
-3.42156e-08
7.8976e-08
-3.77225e-08
8.58727e-08
-4.16442e-08
9.36767e-08
-4.60068e-08
1.02463e-07
-5.08339e-08
1.12316e-07
-5.61527e-08
1.23317e-07
-6.20163e-08
1.35567e-07
-6.84936e-08
1.49175e-07
-7.56973e-08
1.64286e-07
-8.37719e-08
1.81067e-07
-9.28924e-08
1.99742e-07
-1.03303e-07
2.20573e-07
-1.15251e-07
2.43899e-07
-1.29113e-07
2.70125e-07
-1.45237e-07
2.99755e-07
-1.64187e-07
3.33414e-07
-1.86511e-07
3.71846e-07
-2.13038e-07
4.16021e-07
-2.44662e-07
4.6706e-07
-2.82717e-07
5.26435e-07
-3.28359e-07
5.95996e-07
-3.84803e-07
6.77829e-07
-4.51254e-07
7.75335e-07
-5.39471e-07
8.91367e-07
-6.354e-07
1.03203e-06
-7.84065e-07
1.20387e-06
-9.20571e-07
1.41098e-06
-1.19469e-06
1.68646e-06
-1.42271e-06
-1.95815e-06
1.99629e-06
2.95314e-10
-3.53651e-09
1.15655e-09
-1.2403e-08
2.90787e-09
-2.21924e-08
5.87955e-09
-2.90165e-08
1.0034e-08
-3.18727e-08
1.50416e-08
-3.17532e-08
2.04854e-08
-2.96746e-08
2.59633e-08
-2.65836e-08
3.11606e-08
-2.33926e-08
3.58788e-08
-2.07854e-08
4.00463e-08
-1.91358e-08
4.36894e-08
-1.85525e-08
4.69085e-08
-1.8933e-08
4.9837e-08
-2.00767e-08
5.26205e-08
-2.17684e-08
5.54086e-08
-2.38501e-08
5.83433e-08
-2.62384e-08
6.15725e-08
-2.89132e-08
6.52271e-08
-3.19145e-08
6.94407e-08
-3.52884e-08
7.43259e-08
-3.90996e-08
7.99936e-08
-4.33875e-08
8.654e-08
-4.81894e-08
9.406e-08
-5.35241e-08
1.02638e-07
-5.94108e-08
1.12363e-07
-6.5874e-08
1.23316e-07
-7.2969e-08
1.35598e-07
-8.07714e-08
1.4931e-07
-8.94077e-08
1.64587e-07
-9.90459e-08
1.81587e-07
-1.0989e-07
2.00516e-07
-1.22229e-07
2.21625e-07
-1.36359e-07
2.45237e-07
-1.5272e-07
2.71745e-07
-1.71743e-07
3.01637e-07
-1.94075e-07
3.35532e-07
-2.20403e-07
3.74155e-07
-2.51657e-07
4.1847e-07
-2.88975e-07
4.69584e-07
-3.33826e-07
5.28961e-07
-3.87734e-07
5.98394e-07
-4.54231e-07
6.80053e-07
-5.32911e-07
7.76979e-07
-6.36391e-07
8.9268e-07
-7.51098e-07
1.03164e-06
-9.23023e-07
1.20286e-06
-1.09179e-06
1.40644e-06
-1.39827e-06
1.67523e-06
-1.6915e-06
-2.26362e-06
1.9807e-06
3.16011e-10
-3.85052e-09
1.22957e-09
-1.33133e-08
2.9449e-09
-2.39039e-08
5.71484e-09
-3.17835e-08
9.54782e-09
-3.57027e-08
1.42495e-08
-3.64526e-08
1.95411e-08
-3.49641e-08
2.51154e-08
-3.21568e-08
3.06856e-08
-2.8961e-08
3.60133e-08
-2.61129e-08
4.09416e-08
-2.40624e-08
4.5394e-08
-2.30046e-08
4.93755e-08
-2.29133e-08
5.29437e-08
-2.3644e-08
5.6193e-08
-2.50174e-08
5.92462e-08
-2.69014e-08
6.22426e-08
-2.92352e-08
6.53488e-08
-3.20162e-08
6.87297e-08
-3.52953e-08
7.25614e-08
-3.91167e-08
7.69994e-08
-4.35364e-08
8.21929e-08
-4.85783e-08
8.82695e-08
-5.42647e-08
9.53492e-08
-6.0601e-08
1.03535e-07
-6.75962e-08
1.12933e-07
-7.52677e-08
1.23633e-07
-8.36678e-08
1.35739e-07
-9.2874e-08
1.49354e-07
-1.03021e-07
1.64606e-07
-1.14294e-07
1.8164e-07
-1.26923e-07
2.00648e-07
-1.41234e-07
2.21862e-07
-1.57571e-07
2.4558e-07
-1.76434e-07
2.72175e-07
-1.98336e-07
3.02105e-07
-2.23999e-07
3.35962e-07
-2.54258e-07
3.7444e-07
-2.90131e-07
4.1847e-07
-3.33001e-07
4.69119e-07
-3.84471e-07
5.27807e-07
-4.46418e-07
5.96251e-07
-5.2267e-07
6.7661e-07
-6.13267e-07
7.71618e-07
-7.31394e-07
8.851e-07
-8.64578e-07
1.02039e-06
-1.05831e-06
1.18758e-06
-1.25897e-06
1.38464e-06
-1.59533e-06
1.64105e-06
-1.94792e-06
-2.55645e-06
1.93387e-06
3.24121e-10
-4.17258e-09
1.29303e-09
-1.42788e-08
3.06583e-09
-2.56729e-08
5.82963e-09
-3.45442e-08
9.56025e-09
-3.94303e-08
1.40986e-08
-4.09886e-08
1.92496e-08
-4.0113e-08
2.47984e-08
-3.77045e-08
3.05238e-08
-3.46845e-08
3.62093e-08
-3.17982e-08
4.16746e-08
-2.9526e-08
4.67867e-08
-2.81164e-08
5.14797e-08
-2.76052e-08
5.57397e-08
-2.7903e-08
5.95966e-08
-2.8874e-08
6.31209e-08
-3.04237e-08
6.64164e-08
-3.25309e-08
6.96342e-08
-3.52309e-08
7.29446e-08
-3.86055e-08
7.65456e-08
-4.27143e-08
8.06248e-08
-4.76144e-08
8.5367e-08
-5.33179e-08
9.09342e-08
-5.98307e-08
9.74776e-08
-6.71415e-08
1.05128e-07
-7.52455e-08
1.14013e-07
-8.41492e-08
1.24244e-07
-9.3898e-08
1.3594e-07
-1.04566e-07
1.49211e-07
-1.1629e-07
1.64185e-07
-1.29266e-07
1.81005e-07
-1.43741e-07
1.99845e-07
-1.60071e-07
2.2092e-07
-1.78645e-07
2.445e-07
-2.00011e-07
2.70929e-07
-2.24764e-07
3.00625e-07
-2.53691e-07
3.3414e-07
-2.8777e-07
3.72117e-07
-3.28104e-07
4.15422e-07
-3.76303e-07
4.6507e-07
-4.34115e-07
5.22376e-07
-5.03721e-07
5.88975e-07
-5.89264e-07
6.66907e-07
-6.91197e-07
7.58637e-07
-8.23117e-07
8.68019e-07
-9.73959e-07
9.97532e-07
-1.18782e-06
1.15733e-06
-1.41877e-06
1.3445e-06
-1.78249e-06
1.58348e-06
-2.1869e-06
-2.82858e-06
1.8556e-06
3.2863e-10
-4.4991e-09
1.34196e-09
-1.52887e-08
3.194e-09
-2.7521e-08
6.04137e-09
-3.73885e-08
9.81784e-09
-4.32036e-08
1.43483e-08
-4.55166e-08
1.94615e-08
-4.5224e-08
2.49931e-08
-4.3235e-08
3.07814e-08
-4.0471e-08
3.6654e-08
-3.76706e-08
4.24458e-08
-3.53161e-08
4.80122e-08
-3.36826e-08
5.32551e-08
-3.28468e-08
5.81153e-08
-3.27623e-08
6.25712e-08
-3.33296e-08
6.66393e-08
-3.44899e-08
7.03737e-08
-3.62656e-08
7.38867e-08
-3.87408e-08
7.73265e-08
-4.20451e-08
8.0887e-08
-4.62715e-08
8.47672e-08
-5.14932e-08
8.91731e-08
-5.77211e-08
9.4293e-08
-6.49493e-08
1.00305e-07
-7.31512e-08
1.07369e-07
-8.2308e-08
1.15638e-07
-9.24143e-08
1.25248e-07
-1.03507e-07
1.3634e-07
-1.15654e-07
1.49041e-07
-1.28989e-07
1.63489e-07
-1.43711e-07
1.79827e-07
-1.60078e-07
1.98225e-07
-1.78466e-07
2.18881e-07
-1.99299e-07
2.42039e-07
-2.23165e-07
2.68011e-07
-2.50734e-07
2.97173e-07
-2.82848e-07
3.30019e-07
-3.20613e-07
3.67137e-07
-3.65219e-07
4.09298e-07
-4.1846e-07
4.57447e-07
-4.82261e-07
5.12749e-07
-5.59019e-07
5.7673e-07
-6.5324e-07
6.51234e-07
-7.65698e-07
7.38437e-07
-9.10314e-07
8.42043e-07
-1.07756e-06
9.63779e-07
-1.30955e-06
1.11325e-06
-1.56824e-06
1.28703e-06
-1.95627e-06
1.5048e-06
-2.40468e-06
-3.07289e-06
1.7491e-06
3.33658e-10
-4.83059e-09
1.3852e-09
-1.63367e-08
3.31288e-09
-2.94447e-08
6.26902e-09
-4.03414e-08
1.01604e-08
-4.70919e-08
1.47837e-08
-5.01375e-08
1.99612e-08
-5.03992e-08
2.55441e-08
-4.88168e-08
3.14005e-08
-4.63255e-08
3.73919e-08
-4.36618e-08
4.33805e-08
-4.1303e-08
4.9234e-08
-3.95358e-08
5.4852e-08
-3.84636e-08
6.01599e-08
-3.80692e-08
6.51082e-08
-3.82775e-08
6.96755e-08
-3.90553e-08
7.38715e-08
-4.04619e-08
7.77649e-08
-4.2631e-08
8.14678e-08
-4.57477e-08
8.51511e-08
-4.99513e-08
8.90045e-08
-5.53454e-08
9.32374e-08
-6.19512e-08
9.80491e-08
-6.97596e-08
1.03635e-07
-7.87339e-08
1.10171e-07
-8.88441e-08
1.17836e-07
-1.00075e-07
1.26788e-07
-1.12457e-07
1.37189e-07
-1.26051e-07
1.49188e-07
-1.40986e-07
1.62939e-07
-1.57458e-07
1.78594e-07
-1.75731e-07
1.96321e-07
-1.9619e-07
2.16311e-07
-2.19287e-07
2.38788e-07
-2.45638e-07
2.64032e-07
-2.75976e-07
2.9238e-07
-3.11192e-07
3.24263e-07
-3.52494e-07
3.6021e-07
-4.01162e-07
4.0088e-07
-4.59126e-07
4.47134e-07
-5.28511e-07
4.99958e-07
-6.1184e-07
5.60733e-07
-7.14011e-07
6.31066e-07
-8.36028e-07
7.12801e-07
-9.92043e-07
8.09367e-07
-1.17413e-06
9.21736e-07
-1.42191e-06
1.05876e-06
-1.70527e-06
1.21632e-06
-2.11383e-06
1.41062e-06
-2.59899e-06
-3.28362e-06
1.62133e-06
3.39738e-10
-5.1681e-09
1.42913e-09
-1.74224e-08
3.42809e-09
-3.14396e-08
6.49457e-09
-4.34047e-08
1.05223e-08
-5.11164e-08
1.52849e-08
-5.48977e-08
2.05909e-08
-5.57029e-08
2.62889e-08
-5.45136e-08
3.22546e-08
-5.22893e-08
3.83653e-08
-4.97722e-08
4.4502e-08
-4.7438e-08
5.05492e-08
-4.55826e-08
5.64169e-08
-4.43302e-08
6.20335e-08
-4.36847e-08
6.73423e-08
-4.3586e-08
7.23044e-08
-4.40155e-08
7.69016e-08
-4.50593e-08
8.11678e-08
-4.68941e-08
8.51807e-08
-4.97603e-08
8.90817e-08
-5.38491e-08
9.30407e-08
-5.93031e-08
9.72558e-08
-6.61636e-08
1.01924e-07
-7.4426e-08
1.07242e-07
-8.40494e-08
1.13396e-07
-9.49974e-08
1.20574e-07
-1.0725e-07
1.2895e-07
-1.20832e-07
1.38704e-07
-1.35801e-07
1.50002e-07
-1.52283e-07
1.63015e-07
-1.70468e-07
1.77908e-07
-1.90622e-07
1.94853e-07
-2.13132e-07
2.14037e-07
-2.3847e-07
2.35671e-07
-2.67269e-07
2.6001e-07
-3.00313e-07
2.87355e-07
-3.38533e-07
3.18079e-07
-3.83215e-07
3.52652e-07
-4.35731e-07
3.91619e-07
-4.9809e-07
4.35746e-07
-5.72634e-07
4.85838e-07
-6.61929e-07
5.43094e-07
-7.71263e-07
6.08877e-07
-9.01808e-07
6.84655e-07
-1.06782e-06
7.73484e-07
-1.26295e-06
8.75718e-07
-1.52415e-06
9.9904e-07
-1.82859e-06
1.13854e-06
-2.25333e-06
1.30598e-06
-2.76644e-06
-3.46394e-06
1.48629e-06
3.46408e-10
-5.51223e-09
1.47571e-09
-1.8548e-08
3.54563e-09
-3.35053e-08
6.72143e-09
-4.65771e-08
1.08896e-08
-5.52813e-08
1.58072e-08
-5.98128e-08
2.12711e-08
-6.11644e-08
2.7123e-08
-6.03643e-08
3.32359e-08
-5.84003e-08
3.94898e-08
-5.60259e-08
4.57733e-08
-5.37198e-08
5.19809e-08
-5.17899e-08
5.80335e-08
-5.03816e-08
6.38681e-08
-4.95183e-08
6.94323e-08
-4.91499e-08
7.46832e-08
-4.92645e-08
7.95904e-08
-4.99667e-08
8.41684e-08
-5.14691e-08
8.84708e-08
-5.40624e-08
9.26148e-08
-5.79897e-08
9.67491e-08
-6.3436e-08
1.01056e-07
-7.04676e-08
1.0572e-07
-7.9089e-08
1.10934e-07
-8.92603e-08
1.16879e-07
-1.00942e-07
1.23746e-07
-1.14112e-07
1.31711e-07
-1.28796e-07
1.40966e-07
-1.45052e-07
1.51687e-07
-1.63002e-07
1.64058e-07
-1.82836e-07
1.78252e-07
-2.04815e-07
1.9445e-07
-2.29326e-07
2.12835e-07
-2.56854e-07
2.33613e-07
-2.88042e-07
2.57014e-07
-3.23713e-07
2.83316e-07
-3.6483e-07
3.12836e-07
-4.12733e-07
3.45993e-07
-4.68884e-07
3.8323e-07
-5.35324e-07
4.2521e-07
-6.1461e-07
4.72577e-07
-7.09293e-07
5.26325e-07
-8.25006e-07
5.87587e-07
-9.63067e-07
6.57434e-07
-1.13766e-06
7.38518e-07
-1.34404e-06
8.30634e-07
-1.61626e-06
9.39973e-07
-1.93793e-06
1.06161e-06
-2.37497e-06
1.20314e-06
-2.90797e-06
-3.61311e-06
1.35229e-06
3.53381e-10
-5.86327e-09
1.52326e-09
-1.9714e-08
3.66783e-09
-3.56456e-08
6.95437e-09
-4.98603e-08
1.12649e-08
-5.95885e-08
1.63427e-08
-6.4888e-08
2.19753e-08
-6.67946e-08
2.79991e-08
-6.63868e-08
3.4282e-08
-6.46813e-08
4.07008e-08
-6.24445e-08
4.71446e-08
-6.01619e-08
5.35114e-08
-5.81563e-08
5.97279e-08
-5.6597e-08
6.5738e-08
-5.55274e-08
7.14947e-08
-5.49062e-08
7.69579e-08
-5.47258e-08
8.20952e-08
-5.51041e-08
8.69133e-08
-5.62842e-08
9.14541e-08
-5.86027e-08
9.58203e-08
-6.23526e-08
1.00146e-07
-6.77599e-08
1.04598e-07
-7.49176e-08
1.09353e-07
-8.38418e-08
1.14589e-07
-9.44938e-08
1.20482e-07
-1.06834e-07
1.27215e-07
-1.20841e-07
1.34963e-07
-1.36544e-07
1.43917e-07
-1.54002e-07
1.54259e-07
-1.73342e-07
1.66175e-07
-1.9475e-07
1.79848e-07
-2.18486e-07
1.95459e-07
-2.44934e-07
2.13192e-07
-2.74585e-07
2.33244e-07
-3.08091e-07
2.55832e-07
-3.46298e-07
2.81208e-07
-3.90203e-07
3.0965e-07
-4.41173e-07
3.41528e-07
-5.00757e-07
3.77203e-07
-5.70996e-07
4.17238e-07
-6.54642e-07
4.62143e-07
-7.54195e-07
5.12705e-07
-8.75563e-07
5.69856e-07
-1.02022e-06
6.34287e-07
-1.20208e-06
7.08229e-07
-1.41798e-06
7.90988e-07
-1.69901e-06
8.87326e-07
-2.03427e-06
9.92657e-07
-2.48031e-06
1.10999e-06
-3.02532e-06
-3.73333e-06
1.2302e-06
3.60627e-10
-6.22151e-09
1.57207e-09
-2.09215e-08
3.79506e-09
-3.78643e-08
7.1954e-09
-5.32571e-08
1.16515e-08
-6.40412e-08
1.68934e-08
-7.01273e-08
2.26999e-08
-7.25987e-08
2.89036e-08
-7.25892e-08
3.53677e-08
-7.11435e-08
4.19649e-08
-6.90413e-08
4.85815e-08
-6.67768e-08
5.51157e-08
-6.46901e-08
6.14958e-08
-6.2976e-08
6.76686e-08
-6.16992e-08
7.35906e-08
-6.08278e-08
7.92244e-08
-6.03577e-08
8.45393e-08
-6.04191e-08
8.95415e-08
-6.12834e-08
9.42699e-08
-6.33307e-08
9.88219e-08
-6.69014e-08
1.03325e-07
-7.22611e-08
1.07938e-07
-7.95284e-08
1.12828e-07
-8.87299e-08
1.18166e-07
-9.98289e-08
1.24118e-07
-1.12786e-07
1.30861e-07
-1.2758e-07
1.38563e-07
-1.44244e-07
1.47411e-07
-1.62846e-07
1.57584e-07
-1.83513e-07
1.6927e-07
-2.06433e-07
1.82651e-07
-2.31865e-07
1.97907e-07
-2.60187e-07
2.1522e-07
-2.91897e-07
2.34781e-07
-3.27648e-07
2.56791e-07
-3.68305e-07
2.81486e-07
-4.14894e-07
3.09111e-07
-4.68795e-07
3.39993e-07
-5.31636e-07
3.74432e-07
-6.05432e-07
4.129e-07
-6.93105e-07
4.55806e-07
-7.97098e-07
5.0374e-07
-9.23493e-07
5.57471e-07
-1.07394e-06
6.17351e-07
-1.26196e-06
6.85202e-07
-1.48583e-06
7.59961e-07
-1.77377e-06
8.45067e-07
-2.11938e-06
9.3586e-07
-2.5711e-06
1.0326e-06
-3.12207e-06
-3.82771e-06
1.12697e-06
3.682e-10
-6.58726e-09
1.62246e-09
-2.21718e-08
3.92729e-09
-4.01646e-08
7.44496e-09
-5.67712e-08
1.20507e-08
-6.86434e-08
1.74615e-08
-7.55354e-08
2.34466e-08
-7.85813e-08
2.98353e-08
-7.89766e-08
3.6487e-08
-7.77932e-08
4.32699e-08
-7.5824e-08
5.00678e-08
-7.3573e-08
5.67774e-08
-7.13993e-08
6.33267e-08
-6.95242e-08
6.96627e-08
-6.80342e-08
7.57426e-08
-6.69073e-08
8.153e-08
-6.61434e-08
8.69961e-08
-6.58853e-08
9.2149e-08
-6.64333e-08
9.70295e-08
-6.82107e-08
1.01735e-07
-7.1604e-08
1.06393e-07
-7.69174e-08
1.11161e-07
-8.42934e-08
1.162e-07
-9.37679e-08
1.21679e-07
-1.05305e-07
1.27758e-07
-1.18864e-07
1.34606e-07
-1.34424e-07
1.42388e-07
-1.52025e-07
1.51283e-07
-1.71738e-07
1.61468e-07
-1.93696e-07
1.73127e-07
-2.18088e-07
1.86438e-07
-2.45174e-07
2.01579e-07
-2.75325e-07
2.18727e-07
-3.09042e-07
2.38065e-07
-3.46983e-07
2.59782e-07
-3.9002e-07
2.84099e-07
-4.39208e-07
3.11234e-07
-4.95927e-07
3.41482e-07
-5.6188e-07
3.75094e-07
-6.39041e-07
4.12468e-07
-7.30476e-07
4.53938e-07
-8.38565e-07
4.99915e-07
-9.69465e-07
5.51046e-07
-1.12507e-06
6.07405e-07
-1.31831e-06
6.70431e-07
-1.54885e-06
7.38801e-07
-1.84214e-06
8.14756e-07
-2.19534e-06
8.9367e-07
-2.65002e-06
9.74222e-07
-3.20263e-06
-3.90056e-06
1.04706e-06
3.76158e-10
-6.96091e-09
1.67447e-09
-2.3466e-08
4.06453e-09
-4.25502e-08
7.70315e-09
-6.04061e-08
1.24628e-08
-7.33995e-08
1.80479e-08
-8.11178e-08
2.42168e-08
-8.47477e-08
3.07954e-08
-8.55538e-08
3.76396e-08
-8.46354e-08
4.46137e-08
-8.27977e-08
5.15985e-08
-8.05562e-08
5.84895e-08
-7.82899e-08
6.52137e-08
-7.62473e-08
7.1717e-08
-7.45365e-08
7.79554e-08
-7.31454e-08
8.38924e-08
-7.20785e-08
8.94998e-08
-7.14928e-08
9.47879e-08
-7.17186e-08
9.9801e-08
-7.32232e-08
1.0464e-07
-7.64402e-08
1.09436e-07
-8.17112e-08
1.14347e-07
-8.92017e-08
1.19536e-07
-9.89555e-08
1.2517e-07
-1.10936e-07
1.31408e-07
-1.251e-07
1.38415e-07
-1.41428e-07
1.46354e-07
-1.59962e-07
1.55399e-07
-1.8078e-07
1.65725e-07
-2.0402e-07
1.7751e-07
-2.29871e-07
1.9093e-07
-2.58591e-07
2.06157e-07
-2.9055e-07
2.23362e-07
-3.26246e-07
2.42722e-07
-3.6634e-07
2.64413e-07
-4.1171e-07
2.88644e-07
-4.63436e-07
3.15613e-07
-5.22893e-07
3.45582e-07
-5.91845e-07
3.7878e-07
-6.72236e-07
4.1551e-07
-7.67203e-07
4.56075e-07
-8.79127e-07
5.00769e-07
-1.01416e-06
5.50107e-07
-1.17441e-06
6.0395e-07
-1.37215e-06
6.63387e-07
-1.60829e-06
7.26932e-07
-1.90568e-06
7.95811e-07
-2.26422e-06
8.65473e-07
-2.71969e-06
9.33316e-07
-3.27048e-06
-3.95716e-06
9.89902e-07
3.84551e-10
-7.34289e-09
1.72812e-09
-2.48053e-08
4.20684e-09
-4.50243e-08
7.97008e-09
-6.41656e-08
1.28878e-08
-7.83136e-08
1.86527e-08
-8.68798e-08
2.5011e-08
-9.11034e-08
3.17847e-08
-9.23261e-08
3.88265e-08
-9.16753e-08
4.59967e-08
-8.99675e-08
5.31731e-08
-8.77311e-08
6.02503e-08
-8.53666e-08
6.71539e-08
-8.31499e-08
7.38286e-08
-8.12103e-08
8.02287e-08
-7.95451e-08
8.63159e-08
-7.81641e-08
9.20625e-08
-7.72393e-08
9.74803e-08
-7.71337e-08
1.02618e-07
-7.83601e-08
1.07581e-07
-8.14e-08
1.12503e-07
-8.66323e-08
1.17549e-07
-9.42451e-08
1.22884e-07
-1.04289e-07
1.28677e-07
-1.16726e-07
1.35086e-07
-1.31509e-07
1.42279e-07
-1.48618e-07
1.50415e-07
-1.68097e-07
1.5967e-07
-1.90031e-07
1.70215e-07
-2.14563e-07
1.82227e-07
-2.41879e-07
1.95876e-07
-2.72238e-07
2.11331e-07
-3.06003e-07
2.28758e-07
-3.4367e-07
2.48325e-07
-3.85904e-07
2.702e-07
-4.33583e-07
2.9458e-07
-4.87812e-07
3.21646e-07
-5.49957e-07
3.51635e-07
-6.21832e-07
3.84749e-07
-7.05347e-07
4.21253e-07
-8.03704e-07
4.61397e-07
-9.19269e-07
5.05341e-07
-1.0581e-06
5.53531e-07
-1.2226e-06
6.05679e-07
-1.42429e-06
6.62554e-07
-1.66516e-06
7.22578e-07
-1.96571e-06
7.86142e-07
-2.32779e-06
8.48792e-07
-2.78235e-06
9.07114e-07
-3.32881e-06
-4.00194e-06
9.51878e-07
3.93431e-10
-7.73369e-09
1.78349e-09
-2.61911e-08
4.35431e-09
-4.75904e-08
8.24592e-09
-6.80534e-08
1.33258e-08
-8.33898e-08
1.92761e-08
-9.28272e-08
2.58295e-08
-9.76542e-08
3.28037e-08
-9.92989e-08
4.00483e-08
-9.8918e-08
4.74195e-08
-9.73383e-08
5.47923e-08
-9.51024e-08
6.20599e-08
-9.26337e-08
6.91471e-08
-9.02361e-08
7.5997e-08
-8.80593e-08
8.25618e-08
-8.61095e-08
8.88013e-08
-8.4402e-08
9.46876e-08
-8.31255e-08
1.00234e-07
-8.26776e-08
1.05493e-07
-8.36186e-08
1.10576e-07
-8.64793e-08
1.15621e-07
-9.16763e-08
1.20798e-07
-9.94193e-08
1.26276e-07
-1.09765e-07
1.32226e-07
-1.22673e-07
1.38811e-07
-1.38093e-07
1.46199e-07
-1.56002e-07
1.54553e-07
-1.76449e-07
1.64047e-07
-1.99523e-07
1.74854e-07
-2.25367e-07
1.87147e-07
-2.5417e-07
2.01097e-07
-2.86186e-07
2.16868e-07
-3.21771e-07
2.34618e-07
-3.61419e-07
2.54514e-07
-4.05796e-07
2.76713e-07
-4.5578e-07
3.01399e-07
-5.12495e-07
3.28745e-07
-5.773e-07
3.58961e-07
-6.52044e-07
3.92234e-07
-7.38616e-07
4.2877e-07
-8.40237e-07
4.68799e-07
-9.59295e-07
5.12395e-07
-1.10169e-06
5.59911e-07
-1.27011e-06
6.10952e-07
-1.47533e-06
6.65998e-07
-1.72021e-06
7.23431e-07
-2.02314e-06
7.82967e-07
-2.38733e-06
8.40266e-07
-2.83965e-06
8.91398e-07
-3.37996e-06
-4.03798e-06
9.27424e-07
4.02849e-10
-8.13384e-09
1.84059e-09
-2.76244e-08
4.50698e-09
-5.0252e-08
8.53081e-09
-7.20733e-08
1.37769e-08
-8.86321e-08
1.99181e-08
-9.89655e-08
2.66724e-08
-1.04406e-07
3.38526e-08
-1.06478e-07
4.13053e-08
-1.06369e-07
4.88826e-08
-1.04915e-07
5.64565e-08
-1.02675e-07
6.39189e-08
-1.00096e-07
7.11937e-08
-9.75099e-08
7.82223e-08
-9.5087e-08
8.49547e-08
-9.28415e-08
9.13486e-08
-9.07944e-08
9.73758e-08
-8.91526e-08
1.03051e-07
-8.83506e-08
1.08432e-07
-8.89983e-08
1.13632e-07
-9.16771e-08
1.18799e-07
-9.68415e-08
1.24105e-07
-1.04723e-07
1.29724e-07
-1.15383e-07
1.35832e-07
-1.28778e-07
1.42594e-07
-1.44854e-07
1.50182e-07
-1.63587e-07
1.58761e-07
-1.85027e-07
1.68508e-07
-2.09266e-07
1.79595e-07
-2.36453e-07
1.92199e-07
-2.66771e-07
2.06485e-07
-3.0047e-07
2.22616e-07
-3.379e-07
2.40747e-07
-3.79549e-07
2.61036e-07
-4.26082e-07
2.83637e-07
-4.78378e-07
3.08722e-07
-5.37577e-07
3.36452e-07
-6.05028e-07
3.67017e-07
-6.82606e-07
4.00586e-07
-7.72184e-07
4.37323e-07
-8.7697e-07
4.77426e-07
-9.99396e-07
5.20898e-07
-1.14516e-06
5.68006e-07
-1.31722e-06
6.18279e-07
-1.5256e-06
6.71934e-07
-1.77386e-06
7.27326e-07
-2.07853e-06
7.8364e-07
-2.44365e-06
8.36646e-07
-2.89266e-06
8.82105e-07
-3.42543e-06
-4.06735e-06
9.11465e-07
4.12858e-10
-8.54395e-09
1.89946e-09
-2.91065e-08
4.66488e-09
-5.30125e-08
8.82484e-09
-7.62293e-08
1.42412e-08
-9.40446e-08
2.05788e-08
-1.053e-07
2.75399e-08
-1.11364e-07
3.49317e-08
-1.13868e-07
4.25978e-08
-1.14033e-07
5.03864e-08
-1.12703e-07
5.81662e-08
-1.10453e-07
6.58278e-08
-1.07757e-07
7.32941e-08
-1.04975e-07
8.05048e-08
-1.02297e-07
8.74075e-08
-9.97438e-08
9.39579e-08
-9.73433e-08
1.00127e-07
-9.53219e-08
1.05932e-07
-9.41533e-08
1.11434e-07
-9.44992e-08
1.16753e-07
-9.69931e-08
1.2204e-07
-1.02127e-07
1.27475e-07
-1.10154e-07
1.33235e-07
-1.21141e-07
1.395e-07
-1.35041e-07
1.46439e-07
-1.51792e-07
1.54228e-07
-1.71372e-07
1.63035e-07
-1.93832e-07
1.7304e-07
-2.19268e-07
1.84418e-07
-2.47828e-07
1.97343e-07
-2.79693e-07
2.11981e-07
-3.15107e-07
2.28492e-07
-3.54409e-07
2.47028e-07
-3.98083e-07
2.67741e-07
-4.46793e-07
2.90778e-07
-5.01414e-07
3.16303e-07
-5.63098e-07
3.44465e-07
-6.33188e-07
3.75432e-07
-7.13569e-07
4.09359e-07
-8.06109e-07
4.46367e-07
-9.13975e-07
4.86622e-07
-1.03965e-06
5.30068e-07
-1.1886e-06
5.7688e-07
-1.36403e-06
6.26529e-07
-1.57525e-06
6.78988e-07
-1.82632e-06
7.32592e-07
-2.13213e-06
7.86108e-07
-2.49717e-06
8.35398e-07
-2.94196e-06
8.76059e-07
-3.4661e-06
-4.09128e-06
8.99975e-07
4.2351e-10
-8.96463e-09
1.96015e-09
-3.06385e-08
4.828e-09
-5.58754e-08
9.12812e-09
-8.05253e-08
1.47192e-08
-9.96319e-08
2.12581e-08
-1.11836e-07
2.84321e-08
-1.18536e-07
3.60411e-08
-1.21475e-07
4.39259e-08
-1.21916e-07
5.1931e-08
-1.20708e-07
5.99216e-08
-1.18442e-07
6.7787e-08
-1.15622e-07
7.54487e-08
-1.12636e-07
8.28449e-08
-1.09692e-07
8.99207e-08
-1.06819e-07
9.66295e-08
-1.04051e-07
1.02942e-07
-1.01635e-07
1.08878e-07
-1.00086e-07
1.14501e-07
-1.00122e-07
1.19937e-07
-1.02427e-07
1.25345e-07
-1.07534e-07
1.30908e-07
-1.15715e-07
1.36809e-07
-1.2704e-07
1.43231e-07
-1.4146e-07
1.50348e-07
-1.58908e-07
1.58338e-07
-1.7936e-07
1.67375e-07
-2.02867e-07
1.7764e-07
-2.2953e-07
1.8931e-07
-2.59496e-07
2.0256e-07
-2.92941e-07
2.17556e-07
-3.301e-07
2.34454e-07
-3.71305e-07
2.53401e-07
-4.17028e-07
2.74546e-07
-4.67936e-07
2.98029e-07
-5.24895e-07
3.24002e-07
-5.89068e-07
3.52606e-07
-6.6179e-07
3.83985e-07
-7.44945e-07
4.18278e-07
-8.40399e-07
4.55565e-07
-9.51259e-07
4.95976e-07
-1.08006e-06
5.39402e-07
-1.23202e-06
5.85921e-07
-1.41055e-06
6.34952e-07
-1.62428e-06
6.86247e-07
-1.87762e-06
7.38111e-07
-2.184e-06
7.88984e-07
-2.54805e-06
8.34801e-07
-2.98778e-06
8.71094e-07
-3.5024e-06
-4.11039e-06
8.90187e-07
4.34857e-10
-9.39661e-09
2.02269e-09
-3.22215e-08
4.9963e-09
-5.88439e-08
9.44068e-09
-8.49654e-08
1.52107e-08
-1.05398e-07
2.1956e-08
-1.18578e-07
2.9349e-08
-1.25926e-07
3.71808e-08
-1.29306e-07
4.52899e-08
-1.30023e-07
5.35167e-08
-1.28934e-07
6.17231e-08
-1.26647e-07
6.97966e-08
-1.23695e-07
7.76578e-08
-1.20496e-07
8.52429e-08
-1.17277e-07
9.24945e-08
-1.1407e-07
9.93637e-08
-1.10919e-07
1.05821e-07
-1.08092e-07
1.11887e-07
-1.0615e-07
1.17632e-07
-1.05865e-07
1.23186e-07
-1.07979e-07
1.28714e-07
-1.1306e-07
1.34405e-07
-1.21403e-07
1.40446e-07
-1.3308e-07
1.47024e-07
-1.48036e-07
1.54319e-07
-1.66201e-07
1.62511e-07
-1.87548e-07
1.71777e-07
-2.12132e-07
1.82303e-07
-2.40053e-07
1.94265e-07
-2.71457e-07
2.07841e-07
-3.06515e-07
2.23194e-07
-3.45451e-07
2.40477e-07
-3.88586e-07
2.59834e-07