/*--------------------------------*- C++ -*----------------------------------*\
  =========                 |
  \\      /  F ield         | OpenFOAM: The Open Source CFD Toolbox
   \\    /   O peration     | Website:  https://openfoam.org
    \\  /    A nd           | Version:  7
     \\/     M anipulation  |
\*---------------------------------------------------------------------------*/
FoamFile
{
    version     2.0;
    format      ascii;
    class       volScalarField;
    location    "0.1";
    object      nut;
}
// * * * * * * * * * * * * * * * * * * * * * * * * * * * * * * * * * * * * * //

dimensions      [0 2 -1 0 0 0 0];

internalField   nonuniform List<scalar> 
70000
(
9.96276e-12
6.88121e-14
2.56198e-16
8.60145e-17
4.80609e-17
7.89988e-17
2.78046e-17
1.30256e-17
8.84419e-18
6.46465e-18
4.7451e-18
3.54472e-18
2.71043e-18
2.11646e-18
1.68227e-18
1.3577e-18
1.11047e-18
9.18955e-19
7.68459e-19
6.48606e-19
5.52025e-19
4.73378e-19
4.0866e-19
3.54985e-19
3.09978e-19
2.72108e-19
2.3967e-19
2.12177e-19
1.87856e-19
1.67432e-19
1.48253e-19
1.329e-19
1.16703e-19
1.05169e-19
9.04811e-20
8.1485e-20
6.8288e-20
5.86217e-20
5.12211e-20
3.20281e-20
4.61032e-20
4.14874e-21
9.38727e-20
1.85977e-20
8.04579e-19
3.18775e-18
1.71869e-17
8.82717e-17
7.48875e-15
3.89829e-14
1.04277e-10
5.98707e-12
6.44317e-14
2.14321e-14
2.88938e-16
1.69672e-17
2.52468e-17
2.12109e-17
1.23334e-17
7.34685e-18
4.82028e-18
3.36455e-18
2.43935e-18
1.8201e-18
1.39131e-18
1.08595e-18
8.62988e-19
6.96629e-19
5.70029e-19
4.7204e-19
3.95056e-19
3.33727e-19
2.84336e-19
2.44048e-19
2.10984e-19
1.83394e-19
1.60518e-19
1.40838e-19
1.24652e-19
1.09924e-19
9.8423e-20
8.66421e-20
7.87225e-20
6.84909e-20
6.33761e-20
5.42216e-20
5.01935e-20
4.45724e-20
3.54711e-20
4.5889e-20
1.48176e-20
9.82681e-20
8.77667e-21
7.04103e-19
1.32085e-18
1.21476e-17
6.82027e-17
2.38549e-16
3.59022e-14
3.68247e-14
3.19185e-10
3.39729e-12
1.90791e-13
1.98919e-14
7.65542e-16
5.82988e-17
7.31299e-18
4.20309e-18
2.14464e-18
1.06807e-18
5.93941e-19
3.64585e-19
2.37733e-19
1.61393e-19
1.13157e-19
8.15919e-20
6.03029e-20
4.55544e-20
3.50717e-20
2.74545e-20
2.18092e-20
1.75476e-20
1.42889e-20
1.17541e-20
9.77724e-21
8.19625e-21
6.96512e-21
5.93647e-21
5.17851e-21
4.47681e-21
4.06188e-21
3.55397e-21
3.44768e-21
3.08115e-21
3.32075e-21
3.23312e-21
3.88183e-21
5.01747e-21
5.99138e-21
1.37875e-20
1.61952e-20
7.36491e-20
1.54745e-19
8.87053e-19
3.90386e-18
1.83083e-17
1.11004e-16
3.31684e-16
5.27515e-14
1.54055e-13
6.15391e-09
1.92732e-11
7.83515e-13
6.10054e-14
5.47363e-15
9.26242e-16
1.10324e-16
2.9524e-17
1.2385e-17
5.51643e-18
2.58972e-18
1.3358e-18
7.50532e-19
4.48488e-19
2.80572e-19
1.82253e-19
1.22303e-19
8.4446e-20
5.97761e-20
4.32419e-20
3.18832e-20
2.39125e-20
1.82211e-20
1.41001e-20
1.10882e-20
8.87475e-21
7.24792e-21
6.06392e-21
5.21715e-21
4.654e-21
4.31198e-21
4.2271e-21
4.33276e-21
4.85697e-21
5.63785e-21
7.52688e-21
9.9645e-21
1.62716e-20
2.44061e-20
4.93075e-20
8.67421e-20
2.23332e-19
5.47919e-19
1.83678e-18
7.39982e-18
2.59237e-17
1.62e-16
2.9789e-16
5.3767e-14
2.15639e-13
2.32169e-09
2.23333e-10
4.45163e-12
3.2126e-13
2.2964e-14
4.39214e-15
7.20206e-16
2.02857e-16
8.32083e-17
3.71033e-17
1.74437e-17
8.90782e-18
4.92656e-18
2.89762e-18
1.78729e-18
1.1467e-18
7.61145e-19
5.20431e-19
3.65149e-19
2.62008e-19
1.9171e-19
1.4272e-19
1.07939e-19
8.28701e-20
6.45992e-20
5.11842e-20
4.12953e-20
3.40404e-20
2.87492e-20
2.5065e-20
2.25818e-20
2.13912e-20
2.1087e-20
2.25601e-20
2.4969e-20
3.1595e-20
3.97483e-20
6.20011e-20
8.78618e-20
1.73556e-19
2.77087e-19
7.0484e-19
1.41016e-18
4.46604e-18
1.43804e-17
4.24912e-17
2.77016e-16
3.75672e-16
5.52171e-14
2.06348e-13
3.00975e-09
5.2867e-09
4.35593e-11
1.94217e-12
1.07623e-13
1.79315e-14
3.23308e-15
9.44769e-16
3.8599e-16
1.73095e-16
8.19767e-17
4.18743e-17
2.30334e-17
1.34409e-17
8.21927e-18
5.22745e-18
3.44011e-18
2.33266e-18
1.62365e-18
1.1562e-18
8.39879e-19
6.20899e-19
4.6637e-19
3.55569e-19
2.75148e-19
2.16244e-19
1.72861e-19
1.4091e-19
1.17452e-19
1.00687e-19
8.89672e-20
8.2129e-20
7.87716e-20
8.12009e-20
8.67869e-20
1.04826e-19
1.26796e-19
1.88861e-19
2.56515e-19
4.90221e-19
7.39801e-19
1.83709e-18
3.32995e-18
9.99955e-18
2.82755e-17
7.30698e-17
4.71945e-16
6.28157e-16
5.73247e-14
1.96702e-13
1.07673e-09
4.76517e-09
3.71279e-09
1.84738e-11
6.68196e-13
9.12424e-14
1.51057e-14
4.12219e-15
1.59593e-15
6.97201e-16
3.26105e-16
1.64984e-16
8.98957e-17
5.19736e-17
3.14988e-17
1.98596e-17
1.29589e-17
8.71469e-18
6.01735e-18
4.25187e-18
3.06567e-18
2.25016e-18
1.67842e-18
1.27088e-18
9.76594e-19
7.6189e-19
6.04165e-19
4.88e-19
4.0246e-19
3.40586e-19
2.96395e-19
2.68399e-19
2.51887e-19
2.52441e-19
2.62186e-19
3.04879e-19
3.57081e-19
5.08588e-19
6.70663e-19
1.22334e-18
1.80166e-18
4.24642e-18
7.4592e-18
2.07197e-17
5.54494e-17
1.29035e-16
8.10724e-16
1.16117e-15
6.02855e-14
1.93823e-13
2.42883e-09
3.87005e-09
8.22228e-10
2.4144e-09
8.5679e-12
7.08903e-13
8.99325e-14
2.05399e-14
7.06772e-15
2.86231e-15
1.27208e-15
6.19975e-16
3.28301e-16
1.856e-16
1.10459e-16
6.85908e-17
4.41711e-17
2.93589e-17
2.00582e-17
1.40361e-17
1.00297e-17
7.30023e-18
5.40248e-18
4.05992e-18
3.09684e-18
2.39807e-18
1.88697e-18
1.51139e-18
1.23491e-18
1.03372e-18
8.88469e-19
7.92144e-19
7.30703e-19
7.15826e-19
7.26789e-19
8.18447e-19
9.34415e-19
1.27669e-18
1.64768e-18
2.85864e-18
4.1666e-18
9.22502e-18
1.61503e-17
4.12401e-17
1.08081e-16
2.34588e-16
1.39531e-15
2.3129e-15
6.55728e-14
1.9587e-13
3.37045e-09
4.37092e-09
5.90827e-10
2.99384e-10
5.47592e-10
1.84026e-11
9.49883e-13
1.44359e-13
3.9512e-14
1.38316e-14
5.54621e-15
2.50323e-15
1.24996e-15
6.75081e-16
3.87454e-16
2.33621e-16
1.46832e-16
9.56122e-17
6.41826e-17
4.42286e-17
3.11782e-17
2.24196e-17
1.64103e-17
1.22087e-17
9.22548e-18
7.07992e-18
5.52213e-18
4.38347e-18
3.54838e-18
2.93983e-18
2.49877e-18
2.19816e-18
1.9988e-18
1.92139e-18
1.9155e-18
2.09959e-18
2.34868e-18
3.09263e-18
3.92584e-18
6.49104e-18
9.41577e-18
1.95792e-17
3.44609e-17
8.14194e-17
2.1095e-16
4.41645e-16
2.426e-15
4.64799e-15
7.47852e-14
2.05646e-13
3.41198e-09
4.60813e-09
6.72378e-10
1.93096e-10
4.68222e-11
6.67661e-11
3.03212e-10
2.78963e-12
3.8824e-13
9.7406e-14
3.17279e-14
1.23858e-14
5.55746e-15
2.76601e-15
1.48875e-15
8.52486e-16
5.13614e-16
3.22897e-16
2.10421e-16
1.41372e-16
9.74963e-17
6.87764e-17
4.94967e-17
3.62713e-17
2.70365e-17
2.04898e-17
1.57951e-17
1.23976e-17
9.92596e-18
8.13141e-18
6.83262e-18
5.93388e-18
5.32515e-18
5.035e-18
4.94177e-18
5.29435e-18
5.82295e-18
7.42681e-18
9.30101e-18
1.47231e-17
2.12888e-17
4.17729e-17
7.3944e-17
1.63474e-16
4.18505e-16
8.64531e-16
4.31229e-15
9.16596e-15
9.07133e-14
2.28568e-13
3.21288e-09
4.3918e-09
7.73522e-10
2.01648e-10
3.63052e-11
2.16067e-11
1.3308e-11
2.08699e-11
1.49517e-10
2.23609e-12
3.56998e-13
9.69596e-14
3.46608e-14
1.47291e-14
7.05091e-15
3.68732e-15
2.06653e-15
1.22474e-15
7.59962e-16
4.89928e-16
3.2617e-16
2.2319e-16
1.56418e-16
1.11978e-16
8.17541e-17
6.08141e-17
4.60928e-17
3.56168e-17
2.81017e-17
2.26988e-17
1.88154e-17
1.61131e-17
1.42629e-17
1.32746e-17
1.28389e-17
1.34817e-17
1.46066e-17
1.81247e-17
2.24309e-17
3.41685e-17
4.92434e-17
9.17476e-17
1.62925e-16
3.40842e-16
8.58885e-16
1.77042e-15
7.94179e-15
1.79619e-14
1.19687e-13
2.7636e-13
3.01857e-09
3.97339e-09
8.46142e-10
2.12487e-10
3.85532e-11
1.99209e-11
8.5216e-12
4.55298e-12
4.17218e-12
6.85395e-12
8.47039e-11
4.95629e-12
5.70344e-13
1.47884e-13
5.29646e-14
2.27857e-14
1.10781e-14
5.88831e-15
3.35128e-15
2.01357e-15
1.26425e-15
8.23283e-16
5.52998e-16
3.81586e-16
2.69764e-16
1.95037e-16
1.44117e-16
1.08839e-16
8.41014e-17
6.66338e-17
5.42517e-17
4.56646e-17
3.97676e-17
3.63887e-17
3.46509e-17
3.56974e-17
3.8113e-17
4.61436e-17
5.64646e-17
8.31177e-17
1.19292e-16
2.12255e-16
3.76849e-16
7.52928e-16
1.8586e-15
3.8346e-15
1.53999e-14
3.59835e-14
1.73575e-13
3.6856e-13
2.84728e-09
3.51342e-09
9.07764e-10
2.0988e-10
4.20393e-11
2.14267e-11
8.92677e-12
3.86828e-12
2.4445e-12
1.90857e-12
1.74554e-12
2.08003e-12
4.35222e-12
8.70935e-11
2.765e-12
4.12945e-13
1.22744e-13
4.85088e-14
2.2559e-14
1.16864e-14
6.5444e-15
3.88939e-15
2.42368e-15
1.57058e-15
1.05251e-15
7.26655e-16
5.1575e-16
3.75917e-16
2.81435e-16
2.16736e-16
1.7198e-16
1.41377e-16
1.20482e-16
1.07968e-16
1.00896e-16
1.01824e-16
1.06964e-16
1.26437e-16
1.52845e-16
2.17936e-16
3.10932e-16
5.3062e-16
9.38103e-16
1.80211e-15
4.33533e-15
8.92816e-15
3.21408e-14
7.57223e-14
2.79178e-13
5.44303e-13
2.67738e-09
3.05791e-09
9.7673e-10
1.98699e-10
4.51891e-11
2.28615e-11
1.01567e-11
4.16444e-12
2.38392e-12
1.60627e-12
1.14798e-12
8.87283e-13
7.70653e-13
7.75157e-13
9.54947e-13
1.68342e-12
8.23946e-12
1.07194e-11
7.27972e-13
1.86237e-13
7.04462e-14
3.24017e-14
1.68127e-14
9.48447e-15
5.69777e-15
3.5994e-15
2.3728e-15
1.62463e-15
1.15263e-15
8.47125e-16
6.45137e-16
5.1137e-16
4.21887e-16
3.67035e-16
3.34137e-16
3.2853e-16
3.37934e-16
3.88914e-16
4.62903e-16
6.39025e-16
9.03006e-16
1.48103e-15
2.59326e-15
4.80917e-15
1.1206e-14
2.29203e-14
7.42199e-14
1.72333e-13
5.14141e-13
9.18306e-13
2.49902e-09
2.62305e-09
1.05654e-09
1.84588e-10
4.8484e-11
2.37375e-11
1.15269e-11
4.66861e-12
2.5935e-12
1.68956e-12
1.13716e-12
7.92562e-13
5.878e-13
4.66696e-13
3.9675e-13
3.63388e-13
3.63904e-13
4.09443e-13
5.46589e-13
9.8879e-13
3.95045e-12
1.67342e-11
8.17129e-13
2.00892e-13
7.67886e-14
3.62114e-14
1.93979e-14
1.13602e-14
7.1294e-15
4.74502e-15
3.32882e-15
2.46244e-15
1.9153e-15
1.58316e-15
1.37924e-15
1.3022e-15
1.29567e-15
1.43804e-15
1.67034e-15
2.21995e-15
3.0828e-15
4.85014e-15
8.34069e-15
1.49357e-14
3.34512e-14
6.74671e-14
1.97029e-13
4.44532e-13
1.12209e-12
1.81668e-12
2.31278e-09
2.22285e-09
1.14187e-09
1.70171e-10
5.23895e-11
2.4187e-11
1.29406e-11
5.23655e-12
2.86742e-12
1.86407e-12
1.24557e-12
8.46032e-13
5.99726e-13
4.45648e-13
3.45281e-13
2.78242e-13
2.33427e-13
2.04365e-13
1.87371e-13
1.80883e-13
1.85524e-13
2.05308e-13
2.52042e-13
3.62645e-13
6.972e-13
2.84689e-12
9.99648e-12
7.41812e-13
1.9346e-13
7.93204e-14
4.05906e-14
2.3988e-14
1.5758e-14
1.14097e-14
8.94077e-15
7.72357e-15
7.15193e-15
7.42338e-15
8.19768e-15
1.02837e-14
1.37606e-14
2.05242e-14
3.41013e-14
5.85368e-14
1.24493e-13
2.44772e-13
6.4575e-13
1.39728e-12
3.06435e-12
4.47414e-12
2.12096e-09
1.86353e-09
1.2254e-09
1.56485e-10
5.69479e-11
2.43374e-11
1.44224e-11
5.86662e-12
3.16763e-12
2.06706e-12
1.39232e-12
9.44393e-13
6.62493e-13
4.8345e-13
3.64471e-13
2.82496e-13
2.24801e-13
1.836e-13
1.5385e-13
1.32244e-13
1.16633e-13
1.0565e-13
9.84934e-14
9.48147e-14
9.47276e-14
9.89564e-14
1.09299e-13
1.29879e-13
1.70838e-13
2.62441e-13
5.29013e-13
2.03589e-12
1.16577e-12
1.27869e-12
3.62014e-13
1.80496e-13
1.17435e-13
9.44983e-14
8.66805e-14
9.30485e-14
1.10927e-13
1.48225e-13
2.26266e-13
3.59551e-13
7.0399e-13
1.31452e-12
3.1092e-12
6.33484e-12
1.22146e-11
1.59122e-11
1.9252e-09
1.54552e-09
1.30054e-09
1.44301e-10
6.19136e-11
2.42565e-11
1.59736e-11
6.58308e-12
3.49764e-12
2.28866e-12
1.55932e-12
1.06357e-12
7.46141e-13
5.43077e-13
4.07145e-13
3.12455e-13
2.44855e-13
1.957e-13
1.59326e-13
1.31955e-13
1.11061e-13
9.49392e-14
8.24282e-14
7.27273e-14
6.52863e-14
5.97328e-14
5.58351e-14
5.34995e-14
5.27538e-14
5.38546e-14
5.72528e-14
6.40711e-14
7.6052e-14
9.76634e-14
1.36926e-13
2.17685e-13
3.99643e-13
9.22399e-13
2.98934e-12
2.04984e-11
1.77746e-10
2.16637e-11
1.31328e-11
1.23265e-11
1.69569e-11
2.50674e-11
4.80033e-11
8.45098e-11
1.34679e-10
1.36056e-10
1.72773e-09
1.26868e-09
1.36161e-09
1.34509e-10
6.68827e-11
2.40131e-11
1.75579e-11
7.40648e-12
3.86657e-12
2.53139e-12
1.74545e-12
1.19965e-12
8.43895e-13
6.15239e-13
4.61783e-13
3.54313e-13
2.77035e-13
2.20382e-13
1.78066e-13
1.45871e-13
1.20969e-13
1.01444e-13
8.59831e-14
7.3665e-14
6.38303e-14
5.59995e-14
4.98197e-14
4.50484e-14
4.15088e-14
3.91421e-14
3.7908e-14
3.7989e-14
3.95263e-14
4.32356e-14
4.9731e-14
6.13225e-14
8.05187e-14
1.15375e-13
1.78124e-13
3.0154e-13
5.58461e-13
1.11097e-12
2.47191e-12
5.62472e-12
1.43512e-11
3.44032e-11
8.27852e-11
1.61933e-10
2.54099e-10
3.03382e-10
1.53131e-09
1.03268e-09
1.40374e-09
1.28051e-10
7.13332e-11
2.37063e-11
1.91139e-11
8.35276e-12
4.28238e-12
2.79874e-12
1.95291e-12
1.35418e-12
9.55937e-13
6.98688e-13
5.25935e-13
4.04604e-13
3.16971e-13
2.52418e-13
2.03952e-13
1.6686e-13
1.37975e-13
1.15156e-13
9.69388e-14
8.22926e-14
7.04765e-14
6.09459e-14
5.32888e-14
4.7211e-14
4.24813e-14
3.89828e-14
3.66052e-14
3.54239e-14
3.54505e-14
3.71058e-14
4.0663e-14
4.74124e-14
5.85794e-14
7.8064e-14
1.11399e-13
1.71461e-13
2.8585e-13
5.02987e-13
9.72873e-13
1.90882e-12
4.12545e-12
8.59165e-12
1.84645e-11
3.54345e-11
5.94804e-11
8.19675e-11
1.33888e-09
8.3634e-10
1.42289e-09
1.25822e-10
7.4667e-11
2.34645e-11
2.05648e-11
9.43494e-12
4.75281e-12
3.09371e-12
2.18374e-12
1.52963e-12
1.08426e-12
7.94632e-13
6.00116e-13
4.63256e-13
3.6406e-13
2.9073e-13
2.35481e-13
1.93036e-13
1.59836e-13
1.3348e-13
1.12328e-13
9.52301e-14
8.13578e-14
7.01006e-14
6.09921e-14
5.3697e-14
4.79466e-14
4.35962e-14
4.05074e-14
3.8728e-14
3.82455e-14
3.94252e-14
4.25172e-14
4.86298e-14
5.89198e-14
7.65875e-14
1.06573e-13
1.5884e-13
2.55808e-13
4.32685e-13
7.97344e-13
1.49397e-12
3.02708e-12
5.97518e-12
1.1936e-11
2.16038e-11
3.40784e-11
4.35316e-11
1.1534e-09
6.77355e-10
1.41619e-09
1.28613e-10
7.63227e-11
2.34298e-11
2.18273e-11
1.06618e-11
5.28652e-12
3.41937e-12
2.43957e-12
1.72841e-12
1.23122e-12
9.04915e-13
6.85733e-13
5.31326e-13
4.19044e-13
3.3576e-13
2.72821e-13
2.24317e-13
1.86243e-13
1.55903e-13
1.31456e-13
1.11617e-13
9.54574e-14
8.22928e-14
7.15979e-14
6.29953e-14
5.61813e-14
5.09905e-14
4.72686e-14
4.50585e-14
4.43562e-14
4.55351e-14
4.89096e-14
5.56077e-14
6.69971e-14
8.62919e-14
1.18966e-13
1.74894e-13
2.77057e-13
4.59825e-13
8.23925e-13
1.50444e-12
2.91876e-12
5.5478e-12
1.04783e-11
1.80486e-11
2.71053e-11
3.29921e-11
9.77781e-10
5.52394e-10
1.38225e-09
1.37096e-10
7.5918e-11
2.37329e-11
2.28239e-11
1.20348e-11
5.89358e-12
3.77929e-12
2.72174e-12
1.95275e-12
1.3993e-12
1.03161e-12
7.8448e-13
6.10251e-13
4.83145e-13
3.88528e-13
3.16801e-13
2.61354e-13
2.17686e-13
1.82764e-13
1.54525e-13
1.31529e-13
1.12738e-13
9.73833e-14
8.48747e-14
7.47878e-14
6.67829e-14
6.06752e-14
5.63009e-14
5.37078e-14
5.29201e-14
5.43498e-14
5.84279e-14
6.63972e-14
7.99877e-14
1.02746e-13
1.41189e-13
2.06247e-13
3.23528e-13
5.30896e-13
9.32009e-13
1.66942e-12
3.12818e-12
5.7555e-12
1.03731e-11
1.71006e-11
2.46585e-11
2.89929e-11
8.14712e-10
4.57313e-10
1.32142e-09
1.51788e-10
7.33205e-11
2.44714e-11
2.34949e-11
1.35441e-11
6.58548e-12
4.17761e-12
3.03149e-12
2.20468e-12
1.59108e-12
1.17694e-12
8.98218e-13
7.01656e-13
5.5781e-13
4.50316e-13
3.6855e-13
3.05137e-13
2.55022e-13
2.14798e-13
1.82153e-13
1.55481e-13
1.33617e-13
1.15703e-13
1.01075e-13
8.92563e-14
7.98697e-14
7.27106e-14
6.76105e-14
6.46286e-14
6.3833e-14
6.56963e-14
7.08088e-14
8.05963e-14
9.72667e-14
1.24921e-13
1.7145e-13
2.49576e-13
3.88583e-13
6.32164e-13
1.09071e-12
1.92034e-12
3.4906e-12
6.22952e-12
1.07762e-11
1.70734e-11
2.37697e-11
2.72085e-11
6.66501e-10
3.87463e-10
1.23596e-09
1.72919e-10
6.86826e-11
2.56927e-11
2.38105e-11
1.51635e-11
7.3749e-12
4.61912e-12
3.36999e-12
2.4859e-12
1.80918e-12
1.34335e-12
1.02898e-12
8.07328e-13
6.44659e-13
5.22592e-13
4.29392e-13
3.56859e-13
2.99325e-13
2.52967e-13
2.152e-13
1.84233e-13
1.58766e-13
1.37841e-13
1.20714e-13
1.06852e-13
9.58366e-14
8.74433e-14
8.15042e-14
7.80956e-14
7.73454e-14
7.98067e-14
8.62702e-14
9.84081e-14
1.19009e-13
1.52925e-13
2.09681e-13
3.04382e-13
4.70614e-13
7.59353e-13
1.28906e-12
2.2309e-12
3.94269e-12
6.83077e-12
1.13849e-11
1.73906e-11
2.3461e-11
2.62641e-11
5.34867e-10
3.38016e-10
1.12986e-09
2.00211e-10
6.24718e-11
2.73715e-11
2.37817e-11
1.68465e-11
8.27491e-12
5.10927e-12
3.73847e-12
2.7977e-12
2.0562e-12
1.5334e-12
1.17894e-12
9.29205e-13
7.45479e-13
6.07006e-13
5.0084e-13
4.17901e-13
3.51854e-13
2.98417e-13
2.54704e-13
2.18724e-13
1.89034e-13
1.64565e-13
1.44486e-13
1.28203e-13
1.15256e-13
1.05401e-13
9.84763e-14
9.45817e-14
9.39222e-14
9.71543e-14
1.0531e-13
1.20377e-13
1.45824e-13
1.87456e-13
2.56657e-13
3.71436e-13
5.70105e-13
9.11815e-13
1.52323e-12
2.58936e-12
4.45483e-12
7.49542e-12
1.20683e-11
1.78179e-11
2.33491e-11
2.56301e-11
4.20824e-10
3.04196e-10
1.0087e-09
2.32589e-10
5.54495e-11
2.93787e-11
2.34651e-11
1.85258e-11
9.29736e-12
5.65406e-12
4.13829e-12
3.14075e-12
2.33447e-12
1.74976e-12
1.35044e-12
1.06937e-12
8.62216e-13
7.05384e-13
5.84592e-13
4.89837e-13
4.14061e-13
3.52481e-13
3.01885e-13
2.6007e-13
2.25437e-13
1.968e-13
1.73237e-13
1.54085e-13
1.38845e-13
1.27254e-13
1.19163e-13
1.14706e-13
1.14183e-13
1.18381e-13
1.28618e-13
1.47274e-13
1.78602e-13
2.29568e-13
3.13635e-13
4.5219e-13
6.88568e-13
1.09054e-12
1.79242e-12
2.99015e-12
5.0115e-12
8.19149e-12
1.27654e-11
1.82548e-11
2.32774e-11
2.50898e-11
3.24592e-10
2.81465e-10
8.79818e-10
2.67843e-10
4.8606e-11
3.14718e-11
2.2958e-11
2.01164e-11
1.04505e-11
6.26001e-12
4.57114e-12
3.51512e-12
2.64595e-12
1.99508e-12
1.54591e-12
1.23e-12
9.96951e-13
8.19725e-13
6.82541e-13
5.74437e-13
4.87597e-13
4.1669e-13
3.58158e-13
3.09571e-13
2.69168e-13
2.3564e-13
2.07969e-13
1.85422e-13
1.67461e-13
1.53805e-13
1.44331e-13
1.39217e-13
1.38879e-13
1.44267e-13
1.57033e-13
1.80037e-13
2.18426e-13
2.80543e-13
3.82149e-13
5.48421e-13
8.27923e-13
1.29708e-12
2.09678e-12
3.42987e-12
5.60267e-12
8.90034e-12
1.34451e-11
1.86563e-11
2.31799e-11
2.45514e-11
2.45516e-10
2.65855e-10
7.5192e-10
3.025e-10
4.29872e-11
3.33335e-11
2.23841e-11
2.1524e-11
1.17358e-11
6.93424e-12
5.03903e-12
3.92023e-12
2.99192e-12
2.27192e-12
1.76783e-12
1.41337e-12
1.15187e-12
9.52173e-13
7.96756e-13
6.73672e-13
5.74318e-13
4.92785e-13
4.25142e-13
3.68725e-13
3.21609e-13
2.82359e-13
2.49857e-13
2.23298e-13
2.02108e-13
1.85999e-13
1.7488e-13
1.68991e-13
1.68888e-13
1.75721e-13
1.91526e-13
2.19742e-13
2.66521e-13
3.41808e-13
4.63863e-13
6.61996e-13
9.90078e-13
1.5328e-12
2.43609e-12
3.90493e-12
6.21931e-12
9.60754e-12
1.40872e-11
1.89974e-11
2.30246e-11
2.39719e-11
1.82211e-10
2.54108e-10
6.32279e-10
3.32445e-10
3.94039e-11
3.46216e-11
2.18735e-11
2.2657e-11
1.31422e-11
7.68411e-12
5.54435e-12
4.35497e-12
3.37282e-12
2.58249e-12
2.01862e-12
1.62174e-12
1.32921e-12
1.10498e-12
9.29468e-13
7.89702e-13
6.76289e-13
5.8272e-13
5.04673e-13
4.39245e-13
3.84351e-13
3.38427e-13
3.00257e-13
2.68968e-13
2.43955e-13
2.24929e-13
2.11849e-13
2.05037e-13
2.05212e-13
2.1377e-13
2.33184e-13
2.67574e-13
3.24213e-13
4.14857e-13
5.60453e-13
7.94665e-13
1.1766e-12
1.79839e-12
2.80899e-12
4.41039e-12
6.85132e-12
1.02989e-11
1.46749e-11
1.926e-11
2.27916e-11
2.33264e-11
1.32864e-10
2.4341e-10
5.24654e-10
3.54045e-10
3.82903e-11
3.50247e-11
2.15354e-11
2.34445e-11
1.4642e-11
8.51648e-12
6.08962e-12
4.81777e-12
3.78793e-12
2.92845e-12
2.30056e-12
1.85731e-12
1.53119e-12
1.28047e-12
1.08303e-12
9.24853e-13
7.95769e-13
6.88659e-13
5.98803e-13
5.23062e-13
4.59195e-13
4.05518e-13
3.60722e-13
3.23869e-13
2.94334e-13
2.71843e-13
2.56421e-13
2.48495e-13
2.48977e-13
2.59553e-13
2.83192e-13
3.24795e-13
3.92872e-13
5.01172e-13
6.73472e-13
9.47873e-13
1.38844e-12
2.09347e-12
3.21248e-12
4.93923e-12
7.48666e-12
1.09588e-11
1.51915e-11
1.94276e-11
2.24642e-11
2.25974e-11
9.53854e-11
2.31527e-10
4.30559e-10
3.64938e-10
3.98087e-11
3.43749e-11
2.14313e-11
2.3854e-11
1.61883e-11
9.43675e-12
6.67742e-12
5.30692e-12
4.23537e-12
3.31067e-12
2.61564e-12
2.12217e-12
1.75994e-12
1.48093e-12
1.25988e-12
1.08159e-12
9.3519e-13
8.12966e-13
7.09799e-13
6.22324e-13
5.48162e-13
4.85519e-13
4.33003e-13
3.89624e-13
3.54751e-13
3.28144e-13
3.09916e-13
3.00627e-13
3.01412e-13
3.14297e-13
3.42799e-13
3.927e-13
4.73845e-13
6.02118e-13
8.04203e-13
1.12254e-12
1.62562e-12
2.41624e-12
3.6416e-12
5.48216e-12
8.11121e-12
1.15704e-11
1.56198e-11
1.94845e-11
2.2028e-11
2.17711e-11
6.75837e-11
2.17168e-10
3.5056e-10
3.64247e-10
4.39572e-11
3.27436e-11
2.15599e-11
2.38989e-11
1.77158e-11
1.04473e-11
7.31025e-12
5.82084e-12
4.71209e-12
3.729e-12
2.96541e-12
2.41817e-12
2.01746e-12
1.70861e-12
1.46246e-12
1.26248e-12
1.09714e-12
9.58188e-13
8.40132e-13
7.39397e-13
6.53488e-13
5.80526e-13
5.19052e-13
4.68042e-13
4.26879e-13
3.95383e-13
3.73784e-13
3.62804e-13
3.63834e-13
3.79284e-13
4.13275e-13
4.72548e-13
5.68362e-13
7.18817e-13
9.53486e-13
1.31885e-12
1.88701e-12
2.76324e-12
4.08922e-12
6.02754e-12
8.70896e-12
1.21156e-11
1.59429e-11
1.94157e-11
2.14702e-11
2.08373e-11
4.73896e-11
1.99949e-10
2.84382e-10
3.52478e-10
5.05332e-11
3.04189e-11
2.18569e-11
2.36354e-11
1.9146e-11
1.15448e-11
7.99027e-12
6.35821e-12
5.21409e-12
4.18205e-12
3.35079e-12
2.74689e-12
2.30552e-12
1.9656e-12
1.6932e-12
1.47014e-12
1.28432e-12
1.12703e-12
9.9246e-13
8.76848e-13
7.7762e-13
6.92841e-13
6.21015e-13
5.61108e-13
5.12549e-13
4.75249e-13
4.49585e-13
4.36478e-13
4.37607e-13
4.55808e-13
4.95846e-13
5.6548e-13
6.77426e-13
8.52001e-13
1.12152e-12
1.53601e-12
2.17004e-12
3.12909e-12
4.54602e-12
6.56159e-12
9.26242e-12
1.25758e-11
1.61443e-11
1.92082e-11
2.07807e-11
1.97897e-11
3.29858e-11
1.80199e-10
2.30958e-10
3.31294e-10
5.90273e-11
2.78161e-11
2.2206e-11
2.31514e-11
2.03962e-11
1.2717e-11
8.71893e-12
6.91807e-12
5.7367e-12
4.66702e-12
3.77189e-12
3.1095e-12
2.62563e-12
2.25378e-12
1.95441e-12
1.7072e-12
1.49951e-12
1.32234e-12
1.1696e-12
1.03743e-12
9.23193e-13
8.24957e-13
7.41219e-13
6.70975e-13
6.13733e-13
5.6954e-13
5.38957e-13
5.23144e-13
5.24096e-13
5.45107e-13
5.91612e-13
6.72415e-13
8.01679e-13
1.00184e-12
1.30768e-12
1.77201e-12
2.47055e-12
3.50645e-12
5.00057e-12
7.06876e-12
9.7533e-12
1.29328e-11
1.62092e-11
1.88513e-11
1.99531e-11
1.86261e-11
2.2863e-11
1.58795e-10
1.88638e-10
3.03154e-10
6.85869e-11
2.53831e-11
2.24618e-11
2.2548e-11
2.13926e-11
1.39399e-11
9.4964e-12
7.49965e-12
6.275e-12
5.17971e-12
4.22778e-12
3.50665e-12
2.97896e-12
2.57476e-12
2.24821e-12
1.9762e-12
1.74552e-12
1.54703e-12
1.37452e-12
1.22405e-12
1.09302e-12
9.7954e-13
8.82153e-13
7.99931e-13
7.32515e-13
6.80134e-13
6.43582e-13
6.24293e-13
6.24604e-13
6.4829e-13
7.01459e-13
7.93938e-13
9.41267e-13
1.1678e-12
1.51033e-12
2.02353e-12
2.78265e-12
3.88606e-12
5.43965e-12
7.53233e-12
1.01633e-11
1.31697e-11
1.61251e-11
1.83378e-11
1.8985e-11
1.73497e-11
1.5821e-11
1.3697e-10
1.55487e-10
2.70847e-10
7.80957e-11
2.35172e-11
2.24911e-11
2.1918e-11
2.20839e-11
1.51761e-11
1.03208e-11
8.10221e-12
6.82428e-12
5.71469e-12
4.71633e-12
3.93837e-12
3.36629e-12
2.92983e-12
2.57651e-12
2.27959e-12
2.02515e-12
1.8041e-12
1.61026e-12
1.43975e-12
1.29006e-12
1.1594e-12
1.04644e-12
9.50379e-13
8.71056e-13
8.08946e-13
7.65126e-13
7.41346e-13
7.40304e-13
7.66253e-13
8.25949e-13
9.30174e-13
1.09569e-12
1.34845e-12
1.72666e-12
2.28576e-12
3.0988e-12
4.25695e-12
5.8487e-12
7.93509e-12
1.04748e-11
1.32718e-11
1.58827e-11
1.76646e-11
1.78788e-11
1.59687e-11
1.09511e-11
1.15873e-10
1.29578e-10
2.37139e-10
8.63587e-11
2.24984e-11
2.2218e-11
2.1329e-11
2.24512e-11
1.63765e-11
1.11873e-11
8.72498e-12
7.38047e-12
6.26567e-12
5.23416e-12
4.40398e-12
3.78801e-12
3.31997e-12
2.94094e-12
2.61965e-12
2.34113e-12
2.09654e-12
1.87996e-12
1.68768e-12
1.51739e-12
1.36748e-12
1.23681e-12
1.1248e-12
1.03156e-12
9.57881e-13
9.05191e-13
8.75592e-13
8.72151e-13
8.99581e-13
9.65216e-13
1.08067e-12
1.26369e-12
1.5414e-12
1.95267e-12
2.55248e-12
3.40991e-12
4.60678e-12
6.21247e-12
8.26024e-12
1.06723e-11
1.32275e-11
1.54769e-11
1.68332e-11
1.66426e-11
1.44971e-11
7.59777e-12
9.62234e-11
1.09167e-10
2.04394e-10
9.23707e-11
2.24408e-11
2.1644e-11
2.08118e-11
2.25099e-11
1.7484e-11
1.20862e-11
9.3666e-12
7.94023e-12
6.82596e-12
5.77665e-12
4.90192e-12
4.24406e-12
3.74579e-12
3.34281e-12
2.99843e-12
2.6961e-12
2.42735e-12
2.18679e-12
1.97108e-12
1.77819e-12
1.6068e-12
1.45606e-12
1.3257e-12
1.2162e-12
1.12878e-12
1.06525e-12
1.02811e-12
1.02081e-12
1.04845e-12
1.11886e-12
1.24428e-12
1.44314e-12
1.74317e-12
2.18308e-12
2.81608e-12
3.70562e-12
4.92241e-12
6.51569e-12
8.49222e-12
1.07426e-11
1.30291e-11
1.49071e-11
1.58504e-11
1.52895e-11
1.29545e-11
5.29171e-12
7.8486e-11
9.27834e-11
1.74154e-10
9.55299e-11
2.32982e-11
2.08437e-11
2.0358e-11
2.23043e-11
1.84413e-11
1.30015e-11
1.00247e-11
8.5009e-12
7.38893e-12
6.33799e-12
5.42966e-12
4.73384e-12
4.20757e-12
3.78313e-12
3.41774e-12
3.09257e-12
2.79948e-12
2.53395e-12
2.2932e-12
2.07567e-12
1.88043e-12
1.70701e-12
1.55559e-12
1.42713e-12
1.32334e-12
1.24655e-12
1.19969e-12
1.18653e-12
1.21254e-12
1.28585e-12
1.41909e-12
1.63098e-12
1.94922e-12
2.41146e-12
3.06785e-12
3.97475e-12
5.19044e-12
6.74392e-12
8.61758e-12
1.0676e-11
1.26733e-11
1.41779e-11
1.47284e-11
1.38387e-11
1.13659e-11
3.7012e-12
6.30061e-11
7.92919e-11
1.47177e-10
9.56916e-11
2.48996e-11
1.99454e-11
1.99336e-11
2.18965e-11
1.91997e-11
1.391e-11
1.06952e-11
9.06032e-12
7.94854e-12
6.91153e-12
5.98364e-12
5.25618e-12
4.70522e-12
4.26258e-12
3.87912e-12
3.53284e-12
3.21579e-12
2.92457e-12
2.65733e-12
2.41309e-12
2.19146e-12
1.99249e-12
1.81692e-12
1.66633e-12
1.54309e-12
1.4501e-12
1.39074e-12
1.36912e-12
1.39093e-12
1.46444e-12
1.60234e-12
1.82318e-12
2.15398e-12
2.63035e-12
3.29825e-12
4.20574e-12
5.39792e-12
6.88427e-12
8.62575e-12
1.04672e-11
1.21617e-11
1.32991e-11
1.34847e-11
1.23141e-11
9.7609e-12
2.59931e-12
4.99176e-11
6.78856e-11
1.23729e-10
9.31184e-11
2.69792e-11
1.90928e-11
1.94982e-11
2.13526e-11
1.97264e-11
1.47816e-11
1.13722e-11
9.61642e-12
8.49967e-12
7.49011e-12
6.55924e-12
5.80918e-12
5.23827e-12
4.78151e-12
4.38379e-12
4.019e-12
3.679e-12
3.36177e-12
3.0667e-12
2.79368e-12
2.54294e-12
2.31522e-12
2.11199e-12
1.93562e-12
1.78926e-12
1.67649e-12
1.60121e-12
1.56781e-12
1.58205e-12
1.65211e-12
1.79042e-12
2.01482e-12
2.35096e-12
2.83155e-12
3.49733e-12
4.38723e-12
5.53305e-12
6.92617e-12
8.5097e-12
1.01149e-11
1.15011e-11
1.22858e-11
1.21418e-11
1.07447e-11
8.17298e-12
1.83222e-12
3.91417e-11
5.80348e-11
1.03752e-10
8.83527e-11
2.9213e-11
1.84069e-11
1.90207e-11
2.07305e-11
2.00093e-11
1.55817e-11
1.20465e-11
1.01669e-11
9.03822e-12
8.0666e-12
7.15091e-12
6.39023e-12
5.80585e-12
5.34e-12
4.93268e-12
4.55287e-12
4.19166e-12
3.84854e-12
3.52451e-12
3.22058e-12
2.93784e-12
2.67784e-12
2.44295e-12
2.23654e-12
2.06273e-12
1.92591e-12
1.83052e-12
1.78118e-12
1.78359e-12
1.84557e-12
1.97888e-12
2.20016e-12
2.533e-12
3.00644e-12
3.6552e-12
4.5087e-12
5.58585e-12
6.86204e-12
8.26648e-12
9.62313e-12
1.07033e-11
1.11582e-11
1.07269e-11
9.16311e-12
6.63831e-12
1.29554e-12
3.04582e-11
4.94157e-11
8.69639e-11
8.20577e-11
3.12725e-11
1.79627e-11
1.84902e-11
2.00723e-11
2.00573e-11
1.62745e-11
1.27057e-11
1.07086e-11
9.56109e-12
8.63436e-12
7.75238e-12
6.99592e-12
6.40663e-12
5.93782e-12
5.52645e-12
5.13604e-12
4.75615e-12
4.38775e-12
4.03384e-12
3.69687e-12
3.379e-12
3.08277e-12
2.81169e-12
2.57033e-12
2.36399e-12
2.19802e-12
2.07748e-12
2.00715e-12
1.9925e-12
2.04072e-12
2.1625e-12
2.37279e-12
2.6925e-12
3.14634e-12
3.76256e-12
4.56106e-12
5.54882e-12
6.68786e-12
7.89758e-12
9.00062e-12
9.78548e-12
9.94104e-12
9.27138e-12
7.60534e-12
5.1944e-12
9.18394e-13
2.35768e-11
4.18419e-11
7.29675e-11
7.48845e-11
3.28797e-11
1.77798e-11
1.79177e-11
1.94027e-11
1.98962e-11
1.68285e-11
1.33337e-11
1.12374e-11
1.00658e-11
9.18758e-12
8.357e-12
7.62205e-12
7.03881e-12
6.5745e-12
6.1655e-12
5.76981e-12
5.37461e-12
4.98211e-12
4.59764e-12
4.22547e-12
3.86908e-12
3.53224e-12
3.21979e-12
2.93781e-12
2.69302e-12
2.49193e-12
2.34026e-12
2.24293e-12
2.20501e-12
2.23276e-12
2.33546e-12
2.52588e-12
2.82174e-12
3.24302e-12
3.81126e-12
4.53728e-12
5.41753e-12
6.4036e-12
7.40927e-12
8.26126e-12
8.76937e-12
8.6636e-12
7.81e-12
6.10914e-12
3.8783e-12
6.52388e-13
1.81916e-11
3.52044e-11
6.13307e-11
6.73902e-11
3.38473e-11
1.78272e-11
1.73314e-11
1.87323e-11
1.95624e-11
1.72202e-11
1.39114e-11
1.17477e-11
1.05503e-11
9.72153e-12
8.95807e-12
8.26371e-12
7.70001e-12
7.24926e-12
6.85001e-12
6.45524e-12
6.04894e-12
5.63414e-12
5.21869e-12
4.80912e-12
4.41054e-12
4.02816e-12
3.66848e-12
3.33936e-12
3.04927e-12
2.80609e-12
2.61633e-12
2.485e-12
2.41662e-12
2.41629e-12
2.49149e-12
2.65245e-12
2.91336e-12
3.28917e-12
3.79485e-12
4.43295e-12
5.19111e-12
6.01363e-12
6.81263e-12
7.42381e-12
7.68139e-12
7.35871e-12
6.37992e-12
4.71284e-12
2.72448e-12
4.64252e-13
1.40159e-11
2.94291e-11
5.16454e-11
5.9995e-11
3.40952e-11
1.80343e-11
1.67652e-11
1.80634e-11
1.90953e-11
1.74378e-11
1.44181e-11
1.22318e-11
1.10122e-11
1.02326e-11
9.54929e-12
8.91546e-12
8.38727e-12
7.96096e-12
7.57993e-12
7.19314e-12
6.78077e-12
6.3461e-12
5.89956e-12
5.45034e-12
5.00553e-12
4.57213e-12
4.15856e-12
3.77486e-12
3.4316e-12
3.13832e-12
2.90246e-12
2.72916e-12
2.62223e-12
2.58541e-12
2.62411e-12
2.74572e-12
2.96065e-12
3.27889e-12
3.70912e-12
4.2468e-12
4.87265e-12
5.52689e-12
6.12359e-12
6.51167e-12
6.55189e-12
6.06208e-12
5.01957e-12
3.45353e-12
1.7622e-12
3.30946e-13
1.07977e-11
2.44556e-11
4.35572e-11
5.29741e-11
3.36411e-11
1.83069e-11
1.6245e-11
1.73954e-11
1.85315e-11
1.7481e-11
1.48336e-11
1.26803e-11
1.14487e-11
1.07179e-11
1.0125e-11
9.57151e-12
9.09702e-12
8.70812e-12
8.35498e-12
7.98407e-12
7.57148e-12
7.11999e-12
6.64256e-12
6.15136e-12
5.65592e-12
5.16533e-12
4.69035e-12
4.24361e-12
3.83823e-12
3.48575e-12
3.19478e-12
2.97059e-12
2.81628e-12
2.73399e-12
2.72692e-12
2.79945e-12
2.95814e-12
3.20818e-12
3.55263e-12
3.9811e-12
4.46949e-12
4.95696e-12
5.36276e-12
5.55245e-12
5.41453e-12
4.81129e-12
3.76722e-12
2.36493e-12
1.01228e-12
2.3641e-13
8.32439e-12
2.02255e-11
3.67747e-11
4.64847e-11
3.25732e-11
1.85465e-11
1.57827e-11
1.6729e-11
1.79011e-11
1.73609e-11
1.51404e-11
1.30821e-11
1.18561e-11
1.11753e-11
1.06805e-11
1.0226e-11
9.82514e-12
9.48879e-12
9.17466e-12
8.82842e-12
8.42215e-12
7.95753e-12
7.44971e-12
6.91413e-12
6.36318e-12
5.80852e-12
5.26367e-12
4.74435e-12
4.26675e-12
3.84487e-12
3.48875e-12
3.20396e-12
2.99284e-12
2.85589e-12
2.79395e-12
2.80837e-12
2.90195e-12
3.07546e-12
3.32709e-12
3.64203e-12
3.99339e-12
4.32207e-12
4.55514e-12
4.57742e-12
4.30536e-12
3.64446e-12
2.65905e-12
1.47461e-12
4.83062e-13
1.69352e-13
6.42481e-12
1.6669e-11
3.10662e-11
4.05995e-11
3.10179e-11
1.86685e-11
1.53753e-11
1.60675e-11
1.72274e-11
1.70957e-11
1.53263e-11
1.34253e-11
1.22297e-11
1.16029e-11
1.1212e-11
1.08735e-11