/*--------------------------------*- C++ -*----------------------------------*\
  =========                 |
  \\      /  F ield         | OpenFOAM: The Open Source CFD Toolbox
   \\    /   O peration     | Website:  https://openfoam.org
    \\  /    A nd           | Version:  7
     \\/     M anipulation  |
\*---------------------------------------------------------------------------*/
FoamFile
{
    version     2.0;
    format      ascii;
    class       volScalarField;
    location    "0.1";
    object      p;
}
// * * * * * * * * * * * * * * * * * * * * * * * * * * * * * * * * * * * * * //

dimensions      [0 2 -2 0 0 0 0];

internalField   nonuniform List<scalar> 
70000
(
0.109189
0.0317302
0.0192012
0.0216333
0.0217861
0.0207083
0.0197449
0.019008
0.0183874
0.0178356
0.0173391
0.01689
0.0164807
0.0161043
0.0157553
0.015429
0.0151218
0.0148304
0.0145522
0.0142849
0.0140265
0.0137752
0.0135293
0.0132875
0.0130481
0.0128097
0.0125711
0.0123308
0.0120875
0.0118395
0.0115854
0.0113235
0.0110519
0.0107685
0.0104711
0.0101567
0.00982257
0.00946467
0.00907884
0.00866023
0.0082011
0.0076978
0.00713212
0.00651035
0.00578296
0.0049953
0.00400571
0.00298622
0.0015345
9.39694e-05
0.104821
0.0320971
0.0194042
0.021729
0.0218407
0.0207444
0.0197731
0.0190313
0.018407
0.0178523
0.0173537
0.0169029
0.0164922
0.0161147
0.0157647
0.0154377
0.0151297
0.0148377
0.014559
0.0142913
0.0140325
0.0137809
0.0135347
0.0132926
0.0130529
0.0128144
0.0125755
0.0123351
0.0120915
0.0118434
0.0115892
0.0113271
0.0110554
0.0107719
0.0104743
0.0101599
0.0098256
0.00946761
0.00908166
0.00866296
0.0082037
0.0077003
0.00713445
0.00651255
0.00578491
0.00499703
0.00400739
0.00298589
0.00153742
0.000151605
0.101241
0.0330371
0.0197445
0.0218581
0.021915
0.0207892
0.0198055
0.0190575
0.0184288
0.0178708
0.0173696
0.0169169
0.0165047
0.0161259
0.0157749
0.015447
0.0151383
0.0148457
0.0145664
0.0142982
0.014039
0.013787
0.0135405
0.013298
0.0130581
0.0128193
0.0125803
0.0123396
0.0120959
0.0118476
0.0115932
0.0113311
0.0110593
0.0107756
0.010478
0.0101634
0.00982912
0.00947108
0.0090851
0.00866639
0.00820712
0.00770378
0.00713793
0.00651621
0.00578854
0.00500104
0.00401124
0.00298952
0.00156312
0.000226295
0.0981466
0.034139
0.0202141
0.0220321
0.0220159
0.0208468
0.0198437
0.0190875
0.0184535
0.0178913
0.0173871
0.0169321
0.0165181
0.0161379
0.0157857
0.0154568
0.0151473
0.014854
0.0145741
0.0143054
0.0140457
0.0137933
0.0135465
0.0133037
0.0130635
0.0128245
0.0125853
0.0123444
0.0121005
0.0118521
0.0115976
0.0113353
0.0110634
0.0107797
0.010482
0.0101674
0.00983312
0.00947511
0.0090892
0.00867061
0.0082115
0.00770841
0.00714288
0.00652165
0.00579465
0.00500791
0.00402065
0.00299835
0.00161106
0.000322391
0.0951873
0.0352355
0.02078
0.0222526
0.0221505
0.0209247
0.0198927
0.0191246
0.0184836
0.017916
0.0174078
0.0169498
0.0165335
0.0161515
0.0157979
0.0154679
0.0151574
0.0148633
0.0145827
0.0143134
0.0140532
0.0138003
0.0135531
0.01331
0.0130694
0.0128302
0.0125907
0.0123496
0.0121055
0.011857
0.0116023
0.0113399
0.011068
0.0107843
0.0104866
0.010172
0.00983779
0.00947991
0.00909418
0.00867587
0.00821714
0.00771457
0.00714977
0.00652945
0.00580403
0.00501863
0.00403675
0.00301481
0.0016791
0.000448294
0.0922784
0.0362745
0.0213953
0.0224997
0.0223127
0.0210245
0.0199552
0.0191711
0.018521
0.0179466
0.0174331
0.0169713
0.0165521
0.0161678
0.0158124
0.0154809
0.0151692
0.014874
0.0145926
0.0143225
0.0140617
0.0138082
0.0135605
0.013317
0.0130761
0.0128365
0.0125968
0.0123555
0.0121112
0.0118625
0.0116077
0.0113452
0.0110732
0.0107895
0.0104919
0.0101774
0.00984333
0.0094857
0.00910031
0.00868247
0.00822439
0.00772267
0.0071591
0.00654027
0.00581755
0.00503432
0.00406138
0.0030417
0.00176876
0.000606101
0.0894137
0.0372372
0.0220261
0.0227516
0.0224895
0.0211415
0.02003
0.0192268
0.0185662
0.0179837
0.0174639
0.0169973
0.0165745
0.0161874
0.0158298
0.0154964
0.0151831
0.0148867
0.0146042
0.0143332
0.0140716
0.0138175
0.0135692
0.0133251
0.0130838
0.0128439
0.0126038
0.0123622
0.0121177
0.0118688
0.0116139
0.0113514
0.0110793
0.0107956
0.0104981
0.0101838
0.00984995
0.00949271
0.00910783
0.00869072
0.00823359
0.00773315
0.00717141
0.00655477
0.00583614
0.00505621
0.00409631
0.00308332
0.00188152
0.000795099
0.0865995
0.0381154
0.0226566
0.0229966
0.0226699
0.0212693
0.0201137
0.0192897
0.0186179
0.0180267
0.0174998
0.0170279
0.016601
0.0162106
0.0158503
0.0155147
0.0151997
0.0149017
0.0146179
0.0143458
0.0140833
0.0138284
0.0135794
0.0133347
0.0130929
0.0128524
0.0126119
0.01237
0.0121253
0.0118762
0.0116211
0.0113585
0.0110864
0.0108028
0.0105054
0.0101913
0.00985788
0.00950118
0.00911701
0.00870091
0.00824509
0.00774644
0.00718725
0.00657364
0.00586071
0.00508559
0.00414309
0.00314206
0.00201511
0.00101346
0.0838414
0.0389064
0.0232816
0.0232307
0.0228479
0.0214031
0.0202031
0.0193572
0.0186742
0.0180741
0.01754
0.0170624
0.016631
0.0162372
0.0158739
0.0155359
0.0152188
0.0149192
0.0146339
0.0143605
0.0140969
0.013841
0.0135912
0.0133458
0.0131034
0.0128624
0.0126214
0.0123792
0.0121341
0.0118847
0.0116295
0.0113668
0.0110947
0.0108112
0.010514
0.0102003
0.00986731
0.00951133
0.00912811
0.00871333
0.00825925
0.00776293
0.00720711
0.00659749
0.00589208
0.00512364
0.00420288
0.0032201
0.00217008
0.00125834
0.081144
0.03961
0.0238999
0.0234535
0.0230205
0.0215401
0.0202961
0.0194273
0.0187332
0.0181245
0.0175832
0.0170998
0.0166639
0.0162664
0.0159001
0.0155596
0.0152403
0.0149388
0.014652
0.0143772
0.0141124
0.0138555
0.0136047
0.0133586
0.0131154
0.0128738
0.0126324
0.0123897
0.0121442
0.0118946
0.0116393
0.0113764
0.0111044
0.010821
0.010524
0.0102108
0.00987842
0.00952335
0.00914132
0.00872821
0.00827633
0.00778294
0.0072314
0.00662682
0.00593085
0.00517132
0.00427639
0.00331877
0.00234548
0.00152582
0.0785108
0.0402265
0.0245108
0.0236659
0.0231863
0.0216788
0.0203916
0.019499
0.0187937
0.0181768
0.0176282
0.0171391
0.0166987
0.0162975
0.0159282
0.0155851
0.0152637
0.0149603
0.0146718
0.0143956
0.0141296
0.0138716
0.0136199
0.0133728
0.0131289
0.0128867
0.0126447
0.0124015
0.0121557
0.0119058
0.0116503
0.0113874
0.0111154
0.0108322
0.0105356
0.0102229
0.0098913
0.00953735
0.00915678
0.0087457
0.00829651
0.00780668
0.00726038
0.00666195
0.00597738
0.00522926
0.00436375
0.00343812
0.00253976
0.00181125
0.0759444
0.0407563
0.0251128
0.0238689
0.0233444
0.0218183
0.0204893
0.0195718
0.0188552
0.0182301
0.0176745
0.0171797
0.0167348
0.01633
0.0159577
0.0156121
0.0152885
0.0149832
0.0146931
0.0144155
0.0141481
0.013889
0.0136363
0.0133884
0.0131438
0.0129009
0.0126583
0.0124147
0.0121685
0.0119184
0.0116627
0.0113997
0.0111278
0.0108448
0.0105486
0.0102366
0.00990597
0.00955335
0.00917452
0.00876583
0.00831986
0.00783421
0.00729411
0.006703
0.00603166
0.00529764
0.00446444
0.00357701
0.00275059
0.00210965
0.0734477
0.0411999
0.0257039
0.0240636
0.023494
0.0219579
0.020589
0.0196455
0.0189173
0.0182843
0.0177217
0.0172212
0.0167718
0.0163635
0.0159882
0.01564
0.0153142
0.0150071
0.0147153
0.0144363
0.0141677
0.0139075
0.0136538
0.0134051
0.0131597
0.0129161
0.012673
0.0124289
0.0121824
0.011932
0.0116762
0.0114132
0.0111414
0.0108588
0.0105631
0.0102519
0.00992237
0.00957129
0.00919449
0.00878855
0.00834631
0.00786545
0.0073325
0.00674986
0.0060934
0.00537616
0.00457741
0.00373325
0.00297489
0.00241669
0.0710231
0.0415582
0.0262817
0.0242515
0.0236348
0.0220968
0.0206906
0.0197202
0.0189799
0.0183392
0.0177697
0.0172634
0.0168096
0.0163976
0.0160194
0.0156687
0.0153408
0.0150317
0.0147384
0.014458
0.0141881
0.0139268
0.0136722
0.0134226
0.0131765
0.0129323
0.0126886
0.0124441
0.0121973
0.0119466
0.0116907
0.0114278
0.0111562
0.010874
0.010579
0.0102687
0.00994039
0.00959106
0.00921658
0.00881373
0.00837571
0.00790024
0.00737528
0.00680224
0.00616208
0.00546411
0.00470119
0.00390391
0.00320937
0.00272626
0.0686729
0.0418324
0.0268434
0.0244342
0.0237662
0.022234
0.0207941
0.0197957
0.0190429
0.0183946
0.0178183
0.0173063
0.016848
0.0164324
0.0160511
0.0156979
0.0153679
0.015057
0.0147621
0.0144802
0.0142092
0.0139468
0.0136912
0.0134408
0.0131939
0.0129491
0.012705
0.01246
0.0122129
0.0119621
0.0117061
0.0114433
0.011172
0.0108903
0.010596
0.0102868
0.0099599
0.00961253
0.00924064
0.00884122
0.00840788
0.00793835
0.00742214
0.00685977
0.00623702
0.00556054
0.00483417
0.00408579
0.00345105
0.0030352
0.0663991
0.0420243
0.0273856
0.024613
0.0238881
0.0223685
0.0208991
0.0198721
0.0191063
0.0184505
0.0178676
0.0173499
0.016887
0.0164678
0.0160835
0.0157278
0.0153956
0.0150828
0.0147863
0.0145031
0.0142308
0.0139673
0.0137108
0.0134596
0.013212
0.0129666
0.012722
0.0124766
0.0122292
0.0119783
0.0117223
0.0114597
0.0111887
0.0109076
0.0106141
0.0103061
0.00998082
0.00963559
0.00926656
0.00887086
0.00844263
0.00797956
0.00747276
0.00692202
0.00631756
0.00566437
0.00497472
0.00427592
0.00369715
0.00334037
0.0642035
0.0421358
0.0279054
0.0247895
0.0240004
0.0224995
0.0210054
0.0199495
0.01917
0.0185069
0.0179175
0.017394
0.0169265
0.0165037
0.0161164
0.0157582
0.0154238
0.0151092
0.014811
0.0145264
0.0142529
0.0139884
0.0137309
0.0134789
0.0132306
0.0129847
0.0127395
0.0124939
0.0122462
0.0119952
0.0117393
0.0114769
0.0112063
0.0109258
0.0106333
0.0103266
0.0100031
0.00966016
0.00929424
0.00890256
0.00847981
0.00802368
0.00752685
0.00698863
0.00640312
0.0057746
0.00512145
0.00447179
0.00394527
0.00364009
0.0620874
0.0421694
0.0283998
0.0249647
0.0241032
0.0226258
0.0211126
0.0200279
0.0192339
0.0185636
0.0179679
0.0174388
0.0169667
0.0165402
0.0161499
0.0157891
0.0154525
0.0151361
0.0148363
0.0145503
0.0142755
0.0140099
0.0137516
0.0134987
0.0132498
0.0130032
0.0127577
0.0125117
0.0122638
0.0120127
0.0117569
0.0114948
0.0112247
0.0109449
0.0106535
0.0103482
0.0100266
0.0096862
0.00932362
0.00893624
0.00851933
0.0080706
0.00758423
0.0070593
0.00649321
0.00589036
0.00527322
0.00467141
0.00419368
0.00393369
0.0600514
0.042128
0.0288659
0.0251396
0.0241968
0.0227466
0.0212203
0.0201072
0.019298
0.0186206
0.0180189
0.0174841
0.0170074
0.0165772
0.0161839
0.0158205
0.0154818
0.0151635
0.014862
0.0145746
0.0142987
0.014032
0.0137727
0.0135191
0.0132695
0.0130224
0.0127764
0.0125301
0.0122821
0.0120309
0.0117752
0.0115134
0.0112439
0.010965
0.0106747
0.0103709
0.0100514
0.00971372
0.00935471
0.00897191
0.00856116
0.00812026
0.00764477
0.00713382
0.00658751
0.00601098
0.00542916
0.00487338
0.00444123
0.00422094
0.058096
0.0420152
0.0293009
0.0253148
0.0242816
0.0228608
0.021328
0.0201875
0.0193623
0.0186777
0.0180703
0.01753
0.0170486
0.0166147
0.0162184
0.0158525
0.0155116
0.0151914
0.0148883
0.0145995
0.0143223
0.0140546
0.0137944
0.01354
0.0132897
0.0130421
0.0127957
0.0125491
0.0123009
0.0120498
0.0117943
0.0115329
0.011264
0.010986
0.0106969
0.0103949
0.0100775
0.00974275
0.00938753
0.00900957
0.0086053
0.00817265
0.00770843
0.00721204
0.0066858
0.00613593
0.00558865
0.00507677
0.0046872
0.00450204
0.0562212
0.041835
0.0297021
0.0254904
0.0243582
0.0229677
0.021435
0.0202687
0.0194266
0.0187349
0.0181221
0.0175764
0.0170904
0.0166528
0.0162535
0.015885
0.0155419
0.0152198
0.0149151
0.0146249
0.0143465
0.0140777
0.0138166
0.0135614
0.0133105
0.0130623
0.0128155
0.0125687
0.0123204
0.0120694
0.0118141
0.0115532
0.011285
0.0110079
0.0107202
0.01042
0.0101051
0.00977332
0.00942212
0.00904928
0.00865179
0.00822779
0.00777519
0.00729388
0.00678792
0.00626481
0.00575123
0.00528097
0.00493121
0.00477739
0.0544266
0.0415915
0.030067
0.0256663
0.0244275
0.0230666
0.0215407
0.0203506
0.0194911
0.018792
0.0181741
0.0176232
0.0171326
0.0166914
0.0162891
0.015918
0.0155727
0.0152488
0.0149425
0.0146508
0.0143712
0.0141013
0.0138393
0.0135834
0.0133318
0.0130832
0.012836
0.012589
0.0123406
0.0120897
0.0118347
0.0115743
0.0113069
0.0110309
0.0107447
0.0104464
0.010134
0.0098055
0.00945854
0.00909109
0.00870067
0.0082857
0.00784507
0.00737928
0.00689374
0.00639732
0.00591653
0.00548561
0.00517305
0.00504744
0.0527113
0.0412897
0.0303934
0.0258421
0.0244901
0.0231569
0.0216443
0.0204332
0.0195557
0.018849
0.0182264
0.0176705
0.0171754
0.0167304
0.0163251
0.0159516
0.0156041
0.0152782
0.0149703
0.0146773
0.0143964
0.0141255
0.0138626
0.0136059
0.0133537
0.0131046
0.0128571
0.0126099
0.0123616
0.0121107
0.0118561
0.0115963
0.0113297
0.011055
0.0107703
0.0104741
0.0101644
0.00983935
0.00949685
0.00913506
0.00875201
0.00834645
0.0079181
0.00746819
0.00700318
0.00653321
0.00608426
0.00569044
0.00541263
0.0053126
0.0510741
0.0409345
0.0306794
0.0260166
0.024547
0.0232383
0.0217449
0.0205162
0.0196204
0.0189058
0.0182787
0.0177182
0.0172185
0.0167699
0.0163616
0.0159856
0.015636
0.0153082
0.0149987
0.0147042
0.0144222
0.0141503
0.0138865
0.013629
0.0133763
0.0131267
0.0128789
0.0126315
0.0123832
0.0121326
0.0118784
0.0116192
0.0113536
0.0110801
0.0107972
0.0105032
0.0101963
0.00987493
0.00953712
0.00918127
0.00880587
0.00841005
0.00799428
0.00756054
0.00711611
0.00667223
0.00625414
0.00589527
0.00564988
0.00557321
0.0495133
0.0405312
0.0309233
0.0261888
0.0245993
0.0233107
0.0218416
0.0205992
0.0196852
0.0189623
0.018331
0.0177661
0.0172621
0.0168098
0.0163986
0.0160201
0.0156683
0.0153388
0.0150276
0.0147318
0.0144485
0.0141756
0.013911
0.0136528
0.0133995
0.0131495
0.0129014
0.0126539
0.0124056
0.0121552
0.0119015
0.011643
0.0113785
0.0111064
0.0108253
0.0105336
0.0102298
0.0099123
0.0095794
0.00922977
0.0088623
0.00847655
0.00807364
0.00765629
0.00723243
0.00681419
0.00642591
0.00609995
0.00588478
0.00582953
0.0480272
0.0400853
0.0311238
0.026357
0.0246478
0.0233739
0.0219338
0.0206819
0.01975
0.0190184
0.0183832
0.0178143
0.0173061
0.0168502
0.016436
0.0160551
0.0157012
0.0153698
0.0150571
0.0147599
0.0144754
0.0142015
0.013936
0.0136771
0.0134233
0.0131729
0.0129246
0.012677
0.0124288
0.0121787
0.0119255
0.0116679
0.0114044
0.0111339
0.0108547
0.0105656
0.010265
0.00995153
0.00962377
0.00928061
0.00892135
0.00854597
0.00815616
0.00775537
0.00735201
0.00695886
0.00659933
0.00630433
0.00611731
0.00608174
0.0466136
0.0396025
0.0312801
0.0265191
0.0246935
0.0234283
0.0220204
0.0207639
0.0198149
0.0190741
0.018435
0.0178625
0.0173503
0.0168909
0.0164739
0.0160905
0.0157346
0.0154013
0.0150871
0.0147885
0.0145029
0.014228
0.0139617
0.0137021
0.0134477
0.013197
0.0129485
0.0127008
0.0124528
0.0122031
0.0119505
0.0116938
0.0114316
0.0111626
0.0108855
0.0105991
0.0103019
0.00999266
0.00967028
0.00933385
0.00898306
0.00861832
0.00824183
0.0078577
0.0074747
0.00710605
0.00677416
0.00650828
0.00634741
0.00632998
0.0452699
0.0390883
0.0313918
0.0266729
0.0247371
0.0234742
0.0221008
0.0208446
0.0198798
0.0191293
0.0184865
0.0179108
0.0173948
0.0169319
0.0165121
0.0161264
0.0157684
0.0154334
0.0151176
0.0148177
0.014531
0.0142551
0.0139879
0.0137278
0.0134729
0.0132218
0.0129731
0.0127255
0.0124777
0.0122284
0.0119765
0.0117208
0.0114599
0.0111926
0.0109178
0.0106342
0.0103405
0.0100358
0.00971898
0.00938954
0.00904747
0.00869361
0.00833063
0.00796319
0.00760035
0.00725555
0.00695016
0.00671165
0.00657507
0.00657431
0.0439936
0.0385483
0.031459
0.026816
0.0247792
0.0235121
0.0221743
0.0209233
0.0199444
0.019184
0.0185375
0.017959
0.0174396
0.0169733
0.0165506
0.0161626
0.0158027
0.015466
0.0151486
0.0148474
0.0145596
0.0142828
0.0140149
0.0137541
0.0134987
0.0132473
0.0129985
0.012751
0.0125035
0.0122547
0.0120036
0.0117488
0.0114894
0.011224
0.0109515
0.0106709
0.010381
0.0100809
0.00976993
0.00944771
0.0091146
0.00877184
0.0084225
0.00807175
0.00772881
0.00740715
0.0071271
0.0069143
0.00680023
0.00681479
0.0427819
0.0379879
0.0314825
0.0269458
0.0248204
0.0235428
0.0222404
0.0209995
0.0200087
0.0192382
0.0185879
0.018007
0.0174844
0.0170149
0.0165895
0.0161993
0.0158374
0.015499
0.0151802
0.0148777
0.0145888
0.0143111
0.0140424
0.013781
0.0135253
0.0132736
0.0130248
0.0127773
0.0125301
0.012282
0.0120317
0.0117781
0.0115202
0.0112568
0.0109868
0.0107093
0.0104233
0.0101281
0.00982318
0.0095084
0.00918447
0.00885299
0.00851739
0.00818325
0.00785988
0.00756064
0.00730478
0.00711607
0.00702284
0.00705141
0.0416317
0.0374123
0.0314632
0.0270599
0.0248605
0.0235669
0.0222987
0.0210723
0.0200724
0.0192918
0.0186375
0.0180546
0.0175293
0.0170567
0.0166286
0.0162363
0.0158725
0.0155325
0.0152122
0.0149085
0.0146186
0.01434
0.0140706
0.0138087
0.0135525
0.0133007
0.0130518
0.0128046
0.0125578
0.0123102
0.0120609
0.0118086
0.0115523
0.011291
0.0110237
0.0107495
0.0104676
0.0101775
0.00987876
0.00957164
0.00925708
0.00893703
0.00861524
0.00829758
0.00799341
0.0077158
0.00748296
0.00731682
0.00724282
0.00728418
0.0405401
0.036826
0.0314029
0.0271562
0.0248992
0.0235852
0.0223489
0.0211412
0.0201352
0.0193448
0.0186864
0.0181017
0.017574
0.0170986
0.016668
0.0162735
0.015908
0.0155664
0.0152448
0.0149399
0.014649
0.0143695
0.0140995
0.013837
0.0135806
0.0133286
0.0130797
0.0128327
0.0125864
0.0123396
0.0120912
0.0118403
0.0115857
0.0113267
0.0110622
0.0107915
0.0105139
0.010229
0.00993671
0.00963745
0.00933244
0.00902394
0.00871596
0.00841461
0.00812919
0.00787243
0.00766143
0.00751638
0.0074601
0.00751304
0.039504
0.0362333
0.0313037
0.0272329
0.0249359
0.0235985
0.0223911
0.0212054
0.0201967
0.0193972
0.0187344
0.0181482
0.0176186
0.0171406
0.0167076
0.0163111
0.0159439
0.0156008
0.0152779
0.0149718
0.0146799
0.0143997
0.014129
0.0138661
0.0136094
0.0133573
0.0131085
0.0128618
0.012616
0.01237
0.0121227
0.0118732
0.0116206
0.0113639
0.0111024
0.0108353
0.0105621
0.0102827
0.00999705
0.00970583
0.00941052
0.00911365
0.00881945
0.00853418
0.00826705
0.0080303
0.00783999
0.0077146
0.00767459
0.00773797
0.0385204
0.0356382
0.0311681
0.0272883
0.0249696
0.0236074
0.0224254
0.0212643
0.0202563
0.0194488
0.0187815
0.018194
0.0176629
0.0171827
0.0167473
0.0163489
0.0159801
0.0156356
0.0153114
0.0150043
0.0147114
0.0144304
0.0141592
0.0138959
0.0136389
0.0133868
0.0131382
0.0128918
0.0126466
0.0124015
0.0121555
0.0119076
0.0116569
0.0114027
0.0111443
0.010881
0.0106125
0.0103387
0.0100598
0.00977679
0.00949129
0.0092061
0.0089256
0.00865616
0.00840677
0.0081892
0.00801842
0.00791131
0.0078862
0.0079589
0.0375862
0.0350439
0.0309991
0.0273214
0.0249991
0.0236123
0.022452
0.0213173
0.0203137
0.0194994
0.0188276
0.0182389
0.0177068
0.0172246
0.0167872
0.0163869
0.0160166
0.0156707
0.0153454
0.0150372
0.0147435
0.0144619
0.0141901
0.0139265
0.0136693
0.0134172
0.0131687
0.0129228
0.0126783
0.0124342
0.0121895
0.0119432
0.0116947
0.0114432
0.0111879
0.0109286
0.0106649
0.0103969
0.010125
0.00985032
0.00957473
0.00930122
0.00903431
0.00878036
0.00854816
0.00834891
0.00819652
0.00810637
0.00809482
0.00817578
0.0366984
0.0344534
0.0307996
0.0273312
0.025023
0.0236138
0.0224715
0.0213641
0.0203682
0.0195489
0.0188727
0.0182829
0.01775
0.0172663
0.016827
0.016425
0.0160533
0.0157062
0.0153798
0.0150707
0.0147762
0.0144939
0.0142217
0.0139577
0.0137005
0.0134484
0.0132003
0.0129549
0.0127112
0.0124681
0.0122248
0.0119803
0.011734
0.0114852
0.0112334
0.0109782
0.0107194
0.0104574
0.0101926
0.00992639
0.00966078
0.00939893
0.00914544
0.00890663
0.00869102
0.0085092
0.00837408
0.0082996
0.00830035
0.00838852
0.0358543
0.0338691
0.0305731
0.0273173
0.0250399
0.023612
0.0224841
0.0214042
0.0204194
0.019597
0.0189167
0.0183257
0.0177926
0.0173078
0.0168668
0.0164633
0.0160902
0.015742
0.0154146
0.0151046
0.0148094
0.0145266
0.0142539
0.0139898
0.0137324
0.0134805
0.0132328
0.012988
0.0127451
0.0125032
0.0122614
0.0120189
0.0117749
0.011529
0.0112807
0.0110298
0.0107761
0.0105202
0.0102626
0.010005
0.00974938
0.00949912
0.00925884
0.00903478
0.00883512
0.00866986
0.00855089
0.00849085
0.00850269
0.00859706
0.035051
0.0332932
0.0303229
0.0272796
0.0250482
0.0236068
0.0224904
0.0214375
0.0204666
0.0196434
0.0189595
0.0183674
0.0178343
0.0173488
0.0169065
0.0165015
0.0161273
0.0157781
0.0154497
0.015139
0.0148432
0.0145598
0.0142869
0.0140226
0.0137652
0.0135136
0.0132662
0.0130221
0.0127802
0.0125396
0.0122994
0.0120588
0.0118174
0.0115746
0.0113299
0.0110834
0.010835
0.0105852
0.0103351
0.010086
0.00984045
0.00960168
0.00937437
0.00916462
0.00898026
0.00883067
0.00872677
0.00867995
0.00870172
0.00880133
0.0342859
0.0327271
0.0300522
0.0272187
0.0250465
0.0235981
0.022491
0.021464
0.0205093
0.0196878
0.019001
0.0184079
0.0178751
0.0173893
0.0169459
0.0165397
0.0161644
0.0158144
0.0154852
0.0151738
0.0148775
0.0145937
0.0143205
0.0140561
0.0137989
0.0135475
0.0133007
0.0130573
0.0128165
0.0125772
0.0123387
0.0121003
0.0118615
0.0116218
0.011381
0.011139
0.010896
0.0106526
0.0104099
0.0101695
0.00993391
0.0097065
0.00949187
0.00929597
0.00912623
0.00899141
0.00890151
0.00886676
0.00889733
0.00900126
0.0335567
0.0321723
0.0297644
0.0271352
0.0250337
0.0235854
0.0224862
0.0214837
0.0205472
0.0197297
0.019041
0.0184471
0.0179148
0.0174291
0.016985
0.0165779
0.0162017
0.0158508
0.0155211
0.0152091
0.0149122
0.0146282
0.0143548
0.0140904
0.0138334
0.0135824
0.0133361
0.0130937
0.0128539
0.0126161
0.0123795
0.0121434
0.0119073
0.0116709
0.011434
0.0111966
0.0109592
0.0107222
0.010487
0.0102554
0.0100297
0.00981343
0.00961117
0.00942861
0.0092728
0.00915187
0.00907492
0.00905113
0.00908944
0.00919678
0.0328609
0.0316296
0.0294623
0.02703
0.0250085
0.0235683
0.0224763
0.0214967
0.0205799
0.0197688
0.0190794
0.0184848
0.0179532
0.0174681
0.0170237
0.0166158
0.0162389
0.0158874
0.0155572
0.0152447
0.0149475
0.0146632
0.0143898
0.0141255
0.0138687
0.0136181
0.0133726
0.0131311
0.0128926
0.0126564
0.0124217
0.012188
0.0119547
0.0117218
0.0114889
0.0112564
0.0110245
0.0107941
0.0105665
0.0103435
0.0101276
0.00992234
0.0097321
0.00956236
0.00941977
0.00931183
0.00924681
0.00923289
0.00927793
0.00938784
0.0321965
0.0310997
0.0291489
0.0269046
0.0249703
0.0235459
0.0224617
0.0215033
0.020607
0.0198046
0.0191159
0.0185211
0.0179904
0.0175062
0.0170619
0.0166535
0.016276
0.0159241
0.0155935
0.0152807
0.0149833
0.0146988
0.0144254
0.0141613
0.0139049
0.0136549
0.0134102
0.0131697
0.0129326
0.012698
0.0124654
0.0122341
0.0120039
0.0117745
0.0115458
0.0113181
0.011092
0.0108682
0.0106482
0.0104338
0.0102276
0.0100331
0.00985446
0.009697
0.0095669
0.00947108
0.009417
0.00941193
0.00946271
0.0095744
0.0315614
0.0305831
0.0288267
0.0267604
0.0249186
0.0235176
0.0224425
0.0215038
0.0206284
0.0198367
0.0191503
0.0185557
0.0180261
0.0175432
0.0170994
0.0166909
0.016313
0.0159608
0.0156299
0.015317
0.0150194
0.014735
0.0144617
0.0141978
0.0139419
0.0136926
0.0134487
0.0132094
0.0129737
0.012741
0.0125105
0.0122818
0.0120547
0.011829
0.0116046
0.0113819
0.0111616
0.0109445
0.010732
0.0105262
0.0103296
0.0101455
0.00997808
0.00983233
0.009714
0.00962942
0.00958532
0.0095881
0.00964371
0.00975641
0.0309538
0.0300801
0.0284979
0.0265992
0.0248531
0.0234826
0.0224186
0.0214984
0.0206439
0.0198648
0.0191823
0.0185887
0.0180604
0.017579
0.0171361
0.0167278
0.0163498
0.0159975
0.0156665
0.0153536
0.015056
0.0147717
0.0144986
0.0142351
0.0139797
0.0137312
0.0134884
0.0132503
0.0130162
0.0127853
0.0125571
0.0123312
0.0121073
0.0118853
0.0116653
0.0114477
0.0112332
0.0110228
0.0108179
0.0106206
0.0104333
0.0102594
0.0101028
0.00996814
0.00986085
0.00978666
0.00975159
0.00976128
0.00982085
0.00993383
0.030372
0.0295906
0.0281648
0.0264225
0.0247739
0.0234402
0.0223899
0.0214874
0.0206536
0.0198885
0.0192115
0.0186197
0.018093
0.0176135
0.0171719
0.0167642
0.0163863
0.0160341
0.0157032
0.0153904
0.015093
0.0148089
0.0145361
0.0142731
0.0140184
0.0137707
0.013529
0.0132923
0.0130599
0.012831
0.0126052
0.0123821
0.0121615
0.0119434
0.0117279
0.0115155
0.0113069
0.0111032
0.0109058
0.0107168
0.0105387
0.0103746
0.0102283
0.0101042
0.0100072
0.0099426
0.00991566
0.00993135
0.00999405
0.0101067
0.0298143
0.0291146
0.027829
0.0262323
0.0246813
0.0233899
0.0223562
0.021471
0.0206575
0.0199076
0.0192377
0.0186486
0.0181239
0.0176465
0.0172067
0.0167999
0.0164225
0.0160705
0.0157399
0.0154273
0.0151302
0.0148465
0.0145743
0.0143119
0.0140579
0.0138113
0.0135707
0.0133355
0.0131048
0.0128781
0.0126548
0.0124347
0.0122175
0.0120034
0.0117924
0.0115853
0.0113826
0.0111855
0.0109956
0.0108148
0.0106456
0.0104909
0.0103545
0.0102403
0.010153
0.0100971
0.0100774
0.0100982
0.0101633
0.0102749
0.0292794
0.0286522
0.0274921
0.0260302
0.0245756
0.0233311
0.0223172
0.0214494
0.0206557
0.0199219
0.0192606
0.0186753
0.018153
0.0176781
0.0172403
0.0168348
0.0164581
0.0161066
0.0157765
0.0154644
0.0151678
0.0148846
0.0146129
0.0143513
0.0140983
0.0138527
0.0136135
0.0133799
0.0131511
0.0129266
0.0127059
0.0124888
0.0122752
0.0120651
0.0118588
0.0116569
0.0114601
0.0112697
0.0110872
0.0109144
0.0107538
0.0106083
0.0104812
0.0103763
0.0102978
0.0102498
0.0102366
0.0102618
0.0103285
0.0104385
0.0287658
0.0282029
0.0271555
0.025818
0.0244577
0.0232635
0.0222727
0.0214226
0.0206484
0.0199311
0.0192799
0.0186994
0.0181802
0.017708
0.0172726
0.0168688
0.0164932
0.0161425
0.015813
0.0155016
0.0152056
0.014923
0.0146522
0.0143914
0.0141394
0.013895
0.0136573
0.0134254
0.0131986
0.0129764
0.0127585
0.0125445
0.0123345
0.0121285
0.011927
0.0117303
0.0115395
0.0113557
0.0111803
0.0110154
0.0108631
0.0107263
0.0106081
0.010512
0.0104416
0.0104008
0.0103932
0.0104219
0.0104896
0.0105976
0.0282724
0.0277666
0.0268203
0.0255972
0.0243281
0.023187
0.0222224
0.0213907
0.0206356
0.0199354
0.0192954
0.0187209
0.0182053
0.0177362
0.0173035
0.0169018
0.0165277
0.016178
0.0158493
0.0155387
0.0152436
0.0149619
0.0146919
0.0144321
0.0141813
0.0139382
0.0137021
0.013472
0.0132473
0.0130276
0.0128125
0.0126018
0.0123955
0.0121937
0.0119969
0.0118056
0.0116206
0.0114433
0.0112751
0.0111177
0.0109735
0.010845
0.0107351
0.0106471
0.0105842
0.0105498
0.010547
0.0105786
0.0106467
0.0107521
0.027798
0.027343
0.0264874
0.0253695
0.024188
0.0231015
0.0221659
0.0213538
0.0206175
0.0199346
0.0193068
0.0187394
0.0182281
0.0177625
0.017333
0.0169337
0.0165613
0.0162129
0.0158854
0.0155758
0.0152817
0.015001
0.014732
0.0144734
0.0142239
0.0139823
0.0137479
0.0135197
0.0132973
0.0130801
0.0128679
0.0126606
0.012458
0.0122605
0.0120684
0.0118824
0.0117034
0.0115325
0.0113711
0.0112211
0.0110846
0.010964
0.010862
0.0107814
0.0107253
0.0106966
0.010698
0.0107318
0.0107996
0.0109022
0.0273415
0.0269319
0.0261576
0.0251361
0.0240382
0.0230072
0.0221031
0.0213117
0.0205943
0.0199287
0.019314
0.0187547
0.0182486
0.0177869
0.0173608
0.0169643
0.0165941
0.0162473
0.0159212
0.0156128
0.0153199
0.0150403
0.0147726
0.0145153
0.0142672
0.0140273
0.0137946
0.0135685
0.0133485
0.013134
0.0129248
0.0127208
0.0125221
0.0123289
0.0121416
0.0119609
0.0117877
0.011623
0.0114684
0.0113255
0.0111964
0.0110832
0.0109885
0.0109148
0.0108649
0.0108412
0.0108461
0.0108814
0.0109485
0.0110477
0.026902
0.0265328
0.0258317
0.0248983
0.0238797
0.0229044
0.0220337
0.0212643
0.020566
0.0199178
0.0193168
0.0187667
0.0182665
0.0178093
0.0173869
0.0169936
0.0166259
0.016281
0.0159565
0.0156496
0.015358
0.0150799
0.0148136
0.0145577
0.0143112
0.014073
0.0138423
0.0136184
0.0134008
0.0131891
0.012983
0.0127825
0.0125877
0.0123988
0.0122163
0.0120409
0.0118733
0.0117149
0.0115668
0.0114307
0.0113086
0.0112024
0.0111145
0.0110471
0.0110026
0.0109833
0.0109911
0.0110274
0.0110933
0.0111889
0.0264786
0.0261454
0.0255102
0.0246574
0.0237135
0.0227934
0.0219579
0.0212117
0.0205327
0.019902
0.0193153
0.0187752
0.0182817
0.0178294
0.0174112
0.0170214
0.0166565
0.016314
0.0159913
0.0156861
0.0153962
0.0151196
0.0148548
0.0146006
0.0143559
0.0141195
0.0138909
0.0136693
0.0134543
0.0132454
0.0130425
0.0128456
0.0126547
0.0124702
0.0122925
0.0121222
0.0119603
0.0118078
0.011666
0.0115365
0.011421
0.0113214
0.0112397
0.0111781
0.0111385
0.011123
0.011133
0.0111698
0.0112341
0.0113258
0.0260704
0.0257695
0.0251935
0.0244142
0.0235406
0.0226747
0.0218755
0.0211538
0.0204944
0.0198813
0.0193093
0.0187801
0.018294
0.0178472
0.0174335
0.0170476
0.016686
0.016346
0.0160256
0.0157223
0.0154342
0.0151594
0.0148964
0.0146439
0.0144011
0.0141668
0.0139403
0.0137212
0.0135088
0.0133029
0.0131033
0.01291
0.0127231
0.0125429
0.0123699
0.0122048
0.0120484
0.0119017
0.011766
0.0116427
0.0115335
0.01144
0.0113641
0.0113076
0.0112724
0.0112599
0.0112717
0.0113085
0.0113708
0.0114584
0.0256767
0.0254046
0.024882
0.0241698
0.0233621
0.022549
0.0217866
0.0210905
0.0204513
0.0198559
0.0192989
0.0187811
0.0183033
0.0178626
0.0174539
0.0170722
0.0167141
0.0163771
0.0160591
0.0157581
0.015472
0.0151991
0.0149381
0.0146876
0.0144468
0.0142147
0.0139906
0.0137739
0.0135643
0.0133615
0.0131652
0.0129756
0.0127927
0.0126169
0.0124486
0.0122885
0.0121374
0.0119964
0.0118665
0.0117492
0.0116458
0.011558
0.0114873
0.0114355
0.011404
0.0113942
0.0114071
0.0114435
0.0115035
0.0115869
0.0252968
0.0250506
0.0245759
0.0239251
0.0231787
0.0224167
0.0216916
0.0210219
0.0204033
0.0198257
0.019284
0.0187783
0.0183095
0.0178755
0.0174722
0.0170951
0.0167409
0.0164071
0.0160919
0.0157933
0.0155095
0.0152388
0.0149799
0.0147316
0.014493
0.0142632
0.0140415
0.0138276
0.0136208
0.0134211
0.0132282
0.0130423
0.0128634
0.0126919
0.0125283
0.0123732
0.0122274
0.0120917
0.0119674
0.0118556
0.0117578
0.0116752
0.0116093
0.0115616
0.0115334
0.0115256
0.0115393
0.0115748
0.0116323
0.0117113
0.0249301
0.024707
0.0242756
0.0236806
0.0229915
0.0222786
0.0215906
0.0209481
0.0203506
0.019791
0.0192648
0.0187717
0.0183124
0.0178857
0.0174882
0.017116
0.0167661
0.016436
0.0161239
0.015828
0.0155467
0.0152784
0.0150218
0.0147758
0.0145395
0.0143122
0.0140932
0.013882
0.0136782
0.0134817
0.0132923
0.0131101
0.0129352
0.0127681
0.012609
0.0124587
0.0123179
0.0121875
0.0120685
0.011962
0.0118692
0.0117914
0.0117299
0.0116858
0.0116603
0.0116542
0.0116682
0.0117025
0.0117572
0.0118316
0.0245759
0.0243736
0.0239813
0.0234371
0.0228012
0.0221352
0.021484
0.020869
0.0202931
0.0197518
0.0192412
0.018761
0.0183119
0.0178931
0.0175019
0.0171351
0.0167897
0.0164635
0.0161548
0.015862
0.0155834
0.0153177
0.0150636
0.0148202
0.0145864
0.0143617
0.0141454
0.0139371
0.0137364
0.0135431
0.0133573
0.0131788
0.013008
0.012845
0.0126905
0.0125449
0.012409
0.0122836
0.0121696
0.012068
0.01198
0.0119065
0.0118489
0.0118079
0.0117847
0.0117798
0.0117937
0.0118265
0.0118782
0.0119481
0.0242336
0.02405
0.023693
0.0231952
0.0226086
0.0219872
0.0213722
0.020785
0.0202311
0.0197081