/*--------------------------------*- C++ -*----------------------------------*\
  =========                 |
  \\      /  F ield         | OpenFOAM: The Open Source CFD Toolbox
   \\    /   O peration     | Website:  https://openfoam.org
    \\  /    A nd           | Version:  7
     \\/     M anipulation  |
\*---------------------------------------------------------------------------*/
FoamFile
{
    version     2.0;
    format      ascii;
    class       surfaceScalarField;
    location    "0.1";
    object      phi;
}
// * * * * * * * * * * * * * * * * * * * * * * * * * * * * * * * * * * * * * //

dimensions      [0 3 -1 0 0 0 0];

internalField   nonuniform List<scalar> 
139350
(
6.45125e-08
9.2119e-08
3.19654e-08
3.25471e-08
2.306e-08
8.90543e-09
1.95746e-08
3.48539e-09
1.76217e-08
1.9529e-09
1.61902e-08
1.43147e-09
1.50558e-08
1.13442e-09
1.41418e-08
9.13996e-10
1.33896e-08
7.52238e-10
1.27558e-08
6.33809e-10
1.22116e-08
5.44181e-10
1.17377e-08
4.73895e-10
1.13204e-08
4.17352e-10
1.09493e-08
3.71026e-10
1.06168e-08
3.32508e-10
1.03168e-08
3.00073e-10
1.00443e-08
2.72454e-10
9.7956e-09
2.48701e-10
9.5675e-09
2.28093e-10
9.35743e-09
2.10071e-10
9.16323e-09
1.94201e-10
8.9831e-09
1.80135e-10
8.8155e-09
1.67595e-10
8.65915e-09
1.56354e-10
8.51292e-09
1.46224e-10
8.37587e-09
1.37049e-10
8.24718e-09
1.28697e-10
8.12612e-09
1.21054e-10
8.0121e-09
1.14019e-10
7.90459e-09
1.07513e-10
7.80315e-09
1.0144e-10
7.70739e-09
9.57574e-11
7.61704e-09
9.03507e-11
7.53182e-09
8.52247e-11
7.45162e-09
8.02014e-11
7.37624e-09
7.53742e-11
7.30582e-09
7.04245e-11
7.24023e-09
6.55906e-11
7.17989e-09
6.03367e-11
7.12488e-09
5.50147e-11
7.07587e-09
4.9006e-11
7.03369e-09
4.21753e-11
6.99865e-09
3.50425e-11
6.9746e-09
2.40556e-11
6.95835e-09
1.62496e-11
6.96522e-09
-6.87282e-12
6.97464e-09
-9.42122e-12
7.06282e-09
-8.81788e-11
6.9698e-09
9.30183e-11
-3.39072e-09
1.03605e-08
1.25944e-07
1.27619e-07
9.1291e-08
6.71999e-08
7.19378e-08
2.82586e-08
6.12207e-08
1.42025e-08
5.47817e-08
8.3919e-09
5.02833e-08
5.92987e-09
4.67947e-08
4.623e-09
4.39769e-08
3.73182e-09
4.16492e-08
3.07997e-09
3.96861e-08
2.5969e-09
3.80004e-08
2.22984e-09
3.65321e-08
1.94218e-09
3.52385e-08
1.71096e-09
3.4088e-08
1.52157e-09
3.30564e-08
1.36409e-09
3.2125e-08
1.23146e-09
3.1279e-08
1.11851e-09
3.05063e-08
1.02136e-09
2.97973e-08
9.37076e-10
2.9144e-08
8.63379e-10
2.85397e-08
7.98492e-10
2.79789e-08
7.41003e-10
2.74567e-08
6.89777e-10
2.69691e-08
6.43888e-10
2.65128e-08
6.02574e-10
2.60846e-08
5.652e-10
2.56821e-08
5.31229e-10
2.5303e-08
5.00204e-10
2.49453e-08
4.71723e-10
2.46073e-08
4.45454e-10
2.42877e-08
4.21059e-10
2.39851e-08
3.98314e-10
2.36986e-08
3.76861e-10
2.34272e-08
3.56617e-10
2.31704e-08
3.37061e-10
2.29274e-08
3.1838e-10
2.26982e-08
2.99602e-10
2.24823e-08
2.81486e-10
2.22806e-08
2.62071e-10
2.20924e-08
2.43207e-10
2.19202e-08
2.2113e-10
2.17632e-08
1.99236e-10
2.16267e-08
1.71503e-10
2.15095e-08
1.41249e-10
2.14216e-08
1.04136e-10
2.13665e-08
4.82827e-11
2.13478e-08
9.2956e-12
2.14557e-08
-1.96112e-10
2.14477e-08
1.00971e-10
-4.47312e-09
2.25301e-08
1.58753e-07
1.3527e-07
1.36528e-07
8.94243e-08
1.17495e-07
4.7292e-08
1.03316e-07
2.83812e-08
9.33197e-08
1.83885e-08
8.60161e-08
1.32335e-08
8.03048e-08
1.03343e-08
7.56497e-08
8.38692e-09
7.17685e-08
6.96118e-09
6.84735e-08
5.89187e-09
6.56313e-08
5.072e-09
6.31472e-08
4.42636e-09
6.09523e-08
3.9058e-09
5.89956e-08
3.47829e-09
5.72377e-08
3.12202e-09
5.56477e-08
2.82139e-09
5.42013e-08
2.56494e-09
5.28786e-08
2.34407e-09
5.16635e-08
2.15221e-09
5.05426e-08
1.9843e-09
4.95047e-08
1.83634e-09
4.85405e-08
1.70517e-09
4.76421e-08
1.58824e-09
4.68025e-08
1.48346e-09
4.6016e-08
1.38912e-09
4.52774e-08
1.30379e-09
4.45823e-08
1.22626e-09
4.39271e-08
1.15549e-09
4.33082e-08
1.0906e-09
4.27228e-08
1.03082e-09
4.21684e-08
9.75444e-10
4.16428e-08
9.23914e-10
4.11442e-08
8.75533e-10
4.06708e-08
8.30012e-10
4.02214e-08
7.8639e-10
3.97949e-08
7.44887e-10
3.93909e-08
7.03683e-10
3.90081e-08
6.64221e-10
3.86477e-08
6.22448e-10
3.83082e-08
5.82746e-10
3.79935e-08
5.35863e-10
3.77001e-08
4.92634e-10
3.74386e-08
4.32972e-10
3.72005e-08
3.79375e-10
3.70099e-08
2.94685e-10
3.68523e-08
2.0593e-10
3.67629e-08
9.86556e-11
3.67956e-08
-2.28843e-10
3.68951e-08
1.49485e-12
-4.63791e-09
3.70599e-08
1.75612e-07
1.31174e-07
1.65625e-07
9.94109e-08
1.52737e-07
6.01799e-08
1.40127e-07
4.09914e-08
1.29444e-07
2.90715e-08
1.20801e-07
2.18763e-08
1.13685e-07
1.7451e-08
1.07699e-07
1.43724e-08
1.02595e-07
1.20656e-08
9.81889e-08
1.02977e-08
9.43417e-08
8.91923e-09
9.09474e-08
7.82062e-09
8.79261e-08
6.92705e-09
8.52163e-08
6.18814e-09
8.27695e-08
5.56883e-09
8.05471e-08
5.04375e-09
7.8518e-08
4.59402e-09
7.66567e-08
4.20537e-09
7.49422e-08
3.86679e-09
7.33567e-08
3.56971e-09
7.18857e-08
3.30739e-09
7.05165e-08
3.07439e-09
6.92383e-08
2.86636e-09
6.80421e-08
2.67971e-09
6.69198e-08
2.51146e-09
6.58644e-08
2.35915e-09
6.487e-08
2.22067e-09
6.39312e-08
2.09423e-09
6.30435e-08
1.97829e-09
6.22029e-08
1.87152e-09
6.14056e-08
1.77269e-09
6.06487e-08
1.68081e-09
5.99295e-08
1.59477e-09
5.92455e-08
1.51395e-09
5.8595e-08
1.43689e-09
5.79762e-08
1.36377e-09
5.7388e-08
1.29181e-09
5.68291e-08
1.22319e-09
5.63001e-08
1.15141e-09
5.5799e-08
1.08389e-09
5.53301e-08
1.00467e-09
5.48888e-08
9.34005e-10
5.44877e-08
8.34027e-10
5.4115e-08
7.52078e-10
5.38006e-08
6.09115e-10
5.35235e-08
4.83034e-10
5.33311e-08
2.91008e-10
5.32523e-08
-1.50048e-10
5.33515e-08
-9.77045e-11
-4.5179e-09
5.32315e-08
1.8451e-07
1.23448e-07
1.82342e-07
1.01579e-07
1.76123e-07
6.63986e-08
1.67766e-07
4.93491e-08
1.59144e-07
3.76928e-08
1.51235e-07
2.97853e-08
1.44158e-07
2.45282e-08
1.37853e-07
2.06775e-08
1.32248e-07
1.76711e-08
1.27258e-07
1.52878e-08
1.22797e-07
1.33795e-08
1.1879e-07
1.18276e-08
1.15172e-07
1.05455e-08
1.11888e-07
9.47187e-09
1.08894e-07
8.56266e-09
1.06153e-07
7.78511e-09
1.03633e-07
7.1143e-09
1.01307e-07
6.53098e-09
9.91537e-08
6.02011e-09
9.71536e-08
5.56981e-09
9.52904e-08
5.17057e-09
9.35501e-08
4.81473e-09
9.19204e-08
4.49603e-09
9.03908e-08
4.20931e-09
8.8952e-08
3.95026e-09
8.75959e-08
3.71526e-09
8.63153e-08
3.50124e-09
8.5104e-08
3.30554e-09
8.39564e-08
3.1259e-09
8.28676e-08
2.96032e-09
8.18333e-08
2.80701e-09
8.08496e-08
2.66448e-09
7.99133e-08
2.53111e-09
7.90213e-08
2.40592e-09
7.81713e-08
2.28689e-09
7.7361e-08
2.17411e-09
7.6589e-08
2.06379e-09
7.58534e-08
1.9588e-09
7.51546e-08
1.85014e-09
7.44903e-08
1.74824e-09
7.38646e-08
1.63037e-09
7.32726e-08
1.52606e-09
7.27266e-08
1.38e-09
7.22156e-08
1.26302e-09
7.17673e-08
1.05745e-09
7.1366e-08
8.84295e-10
7.10526e-08
6.04485e-10
7.08562e-08
4.6294e-11
7.08648e-08
-1.06252e-10
-4.26497e-09
7.06118e-08
1.90343e-07
1.15322e-07
1.9186e-07
1.00061e-07
1.90265e-07
6.79938e-08
1.86161e-07
5.34536e-08
1.80721e-07
4.31324e-08
1.74967e-07
3.55396e-08
1.69266e-07
3.02289e-08
1.63777e-07
2.61671e-08
1.58596e-07
2.2852e-08
1.53766e-07
2.01176e-08
1.4929e-07
1.78554e-08
1.45152e-07
1.5966e-08
1.41327e-07
1.43704e-08
1.37789e-07
1.30098e-08
1.34512e-07
1.18398e-08
1.3147e-07
1.08263e-08
1.28642e-07
9.94221e-09
1.26007e-07
9.16612e-09
1.23547e-07
8.48082e-09
1.21244e-07
7.87243e-09
1.19085e-07
7.32965e-09
1.17056e-07
6.84319e-09
1.15147e-07
6.40536e-09
1.13347e-07
6.00975e-09
1.11646e-07
5.65093e-09
1.10037e-07
5.3243e-09
1.08512e-07
5.02592e-09
1.07065e-07
4.75236e-09
1.05691e-07
4.50066e-09
1.04383e-07
4.26819e-09
1.03137e-07
4.05264e-09
1.0195e-07
3.85198e-09
1.00817e-07
3.66411e-09
9.97349e-08
3.48767e-09
9.87017e-08
3.32012e-09
9.77145e-08
3.16134e-09
9.67716e-08
3.00666e-09
9.5871e-08
2.85943e-09
9.50127e-08
2.70846e-09
9.41943e-08
2.56658e-09
9.34193e-08
2.40535e-09
9.26838e-08
2.26157e-09
9.19977e-08
2.06612e-09
9.13542e-08
1.90655e-09
9.0773e-08
1.63863e-09
9.02514e-08
1.40585e-09
8.98127e-08
1.04323e-09
8.94997e-08
3.59298e-10
8.93862e-08
7.27967e-12
-3.88083e-09
8.9002e-08
1.95504e-07
1.07632e-07
1.98248e-07
9.73177e-08
1.98988e-07
6.72539e-08
1.97795e-07
5.46466e-08
1.95161e-07
4.57666e-08
1.9182e-07
3.88807e-08
1.88085e-07
3.3964e-08
1.84129e-07
3.01231e-08
1.80103e-07
2.68781e-08
1.76117e-07
2.41034e-08
1.7224e-07
2.17325e-08
1.6851e-07
1.96958e-08
1.64948e-07
1.79325e-08
1.61562e-07
1.63958e-08
1.58352e-07
1.50493e-08
1.55315e-07
1.38636e-08
1.52443e-07
1.28143e-08
1.49728e-07
1.18816e-08
1.4716e-07
1.10488e-08
1.4473e-07
1.03023e-08
1.42429e-07
9.63052e-09
1.40248e-07
9.02378e-09
1.3818e-07
8.47394e-09
1.36215e-07
7.97404e-09
1.34348e-07
7.51811e-09
1.32572e-07
7.10101e-09
1.30879e-07
6.71826e-09
1.29266e-07
6.36593e-09
1.27726e-07
6.04058e-09
1.26255e-07
5.73912e-09
1.24849e-07
5.45882e-09
1.23503e-07
5.19722e-09
1.22216e-07
4.95186e-09
1.20982e-07
4.721e-09
1.19801e-07
4.50167e-09
1.18669e-07
4.29354e-09
1.17584e-07
4.09122e-09
1.16545e-07
3.89827e-09
1.15552e-07
3.70187e-09
1.14602e-07
3.5163e-09
1.13698e-07
3.30915e-09
1.12838e-07
3.12143e-09
1.12029e-07
2.87562e-09
1.11269e-07
2.66678e-09
1.10568e-07
2.33938e-09
1.09938e-07
2.03598e-09
1.09384e-07
1.59695e-09
1.08958e-07
7.85321e-10
1.08722e-07
2.43088e-10
-3.3676e-09
1.08209e-07
2.0082e-07
1.00397e-07
2.03773e-07
9.43644e-08
2.05348e-07
6.5679e-08
2.0565e-07
5.43441e-08
2.04821e-07
4.65963e-08
2.03341e-07
4.03606e-08
2.01391e-07
3.59139e-08
1.99056e-07
3.24579e-08
1.96443e-07
2.94907e-08
1.93656e-07
2.68907e-08
1.90775e-07
2.46139e-08
1.8786e-07
2.26106e-08
1.84956e-07
2.08362e-08
1.82095e-07
1.92566e-08
1.793e-07
1.7845e-08
1.76584e-07
1.65796e-08
1.73956e-07
1.54417e-08
1.71422e-07
1.44154e-08
1.68984e-07
1.34871e-08
1.66641e-07
1.26452e-08
1.64392e-07
1.18794e-08
1.62235e-07
1.11812e-08
1.60166e-07
1.05429e-08
1.58182e-07
9.9581e-09
1.56279e-07
9.4209e-09
1.54454e-07
8.92624e-09
1.52703e-07
8.46963e-09
1.51021e-07
8.04703e-09
1.49407e-07
7.65487e-09
1.47856e-07
7.28987e-09
1.46366e-07
6.94911e-09
1.44933e-07
6.62991e-09
1.43556e-07
6.32958e-09
1.42231e-07
6.04613e-09
1.40956e-07
5.77632e-09
1.3973e-07
5.51961e-09
1.38551e-07
5.27013e-09
1.37418e-07
5.03141e-09
1.3633e-07
4.78962e-09
1.35287e-07
4.55955e-09
1.34289e-07
4.30666e-09
1.33338e-07
4.07307e-09
1.32435e-07
3.7783e-09
1.31586e-07
3.51614e-09
1.30791e-07
3.13351e-09
1.30074e-07
2.75327e-09
1.29428e-07
2.2429e-09
1.28902e-07
1.31151e-09
1.28555e-07
5.89919e-10
-2.74571e-09
1.27933e-07
2.06423e-07
9.35066e-08
2.09333e-07
9.14547e-08
2.11059e-07
6.39526e-08
2.11941e-07
5.3462e-08
2.12005e-07
4.65321e-08
2.1162e-07
4.07454e-08
2.1089e-07
3.66447e-08
2.09816e-07
3.3532e-08
2.08437e-07
3.08693e-08
2.06812e-07
2.85153e-08
2.04998e-07
2.64285e-08
2.03042e-07
2.4566e-08
2.00989e-07
2.28899e-08
1.98873e-07
2.13724e-08
1.96724e-07
1.99936e-08
1.94566e-07
1.87375e-08
1.92418e-07
1.75906e-08
1.90292e-07
1.65412e-08
1.882e-07
1.55793e-08
1.86149e-07
1.4696e-08
1.84145e-07
1.38833e-08
1.82192e-07
1.31345e-08
1.80291e-07
1.24433e-08
1.78445e-07
1.18043e-08
1.76653e-07
1.12124e-08
1.74916e-07
1.06633e-08
1.73233e-07
1.01528e-08
1.71603e-07
9.67724e-09
1.70025e-07
9.23327e-09
1.68497e-07
8.81775e-09
1.67018e-07
8.4278e-09
1.65587e-07
8.06077e-09
1.64203e-07
7.71394e-09
1.62864e-07
7.38525e-09
1.61569e-07
7.07133e-09
1.60317e-07
6.77151e-09
1.59107e-07
6.47967e-09
1.57939e-07
6.1992e-09
1.56813e-07
5.91579e-09
1.55729e-07
5.64397e-09
1.54687e-07
5.34868e-09
1.53689e-07
5.07062e-09
1.52737e-07
4.73079e-09
1.51838e-07
4.41505e-09
1.50989e-07
3.98263e-09
1.50217e-07
3.52522e-09
1.49512e-07
2.94806e-09
1.4891e-07
1.91271e-09
1.48473e-07
1.0272e-09
-2.04508e-09
1.47773e-07
2.12269e-07
8.68996e-08
2.15141e-07
8.85825e-08
2.16814e-07
6.22802e-08
2.17856e-07
5.24203e-08
2.18265e-07
4.61226e-08
2.18383e-07
4.06279e-08
2.18306e-07
3.67213e-08
2.18004e-07
3.38344e-08
2.17469e-07
3.14037e-08
2.16722e-07
2.92629e-08
2.15785e-07
2.73653e-08
2.14684e-07
2.56668e-08
2.13445e-07
2.41286e-08
2.12094e-07
2.27237e-08
2.10654e-07
2.14337e-08
2.09146e-07
2.02452e-08
2.0759e-07
1.91471e-08
2.06e-07
1.81306e-08
2.04392e-07
1.7188e-08
2.02775e-07
1.63126e-08
2.0116e-07
1.54987e-08
1.99553e-07
1.4741e-08
1.97962e-07
1.40349e-08
1.9639e-07
1.33761e-08
1.94842e-07
1.27607e-08
1.9332e-07
1.21851e-08
1.91827e-07
1.1646e-08
1.90364e-07
1.11401e-08
1.88932e-07
1.06648e-08
1.87533e-07
1.02171e-08
1.86166e-07
9.79442e-09
1.84833e-07
9.39437e-09
1.83532e-07
9.01436e-09
1.82265e-07
8.6524e-09
1.81031e-07
8.30516e-09
1.79831e-07
7.97194e-09
1.78664e-07
7.64655e-09
1.77531e-07
7.3322e-09
1.76432e-07
7.01451e-09
1.75369e-07
6.70724e-09
1.74342e-07
6.37604e-09
1.73354e-07
6.05837e-09
1.72405e-07
5.67996e-09
1.71505e-07
5.31431e-09
1.70649e-07
4.83903e-09
1.69864e-07
4.3097e-09
1.69141e-07
3.67136e-09
1.68501e-07
2.55306e-09
1.68003e-07
1.52465e-09
-1.30161e-09
1.6726e-07
2.18315e-07
8.05653e-08
2.21191e-07
8.57067e-08
2.22787e-07
6.06843e-08
2.23857e-07
5.13502e-08
2.24375e-07
4.56045e-08
2.2467e-07
4.03328e-08
2.2487e-07
3.65213e-08
2.24946e-07
3.37582e-08
2.24878e-07
3.14719e-08
2.24666e-07
2.94753e-08
2.24314e-07
2.77172e-08
2.23828e-07
2.61521e-08
2.23219e-07
2.47382e-08
2.22496e-07
2.34461e-08
2.21674e-07
2.22562e-08
2.20764e-07
2.11546e-08
2.19781e-07
2.01306e-08
2.18736e-07
1.91759e-08
2.1764e-07
1.82836e-08
2.16504e-07
1.74484e-08
2.15338e-07
1.66653e-08
2.14149e-07
1.59303e-08
2.12944e-07
1.52397e-08
2.11729e-07
1.45903e-08
2.10511e-07
1.3979e-08
2.09293e-07
1.3403e-08
2.08079e-07
1.28596e-08
2.06873e-07
1.23463e-08
2.05677e-07
1.18607e-08
2.04494e-07
1.14004e-08
2.03325e-07
1.09632e-08
2.02173e-07
1.0547e-08
2.01038e-07
1.01493e-08
1.99922e-07
9.76846e-09
1.98826e-07
9.40118e-09
1.97751e-07
9.04684e-09
1.96698e-07
8.69929e-09
1.95669e-07
8.36154e-09
1.94664e-07
8.01947e-09
1.93685e-07
7.68571e-09
1.92734e-07
7.32753e-09
1.91814e-07
6.97789e-09
1.90925e-07
6.56948e-09
1.90078e-07
6.16093e-09
1.89266e-07
5.65118e-09
1.88516e-07
5.05968e-09
1.8782e-07
4.36767e-09
1.87182e-07
3.19026e-09
1.86662e-07
2.04492e-09
-5.55023e-10
1.85916e-07
2.24549e-07
7.45097e-08
2.27451e-07
8.28047e-08
2.28983e-07
5.91524e-08
2.3006e-07
5.02729e-08
2.30619e-07
4.50459e-08
2.30962e-07
3.99891e-08
2.31252e-07
3.62316e-08
2.31476e-07
3.35338e-08
2.31617e-07
3.13313e-08
2.31672e-07
2.942e-08
2.31641e-07
2.7748e-08
2.31523e-07
2.62707e-08
2.31316e-07
2.49449e-08
2.31023e-07
2.3739e-08
2.30648e-07
2.26315e-08
2.30195e-07
2.16073e-08
2.29671e-07
2.06546e-08
2.29082e-07
1.97648e-08
2.28435e-07
1.89307e-08
2.27737e-07
1.81467e-08
2.26994e-07
1.74084e-08
2.26212e-07
1.67119e-08
2.25398e-07
1.60541e-08
2.24556e-07
1.54319e-08
2.23692e-07
1.48429e-08
2.22811e-07
1.42847e-08
2.21915e-07
1.37551e-08
2.21009e-07
1.32519e-08
2.20097e-07
1.27732e-08
2.19181e-07
1.23168e-08
2.18263e-07
1.18809e-08
2.17346e-07
1.14637e-08
2.16433e-07
1.10628e-08
2.15524e-07
1.06768e-08
2.14623e-07
1.03025e-08
2.1373e-07
9.93944e-09
2.12848e-07
9.58148e-09
2.11978e-07
9.23145e-09
2.11122e-07
8.87567e-09
2.10282e-07
8.52539e-09
2.0946e-07
8.15016e-09
2.0866e-07
7.77765e-09
2.07881e-07
7.34881e-09
2.07135e-07
6.90646e-09
2.06415e-07
6.37138e-09
2.05744e-07
5.73047e-09
2.05118e-07
4.99406e-09
2.04526e-07
3.78193e-09
2.04022e-07
2.54905e-09
1.55075e-10
2.03312e-07
2.30975e-07
6.8741e-08
2.33912e-07
7.98676e-08
2.35387e-07
5.76775e-08
2.36472e-07
4.91873e-08
2.37064e-07
4.44543e-08
2.37422e-07
3.96305e-08
2.37734e-07
3.59202e-08
2.38004e-07
3.32633e-08
2.38221e-07
3.1115e-08
2.38385e-07
2.92554e-08
2.385e-07
2.76331e-08
2.38564e-07
2.62072e-08
2.38573e-07
2.49353e-08
2.38527e-07
2.37849e-08
2.38425e-07
2.27335e-08
2.38268e-07
2.17648e-08
2.38056e-07
2.08666e-08
2.37792e-07
2.00291e-08
2.37477e-07
1.92447e-08
2.37117e-07
1.85075e-08
2.36713e-07
1.78125e-08
2.36269e-07
1.7156e-08
2.35788e-07
1.65344e-08
2.35275e-07
1.59451e-08
2.34733e-07
1.53854e-08
2.34164e-07
1.48533e-08
2.33573e-07
1.43465e-08
2.32961e-07
1.38632e-08
2.32333e-07
1.34014e-08
2.31691e-07
1.29595e-08
2.31036e-07
1.25355e-08
2.30372e-07
1.21278e-08
2.297e-07
1.17343e-08
2.29024e-07
1.13536e-08
2.28344e-07
1.09826e-08
2.27662e-07
1.06208e-08
2.26981e-07
1.02623e-08
2.26303e-07
9.90958e-09
2.25629e-07
9.54956e-09
2.24963e-07
9.19189e-09
2.24304e-07
8.80882e-09
2.23659e-07
8.42228e-09
2.23026e-07
7.98212e-09
2.22417e-07
7.5156e-09
2.21824e-07
6.96398e-09
2.21267e-07
6.28747e-09
2.20745e-07
5.51695e-09
2.20234e-07
4.29266e-09
2.19781e-07
3.00231e-09
7.95772e-10
2.1914e-07
2.37601e-07
6.32647e-08
2.40577e-07
7.68913e-08
2.41995e-07
5.62596e-08
2.43088e-07
4.80944e-08
2.43716e-07
4.38262e-08
2.44088e-07
3.9259e-08
2.44405e-07
3.56033e-08
2.44688e-07
3.29804e-08
2.44927e-07
3.0876e-08
2.45128e-07
2.90543e-08
2.45297e-07
2.74638e-08
2.45436e-07
2.60686e-08
2.45543e-07
2.48284e-08
2.45617e-07
2.37109e-08
2.45657e-07
2.26935e-08
2.45661e-07
2.17598e-08
2.45631e-07
2.08971e-08
2.45565e-07
2.00953e-08
2.45463e-07
1.93463e-08
2.45327e-07
1.86438e-08
2.45157e-07
1.79827e-08
2.44954e-07
1.73585e-08
2.4472e-07
1.6768e-08
2.44458e-07
1.6208e-08
2.44167e-07
1.56759e-08
2.43851e-07
1.51695e-08
2.43511e-07
1.46865e-08
2.43149e-07
1.42251e-08
2.42767e-07
1.37835e-08
2.42367e-07
1.33597e-08
2.4195e-07
1.29521e-08
2.41519e-07
1.2559e-08
2.41075e-07
1.21783e-08
2.4062e-07
1.18087e-08
2.40155e-07
1.1447e-08
2.39683e-07
1.10929e-08
2.39205e-07
1.07403e-08
2.38723e-07
1.03914e-08
2.38239e-07
1.00339e-08
2.37755e-07
9.67559e-09
2.37272e-07
9.29172e-09
2.36796e-07
8.89834e-09
2.36324e-07
8.45413e-09
2.35868e-07
7.97208e-09
2.35421e-07
7.41123e-09
2.34996e-07
6.71214e-09
2.34595e-07
5.9176e-09
2.34188e-07
4.70018e-09
2.33809e-07
3.3807e-09
1.3447e-09
2.3326e-07
2.44436e-07
5.80847e-08
2.47451e-07
7.38764e-08
2.48814e-07
5.4897e-08
2.49909e-07
4.69987e-08
2.50576e-07
4.31596e-08
2.50964e-07
3.8871e-08
2.51285e-07
3.5282e-08
2.51574e-07
3.2692e-08
2.5182e-07
3.06294e-08
2.52032e-07
2.88425e-08
2.52218e-07
2.72775e-08
2.52383e-07
2.59042e-08
2.52526e-07
2.46848e-08
2.52649e-07
2.35879e-08
2.52752e-07
2.25912e-08
2.52833e-07
2.16786e-08
2.52893e-07
2.08374e-08
2.5293e-07
2.00576e-08
2.52946e-07
1.9331e-08
2.52938e-07
1.86511e-08
2.52908e-07
1.80126e-08
2.52856e-07
1.7411e-08
2.52781e-07
1.68427e-08
2.52685e-07
1.63045e-08
2.52567e-07
1.57937e-08
2.52429e-07
1.53078e-08
2.5227e-07
1.48447e-08
2.52093e-07
1.44022e-08
2.51899e-07
1.39784e-08
2.51687e-07
1.35716e-08
2.51459e-07
1.31799e-08
2.51216e-07
1.28016e-08
2.5096e-07
1.24346e-08
2.50691e-07
1.20774e-08
2.50411e-07
1.1727e-08
2.50121e-07
1.13828e-08
2.49823e-07
1.10389e-08
2.49517e-07
1.0697e-08
2.49206e-07
1.03455e-08
2.48891e-07
9.99031e-09
2.48573e-07
9.60981e-09
2.48257e-07
9.2143e-09
2.4794e-07
8.7707e-09
2.47633e-07
8.27976e-09
2.47329e-07
7.71481e-09
2.47037e-07
7.00398e-09
2.46761e-07
6.19432e-09
2.46462e-07
4.99826e-09
2.46169e-07
3.67405e-09
1.7931e-09
2.45721e-07
2.51489e-07
5.32029e-08
2.54532e-07
7.08333e-08
2.5585e-07
5.35788e-08
2.56943e-07
4.59057e-08
2.57647e-07
4.24554e-08
2.58054e-07
3.84637e-08
2.58382e-07
3.49549e-08
2.58675e-07
3.23984e-08
2.58927e-07
3.03778e-08
2.59143e-07
2.86263e-08
2.59334e-07
2.70861e-08
2.59507e-07
2.5732e-08
2.59662e-07
2.45295e-08
2.59802e-07
2.3448e-08
2.59927e-07
2.24657e-08
2.60039e-07
2.15669e-08
2.60137e-07
2.07393e-08
2.60222e-07
1.9973e-08
2.60292e-07
1.92601e-08
2.60349e-07
1.8594e-08
2.60392e-07
1.79695e-08
2.60421e-07
1.73821e-08
2.60436e-07
1.68281e-08
2.60436e-07
1.63042e-08
2.60422e-07
1.58077e-08
2.60394e-07
1.5336e-08
2.60352e-07
1.48869e-08
2.60296e-07
1.44582e-08
2.60226e-07
1.40479e-08
2.60144e-07
1.36542e-08
2.60049e-07
1.32751e-08
2.59941e-07
1.29089e-08
2.59822e-07
1.25534e-08
2.59693e-07
1.22072e-08
2.59553e-07
1.18669e-08
2.59404e-07
1.15319e-08
2.59246e-07
1.11966e-08
2.59081e-07
1.08619e-08
2.58909e-07
1.05171e-08
2.58733e-07
1.01662e-08
2.58553e-07
9.7905e-09
2.58372e-07
9.39513e-09
2.58188e-07
8.95423e-09
2.58009e-07
8.45874e-09
2.57832e-07
7.89257e-09
2.57658e-07
7.17803e-09
2.57491e-07
6.36043e-09
2.57294e-07
5.19547e-09
2.57083e-07
3.88573e-09
2.14492e-09
2.56731e-07
2.58766e-07
4.86196e-08
2.61827e-07
6.77723e-08
2.63112e-07
5.2294e-08
2.64198e-07
4.48202e-08
2.64937e-07
4.17158e-08
2.65366e-07
3.80351e-08
2.65699e-07
3.46212e-08
2.65999e-07
3.20991e-08
2.66256e-07
3.01209e-08
2.66476e-07
2.84064e-08
2.6667e-07
2.68919e-08
2.66845e-07
2.55571e-08
2.67004e-07
2.43706e-08
2.67149e-07
2.3303e-08
2.67282e-07
2.23329e-08
2.67404e-07
2.14449e-08
2.67516e-07
2.06273e-08
2.67618e-07
1.98705e-08
2.67712e-07
1.91666e-08
2.67796e-07
1.85094e-08
2.67872e-07
1.78936e-08
2.67939e-07
1.73149e-08
2.67998e-07
1.67697e-08
2.68047e-07
1.62546e-08
2.68088e-07
1.5767e-08
2.6812e-07
1.53042e-08
2.68143e-07
1.4864e-08
2.68157e-07
1.44443e-08
2.68161e-07
1.40429e-08
2.68158e-07
1.36581e-08
2.68145e-07
1.32877e-08
2.68124e-07
1.29301e-08
2.68094e-07
1.25829e-08
2.68057e-07
1.22447e-08
2.68012e-07
1.19121e-08
2.67959e-07
1.15842e-08
2.679e-07
1.12556e-08
2.67836e-07
1.09265e-08
2.67765e-07
1.05874e-08
2.67692e-07
1.024e-08
2.67613e-07
9.86872e-09
2.67535e-07
9.47395e-09
2.67453e-07
9.03587e-09
2.67373e-07
8.53821e-09
2.67294e-07
7.97192e-09
2.67213e-07
7.25898e-09
2.67135e-07
6.43895e-09
2.6702e-07
5.31056e-09
2.66876e-07
4.02938e-09
2.41474e-09
2.66606e-07
2.66278e-07
4.43336e-08
2.69346e-07
6.47041e-08
2.70609e-07
5.10318e-08
2.71682e-07
4.37467e-08
2.72454e-07
4.09438e-08
2.72905e-07
3.75837e-08
2.73247e-07
3.42799e-08
2.73552e-07
3.17942e-08
2.73814e-07
2.98581e-08
2.74038e-07
2.81823e-08
2.74235e-07
2.66951e-08
2.74412e-07
2.53801e-08
2.74573e-07
2.42099e-08
2.7472e-07
2.31561e-08
2.74855e-07
2.21977e-08
2.7498e-07
2.13198e-08
2.75096e-07
2.0511e-08
2.75205e-07
1.97621e-08
2.75306e-07
1.90653e-08
2.75401e-07
1.84147e-08
2.7549e-07
1.78051e-08
2.75572e-07
1.72323e-08
2.75649e-07
1.66927e-08
2.75721e-07
1.61832e-08
2.75787e-07
1.57011e-08
2.75847e-07
1.52438e-08
2.75902e-07
1.48091e-08
2.75951e-07
1.43949e-08
2.75995e-07
1.3999e-08
2.76034e-07
1.36197e-08
2.76066e-07
1.32548e-08
2.76094e-07
1.29026e-08
2.76116e-07
1.25607e-08
2.76133e-07
1.22276e-08
2.76145e-07
1.19e-08
2.76153e-07
1.15768e-08
2.76156e-07
1.12527e-08
2.76155e-07
1.09272e-08
2.7615e-07
1.0592e-08
2.76144e-07
1.02467e-08
2.76134e-07
9.87843e-09
2.76124e-07
9.48377e-09
2.76112e-07
9.04758e-09
2.76102e-07
8.54883e-09
2.76091e-07
7.98252e-09
2.76076e-07
7.27442e-09
2.76059e-07
6.45613e-09
2.76002e-07
5.36666e-09
2.75908e-07
4.12359e-09
2.62228e-09
2.75701e-07
2.74033e-07
4.03418e-08
2.77097e-07
6.16397e-08
2.78347e-07
4.97821e-08
2.79405e-07
4.26887e-08
2.80206e-07
4.01434e-08
2.80681e-07
3.71079e-08
2.81031e-07
3.39303e-08
2.81342e-07
3.14836e-08
2.8161e-07
2.95894e-08
2.81839e-07
2.79538e-08
2.82039e-07
2.64953e-08
2.82218e-07
2.52009e-08
2.8238e-07
2.40475e-08
2.82528e-07
2.30079e-08
2.82665e-07
2.20614e-08
2.82791e-07
2.11936e-08
2.82908e-07
2.03935e-08
2.83019e-07
1.96519e-08
2.83122e-07
1.89617e-08
2.8322e-07
1.83168e-08
2.83313e-07
1.77124e-08
2.83401e-07
1.71442e-08
2.83484e-07
1.6609e-08
2.83564e-07
1.61035e-08
2.8364e-07
1.56252e-08
2.83712e-07
1.51716e-08
2.83781e-07
1.47405e-08
2.83846e-07
1.43297e-08
2.83908e-07
1.39372e-08
2.83966e-07
1.35612e-08
2.84022e-07
1.31997e-08
2.84073e-07
1.28507e-08
2.84122e-07
1.2512e-08
2.84168e-07
1.21819e-08
2.84211e-07
1.18573e-08
2.84251e-07
1.15367e-08
2.84288e-07
1.12152e-08
2.84324e-07
1.08916e-08
2.84357e-07
1.05585e-08
2.8439e-07
1.0214e-08
2.84421e-07
9.84719e-09
2.84453e-07
9.45195e-09
2.84484e-07
9.01646e-09
2.84516e-07
8.5171e-09
2.84548e-07
7.9506e-09
2.84573e-07
7.24923e-09
2.84593e-07
6.43605e-09
2.84574e-07
5.38586e-09
2.84511e-07
4.18692e-09
2.7876e-09
2.84345e-07
2.8204e-07
3.66394e-08
2.8509e-07
5.85899e-08
2.86336e-07
4.85352e-08
2.87376e-07
4.16492e-08
2.88201e-07
3.93189e-08
2.88702e-07
3.66063e-08
2.89061e-07
3.35713e-08
2.89377e-07
3.11675e-08
2.89652e-07
2.93145e-08
2.89886e-07
2.77203e-08
2.90089e-07
2.62922e-08
2.9027e-07
2.50195e-08
2.90434e-07
2.38834e-08
2.90584e-07
2.28583e-08
2.90721e-07
2.19241e-08
2.90848e-07
2.10667e-08
2.90966e-07
2.02753e-08
2.91077e-07
1.95413e-08
2.91181e-07
1.88575e-08
2.9128e-07
1.82182e-08
2.91373e-07
1.76186e-08
2.91463e-07
1.70547e-08
2.91549e-07
1.65232e-08
2.91631e-07
1.60212e-08
2.9171e-07
1.5546e-08
2.91787e-07
1.50953e-08
2.9186e-07
1.46668e-08
2.91931e-07
1.42585e-08
2.92e-07
1.38684e-08
2.92067e-07
1.34946e-08
2.92132e-07
1.31351e-08
2.92194e-07
1.27882e-08
2.92255e-07
1.24514e-08
2.92314e-07
1.21231e-08
2.92371e-07
1.18001e-08
2.92427e-07
1.14808e-08
2.92481e-07
1.11606e-08
2.92535e-07
1.08377e-08
2.92588e-07
1.05054e-08
2.92641e-07
1.01607e-08
2.92694e-07
9.7943e-09
2.92748e-07
9.39798e-09
2.92802e-07
8.96226e-09
2.92857e-07
8.46264e-09
2.92911e-07
7.89601e-09
2.92958e-07
7.20261e-09
2.92997e-07
6.3975e-09
2.92997e-07
5.38596e-09
2.92949e-07
4.23468e-09
2.92763e-09
2.92809e-07
2.90308e-07
3.32199e-08
2.93332e-07
5.55661e-08
2.94585e-07
4.72825e-08
2.95604e-07
4.06301e-08
2.96448e-07
3.84752e-08
2.96976e-07
3.60781e-08
2.97346e-07
3.32014e-08
2.97667e-07
3.0846e-08
2.97948e-07
2.90335e-08
2.98187e-07
2.74817e-08
2.98393e-07
2.60856e-08
2.98577e-07
2.48355e-08
2.98744e-07
2.37173e-08
2.98895e-07
2.27073e-08
2.99033e-07
2.17858e-08
2.99161e-07
2.0939e-08
2.99279e-07
2.01566e-08
2.9939e-07
1.94302e-08
2.99495e-07
1.8753e-08
2.99594e-07
1.81193e-08
2.99688e-07
1.75245e-08
2.99778e-07
1.69649e-08
2.99864e-07
1.64371e-08
2.99947e-07
1.59383e-08
3.00027e-07
1.5466e-08
3.00104e-07
1.50178e-08
3.00179e-07
1.45916e-08
3.00252e-07
1.41854e-08
3.00324e-07
1.37972e-08
3.00393e-07
1.34251e-08
3.00461e-07
1.30672e-08
3.00527e-07
1.27217e-08
3.00593e-07
1.23863e-08
3.00657e-07
1.2059e-08
3.0072e-07
1.1737e-08
3.00782e-07
1.14183e-08
3.00844e-07
1.10987e-08
3.00906e-07
1.07759e-08
3.00968e-07
1.04438e-08
3.0103e-07
1.00983e-08
3.01093e-07
9.73156e-09
3.01157e-07
9.33402e-09
3.01221e-07
8.89758e-09
3.01286e-07
8.39819e-09
3.0135e-07
7.8319e-09
3.01405e-07
7.14745e-09
3.01449e-07
6.35314e-09
3.01456e-07
5.37936e-09
3.01413e-07
4.27758e-09
3.05475e-09
3.01286e-07
2.98847e-07
3.00753e-08
3.01834e-07
5.25794e-08
3.03101e-07
4.60159e-08
3.04098e-07
3.96328e-08
3.04955e-07
3.76177e-08
3.05511e-07
3.55225e-08
3.05893e-07
3.28194e-08
3.0622e-07
3.05189e-08
3.06507e-07
2.87464e-08
3.06751e-07
2.72375e-08
3.06962e-07
2.58751e-08
3.07149e-07
2.46488e-08
3.07317e-07
2.3549e-08
3.07469e-07
2.25545e-08
3.07609e-07
2.16461e-08
3.07738e-07
2.08103e-08
3.07857e-07
2.00372e-08
3.07969e-07
1.93186e-08
3.08074e-07
1.86481e-08
3.08173e-07
1.80202e-08
3.08267e-07
1.74304e-08
3.08357e-07
1.6875e-08
3.08443e-07
1.6351e-08
3.08526e-07
1.58554e-08
3.08606e-07
1.53859e-08
3.08683e-07
1.49402e-08
3.08759e-07
1.45162e-08
3.08832e-07
1.4112e-08
3.08904e-07
1.37255e-08
3.08974e-07
1.3355e-08
3.09043e-07
1.29985e-08
3.0911e-07
1.26542e-08
3.09177e-07
1.23198e-08
3.09242e-07
1.19934e-08
3.09307e-07
1.1672e-08
3.09372e-07
1.13537e-08
3.09436e-07
1.10344e-08
3.09501e-07
1.07113e-08
3.09566e-07
1.0379e-08
3.09631e-07
1.00327e-08
3.09697e-07
9.66535e-09
3.09765e-07
9.26676e-09
3.09833e-07
8.82956e-09
3.099e-07
8.33103e-09
3.09966e-07
7.76596e-09
3.10022e-07
7.0914e-09
3.10064e-07
6.3105e-09
3.1007e-07
5.37365e-09
3.10026e-07
4.32208e-09
3.17686e-09
3.09904e-07
3.07667e-07
2.71957e-08
3.10605e-07
4.9641e-08
3.11892e-07
4.47286e-08
3.12868e-07
3.86577e-08
3.13734e-07
3.67516e-08
3.14317e-07
3.49397e-08
3.14712e-07
3.24236e-08
3.15045e-07
3.01861e-08
3.15338e-07
2.84532e-08
3.15588e-07
2.69875e-08
3.15803e-07
2.56604e-08
3.15993e-07
2.44591e-08
3.16163e-07
2.33785e-08
3.16318e-07
2.24e-08
3.16459e-07
2.15051e-08
3.16589e-07
2.06806e-08
3.16709e-07
1.9917e-08
3.16821e-07
1.92065e-08
3.16926e-07
1.85429e-08
3.17025e-07
1.79209e-08
3.1712e-07
1.73361e-08
3.1721e-07
1.67851e-08
3.17296e-07
1.62648e-08
3.17379e-07
1.57725e-08
3.17459e-07
1.53059e-08
3.17536e-07
1.48627e-08
3.17611e-07
1.4441e-08
3.17685e-07
1.40387e-08
3.17756e-07
1.36539e-08
3.17826e-07
1.3285e-08
3.17895e-07
1.29298e-08
3.17963e-07
1.25866e-08
3.18029e-07
1.22532e-08
3.18095e-07
1.19275e-08
3.1816e-07
1.16068e-08
3.18225e-07
1.12888e-08
3.1829e-07
1.09697e-08
3.18355e-07
1.06464e-08
3.1842e-07
1.03138e-08
3.18486e-07
9.96671e-09
3.18553e-07
9.59875e-09
3.1862e-07
9.19949e-09
3.18688e-07
8.76182e-09
3.18754e-07
8.26489e-09
3.18818e-07
7.70224e-09
3.18871e-07
7.03854e-09
3.18908e-07
6.2734e-09
3.18909e-07
5.37284e-09
3.18859e-07
4.37145e-09
3.29841e-09
3.18738e-07
3.16777e-07
2.457e-08
3.19656e-07
4.6762e-08
3.20969e-07
4.34152e-08
3.21923e-07
3.77044e-08
3.22792e-07
3.58818e-08
3.23402e-07
3.43305e-08
3.23813e-07
3.20126e-08
3.24151e-07
2.98472e-08
3.24451e-07
2.81541e-08
3.24707e-07
2.67315e-08
3.24926e-07
2.54412e-08
3.25119e-07
2.42662e-08
3.25292e-07
2.32054e-08
3.25449e-07
2.22433e-08
3.25591e-07
2.13624e-08
3.25722e-07
2.05496e-08
3.25843e-07
1.97958e-08
3.25956e-07
1.90937e-08
3.26062e-07
1.84371e-08
3.26162e-07
1.78211e-08
3.26256e-07
1.72416e-08
3.26346e-07
1.6695e-08
3.26433e-07
1.61786e-08
3.26515e-07
1.56897e-08
3.26595e-07
1.5226e-08
3.26673e-07
1.47853e-08
3.26748e-07
1.43658e-08
3.26821e-07
1.39655e-08
3.26893e-07
1.35825e-08
3.26962e-07
1.32151e-08
3.27031e-07
1.28613e-08
3.27098e-07
1.25193e-08
3.27165e-07
1.21868e-08
3.2723e-07
1.1862e-08
3.27295e-07
1.15419e-08
3.2736e-07
1.12242e-08
3.27424e-07
1.09053e-08
3.27488e-07
1.05818e-08
3.27553e-07
1.02491e-08
3.27618e-07
9.90152e-09
3.27684e-07
9.53312e-09
3.2775e-07
9.13365e-09
3.27816e-07
8.69604e-09
3.27879e-07
8.20153e-09
3.27939e-07
7.64263e-09
3.27986e-07
6.99077e-09
3.28016e-07
6.24352e-09
3.2801e-07
5.37877e-09
3.27955e-07
4.42703e-09
3.42163e-09
3.27831e-07
3.26187e-07
2.21854e-08
3.28996e-07
4.39533e-08
3.3034e-07
4.20713e-08
3.31272e-07
3.67718e-08
3.32141e-07
3.50133e-08
3.32775e-07
3.36964e-08
3.33203e-07
3.15849e-08
3.33548e-07
2.95017e-08
3.33853e-07
2.7849e-08
3.34116e-07
2.64692e-08
3.3434e-07
2.5217e-08
3.34536e-07
2.40697e-08
3.34712e-07
2.30296e-08
3.34871e-07
2.20845e-08
3.35015e-07
2.12179e-08
3.35148e-07
2.04172e-08
3.3527e-07
1.96735e-08
3.35384e-07
1.898e-08
3.3549e-07
1.83307e-08
3.35591e-07
1.77209e-08
3.35685e-07
1.71466e-08
3.35776e-07
1.66047e-08
3.35862e-07
1.60922e-08
3.35945e-07
1.56067e-08
3.36025e-07
1.5146e-08
3.36103e-07
1.4708e-08
3.36178e-07
1.42907e-08
3.36251e-07
1.38925e-08
3.36322e-07
1.35113e-08
3.36392e-07
1.31454e-08
3.3646e-07
1.2793e-08
3.36527e-07
1.24522e-08