/*--------------------------------*- C++ -*----------------------------------*\
  =========                 |
  \\      /  F ield         | OpenFOAM: The Open Source CFD Toolbox
   \\    /   O peration     | Website:  https://openfoam.org
    \\  /    A nd           | Version:  7
     \\/     M anipulation  |
\*---------------------------------------------------------------------------*/
FoamFile
{
    version     2.0;
    format      ascii;
    class       surfaceScalarField;
    location    "0.1";
    object      phi_0;
}
// * * * * * * * * * * * * * * * * * * * * * * * * * * * * * * * * * * * * * //

dimensions      [0 3 -1 0 0 0 0];

internalField   nonuniform List<scalar> 
139350
(
6.45125e-08
9.2119e-08
3.19654e-08
3.25471e-08
2.306e-08
8.90544e-09
1.95746e-08
3.4854e-09
1.76217e-08
1.95291e-09
1.61902e-08
1.43148e-09
1.50558e-08
1.13443e-09
1.41417e-08
9.14005e-10
1.33895e-08
7.52247e-10
1.27557e-08
6.33818e-10
1.22115e-08
5.44191e-10
1.17376e-08
4.73905e-10
1.13202e-08
4.17363e-10
1.09492e-08
3.71037e-10
1.06167e-08
3.3252e-10
1.03166e-08
3.00087e-10
1.00441e-08
2.72469e-10
9.7954e-09
2.48717e-10
9.56729e-09
2.28109e-10
9.3572e-09
2.10089e-10
9.16298e-09
1.9422e-10
8.98282e-09
1.80156e-10
8.8152e-09
1.67618e-10
8.65882e-09
1.56378e-10
8.51257e-09
1.4625e-10
8.3755e-09
1.37078e-10
8.24677e-09
1.28728e-10
8.12568e-09
1.21089e-10
8.01162e-09
1.14057e-10
7.90407e-09
1.07555e-10
7.80258e-09
1.01487e-10
7.70677e-09
9.58087e-11
7.61636e-09
9.04078e-11
7.53108e-09
8.52885e-11
7.4508e-09
8.0273e-11
7.37535e-09
7.54548e-11
7.30483e-09
7.05157e-11
7.23914e-09
6.56943e-11
7.17868e-09
6.04549e-11
7.12353e-09
5.51508e-11
7.07437e-09
4.91622e-11
7.03201e-09
4.23579e-11
6.99676e-09
3.52529e-11
6.97245e-09
2.43063e-11
6.95591e-09
1.65388e-11
6.96243e-09
-6.51858e-12
6.97145e-09
-9.01864e-12
7.05908e-09
-8.763e-11
6.96571e-09
9.33689e-11
-3.38784e-09
1.03536e-08
1.25944e-07
1.27619e-07
9.12909e-08
6.71999e-08
7.19377e-08
2.82586e-08
6.12206e-08
1.42025e-08
5.47816e-08
8.39194e-09
5.02832e-08
5.9299e-09
4.67946e-08
4.62303e-09
4.39767e-08
3.73184e-09
4.1649e-08
3.07999e-09
3.96859e-08
2.59692e-09
3.80002e-08
2.22987e-09
3.65319e-08
1.94221e-09
3.52382e-08
1.711e-09
3.40877e-08
1.52161e-09
3.30561e-08
1.36413e-09
3.21247e-08
1.2315e-09
3.12786e-08
1.11856e-09
3.05059e-08
1.02141e-09
2.97969e-08
9.37129e-10
2.91435e-08
8.63436e-10
2.85392e-08
7.98554e-10
2.79783e-08
7.4107e-10
2.7456e-08
6.89849e-10
2.69684e-08
6.43966e-10
2.6512e-08
6.02659e-10
2.60838e-08
5.65294e-10
2.56812e-08
5.31331e-10
2.5302e-08
5.00316e-10
2.49442e-08
4.71846e-10
2.46062e-08
4.4559e-10
2.42864e-08
4.21209e-10
2.39838e-08
3.98481e-10
2.36971e-08
3.77047e-10
2.34256e-08
3.56825e-10
2.31686e-08
3.37294e-10
2.29254e-08
3.18643e-10
2.2696e-08
2.999e-10
2.24799e-08
2.81825e-10
2.22779e-08
2.62458e-10
2.20894e-08
2.43654e-10
2.19169e-08
2.21645e-10
2.17594e-08
1.99839e-10
2.16224e-08
1.72203e-10
2.15047e-08
1.42085e-10
2.14161e-08
1.05108e-10
2.13601e-08
4.94826e-11
2.13404e-08
1.06633e-11
2.1447e-08
-1.94216e-10
2.14378e-08
1.02593e-10
-4.46797e-09
2.25179e-08
1.58753e-07
1.3527e-07
1.36528e-07
8.94244e-08
1.17495e-07
4.72921e-08
1.03316e-07
2.83813e-08
9.33196e-08
1.83886e-08
8.60159e-08
1.32335e-08
8.03046e-08
1.03344e-08
7.56495e-08
8.38698e-09
7.17682e-08
6.96123e-09
6.84732e-08
5.89192e-09
6.5631e-08
5.07205e-09
6.31468e-08
4.42642e-09
6.0952e-08
3.90586e-09
5.89952e-08
3.47836e-09
5.72373e-08
3.1221e-09
5.56473e-08
2.82147e-09
5.42008e-08
2.56503e-09
5.28781e-08
2.34416e-09
5.16629e-08
2.15231e-09
5.05419e-08
1.9844e-09
4.9504e-08
1.83645e-09
4.85398e-08
1.70529e-09
4.76413e-08
1.58837e-09
4.68016e-08
1.48361e-09
4.6015e-08
1.38928e-09
4.52763e-08
1.30397e-09
4.45812e-08
1.22645e-09
4.39258e-08
1.1557e-09
4.33068e-08
1.09083e-09
4.27214e-08
1.03108e-09
4.21668e-08
9.75729e-10
4.16411e-08
9.24231e-10
4.11422e-08
8.75887e-10
4.06687e-08
8.30408e-10
4.02191e-08
7.86835e-10
3.97924e-08
7.4539e-10
3.9388e-08
7.04252e-10
3.9005e-08
6.64871e-10
3.86442e-08
6.23192e-10
3.83043e-08
5.83605e-10
3.79891e-08
5.36856e-10
3.76951e-08
4.93796e-10
3.7433e-08
4.34328e-10
3.71941e-08
3.80995e-10
3.70026e-08
2.96577e-10
3.68438e-08
2.08277e-10
3.67532e-08
1.01327e-10
3.67841e-08
-2.25142e-10
3.68816e-08
5.10739e-12
-4.63026e-09
3.70439e-08
1.75612e-07
1.31174e-07
1.65625e-07
9.9411e-08
1.52737e-07
6.018e-08
1.40127e-07
4.09915e-08
1.29444e-07
2.90716e-08
1.20801e-07
2.18764e-08
1.13684e-07
1.74511e-08
1.07699e-07
1.43725e-08
1.02594e-07
1.20657e-08
9.81886e-08
1.02978e-08
9.43413e-08
8.9193e-09
9.0947e-08
7.8207e-09
8.79258e-08
6.92714e-09
8.52159e-08
6.18824e-09
8.2769e-08
5.56894e-09
8.05466e-08
5.04386e-09
7.85175e-08
4.59415e-09
7.66562e-08
4.20551e-09
7.49415e-08
3.86694e-09
7.33561e-08
3.56988e-09
7.1885e-08
3.30756e-09
7.05157e-08
3.07458e-09
6.92375e-08
2.86657e-09
6.80412e-08
2.67993e-09
6.69187e-08
2.51171e-09
6.58633e-08
2.35942e-09
6.48688e-08
2.22097e-09
6.39299e-08
2.09456e-09
6.30421e-08
1.97865e-09
6.22013e-08
1.87191e-09
6.14039e-08
1.77312e-09
6.06468e-08
1.6813e-09
5.99274e-08
1.59531e-09
5.92432e-08
1.51456e-09
5.85925e-08
1.43757e-09
5.79733e-08
1.36454e-09
5.73849e-08
1.29269e-09
5.68256e-08
1.22419e-09
5.62962e-08
1.15255e-09
5.57946e-08
1.08522e-09
5.53253e-08
1.0062e-09
5.48833e-08
9.35801e-10
5.44815e-08
8.36126e-10
5.41079e-08
7.54588e-10
5.37924e-08
6.12051e-10
5.3514e-08
4.86686e-10
5.33201e-08
2.95184e-10
5.32393e-08
-1.44347e-10
5.33361e-08
-9.16543e-11
-4.50749e-09
5.32133e-08
1.8451e-07
1.23448e-07
1.82342e-07
1.01579e-07
1.76123e-07
6.63988e-08
1.67766e-07
4.93493e-08
1.59144e-07
3.7693e-08
1.51235e-07
2.97855e-08
1.44158e-07
2.45283e-08
1.37853e-07
2.06776e-08
1.32247e-07
1.76712e-08
1.27257e-07
1.52879e-08
1.22797e-07
1.33796e-08
1.1879e-07
1.18277e-08
1.15171e-07
1.05456e-08
1.11888e-07
9.47199e-09
1.08894e-07
8.5628e-09
1.06152e-07
7.78526e-09
1.03632e-07
7.11447e-09
1.01306e-07
6.53117e-09
9.91531e-08
6.02031e-09
9.71529e-08
5.57002e-09
9.52897e-08
5.1708e-09
9.35493e-08
4.81498e-09
9.19196e-08
4.49631e-09
9.03899e-08
4.20961e-09
8.8951e-08
3.9506e-09
8.75948e-08
3.71563e-09
8.63141e-08
3.50164e-09
8.51027e-08
3.30599e-09
8.39549e-08
3.12639e-09
8.2866e-08
2.96086e-09
8.18315e-08
2.80761e-09
8.08476e-08
2.66515e-09
7.99111e-08
2.53185e-09
7.90189e-08
2.40675e-09
7.81687e-08
2.28783e-09
7.7358e-08
2.17517e-09
7.65857e-08
2.06499e-09
7.58498e-08
1.96017e-09
7.51506e-08
1.85171e-09
7.44858e-08
1.75005e-09
7.38595e-08
1.63247e-09
7.32668e-08
1.52853e-09
7.272e-08
1.38289e-09
7.22081e-08
1.26648e-09
7.17587e-08
1.0615e-09
7.1356e-08
8.89324e-10
7.10409e-08
6.10279e-10
7.08425e-08
5.40754e-11
7.08484e-08
-9.7553e-11
-4.25161e-09
7.05925e-08
1.90343e-07
1.15322e-07
1.9186e-07
1.00062e-07
1.90265e-07
6.7994e-08
1.86161e-07
5.34538e-08
1.80721e-07
4.31326e-08
1.74967e-07
3.55398e-08
1.69266e-07
3.02291e-08
1.63776e-07
2.61672e-08
1.58595e-07
2.28521e-08
1.53765e-07
2.01177e-08
1.4929e-07
1.78555e-08
1.45151e-07
1.59661e-08
1.41326e-07
1.43706e-08
1.37788e-07
1.301e-08
1.34511e-07
1.184e-08
1.3147e-07
1.08265e-08
1.28642e-07
9.94241e-09
1.26007e-07
9.16634e-09
1.23546e-07
8.48106e-09
1.21243e-07
7.8727e-09
1.19084e-07
7.32994e-09
1.17056e-07
6.8435e-09
1.15146e-07
6.40571e-09
1.13346e-07
6.01013e-09
1.11645e-07
5.65135e-09
1.10036e-07
5.32477e-09
1.08511e-07
5.02643e-09
1.07064e-07
4.75292e-09
1.05689e-07
4.50128e-09
1.04381e-07
4.26888e-09
1.03135e-07
4.0534e-09
1.01948e-07
3.85282e-09
1.00814e-07
3.66506e-09
9.97325e-08
3.48873e-09
9.8699e-08
3.32131e-09
9.77115e-08
3.16269e-09
9.67683e-08
3.0082e-09
9.58673e-08
2.86118e-09
9.50085e-08
2.71047e-09
9.41897e-08
2.5689e-09
9.34141e-08
2.40804e-09
9.26779e-08
2.26472e-09
9.1991e-08
2.06981e-09
9.13465e-08
1.91097e-09
9.07642e-08
1.64383e-09
9.02412e-08
1.41228e-09
8.98008e-08
1.05072e-09
8.94857e-08
3.69169e-10
8.93694e-08
1.87139e-11
-3.86441e-09
8.89822e-08
1.95504e-07
1.07632e-07
1.98248e-07
9.73178e-08
1.98988e-07
6.72541e-08
1.97795e-07
5.46469e-08
1.95161e-07
4.57668e-08
1.9182e-07
3.8881e-08
1.88085e-07
3.39643e-08
1.84129e-07
3.01233e-08
1.80102e-07
2.68783e-08
1.76117e-07
2.41035e-08
1.72239e-07
2.17327e-08
1.6851e-07
1.96959e-08
1.64948e-07
1.79326e-08
1.61561e-07
1.6396e-08
1.58352e-07
1.50495e-08
1.55315e-07
1.38638e-08
1.52443e-07
1.28145e-08
1.49727e-07
1.18818e-08
1.47159e-07
1.10491e-08
1.44729e-07
1.03026e-08
1.42428e-07
9.63086e-09
1.40248e-07
9.02416e-09
1.38179e-07
8.47436e-09
1.36214e-07
7.9745e-09
1.34347e-07
7.51862e-09
1.3257e-07
7.10157e-09
1.30878e-07
6.71888e-09
1.29264e-07
6.36661e-09
1.27724e-07
6.04134e-09
1.26253e-07
5.73996e-09
1.24847e-07
5.45975e-09
1.23501e-07
5.19826e-09
1.22213e-07
4.95301e-09
1.2098e-07
4.72229e-09
1.19798e-07
4.50312e-09
1.18666e-07
4.29519e-09
1.17581e-07
4.09309e-09
1.16541e-07
3.9004e-09
1.15548e-07
3.70432e-09
1.14597e-07
3.51913e-09
1.13693e-07
3.31243e-09
1.12832e-07
3.12528e-09
1.12022e-07
2.88014e-09
1.11261e-07
2.67218e-09
1.10559e-07
2.34574e-09
1.09927e-07
2.04382e-09
1.09372e-07
1.60615e-09
1.08944e-07
7.9726e-10
1.08705e-07
2.57277e-10
-3.34809e-09
1.08189e-07
2.0082e-07
1.00398e-07
2.03773e-07
9.43645e-08
2.05348e-07
6.56792e-08
2.0565e-07
5.43444e-08
2.04821e-07
4.65966e-08
2.03341e-07
4.03609e-08
2.01391e-07
3.59142e-08
1.99056e-07
3.24582e-08
1.96443e-07
2.94909e-08
1.93656e-07
2.68909e-08
1.90774e-07
2.46141e-08
1.87859e-07
2.26108e-08
1.84956e-07
2.08364e-08
1.82095e-07
1.92568e-08
1.79299e-07
1.78452e-08
1.76583e-07
1.65798e-08
1.73956e-07
1.54419e-08
1.71422e-07
1.44157e-08
1.68983e-07
1.34875e-08
1.66641e-07
1.26455e-08
1.64392e-07
1.18798e-08
1.62234e-07
1.11816e-08
1.60165e-07
1.05434e-08
1.58181e-07
9.95864e-09
1.56278e-07
9.4215e-09
1.54453e-07
8.9269e-09
1.52701e-07
8.47036e-09
1.5102e-07
8.04784e-09
1.49406e-07
7.65576e-09
1.47855e-07
7.29087e-09
1.46364e-07
6.95021e-09
1.44931e-07
6.63113e-09
1.43553e-07
6.33094e-09
1.42228e-07
6.04766e-09
1.40953e-07
5.77804e-09
1.39727e-07
5.52156e-09
1.38548e-07
5.27234e-09
1.37414e-07
5.03393e-09
1.36326e-07
4.79252e-09
1.35282e-07
4.56289e-09
1.34284e-07
4.31054e-09
1.33332e-07
4.07762e-09
1.32428e-07
3.78363e-09
1.31578e-07
3.52251e-09
1.30783e-07
3.14102e-09
1.30064e-07
2.7625e-09
1.29416e-07
2.25381e-09
1.28888e-07
1.32548e-09
1.28538e-07
6.06795e-10
-2.72315e-09
1.27913e-07
2.06423e-07
9.35066e-08
2.09333e-07
9.14549e-08
2.11059e-07
6.39529e-08
2.11941e-07
5.34624e-08
2.12005e-07
4.65325e-08
2.1162e-07
4.07458e-08
2.10889e-07
3.66451e-08
2.09815e-07
3.35324e-08
2.08437e-07
3.08696e-08
2.06812e-07
2.85155e-08
2.04997e-07
2.64287e-08
2.03042e-07
2.45663e-08
2.00988e-07
2.28901e-08
1.98872e-07
2.13726e-08
1.96724e-07
1.99939e-08
1.94566e-07
1.87378e-08
1.92417e-07
1.75909e-08
1.90291e-07
1.65415e-08
1.88199e-07
1.55797e-08
1.86148e-07
1.46963e-08
1.84144e-07
1.38838e-08
1.82191e-07
1.3135e-08
1.8029e-07
1.24439e-08
1.78444e-07
1.18049e-08
1.76652e-07
1.12131e-08
1.74915e-07
1.0664e-08
1.73232e-07
1.01536e-08
1.71602e-07
9.67817e-09
1.70023e-07
9.23431e-09
1.68495e-07
8.81889e-09
1.67016e-07
8.42908e-09
1.65585e-07
8.06219e-09
1.64201e-07
7.71552e-09
1.62861e-07
7.38702e-09
1.61566e-07
7.07332e-09
1.60314e-07
6.77376e-09
1.59104e-07
6.48222e-09
1.57936e-07
6.20211e-09
1.56809e-07
5.91913e-09
1.55724e-07
5.64782e-09
1.54682e-07
5.35315e-09
1.53683e-07
5.07585e-09
1.5273e-07
4.73693e-09
1.5183e-07
4.42237e-09
1.5098e-07
3.99128e-09
1.50207e-07
3.5358e-09
1.495e-07
2.96065e-09
1.48897e-07
1.92865e-09
1.48457e-07
1.04664e-09
-2.0196e-09
1.47753e-07
2.12269e-07
8.68997e-08
2.15141e-07
8.85826e-08
2.16814e-07
6.22804e-08
2.17856e-07
5.24207e-08
2.18265e-07
4.6123e-08
2.18383e-07
4.06284e-08
2.18306e-07
3.67217e-08
2.18003e-07
3.38348e-08
2.17469e-07
3.1404e-08
2.16721e-07
2.92632e-08
2.15784e-07
2.73656e-08
2.14684e-07
2.5667e-08
2.13445e-07
2.41289e-08
2.12094e-07
2.2724e-08
2.10653e-07
2.1434e-08
2.09146e-07
2.02455e-08
2.07589e-07
1.91475e-08
2.06e-07
1.8131e-08
2.04391e-07
1.71884e-08
2.02774e-07
1.63131e-08
2.01159e-07
1.54992e-08
1.99552e-07
1.47415e-08
1.97961e-07
1.40355e-08
1.96389e-07
1.33767e-08
1.9484e-07
1.27614e-08
1.93319e-07
1.21859e-08
1.91825e-07
1.16469e-08
1.90362e-07
1.11412e-08
1.88931e-07
1.06659e-08
1.87531e-07
1.02184e-08
1.86164e-07
9.79586e-09
1.84831e-07
9.39597e-09
1.8353e-07
9.01615e-09
1.82263e-07
8.6544e-09
1.81029e-07
8.30741e-09
1.79828e-07
7.97448e-09
1.78661e-07
7.64944e-09
1.77527e-07
7.33549e-09
1.76428e-07
7.01828e-09
1.75364e-07
6.71159e-09
1.74336e-07
6.38109e-09
1.73348e-07
6.06427e-09
1.72398e-07
5.68688e-09
1.71498e-07
5.32255e-09
1.7064e-07
4.84878e-09
1.69855e-07
4.32158e-09
1.6913e-07
3.68555e-09
1.68487e-07
2.57087e-09
1.67988e-07
1.54648e-09
-1.2734e-09
1.67241e-07
2.18315e-07
8.05653e-08
2.21191e-07
8.57068e-08
2.22787e-07
6.06846e-08
2.23857e-07
5.13506e-08
2.24375e-07
4.56049e-08
2.2467e-07
4.03332e-08
2.2487e-07
3.65217e-08
2.24946e-07
3.37586e-08
2.24878e-07
3.14723e-08
2.24665e-07
2.94756e-08
2.24313e-07
2.77176e-08
2.23828e-07
2.61524e-08
2.23218e-07
2.47385e-08
2.22496e-07
2.34464e-08
2.21673e-07
2.22566e-08
2.20764e-07
2.11549e-08
2.1978e-07
2.01309e-08
2.18735e-07
1.91762e-08
2.17639e-07
1.82841e-08
2.16504e-07
1.74488e-08
2.15337e-07
1.66658e-08
2.14148e-07
1.59309e-08
2.12943e-07
1.52404e-08
2.11728e-07
1.45911e-08
2.1051e-07
1.39799e-08
2.09292e-07
1.34039e-08
2.08078e-07
1.28607e-08
2.06872e-07
1.23475e-08
2.05676e-07
1.1862e-08
2.04492e-07
1.14018e-08
2.03323e-07
1.09648e-08
2.02171e-07
1.05488e-08
2.01036e-07
1.01513e-08
1.99919e-07
9.7707e-09
1.98823e-07
9.4037e-09
1.97748e-07
9.04967e-09
1.96695e-07
8.7025e-09
1.95665e-07
8.3652e-09
1.9466e-07
8.02366e-09
1.93681e-07
7.69054e-09
1.92729e-07
7.33313e-09
1.91808e-07
6.98443e-09
1.90918e-07
6.57715e-09
1.90071e-07
6.17004e-09
1.89257e-07
5.66196e-09
1.88506e-07
5.07278e-09
1.87808e-07
4.38335e-09
1.8717e-07
3.20981e-09
1.86647e-07
2.06893e-09
-5.24372e-10
1.85898e-07
2.24549e-07
7.45098e-08
2.27451e-07
8.28048e-08
2.28983e-07
5.91527e-08
2.3006e-07
5.02733e-08
2.30618e-07
4.50463e-08
2.30962e-07
3.99896e-08
2.31252e-07
3.62321e-08
2.31476e-07
3.35342e-08
2.31617e-07
3.13317e-08
2.31672e-07
2.94205e-08
2.31641e-07
2.77485e-08
2.31522e-07
2.62711e-08
2.31316e-07
2.49453e-08
2.31023e-07
2.37394e-08
2.30647e-07
2.26319e-08
2.30195e-07
2.16077e-08
2.2967e-07
2.06551e-08
2.29082e-07
1.97652e-08
2.28434e-07
1.89311e-08
2.27736e-07
1.81472e-08
2.26993e-07
1.7409e-08
2.26211e-07
1.67126e-08
2.25397e-07
1.60548e-08
2.24555e-07
1.54327e-08
2.23691e-07
1.48438e-08
2.22809e-07
1.42858e-08
2.21914e-07
1.37563e-08
2.21008e-07
1.32532e-08
2.20095e-07
1.27746e-08
2.19179e-07
1.23184e-08
2.18261e-07
1.18827e-08
2.17344e-07
1.14656e-08
2.1643e-07
1.1065e-08
2.15522e-07
1.06793e-08
2.1462e-07
1.03053e-08
2.13727e-07
9.94256e-09
2.12845e-07
9.58502e-09
2.11975e-07
9.23546e-09
2.11118e-07
8.88027e-09
2.10278e-07
8.53069e-09
2.09455e-07
8.15629e-09
2.08654e-07
7.7848e-09
2.07874e-07
7.35718e-09
2.07128e-07
6.91639e-09
2.06407e-07
6.38313e-09
2.05735e-07
5.74469e-09
2.05107e-07
5.01111e-09
2.04514e-07
3.80305e-09
2.04008e-07
2.575e-09
1.87832e-10
2.03296e-07
2.30975e-07
6.8741e-08
2.33912e-07
7.98678e-08
2.35387e-07
5.76778e-08
2.36472e-07
4.91877e-08
2.37064e-07
4.44549e-08
2.37422e-07
3.96311e-08
2.37734e-07
3.59207e-08
2.38004e-07
3.32639e-08
2.3822e-07
3.11155e-08
2.38385e-07
2.92559e-08
2.385e-07
2.76336e-08
2.38563e-07
2.62077e-08
2.38573e-07
2.49358e-08
2.38527e-07
2.37853e-08
2.38425e-07
2.27339e-08
2.38267e-07
2.17653e-08
2.38055e-07
2.0867e-08
2.37791e-07
2.00295e-08
2.37477e-07
1.92452e-08
2.37116e-07
1.8508e-08
2.36712e-07
1.78131e-08
2.36268e-07
1.71566e-08
2.35787e-07
1.65352e-08
2.35274e-07
1.59459e-08
2.34731e-07
1.53864e-08
2.34163e-07
1.48543e-08
2.33571e-07
1.43477e-08
2.3296e-07
1.38645e-08
2.32332e-07
1.34029e-08
2.31689e-07
1.29612e-08
2.31034e-07
1.25374e-08
2.3037e-07
1.21299e-08
2.29698e-07
1.17367e-08
2.29021e-07
1.13563e-08
2.28341e-07
1.09856e-08
2.27659e-07
1.06242e-08
2.26978e-07
1.02662e-08
2.263e-07
9.91395e-09
2.25625e-07
9.55455e-09
2.24958e-07
9.19762e-09
2.24299e-07
8.81545e-09
2.23654e-07
8.43e-09
2.2302e-07
7.99115e-09
2.2241e-07
7.52629e-09
2.21817e-07
6.97662e-09
2.21259e-07
6.30271e-09
2.20735e-07
5.53523e-09
2.20222e-07
4.31518e-09
2.19767e-07
3.02993e-09
8.30335e-10
2.19125e-07
2.37601e-07
6.32648e-08
2.40577e-07
7.68915e-08
2.41995e-07
5.626e-08
2.43088e-07
4.80949e-08
2.43716e-07
4.38267e-08
2.44088e-07
3.92596e-08
2.44404e-07
3.56039e-08
2.44687e-07
3.2981e-08
2.44926e-07
3.08766e-08
2.45127e-07
2.90549e-08
2.45297e-07
2.74643e-08
2.45435e-07
2.60691e-08
2.45542e-07
2.48289e-08
2.45616e-07
2.37114e-08
2.45656e-07
2.2694e-08
2.45661e-07
2.17603e-08
2.4563e-07
2.08976e-08
2.45564e-07
2.00958e-08
2.45462e-07
1.93469e-08
2.45326e-07
1.86444e-08
2.45156e-07
1.79833e-08
2.44953e-07
1.73593e-08
2.44719e-07
1.67688e-08
2.44456e-07
1.62089e-08
2.44166e-07
1.56769e-08
2.4385e-07
1.51706e-08
2.4351e-07
1.46878e-08
2.43147e-07
1.42266e-08
2.42765e-07
1.37851e-08
2.42365e-07
1.33615e-08
2.41948e-07
1.29541e-08
2.41517e-07
1.25613e-08
2.41073e-07
1.21809e-08
2.40617e-07
1.18116e-08
2.40153e-07
1.14503e-08
2.3968e-07
1.10965e-08
2.39202e-07
1.07444e-08
2.3872e-07
1.03961e-08
2.38235e-07
1.00393e-08
2.37751e-07
9.68174e-09
2.37268e-07
9.29882e-09
2.36791e-07
8.9066e-09
2.36318e-07
8.46377e-09
2.35861e-07
7.98346e-09
2.35413e-07
7.42468e-09
2.34988e-07
6.7283e-09
2.34586e-07
5.93698e-09
2.34177e-07
4.72391e-09
2.33797e-07
3.40974e-09
1.38075e-09
2.33247e-07
2.44436e-07
5.80848e-08
2.47451e-07
7.38766e-08
2.48814e-07
5.48974e-08
2.49909e-07
4.69992e-08
2.50576e-07
4.31602e-08
2.50964e-07
3.88716e-08
2.51285e-07
3.52827e-08
2.51573e-07
3.26927e-08
2.5182e-07
3.06301e-08
2.52032e-07
2.88431e-08
2.52218e-07
2.72781e-08
2.52382e-07
2.59048e-08
2.52526e-07
2.46854e-08
2.52649e-07
2.35885e-08
2.52751e-07
2.25918e-08
2.52832e-07
2.16791e-08
2.52892e-07
2.08379e-08
2.52929e-07
2.00581e-08
2.52945e-07
1.93316e-08
2.52937e-07
1.86517e-08
2.52907e-07
1.80132e-08
2.52855e-07
1.74117e-08
2.5278e-07
1.68435e-08
2.52684e-07
1.63055e-08
2.52566e-07
1.57948e-08
2.52427e-07
1.5309e-08
2.52269e-07
1.4846e-08
2.52092e-07
1.44037e-08
2.51897e-07
1.39801e-08
2.51685e-07
1.35736e-08
2.51457e-07
1.31821e-08
2.51214e-07
1.2804e-08
2.50958e-07
1.24373e-08
2.50689e-07
1.20805e-08
2.50409e-07
1.17305e-08
2.50119e-07
1.13867e-08
2.4982e-07
1.10433e-08
2.49514e-07
1.0702e-08
2.49202e-07
1.03512e-08
2.48887e-07
9.99686e-09
2.48568e-07
9.61736e-09
2.48252e-07
9.22306e-09
2.47935e-07
8.78091e-09
2.47626e-07
8.29179e-09
2.47322e-07
7.729e-09
2.47029e-07
7.02098e-09
2.46752e-07
6.21466e-09
2.46452e-07
5.02305e-09
2.46158e-07
3.70426e-09
1.83036e-09
2.45708e-07
2.51489e-07
5.3203e-08
2.54532e-07
7.08335e-08
2.5585e-07
5.35792e-08
2.56943e-07
4.59062e-08
2.57647e-07
4.2456e-08
2.58054e-07
3.84644e-08
2.58381e-07
3.49557e-08
2.58675e-07
3.23991e-08
2.58926e-07
3.03785e-08
2.59143e-07
2.8627e-08
2.59334e-07
2.70868e-08
2.59506e-07
2.57327e-08
2.59661e-07
2.45302e-08
2.59801e-07
2.34487e-08
2.59926e-07
2.24663e-08
2.60038e-07
2.15675e-08
2.60136e-07
2.07399e-08
2.60221e-07
1.99736e-08
2.60291e-07
1.92607e-08
2.60348e-07
1.85947e-08
2.60391e-07
1.79702e-08
2.6042e-07
1.73829e-08
2.60435e-07
1.6829e-08
2.60435e-07
1.63052e-08
2.60421e-07
1.58088e-08
2.60393e-07
1.53373e-08
2.6035e-07
1.48883e-08
2.60294e-07
1.44598e-08
2.60225e-07
1.40497e-08
2.60142e-07
1.36562e-08
2.60047e-07
1.32774e-08
2.59939e-07
1.29115e-08
2.5982e-07
1.25563e-08
2.5969e-07
1.22104e-08
2.5955e-07
1.18706e-08
2.59401e-07
1.15361e-08
2.59243e-07
1.12013e-08
2.59077e-07
1.08672e-08
2.58906e-07
1.05232e-08
2.58729e-07
1.01731e-08
2.58548e-07
9.79848e-09
2.58367e-07
9.40438e-09
2.58183e-07
8.96498e-09
2.58003e-07
8.47137e-09
2.57825e-07
7.90744e-09
2.5765e-07
7.19577e-09
2.57483e-07
6.38162e-09
2.57285e-07
5.22116e-09
2.57072e-07
3.91692e-09
2.18313e-09
2.56719e-07
2.58766e-07
4.86197e-08
2.61827e-07
6.77725e-08
2.63112e-07
5.22944e-08
2.64197e-07
4.48208e-08
2.64937e-07
4.17164e-08
2.65366e-07
3.80359e-08
2.65699e-07
3.4622e-08
2.65998e-07
3.20999e-08
2.66255e-07
3.01216e-08
2.66475e-07
2.84071e-08
2.66669e-07
2.68927e-08
2.66844e-07
2.55578e-08
2.67003e-07
2.43713e-08
2.67148e-07
2.33037e-08
2.67281e-07
2.23335e-08
2.67403e-07
2.14456e-08
2.67515e-07
2.0628e-08
2.67617e-07
1.98712e-08
2.67711e-07
1.91673e-08
2.67795e-07
1.85101e-08
2.67871e-07
1.78944e-08
2.67938e-07
1.73158e-08
2.67997e-07
1.67706e-08
2.68046e-07
1.62557e-08
2.68087e-07
1.57682e-08
2.68118e-07
1.53056e-08
2.68141e-07
1.48656e-08
2.68155e-07
1.4446e-08
2.6816e-07
1.40449e-08
2.68156e-07
1.36603e-08
2.68143e-07
1.32902e-08
2.68122e-07
1.29329e-08
2.68092e-07
1.2586e-08
2.68054e-07
1.22481e-08
2.68009e-07
1.1916e-08
2.67957e-07
1.15886e-08
2.67897e-07
1.12606e-08
2.67832e-07
1.09321e-08
2.67762e-07
1.05938e-08
2.67687e-07
1.02473e-08
2.67609e-07
9.87711e-09
2.6753e-07
9.48366e-09
2.67447e-07
9.04713e-09
2.67367e-07
8.5514e-09
2.67287e-07
7.98741e-09
2.67206e-07
7.2774e-09
2.67127e-07
6.46089e-09
2.67011e-07
5.33705e-09
2.66866e-07
4.06137e-09
2.45369e-09
2.66596e-07
2.66278e-07
4.43337e-08
2.69346e-07
6.47043e-08
2.70609e-07
5.10322e-08
2.71682e-07
4.37473e-08
2.72454e-07
4.09446e-08
2.72905e-07
3.75845e-08
2.73246e-07
3.42808e-08
2.73551e-07
3.1795e-08
2.73814e-07
2.9859e-08
2.74038e-07
2.81832e-08
2.74235e-07
2.66959e-08
2.74412e-07
2.53808e-08
2.74572e-07
2.42106e-08
2.74719e-07
2.31568e-08
2.74854e-07
2.21984e-08
2.74979e-07
2.13205e-08
2.75096e-07
2.05118e-08
2.75204e-07
1.97628e-08
2.75305e-07
1.90661e-08
2.754e-07
1.84154e-08
2.75488e-07
1.78059e-08
2.75571e-07
1.72331e-08
2.75648e-07
1.66937e-08
2.75719e-07
1.61843e-08
2.75785e-07
1.57024e-08
2.75846e-07
1.52453e-08
2.759e-07
1.48107e-08
2.7595e-07
1.43967e-08
2.75993e-07
1.40011e-08
2.76032e-07
1.3622e-08
2.76065e-07
1.32574e-08
2.76092e-07
1.29055e-08
2.76114e-07
1.2564e-08
2.76131e-07
1.22313e-08
2.76143e-07
1.19041e-08
2.7615e-07
1.15814e-08
2.76152e-07
1.12579e-08
2.76151e-07
1.09332e-08
2.76147e-07
1.05987e-08
2.76139e-07
1.02544e-08
2.76129e-07
9.88723e-09
2.76119e-07
9.49392e-09
2.76107e-07
9.05934e-09
2.76096e-07
8.56256e-09
2.76085e-07
7.99861e-09
2.76068e-07
7.29347e-09
2.76051e-07
6.47876e-09
2.75994e-07
5.39384e-09
2.75899e-07
4.15625e-09
2.66179e-09
2.75691e-07
2.74033e-07
4.03418e-08
2.77097e-07
6.16399e-08
2.78347e-07
4.97825e-08
2.79405e-07
4.26894e-08
2.80205e-07
4.01442e-08
2.80681e-07
3.71087e-08
2.81031e-07
3.39312e-08
2.81341e-07
3.14845e-08
2.8161e-07
2.95903e-08
2.81838e-07
2.79547e-08
2.82038e-07
2.64962e-08
2.82217e-07
2.52018e-08
2.8238e-07
2.40483e-08
2.82528e-07
2.30087e-08
2.82664e-07
2.20622e-08
2.8279e-07
2.11944e-08
2.82908e-07
2.03942e-08
2.83018e-07
1.96527e-08
2.83121e-07
1.89625e-08
2.83219e-07
1.83177e-08
2.83312e-07
1.77132e-08
2.834e-07
1.71452e-08
2.83483e-07
1.661e-08
2.83563e-07
1.61047e-08
2.83639e-07
1.56265e-08
2.83711e-07
1.51731e-08
2.83779e-07
1.47421e-08
2.83845e-07
1.43316e-08
2.83906e-07
1.39394e-08
2.83965e-07
1.35637e-08
2.8402e-07
1.32024e-08
2.84071e-07
1.28538e-08
2.8412e-07
1.25155e-08
2.84165e-07
1.21858e-08
2.84208e-07
1.18617e-08
2.84248e-07
1.15416e-08
2.84285e-07
1.12207e-08
2.8432e-07
1.08979e-08
2.84353e-07
1.05655e-08
2.84386e-07
1.0222e-08
2.84417e-07
9.8564e-09
2.84448e-07
9.46254e-09
2.84479e-07
9.0287e-09
2.8451e-07
8.53135e-09
2.84541e-07
7.96726e-09
2.84566e-07
7.26889e-09
2.84585e-07
6.45933e-09
2.84565e-07
5.41366e-09
2.84501e-07
4.22018e-09
2.82756e-09
2.84336e-07
2.8204e-07
3.66394e-08
2.8509e-07
5.85902e-08
2.86336e-07
4.85357e-08
2.87376e-07
4.16498e-08
2.882e-07
3.93197e-08
2.88702e-07
3.66073e-08
2.89061e-07
3.35722e-08
2.89377e-07
3.11685e-08
2.89652e-07
2.93155e-08
2.89885e-07
2.77213e-08
2.90088e-07
2.62932e-08
2.90269e-07
2.50204e-08
2.90433e-07
2.38843e-08
2.90583e-07
2.28592e-08
2.9072e-07
2.1925e-08
2.90847e-07
2.10675e-08
2.90965e-07
2.02761e-08
2.91076e-07
1.95421e-08
2.9118e-07
1.88583e-08
2.91279e-07
1.8219e-08
2.91372e-07
1.76195e-08
2.91462e-07
1.70557e-08
2.91547e-07
1.65243e-08
2.9163e-07
1.60224e-08
2.91709e-07
1.55474e-08
2.91785e-07
1.50968e-08
2.91859e-07
1.46685e-08
2.9193e-07
1.42605e-08
2.91999e-07
1.38706e-08
2.92065e-07
1.34971e-08
2.9213e-07
1.3138e-08
2.92192e-07
1.27914e-08
2.92252e-07
1.2455e-08
2.92311e-07
1.21272e-08
2.92368e-07
1.18047e-08
2.92424e-07
1.14859e-08
2.92478e-07
1.11664e-08
2.92531e-07
1.08443e-08
2.92584e-07
1.05128e-08
2.92637e-07
1.01691e-08
2.9269e-07
9.8039e-09
2.92743e-07
9.40901e-09
2.92797e-07
8.97497e-09
2.92851e-07
8.4774e-09
2.92905e-07
7.91322e-09
2.92951e-07
7.22284e-09
2.92989e-07
6.42136e-09
2.92988e-07
5.41433e-09
2.9294e-07
4.26844e-09
2.96796e-09
2.92799e-07
2.90308e-07
3.322e-08
2.93332e-07
5.55664e-08
2.94585e-07
4.7283e-08
2.95604e-07
4.06308e-08
2.96447e-07
3.84761e-08
2.96976e-07
3.60791e-08
2.97345e-07
3.32025e-08
2.97667e-07
3.0847e-08
2.97948e-07
2.90346e-08
2.98186e-07
2.74827e-08
2.98393e-07
2.60866e-08
2.98577e-07
2.48365e-08
2.98743e-07
2.37183e-08
2.98894e-07
2.27082e-08
2.99032e-07
2.17867e-08
2.9916e-07
2.09399e-08
2.99278e-07
2.01575e-08
2.99389e-07
1.94311e-08
2.99494e-07
1.87539e-08
2.99593e-07
1.81202e-08
2.99687e-07
1.75255e-08
2.99777e-07
1.69659e-08
2.99863e-07
1.64383e-08
2.99945e-07
1.59396e-08
3.00025e-07
1.54674e-08
3.00103e-07
1.50194e-08
3.00178e-07
1.45935e-08
3.00251e-07
1.41875e-08
3.00322e-07
1.37995e-08
3.00391e-07
1.34278e-08
3.00459e-07
1.30703e-08
3.00525e-07
1.27251e-08
3.0059e-07
1.23901e-08
3.00654e-07
1.20633e-08
3.00717e-07
1.17418e-08
3.00779e-07
1.14237e-08
3.00841e-07
1.11048e-08
3.00902e-07
1.07827e-08
3.00964e-07
1.04515e-08
3.01026e-07
1.01071e-08
3.01088e-07
9.74156e-09
3.01151e-07
9.34548e-09
3.01216e-07
8.91076e-09
3.0128e-07
8.41345e-09
3.01343e-07
7.84964e-09
3.01398e-07
7.16823e-09
3.01442e-07
6.37757e-09
3.01448e-07
5.40827e-09
3.01404e-07
4.3118e-09
3.09537e-09
3.01277e-07
2.98847e-07
3.00754e-08
3.01834e-07
5.25797e-08
3.031e-07
4.60164e-08
3.04098e-07
3.96335e-08
3.04955e-07
3.76186e-08
3.05511e-07
3.55236e-08
3.05893e-07
3.28205e-08
3.0622e-07
3.052e-08
3.06507e-07
2.87476e-08
3.06751e-07
2.72386e-08
3.06961e-07
2.58762e-08
3.07148e-07
2.46499e-08
3.07316e-07
2.35501e-08
3.07469e-07
2.25556e-08
3.07608e-07
2.16471e-08
3.07737e-07
2.08113e-08
3.07856e-07
2.00381e-08
3.07968e-07
1.93196e-08
3.08072e-07
1.86491e-08
3.08171e-07
1.80212e-08
3.08266e-07
1.74314e-08
3.08355e-07
1.68761e-08
3.08441e-07
1.63522e-08
3.08524e-07
1.58568e-08
3.08604e-07
1.53874e-08
3.08682e-07
1.49419e-08
3.08757e-07
1.45182e-08
3.0883e-07
1.41142e-08
3.08902e-07
1.3728e-08
3.08972e-07
1.33578e-08
3.09041e-07
1.30017e-08
3.09108e-07
1.26577e-08
3.09174e-07
1.23238e-08
3.0924e-07
1.19978e-08
3.09304e-07
1.16771e-08
3.09369e-07
1.13594e-08
3.09433e-07
1.10407e-08
3.09497e-07
1.07185e-08
3.09561e-07
1.03871e-08
3.09627e-07
1.00418e-08
3.09692e-07
9.67575e-09
3.09759e-07
9.27866e-09
3.09827e-07
8.84321e-09
3.09894e-07
8.34679e-09
3.09959e-07
7.78423e-09
3.10014e-07
7.11273e-09
3.10057e-07
6.33546e-09
3.10062e-07
5.40305e-09
3.10017e-07
4.35671e-09
3.21772e-09
3.09895e-07
3.07667e-07
2.71958e-08
3.10605e-07
4.96413e-08
3.11892e-07
4.47292e-08
3.12867e-07
3.86585e-08
3.13734e-07
3.67525e-08
3.14316e-07
3.49408e-08
3.14712e-07
3.24248e-08
3.15045e-07
3.01873e-08
3.15338e-07
2.84545e-08
3.15588e-07
2.69887e-08
3.15802e-07
2.56616e-08
3.15992e-07
2.44603e-08
3.16162e-07
2.33796e-08
3.16317e-07
2.24011e-08
3.16458e-07
2.15061e-08
3.16588e-07
2.06816e-08
3.16708e-07
1.9918e-08
3.1682e-07
1.92075e-08
3.16925e-07
1.85439e-08
3.17024e-07
1.79219e-08
3.17119e-07
1.73372e-08
3.17208e-07
1.67863e-08
3.17294e-07
1.62661e-08
3.17377e-07
1.5774e-08
3.17457e-07
1.53075e-08
3.17535e-07
1.48645e-08
3.1761e-07
1.4443e-08
3.17683e-07
1.4041e-08
3.17754e-07
1.36565e-08
3.17824e-07
1.32879e-08
3.17893e-07
1.29331e-08
3.1796e-07
1.25903e-08
3.18027e-07
1.22574e-08
3.18092e-07
1.19322e-08
3.18157e-07
1.16121e-08
3.18222e-07
1.12947e-08
3.18287e-07
1.09763e-08
3.18351e-07
1.06538e-08
3.18416e-07
1.03222e-08
3.18482e-07
9.97624e-09
3.18548e-07
9.60956e-09
3.18615e-07
9.21182e-09
3.18682e-07
8.77594e-09
3.18748e-07
8.28114e-09
3.18811e-07
7.72102e-09
3.18863e-07
7.06038e-09
3.189e-07
6.29888e-09
3.189e-07
5.4027e-09
3.1885e-07
4.40645e-09
3.33947e-09
3.18729e-07
3.16777e-07
2.45701e-08
3.19656e-07
4.67623e-08
3.20969e-07
4.34158e-08
3.21923e-07
3.77053e-08
3.22792e-07
3.58829e-08
3.23401e-07
3.43317e-08
3.23812e-07
3.20138e-08
3.24151e-07
2.98485e-08
3.2445e-07
2.81554e-08
3.24706e-07
2.67328e-08
3.24925e-07
2.54425e-08
3.25118e-07
2.42674e-08
3.25291e-07
2.32066e-08
3.25448e-07
2.22445e-08
3.2559e-07
2.13635e-08
3.25721e-07
2.05507e-08
3.25842e-07
1.97969e-08
3.25955e-07
1.90947e-08
3.26061e-07
1.84382e-08
3.26161e-07
1.78222e-08
3.26255e-07
1.72427e-08
3.26345e-07
1.66962e-08
3.26431e-07
1.61799e-08
3.26514e-07
1.56911e-08
3.26594e-07
1.52276e-08
3.26671e-07
1.47872e-08
3.26746e-07
1.43679e-08
3.26819e-07
1.39679e-08
3.26891e-07
1.35852e-08
3.2696e-07
1.32182e-08
3.27029e-07
1.28648e-08
3.27096e-07
1.25232e-08
3.27162e-07
1.21912e-08
3.27227e-07
1.18669e-08
3.27292e-07
1.15474e-08
3.27356e-07
1.12304e-08
3.2742e-07
1.09122e-08
3.27485e-07
1.05896e-08
3.27549e-07
1.02579e-08
3.27614e-07
9.91142e-09
3.27679e-07
9.54434e-09
3.27744e-07
9.14642e-09
3.2781e-07
8.71061e-09
3.27873e-07
8.21826e-09
3.27932e-07
7.66192e-09
3.27979e-07
7.01311e-09
3.28008e-07
6.26947e-09
3.28002e-07
5.40905e-09
3.27946e-07
4.46235e-09
3.46284e-09
3.27823e-07
3.26187e-07
2.21855e-08
3.28996e-07
4.39536e-08
3.3034e-07
4.20719e-08
3.31272e-07
3.67727e-08
3.32141e-07
3.50144e-08
3.32775e-07
3.36976e-08
3.33202e-07
3.15862e-08
3.33548e-07
2.95031e-08
3.33853e-07
2.78504e-08
3.34115e-07
2.64706e-08
3.34339e-07
2.52184e-08
3.34536e-07
2.4071e-08
3.34711e-07
2.30309e-08
3.3487e-07
2.20857e-08
3.35014e-07
2.12191e-08
3.35147e-07
2.04184e-08
3.35269e-07
1.96747e-08
3.35383e-07
1.89811e-08
3.35489e-07
1.83318e-08
3.35589e-07
1.7722e-08
3.35684e-07
1.71478e-08
3.35774e-07
1.66059e-08
3.35861e-07
1.60936e-08
3.35944e-07
1.56082e-08
3.36024e-07
1.51477e-08
3.36101e-07
1.47099e-08
3.36176e-07
1.4293e-08
3.36249e-07
1.3895e-08
3.3632e-07
1.35141e-08
3.36389e-07
1.31487e-08
3.36458e-07
1.27967e-08
3.36524e-07