/*--------------------------------*- C++ -*----------------------------------*\
  =========                 |
  \\      /  F ield         | OpenFOAM: The Open Source CFD Toolbox
   \\    /   O peration     | Website:  https://openfoam.org
    \\  /    A nd           | Version:  7
     \\/     M anipulation  |
\*---------------------------------------------------------------------------*/
FoamFile
{
    version     2.0;
    format      ascii;
    class       volVectorField;
    location    "0.1";
    object      U_0;
}
// * * * * * * * * * * * * * * * * * * * * * * * * * * * * * * * * * * * * * //

dimensions      [0 1 -1 0 0 0 0];

internalField   nonuniform List<vector> 
70000
(
(0.553414 0.0169781 0)
(0.251418 0.00340045 0)
(0.165925 0.000319023 0)
(0.132437 4.90635e-05 0)
(0.117327 4.41125e-05 0)
(0.107363 5.22767e-05 0)
(0.0993859 4.44734e-05 0)
(0.0929368 3.5393e-05 0)
(0.087688 2.93505e-05 0)
(0.0833147 2.52067e-05 0)
(0.0795888 2.20381e-05 0)
(0.0763625 1.94967e-05 0)
(0.0735345 1.74234e-05 0)
(0.0710307 1.57095e-05 0)
(0.0687947 1.42741e-05 0)
(0.066783 1.30574e-05 0)
(0.0649614 1.20146e-05 0)
(0.0633026 1.11118e-05 0)
(0.0617845 1.03232e-05 0)
(0.060389 9.6284e-06 0)
(0.0591011 9.01141e-06 0)
(0.0579083 8.45943e-06 0)
(0.0568001 7.96203e-06 0)
(0.0557675 7.51075e-06 0)
(0.0548029 7.09826e-06 0)
(0.0538996 6.71867e-06 0)
(0.0530522 6.366e-06 0)
(0.0522556 6.03644e-06 0)
(0.0515058 5.72339e-06 0)
(0.050799 5.42588e-06 0)
(0.0501323 5.13386e-06 0)
(0.0495029 4.85176e-06 0)
(0.0489089 4.5608e-06 0)
(0.0483483 4.27629e-06 0)
(0.0478201 3.96209e-06 0)
(0.047323 3.65127e-06 0)
(0.046857 3.28394e-06 0)
(0.0464226 2.90204e-06 0)
(0.0460184 2.456e-06 0)
(0.045652 1.88952e-06 0)
(0.0453122 1.39787e-06 0)
(0.0450314 3.08857e-07 0)
(0.0447589 5.66067e-08 0)
(0.0446099 -2.58683e-06 0)
(0.0443992 -1.48496e-06 0)
(0.0444969 -8.74551e-06 0)
(0.0443162 -2.9771e-06 0)
(0.0449128 -2.34364e-05 0)
(0.0449912 1.27478e-05 0)
(0.042801 -0.00170008 0)
(0.884863 0.0434932 0)
(0.65015 0.0201492 0)
(0.493975 0.00660526 0)
(0.403541 0.00275563 0)
(0.354813 0.00154897 0)
(0.323478 0.00113276 0)
(0.299558 0.000910354 0)
(0.280329 0.000745748 0)
(0.264597 0.000623027 0)
(0.251458 0.00053252 0)
(0.240261 0.000463809 0)
(0.230565 0.00040974 0)
(0.222063 0.000366061 0)
(0.214532 0.000330121 0)
(0.207803 0.000300112 0)
(0.201747 0.000274737 0)
(0.196261 0.00025304 0)
(0.191262 0.000234303 0)
(0.186685 0.00021798 0)
(0.182476 0.000203649 0)
(0.178589 0.000190976 0)
(0.174987 0.000179698 0)
(0.171638 0.000169603 0)
(0.168516 0.000160515 0)
(0.165597 0.000152291 0)
(0.162861 0.000144809 0)
(0.160291 0.000137965 0)
(0.157872 0.000131669 0)
(0.155592 0.000125838 0)
(0.153439 0.000120408 0)
(0.151404 0.000115297 0)
(0.149477 0.000110465 0)
(0.147654 0.000105811 0)
(0.145926 0.000101333 0)
(0.14429 9.68579e-05 0)
(0.142741 9.24707e-05 0)
(0.141277 8.78302e-05 0)
(0.139899 8.31946e-05 0)
(0.1386 7.7903e-05 0)
(0.137398 7.24694e-05 0)
(0.136261 6.58115e-05 0)
(0.135272 5.84498e-05 0)
(0.134292 4.94623e-05 0)
(0.133618 3.73157e-05 0)
(0.132758 2.52232e-05 0)
(0.132668 -5.65384e-07 0)
(0.131815 -1.03193e-05 0)
(0.132874 -0.000108319 0)
(0.132425 0.00010287 0)
(0.13139 -0.00308005 0)
(0.991209 0.0499555 0)
(0.890928 0.0305631 0)
(0.762492 0.014612 0)
(0.656519 0.00797312 0)
(0.585389 0.00488249 0)
(0.535986 0.00347774 0)
(0.498057 0.00274167 0)
(0.46739 0.00224738 0)
(0.44204 0.00188361 0)
(0.420697 0.00161196 0)
(0.402413 0.00140454 0)
(0.38652 0.00124131 0)
(0.372542 0.00110953 0)
(0.360128 0.0010011 0)
(0.349014 0.000910543 0)
(0.338991 0.000833943 0)
(0.329897 0.000768427 0)
(0.321601 0.00071184 0)
(0.313994 0.000662538 0)
(0.306991 0.000619252 0)
(0.300518 0.000580985 0)
(0.294513 0.000546945 0)
(0.288926 0.000516491 0)
(0.283711 0.000489102 0)
(0.278832 0.000464345 0)
(0.274255 0.000441857 0)
(0.269952 0.000421329 0)
(0.265898 0.000402494 0)
(0.262073 0.000385116 0)
(0.258457 0.000368994 0)
(0.255035 0.000353919 0)
(0.251791 0.00033975 0)
(0.248715 0.00032625 0)
(0.245795 0.00031336 0)
(0.243023 0.000300701 0)
(0.240391 0.000288414 0)
(0.237894 0.000275714 0)
(0.23553 0.000263233 0)
(0.23329 0.000249217 0)
(0.231196 0.000235431 0)
(0.2292 0.00021802 0)
(0.227418 0.000200999 0)
(0.225648 0.000176632 0)
(0.22431 0.000151967 0)
(0.2227 0.000115105 0)
(0.222159 6.78113e-05 0)
(0.220537 2.28403e-05 0)
(0.221512 -0.000168615 0)
(0.220187 4.98985e-05 0)
(0.221212 -0.00339258 0)
(1.01554 0.0489535 0)
(1.0065 0.0357247 0)
(0.935892 0.0208214 0)
(0.852005 0.0135024 0)
(0.782205 0.00920322 0)
(0.72702 0.00678939 0)
(0.681887 0.00539357 0)
(0.644079 0.00445238 0)
(0.612018 0.00375762 0)
(0.584509 0.00323161 0)
(0.560614 0.00282532 0)
(0.539627 0.00250343 0)
(0.521017 0.00224244 0)
(0.504382 0.00202694 0)
(0.489406 0.00184641 0)
(0.475839 0.0016933 0)
(0.463482 0.00156207 0)
(0.452171 0.0014485 0)
(0.441771 0.0013494 0)
(0.432171 0.00126229 0)
(0.423278 0.00118518 0)
(0.415013 0.00111654 0)
(0.407307 0.00105509 0)
(0.400104 0.000999806 0)
(0.393354 0.000949825 0)
(0.387013 0.00090443 0)
(0.381044 0.000863011 0)
(0.375414 0.00082504 0)
(0.370094 0.000790057 0)
(0.365059 0.000757659 0)
(0.360288 0.000727461 0)
(0.35576 0.000699162 0)
(0.351459 0.000672355 0)
(0.347369 0.000646877 0)
(0.34348 0.000622105 0)
(0.33978 0.000598212 0)
(0.33626 0.000573881 0)
(0.332917 0.00055021 0)
(0.329738 0.000524019 0)
(0.326746 0.00049886 0)
(0.323884 0.000466902 0)
(0.321283 0.000437702 0)
(0.31871 0.00039275 0)
(0.316641 0.000354192 0)
(0.314277 0.00028355 0)
(0.313113 0.000215423 0)
(0.310777 0.000115733 0)
(0.311265 -0.000153228 0)
(0.309155 -4.14494e-05 0)
(0.310884 -0.00332771 0)
(1.01435 0.0460978 0)
(1.04798 0.0373416 0)
(1.02457 0.0241894 0)
(0.974682 0.0175629 0)
(0.923467 0.0131165 0)
(0.876706 0.0102144 0)
(0.834502 0.00835508 0)
(0.796709 0.00703246 0)
(0.763104 0.00602141 0)
(0.733247 0.00523353 0)
(0.706625 0.00461135 0)
(0.682768 0.00411053 0)
(0.661276 0.00369967 0)
(0.641817 0.00335729 0)
(0.624114 0.0030683 0)
(0.607936 0.00282169 0)
(0.59309 0.00260917 0)
(0.579414 0.00242446 0)
(0.566772 0.00226266 0)
(0.555046 0.00211995 0)
(0.544138 0.0019933 0)
(0.533962 0.00188026 0)
(0.524444 0.00177886 0)
(0.51552 0.00168747 0)
(0.507135 0.00160473 0)
(0.499238 0.00152949 0)
(0.491789 0.00146079 0)
(0.484747 0.00139778 0)
(0.478081 0.00133972 0)
(0.47176 0.00128597 0)
(0.465759 0.00123593 0)
(0.460055 0.0011891 0)
(0.454627 0.00114488 0)
(0.449458 0.00110296 0)
(0.444533 0.00106245 0)
(0.439837 0.00102354 0)
(0.435362 0.00098433 0)
(0.431099 0.000946402 0)
(0.427035 0.000905027 0)
(0.42319 0.00086572 0)
(0.419509 0.000816227 0)
(0.416115 0.000772347 0)
(0.412783 0.000703523 0)
(0.409973 0.000648704 0)
(0.406915 0.000540655 0)
(0.405036 0.000448193 0)
(0.402113 0.000290171 0)
(0.401835 -5.36101e-05 0)
(0.399264 -8.74574e-05 0)
(0.400407 -0.00317427 0)
(1.00941 0.0430473 0)
(1.05564 0.0370969 0)
(1.05868 0.025331 0)
(1.03631 0.0197686 0)
(1.00712 0.0158064 0)
(0.976087 0.0129448 0)
(0.944526 0.0109748 0)
(0.913616 0.00949207 0)
(0.884219 0.00830064 0)
(0.856717 0.00733254 0)
(0.83119 0.0065424 0)
(0.807576 0.00588993 0)
(0.785754 0.00534382 0)
(0.765581 0.00488133 0)
(0.746911 0.00448576 0)
(0.729601 0.00414444 0)
(0.713521 0.00384759 0)
(0.698553 0.00358752 0)
(0.68459 0.00335817 0)
(0.671538 0.00315468 0)
(0.65931 0.00297317 0)
(0.647834 0.00281045 0)
(0.637041 0.00266391 0)
(0.626872 0.00253137 0)
(0.617274 0.00241102 0)
(0.608201 0.0023013 0)
(0.599609 0.00220089 0)
(0.591462 0.00210863 0)
(0.583725 0.0020235 0)
(0.576368 0.0019446 0)
(0.569366 0.00187112 0)
(0.562692 0.00180235 0)
(0.556328 0.00173747 0)
(0.550252 0.00167603 0)
(0.544451 0.00161687 0)
(0.538907 0.00156014 0)
(0.533611 0.00150341 0)
(0.528553 0.00144866 0)
(0.523721 0.0013897 0)
(0.519128 0.00133381 0)
(0.514728 0.00126465 0)
(0.510626 0.00120354 0)
(0.506627 0.00110929 0)
(0.503129 0.00103468 0)
(0.499477 0.000889609 0)
(0.49688 0.000765848 0)
(0.493504 0.000553509 0)
(0.492347 0.000126474 0)
(0.489536 -4.83913e-05 0)
(0.489634 -0.00294023 0)
(1.00635 0.0401793 0)
(1.05241 0.0361501 0)
(1.06606 0.0252545 0)
(1.05954 0.0205741 0)
(1.0469 0.0172347 0)
(1.03083 0.0146652 0)
(1.01191 0.0128366 0)
(0.99119 0.0114118 0)
(0.96974 0.0102144 0)
(0.948292 0.00919851 0)
(0.92729 0.00833818 0)
(0.906999 0.00760539 0)
(0.887566 0.00697581 0)
(0.869061 0.00643074 0)
(0.851502 0.00595576 0)
(0.834876 0.00553936 0)
(0.819152 0.00517224 0)
(0.804285 0.00484683 0)
(0.790229 0.00455691 0)
(0.776933 0.00429741 0)
(0.764348 0.00406412 0)
(0.752426 0.00385353 0)
(0.741122 0.00366273 0)
(0.730393 0.00348923 0)
(0.7202 0.00333092 0)
(0.710506 0.00318597 0)
(0.701276 0.00305282 0)
(0.69248 0.00293005 0)
(0.68409 0.00281646 0)
(0.676078 0.00271093 0)
(0.668422 0.00261245 0)
(0.6611 0.00252012 0)
(0.654093 0.00243297 0)
(0.647382 0.00235036 0)
(0.640956 0.00227093 0)
(0.634796 0.00219475 0)
(0.628895 0.00211895 0)
(0.623241 0.00204574 0)
(0.617827 0.00196778 0)
(0.612659 0.00189358 0)
(0.607704 0.00180367 0)
(0.603038 0.00172313 0)
(0.598519 0.00160339 0)
(0.594452 0.00150519 0)
(0.590339 0.00132582 0)
(0.58711 0.00116327 0)
(0.5834 0.000902768 0)
(0.581426 0.000389306 0)
(0.578438 8.16093e-05 0)
(0.57754 -0.0026096 0)
(1.00506 0.0375021 0)
(1.04763 0.0350518 0)
(1.06396 0.0247071 0)
(1.06419 0.0206057 0)
(1.0607 0.017774 0)
(1.05479 0.0155079 0)
(1.04601 0.0138956 0)
(1.0348 0.0126367 0)
(1.02185 0.0115508 0)
(1.00778 0.0105984 0)
(0.993056 0.00976601 0)
(0.978019 0.009036 0)
(0.962941 0.00839176 0)
(0.948016 0.00782033 0)
(0.933382 0.0073115 0)
(0.91913 0.00685683 0)
(0.905318 0.00644915 0)
(0.891981 0.00608236 0)
(0.879136 0.00575124 0)
(0.866786 0.00545137 0)
(0.854927 0.00517896 0)
(0.843548 0.00493077 0)
(0.832634 0.00470402 0)
(0.822169 0.00449627 0)
(0.812132 0.00430544 0)
(0.802506 0.00412966 0)
(0.793271 0.00396728 0)
(0.784409 0.00381684 0)
(0.7759 0.00367701 0)
(0.767727 0.00354659 0)
(0.759875 0.00342445 0)
(0.752326 0.00330959 0)
(0.745069 0.00320091 0)
(0.738089 0.00309766 0)
(0.731375 0.0029983 0)
(0.724915 0.00290281 0)
(0.718704 0.00280801 0)
(0.712731 0.00271619 0)
(0.706992 0.00261921 0)
(0.701489 0.00252619 0)
(0.696203 0.00241576 0)
(0.691188 0.00231461 0)
(0.686344 0.00217056 0)
(0.681894 0.00204601 0)
(0.677489 0.00183598 0)
(0.673798 0.00162954 0)
(0.669875 0.00132586 0)
(0.667263 0.000731336 0)
(0.664119 0.000296106 0)
(0.662426 -0.00219139 0)
(1.00451 0.0349662 0)
(1.0436 0.0339719 0)
(1.05994 0.0240564 0)
(1.06223 0.0203166 0)
(1.06252 0.0178396 0)
(1.06185 0.0157887 0)
(1.05927 0.0143509 0)
(1.0547 0.0132586 0)
(1.04846 0.0123156 0)
(1.04086 0.0114759 0)
(1.03218 0.0107284 0)
(1.02268 0.0100596 0)
(1.01258 0.00945678 0)
(1.00209 0.00891069 0)
(0.991374 0.00841447 0)
(0.980556 0.00796255 0)
(0.969743 0.00755014 0)
(0.959016 0.00717304 0)
(0.948434 0.00682756 0)
(0.938043 0.00651045 0)
(0.927876 0.00621884 0)
(0.917955 0.00595018 0)
(0.908294 0.00570223 0)
(0.898904 0.00547296 0)
(0.889787 0.00526058 0)
(0.880943 0.00506343 0)
(0.872373 0.00488004 0)
(0.864069 0.00470903 0)
(0.856029 0.00454914 0)
(0.848245 0.00439919 0)
(0.840712 0.00425807 0)
(0.83342 0.00412474 0)
(0.826366 0.00399808 0)
(0.81954 0.00387727 0)
(0.81294 0.00376069 0)
(0.806556 0.00364824 0)
(0.800388 0.00353655 0)
(0.794428 0.00342786 0)
(0.788678 0.0033136 0)
(0.783137 0.00320294 0)
(0.777798 0.0030737 0)
(0.772696 0.00295234 0)
(0.767772 0.00278641 0)
(0.76318 0.00263467 0)
(0.758687 0.00239793 0)
(0.754762 0.00214628 0)
(0.750776 0.00180292 0)
(0.747763 0.00113758 0)
(0.744528 0.000583408 0)
(0.742266 -0.00170568 0)
(1.00412 0.0325356 0)
(1.04027 0.0329185 0)
(1.05617 0.0234219 0)
(1.05887 0.0199325 0)
(1.06025 0.0177112 0)
(1.06163 0.0157924 0)
(1.06199 0.0144567 0)
(1.06108 0.0134803 0)
(1.059 0.012654 0)
(1.05585 0.0119205 0)
(1.05173 0.0112666 0)
(1.04675 0.0106782 0)
(1.04103 0.0101426 0)
(1.0347 0.00965117 0)
(1.02789 0.00919819 0)
(1.0207 0.00877948 0)
(1.01323 0.00839167 0)
(1.00556 0.0080319 0)
(0.997774 0.00769768 0)
(0.98992 0.00738683 0)
(0.982052 0.00709741 0)
(0.97421 0.00682766 0)
(0.966428 0.006576 0)
(0.958731 0.00634096 0)
(0.951141 0.00612118 0)
(0.943674 0.00591539 0)
(0.93634 0.0057224 0)
(0.929151 0.00554107 0)
(0.922112 0.00537034 0)
(0.915228 0.00520916 0)
(0.908502 0.00505653 0)
(0.901935 0.00491148 0)
(0.89553 0.00477292 0)
(0.889286 0.00464004 0)
(0.883205 0.00451123 0)
(0.877284 0.00438634 0)
(0.871528 0.00426189 0)
(0.865933 0.00414004 0)
(0.860505 0.00401205 0)
(0.855245 0.00388672 0)
(0.850155 0.00374198 0)
(0.84526 0.00360263 0)
(0.840524 0.00341843 0)
(0.836057 0.00324093 0)
(0.831712 0.00298184 0)
(0.827805 0.00268726 0)
(0.82394 0.0023076 0)
(0.82078 0.00158484 0)
(0.817573 0.000925595 0)
(0.814981 -0.00117702 0)
(1.00374 0.0302013 0)
(1.03727 0.0318694 0)
(1.05284 0.0228186 0)
(1.05564 0.0195307 0)
(1.05716 0.0175215 0)
(1.05909 0.0156918 0)
(1.06052 0.0144042 0)
(1.0612 0.0134919 0)
(1.06118 0.0127396 0)
(1.06051 0.0120809 0)
(1.05918 0.0114998 0)
(1.0572 0.0109809 0)
(1.0546 0.0105099 0)
(1.05145 0.0100772 0)
(1.04779 0.00967645 0)
(1.04369 0.00930342 0)
(1.03921 0.00895495 0)
(1.03441 0.00862856 0)
(1.02935 0.00832227 0)
(1.02408 0.00803444 0)
(1.01864 0.00776367 0)
(1.01307 0.00750875 0)
(1.00742 0.00726858 0)
(1.0017 0.00704215 0)
(0.995959 0.00682851 0)
(0.990207 0.00662673 0)
(0.984467 0.00643596 0)
(0.978755 0.00625529 0)
(0.973086 0.00608392 0)
(0.96747 0.00592096 0)
(0.96192 0.00576558 0)
(0.956441 0.00561692 0)
(0.951043 0.00547398 0)
(0.94573 0.00533602 0)
(0.940511 0.00520144 0)
(0.935387 0.0050701 0)
(0.930366 0.0049385 0)
(0.925451 0.00480866 0)
(0.92065 0.00467188 0)
(0.915968 0.00453634 0)
(0.911409 0.00438071 0)
(0.906996 0.00422716 0)
(0.90271 0.00402938 0)
(0.898629 0.00382953 0)
(0.894664 0.00355298 0)
(0.891024 0.00322076 0)
(0.887474 0.00280884 0)
(0.884415 0.00204436 0)
(0.881386 0.0012982 0)
(0.878701 -0.000634666 0)
(1.00337 0.0279658 0)
(1.03443 0.0308122 0)
(1.04973 0.0222403 0)
(1.05267 0.0191261 0)
(1.05416 0.0173133 0)
(1.05614 0.0155621 0)
(1.05785 0.014297 0)
(1.05905 0.013416 0)
(1.05985 0.0127048 0)
(1.06029 0.0120899 0)
(1.06035 0.0115542 0)
(1.06001 0.0110823 0)
(1.05926 0.0106589 0)
(1.05812 0.0102728 0)
(1.05659 0.00991701 0)
(1.05468 0.00958643 0)
(1.05244 0.00927746 0)
(1.04989 0.00898735 0)
(1.04705 0.00871402 0)
(1.04397 0.00845583 0)
(1.04066 0.00821151 0)
(1.03717 0.00798 0)
(1.03351 0.0077604 0)
(1.02971 0.0075519 0)
(1.0258 0.0073538 0)
(1.0218 0.00716538 0)
(1.01773 0.00698598 0)
(1.01361 0.00681491 0)
(1.00944 0.00665152 0)
(1.00525 0.0064951 0)
(1.00105 0.00634493 0)
(0.996852 0.00620027 0)
(0.992661 0.00606021 0)
(0.988489 0.00592408 0)
(0.984345 0.00579032 0)
(0.980236 0.00565878 0)
(0.976172 0.00552601 0)
(0.972158 0.00539384 0)
(0.968205 0.00525377 0)
(0.96432 0.00511313 0)
(0.96051 0.00495183 0)
(0.956795 0.00478876 0)
(0.953168 0.00458266 0)
(0.949683 0.00436523 0)
(0.946294 0.00407643 0)
(0.943131 0.00371387 0)
(0.940067 0.00327471 0)
(0.937322 0.00248518 0)
(0.93462 0.00167095 0)
(0.932056 -0.00010229 0)
(1.00301 0.0258325 0)
(1.03171 0.0297429 0)
(1.04674 0.0216831 0)
(1.04988 0.0187187 0)
(1.05134 0.0170934 0)
(1.05329 0.0154253 0)
(1.05503 0.0141761 0)
(1.05634 0.0133117 0)
(1.05738 0.0126241 0)
(1.05821 0.0120334 0)
(1.05883 0.0115228 0)
(1.05923 0.0110779 0)
(1.0594 0.0106835 0)
(1.05932 0.0103278 0)
(1.05899 0.0100031 0)
(1.05841 0.00970378 0)
(1.05759 0.00942568 0)
(1.05653 0.00916564 0)
(1.05524 0.00892122 0)
(1.05374 0.00869055 0)
(1.05204 0.00847219 0)
(1.05015 0.00826497 0)
(1.0481 0.00806796 0)
(1.04589 0.00788035 0)
(1.04354 0.00770146 0)
(1.04107 0.00753063 0)
(1.03849 0.00736727 0)
(1.03582 0.00721077 0)
(1.03306 0.00706054 0)
(1.03024 0.00691595 0)
(1.02736 0.00677636 0)
(1.02443 0.0066411 0)
(1.02146 0.00650928 0)
(1.01846 0.0063803 0)
(1.01545 0.00625259 0)
(1.01242 0.00612602 0)
(1.00939 0.00599713 0)
(1.00637 0.00586757 0)
(1.00337 0.00572913 0)
(1.00039 0.00558813 0)
(0.997439 0.00542607 0)
(0.994542 0.00525814 0)
(0.991695 0.0050487 0)
(0.988936 0.00481893 0)
(0.986245 0.00452283 0)
(0.983697 0.00413811 0)
(0.981235 0.00367762 0)
(0.978956 0.0028782 0)
(0.976695 0.00201687 0)
(0.974418 0.000393854 0)
(1.00268 0.023804 0)
(1.02911 0.0286598 0)
(1.04383 0.0211466 0)
(1.04719 0.0183082 0)
(1.04865 0.01686 0)
(1.05056 0.0152842 0)
(1.0523 0.0140524 0)
(1.05362 0.0132001 0)
(1.05469 0.0125294 0)
(1.05562 0.0119541 0)
(1.05641 0.0114576 0)
(1.05708 0.0110274 0)
(1.05761 0.010649 0)
(1.058 0.0103107 0)
(1.05824 0.0100046 0)
(1.05834 0.00972474 0)
(1.05829 0.00946684 0)
(1.05808 0.00922744 0)
(1.05772 0.00900382 0)
(1.0572 0.00879388 0)
(1.05654 0.00859595 0)
(1.05574 0.0084087 0)
(1.0548 0.00823107 0)
(1.05373 0.00806214 0)
(1.05253 0.00790115 0)
(1.05122 0.00774738 0)
(1.04981 0.00760021 0)
(1.04829 0.007459 0)
(1.04669 0.00732318 0)
(1.045 0.00719209 0)
(1.04324 0.00706511 0)
(1.04141 0.00694155 0)
(1.03952 0.00682054 0)
(1.03759 0.00670147 0)
(1.0356 0.00658274 0)
(1.03358 0.00646419 0)
(1.03153 0.00634238 0)
(1.02946 0.00621868 0)
(1.02738 0.00608529 0)
(1.02529 0.00594736 0)
(1.0232 0.0057882 0)
(1.02113 0.00561914 0)
(1.01909 0.00541032 0)
(1.01708 0.00517296 0)
(1.01512 0.0048736 0)
(1.01324 0.00447468 0)
(1.01142 0.00399871 0)
(1.00968 0.00320243 0)
(1.00792 0.00231614 0)
(1.00603 0.00082561 0)
(1.00238 0.0218821 0)
(1.02664 0.0275621 0)
(1.041 0.0206307 0)
(1.04458 0.0178962 0)
(1.04606 0.016612 0)
(1.04794 0.0151373 0)
(1.04967 0.0139274 0)
(1.05099 0.0130861 0)
(1.05205 0.0124307 0)
(1.05298 0.0118683 0)
(1.05381 0.0113816 0)
(1.05454 0.0109605 0)
(1.05518 0.0105913 0)
(1.05574 0.0102628 0)
(1.05621 0.00996693 0)
(1.05659 0.00969814 0)
(1.05689 0.00945197 0)
(1.05709 0.00922493 0)
(1.0572 0.00901422 0)
(1.05722 0.00881761 0)
(1.05714 0.00863332 0)
(1.05697 0.00845991 0)
(1.05671 0.00829618 0)
(1.05635 0.00814114 0)
(1.0559 0.00799391 0)
(1.05536 0.00785371 0)
(1.05474 0.00771984 0)
(1.05404 0.00759161 0)
(1.05326 0.00746837 0)
(1.05241 0.00734947 0)
(1.05149 0.00723418 0)
(1.05051 0.00712184 0)
(1.04946 0.00701149 0)
(1.04836 0.00690251 0)
(1.04722 0.00679324 0)
(1.04602 0.00668345 0)
(1.04479 0.00656973 0)
(1.04353 0.00645311 0)
(1.04223 0.00632625 0)
(1.04092 0.00619305 0)
(1.0396 0.00603873 0)
(1.03827 0.00587083 0)
(1.03694 0.00566495 0)
(1.03563 0.00542362 0)
(1.03434 0.0051237 0)
(1.03309 0.00471727 0)
(1.03187 0.00423114 0)
(1.03067 0.00344845 0)
(1.0294 0.00255468 0)
(1.02792 0.00118241 0)
(1.0021 0.0200677 0)
(1.02431 0.0264516 0)
(1.03827 0.0201328 0)
(1.04206 0.0174847 0)
(1.04356 0.0163494 0)
(1.04541 0.0149832 0)
(1.04714 0.0138003 0)
(1.04846 0.0129702 0)
(1.04951 0.01233 0)
(1.05042 0.0117804 0)
(1.05124 0.0113026 0)
(1.05198 0.0108886 0)
(1.05264 0.010526 0)
(1.05324 0.0102037 0)
(1.05377 0.00991413 0)
(1.05425 0.00965169 0)
(1.05468 0.00941215 0)
(1.05505 0.00919206 0)
(1.05536 0.00898868 0)
(1.05562 0.00879978 0)
(1.05582 0.00862355 0)
(1.05597 0.00845853 0)
(1.05606 0.00830349 0)
(1.05609 0.00815736 0)
(1.05606 0.00801923 0)
(1.05598 0.00788826 0)
(1.05583 0.00776369 0)
(1.05563 0.00764479 0)
(1.05538 0.00753085 0)
(1.05507 0.00742118 0)
(1.05471 0.00731499 0)
(1.0543 0.0072116 0)
(1.05384 0.00710996 0)
(1.05333 0.00700941 0)
(1.05278 0.00690826 0)
(1.0522 0.00680614 0)
(1.05157 0.00669971 0)
(1.05092 0.00658962 0)
(1.05023 0.00646903 0)
(1.04952 0.00634056 0)
(1.0488 0.00619134 0)
(1.04806 0.00602536 0)
(1.04732 0.00582315 0)
(1.04658 0.00558006 0)
(1.04585 0.00528083 0)
(1.04513 0.00487187 0)
(1.04442 0.00437998 0)
(1.04367 0.00361789 0)
(1.04283 0.00273102 0)
(1.04175 0.00146645 0)
(1.00185 0.018361 0)
(1.02211 0.0253326 0)
(1.03564 0.0196495 0)
(1.03962 0.0170753 0)
(1.04115 0.0160728 0)
(1.04297 0.0148211 0)
(1.0447 0.0136707 0)
(1.04602 0.0128521 0)
(1.04706 0.0122272 0)
(1.04796 0.0116911 0)
(1.04876 0.0112224 0)
(1.04949 0.0108153 0)
(1.05014 0.0104584 0)
(1.05073 0.0101413 0)
(1.05128 0.00985639 0)
(1.05178 0.00959829 0)
(1.05224 0.00936293 0)
(1.05266 0.00914701 0)
(1.05304 0.00894786 0)
(1.05339 0.0087633 0)
(1.05371 0.00859159 0)
(1.05399 0.00843128 0)
(1.05424 0.00828115 0)
(1.05445 0.00814015 0)
(1.05463 0.00800735 0)
(1.05477 0.00788191 0)
(1.05488 0.00776303 0)
(1.05495 0.00764997 0)
(1.05499 0.00754199 0)
(1.05499 0.00743837 0)
(1.05496 0.00733828 0)
(1.05489 0.007241 0)
(1.05479 0.00714544 0)
(1.05466 0.0070509 0)
(1.05449 0.00695563 0)
(1.0543 0.00685915 0)
(1.05408 0.00675821 0)
(1.05383 0.00665303 0)
(1.05357 0.00653736 0)
(1.05328 0.00641251 0)
(1.05298 0.00626746 0)
(1.05267 0.00610304 0)
(1.05235 0.00590396 0)
(1.05203 0.00566009 0)
(1.05171 0.00536167 0)
(1.05139 0.00495347 0)
(1.05106 0.00445918 0)
(1.05067 0.00372181 0)
(1.05017 0.00285282 0)
(1.0494 0.00168582 0)
(1.00162 0.0167619 0)
(1.02004 0.0242091 0)
(1.03311 0.0191766 0)
(1.03727 0.0166698 0)
(1.03883 0.0157832 0)
(1.04061 0.0146503 0)
(1.04234 0.0135383 0)
(1.04366 0.0127318 0)
(1.04469 0.0121222 0)
(1.04558 0.0116001 0)
(1.04637 0.0111412 0)
(1.04708 0.0107411 0)
(1.04773 0.01039 0)
(1.04831 0.0100779 0)
(1.04885 0.0097972 0)
(1.04934 0.0095428 0)
(1.0498 0.00931074 0)
(1.05023 0.00909784 0)
(1.05063 0.00890152 0)
(1.051 0.00871969 0)
(1.05135 0.00855067 0)
(1.05168 0.00839305 0)
(1.05198 0.00824566 0)
(1.05226 0.00810748 0)
(1.05253 0.0079776 0)
(1.05277 0.00785519 0)
(1.05299 0.00773946 0)
(1.05319 0.00762967 0)
(1.05336 0.00752507 0)
(1.05352 0.00742493 0)
(1.05366 0.00732842 0)
(1.05377 0.00723477 0)
(1.05387 0.00714289 0)
(1.05394 0.00705202 0)
(1.05399 0.00696039 0)
(1.05403 0.00686742 0)
(1.05405 0.00676996 0)
(1.05405 0.0066678 0)
(1.05404 0.00655528 0)
(1.05402 0.00643252 0)
(1.05398 0.00629017 0)
(1.05394 0.00612639 0)
(1.0539 0.00592925 0)
(1.05385 0.00568481 0)
(1.05381 0.0053867 0)
(1.05375 0.00498119 0)
(1.05368 0.00448707 0)
(1.05353 0.00377632 0)
(1.05326 0.00293275 0)
(1.05272 0.00185323 0)
(1.00142 0.0152694 0)
(1.01812 0.0230854 0)
(1.03068 0.01871 0)
(1.03501 0.0162695 0)
(1.0366 0.015482 0)
(1.03835 0.0144702 0)
(1.04006 0.0134028 0)
(1.04139 0.0126092 0)
(1.04242 0.0120147 0)
(1.0433 0.0115074 0)
(1.04408 0.0110588 0)
(1.04478 0.010666 0)
(1.04541 0.010321 0)
(1.04598 0.0100139 0)
(1.0465 0.00973747 0)
(1.04699 0.00948667 0)
(1.04744 0.0092577 0)
(1.04786 0.00904748 0)
(1.04825 0.00885351 0)
(1.04862 0.0086738 0)
(1.04897 0.0085067 0)
(1.04931 0.00835087 0)
(1.04963 0.00820519 0)
(1.04993 0.00806867 0)
(1.05022 0.00794043 0)
(1.05049 0.00781967 0)
(1.05075 0.00770562 0)
(1.051 0.00759754 0)
(1.05123 0.00749471 0)
(1.05146 0.00739638 0)
(1.05167 0.00730172 0)
(1.05186 0.00720998 0)
(1.05205 0.00712001 0)
(1.05222 0.00703105 0)
(1.05239 0.00694134 0)
(1.05254 0.00685013 0)
(1.05268 0.00675447 0)
(1.05281 0.00665371 0)
(1.05294 0.00654276 0)
(1.05306 0.00642069 0)
(1.05318 0.00627957 0)
(1.05329 0.00611549 0)
(1.05341 0.00591899 0)
(1.05352 0.00567389 0)
(1.05363 0.00537549 0)
(1.05373 0.00497375 0)
(1.05381 0.00448192 0)
(1.05381 0.0037982 0)
(1.05367 0.00298494 0)
(1.05327 0.00198402 0)
(1.00124 0.0138823 0)
(1.01633 0.0219653 0)
(1.02836 0.0182461 0)
(1.03283 0.0158757 0)
(1.03447 0.0151708 0)
(1.03618 0.0142803 0)
(1.03788 0.0132639 0)
(1.03921 0.0124845 0)
(1.04024 0.0119048 0)
(1.0411 0.0114127 0)
(1.04187 0.0109751 0)
(1.04256 0.01059 0)
(1.04318 0.0102512 0)
(1.04374 0.00994934 0)
(1.04425 0.00967732 0)
(1.04472 0.00943021 0)
(1.04516 0.00920435 0)
(1.04557 0.00899677 0)
(1.04596 0.00880507 0)
(1.04632 0.0086273 0)
(1.04667 0.00846188 0)
(1.04699 0.00830753 0)
(1.04731 0.00816316 0)
(1.04761 0.00802782 0)
(1.0479 0.00790067 0)
(1.04818 0.00778092 0)
(1.04845 0.00766783 0)
(1.04871 0.00756069 0)
(1.04896 0.00745876 0)
(1.0492 0.00736133 0)
(1.04944 0.00726757 0)
(1.04967 0.0071767 0)
(1.04989 0.0070876 0)
(1.0501 0.00699944 0)
(1.05031 0.00691052 0)
(1.05051 0.00681996 0)
(1.05071 0.00672494 0)
(1.0509 0.00662446 0)
(1.05109 0.00651394 0)
(1.05128 0.00639154 0)
(1.05147 0.00625054 0)
(1.05166 0.00608547 0)
(1.05185 0.00588862 0)
(1.05204 0.00564279 0)
(1.05224 0.00534375 0)
(1.05241 0.00494647 0)
(1.05256 0.00445884 0)
(1.05263 0.00380182 0)
(1.05256 0.00302185 0)
(1.05224 0.00209171 0)
(1.00107 0.0125985 0)
(1.01467 0.0208529 0)
(1.02616 0.0177815 0)
(1.03075 0.0154893 0)
(1.03244 0.0148515 0)
(1.0341 0.0140801 0)
(1.03579 0.0131208 0)
(1.03712 0.0123576 0)
(1.03815 0.0117924 0)
(1.039 0.0113159 0)
(1.03976 0.01089 0)
(1.04044 0.010513 0)
(1.04105 0.0101806 0)
(1.0416 0.00988418 0)
(1.0421 0.00961672 0)
(1.04256 0.00937342 0)
(1.04299 0.00915076 0)
(1.04339 0.00894589 0)
(1.04376 0.00875649 0)
(1.04411 0.00858065 0)
(1.04445 0.00841689 0)
(1.04477 0.00826394 0)
(1.04507 0.00812076 0)
(1.04537 0.00798645 0)
(1.04565 0.00786019 0)
(1.04593 0.00774122 0)
(1.04619 0.00762881 0)
(1.04645 0.00752227 0)
(1.0467 0.00742088 0)
(1.04695 0.00732393 0)
(1.04718 0.0072306 0)
(1.04742 0.0071401 0)
(1.04765 0.00705133 0)
(1.04787 0.00696341 0)
(1.04809 0.00687468 0)
(1.04831 0.00678412 0)
(1.04853 0.0066891 0)
(1.04874 0.00658826 0)
(1.04895 0.00647748 0)
(1.04917 0.00635421 0)
(1.04939 0.00621262 0)
(1.0496 0.00604624 0)
(1.04983 0.00584844 0)
(1.05005 0.005602 0)
(1.05027 0.00530237 0)
(1.05047 0.00491015 0)
(1.05064 0.00442857 0)
(1.05073 0.0037977 0)
(1.05068 0.00305263 0)
(1.05041 0.00218676 0)
(1.00093 0.0114153 0)
(1.01314 0.0197523 0)
(1.02406 0.017313 0)
(1.02875 0.0151108 0)
(1.03049 0.0145261 0)
(1.03212 0.0138694 0)
(1.03378 0.0129733 0)
(1.03512 0.0122285 0)
(1.03614 0.0116776 0)
(1.03699 0.0112169 0)
(1.03774 0.0108033 0)
(1.03841 0.0104349 0)
(1.03901 0.0101091 0)
(1.03955 0.00981833 0)
(1.04004 0.0095556 0)
(1.04049 0.00931625 0)
(1.04091 0.00909691 0)
(1.0413 0.00889483 0)
(1.04166 0.00870778 0)
(1.042 0.00853394 0)
(1.04233 0.00837185 0)
(1.04264 0.00822031 0)
(1.04294 0.00807833 0)
(1.04322 0.00794503 0)
(1.0435 0.00781961 0)
(1.04376 0.00770135 0)
(1.04402 0.00758953 0)
(1.04427 0.00748349 0)
(1.04452 0.0073825 0)
(1.04476 0.00728588 0)
(1.04499 0.0071928 0)
(1.04522 0.00710248 0)
(1.04545 0.00701381 0)
(1.04567 0.00692588 0)
(1.04589 0.00683707 0)
(1.04611 0.00674624 0)
(1.04632 0.00665092 0)
(1.04654 0.00654944 0)
(1.04676 0.00643806 0)
(1.04698 0.00631371 0)
(1.0472 0.0061712 0)
(1.04742 0.00600347 0)
(1.04765 0.00580454 0)
(1.04787 0.0055578 0)
(1.0481 0.00525803 0)
(1.0483 0.00487149 0)
(1.04846 0.00439778 0)
(1.04854 0.00379253 0)
(1.0485 0.00308311 0)
(1.04823 0.00227618 0)
(1.0008 0.0103295 0)
(1.01174 0.0186677 0)
(1.02208 0.0168379 0)
(1.02683 0.0147406 0)
(1.02864 0.0141965 0)
(1.03023 0.0136481 0)
(1.03187 0.0128205 0)
(1.03321 0.0120973 0)
(1.03423 0.0115603 0)
(1.03507 0.0111156 0)
(1.03581 0.010715 0)
(1.03647 0.0103556 0)
(1.03706 0.0100367 0)
(1.03759 0.00975172 0)
(1.03807 0.00949389 0)
(1.03851 0.00925864 0)
(1.03892 0.00904272 0)
(1.0393 0.00884353 0)
(1.03966 0.00865891 0)
(1.03999 0.00848712 0)
(1.04031 0.00832676 0)
(1.04061 0.00817668 0)
(1.0409 0.00803592 0)
(1.04117 0.00790364 0)
(1.04144 0.00777908 0)
(1.0417 0.00766152 0)
(1.04195 0.00755029 0)
(1.04219 0.00744472 0)
(1.04243 0.00734412 0)
(1.04266 0.00724778 0)
(1.04289 0.00715491 0)
(1.04311 0.0070647 0)
(1.04333 0.00697606 0)
(1.04355 0.00688804 0)
(1.04376 0.00679907 0)
(1.04397 0.00670788 0)
(1.04419 0.00661215 0)
(1.0444 0.00650996 0)
(1.04461 0.00639789 0)
(1.04482 0.00627245 0)
(1.04504 0.00612895 0)
(1.04526 0.00596007 0)
(1.04548 0.00576009 0)
(1.04569 0.00551351 0)
(1.0459 0.00521431 0)
(1.04609 0.00483414 0)
(1.04624 0.00437004 0)
(1.0463 0.00379 0)
(1.04624 0.00311642 0)
(1.04597 0.0023641 0)
(1.00069 0.00933727 0)
(1.01046 0.0176032 0)
(1.0202 0.016354 0)
(1.025 0.0143786 0)
(1.02688 0.0138648 0)
(1.02843 0.0134163 0)
(1.03004 0.0126619 0)
(1.03138 0.0119637 0)
(1.03241 0.0114406 0)
(1.03324 0.0110119 0)
(1.03397 0.0106248 0)
(1.03462 0.010275 0)
(1.0352 0.00996329 0)
(1.03572 0.00968426 0)
(1.0362 0.00943151 0)
(1.03663 0.00920051 0)
(1.03703 0.00898814 0)
(1.0374 0.00879193 0)
(1.03775 0.00860983 0)
(1.03807 0.00844016 0)
(1.03838 0.00828157 0)
(1.03867 0.00813299 0)
(1.03895 0.00799349 0)
(1.03922 0.00786227 0)
(1.03948 0.00773859 0)
(1.03973 0.00762177 0)
(1.03997 0.00751114 0)
(1.04021 0.00740605 0)
(1.04044 0.00730583 0)
(1.04066 0.0072098 0)
(1.04088 0.00711713 0)
(1.0411 0.00702703 0)
(1.04131 0.00693843 0)
(1.04152 0.00685032 0)
(1.04173 0.00676117 0)
(1.04193 0.00666964 0)
(1.04214 0.00657349 0)
(1.04234 0.00647065 0)
(1.04255 0.00635789 0)
(1.04275 0.0062315 0)
(1.04296 0.00608707 0)
(1.04316 0.00591732 0)
(1.04337 0.00571659 0)
(1.04357 0.00547071 0)
(1.04377 0.00517298 0)
(1.04393 0.00479989 0)
(1.04406 0.00434699 0)
(1.0441 0.00379189 0)
(1.04402 0.00315394 0)
(1.04374 0.00245267 0)
(1.0006 0.00843431 0)
(1.0093 0.0165627 0)
(1.01845 0.0158594 0)
(1.02326 0.0140245 0)
(1.02521 0.0135328 0)
(1.02673 0.0131746 0)
(1.0283 0.0124969 0)
(1.02964 0.0118275 0)
(1.03067 0.0113186 0)
(1.0315 0.0109056 0)
(1.03222 0.0105327 0)
(1.03286 0.010193 0)
(1.03343 0.00988873 0)
(1.03395 0.00961587 0)
(1.03441 0.00936837 0)
(1.03484 0.00914178 0)
(1.03523 0.00893309 0)
(1.03559 0.00873997 0)
(1.03593 0.00856046 0)
(1.03625 0.00839298 0)
(1.03655 0.00823624 0)
(1.03684 0.0080892 0)
(1.03711 0.007951 0)
(1.03737 0.00782087 0)
(1.03762 0.0076981 0)
(1.03786 0.00758204 0)
(1.0381 0.00747204 0)
(1.03833 0.00736747 0)
(1.03855 0.00726765 0)
(1.03877 0.00717193 0)
(1.03898 0.00707949 0)
(1.03919 0.00698953 0)
(1.03939 0.00690099 0)
(1.03959 0.00681282 0)
(1.03979 0.00672354 0)
(1.03999 0.00663171 0)
(1.04019 0.00653519 0)
(1.04038 0.00643177 0)
(1.04058 0.00631841 0)
(1.04077 0.00619124 0)
(1.04097 0.00604606 0)
(1.04117 0.00587577 0)
(1.04136 0.00567471 0)
(1.04155 0.00543011 0)
(1.04172 0.00513481 0)
(1.04187 0.00476953 0)
(1.04197 0.00432924 0)
(1.04198 0.00379889 0)
(1.04188 0.0031961 0)
(1.0416 0.00254285 0)
(1.00051 0.00761584 0)
(1.00825 0.0155502 0)
(1.0168 0.0153529 0)
(1.02159 0.0136776 0)
(1.02362 0.0132023 0)
(1.02511 0.0129237 0)
(1.02665 0.012325 0)
(1.02798 0.0116886 0)
(1.02901 0.0111942 0)
(1.02984 0.0107967 0)
(1.03055 0.0104384 0)
(1.03119 0.0101094 0)
(1.03175 0.00981293 0)
(1.03226 0.00954646 0)
(1.03272 0.0093044 0)
(1.03314 0.00908238 0)
(1.03352 0.0088775 0)