/*--------------------------------*- C++ -*----------------------------------*\
  =========                 |
  \\      /  F ield         | OpenFOAM: The Open Source CFD Toolbox
   \\    /   O peration     | Website:  https://openfoam.org
    \\  /    A nd           | Version:  7
     \\/     M anipulation  |
\*---------------------------------------------------------------------------*/
FoamFile
{
    version     2.0;
    format      ascii;
    class       volVectorField;
    location    "0.1";
    object      vorticity;
}
// * * * * * * * * * * * * * * * * * * * * * * * * * * * * * * * * * * * * * //

dimensions      [0 0 -1 0 0 0 0];

internalField   nonuniform List<vector> 
70000
(
(0 -0 -45716.1)
(0 -0 -28617.7)
(0 -0 -20913.1)
(0 -0 -16979.1)
(0 -0 -14957)
(0 -0 -13649)
(0 -0 -12638.5)
(0 -0 -11825)
(0 -0 -11160.3)
(0 -0 -10605.5)
(0 -0 -10132.8)
(0 -0 -9723.37)
(0 -0 -9364.44)
(0 -0 -9046.54)
(0 -0 -8762.55)
(0 -0 -8506.96)
(0 -0 -8275.45)
(0 -0 -8064.55)
(0 -0 -7871.48)
(0 -0 -7693.93)
(0 -0 -7530.01)
(0 -0 -7378.13)
(0 -0 -7236.95)
(0 -0 -7105.34)
(0 -0 -6982.31)
(0 -0 -6867.04)
(0 -0 -6758.8)
(0 -0 -6656.97)
(0 -0 -6561.01)
(0 -0 -6470.44)
(0 -0 -6384.88)
(0 -0 -6303.95)
(0 -0 -6227.41)
(0 -0 -6154.95)
(0 -0 -6086.45)
(0 -0 -6021.7)
(0 -0 -5960.64)
(0 -0 -5903.29)
(0 -0 -5849.43)
(0 -0 -5799.85)
(0 -0 -5753.2)
(0 -0 -5713.1)
(0 -0 -5673.59)
(0 -0 -5647.72)
(0 -0 -5614.06)
(0 -0 -5614.57)
(0 -0 -5582.23)
(0 -0 -5635)
(0 -0 -5630)
(0 -0 -5521.54)
(0 -0 -13549.7)
(0 -0 -19947.4)
(0 -0 -18536.1)
(0 -0 -16249.1)
(0 -0 -14502.5)
(0 -0 -13277.7)
(0 -0 -12348.7)
(0 -0 -11597.8)
(0 -0 -10974.7)
(0 -0 -10448.8)
(0 -0 -9997.65)
(0 -0 -9605.17)
(0 -0 -9259.72)
(0 -0 -8952.73)
(0 -0 -8677.69)
(0 -0 -8429.54)
(0 -0 -8204.27)
(0 -0 -7998.66)
(0 -0 -7810.09)
(0 -0 -7636.4)
(0 -0 -7475.79)
(0 -0 -7326.77)
(0 -0 -7188.05)
(0 -0 -7058.54)
(0 -0 -6937.3)
(0 -0 -6823.53)
(0 -0 -6716.52)
(0 -0 -6615.67)
(0 -0 -6520.45)
(0 -0 -6430.37)
(0 -0 -6345.05)
(0 -0 -6264.11)
(0 -0 -6187.27)
(0 -0 -6114.21)
(0 -0 -6044.76)
(0 -0 -5978.68)
(0 -0 -5915.83)
(0 -0 -5856.14)
(0 -0 -5799.33)
(0 -0 -5745.91)
(0 -0 -5694.72)
(0 -0 -5648.32)
(0 -0 -5602.07)
(0 -0 -5565.43)
(0 -0 -5522.28)
(0 -0 -5502.74)
(0 -0 -5458.56)
(0 -0 -5469.94)
(0 -0 -5438.01)
(0 -0 -5536.74)
(0 -0 -3818.76)
(0 -0 -10828.9)
(0 -0 -13363.5)
(0 -0 -13519.6)
(0 -0 -12865.9)
(0 -0 -12139.3)
(0 -0 -11497.1)
(0 -0 -10936.2)
(0 -0 -10443.8)
(0 -0 -10010.8)
(0 -0 -9628.36)
(0 -0 -9288.44)
(0 -0 -8984.24)
(0 -0 -8710.3)
(0 -0 -8462.18)
(0 -0 -8236.29)
(0 -0 -8029.64)
(0 -0 -7839.8)
(0 -0 -7664.7)
(0 -0 -7502.62)
(0 -0 -7352.1)
(0 -0 -7211.89)
(0 -0 -7080.92)
(0 -0 -6958.26)
(0 -0 -6843.1)
(0 -0 -6734.74)
(0 -0 -6632.57)
(0 -0 -6536.05)
(0 -0 -6444.69)
(0 -0 -6358.08)
(0 -0 -6275.85)
(0 -0 -6197.66)
(0 -0 -6123.22)
(0 -0 -6052.25)
(0 -0 -5984.56)
(0 -0 -5919.91)
(0 -0 -5858.14)
(0 -0 -5799.13)
(0 -0 -5742.65)
(0 -0 -5688.9)
(0 -0 -5637.12)
(0 -0 -5588.75)
(0 -0 -5540.97)
(0 -0 -5499.16)
(0 -0 -5454.08)
(0 -0 -5422)
(0 -0 -5377.99)
(0 -0 -5360.2)
(0 -0 -5322.03)
(0 -0 -5408.99)
(0 -0 -533.064)
(0 -0 -4662.67)
(0 -0 -7718.65)
(0 -0 -9328.97)
(0 -0 -9892.89)
(0 -0 -9958.21)
(0 -0 -9826.33)
(0 -0 -9614.11)
(0 -0 -9370.41)
(0 -0 -9119.97)
(0 -0 -8875.24)
(0 -0 -8641.8)
(0 -0 -8421.78)
(0 -0 -8215.6)
(0 -0 -8022.9)
(0 -0 -7842.95)
(0 -0 -7674.85)
(0 -0 -7517.7)
(0 -0 -7370.59)
(0 -0 -7232.67)
(0 -0 -7103.17)
(0 -0 -6981.37)
(0 -0 -6866.63)
(0 -0 -6758.36)
(0 -0 -6656.02)
(0 -0 -6559.15)
(0 -0 -6467.32)
(0 -0 -6380.12)
(0 -0 -6297.23)
(0 -0 -6218.31)
(0 -0 -6143.08)
(0 -0 -6071.29)
(0 -0 -6002.7)
(0 -0 -5937.09)
(0 -0 -5874.29)
(0 -0 -5814.11)
(0 -0 -5756.41)
(0 -0 -5701.03)
(0 -0 -5647.85)
(0 -0 -5596.82)
(0 -0 -5547.7)
(0 -0 -5500.77)
(0 -0 -5455.26)
(0 -0 -5412.44)
(0 -0 -5370.32)
(0 -0 -5331.51)
(0 -0 -5294.26)
(0 -0 -5257.16)
(0 -0 -5231.54)
(0 -0 -5239.75)
(0 -0 322.433)
(0 -0 -1444.53)
(0 -0 -3532.72)
(0 -0 -5259.63)
(0 -0 -6400.03)
(0 -0 -7075.06)
(0 -0 -7452.64)
(0 -0 -7643.22)
(0 -0 -7715.09)
(0 -0 -7712.54)
(0 -0 -7664.19)
(0 -0 -7588.16)
(0 -0 -7495.9)
(0 -0 -7394.7)
(0 -0 -7289.26)
(0 -0 -7182.59)
(0 -0 -7076.65)
(0 -0 -6972.67)
(0 -0 -6871.42)
(0 -0 -6773.34)
(0 -0 -6678.68)
(0 -0 -6587.54)
(0 -0 -6499.94)
(0 -0 -6415.81)
(0 -0 -6335.06)
(0 -0 -6257.58)
(0 -0 -6183.24)
(0 -0 -6111.88)
(0 -0 -6043.38)
(0 -0 -5977.6)
(0 -0 -5914.38)
(0 -0 -5853.61)
(0 -0 -5795.16)
(0 -0 -5738.91)
(0 -0 -5684.74)
(0 -0 -5632.54)
(0 -0 -5582.25)
(0 -0 -5533.7)
(0 -0 -5486.92)
(0 -0 -5441.63)
(0 -0 -5398.1)
(0 -0 -5355.67)
(0 -0 -5315.35)
(0 -0 -5275.05)
(0 -0 -5238.73)
(0 -0 -5198.39)
(0 -0 -5169.8)
(0 -0 -5122.91)
(0 -0 -5112.85)
(0 -0 -5070.94)
(0 -0 364.693)
(0 -0 -158.54)
(0 -0 -1181.57)
(0 -0 -2362.3)
(0 -0 -3418.15)
(0 -0 -4257.12)
(0 -0 -4892.51)
(0 -0 -5358.18)
(0 -0 -5689.2)
(0 -0 -5917.64)
(0 -0 -6069.83)
(0 -0 -6165.94)
(0 -0 -6220.94)
(0 -0 -6245.83)
(0 -0 -6248.68)
(0 -0 -6235.45)
(0 -0 -6210.51)
(0 -0 -6177.11)
(0 -0 -6137.69)
(0 -0 -6094.05)
(0 -0 -6047.56)
(0 -0 -5999.23)
(0 -0 -5949.84)
(0 -0 -5899.97)
(0 -0 -5850.06)
(0 -0 -5800.44)
(0 -0 -5751.36)
(0 -0 -5702.99)
(0 -0 -5655.47)
(0 -0 -5608.89)
(0 -0 -5563.3)
(0 -0 -5518.76)
(0 -0 -5475.29)
(0 -0 -5432.88)
(0 -0 -5391.56)
(0 -0 -5351.28)
(0 -0 -5312.08)
(0 -0 -5273.85)
(0 -0 -5236.74)
(0 -0 -5200.38)
(0 -0 -5165.37)
(0 -0 -5130.51)
(0 -0 -5097.91)
(0 -0 -5063.54)
(0 -0 -5034.72)
(0 -0 -4997.88)
(0 -0 -4977.3)
(0 -0 -4930.61)
(0 -0 -4928)
(0 -0 -4875.83)
(0 -0 254.008)
(0 -0 185.307)
(0 -0 -173.284)
(0 -0 -764.785)
(0 -0 -1448.04)
(0 -0 -2116.12)
(0 -0 -2721.61)
(0 -0 -3244.96)
(0 -0 -3681.99)
(0 -0 -4038.48)
(0 -0 -4324.71)
(0 -0 -4551.83)
(0 -0 -4730.22)
(0 -0 -4868.88)
(0 -0 -4975.35)
(0 -0 -5055.86)
(0 -0 -5115.43)
(0 -0 -5158.12)
(0 -0 -5187.21)
(0 -0 -5205.33)
(0 -0 -5214.59)
(0 -0 -5216.71)
(0 -0 -5213.05)
(0 -0 -5204.75)
(0 -0 -5192.7)
(0 -0 -5177.66)
(0 -0 -5160.23)
(0 -0 -5140.91)
(0 -0 -5120.1)
(0 -0 -5098.14)
(0 -0 -5075.31)
(0 -0 -5051.82)
(0 -0 -5027.87)
(0 -0 -5003.62)
(0 -0 -4979.19)
(0 -0 -4954.67)
(0 -0 -4930.18)
(0 -0 -4905.71)
(0 -0 -4881.49)
(0 -0 -4857.2)
(0 -0 -4833.54)
(0 -0 -4809.25)
(0 -0 -4786.73)
(0 -0 -4761.53)
(0 -0 -4741.62)
(0 -0 -4712.74)
(0 -0 -4699.33)
(0 -0 -4660.74)
(0 -0 -4659.65)
(0 -0 -4615.66)
(0 -0 178.732)
(0 -0 204.5)
(0 -0 130.675)
(0 -0 -85.226)
(0 -0 -418.024)
(0 -0 -815.242)
(0 -0 -1236.98)
(0 -0 -1654.29)
(0 -0 -2047.25)
(0 -0 -2404.82)
(0 -0 -2722.75)
(0 -0 -3000.94)
(0 -0 -3241.6)
(0 -0 -3448.08)
(0 -0 -3624.15)
(0 -0 -3773.54)
(0 -0 -3899.81)
(0 -0 -4006.13)
(0 -0 -4095.32)
(0 -0 -4169.84)
(0 -0 -4231.81)
(0 -0 -4283.03)
(0 -0 -4325.06)
(0 -0 -4359.23)
(0 -0 -4386.66)
(0 -0 -4408.31)
(0 -0 -4425)
(0 -0 -4437.44)
(0 -0 -4446.22)
(0 -0 -4451.85)
(0 -0 -4454.77)
(0 -0 -4455.35)
(0 -0 -4453.92)
(0 -0 -4450.77)
(0 -0 -4446.11)
(0 -0 -4440.17)
(0 -0 -4433.12)
(0 -0 -4425.08)
(0 -0 -4416.29)
(0 -0 -4406.59)
(0 -0 -4396.61)
(0 -0 -4385.35)
(0 -0 -4374.88)
(0 -0 -4361.45)
(0 -0 -4351.84)
(0 -0 -4334.08)
(0 -0 -4328.25)
(0 -0 -4301.82)
(0 -0 -4302.2)
(0 -0 -4270.54)
(0 -0 148.005)
(0 -0 164.599)
(0 -0 169.993)
(0 -0 120.987)
(0 -0 1.00905)
(0 -0 -180.861)
(0 -0 -409.239)
(0 -0 -667.747)
(0 -0 -940.507)
(0 -0 -1214.55)
(0 -0 -1480.63)
(0 -0 -1732.7)
(0 -0 -1967.27)
(0 -0 -2182.65)
(0 -0 -2378.47)
(0 -0 -2555.21)
(0 -0 -2713.85)
(0 -0 -2855.65)
(0 -0 -2982)
(0 -0 -3094.34)
(0 -0 -3194.02)
(0 -0 -3282.34)
(0 -0 -3360.5)
(0 -0 -3429.58)
(0 -0 -3490.58)
(0 -0 -3544.38)
(0 -0 -3591.77)
(0 -0 -3633.44)
(0 -0 -3670.02)
(0 -0 -3702.08)
(0 -0 -3730.08)
(0 -0 -3754.47)
(0 -0 -3775.63)
(0 -0 -3793.9)
(0 -0 -3809.57)
(0 -0 -3822.93)
(0 -0 -3834.18)
(0 -0 -3843.54)
(0 -0 -3851.22)
(0 -0 -3857.25)
(0 -0 -3862.07)
(0 -0 -3865.1)
(0 -0 -3867.81)
(0 -0 -3867.53)
(0 -0 -3869.28)
(0 -0 -3864.13)
(0 -0 -3866.96)
(0 -0 -3853.88)
(0 -0 -3858.1)
(0 -0 -3838.97)
(0 -0 136.813)
(0 -0 137.062)
(0 -0 148.736)
(0 -0 149.689)
(0 -0 122.199)
(0 -0 60.0866)
(0 -0 -36.4766)
(0 -0 -163.831)
(0 -0 -315.606)
(0 -0 -484.461)
(0 -0 -663.452)
(0 -0 -846.643)
(0 -0 -1029.28)
(0 -0 -1207.78)
(0 -0 -1379.57)
(0 -0 -1542.98)
(0 -0 -1697)
(0 -0 -1841.13)
(0 -0 -1975.26)
(0 -0 -2099.55)
(0 -0 -2214.34)
(0 -0 -2320.09)
(0 -0 -2417.31)
(0 -0 -2506.56)
(0 -0 -2588.39)
(0 -0 -2663.36)
(0 -0 -2732)
(0 -0 -2794.82)
(0 -0 -2852.28)
(0 -0 -2904.83)
(0 -0 -2952.87)
(0 -0 -2996.78)
(0 -0 -3036.88)
(0 -0 -3073.52)
(0 -0 -3106.95)
(0 -0 -3137.46)
(0 -0 -3165.23)
(0 -0 -3190.54)
(0 -0 -3213.53)
(0 -0 -3234.35)
(0 -0 -3253.26)
(0 -0 -3270.02)
(0 -0 -3285.58)
(0 -0 -3298.16)
(0 -0 -3311.29)
(0 -0 -3318.57)
(0 -0 -3330.6)
(0 -0 -3330.36)
(0 -0 -3340.31)
(0 -0 -3333.15)
(0 -0 129.933)
(0 -0 123.991)
(0 -0 129.18)
(0 -0 136.389)
(0 -0 136.485)
(0 -0 123.214)
(0 -0 92.9168)
(0 -0 43.7331)
(0 -0 -24.1718)
(0 -0 -108.957)
(0 -0 -207.833)
(0 -0 -317.649)
(0 -0 -435.245)
(0 -0 -557.707)
(0 -0 -682.494)
(0 -0 -807.49)
(0 -0 -931.004)
(0 -0 -1051.73)
(0 -0 -1168.71)
(0 -0 -1281.25)
(0 -0 -1388.91)
(0 -0 -1491.43)
(0 -0 -1588.69)
(0 -0 -1680.68)
(0 -0 -1767.48)
(0 -0 -1849.23)
(0 -0 -1926.09)
(0 -0 -1998.27)
(0 -0 -2065.99)
(0 -0 -2129.48)
(0 -0 -2188.95)
(0 -0 -2244.65)
(0 -0 -2296.77)
(0 -0 -2345.55)
(0 -0 -2391.16)
(0 -0 -2433.82)
(0 -0 -2473.66)
(0 -0 -2510.91)
(0 -0 -2545.63)
(0 -0 -2578.03)
(0 -0 -2608.22)
(0 -0 -2636.13)
(0 -0 -2662.36)
(0 -0 -2685.71)
(0 -0 -2708.65)
(0 -0 -2726.58)
(0 -0 -2746.94)
(0 -0 -2757.84)
(0 -0 -2773.91)
(0 -0 -2777.4)
(0 -0 122.942)
(0 -0 116.64)
(0 -0 118.013)
(0 -0 122.495)
(0 -0 126.445)
(0 -0 126.918)
(0 -0 121.436)
(0 -0 107.688)
(0 -0 84.0282)
(0 -0 49.7454)
(0 -0 4.93681)
(0 -0 -49.6806)
(0 -0 -112.973)
(0 -0 -183.565)
(0 -0 -260.001)
(0 -0 -340.84)
(0 -0 -424.741)
(0 -0 -510.5)
(0 -0 -597.07)
(0 -0 -683.568)
(0 -0 -769.262)
(0 -0 -853.566)
(0 -0 -936.017)
(0 -0 -1016.26)
(0 -0 -1094.05)
(0 -0 -1169.18)
(0 -0 -1241.56)
(0 -0 -1311.11)
(0 -0 -1377.8)
(0 -0 -1441.66)
(0 -0 -1502.7)
(0 -0 -1560.98)
(0 -0 -1616.57)
(0 -0 -1669.55)
(0 -0 -1719.97)
(0 -0 -1767.96)
(0 -0 -1813.56)
(0 -0 -1856.9)
(0 -0 -1897.99)
(0 -0 -1936.99)
(0 -0 -1973.91)
(0 -0 -2008.71)
(0 -0 -2041.79)
(0 -0 -2072.27)
(0 -0 -2101.88)
(0 -0 -2127.33)
(0 -0 -2153.68)
(0 -0 -2172.83)
(0 -0 -2193.92)
(0 -0 -2205.78)
(0 -0 115.621)
(0 -0 110.408)
(0 -0 110.732)
(0 -0 113.177)
(0 -0 115.994)
(0 -0 118.258)
(0 -0 119.135)
(0 -0 117.419)
(0 -0 111.825)
(0 -0 101.293)
(0 -0 85.0978)
(0 -0 62.8676)
(0 -0 34.5482)
(0 -0 0.361196)
(0 -0 -39.2638)
(0 -0 -83.7557)
(0 -0 -132.461)
(0 -0 -184.695)
(0 -0 -239.774)
(0 -0 -297.046)
(0 -0 -355.907)
(0 -0 -415.811)
(0 -0 -476.273)
(0 -0 -536.87)
(0 -0 -597.241)
(0 -0 -657.08)
(0 -0 -716.133)
(0 -0 -774.191)
(0 -0 -831.085)
(0 -0 -886.685)
(0 -0 -940.882)
(0 -0 -993.606)
(0 -0 -1044.79)
(0 -0 -1094.41)
(0 -0 -1142.42)
(0 -0 -1188.83)
(0 -0 -1233.61)
(0 -0 -1276.8)
(0 -0 -1318.34)
(0 -0 -1358.31)
(0 -0 -1396.67)
(0 -0 -1433.35)
(0 -0 -1468.6)
(0 -0 -1501.75)
(0 -0 -1533.98)
(0 -0 -1562.96)
(0 -0 -1591.99)
(0 -0 -1615.74)
(0 -0 -1639.59)
(0 -0 -1656.78)
(0 -0 108.376)
(0 -0 104.19)
(0 -0 104.408)
(0 -0 106.122)
(0 -0 107.994)
(0 -0 109.708)
(0 -0 111.246)
(0 -0 112.262)
(0 -0 112.171)
(0 -0 110.34)
(0 -0 106.179)
(0 -0 99.1833)
(0 -0 88.976)
(0 -0 75.3173)
(0 -0 58.1118)
(0 -0 37.3849)
(0 -0 13.2675)
(0 -0 -14.0288)
(0 -0 -44.235)
(0 -0 -77.0453)
(0 -0 -112.135)
(0 -0 -149.174)
(0 -0 -187.839)
(0 -0 -227.821)
(0 -0 -268.827)
(0 -0 -310.59)
(0 -0 -352.865)
(0 -0 -395.434)
(0 -0 -438.097)
(0 -0 -480.685)
(0 -0 -523.042)
(0 -0 -565.04)
(0 -0 -606.557)
(0 -0 -647.506)
(0 -0 -687.785)
(0 -0 -727.342)
(0 -0 -766.086)
(0 -0 -803.996)
(0 -0 -840.985)
(0 -0 -877.036)
(0 -0 -912.105)
(0 -0 -946.068)
(0 -0 -979.089)
(0 -0 -1010.62)
(0 -0 -1041.45)
(0 -0 -1069.97)
(0 -0 -1098.19)
(0 -0 -1122.77)
(0 -0 -1146.65)
(0 -0 -1165.91)
(0 -0 101.397)
(0 -0 97.999)
(0 -0 98.2316)
(0 -0 99.7122)
(0 -0 101.229)
(0 -0 102.504)
(0 -0 103.729)
(0 -0 104.916)
(0 -0 105.89)
(0 -0 106.403)
(0 -0 106.174)
(0 -0 104.902)
(0 -0 102.296)
(0 -0 98.0959)
(0 -0 92.0909)
(0 -0 84.1283)
(0 -0 74.1146)
(0 -0 62.0129)
(0 -0 47.8382)
(0 -0 31.6483)
(0 -0 13.5364)
(0 -0 -6.3775)
(0 -0 -27.9543)
(0 -0 -51.0427)
(0 -0 -75.4845)
(0 -0 -101.12)
(0 -0 -127.79)
(0 -0 -155.343)
(0 -0 -183.63)
(0 -0 -212.513)
(0 -0 -241.859)
(0 -0 -271.55)
(0 -0 -301.468)
(0 -0 -331.517)
(0 -0 -361.59)
(0 -0 -391.612)
(0 -0 -421.485)
(0 -0 -451.152)
(0 -0 -480.526)
(0 -0 -509.543)
(0 -0 -538.157)
(0 -0 -566.226)
(0 -0 -593.842)
(0 -0 -620.594)
(0 -0 -646.947)
(0 -0 -671.861)
(0 -0 -696.448)
(0 -0 -718.747)
(0 -0 -740.188)
(0 -0 -758.611)
(0 -0 94.7208)
(0 -0 91.9493)
(0 -0 92.1707)
(0 -0 93.503)
(0 -0 94.8889)
(0 -0 95.9904)
(0 -0 96.9907)
(0 -0 97.9884)
(0 -0 98.9559)
(0 -0 99.8256)
(0 -0 100.508)
(0 -0 100.885)
(0 -0 100.817)
(0 -0 100.155)
(0 -0 98.7524)
(0 -0 96.4716)
(0 -0 93.1944)
(0 -0 88.8244)
(0 -0 83.29)
(0 -0 76.545)
(0 -0 68.5671)
(0 -0 59.3559)
(0 -0 48.931)
(0 -0 37.3277)
(0 -0 24.5954)
(0 -0 10.7936)
(0 -0 -4.00971)
(0 -0 -19.7417)
(0 -0 -36.3248)
(0 -0 -53.6813)
(0 -0 -71.7303)
(0 -0 -90.3952)
(0 -0 -109.595)
(0 -0 -129.259)
(0 -0 -149.308)
(0 -0 -169.677)
(0 -0 -190.29)
(0 -0 -211.087)
(0 -0 -231.999)
(0 -0 -252.957)
(0 -0 -273.92)
(0 -0 -294.762)
(0 -0 -315.528)
(0 -0 -335.931)
(0 -0 -356.215)
(0 -0 -375.754)
(0 -0 -395.091)
(0 -0 -413.147)
(0 -0 -430.524)
(0 -0 -446.095)
(0 -0 88.3442)
(0 -0 86.0934)
(0 -0 86.2968)
(0 -0 87.48)
(0 -0 88.7681)
(0 -0 89.7906)
(0 -0 90.6845)
(0 -0 91.5538)
(0 -0 92.4028)
(0 -0 93.2171)
(0 -0 93.9808)
(0 -0 94.665)
(0 -0 95.224)
(0 -0 95.5988)
(0 -0 95.721)
(0 -0 95.5172)
(0 -0 94.9129)
(0 -0 93.8364)
(0 -0 92.2217)
(0 -0 90.011)
(0 -0 87.1561)
(0 -0 83.6191)
(0 -0 79.3728)
(0 -0 74.4005)
(0 -0 68.6953)
(0 -0 62.2593)
(0 -0 55.1025)
(0 -0 47.2421)
(0 -0 38.7014)
(0 -0 29.5079)
(0 -0 19.6943)
(0 -0 9.29487)
(0 -0 -1.6511)
(0 -0 -13.1056)
(0 -0 -25.0254)
(0 -0 -37.3703)
(0 -0 -50.0953)
(0 -0 -63.157)
(0 -0 -76.513)
(0 -0 -90.1087)
(0 -0 -103.916)
(0 -0 -117.845)
(0 -0 -131.911)
(0 -0 -145.937)
(0 -0 -160.03)
(0 -0 -173.845)
(0 -0 -187.603)
(0 -0 -200.76)
(0 -0 -213.506)
(0 -0 -225.292)
(0 -0 82.2666)
(0 -0 80.4492)
(0 -0 80.6433)
(0 -0 81.6823)
(0 -0 82.8673)
(0 -0 83.8246)
(0 -0 84.6506)
(0 -0 85.4424)
(0 -0 86.2083)
(0 -0 86.942)
(0 -0 87.645)
(0 -0 88.3168)
(0 -0 88.9492)
(0 -0 89.5265)
(0 -0 90.026)
(0 -0 90.4197)
(0 -0 90.6751)
(0 -0 90.7565)
(0 -0 90.627)
(0 -0 90.2498)
(0 -0 89.5895)
(0 -0 88.6129)
(0 -0 87.2902)
(0 -0 85.5956)
(0 -0 83.5076)
(0 -0 81.0091)
(0 -0 78.0878)
(0 -0 74.7356)
(0 -0 70.9487)
(0 -0 66.7272)
(0 -0 62.0753)
(0 -0 56.9996)
(0 -0 51.5108)
(0 -0 45.6213)
(0 -0 39.3467)
(0 -0 32.7045)
(0 -0 25.7138)
(0 -0 18.3974)
(0 -0 10.7753)
(0 -0 2.87975)
(0 -0 -5.27417)
(0 -0 -13.634)
(0 -0 -22.2014)
(0 -0 -30.8819)
(0 -0 -39.7084)
(0 -0 -48.5161)
(0 -0 -57.3646)
(0 -0 -66.009)
(0 -0 -74.4695)
(0 -0 -82.5004)
(0 -0 76.4884)
(0 -0 75.0284)
(0 -0 75.2222)
(0 -0 76.1298)
(0 -0 77.2093)
(0 -0 78.1001)
(0 -0 78.8646)
(0 -0 79.5938)
(0 -0 80.2979)
(0 -0 80.9695)
(0 -0 81.6112)
(0 -0 82.228)
(0 -0 82.8218)
(0 -0 83.3911)
(0 -0 83.9313)
(0 -0 84.4351)
(0 -0 84.8923)
(0 -0 85.2902)
(0 -0 85.6138)
(0 -0 85.8465)
(0 -0 85.9708)
(0 -0 85.9683)
(0 -0 85.8206)
(0 -0 85.5098)
(0 -0 85.0188)
(0 -0 84.3318)
(0 -0 83.4346)
(0 -0 82.3148)
(0 -0 80.9617)
(0 -0 79.3667)
(0 -0 77.5232)
(0 -0 75.4265)
(0 -0 73.0739)
(0 -0 70.4646)
(0 -0 67.5995)
(0 -0 64.482)
(0 -0 61.1158)
(0 -0 57.5088)
(0 -0 53.6667)
(0 -0 49.6035)
(0 -0 45.3243)
(0 -0 40.854)
(0 -0 36.1953)
(0 -0 31.3881)
(0 -0 26.4319)
(0 -0 21.3912)
(0 -0 16.2699)
(0 -0 11.1593)
(0 -0 6.09327)
(0 -0 1.16451)
(0 -0 71.0094)
(0 -0 69.8411)
(0 -0 70.0405)
(0 -0 70.831)
(0 -0 71.8069)
(0 -0 72.6312)
(0 -0 73.3358)
(0 -0 74.0056)
(0 -0 74.6536)
(0 -0 75.272)
(0 -0 75.8616)
(0 -0 76.4274)
(0 -0 76.9728)
(0 -0 77.4992)
(0 -0 78.0073)
(0 -0 78.4964)
(0 -0 78.9646)
(0 -0 79.4092)
(0 -0 79.8258)
(0 -0 80.2093)
(0 -0 80.5532)
(0 -0 80.8502)
(0 -0 81.0922)
(0 -0 81.2703)
(0 -0 81.3756)
(0 -0 81.3987)
(0 -0 81.3308)
(0 -0 81.1629)
(0 -0 80.8868)
(0 -0 80.4945)
(0 -0 79.979)
(0 -0 79.3339)
(0 -0 78.5534)
(0 -0 77.6331)
(0 -0 76.5688)
(0 -0 75.3584)
(0 -0 73.9993)
(0 -0 72.4919)
(0 -0 70.8353)
(0 -0 69.0327)
(0 -0 67.0854)
(0 -0 64.9993)
(0 -0 62.7788)
(0 -0 60.4342)
(0 -0 57.9751)
(0 -0 55.4164)
(0 -0 52.7796)
(0 -0 50.0851)
(0 -0 47.3728)
(0 -0 44.664)
(0 -0 65.8282)
(0 -0 64.896)
(0 -0 65.1039)
(0 -0 65.791)
(0 -0 66.6672)
(0 -0 67.4261)
(0 -0 68.0731)
(0 -0 68.6855)
(0 -0 69.2795)
(0 -0 69.8477)
(0 -0 70.3894)
(0 -0 70.9088)
(0 -0 71.4091)
(0 -0 71.8923)
(0 -0 72.3594)
(0 -0 72.8114)
(0 -0 73.2488)
(0 -0 73.6718)
(0 -0 74.08)
(0 -0 74.4727)
(0 -0 74.8485)
(0 -0 75.2054)
(0 -0 75.5408)
(0 -0 75.8517)
(0 -0 76.1344)
(0 -0 76.3851)
(0 -0 76.5995)
(0 -0 76.7733)
(0 -0 76.902)
(0 -0 76.9811)
(0 -0 77.006)
(0 -0 76.9723)
(0 -0 76.8757)
(0 -0 76.7123)
(0 -0 76.4781)
(0 -0 76.17)
(0 -0 75.7849)
(0 -0 75.3203)
(0 -0 74.7742)
(0 -0 74.145)
(0 -0 73.4326)
(0 -0 72.6352)
(0 -0 71.7567)
(0 -0 70.7941)
(0 -0 69.7581)
(0 -0 68.6434)
(0 -0 67.4712)
(0 -0 66.234)
(0 -0 64.9639)
(0 -0 63.6528)
(0 -0 60.9419)
(0 -0 60.1993)
(0 -0 60.4165)
(0 -0 61.0129)
(0 -0 61.7941)
(0 -0 62.4896)
(0 -0 63.0818)
(0 -0 63.6394)
(0 -0 64.1814)
(0 -0 64.7012)
(0 -0 65.1972)
(0 -0 65.6727)
(0 -0 66.1307)
(0 -0 66.573)
(0 -0 67.0007)
(0 -0 67.4147)
(0 -0 67.8159)
(0 -0 68.2052)
(0 -0 68.5833)
(0 -0 68.9506)
(0 -0 69.3076)
(0 -0 69.6542)
(0 -0 69.9901)
(0 -0 70.3146)
(0 -0 70.6269)
(0 -0 70.9257)
(0 -0 71.2096)
(0 -0 71.4771)
(0 -0 71.7263)
(0 -0 71.9554)
(0 -0 72.1621)
(0 -0 72.3443)
(0 -0 72.4996)
(0 -0 72.6257)
(0 -0 72.7202)
(0 -0 72.7809)
(0 -0 72.8056)
(0 -0 72.792)
(0 -0 72.7386)
(0 -0 72.6426)
(0 -0 72.5041)
(0 -0 72.3191)
(0 -0 72.0907)
(0 -0 71.8122)
(0 -0 71.4925)
(0 -0 71.1201)
(0 -0 70.712)
(0 -0 70.2522)
(0 -0 69.7645)
(0 -0 69.2306)
(0 -0 56.3466)
(0 -0 55.7552)
(0 -0 55.9808)
(0 -0 56.4981)
(0 -0 57.19)
(0 -0 57.824)
(0 -0 58.3645)
(0 -0 58.8702)
(0 -0 59.3626)
(0 -0 59.8361)
(0 -0 60.2883)
(0 -0 60.7219)
(0 -0 61.1396)
(0 -0 61.5431)
(0 -0 61.9333)
(0 -0 62.311)
(0 -0 62.6771)
(0 -0 63.0325)
(0 -0 63.3779)
(0 -0 63.7143)
(0 -0 64.0424)
(0 -0 64.3627)
(0 -0 64.6755)
(0 -0 64.9811)
(0 -0 65.2794)
(0 -0 65.5704)
(0 -0 65.8538)
(0 -0 66.1292)
(0 -0 66.3964)
(0 -0 66.6545)
(0 -0 66.903)
(0 -0 67.1409)
(0 -0 67.3671)
(0 -0 67.5807)
(0 -0 67.7804)
(0 -0 67.9651)
(0 -0 68.1337)
(0 -0 68.2845)
(0 -0 68.4169)
(0 -0 68.5285)
(0 -0 68.6198)
(0 -0 68.6866)
(0 -0 68.732)
(0 -0 68.7488)
(0 -0 68.7443)
(0 -0 68.707)
(0 -0 68.6495)
(0 -0 68.5555)
(0 -0 68.4428)
(0 -0 68.2914)
(0 -0 52.0372)
(0 -0 51.5656)
(0 -0 51.7975)
(0 -0 52.246)
(0 -0 52.855)
(0 -0 53.4299)
(0 -0 53.9216)
(0 -0 54.3787)
(0 -0 54.8239)
(0 -0 55.2535)
(0 -0 55.6641)
(0 -0 56.0578)
(0 -0 56.4372)
(0 -0 56.8037)
(0 -0 57.1582)
(0 -0 57.5014)
(0 -0 57.8341)
(0 -0 58.157)
(0 -0 58.471)
(0 -0 58.777)
(0 -0 59.0756)
(0 -0 59.3676)
(0 -0 59.6534)
(0 -0 59.9334)
(0 -0 60.2079)
(0 -0 60.4771)
(0 -0 60.741)
(0 -0 60.9999)
(0 -0 61.2538)
(0 -0 61.5027)
(0 -0 61.7462)
(0 -0 61.9842)
(0 -0 62.2163)
(0 -0 62.4421)
(0 -0 62.6611)
(0 -0 62.8727)
(0 -0 63.0764)
(0 -0 63.2713)
(0 -0 63.4572)
(0 -0 63.6323)
(0 -0 63.7973)
(0 -0 63.9488)
(0 -0 64.0896)
(0 -0 64.2134)
(0 -0 64.3261)
(0 -0 64.4179)
(0 -0 64.4984)
(0 -0 64.5532)
(0 -0 64.597)
(0 -0 64.6104)
(0 -0 48.0073)
(0 -0 47.6304)
(0 -0 47.8656)
(0 -0 48.2545)
(0 -0 48.7874)
(0 -0 49.3057)
(0 -0 49.7516)
(0 -0 50.1632)
(0 -0 50.5642)
(0 -0 50.9522)
(0 -0 51.3235)
(0 -0 51.6795)
(0 -0 52.0225)
(0 -0 52.3541)
(0 -0 52.6748)
(0 -0 52.9853)
(0 -0 53.2863)
(0 -0 53.5784)
(0 -0 53.8626)
(0 -0 54.1395)
(0 -0 54.4101)
(0 -0 54.6747)
(0 -0 54.9341)
(0 -0 55.1884)
(0 -0 55.4381)
(0 -0 55.6833)
(0 -0 55.9244)
(0 -0 56.1615)
(0 -0 56.3948)
(0 -0 56.6245)
(0 -0 56.8504)
(0 -0 57.0726)
(0 -0 57.2909)
(0 -0 57.5052)
(0 -0 57.7151)
(0 -0 57.9205)
(0 -0 58.1212)
(0 -0 58.3165)
(0 -0 58.5064)
(0 -0 58.6897)
(0 -0 58.8671)
(0 -0 59.0358)
(0 -0 59.1981)
(0 -0 59.3492)
(0 -0 59.4936)
(0 -0 59.6233)
(0 -0 59.7463)
(0 -0 59.85)
(0 -0 59.9473)
(0 -0 60.0205)
(0 -0 44.2493)
(0 -0 43.9471)
(0 -0 44.1821)
(0 -0 44.5197)
(0 -0 44.9835)
(0 -0 45.448)
(0 -0 45.851)
(0 -0 46.2206)
(0 -0 46.5801)
(0 -0 46.929)
(0 -0 47.2634)
(0 -0 47.5839)
(0 -0 47.8929)
(0 -0 48.1915)
(0 -0 48.4803)
(0 -0 48.76)
(0 -0 49.031)
(0 -0 49.2942)
(0 -0 49.5501)
(0 -0 49.7997)
(0 -0 50.0436)
(0 -0 50.2825)
(0 -0 50.5167)
(0 -0 50.7466)
(0 -0 50.9725)
(0 -0 51.1946)
(0 -0 51.4132)
(0 -0 51.6284)
(0 -0 51.8406)
(0 -0 52.0497)
(0 -0 52.2558)
(0 -0 52.4589)
(0 -0 52.6589)
(0 -0 52.8557)
(0 -0 53.0492)
(0 -0 53.2392)
(0 -0 53.4257)
(0 -0 53.608)
(0 -0 53.7864)
(0 -0 53.9597)
(0 -0 54.1287)
(0 -0 54.291)
(0 -0 54.4487)
(0 -0 54.5976)
(0 -0 54.7417)
(0 -0 54.8742)
(0 -0 55.0021)
(0 -0 55.1143)
(0 -0 55.2229)
(0 -0 55.3113)
(0 -0 40.7546)
(0 -0 40.5114)
(0 -0 40.7425)
(0 -0 41.0361)
(0 -0 41.4378)
(0 -0 41.8517)
(0 -0 42.2146)
(0 -0 42.5454)
(0 -0 42.8664)
(0 -0 43.1788)
(0 -0 43.4787)
(0 -0 43.7662)
(0 -0 44.0432)
(0 -0 44.3109)
(0 -0 44.57)
(0 -0 44.8207)
(0 -0 45.0637)
(0 -0 45.2995)
(0 -0 45.529)
(0 -0 45.7529)
(0 -0 45.9719)
(0 -0 46.1865)
(0 -0 46.3971)
(0 -0 46.6041)
(0 -0 46.8076)
(0 -0 47.0079)
(0 -0 47.2052)
(0 -0 47.3997)
(0 -0 47.5916)
(0 -0 47.7809)
(0 -0 47.9677)
(0 -0 48.152)
(0 -0 48.3336)
(0 -0 48.5124)
(0 -0 48.6885)
(0 -0 48.8615)
(0 -0 49.0315)
(0 -0 49.1979)
(0 -0 49.361)
(0 -0 49.5196)
(0 -0 49.6746)
(0 -0 49.8238)
(0 -0 49.969)
(0 -0 50.1067)
(0 -0 50.2403)
(0 -0 50.364)
(0 -0 50.4841)
(0 -0 50.5908)
(0 -0 50.6954)
(0 -0 50.7825)
(0 -0 37.5134)
(0 -0 37.3172)
(0 -0 37.5407)
(0 -0 37.7964)
(0 -0 38.143)
(0 -0 38.5097)
(0 -0 38.8353)
(0 -0 39.1306)
(0 -0 39.4162)
(0 -0 39.6946)
(0 -0 39.9625)
(0 -0 40.2193)
(0 -0 40.4666)
(0 -0 40.7056)
(0 -0 40.9368)
(0 -0 41.1606)
(0 -0 41.3774)
(0 -0 41.5878)
(0 -0 41.7926)
(0 -0 41.9925)
(0 -0 42.1882)
(0 -0 42.3802)
(0 -0 42.5688)
(0 -0 42.7543)
(0 -0 42.937)
(0 -0 43.1169)
(0 -0 43.2944)
(0 -0 43.4695)
(0 -0 43.6424)
(0 -0 43.8132)
(0 -0 43.9819)
(0 -0 44.1484)
(0 -0 44.3125)
(0 -0 44.4743)
(0 -0 44.6336)
(0 -0 44.7901)
(0 -0 44.944)
(0 -0 45.0946)
(0 -0 45.2422)
(0 -0 45.3857)
(0 -0 45.5258)
(0 -0 45.6608)
(0 -0 45.792)
(0 -0 45.9165)
(0 -0 46.0373)
(0 -0 46.1493)
(0 -0 46.2583)
(0 -0 46.3553)
(0 -0 46.4514)
(0 -0 46.5319)
(0 -0 34.515)
(0 -0 34.357)
(0 -0 34.5691)
(0 -0 34.7923)
(0 -0 35.0904)
(0 -0 35.4135)
(0 -0 35.7046)
(0 -0 35.9675)
(0 -0 36.2206)
(0 -0 36.4678)
(0 -0 36.7061)
(0 -0 36.9345)
(0 -0 37.1544)
(0 -0 37.3669)
(0 -0 37.5724)
(0 -0 37.7712)
(0 -0 37.9637)
(0 -0 38.1506)
(0 -0 38.3324)
(0 -0 38.5101)
(0 -0 38.6842)
(0 -0 38.8552)
(0 -0 39.0234)
(0 -0 39.189)
(0 -0 39.3523)
(0 -0 39.5134)
(0 -0 39.6724)
(0 -0 39.8296)
(0 -0 39.9849)
(0 -0 40.1385)
(0 -0 40.2903)
(0 -0 40.4403)
(0 -0 40.5882)
(0 -0 40.7341)
(0 -0 40.8777)
(0 -0 41.0188)
(0 -0 41.1575)
(0 -0 41.2932)
(0 -0 41.4261)
(0 -0 41.5553)
(0 -0 41.6812)
(0 -0 41.8023)
(0 -0 41.9199)
(0 -0 42.0314)
(0 -0 42.1394)
(0 -0 42.2394)
(0 -0 42.3369)
(0 -0 42.4236)
(0 -0 42.5104)
(0 -0 42.5829)
(0 -0 31.7481)
(0 -0 31.6212)
(0 -0 31.819)
(0 -0 32.0147)
(0 -0 32.2706)
(0 -0 32.5536)
(0 -0 32.8129)
(0 -0 33.0463)
(0 -0 33.27)
(0 -0 33.4885)
(0 -0 33.6996)
(0 -0 33.902)
(0 -0 34.0967)
(0 -0 34.2848)
(0 -0 34.4666)
(0 -0 34.6424)
(0 -0 34.8125)
(0 -0 34.9776)
(0 -0 35.1384)
(0 -0 35.2955)
(0 -0 35.4497)
(0 -0 35.6013)
(0 -0 35.7507)
(0 -0 35.898)
(0 -0 36.0435)
(0 -0 36.1872)
(0 -0 36.3293)
(0 -0 36.4698)
(0 -0 36.609)
(0 -0 36.7468)
(0 -0 36.883)
(0 -0 37.0177)
(0 -0 37.1507)
(0 -0 37.2818)
(0 -0 37.4109)
(0 -0 37.5378)
(0 -0 37.6624)
(0 -0 37.7843)
(0 -0 37.9035)
(0 -0 38.0193)
(0 -0 38.1319)
(0 -0 38.2402)
(0 -0 38.3449)
(0 -0 38.4441)
(0 -0 38.5401)
(0 -0 38.6287)
(0 -0 38.7153)
(0 -0 38.7921)
(0 -0 38.8696)
(0 -0 38.934)
(0 -0 29.2006)
(0 -0 29.0993)
(0 -0 29.2808)
(0 -0 29.4536)
(0 -0 29.673)
(0 -0 29.9197)
(0 -0 30.1497)
(0 -0 30.3565)
(0 -0 30.5534)
(0 -0 30.7459)
(0 -0 30.9321)
(0 -0 31.1107)
(0 -0 31.2824)
(0 -0 31.4481)
(0 -0 31.6082)
(0 -0 31.7629)
(0 -0 31.9125)
(0 -0 32.0577)
(0 -0 32.199)
(0 -0 32.3374)
(0 -0 32.4732)
(0 -0 32.6071)
(0 -0 32.7392)
(0 -0 32.8698)
(0 -0 32.9989)
(0 -0 33.1267)
(0 -0 33.2532)
(0 -0 33.3787)
(0 -0 33.503)
(0 -0 33.6262)
(0 -0 33.7483)
(0 -0 33.869)
(0 -0 33.9883)
(0 -0 34.1059)
(0 -0 34.2217)
(0 -0 34.3355)
(0 -0 34.4471)
(0 -0 34.5563)
(0 -0 34.6629)
(0 -0 34.7664)
(0 -0 34.8667)
(0 -0 34.963)
(0 -0 35.0559)
(0 -0 35.1436)
(0 -0 35.2284)
(0 -0 35.3064)
(0 -0 35.3828)
(0 -0 35.4502)
(0 -0 35.519)
(0 -0 35.5756)
(0 -0 26.8601)
(0 -0 26.7797)
(0 -0 26.9441)
(0 -0 27.0976)
(0 -0 27.2858)
(0 -0 27.5)
(0 -0 27.7032)
(0 -0 27.886)
(0 -0 28.0589)
(0 -0 28.2277)
(0 -0 28.3914)
(0 -0 28.5484)
(0 -0 28.6991)
(0 -0 28.8445)
(0 -0 28.9848)
(0 -0 29.1203)
(0 -0 29.2512)
(0 -0 29.3781)
(0 -0 29.5018)
(0 -0 29.6229)
(0 -0 29.7421)
(0 -0 29.8598)
(0 -0 29.9762)
(0 -0 30.0915)
(0 -0 30.2058)
(0 -0 30.319)
(0 -0 30.4314)
(0 -0 30.5431)
(0 -0 30.6539)
(0 -0 30.764)
(0 -0 30.8731)
(0 -0 30.9811)
(0 -0 31.0879)
(0 -0 31.1932)
(0 -0 31.2969)
(0 -0 31.3987)
(0 -0 31.4986)
(0 -0 31.5961)
(0 -0 31.6912)
(0 -0 31.7833)
(0 -0 31.8724)
(0 -0 31.9576)
(0 -0 32.0397)
(0 -0 32.1169)
(0 -0 32.1913)
(0 -0 32.2595)
(0 -0 32.3264)
(0 -0 32.385)
(0 -0 32.4457)
(0 -0 32.4949)
(0 -0 24.7136)
(0 -0 24.6504)
(0 -0 24.7978)
(0 -0 24.9348)
(0 -0 25.0966)
(0 -0 25.2818)
(0 -0 25.4608)
(0 -0 25.6221)
(0 -0 25.7736)
(0 -0 25.9212)
(0 -0 26.0644)
(0 -0 26.2019)
(0 -0 26.3337)
(0 -0 26.4607)
(0 -0 26.5831)
(0 -0 26.7011)
(0 -0 26.815)
(0 -0 26.9255)
(0 -0 27.0331)
(0 -0 27.1386)
(0 -0 27.2427)
(0 -0 27.3457)
(0 -0 27.4479)
(0 -0 27.5493)
(0 -0 27.6501)
(0 -0 27.7503)
(0 -0 27.8499)
(0 -0 27.9491)
(0 -0 28.0478)
(0 -0 28.1459)
(0 -0 28.2433)
(0 -0 28.3399)
(0 -0 28.4353)
(0 -0 28.5295)
(0 -0 28.6222)
(0 -0 28.7132)
(0 -0 28.8023)
(0 -0 28.8893)
(0 -0 28.9739)
(0 -0 29.0557)
(0 -0 29.1346)
(0 -0 29.2097)
(0 -0 29.2818)
(0 -0 29.3493)
(0 -0 29.4143)
(0 -0 29.4734)
(0 -0 29.5316)
(0 -0 29.5822)
(0 -0 29.6352)
(0 -0 29.6774)
(0 -0 22.7483)
(0 -0 22.699)
(0 -0 22.8301)
(0 -0 22.9531)
(0 -0 23.0925)
(0 -0 23.2524)
(0 -0 23.4094)
(0 -0 23.5514)
(0 -0 23.6839)
(0 -0 23.8126)
(0 -0 23.9375)
(0 -0 24.0574)
(0 -0 24.1723)
(0 -0 24.2827)
(0 -0 24.3889)
(0 -0 24.4913)
(0 -0 24.5899)
(0 -0 24.6854)
(0 -0 24.7785)
(0 -0 24.87)
(0 -0 24.9605)
(0 -0 25.0503)
(0 -0 25.1396)
(0 -0 25.2286)
(0 -0 25.3173)
(0 -0 25.4057)
(0 -0 25.4938)
(0 -0 25.5818)
(0 -0 25.6695)
(0 -0 25.757)
(0 -0 25.8439)
(0 -0 25.9302)
(0 -0 26.0155)
(0 -0 26.0996)
(0 -0 26.1824)
(0 -0 26.2637)
(0 -0 26.3432)
(0 -0 26.4206)
(0 -0 26.4958)
(0 -0 26.5682)
(0 -0 26.6378)
(0 -0 26.7038)
(0 -0 26.7668)
(0 -0 26.8255)
(0 -0 26.8818)
(0 -0 26.9327)
(0 -0 26.9829)
(0 -0 27.026)
(0 -0 27.0719)
(0 -0 27.1077)
(0 -0 20.951)
(0 -0 20.9131)
(0 -0 21.0291)
(0 -0 21.1399)
(0 -0 21.2606)
(0 -0 21.3984)
(0 -0 21.5357)
(0 -0 21.6606)
(0 -0 21.7764)
(0 -0 21.8882)
(0 -0 21.9968)
(0 -0 22.101)
(0 -0 22.2007)
(0 -0 22.2963)
(0 -0 22.3881)
(0 -0 22.4763)
(0 -0 22.5612)
(0 -0 22.6433)
(0 -0 22.7235)
(0 -0 22.8023)
(0 -0 22.8805)
(0 -0 22.9585)
(0 -0 23.0364)
(0 -0 23.1142)
(0 -0 23.1921)
(0 -0 23.2699)
(0 -0 23.3478)
(0 -0 23.4258)
(0 -0 23.5038)
(0 -0 23.5818)
(0 -0 23.6594)
(0 -0 23.7364)
(0 -0 23.8127)
(0 -0 23.8879)
(0 -0 23.9619)
(0 -0 24.0344)
(0 -0 24.1053)
(0 -0 24.1742)
(0 -0 24.2409)
(0 -0 24.3048)
(0 -0 24.366)
(0 -0 24.4238)
(0 -0 24.4787)
(0 -0 24.5293)
(0 -0 24.5778)
(0 -0 24.6211)
(0 -0 24.6641)
(0 -0 24.7003)
(0 -0 24.7398)
(0 -0 24.7695)
(0 -0 19.3091)
(0 -0 19.2805)
(0 -0 19.3827)
(0 -0 19.4829)
(0 -0 19.5879)
(0 -0 19.7067)
(0 -0 19.8265)
(0 -0 19.9362)
(0 -0 20.0373)
(0 -0 20.1342)
(0 -0 20.2283)
(0 -0 20.3185)
(0 -0 20.4047)
(0 -0 20.4871)
(0 -0 20.566)
(0 -0 20.6417)
(0 -0 20.7143)
(0 -0 20.7845)
(0 -0 20.853)
(0 -0 20.9206)
(0 -0 20.9879)
(0 -0 21.0553)
(0 -0 21.1229)
(0 -0 21.1909)
(0 -0 21.2591)
(0 -0 21.3276)
(0 -0 21.3964)
(0 -0 21.4656)
(0 -0 21.535)
(0 -0 21.6045)
(0 -0 21.6738)
(0 -0 21.7427)
(0 -0 21.811)
(0 -0 21.8783)
(0 -0 21.9445)
(0 -0 22.0093)
(0 -0 22.0725)
(0 -0 22.1338)
(0 -0 22.1929)
(0 -0 22.2493)
(0 -0 22.303)
(0 -0 22.3533)
(0 -0 22.4008)
(0 -0 22.4443)
(0 -0 22.4856)
(0 -0 22.5222)
(0 -0 22.5585)
(0 -0 22.5885)
(0 -0 22.622)
(0 -0 22.6461)
(0 -0 17.8099)
(0 -0 17.7888)
(0 -0 17.879)
(0 -0 17.9697)
(0 -0 18.0618)
(0 -0 18.1644)
(0 -0 18.2687)
(0 -0 18.3649)
(0 -0 18.4531)
(0 -0 18.537)
(0 -0 18.6182)
(0 -0 18.6961)
(0 -0 18.7703)
(0 -0 18.841)
(0 -0 18.9085)
(0 -0 18.973)
(0 -0 19.0346)
(0 -0 19.0942)
(0 -0 19.1523)
(0 -0 19.2099)
(0 -0 19.2675)
(0 -0 19.3255)
(0 -0 19.3841)
(0 -0 19.4433)
(0 -0 19.503)
(0 -0 19.5633)
(0 -0 19.6241)
(0 -0 19.6855)
(0 -0 19.7473)
(0 -0 19.8094)
(0 -0 19.8715)
(0 -0 19.9333)
(0 -0 19.9945)
(0 -0 20.0548)
(0 -0 20.1142)
(0 -0 20.1722)
(0 -0 20.2286)
(0 -0 20.2831)
(0 -0 20.3355)
(0 -0 20.3852)
(0 -0 20.4322)
(0 -0 20.4759)
(0 -0 20.5168)
(0 -0 20.5538)
(0 -0 20.5887)
(0 -0 20.6191)
(0 -0 20.6494)
(0 -0 20.6738)
(0 -0 20.7018)
(0 -0 20.7208)
(0 -0 16.4413)
(0 -0 16.4263)
(0 -0 16.5061)
(0 -0 16.5885)
(0 -0 16.6699)
(0 -0 16.7587)
(0 -0 16.8495)
(0 -0 16.9338)
(0 -0 17.0108)
(0 -0 17.0833)
(0 -0 17.1532)
(0 -0 17.2202)
(0 -0 17.2838)
(0 -0 17.3442)
(0 -0 17.4016)
(0 -0 17.4561)
(0 -0 17.5081)
(0 -0 17.5581)
(0 -0 17.6071)
(0 -0 17.6558)
(0 -0 17.7049)
(0 -0 17.7546)
(0 -0 17.8052)
(0 -0 17.8567)
(0 -0 17.9089)
(0 -0 17.962)
(0 -0 18.0158)
(0 -0 18.0704)
(0 -0 18.1256)
(0 -0 18.1812)
(0 -0 18.2369)
(0 -0 18.2925)
(0 -0 18.3475)
(0 -0 18.4018)
(0 -0 18.4551)
(0 -0 18.5072)
(0 -0 18.5577)
(0 -0 18.6062)
(0 -0 18.6527)
(0 -0 18.6965)
(0 -0 18.7376)
(0 -0 18.7753)
(0 -0 18.8104)
(0 -0 18.8415)
(0 -0 18.8708)
(0 -0 18.8956)
(0 -0 18.9204)
(0 -0 18.9397)
(0 -0 18.9627)
(0 -0 18.9771)
(0 -0 15.1917)
(0 -0 15.1818)
(0 -0 15.2528)
(0 -0 15.3279)
(0 -0 15.4004)
(0 -0 15.4777)
(0 -0 15.5567)
(0 -0 15.6306)
(0 -0 15.6977)
(0 -0 15.7604)
(0 -0 15.8204)
(0 -0 15.8778)
(0 -0 15.9321)
(0 -0 15.9834)
(0 -0 16.0318)
(0 -0 16.0775)
(0 -0 16.121)
(0 -0 16.1627)
(0 -0 16.2035)
(0 -0 16.2444)
(0 -0 16.2859)