/*--------------------------------*- C++ -*----------------------------------*\
  =========                 |
  \\      /  F ield         | OpenFOAM: The Open Source CFD Toolbox
   \\    /   O peration     | Website:  https://openfoam.org
    \\  /    A nd           | Version:  7
     \\/     M anipulation  |
\*---------------------------------------------------------------------------*/
FoamFile
{
    version     2.0;
    format      ascii;
    class       volVectorField;
    location    "0.1";
    object      wallShearStress;
}
// * * * * * * * * * * * * * * * * * * * * * * * * * * * * * * * * * * * * * //

dimensions      [0 2 -2 0 0 0 0];

internalField   uniform (0 0 0);

boundaryField
{
    velocityInlet
    {
        type            calculated;
        value           uniform (0 0 0);
    }
    pressureOutlet
    {
        type            calculated;
        value           uniform (0 0 0);
    }
    fixedWalls
    {
        type            calculated;
        value           nonuniform List<vector> 
100
(
(-0.0222387 -0.00615219 0)
(-0.00269025 -0.00137704 0)
(-0.00269431 0.000231741 0)
(-0.00238142 6.37018e-05 0)
(-0.00256509 3.41413e-05 0)
(-0.00249914 -1.57039e-06 0)
(-0.00247922 -7.36206e-06 0)
(-0.00279069 7.49674e-05 0)
(-0.004073 0.00024143 0)
(-0.00628559 0.000371668 0)
(-0.00844348 0.000349875 0)
(-0.0090085 8.79314e-05 0)
(-0.00581492 -0.000681265 0)
(0.00173905 -0.0013157 0)
(0.0098133 -0.00135593 0)
(0.0140716 -0.000644835 0)
(0.0132052 0.000231648 0)
(0.0088169 0.00070026 0)
(0.00360152 0.000693687 0)
(-0.000559741 0.00049533 0)
(-0.00311182 0.000274359 0)
(-0.00439189 0.00012376 0)
(-0.00488159 4.25701e-05 0)
(-0.00494731 3.6942e-06 0)
(-0.00478941 -1.84906e-05 0)
(-0.00450044 -3.2373e-05 0)
(-0.00412914 -4.1872e-05 0)
(-0.00371484 -4.71194e-05 0)
(-0.00329713 -4.79767e-05 0)
(-0.00291107 -4.51719e-05 0)
(-0.00258514 -3.86292e-05 0)
(-0.00234777 -2.67076e-05 0)
(-0.00222706 -9.68842e-06 0)
(-0.00219697 3.82954e-06 0)
(-0.002087 -8.29955e-06 0)
(-0.00160714 -6.40611e-05 0)
(-0.000627458 -0.000129419 0)
(0.000523733 -0.000134874 0)
(0.00124558 -7.57832e-05 0)
(0.00123949 6.24057e-06 0)
(0.000685703 6.20717e-05 0)
(-7.05205e-05 7.42618e-05 0)
(-0.000774448 6.62011e-05 0)
(-0.00132746 5.00812e-05 0)
(-0.00172042 3.51771e-05 0)
(-0.00198133 2.36275e-05 0)
(-0.00214263 1.51412e-05 0)
(-0.0022317 9.09132e-06 0)
(-0.00227021 5.19744e-06 0)
(-0.00227464 2.69875e-06 0)
(-0.00225597 8.26473e-07 0)
(-0.00221867 -8.9137e-07 0)
(-0.00216045 -3.30264e-06 0)
(-0.00207458 -6.88411e-06 0)
(-0.00195615 -1.12452e-05 0)
(-0.00181 -1.50375e-05 0)
(-0.00165525 -1.65094e-05 0)
(-0.00152197 -1.43734e-05 0)
(-0.00144173 -9.08335e-06 0)
(-0.00143612 -2.04734e-06 0)
(-0.00151214 5.80492e-06 0)
(-0.00166725 1.33618e-05 0)
(-0.00189776 2.1213e-05 0)
(-0.00219828 2.9317e-05 0)
(-0.0025453 3.53554e-05 0)
(-0.00288715 3.60423e-05 0)
(-0.00316224 3.06362e-05 0)
(-0.00332939 2.26383e-05 0)
(-0.00337288 1.45585e-05 0)
(-0.00327371 1.85336e-06 0)
(-0.00298092 -1.92458e-05 0)
(-0.00242843 -4.93905e-05 0)
(-0.00160167 -8.01871e-05 0)
(-0.000599743 -9.78608e-05 0)
(0.000380846 -9.21136e-05 0)
(0.00112682 -6.58146e-05 0)
(0.00151464 -3.0439e-05 0)
(0.00154974 3.16254e-07 0)
(0.00130157 2.32829e-05 0)
(0.000852948 3.79445e-05 0)
(0.000290226 4.44854e-05 0)
(-0.000300255 4.44084e-05 0)
(-0.00084034 3.87525e-05 0)
(-0.00127726 2.98173e-05 0)
(-0.00159709 2.08155e-05 0)
(-0.00181307 1.35348e-05 0)
(-0.00195576 8.75238e-06 0)
(-0.00205004 5.92893e-06 0)
(-0.00212299 4.72249e-06 0)
(-0.0021844 4.35483e-06 0)
(-0.00224855 4.24896e-06 0)
(-0.00232186 4.87683e-06 0)
(-0.00241826 7.57113e-06 0)
(-0.00260329 1.31664e-05 0)
(-0.00283638 2.45325e-05 0)
(-0.00334682 3.66506e-05 0)
(-0.00380639 5.41416e-05 0)
(-0.0047614 7.08521e-05 0)
(-0.00567958 5.80305e-05 0)
(-0.00532162 -1.65852e-05 0)
)
;
    }
    bottomWall
    {
        type            calculated;
        value           nonuniform List<vector> 
800
(
(-0.0353512 0.00216563 0)
(-0.0160364 0.000524965 0)
(-0.0105905 0.000100554 0)
(-0.00845574 3.45883e-05 0)
(-0.00749181 1.96817e-05 0)
(-0.00685627 1.60103e-05 0)
(-0.00634762 1.32103e-05 0)
(-0.00593654 1.07611e-05 0)
(-0.00560208 8.96076e-06 0)
(-0.00532348 7.66143e-06 0)
(-0.00508619 6.67701e-06 0)
(-0.00488077 5.89925e-06 0)
(-0.00470076 5.2692e-06 0)
(-0.00454144 4.74997e-06 0)
(-0.00439922 4.31595e-06 0)
(-0.00427132 3.94862e-06 0)
(-0.00415557 3.63433e-06 0)
(-0.00405023 3.36281e-06 0)
(-0.00395387 3.12626e-06 0)
(-0.00386533 2.91862e-06 0)
(-0.00378367 2.73514e-06 0)
(-0.00370807 2.57201e-06 0)
(-0.00363785 2.42616e-06 0)
(-0.00357244 2.2951e-06 0)
(-0.00351134 2.17677e-06 0)
(-0.00345413 2.06947e-06 0)
(-0.00340044 1.97178e-06 0)
(-0.00334994 1.88252e-06 0)
(-0.00330236 1.80069e-06 0)
(-0.00325744 1.72543e-06 0)
(-0.00321496 1.65602e-06 0)
(-0.00317472 1.59184e-06 0)
(-0.00313656 1.53234e-06 0)
(-0.00310031 1.47705e-06 0)
(-0.00306584 1.42557e-06 0)
(-0.00303301 1.37754e-06 0)
(-0.00300171 1.33264e-06 0)
(-0.00297183 1.2906e-06 0)
(-0.00294329 1.25115e-06 0)
(-0.00291599 1.2141e-06 0)
(-0.00288986 1.17924e-06 0)
(-0.00286482 1.14639e-06 0)
(-0.00284081 1.11542e-06 0)
(-0.00281776 1.0861e-06 0)
(-0.00279562 1.05852e-06 0)
(-0.00277434 1.03213e-06 0)
(-0.00275387 1.0076e-06 0)
(-0.00273417 9.83477e-07 0)
(-0.00271518 9.61801e-07 0)
(-0.00269689 9.3867e-07 0)
(-0.00268161 9.19717e-07 0)
(-0.00266899 9.08979e-07 0)
(-0.00265654 8.95207e-07 0)
(-0.00264429 8.80511e-07 0)
(-0.00263223 8.66739e-07 0)
(-0.00262035 8.53637e-07 0)
(-0.00260866 8.40844e-07 0)
(-0.00259713 8.28318e-07 0)
(-0.00258578 8.16085e-07 0)
(-0.00257459 8.04143e-07 0)
(-0.00256357 7.92472e-07 0)
(-0.0025527 7.81061e-07 0)
(-0.00254199 7.699e-07 0)
(-0.00253143 7.58981e-07 0)
(-0.00252102 7.48296e-07 0)
(-0.00251076 7.37837e-07 0)
(-0.00250064 7.27597e-07 0)
(-0.00249066 7.17571e-07 0)
(-0.00248081 7.07751e-07 0)
(-0.0024711 6.98131e-07 0)
(-0.00246152 6.88706e-07 0)
(-0.00245207 6.79471e-07 0)
(-0.00244274 6.70419e-07 0)
(-0.00243354 6.61545e-07 0)
(-0.00242446 6.52844e-07 0)
(-0.0024155 6.44312e-07 0)
(-0.00240665 6.35942e-07 0)
(-0.00239792 6.27731e-07 0)
(-0.0023893 6.19675e-07 0)
(-0.00238079 6.11768e-07 0)
(-0.00237238 6.04008e-07 0)
(-0.00236409 5.9639e-07 0)
(-0.00235589 5.88909e-07 0)
(-0.0023478 5.81565e-07 0)
(-0.00233981 5.74351e-07 0)
(-0.00233192 5.67265e-07 0)
(-0.00232412 5.60305e-07 0)
(-0.00231642 5.53467e-07 0)
(-0.00230882 5.46747e-07 0)
(-0.0023013 5.40144e-07 0)
(-0.00229387 5.33654e-07 0)
(-0.00228654 5.27275e-07 0)
(-0.00227929 5.21005e-07 0)
(-0.00227212 5.1484e-07 0)
(-0.00226504 5.08779e-07 0)
(-0.00225804 5.0282e-07 0)
(-0.00225113 4.9696e-07 0)
(-0.00224429 4.91198e-07 0)
(-0.00223753 4.85532e-07 0)
(-0.00223085 4.7996e-07 0)
(-0.00222424 4.74479e-07 0)
(-0.00221771 4.69089e-07 0)
(-0.00221126 4.63786e-07 0)
(-0.00220487 4.58571e-07 0)
(-0.00219856 4.5344e-07 0)
(-0.00219231 4.48392e-07 0)
(-0.00218614 4.43426e-07 0)
(-0.00218003 4.38539e-07 0)
(-0.00217399 4.3373e-07 0)
(-0.00216801 4.28997e-07 0)
(-0.0021621 4.2434e-07 0)
(-0.00215625 4.19755e-07 0)
(-0.00215047 4.15242e-07 0)
(-0.00214475 4.10799e-07 0)
(-0.00213908 4.06424e-07 0)
(-0.00213348 4.02116e-07 0)
(-0.00212793 3.97874e-07 0)
(-0.00212245 3.93697e-07 0)
(-0.00211702 3.89582e-07 0)
(-0.00211164 3.85529e-07 0)
(-0.00210632 3.81537e-07 0)
(-0.00210106 3.77604e-07 0)
(-0.00209585 3.7373e-07 0)
(-0.00209069 3.69913e-07 0)
(-0.00208559 3.66152e-07 0)
(-0.00208053 3.62447e-07 0)
(-0.00207553 3.58794e-07 0)
(-0.00207057 3.55195e-07 0)
(-0.00206567 3.51647e-07 0)
(-0.00206081 3.48151e-07 0)
(-0.002056 3.44704e-07 0)
(-0.00205124 3.41306e-07 0)
(-0.00204652 3.37955e-07 0)
(-0.00204185 3.34653e-07 0)
(-0.00203723 3.31397e-07 0)
(-0.00203265 3.28184e-07 0)
(-0.00202811 3.25017e-07 0)
(-0.00202362 3.2189e-07 0)
(-0.00201917 3.18809e-07 0)
(-0.00201476 3.15762e-07 0)
(-0.0020104 3.12767e-07 0)
(-0.00200607 3.09794e-07 0)
(-0.00200179 3.06887e-07 0)
(-0.00199754 3.03978e-07 0)
(-0.00199334 3.01171e-07 0)
(-0.00198917 2.98309e-07 0)
(-0.00198504 2.95614e-07 0)
(-0.00198095 2.92763e-07 0)
(-0.0019769 2.9017e-07 0)
(-0.00197288 2.87246e-07 0)
(-0.00196952 2.84668e-07 0)
(-0.00196677 2.83336e-07 0)
(-0.00196402 2.81706e-07 0)
(-0.00196126 2.79822e-07 0)
(-0.00195851 2.77959e-07 0)
(-0.00195575 2.76155e-07 0)
(-0.00195299 2.74375e-07 0)
(-0.00195023 2.72603e-07 0)
(-0.00194747 2.70833e-07 0)
(-0.00194471 2.69065e-07 0)
(-0.00194194 2.67305e-07 0)
(-0.00193918 2.65546e-07 0)
(-0.00193641 2.63796e-07 0)
(-0.00193364 2.62053e-07 0)
(-0.00193087 2.60312e-07 0)
(-0.0019281 2.58581e-07 0)
(-0.00192533 2.56855e-07 0)
(-0.00192256 2.55136e-07 0)
(-0.00191979 2.53422e-07 0)
(-0.00191702 2.51713e-07 0)
(-0.00191424 2.50014e-07 0)
(-0.00191147 2.48318e-07 0)
(-0.00190869 2.46628e-07 0)
(-0.00190592 2.44948e-07 0)
(-0.00190314 2.43272e-07 0)
(-0.00190036 2.41607e-07 0)
(-0.00189759 2.3995e-07 0)
(-0.00189481 2.38295e-07 0)
(-0.00189203 2.36654e-07 0)
(-0.00188925 2.35015e-07 0)
(-0.00188648 2.33384e-07 0)
(-0.0018837 2.31769e-07 0)
(-0.00188092 2.30152e-07 0)
(-0.00187814 2.28551e-07 0)
(-0.00187536 2.26958e-07 0)
(-0.00187259 2.25371e-07 0)
(-0.00186981 2.23798e-07 0)
(-0.00186703 2.22229e-07 0)
(-0.00186425 2.20674e-07 0)
(-0.00186147 2.19131e-07 0)
(-0.0018587 2.17596e-07 0)
(-0.00185592 2.16077e-07 0)
(-0.00185314 2.14566e-07 0)
(-0.00185036 2.13066e-07 0)
(-0.00184759 2.11578e-07 0)
(-0.00184481 2.10097e-07 0)
(-0.00184203 2.08638e-07 0)
(-0.00183926 2.07183e-07 0)
(-0.00183648 2.05745e-07 0)
(-0.0018337 2.04328e-07 0)
(-0.00183092 2.02913e-07 0)
(-0.00182815 2.01523e-07 0)
(-0.00182537 2.00144e-07 0)
(-0.00182259 1.98772e-07 0)
(-0.00181982 1.97425e-07 0)
(-0.00181704 1.96087e-07 0)
(-0.00181426 1.94767e-07 0)
(-0.00181148 1.9347e-07 0)
(-0.0018087 1.92183e-07 0)
(-0.00180592 1.90922e-07 0)
(-0.00180314 1.89675e-07 0)
(-0.00180036 1.88442e-07 0)
(-0.00179758 1.87229e-07 0)
(-0.0017948 1.86028e-07 0)
(-0.00179202 1.84858e-07 0)
(-0.00178923 1.83709e-07 0)
(-0.00178644 1.82581e-07 0)
(-0.00178365 1.81475e-07 0)
(-0.00178086 1.80385e-07 0)
(-0.00177807 1.79317e-07 0)
(-0.00177528 1.78273e-07 0)
(-0.00177248 1.77248e-07 0)
(-0.00176968 1.76252e-07 0)
(-0.00176688 1.75279e-07 0)
(-0.00176407 1.74323e-07 0)
(-0.00176126 1.73422e-07 0)
(-0.00175845 1.72502e-07 0)
(-0.00175563 1.71674e-07 0)
(-0.00175281 1.70768e-07 0)
(-0.00174999 1.70055e-07 0)
(-0.00174716 1.691e-07 0)
(-0.00174432 1.68613e-07 0)
(-0.00174148 1.67463e-07 0)
(-0.00173862 1.67503e-07 0)
(-0.00173579 1.65761e-07 0)
(-0.00173289 1.66923e-07 0)
(-0.00173007 1.63657e-07 0)
(-0.00172712 1.67364e-07 0)
(-0.00172433 1.60439e-07 0)
(-0.00172127 1.69981e-07 0)
(-0.0017186 1.54634e-07 0)
(-0.00171532 1.77094e-07 0)
(-0.00171289 1.43148e-07 0)
(-0.00170919 1.93133e-07 0)
(-0.00170727 1.20132e-07 0)
(-0.00170282 2.2549e-07 0)
(-0.00170177 7.61944e-08 0)
(-0.00169617 2.82353e-07 0)
(-0.0016964 6.46091e-09 0)
(-0.00168927 3.10414e-07 0)
(-0.0353512 -0.00216563 0)
(-0.0160364 -0.000524969 0)
(-0.0105902 -0.000100563 0)
(-0.0084551 -3.45993e-05 0)
(-0.00749065 -1.9695e-05 0)
(-0.00685451 -1.60254e-05 0)
(-0.00634521 -1.32262e-05 0)
(-0.00593349 -1.07772e-05 0)
(-0.00559839 -8.97653e-06 0)
(-0.00531919 -7.6766e-06 0)
(-0.00508131 -6.69145e-06 0)
(-0.00487534 -5.91302e-06 0)
(-0.0046948 -5.28248e-06 0)
(-0.00453494 -4.76297e-06 0)
(-0.00439219 -4.32884e-06 0)
(-0.00426376 -3.96153e-06 0)
(-0.00414747 -3.64727e-06 0)
(-0.00404158 -3.37571e-06 0)
(-0.00394466 -3.13895e-06 0)
(-0.00385557 -2.93085e-06 0)
(-0.00377336 -2.74661e-06 0)
(-0.00369721 -2.58237e-06 0)
(-0.00362647 -2.43504e-06 0)
(-0.00356055 -2.30207e-06 0)
(-0.00349898 -2.18135e-06 0)
(-0.00344132 -2.07109e-06 0)
(-0.00338723 -1.96971e-06 0)
(-0.00333639 -1.87592e-06 0)
(-0.00328853 -1.78837e-06 0)
(-0.00324342 -1.70613e-06 0)
(-0.00320087 -1.62774e-06 0)
(-0.00316071 -1.55276e-06 0)
(-0.00312281 -1.47908e-06 0)
(-0.00308704 -1.40714e-06 0)
(-0.00305335 -1.33318e-06 0)
(-0.00302164 -1.25936e-06 0)
(-0.00299193 -1.17866e-06 0)
(-0.00296423 -1.09592e-06 0)
(-0.00293847 -9.99655e-07 0)
(-0.00291513 -8.95109e-07 0)
(-0.00289349 -7.72253e-07 0)
(-0.00287563 -6.16267e-07 0)
(-0.00285832 -4.58133e-07 0)
(-0.0028489 -1.7179e-07 0)
(-0.00283554 9.33162e-09 0)
(-0.00284192 6.56688e-07 0)
(-0.00283052 7.50618e-07 0)
(-0.00286882 2.79347e-06 0)
(-0.00287109 -3.60748e-06 0)
(-0.00273362 0.000199894 0)
(3.68542e-05 -1.61121e-05 0)
(3.88707e-05 -7.43224e-05 0)
(3.86077e-05 -0.000125877 0)
(3.91694e-05 -0.000177154 0)
(4.01095e-05 -0.000229931 0)
(4.09133e-05 -0.000284213 0)
(4.11764e-05 -0.000339342 0)
(4.05897e-05 -0.000394257 0)
(3.88371e-05 -0.000447595 0)
(3.56419e-05 -0.00049765 0)
(3.07e-05 -0.000542621 0)
(2.36777e-05 -0.000580259 0)
(1.42407e-05 -0.000608163 0)
(1.98794e-06 -0.000623502 0)
(-1.30946e-05 -0.000622872 0)
(-3.08038e-05 -0.00060351 0)
(-5.03315e-05 -0.000563148 0)
(-6.98557e-05 -0.000500863 0)
(-8.59753e-05 -0.000418482 0)
(-9.33044e-05 -0.000322506 0)
(-8.51157e-05 -0.000226334 0)
(-5.69721e-05 -0.000151455 0)
(-9.89033e-06 -0.000121503 0)
(5.07229e-05 -0.000152532 0)
(0.000118823 -0.000257042 0)
(0.000185765 -0.000436224 0)
(0.000243422 -0.000680903 0)
(0.000285859 -0.000975717 0)
(0.000309114 -0.0013035 0)
(0.000310661 -0.0016462 0)
(0.000289264 -0.00198373 0)
(0.000245735 -0.00229523 0)
(0.000183481 -0.00256162 0)
(0.000107232 -0.00276765 0)
(2.11946e-05 -0.00290207 0)
(-6.58354e-05 -0.00295617 0)
(-0.00013656 -0.00293207 0)
(-0.000179714 -0.00285004 0)
(-0.000197086 -0.00273144 0)
(-0.000195778 -0.0025946 0)
(-0.000183684 -0.00245294 0)
(-0.000167168 -0.00231469 0)
(-0.000150337 -0.00218391 0)
(-0.000135426 -0.00206196 0)
(-0.000123268 -0.00194865 0)
(-0.000113916 -0.00184311 0)
(-0.000107076 -0.00174415 0)
(-0.000102343 -0.00165056 0)
(-9.93249e-05 -0.0015612 0)
(-9.76957e-05 -0.0014751 0)
(-9.71923e-05 -0.00139137 0)
(-9.75689e-05 -0.00130927 0)
(-9.85606e-05 -0.00122818 0)
(-9.98848e-05 -0.00114763 0)
(-0.000101267 -0.00106731 0)
(-0.00010246 -0.000987061 0)
(-0.000103247 -0.000906858 0)
(-0.000103432 -0.000826811 0)
(-0.000102853 -0.000747143 0)
(-0.000101395 -0.000668171 0)
(-9.90031e-05 -0.000590277 0)
(-9.56873e-05 -0.000513885 0)
(-9.15142e-05 -0.000439426 0)
(-8.66088e-05 -0.000367331 0)
(-8.11298e-05 -0.000298001 0)
(-7.52828e-05 -0.000231707 0)
(-6.92824e-05 -0.000168673 0)
(-6.33355e-05 -0.000109043 0)
(-5.7637e-05 -5.28704e-05 0)
(-5.23552e-05 -1.32492e-07 0)
(-4.76275e-05 4.9256e-05 0)
(-4.35406e-05 9.54316e-05 0)
(-4.01418e-05 0.000138575 0)
(-3.74417e-05 0.00017893 0)
(-3.53841e-05 0.000216883 0)
(-3.38218e-05 0.000252716 0)
(-3.25088e-05 0.000285758 0)
(-3.12988e-05 0.000315541 0)
(-3.02286e-05 0.000343309 0)
(-2.92105e-05 0.000369426 0)
(-2.81275e-05 0.000393714 0)
(-2.69562e-05 0.000416133 0)
(-2.56789e-05 0.00043673 0)
(-2.42791e-05 0.00045554 0)
(-2.27512e-05 0.000472593 0)
(-2.11136e-05 0.000487944 0)
(-1.9382e-05 0.000501664 0)
(-1.75744e-05 0.000513826 0)
(-1.57128e-05 0.000524508 0)
(-1.3819e-05 0.000533785 0)
(-1.19146e-05 0.000541734 0)
(-1.00207e-05 0.000548433 0)
(-8.15439e-06 0.000553954 0)
(-6.32968e-06 0.000558371 0)
(-4.55549e-06 0.000561756 0)
(-2.83321e-06 0.000564176 0)
(-1.15476e-06 0.000565691 0)
(4.74021e-07 0.000566349 0)
(2.05143e-06 0.000566216 0)
(3.57314e-06 0.000565358 0)
(5.04704e-06 0.000563809 0)
(6.46684e-06 0.000561607 0)
(7.82886e-06 0.000558785 0)
(9.13433e-06 0.000555385 0)
(1.03954e-05 0.000551439 0)
(1.16172e-05 0.000546974 0)
(1.27994e-05 0.000542016 0)
(1.39378e-05 0.000536594 0)
(1.50244e-05 0.000530738 0)
(1.60483e-05 0.000524486 0)
(1.69968e-05 0.000517878 0)
(1.78569e-05 0.00051096 0)
(1.86164e-05 0.000503781 0)
(1.92658e-05 0.000496394 0)
(1.97999e-05 0.000488855 0)
(2.02188e-05 0.000481214 0)
(2.05286e-05 0.000473522 0)
(2.07426e-05 0.000465819 0)
(2.08806e-05 0.000458138 0)
(2.09685e-05 0.000450501 0)
(2.1037e-05 0.000442913 0)
(2.112e-05 0.00043537 0)
(2.12517e-05 0.000427851 0)
(2.14651e-05 0.000420323 0)
(2.1789e-05 0.000412744 0)
(2.22454e-05 0.000405063 0)
(2.28481e-05 0.000397226 0)
(2.36005e-05 0.000389177 0)
(2.44945e-05 0.000380866 0)
(2.55103e-05 0.000372248 0)
(2.66168e-05 0.000363293 0)
(2.77725e-05 0.000353986 0)
(2.89283e-05 0.000344329 0)
(3.00309e-05 0.000334348 0)
(3.10272e-05 0.00032409 0)
(3.18683e-05 0.000313623 0)
(3.25136e-05 0.00030303 0)
(3.29344e-05 0.000292411 0)
(3.31163e-05 0.000281869 0)
(3.30605e-05 0.000271509 0)
(3.27826e-05 0.00026143 0)
(3.23102e-05 0.000251716 0)
(3.16789e-05 0.00024243 0)
(3.09277e-05 0.000233618 0)
(3.00932e-05 0.000225302 0)
(2.92064e-05 0.000217486 0)
(2.82899e-05 0.000210161 0)
(2.73576e-05 0.000203308 0)
(2.64162e-05 0.000196907 0)
(2.54682e-05 0.000190937 0)
(2.45162e-05 0.000185378 0)
(2.35661e-05 0.000180216 0)
(2.26306e-05 0.000175433 0)
(2.17299e-05 0.000171012 0)
(2.08919e-05 0.000166927 0)
(2.01511e-05 0.000163144 0)
(1.95457e-05 0.00015962 0)
(1.91157e-05 0.000156299 0)
(1.88998e-05 0.000153117 0)
(1.89335e-05 0.00015 0)
(1.92468e-05 0.000146868 0)
(1.98632e-05 0.000143637 0)
(2.07984e-05 0.000140221 0)
(2.20594e-05 0.000136537 0)
(2.36442e-05 0.000132503 0)
(2.55413e-05 0.000128047 0)
(2.773e-05 0.000123102 0)
(3.01815e-05 0.000117615 0)
(3.28594e-05 0.000111543 0)
(3.57216e-05 0.000104859 0)
(3.87218e-05 9.75478e-05 0)
(4.18119e-05 8.96121e-05 0)
(4.49437e-05 8.10672e-05 0)
(4.80712e-05 7.19428e-05 0)
(5.11532e-05 6.22819e-05 0)
(5.41549e-05 5.21394e-05 0)
(5.70503e-05 4.15807e-05 0)
(5.98243e-05 3.06797e-05 0)
(6.24742e-05 1.95154e-05 0)
(6.50099e-05 8.16866e-06 0)
(6.74539e-05 -3.28178e-06 0)
(6.98411e-05 -1.47629e-05 0)
(7.22176e-05 -2.62122e-05 0)
(7.46354e-05 -3.75825e-05 0)
(7.71471e-05 -4.88468e-05 0)
(7.97975e-05 -6.00052e-05 0)
(8.26102e-05 -7.10951e-05 0)
(8.55653e-05 -8.22075e-05 0)
(8.85649e-05 -9.35153e-05 0)
(9.1375e-05 -0.000105324 0)
(9.35299e-05 -0.000118171 0)
(9.41658e-05 -0.000133006 0)
(9.17267e-05 -0.000151548 0)
(8.34685e-05 -0.000176972 0)
(6.45852e-05 -0.000215191 0)
(2.65847e-05 -0.000276807 0)
(-4.57315e-05 -0.000380314 0)
(-0.000181349 -0.000554151 0)
(-0.000425136 -0.00082551 0)
(-0.000767476 -0.0011755 0)
(1.95627e-06 -3.72275e-05 0)
(4.5814e-05 -3.97692e-05 0)
(7.6789e-05 -3.90772e-05 0)
(0.000107919 -3.96346e-05 0)
(0.000140639 -4.02944e-05 0)
(0.000174989 -4.04303e-05 0)
(0.000210544 -3.96902e-05 0)
(0.000246935 -3.76132e-05 0)
(0.000283193 -3.36155e-05 0)
(0.000317745 -2.71316e-05 0)
(0.00034822 -1.77244e-05 0)
(0.00037146 -5.15491e-06 0)
(0.00038354 1.09123e-05 0)
(0.000379428 3.12967e-05 0)
(0.000353128 5.65591e-05 0)
(0.00030155 8.48866e-05 0)
(0.000230497 0.000113671 0)
(0.000154625 0.00014037 0)
(9.2445e-05 0.000165796 0)
(4.9298e-05 0.000183602 0)
(1.51401e-05 0.000168369 0)
(-5.14946e-06 9.52655e-05 0)
(2.13521e-05 -2.41551e-05 0)
(0.000115962 -0.000126148 0)
(0.000247564 -0.000152466 0)
(0.000355503 -0.000121103 0)
(0.000434033 -0.00010857 0)
(0.000522062 -0.000129586 0)
(0.000624151 -0.000144258 0)
(0.000721062 -0.000153067 0)
(0.000814021 -0.000161145 0)
(0.000903135 -0.000151589 0)
(0.000976963 -0.000128054 0)
(0.00103527 -0.000104807 0)
(0.00108429 -8.6991e-05 0)
(0.00112882 -7.74384e-05 0)
(0.0011736 -7.42252e-05 0)
(0.00121984 -7.29436e-05 0)
(0.00126662 -7.23613e-05 0)
(0.00131305 -7.1337e-05 0)
(0.00135669 -6.71888e-05 0)
(0.00139294 -5.68873e-05 0)
(0.00141503 -3.75251e-05 0)
(0.00141358 -7.86669e-06 0)
(0.0013791 3.17572e-05 0)
(0.0013045 8.05004e-05 0)
(0.00118331 0.000135341 0)
(0.00101465 0.000190208 0)
(0.000804105 0.000238354 0)
(0.000562992 0.000274445 0)
(0.000302867 0.000296755 0)
(2.73734e-05 0.00030109 0)
(-0.000239042 0.000279977 0)
(-0.000464963 0.000246475 0)
(-0.000662577 0.000218756 0)
(-0.000843433 0.000198825 0)
(-0.00101236 0.000187216 0)
(-0.00117505 0.000184126 0)
(-0.00133767 0.000189215 0)
(-0.00150645 0.000201606 0)
(-0.00168704 0.000220072 0)
(-0.00188376 0.000242238 0)
(-0.00209834 0.000264611 0)
(-0.00232961 0.000283262 0)
(-0.00257359 0.000292609 0)
(-0.00282189 0.000286536 0)
(-0.0030623 0.000258309 0)
(-0.00327614 0.000199406 0)
(-0.00343894 0.000106745 0)
(-0.00352935 -2.47172e-05 0)
(-0.00351614 -0.000193804 0)
(-0.00337373 -0.000396903 0)
(-0.0030821 -0.000627408 0)
(-0.0026266 -0.000877024 0)
(-0.0019884 -0.00112731 0)
(-0.00108933 -0.00129728 0)
(6.83287e-05 -0.00106303 0)
(0.000886943 -0.000162295 0)
(0.000796138 0.000449698 0)
(0.000815951 0.000347628 0)
(0.000635842 -5.51975e-05 0)
(0.000776781 -0.000142463 0)
(0.000959992 -0.000298915 0)
(0.00120121 -0.000301414 0)
(0.00136642 -0.000228159 0)
(0.00146679 -0.000170085 0)
(0.00153436 -0.000109856 0)
(0.00156223 -6.40871e-05 0)
(0.00155643 -1.67935e-05 0)
(0.00152293 1.6338e-05 0)
(0.00147203 4.61761e-05 0)
(0.00140217 7.66726e-05 0)
(0.00130969 0.000112214 0)
(0.00119102 0.00015286 0)
(0.00104477 0.000197665 0)
(0.000867309 0.000248704 0)
(0.000647719 0.000302609 0)
(0.000370901 0.000334939 0)
(3.97407e-05 0.00025044 0)
(-8.98494e-05 -1.79405e-05 0)
(-9.38558e-05 -1.10626e-05 0)
(5.57153e-05 4.8911e-05 0)
(0.000163781 0.000327012 0)
(0.00014167 0.000558887 0)
(0.000122533 0.000705712 0)
(0.000115037 0.000835443 0)
(9.23489e-05 0.00093684 0)
(6.08775e-05 0.00101571 0)
(3.20078e-05 0.00106284 0)
(1.88187e-05 0.00108584 0)
(1.87805e-05 0.00109857 0)
(2.12332e-05 0.001104 0)
(1.24804e-05 0.00108948 0)
(-1.6117e-05 0.00103845 0)
(-6.33465e-05 0.000940658 0)
(-0.000125278 0.000791004 0)
(-0.000200797 0.000578058 0)
(-0.000290374 0.000285375 0)
(-0.000381157 -0.000119539 0)
(-0.000430935 -0.000599148 0)
(-0.000439389 -0.00107792 0)
(-0.000406756 -0.00154498 0)
(-0.000333893 -0.00196124 0)
(-0.000224287 -0.00228922 0)
(-8.89886e-05 -0.00249721 0)
(6.68913e-05 -0.0025806 0)
(0.000236428 -0.00251126 0)
(0.00039996 -0.00227579 0)
(0.00051333 -0.00188689 0)
(0.000525145 -0.00140431 0)
(0.000419796 -0.000942959 0)
(0.000264821 -0.000603138 0)
(0.000144367 -0.000374397 0)
(9.42915e-05 -0.000221751 0)
(0.000116638 -0.000105103 0)
(0.000171149 2.56452e-05 0)
(0.00019407 0.000168645 0)
(0.000185221 0.000302048 0)
(0.000157715 0.000451919 0)
(8.24066e-05 0.000608359 0)
(-1.1706e-05 0.000718346 0)
(-6.62064e-05 0.000771584 0)
(-6.2791e-05 0.000803464 0)
(-1.13123e-05 0.000847418 0)
(6.44998e-05 0.000917274 0)
(0.000119944 0.00101222 0)
(0.000103564 0.00110744 0)
(4.72802e-06 0.00114572 0)
(-0.000129052 0.00110341 0)
(-0.000246517 0.00105598 0)
(-0.000352469 0.00107978 0)
(-0.000457621 0.0011332 0)
(-0.000481746 0.00112908 0)
(-0.000316475 0.00110427 0)
(0.000163354 0.00125905 0)
(0.000788689 0.00148008 0)
(0.00104596 0.00209826 0)
(0.000660546 0.00269372 0)
(0.000203445 0.0027156 0)
(0.00021737 0.00267194 0)
(0.000264672 0.00282115 0)
(0.000126238 0.00292631 0)
(7.2543e-05 0.00291636 0)
(9.47173e-05 0.00294335 0)
(5.36707e-05 0.00298122 0)
(2.10155e-05 0.00297382 0)
(2.47632e-05 0.00296835 0)
(1.09156e-05 0.00297075 0)
(-4.77102e-06 0.00295728 0)
(-6.22037e-06 0.00294163 0)
(-1.21462e-05 0.00292915 0)
(-1.93862e-05 0.00291109 0)
(-2.10729e-05 0.00289172 0)
(-2.34139e-05 0.00287379 0)
(-2.59641e-05 0.00285449 0)
(-2.61665e-05 0.00283519 0)
(-2.5988e-05 0.00281716 0)
(-2.54957e-05 0.00279963 0)
(-2.38493e-05 0.00278305 0)
(-2.1724e-05 0.00276796 0)
(-1.92757e-05 0.00275411 0)
(-1.63326e-05 0.00274157 0)
(-1.32456e-05 0.00273044 0)
(-1.02363e-05 0.00272045 0)
(-7.41989e-06 0.0027114 0)
(-5.08334e-06 0.00270305 0)
(-3.46369e-06 0.002695 0)
(-2.73364e-06 0.00268684 0)
(-3.06711e-06 0.00267816 0)
(-4.55087e-06 0.00266854 0)
(-7.17545e-06 0.0026576 0)
(-1.0858e-05 0.00264506 0)
(-1.54277e-05 0.00263073 0)
(-2.06486e-05 0.00261458 0)
(-2.62554e-05 0.00259667 0)
(-3.19784e-05 0.00257721 0)
(-3.75762e-05 0.00255652 0)
(-4.28659e-05 0.00253497 0)
(-4.77395e-05 0.00251298 0)
(-5.21703e-05 0.00249092 0)
(-5.62082e-05 0.00246914 0)
(-5.99555e-05 0.00244792 0)
(-6.35324e-05 0.00242743 0)
(-6.70445e-05 0.00240782 0)
(-7.05483e-05 0.00238918 0)
(-7.40233e-05 0.00237161 0)
(-7.74665e-05 0.00235534 0)
(-8.10872e-05 0.00234043 0)
(-8.50441e-05 0.00232672 0)
(-8.95643e-05 0.00231384 0)
(-9.46507e-05 0.00230122 0)
(-9.96744e-05 0.00228849 0)
(-0.000102879 0.00227613 0)
(-0.000101114 0.00226643 0)
(-9.04123e-05 0.00226426 0)
(-6.7043e-05 0.00227669 0)
(-2.9015e-05 0.00231063 0)
(2.56809e-05 0.00236734 0)
(0.000105545 0.0024396 0)
(0.000232124 0.00252223 0)
(0.00043456 0.00263825 0)
(0.000711138 0.00282182 0)
(0.000972519 0.00310107 0)
(0.00110531 0.00352571 0)
(0.00104859 0.00394868 0)
(0.000883921 0.00422021 0)
(0.000733563 0.00436571 0)
(0.000616544 0.00449691 0)
(0.000492487 0.00462003 0)
(0.000366484 0.00469295 0)
(0.000265111 0.00472547 0)
(0.000185496 0.00474628 0)
(0.000116677 0.00475522 0)
(6.15966e-05 0.00474781 0)
(2.23486e-05 0.00473243 0)
(-5.56497e-06 0.00471534 0)
(-2.56895e-05 0.00469636 0)
(-3.84303e-05 0.00467592 0)
(-4.4892e-05 0.00465674 0)
(-4.71928e-05 0.00463954 0)
(-4.6118e-05 0.00462421 0)
(-4.21962e-05 0.00461154 0)
(-3.64148e-05 0.00460211 0)
(-2.95176e-05 0.00459578 0)
(-2.18464e-05 0.00459256 0)
(-1.38705e-05 0.00459256 0)
(-5.8824e-06 0.0045956 0)
(1.96835e-06 0.00460157 0)
(9.4055e-06 0.00461042 0)
(1.61763e-05 0.00462196 0)
(2.20841e-05 0.00463596 0)
(2.69188e-05 0.00465215 0)
(3.04944e-05 0.00467019 0)
(3.26217e-05 0.00468972 0)
(3.31101e-05 0.00471033 0)
(3.1732e-05 0.00473159 0)
(2.82909e-05 0.004753 0)
(2.2591e-05 0.00477404 0)
(1.44276e-05 0.00479417 0)
(3.58536e-06 0.00481282 0)
(-1.01846e-05 0.00482938 0)
(-2.70857e-05 0.00484321 0)
(-4.73082e-05 0.00485369 0)
(-7.07459e-05 0.00486014 0)
(-9.75101e-05 0.00486219 0)
(-0.000128078 0.00485926 0)
(-0.000162673 0.00485068 0)
(-0.000201418 0.00483586 0)
(-0.000244477 0.00481423 0)
(-0.000292031 0.00478521 0)
(-0.000344266 0.00474826 0)
(-0.000401373 0.00470288 0)
(-0.000463547 0.0046486 0)
(-0.000530998 0.00458503 0)
(-0.000603958 0.00451183 0)
(-0.000682698 0.00442874 0)
(-0.000767551 0.00433559 0)
(-0.000858934 0.0042323 0)
(-0.000957377 0.00411886 0)
(-0.00106355 0.00399531 0)
(-0.0011783 0.00386168 0)
(-0.00130267 0.00371795 0)
(-0.0014379 0.0035639 0)
(-0.00158542 0.00339902 0)
(-0.00174678 0.00322237 0)
(-0.00192356 0.00303254 0)
(-0.00211728 0.00282773 0)
(-0.00232936 0.00260587 0)
(-0.00256099 0.00236491 0)
(-0.00281293 0.00210313 0)
(-0.00308564 0.00181944 0)
(-0.00338025 0.00151352 0)
(-0.00370045 0.0011856 0)
(-0.00405579 0.000835403 0)
(-0.00444898 0.000456675 0)
(-0.00486997 6.32135e-05 0)
(-0.00533326 -0.000451526 0)
(-0.00574798 -0.000710905 0)
(-0.0063498 -0.00183497 0)
(-0.00602441 -0.000981665 0)
)
;
    }
    frontAndBack
    {
        type            empty;
    }
}


// ************************************************************************* //
