/*--------------------------------*- C++ -*----------------------------------*\
  =========                 |
  \\      /  F ield         | OpenFOAM: The Open Source CFD Toolbox
   \\    /   O peration     | Website:  https://openfoam.org
    \\  /    A nd           | Version:  7
     \\/     M anipulation  |
\*---------------------------------------------------------------------------*/
FoamFile
{
    version     2.0;
    format      ascii;
    class       volScalarField;
    location    "0.4";
    object      k;
}
// * * * * * * * * * * * * * * * * * * * * * * * * * * * * * * * * * * * * * //

dimensions      [0 2 -2 0 0 0 0];

internalField   nonuniform List<scalar> 
70000
(
1.08549e-05
4.21882e-06
2.82446e-06
2.31698e-06
1.9977e-06
1.75742e-06
1.56542e-06
1.40858e-06
1.27773e-06
1.16706e-06
1.07204e-06
9.90074e-07
9.18425e-07
8.55819e-07
8.00325e-07
7.51348e-07
7.07376e-07
6.68225e-07
6.32675e-07
6.00824e-07
5.71595e-07
5.45332e-07
5.20919e-07
4.99037e-07
4.78333e-07
4.59956e-07
4.42147e-07
4.26599e-07
4.11103e-07
3.97839e-07
3.84261e-07
3.72827e-07
3.60888e-07
3.50931e-07
3.40374e-07
3.3169e-07
3.22192e-07
3.14767e-07
3.05935e-07
2.99824e-07
2.91403e-07
2.86494e-07
2.78366e-07
2.75491e-07
2.66909e-07
2.67536e-07
2.58822e-07
2.75562e-07
2.61329e-07
3.9842e-07
1.72794e-05
1.13674e-05
8.52079e-06
7.01089e-06
6.03777e-06
5.31167e-06
4.73218e-06
4.25854e-06
3.86333e-06
3.52911e-06
3.24215e-06
2.99461e-06
2.7782e-06
2.58909e-06
2.42145e-06
2.27346e-06
2.1406e-06
2.02227e-06
1.91483e-06
1.81856e-06
1.73018e-06
1.65082e-06
1.57696e-06
1.51086e-06
1.44818e-06
1.39267e-06
1.33874e-06
1.29176e-06
1.24486e-06
1.20472e-06
1.16368e-06
1.12901e-06
1.09296e-06
1.06276e-06
1.03085e-06
1.00458e-06
9.75758e-07
9.5342e-07
9.26518e-07
9.08178e-07
8.82591e-07
8.67796e-07
8.43144e-07
8.3348e-07
8.08509e-07
8.063e-07
7.83463e-07
8.16e-07
7.88701e-07
9.06977e-07
1.93701e-05
1.61298e-05
1.32913e-05
1.12902e-05
9.82922e-06
8.69704e-06
7.77931e-06
7.0218e-06
6.38507e-06
5.84393e-06
5.37756e-06
4.97411e-06
4.62048e-06
4.31077e-06
4.03569e-06
3.79236e-06
3.57359e-06
3.37841e-06
3.20097e-06
3.04186e-06
2.89551e-06
2.76418e-06
2.64153e-06
2.53205e-06
2.42773e-06
2.33568e-06
2.24582e-06
2.16771e-06
2.0896e-06
2.02262e-06
1.95437e-06
1.89632e-06
1.8364e-06
1.78577e-06
1.73257e-06
1.68875e-06
1.6403e-06
1.60338e-06
1.55793e-06
1.5276e-06
1.48463e-06
1.45982e-06
1.41879e-06
1.40107e-06
1.36067e-06
1.35186e-06
1.31575e-06
1.34617e-06
1.31864e-06
1.36947e-06
1.9861e-05
1.826e-05
1.60857e-05
1.42006e-05
1.26406e-05
1.13495e-05
1.02616e-05
9.33975e-06
8.54807e-06
7.86517e-06
7.27006e-06
6.75076e-06
6.29207e-06
5.8878e-06
5.52669e-06
5.20552e-06
4.91543e-06
4.65559e-06
4.41841e-06
4.2053e-06
4.00833e-06
3.83168e-06
3.66559e-06
3.51779e-06
3.37581e-06
3.25102e-06
3.12838e-06
3.02187e-06
2.91522e-06
2.82328e-06
2.73014e-06
2.65002e-06
2.56812e-06
2.49823e-06
2.42495e-06
2.36492e-06
2.29744e-06
2.24725e-06
2.18377e-06
2.14218e-06
2.08275e-06
2.04798e-06
1.99193e-06
1.96517e-06
1.91072e-06
1.89356e-06
1.84392e-06
1.86058e-06
1.83949e-06
1.85042e-06
1.99707e-05
1.78458e-05
1.60747e-05
1.47664e-05
1.36024e-05
1.25378e-05
1.15694e-05
1.07023e-05
9.92112e-06
9.22608e-06
8.60562e-06
8.05347e-06
7.55732e-06
7.11389e-06
6.71263e-06
6.35159e-06
6.02216e-06
5.72471e-06
5.45082e-06
5.20373e-06
4.97312e-06
4.76626e-06
4.56946e-06
4.39483e-06
4.22511e-06
4.07625e-06
3.92881e-06
3.8004e-06
3.67185e-06
3.55987e-06
3.44734e-06
3.3491e-06
3.2495e-06
3.16391e-06
3.07363e-06
3.00071e-06
2.91654e-06
2.85562e-06
2.77664e-06
2.72513e-06
2.65211e-06
2.60781e-06
2.53995e-06
2.5034e-06
2.43854e-06
2.41267e-06
2.35108e-06
2.35015e-06
2.328e-06
2.31419e-06
2.00095e-05
1.47039e-05
1.37473e-05
1.32103e-05
1.25905e-05
1.19265e-05
1.12771e-05
1.06571e-05
1.00799e-05
9.5465e-06
9.04577e-06
8.58021e-06
8.14647e-06
7.74724e-06
7.3757e-06
7.03363e-06
6.71514e-06
6.42346e-06
6.15033e-06
5.90202e-06
5.66602e-06
5.45387e-06
5.24814e-06
5.06578e-06
4.88557e-06
4.72723e-06
4.569e-06
4.42999e-06
4.29109e-06
4.16808e-06
4.04554e-06
3.93678e-06
3.82678e-06
3.73222e-06
3.6306e-06
3.5504e-06
3.45475e-06
3.38688e-06
3.29784e-06
3.23857e-06
3.15739e-06
3.10443e-06
3.03067e-06
2.98374e-06
2.91524e-06
2.87912e-06
2.81439e-06
2.79385e-06
2.76293e-06
2.72806e-06
2.01331e-05
1.54684e-05
9.63452e-06
9.39693e-06
9.49123e-06
9.49041e-06
9.43173e-06
9.29356e-06
9.05333e-06
8.78034e-06
8.48575e-06
8.1893e-06
7.89765e-06
7.61516e-06
7.33847e-06
7.07859e-06
6.83108e-06
6.59848e-06
6.37341e-06
6.16543e-06
5.9609e-06
5.77567e-06
5.59026e-06
5.42546e-06
5.25842e-06
5.11038e-06
4.96087e-06
4.82732e-06
4.69417e-06
4.57353e-06
4.45397e-06
4.34621e-06
4.23617e-06
4.14246e-06
4.03841e-06
3.95842e-06
3.85998e-06
3.79022e-06
3.69957e-06
3.63593e-06
3.55473e-06
3.49476e-06
3.4236e-06
3.36609e-06
3.30341e-06
3.25234e-06
3.19655e-06
3.15457e-06
3.12331e-06
3.069e-06
2.01713e-05
1.86765e-05
8.69504e-06
5.53987e-06
5.62953e-06
5.93262e-06
6.29032e-06
6.57542e-06
6.75509e-06
6.86401e-06
6.88434e-06
6.86535e-06
6.81392e-06
6.72624e-06
6.61623e-06
6.49524e-06
6.35758e-06
6.2174e-06
6.073e-06
5.93474e-06
5.79051e-06
5.65793e-06
5.51887e-06
5.39409e-06
5.26292e-06
5.14673e-06
5.02783e-06
4.91868e-06
4.80947e-06
4.70749e-06
4.60585e-06
4.51312e-06
4.41575e-06
4.33437e-06
4.23966e-06
4.16838e-06
4.07866e-06
4.01329e-06
3.93147e-06
3.86844e-06
3.79682e-06
3.73369e-06
3.67346e-06
3.60951e-06
3.5587e-06
3.49742e-06
3.45371e-06
3.39783e-06
3.36799e-06
3.30495e-06
2.01671e-05
1.97241e-05
1.61694e-05
4.86466e-06
3.04235e-06
3.10495e-06
3.37284e-06
3.80237e-06
4.16788e-06
4.48565e-06
4.73328e-06
4.92323e-06
5.06426e-06
5.16519e-06
5.22433e-06
5.2612e-06
5.26562e-06
5.2576e-06
5.23507e-06
5.19982e-06
5.14898e-06
5.09758e-06
5.03391e-06
4.97268e-06
4.90232e-06
4.83448e-06
4.76031e-06
4.68841e-06
4.61491e-06
4.54355e-06
4.47068e-06
4.4037e-06
4.32981e-06
4.26948e-06
4.19511e-06
4.13968e-06
4.06911e-06
4.01461e-06
3.95155e-06
3.89615e-06
3.8424e-06
3.78387e-06
3.73943e-06
3.67886e-06
3.64131e-06
3.58099e-06
3.54899e-06
3.49036e-06
3.46376e-06
3.40234e-06
2.01476e-05
1.99343e-05
1.90663e-05
1.45025e-05
5.25022e-06
2.15565e-06
1.91439e-06
1.99312e-06
2.20573e-06
2.50404e-06
2.77972e-06
3.03291e-06
3.25778e-06
3.4551e-06
3.61882e-06
3.75835e-06
3.86957e-06
3.96014e-06
4.02997e-06
4.08555e-06
4.1225e-06
4.14908e-06
4.1633e-06
4.16721e-06
4.16405e-06
4.15638e-06
4.14113e-06
4.12141e-06
4.09768e-06
4.07108e-06
4.04003e-06
4.01081e-06
3.97325e-06
3.94319e-06
3.9015e-06
3.87028e-06
3.82892e-06
3.79415e-06
3.75565e-06
3.71519e-06
3.68166e-06
3.63671e-06
3.60763e-06
3.56067e-06
3.53443e-06
3.48693e-06
3.46281e-06
3.4146e-06
3.39259e-06
3.33914e-06
2.01216e-05
1.99661e-05
1.96427e-05
1.85478e-05
1.52181e-05
8.37239e-06
3.11387e-06
1.63432e-06
1.44259e-06
1.44922e-06
1.52575e-06
1.68624e-06
1.8682e-06
2.04554e-06
2.21511e-06
2.37568e-06
2.52191e-06
2.65519e-06
2.77223e-06
2.87812e-06
2.96893e-06
3.049e-06
3.11687e-06
3.17496e-06
3.22292e-06
3.26323e-06
3.29626e-06
3.32194e-06
3.34201e-06
3.35699e-06
3.36582e-06
3.37314e-06
3.37324e-06
3.37225e-06
3.36784e-06
3.36262e-06
3.35268e-06
3.34145e-06
3.33115e-06
3.31366e-06
3.30311e-06
3.28177e-06
3.26968e-06
3.24572e-06
3.23252e-06
3.20624e-06
3.19189e-06
3.16218e-06
3.14725e-06
3.10848e-06
2.00981e-05
1.99327e-05
1.97575e-05
1.93534e-05
1.85085e-05
1.65425e-05
1.23424e-05
6.87752e-06
2.99819e-06
1.49578e-06
1.24367e-06
1.14776e-06
1.15176e-06
1.19413e-06
1.28616e-06
1.39395e-06
1.50564e-06
1.61702e-06
1.72612e-06
1.83265e-06
1.93225e-06
2.02647e-06
2.11321e-06
2.19338e-06
2.26701e-06
2.33324e-06
2.39437e-06
2.44833e-06
2.49739e-06
2.54101e-06
2.57898e-06
2.6139e-06
2.6428e-06
2.66902e-06
2.69088e-06
2.70973e-06
2.7262e-06
2.73813e-06
2.75067e-06
2.75621e-06
2.76482e-06
2.76676e-06
2.77003e-06
2.76946e-06
2.76837e-06
2.76451e-06
2.76087e-06
2.75147e-06
2.74538e-06
2.72692e-06
2.00781e-05
1.98875e-05
1.97571e-05
1.94618e-05
1.91474e-05
1.86437e-05
1.75613e-05
1.54366e-05
1.17602e-05
7.46716e-06
3.99832e-06
1.92162e-06
1.21029e-06
1.0578e-06
9.82315e-07
9.42941e-07
9.54094e-07
9.88594e-07
1.05026e-06
1.11512e-06
1.18423e-06
1.25481e-06
1.32588e-06
1.39626e-06
1.46586e-06
1.5314e-06
1.59568e-06
1.6553e-06
1.71265e-06
1.76623e-06
1.81612e-06
1.86366e-06
1.90686e-06
1.94728e-06
1.98514e-06
2.0186e-06
2.0512e-06
2.07899e-06
2.10697e-06
2.12874e-06
2.15241e-06
2.16997e-06
2.18865e-06
2.20171e-06
2.21699e-06
2.22509e-06
2.23627e-06
2.23948e-06
2.24493e-06
2.24281e-06
2.00614e-05
1.98539e-05
1.97345e-05
1.9472e-05
1.92567e-05
1.90488e-05
1.87386e-05
1.8195e-05
1.71053e-05
1.52457e-05
1.25872e-05
9.25852e-06
5.99355e-06
3.49256e-06
1.88816e-06
1.16988e-06
9.65328e-07
8.91575e-07
8.36718e-07
7.97038e-07
7.98993e-07
8.12833e-07
8.43178e-07
8.82075e-07
9.22759e-07
9.65212e-07
1.01052e-06
1.05531e-06
1.10152e-06
1.14722e-06
1.19173e-06
1.23575e-06
1.27788e-06
1.31812e-06
1.35814e-06
1.39447e-06
1.43099e-06
1.46416e-06
1.49761e-06
1.52603e-06
1.55662e-06
1.58176e-06
1.60806e-06
1.62922e-06
1.65275e-06
1.66975e-06
1.68849e-06
1.70103e-06
1.71511e-06
1.72303e-06
2.00475e-05
1.98303e-05
1.97079e-05
1.94499e-05
1.92736e-05
1.91167e-05
1.89675e-05
1.87528e-05
1.84659e-05
1.79176e-05
1.7086e-05
1.57138e-05
1.38999e-05
1.15537e-05
8.87524e-06
6.26296e-06
4.08641e-06
2.50884e-06
1.5072e-06
1.03115e-06
8.63155e-07
7.9954e-07
7.51283e-07
7.11451e-07
6.82187e-07
6.80346e-07
6.86442e-07
7.01163e-07
7.23322e-07
7.477e-07
7.72607e-07
7.9939e-07
8.27343e-07
8.55398e-07
8.85412e-07
9.14071e-07
9.43681e-07
9.72275e-07
1.00128e-06
1.02724e-06
1.05538e-06
1.08019e-06
1.10541e-06
1.12787e-06
1.15186e-06
1.17164e-06
1.19139e-06
1.20839e-06
1.22389e-06
1.2387e-06
2.00362e-05
1.98125e-05
1.96855e-05
1.94198e-05
1.92596e-05
1.91105e-05
1.90023e-05
1.88517e-05
1.87144e-05
1.85037e-05
1.82512e-05
1.78381e-05
1.72387e-05
1.63715e-05
1.51733e-05
1.36396e-05
1.18312e-05
9.74435e-06
7.59622e-06
5.59203e-06
3.90906e-06
2.62801e-06
1.71195e-06
1.15223e-06
8.77556e-07
7.63941e-07
7.11462e-07
6.74251e-07
6.38631e-07
6.09785e-07
5.89852e-07
5.83955e-07
5.86263e-07
5.92464e-07
6.04416e-07
6.17765e-07
6.32147e-07
6.47587e-07
6.63621e-07
6.79339e-07
6.9729e-07
7.14684e-07
7.32169e-07
7.49552e-07
7.67903e-07
7.84299e-07
8.00033e-07
8.15375e-07
8.28258e-07
8.42747e-07
2.00271e-05
1.97986e-05
1.96663e-05
1.93981e-05
1.92337e-05
1.90835e-05
1.89841e-05
1.88556e-05
1.87383e-05
1.85992e-05
1.84621e-05
1.82927e-05
1.8084e-05
1.77987e-05
1.74135e-05
1.68712e-05
1.61635e-05
1.52423e-05
1.40988e-05
1.27546e-05
1.12482e-05
9.58082e-06
7.86474e-06
6.22229e-06
4.73459e-06
3.49691e-06
2.51797e-06
1.77188e-06
1.24906e-06
9.31366e-07
7.63053e-07
6.81353e-07
6.3776e-07
6.07231e-07
5.79788e-07
5.53726e-07
5.31059e-07
5.15752e-07
5.05864e-07
5.03758e-07
5.05169e-07
5.09048e-07
5.1455e-07
5.22097e-07
5.29933e-07
5.37895e-07
5.44799e-07
5.53113e-07
5.59389e-07
5.67511e-07
2.002e-05
1.97902e-05
1.96458e-05
1.93821e-05
1.92097e-05
1.90549e-05
1.8946e-05
1.88296e-05
1.87168e-05
1.85926e-05
1.8474e-05
1.83482e-05
1.82234e-05
1.808e-05
1.79241e-05
1.77245e-05
1.74814e-05
1.71612e-05
1.67569e-05
1.62328e-05
1.55953e-05
1.48111e-05
1.38923e-05
1.2829e-05
1.1671e-05
1.04108e-05
9.0712e-06
7.71777e-06
6.40286e-06
5.19062e-06
4.09943e-06
3.18798e-06
2.44037e-06
1.83867e-06
1.37554e-06
1.04407e-06
8.28759e-07
7.00425e-07
6.27708e-07
5.856e-07
5.57574e-07
5.35179e-07
5.14804e-07
4.95927e-07
4.77536e-07
4.63035e-07
4.49681e-07
4.4258e-07
4.35393e-07
4.34164e-07
2.00144e-05
1.97902e-05
1.96193e-05
1.9369e-05
1.91892e-05
1.90285e-05
1.89102e-05
1.87939e-05
1.86771e-05
1.85569e-05
1.84438e-05
1.83264e-05
1.82144e-05
1.80944e-05
1.79821e-05
1.78584e-05
1.77354e-05
1.75905e-05
1.74321e-05
1.72369e-05
1.70059e-05
1.67191e-05
1.63768e-05
1.59547e-05
1.54571e-05
1.4873e-05
1.42035e-05
1.34358e-05
1.25951e-05
1.16715e-05
1.07121e-05
9.69075e-06
8.63433e-06
7.57724e-06
6.5483e-06
5.5717e-06
4.6757e-06
3.8636e-06
3.16474e-06
2.5726e-06
2.07373e-06
1.66171e-06
1.32928e-06
1.07412e-06
8.85996e-07
7.56176e-07
6.67766e-07
6.14275e-07
5.77311e-07
5.64936e-07
2.00102e-05
1.97942e-05
1.95926e-05
1.93555e-05
1.91705e-05
1.90034e-05
1.88769e-05
1.87585e-05
1.86376e-05
1.85144e-05
1.83985e-05
1.82806e-05
1.81699e-05
1.80561e-05
1.79502e-05
1.7839e-05
1.77332e-05
1.76221e-05
1.75145e-05
1.74035e-05
1.72836e-05
1.71552e-05
1.70136e-05
1.68495e-05
1.6658e-05
1.64376e-05
1.61815e-05
1.58798e-05
1.55304e-05
1.51324e-05
1.46762e-05
1.41747e-05
1.3607e-05
1.29954e-05
1.2324e-05
1.16212e-05
1.08731e-05
1.01122e-05
9.32523e-06
8.52294e-06
7.72077e-06
6.94127e-06
6.1882e-06
5.48821e-06
4.83569e-06
4.2587e-06
3.73933e-06
3.31586e-06
2.9569e-06
2.71043e-06
2.0007e-05
1.98016e-05
1.95679e-05
1.93425e-05
1.91529e-05
1.89801e-05
1.8845e-05
1.8725e-05
1.8599e-05
1.84732e-05
1.83524e-05
1.82329e-05
1.81177e-05
1.80021e-05
1.7894e-05
1.7783e-05
1.76803e-05
1.75758e-05
1.74736e-05
1.73783e-05
1.7273e-05
1.71768e-05
1.70771e-05
1.69791e-05
1.68698e-05
1.67651e-05
1.6648e-05
1.65224e-05
1.6376e-05
1.62241e-05
1.6039e-05
1.58462e-05
1.56133e-05
1.5367e-05
1.50766e-05
1.47679e-05
1.44175e-05
1.40352e-05
1.36297e-05
1.31887e-05
1.27146e-05
1.22221e-05
1.16945e-05
1.11739e-05
1.06211e-05
1.009e-05
9.54245e-06
9.04314e-06
8.55929e-06
8.12872e-06
2.00047e-05
1.98101e-05
1.95448e-05
1.93299e-05
1.91357e-05
1.89586e-05
1.88142e-05
1.86931e-05
1.85618e-05
1.84337e-05
1.8308e-05
1.81863e-05
1.80662e-05
1.79485e-05
1.78365e-05
1.77233e-05
1.76162e-05
1.75095e-05
1.74039e-05
1.73105e-05
1.72039e-05
1.7115e-05
1.70204e-05
1.69334e-05
1.68359e-05
1.6752e-05
1.66627e-05
1.6576e-05
1.64812e-05
1.63987e-05
1.62981e-05
1.62088e-05
1.60995e-05
1.5997e-05
1.58704e-05
1.5749e-05
1.56045e-05
1.54444e-05
1.5284e-05
1.50992e-05
1.48982e-05
1.46833e-05
1.44377e-05
1.42107e-05
1.39273e-05
1.3661e-05
1.33664e-05
1.30668e-05
1.27882e-05
1.24923e-05
2.0003e-05
1.9819e-05
1.95233e-05
1.93168e-05
1.91185e-05
1.89386e-05
1.87847e-05
1.86623e-05
1.85264e-05
1.83959e-05
1.82659e-05
1.81418e-05
1.80168e-05
1.78969e-05
1.77808e-05
1.76649e-05
1.75543e-05
1.74445e-05
1.73351e-05
1.72402e-05
1.71274e-05
1.70365e-05
1.69383e-05
1.68497e-05
1.67499e-05
1.66679e-05
1.65849e-05
1.6503e-05
1.64158e-05
1.63446e-05
1.62595e-05
1.61883e-05
1.61062e-05
1.60351e-05
1.59515e-05
1.58832e-05
1.58018e-05
1.57159e-05
1.5642e-05
1.55566e-05
1.54675e-05
1.53696e-05
1.5261e-05
1.51778e-05
1.50472e-05
1.49344e-05
1.48122e-05
1.46643e-05
1.4548e-05
1.44044e-05
2.00017e-05
1.98275e-05
1.95035e-05
1.93028e-05
1.91011e-05
1.892e-05
1.87569e-05
1.86327e-05
1.8493e-05
1.836e-05
1.82266e-05
1.80997e-05
1.79705e-05
1.78483e-05
1.77284e-05
1.76098e-05
1.74957e-05
1.73827e-05
1.72704e-05
1.71727e-05
1.70558e-05
1.69623e-05
1.68609e-05
1.67684e-05
1.66653e-05
1.65782e-05
1.6493e-05
1.64062e-05
1.63163e-05
1.62427e-05
1.61579e-05
1.60857e-05
1.60112e-05
1.59432e-05
1.58674e-05
1.58068e-05
1.57367e-05
1.5666e-05
1.56065e-05
1.5546e-05
1.54796e-05
1.54105e-05
1.53441e-05
1.52974e-05
1.52227e-05
1.51586e-05
1.50965e-05
1.50171e-05
1.49553e-05
1.48897e-05
2.00009e-05
1.98305e-05
1.94872e-05
1.92883e-05
1.90836e-05
1.8903e-05
1.87314e-05
1.86046e-05
1.8462e-05
1.83266e-05
1.81905e-05
1.80607e-05
1.79279e-05
1.78036e-05
1.76799e-05
1.75592e-05
1.74411e-05
1.73256e-05
1.72108e-05
1.71094e-05
1.69898e-05
1.68936e-05
1.67894e-05
1.66933e-05
1.65875e-05
1.64968e-05
1.6409e-05
1.63188e-05
1.62246e-05
1.61477e-05
1.606e-05
1.5982e-05
1.59056e-05
1.5832e-05
1.57536e-05
1.56897e-05
1.56181e-05
1.5548e-05
1.5486e-05
1.54318e-05
1.53676e-05
1.53038e-05
1.52461e-05
1.5202e-05
1.51399e-05
1.50847e-05
1.50324e-05
1.49703e-05
1.4918e-05
1.48678e-05
2.00003e-05
1.98288e-05
1.94737e-05
1.92731e-05
1.90662e-05
1.88877e-05
1.87084e-05
1.85784e-05
1.84336e-05
1.82963e-05
1.81581e-05
1.80253e-05
1.78896e-05
1.77633e-05
1.76362e-05
1.75139e-05
1.73916e-05
1.72747e-05
1.71571e-05
1.7052e-05
1.69303e-05
1.68317e-05
1.67246e-05
1.66253e-05
1.6517e-05
1.6424e-05
1.63328e-05
1.62408e-05
1.61429e-05
1.60634e-05
1.59728e-05
1.58912e-05
1.58131e-05
1.57356e-05
1.56532e-05
1.5586e-05
1.55113e-05
1.54391e-05
1.53714e-05
1.53145e-05
1.52447e-05
1.5179e-05
1.51194e-05
1.50701e-05
1.50068e-05
1.49512e-05
1.48962e-05
1.48354e-05
1.47811e-05
1.47304e-05
2e-05
1.9827e-05
1.94621e-05
1.92564e-05
1.90483e-05
1.88739e-05
1.8688e-05
1.85544e-05
1.84077e-05
1.82694e-05
1.81294e-05
1.7994e-05
1.78562e-05
1.77281e-05
1.75978e-05
1.74745e-05
1.73481e-05
1.72305e-05
1.71101e-05
1.70018e-05
1.68783e-05
1.67776e-05
1.66675e-05
1.65654e-05
1.64548e-05
1.63605e-05
1.62649e-05
1.61722e-05
1.60711e-05
1.59894e-05
1.58961e-05
1.58125e-05
1.57324e-05
1.56524e-05
1.55666e-05
1.54978e-05
1.54202e-05
1.53463e-05
1.52753e-05
1.52154e-05
1.51417e-05
1.50751e-05
1.50123e-05
1.49585e-05
1.48909e-05
1.4834e-05
1.47747e-05
1.47118e-05
1.46502e-05
1.45939e-05
1.99999e-05
1.98258e-05
1.94536e-05
1.92391e-05
1.90304e-05
1.88618e-05
1.86708e-05
1.85332e-05
1.83848e-05
1.82467e-05
1.8105e-05
1.79673e-05
1.78283e-05
1.76985e-05
1.75658e-05
1.74417e-05
1.73118e-05
1.7194e-05
1.70707e-05
1.69597e-05
1.68348e-05
1.67326e-05
1.66193e-05
1.65151e-05
1.64021e-05
1.63073e-05
1.6207e-05
1.6114e-05
1.60101e-05
1.59265e-05
1.58307e-05
1.57458e-05
1.56637e-05
1.55815e-05
1.54932e-05
1.54237e-05
1.53435e-05
1.52682e-05
1.51954e-05
1.51327e-05
1.5056e-05
1.499e-05
1.49246e-05
1.48671e-05
1.47967e-05
1.4738e-05
1.46758e-05
1.46119e-05
1.45429e-05
1.44778e-05
1.99999e-05
1.9825e-05
1.94482e-05
1.92223e-05
1.90134e-05
1.88518e-05
1.86572e-05
1.85158e-05
1.83657e-05
1.82286e-05
1.80855e-05
1.79461e-05
1.78065e-05
1.76756e-05
1.75409e-05
1.74161e-05
1.7284e-05
1.71657e-05
1.70402e-05
1.6927e-05
1.68008e-05
1.66977e-05
1.6581e-05
1.64753e-05
1.63604e-05
1.62653e-05
1.61604e-05
1.60672e-05
1.59612e-05
1.58759e-05
1.57779e-05
1.56921e-05
1.56079e-05
1.55235e-05
1.54338e-05
1.53637e-05
1.5281e-05
1.52046e-05
1.51309e-05
1.50655e-05
1.49867e-05
1.49214e-05
1.48541e-05
1.47933e-05
1.47212e-05
1.46612e-05
1.45965e-05
1.45322e-05
1.44559e-05
1.43837e-05
1.99999e-05
1.98247e-05
1.94455e-05
1.92068e-05
1.89977e-05
1.88439e-05
1.86479e-05
1.85025e-05
1.83509e-05
1.82157e-05
1.80714e-05
1.79311e-05
1.77913e-05
1.766e-05
1.75237e-05
1.73986e-05
1.72653e-05
1.71465e-05
1.70192e-05
1.69044e-05
1.67775e-05
1.66735e-05
1.65539e-05
1.64473e-05
1.63308e-05
1.62355e-05
1.61266e-05
1.60331e-05
1.59254e-05
1.58388e-05
1.57389e-05
1.56524e-05
1.5566e-05
1.548e-05
1.53898e-05
1.53187e-05
1.52337e-05
1.51566e-05
1.50824e-05
1.50143e-05
1.49342e-05
1.48695e-05
1.48004e-05
1.4737e-05
1.46632e-05
1.46034e-05
1.4535e-05
1.44701e-05
1.43882e-05
1.43105e-05
1.99999e-05
1.98247e-05
1.94456e-05
1.91934e-05
1.89841e-05
1.88378e-05
1.86429e-05
1.84936e-05
1.83409e-05
1.8208e-05
1.80631e-05
1.79226e-05
1.77831e-05
1.76521e-05
1.75147e-05
1.73899e-05
1.72565e-05
1.71369e-05
1.70084e-05
1.68928e-05
1.67655e-05
1.66609e-05
1.65388e-05
1.6432e-05
1.63142e-05
1.62186e-05
1.61065e-05
1.60126e-05
1.5904e-05
1.58164e-05
1.57149e-05
1.56279e-05
1.55393e-05
1.54522e-05
1.53621e-05
1.52895e-05
1.52028e-05
1.51256e-05
1.50507e-05
1.49804e-05
1.48994e-05
1.48352e-05
1.47642e-05
1.46988e-05
1.46238e-05
1.45642e-05
1.44919e-05
1.44257e-05
1.43398e-05
1.42576e-05
1.99999e-05
1.98252e-05
1.94481e-05
1.91824e-05
1.89727e-05
1.88332e-05
1.86421e-05
1.84894e-05
1.83359e-05
1.82055e-05
1.80607e-05
1.79211e-05
1.77823e-05
1.76523e-05
1.75143e-05
1.73906e-05
1.72577e-05
1.71376e-05
1.70087e-05
1.68929e-05
1.67657e-05
1.66607e-05
1.65367e-05
1.64302e-05
1.63116e-05
1.62157e-05
1.61012e-05
1.60067e-05
1.5898e-05
1.58094e-05
1.57067e-05
1.56195e-05
1.55286e-05
1.54415e-05
1.53515e-05
1.52773e-05
1.51894e-05
1.51127e-05
1.50367e-05
1.49647e-05
1.48832e-05
1.48194e-05
1.47466e-05
1.46796e-05
1.4604e-05
1.4544e-05
1.4468e-05
1.44002e-05
1.43109e-05
1.42254e-05
1.99999e-05
1.98262e-05
1.94529e-05
1.91748e-05
1.89638e-05
1.88303e-05
1.8645e-05
1.84899e-05
1.83359e-05
1.82078e-05
1.8064e-05
1.79259e-05
1.7788e-05
1.76592e-05
1.75213e-05
1.73991e-05
1.7267e-05
1.71466e-05
1.70179e-05
1.69025e-05
1.67755e-05
1.66704e-05
1.65454e-05
1.64396e-05
1.63205e-05
1.62246e-05
1.61086e-05
1.60138e-05
1.59056e-05
1.58162e-05
1.57129e-05
1.56258e-05
1.55334e-05
1.54468e-05
1.53568e-05
1.52813e-05
1.51931e-05
1.51172e-05
1.50399e-05
1.4967e-05
1.48854e-05
1.48218e-05
1.47477e-05
1.46796e-05
1.46038e-05
1.45429e-05
1.44637e-05
1.43942e-05
1.4302e-05
1.42145e-05
1.99999e-05
1.98276e-05
1.94598e-05
1.91704e-05
1.8958e-05
1.88285e-05
1.86517e-05
1.84948e-05
1.83405e-05
1.82145e-05
1.80724e-05
1.79368e-05
1.78007e-05
1.76738e-05
1.75364e-05
1.74171e-05
1.72861e-05
1.71658e-05
1.70383e-05
1.69239e-05
1.67974e-05
1.66927e-05
1.6567e-05
1.64624e-05
1.63431e-05
1.62474e-05
1.61299e-05
1.60351e-05
1.59281e-05
1.58376e-05
1.57339e-05
1.56471e-05
1.55531e-05
1.54678e-05
1.53774e-05
1.53007e-05
1.52127e-05
1.51378e-05
1.50591e-05
1.49852e-05
1.49044e-05
1.48404e-05
1.47653e-05
1.46963e-05
1.46202e-05
1.45582e-05
1.44765e-05
1.44055e-05
1.43109e-05
1.42221e-05
1.99999e-05
1.98295e-05
1.94683e-05
1.91697e-05
1.89552e-05
1.88282e-05
1.86609e-05
1.85043e-05
1.83502e-05
1.82259e-05
1.80863e-05
1.7954e-05
1.78198e-05
1.76951e-05
1.7559e-05
1.7443e-05
1.73133e-05
1.71937e-05
1.70683e-05
1.69553e-05
1.68296e-05
1.67258e-05
1.66003e-05
1.64973e-05
1.63783e-05
1.62833e-05
1.61649e-05
1.60709e-05
1.59651e-05
1.58741e-05
1.57705e-05
1.56845e-05
1.55898e-05
1.5506e-05
1.54151e-05
1.53383e-05
1.52514e-05
1.51771e-05
1.50972e-05
1.5023e-05
1.49436e-05
1.48792e-05
1.48033e-05
1.47338e-05
1.46577e-05
1.45943e-05
1.45103e-05
1.4438e-05
1.43412e-05
1.42517e-05
1.99999e-05
1.98319e-05
1.94783e-05
1.91724e-05
1.89552e-05
1.88291e-05
1.86721e-05
1.85175e-05
1.83639e-05
1.82409e-05
1.81046e-05
1.79761e-05
1.78442e-05
1.77221e-05
1.7588e-05
1.74758e-05
1.73474e-05
1.72292e-05
1.71067e-05
1.6995e-05
1.68707e-05
1.67683e-05
1.66437e-05
1.65424e-05
1.6424e-05
1.63303e-05
1.62111e-05
1.6119e-05
1.60141e-05
1.5923e-05
1.58198e-05
1.57352e-05
1.56403e-05
1.5558e-05
1.54667e-05
1.53906e-05
1.53053e-05
1.5231e-05
1.51503e-05
1.50769e-05
1.49988e-05
1.49342e-05
1.48573e-05
1.47883e-05
1.47122e-05
1.46473e-05
1.45621e-05
1.44892e-05
1.43904e-05
1.43007e-05
1.99999e-05
1.98347e-05
1.9489e-05
1.91788e-05
1.89584e-05
1.88318e-05
1.8685e-05
1.85342e-05
1.83812e-05
1.82594e-05
1.81268e-05
1.80026e-05
1.78731e-05
1.77539e-05
1.76225e-05
1.75141e-05
1.73874e-05
1.72713e-05
1.71522e-05
1.70419e-05
1.69195e-05
1.68188e-05
1.66956e-05
1.65963e-05
1.64788e-05
1.63868e-05
1.62671e-05
1.61777e-05
1.60732e-05
1.59829e-05
1.58802e-05
1.57977e-05
1.57027e-05
1.5622e-05
1.55307e-05
1.5456e-05
1.53724e-05
1.5298e-05
1.52166e-05
1.5145e-05
1.50684e-05
1.50032e-05
1.49259e-05
1.48576e-05
1.47815e-05
1.47153e-05
1.46295e-05
1.45563e-05
1.44564e-05
1.43658e-05
1.99999e-05
1.98378e-05
1.95002e-05
1.91883e-05
1.89646e-05
1.88365e-05
1.8699e-05
1.8554e-05
1.84016e-05
1.82814e-05
1.8152e-05
1.80329e-05
1.79057e-05
1.77899e-05
1.76616e-05
1.75569e-05
1.74322e-05
1.73189e-05
1.72033e-05
1.70947e-05
1.69746e-05
1.6876e-05
1.67548e-05
1.66574e-05
1.65412e-05
1.64512e-05
1.63314e-05
1.62453e-05
1.61407e-05
1.6052e-05
1.59499e-05
1.587e-05
1.57749e-05
1.56963e-05
1.56053e-05
1.55322e-05
1.54505e-05
1.53759e-05
1.52944e-05
1.52253e-05
1.51501e-05
1.5084e-05
1.50069e-05
1.49395e-05
1.48633e-05
1.47964e-05
1.47106e-05
1.4637e-05
1.45375e-05
1.44446e-05
1.99999e-05
1.98412e-05
1.95118e-05
1.92005e-05
1.89736e-05
1.88431e-05
1.87136e-05
1.8576e-05
1.84244e-05
1.83066e-05
1.81795e-05
1.80663e-05
1.7941e-05
1.78291e-05
1.77044e-05
1.76028e-05
1.74809e-05
1.7371e-05
1.72585e-05
1.71523e-05
1.70349e-05
1.69382e-05
1.68197e-05
1.67243e-05
1.66093e-05
1.65219e-05
1.64025e-05
1.63197e-05
1.62148e-05
1.61287e-05
1.60271e-05
1.59499e-05
1.58551e-05
1.57787e-05
1.56883e-05
1.56172e-05
1.55373e-05
1.54625e-05
1.53815e-05
1.53153e-05
1.52411e-05
1.51743e-05
1.5098e-05
1.50317e-05
1.49551e-05
1.48882e-05
1.48032e-05
1.47294e-05
1.46305e-05
1.45363e-05
1.99999e-05
1.98447e-05
1.95234e-05
1.92146e-05
1.89851e-05
1.8852e-05
1.87285e-05
1.85996e-05
1.84491e-05
1.83346e-05
1.82086e-05
1.81021e-05
1.79783e-05
1.78707e-05
1.77502e-05
1.7651e-05
1.75326e-05
1.74264e-05
1.73165e-05
1.72135e-05
1.70989e-05
1.70041e-05
1.68888e-05
1.67954e-05
1.66816e-05
1.65971e-05
1.64788e-05
1.63989e-05
1.62938e-05
1.62109e-05
1.61102e-05
1.60351e-05
1.59414e-05
1.5867e-05
1.57778e-05
1.57087e-05
1.563e-05
1.5556e-05
1.54758e-05
1.54124e-05
1.53391e-05
1.52719e-05
1.51969e-05
1.51316e-05
1.50549e-05
1.49881e-05
1.49049e-05
1.48309e-05
1.47322e-05
1.46395e-05
1.99999e-05
1.98483e-05
1.95349e-05
1.92304e-05
1.8999e-05
1.88629e-05
1.87439e-05
1.8624e-05
1.84756e-05
1.83649e-05
1.82391e-05
1.81395e-05
1.8017e-05
1.7914e-05
1.77979e-05
1.77005e-05
1.75863e-05
1.74841e-05
1.73764e-05
1.72773e-05
1.71655e-05
1.70724e-05
1.69606e-05
1.68695e-05
1.67569e-05
1.66754e-05
1.65588e-05
1.64813e-05
1.63763e-05
1.62969e-05
1.61973e-05
1.61237e-05
1.6032e-05
1.59594e-05
1.58717e-05
1.58046e-05
1.57267e-05
1.56542e-05
1.55755e-05
1.55142e-05
1.54417e-05
1.53746e-05
1.53011e-05
1.52367e-05
1.51604e-05
1.50942e-05
1.5013e-05
1.49392e-05
1.4841e-05
1.47508e-05
1.99999e-05
1.98519e-05
1.95462e-05
1.92474e-05
1.9015e-05
1.88758e-05
1.87597e-05
1.86486e-05
1.85035e-05
1.83965e-05
1.82709e-05
1.81775e-05
1.80568e-05
1.79583e-05
1.78466e-05
1.7751e-05
1.76411e-05
1.75431e-05
1.74373e-05
1.73424e-05
1.72335e-05
1.71422e-05
1.7034e-05
1.69453e-05
1.6834e-05
1.67554e-05
1.66409e-05
1.65656e-05
1.64608e-05
1.63852e-05
1.62866e-05
1.62145e-05
1.61248e-05
1.60543e-05
1.5968e-05
1.59031e-05
1.58256e-05
1.57553e-05
1.56783e-05
1.56185e-05
1.55469e-05
1.54805e-05
1.54084e-05
1.53451e-05
1.52696e-05
1.52043e-05
1.51248e-05
1.50519e-05
1.49553e-05
1.48679e-05
1.99999e-05
1.98556e-05
1.95573e-05
1.92649e-05
1.90326e-05
1.88903e-05
1.8776e-05
1.86728e-05
1.85325e-05
1.84288e-05
1.83037e-05
1.82156e-05
1.80973e-05
1.80029e-05
1.78956e-05
1.78018e-05
1.76962e-05
1.76027e-05
1.74987e-05
1.74082e-05
1.73022e-05
1.72124e-05
1.7108e-05
1.70217e-05
1.6912e-05
1.68359e-05
1.6724e-05
1.66505e-05
1.65462e-05
1.64744e-05
1.63766e-05
1.63063e-05
1.62182e-05
1.61504e-05
1.60648e-05
1.60024e-05
1.59252e-05
1.58576e-05
1.57824e-05
1.57231e-05
1.56529e-05
1.55881e-05
1.55169e-05
1.54544e-05
1.53805e-05
1.53165e-05
1.52387e-05
1.51668e-05
1.50731e-05
1.49895e-05
1.99999e-05
1.98591e-05
1.9568e-05
1.92827e-05
1.90514e-05
1.89063e-05
1.87929e-05
1.86964e-05
1.8562e-05
1.84613e-05
1.83373e-05
1.82533e-05
1.8138e-05
1.80474e-05
1.79443e-05
1.78526e-05
1.77512e-05
1.7662e-05
1.75599e-05
1.74736e-05
1.73705e-05
1.72823e-05
1.71818e-05
1.70977e-05
1.69901e-05
1.69158e-05
1.68072e-05
1.67348e-05
1.66314e-05
1.65633e-05
1.64661e-05
1.63976e-05
1.63109e-05
1.62462e-05
1.61612e-05
1.61006e-05
1.60244e-05
1.59596e-05
1.58861e-05
1.58268e-05
1.5758e-05
1.56958e-05
1.56251e-05
1.5563e-05
1.54914e-05
1.5429e-05
1.53528e-05
1.52824e-05
1.51926e-05
1.51137e-05
1.99999e-05
1.98626e-05
1.95783e-05
1.93004e-05
1.90709e-05
1.89234e-05
1.88104e-05
1.87193e-05
1.85916e-05
1.84937e-05
1.83714e-05
1.82907e-05
1.81782e-05
1.80917e-05
1.7992e-05
1.79031e-05
1.78057e-05
1.77202e-05
1.7621e-05
1.75379e-05
1.74381e-05
1.73516e-05
1.72547e-05
1.71727e-05
1.70677e-05
1.69947e-05
1.68892e-05
1.68182e-05
1.67157e-05
1.66507e-05
1.65543e-05
1.64878e-05
1.64019e-05
1.63402e-05
1.62566e-05
1.61969e-05
1.61218e-05
1.606e-05
1.5988e-05
1.59286e-05
1.58609e-05
1.58017e-05
1.57319e-05
1.56699e-05
1.56008e-05
1.55403e-05
1.54656e-05
1.53975e-05
1.53123e-05
1.52389e-05
1.99999e-05
1.98659e-05
1.95881e-05
1.93177e-05
1.90907e-05
1.89414e-05
1.88285e-05
1.87415e-05
1.86207e-05
1.85259e-05
1.84053e-05
1.83279e-05
1.82173e-05
1.81358e-05
1.80382e-05
1.79534e-05
1.78593e-05
1.77771e-05
1.76816e-05
1.76007e-05
1.75045e-05
1.74198e-05
1.73261e-05
1.72462e-05
1.71443e-05
1.7072e-05
1.69694e-05
1.69003e-05
1.67983e-05
1.6736e-05
1.66404e-05
1.65762e-05
1.64905e-05
1.64316e-05
1.63497e-05
1.62908e-05
1.62161e-05
1.61578e-05
1.60869e-05
1.6028e-05
1.5961e-05
1.59045e-05
1.58361e-05
1.57744e-05
1.57075e-05
1.5649e-05
1.55763e-05
1.55107e-05
1.54311e-05
1.53635e-05
1.99999e-05
1.9869e-05
1.95974e-05
1.93344e-05
1.91105e-05
1.896e-05
1.88469e-05
1.87631e-05
1.8649e-05
1.85574e-05
1.84392e-05
1.83644e-05
1.82555e-05
1.81793e-05
1.80831e-05
1.80028e-05
1.79116e-05
1.78327e-05
1.7741e-05
1.7662e-05
1.75694e-05
1.74868e-05
1.7396e-05
1.7318e-05
1.72193e-05
1.71477e-05
1.70474e-05
1.69804e-05
1.6879e-05
1.68188e-05
1.67239e-05
1.66622e-05
1.65765e-05
1.652e-05
1.64396e-05
1.63819e-05
1.63074e-05
1.6252e-05
1.61822e-05
1.6124e-05
1.6058e-05
1.60032e-05
1.59364e-05
1.58757e-05
1.5811e-05
1.57544e-05
1.56839e-05
1.56215e-05
1.55477e-05
1.54861e-05
1.99999e-05
1.9872e-05
1.96061e-05
1.93504e-05
1.91299e-05
1.8979e-05
1.88658e-05
1.87841e-05
1.86764e-05
1.85882e-05
1.84728e-05
1.84e-05
1.82931e-05
1.82213e-05
1.8127e-05
1.80511e-05
1.79627e-05
1.78873e-05
1.77984e-05
1.77224e-05
1.76324e-05
1.75522e-05
1.74646e-05
1.73879e-05
1.72923e-05
1.72219e-05
1.71233e-05
1.70578e-05
1.6958e-05
1.68986e-05
1.68048e-05
1.67448e-05
1.66598e-05
1.66052e-05
1.65256e-05
1.64697e-05
1.63954e-05
1.6342e-05
1.62733e-05
1.62164e-05
1.61516e-05
1.60975e-05
1.60322e-05
1.59735e-05
1.59107e-05
1.58557e-05
1.57879e-05
1.5729e-05
1.56612e-05
1.56055e-05
1.99999e-05
1.98749e-05
1.96143e-05
1.93655e-05
1.91486e-05
1.89981e-05
1.88847e-05
1.88046e-05
1.87028e-05
1.86179e-05
1.8506e-05
1.84346e-05
1.83301e-05
1.82621e-05
1.81698e-05
1.80985e-05
1.8012e-05
1.7941e-05
1.78539e-05
1.77815e-05
1.76936e-05
1.7616e-05
1.75314e-05
1.74562e-05
1.73632e-05
1.72939e-05
1.71974e-05
1.71324e-05
1.70346e-05
1.69758e-05
1.68827e-05
1.68242e-05
1.67402e-05
1.66872e-05
1.66077e-05
1.65536e-05
1.648e-05
1.6428e-05
1.63598e-05
1.63049e-05
1.6241e-05
1.61875e-05
1.61232e-05
1.60672e-05
1.60061e-05
1.59526e-05
1.58878e-05
1.58327e-05
1.57709e-05
1.57206e-05
1.99999e-05
1.98775e-05
1.96219e-05
1.93796e-05
1.91663e-05
1.9017e-05
1.89036e-05
1.88246e-05
1.87281e-05
1.86467e-05
1.85386e-05
1.84683e-05
1.83662e-05
1.83015e-05
1.82114e-05
1.81445e-05
1.806e-05
1.79932e-05