/*--------------------------------*- C++ -*----------------------------------*\
  =========                 |
  \\      /  F ield         | OpenFOAM: The Open Source CFD Toolbox
   \\    /   O peration     | Website:  https://openfoam.org
    \\  /    A nd           | Version:  7
     \\/     M anipulation  |
\*---------------------------------------------------------------------------*/
FoamFile
{
    version     2.0;
    format      ascii;
    class       volScalarField;
    location    "0.4";
    object      k_0;
}
// * * * * * * * * * * * * * * * * * * * * * * * * * * * * * * * * * * * * * //

dimensions      [0 2 -2 0 0 0 0];

internalField   nonuniform List<scalar> 
70000
(
1.08549e-05
4.21882e-06
2.82446e-06
2.31698e-06
1.9977e-06
1.75742e-06
1.56542e-06
1.40858e-06
1.27773e-06
1.16706e-06
1.07204e-06
9.90072e-07
9.18423e-07
8.55817e-07
8.00323e-07
7.51346e-07
7.07374e-07
6.68223e-07
6.32673e-07
6.00821e-07
5.71593e-07
5.45329e-07
5.20917e-07
4.99034e-07
4.78331e-07
4.59953e-07
4.42145e-07
4.26596e-07
4.111e-07
3.97837e-07
3.84258e-07
3.72826e-07
3.60885e-07
3.5093e-07
3.40372e-07
3.31688e-07
3.22191e-07
3.14763e-07
3.05934e-07
2.9982e-07
2.91401e-07
2.8649e-07
2.78364e-07
2.75485e-07
2.669e-07
2.67525e-07
2.58809e-07
2.75527e-07
2.61332e-07
3.98376e-07
1.72794e-05
1.13674e-05
8.5208e-06
7.01089e-06
6.03777e-06
5.31167e-06
4.73218e-06
4.25853e-06
3.86333e-06
3.52911e-06
3.24214e-06
2.9946e-06
2.7782e-06
2.58909e-06
2.42145e-06
2.27346e-06
2.1406e-06
2.02227e-06
1.91483e-06
1.81855e-06
1.73018e-06
1.65081e-06
1.57696e-06
1.51085e-06
1.44817e-06
1.39266e-06
1.33874e-06
1.29175e-06
1.24485e-06
1.20471e-06
1.16367e-06
1.12901e-06
1.09295e-06
1.06275e-06
1.03085e-06
1.00457e-06
9.75754e-07
9.53408e-07
9.26514e-07
9.08167e-07
8.82582e-07
8.67785e-07
8.43136e-07
8.33461e-07
8.08485e-07
8.06267e-07
7.83426e-07
8.15903e-07
7.88712e-07
9.06968e-07
1.93701e-05
1.61298e-05
1.32913e-05
1.12902e-05
9.82922e-06
8.69704e-06
7.77931e-06
7.0218e-06
6.38507e-06
5.84392e-06
5.37755e-06
4.9741e-06
4.62047e-06
4.31076e-06
4.03568e-06
3.79235e-06
3.57358e-06
3.3784e-06
3.20096e-06
3.04185e-06
2.8955e-06
2.76416e-06
2.64152e-06
2.53204e-06
2.42772e-06
2.33567e-06
2.24581e-06
2.1677e-06
2.08958e-06
2.02262e-06
1.95435e-06
1.89631e-06
1.83638e-06
1.78575e-06
1.73256e-06
1.68873e-06
1.6403e-06
1.60336e-06
1.55792e-06
1.52759e-06
1.48461e-06
1.4598e-06
1.41877e-06
1.40104e-06
1.36063e-06
1.35181e-06
1.31569e-06
1.34603e-06
1.31869e-06
1.36955e-06
1.9861e-05
1.826e-05
1.60857e-05
1.42006e-05
1.26406e-05
1.13495e-05
1.02616e-05
9.33974e-06
8.54806e-06
7.86517e-06
7.27006e-06
6.75075e-06
6.29206e-06
5.88779e-06
5.52668e-06
5.20551e-06
4.91542e-06
4.65558e-06
4.4184e-06
4.20528e-06
4.00832e-06
3.83166e-06
3.66558e-06
3.51777e-06
3.3758e-06
3.251e-06
3.12835e-06
3.02186e-06
2.91519e-06
2.82327e-06
2.73011e-06
2.65e-06
2.56809e-06
2.4982e-06
2.42494e-06
2.36489e-06
2.29743e-06
2.24722e-06
2.18375e-06
2.14216e-06
2.08272e-06
2.04797e-06
1.9919e-06
1.96514e-06
1.91067e-06
1.8935e-06
1.84386e-06
1.86042e-06
1.83968e-06
1.85063e-06
1.99707e-05
1.78458e-05
1.60747e-05
1.47664e-05
1.36024e-05
1.25378e-05
1.15694e-05
1.07023e-05
9.92112e-06
9.22608e-06
8.60562e-06
8.05346e-06
7.55732e-06
7.11388e-06
6.71262e-06
6.35159e-06
6.02215e-06
5.72469e-06
5.45082e-06
5.20372e-06
4.97311e-06
4.76624e-06
4.56945e-06
4.39482e-06
4.22509e-06
4.07623e-06
3.92878e-06
3.80039e-06
3.67181e-06
3.55985e-06
3.44731e-06
3.34907e-06
3.24948e-06
3.16387e-06
3.07362e-06
3.00067e-06
2.91653e-06
2.85559e-06
2.77661e-06
2.72511e-06
2.65206e-06
2.60779e-06
2.5399e-06
2.50338e-06
2.4385e-06
2.4126e-06
2.35107e-06
2.35e-06
2.32814e-06
2.31444e-06
2.00095e-05
1.47039e-05
1.37473e-05
1.32103e-05
1.25905e-05
1.19265e-05
1.12771e-05
1.06571e-05
1.00799e-05
9.54651e-06
9.04577e-06
8.58022e-06
8.14647e-06
7.74724e-06
7.37571e-06
7.03363e-06
6.71515e-06
6.42345e-06
6.15033e-06
5.902e-06
5.66602e-06
5.45386e-06
5.24813e-06
5.06577e-06
4.88554e-06
4.72722e-06
4.56897e-06
4.42998e-06
4.29105e-06
4.16806e-06
4.04552e-06
3.93674e-06
3.82677e-06
3.73216e-06
3.6306e-06
3.55035e-06
3.45472e-06
3.38686e-06
3.29778e-06
3.23856e-06
3.15732e-06
3.10443e-06
3.03059e-06
2.98372e-06
2.9152e-06
2.879e-06
2.81447e-06
2.79354e-06
2.7631e-06
2.72834e-06
2.01331e-05
1.54684e-05
9.63451e-06
9.39693e-06
9.49123e-06
9.49041e-06
9.43174e-06
9.29358e-06
9.05335e-06
8.78036e-06
8.48576e-06
8.18932e-06
7.89766e-06
7.61518e-06
7.33848e-06
7.0786e-06
6.8311e-06
6.59848e-06
6.37343e-06
6.16543e-06
5.96091e-06
5.77567e-06
5.59026e-06
5.42546e-06
5.2584e-06
5.11039e-06
4.96083e-06
4.82732e-06
4.69414e-06
4.57351e-06
4.45396e-06
4.34616e-06
4.23618e-06
4.1424e-06
4.03841e-06
3.95838e-06
3.85994e-06
3.79021e-06
3.69951e-06
3.63595e-06
3.55465e-06
3.49478e-06
3.42351e-06
3.36607e-06
3.30339e-06
3.25221e-06
3.19663e-06
3.15431e-06
3.12339e-06
3.06925e-06
2.01713e-05
1.86765e-05
8.6951e-06
5.53987e-06
5.62953e-06
5.93262e-06
6.29033e-06
6.57544e-06
6.75511e-06
6.86404e-06
6.88437e-06
6.86538e-06
6.81395e-06
6.72627e-06
6.61627e-06
6.49527e-06
6.35761e-06
6.21742e-06
6.07304e-06
5.93476e-06
5.79054e-06
5.65794e-06
5.51888e-06
5.39412e-06
5.2629e-06
5.14676e-06
5.02781e-06
4.91868e-06
4.80947e-06
4.70746e-06
4.60587e-06
4.51307e-06
4.41577e-06
4.33432e-06
4.23965e-06
4.16837e-06
4.07861e-06
4.0133e-06
3.93139e-06
3.86847e-06
3.79673e-06
3.73372e-06
3.6734e-06
3.60949e-06
3.5587e-06
3.49731e-06
3.45377e-06
3.39766e-06
3.368e-06
3.30518e-06
2.01671e-05
1.97241e-05
1.61694e-05
4.86469e-06
3.04235e-06
3.10495e-06
3.37285e-06
3.80238e-06
4.16789e-06
4.48567e-06
4.7333e-06
4.92326e-06
5.06429e-06
5.16522e-06
5.22438e-06
5.26124e-06
5.26566e-06
5.25764e-06
5.23512e-06
5.19985e-06
5.14902e-06
5.09762e-06
5.03393e-06
4.97272e-06
4.90232e-06
4.83452e-06
4.76031e-06
4.68842e-06
4.61492e-06
4.54354e-06
4.47071e-06
4.40365e-06
4.32984e-06
4.26945e-06
4.1951e-06
4.13969e-06
4.06907e-06
4.01465e-06
3.95148e-06
3.89619e-06
3.84232e-06
3.78389e-06
3.7394e-06
3.67885e-06
3.64131e-06
3.58094e-06
3.54903e-06
3.49025e-06
3.46378e-06
3.40252e-06
2.01476e-05
1.99343e-05
1.90663e-05
1.45026e-05
5.25027e-06
2.15566e-06
1.91439e-06
1.99312e-06
2.20574e-06
2.50406e-06
2.77974e-06
3.03294e-06
3.25782e-06
3.45513e-06
3.61886e-06
3.75839e-06
3.86962e-06
3.96018e-06
4.03002e-06
4.0856e-06
4.12255e-06
4.14913e-06
4.16334e-06
4.16725e-06
4.16408e-06
4.15642e-06
4.14116e-06
4.12143e-06
4.09771e-06
4.07108e-06
4.04008e-06
4.01079e-06
3.97328e-06
3.94319e-06
3.9015e-06
3.87032e-06
3.82889e-06
3.7942e-06
3.75561e-06
3.71523e-06
3.68163e-06
3.63673e-06
3.60763e-06
3.56067e-06
3.53444e-06
3.48694e-06
3.46282e-06
3.41457e-06
3.39264e-06
3.33928e-06
2.01216e-05
1.99661e-05
1.96427e-05
1.85478e-05
1.52181e-05
8.37243e-06
3.11388e-06
1.63432e-06
1.44259e-06
1.44922e-06
1.52575e-06
1.68625e-06
1.86822e-06
2.04556e-06
2.21514e-06
2.37571e-06
2.52195e-06
2.65523e-06
2.77228e-06
2.87817e-06
2.96897e-06
3.04905e-06
3.11691e-06
3.17501e-06
3.22296e-06
3.26328e-06
3.2963e-06
3.32198e-06
3.34205e-06
3.357e-06
3.36587e-06
3.37316e-06
3.37326e-06
3.37228e-06
3.36786e-06
3.36265e-06
3.35268e-06
3.34151e-06
3.33114e-06
3.31369e-06
3.30314e-06
3.28179e-06
3.2697e-06
3.24575e-06
3.23256e-06
3.20628e-06
3.19193e-06
3.1622e-06
3.14731e-06
3.10859e-06
2.00981e-05
1.99327e-05
1.97575e-05
1.93534e-05
1.85085e-05
1.65425e-05
1.23424e-05
6.8775e-06
2.99816e-06
1.49577e-06
1.24367e-06
1.14776e-06
1.15176e-06
1.19414e-06
1.28618e-06
1.39397e-06
1.50566e-06
1.61705e-06
1.72615e-06
1.83269e-06
1.93228e-06
2.02652e-06
2.11325e-06
2.19343e-06
2.26705e-06
2.33328e-06
2.39442e-06
2.44837e-06
2.49744e-06
2.54103e-06
2.57903e-06
2.61393e-06
2.64282e-06
2.66906e-06
2.6909e-06
2.70977e-06
2.72623e-06
2.73818e-06
2.75069e-06
2.75625e-06
2.76486e-06
2.7668e-06
2.77008e-06
2.76951e-06
2.76843e-06
2.76457e-06
2.76094e-06
2.75153e-06
2.74546e-06
2.72707e-06
2.00781e-05
1.98876e-05
1.97571e-05
1.94618e-05
1.91474e-05
1.86437e-05
1.75613e-05
1.54366e-05
1.17601e-05
7.46706e-06
3.99823e-06
1.92156e-06
1.21027e-06
1.0578e-06
9.82312e-07
9.42946e-07
9.54102e-07
9.88612e-07
1.05027e-06
1.11515e-06
1.18425e-06
1.25484e-06
1.32591e-06
1.39629e-06
1.4659e-06
1.53144e-06
1.59573e-06
1.65533e-06
1.7127e-06
1.76625e-06
1.81616e-06
1.8637e-06
1.90688e-06
1.94733e-06
1.98516e-06
2.01863e-06
2.05123e-06
2.07904e-06
2.10699e-06
2.12878e-06
2.15247e-06
2.17001e-06
2.1887e-06
2.20178e-06
2.21707e-06
2.22515e-06
2.23635e-06
2.23955e-06
2.24503e-06
2.2429e-06
2.00614e-05
1.98539e-05
1.97345e-05
1.9472e-05
1.92567e-05
1.90488e-05
1.87386e-05
1.8195e-05
1.71053e-05
1.52456e-05
1.25871e-05
9.25836e-06
5.99338e-06
3.49241e-06
1.88807e-06
1.16985e-06
9.6532e-07
8.91572e-07
8.36712e-07
7.97042e-07
7.99e-07
8.12845e-07
8.43194e-07
8.82095e-07
9.22782e-07
9.65233e-07
1.01055e-06
1.05533e-06
1.10156e-06
1.14724e-06
1.19176e-06
1.2358e-06
1.2779e-06
1.31816e-06
1.35817e-06
1.39449e-06
1.43103e-06
1.46421e-06
1.49763e-06
1.52608e-06
1.55668e-06
1.5818e-06
1.60811e-06
1.62929e-06
1.65283e-06
1.66981e-06
1.68855e-06
1.70112e-06
1.71523e-06
1.72305e-06
2.00475e-05
1.98303e-05
1.97079e-05
1.94499e-05
1.92736e-05
1.91167e-05
1.89675e-05
1.87528e-05
1.84659e-05
1.79176e-05
1.7086e-05
1.57137e-05
1.38998e-05
1.15535e-05
8.875e-06
6.26271e-06
4.08618e-06
2.50866e-06
1.50709e-06
1.03111e-06
8.63139e-07
7.99532e-07
7.51275e-07
7.11446e-07
6.82185e-07
6.80353e-07
6.86452e-07
7.01172e-07
7.23344e-07
7.47712e-07
7.72625e-07
7.9942e-07
8.27352e-07
8.55431e-07
8.85442e-07
9.14085e-07
9.43712e-07
9.72324e-07
1.00129e-06
1.02727e-06
1.05544e-06
1.08023e-06
1.10544e-06
1.12794e-06
1.15193e-06
1.17168e-06
1.19145e-06
1.20847e-06
1.22403e-06
1.23872e-06
2.00362e-05
1.98125e-05
1.96855e-05
1.94198e-05
1.92596e-05
1.91105e-05
1.90023e-05
1.88517e-05
1.87144e-05
1.85037e-05
1.82512e-05
1.78381e-05
1.72387e-05
1.63714e-05
1.51731e-05
1.36394e-05
1.18309e-05
9.74404e-06
7.59587e-06
5.59167e-06
3.90875e-06
2.62775e-06
1.71177e-06
1.15212e-06
8.77504e-07
7.6392e-07
7.11451e-07
6.74238e-07
6.38621e-07
6.09776e-07
5.89848e-07
5.83961e-07
5.86269e-07
5.92477e-07
6.04431e-07
6.17768e-07
6.32163e-07
6.47619e-07
6.63623e-07
6.7936e-07
6.97337e-07
7.14705e-07
7.32184e-07
7.49614e-07
7.67962e-07
7.8432e-07
8.00082e-07
8.15427e-07
8.28381e-07
8.42771e-07
2.00271e-05
1.97986e-05
1.96663e-05
1.93981e-05
1.92337e-05
1.90835e-05
1.89841e-05
1.88556e-05
1.87383e-05
1.85992e-05
1.84621e-05
1.82927e-05
1.80839e-05
1.77987e-05
1.74134e-05
1.68711e-05
1.61634e-05
1.52421e-05
1.40986e-05
1.27543e-05
1.12479e-05
9.5804e-06
7.86429e-06
6.22182e-06
4.73414e-06
3.49653e-06
2.51766e-06
1.77163e-06
1.24888e-06
9.31265e-07
7.62999e-07
6.81326e-07
6.37741e-07
6.07218e-07
5.79774e-07
5.53706e-07
5.31047e-07
5.1575e-07
5.05856e-07
5.03763e-07
5.05178e-07
5.09057e-07
5.14555e-07
5.22135e-07
5.29962e-07
5.37895e-07
5.4482e-07
5.53141e-07
5.59448e-07
5.67528e-07
2.002e-05
1.97902e-05
1.96458e-05
1.93821e-05
1.92097e-05
1.90549e-05
1.8946e-05
1.88296e-05
1.87168e-05
1.85926e-05
1.84739e-05
1.83481e-05
1.82234e-05
1.808e-05
1.7924e-05
1.77245e-05
1.74813e-05
1.71611e-05
1.67568e-05
1.62326e-05
1.55951e-05
1.48109e-05
1.3892e-05
1.28286e-05
1.16706e-05
1.04103e-05
9.07068e-06
7.71722e-06
6.4023e-06
5.19009e-06
4.09893e-06
3.18755e-06
2.44e-06
1.83835e-06
1.37529e-06
1.04389e-06
8.28635e-07
7.00347e-07
6.27657e-07
5.85564e-07
5.57545e-07
5.35148e-07
5.14768e-07
4.959e-07
4.77503e-07
4.6299e-07
4.49647e-07
4.42558e-07
4.35372e-07
4.34145e-07
2.00144e-05
1.97902e-05
1.96194e-05
1.9369e-05
1.91892e-05
1.90285e-05
1.89102e-05
1.87939e-05
1.86771e-05
1.85569e-05
1.84438e-05
1.83264e-05
1.82143e-05
1.80944e-05
1.7982e-05
1.78584e-05
1.77354e-05
1.75904e-05
1.74321e-05
1.72368e-05
1.70058e-05
1.6719e-05
1.63767e-05
1.59545e-05
1.54569e-05
1.48728e-05
1.42032e-05
1.34355e-05
1.25947e-05
1.16711e-05
1.07116e-05
9.69021e-06
8.63373e-06
7.57661e-06
6.54766e-06
5.57105e-06
4.67505e-06
3.86296e-06
3.16416e-06
2.57205e-06
2.07322e-06
1.66125e-06
1.32889e-06
1.07381e-06
8.85763e-07
7.56015e-07
6.67675e-07
6.14275e-07
5.77366e-07
5.6507e-07
2.00102e-05
1.97942e-05
1.95926e-05
1.93555e-05
1.91705e-05
1.90034e-05
1.88769e-05
1.87585e-05
1.86375e-05
1.85143e-05
1.83985e-05
1.82806e-05
1.81698e-05
1.80561e-05
1.79501e-05
1.78389e-05
1.77332e-05
1.7622e-05
1.75145e-05
1.74034e-05
1.72835e-05
1.71552e-05
1.70136e-05
1.68493e-05
1.66578e-05
1.64376e-05
1.61813e-05
1.58796e-05
1.55302e-05
1.51322e-05
1.4676e-05
1.41744e-05
1.36067e-05
1.2995e-05
1.23235e-05
1.16208e-05
1.08725e-05
1.01116e-05
9.32459e-06
8.52213e-06
7.71991e-06
6.94029e-06
6.18721e-06
5.48718e-06
4.83464e-06
4.25766e-06
3.73843e-06
3.31542e-06
2.95679e-06
2.71068e-06
2.0007e-05
1.98016e-05
1.9568e-05
1.93425e-05
1.91529e-05
1.89801e-05
1.8845e-05
1.8725e-05
1.85989e-05
1.84732e-05
1.83524e-05
1.82329e-05
1.81177e-05
1.80021e-05
1.7894e-05
1.7783e-05
1.76803e-05
1.75757e-05
1.74737e-05
1.73782e-05
1.72729e-05
1.71768e-05
1.70771e-05
1.6979e-05
1.68697e-05
1.67651e-05
1.6648e-05
1.65223e-05
1.63759e-05
1.6224e-05
1.6039e-05
1.58461e-05
1.56132e-05
1.53668e-05
1.50764e-05
1.47678e-05
1.4417e-05
1.4035e-05
1.36295e-05
1.31882e-05
1.27141e-05
1.22213e-05
1.16939e-05
1.11732e-05
1.06202e-05
1.00889e-05
9.54124e-06
9.04252e-06
8.55841e-06
8.12764e-06
2.00047e-05
1.981e-05
1.95449e-05
1.93299e-05
1.91357e-05
1.89585e-05
1.88142e-05
1.86931e-05
1.85617e-05
1.84337e-05
1.8308e-05
1.81863e-05
1.80661e-05
1.79485e-05
1.78364e-05
1.77232e-05
1.76161e-05
1.75094e-05
1.74039e-05
1.73105e-05
1.72038e-05
1.7115e-05
1.70204e-05
1.69332e-05
1.68358e-05
1.67521e-05
1.66627e-05
1.65758e-05
1.64812e-05
1.63987e-05
1.62981e-05
1.62088e-05
1.60994e-05
1.59969e-05
1.58703e-05
1.57491e-05
1.56042e-05
1.54444e-05
1.52841e-05
1.50989e-05
1.4898e-05
1.46827e-05
1.44378e-05
1.42105e-05
1.39266e-05
1.36606e-05
1.33654e-05
1.30665e-05
1.2788e-05
1.24907e-05
2.0003e-05
1.9819e-05
1.95234e-05
1.93168e-05
1.91185e-05
1.89386e-05
1.87847e-05
1.86623e-05
1.85263e-05
1.83959e-05
1.82659e-05
1.81417e-05
1.80167e-05
1.78969e-05
1.77808e-05
1.76649e-05
1.75543e-05
1.74444e-05
1.73352e-05
1.72401e-05
1.71272e-05
1.70365e-05
1.69383e-05
1.68495e-05
1.67497e-05
1.6668e-05
1.65849e-05
1.65028e-05
1.64158e-05
1.63446e-05
1.62594e-05
1.61883e-05
1.61062e-05
1.6035e-05
1.59515e-05
1.58833e-05
1.58014e-05
1.57159e-05
1.56422e-05
1.55566e-05
1.54673e-05
1.53691e-05
1.52614e-05
1.51778e-05
1.50466e-05
1.49345e-05
1.48115e-05
1.46641e-05
1.45484e-05
1.44029e-05
2.00017e-05
1.98275e-05
1.95036e-05
1.93028e-05
1.91011e-05
1.892e-05
1.87569e-05
1.86327e-05
1.84929e-05
1.836e-05
1.82266e-05
1.80996e-05
1.79704e-05
1.78483e-05
1.77284e-05
1.76098e-05
1.74956e-05
1.73825e-05
1.72705e-05
1.71725e-05
1.70556e-05
1.69624e-05
1.68609e-05
1.67682e-05
1.66651e-05
1.65783e-05
1.6493e-05
1.6406e-05
1.63163e-05
1.62427e-05
1.61578e-05
1.60857e-05
1.60112e-05
1.59431e-05
1.58674e-05
1.58069e-05
1.57364e-05
1.5666e-05
1.56068e-05
1.5546e-05
1.54793e-05
1.54102e-05
1.53445e-05
1.52975e-05
1.52222e-05
1.51586e-05
1.50961e-05
1.50169e-05
1.49558e-05
1.48883e-05
2.00009e-05
1.98305e-05
1.94872e-05
1.92883e-05
1.90836e-05
1.8903e-05
1.87314e-05
1.86046e-05
1.84619e-05
1.83266e-05
1.81905e-05
1.80606e-05
1.79278e-05
1.78036e-05
1.76799e-05
1.75591e-05
1.74411e-05
1.73255e-05
1.72109e-05
1.71093e-05
1.69896e-05
1.68937e-05
1.67894e-05
1.66931e-05
1.65873e-05
1.64969e-05
1.64091e-05
1.63185e-05
1.62246e-05
1.61477e-05
1.60599e-05
1.5982e-05
1.59057e-05
1.58319e-05
1.57536e-05
1.56897e-05
1.56179e-05
1.55479e-05
1.54862e-05
1.54318e-05
1.53672e-05
1.53036e-05
1.52465e-05
1.52021e-05
1.51395e-05
1.50846e-05
1.50321e-05
1.49701e-05
1.49184e-05
1.48669e-05
2.00003e-05
1.98288e-05
1.94738e-05
1.92731e-05
1.90662e-05
1.88877e-05
1.87085e-05
1.85784e-05
1.84334e-05
1.82963e-05
1.81581e-05
1.80252e-05
1.78895e-05
1.77633e-05
1.76361e-05
1.75138e-05
1.73915e-05
1.72745e-05
1.71571e-05
1.70518e-05
1.69302e-05
1.68317e-05
1.67245e-05
1.6625e-05
1.65168e-05
1.64241e-05
1.63328e-05
1.62405e-05
1.61428e-05
1.60634e-05
1.59726e-05
1.58913e-05
1.58131e-05
1.57354e-05
1.56532e-05
1.55861e-05
1.55111e-05
1.54389e-05
1.53717e-05
1.53146e-05
1.52443e-05
1.51788e-05
1.51197e-05
1.507e-05
1.50065e-05
1.49511e-05
1.48959e-05
1.48352e-05
1.47815e-05
1.47294e-05
2e-05
1.9827e-05
1.94622e-05
1.92564e-05
1.90483e-05
1.88739e-05
1.86881e-05
1.85544e-05
1.84075e-05
1.82695e-05
1.81294e-05
1.79938e-05
1.78561e-05
1.7728e-05
1.75978e-05
1.74744e-05
1.7348e-05
1.72305e-05
1.71101e-05
1.70015e-05
1.68782e-05
1.67777e-05
1.66674e-05
1.65652e-05
1.64546e-05
1.63606e-05
1.62649e-05
1.61719e-05
1.6071e-05
1.59894e-05
1.58959e-05
1.58126e-05
1.57324e-05
1.56522e-05
1.55665e-05
1.54979e-05
1.542e-05
1.53462e-05
1.52755e-05
1.52154e-05
1.51413e-05
1.5075e-05
1.50125e-05
1.49584e-05
1.48906e-05
1.4834e-05
1.47744e-05
1.47115e-05
1.46504e-05
1.45927e-05
1.99999e-05
1.98258e-05
1.94537e-05
1.92391e-05
1.90304e-05
1.88618e-05
1.86708e-05
1.85332e-05
1.83846e-05
1.82467e-05
1.81049e-05
1.79672e-05
1.78282e-05
1.76985e-05
1.75657e-05
1.74415e-05
1.73117e-05
1.71939e-05
1.70707e-05
1.69595e-05
1.68346e-05
1.67327e-05
1.66191e-05
1.65148e-05
1.6402e-05
1.63074e-05
1.62069e-05
1.61137e-05
1.601e-05
1.59265e-05
1.58305e-05
1.57459e-05
1.56637e-05
1.55812e-05
1.54931e-05
1.54238e-05
1.53432e-05
1.52681e-05
1.51956e-05
1.51326e-05
1.50557e-05
1.499e-05
1.49247e-05
1.48669e-05
1.47964e-05
1.47379e-05
1.46756e-05
1.46116e-05
1.45428e-05
1.44765e-05
1.99999e-05
1.9825e-05
1.94482e-05
1.92223e-05
1.90133e-05
1.88519e-05
1.86573e-05
1.85158e-05
1.83655e-05
1.82287e-05
1.80854e-05
1.7946e-05
1.78064e-05
1.76755e-05
1.75408e-05
1.7416e-05
1.72838e-05
1.71657e-05
1.70401e-05
1.69267e-05
1.68007e-05
1.66976e-05
1.65808e-05
1.6475e-05
1.63603e-05
1.62653e-05
1.61603e-05
1.60669e-05
1.5961e-05
1.58758e-05
1.57777e-05
1.56922e-05
1.56078e-05
1.55232e-05
1.54338e-05
1.53638e-05
1.52807e-05
1.52045e-05
1.51311e-05
1.50653e-05
1.49864e-05
1.49214e-05
1.48541e-05
1.4793e-05
1.47209e-05
1.46611e-05
1.45963e-05
1.45318e-05
1.44556e-05
1.43825e-05
1.99999e-05
1.98247e-05
1.94456e-05
1.92068e-05
1.89977e-05
1.88439e-05
1.8648e-05
1.85025e-05
1.83507e-05
1.82157e-05
1.80713e-05
1.79309e-05
1.77912e-05
1.76599e-05
1.75236e-05
1.73985e-05
1.72652e-05
1.71464e-05
1.7019e-05
1.69041e-05
1.67774e-05
1.66735e-05
1.65537e-05
1.6447e-05
1.63307e-05
1.62354e-05
1.61264e-05
1.60328e-05
1.59252e-05
1.58387e-05
1.57387e-05
1.56525e-05
1.55659e-05
1.54797e-05
1.53898e-05
1.53187e-05
1.52334e-05
1.51565e-05
1.50825e-05
1.50141e-05
1.4934e-05
1.48695e-05
1.48003e-05
1.47367e-05
1.46629e-05
1.46033e-05
1.45348e-05
1.44697e-05
1.43876e-05
1.43095e-05
1.99999e-05
1.98247e-05
1.94457e-05
1.91934e-05
1.89841e-05
1.88379e-05
1.86429e-05
1.84936e-05
1.83407e-05
1.82081e-05
1.8063e-05
1.79225e-05
1.7783e-05
1.76519e-05
1.75146e-05
1.73898e-05
1.72564e-05
1.71368e-05
1.70083e-05
1.68925e-05
1.67654e-05
1.66608e-05
1.65385e-05
1.64317e-05
1.63141e-05
1.62185e-05
1.61063e-05
1.60124e-05
1.59038e-05
1.58163e-05
1.57147e-05
1.56279e-05
1.55391e-05
1.54519e-05
1.53621e-05
1.52895e-05
1.52025e-05
1.51255e-05
1.50507e-05
1.49801e-05
1.48992e-05
1.48352e-05
1.47641e-05
1.46985e-05
1.46236e-05
1.45641e-05
1.44917e-05
1.44252e-05
1.43392e-05
1.42567e-05
1.99999e-05
1.98252e-05
1.94481e-05
1.91824e-05
1.89727e-05
1.88333e-05
1.86422e-05
1.84894e-05
1.83357e-05
1.82055e-05
1.80605e-05
1.7921e-05
1.77823e-05
1.76521e-05
1.75142e-05
1.73905e-05
1.72575e-05
1.71374e-05
1.70085e-05
1.68927e-05
1.67656e-05
1.66606e-05
1.65363e-05
1.64299e-05
1.63114e-05
1.62155e-05
1.61009e-05
1.60064e-05
1.58978e-05
1.58092e-05
1.57065e-05
1.56195e-05
1.55284e-05
1.54413e-05
1.53515e-05
1.52772e-05
1.51891e-05
1.51127e-05
1.50367e-05
1.49644e-05
1.4883e-05
1.48195e-05
1.47464e-05
1.46793e-05
1.46039e-05
1.45439e-05
1.44677e-05
1.43998e-05
1.43103e-05
1.42247e-05
1.99999e-05
1.98262e-05
1.9453e-05
1.91748e-05
1.89639e-05
1.88304e-05
1.86451e-05
1.84898e-05
1.83358e-05
1.82078e-05
1.80638e-05
1.79257e-05
1.7788e-05
1.7659e-05
1.75211e-05
1.7399e-05
1.72668e-05
1.71464e-05
1.70177e-05
1.69022e-05
1.67753e-05
1.66702e-05
1.6545e-05
1.64392e-05
1.63203e-05
1.62243e-05
1.61083e-05
1.60136e-05
1.59054e-05
1.5816e-05
1.57127e-05
1.56257e-05
1.55332e-05
1.54466e-05
1.53567e-05
1.52812e-05
1.51928e-05
1.51171e-05
1.50398e-05
1.49667e-05
1.48853e-05
1.48218e-05
1.47475e-05
1.46792e-05
1.46037e-05
1.45427e-05
1.44634e-05
1.43937e-05
1.43015e-05
1.4214e-05
1.99999e-05
1.98276e-05
1.94599e-05
1.91704e-05
1.89581e-05
1.88286e-05
1.86517e-05
1.84948e-05
1.83404e-05
1.82145e-05
1.80721e-05
1.79367e-05
1.78006e-05
1.76736e-05
1.75363e-05
1.7417e-05
1.72859e-05
1.71656e-05
1.70381e-05
1.69236e-05
1.67973e-05
1.66924e-05
1.65666e-05
1.64621e-05
1.63428e-05
1.62471e-05
1.61295e-05
1.60348e-05
1.59278e-05
1.58374e-05
1.57336e-05
1.56469e-05
1.55528e-05
1.54675e-05
1.53773e-05
1.53006e-05
1.52125e-05
1.51378e-05
1.50589e-05
1.49848e-05
1.49043e-05
1.48404e-05
1.47651e-05
1.46959e-05
1.46201e-05
1.4558e-05
1.44762e-05
1.4405e-05
1.43104e-05
1.42217e-05
1.99999e-05
1.98295e-05
1.94684e-05
1.91697e-05
1.89553e-05
1.88283e-05
1.86609e-05
1.85042e-05
1.83501e-05
1.82258e-05
1.80861e-05
1.79539e-05
1.78197e-05
1.76948e-05
1.75589e-05
1.74429e-05
1.7313e-05
1.71935e-05
1.70681e-05
1.69549e-05
1.68294e-05
1.67255e-05
1.65999e-05
1.64969e-05
1.6378e-05
1.6283e-05
1.61644e-05
1.60707e-05
1.59649e-05
1.58738e-05
1.57702e-05
1.56843e-05
1.55896e-05
1.55058e-05
1.54149e-05
1.53381e-05
1.52512e-05
1.5177e-05
1.5097e-05
1.50227e-05
1.49435e-05
1.48791e-05
1.4803e-05
1.47335e-05
1.46577e-05
1.4594e-05
1.451e-05
1.44376e-05
1.43409e-05
1.42514e-05
1.99999e-05
1.98319e-05
1.94783e-05
1.91724e-05
1.89554e-05
1.88292e-05
1.86722e-05
1.85175e-05
1.83638e-05
1.82408e-05
1.81044e-05
1.7976e-05
1.78441e-05
1.77218e-05
1.75879e-05
1.74757e-05
1.73471e-05
1.72289e-05
1.71065e-05
1.69947e-05
1.68705e-05
1.67679e-05
1.66432e-05
1.6542e-05
1.64237e-05
1.63299e-05
1.62106e-05
1.61187e-05
1.60138e-05
1.59226e-05
1.58195e-05
1.5735e-05
1.56401e-05
1.55577e-05
1.54665e-05
1.53905e-05
1.53051e-05
1.52309e-05
1.515e-05
1.50766e-05
1.49988e-05
1.49341e-05
1.48571e-05
1.47881e-05
1.47121e-05
1.4647e-05
1.45618e-05
1.44889e-05
1.43902e-05
1.43005e-05
1.99999e-05
1.98347e-05
1.9489e-05
1.91789e-05
1.89586e-05
1.88319e-05
1.8685e-05
1.85342e-05
1.8381e-05
1.82593e-05
1.81266e-05
1.80024e-05
1.7873e-05
1.77537e-05
1.76223e-05
1.7514e-05
1.7387e-05
1.7271e-05
1.71519e-05
1.70415e-05
1.69192e-05
1.68184e-05
1.66952e-05
1.65958e-05
1.64785e-05
1.63863e-05
1.62666e-05
1.61775e-05
1.60728e-05
1.59824e-05
1.58798e-05
1.57974e-05
1.57024e-05
1.56217e-05
1.55305e-05
1.54558e-05
1.53722e-05
1.52978e-05
1.52164e-05
1.51448e-05
1.50684e-05
1.5003e-05
1.49256e-05
1.48574e-05
1.47814e-05
1.47151e-05
1.46292e-05
1.4556e-05
1.44562e-05
1.43658e-05
1.99999e-05
1.98378e-05
1.95002e-05
1.91884e-05
1.89648e-05
1.88366e-05
1.8699e-05
1.8554e-05
1.84014e-05
1.82813e-05
1.81518e-05
1.80327e-05
1.79056e-05
1.77896e-05
1.76614e-05
1.75567e-05
1.74318e-05
1.73186e-05
1.7203e-05
1.70943e-05
1.69743e-05
1.68755e-05
1.67543e-05
1.66569e-05
1.65408e-05
1.64507e-05
1.63308e-05
1.62451e-05
1.61402e-05
1.60515e-05
1.59495e-05
1.58697e-05
1.57746e-05
1.56959e-05
1.5605e-05
1.55321e-05
1.54503e-05
1.53756e-05
1.52941e-05
1.52252e-05
1.515e-05
1.50838e-05
1.50067e-05
1.49393e-05
1.48632e-05
1.47961e-05
1.47105e-05
1.46369e-05
1.45375e-05
1.44447e-05
1.99999e-05
1.98412e-05
1.95118e-05
1.92005e-05
1.89738e-05
1.88432e-05
1.87136e-05
1.8576e-05
1.84243e-05
1.83065e-05
1.81793e-05
1.80661e-05
1.79408e-05
1.78288e-05
1.77043e-05
1.76027e-05
1.74805e-05
1.73707e-05
1.72582e-05
1.71518e-05
1.70345e-05
1.69377e-05
1.68192e-05
1.67237e-05
1.66089e-05
1.65212e-05
1.64019e-05
1.63194e-05
1.62142e-05
1.61281e-05
1.60268e-05
1.59496e-05
1.58547e-05
1.57783e-05
1.5688e-05
1.56171e-05
1.5537e-05
1.54621e-05
1.53812e-05
1.53152e-05
1.52409e-05
1.5174e-05
1.50978e-05
1.50315e-05
1.4955e-05
1.4888e-05
1.48031e-05
1.47293e-05
1.46305e-05
1.45365e-05
1.99999e-05
1.98447e-05
1.95234e-05
1.92147e-05
1.89853e-05
1.88521e-05
1.87286e-05
1.85996e-05
1.8449e-05
1.83345e-05
1.82085e-05
1.81019e-05
1.79781e-05
1.78705e-05
1.775e-05
1.76508e-05
1.75322e-05
1.74261e-05
1.73162e-05
1.7213e-05
1.70985e-05
1.70036e-05
1.68882e-05
1.67948e-05
1.66812e-05
1.65964e-05
1.64782e-05
1.63985e-05
1.62933e-05
1.62103e-05
1.61098e-05
1.60347e-05
1.5941e-05
1.58666e-05
1.57775e-05
1.57086e-05
1.56297e-05
1.55555e-05
1.54756e-05
1.54124e-05
1.53389e-05
1.52716e-05
1.51967e-05
1.51314e-05
1.50548e-05
1.49881e-05
1.4905e-05
1.48309e-05
1.47323e-05
1.46399e-05
1.99999e-05
1.98483e-05
1.95349e-05
1.92305e-05
1.89992e-05
1.8863e-05
1.87439e-05
1.8624e-05
1.84755e-05
1.83647e-05
1.82389e-05
1.81393e-05
1.80167e-05
1.79138e-05
1.77977e-05
1.77003e-05
1.75859e-05
1.74837e-05
1.7376e-05
1.72768e-05
1.7165e-05
1.70719e-05
1.69601e-05
1.68688e-05
1.67564e-05
1.66747e-05
1.65581e-05
1.64809e-05
1.63757e-05
1.62963e-05
1.61968e-05
1.61233e-05
1.60315e-05
1.5959e-05
1.58714e-05
1.58044e-05
1.57263e-05
1.56537e-05
1.55753e-05
1.55142e-05
1.54415e-05
1.53743e-05
1.53009e-05
1.52366e-05
1.51604e-05
1.50942e-05
1.50131e-05
1.49393e-05
1.48413e-05
1.47514e-05
1.99999e-05
1.98519e-05
1.95462e-05
1.92475e-05
1.90152e-05
1.88759e-05
1.87598e-05
1.86485e-05
1.85034e-05
1.83964e-05
1.82707e-05
1.81774e-05
1.80565e-05
1.79581e-05
1.78464e-05
1.77507e-05
1.76407e-05
1.75427e-05
1.74369e-05
1.73419e-05
1.7233e-05
1.71416e-05
1.70334e-05
1.69445e-05
1.68334e-05
1.67546e-05
1.66402e-05
1.65651e-05
1.64602e-05
1.63846e-05
1.6286e-05
1.62141e-05
1.61244e-05
1.60538e-05
1.59676e-05
1.59029e-05
1.58252e-05
1.57548e-05
1.56781e-05
1.56184e-05
1.55466e-05
1.54802e-05
1.54082e-05
1.53449e-05
1.52695e-05
1.52044e-05
1.5125e-05
1.5052e-05
1.49557e-05
1.48688e-05
1.99999e-05
1.98555e-05
1.95572e-05
1.92651e-05
1.90328e-05
1.88905e-05
1.87761e-05
1.86728e-05
1.85325e-05
1.84287e-05
1.83035e-05
1.82154e-05
1.8097e-05
1.80027e-05
1.78953e-05
1.78015e-05
1.76958e-05
1.76023e-05
1.74983e-05
1.74076e-05
1.73016e-05
1.72118e-05
1.71074e-05
1.70209e-05
1.69113e-05
1.68351e-05
1.67233e-05
1.66498e-05
1.65455e-05
1.64738e-05
1.63759e-05
1.63058e-05
1.62177e-05
1.61499e-05
1.60644e-05
1.60022e-05
1.59248e-05
1.58572e-05
1.57822e-05
1.5723e-05
1.56526e-05
1.55878e-05
1.55167e-05
1.54543e-05
1.53805e-05
1.53167e-05
1.5239e-05
1.5167e-05
1.50737e-05
1.49906e-05
1.99999e-05
1.98591e-05
1.95679e-05
1.92829e-05
1.90516e-05
1.89064e-05
1.87931e-05
1.86964e-05
1.8562e-05
1.84612e-05
1.83372e-05
1.82532e-05
1.81376e-05
1.80472e-05
1.7944e-05
1.78523e-05
1.77508e-05
1.76616e-05
1.75595e-05
1.74731e-05
1.73699e-05
1.72817e-05
1.71811e-05
1.70969e-05
1.69894e-05
1.6915e-05
1.68063e-05
1.67341e-05
1.66307e-05
1.65627e-05
1.64653e-05
1.63971e-05
1.63104e-05
1.62456e-05
1.61608e-05
1.61004e-05
1.60239e-05
1.59592e-05
1.58858e-05
1.58266e-05
1.57577e-05
1.56955e-05
1.56249e-05
1.55629e-05
1.54915e-05
1.54292e-05
1.53531e-05
1.52828e-05
1.51933e-05
1.51151e-05
1.99999e-05
1.98625e-05
1.95782e-05
1.93005e-05
1.90712e-05
1.89236e-05
1.88106e-05
1.87193e-05
1.85916e-05
1.84936e-05
1.83712e-05
1.82906e-05
1.81778e-05
1.80915e-05
1.79917e-05
1.79028e-05
1.78053e-05
1.77198e-05
1.76205e-05
1.75374e-05
1.74374e-05
1.73509e-05
1.7254e-05
1.71718e-05
1.70669e-05
1.69938e-05
1.68883e-05
1.68173e-05
1.67149e-05
1.665e-05
1.65534e-05
1.64872e-05
1.64013e-05
1.63396e-05
1.6256e-05
1.61965e-05
1.61213e-05
1.60596e-05
1.59876e-05
1.59283e-05
1.58607e-05
1.58015e-05
1.57317e-05
1.56698e-05
1.56009e-05
1.55405e-05
1.5466e-05
1.53979e-05
1.53133e-05
1.52404e-05
1.99999e-05
1.98658e-05
1.9588e-05
1.93178e-05
1.9091e-05
1.89416e-05
1.88287e-05
1.87416e-05
1.86208e-05
1.85257e-05
1.84052e-05
1.83277e-05
1.82169e-05
1.81357e-05
1.80379e-05
1.7953e-05
1.78589e-05
1.77767e-05
1.76811e-05
1.76001e-05
1.75038e-05
1.74191e-05
1.73254e-05
1.72453e-05
1.71434e-05
1.70711e-05
1.69685e-05
1.68993e-05
1.67975e-05
1.67353e-05
1.66395e-05
1.65755e-05
1.64899e-05
1.6431e-05
1.63491e-05
1.62904e-05
1.62157e-05
1.61574e-05
1.60865e-05
1.60277e-05
1.59608e-05
1.59043e-05
1.58358e-05
1.57743e-05
1.57077e-05
1.56493e-05
1.55767e-05
1.55113e-05
1.54322e-05
1.53652e-05
1.99999e-05
1.9869e-05
1.95973e-05
1.93346e-05
1.91108e-05
1.89603e-05
1.88472e-05
1.87632e-05
1.86491e-05
1.85573e-05
1.84391e-05
1.83642e-05
1.82551e-05
1.81791e-05
1.80828e-05
1.80025e-05
1.79113e-05
1.78323e-05
1.77405e-05
1.76615e-05
1.75687e-05
1.74861e-05
1.73953e-05
1.73171e-05
1.72184e-05
1.71468e-05
1.70464e-05
1.69794e-05
1.68781e-05
1.6818e-05
1.67229e-05
1.66614e-05
1.65758e-05
1.65194e-05
1.6439e-05
1.63814e-05
1.63069e-05
1.62516e-05
1.61817e-05
1.61237e-05
1.60578e-05
1.60031e-05
1.59361e-05
1.58757e-05
1.58113e-05
1.57547e-05
1.56843e-05
1.56222e-05
1.55489e-05
1.54878e-05
1.99999e-05
1.9872e-05
1.9606e-05
1.93506e-05
1.91302e-05
1.89793e-05
1.88661e-05
1.87843e-05
1.86765e-05
1.85881e-05
1.84727e-05
1.83998e-05
1.82928e-05
1.82212e-05
1.81267e-05
1.80509e-05
1.79623e-05
1.78869e-05
1.77979e-05
1.77218e-05
1.76316e-05
1.75514e-05
1.74639e-05
1.73869e-05
1.72914e-05
1.72208e-05
1.71223e-05
1.70567e-05
1.6957e-05
1.68977e-05
1.68038e-05
1.6744e-05
1.66591e-05
1.66046e-05
1.65249e-05
1.64691e-05
1.63949e-05
1.63416e-05
1.62728e-05
1.6216e-05
1.61514e-05
1.60973e-05
1.60319e-05
1.59735e-05
1.5911e-05
1.5856e-05
1.57883e-05
1.57298e-05
1.56625e-05
1.56073e-05
1.99999e-05
1.98748e-05
1.96141e-05
1.93657e-05
1.91489e-05
1.89984e-05
1.88851e-05
1.88048e-05
1.87029e-05
1.86179e-05
1.85059e-05
1.84343e-05
1.83298e-05
1.82619e-05
1.81695e-05
1.80982e-05
1.80117e-05
1.79406e-05
1.78533e-05
1.77809e-05
1.76928e-05
1.76152e-05
1.75307e-05
1.74551e-05
1.73623e-05
1.72928e-05
1.71963e-05
1.71312e-05
1.70335e-05
1.69748e-05
1.68817e-05
1.68233e-05
1.67394e-05
1.66865e-05
1.66069e-05
1.6553e-05
1.64794e-05
1.64276e-05
1.63592e-05
1.63045e-05
1.62407e-05
1.61873e-05
1.61229e-05
1.60672e-05
1.60064e-05
1.59529e-05
1.58883e-05
1.58336e-05
1.57722e-05
1.57223e-05
1.99999e-05
1.98774e-05
1.96217e-05
1.93798e-05
1.91666e-05
1.90174e-05
1.8904e-05
1.88248e-05
1.87283e-05
1.86466e-05
1.85385e-05
1.8468e-05
1.83659e-05
1.83014e-05
1.82111e-05