/*--------------------------------*- C++ -*----------------------------------*\
  =========                 |
  \\      /  F ield         | OpenFOAM: The Open Source CFD Toolbox
   \\    /   O peration     | Website:  https://openfoam.org
    \\  /    A nd           | Version:  7
     \\/     M anipulation  |
\*---------------------------------------------------------------------------*/
FoamFile
{
    version     2.0;
    format      ascii;
    class       volScalarField;
    location    "0.4";
    object      p;
}
// * * * * * * * * * * * * * * * * * * * * * * * * * * * * * * * * * * * * * //

dimensions      [0 2 -2 0 0 0 0];

internalField   nonuniform List<scalar> 
70000
(
0.11397
0.0370825
0.0239413
0.0264007
0.0266711
0.0256353
0.0246881
0.0239708
0.0233746
0.0228495
0.0223816
0.0219629
0.021586
0.0212443
0.0209326
0.0206463
0.0203821
0.0201369
0.0199085
0.0196945
0.0194934
0.0193036
0.0191237
0.0189525
0.0187889
0.0186319
0.0184807
0.0183344
0.0181921
0.018053
0.0179164
0.0177814
0.0176471
0.0175126
0.0173769
0.0172386
0.0170969
0.0169497
0.0167957
0.0166332
0.0164585
0.0162734
0.0160659
0.0158525
0.0155946
0.0153586
0.015018
0.0148299
0.0142949
0.0145986
0.10967
0.0374444
0.0241438
0.0264953
0.0267254
0.025671
0.024716
0.0239939
0.0233939
0.022866
0.022396
0.0219756
0.0215974
0.0212546
0.0209419
0.0206549
0.0203899
0.0201442
0.0199152
0.0197009
0.0194994
0.0193092
0.0191289
0.0189574
0.0187936
0.0186364
0.018485
0.0183384
0.018196
0.0180567
0.01792
0.0177848
0.0176504
0.0175157
0.0173799
0.0172415
0.0170997
0.0169523
0.0167982
0.0166355
0.0164607
0.0162754
0.0160677
0.0158541
0.0155958
0.0153594
0.0150183
0.0148282
0.0142981
0.0146089
0.106064
0.0383669
0.0244884
0.0266239
0.0268001
0.025716
0.0247483
0.02402
0.0234158
0.0228845
0.0224119
0.0219896
0.0216098
0.0212658
0.020952
0.0206641
0.0203985
0.0201521
0.0199225
0.0197077
0.0195058
0.0193152
0.0191346
0.0189628
0.0187987
0.0186412
0.0184896
0.0183428
0.0182002
0.0180607
0.0179238
0.0177885
0.017654
0.0175191
0.0173832
0.0172447
0.0171027
0.0169553
0.0168011
0.0166383
0.0164633
0.016278
0.01607
0.0158563
0.0155976
0.015361
0.0150191
0.0148265
0.0143153
0.0145917
0.10296
0.039466
0.0249649
0.0267965
0.0269013
0.025774
0.0247865
0.02405
0.0234404
0.022905
0.0224293
0.0220047
0.0216232
0.0212777
0.0209628
0.0206739
0.0204074
0.0201604
0.0199302
0.0197148
0.0195124
0.0193214
0.0191405
0.0189684
0.018804
0.0186463
0.0184944
0.0183474
0.0182045
0.0180649
0.0179279
0.0177924
0.0176577
0.0175228
0.0173868
0.0172481
0.0171061
0.0169585
0.0168043
0.0166415
0.0164664
0.0162811
0.0160731
0.0158593
0.0156005
0.0153635
0.0150223
0.0148244
0.0143444
0.0145468
0.100003
0.0405599
0.0255385
0.0270148
0.0270359
0.0258524
0.0248356
0.024087
0.0234704
0.0229296
0.0224499
0.0220224
0.0216385
0.0212913
0.0209749
0.0206849
0.0204174
0.0201695
0.0199386
0.0197227
0.0195197
0.0193283
0.0191469
0.0189744
0.0188097
0.0186517
0.0184995
0.0183523
0.0182093
0.0180695
0.0179322
0.0177966
0.0176618
0.0175268
0.0173907
0.017252
0.0171099
0.0169623
0.016808
0.0166453
0.0164703
0.0162851
0.0160773
0.0158636
0.0156053
0.0153676
0.015029
0.0148231
0.0143811
0.0144902
0.0970962
0.0415921
0.0261625
0.0272594
0.0271981
0.025953
0.0248981
0.0241333
0.0235077
0.0229601
0.0224752
0.0220438
0.021657
0.0213075
0.0209893
0.0206978
0.0204291
0.0201801
0.0199484
0.0197316
0.0195281
0.019336
0.0191542
0.0189813
0.0188161
0.0186578
0.0185053
0.0183579
0.0182146
0.0180746
0.0179372
0.0178014
0.0176665
0.0175313
0.0173952
0.0172564
0.0171143
0.0169668
0.0168127
0.0166501
0.0164753
0.0162904
0.0160831
0.0158698
0.0156126
0.0153743
0.0150403
0.0148249
0.0144229
0.0144322
0.0942309
0.0425454
0.0268035
0.027509
0.0273746
0.0260709
0.0249732
0.0241889
0.0235528
0.0229971
0.0225058
0.0220697
0.0216793
0.021327
0.0210065
0.0207132
0.0204429
0.0201927
0.0199599
0.0197422
0.0195378
0.0193451
0.0191627
0.0189892
0.0188236
0.0186649
0.018512
0.0183643
0.0182207
0.0180805
0.0179428
0.0178069
0.0176719
0.0175366
0.0174004
0.0172617
0.0171197
0.0169723
0.0168183
0.0166561
0.0164818
0.0162975
0.016091
0.0158784
0.0156232
0.0153846
0.0150575
0.014832
0.0144685
0.0143807
0.0914165
0.0434133
0.0274453
0.0277519
0.0275544
0.0261996
0.0250572
0.0242517
0.0236044
0.02304
0.0225417
0.0221001
0.0217056
0.02135
0.0210269
0.0207314
0.0204593
0.0202076
0.0199734
0.0197547
0.0195493
0.0193558
0.0191726
0.0189985
0.0188324
0.0186731
0.0185199
0.0183717
0.0182278
0.0180873
0.0179495
0.0178134
0.0176782
0.0175429
0.0174067
0.017268
0.0171261
0.016979
0.0168254
0.0166637
0.01649
0.0163066
0.0161015
0.0158901
0.0156378
0.0153995
0.0150817
0.0148467
0.0145179
0.0143431
0.0886596
0.0441934
0.0280826
0.0279843
0.0277314
0.0263342
0.025147
0.0243191
0.0236605
0.0230873
0.0225817
0.0221344
0.0217355
0.0213764
0.0210504
0.0207524
0.0204783
0.0202248
0.0199892
0.0197692
0.0195627
0.0193682
0.0191842
0.0190093
0.0188426
0.0186828
0.018529
0.0183804
0.0182362
0.0180954
0.0179573
0.017821
0.0176857
0.0175503
0.0174141
0.0172756
0.0171339
0.0169872
0.016834
0.0166731
0.0165004
0.0163183
0.016115
0.0159055
0.0156573
0.0154199
0.0151137
0.0148709
0.0145714
0.0143257
0.0859636
0.0448849
0.0287138
0.0282059
0.0279026
0.0264719
0.0252403
0.0243891
0.0237193
0.0231376
0.0226247
0.0221716
0.0217681
0.0214053
0.0210763
0.0207758
0.0204996
0.0202443
0.0200071
0.0197856
0.019578
0.0193824
0.0191974
0.0190218
0.0188543
0.0186938
0.0185395
0.0183905
0.0182458
0.0181047
0.0179663
0.0178298
0.0176944
0.017559
0.0174228
0.0172845
0.0171431
0.0169969
0.0168444
0.0166845
0.0165131
0.0163327
0.0161319
0.0159248
0.0156821
0.0154467
0.0151539
0.0149063
0.0146306
0.0143331
0.0833317
0.045488
0.0293379
0.0284179
0.0280667
0.0266113
0.0253363
0.0244607
0.0237796
0.0231896
0.0226696
0.0222107
0.0218027
0.0214363
0.0211042
0.0208011
0.0205227
0.0202655
0.0200267
0.0198038
0.0195949
0.0193982
0.0192122
0.0190357
0.0188674
0.0187063
0.0185514
0.0184018
0.0182567
0.0181152
0.0179766
0.0178399
0.0177044
0.017569
0.017433
0.0172949
0.0171539
0.0170084
0.0168567
0.016698
0.0165283
0.01635
0.0161525
0.0159485
0.0157123
0.0154804
0.0152025
0.0149538
0.0146971
0.0143681
0.080767
0.0460032
0.0299535
0.0286214
0.0282227
0.0267513
0.0254346
0.0245335
0.0238409
0.0232428
0.0227156
0.022251
0.0218385
0.0214685
0.0211334
0.0208278
0.0205472
0.0202881
0.0200476
0.0198233
0.0196131
0.0194153
0.0192283
0.0190509
0.0188818
0.01872
0.0185645
0.0184144
0.0182689
0.018127
0.0179881
0.0178512
0.0177156
0.0175803
0.0174444
0.0173067
0.0171661
0.0170215
0.0168708
0.0167137
0.016546
0.0163702
0.0161766
0.0159764
0.0157481
0.0155211
0.015259
0.0150134
0.0147723
0.0144314
0.0782722
0.0464312
0.0305582
0.0288178
0.02837
0.0268911
0.0255349
0.0246071
0.0239027
0.0232967
0.0227626
0.0222923
0.0218753
0.0215016
0.0211635
0.0208554
0.0205726
0.0203116
0.0200695
0.0198437
0.0196323
0.0194333
0.0192454
0.0190671
0.0188972
0.0187347
0.0185786
0.018428
0.018282
0.0181398
0.0180006
0.0178636
0.0177279
0.0175927
0.017457
0.0173198
0.0171798
0.0170361
0.0168868
0.0167314
0.016566
0.0163932
0.0162041
0.0160085
0.0157889
0.0155684
0.0153229
0.0150846
0.0148574
0.0145218
0.0758499
0.0467728
0.0311493
0.0290085
0.0285082
0.02703
0.0256371
0.0246817
0.023965
0.0233513
0.0228103
0.0223342
0.0219127
0.0215354
0.0211944
0.0208837
0.0205987
0.0203359
0.0200921
0.0198649
0.0196522
0.0194522
0.0192632
0.019084
0.0189134
0.0187502
0.0185935
0.0184424
0.0182959
0.0181534
0.018014
0.0178769
0.0177412
0.0176061
0.0174707
0.017334
0.0171948
0.0170521
0.0169042
0.0167508
0.0165882
0.0164187
0.0162347
0.0160443
0.0158342
0.0156218
0.0153932
0.0151661
0.0149528
0.0146365
0.0735025
0.0470296
0.0317238
0.0291951
0.0286368
0.0271669
0.0257412
0.0247572
0.0240278
0.0234064
0.0228586
0.0223768
0.0219507
0.0215698
0.0212257
0.0209125
0.0206254
0.0203607
0.0201153
0.0198867
0.0196727
0.0194716
0.0192816
0.0191016
0.0189301
0.0187663
0.018609
0.0184574
0.0183105
0.0181677
0.0180281
0.0178909
0.0177552
0.0176203
0.0174853
0.0173491
0.0172108
0.0170694
0.0169231
0.0167718
0.0166122
0.0164463
0.0162679
0.0160834
0.0158834
0.0156806
0.0154688
0.0152562
0.0150584
0.0147722
0.0712318
0.0472031
0.0322783
0.0293791
0.0287558
0.0273009
0.0258469
0.0248337
0.0240908
0.023462
0.0229075
0.0224199
0.0219893
0.0216047
0.0212577
0.0209419
0.0206526
0.020386
0.020139
0.019909
0.0196937
0.0194914
0.0193005
0.0191196
0.0189474
0.0187828
0.018625
0.0184729
0.0183257
0.0181826
0.0180428
0.0179055
0.0177699
0.0176352
0.0175006
0.0173651
0.0172277
0.0170876
0.0169431
0.0167942
0.0166378
0.0164758
0.0163033
0.0161252
0.0159357
0.0157436
0.0155487
0.0153534
0.0151734
0.014925
0.0690396
0.0472956
0.0328098
0.0295618
0.0288651
0.0274309
0.0259538
0.0249112
0.0241541
0.023518
0.022957
0.0224637
0.0220284
0.0216401
0.0212901
0.0209717
0.0206803
0.0204118
0.0201631
0.0199316
0.0197151
0.0195117
0.0193198
0.019138
0.018965
0.0187998
0.0186414
0.0184888
0.0183412
0.0181979
0.0180579
0.0179205
0.0177851
0.0176507
0.0175165
0.0173818
0.0172454
0.0171067
0.0169641
0.0168176
0.0166648
0.0165069
0.0163405
0.0161695
0.0159906
0.0158103
0.0156322
0.0154561
0.0152967
0.0150914
0.066927
0.0473098
0.0333152
0.0297443
0.028965
0.027556
0.0260616
0.0249897
0.0242176
0.0235742
0.0230071
0.0225079
0.022068
0.0216761
0.0213229
0.021002
0.0207084
0.020438
0.0201877
0.0199547
0.0197369
0.0195324
0.0193395
0.0191568
0.0189831
0.0188172
0.0186582
0.0185052
0.0183572
0.0182136
0.0180735
0.0179361
0.0178008
0.0176667
0.017533
0.017399
0.0172637
0.0171265
0.016986
0.0168421
0.0166929
0.0165394
0.0163794
0.0162157
0.0160476
0.0158798
0.0157185
0.0155631
0.015427
0.0152683
0.0648948
0.0472489
0.0337914
0.0299272
0.0290558
0.0276752
0.0261698
0.0250692
0.0242813
0.0236307
0.0230575
0.0225528
0.0221081
0.0217125
0.0213563
0.0210328
0.0207369
0.0204646
0.0202126
0.0199782
0.0197592
0.0195535
0.0193596
0.019176
0.0190015
0.018835
0.0186754
0.0185219
0.0183736
0.0182297
0.0180894
0.0179521
0.0178169
0.0176831
0.01755
0.0174169
0.0172827
0.0171471
0.0170087
0.0168675
0.016722
0.0165732
0.0164196
0.0162637
0.0161064
0.0159517
0.0158072
0.0156735
0.0155631
0.0154528
0.0629434
0.0471166
0.0342355
0.0301111
0.029138
0.0277876
0.0262779
0.0251496
0.0243451
0.0236872
0.0231084
0.0225981
0.0221488
0.0217494
0.0213901
0.0210641
0.0207659
0.0204917
0.020238
0.0200021
0.0197818
0.019575
0.01938
0.0191956
0.0190203
0.0188531
0.018693
0.018539
0.0183903
0.0182462
0.0181058
0.0179685
0.0178335
0.0177001
0.0175676
0.0174353
0.0173023
0.0171683
0.0170321
0.0168938
0.0167522
0.0166081
0.0164611
0.0163132
0.0161668
0.0160255
0.015898
0.0157865
0.0157038
0.0156426
0.0610725
0.0469171
0.0346447
0.0302961
0.0292125
0.0278924
0.0263851
0.025231
0.0244091
0.0237438
0.0231596
0.0226438
0.0221898
0.0217867
0.0214244
0.0210957
0.0207954
0.0205192
0.0202638
0.0200265
0.0198048
0.0195968
0.0194009
0.0192155
0.0190395
0.0188716
0.0187109
0.0185565
0.0184075
0.0182631
0.0181226
0.0179853
0.0178505
0.0177175
0.0175856
0.0174542
0.0173226
0.0171902
0.0170564
0.016921
0.0167833
0.0166442
0.0165039
0.0163642
0.0162287
0.016101
0.0159905
0.0159016
0.0158481
0.0158357
0.0592819
0.0466548
0.0350163
0.0304817
0.02928
0.0279888
0.0264908
0.0253131
0.0244731
0.0238002
0.0232109
0.02269
0.0222313
0.0218244
0.0214591
0.0211278
0.0208252
0.0205471
0.0202901
0.0200512
0.0198282
0.0196191
0.0194221
0.0192359
0.019059
0.0188905
0.0187292
0.0185743
0.018425
0.0182804
0.0181398
0.0180025
0.0178679
0.0177354
0.0176041
0.0174737
0.0173434
0.0172128
0.0170813
0.016949
0.0168154
0.0166813
0.0165477
0.0164165
0.0162919
0.016178
0.0160845
0.0160184
0.0159949
0.0160302
0.0575705
0.0463347
0.0353481
0.0306674
0.0293415
0.0280766
0.0265941
0.0253959
0.0245372
0.0238565
0.0232624
0.0227365
0.0222732
0.0218626
0.0214942
0.0211604
0.0208555
0.0205755
0.0203167
0.0200764
0.019852
0.0196418
0.0194438
0.0192566
0.019079
0.0189098
0.0187479
0.0185926
0.0184429
0.0182981
0.0181574
0.0180202
0.0178859
0.0177538
0.0176232
0.0174938
0.0173649
0.0172361
0.0171071
0.0169778
0.0168484
0.0167195
0.0165927
0.0164701
0.0163563
0.0162563
0.0161799
0.0161365
0.0161431
0.0162243
0.0559371
0.045962
0.0356379
0.030852
0.029398
0.0281552
0.0266943
0.025479
0.0246014
0.0239125
0.0233139
0.0227833
0.0223155
0.0219011
0.0215297
0.0211933
0.0208862
0.0206042
0.0203437
0.0201019
0.0198763
0.0196648
0.0194658
0.0192777
0.0190993
0.0189294
0.018767
0.0186112
0.0184612
0.0183162
0.0181754
0.0180384
0.0179043
0.0177726
0.0176428
0.0175145
0.017387
0.0172601
0.0171336
0.0170075
0.0168823
0.0167588
0.0166388
0.0165248
0.0164219
0.0163356
0.0162763
0.0162553
0.0162918
0.0164163
0.0543801
0.0455422
0.0358842
0.0310339
0.0294504
0.0282247
0.0267903
0.0255621
0.0246658
0.023968
0.0233653
0.0228303
0.0223581
0.02194
0.0215655
0.0212266
0.0209173
0.0206334
0.0203712
0.0201278
0.0199009
0.0196883
0.0194882
0.0192992
0.0191201
0.0189495
0.0187865
0.0186303
0.0184799
0.0183347
0.0181939
0.0180569
0.0179232
0.017792
0.017663
0.0175357
0.0174097
0.0172848
0.0171608
0.0170381
0.0169171
0.016799
0.0166858
0.0165805
0.0164885
0.0164158
0.0163735
0.0163743
0.0164398
0.0166047
0.0528975
0.045081
0.0360857
0.0312115
0.0294999
0.0282851
0.0268813
0.0256448
0.0247302
0.0240232
0.0234164
0.0228774
0.022401
0.0219791
0.0216017
0.0212602
0.0209488
0.0206629
0.020399
0.0201542
0.0199259
0.0197121
0.019511
0.0193212
0.0191412
0.0189699
0.0188064
0.0186498
0.0184991
0.0183537
0.0182128
0.018076
0.0179425
0.0178119
0.0176837
0.0175575
0.0174331
0.0173102
0.0171888
0.0170695
0.0169528
0.0168401
0.0167339
0.0166372
0.0165559
0.0164967
0.016471
0.0164931
0.0165863
0.016788
0.0514871
0.0445839
0.0362415
0.0313824
0.0295472
0.0283366
0.0269666
0.0257266
0.0247946
0.0240779
0.0234672
0.0229246
0.022444
0.0220186
0.0216382
0.0212942
0.0209806
0.0206928
0.0204272
0.0201809
0.0199513
0.0197363
0.0195342
0.0193434
0.0191627
0.0189908
0.0188267
0.0186696
0.0185186
0.0183731
0.0182322
0.0180955
0.0179624
0.0178323
0.017705
0.01758
0.0174571
0.0173362
0.0172176
0.0171016
0.0169893
0.0168822
0.0167828
0.0166948
0.0166241
0.0165781
0.0165686
0.016611
0.0167301
0.0169648
0.0501464
0.0440568
0.0363515
0.0315443
0.0295932
0.0283798
0.0270453
0.025807
0.0248589
0.0241321
0.0235174
0.0229717
0.0224873
0.0220582
0.0216749
0.0213285
0.0210127
0.020723
0.0204558
0.020208
0.0199771
0.0197609
0.0195578
0.0193661
0.0191846
0.019012
0.0188474
0.0186899
0.0185386
0.0183929
0.018252
0.0181155
0.0179827
0.0178533
0.0177268
0.017603
0.0174817
0.017363
0.0172471
0.0171346
0.0170267
0.016925
0.0168326
0.0167531
0.0166928
0.0166596
0.0166657
0.0167274
0.0168704
0.0171338
0.0488727
0.0435051
0.0364158
0.0316945
0.0296384
0.0284153
0.0271168
0.0258852
0.024923
0.0241857
0.0235671
0.0230185
0.0225306
0.0220981
0.0217118
0.021363
0.0210452
0.0207536
0.0204847
0.0202354
0.0200032
0.0197859
0.0195818
0.0193892
0.0192069
0.0190337
0.0188686
0.0187106
0.018559
0.0184131
0.0182723
0.0181359
0.0180035
0.0178747
0.0177492
0.0176266
0.017507
0.0173904
0.0172773
0.0171683
0.0170648
0.0169687
0.016883
0.0168119
0.0167618
0.016741
0.016762
0.0168416
0.0170062
0.0172941
0.0476632
0.0429342
0.0364354
0.0318305
0.0296829
0.0284438
0.0271806
0.0259607
0.0249867
0.0242388
0.023616
0.023065
0.0225739
0.0221381
0.021749
0.0213978
0.0210779
0.0207845
0.020514
0.0202632
0.0200297
0.0198113
0.0196061
0.0194127
0.0192296
0.0190557
0.0188901
0.0187317
0.0185799
0.0184339
0.018293
0.0181569
0.0180249
0.0178967
0.0177721
0.0176508
0.0175329
0.0174185
0.0173082
0.0172028
0.0171037
0.017013
0.016934
0.0168711
0.0168309
0.0168219
0.016857
0.0169531
0.0171366
0.0174445
0.0465148
0.0423492
0.0364114
0.0319499
0.0297268
0.028466
0.0272365
0.0260326
0.0250497
0.0242912
0.0236642
0.023111
0.0226171
0.0221781
0.0217862
0.0214328
0.0211108
0.0208157
0.0205435
0.0202913
0.0200565
0.019837
0.0196308
0.0194365
0.0192527
0.0190782
0.018912
0.0187532
0.0186011
0.018455
0.0183142
0.0181783
0.0180467
0.0179193
0.0177956
0.0176756
0.0175595
0.0174473
0.0173398
0.0172379
0.0171432
0.0170579
0.0169856
0.0169306
0.0168999
0.0169022
0.0169503
0.0170613
0.0172609
0.0175843
0.0454246
0.0417546
0.0363459
0.0320506
0.0297693
0.0284828
0.0272842
0.0261002
0.0251117
0.0243429
0.0237114
0.0231564
0.0226601
0.0222181
0.0218236
0.0214678
0.021144
0.0208471
0.0205733
0.0203198
0.0200837
0.019863
0.0196559
0.0194607
0.0192761
0.019101
0.0189343
0.0187752
0.0186228
0.0184766
0.0183359
0.0182002
0.0180691
0.0179423
0.0178197
0.017701
0.0175866
0.0174767
0.017372
0.0172737
0.0171833
0.0171034
0.0170374
0.0169902
0.0169685
0.0169813
0.0170413
0.0171654
0.0173783
0.0177129
0.0443895
0.0411546
0.036241
0.0321305
0.0298098
0.0284949
0.0273237
0.0261628
0.0251721
0.0243939
0.0237577
0.023201
0.0227027
0.0222581
0.0218609
0.021503
0.0211773
0.0208787
0.0206034
0.0203485
0.0201112
0.0198894
0.0196813
0.0194853
0.0193
0.0191242
0.018957
0.0187975
0.018645
0.0184986
0.018358
0.0182226
0.018092
0.0179659
0.0178443
0.017727
0.0176143
0.0175067
0.0174048
0.01731
0.0172239
0.0171492
0.0170895
0.0170496
0.0170365
0.0170589
0.0171297
0.0172649
0.0174883
0.0178297
0.0434063
0.0405529
0.0360994
0.0321883
0.0298471
0.0285029
0.0273553
0.0262199
0.0252306
0.0244441
0.0238029
0.0232447
0.0227449
0.0222979
0.0218982
0.0215382
0.0212107
0.0209105
0.0206337
0.0203774
0.020139
0.0199161
0.019707
0.0195102
0.0193241
0.0191478
0.0189801
0.0188203
0.0186675
0.0185211
0.0183806
0.0182454
0.0181153
0.01799
0.0178694
0.0177535
0.0176426
0.0175372
0.0174382
0.0173468
0.017265
0.0171953
0.0171416
0.0171087
0.0171035
0.0171348
0.0172149
0.0173594
0.0175903
0.0179345
0.0424722
0.0399528
0.0359244
0.0322227
0.0298799
0.0285073
0.0273792
0.0262709
0.0252866
0.0244932
0.0238471
0.0232874
0.0227865
0.0223374
0.0219355
0.0215734
0.0212442
0.0209424
0.0206643
0.0204066
0.020167
0.0199431
0.0197331
0.0195354
0.0193487
0.0191718
0.0190036
0.0188434
0.0186904
0.018544
0.0184036
0.0182687
0.0181391
0.0180146
0.0178951
0.0177806
0.0176715
0.0175683
0.0174721
0.0173841
0.0173064
0.0172416
0.0171935
0.0171672
0.0171693
0.0172085
0.0172966
0.0174483
0.0176839
0.018027
0.0415841
0.0393572
0.035719
0.032233
0.0299066
0.0285085
0.027396
0.0263153
0.0253396
0.024541
0.02389
0.023329
0.0228272
0.0223765
0.0219725
0.0216086
0.0212777
0.0209744
0.0206949
0.020436
0.0201953
0.0199703
0.0197594
0.019561
0.0193736
0.0191961
0.0190275
0.018867
0.0187138
0.0185673
0.018427
0.0182925
0.0181635
0.0180397
0.0179212
0.0178081
0.0177008
0.0175999
0.0175064
0.0174218
0.017348
0.0172879
0.0172452
0.0172249
0.0172336
0.0172797
0.0173743
0.0175313
0.0177687
0.0181073
0.0407391
0.0387682
0.0354867
0.0322188
0.0299258
0.0285065
0.0274061
0.0263528
0.0253889
0.0245873
0.0239318
0.0233693
0.0228671
0.0224151
0.0220093
0.0216435
0.0213111
0.0210065
0.0207257
0.0204656
0.0202237
0.0199978
0.0197861
0.0195868
0.0193988
0.0192207
0.0190517
0.0188909
0.0187376
0.0185911
0.0184509
0.0183167
0.0181882
0.0180653
0.0179479
0.0178362
0.0177306
0.0176319
0.0175411
0.0174597
0.0173897
0.017334
0.0172963
0.0172816
0.0172961
0.017348
0.0174477
0.0176079
0.0178446
0.0181754
0.0399346
0.038188
0.0352309
0.0321801
0.0299358
0.0285012
0.0274099
0.0263834
0.0254339
0.0246317
0.0239722
0.0234083
0.0229059
0.0224531
0.0220457
0.0216783
0.0213444
0.0210385
0.0207565
0.0204953
0.0202524
0.0200255
0.0198129
0.019613
0.0194243
0.0192457
0.0190763
0.0189152
0.0187617
0.0186152
0.0184752
0.0183414
0.0182134
0.0180913
0.0179749
0.0178647
0.0177609
0.0176643
0.0175761
0.0174978
0.0174314
0.0173799
0.0173468
0.017337
0.0173566
0.0174132
0.0175166
0.0176779
0.0179115
0.0182317
0.039168
0.037618
0.0349549
0.0321174
0.0299352
0.0284924
0.0274081
0.0264069
0.0254743
0.0246738
0.0240111
0.0234459
0.0229435
0.0224903
0.0220816
0.0217128
0.0213776
0.0210705
0.0207873
0.0205251
0.0202812
0.0200534
0.01984
0.0196393
0.0194501
0.019271
0.0191012
0.0189399
0.0187862
0.0186397
0.0184999
0.0183665
0.0182391
0.0181177
0.0180025
0.0178936
0.0177915
0.017697
0.0176114
0.017536
0.017473
0.0174253
0.0173964
0.017391
0.0174148
0.017475
0.0175805
0.0177412
0.0179693
0.0182765
0.0384368
0.0370594
0.0346619
0.0320316
0.0299227
0.0284796
0.0274009
0.0264235
0.0255095
0.0247133
0.0240484
0.0234819
0.0229798
0.0225265
0.022117
0.0217469
0.0214104
0.0211023
0.0208181
0.0205549
0.02031
0.0200815
0.0198673
0.019666
0.0194761
0.0192966
0.0191264
0.0189648
0.0188111
0.0186646
0.018525
0.0183919
0.0182651
0.0181446
0.0180304
0.0179228
0.0178224
0.01773
0.0176467
0.0175741
0.0175144
0.0174701
0.017445
0.0174432
0.0174704
0.0175331
0.0176392
0.0177976
0.0180182
0.0183102
0.0377388
0.036513
0.0343549
0.0319237
0.0298974
0.028462
0.0273888
0.0264334
0.0255392
0.0247496
0.0240838
0.0235164
0.0230147
0.0225617
0.0221516
0.0217805
0.021443
0.0211338
0.0208488
0.0205846
0.020339
0.0201096
0.0198947
0.0196928
0.0195024
0.0193224
0.0191519
0.0189901
0.0188363
0.0186899
0.0185505
0.0184178
0.0182915
0.0181718
0.0180586
0.0179524
0.0178536
0.0177632
0.0176822
0.0176122
0.0175553
0.0175142
0.0174922
0.0174936
0.0175233
0.0175873
0.0176927
0.017847
0.0180584
0.0183334
0.0370718
0.0359795
0.0340368
0.0317952
0.0298584
0.0284389
0.0273718
0.0264367
0.025563
0.0247824
0.0241172
0.0235491
0.023048
0.0225957
0.0221855
0.0218135
0.0214751
0.0211651
0.0208792
0.0206143
0.0203679
0.0201378
0.0199223
0.0197197
0.0195288
0.0193485
0.0191777
0.0190157
0.0188618
0.0187154
0.0185763
0.0184439
0.0183183
0.0181993
0.0180872
0.0179823
0.017885
0.0177964
0.0177175
0.01765
0.0175957
0.0175573
0.0175381
0.0175418
0.0175731
0.0176374
0.0177408
0.0178896
0.01809
0.0183468
0.0364338
0.0354592
0.03371
0.0316476
0.0298054
0.0284095
0.0273502
0.0264338
0.0255809
0.0248112
0.0241481
0.0235799
0.0230796
0.0226283
0.0222183
0.0218459
0.0215068
0.021196
0.0209095
0.0206439
0.0203967
0.020166
0.0199499
0.0197468
0.0195555
0.0193747
0.0192037
0.0190415
0.0188876
0.0187413
0.0186023
0.0184704
0.0183454
0.0182272
0.018116
0.0180123
0.0179166
0.0178297
0.0177528
0.0176874
0.0176354
0.0175994
0.0175823
0.0175877
0.0176198
0.0176833
0.0177835
0.0179253
0.0181136
0.018351
0.035823
0.0349524
0.0333767
0.0314826
0.029738
0.0283731
0.0273237
0.0264248
0.0255927
0.0248356
0.0241764
0.0236088
0.0231094
0.0226593
0.02225
0.0218774
0.0215378
0.0212265
0.0209394
0.0206732
0.0204255
0.0201942
0.0199775
0.019774
0.0195822
0.0194012
0.0192299
0.0190675
0.0189136
0.0187674
0.0186287
0.0184972
0.0183727
0.0182552
0.0181451
0.0180425
0.0179482
0.0178629
0.0177877
0.0177243
0.0176743
0.0176402
0.0176247
0.0176311
0.0176631
0.0177249
0.0178207
0.0179544
0.0181295
0.0183469
0.0352377
0.034459
0.0330391
0.0313021
0.0296564
0.0283288
0.0272924
0.0264101
0.0255984
0.0248554
0.0242016
0.0236354
0.0231373
0.0226888
0.0222804
0.0219081
0.0215682
0.0212565
0.0209689
0.0207023
0.0204541
0.0202223
0.0200051
0.0198012
0.0196091
0.0194277
0.0192562
0.0190938
0.0189398
0.0187938
0.0186553
0.0185242
0.0184002
0.0182835
0.0181742
0.0180728
0.0179797
0.0178959
0.0178223
0.0177606
0.0177123
0.0176796
0.0176652
0.0176719
0.017703
0.0177621
0.0178525
0.0179771
0.0181381
0.0183352
0.0346763
0.033979
0.0326988
0.0311077
0.0295609
0.0282762
0.0272557
0.0263899
0.025598
0.0248702
0.0242234
0.0236597
0.0231632
0.0227164
0.0223094
0.0219376
0.0215977
0.0212858
0.0209979
0.020731
0.0204824
0.0202502
0.0200327
0.0198284
0.0196359
0.0194543
0.0192827
0.0191202
0.0189662
0.0188203
0.0186821
0.0185513
0.0184279
0.0183119
0.0182035
0.0181031
0.0180112
0.0179286
0.0178565
0.0177961
0.0177491
0.0177175
0.0177036
0.01771
0.0177395
0.0177949
0.017879
0.0179937
0.0181401
0.0183166
0.0341373
0.0335123
0.0323574
0.0309013
0.0294519
0.0282146
0.0272136
0.0263642
0.0255917
0.0248798
0.0242416
0.0236814
0.0231869
0.0227422
0.0223368
0.021966
0.0216263
0.0213144
0.0210264
0.0207592
0.0205104
0.0202779
0.0200601
0.0198555
0.0196628
0.019481
0.0193092
0.0191466
0.0189927
0.018847
0.018709
0.0185786
0.0184557
0.0183404
0.0182328
0.0181333
0.0180424
0.017961
0.0178901
0.0178308
0.0177848
0.0177537
0.0177398
0.0177452
0.0177723
0.0178234
0.0179004
0.0180046
0.0181359
0.0182921
0.0336195
0.0330586
0.0320161
0.0306846
0.0293302
0.0281438
0.0271656
0.0263331
0.0255796
0.0248842
0.0242559
0.0237002
0.0232083
0.0227659
0.0223626
0.021993
0.0216539
0.0213422
0.0210542
0.020787
0.020538
0.0203053
0.0200873
0.0198824
0.0196896
0.0195076
0.0193358
0.0191732
0.0190193
0.0188737
0.018736
0.018606
0.0184836
0.0183689
0.018262
0.0181633
0.0180734
0.017993
0.0179229
0.0178645
0.0178191
0.0177882
0.0177737
0.0177775
0.0178016
0.0178476
0.0179169
0.01801
0.0181261
0.0182624
0.0331215
0.0326177
0.031676
0.0304591
0.0291965
0.0280636
0.0271114
0.0262968
0.0255617
0.0248831
0.0242659
0.0237159
0.0232273
0.0227875
0.0223865
0.0220185
0.0216803
0.021369
0.0210813
0.0208141
0.0205652
0.0203324
0.0201142
0.0199092
0.0197162
0.0195342
0.0193623
0.0191997
0.0190459
0.0189005
0.0187631
0.0186334
0.0185115
0.0183973
0.0182911
0.0181931
0.018104
0.0180243
0.017955
0.0178971
0.0178519
0.0178208
0.0178052
0.0178069
0.0178273
0.0178677
0.0179288
0.0180105
0.0181114
0.0182283
0.0326422
0.0321892
0.031338
0.0302264
0.0290518
0.027974
0.0270506
0.026255
0.0255383
0.0248766
0.0242714
0.0237283
0.0232436
0.0228069
0.0224084
0.0220423
0.0217054
0.0213948
0.0211074
0.0208406
0.0205917
0.020359
0.0201408
0.0199358
0.0197427
0.0195607
0.0193887
0.0192262
0.0190725
0.0189273
0.0187901
0.0186608
0.0185393
0.0184256
0.01832
0.0182226
0.0181341
0.0180551
0.0179862
0.0179286
0.0178832
0.0178514
0.0178343
0.0178333
0.0178495
0.0178838
0.0179362
0.0180064
0.0180923
0.0181904
0.0321806
0.0317728
0.031003
0.0299877
0.0288971
0.0278751
0.0269831
0.0262077
0.0255094
0.0248647
0.0242723
0.0237371
0.0232571
0.0228238
0.0224282
0.0220645
0.0217291
0.0214194
0.0211327
0.0208662
0.0206176
0.0203851
0.0201669
0.019962
0.0197689
0.0195869
0.019415
0.0192526
0.019099
0.018954
0.0188171
0.0186881
0.0185669
0.0184537
0.0183485
0.0182517
0.0181637
0.018085
0.0180164
0.0179587
0.0179129
0.0178799
0.0178609
0.0178568
0.0178684
0.017896
0.0179396
0.0179982
0.0180694
0.0181497
0.0317356
0.0313682
0.0306716
0.0297444
0.0287333
0.0277672
0.0269087
0.0261548
0.025475
0.0248474
0.0242684
0.0237421
0.0232675
0.0228382
0.0224458
0.0220847
0.0217511
0.0214427
0.0211568
0.0208909
0.0206428
0.0204105
0.0201926
0.0199877
0.0197948
0.0196129
0.0194411
0.0192788
0.0191254
0.0189805
0.0188439
0.0187152
0.0185944
0.0184815
0.0183768
0.0182803
0.0181926
0.0181141
0.0180455
0.0179875
0.0179408
0.0179064
0.017885
0.0178774
0.0178839
0.0179047
0.0179393
0.0179863
0.0180433
0.0181066
0.0313064
0.0309751
0.0303442
0.0294976
0.0285614
0.0276507
0.0268272
0.0260963
0.0254353
0.0248247
0.0242597
0.023743
0.0232748
0.0228498
0.0224611
0.0221028
0.0217715
0.0214646
0.0211798
0.0209147
0.0206671
0.0204353
0.0202177
0.020013
0.0198203
0.0196385
0.0194669
0.0193047
0.0191515
0.0190069
0.0188704
0.018742
0.0186215
0.018509
0.0184045
0.0183083
0.0182208
0.0181423
0.0180734
0.0180148
0.017967
0.0179308
0.0179067
0.0178951
0.0178963
0.0179101
0.0179355
0.0179712
0.0180145
0.0180619
0.0308921
0.030593
0.0300213
0.0292482
0.0283825
0.0275261
0.0267388
0.026032
0.0253902
0.0247968
0.0242461
0.0237399
0.0232786
0.0228587
0.0224739
0.0221188
0.02179
0.0214849
0.0212014
0.0209373
0.0206905
0.0204592
0.0202421
0.0200378
0.0198453
0.0196637
0.0194923
0.0193303
0.0191773
0.0190329
0.0188967
0.0187685
0.0186483
0.018536
0.0184317
0.0183357
0.0182481
0.0181694
0.0181001
0.0180406
0.0179914
0.017953
0.0179258
0.0179101
0.0179057
0.0179123
0.0179288
0.0179534
0.0179836
0.018016
0.030492
0.0302217
0.0297032
0.0289973
0.0281974
0.0273939
0.0266435
0.0259619
0.0253398
0.0247636
0.0242275
0.0237324
0.0232789
0.0228645
0.022484
0.0221325
0.0218065
0.0215036
0.0212217
0.0209587
0.0207128
0.0204823
0.0202657
0.0200618
0.0198697
0.0196884
0.0195172
0.0193555
0.0192028
0.0190586
0.0189226
0.0187946
0.0186746
0.0185625
0.0184583
0.0183622
0.0182745
0.0181955
0.0181254
0.0180648
0.0180139
0.0179731
0.0179426
0.0179225
0.0179124
0.0179117
0.0179193
0.0179333
0.0179511
0.0179696
0.0301052
0.0298608
0.0293903
0.0287456
0.0280071
0.0272547
0.0265414
0.025886
0.0252841
0.0247253
0.024204
0.0237205
0.0232755
0.0228672
0.0224915
0.0221438
0.021821
0.0215204
0.0212403
0.0209788
0.020734
0.0205043
0.0202884
0.0200851
0.0198934
0.0197125
0.0195417
0.0193803
0.0192277
0.0190838
0.018948
0.0188202
0.0187003
0.0185883
0.0184841
0.018388
0.0183
0.0182203
0.0181494
0.0180874
0.0180346
0.0179912
0.0179571
0.0179324
0.0179165
0.0179086
0.0179075
0.0179113
0.0179175
0.0179231
0.0297312
0.02951
0.0290827
0.0284938
0.0278125
0.0271092
0.0264329
0.0258043
0.0252231
0.0246818
0.0241756
0.0237042
0.0232682
0.0228666
0.022496
0.0221526
0.0218331
0.0215353
0.0212573
0.0209974
0.0207539
0.0205253
0.0203102
0.0201076
0.0199164
0.019736
0.0195655
0.0194044
0.0192522
0.0191084
0.0189729
0.0188453
0.0187255
0.0186135
0.0185092
0.0184128
0.0183243
0.018244
0.0181719
0.0181084
0.0180534
0.0180071
0.0179694
0.0179399
0.0179182
0.0179032
0.0178937
0.0178878
0.0178831
0.0178769
0.0293693
0.0291688
0.0287806
0.0282425
0.0276144
0.0269579
0.0263182
0.0257169
0.0251569
0.0246333
0.0241423
0.0236833
0.023257
0.0228626
0.0224976
0.0221587
0.021843
0.0215481
0.0212725
0.0210144
0.0207724
0.020545
0.0203309
0.0201291
0.0199386
0.0197587
0.0195886
0.0194279
0.019276
0.0191325
0.0189971
0.0188696
0.0187499
0.0186378
0.0185334
0.0184366
0.0183475
0.0182663
0.018193
0.0181277
0.0180704
0.0180211
0.0179795
0.0179453
0.0179177
0.0178958
0.0178782
0.0178632
0.0178484
0.0178314
0.029019
0.0288372
0.0284842
0.0279924
0.0274134
0.0268015
0.0261978
0.025624
0.0250855
0.0245798
0.0241042
0.0236579
0.0232416
0.022855
0.022496
0.022162
0.0218503
0.0215588
0.0212858
0.0210298
0.0207894
0.0205634
0.0203504
0.0201495
0.0199598
0.0197805
0.0196109
0.0194506
0.019299
0.0191558
0.0190206
0.0188932
0.0187735
0.0186613
0.0185566
0.0184593
0.0183696
0.0182873
0.0182126
0.0181454
0.0180856
0.0180332
0.0179877
0.0179487
0.0179154
0.0178868
0.0178615
0.0178379
0.0178138
0.0177869
0.0286796
0.0285146
0.0281934
0.0277438
0.0272104
0.0266407
0.026072
0.0255258
0.025009
0.0245215
0.0240613
0.023628
0.0232222
0.0228438
0.0224913
0.0221625