/*--------------------------------*- C++ -*----------------------------------*\
  =========                 |
  \\      /  F ield         | OpenFOAM: The Open Source CFD Toolbox
   \\    /   O peration     | Website:  https://openfoam.org
    \\  /    A nd           | Version:  7
     \\/     M anipulation  |
\*---------------------------------------------------------------------------*/
FoamFile
{
    version     2.0;
    format      ascii;
    class       surfaceScalarField;
    location    "0.4";
    object      phi_0;
}
// * * * * * * * * * * * * * * * * * * * * * * * * * * * * * * * * * * * * * //

dimensions      [0 3 -1 0 0 0 0];

internalField   nonuniform List<scalar> 
139350
(
6.45928e-08
9.20387e-08
3.19523e-08
3.26405e-08
2.30627e-08
8.88965e-09
1.95701e-08
3.49259e-09
1.76202e-08
1.9499e-09
1.61945e-08
1.42564e-09
1.50634e-08
1.1311e-09
1.41513e-08
9.121e-10
1.34006e-08
7.50691e-10
1.27682e-08
6.32427e-10
1.22252e-08
5.42983e-10
1.17524e-08
4.72869e-10
1.13359e-08
4.16458e-10
1.09657e-08
3.70218e-10
1.06339e-08
3.31745e-10
1.03346e-08
2.99321e-10
1.00629e-08
2.71686e-10
9.81504e-09
2.47899e-10
9.58779e-09
2.27246e-10
9.37862e-09
2.09174e-10
9.18537e-09
1.9325e-10
9.00624e-09
1.79129e-10
8.83971e-09
1.66535e-10
8.68447e-09
1.5524e-10
8.53941e-09
1.45056e-10
8.40358e-09
1.35829e-10
8.27615e-09
1.27426e-10
8.15642e-09
1.19736e-10
8.04376e-09
1.12656e-10
7.93765e-09
1.06113e-10
7.83764e-09
1.0001e-10
7.74333e-09
9.43128e-11
7.65443e-09
8.89007e-11
7.57062e-09
8.38036e-11
7.49181e-09
7.88153e-11
7.41771e-09
7.40941e-11
7.34847e-09
6.92477e-11
7.28382e-09
6.46498e-11
7.22419e-09
5.96302e-11
7.16942e-09
5.47648e-11
7.12016e-09
4.92641e-11
7.07682e-09
4.33379e-11
7.03953e-09
3.72839e-11
7.01116e-09
2.83774e-11
6.98811e-09
2.3049e-11
6.9829e-09
5.2059e-12
6.97197e-09
1.09316e-11
7.02392e-09
-5.19537e-11
6.85488e-09
1.69048e-10
-3.2379e-09
1.00928e-08
1.26026e-07
1.27456e-07
9.12658e-08
6.74009e-08
7.19486e-08
2.82069e-08
6.12262e-08
1.4215e-08
5.47849e-08
8.39116e-09
5.02962e-08
5.91438e-09
4.68169e-08
4.61034e-09
4.40056e-08
3.72346e-09
4.16828e-08
3.07344e-09
3.9724e-08
2.59128e-09
3.8042e-08
2.225e-09
3.65768e-08
1.93803e-09
3.52859e-08
1.70733e-09
3.41379e-08
1.51827e-09
3.31087e-08
1.36095e-09
3.21797e-08
1.22833e-09
3.13361e-08
1.11529e-09
3.0566e-08
1.01797e-09
2.98598e-08
9.33462e-10
2.92094e-08
8.59513e-10
2.86083e-08
7.94355e-10
2.80509e-08
7.36581e-10
2.75323e-08
6.85058e-10
2.70487e-08
6.38861e-10
2.65966e-08
5.9723e-10
2.61729e-08
5.59525e-10
2.57751e-08
5.25212e-10
2.5401e-08
4.93837e-10
2.50486e-08
4.65001e-10
2.47164e-08
4.38377e-10
2.44027e-08
4.13633e-10
2.41065e-08
3.90552e-10
2.38266e-08
3.6878e-10
2.35622e-08
3.48267e-10
2.33125e-08
3.28459e-10
2.3077e-08
3.09648e-10
2.28555e-08
2.90744e-10
2.26473e-08
2.72764e-10
2.24535e-08
2.53449e-10
2.2273e-08
2.35256e-10
2.21086e-08
2.13702e-10
2.19582e-08
1.93705e-10
2.18281e-08
1.67391e-10
2.17142e-08
1.42261e-10
2.16283e-08
1.09026e-10
2.15652e-08
6.82532e-11
2.15352e-08
4.09196e-11
2.15844e-08
-1.01163e-10
2.14985e-08
2.54959e-10
-3.86815e-09
2.21288e-08
1.58807e-07
1.35052e-07
1.36497e-07
8.97115e-08
1.175e-07
4.72035e-08
1.03329e-07
2.83862e-08
9.33295e-08
1.83907e-08
8.6035e-08
1.32088e-08
8.03363e-08
1.0309e-08
7.56916e-08
8.36813e-09
7.18187e-08
6.94637e-09
6.85306e-08
5.87936e-09
6.56942e-08
5.06137e-09
6.32149e-08
4.41734e-09
6.10243e-08
3.89802e-09
5.90712e-08
3.47133e-09
5.73167e-08
3.11548e-09
5.573e-08
2.81494e-09
5.4287e-08
2.55831e-09
5.29679e-08
2.33708e-09
5.17566e-08
2.14474e-09
5.06399e-08
1.97626e-09
4.96066e-08
1.82767e-09
4.86473e-08
1.69583e-09
4.77542e-08
1.57818e-09
4.69204e-08
1.47265e-09
4.61401e-08
1.37751e-09
4.54083e-08
1.29134e-09
4.47206e-08
1.21293e-09
4.40732e-08
1.14124e-09
4.34628e-08
1.0754e-09
4.28865e-08
1.01465e-09
4.23419e-08
9.58278e-10
4.18267e-08
9.05747e-10
4.13391e-08
8.56381e-10
4.08774e-08
8.099e-10
4.04405e-08
7.65358e-10
4.00272e-08
7.23042e-10
3.96368e-08
6.81059e-10
3.92685e-08
6.41136e-10
3.89231e-08
5.98814e-10
3.85989e-08
5.59501e-10
3.83001e-08
5.12407e-10
3.80222e-08
4.717e-10
3.77769e-08
4.12614e-10
3.75521e-08
3.67081e-10
3.73754e-08
2.85725e-10
3.72202e-08
2.23491e-10
3.71369e-08
1.24179e-10
3.71124e-08
-7.66061e-11
3.71446e-08
2.22719e-10
-3.5459e-09
3.68224e-08
1.75664e-07
1.30904e-07
1.65596e-07
9.97793e-08
1.52729e-07
6.00704e-08
1.40137e-07
4.09785e-08
1.29456e-07
2.90717e-08
1.20822e-07
2.18428e-08
1.13719e-07
1.7412e-08
1.07747e-07
1.43405e-08
1.02653e-07
1.20396e-08
9.8257e-08
1.02758e-08
9.44177e-08
8.90073e-09
9.10299e-08
7.8051e-09
8.8014e-08
6.91391e-09
8.53087e-08
6.17667e-09
8.28658e-08
5.55833e-09
8.06471e-08
5.03361e-09
7.86217e-08
4.58376e-09
7.67641e-08
4.19463e-09
7.50536e-08
3.85532e-09
7.34725e-08
3.55734e-09
7.20062e-08
3.29396e-09
7.06422e-08
3.05981e-09
6.93699e-08
2.85053e-09
6.818e-08
2.66253e-09
6.70646e-08
2.49285e-09
6.6017e-08
2.339e-09
6.5031e-08
2.1989e-09
6.41015e-08
2.07075e-09
6.32239e-08
1.95303e-09
6.23941e-08
1.84439e-09
6.16088e-08
1.74366e-09
6.08647e-08
1.64982e-09
6.01593e-08
1.56182e-09
5.94901e-08
1.47902e-09
5.88554e-08
1.40004e-09
5.82534e-08
1.32506e-09
5.76832e-08
1.25129e-09
5.71431e-08
1.1812e-09
5.66342e-08
1.10777e-09
5.61537e-08
1.03993e-09
5.5707e-08
9.59191e-10
5.52875e-08
8.91185e-10
5.49098e-08
7.90285e-10
5.45583e-08
7.18591e-10
5.42663e-08
5.7767e-10
5.40009e-08
4.88911e-10
5.38255e-08
2.99622e-10
5.37034e-08
4.54898e-11
5.37258e-08
2.00355e-10
-3.05112e-09
5.3231e-08
1.8456e-07
1.23129e-07
1.82321e-07
1.02018e-07
1.76106e-07
6.62859e-08
1.67768e-07
4.93159e-08
1.59153e-07
3.7687e-08
1.51253e-07
2.9743e-08
1.4419e-07
2.44751e-08
1.37899e-07
2.06309e-08
1.32307e-07
1.76318e-08
1.27329e-07
1.52541e-08
1.22879e-07
1.33509e-08
1.1888e-07
1.18037e-08
1.15268e-07
1.05255e-08
1.1199e-07
9.4548e-09
1.09001e-07
8.5475e-09
1.06264e-07
7.77095e-09
1.03747e-07
7.10037e-09
1.01425e-07
6.51668e-09
9.92755e-08
6.005e-09
9.72792e-08
5.55355e-09
9.54203e-08
5.1529e-09
9.36847e-08
4.79544e-09
9.20603e-08
4.47493e-09
9.05366e-08
4.18622e-09
8.91044e-08
3.925e-09
8.77558e-08
3.68766e-09
8.64835e-08
3.47114e-09
8.52815e-08
3.27277e-09
8.41442e-08
3.09033e-09
8.30668e-08
2.92181e-09
8.2045e-08
2.76548e-09
8.1075e-08
2.61981e-09
8.01535e-08
2.48328e-09
7.92777e-08
2.35484e-09
7.84451e-08
2.23264e-09
7.76535e-08
2.11665e-09
7.69016e-08
2.00323e-09
7.61873e-08
1.89546e-09
7.55113e-08
1.78374e-09
7.48708e-08
1.68046e-09
7.42705e-08
1.55947e-09
7.37043e-08
1.45741e-09
7.31857e-08
1.30887e-09
7.2701e-08
1.20328e-09
7.22799e-08
9.98807e-10
7.18971e-08
8.7175e-10
7.16038e-08
5.92915e-10
7.13816e-08
2.677e-10
7.12988e-08
2.8307e-10
-2.54798e-09
7.07957e-08
1.90388e-07
1.14958e-07
1.91852e-07
1.00554e-07
1.90245e-07
6.78925e-08
1.86158e-07
5.34027e-08
1.80725e-07
4.31198e-08
1.74979e-07
3.54898e-08
1.69291e-07
3.0163e-08
1.63816e-07
2.61056e-08
1.5865e-07
2.2798e-08
1.53834e-07
2.00703e-08
1.4937e-07
1.78146e-08
1.45242e-07
1.59315e-08
1.41426e-07
1.43416e-08
1.37896e-07
1.29854e-08
1.34624e-07
1.18187e-08
1.31588e-07
1.08072e-08
1.28764e-07
9.9241e-09
1.26133e-07
9.14813e-09
1.23676e-07
8.46227e-09
1.21377e-07
7.85277e-09
1.19221e-07
7.30842e-09
1.17196e-07
6.82002e-09
1.15291e-07
6.37992e-09
1.13496e-07
5.98172e-09
1.11801e-07
5.62002e-09
1.10198e-07
5.29021e-09
1.08681e-07
4.98838e-09
1.07243e-07
4.71111e-09
1.05878e-07
4.45549e-09
1.04581e-07
4.21888e-09
1.03347e-07
3.99905e-09
1.02173e-07
3.79389e-09
1.01055e-07
3.60152e-09
9.99891e-08
3.42037e-09
9.89736e-08
3.24821e-09
9.80055e-08
3.08471e-09
9.70833e-08
2.92544e-09
9.62048e-08
2.77391e-09
9.53703e-08
2.61829e-09
9.45771e-08
2.47369e-09
9.38289e-08
2.30767e-09
9.31211e-08
2.16518e-09
9.2464e-08
1.96597e-09
9.18494e-08
1.81789e-09
9.12973e-08
1.55094e-09
9.07986e-08
1.37045e-09
9.03786e-08
1.01287e-09
9.00547e-08
5.9159e-10
8.98476e-08
4.90152e-10
-2.00939e-09
8.93091e-08
1.95541e-07
1.07232e-07
1.98247e-07
9.78477e-08
1.98969e-07
6.71707e-08
1.9779e-07
5.45812e-08
1.95162e-07
4.57479e-08
1.91826e-07
3.88258e-08
1.88102e-07
3.38875e-08
1.84159e-07
3.00478e-08
1.80148e-07
2.68094e-08
1.76177e-07
2.40414e-08
1.72314e-07
2.16778e-08
1.68597e-07
1.96486e-08
1.65046e-07
1.78924e-08
1.6167e-07
1.63618e-08
1.58468e-07
1.50201e-08
1.55438e-07
1.38378e-08
1.52571e-07
1.27906e-08
1.4986e-07
1.1859e-08
1.47296e-07
1.10263e-08
1.4487e-07
1.02791e-08
1.42572e-07
9.60597e-09
1.40395e-07
8.99728e-09
1.3833e-07
8.44494e-09
1.3637e-07
7.94204e-09
1.34507e-07
7.48265e-09
1.32736e-07
7.06162e-09
1.31049e-07
6.67453e-09
1.29443e-07
6.31746e-09
1.27912e-07
5.98705e-09
1.2645e-07
5.68018e-09
1.25055e-07
5.39426e-09
1.23722e-07
5.12674e-09
1.22448e-07
4.87539e-09
1.2123e-07
4.63827e-09
1.20066e-07
4.41278e-09
1.18952e-07
4.19829e-09
1.17888e-07
3.98974e-09
1.16871e-07
3.79086e-09
1.15901e-07
3.5881e-09
1.14977e-07
3.39828e-09
1.141e-07
3.18472e-09
1.13268e-07
2.99692e-09
1.12487e-07
2.74638e-09
1.11757e-07
2.54837e-09
1.11085e-07
2.22265e-09
1.1048e-07
1.97528e-09
1.09943e-07
1.55067e-09
1.09516e-07
1.01852e-09
1.09199e-07
8.07042e-10
-1.41881e-09
1.08608e-07
2.00848e-07
9.99688e-08
2.03776e-07
9.492e-08
2.05327e-07
6.56193e-08
2.05644e-07
5.42644e-08
2.0482e-07
4.65718e-08
2.03343e-07
4.03028e-08
2.01401e-07
3.58295e-08
1.99078e-07
3.23707e-08
1.96479e-07
2.94083e-08
1.93707e-07
2.68142e-08
1.9084e-07
2.45444e-08
1.87939e-07
2.25491e-08
1.85049e-07
2.07828e-08
1.822e-07
1.92105e-08
1.79415e-07
1.78052e-08
1.76708e-07
1.65446e-08
1.74089e-07
1.54103e-08
1.71561e-07
1.43863e-08
1.69128e-07
1.34592e-08
1.6679e-07
1.26174e-08
1.64545e-07
1.18509e-08
1.62391e-07
1.11511e-08
1.60326e-07
1.05106e-08
1.58345e-07
9.92263e-09
1.56446e-07
9.38165e-09
1.54625e-07
8.88253e-09
1.52879e-07
8.42087e-09
1.51204e-07
7.99262e-09
1.49596e-07
7.59433e-09
1.48054e-07
7.22271e-09
1.46573e-07
6.875e-09
1.45152e-07
6.54844e-09
1.43786e-07
6.24062e-09
1.42475e-07
5.94931e-09
1.41216e-07
5.67171e-09
1.40008e-07
5.40695e-09
1.38848e-07
5.14953e-09
1.37736e-07
4.90319e-09
1.3667e-07
4.65332e-09
1.35651e-07
4.41735e-09
1.34679e-07
4.15649e-09
1.33755e-07
3.92123e-09
1.32881e-07
3.62097e-09
1.3206e-07
3.36857e-09
1.31294e-07
2.98899e-09
1.30603e-07
2.66661e-09
1.2997e-07
2.18349e-09
1.29449e-07
1.53967e-09
1.29043e-07
1.21301e-09
-7.88868e-10
1.28413e-07
2.06447e-07
9.3054e-08
2.09339e-07
9.20276e-08
2.11037e-07
6.39217e-08
2.11932e-07
5.33695e-08
2.12003e-07
4.65007e-08
2.1162e-07
4.06857e-08
2.10895e-07
3.65542e-08
2.09831e-07
3.34348e-08
2.08465e-07
3.07746e-08
2.06854e-07
2.8425e-08
2.05054e-07
2.63443e-08
2.03114e-07
2.44895e-08
2.01075e-07
2.28217e-08
1.98973e-07
2.13123e-08
1.96837e-07
1.99408e-08
1.94691e-07
1.86908e-08
1.92553e-07
1.75488e-08
1.90436e-07
1.65031e-08
1.88352e-07
1.55437e-08
1.86307e-07
1.46617e-08
1.84309e-07
1.38494e-08
1.8236e-07
1.30998e-08
1.80464e-07
1.24068e-08
1.78621e-07
1.1765e-08
1.76834e-07
1.11695e-08
1.751e-07
1.06157e-08
1.73422e-07
1.00997e-08
1.71796e-07
9.61786e-09
1.70224e-07
9.16691e-09
1.68703e-07
8.74371e-09
1.67232e-07
8.34562e-09
1.65811e-07
7.96987e-09
1.64437e-07
7.6141e-09
1.63111e-07
7.27598e-09
1.6183e-07
6.95266e-09
1.60593e-07
6.64312e-09
1.59401e-07
6.34164e-09
1.58253e-07
6.05186e-09
1.57147e-07
5.75865e-09
1.56085e-07
5.47925e-09
1.55067e-07
5.17454e-09
1.54096e-07
4.89314e-09
1.53169e-07
4.54728e-09
1.52298e-07
4.24001e-09
1.51474e-07
3.81252e-09
1.50727e-07
3.41355e-09
1.50033e-07
2.87783e-09
1.49441e-07
2.13204e-09
1.4897e-07
1.68341e-09
-1.43104e-10
1.48324e-07
2.12289e-07
8.64276e-08
2.15152e-07
8.91642e-08
2.16791e-07
6.22826e-08
2.17844e-07
5.23165e-08
2.18261e-07
4.60835e-08
2.18381e-07
4.05665e-08
2.18309e-07
3.66257e-08
2.18015e-07
3.37284e-08
2.17492e-07
3.1298e-08
2.16757e-07
2.916e-08
2.15834e-07
2.72671e-08
2.14748e-07
2.55753e-08
2.13525e-07
2.40451e-08
2.12189e-07
2.26483e-08
2.10764e-07
2.13661e-08
2.0927e-07
2.01845e-08
2.07726e-07
1.90924e-08
2.06148e-07
1.80809e-08
2.0455e-07
1.71421e-08
2.02942e-07
1.62694e-08
2.01335e-07
1.5457e-08
1.99735e-07
1.46997e-08
1.98149e-07
1.39928e-08
1.96582e-07
1.33319e-08
1.95038e-07
1.27133e-08
1.93521e-07
1.21333e-08
1.92032e-07
1.15886e-08
1.90573e-07
1.10762e-08
1.89147e-07
1.05933e-08
1.87753e-07
1.01372e-08
1.86394e-07
9.70542e-09
1.85068e-07
9.2955e-09
1.83777e-07
8.90526e-09
1.8252e-07
8.53245e-09
1.81299e-07
8.17429e-09
1.80112e-07
7.82979e-09
1.78961e-07
7.49311e-09
1.77845e-07
7.16784e-09
1.76764e-07
6.83871e-09
1.75721e-07
6.52226e-09
1.74716e-07
6.18035e-09
1.73751e-07
5.85771e-09
1.72825e-07
5.47292e-09
1.71951e-07
5.11445e-09
1.71117e-07
4.64626e-09
1.70356e-07
4.17531e-09
1.69641e-07
3.59217e-09
1.69012e-07
2.76074e-09
1.68508e-07
2.18751e-09
4.90902e-10
1.67874e-07
2.1833e-07
8.00784e-08
2.21206e-07
8.62883e-08
2.22764e-07
6.07244e-08
2.23844e-07
5.12367e-08
2.2437e-07
4.55569e-08
2.24667e-07
4.02696e-08
2.24872e-07
3.64213e-08
2.24956e-07
3.36442e-08
2.24898e-07
3.13561e-08
2.24697e-07
2.93606e-08
2.24358e-07
2.76058e-08
2.23888e-07
2.60461e-08
2.23293e-07
2.46393e-08
2.22587e-07
2.33549e-08
2.2178e-07
2.21728e-08
2.20886e-07
2.10784e-08
2.19918e-07
2.00611e-08
2.18886e-07
1.91122e-08
2.17803e-07
1.8225e-08
2.16679e-07
1.73936e-08
2.15523e-07
1.66134e-08
2.14342e-07
1.58801e-08
2.13145e-07
1.51899e-08
2.11938e-07
1.45395e-08
2.10725e-07
1.39258e-08
2.09513e-07
1.3346e-08
2.08304e-07
1.27974e-08
2.07102e-07
1.22776e-08
2.05911e-07
1.17843e-08
2.04733e-07
1.13152e-08
2.0357e-07
1.08683e-08
2.02425e-07
1.04413e-08
2.01298e-07
1.00324e-08
2.0019e-07
9.63951e-09
1.99105e-07
9.25999e-09
1.98042e-07
8.89299e-09
1.97002e-07
8.53266e-09
1.95987e-07
8.18255e-09
1.94998e-07
7.82757e-09
1.94038e-07
7.48316e-09
1.93105e-07
7.11315e-09
1.92205e-07
6.75709e-09
1.91336e-07
6.34214e-09
1.90511e-07
5.93966e-09
1.89718e-07
5.43924e-09
1.88987e-07
4.90589e-09
1.88298e-07
4.2811e-09
1.87675e-07
3.38386e-09
1.87173e-07
2.69029e-09
1.08353e-09
1.8658e-07
2.24559e-07
7.40131e-08
2.2747e-07
8.33769e-08
2.28961e-07
5.92336e-08
2.30046e-07
5.01517e-08
2.30614e-07
4.4989e-08
2.30959e-07
3.9924e-08
2.31253e-07
3.61275e-08
2.31485e-07
3.3412e-08
2.31636e-07
3.12057e-08
2.31702e-07
2.92941e-08
2.31684e-07
2.76238e-08
2.3158e-07
2.61506e-08
2.31388e-07
2.48308e-08
2.31111e-07
2.36319e-08
2.30752e-07
2.25318e-08
2.30316e-07
2.15147e-08
2.29808e-07
2.0569e-08
2.29235e-07
1.96856e-08
2.28602e-07
1.88573e-08
2.27918e-07
1.80784e-08
2.27187e-07
1.73441e-08
2.26417e-07
1.66505e-08
2.25612e-07
1.59943e-08
2.24779e-07
1.53723e-08
2.23923e-07
1.47821e-08
2.23048e-07
1.4221e-08
2.22159e-07
1.36869e-08
2.21259e-07
1.31777e-08
2.20351e-07
1.26915e-08
2.1944e-07
1.22263e-08
2.18528e-07
1.17804e-08
2.17618e-07
1.13519e-08
2.16711e-07
1.09391e-08
2.1581e-07
1.05402e-08
2.14917e-07
1.01527e-08
2.14035e-07
9.77583e-09
2.13163e-07
9.40386e-09
2.12306e-07
9.04025e-09
2.11463e-07
8.67033e-09
2.10638e-07
8.30815e-09
2.09831e-07
7.92024e-09
2.09048e-07
7.54008e-09
2.08285e-07
7.10476e-09
2.07557e-07
6.66772e-09
2.06852e-07
6.14414e-09
2.06197e-07
5.56116e-09
2.05577e-07
4.90154e-09
2.05001e-07
3.9591e-09
2.04535e-07
3.1562e-09
1.608e-09
2.04011e-07
2.30979e-07
6.82397e-08
2.33934e-07
8.04217e-08
2.35366e-07
5.78021e-08
2.36457e-07
4.90604e-08
2.37059e-07
4.43874e-08
2.3742e-07
3.9563e-08
2.37735e-07
3.5812e-08
2.38014e-07
3.31339e-08
2.3824e-07
3.09796e-08
2.38415e-07
2.91183e-08
2.38543e-07
2.74962e-08
2.3862e-07
2.60732e-08
2.38645e-07
2.48062e-08
2.38615e-07
2.36619e-08
2.3853e-07
2.26172e-08
2.38389e-07
2.16554e-08
2.38194e-07
2.07641e-08
2.37946e-07
1.99333e-08
2.37648e-07
1.91553e-08
2.37303e-07
1.84239e-08
2.36913e-07
1.7734e-08
2.36482e-07
1.70815e-08
2.36013e-07
1.64628e-08
2.35511e-07
1.58749e-08
2.34978e-07
1.53151e-08
2.34418e-07
1.47811e-08
2.33834e-07
1.42708e-08
2.33229e-07
1.37822e-08
2.32607e-07
1.33136e-08
2.3197e-07
1.28631e-08
2.31321e-07
1.24292e-08
2.30663e-07
1.20102e-08
2.29998e-07
1.16044e-08
2.29328e-07
1.12103e-08
2.28655e-07
1.08254e-08
2.27982e-07
1.04491e-08
2.2731e-07
1.00756e-08
2.26642e-07
9.7084e-09
2.25979e-07
9.33333e-09
2.25324e-07
8.96275e-09
2.24678e-07
8.56648e-09
2.24047e-07
8.17139e-09
2.23426e-07
7.72502e-09
2.22831e-07
7.26345e-09
2.22249e-07
6.7254e-09
2.21704e-07
6.10664e-09
2.21186e-07
5.4197e-09
2.20694e-07
4.45112e-09
2.20295e-07
3.55528e-09
2.04367e-09
2.19859e-07
2.376e-07
6.27641e-08
2.40602e-07
7.74201e-08
2.41976e-07
5.64277e-08
2.43073e-07
4.79641e-08
2.43712e-07
4.37485e-08
2.44086e-07
3.91884e-08
2.44407e-07
3.5491e-08
2.44698e-07
3.28432e-08
2.44947e-07
3.07307e-08
2.45159e-07
2.89058e-08
2.45341e-07
2.73142e-08
2.45494e-07
2.59205e-08
2.45616e-07
2.46841e-08
2.45706e-07
2.35719e-08
2.45763e-07
2.25605e-08
2.45785e-07
2.16333e-08
2.45771e-07
2.07773e-08
2.45722e-07
1.99823e-08
2.45638e-07
1.924e-08
2.45518e-07
1.8544e-08
2.45363e-07
1.78887e-08
2.45175e-07
1.72696e-08
2.44955e-07
1.6683e-08
2.44704e-07
1.61255e-08
2.44425e-07
1.55945e-08
2.44118e-07
1.50874e-08
2.43787e-07
1.4602e-08
2.43433e-07
1.41362e-08
2.43058e-07
1.36884e-08
2.42665e-07
1.32568e-08
2.42254e-07
1.28397e-08
2.41829e-07
1.24354e-08
2.41391e-07
1.20425e-08
2.40942e-07
1.16593e-08
2.40484e-07
1.12833e-08
2.40019e-07
1.09142e-08
2.39549e-07
1.05461e-08
2.39075e-07
1.01821e-08
2.38599e-07
9.80896e-09
2.38125e-07
9.43706e-09
2.37652e-07
9.03977e-09
2.37186e-07
8.6373e-09
2.36723e-07
8.18737e-09
2.36276e-07
7.71033e-09
2.35837e-07
7.16502e-09
2.3542e-07
6.52346e-09
2.35023e-07
5.81658e-09
2.34637e-07
4.83769e-09
2.34324e-07
3.86834e-09
2.37952e-09
2.33988e-07
2.4443e-07
5.75899e-08
2.47472e-07
7.43789e-08
2.48797e-07
5.51022e-08
2.49894e-07
4.68675e-08
2.50571e-07
4.30709e-08
2.50963e-07
3.87965e-08
2.51289e-07
3.51655e-08
2.51585e-07
3.25468e-08
2.51842e-07
3.04739e-08
2.52065e-07
2.86823e-08
2.52265e-07
2.71149e-08
2.52443e-07
2.57419e-08
2.52602e-07
2.45252e-08
2.52741e-07
2.34326e-08
2.52861e-07
2.24413e-08
2.52959e-07
2.15347e-08
2.53037e-07
2.06999e-08
2.53092e-07
1.99269e-08
2.53125e-07
1.92073e-08
2.53135e-07
1.85343e-08
2.53121e-07
1.79023e-08
2.53084e-07
1.73066e-08
2.53024e-07
1.67432e-08
2.52941e-07
1.62087e-08
2.52835e-07
1.57e-08
2.52708e-07
1.52146e-08
2.5256e-07
1.475e-08
2.52392e-07
1.43042e-08
2.52205e-07
1.38752e-08
2.52001e-07
1.34613e-08
2.5178e-07
1.30606e-08
2.51543e-07
1.26717e-08
2.51293e-07
1.22926e-08
2.51031e-07
1.1922e-08
2.50757e-07
1.15572e-08
2.50473e-07
1.11978e-08
2.50181e-07
1.08382e-08
2.49882e-07
1.04808e-08
2.49578e-07
1.01135e-08
2.4927e-07
9.74437e-09
2.4896e-07
9.35055e-09
2.48651e-07
8.94577e-09
2.48341e-07
8.49717e-09
2.4804e-07
8.01169e-09
2.47741e-07
7.46411e-09
2.47454e-07
6.81042e-09
2.4718e-07
6.09006e-09
2.46905e-07
5.11259e-09
2.46684e-07
4.08962e-09
2.61653e-09
2.46447e-07
2.51478e-07
5.27189e-08
2.54549e-07
7.13074e-08
2.55836e-07
5.38153e-08
2.56927e-07
4.57761e-08
2.57643e-07
4.23554e-08
2.58055e-07
3.83845e-08
2.58386e-07
3.48339e-08
2.58688e-07
3.22451e-08
2.5895e-07
3.02117e-08
2.59179e-07
2.8454e-08
2.59383e-07
2.69101e-08
2.5957e-07
2.55551e-08
2.59741e-07
2.43542e-08
2.59898e-07
2.32762e-08
2.6004e-07
2.22986e-08
2.6017e-07
2.14052e-08
2.60286e-07
2.05838e-08
2.60389e-07
1.98243e-08
2.60477e-07
1.91185e-08
2.60552e-07
1.84597e-08
2.60612e-07
1.78424e-08
2.60657e-07
1.72616e-08
2.60687e-07
1.67134e-08
2.60701e-07
1.61942e-08
2.607e-07
1.57009e-08
2.60684e-07
1.52307e-08
2.60653e-07
1.47812e-08
2.60607e-07
1.43502e-08
2.60546e-07
1.39357e-08
2.60472e-07
1.35357e-08
2.60384e-07
1.31484e-08
2.60284e-07
1.27722e-08
2.60171e-07
1.2405e-08
2.60047e-07
1.20457e-08
2.59913e-07
1.16912e-08
2.5977e-07
1.13412e-08
2.59618e-07
1.099e-08
2.59459e-07
1.06398e-08
2.59294e-07
1.02792e-08
2.59124e-07
9.91425e-09
2.58949e-07
9.52562e-09
2.58773e-07
9.12115e-09
2.58594e-07
8.67614e-09
2.58419e-07
8.18684e-09
2.58244e-07
7.63976e-09
2.58072e-07
6.98163e-09
2.57909e-07
6.25287e-09
2.57738e-07
5.28448e-09
2.57601e-07
4.22607e-09
2.76685e-09
2.57451e-07
2.58751e-07
4.81512e-08
2.61842e-07
6.82158e-08
2.63101e-07
5.25564e-08
2.64182e-07
4.4695e-08
2.64933e-07
4.16047e-08
2.65367e-07
3.79502e-08
2.65706e-07
3.44954e-08
2.66013e-07
3.19376e-08
2.66281e-07
2.99438e-08
2.66514e-07
2.82217e-08
2.66721e-07
2.67022e-08
2.66912e-07
2.53651e-08
2.67087e-07
2.41791e-08
2.67249e-07
2.31141e-08
2.67399e-07
2.2148e-08
2.67539e-07
2.12651e-08
2.6767e-07
2.04534e-08
2.67791e-07
1.97032e-08
2.67903e-07
1.90067e-08
2.68005e-07
1.83572e-08
2.68099e-07
1.77491e-08
2.68182e-07
1.71779e-08
2.68256e-07
1.66393e-08
2.68321e-07
1.61298e-08
2.68375e-07
1.56464e-08
2.6842e-07
1.51862e-08
2.68454e-07
1.47468e-08
2.68479e-07
1.43258e-08
2.68493e-07
1.39211e-08
2.68498e-07
1.35308e-08
2.68493e-07
1.31531e-08
2.6848e-07
1.2786e-08
2.68457e-07
1.24278e-08
2.68426e-07
1.20768e-08
2.68387e-07
1.17303e-08
2.6834e-07
1.13876e-08
2.68287e-07
1.10434e-08
2.68228e-07
1.06989e-08
2.68163e-07
1.03443e-08
2.68094e-07
9.98298e-09
2.6802e-07
9.59929e-09
2.67945e-07
9.19586e-09
2.67867e-07
8.7547e-09
2.6779e-07
8.26415e-09
2.67711e-07
7.71849e-09
2.67632e-07
7.06084e-09
2.67557e-07
6.32739e-09
2.67469e-07
5.37239e-09
2.67401e-07
4.29395e-09
2.85008e-09
2.67318e-07
2.66258e-07
4.38851e-08
2.6936e-07
6.51145e-08
2.70601e-07
5.13149e-08
2.71667e-07
4.36286e-08
2.7245e-07
4.08221e-08
2.72908e-07
3.7492e-08
2.73255e-07
3.41491e-08
2.73568e-07
3.16243e-08
2.73842e-07
2.96698e-08
2.74079e-07
2.79847e-08
2.7429e-07
2.64911e-08
2.74482e-07
2.51725e-08
2.7466e-07
2.40018e-08
2.74824e-07
2.29496e-08
2.74978e-07
2.19946e-08
2.75121e-07
2.11213e-08
2.75257e-07
2.03182e-08
2.75384e-07
1.95758e-08
2.75504e-07
1.88866e-08
2.75617e-07
1.82441e-08
2.75724e-07
1.76428e-08
2.75823e-07
1.70781e-08
2.75916e-07
1.65461e-08
2.76003e-07
1.60432e-08
2.76083e-07
1.55663e-08
2.76157e-07
1.51127e-08
2.76224e-07
1.46798e-08
2.76284e-07
1.42653e-08
2.76338e-07
1.38671e-08
2.76386e-07
1.34832e-08
2.76427e-07
1.31117e-08
2.76462e-07
1.27508e-08
2.76492e-07
1.23984e-08
2.76515e-07
1.20532e-08
2.76534e-07
1.1712e-08
2.76547e-07
1.13743e-08
2.76555e-07
1.10349e-08
2.7656e-07
1.06943e-08
2.7656e-07
1.03439e-08
2.76558e-07
9.98502e-09
2.76553e-07
9.60502e-09
2.76546e-07
9.20233e-09
2.76537e-07
8.76414e-09
2.76527e-07
8.27352e-09
2.76517e-07
7.72917e-09
2.76503e-07
7.07475e-09
2.76491e-07
6.3393e-09
2.76464e-07
5.39973e-09
2.76444e-07
4.31376e-09
2.88927e-09
2.76405e-07
2.74009e-07
3.99172e-08
2.77109e-07
6.20146e-08
2.78343e-07
5.00808e-08
2.79391e-07
4.25804e-08
2.80202e-07
4.00118e-08
2.80686e-07
3.70083e-08
2.81041e-07
3.37939e-08
2.8136e-07
3.13052e-08
2.8164e-07
2.93895e-08
2.81882e-07
2.77428e-08
2.82097e-07
2.62766e-08
2.82292e-07
2.49774e-08
2.82471e-07
2.38223e-08
2.82637e-07
2.27834e-08
2.82792e-07
2.18396e-08
2.82938e-07
2.09759e-08
2.83075e-07
2.01811e-08
2.83204e-07
1.94462e-08
2.83327e-07
1.87637e-08
2.83444e-07
1.81274e-08
2.83555e-07
1.75319e-08
2.8366e-07
1.69727e-08
2.83761e-07
1.64458e-08
2.83856e-07
1.59479e-08
2.83947e-07
1.54759e-08
2.84032e-07
1.5027e-08
2.84113e-07
1.45986e-08
2.8419e-07
1.41886e-08
2.84262e-07
1.37948e-08
2.8433e-07
1.34152e-08
2.84394e-07
1.30479e-08
2.84454e-07
1.26909e-08
2.8451e-07
1.23423e-08
2.84563e-07
1.20006e-08
2.84612e-07
1.16629e-08
2.84658e-07
1.13281e-08
2.84701e-07
1.09917e-08
2.84742e-07
1.06533e-08
2.84781e-07
1.03054e-08
2.84818e-07
9.94773e-09
2.84853e-07
9.56999e-09
2.84888e-07
9.16745e-09
2.84921e-07
8.73106e-09
2.84954e-07
8.24082e-09
2.84985e-07
7.69735e-09
2.85013e-07
7.04759e-09
2.8504e-07
6.31234e-09
2.8505e-07
5.38898e-09
2.85058e-07
4.30559e-09
2.90628e-09
2.85041e-07
2.82013e-07
3.62421e-08
2.851e-07
5.89275e-08
2.86336e-07
4.88444e-08
2.87363e-07
4.15531e-08
2.88197e-07
3.91783e-08
2.88707e-07
3.64977e-08
2.89073e-07
3.34287e-08
2.89397e-07
3.09804e-08
2.89684e-07
2.91027e-08
2.89932e-07
2.74956e-08
2.9015e-07
2.60583e-08
2.90348e-07
2.47795e-08
2.9053e-07
2.36405e-08
2.90698e-07
2.26153e-08
2.90854e-07
2.1683e-08
2.91001e-07
2.08292e-08
2.91139e-07
2.00429e-08
2.9127e-07
1.93155e-08
2.91394e-07
1.86397e-08
2.91512e-07
1.80094e-08
2.91624e-07
1.74194e-08
2.91732e-07
1.68652e-08
2.91834e-07
1.63431e-08
2.91933e-07
1.58497e-08
2.92027e-07
1.53818e-08
2.92117e-07
1.49368e-08
2.92203e-07
1.45122e-08
2.92286e-07
1.41057e-08
2.92366e-07
1.37152e-08
2.92443e-07
1.33388e-08
2.92516e-07
1.29743e-08
2.92587e-07
1.26201e-08
2.92655e-07
1.22741e-08
2.92721e-07
1.19347e-08
2.92785e-07
1.1599e-08
2.92847e-07
1.1266e-08
2.92908e-07
1.09312e-08
2.92967e-07
1.05939e-08
2.93025e-07
1.02474e-08
2.93083e-07
9.88987e-09
2.9314e-07
9.51323e-09
2.93197e-07
9.1104e-09
2.93253e-07
8.67481e-09
2.93309e-07
8.18523e-09
2.93364e-07
7.64238e-09
2.93413e-07
6.99809e-09
2.9346e-07
6.26513e-09
2.93491e-07
5.35842e-09
2.9351e-07
4.28601e-09
2.91871e-09
2.93498e-07
2.90278e-07
3.28527e-08
2.93341e-07
5.5865e-08
2.94588e-07
4.75967e-08
2.95593e-07
4.05485e-08
2.96444e-07
3.83269e-08
2.96983e-07
3.59594e-08
2.97359e-07
3.30521e-08
2.9769e-07
3.06499e-08
2.97983e-07
2.88095e-08
2.98236e-07
2.72426e-08
2.98458e-07
2.5836e-08
2.98659e-07
2.45785e-08
2.98843e-07
2.34562e-08
2.99014e-07
2.24451e-08
2.99172e-07
2.15248e-08
2.9932e-07
2.06811e-08
2.99459e-07
1.99036e-08
2.99591e-07
1.91839e-08
2.99716e-07
1.85149e-08
2.99835e-07
1.78906e-08
2.99948e-07
1.73061e-08
3.00056e-07
1.67571e-08
3.00159e-07
1.62396e-08
3.00259e-07
1.57504e-08
3.00354e-07
1.52865e-08
3.00446e-07
1.48451e-08
3.00534e-07
1.44239e-08
3.00619e-07
1.40206e-08
3.00701e-07
1.3633e-08
3.00781e-07
1.32592e-08
3.00858e-07
1.28972e-08
3.00933e-07
1.25452e-08
3.01006e-07
1.2201e-08
3.01077e-07
1.18632e-08
3.01147e-07
1.1529e-08
3.01216e-07
1.1197e-08
3.01284e-07
1.08632e-08
3.01352e-07
1.05263e-08
3.01419e-07
1.01804e-08
3.01486e-07
9.82264e-09
3.01553e-07
9.44639e-09
3.0162e-07
9.04314e-09
3.01687e-07
8.60778e-09
3.01753e-07
8.11918e-09
3.01818e-07
7.57711e-09
3.01877e-07
6.93891e-09
3.01932e-07
6.21042e-09
3.01969e-07
5.32106e-09
3.01989e-07
4.26677e-09
2.93881e-09
3.01969e-07
2.98815e-07
2.97402e-08
3.01841e-07
5.28391e-08
3.03108e-07
4.633e-08
3.04089e-07
3.95676e-08
3.04952e-07
3.74632e-08
3.05519e-07
3.53928e-08
3.05909e-07
3.26625e-08
3.06245e-07
3.03137e-08
3.06544e-07
2.85098e-08
3.06803e-07
2.69836e-08
3.0703e-07
2.56093e-08
3.07234e-07
2.43742e-08
3.07421e-07
2.32692e-08
3.07594e-07
2.22726e-08
3.07754e-07
2.13647e-08
3.07904e-07
2.05315e-08
3.08044e-07
1.97631e-08
3.08177e-07
1.90512e-08
3.08303e-07
1.83892e-08
3.08422e-07
1.77712e-08
3.08536e-07
1.71923e-08
3.08644e-07
1.66484e-08
3.08748e-07
1.61357e-08
3.08848e-07
1.56508e-08
3.08944e-07
1.51908e-08
3.09036e-07
1.47531e-08
3.09125e-07
1.43352e-08
3.0921e-07
1.39349e-08
3.09293e-07
1.35501e-08
3.09374e-07
1.31788e-08
3.09452e-07
1.2819e-08
3.09528e-07
1.24689e-08
3.09603e-07
1.21265e-08
3.09676e-07
1.179e-08
3.09748e-07
1.14569e-08
3.09819e-07
1.11257e-08
3.0989e-07
1.07926e-08
3.09961e-07
1.04557e-08
3.10031e-07
1.01101e-08
3.10102e-07
9.75197e-09
3.10172e-07
9.37576e-09
3.10243e-07
8.97223e-09
3.10314e-07
8.53694e-09
3.10383e-07
8.04979e-09
3.10451e-07
7.50906e-09
3.10513e-07
6.87765e-09
3.10567e-07
6.15594e-09
3.10603e-07
5.28514e-09
3.10615e-07
4.25518e-09
2.974e-09
3.10579e-07
3.07633e-07
2.68941e-08
3.10611e-07
4.98619e-08
3.11903e-07
4.50375e-08
3.12861e-07
3.86102e-08
3.13731e-07
3.65923e-08
3.14326e-07
3.47984e-08
3.1473e-07
3.22583e-08
3.15072e-07
2.99714e-08
3.15378e-07
2.82037e-08
3.15644e-07
2.67183e-08
3.15875e-07
2.53778e-08
3.16083e-07
2.41664e-08
3.16273e-07
2.30793e-08
3.16448e-07
2.20977e-08
3.1661e-07
2.12026e-08
3.16761e-07
2.03802e-08
3.16903e-07
1.96211e-08
3.17037e-07
1.89173e-08
3.17164e-07
1.82625e-08
3.17284e-07
1.76509e-08
3.17398e-07
1.70779e-08
3.17508e-07
1.65392e-08
3.17612e-07
1.60312e-08
3.17712e-07
1.55508e-08
3.17808e-07
1.50948e-08
3.179e-07
1.46608e-08
3.17989e-07
1.42463e-08
3.18075e-07
1.38491e-08
3.18158e-07
1.3467e-08
3.18239e-07
1.30982e-08
3.18317e-07
1.27406e-08
3.18394e-07
1.23924e-08
3.18469e-07
1.20516e-08
3.18542e-07
1.17164e-08
3.18615e-07
1.13843e-08
3.18687e-07
1.10537e-08
3.18758e-07
1.07212e-08
3.18829e-07
1.03844e-08
3.189e-07
1.0039e-08
3.18972e-07
9.6806e-09
3.19043e-07
9.30436e-09
3.19115e-07
8.90086e-09
3.19186e-07
8.46582e-09
3.19255e-07
7.98068e-09
3.19322e-07
7.44218e-09
3.19381e-07
6.8184e-09
3.19431e-07
6.10586e-09
3.19461e-07
5.25536e-09
3.19461e-07
4.25517e-09
3.0279e-09
3.19407e-07
3.16743e-07
2.43023e-08
3.19659e-07
4.69454e-08
3.20983e-07
4.37138e-08
3.21918e-07
3.76753e-08
3.22791e-07
3.57194e-08
3.23412e-07
3.41771e-08
3.23832e-07
3.18381e-08
3.24181e-07
2.96227e-08
3.24494e-07
2.78912e-08
3.24765e-07
2.64465e-08
3.25002e-07
2.51411e-08
3.25214e-07
2.39548e-08
3.25407e-07
2.28863e-08
3.25584e-07
2.19202e-08
3.25749e-07
2.10382e-08
3.25902e-07
2.02271e-08
3.26045e-07
1.94775e-08
3.26181e-07
1.87821e-08
3.26308e-07
1.81347e-08
3.2643e-07
1.75297e-08
3.26545e-07
1.69626e-08
3.26655e-07
1.64294e-08
3.2676e-07
1.59263e-08
3.2686e-07
1.54503e-08
3.26956e-07
1.49985e-08
3.27049e-07
1.45682e-08
3.27138e-07
1.41572e-08
3.27224e-07
1.37631e-08
3.27307e-07
1.33839e-08
3.27388e-07
1.30176e-08
3.27466e-07
1.26622e-08
3.27543e-07
1.23159e-08
3.27617e-07
1.19767e-08
3.27691e-07
1.16428e-08
3.27763e-07
1.13118e-08
3.27835e-07
1.09819e-08
3.27907e-07
1.065e-08
3.27978e-07
1.03133e-08
3.28048e-07
9.96816e-09
3.28119e-07
9.60966e-09
3.2819e-07
9.2335e-09
3.28261e-07
8.83043e-09
3.2833e-07
8.39604e-09
3.28398e-07
7.91357e-09
3.28461e-07
7.37837e-09
3.28517e-07
6.76322e-09
3.2856e-07
6.06222e-09
3.28581e-07
5.23416e-09
3.28568e-07
4.26851e-09
3.10164e-09
3.28494e-07
3.26153e-07
2.19514e-08
3.28998e-07
4.41014e-08
3.30356e-07
4.23553e-08
3.3127e-07
3.6761e-08
3.3214e-07
3.48495e-08
3.32787e-07
3.35307e-08
3.33225e-07
3.14002e-08
3.33581e-07
2.92669e-08
3.33899e-07
2.75726e-08
3.34178e-07
2.61679e-08
3.3442e-07
2.4899e-08
3.34636e-07
2.3739e-08
3.34832e-07
2.26899e-08
3.35013e-07
2.17397e-08
3.35179e-07
2.08714e-08
3.35335e-07
2.00719e-08
3.3548e-07
1.93322e-08
3.35617e-07
1.86455e-08
3.35746e-07
1.80056e-08
3.35868e-07
1.74074e-08
3.35984e-07
1.68464e-08
3.36095e-07
1.63187e-08
3.362e-07
1.58207e-08
3.36301e-07
1.53494e-08
3.36398e-07
1.49018e-08
3.36491e-07
1.44754e-08
3.3658e-07
1.40679e-08
3.36666e-07
1.3677e-08
3.3675e-07
1.33007e-08
3.3683e-07
1.29369e-08
3.36909e-07
1.25838e-08
3.36985e-07
1.22395e-08