/*--------------------------------*- C++ -*----------------------------------*\
  =========                 |
  \\      /  F ield         | OpenFOAM: The Open Source CFD Toolbox
   \\    /   O peration     | Website:  https://openfoam.org
    \\  /    A nd           | Version:  7
     \\/     M anipulation  |
\*---------------------------------------------------------------------------*/
FoamFile
{
    version     2.0;
    format      ascii;
    class       volVectorField;
    location    "0.4";
    object      U;
}
// * * * * * * * * * * * * * * * * * * * * * * * * * * * * * * * * * * * * * //

dimensions      [0 1 -1 0 0 0 0];

internalField   nonuniform List<vector> 
70000
(
(0.553391 0.016723 0)
(0.251263 0.00340095 0)
(0.166209 0.000321934 0)
(0.132468 5.42278e-05 0)
(0.117284 4.56684e-05 0)
(0.107368 5.38449e-05 0)
(0.0994264 4.62149e-05 0)
(0.0929928 3.68798e-05 0)
(0.087754 3.05709e-05 0)
(0.0833899 2.62499e-05 0)
(0.0796722 2.29578e-05 0)
(0.076453 2.03211e-05 0)
(0.0736311 1.81702e-05 0)
(0.0711326 1.63915e-05 0)
(0.0689016 1.49013e-05 0)
(0.0668947 1.36373e-05 0)
(0.065078 1.25534e-05 0)
(0.0634242 1.16146e-05 0)
(0.0619114 1.07945e-05 0)
(0.0605214 1.00723e-05 0)
(0.0592395 9.43175e-06 0)
(0.058053 8.85978e-06 0)
(0.0569514 8.34585e-06 0)
(0.0559258 7.88125e-06 0)
(0.0549685 7.45856e-06 0)
(0.0540729 7.07189e-06 0)
(0.0532335 6.7152e-06 0)
(0.0524453 6.38501e-06 0)
(0.0517041 6.0746e-06 0)
(0.0510062 5.78425e-06 0)
(0.0503488 5.50271e-06 0)
(0.0497287 5.23828e-06 0)
(0.0491442 4.96763e-06 0)
(0.0485928 4.71701e-06 0)
(0.0480741 4.43615e-06 0)
(0.0475856 4.18508e-06 0)
(0.0471282 3.87148e-06 0)
(0.0467004 3.58911e-06 0)
(0.0463026 3.23926e-06 0)
(0.0459392 2.82755e-06 0)
(0.0456002 2.53433e-06 0)
(0.0453164 1.68652e-06 0)
(0.0450312 1.85761e-06 0)
(0.0448685 -3.25023e-07 0)
(0.0446115 1.72876e-06 0)
(0.0446747 -4.723e-06 0)
(0.0443413 4.83082e-06 0)
(0.0449148 -1.73057e-05 0)
(0.0441822 3.86369e-05 0)
(0.0428695 -0.00174719 0)
(0.884898 0.0431673 0)
(0.64972 0.0201937 0)
(0.494337 0.00659767 0)
(0.403699 0.00276686 0)
(0.354794 0.00155127 0)
(0.323511 0.00113093 0)
(0.299671 0.00090984 0)
(0.280491 0.000746073 0)
(0.264792 0.000623371 0)
(0.251681 0.000532772 0)
(0.240509 0.000464026 0)
(0.230833 0.000409943 0)
(0.222349 0.000366246 0)
(0.214834 0.000330269 0)
(0.208121 0.000300202 0)
(0.202079 0.000274751 0)
(0.196608 0.000252964 0)
(0.191625 0.000234127 0)
(0.187064 0.000217699 0)
(0.182873 0.00020326 0)
(0.179005 0.000190478 0)
(0.175424 0.000179092 0)
(0.172097 0.000168888 0)
(0.168999 0.000159692 0)
(0.166104 0.000151358 0)
(0.163395 0.000143766 0)
(0.160854 0.00013681 0)
(0.158466 0.000130402 0)
(0.156219 0.000124461 0)
(0.1541 0.000118922 0)
(0.152102 0.000113708 0)
(0.150214 0.000108782 0)
(0.148431 0.000104041 0)
(0.146745 9.95034e-05 0)
(0.145155 9.49758e-05 0)
(0.143651 9.05976e-05 0)
(0.142237 8.59698e-05 0)
(0.140906 8.14722e-05 0)
(0.139659 7.63237e-05 0)
(0.138505 7.12748e-05 0)
(0.137418 6.50347e-05 0)
(0.136478 5.86111e-05 0)
(0.135533 5.06381e-05 0)
(0.134909 4.0942e-05 0)
(0.134036 3.14021e-05 0)
(0.133997 1.25399e-05 0)
(0.132953 1.04626e-05 0)
(0.134186 -5.97429e-05 0)
(0.132332 0.000186667 0)
(0.133234 -0.0028141 0)
(0.991237 0.0499013 0)
(0.89035 0.030718 0)
(0.762701 0.0145962 0)
(0.656716 0.00797776 0)
(0.585421 0.00488292 0)
(0.536047 0.00346933 0)
(0.49821 0.00273416 0)
(0.467616 0.0022423 0)
(0.44232 0.00187966 0)
(0.421022 0.00160856 0)
(0.402776 0.00140159 0)
(0.386915 0.00123875 0)
(0.372964 0.00110726 0)
(0.360574 0.000999008 0)
(0.34948 0.000908515 0)
(0.339478 0.000831885 0)
(0.330404 0.000766264 0)
(0.322129 0.000709517 0)
(0.314545 0.000660016 0)
(0.307566 0.000616503 0)
(0.301119 0.000577986 0)
(0.295143 0.000543678 0)
(0.289586 0.000512939 0)
(0.284406 0.000485246 0)
(0.279563 0.000460166 0)
(0.275025 0.000437333 0)
(0.270765 0.00041644 0)
(0.266758 0.00039722 0)
(0.262982 0.000379438 0)
(0.25942 0.000362895 0)
(0.256055 0.000347389 0)
(0.252872 0.000332779 0)
(0.249862 0.000318835 0)
(0.24701 0.000305515 0)
(0.244313 0.000292429 0)
(0.241758 0.000279773 0)
(0.239345 0.000266706 0)
(0.237065 0.000254025 0)
(0.234917 0.000239776 0)
(0.232915 0.000226204 0)
(0.231016 0.000208822 0)
(0.229335 0.0001931 0)
(0.227652 0.000169384 0)
(0.226432 0.000149035 0)
(0.224863 0.000114806 0)
(0.224464 8.17553e-05 0)
(0.222691 4.4189e-05 0)
(0.22402 -7.8956e-05 0)
(0.221189 0.000190853 0)
(0.224517 -0.00278064 0)
(1.0156 0.0489202 0)
(1.00596 0.0358739 0)
(0.935962 0.0207893 0)
(0.852156 0.013501 0)
(0.782249 0.00920419 0)
(0.727089 0.00677767 0)
(0.682046 0.00538041 0)
(0.644323 0.00444207 0)
(0.612332 0.00374934 0)
(0.584882 0.00322456 0)
(0.561038 0.00281927 0)
(0.540092 0.00249825 0)
(0.521517 0.00223793 0)
(0.50491 0.00202288 0)
(0.489959 0.00184257 0)
(0.476415 0.00168948 0)
(0.464079 0.00155811 0)
(0.452789 0.00144428 0)
(0.442412 0.00134483 0)
(0.432837 0.00125729 0)
(0.42397 0.00117972 0)
(0.415734 0.00111055 0)
(0.408061 0.00104854 0)
(0.400894 0.000992638 0)
(0.394183 0.000941995 0)
(0.387886 0.000895885 0)
(0.381964 0.000853699 0)
(0.376386 0.000814907 0)
(0.371123 0.000779054 0)
(0.36615 0.000745734 0)
(0.361446 0.000714576 0)
(0.356991 0.00068527 0)
(0.352769 0.000657434 0)
(0.348763 0.000630899 0)
(0.344966 0.000605066 0)
(0.341361 0.000580128 0)
(0.337946 0.000554752 0)
(0.33471 0.000530197 0)
(0.331649 0.000503021 0)
(0.328776 0.000477539 0)
(0.326042 0.000444694 0)
(0.323577 0.000416801 0)
(0.321128 0.00037138 0)
(0.319218 0.000338621 0)
(0.316942 0.000269552 0)
(0.315972 0.000223257 0)
(0.313544 0.000127518 0)
(0.314452 -2.70702e-05 0)
(0.311029 0.000144651 0)
(0.31475 -0.0024017 0)
(1.01434 0.0460037 0)
(1.04753 0.0374874 0)
(1.02458 0.0241486 0)
(0.974776 0.0175545 0)
(0.923491 0.0131166 0)
(0.876756 0.0102 0)
(0.834637 0.00833682 0)
(0.796932 0.00701671 0)
(0.763407 0.00600824 0)
(0.733621 0.00522223 0)
(0.707061 0.00460167 0)
(0.683256 0.00410232 0)
(0.661807 0.00369266 0)
(0.642383 0.00335114 0)
(0.624709 0.00306266 0)
(0.608555 0.00281622 0)
(0.593731 0.00260361 0)
(0.580076 0.00241858 0)
(0.567454 0.00225631 0)
(0.55575 0.00211299 0)
(0.544865 0.00198563 0)
(0.534715 0.00187179 0)
(0.525225 0.00176949 0)
(0.516333 0.00167712 0)
(0.507984 0.00159331 0)
(0.500128 0.0015169 0)
(0.492723 0.00144693 0)
(0.485732 0.00138255 0)
(0.479122 0.00132304 0)
(0.472863 0.00126773 0)
(0.466931 0.00121606 0)
(0.461301 0.0011675 0)
(0.455956 0.0011215 0)
(0.450875 0.00107771 0)
(0.446047 0.00103532 0)
(0.441454 0.000994464 0)
(0.437092 0.000953313 0)
(0.432945 0.000913572 0)
(0.429011 0.00087019 0)
(0.425299 0.000829748 0)
(0.421761 0.000778126 0)
(0.418519 0.000735179 0)
(0.415332 0.00066449 0)
(0.412698 0.000616252 0)
(0.409762 0.000508538 0)
(0.408089 0.000444464 0)
(0.405138 0.000286927 0)
(0.405247 9.49899e-05 0)
(0.401702 0.000157813 0)
(0.404249 -0.00203038 0)
(1.00933 0.0429152 0)
(1.05527 0.0372626 0)
(1.05869 0.0252924 0)
(1.03638 0.0197531 0)
(1.00713 0.0158038 0)
(0.976107 0.0129274 0)
(0.944619 0.0109514 0)
(0.913794 0.00947041 0)
(0.884479 0.00828176 0)
(0.857055 0.00731601 0)
(0.8316 0.0065281 0)
(0.808049 0.00587777 0)
(0.786281 0.00533352 0)
(0.766153 0.00487247 0)
(0.747518 0.00447787 0)
(0.730238 0.00413708 0)
(0.714184 0.00384034 0)
(0.699238 0.00358006 0)
(0.685294 0.00335022 0)
(0.672261 0.00314605 0)
(0.660053 0.00296365 0)
(0.648596 0.00279989 0)
(0.637826 0.00265215 0)
(0.627683 0.00251826 0)
(0.618115 0.00239641 0)
(0.609075 0.00228504 0)
(0.600522 0.00218281 0)
(0.592419 0.00208857 0)
(0.584733 0.00200133 0)
(0.577433 0.00192016 0)
(0.570494 0.00184428 0)
(0.563891 0.00177294 0)
(0.557606 0.00170542 0)
(0.551615 0.00164117 0)
(0.545909 0.00157918 0)
(0.540467 0.00151948 0)
(0.535284 0.00145976 0)
(0.530343 0.00140211 0)
(0.525642 0.00133996 0)
(0.521184 0.00128191 0)
(0.516931 0.00120927 0)
(0.512983 0.00114832 0)
(0.50914 0.00105091 0)
(0.505817 0.000982872 0)
(0.502308 0.000837362 0)
(0.499907 0.000746761 0)
(0.49656 0.000535215 0)
(0.495709 0.000284639 0)
(0.492273 0.000263221 0)
(0.493273 -0.00165457 0)
(1.00625 0.0400337 0)
(1.05206 0.0363352 0)
(1.06609 0.0252214 0)
(1.0596 0.020552 0)
(1.04689 0.0172291 0)
(1.03083 0.0146451 0)
(1.01196 0.0128085 0)
(0.991315 0.0113843 0)
(0.969943 0.0101894 0)
(0.948574 0.00917605 0)
(0.927649 0.00831833 0)
(0.90743 0.00758823 0)
(0.888062 0.00696117 0)
(0.869612 0.00641822 0)
(0.8521 0.00594482 0)
(0.835514 0.00552946 0)
(0.819823 0.00516287 0)
(0.804983 0.00483754 0)
(0.79095 0.00454733 0)
(0.777674 0.00428721 0)
(0.765107 0.00405301 0)
(0.753204 0.00384126 0)
(0.741918 0.00364905 0)
(0.73121 0.0034739 0)
(0.72104 0.00331371 0)
(0.711372 0.00316664 0)
(0.702173 0.00303113 0)
(0.693413 0.00290577 0)
(0.685065 0.00278937 0)
(0.677102 0.0026808 0)
(0.669502 0.0025791 0)
(0.662242 0.00248332 0)
(0.655307 0.00239259 0)
(0.648675 0.00230617 0)
(0.642337 0.00222287 0)
(0.636272 0.0021426 0)
(0.630479 0.00206267 0)
(0.624937 0.00198538 0)
(0.619649 0.00190295 0)
(0.614611 0.00182542 0)
(0.609798 0.00173068 0)
(0.605282 0.0016492 0)
(0.600918 0.00152523 0)
(0.597017 0.00143299 0)
(0.593056 0.00125298 0)
(0.590006 0.00112652 0)
(0.586366 0.000871186 0)
(0.584617 0.000549495 0)
(0.581285 0.000453606 0)
(0.580989 -0.00123909 0)
(1.00495 0.0373558 0)
(1.04727 0.0352531 0)
(1.06397 0.0246813 0)
(1.06425 0.0205778 0)
(1.06069 0.0177658 0)
(1.05477 0.0154861 0)
(1.04604 0.0138637 0)
(1.03488 0.012604 0)
(1.022 0.0115199 0)
(1.00801 0.0105698 0)
(0.993355 0.00974005 0)
(0.978394 0.00901302 0)
(0.963389 0.00837178 0)
(0.948531 0.00780304 0)
(0.933955 0.00729642 0)
(0.919754 0.0068434 0)
(0.905987 0.00643681 0)
(0.892687 0.00607058 0)
(0.879873 0.00573955 0)
(0.867549 0.00543934 0)
(0.855712 0.0051662 0)
(0.844352 0.0049169 0)
(0.833457 0.00468869 0)
(0.823009 0.00447914 0)
(0.812992 0.00428615 0)
(0.803387 0.00410786 0)
(0.794177 0.00394265 0)
(0.785343 0.00378904 0)
(0.776868 0.00364574 0)
(0.768735 0.00351152 0)
(0.76093 0.00338534 0)
(0.753435 0.00326612 0)
(0.74624 0.0031529 0)
(0.739329 0.00304478 0)
(0.732694 0.00294047 0)
(0.72632 0.00283975 0)
(0.720207 0.00273962 0)
(0.714337 0.00264249 0)
(0.708715 0.00253974 0)
(0.703333 0.00244213 0)
(0.698181 0.00232557 0)
(0.693304 0.00222218 0)
(0.688608 0.00207302 0)
(0.684313 0.00195343 0)
(0.680056 0.00174308 0)
(0.676523 0.00157412 0)
(0.672696 0.00128317 0)
(0.670248 0.000887397 0)
(0.666959 0.000714719 0)
(0.665732 -0.000785321 0)
(1.0044 0.0348078 0)
(1.04324 0.0341799 0)
(1.05994 0.0240401 0)
(1.06229 0.0202835 0)
(1.0625 0.0178288 0)
(1.06182 0.0157659 0)
(1.05927 0.0143163 0)
(1.05475 0.0132215 0)
(1.04857 0.0122795 0)
(1.04103 0.0114414 0)
(1.03242 0.0106962 0)
(1.023 0.0100303 0)
(1.01298 0.00943066 0)
(1.00256 0.00888763 0)
(0.991911 0.0083941 0)
(0.981156 0.00794439 0)
(0.970399 0.00753366 0)
(0.95972 0.0071577 0)
(0.949181 0.00681285 0)
(0.938826 0.00649585 0)
(0.928689 0.00620388 0)
(0.918793 0.00593438 0)
(0.909155 0.00568512 0)
(0.899784 0.00545407 0)
(0.890686 0.00523944 0)
(0.881863 0.00503957 0)
(0.873313 0.004853 0)
(0.865033 0.00467835 0)
(0.857021 0.00451441 0)
(0.849269 0.00435998 0)
(0.841774 0.00421404 0)
(0.834527 0.00407547 0)
(0.827525 0.00394332 0)
(0.820759 0.00381661 0)
(0.814227 0.00369399 0)
(0.807918 0.00357515 0)
(0.801836 0.00345693 0)
(0.795967 0.0033417 0)
(0.790322 0.00322039 0)
(0.78489 0.00310383 0)
(0.779672 0.00296725 0)
(0.774697 0.00284228 0)
(0.769907 0.00267049 0)
(0.765454 0.00252255 0)
(0.7611 0.00228624 0)
(0.757311 0.00207234 0)
(0.75343 0.00175087 0)
(0.750541 0.00128681 0)
(0.747297 0.00103203 0)
(0.745467 -0.000311756 0)
(1.00402 0.0323677 0)
(1.03991 0.0331298 0)
(1.05616 0.0234169 0)
(1.05893 0.019895 0)
(1.06023 0.0176977 0)
(1.06159 0.0157689 0)
(1.06198 0.01442 0)
(1.06111 0.0134396 0)
(1.05908 0.0126132 0)
(1.05599 0.0118807 0)
(1.05193 0.0112284 0)
(1.04702 0.0106425 0)
(1.04138 0.01011 0)
(1.03513 0.00962162 0)
(1.02839 0.00917159 0)
(1.02127 0.00875548 0)
(1.01387 0.00836984 0)
(1.00626 0.00801175 0)
(0.998523 0.00767873 0)
(0.990716 0.00736856 0)
(0.982889 0.00707929 0)
(0.975082 0.00680915 0)
(0.96733 0.00655653 0)
(0.95966 0.00631994 0)
(0.952093 0.00609803 0)
(0.944646 0.00588949 0)
(0.937334 0.00569317 0)
(0.930166 0.0055079 0)
(0.923151 0.0053327 0)
(0.916294 0.00516648 0)
(0.9096 0.00500836 0)
(0.903069 0.00485728 0)
(0.896708 0.00471236 0)
(0.890512 0.00457262 0)
(0.884489 0.00443673 0)
(0.878631 0.00430434 0)
(0.872949 0.00417219 0)
(0.867433 0.00404262 0)
(0.862095 0.00390633 0)
(0.856932 0.00377385 0)
(0.851947 0.00362064 0)
(0.847162 0.00347634 0)
(0.842545 0.00328569 0)
(0.838199 0.00311077 0)
(0.833976 0.00285314 0)
(0.830185 0.00259603 0)
(0.826422 0.0022476 0)
(0.823362 0.00172562 0)
(0.820235 0.00138769 0)
(0.818095 0.000158202 0)
(1.00364 0.0300274 0)
(1.03692 0.0320822 0)
(1.05282 0.022827 0)
(1.05569 0.0194893 0)
(1.05714 0.0175049 0)
(1.05905 0.0156677 0)
(1.06051 0.0143657 0)
(1.06122 0.0134478 0)
(1.06125 0.0126946 0)
(1.06063 0.0120361 0)
(1.05936 0.0114559 0)
(1.05744 0.010939 0)
(1.05492 0.0104706 0)
(1.05184 0.0100408 0)
(1.04825 0.009643 0)
(1.04423 0.00927273 0)
(1.03982 0.00892672 0)
(1.03509 0.00860245 0)
(1.03009 0.00829786 0)
(1.02488 0.00801126 0)
(1.01949 0.00774121 0)
(1.01397 0.00748644 0)
(1.00835 0.0072458 0)
(1.00267 0.00701823 0)
(0.996961 0.00680275 0)
(0.991236 0.00659842 0)
(0.98552 0.00640436 0)
(0.979831 0.00621968 0)
(0.974185 0.00604361 0)
(0.968594 0.00587524 0)
(0.963071 0.00571387 0)
(0.957623 0.00555855 0)
(0.95226 0.00540851 0)
(0.946988 0.00526284 0)
(0.941815 0.00512025 0)
(0.936744 0.00498042 0)
(0.931785 0.00484003 0)
(0.926936 0.00470137 0)
(0.92221 0.00455516 0)
(0.917609 0.00441129 0)
(0.913139 0.0042462 0)
(0.908819 0.00408644 0)
(0.904632 0.00388179 0)
(0.900653 0.00368342 0)
(0.896791 0.00340953 0)
(0.893246 0.00311422 0)
(0.889787 0.00274231 0)
(0.886815 0.00217508 0)
(0.883922 0.00175565 0)
(0.881729 0.000610262 0)
(1.00327 0.0277876 0)
(1.03409 0.0310235 0)
(1.0497 0.0222635 0)
(1.05273 0.0190816 0)
(1.05414 0.0172932 0)
(1.0561 0.0155372 0)
(1.05783 0.0142568 0)
(1.05907 0.0133688 0)
(1.05991 0.0126558 0)
(1.0604 0.0120403 0)
(1.06051 0.011505 0)
(1.06024 0.0110344 0)
(1.05956 0.010613 0)
(1.05849 0.0102295 0)
(1.05703 0.00987642 0)
(1.0552 0.00954853 0)
(1.05303 0.00924211 0)
(1.05055 0.00895436 0)
(1.04779 0.00868309 0)
(1.04477 0.00842661 0)
(1.04152 0.00818354 0)
(1.03808 0.00795273 0)
(1.03447 0.0077332 0)
(1.03072 0.00752408 0)
(1.02685 0.00732458 0)
(1.02288 0.00713395 0)
(1.01884 0.00695151 0)
(1.01474 0.00677655 0)
(1.0106 0.00660845 0)
(1.00644 0.00644646 0)
(1.00226 0.00629 0)
(0.998089 0.00613826 0)
(0.993928 0.00599054 0)
(0.989789 0.00584604 0)
(0.985684 0.00570348 0)
(0.981618 0.00556263 0)
(0.977603 0.00542012 0)
(0.973643 0.00527818 0)
(0.969751 0.00512768 0)
(0.965932 0.00497769 0)
(0.962194 0.00480612 0)
(0.958555 0.00463575 0)
(0.955008 0.00442252 0)
(0.951605 0.00420569 0)
(0.948296 0.00392076 0)
(0.945209 0.00359465 0)
(0.942219 0.0032028 0)
(0.939555 0.00260461 0)
(0.937021 0.00210814 0)
(0.934988 0.00102386 0)
(1.00292 0.0256519 0)
(1.03138 0.029949 0)
(1.0467 0.0217222 0)
(1.04994 0.0186718 0)
(1.05132 0.0170695 0)
(1.05325 0.0153996 0)
(1.05501 0.0141343 0)
(1.05637 0.0132614 0)
(1.05744 0.0125712 0)
(1.05831 0.0119792 0)
(1.05899 0.0114682 0)
(1.05945 0.011024 0)
(1.05968 0.0106311 0)
(1.05967 0.0102776 0)
(1.05941 0.00995524 0)
(1.05891 0.0096584 0)
(1.05817 0.0093828 0)
(1.05718 0.00912518 0)
(1.05597 0.00888304 0)
(1.05454 0.00865441 0)
(1.0529 0.00843772 0)
(1.05108 0.0082317 0)
(1.04908 0.00803529 0)
(1.04692 0.00784759 0)
(1.04461 0.00766781 0)
(1.04218 0.00749523 0)
(1.03964 0.00732921 0)
(1.037 0.00716909 0)
(1.03427 0.00701432 0)
(1.03148 0.00686422 0)
(1.02862 0.00671826 0)
(1.02571 0.0065757 0)
(1.02277 0.00643588 0)
(1.01981 0.00629808 0)
(1.01682 0.00616098 0)
(1.01383 0.00602445 0)
(1.01084 0.00588508 0)
(1.00787 0.00574498 0)
(1.00491 0.00559533 0)
(1.00198 0.00544412 0)
(0.999091 0.00527119 0)
(0.996253 0.00509509 0)
(0.993468 0.00487843 0)
(0.99077 0.0046487 0)
(0.988139 0.00435765 0)
(0.985648 0.00400911 0)
(0.983242 0.00360127 0)
(0.981041 0.00298518 0)
(0.978966 0.00242222 0)
(0.977243 0.00137541 0)
(1.0026 0.0236229 0)
(1.02879 0.0288575 0)
(1.04379 0.0212017 0)
(1.04725 0.0182599 0)
(1.04864 0.0168321 0)
(1.05053 0.0152575 0)
(1.05229 0.0140091 0)
(1.05365 0.0131467 0)
(1.05476 0.0124724 0)
(1.05573 0.0118953 0)
(1.05657 0.0113977 0)
(1.0573 0.0109676 0)
(1.05789 0.0105902 0)
(1.05835 0.0102536 0)
(1.05867 0.00994938 0)
(1.05884 0.00967175 0)
(1.05886 0.00941618 0)
(1.05872 0.00917916 0)
(1.05843 0.00895791 0)
(1.05799 0.00875021 0)
(1.0574 0.00855427 0)
(1.05666 0.00836863 0)
(1.05578 0.00819207 0)
(1.05477 0.00802355 0)
(1.05362 0.00786218 0)
(1.05236 0.00770716 0)
(1.05098 0.00755778 0)
(1.04951 0.00741336 0)
(1.04794 0.00727329 0)
(1.04628 0.00713691 0)
(1.04454 0.00700364 0)
(1.04274 0.00687277 0)
(1.04088 0.0067436 0)
(1.03897 0.00661546 0)
(1.03701 0.00648697 0)
(1.03502 0.00635803 0)
(1.03301 0.0062252 0)
(1.03097 0.00609042 0)
(1.02893 0.00594525 0)
(1.02688 0.00579647 0)
(1.02483 0.00562607 0)
(1.02281 0.00544825 0)
(1.0208 0.00523229 0)
(1.01885 0.00499473 0)
(1.01693 0.00470162 0)
(1.01508 0.00433856 0)
(1.0133 0.00391905 0)
(1.01164 0.00329549 0)
(1.01007 0.00267877 0)
(1.00874 0.00165483 0)
(1.0023 0.0217023 0)
(1.02634 0.02775 0)
(1.04095 0.0207006 0)
(1.04464 0.0178473 0)
(1.04605 0.01658 0)
(1.04791 0.0151092 0)
(1.04967 0.0138824 0)
(1.05102 0.0130297 0)
(1.05212 0.0123697 0)
(1.0531 0.0118048 0)
(1.05397 0.0113164 0)
(1.05476 0.0108947 0)
(1.05547 0.010526 0)
(1.05609 0.0101986 0)
(1.05663 0.00990434 0)
(1.05709 0.00963743 0)
(1.05746 0.00939337 0)
(1.05773 0.00916861 0)
(1.05792 0.00896027 0)
(1.05801 0.00876603 0)
(1.058 0.00858396 0)
(1.0579 0.00841248 0)
(1.05769 0.00825023 0)
(1.05739 0.00809604 0)
(1.057 0.00794893 0)
(1.05651 0.00780796 0)
(1.05594 0.00767236 0)
(1.05527 0.00754135 0)
(1.05453 0.00741426 0)
(1.05371 0.00729036 0)
(1.05282 0.00716902 0)
(1.05187 0.0070495 0)
(1.05085 0.00693101 0)
(1.04978 0.0068129 0)
(1.04866 0.00669369 0)
(1.04749 0.00657328 0)
(1.04628 0.00644821 0)
(1.04505 0.00632015 0)
(1.04379 0.00618118 0)
(1.04251 0.00603671 0)
(1.04121 0.00587102 0)
(1.03992 0.00569401 0)
(1.03862 0.00548128 0)
(1.03734 0.00523981 0)
(1.03608 0.00494728 0)
(1.03485 0.00457647 0)
(1.03366 0.00414877 0)
(1.03253 0.00352603 0)
(1.03145 0.00286847 0)
(1.03052 0.00185827 0)
(1.00203 0.0198909 0)
(1.02402 0.0266293 0)
(1.03822 0.0202156 0)
(1.04212 0.017436 0)
(1.04356 0.016313 0)
(1.04538 0.0149534 0)
(1.04714 0.0137536 0)
(1.04849 0.0129106 0)
(1.04958 0.0122648 0)
(1.05054 0.011712 0)
(1.05141 0.011232 0)
(1.0522 0.0108168 0)
(1.05293 0.010454 0)
(1.05359 0.0101324 0)
(1.0542 0.00984401 0)
(1.05475 0.00958313 0)
(1.05524 0.00934546 0)
(1.05569 0.00912751 0)
(1.05608 0.00892648 0)
(1.05641 0.00874002 0)
(1.05668 0.0085662 0)
(1.0569 0.00840339 0)
(1.05705 0.00825016 0)
(1.05714 0.00810529 0)
(1.05717 0.00796771 0)
(1.05713 0.00783644 0)
(1.05703 0.00771061 0)
(1.05688 0.00758939 0)
(1.05666 0.00747202 0)
(1.05639 0.00735772 0)
(1.05606 0.00724579 0)
(1.05568 0.00713544 0)
(1.05524 0.00702579 0)
(1.05477 0.0069162 0)
(1.05424 0.00680507 0)
(1.05368 0.00669226 0)
(1.05308 0.00657435 0)
(1.05245 0.00645262 0)
(1.05179 0.00631981 0)
(1.05111 0.00617985 0)
(1.05041 0.00601933 0)
(1.04969 0.00584417 0)
(1.04898 0.00563553 0)
(1.04825 0.00539263 0)
(1.04754 0.00510191 0)
(1.04683 0.00472818 0)
(1.04614 0.00429517 0)
(1.04547 0.0036784 0)
(1.04482 0.00299263 0)
(1.04425 0.00199122 0)
(1.00179 0.0181891 0)
(1.02183 0.0254995 0)
(1.03558 0.019743 0)
(1.03968 0.0170278 0)
(1.04115 0.0160321 0)
(1.04294 0.0147892 0)
(1.0447 0.0136222 0)
(1.04605 0.0127892 0)
(1.04713 0.0121576 0)
(1.04808 0.0116176 0)
(1.04894 0.0111461 0)
(1.04972 0.0107371 0)
(1.05043 0.0103796 0)
(1.05109 0.0100627 0)
(1.05171 0.00977855 0)
(1.05228 0.00952169 0)
(1.05281 0.00928797 0)
(1.0533 0.00907405 0)
(1.05376 0.0088772 0)
(1.05418 0.00869515 0)
(1.05457 0.00852601 0)
(1.05492 0.00836814 0)
(1.05523 0.00822015 0)
(1.0555 0.00808078 0)
(1.05574 0.00794895 0)
(1.05593 0.00782365 0)
(1.05609 0.00770397 0)
(1.0562 0.00758903 0)
(1.05628 0.00747805 0)
(1.05632 0.0073702 0)
(1.05632 0.0072647 0)
(1.05628 0.00716076 0)
(1.05621 0.00705741 0)
(1.0561 0.00695398 0)
(1.05596 0.00684881 0)
(1.05579 0.00674168 0)
(1.0556 0.00662925 0)
(1.05538 0.00651241 0)
(1.05513 0.00638454 0)
(1.05487 0.00624815 0)
(1.05459 0.00609203 0)
(1.05429 0.00591857 0)
(1.05399 0.00571362 0)
(1.05368 0.00547046 0)
(1.05337 0.0051816 0)
(1.05306 0.00480799 0)
(1.05275 0.00437176 0)
(1.05243 0.00376368 0)
(1.05211 0.00306056 0)
(1.0518 0.00206722 0)
(1.00157 0.0165964 0)
(1.01979 0.0243645 0)
(1.03304 0.0192788 0)
(1.03733 0.0166244 0)
(1.03884 0.0157383 0)
(1.04059 0.014616 0)
(1.04234 0.0134879 0)
(1.0437 0.0126656 0)
(1.04478 0.0120481 0)
(1.04571 0.0115215 0)
(1.04655 0.011059 0)
(1.04732 0.0106565 0)
(1.04803 0.0103042 0)
(1.04867 0.00999177 0)
(1.04928 0.00971144 0)
(1.04984 0.00945795 0)
(1.05038 0.00922729 0)
(1.05088 0.00901625 0)
(1.05135 0.0088222 0)
(1.05179 0.00864294 0)
(1.05221 0.00847664 0)
(1.05261 0.00832171 0)
(1.05297 0.00817676 0)
(1.05332 0.00804058 0)
(1.05363 0.00791207 0)
(1.05393 0.00779022 0)
(1.0542 0.00767414 0)
(1.05444 0.00756292 0)
(1.05466 0.00745574 0)
(1.05485 0.00735178 0)
(1.05502 0.00725021 0)
(1.05517 0.00715023 0)
(1.05529 0.0070508 0)
(1.05539 0.00695124 0)
(1.05547 0.00684986 0)
(1.05553 0.00674634 0)
(1.05557 0.00663749 0)
(1.0556 0.00652371 0)
(1.05561 0.00639915 0)
(1.0556 0.00626493 0)
(1.05559 0.00611185 0)
(1.05556 0.00593933 0)
(1.05553 0.00573695 0)
(1.05549 0.00549384 0)
(1.05545 0.00520624 0)
(1.0554 0.0048344 0)
(1.05535 0.00439626 0)
(1.05527 0.00379842 0)
(1.05517 0.00308613 0)
(1.05505 0.0021031 0)
(1.00137 0.015112 0)
(1.01788 0.0232281 0)
(1.03062 0.0188189 0)
(1.03506 0.0162274 0)
(1.03662 0.0154332 0)
(1.03834 0.014433 0)
(1.04007 0.0133503 0)
(1.04144 0.0125397 0)
(1.04251 0.011936 0)
(1.04343 0.0114233 0)
(1.04426 0.0109706 0)
(1.04502 0.0105748 0)
(1.04571 0.0102279 0)
(1.04635 0.00992003 0)
(1.04694 0.00964356 0)
(1.04749 0.00939334 0)
(1.04802 0.00916553 0)
(1.04851 0.00895704 0)
(1.04898 0.00876531 0)
(1.04942 0.00858823 0)
(1.04984 0.00842402 0)
(1.05024 0.00827112 0)
(1.05062 0.00812819 0)
(1.05098 0.00799403 0)
(1.05133 0.00786756 0)
(1.05165 0.0077478 0)
(1.05196 0.00763382 0)
(1.05226 0.00752476 0)
(1.05253 0.00741978 0)
(1.05279 0.00731804 0)
(1.05303 0.00721869 0)
(1.05326 0.00712093 0)
(1.05348 0.00702368 0)
(1.05368 0.00692626 0)
(1.05387 0.00682698 0)
(1.05404 0.00672537 0)
(1.05421 0.00661846 0)
(1.05436 0.00650619 0)
(1.05451 0.00638341 0)
(1.05465 0.00625004 0)
(1.05478 0.00609859 0)
(1.05491 0.00592617 0)
(1.05504 0.00572511 0)
(1.05516 0.00548198 0)
(1.05528 0.00519489 0)
(1.05538 0.00482554 0)
(1.05548 0.00438672 0)
(1.05555 0.00379929 0)
(1.05558 0.00308519 0)
(1.05555 0.00211624 0)
(1.00119 0.0137343 0)
(1.0161 0.0220947 0)
(1.02829 0.0183597 0)
(1.03289 0.0158378 0)
(1.0345 0.0151185 0)
(1.03617 0.0142398 0)
(1.03789 0.0132091 0)
(1.03927 0.0124115 0)
(1.04033 0.0118213 0)
(1.04124 0.0113231 0)
(1.04206 0.0108807 0)
(1.04281 0.0104919 0)
(1.04349 0.0101507 0)
(1.04412 0.00984751 0)
(1.0447 0.00957502 0)
(1.04524 0.00932816 0)
(1.04575 0.00910323 0)
(1.04623 0.00889725 0)
(1.04669 0.00870775 0)
(1.04712 0.00853269 0)
(1.04754 0.00837033 0)
(1.04793 0.00821916 0)
(1.04831 0.00807786 0)
(1.04867 0.00794525 0)
(1.04901 0.00782028 0)
(1.04935 0.00770196 0)
(1.04966 0.0075894 0)
(1.04997 0.00748172 0)
(1.05026 0.00737807 0)
(1.05054 0.00727764 0)
(1.05081 0.00717954 0)
(1.05107 0.00708299 0)
(1.05132 0.00698688 0)
(1.05156 0.00689051 0)
(1.05179 0.00679221 0)
(1.05202 0.0066914 0)
(1.05224 0.0065853 0)
(1.05245 0.00647344 0)
(1.05266 0.00635133 0)
(1.05287 0.00621785 0)
(1.05308 0.00606693 0)
(1.05328 0.00589397 0)
(1.05348 0.00569321 0)
(1.05368 0.00544995 0)
(1.05388 0.00516282 0)
(1.05406 0.00479637 0)
(1.05424 0.00435797 0)
(1.05437 0.00378108 0)
(1.05446 0.00307131 0)
(1.05446 0.00212097 0)
(1.00104 0.0124609 0)
(1.01446 0.0209684 0)
(1.02608 0.0178978 0)
(1.03079 0.0154565 0)
(1.03247 0.014796 0)
(1.0341 0.0140359 0)
(1.03581 0.0130635 0)
(1.03718 0.0122811 0)
(1.03825 0.0117041 0)
(1.03915 0.0112205 0)
(1.03996 0.0107891 0)
(1.04069 0.0104078 0)
(1.04136 0.0100724 0)
(1.04198 0.00977414 0)
(1.04255 0.00950579 0)
(1.04308 0.0092624 0)
(1.04358 0.00904044 0)
(1.04405 0.00883703 0)
(1.0445 0.0086498 0)
(1.04492 0.00847677 0)
(1.04532 0.00831623 0)
(1.04571 0.00816673 0)
(1.04608 0.00802696 0)
(1.04643 0.00789577 0)
(1.04677 0.00777211 0)
(1.0471 0.00765501 0)
(1.04741 0.00754358 0)
(1.04771 0.00743696 0)
(1.048 0.00733428 0)
(1.04828 0.00723475 0)
(1.04856 0.00713745 0)
(1.04882 0.0070416 0)
(1.04908 0.0069461 0)
(1.04933 0.00685019 0)
(1.04958 0.00675228 0)
(1.04982 0.00665164 0)
(1.05006 0.00654571 0)
(1.05029 0.00643363 0)
(1.05053 0.0063115 0)
(1.05076 0.00617739 0)
(1.05099 0.00602628 0)
(1.05123 0.00585248 0)
(1.05146 0.00565138 0)
(1.05169 0.00540802 0)
(1.05192 0.0051207 0)
(1.05213 0.00475743 0)
(1.05233 0.00432078 0)
(1.05248 0.00375473 0)
(1.05258 0.00305447 0)
(1.05257 0.00212809 0)
(1.0009 0.0112891 0)
(1.01295 0.0198535 0)
(1.02398 0.0174301 0)
(1.02879 0.0150839 0)
(1.03053 0.014468 0)
(1.03212 0.013821 0)
(1.03381 0.0129131 0)
(1.03518 0.0121484 0)
(1.03625 0.0115842 0)
(1.03714 0.0111155 0)
(1.03794 0.0106958 0)
(1.03867 0.0103224 0)
(1.03933 0.009993 0)
(1.03993 0.00969983 0)
(1.04049 0.00943577 0)
(1.04101 0.009196 0)
(1.0415 0.00897711 0)
(1.04196 0.00877636 0)
(1.0424 0.00859147 0)
(1.04281 0.00842052 0)
(1.04321 0.00826186 0)
(1.04358 0.00811404 0)
(1.04394 0.00797582 0)
(1.04429 0.00784603 0)
(1.04462 0.00772365 0)
(1.04493 0.00760773 0)
(1.04524 0.00749736 0)
(1.04554 0.0073917 0)
(1.04582 0.00728987 0)
(1.0461 0.00719108 0)
(1.04636 0.00709441 0)
(1.04663 0.00699906 0)
(1.04688 0.00690394 0)
(1.04713 0.00680825 0)
(1.04738 0.00671045 0)
(1.04762 0.00660969 0)
(1.04786 0.00650363 0)
(1.0481 0.00639105 0)
(1.04833 0.00626856 0)
(1.04857 0.00613359 0)
(1.04881 0.00598195 0)
(1.04905 0.00580726 0)
(1.04929 0.00560556 0)
(1.04952 0.00536231 0)
(1.04975 0.005075 0)
(1.04997 0.00471532 0)
(1.05017 0.0042819 0)
(1.05031 0.00372738 0)
(1.0504 0.00304131 0)
(1.05035 0.00214428 0)
(1.00078 0.0102152 0)
(1.01157 0.0187547 0)
(1.022 0.0169538 0)
(1.02687 0.0147202 0)
(1.02868 0.0141363 0)
(1.03024 0.0135953 0)
(1.03189 0.0127571 0)
(1.03328 0.0120135 0)
(1.03434 0.0114618 0)
(1.03523 0.011008 0)
(1.03602 0.0106006 0)
(1.03673 0.0102356 0)
(1.03739 0.00991243 0)
(1.03798 0.00962451 0)
(1.03853 0.00936491 0)
(1.03904 0.00912889 0)
(1.03952 0.00891318 0)
(1.03997 0.00871519 0)
(1.0404 0.00853272 0)
(1.04081 0.00836392 0)
(1.04119 0.00820719 0)
(1.04156 0.00806112 0)
(1.04191 0.00792448 0)
(1.04224 0.00779613 0)
(1.04256 0.00767506 0)
(1.04287 0.00756032 0)
(1.04317 0.00745102 0)
(1.04346 0.0073463 0)
(1.04373 0.00724531 0)
(1.044 0.00714723 0)
(1.04426 0.00705114 0)
(1.04452 0.00695623 0)
(1.04476 0.00686142 0)
(1.04501 0.00676587 0)
(1.04525 0.0066681 0)
(1.04548 0.00656713 0)
(1.04572 0.00646082 0)
(1.04595 0.00634767 0)
(1.04619 0.00622469 0)
(1.04642 0.00608887 0)
(1.04665 0.00593656 0)
(1.04689 0.00576113 0)
(1.04712 0.00555885 0)
(1.04735 0.00531605 0)
(1.04757 0.00502924 0)
(1.04777 0.00467368 0)
(1.04795 0.0042451 0)
(1.04808 0.00370325 0)
(1.04813 0.00303543 0)
(1.04804 0.00217354 0)
(1.00067 0.00923524 0)
(1.01031 0.0176762 0)
(1.02013 0.0164668 0)
(1.02504 0.014365 0)
(1.02693 0.0138032 0)
(1.02845 0.0133589 0)
(1.03007 0.012595 0)
(1.03145 0.011876 0)
(1.03252 0.0113368 0)
(1.0334 0.0108979 0)
(1.03418 0.0105032 0)
(1.03489 0.0101471 0)
(1.03553 0.00983056 0)
(1.03612 0.00954807 0)
(1.03666 0.0092931 0)
(1.03717 0.00906098 0)
(1.03764 0.00884858 0)
(1.03808 0.00865345 0)
(1.0385 0.00847349 0)
(1.03889 0.00830692 0)
(1.03927 0.00815218 0)
(1.03963 0.00800792 0)
(1.03997 0.00787291 0)
(1.0403 0.00774604 0)
(1.04061 0.00762632 0)
(1.04091 0.00751281 0)
(1.0412 0.0074046 0)
(1.04148 0.00730086 0)
(1.04175 0.00720072 0)
(1.04201 0.00710336 0)
(1.04226 0.00700786 0)
(1.0425 0.0069134 0)
(1.04275 0.0068189 0)
(1.04298 0.00672348 0)
(1.04321 0.00662572 0)
(1.04344 0.00652454 0)
(1.04367 0.00641796 0)
(1.0439 0.00630427 0)
(1.04412 0.00618078 0)
(1.04435 0.00604423 0)
(1.04457 0.00589129 0)
(1.0448 0.00571537 0)
(1.04502 0.00551271 0)
(1.04524 0.00527077 0)
(1.04544 0.00498516 0)
(1.04563 0.00463438 0)
(1.04579 0.00421229 0)
(1.04588 0.00368457 0)
(1.0459 0.00303873 0)
(1.04576 0.00221731 0)
(1.00058 0.00834459 0)
(1.00917 0.0166224 0)
(1.01837 0.0159674 0)
(1.02329 0.0140178 0)
(1.02526 0.0134705 0)
(1.02675 0.0131125 0)
(1.02834 0.0124262 0)
(1.02972 0.0117359 0)
(1.03079 0.0112093 0)
(1.03166 0.010785 0)
(1.03244 0.0104037 0)
(1.03314 0.0100571 0)
(1.03377 0.00974731 0)
(1.03435 0.00947044 0)
(1.03489 0.00922026 0)
(1.03538 0.00899219 0)
(1.03584 0.00878323 0)
(1.03628 0.00859105 0)
(1.03669 0.0084137 0)
(1.03708 0.00824943 0)
(1.03744 0.00809676 0)
(1.03779 0.00795437 0)
(1.03813 0.00782105 0)
(1.03844 0.00769573 0)
(1.03875 0.0075774 0)
(1.03904 0.00746515 0)
(1.03932 0.00735808 0)
(1.03959 0.00725535 0)
(1.03986 0.0071561 0)
(1.04011 0.00705949 0)
(1.04035 0.00696461 0)
(1.04059 0.00687061 0)
(1.04083 0.00677644 0)
(1.04105 0.00668117 0)
(1.04128 0.00658345 0)
(1.0415 0.00648211 0)
(1.04172 0.00637528 0)
(1.04194 0.00626114 0)
(1.04216 0.00613719 0)
(1.04237 0.00600006 0)
(1.04259 0.00584661 0)
(1.0428 0.00567047 0)
(1.04301 0.00546776 0)
(1.04321 0.00522715 0)
(1.04341 0.00494352 0)
(1.04357 0.00459828 0)
(1.04371 0.00418434 0)
(1.04378 0.00367242 0)
(1.04376 0.00305191 0)
(1.04357 0.00227549 0)
(1.0005 0.0075382 0)
(1.00813 0.0155976 0)
(1.01672 0.0154545 0)
(1.02162 0.0136775 0)
(1.02367 0.01314 0)
(1.02514 0.0128568 0)
(1.02669 0.0122501 0)
(1.02806 0.0115927 0)
(1.02914 0.0110794 0)
(1.03001 0.0106693 0)
(1.03078 0.0103018 0)
(1.03147 0.00996515 0)
(1.0321 0.00966258 0)
(1.03267 0.00939151 0)
(1.0332 0.00914629 0)