/*--------------------------------*- C++ -*----------------------------------*\
  =========                 |
  \\      /  F ield         | OpenFOAM: The Open Source CFD Toolbox
   \\    /   O peration     | Website:  https://openfoam.org
    \\  /    A nd           | Version:  7
     \\/     M anipulation  |
\*---------------------------------------------------------------------------*/
FoamFile
{
    version     2.0;
    format      ascii;
    class       volVectorField;
    location    "0.4";
    object      U_0;
}
// * * * * * * * * * * * * * * * * * * * * * * * * * * * * * * * * * * * * * //

dimensions      [0 1 -1 0 0 0 0];

internalField   nonuniform List<vector> 
70000
(
(0.553391 0.016723 0)
(0.251264 0.00340095 0)
(0.166209 0.000321932 0)
(0.132469 5.42263e-05 0)
(0.117285 4.5667e-05 0)
(0.107368 5.38436e-05 0)
(0.0994269 4.62136e-05 0)
(0.0929933 3.68785e-05 0)
(0.0877546 3.05696e-05 0)
(0.0833905 2.62486e-05 0)
(0.0796729 2.29564e-05 0)
(0.0764537 2.03197e-05 0)
(0.0736319 1.81686e-05 0)
(0.0711334 1.63899e-05 0)
(0.0689025 1.48996e-05 0)
(0.0668957 1.36355e-05 0)
(0.065079 1.25515e-05 0)
(0.0634253 1.16126e-05 0)
(0.0619125 1.07924e-05 0)
(0.0605227 1.00701e-05 0)
(0.0592408 9.42938e-06 0)
(0.0580544 8.85727e-06 0)
(0.0569529 8.34319e-06 0)
(0.0559274 7.87844e-06 0)
(0.0549702 7.45558e-06 0)
(0.0540747 7.06872e-06 0)
(0.0532354 6.71183e-06 0)
(0.0524473 6.38141e-06 0)
(0.0517062 6.07075e-06 0)
(0.0510085 5.78011e-06 0)
(0.0503511 5.49824e-06 0)
(0.0497311 5.23344e-06 0)
(0.0491468 4.96233e-06 0)
(0.0485956 4.71119e-06 0)
(0.048077 4.42966e-06 0)
(0.0475887 4.17786e-06 0)
(0.0471314 3.86312e-06 0)
(0.0467039 3.57968e-06 0)
(0.0463062 3.22777e-06 0)
(0.0459431 2.81416e-06 0)
(0.0456044 2.51736e-06 0)
(0.045321 1.66516e-06 0)
(0.0450363 1.83058e-06 0)
(0.0448743 -3.63007e-07 0)
(0.0446183 1.67927e-06 0)
(0.0446829 -4.79209e-06 0)
(0.0443518 4.72162e-06 0)
(0.0449277 -1.74251e-05 0)
(0.0442035 3.84038e-05 0)
(0.0428873 -0.00174803 0)
(0.884898 0.0431673 0)
(0.64972 0.0201936 0)
(0.494337 0.00659766 0)
(0.4037 0.00276686 0)
(0.354795 0.00155127 0)
(0.323512 0.00113093 0)
(0.299672 0.000909835 0)
(0.280492 0.000746068 0)
(0.264793 0.000623367 0)
(0.251682 0.000532768 0)
(0.24051 0.000464021 0)
(0.230834 0.000409938 0)
(0.22235 0.00036624 0)
(0.214835 0.000330262 0)
(0.208122 0.000300195 0)
(0.20208 0.000274743 0)
(0.196609 0.000252955 0)
(0.191626 0.000234118 0)
(0.187066 0.000217689 0)
(0.182874 0.000203249 0)
(0.179007 0.000190467 0)
(0.175426 0.00017908 0)
(0.172099 0.000168876 0)
(0.169 0.000159679 0)
(0.166106 0.000151345 0)
(0.163397 0.000143751 0)
(0.160856 0.000136795 0)
(0.158468 0.000130387 0)
(0.156221 0.000124444 0)
(0.154103 0.000118905 0)
(0.152104 0.00011369 0)
(0.150217 0.000108763 0)
(0.148434 0.000104021 0)
(0.146748 9.94815e-05 0)
(0.145158 9.49522e-05 0)
(0.143655 9.05721e-05 0)
(0.14224 8.59414e-05 0)
(0.140909 8.14407e-05 0)
(0.139662 7.62863e-05 0)
(0.138509 7.12309e-05 0)
(0.137422 6.49783e-05 0)
(0.136482 5.85378e-05 0)
(0.135537 5.05373e-05 0)
(0.134915 4.07959e-05 0)
(0.134043 3.11904e-05 0)
(0.134005 1.22064e-05 0)
(0.132964 9.9806e-06 0)
(0.1342 -6.06543e-05 0)
(0.132362 0.000185501 0)
(0.133256 -0.00281759 0)
(0.991237 0.0499013 0)
(0.89035 0.030718 0)
(0.762701 0.0145962 0)
(0.656716 0.00797774 0)
(0.585421 0.00488291 0)
(0.536048 0.00346932 0)
(0.498211 0.00273415 0)
(0.467617 0.0022423 0)
(0.442321 0.00187966 0)
(0.421023 0.00160856 0)
(0.402777 0.00140159 0)
(0.386916 0.00123874 0)
(0.372964 0.00110725 0)
(0.360574 0.000999001 0)
(0.349481 0.000908506 0)
(0.339479 0.000831874 0)
(0.330405 0.000766252 0)
(0.322129 0.000709503 0)
(0.314545 0.000660001 0)
(0.307566 0.000616486 0)
(0.301119 0.000577968 0)
(0.295143 0.000543659 0)
(0.289587 0.000512919 0)
(0.284406 0.000485225 0)
(0.279564 0.000460145 0)
(0.275026 0.000437311 0)
(0.270766 0.000416418 0)
(0.266759 0.000397197 0)
(0.262983 0.000379414 0)
(0.259421 0.000362871 0)
(0.256056 0.000347364 0)
(0.252873 0.000332753 0)
(0.249863 0.000318809 0)
(0.247011 0.000305488 0)
(0.244314 0.000292401 0)
(0.241759 0.000279745 0)
(0.239346 0.000266676 0)
(0.237066 0.000253993 0)
(0.234918 0.000239737 0)
(0.232916 0.000226159 0)
(0.231017 0.000208761 0)
(0.229336 0.000193017 0)
(0.227653 0.000169255 0)
(0.226433 0.000148836 0)
(0.224865 0.000114487 0)
(0.224467 8.11966e-05 0)
(0.222696 4.33868e-05 0)
(0.224026 -8.07726e-05 0)
(0.221213 0.000188492 0)
(0.224532 -0.0027873 0)
(1.0156 0.0489202 0)
(1.00596 0.0358739 0)
(0.935962 0.0207893 0)
(0.852157 0.013501 0)
(0.78225 0.00920417 0)
(0.72709 0.00677766 0)
(0.682047 0.00538041 0)
(0.644324 0.00444207 0)
(0.612332 0.00374934 0)
(0.584883 0.00322456 0)
(0.561038 0.00281928 0)
(0.540092 0.00249825 0)
(0.521517 0.00223793 0)
(0.50491 0.00202288 0)
(0.489959 0.00184256 0)
(0.476415 0.00168948 0)
(0.464079 0.0015581 0)
(0.452789 0.00144427 0)
(0.442412 0.00134482 0)
(0.432836 0.00125728 0)
(0.42397 0.0011797 0)
(0.415734 0.00111053 0)
(0.408061 0.00104852 0)
(0.400894 0.000992615 0)
(0.394183 0.000941972 0)
(0.387885 0.000895862 0)
(0.381964 0.000853676 0)
(0.376386 0.000814884 0)
(0.371123 0.000779031 0)
(0.36615 0.000745711 0)
(0.361446 0.000714553 0)
(0.35699 0.000685249 0)
(0.352768 0.000657413 0)
(0.348762 0.00063088 0)
(0.344965 0.000605048 0)
(0.341359 0.000580112 0)
(0.337945 0.000554737 0)
(0.334708 0.000530184 0)
(0.331647 0.000503006 0)
(0.328774 0.000477521 0)
(0.32604 0.00044466 0)
(0.323574 0.000416746 0)
(0.321125 0.000371266 0)
(0.319215 0.000338421 0)
(0.316939 0.000269189 0)
(0.315969 0.000222526 0)
(0.313543 0.000126486 0)
(0.314452 -2.9643e-05 0)
(0.311045 0.000141102 0)
(0.31476 -0.00241134 0)
(1.01434 0.0460037 0)
(1.04753 0.0374873 0)
(1.02458 0.0241486 0)
(0.974777 0.0175545 0)
(0.923492 0.0131166 0)
(0.876757 0.0102 0)
(0.834638 0.00833682 0)
(0.796932 0.00701672 0)
(0.763407 0.00600825 0)
(0.733621 0.00522224 0)
(0.707062 0.00460169 0)
(0.683256 0.00410234 0)
(0.661807 0.00369268 0)
(0.642383 0.00335115 0)
(0.624708 0.00306266 0)
(0.608555 0.00281622 0)
(0.593731 0.0026036 0)
(0.580075 0.00241857 0)
(0.567453 0.00225629 0)
(0.555749 0.00211298 0)
(0.544864 0.00198561 0)
(0.534713 0.00187177 0)
(0.525224 0.00176948 0)
(0.516332 0.0016771 0)
(0.507982 0.00159329 0)
(0.500126 0.00151688 0)
(0.492722 0.00144691 0)
(0.48573 0.00138253 0)
(0.47912 0.00132302 0)
(0.472861 0.00126772 0)
(0.466929 0.00121605 0)
(0.461299 0.00116749 0)
(0.455954 0.00112149 0)
(0.450872 0.0010777 0)
(0.446045 0.00103532 0)
(0.441451 0.000994472 0)
(0.437089 0.000953328 0)
(0.432942 0.000913593 0)
(0.429008 0.000870215 0)
(0.425295 0.000829775 0)
(0.421756 0.000778142 0)
(0.418514 0.000735178 0)
(0.415326 0.000664422 0)
(0.412692 0.000616085 0)
(0.409756 0.000508181 0)
(0.408083 0.000443602 0)
(0.405134 0.000285736 0)
(0.405242 9.17253e-05 0)
(0.401711 0.000152959 0)
(0.404257 -0.00204268 0)
(1.00933 0.0429151 0)
(1.05527 0.0372626 0)
(1.05869 0.0252924 0)
(1.03638 0.019753 0)
(1.00713 0.0158038 0)
(0.976108 0.0129274 0)
(0.94462 0.0109514 0)
(0.913795 0.00947042 0)
(0.884479 0.00828178 0)
(0.857056 0.00731604 0)
(0.831601 0.00652813 0)
(0.80805 0.0058778 0)
(0.786281 0.00533355 0)
(0.766152 0.0048725 0)
(0.747518 0.00447789 0)
(0.730238 0.00413709 0)
(0.714183 0.00384035 0)
(0.699237 0.00358006 0)
(0.685293 0.00335022 0)
(0.672259 0.00314604 0)
(0.660051 0.00296364 0)
(0.648595 0.00279988 0)
(0.637825 0.00265214 0)
(0.627681 0.00251825 0)
(0.618113 0.0023964 0)
(0.609073 0.00228503 0)
(0.60052 0.0021828 0)
(0.592417 0.00208856 0)
(0.58473 0.00200132 0)
(0.57743 0.00192015 0)
(0.570491 0.00184428 0)
(0.563888 0.00177295 0)
(0.557603 0.00170544 0)
(0.551612 0.00164119 0)
(0.545906 0.00157921 0)
(0.540463 0.00151951 0)
(0.53528 0.00145981 0)
(0.530339 0.00140217 0)
(0.525637 0.00134003 0)
(0.521179 0.00128199 0)
(0.516925 0.00120934 0)
(0.512977 0.00114838 0)
(0.509133 0.00105091 0)
(0.505809 0.000982753 0)
(0.502301 0.000837038 0)
(0.499899 0.000745802 0)
(0.496553 0.000533864 0)
(0.495703 0.00028071 0)
(0.492278 0.000256983 0)
(0.49328 -0.00166932 0)
(1.00625 0.0400337 0)
(1.05206 0.0363351 0)
(1.06609 0.0252213 0)
(1.0596 0.0205519 0)
(1.04689 0.017229 0)
(1.03083 0.0146451 0)
(1.01196 0.0128085 0)
(0.991317 0.0113843 0)
(0.969944 0.0101895 0)
(0.948575 0.00917609 0)
(0.92765 0.00831838 0)
(0.907431 0.00758828 0)
(0.888062 0.00696122 0)
(0.869612 0.00641826 0)
(0.8521 0.00594486 0)
(0.835514 0.00552949 0)
(0.819822 0.0051629 0)
(0.804983 0.00483756 0)
(0.790949 0.00454735 0)
(0.777673 0.00428722 0)
(0.765106 0.00405302 0)
(0.753202 0.00384126 0)
(0.741917 0.00364905 0)
(0.731208 0.0034739 0)
(0.721038 0.00331371 0)
(0.71137 0.00316664 0)
(0.702171 0.00303113 0)
(0.693411 0.00290578 0)
(0.685062 0.00278938 0)
(0.677099 0.00268081 0)
(0.669499 0.00257912 0)
(0.662239 0.00248334 0)
(0.655304 0.00239262 0)
(0.648672 0.00230621 0)
(0.642333 0.00222293 0)
(0.636268 0.00214268 0)
(0.630474 0.00206276 0)
(0.624932 0.00198549 0)
(0.619644 0.00190308 0)
(0.614605 0.00182556 0)
(0.609792 0.00173082 0)
(0.605276 0.00164934 0)
(0.600911 0.00152529 0)
(0.59701 0.00143292 0)
(0.593048 0.00125269 0)
(0.589997 0.00112549 0)
(0.586359 0.000869646 0)
(0.584611 0.000545081 0)
(0.581286 0.000446007 0)
(0.580995 -0.00125613 0)
(1.00495 0.0373557 0)
(1.04727 0.035253 0)
(1.06397 0.0246812 0)
(1.06426 0.0205777 0)
(1.06069 0.0177657 0)
(1.05477 0.015486 0)
(1.04604 0.0138637 0)
(1.03488 0.012604 0)
(1.022 0.01152 0)
(1.00801 0.0105699 0)
(0.993356 0.00974011 0)
(0.978395 0.00901309 0)
(0.96339 0.00837184 0)
(0.948531 0.0078031 0)
(0.933956 0.00729648 0)
(0.919755 0.00684345 0)
(0.905987 0.00643686 0)
(0.892687 0.00607062 0)
(0.879872 0.00573959 0)
(0.867548 0.00543937 0)
(0.855711 0.00516622 0)
(0.844351 0.00491692 0)
(0.833455 0.00468871 0)
(0.823007 0.00447915 0)
(0.81299 0.00428616 0)
(0.803385 0.00410788 0)
(0.794175 0.00394267 0)
(0.78534 0.00378906 0)
(0.776865 0.00364577 0)
(0.768732 0.00351155 0)
(0.760927 0.00338538 0)
(0.753432 0.00326617 0)
(0.746237 0.00315296 0)
(0.739325 0.00304486 0)
(0.732691 0.00294056 0)
(0.726316 0.00283985 0)
(0.720203 0.00273975 0)
(0.714332 0.00264265 0)
(0.70871 0.00253992 0)
(0.703327 0.00244233 0)
(0.698175 0.00232577 0)
(0.693298 0.00222239 0)
(0.688601 0.00207315 0)
(0.684305 0.00195342 0)
(0.680049 0.00174283 0)
(0.676516 0.00157303 0)
(0.672689 0.00128142 0)
(0.670242 0.000882553 0)
(0.66696 0.000705867 0)
(0.665738 -0.000804439 0)
(1.0044 0.0348078 0)
(1.04324 0.0341798 0)
(1.05994 0.02404 0)
(1.06229 0.0202834 0)
(1.06251 0.0178287 0)
(1.06182 0.0157658 0)
(1.05927 0.0143163 0)
(1.05475 0.0132215 0)
(1.04857 0.0122795 0)
(1.04103 0.0114414 0)
(1.03242 0.0106962 0)
(1.023 0.0100304 0)
(1.01298 0.00943074 0)
(1.00256 0.00888771 0)
(0.991912 0.00839418 0)
(0.981157 0.00794446 0)
(0.9704 0.00753373 0)
(0.959721 0.00715776 0)
(0.949181 0.0068129 0)
(0.938825 0.00649591 0)
(0.928688 0.00620392 0)
(0.918792 0.00593442 0)
(0.909154 0.00568516 0)
(0.899783 0.00545411 0)
(0.890685 0.00523948 0)
(0.881861 0.00503961 0)
(0.873311 0.00485304 0)
(0.865031 0.00467839 0)
(0.857019 0.00451446 0)
(0.849267 0.00436003 0)
(0.841771 0.00421409 0)
(0.834524 0.00407554 0)
(0.827522 0.0039434 0)
(0.820755 0.00381671 0)
(0.814223 0.00369411 0)
(0.807914 0.00357529 0)
(0.801832 0.00345709 0)
(0.795963 0.0033419 0)
(0.790317 0.00322061 0)
(0.784885 0.00310409 0)
(0.779667 0.00296751 0)
(0.774691 0.00284256 0)
(0.769901 0.00267069 0)
(0.765447 0.00252258 0)
(0.761093 0.002286 0)
(0.757305 0.00207121 0)
(0.753425 0.0017489 0)
(0.750536 0.00128156 0)
(0.747298 0.00102207 0)
(0.745472 -0.00033269 0)
(1.00402 0.0323677 0)
(1.03991 0.0331297 0)
(1.05616 0.0234168 0)
(1.05893 0.0198948 0)
(1.06023 0.0176976 0)
(1.06159 0.0157689 0)
(1.06198 0.0144199 0)
(1.06111 0.0134396 0)
(1.05908 0.0126132 0)
(1.05599 0.0118807 0)
(1.05193 0.0112285 0)
(1.04702 0.0106426 0)
(1.04138 0.01011 0)
(1.03513 0.00962172 0)
(1.02839 0.00917168 0)
(1.02127 0.00875557 0)
(1.01387 0.00836992 0)
(1.00626 0.00801184 0)
(0.998524 0.00767881 0)
(0.990717 0.00736863 0)
(0.982889 0.00707936 0)
(0.975082 0.00680922 0)
(0.96733 0.0065566 0)
(0.959659 0.00632001 0)
(0.952092 0.00609809 0)
(0.944645 0.00588955 0)
(0.937333 0.00569323 0)
(0.930165 0.00550797 0)
(0.92315 0.00533277 0)
(0.916292 0.00516655 0)
(0.909598 0.00500843 0)
(0.903067 0.00485737 0)
(0.896705 0.00471246 0)
(0.89051 0.00457274 0)
(0.884486 0.00443687 0)
(0.878628 0.00430451 0)
(0.872945 0.00417239 0)
(0.86743 0.00404285 0)
(0.862092 0.0039066 0)
(0.856928 0.00377415 0)
(0.851942 0.00362095 0)
(0.847157 0.00347666 0)
(0.842539 0.00328594 0)
(0.838194 0.00311084 0)
(0.833971 0.00285292 0)
(0.83018 0.00259485 0)
(0.826418 0.00224539 0)
(0.823359 0.00172 0)
(0.820236 0.00137676 0)
(0.818099 0.000135588 0)
(1.00364 0.0300273 0)
(1.03692 0.0320821 0)
(1.05282 0.0228269 0)
(1.05569 0.0194892 0)
(1.05714 0.0175048 0)
(1.05905 0.0156676 0)
(1.06051 0.0143656 0)
(1.06122 0.0134478 0)
(1.06125 0.0126946 0)
(1.06063 0.0120361 0)
(1.05936 0.011456 0)
(1.05744 0.010939 0)
(1.05492 0.0104707 0)
(1.05184 0.0100409 0)
(1.04826 0.0096431 0)
(1.04423 0.00927283 0)
(1.03982 0.00892683 0)
(1.03509 0.00860255 0)
(1.0301 0.00829795 0)
(1.02488 0.00801135 0)
(1.01949 0.00774131 0)
(1.01397 0.00748653 0)
(1.00835 0.00724589 0)
(1.00267 0.00701832 0)
(0.996961 0.00680284 0)
(0.991235 0.0065985 0)
(0.985519 0.00640445 0)
(0.97983 0.00621977 0)
(0.974184 0.0060437 0)
(0.968593 0.00587534 0)
(0.963069 0.00571397 0)
(0.957621 0.00555866 0)
(0.952258 0.00540863 0)
(0.946986 0.00526299 0)
(0.941813 0.00512041 0)
(0.936742 0.00498061 0)
(0.931782 0.00484026 0)
(0.926933 0.00470164 0)
(0.922207 0.00455546 0)
(0.917606 0.00441164 0)
(0.913135 0.00424656 0)
(0.908816 0.0040868 0)
(0.904629 0.00388208 0)
(0.900649 0.0036835 0)
(0.896787 0.00340929 0)
(0.893243 0.00311298 0)
(0.889784 0.00273988 0)
(0.886813 0.00216912 0)
(0.883923 0.00174397 0)
(0.881732 0.000586542 0)
(1.00327 0.0277876 0)
(1.03409 0.0310234 0)
(1.0497 0.0222634 0)
(1.05273 0.0190814 0)
(1.05414 0.0172931 0)
(1.0561 0.0155371 0)
(1.05783 0.0142567 0)
(1.05907 0.0133688 0)
(1.05991 0.0126558 0)
(1.0604 0.0120404 0)
(1.06052 0.011505 0)
(1.06024 0.0110344 0)
(1.05956 0.0106131 0)
(1.05849 0.0102296 0)
(1.05703 0.00987652 0)
(1.0552 0.00954863 0)
(1.05304 0.00924222 0)
(1.05056 0.00895447 0)
(1.04779 0.00868321 0)
(1.04477 0.00842672 0)
(1.04152 0.00818365 0)
(1.03808 0.00795284 0)
(1.03447 0.00773331 0)
(1.03072 0.00752419 0)
(1.02685 0.00732469 0)
(1.02288 0.00713406 0)
(1.01884 0.00695162 0)
(1.01474 0.00677666 0)
(1.0106 0.00660856 0)
(1.00644 0.00644657 0)
(1.00226 0.00629012 0)
(0.998088 0.00613839 0)
(0.993927 0.00599069 0)
(0.989788 0.00584621 0)
(0.985682 0.00570367 0)
(0.981616 0.00556284 0)
(0.977601 0.00542037 0)
(0.973642 0.00527847 0)
(0.969749 0.00512801 0)
(0.96593 0.00497806 0)
(0.962192 0.00480651 0)
(0.958553 0.00463614 0)
(0.955005 0.00442282 0)
(0.951602 0.00420578 0)
(0.948294 0.00392049 0)
(0.945207 0.00359334 0)
(0.942218 0.00320015 0)
(0.939555 0.00259834 0)
(0.937023 0.0020959 0)
(0.934991 0.000999715 0)
(1.00292 0.0256518 0)
(1.03138 0.0299489 0)
(1.0467 0.021722 0)
(1.04994 0.0186716 0)
(1.05132 0.0170693 0)
(1.05325 0.0153995 0)
(1.05501 0.0141342 0)
(1.05637 0.0132614 0)
(1.05744 0.0125711 0)
(1.05832 0.0119793 0)
(1.05899 0.0114682 0)
(1.05945 0.0110241 0)
(1.05968 0.0106312 0)
(1.05967 0.0102777 0)
(1.05942 0.00995535 0)
(1.05891 0.00965851 0)
(1.05817 0.00938291 0)
(1.05718 0.0091253 0)
(1.05597 0.00888316 0)
(1.05454 0.00865454 0)
(1.0529 0.00843785 0)
(1.05108 0.00823183 0)
(1.04908 0.00803542 0)
(1.04692 0.00784772 0)
(1.04461 0.00766794 0)
(1.04218 0.00749536 0)
(1.03964 0.00732935 0)
(1.037 0.00716923 0)
(1.03427 0.00701446 0)
(1.03148 0.00686436 0)
(1.02862 0.00671841 0)
(1.02571 0.00657585 0)
(1.02277 0.00643604 0)
(1.01981 0.00629826 0)
(1.01682 0.00616119 0)
(1.01383 0.00602468 0)
(1.01084 0.00588534 0)
(1.00787 0.00574529 0)
(1.00491 0.00559567 0)
(1.00198 0.00544451 0)
(0.99909 0.00527158 0)
(0.996252 0.00509548 0)
(0.993466 0.00487874 0)
(0.990769 0.00464876 0)
(0.988138 0.00435733 0)
(0.985647 0.00400771 0)
(0.983243 0.00359839 0)
(0.981043 0.00297867 0)
(0.978968 0.0024096 0)
(0.977245 0.00135121 0)
(1.0026 0.0236228 0)
(1.02879 0.0288574 0)
(1.04379 0.0212015 0)
(1.04725 0.0182597 0)
(1.04864 0.0168319 0)
(1.05053 0.0152573 0)
(1.05229 0.014009 0)
(1.05365 0.0131467 0)
(1.05476 0.0124724 0)
(1.05573 0.0118953 0)
(1.05658 0.0113978 0)
(1.0573 0.0109677 0)
(1.05789 0.0105903 0)
(1.05835 0.0102537 0)
(1.05867 0.00994948 0)
(1.05884 0.00967186 0)
(1.05886 0.0094163 0)
(1.05872 0.00917928 0)
(1.05844 0.00895804 0)
(1.058 0.00875034 0)
(1.0574 0.00855441 0)
(1.05666 0.00836877 0)
(1.05578 0.00819222 0)
(1.05477 0.0080237 0)
(1.05362 0.00786233 0)
(1.05236 0.00770731 0)
(1.05099 0.00755794 0)
(1.04951 0.00741351 0)
(1.04794 0.00727345 0)
(1.04628 0.00713706 0)
(1.04455 0.0070038 0)
(1.04274 0.00687294 0)
(1.04088 0.00674378 0)
(1.03897 0.00661566 0)
(1.03701 0.00648719 0)
(1.03502 0.00635828 0)
(1.03301 0.00622548 0)
(1.03097 0.00609073 0)
(1.02893 0.0059456 0)
(1.02688 0.00579686 0)
(1.02483 0.00562647 0)
(1.02281 0.00544863 0)
(1.02081 0.00523257 0)
(1.01885 0.00499475 0)
(1.01693 0.00470122 0)
(1.01508 0.00433707 0)
(1.0133 0.00391597 0)
(1.01164 0.00328877 0)
(1.01007 0.00266598 0)
(1.00874 0.00163101 0)
(1.0023 0.0217022 0)
(1.02634 0.0277498 0)
(1.04096 0.0207004 0)
(1.04464 0.0178471 0)
(1.04605 0.0165798 0)
(1.04791 0.015109 0)
(1.04967 0.0138822 0)
(1.05102 0.0130296 0)
(1.05212 0.0123696 0)
(1.0531 0.0118048 0)
(1.05398 0.0113165 0)
(1.05477 0.0108948 0)
(1.05547 0.0105261 0)
(1.05609 0.0101987 0)
(1.05663 0.00990444 0)
(1.05709 0.00963754 0)
(1.05746 0.00939349 0)
(1.05774 0.00916873 0)
(1.05792 0.0089604 0)
(1.05801 0.00876617 0)
(1.058 0.00858411 0)
(1.0579 0.00841264 0)
(1.05769 0.00825039 0)
(1.05739 0.00809621 0)
(1.057 0.00794909 0)
(1.05651 0.00780813 0)
(1.05594 0.00767253 0)
(1.05528 0.00754152 0)
(1.05453 0.00741444 0)
(1.05372 0.00729054 0)
(1.05283 0.0071692 0)
(1.05187 0.00704969 0)
(1.05085 0.0069312 0)
(1.04978 0.00681311 0)
(1.04866 0.00669392 0)
(1.04749 0.00657353 0)
(1.04628 0.0064485 0)
(1.04505 0.00632047 0)
(1.04379 0.00618153 0)
(1.04251 0.00603709 0)
(1.04121 0.0058714 0)
(1.03992 0.00569437 0)
(1.03862 0.00548153 0)
(1.03734 0.00523979 0)
(1.03608 0.0049468 0)
(1.03486 0.00457488 0)
(1.03367 0.00414551 0)
(1.03254 0.00351918 0)
(1.03146 0.0028557 0)
(1.03052 0.00183521 0)
(1.00203 0.0198909 0)
(1.02402 0.0266292 0)
(1.03822 0.0202154 0)
(1.04212 0.0174358 0)
(1.04356 0.0163128 0)
(1.04538 0.0149532 0)
(1.04714 0.0137534 0)
(1.04849 0.0129105 0)
(1.04958 0.0122647 0)
(1.05054 0.011712 0)
(1.05141 0.011232 0)
(1.05221 0.0108168 0)
(1.05293 0.0104541 0)
(1.05359 0.0101325 0)
(1.0542 0.0098441 0)
(1.05475 0.00958323 0)
(1.05525 0.00934557 0)
(1.05569 0.00912764 0)
(1.05608 0.00892661 0)
(1.05641 0.00874016 0)
(1.05668 0.00856636 0)
(1.0569 0.00840355 0)
(1.05705 0.00825033 0)
(1.05714 0.00810547 0)
(1.05717 0.00796789 0)
(1.05713 0.00783662 0)
(1.05704 0.0077108 0)
(1.05688 0.00758957 0)
(1.05666 0.00747221 0)
(1.05639 0.00735792 0)
(1.05606 0.00724598 0)
(1.05568 0.00713564 0)
(1.05525 0.007026 0)
(1.05477 0.00691641 0)
(1.05424 0.0068053 0)
(1.05368 0.00669251 0)
(1.05308 0.00657463 0)
(1.05245 0.00645294 0)
(1.05179 0.00632015 0)
(1.05111 0.00618021 0)
(1.05041 0.00601969 0)
(1.0497 0.00584449 0)
(1.04898 0.00563573 0)
(1.04826 0.00539253 0)
(1.04754 0.00510133 0)
(1.04684 0.00472648 0)
(1.04615 0.00429175 0)
(1.04548 0.00367149 0)
(1.04482 0.00298006 0)
(1.04424 0.0019692 0)
(1.00179 0.018189 0)
(1.02183 0.0254994 0)
(1.03558 0.0197428 0)
(1.03968 0.0170275 0)
(1.04115 0.0160318 0)
(1.04295 0.014789 0)
(1.0447 0.013622 0)
(1.04606 0.0127891 0)
(1.04714 0.0121576 0)
(1.04808 0.0116176 0)
(1.04894 0.0111461 0)
(1.04972 0.0107372 0)
(1.05044 0.0103797 0)
(1.0511 0.0100628 0)
(1.05171 0.00977864 0)
(1.05228 0.00952179 0)
(1.05281 0.00928808 0)
(1.05331 0.00907417 0)
(1.05376 0.00887733 0)
(1.05419 0.0086953 0)
(1.05457 0.00852617 0)
(1.05492 0.00836831 0)
(1.05523 0.00822033 0)
(1.0555 0.00808097 0)
(1.05574 0.00794914 0)
(1.05593 0.00782384 0)
(1.05609 0.00770417 0)
(1.0562 0.00758924 0)
(1.05628 0.00747826 0)
(1.05632 0.00737041 0)
(1.05632 0.00726491 0)
(1.05628 0.00716097 0)
(1.05621 0.00705762 0)
(1.0561 0.0069542 0)
(1.05596 0.00684904 0)
(1.0558 0.00674193 0)
(1.0556 0.00662953 0)
(1.05538 0.0065127 0)
(1.05513 0.00638486 0)
(1.05487 0.00624849 0)
(1.05459 0.00609236 0)
(1.05429 0.00591884 0)
(1.05399 0.00571376 0)
(1.05368 0.00547028 0)
(1.05338 0.00518092 0)
(1.05306 0.00480618 0)
(1.05275 0.00436821 0)
(1.05243 0.00375676 0)
(1.05211 0.00304836 0)
(1.0518 0.00204647 0)
(1.00157 0.0165964 0)
(1.01979 0.0243643 0)
(1.03305 0.0192785 0)
(1.03733 0.0166241 0)
(1.03884 0.015738 0)
(1.0406 0.0146157 0)
(1.04234 0.0134877 0)
(1.0437 0.0126654 0)
(1.04478 0.012048 0)
(1.04571 0.0115214 0)
(1.04655 0.011059 0)
(1.04732 0.0106565 0)
(1.04803 0.0103043 0)
(1.04868 0.00999183 0)
(1.04928 0.00971152 0)
(1.04985 0.00945804 0)
(1.05038 0.0092274 0)
(1.05088 0.00901637 0)
(1.05135 0.00882233 0)
(1.0518 0.00864309 0)
(1.05221 0.0084768 0)
(1.05261 0.00832188 0)
(1.05298 0.00817695 0)
(1.05332 0.00804077 0)
(1.05364 0.00791227 0)
(1.05393 0.00779043 0)
(1.0542 0.00767435 0)
(1.05444 0.00756313 0)
(1.05466 0.00745596 0)
(1.05485 0.007352 0)
(1.05502 0.00725042 0)
(1.05517 0.00715044 0)
(1.05529 0.00705101 0)
(1.05539 0.00695146 0)
(1.05547 0.0068501 0)
(1.05553 0.00674659 0)
(1.05558 0.00663775 0)
(1.0556 0.00652399 0)
(1.05561 0.00639944 0)
(1.05561 0.00626523 0)
(1.05559 0.00611213 0)
(1.05557 0.00593955 0)
(1.05554 0.00573702 0)
(1.0555 0.00549358 0)
(1.05546 0.00520545 0)
(1.05541 0.00483249 0)
(1.05535 0.00439262 0)
(1.05528 0.00379157 0)
(1.05518 0.0030744 0)
(1.05505 0.00208387 0)
(1.00137 0.015112 0)
(1.01788 0.023228 0)
(1.03062 0.0188186 0)
(1.03506 0.0162271 0)
(1.03662 0.0154329 0)
(1.03834 0.0144327 0)
(1.04007 0.0133501 0)
(1.04144 0.0125395 0)
(1.04251 0.0119359 0)
(1.04343 0.0114233 0)
(1.04426 0.0109706 0)
(1.04502 0.0105748 0)
(1.04571 0.0102279 0)
(1.04635 0.00992009 0)
(1.04694 0.00964363 0)
(1.0475 0.00939343 0)
(1.04802 0.00916564 0)
(1.04851 0.00895716 0)
(1.04898 0.00876545 0)
(1.04942 0.00858839 0)
(1.04984 0.00842418 0)
(1.05024 0.0082713 0)
(1.05062 0.00812838 0)
(1.05099 0.00799423 0)
(1.05133 0.00786778 0)
(1.05166 0.00774802 0)
(1.05196 0.00763405 0)
(1.05226 0.00752499 0)
(1.05253 0.00742 0)
(1.05279 0.00731826 0)
(1.05304 0.00721891 0)
(1.05327 0.00712114 0)
(1.05348 0.0070239 0)
(1.05368 0.00692648 0)
(1.05387 0.0068272 0)
(1.05405 0.00672561 0)
(1.05421 0.00661871 0)
(1.05437 0.00650645 0)
(1.05451 0.00638368 0)
(1.05465 0.00625031 0)
(1.05479 0.00609883 0)
(1.05491 0.00592633 0)
(1.05504 0.00572511 0)
(1.05516 0.00548163 0)
(1.05528 0.00519399 0)
(1.05539 0.00482355 0)
(1.05548 0.00438302 0)
(1.05555 0.00379258 0)
(1.05558 0.00307407 0)
(1.05554 0.00209868 0)
(1.00119 0.0137342 0)
(1.0161 0.0220945 0)
(1.02829 0.0183594 0)
(1.03289 0.0158375 0)
(1.0345 0.0151181 0)
(1.03617 0.0142395 0)
(1.0379 0.0132088 0)
(1.03927 0.0124113 0)
(1.04033 0.0118212 0)
(1.04124 0.011323 0)
(1.04207 0.0108806 0)
(1.04281 0.0104919 0)
(1.04349 0.0101507 0)
(1.04412 0.00984756 0)
(1.0447 0.00957509 0)
(1.04524 0.00932825 0)
(1.04575 0.00910333 0)
(1.04623 0.00889736 0)
(1.04669 0.00870788 0)
(1.04712 0.00853284 0)
(1.04754 0.0083705 0)
(1.04793 0.00821934 0)
(1.04831 0.00807806 0)
(1.04867 0.00794546 0)
(1.04902 0.0078205 0)
(1.04935 0.00770219 0)
(1.04966 0.00758963 0)
(1.04997 0.00748195 0)
(1.05026 0.00737831 0)
(1.05054 0.00727787 0)
(1.05081 0.00717977 0)
(1.05107 0.00708321 0)
(1.05132 0.0069871 0)
(1.05156 0.00689073 0)
(1.05179 0.00679243 0)
(1.05202 0.00669162 0)
(1.05224 0.00658553 0)
(1.05245 0.00647368 0)
(1.05267 0.00635157 0)
(1.05287 0.00621808 0)
(1.05308 0.00606712 0)
(1.05328 0.00589407 0)
(1.05349 0.00569314 0)
(1.05368 0.00544952 0)
(1.05388 0.00516183 0)
(1.05407 0.0047943 0)
(1.05424 0.00435427 0)
(1.05437 0.00377459 0)
(1.05446 0.00306089 0)
(1.05445 0.00210516 0)
(1.00104 0.0124608 0)
(1.01446 0.0209681 0)
(1.02608 0.0178975 0)
(1.0308 0.0154561 0)
(1.03247 0.0147957 0)
(1.0341 0.0140356 0)
(1.03581 0.0130632 0)
(1.03718 0.0122809 0)
(1.03825 0.0117039 0)
(1.03915 0.0112204 0)
(1.03996 0.0107891 0)
(1.04069 0.0104078 0)
(1.04136 0.0100724 0)
(1.04198 0.00977418 0)
(1.04255 0.00950585 0)
(1.04308 0.00926248 0)
(1.04358 0.00904053 0)
(1.04405 0.00883714 0)
(1.0445 0.00864993 0)
(1.04492 0.00847692 0)
(1.04533 0.00831641 0)
(1.04571 0.00816692 0)
(1.04608 0.00802717 0)
(1.04643 0.00789599 0)
(1.04677 0.00777234 0)
(1.0471 0.00765525 0)
(1.04741 0.00754383 0)
(1.04771 0.00743721 0)
(1.048 0.00733453 0)
(1.04829 0.00723499 0)
(1.04856 0.00713768 0)
(1.04882 0.00704183 0)
(1.04908 0.00694632 0)
(1.04933 0.00685041 0)
(1.04958 0.00675249 0)
(1.04982 0.00665185 0)
(1.05006 0.00654593 0)
(1.05029 0.00643385 0)
(1.05053 0.00631171 0)
(1.05076 0.00617757 0)
(1.051 0.00602642 0)
(1.05123 0.00585251 0)
(1.05146 0.00565123 0)
(1.05169 0.00540751 0)
(1.05192 0.00511961 0)
(1.05213 0.00475532 0)
(1.05233 0.0043171 0)
(1.05249 0.00374852 0)
(1.05258 0.00304484 0)
(1.05257 0.00211408 0)
(1.0009 0.011289 0)
(1.01295 0.0198533 0)
(1.02398 0.0174297 0)
(1.02879 0.0150836 0)
(1.03053 0.0144676 0)
(1.03213 0.0138207 0)
(1.03381 0.0129128 0)
(1.03519 0.0121482 0)
(1.03625 0.011584 0)
(1.03714 0.0111154 0)
(1.03794 0.0106957 0)
(1.03867 0.0103224 0)
(1.03933 0.00999301 0)
(1.03993 0.00969987 0)
(1.04049 0.00943583 0)
(1.04102 0.00919608 0)
(1.04151 0.0089772 0)
(1.04197 0.00877647 0)
(1.0424 0.00859161 0)
(1.04282 0.00842068 0)
(1.04321 0.00826204 0)
(1.04359 0.00811425 0)
(1.04395 0.00797604 0)
(1.04429 0.00784626 0)
(1.04462 0.0077239 0)
(1.04494 0.00760798 0)
(1.04524 0.00749762 0)
(1.04554 0.00739195 0)
(1.04582 0.00729013 0)
(1.0461 0.00719133 0)
(1.04637 0.00709465 0)
(1.04663 0.00699929 0)
(1.04688 0.00690416 0)
(1.04713 0.00680846 0)
(1.04738 0.00671066 0)
(1.04762 0.0066099 0)
(1.04786 0.00650383 0)
(1.0481 0.00639124 0)
(1.04834 0.00626874 0)
(1.04857 0.00613374 0)
(1.04881 0.00598204 0)
(1.04905 0.00580723 0)
(1.04929 0.00560534 0)
(1.04953 0.00536172 0)
(1.04976 0.00507384 0)
(1.04997 0.00471317 0)
(1.05017 0.00427829 0)
(1.05031 0.0037215 0)
(1.0504 0.00303253 0)
(1.05034 0.00213209 0)
(1.00078 0.0102151 0)
(1.01157 0.0187544 0)
(1.022 0.0169534 0)
(1.02687 0.0147198 0)
(1.02868 0.0141359 0)
(1.03024 0.0135949 0)
(1.0319 0.0127568 0)
(1.03328 0.0120132 0)
(1.03434 0.0114616 0)
(1.03523 0.0110079 0)
(1.03602 0.0106005 0)
(1.03674 0.0102355 0)
(1.03739 0.00991243 0)
(1.03798 0.00962453 0)
(1.03853 0.00936495 0)
(1.03905 0.00912896 0)
(1.03953 0.00891327 0)
(1.03998 0.0087153 0)
(1.0404 0.00853286 0)
(1.04081 0.00836409 0)
(1.04119 0.00820738 0)
(1.04156 0.00806133 0)
(1.04191 0.0079247 0)
(1.04224 0.00779637 0)
(1.04257 0.00767532 0)
(1.04287 0.00756059 0)
(1.04317 0.00745129 0)
(1.04346 0.00734658 0)
(1.04373 0.00724558 0)
(1.044 0.00714749 0)
(1.04426 0.00705139 0)
(1.04452 0.00695647 0)
(1.04477 0.00686165 0)
(1.04501 0.00676608 0)
(1.04525 0.0066683 0)
(1.04549 0.00656732 0)
(1.04572 0.006461 0)
(1.04595 0.00634783 0)
(1.04619 0.00622483 0)
(1.04642 0.00608897 0)
(1.04666 0.0059366 0)
(1.04689 0.00576105 0)
(1.04712 0.00555856 0)
(1.04735 0.00531539 0)
(1.04757 0.00502803 0)
(1.04778 0.00467154 0)
(1.04796 0.0042416 0)
(1.04808 0.00369777 0)
(1.04813 0.00302755 0)
(1.04803 0.00216319 0)
(1.00067 0.00923516 0)
(1.01031 0.0176759 0)
(1.02013 0.0164664 0)
(1.02504 0.0143646 0)
(1.02693 0.0138028 0)
(1.02845 0.0133585 0)
(1.03007 0.0125947 0)
(1.03145 0.0118757 0)
(1.03252 0.0113366 0)
(1.0334 0.0108977 0)
(1.03418 0.0105032 0)
(1.03489 0.0101471 0)
(1.03554 0.00983056 0)
(1.03612 0.00954809 0)
(1.03667 0.00929314 0)
(1.03717 0.00906104 0)
(1.03764 0.00884867 0)
(1.03808 0.00865356 0)
(1.0385 0.00847363 0)
(1.0389 0.00830708 0)
(1.03927 0.00815237 0)
(1.03963 0.00800813 0)
(1.03997 0.00787314 0)
(1.0403 0.0077463 0)
(1.04061 0.00762659 0)
(1.04091 0.00751308 0)
(1.0412 0.00740489 0)
(1.04148 0.00730115 0)
(1.04175 0.007201 0)
(1.04201 0.00710363 0)
(1.04226 0.00700812 0)
(1.04251 0.00691365 0)
(1.04275 0.00681912 0)
(1.04298 0.00672369 0)
(1.04322 0.00662591 0)
(1.04344 0.00652472 0)
(1.04367 0.00641812 0)
(1.0439 0.00630441 0)
(1.04412 0.00618089 0)
(1.04435 0.00604429 0)
(1.04458 0.00589128 0)
(1.0448 0.00571522 0)
(1.04502 0.00551235 0)
(1.04524 0.00527005 0)
(1.04545 0.00498389 0)
(1.04563 0.00463225 0)
(1.04579 0.00420894 0)
(1.04589 0.00367951 0)
(1.0459 0.00303177 0)
(1.04576 0.00220876 0)
(1.00058 0.00834451 0)
(1.00917 0.0166222 0)
(1.01837 0.015967 0)
(1.02329 0.0140173 0)
(1.02526 0.01347 0)
(1.02675 0.013112 0)
(1.02834 0.0124258 0)
(1.02972 0.0117356 0)
(1.03079 0.0112091 0)
(1.03166 0.0107848 0)
(1.03244 0.0104036 0)
(1.03314 0.010057 0)
(1.03377 0.0097473 0)
(1.03435 0.00947045 0)
(1.03489 0.00922029 0)
(1.03538 0.00899225 0)
(1.03585 0.00878331 0)
(1.03628 0.00859116 0)
(1.03669 0.00841383 0)
(1.03708 0.0082496 0)
(1.03744 0.00809696 0)
(1.03779 0.00795459 0)
(1.03813 0.0078213 0)
(1.03845 0.00769599 0)
(1.03875 0.00757768 0)
(1.03904 0.00746544 0)
(1.03933 0.00735838 0)
(1.0396 0.00725565 0)
(1.03986 0.00715639 0)
(1.04011 0.00705977 0)
(1.04036 0.00696488 0)
(1.04059 0.00687086 0)
(1.04083 0.00677667 0)
(1.04106 0.00668138 0)
(1.04128 0.00658364 0)
(1.0415 0.00648227 0)
(1.04172 0.00637542 0)
(1.04194 0.00626125 0)
(1.04216 0.00613727 0)
(1.04237 0.00600008 0)
(1.04259 0.00584655 0)
(1.0428 0.00567026 0)
(1.04301 0.00546734 0)
(1.04322 0.00522637 0)
(1.04341 0.00494222 0)
(1.04358 0.0045962 0)
(1.04371 0.00418116 0)
(1.04378 0.00366783 0)
(1.04376 0.0030459 0)
(1.04357 0.00226866 0)
(1.0005 0.00753811 0)
(1.00813 0.0155974 0)
(1.01673 0.015454 0)
(1.02162 0.013677 0)
(1.02367 0.0131395 0)
(1.02514 0.0128563 0)
(1.02669 0.0122497 0)
(1.02806 0.0115924 0)
(1.02914 0.0110791 0)
(1.03001 0.0106691 0)
(1.03078 0.0103017 0)
(1.03147 0.00996509 0)
(1.0321 0.00966255 0)
(1.03267 0.00939151 0)
(1.0332 0.00914631 0)
(1.03369 0.00892248 0)