/*--------------------------------*- C++ -*----------------------------------*\
  =========                 |
  \\      /  F ield         | OpenFOAM: The Open Source CFD Toolbox
   \\    /   O peration     | Website:  https://openfoam.org
    \\  /    A nd           | Version:  7
     \\/     M anipulation  |
\*---------------------------------------------------------------------------*/
FoamFile
{
    version     2.0;
    format      ascii;
    class       volVectorField;
    location    "0.4";
    object      wallShearStress;
}
// * * * * * * * * * * * * * * * * * * * * * * * * * * * * * * * * * * * * * //

dimensions      [0 2 -2 0 0 0 0];

internalField   uniform (0 0 0);

boundaryField
{
    velocityInlet
    {
        type            calculated;
        value           uniform (0 0 0);
    }
    pressureOutlet
    {
        type            calculated;
        value           uniform (0 0 0);
    }
    fixedWalls
    {
        type            calculated;
        value           nonuniform List<vector> 
100
(
(-0.00818655 -0.000852505 0)
(-0.00262045 -0.000533227 0)
(-0.00107519 -0.000350949 0)
(0.000707457 -0.000318074 0)
(0.00192043 -0.000208463 0)
(0.0024752 -0.00011085 0)
(0.00254749 -2.23074e-05 0)
(0.0022141 4.41901e-05 0)
(0.00161914 8.93327e-05 0)
(0.00088012 0.000115713 0)
(9.98292e-05 0.000124275 0)
(-0.000647642 0.000121576 0)
(-0.00131582 0.000110392 0)
(-0.00187605 9.42573e-05 0)
(-0.00229592 7.27589e-05 0)
(-0.00252843 4.44571e-05 0)
(-0.00252947 5.33066e-06 0)
(-0.00230841 -3.10864e-05 0)
(-0.00196755 -4.82835e-05 0)
(-0.00166651 -3.86681e-05 0)
(-0.00153443 -1.48776e-05 0)
(-0.00160101 1.20821e-05 0)
(-0.0018099 2.82895e-05 0)
(-0.00208878 3.3692e-05 0)
(-0.00239629 3.51124e-05 0)
(-0.00275176 4.53103e-05 0)
(-0.00322946 7.14089e-05 0)
(-0.00381239 9.07029e-05 0)
(-0.00420956 5.44637e-05 0)
(-0.00393111 -6.80101e-05 0)
(-0.00293427 -0.000161384 0)
(-0.00214239 -0.000103288 0)
(-0.00272465 0.000102095 0)
(-0.00468302 0.000265214 0)
(-0.00702883 0.000305474 0)
(-0.00884675 0.00026929 0)
(-0.00919221 8.43971e-05 0)
(-0.00696139 -0.000329436 0)
(-0.00172374 -0.000798416 0)
(0.00442081 -0.000829678 0)
(0.00846522 -0.000527868 0)
(0.00923095 -6.5358e-05 0)
(0.00701189 0.000294788 0)
(0.00335116 0.000417586 0)
(-0.000186029 0.000364126 0)
(-0.0027457 0.000240905 0)
(-0.00419728 0.000126195 0)
(-0.00481414 4.97504e-05 0)
(-0.00494609 9.8387e-06 0)
(-0.00486391 -7.92139e-06 0)
(-0.00473752 -8.36117e-06 0)
(-0.00465249 -1.1539e-06 0)
(-0.00462256 5.92896e-06 0)
(-0.00460926 7.17159e-06 0)
(-0.00456043 2.02354e-06 0)
(-0.00444986 -4.7767e-06 0)
(-0.00428966 -8.61679e-06 0)
(-0.00410824 -8.61862e-06 0)
(-0.00391729 -7.65592e-06 0)
(-0.00369172 -1.02261e-05 0)
(-0.00337146 -2.03929e-05 0)
(-0.00288591 -3.92211e-05 0)
(-0.00218988 -6.44762e-05 0)
(-0.00128771 -9.25021e-05 0)
(-0.000223495 -0.000115966 0)
(0.000891567 -0.000125824 0)
(0.00181018 -0.000105515 0)
(0.00226001 -5.38571e-05 0)
(0.00206421 1.85292e-05 0)
(0.00127495 7.81093e-05 0)
(0.000152497 0.00010078 0)
(-0.00100893 9.96483e-05 0)
(-0.00202366 8.1118e-05 0)
(-0.00283134 6.05839e-05 0)
(-0.00347646 4.73033e-05 0)
(-0.0040412 4.31403e-05 0)
(-0.00458272 4.35941e-05 0)
(-0.00512169 4.57055e-05 0)
(-0.00568013 5.20526e-05 0)
(-0.00628987 6.33546e-05 0)
(-0.00693548 7.31892e-05 0)
(-0.00749222 7.27106e-05 0)
(-0.00770118 5.15484e-05 0)
(-0.00720421 -1.50003e-05 0)
(-0.0056926 -0.000118375 0)
(-0.00290083 -0.000273719 0)
(0.000778085 -0.000333828 0)
(0.00415615 -0.000316242 0)
(0.0063286 -0.000194572 0)
(0.0068264 -3.77482e-05 0)
(0.00579248 9.78362e-05 0)
(0.00390404 0.000156858 0)
(0.00186307 0.000161175 0)
(7.04202e-05 0.000137428 0)
(-0.00123255 0.000100808 0)
(-0.00214732 6.6398e-05 0)
(-0.00230514 2.33173e-05 0)
(-0.00241738 -5.56858e-06 0)
(-0.00137696 -7.27086e-05 0)
(-0.000436561 -5.00346e-05 0)
)
;
    }
    bottomWall
    {
        type            calculated;
        value           nonuniform List<vector> 
800
(
(-0.0353488 0.00214398 0)
(-0.0160265 0.00052484 0)
(-0.0106074 0.000100723 0)
(-0.00845538 3.52649e-05 0)
(-0.00748547 1.98649e-05 0)
(-0.00685162 1.61247e-05 0)
(-0.00634401 1.33578e-05 0)
(-0.00593274 1.09012e-05 0)
(-0.00559788 9.07914e-06 0)
(-0.00531896 7.76247e-06 0)
(-0.00508141 6.76566e-06 0)
(-0.00487576 5.97822e-06 0)
(-0.00469556 5.34025e-06 0)
(-0.00453606 4.81447e-06 0)
(-0.00439367 4.37499e-06 0)
(-0.00426561 4.0032e-06 0)
(-0.00414971 3.68518e-06 0)
(-0.00404419 3.41052e-06 0)
(-0.00394767 3.17128e-06 0)
(-0.00385896 2.96147e-06 0)
(-0.00377711 2.77607e-06 0)
(-0.00370132 2.61119e-06 0)
(-0.00363092 2.4639e-06 0)
(-0.0035653 2.33158e-06 0)
(-0.003504 2.21207e-06 0)
(-0.00344658 2.10376e-06 0)
(-0.00339267 2.00515e-06 0)
(-0.00334195 1.91517e-06 0)
(-0.00329413 1.8327e-06 0)
(-0.00324898 1.75686e-06 0)
(-0.00320625 1.687e-06 0)
(-0.00316577 1.62244e-06 0)
(-0.00312735 1.56271e-06 0)
(-0.00309083 1.50721e-06 0)
(-0.00305608 1.45559e-06 0)
(-0.00302296 1.40747e-06 0)
(-0.00299137 1.36239e-06 0)
(-0.0029612 1.32028e-06 0)
(-0.00293236 1.28099e-06 0)
(-0.00290475 1.24393e-06 0)
(-0.0028783 1.20901e-06 0)
(-0.00285294 1.17635e-06 0)
(-0.0028286 1.14544e-06 0)
(-0.00280523 1.11609e-06 0)
(-0.00278275 1.08858e-06 0)
(-0.00276114 1.0622e-06 0)
(-0.00274033 1.03765e-06 0)
(-0.0027203 1.01372e-06 0)
(-0.00270096 9.92072e-07 0)
(-0.00268233 9.68896e-07 0)
(-0.00266676 9.49848e-07 0)
(-0.00265389 9.39103e-07 0)
(-0.00264119 9.25342e-07 0)
(-0.00262868 9.10672e-07 0)
(-0.00261636 8.9684e-07 0)
(-0.00260423 8.83745e-07 0)
(-0.00259226 8.71035e-07 0)
(-0.00258048 8.58561e-07 0)
(-0.00256885 8.46347e-07 0)
(-0.0025574 8.34219e-07 0)
(-0.0025461 8.22673e-07 0)
(-0.00253496 8.11368e-07 0)
(-0.00252397 8.00138e-07 0)
(-0.00251314 7.89312e-07 0)
(-0.00250245 7.78723e-07 0)
(-0.0024919 7.68197e-07 0)
(-0.00248149 7.57903e-07 0)
(-0.00247123 7.48e-07 0)
(-0.00246109 7.38326e-07 0)
(-0.00245108 7.28544e-07 0)
(-0.00244121 7.19154e-07 0)
(-0.00243146 7.0998e-07 0)
(-0.00242184 7.01029e-07 0)
(-0.00241234 6.92296e-07 0)
(-0.00240295 6.83448e-07 0)
(-0.00239369 6.74978e-07 0)
(-0.00238453 6.66724e-07 0)
(-0.00237549 6.58517e-07 0)
(-0.00236656 6.50524e-07 0)
(-0.00235774 6.42572e-07 0)
(-0.00234902 6.3483e-07 0)
(-0.00234041 6.27466e-07 0)
(-0.00233189 6.19977e-07 0)
(-0.00232349 6.12525e-07 0)
(-0.00231517 6.05614e-07 0)
(-0.00230695 5.98574e-07 0)
(-0.00229883 5.91574e-07 0)
(-0.0022908 5.84771e-07 0)
(-0.00228286 5.78172e-07 0)
(-0.00227501 5.71774e-07 0)
(-0.00226724 5.65246e-07 0)
(-0.00225957 5.58911e-07 0)
(-0.00225198 5.52778e-07 0)
(-0.00224447 5.46675e-07 0)
(-0.00223705 5.40606e-07 0)
(-0.0022297 5.34895e-07 0)
(-0.00222243 5.2905e-07 0)
(-0.00221525 5.23232e-07 0)
(-0.00220814 5.17944e-07 0)
(-0.0022011 5.12348e-07 0)
(-0.00219414 5.0678e-07 0)
(-0.00218725 5.01739e-07 0)
(-0.00218042 4.96559e-07 0)
(-0.00217368 4.91235e-07 0)
(-0.002167 4.8627e-07 0)
(-0.00216038 4.81328e-07 0)
(-0.00215384 4.76414e-07 0)
(-0.00214736 4.71685e-07 0)
(-0.00214094 4.66815e-07 0)
(-0.0021346 4.62133e-07 0)
(-0.00212831 4.57808e-07 0)
(-0.00212208 4.53337e-07 0)
(-0.00211591 4.48889e-07 0)
(-0.0021098 4.44461e-07 0)
(-0.00210375 4.40225e-07 0)
(-0.00209776 4.36005e-07 0)
(-0.00209183 4.31808e-07 0)
(-0.00208595 4.27963e-07 0)
(-0.00208012 4.23807e-07 0)
(-0.00207435 4.19834e-07 0)
(-0.00206863 4.16048e-07 0)
(-0.00206297 4.1228e-07 0)
(-0.00205735 4.08532e-07 0)
(-0.00205179 4.04799e-07 0)
(-0.00204627 4.01084e-07 0)
(-0.00204082 3.97551e-07 0)
(-0.0020354 3.94206e-07 0)
(-0.00203003 3.90542e-07 0)
(-0.00202471 3.87062e-07 0)
(-0.00201943 3.83753e-07 0)
(-0.00201421 3.80632e-07 0)
(-0.00200901 3.77356e-07 0)
(-0.00200388 3.73934e-07 0)
(-0.00199878 3.70846e-07 0)
(-0.00199372 3.67778e-07 0)
(-0.00198871 3.64551e-07 0)
(-0.00198375 3.61511e-07 0)
(-0.00197882 3.58646e-07 0)
(-0.00197393 3.55635e-07 0)
(-0.00196908 3.52625e-07 0)
(-0.00196427 3.4981e-07 0)
(-0.0019595 3.47153e-07 0)
(-0.00195477 3.44375e-07 0)
(-0.00195007 3.4156e-07 0)
(-0.00194541 3.38826e-07 0)
(-0.0019408 3.36172e-07 0)
(-0.00193621 3.33669e-07 0)
(-0.00193166 3.30819e-07 0)
(-0.00192715 3.28543e-07 0)
(-0.00192267 3.25819e-07 0)
(-0.00191891 3.23173e-07 0)
(-0.00191583 3.2198e-07 0)
(-0.00191275 3.20639e-07 0)
(-0.00190966 3.18704e-07 0)
(-0.00190657 3.16877e-07 0)
(-0.00190347 3.15232e-07 0)
(-0.00190037 3.13668e-07 0)
(-0.00189726 3.12075e-07 0)
(-0.00189415 3.10274e-07 0)
(-0.00189103 3.08484e-07 0)
(-0.00188791 3.07156e-07 0)
(-0.00188477 3.05386e-07 0)
(-0.00188165 3.03655e-07 0)
(-0.0018785 3.02308e-07 0)
(-0.00187536 3.0058e-07 0)
(-0.00187221 2.98841e-07 0)
(-0.00186906 2.97342e-07 0)
(-0.0018659 2.9583e-07 0)
(-0.00186273 2.94333e-07 0)
(-0.00185956 2.92637e-07 0)
(-0.00185638 2.90946e-07 0)
(-0.0018532 2.89473e-07 0)
(-0.00185002 2.88038e-07 0)
(-0.00184683 2.86552e-07 0)
(-0.00184363 2.85126e-07 0)
(-0.00184042 2.83466e-07 0)
(-0.00183722 2.81827e-07 0)
(-0.00183401 2.804e-07 0)
(-0.00183079 2.78976e-07 0)
(-0.00182756 2.77367e-07 0)
(-0.00182434 2.75788e-07 0)
(-0.00182111 2.74563e-07 0)
(-0.00181787 2.73186e-07 0)
(-0.00181462 2.71414e-07 0)
(-0.00181138 2.7004e-07 0)
(-0.00180812 2.68681e-07 0)
(-0.00180487 2.67326e-07 0)
(-0.0018016 2.65971e-07 0)
(-0.00179833 2.64472e-07 0)
(-0.00179505 2.62925e-07 0)
(-0.00179178 2.61622e-07 0)
(-0.00178849 2.60285e-07 0)
(-0.0017852 2.58969e-07 0)
(-0.0017819 2.57665e-07 0)
(-0.0017786 2.5602e-07 0)
(-0.0017753 2.54723e-07 0)
(-0.00177199 2.53606e-07 0)
(-0.00176867 2.52159e-07 0)
(-0.00176535 2.50742e-07 0)
(-0.00176202 2.49444e-07 0)
(-0.00175869 2.48191e-07 0)
(-0.00175535 2.46757e-07 0)
(-0.00175201 2.45512e-07 0)
(-0.00174866 2.44271e-07 0)
(-0.00174531 2.42876e-07 0)
(-0.00174195 2.41643e-07 0)
(-0.00173858 2.40284e-07 0)
(-0.00173522 2.39037e-07 0)
(-0.00173184 2.37853e-07 0)
(-0.00172846 2.36465e-07 0)
(-0.00172508 2.3527e-07 0)
(-0.00172169 2.3407e-07 0)
(-0.00171829 2.32884e-07 0)
(-0.00171489 2.31569e-07 0)
(-0.00171149 2.303e-07 0)
(-0.00170808 2.29078e-07 0)
(-0.00170466 2.27939e-07 0)
(-0.00170124 2.26779e-07 0)
(-0.00169781 2.25667e-07 0)
(-0.00169438 2.24511e-07 0)
(-0.00169094 2.23235e-07 0)
(-0.0016875 2.21969e-07 0)
(-0.00168405 2.21009e-07 0)
(-0.00168059 2.19939e-07 0)
(-0.00167713 2.1873e-07 0)
(-0.00167366 2.17778e-07 0)
(-0.00167018 2.16682e-07 0)
(-0.0016667 2.15521e-07 0)
(-0.00166322 2.14521e-07 0)
(-0.00165972 2.13655e-07 0)
(-0.00165622 2.12314e-07 0)
(-0.00165271 2.11793e-07 0)
(-0.0016492 2.10524e-07 0)
(-0.00164565 2.10229e-07 0)
(-0.00164215 2.07974e-07 0)
(-0.00163857 2.09267e-07 0)
(-0.00163507 2.05056e-07 0)
(-0.00163143 2.09465e-07 0)
(-0.00162799 2.00921e-07 0)
(-0.00162421 2.12373e-07 0)
(-0.0016209 1.93433e-07 0)
(-0.00161686 2.20246e-07 0)
(-0.00161387 1.78709e-07 0)
(-0.00160934 2.38976e-07 0)
(-0.00160696 1.49806e-07 0)
(-0.00160153 2.77556e-07 0)
(-0.00160023 9.53253e-08 0)
(-0.00159341 3.46035e-07 0)
(-0.00159368 8.59718e-09 0)
(-0.00158502 3.81064e-07 0)
(-0.0353488 -0.00214397 0)
(-0.0160267 -0.000524822 0)
(-0.0106084 -0.000100699 0)
(-0.00845704 -3.52435e-05 0)
(-0.00748789 -1.98433e-05 0)
(-0.00685482 -1.61053e-05 0)
(-0.00634777 -1.33414e-05 0)
(-0.00593703 -1.0887e-05 0)
(-0.00560257 -9.06762e-06 0)
(-0.00532395 -7.75364e-06 0)
(-0.0050866 -6.75931e-06 0)
(-0.00488107 -5.97416e-06 0)
(-0.00470091 -5.3381e-06 0)
(-0.00454139 -4.81373e-06 0)
(-0.00439896 -4.37527e-06 0)
(-0.00427083 -4.00395e-06 0)
(-0.00415485 -3.68595e-06 0)
(-0.00404926 -3.4109e-06 0)
(-0.00395268 -3.17097e-06 0)
(-0.00386393 -2.95991e-06 0)
(-0.00378209 -2.77295e-06 0)
(-0.00370634 -2.6064e-06 0)
(-0.00363601 -2.45695e-06 0)
(-0.00357053 -2.32213e-06 0)
(-0.00350941 -2.19989e-06 0)
(-0.00345224 -2.08828e-06 0)
(-0.00339864 -1.98579e-06 0)
(-0.00334832 -1.8913e-06 0)
(-0.003301 -1.80337e-06 0)
(-0.00325645 -1.72101e-06 0)
(-0.00321447 -1.64302e-06 0)
(-0.00317488 -1.56926e-06 0)
(-0.00313757 -1.49725e-06 0)
(-0.00310236 -1.42809e-06 0)
(-0.00306925 -1.35761e-06 0)
(-0.00303806 -1.28969e-06 0)
(-0.00300886 -1.21553e-06 0)
(-0.00298154 -1.1436e-06 0)
(-0.00295615 -1.0594e-06 0)
(-0.00293295 -9.74177e-07 0)
(-0.0029113 -8.75108e-07 0)
(-0.00289318 -7.54954e-07 0)
(-0.00287497 -6.45301e-07 0)
(-0.00286459 -4.36969e-07 0)
(-0.00284817 -3.61884e-07 0)
(-0.00285222 9.16332e-08 0)
(-0.00283091 -1.26939e-07 0)
(-0.00286761 1.27626e-06 0)
(-0.00281767 -5.72023e-06 0)
(-0.00275705 0.000202867 0)
(0.000100821 -4.35477e-05 0)
(9.82923e-05 -0.000216728 0)
(5.45117e-05 -0.000333984 0)
(2.76469e-05 -0.000383573 0)
(4.41091e-05 -0.000329756 0)
(-0.00010833 -0.000193206 0)
(-0.000307984 0.000198665 0)
(-0.000229822 0.000519715 0)
(-0.000148222 0.000673623 0)
(-0.000117332 0.00080367 0)
(-8.68956e-05 0.000885795 0)
(-7.33334e-05 0.000952188 0)
(-5.48168e-05 0.000994613 0)
(-3.63728e-05 0.00101354 0)
(-1.56972e-05 0.00100811 0)
(1.95581e-06 0.000979837 0)
(1.46245e-05 0.000936937 0)
(2.53985e-05 0.000882409 0)
(3.54009e-05 0.00081764 0)
(4.62889e-05 0.000742699 0)
(5.89288e-05 0.000656186 0)
(7.35605e-05 0.000556172 0)
(8.95233e-05 0.00044109 0)
(0.000105897 0.000310214 0)
(0.000121521 0.000164245 0)
(0.000134299 5.09813e-06 0)
(0.000144721 -0.000164961 0)
(0.000151592 -0.000341218 0)
(0.000154786 -0.000518636 0)
(0.000155593 -0.000696595 0)
(0.00015471 -0.000873594 0)
(0.000152555 -0.00104756 0)
(0.000149512 -0.00121763 0)
(0.000145737 -0.00138327 0)
(0.000141224 -0.00154408 0)
(0.000135837 -0.00169959 0)
(0.000129351 -0.00184922 0)
(0.000121494 -0.00199215 0)
(0.000112036 -0.00212738 0)
(0.000100818 -0.00225376 0)
(8.76402e-05 -0.00237004 0)
(7.24043e-05 -0.00247477 0)
(5.53229e-05 -0.00256663 0)
(3.63947e-05 -0.00264455 0)
(1.5421e-05 -0.00270713 0)
(-6.86133e-06 -0.00275323 0)
(-3.03217e-05 -0.00278294 0)
(-5.64388e-05 -0.00279493 0)
(-8.48334e-05 -0.00278704 0)
(-0.000113835 -0.0027598 0)
(-0.000143109 -0.00271306 0)
(-0.000171909 -0.002647 0)
(-0.000199728 -0.00256235 0)
(-0.000226076 -0.00245982 0)
(-0.000250122 -0.00234017 0)
(-0.000270641 -0.00220449 0)
(-0.000286086 -0.00205464 0)
(-0.000295098 -0.00189309 0)
(-0.000296816 -0.00172326 0)
(-0.0002919 -0.00154893 0)
(-0.000281116 -0.00137322 0)
(-0.000265732 -0.00120101 0)
(-0.000250774 -0.00103288 0)
(-0.00023575 -0.000872732 0)
(-0.000237569 -0.000733267 0)
(-0.000290098 -0.000585684 0)
(-0.000345694 -0.000381089 0)
(-0.00029291 -0.000133936 0)
(-0.000128692 7.23882e-05 0)
(6.68341e-05 0.000196356 0)
(0.000247253 0.000249104 0)
(0.000382448 0.000244555 0)
(0.000453808 0.000200862 0)
(0.000457559 0.000138769 0)
(0.000402516 7.45008e-05 0)
(0.000298134 2.02873e-05 0)
(0.000164236 -1.3546e-05 0)
(2.55585e-05 -2.10941e-05 0)
(-9.46916e-05 1.05058e-06 0)
(-0.000172361 4.54282e-05 0)
(-0.000204542 9.46948e-05 0)
(-0.000201606 0.000137553 0)
(-0.000178556 0.000173002 0)
(-0.000148136 0.000205901 0)
(-0.000116986 0.000239124 0)
(-8.89817e-05 0.000271524 0)
(-6.85618e-05 0.000306181 0)
(-5.61527e-05 0.000346249 0)
(-4.87677e-05 0.000391085 0)
(-4.39156e-05 0.000437129 0)
(-4.22668e-05 0.000481419 0)
(-4.40493e-05 0.000523302 0)
(-4.8416e-05 0.00056289 0)
(-5.38478e-05 0.000600154 0)
(-5.89289e-05 0.000634854 0)
(-6.25929e-05 0.00066665 0)
(-6.4188e-05 0.000695127 0)
(-6.35837e-05 0.000719793 0)
(-6.13363e-05 0.000740424 0)
(-5.81266e-05 0.000757386 0)
(-5.42938e-05 0.000771517 0)
(-4.98004e-05 0.000783516 0)
(-4.44583e-05 0.000793552 0)
(-3.82363e-05 0.000801628 0)
(-3.12811e-05 0.000807597 0)
(-2.38707e-05 0.000811283 0)
(-1.6415e-05 0.000812524 0)
(-9.38081e-06 0.000811403 0)
(-3.01418e-06 0.000808225 0)
(2.69742e-06 0.000803198 0)
(7.85049e-06 0.000796478 0)
(1.25583e-05 0.000788161 0)
(1.6946e-05 0.00077834 0)
(2.11099e-05 0.000767084 0)
(2.51066e-05 0.00075446 0)
(2.89589e-05 0.000740539 0)
(3.26685e-05 0.000725401 0)
(3.62266e-05 0.000709137 0)
(3.96305e-05 0.000691844 0)
(4.28861e-05 0.000673611 0)
(4.6002e-05 0.000654521 0)
(4.89912e-05 0.000634645 0)
(5.1865e-05 0.000614043 0)
(5.46289e-05 0.00059277 0)
(5.72848e-05 0.000570876 0)
(5.98246e-05 0.000548406 0)
(6.22309e-05 0.000525411 0)
(6.44786e-05 0.000501946 0)
(6.65325e-05 0.000478079 0)
(6.83517e-05 0.000453897 0)
(6.98928e-05 0.000429507 0)
(7.11153e-05 0.000405046 0)
(7.19936e-05 0.000380679 0)
(7.25232e-05 0.000356602 0)
(7.27368e-05 0.000333035 0)
(7.27173e-05 0.000310211 0)
(7.26049e-05 0.000288352 0)
(7.26011e-05 0.000267645 0)
(7.29531e-05 0.000248199 0)
(7.39153e-05 0.000230015 0)
(7.5693e-05 0.000212977 0)
(7.83654e-05 0.000196862 0)
(8.17888e-05 0.000181374 0)
(8.56255e-05 0.000166602 0)
(8.89921e-05 0.000152433 0)
(9.07862e-05 0.000139144 0)
(8.98375e-05 0.000127128 0)
(8.58655e-05 0.000118053 0)
(7.75176e-05 0.000111943 0)
(6.3207e-05 0.000108621 0)
(4.06961e-05 0.000107673 0)
(7.08201e-06 0.000109733 0)
(-3.96364e-05 0.000118051 0)
(-9.85684e-05 0.000138405 0)
(-0.000164618 0.000176618 0)
(-0.000229427 0.000234879 0)
(-0.000284467 0.000309843 0)
(-0.000324152 0.000394283 0)
(-0.000346839 0.000480678 0)
(-0.000353728 0.000563652 0)
(-0.000347187 0.000640233 0)
(-0.000329672 0.000708959 0)
(-0.000303319 0.00076906 0)
(-0.000269897 0.000820062 0)
(-0.000230863 0.000861657 0)
(-0.00018743 0.000893615 0)
(-0.000140652 0.000915734 0)
(-9.1414e-05 0.000927947 0)
(-4.0639e-05 0.000930218 0)
(1.06665e-05 0.000922751 0)
(6.2029e-05 0.000906091 0)
(0.000113122 0.000880475 0)
(0.000163312 0.000846103 0)
(0.000212088 0.000803195 0)
(0.00025888 0.000751871 0)
(0.000303757 0.000694412 0)
(0.000346682 0.000632143 0)
(0.000386152 0.000562968 0)
(0.000421327 0.000486767 0)
(0.000450883 0.000403587 0)
(0.000473316 0.00031405 0)
(0.000487044 0.000219365 0)
(0.000490677 0.000121391 0)
(0.000483053 2.25495e-05 0)
(0.000463551 -7.42793e-05 0)
(0.000432409 -0.000166176 0)
(0.000390437 -0.00025061 0)
(0.000338782 -0.000325505 0)
(0.000280707 -0.000391282 0)
(0.00021741 -0.00044747 0)
(0.000148484 -0.000489754 0)
(7.62584e-05 -0.000517527 0)
(2.85964e-06 -0.000530733 0)
(-7.01556e-05 -0.000530678 0)
(-0.000141568 -0.000521395 0)
(-0.000212472 -0.000513428 0)
(-0.000291666 -0.000528943 0)
(-0.000404047 -0.000607094 0)
(-0.000584187 -0.000795719 0)
(-0.000849709 -0.00111787 0)
(6.85496e-06 -0.000101682 0)
(0.000141409 -9.71864e-05 0)
(0.000209511 -3.51184e-05 0)
(0.000177775 5.34936e-05 0)
(6.61161e-05 0.000110526 0)
(-6.87848e-05 0.000111249 0)
(-0.000177213 6.85445e-05 0)
(-0.000231636 3.88682e-06 0)
(-0.00022568 -5.90285e-05 0)
(-0.000169175 -0.000101518 0)
(-8.19626e-05 -0.000116514 0)
(1.3636e-05 -0.00010973 0)
(0.000104303 -9.20905e-05 0)
(0.000183731 -7.13594e-05 0)
(0.000245875 -5.24735e-05 0)
(0.000290512 -3.87932e-05 0)
(0.000324049 -3.05084e-05 0)
(0.000352094 -2.54234e-05 0)
(0.000377779 -2.10361e-05 0)
(0.000400774 -1.46117e-05 0)
(0.00041872 -4.25872e-06 0)
(0.000428476 1.08955e-05 0)
(0.000423769 3.15798e-05 0)
(0.000394631 6.16627e-05 0)
(0.000323782 0.000101957 0)
(0.000205391 0.000132025 0)
(6.68186e-05 0.000118393 0)
(-3.49018e-05 6.81336e-05 0)
(-9.84844e-05 7.46807e-05 0)
(-0.000135141 0.000137616 0)
(-0.000133714 0.000248251 0)
(-0.000115083 0.000324333 0)
(-0.000114801 0.000208227 0)
(-1.06721e-05 -0.000191197 0)
(0.000405121 -0.000645625 0)
(0.000954433 -0.00061946 0)
(0.0011958 -0.000338482 0)
(0.00128887 -0.000249663 0)
(0.0014188 -0.000186309 0)
(0.00149081 -0.000125043 0)
(0.0015562 -0.000121206 0)
(0.0016302 -0.000101661 0)
(0.00168366 -8.65816e-05 0)
(0.00173542 -8.23117e-05 0)
(0.00178485 -7.74117e-05 0)
(0.00183112 -7.35424e-05 0)
(0.00187292 -6.39383e-05 0)
(0.00190659 -5.83591e-05 0)
(0.00193956 -5.95219e-05 0)
(0.00197394 -6.01036e-05 0)
(0.00200875 -6.12473e-05 0)
(0.00204545 -6.16633e-05 0)
(0.00208165 -5.53594e-05 0)
(0.00211079 -3.76914e-05 0)
(0.00212232 -6.92962e-06 0)
(0.00210287 3.43163e-05 0)
(0.00204203 8.24556e-05 0)
(0.00193323 0.000132511 0)
(0.00177841 0.000178663 0)
(0.00158716 0.000216554 0)
(0.00137151 0.000245585 0)
(0.00114557 0.000270075 0)
(0.000908359 0.00029421 0)
(0.000650182 0.000319274 0)
(0.000363957 0.00034132 0)
(6.52802e-05 0.000372137 0)
(-0.00025905 0.000403796 0)
(-0.000607818 0.000435305 0)
(-0.000981084 0.000465062 0)
(-0.00137504 0.000488018 0)
(-0.00178452 0.00050353 0)
(-0.00220352 0.000509319 0)
(-0.00262381 0.000502725 0)
(-0.00303449 0.000481965 0)
(-0.0034253 0.00044526 0)
(-0.00378244 0.000390981 0)
(-0.00409493 0.000318917 0)
(-0.00434997 0.000223074 0)
(-0.00453029 0.000102263 0)
(-0.00462533 -5.65121e-05 0)
(-0.00459924 -0.000261003 0)
(-0.00441851 -0.00051325 0)
(-0.00406932 -0.000805355 0)
(-0.00344581 -0.00111966 0)
(-0.00258177 -0.00134012 0)
(-0.00140663 -0.00148824 0)
(7.64324e-06 -0.000823094 0)
(0.000334453 0.000451849 0)
(8.19969e-05 0.000552151 0)
(-9.10866e-05 0.000245984 0)
(-6.89473e-05 -7.33839e-05 0)
(0.000288022 -0.000487974 0)
(0.000854512 -0.000639125 0)
(0.00132843 -0.00042983 0)
(0.00145201 -0.000106725 0)
(0.00134934 0.000180436 0)
(0.00104275 0.000410193 0)
(0.000585157 0.000515878 0)
(7.05367e-05 0.0004001 0)
(-0.00015506 -5.84203e-05 0)
(-0.000185445 -5.99001e-05 0)
(0.000276767 4.28361e-05 0)
(0.000625471 0.000861555 0)
(0.000565284 0.00164487 0)
(0.000373075 0.00214351 0)
(0.000159846 0.00237922 0)
(-3.13468e-05 0.00235921 0)
(-0.000182867 0.00216097 0)
(-0.00029541 0.00179776 0)
(-0.000340748 0.00136469 0)
(-0.00034079 0.000922423 0)
(-0.000312474 0.000524421 0)
(-0.000273344 0.000184277 0)
(-0.000250711 -0.000110061 0)
(-0.00022876 -0.000378515 0)
(-0.000202184 -0.000611566 0)
(-0.000174425 -0.000800049 0)
(-0.000150132 -0.000947653 0)
(-0.000125948 -0.00106628 0)
(-9.83724e-05 -0.00117148 0)
(-6.45488e-05 -0.00126805 0)
(-1.96284e-05 -0.00134386 0)
(4.18054e-05 -0.00137608 0)
(0.000117787 -0.00133906 0)
(0.000192525 -0.00122263 0)
(0.000249489 -0.00103112 0)
(0.000273213 -0.000786859 0)
(0.000256467 -0.000529532 0)
(0.000202447 -0.000298833 0)
(0.000118295 -0.000124891 0)
(1.98118e-05 -2.78803e-05 0)
(-6.16314e-05 -1.65468e-05 0)
(-0.000115093 -7.45642e-05 0)
(-0.00014089 -0.000167754 0)
(-0.000152902 -0.000254021 0)
(-0.000135804 -0.000346462 0)
(-4.12961e-05 -0.000414629 0)
(9.78254e-05 -0.000418733 0)
(0.000187354 -0.000409453 0)
(0.000289584 -0.000398498 0)
(0.000347434 -0.000287355 0)
(0.00016138 -0.000101032 0)
(-0.000235393 -7.3273e-05 0)
(-0.000521442 -0.000207151 0)
(-0.000616027 -0.000363967 0)
(-0.000542328 -0.000491248 0)
(-0.000326308 -0.000534148 0)
(-3.84273e-05 -0.000478789 0)
(0.000262029 -0.000261308 0)
(0.00041907 8.79076e-05 0)
(0.00034994 0.000374775 0)
(0.000294262 0.000560654 0)
(0.000284819 0.000735191 0)
(0.000270244 0.000911041 0)
(0.000253606 0.00106871 0)
(0.000234294 0.00121349 0)
(0.000213401 0.00134162 0)
(0.000192277 0.00145552 0)
(0.000170918 0.00155505 0)
(0.000149815 0.00164064 0)
(0.000128666 0.00171245 0)
(0.000107364 0.00177008 0)
(8.55408e-05 0.00181262 0)
(6.31936e-05 0.00183839 0)
(4.03946e-05 0.00184564 0)
(1.78899e-05 0.00183231 0)
(-2.76643e-06 0.00179817 0)
(-1.94181e-05 0.00174562 0)
(-3.12263e-05 0.00167853 0)
(-4.13005e-05 0.00160192 0)
(-6.07401e-05 0.00151843 0)
(-0.000106757 0.00142098 0)
(-0.000186056 0.00129036 0)
(-0.000283995 0.00110854 0)
(-0.000369345 0.000877112 0)
(-0.00041567 0.000628508 0)
(-0.000421125 0.000403145 0)
(-0.000393347 0.000212795 0)
(-0.000345696 5.25127e-05 0)
(-0.000287463 -9.38254e-05 0)
(-0.000223649 -0.000238601 0)
(-0.000160776 -0.000382201 0)
(-0.000102309 -0.000512275 0)
(-5.40546e-05 -0.000616979 0)
(-1.93804e-05 -0.000682532 0)
(-6.92134e-06 -0.000634476 0)
(-4.0379e-05 -0.00044606 0)
(-0.000124996 -0.000186078 0)
(-0.00022565 0.000130916 0)
(-0.000275359 0.000467908 0)
(-0.000145504 0.000751593 0)
(0.000414546 0.000960796 0)
(0.00163219 0.00138889 0)
(0.0031026 0.00276399 0)
(0.00336166 0.00481066 0)
(0.00248841 0.00602194 0)
(0.00216538 0.0065103 0)
(0.00208702 0.00726797 0)
(0.00173217 0.00797393 0)
(0.0015373 0.00845319 0)
(0.00134365 0.00895066 0)
(0.00111358 0.00933321 0)
(0.000942948 0.00963237 0)
(0.000754532 0.00988361 0)
(0.000586533 0.010053 0)
(0.000432172 0.0101809 0)
(0.000283922 0.0102582 0)
(0.000152978 0.0102863 0)
(3.1203e-05 0.0102725 0)
(-7.45491e-05 0.0102187 0)
(-0.000170027 0.0101367 0)
(-0.000257908 0.0100238 0)
(-0.000335638 0.0098853 0)
(-0.000406257 0.00972471 0)
(-0.000469066 0.00954378 0)
(-0.000524659 0.00934651 0)
(-0.000573747 0.00913498 0)
(-0.000616291 0.00891177 0)
(-0.000652894 0.00867931 0)
(-0.000683829 0.00843954 0)
(-0.000709437 0.00819449 0)
(-0.000730139 0.00794587 0)
(-0.00074627 0.00769524 0)
(-0.000758228 0.00744404 0)
(-0.00076639 0.00719345 0)
(-0.000771094 0.00694458 0)
(-0.000772707 0.00669836 0)
(-0.000771564 0.00645559 0)
(-0.000767978 0.00621692 0)
(-0.000762251 0.00598294 0)
(-0.000754659 0.00575408 0)
(-0.000745464 0.00553072 0)
(-0.000734918 0.00531313 0)
(-0.000723229 0.00510151 0)
(-0.000710612 0.00489602 0)
(-0.000697272 0.00469673 0)
(-0.000683389 0.00450367 0)
(-0.000669128 0.00431684 0)
(-0.000654674 0.00413619 0)
(-0.000640211 0.00396164 0)
(-0.000625891 0.00379305 0)
(-0.000611888 0.00363029 0)
(-0.000598408 0.00347318 0)
(-0.00058562 0.00332149 0)
(-0.000573703 0.00317498 0)
(-0.000562858 0.00303336 0)
(-0.000553221 0.00289629 0)
(-0.000544949 0.00276342 0)
(-0.000538135 0.00263433 0)
(-0.000532805 0.00250862 0)
(-0.000528926 0.00238582 0)
(-0.000526368 0.00226552 0)
(-0.000524901 0.00214731 0)
(-0.000524216 0.00203088 0)
(-0.000523931 0.001916 0)
(-0.000523612 0.0018026 0)
(-0.000522866 0.00169079 0)
(-0.000521375 0.00158086 0)
(-0.000519023 0.0014733 0)
(-0.000515937 0.00136869 0)
(-0.000512527 0.00126765 0)
(-0.000509526 0.0011707 0)
(-0.000507947 0.00107814 0)
(-0.000508953 0.000989828 0)
(-0.00051366 0.000905156 0)
(-0.000522972 0.000823021 0)
(-0.000537357 0.000741944 0)
(-0.00055676 0.000660214 0)
(-0.000588391 0.000583786 0)
(-0.000626222 0.000502875 0)
(-0.000665925 0.000413407 0)
(-0.000703578 0.00031415 0)
(-0.000734717 0.000205782 0)
(-0.000755552 9.12895e-05 0)
(-0.000764389 -2.4683e-05 0)
(-0.000762242 -0.00013746 0)
(-0.00075225 -0.000243867 0)
(-0.00073836 -0.000342835 0)
(-0.000724055 -0.000434897 0)
(-0.000711954 -0.000521293 0)
(-0.000706878 -0.000605982 0)
(-0.000712814 -0.000693815 0)
(-0.000723823 -0.000780113 0)
(-0.000740938 -0.000866529 0)
(-0.000764317 -0.00095582 0)
(-0.000792918 -0.00105188 0)
(-0.000823991 -0.00115945 0)
(-0.000852765 -0.00128319 0)
(-0.00087275 -0.00142656 0)
(-0.000876423 -0.00159074 0)
(-0.000856242 -0.00177344 0)
(-0.000806305 -0.00196715 0)
(-0.000724769 -0.00215814 0)
(-0.000616275 -0.00232824 0)
(-0.000492831 -0.00245945 0)
(-0.000373134 -0.0025398 0)
(-0.000275624 -0.00258203 0)
(-0.000215707 -0.00251317 0)
(-0.000217194 -0.00280809 0)
(-5.66885e-06 -0.00174807 0)
)
;
    }
    frontAndBack
    {
        type            empty;
    }
}


// ************************************************************************* //
