/*--------------------------------*- C++ -*----------------------------------*\
  =========                 |
  \\      /  F ield         | OpenFOAM: The Open Source CFD Toolbox
   \\    /   O peration     | Website:  https://openfoam.org
    \\  /    A nd           | Version:  7
     \\/     M anipulation  |
\*---------------------------------------------------------------------------*/
FoamFile
{
    version     2.0;
    format      ascii;
    class       volScalarField;
    location    "0.4";
    object      yPlus;
}
// * * * * * * * * * * * * * * * * * * * * * * * * * * * * * * * * * * * * * //

dimensions      [0 0 0 0 0 0 0];

internalField   uniform 0;

boundaryField
{
    velocityInlet
    {
        type            calculated;
        value           uniform 0;
    }
    pressureOutlet
    {
        type            calculated;
        value           uniform 0;
    }
    fixedWalls
    {
        type            calculated;
        value           nonuniform List<scalar> 
100
(
1.48729
0.806352
0.517105
0.420485
0.686082
0.778691
0.789957
0.736525
0.629922
0.464698
0.166253
0.39927
0.568282
0.678403
0.750412
0.787397
0.787474
0.752309
0.694711
0.639536
0.613762
0.626906
0.66644
0.71587
0.766767
0.821779
0.890329
0.967205
1.01589
0.981382
0.848275
0.725957
0.818786
1.0726
1.31351
1.47323
1.50093
1.30508
0.654127
1.04339
1.44037
1.50356
1.31069
0.906985
0.239959
0.820419
1.01442
1.08657
1.10146
1.09234
1.0781
1.0684
1.06495
1.06339
1.05773
1.04483
1.02586
1.00395
0.980339
0.951674
0.909418
0.841335
0.73283
0.561939
0.236319
0.468249
0.666417
0.744367
0.711263
0.559028
0.195822
0.497635
0.704549
0.83338
0.923496
0.995714
1.06034
1.12097
1.18052
1.24228
1.30447
1.3558
1.37449
1.32927
1.18138
0.843325
0.440894
1.00998
1.24578
1.29374
1.19181
0.978596
0.67628
0.149706
0.549914
0.725719
0.751905
0.769928
0.581072
0.32754
)
;
    }
    bottomWall
    {
        type            calculated;
        value           nonuniform List<scalar> 
800
(
2.94479
1.9839
1.61342
1.4403
1.35515
1.29651
1.24756
1.20644
1.1719
1.14233
1.11653
1.09371
1.07331
1.05492
1.03823
1.02299
1.00899
0.996082
0.984123
0.973003
0.962629
0.952923
0.943816
0.935249
0.927174
0.919546
0.912326
0.905481
0.898979
0.892796
0.886907
0.88129
0.875925
0.870796
0.865887
0.861183
0.856671
0.852341
0.84818
0.844177
0.840325
0.836615
0.833038
0.829589
0.82626
0.823045
0.819937
0.816934
0.814025
0.811214
0.808855
0.806902
0.804968
0.80306
0.801175
0.799316
0.797478
0.795663
0.793869
0.792097
0.790346
0.788615
0.786904
0.785213
0.783541
0.781888
0.780253
0.778638
0.777039
0.775458
0.773895
0.772348
0.770819
0.769304
0.767806
0.766325
0.764858
0.763407
0.76197
0.760548
0.759142
0.757749
0.756369
0.755004
0.753652
0.752312
0.750987
0.749674
0.748374
0.747086
0.74581
0.744547
0.743295
0.742055
0.740827
0.73961
0.738403
0.737209
0.736024
0.73485
0.733687
0.732535
0.731391
0.730258
0.729136
0.728022
0.726918
0.725824
0.724739
0.723664
0.722597
0.721539
0.720489
0.719448
0.718417
0.717392
0.716378
0.71537
0.71437
0.713379
0.712395
0.711419
0.71045
0.709489
0.708535
0.707589
0.706649
0.705716
0.704791
0.703872
0.702961
0.702054
0.701156
0.700264
0.699377
0.698498
0.697625
0.696758
0.695896
0.695042
0.694193
0.693349
0.692511
0.691679
0.690852
0.690032
0.689215
0.688406
0.687601
0.686801
0.686129
0.68558
0.685028
0.684474
0.68392
0.683365
0.682808
0.682249
0.681688
0.681128
0.680565
0.68
0.679435
0.678868
0.678299
0.677729
0.677158
0.676586
0.676011
0.675435
0.674859
0.674281
0.673701
0.673119
0.672536
0.671951
0.671366
0.670779
0.67019
0.6696
0.669009
0.668416
0.667821
0.667225
0.666628
0.666029
0.665429
0.664826
0.664223
0.663618
0.663012
0.662403
0.661794
0.661182
0.660569
0.659956
0.65934
0.658722
0.658103
0.657483
0.656861
0.656237
0.655613
0.654985
0.654357
0.653728
0.653096
0.652464
0.651828
0.651192
0.650555
0.649915
0.649274
0.648631
0.647987
0.647341
0.646693
0.646044
0.645393
0.64474
0.644084
0.643429
0.642771
0.64211
0.641449
0.640786
0.640119
0.639452
0.638783
0.638111
0.637438
0.636762
0.636085
0.635401
0.634724
0.634032
0.633356
0.632649
0.631982
0.631248
0.630605
0.629819
0.629236
0.628352
0.627887
0.626825
0.626571
0.625234
0.625287
0.623585
2.94479
1.98392
1.61349
1.44044
1.35537
1.29681
1.24793
1.20688
1.17239
1.14287
1.1171
1.0943
1.07392
1.05554
1.03885
1.02361
1.00962
0.996706
0.984747
0.97363
0.963264
0.953568
0.944478
0.935935
0.92789
0.9203
0.913129
0.906344
0.899916
0.893822
0.888043
0.882558
0.877356
0.87242
0.867751
0.863331
0.859172
0.855263
0.851613
0.848264
0.845129
0.842495
0.83984
0.838321
0.835917
0.836509
0.833381
0.838755
0.831885
0.819774
0.889918
1.47413
1.81515
1.9768
1.80264
1.22202
1.65311
2.27587
2.57963
2.82761
2.97063
3.08223
3.14863
3.17742
3.1683
3.12462
3.05652
2.96653
2.8553
2.72042
2.55585
2.35192
2.09418
1.75878
1.29933
0.761497
1.33632
1.86807
2.28827
2.64544
2.95919
3.23857
3.49039
3.7194
3.92898
4.1215
4.2985
4.46093
4.60924
4.74355
4.86374
4.96947
5.06036
5.13605
5.19601
5.2398
5.26751
5.27806
5.27016
5.24436
5.20005
5.1369
5.05495
4.95404
4.83394
4.69446
4.53584
4.3585
4.16343
3.95221
3.72633
3.48839
3.23744
2.97285
2.6999
2.40367
2.05752
1.55792
0.672072
1.13502
1.61821
1.86318
1.95185
1.91668
1.77823
1.53215
1.17948
0.82248
0.973069
1.20634
1.32823
1.37374
1.39055
1.42442
1.49511
1.59259
1.70926
1.83661
1.96447
2.08595
2.19723
2.29697
2.38559
2.46387
2.53261
2.59238
2.6436
2.68676
2.72242
2.75136
2.77497
2.79455
2.81057
2.82333
2.83279
2.83877
2.84106
2.83979
2.83521
2.8273
2.81616
2.8019
2.78468
2.76461
2.74184
2.71649
2.68866
2.65844
2.62593
2.59121
2.55434
2.51537
2.47432
2.43121
2.38604
2.33881
2.28951
2.23815
2.18474
2.12933
2.07202
2.01293
1.95229
1.89037
1.82753
1.7642
1.70085
1.63797
1.57598
1.51521
1.45588
1.39814
1.3422
1.28984
1.24164
1.19882
1.1633
1.14375
1.14181
1.15874
1.19695
1.2621
1.36212
1.49999
1.66683
1.84558
2.02045
2.18202
2.32679
2.45448
2.56584
2.66165
2.74249
2.80876
2.86075
2.89869
2.92278
2.93322
2.93002
2.91345
2.88389
2.84113
2.78518
2.71606
2.63369
2.54201
2.4428
2.331
2.20607
2.06844
1.92059
1.76937
1.62981
1.52791
1.49154
1.52417
1.5997
1.68806
1.77715
1.86059
1.92702
1.97493
2.00397
2.01412
2.00534
1.98032
1.94711
1.92988
1.99791
2.28623
0.78763
1.52025
1.75559
1.59583
1.10176
1.13472
1.62621
1.85569
1.86153
1.66936
1.2922
0.941489
1.31118
1.70919
1.98465
2.16622
2.29316
2.39191
2.47623
2.54658
2.59854
2.62632
2.60881
2.50916
2.27332
1.86411
1.24916
0.742162
1.43085
1.84929
2.11752
2.1978
1.8123
1.70973
3.17877
3.97777
4.31983
4.54767
4.77433
4.91212
5.03177
5.14552
5.234
5.31688
5.39223
5.46001
5.52117
5.57374
5.62331
5.67268
5.72258
5.77294
5.81934
5.85426
5.86548
5.8355
5.74886
5.59354
5.36665
5.07334
4.72056
4.31939
3.85375
3.27833
2.52346
1.74988
2.32848
3.26243
4.06801
4.77953
5.42343
6.01144
6.5479
7.03198
7.46263
7.83455
8.14411
8.38549
8.54717
8.62432
8.58766
8.40844
8.06819
7.46018
6.54127
5.26605
2.91303
2.65819
2.67109
1.67551
0.996916
2.75204
3.8766
4.54432
4.6943
4.53734
4.05089
3.24095
2.0248
1.12066
1.26619
1.32359
3.08979
4.06179
4.59573
4.83559
4.81895
4.61896
4.2253
3.69964
3.06455
2.35141
1.52571
1.27577
1.9764
2.47972
2.82884
3.07504
3.25707
3.40986
3.54485
3.64612
3.68577
3.63524
3.47976
3.21
2.82867
2.35833
1.83022
1.26984
0.735203
0.736298
1.04153
1.39025
1.64755
1.83771
1.92101
1.93656
1.98224
2.05959
1.99873
1.58745
1.66876
2.16988
2.40255
2.4238
2.23614
1.90084
1.38877
1.57721
2.00599
2.39213
2.73418
3.02877
3.27279
3.4822
3.6586
3.80908
3.93625
4.04265
4.12989
4.19869
4.24884
4.27912
4.288
4.27326
4.2346
4.17436
4.09523
3.99858
3.881
3.73174
3.53158
3.26154
2.91781
2.52871
2.144
1.78445
1.45484
1.24586
1.45284
1.85147
2.20163
2.47165
2.65994
2.65278
2.38803
2.01041
1.93688
2.52795
3.24407
4.00853
5.00605
6.1879
7.04676
7.59591
8.07084
8.4954
8.85466
9.14953
9.40017
9.60121
9.76005
9.88436
9.97399
10.0391
10.0806
10.0987
10.0954
10.0729
10.0353
9.98222
9.91566
9.83716
9.7477
9.64874
9.54127
9.42631
9.30484
9.1777
9.04572
8.90964
8.77017
8.62794
8.48353
8.33748
8.19027
8.04233
7.89406
7.7458
7.59786
7.45052
7.304
7.15851
7.01423
6.87129
6.7298
6.58986
6.45154
6.31487
6.17984
6.04646
5.91469
5.78442
5.65557
5.52798
5.40145
5.2758
5.15073
5.02597
4.9012
4.77612
4.65037
4.5237
4.39581
4.26653
4.13573
4.0034
3.86961
3.73453
3.59839
3.46144
3.32392
3.18593
3.04746
2.90836
2.76845
2.62775
2.50396
2.38567
2.27237
2.17047
2.09093
2.04752
2.05039
2.09918
2.18373
2.29118
2.41158
2.53884
2.67561
2.82683
2.97857
3.13055
3.28259
3.43428
3.58494
3.73339
3.87815
4.01768
4.1508
4.27712
4.39738
4.51325
4.62657
4.73837
4.84912
4.95692
5.06735
5.1534
)
;
    }
    frontAndBack
    {
        type            empty;
    }
}


// ************************************************************************* //
