/*--------------------------------*- C++ -*----------------------------------*\
  =========                 |
  \\      /  F ield         | OpenFOAM: The Open Source CFD Toolbox
   \\    /   O peration     | Website:  https://openfoam.org
    \\  /    A nd           | Version:  7
     \\/     M anipulation  |
\*---------------------------------------------------------------------------*/
FoamFile
{
    version     2.0;
    format      ascii;
    class       volScalarField;
    location    "0.19";
    object      p;
}
// * * * * * * * * * * * * * * * * * * * * * * * * * * * * * * * * * * * * * //

dimensions      [0 2 -2 0 0 0 0];

internalField   nonuniform List<scalar> 
70000
(
0.140875
0.0640017
0.0508881
0.0533851
0.0537036
0.0527276
0.0518518
0.0512178
0.0507168
0.0502993
0.0499515
0.0496656
0.0494344
0.0492515
0.0491116
0.0490109
0.048946
0.0489146
0.0489149
0.0489453
0.0490049
0.0490931
0.0492096
0.0493542
0.0495271
0.0497289
0.0499601
0.0502217
0.050515
0.0508413
0.0512024
0.0516004
0.0520376
0.0525165
0.0530405
0.0536128
0.0542377
0.054919
0.0556623
0.0564725
0.0573557
0.0583201
0.0593675
0.0605187
0.061754
0.0631374
0.0645683
0.0662602
0.0678301
0.0699965
0.136575
0.0643636
0.0510906
0.0534798
0.0537581
0.0527634
0.0518798
0.0512409
0.0507362
0.0503159
0.049966
0.0496785
0.0494459
0.0492618
0.0491211
0.0490195
0.048954
0.0489221
0.0489218
0.0489518
0.049011
0.0490989
0.049215
0.0493594
0.0495321
0.0497336
0.0499647
0.0502262
0.0505193
0.0508455
0.0512065
0.0516044
0.0520415
0.0525204
0.0530444
0.0536167
0.0542416
0.054923
0.0556663
0.0564767
0.0573599
0.0583246
0.0593723
0.0605239
0.0617595
0.0631435
0.064575
0.0662672
0.0678411
0.0700315
0.132969
0.0652858
0.051435
0.0536083
0.0538328
0.0528084
0.0519122
0.0512671
0.0507581
0.0503344
0.0499819
0.0496925
0.0494584
0.049273
0.0491312
0.0490288
0.0489625
0.04893
0.0489291
0.0489586
0.0490175
0.049105
0.0492208
0.0493648
0.0495372
0.0497385
0.0499694
0.0502306
0.0505236
0.0508496
0.0512105
0.0516082
0.0520452
0.052524
0.053048
0.0536202
0.054245
0.0549263
0.0556696
0.05648
0.0573632
0.0583279
0.0593757
0.0605275
0.0617632
0.0631477
0.0645794
0.0662718
0.0678581
0.0700531
0.129864
0.0663844
0.051911
0.0537806
0.0539337
0.0528662
0.0519503
0.0512969
0.0507826
0.0503548
0.0499993
0.0497075
0.0494716
0.0492848
0.0491419
0.0490385
0.0489714
0.0489381
0.0489366
0.0489656
0.0490239
0.049111
0.0492264
0.0493701
0.0495423
0.0497433
0.0499738
0.0502349
0.0505276
0.0508534
0.0512141
0.0516116
0.0520484
0.052527
0.0530507
0.0536228
0.0542474
0.0549285
0.0556716
0.0564818
0.0573648
0.0583293
0.0593768
0.0605284
0.0617638
0.0631481
0.0645802
0.0662705
0.0678776
0.0700577
0.126907
0.0674775
0.0524839
0.0539983
0.0540679
0.0529443
0.051999
0.0513337
0.0508123
0.0503792
0.0500196
0.0497249
0.0494867
0.0492981
0.0491537
0.0490491
0.048981
0.0489469
0.0489447
0.048973
0.0490308
0.0491173
0.0492323
0.0493756
0.0495473
0.049748
0.0499782
0.0502389
0.0505313
0.0508568
0.0512172
0.0516144
0.0520509
0.0525292
0.0530526
0.0536243
0.0542485
0.0549292
0.0556718
0.0564815
0.057364
0.0583278
0.0593747
0.0605254
0.0617601
0.0631431
0.0645758
0.066261
0.0678951
0.0700479
0.123999
0.0685089
0.053107
0.0542421
0.0542293
0.0530442
0.052061
0.0513795
0.0508492
0.0504093
0.0500445
0.0497458
0.0495047
0.0493139
0.0491676
0.0490615
0.0489921
0.0489568
0.0489537
0.0489812
0.0490383
0.0491242
0.0492386
0.0493814
0.0495526
0.0497528
0.0499826
0.0502429
0.0505349
0.05086
0.0512199
0.0516167
0.0520527
0.0525305
0.0530534
0.0536245
0.054248
0.0549281
0.0556699
0.0564787
0.0573601
0.0583228
0.0593683
0.0605174
0.0617506
0.0631308
0.064564
0.0662407
0.0679041
0.0700214
0.121133
0.0694614
0.053747
0.0544907
0.0544049
0.0531613
0.0521353
0.0514344
0.0508937
0.0504456
0.0500745
0.0497711
0.0495264
0.0493327
0.0491841
0.049076
0.0490051
0.0489685
0.0489642
0.0489907
0.0490469
0.049132
0.0492457
0.0493877
0.0495583
0.0497579
0.0499871
0.0502469
0.0505383
0.0508628
0.0512222
0.0516183
0.0520537
0.0525308
0.0530529
0.0536231
0.0542457
0.0549246
0.0556652
0.0564726
0.0573524
0.0583131
0.0593565
0.0605029
0.0617335
0.063109
0.0645421
0.0662068
0.0678979
0.0699736
0.118318
0.0703284
0.0543878
0.0547326
0.0545837
0.053289
0.0522184
0.0514964
0.0509445
0.0504878
0.0501096
0.0498008
0.0495518
0.0493548
0.0492035
0.0490932
0.0490203
0.0489821
0.0489764
0.0490017
0.0490568
0.0491409
0.0492536
0.0493948
0.0495647
0.0497635
0.0499919
0.0502509
0.0505416
0.0508654
0.0512239
0.0516193
0.0520537
0.0525299
0.0530508
0.0536199
0.0542411
0.0549185
0.0556573
0.0564626
0.05734
0.058298
0.059338
0.0604804
0.0617071
0.0630757
0.0645075
0.0661565
0.0678698
0.0698998
0.11556
0.0711075
0.0550239
0.0549638
0.0547596
0.0534226
0.0523072
0.0515628
0.0509996
0.0505342
0.0501487
0.0498341
0.0495807
0.04938
0.0492257
0.0491129
0.0490379
0.0489978
0.0489905
0.0490143
0.0490681
0.049151
0.0492627
0.0494028
0.0495717
0.0497696
0.0499971
0.0502552
0.0505449
0.0508677
0.0512253
0.0516195
0.0520528
0.0525277
0.0530472
0.0536146
0.054234
0.0549094
0.0556457
0.0564483
0.0573223
0.0582765
0.059312
0.0604488
0.0616698
0.0630288
0.0644575
0.0660869
0.0678139
0.0697953
0.112863
0.0717978
0.0556538
0.0551842
0.0549296
0.0535591
0.0523994
0.0516317
0.0510574
0.0505833
0.0501905
0.0498701
0.0496121
0.0494077
0.0492503
0.0491348
0.0490574
0.0490153
0.0490062
0.0490285
0.0490808
0.0491624
0.0492728
0.0494118
0.0495795
0.0497763
0.0500027
0.0502596
0.0505483
0.0508699
0.0512262
0.0516191
0.0520509
0.0525241
0.0530419
0.0536072
0.0542243
0.054897
0.0556301
0.0564291
0.0572988
0.058248
0.0592775
0.0604069
0.0616205
0.062967
0.0643899
0.0659961
0.0677256
0.0696559
0.110231
0.0723997
0.0562766
0.0553949
0.0550923
0.0536971
0.0524941
0.0517021
0.0511165
0.0506341
0.0502341
0.0499079
0.0496453
0.0494371
0.0492765
0.0491583
0.0490786
0.0490344
0.0490234
0.0490439
0.0490947
0.0491748
0.0492838
0.0494215
0.049588
0.0497835
0.0500086
0.0502643
0.0505516
0.0508718
0.0512266
0.0516179
0.052048
0.0525192
0.0530347
0.0535976
0.0542118
0.0548812
0.0556104
0.0564049
0.0572692
0.0582121
0.0592343
0.0603543
0.0615583
0.0628894
0.0643031
0.0658825
0.0676022
0.0694788
0.107665
0.0729137
0.0568907
0.055597
0.0552469
0.0538356
0.0525909
0.0517735
0.0511764
0.0506859
0.0502788
0.0499467
0.0496795
0.0494676
0.0493038
0.0491829
0.0491008
0.0490544
0.0490415
0.0490603
0.0491094
0.049188
0.0492956
0.0494319
0.0495969
0.0497911
0.0500148
0.0502691
0.0505549
0.0508735
0.0512266
0.051616
0.052044
0.052513
0.0530259
0.0535858
0.0541965
0.054862
0.0555866
0.0563757
0.0572336
0.0581688
0.0591821
0.0602907
0.061483
0.0627959
0.0641964
0.0657457
0.0674432
0.0692629
0.105169
0.0733402
0.0574939
0.0557918
0.0553927
0.0539739
0.0526897
0.0518456
0.0512367
0.0507383
0.0503242
0.0499863
0.0497144
0.0494988
0.0493318
0.0492081
0.0491236
0.0490752
0.0490603
0.0490773
0.0491248
0.0492018
0.0493079
0.0494427
0.0496062
0.0497989
0.0500212
0.0502738
0.0505579
0.0508748
0.051226
0.0516133
0.052039
0.0525053
0.0530153
0.0535718
0.0541786
0.0548395
0.0555587
0.0563416
0.057192
0.0581184
0.0591213
0.0602166
0.061395
0.062687
0.06407
0.065586
0.06725
0.0690092
0.102745
0.0736803
0.0580833
0.0559808
0.0555292
0.0541111
0.0527903
0.0519185
0.0512974
0.0507912
0.0503701
0.0500264
0.0497499
0.0495304
0.0493603
0.0492339
0.049147
0.0490963
0.0490795
0.0490947
0.0491405
0.0492159
0.0493204
0.0494536
0.0496157
0.0498067
0.0500274
0.0502784
0.0505607
0.0508757
0.0512248
0.0516098
0.0520329
0.0524963
0.0530029
0.0535557
0.0541581
0.0548139
0.0555271
0.0563029
0.0571449
0.0580612
0.0590524
0.0601326
0.0612951
0.0625638
0.0639251
0.065405
0.0670257
0.0687206
0.100396
0.0739354
0.0586559
0.0561656
0.0556561
0.0542462
0.0528925
0.0519923
0.0513583
0.0508445
0.0504165
0.0500669
0.0497857
0.0495625
0.0493891
0.0492599
0.0491706
0.0491178
0.049099
0.0491123
0.0491563
0.0492301
0.0493329
0.0494646
0.049625
0.0498145
0.0500334
0.0502827
0.0505631
0.050876
0.0512228
0.0516054
0.0520256
0.052486
0.0529889
0.0535376
0.0541351
0.0547853
0.0554919
0.0562599
0.0570927
0.0579977
0.058976
0.0600397
0.0611841
0.0624277
0.0637633
0.0652044
0.0667744
0.0684015
0.0981237
0.0741072
0.0592085
0.0563476
0.0557731
0.0543782
0.0529962
0.0520668
0.0514193
0.050898
0.0504633
0.0501078
0.0498219
0.0495948
0.0494182
0.0492862
0.0491944
0.0491393
0.0491185
0.04913
0.0491722
0.0492443
0.0493455
0.0494755
0.0496342
0.049822
0.0500392
0.0502865
0.0505649
0.0508757
0.0512201
0.0516
0.0520173
0.0524742
0.0529733
0.0535175
0.0541098
0.0547539
0.0554533
0.0562129
0.0570357
0.0579286
0.0588928
0.0599387
0.0610633
0.0622801
0.0635865
0.0649867
0.0665005
0.0680568
0.0959297
0.0741978
0.059738
0.0565282
0.0558804
0.0545062
0.053101
0.0521421
0.0514805
0.0509517
0.0505105
0.0501491
0.0498583
0.0496274
0.0494475
0.0493127
0.0492183
0.049161
0.0491381
0.0491477
0.0491881
0.0492584
0.0493579
0.0494862
0.0496432
0.0498292
0.0500445
0.0502899
0.0505662
0.0508746
0.0512165
0.0515936
0.0520077
0.052461
0.052956
0.0534954
0.0540821
0.0547198
0.0554116
0.0561621
0.0569742
0.0578542
0.0588034
0.0598304
0.0609336
0.0621223
0.0633965
0.0647538
0.066208
0.0676917
0.0938151
0.0742099
0.0602411
0.0567084
0.055978
0.054629
0.0532064
0.0522182
0.0515416
0.0510056
0.0505579
0.0501907
0.0498951
0.0496602
0.0494771
0.0493393
0.0492424
0.0491828
0.0491578
0.0491654
0.0492039
0.0492724
0.0493701
0.0494966
0.0496519
0.049836
0.0500494
0.0502927
0.0505668
0.0508728
0.051212
0.0515861
0.0519969
0.0524463
0.0529369
0.0534713
0.0540521
0.0546829
0.0553667
0.0561076
0.0569085
0.0577749
0.0587082
0.0597152
0.0607957
0.0619551
0.0631948
0.0645076
0.0659003
0.0673102
0.0917808
0.0741468
0.0607149
0.0568889
0.0560663
0.0547457
0.0533121
0.0522952
0.0516027
0.0510593
0.0506056
0.0502325
0.0499321
0.0496932
0.0495067
0.0493661
0.0492666
0.0492047
0.0491775
0.049183
0.0492197
0.0492863
0.0493822
0.0495068
0.0496602
0.0498424
0.0500538
0.0502949
0.0505667
0.0508701
0.0512066
0.0515775
0.0519847
0.0524301
0.0529161
0.0534451
0.0540198
0.0546433
0.0553186
0.0560494
0.0568385
0.0576906
0.0586072
0.0595937
0.0606501
0.0617793
0.0629825
0.0642495
0.0655798
0.0669158
0.089827
0.0740121
0.0611564
0.0570702
0.056146
0.0548554
0.0534175
0.0523729
0.0516637
0.051113
0.0506534
0.0502746
0.0499692
0.0497264
0.0495366
0.049393
0.0492909
0.0492265
0.0491972
0.0492006
0.0492353
0.0493
0.0493939
0.0495167
0.0496682
0.0498483
0.0500576
0.0502964
0.0505658
0.0508665
0.0512
0.0515676
0.0519711
0.0524123
0.0528934
0.0534168
0.053985
0.0546009
0.0552673
0.0559876
0.0567643
0.0576015
0.0585007
0.0594657
0.060497
0.0615952
0.0627603
0.0639805
0.0652483
0.0665108
0.0879537
0.0738099
0.0615628
0.0572523
0.0562176
0.0549573
0.0535218
0.0524512
0.0517246
0.0511664
0.0507012
0.0503168
0.0500066
0.0497597
0.0495665
0.0494199
0.0493151
0.0492484
0.0492168
0.0492181
0.0492507
0.0493134
0.0494055
0.0495263
0.0496757
0.0498537
0.0500607
0.0502972
0.050564
0.050862
0.0511923
0.0515565
0.051956
0.0523928
0.0528688
0.0533863
0.0539476
0.0545556
0.0552126
0.055922
0.0566858
0.0575074
0.0583885
0.0593314
0.0603366
0.0614028
0.0625288
0.0637012
0.0649069
0.0660969
0.0861603
0.0735448
0.0619315
0.0574349
0.0562821
0.0550507
0.0536243
0.0525301
0.0517853
0.0512194
0.050749
0.0503592
0.050044
0.0497931
0.0495964
0.0494469
0.0493394
0.0492702
0.0492363
0.0492354
0.049266
0.0493266
0.0494166
0.0495354
0.0496827
0.0498585
0.0500632
0.0502973
0.0505613
0.0508563
0.0511834
0.0515439
0.0519393
0.0523714
0.052842
0.0533534
0.0539076
0.0545072
0.0551545
0.0558523
0.0566027
0.0574083
0.0582704
0.0591906
0.0601687
0.0612023
0.0622881
0.0634119
0.0645563
0.065675
0.084446
0.0732217
0.06226
0.0576173
0.0563403
0.0551351
0.0537242
0.0526093
0.0518458
0.0512719
0.0507966
0.0504015
0.0500815
0.0498265
0.0496264
0.0494739
0.0493637
0.0492919
0.0492556
0.0492526
0.049281
0.0493395
0.0494274
0.049544
0.0496891
0.0498627
0.050065
0.0502964
0.0505576
0.0508496
0.0511732
0.0515299
0.0519209
0.0523481
0.0528131
0.053318
0.0538647
0.0544556
0.0550927
0.0557786
0.056515
0.0573039
0.0581465
0.0590432
0.0599934
0.0609934
0.0620383
0.0631131
0.0641968
0.0652459
0.0828094
0.0728458
0.0625465
0.0577983
0.0563932
0.0552102
0.0538206
0.0526886
0.0519061
0.0513238
0.0508438
0.0504438
0.0501189
0.0498598
0.0496563
0.0495008
0.0493878
0.0493135
0.0492748
0.0492695
0.0492957
0.0493521
0.0494378
0.0495522
0.049695
0.0498662
0.0500659
0.0502946
0.0505529
0.0508416
0.0511616
0.0515142
0.0519008
0.0523227
0.0527818
0.0532799
0.0538188
0.0544006
0.0550272
0.0557006
0.0564224
0.0571941
0.0580164
0.058889
0.0598105
0.0607763
0.0617796
0.062805
0.0638289
0.06481
0.0812489
0.0724226
0.0627891
0.0579765
0.0564419
0.0552758
0.0539127
0.0527677
0.0519662
0.051375
0.0508906
0.050486
0.0501563
0.0498931
0.0496862
0.0495276
0.0494118
0.0493349
0.0492938
0.0492862
0.0493101
0.0493642
0.0494477
0.0495598
0.0497002
0.0498689
0.050066
0.0502918
0.050547
0.0508323
0.0511485
0.0514969
0.0518787
0.0522952
0.0527482
0.0532391
0.0537698
0.0543421
0.0549576
0.0556181
0.0563248
0.0570787
0.05788
0.0587278
0.0596198
0.0605507
0.061512
0.0624878
0.0634528
0.0643675
0.0797626
0.0719575
0.0629866
0.05815
0.0564873
0.0553321
0.0539994
0.052846
0.052026
0.0514254
0.0509367
0.0505278
0.0501936
0.0499263
0.0497159
0.0495542
0.0494356
0.0493561
0.0493126
0.0493025
0.0493241
0.0493759
0.0494571
0.0495668
0.0497047
0.0498708
0.0500651
0.050288
0.0505399
0.0508216
0.0511339
0.0514778
0.0518545
0.0522654
0.0527119
0.0531954
0.0537175
0.0542799
0.0548839
0.055531
0.056222
0.0569575
0.0577371
0.0585595
0.0594213
0.0603166
0.0612356
0.0621616
0.0630687
0.0639188
0.0783481
0.0714564
0.0631383
0.0583165
0.0565302
0.0553792
0.0540801
0.052923
0.0520855
0.051475
0.0509821
0.0505693
0.0502306
0.0499592
0.0497453
0.0495806
0.0494592
0.049377
0.049331
0.0493185
0.0493377
0.0493871
0.0494658
0.0495731
0.0497085
0.0498718
0.0500632
0.050283
0.0505315
0.0508094
0.0511175
0.0514568
0.0518283
0.0522332
0.0526729
0.0531486
0.0536618
0.0542138
0.0548059
0.055439
0.0561137
0.0568302
0.0575877
0.0583839
0.059215
0.0600741
0.0609504
0.0618267
0.0626767
0.063464
0.0770031
0.0709249
0.0632437
0.0584737
0.0565715
0.0554176
0.0541539
0.0529983
0.0521446
0.0515236
0.0510265
0.0506102
0.0502672
0.0499918
0.0497745
0.0496067
0.0494825
0.0493976
0.049349
0.049334
0.0493507
0.0493978
0.049474
0.0495787
0.0497114
0.0498719
0.0500603
0.0502767
0.0505216
0.0507956
0.0510994
0.0514337
0.0517997
0.0521984
0.052631
0.0530986
0.0536025
0.0541438
0.0547234
0.055342
0.056
0.0566969
0.0574314
0.0582008
0.0590006
0.059823
0.0606565
0.0614834
0.0622773
0.0630034
0.0757247
0.0703686
0.0633033
0.0586189
0.0566116
0.0554479
0.0542201
0.053071
0.0522029
0.0515713
0.0510699
0.0506504
0.0503035
0.0500241
0.0498033
0.0496324
0.0495054
0.0494178
0.0493666
0.049349
0.0493633
0.0494077
0.0494814
0.0495834
0.0497133
0.0498709
0.0500561
0.0502691
0.0505103
0.0507801
0.0510793
0.0514086
0.0517688
0.052161
0.0525861
0.0530453
0.0535394
0.0540695
0.0546362
0.0552399
0.0558805
0.0565572
0.0572682
0.0580103
0.0587781
0.0595636
0.060354
0.0611317
0.0618706
0.0625373
0.0745101
0.0697926
0.0633176
0.0587496
0.0566507
0.0554709
0.0542782
0.0531405
0.0522605
0.0516179
0.0511121
0.0506897
0.0503392
0.0500559
0.0498316
0.0496577
0.0495278
0.0494375
0.0493836
0.0493635
0.0493752
0.049417
0.049488
0.0495872
0.0497142
0.0498687
0.0500506
0.0502601
0.0504973
0.0507629
0.0510572
0.0513811
0.0517353
0.0521207
0.0525381
0.0529884
0.0534724
0.0539908
0.0545441
0.0551323
0.055755
0.056411
0.057098
0.0578122
0.0585476
0.0592956
0.0600431
0.0607721
0.061457
0.0620659
0.0733563
0.0692022
0.0632881
0.0588632
0.0566886
0.0554872
0.0543279
0.053206
0.0523168
0.0516634
0.051153
0.050728
0.0503742
0.0500871
0.0498594
0.0496825
0.0495497
0.0494567
0.0494001
0.0493773
0.0493863
0.0494255
0.0494937
0.0495901
0.0497141
0.0498654
0.0500438
0.0502495
0.0504827
0.0507437
0.051033
0.0513513
0.0516992
0.0520774
0.0524867
0.0529278
0.0534013
0.0539077
0.0544471
0.0550193
0.0556235
0.0562582
0.0569206
0.0576064
0.058309
0.0590194
0.059724
0.0604047
0.0610367
0.0615896
0.0722603
0.0686017
0.0632166
0.0589577
0.0567249
0.0554976
0.054369
0.0532668
0.0523716
0.0517077
0.0511924
0.0507651
0.0504083
0.0501177
0.0498866
0.0497066
0.049571
0.0494753
0.0494159
0.0493904
0.0493967
0.0494332
0.0494985
0.0495919
0.0497128
0.0498607
0.0500355
0.0502373
0.0504662
0.0507225
0.0510065
0.051319
0.0516602
0.052031
0.0524319
0.0528634
0.0533259
0.0538198
0.0543448
0.0549005
0.0554858
0.0560987
0.0567359
0.0573928
0.0580624
0.0587349
0.0593967
0.0600299
0.0606101
0.0611086
0.0712189
0.0679954
0.0631053
0.0590311
0.0567586
0.0555028
0.0544015
0.0533221
0.0524244
0.0517507
0.0512302
0.0508008
0.0504414
0.0501475
0.0499131
0.04973
0.0495916
0.0494931
0.049431
0.0494028
0.0494063
0.0494399
0.0495023
0.0495926
0.0497102
0.0498546
0.0500257
0.0502234
0.0504478
0.0506991
0.0509777
0.0512839
0.0516183
0.0519814
0.0523734
0.052795
0.0532462
0.053727
0.0542372
0.054776
0.0553418
0.0559323
0.0565439
0.0571715
0.0578076
0.0584423
0.0590617
0.0596479
0.0601775
0.0606233
0.070229
0.067387
0.0629569
0.0590818
0.0567887
0.0555034
0.0544256
0.0533713
0.0524747
0.0517922
0.0512664
0.0508349
0.0504734
0.0501764
0.0499387
0.0497526
0.0496114
0.0495101
0.0494452
0.0494142
0.0494148
0.0494455
0.0495049
0.049592
0.0497062
0.049847
0.0500142
0.0502076
0.0504273
0.0506734
0.0509463
0.0512461
0.0515733
0.0519283
0.0523112
0.0527224
0.0531618
0.0536292
0.0541241
0.0546454
0.0551912
0.0557589
0.0563445
0.0569424
0.057545
0.0581418
0.058719
0.0592591
0.0597394
0.0601342
0.0692877
0.0667797
0.0627745
0.0591087
0.0568137
0.0554999
0.0544414
0.0534138
0.0525219
0.0518321
0.0513008
0.0508673
0.050504
0.0502042
0.0499633
0.0497743
0.0496303
0.0495262
0.0494585
0.0494246
0.0494224
0.04945
0.0495062
0.0495901
0.0497007
0.0498378
0.0500008
0.0501898
0.0504046
0.0506453
0.0509122
0.0512054
0.0515251
0.0518716
0.052245
0.0526454
0.0530726
0.0535262
0.0540054
0.0545087
0.0550341
0.0555785
0.0561376
0.0567056
0.0572744
0.0578335
0.058369
0.0588638
0.0592961
0.0596416
0.0683918
0.0661762
0.0625613
0.0591109
0.0568321
0.0554926
0.0544495
0.0534491
0.0525653
0.05187
0.0513333
0.0508978
0.050533
0.0502307
0.0499869
0.0497949
0.0496481
0.0495412
0.0494707
0.049434
0.0494287
0.0494533
0.0495063
0.0495867
0.0496937
0.0498268
0.0499856
0.0501699
0.0503796
0.0506147
0.0508753
0.0511615
0.0514734
0.0518112
0.0521747
0.052564
0.0529786
0.0534179
0.0538808
0.0543657
0.0548702
0.055391
0.0559233
0.0564612
0.0569961
0.0575177
0.058012
0.0584624
0.0588481
0.059146
0.0675386
0.065579
0.0623206
0.059088
0.0568424
0.0554815
0.0544502
0.053477
0.0526045
0.0519056
0.0513639
0.0509263
0.0505603
0.0502559
0.0500092
0.0498144
0.0496647
0.0495551
0.0494818
0.0494421
0.0494338
0.0494552
0.0495048
0.0495817
0.0496849
0.0498139
0.0499683
0.0501477
0.0503521
0.0505813
0.0508354
0.0511144
0.0514182
0.0517468
0.0521002
0.0524779
0.0528795
0.0533041
0.0537503
0.0542164
0.0546996
0.0551963
0.0557016
0.0562091
0.0567103
0.0571946
0.0576483
0.0580553
0.0583957
0.0586479
0.0667252
0.0649899
0.0620557
0.0590401
0.0568429
0.0554666
0.054444
0.0534972
0.0526387
0.0519386
0.0513923
0.0509526
0.0505856
0.0502794
0.0500302
0.0498325
0.0496801
0.0495678
0.0494916
0.0494489
0.0494375
0.0494556
0.0495018
0.049575
0.0496743
0.0497991
0.0499488
0.0501232
0.050322
0.0505452
0.0507925
0.0510639
0.0513593
0.0516785
0.0520212
0.052387
0.0527752
0.0531846
0.0536138
0.0540606
0.0545221
0.0549944
0.0554724
0.0559495
0.056417
0.0568644
0.0572783
0.057643
0.0579396
0.0581478
0.065949
0.0644103
0.0617701
0.0589675
0.0568321
0.0554473
0.0544314
0.0535096
0.0526674
0.0519685
0.0514183
0.0509766
0.0506087
0.0503012
0.0500496
0.0498492
0.0496941
0.049579
0.0495
0.0494543
0.0494397
0.0494545
0.0494971
0.0495665
0.0496617
0.0497821
0.049927
0.0500962
0.0502892
0.050506
0.0507462
0.0510098
0.0512964
0.0516059
0.0519376
0.0522911
0.0526655
0.0530593
0.0534711
0.0538982
0.0543377
0.0547854
0.0552359
0.0556826
0.0561166
0.0565275
0.0569023
0.0572258
0.0574801
0.0576463
0.0652076
0.0638414
0.0614667
0.0588711
0.0568088
0.0554233
0.0544128
0.0535143
0.0526901
0.0519949
0.0514418
0.050998
0.0506296
0.0503209
0.0500673
0.0498643
0.0497065
0.0495887
0.0495068
0.0494581
0.0494403
0.0494516
0.0494906
0.0495561
0.0496471
0.0497628
0.0499028
0.0500665
0.0502536
0.0504637
0.0506966
0.050952
0.0512296
0.0515289
0.0518493
0.0521901
0.0525503
0.0529282
0.0533221
0.0537293
0.0541464
0.0545693
0.0549922
0.0554084
0.0558092
0.0561842
0.0565207
0.0568042
0.0570178
0.0571439
0.0644987
0.0632841
0.0611487
0.0587519
0.0567719
0.0553937
0.0543884
0.0535114
0.0527065
0.0520172
0.0514625
0.0510169
0.0506479
0.0503385
0.050083
0.0498776
0.0497172
0.0495967
0.0495119
0.0494601
0.0494391
0.0494469
0.0494821
0.0495436
0.0496302
0.0497412
0.049876
0.050034
0.0502148
0.0504181
0.0506434
0.0508904
0.0511585
0.0514474
0.0517561
0.0520839
0.0524295
0.0527911
0.0531668
0.0535537
0.0539482
0.054346
0.0547413
0.0551272
0.0554951
0.0558348
0.056134
0.0563788
0.0565534
0.0566411
0.06382
0.0627388
0.0608187
0.0586113
0.0567205
0.0553579
0.0543583
0.0535011
0.0527161
0.052035
0.0514801
0.0510329
0.0506635
0.0503536
0.0500966
0.049889
0.0497261
0.0496028
0.0495152
0.0494603
0.0494359
0.0494402
0.0494715
0.0495288
0.0496109
0.049717
0.0498464
0.0499985
0.0501729
0.050369
0.0505864
0.0508247
0.0510831
0.0513612
0.0516579
0.0519723
0.0523029
0.0526479
0.0530051
0.0533714
0.0537432
0.0541158
0.0544835
0.0548393
0.0551747
0.0554798
0.0557426
0.0559501
0.0560872
0.0561386
0.0631695
0.062206
0.0604792
0.0584508
0.0566542
0.0553148
0.0543225
0.0534835
0.0527187
0.0520478
0.0514942
0.051046
0.0506762
0.050366
0.0501079
0.0498983
0.0497329
0.049607
0.0495165
0.0494585
0.0494307
0.0494313
0.0494587
0.0495116
0.0495891
0.0496901
0.0498139
0.0499599
0.0501276
0.0503163
0.0505256
0.0507548
0.0510032
0.0512701
0.0515545
0.0518552
0.0521705
0.0524986
0.0528369
0.0531824
0.0535312
0.0538786
0.0542188
0.0545448
0.0548483
0.0551195
0.055347
0.0555186
0.05562
0.0556369
0.0625453
0.0616858
0.0601324
0.0582721
0.0565726
0.0552638
0.0542811
0.053459
0.0527142
0.0520552
0.0515044
0.0510558
0.0506858
0.0503756
0.0501167
0.0499052
0.0497375
0.0496089
0.0495156
0.0494545
0.0494233
0.0494201
0.0494434
0.0494919
0.0495645
0.0496603
0.0497784
0.0499181
0.0500788
0.0502599
0.0504607
0.0506806
0.0509187
0.0511742
0.0514459
0.0517324
0.0520322
0.052343
0.0526623
0.0529868
0.0533125
0.0536347
0.0539475
0.0542441
0.0545161
0.0547543
0.0549478
0.0550848
0.0551522
0.0551366
0.0619457
0.061178
0.0597803
0.0580768
0.0564759
0.055204
0.0542336
0.0534277
0.0527025
0.0520567
0.0515105
0.0510622
0.0506922
0.0503821
0.0501226
0.0499096
0.0497397
0.0496086
0.0495124
0.0494481
0.0494134
0.0494064
0.0494256
0.0494695
0.0495372
0.0496275
0.0497396
0.0498728
0.0500263
0.0501995
0.0503916
0.0506019
0.0508294
0.0510731
0.0513318
0.051604
0.0518879
0.0521812
0.0524811
0.0527845
0.0530871
0.0533842
0.0536699
0.0539374
0.0541787
0.0543847
0.0545453
0.0546493
0.0546844
0.0546384
0.0613691
0.0606828
0.0594246
0.0578667
0.0563642
0.0551347
0.0541798
0.0533896
0.0526836
0.052052
0.0515118
0.0510648
0.0506951
0.0503853
0.0501255
0.0499113
0.0497392
0.0496056
0.0495066
0.0494392
0.049401
0.0493901
0.049405
0.0494442
0.0495067
0.0495914
0.0496974
0.0498239
0.04997
0.050135
0.0503182
0.0505185
0.0507351
0.0509667
0.0512122
0.0514697
0.0517375
0.052013
0.0522936
0.0525757
0.0528552
0.0531272
0.0533861
0.053625
0.0538363
0.0540113
0.0541402
0.0542127
0.0542172
0.0541428
0.0608138
0.0601997
0.0590666
0.0576436
0.0562381
0.0550554
0.0541194
0.053345
0.0526575
0.0520409
0.0515082
0.0510634
0.0506944
0.0503851
0.0501252
0.0499099
0.049736
0.0496
0.0494982
0.0494276
0.0493858
0.0493709
0.0493814
0.0494159
0.0494731
0.049552
0.0496517
0.0497712
0.0499097
0.0500663
0.0502402
0.0504303
0.0506357
0.0508551
0.0510869
0.0513296
0.0515809
0.0518386
0.0520996
0.0523603
0.0526168
0.0528641
0.0530965
0.0533074
0.0534894
0.0536344
0.0537329
0.0537754
0.0537512
0.0536503
0.0602786
0.0597285
0.0587077
0.0574089
0.056098
0.0549657
0.0540518
0.0532937
0.0526243
0.0520231
0.0514991
0.0510576
0.0506898
0.0503812
0.0501214
0.0499054
0.0497297
0.0495913
0.0494868
0.049413
0.0493676
0.0493488
0.0493548
0.0493843
0.0494361
0.0495091
0.0496022
0.0497146
0.0498452
0.0499932
0.0501575
0.0503373
0.0505312
0.0507379
0.050956
0.0511835
0.0514183
0.0516579
0.0518992
0.0521387
0.0523722
0.0525949
0.0528013
0.0529849
0.0531386
0.0532545
0.0533241
0.0533381
0.053287
0.0531617
0.0597621
0.059269
0.0583488
0.0571643
0.0559447
0.0548653
0.0539768
0.0532357
0.052584
0.0519985
0.0514843
0.0510472
0.050681
0.0503733
0.0501139
0.0498973
0.0497202
0.0495796
0.0494723
0.0493953
0.0493463
0.0493234
0.0493249
0.0493493
0.0493956
0.0494624
0.0495488
0.0496538
0.0497763
0.0499154
0.0500701
0.0502391
0.0504213
0.0506152
0.0508192
0.0510314
0.0512495
0.0514709
0.0516925
0.0519108
0.0521216
0.0523201
0.0525009
0.0526578
0.0527841
0.0528722
0.0529141
0.0529014
0.0528252
0.0526773
0.0592631
0.0588206
0.0579908
0.0569111
0.0557792
0.0547543
0.0538939
0.0531709
0.0525365
0.0519669
0.0514634
0.0510317
0.0506678
0.0503613
0.0501025
0.0498856
0.0497071
0.0495644
0.0494545
0.0493743
0.0493217
0.0492946
0.0492914
0.0493108
0.0493513
0.0494119
0.0494914
0.0495888
0.049703
0.049833
0.0499777
0.0501358
0.050306
0.0504869
0.0506767
0.0508733
0.0510746
0.0512777
0.0514797
0.0516768
0.0518651
0.0520398
0.0521956
0.0523267
0.0524265
0.052488
0.0525036
0.0524657
0.0523662
0.0521977
0.0587804
0.0583831
0.0576344
0.0566507
0.0556022
0.0546325
0.0538027
0.0530991
0.0524821
0.0519282
0.0514363
0.0510108
0.0506499
0.050345
0.0500869
0.0498699
0.0496904
0.0495457
0.0494331
0.0493498
0.0492935
0.0492622
0.0492543
0.0492684
0.0493031
0.0493572
0.0494297
0.0495193
0.049625
0.0497457
0.0498801
0.0500271
0.0501852
0.0503528
0.0505282
0.0507092
0.0508935
0.0510784
0.0512608
0.051437
0.0516031
0.0517544
0.0518859
0.0519919
0.0520662
0.0521023
0.0520931
0.0520317
0.0519107
0.0517235
0.0583129
0.0579559
0.0572801
0.0563843
0.0554147
0.0545003
0.0537031
0.0530201
0.0524205
0.0518825
0.0514025
0.0509843
0.0506271
0.050324
0.050067
0.04985
0.0496696
0.0495231
0.0494079
0.0493215
0.0492615
0.049226
0.0492133
0.049222
0.0492507
0.0492983
0.0493635
0.0494452
0.0495422
0.0496533
0.0497774
0.0499131
0.0500588
0.050213
0.0503738
0.0505391
0.0507064
0.0508731
0.0510359
0.0511915
0.0513357
0.0514642
0.051572
0.0516538
0.0517038
0.0517157
0.0516832
0.0515998
0.051459
0.051255
0.0578598
0.0575388
0.0569284
0.0561128
0.0552176
0.0543579
0.0535949
0.0529338
0.0523519
0.0518296
0.0513621
0.0509518
0.050599
0.0502982
0.0500424
0.0498257
0.0496446
0.0494964
0.0493788
0.0492893
0.0492256
0.0491858
0.0491682
0.0491714
0.0491941
0.0492349
0.0492927
0.0493663
0.0494544
0.0495558
0.0496693
0.0497935
0.0499267
0.0500674
0.0502135
0.050363
0.0505133
0.0506618
0.0508054
0.0509405
0.0510633
0.0511696
0.0512545
0.051313
0.0513396
0.0513287
0.0512743
0.0511706
0.0510118
0.0507926
0.0574201
0.0571311
0.0565797
0.0558372
0.0550119
0.0542057
0.053478
0.05284
0.0522761
0.0517696
0.0513147
0.0509132
0.0505653
0.0502673
0.0500129
0.0497967
0.0496151
0.0494654
0.0493454
0.0492528
0.0491854
0.0491413
0.0491188
0.0491164
0.0491329
0.0491669
0.0492171
0.0492824
0.0493615
0.0494531
0.0495558
0.0496683
0.0497889
0.0499159
0.0500473
0.0501809
0.0503143
0.0504448
0.0505693
0.0506844
0.0507863
0.0508708
0.0509336
0.0509698
0.0509742
0.0509417
0.0508669
0.0507445
0.0505694
0.0503369
0.0569928
0.0567326
0.0562341
0.0555583
0.0547983
0.0540442
0.0533524
0.0527386
0.052193
0.0517023
0.0512604
0.050868
0.0505258
0.050231
0.0499784
0.0497629
0.0495809
0.0494298
0.0493076
0.0492119
0.0491408
0.0490924
0.0490649
0.0490569
0.049067
0.049094
0.0491366
0.0491934
0.0492633
0.0493449
0.0494367
0.0495374
0.0496453
0.0497585
0.0498751
0.049993
0.0501096
0.0502222
0.0503279
0.0504233
0.0505048
0.0505684
0.0506098
0.0506247
0.0506081
0.0505554
0.0504616
0.0503221
0.0501322
0.049888
0.0565773
0.0563427
0.055892
0.0552769
0.0545776
0.0538738
0.0532182
0.0526293
0.0521027
0.0516277
0.0511989
0.0508162
0.0504802
0.0501891
0.0499385
0.0497238
0.0495417
0.0493894
0.049265
0.0491664
0.0490916
0.0490387
0.0490062
0.0489925
0.0489963
0.0490162
0.0490509
0.0490992
0.0491598
0.0492312
0.049312
0.0494008
0.0494958
0.0495952
0.0496971
0.0497992
0.0498992
0.0499942
0.0500814
0.0501576
0.0502192
0.0502626
0.0502836
0.0502781
0.0502417
0.0501701
0.0500587
0.0499036
0.0497006
0.0494463
0.0561727
0.0559611
0.0555533
0.0549935
0.0543508
0.0536951
0.0530755
0.0525122
0.0520049
0.0515459
0.0511302
0.0507575
0.0504283
0.0501413
0.049893
0.0496795
0.0494972
0.0493439
0.0492175
0.049116
0.0490375
0.0489802
0.0489426
0.0489232
0.0489204
0.0489332
0.04896
0.0489996
0.0490507
0.0491119
0.0491816
0.0492584
0.0493405
0.0494262
0.0495133
0.0495998
0.0496832
0.0497609
0.0498301
0.0498875
0.04993
0.0499538
0.0499553
0.0499305
0.0498755
0.0497862
0.0496588
0.0494895
0.0492749
0.049012
0.0557782
0.0555873
0.0552181
0.0547087
0.0541183
0.0535087
0.0529246
0.0523873
0.0518996
0.0514566
0.0510543
0.0506919
0.0503698
0.0500874
0.0498417
0.0496294
0.0494474
0.0492931
0.0491647
0.0490604
0.0489783
0.0489166
0.0488739
0.0488486
0.0488394
0.0488448
0.0488636
0.0488945
0.048936
0.0489868
0.0490454
0.0491102
0.0491794
0.0492513
0.0493238
0.0493949
0.049462
0.0495227
0.0495742
0.0496134
0.0496373
0.0496424
0.0496253
0.0495823
0.0495099
0.0494043
0.0492622
0.0490802
0.0488554
0.0485854
0.0553933
0.0552208
0.0548866
0.0544229
0.053881
0.053315
0.0527657
0.0522546
0.0517869
0.05136
0.050971
0.0506191
0.0503046
0.0500271
0.0497844
0.0495736
0.0493918
0.0492368
0.0491066
0.0489995
0.0489137
0.0488477
0.0487998
0.0487687
0.0487528
0.0487509
0.0487617
0.0487837
0.0488156
0.048856
0.0489034
0.0489561
0.0490125
0.0490707
0.0491287
0.0491845
0.0492356
0.0492797
0.0493139
0.0493356
0.0493416
0.0493289
0.0492941
0.049234
0.0491453
0.0490247
0.0488692
0.0486759
0.0484423
0.0481665
0.0550173
0.0548614
0.0545586
0.0541365
0.0536394
0.0531146
0.0525991
0.0521141
0.0516666
0.051256
0.0508803
0.050539
0.0502324
0.0499602