/*--------------------------------*- C++ -*----------------------------------*\
  =========                 |
  \\      /  F ield         | OpenFOAM: The Open Source CFD Toolbox
   \\    /   O peration     | Website:  https://openfoam.org
    \\  /    A nd           | Version:  7
     \\/     M anipulation  |
\*---------------------------------------------------------------------------*/
FoamFile
{
    version     2.0;
    format      ascii;
    class       surfaceScalarField;
    location    "0.19";
    object      phi;
}
// * * * * * * * * * * * * * * * * * * * * * * * * * * * * * * * * * * * * * //

dimensions      [0 3 -1 0 0 0 0];

internalField   nonuniform List<scalar> 
139350
(
6.45902e-08
9.20413e-08
3.19449e-08
3.26453e-08
2.30493e-08
8.89567e-09
1.95502e-08
3.49907e-09
1.75936e-08
1.95656e-09
1.61613e-08
1.43237e-09
1.50235e-08
1.13774e-09
1.41049e-08
9.18593e-10
1.33479e-08
7.57037e-10
1.27092e-08
6.38661e-10
1.21601e-08
5.49162e-10
1.1681e-08
4.79066e-10
1.12583e-08
4.22754e-10
1.08816e-08
3.76693e-10
1.05431e-08
3.38477e-10
1.02367e-08
3.06385e-10
9.95756e-09
2.79153e-10
9.70172e-09
2.5584e-10
9.46598e-09
2.35731e-10
9.24771e-09
2.18277e-10
9.04466e-09
2.03049e-10
8.85495e-09
1.89709e-10
8.67696e-09
1.7799e-10
8.50928e-09
1.67676e-10
8.35069e-09
1.58594e-10
8.20008e-09
1.50605e-10
8.05649e-09
1.43597e-10
7.91901e-09
1.3748e-10
7.78683e-09
1.32182e-10
7.65917e-09
1.27658e-10
7.53531e-09
1.23854e-10
7.41454e-09
1.20773e-10
7.29618e-09
1.18363e-10
7.17948e-09
1.16695e-10
7.06381e-09
1.15676e-10
6.9483e-09
1.1551e-10
6.83232e-09
1.15978e-10
6.71478e-09
1.17536e-10
6.59508e-09
1.19706e-10
6.47174e-09
1.23339e-10
6.3441e-09
1.27641e-10
6.21039e-09
1.33709e-10
6.06924e-09
1.41149e-10
5.91982e-09
1.49418e-10
5.75703e-09
1.62789e-10
5.58687e-09
1.70165e-10
5.38783e-09
1.99036e-10
5.20507e-09
1.82761e-10
4.8574e-09
3.47674e-10
-2.00873e-09
6.86612e-09
1.26022e-07
1.27462e-07
9.12519e-08
6.74158e-08
7.19199e-08
2.82277e-08
6.1181e-08
1.42379e-08
5.47227e-08
8.41486e-09
5.02168e-08
5.9383e-09
4.67206e-08
4.63391e-09
4.38929e-08
3.7463e-09
4.15544e-08
3.09551e-09
3.95804e-08
2.61271e-09
3.78835e-08
2.24601e-09
3.64037e-08
1.9589e-09
3.50981e-08
1.72839e-09
3.3935e-08
1.53981e-09
3.28902e-08
1.38328e-09
3.19448e-08
1.25173e-09
3.1084e-08
1.14001e-09
3.02955e-08
1.04426e-09
2.95697e-08
9.61584e-10
2.88982e-08
8.89715e-10
2.82744e-08
8.26906e-10
2.76923e-08
7.71774e-10
2.71471e-08
7.23218e-10
2.66344e-08
6.80351e-10
2.61506e-08
6.4246e-10
2.56922e-08
6.08964e-10
2.52564e-08
5.79395e-10
2.48405e-08
5.53377e-10
2.44421e-08
5.30605e-10
2.40589e-08
5.10862e-10
2.36888e-08
4.93945e-10
2.33298e-08
4.79794e-10
2.29799e-08
4.68247e-10
2.26371e-08
4.59458e-10
2.22996e-08
4.53185e-10
2.19651e-08
4.49981e-10
2.16319e-08
4.49256e-10
2.1297e-08
4.52392e-10
2.09588e-08
4.57877e-10
2.06134e-08
4.68783e-10
2.02594e-08
4.81607e-10
1.98906e-08
5.02524e-10
1.95071e-08
5.24629e-10
1.90982e-08
5.58363e-10
1.86671e-08
5.93875e-10
1.81964e-08
6.40896e-10
1.76889e-08
7.06501e-10
1.7154e-08
7.1763e-10
1.64287e-08
1.07297e-09
-1.88369e-09
1.63037e-08
1.58805e-07
1.35061e-07
1.36483e-07
8.97373e-08
1.17468e-07
4.72429e-08
1.03273e-07
2.84323e-08
9.3249e-08
1.84393e-08
8.59292e-08
1.32581e-08
8.02054e-08
1.03577e-08
7.55366e-08
8.41513e-09
7.16406e-08
6.99145e-09
6.83306e-08
5.92271e-09
6.54732e-08
5.10343e-09
6.29734e-08
4.45871e-09
6.07624e-08
3.93938e-09
5.87889e-08
3.51337e-09
5.70133e-08
3.15883e-09
5.54048e-08
2.8602e-09
5.39388e-08
2.60606e-09
5.25952e-08
2.38784e-09
5.13577e-08
2.19904e-09
5.02128e-08
2.03461e-09
4.91491e-08
1.89063e-09
4.81569e-08
1.76399e-09
4.72279e-08
1.65219e-09
4.63551e-08
1.55323e-09
4.5532e-08
1.4655e-09
4.47533e-08
1.38767e-09
4.40141e-08
1.31865e-09
4.33098e-08
1.2576e-09
4.26367e-08
1.20378e-09
4.19908e-08
1.15669e-09
4.13689e-08
1.11585e-09
4.07677e-08
1.08106e-09
4.01839e-08
1.05198e-09
3.96146e-08
1.02881e-09
3.90566e-08
1.01114e-09
3.85067e-08
9.99885e-10
3.79619e-08
9.94035e-10
3.74182e-08
9.96154e-10
3.68727e-08
1.00332e-09
3.63196e-08
1.02187e-09
3.57573e-08
1.04393e-09
3.51754e-08
1.08443e-09
3.45763e-08
1.12369e-09
3.39392e-08
1.19548e-09
3.32783e-08
1.25483e-09
3.25495e-08
1.36965e-09
3.17887e-08
1.46731e-09
3.0945e-08
1.56135e-09
2.99915e-08
2.02643e-09
-6.48486e-10
2.87563e-08
1.75662e-07
1.30915e-07
1.65586e-07
9.98139e-08
1.52701e-07
6.01277e-08
1.40084e-07
4.10497e-08
1.29373e-07
2.91494e-08
1.20708e-07
2.19232e-08
1.13574e-07
1.7492e-08
1.07571e-07
1.44181e-08
1.02449e-07
1.21139e-08
9.80246e-08
1.03468e-08
9.41591e-08
8.96895e-09
9.07463e-08
7.87153e-09
8.7706e-08
6.97965e-09
8.49765e-08
6.24285e-09
8.25093e-08
5.62606e-09
8.02656e-08
5.10394e-09
7.82139e-08
4.65769e-09
7.63287e-08
4.27305e-09
7.45887e-08
3.93912e-09
7.29759e-08
3.6474e-09
7.14753e-08
3.39119e-09
7.00741e-08
3.16517e-09
6.87612e-08
2.96507e-09
6.7527e-08
2.78744e-09
6.63631e-08
2.62944e-09
6.5262e-08
2.48877e-09
6.42171e-08
2.36355e-09
6.32225e-08
2.25223e-09
6.22727e-08
2.15357e-09
6.13628e-08
2.06659e-09
6.04881e-08
1.99048e-09
5.96444e-08
1.92479e-09
5.88274e-08
1.86896e-09
5.80331e-08
1.82317e-09
5.72574e-08
1.78679e-09
5.64962e-08
1.76113e-09
5.57455e-08
1.74471e-09
5.50003e-08
1.74138e-09
5.4257e-08
1.74666e-09
5.35082e-08
1.77064e-09
5.27519e-08
1.80026e-09
5.19751e-08
1.86118e-09
5.11811e-08
1.91767e-09
5.03434e-08
2.03317e-09
4.94804e-08
2.11785e-09
4.85365e-08
2.3136e-09
4.75572e-08
2.44656e-09
4.64664e-08
2.65217e-09
4.53086e-08
3.18422e-09
1.04988e-09
4.36102e-08
1.84559e-07
1.23142e-07
1.82314e-07
1.02058e-07
1.76085e-07
6.63573e-08
1.67724e-07
4.94098e-08
1.5908e-07
3.77939e-08
1.51147e-07
2.98566e-08
1.44048e-07
2.45903e-08
1.37722e-07
2.07439e-08
1.32096e-07
1.77405e-08
1.27085e-07
1.5358e-08
1.22603e-07
1.34503e-08
1.18575e-07
1.18997e-08
1.14935e-07
1.06195e-08
1.1163e-07
9.54846e-09
1.08613e-07
8.64245e-09
1.05848e-07
7.86876e-09
1.03304e-07
7.20253e-09
1.00952e-07
6.6246e-09
9.87712e-08
6.12001e-09
9.67416e-08
5.67697e-09
9.48467e-08
5.28608e-09
9.30721e-08
4.93979e-09
9.14052e-08
4.63199e-09
8.98349e-08
4.35768e-09
8.83516e-08
4.11275e-09
8.69466e-08
3.89382e-09
8.5612e-08
3.69812e-09
8.43409e-08
3.52334e-09
8.31268e-08
3.36763e-09
8.19639e-08
3.22949e-09
8.08467e-08
3.10773e-09
7.97699e-08
3.00157e-09
7.87287e-08
2.9102e-09
7.77181e-08
2.83373e-09
7.67335e-08
2.77135e-09
7.577e-08
2.72466e-09
7.4823e-08
2.69177e-09
7.38866e-08
2.67777e-09
7.29565e-08
2.67671e-09
7.20247e-08
2.70241e-09
7.10883e-08
2.73672e-09
7.01334e-08
2.81606e-09
6.91621e-08
2.88893e-09
6.81474e-08
3.04792e-09
6.71044e-08
3.16088e-09
6.59808e-08
3.43712e-09
6.48096e-08
3.61783e-09
6.35281e-08
3.93363e-09
6.2163e-08
4.54933e-09
2.9568e-09
6.02561e-08
1.90387e-07
1.14971e-07
1.91846e-07
1.00599e-07
1.90229e-07
6.79742e-08
1.86124e-07
5.35147e-08
1.80666e-07
4.32522e-08
1.74888e-07
3.56349e-08
1.69165e-07
3.03137e-08
1.63652e-07
2.62562e-08
1.58448e-07
2.29447e-08
1.53595e-07
2.02114e-08
1.49095e-07
1.79498e-08
1.44933e-07
1.60617e-08
1.41084e-07
1.44682e-08
1.37523e-07
1.31105e-08
1.34221e-07
1.19442e-08
1.31154e-07
1.09352e-08
1.283e-07
1.00567e-08
1.25637e-07
9.28732e-09
1.23147e-07
8.60989e-09
1.20814e-07
8.01067e-09
1.18621e-07
7.47847e-09
1.16557e-07
7.00417e-09
1.14609e-07
6.58025e-09
1.12766e-07
6.20049e-09
1.11019e-07
5.85975e-09
1.09359e-07
5.55373e-09
1.07778e-07
5.27887e-09
1.06269e-07
5.0322e-09
1.04826e-07
4.81129e-09
1.03441e-07
4.6142e-09
1.02109e-07
4.43932e-09
1.00825e-07
4.28559e-09
9.95836e-08
4.15198e-09
9.83788e-08
4.03851e-09
9.7206e-08
3.9442e-09
9.60597e-08
3.87092e-09
9.4935e-08
3.8165e-09
9.38257e-08
3.78706e-09
9.27269e-08
3.77553e-09
9.16304e-08
3.79893e-09
9.05321e-08
3.83504e-09
8.94188e-08
3.92932e-09
8.82899e-08
4.01788e-09
8.71216e-08
4.21614e-09
8.59204e-08
4.36209e-09
8.46482e-08
4.70936e-09
8.33107e-08
4.9553e-09
8.188e-08
5.36434e-09
8.03336e-08
6.09573e-09
5.0105e-09
7.82799e-08
1.95539e-07
1.07246e-07
1.98242e-07
9.78965e-08
1.98956e-07
6.72601e-08
1.97764e-07
5.47069e-08
1.95115e-07
4.5901e-08
1.91752e-07
3.89981e-08
1.87995e-07
3.40709e-08
1.84016e-07
3.0235e-08
1.79966e-07
2.69949e-08
1.75955e-07
2.42221e-08
1.72052e-07
2.18523e-08
1.68297e-07
1.9817e-08
1.64709e-07
1.8056e-08
1.61297e-07
1.65225e-08
1.58061e-07
1.51802e-08
1.54997e-07
1.39996e-08
1.52097e-07
1.29568e-08
1.49352e-07
1.20319e-08
1.46753e-07
1.12086e-08
1.44291e-07
1.04731e-08
1.41955e-07
9.81405e-09
1.39737e-07
9.22205e-09
1.37629e-07
8.6891e-09
1.35621e-07
8.20851e-09
1.33706e-07
7.77462e-09
1.31877e-07
7.38267e-09
1.30127e-07
7.02867e-09
1.2845e-07
6.70923e-09
1.2684e-07
6.42159e-09
1.2529e-07
6.16348e-09
1.23797e-07
5.93307e-09
1.22353e-07
5.7291e-09
1.20955e-07
5.5504e-09
1.19596e-07
5.39694e-09
1.18273e-07
5.2677e-09
1.16979e-07
5.16478e-09
1.1571e-07
5.08589e-09
1.14459e-07
5.03797e-09
1.13221e-07
5.01336e-09
1.11988e-07
5.03141e-09
1.10756e-07
5.06746e-09
1.09512e-07
5.17314e-09
1.08252e-07
5.27748e-09
1.06959e-07
5.50924e-09
1.05628e-07
5.69354e-09
1.04238e-07
6.09958e-09
1.02767e-07
6.426e-09
1.01218e-07
6.91346e-09
9.95368e-08
7.77677e-09
7.17668e-09
9.73706e-08
2.00847e-07
9.99846e-08
2.0377e-07
9.49726e-08
2.05315e-07
6.57154e-08
2.05621e-07
5.44012e-08
2.0478e-07
4.67415e-08
2.03281e-07
4.04976e-08
2.01311e-07
3.60412e-08
1.98954e-07
3.25912e-08
1.96318e-07
2.96308e-08
1.93506e-07
2.70343e-08
1.90599e-07
2.47595e-08
1.87658e-07
2.27585e-08
1.84727e-07
2.09869e-08
1.81838e-07
1.94109e-08
1.79015e-07
1.80039e-08
1.7627e-07
1.67443e-08
1.73613e-07
1.56137e-08
1.71049e-07
1.45964e-08
1.68578e-07
1.36789e-08
1.66202e-07
1.28497e-08
1.63917e-07
1.20989e-08
1.61721e-07
1.14179e-08
1.5961e-07
1.07995e-08
1.57582e-07
1.02374e-08
1.5563e-07
9.72618e-09
1.53751e-07
9.26118e-09
1.51942e-07
8.83848e-09
1.50196e-07
8.45471e-09
1.48511e-07
8.10711e-09
1.46881e-07
7.79336e-09
1.45302e-07
7.51164e-09
1.43771e-07
7.26066e-09
1.42282e-07
7.03931e-09
1.40831e-07
6.84761e-09
1.39414e-07
6.68466e-09
1.38026e-07
6.55275e-09
1.36662e-07
6.44977e-09
1.35317e-07
6.38322e-09
1.33985e-07
6.34542e-09
1.32659e-07
6.35716e-09
1.31334e-07
6.39309e-09
1.29999e-07
6.50795e-09
1.28647e-07
6.6292e-09
1.27267e-07
6.88945e-09
1.25844e-07
7.11677e-09
1.24372e-07
7.57132e-09
1.22811e-07
7.98707e-09
1.21177e-07
8.54699e-09
1.19413e-07
9.54134e-09
9.40333e-09
1.17186e-07
2.06445e-07
9.30712e-08
2.09334e-07
9.20841e-08
2.11025e-07
6.40245e-08
2.1191e-07
5.35164e-08
2.11966e-07
4.66848e-08
2.11564e-07
4.08997e-08
2.10815e-07
3.67903e-08
2.09722e-07
3.36846e-08
2.08322e-07
3.10308e-08
2.06674e-07
2.86824e-08
2.04834e-07
2.65993e-08
2.02852e-07
2.47403e-08
2.00771e-07
2.30679e-08
1.98627e-07
2.15549e-08
1.96449e-07
2.01814e-08
1.94262e-07
1.89319e-08
1.92082e-07
1.77931e-08
1.89925e-07
1.67538e-08
1.878e-07
1.58041e-08
1.85714e-07
1.49353e-08
1.83673e-07
1.41397e-08
1.81681e-07
1.34106e-08
1.79738e-07
1.27422e-08
1.77846e-07
1.21293e-08
1.76005e-07
1.15673e-08
1.74214e-07
1.10522e-08
1.72472e-07
1.05807e-08
1.70777e-07
1.01498e-08
1.69127e-07
9.75707e-09
1.6752e-07
9.40051e-09
1.65953e-07
9.07853e-09
1.64423e-07
8.79007e-09
1.62929e-07
8.53425e-09
1.61465e-07
8.3113e-09
1.60029e-07
8.12061e-09
1.58617e-07
7.96474e-09
1.57225e-07
7.84195e-09
1.55848e-07
7.76015e-09
1.54481e-07
7.71216e-09
1.53119e-07
7.71946e-09
1.51754e-07
7.75751e-09
1.50381e-07
7.88154e-09
1.48988e-07
8.02205e-09
1.4757e-07
8.30786e-09
1.46104e-07
8.58182e-09
1.44597e-07
9.07848e-09
1.42998e-07
9.58624e-09
1.41326e-07
1.02196e-08
1.39532e-07
1.13352e-08
1.16264e-08
1.37309e-07
2.12287e-07
8.64463e-08
2.15146e-07
8.9225e-08
2.16779e-07
6.23923e-08
2.17821e-07
5.24736e-08
2.18225e-07
4.62812e-08
2.18327e-07
4.07981e-08
2.18233e-07
3.68837e-08
2.17913e-07
3.40045e-08
2.17359e-07
3.15849e-08
2.1659e-07
2.94519e-08
2.15629e-07
2.75598e-08
2.14503e-07
2.58664e-08
2.13238e-07
2.43334e-08
2.11858e-07
2.29341e-08
2.10389e-07
2.16505e-08
2.08852e-07
2.04694e-08
2.07264e-07
1.93806e-08
2.05643e-07
1.83753e-08
2.04001e-07
1.74463e-08
2.02349e-07
1.65872e-08
2.00696e-07
1.57923e-08
1.9905e-07
1.50569e-08
1.97416e-07
1.43765e-08
1.95798e-07
1.37471e-08
1.942e-07
1.31653e-08
1.92624e-07
1.26282e-08
1.91072e-07
1.2133e-08
1.89544e-07
1.16775e-08
1.88041e-07
1.12599e-08
1.86563e-07
1.08786e-08
1.85109e-07
1.05325e-08
1.83678e-07
1.02209e-08
1.82269e-07
9.94351e-09
1.8088e-07
9.70073e-09
1.79508e-07
9.49243e-09
1.78151e-07
9.32151e-09
1.76806e-07
9.18678e-09
1.7547e-07
9.0965e-09
1.74138e-07
9.04432e-09
1.72805e-07
9.05189e-09
1.71466e-07
9.09655e-09
1.70115e-07
9.23221e-09
1.68742e-07
9.39549e-09
1.67343e-07
9.70641e-09
1.65896e-07
1.00298e-08
1.64408e-07
1.05657e-08
1.62831e-07
1.1164e-08
1.61175e-07
1.18748e-08
1.59412e-07
1.30985e-08
1.3777e-08
1.57261e-07
2.18328e-07
8.00987e-08
2.212e-07
8.63534e-08
2.22751e-07
6.08414e-08
2.2382e-07
5.14042e-08
2.24333e-07
4.57683e-08
2.24613e-07
4.05184e-08
2.24796e-07
3.67002e-08
2.24856e-07
3.39451e-08
2.24769e-07
3.16716e-08
2.24536e-07
2.96848e-08
2.24162e-07
2.79342e-08
2.23652e-07
2.63758e-08
2.23017e-07
2.49687e-08
2.22267e-07
2.36836e-08
2.21417e-07
2.25013e-08
2.20478e-07
2.14083e-08
2.19464e-07
2.03947e-08
2.18387e-07
1.94524e-08
2.17258e-07
1.85753e-08
2.16087e-07
1.7758e-08
2.14883e-07
1.69961e-08
2.13654e-07
1.62858e-08
2.12407e-07
1.56238e-08
2.11147e-07
1.50071e-08
2.09879e-07
1.44332e-08
2.08607e-07
1.38999e-08
2.07335e-07
1.34053e-08
2.06065e-07
1.29478e-08
2.04798e-07
1.25261e-08
2.03538e-07
1.21394e-08
2.02283e-07
1.1787e-08
2.01035e-07
1.14687e-08
1.99794e-07
1.11846e-08
1.98559e-07
1.09356e-08
1.9733e-07
1.07221e-08
1.96104e-07
1.05473e-08
1.9488e-07
1.04107e-08
1.93656e-07
1.03209e-08
1.92427e-07
1.02726e-08
1.91192e-07
1.02872e-08
1.89944e-07
1.03445e-08
1.8868e-07
1.04961e-08
1.87389e-07
1.06866e-08
1.86071e-07
1.1024e-08
1.84702e-07
1.13989e-08
1.83294e-07
1.19739e-08
1.818e-07
1.26583e-08
1.80224e-07
1.34512e-08
1.78553e-07
1.4769e-08
1.57864e-08
1.76544e-07
2.24557e-07
7.40349e-08
2.27464e-07
8.34465e-08
2.28947e-07
5.93581e-08
2.30021e-07
5.033e-08
2.30575e-07
4.52146e-08
2.30903e-07
4.01903e-08
2.31176e-07
3.64273e-08
2.31384e-07
3.37373e-08
2.31507e-07
3.1549e-08
2.31542e-07
2.96494e-08
2.31489e-07
2.79866e-08
2.31348e-07
2.65177e-08
2.31116e-07
2.52002e-08
2.30797e-07
2.40028e-08
2.30394e-07
2.29042e-08
2.29912e-07
2.18899e-08
2.29358e-07
2.09488e-08
2.28738e-07
2.00727e-08
2.28058e-07
1.92551e-08
2.27325e-07
1.84909e-08
2.26545e-07
1.77758e-08
2.25725e-07
1.71065e-08
2.24869e-07
1.64799e-08
2.23982e-07
1.58937e-08
2.23069e-07
1.53458e-08
2.22135e-07
1.48345e-08
2.21182e-07
1.43584e-08
2.20213e-07
1.39163e-08
2.19232e-07
1.35075e-08
2.1824e-07
1.31315e-08
2.17238e-07
1.27881e-08
2.1623e-07
1.24777e-08
2.15213e-07
1.22006e-08
2.14191e-07
1.19583e-08
2.13161e-07
1.17516e-08
2.12124e-07
1.15841e-08
2.11079e-07
1.14559e-08
2.10024e-07
1.13759e-08
2.08957e-07
1.13397e-08
2.07876e-07
1.13685e-08
2.06775e-07
1.14451e-08
2.05654e-07
1.16175e-08
2.04501e-07
1.18395e-08
2.03319e-07
1.22059e-08
2.02085e-07
1.26333e-08
2.0081e-07
1.32484e-08
1.99456e-07
1.40127e-08
1.98016e-07
1.48905e-08
1.96496e-07
1.62889e-08
1.75933e-08
1.9469e-07
2.30978e-07
6.8263e-08
2.33928e-07
8.0496e-08
2.35352e-07
5.79343e-08
2.36432e-07
4.92499e-08
2.37019e-07
4.46277e-08
2.37362e-07
3.98473e-08
2.37656e-07
3.61332e-08
2.37909e-07
3.34839e-08
2.38107e-07
3.1351e-08
2.38252e-07
2.95048e-08
2.38346e-07
2.78932e-08
2.38386e-07
2.64772e-08
2.38371e-07
2.52151e-08
2.38299e-07
2.40745e-08
2.3817e-07
2.30333e-08
2.37984e-07
2.20758e-08
2.37743e-07
2.11904e-08
2.37448e-07
2.03679e-08
2.37101e-07
1.96015e-08
2.36707e-07
1.88857e-08
2.36266e-07
1.8216e-08
2.35784e-07
1.75889e-08
2.35263e-07
1.70014e-08
2.34705e-07
1.64511e-08
2.34115e-07
1.59361e-08
2.33495e-07
1.54548e-08
2.32847e-07
1.5006e-08
2.32174e-07
1.45889e-08
2.31479e-07
1.42028e-08
2.30763e-07
1.38476e-08
2.30028e-07
1.35235e-08
2.29274e-07
1.32309e-08
2.28504e-07
1.29707e-08
2.27718e-07
1.27447e-08
2.26916e-07
1.25539e-08
2.26097e-07
1.24024e-08
2.25262e-07
1.22907e-08
2.2441e-07
1.2228e-08
2.23539e-07
1.2211e-08
2.22647e-07
1.22602e-08
2.21731e-07
1.23614e-08
2.2079e-07
1.25588e-08
2.19814e-07
1.28157e-08
2.18806e-07
1.3213e-08
2.17747e-07
1.36924e-08
2.16647e-07
1.43487e-08
2.15475e-07
1.51851e-08
2.14217e-07
1.61476e-08
2.12893e-07
1.76136e-08
1.91524e-08
2.11334e-07
2.37599e-07
6.2789e-08
2.40596e-07
7.74992e-08
2.41962e-07
5.65679e-08
2.43047e-07
4.81652e-08
2.4367e-07
4.40041e-08
2.44026e-07
3.94915e-08
2.44325e-07
3.58344e-08
2.4459e-07
3.32187e-08
2.44811e-07
3.11307e-08
2.44991e-07
2.9324e-08
2.45139e-07
2.77457e-08
2.45254e-07
2.63618e-08
2.45337e-07
2.51327e-08
2.45385e-07
2.40264e-08
2.45398e-07
2.30205e-08
2.45374e-07
2.20992e-08
2.45314e-07
2.12504e-08
2.45217e-07
2.04648e-08
2.45084e-07
1.97352e-08
2.44913e-07
1.90558e-08
2.44708e-07
1.84217e-08
2.44467e-07
1.78293e-08
2.44193e-07
1.72754e-08
2.43887e-07
1.67574e-08
2.4355e-07
1.62734e-08
2.43183e-07
1.58217e-08
2.42788e-07
1.54011e-08
2.42366e-07
1.50108e-08
2.41918e-07
1.46502e-08
2.41446e-07
1.43193e-08
2.40952e-07
1.40184e-08
2.40434e-07
1.37482e-08
2.39895e-07
1.35096e-08
2.39335e-07
1.33048e-08
2.38754e-07
1.31349e-08
2.38152e-07
1.30043e-08
2.37529e-07
1.2914e-08
2.36884e-07
1.28732e-08
2.36215e-07
1.28795e-08
2.35523e-07
1.29527e-08
2.34803e-07
1.30818e-08
2.34055e-07
1.33065e-08
2.33271e-07
1.35996e-08
2.32455e-07
1.40286e-08
2.3159e-07
1.45578e-08
2.30683e-07
1.52552e-08
2.29714e-07
1.61545e-08
2.28664e-07
1.71978e-08
2.27558e-07
1.87191e-08
2.04411e-08
2.2627e-07
2.44429e-07
5.76163e-08
2.47465e-07
7.44629e-08
2.48782e-07
5.52506e-08
2.49867e-07
4.70806e-08
2.50529e-07
4.33422e-08
2.50901e-07
3.9119e-08
2.51204e-07
3.55318e-08
2.51474e-07
3.29487e-08
2.51701e-07
3.09035e-08
2.51892e-07
2.9133e-08
2.52056e-07
2.75818e-08
2.52197e-07
2.62211e-08
2.52315e-07
2.50142e-08
2.52412e-07
2.39297e-08
2.52487e-07
2.29457e-08
2.52539e-07
2.20465e-08
2.52569e-07
2.12204e-08
2.52576e-07
2.0458e-08
2.52559e-07
1.97521e-08
2.52518e-07
1.90968e-08
2.52453e-07
1.84872e-08
2.52363e-07
1.79194e-08
2.52248e-07
1.73903e-08
2.52108e-07
1.68971e-08
2.51944e-07
1.64376e-08
2.51755e-07
1.60102e-08
2.51543e-07
1.56136e-08
2.51307e-07
1.52468e-08
2.51048e-07
1.49093e-08
2.50766e-07
1.46012e-08
2.50462e-07
1.43226e-08
2.50136e-07
1.40744e-08
2.49788e-07
1.38577e-08
2.49418e-07
1.36746e-08
2.49026e-07
1.35266e-08
2.48612e-07
1.34181e-08
2.48176e-07
1.33504e-08
2.47716e-07
1.33327e-08
2.47232e-07
1.33635e-08
2.46723e-07
1.34617e-08
2.46186e-07
1.36192e-08
2.45621e-07
1.38713e-08
2.45021e-07
1.41997e-08
2.4439e-07
1.46596e-08
2.43714e-07
1.5234e-08
2.42998e-07
1.59709e-08
2.42229e-07
1.69233e-08
2.41387e-07
1.804e-08
2.40502e-07
1.96047e-08
2.14627e-08
2.3948e-07
2.51476e-07
5.2747e-08
2.54542e-07
7.13966e-08
2.55821e-07
5.39722e-08
2.569e-07
4.60016e-08
2.57599e-07
4.26431e-08
2.57991e-07
3.87271e-08
2.58299e-07
3.52239e-08
2.58573e-07
3.26742e-08
2.58805e-07
3.06718e-08
2.58999e-07
2.89384e-08
2.59168e-07
2.74135e-08
2.59316e-07
2.60734e-08
2.59445e-07
2.48846e-08
2.59558e-07
2.38167e-08
2.59655e-07
2.28483e-08
2.59738e-07
2.1964e-08
2.59806e-07
2.11525e-08
2.59859e-07
2.04049e-08
2.59897e-07
1.97139e-08
2.5992e-07
1.90739e-08
2.59927e-07
1.84801e-08
2.59918e-07
1.79286e-08
2.59892e-07
1.74161e-08
2.59849e-07
1.694e-08
2.59789e-07
1.64981e-08
2.5971e-07
1.60885e-08
2.59614e-07
1.57099e-08
2.595e-07
1.53613e-08
2.59367e-07
1.50424e-08
2.59215e-07
1.47528e-08
2.59044e-07
1.44931e-08
2.58855e-07
1.42639e-08
2.58646e-07
1.40664e-08
2.58418e-07
1.39029e-08
2.5817e-07
1.37748e-08
2.57901e-07
1.36868e-08
2.57611e-07
1.36403e-08
2.573e-07
1.36443e-08
2.56965e-07
1.36984e-08
2.56606e-07
1.38201e-08
2.56221e-07
1.40044e-08
2.5581e-07
1.42821e-08
2.55367e-07
1.46429e-08
2.54896e-07
1.51313e-08
2.54384e-07
1.57451e-08
2.53837e-07
1.65183e-08
2.53247e-07
1.75137e-08
2.52593e-07
1.86939e-08
2.51906e-07
2.02911e-08
2.22433e-08
2.51126e-07
2.58749e-07
4.81809e-08
2.61835e-07
6.83102e-08
2.63086e-07
5.27221e-08
2.64154e-07
4.49333e-08
2.64888e-07
4.19093e-08
2.65301e-07
3.83136e-08
2.65615e-07
3.49099e-08
2.65895e-07
3.23949e-08
2.66131e-07
3.04355e-08
2.66329e-07
2.87407e-08
2.66499e-07
2.72431e-08
2.66649e-07
2.59236e-08
2.66781e-07
2.47522e-08
2.66899e-07
2.36994e-08
2.67003e-07
2.27443e-08
2.67095e-07
2.1872e-08
2.67176e-07
2.10716e-08
2.67246e-07
2.03345e-08
2.67306e-07
1.96539e-08
2.67356e-07
1.90242e-08
2.67395e-07
1.84408e-08
2.67424e-07
1.79001e-08
2.67441e-07
1.73988e-08
2.67447e-07
1.69342e-08
2.6744e-07
1.65043e-08
2.67422e-07
1.61072e-08
2.6739e-07
1.57415e-08
2.67345e-07
1.54063e-08
2.67286e-07
1.51011e-08
2.67213e-07
1.48259e-08
2.67126e-07
1.45807e-08
2.67023e-07
1.43667e-08
2.66904e-07
1.41849e-08
2.6677e-07
1.40375e-08
2.66618e-07
1.39263e-08
2.66449e-07
1.38558e-08
2.66262e-07
1.38277e-08
2.66055e-07
1.38508e-08
2.65828e-07
1.39256e-08
2.6558e-07
1.40681e-08
2.65308e-07
1.42762e-08
2.65014e-07
1.45767e-08
2.64691e-07
1.49657e-08
2.64343e-07
1.54794e-08
2.63961e-07
1.61264e-08
2.63548e-07
1.69316e-08
2.63101e-07
1.79608e-08
2.62601e-07
1.91933e-08
2.6208e-07
2.08129e-08
2.2824e-08
2.61499e-07
2.66257e-07
4.39165e-08
2.69352e-07
6.52143e-08
2.70585e-07
5.14897e-08
2.71638e-07
4.38801e-08
2.72403e-07
4.11442e-08
2.7284e-07
3.78768e-08
2.73161e-07
3.45889e-08
2.73445e-07
3.21106e-08
2.73687e-07
3.0194e-08
2.73888e-07
2.85395e-08
2.7406e-07
2.70708e-08
2.74211e-07
2.57726e-08
2.74345e-07
2.46187e-08
2.74463e-07
2.3581e-08
2.74569e-07
2.26388e-08
2.74663e-07
2.17777e-08
2.74747e-07
2.09872e-08
2.74823e-07
2.02591e-08
2.7489e-07
1.95868e-08
2.74949e-07
1.89652e-08
2.75e-07
1.83897e-08
2.75043e-07
1.78569e-08
2.75078e-07
1.73637e-08
2.75105e-07
1.69075e-08
2.75123e-07
1.64862e-08
2.75132e-07
1.60981e-08
2.75131e-07
1.57419e-08
2.75121e-07
1.54166e-08
2.751e-07
1.51217e-08
2.75069e-07
1.48572e-08
2.75026e-07
1.46234e-08
2.74972e-07
1.44212e-08
2.74905e-07
1.42518e-08
2.74825e-07
1.41176e-08
2.74731e-07
1.40202e-08
2.74623e-07
1.39642e-08
2.74499e-07
1.39516e-08
2.74359e-07
1.39908e-08
2.74201e-07
1.40833e-08
2.74025e-07
1.42437e-08
2.73829e-07
1.44724e-08
2.73613e-07
1.47925e-08
2.73373e-07
1.52057e-08
2.73111e-07
1.57414e-08
2.72822e-07
1.64153e-08
2.72506e-07
1.72482e-08
2.72164e-07
1.8303e-08
2.7178e-07
1.95766e-08
2.71383e-07
2.12102e-08
2.32521e-08
2.70955e-07
2.74007e-07
3.99503e-08
2.77102e-07
6.212e-08
2.78326e-07
5.0265e-08
2.79361e-07
4.28455e-08
2.80153e-07
4.03519e-08
2.80615e-07
3.74153e-08
2.80944e-07
3.42599e-08
2.81233e-07
3.18215e-08
2.8148e-07
2.99473e-08
2.81685e-07
2.83345e-08
2.81859e-07
2.68962e-08
2.82012e-07
2.56202e-08
2.82146e-07
2.44845e-08
2.82265e-07
2.34622e-08
2.8237e-07
2.25331e-08
2.82465e-07
2.16832e-08
2.8255e-07
2.09024e-08
2.82626e-07
2.01829e-08
2.82694e-07
1.95185e-08
2.82755e-07
1.89041e-08
2.8281e-07
1.83355e-08
2.82857e-07
1.78095e-08
2.82898e-07
1.7323e-08
2.82932e-07
1.68736e-08
2.82959e-07
1.64593e-08
2.82978e-07
1.60784e-08
2.8299e-07
1.57297e-08
2.82995e-07
1.54122e-08
2.82991e-07
1.51256e-08
2.82979e-07
1.48697e-08
2.82957e-07
1.46449e-08
2.82926e-07
1.44524e-08
2.82884e-07
1.42932e-08
2.82832e-07
1.41697e-08
2.82769e-07
1.40839e-08
2.82693e-07
1.40401e-08
2.82603e-07
1.40408e-08
2.82501e-07
1.40937e-08
2.82382e-07
1.42015e-08
2.82249e-07
1.43773e-08
2.82098e-07
1.46236e-08
2.81929e-07
1.49608e-08
2.81741e-07
1.53945e-08
2.81533e-07
1.59492e-08
2.81303e-07
1.66451e-08
2.8105e-07
1.75014e-08
2.80778e-07
1.85754e-08
2.80474e-07
1.98799e-08
2.80164e-07
2.15203e-08
2.35717e-08
2.79845e-07
2.82011e-07
3.6277e-08
2.85092e-07
5.90386e-08
2.86319e-07
4.90383e-08
2.87332e-07
4.18323e-08
2.88147e-07
3.95371e-08
2.88634e-07
3.69277e-08
2.88973e-07
3.39217e-08
2.89266e-07
3.15276e-08
2.89519e-07
2.96952e-08
2.89728e-07
2.81254e-08
2.89905e-07
2.67192e-08
2.90059e-07
2.54663e-08
2.90194e-07
2.43493e-08
2.90313e-07
2.33429e-08
2.90419e-07
2.24273e-08
2.90513e-07
2.15888e-08
2.90598e-07
2.0818e-08
2.90674e-07
2.01071e-08
2.90742e-07
1.94505e-08
2.90802e-07
1.88432e-08
2.90857e-07
1.82813e-08
2.90904e-07
1.77617e-08
2.90946e-07
1.72815e-08
2.90981e-07
1.68383e-08
2.9101e-07
1.64303e-08
2.91033e-07
1.60559e-08
2.91049e-07
1.57138e-08
2.91058e-07
1.54033e-08
2.91059e-07
1.51238e-08
2.91054e-07
1.48754e-08
2.9104e-07
1.46586e-08
2.91018e-07
1.44744e-08
2.90987e-07
1.43241e-08
2.90947e-07
1.42101e-08
2.90896e-07
1.41343e-08
2.90835e-07
1.41013e-08
2.90762e-07
1.41136e-08
2.90677e-07
1.41788e-08
2.90579e-07
1.43e-08
2.90467e-07
1.44894e-08
2.90339e-07
1.47514e-08
2.90196e-07
1.51037e-08
2.90035e-07
1.55549e-08
2.89858e-07
1.61265e-08
2.89663e-07
1.68404e-08
2.89448e-07
1.77165e-08
2.89218e-07
1.88049e-08
2.88967e-07
2.01316e-08
2.88714e-07
2.17733e-08
2.38186e-08
2.88467e-07
2.90276e-07
3.28894e-08
2.93333e-07
5.5982e-08
2.94571e-07
4.78007e-08
2.95561e-07
4.08423e-08
2.96393e-07
3.87051e-08
2.96907e-07
3.64131e-08
2.97256e-07
3.3573e-08
2.97554e-07
3.12292e-08
2.97812e-07
2.94377e-08
2.98025e-07
2.79117e-08
2.98205e-07
2.65393e-08
2.98361e-07
2.53107e-08
2.98497e-07
2.4213e-08
2.98617e-07
2.3223e-08
2.98723e-07
2.23213e-08
2.98817e-07
2.14947e-08
2.98901e-07
2.07339e-08
2.98976e-07
2.00319e-08
2.99044e-07
1.93832e-08
2.99104e-07
1.87831e-08
2.99157e-07
1.82279e-08
2.99204e-07
1.77147e-08
2.99245e-07
1.72407e-08
2.9928e-07
1.68037e-08
2.99308e-07
1.64019e-08
2.9933e-07
1.60337e-08
2.99346e-07
1.5698e-08
2.99355e-07
1.53939e-08
2.99358e-07
1.51212e-08
2.99353e-07
1.488e-08
2.99341e-07
1.46706e-08
2.99322e-07
1.44942e-08
2.99294e-07
1.43521e-08
2.99257e-07
1.42469e-08
2.9921e-07
1.41806e-08
2.99154e-07
1.41575e-08
2.99087e-07
1.41806e-08
2.99009e-07
1.4257e-08
2.98918e-07
1.43906e-08
2.98815e-07
1.45926e-08
2.98698e-07
1.48688e-08
2.98567e-07
1.52349e-08
2.9842e-07
1.57016e-08
2.98258e-07
1.62884e-08
2.98081e-07
1.70174e-08
2.97887e-07
1.79104e-08
2.97682e-07
1.90098e-08
2.97463e-07
2.03514e-08
2.97246e-07
2.19898e-08
2.40181e-08
2.97046e-07
2.98813e-07
2.97788e-08
3.01833e-07
5.29622e-08
3.03089e-07
4.65444e-08
3.04055e-07
3.98764e-08
3.04899e-07
3.78612e-08
3.05441e-07
3.58711e-08
3.05802e-07
3.32123e-08
3.06105e-07
3.0926e-08
3.06368e-07
2.9175e-08
3.06586e-07
2.76932e-08
3.06769e-07
2.63564e-08
3.06927e-07
2.51533e-08
3.07064e-07
2.40755e-08
3.07185e-07
2.31024e-08
3.07291e-07
2.2215e-08
3.07385e-07
2.14005e-08
3.07469e-07
2.06502e-08
3.07544e-07
1.99573e-08
3.0761e-07
1.93166e-08
3.07669e-07
1.87239e-08
3.07722e-07
1.81756e-08
3.07768e-07
1.76689e-08
3.07807e-07
1.72011e-08
3.07841e-07
1.67704e-08
3.07868e-07
1.63747e-08
3.07889e-07
1.60128e-08
3.07903e-07
1.56834e-08
3.07911e-07
1.53859e-08
3.07913e-07
1.51199e-08
3.07907e-07
1.48856e-08
3.07894e-07
1.46834e-08
3.07874e-07
1.45147e-08
3.07845e-07
1.43807e-08
3.07808e-07
1.4284e-08
3.07762e-07
1.42268e-08
3.07706e-07
1.42133e-08
3.0764e-07
1.42467e-08
3.07563e-07
1.43339e-08
3.07474e-07
1.44793e-08
3.07374e-07
1.46933e-08
3.0726e-07
1.49827e-08
3.07133e-07
1.53619e-08
3.06992e-07
1.58426e-08
3.06837e-07
1.64433e-08
3.06669e-07
1.71856e-08
3.06486e-07
1.80928e-08
3.06295e-07
1.92006e-08
3.06096e-07
2.05513e-08
3.05903e-07
2.21827e-08
2.41863e-08
3.05735e-07
3.07632e-07
2.69346e-08
3.10602e-07
4.99913e-08
3.11884e-07
4.52627e-08
3.12826e-07
3.89346e-08
3.13676e-07
3.70109e-08
3.14245e-07
3.53021e-08
3.1462e-07
3.2838e-08
3.14928e-07
3.06178e-08
3.15196e-07
2.8907e-08
3.15419e-07
2.74698e-08
3.15606e-07
2.61701e-08
3.15765e-07
2.49937e-08
3.15904e-07
2.39365e-08
3.16026e-07
2.29808e-08
3.16133e-07
2.21082e-08
3.16227e-07
2.13062e-08
3.1631e-07
2.05666e-08
3.16385e-07
1.98831e-08
3.16451e-07
1.92507e-08
3.16509e-07
1.86655e-08
3.1656e-07
1.81242e-08
3.16605e-07
1.76241e-08
3.16643e-07
1.71628e-08
3.16675e-07
1.67384e-08
3.16701e-07
1.6349e-08
3.1672e-07
1.59934e-08
3.16733e-07
1.56704e-08
3.1674e-07
1.53795e-08
3.16739e-07
1.51202e-08
3.16732e-07
1.48929e-08
3.16717e-07
1.46981e-08
3.16695e-07
1.45369e-08
3.16665e-07
1.4411e-08
3.16626e-07
1.43227e-08
3.16578e-07
1.42745e-08
3.16521e-07
1.42705e-08
3.16454e-07
1.43141e-08
3.16376e-07
1.44119e-08
3.16286e-07
1.45687e-08
3.16185e-07
1.47944e-08
3.16072e-07
1.50963e-08
3.15946e-07
1.5488e-08
3.15806e-07
1.59818e-08
3.15654e-07
1.65954e-08
3.15491e-07
1.73493e-08
3.15315e-07
1.82685e-08
3.15133e-07
1.93826e-08
3.14947e-07
2.07373e-08
3.14771e-07
2.23584e-08
2.4332e-08
3.14625e-07
3.16741e-07
2.43447e-08
3.19651e-07
4.70813e-08
3.20964e-07
4.39501e-08
3.21882e-07
3.80157e-08
3.22734e-07
3.61593e-08
3.23329e-07
3.47071e-08
3.23719e-07
3.24486e-08
3.24032e-07
3.03043e-08
3.24305e-07
2.86339e-08
3.24534e-07
2.72411e-08
3.24724e-07
2.598e-08
3.24886e-07
2.48317e-08
3.25026e-07
2.3796e-08
3.25149e-07
2.28581e-08
3.25257e-07
2.20007e-08
3.25351e-07
2.12117e-08
3.25435e-07
2.04831e-08
3.25508e-07
1.98092e-08
3.25574e-07
1.91853e-08
3.25632e-07
1.86078e-08
3.25682e-07
1.80737e-08
3.25726e-07
1.75804e-08
3.25763e-07
1.71257e-08
3.25793e-07
1.67077e-08
3.25818e-07
1.63247e-08
3.25836e-07
1.59756e-08
3.25847e-07
1.56591e-08
3.25852e-07
1.53748e-08
3.25849e-07
1.51225e-08
3.2584e-07
1.49022e-08
3.25823e-07
1.47147e-08
3.25799e-07
1.45613e-08
3.25767e-07
1.44434e-08
3.25726e-07
1.43636e-08
3.25676e-07
1.43244e-08
3.25617e-07
1.43298e-08
3.25547e-07
1.43835e-08
3.25467e-07
1.44917e-08
3.25376e-07
1.46597e-08
3.25274e-07
1.48968e-08
3.2516e-07
1.52108e-08
3.25033e-07
1.56145e-08
3.24894e-07
1.61205e-08
3.24744e-07
1.67462e-08
3.24582e-07
1.75104e-08
3.24411e-07
1.84395e-08
3.24236e-07
1.95579e-08
3.24061e-07
2.09124e-08
3.239e-07
2.252e-08
2.44595e-08
3.23772e-07
3.26151e-07
2.19958e-08
3.28989e-07
4.42439e-08
3.30336e-07
4.26031e-08
3.31234e-07
3.71179e-08
3.32082e-07
3.53112e-08
3.32701e-07
3.40878e-08
3.33107e-07
3.20426e-08
3.33427e-07
2.99848e-08
3.33705e-07
2.83558e-08
3.33939e-07
2.70069e-08
3.34133e-07
2.57859e-08
3.34298e-07
2.46671e-08
3.3444e-07
2.36536e-08
3.34564e-07
2.27341e-08
3.34672e-07
2.18925e-08
3.34767e-07
2.11168e-08
3.34851e-07
2.03995e-08
3.34924e-07
1.97354e-08
3.34989e-07
1.91203e-08
3.35046e-07
1.85508e-08
3.35096e-07
1.8024e-08
3.35139e-07
1.75377e-08
3.35175e-07
1.70897e-08
3.35204e-07
1.66782e-08
3.35227e-07
1.63018e-08
3.35244e-07
1.59592e-08
3.35253e-07
1.56494e-08
3.35256e-07
1.53719e-08
3.35252e-07
1.51265e-08
3.35241e-07
1.49134e-08