/*--------------------------------*- C++ -*----------------------------------*\
  =========                 |
  \\      /  F ield         | OpenFOAM: The Open Source CFD Toolbox
   \\    /   O peration     | Website:  https://openfoam.org
    \\  /    A nd           | Version:  7
     \\/     M anipulation  |
\*---------------------------------------------------------------------------*/
FoamFile
{
    version     2.0;
    format      ascii;
    class       volVectorField;
    location    "0.19";
    object      U;
}
// * * * * * * * * * * * * * * * * * * * * * * * * * * * * * * * * * * * * * //

dimensions      [0 1 -1 0 0 0 0];

internalField   nonuniform List<vector> 
70000
(
(0.553387 0.0167233 0)
(0.251235 0.00340147 0)
(0.166144 0.000322484 0)
(0.132363 5.46756e-05 0)
(0.117137 4.6104e-05 0)
(0.107177 5.42827e-05 0)
(0.0991932 4.66559e-05 0)
(0.0927176 3.73295e-05 0)
(0.0874379 3.10308e-05 0)
(0.0830338 2.67203e-05 0)
(0.0792766 2.34407e-05 0)
(0.0760181 2.08202e-05 0)
(0.0731565 1.86899e-05 0)
(0.0706174 1.69371e-05 0)
(0.0683444 1.54782e-05 0)
(0.0662936 1.42515e-05 0)
(0.0644307 1.32112e-05 0)
(0.0627278 1.23227e-05 0)
(0.0611627 1.15602e-05 0)
(0.0597169 1.09033e-05 0)
(0.0583748 1.03367e-05 0)
(0.0571234 9.84815e-06 0)
(0.0559517 9.42836e-06 0)
(0.0548501 9.07005e-06 0)
(0.0538101 8.7677e-06 0)
(0.0528245 8.51715e-06 0)
(0.0518866 8.31539e-06 0)
(0.0509905 8.16112e-06 0)
(0.0501307 8.05212e-06 0)
(0.0493022 7.99131e-06 0)
(0.0485004 7.97471e-06 0)
(0.0477203 8.0124e-06 0)
(0.046958 8.09483e-06 0)
(0.0462085 8.24535e-06 0)
(0.0454677 8.44014e-06 0)
(0.0447308 8.72849e-06 0)
(0.0439928 9.05838e-06 0)
(0.043249 9.51797e-06 0)
(0.042492 1.00285e-05 0)
(0.0417201 1.0677e-05 0)
(0.0409156 1.1494e-05 0)
(0.0400936 1.22204e-05 0)
(0.0391985 1.37741e-05 0)
(0.0383122 1.39141e-05 0)
(0.0372466 1.76932e-05 0)
(0.0363215 1.46462e-05 0)
(0.0349066 2.56006e-05 0)
(0.0340955 1.04634e-05 0)
(0.0320096 4.64302e-05 0)
(0.0296077 -0.00112393 0)
(0.884897 0.0431688 0)
(0.649675 0.0201971 0)
(0.49421 0.00660226 0)
(0.403472 0.00277186 0)
(0.354463 0.00155646 0)
(0.323074 0.00113621 0)
(0.299127 0.000915094 0)
(0.279844 0.000751252 0)
(0.264045 0.000628481 0)
(0.250839 0.000537844 0)
(0.239574 0.00046911 0)
(0.229808 0.000415105 0)
(0.221233 0.000371557 0)
(0.213626 0.000335804 0)
(0.206818 0.000306037 0)
(0.200677 0.000280959 0)
(0.195102 0.00025962 0)
(0.190009 0.000241307 0)
(0.185332 0.000225482 0)
(0.181015 0.000211729 0)
(0.177011 0.000199727 0)
(0.173284 0.000189222 0)
(0.169799 0.000180015 0)
(0.166528 0.000171948 0)
(0.163446 0.000164893 0)
(0.160532 0.000158754 0)
(0.157767 0.000153451 0)
(0.155132 0.000148929 0)
(0.152613 0.000145144 0)
(0.150196 0.000142078 0)
(0.147865 0.000139706 0)
(0.14561 0.000138056 0)
(0.143417 0.000137109 0)
(0.141274 0.000136963 0)
(0.13917 0.000137565 0)
(0.137092 0.000139159 0)
(0.135027 0.000141563 0)
(0.132962 0.00014532 0)
(0.130878 0.000149941 0)
(0.128772 0.000156526 0)
(0.126597 0.000164035 0)
(0.124392 0.000174335 0)
(0.122013 0.000185969 0)
(0.119673 0.000200712 0)
(0.116881 0.000219328 0)
(0.114466 0.000237165 0)
(0.110796 0.00027226 0)
(0.108661 0.000268892 0)
(0.103285 0.000472314 0)
(0.099617 -0.00165401 0)
(0.991238 0.0499041 0)
(0.890315 0.0307255 0)
(0.762572 0.0146072 0)
(0.656455 0.00799043 0)
(0.585014 0.00489628 0)
(0.535489 0.00348302 0)
(0.497499 0.00274782 0)
(0.466756 0.00225568 0)
(0.441318 0.00189271 0)
(0.419886 0.00162136 0)
(0.401511 0.00141427 0)
(0.385525 0.00125148 0)
(0.371452 0.00112026 0)
(0.35894 0.00101248 0)
(0.347722 0.000922658 0)
(0.337592 0.000846904 0)
(0.328383 0.000782358 0)
(0.319965 0.000726883 0)
(0.31223 0.000678858 0)
(0.305088 0.000637033 0)
(0.298465 0.00060044 0)
(0.2923 0.000568312 0)
(0.286537 0.000540044 0)
(0.281132 0.000515153 0)
(0.276043 0.000493253 0)
(0.271237 0.000474036 0)
(0.266682 0.000457261 0)
(0.26235 0.000442742 0)
(0.258217 0.000430338 0)
(0.254258 0.000419967 0)
(0.250453 0.000411557 0)
(0.246782 0.000405137 0)
(0.243226 0.00040067 0)
(0.239765 0.000398351 0)
(0.236382 0.000398094 0)
(0.233057 0.000400425 0)
(0.229772 0.00040499 0)
(0.226508 0.000413052 0)
(0.223236 0.000423452 0)
(0.219952 0.0004391 0)
(0.216586 0.000456822 0)
(0.213198 0.000483056 0)
(0.209578 0.000510218 0)
(0.206031 0.000551579 0)
(0.201853 0.000591592 0)
(0.198223 0.000652917 0)
(0.192835 0.000718729 0)
(0.189564 0.000760676 0)
(0.181798 0.00108377 0)
(0.178045 -0.0010422 0)
(1.0156 0.0489239 0)
(1.00594 0.0358851 0)
(0.935863 0.0208074 0)
(0.851927 0.0135231 0)
(0.781858 0.0092281 0)
(0.72652 0.00680243 0)
(0.681293 0.00540527 0)
(0.643388 0.00446644 0)
(0.611222 0.00377299 0)
(0.583606 0.00324754 0)
(0.559605 0.0028418 0)
(0.538511 0.00252064 0)
(0.519792 0.00226055 0)
(0.503045 0.00204612 0)
(0.487952 0.00186682 0)
(0.474265 0.00171514 0)
(0.46178 0.00158554 0)
(0.450333 0.00147385 0)
(0.43979 0.00137691 0)
(0.430037 0.00129227 0)
(0.420979 0.00121802 0)
(0.412535 0.00115263 0)
(0.404636 0.00109491 0)
(0.397222 0.00104389 0)
(0.390241 0.000998795 0)
(0.383647 0.000959 0)
(0.377399 0.000924014 0)
(0.37146 0.000893449 0)
(0.365798 0.000867012 0)
(0.360383 0.000844505 0)
(0.355186 0.000825781 0)
(0.350182 0.000810836 0)
(0.345346 0.000799611 0)
(0.340654 0.000792385 0)
(0.336083 0.000789046 0)
(0.331607 0.000790433 0)
(0.327205 0.000796009 0)
(0.322852 0.000807903 0)
(0.318515 0.000824125 0)
(0.314184 0.000849949 0)
(0.309781 0.000879232 0)
(0.30537 0.000924987 0)
(0.300709 0.000970137 0)
(0.296145 0.00104629 0)
(0.290873 0.00111014 0)
(0.286219 0.00123203 0)
(0.279607 0.00132893 0)
(0.275269 0.00145192 0)
(0.26604 0.00183905 0)
(0.261673 0.000105889 0)
(1.01434 0.0460078 0)
(1.04752 0.0375012 0)
(1.02451 0.0241727 0)
(0.974603 0.0175858 0)
(0.923169 0.013152 0)
(0.876254 0.0102375 0)
(0.833938 0.00837498 0)
(0.796031 0.00705439 0)
(0.762307 0.00604484 0)
(0.732331 0.00525764 0)
(0.70559 0.0046361 0)
(0.681613 0.00413618 0)
(0.660001 0.00372649 0)
(0.64042 0.00338554 0)
(0.622591 0.00309824 0)
(0.606284 0.0028536 0)
(0.591303 0.00264338 0)
(0.577485 0.00246133 0)
(0.564692 0.00230261 0)
(0.552806 0.00216346 0)
(0.541725 0.0020409 0)
(0.531363 0.00193257 0)
(0.521644 0.00183656 0)
(0.512501 0.00175135 0)
(0.503876 0.0016757 0)
(0.495716 0.0016086 0)
(0.487977 0.00154926 0)
(0.480615 0.00149704 0)
(0.473594 0.00145146 0)
(0.466878 0.00141215 0)
(0.460436 0.00137889 0)
(0.454236 0.0013516 0)
(0.448252 0.0013302 0)
(0.442455 0.00131502 0)
(0.436818 0.00130595 0)
(0.431314 0.00130414 0)
(0.425917 0.00130887 0)
(0.420598 0.00132318 0)
(0.415323 0.00134424 0)
(0.410075 0.00137986 0)
(0.404779 0.00142069 0)
(0.399486 0.00148706 0)
(0.393961 0.00155129 0)
(0.388531 0.00166557 0)
(0.382413 0.00175597 0)
(0.376868 0.00194429 0)
(0.369448 0.00207903 0)
(0.364054 0.00229473 0)
(0.354196 0.00274117 0)
(0.348463 0.00143582 0)
(1.00933 0.0429197 0)
(1.05526 0.0372783 0)
(1.05864 0.025321 0)
(1.03625 0.0197921 0)
(1.00688 0.0158499 0)
(0.975704 0.0129778 0)
(0.944029 0.0110038 0)
(0.913001 0.00952293 0)
(0.883476 0.00833323 0)
(0.855845 0.00736594 0)
(0.830188 0.00657652 0)
(0.806445 0.00592506 0)
(0.784493 0.00538032 0)
(0.764189 0.00491955 0)
(0.745386 0.00452606 0)
(0.72794 0.00418723 0)
(0.711719 0.0038933 0)
(0.696604 0.00363667 0)
(0.682486 0.00341133 0)
(0.669268 0.00321249 0)
(0.656865 0.00303635 0)
(0.645199 0.00287981 0)
(0.634202 0.00274038 0)
(0.623811 0.00261601 0)
(0.613971 0.00250504 0)
(0.604632 0.0024061 0)
(0.595748 0.0023181 0)
(0.587279 0.00224016 0)
(0.579184 0.0021716 0)
(0.57143 0.00211193 0)
(0.563984 0.00206078 0)
(0.556812 0.00201805 0)
(0.549888 0.0019836 0)
(0.54318 0.00195785 0)
(0.536663 0.00194067 0)
(0.530305 0.0019335 0)
(0.524081 0.00193552 0)
(0.517958 0.00195061 0)
(0.511905 0.00197523 0)
(0.505897 0.00201958 0)
(0.499866 0.00207146 0)
(0.493847 0.00215797 0)
(0.487632 0.00224208 0)
(0.481489 0.00239414 0)
(0.474742 0.00251521 0)
(0.468437 0.00276702 0)
(0.460535 0.00295269 0)
(0.454149 0.00325271 0)
(0.444198 0.00378515 0)
(0.436972 0.00287254 0)
(1.00625 0.0400386 0)
(1.05205 0.0363523 0)
(1.06605 0.0252532 0)
(1.05951 0.0205969 0)
(1.0467 0.017284 0)
(1.03052 0.014707 0)
(1.01149 0.0128745 0)
(0.990654 0.0114519 0)
(0.969078 0.0102567 0)
(0.947499 0.009242 0)
(0.926363 0.00838258 0)
(0.905936 0.00765095 0)
(0.886366 0.00702293 0)
(0.867723 0.00647984 0)
(0.850024 0.00600728 0)
(0.833256 0.00559381 0)
(0.817386 0.0052302 0)
(0.802368 0.00490896 0)
(0.788153 0.00462396 0)
(0.774689 0.00437018 0)
(0.761926 0.00414353 0)
(0.749813 0.00394062 0)
(0.738304 0.00375865 0)
(0.727352 0.00359531 0)
(0.716917 0.00344869 0)
(0.706958 0.00331719 0)
(0.697438 0.00319955 0)
(0.688321 0.0030947 0)
(0.679576 0.00300185 0)
(0.671171 0.00292039 0)
(0.663076 0.00284991 0)
(0.655262 0.00279026 0)
(0.647702 0.00274131 0)
(0.640368 0.00270355 0)
(0.633235 0.0026769 0)
(0.626272 0.00266304 0)
(0.619456 0.00266117 0)
(0.612752 0.00267585 0)
(0.606134 0.00270315 0)
(0.59957 0.00275517 0)
(0.593006 0.00281777 0)
(0.586452 0.00292324 0)
(0.579745 0.00302826 0)
(0.573071 0.00321564 0)
(0.565909 0.00337231 0)
(0.55902 0.0036803 0)
(0.55088 0.00393075 0)
(0.543694 0.00430285 0)
(0.533886 0.00494079 0)
(0.525538 0.00440313 0)
(1.00495 0.0373612 0)
(1.04726 0.0352716 0)
(1.06393 0.0247157 0)
(1.06417 0.0206273 0)
(1.06053 0.0178276 0)
(1.05452 0.0155576 0)
(1.04565 0.0139418 0)
(1.03433 0.0126857 0)
(1.02127 0.0116028 0)
(1.00708 0.0106522 0)
(0.992218 0.00982119 0)
(0.977046 0.00909269 0)
(0.961829 0.0084503 0)
(0.946764 0.00788113 0)
(0.931986 0.00737506 0)
(0.917587 0.00692374 0)
(0.903626 0.00652012 0)
(0.890134 0.00615819 0)
(0.877128 0.00583284 0)
(0.864609 0.00553975 0)
(0.85257 0.00527524 0)
(0.840999 0.0050362 0)
(0.82988 0.00481999 0)
(0.819192 0.0046244 0)
(0.808915 0.00444756 0)
(0.799027 0.00428789 0)
(0.789505 0.0041441 0)
(0.780326 0.00401515 0)
(0.771469 0.00390023 0)
(0.76291 0.00379873 0)
(0.754628 0.00371026 0)
(0.746599 0.00363472 0)
(0.738803 0.00357204 0)
(0.731215 0.00352279 0)
(0.723814 0.00348704 0)
(0.716573 0.00346668 0)
(0.709473 0.00346105 0)
(0.702481 0.00347525 0)
(0.695574 0.00350528 0)
(0.688718 0.00356459 0)
(0.681874 0.00363821 0)
(0.675028 0.00376159 0)
(0.668067 0.00388891 0)
(0.661095 0.00410864 0)
(0.653744 0.00430547 0)
(0.646509 0.00466227 0)
(0.638336 0.00498693 0)
(0.630655 0.00542493 0)
(0.621102 0.00617177 0)
(0.612128 0.0059976 0)
(1.0044 0.0348138 0)
(1.04322 0.0341998 0)
(1.0599 0.024077 0)
(1.06221 0.0203369 0)
(1.06236 0.0178964 0)
(1.0616 0.0158453 0)
(1.05894 0.0144046 0)
(1.05428 0.0133156 0)
(1.04794 0.0123767 0)
(1.04022 0.0115397 0)
(1.03142 0.0107942 0)
(1.02179 0.0101275 0)
(1.01156 0.00952708 0)
(1.00093 0.00898369 0)
(0.990072 0.00849064 0)
(0.979108 0.00804254 0)
(0.968145 0.00763474 0)
(0.957262 0.00726319 0)
(0.946518 0.00692432 0)
(0.935958 0.00661502 0)
(0.925612 0.00633254 0)
(0.915501 0.00607448 0)
(0.905637 0.00583879 0)
(0.896026 0.00562365 0)
(0.886672 0.00542754 0)
(0.87757 0.00524914 0)
(0.868718 0.00508738 0)
(0.860106 0.00494139 0)
(0.851725 0.0048105 0)
(0.843565 0.00469425 0)
(0.835614 0.00459237 0)
(0.827858 0.00450489 0)
(0.820283 0.0044319 0)
(0.812872 0.00437413 0)
(0.80561 0.00433182 0)
(0.798477 0.00430712 0)
(0.791456 0.00429962 0)
(0.784521 0.00431481 0)
(0.777654 0.004349 0)
(0.770821 0.00441638 0)
(0.763995 0.00450226 0)
(0.757151 0.00464331 0)
(0.750211 0.00479463 0)
(0.743221 0.0050445 0)
(0.735933 0.00528483 0)
(0.728643 0.00568527 0)
(0.720652 0.00608799 0)
(0.712825 0.00659177 0)
(0.703658 0.00744184 0)
(0.694528 0.0076116 0)
(1.00402 0.0323742 0)
(1.03989 0.0331512 0)
(1.05612 0.0234562 0)
(1.05885 0.0199521 0)
(1.06009 0.0177705 0)
(1.06138 0.0158553 0)
(1.06167 0.0145172 0)
(1.06069 0.0135447 0)
(1.05851 0.0127233 0)
(1.05527 0.0119936 0)
(1.05103 0.0113427 0)
(1.04593 0.0107571 0)
(1.04009 0.0102245 0)
(1.03363 0.0097364 0)
(1.02668 0.00928716 0)
(1.01934 0.00887283 0)
(1.01173 0.00849024 0)
(1.00391 0.00813672 0)
(0.99596 0.00780997 0)
(0.987939 0.00750795 0)
(0.979896 0.0072289 0)
(0.971867 0.00697121 0)
(0.963885 0.0067335 0)
(0.955974 0.00651454 0)
(0.948152 0.00631329 0)
(0.940433 0.00612884 0)
(0.932825 0.00596048 0)
(0.925336 0.00580762 0)
(0.917968 0.00566989 0)
(0.910721 0.00554705 0)
(0.903593 0.00543909 0)
(0.89658 0.00534622 0)
(0.889677 0.00526877 0)
(0.882874 0.00520769 0)
(0.876164 0.00516349 0)
(0.869532 0.00513856 0)
(0.862969 0.00513285 0)
(0.856453 0.00515216 0)
(0.849973 0.00519333 0)
(0.843498 0.00527093 0)
(0.837012 0.00537129 0)
(0.830483 0.00553088 0)
(0.823861 0.00570822 0)
(0.817157 0.00598721 0)
(0.810205 0.00627318 0)
(0.803169 0.00671443 0)
(0.795598 0.00719493 0)
(0.787978 0.00776717 0)
(0.779383 0.00871172 0)
(0.770516 0.00919659 0)
(1.00364 0.0300344 0)
(1.03691 0.0321051 0)
(1.05278 0.022869 0)
(1.05561 0.0195503 0)
(1.057 0.0175829 0)
(1.05884 0.0157607 0)
(1.06021 0.0144712 0)
(1.06081 0.013563 0)
(1.06072 0.0128166 0)
(1.05995 0.0121626 0)
(1.05852 0.0115854 0)
(1.05643 0.0110702 0)
(1.05372 0.0106031 0)
(1.05044 0.0101744 0)
(1.04665 0.00977805 0)
(1.04241 0.00941006 0)
(1.03779 0.00906749 0)
(1.03285 0.00874811 0)
(1.02763 0.00845017 0)
(1.02219 0.00817221 0)
(1.01658 0.00791303 0)
(1.01084 0.00767161 0)
(1.00499 0.00744708 0)
(0.999071 0.00723868 0)
(0.993103 0.0070458 0)
(0.987109 0.00686793 0)
(0.981104 0.00670471 0)
(0.975104 0.00655589 0)
(0.969119 0.00642139 0)
(0.963157 0.00630126 0)
(0.957223 0.00619576 0)
(0.95132 0.00610535 0)
(0.94545 0.00603065 0)
(0.93961 0.00597283 0)
(0.933799 0.00593273 0)
(0.928008 0.00591298 0)
(0.922233 0.00591394 0)
(0.916459 0.00594169 0)
(0.91068 0.00599374 0)
(0.904872 0.00608472 0)
(0.899022 0.00620253 0)
(0.893104 0.00638246 0)
(0.887082 0.00658802 0)
(0.880951 0.00689613 0)
(0.874602 0.00722886 0)
(0.868112 0.00770975 0)
(0.861202 0.00826504 0)
(0.854114 0.00890875 0)
(0.846299 0.00993826 0)
(0.838063 0.0107031 0)
(1.00327 0.0277952 0)
(1.03408 0.031048 0)
(1.04966 0.0223082 0)
(1.05264 0.0191466 0)
(1.054 0.0173765 0)
(1.05589 0.0156369 0)
(1.05753 0.0143704 0)
(1.05867 0.0134936 0)
(1.05939 0.0127891 0)
(1.05974 0.0121798 0)
(1.05971 0.0116489 0)
(1.05926 0.0111816 0)
(1.05841 0.0107628 0)
(1.05715 0.0103816 0)
(1.05549 0.0100309 0)
(1.05346 0.00970608 0)
(1.05108 0.00940374 0)
(1.04839 0.00912144 0)
(1.04541 0.00885735 0)
(1.04217 0.00861008 0)
(1.0387 0.00837858 0)
(1.03503 0.008162 0)
(1.03119 0.0079597 0)
(1.0272 0.00777116 0)
(1.02307 0.00759601 0)
(1.01884 0.00743401 0)
(1.01452 0.00728503 0)
(1.01012 0.00714908 0)
(1.00565 0.0070263 0)
(1.00114 0.00691701 0)
(0.996573 0.00682169 0)
(0.991971 0.00674106 0)
(0.987337 0.00667596 0)
(0.982671 0.00662785 0)
(0.977975 0.00659782 0)
(0.973246 0.00658879 0)
(0.968484 0.0066015 0)
(0.963679 0.00664227 0)
(0.958827 0.0067093 0)
(0.953912 0.00681714 0)
(0.948925 0.00695554 0)
(0.943845 0.00715791 0)
(0.938646 0.0073937 0)
(0.933317 0.00773138 0)
(0.927785 0.00811098 0)
(0.922081 0.00863112 0)
(0.916035 0.00925635 0)
(0.909742 0.00997326 0)
(0.902891 0.011078 0)
(0.895579 0.0120838 0)
(1.00292 0.02566 0)
(1.03137 0.0299752 0)
(1.04666 0.0217697 0)
(1.04985 0.0187409 0)
(1.05118 0.0171583 0)
(1.05304 0.0155062 0)
(1.05471 0.0142562 0)
(1.05596 0.013396 0)
(1.05692 0.0127156 0)
(1.05766 0.0121314 0)
(1.0582 0.0116263 0)
(1.0585 0.0111868 0)
(1.05856 0.0107978 0)
(1.05837 0.0104478 0)
(1.05792 0.010129 0)
(1.05722 0.00983616 0)
(1.05627 0.00956545 0)
(1.05508 0.00931401 0)
(1.05365 0.00907972 0)
(1.052 0.008861 0)
(1.05015 0.00865665 0)
(1.04809 0.00846577 0)
(1.04586 0.00828769 0)
(1.04346 0.00812191 0)
(1.04091 0.00796813 0)
(1.03822 0.00782617 0)
(1.03541 0.00769601 0)
(1.03247 0.00757778 0)
(1.02943 0.00747176 0)
(1.0263 0.00737841 0)
(1.02307 0.00729839 0)
(1.01977 0.00723259 0)
(1.01638 0.00718205 0)
(1.01293 0.00714842 0)
(1.0094 0.00713305 0)
(1.0058 0.00713907 0)
(1.00213 0.00716758 0)
(0.998389 0.00722506 0)
(0.994565 0.00731043 0)
(0.990652 0.00743797 0)
(0.986643 0.00759942 0)
(0.982522 0.00782589 0)
(0.978271 0.00809315 0)
(0.973876 0.00846063 0)
(0.969292 0.00888593 0)
(0.964519 0.00944489 0)
(0.959462 0.0101337 0)
(0.954134 0.0109233 0)
(0.948369 0.0120933 0)
(0.942167 0.0133 0)
(1.0026 0.0236315 0)
(1.02878 0.0288855 0)
(1.04375 0.0212521 0)
(1.04716 0.0183332 0)
(1.0485 0.0169266 0)
(1.05031 0.0153711 0)
(1.05199 0.0141395 0)
(1.05324 0.0132913 0)
(1.05424 0.0126283 0)
(1.05508 0.0120603 0)
(1.05578 0.01157 0)
(1.05635 0.011146 0)
(1.05678 0.0107738 0)
(1.05706 0.0104418 0)
(1.05719 0.0101423 0)
(1.05717 0.00986972 0)
(1.05699 0.00961994 0)
(1.05665 0.00938991 0)
(1.05616 0.00917729 0)
(1.0555 0.00898029 0)
(1.05469 0.00879753 0)
(1.05373 0.00862798 0)
(1.05262 0.00847085 0)
(1.05137 0.00832558 0)
(1.04998 0.00819178 0)
(1.04846 0.00806924 0)
(1.04682 0.00795796 0)
(1.04506 0.00785807 0)
(1.04319 0.00776989 0)
(1.04121 0.00769395 0)
(1.03912 0.00763098 0)
(1.03694 0.007582 0)
(1.03467 0.00754815 0)
(1.0323 0.00753124 0)
(1.02984 0.00753277 0)
(1.02729 0.00755608 0)
(1.02465 0.00760251 0)
(1.02192 0.00767869 0)
(1.0191 0.00778417 0)
(1.01616 0.00793283 0)
(1.01312 0.00811845 0)
(1.00996 0.00836953 0)
(1.00667 0.00866817 0)
(1.00323 0.00906487 0)
(0.999615 0.00953321 0)
(0.995811 0.0101298 0)
(0.991769 0.0108747 0)
(0.987465 0.0117336 0)
(0.982812 0.0129589 0)
(0.977787 0.0143268 0)
(1.0023 0.0217115 0)
(1.02632 0.0277797 0)
(1.04091 0.0207539 0)
(1.04456 0.0179251 0)
(1.04591 0.0166804 0)
(1.0477 0.0152302 0)
(1.04936 0.0140217 0)
(1.05062 0.0131845 0)
(1.0516 0.0125373 0)
(1.05244 0.0119829 0)
(1.05318 0.0115032 0)
(1.05382 0.0110889 0)
(1.05436 0.0107266 0)
(1.05481 0.0104051 0)
(1.05516 0.0101166 0)
(1.05543 0.00985575 0)
(1.05561 0.0096184 0)
(1.05568 0.00940149 0)
(1.05566 0.00920261 0)
(1.05554 0.0090199 0)
(1.05532 0.00885191 0)
(1.055 0.00869749 0)
(1.05457 0.00855579 0)
(1.05404 0.00842615 0)
(1.0534 0.00830813 0)
(1.05266 0.00820146 0)
(1.05183 0.00810606 0)
(1.05089 0.00802206 0)
(1.04985 0.00794977 0)
(1.04872 0.00788972 0)
(1.0475 0.00784267 0)
(1.04618 0.00780969 0)
(1.04477 0.007792 0)
(1.04327 0.0077915 0)
(1.04168 0.00780979 0)
(1.04 0.00785033 0)
(1.03822 0.0079147 0)
(1.03635 0.00800954 0)
(1.03438 0.00813505 0)
(1.0323 0.00830451 0)
(1.03012 0.00851377 0)
(1.02782 0.00878853 0)
(1.02539 0.00911693 0)
(1.02282 0.00954115 0)
(1.02009 0.0100485 0)
(1.01719 0.0106804 0)
(1.01409 0.0114731 0)
(1.01076 0.0123952 0)
(1.00715 0.0136659 0)
(1.00325 0.0151574 0)
(1.00203 0.0199007 0)
(1.024 0.0266609 0)
(1.03818 0.0202721 0)
(1.04203 0.0175184 0)
(1.04341 0.0164196 0)
(1.04517 0.015082 0)
(1.04684 0.013902 0)
(1.04809 0.013076 0)
(1.04906 0.0124445 0)
(1.04989 0.0119037 0)
(1.05062 0.0114337 0)
(1.05126 0.0110272 0)
(1.05182 0.0106721 0)
(1.05231 0.0103576 0)
(1.05273 0.010076 0)
(1.05309 0.00982216 0)
(1.0534 0.00959211 0)
(1.05365 0.00938288 0)
(1.05383 0.00919214 0)
(1.05395 0.00901806 0)
(1.05402 0.00885922 0)
(1.05401 0.00871447 0)
(1.05394 0.00858292 0)
(1.0538 0.00846389 0)
(1.05359 0.00835691 0)
(1.05331 0.00826168 0)
(1.05296 0.0081781 0)
(1.05253 0.00810624 0)
(1.05203 0.00804642 0)
(1.05145 0.00799916 0)
(1.0508 0.00796522 0)
(1.05007 0.00794573 0)
(1.04926 0.00794189 0)
(1.04838 0.00795573 0)
(1.04741 0.00798888 0)
(1.04637 0.0080449 0)
(1.04523 0.00812554 0)
(1.04402 0.00823739 0)
(1.04271 0.00838128 0)
(1.0413 0.00856977 0)
(1.0398 0.0088007 0)
(1.03818 0.00909699 0)
(1.03646 0.00945222 0)
(1.0346 0.00990126 0)
(1.03262 0.0104424 0)
(1.03047 0.0111062 0)
(1.02817 0.0119382 0)
(1.02567 0.0129154 0)
(1.02296 0.0142217 0)
(1.02004 0.0158029 0)
(1.00179 0.0181995 0)
(1.02182 0.025533 0)
(1.03554 0.0198027 0)
(1.0396 0.0171149 0)
(1.04101 0.0161449 0)
(1.04273 0.0149257 0)
(1.04439 0.0137801 0)
(1.04565 0.0129657 0)
(1.04661 0.0123499 0)
(1.04742 0.0118233 0)
(1.04814 0.0113632 0)
(1.04877 0.0109642 0)
(1.04932 0.0106157 0)
(1.04981 0.010307 0)
(1.05024 0.0100308 0)
(1.05063 0.00978192 0)
(1.05097 0.00955674 0)
(1.05126 0.00935239 0)
(1.05152 0.00916667 0)
(1.05174 0.00899785 0)
(1.05191 0.00884459 0)
(1.05204 0.00870579 0)
(1.05214 0.0085806 0)
(1.05218 0.00846838 0)
(1.05218 0.00836864 0)
(1.05213 0.00828111 0)
(1.05203 0.00820567 0)
(1.05188 0.0081424 0)
(1.05168 0.00809161 0)
(1.05142 0.00805385 0)
(1.05111 0.00802987 0)
(1.05073 0.00802083 0)
(1.0503 0.00802799 0)
(1.0498 0.00805339 0)
(1.04924 0.00809876 0)
(1.04861 0.00816768 0)
(1.04791 0.00826209 0)
(1.04713 0.00838847 0)
(1.04628 0.00854823 0)
(1.04535 0.00875316 0)
(1.04433 0.00900297 0)
(1.04321 0.00931792 0)
(1.042 0.0096963 0)
(1.04068 0.0101669 0)
(1.03925 0.0107363 0)
(1.03769 0.011428 0)
(1.036 0.0122911 0)
(1.03416 0.0133142 0)
(1.03216 0.0146469 0)
(1.03003 0.0162886 0)
(1.00157 0.0166074 0)
(1.01977 0.0243998 0)
(1.03301 0.0193417 0)
(1.03724 0.0167164 0)
(1.0387 0.0158577 0)
(1.04038 0.0147606 0)
(1.04204 0.0136556 0)
(1.0433 0.0128534 0)
(1.04425 0.0122533 0)
(1.04505 0.0117415 0)
(1.04575 0.011292 0)
(1.04637 0.0109008 0)
(1.04691 0.0105588 0)
(1.04739 0.0102558 0)
(1.04781 0.00998445 0)
(1.04819 0.00973995 0)
(1.04853 0.00951874 0)
(1.04884 0.00931814 0)
(1.04911 0.00913606 0)
(1.04935 0.00897089 0)
(1.04956 0.00882138 0)
(1.04974 0.00868652 0)
(1.04989 0.00856552 0)
(1.05 0.00845778 0)
(1.05009 0.00836287 0)
(1.05014 0.00828052 0)
(1.05016 0.00821065 0)
(1.05014 0.00815336 0)
(1.05008 0.00810898 0)
(1.04998 0.00807809 0)
(1.04984 0.00806145 0)
(1.04966 0.00806027 0)
(1.04943 0.00807584 0)
(1.04915 0.00811026 0)
(1.04881 0.00816532 0)
(1.04843 0.00824461 0)
(1.04799 0.00835029 0)
(1.04748 0.00848862 0)
(1.04692 0.00866166 0)
(1.04628 0.00888036 0)
(1.04557 0.00914612 0)
(1.04479 0.00947683 0)
(1.04392 0.00987465 0)
(1.04296 0.0103636 0)
(1.04192 0.010956 0)
(1.04076 0.0116714 0)
(1.03951 0.0125585 0)
(1.03814 0.0136182 0)
(1.03666 0.0149692 0)
(1.0351 0.0166474 0)
(1.00137 0.0151236 0)
(1.01786 0.0232655 0)
(1.03058 0.0188852 0)
(1.03498 0.0163244 0)
(1.03648 0.0155594 0)
(1.03812 0.0145861 0)
(1.03977 0.0135281 0)
(1.04103 0.0127393 0)
(1.04198 0.0121546 0)
(1.04277 0.0116583 0)
(1.04346 0.0112199 0)
(1.04407 0.0108368 0)
(1.04459 0.0105015 0)
(1.04506 0.0102043 0)
(1.04547 0.00993795 0)
(1.04584 0.00969774 0)
(1.04617 0.00948031 0)
(1.04647 0.00928311 0)
(1.04674 0.00910421 0)
(1.04698 0.00894209 0)
(1.04719 0.00879559 0)
(1.04738 0.00866378 0)
(1.04754 0.00854595 0)
(1.04768 0.00844155 0)
(1.04779 0.00835019 0)
(1.04788 0.00827166 0)
(1.04794 0.00820589 0)
(1.04797 0.00815304 0)
(1.04797 0.00811344 0)
(1.04794 0.00808771 0)
(1.04788 0.00807667 0)
(1.04778 0.00808155 0)
(1.04765 0.00810369 0)
(1.04747 0.00814523 0)
(1.04726 0.00820806 0)
(1.047 0.00829576 0)
(1.0467 0.00841068 0)
(1.04634 0.00855889 0)
(1.04593 0.00874302 0)
(1.04547 0.00897323 0)
(1.04494 0.00925242 0)
(1.04435 0.00959644 0)
(1.04369 0.0100105 0)
(1.04296 0.010515 0)
(1.04215 0.0111259 0)
(1.04126 0.0118611 0)
(1.04029 0.0127665 0)
(1.03924 0.0138543 0)
(1.03811 0.0152168 0)
(1.03695 0.0169128 0)
(1.00119 0.0137465 0)
(1.01609 0.0221341 0)
(1.02825 0.0184296 0)
(1.0328 0.01594 0)
(1.03435 0.0152516 0)
(1.03596 0.0144016 0)
(1.03759 0.0133972 0)
(1.03886 0.0126232 0)
(1.0398 0.0120537 0)
(1.04058 0.0115734 0)
(1.04126 0.0111469 0)
(1.04185 0.0107723 0)
(1.04237 0.0104439 0)
(1.04283 0.0101527 0)
(1.04323 0.00989143 0)
(1.04358 0.0096556 0)
(1.0439 0.00944199 0)
(1.04419 0.00924819 0)
(1.04445 0.00907238 0)
(1.04468 0.00891315 0)
(1.04489 0.00876944 0)
(1.04507 0.0086404 0)
(1.04523 0.00852537 0)
(1.04537 0.00842386 0)
(1.04548 0.00833553 0)
(1.04558 0.0082602 0)
(1.04564 0.00819785 0)
(1.04569 0.00814867 0)
(1.04571 0.00811302 0)
(1.0457 0.00809156 0)
(1.04567 0.00808514 0)
(1.0456 0.00809506 0)
(1.04551 0.00812268 0)
(1.04538 0.00817021 0)
(1.04522 0.0082396 0)
(1.04502 0.00833443 0)
(1.04478 0.00845725 0)
(1.0445 0.00861392 0)
(1.04417 0.0088076 0)
(1.04379 0.00904774 0)
(1.04336 0.00933848 0)
(1.04287 0.00969399 0)
(1.04233 0.0101217 0)
(1.04173 0.0106397 0)
(1.04106 0.0112656 0)
(1.04032 0.0120176 0)
(1.03953 0.0129368 0)
(1.03867 0.0140455 0)
(1.03777 0.0154141 0)
(1.03688 0.0171139 0)
(1.00104 0.0124738 0)
(1.01445 0.0210099 0)
(1.02604 0.0179714 0)
(1.03071 0.015564 0)
(1.03232 0.0149364 0)
(1.03388 0.0142067 0)
(1.0355 0.0132624 0)
(1.03677 0.0125053 0)
(1.03772 0.0119506 0)
(1.03849 0.0114867 0)
(1.03915 0.0110727 0)
(1.03974 0.0107071 0)
(1.04024 0.0103859 0)
(1.04069 0.0101008 0)
(1.04108 0.00984485 0)
(1.04142 0.00961355 0)
(1.04173 0.00940386 0)
(1.04201 0.00921353 0)
(1.04226 0.00904087 0)
(1.04248 0.00888457 0)
(1.04268 0.00874364 0)
(1.04285 0.00861732 0)
(1.043 0.00850501 0)
(1.04313 0.00840627 0)
(1.04324 0.00832081 0)
(1.04333 0.00824849 0)
(1.0434 0.00818932 0)
(1.04344 0.00814351 0)
(1.04346 0.00811148 0)
(1.04346 0.00809391 0)
(1.04343 0.00809168 0)
(1.04338 0.00810614 0)
(1.04329 0.00813873 0)
(1.04318 0.00819165 0)
(1.04304 0.00826697 0)
(1.04286 0.00836823 0)
(1.04264 0.00849818 0)
(1.04239 0.0086625 0)
(1.0421 0.00886478 0)
(1.04176 0.00911388 0)
(1.04138 0.00941492 0)
(1.04095 0.0097808 0)
(1.04046 0.0102205 0)
(1.03993 0.0107504 0)
(1.03934 0.011389 0)
(1.03869 0.0121551 0)
(1.038 0.0130852 0)
(1.03727 0.0142087 0)
(1.03651 0.0155792 0)
(1.03579 0.0172729 0)
(1.0009 0.0113026 0)
(1.01294 0.0198973 0)
(1.02394 0.0175074 0)
(1.02871 0.015197 0)
(1.03039 0.0146158 0)
(1.03191 0.0140012 0)
(1.0335 0.0131231 0)
(1.03477 0.0123856 0)
(1.03572 0.0118454 0)
(1.03648 0.011398 0)
(1.03714 0.0109973 0)
(1.03771 0.0106411 0)
(1.03821 0.0103273 0)
(1.03864 0.0100486 0)
(1.03902 0.00979815 0)
(1.03936 0.00957154 0)
(1.03966 0.0093659 0)
(1.03992 0.00917915 0)
(1.04016 0.00900971 0)
(1.04037 0.00885641 0)
(1.04056 0.00871832 0)
(1.04073 0.00859477 0)
(1.04087 0.00848521 0)
(1.041 0.00838926 0)
(1.0411 0.00830667 0)
(1.04118 0.00823734 0)
(1.04124 0.00818131 0)
(1.04128 0.00813882 0)
(1.04129 0.00811031 0)
(1.04129 0.00809651 0)
(1.04126 0.00809835 0)
(1.0412 0.00811719 0)
(1.04112 0.00815453 0)
(1.04101 0.00821261 0)
(1.04087 0.00829359 0)
(1.04069 0.00840096 0)
(1.04049 0.00853769 0)
(1.04025 0.00870923 0)
(1.03997 0.0089196 0)
(1.03965 0.00917712 0)
(1.03929 0.00948771 0)
(1.03888 0.00986324 0)
(1.03843 0.0103137 0)
(1.03793 0.0108545 0)
(1.03738 0.0115041 0)
(1.03679 0.0122824 0)
(1.03616 0.013221 0)
(1.03551 0.0143548 0)
(1.03485 0.0157239 0)
(1.03424 0.0174045 0)
(1.00078 0.0102294 0)
(1.01156 0.0188007 0)
(1.02196 0.017035 0)
(1.02679 0.014839 0)
(1.02854 0.0142919 0)
(1.03002 0.0137851 0)
(1.03159 0.0129787 0)
(1.03286 0.012264 0)
(1.03381 0.0117382 0)
(1.03456 0.0113074 0)
(1.03521 0.0109205 0)
(1.03578 0.0105742 0)
(1.03626 0.0102682 0)
(1.03669 0.00999608 0)
(1.03706 0.00975128 0)
(1.03739 0.00952951 0)
(1.03768 0.00932805 0)
(1.03794 0.00914499 0)
(1.03816 0.00897889 0)
(1.03837 0.00882866 0)
(1.03855 0.00869349 0)
(1.0387 0.00857277 0)
(1.03884 0.00846603 0)
(1.03896 0.00837294 0)
(1.03905 0.00829328 0)
(1.03912 0.00822698 0)
(1.03918 0.00817412 0)
(1.03921 0.00813498 0)
(1.03922 0.00811002 0)
(1.03921 0.0081 0)
(1.03917 0.00810589 0)
(1.03911 0.00812909 0)
(1.03902 0.00817115 0)
(1.03891 0.00823434 0)
(1.03877 0.00832089 0)
(1.0386 0.00843428 0)
(1.03839 0.00857763 0)
(1.03816 0.00875621 0)
(1.03788 0.0089744 0)
(1.03757 0.00924008 0)
(1.03722 0.00955971 0)
(1.03683 0.00994449 0)
(1.03639 0.0104049 0)
(1.03592 0.010956 0)
(1.0354 0.0116153 0)
(1.03484 0.0124041 0)
(1.03426 0.0133495 0)
(1.03366 0.0144896 0)
(1.03307 0.0158546 0)
(1.03254 0.0175173 0)
(1.00067 0.00925012 0)
(1.0103 0.0177245 0)
(1.02009 0.0165521 0)
(1.02495 0.0144897 0)
(1.02678 0.0139667 0)
(1.02823 0.0135587 0)
(1.02976 0.0128285 0)
(1.03104 0.0121404 0)
(1.03199 0.0116288 0)
(1.03274 0.0112146 0)
(1.03338 0.0108423 0)
(1.03393 0.0105065 0)
(1.03441 0.0102085 0)
(1.03483 0.00994311 0)
(1.03519 0.00970416 0)
(1.03551 0.0094874 0)
(1.03579 0.00929026 0)
(1.03604 0.00911101 0)
(1.03626 0.00894833 0)
(1.03646 0.00880127 0)
(1.03663 0.00866911 0)
(1.03678 0.00855131 0)
(1.03691 0.00844747 0)
(1.03701 0.00835729 0)
(1.0371 0.00828062 0)
(1.03717 0.00821742 0)
(1.03722 0.00816781 0)
(1.03724 0.00813207 0)
(1.03725 0.00811072 0)
(1.03723 0.00810453 0)
(1.03719 0.00811452 0)
(1.03712 0.00814211 0)
(1.03703 0.00818893 0)
(1.03691 0.00825724 0)
(1.03677 0.00834937 0)
(1.0366 0.00846875 0)
(1.03639 0.00861866 0)
(1.03616 0.00880422 0)
(1.03588 0.00903008 0)
(1.03558 0.00930375 0)
(1.03523 0.00963211 0)
(1.03485 0.0100258 0)
(1.03443 0.0104956 0)
(1.03397 0.0110562 0)
(1.03347 0.0117244 0)
(1.03295 0.0125221 0)
(1.0324 0.013473 0)
(1.03184 0.0146162 0)
(1.03131 0.0159745 0)
(1.03085 0.0176157 0)
(1.00058 0.00836018 0)
(1.00915 0.0166731 0)
(1.01833 0.0160568 0)
(1.02321 0.0141486 0)
(1.02511 0.0136422 0)
(1.02653 0.0133226 0)
(1.02803 0.012672 0)
(1.0293 0.0120144 0)
(1.03025 0.0115175 0)
(1.031 0.0111197 0)
(1.03163 0.0107624 0)
(1.03218 0.0104376 0)
(1.03265 0.010148 0)
(1.03306 0.00988963 0)
(1.03341 0.00965672 0)
(1.03372 0.00944514 0)
(1.034 0.00925247 0)
(1.03424 0.00907714 0)
(1.03445 0.008918 0)
(1.03464 0.0087742 0)
(1.03481 0.00864514 0)
(1.03495 0.00853033 0)
(1.03507 0.00842946 0)
(1.03517 0.00834228 0)
(1.03525 0.00826868 0)
(1.03531 0.00820865 0)
(1.03535 0.00816235 0)
(1.03537 0.00813009 0)
(1.03537 0.0081124 0)
(1.03535 0.00811011 0)
(1.0353 0.00812426 0)
(1.03523 0.00815631 0)
(1.03514 0.00820793 0)
(1.03502 0.0082814 0)
(1.03487 0.00837913 0)
(1.0347 0.00850452 0)
(1.03449 0.00866096 0)
(1.03426 0.00885347 0)
(1.03399 0.00908687 0)
(1.03368 0.00936842 0)
(1.03334 0.00970523 0)
(1.03297 0.0101076 0)
(1.03256 0.0105863 0)
(1.03212 0.0111558 0)
(1.03164 0.0118319 0)
(1.03114 0.0126372 0)
(1.03062 0.0135921 0)
(1.03011 0.0147355 0)
(1.02963 0.0160848 0)
(1.02923 0.0177018 0)
(1.0005 0.00755451 0)
(1.00812 0.0156508 0)
(1.01669 0.0155483 0)
(1.02154 0.0138147 0)
(1.02353 0.0133202 0)
(1.02492 0.0130775 0)
(1.02638 0.0125085 0)
(1.02765 0.011886 0)
(1.0286 0.0114042 0)
(1.02934 0.0110225 0)
(1.02997 0.0106807 0)
(1.03051 0.0103676 0)
(1.03097 0.0100867 0)
(1.03138 0.00983555 0)
(1.03172 0.00960888 0)
(1.03203 0.00940266 0)
(1.0323 0.0092146 0)
(1.03253 0.00904332 0)
(1.03274 0.00888782 0)
(1.03292 0.00874739 0)
(1.03308 0.0086215 0)
(1.03321 0.00850978 0)