/*--------------------------------*- C++ -*----------------------------------*\
  =========                 |
  \\      /  F ield         | OpenFOAM: The Open Source CFD Toolbox
   \\    /   O peration     | Website:  https://openfoam.org
    \\  /    A nd           | Version:  7
     \\/     M anipulation  |
\*---------------------------------------------------------------------------*/
FoamFile
{
    version     2.0;
    format      ascii;
    class       volVectorField;
    location    "0.19";
    object      wallShearStress;
}
// * * * * * * * * * * * * * * * * * * * * * * * * * * * * * * * * * * * * * //

dimensions      [0 2 -2 0 0 0 0];

internalField   uniform (0 0 0);

boundaryField
{
    velocityInlet
    {
        type            calculated;
        value           uniform (0 0 0);
    }
    pressureOutlet
    {
        type            calculated;
        value           uniform (0 0 0);
    }
    fixedWalls
    {
        type            calculated;
        value           nonuniform List<vector> 
100
(
(-0.0146753 -0.00754041 0)
(0.0105 -0.00115363 0)
(-0.00173764 0.000750705 0)
(0.00130544 -3.31874e-05 0)
(-0.000796953 9.13316e-05 0)
(-0.000368303 7.52913e-05 0)
(-0.0014721 7.32589e-05 0)
(-0.0018653 0.000140253 0)
(-0.00296799 0.000146578 0)
(-0.00382873 0.000184427 0)
(-0.00462673 0.000154613 0)
(-0.00474438 7.08674e-05 0)
(-0.00353726 -0.000191796 0)
(-0.000203694 -0.000544953 0)
(0.00500563 -0.000904049 0)
(0.010793 -0.00102252 0)
(0.0153162 -0.0007779 0)
(0.0171647 -0.000282198 0)
(0.0158945 0.000239425 0)
(0.0123369 0.000559222 0)
(0.00786388 0.000636134 0)
(0.00358956 0.000550478 0)
(0.000169945 0.000413336 0)
(-0.00235073 0.000302287 0)
(-0.00427099 0.000235745 0)
(-0.00577863 0.000205872 0)
(-0.00768046 0.000143366 0)
(-0.00737812 -0.000138072 0)
(-0.00306874 -0.000524285 0)
(0.000501197 -0.000312293 0)
(0.00123336 -0.000108487 0)
(0.00176705 -0.000106501 0)
(0.00249907 -0.000121447 0)
(0.00326288 -0.000141633 0)
(0.00401976 -0.000130343 0)
(0.00450916 -9.44568e-05 0)
(0.00461998 -3.91657e-05 0)
(0.00429307 2.08148e-05 0)
(0.00357662 7.21601e-05 0)
(0.00257943 0.000107199 0)
(0.00143951 0.000123413 0)
(0.000293882 0.000122425 0)
(-0.000744484 0.000109009 0)
(-0.0016037 8.8513e-05 0)
(-0.00225426 6.61638e-05 0)
(-0.00270279 4.56807e-05 0)
(-0.00297898 2.9111e-05 0)
(-0.00312213 1.6964e-05 0)
(-0.00317344 9.40538e-06 0)
(-0.00316853 4.0363e-06 0)
(-0.00313273 1.0421e-06 0)
(-0.00308209 -6.28478e-07 0)
(-0.00302395 -1.83995e-06 0)
(-0.00296089 -2.95404e-06 0)
(-0.00289517 -3.8209e-06 0)
(-0.00283137 -4.09111e-06 0)
(-0.0027762 -3.52936e-06 0)
(-0.00273719 -2.01013e-06 0)
(-0.00272137 9.14316e-08 0)
(-0.00273416 3.02764e-06 0)
(-0.00278326 7.31947e-06 0)
(-0.00288087 1.39995e-05 0)
(-0.00301748 1.95437e-05 0)
(-0.00311768 1.61347e-05 0)
(-0.00304182 -6.9957e-06 0)
(-0.00266542 -4.35828e-05 0)
(-0.00199564 -7.64331e-05 0)
(-0.00123213 -8.45542e-05 0)
(-0.000700933 -5.58663e-05 0)
(-0.000708305 1.64772e-06 0)
(-0.00133531 6.1411e-05 0)
(-0.00237102 9.78194e-05 0)
(-0.00351536 0.000105559 0)
(-0.00456452 9.96329e-05 0)
(-0.00541464 8.89164e-05 0)
(-0.00594907 6.98375e-05 0)
(-0.00594376 2.33545e-05 0)
(-0.00510456 -6.4512e-05 0)
(-0.00322658 -0.000183025 0)
(-0.000313852 -0.000297493 0)
(0.00281854 -0.000306433 0)
(0.005017 -0.000209409 0)
(0.00562952 -4.84023e-05 0)
(0.00462758 0.000100011 0)
(0.00270766 0.000164851 0)
(0.000642155 0.000164542 0)
(-0.00110565 0.000129979 0)
(-0.00235976 8.66401e-05 0)
(-0.00317287 5.19705e-05 0)
(-0.00368008 2.96428e-05 0)
(-0.00408925 2.44303e-05 0)
(-0.00453289 3.38431e-05 0)
(-0.00525173 6.11156e-05 0)
(-0.00619134 9.65645e-05 0)
(-0.00747927 0.000125479 0)
(-0.00796393 7.57733e-05 0)
(-0.00647034 -9.94535e-05 0)
(-0.00209251 -0.000557207 0)
(0.00712078 -0.000470418 0)
(0.00398649 0.000224874 0)
)
;
    }
    bottomWall
    {
        type            calculated;
        value           nonuniform List<vector> 
800
(
(-0.0353489 0.00214396 0)
(-0.0160272 0.000524807 0)
(-0.0106091 0.000100685 0)
(-0.00845813 3.52287e-05 0)
(-0.0074893 1.98284e-05 0)
(-0.0068566 1.60882e-05 0)
(-0.00635006 1.33224e-05 0)
(-0.00593984 1.08667e-05 0)
(-0.00560595 9.04604e-06 0)
(-0.00532794 7.73082e-06 0)
(-0.00509124 6.73537e-06 0)
(-0.00488639 5.94924e-06 0)
(-0.00470692 5.31228e-06 0)
(-0.00454813 4.78726e-06 0)
(-0.00440642 4.34852e-06 0)
(-0.00427901 3.97713e-06 0)
(-0.00416373 3.6594e-06 0)
(-0.00405884 3.3849e-06 0)
(-0.00396292 3.14573e-06 0)
(-0.00387481 2.93579e-06 0)
(-0.00379356 2.75034e-06 0)
(-0.00371836 2.58546e-06 0)
(-0.00364854 2.43794e-06 0)
(-0.00358351 2.30547e-06 0)
(-0.00352278 2.18588e-06 0)
(-0.00346594 2.07733e-06 0)
(-0.0034126 1.97856e-06 0)
(-0.00336245 1.88844e-06 0)
(-0.0033152 1.80573e-06 0)
(-0.00327061 1.72971e-06 0)
(-0.00322845 1.65969e-06 0)
(-0.00318853 1.59486e-06 0)
(-0.00315067 1.53487e-06 0)
(-0.00311471 1.47909e-06 0)
(-0.00308052 1.42716e-06 0)
(-0.00304797 1.37874e-06 0)
(-0.00301694 1.33356e-06 0)
(-0.00298732 1.29126e-06 0)
(-0.00295903 1.25157e-06 0)
(-0.00293198 1.2143e-06 0)
(-0.00290608 1.17931e-06 0)
(-0.00288127 1.14636e-06 0)
(-0.00285747 1.11536e-06 0)
(-0.00283463 1.08595e-06 0)
(-0.00281269 1.05827e-06 0)
(-0.0027916 1.03197e-06 0)
(-0.00277131 1.00742e-06 0)
(-0.00275178 9.83331e-07 0)
(-0.00273296 9.61691e-07 0)
(-0.00271483 9.3861e-07 0)
(-0.00269968 9.19622e-07 0)
(-0.00268717 9.08966e-07 0)
(-0.00267483 8.95366e-07 0)
(-0.00266267 8.80752e-07 0)
(-0.00265071 8.66966e-07 0)
(-0.00263893 8.53931e-07 0)
(-0.00262732 8.41277e-07 0)
(-0.00261588 8.28861e-07 0)
(-0.00260462 8.16873e-07 0)
(-0.00259351 8.04975e-07 0)
(-0.00258256 7.93325e-07 0)
(-0.00257177 7.82253e-07 0)
(-0.00256113 7.71253e-07 0)
(-0.00255064 7.60326e-07 0)
(-0.0025403 7.49801e-07 0)
(-0.0025301 7.39511e-07 0)
(-0.00252004 7.29452e-07 0)
(-0.00251011 7.19624e-07 0)
(-0.00250031 7.10022e-07 0)
(-0.00249065 7.00648e-07 0)
(-0.00248111 6.9133e-07 0)
(-0.0024717 6.82237e-07 0)
(-0.00246241 6.73363e-07 0)
(-0.00245324 6.64709e-07 0)
(-0.00244419 6.56272e-07 0)
(-0.00243525 6.47887e-07 0)
(-0.00242643 6.39716e-07 0)
(-0.00241771 6.31593e-07 0)
(-0.00240911 6.23849e-07 0)
(-0.00240061 6.16318e-07 0)
(-0.00239221 6.08664e-07 0)
(-0.00238392 6.01219e-07 0)
(-0.00237573 5.93981e-07 0)
(-0.00236763 5.86952e-07 0)
(-0.00235963 5.79961e-07 0)
(-0.00235173 5.73008e-07 0)
(-0.00234392 5.66425e-07 0)
(-0.0023362 5.59881e-07 0)
(-0.00232857 5.5337e-07 0)
(-0.00232102 5.47062e-07 0)
(-0.00231356 5.40785e-07 0)
(-0.00230619 5.3471e-07 0)
(-0.0022989 5.28666e-07 0)
(-0.00229169 5.22653e-07 0)
(-0.00228457 5.17003e-07 0)
(-0.00227751 5.11385e-07 0)
(-0.00227054 5.05627e-07 0)
(-0.00226364 5.00233e-07 0)
(-0.00225682 4.94864e-07 0)
(-0.00225007 4.89525e-07 0)
(-0.00224339 4.84378e-07 0)
(-0.00223678 4.79258e-07 0)
(-0.00223025 4.74163e-07 0)
(-0.00222378 4.69261e-07 0)
(-0.00221738 4.64382e-07 0)
(-0.00221104 4.59696e-07 0)
(-0.00220477 4.55031e-07 0)
(-0.00219856 4.50392e-07 0)
(-0.00219241 4.45773e-07 0)
(-0.00218634 4.41346e-07 0)
(-0.00218031 4.37104e-07 0)
(-0.00217435 4.3272e-07 0)
(-0.00216844 4.28522e-07 0)
(-0.00216259 4.24345e-07 0)
(-0.0021568 4.20188e-07 0)
(-0.00215107 4.16218e-07 0)
(-0.00214539 4.12266e-07 0)
(-0.00213976 4.08335e-07 0)
(-0.00213419 4.04587e-07 0)
(-0.00212866 4.00859e-07 0)
(-0.00212319 3.97147e-07 0)
(-0.00211777 3.93453e-07 0)
(-0.0021124 3.89942e-07 0)
(-0.00210708 3.8645e-07 0)
(-0.00210181 3.82972e-07 0)
(-0.00209658 3.79511e-07 0)
(-0.0020914 3.76065e-07 0)
(-0.00208627 3.72801e-07 0)
(-0.00208118 3.69717e-07 0)
(-0.00207613 3.66485e-07 0)
(-0.00207113 3.63263e-07 0)
(-0.00206617 3.60224e-07 0)
(-0.00206125 3.57029e-07 0)
(-0.00205638 3.54021e-07 0)
(-0.00205155 3.51191e-07 0)
(-0.00204675 3.48377e-07 0)
(-0.002042 3.45575e-07 0)
(-0.00203728 3.42619e-07 0)
(-0.00203261 3.39845e-07 0)
(-0.00202796 3.37246e-07 0)
(-0.00202336 3.34503e-07 0)
(-0.0020188 3.31753e-07 0)
(-0.00201427 3.29211e-07 0)
(-0.00200977 3.26804e-07 0)
(-0.00200531 3.24308e-07 0)
(-0.00200089 3.21728e-07 0)
(-0.00199649 3.1946e-07 0)
(-0.00199213 3.16851e-07 0)
(-0.00198781 3.14637e-07 0)
(-0.00198352 3.12064e-07 0)
(-0.00197991 3.09772e-07 0)
(-0.00197697 3.08785e-07 0)
(-0.00197401 3.07057e-07 0)
(-0.00197105 3.0551e-07 0)
(-0.00196808 3.03949e-07 0)
(-0.00196512 3.02509e-07 0)
(-0.00196213 3.01012e-07 0)
(-0.00195915 2.99326e-07 0)
(-0.00195616 2.97863e-07 0)
(-0.00195317 2.96188e-07 0)
(-0.00195018 2.94734e-07 0)
(-0.00194717 2.9353e-07 0)
(-0.00194416 2.91843e-07 0)
(-0.00194114 2.90233e-07 0)
(-0.00193812 2.88798e-07 0)
(-0.0019351 2.8739e-07 0)
(-0.00193206 2.8597e-07 0)
(-0.00192902 2.84577e-07 0)
(-0.00192598 2.8297e-07 0)
(-0.00192293 2.81582e-07 0)
(-0.00191988 2.80192e-07 0)
(-0.00191682 2.78612e-07 0)
(-0.00191375 2.77228e-07 0)
(-0.00191068 2.75887e-07 0)
(-0.0019076 2.74516e-07 0)
(-0.00190452 2.73172e-07 0)
(-0.00190143 2.71824e-07 0)
(-0.00189833 2.70293e-07 0)
(-0.00189524 2.6875e-07 0)
(-0.00189214 2.67628e-07 0)
(-0.00188902 2.66302e-07 0)
(-0.0018859 2.64803e-07 0)
(-0.00188278 2.63509e-07 0)
(-0.00187965 2.62017e-07 0)
(-0.00187653 2.60718e-07 0)
(-0.00187338 2.59434e-07 0)
(-0.00187024 2.58134e-07 0)
(-0.00186709 2.56875e-07 0)
(-0.00186394 2.55392e-07 0)
(-0.00186078 2.54154e-07 0)
(-0.00185761 2.52877e-07 0)
(-0.00185444 2.51633e-07 0)
(-0.00185126 2.50197e-07 0)
(-0.00184808 2.48952e-07 0)
(-0.00184488 2.47707e-07 0)
(-0.00184169 2.46313e-07 0)
(-0.00183849 2.45239e-07 0)
(-0.00183528 2.43851e-07 0)
(-0.00183208 2.42437e-07 0)
(-0.00182886 2.41416e-07 0)
(-0.00182564 2.40049e-07 0)
(-0.00182241 2.38846e-07 0)
(-0.00181917 2.37637e-07 0)
(-0.00181594 2.36296e-07 0)
(-0.00181269 2.35076e-07 0)
(-0.00180944 2.33761e-07 0)
(-0.00180619 2.32557e-07 0)
(-0.00180293 2.31423e-07 0)
(-0.00179967 2.30085e-07 0)
(-0.0017964 2.28947e-07 0)
(-0.00179313 2.27785e-07 0)
(-0.00178984 2.26668e-07 0)
(-0.00178656 2.25507e-07 0)
(-0.00178326 2.24238e-07 0)
(-0.00177997 2.22904e-07 0)
(-0.00177667 2.22015e-07 0)
(-0.00177335 2.20876e-07 0)
(-0.00177004 2.19489e-07 0)
(-0.00176673 2.18357e-07 0)
(-0.0017634 2.17456e-07 0)
(-0.00176007 2.16219e-07 0)
(-0.00175673 2.15185e-07 0)
(-0.00175339 2.14066e-07 0)
(-0.00175004 2.129e-07 0)
(-0.00174669 2.11786e-07 0)
(-0.00174333 2.10828e-07 0)
(-0.00173997 2.09726e-07 0)
(-0.0017366 2.08663e-07 0)
(-0.00173323 2.07631e-07 0)
(-0.00172984 2.06855e-07 0)
(-0.00172645 2.05545e-07 0)
(-0.00172305 2.04909e-07 0)
(-0.00171966 2.03277e-07 0)
(-0.00171624 2.03248e-07 0)
(-0.00171285 2.01072e-07 0)
(-0.00170939 2.02349e-07 0)
(-0.00170601 1.98251e-07 0)
(-0.00170249 2.02386e-07 0)
(-0.00169917 1.9397e-07 0)
(-0.00169551 2.04853e-07 0)
(-0.00169234 1.86386e-07 0)
(-0.00168844 2.12457e-07 0)
(-0.00168556 1.72231e-07 0)
(-0.00168119 2.30388e-07 0)
(-0.00167889 1.44578e-07 0)
(-0.00167367 2.67321e-07 0)
(-0.00167241 9.20853e-08 0)
(-0.00166585 3.33174e-07 0)
(-0.0016661 8.54406e-09 0)
(-0.00165778 3.67021e-07 0)
(-0.0353486 -0.00214402 0)
(-0.0160249 -0.000524903 0)
(-0.0106042 -0.000100794 0)
(-0.00845034 -3.53331e-05 0)
(-0.00747851 -1.99352e-05 0)
(-0.00684262 -1.61982e-05 0)
(-0.00633289 -1.34341e-05 0)
(-0.00591946 -1.09803e-05 0)
(-0.00558238 -9.16126e-06 0)
(-0.00530121 -7.84801e-06 0)
(-0.00506134 -6.85502e-06 0)
(-0.0048533 -6.07217e-06 0)
(-0.00467061 -5.43959e-06 0)
(-0.0045085 -4.9199e-06 0)
(-0.00436338 -4.48739e-06 0)
(-0.00423245 -4.12326e-06 0)
(-0.00411352 -3.81385e-06 0)
(-0.0040048 -3.54878e-06 0)
(-0.00390488 -3.32006e-06 0)
(-0.00381257 -3.12198e-06 0)
(-0.00372689 -2.94988e-06 0)
(-0.00364699 -2.79987e-06 0)
(-0.00357219 -2.66912e-06 0)
(-0.00350186 -2.55556e-06 0)
(-0.00343546 -2.45727e-06 0)
(-0.00337253 -2.37288e-06 0)
(-0.00331265 -2.30143e-06 0)
(-0.00325544 -2.2422e-06 0)
(-0.00320055 -2.19457e-06 0)
(-0.00314766 -2.15833e-06 0)
(-0.00309647 -2.13349e-06 0)
(-0.00304666 -2.12061e-06 0)
(-0.00299799 -2.1192e-06 0)
(-0.00295014 -2.13179e-06 0)
(-0.00290285 -2.15651e-06 0)
(-0.0028558 -2.19882e-06 0)
(-0.00280868 -2.25458e-06 0)
(-0.0027612 -2.33418e-06 0)
(-0.00271287 -2.4283e-06 0)
(-0.00266359 -2.55568e-06 0)
(-0.00261222 -2.70165e-06 0)
(-0.00255974 -2.88581e-06 0)
(-0.0025026 -3.1138e-06 0)
(-0.00244602 -3.3433e-06 0)
(-0.00237798 -3.73672e-06 0)
(-0.00231893 -3.91135e-06 0)
(-0.00222857 -4.74142e-06 0)
(-0.00217684 -4.28975e-06 0)
(-0.00204159 -9.27901e-06 0)
(-0.00190064 0.000129204 0)
(6.57338e-06 -1.74573e-06 0)
(6.57047e-06 -4.8549e-06 0)
(8.53266e-06 -5.05283e-06 0)
(1.36215e-05 -5.33642e-06 0)
(2.2177e-05 -1.00591e-05 0)
(3.14487e-05 -2.26303e-05 0)
(3.76869e-05 -3.75906e-05 0)
(3.31748e-05 -4.1353e-05 0)
(6.29745e-06 -6.49754e-06 0)
(-7.36911e-05 0.000102408 0)
(-0.000205401 0.000329301 0)
(-0.000299847 0.000670635 0)
(-0.000289422 0.00100169 0)
(-0.000226612 0.00123543 0)
(-0.000179308 0.00139981 0)
(-0.000149306 0.00152935 0)
(-0.000123343 0.00163385 0)
(-9.24052e-05 0.00170957 0)
(-5.19733e-05 0.00174608 0)
(-4.24527e-06 0.00173336 0)
(4.68256e-05 0.00167032 0)
(9.8715e-05 0.00155464 0)
(0.000147869 0.00138887 0)
(0.000192697 0.00117748 0)
(0.000231963 0.000926399 0)
(0.000264352 0.000643092 0)
(0.00029125 0.000333879 0)
(0.000307657 5.71642e-06 0)
(0.000319209 -0.0003325 0)
(0.000324058 -0.000675587 0)
(0.000319428 -0.00101091 0)
(0.000308033 -0.00133467 0)
(0.000291934 -0.00164668 0)
(0.000271081 -0.0019396 0)
(0.000246133 -0.00221007 0)
(0.000217651 -0.00245531 0)
(0.000186202 -0.00267305 0)
(0.00015225 -0.00286166 0)
(0.00011634 -0.00301963 0)
(7.91838e-05 -0.0031464 0)
(4.11183e-05 -0.0032415 0)
(3.1788e-06 -0.0033048 0)
(-3.43015e-05 -0.00333836 0)
(-7.2075e-05 -0.00334113 0)
(-0.000108273 -0.00331398 0)
(-0.000140522 -0.00326058 0)
(-0.000168184 -0.00318408 0)
(-0.000191226 -0.0030877 0)
(-0.000209756 -0.00297479 0)
(-0.000224008 -0.00284854 0)
(-0.000234418 -0.00271193 0)
(-0.000241649 -0.00256759 0)
(-0.000246515 -0.00241769 0)
(-0.000249895 -0.00226398 0)
(-0.000252569 -0.00210769 0)
(-0.000255101 -0.00194957 0)
(-0.00025795 -0.00179005 0)
(-0.000261493 -0.0016292 0)
(-0.000265934 -0.00146679 0)
(-0.000271076 -0.00130224 0)
(-0.000275899 -0.00113482 0)
(-0.000278043 -0.000963875 0)
(-0.00027283 -0.000788774 0)
(-0.000253535 -0.000611735 0)
(-0.000214348 -0.000439348 0)
(-0.000155548 -0.000281913 0)
(-8.54251e-05 -0.000148613 0)
(-1.56363e-05 -4.34399e-05 0)
(4.46144e-05 3.43255e-05 0)
(9.05699e-05 8.80507e-05 0)
(0.000118365 0.000121588 0)
(0.00012728 0.000141467 0)
(0.000119701 0.000152896 0)
(9.95076e-05 0.000160689 0)
(7.16133e-05 0.000168176 0)
(4.0886e-05 0.000177338 0)
(1.13345e-05 0.000189625 0)
(-1.46018e-05 0.000205145 0)
(-3.54697e-05 0.0002242 0)
(-5.08792e-05 0.000247157 0)
(-6.11219e-05 0.000273565 0)
(-6.68321e-05 0.000302682 0)
(-6.90589e-05 0.000333636 0)
(-6.8782e-05 0.000365474 0)
(-6.6784e-05 0.000396925 0)
(-6.33822e-05 0.000426308 0)
(-5.86345e-05 0.000452085 0)
(-5.25192e-05 0.000473627 0)
(-4.51425e-05 0.000490764 0)
(-3.67337e-05 0.000503595 0)
(-2.76183e-05 0.000512086 0)
(-1.81112e-05 0.000516117 0)
(-8.51497e-06 0.000515511 0)
(7.67501e-07 0.000514065 0)
(9.79304e-06 0.000508671 0)
(1.86076e-05 0.00049896 0)
(2.70622e-05 0.000485123 0)
(3.50267e-05 0.000467482 0)
(4.23864e-05 0.000446412 0)
(4.90366e-05 0.000422352 0)
(5.49353e-05 0.000395736 0)
(6.00116e-05 0.000366994 0)
(6.42271e-05 0.000336567 0)
(6.75387e-05 0.000304887 0)
(6.99384e-05 0.00027241 0)
(7.1493e-05 0.00023954 0)
(7.22641e-05 0.000206621 0)
(7.23354e-05 0.000173962 0)
(7.18103e-05 0.000141828 0)
(7.08135e-05 0.00011044 0)
(6.94832e-05 7.9965e-05 0)
(6.79678e-05 5.05271e-05 0)
(6.64052e-05 2.21932e-05 0)
(6.49204e-05 -5.00729e-06 0)
(6.36094e-05 -3.10962e-05 0)
(6.25189e-05 -5.61304e-05 0)
(6.16486e-05 -8.01632e-05 0)
(6.09768e-05 -0.00010325 0)
(6.0461e-05 -0.000125439 0)
(6.00628e-05 -0.000146766 0)
(5.9769e-05 -0.000167289 0)
(5.95803e-05 -0.000187064 0)
(5.95077e-05 -0.000206159 0)
(5.95662e-05 -0.000224686 0)
(5.97506e-05 -0.000242772 0)
(6.00184e-05 -0.000260542 0)
(6.0285e-05 -0.000278096 0)
(6.043e-05 -0.000295504 0)
(6.03038e-05 -0.000312799 0)
(5.97317e-05 -0.000329981 0)
(5.85053e-05 -0.000346994 0)
(5.63902e-05 -0.000363675 0)
(5.31756e-05 -0.000379698 0)
(4.87588e-05 -0.000394557 0)
(4.32285e-05 -0.000407615 0)
(3.68949e-05 -0.000418258 0)
(3.02026e-05 -0.00042608 0)
(2.35154e-05 -0.000430904 0)
(1.71185e-05 -0.000432801 0)
(1.09444e-05 -0.000432094 0)
(4.47309e-06 -0.000429056 0)
(-3.00803e-06 -0.000423601 0)
(-1.19822e-05 -0.000415234 0)
(-2.2503e-05 -0.000403397 0)
(-3.41035e-05 -0.000387756 0)
(-4.59628e-05 -0.000368422 0)
(-5.7177e-05 -0.00034595 0)
(-6.6976e-05 -0.000321191 0)
(-7.48508e-05 -0.000295101 0)
(-8.05695e-05 -0.000268573 0)
(-8.41258e-05 -0.000242363 0)
(-8.56706e-05 -0.000217054 0)
(-8.5439e-05 -0.000193066 0)
(-8.37051e-05 -0.000170691 0)
(-8.07471e-05 -0.000150111 0)
(-7.68287e-05 -0.000131425 0)
(-7.21886e-05 -0.000114671 0)
(-6.70354e-05 -9.9833e-05 0)
(-6.15422e-05 -8.68578e-05 0)
(-5.58475e-05 -7.56713e-05 0)
(-5.0061e-05 -6.6188e-05 0)
(-4.42673e-05 -5.83121e-05 0)
(-3.85295e-05 -5.19433e-05 0)
(-3.28952e-05 -4.6974e-05 0)
(-2.73945e-05 -4.32813e-05 0)
(-2.2035e-05 -4.07521e-05 0)
(-1.68295e-05 -3.93031e-05 0)
(-1.17791e-05 -3.88608e-05 0)
(-6.87311e-06 -3.93743e-05 0)
(-2.12885e-06 -4.07979e-05 0)
(2.43741e-06 -4.30664e-05 0)
(6.82361e-06 -4.61192e-05 0)
(1.10167e-05 -4.98991e-05 0)
(1.49971e-05 -5.43504e-05 0)
(1.87419e-05 -5.94176e-05 0)
(2.22251e-05 -6.50448e-05 0)
(2.54178e-05 -7.11754e-05 0)
(2.82863e-05 -7.77454e-05 0)
(3.0798e-05 -8.46791e-05 0)
(3.29443e-05 -9.19509e-05 0)
(3.46798e-05 -9.94233e-05 0)
(3.5984e-05 -0.000106985 0)
(3.68511e-05 -0.000114512 0)
(3.72886e-05 -0.000121866 0)
(3.73323e-05 -0.000128897 0)
(3.70457e-05 -0.000135455 0)
(3.65153e-05 -0.000141397 0)
(3.58599e-05 -0.000146614 0)
(3.52057e-05 -0.000151071 0)
(3.4647e-05 -0.00015485 0)
(3.41911e-05 -0.000158272 0)
(3.3683e-05 -0.000162318 0)
(3.23801e-05 -0.000168198 0)
(2.86563e-05 -0.000178462 0)
(1.93645e-05 -0.000197508 0)
(-1.34584e-06 -0.000232961 0)
(-4.46253e-05 -0.000297803 0)
(-0.000130666 -0.000409511 0)
(-0.000281749 -0.00058464 0)
(-0.000502689 -0.000828486 0)
(2.51149e-06 -4.69881e-06 0)
(3.81816e-06 3.16304e-06 0)
(-6.72899e-06 9.30276e-06 0)
(-2.08842e-05 1.2336e-05 0)
(-3.6746e-05 1.34607e-05 0)
(-5.25521e-05 1.37369e-05 0)
(-6.85058e-05 1.42413e-05 0)
(-8.528e-05 1.52638e-05 0)
(-0.000103552 1.64363e-05 0)
(-0.00012335 1.69026e-05 0)
(-0.000143701 1.5706e-05 0)
(-0.000162488 1.24303e-05 0)
(-0.000177011 8.03188e-06 0)
(-0.000185638 4.75964e-06 0)
(-0.000189391 4.0809e-06 0)
(-0.000191014 4.45497e-06 0)
(-0.000191068 2.28055e-06 0)
(-0.000186476 -4.86863e-06 0)
(-0.00017348 -1.63557e-05 0)
(-0.000151867 -2.84709e-05 0)
(-0.000125876 -3.98288e-05 0)
(-9.60032e-05 -5.53458e-05 0)
(-5.47059e-05 -8.0736e-05 0)
(1.19036e-05 -0.000115077 0)
(0.000107791 -0.000144985 0)
(0.000230883 -0.000158174 0)
(0.000371802 -0.00014535 0)
(0.00051145 -0.000142473 0)
(0.000650332 -0.000187764 0)
(0.000801894 -0.000231634 0)
(0.000928039 -0.000149828 0)
(0.000939633 0.000215571 0)
(0.000776446 0.00078782 0)
(0.000458458 0.000903808 0)
(0.000430339 -9.98677e-05 0)
(0.00129287 -0.00125265 0)
(0.00250463 -0.0010906 0)
(0.00292811 -0.000637571 0)
(0.00323809 -0.000643808 0)
(0.00363538 -0.00044588 0)
(0.00378966 -0.00031976 0)
(0.00395513 -0.000255704 0)
(0.00404592 -0.00013654 0)
(0.00406419 -9.01154e-05 0)
(0.0040726 -3.3798e-05 0)
(0.00402968 8.49136e-06 0)
(0.00397375 3.93978e-05 0)
(0.00389032 7.44566e-05 0)
(0.00378934 9.14835e-05 0)
(0.0036799 0.000112048 0)
(0.00355307 0.000132972 0)
(0.00341477 0.000147891 0)
(0.00326586 0.000165347 0)
(0.00310193 0.000185829 0)
(0.00292066 0.000208959 0)
(0.0027186 0.000236509 0)
(0.00249147 0.000268293 0)
(0.0022364 0.000303048 0)
(0.00195212 0.000338929 0)
(0.0016394 0.000373405 0)
(0.00130955 0.00040638 0)
(0.000958982 0.000435611 0)
(0.000580063 0.000455064 0)
(0.000188976 0.000461148 0)
(-0.000198938 0.000473984 0)
(-0.000593639 0.000484125 0)
(-0.000994196 0.00049471 0)
(-0.00140348 0.000507017 0)
(-0.0018232 0.000523286 0)
(-0.00225819 0.000543763 0)
(-0.00271105 0.000566416 0)
(-0.00318302 0.000588748 0)
(-0.003673 0.000605693 0)
(-0.00417498 0.000610135 0)
(-0.00467685 0.000593793 0)
(-0.00515894 0.000545831 0)
(-0.0055931 0.000458764 0)
(-0.00594863 0.000325464 0)
(-0.00618898 0.000147638 0)
(-0.00629405 -7.94681e-05 0)
(-0.00622565 -0.000358505 0)
(-0.00598372 -0.000684164 0)
(-0.00550278 -0.00105414 0)
(-0.00468758 -0.00145159 0)
(-0.00360309 -0.00180847 0)
(-0.00191429 -0.0020995 0)
(6.83374e-05 -0.00100768 0)
(0.000225618 0.000688247 0)
(-0.000156706 0.000310938 0)
(-6.59112e-05 -0.000169207 0)
(0.000348404 -0.000275494 0)
(0.00062612 -0.000337964 0)
(0.000902694 -0.000240021 0)
(0.000999524 -9.98177e-05 0)
(0.000989993 1.79704e-05 0)
(0.00090171 0.00012603 0)
(0.000734639 0.000225241 0)
(0.000473273 0.000314885 0)
(0.000109795 0.000289925 0)
(-8.28772e-05 4.24576e-05 0)
(-3.80702e-05 2.50475e-05 0)
(6.29267e-05 0.000124607 0)
(0.000249165 0.000412824 0)
(0.00038971 0.000870539 0)
(0.000385679 0.00135899 0)
(0.000283342 0.00174667 0)
(0.000170035 0.00199496 0)
(8.23406e-05 0.00213 0)
(1.56796e-05 0.00216889 0)
(-3.47106e-05 0.0021295 0)
(-7.27547e-05 0.00203347 0)
(-0.000102394 0.0018959 0)
(-0.000123308 0.0017293 0)
(-0.000136847 0.00154283 0)
(-0.000155492 0.00133352 0)
(-0.000202632 0.00107772 0)
(-0.000286527 0.000735954 0)
(-0.000377134 0.000284391 0)
(-0.00041744 -0.000232075 0)
(-0.000405519 -0.000731139 0)
(-0.000362658 -0.00119046 0)
(-0.000281936 -0.00159032 0)
(-0.000154422 -0.00189409 0)
(1.49719e-05 -0.00205646 0)
(0.00020412 -0.00204567 0)
(0.000383577 -0.00184966 0)
(0.000515052 -0.00148737 0)
(0.000546775 -0.00100965 0)
(0.00047158 -0.000534684 0)
(0.000335144 -0.000152962 0)
(0.000199773 0.000120698 0)
(9.30639e-05 0.000321749 0)
(3.45403e-05 0.000458281 0)
(4.28697e-05 0.000500099 0)
(6.89142e-05 0.000501804 0)
(6.69458e-05 0.000437124 0)
(6.81325e-05 0.000381015 0)
(-2.99497e-05 0.000399467 0)
(-0.0002547 0.000375335 0)
(-0.000398895 0.000236786 0)
(-0.000390277 8.0984e-05 0)
(-0.000285335 -1.60467e-05 0)
(-0.000120901 -2.7648e-05 0)
(6.97437e-05 4.81385e-05 0)
(0.000242018 0.000201514 0)
(0.00036711 0.00037369 0)
(0.000422429 0.000501578 0)
(0.000314175 0.000559461 0)
(1.74188e-05 0.000604593 0)
(-0.00044928 0.000696067 0)
(-0.000948202 0.000733413 0)
(-0.00105028 0.000630508 0)
(-0.000463219 0.000559447 0)
(0.000740549 0.000882847 0)
(0.00189044 0.00201337 0)
(0.00174109 0.00346073 0)
(0.000822906 0.00403403 0)
(0.000629954 0.00410749 0)
(0.000624108 0.00443383 0)
(0.000361048 0.00467822 0)
(0.000280461 0.00474615 0)
(0.000233837 0.00486138 0)
(0.000131064 0.00492219 0)
(0.000100608 0.00493424 0)
(6.34481e-05 0.00495361 0)
(2.37675e-05 0.00494169 0)
(8.38384e-06 0.00491877 0)
(-1.4069e-05 0.00489221 0)
(-3.0787e-05 0.00485146 0)
(-4.18378e-05 0.00480717 0)
(-5.49851e-05 0.00475732 0)
(-6.43986e-05 0.00470153 0)
(-7.29815e-05 0.00464302 0)
(-8.14808e-05 0.00458063 0)
(-8.84388e-05 0.00451524 0)
(-9.52035e-05 0.00444766 0)
(-0.000101459 0.00437769 0)
(-0.000107007 0.00430598 0)
(-0.000112216 0.00423283 0)
(-0.000116826 0.00415846 0)
(-0.00012082 0.00408333 0)
(-0.000124221 0.00400777 0)
(-0.000126884 0.00393214 0)
(-0.000128777 0.00385689 0)
(-0.000129854 0.00378241 0)
(-0.000130052 0.00370913 0)
(-0.000129351 0.00363746 0)
(-0.000127742 0.00356783 0)
(-0.000125238 0.00350059 0)
(-0.000121864 0.0034361 0)
(-0.000117662 0.00337468 0)
(-0.000112704 0.00331657 0)
(-0.000107064 0.00326197 0)
(-0.000100813 0.00321105 0)
(-9.40535e-05 0.00316393 0)
(-8.68761e-05 0.00312062 0)
(-7.93602e-05 0.00308116 0)
(-7.15838e-05 0.00304551 0)
(-6.36229e-05 0.00301363 0)
(-5.55487e-05 0.00298542 0)
(-4.74017e-05 0.00296079 0)
(-3.92234e-05 0.00293963 0)
(-3.10476e-05 0.00292181 0)
(-2.28868e-05 0.00290723 0)
(-1.47545e-05 0.00289576 0)
(-6.65819e-06 0.00288727 0)
(1.40727e-06 0.00288165 0)
(9.47893e-06 0.00287879 0)
(1.74928e-05 0.0028786 0)
(2.54431e-05 0.00288082 0)
(3.33896e-05 0.00288528 0)
(4.13344e-05 0.00289189 0)
(4.91682e-05 0.00290052 0)
(5.67808e-05 0.00291099 0)
(6.40431e-05 0.00292309 0)
(7.07966e-05 0.00293659 0)
(7.68321e-05 0.00295124 0)
(8.19343e-05 0.00296669 0)
(8.59045e-05 0.0029826 0)
(8.85528e-05 0.00299856 0)
(8.97312e-05 0.00301414 0)
(8.93401e-05 0.00302892 0)
(8.73275e-05 0.00304248 0)
(8.36734e-05 0.00305441 0)
(7.84323e-05 0.00306432 0)
(7.17132e-05 0.00307186 0)
(6.3648e-05 0.00307673 0)
(5.44892e-05 0.00307865 0)
(4.4487e-05 0.00307759 0)
(3.37574e-05 0.0030735 0)
(2.24578e-05 0.0030663 0)
(1.07601e-05 0.003056 0)
(-1.19249e-06 0.00304261 0)
(-1.32829e-05 0.0030262 0)
(-2.54056e-05 0.00300684 0)
(-3.74773e-05 0.00298465 0)
(-4.94801e-05 0.00295974 0)
(-6.13863e-05 0.00293219 0)
(-7.32036e-05 0.00290212 0)
(-8.49511e-05 0.0028696 0)
(-9.66624e-05 0.00283472 0)
(-0.000108375 0.00279753 0)
(-0.000120125 0.00275809 0)
(-0.000131959 0.00271643 0)
(-0.000143916 0.00267259 0)
(-0.000156038 0.00262658 0)
(-0.000168377 0.00257842 0)
(-0.000180977 0.0025281 0)
(-0.000193861 0.00247561 0)
(-0.000207078 0.00242094 0)
(-0.000220673 0.00236407 0)
(-0.000234676 0.00230496 0)
(-0.000249125 0.0022436 0)
(-0.000264074 0.00217994 0)
(-0.000279538 0.00211392 0)
(-0.000295575 0.00204554 0)
(-0.000312227 0.00197469 0)
(-0.000329524 0.00190137 0)
(-0.000347534 0.00182549 0)
(-0.000366279 0.00174701 0)
(-0.00038583 0.00166587 0)
(-0.00040626 0.00158199 0)
(-0.000427611 0.0014953 0)
(-0.000449944 0.00140571 0)
(-0.000473336 0.00131318 0)
(-0.000497877 0.00121762 0)
(-0.000523664 0.00111895 0)
(-0.000550813 0.00101706 0)
(-0.0005794 0.000911779 0)
(-0.000613068 0.000807834 0)
(-0.000653062 0.000703846 0)
(-0.000696567 0.000594133 0)
(-0.000742727 0.00047731 0)
(-0.000790861 0.000352588 0)
(-0.000839741 0.000219966 0)
(-0.000887598 8.06149e-05 0)
(-0.000934182 -6.32874e-05 0)
(-0.000981147 -0.000210009 0)
(-0.00103002 -0.000358931 0)
(-0.00108222 -0.000510141 0)
(-0.00113916 -0.000664224 0)
(-0.00120183 -0.000821825 0)
(-0.00127671 -0.000987663 0)
(-0.00136364 -0.0011627 0)
(-0.0014593 -0.00134478 0)
(-0.0015646 -0.00153436 0)
(-0.00168076 -0.00173205 0)
(-0.00180909 -0.00193823 0)
(-0.00195114 -0.00215418 0)
(-0.00210831 -0.00237931 0)
(-0.00228311 -0.00261756 0)
(-0.00247612 -0.00286319 0)
(-0.00269301 -0.00313151 0)
(-0.00292921 -0.00339435 0)
(-0.00320211 -0.00371252 0)
(-0.00348402 -0.00396911 0)
(-0.00383431 -0.00439477 0)
(-0.00413021 -0.00454996 0)
(-0.00455761 -0.00525057 0)
(-0.00457043 -0.00490422 0)
)
;
    }
    frontAndBack
    {
        type            empty;
    }
}


// ************************************************************************* //
