/*--------------------------------*- C++ -*----------------------------------*\
  =========                 |
  \\      /  F ield         | OpenFOAM: The Open Source CFD Toolbox
   \\    /   O peration     | Website:  https://openfoam.org
    \\  /    A nd           | Version:  7
     \\/     M anipulation  |
\*---------------------------------------------------------------------------*/
FoamFile
{
    version     2.0;
    format      ascii;
    class       volScalarField;
    location    "0.18";
    object      k;
}
// * * * * * * * * * * * * * * * * * * * * * * * * * * * * * * * * * * * * * //

dimensions      [0 2 -2 0 0 0 0];

internalField   nonuniform List<scalar> 
70000
(
1.08549e-05
4.21883e-06
2.82448e-06
2.31695e-06
1.99769e-06
1.75734e-06
1.56537e-06
1.40846e-06
1.27764e-06
1.16691e-06
1.07191e-06
9.89877e-07
9.18253e-07
8.55591e-07
8.00115e-07
7.51106e-07
7.07136e-07
6.67998e-07
6.32432e-07
6.00644e-07
5.71388e-07
5.4522e-07
5.2079e-07
4.99001e-07
4.78308e-07
4.59987e-07
4.42226e-07
4.26688e-07
4.11252e-07
3.97982e-07
3.84419e-07
3.73021e-07
3.60985e-07
3.51148e-07
3.40365e-07
3.31846e-07
3.2209e-07
3.14701e-07
3.05776e-07
2.9938e-07
2.91091e-07
2.85614e-07
2.77739e-07
2.73212e-07
2.65316e-07
2.62808e-07
2.5414e-07
2.6025e-07
2.52093e-07
3.20835e-07
1.72795e-05
1.13674e-05
8.52087e-06
7.01081e-06
6.03775e-06
5.31147e-06
4.73204e-06
4.25821e-06
3.86308e-06
3.52867e-06
3.24178e-06
2.99405e-06
2.77771e-06
2.58844e-06
2.42084e-06
2.27277e-06
2.13988e-06
2.02161e-06
1.91409e-06
1.81802e-06
1.72954e-06
1.65045e-06
1.57655e-06
1.51069e-06
1.44808e-06
1.3927e-06
1.33894e-06
1.29197e-06
1.24525e-06
1.20512e-06
1.16408e-06
1.1296e-06
1.09318e-06
1.06341e-06
1.03079e-06
1.005e-06
9.75494e-07
9.53108e-07
9.26126e-07
9.0674e-07
8.81694e-07
8.65083e-07
8.41298e-07
8.27582e-07
8.03701e-07
7.95177e-07
7.69994e-07
7.80091e-07
7.64005e-07
8.27096e-07
1.93701e-05
1.61298e-05
1.32914e-05
1.12901e-05
9.82924e-06
8.69678e-06
7.77916e-06
7.02136e-06
6.38474e-06
5.84329e-06
5.37704e-06
4.9733e-06
4.61976e-06
4.30982e-06
4.03475e-06
3.79134e-06
3.57245e-06
3.37742e-06
3.19977e-06
3.04098e-06
2.89445e-06
2.7635e-06
2.64084e-06
2.53163e-06
2.42752e-06
2.33557e-06
2.24605e-06
2.16796e-06
2.09007e-06
2.02327e-06
1.9548e-06
1.89732e-06
1.83654e-06
1.78684e-06
1.7324e-06
1.68926e-06
1.64004e-06
1.60252e-06
1.55754e-06
1.52496e-06
1.48327e-06
1.45524e-06
1.41575e-06
1.39247e-06
1.353e-06
1.33726e-06
1.29677e-06
1.30035e-06
1.29038e-06
1.31405e-06
1.9861e-05
1.826e-05
1.60859e-05
1.42005e-05
1.26407e-05
1.13493e-05
1.02616e-05
9.33934e-06
8.54781e-06
7.86454e-06
7.26959e-06
6.74994e-06
6.29133e-06
5.88684e-06
5.52563e-06
5.20447e-06
4.91407e-06
4.6545e-06
4.41694e-06
4.20424e-06
4.00704e-06
3.83072e-06
3.66474e-06
3.51706e-06
3.37553e-06
3.25069e-06
3.12855e-06
3.02213e-06
2.91555e-06
2.82421e-06
2.73032e-06
2.65147e-06
2.56801e-06
2.49959e-06
2.4248e-06
2.36517e-06
2.29755e-06
2.24546e-06
2.18372e-06
2.13822e-06
2.08118e-06
2.04163e-06
1.98799e-06
1.95447e-06
1.90168e-06
1.877e-06
1.82575e-06
1.81031e-06
1.81371e-06
1.80581e-06
1.99707e-05
1.78457e-05
1.60748e-05
1.47664e-05
1.36026e-05
1.25377e-05
1.15696e-05
1.07021e-05
9.92115e-06
9.22572e-06
8.60546e-06
8.05297e-06
7.55687e-06
7.11332e-06
6.7118e-06
6.35095e-06
6.02097e-06
5.72392e-06
5.44951e-06
5.20279e-06
4.97201e-06
4.76521e-06
4.5688e-06
4.39393e-06
4.22491e-06
4.07586e-06
3.92885e-06
3.80085e-06
3.67181e-06
3.56123e-06
3.44706e-06
3.35097e-06
3.24918e-06
3.16525e-06
3.07386e-06
3.00018e-06
2.91753e-06
2.85262e-06
2.7773e-06
2.71994e-06
2.6508e-06
2.59991e-06
2.53583e-06
2.49095e-06
2.43014e-06
2.39193e-06
2.34016e-06
2.29732e-06
2.30254e-06
2.27548e-06
2.00095e-05
1.47038e-05
1.37473e-05
1.32102e-05
1.25908e-05
1.19266e-05
1.12775e-05
1.06573e-05
1.00804e-05
9.54666e-06
9.04615e-06
8.58039e-06
8.14662e-06
7.74748e-06
7.37552e-06
7.03382e-06
6.71465e-06
6.42342e-06
6.14979e-06
5.90159e-06
5.66569e-06
5.45313e-06
5.24813e-06
5.06512e-06
4.8857e-06
4.72722e-06
4.56894e-06
4.43102e-06
4.29064e-06
4.17008e-06
4.04487e-06
3.93892e-06
3.82664e-06
3.73303e-06
3.63182e-06
3.54866e-06
3.45702e-06
3.38271e-06
3.29947e-06
3.23246e-06
3.15687e-06
3.0956e-06
3.0272e-06
2.97019e-06
2.90889e-06
2.85376e-06
2.80866e-06
2.74164e-06
2.73959e-06
2.70059e-06
2.01331e-05
1.54691e-05
9.63458e-06
9.39701e-06
9.49148e-06
9.49074e-06
9.43225e-06
9.2942e-06
9.05429e-06
8.7811e-06
8.48676e-06
8.19028e-06
7.89855e-06
7.61638e-06
7.33918e-06
7.0799e-06
6.83177e-06
6.59955e-06
6.37421e-06
6.16596e-06
5.96191e-06
5.77577e-06
5.59136e-06
5.42567e-06
5.25916e-06
5.1114e-06
4.96087e-06
4.82941e-06
4.69355e-06
4.5763e-06
4.45339e-06
4.34833e-06
4.23692e-06
4.14231e-06
4.04118e-06
3.95546e-06
3.86365e-06
3.78535e-06
3.70225e-06
3.62962e-06
3.55517e-06
3.48638e-06
3.42088e-06
3.35387e-06
3.29818e-06
3.23002e-06
3.19102e-06
3.11227e-06
3.10234e-06
3.05572e-06
2.01712e-05
1.86769e-05
8.6966e-06
5.54011e-06
5.62976e-06
5.9329e-06
6.29096e-06
6.57612e-06
6.7563e-06
6.86529e-06
6.88601e-06
6.86714e-06
6.81578e-06
6.72859e-06
6.6183e-06
6.49772e-06
6.35966e-06
6.21967e-06
6.07533e-06
5.93647e-06
5.79302e-06
5.65929e-06
5.52123e-06
5.39565e-06
5.26453e-06
5.14932e-06
5.02827e-06
4.92214e-06
4.80932e-06
4.711e-06
4.60618e-06
4.51499e-06
4.41808e-06
4.33327e-06
4.24412e-06
4.16485e-06
4.08341e-06
4.00863e-06
3.93493e-06
3.86315e-06
3.79784e-06
3.72766e-06
3.67128e-06
3.60125e-06
3.55396e-06
3.48335e-06
3.44682e-06
3.36941e-06
3.35469e-06
3.31292e-06
2.01671e-05
1.97241e-05
1.61702e-05
4.86536e-06
3.04249e-06
3.10513e-06
3.37327e-06
3.80292e-06
4.16887e-06
4.48692e-06
4.73486e-06
4.92528e-06
5.06641e-06
5.16793e-06
5.22712e-06
5.26441e-06
5.26903e-06
5.26106e-06
5.23891e-06
5.20295e-06
5.15307e-06
5.10068e-06
5.03769e-06
4.97607e-06
4.90521e-06
4.83854e-06
4.76164e-06
4.6931e-06
4.61591e-06
4.54763e-06
4.4725e-06
4.40548e-06
4.33376e-06
4.26825e-06
4.20078e-06
4.13675e-06
4.07436e-06
4.01131e-06
3.95526e-06
3.8932e-06
3.84362e-06
3.78132e-06
3.73829e-06
3.67545e-06
3.63845e-06
3.57573e-06
3.54432e-06
3.477e-06
3.46099e-06
3.42928e-06
2.01476e-05
1.99343e-05
1.90665e-05
1.45033e-05
5.25064e-06
2.15571e-06
1.91452e-06
1.99337e-06
2.20626e-06
2.50491e-06
2.78083e-06
3.03459e-06
3.25967e-06
3.45756e-06
3.62166e-06
3.76145e-06
3.87331e-06
3.96377e-06
4.03441e-06
4.08949e-06
4.1272e-06
4.15337e-06
4.16787e-06
4.17172e-06
4.16841e-06
4.16083e-06
4.14409e-06
4.12717e-06
4.10043e-06
4.07567e-06
4.04364e-06
4.01312e-06
3.97835e-06
3.94324e-06
3.90775e-06
3.86931e-06
3.8345e-06
3.79352e-06
3.75982e-06
3.71572e-06
3.68426e-06
3.63823e-06
3.60976e-06
3.5626e-06
3.53693e-06
3.48961e-06
3.46615e-06
3.41644e-06
3.40026e-06
3.37827e-06
2.01215e-05
1.99661e-05
1.96428e-05
1.8548e-05
1.52183e-05
8.37185e-06
3.11306e-06
1.63421e-06
1.44264e-06
1.44942e-06
1.52622e-06
1.68722e-06
1.86943e-06
2.04719e-06
2.21734e-06
2.37805e-06
2.52518e-06
2.65832e-06
2.77628e-06
2.88205e-06
2.97336e-06
3.05367e-06
3.12137e-06
3.18022e-06
3.22717e-06
3.26898e-06
3.29992e-06
3.32761e-06
3.34602e-06
3.36179e-06
3.37034e-06
3.37684e-06
3.37747e-06
3.37599e-06
3.37249e-06
3.36439e-06
3.35769e-06
3.34382e-06
3.33516e-06
3.3175e-06
3.30731e-06
3.28667e-06
3.27543e-06
3.25284e-06
3.24098e-06
3.2172e-06
3.20512e-06
3.17868e-06
3.17057e-06
3.15874e-06
2.00981e-05
1.99327e-05
1.97577e-05
1.93535e-05
1.85085e-05
1.65421e-05
1.23408e-05
6.8745e-06
2.99562e-06
1.4951e-06
1.24355e-06
1.14787e-06
1.15208e-06
1.1948e-06
1.28743e-06
1.39532e-06
1.50785e-06
1.61919e-06
1.72908e-06
1.83585e-06
1.93569e-06
2.03063e-06
2.11691e-06
2.19832e-06
2.27082e-06
2.33863e-06
2.39838e-06
2.45346e-06
2.50191e-06
2.54551e-06
2.58414e-06
2.6176e-06
2.64809e-06
2.67242e-06
2.69626e-06
2.71312e-06
2.73139e-06
2.7422e-06
2.75553e-06
2.76173e-06
2.77081e-06
2.7736e-06
2.77887e-06
2.77962e-06
2.78133e-06
2.78052e-06
2.78017e-06
2.7772e-06
2.77912e-06
2.77841e-06
2.00781e-05
1.98876e-05
1.97572e-05
1.9462e-05
1.91474e-05
1.86435e-05
1.75605e-05
1.5435e-05
1.1756e-05
7.46102e-06
3.99255e-06
1.91806e-06
1.2094e-06
1.05765e-06
9.82102e-07
9.43329e-07
9.54779e-07
9.89702e-07
1.05184e-06
1.11714e-06
1.18633e-06
1.25778e-06
1.32834e-06
1.40008e-06
1.46878e-06
1.53565e-06
1.59917e-06
1.65951e-06
1.71679e-06
1.77007e-06
1.821e-06
1.86714e-06
1.9118e-06
1.95116e-06
1.9898e-06
2.02304e-06
2.05609e-06
2.08413e-06
2.112e-06
2.13562e-06
2.1589e-06
2.17876e-06
2.19815e-06
2.21472e-06
2.2313e-06
2.24471e-06
2.25946e-06
2.27033e-06
2.28338e-06
2.29738e-06
2.00613e-05
1.98539e-05
1.97347e-05
1.94722e-05
1.92566e-05
1.90487e-05
1.87381e-05
1.81942e-05
1.71035e-05
1.52425e-05
1.25808e-05
9.24881e-06
5.98223e-06
3.48268e-06
1.88142e-06
1.16732e-06
9.64804e-07
8.91334e-07
8.3641e-07
7.9748e-07
7.99697e-07
8.13954e-07
8.44496e-07
8.84434e-07
9.24514e-07
9.67968e-07
1.01292e-06
1.05829e-06
1.10462e-06
1.15012e-06
1.19553e-06
1.23877e-06
1.28161e-06
1.32201e-06
1.36167e-06
1.39893e-06
1.4352e-06
1.46938e-06
1.50212e-06
1.53329e-06
1.56266e-06
1.59095e-06
1.61731e-06
1.64287e-06
1.66687e-06
1.68993e-06
1.7119e-06
1.73346e-06
1.75308e-06
1.776e-06
2.00475e-05
1.98304e-05
1.97081e-05
1.94501e-05
1.92736e-05
1.91165e-05
1.89671e-05
1.87522e-05
1.84651e-05
1.79162e-05
1.70838e-05
1.57089e-05
1.38926e-05
1.15414e-05
8.8588e-06
6.24415e-06
4.06945e-06
2.49494e-06
1.49837e-06
1.02747e-06
8.62071e-07
7.99141e-07
7.50682e-07
7.11408e-07
6.82262e-07
6.81343e-07
6.87601e-07
7.02748e-07
7.25041e-07
7.49401e-07
7.74866e-07
8.01489e-07
8.29636e-07
8.58498e-07
8.87725e-07
9.17646e-07
9.46926e-07
9.76573e-07
1.00485e-06
1.03352e-06
1.06047e-06
1.08801e-06
1.11362e-06
1.1398e-06
1.16439e-06
1.18914e-06
1.21282e-06
1.23659e-06
1.25935e-06
1.28323e-06
2.00362e-05
1.98126e-05
1.96856e-05
1.942e-05
1.92596e-05
1.91103e-05
1.90019e-05
1.88511e-05
1.87138e-05
1.85029e-05
1.82501e-05
1.78364e-05
1.72356e-05
1.63668e-05
1.51645e-05
1.36274e-05
1.18129e-05
9.7206e-06
7.56913e-06
5.56385e-06
3.88436e-06
2.60749e-06
1.69674e-06
1.14347e-06
8.73618e-07
7.62534e-07
7.10811e-07
6.73708e-07
6.38021e-07
6.09503e-07
5.89966e-07
5.84735e-07
5.87214e-07
5.94023e-07
6.05475e-07
6.19794e-07
6.34029e-07
6.50193e-07
6.65867e-07
6.83533e-07
7.01021e-07
7.20041e-07
7.3854e-07
7.58253e-07
7.77494e-07
7.9732e-07
8.16852e-07
8.36754e-07
8.56467e-07
8.76949e-07
2.00271e-05
1.97987e-05
1.96665e-05
1.93983e-05
1.92337e-05
1.90833e-05
1.89837e-05
1.88549e-05
1.87377e-05
1.85987e-05
1.84611e-05
1.82919e-05
1.80823e-05
1.77971e-05
1.741e-05
1.68663e-05
1.61556e-05
1.52311e-05
1.40823e-05
1.27338e-05
1.1221e-05
9.54829e-06
7.82852e-06
6.18544e-06
4.69894e-06
3.46615e-06
2.49197e-06
1.75131e-06
1.23459e-06
9.2287e-07
7.58653e-07
6.79231e-07
6.36404e-07
6.06257e-07
5.78357e-07
5.52555e-07
5.29966e-07
5.15475e-07
5.05833e-07
5.05166e-07
5.06905e-07
5.1134e-07
5.17996e-07
5.26301e-07
5.35097e-07
5.44735e-07
5.54643e-07
5.65711e-07
5.76971e-07
5.90105e-07
2.002e-05
1.97903e-05
1.9646e-05
1.93823e-05
1.92097e-05
1.90546e-05
1.89456e-05
1.88287e-05
1.87161e-05
1.85921e-05
1.8473e-05
1.83474e-05
1.82221e-05
1.80792e-05
1.79221e-05
1.77223e-05
1.7478e-05
1.71569e-05
1.67507e-05
1.62234e-05
1.55836e-05
1.47946e-05
1.38715e-05
1.28023e-05
1.1641e-05
1.03746e-05
9.03013e-06
7.67359e-06
6.35721e-06
5.1457e-06
4.05571e-06
3.14839e-06
2.40452e-06
1.80664e-06
1.34829e-06
1.02257e-06
8.1345e-07
6.90161e-07
6.20887e-07
5.80722e-07
5.53298e-07
5.30485e-07
5.09671e-07
4.8935e-07
4.71219e-07
4.56383e-07
4.46117e-07
4.39691e-07
4.3808e-07
4.39473e-07
2.00144e-05
1.97904e-05
1.96197e-05
1.93692e-05
1.91893e-05
1.90281e-05
1.89101e-05
1.87925e-05
1.86766e-05
1.85563e-05
1.84429e-05
1.83254e-05
1.8213e-05
1.80937e-05
1.79801e-05
1.78567e-05
1.77332e-05
1.75882e-05
1.74299e-05
1.72321e-05
1.70022e-05
1.67128e-05
1.63687e-05
1.59432e-05
1.54443e-05
1.48557e-05
1.41818e-05
1.34091e-05
1.25644e-05
1.16347e-05
1.06715e-05
9.64259e-06
8.57985e-06
7.51573e-06
6.48075e-06
5.49718e-06
4.59621e-06
3.77685e-06
3.0749e-06
2.47833e-06
1.97516e-06
1.55857e-06
1.22539e-06
9.72279e-07
7.91936e-07
6.72081e-07
5.94762e-07
5.49013e-07
5.15838e-07
4.99818e-07
2.00102e-05
1.97944e-05
1.95932e-05
1.93555e-05
1.91709e-05
1.90027e-05
1.88772e-05
1.87565e-05
1.86373e-05
1.85135e-05
1.83975e-05
1.82793e-05
1.81683e-05
1.80556e-05
1.79479e-05
1.78374e-05
1.7731e-05
1.76201e-05
1.75135e-05
1.73991e-05
1.72828e-05
1.71522e-05
1.701e-05
1.68441e-05
1.66545e-05
1.64313e-05
1.61726e-05
1.58688e-05
1.5518e-05
1.51156e-05
1.46569e-05
1.41495e-05
1.35773e-05
1.29586e-05
1.22795e-05
1.15676e-05
1.08068e-05
1.00363e-05
9.22711e-06
8.40034e-06
7.57005e-06
6.75311e-06
5.96014e-06
5.20465e-06
4.49488e-06
3.84162e-06
3.24213e-06
2.72176e-06
2.2409e-06
1.83749e-06
2.0007e-05
1.98016e-05
1.95689e-05
1.93422e-05
1.91537e-05
1.8979e-05
1.88458e-05
1.87222e-05
1.85991e-05
1.84722e-05
1.83514e-05
1.82314e-05
1.8116e-05
1.80018e-05
1.78911e-05
1.77815e-05
1.76777e-05
1.75738e-05
1.7473e-05
1.7373e-05
1.72734e-05
1.71741e-05
1.70744e-05
1.69748e-05
1.68696e-05
1.67627e-05
1.66432e-05
1.65176e-05
1.63718e-05
1.62167e-05
1.60325e-05
1.58347e-05
1.56015e-05
1.53503e-05
1.50574e-05
1.47425e-05
1.43843e-05
1.40017e-05
1.3577e-05
1.31254e-05
1.26315e-05
1.21154e-05
1.15599e-05
1.09893e-05
1.0384e-05
9.77478e-06
9.13461e-06
8.48639e-06
7.79712e-06
7.10591e-06
2.00046e-05
1.98098e-05
1.95463e-05
1.93291e-05
1.91371e-05
1.8957e-05
1.88156e-05
1.86893e-05
1.85623e-05
1.84326e-05
1.83068e-05
1.81844e-05
1.80643e-05
1.79483e-05
1.78328e-05
1.77218e-05
1.76128e-05
1.75076e-05
1.74033e-05
1.73038e-05
1.72051e-05
1.71121e-05
1.70177e-05
1.69288e-05
1.68365e-05
1.67508e-05
1.66578e-05
1.65724e-05
1.64796e-05
1.63935e-05
1.62957e-05
1.62019e-05
1.6094e-05
1.59879e-05
1.58626e-05
1.57355e-05
1.55879e-05
1.54349e-05
1.52576e-05
1.5072e-05
1.48601e-05
1.46385e-05
1.43881e-05
1.41239e-05
1.38301e-05
1.35211e-05
1.31849e-05
1.28273e-05
1.24393e-05
1.20182e-05
2.00029e-05
1.98184e-05
1.95254e-05
1.93154e-05
1.91205e-05
1.89367e-05
1.87866e-05
1.86576e-05
1.85272e-05
1.8395e-05
1.82644e-05
1.81394e-05
1.80149e-05
1.78967e-05
1.77765e-05
1.76635e-05
1.75503e-05
1.74426e-05
1.73343e-05
1.72324e-05
1.7129e-05
1.70329e-05
1.69351e-05
1.68443e-05
1.67506e-05
1.66672e-05
1.6579e-05
1.64991e-05
1.64147e-05
1.63394e-05
1.62572e-05
1.61826e-05
1.61006e-05
1.60277e-05
1.59463e-05
1.58716e-05
1.57901e-05
1.57125e-05
1.56253e-05
1.55394e-05
1.54443e-05
1.53498e-05
1.52432e-05
1.5133e-05
1.50097e-05
1.48806e-05
1.47421e-05
1.45901e-05
1.44268e-05
1.42462e-05
2.00017e-05
1.98266e-05
1.95063e-05
1.93009e-05
1.91035e-05
1.89178e-05
1.87591e-05
1.86274e-05
1.84938e-05
1.83594e-05
1.82246e-05
1.80969e-05
1.79686e-05
1.78478e-05
1.77236e-05
1.7608e-05
1.74912e-05
1.73807e-05
1.72688e-05
1.71642e-05
1.70573e-05
1.69581e-05
1.68569e-05
1.67623e-05
1.66656e-05
1.65777e-05
1.64857e-05
1.64012e-05
1.63151e-05
1.62368e-05
1.61546e-05
1.60804e-05
1.60038e-05
1.59358e-05
1.58616e-05
1.57946e-05
1.57257e-05
1.56614e-05
1.55929e-05
1.55271e-05
1.54589e-05
1.53968e-05
1.5329e-05
1.52657e-05
1.51958e-05
1.51285e-05
1.50607e-05
1.49897e-05
1.49134e-05
1.48388e-05
2.00009e-05
1.98305e-05
1.94899e-05
1.92856e-05
1.90863e-05
1.89006e-05
1.87336e-05
1.8599e-05
1.84628e-05
1.83264e-05
1.8188e-05
1.80574e-05
1.79262e-05
1.78025e-05
1.76749e-05
1.75566e-05
1.74366e-05
1.73232e-05
1.72082e-05
1.71008e-05
1.69906e-05
1.68888e-05
1.67845e-05
1.66866e-05
1.65871e-05
1.64961e-05
1.64007e-05
1.63124e-05
1.6223e-05
1.61411e-05
1.60551e-05
1.59765e-05
1.58956e-05
1.58236e-05
1.57459e-05
1.5676e-05
1.56058e-05
1.55398e-05
1.54724e-05
1.54087e-05
1.53456e-05
1.529e-05
1.52274e-05
1.51733e-05
1.51124e-05
1.50572e-05
1.50039e-05
1.49515e-05
1.48929e-05
1.48457e-05
2.00003e-05
1.98289e-05
1.94769e-05
1.92698e-05
1.90691e-05
1.88854e-05
1.87107e-05
1.85727e-05
1.84342e-05
1.82964e-05
1.81549e-05
1.80216e-05
1.7888e-05
1.77615e-05
1.76311e-05
1.75104e-05
1.73873e-05
1.72713e-05
1.71534e-05
1.70433e-05
1.69301e-05
1.6826e-05
1.67186e-05
1.66181e-05
1.6516e-05
1.64223e-05
1.63238e-05
1.62329e-05
1.61406e-05
1.60558e-05
1.59666e-05
1.58849e-05
1.58008e-05
1.57254e-05
1.5644e-05
1.55705e-05
1.5497e-05
1.54272e-05
1.53557e-05
1.52873e-05
1.522e-05
1.51615e-05
1.50941e-05
1.50386e-05
1.49751e-05
1.4918e-05
1.48644e-05
1.48143e-05
1.47569e-05
1.47173e-05
2e-05
1.98272e-05
1.94656e-05
1.92526e-05
1.90515e-05
1.88717e-05
1.86903e-05
1.85486e-05
1.84083e-05
1.82695e-05
1.81256e-05
1.79901e-05
1.78546e-05
1.77254e-05
1.75928e-05
1.74701e-05
1.73442e-05
1.72259e-05
1.71054e-05
1.69929e-05
1.6877e-05
1.6771e-05
1.66605e-05
1.65576e-05
1.64531e-05
1.63572e-05
1.62558e-05
1.61627e-05
1.60678e-05
1.59808e-05
1.58886e-05
1.58048e-05
1.57181e-05
1.56402e-05
1.55558e-05
1.548e-05
1.54036e-05
1.53311e-05
1.52563e-05
1.51849e-05
1.51142e-05
1.50532e-05
1.49811e-05
1.49234e-05
1.48563e-05
1.47955e-05
1.47387e-05
1.46852e-05
1.46239e-05
1.4582e-05
1.99999e-05
1.98259e-05
1.94573e-05
1.9235e-05
1.9034e-05
1.88596e-05
1.8673e-05
1.85274e-05
1.83856e-05
1.82464e-05
1.81007e-05
1.79634e-05
1.78264e-05
1.76951e-05
1.75606e-05
1.74365e-05
1.7308e-05
1.71879e-05
1.70653e-05
1.69506e-05
1.68324e-05
1.67247e-05
1.66115e-05
1.65065e-05
1.63997e-05
1.63019e-05
1.61978e-05
1.61028e-05
1.60056e-05
1.59165e-05
1.58217e-05
1.57361e-05
1.56473e-05
1.55672e-05
1.54805e-05
1.54031e-05
1.53241e-05
1.52498e-05
1.51723e-05
1.5099e-05
1.50259e-05
1.4963e-05
1.48878e-05
1.48286e-05
1.47586e-05
1.46956e-05
1.46365e-05
1.45799e-05
1.45172e-05
1.44741e-05
1.99999e-05
1.98251e-05
1.9452e-05
1.9218e-05
1.90174e-05
1.88495e-05
1.86596e-05
1.85097e-05
1.83668e-05
1.82277e-05
1.80808e-05
1.79423e-05
1.78043e-05
1.76713e-05
1.75355e-05
1.74104e-05
1.72798e-05
1.71582e-05
1.70339e-05
1.69174e-05
1.67974e-05
1.66881e-05
1.65725e-05
1.64658e-05
1.63572e-05
1.62575e-05
1.61511e-05
1.60545e-05
1.59553e-05
1.58643e-05
1.57671e-05
1.568e-05
1.55893e-05
1.55074e-05
1.54185e-05
1.53398e-05
1.52585e-05
1.51829e-05
1.5103e-05
1.50287e-05
1.49533e-05
1.48889e-05
1.48117e-05
1.47518e-05
1.46793e-05
1.46155e-05
1.45544e-05
1.44953e-05
1.4433e-05
1.43894e-05
1.99999e-05
1.98248e-05
1.94493e-05
1.92026e-05
1.90024e-05
1.88412e-05
1.86505e-05
1.84961e-05
1.83524e-05
1.82139e-05
1.80666e-05
1.79275e-05
1.77888e-05
1.76546e-05
1.75182e-05
1.73924e-05
1.72602e-05
1.71377e-05
1.70121e-05
1.68942e-05
1.67729e-05
1.66623e-05
1.65448e-05
1.64366e-05
1.63265e-05
1.62253e-05
1.61168e-05
1.60189e-05
1.5918e-05
1.58253e-05
1.5726e-05
1.56375e-05
1.55453e-05
1.54618e-05
1.53711e-05
1.52912e-05
1.52078e-05
1.51312e-05
1.50493e-05
1.49741e-05
1.4897e-05
1.4831e-05
1.47526e-05
1.46922e-05
1.46174e-05
1.45537e-05
1.44907e-05
1.44298e-05
1.4369e-05
1.43247e-05
1.99999e-05
1.98248e-05
1.94492e-05
1.91895e-05
1.89894e-05
1.88348e-05
1.86456e-05
1.8487e-05
1.83427e-05
1.82051e-05
1.80582e-05
1.79193e-05
1.77804e-05
1.76455e-05
1.75092e-05
1.73831e-05
1.72498e-05
1.7127e-05
1.70006e-05
1.68817e-05
1.67597e-05
1.66481e-05
1.6529e-05
1.64198e-05
1.63085e-05
1.6206e-05
1.60959e-05
1.5997e-05
1.58948e-05
1.58005e-05
1.56995e-05
1.56099e-05
1.55165e-05
1.54316e-05
1.53393e-05
1.52583e-05
1.51732e-05
1.50957e-05
1.50124e-05
1.49363e-05
1.48578e-05
1.47903e-05
1.47113e-05
1.46505e-05
1.45738e-05
1.45105e-05
1.44456e-05
1.43836e-05
1.43248e-05
1.42792e-05
1.99999e-05
1.98253e-05
1.94514e-05
1.9179e-05
1.89785e-05
1.88297e-05
1.86449e-05
1.84826e-05
1.83378e-05
1.82016e-05
1.8056e-05
1.79179e-05
1.77793e-05
1.76445e-05
1.75089e-05
1.7383e-05
1.72494e-05
1.71268e-05
1.7e-05
1.68807e-05
1.67584e-05
1.66462e-05
1.65259e-05
1.64162e-05
1.63042e-05
1.62006e-05
1.60893e-05
1.59898e-05
1.58866e-05
1.57909e-05
1.56884e-05
1.55981e-05
1.55037e-05
1.54176e-05
1.53241e-05
1.52421e-05
1.51557e-05
1.50775e-05
1.49931e-05
1.49162e-05
1.48368e-05
1.47677e-05
1.46887e-05
1.46275e-05
1.45493e-05
1.44866e-05
1.44198e-05
1.43578e-05
1.43008e-05
1.42535e-05
1.99999e-05
1.98263e-05
1.94559e-05
1.91722e-05
1.89701e-05
1.88265e-05
1.86478e-05
1.84829e-05
1.83379e-05
1.82033e-05
1.80597e-05
1.79228e-05
1.77847e-05
1.76506e-05
1.7516e-05
1.73905e-05
1.72571e-05
1.71352e-05
1.70083e-05
1.68891e-05
1.67669e-05
1.66545e-05
1.65337e-05
1.64241e-05
1.63117e-05
1.62074e-05
1.60955e-05
1.59959e-05
1.58921e-05
1.57956e-05
1.56921e-05
1.56015e-05
1.55066e-05
1.54198e-05
1.53255e-05
1.52428e-05
1.51557e-05
1.50771e-05
1.4992e-05
1.49145e-05
1.48345e-05
1.47642e-05
1.46857e-05
1.46241e-05
1.45447e-05
1.4483e-05
1.44144e-05
1.43531e-05
1.42977e-05
1.42481e-05
1.99999e-05
1.98277e-05
1.94625e-05
1.91687e-05
1.89647e-05
1.88244e-05
1.86544e-05
1.84879e-05
1.83424e-05
1.82093e-05
1.80684e-05
1.79338e-05
1.77968e-05
1.76642e-05
1.75314e-05
1.74068e-05
1.72745e-05
1.71539e-05
1.70273e-05
1.69089e-05
1.67873e-05
1.66749e-05
1.65538e-05
1.64448e-05
1.63323e-05
1.62273e-05
1.61149e-05
1.60156e-05
1.59113e-05
1.58138e-05
1.57096e-05
1.56189e-05
1.55235e-05
1.5436e-05
1.53409e-05
1.52577e-05
1.51699e-05
1.50912e-05
1.50056e-05
1.49279e-05
1.48475e-05
1.47765e-05
1.46986e-05
1.46368e-05
1.4557e-05
1.44961e-05
1.44265e-05
1.43664e-05
1.4312e-05
1.42603e-05
1.99999e-05
1.98296e-05
1.94707e-05
1.91691e-05
1.89618e-05
1.88241e-05
1.86635e-05
1.84975e-05
1.83518e-05
1.82203e-05
1.80828e-05
1.79508e-05
1.78153e-05
1.7685e-05
1.75542e-05
1.74309e-05
1.73004e-05
1.71814e-05
1.70556e-05
1.69387e-05
1.68182e-05
1.67063e-05
1.65856e-05
1.64779e-05
1.63656e-05
1.62603e-05
1.61481e-05
1.60498e-05
1.59452e-05
1.58473e-05
1.5743e-05
1.56528e-05
1.55572e-05
1.54694e-05
1.5374e-05
1.52905e-05
1.52025e-05
1.51239e-05
1.50381e-05
1.49603e-05
1.48797e-05
1.48081e-05
1.47313e-05
1.46691e-05
1.4589e-05
1.45293e-05
1.44585e-05
1.44006e-05
1.43471e-05
1.42925e-05
1.99999e-05
1.98319e-05
1.94805e-05
1.91728e-05
1.89619e-05
1.88252e-05
1.86747e-05
1.85109e-05
1.83652e-05
1.82353e-05
1.81015e-05
1.79727e-05
1.78391e-05
1.77116e-05
1.75831e-05
1.74616e-05
1.73336e-05
1.72166e-05
1.70919e-05
1.6977e-05
1.68581e-05
1.67468e-05
1.66271e-05
1.65212e-05
1.64093e-05
1.63041e-05
1.61928e-05
1.60956e-05
1.59909e-05
1.58931e-05
1.57893e-05
1.56997e-05
1.56041e-05
1.55163e-05
1.54213e-05
1.5338e-05
1.52502e-05
1.51719e-05
1.50863e-05
1.50091e-05
1.49286e-05
1.48571e-05
1.47817e-05
1.47193e-05
1.46396e-05
1.45813e-05
1.45101e-05
1.44547e-05
1.44014e-05
1.43443e-05
1.99999e-05
1.98347e-05
1.9491e-05
1.91803e-05
1.89648e-05
1.88282e-05
1.86875e-05
1.85278e-05
1.83823e-05
1.82539e-05
1.81239e-05
1.79987e-05
1.78675e-05
1.77432e-05
1.76174e-05
1.7498e-05
1.73729e-05
1.72581e-05
1.7135e-05
1.70227e-05
1.69055e-05
1.67952e-05
1.66772e-05
1.65733e-05
1.64619e-05
1.63574e-05
1.62474e-05
1.61514e-05
1.60468e-05
1.59496e-05
1.58468e-05
1.57581e-05
1.56624e-05
1.55752e-05
1.54807e-05
1.5398e-05
1.53107e-05
1.52328e-05
1.5148e-05
1.50715e-05
1.49914e-05
1.49204e-05
1.48467e-05
1.47842e-05
1.47052e-05
1.46485e-05
1.45775e-05
1.45248e-05
1.44712e-05
1.44123e-05
1.99999e-05
1.98378e-05
1.95022e-05
1.91907e-05
1.89707e-05
1.88335e-05
1.87015e-05
1.85479e-05
1.84028e-05
1.82759e-05
1.81496e-05
1.80282e-05
1.78999e-05
1.7779e-05
1.76559e-05
1.75392e-05
1.74173e-05
1.7305e-05
1.71839e-05
1.70744e-05
1.6959e-05
1.68502e-05
1.67343e-05
1.66326e-05
1.65219e-05
1.64185e-05
1.63103e-05
1.62156e-05
1.61112e-05
1.60152e-05
1.59138e-05
1.5826e-05
1.57304e-05
1.56441e-05
1.55506e-05
1.54687e-05
1.53821e-05
1.53049e-05
1.52211e-05
1.51455e-05
1.50661e-05
1.49962e-05
1.49241e-05
1.48616e-05
1.4784e-05
1.4729e-05
1.46586e-05
1.46087e-05
1.45543e-05
1.44943e-05
1.99999e-05
1.98411e-05
1.95137e-05
1.92037e-05
1.89795e-05
1.88409e-05
1.8716e-05
1.85702e-05
1.8426e-05
1.83009e-05
1.81777e-05
1.80604e-05
1.79354e-05
1.78181e-05
1.7698e-05
1.75841e-05
1.74656e-05
1.73558e-05
1.72373e-05
1.71308e-05
1.70174e-05
1.69105e-05
1.67971e-05
1.66975e-05
1.65876e-05
1.6486e-05
1.63797e-05
1.62861e-05
1.61823e-05
1.60881e-05
1.59881e-05
1.59013e-05
1.58061e-05
1.57211e-05
1.56286e-05
1.55479e-05
1.54621e-05
1.5386e-05
1.53033e-05
1.52289e-05
1.51504e-05
1.50822e-05
1.50117e-05
1.49491e-05
1.48737e-05
1.48201e-05
1.47511e-05
1.47035e-05
1.46482e-05
1.4588e-05
1.99999e-05
1.98445e-05
1.95252e-05
1.92187e-05
1.89909e-05
1.88505e-05
1.87311e-05
1.85941e-05
1.84514e-05
1.83283e-05
1.82078e-05
1.80946e-05
1.79735e-05
1.78595e-05
1.77426e-05
1.76319e-05
1.75168e-05
1.74097e-05
1.72941e-05
1.71907e-05
1.70792e-05
1.69747e-05
1.6864e-05
1.67663e-05
1.66577e-05
1.65583e-05
1.6454e-05
1.63615e-05
1.62587e-05
1.61664e-05
1.6068e-05
1.59821e-05
1.58876e-05
1.58042e-05
1.57129e-05
1.56335e-05
1.55486e-05
1.54739e-05
1.53925e-05
1.53193e-05
1.52421e-05
1.51759e-05
1.51068e-05
1.50442e-05
1.49719e-05
1.49192e-05
1.48523e-05
1.48062e-05
1.47505e-05
1.4691e-05
1.99999e-05
1.98481e-05
1.95366e-05
1.92352e-05
1.90049e-05
1.88623e-05
1.87467e-05
1.86189e-05
1.84784e-05
1.83578e-05
1.82395e-05
1.81303e-05
1.80133e-05
1.79026e-05
1.77891e-05
1.76815e-05
1.75699e-05
1.74657e-05
1.73533e-05
1.72527e-05
1.71435e-05
1.70416e-05
1.69337e-05
1.68379e-05
1.67307e-05
1.66338e-05
1.65314e-05
1.644e-05
1.63386e-05
1.62485e-05
1.61514e-05
1.60666e-05
1.59732e-05
1.58915e-05
1.58012e-05
1.57235e-05
1.56397e-05
1.55665e-05
1.54864e-05
1.54146e-05
1.53392e-05
1.52749e-05
1.52069e-05
1.51449e-05
1.5076e-05
1.5024e-05
1.49597e-05
1.49142e-05
1.48586e-05
1.48005e-05
1.99999e-05
1.98517e-05
1.95479e-05
1.92527e-05
1.9021e-05
1.88762e-05
1.87628e-05
1.8644e-05
1.85067e-05
1.83888e-05
1.82722e-05
1.81671e-05
1.80542e-05
1.79468e-05
1.78367e-05
1.77323e-05
1.76242e-05
1.75229e-05
1.74138e-05
1.73161e-05
1.72092e-05
1.71102e-05
1.70049e-05
1.69109e-05
1.68055e-05
1.67113e-05
1.66106e-05
1.65204e-05
1.64207e-05
1.63328e-05
1.62368e-05
1.61532e-05
1.60613e-05
1.59812e-05
1.5892e-05
1.58161e-05
1.57333e-05
1.56618e-05
1.55831e-05
1.55129e-05
1.54395e-05
1.5377e-05
1.53099e-05
1.52491e-05
1.51836e-05
1.51323e-05
1.50705e-05
1.50251e-05
1.49701e-05
1.49136e-05
1.99999e-05
1.98552e-05
1.9559e-05
1.92708e-05
1.90388e-05
1.88918e-05
1.87795e-05
1.86689e-05
1.8536e-05
1.84206e-05
1.83059e-05
1.82044e-05
1.80954e-05
1.79916e-05
1.78849e-05
1.77836e-05
1.76789e-05
1.75806e-05
1.74749e-05
1.73798e-05
1.72755e-05
1.71794e-05
1.70767e-05
1.69844e-05
1.6881e-05
1.67896e-05
1.66904e-05
1.66015e-05
1.65037e-05
1.64178e-05
1.6323e-05
1.62407e-05
1.61502e-05
1.60717e-05
1.59838e-05
1.59095e-05
1.5828e-05
1.57581e-05
1.56806e-05
1.56124e-05
1.5541e-05
1.54801e-05
1.54139e-05
1.53549e-05
1.52924e-05
1.52419e-05
1.51824e-05
1.5137e-05
1.50831e-05
1.5028e-05
1.99999e-05
1.98587e-05
1.95698e-05
1.92889e-05
1.90581e-05
1.8909e-05
1.87969e-05
1.86932e-05
1.85657e-05
1.84529e-05
1.83402e-05
1.8242e-05
1.81366e-05
1.80365e-05
1.79332e-05
1.78349e-05
1.77336e-05
1.76382e-05
1.75359e-05
1.74434e-05
1.73417e-05
1.72484e-05
1.71482e-05
1.70576e-05
1.69565e-05
1.68677e-05
1.67698e-05
1.66824e-05
1.65866e-05
1.65025e-05
1.64088e-05
1.63278e-05
1.62388e-05
1.61617e-05
1.6075e-05
1.60026e-05
1.59223e-05
1.5854e-05
1.57777e-05
1.57115e-05
1.56422e-05
1.55826e-05
1.55172e-05
1.54604e-05
1.54005e-05
1.53509e-05
1.52932e-05
1.52481e-05
1.51955e-05
1.51417e-05
1.99999e-05
1.98621e-05
1.95803e-05
1.93067e-05
1.90782e-05
1.89274e-05
1.88148e-05
1.87168e-05
1.85953e-05
1.84853e-05
1.83747e-05
1.82794e-05
1.81774e-05
1.80813e-05
1.79811e-05
1.78857e-05
1.77877e-05
1.76951e-05
1.75963e-05
1.75062e-05
1.74073e-05
1.73167e-05
1.7219e-05
1.71299e-05
1.70313e-05
1.69448e-05
1.68481e-05
1.67623e-05
1.66684e-05
1.65859e-05
1.64932e-05
1.64137e-05
1.63262e-05
1.62502e-05
1.61648e-05
1.60941e-05
1.6015e-05
1.59482e-05
1.58729e-05
1.58091e-05
1.57415e-05
1.56829e-05
1.56187e-05
1.55643e-05
1.55062e-05
1.54577e-05
1.54014e-05
1.5357e-05
1.53053e-05
1.52529e-05
1.99999e-05
1.98653e-05
1.95904e-05
1.93241e-05
1.90989e-05
1.89467e-05
1.88334e-05
1.87398e-05
1.86245e-05
1.85177e-05
1.84093e-05
1.83166e-05
1.82178e-05
1.81255e-05
1.80284e-05
1.79359e-05
1.78412e-05
1.77512e-05
1.76558e-05
1.75681e-05
1.74718e-05
1.73838e-05
1.72885e-05
1.7201e-05
1.71049e-05
1.70202e-05
1.69248e-05
1.68408e-05
1.67486e-05
1.66674e-05
1.65758e-05
1.64978e-05
1.64115e-05
1.63364e-05
1.62524e-05
1.61834e-05
1.61053e-05
1.60397e-05
1.59657e-05
1.59042e-05
1.58378e-05
1.57801e-05
1.57173e-05
1.56653e-05
1.56085e-05
1.55609e-05
1.55058e-05
1.54627e-05
1.54111e-05
1.53603e-05
1.99999e-05
1.98684e-05
1.96e-05
1.93409e-05
1.91196e-05
1.89667e-05
1.88525e-05
1.87623e-05
1.86529e-05
1.85497e-05
1.84437e-05
1.83535e-05
1.82575e-05
1.81691e-05
1.80748e-05
1.79853e-05
1.78937e-05
1.78062e-05
1.77141e-05
1.76287e-05
1.75351e-05
1.74495e-05
1.73564e-05
1.72705e-05
1.71769e-05
1.70938e-05
1.69997e-05
1.69175e-05
1.68267e-05
1.67466e-05
1.66561e-05
1.65797e-05
1.64942e-05
1.64198e-05
1.63374e-05
1.62698e-05
1.61925e-05
1.61279e-05
1.60553e-05
1.59959e-05
1.59302e-05
1.58734e-05
1.58124e-05
1.57621e-05
1.57062e-05
1.56597e-05
1.56057e-05
1.5564e-05
1.55117e-05
1.54632e-05
1.99999e-05
1.98713e-05
1.96091e-05
1.93569e-05
1.914e-05
1.8987e-05
1.88721e-05
1.87841e-05
1.86804e-05
1.85813e-05
1.84777e-05
1.83899e-05
1.82965e-05
1.82117e-05
1.81203e-05
1.80338e-05
1.79453e-05
1.786e-05
1.77713e-05
1.76879e-05
1.75971e-05
1.75138e-05
1.74228e-05
1.73385e-05
1.72473e-05
1.71653e-05
1.70727e-05
1.69923e-05
1.69025e-05
1.68233e-05
1.6734e-05
1.6659e-05
1.65739e-05
1.65004e-05
1.64194e-05
1.63529e-05
1.6276e-05
1.62126e-05
1.61415e-05
1.60835e-05
1.60182e-05
1.59626e-05
1.59032e-05
1.58541e-05
1.57989e-05
1.57534e-05
1.57003e-05
1.56597e-05
1.56064e-05
1.5561e-05
1.99999e-05
1.9874e-05
1.96176e-05
1.9372e-05
1.91598e-05
1.90074e-05
1.8892e-05
1.88055e-05
1.87069e-05
1.86121e-05
1.85112e-05
1.84258e-05
1.83348e-05
1.82534e-05
1.81648e-05
1.80814e-05
1.79957e-05
1.79126e-05
1.78272e-05
1.77457e-05
1.76577e-05
1.75766e-05
1.74874e-05
1.74049e-05
1.73158e-05
1.72348e-05
1.71439e-05
1.70649e-05
1.6976e-05
1.68975e-05
1.68095e-05
1.67355e-05
1.66506e-05
1.6578e-05
1.64983e-05
1.64322e-05
1.63558e-05
1.62936e-05
1.62238e-05
1.61666e-05
1.61015e-05
1.60472e-05
1.59892e-05
1.59407e-05
1.58861e-05
1.58416e-05
1.57893e-05
1.57493e-05
1.56954e-05
1.56532e-05
1.99999e-05
1.98765e-05
1.96255e-05
1.93861e-05
1.91789e-05
1.90276e-05
1.8912e-05
1.88265e-05
1.87323e-05
1.86422e-05
1.85441e-05
1.84611e-05
1.83724e-05