/*--------------------------------*- C++ -*----------------------------------*\
  =========                 |
  \\      /  F ield         | OpenFOAM: The Open Source CFD Toolbox
   \\    /   O peration     | Website:  https://openfoam.org
    \\  /    A nd           | Version:  7
     \\/     M anipulation  |
\*---------------------------------------------------------------------------*/
FoamFile
{
    version     2.0;
    format      ascii;
    class       volScalarField;
    location    "0.18";
    object      nut;
}
// * * * * * * * * * * * * * * * * * * * * * * * * * * * * * * * * * * * * * //

dimensions      [0 2 -1 0 0 0 0];

internalField   nonuniform List<scalar> 
70000
(
0
0
0
0
0
0
0
0
0
0
0
0
0
0
0
0
0
0
0
0
0
0
0
0
0
0
0
0
0
0
0
0
0
0
0
0
0
0
0
0
0
0
0
0
0
1.00916e-13
0
7.24093e-13
0
0
0
0
0
0
0
0
0
0
0
0
0
0
0
0
0
0
0
0
0
0
0
0
0
0
0
0
0
0
0
0
0
0
0
0
0
0
0
0
0
0
0
0
0
0
0
2.2972e-13
0
1.56754e-12
0
0
0
0
0
0
0
0
0
0
0
0
0
0
0
0
0
0
0
0
0
0
0
0
0
0
0
0
0
0
0
0
0
0
0
0
0
0
0
0
0
0
0
0
0
0
0
3.7137e-13
0
2.27703e-12
1.51822e-12
0
0
0
0
0
0
0
0
0
0
0
0
0
0
0
0
0
0
0
0
0
0
0
0
0
0
0
0
0
0
0
0
0
0
0
0
0
0
0
0
0
0
0
0
0
0
4.22567e-13
0
2.42703e-12
4.64202e-12
0
0
0
0
0
0
0
0
0
0
0
0
0
0
0
0
0
0
0
0
0
0
0
0
0
0
0
0
0
0
0
0
0
0
0
0
0
0
0
0
0
0
0
0
0
0
4.42436e-13
0
2.1849e-12
6.16417e-12
0
9.44724e-10
0
0
0
0
0
0
0
0
0
0
0
0
0
0
0
0
0
0
0
0
0
0
0
0
0
0
0
0
0
0
0
0
0
0
0
0
0
0
0
0
0
0
0
0
4.68653e-13
0
1.80724e-12
6.72198e-12
0
1.31842e-08
0
0
0
0
0
0
0
0
0
0
0
0
0
0
0
0
0
0
0
0
0
0
0
0
0
0
0
0
0
0
0
0
0
0
0
0
0
0
0
0
0
0
0
0
4.45566e-13
0
1.26759e-12
7.02373e-12
0
1.20777e-08
0
0
0
0
0
0
0
0
0
0
0
0
0
0
0
0
0
0
0
0
0
0
0
0
0
0
0
0
0
0
0
0
0
0
0
0
0
0
0
0
0
0
0
0
3.35625e-13
0
5.40313e-13
7.16155e-12
0
1.10589e-08
0
0
0
0
0
0
0
0
0
0
0
0
0
0
0
0
0
0
0
0
0
0
0
0
0
0
0
0
0
0
0
0
0
0
0
0
0
0
0
0
0
0
0
0
1.30259e-13
0
0
7.01849e-12
0
1.02109e-08
0
0
0
0
0
0
0
0
0
0
0
0
0
0
0
0
0
0
0
0
0
0
0
0
0
0
0
0
0
0
0
0
0
0
0
0
0
0
0
0
0
0
0
0
0
0
0
6.55509e-12
0
9.50035e-09
0
0
0
0
0
0
0
0
0
0
0
0
0
0
0
0
0
0
0
0
0
0
0
0
0
0
0
0
0
0
0
0
0
0
0
0
0
0
0
0
0
0
0
0
0
0
0
5.81949e-12
0
8.85687e-09
0
0
0
0
0
0
0
0
0
0
0
0
0
0
0
0
0
0
0
0
0
0
0
0
0
0
0
0
0
0
0
0
0
0
0
0
0
0
0
0
0
0
0
0
0
0
0
4.87069e-12
0
8.21479e-09
0
0
0
0
0
0
0
0
0
0
0
0
0
0
0
0
0
0
0
0
0
0
0
0
0
0
0
0
0
0
0
0
0
0
0
0
0
0
0
0
0
0
0
0
0
0
0
3.79078e-12
0
7.5543e-09
0
0
0
0
0
0
0
0
0
0
0
0
0
0
0
0
0
0
0
0
0
0
0
0
0
0
0
0
0
0
0
0
0
0
0
0
0
0
0
0
0
0
0
0
0
0
0
2.65119e-12
0
6.88156e-09
0
0
0
0
0
0
0
0
0
0
0
0
0
0
0
9.07032e-12
1.57462e-11
3.5387e-12
0
0
0
0
0
0
0
0
0
0
0
0
0
0
0
0
0
0
0
0
0
0
0
0
0
0
0
1.99432e-13
0
1.50045e-12
0
6.20762e-09
0
0
0
0
0
0
0
0
0
0
0
0
0
0
0
0
0
0
7.10557e-12
2.84371e-11
3.56809e-11
2.35019e-11
8.4603e-12
5.06035e-13
0
0
0
0
0
0
0
0
0
0
0
0
0
0
0
0
0
0
0
0
0
4.95899e-13
0
3.28571e-13
0
5.54098e-09
0
0
0
3.66229e-11
0
0
0
0
0
0
0
0
0
0
0
0
0
0
0
0
0
0
1.142e-11
2.92397e-11
4.42713e-11
5.12071e-11
4.31638e-11
2.59726e-11
1.22524e-11
4.53756e-12
6.02777e-13
0
0
0
0
0
0
0
0
0
0
0
0
0
0
8.60056e-13
0
0
0
4.88791e-09
0
0
0
1.15032e-10
0
0
0
0
0
0
0
0
0
0
0
0
0
0
0
0
0
0
0
0
0
0
5.78504e-12
1.84125e-11
3.17301e-11
4.47824e-11
5.63621e-11
6.35964e-11
6.12377e-11
4.76049e-11
3.07821e-11
1.74175e-11
9.4534e-12
4.20664e-12
2.03188e-12
0
0
0
0
0
0
1.48679e-12
0
0
0
4.2539e-09
0
0
0
1.64214e-10
0
0
0
0
0
0
0
0
0
0
0
0
0
0
0
0
0
0
0
0
0
0
0
0
0
0
0
6.63311e-12
1.4428e-11
2.27011e-11
3.18239e-11
4.02008e-11
4.89574e-11
5.51846e-11
6.08529e-11
5.99786e-11
5.38684e-11
3.95197e-11
2.41871e-11
1.42156e-11
6.67414e-13
4.01947e-12
0
0
0
3.64405e-09
0
0
0
1.6886e-10
0
0
0
0
0
0
0
0
0
0
0
0
0
0
0
0
0
0
0
0
0
0
0
0
0
0
0
0
0
0
0
5.68899e-13
4.90369e-12
7.09731e-12
1.22035e-11
1.43078e-11
1.89973e-11
2.20698e-11
2.168e-11
2.72078e-11
1.33441e-11
1.52694e-11
0
0
0
3.06263e-09
0
0
0
1.11323e-10
0
0
0
0
0
0
0
0
0
0
0
0
0
0
0
0
0
0
0
0
0
0
0
0
0
0
0
0
0
0
0
0
0
0
0
0
1.51674e-12
4.51454e-12
2.95745e-12
1.29831e-11
0
1.24728e-11
0
1.00912e-11
7.48472e-11
2.51259e-09
0
0
0
0
0
0
0
0
0
0
0
0
0
0
0
0
0
0
0
0
0
0
0
0
0
0
0
0
0
0
0
0
0
0
0
0
0
0
0
0
0
0
0
7.56346e-12
0
7.77944e-12
0
2.08081e-11
1.24786e-10
1.99522e-09
0
0
0
0
0
0
0
0
0
0
0
0
0
0
0
0
0
0
0
0
0
0
0
0
0
0
0
0
0
0
0
0
0
0
0
0
0
0
0
0
0
0
0
3.04923e-12
0
2.95901e-12
0
2.58577e-11
1.34812e-10
1.51012e-09
0
0
0
0
0
0
0
0
0
0
0
0
0
0
0
0
0
0
0
0
0
0
0
0
0
0
0
0
0
0
0
0
0
0
0
0
0
0
0
0
0
0
0
0
0
0
0
2.84632e-11
1.31301e-10
1.05529e-09
0
0
0
0
0
0
0
0
0
0
0
0
0
0
0
0
0
0
0
0
0
0
0
0
0
0
0
0
0
0
0
0
0
0
0
0
0
0
0
0
0
0
0
0
0
0
9.15689e-13
2.7473e-11
1.18071e-10
6.27572e-10
0
0
0
0
0
0
0
0
0
0
0
0
0
0
0
0
0
0
0
0
0
0
0
0
0
0
0
0
0
0
0
0
0
0
0
0
0
0
0
0
0
0
0
0
0
0
6.74788e-13
2.16461e-11
9.60934e-11
2.23178e-10
0
0
0
0
0
0
0
0
0
0
0
0
0
0
0
0
0
0
0
0
0
0
0
0
0
0
0
0
0
0
0
0
0
0
0
0
0
0
0
0
0
0
0
0
0
0
0
1.00376e-11
6.58473e-11
0
0
0
0
0
0
0
0
0
0
0
0
0
0
0
0
0
0
0
0
0
0
0
0
0
0
0
0
0
0
0
0
0
0
0
0
0
0
0
0
0
0
0
0
0
0
0
0
0
2.78521e-11
0
0
0
0
0
0
0
0
0
0
0
0
0
0
0
0
0
0
0
0
0
0
0
0
0
0
0
0
0
0
0
0
0
0
0
0
0
0
0
0
0
0
0
0
0
0
0
0
0
0
0
0
0
0
0
0
0
0
0
0
0
0
0
0
0
0
0
0
0
0
0
0
0
0
0
0
0
0
0
0
0
0
0
0
0
0
0
0
0
0
0
0
0
0
0
0
0
0
0
0
0
0
0
0
0
0
0
0
0
0
0
0
0
0
0
0
0
0
0
0
0
0
0
0
0
0
0
0
0
0
0
0
0
0
0
0
0
0
0
0
0
0
0
0
0
0
0
0
0
0
0
0
0
0
0
0
0
0
0
0
0
0
0
0
0
0
0
0
0
0
0
0
0
0
0
0
0
0
0
0
0
0
0
0
0
0
0
0
0
0
0
0
0
0
0
0
0
0
0
0
0
6.01882e-10
0
0
0
0
0
0
0
0
0
0
0
0
0
0
0
0
0
0
0
0
0
0
0
0
0
0
0
0
0
0
0
0
0
0
0
0
0
0
0
0
0
0
0
0
0
0
0
0
0
1.50452e-09
0
0
0
0
0
0
0
0
0
0
0
0
0
0
0
0
0
0
0
0
0
0
0
0
0
0
0
0
0
0
0
0
0
0
0
0
0
0
0
0
0
0
0
0
0
0
0
0
0
2.28108e-09
0
0
0
0
0
0
0
0
0
0
0
0
0
0
0
0
0
0
0
0
0
0
0
0
0
0
0
0
0
0
0
0
0
0
0
0
0
0
0
0
0
0
0
0
0
0
0
0
0
2.93429e-09
0
0
0
0
0
0
0
0
0
0
0
0
0
0
0
0
0
0
0
0
0
0
0
0
0
0
0
0
0
0
0
0
0
0
0
0
0
0
0
0
0
0
0
0
0
0
0
0
0
3.46989e-09
0
0
0
0
0
0
0
0
0
0
0
0
0
0
0
0
0
0
0
0
0
0
0
0
0
0
0
0
0
0
0
0
0
0
0
0
0
0
0
0
0
0
0
0
0
0
0
0
0
3.89573e-09
0
0
0
0
0
0
0
0
0
0
0
0
0
0
0
0
0
0
0
0
0
0
0
0
0
0
0
0
0
0
0
0
0
0
0
0
0
0
0
0
0
0
0
0
0
0
0
0
0
4.22047e-09
0
0
0
0
0
0
0
0
0
0
0
0
0
0
0
0
0
0
0
0
0
0
0
0
0
0
0
0
0
0
0
0
0
0
0
0
0
0
0
0
0
0
0
0
0
0
0
0
0
4.45334e-09
0
0
0
0
0
0
0
0
0
0
0
0
0
0
0
0
0
0
0
0
0
0
0
0
0
0
0
0
0
0
0
0
0
0
0
0
0
0
0
0
0
0
0
0
0
0
0
0
0
4.60473e-09
0
0
0
0
0
0
0
0
0
0
0
0
0
0
0
0
0
0
0
0
0
0
0
0
0
0
0
0
0
0
0
0
0
0
0
0
0
0
0
0
0
0
0
0
0
0
0
0
0
4.68602e-09
0
0
0
0
0
0
0
0
0
0
0
0
0
0
0
0
0
0
0
0
0
0
0
0
0
0
0
0
0
0
0
0
0
0
0
0
0
0
0
0
0
0
0
0
0
0
0
0
0
4.70854e-09
0
0
0
0
0
0
0
0
0
0
0
0
0
0
0
0
0
0
0
0
0
0
0
0
0
0
0
0
0
0
0
0
0
0
0
0
0
0
0
0
0
0
0
0
0
0
0
0
0
4.68268e-09
0
0
0
0
0
0
0
0
0
0
0
0
0
0
0
0
0
0
0
0
0
0
0
0
0
0
0
0
0
0
0
0
0
0
0
0
0
0
0
0
0
0
0
0
0
0
0
0
0
4.61749e-09
0
0
0
0
0
0
0
0
0
0
0
0
0
0
0
0
0
0
0
0
0
0
0
0
0
0
0
0
0
0
0
0
0
0
0
0
0
0
0
0
0
0
0
0
0
0
0
0
0
4.52065e-09
0
0
0
0
0
0
0
0
0
0
0
0
0
0
0
0
0
0
0
0
0
0
0
0
0
0
0
0
0
0
0
0
0
0
0
0
0
0
0
0
0
0
0
0
0
0
0
0
0
4.39855e-09
0
0
0
0
0
0
0
0
0
0
0
0
0
0
0
0
0
0
0
0
0
0
0
0
0
0
0
0
0
0
0
0
0
0
0
0
0
0
0
0
0
0
0
0
0
0
0
0
0
4.25643e-09
0
0
0
0
0
0
0
0
0
0
0
0
0
0
0
0
0
0
0
0
0
0
0
0
0
0
0
0
0
0
0
0
0
0
0
0
0
0
0
0
0
0
0
0
0
0
0
0
0
4.09862e-09
0
0
0
0
0
0
0
0
0
0
0
0
0
0
0
0
0
0
0
0
0
0
0
0
0
0
0
0
0
0
0
0
0
0
0
0
0
0
0
0
0
0
0
0
0
0
0
0
0
3.92878e-09
0
0
0
0
0
0
0
0
0
0
0
0
0
0
0
0
0
0
0
0
0
0
0
0
0
0
0
0
0
0
0
0
0
0
0
0
0
0
0
0
0
0
0
0
0
0
0
0
0
3.75008e-09
0
0
0
0
0
0
0
0
0
0
0
0
0
0
0
0
0
0
0
0
0
0
0
0
0
0
0
0
0
0
0
0
0
0
0
0
0
0
0
0
0
0
0
0
0
0
0
0
0
3.56524e-09
0
0
0
0
0
0
0
0
0
0
0
0
0
0
0
0
0
0
0
0
0
0
0
0
0
0
0
0
0
0
0
0
0
0
0
0
0
0
0
0
0
0
0
0
0
0
0
0
0
3.37659e-09
0
0
0
0
0
0
0
0
0
0
0
0
0
0
0
0
0
0
0
0
0
0
0
0
0
0
0
0
0
0
0
0
0
0
0
0
0
0
0
0
0
0
0
0
0
0
0
0
0
3.1862e-09
0
0
0
0
0
0
0
0
0
0
0
0
0
0
0
0
0
0
0
0
0
0
0
0
0
0
0
0
0
0
0
0
0
0
0
0
0
0
0
0
0
0
0
0
0
0
0
0
0
2.99598e-09
0
0
0
0
0
0
0
0
0
0
0
0
0
0
0
0
0
0
0
0
0
0
0
0
0
0
0
0
0
0
0
0
0
0
0
0
0
0
0
0
0
0
0
0
0
0
0
0
0
2.80768e-09
0
0
0
0
0
0
0
0
0
0
0
0
0
0
0
0
0
0
0
0
0
0
0
0
0
0
0
0
0
0
0
0
0
0
0
0
0
0
0
0
0
0
0
0
0
0
0
0
0
2.62287e-09
0
0
0
0
0
0
0
0
0
0
0
0
0
0
0
0
0
0
0
0
0
0
0
0
0
0
0
0
0
0
0
0
0
0
0
0
0
0
0
0
0
0
0
0
0
0
0
0
0
2.44283e-09
0
0
0
0
0
0
0
0
0
0
0
0
0
0
0
0
0
0
0
0
0
0
0
0
0
0
0
0
0
0
0
0
0
0
0
0
0
0
0
0
0
0
0
0
0
0
0
0
0
2.26861e-09
0
0
0
0
0
0
0
0
0
0
0
0
0
0
0
0
0
0
0
0
0
0
0
0
0
0
0
0
0
0
0
0
0
0
0
0
0
0
0
0
0
0
0
0
0
0
0
0
0
2.10096e-09
0
0
0
0
0
0
0
0
0
0
0
0
0
0
0
0
0
0
0
0
0
0
0
0
0
0
0
0
0
0
0
0
0
0
0
0
0
0
0
0
0
0
0
0
0
0
0
0
0
1.94043e-09
0
0
0
0
0
0
0
0
0
0
0
0
0
0
0
0
0
0
0
0
0
0
0
0
0
0
0
0
0
0
0
0
0
0
0
0
0
0
0
0
0
0
0
0
0
0
0
0
0
1.78736e-09
0
0
0
0
0
0
0
0
0
0
0
0
0
0
0
0
0
0
0
0
0
0
0
0
0
0
0
0
0
0
0
0
0
0
0
0
0
0
0
0
0
0
0
0
0
0
0
0
0
1.64193e-09
0
0
0
0
0
0
0
0
0
0
0
0
0
0
0
0
0
0
0
0
0
0
0
0
0
0
0
0
0
0
0
0
0
0
0
0
0
0
0
0
0
0
0
0
0
0
0
1.48601e-12
0
1.50418e-09
0
0
0
0
0
0
0
0
0
0
0
0
0
0
0
0
0
0
0
0
0
0
0
0
0
0
0
0
0
0
0
0
0
0
0
0
0
0
0
0
0
0
0
0
0
0
2.92304e-11
2.23723e-11
0
1.37407e-09
0
0
0
0
0
0
0
0
0
0
0
0
0
0
0
0
0
0
0
0
0
0
0
0
0
0
0
0
0
0
0
0
0
0
0
0
0
0
0
0
0
0
0
0
0
0
6.31335e-11
3.06317e-11
0
1.25148e-09
0
0
0
0
0
0
0
0
0
0
0
0
0
0
0
0
0
0
0
0
0
0
0
0
0
0
0
0
0
0
0
0
0
0
0
0
0
0
0
0
0
0
0
0
0
3.82528e-13
8.48518e-11
2.65651e-11
0
1.13621e-09
0
0
0
0
0
0
0
0
0
0
0
0
0
0
0
0
0
0
0
0
0
0
0
0
0
0
0
0
0
0
0
0
0
0
0
0
0
0
0
0
0
0
0
0
0
2.54972e-11
9.46185e-11
1.11011e-11
0
1.028e-09
0
0
0
0
0
0
0
0
0
0
0
0
0
0
0
0
0
0
0
0
0
0
0
0
0
0
0
0
0
0
0
0
0
0
0
0
0
0
0
0
0
0
0
0
0
4.07188e-11
9.32908e-11
0
0
9.26541e-10
0
0
0
0
0
0
0
0
0
0
0
0
0
0
0
0
0
0
0
0
0
0
0
0
0
0
0
0
0
0
0
0
0
0
0
0
0
0
0
0
0
0
0
0
0
4.70531e-11
8.2379e-11
0
0
8.31482e-10
0
0
0
0
0
0
0
0
0
0
0
0
0
0
0
0
0
0
0
0
0
0
0
0
0
0
0
0
0
0
0
0
0
0
0
0
0
0
0
0
0
0
0
0
1.35891e-13
4.61134e-11
6.40969e-11
0
0
7.42469e-10
0
0
0
0
0
0
0
0
0
0
0
0
0
0
0
0
0
0
0
0
0
0
0
0
0
0
0
0
0
0
0
0
0
0
0
0
0
0
0
0
0
0
0
0
9.53946e-12
4.00425e-11
4.12888e-11
0
0
6.59138e-10
0
0
0
0
0
0
0
0
0
0
0
0
0
0
0
0
0
0
0
0
0
0
0
0
0
0
0
0
0
1.57821e-11
7.91942e-11
1.0113e-10
9.22781e-11
6.35008e-11
2.46747e-11
0
0
0
0
0
0
0
0
0
1.6051e-11
3.1477e-11
1.74038e-11
0
0
5.81128e-10
0
0
0
0
0
0
0
0
0
0
0
0
0
0
0
0
0
0
0
0
0
0
0
0
0
0
0
0
8.45511e-11
1.94404e-10
2.50502e-10
2.63288e-10
2.43583e-10
2.02931e-10
1.51532e-10
9.84012e-11
5.03724e-11
1.20267e-11
0
0
0
0
0
6.12e-12
2.14778e-11
2.3194e-11
0
0
0
5.08077e-10
0
0
0
0
0
0
0
0
0
0
0
0
0
0
0
0
0
0
0
0
0
0
0
0
0
0
0
9.6515e-11
2.63322e-10
3.66423e-10
4.13867e-10
4.16499e-10
3.85242e-10
3.32275e-10
2.6809e-10
2.02283e-10
1.4187e-10
9.17939e-11
5.47349e-11
3.07424e-11
1.92408e-11
1.61075e-11
1.99165e-11
2.30053e-11
2.70799e-11
1.75801e-11
0
0
0
4.39657e-10
0
0
0
0
0
0
0
0
0
0
0
0
0
0
0
0
0
0
0
0
0
0
0
0
0
0
3.86746e-11
2.68598e-10
4.27355e-10
5.21266e-10
5.58164e-10
5.49286e-10
5.05598e-10
4.39933e-10
3.63025e-10
2.85011e-10
2.13099e-10
1.52559e-10
1.05999e-10
7.35203e-11
5.41925e-11
4.37868e-11
4.03408e-11
3.62751e-11
3.26862e-11
1.5925e-11
0
0
0
3.75596e-10
0
0
0
0
0
0
0
0
0
0
0
0
0
0
0
0
0
0
0
0
0
0
0
0
0
0
1.99786e-10
4.18027e-10
5.64585e-10
6.45805e-10
6.69356e-10
6.4684e-10
5.89373e-10
5.10338e-10
4.20771e-10
3.31285e-10
2.49292e-10
1.80347e-10
1.27009e-10
8.93509e-11
6.60591e-11
5.26949e-11
4.67125e-11
4.05474e-11
3.4657e-11
1.63621e-11
0
0
0
3.15687e-10
0
0
0
0
0
0
0
0
0
0
0
0
0
0
0
0
0
0
0
0
0
0
0
0
0
5.7526e-11
3.32371e-10
5.32515e-10
6.61061e-10
7.24405e-10
7.30314e-10
6.90728e-10
6.17095e-10
5.23249e-10
4.20592e-10
3.2013e-10
2.29587e-10
1.54744e-10
9.81863e-11
5.98332e-11
3.79396e-11
2.76584e-11
2.57497e-11
2.45076e-11
2.36987e-11
1.15828e-11
0
0
0
2.5982e-10
0
0
0
0
0
0
0
0
0
0
0
0
0
0
0
0
0
0
0
0
0
0
0
0
0
1.77049e-10
4.25132e-10
5.98933e-10
7.01656e-10
7.3985e-10
7.21695e-10
6.59548e-10
5.65457e-10
4.53641e-10
3.36022e-10
2.2394e-10
1.25627e-10
4.70376e-11
0
0
0
0
0
0
0
0
0
0
0
2.08065e-10
0
0
0
0
0
0
0
0
0
0
0
0
0
0
0
0
0
0
0
0
0
0
0
0
0
2.5618e-10
4.66833e-10
6.03755e-10
6.70762e-10
6.74254e-10
6.23265e-10
5.30588e-10
4.09095e-10
2.73301e-10
1.35949e-10
8.82456e-12
0
0
0
0
0
0
0
0
0
0
0
0
0
1.60775e-10
0
0
0
0
0
0
0
0
0
0
0
0
0
0
0
0
0
0
0
0
0
0
0
0
5.04074e-11
2.87856e-10
4.49111e-10
5.36776e-10
5.55459e-10
5.12141e-10
4.16664e-10
2.8209e-10
1.2262e-10
0
0
0
0
0
0
0
0
0
0
0
0
0
0
0
0
1.18804e-10
0
0
0
0
0
0
0
0
0
0
0
0
0
0
0
0
0
0
0
0
0
0
0
0
9.1649e-11
2.67783e-10
3.66812e-10
3.91955e-10
3.4855e-10
2.44408e-10
9.01721e-11
0
0
0
0
0
0
0
0
0
0
0
0
0
0
0
0
0
0
8.38309e-11
0
0
0
0
0
0
0
0
0
0
0
0
0
0
0
0
0
0
0
0
0
0
0
0
9.46646e-11
1.97452e-10
2.21616e-10
1.70981e-10
5.15535e-11
0
0
0
0
0
0
0
0
0
0
0
0
0
0
0
0
0
0
0
0
5.89892e-11
0
0
0
0
0
0
0
0
0
0
0
0
0
0
0
0
0
0
0
0
0
0
0
0
6.57334e-11
8.50148e-11
2.38598e-11
0
0
0
0
0
0
0
0
0
0
0
0
0
0
0
0
0
0
0
0
0
0
4.99336e-11
0
0
0
0
0
0
0
0
0
0
0
0
0
0
0
0
0
0
0
0
0
0
0
4.67919e-12
1.8365e-11
0
0
0
0
0
0
0
0
0
0
0
0
0
0
0
0
0
0
0
0
0
0
0
0
6.69372e-11
0
0
0
0
0
0
0
0
0
0
0
0
0
0
0
0
0
0
0
0
0
0
3.98084e-11
5.06263e-11
0
0
0
0
0
0
0
0
0
0
0
0
0
0
0
0
0
0
0
0
0
0
0
0
0
1.28672e-10
0
0
0
0
0
0
0
0
0
0
0
0
0
0
0
0
0
0
0
0
8.76258e-11
1.89137e-10
2.01618e-10
1.24353e-10
0
0
0
0
0
0
0
0
0
0
0
0
0
0
0
0
0
0
0
0
0
0
0
0
0
2.68757e-10
0
0
0
0
0
0
0
0
0
0
0
0
0
0
0
0
0
0
1.61455e-10
3.55313e-10
4.64035e-10
4.83913e-10
4.136e-10
2.54087e-10
8.47743e-12
0
0
0
0
0
0
0
0
0
0
0
0
0
0
0
0
0
0
0
0
0
0
0
0
5.46215e-10
0
0
0
0
0
0
0
0
0
0
0
0
0
0
0
0
2.65211e-10
5.46708e-10
7.50962e-10
8.71683e-10
9.04622e-10
8.48032e-10
7.02676e-10
4.71667e-10
1.6023e-10
0
0
0
0
0
0
0
0
0
0
0
0
0
0
0
0
0
0
0
0
0
0
0
0
1.05614e-09
0
0
0
0
0
0
0
0
0
0
0
0
0
0
4.04375e-10
7.66487e-10
1.06041e-09
1.27928e-09
1.41677e-09
1.46821e-09
1.43147e-09
1.30716e-09
1.09854e-09
8.11176e-10
4.52639e-10
3.21185e-11
0
0
0
0
0
0
0
0
0
0
0
0
0
0
0
0
0
0
0
0
0
0
0
1.93157e-09
0
0
0
0
0
0
0
0
0
0
0
8.56428e-11
5.80992e-10
1.01959e-09
1.39678e-09
1.70723e-09
1.94482e-09
2.10347e-09
2.1783e-09
2.16672e-09
2.06909e-09
1.88875e-09
1.63174e-09
1.30626e-09
9.22304e-10
4.91233e-10
2.53027e-11
0
0
0
0
0
0
0
0
0
0
0
0
0
0
0
0
0
0
1.4022e-10
1.07589e-09
2.26882e-09
0
3.25115e-09
0
0
0
0
0
0
0
0
0
2.39086e-10
7.99644e-10
1.31123e-09
1.76737e-09
2.16299e-09
2.49337e-09
2.75325e-09
2.93694e-09
3.03939e-09
3.05751e-09
2.99115e-09
2.8435e-09
2.62087e-09
2.33214e-09
1.98815e-09
1.60113e-09
1.18431e-09
7.51495e-10
3.16572e-10
0
0
0
0
0
0
0
0
0
0
0
0
1.11675e-10
8.21246e-10
1.64346e-09
2.57068e-09
3.59277e-09
4.71362e-09
6.04873e-09
7.98756e-09
3.90631e-09
4.38341e-09
0
0
0
0
0
0
0
5.0206e-10
1.09026e-09
1.65818e-09
2.18413e-09
2.65827e-09
3.07463e-09
3.42756e-09
3.71235e-09
3.924e-09
4.05748e-09
4.10911e-09
4.07793e-09
3.96654e-09
3.78113e-09
3.53097e-09
3.22765e-09
2.88431e-09
2.51507e-09
2.13453e-09
1.75749e-09
1.39853e-09
1.07159e-09
7.899e-10
5.6606e-10
4.12317e-10
3.39856e-10
3.59093e-10
4.79373e-10
7.08506e-10
1.05174e-09
1.51439e-09
2.09979e-09
2.80991e-09
3.64394e-09
4.59798e-09
5.66379e-09
6.8294e-09
8.07855e-09
9.41525e-09
1.10267e-08
1.34958e-08
1.41034e-08
4.17976e-09
0
0
0
0
2.71483e-10
8.95225e-10
1.52501e-09
2.11355e-09
2.67737e-09
3.21532e-09
3.70577e-09
4.14135e-09
4.51842e-09
4.8309e-09
5.07313e-09
5.24033e-09
5.32864e-09
5.3361e-09
5.26416e-09
5.11826e-09
4.90762e-09
4.64435e-09
4.34247e-09
4.017e-09
3.68337e-09
3.35695e-09
3.05285e-09
2.78567e-09
2.56926e-09
2.41632e-09
2.3384e-09
2.34664e-09
2.45102e-09
2.6599e-09
2.97957e-09
3.41146e-09
3.95942e-09
4.62962e-09
5.4243e-09
6.3438e-09
7.38474e-09
8.53949e-09
9.79496e-09
1.11328e-08
1.25274e-08
1.39783e-08
1.57234e-08
1.84124e-08
1.49899e-08
3.22412e-09
8.49134e-10
5.69673e-10
7.96138e-10
1.184e-09
1.63322e-09
2.21789e-09
2.98612e-09
3.70866e-09
4.34788e-09
4.89932e-09
5.3741e-09
5.77779e-09
6.11574e-09
6.39016e-09
6.59494e-09
6.72348e-09
6.77294e-09
6.74374e-09
6.64011e-09
6.47046e-09
6.24685e-09
5.98379e-09
5.69717e-09
5.40336e-09
5.11859e-09
4.85856e-09
4.63817e-09
4.47151e-09
4.37178e-09
4.35109e-09
4.41997e-09
4.58775e-09
4.86229e-09
5.24945e-09
5.75067e-09
6.36003e-09
7.08686e-09
7.93567e-09
8.90698e-09
9.99833e-09
1.12025e-08
1.25067e-08
1.38917e-08
1.53306e-08
1.67858e-08
1.82453e-08
1.99392e-08
2.24229e-08
5.26812e-09
3.05427e-09
2.56903e-09
2.44421e-09
2.51162e-09
2.76683e-09
3.13148e-09
3.54656e-09
4.27342e-09
5.20889e-09
5.98507e-09
6.61484e-09
7.13389e-09
7.55019e-09
7.87311e-09
8.11972e-09
8.29419e-09
8.39212e-09
8.41127e-09
8.35426e-09
8.22841e-09
8.04524e-09
7.81943e-09
7.56757e-09
7.30699e-09
7.0549e-09
6.82777e-09
6.64106e-09
6.50903e-09
6.44487e-09
6.46078e-09
6.56801e-09
6.77603e-09
7.09244e-09
7.52284e-09
8.06977e-09
8.72728e-09
9.48572e-09
1.03615e-08
1.13566e-08
1.24686e-08
1.36911e-08
1.50118e-08
1.6412e-08
1.78646e-08
1.93319e-08
2.07606e-08
2.20953e-08
2.3397e-08
2.55432e-08
2.51039e-10
3.03488e-09
3.7703e-09
4.08031e-09
4.19436e-09
4.33613e-09
4.63679e-09
5.01484e-09
5.50413e-09
6.50026e-09
7.5412e-09
8.32433e-09
8.93031e-09
9.40538e-09
9.76674e-09
1.00222e-08
1.01839e-08
1.02614e-08
1.02597e-08
1.01849e-08
1.00471e-08
9.86067e-09
9.64232e-09
9.41027e-09
9.18292e-09
8.97802e-09
8.81209e-09
8.70013e-09
8.65556e-09
8.69044e-09
8.81573e-09
9.04141e-09
9.37591e-09
9.82492e-09
1.03914e-08
1.10733e-08
1.18546e-08
1.27331e-08
1.37275e-08
1.4836e-08
1.60523e-08
1.7365e-08
1.87558e-08
2.01987e-08
2.16567e-08
2.30788e-08
2.43715e-08
2.53012e-08
2.60105e-08
2.78738e-08
0
2.71377e-09
4.17545e-09
5.08568e-09
5.68851e-09
5.9162e-09
6.12843e-09
6.50132e-09
6.90955e-09
7.53837e-09
8.8339e-09
9.95389e-09
1.07572e-08
1.13469e-08
1.17772e-08
1.20724e-08
1.22517e-08
1.23316e-08
1.23251e-08
1.22452e-08
1.21068e-08
1.19268e-08
1.17241e-08
1.15182e-08
1.13285e-08
1.11732e-08
1.10685e-08
1.10286e-08
1.1066e-08
1.11916e-08
1.14151e-08
1.17451e-08
1.2189e-08
1.27506e-08
1.34296e-08
1.42177e-08
1.50894e-08
1.60622e-08
1.71467e-08
1.83369e-08
1.96215e-08
2.09831e-08
2.23966e-08
2.38267e-08
2.52244e-08
2.65044e-08
2.74231e-08
2.76145e-08
2.79416e-08
2.95124e-08
0
2.25249e-09
4.0681e-09
5.35677e-09
6.67616e-09
7.37251e-09
7.66623e-09
7.96428e-09
8.40456e-09
8.84673e-09
9.70186e-09
1.127e-08
1.24447e-08
1.32667e-08
1.38378e-08
1.4223e-08
1.44607e-08
1.45764e-08
1.45915e-08
1.45265e-08
1.44021e-08
1.42395e-08
1.406e-08
1.38848e-08
1.37346e-08
1.36279e-08
1.35811e-08
1.36076e-08
1.37187e-08
1.39238e-08
1.42315e-08
1.46489e-08
1.51823e-08
1.58337e-08
1.65986e-08
1.74586e-08
1.83941e-08
1.94365e-08
2.05828e-08
2.18224e-08
2.31381e-08
2.45059e-08
2.58917e-08
2.72487e-08
2.84963e-08
2.94191e-08
2.95156e-08
2.92545e-08
2.92666e-08
3.05966e-08
0
1.81515e-09
3.71802e-09
5.16724e-09
6.94654e-09
8.45988e-09
9.1386e-09
9.43031e-09
9.79368e-09
1.02676e-08
1.07645e-08
1.19057e-08
1.36534e-08
1.48905e-08
1.57379e-08
1.63045e-08
1.66625e-08
1.68619e-08
1.69381e-08
1.69196e-08
1.68329e-08
1.67042e-08
1.65588e-08
1.6421e-08
1.63133e-08
1.62554e-08
1.62632e-08
1.63494e-08
1.6524e-08
1.67952e-08
1.71701e-08
1.7655e-08
1.82552e-08
1.89708e-08
1.97918e-08
2.06889e-08
2.16711e-08
2.27569e-08
2.39355e-08
2.51899e-08
2.64961e-08
2.78213e-08
2.91204e-08
3.03156e-08
3.11987e-08
3.12475e-08
3.08142e-08
3.02512e-08
3.00521e-08
3.12485e-08
0
1.44668e-09
3.26255e-09
4.66684e-09
6.53212e-09
8.69619e-09
1.00559e-08
1.0623e-08
1.09059e-08
1.13236e-08
1.18103e-08
1.23621e-08
1.37205e-08
1.55582e-08
1.68432e-08
1.77201e-08
1.83007e-08
1.86638e-08
1.88657e-08
1.89473e-08
1.89421e-08
1.88815e-08
1.87959e-08
1.87144e-08
1.86627e-08
1.86615e-08
1.87267e-08
1.88698e-08
1.90997e-08
1.94233e-08
1.98472e-08
2.03771e-08
2.10177e-08
2.1767e-08
2.26083e-08
2.35163e-08
2.45208e-08
2.5617e-08
2.67883e-08
2.80112e-08
2.92539e-08
3.04731e-08
3.15913e-08
3.23976e-08
3.23497e-08
3.18367e-08
3.11314e-08
3.04148e-08
3.01657e-08
3.13881e-08
0
0
0
0
3.75575e-11
1.89266e-10
1.5327e-10
8.83609e-11
5.52647e-11
4.10077e-11
3.15383e-11
2.54838e-11
2.19391e-11
1.97102e-11
1.71466e-11
1.44585e-11
1.2269e-11
1.11906e-11
1.08137e-11
1.00559e-11
6.5055e-12
0
0
0
0
0
0
0
0
5.86508e-10
1.84225e-09
3.3641e-09
4.38557e-09
4.23909e-09
2.66016e-09
1.05955e-09
2.51332e-10
1.11681e-10
3.58446e-10
8.89524e-10
1.72341e-09
3.33508e-09
3.70027e-09
7.23049e-12
0
0
0
0
0
0
4.40303e-09
9.40461e-09
9.0725e-09
0
0
0
9.13296e-08
5.56579e-07
3.00148e-07
1.33647e-07
3.91701e-08
0
0
0
0
0
0
0
0
0
0
0
4.22654e-10
1.93238e-10
0
0
0
0
0
0
0
0
0
0
0
0
0
0
3.29595e-08
3.72652e-08
3.5046e-08
3.13655e-08
3.212e-08
2.70322e-08
3.39348e-08
2.94914e-08
5.17982e-08
3.76778e-08
2.57471e-08
0
0
0
0
0
0
6.28189e-11
7.11147e-11
5.75124e-11
4.6114e-11
3.71015e-11
2.87406e-11
2.27903e-11
1.92963e-11
1.75614e-11
1.60165e-11
1.42884e-11
1.2414e-11
1.08756e-11
9.69308e-12
8.40687e-12
5.2783e-12
0
0
0
0
0
0
0
0
6.11534e-10
1.7836e-09
3.16152e-09
4.06263e-09
3.87006e-09
2.33015e-09
8.58219e-10
2.03669e-10
1.51135e-10
4.28207e-10
9.42022e-10
1.67431e-09
3.2792e-09
4.18322e-09
2.11738e-09
0
0
0
0
0
0
4.33572e-09
8.64405e-09
7.70706e-09
0
0
0
1.75478e-07
5.32249e-07
3.15635e-07
1.43781e-07
4.36703e-08
0
0
0
0
0
0
0
0
0
0
0
2.15857e-10
1.65976e-10
0
0
0
0
0
0
0
0
0
0
0
0
0
0
2.8464e-08
3.89539e-08
3.65806e-08
3.23207e-08
3.23542e-08
2.69651e-08
3.26026e-08
2.65759e-08
4.5952e-08
2.74891e-08
3.65221e-08
1.20637e-08
0
0
0
0
0
6.30807e-12
2.2772e-11
2.85172e-11
2.92087e-11
2.62699e-11
2.1279e-11
1.70154e-11
1.42732e-11
1.29589e-11
1.20991e-11
1.12982e-11
1.03118e-11
9.343e-12
8.40759e-12
7.32087e-12
4.79382e-12
0
0
0
0
0
0
0
4.18309e-11
6.39519e-10
1.72416e-09
2.9608e-09
3.74539e-09
3.51009e-09
2.02602e-09
6.70077e-10
1.56517e-10
2.05988e-10
5.27978e-10
1.02362e-09
1.69782e-09
3.16537e-09
4.52624e-09
3.66245e-09
0
0
0
0
0
0
4.16486e-09
7.78785e-09
6.41577e-09
0
0
0
2.14035e-07
5.00103e-07
3.27283e-07
1.53194e-07
4.79275e-08
1.24382e-09
0
0
0
0
0
0
0
0
0
0
0
1.35761e-10
0
0
0
0
0
0
0
0
0
0
0
0
0
0
2.15753e-08
4.03662e-08
3.851e-08
3.36746e-08
3.29389e-08
2.71757e-08
3.14105e-08
2.43281e-08
3.85407e-08
1.7905e-08
3.66638e-08
9.41258e-08
0
1.55158e-11
0
0
0
0
0
8.51774e-12
1.37708e-11
1.4621e-11
1.26286e-11
1.02959e-11
8.64196e-12
7.88165e-12
7.52218e-12
7.33286e-12
7.08736e-12
6.8264e-12
6.48113e-12
5.90462e-12
4.13045e-12
0
0
0
0
0
0
0
1.00143e-10
6.62232e-10
1.64809e-09
2.73664e-09
3.39913e-09
3.10846e-09
1.71146e-09
4.93661e-10
1.15669e-10
2.7855e-10
6.5641e-10
1.13136e-09
1.76429e-09
2.96621e-09
4.73782e-09
4.68483e-09
3.59025e-10
0
0
0
0
0
3.84974e-09
6.79749e-09
5.16137e-09
0
0
0
2.34614e-07
4.67146e-07
3.33891e-07
1.60622e-07
5.15234e-08
3.10724e-09
0
0
0
0
0
0
0
0
0
0
0
6.88593e-11
0
0
0
0
0
0
0
0
0
0
0
0
0
0
1.38969e-08
4.07486e-08
4.06673e-08
3.53898e-08
3.37809e-08
2.76076e-08
3.03337e-08
2.31887e-08
3.06871e-08
8.75611e-09
2.02854e-08
1.39267e-07
3.71937e-12
2.70396e-11
0
0
0
0
0
0
3.23357e-12
5.52197e-12
5.2696e-12
4.31422e-12
3.57263e-12
3.32957e-12
3.34438e-12
3.50987e-12
3.69734e-12
3.91259e-12
4.04953e-12
3.89849e-12
2.83643e-12
0
0
0
0
0
0
0
1.51207e-10
6.69423e-10
1.54242e-09
2.48233e-09
3.02449e-09
2.66004e-09
1.38401e-09
3.34018e-10
9.24317e-11
3.72157e-10
8.1096e-10
1.26701e-09
1.85259e-09
2.77684e-09
4.75406e-09
5.32757e-09
2.74254e-09
0
0
0
0
0
3.38527e-09
5.68979e-09
3.96687e-09
0
0
0
2.47178e-07
4.38328e-07
3.35759e-07
1.65112e-07
5.3897e-08
4.71836e-09
0
0
0
0
0
0
0
0
0
0
0
0
0
0
0
0
0
0
0
0
0
0
0
0
0
0
8.09529e-09
3.89216e-08
4.2775e-08
3.73625e-08
3.48271e-08
2.81586e-08
2.94208e-08
2.27802e-08
2.41824e-08
8.26269e-10
1.45394e-09
1.26185e-07
8.54429e-12
3.66509e-11
0
0
0
0
0
0
0
1.32962e-13
4.97263e-13
1.99109e-13
0
1.9878e-14
2.53154e-13
6.037e-13
1.00525e-12
1.46574e-12
1.87393e-12
1.97493e-12
1.47964e-12
0
0
0
0
0
0
0
1.87489e-10
6.55162e-10
1.40797e-09
2.20952e-09
2.64022e-09
2.19654e-09
1.04889e-09
1.90818e-10
9.81889e-11
4.94438e-10
9.92842e-10
1.43445e-09
1.94913e-09
2.66683e-09
4.56485e-09
5.70783e-09
4.47164e-09
0
0
0
0
0
2.78294e-09
4.48576e-09
2.80909e-09
0
0
1.16987e-08
2.56155e-07
4.15006e-07
3.33912e-07
1.6622e-07
5.46424e-08
5.97196e-09
0
0
0
0
0
0
0
0
0
0
0
0
0
0
0
0
0
0
0
0
0
0
0
0
0
0
5.43624e-09
3.37258e-08
4.44906e-08
3.95302e-08
3.60715e-08
2.88196e-08
2.86821e-08
2.27624e-08
1.96315e-08
0
0
1.03995e-07
8.80608e-12
4.25016e-11
0
0
0
0
0
0
0
0
0
0
0
0
0
0
0
0
3.53571e-13
5.79527e-13
4.77026e-13
0
0
0
0
0
0
1.8464e-11
2.07515e-10
6.19824e-10
1.25797e-09
1.93567e-09
2.26443e-09
1.7552e-09
7.15316e-10
6.46065e-11
1.4573e-10
6.56188e-10
1.20569e-09
1.63975e-09
2.04755e-09
2.60263e-09
4.19197e-09
5.89477e-09
5.56244e-09
5.80527e-10
0
0
0
0
2.05862e-09
3.20625e-09
1.68219e-09
0
0
4.34599e-08
2.63646e-07
3.9725e-07
3.29218e-07
1.63703e-07
5.34957e-08
6.75818e-09
0
0
0
0
0
0
0
0
0
0
0
0
0
0
0
0
0
0
0
0
0
0
0
0
0
1.0123e-09
5.52412e-09
2.52453e-08
4.51562e-08
4.1799e-08
3.75145e-08
2.96214e-08
2.81294e-08
2.29828e-08
1.68005e-08
0
0
8.29732e-08
6.77056e-12
4.43032e-11
0
0
0
0
0
0
0
0
0
0
0
0
0
0
0
0
0
0
0
0
0
0
0
0
0
4.10127e-11
2.15314e-10
5.75078e-10
1.11515e-09
1.68027e-09
1.91463e-09
1.34764e-09
3.89526e-10
0
2.52078e-10
8.7007e-10
1.44939e-09
1.88082e-09
2.14959e-09
2.54928e-09
3.69716e-09
5.85115e-09
6.18172e-09
2.85883e-09
0
0
0
0
1.22958e-09
1.87083e-09
5.74302e-10
0
1.57922e-09
7.18864e-08
2.70811e-07
3.84811e-07
3.22571e-07
1.57262e-07
5.02981e-08
6.9823e-09
0
0
0
0
0
0
0
0
0
0
0
0
0
0
0
0
0
0
0
0
0
0
0
0
0
3.15955e-09
7.4026e-09
1.64919e-08
4.34464e-08
4.40269e-08
3.91528e-08
3.05982e-08
2.77715e-08
2.33978e-08
1.51999e-08
0
0
6.57891e-08
4.15996e-12
4.3609e-11
3.98431e-12
0
0
0
0
0
0
0
0
0
0
0
0
0
0
0
0
0
0
0
0
0
0
0
0
5.71761e-11
2.17759e-10
5.36189e-10
9.99742e-10
1.46507e-09
1.59932e-09
9.61415e-10
6.67125e-11
0
4.39529e-10
1.1453e-09
1.70859e-09
2.12616e-09
2.26693e-09
2.48816e-09
3.30194e-09
5.47754e-09
6.45735e-09
4.49157e-09
0
0
0
0
3.09648e-10
4.99878e-10
0
4.6668e-11
1.01903e-08
9.68942e-08
2.78197e-07
3.77639e-07
3.14921e-07
1.46776e-07
4.47273e-08
6.58798e-09
0
0
0
0
0
0
0
0
0
0
0
0
0
0
0
0
0
0
0
0
0
0
0
0
0
5.37949e-09
1.01961e-08
1.15039e-08
3.75276e-08
4.57773e-08
4.09461e-08
3.17848e-08
2.76116e-08
2.40029e-08
1.44216e-08
0
0
5.21593e-08
1.61303e-12
4.16392e-11
8.7493e-12
0
0
0
0
0
0
0
0
0
0
0
0
0
0
0
0
0
0
0
0
0
0
0
7.41896e-12
7.25688e-11
2.23071e-10
5.15112e-10
9.23824e-10
1.3013e-09
1.31149e-09
5.63485e-10
0
0
7.31168e-10
1.47738e-09
1.97836e-09
2.36031e-09
2.40029e-09
2.40989e-09
2.96039e-09
4.84706e-09
6.41669e-09
5.43494e-09
0
0
0
0
0
0
0
1.02846e-09
1.87438e-08
1.18534e-07
2.85933e-07
3.75911e-07
3.06163e-07
1.31207e-07
3.68496e-08
5.5907e-09
0
0
0
0
0
0
0
0
0
0
0
0
0
0
0
0
0
0
0
0
0
0
0
0
1.84117e-09
7.68302e-09
1.33097e-08
1.12748e-08
2.63925e-08
4.61555e-08
4.27439e-08
3.3225e-08
2.76639e-08
2.47957e-08
1.41933e-08
2.60098e-09
0
4.16917e-08
0
3.89452e-11
1.30334e-11
0
0
0
0
0
0
0
0
0
0
0
0
0
0
0
0
0
0
0
0
0
0
0
2.08076e-11
9.1645e-11
2.40424e-10
5.20359e-10
8.91476e-10
1.18525e-09
1.01783e-09
9.92052e-11
0
3.91055e-11
1.13616e-09
1.88816e-09
2.30934e-09
2.61558e-09
2.56842e-09
2.32571e-09
2.61784e-09
4.06132e-09
6.04848e-09
5.82035e-09
7.22245e-10
0
0
0
0
0
0
1.97686e-09
2.68698e-08
1.36773e-07
2.94282e-07
3.80422e-07
2.96629e-07
1.0996e-07
2.67431e-08
4.08859e-09
0
0
0
0
0
0
0
0
0
0
0
0
0
0
0
0
0
0
0
0
0
0
0
0
3.86747e-09
1.01196e-08
1.65118e-08
1.42341e-08
1.36211e-08
4.33026e-08
4.4274e-08
3.49341e-08
2.795e-08
2.5771e-08
1.43476e-08
6.14456e-09
0
3.36443e-08
0
3.58281e-11
1.68715e-11
0
0
0
0
0
0
0
0
0
0
0
0
0
0
0
0
0
0
0
0
0
0
2.76942e-12
3.78984e-11
1.18135e-10
2.77667e-10
5.56472e-10
9.02839e-10
1.09703e-09
6.53662e-10
0
0
4.22508e-10
1.64973e-09
2.39613e-09
2.68683e-09
2.88915e-09
2.78984e-09
2.29654e-09
2.25107e-09
3.35553e-09
5.33285e-09
5.72157e-09
2.48595e-09
0
0
0
0
0
0
2.80087e-09
3.4183e-08
1.51476e-07
3.03309e-07
3.9229e-07
2.85997e-07
8.16891e-08
1.46338e-08
2.2678e-09
5.00328e-10
1.3527e-10
0
0
0
0
0
0
0
0
0
0
0
0
0
0
0
0
0
0
0
0
0
0
6.09629e-09
1.27622e-08
1.97552e-08
1.85533e-08
6.82176e-09
3.4211e-08
4.48986e-08
3.68582e-08
2.84846e-08
2.69156e-08
1.47852e-08
9.12096e-09
0
2.7218e-08
0
3.26508e-11
2.02711e-11
0
0
0
0
0
0
0
0
0
0
0
0
0
0
0
0
0
0
0
0
0
0
1.36103e-11
6.07602e-11
1.56242e-10
3.39539e-10
6.27577e-10
9.54843e-10
9.95995e-10
8.98444e-11
0
0
1.09252e-09
2.2625e-09
2.98593e-09
3.1457e-09
3.15555e-09
3.03484e-09
2.37748e-09
1.87468e-09
2.69476e-09
4.37549e-09
5.27322e-09
3.47492e-09
0
0
0
0
0
0
3.39631e-09
4.01896e-08
1.62452e-07
3.11894e-07
4.13149e-07
2.73045e-07
4.45779e-08
9.68754e-10
4.01168e-10
2.08195e-09
1.90523e-09
1.00784e-09
0
0
0
0
0
0
0
0
0
0
0
0
0
0
0
0
0
0
0
0
1.90383e-09
8.60106e-09
1.57029e-08
2.30909e-08
2.29681e-08
8.48976e-09
1.72336e-08
4.31838e-08
3.88534e-08
2.9269e-08
2.82124e-08
1.54568e-08
1.14316e-08
0
2.1752e-08
0
2.96611e-11
2.33031e-11
0
0
0
0
0
0
0
0
0
0
0
0
0
0
0
0
0
0
0
0
0
2.22034e-12
2.90804e-11
9.17257e-11
2.12208e-10
4.31089e-10
7.47512e-10
1.0467e-09
7.92668e-10
0
0
2.14737e-10
1.93959e-09
2.89844e-09
3.65513e-09
3.80614e-09
3.47495e-09
3.26679e-09
2.56256e-09
1.54447e-09
2.0157e-09
3.34081e-09
4.54076e-09
3.78062e-09
0
0
0
0
0
0
3.66433e-09
4.46131e-08
1.69964e-07
3.19588e-07
4.4565e-07
2.54235e-07
0
0
0
3.69212e-09
3.65031e-09
2.49642e-09
1.04558e-09
0
0
0
0
0
0
0
0
0
0
0
0
0
0
0
0
0
0
0
4.63826e-09
1.14761e-08
1.90575e-08
2.66211e-08
2.71103e-08
1.51456e-08
3.26928e-10
3.58789e-08
4.06398e-08
3.0281e-08
2.96461e-08
1.6354e-08
1.31259e-08
0
1.69008e-08
0
2.70645e-11
2.61411e-11
0
0
0
0
0
0
0
0
0
0
0
0
0
0
0
0
0
0
0
0
0
1.09081e-11
5.18335e-11
1.36194e-10
2.96216e-10
5.74084e-10
9.4621e-10
1.18178e-09
2.25412e-10
0
0
1.46481e-09
2.78456e-09
3.61743e-09
4.50696e-09
4.67173e-09
3.98418e-09
3.53554e-09
2.84427e-09
1.38218e-09
1.25432e-09
2.45936e-09
3.56309e-09
3.61809e-09
0
0
0
0
0
0
3.5083e-09
4.73448e-08
1.72903e-07
3.24727e-07
4.92835e-07
2.18626e-07
0
0
0
5.32452e-09
5.33894e-09
3.96414e-09
2.20057e-09
7.43657e-10
0
0
0
0
0
0
0
0
0
0
0
0
0
0
0
0
0
0
7.8674e-09
1.48395e-08
2.29649e-08
3.04821e-08
3.09709e-08
2.30608e-08
0
1.82491e-08
4.11962e-08
3.13867e-08
3.11513e-08
1.7489e-08
1.4315e-08
0
1.26191e-08
0
2.49701e-11
2.90822e-11
5.01842e-12
0
0
0
0
0
0
0
0
0
0
0
0
0
0
0
0
0
0
0
0
2.44349e-11
8.63875e-11
2.06207e-10
4.34946e-10
8.17137e-10
1.30348e-09
1.35027e-09
0
0
8.74745e-10
2.58037e-09
3.70166e-09
4.68274e-09
5.63812e-09
5.67528e-09
4.66485e-09
3.88636e-09
3.2269e-09
1.47692e-09
4.03269e-10
1.58988e-09
2.56846e-09
3.14896e-09