/*--------------------------------*- C++ -*----------------------------------*\
  =========                 |
  \\      /  F ield         | OpenFOAM: The Open Source CFD Toolbox
   \\    /   O peration     | Website:  https://openfoam.org
    \\  /    A nd           | Version:  7
     \\/     M anipulation  |
\*---------------------------------------------------------------------------*/
FoamFile
{
    version     2.0;
    format      ascii;
    class       volScalarField;
    location    "0.18";
    object      p;
}
// * * * * * * * * * * * * * * * * * * * * * * * * * * * * * * * * * * * * * //

dimensions      [0 2 -2 0 0 0 0];

internalField   nonuniform List<scalar> 
70000
(
0.102042
0.0251505
0.0120003
0.0144463
0.0146986
0.0136406
0.0126669
0.011919
0.0112881
0.0107243
0.0102136
0.00974824
0.00932061
0.00892421
0.00855369
0.00820471
0.00787378
0.00755802
0.00725504
0.00696285
0.00667976
0.00640433
0.00613529
0.00587155
0.00561213
0.00535614
0.00510279
0.00485133
0.00460107
0.00435133
0.00410153
0.003851
0.00359924
0.00334553
0.00308946
0.00283024
0.00256746
0.00230041
0.00202827
0.00175117
0.00146636
0.00117767
0.000875322
0.000575914
0.000247436
-5.45496e-05
-0.000427029
-0.000701116
-0.00115508
-0.00135176
0.097742
0.0255125
0.0122029
0.0145408
0.014753
0.0136763
0.0126948
0.0119421
0.0113075
0.0107409
0.0102281
0.00976097
0.00933199
0.00893448
0.00856303
0.00821327
0.00788166
0.00756532
0.00726183
0.0069692
0.00668571
0.00640992
0.00614057
0.00587654
0.00561686
0.00536064
0.00510707
0.00485542
0.00460498
0.00435508
0.00410513
0.00385447
0.00360257
0.00334876
0.00309258
0.00283327
0.0025704
0.00230327
0.00203106
0.0017539
0.00146903
0.00118032
0.000877913
0.000578513
0.000249986
-5.19911e-05
-0.000424374
-0.000699583
-0.00114809
-0.00130684
0.0941367
0.026435
0.0125475
0.0146695
0.0148277
0.0137213
0.0127271
0.0119683
0.0113294
0.0107594
0.010244
0.009775
0.00934448
0.00894572
0.00857322
0.00822259
0.00789023
0.00757324
0.0072692
0.00697608
0.00669216
0.00641599
0.00614629
0.00588195
0.00562199
0.00536552
0.00511173
0.00485986
0.00460924
0.00435917
0.00410906
0.00385825
0.00360622
0.00335228
0.00309599
0.00283659
0.00257363
0.00230642
0.00203414
0.00175693
0.001472
0.00118327
0.000880788
0.000581434
0.000252793
-4.90999e-05
-0.000421343
-0.000698265
-0.00112827
-0.00126516
0.0910321
0.0275343
0.013024
0.0148421
0.0149289
0.0137793
0.0127654
0.0119983
0.011354
0.0107799
0.0102615
0.00979022
0.00935791
0.00895772
0.00858406
0.00823245
0.00789928
0.00758159
0.00727694
0.00698329
0.00669891
0.00642233
0.00615227
0.00588761
0.00562736
0.00537062
0.00511659
0.00486451
0.00461368
0.00436343
0.00411316
0.00386221
0.00361004
0.00335598
0.00309958
0.00284008
0.00257703
0.00230974
0.00203739
0.00176012
0.00147513
0.00118637
0.000883839
0.000584461
0.000255814
-4.63198e-05
-0.000417623
-0.000697926
-0.00109859
-0.00122815
0.088076
0.0286282
0.0135977
0.0150605
0.0150636
0.0138578
0.0128145
0.0120353
0.0113841
0.0108046
0.0102822
0.00980791
0.00937336
0.0089714
0.00859631
0.00824353
0.00790938
0.00759086
0.0072855
0.00699124
0.00670633
0.00642929
0.00615881
0.00589378
0.0056332
0.00537617
0.00512188
0.00486956
0.00461851
0.00436807
0.00411762
0.0038665
0.00361419
0.00335999
0.00310347
0.00284385
0.0025807
0.00231333
0.00204089
0.00176355
0.00147849
0.00118966
0.000887093
0.000587573
0.000259065
-4.38155e-05
-0.000413003
-0.000698487
-0.00106334
-0.00119241
0.0851689
0.0296605
0.0142218
0.0153051
0.0152259
0.0139585
0.0128771
0.0120817
0.0114215
0.0108352
0.0103075
0.00982938
0.00939192
0.00898769
0.00861079
0.00825654
0.00792116
0.00760162
0.0072954
0.00700039
0.00671484
0.00643723
0.00616626
0.0059008
0.00563983
0.00538246
0.00512785
0.00487525
0.00462395
0.00437328
0.00412262
0.00387131
0.00361882
0.00336447
0.00310779
0.00284804
0.00258477
0.00231728
0.00204473
0.00176728
0.00148213
0.00119316
0.000890548
0.000590726
0.000262501
-4.1743e-05
-0.000407559
-0.0006996
-0.00102685
-0.00115945
0.0823037
0.0306139
0.0148629
0.0155548
0.0154024
0.0140765
0.0129522
0.0121374
0.0114666
0.0108722
0.0103383
0.00985537
0.00941432
0.0090073
0.00862815
0.00827206
0.00793518
0.00761437
0.00730708
0.00701116
0.00672482
0.00644653
0.00617496
0.00590897
0.00564754
0.00538975
0.00513476
0.00488182
0.00463022
0.00437927
0.00412836
0.00387681
0.00362411
0.00336956
0.0031127
0.00285278
0.00258933
0.00232169
0.00204898
0.00177138
0.00148607
0.0011969
0.000894187
0.000593855
0.000266039
-4.02443e-05
-0.00040159
-0.000700966
-0.000993178
-0.00113314
0.0794895
0.0314821
0.0155049
0.0157979
0.0155824
0.0142053
0.0130364
0.0122002
0.0115183
0.0109152
0.0103742
0.00988593
0.00944075
0.00903046
0.00864869
0.00829044
0.00795176
0.00762945
0.00732088
0.00702388
0.00673659
0.00645748
0.0061852
0.00591858
0.00565658
0.00539829
0.00514286
0.00488951
0.00463754
0.00438625
0.00413503
0.00388321
0.00363024
0.00337545
0.00311835
0.00285821
0.00259454
0.00232669
0.00205375
0.00177593
0.00149038
0.00120088
0.00089801
0.000596907
0.000269595
-3.94027e-05
-0.000395537
-0.000702444
-0.000965982
-0.00111812
0.0767328
0.0322624
0.0161423
0.0160304
0.0157595
0.01434
0.0131263
0.0122677
0.0115745
0.0109627
0.0104144
0.00992038
0.00947077
0.00905695
0.00867228
0.00831164
0.00797096
0.00764695
0.00733693
0.00703868
0.00675032
0.00647027
0.00619716
0.0059298
0.00566715
0.00540828
0.00515232
0.0048985
0.00464609
0.00439441
0.00414282
0.00389065
0.00363736
0.00338227
0.00312487
0.00286446
0.0026005
0.00233238
0.00205913
0.001781
0.00149512
0.00120516
0.000902041
0.000599863
0.000273099
-3.92174e-05
-0.000389921
-0.00070411
-0.000947984
-0.00111704
0.074037
0.0329541
0.0167737
0.0162522
0.0159309
0.0144779
0.0132198
0.012338
0.0116335
0.0110131
0.0104575
0.00995772
0.00950358
0.00908612
0.00869846
0.0083353
0.00799249
0.00766668
0.0073551
0.0070555
0.00676597
0.00648488
0.00621086
0.00594269
0.00567932
0.00541979
0.00516324
0.00490888
0.00465598
0.00440384
0.00415183
0.00389927
0.0036456
0.00339015
0.0031324
0.00287165
0.00260733
0.00233887
0.00206523
0.0017867
0.00150038
0.0012098
0.000906323
0.000602753
0.000276497
-3.96033e-05
-0.000385258
-0.000706265
-0.000940752
-0.00113187
0.0714054
0.0335574
0.0173981
0.0164644
0.0160951
0.0146174
0.013316
0.0124098
0.011694
0.0110653
0.0105025
0.009997
0.00953835
0.00911725
0.00872658
0.00836088
0.00801592
0.00768825
0.00737507
0.00707408
0.00678332
0.00650115
0.00622617
0.00595714
0.005693
0.00543277
0.00517558
0.00492064
0.00466721
0.00441457
0.00416209
0.00390909
0.003655
0.00339914
0.00314099
0.00287985
0.0026151
0.00234623
0.00207211
0.00179308
0.00150623
0.00121485
0.000910914
0.000605647
0.000279764
-4.0409e-05
-0.000381978
-0.000709357
-0.000944757
-0.00116332
0.068841
0.0340729
0.018014
0.0166682
0.0162514
0.0147576
0.0134144
0.0124827
0.0117554
0.0111187
0.0105488
0.0100376
0.00957443
0.00914973
0.00875607
0.00838785
0.00804074
0.00771122
0.00739644
0.00709404
0.00680205
0.00651879
0.00624283
0.00597293
0.005708
0.00544705
0.00518921
0.00493366
0.00467966
0.0044265
0.00417353
0.00392006
0.00366551
0.00340922
0.00315062
0.00288904
0.00262382
0.00235447
0.00207982
0.00180019
0.00151272
0.00122038
0.000915874
0.000608653
0.00028291
-4.14479e-05
-0.000380354
-0.000713863
-0.000959426
-0.0012105
0.0663465
0.0345012
0.018619
0.0168648
0.016399
0.0148977
0.013515
0.0125566
0.0118176
0.0111729
0.0105961
0.0100791
0.00961146
0.00918317
0.00878653
0.00841582
0.00806657
0.00773522
0.00741885
0.00711507
0.00682185
0.0065375
0.00626058
0.0059898
0.00572408
0.00546241
0.00520391
0.00494775
0.00469319
0.0044395
0.00418602
0.00393207
0.00367705
0.0034203
0.00316123
0.00289919
0.00263346
0.00236359
0.00208834
0.00180803
0.00151987
0.00122645
0.000921255
0.000611897
0.000285976
-4.25283e-05
-0.000380469
-0.00072017
-0.000983339
-0.00127107
0.0639246
0.0348432
0.0192105
0.0170559
0.0165375
0.0150369
0.0136176
0.0126315
0.0118802
0.0112278
0.0106441
0.0101214
0.00964922
0.00921734
0.00881774
0.00844454
0.00809317
0.00776
0.00744205
0.00713689
0.00684246
0.00655704
0.00627915
0.00600752
0.00574101
0.00547864
0.00521948
0.00496272
0.0047076
0.00445338
0.00419939
0.00394497
0.00368947
0.00343226
0.00317271
0.00291019
0.00264393
0.00237351
0.00209765
0.00181659
0.0015277
0.00123308
0.0009271
0.000615503
0.000289036
-4.34775e-05
-0.00038222
-0.000728476
-0.00101452
-0.00134161
0.0615776
0.0351004
0.0197853
0.0172429
0.0166665
0.0151742
0.013722
0.0127074
0.0119433
0.0112833
0.0106928
0.0101643
0.00968764
0.00925215
0.00884959
0.00847389
0.0081204
0.00778541
0.00746589
0.00715936
0.00686372
0.00657724
0.0062984
0.00602591
0.00575864
0.00549556
0.00523576
0.00497841
0.00472274
0.004468
0.00421352
0.00395861
0.00370265
0.00344498
0.00318495
0.00292194
0.00265516
0.00238416
0.00210768
0.00182584
0.00153618
0.00124031
0.000933447
0.000619587
0.000292185
-4.41544e-05
-0.000385353
-0.000738749
-0.00105078
-0.00141822
0.0593074
0.0352743
0.0203403
0.0174273
0.0167859
0.0153086
0.0138281
0.0127843
0.0120068
0.0113393
0.0107422
0.0102079
0.00972668
0.00928757
0.00888203
0.00850382
0.0081482
0.00781139
0.00749029
0.00718238
0.00688554
0.00659799
0.00631821
0.00604488
0.00577684
0.00551307
0.00525264
0.00499471
0.00473849
0.00448324
0.00422827
0.0039729
0.00371648
0.00345836
0.00319786
0.00293437
0.00266707
0.00239549
0.00211838
0.00183575
0.00154531
0.00124815
0.000940327
0.000624244
0.000295533
-4.44495e-05
-0.000389516
-0.000750733
-0.00108993
-0.00149706
0.0571157
0.0353674
0.0208723
0.0176105
0.0168957
0.0154391
0.0139355
0.0128623
0.0120705
0.0113957
0.0107922
0.0102522
0.00976633
0.00932357
0.00891504
0.00853432
0.00817655
0.0078379
0.00751522
0.00720593
0.00690788
0.00661927
0.00633854
0.00606436
0.00579556
0.0055311
0.00527005
0.00501154
0.00475478
0.00449903
0.00424359
0.00398777
0.0037309
0.00347233
0.00321137
0.00294741
0.0026796
0.00240745
0.00212972
0.00184629
0.00155507
0.00125664
0.000947777
0.000629552
0.000299201
-4.42758e-05
-0.00039431
-0.000764
-0.00113005
-0.0015747
0.0550037
0.0353822
0.0213782
0.0177934
0.0169961
0.0155648
0.0140438
0.0129413
0.0121346
0.0114525
0.0108428
0.0102971
0.00980658
0.00936015
0.00894861
0.00856536
0.00820545
0.00786495
0.00754067
0.00723
0.00693074
0.00664105
0.00635937
0.00608435
0.00581479
0.00554964
0.00528796
0.00502888
0.00477159
0.00451535
0.00425944
0.00400317
0.00374587
0.00348687
0.00322546
0.00296104
0.00269273
0.00242002
0.00214169
0.00185747
0.00156547
0.00126581
0.00095584
0.000635578
0.000303312
-4.35555e-05
-0.000399326
-0.000778006
-0.0011695
-0.0016484
0.0529721
0.0353219
0.0218551
0.017977
0.0170875
0.0156846
0.0141526
0.0130214
0.0121989
0.0115096
0.0108939
0.0103425
0.00984741
0.00939729
0.00898275
0.00859697
0.00823489
0.00789253
0.00756665
0.00725459
0.0069541
0.00666334
0.00638071
0.00610484
0.00583452
0.00556868
0.00530638
0.00504673
0.00478892
0.00453219
0.00427582
0.00401911
0.00376138
0.00350196
0.00324012
0.00297525
0.00270646
0.00243321
0.0021543
0.00186931
0.00157654
0.00127568
0.000964569
0.00064238
0.00030799
-4.22056e-05
-0.000404169
-0.000792153
-0.00120699
-0.00171609
0.0510213
0.0351902
0.0222998
0.0181616
0.0171704
0.0157976
0.0142613
0.0131025
0.0122634
0.0115669
0.0109455
0.0103886
0.0098888
0.00943499
0.00901744
0.00862912
0.00826487
0.00792066
0.00759317
0.0072797
0.00697799
0.00668615
0.00640256
0.00612584
0.00585475
0.00558824
0.00532531
0.00506509
0.00480676
0.00454955
0.00429273
0.00403559
0.00377744
0.00351761
0.00325536
0.00299005
0.00272081
0.00244703
0.00216755
0.00188183
0.0015883
0.00128631
0.000974024
0.000650015
0.000313363
-4.01269e-05
-0.000408469
-0.000805823
-0.00124149
-0.00177634
0.0491512
0.0349914
0.0227097
0.0183473
0.0172456
0.0159031
0.0143693
0.0131846
0.0123281
0.0116242
0.0109974
0.0104352
0.00993075
0.00947323
0.00905267
0.00866182
0.00829541
0.00794932
0.00762022
0.00730534
0.0070024
0.00670948
0.00642493
0.00614736
0.00587551
0.00560831
0.00534476
0.00508398
0.00482514
0.00456745
0.00431019
0.00405263
0.00379408
0.00353385
0.0032712
0.00300548
0.0027358
0.00246151
0.0021815
0.00189508
0.0016008
0.00129774
0.000984276
0.000658548
0.000319559
-3.71967e-05
-0.000411875
-0.000818408
-0.00127221
-0.0018282
0.0473614
0.0347299
0.0230822
0.0185337
0.0173139
0.0160004
0.0144758
0.0132676
0.012393
0.0116815
0.0110497
0.0104823
0.00997322
0.009512
0.00908845
0.00869507
0.00832649
0.00797853
0.00764781
0.00733153
0.00702736
0.00673335
0.00644784
0.00616941
0.00589681
0.00562892
0.00536476
0.00510343
0.00484407
0.00458592
0.00432822
0.00407026
0.00381131
0.0035507
0.00328768
0.00302155
0.00275146
0.00247669
0.00219617
0.00190909
0.0016141
0.00131004
0.000995401
0.000668048
0.000326713
-3.32655e-05
-0.000414053
-0.000829326
-0.00129852
-0.00187111
0.0456509
0.0344107
0.0234148
0.0187203
0.0173763
0.016089
0.0145801
0.0133513
0.012458
0.0117388
0.0111022
0.0105298
0.0100162
0.00955129
0.00912474
0.00872885
0.00835811
0.00800829
0.00767595
0.00735826
0.00705286
0.00675777
0.0064713
0.00619202
0.00591866
0.0056501
0.00538533
0.00512344
0.00486358
0.00460497
0.00434685
0.00408849
0.00382917
0.0035682
0.00330481
0.00303831
0.00276783
0.00249261
0.00221161
0.00192392
0.00162824
0.00132327
0.00100748
0.000678598
0.000334964
-2.81575e-05
-0.000414678
-0.000838023
-0.0013199
-0.00190472
0.0440186
0.0340391
0.0237057
0.0189059
0.0174337
0.0161686
0.0146812
0.0134354
0.0125233
0.0117958
0.0111548
0.0105778
0.0100597
0.00959106
0.00916154
0.00876316
0.00839027
0.0080386
0.00770465
0.00738555
0.00707892
0.00678274
0.00649532
0.0062152
0.00594108
0.00567184
0.00540647
0.00514404
0.00488369
0.00462463
0.0043661
0.00410736
0.00384768
0.00358636
0.00332264
0.00305579
0.00278495
0.00250932
0.00222788
0.00193963
0.00164331
0.00133748
0.00102061
0.000690291
0.000344461
-2.16735e-05
-0.000413431
-0.000843984
-0.00133592
-0.0019289
0.0424626
0.0336204
0.0239531
0.0190889
0.0174872
0.0162392
0.0147783
0.0135196
0.0125888
0.0118526
0.0112074
0.0106261
0.0101036
0.0096313
0.00919884
0.00879799
0.00842298
0.00806945
0.00773389
0.0074134
0.00710554
0.00680829
0.00651992
0.00623895
0.00596408
0.00569418
0.00542821
0.00516525
0.00490442
0.00464493
0.004386
0.0041269
0.00386688
0.00360524
0.0033412
0.00307403
0.00280286
0.00252686
0.00224502
0.00195627
0.00165936
0.00135277
0.00103488
0.000703234
0.000355356
-1.35959e-05
-0.00041
-0.000846737
-0.00134623
-0.00194364
0.0409812
0.0331603
0.0241557
0.0192676
0.0175379
0.0163008
0.0148706
0.0136036
0.0126544
0.0119091
0.0112598
0.0106746
0.0101479
0.00967198
0.0092366
0.00883332
0.00845621
0.00810085
0.0077637
0.00744181
0.00713274
0.00683442
0.0065451
0.0062633
0.00598769
0.00571713
0.00545058
0.00518709
0.0049258
0.00466589
0.00440658
0.00414713
0.0038868
0.00362486
0.00336054
0.00309308
0.00282162
0.00254529
0.00226309
0.00197391
0.00167646
0.0013692
0.0010504
0.000717544
0.000367812
-3.69327e-06
-0.000404074
-0.000845851
-0.00135054
-0.001949
0.0395721
0.0326645
0.0243128
0.0194398
0.0175865
0.0163536
0.0149572
0.0136868
0.0127202
0.0119652
0.0113121
0.0107233
0.0101926
0.00971309
0.00927481
0.00886914
0.00848996
0.00813279
0.00779406
0.0074708
0.00716052
0.00686114
0.00657089
0.00628826
0.00601192
0.00574072
0.00547359
0.00520959
0.00494785
0.00468753
0.00442787
0.0041681
0.00390747
0.00364526
0.00338068
0.00311297
0.00284126
0.00256466
0.00228216
0.0019926
0.00169471
0.00138687
0.00106727
0.00073335
0.000382001
8.27413e-06
-0.000395353
-0.000840944
-0.00134861
-0.00194512
0.0382328
0.0321387
0.0244242
0.0196031
0.0176339
0.0163983
0.0150373
0.0137686
0.0127861
0.0120209
0.011364
0.010772
0.0102376
0.00975457
0.00931345
0.00890543
0.00852422
0.00816527
0.00782498
0.00750036
0.00718888
0.00688846
0.00659728
0.00631384
0.00603679
0.00576495
0.00549726
0.00523277
0.00497059
0.0047099
0.00444989
0.00418982
0.00392893
0.00366648
0.00340169
0.00313377
0.00286185
0.00258503
0.00230228
0.00201244
0.00171417
0.00140586
0.0010856
0.000750791
0.000398099
2.25503e-05
-0.000383541
-0.000831675
-0.00134023
-0.00193216
0.0369606
0.0315886
0.0244901
0.0197549
0.0176806
0.0164353
0.0151104
0.0138485
0.0128519
0.0120762
0.0114154
0.0108207
0.0102828
0.00979641
0.00935248
0.00894216
0.00855897
0.00819828
0.00785646
0.00753049
0.00721784
0.00691638
0.0066243
0.00634006
0.00606231
0.00578985
0.00552162
0.00525666
0.00499406
0.004733
0.00447269
0.00421235
0.00395123
0.00368857
0.00342359
0.00315551
0.00288344
0.00260646
0.00232353
0.00203348
0.00173495
0.00142628
0.00110551
0.000770013
0.000416292
3.93795e-05
-0.000368357
-0.000817748
-0.00132529
-0.00191033
0.0357527
0.0310193
0.0245113
0.0198926
0.0177269
0.0164655
0.015176
0.0139257
0.0129174
0.0121311
0.0114663
0.0108692
0.0103282
0.00983856
0.00939188
0.00897932
0.0085942
0.0082318
0.00788848
0.0075612
0.0072474
0.00694493
0.00665196
0.00636694
0.0060885
0.00581544
0.00554669
0.00528127
0.00501828
0.00475689
0.00449629
0.00423571
0.00397438
0.00371156
0.00344645
0.00317824
0.00290607
0.002629
0.00234598
0.00205581
0.00175712
0.00144824
0.00112713
0.000791171
0.000436767
5.90027e-05
-0.000349536
-0.000798907
-0.00130366
-0.00187987
0.0346061
0.030436
0.0244891
0.0200138
0.0177725
0.0164896
0.0152337
0.0139995
0.0129824
0.0121856
0.0115165
0.0109174
0.0103736
0.00988096
0.00943162
0.00901687
0.00862988
0.00826584
0.00792105
0.00759249
0.00727756
0.0069741
0.00668026
0.00639448
0.00611538
0.00584174
0.00557249
0.00530664
0.00504328
0.00478158
0.00452072
0.00425994
0.00399845
0.0037355
0.0034703
0.00320204
0.00292983
0.00265273
0.00236969
0.00207951
0.00178078
0.00147184
0.0011506
0.000814425
0.000459717
8.16554e-05
-0.000326825
-0.000774935
-0.00127529
-0.001841
0.0335178
0.0298433
0.0244255
0.0201164
0.0178171
0.0165084
0.0152834
0.0140692
0.0130465
0.0122396
0.011566
0.0109651
0.0104191
0.00992357
0.00947165
0.00905478
0.008666
0.00830036
0.00795416
0.00762434
0.00730832
0.0070039
0.00670922
0.00642271
0.00614296
0.00586877
0.00559904
0.00533279
0.0050691
0.00480711
0.00454603
0.00428508
0.00402347
0.00376044
0.0034952
0.00322694
0.00295476
0.00267772
0.00239476
0.00210467
0.00180604
0.0014972
0.00117604
0.00083994
0.000485336
0.000107564
-0.000299995
-0.000745651
-0.00124017
-0.00179397
0.0324847
0.0292454
0.0243227
0.0201985
0.0178597
0.0165226
0.0153252
0.0141341
0.0131092
0.012293
0.0116148
0.0110123
0.0104644
0.00996632
0.00951193
0.00909302
0.00870252
0.00833536
0.0079878
0.00765677
0.00733969
0.00703434
0.00673885
0.00645162
0.00617127
0.00589655
0.00562637
0.00535974
0.00509574
0.00483352
0.00457225
0.00431117
0.00404948
0.00378643
0.00352121
0.00325301
0.00298094
0.00270404
0.00242126
0.00213139
0.001833
0.00152444
0.0012036
0.000867882
0.000513818
0.000136947
-0.000268835
-0.000710907
-0.00119829
-0.00173904
0.0315038
0.028646
0.0241834
0.0202585
0.0178993
0.016533
0.0153592
0.0141937
0.0131703
0.0123457
0.0116627
0.0110588
0.0105095
0.0100091
0.00955242
0.00913156
0.00873943
0.00837082
0.00802195
0.00768976
0.00737166
0.00706541
0.00676915
0.00648125
0.00620031
0.0059251
0.00565451
0.00538754
0.00512326
0.00486083
0.00459942
0.00433825
0.00407654
0.00381351
0.00354838
0.00328031
0.00300842
0.00273177
0.00244928
0.00215975
0.00186177
0.00155368
0.00123341
0.00089842
0.000545351
0.000170008
-0.000233156
-0.000670584
-0.00114968
-0.00167646
0.0305721
0.0280483
0.0240108
0.0202954
0.0179346
0.0165399
0.0153858
0.0142473
0.013229
0.0123976
0.0117097
0.0111045
0.0105542
0.0100519
0.00959308
0.00917036
0.00877667
0.0084067
0.0080566
0.00772331
0.00740423
0.00709714
0.00680013
0.00651159
0.00623011
0.00595443
0.00568346
0.00541619
0.00515168
0.00488909
0.00462758
0.00436637
0.00410468
0.00384175
0.00357676
0.0033089
0.0030373
0.00276098
0.0024789
0.00218986
0.00189247
0.00158507
0.00126564
0.000931722
0.000580123
0.000206938
-0.000192792
-0.000624596
-0.00109441
-0.00160648
0.0296866
0.0274553
0.0238081
0.0203084
0.0179641
0.0165439
0.0154053
0.0142946
0.0132849
0.0124485
0.0117559
0.0111494
0.0105984
0.0100946
0.00963383
0.00920936
0.00881423
0.00844299
0.00809173
0.0077574
0.0074374
0.0071295
0.0068318
0.00654267
0.00626068
0.00598458
0.00571327
0.00544573
0.00518103
0.00491832
0.00465676
0.00439557
0.00413397
0.00387119
0.00360643
0.00333886
0.00306763
0.00279176
0.00251023
0.00222183
0.0019252
0.00161872
0.00130043
0.000967956
0.000618312
0.000247916
-0.000147599
-0.000572879
-0.00103254
-0.00152934
0.0288445
0.0268692
0.0235786
0.020297
0.0179861
0.0165449
0.0154184
0.0143352
0.0133374
0.0124981
0.011801
0.0111933
0.0106419
0.0101371
0.00967461
0.00924854
0.00885205
0.00847965
0.00812732
0.00779202
0.00747116
0.00716252
0.00686417
0.00657448
0.00629203
0.00601556
0.00574395
0.00547619
0.00521135
0.00494857
0.00468701
0.0044259
0.00416445
0.00390189
0.00363743
0.00337026
0.00309949
0.0028242
0.00254334
0.00225575
0.00196009
0.00165477
0.00133792
0.00100728
0.000660088
0.000293102
-9.74544e-05
-0.000515395
-0.000964174
-0.00144529
0.0280431
0.0262921
0.0233259
0.0202614
0.0179993
0.0165428
0.0154256
0.0143692
0.0133859
0.0125461
0.0118451
0.0112361
0.0106847
0.0101792
0.00971535
0.00928783
0.00889011
0.00851664
0.00816335
0.00782717
0.00750551
0.00719618
0.00689724
0.00660705
0.00632418
0.00604738
0.00577553
0.0055076
0.00524267
0.00497987
0.00471837
0.0044574
0.00419617
0.00393391
0.00366984
0.00340315
0.00313297
0.00285838
0.00257835
0.00229174
0.00199725
0.00169336
0.00137827
0.00104986
0.000705612
0.000342641
-4.22579e-05
-0.000452128
-0.000889405
-0.00135456
0.0272797
0.0257253
0.0230532
0.0202021
0.0180021
0.0165375
0.0154273
0.0143963
0.01343
0.012592
0.011888
0.0112778
0.0107266
0.0102208
0.00975597
0.00932718
0.00892836
0.00855394
0.00819979
0.00786281
0.00754044
0.00723048
0.00693101
0.00664038
0.00635715
0.00608008
0.00580802
0.00553998
0.00527501
0.00501226
0.00475089
0.00449013
0.00422919
0.00396732
0.00370373
0.00343762
0.00316814
0.00289439
0.00261535
0.00232991
0.00203682
0.00173462
0.00142162
0.00109585
0.000755034
0.000396661
1.80697e-05
-0.000383082
-0.000808352
-0.00125739
0.0265521
0.0251702
0.0227638
0.0201199
0.0179933
0.0165284
0.0154239
0.0144169
0.0134693
0.0126356
0.0119296
0.0113183
0.0107676
0.0102619
0.00979636
0.00936654
0.00896674
0.0085915
0.00823661
0.00789893
0.00757593
0.00726542
0.00696549
0.00667448
0.00639095
0.00611365
0.00584147
0.00557337
0.00530843
0.00504578
0.00478461
0.00452412
0.00426356
0.00400216
0.00373916
0.00347375
0.0032051
0.00293232
0.00265444
0.00237037
0.00207891
0.00177869
0.00146811
0.00114538
0.00080849
0.000455274
8.35876e-05
-0.000308278
-0.000721138
-0.00115398
0.0258579
0.0246277
0.0224606
0.0200159
0.0179719
0.0165148
0.0154159
0.0144309
0.0135033
0.0126765
0.0119697
0.0113575
0.0108074
0.0103023
0.00983643
0.00940582
0.00900522
0.00862929
0.00827378
0.00793551
0.00761198
0.007301
0.00700067
0.00670935
0.00642559
0.00614814
0.00587588
0.00560779
0.00534294
0.00508047
0.00481957
0.00455944
0.00429935
0.00403852
0.0037762
0.0035116
0.00324392
0.00297227
0.00269572
0.00241323
0.00212365
0.00182569
0.00151788
0.00119861
0.000866104
0.000518572
0.000154336
-0.000227755
-0.000627892
-0.00104457
0.0251949
0.0240983
0.0221466
0.0198916
0.0179372
0.016496
0.0154034
0.0144388
0.0135318
0.012714
0.012008
0.0113953
0.010846
0.0103418
0.00987607
0.00944496
0.00904374
0.00866726
0.00831125
0.00797252
0.00764855
0.00733719
0.00703656
0.006745
0.00646108
0.00618355
0.00591128
0.00564327
0.00537859
0.00511637
0.00485582
0.00459614
0.0043366
0.00407644
0.00381492
0.00355127
0.00328469
0.00301434
0.00273931
0.00245861
0.00217116
0.00187575
0.00157105
0.00125564
0.000927986
0.000586632
0.000230335
-0.000141565
-0.00052875
-0.000929338
0.0245613
0.0235824
0.0218242
0.0197485
0.0178887
0.0164713
0.0153865
0.0144407
0.0135547
0.012748
0.0120443
0.0114317
0.0108834
0.0103804
0.00991517
0.00948388
0.00908223
0.00870535
0.008349
0.00800994
0.00768565
0.00737401
0.00707315
0.00678143
0.00649743
0.0062199
0.0059477
0.00567985
0.00541541
0.00515353
0.0048934
0.00463427
0.00437538
0.004116
0.00385539
0.00359282
0.00332749
0.00305861
0.00278529
0.00250661
0.00222155
0.001929
0.00162776
0.0013166
0.000994229
0.00065951
0.000311589
-4.97746e-05
-0.000423852
-0.000808498
0.0239553
0.0230803
0.0214958
0.0195884
0.0178263
0.0164399
0.0153652
0.014437
0.0135718
0.012778
0.0120783
0.0114666
0.0109194
0.010418
0.0099536
0.00952247
0.00912064
0.00874354
0.00838699
0.00804772
0.00772324
0.00741142
0.00711044
0.00681866
0.00653466
0.0062572
0.00598516
0.00571754
0.00545343
0.00519197
0.00493237
0.00467387
0.00441574
0.00415726
0.0038977
0.00363634
0.00337243
0.00310519
0.00283379
0.00255735
0.00227494
0.00198555
0.00168812
0.00138158
0.00106491
0.00073725
0.000398087
4.75389e-05
-0.000313341
-0.000682236
0.023375
0.022592
0.0211633
0.019413
0.0177499
0.016401
0.0153393
0.0144279
0.0135833
0.0128038
0.0121097
0.0114996
0.010954
0.0104543
0.00999126
0.00956064
0.00915889
0.00878175
0.00842516
0.00808585
0.00776129
0.00744942
0.00714842
0.00685667
0.00657278
0.00629548
0.00602368
0.00575639
0.00549269
0.00523175
0.00497277
0.00471501
0.00445775
0.00420028
0.0039419
0.00368191
0.00341958
0.00315416
0.00288489
0.00261093
0.00233144
0.00204551
0.00175222
0.00145069
0.0011401
0.000819874
0.000489799
0.000150286
-0.000197365
-0.000550737
0.022819
0.0221175
0.0208285
0.0192242
0.01766
0.0163541
0.0153085
0.0144137
0.0135892
0.012825
0.0121382
0.0115308
0.010987
0.0104894
0.010028
0.0095983
0.00919691
0.00881994
0.00846348
0.00812427
0.0077998
0.007488
0.00718709
0.00689548
0.00661178
0.00633474
0.00606328
0.00579641
0.00553323
0.0052729
0.00501465
0.00475775
0.00450147
0.00424515
0.00398809
0.00372961
0.00346903
0.00320563
0.00293869
0.00266746
0.00239115
0.00210898
0.00182017
0.00152399
0.00121984
0.00090739
0.000586682
0.000258368
-7.60724e-05
-0.000414184
0.0222859
0.0216566
0.0204929
0.0190238
0.0175571
0.0162987
0.0152727
0.0143945
0.0135895
0.0128415
0.0121635
0.0115598
0.0110184
0.0105232
0.0100638
0.00963534
0.00923462
0.00885804
0.00850189
0.00816296
0.00783872
0.00752712
0.00722643
0.00693508
0.00665168
0.00637501
0.00610399
0.00583764
0.00557507
0.00531547
0.00505806
0.00480212
0.00454696
0.00429191
0.00403632
0.00377952
0.00352086
0.00325968
0.0029953
0.00272703
0.00245418
0.00217606
0.00189204
0.00160154
0.00130417
0.00099979
0.00068868
0.000371676
5.03829e-05
-0.000272752
0.0217743
0.0212092
0.0201579
0.0188134
0.0174419
0.0162345
0.0152315
0.0143704
0.0135845
0.0128532
0.0121853
0.0115866
0.011048
0.0105555
0.0100984
0.00967165
0.00927193
0.00889599
0.00854035
0.00820187
0.00787802
0.00756678
0.00726644
0.00697546
0.00669248
0.00641629
0.00614582
0.0058801
0.00561826
0.00535949
0.00510303
0.00484819
0.00459428
0.00434065
0.00408667
0.00383172
0.00357517
0.0033164
0.00305479
0.00278973
0.0025206
0.00224683
0.00196789
0.00168339
0.00139309
0.00109705
0.000795721
0.000490092
0.000181845
-0.000126618
0.021283
0.020775
0.0198246
0.0185948
0.0173152
0.0161614
0.0151845
0.0143415
0.0135744
0.01286
0.0122035
0.0116107
0.0110758
0.0105862
0.0101319
0.00970712
0.00930875
0.00893373
0.00857881
0.00824096
0.00791767
0.00760695
0.0073071
0.00701662
0.00673419
0.00645859
0.00618879
0.00592382
0.00566282
0.005405
0.00514963
0.004896
0.00464348
0.00439141
0.00413921
0.00388628
0.00363202
0.00337587
0.00311726
0.00285565
0.0025905
0.00232135
0.0020478
0.00176957
0.00148661
0.00119913
0.000907721
0.00061349
0.000318154
2.40441e-05
0.0208109
0.0203537
0.0194939
0.0183694
0.017178
0.0160794
0.0151315
0.0143076
0.0135591
0.012862
0.0122178
0.0116322
0.0111015
0.0106153
0.010164
0.00974167
0.00934499
0.00897118
0.00861721
0.00828019
0.00795764
0.0076476
0.00734839
0.00705856
0.0067768
0.00650193
0.00623291
0.00596881
0.00570878
0.00545205
0.00519788
0.00494562
0.00469462
0.00444428
0.00419401
0.00394327
0.0036915
0.00343818
0.00318279
0.00292486
0.00266396
0.00239969
0.00213179
0.0018601
0.00158472
0.00130597
0.00102458
0.000741734
0.000459145
0.000179057
0.0203569
0.019945
0.0191666
0.0181386
0.0170312
0.0159886
0.0150723
0.0142689
0.013539
0.0128591
0.012228
0.0116506
0.011125
0.0106427
0.0101948
0.00977518
0.00938057
0.00900827
0.0086555
0.0083195
0.00799789
0.00768871
0.00739031
0.00710127
0.00682033
0.00654631
0.00627822
0.00601512
0.00575619
0.00550066
0.00524785
0.00499708
0.00474776
0.00449929
0.00425114
0.00400277
0.00375368
0.00350338
0.00325144
0.00299744
0.00274102
0.00248189
0.00221988
0.00195498
0.00168737
0.0014175
0.0011462
0.000874679
0.000604649
0.000338243
0.0199202
0.0195486
0.0188435
0.0179036
0.0168759
0.0158894
0.0150068
0.0142251
0.013514
0.0128514
0.0122342
0.011666
0.0111463
0.0106683
0.0102241
0.00980758
0.00941539
0.00904491
0.0086936
0.00835887
0.00803839
0.00773024
0.00743282
0.00714474
0.00686476
0.00659175
0.00632471
0.00606275
0.00580505
0.00555088
0.00529956
0.00505044
0.00480295
0.00455652
0.00431065
0.00406484
0.00381862
0.00357156
0.00332328
0.00307343
0.00282173
0.00256798
0.0023121
0.00205418
0.00179451
0.00153364
0.00127245
0.00101217
0.000754488
0.000501417
0.0194997
0.0191643
0.0185249
0.0176658
0.0167131
0.0157822
0.0149348
0.0141764
0.0134843
0.0128391
0.0122361
0.0116781
0.011165
0.010692
0.0102518
0.00983877
0.00944935
0.00908104
0.00873147
0.00839822
0.00807908
0.00777217
0.00747591
0.00718895
0.00691009
0.00663823
0.0063724
0.00611173
0.00585541
0.00560274
0.00535305
0.00510574
0.00486024
0.00461602
0.0043726
0.00412953
0.00388638
0.00364277
0.00339837
0.00315289
0.00290613
0.00265797
0.00240844
0.00215768
0.00190609
0.00165429
0.00140319
0.00115405
0.000908481
0.000668391
0.0190948
0.0187916
0.0182115
0.017426
0.0165439
0.0156675
0.0148565
0.0141225
0.0134499
0.0128222
0.0122339
0.0116867
0.0111812
0.0107136
0.0102779
0.00986867
0.00948239
0.00911658
0.00876903
0.00843753
0.00811995
0.00781447
0.00751956
0.0072339
0.00695632
0.00668578
0.00642131
0.00616207
0.00590729
0.00565626
0.00540837
0.00516302
0.00491967
0.00467784
0.00443705
0.0041969
0.00395702
0.00371705
0.00347673
0.00323584
0.00299424
0.00275188
0.00250886
0.00226543
0.00202203
0.00177933
0.00153829
0.00130014
0.00106644
0.000838966
0.0187046
0.0184303
0.0179036
0.0171853
0.0163693
0.0155459
0.014772
0.0140635
0.0134109
0.0128008
0.0122275
0.0116918
0.0111946
0.0107331