/*--------------------------------*- C++ -*----------------------------------*\
  =========                 |
  \\      /  F ield         | OpenFOAM: The Open Source CFD Toolbox
   \\    /   O peration     | Website:  https://openfoam.org
    \\  /    A nd           | Version:  7
     \\/     M anipulation  |
\*---------------------------------------------------------------------------*/
FoamFile
{
    version     2.0;
    format      ascii;
    class       surfaceScalarField;
    location    "0.18";
    object      phi;
}
// * * * * * * * * * * * * * * * * * * * * * * * * * * * * * * * * * * * * * //

dimensions      [0 3 -1 0 0 0 0];

internalField   nonuniform List<scalar> 
139350
(
6.45933e-08
9.20382e-08
3.19533e-08
3.26399e-08
2.30641e-08
8.8892e-09
1.95719e-08
3.49226e-09
1.76222e-08
1.94964e-09
1.61968e-08
1.42545e-09
1.50658e-08
1.13096e-09
1.41538e-08
9.12008e-10
1.34032e-08
7.50642e-10
1.27707e-08
6.32413e-10
1.22277e-08
5.42999e-10
1.17548e-08
4.72905e-10
1.13383e-08
4.16508e-10
1.09681e-08
3.70274e-10
1.06363e-08
3.31797e-10
1.03369e-08
2.99358e-10
1.00652e-08
2.71697e-10
9.81733e-09
2.47873e-10
9.59016e-09
2.27172e-10
9.38112e-09
2.09044e-10
9.18806e-09
1.93059e-10
9.00918e-09
1.78876e-10
8.84296e-09
1.66222e-10
8.68809e-09
1.54876e-10
8.54343e-09
1.44658e-10
8.40801e-09
1.3542e-10
8.28097e-09
1.27036e-10
8.16157e-09
1.19406e-10
8.04913e-09
1.12438e-10
7.94306e-09
1.06066e-10
7.84285e-09
1.00215e-10
7.74799e-09
9.48531e-11
7.65809e-09
8.98996e-11
7.57272e-09
8.53708e-11
7.49157e-09
8.11502e-11
7.41424e-09
7.73317e-11
7.34052e-09
7.37251e-11
7.26999e-09
7.05254e-11
7.20251e-09
6.74783e-11
7.13774e-09
6.47769e-11
7.07533e-09
6.24056e-11
7.01547e-09
5.9856e-11
6.95666e-09
5.88141e-11
6.90146e-09
5.52029e-11
6.84356e-09
5.79014e-11
6.7948e-09
4.87519e-11
6.72904e-09
6.57677e-11
6.70993e-09
1.91024e-11
6.47439e-09
2.35546e-10
-2.97168e-09
9.44607e-09
1.26027e-07
1.27455e-07
9.12675e-08
6.73994e-08
7.19509e-08
2.82058e-08
6.12288e-08
1.42143e-08
5.47876e-08
8.39085e-09
5.02987e-08
5.91433e-09
4.68192e-08
4.61053e-09
4.40073e-08
3.72386e-09
4.16839e-08
3.07403e-09
3.97243e-08
2.59204e-09
3.80414e-08
2.22591e-09
3.65753e-08
1.93905e-09
3.52833e-08
1.70844e-09
3.41342e-08
1.51943e-09
3.31038e-08
1.36212e-09
3.21737e-08
1.22947e-09
3.13291e-08
1.11633e-09
3.05581e-08
1.01888e-09
2.98511e-08
9.34181e-10
2.92001e-08
8.60003e-10
2.85986e-08
7.94588e-10
2.80409e-08
7.36544e-10
2.75224e-08
6.84759e-10
2.70389e-08
6.38332e-10
2.65871e-08
5.96524e-10
2.61638e-08
5.58731e-10
2.57663e-08
5.24447e-10
2.53925e-08
4.93252e-10
2.50402e-08
4.64787e-10
2.47075e-08
4.38761e-10
2.43928e-08
4.14898e-10
2.40946e-08
3.93022e-10
2.38116e-08
3.72876e-10
2.35426e-08
3.54427e-10
2.32864e-08
3.37336e-10
2.30419e-08
3.21824e-10
2.28083e-08
3.07284e-10
2.25844e-08
2.94421e-10
2.23699e-08
2.82061e-10
2.21629e-08
2.717e-10
2.1964e-08
2.61373e-10
2.17705e-08
2.53279e-10
2.15838e-08
2.45595e-10
2.14006e-08
2.38379e-10
2.12213e-08
2.37139e-10
2.10477e-08
2.22379e-10
2.08601e-08
2.53374e-10
2.07414e-08
1.37787e-10
2.03879e-08
5.8906e-10
-3.45716e-09
2.08734e-08
1.58808e-07
1.35051e-07
1.36499e-07
8.97089e-08
1.17503e-07
4.72014e-08
1.03332e-07
2.83853e-08
9.33321e-08
1.83906e-08
8.60371e-08
1.32094e-08
8.03375e-08
1.03101e-08
7.56916e-08
8.36974e-09
7.18172e-08
6.94845e-09
6.85273e-08
5.88187e-09
6.5689e-08
5.06424e-09
6.32075e-08
4.42052e-09
6.10145e-08
3.90144e-09
5.9059e-08
3.47493e-09
5.7302e-08
3.11915e-09
5.57129e-08
2.81857e-09
5.42675e-08
2.56178e-09
5.29461e-08
2.34026e-09
5.17328e-08
2.14751e-09
5.06142e-08
1.97851e-09
4.95795e-08
1.82933e-09
4.86192e-08
1.69685e-09
4.77254e-08
1.57857e-09
4.68912e-08
1.47246e-09
4.61109e-08
1.37686e-09
4.53792e-08
1.2904e-09
4.46918e-08
1.21194e-09
4.40445e-08
1.14052e-09
4.34339e-08
1.07534e-09
4.2857e-08
1.01573e-09
4.23108e-08
9.61088e-10
4.17928e-08
9.1097e-10
4.13008e-08
8.64863e-10
4.08327e-08
8.22591e-10
4.03865e-08
7.83525e-10
3.99603e-08
7.47995e-10
3.95528e-08
7.14817e-10
3.91618e-08
6.85437e-10
3.87866e-08
6.57179e-10
3.84244e-08
6.33913e-10
3.80761e-08
6.0971e-10
3.77363e-08
5.93053e-10
3.74094e-08
5.72497e-10
3.70854e-08
5.62428e-10
3.67736e-08
5.48917e-10
3.64609e-08
5.35122e-10
3.61454e-08
5.68814e-10
3.58846e-08
3.98568e-10
3.55153e-08
9.58342e-10
-2.89994e-09
3.49581e-08
1.75664e-07
1.30902e-07
1.65598e-07
9.97755e-08
1.52732e-07
6.00673e-08
1.4014e-07
4.09771e-08
1.29459e-07
2.90718e-08
1.20824e-07
2.18441e-08
1.1372e-07
1.74144e-08
1.07746e-07
1.43438e-08
1.0265e-07
1.20439e-08
9.82514e-08
1.02809e-08
9.44092e-08
8.90649e-09
9.10182e-08
7.81148e-09
8.79989e-08
6.9208e-09
8.52899e-08
6.18394e-09
8.28432e-08
5.5658e-09
8.06207e-08
5.04108e-09
7.85915e-08
4.59103e-09
7.67303e-08
4.20145e-09
7.50163e-08
3.86146e-09
7.34322e-08
3.5626e-09
7.19634e-08
3.29819e-09
7.05973e-08
3.06291e-09
6.93234e-08
2.85246e-09
6.81325e-08
2.66337e-09
6.70166e-08
2.49275e-09
6.59688e-08
2.33824e-09
6.49828e-08
2.19787e-09
6.40534e-08
2.06996e-09
6.31756e-08
1.95313e-09
6.23452e-08
1.84617e-09
6.15582e-08
1.74806e-09
6.08112e-08
1.658e-09
6.01009e-08
1.57512e-09
5.94245e-08
1.49904e-09
5.87792e-08
1.42877e-09
5.81625e-08
1.36473e-09
5.75723e-08
1.30504e-09
5.70057e-08
1.25201e-09
5.64617e-08
1.20113e-09
5.59364e-08
1.15923e-09
5.54308e-08
1.11532e-09
5.49379e-08
1.08602e-09
5.44631e-08
1.04726e-09
5.39931e-08
1.03246e-09
5.35404e-08
1.00158e-09
5.30862e-08
9.89308e-10
5.26359e-08
1.01915e-09
5.22216e-08
8.12852e-10
5.17944e-08
1.38549e-09
-1.98306e-09
5.08776e-08
1.8456e-07
1.23127e-07
1.82323e-07
1.02013e-07
1.76109e-07
6.62817e-08
1.67772e-07
4.93137e-08
1.59157e-07
3.7687e-08
1.51256e-07
2.9745e-08
1.44191e-07
2.44788e-08
1.37899e-07
2.06361e-08
1.32304e-07
1.76385e-08
1.27323e-07
1.52621e-08
1.2287e-07
1.33601e-08
1.18867e-07
1.1814e-08
1.15251e-07
1.05367e-08
1.11969e-07
9.46665e-09
1.08975e-07
8.5598e-09
1.06232e-07
7.78339e-09
1.03711e-07
7.11261e-09
1.01384e-07
6.52836e-09
9.92294e-08
6.01575e-09
9.7229e-08
5.56304e-09
9.53663e-08
5.16087e-09
9.36275e-08
4.80169e-09
9.20006e-08
4.47939e-09
9.0475e-08
4.18893e-09
8.90416e-08
3.92616e-09
8.76922e-08
3.68764e-09
8.64196e-08
3.47045e-09
8.52174e-08
3.27216e-09
8.40799e-08
3.0907e-09
8.30017e-08
2.92429e-09
8.19784e-08
2.77143e-09
8.10055e-08
2.63086e-09
8.00793e-08
2.50136e-09
7.9196e-08
2.38227e-09
7.83526e-08
2.27222e-09
7.75457e-08
2.17166e-09
7.67727e-08
2.07801e-09
7.60303e-08
1.99442e-09
7.53169e-08
1.91449e-09
7.46281e-08
1.84804e-09
7.39645e-08
1.77898e-09
7.33184e-08
1.73208e-09
7.26948e-08
1.67086e-09
7.20803e-08
1.64696e-09
7.14855e-08
1.59643e-09
7.08938e-08
1.58101e-09
7.03079e-08
1.60504e-09
6.97477e-08
1.37302e-09
6.9212e-08
1.92122e-09
-9.03051e-10
6.8132e-08
1.90389e-07
1.14955e-07
1.91853e-07
1.00548e-07
1.90248e-07
6.7887e-08
1.86162e-07
5.33995e-08
1.8073e-07
4.31193e-08
1.74983e-07
3.54919e-08
1.69294e-07
3.01675e-08
1.63818e-07
2.61124e-08
1.58649e-07
2.28069e-08
1.5383e-07
2.00812e-08
1.49363e-07
1.78273e-08
1.45231e-07
1.59459e-08
1.4141e-07
1.43573e-08
1.37875e-07
1.30023e-08
1.34598e-07
1.18364e-08
1.31556e-07
1.08253e-08
1.28727e-07
9.94214e-09
1.26089e-07
9.16559e-09
1.23627e-07
8.47862e-09
1.21322e-07
7.86754e-09
1.19162e-07
7.32121e-09
1.17133e-07
6.83052e-09
1.15224e-07
6.38797e-09
1.13426e-07
5.98732e-09
1.11729e-07
5.62337e-09
1.10125e-07
5.29175e-09
1.08606e-07
4.98877e-09
1.07167e-07
4.71126e-09
1.05801e-07
4.45657e-09
1.04503e-07
4.22238e-09
1.03268e-07
4.00672e-09
1.02091e-07
3.8079e-09
1.00968e-07
3.62437e-09
9.9895e-08
3.45518e-09
9.88686e-08
3.29859e-09
9.78852e-08
3.15505e-09
9.69419e-08
3.02134e-09
9.6035e-08
2.90133e-09
9.51625e-08
2.78698e-09
9.43199e-08
2.69063e-09
9.35069e-08
2.59195e-09
9.27167e-08
2.5223e-09
9.1952e-08
2.43556e-09
9.12022e-08
2.39678e-09
9.04723e-08
2.3263e-09
8.97531e-08
2.30017e-09
8.90392e-08
2.31899e-09
8.83462e-08
2.06603e-09
8.76908e-08
2.57655e-09
2.98744e-10
8.6489e-08
1.95541e-07
1.07229e-07
1.98248e-07
9.78409e-08
1.98972e-07
6.71639e-08
1.97794e-07
5.45768e-08
1.95167e-07
4.57465e-08
1.91831e-07
3.88276e-08
1.88106e-07
3.38924e-08
1.84163e-07
3.00556e-08
1.8015e-07
2.682e-08
1.76177e-07
2.40547e-08
1.7231e-07
2.16936e-08
1.68589e-07
1.96667e-08
1.65034e-07
1.79125e-08
1.61653e-07
1.63837e-08
1.58446e-07
1.50433e-08
1.5541e-07
1.38618e-08
1.52537e-07
1.28148e-08
1.4982e-07
1.18827e-08
1.47249e-07
1.10489e-08
1.44817e-07
1.02999e-08
1.42514e-07
9.62444e-09
1.40331e-07
9.01298e-09
1.38262e-07
8.45761e-09
1.36297e-07
7.95161e-09
1.34432e-07
7.4893e-09
1.32657e-07
7.06582e-09
1.30969e-07
6.67704e-09
1.29361e-07
6.31936e-09
1.27828e-07
5.98975e-09
1.26365e-07
5.68549e-09
1.24967e-07
5.40431e-09
1.23631e-07
5.14423e-09
1.22352e-07
4.90341e-09
1.21126e-07
4.68068e-09
1.19951e-07
4.47403e-09
1.18822e-07
4.28391e-09
1.17737e-07
4.10661e-09
1.16692e-07
3.9465e-09
1.15684e-07
3.79437e-09
1.14711e-07
3.66432e-09
1.13769e-07
3.53317e-09
1.12855e-07
3.43653e-09
1.11968e-07
3.32266e-09
1.11101e-07
3.26341e-09
1.10254e-07
3.17377e-09
1.09425e-07
3.12952e-09
1.086e-07
3.14339e-09
1.07791e-07
2.87533e-09
1.07028e-07
3.33978e-09
1.58559e-09
1.05741e-07
2.00848e-07
9.9965e-08
2.03777e-07
9.49123e-08
2.0533e-07
6.56112e-08
2.05648e-07
5.42585e-08
2.04825e-07
4.65693e-08
2.03349e-07
4.03038e-08
2.01407e-07
3.58341e-08
1.99084e-07
3.23789e-08
1.96484e-07
2.94199e-08
1.9371e-07
2.68292e-08
1.90841e-07
2.45625e-08
1.87937e-07
2.25702e-08
1.85043e-07
2.08067e-08
1.8219e-07
1.92368e-08
1.794e-07
1.78334e-08
1.76687e-07
1.65742e-08
1.74062e-07
1.54404e-08
1.71528e-07
1.44163e-08
1.69089e-07
1.34882e-08
1.66744e-07
1.26446e-08
1.64493e-07
1.18756e-08
1.62334e-07
1.11727e-08
1.60262e-07
1.05287e-08
1.58277e-07
9.93713e-09
1.56374e-07
9.39268e-09
1.54549e-07
8.89058e-09
1.52799e-07
8.42674e-09
1.51121e-07
7.99755e-09
1.49511e-07
7.59992e-09
1.47965e-07
7.23105e-09
1.46481e-07
6.88859e-09
1.45055e-07
6.57044e-09
1.43683e-07
6.27467e-09
1.42364e-07
6.00001e-09
1.41094e-07
5.74433e-09
1.3987e-07
5.50809e-09
1.38689e-07
5.28731e-09
1.37549e-07
5.08671e-09
1.36447e-07
4.89639e-09
1.3538e-07
4.73147e-09
1.34345e-07
4.56737e-09
1.3334e-07
4.44151e-09
1.32362e-07
4.30069e-09
1.31409e-07
4.21709e-09
1.30473e-07
4.10976e-09
1.2956e-07
4.04243e-09
1.28653e-07
4.05037e-09
1.27752e-07
3.77572e-09
1.26904e-07
4.18854e-09
2.91165e-09
1.25578e-07
2.06447e-07
9.30498e-08
2.09341e-07
9.20189e-08
2.1104e-07
6.39123e-08
2.11936e-07
5.33622e-08
2.12008e-07
4.64969e-08
2.11626e-07
4.06857e-08
2.10902e-07
3.65582e-08
2.09839e-07
3.34428e-08
2.08472e-07
3.07865e-08
2.0686e-07
2.84408e-08
2.05059e-07
2.63639e-08
2.03116e-07
2.45127e-08
2.01075e-07
2.28483e-08
1.9897e-07
2.1342e-08
1.9683e-07
1.99731e-08
1.94679e-07
1.8725e-08
1.92535e-07
1.75842e-08
1.90413e-07
1.65388e-08
1.88322e-07
1.55786e-08
1.86272e-07
1.4695e-08
1.84267e-07
1.38802e-08
1.82313e-07
1.31274e-08
1.8041e-07
1.24308e-08
1.78562e-07
1.17851e-08
1.76769e-07
1.11858e-08
1.75031e-07
1.06286e-08
1.73348e-07
1.01102e-08
1.71718e-07
9.62714e-09
1.70141e-07
9.17679e-09
1.68616e-07
8.75653e-09
1.6714e-07
8.36418e-09
1.65713e-07
7.99776e-09
1.64332e-07
7.65545e-09
1.62996e-07
7.33606e-09
1.61703e-07
7.0375e-09
1.60451e-07
6.76032e-09
1.59238e-07
6.5005e-09
1.58061e-07
6.26295e-09
1.5692e-07
6.03763e-09
1.55812e-07
5.83996e-09
1.54734e-07
5.64536e-09
1.53684e-07
5.4909e-09
1.52659e-07
5.32544e-09
1.5166e-07
5.21635e-09
1.50676e-07
5.09364e-09
1.49717e-07
5.00171e-09
1.48765e-07
5.00225e-09
1.4781e-07
4.73108e-09
1.46908e-07
5.0907e-09
4.22858e-09
1.45591e-07
2.12289e-07
8.6423e-08
2.15154e-07
8.91545e-08
2.16794e-07
6.22718e-08
2.17848e-07
5.23078e-08
2.18267e-07
4.60783e-08
2.18387e-07
4.05653e-08
2.18317e-07
3.66288e-08
2.18024e-07
3.37358e-08
2.175e-07
3.13097e-08
2.16765e-07
2.9176e-08
2.15842e-07
2.72873e-08
2.14755e-07
2.55996e-08
2.1353e-07
2.40733e-08
2.12192e-07
2.26803e-08
2.10763e-07
2.14014e-08
2.09266e-07
2.02223e-08
2.07718e-07
1.9132e-08
2.06136e-07
1.81212e-08
2.04532e-07
1.71822e-08
2.02919e-07
1.63082e-08
2.01306e-07
1.54936e-08
1.997e-07
1.47332e-08
1.98108e-07
1.40226e-08
1.96535e-07
1.33578e-08
1.94986e-07
1.27353e-08
1.93463e-07
1.21518e-08
1.91968e-07
1.16046e-08
1.90505e-07
1.1091e-08
1.89073e-07
1.06088e-08
1.87673e-07
1.01558e-08
1.86307e-07
9.73037e-09
1.84974e-07
9.33071e-09
1.83674e-07
8.95527e-09
1.82407e-07
8.60312e-09
1.81172e-07
8.27235e-09
1.79969e-07
7.96371e-09
1.78796e-07
7.67329e-09
1.77653e-07
7.40618e-09
1.76538e-07
7.15256e-09
1.7545e-07
6.92764e-09
1.74388e-07
6.70794e-09
1.7335e-07
6.52854e-09
1.72333e-07
6.34302e-09
1.71339e-07
6.21031e-09
1.70357e-07
6.07563e-09
1.69397e-07
5.96113e-09
1.68446e-07
5.95334e-09
1.67481e-07
5.696e-09
1.66567e-07
6.00481e-09
5.48732e-09
1.65308e-07
2.1833e-07
8.00734e-08
2.21207e-07
8.62775e-08
2.22767e-07
6.07123e-08
2.23848e-07
5.12265e-08
2.24376e-07
4.55503e-08
2.24674e-07
4.02672e-08
2.2488e-07
3.64234e-08
2.24965e-07
3.36508e-08
2.24907e-07
3.13673e-08
2.24707e-07
2.93763e-08
2.24368e-07
2.76259e-08
2.23897e-07
2.60708e-08
2.23302e-07
2.46683e-08
2.22594e-07
2.33882e-08
2.21786e-07
2.22098e-08
2.20889e-07
2.11186e-08
2.19918e-07
2.01036e-08
2.18883e-07
1.91561e-08
2.17796e-07
1.82691e-08
2.16667e-07
1.7437e-08
2.15506e-07
1.66548e-08
2.14321e-07
1.59187e-08
2.13118e-07
1.52251e-08
2.11905e-07
1.45709e-08
2.10687e-07
1.39535e-08
2.09468e-07
1.33703e-08
2.08253e-07
1.28193e-08
2.07046e-07
1.22985e-08
2.05849e-07
1.18062e-08
2.04664e-07
1.13407e-08
2.03493e-07
1.09007e-08
2.02339e-07
1.0485e-08
2.01202e-07
1.00922e-08
2.00083e-07
9.72181e-09
1.98984e-07
9.3721e-09
1.97903e-07
9.04413e-09
1.96842e-07
8.73422e-09
1.95801e-07
8.44757e-09
1.94778e-07
8.17488e-09
1.93775e-07
7.93078e-09
1.9279e-07
7.6937e-09
1.91823e-07
7.49552e-09
1.90869e-07
7.29634e-09
1.89935e-07
7.14453e-09
1.89008e-07
7.00233e-09
1.88099e-07
6.87021e-09
1.87198e-07
6.85427e-09
1.86274e-07
6.62019e-09
1.85395e-07
6.88374e-09
6.64029e-09
1.84242e-07
2.24559e-07
7.40076e-08
2.27471e-07
8.3365e-08
2.28964e-07
5.92201e-08
2.3005e-07
5.01399e-08
2.3062e-07
4.49809e-08
2.30967e-07
3.99202e-08
2.31262e-07
3.61284e-08
2.31495e-07
3.34176e-08
2.31646e-07
3.12161e-08
2.31713e-07
2.93091e-08
2.31695e-07
2.76435e-08
2.31591e-07
2.61751e-08
2.31399e-07
2.486e-08
2.31122e-07
2.36656e-08
2.30762e-07
2.25697e-08
2.30324e-07
2.15563e-08
2.29815e-07
2.06135e-08
2.29239e-07
1.97319e-08
2.28604e-07
1.89044e-08
2.27915e-07
1.81251e-08
2.27181e-07
1.73894e-08
2.26406e-07
1.66935e-08
2.25597e-07
1.60342e-08
2.24759e-07
1.54088e-08
2.23898e-07
1.4815e-08
2.23017e-07
1.42509e-08
2.22122e-07
1.37147e-08
2.21215e-07
1.32049e-08
2.20301e-07
1.27201e-08
2.19383e-07
1.22592e-08
2.18462e-07
1.18211e-08
2.17543e-07
1.14048e-08
2.16625e-07
1.10095e-08
2.15712e-07
1.06348e-08
2.14805e-07
1.02793e-08
2.13905e-07
9.94434e-09
2.13013e-07
9.6265e-09
2.12129e-07
9.331e-09
2.11255e-07
9.04929e-09
2.10391e-07
8.79507e-09
2.09535e-07
8.54926e-09
2.08691e-07
8.33974e-09
2.07853e-07
8.1341e-09
2.07028e-07
7.9694e-09
2.06206e-07
7.82453e-09
2.05395e-07
7.68156e-09
2.0459e-07
7.65873e-09
2.03755e-07
7.45544e-09
2.02957e-07
7.68121e-09
7.64574e-09
2.01952e-07
2.3098e-07
6.82337e-08
2.33936e-07
8.04087e-08
2.35369e-07
5.77871e-08
2.36462e-07
4.9047e-08
2.37065e-07
4.43777e-08
2.37427e-07
3.95578e-08
2.37744e-07
3.58118e-08
2.38023e-07
3.31385e-08
2.3825e-07
3.09892e-08
2.38427e-07
2.91326e-08
2.38555e-07
2.75154e-08
2.38633e-07
2.60972e-08
2.38658e-07
2.48351e-08
2.38628e-07
2.36956e-08
2.38542e-07
2.26554e-08
2.384e-07
2.16977e-08
2.38204e-07
2.08096e-08
2.37955e-07
1.99811e-08
2.37655e-07
1.92044e-08
2.37307e-07
1.84731e-08
2.36914e-07
1.77822e-08
2.3648e-07
1.71278e-08
2.36008e-07
1.65065e-08
2.35501e-07
1.59155e-08
2.34963e-07
1.53527e-08
2.34398e-07
1.48162e-08
2.33809e-07
1.43042e-08
2.33198e-07
1.38156e-08
2.32569e-07
1.3349e-08
2.31925e-07
1.29035e-08
2.31268e-07
1.24783e-08
2.306e-07
1.20725e-08
2.29924e-07
1.16856e-08
2.29241e-07
1.13173e-08
2.28554e-07
1.09665e-08
2.27864e-07
1.06346e-08
2.27172e-07
1.03186e-08
2.26479e-07
1.00235e-08
2.25787e-07
9.74169e-09
2.25096e-07
9.4856e-09
2.24406e-07
9.239e-09
2.23721e-07
9.02533e-09
2.23035e-07
8.81992e-09
2.22356e-07
8.6488e-09
2.21675e-07
8.50569e-09
2.20997e-07
8.359e-09
2.20325e-07
8.33111e-09
2.19617e-07
8.16333e-09
2.18939e-07
8.35929e-09
8.47328e-09
2.18111e-07
2.37601e-07
6.27576e-08
2.40604e-07
7.74059e-08
2.4198e-07
5.64111e-08
2.43078e-07
4.79491e-08
2.43718e-07
4.37373e-08
2.44094e-07
3.91818e-08
2.44416e-07
3.54896e-08
2.44708e-07
3.28468e-08
2.44958e-07
3.07394e-08
2.45171e-07
2.89194e-08
2.45354e-07
2.73327e-08
2.45507e-07
2.5944e-08
2.45629e-07
2.47126e-08
2.4572e-07
2.36053e-08
2.45776e-07
2.25987e-08
2.45798e-07
2.16758e-08
2.45784e-07
2.08234e-08
2.45734e-07
2.0031e-08
2.45648e-07
1.92904e-08
2.45527e-07
1.85948e-08
2.4537e-07
1.7939e-08
2.45179e-07
1.73184e-08
2.44956e-07
1.67297e-08
2.44702e-07
1.61697e-08
2.44418e-07
1.56361e-08
2.44108e-07
1.51269e-08
2.43771e-07
1.46405e-08
2.43412e-07
1.41753e-08
2.4303e-07
1.37303e-08
2.42629e-07
1.33044e-08
2.42211e-07
1.28969e-08
2.41776e-07
1.2507e-08
2.41328e-07
1.21342e-08
2.40867e-07
1.17784e-08
2.40395e-07
1.14385e-08
2.39913e-07
1.11161e-08
2.39423e-07
1.08083e-08
2.38927e-07
1.05199e-08
2.38425e-07
1.02442e-08
2.37918e-07
9.99223e-09
2.37406e-07
9.75071e-09
2.36893e-07
9.53848e-09
2.36375e-07
9.33826e-09
2.35857e-07
9.1662e-09
2.35335e-07
9.02794e-09
2.3481e-07
8.88363e-09
2.34289e-07
8.85239e-09
2.33731e-07
8.72156e-09
2.33195e-07
8.89478e-09
9.1086e-09
2.3256e-07
2.44431e-07
5.75828e-08
2.47473e-07
7.43635e-08
2.488e-07
5.50841e-08
2.49899e-07
4.68509e-08
2.50578e-07
4.30581e-08
2.50971e-07
3.87886e-08
2.51298e-07
3.51628e-08
2.51595e-07
3.25495e-08
2.51853e-07
3.04817e-08
2.52077e-07
2.86951e-08
2.52277e-07
2.71328e-08
2.52457e-07
2.57647e-08
2.52616e-07
2.45532e-08
2.52756e-07
2.34657e-08
2.52875e-07
2.24793e-08
2.52974e-07
2.15772e-08
2.53051e-07
2.07463e-08
2.53106e-07
1.99762e-08
2.53138e-07
1.92585e-08
2.53146e-07
1.85863e-08
2.53131e-07
1.79542e-08
2.53092e-07
1.73574e-08
2.53029e-07
1.67923e-08
2.52943e-07
1.62557e-08
2.52834e-07
1.57451e-08
2.52703e-07
1.52581e-08
2.5255e-07
1.47931e-08
2.52377e-07
1.43485e-08
2.52184e-07
1.39231e-08
2.51973e-07
1.35157e-08
2.51744e-07
1.31256e-08
2.51499e-07
1.27521e-08
2.51239e-07
1.23945e-08
2.50965e-07
1.20528e-08
2.50677e-07
1.17259e-08
2.50378e-07
1.14153e-08
2.50068e-07
1.11183e-08
2.49748e-07
1.08395e-08
2.49419e-07
1.05731e-08
2.49083e-07
1.03284e-08
2.48739e-07
1.00951e-08
2.4839e-07
9.88754e-09
2.48033e-07
9.69511e-09
2.47674e-07
9.52577e-09
2.47308e-07
9.39365e-09
2.46936e-07
9.25585e-09
2.46566e-07
9.22227e-09
2.46161e-07
9.12649e-09
2.45773e-07
9.28224e-09
9.55527e-09
2.45327e-07
2.51478e-07
5.27113e-08
2.54551e-07
7.12908e-08
2.55839e-07
5.37956e-08
2.56933e-07
4.57578e-08
2.5765e-07
4.2341e-08
2.58063e-07
3.83751e-08
2.58396e-07
3.483e-08
2.58699e-07
3.22467e-08
2.58962e-07
3.02186e-08
2.59191e-07
2.84661e-08
2.59396e-07
2.69273e-08
2.59584e-07
2.55773e-08
2.59755e-07
2.43816e-08
2.59912e-07
2.33088e-08
2.60055e-07
2.23363e-08
2.60185e-07
2.14476e-08
2.60301e-07
2.06303e-08
2.60403e-07
1.9874e-08
2.60491e-07
1.91704e-08
2.60565e-07
1.85128e-08
2.60623e-07
1.78956e-08
2.60666e-07
1.73141e-08
2.60694e-07
1.67646e-08
2.60706e-07
1.62438e-08
2.60702e-07
1.57489e-08
2.60683e-07
1.52778e-08
2.60647e-07
1.48285e-08
2.60596e-07
1.43994e-08
2.6053e-07
1.39891e-08
2.60449e-07
1.35966e-08
2.60354e-07
1.32208e-08
2.60245e-07
1.28611e-08
2.60123e-07
1.25167e-08
2.59988e-07
1.21875e-08
2.59842e-07
1.18725e-08
2.59684e-07
1.15731e-08
2.59515e-07
1.12869e-08
2.59337e-07
1.10177e-08
2.59149e-07
1.07608e-08
2.58954e-07
1.0524e-08
2.58749e-07
1.02994e-08
2.58539e-07
1.00977e-08
2.58321e-07
9.91335e-09
2.58098e-07
9.74836e-09
2.5787e-07
9.62195e-09
2.57633e-07
9.49251e-09
2.57399e-07
9.45667e-09
2.57134e-07
9.39129e-09
2.56884e-07
9.53261e-09
9.83278e-09
2.56606e-07
2.58751e-07
4.8143e-08
2.61844e-07
6.81979e-08
2.63105e-07
5.2535e-08
2.64188e-07
4.46749e-08
2.6494e-07
4.15886e-08
2.65376e-07
3.79393e-08
2.65716e-07
3.44902e-08
2.66024e-07
3.19381e-08
2.66293e-07
2.99498e-08
2.66526e-07
2.82329e-08
2.66735e-07
2.67186e-08
2.66926e-07
2.53866e-08
2.67101e-07
2.4206e-08
2.67264e-07
2.31463e-08
2.67415e-07
2.21854e-08
2.67555e-07
2.13074e-08
2.67685e-07
2.05e-08
2.67806e-07
1.97533e-08
2.67917e-07
1.90592e-08
2.68019e-07
1.84111e-08
2.68111e-07
1.78036e-08
2.68193e-07
1.72319e-08
2.68265e-07
1.66924e-08
2.68327e-07
1.61818e-08
2.68379e-07
1.56973e-08
2.6842e-07
1.52367e-08
2.6845e-07
1.4798e-08
2.6847e-07
1.43795e-08
2.6848e-07
1.39799e-08
2.68478e-07
1.35979e-08
2.68467e-07
1.32325e-08
2.68445e-07
1.28831e-08
2.68413e-07
1.25487e-08
2.68371e-07
1.22293e-08
2.6832e-07
1.19237e-08
2.68259e-07
1.16333e-08
2.6819e-07
1.13559e-08
2.68113e-07
1.10947e-08
2.68028e-07
1.0846e-08
2.67936e-07
1.06158e-08
2.67837e-07
1.03989e-08
2.67732e-07
1.02023e-08
2.67621e-07
1.00248e-08
2.67505e-07
9.86417e-09
2.67385e-07
9.74184e-09
2.67257e-07
9.62063e-09
2.67132e-07
9.58187e-09
2.66983e-07
9.5404e-09
2.66847e-07
9.66828e-09
9.97112e-09
2.66709e-07
2.66259e-07
4.38763e-08
2.69362e-07
6.50952e-08
2.70605e-07
5.12918e-08
2.71673e-07
4.36066e-08
2.72457e-07
4.08043e-08
2.72917e-07
3.74796e-08
2.73265e-07
3.41425e-08
2.73579e-07
3.16237e-08
2.73854e-07
2.96749e-08
2.74092e-07
2.79951e-08
2.74304e-07
2.65068e-08
2.74497e-07
2.51935e-08
2.74675e-07
2.40281e-08
2.7484e-07
2.29814e-08
2.74993e-07
2.20317e-08
2.75137e-07
2.11635e-08
2.75272e-07
2.03649e-08
2.75399e-07
1.96262e-08
2.75519e-07
1.89398e-08
2.75631e-07
1.82989e-08
2.75736e-07
1.76984e-08
2.75834e-07
1.71337e-08
2.75926e-07
1.66011e-08
2.7601e-07
1.60974e-08
2.76087e-07
1.562e-08
2.76158e-07
1.51664e-08
2.76221e-07
1.47348e-08
2.76277e-07
1.43235e-08
2.76326e-07
1.39311e-08
2.76367e-07
1.35563e-08
2.76402e-07
1.31981e-08
2.76429e-07
1.28558e-08
2.76449e-07
1.25284e-08
2.76463e-07
1.22159e-08
2.76469e-07
1.19171e-08
2.7647e-07
1.16332e-08
2.76463e-07
1.13622e-08
2.76451e-07
1.11068e-08
2.76433e-07
1.08642e-08
2.7641e-07
1.06389e-08
2.76381e-07
1.04277e-08
2.76348e-07
1.02349e-08
2.76311e-07
1.00622e-08
2.7627e-07
9.90494e-09
2.76228e-07
9.78453e-09
2.76178e-07
9.67011e-09
2.76133e-07
9.62735e-09
2.7607e-07
9.60252e-09
2.76022e-07
9.71646e-09
1.0004e-08
2.75989e-07
2.7401e-07
3.99078e-08
2.77111e-07
6.19939e-08
2.78347e-07
5.00559e-08
2.79397e-07
4.25565e-08
2.80209e-07
3.99921e-08
2.80695e-07
3.69942e-08
2.81051e-07
3.3786e-08
2.81371e-07
3.13034e-08
2.81653e-07
2.93935e-08
2.81895e-07
2.77523e-08
2.82111e-07
2.62915e-08
2.82307e-07
2.49977e-08
2.82487e-07
2.3848e-08
2.82653e-07
2.28147e-08
2.82809e-07
2.18764e-08
2.82954e-07
2.1018e-08
2.83091e-07
2.0228e-08
2.8322e-07
1.9497e-08
2.83342e-07
1.88175e-08
2.83458e-07
1.81832e-08
2.83568e-07
1.75887e-08
2.83672e-07
1.70298e-08
2.8377e-07
1.65027e-08
2.83863e-07
1.60044e-08
2.83951e-07
1.55323e-08
2.84033e-07
1.50839e-08
2.84111e-07
1.46575e-08
2.84183e-07
1.42513e-08
2.8425e-07
1.3864e-08
2.84312e-07
1.34943e-08
2.84369e-07
1.3141e-08
2.84421e-07
1.28037e-08
2.84468e-07
1.24811e-08
2.84511e-07
1.21734e-08
2.84549e-07
1.18793e-08
2.84582e-07
1.15998e-08
2.84611e-07
1.13332e-08
2.84636e-07
1.10818e-08
2.84657e-07
1.08433e-08
2.84675e-07
1.06212e-08
2.84689e-07
1.04137e-08
2.847e-07
1.02232e-08
2.84709e-07
1.00531e-08
2.84716e-07
9.89805e-09
2.84723e-07
9.77751e-09
2.84726e-07
9.66781e-09
2.84733e-07
9.61994e-09
2.84731e-07
9.60465e-09
2.84744e-07
9.70327e-09
9.96308e-09
2.84785e-07
2.82013e-07
3.62321e-08
2.85102e-07
5.89054e-08
2.8634e-07
4.88176e-08
2.87369e-07
4.15272e-08
2.88205e-07
3.91568e-08
2.88717e-07
3.6482e-08
2.89083e-07
3.34194e-08
2.89409e-07
3.09774e-08
2.89697e-07
2.91057e-08
2.89945e-07
2.75042e-08
2.90164e-07
2.60724e-08
2.90363e-07
2.47991e-08
2.90545e-07
2.36657e-08
2.90714e-07
2.26462e-08
2.90871e-07
2.17196e-08
2.91017e-07
2.08713e-08
2.91155e-07
2.009e-08
2.91286e-07
1.93668e-08
2.91409e-07
1.86942e-08
2.91526e-07
1.80661e-08
2.91637e-07
1.74775e-08
2.91743e-07
1.6924e-08
2.91844e-07
1.6402e-08
2.9194e-07
1.59085e-08
2.92031e-07
1.5441e-08
2.92118e-07
1.49971e-08
2.922e-07
1.45749e-08
2.92279e-07
1.41729e-08
2.92353e-07
1.37896e-08
2.92424e-07
1.34237e-08
2.92491e-07
1.30743e-08
2.92554e-07
1.27406e-08
2.92613e-07
1.24217e-08
2.92669e-07
1.21173e-08
2.92722e-07
1.18266e-08
2.92771e-07
1.15501e-08
2.92818e-07
1.12866e-08
2.92862e-07
1.10377e-08
2.92903e-07
1.0802e-08
2.92943e-07
1.05817e-08
2.9298e-07
1.03763e-08
2.93016e-07
1.0187e-08
2.93052e-07
1.00179e-08
2.93086e-07
9.86375e-09
2.93122e-07
9.74146e-09
2.93155e-07
9.63434e-09
2.93195e-07
9.58042e-09
2.93231e-07
9.56833e-09
2.93285e-07
9.64994e-09
9.87389e-09
2.93374e-07
2.90279e-07
3.28421e-08
2.93343e-07
5.58414e-08
2.94592e-07
4.75681e-08
2.95599e-07
4.05207e-08
2.96452e-07
3.83035e-08
2.96992e-07
3.5942e-08
2.9737e-07
3.30413e-08
2.97702e-07
3.06458e-08
2.97996e-07
2.88115e-08
2.9825e-07
2.72503e-08
2.98473e-07
2.58493e-08
2.98675e-07
2.45974e-08
2.9886e-07
2.34808e-08
2.9903e-07
2.24755e-08
2.99189e-07
2.15611e-08
2.99337e-07
2.07232e-08
2.99476e-07
1.99509e-08
2.99607e-07
1.92356e-08
2.99731e-07
1.85701e-08
2.99849e-07
1.79485e-08
2.99961e-07
1.73656e-08
3.00067e-07
1.68175e-08
3.00169e-07
1.63005e-08
3.00266e-07
1.58117e-08
3.00358e-07
1.53486e-08
3.00446e-07
1.49088e-08
3.0053e-07
1.44907e-08
3.00611e-07
1.40924e-08
3.00688e-07
1.37127e-08
3.00761e-07
1.33503e-08
3.00832e-07
1.30041e-08
3.00899e-07
1.26735e-08
3.00963e-07
1.23575e-08
3.01024e-07
1.20559e-08
3.01083e-07
1.17677e-08
3.0114e-07
1.14935e-08
3.01194e-07
1.12322e-08
3.01247e-07
1.09851e-08
3.01298e-07
1.07511e-08
3.01348e-07
1.05319e-08
3.01396e-07
1.03276e-08
3.01445e-07
1.01386e-08
3.01493e-07
9.96925e-09
3.01542e-07
9.8151e-09
3.01593e-07
9.68999e-09
3.01644e-07
9.58348e-09
3.01702e-07
9.52282e-09
3.01762e-07
9.50866e-09
3.0184e-07
9.57154e-09
9.7549e-09
3.01959e-07
2.98816e-07
2.97289e-08
3.01843e-07
5.2814e-08
3.03112e-07
4.62994e-08
3.04095e-07
3.95377e-08
3.04961e-07
3.74377e-08
3.05529e-07
3.53737e-08
3.0592e-07
3.26503e-08
3.06257e-07
3.03083e-08
3.06558e-07
2.85107e-08
3.06818e-07
2.69905e-08
3.07046e-07
2.56218e-08
3.07251e-07
2.43924e-08
3.07438e-07
2.32932e-08
3.07611e-07
2.23027e-08
3.07771e-07
2.14008e-08
3.07921e-07
2.05736e-08
3.08061e-07
1.98106e-08
3.08193e-07
1.91035e-08
3.08318e-07
1.84452e-08
3.08437e-07
1.78301e-08
3.08549e-07
1.72532e-08
3.08656e-07
1.67106e-08
3.08758e-07
1.61987e-08
3.08855e-07
1.57146e-08
3.08948e-07
1.52558e-08
3.09036e-07
1.48202e-08
3.09121e-07
1.4406e-08
3.09202e-07
1.40114e-08
3.09279e-07
1.36351e-08
3.09354e-07
1.3276e-08
3.09425e-07
1.29329e-08
3.09493e-07
1.26051e-08
3.09559e-07
1.22918e-08
3.09622e-07
1.19926e-08
3.09683e-07
1.17067e-08
3.09743e-07
1.14344e-08
3.098e-07
1.11749e-08
3.09856e-07
1.09291e-08
3.09911e-07
1.06964e-08
3.09965e-07
1.04778e-08
3.10018e-07
1.02739e-08
3.10072e-07
1.00847e-08
3.10127e-07
9.91437e-09
3.10183e-07
9.75951e-09
3.10242e-07
9.63093e-09
3.10302e-07
9.52333e-09
3.10369e-07
9.4554e-09
3.10443e-07
9.43498e-09
3.10537e-07
9.47763e-09
9.61813e-09
3.10674e-07
3.07634e-07
2.68821e-08
3.10613e-07
4.98352e-08
3.11907e-07
4.50048e-08
3.12867e-07
3.85782e-08
3.1374e-07
3.65648e-08
3.14336e-07
3.47775e-08
3.14742e-07
3.22446e-08
3.15085e-07
2.99647e-08
3.15392e-07
2.82035e-08
3.15659e-07
2.67242e-08
3.15891e-07
2.53895e-08
3.161e-07
2.41839e-08
3.1629e-07
2.31028e-08
3.16465e-07
2.21274e-08
3.16628e-07
2.12385e-08
3.16779e-07
2.04224e-08
3.16921e-07
1.96689e-08
3.17054e-07
1.89702e-08
3.1718e-07
1.83194e-08
3.17299e-07
1.7711e-08
3.17412e-07
1.71403e-08
3.17519e-07
1.66032e-08
3.17621e-07
1.60965e-08
3.17719e-07
1.56172e-08
3.17812e-07
1.51629e-08
3.179e-07
1.47315e-08
3.17985e-07
1.43212e-08
3.18066e-07
1.39303e-08
3.18144e-07
1.35575e-08
3.18218e-07
1.32016e-08
3.1829e-07
1.28615e-08
3.18358e-07
1.25365e-08
3.18424e-07
1.22257e-08
3.18488e-07
1.19289e-08
3.18549e-07
1.16451e-08
3.18609e-07
1.13746e-08
3.18668e-07
1.11167e-08
3.18725e-07
1.0872e-08
3.18781e-07
1.06403e-08
3.18836e-07
1.0422e-08
3.18892e-07
1.02182e-08
3.18948e-07
1.00286e-08
3.19006e-07
9.85677e-09
3.19065e-07
9.70065e-09
3.19127e-07
9.56825e-09
3.19193e-07
9.45811e-09
3.19266e-07
9.38246e-09
3.19348e-07
9.35255e-09
3.19452e-07
9.37372e-09
9.47082e-09
3.19599e-07
3.16744e-07
2.42896e-08
3.19662e-07
4.69171e-08
3.20988e-07
4.36791e-08
3.21925e-07
3.76411e-08
3.228e-07
3.56899e-08
3.23423e-07
3.41544e-08
3.23845e-07
3.18228e-08
3.24195e-07
2.96147e-08
3.24508e-07
2.789e-08
3.24781e-07
2.64514e-08
3.25018e-07
2.5152e-08
3.25231e-07
2.39715e-08
3.25424e-07
2.29092e-08
3.25602e-07
2.19494e-08
3.25767e-07
2.1074e-08
3.2592e-07
2.02693e-08
3.26063e-07
1.95257e-08
3.26198e-07
1.88356e-08
3.26325e-07
1.81926e-08
3.26445e-07
1.75911e-08
3.26558e-07
1.70266e-08
3.26666e-07
1.64953e-08
3.26769e-07
1.59938e-08
3.26867e-07
1.55195e-08
3.2696e-07
1.50698e-08
3.27049e-07
1.46427e-08
3.27133e-07
1.42363e-08
3.27215e-07
1.38492e-08
3.27292e-07
1.34799e-08
3.27366e-07
1.31272e-08
3.27438e-07
1.27902e-08
3.27506e-07
1.2468e-08
3.27572e-07
1.21598e-08
3.27636e-07
1.18652e-08
3.27697e-07
1.15835e-08
3.27757e-07
1.13147e-08
3.27816e-07
1.10584e-08
3.27873e-07
1.08147e-08
3.27929e-07
1.05838e-08
3.27986e-07
1.03658e-08
3.28042e-07
1.01618e-08
3.28099e-07
9.97155e-09
3.28158e-07
9.79796e-09
3.28219e-07
9.6401e-09
3.28283e-07
9.50366e-09
3.28351e-07
9.38977e-09
3.28428e-07
9.30593e-09
3.28516e-07
9.26411e-09
3.28627e-07
9.26284e-09
9.31717e-09
3.28781e-07
3.26154e-07
2.1938e-08
3.29e-07
4.40713e-08
3.30361e-07
4.23183e-08
3.31277e-07
3.67244e-08
3.32149e-07
3.48178e-08
3.32798e-07
3.35061e-08
3.33237e-07
3.13833e-08
3.33594e-07
2.92575e-08
3.33914e-07
2.75702e-08
3.34194e-07
2.61718e-08
3.34437e-07
2.4909e-08
3.34653e-07
2.3755e-08
3.3485e-07
2.27122e-08
3.35031e-07
2.17686e-08
3.35198e-07
2.0907e-08
3.35353e-07
2.01141e-08
3.35498e-07
1.93808e-08
3.35634e-07
1.86996e-08
3.35762e-07
1.80645e-08
3.35883e-07
1.74701e-08
3.35998e-07
1.69121e-08
3.36106e-07
1.63866e-08
3.3621e-07
1.58906e-08
3.36308e-07
1.54213e-08
3.36401e-07
1.49763e-08
3.3649e-07
1.45536e-08
3.36575e-07
1.41513e-08
3.36656e-07
1.3768e-08
3.36734e-07
1.34022e-08
3.36808e-07
1.30529e-08
3.3688e-07
1.2719e-08