/*--------------------------------*- C++ -*----------------------------------*\
  =========                 |
  \\      /  F ield         | OpenFOAM: The Open Source CFD Toolbox
   \\    /   O peration     | Website:  https://openfoam.org
    \\  /    A nd           | Version:  7
     \\/     M anipulation  |
\*---------------------------------------------------------------------------*/
FoamFile
{
    version     2.0;
    format      ascii;
    class       surfaceScalarField;
    location    "0.18";
    object      phi_0;
}
// * * * * * * * * * * * * * * * * * * * * * * * * * * * * * * * * * * * * * //

dimensions      [0 3 -1 0 0 0 0];

internalField   nonuniform List<scalar> 
139350
(
6.45933e-08
9.20382e-08
3.19533e-08
3.26399e-08
2.30641e-08
8.8892e-09
1.95719e-08
3.49226e-09
1.76222e-08
1.94965e-09
1.61968e-08
1.42545e-09
1.50658e-08
1.13096e-09
1.41538e-08
9.12014e-10
1.34031e-08
7.50648e-10
1.27707e-08
6.3242e-10
1.22277e-08
5.43005e-10
1.17548e-08
4.72912e-10
1.13383e-08
4.16514e-10
1.0968e-08
3.7028e-10
1.06362e-08
3.31802e-10
1.03368e-08
2.99363e-10
1.00651e-08
2.71701e-10
9.81727e-09
2.47876e-10
9.59009e-09
2.27175e-10
9.38105e-09
2.09046e-10
9.18798e-09
1.93061e-10
9.00911e-09
1.78877e-10
8.84288e-09
1.66223e-10
8.68801e-09
1.54878e-10
8.54335e-09
1.4466e-10
8.40792e-09
1.35422e-10
8.28089e-09
1.27038e-10
8.16148e-09
1.19409e-10
8.04903e-09
1.12441e-10
7.94296e-09
1.0607e-10
7.84274e-09
1.0022e-10
7.74789e-09
9.48591e-11
7.65798e-09
8.99066e-11
7.5726e-09
8.5379e-11
7.49144e-09
8.11597e-11
7.4141e-09
7.73427e-11
7.34036e-09
7.37375e-11
7.26982e-09
7.05396e-11
7.20233e-09
6.74939e-11
7.13753e-09
6.47948e-11
7.07511e-09
6.2424e-11
7.01523e-09
5.98772e-11
6.9564e-09
5.88331e-11
6.90117e-09
5.52249e-11
6.84326e-09
5.79133e-11
6.79449e-09
4.87666e-11
6.72875e-09
6.57447e-11
6.70965e-09
1.90954e-11
6.47431e-09
2.35336e-10
-2.97164e-09
9.44596e-09
1.26027e-07
1.27455e-07
9.12675e-08
6.73994e-08
7.19509e-08
2.82058e-08
6.12288e-08
1.42143e-08
5.47876e-08
8.39087e-09
5.02987e-08
5.91436e-09
4.68191e-08
4.61055e-09
4.40072e-08
3.72389e-09
4.16838e-08
3.07406e-09
3.97242e-08
2.59207e-09
3.80412e-08
2.22594e-09
3.65751e-08
1.93908e-09
3.52831e-08
1.70847e-09
3.41339e-08
1.51946e-09
3.31036e-08
1.36215e-09
3.21735e-08
1.22949e-09
3.13288e-08
1.11636e-09
3.05578e-08
1.0189e-09
2.98508e-08
9.34199e-10
2.91998e-08
8.6002e-10
2.85982e-08
7.94603e-10
2.80406e-08
7.36559e-10
2.7522e-08
6.84774e-10
2.70385e-08
6.38346e-10
2.65867e-08
5.9654e-10
2.61633e-08
5.58748e-10
2.57659e-08
5.24466e-10
2.53921e-08
4.93273e-10
2.50397e-08
4.6481e-10
2.4707e-08
4.38787e-10
2.43923e-08
4.14929e-10
2.40941e-08
3.93057e-10
2.38111e-08
3.72916e-10
2.3542e-08
3.54473e-10
2.32857e-08
3.37387e-10
2.30412e-08
3.21883e-10
2.28076e-08
3.07351e-10
2.25836e-08
2.94497e-10
2.2369e-08
2.82145e-10
2.2162e-08
2.71797e-10
2.19629e-08
2.61479e-10
2.17694e-08
2.534e-10
2.15825e-08
2.4572e-10
2.13992e-08
2.38525e-10
2.12198e-08
2.3727e-10
2.10461e-08
2.22541e-10
2.08584e-08
2.53444e-10
2.07395e-08
1.37931e-10
2.03861e-08
5.88737e-10
-3.45735e-09
2.08718e-08
1.58808e-07
1.35051e-07
1.36499e-07
8.97088e-08
1.17503e-07
4.72015e-08
1.03332e-07
2.83853e-08
9.33321e-08
1.83907e-08
8.6037e-08
1.32094e-08
8.03374e-08
1.03102e-08
7.56914e-08
8.36982e-09
7.1817e-08
6.94853e-09
6.85271e-08
5.88195e-09
6.56887e-08
5.06432e-09
6.32072e-08
4.4206e-09
6.10141e-08
3.90152e-09
5.90586e-08
3.475e-09
5.73015e-08
3.11921e-09
5.57124e-08
2.81863e-09
5.42669e-08
2.56183e-09
5.29455e-08
2.34031e-09
5.17322e-08
2.14755e-09
5.06136e-08
1.97855e-09
4.95789e-08
1.82937e-09
4.86185e-08
1.69689e-09
4.77247e-08
1.57861e-09
4.68905e-08
1.4725e-09
4.61102e-08
1.3769e-09
4.53785e-08
1.29044e-09
4.4691e-08
1.21198e-09
4.40437e-08
1.14057e-09
4.34331e-08
1.0754e-09
4.28561e-08
1.01579e-09
4.23098e-08
9.61163e-10
4.17918e-08
9.11054e-10
4.12998e-08
8.64959e-10
4.08316e-08
8.227e-10
4.03853e-08
7.83649e-10
3.9959e-08
7.48135e-10
3.95514e-08
7.14975e-10
3.91603e-08
6.85617e-10
3.87851e-08
6.57381e-10
3.84227e-08
6.34144e-10
3.80742e-08
6.09967e-10
3.77343e-08
5.93347e-10
3.74072e-08
5.72813e-10
3.70829e-08
5.62797e-10
3.67709e-08
5.49276e-10
3.64579e-08
5.35566e-10
3.61422e-08
5.69124e-10
3.58811e-08
3.99025e-10
3.55117e-08
9.58197e-10
-2.90037e-09
3.49547e-08
1.75664e-07
1.30902e-07
1.65598e-07
9.97755e-08
1.52732e-07
6.00673e-08
1.4014e-07
4.09771e-08
1.29459e-07
2.90718e-08
1.20824e-07
2.18442e-08
1.1372e-07
1.74145e-08
1.07746e-07
1.4344e-08
1.0265e-07
1.2044e-08
9.82511e-08
1.0281e-08
9.44088e-08
8.90663e-09
9.10178e-08
7.81162e-09
8.79984e-08
6.92094e-09
8.52893e-08
6.18407e-09
8.28426e-08
5.56592e-09
8.062e-08
5.0412e-09
7.85907e-08
4.59113e-09
7.67295e-08
4.20154e-09
7.50155e-08
3.86155e-09
7.34314e-08
3.56268e-09
7.19625e-08
3.29827e-09
7.05964e-08
3.06298e-09
6.93225e-08
2.85254e-09
6.81315e-08
2.66344e-09
6.70156e-08
2.49283e-09
6.59677e-08
2.33832e-09
6.49817e-08
2.19796e-09
6.40523e-08
2.07006e-09
6.31744e-08
1.95323e-09
6.23439e-08
1.84628e-09
6.15569e-08
1.7482e-09
6.08098e-08
1.65814e-09
6.00995e-08
1.57529e-09
5.9423e-08
1.49923e-09
5.87776e-08
1.42899e-09
5.81608e-08
1.36497e-09
5.75704e-08
1.30531e-09
5.70037e-08
1.25233e-09
5.64596e-08
1.20149e-09
5.59341e-08
1.15963e-09
5.54283e-08
1.11577e-09
5.49352e-08
1.08653e-09
5.44601e-08
1.04783e-09
5.39898e-08
1.03312e-09
5.35368e-08
1.00225e-09
5.30823e-08
9.90127e-10
5.26316e-08
1.01983e-09
5.22169e-08
8.13719e-10
5.17893e-08
1.38577e-09
-1.98356e-09
5.08725e-08
1.8456e-07
1.23127e-07
1.82323e-07
1.02013e-07
1.76109e-07
6.62817e-08
1.67772e-07
4.93138e-08
1.59157e-07
3.76871e-08
1.51256e-07
2.97451e-08
1.44191e-07
2.4479e-08
1.37899e-07
2.06363e-08
1.32304e-07
1.76387e-08
1.27323e-07
1.52623e-08
1.22869e-07
1.33603e-08
1.18867e-07
1.18142e-08
1.15251e-07
1.05369e-08
1.11968e-07
9.46686e-09
1.08974e-07
8.56e-09
1.06231e-07
7.78357e-09
1.0371e-07
7.11278e-09
1.01383e-07
6.52852e-09
9.92284e-08
6.0159e-09
9.72279e-08
5.56318e-09
9.53652e-08
5.16099e-09
9.36264e-08
4.80181e-09
9.19994e-08
4.4795e-09
9.04738e-08
4.18904e-09
8.90404e-08
3.92628e-09
8.76909e-08
3.68776e-09
8.64183e-08
3.47058e-09
8.52161e-08
3.2723e-09
8.40784e-08
3.09085e-09
8.30003e-08
2.92446e-09
8.19768e-08
2.77162e-09
8.10039e-08
2.63107e-09
8.00776e-08
2.50161e-09
7.91943e-08
2.38255e-09
7.83507e-08
2.27254e-09
7.75437e-08
2.17201e-09
7.67706e-08
2.07841e-09
7.6028e-08
1.99487e-09
7.53145e-08
1.91501e-09
7.46255e-08
1.84863e-09
7.39616e-08
1.77965e-09
7.33153e-08
1.73285e-09
7.26914e-08
1.6717e-09
7.20766e-08
1.64794e-09
7.14814e-08
1.59745e-09
7.08893e-08
1.58225e-09
7.03029e-08
1.60618e-09
6.97423e-08
1.37434e-09
6.9206e-08
1.92206e-09
-9.03335e-10
6.81258e-08
1.90389e-07
1.14955e-07
1.91853e-07
1.00548e-07
1.90248e-07
6.7887e-08
1.86162e-07
5.33996e-08
1.8073e-07
4.31194e-08
1.74983e-07
3.54921e-08
1.69294e-07
3.01678e-08
1.63818e-07
2.61126e-08
1.58649e-07
2.28072e-08
1.5383e-07
2.00815e-08
1.49363e-07
1.78276e-08
1.45231e-07
1.59462e-08
1.4141e-07
1.43576e-08
1.37874e-07
1.30026e-08
1.34597e-07
1.18367e-08
1.31555e-07
1.08256e-08
1.28726e-07
9.9424e-09
1.26088e-07
9.16582e-09
1.23626e-07
8.47884e-09
1.21321e-07
7.86775e-09
1.19161e-07
7.3214e-09
1.17132e-07
6.8307e-09
1.15223e-07
6.38814e-09
1.13425e-07
5.98748e-09
1.11727e-07
5.62354e-09
1.10123e-07
5.29192e-09
1.08605e-07
4.98895e-09
1.07166e-07
4.71145e-09
1.058e-07
4.45678e-09
1.04502e-07
4.22261e-09
1.03266e-07
4.00697e-09
1.02089e-07
3.80819e-09
1.00966e-07
3.6247e-09
9.9893e-08
3.45554e-09
9.88665e-08
3.299e-09
9.7883e-08
3.15552e-09
9.69396e-08
3.02188e-09
9.60325e-08
2.90194e-09
9.51598e-08
2.78767e-09
9.4317e-08
2.69142e-09
9.35039e-08
2.59284e-09
9.27134e-08
2.52333e-09
9.19484e-08
2.4367e-09
9.11982e-08
2.3981e-09
9.0468e-08
2.32771e-09
8.97484e-08
2.30184e-09
8.90339e-08
2.32061e-09
8.83404e-08
2.06784e-09
8.76845e-08
2.57797e-09
2.98917e-10
8.64823e-08
1.95541e-07
1.07229e-07
1.98248e-07
9.78409e-08
1.98972e-07
6.71639e-08
1.97794e-07
5.45768e-08
1.95167e-07
4.57467e-08
1.91831e-07
3.88278e-08
1.88106e-07
3.38927e-08
1.84163e-07
3.00559e-08
1.8015e-07
2.68204e-08
1.76176e-07
2.40551e-08
1.7231e-07
2.1694e-08
1.68589e-07
1.96671e-08
1.65034e-07
1.79129e-08
1.61652e-07
1.63841e-08
1.58445e-07
1.50437e-08
1.55409e-07
1.38621e-08
1.52536e-07
1.28152e-08
1.49819e-07
1.1883e-08
1.47248e-07
1.10492e-08
1.44816e-07
1.03002e-08
1.42513e-07
9.62471e-09
1.4033e-07
9.01323e-09
1.3826e-07
8.45784e-09
1.36296e-07
7.95184e-09
1.3443e-07
7.48953e-09
1.32656e-07
7.06605e-09
1.30968e-07
6.67728e-09
1.29359e-07
6.31961e-09
1.27826e-07
5.99002e-09
1.26363e-07
5.68578e-09
1.24965e-07
5.40464e-09
1.23629e-07
5.14459e-09
1.2235e-07
4.90381e-09
1.21124e-07
4.68113e-09
1.19949e-07
4.47455e-09
1.1882e-07
4.2845e-09
1.17734e-07
4.10727e-09
1.16689e-07
3.94725e-09
1.15681e-07
3.79523e-09
1.14708e-07
3.66531e-09
1.13766e-07
3.53428e-09
1.12852e-07
3.4378e-09
1.11964e-07
3.32409e-09
1.11097e-07
3.26507e-09
1.10249e-07
3.17556e-09
1.0942e-07
3.13161e-09
1.08595e-07
3.14552e-09
1.07785e-07
2.87764e-09
1.07021e-07
3.34178e-09
1.58636e-09
1.05734e-07
2.00848e-07
9.9965e-08
2.03777e-07
9.49122e-08
2.0533e-07
6.56111e-08
2.05648e-07
5.42586e-08
2.04825e-07
4.65694e-08
2.03349e-07
4.0304e-08
2.01407e-07
3.58344e-08
1.99084e-07
3.23793e-08
1.96484e-07
2.94203e-08
1.9371e-07
2.68296e-08
1.90841e-07
2.4563e-08
1.87937e-07
2.25707e-08
1.85043e-07
2.08072e-08
1.82189e-07
1.92373e-08
1.79399e-07
1.78339e-08
1.76687e-07
1.65746e-08
1.74061e-07
1.54409e-08
1.71527e-07
1.44167e-08
1.69088e-07
1.34886e-08
1.66743e-07
1.2645e-08
1.64492e-07
1.18759e-08
1.62332e-07
1.1173e-08
1.60261e-07
1.0529e-08
1.58276e-07
9.93744e-09
1.56372e-07
9.39299e-09
1.54547e-07
8.89088e-09
1.52797e-07
8.42705e-09
1.51119e-07
7.99787e-09
1.49509e-07
7.60026e-09
1.47963e-07
7.23142e-09
1.46479e-07
6.88899e-09
1.45053e-07
6.57089e-09
1.43681e-07
6.27516e-09
1.42362e-07
6.00056e-09
1.41091e-07
5.74495e-09
1.39867e-07
5.5088e-09
1.38686e-07
5.28811e-09
1.37546e-07
5.08761e-09
1.36444e-07
4.89741e-09
1.35376e-07
4.73264e-09
1.34342e-07
4.5687e-09
1.33337e-07
4.44303e-09
1.32359e-07
4.3024e-09
1.31405e-07
4.21907e-09
1.30468e-07
4.11193e-09
1.29555e-07
4.04494e-09
1.28647e-07
4.05298e-09
1.27746e-07
3.77852e-09
1.26897e-07
4.19109e-09
2.91309e-09
1.2557e-07
2.06447e-07
9.30498e-08
2.09341e-07
9.20188e-08
2.1104e-07
6.39122e-08
2.11936e-07
5.33622e-08
2.12008e-07
4.6497e-08
2.11627e-07
4.06859e-08
2.10902e-07
3.65584e-08
2.09839e-07
3.34431e-08
2.08472e-07
3.0787e-08
2.0686e-07
2.84413e-08
2.05059e-07
2.63644e-08
2.03116e-07
2.45133e-08
2.01075e-07
2.28489e-08
1.98969e-07
2.13426e-08
1.9683e-07
1.99737e-08
1.94679e-07
1.87256e-08
1.92535e-07
1.75847e-08
1.90412e-07
1.65393e-08
1.88321e-07
1.55792e-08
1.86271e-07
1.46955e-08
1.84266e-07
1.38807e-08
1.82311e-07
1.31279e-08
1.80409e-07
1.24312e-08
1.78561e-07
1.17855e-08
1.76768e-07
1.11861e-08
1.7503e-07
1.0629e-08
1.73346e-07
1.01106e-08
1.71717e-07
9.62755e-09
1.7014e-07
9.17722e-09
1.68614e-07
8.75698e-09
1.67138e-07
8.36467e-09
1.65711e-07
7.9983e-09
1.6433e-07
7.65604e-09
1.62994e-07
7.33672e-09
1.61701e-07
7.03823e-09
1.60448e-07
6.76114e-09
1.59235e-07
6.50142e-09
1.58059e-07
6.264e-09
1.56917e-07
6.03882e-09
1.55808e-07
5.84131e-09
1.5473e-07
5.6469e-09
1.53681e-07
5.49266e-09
1.52656e-07
5.32743e-09
1.51656e-07
5.21864e-09
1.50672e-07
5.09616e-09
1.49712e-07
5.00461e-09
1.4876e-07
5.00532e-09
1.47804e-07
4.73437e-09
1.46901e-07
5.09379e-09
4.2307e-09
1.45584e-07
2.12289e-07
8.64229e-08
2.15154e-07
8.91544e-08
2.16794e-07
6.22718e-08
2.17848e-07
5.23078e-08
2.18267e-07
4.60784e-08
2.18387e-07
4.05655e-08
2.18317e-07
3.66291e-08
2.18024e-07
3.37362e-08
2.17501e-07
3.13102e-08
2.16765e-07
2.91765e-08
2.15842e-07
2.72878e-08
2.14755e-07
2.56002e-08
2.1353e-07
2.4074e-08
2.12191e-07
2.2681e-08
2.10763e-07
2.1402e-08
2.09266e-07
2.0223e-08
2.07718e-07
1.91327e-08
2.06135e-07
1.81219e-08
2.04532e-07
1.71828e-08
2.02918e-07
1.63088e-08
2.01305e-07
1.54942e-08
1.99699e-07
1.47338e-08
1.98107e-07
1.40231e-08
1.96534e-07
1.33583e-08
1.94985e-07
1.27358e-08
1.93461e-07
1.21523e-08
1.91967e-07
1.16051e-08
1.90503e-07
1.10915e-08
1.89071e-07
1.06093e-08
1.87671e-07
1.01564e-08
1.86305e-07
9.73096e-09
1.84972e-07
9.33134e-09
1.83672e-07
8.95596e-09
1.82405e-07
8.60389e-09
1.8117e-07
8.27319e-09
1.79966e-07
7.96465e-09
1.78794e-07
7.67435e-09
1.7765e-07
7.40738e-09
1.76535e-07
7.15391e-09
1.75447e-07
6.92918e-09
1.74384e-07
6.70968e-09
1.73347e-07
6.53053e-09
1.72329e-07
6.34527e-09
1.71334e-07
6.21289e-09
1.70352e-07
6.07849e-09
1.69392e-07
5.9644e-09
1.68441e-07
5.95684e-09
1.67475e-07
5.69973e-09
1.66561e-07
6.00839e-09
5.49011e-09
1.65301e-07
2.1833e-07
8.00733e-08
2.21207e-07
8.62774e-08
2.22767e-07
6.07122e-08
2.23848e-07
5.12265e-08
2.24376e-07
4.55503e-08
2.24674e-07
4.02673e-08
2.2488e-07
3.64236e-08
2.24965e-07
3.36511e-08
2.24907e-07
3.13677e-08
2.24707e-07
2.93768e-08
2.24368e-07
2.76265e-08
2.23897e-07
2.60714e-08
2.23302e-07
2.46691e-08
2.22594e-07
2.33889e-08
2.21786e-07
2.22106e-08
2.20889e-07
2.11194e-08
2.19917e-07
2.01044e-08
2.18882e-07
1.91568e-08
2.17795e-07
1.82698e-08
2.16667e-07
1.74376e-08
2.15505e-07
1.66555e-08
2.1432e-07
1.59194e-08
2.13117e-07
1.52258e-08
2.11904e-07
1.45716e-08
2.10685e-07
1.39541e-08
2.09467e-07
1.33709e-08
2.08252e-07
1.28199e-08
2.07044e-07
1.22991e-08
2.05847e-07
1.18068e-08
2.04662e-07
1.13414e-08
2.03491e-07
1.09014e-08
2.02337e-07
1.04857e-08
2.012e-07
1.0093e-08
2.00081e-07
9.7227e-09
1.98981e-07
9.37308e-09
1.97901e-07
9.04521e-09
1.9684e-07
8.73542e-09
1.95798e-07
8.44892e-09
1.94775e-07
8.1764e-09
1.93772e-07
7.9325e-09
1.92786e-07
7.69564e-09
1.91819e-07
7.49773e-09
1.90865e-07
7.29882e-09
1.89931e-07
7.14738e-09
1.89004e-07
7.00549e-09
1.88095e-07
6.8738e-09
1.87193e-07
6.85815e-09
1.86269e-07
6.62433e-09
1.85389e-07
6.88779e-09
6.64372e-09
1.84236e-07
2.24559e-07
7.40075e-08
2.27472e-07
8.33649e-08
2.28964e-07
5.922e-08
2.3005e-07
5.01399e-08
2.3062e-07
4.49809e-08
2.30967e-07
3.99204e-08
2.31262e-07
3.61287e-08
2.31495e-07
3.3418e-08
2.31646e-07
3.12166e-08
2.31713e-07
2.93097e-08
2.31695e-07
2.76442e-08
2.31591e-07
2.61758e-08
2.31399e-07
2.48607e-08
2.31122e-07
2.36664e-08
2.30762e-07
2.25705e-08
2.30324e-07
2.15571e-08
2.29814e-07
2.06143e-08
2.29238e-07
1.97327e-08
2.28603e-07
1.89052e-08
2.27915e-07
1.81259e-08
2.2718e-07
1.73902e-08
2.26405e-07
1.66943e-08
2.25596e-07
1.60349e-08
2.24758e-07
1.54095e-08
2.23896e-07
1.48158e-08
2.23016e-07
1.42516e-08
2.2212e-07
1.37155e-08
2.21214e-07
1.32056e-08
2.203e-07
1.27209e-08
2.19381e-07
1.226e-08
2.18461e-07
1.18219e-08
2.17541e-07
1.14057e-08
2.16623e-07
1.10104e-08
2.1571e-07
1.06358e-08
2.14803e-07
1.02804e-08
2.13902e-07
9.94556e-09
2.1301e-07
9.62785e-09
2.12126e-07
9.3325e-09
2.11252e-07
9.05097e-09
2.10387e-07
8.79697e-09
2.09532e-07
8.55139e-09
2.08687e-07
8.34216e-09
2.07849e-07
8.13682e-09
2.07024e-07
7.9725e-09
2.06202e-07
7.82798e-09
2.0539e-07
7.68546e-09
2.04585e-07
7.66296e-09
2.0375e-07
7.45995e-09
2.02952e-07
7.68569e-09
7.64975e-09
2.01946e-07
2.3098e-07
6.82336e-08
2.33936e-07
8.04086e-08
2.35369e-07
5.7787e-08
2.36462e-07
4.9047e-08
2.37065e-07
4.43778e-08
2.37428e-07
3.9558e-08
2.37744e-07
3.5812e-08
2.38023e-07
3.31389e-08
2.3825e-07
3.09897e-08
2.38427e-07
2.91332e-08
2.38555e-07
2.75161e-08
2.38633e-07
2.6098e-08
2.38657e-07
2.48359e-08
2.38627e-07
2.36964e-08
2.38542e-07
2.26563e-08
2.384e-07
2.16986e-08
2.38204e-07
2.08105e-08
2.37955e-07
1.9982e-08
2.37655e-07
1.92052e-08
2.37307e-07
1.84739e-08
2.36914e-07
1.77831e-08
2.36479e-07
1.71286e-08
2.36007e-07
1.65073e-08
2.355e-07
1.59164e-08
2.34962e-07
1.53536e-08
2.34397e-07
1.4817e-08
2.33807e-07
1.43051e-08
2.33197e-07
1.38164e-08
2.32568e-07
1.33499e-08
2.31923e-07
1.29044e-08
2.31266e-07
1.24792e-08
2.30598e-07
1.20736e-08
2.29922e-07
1.16867e-08
2.29239e-07
1.13185e-08
2.28552e-07
1.09678e-08
2.27861e-07
1.0636e-08
2.27169e-07
1.03201e-08
2.26476e-07
1.00252e-08
2.25784e-07
9.74354e-09
2.25093e-07
9.48767e-09
2.24403e-07
9.24132e-09
2.23717e-07
9.02795e-09
2.23031e-07
8.82286e-09
2.22352e-07
8.65213e-09
2.2167e-07
8.50939e-09
2.20992e-07
8.36316e-09
2.2032e-07
8.33563e-09
2.19612e-07
8.16816e-09
2.18933e-07
8.36414e-09
8.4778e-09
2.18105e-07
2.37601e-07
6.27575e-08
2.40604e-07
7.74058e-08
2.4198e-07
5.6411e-08
2.43078e-07
4.79491e-08
2.43718e-07
4.37374e-08
2.44094e-07
3.9182e-08
2.44416e-07
3.54899e-08
2.44708e-07
3.28472e-08
2.44958e-07
3.07399e-08
2.45171e-07
2.892e-08
2.45354e-07
2.73334e-08
2.45507e-07
2.59448e-08
2.45629e-07
2.47134e-08
2.45719e-07
2.36062e-08
2.45776e-07
2.25996e-08
2.45798e-07
2.16767e-08
2.45784e-07
2.08243e-08
2.45734e-07
2.0032e-08
2.45648e-07
1.92913e-08
2.45526e-07
1.85958e-08
2.45369e-07
1.79399e-08
2.45178e-07
1.73194e-08
2.44955e-07
1.67306e-08
2.44701e-07
1.61707e-08
2.44417e-07
1.56371e-08
2.44106e-07
1.51279e-08
2.4377e-07
1.46415e-08
2.4341e-07
1.41763e-08
2.43029e-07
1.37313e-08
2.42628e-07
1.33055e-08
2.42209e-07
1.2898e-08
2.41774e-07
1.25082e-08
2.41326e-07
1.21354e-08
2.40864e-07
1.17797e-08
2.40392e-07
1.144e-08
2.39911e-07
1.11176e-08
2.39421e-07
1.08099e-08
2.38924e-07
1.05217e-08
2.38422e-07
1.02462e-08
2.37915e-07
9.99448e-09
2.37403e-07
9.75322e-09
2.36889e-07
9.5413e-09
2.36371e-07
9.3414e-09
2.35853e-07
9.16975e-09
2.35331e-07
9.03187e-09
2.34806e-07
8.88803e-09
2.34284e-07
8.85717e-09
2.33726e-07
8.72666e-09
2.3319e-07
8.89996e-09
9.11356e-09
2.32554e-07
2.44431e-07
5.75828e-08
2.47473e-07
7.43634e-08
2.488e-07
5.5084e-08
2.49899e-07
4.68508e-08
2.50578e-07
4.30581e-08
2.50971e-07
3.87887e-08
2.51298e-07
3.51631e-08
2.51595e-07
3.25499e-08
2.51853e-07
3.04822e-08
2.52077e-07
2.86957e-08
2.52277e-07
2.71335e-08
2.52457e-07
2.57655e-08
2.52616e-07
2.4554e-08
2.52756e-07
2.34666e-08
2.52875e-07
2.24802e-08
2.52974e-07
2.15781e-08
2.53051e-07
2.07473e-08
2.53105e-07
1.99772e-08
2.53137e-07
1.92595e-08
2.53146e-07
1.85874e-08
2.5313e-07
1.79552e-08
2.53091e-07
1.73585e-08
2.53028e-07
1.67934e-08
2.52942e-07
1.62568e-08
2.52833e-07
1.57461e-08
2.52702e-07
1.52592e-08
2.52549e-07
1.47942e-08
2.52376e-07
1.43496e-08
2.52183e-07
1.39242e-08
2.51971e-07
1.35169e-08
2.51743e-07
1.31269e-08
2.51497e-07
1.27535e-08
2.51237e-07
1.23959e-08
2.50962e-07
1.20543e-08
2.50675e-07
1.17274e-08
2.50376e-07
1.14169e-08
2.50065e-07
1.11202e-08
2.49746e-07
1.08415e-08
2.49416e-07
1.05753e-08
2.4908e-07
1.03308e-08
2.48736e-07
1.00977e-08
2.48386e-07
9.89055e-09
2.48029e-07
9.69845e-09
2.4767e-07
9.52952e-09
2.47304e-07
9.39779e-09
2.46931e-07
9.26046e-09
2.46561e-07
9.22727e-09
2.46156e-07
9.13183e-09
2.45768e-07
9.2877e-09
9.56062e-09
2.45321e-07
2.51478e-07
5.27112e-08
2.54551e-07
7.12907e-08
2.55839e-07
5.37954e-08
2.56933e-07
4.57577e-08
2.5765e-07
4.2341e-08
2.58063e-07
3.83752e-08
2.58396e-07
3.48303e-08
2.58699e-07
3.22471e-08
2.58962e-07
3.02191e-08
2.59191e-07
2.84667e-08
2.59396e-07
2.6928e-08
2.59584e-07
2.55781e-08
2.59755e-07
2.43825e-08
2.59912e-07
2.33098e-08
2.60055e-07
2.23373e-08
2.60185e-07
2.14487e-08
2.603e-07
2.06313e-08
2.60403e-07
1.9875e-08
2.60491e-07
1.91715e-08
2.60564e-07
1.85139e-08
2.60623e-07
1.78967e-08
2.60666e-07
1.73153e-08
2.60693e-07
1.67658e-08
2.60705e-07
1.62449e-08
2.60701e-07
1.57501e-08
2.60681e-07
1.5279e-08
2.60646e-07
1.48298e-08
2.60595e-07
1.44007e-08
2.60529e-07
1.39904e-08
2.60448e-07
1.35979e-08
2.60352e-07
1.32222e-08
2.60243e-07
1.28626e-08
2.60121e-07
1.25182e-08
2.59986e-07
1.21891e-08
2.59839e-07
1.18743e-08
2.59681e-07
1.1575e-08
2.59513e-07
1.12889e-08
2.59334e-07
1.10199e-08
2.59146e-07
1.07632e-08
2.5895e-07
1.05266e-08
2.58746e-07
1.03023e-08
2.58536e-07
1.01008e-08
2.58317e-07
9.91688e-09
2.58094e-07
9.75229e-09
2.57866e-07
9.62628e-09
2.57629e-07
9.4973e-09
2.57395e-07
9.46186e-09
2.5713e-07
9.39683e-09
2.56879e-07
9.53831e-09
9.83846e-09
2.56601e-07
2.58751e-07
4.81429e-08
2.61844e-07
6.81977e-08
2.63105e-07
5.25348e-08
2.64188e-07
4.46748e-08
2.6494e-07
4.15886e-08
2.65376e-07
3.79395e-08
2.65716e-07
3.44905e-08
2.66024e-07
3.19385e-08
2.66293e-07
2.99503e-08
2.66526e-07
2.82335e-08
2.66735e-07
2.67193e-08
2.66926e-07
2.53875e-08
2.67101e-07
2.42069e-08
2.67264e-07
2.31473e-08
2.67414e-07
2.21864e-08
2.67555e-07
2.13084e-08
2.67685e-07
2.05011e-08
2.67806e-07
1.97544e-08
2.67917e-07
1.90604e-08
2.68018e-07
1.84123e-08
2.6811e-07
1.78048e-08
2.68192e-07
1.72332e-08
2.68264e-07
1.66936e-08
2.68326e-07
1.6183e-08
2.68378e-07
1.56986e-08
2.68419e-07
1.5238e-08
2.68449e-07
1.47994e-08
2.68469e-07
1.43809e-08
2.68478e-07
1.39813e-08
2.68477e-07
1.35994e-08
2.68465e-07
1.32341e-08
2.68443e-07
1.28847e-08
2.68411e-07
1.25503e-08
2.68369e-07
1.2231e-08
2.68317e-07
1.19256e-08
2.68257e-07
1.16353e-08
2.68188e-07
1.1358e-08
2.68111e-07
1.1097e-08
2.68025e-07
1.08485e-08
2.67933e-07
1.06186e-08
2.67834e-07
1.04019e-08
2.67729e-07
1.02056e-08
2.67617e-07
1.00285e-08
2.67501e-07
9.86827e-09
2.67381e-07
9.74635e-09
2.67253e-07
9.62559e-09
2.67128e-07
9.58723e-09
2.66978e-07
9.54611e-09
2.66842e-07
9.67418e-09
9.97707e-09
2.66704e-07
2.66259e-07
4.38763e-08
2.69362e-07
6.50951e-08
2.70605e-07
5.12916e-08
2.71673e-07
4.36065e-08
2.72457e-07
4.08042e-08
2.72917e-07
3.74797e-08
2.73265e-07
3.41428e-08
2.73579e-07
3.16241e-08
2.73854e-07
2.96754e-08
2.74092e-07
2.79958e-08
2.74304e-07
2.65075e-08
2.74497e-07
2.51943e-08
2.74675e-07
2.4029e-08
2.7484e-07
2.29824e-08
2.74993e-07
2.20328e-08
2.75137e-07
2.11646e-08
2.75272e-07
2.0366e-08
2.75399e-07
1.96275e-08
2.75518e-07
1.8941e-08
2.75631e-07
1.83002e-08
2.75736e-07
1.76997e-08
2.75834e-07
1.7135e-08
2.75925e-07
1.66025e-08
2.76009e-07
1.60988e-08
2.76086e-07
1.56214e-08
2.76157e-07
1.51679e-08
2.7622e-07
1.47363e-08
2.76275e-07
1.4325e-08
2.76324e-07
1.39326e-08
2.76366e-07
1.35579e-08
2.764e-07
1.31998e-08
2.76427e-07
1.28575e-08
2.76447e-07
1.25302e-08
2.76461e-07
1.22178e-08
2.76467e-07
1.19192e-08
2.76467e-07
1.16353e-08
2.76461e-07
1.13645e-08
2.76448e-07
1.11093e-08
2.7643e-07
1.08669e-08
2.76407e-07
1.06419e-08
2.76378e-07
1.04309e-08
2.76345e-07
1.02384e-08
2.76307e-07
1.0066e-08
2.76266e-07
9.90921e-09
2.76223e-07
9.78921e-09
2.76174e-07
9.67522e-09
2.76128e-07
9.63286e-09
2.76066e-07
9.60839e-09
2.76018e-07
9.72255e-09
1.00102e-08
2.75984e-07
2.7401e-07
3.99077e-08
2.77111e-07
6.19938e-08
2.78347e-07
5.00557e-08
2.79397e-07
4.25563e-08
2.80209e-07
3.99921e-08
2.80695e-07
3.69943e-08
2.81051e-07
3.37863e-08
2.81371e-07
3.13038e-08
2.81653e-07
2.93941e-08
2.81896e-07
2.7753e-08
2.82111e-07
2.62923e-08
2.82307e-07
2.49986e-08
2.82487e-07
2.3849e-08
2.82653e-07
2.28158e-08
2.82808e-07
2.18776e-08
2.82954e-07
2.10192e-08
2.83091e-07
2.02292e-08
2.8322e-07
1.94983e-08
2.83342e-07
1.88189e-08
2.83458e-07
1.81845e-08
2.83567e-07
1.75901e-08
2.83671e-07
1.70312e-08
2.83769e-07
1.65042e-08
2.83862e-07
1.60059e-08
2.8395e-07
1.55338e-08
2.84032e-07
1.50855e-08
2.84109e-07
1.46591e-08
2.84181e-07
1.4253e-08
2.84248e-07
1.38657e-08
2.8431e-07
1.3496e-08
2.84367e-07
1.31429e-08
2.84419e-07
1.28056e-08
2.84466e-07
1.24831e-08
2.84509e-07
1.21755e-08
2.84546e-07
1.18815e-08
2.84579e-07
1.16021e-08
2.84608e-07
1.13357e-08
2.84633e-07
1.10845e-08
2.84654e-07
1.08462e-08
2.84671e-07
1.06243e-08
2.84685e-07
1.04171e-08
2.84697e-07
1.02269e-08
2.84706e-07
1.00572e-08
2.84712e-07
9.90248e-09
2.84719e-07
9.78234e-09
2.84721e-07
9.67307e-09
2.84729e-07
9.6256e-09
2.84726e-07
9.61066e-09
2.84739e-07
9.70953e-09
9.96953e-09
2.8478e-07
2.82013e-07
3.6232e-08
2.85102e-07
5.89052e-08
2.8634e-07
4.88174e-08
2.87369e-07
4.15271e-08
2.88205e-07
3.91567e-08
2.88717e-07
3.64821e-08
2.89083e-07
3.34197e-08
2.89409e-07
3.09779e-08
2.89697e-07
2.91063e-08
2.89945e-07
2.75049e-08
2.90164e-07
2.60733e-08
2.90363e-07
2.48e-08
2.90545e-07
2.36667e-08
2.90714e-07
2.26473e-08
2.90871e-07
2.17208e-08
2.91017e-07
2.08725e-08
2.91155e-07
2.00913e-08
2.91285e-07
1.93681e-08
2.91409e-07
1.86956e-08
2.91526e-07
1.80676e-08
2.91637e-07
1.7479e-08
2.91742e-07
1.69255e-08
2.91843e-07
1.64035e-08
2.91939e-07
1.59101e-08
2.9203e-07
1.54426e-08
2.92117e-07
1.49987e-08
2.92199e-07
1.45766e-08
2.92277e-07
1.41747e-08
2.92352e-07
1.37914e-08
2.92422e-07
1.34256e-08
2.92489e-07
1.30763e-08
2.92552e-07
1.27427e-08
2.92611e-07
1.24238e-08
2.92667e-07
1.21196e-08
2.92719e-07
1.1829e-08
2.92769e-07
1.15526e-08
2.92815e-07
1.12893e-08
2.92859e-07
1.10406e-08
2.929e-07
1.0805e-08
2.92939e-07
1.0585e-08
2.92977e-07
1.03799e-08
2.93013e-07
1.01909e-08
2.93048e-07
1.00221e-08
2.93082e-07
9.86834e-09
2.93118e-07
9.74645e-09
2.93151e-07
9.63975e-09
2.9319e-07
9.58622e-09
2.93227e-07
9.57449e-09
2.9328e-07
9.65637e-09
9.88055e-09
2.93369e-07
2.90279e-07
3.2842e-08
2.93343e-07
5.58412e-08
2.94592e-07
4.75678e-08
2.95599e-07
4.05205e-08
2.96452e-07
3.83034e-08
2.96992e-07
3.59421e-08
2.9737e-07
3.30416e-08
2.97702e-07
3.06462e-08
2.97996e-07
2.8812e-08
2.9825e-07
2.72511e-08
2.98473e-07
2.58502e-08
2.98675e-07
2.45984e-08
2.9886e-07
2.34819e-08
2.9903e-07
2.24767e-08
2.99189e-07
2.15624e-08
2.99337e-07
2.07245e-08
2.99476e-07
1.99523e-08
2.99607e-07
1.9237e-08
2.99731e-07
1.85716e-08
2.99848e-07
1.795e-08
2.9996e-07
1.73672e-08
3.00067e-07
1.68191e-08
3.00168e-07
1.63022e-08
3.00265e-07
1.58134e-08
3.00357e-07
1.53503e-08
3.00445e-07
1.49106e-08
3.00529e-07
1.44925e-08
3.00609e-07
1.40943e-08
3.00686e-07
1.37146e-08
3.0076e-07
1.33523e-08
3.0083e-07
1.30062e-08
3.00897e-07
1.26757e-08
3.00961e-07
1.23598e-08
3.01022e-07
1.20583e-08
3.01081e-07
1.17703e-08
3.01137e-07
1.14962e-08
3.01191e-07
1.12351e-08
3.01244e-07
1.09881e-08
3.01294e-07
1.07543e-08
3.01344e-07
1.05354e-08
3.01393e-07
1.03314e-08
3.01441e-07
1.01427e-08
3.01489e-07
9.97363e-09
3.01538e-07
9.81986e-09
3.01589e-07
9.69514e-09
3.0164e-07
9.58903e-09
3.01697e-07
9.52876e-09
3.01757e-07
9.51496e-09
3.01835e-07
9.57814e-09
9.76178e-09
3.01954e-07
2.98816e-07
2.97289e-08
3.01843e-07
5.28138e-08
3.03112e-07
4.62991e-08
3.04095e-07
3.95375e-08
3.04961e-07
3.74377e-08
3.05529e-07
3.53738e-08
3.0592e-07
3.26505e-08
3.06258e-07
3.03087e-08
3.06558e-07
2.85113e-08
3.06818e-07
2.69912e-08
3.07046e-07
2.56227e-08
3.07251e-07
2.43934e-08
3.07438e-07
2.32944e-08
3.07611e-07
2.23039e-08
3.07771e-07
2.14022e-08
3.07921e-07
2.0575e-08
3.08061e-07
1.9812e-08
3.08193e-07
1.9105e-08
3.08318e-07
1.84468e-08
3.08436e-07
1.78317e-08
3.08548e-07
1.72549e-08
3.08655e-07
1.67123e-08
3.08757e-07
1.62004e-08
3.08854e-07
1.57164e-08
3.08946e-07
1.52577e-08
3.09035e-07
1.48222e-08
3.0912e-07
1.4408e-08
3.092e-07
1.40134e-08
3.09278e-07
1.36372e-08
3.09352e-07
1.32782e-08
3.09423e-07
1.29352e-08
3.09491e-07
1.26075e-08
3.09557e-07
1.22942e-08
3.0962e-07
1.19951e-08
3.09681e-07
1.17094e-08
3.0974e-07
1.14373e-08
3.09797e-07
1.11779e-08
3.09853e-07
1.09323e-08
3.09907e-07
1.06998e-08
3.09961e-07
1.04814e-08
3.10015e-07
1.02778e-08
3.10068e-07
1.0089e-08
3.10123e-07
9.91892e-09
3.10179e-07
9.76443e-09
3.10237e-07
9.63624e-09
3.10297e-07
9.52903e-09
3.10365e-07
9.46149e-09
3.10438e-07
9.44143e-09
3.10532e-07
9.4844e-09
9.62522e-09
3.10669e-07
3.07634e-07
2.68821e-08
3.10613e-07
4.9835e-08
3.11907e-07
4.50046e-08
3.12867e-07
3.85779e-08
3.1374e-07
3.65647e-08
3.14336e-07
3.47776e-08
3.14742e-07
3.22449e-08
3.15085e-07
2.99652e-08
3.15393e-07
2.82041e-08
3.15659e-07
2.6725e-08
3.15891e-07
2.53904e-08
3.161e-07
2.4185e-08
3.1629e-07
2.31039e-08
3.16465e-07
2.21287e-08
3.16627e-07
2.12399e-08
3.16779e-07
2.04238e-08
3.1692e-07
1.96704e-08
3.17053e-07
1.89718e-08
3.17179e-07
1.83211e-08
3.17298e-07
1.77127e-08
3.17411e-07
1.7142e-08
3.17518e-07
1.6605e-08
3.1762e-07
1.60983e-08
3.17718e-07
1.56191e-08
3.1781e-07
1.51649e-08
3.17899e-07
1.47336e-08
3.17984e-07
1.43233e-08
3.18065e-07
1.39325e-08
3.18142e-07
1.35597e-08
3.18216e-07
1.32039e-08
3.18288e-07
1.28639e-08
3.18356e-07
1.25391e-08
3.18422e-07
1.22284e-08
3.18485e-07
1.19316e-08
3.18547e-07
1.1648e-08
3.18606e-07
1.13776e-08
3.18664e-07
1.11199e-08
3.18721e-07
1.08754e-08
3.18777e-07
1.06439e-08
3.18833e-07
1.04259e-08
3.18888e-07
1.02223e-08
3.18944e-07
1.0033e-08
3.19002e-07
9.8615e-09
3.1906e-07
9.70574e-09
3.19123e-07
9.57371e-09
3.19188e-07
9.46397e-09
3.19261e-07
9.3887e-09
3.19343e-07
9.35915e-09
3.19447e-07
9.38067e-09
9.47811e-09
3.19594e-07
3.16744e-07
2.42895e-08
3.19662e-07
4.69168e-08
3.20988e-07
4.36788e-08
3.21925e-07
3.76408e-08
3.228e-07
3.56898e-08
3.23423e-07
3.41545e-08
3.23845e-07
3.1823e-08
3.24195e-07
2.96151e-08
3.24508e-07
2.78906e-08
3.24781e-07
2.64522e-08
3.25018e-07
2.5153e-08
3.25231e-07
2.39726e-08
3.25424e-07
2.29104e-08
3.25602e-07
2.19508e-08
3.25767e-07
2.10754e-08
3.2592e-07
2.02708e-08
3.26063e-07
1.95273e-08
3.26197e-07
1.88373e-08
3.26324e-07
1.81943e-08
3.26444e-07
1.75929e-08
3.26558e-07
1.70285e-08
3.26665e-07
1.64972e-08
3.26768e-07
1.59958e-08
3.26865e-07
1.55215e-08
3.26958e-07
1.50719e-08
3.27047e-07
1.46449e-08
3.27132e-07
1.42386e-08
3.27213e-07
1.38515e-08
3.2729e-07
1.34823e-08
3.27365e-07
1.31298e-08
3.27436e-07
1.27928e-08
3.27504e-07
1.24707e-08
3.2757e-07
1.21626e-08
3.27633e-07
1.18681e-08
3.27695e-07
1.15866e-08
3.27754e-07
1.1318e-08
3.27812e-07
1.10617e-08
3.2787e-07
1.08183e-08
3.27926e-07
1.05875e-08
3.27982e-07
1.03698e-08
3.28038e-07
1.01661e-08
3.28095e-07
9.97613e-09
3.28154e-07
9.80287e-09
3.28214e-07
9.64536e-09
3.28278e-07
9.50929e-09
3.28347e-07
9.39579e-09
3.28423e-07
9.31233e-09
3.28511e-07
9.27087e-09
3.28622e-07
9.26996e-09
9.32467e-09
3.28775e-07
3.26154e-07
2.19379e-08
3.29e-07
4.40711e-08
3.30361e-07
4.2318e-08
3.31277e-07
3.67241e-08
3.3215e-07
3.48177e-08
3.32798e-07
3.35062e-08
3.33237e-07
3.13835e-08
3.33594e-07
2.9258e-08
3.33914e-07
2.75708e-08
3.34194e-07
2.61727e-08
3.34437e-07
2.491e-08
3.34653e-07
2.37562e-08
3.3485e-07
2.27135e-08
3.35031e-07
2.177e-08
3.35198e-07
2.09085e-08
3.35353e-07
2.01157e-08
3.35498e-07
1.93825e-08
3.35634e-07
1.87014e-08
3.35762e-07
1.80663e-08
3.35883e-07
1.7472e-08
3.35997e-07
1.6914e-08
3.36105e-07
1.63887e-08
3.36209e-07
1.58927e-08
3.36307e-07
1.54235e-08
3.364e-07
1.49786e-08
3.36489e-07
1.45559e-08
3.36574e-07
1.41537e-08
3.36655e-07
1.37705e-08
3.36732e-07
1.34048e-08
3.36806e-07
1.30556e-08
3.36877e-07
1.27218e-08
3.36946e-07
1.24025e-08
3.37011e-07
1.2097e-08
3.37075e-07