/*--------------------------------*- C++ -*----------------------------------*\
  =========                 |
  \\      /  F ield         | OpenFOAM: The Open Source CFD Toolbox
   \\    /   O peration     | Website:  https://openfoam.org
    \\  /    A nd           | Version:  7
     \\/     M anipulation  |
\*---------------------------------------------------------------------------*/
FoamFile
{
    version     2.0;
    format      ascii;
    class       volVectorField;
    location    "0.18";
    object      U;
}
// * * * * * * * * * * * * * * * * * * * * * * * * * * * * * * * * * * * * * //

dimensions      [0 1 -1 0 0 0 0];

internalField   nonuniform List<vector> 
70000
(
(0.553392 0.016723 0)
(0.251268 0.00340088 0)
(0.166217 0.000321867 0)
(0.132479 5.41657e-05 0)
(0.117297 4.56094e-05 0)
(0.107382 5.37876e-05 0)
(0.0994417 4.61579e-05 0)
(0.0930089 3.68228e-05 0)
(0.0877706 3.05138e-05 0)
(0.0834067 2.61923e-05 0)
(0.079689 2.28993e-05 0)
(0.0764697 2.02611e-05 0)
(0.0736476 1.81083e-05 0)
(0.0711488 1.63275e-05 0)
(0.0689174 1.48348e-05 0)
(0.0669103 1.35681e-05 0)
(0.0650935 1.24811e-05 0)
(0.0634398 1.1539e-05 0)
(0.0619273 1.07153e-05 0)
(0.0605381 9.98927e-06 0)
(0.0592573 9.34479e-06 0)
(0.0580723 8.76898e-06 0)
(0.0569726 8.25138e-06 0)
(0.0559492 7.78366e-06 0)
(0.0549945 7.35869e-06 0)
(0.0541017 6.97114e-06 0)
(0.0532649 6.61556e-06 0)
(0.0524792 6.28909e-06 0)
(0.05174 5.98648e-06 0)
(0.0510432 5.7079e-06 0)
(0.0503854 5.44601e-06 0)
(0.0497632 5.20642e-06 0)
(0.0491741 4.9755e-06 0)
(0.048615 4.76873e-06 0)
(0.048084 4.56124e-06 0)
(0.0475785 4.38127e-06 0)
(0.0470966 4.19606e-06 0)
(0.046637 4.02709e-06 0)
(0.0461956 3.88777e-06 0)
(0.0457766 3.66952e-06 0)
(0.0453652 3.68819e-06 0)
(0.0449865 3.20565e-06 0)
(0.0445876 3.77697e-06 0)
(0.0442606 2.33705e-06 0)
(0.043837 4.69673e-06 0)
(0.0436021 2.07879e-07 0)
(0.0430732 8.13081e-06 0)
(0.0430003 -5.70147e-06 0)
(0.0424539 2.5519e-05 0)
(0.0390413 -0.00158298 0)
(0.884899 0.043167 0)
(0.649727 0.0201933 0)
(0.49435 0.00659738 0)
(0.403716 0.00276666 0)
(0.354811 0.00155113 0)
(0.323529 0.00113083 0)
(0.299687 0.000909786 0)
(0.280505 0.000746058 0)
(0.264802 0.000623393 0)
(0.251687 0.000532826 0)
(0.240509 0.000464105 0)
(0.230828 0.000410043 0)
(0.222338 0.00036636 0)
(0.214816 0.00033039 0)
(0.208095 0.000300321 0)
(0.202047 0.000274859 0)
(0.196569 0.000253048 0)
(0.19158 0.000234176 0)
(0.187014 0.000217702 0)
(0.182818 0.000203207 0)
(0.178948 0.000190363 0)
(0.175364 0.000178911 0)
(0.172037 0.000168643 0)
(0.168939 0.000159391 0)
(0.166047 0.000151016 0)
(0.16334 0.000143406 0)
(0.160801 0.000136466 0)
(0.158415 0.000130118 0)
(0.156169 0.000124295 0)
(0.15405 0.000118945 0)
(0.152047 0.000114013 0)
(0.15015 0.000109476 0)
(0.148352 0.000105272 0)
(0.146644 0.000101421 0)
(0.145019 9.78227e-05 0)
(0.14347 9.4581e-05 0)
(0.14199 9.15021e-05 0)
(0.140576 8.88311e-05 0)
(0.139215 8.623e-05 0)
(0.137919 8.4092e-05 0)
(0.136647 8.20584e-05 0)
(0.135464 8.02607e-05 0)
(0.134231 7.93463e-05 0)
(0.133188 7.69453e-05 0)
(0.131893 7.93939e-05 0)
(0.131088 7.20818e-05 0)
(0.129531 8.94826e-05 0)
(0.129117 3.5889e-05 0)
(0.127478 0.000299923 0)
(0.12328 -0.00257265 0)
(0.991237 0.0499008 0)
(0.890357 0.0307173 0)
(0.762715 0.0145956 0)
(0.656734 0.00797746 0)
(0.585439 0.00488282 0)
(0.536063 0.0034694 0)
(0.498221 0.00273437 0)
(0.467621 0.00224265 0)
(0.442316 0.00188014 0)
(0.421009 0.00160916 0)
(0.402752 0.00140229 0)
(0.386878 0.00123953 0)
(0.372913 0.00110811 0)
(0.360509 0.00099991 0)
(0.3494 0.000909436 0)
(0.339383 0.000832794 0)
(0.330294 0.000767125 0)
(0.322004 0.00071029 0)
(0.314408 0.000660663 0)
(0.307417 0.00061699 0)
(0.30096 0.000578289 0)
(0.294977 0.000543781 0)
(0.289416 0.000512842 0)
(0.284232 0.000484966 0)
(0.279388 0.000459741 0)
(0.274851 0.000436827 0)
(0.270592 0.000415942 0)
(0.266586 0.00039685 0)
(0.262811 0.000379352 0)
(0.259246 0.000363288 0)
(0.255875 0.000348506 0)
(0.25268 0.000334913 0)
(0.249649 0.000322363 0)
(0.246766 0.000310861 0)
(0.244021 0.000300191 0)
(0.241402 0.000290559 0)
(0.238899 0.000281504 0)
(0.236503 0.000273681 0)
(0.234198 0.000266035 0)
(0.231996 0.000260137 0)
(0.229839 0.000253781 0)
(0.227819 0.000250022 0)
(0.225735 0.000245237 0)
(0.223928 0.000243262 0)
(0.22177 0.000242599 0)
(0.220304 0.000236414 0)
(0.217798 0.000262085 0)
(0.216852 0.000162686 0)
(0.214095 0.000559428 0)
(0.210885 -0.00240769 0)
(1.0156 0.0489195 0)
(1.00597 0.0358727 0)
(0.935975 0.0207884 0)
(0.852174 0.0135006 0)
(0.782269 0.00920419 0)
(0.727105 0.00677802 0)
(0.682056 0.00538109 0)
(0.644324 0.00444304 0)
(0.612322 0.00375059 0)
(0.584858 0.00322607 0)
(0.560998 0.00282102 0)
(0.540034 0.00250021 0)
(0.52144 0.00224006 0)
(0.504812 0.00202514 0)
(0.489838 0.00184491 0)
(0.476272 0.00169184 0)
(0.463913 0.0015604 0)
(0.452602 0.00144643 0)
(0.442204 0.00134675 0)
(0.43261 0.00125891 0)
(0.423727 0.00118097 0)
(0.415477 0.0011114 0)
(0.407794 0.00104897 0)
(0.400619 0.000992676 0)
(0.393904 0.0009417 0)
(0.387604 0.000895365 0)
(0.381683 0.000853114 0)
(0.376105 0.000814476 0)
(0.370842 0.000779059 0)
(0.365867 0.000746533 0)
(0.361157 0.000716612 0)
(0.356689 0.000689084 0)
(0.352445 0.000663698 0)
(0.348405 0.000640408 0)
(0.344556 0.000618861 0)
(0.34088 0.000599366 0)
(0.337363 0.000581129 0)
(0.333996 0.000565343 0)
(0.330755 0.000549947 0)
(0.327655 0.000538257 0)
(0.324624 0.000525184 0)
(0.321769 0.000518599 0)
(0.318855 0.000507412 0)
(0.316271 0.00050702 0)
(0.313304 0.000499868 0)
(0.311115 0.00049883 0)
(0.307797 0.000528258 0)
(0.306173 0.000399406 0)
(0.302463 0.000831331 0)
(0.299662 -0.00179194 0)
(1.01434 0.0460028 0)
(1.04754 0.0374857 0)
(1.02459 0.0241472 0)
(0.974795 0.0175538 0)
(0.923513 0.0131167 0)
(0.876776 0.0102007 0)
(0.834651 0.00833802 0)
(0.796937 0.00701844 0)
(0.7634 0.00601046 0)
(0.733599 0.00522491 0)
(0.707021 0.00460478 0)
(0.683195 0.00410582 0)
(0.661722 0.0036965 0)
(0.642273 0.00335525 0)
(0.624572 0.00306695 0)
(0.60839 0.00282059 0)
(0.593538 0.00260793 0)
(0.579855 0.00242271 0)
(0.567206 0.00226011 0)
(0.555476 0.00211634 0)
(0.544568 0.0019884 0)
(0.534398 0.0018739 0)
(0.524893 0.00177092 0)
(0.515988 0.00167786 0)
(0.50763 0.00159344 0)
(0.499768 0.00151658 0)
(0.492361 0.00144639 0)
(0.485368 0.00138211 0)
(0.478757 0.00132313 0)
(0.472496 0.00126889 0)
(0.466558 0.00121895 0)
(0.460917 0.00117296 0)
(0.45555 0.00113052 0)
(0.450436 0.00109153 0)
(0.445557 0.00105548 0)
(0.440892 0.00102278 0)
(0.436427 0.000992252 0)
(0.432146 0.000965694 0)
(0.428026 0.000939917 0)
(0.424077 0.000920209 0)
(0.420228 0.000898203 0)
(0.416579 0.000887273 0)
(0.412897 0.000867841 0)
(0.409562 0.000868347 0)
(0.405875 0.000853507 0)
(0.402953 0.000857511 0)
(0.398979 0.000888823 0)
(0.396587 0.000744336 0)
(0.392237 0.00116914 0)
(0.389055 -0.00105106 0)
(1.00933 0.0429141 0)
(1.05528 0.0372606 0)
(1.0587 0.0252905 0)
(1.0364 0.019752 0)
(1.00715 0.0158037 0)
(0.976132 0.0129282 0)
(0.944641 0.010953 0)
(0.913808 0.00947286 0)
(0.884482 0.00828497 0)
(0.857045 0.00731994 0)
(0.831572 0.00653271 0)
(0.808 0.005883 0)
(0.786207 0.00533931 0)
(0.766052 0.00487873 0)
(0.747389 0.00448448 0)
(0.730078 0.00414388 0)
(0.713992 0.00384716 0)
(0.699013 0.00358669 0)
(0.685038 0.00335646 0)
(0.671974 0.00315168 0)
(0.659738 0.00296851 0)
(0.648257 0.00280383 0)
(0.637465 0.00265509 0)
(0.627304 0.00252019 0)
(0.617722 0.00239741 0)
(0.608672 0.00228528 0)
(0.600112 0.0021826 0)
(0.592004 0.00208833 0)
(0.584313 0.00200162 0)
(0.577009 0.00192172 0)
(0.570063 0.00184801 0)
(0.563448 0.00177998 0)
(0.557142 0.00171713 0)
(0.55112 0.00165924 0)
(0.545364 0.00160567 0)
(0.539853 0.00155691 0)
(0.534569 0.00151144 0)
(0.529497 0.0014716 0)
(0.524613 0.00143316 0)
(0.519922 0.00140324 0)
(0.515359 0.00137047 0)
(0.511008 0.0013532 0)
(0.506664 0.00132446 0)
(0.502653 0.00132362 0)
(0.498365 0.00130172 0)
(0.494756 0.00130739 0)
(0.490285 0.0013418 0)
(0.487127 0.00118766 0)
(0.482388 0.00159398 0)
(0.478568 -0.000223271 0)
(1.00625 0.0400326 0)
(1.05207 0.0363328 0)
(1.0661 0.025219 0)
(1.05962 0.0205505 0)
(1.04691 0.0172287 0)
(1.03086 0.0146459 0)
(1.01199 0.0128104 0)
(0.99134 0.0113873 0)
(0.96996 0.0101935 0)
(0.94858 0.00918111 0)
(0.927641 0.00832436 0)
(0.907403 0.00759517 0)
(0.888013 0.00696895 0)
(0.869538 0.00642672 0)
(0.851998 0.0059539 0)
(0.835381 0.00553891 0)
(0.819657 0.00517247 0)
(0.804784 0.00484701 0)
(0.790717 0.00455639 0)
(0.777408 0.00429558 0)
(0.76481 0.00406044 0)
(0.752877 0.00384754 0)
(0.741565 0.00365405 0)
(0.730833 0.00347757 0)
(0.720644 0.0033161 0)
(0.71096 0.00316796 0)
(0.701748 0.00303173 0)
(0.692979 0.00290616 0)
(0.684621 0.00279025 0)
(0.676649 0.00268307 0)
(0.669038 0.0025839 0)
(0.661764 0.00249209 0)
(0.654806 0.00240703 0)
(0.648142 0.00232847 0)
(0.641754 0.00225562 0)
(0.635623 0.00218904 0)
(0.629732 0.00212695 0)
(0.624064 0.00207212 0)
(0.6186 0.0020195 0)
(0.613338 0.00197765 0)
(0.608225 0.00193297 0)
(0.603325 0.00190741 0)
(0.598468 0.00186906 0)
(0.593915 0.00186403 0)
(0.589174 0.00183661 0)
(0.584996 0.00183951 0)
(0.580177 0.00187877 0)
(0.576362 0.00171958 0)
(0.571386 0.00210038 0)
(0.567015 0.000681294 0)
(1.00495 0.0373544 0)
(1.04727 0.0352504 0)
(1.06398 0.0246784 0)
(1.06427 0.0205757 0)
(1.06071 0.017765 0)
(1.0548 0.0154866 0)
(1.04607 0.0138656 0)
(1.03491 0.0126073 0)
(1.02203 0.0115245 0)
(1.00803 0.0105757 0)
(0.993368 0.00974725 0)
(0.978393 0.00902144 0)
(0.96337 0.00838135 0)
(0.94849 0.00781364 0)
(0.93389 0.00730787 0)
(0.919662 0.00685548 0)
(0.905864 0.00644922 0)
(0.892532 0.006083 0)
(0.879685 0.00575162 0)
(0.867328 0.00545071 0)
(0.855458 0.00517654 0)
(0.844067 0.00492595 0)
(0.833142 0.00469623 0)
(0.822667 0.00448508 0)
(0.812625 0.00429054 0)
(0.802999 0.00411089 0)
(0.79377 0.0039447 0)
(0.78492 0.00379069 0)
(0.77643 0.00364781 0)
(0.768282 0.00351508 0)
(0.76046 0.00339173 0)
(0.752945 0.00327706 0)
(0.745723 0.00317044 0)
(0.738776 0.00307157 0)
(0.732091 0.00297961 0)
(0.72565 0.0028952 0)
(0.719442 0.00281636 0)
(0.71345 0.00274621 0)
(0.70766 0.00267916 0)
(0.702066 0.00262472 0)
(0.696629 0.00256799 0)
(0.691391 0.00253291 0)
(0.686225 0.00248544 0)
(0.681321 0.00247383 0)
(0.676311 0.00244268 0)
(0.671745 0.00243936 0)
(0.666739 0.00248385 0)
(0.66246 0.00232611 0)
(0.657374 0.0026754 0)
(0.65264 0.00163249 0)
(1.0044 0.0348064 0)
(1.04324 0.0341768 0)
(1.05995 0.0240368 0)
(1.06231 0.0202809 0)
(1.06253 0.0178275 0)
(1.06185 0.015766 0)
(1.05931 0.014318 0)
(1.05479 0.0132248 0)
(1.0486 0.0122843 0)
(1.04107 0.0114478 0)
(1.03245 0.0107042 0)
(1.02302 0.0100398 0)
(1.01299 0.00944164 0)
(1.00255 0.00889996 0)
(0.991886 0.00840761 0)
(0.981108 0.00795882 0)
(0.970326 0.00754868 0)
(0.959619 0.00717293 0)
(0.94905 0.00682788 0)
(0.938664 0.00651027 0)
(0.928496 0.00621727 0)
(0.918569 0.00594642 0)
(0.908901 0.00569554 0)
(0.899501 0.00546273 0)
(0.890375 0.00524635 0)
(0.881526 0.00504491 0)
(0.872952 0.00485718 0)
(0.864651 0.004682 0)
(0.856616 0.00451843 0)
(0.848843 0.00436559 0)
(0.841324 0.00422275 0)
(0.834051 0.00408929 0)
(0.827016 0.00396459 0)
(0.820209 0.00384841 0)
(0.813623 0.00373993 0)
(0.807245 0.00363985 0)
(0.80107 0.00354616 0)
(0.795084 0.00346217 0)
(0.789278 0.00338211 0)
(0.783646 0.00331591 0)
(0.77816 0.00324834 0)
(0.77285 0.00320378 0)
(0.767622 0.0031486 0)
(0.762611 0.0031293 0)
(0.757551 0.00309625 0)
(0.752828 0.00308521 0)
(0.747824 0.00313417 0)
(0.743319 0.00298534 0)
(0.738275 0.00330148 0)
(0.733406 0.00259114 0)
(1.00402 0.0323661 0)
(1.03991 0.0331263 0)
(1.05617 0.023413 0)
(1.05894 0.0198918 0)
(1.06025 0.0176958 0)
(1.06162 0.0157686 0)
(1.06202 0.0144213 0)
(1.06115 0.0134427 0)
(1.05912 0.012618 0)
(1.05603 0.0118873 0)
(1.05197 0.0112368 0)
(1.04706 0.0106527 0)
(1.04141 0.0101219 0)
(1.03515 0.00963521 0)
(1.0284 0.00918666 0)
(1.02126 0.00877179 0)
(1.01384 0.00838703 0)
(1.00621 0.00802943 0)
(0.99845 0.00769642 0)
(0.990617 0.0073858 0)
(0.982762 0.00709562 0)
(0.974927 0.00682418 0)
(0.967146 0.00656994 0)
(0.959447 0.00633154 0)
(0.951852 0.0061078 0)
(0.944378 0.00589761 0)
(0.937038 0.00570004 0)
(0.929844 0.00551422 0)
(0.922802 0.00533942 0)
(0.915917 0.00517494 0)
(0.909193 0.00502024 0)
(0.90263 0.00487481 0)
(0.89623 0.00473816 0)
(0.889989 0.00461015 0)
(0.883907 0.00449005 0)
(0.877979 0.00437867 0)
(0.872204 0.00427406 0)
(0.866573 0.00417967 0)
(0.861084 0.00408976 0)
(0.855733 0.00401433 0)
(0.850501 0.00393859 0)
(0.845409 0.00388608 0)
(0.840392 0.00382565 0)
(0.835542 0.00379911 0)
(0.830678 0.00376621 0)
(0.826056 0.00374806 0)
(0.821264 0.00380041 0)
(0.816796 0.00366796 0)
(0.811976 0.00395254 0)
(0.807217 0.00352412 0)
(1.00364 0.0300256 0)
(1.03692 0.0320783 0)
(1.05283 0.0228226 0)
(1.05571 0.0194856 0)
(1.05716 0.0175025 0)
(1.05908 0.0156669 0)
(1.06054 0.0143666 0)
(1.06126 0.0134506 0)
(1.0613 0.0126993 0)
(1.06068 0.0120426 0)
(1.0594 0.0114644 0)
(1.05749 0.0109494 0)
(1.05496 0.0104831 0)
(1.05188 0.0100552 0)
(1.04829 0.00965912 0)
(1.04425 0.00929037 0)
(1.03983 0.00894555 0)
(1.03509 0.00862204 0)
(1.03007 0.00831772 0)
(1.02483 0.0080309 0)
(1.01942 0.00776013 0)
(1.01388 0.0075042 0)
(1.00824 0.00726205 0)
(1.00253 0.00703275 0)
(0.996793 0.0068155 0)
(0.99104 0.00660955 0)
(0.985296 0.0064143 0)
(0.979579 0.00622915 0)
(0.973903 0.00605362 0)
(0.968281 0.00588724 0)
(0.962724 0.00572966 0)
(0.957238 0.00558056 0)
(0.951833 0.0054396 0)
(0.946511 0.0053068 0)
(0.941278 0.00518154 0)
(0.936134 0.00506479 0)
(0.931083 0.00495469 0)
(0.926124 0.00485478 0)
(0.921256 0.0047596 0)
(0.916481 0.00467887 0)
(0.911786 0.00459883 0)
(0.907189 0.00454128 0)
(0.902646 0.00447894 0)
(0.898221 0.0044471 0)
(0.893792 0.0044167 0)
(0.889525 0.00439382 0)
(0.885159 0.00444879 0)
(0.880983 0.00433929 0)
(0.876578 0.00459651 0)
(0.87217 0.00439782 0)
(1.00327 0.0277857 0)
(1.03409 0.0310192 0)
(1.04971 0.0222586 0)
(1.05274 0.0190773 0)
(1.05416 0.0172902 0)
(1.05613 0.0155359 0)
(1.05787 0.0142573 0)
(1.05911 0.0133712 0)
(1.05996 0.0126602 0)
(1.06045 0.0120467 0)
(1.06057 0.0115133 0)
(1.06029 0.0110448 0)
(1.05961 0.0106256 0)
(1.05854 0.0102442 0)
(1.05708 0.00989311 0)
(1.05524 0.00956699 0)
(1.05307 0.00926203 0)
(1.05058 0.00897531 0)
(1.0478 0.00870458 0)
(1.04477 0.00844813 0)
(1.0415 0.00820457 0)
(1.03804 0.00797281 0)
(1.03441 0.00775196 0)
(1.03064 0.00754129 0)
(1.02675 0.00734017 0)
(1.02275 0.0071481 0)
(1.01869 0.00696463 0)
(1.01456 0.00678939 0)
(1.01039 0.00662209 0)
(1.00619 0.00646243 0)
(1.00198 0.00631022 0)
(0.997768 0.0061653 0)
(0.993562 0.00602749 0)
(0.989371 0.00589694 0)
(0.985205 0.00577318 0)
(0.981067 0.00565728 0)
(0.976964 0.00554756 0)
(0.9729 0.00544756 0)
(0.968876 0.00535222 0)
(0.964898 0.00527076 0)
(0.96096 0.00519086 0)
(0.957075 0.00513195 0)
(0.953218 0.00507144 0)
(0.949429 0.00503726 0)
(0.945636 0.00501177 0)
(0.941935 0.00498766 0)
(0.938176 0.00504503 0)
(0.934512 0.00496349 0)
(0.930691 0.005199 0)
(0.926841 0.00517983 0)
(1.00292 0.0256498 0)
(1.03138 0.0299443 0)
(1.04671 0.0217167 0)
(1.04995 0.0186669 0)
(1.05135 0.0170659 0)
(1.05328 0.0153978 0)
(1.05505 0.0141343 0)
(1.05641 0.0132635 0)
(1.05749 0.0125752 0)
(1.05836 0.0119853 0)
(1.05904 0.0114763 0)
(1.05951 0.0110343 0)
(1.05974 0.0106437 0)
(1.05973 0.0102923 0)
(1.05947 0.00997216 0)
(1.05897 0.00967729 0)
(1.05822 0.00940335 0)
(1.05723 0.009147 0)
(1.05601 0.00890565 0)
(1.05456 0.00867729 0)
(1.05292 0.00846035 0)
(1.05108 0.00825362 0)
(1.04906 0.00805613 0)
(1.04688 0.00786711 0)
(1.04456 0.00768596 0)
(1.04211 0.00751218 0)
(1.03954 0.0073454 0)
(1.03688 0.0071853 0)
(1.03412 0.00703168 0)
(1.03129 0.00688432 0)
(1.0284 0.00674313 0)
(1.02546 0.00660805 0)
(1.02247 0.00647896 0)
(1.01945 0.00635617 0)
(1.01641 0.00623924 0)
(1.01335 0.00612938 0)
(1.01028 0.00602502 0)
(1.0072 0.00592967 0)
(1.00413 0.00583875 0)
(1.00106 0.00576077 0)
(0.99799 0.00568511 0)
(0.994939 0.00562845 0)
(0.991889 0.0055732 0)
(0.988866 0.00553988 0)
(0.985832 0.00552131 0)
(0.982836 0.00549979 0)
(0.979802 0.00555969 0)
(0.976798 0.00550908 0)
(0.973681 0.00572869 0)
(0.97053 0.0058434 0)
(1.0026 0.0236205 0)
(1.0288 0.0288524 0)
(1.0438 0.0211957 0)
(1.04726 0.0182544 0)
(1.04866 0.016828 0)
(1.05056 0.015255 0)
(1.05232 0.0140086 0)
(1.05369 0.0131483 0)
(1.0548 0.0124761 0)
(1.05578 0.0119011 0)
(1.05663 0.0114056 0)
(1.05735 0.0109777 0)
(1.05795 0.0106026 0)
(1.05841 0.0102682 0)
(1.05873 0.00996633 0)
(1.0589 0.00969081 0)
(1.05891 0.00943707 0)
(1.05878 0.0092015 0)
(1.05849 0.00898124 0)
(1.05804 0.00877403 0)
(1.05744 0.00857808 0)
(1.05669 0.00839197 0)
(1.0558 0.00821457 0)
(1.05477 0.00804499 0)
(1.05361 0.00788253 0)
(1.05233 0.0077266 0)
(1.05093 0.00757679 0)
(1.04943 0.00743274 0)
(1.04783 0.00729423 0)
(1.04614 0.00716106 0)
(1.04438 0.00703313 0)
(1.04254 0.00691042 0)
(1.04063 0.00679283 0)
(1.03867 0.00668071 0)
(1.03666 0.00657367 0)
(1.03461 0.00647295 0)
(1.03251 0.00637712 0)
(1.03039 0.00628952 0)
(1.02824 0.00620613 0)
(1.02606 0.00613456 0)
(1.02387 0.00606606 0)
(1.02166 0.00601433 0)
(1.01944 0.00596673 0)
(1.01721 0.00593694 0)
(1.01496 0.00592643 0)
(1.01272 0.00591071 0)
(1.01044 0.00597322 0)
(1.00816 0.00595416 0)
(1.00579 0.0061628 0)
(1.0034 0.00637177 0)
(1.0023 0.0216998 0)
(1.02634 0.0277444 0)
(1.04097 0.0206939 0)
(1.04466 0.0178412 0)
(1.04608 0.0165752 0)
(1.04794 0.0151062 0)
(1.0497 0.0138814 0)
(1.05106 0.0130308 0)
(1.05217 0.012373 0)
(1.05315 0.0118102 0)
(1.05403 0.011324 0)
(1.05482 0.0109045 0)
(1.05553 0.0105381 0)
(1.05615 0.0102131 0)
(1.05669 0.00992121 0)
(1.05715 0.00965651 0)
(1.05752 0.00941442 0)
(1.05779 0.00919125 0)
(1.05798 0.00898408 0)
(1.05806 0.00879051 0)
(1.05805 0.00860863 0)
(1.05794 0.0084369 0)
(1.05772 0.00827405 0)
(1.05741 0.00811907 0)
(1.057 0.00797113 0)
(1.0565 0.00782958 0)
(1.05591 0.00769389 0)
(1.05523 0.00756365 0)
(1.05446 0.00743856 0)
(1.05362 0.00731838 0)
(1.0527 0.00720296 0)
(1.0517 0.00709228 0)
(1.05065 0.00698619 0)
(1.04953 0.00688506 0)
(1.04835 0.00678849 0)
(1.04713 0.0066977 0)
(1.04585 0.00661137 0)
(1.04454 0.0065326 0)
(1.04318 0.00645796 0)
(1.04179 0.00639403 0)
(1.04037 0.00633393 0)
(1.03892 0.00628844 0)
(1.03744 0.00624942 0)
(1.03594 0.00622468 0)
(1.03443 0.00622221 0)
(1.03289 0.00621427 0)
(1.03132 0.00627908 0)
(1.02974 0.0062898 0)
(1.02808 0.00649082 0)
(1.02643 0.00676083 0)
(1.00203 0.0198882 0)
(1.02402 0.0266233 0)
(1.03823 0.0202084 0)
(1.04213 0.0174292 0)
(1.04358 0.0163076 0)
(1.04542 0.0149498 0)
(1.04718 0.0137521 0)
(1.04854 0.0129113 0)
(1.04963 0.0122677 0)
(1.05059 0.0117171 0)
(1.05146 0.0112392 0)
(1.05226 0.0108263 0)
(1.05299 0.0104659 0)
(1.05365 0.0101468 0)
(1.05426 0.00986075 0)
(1.05481 0.00960218 0)
(1.05531 0.00936658 0)
(1.05575 0.00915036 0)
(1.05614 0.00895063 0)
(1.05647 0.008765 0)
(1.05673 0.00859155 0)
(1.05694 0.00842868 0)
(1.05709 0.00827507 0)
(1.05717 0.00812965 0)
(1.05718 0.00799154 0)
(1.05713 0.00785998 0)
(1.05702 0.00773442 0)
(1.05685 0.00761435 0)
(1.05661 0.00749943 0)
(1.05631 0.00738936 0)
(1.05596 0.00728393 0)
(1.05554 0.00718309 0)
(1.05507 0.00708665 0)
(1.05455 0.00699493 0)
(1.05398 0.00690754 0)
(1.05336 0.00682561 0)
(1.0527 0.00674795 0)
(1.052 0.00667735 0)
(1.05125 0.00661096 0)
(1.05048 0.00655431 0)
(1.04966 0.00650227 0)
(1.04882 0.00646292 0)
(1.04795 0.00643192 0)
(1.04706 0.00641252 0)
(1.04614 0.00641693 0)
(1.0452 0.00641729 0)
(1.04424 0.00648354 0)
(1.04325 0.0065202 0)
(1.04222 0.00671514 0)
(1.04121 0.00701916 0)
(1.00179 0.0181862 0)
(1.02184 0.025493 0)
(1.03559 0.0197352 0)
(1.0397 0.0170203 0)
(1.04118 0.016026 0)
(1.04298 0.0147851 0)
(1.04473 0.0136202 0)
(1.0461 0.0127895 0)
(1.04718 0.0121602 0)
(1.04813 0.0116224 0)
(1.04899 0.0111531 0)
(1.04977 0.0107464 0)
(1.05049 0.0103913 0)
(1.05115 0.0100769 0)
(1.05177 0.00979517 0)
(1.05234 0.00954069 0)
(1.05287 0.00930914 0)
(1.05337 0.00909706 0)
(1.05382 0.00890164 0)
(1.05424 0.00872057 0)
(1.05462 0.00855195 0)
(1.05496 0.00839421 0)
(1.05527 0.00824604 0)
(1.05553 0.00810635 0)
(1.05576 0.00797424 0)
(1.05594 0.00784896 0)
(1.05608 0.00772988 0)
(1.05618 0.0076165 0)
(1.05624 0.00750839 0)
(1.05625 0.00740527 0)
(1.05623 0.00730685 0)
(1.05616 0.00721306 0)
(1.05606 0.00712366 0)
(1.05591 0.00703896 0)
(1.05573 0.00695853 0)
(1.05551 0.00688342 0)
(1.05525 0.00681258 0)
(1.05497 0.00674844 0)
(1.05465 0.00668872 0)
(1.0543 0.00663792 0)
(1.05392 0.00659249 0)
(1.05352 0.00655817 0)
(1.05309 0.00653361 0)
(1.05265 0.00651883 0)
(1.05218 0.00652817 0)
(1.0517 0.00653606 0)
(1.05119 0.00660243 0)
(1.05067 0.00665982 0)
(1.05013 0.00684855 0)
(1.04962 0.0071653 0)
(1.00157 0.0165933 0)
(1.01979 0.0243575 0)
(1.03306 0.0192702 0)
(1.03734 0.0166162 0)
(1.03886 0.0157315 0)
(1.04063 0.0146112 0)
(1.04238 0.0134854 0)
(1.04375 0.0126654 0)
(1.04482 0.0120502 0)
(1.04576 0.0115259 0)
(1.04661 0.0110657 0)
(1.04738 0.0106655 0)
(1.04808 0.0103156 0)
(1.04873 0.0100057 0)
(1.04934 0.00972792 0)
(1.04991 0.0094769 0)
(1.05044 0.00924851 0)
(1.05094 0.00903943 0)
(1.05141 0.00884693 0)
(1.05185 0.00866878 0)
(1.05226 0.00850315 0)
(1.05265 0.00834851 0)
(1.05301 0.00820358 0)
(1.05335 0.00806729 0)
(1.05366 0.00793876 0)
(1.05394 0.00781723 0)
(1.0542 0.00770207 0)
(1.05442 0.00759277 0)
(1.05462 0.0074889 0)
(1.0548 0.00739015 0)
(1.05494 0.00729621 0)
(1.05506 0.00720699 0)
(1.05515 0.00712224 0)
(1.05521 0.00704222 0)
(1.05525 0.00696651 0)
(1.05527 0.00689606 0)
(1.05525 0.00682995 0)
(1.05522 0.00677028 0)
(1.05516 0.00671529 0)
(1.05508 0.00666854 0)
(1.05498 0.00662781 0)
(1.05486 0.00659697 0)
(1.05473 0.00657679 0)
(1.05458 0.00656534 0)
(1.05442 0.00657739 0)
(1.05425 0.00659121 0)
(1.05406 0.00665618 0)
(1.05387 0.00672848 0)
(1.05368 0.00690974 0)
(1.05354 0.00722307 0)
(1.00137 0.0151087 0)
(1.01788 0.0232206 0)
(1.03063 0.0188097 0)
(1.03508 0.0162184 0)
(1.03665 0.0154257 0)
(1.03837 0.0144276 0)
(1.04011 0.0133473 0)
(1.04148 0.012539 0)
(1.04256 0.0119377 0)
(1.04348 0.0114274 0)
(1.04432 0.0109769 0)
(1.04507 0.0105835 0)
(1.04577 0.0102391 0)
(1.04641 0.00993377 0)
(1.047 0.00965991 0)
(1.04756 0.00941225 0)
(1.04808 0.00918681 0)
(1.04857 0.00898039 0)
(1.04904 0.00879034 0)
(1.04948 0.00861451 0)
(1.04989 0.00845111 0)
(1.05029 0.00829867 0)
(1.05066 0.00815594 0)
(1.05102 0.00802189 0)
(1.05135 0.00789565 0)
(1.05167 0.00777648 0)
(1.05196 0.00766376 0)
(1.05224 0.00755698 0)
(1.0525 0.00745572 0)
(1.05274 0.00735965 0)
(1.05296 0.00726847 0)
(1.05316 0.00718207 0)
(1.05334 0.0071002 0)
(1.05351 0.00702307 0)
(1.05366 0.00695032 0)
(1.05379 0.00688275 0)
(1.0539 0.00681964 0)
(1.054 0.0067627 0)
(1.05409 0.00671069 0)
(1.05416 0.00666635 0)
(1.05422 0.00662853 0)
(1.05427 0.00659964 0)
(1.0543 0.00658188 0)
(1.05433 0.00657237 0)
(1.05436 0.00658507 0)
(1.05438 0.00660292 0)
(1.05439 0.00666508 0)
(1.05442 0.00674655 0)
(1.05445 0.00691853 0)
(1.05456 0.00721668 0)
(1.0012 0.0137307 0)
(1.01611 0.0220867 0)
(1.0283 0.0183498 0)
(1.0329 0.0158281 0)
(1.03452 0.0151103 0)
(1.0362 0.0142337 0)
(1.03793 0.0132054 0)
(1.03931 0.0124103 0)
(1.04038 0.0118226 0)
(1.04129 0.0113267 0)
(1.04212 0.0108867 0)
(1.04286 0.0105003 0)
(1.04355 0.0101616 0)
(1.04417 0.00986106 0)
(1.04476 0.00959126 0)
(1.0453 0.00934704 0)
(1.04581 0.00912458 0)
(1.04629 0.00892078 0)
(1.04675 0.0087331 0)
(1.04718 0.00855942 0)
(1.04759 0.00839803 0)
(1.04798 0.00824748 0)
(1.04835 0.00810657 0)
(1.0487 0.00797429 0)
(1.04904 0.00784978 0)
(1.04936 0.00773234 0)
(1.04966 0.00762135 0)
(1.04995 0.00751631 0)
(1.05022 0.0074168 0)
(1.05049 0.00732249 0)
(1.05073 0.00723309 0)
(1.05096 0.00714848 0)
(1.05118 0.00706841 0)
(1.05139 0.00699307 0)
(1.05159 0.00692211 0)
(1.05177 0.00685625 0)
(1.05194 0.0067949 0)
(1.05211 0.00673948 0)
(1.05226 0.00668917 0)
(1.0524 0.00664601 0)
(1.05254 0.00660968 0)
(1.05267 0.00658157 0)
(1.0528 0.00656465 0)
(1.05293 0.00655587 0)
(1.05305 0.00656763 0)
(1.05318 0.00658763 0)
(1.05331 0.00664585 0)
(1.05346 0.00673138 0)
(1.05363 0.00689214 0)
(1.05389 0.00716709 0)
(1.00104 0.0124571 0)
(1.01447 0.0209598 0)
(1.02609 0.0178872 0)
(1.03081 0.015446 0)
(1.03249 0.0147871 0)
(1.03413 0.0140292 0)
(1.03584 0.0130593 0)
(1.03722 0.0122794 0)
(1.03829 0.0117049 0)
(1.0392 0.0112238 0)
(1.04001 0.0107948 0)
(1.04075 0.0104159 0)
(1.04142 0.0100831 0)
(1.04204 0.0097875 0)
(1.04261 0.00952191 0)
(1.04314 0.00928126 0)
(1.04364 0.00906188 0)
(1.04411 0.00886077 0)
(1.04455 0.00867549 0)
(1.04497 0.00850398 0)
(1.04537 0.00834457 0)
(1.04575 0.00819585 0)
(1.04612 0.00805666 0)
(1.04646 0.00792601 0)
(1.04679 0.00780307 0)
(1.04711 0.00768712 0)
(1.04741 0.00757758 0)
(1.04769 0.00747396 0)
(1.04797 0.00737583 0)
(1.04823 0.00728287 0)
(1.04848 0.00719478 0)
(1.04872 0.00711146 0)
(1.04895 0.00703263 0)
(1.04917 0.00695847 0)
(1.04938 0.00688867 0)
(1.04958 0.00682384 0)
(1.04977 0.00676353 0)
(1.04996 0.00670889 0)
(1.05014 0.00665945 0)
(1.05031 0.00661671 0)
(1.05048 0.00658091 0)
(1.05065 0.00655281 0)
(1.05082 0.00653562 0)
(1.05099 0.00652668 0)
(1.05117 0.00653643 0)
(1.05135 0.00655696 0)
(1.05153 0.00661044 0)
(1.05175 0.00669573 0)
(1.052 0.00684353 0)
(1.05234 0.0070902 0)
(1.0009 0.011285 0)
(1.01296 0.0198444 0)
(1.02399 0.0174187 0)
(1.02881 0.0150727 0)
(1.03055 0.0144582 0)
(1.03216 0.0138136 0)
(1.03384 0.0129083 0)
(1.03523 0.0121463 0)
(1.03629 0.0115846 0)
(1.03719 0.0111184 0)
(1.03799 0.0107011 0)
(1.03872 0.0103302 0)
(1.03939 0.0100034 0)
(1.03999 0.009713 0)
(1.04055 0.00945179 0)
(1.04108 0.00921485 0)
(1.04156 0.00899865 0)
(1.04202 0.00880034 0)
(1.04246 0.00861753 0)
(1.04287 0.00844825 0)
(1.04326 0.00829086 0)
(1.04363 0.00814401 0)
(1.04398 0.00800655 0)
(1.04432 0.00787752 0)
(1.04464 0.00775611 0)
(1.04494 0.00764162 0)
(1.04524 0.00753346 0)
(1.04552 0.00743115 0)
(1.04579 0.00733427 0)
(1.04604 0.00724252 0)
(1.04629 0.00715556 0)
(1.04652 0.0070733 0)
(1.04675 0.00699548 0)
(1.04697 0.00692223 0)
(1.04718 0.0068533 0)
(1.04738 0.00678916 0)
(1.04758 0.00672953 0)
(1.04777 0.00667529 0)
(1.04796 0.00662626 0)
(1.04814 0.00658351 0)
(1.04832 0.00654767 0)
(1.0485 0.00651911 0)
(1.04869 0.00650095 0)
(1.04888 0.00649124 0)
(1.04907 0.00649833 0)
(1.04927 0.00651805 0)
(1.04949 0.00656624 0)
(1.04973 0.0066479 0)
(1.05002 0.00678125 0)
(1.05041 0.00699683 0)
(1.00078 0.0102109 0)
(1.01157 0.018745 0)
(1.02201 0.0169417 0)
(1.02689 0.0147081 0)
(1.02871 0.0141258 0)
(1.03027 0.0135872 0)
(1.03193 0.0127517 0)
(1.03332 0.0120108 0)
(1.03439 0.0114617 0)
(1.03528 0.0110105 0)
(1.03607 0.0106055 0)
(1.03679 0.0102431 0)
(1.03744 0.00992259 0)
(1.03804 0.00963749 0)
(1.03859 0.00938082 0)
(1.0391 0.00914774 0)
(1.03958 0.00893485 0)
(1.04003 0.00873943 0)
(1.04046 0.00855918 0)
(1.04086 0.0083922 0)
(1.04124 0.0082369 0)
(1.0416 0.00809197 0)
(1.04194 0.00795629 0)
(1.04227 0.00782892 0)
(1.04258 0.00770906 0)
(1.04288 0.00759604 0)
(1.04317 0.00748926 0)
(1.04344 0.00738827 0)
(1.0437 0.00729262 0)
(1.04395 0.00720203 0)
(1.04419 0.00711616 0)
(1.04442 0.00703491 0)
(1.04464 0.00695801 0)
(1.04485 0.00688557 0)
(1.04505 0.00681737 0)
(1.04525 0.00675379 0)
(1.04545 0.00669466 0)
(1.04564 0.00664065 0)
(1.04582 0.00659178 0)
(1.046 0.00654883 0)
(1.04619 0.0065126 0)
(1.04637 0.00648333 0)
(1.04656 0.00646382 0)
(1.04675 0.00645288 0)
(1.04695 0.00645696 0)
(1.04716 0.00647479 0)
(1.04738 0.00651727 0)
(1.04765 0.00659267 0)
(1.04795 0.00671039 0)
(1.04836 0.0068937 0)
(1.00067 0.00923072 0)
(1.01031 0.0176659 0)
(1.02014 0.0164539 0)
(1.02506 0.0143521 0)
(1.02695 0.0137919 0)
(1.02848 0.0133501 0)
(1.03011 0.012589 0)
(1.0315 0.0118728 0)
(1.03257 0.0113363 0)
(1.03345 0.0109 0)
(1.03424 0.0105078 0)
(1.03495 0.0101543 0)
(1.03559 0.00984047 0)
(1.03618 0.00956088 0)
(1.03672 0.00930892 0)
(1.03723 0.00907985 0)
(1.0377 0.00887039 0)
(1.03814 0.00867796 0)
(1.03855 0.00850036 0)
(1.03895 0.00833576 0)
(1.03932 0.00818263 0)
(1.03967 0.00803968 0)
(1.04 0.00790583 0)
(1.04032 0.00778017 0)
(1.04063 0.00766191 0)
(1.04092 0.00755039 0)
(1.04119 0.00744504 0)
(1.04146 0.00734538 0)
(1.04171 0.00725099 0)
(1.04195 0.00716157 0)
(1.04218 0.00707679 0)
(1.0424 0.00699653 0)
(1.04262 0.00692054 0)
(1.04282 0.00684889 0)
(1.04302 0.00678138 0)
(1.04322 0.00671832 0)
(1.0434 0.0066596 0)
(1.04359 0.00660575 0)
(1.04377 0.00655691 0)
(1.04395 0.00651366 0)
(1.04413 0.00647686 0)
(1.04431 0.00644672 0)
(1.04449 0.00642562 0)
(1.04468 0.00641312 0)
(1.04488 0.006414 0)
(1.04509 0.00642902 0)
(1.04533 0.00646543 0)
(1.04559 0.00653259 0)
(1.04591 0.00663376 0)
(1.04633 0.00678473 0)
(1.00058 0.00833981 0)
(1.00917 0.0166115 0)
(1.01838 0.0159536 0)
(1.02331 0.014004 0)
(1.02528 0.0134584 0)
(1.02678 0.0131029 0)
(1.02838 0.0124195 0)
(1.02976 0.0117321 0)
(1.03083 0.0112083 0)
(1.03171 0.0107866 0)
(1.03249 0.0104079 0)
(1.03319 0.0100639 0)
(1.03383 0.00975697 0)
(1.03441 0.00948306 0)
(1.03495 0.009236 0)
(1.03544 0.00901109 0)
(1.0359 0.0088052 0)
(1.03634 0.00861587 0)
(1.03674 0.00844102 0)
(1.03713 0.00827889 0)
(1.03749 0.00812799 0)
(1.03783 0.00798709 0)
(1.03816 0.00785513 0)
(1.03847 0.00773123 0)
(1.03877 0.00761463 0)
(1.03905 0.00750466 0)
(1.03932 0.00740077 0)
(1.03957 0.00730248 0)
(1.03982 0.00720937 0)
(1.04005 0.00712115 0)
(1.04028 0.00703748 0)
(1.04049 0.00695823 0)
(1.0407 0.00688316 0)
(1.0409 0.00681229 0)
(1.04109 0.00674546 0)
(1.04128 0.0066829 0)
(1.04146 0.00662456 0)
(1.04164 0.00657084 0)
(1.04182 0.00652195 0)
(1.04199 0.00647835 0)
(1.04216 0.00644086 0)
(1.04234 0.00640973 0)
(1.04252 0.00638691 0)
(1.04271 0.00637254 0)
(1.0429 0.00637008 0)
(1.04312 0.00638155 0)
(1.04335 0.0064115 0)
(1.04362 0.00646892 0)
(1.04394 0.00655289 0)
(1.04436 0.00667218 0)
(1.0005 0.00753315 0)
(1.00814 0.015586 0)
(1.01674 0.0154399 0)
(1.02164 0.0136628 0)
(1.0237 0.013127 0)
(1.02517 0.0128464 0)
(1.02673 0.0122427 0)
(1.0281 0.0115884 0)
(1.02918 0.0110779 0)
(1.03006 0.0106705 0)
(1.03083 0.0103056 0)
(1.03152 0.0099717 0)
(1.03216 0.00967197 0)
(1.03273 0.00940396 0)
(1.03326 0.00916195 0)
(1.03374 0.00894137 0)
(1.0342 0.00873919 0)