/*--------------------------------*- C++ -*----------------------------------*\
  =========                 |
  \\      /  F ield         | OpenFOAM: The Open Source CFD Toolbox
   \\    /   O peration     | Website:  https://openfoam.org
    \\  /    A nd           | Version:  7
     \\/     M anipulation  |
\*---------------------------------------------------------------------------*/
FoamFile
{
    version     2.0;
    format      ascii;
    class       volVectorField;
    location    "0.18";
    object      U_0;
}
// * * * * * * * * * * * * * * * * * * * * * * * * * * * * * * * * * * * * * //

dimensions      [0 1 -1 0 0 0 0];

internalField   nonuniform List<vector> 
70000
(
(0.553392 0.016723 0)
(0.251268 0.00340088 0)
(0.166217 0.000321866 0)
(0.132479 5.41655e-05 0)
(0.117297 4.56092e-05 0)
(0.107382 5.37874e-05 0)
(0.0994417 4.61578e-05 0)
(0.0930088 3.68226e-05 0)
(0.0877704 3.05137e-05 0)
(0.0834065 2.61922e-05 0)
(0.0796888 2.28992e-05 0)
(0.0764695 2.0261e-05 0)
(0.0736473 1.81081e-05 0)
(0.0711485 1.63273e-05 0)
(0.0689171 1.48346e-05 0)
(0.06691 1.35678e-05 0)
(0.0650931 1.24808e-05 0)
(0.0634394 1.15387e-05 0)
(0.0619269 1.07149e-05 0)
(0.0605377 9.98888e-06 0)
(0.0592568 9.34436e-06 0)
(0.0580718 8.76851e-06 0)
(0.0569721 8.25088e-06 0)
(0.0559487 7.78312e-06 0)
(0.054994 7.35812e-06 0)
(0.0541011 6.97054e-06 0)
(0.0532644 6.61493e-06 0)
(0.0524786 6.28842e-06 0)
(0.0517394 5.98579e-06 0)
(0.0510426 5.70718e-06 0)
(0.0503848 5.44526e-06 0)
(0.0497626 5.20564e-06 0)
(0.0491734 4.97467e-06 0)
(0.0486142 4.76786e-06 0)
(0.0480832 4.56028e-06 0)
(0.0475776 4.38025e-06 0)
(0.0470957 4.19486e-06 0)
(0.0466359 4.0258e-06 0)
(0.0461945 3.88609e-06 0)
(0.0457754 3.66771e-06 0)
(0.0453639 3.68552e-06 0)
(0.044985 3.20275e-06 0)
(0.044586 3.77223e-06 0)
(0.0442588 2.33164e-06 0)
(0.0438351 4.68755e-06 0)
(0.0436002 1.9673e-07 0)
(0.0430712 8.11028e-06 0)
(0.0429986 -5.72227e-06 0)
(0.0424525 2.5452e-05 0)
(0.0390411 -0.00158292 0)
(0.884899 0.043167 0)
(0.649727 0.0201933 0)
(0.49435 0.00659738 0)
(0.403716 0.00276666 0)
(0.354811 0.00155113 0)
(0.323528 0.00113084 0)
(0.299687 0.000909791 0)
(0.280504 0.000746064 0)
(0.264801 0.000623399 0)
(0.251686 0.000532832 0)
(0.240508 0.000464111 0)
(0.230827 0.000410049 0)
(0.222336 0.000366365 0)
(0.214814 0.000330395 0)
(0.208094 0.000300326 0)
(0.202045 0.000274863 0)
(0.196567 0.000253052 0)
(0.191578 0.00023418 0)
(0.187012 0.000217705 0)
(0.182816 0.00020321 0)
(0.178945 0.000190366 0)
(0.175362 0.000178914 0)
(0.172035 0.000168646 0)
(0.168937 0.000159393 0)
(0.166044 0.000151019 0)
(0.163337 0.000143409 0)
(0.160799 0.000136469 0)
(0.158413 0.000130122 0)
(0.156166 0.0001243 0)
(0.154047 0.000118951 0)
(0.152044 0.00011402 0)
(0.150147 0.000109484 0)
(0.148349 0.000105281 0)
(0.14664 0.000101432 0)
(0.145015 9.78361e-05 0)
(0.143465 9.45965e-05 0)
(0.141985 9.15199e-05 0)
(0.140571 8.88517e-05 0)
(0.13921 8.62532e-05 0)
(0.137913 8.41189e-05 0)
(0.136641 8.20873e-05 0)
(0.135457 8.02942e-05 0)
(0.134223 7.93791e-05 0)
(0.13318 7.69835e-05 0)
(0.131884 7.94222e-05 0)
(0.131079 7.21164e-05 0)
(0.12952 8.94718e-05 0)
(0.129106 3.58998e-05 0)
(0.127466 0.00029968 0)
(0.123269 -0.00257267 0)
(0.991237 0.0499008 0)
(0.890357 0.0307173 0)
(0.762715 0.0145956 0)
(0.656734 0.00797746 0)
(0.585439 0.00488284 0)
(0.536063 0.00346941 0)
(0.498221 0.00273439 0)
(0.46762 0.00224267 0)
(0.442315 0.00188016 0)
(0.421007 0.00160918 0)
(0.40275 0.00140231 0)
(0.386876 0.00123955 0)
(0.372911 0.00110813 0)
(0.360506 0.000999929 0)
(0.349398 0.000909454 0)
(0.33938 0.000832811 0)
(0.330291 0.000767141 0)
(0.322001 0.000710304 0)
(0.314404 0.000660677 0)
(0.307413 0.000617003 0)
(0.300957 0.000578301 0)
(0.294973 0.000543793 0)
(0.289411 0.000512854 0)
(0.284227 0.000484979 0)
(0.279383 0.000459754 0)
(0.274846 0.000436841 0)
(0.270587 0.000415957 0)
(0.266581 0.000396868 0)
(0.262806 0.000379373 0)
(0.259241 0.000363312 0)
(0.255869 0.000348533 0)
(0.252674 0.000334944 0)
(0.249643 0.000322399 0)
(0.246759 0.000310903 0)
(0.244014 0.000300239 0)
(0.241395 0.000290614 0)
(0.238891 0.000281568 0)
(0.236495 0.000273755 0)
(0.234189 0.000266119 0)
(0.231986 0.000260234 0)
(0.229828 0.00025389 0)
(0.227808 0.000250148 0)
(0.225722 0.000245372 0)
(0.223914 0.000243421 0)
(0.221755 0.000242751 0)
(0.220287 0.000236604 0)
(0.21778 0.000262195 0)
(0.216833 0.000162878 0)
(0.214073 0.000559199 0)
(0.210862 -0.00240787 0)
(1.0156 0.0489195 0)
(1.00597 0.0358727 0)
(0.935975 0.0207884 0)
(0.852174 0.0135006 0)
(0.782269 0.00920421 0)
(0.727105 0.00677805 0)
(0.682055 0.00538112 0)
(0.644323 0.00444308 0)
(0.61232 0.00375063 0)
(0.584857 0.00322612 0)
(0.560996 0.00282107 0)
(0.540032 0.00250025 0)
(0.521437 0.00224011 0)
(0.504809 0.00202518 0)
(0.489835 0.00184495 0)
(0.476268 0.00169188 0)
(0.463909 0.00156043 0)
(0.452597 0.00144646 0)
(0.442199 0.00134678 0)
(0.432605 0.00125894 0)
(0.423722 0.001181 0)
(0.415472 0.00111143 0)
(0.407788 0.001049 0)
(0.400614 0.000992704 0)
(0.393898 0.000941728 0)
(0.387598 0.000895396 0)
(0.381676 0.000853148 0)
(0.376099 0.000814514 0)
(0.370836 0.000779102 0)
(0.36586 0.000746582 0)
(0.36115 0.000716668 0)
(0.356681 0.000689148 0)
(0.352437 0.000663772 0)
(0.348397 0.000640493 0)
(0.344547 0.000618958 0)
(0.34087 0.000599479 0)
(0.337353 0.000581258 0)
(0.333985 0.000565492 0)
(0.330743 0.000550117 0)
(0.327642 0.000538454 0)
(0.32461 0.000525406 0)
(0.321754 0.000518858 0)
(0.318839 0.000507697 0)
(0.316253 0.000507357 0)
(0.313284 0.000500209 0)
(0.311094 0.000499255 0)
(0.307773 0.000528588 0)
(0.306147 0.000399869 0)
(0.302434 0.000831347 0)
(0.299629 -0.00179231 0)
(1.01434 0.0460028 0)
(1.04754 0.0374857 0)
(1.02459 0.0241472 0)
(0.974795 0.0175538 0)
(0.923513 0.0131167 0)
(0.876776 0.0102007 0)
(0.834651 0.00833808 0)
(0.796936 0.0070185 0)
(0.763399 0.00601053 0)
(0.733597 0.00522498 0)
(0.707019 0.00460486 0)
(0.683192 0.0041059 0)
(0.661719 0.00369657 0)
(0.64227 0.00335532 0)
(0.624568 0.00306702 0)
(0.608386 0.00282065 0)
(0.593533 0.00260799 0)
(0.57985 0.00242277 0)
(0.5672 0.00226017 0)
(0.555471 0.00211639 0)
(0.544562 0.00198845 0)
(0.534392 0.00187395 0)
(0.524886 0.00177096 0)
(0.515982 0.00167791 0)
(0.507623 0.00159349 0)
(0.499761 0.00151663 0)
(0.492353 0.00144645 0)
(0.485361 0.00138217 0)
(0.478749 0.00132319 0)
(0.472488 0.00126897 0)
(0.46655 0.00121904 0)
(0.460908 0.00117306 0)
(0.455541 0.00113064 0)
(0.450426 0.00109167 0)
(0.445546 0.00105564 0)
(0.440881 0.00102295 0)
(0.436415 0.000992456 0)
(0.432134 0.00096593 0)
(0.428013 0.000940187 0)
(0.424063 0.000920522 0)
(0.420212 0.000898559 0)
(0.416562 0.000887688 0)
(0.412879 0.000868302 0)
(0.409542 0.000868894 0)
(0.405853 0.000854078 0)
(0.402929 0.000858216 0)
(0.398953 0.000889446 0)
(0.396558 0.000745111 0)
(0.392205 0.00116954 0)
(0.389018 -0.00105138 0)
(1.00933 0.0429141 0)
(1.05528 0.0372606 0)
(1.0587 0.0252905 0)
(1.0364 0.019752 0)
(1.00715 0.0158038 0)
(0.976132 0.0129283 0)
(0.944641 0.0109531 0)
(0.913808 0.00947295 0)
(0.884482 0.00828507 0)
(0.857043 0.00732005 0)
(0.83157 0.00653282 0)
(0.807998 0.00588312 0)
(0.786205 0.00533942 0)
(0.766049 0.00487884 0)
(0.747385 0.00448459 0)
(0.730074 0.00414398 0)
(0.713987 0.00384725 0)
(0.699008 0.00358678 0)
(0.685033 0.00335654 0)
(0.671968 0.00315176 0)
(0.659732 0.00296858 0)
(0.64825 0.0028039 0)
(0.637458 0.00265516 0)
(0.627297 0.00252026 0)
(0.617714 0.00239748 0)
(0.608664 0.00228536 0)
(0.600104 0.00218268 0)
(0.591995 0.00208842 0)
(0.584305 0.00200172 0)
(0.577 0.00192183 0)
(0.570054 0.00184814 0)
(0.563439 0.00178013 0)
(0.557132 0.00171729 0)
(0.551109 0.00165943 0)
(0.545353 0.00160588 0)
(0.539841 0.00155715 0)
(0.534557 0.00151172 0)
(0.529484 0.00147193 0)
(0.524599 0.00143354 0)
(0.519907 0.00140367 0)
(0.515343 0.00137097 0)
(0.510991 0.00135378 0)
(0.506645 0.00132511 0)
(0.502632 0.00132439 0)
(0.498343 0.00130254 0)
(0.494732 0.00130839 0)
(0.490258 0.00134276 0)
(0.487096 0.00118877 0)
(0.482355 0.0015948 0)
(0.478531 -0.00022332 0)
(1.00625 0.0400326 0)
(1.05207 0.0363328 0)
(1.0661 0.025219 0)
(1.05962 0.0205505 0)
(1.04691 0.0172287 0)
(1.03086 0.014646 0)
(1.01199 0.0128105 0)
(0.99134 0.0113874 0)
(0.96996 0.0101936 0)
(0.948579 0.00918125 0)
(0.92764 0.00832451 0)
(0.907401 0.00759533 0)
(0.88801 0.0069691 0)
(0.869535 0.00642687 0)
(0.851994 0.00595404 0)
(0.835377 0.00553906 0)
(0.819652 0.0051726 0)
(0.804779 0.00484714 0)
(0.790712 0.00455651 0)
(0.777402 0.00429569 0)
(0.764804 0.00406055 0)
(0.75287 0.00384765 0)
(0.741558 0.00365415 0)
(0.730826 0.00347766 0)
(0.720636 0.0033162 0)
(0.710952 0.00316807 0)
(0.70174 0.00303183 0)
(0.69297 0.00290628 0)
(0.684612 0.00279037 0)
(0.67664 0.00268321 0)
(0.669029 0.00258406 0)
(0.661754 0.00249227 0)
(0.654796 0.00240724 0)
(0.648131 0.0023287 0)
(0.641743 0.00225589 0)
(0.635611 0.00218935 0)
(0.629719 0.00212731 0)
(0.624051 0.00207254 0)
(0.618586 0.00201998 0)
(0.613323 0.00197821 0)
(0.608209 0.00193361 0)
(0.603307 0.00190816 0)
(0.59845 0.0018699 0)
(0.593894 0.00186502 0)
(0.589152 0.00183769 0)
(0.584971 0.00184081 0)
(0.58015 0.00188008 0)
(0.576332 0.00172103 0)
(0.571354 0.00210162 0)
(0.566978 0.000681643 0)
(1.00495 0.0373544 0)
(1.04727 0.0352503 0)
(1.06398 0.0246784 0)
(1.06427 0.0205757 0)
(1.06071 0.017765 0)
(1.0548 0.0154867 0)
(1.04607 0.0138657 0)
(1.03491 0.0126074 0)
(1.02203 0.0115247 0)
(1.00803 0.0105759 0)
(0.993367 0.00974743 0)
(0.978392 0.00902163 0)
(0.963368 0.00838154 0)
(0.948488 0.00781383 0)
(0.933888 0.00730807 0)
(0.919659 0.00685566 0)
(0.90586 0.0064494 0)
(0.892528 0.00608317 0)
(0.87968 0.00575179 0)
(0.867323 0.00545087 0)
(0.855452 0.00517669 0)
(0.844061 0.00492609 0)
(0.833135 0.00469637 0)
(0.82266 0.00448522 0)
(0.812618 0.00429067 0)
(0.802991 0.00411103 0)
(0.793762 0.00394484 0)
(0.784911 0.00379084 0)
(0.776421 0.00364797 0)
(0.768273 0.00351526 0)
(0.76045 0.00339192 0)
(0.752935 0.00327728 0)
(0.745712 0.00317069 0)
(0.738765 0.00307186 0)
(0.732079 0.00297994 0)
(0.725638 0.00289558 0)
(0.719429 0.0028168 0)
(0.713437 0.00274672 0)
(0.707646 0.00267975 0)
(0.702051 0.00262539 0)
(0.696612 0.00256876 0)
(0.691373 0.00253382 0)
(0.686206 0.00248647 0)
(0.681301 0.00247505 0)
(0.676289 0.00244402 0)
(0.671721 0.00244094 0)
(0.666713 0.0024855 0)
(0.66243 0.00232792 0)
(0.657342 0.00267704 0)
(0.652604 0.00163331 0)
(1.0044 0.0348063 0)
(1.04324 0.0341768 0)
(1.05995 0.0240367 0)
(1.06231 0.020281 0)
(1.06253 0.0178275 0)
(1.06185 0.0157661 0)
(1.05931 0.0143181 0)
(1.05479 0.0132249 0)
(1.0486 0.0122845 0)
(1.04107 0.011448 0)
(1.03245 0.0107044 0)
(1.02302 0.01004 0)
(1.01298 0.00944187 0)
(1.00255 0.0089002 0)
(0.991884 0.00840785 0)
(0.981106 0.00795905 0)
(0.970323 0.0075489 0)
(0.959616 0.00717315 0)
(0.949046 0.00682809 0)
(0.93866 0.00651047 0)
(0.928491 0.00621747 0)
(0.918563 0.00594661 0)
(0.908895 0.00569572 0)
(0.899494 0.00546291 0)
(0.890368 0.00524652 0)
(0.881519 0.00504509 0)
(0.872944 0.00485736 0)
(0.864642 0.00468219 0)
(0.856607 0.00451863 0)
(0.848834 0.00436581 0)
(0.841314 0.004223 0)
(0.834041 0.00408956 0)
(0.827005 0.00396489 0)
(0.820198 0.00384875 0)
(0.813611 0.00374032 0)
(0.807233 0.0036403 0)
(0.801057 0.00354667 0)
(0.79507 0.00346277 0)
(0.789263 0.0033828 0)
(0.783631 0.0033167 0)
(0.778144 0.00324925 0)
(0.772833 0.00320484 0)
(0.767604 0.00314982 0)
(0.762591 0.00313072 0)
(0.757529 0.00309783 0)
(0.752805 0.00308706 0)
(0.747798 0.00313615 0)
(0.743291 0.00298749 0)
(0.738245 0.0033035 0)
(0.733372 0.00259245 0)
(1.00402 0.0323661 0)
(1.03991 0.0331263 0)
(1.05617 0.023413 0)
(1.05894 0.0198918 0)
(1.06025 0.0176959 0)
(1.06162 0.0157687 0)
(1.06202 0.0144214 0)
(1.06115 0.0134428 0)
(1.05912 0.0126182 0)
(1.05603 0.0118875 0)
(1.05197 0.0112371 0)
(1.04706 0.010653 0)
(1.04141 0.0101221 0)
(1.03515 0.00963549 0)
(1.0284 0.00918694 0)
(1.02126 0.00877207 0)
(1.01384 0.00838731 0)
(1.00621 0.00802969 0)
(0.998447 0.00769668 0)
(0.990613 0.00738605 0)
(0.982758 0.00709587 0)
(0.974922 0.00682441 0)
(0.967141 0.00657017 0)
(0.959441 0.00633177 0)
(0.951845 0.00610802 0)
(0.944371 0.00589783 0)
(0.937031 0.00570027 0)
(0.929836 0.00551446 0)
(0.922794 0.00533967 0)
(0.915908 0.00517522 0)
(0.909184 0.00502054 0)
(0.90262 0.00487513 0)
(0.896219 0.00473852 0)
(0.889978 0.00461055 0)
(0.883896 0.0044905 0)
(0.877967 0.00437919 0)
(0.872191 0.00427466 0)
(0.86656 0.00418035 0)
(0.86107 0.00409055 0)
(0.855718 0.00401524 0)
(0.850485 0.00393963 0)
(0.845392 0.00388729 0)
(0.840374 0.00382704 0)
(0.835523 0.00380072 0)
(0.830657 0.00376802 0)
(0.826033 0.00375017 0)
(0.82124 0.00380269 0)
(0.816769 0.00367043 0)
(0.811947 0.00395493 0)
(0.807185 0.00352591 0)
(1.00364 0.0300256 0)
(1.03692 0.0320783 0)
(1.05283 0.0228226 0)
(1.05571 0.0194856 0)
(1.05716 0.0175025 0)
(1.05908 0.015667 0)
(1.06054 0.0143668 0)
(1.06126 0.0134508 0)
(1.0613 0.0126994 0)
(1.06068 0.0120428 0)
(1.0594 0.0114647 0)
(1.05749 0.0109497 0)
(1.05496 0.0104834 0)
(1.05188 0.0100555 0)
(1.04829 0.00965943 0)
(1.04425 0.00929069 0)
(1.03983 0.00894587 0)
(1.03509 0.00862235 0)
(1.03007 0.00831803 0)
(1.02483 0.0080312 0)
(1.01942 0.00776043 0)
(1.01387 0.00750449 0)
(1.00823 0.00726234 0)
(1.00253 0.00703303 0)
(0.996787 0.00681578 0)
(0.991034 0.00660984 0)
(0.985289 0.00641459 0)
(0.979571 0.00622944 0)
(0.973895 0.00605393 0)
(0.968273 0.00588757 0)
(0.962715 0.00573002 0)
(0.957229 0.00558094 0)
(0.951823 0.00544002 0)
(0.9465 0.00530727 0)
(0.941266 0.00518207 0)
(0.936122 0.00506538 0)
(0.931071 0.00495537 0)
(0.926111 0.00485555 0)
(0.921242 0.00476049 0)
(0.916466 0.00467989 0)
(0.911771 0.00459999 0)
(0.907173 0.00454264 0)
(0.902629 0.00448048 0)
(0.898202 0.0044489 0)
(0.893772 0.00441873 0)
(0.889503 0.00439616 0)
(0.885135 0.00445135 0)
(0.880958 0.00434206 0)
(0.876551 0.00459924 0)
(0.87214 0.00440008 0)
(1.00327 0.0277857 0)
(1.03409 0.0310192 0)
(1.04971 0.0222586 0)
(1.05275 0.0190773 0)
(1.05416 0.0172903 0)
(1.05613 0.015536 0)
(1.05787 0.0142574 0)
(1.05911 0.0133714 0)
(1.05996 0.0126604 0)
(1.06045 0.0120469 0)
(1.06057 0.0115136 0)
(1.06029 0.0110451 0)
(1.05961 0.0106259 0)
(1.05854 0.0102446 0)
(1.05707 0.00989345 0)
(1.05524 0.00956734 0)
(1.05307 0.00926238 0)
(1.05058 0.00897566 0)
(1.0478 0.00870494 0)
(1.04476 0.00844848 0)
(1.0415 0.00820492 0)
(1.03804 0.00797315 0)
(1.03441 0.0077523 0)
(1.03063 0.00754163 0)
(1.02674 0.00734051 0)
(1.02275 0.00714844 0)
(1.01868 0.00696498 0)
(1.01455 0.00678975 0)
(1.01038 0.00662247 0)
(1.00618 0.00646282 0)
(1.00197 0.00631064 0)
(0.997759 0.00616576 0)
(0.993552 0.00602798 0)
(0.989361 0.00589749 0)
(0.985194 0.00577378 0)
(0.981056 0.00565796 0)
(0.976952 0.00554832 0)
(0.972887 0.00544842 0)
(0.968863 0.0053532 0)
(0.964884 0.00527189 0)
(0.960945 0.00519215 0)
(0.957059 0.00513344 0)
(0.953201 0.00507314 0)
(0.94941 0.00503924 0)
(0.945616 0.00501399 0)
(0.941914 0.00499022 0)
(0.938154 0.00504784 0)
(0.934488 0.00496653 0)
(0.930665 0.00520204 0)
(0.926812 0.00518252 0)
(1.00292 0.0256497 0)
(1.03138 0.0299443 0)
(1.04671 0.0217166 0)
(1.04995 0.0186669 0)
(1.05135 0.0170659 0)
(1.05328 0.0153978 0)
(1.05505 0.0141344 0)
(1.05641 0.0132636 0)
(1.05749 0.0125754 0)
(1.05837 0.0119855 0)
(1.05904 0.0114766 0)
(1.05951 0.0110346 0)
(1.05974 0.010644 0)
(1.05973 0.0102927 0)
(1.05947 0.00997253 0)
(1.05897 0.00967767 0)
(1.05822 0.00940374 0)
(1.05723 0.00914739 0)
(1.056 0.00890604 0)
(1.05456 0.00867768 0)
(1.05291 0.00846075 0)
(1.05107 0.00825402 0)
(1.04906 0.00805653 0)
(1.04688 0.00786751 0)
(1.04456 0.00768636 0)
(1.04211 0.00751258 0)
(1.03954 0.00734581 0)
(1.03687 0.00718573 0)
(1.03411 0.00703212 0)
(1.03128 0.00688479 0)
(1.02839 0.00674362 0)
(1.02545 0.00660858 0)
(1.02246 0.00647954 0)
(1.01944 0.00635679 0)
(1.0164 0.00623993 0)
(1.01334 0.00613014 0)
(1.01027 0.00602588 0)
(1.00719 0.00593063 0)
(1.00411 0.00583984 0)
(1.00104 0.00576201 0)
(0.997975 0.00568653 0)
(0.994923 0.00563007 0)
(0.991873 0.00557504 0)
(0.988849 0.00554202 0)
(0.985813 0.00552371 0)
(0.982817 0.00550254 0)
(0.979781 0.00556271 0)
(0.976776 0.00551236 0)
(0.973657 0.00573201 0)
(0.970504 0.00584648 0)
(1.0026 0.0236205 0)
(1.0288 0.0288524 0)
(1.0438 0.0211956 0)
(1.04726 0.0182543 0)
(1.04866 0.016828 0)
(1.05056 0.0152551 0)
(1.05232 0.0140087 0)
(1.05369 0.0131485 0)
(1.0548 0.0124763 0)
(1.05578 0.0119013 0)
(1.05663 0.0114059 0)
(1.05735 0.010978 0)
(1.05795 0.0106029 0)
(1.05841 0.0102686 0)
(1.05873 0.00996672 0)
(1.0589 0.00969121 0)
(1.05891 0.00943749 0)
(1.05878 0.00920193 0)
(1.05848 0.00898167 0)
(1.05804 0.00877446 0)
(1.05744 0.00857852 0)
(1.05669 0.00839241 0)
(1.05579 0.00821502 0)
(1.05476 0.00804545 0)
(1.0536 0.00788298 0)
(1.05232 0.00772706 0)
(1.05092 0.00757727 0)
(1.04942 0.00743324 0)
(1.04782 0.00729475 0)
(1.04614 0.0071616 0)
(1.04437 0.0070337 0)
(1.04253 0.00691103 0)
(1.04063 0.00679349 0)
(1.03866 0.00668142 0)
(1.03665 0.00657445 0)
(1.0346 0.00647381 0)
(1.0325 0.00637807 0)
(1.03038 0.00629058 0)
(1.02822 0.00620733 0)
(1.02605 0.00613592 0)
(1.02385 0.0060676 0)
(1.02164 0.00601608 0)
(1.01942 0.00596872 0)
(1.01719 0.00593922 0)
(1.01494 0.00592899 0)
(1.0127 0.00591363 0)
(1.01042 0.00597644 0)
(1.00814 0.00595765 0)
(1.00577 0.00616637 0)
(1.00338 0.0063752 0)
(1.0023 0.0216997 0)
(1.02634 0.0277444 0)
(1.04097 0.0206939 0)
(1.04466 0.0178411 0)
(1.04608 0.0165752 0)
(1.04794 0.0151063 0)
(1.0497 0.0138815 0)
(1.05106 0.013031 0)
(1.05217 0.0123732 0)
(1.05315 0.0118105 0)
(1.05403 0.0113243 0)
(1.05482 0.0109049 0)
(1.05553 0.0105385 0)
(1.05615 0.0102135 0)
(1.05669 0.00992162 0)
(1.05715 0.00965694 0)
(1.05752 0.00941486 0)
(1.05779 0.00919171 0)
(1.05798 0.00898454 0)
(1.05806 0.00879098 0)
(1.05805 0.00860911 0)
(1.05793 0.00843739 0)
(1.05772 0.00827455 0)
(1.05741 0.00811958 0)
(1.057 0.00797165 0)
(1.0565 0.00783011 0)
(1.0559 0.00769444 0)
(1.05522 0.00756421 0)
(1.05446 0.00743914 0)
(1.05361 0.00731899 0)
(1.05269 0.00720361 0)
(1.0517 0.00709297 0)
(1.05064 0.00698693 0)
(1.04952 0.00688586 0)
(1.04834 0.00678936 0)
(1.04712 0.00669865 0)
(1.04584 0.00661241 0)
(1.04452 0.00653377 0)
(1.04317 0.00645926 0)
(1.04178 0.0063955 0)
(1.04035 0.00633558 0)
(1.0389 0.00629032 0)
(1.03743 0.00625153 0)
(1.03593 0.0062271 0)
(1.03441 0.00622492 0)
(1.03287 0.00621734 0)
(1.03131 0.00628247 0)
(1.02972 0.00629346 0)
(1.02806 0.00649461 0)
(1.02641 0.00676455 0)
(1.00203 0.0198882 0)
(1.02402 0.0266233 0)
(1.03823 0.0202083 0)
(1.04213 0.0174291 0)
(1.04358 0.0163076 0)
(1.04542 0.0149499 0)
(1.04718 0.0137522 0)
(1.04854 0.0129115 0)
(1.04963 0.0122679 0)
(1.05059 0.0117174 0)
(1.05146 0.0112395 0)
(1.05226 0.0108266 0)
(1.05299 0.0104663 0)
(1.05365 0.0101472 0)
(1.05426 0.00986118 0)
(1.05481 0.00960263 0)
(1.05531 0.00936704 0)
(1.05575 0.00915085 0)
(1.05614 0.00895113 0)
(1.05646 0.00876551 0)
(1.05673 0.00859207 0)
(1.05694 0.00842921 0)
(1.05708 0.00827562 0)
(1.05716 0.00813021 0)
(1.05718 0.00799211 0)
(1.05713 0.00786058 0)
(1.05702 0.00773503 0)
(1.05684 0.00761499 0)
(1.0566 0.00750009 0)
(1.05631 0.00739005 0)
(1.05595 0.00728466 0)
(1.05553 0.00718386 0)
(1.05506 0.00708747 0)
(1.05454 0.00699582 0)
(1.05397 0.0069085 0)
(1.05335 0.00682665 0)
(1.05269 0.0067491 0)
(1.05198 0.00667862 0)
(1.05124 0.00661237 0)
(1.05046 0.00655588 0)
(1.04965 0.00650403 0)
(1.04881 0.00646491 0)
(1.04794 0.00643416 0)
(1.04705 0.00641507 0)
(1.04613 0.00641978 0)
(1.04519 0.0064205 0)
(1.04422 0.00648707 0)
(1.04324 0.00652402 0)
(1.0422 0.00671911 0)
(1.04119 0.00702314 0)
(1.00179 0.0181862 0)
(1.02184 0.025493 0)
(1.03559 0.0197351 0)
(1.0397 0.0170202 0)
(1.04118 0.016026 0)
(1.04298 0.0147851 0)
(1.04473 0.0136203 0)
(1.0461 0.0127897 0)
(1.04718 0.0121604 0)
(1.04813 0.0116226 0)
(1.04899 0.0111534 0)
(1.04977 0.0107468 0)
(1.05049 0.0103917 0)
(1.05115 0.0100773 0)
(1.05177 0.00979562 0)
(1.05234 0.00954116 0)
(1.05287 0.00930963 0)
(1.05336 0.00909758 0)
(1.05382 0.00890217 0)
(1.05424 0.00872112 0)
(1.05462 0.00855251 0)
(1.05496 0.00839478 0)
(1.05527 0.00824663 0)
(1.05553 0.00810696 0)
(1.05575 0.00797487 0)
(1.05594 0.00784961 0)
(1.05608 0.00773056 0)
(1.05618 0.0076172 0)
(1.05623 0.00750912 0)
(1.05625 0.00740603 0)
(1.05622 0.00730765 0)
(1.05615 0.00721391 0)
(1.05605 0.00712457 0)
(1.0559 0.00703994 0)
(1.05572 0.00695959 0)
(1.0555 0.00688456 0)
(1.05524 0.00681383 0)
(1.05495 0.00674981 0)
(1.05464 0.00669024 0)
(1.05429 0.00663961 0)
(1.05391 0.00659437 0)
(1.05351 0.00656028 0)
(1.05308 0.00653597 0)
(1.05263 0.00652149 0)
(1.05217 0.00653114 0)
(1.05168 0.00653938 0)
(1.05118 0.00660608 0)
(1.05066 0.00666377 0)
(1.05011 0.00685268 0)
(1.0496 0.0071695 0)
(1.00157 0.0165933 0)
(1.01979 0.0243574 0)
(1.03306 0.0192702 0)
(1.03735 0.0166162 0)
(1.03886 0.0157315 0)
(1.04063 0.0146113 0)
(1.04238 0.0134855 0)
(1.04375 0.0126656 0)
(1.04482 0.0120504 0)
(1.04576 0.0115261 0)
(1.04661 0.011066 0)
(1.04738 0.0106658 0)
(1.04808 0.010316 0)
(1.04873 0.0100061 0)
(1.04934 0.00972839 0)
(1.04991 0.00947739 0)
(1.05044 0.00924903 0)
(1.05094 0.00903997 0)
(1.05141 0.00884749 0)
(1.05185 0.00866937 0)
(1.05226 0.00850376 0)
(1.05265 0.00834913 0)
(1.05301 0.00820422 0)
(1.05335 0.00806796 0)
(1.05365 0.00793945 0)
(1.05394 0.00781794 0)
(1.05419 0.00770281 0)
(1.05442 0.00759354 0)
(1.05462 0.00748971 0)
(1.05479 0.00739099 0)
(1.05493 0.00729709 0)
(1.05505 0.00720793 0)
(1.05514 0.00712323 0)
(1.05521 0.00704328 0)
(1.05524 0.00696766 0)
(1.05526 0.00689729 0)
(1.05524 0.0068313 0)
(1.05521 0.00677175 0)
(1.05515 0.00671691 0)
(1.05507 0.00667033 0)
(1.05497 0.0066298 0)
(1.05485 0.00659919 0)
(1.05472 0.00657927 0)
(1.05457 0.00656812 0)
(1.0544 0.00658047 0)
(1.05423 0.00659465 0)
(1.05405 0.00665995 0)
(1.05386 0.00673255 0)
(1.05366 0.00691402 0)
(1.05353 0.00722746 0)
(1.00137 0.0151087 0)
(1.01788 0.0232206 0)
(1.03063 0.0188096 0)
(1.03508 0.0162184 0)
(1.03665 0.0154257 0)
(1.03837 0.0144277 0)
(1.04011 0.0133474 0)
(1.04148 0.0125392 0)
(1.04256 0.0119379 0)
(1.04348 0.0114276 0)
(1.04432 0.0109773 0)
(1.04507 0.0105838 0)
(1.04577 0.0102395 0)
(1.04641 0.00993423 0)
(1.047 0.00966041 0)
(1.04756 0.00941277 0)
(1.04808 0.00918736 0)
(1.04857 0.00898096 0)
(1.04903 0.00879094 0)
(1.04947 0.00861513 0)
(1.04989 0.00845175 0)
(1.05029 0.00829933 0)
(1.05066 0.00815663 0)
(1.05101 0.00802261 0)
(1.05135 0.00789639 0)
(1.05166 0.00777725 0)
(1.05196 0.00766456 0)
(1.05223 0.00755782 0)
(1.05249 0.00745659 0)
(1.05273 0.00736057 0)
(1.05295 0.00726943 0)
(1.05315 0.00718309 0)
(1.05333 0.00710128 0)
(1.0535 0.00702423 0)
(1.05365 0.00695156 0)
(1.05378 0.00688409 0)
(1.05389 0.00682108 0)
(1.05399 0.00676427 0)
(1.05408 0.00671242 0)
(1.05415 0.00666825 0)
(1.05421 0.00663063 0)
(1.05425 0.00660198 0)
(1.05429 0.00658447 0)
(1.05432 0.00657526 0)
(1.05434 0.00658826 0)
(1.05436 0.00660646 0)
(1.05438 0.00666894 0)
(1.0544 0.00675072 0)
(1.05443 0.00692293 0)
(1.05455 0.00722125 0)
(1.0012 0.0137307 0)
(1.01611 0.0220866 0)
(1.0283 0.0183497 0)
(1.0329 0.015828 0)
(1.03452 0.0151102 0)
(1.0362 0.0142338 0)
(1.03793 0.0132055 0)
(1.03931 0.0124105 0)
(1.04038 0.0118229 0)
(1.04129 0.011327 0)
(1.04212 0.010887 0)
(1.04286 0.0105007 0)
(1.04355 0.010162 0)
(1.04417 0.00986154 0)
(1.04476 0.00959177 0)
(1.0453 0.00934759 0)
(1.04581 0.00912516 0)
(1.04629 0.00892139 0)
(1.04675 0.00873373 0)
(1.04718 0.00856008 0)
(1.04759 0.00839871 0)
(1.04797 0.00824819 0)
(1.04834 0.00810731 0)
(1.0487 0.00797506 0)
(1.04903 0.00785059 0)
(1.04935 0.00773317 0)
(1.04966 0.00762222 0)
(1.04995 0.00751722 0)
(1.05022 0.00741774 0)
(1.05048 0.00732349 0)
(1.05073 0.00723414 0)
(1.05096 0.00714959 0)
(1.05118 0.00706958 0)
(1.05138 0.00699431 0)
(1.05158 0.00692345 0)
(1.05176 0.00685768 0)
(1.05193 0.00679645 0)
(1.0521 0.00674116 0)
(1.05225 0.006691 0)
(1.05239 0.00664802 0)
(1.05253 0.00661188 0)
(1.05266 0.00658402 0)
(1.05279 0.00656734 0)
(1.05291 0.00655887 0)
(1.05304 0.00657093 0)
(1.05316 0.00659127 0)
(1.05329 0.00664982 0)
(1.05344 0.00673565 0)
(1.05361 0.00689666 0)
(1.05387 0.00717182 0)
(1.00104 0.0124571 0)
(1.01447 0.0209597 0)
(1.02609 0.0178871 0)
(1.03081 0.015446 0)
(1.03249 0.0147871 0)
(1.03413 0.0140292 0)
(1.03584 0.0130594 0)
(1.03722 0.0122796 0)
(1.03829 0.0117052 0)
(1.0392 0.0112241 0)
(1.04001 0.0107951 0)
(1.04075 0.0104163 0)
(1.04142 0.0100835 0)
(1.04204 0.009788 0)
(1.04261 0.00952245 0)
(1.04314 0.00928184 0)
(1.04364 0.00906248 0)
(1.04411 0.00886141 0)
(1.04455 0.00867616 0)
(1.04497 0.00850468 0)
(1.04537 0.0083453 0)
(1.04575 0.00819661 0)
(1.04611 0.00805746 0)
(1.04646 0.00792684 0)
(1.04679 0.00780393 0)
(1.0471 0.00768802 0)
(1.0474 0.00757852 0)
(1.04769 0.00747494 0)
(1.04796 0.00737685 0)
(1.04822 0.00728395 0)
(1.04847 0.00719591 0)
(1.04871 0.00711265 0)
(1.04894 0.00703389 0)
(1.04916 0.00695981 0)
(1.04937 0.0068901 0)
(1.04957 0.00682537 0)
(1.04976 0.00676519 0)
(1.04995 0.00671068 0)
(1.05013 0.00666139 0)
(1.0503 0.00661883 0)
(1.05047 0.00658323 0)
(1.05064 0.00655537 0)
(1.05081 0.00653842 0)
(1.05098 0.00652979 0)
(1.05115 0.00653984 0)
(1.05133 0.0065607 0)
(1.05152 0.0066145 0)
(1.05173 0.00670011 0)
(1.05198 0.00684817 0)
(1.05233 0.00709509 0)
(1.0009 0.011285 0)
(1.01296 0.0198443 0)
(1.02399 0.0174186 0)
(1.02881 0.0150726 0)
(1.03056 0.0144582 0)
(1.03216 0.0138137 0)
(1.03384 0.0129084 0)
(1.03523 0.0121465 0)
(1.03629 0.0115849 0)
(1.03719 0.0111187 0)
(1.03799 0.0107015 0)
(1.03872 0.0103306 0)
(1.03939 0.0100039 0)
(1.03999 0.00971352 0)
(1.04055 0.00945235 0)
(1.04107 0.00921546 0)
(1.04156 0.00899929 0)
(1.04202 0.00880102 0)
(1.04246 0.00861824 0)
(1.04287 0.00844899 0)
(1.04326 0.00829164 0)
(1.04363 0.00814482 0)
(1.04398 0.0080074 0)
(1.04431 0.00787841 0)
(1.04463 0.00775703 0)
(1.04494 0.00764258 0)
(1.04523 0.00753447 0)
(1.04551 0.00743221 0)
(1.04578 0.00733538 0)
(1.04604 0.00724367 0)
(1.04628 0.00715678 0)
(1.04652 0.00707459 0)
(1.04674 0.00699684 0)
(1.04696 0.00692367 0)
(1.04717 0.00685483 0)
(1.04737 0.0067908 0)
(1.04757 0.00673128 0)
(1.04776 0.00667718 0)
(1.04795 0.00662831 0)
(1.04813 0.00658574 0)
(1.04831 0.0065501 0)
(1.04849 0.00652177 0)
(1.04867 0.00650387 0)
(1.04886 0.00649445 0)
(1.04905 0.00650184 0)
(1.04926 0.00652189 0)
(1.04947 0.0065704 0)
(1.04972 0.00665237 0)
(1.05 0.00678601 0)
(1.0504 0.00700187 0)
(1.00078 0.0102109 0)
(1.01157 0.0187449 0)
(1.02201 0.0169416 0)
(1.02689 0.014708 0)
(1.02871 0.0141258 0)
(1.03027 0.0135872 0)
(1.03193 0.0127518 0)
(1.03332 0.012011 0)
(1.03439 0.011462 0)
(1.03528 0.0110108 0)
(1.03607 0.0106059 0)
(1.03679 0.0102435 0)
(1.03744 0.00992308 0)
(1.03804 0.00963803 0)
(1.03859 0.00938141 0)
(1.0391 0.00914837 0)
(1.03958 0.00893552 0)
(1.04003 0.00874014 0)
(1.04046 0.00855993 0)
(1.04086 0.00839298 0)
(1.04124 0.00823772 0)
(1.0416 0.00809283 0)
(1.04194 0.00795719 0)
(1.04227 0.00782986 0)
(1.04258 0.00771005 0)
(1.04288 0.00759707 0)
(1.04316 0.00749034 0)
(1.04343 0.0073894 0)
(1.04369 0.00729381 0)
(1.04394 0.00720327 0)
(1.04418 0.00711747 0)
(1.04441 0.00703628 0)
(1.04463 0.00695946 0)
(1.04484 0.00688711 0)
(1.04505 0.006819 0)
(1.04524 0.00675554 0)
(1.04544 0.00669652 0)
(1.04562 0.00664265 0)
(1.04581 0.00659394 0)
(1.04599 0.00655118 0)
(1.04617 0.00651515 0)
(1.04636 0.00648611 0)
(1.04654 0.00646685 0)
(1.04673 0.0064562 0)
(1.04693 0.00646058 0)
(1.04714 0.00647873 0)
(1.04737 0.00652154 0)
(1.04763 0.00659725 0)
(1.04794 0.00671528 0)
(1.04835 0.00689889 0)
(1.00067 0.00923069 0)
(1.01031 0.0176658 0)
(1.02014 0.0164538 0)
(1.02506 0.014352 0)
(1.02695 0.0137919 0)
(1.02848 0.0133501 0)
(1.03011 0.0125891 0)
(1.0315 0.011873 0)
(1.03257 0.0113365 0)
(1.03345 0.0109003 0)
(1.03424 0.0105082 0)
(1.03495 0.0101548 0)
(1.03559 0.00984098 0)
(1.03618 0.00956144 0)
(1.03672 0.00930954 0)
(1.03723 0.00908051 0)
(1.0377 0.0088711 0)
(1.03814 0.00867871 0)
(1.03855 0.00850115 0)
(1.03894 0.00833659 0)
(1.03932 0.0081835 0)
(1.03967 0.00804059 0)
(1.04 0.00790679 0)
(1.04032 0.00778118 0)
(1.04062 0.00766297 0)
(1.04091 0.0075515 0)
(1.04119 0.0074462 0)
(1.04145 0.00734659 0)
(1.0417 0.00725226 0)
(1.04194 0.0071629 0)
(1.04218 0.00707819 0)
(1.0424 0.006998 0)
(1.04261 0.00692209 0)
(1.04282 0.00685052 0)
(1.04301 0.00678312 0)
(1.04321 0.00672017 0)
(1.04339 0.00666157 0)
(1.04358 0.00660786 0)
(1.04376 0.00655918 0)
(1.04394 0.00651612 0)
(1.04412 0.00647952 0)
(1.0443 0.00644962 0)
(1.04448 0.00642877 0)
(1.04467 0.00641655 0)
(1.04487 0.00641773 0)
(1.04508 0.00643308 0)
(1.04531 0.00646981 0)
(1.04558 0.00653728 0)
(1.04589 0.00663877 0)
(1.04631 0.00679007 0)
(1.00058 0.00833978 0)
(1.00917 0.0166114 0)
(1.01838 0.0159535 0)
(1.02331 0.0140039 0)
(1.02528 0.0134583 0)
(1.02678 0.0131029 0)
(1.02838 0.0124196 0)
(1.02976 0.0117323 0)
(1.03083 0.0112086 0)
(1.03171 0.010787 0)
(1.03249 0.0104084 0)
(1.03319 0.0100644 0)
(1.03383 0.0097575 0)
(1.03441 0.00948365 0)
(1.03495 0.00923664 0)
(1.03544 0.00901178 0)
(1.0359 0.00880594 0)
(1.03633 0.00861666 0)
(1.03674 0.00844185 0)
(1.03712 0.00827976 0)
(1.03749 0.00812891 0)
(1.03783 0.00798806 0)
(1.03816 0.00785615 0)
(1.03847 0.0077323 0)
(1.03876 0.00761575 0)
(1.03904 0.00750583 0)
(1.03931 0.007402 0)
(1.03957 0.00730376 0)
(1.03981 0.00721072 0)
(1.04005 0.00712256 0)
(1.04027 0.00703897 0)
(1.04049 0.0069598 0)
(1.04069 0.00688481 0)
(1.04089 0.00681403 0)
(1.04108 0.0067473 0)
(1.04127 0.00668486 0)
(1.04145 0.00662664 0)
(1.04163 0.00657307 0)
(1.0418 0.00652434 0)
(1.04198 0.00648093 0)
(1.04215 0.00644364 0)
(1.04233 0.00641275 0)
(1.04251 0.00639018 0)
(1.04269 0.00637609 0)
(1.04289 0.00637393 0)
(1.0431 0.00638571 0)
(1.04333 0.00641598 0)
(1.0436 0.00647373 0)
(1.04392 0.00655802 0)
(1.04434 0.00667767 0)
(1.0005 0.00753312 0)
(1.00814 0.0155859 0)
(1.01674 0.0154398 0)
(1.02164 0.0136627 0)
(1.0237 0.0131269 0)
(1.02517 0.0128464 0)
(1.02673 0.0122428 0)
(1.0281 0.0115886 0)
(1.02918 0.0110782 0)
(1.03006 0.0106709 0)
(1.03083 0.0103061 0)
(1.03152 0.00997219 0)
(1.03216 0.00967253 0)
(1.03273 0.00940457 0)
(1.03326 0.00916262 0)
(1.03374 0.0089421 0)