/*--------------------------------*- C++ -*----------------------------------*\
  =========                 |
  \\      /  F ield         | OpenFOAM: The Open Source CFD Toolbox
   \\    /   O peration     | Website:  https://openfoam.org
    \\  /    A nd           | Version:  7
     \\/     M anipulation  |
\*---------------------------------------------------------------------------*/
FoamFile
{
    version     2.0;
    format      ascii;
    class       volScalarField;
    location    "0.18";
    object      yPlus;
}
// * * * * * * * * * * * * * * * * * * * * * * * * * * * * * * * * * * * * * //

dimensions      [0 0 0 0 0 0 0];

internalField   uniform 0;

boundaryField
{
    velocityInlet
    {
        type            calculated;
        value           uniform 0;
    }
    pressureOutlet
    {
        type            calculated;
        value           uniform 0;
    }
    fixedWalls
    {
        type            calculated;
        value           nonuniform List<scalar> 
100
(
2.48296
1.01605
0.928444
0.994131
1.02311
1.01472
0.983808
0.949146
0.921745
0.90555
0.900414
0.904687
0.918965
0.949337
1.00199
1.06711
1.10767
1.06421
0.923929
0.852302
1.04153
1.29287
1.4481
1.57889
1.7395
1.80277
1.59762
0.836943
1.21348
1.77837
2.01626
2.01993
1.82164
1.43311
0.732753
0.996096
1.45452
1.59158
1.56523
1.58189
1.74317
1.91051
1.89377
1.51273
0.38392
1.37845
1.69614
1.66641
1.39155
0.915524
0.388107
0.917339
1.11366
1.18846
1.20094
1.18139
1.14667
1.10575
1.06324
1.02228
0.98656
0.960356
0.946621
0.944685
0.94945
0.952869
0.946948
0.926396
0.889472
0.836164
0.764199
0.667336
0.541303
0.397495
0.288621
0.309529
0.427742
0.549623
0.639391
0.688184
0.697829
0.677176
0.639961
0.601801
0.576749
0.573831
0.592754
0.623937
0.654911
0.677853
0.690829
0.695321
0.690798
0.675282
0.642794
0.59405
0.522115
0.448996
0.352571
0.338329
)
;
    }
    bottomWall
    {
        type            calculated;
        value           nonuniform List<scalar> 
800
(
2.94479
1.98389
1.61341
1.44027
1.35512
1.29649
1.24753
1.20642
1.17188
1.14232
1.11653
1.09372
1.07334
1.05497
1.0383
1.02308
1.00912
0.99623
0.984297
0.973204
0.962855
0.953173
0.944087
0.935542
0.927485
0.919873
0.912667
0.905834
0.899342
0.893165
0.887281
0.881667
0.876304
0.871177
0.866267
0.861561
0.857048
0.852715
0.84855
0.844545
0.84069
0.836978
0.8334
0.829949
0.826618
0.823403
0.820295
0.817293
0.814386
0.811577
0.80922
0.80727
0.80534
0.803434
0.801555
0.799698
0.797866
0.796056
0.794268
0.792503
0.790758
0.789035
0.787333
0.78565
0.783987
0.782344
0.78072
0.779114
0.777528
0.775959
0.774408
0.772874
0.771358
0.769858
0.768375
0.766908
0.765458
0.764022
0.762603
0.761199
0.75981
0.758435
0.757075
0.755729
0.754398
0.75308
0.751776
0.750485
0.749208
0.747944
0.746692
0.745453
0.744227
0.743013
0.74181
0.74062
0.739441
0.738274
0.737117
0.735973
0.734839
0.733716
0.732604
0.731502
0.73041
0.729329
0.728257
0.727196
0.726145
0.725102
0.72407
0.723046
0.722031
0.721026
0.720029
0.719042
0.718062
0.717092
0.716129
0.715176
0.714229
0.713291
0.712362
0.711439
0.710525
0.709617
0.708717
0.707825
0.70694
0.706061
0.70519
0.704325
0.703468
0.702617
0.701773
0.700934
0.700103
0.699278
0.698459
0.697646
0.696839
0.696038
0.695243
0.694453
0.69367
0.692892
0.692119
0.691352
0.69059
0.689833
0.689197
0.688678
0.688157
0.687634
0.68711
0.686586
0.68606
0.685532
0.685004
0.684474
0.683943
0.683411
0.682878
0.682343
0.681808
0.681271
0.680733
0.680194
0.679653
0.679112
0.678569
0.678025
0.67748
0.676933
0.676385
0.675836
0.675287
0.674735
0.674183
0.673629
0.673074
0.672516
0.671959
0.6714
0.67084
0.670278
0.669716
0.669152
0.668586
0.668019
0.667451
0.666882
0.666311
0.665738
0.665165
0.66459
0.664014
0.663437
0.662858
0.662278
0.661696
0.661113
0.660528
0.659942
0.659355
0.658766
0.658176
0.657583
0.656991
0.656396
0.655799
0.655202
0.654603
0.654002
0.653399
0.652796
0.65219
0.651583
0.650975
0.650364
0.649752
0.64914
0.648524
0.647908
0.647289
0.646669
0.646048
0.645423
0.644798
0.64417
0.643541
0.642908
0.642275
0.641637
0.641002
0.640355
0.639722
0.63906
0.638435
0.637746
0.637146
0.636408
0.635861
0.635029
0.634594
0.633594
0.633356
0.632096
0.632147
0.630541
2.9448
1.98394
1.61353
1.4405
1.35545
1.2969
1.24803
1.20698
1.1725
1.14298
1.11722
1.09442
1.07404
1.05566
1.03897
1.02373
1.00974
0.996829
0.984874
0.973765
0.963409
0.953727
0.944654
0.936131
0.928109
0.920545
0.913398
0.906636
0.900229
0.894146
0.888366
0.882864
0.877623
0.872619
0.86784
0.863267
0.858884
0.854683
0.850628
0.846762
0.842948
0.839423
0.835693
0.832623
0.828629
0.826406
0.821378
0.820683
0.815452
0.782312
0.366821
0.603418
0.764117
0.908239
1.06414
1.23068
1.3895
1.53195
1.659
1.77662
1.89062
2.00388
2.11407
2.2134
2.28922
2.32666
2.3117
2.23453
2.0819
1.83684
1.46835
0.916608
1.10661
1.70757
2.17161
2.55542
2.88445
3.16974
3.41778
3.63355
3.82085
3.98272
4.1216
4.23952
4.3382
4.41906
4.48322
4.53178
4.56534
4.58463
4.59027
4.58156
4.55931
4.52398
4.4758
4.41515
4.34252
4.25844
4.16341
4.05806
3.94314
3.81956
3.68844
3.55099
3.4086
3.26269
3.11466
2.96587
2.81774
2.67169
2.52868
2.38875
2.25114
2.11506
1.98039
1.84804
1.71984
1.59832
1.48623
1.38617
1.30027
1.23046
1.17854
1.14612
1.13437
1.14198
1.16508
1.19884
1.23792
1.27817
1.31764
1.35685
1.39787
1.44284
1.49268
1.54716
1.60522
1.66274
1.71724
1.76703
1.81115
1.84899
1.88021
1.90478
1.92294
1.93558
1.94177
1.94181
1.93659
1.92775
1.9175
1.90799
1.90089
1.89495
1.88716
1.87393
1.85312
1.82707
1.80495
1.79746
1.81033
1.84583
1.90596
1.9945
2.10319
2.21777
2.32575
2.41876
2.48903
2.52028
2.48865
2.38393
2.2231
2.01997
1.79427
1.56674
1.36296
1.2417
1.26681
1.39831
1.55927
1.71671
1.85818
1.98175
2.08824
2.17902
2.25548
2.31881
2.37009
2.41022
2.43999
2.46009
2.47108
2.47346
2.46759
2.45388
2.43254
2.40371
2.36749
2.32386
2.27273
2.21394
2.14722
2.07221
1.98843
1.89519
1.79654
1.68828
1.56844
1.43632
1.29448
1.15698
1.06613
1.0819
1.19755
1.3521
1.50987
1.65967
1.80179
1.93722
2.06182
2.1759
2.27959
2.37295
2.45603
2.52883
2.59134
2.64353
2.68538
2.7169
2.73812
2.74927
2.75006
2.74061
2.72122
2.69205
2.65492
2.60761
2.55016
2.48262
2.40507
2.31787
2.22267
2.11815
2.00534
1.8883
1.7796
1.71586
1.79654
2.15137
0.324659
0.643292
0.862555
1.0708
1.2724
1.47212
1.67273
1.86752
2.04624
2.19802
2.31291
2.38881
2.43208
2.44643
2.42502
2.34541
2.19209
1.98496
1.75492
1.51679
1.26618
0.978743
0.754745
0.784119
0.897102
0.971448
0.778827
1.00382
1.742
2.21679
2.43652
2.59925
2.77827
2.84987
2.64526
2.04019
0.979097
1.78566
2.85555
3.62331
4.184
4.62048
4.99972
5.34025
5.64142
5.89464
6.09357
6.23486
6.32069
6.35674
6.34914
6.30721
6.23953
6.15123
6.04683
5.92955
5.801
5.6617
5.51079
5.34574
5.16318
4.95834
4.72393
4.45075
4.12609
3.7299
3.23055
2.57107
1.67498
1.85937
2.87398
3.69026
4.38104
4.97634
5.48727
5.9178
6.26823
6.53823
6.72824
6.83753
6.87024
6.83624
6.7351
6.56864
6.34978
6.09372
5.78226
5.36679
4.85201
4.33661
3.87154
3.41006
2.89633
2.34627
1.7869
1.24588
0.943952
0.849263
0.349285
0.517268
0.584444
0.337529
1.2398
1.85951
2.49148
2.97026
3.08077
2.70623
1.88847
1.57706
2.61177
3.3077
3.75115
4.01616
4.10229
4.0138
3.68391
2.91319
1.86081
1.44635
1.28374
1.11451
1.10368
2.43489
3.30971
3.74271
3.89139
3.89452
3.81019
3.70944
3.62866
3.58382
3.57154
3.57244
3.55415
3.48295
3.32844
3.06191
2.65023
2.0351
1.38008
1.13825
1.60642
2.25851
2.82873
2.93836
2.17629
2.40761
4.13307
4.77803
4.97715
5.1869
5.41025
5.48399
5.55521
5.59483
5.59931
5.60332
5.58894
5.56984
5.54503
5.51361
5.47908
5.4401
5.39821
5.35434
5.30915
5.26413
5.22026
5.17863
5.14017
5.10553
5.07519
5.04946
5.02902
5.01334
5.00222
4.99548
4.99294
4.99433
4.9993
5.00783
5.01996
5.03576
5.05526
5.07851
5.10553
5.13632
5.17089
5.20922
5.25128
5.29708
5.34662
5.3999
5.45698
5.51789
5.5826
5.65109
5.72329
5.79914
5.87864
5.96178
6.04862
6.13923
6.23368
6.33193
6.4339
6.5394
6.64816
6.75984
6.87398
6.99008
7.10756
7.2258
7.34423
7.46223
7.57925
7.69473
7.80815
7.91903
8.02697
8.13159
8.23258
8.32967
8.42259
8.51113
8.59506
8.67423
8.74846
8.8176
8.88152
8.94008
8.99318
9.04072
9.08263
9.11882
9.14925
9.17387
9.19383
9.21012
9.22089
9.22616
9.22584
9.22016
9.20967
9.19397
9.17333
9.14774
9.11726
9.08198
9.04193
8.99722
8.94792
8.89412
8.83592
8.77343
8.70676
8.63602
8.56133
8.48278
8.40047
8.31447
8.22483
8.13158
8.03473
7.93423
7.83004
7.72205
7.61013
7.49412
7.37383
7.24901
7.1194
6.98471
6.84461
6.69875
6.54676
6.38823
6.22279
6.05008
5.86993
5.68231
5.48731
5.30501
5.14917
4.99642
4.84931
4.7134
4.6001
4.52806
4.51955
4.59076
4.74001
4.96196
5.23814
5.55181
5.91791
6.28991
6.83019
7.06168
)
;
    }
    frontAndBack
    {
        type            empty;
    }
}


// ************************************************************************* //
