/*--------------------------------*- C++ -*----------------------------------*\
  =========                 |
  \\      /  F ield         | OpenFOAM: The Open Source CFD Toolbox
   \\    /   O peration     | Website:  https://openfoam.org
    \\  /    A nd           | Version:  7
     \\/     M anipulation  |
\*---------------------------------------------------------------------------*/
FoamFile
{
    version     2.0;
    format      ascii;
    class       surfaceScalarField;
    location    "0.33";
    object      ddtCorrDdt0(phi);
}
// * * * * * * * * * * * * * * * * * * * * * * * * * * * * * * * * * * * * * //

dimensions      [0 3 -2 0 0 0 0];

internalField   nonuniform List<scalar> 
139350
(
-1.66573e-10
1.66953e-10
-5.76741e-10
4.10409e-10
-1.2513e-09
6.75275e-10
-2.09919e-09
8.48158e-10
-3.03493e-09
9.35988e-10
-3.9992e-09
9.64573e-10
-4.94874e-09
9.49761e-10
-5.86854e-09
9.20258e-10
-6.76463e-09
8.96262e-10
-7.64914e-09
8.85148e-10
-8.53686e-09
8.87812e-10
-9.44145e-09
9.05185e-10
-1.03761e-08
9.34782e-10
-1.13486e-08
9.72937e-10
-1.2363e-08
1.01483e-09
-1.34219e-08
1.05878e-09
-1.45265e-08
1.10516e-09
-1.5677e-08
1.1498e-09
-1.68696e-08
1.19306e-09
-1.81026e-08
1.23192e-09
-1.93677e-08
1.26536e-09
-2.06591e-08
1.2907e-09
-2.19651e-08
1.30634e-09
-2.32768e-08
1.31099e-09
-2.45804e-08
1.30436e-09
-2.58636e-08
1.28198e-09
-2.7107e-08
1.2444e-09
-2.82943e-08
1.18591e-09
-2.93982e-08
1.10466e-09
-3.03925e-08
9.93764e-10
-3.12433e-08
8.51563e-10
-3.19031e-08
6.5965e-10
-3.23322e-08
4.3021e-10
-3.24489e-08
1.16082e-10
-3.22242e-08
-2.23516e-10
-3.15047e-08
-7.20441e-10
-3.03249e-08
-1.17907e-09
-2.83924e-08
-1.93315e-09
-2.59359e-08
-2.45628e-09
-2.24277e-08
-3.50892e-09
-1.85022e-08
-3.92544e-09
-1.33822e-08
-5.12204e-09
-8.42196e-09
-4.96024e-09
-2.82167e-09
-5.6049e-09
4.00244e-10
-3.22242e-09
2.2188e-09
-1.82411e-09
-7.1897e-09
9.40873e-09
-2.41713e-08
1.69789e-08
-7.30762e-08
4.89088e-08
9.97212e-08
-1.72795e-07
-2.29846e-10
3.9726e-10
-1.16196e-09
1.34278e-09
-2.97831e-09
2.49237e-09
-5.41677e-09
3.28691e-09
-8.15099e-09
3.67047e-09
-1.09776e-08
3.79153e-09
-1.37683e-08
3.74073e-09
-1.64704e-08
3.62283e-09
-1.90965e-08
3.52251e-09
-2.16892e-08
3.47859e-09
-2.42991e-08
3.49777e-09
-2.69724e-08
3.57914e-09
-2.97494e-08
3.71203e-09
-3.26592e-08
3.88307e-09
-3.57207e-08
4.0768e-09
-3.8947e-08
4.285e-09
-4.23473e-08
4.50605e-09
-4.59245e-08
4.72617e-09
-4.9673e-08
4.94206e-09
-5.35859e-08
5.14377e-09
-5.76474e-08
5.3271e-09
-6.18421e-08
5.48464e-09
-6.61485e-08
5.6131e-09
-7.05483e-08
5.70999e-09
-7.50184e-08
5.77532e-09
-7.95354e-08
5.7976e-09
-8.40668e-08
5.77683e-09
-8.85787e-08
5.69647e-09
-9.30206e-08
5.54731e-09
-9.73356e-08
5.30826e-09
-1.01448e-07
4.96526e-09
-1.05255e-07
4.46593e-09
-1.08642e-07
3.81843e-09
-1.11433e-07
2.90663e-09
-1.13479e-07
1.82348e-09
-1.14466e-07
2.66023e-10
-1.14249e-07
-1.39561e-09
-1.12261e-07
-3.92203e-09
-1.08539e-07
-6.17819e-09
-1.01997e-07
-1.0052e-08
-9.33697e-08
-1.25522e-08
-8.04971e-08
-1.7997e-08
-6.6139e-08
-1.93183e-08
-4.61673e-08
-2.55817e-08
-2.80173e-08
-2.1373e-08
-6.79046e-09
-2.30569e-08
6.57926e-09
-3.96063e-09
-1.17943e-08
3.53497e-08
-3.31612e-08
7.02802e-08
4.14879e-07
-3.48317e-07
-1.29204e-10
5.26989e-10
-1.06876e-09
2.28262e-09
-3.34283e-09
4.76721e-09
-6.81794e-09
6.76232e-09
-1.09829e-08
7.83574e-09
-1.54203e-08
8.22925e-09
-1.98686e-08
8.18927e-09
-2.41994e-08
7.95419e-09
-2.83995e-08
7.72279e-09
-3.2524e-08
7.60382e-09
-3.66539e-08
7.62776e-09
-4.08688e-08
7.79476e-09
-4.52393e-08
8.08276e-09
-4.98207e-08
8.46487e-09
-5.46549e-08
8.91145e-09
-5.97734e-08
9.4034e-09
-6.51989e-08
9.93216e-09
-7.09428e-08
1.04692e-08
-7.7002e-08
1.10018e-08
-8.33681e-08
1.15087e-08
-9.00207e-08
1.198e-08
-9.694e-08
1.24032e-08
-1.04101e-07
1.27741e-08
-1.11482e-07
1.30908e-08
-1.19062e-07
1.33556e-08
-1.26816e-07
1.3551e-08
-1.34716e-07
1.3677e-08
-1.42726e-07
1.37054e-08
-1.50795e-07
1.36171e-08
-1.58861e-07
1.33735e-08
-1.66835e-07
1.29411e-08
-1.74599e-07
1.2229e-08
-1.82001e-07
1.12216e-08
-1.88831e-07
9.73652e-09
-1.94856e-07
7.84947e-09
-1.99708e-07
5.11725e-09
-2.03069e-07
1.96628e-09
-2.04282e-07
-2.70968e-09
-2.03109e-07
-7.35141e-09
-1.9821e-07
-1.49521e-08
-1.90122e-07
-2.06397e-08
-1.75764e-07
-3.23574e-08
-1.58478e-07
-3.66044e-08
-1.31636e-07
-5.24292e-08
-1.04245e-07
-4.87646e-08
-7.05353e-08
-5.6773e-08
-3.25414e-08
-4.19541e-08
-4.47746e-08
4.75804e-08
-3.15066e-08
5.7017e-08
7.49426e-07
-3.66051e-07
-3.50614e-11
5.62623e-10
-6.58944e-10
2.9068e-09
-2.64083e-09
6.74987e-09
-6.24359e-09
1.03654e-08
-1.10822e-08
1.26746e-08
-1.66035e-08
1.37509e-08
-2.23598e-08
1.39458e-08
-2.80764e-08
1.36714e-08
-3.36517e-08
1.32983e-08
-3.91069e-08
1.30598e-08
-4.45259e-08
1.30468e-08
-5.00083e-08
1.32778e-08
-5.565e-08
1.37247e-08
-6.15329e-08
1.43482e-08
-6.77258e-08
1.51049e-08
-7.42857e-08
1.59631e-08
-8.12563e-08
1.69034e-08
-8.86656e-08
1.78776e-08
-9.65205e-08
1.88572e-08
-1.04816e-07
1.98033e-08
-1.13532e-07
2.06963e-08
-1.22647e-07
2.15165e-08
-1.32131e-07
2.22593e-08
-1.41966e-07
2.29248e-08
-1.5213e-07
2.35199e-08
-1.62604e-07
2.40242e-08
-1.73365e-07
2.44388e-08
-1.84387e-07
2.47263e-08
-1.95627e-07
2.48575e-08
-2.07031e-07
2.47765e-08
-2.18515e-07
2.44267e-08
-2.29967e-07
2.36804e-08
-2.41228e-07
2.24837e-08
-2.52091e-07
2.05987e-08
-2.62283e-07
1.80436e-08
-2.71441e-07
1.42734e-08
-2.79151e-07
9.67766e-09
-2.84745e-07
2.88385e-09
-2.87827e-07
-4.26999e-09
-2.86951e-07
-1.58282e-08
-2.82494e-07
-2.50968e-08
-2.71001e-07
-4.38534e-08
-2.55605e-07
-5.2001e-08
-2.29495e-07
-7.85449e-08
-1.99257e-07
-7.90024e-08
-1.64326e-07
-9.17103e-08
-1.12918e-07
-9.33618e-08
-1.17496e-07
5.21557e-08
-1.07213e-07
4.67394e-08
9.79341e-07
-3.37126e-07
-1.41106e-11
5.7734e-10
-3.10693e-10
3.20369e-09
-1.61732e-09
8.0573e-09
-4.54807e-09
1.32965e-08
-9.10835e-09
1.72352e-08
-1.48781e-08
1.9521e-08
-2.13275e-08
2.03955e-08
-2.80171e-08
2.03616e-08
-3.46919e-08
1.99733e-08
-4.12705e-08
1.96393e-08
-4.77868e-08
1.95632e-08
-5.43245e-08
1.98163e-08
-6.09833e-08
2.03837e-08
-6.78587e-08
2.12241e-08
-7.50405e-08
2.22871e-08
-8.26106e-08
2.35331e-08
-9.06394e-08
2.49329e-08
-9.918e-08
2.64173e-08
-1.0826e-07
2.79372e-08
-1.17887e-07
2.94293e-08
-1.28047e-07
3.08568e-08
-1.3872e-07
3.21889e-08
-1.49877e-07
3.34169e-08
-1.61497e-07
3.45431e-08
-1.73556e-07
3.55798e-08
-1.8604e-07
3.65068e-08
-1.98928e-07
3.73282e-08
-2.12203e-07
3.80002e-08
-2.2583e-07
3.8485e-08
-2.39765e-07
3.87111e-08
-2.53935e-07
3.85974e-08
-2.6824e-07
3.79849e-08
-2.82524e-07
3.67695e-08
-2.966e-07
3.46734e-08
-3.10179e-07
3.16241e-08
-3.22924e-07
2.70177e-08
-3.34377e-07
2.11313e-08
-3.43905e-07
1.2411e-08
-3.5101e-07
2.83479e-09
-3.54306e-07
-1.25326e-08
-3.53904e-07
-2.54986e-08
-3.46686e-07
-5.10749e-08
-3.3457e-07
-6.41165e-08
-3.12987e-07
-1.00134e-07
-2.8319e-07
-1.08799e-07
-2.52658e-07
-1.22249e-07
-2.00058e-07
-1.45961e-07
-1.93488e-07
4.55828e-08
-2.10917e-07
6.41745e-08
1.10216e-06
-3.33729e-07
-3.75668e-11
6.1554e-10
-1.62418e-10
3.32885e-09
-8.41379e-10
8.73707e-09
-2.78202e-09
1.52375e-08
-6.37224e-09
2.08257e-08
-1.15268e-08
2.4676e-08
-1.78492e-08
2.67181e-08
-2.48526e-08
2.73655e-08
-3.21472e-08
2.72681e-08
-3.95137e-08
2.70066e-08
-4.68831e-08
2.69327e-08
-5.42763e-08
2.72102e-08
-6.1758e-08
2.78657e-08
-6.94085e-08
2.8875e-08
-7.73161e-08
3.01953e-08
-8.5574e-08
3.17908e-08
-9.42729e-08
3.36325e-08
-1.03494e-07
3.56375e-08
-1.13293e-07
3.7737e-08
-1.23705e-07
3.98395e-08
-1.34731e-07
4.18833e-08
-1.46362e-07
4.38185e-08
-1.5857e-07
4.5626e-08
-1.71334e-07
4.73056e-08
-1.84627e-07
4.88737e-08
-1.98433e-07
5.03112e-08
-2.1273e-07
5.16265e-08
-2.27504e-07
5.27725e-08
-2.42722e-07
5.37043e-08
-2.5835e-07
5.43379e-08
-2.74318e-07
5.45664e-08
-2.9054e-07
5.42073e-08
-3.06865e-07
5.30959e-08
-3.23124e-07
5.09318e-08
-3.39023e-07
4.7524e-08
-3.54257e-07
4.2251e-08
-3.68338e-07
3.52126e-08
-3.80696e-07
2.4768e-08
-3.90729e-07
1.28688e-08
-3.97255e-07
-6.00776e-09
-3.99939e-07
-2.2815e-08
-3.9656e-07
-5.44565e-08
-3.87154e-07
-7.35229e-08
-3.70432e-07
-1.16863e-07
-3.42446e-07
-1.36786e-07
-3.15729e-07
-1.48973e-07
-2.70145e-07
-1.91544e-07
-2.50604e-07
2.60394e-08
-2.90499e-07
1.04076e-07
1.16088e-06
-3.49218e-07
-6.04401e-11
6.76633e-10
-1.5509e-10
3.42382e-09
-4.68241e-10
9.05104e-09
-1.56843e-09
1.6338e-08
-4.02042e-09
2.3278e-08
-8.06323e-09
2.87192e-08
-1.35663e-08
3.22215e-08
-2.01565e-08
3.39563e-08
-2.74205e-08
3.45323e-08
-3.5045e-08
3.46319e-08
-4.28571e-08
3.47449e-08
-5.07905e-08
3.51443e-08
-5.8845e-08
3.59204e-08
-6.7053e-08
3.70834e-08
-7.54703e-08
3.86131e-08
-8.41727e-08
4.04931e-08
-9.32506e-08
4.27111e-08
-1.02802e-07
4.51877e-08
-1.1291e-07
4.78459e-08
-1.23643e-07
5.05706e-08
-1.35031e-07
5.32716e-08
-1.47085e-07
5.58718e-08
-1.59791e-07
5.83322e-08
-1.73128e-07
6.06418e-08
-1.87068e-07
6.2815e-08
-2.01591e-07
6.48327e-08
-2.1667e-07
6.67062e-08
-2.32286e-07
6.83875e-08
-2.48407e-07
6.98255e-08
-2.64997e-07
7.09274e-08
-2.81989e-07
7.15597e-08
-2.99307e-07
7.15248e-08
-3.16799e-07
7.05898e-08
-3.34316e-07
6.84479e-08
-3.51558e-07
6.47674e-08
-3.68255e-07
5.89462e-08
-3.83893e-07
5.08515e-08
-3.97979e-07
3.88529e-08
-4.09798e-07
2.46882e-08
-4.1844e-07
2.63361e-09
-4.23056e-07
-1.81991e-08
-4.22453e-07
-5.50633e-08
-4.1494e-07
-8.10354e-08
-4.01739e-07
-1.3007e-07
-3.76363e-07
-1.62163e-07
-3.51041e-07
-1.74301e-07
-3.14659e-07
-2.27925e-07
-2.85448e-07
-3.17417e-09
-3.29449e-07
1.48083e-07
1.18294e-06
-3.51506e-07
-6.57915e-11
7.43094e-10
-1.91687e-10
3.55004e-09
-3.80883e-10
9.24107e-09
-9.87908e-10
1.69454e-08
-2.55426e-09
2.48447e-08
-5.48523e-09
3.16506e-08
-9.89098e-09
3.66276e-08
-1.55881e-08
3.96541e-08
-2.22489e-08
4.11932e-08
-2.9556e-08
4.19399e-08
-3.72856e-08
4.24747e-08
-4.53073e-08
4.31667e-08
-5.35584e-08
4.41718e-08
-6.20134e-08
4.55388e-08
-7.0675e-08
4.72753e-08
-7.95748e-08
4.93927e-08
-8.87736e-08
5.19105e-08
-9.83616e-08
5.47746e-08
-1.08436e-07
5.79206e-08
-1.19092e-07
6.12257e-08
-1.30397e-07
6.4577e-08
-1.42394e-07
6.78672e-08
-1.55089e-07
7.10279e-08
-1.68475e-07
7.40266e-08
-1.82525e-07
7.68662e-08
-1.97216e-07
7.95221e-08
-2.12513e-07
8.20046e-08
-2.28393e-07
8.42655e-08
-2.44814e-07
8.62471e-08
-2.61738e-07
8.78514e-08
-2.79095e-07
8.89178e-08
-2.96813e-07
8.9242e-08
-3.1474e-07
8.85184e-08
-3.32741e-07
8.64476e-08
-3.50518e-07
8.25456e-08
-3.67828e-07
7.62556e-08
-3.84153e-07
6.71772e-08
-3.99067e-07
5.37657e-08
-4.11775e-07
3.73963e-08
-4.21605e-07
1.24627e-08
-4.27336e-07
-1.24679e-08
-4.28491e-07
-5.39114e-08
-4.2246e-07
-8.70663e-08
-4.11428e-07
-1.41108e-07
-3.89029e-07
-1.84563e-07
-3.64086e-07
-1.99251e-07
-3.35203e-07
-2.56807e-07
-3.01096e-07
-3.72837e-08
-3.35567e-07
1.8256e-07
1.17434e-06
-3.26967e-07
-5.99274e-11
8.03704e-10
-2.1426e-10
3.7047e-09
-4.06024e-10
9.43367e-09
-8.28951e-10
1.73687e-08
-1.90001e-09
2.5916e-08
-4.04227e-09
3.37933e-08
-7.48957e-09
4.00751e-08
-1.22142e-08
4.43794e-08
-1.80093e-08
4.69886e-08
-2.46176e-08
4.8549e-08
-3.1827e-08
4.96842e-08
-3.94909e-08
5.08313e-08
-4.7517e-08
5.21982e-08
-5.58407e-08
5.3863e-08
-6.44168e-08
5.58519e-08
-7.3224e-08
5.81997e-08
-8.22741e-08
6.09613e-08
-9.16245e-08
6.4124e-08
-1.01362e-07
6.76588e-08
-1.11597e-07
7.14591e-08
-1.22425e-07
7.54051e-08
-1.33924e-07
7.93655e-08
-1.46135e-07
8.3239e-08
-1.5907e-07
8.6961e-08
-1.72714e-07
9.05114e-08
-1.87045e-07
9.38513e-08
-2.02023e-07
9.69835e-08
-2.17616e-07
9.98569e-08
-2.33774e-07
1.02406e-07
-2.50454e-07
1.0453e-07
-2.67576e-07
1.06041e-07
-2.85069e-07
1.06734e-07
-3.02781e-07
1.06232e-07
-3.20586e-07
1.04252e-07
-3.38198e-07
1.00159e-07
-3.55394e-07
9.34509e-08
-3.7168e-07
8.34632e-08
-3.86671e-07
6.8756e-08
-3.99577e-07
5.03025e-08
-4.09853e-07
2.27377e-08
-4.16174e-07
-6.14672e-09
-4.18352e-07
-5.17372e-08
-4.1363e-07
-9.17886e-08
-4.04116e-07
-1.50628e-07
-3.84682e-07
-2.03999e-07
-3.60568e-07
-2.23371e-07
-3.37003e-07
-2.80371e-07
-3.0118e-07
-7.31088e-08
-3.19397e-07
2.00783e-07
1.13563e-06
-2.80682e-07
-5.22037e-11
8.56601e-10
-2.17796e-10
3.87062e-09
-4.40253e-10
9.65696e-09
-8.43153e-10
1.77719e-08
-1.73431e-09
2.68075e-08
-3.47308e-09
3.55324e-08
-6.31119e-09
4.29135e-08
-1.02951e-08
4.83639e-08
-1.5302e-08
5.19957e-08
-2.1143e-08
5.43908e-08
-2.76485e-08
5.61898e-08
-3.46927e-08
5.78762e-08
-4.21893e-08
5.9695e-08
-5.00656e-08
6.17397e-08
-5.82524e-08
6.40393e-08
-6.66886e-08
6.66357e-08
-7.53366e-08
6.961e-08
-8.42079e-08
7.29942e-08
-9.33593e-08
7.68107e-08
-1.02894e-07
8.09925e-08
-1.12924e-07
8.54357e-08
-1.23559e-07
8.99996e-08
-1.34874e-07
9.45538e-08
-1.46911e-07
9.89968e-08
-1.59673e-07
1.03274e-07
-1.73147e-07
1.07324e-07
-1.87293e-07
1.1113e-07
-2.02073e-07
1.14636e-07
-2.17431e-07
1.17764e-07
-2.33312e-07
1.20411e-07
-2.49631e-07
1.22362e-07
-2.66312e-07
1.23414e-07
-2.83205e-07
1.23127e-07
-3.00184e-07
1.2123e-07
-3.16987e-07
1.16963e-07
-3.33398e-07
1.09861e-07
-3.48981e-07
9.90472e-08
-3.63365e-07
8.31386e-08
-3.75854e-07
6.2792e-08
-3.85933e-07
3.28155e-08
-3.92388e-07
3.08574e-10
-3.95082e-07
-4.90466e-08
-3.91467e-07
-9.5404e-08
-3.8333e-07
-1.58771e-07
-3.66728e-07
-2.20602e-07
-3.4427e-07
-2.45836e-07
-3.2471e-07
-2.99931e-07
-2.88785e-07
-1.09035e-07
-2.88397e-07
2.00402e-07
1.06833e-06
-2.21095e-07
-4.6902e-11
9.04206e-10
-2.12835e-10
4.03688e-09
-4.57362e-10
9.90233e-09
-8.91761e-10
1.82067e-08
-1.76897e-09
2.7685e-08
-3.38516e-09
3.7149e-08
-5.95703e-09
4.54856e-08
-9.5326e-09
5.19401e-08
-1.40217e-08
5.6485e-08
-1.92751e-08
5.96451e-08
-2.51576e-08
6.20724e-08
-3.1572e-08
6.42914e-08
-3.84546e-08
6.65779e-08
-4.5747e-08
6.90325e-08
-5.33802e-08
7.1673e-08
-6.12751e-08
7.45303e-08
-6.93587e-08
7.76942e-08
-7.75991e-08
8.12336e-08
-8.60142e-08
8.52262e-08
-9.46848e-08
8.96617e-08
-1.03723e-07
9.44739e-08
-1.13256e-07
9.9532e-08
-1.2339e-07
1.04688e-07
-1.34197e-07
1.09803e-07
-1.45707e-07
1.14785e-07
-1.57921e-07
1.19536e-07
-1.70805e-07
1.24015e-07
-1.8432e-07
1.2815e-07
-1.98404e-07
1.31849e-07
-2.12997e-07
1.35003e-07
-2.28007e-07
1.37373e-07
-2.4335e-07
1.38757e-07
-2.58881e-07
1.38659e-07
-2.74468e-07
1.36816e-07
-2.89879e-07
1.32375e-07
-3.04893e-07
1.24874e-07
-3.19161e-07
1.13315e-07
-3.323e-07
9.6277e-08
-3.43769e-07
7.42607e-08
-3.53053e-07
4.20988e-08
-3.59131e-07
6.38586e-09
-3.61906e-07
-4.62748e-08
-3.59073e-07
-9.82376e-08
-3.52226e-07
-1.65625e-07
-3.38298e-07
-2.34532e-07
-3.18068e-07
-2.66073e-07
-3.01698e-07
-3.163e-07
-2.66506e-07
-1.44228e-07
-2.47672e-07
1.81574e-07
9.74884e-07
-1.54216e-07
-4.38213e-11
9.48738e-10
-2.07594e-10
4.20097e-09
-4.62111e-10
1.01577e-08
-9.29992e-10
1.86749e-08
-1.85092e-09
2.86062e-08
-3.48484e-09
3.87833e-08
-6.01184e-09
4.80129e-08
-9.45674e-09
5.53856e-08
-1.37197e-08
6.07482e-08
-1.8656e-08
6.45822e-08
-2.41437e-08
6.75602e-08
-3.01018e-08
7.02502e-08
-3.64855e-08
7.29619e-08
-4.32545e-08
7.58019e-08
-5.0352e-08
7.8771e-08
-5.76973e-08
8.18755e-08
-6.51992e-08
8.51967e-08
-7.27939e-08
8.88272e-08
-8.04624e-08
9.28951e-08
-8.8256e-08
9.7454e-08
-9.62732e-08
1.02491e-07
-1.04647e-07
1.07904e-07
-1.13501e-07
1.13542e-07
-1.22937e-07
1.19238e-07
-1.33007e-07
1.24856e-07
-1.43732e-07
1.30259e-07
-1.55089e-07
1.35372e-07
-1.67041e-07
1.40101e-07
-1.79527e-07
1.44335e-07
-1.92481e-07
1.47956e-07
-2.05809e-07
1.50702e-07
-2.19419e-07
1.52367e-07
-2.33174e-07
1.52415e-07
-2.46929e-07
1.5057e-07
-2.60489e-07
1.45937e-07
-2.7362e-07
1.38004e-07
-2.8606e-07
1.25756e-07
-2.97422e-07
1.07638e-07
-3.07317e-07
8.41553e-08
-3.15269e-07
5.00495e-08
-3.20424e-07
1.15408e-08
-3.22818e-07
-4.38842e-08
-3.20335e-07
-1.00721e-07
-3.14503e-07
-1.71463e-07
-3.0295e-07
-2.46086e-07
-2.85097e-07
-2.83931e-07
-2.71101e-07
-3.30295e-07
-2.36911e-07
-1.7842e-07
-2.01223e-07
1.45892e-07
8.58634e-07
-8.49672e-08
-4.16292e-11
9.91083e-10
-2.04321e-10
4.36399e-09
-4.63502e-10
1.04177e-08
-9.57018e-10
1.91687e-08
-1.93028e-09
2.95797e-08
-3.63089e-09
4.04843e-08
-6.21782e-09
5.06001e-08
-9.69248e-09
5.88609e-08
-1.39351e-08
6.4991e-08
-1.87872e-08
6.94351e-08
-2.41211e-08
7.28942e-08
-2.98561e-08
7.5986e-08
-3.59533e-08
7.90594e-08
-4.23827e-08
8.22316e-08
-4.90976e-08
8.54865e-08
-5.60225e-08
8.88001e-08
-6.30592e-08
9.2234e-08
-7.01239e-08
9.58909e-08
-7.71691e-08
9.99406e-08
-8.42172e-08
1.04501e-07
-9.13466e-08
1.09621e-07
-9.86836e-08
1.1524e-07
-1.06361e-07
1.2122e-07
-1.14495e-07
1.27371e-07
-1.23159e-07
1.33521e-07
-1.32391e-07
1.3949e-07
-1.42179e-07
1.45161e-07
-1.52493e-07
1.50414e-07
-1.63273e-07
1.55115e-07
-1.7445e-07
1.59133e-07
-1.85933e-07
1.62187e-07
-1.97623e-07
1.64056e-07
-2.09391e-07
1.64184e-07
-2.21082e-07
1.6226e-07
-2.32532e-07
1.57388e-07
-2.43494e-07
1.48965e-07
-2.53783e-07
1.36046e-07
-2.63022e-07
1.16876e-07
-2.70937e-07
9.20709e-08
-2.77146e-07
5.62565e-08
-2.80907e-07
1.53014e-08
-2.82456e-07
-4.23387e-08
-2.79849e-07
-1.03329e-07
-2.74567e-07
-1.7675e-07
-2.64869e-07
-2.55786e-07
-2.49115e-07
-2.99692e-07
-2.36491e-07
-3.42919e-07
-2.02983e-07
-2.11929e-07
-1.52603e-07
9.55195e-08
7.23672e-07
-1.76347e-08
-3.95375e-11
1.03134e-09
-2.02517e-10
4.52728e-09
-4.65476e-10
1.06815e-08
-9.80381e-10
1.9684e-08
-2.00302e-09
3.06026e-08
-3.78015e-09
4.22618e-08
-6.46217e-09
5.32823e-08
-1.00369e-08
6.24362e-08
-1.43676e-08
6.93219e-08
-1.92799e-08
7.43483e-08
-2.46338e-08
7.82482e-08
-3.03401e-08
8.16929e-08
-3.63556e-08
8.50752e-08
-4.26509e-08
8.85273e-08
-4.91828e-08
9.2019e-08
-5.58785e-08
9.54956e-08
-6.26365e-08
9.89926e-08
-6.93617e-08
1.02615e-07
-7.59871e-08
1.06566e-07
-8.25114e-08
1.11024e-07
-8.89925e-08
1.16102e-07
-9.55442e-08
1.21791e-07
-1.02296e-07
1.27972e-07
-1.09373e-07
1.34447e-07
-1.16858e-07
1.41007e-07
-1.24801e-07
1.47431e-07
-1.33198e-07
1.53559e-07
-1.42026e-07
1.5924e-07
-1.51225e-07
1.64314e-07
-1.60727e-07
1.68635e-07
-1.70444e-07
1.71904e-07
-1.80269e-07
1.73881e-07
-1.90086e-07
1.74002e-07
-1.99729e-07
1.71902e-07
-2.0906e-07
1.6672e-07
-2.17826e-07
1.57729e-07
-2.25892e-07
1.44112e-07
-2.32911e-07
1.23894e-07
-2.38679e-07
9.78383e-08
-2.42937e-07
6.05135e-08
-2.45013e-07
1.73769e-08
-2.45349e-07
-4.20061e-08
-2.42193e-07
-1.06486e-07
-2.36928e-07
-1.82022e-07
-2.28396e-07
-2.6432e-07
-2.14126e-07
-3.13968e-07
-2.01722e-07
-3.55321e-07
-1.68064e-07
-2.45588e-07
-1.0566e-07
3.31222e-08
5.73841e-07
4.41771e-08
-3.73629e-11
1.06942e-09
-1.99526e-10
4.68975e-09
-4.68563e-10
1.09513e-08
-1.00429e-09
2.022e-08
-2.07462e-09
3.16732e-08
-3.92889e-09
4.41164e-08
-6.71425e-09
5.60679e-08
-1.04119e-08
6.61344e-08
-1.48744e-08
7.37846e-08
-1.99156e-08
7.93903e-08
-2.53848e-08
8.37175e-08
-3.11835e-08
8.74924e-08
-3.72613e-08
9.11532e-08
-4.35835e-08
9.48499e-08
-5.01044e-08
9.85403e-08
-5.67494e-08
1.0214e-07
-6.34142e-08
1.05658e-07
-6.99963e-08
1.09196e-07
-7.64157e-08
1.12986e-07
-8.26549e-08
1.17261e-07
-8.87545e-08
1.22201e-07
-9.48147e-08
1.2785e-07
-1.00959e-07
1.34116e-07
-1.07309e-07
1.40796e-07
-1.13952e-07
1.4765e-07
-1.20941e-07
1.54418e-07
-1.28277e-07
1.60896e-07
-1.35937e-07
1.66898e-07
-1.43865e-07
1.72242e-07
-1.51989e-07
1.76759e-07
-1.60223e-07
1.80139e-07
-1.68459e-07
1.82116e-07
-1.76585e-07
1.82129e-07
-1.8443e-07
1.79747e-07
-1.91875e-07
1.74165e-07
-1.98665e-07
1.64518e-07
-2.04694e-07
1.50142e-07
-2.09656e-07
1.28855e-07
-2.13372e-07
1.01555e-07
-2.1572e-07
6.28599e-08
-2.16062e-07
1.77186e-08
-2.15006e-07
-4.30665e-08
-2.11019e-07
-1.10475e-07
-2.05304e-07
-1.87744e-07
-1.97215e-07
-2.72412e-07
-1.83645e-07
-3.27544e-07
-1.70294e-07
-3.68672e-07
-1.35358e-07
-2.80524e-07
-6.32671e-08
-3.89619e-08
4.12751e-07
9.78304e-08
-3.5147e-11
1.10529e-09
-1.96091e-10
4.851e-09
-4.72455e-10
1.12285e-08
-1.02983e-09
2.07777e-08
-2.14847e-09
3.2792e-08
-4.0811e-09
4.60494e-08
-6.97233e-09
5.89593e-08
-1.07994e-08
6.99621e-08
-1.54081e-08
7.83934e-08
-2.06043e-08
8.45874e-08
-2.62303e-08
8.93435e-08
-3.21813e-08
9.34441e-08
-3.84007e-08
9.73728e-08
-4.48479e-08
1.01297e-07
-5.14719e-08
1.05165e-07
-5.81939e-08
1.08862e-07
-6.49053e-08
1.1237e-07
-7.14982e-08
1.15788e-07
-7.78851e-08
1.19373e-07
-8.4038e-08
1.23413e-07
-8.99869e-08
1.2815e-07
-9.58207e-08
1.33683e-07
-1.01654e-07
1.39949e-07
-1.07603e-07
1.46744e-07
-1.13752e-07
1.538e-07
-1.20154e-07
1.60818e-07
-1.26808e-07
1.67551e-07
-1.3369e-07
1.73779e-07
-1.40741e-07
1.79294e-07
-1.47888e-07
1.83904e-07
-1.55044e-07
1.87296e-07
-1.62095e-07
1.89167e-07
-1.68936e-07
1.88971e-07
-1.75394e-07
1.86204e-07
-1.81355e-07
1.80127e-07
-1.86574e-07
1.69736e-07
-1.90948e-07
1.54516e-07
-1.94221e-07
1.32128e-07
-1.9621e-07
1.03543e-07
-1.96908e-07
6.35569e-08
-1.95704e-07
1.65136e-08
-1.93294e-07
-4.54804e-08
-1.88388e-07
-1.15382e-07
-1.81927e-07
-1.94211e-07
-1.73666e-07
-2.80675e-07
-1.60022e-07
-3.41194e-07
-1.44698e-07
-3.83995e-07
-1.07322e-07
-3.179e-07
-2.73481e-08
-1.18929e-07
2.4353e-07
1.4188e-07
-3.29458e-11
1.13895e-09
-1.92682e-10
5.01101e-09
-4.76988e-10
1.15136e-08
-1.05704e-09
2.1358e-08
-2.22551e-09
3.39607e-08
-4.23915e-09
4.80633e-08
-7.23931e-09
6.19596e-08
-1.11995e-08
7.39228e-08
-1.59599e-08
8.3154e-08
-2.13206e-08
8.99489e-08
-2.71191e-08
9.51421e-08
-3.32472e-08
9.95728e-08
-3.96443e-08
1.0377e-07
-4.62655e-08
1.07919e-07
-5.30546e-08
1.11954e-07
-5.99276e-08
1.15735e-07
-6.67713e-08
1.19214e-07
-7.34736e-08
1.22489e-07
-7.99425e-08
1.25842e-07
-8.61449e-08
1.29614e-07
-9.2105e-08
1.3411e-07
-9.79054e-08
1.39482e-07
-1.03654e-07
1.45698e-07
-1.09462e-07
1.52551e-07
-1.15408e-07
1.59747e-07
-1.2154e-07
1.66948e-07
-1.27855e-07
1.73866e-07
-1.34323e-07
1.80245e-07
-1.40882e-07
1.85853e-07
-1.47453e-07
1.90475e-07
-1.53949e-07
1.93792e-07
-1.60253e-07
1.9547e-07
-1.66259e-07
1.94978e-07
-1.71793e-07
1.91738e-07
-1.76741e-07
1.85076e-07
-1.80872e-07
1.73866e-07
-1.84071e-07
1.57715e-07
-1.86134e-07
1.3419e-07
-1.8685e-07
1.04258e-07
-1.86307e-07
6.30117e-08
-1.83912e-07
1.4118e-08
-1.80374e-07
-4.90225e-08
-1.74643e-07
-1.21114e-07
-1.67343e-07
-2.01518e-07
-1.58488e-07
-2.89533e-07
-1.4415e-07
-3.55538e-07
-1.26087e-07
-4.02057e-07
-8.53204e-08
-3.58667e-07
1.19399e-09
-2.05436e-07
6.86275e-08
1.76104e-07
-3.07884e-11
1.17045e-09
-1.89346e-10
5.16984e-09
-4.82178e-10
1.18072e-08
-1.08592e-09
2.1962e-08
-2.30582e-09
3.51808e-08
-4.40371e-09
5.01615e-08
-7.51676e-09
6.50728e-08
-1.16141e-08
7.80207e-08
-1.65309e-08
8.80709e-08
-2.20613e-08
9.548e-08
-2.80392e-08
1.0112e-07
-3.43546e-08
1.05889e-07
-4.09447e-08
1.10361e-07
-4.77616e-08
1.14736e-07
-5.47448e-08
1.18938e-07
-6.18055e-08
1.22795e-07
-6.8826e-08
1.26235e-07
-7.56905e-08
1.29352e-07
-8.23051e-08
1.32457e-07
-8.8635e-08
1.35942e-07
-9.47031e-08
1.40178e-07
-1.0059e-07
1.45368e-07
-1.064e-07
1.51508e-07
-1.1224e-07
1.5839e-07
-1.18185e-07
1.65693e-07
-1.24277e-07
1.73039e-07
-1.30509e-07
1.80098e-07
-1.36844e-07
1.86579e-07
-1.43218e-07
1.92227e-07
-1.49548e-07
1.96804e-07
-1.55741e-07
1.99986e-07
-1.61678e-07
2.01406e-07
-1.6725e-07
2.00551e-07
-1.72287e-07
1.96773e-07
-1.76665e-07
1.89455e-07
-1.80172e-07
1.77372e-07
-1.82672e-07
1.60215e-07
-1.84006e-07
1.35522e-07
-1.83935e-07
1.04186e-07
-1.82601e-07
6.16758e-08
-1.79441e-07
1.0957e-08
-1.7511e-07
-5.33578e-08
-1.68776e-07
-1.27451e-07
-1.60717e-07
-2.09584e-07
-1.51059e-07
-2.99193e-07
-1.35626e-07
-3.70976e-07
-1.14383e-07
-4.233e-07
-6.96403e-08
-4.03409e-07
2.2435e-08
-2.97504e-07
-1.09933e-07
2.01003e-07
-2.86947e-11
1.19985e-09
-1.86128e-10
5.32752e-09
-4.88095e-10
1.21098e-08
-1.11659e-09
2.25907e-08
-2.38942e-09
3.64537e-08
-4.57485e-09
5.23471e-08
-7.80511e-09
6.83032e-08
-1.20443e-08
8.22603e-08
-1.71222e-08
9.31489e-08
-2.28274e-08
1.01186e-07
-2.89901e-08
1.07283e-07
-3.54988e-08
1.12398e-07
-4.22897e-08
1.17152e-07
-4.93125e-08
1.21759e-07
-5.65032e-08
1.26129e-07
-6.37685e-08
1.3006e-07
-7.09865e-08
1.33453e-07
-7.80385e-08
1.36403e-07
-8.48297e-08
1.39248e-07
-9.13259e-08
1.42437e-07
-9.75518e-08
1.46403e-07
-1.03589e-07
1.51404e-07
-1.09541e-07
1.5746e-07
-1.15514e-07
1.64361e-07
-1.21578e-07
1.71758e-07
-1.27772e-07
1.79231e-07
-1.34085e-07
1.86411e-07
-1.40476e-07
1.92968e-07
-1.46876e-07
1.98627e-07
-1.53198e-07
2.03125e-07
-1.59347e-07
2.06136e-07
-1.65201e-07
2.0726e-07
-1.70648e-07
2.05998e-07
-1.75518e-07
2.01643e-07
-1.79681e-07
1.93618e-07
-1.82941e-07
1.80631e-07
-1.85139e-07
1.62413e-07
-1.86156e-07
1.36538e-07
-1.85725e-07
1.03754e-07
-1.84016e-07
5.99656e-08
-1.80505e-07
7.44428e-09
-1.75737e-07
-5.813e-08
-1.69068e-07
-1.34122e-07
-1.60437e-07
-2.18221e-07
-1.49938e-07
-3.09695e-07
-1.3323e-07
-3.87689e-07
-1.08685e-07
-4.47844e-07
-5.97701e-08
-4.52323e-07
3.69646e-08
-3.94231e-07
-2.90618e-07
2.17657e-07
-2.66826e-11
1.22722e-09
-1.83068e-10
5.48412e-09
-4.94816e-10
1.24223e-08
-1.14915e-09
2.32452e-08
-2.47637e-09
3.7781e-08
-4.75261e-09
5.46236e-08
-8.10449e-09
7.16552e-08
-1.24903e-08
8.66466e-08
-1.77344e-08
9.83931e-08
-2.36198e-08
1.07072e-07
-2.99727e-08
1.13636e-07
-3.66803e-08
1.19106e-07
-4.36778e-08
1.24149e-07
-5.09133e-08
1.28995e-07
-5.83192e-08
1.33535e-07
-6.57979e-08
1.37538e-07
-7.32237e-08
1.40879e-07
-8.0475e-08
1.43653e-07
-8.74569e-08
1.4623e-07
-9.41373e-08
1.49116e-07
-1.00544e-07
1.5281e-07
-1.06762e-07
1.5762e-07
-1.12896e-07
1.63594e-07
-1.19053e-07
1.70516e-07
-1.25301e-07
1.78006e-07
-1.31675e-07
1.85604e-07
-1.38161e-07
1.92897e-07
-1.44716e-07
1.99522e-07
-1.51268e-07
2.05179e-07
-1.57728e-07
2.09584e-07
-1.63997e-07
2.12406e-07
-1.69954e-07
2.13215e-07
-1.75479e-07
2.11524e-07
-1.80411e-07
2.06574e-07
-1.84606e-07
1.97814e-07
-1.87887e-07
1.83911e-07
-1.90075e-07
1.64601e-07
-1.9108e-07
1.37541e-07
-1.90619e-07
1.03293e-07
-1.88865e-07
5.82091e-08
-1.85337e-07
3.91483e-09
-1.8045e-07
-6.30212e-08
-1.73704e-07
-1.40871e-07
-1.64728e-07
-2.27203e-07
-1.53462e-07
-3.20965e-07
-1.35472e-07
-4.05685e-07
-1.07781e-07
-4.75534e-07
-5.48526e-08
-5.05251e-07
4.5649e-08
-4.94726e-07
-4.71897e-07
2.26936e-07
-2.47725e-11
1.25266e-09
-1.80205e-10
5.63974e-09
-5.0242e-10
1.27451e-08
-1.18376e-09
2.39267e-08
-2.56675e-09
3.91641e-08
-4.93702e-09
5.6994e-08
-8.41497e-09
7.51332e-08
-1.29522e-08
9.11842e-08
-1.83678e-08
1.03809e-07
-2.44389e-08
1.13144e-07
-3.09877e-08
1.20185e-07
-3.78998e-08
1.26019e-07
-4.51098e-08
1.3136e-07
-5.25639e-08
1.36449e-07
-6.01912e-08
1.41163e-07
-6.78898e-08
1.45237e-07
-7.55298e-08
1.4852e-07
-8.29871e-08
1.51109e-07
-9.01672e-08
1.5341e-07
-9.70406e-08
1.55988e-07
-1.0364e-07
1.59408e-07
-1.10053e-07
1.64032e-07
-1.16389e-07
1.6993e-07
-1.22754e-07
1.7688e-07
-1.29217e-07
1.84469e-07
-1.35811e-07
1.92196e-07
-1.42518e-07
1.99605e-07
-1.49295e-07
2.06297e-07
-1.56067e-07
2.11951e-07
-1.62745e-07
2.16261e-07
-1.69228e-07
2.1889e-07
-1.75395e-07
2.19381e-07
-1.81122e-07
2.17252e-07
-1.86254e-07
2.11705e-07
-1.90638e-07
2.02198e-07
-1.94112e-07
1.87384e-07
-1.96483e-07
1.66972e-07
-1.97682e-07
1.38738e-07
-1.9742e-07
1.0303e-07
-1.95855e-07
5.66416e-08
-1.92558e-07
6.16397e-10
-1.87803e-07
-6.77803e-08
-1.81191e-07
-1.47486e-07
-1.72089e-07
-2.36311e-07
-1.60193e-07
-3.32865e-07
-1.41033e-07
-4.2485e-07
-1.10533e-07
-5.06033e-07
-5.40662e-08
-5.61717e-07
4.92114e-08
-5.97996e-07
-6.52257e-07
2.2958e-07
-2.29829e-11
1.2763e-09
-1.7758e-10
5.79449e-09
-5.10986e-10
1.30791e-08
-1.22052e-09
2.46364e-08
-2.6608e-09
4.06043e-08
-5.12811e-09
5.94614e-08
-8.73657e-09
7.87416e-08
-1.34302e-08
9.58782e-08
-1.90224e-08
1.09401e-07
-2.52848e-08
1.19407e-07
-3.20352e-08
1.26935e-07
-3.91577e-08
1.33142e-07
-4.6586e-08
1.38788e-07
-5.42646e-08
1.44128e-07
-6.21193e-08
1.49018e-07
-7.00435e-08
1.5316e-07
-7.79032e-08
1.56379e-07
-8.55718e-08
1.58777e-07
-9.29554e-08
1.60793e-07
-1.00028e-07
1.63059e-07
-1.06826e-07
1.66206e-07
-1.13442e-07
1.70647e-07
-1.19991e-07
1.76478e-07
-1.26578e-07
1.83465e-07
-1.33272e-07
1.91163e-07
-1.40105e-07
1.99027e-07
-1.47059e-07
2.06558e-07
-1.54088e-07
2.13324e-07
-1.61116e-07
2.1898e-07
-1.68055e-07
2.23199e-07
-1.74804e-07
2.25638e-07
-1.81241e-07
2.25818e-07
-1.8724e-07
2.23251e-07
-1.92653e-07
2.17116e-07
-1.97318e-07
2.06863e-07
-2.01089e-07
1.91154e-07
-2.03763e-07
1.69645e-07
-2.05285e-07
1.40258e-07
-2.05372e-07
1.03117e-07
-2.04155e-07
5.54219e-08
-2.01259e-07
-2.28113e-09
-1.96824e-07
-7.22199e-08
-1.90508e-07
-1.53805e-07
-1.81469e-07
-2.45357e-07
-1.69109e-07
-3.45229e-07
-1.48967e-07
-4.44997e-07
-1.16124e-07
-5.38876e-07
-5.68115e-08
-6.21028e-07
4.81431e-08
-7.02944e-07
-8.3009e-07
2.25984e-07
-2.1333e-11
1.29826e-09
-1.75233e-10
5.9485e-09
-5.20592e-10
1.3425e-08
-1.25958e-09
2.53754e-08
-2.759e-09
4.21037e-08
-5.32592e-09
6.20284e-08
-9.0693e-09
8.24849e-08
-1.39242e-08
1.00733e-07
-1.96984e-08
1.15175e-07
-2.61576e-08
1.25866e-07
-3.31154e-08
1.33893e-07
-4.04542e-08
1.40481e-07
-4.81068e-08
1.46441e-07
-5.60159e-08
1.52037e-07
-6.41039e-08
1.57106e-07
-7.22594e-08
1.61315e-07
-8.03442e-08
1.64464e-07
-8.82291e-08
1.6666e-07
-9.58211e-08
1.68385e-07
-1.03097e-07
1.70333e-07
-1.10099e-07
1.73207e-07
-1.16926e-07
1.77473e-07
-1.23694e-07
1.83245e-07
-1.30512e-07
1.90281e-07
-1.37448e-07
1.98099e-07
-1.44534e-07
2.06111e-07
-1.51749e-07
2.13773e-07
-1.59047e-07
2.2062e-07
-1.66353e-07
2.26286e-07
-1.73578e-07
2.30423e-07
-1.80621e-07
2.32681e-07
-1.87363e-07
2.32559e-07
-1.93677e-07
2.29565e-07
-1.99418e-07
2.22856e-07
-2.04422e-07
2.11867e-07
-2.08554e-07
1.95285e-07
-2.11607e-07
1.72698e-07
-2.13535e-07
1.42185e-07
-2.14072e-07
1.03652e-07
-2.13312e-07
5.46594e-08
-2.10935e-07
-4.66024e-09
-2.0696e-07
-7.6199e-08
-2.01066e-07
-1.59703e-07
-1.92255e-07
-2.54174e-07
-1.79616e-07
-3.57872e-07
-1.58737e-07
-4.65882e-07
-1.24099e-07
-5.73513e-07
-6.27793e-08
-6.82347e-07
4.26427e-08
-8.08359e-07
-1.00376e-06
2.16324e-07
-1.98384e-11
1.31869e-09
-1.73208e-10
6.10194e-09
-5.31313e-10
1.37836e-08
-1.30104e-09
2.61451e-08
-2.86125e-09
4.36637e-08
-5.53046e-09
6.46976e-08
-9.41314e-09
8.63675e-08
-1.44345e-08
1.05755e-07
-2.03957e-08
1.21136e-07
-2.70574e-08
1.32528e-07
-3.42285e-08
1.41064e-07
-4.17894e-08
1.48042e-07
-4.96722e-08
1.54324e-07
-5.78179e-08
1.60183e-07
-6.61451e-08
1.65433e-07
-7.45375e-08
1.69707e-07
-8.28528e-08
1.7278e-07
-9.09591e-08
1.74765e-07
-9.87642e-08
1.76189e-07
-1.06249e-07
1.77816e-07
-1.13461e-07
1.80418e-07
-1.20504e-07
1.84514e-07
-1.27498e-07
1.90239e-07
-1.34554e-07
1.97336e-07
-1.41742e-07
2.05286e-07