/*--------------------------------*- C++ -*----------------------------------*\
  =========                 |
  \\      /  F ield         | OpenFOAM: The Open Source CFD Toolbox
   \\    /   O peration     | Website:  https://openfoam.org
    \\  /    A nd           | Version:  7
     \\/     M anipulation  |
\*---------------------------------------------------------------------------*/
FoamFile
{
    version     2.0;
    format      ascii;
    class       volScalarField;
    location    "0.33";
    object      nut;
}
// * * * * * * * * * * * * * * * * * * * * * * * * * * * * * * * * * * * * * //

dimensions      [0 2 -1 0 0 0 0];

internalField   nonuniform List<scalar> 
70000
(
9.96307e-12
6.88259e-14
2.55828e-16
8.58166e-17
4.82119e-17
7.91895e-17
2.78903e-17
1.30764e-17
8.8847e-18
6.49914e-18
4.77432e-18
3.56953e-18
2.73135e-18
2.13392e-18
1.69666e-18
1.36946e-18
1.12013e-18
9.26786e-19
7.74943e-19
6.54e-19
5.56656e-19
4.77471e-19
4.1246e-19
3.58684e-19
3.13801e-19
2.7618e-19
2.4425e-19
2.17373e-19
1.93948e-19
1.74532e-19
1.56755e-19
1.42642e-19
1.28717e-19
1.18159e-19
1.07639e-19
9.75972e-20
9.33112e-20
7.61621e-20
8.90147e-20
4.79576e-20
1.04588e-19
1.56419e-20
1.55986e-19
4.84047e-22
1.91662e-19
4.21042e-23
2.81493e-20
1.10644e-19
8.86406e-15
1.16033e-12
1.04282e-10
5.98631e-12
6.44227e-14
2.14394e-14
2.89224e-16
1.70231e-17
2.5327e-17
2.12779e-17
1.2378e-17
7.37885e-18
4.84606e-18
3.38658e-18
2.45863e-18
1.8371e-18
1.4063e-18
1.09909e-18
8.74384e-19
7.06578e-19
5.78646e-19
4.79546e-19
4.01619e-19
3.39519e-19
2.89484e-19
2.48692e-19
2.15211e-19
1.87346e-19
1.64238e-19
1.44464e-19
1.28197e-19
1.13551e-19
1.02021e-19
9.06659e-20
8.24317e-20
7.34692e-20
6.67426e-20
6.13305e-20
5.17336e-20
5.62231e-20
3.31281e-20
6.63149e-20
1.11842e-20
1.17862e-19
7.93417e-22
2.43985e-19
6.3987e-21
1.59088e-19
3.47652e-19
1.23913e-17
2.80396e-14
2.31225e-13
3.1923e-10
3.39589e-12
1.90665e-13
1.98862e-14
7.65325e-16
5.82987e-17
7.32593e-18
4.21475e-18
2.15133e-18
1.07242e-18
5.97751e-19
3.6836e-19
2.41559e-19
1.65206e-19
1.16857e-19
8.51011e-20
6.35617e-20
4.85676e-20
3.78256e-20
2.99703e-20
2.41005e-20
1.96351e-20
1.61872e-20
1.34792e-20
1.13383e-20
9.60742e-21
8.22715e-21
7.05605e-21
6.1534e-21
5.30117e-21
4.72194e-21
4.05241e-21
3.69163e-21
3.16286e-21
2.85511e-21
2.66932e-21
1.95246e-21
2.99337e-21
8.80878e-22
6.42544e-21
1.10342e-21
2.71665e-20
2.22322e-20
1.06376e-19
1.55228e-19
5.51095e-20
3.02556e-18
3.44913e-17
3.331e-14
3.25076e-13
6.15422e-09
1.92637e-11
7.82823e-13
6.09648e-14
5.47398e-15
9.2726e-16
1.10582e-16
2.96063e-17
1.24162e-17
5.53107e-18
2.60102e-18
1.34739e-18
7.62738e-19
4.60747e-19
2.92299e-19
1.93065e-19
1.32041e-19
9.30893e-20
6.73772e-20
4.98904e-20
3.76745e-20
2.8936e-20
2.25548e-20
1.78088e-20
1.42265e-20
1.14827e-20
9.35583e-21
7.68935e-21
6.36825e-21
5.31742e-21
4.46899e-21
3.79859e-21
3.24121e-21
2.83972e-21
2.48382e-21
2.33204e-21
2.17658e-21
2.39215e-21
2.9422e-21
4.35639e-21
1.11846e-20
1.92276e-20
8.54404e-20
8.4419e-20
5.70341e-19
2.55692e-20
1.18349e-17
4.2056e-17
2.60753e-14
4.06782e-13
2.32414e-09
2.2322e-10
4.44679e-12
3.21014e-13
2.2964e-14
4.39791e-15
7.22274e-16
2.03637e-16
8.35506e-17
3.7277e-17
1.75594e-17
9.00546e-18
5.01698e-18
2.982e-18
1.86468e-18
1.21633e-18
8.22991e-19
5.74931e-19
4.12974e-19
3.03905e-19
2.28385e-19
1.74794e-19
1.3594e-19
1.07231e-19
8.56794e-20
6.92615e-20
5.65846e-20
4.66997e-20
3.8871e-20
3.26773e-20
2.76407e-20
2.36889e-20
2.03271e-20
1.79082e-20
1.56579e-20
1.45501e-20
1.33096e-20
1.37499e-20
1.49839e-20
1.83731e-20
3.48951e-20
4.55506e-20
1.90134e-19
1.29943e-19
1.38127e-18
1.08232e-20
2.75327e-17
5.30934e-17
1.91566e-14
3.39802e-13
3.01488e-09
5.28805e-09
4.35009e-11
1.94026e-12
1.07595e-13
1.79534e-14
3.24275e-15
9.48809e-16
3.8788e-16
1.74082e-16
8.26068e-17
4.23665e-17
2.34616e-17
1.38248e-17
8.56283e-18
5.53208e-18
3.70838e-18
2.56801e-18
1.82984e-18
1.33693e-18
9.98432e-19
7.60098e-19
5.88569e-19
4.62694e-19
3.68794e-19
2.97669e-19
2.43063e-19
2.00669e-19
1.67288e-19
1.40924e-19
1.19621e-19
1.02829e-19
8.86537e-20
7.82375e-20
6.85812e-20
6.34412e-20
5.73887e-20
5.81001e-20
5.90797e-20
6.81483e-20
1.05648e-19
1.21062e-19
4.33613e-19
2.37845e-19
2.89019e-18
2.09805e-20
5.01603e-17
8.40756e-17
1.32702e-14
2.58906e-13
1.0768e-09
4.76313e-09
3.71448e-09
1.8446e-11
6.67673e-13
9.13233e-14
1.51493e-14
4.14069e-15
1.6046e-15
7.01703e-16
3.28865e-16
1.67008e-16
9.15583e-17
5.34039e-17
3.27439e-17
2.09435e-17
1.39018e-17
9.53556e-18
6.73324e-18
4.8779e-18
3.61449e-18
2.7322e-18
2.10222e-18
1.64336e-18
1.30345e-18
1.04768e-18
8.52556e-19
7.01928e-19
5.84048e-19
4.91361e-19
4.16916e-19
3.58308e-19
3.092e-19
2.72719e-19
2.39333e-19
2.20243e-19
1.98868e-19
1.97216e-19
1.96584e-19
2.14058e-19
3.04047e-19
3.14155e-19
9.84868e-19
4.98592e-19
5.55903e-18
2.80074e-19
8.09422e-17
1.46278e-16
8.49286e-15
1.79583e-13
2.42752e-09
3.86773e-09
8.20827e-10
2.40723e-09
8.55159e-12
7.09061e-13
9.01596e-14
2.06323e-14
7.10894e-15
2.88278e-15
1.28389e-15
6.28008e-16
3.3445e-16
1.906e-16
1.14631e-16
7.21099e-17
4.71628e-17
3.19203e-17
2.22659e-17
1.59512e-17
1.16995e-17
8.7616e-18
6.68434e-18
5.18508e-18
4.08376e-18
3.26148e-18
2.63879e-18
2.16129e-18
1.7902e-18
1.49995e-18
1.26852e-18
1.0867e-18
9.35903e-19
8.22805e-19
7.21358e-19
6.59716e-19
5.94881e-19
5.80599e-19
5.7252e-19
6.01805e-19
8.05822e-19
7.97856e-19
2.16948e-18
1.18407e-18
1.03726e-17
1.81016e-18
1.21532e-16
2.36004e-16
4.80276e-15
1.10376e-13
3.369e-09
4.36836e-09
5.89541e-10
2.99073e-10
5.4667e-10
1.83752e-11
9.5158e-13
1.44976e-13
3.97525e-14
1.39395e-14
5.6027e-15
2.538e-15
1.27422e-15
6.93327e-16
4.01747e-16
2.45087e-16
1.562e-16
1.03387e-16
7.07266e-17
4.9804e-17
3.59742e-17
2.65743e-17
2.00258e-17
1.53621e-17
1.19772e-17
9.47709e-18
7.60265e-18
6.17793e-18
5.08047e-18
4.22808e-18
3.55432e-18
3.02696e-18
2.59465e-18
2.26816e-18
1.9817e-18
1.79907e-18
1.61765e-18
1.55862e-18
1.52309e-18
1.56805e-18
2.00457e-18
1.97191e-18
4.69362e-18
2.96074e-18
1.94434e-17
7.21833e-18
1.76203e-16
3.50375e-16
2.3527e-15
6.0287e-14
3.41042e-09
4.60545e-09
6.70764e-10
1.92735e-10
4.67639e-11
6.68644e-11
3.01772e-10
2.79905e-12
3.90606e-13
9.82237e-14
3.2082e-14
1.25721e-14
5.67128e-15
2.84268e-15
1.5436e-15
8.93326e-16
5.4499e-16
3.47663e-16
2.30441e-16
1.57891e-16
1.11353e-16
8.05423e-17
5.95719e-17
4.49422e-17
3.45164e-17
2.69407e-17
2.13438e-17
1.71448e-17
1.39499e-17
1.1494e-17
9.57443e-18
8.08204e-18
6.87463e-18
5.96022e-18
5.17549e-18
4.65688e-18
4.16703e-18
3.96768e-18
3.84543e-18
3.90208e-18
4.81523e-18
4.7691e-18
1.01587e-17
7.45051e-18
3.72611e-17
2.24814e-17
2.56821e-16
5.11926e-16
1.00774e-15
3.00397e-14
3.21118e-09
4.38893e-09
7.71558e-10
2.01176e-10
3.62191e-11
2.15984e-11
1.33361e-11
2.0996e-11
1.49181e-10
2.25531e-12
3.61371e-13
9.85587e-14
3.54233e-14
1.51564e-14
7.31584e-15
3.86314e-15
2.18944e-15
1.3145e-15
8.28026e-16
5.43251e-16
3.69065e-16
2.58404e-16
1.85749e-16
1.36641e-16
1.02608e-16
7.84821e-17
6.10459e-17
4.82188e-17
3.86321e-17
3.1377e-17
2.57927e-17
2.15002e-17
1.80816e-17
1.54991e-17
1.33327e-17
1.18635e-17
1.05393e-17
9.91041e-18
9.53027e-18
9.54863e-18
1.14801e-17
1.14817e-17
2.23873e-17
1.87578e-17
7.4017e-17
6.18367e-17
3.90772e-16
7.73879e-16
3.92832e-16
1.38652e-14
3.01674e-09
3.97023e-09
8.43885e-10
2.11896e-10
3.84299e-11
1.9896e-11
8.53151e-12
4.5741e-12
4.20513e-12
6.92571e-12
8.5336e-11
5.0533e-12
5.84502e-13
1.52538e-13
5.50536e-14
2.38934e-14
1.17324e-14
6.30675e-15
3.6366e-15
2.21874e-15
1.41829e-15
9.42876e-16
6.48164e-16
4.58611e-16
3.32794e-16
2.46919e-16
1.86892e-16
1.44023e-16
1.12822e-16
8.97594e-17
7.23933e-17
5.92835e-17
4.90539e-17
4.13943e-17
3.51302e-17
3.08084e-17
2.70902e-17
2.51042e-17
2.39431e-17
2.36745e-17
2.79124e-17
2.81764e-17
5.1207e-17
4.79419e-17
1.54959e-16
1.62089e-16
6.46937e-16
1.26791e-15
2.12239e-16
6.12407e-15
2.84533e-09
3.50994e-09
9.05233e-10
2.09185e-10
4.1874e-11
2.13845e-11
8.93164e-12
3.88474e-12
2.46379e-12
1.92948e-12
1.76991e-12
2.11549e-12
4.43285e-12
9.05988e-11
2.90319e-12
4.35191e-13
1.30297e-13
5.19544e-14
2.44185e-14
1.28117e-14
7.28516e-15
4.40848e-15
2.80444e-15
1.85898e-15
1.27577e-15
9.01833e-16
6.5417e-16
4.85424e-16
3.67586e-16
2.83616e-16
2.22442e-16
1.77547e-16
1.43509e-16
1.18461e-16
9.86078e-17
8.47973e-17
7.34784e-17
6.68561e-17
6.31154e-17
6.14709e-17
7.13031e-17
7.25377e-17
1.24435e-16
1.27556e-16
3.49221e-16
4.28606e-16
1.21545e-15
2.3707e-15
4.29759e-16
3.72103e-15
2.67531e-09
3.05409e-09
9.73905e-10
1.97905e-10
4.49797e-11
2.28e-11
1.0157e-11
4.18124e-12
2.40339e-12
1.62507e-12
1.16546e-12
9.04326e-13
7.88949e-13
7.97319e-13
9.86423e-13
1.74125e-12
8.36453e-12
1.1852e-11
7.94133e-13
2.04133e-13
7.80191e-14
3.63962e-14
1.92144e-14
1.10543e-14
6.78145e-15
4.37436e-15
2.93911e-15
2.04304e-15
1.46186e-15
1.07316e-15
8.05253e-16
6.17708e-16
4.81769e-16
3.84848e-16
3.11233e-16
2.60252e-16
2.20632e-16
1.95882e-16
1.8219e-16
1.74145e-16
1.98633e-16
2.0316e-16
3.31365e-16
3.65477e-16
8.71532e-16
1.20101e-15
2.68502e-15
5.26655e-15
1.9664e-15
7.37328e-15
2.49684e-09
2.61888e-09
1.0534e-09
1.83689e-10
4.82267e-11
2.36545e-11
1.15217e-11
4.68667e-12
2.61564e-12
1.71077e-12
1.15588e-12
8.09045e-13
6.02918e-13
4.81243e-13
4.11388e-13
3.78828e-13
3.81243e-13
4.30845e-13
5.77313e-13
1.04587e-12
4.10707e-12
1.46291e-11
9.24264e-13
2.30509e-13
8.95873e-14
4.29819e-14
2.33884e-14
1.38591e-14
8.74118e-15
5.78933e-15
3.98558e-15
2.84072e-15
2.07923e-15
1.5704e-15
1.20987e-15
9.6738e-16
7.90952e-16
6.7702e-16
6.14086e-16
5.71753e-16
6.37551e-16
6.5239e-16
1.01345e-15
1.18313e-15
2.51269e-15
3.76062e-15
7.22037e-15
1.43454e-14
1.00553e-14
3.55562e-14
2.31049e-09
2.21831e-09
1.13837e-09
1.69154e-10
5.20779e-11
2.40796e-11
1.29282e-11
5.25595e-12
2.89308e-12
1.8892e-12
1.26767e-12
8.64927e-13
6.16161e-13
4.60305e-13
3.58586e-13
2.90467e-13
2.44832e-13
2.15285e-13
1.98291e-13
1.9252e-13
1.98989e-13
2.22484e-13
2.7666e-13
4.03895e-13
7.86713e-13
3.17238e-12
1.50331e-14
8.09039e-13
2.21186e-13
9.08772e-14
4.56367e-14
2.59149e-14
1.59534e-14
1.05003e-14
7.2375e-15
5.26675e-15
3.99067e-15
3.19015e-15
2.74745e-15
2.44225e-15
2.61667e-15
2.64322e-15
3.88488e-15
4.70335e-15
9.03118e-15
1.42389e-14
2.50012e-14
5.0328e-14
5.54723e-14
2.13468e-13
2.11856e-09
1.85864e-09
1.22153e-09
1.55338e-10
5.65746e-11
2.42025e-11
1.44006e-11
5.88726e-12
3.19732e-12
2.09694e-12
1.41889e-12
9.66966e-13
6.81742e-13
5.00097e-13
3.78953e-13
2.95067e-13
2.35685e-13
1.9307e-13
1.62254e-13
1.39993e-13
1.2417e-13
1.13418e-13
1.06929e-13
1.04358e-13
1.05871e-13
1.12328e-13
1.25826e-13
1.51137e-13
1.9988e-13
3.06454e-13
6.1024e-13
2.24273e-12
5.59529e-11
5.57012e-13
2.13054e-13
9.76237e-14
5.37257e-14
3.39694e-14
2.46195e-14
1.91455e-14
1.84491e-14
1.74647e-14
2.34833e-14
2.8228e-14
4.88501e-14
7.78002e-14
1.28982e-13
2.59834e-13
3.89106e-13
1.5769e-12
1.92271e-09
1.54031e-09
1.29628e-09
1.43006e-10
6.14707e-11
2.40906e-11
1.594e-11
6.60478e-12
3.5319e-12
2.32408e-12
1.59126e-12
1.09072e-12
7.69078e-13
5.62604e-13
4.23763e-13
3.26447e-13
2.56474e-13
2.05268e-13
1.67251e-13
1.38703e-13
1.17094e-13
1.00654e-13
8.81295e-14
7.86098e-14
7.14443e-14
6.61746e-14
6.24955e-14
6.02431e-14
5.93497e-14
5.99317e-14
6.21753e-14
6.67047e-14
7.4307e-14
8.71748e-14
1.08849e-13
1.48891e-13
2.32175e-13
4.40424e-13
1.22467e-12
7.3552e-12
2.36725e-11
5.3621e-13
7.98553e-13
7.29714e-13
9.8271e-13
1.32224e-12
1.92006e-12
3.55927e-12
6.18083e-12
2.50185e-11
1.72515e-09
1.26316e-09
1.35693e-09
1.33043e-10
6.63623e-11
2.38124e-11
1.75094e-11
7.42898e-12
3.90605e-12
2.57323e-12
1.78374e-12
1.23229e-12
8.71306e-13
6.38319e-13
4.81119e-13
3.70237e-13
2.89845e-13
2.30471e-13
1.85946e-13
1.52127e-13
1.26175e-13
1.06086e-13
9.04098e-14
7.80749e-14
6.82869e-14
6.04579e-14
5.4154e-14
4.90702e-14
4.49671e-14
4.17126e-14
3.91564e-14
3.72985e-14
3.60245e-14
3.54874e-14
3.56614e-14
3.68655e-14
3.95839e-14
4.41376e-14
5.34374e-14
6.72654e-14
9.92184e-14
1.50685e-13
2.84851e-13
5.59727e-13
1.28799e-12
3.27096e-12
8.01363e-12
2.34231e-11
6.36056e-11
1.815e-10
1.52867e-09
1.02689e-09
1.39862e-09
1.26385e-10
7.07277e-11
2.34666e-11
1.90468e-11
8.37563e-12
4.3278e-12
2.84804e-12
1.99871e-12
1.39339e-12
9.8871e-13
7.2602e-13
5.48519e-13
4.2283e-13
3.31191e-13
2.63116e-13
2.11772e-13
1.72548e-13
1.42268e-13
1.18681e-13
1.00143e-13
8.54294e-14
7.36249e-14
6.40488e-14
5.61946e-14
4.97039e-14
4.4293e-14
3.97905e-14
3.60144e-14
3.29118e-14
3.03441e-14
2.8355e-14
2.6881e-14
2.60082e-14
2.59771e-14
2.67131e-14
2.95631e-14
3.38645e-14
4.46119e-14
6.09253e-14
9.98515e-14
1.72205e-13
3.34524e-13
7.13396e-13
1.49455e-12
3.7464e-12
1.00864e-11
3.79423e-11
1.3362e-09
8.30313e-10
1.41731e-09
1.23916e-10
7.39685e-11
2.31813e-11
2.0475e-11
9.45751e-12
4.80501e-12
3.15167e-12
2.23841e-12
1.57669e-12
1.12345e-12
8.27029e-13
6.26533e-13
4.84147e-13
3.79841e-13
3.01991e-13
2.43032e-13
1.97826e-13
1.62816e-13
1.35463e-13
1.13902e-13
9.67336e-14
8.29041e-14
7.16291e-14
6.2324e-14
5.45767e-14
4.80632e-14
4.25841e-14
3.79369e-14
3.40444e-14
3.07637e-14
2.80995e-14
2.60006e-14
2.44859e-14
2.37855e-14
2.37643e-14
2.55001e-14
2.84911e-14
3.62485e-14
4.87124e-14
7.67132e-14
1.30362e-13
2.44339e-13
5.08285e-13
1.06658e-12
2.64146e-12
7.35569e-12
2.65286e-11
1.1507e-09
6.71131e-10
1.41012e-09
1.26414e-10
7.55232e-11
2.30973e-11
2.17102e-11
1.06831e-11
5.34645e-12
3.48736e-12
2.50465e-12
1.78482e-12
1.27809e-12
9.43346e-13
7.16667e-13
5.55284e-13
4.36511e-13
3.47455e-13
2.79757e-13
2.277e-13
1.87295e-13
1.55676e-13
1.30722e-13
1.10828e-13
9.47764e-14
8.16608e-14
7.08043e-14
6.17319e-14
5.40736e-14
4.75996e-14
4.20861e-14
3.74338e-14
3.34967e-14
3.02521e-14
2.76658e-14
2.57187e-14
2.46629e-14
2.43506e-14
2.57862e-14
2.86522e-14
3.5956e-14
4.84889e-14
7.52649e-14
1.28392e-13
2.38876e-13
4.95011e-13
1.06054e-12
2.63388e-12
7.4765e-12
2.55042e-11
9.7509e-10
5.46006e-10
1.37566e-09
1.34537e-10
7.50088e-11
2.33442e-11
2.26743e-11
1.20535e-11
5.96227e-12
3.85885e-12
2.79901e-12
2.02027e-12
1.45534e-12
1.07722e-12
8.20728e-13
6.37726e-13
5.02402e-13
4.00438e-13
3.2263e-13
2.6263e-13
2.1597e-13
1.79415e-13
1.50548e-13
1.27524e-13
1.08936e-13
9.37303e-14
8.11217e-14
7.0561e-14
6.16249e-14
5.40473e-14
4.75806e-14
4.21015e-14
3.74595e-14
3.36074e-14
3.05276e-14
2.81759e-14
2.68304e-14
2.63587e-14
2.77399e-14
3.08768e-14
3.85597e-14
5.24946e-14
8.12375e-14
1.39759e-13
2.61209e-13
5.4274e-13
1.1902e-12
2.96792e-12
8.45108e-12
2.71623e-11
8.12069e-10
4.5078e-10
1.31429e-09
1.48792e-10
7.22916e-11
2.40181e-11
2.33074e-11
1.35582e-11
6.66407e-12
4.27052e-12
3.12296e-12
2.28536e-12
1.65804e-12
1.23109e-12
9.4071e-13
7.33149e-13
5.78928e-13
4.62108e-13
3.72592e-13
3.03362e-13
2.49421e-13
2.07118e-13
1.73696e-13
1.47035e-13
1.25502e-13
1.07874e-13
9.32387e-14
8.09582e-14
7.05483e-14
6.17004e-14
5.41399e-14
4.77156e-14
4.22715e-14
3.77355e-14
3.41042e-14
3.13173e-14
2.96735e-14
2.90795e-14
3.0496e-14
3.40834e-14
4.25347e-14
5.85245e-14
9.08369e-14
1.57715e-13
2.97706e-13
6.21734e-13
1.39173e-12
3.4753e-12
9.80357e-12
2.96754e-11
6.63942e-10
3.8079e-10
1.22825e-09
1.69405e-10
6.7523e-11
2.51652e-11
2.35794e-11
1.51705e-11
7.4646e-12
4.72739e-12
3.47793e-12
2.58209e-12
1.88914e-12
1.40761e-12
1.07878e-12
8.43385e-13
6.67654e-13
5.33781e-13
4.30731e-13
3.50784e-13
2.88369e-13
2.39368e-13
2.00637e-13
1.69736e-13
1.44772e-13
1.24319e-13
1.07318e-13
9.3029e-14
8.0897e-14
7.05642e-14
6.17254e-14
5.41978e-14
4.7817e-14
4.24865e-14
3.82123e-14
3.49258e-14
3.29368e-14
3.22106e-14
3.3685e-14
3.78019e-14
4.72299e-14
6.56235e-14
1.02464e-13
1.79432e-13
3.427e-13
7.19795e-13
1.63678e-12
4.0764e-12
1.1289e-11
3.2234e-11
5.32429e-10
3.31192e-10
1.12154e-09
1.96096e-10
6.11696e-11
2.67589e-11
2.35011e-11
1.68431e-11
8.37696e-12
5.23519e-12
3.86542e-12
2.91206e-12
2.15153e-12
1.60961e-12
1.23729e-12
9.70417e-13
7.70288e-13
6.16903e-13
4.98246e-13
4.05882e-13
3.33623e-13
2.76831e-13
2.3192e-13
1.96082e-13
1.67119e-13
1.43371e-13
1.23606e-13
1.06965e-13
9.28142e-14
8.07377e-14
7.03961e-14
6.1571e-14
5.40863e-14
4.78213e-14
4.27852e-14
3.89088e-14
3.65017e-14
3.56012e-14
3.71175e-14
4.1779e-14
5.22916e-14
7.32543e-14
1.15206e-13
2.03282e-13
3.92765e-13
8.29307e-13
1.90536e-12
4.71222e-12
1.27319e-11
3.43765e-11
4.1854e-10
2.97204e-10
9.99751e-10
2.27801e-10
5.39915e-11
2.86694e-11
2.31289e-11
1.85078e-11
9.41299e-12
5.8002e-12
4.2871e-12
3.2763e-12
2.44794e-12
1.84006e-12
1.41874e-12
1.11636e-12
8.88658e-13
7.13037e-13
5.76442e-13
4.69731e-13
3.86066e-13
3.20232e-13
2.68146e-13
2.26572e-13
1.92958e-13
1.65372e-13
1.42383e-13
1.22992e-13
1.06475e-13
9.23517e-14
8.02425e-14
6.989e-14
6.11023e-14
5.37347e-14
4.77926e-14
4.3212e-14
4.02922e-14
3.91487e-14
4.06616e-14
4.58325e-14
5.74597e-14
8.10141e-14
1.28354e-13
2.27984e-13
4.45053e-13
9.4369e-13
2.17917e-12
5.33016e-12
1.39947e-11
3.58338e-11
3.2249e-10
2.74288e-10
8.70238e-10
2.62322e-10
4.69751e-11
3.06544e-11
2.256e-11
2.00788e-11
1.05809e-11
6.4293e-12
4.74496e-12
3.67519e-12
2.78069e-12
2.10194e-12
1.62574e-12
1.28341e-12
1.02469e-12
8.23844e-13
6.66713e-13
5.43478e-13
4.46637e-13
3.70345e-13
3.09952e-13
2.61733e-13
2.22728e-13
1.90686e-13
1.63944e-13
1.41346e-13
1.22063e-13
1.05541e-13
9.13564e-14
7.92092e-14
6.88859e-14
6.02181e-14
5.32007e-14
4.7778e-14
4.42301e-14
4.27488e-14
4.41844e-14
4.97804e-14
6.24708e-14
8.84963e-14
1.41176e-13
2.52196e-13
4.96529e-13
1.05581e-12
2.43894e-12
5.87974e-12
1.49664e-11
3.64585e-11
2.43617e-10
2.58485e-10
7.41722e-10
2.96202e-10
4.11566e-11
3.23968e-11
2.19178e-11
2.14609e-11
1.18816e-11
7.12995e-12
5.2414e-12
4.10853e-12
3.15147e-12
2.39812e-12
1.86095e-12
1.47383e-12
1.18035e-12
9.51043e-13
7.7051e-13
6.2832e-13
5.16315e-13
4.27971e-13
3.57999e-13
3.02112e-13
2.56879e-13
2.19681e-13
1.88587e-13
1.62259e-13
1.39751e-13
1.20428e-13
1.03815e-13
8.95651e-14
7.74383e-14
6.72419e-14
5.89532e-14
5.25255e-14
4.82123e-14
4.62715e-14
4.75231e-14
5.34062e-14
6.70113e-14
9.52186e-14
1.528e-13
2.74295e-13
5.4358e-13
1.15724e-12
2.66351e-12
6.3116e-12
1.55583e-11
3.61755e-11
1.80526e-10
2.46553e-10
6.21503e-10
3.25344e-10
3.73295e-11
3.35544e-11
2.13317e-11
2.25615e-11
1.3304e-11
7.90987e-12
5.77917e-12
4.57552e-12
3.56108e-12
2.73117e-12
2.12699e-12
1.68985e-12
1.3576e-12
1.09636e-12
8.89304e-13
7.25471e-13
5.96091e-13
4.93916e-13
4.12946e-13
3.4825e-13
2.95854e-13
2.52714e-13
2.16594e-13
1.85947e-13
1.59695e-13
1.37112e-13
1.17669e-13
1.00965e-13
8.67289e-14
7.47426e-14
6.49593e-14
5.73386e-14
5.21002e-14
4.95503e-14
5.04743e-14
5.64468e-14
7.07022e-14
1.006e-13
1.62179e-13
2.92298e-13
5.81905e-13
1.23822e-12
2.83024e-12
6.57925e-12
1.57034e-11
3.49658e-11
1.31394e-10
2.35695e-10
5.13367e-10
3.46125e-10
3.59058e-11
3.38161e-11
2.09098e-11
2.33093e-11
1.48195e-11
8.77625e-12
6.36123e-12
5.07493e-12
4.00922e-12
3.10312e-12
2.42633e-12
1.93363e-12
1.55831e-12
1.26146e-12
1.02453e-12
8.36119e-13
6.86927e-13
5.68961e-13
4.75427e-13
4.00661e-13
3.40069e-13
2.90117e-13
2.48219e-13
2.12593e-13
1.82013e-13
1.55656e-13
1.32927e-13
1.13373e-13
9.66844e-14
8.26141e-14
7.10858e-14
6.20595e-14
5.57143e-14
5.2379e-14
5.27928e-14
5.85935e-14
7.3105e-14
1.03967e-13
1.68117e-13
3.03925e-13
6.06665e-13
1.28818e-12
2.91664e-12
6.64254e-12
1.53591e-11
3.28547e-11
9.41235e-11
2.23699e-10
4.18848e-10
3.56192e-10
3.7025e-11
3.30145e-11
2.07127e-11
2.36713e-11
1.63804e-11
9.73481e-12
6.99063e-12
5.60541e-12
4.49432e-12
3.51517e-12
2.76112e-12
2.20711e-12
1.78417e-12
1.44787e-12
1.17752e-12
9.61369e-13
7.89715e-13
6.53819e-13
5.46012e-13
4.59803e-13
3.89885e-13
3.32165e-13
2.83662e-13
2.42326e-13
2.06772e-13
1.76066e-13
1.49547e-13
1.26703e-13
1.07179e-13
9.06988e-14
7.71508e-14
6.64855e-14
5.88338e-14
5.45151e-14
5.42002e-14
5.95067e-14
7.37504e-14
1.04607e-13
1.69355e-13
3.06775e-13
6.12919e-13
1.29682e-12
2.90287e-12
6.47255e-12
1.45119e-11
2.99126e-11
6.65157e-11
2.09292e-10
3.38523e-10
3.54675e-10
4.06693e-11
3.122e-11
2.07384e-11
2.36609e-11
1.79203e-11
1.07881e-11
7.67037e-12
6.1657e-12
5.01366e-12
3.9675e-12
3.13306e-12
2.51201e-12
2.03667e-12
1.65691e-12
1.34944e-12
1.10219e-12
9.05229e-13
7.49096e-13
6.25178e-13
5.26045e-13
4.45581e-13
3.7906e-13
3.2305e-13
2.75207e-13
2.33968e-13
1.98284e-13
1.6742e-13
1.40801e-13
1.18026e-13
9.87824e-14
8.29204e-14
7.03695e-14
6.12019e-14
5.56905e-14
5.44042e-14
5.88471e-14
7.21872e-14
1.01846e-13
1.64733e-13
2.98646e-13
5.96313e-13
1.25564e-12
2.77503e-12
6.05649e-12
1.31824e-11
2.62567e-11
4.64966e-11
1.921e-10
2.72125e-10
3.42092e-10
4.66325e-11
2.87195e-11
2.09222e-11
2.33347e-11
1.93596e-11
1.19328e-11
8.40316e-12
6.7549e-12
5.56351e-12
4.45897e-12
3.54319e-12
2.84969e-12
2.31694e-12
1.88961e-12
1.54123e-12
1.25937e-12
1.03407e-12
8.55248e-13
7.13263e-13
5.99634e-13
5.07327e-13
4.30899e-13
3.66415e-13
3.11205e-13
2.63512e-13
2.22166e-13
1.86355e-13
1.5544e-13
1.28968e-13
1.06589e-13
8.81101e-14
7.34259e-14
6.25378e-14
5.56317e-14
5.31292e-14
5.6322e-14
6.80591e-14
9.51816e-14
1.5342e-13
2.77991e-13
5.54003e-13
1.15988e-12
2.52871e-12
5.40275e-12
1.14304e-11
2.2053e-11
3.22462e-11
1.72465e-10
2.18582e-10
3.20117e-10
5.44159e-11
2.59261e-11
2.11481e-11
2.2781e-11
2.06142e-11
1.31567e-11
9.191e-12
7.37244e-12
6.13943e-12
4.98705e-12
3.99172e-12
3.22105e-12
2.62578e-12
2.14664e-12
1.7535e-12
1.43342e-12
1.17664e-12
9.72538e-13
8.10433e-13
6.8066e-13
5.7515e-13
4.87651e-13
4.13669e-13
3.50176e-13
2.95208e-13
2.47472e-13
2.06074e-13
1.70312e-13
1.3968e-13
1.13786e-13
9.23914e-14
7.53443e-14
6.25583e-14
5.40908e-14
5.01617e-14
5.17512e-14
6.12057e-14
8.44453e-14
1.3521e-13
2.44487e-13
4.85753e-13
1.01058e-12
2.17243e-12
4.54514e-12
9.35729e-12
1.75187e-11
2.22547e-11
1.51265e-10
1.76234e-10
2.91227e-10
6.31891e-11
2.32824e-11
2.12715e-11
2.21016e-11
2.16095e-11
1.44351e-11
1.00346e-11
8.01806e-12
6.73676e-12
5.54769e-12
4.47774e-12
3.62645e-12
2.96355e-12
2.42826e-12
1.98649e-12
1.62455e-12
1.33304e-12
1.10099e-12
9.16642e-13
7.69027e-13
6.48909e-13
5.49134e-13
4.64586e-13
3.9185e-13
3.28747e-13
2.73855e-13
2.26204e-13
1.85025e-13
1.49766e-13
1.19986e-13
9.54066e-14
7.58112e-14
6.10092e-14
5.08877e-14
4.54082e-14
4.51454e-14
5.17778e-14
6.99942e-14
1.10837e-13
1.99626e-13
3.95049e-13
8.16488e-13
1.7304e-12
3.54579e-12
7.10792e-12
1.29227e-11
1.53231e-11
1.29727e-10
1.43133e-10
2.58233e-10
7.18643e-11
2.11763e-11
2.11601e-11
2.13899e-11
2.22932e-11
1.57299e-11
1.09326e-11
8.69156e-12
7.35102e-12
6.13561e-12
4.99914e-12
4.06553e-12
3.33012e-12
2.73427e-12
2.24002e-12
1.8326e-12
1.50307e-12
1.24036e-12
1.03161e-12
8.64423e-13
7.28273e-13
6.14991e-13
5.18783e-13
4.35817e-13
3.6369e-13
3.00856e-13
2.46271e-13
1.99109e-13
1.58768e-13
1.24771e-13
9.67909e-14
7.45407e-14
5.77055e-14
4.59612e-14
3.89586e-14
3.67917e-14
4.0351e-14
5.28781e-14
8.2264e-14
1.47194e-13
2.89911e-13
5.95324e-13
1.24368e-12
2.495e-12
4.86726e-12
8.5819e-12
1.0545e-11
1.08989e-10
1.1734e-10
2.23925e-10
7.92753e-11
1.98739e-11
2.07388e-11
2.07141e-11
2.26463e-11
1.69911e-11
1.18805e-11
9.39278e-12
7.97844e-12
6.7446e-12
5.55251e-12
4.53719e-12
3.72493e-12
3.06402e-12
2.51346e-12
2.057e-12
1.68622e-12
1.39011e-12
1.15478e-12
9.66306e-13
8.12704e-13
6.84686e-13
5.75716e-13
4.81521e-13
3.99471e-13
3.27904e-13
2.65714e-13
2.12021e-13
1.6619e-13
1.27706e-13
9.62045e-14
7.13158e-14
5.25804e-14
3.94265e-14
3.11496e-14
2.73189e-14
2.79994e-14
3.49239e-14
5.27797e-14
9.34249e-14
1.82986e-13
3.73513e-13
7.68769e-13
1.50667e-12
2.85043e-12
4.84593e-12
7.26707e-12
8.97614e-11
9.71025e-11
1.90686e-10
8.44438e-11
1.94752e-11
2.00088e-11
2.01056e-11
2.26843e-11
1.81602e-11
1.28689e-11
1.0121e-11
8.61607e-12
7.36806e-12
6.13313e-12
5.03945e-12
4.14686e-12
3.41643e-12
2.80573e-12
2.29678e-12
1.88159e-12
1.54939e-12
1.28534e-12
1.0739e-12
9.01452e-13
7.57493e-13
6.34673e-13
5.2826e-13
4.354e-13
3.54329e-13
2.8389e-13
2.23171e-13
1.71513e-13
1.28379e-13
9.33718e-14
6.60331e-14
4.57361e-14
3.16251e-14
2.26063e-14
1.77178e-14
1.62661e-14
1.86285e-14
2.67281e-14
4.64141e-14
9.02836e-14
1.83312e-13
3.70948e-13
7.05055e-13
1.27883e-12
2.05844e-12
5.02253e-12
7.24976e-11
8.09518e-11
1.60077e-10
8.67905e-11
1.99255e-11
1.90439e-11
1.95567e-11
2.24524e-11
1.91787e-11
1.38816e-11
1.08746e-11
9.26171e-12
7.9995e-12
6.73514e-12
5.56933e-12
4.59425e-12
3.78996e-12
3.11528e-12
2.55053e-12
2.08792e-12
1.71705e-12
1.42221e-12
1.18616e-12
9.93554e-13
8.32499e-13
6.94783e-13
5.75197e-13
4.70674e-13
3.79369e-13
3.001e-13
2.31941e-13
1.74234e-13
1.26436e-13
8.81276e-14
5.87542e-14
3.74917e-14
2.31556e-14
1.42348e-14
9.2582e-15
6.93807e-15
6.67855e-15
8.56145e-15
1.42488e-14
2.74375e-14
5.542e-14
1.09325e-13
1.9602e-13
3.2687e-13
4.65333e-13
3.48209e-12
5.75261e-11
6.7756e-11
1.32865e-10
8.61908e-11
2.10552e-11
1.79709e-11
1.90342e-11
2.20138e-11
1.99968e-11
1.48952e-11
1.16503e-11
9.91379e-12
8.63306e-12
7.3518e-12
6.12282e-12
5.06485e-12
4.18269e-12
3.44018e-12
2.81643e-12
2.30358e-12
1.8916e-12
1.56402e-12
1.30185e-12
1.08784e-12
9.08613e-13
7.5502e-13
6.21367e-13
5.04393e-13
4.02199e-13
3.13613e-13
2.37722e-13
1.73902e-13
1.21626e-13
8.04656e-14
4.97495e-14
2.84097e-14
1.48628e-14
7.12295e-15
3.2282e-15
1.49397e-15
8.58606e-16
7.40417e-16
1.04091e-15
1.96195e-15
3.86137e-15
7.04503e-15
9.51817e-15
1.05057e-14
6.6234e-15
2.42092e-12
4.49615e-11
5.67129e-11
1.09318e-10
8.29251e-11
2.26093e-11
1.69306e-11
1.84984e-11
2.14363e-11
2.05808e-11
1.5879e-11
1.24424e-11
1.05709e-11
9.26391e-12
7.97596e-12
6.69492e-12
5.55572e-12
4.59228e-12
3.77811e-12
3.09227e-12
2.52658e-12
2.07125e-12
1.70915e-12
1.41948e-12
1.18295e-12
9.84584e-13
8.14233e-13
6.65709e-13
5.35588e-13
4.21959e-13
3.237e-13
2.39954e-13
1.70166e-13
1.13855e-13
7.05838e-14
3.95314e-14
1.92911e-14
7.7459e-15
2.29207e-15
3.88854e-16
1.51005e-17
1.50182e-17
1.67963e-16
4.71815e-16
1.04383e-15
1.89701e-15
4.78262e-15
1.27715e-14
4.38142e-14
1.46378e-13
1.68696e-12
3.47068e-11
4.7295e-11
8.93727e-11
7.75523e-11
2.42826e-11
1.6041e-11
1.79192e-11
2.07794e-11
2.09184e-11
1.67975e-11
1.32426e-11
1.12316e-11
9.88841e-12
8.60053e-12
7.27977e-12
6.06325e-12
5.01603e-12
4.12645e-12
3.3755e-12
2.75459e-12
2.25396e-12
1.85576e-12
1.53736e-12
1.27736e-12
1.05903e-12
8.71164e-13
7.07088e-13
5.63253e-13
4.37792e-13
3.29681e-13
2.38172e-13
1.62822e-13
1.03226e-13
5.89212e-14
2.88561e-14
1.1107e-14
2.74904e-15
2.12835e-16
7.4127e-18
7.03339e-16
3.64027e-15
1.01627e-14
2.16068e-14
4.3673e-14
8.64601e-14
1.89958e-13
4.35872e-13
1.08021e-12
2.62844e-12
1.17728e-12
2.65267e-11
3.91768e-11
7.27419e-11
7.07498e-11
2.57687e-11
1.53743e-11
1.72859e-11
2.00871e-11
2.10187e-11
1.76141e-11
1.40387e-11
1.18937e-11
1.0504e-11
9.21907e-12
7.87091e-12
6.58319e-12
5.45087e-12
4.48235e-12
3.66332e-12
2.98503e-12
2.43743e-12
2.00179e-12
1.65367e-12
1.36942e-12
1.13047e-12
9.24494e-13
7.4434e-13
5.86391e-13
4.48884e-13
3.30964e-13
2.3205e-13
1.5186e-13
9.008e-14
4.61731e-14
1.86835e-14
4.83684e-15
3.68075e-16
2.01906e-17
1.83431e-15
1.02169e-14
2.9994e-14
6.87125e-14
1.3873e-13
2.77151e-13
5.54989e-13
1.196e-12
2.65755e-12
6.22316e-12
1.42257e-11
8.2214e-13
2.01197e-11
3.21651e-11
5.90163e-11
6.31796e-11
2.68125e-11
1.49488e-11
1.66101e-11
1.93856e-11
2.09086e-11
1.82962e-11
1.48147e-11
1.25539e-11
1.11092e-11
9.82617e-12
8.46165e-12
7.11066e-12
5.89338e-12
4.84276e-12
3.95273e-12
3.21511e-12
2.61915e-12
2.14507e-12
1.76648e-12
1.45741e-12
1.19738e-12
9.72882e-13
7.76317e-13
6.04055e-13
4.54521e-13
3.27103e-13
2.21459e-13
1.3751e-13
7.50264e-14
3.32694e-14
1.00632e-14
1.17197e-15
1.30036e-18
1.99645e-15
1.461e-14
4.91832e-14
1.20263e-13
2.55832e-13
5.06839e-13
1.01095e-12
2.04212e-12
4.3972e-12
9.73813e-12
2.25893e-11
5.10751e-11
5.74079e-13
1.51727e-11
2.61401e-11
4.77526e-11
5.54068e-11
2.72476e-11
1.47349e-11
1.59203e-11
1.86871e-11
2.06258e-11
1.88197e-11
1.55515e-11
1.32075e-11
1.17027e-11
1.04177e-11
9.0455e-12
7.6403e-12
6.3398e-12
5.20452e-12
4.24067e-12
3.4419e-12
2.79653e-12
2.28331e-12
1.87377e-12
1.53958e-12
1.25822e-12
1.01502e-12
8.01934e-13
6.15403e-13
4.54132e-13
3.17843e-13
2.06503e-13
1.20269e-13
5.89332e-14
2.13062e-14
3.92479e-15
3.12789e-17
1.06291e-15
1.3952e-14
5.72398e-14
1.56427e-13
3.50264e-13
7.18234e-13
1.41229e-12
2.82491e-12
5.76576e-12
1.25149e-11
2.79912e-11
6.55503e-11
1.49252e-10
4.00579e-13
1.13947e-11
2.1014e-11
3.85314e-11
4.78552e-11
2.70116e-11
1.46668e-11
1.52506e-11
1.79954e-11
2.02116e-11
1.91724e-11
1.62283e-11
1.38478e-11
1.22834e-11
1.09908e-11
9.61656e-12
8.1665e-12
6.78603e-12
5.56434e-12
4.52403e-12
3.66245e-12
2.9669e-12
2.41419e-12
1.97357e-12
1.6142e-12
1.31154e-12
1.04969e-12
8.20227e-13
6.19749e-13
4.47346e-13
3.03167e-13
1.87558e-13
1.00911e-13
4.28897e-14
1.14032e-14
7.36264e-16
1.6333e-16
9.07345e-15
5.15807e-14
1.63364e-13
3.99091e-13
8.5004e-13
1.70814e-12
3.35328e-12
6.74832e-12
1.39504e-11
3.07022e-11
6.98948e-11
1.66415e-10
3.80287e-10
2.79199e-13
8.53262e-12
1.67107e-11
3.09865e-11
4.08002e-11
2.61371e-11
1.46582e-11
1.46278e-11
1.73111e-11
1.97047e-11
1.93546e-11
1.68245e-11
1.44662e-11
1.28497e-11
1.15438e-11
1.01699e-11
8.68364e-12
7.22776e-12
5.91888e-12
4.79977e-12
3.87385e-12
3.12761e-12
2.53545e-12
2.06394e-12
1.67965e-12
1.35598e-12
1.07581e-12
8.30409e-13
6.16618e-13
4.34032e-13
2.83329e-13
1.65287e-13
8.04694e-14
2.81171e-14
4.47235e-15
2.52046e-18
3.50823e-15
3.58471e-14
1.41887e-13
3.88705e-13
8.86751e-13
1.83134e-12
3.6391e-12
7.15982e-12
1.45342e-11
3.05038e-11
6.83303e-11
1.58709e-10
3.81442e-10
8.44475e-10
1.94367e-13
6.37496e-12
1.31548e-11
2.48144e-11
3.43949e-11
2.47238e-11
1.46212e-11
1.40651e-11
1.6636e-11
1.91376e-11
1.93777e-11
1.73226e-11
1.50526e-11
1.33995e-11
1.20758e-11
1.07018e-11
9.18646e-12
7.66057e-12
6.26477e-12
5.06496e-12
4.07334e-12
3.27617e-12
2.64493e-12
2.14309e-12
1.73448e-12
1.39038e-12
1.09253e-12
8.31926e-13
6.05794e-13
4.14347e-13
2.58883e-13
1.40634e-13
6.01784e-14
1.58116e-14
8.81951e-16
4.22128e-16
1.79741e-14
1.01381e-13
3.28217e-13
8.20728e-13
1.79e-12
3.62466e-12
7.16293e-12
1.4162e-11
2.90562e-11
6.20086e-11
1.41455e-10
3.32893e-10
7.82367e-10
1.55422e-09
1.35188e-13
4.75299e-12
1.02613e-11
1.97708e-11
2.8705e-11
2.29064e-11
1.44821e-11
1.35615e-11
1.59749e-11
1.85354e-11
1.92617e-11
1.77104e-11
1.55956e-11
1.39296e-11
1.25867e-11