/*--------------------------------*- C++ -*----------------------------------*\
  =========                 |
  \\      /  F ield         | OpenFOAM: The Open Source CFD Toolbox
   \\    /   O peration     | Website:  https://openfoam.org
    \\  /    A nd           | Version:  7
     \\/     M anipulation  |
\*---------------------------------------------------------------------------*/
FoamFile
{
    version     2.0;
    format      ascii;
    class       volScalarField;
    location    "0.33";
    object      p;
}
// * * * * * * * * * * * * * * * * * * * * * * * * * * * * * * * * * * * * * //

dimensions      [0 2 -2 0 0 0 0];

internalField   nonuniform List<scalar> 
70000
(
0.125496
0.0480462
0.0355353
0.0379943
0.038183
0.0371503
0.0362409
0.0355666
0.0350171
0.0345444
0.0341352
0.0337815
0.0334758
0.0332115
0.0329832
0.0327867
0.0326184
0.0324757
0.032356
0.0322577
0.0321791
0.032119
0.0320761
0.0320496
0.0320387
0.0320427
0.0320609
0.0320929
0.0321381
0.0321962
0.0322665
0.0323487
0.0324422
0.0325463
0.0326604
0.0327834
0.0329141
0.0330514
0.0331923
0.0333366
0.0334773
0.0336179
0.0337422
0.0338627
0.0339497
0.0340262
0.0340565
0.0340663
0.0340415
0.0339986
0.121128
0.048413
0.0357383
0.0380899
0.0382376
0.0371863
0.0362691
0.0355899
0.0350366
0.0345611
0.0341498
0.0337944
0.0334873
0.0332219
0.0329926
0.0327953
0.0326264
0.032483
0.0323629
0.0322641
0.0321851
0.0321246
0.0320814
0.0320546
0.0320434
0.0320472
0.0320652
0.032097
0.0321421
0.0321999
0.0322701
0.0323522
0.0324456
0.0325496
0.0326635
0.0327865
0.032917
0.0330543
0.033195
0.0333394
0.0334799
0.0336204
0.0337447
0.033865
0.033952
0.0340281
0.0340586
0.0340664
0.0340467
0.0340264
0.117548
0.0493529
0.0360786
0.038219
0.0383118
0.0372311
0.0363014
0.0356161
0.0350584
0.0345795
0.0341657
0.0338083
0.0334997
0.033233
0.0330027
0.0328045
0.0326348
0.0324908
0.0323701
0.0322709
0.0321914
0.0321305
0.032087
0.0320599
0.0320484
0.0320519
0.0320697
0.0321013
0.0321462
0.0322039
0.0322739
0.0323558
0.032449
0.0325529
0.0326668
0.0327896
0.0329201
0.0330573
0.033198
0.0333423
0.0334828
0.0336233
0.0337476
0.0338679
0.0339548
0.0340307
0.0340617
0.0340661
0.034063
0.0340406
0.114453
0.0504545
0.036548
0.0383929
0.0384127
0.0372886
0.0363395
0.035646
0.0350829
0.0346
0.034183
0.0338234
0.033513
0.0332449
0.0330134
0.0328142
0.0326437
0.032499
0.0323777
0.0322779
0.032198
0.0321366
0.0320927
0.0320653
0.0320536
0.0320568
0.0320743
0.0321057
0.0321504
0.0322078
0.0322777
0.0323594
0.0324525
0.0325563
0.03267
0.0327928
0.0329232
0.0330603
0.033201
0.0333453
0.0334858
0.0336264
0.0337508
0.0338712
0.0339584
0.034034
0.0340661
0.034066
0.0340856
0.0340409
0.111494
0.0515508
0.0371137
0.0386133
0.038547
0.0373664
0.0363884
0.035683
0.0351129
0.0346245
0.0342036
0.033841
0.0335283
0.0332584
0.0330255
0.0328251
0.0326536
0.032508
0.032386
0.0322856
0.0322051
0.0321433
0.032099
0.0320711
0.032059
0.0320619
0.0320792
0.0321103
0.0321548
0.032212
0.0322817
0.0323633
0.0324562
0.0325598
0.0326734
0.0327961
0.0329264
0.0330635
0.0332042
0.0333485
0.0334891
0.0336299
0.0337545
0.0338751
0.033963
0.0340381
0.0340725
0.0340667
0.0341102
0.0340343
0.108584
0.0525895
0.0377286
0.0388601
0.0387091
0.037466
0.0364507
0.0357293
0.0351501
0.0346549
0.0342287
0.0338622
0.0335466
0.0332744
0.0330397
0.0328378
0.0326651
0.0325185
0.0323956
0.0322944
0.0322132
0.0321508
0.032106
0.0320777
0.0320652
0.0320677
0.0320847
0.0321155
0.0321596
0.0322166
0.0322861
0.0323674
0.0324602
0.0325637
0.0326771
0.0327997
0.03293
0.033067
0.0332077
0.0333522
0.033493
0.0336339
0.0337591
0.0338799
0.033969
0.0340434
0.0340815
0.0340695
0.0341329
0.0340216
0.105719
0.0535518
0.0383591
0.0391118
0.0388857
0.0375828
0.0365253
0.0357848
0.0351951
0.0346917
0.0342592
0.033888
0.0335688
0.0332938
0.0330568
0.0328531
0.0326788
0.0325309
0.0324069
0.0323047
0.0322228
0.0321596
0.0321142
0.0320853
0.0320723
0.0320744
0.0320909
0.0321213
0.0321652
0.0322219
0.0322911
0.0323722
0.0324647
0.032568
0.0326813
0.0328038
0.032934
0.033071
0.0332118
0.0333563
0.0334975
0.0336387
0.0337647
0.0338858
0.0339767
0.0340504
0.0340933
0.0340759
0.0341513
0.034003
0.102905
0.0544296
0.0389892
0.0393565
0.0390658
0.0377104
0.0366088
0.0358474
0.0352465
0.0347344
0.0342949
0.0339183
0.033595
0.0333167
0.033077
0.0328711
0.032695
0.0325455
0.0324202
0.0323169
0.032234
0.03217
0.0321238
0.0320943
0.0320806
0.0320822
0.0320982
0.0321282
0.0321716
0.032228
0.0322968
0.0323776
0.0324699
0.032573
0.0326861
0.0328084
0.0329386
0.0330756
0.0332165
0.0333612
0.0335028
0.0336444
0.0337715
0.033893
0.0339865
0.0340597
0.034108
0.034087
0.0341641
0.0339793
0.100146
0.0552201
0.0396138
0.0395902
0.0392435
0.0378438
0.0366979
0.0359145
0.0353024
0.0347816
0.0343347
0.0339524
0.0336247
0.0333428
0.0331003
0.0328919
0.0327138
0.0325626
0.0324357
0.0323312
0.0322471
0.0321821
0.032135
0.0321047
0.0320904
0.0320913
0.0321067
0.0321362
0.0321792
0.0322351
0.0323036
0.032384
0.032476
0.0325788
0.0326917
0.0328139
0.032944
0.033081
0.033222
0.033367
0.0335091
0.0336512
0.0337798
0.0339018
0.0339985
0.0340717
0.0341257
0.0341034
0.034172
0.0339526
0.0974484
0.0559231
0.0402316
0.0398125
0.0394157
0.0379804
0.0367904
0.0359843
0.035361
0.0348315
0.0343774
0.0339893
0.0336571
0.0333716
0.033126
0.0329151
0.0327348
0.0325817
0.0324533
0.0323473
0.032262
0.032196
0.0321479
0.0321167
0.0321016
0.0321018
0.0321166
0.0321455
0.0321879
0.0322433
0.0323114
0.0323914
0.0324831
0.0325856
0.0326983
0.0328203
0.0329503
0.0330873
0.0332285
0.0333738
0.0335166
0.0336593
0.0337897
0.0339125
0.034013
0.0340869
0.0341465
0.0341255
0.0341769
0.0339259
0.0948145
0.056539
0.0408419
0.0400244
0.039581
0.0381186
0.0368855
0.0360555
0.0354211
0.0348832
0.0344219
0.0340281
0.0336914
0.0334022
0.0331536
0.0329402
0.0327576
0.0326027
0.0324726
0.0323651
0.0322786
0.0322113
0.0321622
0.0321301
0.0321141
0.0321135
0.0321277
0.0321559
0.0321978
0.0322527
0.0323202
0.0323999
0.0324911
0.0325933
0.0327058
0.0328276
0.0329575
0.0330946
0.033236
0.0333816
0.0335254
0.0336688
0.0338013
0.0339253
0.03403
0.0341058
0.0341705
0.0341532
0.0341817
0.0339032
0.0922476
0.0570682
0.0414432
0.0402267
0.0397385
0.0382576
0.0369826
0.0361277
0.035482
0.034936
0.0344676
0.0340681
0.0337268
0.0334341
0.0331825
0.0329665
0.0327817
0.0326249
0.0324931
0.0323842
0.0322963
0.0322279
0.0321777
0.0321446
0.0321278
0.0321264
0.0321398
0.0321674
0.0322087
0.032263
0.0323301
0.0324093
0.0325001
0.032602
0.0327141
0.0328358
0.0329656
0.0331028
0.0332445
0.0333905
0.0335353
0.0336796
0.0338146
0.0339402
0.0340494
0.0341284
0.0341978
0.034186
0.0341898
0.0338892
0.0897501
0.057511
0.0420336
0.0404208
0.0398875
0.0383966
0.0370817
0.0362008
0.0355434
0.0349895
0.0345141
0.0341089
0.0337631
0.0334668
0.0332122
0.0329936
0.0328067
0.0326479
0.0325145
0.0324041
0.0323149
0.0322454
0.0321941
0.0321601
0.0321424
0.0321402
0.0321529
0.0321798
0.0322204
0.0322742
0.0323407
0.0324194
0.0325099
0.0326114
0.0327233
0.0328448
0.0329746
0.0331118
0.0332539
0.0334004
0.0335464
0.0336918
0.0338295
0.0339572
0.0340712
0.0341546
0.0342283
0.0342237
0.0342042
0.033889
0.0873247
0.0578685
0.0426106
0.040608
0.0400275
0.0385347
0.0371826
0.0362747
0.0356053
0.0350436
0.0345612
0.0341503
0.0338
0.0335001
0.0332425
0.0330214
0.0328323
0.0326716
0.0325365
0.0324247
0.0323342
0.0322635
0.0322111
0.0321762
0.0321576
0.0321546
0.0321665
0.0321927
0.0322327
0.0322859
0.0323519
0.0324302
0.0325202
0.0326214
0.032733
0.0328544
0.0329841
0.0331215
0.0332641
0.0334112
0.0335585
0.0337053
0.0338458
0.0339763
0.0340951
0.0341842
0.0342622
0.0342659
0.0342275
0.0339063
0.0849736
0.0581418
0.0431713
0.0407898
0.0401581
0.0386711
0.0372852
0.0363494
0.0356674
0.0350981
0.0346089
0.0341922
0.0338374
0.0335338
0.0332732
0.0330496
0.0328583
0.0326958
0.032559
0.0324457
0.0323539
0.032282
0.0322286
0.0321926
0.0321732
0.0321694
0.0321805
0.0322061
0.0322454
0.032298
0.0323635
0.0324413
0.0325309
0.0326318
0.0327432
0.0328644
0.0329942
0.0331317
0.0332748
0.0334226
0.0335714
0.0337197
0.0338633
0.0339971
0.034121
0.0342167
0.0342993
0.0343122
0.0342613
0.0339441
0.0826988
0.0583327
0.0437125
0.0409676
0.0402791
0.0388048
0.0373893
0.0364248
0.0357298
0.035153
0.0346572
0.0342347
0.0338753
0.0335681
0.0333044
0.0330782
0.0328847
0.0327202
0.0325818
0.0324671
0.0323739
0.0323008
0.0322463
0.0322094
0.0321891
0.0321844
0.0321948
0.0322197
0.0322584
0.0323104
0.0323754
0.0324527
0.0325419
0.0326424
0.0327536
0.0328747
0.0330045
0.0331423
0.033286
0.0334346
0.0335849
0.0337351
0.0338819
0.0340194
0.0341486
0.0342518
0.0343397
0.0343628
0.0343067
0.0340037
0.0805022
0.058443
0.0442313
0.041143
0.0403904
0.0389347
0.0374945
0.0365012
0.0357924
0.0352082
0.0347059
0.0342776
0.0339136
0.0336027
0.033336
0.0331072
0.0329115
0.0327451
0.032605
0.0324887
0.0323942
0.0323199
0.0322643
0.0322264
0.0322052
0.0321997
0.0322093
0.0322335
0.0322715
0.032323
0.0323874
0.0324642
0.032553
0.0326532
0.0327642
0.0328851
0.0330151
0.0331531
0.0332975
0.033447
0.033599
0.0337512
0.0339013
0.0340431
0.0341778
0.0342891
0.0343833
0.0344176
0.034364
0.0340855
0.0783848
0.0584754
0.0447244
0.0413171
0.040492
0.0390598
0.0376006
0.0365783
0.0358551
0.0352637
0.034755
0.034321
0.0339523
0.0336377
0.0333679
0.0331365
0.0329385
0.0327702
0.0326284
0.0325106
0.0324147
0.0323392
0.0322825
0.0322436
0.0322214
0.0322151
0.032224
0.0322474
0.0322848
0.0323356
0.0323995
0.0324758
0.0325642
0.0326641
0.0327748
0.0328957
0.0330257
0.0331641
0.0333092
0.0334596
0.0336134
0.0337679
0.0339215
0.034068
0.0342084
0.0343284
0.03443
0.0344769
0.0344332
0.0341886
0.0763475
0.0584327
0.0451892
0.0414907
0.0405843
0.0391793
0.037707
0.0366563
0.0359178
0.0353192
0.0348045
0.0343648
0.0339914
0.0336731
0.0334002
0.0331662
0.0329659
0.0327956
0.032652
0.0325327
0.0324355
0.0323587
0.0323009
0.032261
0.0322378
0.0322306
0.0322387
0.0322614
0.0322981
0.0323483
0.0324116
0.0324875
0.0325754
0.032675
0.0327855
0.0329063
0.0330365
0.0331752
0.033321
0.0334726
0.0336282
0.0337852
0.0339423
0.0340939
0.0342404
0.0343695
0.0344798
0.0345409
0.0345137
0.0343116
0.0743907
0.0583185
0.0456227
0.0416645
0.0406677
0.0392921
0.0378132
0.0367351
0.0359805
0.0353747
0.0348542
0.0344089
0.0340309
0.0337088
0.0334328
0.0331961
0.0329936
0.0328213
0.032676
0.032555
0.0324564
0.0323784
0.0323195
0.0322784
0.0322543
0.0322463
0.0322535
0.0322754
0.0323114
0.032361
0.0324237
0.0324991
0.0325866
0.0326858
0.0327961
0.0329168
0.0330472
0.0331863
0.0333329
0.0334857
0.0336432
0.033803
0.0339638
0.0341208
0.0342738
0.0344124
0.0345328
0.0346097
0.034605
0.0344526
0.0725143
0.0581367
0.0460222
0.0418385
0.0407428
0.0393974
0.0379186
0.0368146
0.0360431
0.0354301
0.0349041
0.0344534
0.0340707
0.0337448
0.0334657
0.0332264
0.0330215
0.0328472
0.0327001
0.0325776
0.0324776
0.0323982
0.0323381
0.032296
0.0322709
0.032262
0.0322684
0.0322895
0.0323248
0.0323737
0.0324358
0.0325106
0.0325977
0.0326966
0.0328067
0.0329274
0.0330579
0.0331974
0.0333449
0.033499
0.0336585
0.0338211
0.0339859
0.0341485
0.0343084
0.034457
0.034589
0.0346835
0.0347063
0.0346094
0.0707179
0.0578915
0.0463854
0.0420127
0.0408103
0.0394945
0.0380225
0.0368947
0.0361057
0.0354853
0.0349541
0.0344981
0.0341107
0.033781
0.0334989
0.0332569
0.0330497
0.0328734
0.0327245
0.0326004
0.0324989
0.0324182
0.0323569
0.0323138
0.0322877
0.0322777
0.0322833
0.0323036
0.0323381
0.0323864
0.0324478
0.0325221
0.0326088
0.0327073
0.0328171
0.0329378
0.0330685
0.0332085
0.0333569
0.0335124
0.033674
0.0338396
0.0340086
0.0341771
0.0343443
0.0345034
0.0346482
0.0347623
0.0348169
0.0347796
0.0690007
0.0575878
0.04671
0.0421865
0.040871
0.0395829
0.0381241
0.0369752
0.0361682
0.0355401
0.0350041
0.0345431
0.034151
0.0338175
0.0335323
0.0332876
0.0330782
0.0328997
0.032749
0.0326233
0.0325204
0.0324384
0.0323759
0.0323316
0.0323044
0.0322935
0.0322982
0.0323177
0.0323514
0.032399
0.0324598
0.0325336
0.0326197
0.0327179
0.0328275
0.0329481
0.033079
0.0332195
0.0333688
0.0335258
0.0336896
0.0338585
0.0340317
0.0342063
0.0343813
0.0345514
0.0347105
0.0348459
0.0349356
0.034961
0.0673614
0.0572305
0.0469938
0.042359
0.0409259
0.0396623
0.0382225
0.037056
0.0362306
0.0355945
0.035054
0.0345882
0.0341915
0.0338542
0.0335659
0.0333186
0.0331068
0.0329263
0.0327738
0.0326464
0.032542
0.0324587
0.0323949
0.0323495
0.0323212
0.0323094
0.0323131
0.0323317
0.0323647
0.0324115
0.0324717
0.0325449
0.0326306
0.0327283
0.0328378
0.0329583
0.0330895
0.0332305
0.0333808
0.0335393
0.0337054
0.0338776
0.0340553
0.0342363
0.0344195
0.034601
0.0347756
0.0349341
0.0350615
0.0351512
0.0657985
0.056825
0.0472354
0.0425289
0.0409759
0.0397323
0.0383169
0.0371366
0.0362928
0.0356483
0.0351036
0.0346333
0.0342321
0.0338911
0.0335996
0.0333497
0.0331356
0.032953
0.0327987
0.0326696
0.0325637
0.032479
0.032414
0.0323674
0.0323381
0.0323252
0.032328
0.0323457
0.0323779
0.032424
0.0324835
0.0325561
0.0326412
0.0327386
0.0328478
0.0329684
0.0330997
0.0332413
0.0333926
0.0335528
0.0337213
0.0338969
0.0340793
0.0342669
0.0344587
0.0346522
0.0348433
0.0350264
0.0351933
0.0353479
0.0643099
0.0563767
0.0474335
0.0426945
0.0410219
0.039793
0.0384065
0.0372166
0.0363549
0.0357016
0.0351527
0.0346783
0.0342728
0.033928
0.0336335
0.033381
0.0331645
0.0329799
0.0328237
0.032693
0.0325855
0.0324994
0.0324331
0.0323853
0.0323549
0.032341
0.0323428
0.0323597
0.032391
0.0324363
0.0324951
0.0325671
0.0326517
0.0327487
0.0328577
0.0329782
0.0331098
0.033252
0.0334043
0.0335662
0.0337371
0.0339163
0.0341036
0.0342979
0.0344988
0.0347048
0.0349134
0.0351223
0.0353298
0.0355486
0.0628936
0.0558912
0.0475871
0.042854
0.0410649
0.0398447
0.0384903
0.0372957
0.0364168
0.0357541
0.0352013
0.0347232
0.0343136
0.033965
0.0336674
0.0334123
0.0331936
0.0330069
0.0328488
0.0327164
0.0326074
0.0325199
0.0324523
0.0324033
0.0323718
0.0323568
0.0323576
0.0323735
0.032404
0.0324485
0.0325066
0.0325779
0.032662
0.0327586
0.0328673
0.0329877
0.0331196
0.0332624
0.0334158
0.0335794
0.0337529
0.0339358
0.0341281
0.0343294
0.0345397
0.0347586
0.0349855
0.035221
0.0354697
0.0357511
0.0615471
0.0553742
0.0476959
0.0430049
0.0411055
0.0398876
0.0385676
0.0373732
0.0364784
0.0358059
0.0352493
0.0347678
0.0343542
0.034002
0.0337014
0.0334437
0.0332227
0.0330339
0.0328739
0.0327399
0.0326293
0.0325404
0.0324715
0.0324212
0.0323885
0.0323725
0.0323723
0.0323872
0.0324168
0.0324604
0.0325178
0.0325884
0.032672
0.0327681
0.0328766
0.032997
0.0331291
0.0332725
0.0334271
0.0335924
0.0337685
0.0339552
0.0341527
0.0343611
0.0345811
0.0348133
0.035059
0.0353219
0.0356114
0.0359532
0.0602677
0.0548311
0.04776
0.0431447
0.0411445
0.0399222
0.0386378
0.0374485
0.0365394
0.0358569
0.0352964
0.0348119
0.0343947
0.0340389
0.0337353
0.033475
0.0332518
0.033061
0.0328991
0.0327633
0.0326512
0.0325609
0.0324906
0.0324391
0.0324052
0.0323881
0.0323868
0.0324008
0.0324294
0.0324722
0.0325287
0.0325987
0.0326816
0.0327773
0.0328855
0.0330059
0.0331382
0.0332823
0.033438
0.0336052
0.0337839
0.0339744
0.0341772
0.0343929
0.0346227
0.0348686
0.0351335
0.0354238
0.0357536
0.0361526
0.0590526
0.0542673
0.0477801
0.0432711
0.0411821
0.0399494
0.0387002
0.0375208
0.0365999
0.0359071
0.0353425
0.0348555
0.0344349
0.0340757
0.0337691
0.0335063
0.0332808
0.033088
0.0329243
0.0327868
0.0326731
0.0325813
0.0325097
0.0324569
0.0324218
0.0324035
0.0324011
0.0324141
0.0324418
0.0324837
0.0325394
0.0326086
0.0326909
0.0327862
0.032894
0.0330143
0.0331469
0.0332916
0.0334485
0.0336175
0.033799
0.0339934
0.0342015
0.0344245
0.0346645
0.0349241
0.0352084
0.035526
0.0358946
0.0363474
0.0578988
0.053688
0.0477571
0.0433814
0.0412184
0.0399696
0.0387545
0.0375896
0.0366593
0.0359563
0.0353876
0.0348983
0.0344748
0.0341123
0.0338028
0.0335375
0.0333098
0.0331149
0.0329494
0.0328102
0.0326949
0.0326016
0.0325286
0.0324745
0.0324382
0.0324187
0.0324153
0.0324272
0.0324539
0.0324948
0.0325497
0.0326182
0.0326999
0.0327946
0.0329021
0.0330223
0.0331551
0.0333005
0.0334585
0.0336293
0.0338135
0.0340118
0.0342254
0.0344558
0.0347059
0.0349794
0.0352829
0.0356272
0.0360329
0.0365353
0.0568032
0.0530978
0.0476929
0.0434737
0.0412531
0.0399838
0.0388004
0.0376541
0.0367175
0.0360046
0.0354315
0.0349403
0.0345142
0.0341485
0.0338362
0.0335685
0.0333386
0.0331418
0.0329744
0.0328335
0.0327166
0.0326218
0.0325474
0.032492
0.0324544
0.0324337
0.0324291
0.03244
0.0324656
0.0325056
0.0325596
0.0326273
0.0327083
0.0328025
0.0329096
0.0330297
0.0331627
0.0333087
0.0334678
0.0336405
0.0338275
0.0340297
0.0342486
0.0344865
0.0347467
0.0350339
0.0353563
0.0357264
0.036167
0.0367145
0.0557629
0.0525009
0.0475894
0.043546
0.0412853
0.0399925
0.038838
0.0377135
0.036774
0.0360518
0.0354742
0.0349812
0.0345529
0.0341844
0.0338692
0.0335992
0.0333672
0.0331684
0.0329992
0.0328566
0.0327381
0.0326418
0.032566
0.0325092
0.0324704
0.0324485
0.0324427
0.0324524
0.032477
0.032516
0.0325691
0.0326359
0.0327162
0.0328098
0.0329166
0.0330365
0.0331697
0.0333162
0.0334765
0.033651
0.0338406
0.0340467
0.034271
0.0345162
0.0347864
0.0350871
0.0354277
0.0358224
0.0362953
0.0368831
0.0547747
0.0519012
0.0474492
0.0435968
0.0413143
0.0399965
0.0388673
0.0377672
0.0368283
0.0360977
0.0355155
0.0350209
0.0345908
0.0342197
0.0339019
0.0336295
0.0333955
0.0331948
0.0330238
0.0328795
0.0327594
0.0326616
0.0325843
0.0325262
0.032486
0.0324629
0.0324559
0.0324644
0.0324879
0.0325259
0.032578
0.032644
0.0327235
0.0328165
0.0329228
0.0330426
0.0331758
0.0333229
0.0334842
0.0336605
0.0338528
0.0340626
0.0342922
0.0345447
0.0348245
0.0351383
0.0354964
0.0359141
0.0364163
0.0370393
0.0538355
0.0513019
0.0472751
0.0436247
0.0413386
0.0399962
0.0388885
0.0378146
0.0368798
0.0361423
0.0355553
0.0350592
0.0346277
0.0342544
0.0339341
0.0336594
0.0334234
0.0332209
0.0330481
0.0329021
0.0327804
0.0326811
0.0326024
0.0325428
0.0325013
0.0324769
0.0324687
0.032476
0.0324984
0.0325353
0.0325864
0.0326514
0.0327301
0.0328224
0.0329283
0.0330478
0.0331811
0.0333287
0.033491
0.033669
0.0338638
0.0340773
0.0343121
0.0345714
0.0348606
0.0351869
0.0355614
0.0360001
0.0365284
0.0371815
0.0529424
0.0507061
0.0470703
0.043629
0.0413569
0.039992
0.0389021
0.0378553
0.0369281
0.0361853
0.0355936
0.035096
0.0346636
0.0342883
0.0339657
0.0336888
0.0334509
0.0332465
0.033072
0.0329243
0.0328011
0.0327002
0.03262
0.0325591
0.0325162
0.0324905
0.032481
0.0324871
0.0325083
0.0325441
0.0325941
0.0326581
0.032736
0.0328275
0.0329329
0.0330521
0.0331854
0.0333334
0.0334966
0.0336762
0.0338735
0.0340905
0.0343301
0.0345961
0.0348942
0.0352321
0.0356217
0.0360794
0.0366303
0.0373082
0.0520925
0.0501161
0.046838
0.0436092
0.0413678
0.039984
0.0389084
0.0378889
0.0369724
0.0362264
0.0356302
0.0351312
0.0346981
0.0343213
0.0339965
0.0337176
0.0334778
0.0332717
0.0330955
0.0329462
0.0328213
0.032719
0.0326373
0.0325749
0.0325307
0.0325036
0.0324928
0.0324976
0.0325175
0.0325522
0.0326011
0.0326641
0.032741
0.0328318
0.0329365
0.0330553
0.0331886
0.0333368
0.0335009
0.0336819
0.0338815
0.0341018
0.034346
0.0346182
0.0349246
0.0352732
0.0356764
0.0361506
0.0367205
0.0374178
0.051283
0.0495339
0.0465815
0.0435653
0.0413696
0.0399722
0.0389079
0.0379151
0.0370123
0.0362652
0.0356651
0.0351647
0.0347311
0.0343532
0.0340266
0.0337457
0.0335041
0.0332963
0.0331184
0.0329675
0.0328411
0.0327372
0.032654
0.0325902
0.0325446
0.0325161
0.0325039
0.0325074
0.0325261
0.0325595
0.0326072
0.0326691
0.032745
0.032835
0.032939
0.0330573
0.0331905
0.0333389
0.0335037
0.033686
0.0338876
0.034111
0.0343594
0.0346373
0.0349512
0.0353094
0.0357244
0.0362127
0.0367977
0.0375092
0.0505113
0.0489612
0.0463041
0.0434975
0.0413609
0.0399563
0.0389011
0.037934
0.0370473
0.0363014
0.0356981
0.0351962
0.0347625
0.0343838
0.0340557
0.033773
0.0335296
0.0333202
0.0331408
0.0329883
0.0328603
0.0327549
0.0326702
0.0326049
0.0325578
0.0325279
0.0325144
0.0325165
0.0325339
0.032566
0.0326125
0.0326732
0.0327481
0.0328371
0.0329403
0.0330581
0.0331909
0.0333395
0.0335048
0.0336882
0.0338916
0.0341177
0.0343699
0.0346529
0.0349734
0.0353399
0.0357649
0.0362644
0.0368608
0.0375812
0.0497749
0.0483992
0.046009
0.0434066
0.0413405
0.039936
0.0388884
0.0379455
0.0370767
0.0363345
0.0357289
0.0352258
0.0347921
0.0344131
0.0340836
0.0337993
0.0335543
0.0333434
0.0331624
0.0330083
0.0328788
0.0327719
0.0326857
0.032619
0.0325704
0.032539
0.0325241
0.0325248
0.0325408
0.0325715
0.0326167
0.0326762
0.0327499
0.0328379
0.0329403
0.0330574
0.0331898
0.0333383
0.0335039
0.0336882
0.0338931
0.0341215
0.034377
0.0346644
0.0349904
0.0353639
0.0357968
0.0363047
0.0369085
0.0376327
0.0490715
0.0478488
0.0456992
0.0432935
0.0413073
0.0399106
0.0388701
0.0379498
0.0371002
0.0363641
0.0357574
0.0352532
0.0348197
0.0344407
0.0341103
0.0338245
0.0335781
0.0333657
0.0331832
0.0330277
0.0328966
0.0327882
0.0327005
0.0326323
0.0325822
0.0325494
0.0325329
0.0325322
0.0325467
0.0325761
0.0326199
0.0326781
0.0327506
0.0328374
0.0329387
0.033055
0.0331869
0.0333351
0.0335008
0.0336857
0.0338919
0.0341221
0.0343802
0.0346712
0.0350018
0.0353805
0.0358193
0.0363326
0.0369398
0.037663
0.0483988
0.0473106
0.0453774
0.0431596
0.0412604
0.0398793
0.0388463
0.037947
0.0371175
0.0363898
0.0357833
0.0352783
0.0348452
0.0344665
0.0341355
0.0338486
0.0336007
0.0333869
0.0332031
0.0330461
0.0329136
0.0328036
0.0327145
0.0326447
0.0325931
0.0325588
0.0325408
0.0325386
0.0325516
0.0325794
0.0326218
0.0326786
0.0327498
0.0328353
0.0329356
0.0330509
0.033182
0.0333298
0.0334954
0.0336805
0.0338875
0.0341191
0.0343792
0.0346728
0.0350066
0.0353891
0.0358314
0.0363471
0.036954
0.0376713
0.0477549
0.0467852
0.0450462
0.0430063
0.0411994
0.0398415
0.0388173
0.0379374
0.0371284
0.0364109
0.0358063
0.0353011
0.0348685
0.0344903
0.0341591
0.0338712
0.0336222
0.0334071
0.0332219
0.0330635
0.0329296
0.0328182
0.0327275
0.0326562
0.0326031
0.0325671
0.0325476
0.0325438
0.0325553
0.0325816
0.0326224
0.0326777
0.0327474
0.0328316
0.0329306
0.0330449
0.033175
0.0333221
0.0334873
0.0336723
0.0338796
0.034112
0.0343733
0.0346686
0.0350044
0.0353887
0.0358322
0.0363474
0.0369501
0.0376572
0.0471377
0.0462725
0.0447078
0.0428353
0.041124
0.0397962
0.0387828
0.0379211
0.0371327
0.0364273
0.035826
0.0353212
0.0348893
0.0345119
0.0341809
0.0338924
0.0336422
0.033426
0.0332396
0.0330799
0.0329446
0.0328316
0.0327395
0.0326666
0.0326119
0.0325744
0.0325533
0.0325479
0.0325577
0.0325824
0.0326216
0.0326753
0.0327434
0.0328261
0.0329237
0.0330366
0.0331656
0.0333117
0.0334762
0.0336608
0.0338679
0.0341004
0.0343621
0.034658
0.0349943
0.0353787
0.035821
0.0363327
0.0369276
0.0376202
0.0465457
0.0457728
0.0443644
0.0426482
0.0410341
0.0397429
0.0387428
0.0378984
0.0371303
0.0364384
0.0358421
0.0353384
0.0349075
0.0345313
0.0342008
0.0339118
0.0336608
0.0334435
0.033256
0.033095
0.0329583
0.032844
0.0327503
0.0326759
0.0326196
0.0325805
0.0325577
0.0325506
0.0325587
0.0325816
0.0326192
0.0326711
0.0327376
0.0328186
0.0329146
0.033026
0.0331536
0.0332985
0.0334618
0.0336456
0.0338519
0.0340838
0.0343451
0.0346404
0.0349758
0.0353584
0.0357972
0.0363024
0.036886
0.0375602
0.0459771
0.0452859
0.0440175
0.0424467
0.0409299
0.0396808
0.038697
0.0378695
0.0371212
0.036444
0.0358543
0.0353527
0.034923
0.0345481
0.0342184
0.0339294
0.0336777
0.0334595
0.0332709
0.0331088
0.0329708
0.032855
0.0327598
0.0326839
0.032626
0.0325852
0.0325607
0.0325518
0.0325582
0.0325793
0.032615
0.0326651
0.0327297
0.0328089
0.0329031
0.0330129
0.0331388
0.0332821
0.033444
0.0336263
0.0338313
0.0340619
0.0343217
0.0346153
0.0349482
0.035327
0.0357599
0.0362558
0.0368249
0.0374772
0.0454305
0.0448117
0.0436688
0.0422326
0.040812
0.0396094
0.0386451
0.0378345
0.0371056
0.0364438
0.0358621
0.0353635
0.0349355
0.0345622
0.0342336
0.0339449
0.0336928
0.0334738
0.0332843
0.0331211
0.0329818
0.0328646
0.032768
0.0326905
0.0326309
0.0325884
0.0325621
0.0325515
0.0325559
0.0325752
0.0326089
0.0326571
0.0327197
0.0327969
0.0328892
0.0329969
0.0331209
0.0332622
0.0334222
0.0336026
0.0338057
0.0340342
0.0342915
0.0345821
0.0349109
0.0352841
0.0357088
0.0361926
0.0367442
0.0373713
0.0449044
0.0443498
0.0433194
0.0420075
0.0406809
0.0395283
0.0385868
0.0377934
0.0370833
0.0364376
0.0358653
0.0353708
0.034945
0.0345735
0.0342463
0.0339582
0.0337059
0.0334863
0.0332959
0.0331317
0.0329912
0.0328727
0.0327746
0.0326955
0.0326343
0.03259
0.0325619
0.0325494
0.0325519
0.0325691
0.0326008
0.0326469
0.0327073
0.0327824
0.0328724
0.0329779
0.0330996
0.0332387
0.0333963
0.0335742
0.0337746
0.0340001
0.034254
0.0345402
0.0348635
0.0352291
0.0356433
0.0361126
0.0366438
0.0372428
0.0443976
0.0439001
0.0429706
0.0417729
0.0405373
0.0394373
0.0385216
0.0377462
0.0370547
0.0364253
0.0358635
0.0353742
0.0349511
0.0345818
0.0342562
0.033969
0.0337169
0.0334968
0.0333057
0.0331405
0.0329989
0.0328791
0.0327795
0.0326988
0.0326359
0.0325899
0.0325599
0.0325454
0.0325459
0.032561
0.0325905
0.0326343
0.0326924
0.0327651
0.0328527
0.0329556
0.0330748
0.0332111
0.0333659
0.0335408
0.0337378
0.0339594
0.0342087
0.0344893
0.0348054
0.0351616
0.0355632
0.0360155
0.0365238
0.0370923
0.0439088
0.0434621
0.0426232
0.0415304
0.0403821
0.0393364
0.0384492
0.0376928
0.0370196
0.0364068
0.0358564
0.0353735
0.0349538
0.0345869
0.0342632
0.0339772
0.0337254
0.0335051
0.0333134
0.0331474
0.0330047
0.0328836
0.0327826
0.0327004
0.0326357
0.0325879
0.032556
0.0325394
0.0325377
0.0325506
0.0325778
0.0326192
0.0326748
0.0327449
0.0328297
0.0329299
0.033046
0.0331792
0.0333306
0.0335018
0.0336947
0.0339116
0.0341553
0.0344289
0.0347362
0.0350812
0.0354682
0.0359014
0.0363846
0.0369204
0.043437
0.0430355
0.0422779
0.0412813
0.0402162
0.0392256
0.0383694
0.0376332
0.0369782
0.0363821
0.0358439
0.0353682
0.0349526
0.0345885
0.0342671
0.0339825
0.0337314
0.0335111
0.0333189
0.0331521
0.0330085
0.0328862
0.0327837
0.0326999
0.0326335
0.0325838
0.0325499
0.0325312
0.0325273
0.0325378
0.0325625
0.0326013
0.0326542
0.0327214
0.0328033
0.0329003
0.0330131
0.0331427
0.0332902
0.0334571
0.033645
0.0338563
0.0340932
0.0343586
0.0346557
0.0349877
0.0353582
0.0357703
0.0362264
0.0367279
0.0429812
0.04262
0.0419354
0.0410266
0.0400405
0.0391052
0.0382819
0.0375671
0.0369305
0.036351
0.0358257
0.0353582
0.0349475
0.0345866
0.0342676
0.0339848
0.0337345
0.0335145
0.0333219
0.0331545
0.03301
0.0328865
0.0327827
0.0326973
0.0326292
0.0325775
0.0325415
0.0325206
0.0325144
0.0325224
0.0325445
0.0325805
0.0326305
0.0326946
0.0327732
0.0328667
0.0329758
0.0331013
0.0332443
0.0334062
0.0335885
0.0337931
0.0340221
0.034278
0.0345635
0.034881
0.0352333
0.0356225
0.0360499
0.0365156
0.0425403
0.0422151
0.0415962
0.0407677
0.0398559
0.0389754
0.0381867
0.0374946
0.0368765
0.0363137
0.0358018
0.0353433
0.0349381
0.0345809
0.0342647
0.0339838
0.0337348
0.0335151
0.0333224
0.0331545
0.0330091
0.0328845
0.0327793
0.0326923
0.0326224
0.0325688
0.0325307
0.0325075
0.0324988
0.0325042
0.0325235
0.0325566
0.0326034
0.0326642
0.0327392
0.0328289
0.0329338
0.0330547
0.0331927
0.0333489
0.0335246
0.0337217
0.0339418
0.034187
0.0344594
0.034761
0.0350936
0.0354583
0.0358557
0.0362848
0.0421135
0.0418204
0.0412605
0.0405054
0.0396635
0.0388367
0.0380837
0.0374153
0.0368162
0.0362701
0.0357719
0.0353231
0.0349242
0.0345712
0.034258
0.0339794
0.0337318
0.0335128
0.0333202
0.0331518
0.0330057
0.03288
0.0327735
0.0326849
0.0326132
0.0325575
0.0325172
0.0324917
0.0324804
0.032483
0.0324993
0.0325293
0.0325727
0.0326299
0.032701
0.0327865
0.0328868
0.0330027
0.033135
0.0332848
0.0334533
0.0336418
0.033852
0.0340853
0.0343435
0.0346277
0.0349392
0.0352784
0.0356447
0.0360365
0.0416999
0.0414356
0.0409288
0.0402405
0.0394641
0.0386896
0.0379729
0.0373293
0.0367495
0.0362202
0.0357359
0.0352975
0.0349056
0.0345573
0.0342475
0.0339714
0.0337254
0.0335073
0.0333149
0.0331463
0.0329994
0.0328728
0.0327649
0.0326747
0.0326012
0.0325435
0.0325009
0.0324729
0.0324589
0.0324587
0.0324719
0.0324984
0.0325383
0.0325915
0.0326584
0.0327393
0.0328345
0.0329448
0.0330709
0.0332137
0.0333741
0.0335533
0.0337525
0.0339729
0.0342156
0.0344814
0.0347707
0.0350832
0.0354178
0.035772
0.0412988
0.0410603
0.0406013
0.0399739
0.0392585
0.0385345
0.0378544
0.0372365
0.0366765
0.036164
0.0356939
0.0352664
0.034882
0.0345389
0.0342329
0.0339595
0.0337155
0.0334985
0.0333065
0.0331377
0.0329902
0.0328627
0.0327535
0.0326618
0.0325864
0.0325266
0.0324817
0.032451
0.0324342
0.0324309
0.0324408
0.0324638
0.0324998
0.0325488
0.0326112
0.032687
0.0327768
0.032881
0.0330003
0.0331353
0.0332869
0.0334559
0.0336432
0.0338497
0.0340759
0.0343222
0.0345884
0.0348736
0.0351761
0.0354927
0.0409094
0.040694
0.0402781
0.0397062
0.0390475
0.038372
0.0377284
0.0371369
0.0365971
0.0361016
0.0356458
0.0352295
0.0348533
0.0345159
0.034214
0.0339437
0.0337018
0.033486
0.0332946
0.0331258
0.0329779
0.0328494
0.032739
0.0326457
0.0325684
0.0325065
0.0324591
0.0324258
0.0324061
0.0323995
0.032406
0.0324251
0.032457
0.0325016
0.032559
0.0326295
0.0327133
0.0328109
0.0329228
0.0330494
0.0331914
0.0333495
0.0335241
0.0337157
0.0339246
0.0341505
0.0343929
0.0346503
0.0349205
0.0352
0.0405312
0.0403364
0.0399593
0.0394379
0.038832
0.0382028
0.0375953
0.0370305
0.0365112
0.0360329
0.0355916
0.0351868
0.0348192
0.034488
0.0341906
0.0339236
0.0336841
0.0334699
0.0332792
0.0331105
0.0329622
0.0328329
0.0327213
0.0326264
0.0325472
0.0324831
0.0324332
0.0323971
0.0323743
0.0323644
0.0323671
0.0323823
0.0324098
0.0324496
0.0325018
0.0325665
0.0326439
0.0327344
0.0328383
0.0329559
0.0330877
0.033234
0.0333951
0.0335711
0.0337619
0.0339669
0.0341849
0.0344143
0.0346523
0.0348953
0.0401633
0.0399871
0.039645
0.0391697
0.0386125
0.0380274
0.0374552
0.0369173
0.036419
0.0359579
0.0355311
0.0351382
0.0347797
0.0344551
0.0341625
0.0338991
0.0336622
0.0334497
0.03326
0.0330915
0.0329429
0.0328128
0.0327001
0.0326036
0.0325225
0.0324561
0.0324037
0.0323647
0.0323387
0.0323252
0.0323241
0.032335
0.0323579
0.0323926
0.0324392
0.0324977
0.0325684
0.0326512
0.0327466
0.0328546
0.0329755
0.0331095
0.0332564
0.0334162
0.0335882
0.0337718
0.0339652
0.0341666
0.0343728
0.0345801
0.0398053
0.0396458
0.0393353
0.0389018
0.0383897
0.0378463
0.0373085
0.0367976
0.0363204
0.0358766
0.0354645
0.0350837