/*--------------------------------*- C++ -*----------------------------------*\
  =========                 |
  \\      /  F ield         | OpenFOAM: The Open Source CFD Toolbox
   \\    /   O peration     | Website:  https://openfoam.org
    \\  /    A nd           | Version:  7
     \\/     M anipulation  |
\*---------------------------------------------------------------------------*/
FoamFile
{
    version     2.0;
    format      ascii;
    class       surfaceScalarField;
    location    "0.33";
    object      phi;
}
// * * * * * * * * * * * * * * * * * * * * * * * * * * * * * * * * * * * * * //

dimensions      [0 3 -1 0 0 0 0];

internalField   nonuniform List<scalar> 
139350
(
6.45113e-08
9.21202e-08
3.19623e-08
3.2549e-08
2.30551e-08
8.90727e-09
1.95681e-08
3.48698e-09
1.76138e-08
1.95425e-09
1.61812e-08
1.43265e-09
1.50457e-08
1.13549e-09
1.41307e-08
9.15019e-10
1.33774e-08
7.53255e-10
1.27426e-08
6.34844e-10
1.21973e-08
5.45239e-10
1.17224e-08
4.74968e-10
1.1304e-08
4.18424e-10
1.09319e-08
3.72081e-10
1.05983e-08
3.3353e-10
1.02973e-08
3.01054e-10
1.00239e-08
2.7339e-10
9.77431e-09
2.49593e-10
9.54536e-09
2.28947e-10
9.33446e-09
2.109e-10
9.13944e-09
1.95017e-10
8.95849e-09
1.80956e-10
8.79005e-09
1.68442e-10
8.6328e-09
1.5725e-10
8.4856e-09
1.47197e-10
8.34747e-09
1.38132e-10
8.21754e-09
1.29926e-10
8.09507e-09
1.22475e-10
7.97938e-09
1.15683e-10
7.86991e-09
1.09479e-10
7.76612e-09
1.03782e-10
7.66757e-09
9.85513e-11
7.57387e-09
9.37011e-11
7.48465e-09
8.9225e-11
7.39963e-09
8.50162e-11
7.31854e-09
8.10862e-11
7.2412e-09
7.73405e-11
7.16751e-09
7.36927e-11
7.09723e-09
7.02776e-11
7.03078e-09
6.64511e-11
6.96742e-09
6.33573e-11
6.90898e-09
5.84447e-11
6.85302e-09
5.59628e-11
6.80481e-09
4.8209e-11
6.7573e-09
4.75045e-11
6.72435e-09
3.29527e-11
6.68262e-09
4.17329e-11
6.69016e-09
-7.53835e-12
6.48251e-09
2.07647e-10
-2.75807e-09
9.24058e-09
1.25942e-07
1.27622e-07
9.12855e-08
6.72054e-08
7.19284e-08
2.82644e-08
6.12082e-08
1.42072e-08
5.47669e-08
8.39557e-09
5.02667e-08
5.93278e-09
4.67768e-08
4.62542e-09
4.39578e-08
3.73399e-09
4.1629e-08
3.08206e-09
3.96648e-08
2.59902e-09
3.79781e-08
2.23199e-09
3.65088e-08
1.94431e-09
3.52142e-08
1.713e-09
3.40628e-08
1.52342e-09
3.30307e-08
1.36568e-09
3.2099e-08
1.23274e-09
3.1253e-08
1.11945e-09
3.04806e-08
1.02195e-09
2.97722e-08
9.37315e-10
2.91198e-08
8.63295e-10
2.85167e-08
7.9812e-10
2.79573e-08
7.40388e-10
2.74368e-08
6.88976e-10
2.6951e-08
6.42968e-10
2.64966e-08
6.01619e-10
2.60705e-08
5.64304e-10
2.56699e-08
5.30507e-10
2.52926e-08
4.99793e-10
2.49365e-08
4.71786e-10
2.45997e-08
4.46183e-10
2.42808e-08
4.22685e-10
2.39783e-08
4.01096e-10
2.36909e-08
3.81133e-10
2.34174e-08
3.62715e-10
2.31569e-08
3.45495e-10
2.29085e-08
3.29527e-10
2.26714e-08
3.14349e-10
2.24451e-08
3.00067e-10
2.22291e-08
2.86277e-10
2.2023e-08
2.72529e-10
2.18267e-08
2.59641e-10
2.16411e-08
2.44107e-10
2.14645e-08
2.32491e-10
2.13031e-08
2.09596e-10
2.11468e-08
2.03868e-10
2.10231e-08
1.56625e-10
2.08757e-08
1.89092e-10
2.08556e-08
1.26472e-11
2.05486e-08
5.14554e-10
-3.14557e-09
2.09361e-08
1.58751e-07
1.35274e-07
1.36523e-07
8.94339e-08
1.17484e-07
4.73028e-08
1.03301e-07
2.83902e-08
9.33019e-08
1.83951e-08
8.59965e-08
1.32382e-08
8.02842e-08
1.03377e-08
7.56286e-08
8.38959e-09
7.17471e-08
6.96355e-09
6.84519e-08
5.89417e-09
6.56097e-08
5.07428e-09
6.31255e-08
4.42851e-09
6.09308e-08
3.90763e-09
5.89746e-08
3.47961e-09
5.72177e-08
3.12263e-09
5.56293e-08
2.82114e-09
5.4185e-08
2.56374e-09
5.28651e-08
2.34186e-09
5.16534e-08
2.14899e-09
5.05366e-08
1.98007e-09
4.95036e-08
1.83115e-09
4.85449e-08
1.69909e-09
4.76525e-08
1.58135e-09
4.68196e-08
1.47588e-09
4.60402e-08
1.38099e-09
4.53092e-08
1.29527e-09
4.46222e-08
1.21756e-09
4.39751e-08
1.14686e-09
4.33646e-08
1.08234e-09
4.27875e-08
1.02329e-09
4.22411e-08
9.69072e-10
4.1723e-08
9.19204e-10
4.1231e-08
8.73114e-10
4.07631e-08
8.30562e-10
4.03178e-08
7.90865e-10
3.98932e-08
7.54123e-10
3.94882e-08
7.19281e-10
3.91014e-08
6.86937e-10
3.87322e-08
6.55438e-10
3.83791e-08
6.25627e-10
3.80426e-08
5.96104e-10
3.77218e-08
5.64992e-10
3.74164e-08
5.37805e-10
3.71314e-08
4.94622e-10
3.68551e-08
4.8016e-10
3.66238e-08
3.87941e-10
3.63601e-08
4.52834e-10
3.62524e-08
1.20306e-10
3.59589e-08
8.08016e-10
-2.64312e-09
3.54565e-08
1.75611e-07
1.31179e-07
1.6562e-07
9.94242e-08
1.52727e-07
6.0196e-08
1.40112e-07
4.10055e-08
1.29425e-07
2.90819e-08
1.2078e-07
2.18832e-08
1.13663e-07
1.74553e-08
1.07677e-07
1.43751e-08
1.02573e-07
1.20674e-08
9.81682e-08
1.02992e-08
9.43221e-08
8.92044e-09
9.09291e-08
7.82149e-09
8.79094e-08
6.92728e-09
8.52017e-08
6.18738e-09
8.27576e-08
5.56673e-09
8.05387e-08
5.04003e-09
7.85139e-08
4.58847e-09
7.6658e-08
4.19784e-09
7.49498e-08
3.85721e-09
7.33718e-08
3.55806e-09
7.19092e-08
3.29368e-09
7.05496e-08
3.0587e-09
6.92822e-08
2.84878e-09
6.80977e-08
2.66037e-09
6.69882e-08
2.49056e-09
6.59465e-08
2.33692e-09
6.49667e-08
2.1974e-09
6.40433e-08
2.07027e-09
6.31715e-08
1.95409e-09
6.23472e-08
1.84761e-09
6.15665e-08
1.74973e-09
6.08262e-08
1.65956e-09
6.01231e-08
1.57618e-09
5.94546e-08
1.49909e-09
5.88182e-08
1.42721e-09
5.82117e-08
1.36067e-09
5.76333e-08
1.29766e-09
5.70808e-08
1.23945e-09
5.65535e-08
1.18272e-09
5.6049e-08
1.13018e-09
5.55677e-08
1.07733e-09
5.51078e-08
1.02491e-09
5.46691e-08
9.76542e-10
5.42564e-08
9.07346e-10
5.38557e-08
8.8081e-10
5.35072e-08
7.36425e-10
5.31319e-08
8.28121e-10
5.28939e-08
3.58367e-10
5.25964e-08
1.10553e-09
-1.8701e-09
5.18234e-08
1.8451e-07
1.23455e-07
1.82338e-07
1.01595e-07
1.76115e-07
6.64197e-08
1.67751e-07
4.93687e-08
1.59125e-07
3.77079e-08
1.51213e-07
2.97955e-08
1.44134e-07
2.4534e-08
1.37829e-07
2.06804e-08
1.32224e-07
1.76721e-08
1.27236e-07
1.52877e-08
1.22778e-07
1.33787e-08
1.18773e-07
1.18262e-08
1.15157e-07
1.0543e-08
1.11877e-07
9.46775e-09
1.08887e-07
8.55648e-09
1.06151e-07
7.77641e-09
1.03636e-07
7.10271e-09
1.01318e-07
6.51623e-09
9.91733e-08
6.00201e-09
9.71831e-08
5.54824e-09
9.53313e-08
5.1455e-09
9.36038e-08
4.78618e-09
9.19885e-08
4.46409e-09
9.04747e-08
4.17411e-09
8.90533e-08
3.91201e-09
8.7716e-08
3.67423e-09
8.64556e-08
3.45778e-09
8.52657e-08
3.26012e-09
8.41407e-08
3.07909e-09
8.30755e-08
2.91282e-09
8.20656e-08
2.75969e-09
8.11068e-08
2.61837e-09
8.01954e-08
2.48749e-09
7.93283e-08
2.36627e-09
7.85023e-08
2.25316e-09
7.77147e-08
2.14829e-09
7.69633e-08
2.04907e-09
7.62453e-08
1.95741e-09
7.55598e-08
1.86829e-09
7.49037e-08
1.78624e-09
7.42772e-08
1.7038e-09
7.36783e-08
1.62388e-09
7.31057e-08
1.5491e-09
7.25648e-08
1.44821e-09
7.20412e-08
1.4044e-09
7.15708e-08
1.20686e-09
7.10931e-08
1.30584e-09
7.07119e-08
7.39558e-10
7.03696e-08
1.44782e-09
-9.78341e-10
6.94778e-08
1.90342e-07
1.15329e-07
1.91857e-07
1.0008e-07
1.90258e-07
6.80192e-08
1.86148e-07
5.34787e-08
1.80703e-07
4.3153e-08
1.74944e-07
3.55542e-08
1.6924e-07
3.02376e-08
1.6375e-07
2.61711e-08
1.58569e-07
2.28527e-08
1.5374e-07
2.01162e-08
1.49267e-07
1.78525e-08
1.45131e-07
1.59617e-08
1.4131e-07
1.43645e-08
1.37776e-07
1.30016e-08
1.34504e-07
1.18288e-08
1.31468e-07
1.08118e-08
1.28647e-07
9.92368e-09
1.2602e-07
9.14315e-09
1.23569e-07
8.45309e-09
1.21278e-07
7.83969e-09
1.19131e-07
7.29175e-09
1.17118e-07
6.80005e-09
1.15225e-07
6.357e-09
1.13443e-07
5.95626e-09
1.11762e-07
5.59251e-09
1.10175e-07
5.26123e-09
1.08674e-07
4.95861e-09
1.07253e-07
4.68133e-09
1.05905e-07
4.42661e-09
1.04626e-07
4.19198e-09
1.03411e-07
3.97532e-09
1.02254e-07
3.77485e-09
1.01153e-07
3.58878e-09
1.00103e-07
3.41602e-09
9.91018e-08
3.25457e-09
9.81455e-08
3.10454e-09
9.7232e-08
2.96257e-09
9.63583e-08
2.83111e-09
9.5523e-08
2.70366e-09
9.47231e-08
2.58614e-09
9.3958e-08
2.46883e-09
9.32262e-08
2.35573e-09
9.25255e-08
2.24976e-09
9.1861e-08
2.11271e-09
9.12209e-08
2.04448e-09
9.06304e-08
1.79743e-09
9.00574e-08
1.87878e-09
8.95398e-08
1.25721e-09
8.91287e-08
1.85895e-09
-1.12032e-11
8.81615e-08
1.95504e-07
1.0764e-07
1.98245e-07
9.73387e-08
1.98981e-07
6.72831e-08
1.97783e-07
5.4677e-08
1.95143e-07
4.57929e-08
1.91797e-07
3.89006e-08
1.88057e-07
3.39769e-08
1.84099e-07
3.01298e-08
1.80072e-07
2.688e-08
1.76086e-07
2.41017e-08
1.7221e-07
2.17282e-08
1.68483e-07
1.9689e-08
1.64924e-07
1.79231e-08
1.61543e-07
1.63834e-08
1.58338e-07
1.50332e-08
1.55307e-07
1.3843e-08
1.52442e-07
1.27887e-08
1.49735e-07
1.18503e-08
1.47176e-07
1.10115e-08
1.44758e-07
1.02584e-08
1.4247e-07
9.57972e-09
1.40304e-07
8.96591e-09
1.38252e-07
8.40888e-09
1.36306e-07
7.9018e-09
1.3446e-07
7.43882e-09
1.32706e-07
7.01492e-09
1.31039e-07
6.62579e-09
1.29453e-07
6.26766e-09
1.27942e-07
5.93727e-09
1.26502e-07
5.63178e-09
1.25129e-07
5.34868e-09
1.23818e-07
5.08582e-09
1.22566e-07
4.84111e-09
1.21369e-07
4.61319e-09
1.20223e-07
4.3997e-09
1.19127e-07
4.20068e-09
1.18078e-07
4.01217e-09
1.17072e-07
3.83698e-09
1.16108e-07
3.66748e-09
1.15184e-07
3.51046e-09
1.14298e-07
3.35477e-09
1.13449e-07
3.20452e-09
1.12635e-07
3.0636e-09
1.1186e-07
2.88789e-09
1.11116e-07
2.78812e-09
1.10417e-07
2.49677e-09
1.09757e-07
2.53888e-09
1.0912e-07
1.89357e-09
1.0863e-07
2.34983e-09
9.8593e-10
1.07632e-07
2.00819e-07
1.00406e-07
2.0377e-07
9.43876e-08
2.05341e-07
6.57118e-08
2.05639e-07
5.43794e-08
2.04803e-07
4.66284e-08
2.03317e-07
4.03863e-08
2.01362e-07
3.59322e-08
1.99023e-07
3.24688e-08
1.96408e-07
2.94953e-08
1.93619e-07
2.68902e-08
1.90738e-07
2.46093e-08
1.87825e-07
2.26024e-08
1.84924e-07
2.08244e-08
1.82066e-07
1.92407e-08
1.79275e-07
1.78245e-08
1.76564e-07
1.65537e-08
1.73943e-07
1.54097e-08
1.71417e-07
1.43767e-08
1.68987e-07
1.34411e-08
1.66655e-07
1.25911e-08
1.64417e-07
1.1817e-08
1.62273e-07
1.11099e-08
1.6022e-07
1.04626e-08
1.58253e-07
9.86851e-09
1.5637e-07
9.32209e-09
1.54566e-07
8.81839e-09
1.52839e-07
8.35313e-09
1.51184e-07
7.92245e-09
1.49598e-07
7.52303e-09
1.48078e-07
7.15188e-09
1.46621e-07
6.80636e-09
1.45222e-07
6.48416e-09
1.4388e-07
6.18301e-09
1.42592e-07
5.90143e-09
1.41355e-07
5.63683e-09
1.40167e-07
5.38922e-09
1.39024e-07
5.15423e-09
1.37927e-07
4.93489e-09
1.36871e-07
4.72283e-09
1.35856e-07
4.52522e-09
1.34881e-07
4.33026e-09
1.33944e-07
4.14142e-09
1.33044e-07
3.96392e-09
1.32183e-07
3.74912e-09
1.31358e-07
3.61307e-09
1.30572e-07
3.28246e-09
1.2984e-07
3.27088e-09
1.2911e-07
2.62299e-09
1.28543e-07
2.91755e-09
1.97057e-09
1.27558e-07
2.06422e-07
9.35163e-08
2.09329e-07
9.14802e-08
2.11052e-07
6.39891e-08
2.11929e-07
5.35021e-08
2.11988e-07
4.65699e-08
2.11597e-07
4.07773e-08
2.1086e-07
3.66689e-08
2.09781e-07
3.35481e-08
2.08398e-07
3.08779e-08
2.06771e-07
2.85175e-08
2.04955e-07
2.64253e-08
2.02999e-07
2.45579e-08
2.00947e-07
2.28769e-08
1.98833e-07
2.13543e-08
1.96688e-07
1.99699e-08
1.94534e-07
1.87075e-08
1.9239e-07
1.75536e-08
1.9027e-07
1.64966e-08
1.88185e-07
1.55263e-08
1.86142e-07
1.46338e-08
1.84148e-07
1.38115e-08
1.82206e-07
1.30523e-08
1.80318e-07
1.23504e-08
1.78486e-07
1.17003e-08
1.76711e-07
1.10972e-08
1.74992e-07
1.05369e-08
1.7333e-07
1.00156e-08
1.71723e-07
9.52968e-09
1.70169e-07
9.07622e-09
1.68669e-07
8.65235e-09
1.6722e-07
8.25558e-09
1.6582e-07
7.88367e-09
1.64469e-07
7.53439e-09
1.63164e-07
7.2063e-09
1.61904e-07
6.89672e-09
1.60688e-07
6.60575e-09
1.59513e-07
6.32878e-09
1.58379e-07
6.06899e-09
1.57284e-07
5.81766e-09
1.56227e-07
5.58194e-09
1.55208e-07
5.35008e-09
1.54225e-07
5.12427e-09
1.53277e-07
4.91149e-09
1.52367e-07
4.65946e-09
1.51494e-07
4.48584e-09
1.50655e-07
4.12128e-09
1.49878e-07
4.04848e-09
1.49089e-07
3.4119e-09
1.48462e-07
3.54436e-09
2.90745e-09
1.47525e-07
2.12268e-07
8.69103e-08
2.15138e-07
8.86104e-08
2.16807e-07
6.23203e-08
2.17844e-07
5.24653e-08
2.18248e-07
4.61661e-08
2.18359e-07
4.06661e-08
2.18276e-07
3.67518e-08
2.17968e-07
3.38564e-08
2.17428e-07
3.14175e-08
2.16676e-07
2.92692e-08
2.15737e-07
2.7365e-08
2.14634e-07
2.56603e-08
2.13395e-07
2.41161e-08
2.12044e-07
2.2705e-08
2.10606e-07
2.14085e-08
2.09101e-07
2.02127e-08
2.07547e-07
1.91069e-08
2.05962e-07
1.80819e-08
2.04358e-07
1.71302e-08
2.02747e-07
1.62449e-08
2.01138e-07
1.54203e-08
1.99539e-07
1.46512e-08
1.97957e-07
1.39331e-08
1.96395e-07
1.32617e-08
1.94859e-07
1.26335e-08
1.93351e-07
1.20449e-08
1.91873e-07
1.1493e-08
1.90428e-07
1.09749e-08
1.89016e-07
1.04879e-08
1.87639e-07
1.00298e-08
1.86296e-07
9.59839e-09
1.84988e-07
9.19164e-09
1.83715e-07
8.80755e-09
1.82476e-07
8.44489e-09
1.81272e-07
8.10105e-09
1.80102e-07
7.77629e-09
1.78964e-07
7.46597e-09
1.7786e-07
7.17335e-09
1.76788e-07
6.88976e-09
1.75748e-07
6.6219e-09
1.74739e-07
6.35883e-09
1.73763e-07
6.10077e-09
1.72817e-07
5.8571e-09
1.71904e-07
5.57226e-09
1.71027e-07
5.36307e-09
1.70177e-07
4.97122e-09
1.6939e-07
4.83531e-09
1.68583e-07
4.21899e-09
1.67928e-07
4.19995e-09
3.76571e-09
1.67069e-07
2.18314e-07
8.05769e-08
2.21187e-07
8.57371e-08
2.22779e-07
6.07283e-08
2.23845e-07
5.14001e-08
2.24357e-07
4.56538e-08
2.24646e-07
4.03773e-08
2.24839e-07
3.65584e-08
2.24909e-07
3.37866e-08
2.24835e-07
3.14915e-08
2.24618e-07
2.94866e-08
2.24262e-07
2.77209e-08
2.23773e-07
2.61486e-08
2.23162e-07
2.47277e-08
2.22438e-07
2.34284e-08
2.21616e-07
2.2231e-08
2.20707e-07
2.11214e-08
2.19725e-07
2.0089e-08
2.18682e-07
1.91252e-08
2.17589e-07
1.82233e-08
2.16456e-07
1.73777e-08
2.15293e-07
1.65834e-08
2.14107e-07
1.58364e-08
2.12907e-07
1.51331e-08
2.11699e-07
1.44702e-08
2.10487e-07
1.3845e-08
2.09278e-07
1.32547e-08
2.08074e-07
1.2697e-08
2.06879e-07
1.21698e-08
2.05696e-07
1.16709e-08
2.04527e-07
1.11986e-08
2.03375e-07
1.07509e-08
2.0224e-07
1.03264e-08
2.01124e-07
9.92323e-09
2.00029e-07
9.54051e-09
1.98954e-07
9.17578e-09
1.97901e-07
8.82952e-09
1.96869e-07
8.49721e-09
1.95861e-07
8.18211e-09
1.94874e-07
7.87593e-09
1.93912e-07
7.58456e-09
1.92972e-07
7.29856e-09
1.92057e-07
7.0155e-09
1.91167e-07
6.74777e-09
1.90302e-07
6.43695e-09
1.89468e-07
6.19674e-09
1.88654e-07
5.78578e-09
1.87899e-07
5.58962e-09
1.8712e-07
4.99861e-09
1.86474e-07
4.84584e-09
4.51842e-09
1.85721e-07
2.24548e-07
7.45223e-08
2.27447e-07
8.28377e-08
2.28975e-07
5.92004e-08
2.30047e-07
5.0328e-08
2.306e-07
4.51012e-08
2.30937e-07
4.00402e-08
2.3122e-07
3.62754e-08
2.31438e-07
3.35687e-08
2.31572e-07
3.1357e-08
2.31622e-07
2.94368e-08
2.31587e-07
2.77564e-08
2.31464e-07
2.62711e-08
2.31254e-07
2.49374e-08
2.30959e-07
2.37235e-08
2.30583e-07
2.26078e-08
2.30129e-07
2.1575e-08
2.29605e-07
2.06134e-08
2.29016e-07
1.97141e-08
2.28369e-07
1.88701e-08
2.27671e-07
1.80756e-08
2.26928e-07
1.7326e-08
2.26147e-07
1.66174e-08
2.25334e-07
1.59465e-08
2.24494e-07
1.53105e-08
2.23632e-07
1.47071e-08
2.22752e-07
1.41339e-08
2.2186e-07
1.35892e-08
2.20959e-07
1.3071e-08
2.20052e-07
1.25779e-08
2.19142e-07
1.21083e-08
2.18232e-07
1.16608e-08
2.17325e-07
1.12341e-08
2.16421e-07
1.08267e-08
2.15524e-07
1.0438e-08
2.14634e-07
1.00657e-08
2.13753e-07
9.71052e-09
2.12882e-07
9.36813e-09
2.12022e-07
9.04162e-09
2.11175e-07
8.72346e-09
2.10341e-07
8.41831e-09
2.09521e-07
8.11877e-09
2.08717e-07
7.81937e-09
2.07929e-07
7.53558e-09
2.07159e-07
7.20715e-09
2.06414e-07
6.94206e-09
2.05678e-07
6.52089e-09
2.04997e-07
6.27107e-09
2.04289e-07
5.70708e-09
2.03692e-07
5.442e-09
5.1445e-09
2.03066e-07
2.30974e-07
6.87546e-08
2.33908e-07
7.99034e-08
2.35379e-07
5.77295e-08
2.36459e-07
4.92477e-08
2.37044e-07
4.45159e-08
2.37396e-07
3.96883e-08
2.37701e-07
3.59709e-08
2.37965e-07
3.3305e-08
2.38174e-07
3.11471e-08
2.38333e-07
2.9278e-08
2.38443e-07
2.76466e-08
2.38502e-07
2.6212e-08
2.38508e-07
2.49315e-08
2.38459e-07
2.37724e-08
2.38355e-07
2.27122e-08
2.38195e-07
2.17345e-08
2.37982e-07
2.0827e-08
2.37716e-07
1.998e-08
2.374e-07
1.91857e-08
2.37038e-07
1.84381e-08
2.36632e-07
1.77321e-08
2.36185e-07
1.70636e-08
2.35703e-07
1.64293e-08
2.35187e-07
1.58263e-08
2.34642e-07
1.52523e-08
2.3407e-07
1.47051e-08
2.33477e-07
1.4183e-08
2.32863e-07
1.36844e-08
2.32233e-07
1.32079e-08
2.3159e-07
1.27521e-08
2.30935e-07
1.23159e-08
2.3027e-07
1.18982e-08
2.29599e-07
1.14977e-08
2.28923e-07
1.1114e-08
2.28244e-07
1.07448e-08
2.27564e-07
1.03911e-08
2.26883e-07
1.00488e-08
2.26204e-07
9.72064e-09
2.25527e-07
9.40002e-09
2.24856e-07
9.0901e-09
2.24189e-07
8.78581e-09
2.23529e-07
8.47855e-09
2.22879e-07
8.18646e-09
2.22237e-07
7.84894e-09
2.21613e-07
7.56554e-09
2.20992e-07
7.14254e-09
2.20415e-07
6.8479e-09
2.19812e-07
6.30987e-09
2.193e-07
5.95434e-09
5.6314e-09
2.18813e-07
2.376e-07
6.32794e-08
2.40574e-07
7.69298e-08
2.41987e-07
5.63159e-08
2.43075e-07
4.81603e-08
2.43696e-07
4.38942e-08
2.44061e-07
3.93236e-08
2.44371e-07
3.56611e-08
2.44647e-07
3.30291e-08
2.44879e-07
3.09146e-08
2.45074e-07
2.90829e-08
2.45238e-07
2.74826e-08
2.45372e-07
2.6078e-08
2.45475e-07
2.48286e-08
2.45545e-07
2.3702e-08
2.45582e-07
2.26754e-08
2.45584e-07
2.17323e-08
2.45551e-07
2.08602e-08
2.45482e-07
2.00488e-08
2.45378e-07
1.92902e-08
2.45238e-07
1.85777e-08
2.45065e-07
1.79059e-08
2.44858e-07
1.72706e-08
2.44619e-07
1.66679e-08
2.4435e-07
1.60949e-08
2.44054e-07
1.55491e-08
2.43731e-07
1.50281e-08
2.43383e-07
1.45303e-08
2.43014e-07
1.40539e-08
2.42624e-07
1.35977e-08
2.42216e-07
1.31603e-08
2.41791e-07
1.27406e-08
2.41352e-07
1.23376e-08
2.40899e-07
1.19501e-08
2.40436e-07
1.15776e-08
2.39962e-07
1.12183e-08
2.3948e-07
1.08728e-08
2.38992e-07
1.05375e-08
2.38498e-07
1.02145e-08
2.38e-07
9.89838e-09
2.37499e-07
9.59055e-09
2.36997e-07
9.28825e-09
2.36495e-07
8.98009e-09
2.35996e-07
8.68591e-09
2.35498e-07
8.34658e-09
2.35013e-07
8.05081e-09
2.34523e-07
7.63264e-09
2.34068e-07
7.30262e-09
2.33591e-07
6.78726e-09
2.33184e-07
6.36108e-09
5.97764e-09
2.32838e-07
2.44435e-07
5.81004e-08
2.47447e-07
7.39179e-08
2.48805e-07
5.49577e-08
2.49895e-07
4.70703e-08
2.50555e-07
4.32342e-08
2.50936e-07
3.89427e-08
2.5125e-07
3.5347e-08
2.51531e-07
3.27478e-08
2.51771e-07
3.06747e-08
2.51977e-07
2.88772e-08
2.52158e-07
2.73019e-08
2.52317e-07
2.59185e-08
2.52457e-07
2.46894e-08
2.52576e-07
2.35828e-08
2.52674e-07
2.25765e-08
2.52753e-07
2.16543e-08
2.52809e-07
2.08036e-08
2.52843e-07
2.00144e-08
2.52855e-07
1.92785e-08
2.52844e-07
1.85891e-08
2.52809e-07
1.79408e-08
2.5275e-07
1.73289e-08
2.52669e-07
1.67495e-08
2.52564e-07
1.61994e-08
2.52438e-07
1.56758e-08
2.52289e-07
1.51764e-08
2.5212e-07
1.46993e-08
2.51932e-07
1.42427e-08
2.51724e-07
1.38052e-08
2.51499e-07
1.33856e-08
2.51257e-07
1.29825e-08
2.51e-07
1.25951e-08
2.50728e-07
1.2222e-08
2.50442e-07
1.18629e-08
2.50145e-07
1.15159e-08
2.49836e-07
1.11814e-08
2.49517e-07
1.08564e-08
2.4919e-07
1.05421e-08
2.48854e-07
1.02343e-08
2.48512e-07
9.93258e-09
2.48164e-07
9.63628e-09
2.47812e-07
9.33182e-09
2.47458e-07
9.03953e-09
2.47101e-07
8.70359e-09
2.46752e-07
8.39995e-09
2.46394e-07
7.99082e-09
2.46062e-07
7.63413e-09
2.45713e-07
7.13653e-09
2.45418e-07
6.65604e-09
6.19369e-09
2.45202e-07
2.51487e-07
5.32197e-08
2.54528e-07
7.08777e-08
2.55841e-07
5.36441e-08
2.56928e-07
4.59831e-08
2.57626e-07
4.25367e-08
2.58026e-07
3.85428e-08
2.58345e-07
3.50274e-08
2.58632e-07
3.24615e-08
2.58876e-07
3.043e-08
2.59086e-07
2.86673e-08
2.59272e-07
2.71161e-08
2.59439e-07
2.57514e-08
2.5959e-07
2.45386e-08
2.59726e-07
2.3447e-08
2.59848e-07
2.24547e-08
2.59956e-07
2.15461e-08
2.6005e-07
2.0709e-08
2.60131e-07
1.99336e-08
2.60198e-07
1.92118e-08
2.6025e-07
1.8537e-08
2.60287e-07
1.79036e-08
2.60309e-07
1.73069e-08
2.60316e-07
1.6743e-08
2.60307e-07
1.62084e-08
2.60282e-07
1.57005e-08
2.60242e-07
1.52166e-08
2.60186e-07
1.47548e-08
2.60116e-07
1.43134e-08
2.6003e-07
1.38907e-08
2.5993e-07
1.34854e-08
2.59817e-07
1.30962e-08
2.5969e-07
1.27223e-08
2.59549e-07
1.23621e-08
2.59397e-07
1.20153e-08
2.59233e-07
1.168e-08
2.59058e-07
1.13566e-08
2.58872e-07
1.10421e-08
2.58677e-07
1.07373e-08
2.58472e-07
1.04388e-08
2.5826e-07
1.01446e-08
2.58041e-07
9.85579e-09
2.57815e-07
9.55729e-09
2.57586e-07
9.26866e-09
2.57351e-07
8.93892e-09
2.5712e-07
8.63033e-09
2.56879e-07
8.2319e-09
2.56658e-07
7.85566e-09
2.56424e-07
7.37001e-09
2.56233e-07
6.84761e-09
6.30039e-09
2.56126e-07
2.58765e-07
4.86376e-08
2.61823e-07
6.78199e-08
2.63103e-07
5.23639e-08
2.64183e-07
4.49037e-08
2.64915e-07
4.18041e-08
2.65336e-07
3.81218e-08
2.65662e-07
3.47014e-08
2.65954e-07
3.21697e-08
2.66204e-07
3.01801e-08
2.66417e-07
2.84538e-08
2.66606e-07
2.69277e-08
2.66775e-07
2.55816e-08
2.6693e-07
2.43843e-08
2.67071e-07
2.33061e-08
2.672e-07
2.23257e-08
2.67318e-07
2.14278e-08
2.67426e-07
2.06008e-08
2.67525e-07
1.9835e-08
2.67614e-07
1.91228e-08
2.67693e-07
1.84576e-08
2.67763e-07
1.78339e-08
2.67823e-07
1.72472e-08
2.67872e-07
1.66934e-08
2.67912e-07
1.61691e-08
2.6794e-07
1.56715e-08
2.67959e-07
1.51982e-08
2.67967e-07
1.4747e-08
2.67964e-07
1.43161e-08
2.67951e-07
1.3904e-08
2.67927e-07
1.35092e-08
2.67893e-07
1.31305e-08
2.67848e-07
1.27668e-08
2.67793e-07
1.24167e-08
2.67729e-07
1.20798e-08
2.67655e-07
1.17543e-08
2.67571e-07
1.14402e-08
2.67478e-07
1.11349e-08
2.67377e-07
1.08385e-08
2.67268e-07
1.05484e-08
2.67151e-07
1.02615e-08
2.67027e-07
9.97977e-09
2.66896e-07
9.68765e-09
2.66762e-07
9.40281e-09
2.66621e-07
9.08014e-09
2.66483e-07
8.76816e-09
2.66335e-07
8.38004e-09
2.66201e-07
7.98962e-09
2.66061e-07
7.50997e-09
2.65954e-07
6.95453e-09
6.32494e-09
2.6593e-07
2.66277e-07
4.43527e-08
2.69342e-07
6.47549e-08
2.70599e-07
5.11066e-08
2.71667e-07
4.38365e-08
2.72431e-07
4.10395e-08
2.72875e-07
3.76781e-08
2.73208e-07
3.4368e-08
2.73505e-07
3.18725e-08
2.73761e-07
2.99246e-08
2.73978e-07
2.82364e-08
2.74169e-07
2.67369e-08
2.74341e-07
2.54099e-08
2.74497e-07
2.42282e-08
2.7464e-07
2.31634e-08
2.74771e-07
2.21944e-08
2.74892e-07
2.13065e-08
2.75005e-07
2.04883e-08
2.75109e-07
1.97307e-08
2.75205e-07
1.90262e-08
2.75295e-07
1.83684e-08
2.75377e-07
1.77519e-08
2.75452e-07
1.71723e-08
2.75519e-07
1.66257e-08
2.7558e-07
1.61086e-08
2.75633e-07
1.56182e-08
2.75679e-07
1.5152e-08
2.75718e-07
1.47081e-08
2.7575e-07
1.42846e-08
2.75774e-07
1.38798e-08
2.75791e-07
1.34924e-08
2.758e-07
1.31211e-08
2.75802e-07
1.27648e-08
2.75797e-07
1.24223e-08
2.75784e-07
1.20928e-08
2.75763e-07
1.17747e-08
2.75736e-07
1.14677e-08
2.75701e-07
1.11697e-08
2.75659e-07
1.088e-08
2.75611e-07
1.05968e-08
2.75556e-07
1.03162e-08
2.75496e-07
1.00402e-08
2.7543e-07
9.75394e-09
2.7536e-07
9.47216e-09
2.75284e-07
9.15617e-09
2.75211e-07
8.84156e-09
2.75129e-07
8.46213e-09
2.75057e-07
8.06135e-09
2.74984e-07
7.58245e-09
2.74939e-07
7.00022e-09
6.29605e-09
2.74968e-07
2.74032e-07
4.03621e-08
2.77093e-07
6.16938e-08
2.78338e-07
4.98619e-08
2.79389e-07
4.2785e-08
2.80182e-07
4.02465e-08
2.8065e-07
3.72103e-08
2.80991e-07
3.40266e-08
2.81294e-07
3.15698e-08
2.81555e-07
2.96634e-08
2.81777e-07
2.80147e-08
2.81971e-07
2.65432e-08
2.82144e-07
2.52362e-08
2.82302e-07
2.40707e-08
2.82446e-07
2.30196e-08
2.82578e-07
2.20622e-08
2.827e-07
2.11842e-08
2.82814e-07
2.03747e-08
2.8292e-07
1.96249e-08
2.83018e-07
1.89274e-08
2.83111e-07
1.82762e-08
2.83196e-07
1.76661e-08
2.83276e-07
1.70925e-08
2.8335e-07
1.65516e-08
2.83419e-07
1.60402e-08
2.83482e-07
1.55553e-08
2.83539e-07
1.50947e-08
2.83591e-07
1.46562e-08
2.83638e-07
1.4238e-08
2.83679e-07
1.38386e-08
2.83714e-07
1.34567e-08
2.83745e-07
1.30908e-08
2.83769e-07
1.274e-08
2.83789e-07
1.2403e-08
2.83803e-07
1.2079e-08
2.83811e-07
1.17664e-08
2.83814e-07
1.14649e-08
2.83811e-07
1.11725e-08
2.83803e-07
1.08881e-08
2.83789e-07
1.06103e-08
2.83771e-07
1.03345e-08
2.83748e-07
1.00631e-08
2.8372e-07
9.78178e-09
2.8369e-07
9.50218e-09
2.83654e-07
9.19197e-09
2.83621e-07
8.87519e-09
2.8358e-07
8.50239e-09
2.83548e-07
8.09403e-09
2.83518e-07
7.61187e-09
2.83511e-07
7.0075e-09
6.23966e-09
2.83567e-07
2.82039e-07
3.6661e-08
2.85085e-07
5.86476e-08
2.86327e-07
4.86203e-08
2.87359e-07
4.17521e-08
2.88176e-07
3.94297e-08
2.8867e-07
3.6717e-08
2.8902e-07
3.36759e-08
2.89328e-07
3.12619e-08
2.89595e-07
2.93962e-08
2.89822e-07
2.77883e-08
2.90019e-07
2.63464e-08
2.90194e-07
2.50604e-08
2.90354e-07
2.39116e-08
2.90499e-07
2.28745e-08
2.90632e-07
2.19291e-08
2.90755e-07
2.10613e-08
2.90869e-07
2.02606e-08
2.90975e-07
1.95186e-08
2.91074e-07
1.88282e-08
2.91167e-07
1.81835e-08
2.91254e-07
1.75793e-08
2.91335e-07
1.70114e-08
2.91411e-07
1.64759e-08
2.91481e-07
1.59695e-08
2.91547e-07
1.54896e-08
2.91608e-07
1.50337e-08
2.91664e-07
1.45997e-08
2.91716e-07
1.41861e-08
2.91764e-07
1.37911e-08
2.91807e-07
1.34136e-08
2.91846e-07
1.3052e-08
2.9188e-07
1.27056e-08
2.9191e-07
1.23729e-08
2.91936e-07
1.20533e-08
2.91957e-07
1.17451e-08
2.91974e-07
1.14479e-08
2.91987e-07
1.116e-08
2.91995e-07
1.08797e-08
2.91999e-07
1.06062e-08
2.91999e-07
1.03345e-08
2.91996e-07
1.00666e-08
2.91988e-07
9.78938e-09
2.91979e-07
9.51134e-09
2.91965e-07
9.20597e-09
2.91953e-07
8.88755e-09
2.91936e-07
8.51948e-09
2.91924e-07
8.10571e-09
2.91918e-07
7.61783e-09
2.9193e-07
6.99536e-09
6.1764e-09
2.91994e-07
2.90307e-07
3.32428e-08
2.93327e-07
5.56273e-08
2.94575e-07
4.7373e-08
2.95587e-07
4.07399e-08
2.96422e-07
3.85939e-08
2.96942e-07
3.61972e-08
2.97303e-07
3.33146e-08
2.97617e-07
3.09487e-08
2.9789e-07
2.9123e-08
2.98121e-07
2.75568e-08
2.98321e-07
2.61462e-08
2.985e-07
2.48822e-08
2.98661e-07
2.37506e-08
2.98807e-07
2.27281e-08
2.98941e-07
2.1795e-08
2.99065e-07
2.09377e-08
2.99179e-07
2.01461e-08
2.99286e-07
1.94121e-08
2.99385e-07
1.87289e-08
2.99478e-07
1.80907e-08
2.99565e-07
1.74926e-08
2.99646e-07
1.69303e-08
2.99722e-07
1.64e-08
2.99793e-07
1.58987e-08
2.99859e-07
1.54234e-08
2.9992e-07
1.4972e-08
2.99978e-07
1.45424e-08
3.00031e-07
1.41328e-08
3.0008e-07
1.37419e-08
3.00126e-07
1.33683e-08
3.00167e-07
1.30106e-08
3.00205e-07
1.2668e-08
3.00238e-07
1.23391e-08
3.00268e-07
1.20232e-08
3.00295e-07
1.1719e-08
3.00317e-07
1.14255e-08
3.00336e-07
1.11413e-08
3.00351e-07
1.08647e-08
3.00362e-07
1.05947e-08
3.0037e-07
1.03266e-08
3.00375e-07
1.00615e-08
3.00376e-07
9.78806e-09
3.00376e-07
9.51136e-09
3.00372e-07
9.2101e-09
3.00369e-07
8.89076e-09
3.00363e-07
8.52605e-09
3.0036e-07
8.1087e-09
3.00363e-07
7.61427e-09
3.00381e-07
6.97768e-09
6.12091e-09
3.00436e-07
2.98846e-07
3.00995e-08
3.01829e-07
5.26443e-08
3.0309e-07
4.6112e-08
3.0408e-07
3.97497e-08
3.04929e-07
3.77446e-08
3.05476e-07
3.56504e-08
3.05849e-07
3.29414e-08
3.06168e-07
3.06302e-08
3.06447e-07
2.8844e-08
3.06684e-07
2.732e-08
3.06888e-07
2.59424e-08
3.07069e-07
2.47013e-08
3.07231e-07
2.35876e-08
3.07379e-07
2.25801e-08
3.07515e-07
2.16597e-08
3.07639e-07
2.08132e-08
3.07754e-07
2.0031e-08
3.07861e-07
1.93052e-08
3.07961e-07
1.86294e-08
3.08053e-07
1.79979e-08
3.0814e-07
1.7406e-08
3.08221e-07
1.68494e-08
3.08296e-07
1.63245e-08
3.08367e-07
1.58281e-08
3.08433e-07
1.53576e-08
3.08494e-07
1.49106e-08
3.08551e-07
1.44852e-08
3.08604e-07
1.40798e-08
3.08654e-07
1.36928e-08
3.08699e-07
1.33229e-08
3.08741e-07
1.2969e-08
3.08778e-07
1.263e-08
3.08813e-07
1.23048e-08
3.08844e-07
1.19924e-08
3.08871e-07
1.16917e-08
3.08895e-07
1.14017e-08
3.08915e-07
1.1121e-08
3.08932e-07
1.08478e-08
3.08946e-07
1.05811e-08
3.08956e-07
1.03163e-08
3.08963e-07
1.0054e-08
3.08967e-07
9.78401e-09
3.0897e-07
9.50877e-09
3.08969e-07
9.21121e-09
3.08968e-07
8.89185e-09
3.08964e-07
8.52971e-09
3.08962e-07
8.11052e-09
3.08966e-07
7.61011e-09
3.0898e-07
6.96371e-09
6.08253e-09
3.09019e-07
3.07665e-07
2.72214e-08
3.106e-07
4.97097e-08
3.11882e-07
4.48305e-08
3.12849e-07
3.87819e-08
3.13707e-07
3.68869e-08
3.14281e-07
3.50766e-08
3.14667e-07
3.25548e-08
3.14991e-07
3.03062e-08
3.15276e-07
2.85591e-08
3.15519e-07
2.70776e-08
3.15727e-07
2.57344e-08
3.1591e-07
2.45177e-08
3.16075e-07
2.34224e-08
3.16225e-07
2.24304e-08
3.16362e-07
2.15231e-08
3.16487e-07
2.06878e-08
3.16603e-07
1.99152e-08
3.1671e-07
1.91979e-08
3.1681e-07
1.85297e-08
3.16903e-07
1.7905e-08
3.16989e-07
1.73194e-08
3.1707e-07
1.67687e-08
3.17145e-07
1.62492e-08
3.17215e-07
1.5758e-08
3.17281e-07
1.52923e-08
3.17342e-07
1.48498e-08
3.17398e-07
1.44287e-08
3.17451e-07
1.40273e-08
3.17499e-07
1.36442e-08
3.17544e-07
1.32782e-08
3.17585e-07
1.2928e-08
3.17622e-07
1.25926e-08
3.17656e-07
1.22709e-08
3.17686e-07
1.19621e-08
3.17713e-07
1.16649e-08
3.17737e-07
1.13783e-08
3.17757e-07
1.1101e-08
3.17773e-07
1.08312e-08
3.17786e-07
1.05678e-08
3.17796e-07
1.03064e-08
3.17804e-07
1.00467e-08
3.17807e-07
9.78022e-09
3.17809e-07
9.50682e-09
3.17808e-07
9.2128e-09
3.17805e-07
8.89442e-09
3.178e-07
8.53466e-09
3.17795e-07
8.11532e-09
3.17795e-07
7.61066e-09
3.17799e-07
6.95918e-09
6.06663e-09
3.17815e-07
3.16776e-07
2.4597e-08
3.19651e-07
4.68347e-08
3.20958e-07
4.3523e-08
3.21904e-07
3.78363e-08
3.22765e-07
3.60259e-08
3.23365e-07
3.44767e-08
3.23766e-07
3.21531e-08
3.24096e-07
2.99764e-08
3.24387e-07
2.82684e-08
3.24635e-07
2.68293e-08
3.24847e-07
2.55222e-08
3.25034e-07
2.43309e-08
3.25202e-07
2.32549e-08
3.25353e-07
2.22787e-08
3.25491e-07
2.13851e-08
3.25618e-07
2.05613e-08
3.25735e-07
1.97986e-08
3.25842e-07
1.909e-08
3.25943e-07
1.84296e-08
3.26036e-07
1.7812e-08
3.26122e-07
1.72329e-08
3.26203e-07
1.66881e-08
3.26278e-07
1.61743e-08
3.26347e-07
1.56882e-08
3.26412e-07
1.52274e-08
3.26473e-07
1.47895e-08
3.26529e-07
1.43728e-08
3.2658e-07
1.39756e-08
3.26628e-07
1.35965e-08
3.26672e-07
1.32343e-08
3.26712e-07
1.28878e-08
3.26749e-07
1.25561e-08
3.26782e-07
1.2238e-08
3.26811e-07
1.19327e-08
3.26837e-07
1.16391e-08
3.26859e-07
1.13559e-08
3.26878e-07
1.10822e-08
3.26893e-07
1.08158e-08
3.26906e-07
1.05556e-08
3.26914e-07
1.02977e-08
3.2692e-07
1.0041e-08
3.26922e-07
9.77803e-09
3.26922e-07
9.50697e-09
3.26918e-07
9.21655e-09
3.26913e-07
8.90019e-09
3.26904e-07
8.5431e-09
3.26894e-07
8.12532e-09
3.26886e-07
7.61898e-09
3.26877e-07
6.96753e-09
6.076e-09
3.26868e-07
3.26186e-07
2.22139e-08
3.2899e-07
4.40301e-08
3.30328e-07
4.21853e-08
3.31253e-07
3.69115e-08
3.32112e-07
3.51663e-08
3.32737e-07
3.38521e-08
3.33155e-07
3.1735e-08
3.33491e-07
2.96403e-08
3.33788e-07
2.79721e-08
3.34042e-07
2.65749e-08
3.34259e-07
2.53051e-08
3.34449e-07
2.41408e-08
3.34619e-07
2.30847e-08
3.34773e-07
2.2125e-08
3.34913e-07
2.12453e-08
3.35041e-07
2.04335e-08
3.35158e-07
1.96811e-08
3.35267e-07
1.89814e-08
3.35367e-07
1.8329e-08
3.35461e-07
1.77187e-08
3.35547e-07
1.71462e-08
3.35628e-07
1.66076e-08
3.35703e-07
1.60994e-08
3.35772e-07
1.56187e-08
3.35837e-07
1.51629e-08
3.35897e-07
1.47297e-08
3.35952e-07
1.43174e-08
3.36003e-07
1.39244e-08
3.3605e-07
1.35494e-08
3.36093e-07
1.31911e-08
3.36133e-07
1.28485e-08
3.36168e-07
1.25205e-08