/*--------------------------------*- C++ -*----------------------------------*\
  =========                 |
  \\      /  F ield         | OpenFOAM: The Open Source CFD Toolbox
   \\    /   O peration     | Website:  https://openfoam.org
    \\  /    A nd           | Version:  7
     \\/     M anipulation  |
\*---------------------------------------------------------------------------*/
FoamFile
{
    version     2.0;
    format      ascii;
    class       volVectorField;
    location    "0.33";
    object      U_0;
}
// * * * * * * * * * * * * * * * * * * * * * * * * * * * * * * * * * * * * * //

dimensions      [0 1 -1 0 0 0 0];

internalField   nonuniform List<vector> 
70000
(
(0.553412 0.0169783 0)
(0.251405 0.00340065 0)
(0.165899 0.000319223 0)
(0.132401 4.92378e-05 0)
(0.117281 4.42782e-05 0)
(0.107309 5.24366e-05 0)
(0.0993253 4.46307e-05 0)
(0.0928697 3.55507e-05 0)
(0.0876145 2.95109e-05 0)
(0.0832348 2.53723e-05 0)
(0.0795023 2.22107e-05 0)
(0.0762693 1.9678e-05 0)
(0.0734346 1.7614e-05 0)
(0.070924 1.59099e-05 0)
(0.0686815 1.44847e-05 0)
(0.0666636 1.32787e-05 0)
(0.064836 1.22476e-05 0)
(0.0631715 1.13575e-05 0)
(0.061648 1.05835e-05 0)
(0.0602473 9.90511e-06 0)
(0.0589544 9.30713e-06 0)
(0.0577566 8.77684e-06 0)
(0.0566433 8.30441e-06 0)
(0.0556054 7.88173e-06 0)
(0.0546351 7.50211e-06 0)
(0.0537256 7.15986e-06 0)
(0.0528711 6.85027e-06 0)
(0.0520664 6.56964e-06 0)
(0.051307 6.31303e-06 0)
(0.050589 6.07988e-06 0)
(0.049909 5.86224e-06 0)
(0.0492637 5.66399e-06 0)
(0.0486506 5.4722e-06 0)
(0.0480671 5.29526e-06 0)
(0.0475113 5.1168e-06 0)
(0.0469815 4.93807e-06 0)
(0.0464757 4.767e-06 0)
(0.0459945 4.53394e-06 0)
(0.0455331 4.39279e-06 0)
(0.0451001 3.97849e-06 0)
(0.044679 3.96217e-06 0)
(0.0443006 3.1046e-06 0)
(0.0439178 3.41297e-06 0)
(0.0436076 1.74617e-06 0)
(0.043274 2.54394e-06 0)
(0.0430329 3.65027e-09 0)
(0.042824 1.14884e-06 0)
(0.0425098 -1.45752e-06 0)
(0.0429655 1.75379e-05 0)
(0.0384723 -0.00151469 0)
(0.884862 0.0434939 0)
(0.65013 0.0201504 0)
(0.493929 0.00660655 0)
(0.403472 0.00275672 0)
(0.354728 0.00154989 0)
(0.323382 0.00113356 0)
(0.299453 0.000911075 0)
(0.280217 0.000746439 0)
(0.264478 0.000623724 0)
(0.251333 0.000533239 0)
(0.240129 0.000464553 0)
(0.230426 0.0004105 0)
(0.221918 0.000366822 0)
(0.214382 0.000330866 0)
(0.207649 0.000300827 0)
(0.201591 0.000275411 0)
(0.196104 0.000253668 0)
(0.191106 0.000234885 0)
(0.186533 0.000218519 0)
(0.182329 0.000204153 0)
(0.178449 0.000191456 0)
(0.174856 0.00018017 0)
(0.171517 0.000170085 0)
(0.168406 0.00016103 0)
(0.165499 0.000152867 0)
(0.162776 0.000145478 0)
(0.160219 0.000138768 0)
(0.157813 0.000132655 0)
(0.155544 0.000127065 0)
(0.153401 0.000121946 0)
(0.151373 0.000117233 0)
(0.14945 0.000112896 0)
(0.147625 0.000108863 0)
(0.145889 0.000105135 0)
(0.144237 0.00010161 0)
(0.142662 9.83152e-05 0)
(0.141159 9.51271e-05 0)
(0.139727 9.20232e-05 0)
(0.138352 8.90042e-05 0)
(0.137055 8.56266e-05 0)
(0.13579 8.26701e-05 0)
(0.134637 7.80124e-05 0)
(0.133468 7.52911e-05 0)
(0.132481 6.71168e-05 0)
(0.131424 6.60649e-05 0)
(0.130591 4.84137e-05 0)
(0.12985 6.02112e-05 0)
(0.128761 -8.80073e-06 0)
(0.129695 0.000268444 0)
(0.122752 -0.00236083 0)
(0.991209 0.0499568 0)
(0.89091 0.0305659 0)
(0.762444 0.014615 0)
(0.656441 0.00797555 0)
(0.58529 0.00488433 0)
(0.535874 0.00347915 0)
(0.497938 0.00274279 0)
(0.467267 0.00224837 0)
(0.441915 0.00188456 0)
(0.420571 0.00161293 0)
(0.402287 0.00140553 0)
(0.386393 0.00124229 0)
(0.372416 0.00111044 0)
(0.360005 0.00100188 0)
(0.348895 0.000911137 0)
(0.338881 0.000834307 0)
(0.329798 0.000768531 0)
(0.321517 0.000711665 0)
(0.31393 0.000662081 0)
(0.30695 0.000618516 0)
(0.300504 0.000579984 0)
(0.294531 0.000545701 0)
(0.288979 0.000515035 0)
(0.283804 0.000487474 0)
(0.278967 0.000462598 0)
(0.274435 0.000440056 0)
(0.27018 0.000419557 0)
(0.266177 0.000400855 0)
(0.262403 0.000383737 0)
(0.258838 0.000368032 0)
(0.255466 0.000353568 0)
(0.252271 0.000340237 0)
(0.249239 0.000327868 0)
(0.246357 0.00031643 0)
(0.243616 0.000305684 0)
(0.241004 0.000295712 0)
(0.238512 0.000286127 0)
(0.236138 0.000277137 0)
(0.23386 0.000268202 0)
(0.231706 0.000259367 0)
(0.229608 0.000250575 0)
(0.227675 0.000239993 0)
(0.225728 0.000231469 0)
(0.224038 0.00021389 0)
(0.222257 0.000210009 0)
(0.220762 0.000167585 0)
(0.219436 0.000201585 0)
(0.217562 2.56216e-05 0)
(0.218281 0.000484889 0)
(0.211686 -0.00219223 0)
(1.01554 0.0489553 0)
(1.00648 0.0357288 0)
(0.93585 0.0208264 0)
(0.851931 0.0135066 0)
(0.782104 0.00920629 0)
(0.726903 0.00679149 0)
(0.681762 0.00539496 0)
(0.643952 0.00445337 0)
(0.611894 0.00375844 0)
(0.584389 0.00323239 0)
(0.560501 0.00282608 0)
(0.53952 0.0025041 0)
(0.52092 0.00224291 0)
(0.504295 0.00202709 0)
(0.489333 0.00184611 0)
(0.475785 0.00169246 0)
(0.463451 0.00156059 0)
(0.452169 0.00144633 0)
(0.441804 0.00134651 0)
(0.432245 0.00125866 0)
(0.423399 0.00118082 0)
(0.415187 0.00111145 0)
(0.407542 0.0010493 0)
(0.400405 0.00099337 0)
(0.393728 0.000942809 0)
(0.387465 0.000896923 0)
(0.38158 0.000855132 0)
(0.376038 0.000816943 0)
(0.370811 0.000781938 0)
(0.365872 0.000749764 0)
(0.361199 0.000720098 0)
(0.356769 0.000692703 0)
(0.352566 0.000667278 0)
(0.34857 0.000643728 0)
(0.34477 0.00062164 0)
(0.34115 0.000601167 0)
(0.337697 0.000581552 0)
(0.334407 0.0005634 0)
(0.331252 0.00054528 0)
(0.328263 0.000528299 0)
(0.32536 0.000510638 0)
(0.322666 0.000492009 0)
(0.319974 0.000475035 0)
(0.317582 0.000445682 0)
(0.315116 0.000438384 0)
(0.312954 0.000364837 0)
(0.311018 0.000425828 0)
(0.308512 0.000141309 0)
(0.308461 0.0006863 0)
(0.302701 -0.00166174 0)
(1.01435 0.0460999 0)
(1.04797 0.037347 0)
(1.02454 0.0241963 0)
(0.974617 0.0175691 0)
(0.923372 0.0131212 0)
(0.876589 0.0102175 0)
(0.834372 0.00835688 0)
(0.796575 0.00703338 0)
(0.762973 0.00602184 0)
(0.733123 0.00523372 0)
(0.706512 0.00461139 0)
(0.682667 0.00411036 0)
(0.66119 0.00369913 0)
(0.641748 0.00335618 0)
(0.624066 0.00306642 0)
(0.607914 0.00281884 0)
(0.5931 0.00260521 0)
(0.579463 0.00241925 0)
(0.566865 0.00225612 0)
(0.555193 0.00211202 0)
(0.544345 0.00198393 0)
(0.534238 0.00186945 0)
(0.524798 0.00176662 0)
(0.515961 0.00167382 0)
(0.507671 0.00158975 0)
(0.499878 0.00151328 0)
(0.49254 0.00144348 0)
(0.485617 0.00137956 0)
(0.479077 0.00132085 0)
(0.472889 0.00126677 0)
(0.467026 0.00121682 0)
(0.461463 0.00117059 0)
(0.456179 0.00112762 0)
(0.451153 0.00108774 0)
(0.446368 0.00105032 0)
(0.441809 0.00101559 0)
(0.437458 0.000982377 0)
(0.433309 0.00095174 0)
(0.429333 0.000921217 0)
(0.425558 0.000893174 0)
(0.421903 0.000863781 0)
(0.418485 0.000834481 0)
(0.415103 0.000806794 0)
(0.41204 0.00076293 0)
(0.40894 0.000750894 0)
(0.406157 0.000644328 0)
(0.403596 0.0007243 0)
(0.400642 0.000358556 0)
(0.399599 0.000907172 0)
(0.39456 -0.00104578 0)
(1.00941 0.0430498 0)
(1.05563 0.0371033 0)
(1.05865 0.0253396 0)
(1.03626 0.019777 0)
(1.00704 0.0158131 0)
(0.975973 0.0129494 0)
(0.944392 0.0109775 0)
(0.913472 0.00949317 0)
(0.884073 0.00830075 0)
(0.856577 0.00733204 0)
(0.83106 0.00654148 0)
(0.80746 0.00588858 0)
(0.785656 0.00534186 0)
(0.765504 0.00487852 0)
(0.746858 0.00448181 0)
(0.729578 0.00413908 0)
(0.713534 0.00384056 0)
(0.698608 0.00357862 0)
(0.684695 0.00334723 0)
(0.6717 0.00314157 0)
(0.659539 0.00295778 0)
(0.648138 0.00279271 0)
(0.637431 0.00264378 0)
(0.627359 0.00250887 0)
(0.617868 0.00238617 0)
(0.608911 0.0022742 0)
(0.600447 0.00217168 0)
(0.592436 0.00207751 0)
(0.584846 0.00199077 0)
(0.577645 0.00191065 0)
(0.570805 0.00183646 0)
(0.564302 0.00176761 0)
(0.558112 0.00170348 0)
(0.552214 0.00164379 0)
(0.54659 0.00158772 0)
(0.541222 0.00153555 0)
(0.536094 0.00148568 0)
(0.531197 0.00143961 0)
(0.526502 0.0013939 0)
(0.522033 0.00135201 0)
(0.517714 0.00130845 0)
(0.513651 0.00126576 0)
(0.509659 0.00122533 0)
(0.505992 0.00116457 0)
(0.502324 0.00114477 0)
(0.498999 0.00100772 0)
(0.495839 0.00109046 0)
(0.492555 0.000677426 0)
(0.490563 0.0011697 0)
(0.486062 -0.000369061 0)
(1.00635 0.0401821 0)
(1.0524 0.0361573 0)
(1.06604 0.0252646 0)
(1.05949 0.0205845 0)
(1.04682 0.0172435 0)
(1.03073 0.0146717 0)
(1.01178 0.0128406 0)
(0.991037 0.0114136 0)
(0.969578 0.0102146 0)
(0.948129 0.00919757 0)
(0.927133 0.00833639 0)
(0.906853 0.0076028 0)
(0.887436 0.00697229 0)
(0.868951 0.00642604 0)
(0.851417 0.00594953 0)
(0.834821 0.00553126 0)
(0.819132 0.00516195 0)
(0.804306 0.00483403 0)
(0.790298 0.00454135 0)
(0.777058 0.00427885 0)
(0.764538 0.00404236 0)
(0.752691 0.00382843 0)
(0.741471 0.00363418 0)
(0.730838 0.00345716 0)
(0.720751 0.00329533 0)
(0.711174 0.00314691 0)
(0.702074 0.00301041 0)
(0.693419 0.0028845 0)
(0.685181 0.00276808 0)
(0.677331 0.00266016 0)
(0.669848 0.00255987 0)
(0.662706 0.00246648 0)
(0.655887 0.00237925 0)
(0.64937 0.00229779 0)
(0.643139 0.0022211 0)
(0.637176 0.0021495 0)
(0.631466 0.00208103 0)
(0.626 0.00201752 0)
(0.620753 0.00195477 0)
(0.615742 0.00189699 0)
(0.610902 0.00183757 0)
(0.606322 0.00177938 0)
(0.601841 0.00172448 0)
(0.597685 0.00164558 0)
(0.593551 0.0016139 0)
(0.589789 0.00145121 0)
(0.586122 0.00151986 0)
(0.582563 0.00108846 0)
(0.579822 0.00148535 0)
(0.575654 0.00034572 0)
(1.00506 0.0375051 0)
(1.04762 0.0350598 0)
(1.06394 0.0247186 0)
(1.06415 0.0206179 0)
(1.06063 0.017785 0)
(1.05469 0.0155165 0)
(1.04588 0.0139014 0)
(1.03464 0.0126398 0)
(1.02168 0.0115517 0)
(1.0076 0.0105976 0)
(0.992869 0.00976377 0)
(0.977837 0.00903249 0)
(0.96277 0.00838689 0)
(0.947862 0.00781385 0)
(0.933248 0.00730309 0)
(0.919022 0.0068461 0)
(0.905241 0.00643572 0)
(0.891941 0.00606584 0)
(0.879138 0.00573129 0)
(0.866837 0.00542764 0)
(0.855034 0.00515116 0)
(0.843721 0.00489865 0)
(0.832882 0.00466736 0)
(0.822501 0.00445492 0)
(0.812561 0.00425932 0)
(0.803043 0.00407874 0)
(0.793927 0.00391167 0)
(0.785196 0.0037567 0)
(0.77683 0.00361267 0)
(0.768812 0.00347851 0)
(0.761125 0.00335327 0)
(0.753751 0.00323616 0)
(0.746678 0.00312634 0)
(0.739888 0.00302336 0)
(0.733369 0.00292612 0)
(0.727107 0.00283496 0)
(0.721089 0.00274765 0)
(0.715309 0.00266626 0)
(0.709745 0.00258605 0)
(0.704411 0.00251163 0)
(0.699253 0.00243583 0)
(0.694347 0.00236127 0)
(0.689553 0.00229095 0)
(0.685071 0.00219392 0)
(0.680627 0.00214693 0)
(0.676558 0.0019634 0)
(0.672549 0.00200561 0)
(0.668772 0.00157557 0)
(0.665529 0.00185936 0)
(0.66156 0.00106589 0)
(1.00451 0.0349696 0)
(1.04359 0.0339807 0)
(1.05991 0.0240691 0)
(1.06219 0.0203306 0)
(1.06245 0.0178527 0)
(1.06175 0.0157996 0)
(1.05914 0.014359 0)
(1.05454 0.0132636 0)
(1.04827 0.0123179 0)
(1.04066 0.0114758 0)
(1.03197 0.0107263 0)
(1.02246 0.0100557 0)
(1.01237 0.00945104 0)
(1.00189 0.00890289 0)
(0.991187 0.00840428 0)
(0.980388 0.0079496 0)
(0.969599 0.00753402 0)
(0.958899 0.00715334 0)
(0.94835 0.00680385 0)
(0.937998 0.00648231 0)
(0.927875 0.00618586 0)
(0.918005 0.005912 0)
(0.908404 0.00565853 0)
(0.899082 0.00542347 0)
(0.890043 0.00520511 0)
(0.881288 0.00500189 0)
(0.872817 0.00481244 0)
(0.864624 0.0046355 0)
(0.856706 0.00446998 0)
(0.849056 0.00431487 0)
(0.841666 0.00416926 0)
(0.834529 0.00403238 0)
(0.827638 0.00390338 0)
(0.820984 0.00378184 0)
(0.814559 0.0036666 0)
(0.808356 0.00355804 0)
(0.802366 0.00345379 0)
(0.796584 0.00335604 0)
(0.790996 0.00325978 0)
(0.785616 0.00316973 0)
(0.780397 0.00307858 0)
(0.775406 0.00298831 0)
(0.770528 0.002903 0)
(0.765931 0.00278896 0)
(0.761383 0.00272515 0)
(0.757179 0.002525 0)
(0.753033 0.00253381 0)
(0.74915 0.00211707 0)
(0.745646 0.00228634 0)
(0.741859 0.00176242 0)
(1.00412 0.0325393 0)
(1.04026 0.0329282 0)
(1.05615 0.023436 0)
(1.05883 0.0199483 0)
(1.06018 0.0177265 0)
(1.06153 0.0158057 0)
(1.06186 0.0144671 0)
(1.06092 0.0134876 0)
(1.05881 0.0126581 0)
(1.05564 0.0119219 0)
(1.0515 0.0112655 0)
(1.04651 0.0106747 0)
(1.04079 0.0101367 0)
(1.03446 0.00964269 0)
(1.02766 0.00918687 0)
(1.02048 0.00876498 0)
(1.01302 0.00837359 0)
(1.00537 0.00800981 0)
(0.997605 0.00767113 0)
(0.989776 0.00735535 0)
(0.981938 0.00706051 0)
(0.974132 0.00678488 0)
(0.96639 0.00652689 0)
(0.958741 0.00628514 0)
(0.951206 0.00605834 0)
(0.943802 0.00584533 0)
(0.936541 0.00564505 0)
(0.929434 0.0054565 0)
(0.922487 0.00527879 0)
(0.915706 0.00511108 0)
(0.909092 0.00495261 0)
(0.902648 0.00480271 0)
(0.896373 0.00466061 0)
(0.890267 0.00452598 0)
(0.884329 0.00439766 0)
(0.878556 0.00427613 0)
(0.872946 0.00415897 0)
(0.867499 0.00404843 0)
(0.862205 0.00393943 0)
(0.857078 0.00383656 0)
(0.852085 0.00373282 0)
(0.84728 0.0036291 0)
(0.842574 0.0035309 0)
(0.838102 0.00340221 0)
(0.833687 0.00332207 0)
(0.829555 0.00310971 0)
(0.825494 0.00308223 0)
(0.821675 0.00268613 0)
(0.81814 0.00274863 0)
(0.814602 0.00241261 0)
(1.00374 0.0302053 0)
(1.03726 0.03188 0)
(1.05281 0.0228341 0)
(1.05559 0.0195483 0)
(1.05709 0.017539 0)
(1.05899 0.0157075 0)
(1.06039 0.0144172 0)
(1.06104 0.0135016 0)
(1.06099 0.012746 0)
(1.0603 0.0120841 0)
(1.05894 0.0115001 0)
(1.05695 0.0109783 0)
(1.05434 0.0105045 0)
(1.05118 0.0100688 0)
(1.04752 0.00966476 0)
(1.04342 0.00928817 0)
(1.03895 0.00893577 0)
(1.03416 0.00860505 0)
(1.02911 0.00829398 0)
(1.02385 0.00800088 0)
(1.01842 0.00772432 0)
(1.01287 0.00746305 0)
(1.00724 0.00721601 0)
(1.00155 0.0069822 0)
(0.995841 0.00676077 0)
(0.990125 0.00655089 0)
(0.984428 0.00635183 0)
(0.978766 0.00616287 0)
(0.973155 0.00598337 0)
(0.967606 0.0058127 0)
(0.962129 0.00565029 0)
(0.956733 0.00549562 0)
(0.951424 0.00534806 0)
(0.946207 0.00520739 0)
(0.941088 0.00507254 0)
(0.936069 0.00494407 0)
(0.931151 0.00481959 0)
(0.926341 0.00470137 0)
(0.921633 0.00458448 0)
(0.917042 0.0044731 0)
(0.912545 0.00436097 0)
(0.908186 0.00424745 0)
(0.903903 0.00413986 0)
(0.899795 0.00400012 0)
(0.895742 0.0039057 0)
(0.891903 0.00368615 0)
(0.888139 0.00362277 0)
(0.884577 0.00325147 0)
(0.881229 0.00321992 0)
(0.878048 0.00299765 0)
(1.00337 0.0279701 0)
(1.03442 0.0308238 0)
(1.04971 0.0222572 0)
(1.05263 0.0191457 0)
(1.05409 0.0173331 0)
(1.05604 0.0155802 0)
(1.05772 0.0143125 0)
(1.05889 0.0134282 0)
(1.05966 0.0127136 0)
(1.06007 0.0120952 0)
(1.06011 0.0115563 0)
(1.05975 0.0110812 0)
(1.05899 0.0106545 0)
(1.05783 0.0102651 0)
(1.05629 0.00990565 0)
(1.05439 0.00957118 0)
(1.05214 0.00925801 0)
(1.04959 0.00896336 0)
(1.04676 0.00868507 0)
(1.04367 0.00842146 0)
(1.04037 0.00817118 0)
(1.03688 0.00793313 0)
(1.03322 0.00770638 0)
(1.02943 0.00749016 0)
(1.02553 0.00728381 0)
(1.02154 0.00708673 0)
(1.01749 0.00689838 0)
(1.01338 0.00671826 0)
(1.00924 0.00654592 0)
(1.00508 0.0063809 0)
(1.00091 0.0062228 0)
(0.996749 0.00607124 0)
(0.992603 0.00592572 0)
(0.98848 0.00578614 0)
(0.984389 0.00565151 0)
(0.980335 0.0055225 0)
(0.976325 0.0053968 0)
(0.972366 0.0052766 0)
(0.968457 0.00515731 0)
(0.964612 0.00504242 0)
(0.96082 0.00492685 0)
(0.957113 0.00480804 0)
(0.953454 0.0046953 0)
(0.949909 0.00454904 0)
(0.946409 0.00444338 0)
(0.943054 0.00422194 0)
(0.939765 0.00412577 0)
(0.936635 0.00378046 0)
(0.933664 0.00367054 0)
(0.930948 0.00350007 0)
(1.00301 0.0258372 0)
(1.0317 0.0297554 0)
(1.04671 0.0217015 0)
(1.04984 0.0187402 0)
(1.05127 0.0171154 0)
(1.05319 0.015446 0)
(1.0549 0.0141942 0)
(1.05618 0.0133265 0)
(1.05719 0.0126353 0)
(1.05799 0.012041 0)
(1.05859 0.0115268 0)
(1.05897 0.0110785 0)
(1.05912 0.0106805 0)
(1.05902 0.0103212 0)
(1.05868 0.00999259 0)
(1.0581 0.00968915 0)
(1.05727 0.00940669 0)
(1.0562 0.00914198 0)
(1.05491 0.00889257 0)
(1.0534 0.00865648 0)
(1.05169 0.0084322 0)
(1.0498 0.00821847 0)
(1.04773 0.00801433 0)
(1.04551 0.00781896 0)
(1.04315 0.00763171 0)
(1.04067 0.00745202 0)
(1.03808 0.00727943 0)
(1.0354 0.0071135 0)
(1.03264 0.00695389 0)
(1.02981 0.00680022 0)
(1.02692 0.00665217 0)
(1.02399 0.00650948 0)
(1.02102 0.0063717 0)
(1.01803 0.00623886 0)
(1.01502 0.00611 0)
(1.012 0.00598584 0)
(1.00898 0.00586422 0)
(1.00596 0.00574712 0)
(1.00295 0.00563045 0)
(0.999956 0.00551681 0)
(0.996979 0.00540248 0)
(0.994039 0.00528288 0)
(0.99112 0.00516914 0)
(0.988262 0.00502106 0)
(0.985431 0.00490755 0)
(0.982689 0.00468915 0)
(0.979994 0.00456512 0)
(0.977419 0.00424458 0)
(0.974957 0.00407244 0)
(0.972783 0.00390624 0)
(1.00268 0.0238091 0)
(1.0291 0.0286733 0)
(1.0438 0.0211666 0)
(1.04714 0.0183317 0)
(1.04858 0.0168844 0)
(1.05046 0.0153075 0)
(1.05217 0.0140733 0)
(1.05346 0.0132176 0)
(1.0545 0.0125432 0)
(1.0554 0.0119641 0)
(1.05617 0.0114637 0)
(1.05682 0.0110298 0)
(1.05733 0.0106477 0)
(1.0577 0.0103055 0)
(1.05794 0.00999526 0)
(1.05802 0.00971117 0)
(1.05796 0.00944882 0)
(1.05774 0.00920474 0)
(1.05736 0.00897618 0)
(1.05684 0.00876097 0)
(1.05616 0.00855732 0)
(1.05534 0.00836382 0)
(1.05438 0.00817932 0)
(1.05329 0.00800287 0)
(1.05207 0.00783372 0)
(1.05073 0.00767124 0)
(1.04929 0.00751494 0)
(1.04774 0.00736435 0)
(1.0461 0.00721911 0)
(1.04438 0.00707887 0)
(1.04259 0.00694333 0)
(1.04072 0.00681225 0)
(1.0388 0.0066852 0)
(1.03683 0.00656224 0)
(1.03481 0.00644248 0)
(1.03275 0.00632658 0)
(1.03066 0.00621254 0)
(1.02854 0.00610205 0)
(1.0264 0.00599162 0)
(1.02425 0.00588276 0)
(1.02209 0.00577323 0)
(1.01993 0.00565652 0)
(1.01777 0.00554506 0)
(1.01563 0.00539918 0)
(1.01349 0.00528087 0)
(1.01141 0.00506936 0)
(1.00935 0.00492306 0)
(1.00738 0.00462439 0)
(1.00549 0.00440422 0)
(1.00388 0.0042102 0)
(1.00238 0.0218875 0)
(1.02663 0.0275766 0)
(1.04098 0.0206522 0)
(1.04454 0.0179218 0)
(1.04599 0.0166389 0)
(1.04784 0.0151633 0)
(1.04954 0.013951 0)
(1.05083 0.0131064 0)
(1.05187 0.0124471 0)
(1.05277 0.0118807 0)
(1.05357 0.01139 0)
(1.05428 0.0109649 0)
(1.0549 0.0105917 0)
(1.05544 0.0102591 0)
(1.0559 0.00995904 0)
(1.05627 0.00968589 0)
(1.05655 0.00943523 0)
(1.05674 0.00920358 0)
(1.05684 0.00898809 0)
(1.05684 0.00878646 0)
(1.05675 0.00859679 0)
(1.05655 0.00841754 0)
(1.05626 0.00824739 0)
(1.05587 0.0080853 0)
(1.05539 0.00793039 0)
(1.05481 0.00778194 0)
(1.05415 0.00763936 0)
(1.0534 0.00750213 0)
(1.05257 0.00736985 0)
(1.05167 0.00724212 0)
(1.05069 0.00711861 0)
(1.04965 0.00699907 0)
(1.04854 0.00688305 0)
(1.04738 0.0067706 0)
(1.04616 0.00666082 0)
(1.04489 0.00655432 0)
(1.04358 0.00644927 0)
(1.04223 0.00634693 0)
(1.04084 0.00624445 0)
(1.03942 0.00614227 0)
(1.03798 0.00603946 0)
(1.03652 0.00592792 0)
(1.03504 0.00582066 0)
(1.03356 0.00567974 0)
(1.03207 0.00555886 0)
(1.0306 0.00535651 0)
(1.02915 0.00519326 0)
(1.02775 0.00491233 0)
(1.02642 0.00465532 0)
(1.02534 0.00441449 0)
(1.0021 0.0200735 0)
(1.0243 0.0264673 0)
(1.03825 0.0201561 0)
(1.04201 0.0175124 0)
(1.04349 0.0163788 0)
(1.04531 0.015012 0)
(1.04701 0.0138268 0)
(1.0483 0.0129933 0)
(1.04932 0.0123491 0)
(1.05021 0.0117953 0)
(1.051 0.0113133 0)
(1.05172 0.0108951 0)
(1.05236 0.0105282 0)
(1.05294 0.0102017 0)
(1.05346 0.00990777 0)
(1.05393 0.00964091 0)
(1.05434 0.00939689 0)
(1.0547 0.0091723 0)
(1.05499 0.00896435 0)
(1.05524 0.00877076 0)
(1.05542 0.0085896 0)
(1.05554 0.00841926 0)
(1.0556 0.00825839 0)
(1.05559 0.00810585 0)
(1.05553 0.00796071 0)
(1.05539 0.00782217 0)
(1.0552 0.00768957 0)
(1.05494 0.00756236 0)
(1.05463 0.00744006 0)
(1.05425 0.00732225 0)
(1.05382 0.00720852 0)
(1.05333 0.00709864 0)
(1.05279 0.00699209 0)
(1.0522 0.0068889 0)
(1.05155 0.00678818 0)
(1.05087 0.0066904 0)
(1.05013 0.0065939 0)
(1.04936 0.00649953 0)
(1.04855 0.00640503 0)
(1.0477 0.00630982 0)
(1.04683 0.00621405 0)
(1.04593 0.0061085 0)
(1.045 0.00600595 0)
(1.04406 0.00587128 0)
(1.04311 0.00574908 0)
(1.04216 0.0055565 0)
(1.04121 0.0053807 0)
(1.04031 0.00511267 0)
(1.03946 0.00482699 0)
(1.03884 0.00453022 0)
(1.00185 0.0183673 0)
(1.0221 0.0253493 0)
(1.03561 0.0196744 0)
(1.03958 0.0171053 0)
(1.04107 0.0161048 0)
(1.04287 0.0148527 0)
(1.04457 0.0137002 0)
(1.04586 0.0128782 0)
(1.04687 0.0122491 0)
(1.04774 0.0117085 0)
(1.04852 0.0112355 0)
(1.04923 0.0108238 0)
(1.04986 0.0104626 0)
(1.05044 0.010141 0)
(1.05097 0.00985163 0)
(1.05145 0.00958905 0)
(1.0519 0.00934926 0)
(1.05231 0.00912897 0)
(1.05268 0.00892551 0)
(1.05301 0.00873664 0)
(1.0533 0.00856049 0)
(1.05356 0.00839545 0)
(1.05377 0.00824019 0)
(1.05395 0.00809353 0)
(1.05408 0.00795453 0)
(1.05418 0.00782236 0)
(1.05423 0.00769632 0)
(1.05424 0.00757585 0)
(1.05421 0.00746041 0)
(1.05413 0.00734959 0)
(1.05402 0.00724295 0)
(1.05387 0.0071402 0)
(1.05367 0.00704083 0)
(1.05344 0.0069448 0)
(1.05316 0.00685126 0)
(1.05285 0.00676051 0)
(1.05251 0.00667111 0)
(1.05212 0.00658344 0)
(1.05171 0.00649582 0)
(1.05126 0.00640677 0)
(1.05079 0.00631721 0)
(1.05029 0.00621737 0)
(1.04977 0.006119 0)
(1.04923 0.00599063 0)
(1.04867 0.00586753 0)
(1.04812 0.00568395 0)
(1.04756 0.00549889 0)
(1.04703 0.00523874 0)
(1.04655 0.00493002 0)
(1.04627 0.00457528 0)
(1.00162 0.0167686 0)
(1.02004 0.024227 0)
(1.03308 0.0192033 0)
(1.03723 0.0167021 0)
(1.03875 0.0158179 0)
(1.04051 0.0146848 0)
(1.04221 0.0135708 0)
(1.0435 0.0127608 0)
(1.0445 0.0121469 0)
(1.04537 0.0116202 0)
(1.04613 0.0111566 0)
(1.04682 0.0107518 0)
(1.04745 0.0103961 0)
(1.04802 0.0100794 0)
(1.04854 0.00979409 0)
(1.04902 0.00953517 0)
(1.04946 0.00929872 0)
(1.04988 0.00908161 0)
(1.05026 0.00888126 0)
(1.05061 0.00869553 0)
(1.05094 0.0085226 0)
(1.05124 0.0083609 0)
(1.05151 0.00820912 0)
(1.05176 0.00806612 0)
(1.05197 0.00793092 0)
(1.05217 0.00780272 0)
(1.05233 0.00768082 0)
(1.05246 0.00756464 0)
(1.05257 0.00745366 0)
(1.05265 0.00734745 0)
(1.0527 0.00724556 0)
(1.05272 0.00714769 0)
(1.05271 0.00705332 0)
(1.05268 0.00696237 0)
(1.05262 0.00687404 0)
(1.05252 0.00678847 0)
(1.05241 0.00670442 0)
(1.05226 0.00662186 0)
(1.05209 0.00653957 0)
(1.05189 0.00645541 0)
(1.05167 0.00637072 0)
(1.05143 0.00627568 0)
(1.05117 0.00618046 0)
(1.05089 0.00605765 0)
(1.0506 0.00593361 0)
(1.05031 0.00575745 0)
(1.05001 0.00556546 0)
(1.04975 0.00530859 0)
(1.04953 0.00498066 0)
(1.04946 0.00457076 0)
(1.00142 0.0152765 0)
(1.01811 0.0231045 0)
(1.03066 0.0187386 0)
(1.03496 0.0163042 0)
(1.03653 0.0155195 0)
(1.03825 0.0145078 0)
(1.03993 0.0134385 0)
(1.04123 0.0126413 0)
(1.04223 0.0120424 0)
(1.04308 0.0115302 0)
(1.04384 0.0110767 0)
(1.04452 0.0106789 0)
(1.04513 0.010329 0)
(1.04568 0.0100172 0)
(1.04619 0.00973605 0)
(1.04666 0.00948069 0)
(1.0471 0.00924738 0)
(1.0475 0.00903312 0)
(1.04788 0.00883543 0)
(1.04824 0.00865224 0)
(1.04857 0.00848179 0)
(1.04887 0.00832257 0)
(1.04916 0.00817328 0)
(1.04942 0.0080328 0)
(1.04966 0.00790019 0)
(1.04989 0.00777463 0)
(1.05009 0.00765547 0)
(1.05027 0.00754212 0)
(1.05043 0.00743408 0)
(1.05058 0.00733092 0)
(1.0507 0.00723218 0)
(1.0508 0.0071376 0)
(1.05088 0.00704664 0)
(1.05095 0.00695918 0)
(1.05099 0.0068745 0)
(1.05101 0.00679258 0)
(1.05101 0.00671238 0)
(1.05099 0.00663353 0)
(1.05095 0.00655515 0)
(1.05089 0.00647467 0)
(1.05081 0.00639351 0)
(1.05072 0.00630227 0)
(1.05061 0.00620913 0)
(1.05049 0.00609087 0)
(1.05036 0.00596576 0)
(1.05022 0.00579519 0)
(1.05009 0.00559791 0)
(1.04998 0.00534065 0)
(1.04991 0.00499629 0)
(1.04997 0.00453728 0)
(1.00124 0.0138899 0)
(1.01632 0.0219856 0)
(1.02834 0.0182766 0)
(1.03279 0.0159129 0)
(1.0344 0.0152112 0)
(1.03608 0.014321 0)
(1.03775 0.0133027 0)
(1.03905 0.0125197 0)
(1.04005 0.0119355 0)
(1.04089 0.0114383 0)
(1.04163 0.0109955 0)
(1.0423 0.0106052 0)
(1.0429 0.0102613 0)
(1.04345 0.00995449 0)
(1.04394 0.00967765 0)
(1.0444 0.00942593 0)
(1.04483 0.00919579 0)
(1.04522 0.00898435 0)
(1.04559 0.00878923 0)
(1.04593 0.00860843 0)
(1.04626 0.00844025 0)
(1.04656 0.00828321 0)
(1.04684 0.00813603 0)
(1.0471 0.00799764 0)
(1.04735 0.00786708 0)
(1.04758 0.00774359 0)
(1.04779 0.00762649 0)
(1.04798 0.00751524 0)
(1.04816 0.00740933 0)
(1.04832 0.00730837 0)
(1.04847 0.00721191 0)
(1.0486 0.00711967 0)
(1.04872 0.00703116 0)
(1.04882 0.00694622 0)
(1.0489 0.00686417 0)
(1.04897 0.0067849 0)
(1.04903 0.00670752 0)
(1.04906 0.00663139 0)
(1.04909 0.00655589 0)
(1.04909 0.00647817 0)
(1.04909 0.00639955 0)
(1.04907 0.00631129 0)
(1.04904 0.00621946 0)
(1.049 0.00610481 0)
(1.04895 0.00597865 0)
(1.0489 0.00581202 0)
(1.04884 0.00561077 0)
(1.04881 0.00535062 0)
(1.04882 0.00499225 0)
(1.04892 0.00449215 0)
(1.00107 0.0126065 0)
(1.01466 0.0208745 0)
(1.02613 0.0178139 0)
(1.0307 0.015529 0)
(1.03236 0.0148949 0)
(1.034 0.014124 0)
(1.03566 0.013163 0)
(1.03696 0.0123961 0)
(1.03796 0.0118262 0)
(1.03879 0.0113444 0)
(1.03952 0.010913 0)
(1.04018 0.0105306 0)
(1.04077 0.0101928 0)
(1.0413 0.00989124 0)
(1.04179 0.00961883 0)
(1.04224 0.0093709 0)
(1.04265 0.00914402 0)
(1.04304 0.00893547 0)
(1.04339 0.00874296 0)
(1.04373 0.00856457 0)
(1.04404 0.00839863 0)
(1.04433 0.00824372 0)
(1.04461 0.00809858 0)
(1.04486 0.00796213 0)
(1.0451 0.00783347 0)
(1.04532 0.00771182 0)
(1.04553 0.00759654 0)
(1.04572 0.00748709 0)
(1.0459 0.00738299 0)
(1.04607 0.00728385 0)
(1.04622 0.00718925 0)
(1.04636 0.00709891 0)
(1.04648 0.00701236 0)
(1.04659 0.00692942 0)
(1.04669 0.00684947 0)
(1.04678 0.0067723 0)
(1.04685 0.00669714 0)
(1.04691 0.00662319 0)
(1.04695 0.00654993 0)
(1.04699 0.00647447 0)
(1.04701 0.00639776 0)
(1.04702 0.00631197 0)
(1.04702 0.00622105 0)
(1.04702 0.00610933 0)
(1.047 0.00598241 0)
(1.04699 0.00581848 0)
(1.04697 0.00561443 0)
(1.04697 0.00535015 0)
(1.047 0.0049803 0)
(1.0471 0.00444817 0)
(1.00093 0.0114238 0)
(1.01313 0.0197753 0)
(1.02403 0.0173474 0)
(1.0287 0.0151532 0)
(1.03042 0.0145725 0)
(1.03202 0.0139166 0)
(1.03365 0.0130188 0)
(1.03496 0.0122704 0)
(1.03595 0.0117145 0)
(1.03678 0.0112483 0)
(1.0375 0.010829 0)
(1.03815 0.0104549 0)
(1.03873 0.0101235 0)
(1.03925 0.00982735 0)
(1.03973 0.00955955 0)
(1.04017 0.00931553 0)
(1.04057 0.00909203 0)
(1.04095 0.00888646 0)
(1.04129 0.00869664 0)
(1.04162 0.00852072 0)
(1.04192 0.00835708 0)
(1.0422 0.00820432 0)
(1.04247 0.00806123 0)
(1.04272 0.00792674 0)
(1.04295 0.00779995 0)
(1.04316 0.0076801 0)
(1.04336 0.00756658 0)
(1.04355 0.00745885 0)
(1.04372 0.00735645 0)
(1.04388 0.00725901 0)
(1.04403 0.00716612 0)
(1.04416 0.00707751 0)
(1.04429 0.00699273 0)
(1.0444 0.00691158 0)
(1.0445 0.0068335 0)
(1.04458 0.00675819 0)
(1.04466 0.00668499 0)
(1.04472 0.00661297 0)
(1.04477 0.00654166 0)
(1.04481 0.00646822 0)
(1.04484 0.00639316 0)
(1.04486 0.00630959 0)
(1.04487 0.00621953 0)
(1.04487 0.00611032 0)
(1.04487 0.00598314 0)
(1.04486 0.00582118 0)
(1.04485 0.00561546 0)
(1.04485 0.00534697 0)
(1.04487 0.00496847 0)
(1.04493 0.00441391 0)
(1.0008 0.0103385 0)
(1.01173 0.0186921 0)
(1.02205 0.0168744 0)
(1.02678 0.0147857 0)
(1.02857 0.0142461 0)
(1.03013 0.0136987 0)
(1.03174 0.0128695 0)
(1.03305 0.0121425 0)
(1.03404 0.0116005 0)
(1.03486 0.01115 0)
(1.03557 0.0107433 0)
(1.03621 0.010378 0)
(1.03678 0.0100533 0)
(1.0373 0.00976275 0)
(1.03776 0.00949973 0)
(1.03819 0.00925976 0)
(1.03859 0.00903976 0)
(1.03895 0.00883728 0)
(1.03929 0.00865024 0)
(1.03961 0.00847686 0)
(1.0399 0.00831558 0)
(1.04017 0.00816505 0)
(1.04043 0.00802406 0)
(1.04067 0.00789156 0)
(1.04089 0.00776667 0)
(1.0411 0.00764866 0)
(1.04129 0.0075369 0)
(1.04147 0.00743089 0)
(1.04164 0.00733019 0)
(1.04179 0.00723443 0)
(1.04193 0.00714323 0)
(1.04206 0.00705631 0)
(1.04218 0.00697326 0)
(1.04228 0.00689385 0)
(1.04237 0.00681757 0)
(1.04246 0.00674406 0)
(1.04253 0.00667274 0)
(1.04259 0.00660258 0)
(1.04264 0.00653313 0)
(1.04268 0.00646166 0)
(1.0427 0.00638821 0)
(1.04272 0.00630679 0)
(1.04273 0.00621778 0)
(1.04273 0.0061109 0)
(1.04272 0.0059841 0)
(1.04271 0.00582384 0)
(1.0427 0.0056176 0)
(1.04268 0.00534574 0)
(1.04268 0.00496184 0)
(1.04268 0.00439441 0)
(1.00069 0.00934673 0)
(1.01045 0.0176289 0)
(1.02018 0.0163926 0)
(1.02495 0.0144264 0)
(1.02681 0.0139176 0)
(1.02833 0.0134705 0)
(1.02991 0.0127145 0)
(1.03122 0.0120124 0)
(1.03222 0.0114842 0)
(1.03303 0.0110493 0)
(1.03373 0.010656 0)
(1.03436 0.0102999 0)
(1.03493 0.00998213 0)
(1.03543 0.00969736 0)
(1.03589 0.00943928 0)
(1.03631 0.00920353 0)
(1.0367 0.00898715 0)
(1.03705 0.00878786 0)
(1.03738 0.0086037 0)
(1.03769 0.00843294 0)
(1.03798 0.00827411 0)
(1.03824 0.00812586 0)
(1.03849 0.00798703 0)
(1.03872 0.00785658 0)
(1.03893 0.00773364 0)
(1.03913 0.0076175 0)
(1.03932 0.00750754 0)
(1.03949 0.0074033 0)
(1.03965 0.00730432 0)
(1.03979 0.00721028 0)
(1.03993 0.00712078 0)
(1.04005 0.00703558 0)
(1.04016 0.00695427 0)
(1.04026 0.00687661 0)
(1.04035 0.00680215 0)
(1.04043 0.00673046 0)
(1.04049 0.00666101 0)
(1.04055 0.00659277 0)
(1.04059 0.00652519 0)
(1.04062 0.00645575 0)
(1.04065 0.006384 0)
(1.04066 0.00630478 0)
(1.04066 0.00621712 0)
(1.04065 0.00611258 0)
(1.04064 0.00598687 0)
(1.04062 0.00582839 0)
(1.04059 0.00562281 0)
(1.04055 0.00534914 0)
(1.04051 0.00496345 0)
(1.04046 0.00439241 0)
(1.0006 0.00844429 0)
(1.00929 0.0165899 0)
(1.01842 0.0159003 0)
(1.02321 0.0140752 0)
(1.02514 0.0135889 0)
(1.02662 0.0132324 0)
(1.02817 0.0125532 0)
(1.02948 0.0118799 0)
(1.03048 0.0113655 0)
(1.03128 0.0109462 0)
(1.03198 0.0105667 0)
(1.0326 0.0102204 0)
(1.03316 0.00990988 0)
(1.03366 0.00963109 0)
(1.03411 0.00937814 0)
(1.03452 0.00914675 0)
(1.0349 0.00893413 0)
(1.03525 0.00873815 0)
(1.03557 0.00855695 0)
(1.03587 0.00838891 0)
(1.03615 0.00823259 0)
(1.0364 0.00808671 0)
(1.03664 0.00795009 0)
(1.03687 0.00782175 0)
(1.03707 0.00770082 0)
(1.03727 0.0075866 0)
(1.03744 0.0074785 0)
(1.03761 0.00737606 0)
(1.03776 0.00727885 0)
(1.0379 0.00718656 0)
(1.03803 0.00709881 0)
(1.03814 0.00701536 0)
(1.03825 0.00693584 0)
(1.03834 0.00685998 0)
(1.03842 0.00678737 0)
(1.03849 0.00671755 0)
(1.03855 0.00665004 0)
(1.0386 0.00658377 0)
(1.03864 0.00651815 0)
(1.03867 0.00645083 0)
(1.03868 0.00638094 0)
(1.03869 0.00630404 0)
(1.03869 0.00621811 0)
(1.03867 0.00611604 0)
(1.03865 0.00599214 0)
(1.03861 0.00583583 0)
(1.03856 0.00563215 0)
(1.0385 0.00535872 0)
(1.03843 0.00497511 0)
(1.03832 0.00440922 0)
(1.00051 0.00762635 0)
(1.00824 0.0155789 0)
(1.01677 0.0153961 0)
(1.02155 0.0137312 0)
(1.02355 0.0132619 0)
(1.02501 0.0129852 0)
(1.02652 0.0123851 0)
(1.02782 0.0117447 0)
(1.02882 0.0112447 0)
(1.02962 0.0108406 0)
(1.03032 0.0104753 0)
(1.03093 0.0101395 0)
(1.03148 0.00983647 0)
(1.03197 0.00956385 0)
(1.03242 0.0093162 0)
(1.03282 0.00908934 0)
(1.03319 0.00888062 0)