/*--------------------------------*- C++ -*----------------------------------*\
  =========                 |
  \\      /  F ield         | OpenFOAM: The Open Source CFD Toolbox
   \\    /   O peration     | Website:  https://openfoam.org
    \\  /    A nd           | Version:  7
     \\/     M anipulation  |
\*---------------------------------------------------------------------------*/
FoamFile
{
    version     2.0;
    format      ascii;
    class       volVectorField;
    location    "0.33";
    object      vorticity;
}
// * * * * * * * * * * * * * * * * * * * * * * * * * * * * * * * * * * * * * //

dimensions      [0 0 -1 0 0 0 0];

internalField   nonuniform List<vector> 
70000
(
(0 -0 -45716)
(0 -0 -28616.6)
(0 -0 -20910.8)
(0 -0 -16975.8)
(0 -0 -14952.8)
(0 -0 -13644.2)
(0 -0 -12633.2)
(0 -0 -11819.2)
(0 -0 -11154.1)
(0 -0 -10598.9)
(0 -0 -10125.7)
(0 -0 -9715.85)
(0 -0 -9356.5)
(0 -0 -9038.2)
(0 -0 -8753.86)
(0 -0 -8497.97)
(0 -0 -8266.23)
(0 -0 -8055.18)
(0 -0 -7862.01)
(0 -0 -7684.43)
(0 -0 -7520.55)
(0 -0 -7368.76)
(0 -0 -7227.71)
(0 -0 -7096.25)
(0 -0 -6973.4)
(0 -0 -6858.3)
(0 -0 -6750.21)
(0 -0 -6648.48)
(0 -0 -6552.54)
(0 -0 -6461.88)
(0 -0 -6376.07)
(0 -0 -6294.7)
(0 -0 -6217.44)
(0 -0 -6143.95)
(0 -0 -6073.99)
(0 -0 -6007.31)
(0 -0 -5943.66)
(0 -0 -5883.05)
(0 -0 -5824.89)
(0 -0 -5770.1)
(0 -0 -5716.72)
(0 -0 -5668.22)
(0 -0 -5619.1)
(0 -0 -5578.07)
(0 -0 -5534.1)
(0 -0 -5500.09)
(0 -0 -5470.09)
(0 -0 -5425.63)
(0 -0 -5474.77)
(0 -0 -5079.94)
(0 -0 -13549.7)
(0 -0 -19947.2)
(0 -0 -18535.4)
(0 -0 -16247.8)
(0 -0 -14500.8)
(0 -0 -13275.8)
(0 -0 -12346.8)
(0 -0 -11596)
(0 -0 -10973)
(0 -0 -10447.3)
(0 -0 -9996.31)
(0 -0 -9604.02)
(0 -0 -9258.79)
(0 -0 -8952.07)
(0 -0 -8677.37)
(0 -0 -8429.64)
(0 -0 -8204.89)
(0 -0 -7999.92)
(0 -0 -7812.1)
(0 -0 -7639.28)
(0 -0 -7479.66)
(0 -0 -7331.75)
(0 -0 -7194.26)
(0 -0 -7066.1)
(0 -0 -6946.33)
(0 -0 -6834.14)
(0 -0 -6728.81)
(0 -0 -6629.72)
(0 -0 -6536.33)
(0 -0 -6448.15)
(0 -0 -6364.77)
(0 -0 -6285.77)
(0 -0 -6210.85)
(0 -0 -6139.66)
(0 -0 -6071.95)
(0 -0 -6007.47)
(0 -0 -5945.94)
(0 -0 -5887.31)
(0 -0 -5831.04)
(0 -0 -5777.71)
(0 -0 -5725.78)
(0 -0 -5677.67)
(0 -0 -5629.23)
(0 -0 -5586.53)
(0 -0 -5541.79)
(0 -0 -5502.99)
(0 -0 -5468.67)
(0 -0 -5419.55)
(0 -0 -5437.07)
(0 -0 -5352.8)
(0 -0 -3818.82)
(0 -0 -10829.1)
(0 -0 -13363.7)
(0 -0 -13519.4)
(0 -0 -12865.5)
(0 -0 -12138.7)
(0 -0 -11496.5)
(0 -0 -10935.7)
(0 -0 -10443.6)
(0 -0 -10010.9)
(0 -0 -9628.87)
(0 -0 -9289.36)
(0 -0 -8985.6)
(0 -0 -8712.14)
(0 -0 -8464.56)
(0 -0 -8239.29)
(0 -0 -8033.35)
(0 -0 -7844.32)
(0 -0 -7670.16)
(0 -0 -7509.15)
(0 -0 -7359.83)
(0 -0 -7220.96)
(0 -0 -7091.48)
(0 -0 -6970.46)
(0 -0 -6857.1)
(0 -0 -6750.7)
(0 -0 -6650.64)
(0 -0 -6556.39)
(0 -0 -6467.45)
(0 -0 -6383.41)
(0 -0 -6303.88)
(0 -0 -6228.51)
(0 -0 -6157.02)
(0 -0 -6089.11)
(0 -0 -6024.53)
(0 -0 -5963.05)
(0 -0 -5904.44)
(0 -0 -5848.58)
(0 -0 -5795.07)
(0 -0 -5744.2)
(0 -0 -5694.96)
(0 -0 -5648.64)
(0 -0 -5602.89)
(0 -0 -5560.64)
(0 -0 -5518.38)
(0 -0 -5478.37)
(0 -0 -5442.95)
(0 -0 -5398.89)
(0 -0 -5378.53)
(0 -0 -5401.41)
(0 -0 -533.065)
(0 -0 -4662.91)
(0 -0 -7719.11)
(0 -0 -9329.36)
(0 -0 -9893.01)
(0 -0 -9958.06)
(0 -0 -9826.02)
(0 -0 -9613.79)
(0 -0 -9370.22)
(0 -0 -9120.01)
(0 -0 -8875.6)
(0 -0 -8642.53)
(0 -0 -8422.92)
(0 -0 -8217.18)
(0 -0 -8024.96)
(0 -0 -7845.53)
(0 -0 -7678.03)
(0 -0 -7521.54)
(0 -0 -7375.17)
(0 -0 -7238.11)
(0 -0 -7109.58)
(0 -0 -6988.87)
(0 -0 -6875.36)
(0 -0 -6768.47)
(0 -0 -6667.66)
(0 -0 -6572.48)
(0 -0 -6482.49)
(0 -0 -6397.32)
(0 -0 -6316.61)
(0 -0 -6240.05)
(0 -0 -6167.35)
(0 -0 -6098.26)
(0 -0 -6032.54)
(0 -0 -5969.97)
(0 -0 -5910.36)
(0 -0 -5853.53)
(0 -0 -5799.29)
(0 -0 -5747.51)
(0 -0 -5697.98)
(0 -0 -5650.7)
(0 -0 -5605.27)
(0 -0 -5561.94)
(0 -0 -5520.13)
(0 -0 -5480.06)
(0 -0 -5441.72)
(0 -0 -5403.91)
(0 -0 -5368.65)
(0 -0 -5335.4)
(0 -0 -5291.6)
(0 -0 -5326.86)
(0 -0 322.468)
(0 -0 -1444.67)
(0 -0 -3533.15)
(0 -0 -5260.18)
(0 -0 -6400.45)
(0 -0 -7075.18)
(0 -0 -7452.43)
(0 -0 -7642.76)
(0 -0 -7714.5)
(0 -0 -7711.96)
(0 -0 -7663.72)
(0 -0 -7587.89)
(0 -0 -7495.88)
(0 -0 -7394.97)
(0 -0 -7289.83)
(0 -0 -7183.49)
(0 -0 -7077.9)
(0 -0 -6974.3)
(0 -0 -6873.46)
(0 -0 -6775.86)
(0 -0 -6681.75)
(0 -0 -6591.25)
(0 -0 -6504.37)
(0 -0 -6421.08)
(0 -0 -6341.3)
(0 -0 -6264.91)
(0 -0 -6191.8)
(0 -0 -6121.82)
(0 -0 -6054.84)
(0 -0 -5990.74)
(0 -0 -5929.36)
(0 -0 -5870.6)
(0 -0 -5814.32)
(0 -0 -5760.41)
(0 -0 -5708.76)
(0 -0 -5659.25)
(0 -0 -5611.8)
(0 -0 -5566.3)
(0 -0 -5522.68)
(0 -0 -5480.77)
(0 -0 -5440.68)
(0 -0 -5401.92)
(0 -0 -5365.14)
(0 -0 -5329)
(0 -0 -5295.19)
(0 -0 -5261.95)
(0 -0 -5228.16)
(0 -0 -5204.47)
(0 -0 -5155.36)
(0 -0 -5182.32)
(0 -0 364.732)
(0 -0 -158.572)
(0 -0 -1181.83)
(0 -0 -2362.76)
(0 -0 -3418.61)
(0 -0 -4257.38)
(0 -0 -4892.42)
(0 -0 -5357.7)
(0 -0 -5688.39)
(0 -0 -5916.58)
(0 -0 -6068.64)
(0 -0 -6164.72)
(0 -0 -6219.75)
(0 -0 -6244.72)
(0 -0 -6247.68)
(0 -0 -6234.55)
(0 -0 -6209.71)
(0 -0 -6176.4)
(0 -0 -6137.07)
(0 -0 -6093.52)
(0 -0 -6047.13)
(0 -0 -5998.94)
(0 -0 -5949.74)
(0 -0 -5900.12)
(0 -0 -5850.53)
(0 -0 -5801.31)
(0 -0 -5752.72)
(0 -0 -5704.95)
(0 -0 -5658.14)
(0 -0 -5612.38)
(0 -0 -5567.75)
(0 -0 -5524.29)
(0 -0 -5482.03)
(0 -0 -5440.99)
(0 -0 -5401.17)
(0 -0 -5362.56)
(0 -0 -5325.17)
(0 -0 -5288.94)
(0 -0 -5253.96)
(0 -0 -5219.98)
(0 -0 -5187.41)
(0 -0 -5155.46)
(0 -0 -5125.31)
(0 -0 -5095.19)
(0 -0 -5067.02)
(0 -0 -5039.76)
(0 -0 -5010.3)
(0 -0 -4992.23)
(0 -0 -4949.72)
(0 -0 -4966.64)
(0 -0 254.037)
(0 -0 185.327)
(0 -0 -173.381)
(0 -0 -765.056)
(0 -0 -1448.4)
(0 -0 -2116.4)
(0 -0 -2721.63)
(0 -0 -3244.61)
(0 -0 -3681.23)
(0 -0 -4037.33)
(0 -0 -4323.23)
(0 -0 -4550.11)
(0 -0 -4728.32)
(0 -0 -4866.84)
(0 -0 -4973.22)
(0 -0 -5053.62)
(0 -0 -5113.06)
(0 -0 -5155.61)
(0 -0 -5184.51)
(0 -0 -5202.41)
(0 -0 -5211.41)
(0 -0 -5213.24)
(0 -0 -5209.3)
(0 -0 -5200.7)
(0 -0 -5188.39)
(0 -0 -5173.11)
(0 -0 -5155.48)
(0 -0 -5136)
(0 -0 -5115.11)
(0 -0 -5093.13)
(0 -0 -5070.36)
(0 -0 -5047.02)
(0 -0 -5023.31)
(0 -0 -4999.4)
(0 -0 -4975.42)
(0 -0 -4951.47)
(0 -0 -4927.66)
(0 -0 -4904.03)
(0 -0 -4880.77)
(0 -0 -4857.66)
(0 -0 -4835.24)
(0 -0 -4812.71)
(0 -0 -4791.38)
(0 -0 -4769.53)
(0 -0 -4749.07)
(0 -0 -4728.86)
(0 -0 -4707.16)
(0 -0 -4692.79)
(0 -0 -4662.05)
(0 -0 -4670.9)
(0 -0 178.754)
(0 -0 204.532)
(0 -0 130.666)
(0 -0 -85.3388)
(0 -0 -418.233)
(0 -0 -815.459)
(0 -0 -1237.07)
(0 -0 -1654.11)
(0 -0 -2046.71)
(0 -0 -2403.88)
(0 -0 -2721.4)
(0 -0 -2999.22)
(0 -0 -3239.55)
(0 -0 -3445.74)
(0 -0 -3621.52)
(0 -0 -3770.65)
(0 -0 -3896.62)
(0 -0 -4002.61)
(0 -0 -4091.42)
(0 -0 -4165.49)
(0 -0 -4226.93)
(0 -0 -4277.57)
(0 -0 -4318.96)
(0 -0 -4352.44)
(0 -0 -4379.13)
(0 -0 -4400.03)
(0 -0 -4415.95)
(0 -0 -4427.61)
(0 -0 -4435.63)
(0 -0 -4440.51)
(0 -0 -4442.71)
(0 -0 -4442.62)
(0 -0 -4440.56)
(0 -0 -4436.83)
(0 -0 -4431.66)
(0 -0 -4425.28)
(0 -0 -4417.89)
(0 -0 -4409.61)
(0 -0 -4400.68)
(0 -0 -4391.01)
(0 -0 -4381.15)
(0 -0 -4370.42)
(0 -0 -4360.14)
(0 -0 -4348.58)
(0 -0 -4338.12)
(0 -0 -4326.33)
(0 -0 -4314.77)
(0 -0 -4305.43)
(0 -0 -4287.04)
(0 -0 -4292.96)
(0 -0 148.026)
(0 -0 164.626)
(0 -0 170.014)
(0 -0 120.964)
(0 -0 0.919669)
(0 -0 -180.99)
(0 -0 -409.332)
(0 -0 -667.7)
(0 -0 -940.219)
(0 -0 -1213.95)
(0 -0 -1479.65)
(0 -0 -1731.35)
(0 -0 -1965.52)
(0 -0 -2180.53)
(0 -0 -2375.98)
(0 -0 -2552.33)
(0 -0 -2710.56)
(0 -0 -2851.92)
(0 -0 -2977.78)
(0 -0 -3089.54)
(0 -0 -3188.55)
(0 -0 -3276.12)
(0 -0 -3353.43)
(0 -0 -3421.57)
(0 -0 -3481.55)
(0 -0 -3534.24)
(0 -0 -3580.46)
(0 -0 -3620.91)
(0 -0 -3656.23)
(0 -0 -3686.98)
(0 -0 -3713.67)
(0 -0 -3736.73)
(0 -0 -3756.57)
(0 -0 -3773.52)
(0 -0 -3787.91)
(0 -0 -3800)
(0 -0 -3810.05)
(0 -0 -3818.27)
(0 -0 -3824.91)
(0 -0 -3829.97)
(0 -0 -3834.01)
(0 -0 -3836.43)
(0 -0 -3838.61)
(0 -0 -3838.69)
(0 -0 -3839.61)
(0 -0 -3837.73)
(0 -0 -3837.11)
(0 -0 -3835.37)
(0 -0 -3828.44)
(0 -0 -3836.45)
(0 -0 136.836)
(0 -0 137.085)
(0 -0 148.759)
(0 -0 149.7)
(0 -0 122.177)
(0 -0 60.0294)
(0 -0 -36.5407)
(0 -0 -163.845)
(0 -0 -315.494)
(0 -0 -484.15)
(0 -0 -662.878)
(0 -0 -845.759)
(0 -0 -1028.05)
(0 -0 -1206.18)
(0 -0 -1377.6)
(0 -0 -1540.6)
(0 -0 -1694.18)
(0 -0 -1837.83)
(0 -0 -1971.43)
(0 -0 -2095.12)
(0 -0 -2209.21)
(0 -0 -2314.16)
(0 -0 -2410.46)
(0 -0 -2498.68)
(0 -0 -2579.36)
(0 -0 -2653.07)
(0 -0 -2720.35)
(0 -0 -2781.7)
(0 -0 -2837.61)
(0 -0 -2888.52)
(0 -0 -2934.86)
(0 -0 -2977.02)
(0 -0 -3015.33)
(0 -0 -3050.13)
(0 -0 -3081.72)
(0 -0 -3110.37)
(0 -0 -3136.32)
(0 -0 -3159.8)
(0 -0 -3181.07)
(0 -0 -3200.16)
(0 -0 -3217.62)
(0 -0 -3232.87)
(0 -0 -3247.35)
(0 -0 -3259.1)
(0 -0 -3271.33)
(0 -0 -3279.97)
(0 -0 -3289.8)
(0 -0 -3297.18)
(0 -0 -3300.75)
(0 -0 -3313.62)
(0 -0 129.959)
(0 -0 124.013)
(0 -0 129.201)
(0 -0 136.407)
(0 -0 136.489)
(0 -0 123.197)
(0 -0 92.8837)
(0 -0 43.7069)
(0 -0 -24.1508)
(0 -0 -108.837)
(0 -0 -207.562)
(0 -0 -317.174)
(0 -0 -434.522)
(0 -0 -556.698)
(0 -0 -681.163)
(0 -0 -805.806)
(0 -0 -928.93)
(0 -0 -1049.22)
(0 -0 -1165.71)
(0 -0 -1277.7)
(0 -0 -1384.72)
(0 -0 -1486.5)
(0 -0 -1582.9)
(0 -0 -1673.91)
(0 -0 -1759.6)
(0 -0 -1840.1)
(0 -0 -1915.59)
(0 -0 -1986.27)
(0 -0 -2052.37)
(0 -0 -2114.12)
(0 -0 -2171.75)
(0 -0 -2225.52)
(0 -0 -2275.62)
(0 -0 -2322.31)
(0 -0 -2365.77)
(0 -0 -2406.24)
(0 -0 -2443.88)
(0 -0 -2478.88)
(0 -0 -2511.46)
(0 -0 -2541.64)
(0 -0 -2569.91)
(0 -0 -2595.73)
(0 -0 -2620.44)
(0 -0 -2642.22)
(0 -0 -2664.01)
(0 -0 -2682.16)
(0 -0 -2700.85)
(0 -0 -2716.92)
(0 -0 -2729.65)
(0 -0 -2747.91)
(0 -0 122.971)
(0 -0 116.663)
(0 -0 118.033)
(0 -0 122.511)
(0 -0 126.455)
(0 -0 126.917)
(0 -0 121.422)
(0 -0 107.667)
(0 -0 84.0165)
(0 -0 49.7698)
(0 -0 5.03137)
(0 -0 -49.4778)
(0 -0 -112.623)
(0 -0 -183.029)
(0 -0 -259.241)
(0 -0 -339.819)
(0 -0 -423.422)
(0 -0 -508.841)
(0 -0 -595.023)
(0 -0 -681.073)
(0 -0 -766.246)
(0 -0 -849.941)
(0 -0 -931.682)
(0 -0 -1011.1)
(0 -0 -1087.93)
(0 -0 -1161.99)
(0 -0 -1233.14)
(0 -0 -1301.33)
(0 -0 -1366.53)
(0 -0 -1428.75)
(0 -0 -1488.03)
(0 -0 -1544.44)
(0 -0 -1598.03)
(0 -0 -1648.91)
(0 -0 -1697.15)
(0 -0 -1742.87)
(0 -0 -1786.17)
(0 -0 -1827.13)
(0 -0 -1865.91)
(0 -0 -1902.47)
(0 -0 -1937.24)
(0 -0 -1969.68)
(0 -0 -2000.95)
(0 -0 -2029.49)
(0 -0 -2057.68)
(0 -0 -2082.69)
(0 -0 -2107.58)
(0 -0 -2130.16)
(0 -0 -2149.8)
(0 -0 -2172.34)
(0 -0 115.653)
(0 -0 110.434)
(0 -0 110.753)
(0 -0 113.192)
(0 -0 116.004)
(0 -0 118.261)
(0 -0 119.129)
(0 -0 117.405)
(0 -0 111.807)
(0 -0 101.281)
(0 -0 85.1103)
(0 -0 62.9258)
(0 -0 34.6781)
(0 -0 0.591544)
(0 -0 -38.9025)
(0 -0 -83.2317)
(0 -0 -131.742)
(0 -0 -183.744)
(0 -0 -238.552)
(0 -0 -295.507)
(0 -0 -353.994)
(0 -0 -413.454)
(0 -0 -473.389)
(0 -0 -533.365)
(0 -0 -593.008)
(0 -0 -652.002)
(0 -0 -710.084)
(0 -0 -767.041)
(0 -0 -822.699)
(0 -0 -876.926)
(0 -0 -929.617)
(0 -0 -980.701)
(0 -0 -1030.12)
(0 -0 -1077.85)
(0 -0 -1123.87)
(0 -0 -1168.19)
(0 -0 -1210.81)
(0 -0 -1251.73)
(0 -0 -1291.05)
(0 -0 -1328.64)
(0 -0 -1364.85)
(0 -0 -1399.18)
(0 -0 -1432.52)
(0 -0 -1463.67)
(0 -0 -1494.3)
(0 -0 -1522.49)
(0 -0 -1550.16)
(0 -0 -1576.02)
(0 -0 -1599.47)
(0 -0 -1624.12)
(0 -0 108.41)
(0 -0 104.219)
(0 -0 104.43)
(0 -0 106.138)
(0 -0 108.004)
(0 -0 109.711)
(0 -0 111.242)
(0 -0 112.251)
(0 -0 112.153)
(0 -0 110.319)
(0 -0 106.162)
(0 -0 99.1797)
(0 -0 88.9997)
(0 -0 75.3853)
(0 -0 58.2437)
(0 -0 37.6028)
(0 -0 13.5952)
(0 -0 -13.5653)
(0 -0 -43.6068)
(0 -0 -76.2188)
(0 -0 -111.07)
(0 -0 -147.822)
(0 -0 -186.14)
(0 -0 -225.705)
(0 -0 -266.214)
(0 -0 -307.387)
(0 -0 -348.972)
(0 -0 -390.74)
(0 -0 -432.488)
(0 -0 -474.039)
(0 -0 -515.236)
(0 -0 -555.949)
(0 -0 -596.06)
(0 -0 -635.478)
(0 -0 -674.119)
(0 -0 -711.921)
(0 -0 -748.835)
(0 -0 -784.798)
(0 -0 -819.838)
(0 -0 -853.809)
(0 -0 -886.918)
(0 -0 -918.785)
(0 -0 -949.971)
(0 -0 -979.666)
(0 -0 -1008.9)
(0 -0 -1036.47)
(0 -0 -1063.45)
(0 -0 -1089.16)
(0 -0 -1113.1)
(0 -0 -1137.28)
(0 -0 101.434)
(0 -0 98.0297)
(0 -0 98.2556)
(0 -0 99.7292)
(0 -0 101.239)
(0 -0 102.507)
(0 -0 103.726)
(0 -0 104.905)
(0 -0 105.873)
(0 -0 106.381)
(0 -0 106.149)
(0 -0 104.878)
(0 -0 102.278)
(0 -0 98.0928)
(0 -0 92.113)
(0 -0 84.1883)
(0 -0 74.2271)
(0 -0 62.1943)
(0 -0 48.1068)
(0 -0 32.0253)
(0 -0 14.0471)
(0 -0 -5.70233)
(0 -0 -27.0769)
(0 -0 -49.9171)
(0 -0 -74.0561)
(0 -0 -99.3252)
(0 -0 -125.557)
(0 -0 -152.59)
(0 -0 -180.269)
(0 -0 -208.45)
(0 -0 -236.993)
(0 -0 -265.778)
(0 -0 -294.685)
(0 -0 -323.614)
(0 -0 -352.468)
(0 -0 -381.162)
(0 -0 -409.629)
(0 -0 -437.78)
(0 -0 -465.605)
(0 -0 -492.964)
(0 -0 -519.963)
(0 -0 -546.322)
(0 -0 -572.36)
(0 -0 -597.562)
(0 -0 -622.491)
(0 -0 -646.457)
(0 -0 -669.981)
(0 -0 -692.723)
(0 -0 -714.324)
(0 -0 -735.754)
(0 -0 94.7598)
(0 -0 91.9823)
(0 -0 92.1966)
(0 -0 93.5213)
(0 -0 94.8996)
(0 -0 95.9935)
(0 -0 96.9865)
(0 -0 97.9773)
(0 -0 98.9386)
(0 -0 99.8029)
(0 -0 100.481)
(0 -0 100.855)
(0 -0 100.786)
(0 -0 100.127)
(0 -0 98.7309)
(0 -0 96.4634)
(0 -0 93.2071)
(0 -0 88.867)
(0 -0 83.3728)
(0 -0 76.6796)
(0 -0 68.7674)
(0 -0 59.6389)
(0 -0 49.3178)
(0 -0 37.8446)
(0 -0 25.2747)
(0 -0 11.674)
(0 -0 -2.8824)
(0 -0 -18.3149)
(0 -0 -34.5391)
(0 -0 -51.4709)
(0 -0 -69.0237)
(0 -0 -87.1158)
(0 -0 -105.663)
(0 -0 -124.59)
(0 -0 -143.821)
(0 -0 -163.284)
(0 -0 -182.919)
(0 -0 -202.648)
(0 -0 -222.446)
(0 -0 -242.202)
(0 -0 -261.958)
(0 -0 -281.53)
(0 -0 -301.07)
(0 -0 -320.277)
(0 -0 -339.417)
(0 -0 -358.125)
(0 -0 -376.609)
(0 -0 -394.698)
(0 -0 -412.179)
(0 -0 -429.401)
(0 -0 88.386)
(0 -0 86.1288)
(0 -0 86.3247)
(0 -0 87.4998)
(0 -0 88.7796)
(0 -0 89.7938)
(0 -0 90.6799)
(0 -0 91.542)
(0 -0 92.3847)
(0 -0 93.1936)
(0 -0 93.9528)
(0 -0 94.6332)
(0 -0 95.1894)
(0 -0 95.5626)
(0 -0 95.6851)
(0 -0 95.4844)
(0 -0 94.8869)
(0 -0 93.8215)
(0 -0 92.2229)
(0 -0 90.034)
(0 -0 87.2073)
(0 -0 83.7066)
(0 -0 79.5065)
(0 -0 74.5932)
(0 -0 68.9634)
(0 -0 62.6231)
(0 -0 55.5874)
(0 -0 47.8779)
(0 -0 39.5231)
(0 -0 30.5557)
(0 -0 21.0134)
(0 -0 10.9351)
(0 -0 0.363817)
(0 -0 -10.658)
(0 -0 -22.0868)
(0 -0 -33.8772)
(0 -0 -45.9906)
(0 -0 -58.3746)
(0 -0 -71.0062)
(0 -0 -83.8143)
(0 -0 -96.8079)
(0 -0 -109.879)
(0 -0 -123.086)
(0 -0 -136.271)
(0 -0 -149.536)
(0 -0 -162.7)
(0 -0 -175.83)
(0 -0 -188.824)
(0 -0 -201.59)
(0 -0 -214.151)
(0 -0 82.3113)
(0 -0 80.4872)
(0 -0 80.6733)
(0 -0 81.7034)
(0 -0 82.8796)
(0 -0 83.8281)
(0 -0 84.6456)
(0 -0 85.4298)
(0 -0 86.1892)
(0 -0 86.9173)
(0 -0 87.6158)
(0 -0 88.2839)
(0 -0 88.9133)
(0 -0 89.4881)
(0 -0 89.9861)
(0 -0 90.3796)
(0 -0 90.6365)
(0 -0 90.7216)
(0 -0 90.5981)
(0 -0 90.2294)
(0 -0 89.5799)
(0 -0 88.617)
(0 -0 87.3117)
(0 -0 85.6393)
(0 -0 83.5801)
(0 -0 81.1193)
(0 -0 78.2472)
(0 -0 74.9587)
(0 -0 71.2534)
(0 -0 67.1348)
(0 -0 62.6105)
(0 -0 57.691)
(0 -0 52.3895)
(0 -0 46.7228)
(0 -0 40.7082)
(0 -0 34.3664)
(0 -0 27.7155)
(0 -0 20.7825)
(0 -0 13.5811)
(0 -0 6.14863)
(0 -0 -1.51303)
(0 -0 -9.34936)
(0 -0 -17.3768)
(0 -0 -25.5199)
(0 -0 -33.8097)
(0 -0 -42.1588)
(0 -0 -50.5886)
(0 -0 -59.0188)
(0 -0 -67.445)
(0 -0 -75.7478)
(0 -0 76.536)
(0 -0 75.0689)
(0 -0 75.2542)
(0 -0 76.1523)
(0 -0 77.2223)
(0 -0 78.1038)
(0 -0 78.8592)
(0 -0 79.5804)
(0 -0 80.2776)
(0 -0 80.9435)
(0 -0 81.5807)
(0 -0 82.1939)
(0 -0 82.7847)
(0 -0 83.3516)
(0 -0 83.89)
(0 -0 84.393)
(0 -0 84.8505)
(0 -0 85.2498)
(0 -0 85.5761)
(0 -0 85.8126)
(0 -0 85.9411)
(0 -0 85.9432)
(0 -0 85.8005)
(0 -0 85.4955)
(0 -0 85.0118)
(0 -0 84.3348)
(0 -0 83.4515)
(0 -0 82.3511)
(0 -0 81.0248)
(0 -0 79.4659)
(0 -0 77.67)
(0 -0 75.6347)
(0 -0 73.3598)
(0 -0 70.8465)
(0 -0 68.0981)
(0 -0 65.12)
(0 -0 61.9171)
(0 -0 58.499)
(0 -0 54.8709)
(0 -0 51.0477)
(0 -0 47.032)
(0 -0 42.8461)
(0 -0 38.4882)
(0 -0 33.9897)
(0 -0 29.3427)
(0 -0 24.592)
(0 -0 19.7197)
(0 -0 14.7994)
(0 -0 9.77972)
(0 -0 4.83025)
(0 -0 71.0601)
(0 -0 69.8843)
(0 -0 70.0747)
(0 -0 70.8551)
(0 -0 71.8208)
(0 -0 72.635)
(0 -0 73.33)
(0 -0 73.9912)
(0 -0 74.6321)
(0 -0 75.2447)
(0 -0 75.8298)
(0 -0 76.392)
(0 -0 76.9345)
(0 -0 77.4587)
(0 -0 77.9652)
(0 -0 78.4535)
(0 -0 78.922)
(0 -0 79.3679)
(0 -0 79.7867)
(0 -0 80.1727)
(0 -0 80.519)
(0 -0 80.8178)
(0 -0 81.0605)
(0 -0 81.2385)
(0 -0 81.3427)
(0 -0 81.3646)
(0 -0 81.2956)
(0 -0 81.1276)
(0 -0 80.8533)
(0 -0 80.4658)
(0 -0 79.959)
(0 -0 79.3279)
(0 -0 78.5684)
(0 -0 77.6771)
(0 -0 76.6517)
(0 -0 75.4911)
(0 -0 74.1946)
(0 -0 72.7629)
(0 -0 71.1968)
(0 -0 69.4989)
(0 -0 67.671)
(0 -0 65.7185)
(0 -0 63.6423)
(0 -0 61.4543)
(0 -0 59.149)
(0 -0 56.7547)
(0 -0 54.2448)
(0 -0 51.6904)
(0 -0 49.008)
(0 -0 46.3783)
(0 -0 65.882)
(0 -0 64.9419)
(0 -0 65.1402)
(0 -0 65.8166)
(0 -0 66.6818)
(0 -0 67.43)
(0 -0 68.0668)
(0 -0 68.6702)
(0 -0 69.2568)
(0 -0 69.819)
(0 -0 70.3561)
(0 -0 70.872)
(0 -0 71.3696)
(0 -0 71.8506)
(0 -0 72.3164)
(0 -0 72.768)
(0 -0 73.2061)
(0 -0 73.6308)
(0 -0 74.0415)
(0 -0 74.4369)
(0 -0 74.815)
(0 -0 75.1732)
(0 -0 75.5085)
(0 -0 75.8175)
(0 -0 76.0967)
(0 -0 76.3423)
(0 -0 76.5504)
(0 -0 76.7169)
(0 -0 76.8378)
(0 -0 76.9089)
(0 -0 76.9263)
(0 -0 76.8862)
(0 -0 76.7852)
(0 -0 76.6199)
(0 -0 76.3877)
(0 -0 76.086)
(0 -0 75.7128)
(0 -0 75.2662)
(0 -0 74.7454)
(0 -0 74.1488)
(0 -0 73.4765)
(0 -0 72.7284)
(0 -0 71.9039)
(0 -0 71.0081)
(0 -0 70.0328)
(0 -0 69.0008)
(0 -0 67.878)
(0 -0 66.7331)
(0 -0 65.4678)
(0 -0 64.2586)
(0 -0 60.999)
(0 -0 60.248)
(0 -0 60.455)
(0 -0 61.0401)
(0 -0 61.8095)
(0 -0 62.4935)
(0 -0 63.075)
(0 -0 63.6231)
(0 -0 64.1573)
(0 -0 64.6711)
(0 -0 65.1624)
(0 -0 65.6344)
(0 -0 66.0899)
(0 -0 66.5303)
(0 -0 66.9569)
(0 -0 67.3709)
(0 -0 67.7733)
(0 -0 68.1648)
(0 -0 68.5459)
(0 -0 68.9165)
(0 -0 69.2763)
(0 -0 69.6245)
(0 -0 69.9603)
(0 -0 70.2829)
(0 -0 70.5912)
(0 -0 70.8842)
(0 -0 71.1604)
(0 -0 71.4186)
(0 -0 71.657)
(0 -0 71.874)
(0 -0 72.0676)
(0 -0 72.2359)
(0 -0 72.3771)
(0 -0 72.4893)
(0 -0 72.5707)
(0 -0 72.6195)
(0 -0 72.6344)
(0 -0 72.6131)
(0 -0 72.555)
(0 -0 72.4579)
(0 -0 72.3214)
(0 -0 72.144)
(0 -0 71.9242)
(0 -0 71.6654)
(0 -0 71.3575)
(0 -0 71.0212)
(0 -0 70.6197)
(0 -0 70.2178)
(0 -0 69.7145)
(0 -0 69.2759)
(0 -0 56.4072)
(0 -0 55.8069)
(0 -0 56.0217)
(0 -0 56.5268)
(0 -0 57.2062)
(0 -0 57.828)
(0 -0 58.3571)
(0 -0 58.8529)
(0 -0 59.3371)
(0 -0 59.8044)
(0 -0 60.252)
(0 -0 60.6822)
(0 -0 61.0975)
(0 -0 61.4993)
(0 -0 61.8887)
(0 -0 62.2668)
(0 -0 62.6346)
(0 -0 62.9928)
(0 -0 63.342)
(0 -0 63.6823)
(0 -0 64.0137)
(0 -0 64.3361)
(0 -0 64.6493)
(0 -0 64.9532)
(0 -0 65.2478)
(0 -0 65.533)
(0 -0 65.8087)
(0 -0 66.0746)
(0 -0 66.3304)
(0 -0 66.5756)
(0 -0 66.8096)
(0 -0 67.0316)
(0 -0 67.241)
(0 -0 67.4369)
(0 -0 67.6187)
(0 -0 67.7852)
(0 -0 67.936)
(0 -0 68.0697)
(0 -0 68.1858)
(0 -0 68.2828)
(0 -0 68.3602)
(0 -0 68.417)
(0 -0 68.451)
(0 -0 68.4661)
(0 -0 68.4513)
(0 -0 68.4262)
(0 -0 68.3549)
(0 -0 68.2974)
(0 -0 68.1566)
(0 -0 68.087)
(0 -0 52.1013)
(0 -0 51.6204)
(0 -0 51.8408)
(0 -0 52.2763)
(0 -0 52.872)
(0 -0 53.4339)
(0 -0 53.9136)
(0 -0 54.3602)
(0 -0 54.797)
(0 -0 55.2202)
(0 -0 55.6262)
(0 -0 56.0166)
(0 -0 56.3937)
(0 -0 56.7588)
(0 -0 57.1129)
(0 -0 57.4569)
(0 -0 57.7917)
(0 -0 58.1181)
(0 -0 58.4365)
(0 -0 58.747)
(0 -0 59.0496)
(0 -0 59.3442)
(0 -0 59.6309)
(0 -0 59.9096)
(0 -0 60.1807)
(0 -0 60.4444)
(0 -0 60.701)
(0 -0 60.9506)
(0 -0 61.1935)
(0 -0 61.4295)
(0 -0 61.6586)
(0 -0 61.8807)
(0 -0 62.0957)
(0 -0 62.3033)
(0 -0 62.5034)
(0 -0 62.6955)
(0 -0 62.8795)
(0 -0 63.0547)
(0 -0 63.221)
(0 -0 63.3773)
(0 -0 63.5233)
(0 -0 63.6587)
(0 -0 63.781)
(0 -0 63.8944)
(0 -0 63.9886)
(0 -0 64.0817)
(0 -0 64.1406)
(0 -0 64.2199)
(0 -0 64.2298)
(0 -0 64.3123)
(0 -0 48.075)
(0 -0 47.6883)
(0 -0 47.9113)
(0 -0 48.2865)
(0 -0 48.8052)
(0 -0 49.3097)
(0 -0 49.7429)
(0 -0 50.1436)
(0 -0 50.5358)
(0 -0 50.9172)
(0 -0 51.2839)
(0 -0 51.6367)
(0 -0 51.9777)
(0 -0 52.3081)
(0 -0 52.6287)
(0 -0 52.9405)
(0 -0 53.2442)
(0 -0 53.5404)
(0 -0 53.8296)
(0 -0 54.1118)
(0 -0 54.3868)
(0 -0 54.6547)
(0 -0 54.9153)
(0 -0 55.1687)
(0 -0 55.4154)
(0 -0 55.6555)
(0 -0 55.8895)
(0 -0 56.1177)
(0 -0 56.3403)
(0 -0 56.5576)
(0 -0 56.7696)
(0 -0 56.9764)
(0 -0 57.178)
(0 -0 57.3745)
(0 -0 57.566)
(0 -0 57.7524)
(0 -0 57.9336)
(0 -0 58.1093)
(0 -0 58.2795)
(0 -0 58.4435)
(0 -0 58.601)
(0 -0 58.7521)
(0 -0 58.8946)
(0 -0 59.0325)
(0 -0 59.1565)
(0 -0 59.2829)
(0 -0 59.3826)
(0 -0 59.5039)
(0 -0 59.5662)
(0 -0 59.6982)
(0 -0 44.3208)
(0 -0 44.0082)
(0 -0 44.2304)
(0 -0 44.5534)
(0 -0 45.0021)
(0 -0 45.4521)
(0 -0 45.8416)
(0 -0 46.1997)
(0 -0 46.5501)
(0 -0 46.8923)
(0 -0 47.2221)
(0 -0 47.5396)
(0 -0 47.8467)
(0 -0 48.1444)
(0 -0 48.4335)
(0 -0 48.7149)
(0 -0 48.9892)
(0 -0 49.2571)
(0 -0 49.5188)
(0 -0 49.7742)
(0 -0 50.0233)
(0 -0 50.2658)
(0 -0 50.5017)
(0 -0 50.731)
(0 -0 50.9542)
(0 -0 51.1714)
(0 -0 51.3832)
(0 -0 51.5899)
(0 -0 51.7917)
(0 -0 51.9889)
(0 -0 52.1815)
(0 -0 52.3698)
(0 -0 52.5538)
(0 -0 52.7336)
(0 -0 52.9095)
(0 -0 53.0813)
(0 -0 53.2492)
(0 -0 53.4128)
(0 -0 53.5723)
(0 -0 53.7271)
(0 -0 53.877)
(0 -0 54.0221)
(0 -0 54.1605)
(0 -0 54.2957)
(0 -0 54.4199)
(0 -0 54.5472)
(0 -0 54.6525)
(0 -0 54.7781)
(0 -0 54.8529)
(0 -0 54.9917)
(0 -0 40.8298)
(0 -0 40.5759)
(0 -0 40.7934)
(0 -0 41.0716)
(0 -0 41.4573)
(0 -0 41.8558)
(0 -0 42.2045)
(0 -0 42.5232)
(0 -0 42.8348)
(0 -0 43.1403)
(0 -0 43.4356)
(0 -0 43.7202)
(0 -0 43.9955)
(0 -0 44.2627)
(0 -0 44.5223)
(0 -0 44.7753)
(0 -0 45.0221)
(0 -0 45.2634)
(0 -0 45.4994)
(0 -0 45.7298)
(0 -0 45.9544)
(0 -0 46.1732)
(0 -0 46.3858)
(0 -0 46.5925)
(0 -0 46.7935)
(0 -0 46.9892)
(0 -0 47.18)
(0 -0 47.3662)
(0 -0 47.5481)
(0 -0 47.7258)
(0 -0 47.8996)
(0 -0 48.0695)
(0 -0 48.2358)
(0 -0 48.3984)
(0 -0 48.5576)
(0 -0 48.7134)
(0 -0 48.8659)
(0 -0 49.0147)
(0 -0 49.16)
(0 -0 49.3012)
(0 -0 49.4382)
(0 -0 49.5711)
(0 -0 49.6982)
(0 -0 49.8224)
(0 -0 49.9375)
(0 -0 50.0551)
(0 -0 50.1543)
(0 -0 50.2712)
(0 -0 50.3444)
(0 -0 50.4747)
(0 -0 37.5926)
(0 -0 37.3852)
(0 -0 37.5944)
(0 -0 37.8338)
(0 -0 38.1634)
(0 -0 38.5138)
(0 -0 38.8245)
(0 -0 39.1071)
(0 -0 39.3829)
(0 -0 39.6543)
(0 -0 39.9175)
(0 -0 40.1715)
(0 -0 40.4174)
(0 -0 40.6561)
(0 -0 40.8884)
(0 -0 41.1149)
(0 -0 41.3362)
(0 -0 41.5528)
(0 -0 41.7647)
(0 -0 41.9718)
(0 -0 42.1737)
(0 -0 42.3702)
(0 -0 42.5612)
(0 -0 42.7467)
(0 -0 42.9271)
(0 -0 43.1026)
(0 -0 43.2737)
(0 -0 43.4407)
(0 -0 43.6039)
(0 -0 43.7634)
(0 -0 43.9194)
(0 -0 44.0721)
(0 -0 44.2214)
(0 -0 44.3677)
(0 -0 44.5109)
(0 -0 44.6511)
(0 -0 44.7884)
(0 -0 44.9226)
(0 -0 45.0535)
(0 -0 45.1808)
(0 -0 45.3042)
(0 -0 45.4237)
(0 -0 45.5381)
(0 -0 45.6496)
(0 -0 45.7534)
(0 -0 45.8586)
(0 -0 45.9486)
(0 -0 46.0534)
(0 -0 46.1208)
(0 -0 46.2381)
(0 -0 34.5983)
(0 -0 34.4284)
(0 -0 34.6255)
(0 -0 34.8316)
(0 -0 35.1118)
(0 -0 35.4175)
(0 -0 35.693)
(0 -0 35.9426)
(0 -0 36.1855)
(0 -0 36.4256)
(0 -0 36.6592)
(0 -0 36.885)
(0 -0 37.1037)
(0 -0 37.3161)
(0 -0 37.5231)
(0 -0 37.7251)
(0 -0 37.9228)
(0 -0 38.1165)
(0 -0 38.3062)
(0 -0 38.4918)
(0 -0 38.6726)
(0 -0 38.8486)
(0 -0 39.0195)
(0 -0 39.1853)
(0 -0 39.3464)
(0 -0 39.5032)
(0 -0 39.656)
(0 -0 39.8052)
(0 -0 39.951)
(0 -0 40.0936)
(0 -0 40.233)
(0 -0 40.3695)
(0 -0 40.5032)
(0 -0 40.6341)
(0 -0 40.7624)
(0 -0 40.888)
(0 -0 41.0111)
(0 -0 41.1313)
(0 -0 41.2487)
(0 -0 41.3626)
(0 -0 41.473)
(0 -0 41.5795)
(0 -0 41.6817)
(0 -0 41.7805)
(0 -0 41.8731)
(0 -0 41.9659)
(0 -0 42.0464)
(0 -0 42.1386)
(0 -0 42.1996)
(0 -0 42.3033)
(0 -0 31.8357)
(0 -0 31.6964)
(0 -0 31.8783)
(0 -0 32.0559)
(0 -0 32.2929)
(0 -0 32.5577)
(0 -0 32.8005)
(0 -0 33.0201)
(0 -0 33.2331)
(0 -0 33.4443)
(0 -0 33.6508)
(0 -0 33.8507)
(0 -0 34.0443)
(0 -0 34.2327)
(0 -0 34.4164)
(0 -0 34.596)
(0 -0 34.7719)
(0 -0 34.9446)
(0 -0 35.1139)
(0 -0 35.2796)
(0 -0 35.4411)
(0 -0 35.5981)
(0 -0 35.7504)
(0 -0 35.8981)
(0 -0 36.0415)
(0 -0 36.181)
(0 -0 36.3169)
(0 -0 36.4496)
(0 -0 36.5793)
(0 -0 36.7062)
(0 -0 36.8304)
(0 -0 36.952)
(0 -0 37.0711)
(0 -0 37.1878)
(0 -0 37.3023)
(0 -0 37.4144)
(0 -0 37.5243)
(0 -0 37.6316)
(0 -0 37.7363)
(0 -0 37.8378)
(0 -0 37.9361)
(0 -0 38.0305)
(0 -0 38.121)
(0 -0 38.208)
(0 -0 38.2899)
(0 -0 38.371)
(0 -0 38.4424)
(0 -0 38.5226)
(0 -0 38.5775)
(0 -0 38.6679)
(0 -0 29.2926)
(0 -0 29.1783)
(0 -0 29.3431)
(0 -0 29.4968)
(0 -0 29.6963)
(0 -0 29.9238)
(0 -0 30.1364)
(0 -0 30.3287)
(0 -0 30.5146)
(0 -0 30.6996)
(0 -0 30.8812)
(0 -0 31.0574)
(0 -0 31.2283)
(0 -0 31.3946)
(0 -0 31.557)
(0 -0 31.7161)
(0 -0 31.8722)
(0 -0 32.0256)
(0 -0 32.1763)
(0 -0 32.3238)
(0 -0 32.4676)
(0 -0 32.6072)
(0 -0 32.7425)
(0 -0 32.8736)
(0 -0 33.0007)
(0 -0 33.1243)
(0 -0 33.2447)
(0 -0 33.3623)
(0 -0 33.4772)
(0 -0 33.5897)
(0 -0 33.6999)
(0 -0 33.8077)
(0 -0 33.9135)
(0 -0 34.0172)
(0 -0 34.1189)
(0 -0 34.2186)
(0 -0 34.3164)
(0 -0 34.4118)
(0 -0 34.5049)
(0 -0 34.5948)
(0 -0 34.6819)
(0 -0 34.7651)
(0 -0 34.8449)
(0 -0 34.9209)
(0 -0 34.9928)
(0 -0 35.063)
(0 -0 35.1259)
(0 -0 35.1949)
(0 -0 35.2442)
(0 -0 35.3222)
(0 -0 26.9565)
(0 -0 26.8626)
(0 -0 27.0095)
(0 -0 27.1429)
(0 -0 27.3102)
(0 -0 27.5041)
(0 -0 27.6891)
(0 -0 27.8567)
(0 -0 28.0182)
(0 -0 28.1793)
(0 -0 28.3383)
(0 -0 28.493)
(0 -0 28.6432)
(0 -0 28.7895)
(0 -0 28.9326)
(0 -0 29.073)
(0 -0 29.2111)
(0 -0 29.3471)
(0 -0 29.4808)
(0 -0 29.6117)
(0 -0 29.7394)
(0 -0 29.8632)
(0 -0 29.9831)
(0 -0 30.099)
(0 -0 30.2112)
(0 -0 30.3203)
(0 -0 30.4265)
(0 -0 30.5303)
(0 -0 30.6317)
(0 -0 30.7311)
(0 -0 30.8284)
(0 -0 30.9238)
(0 -0 31.0173)
(0 -0 31.1091)
(0 -0 31.1992)
(0 -0 31.2876)
(0 -0 31.3742)
(0 -0 31.4588)
(0 -0 31.5412)
(0 -0 31.6206)
(0 -0 31.6973)
(0 -0 31.7702)
(0 -0 31.8401)
(0 -0 31.906)
(0 -0 31.9687)
(0 -0 32.0289)
(0 -0 32.084)
(0 -0 32.1427)
(0 -0 32.1868)
(0 -0 32.2532)
(0 -0 24.8147)
(0 -0 24.7373)
(0 -0 24.8663)
(0 -0 24.9823)
(0 -0 25.122)
(0 -0 25.286)
(0 -0 25.4458)
(0 -0 25.5912)
(0 -0 25.7309)
(0 -0 25.8705)
(0 -0 26.0091)
(0 -0 26.1444)
(0 -0 26.2759)
(0 -0 26.4042)
(0 -0 26.5298)
(0 -0 26.6533)
(0 -0 26.7751)
(0 -0 26.8953)
(0 -0 27.0137)
(0 -0 27.1298)
(0 -0 27.2428)
(0 -0 27.3524)
(0 -0 27.4581)
(0 -0 27.5603)
(0 -0 27.6591)
(0 -0 27.755)
(0 -0 27.8484)
(0 -0 27.9396)
(0 -0 28.0288)
(0 -0 28.1162)
(0 -0 28.2019)
(0 -0 28.2859)
(0 -0 28.3683)
(0 -0 28.4493)
(0 -0 28.5289)
(0 -0 28.607)
(0 -0 28.6836)
(0 -0 28.7582)
(0 -0 28.8309)
(0 -0 28.9007)
(0 -0 28.968)
(0 -0 29.0315)
(0 -0 29.0923)
(0 -0 29.1489)
(0 -0 29.2032)
(0 -0 29.2542)
(0 -0 29.3021)
(0 -0 29.3514)
(0 -0 29.3907)
(0 -0 29.4464)
(0 -0 22.8541)
(0 -0 22.79)
(0 -0 22.9019)
(0 -0 23.0028)
(0 -0 23.1191)
(0 -0 23.2565)
(0 -0 23.3935)
(0 -0 23.519)
(0 -0 23.6392)
(0 -0 23.7597)
(0 -0 23.8799)
(0 -0 23.9978)
(0 -0 24.1125)
(0 -0 24.2245)
(0 -0 24.3345)
(0 -0 24.4428)
(0 -0 24.55)
(0 -0 24.6561)
(0 -0 24.7608)
(0 -0 24.8635)
(0 -0 24.9634)
(0 -0 25.0601)
(0 -0 25.1532)
(0 -0 25.243)
(0 -0 25.3296)
(0 -0 25.4137)
(0 -0 25.4955)
(0 -0 25.5754)
(0 -0 25.6536)
(0 -0 25.7302)
(0 -0 25.8053)
(0 -0 25.8791)
(0 -0 25.9515)
(0 -0 26.0228)
(0 -0 26.0928)
(0 -0 26.1617)
(0 -0 26.2292)
(0 -0 26.2949)
(0 -0 26.3588)
(0 -0 26.4199)
(0 -0 26.4786)
(0 -0 26.5335)
(0 -0 26.5861)
(0 -0 26.6343)
(0 -0 26.6808)
(0 -0 26.7235)
(0 -0 26.7648)
(0 -0 26.8055)
(0 -0 26.8405)
(0 -0 26.8864)
(0 -0 21.0618)
(0 -0 21.0085)
(0 -0 21.1042)
(0 -0 21.1919)
(0 -0 21.2883)
(0 -0 21.4026)
(0 -0 21.5189)
(0 -0 21.6266)
(0 -0 21.7295)
(0 -0 21.8329)
(0 -0 21.9368)
(0 -0 22.0391)
(0 -0 22.1389)
(0 -0 22.2364)
(0 -0 22.3323)
(0 -0 22.4272)
(0 -0 22.5213)
(0 -0 22.6148)
(0 -0 22.7073)
(0 -0 22.798)
(0 -0 22.8862)
(0 -0 22.9714)
(0 -0 23.0533)
(0 -0 23.1319)
(0 -0 23.2077)
(0 -0 23.2811)
(0 -0 23.3525)
(0 -0 23.4222)
(0 -0 23.4905)
(0 -0 23.5575)
(0 -0 23.6232)
(0 -0 23.6878)
(0 -0 23.7513)
(0 -0 23.8138)
(0 -0 23.8753)
(0 -0 23.9359)
(0 -0 23.9952)
(0 -0 24.0529)
(0 -0 24.1089)
(0 -0 24.1622)
(0 -0 24.2132)
(0 -0 24.2604)
(0 -0 24.3054)
(0 -0 24.3459)
(0 -0 24.3854)
(0 -0 24.4206)
(0 -0 24.4559)
(0 -0 24.4888)
(0 -0 24.5199)
(0 -0 24.5569)
(0 -0 19.4249)
(0 -0 19.3802)
(0 -0 19.4613)
(0 -0 19.5372)
(0 -0 19.6169)
(0 -0 19.711)
(0 -0 19.8088)
(0 -0 19.9005)
(0 -0 19.9882)
(0 -0 20.0765)
(0 -0 20.1658)
(0 -0 20.2543)
(0 -0 20.3408)
(0 -0 20.4254)
(0 -0 20.5089)
(0 -0 20.5918)
(0 -0 20.6744)
(0 -0 20.7567)
(0 -0 20.8383)
(0 -0 20.9184)
(0 -0 20.9963)
(0 -0 21.0712)
(0 -0 21.1431)
(0 -0 21.2118)
(0 -0 21.2779)
(0 -0 21.3418)
(0 -0 21.4039)
(0 -0 21.4646)
(0 -0 21.5241)
(0 -0 21.5825)
(0 -0 21.6398)
(0 -0 21.6962)
(0 -0 21.7517)
(0 -0 21.8064)
(0 -0 21.8604)
(0 -0 21.9135)
(0 -0 21.9655)
(0 -0 22.0161)
(0 -0 22.065)
(0 -0 22.1113)
(0 -0 22.1553)
(0 -0 22.1956)
(0 -0 22.2338)
(0 -0 22.2675)
(0 -0 22.3006)
(0 -0 22.3289)
(0 -0 22.3588)
(0 -0 22.3847)
(0 -0 22.4123)
(0 -0 22.4411)
(0 -0 17.9309)
(0 -0 17.8931)
(0 -0 17.9612)
(0 -0 18.0265)
(0 -0 18.092)
(0 -0 18.1688)
(0 -0 18.2501)
(0 -0 18.3275)
(0 -0 18.4018)
(0 -0 18.4769)
(0 -0 18.5533)
(0 -0 18.6294)
(0 -0 18.7041)
(0 -0 18.7774)
(0 -0 18.8499)
(0 -0 18.9222)
(0 -0 18.9946)
(0 -0 19.067)
(0 -0 19.1391)
(0 -0 19.2099)
(0 -0 19.2786)
(0 -0 19.3445)
(0 -0 19.4074)
(0 -0 19.4674)
(0 -0 19.5249)
(0 -0 19.5804)
(0 -0 19.6343)
(0 -0 19.687)
(0 -0 19.7386)
(0 -0 19.7894)
(0 -0 19.8392)
(0 -0 19.8884)
(0 -0 19.9368)
(0 -0 19.9846)
(0 -0 20.0319)
(0 -0 20.0784)
(0 -0 20.124)
(0 -0 20.1683)
(0 -0 20.2109)
(0 -0 20.2509)
(0 -0 20.2888)
(0 -0 20.3228)
(0 -0 20.355)
(0 -0 20.3825)
(0 -0 20.4099)
(0 -0 20.432)
(0 -0 20.457)
(0 -0 20.4766)
(0 -0 20.5009)
(0 -0 20.5225)
(0 -0 16.5676)
(0 -0 16.5353)
(0 -0 16.592)
(0 -0 16.6479)
(0 -0 16.7014)
(0 -0 16.7632)
(0 -0 16.8299)
(0 -0 16.8946)
(0 -0 16.9572)
(0 -0 17.0206)
(0 -0 17.0856)
(0 -0 17.1509)
(0 -0 17.2153)
(0 -0 17.2786)
(0 -0 17.3414)
(0 -0 17.4044)
(0 -0 17.4678)
(0 -0 17.5316)
(0 -0 17.5953)
(0 -0 17.6579)
(0 -0 17.7186)
(0 -0 17.7766)
(0 -0 17.8316)
(0 -0 17.8839)
(0 -0 17.9338)
(0 -0 17.9818)
(0 -0 18.0285)
(0 -0 18.0741)
(0 -0 18.1188)
(0 -0 18.1628)
(0 -0 18.2061)
(0 -0 18.2489)
(0 -0 18.2911)
(0 -0 18.3328)
(0 -0 18.3742)
(0 -0 18.4149)
(0 -0 18.4549)
(0 -0 18.4935)
(0 -0 18.5306)
(0 -0 18.5651)
(0 -0 18.5974)
(0 -0 18.6259)
(0 -0 18.6526)
(0 -0 18.6746)
(0 -0 18.6968)
(0 -0 18.7135)
(0 -0 18.734)
(0 -0 18.7481)
(0 -0 18.7694)
(0 -0 18.7844)
(0 -0 15.3236)
(0 -0 15.2956)
(0 -0 15.3425)
(0 -0 15.3898)
(0 -0 15.4333)
(0 -0 15.4823)
(0 -0 15.5361)
(0 -0 15.5896)
(0 -0 15.6418)
(0 -0 15.695)
(0 -0 15.7501)
(0 -0 15.8059)
(0 -0 15.8611)
(0 -0 15.9157)
(0 -0 15.97)
(0 -0 16.0248)
(0 -0 16.0804)
(0 -0 16.1367)
(0 -0 16.193)
(0 -0 16.2485)