/*--------------------------------*- C++ -*----------------------------------*\
  =========                 |
  \\      /  F ield         | OpenFOAM: The Open Source CFD Toolbox
   \\    /   O peration     | Website:  https://openfoam.org
    \\  /    A nd           | Version:  7
     \\/     M anipulation  |
\*---------------------------------------------------------------------------*/
FoamFile
{
    version     2.0;
    format      ascii;
    class       volVectorField;
    location    "0.16";
    object      ddtCorrDdt0(U);
}
// * * * * * * * * * * * * * * * * * * * * * * * * * * * * * * * * * * * * * //

dimensions      [0 1 -2 0 0 0 0];

internalField   nonuniform List<vector> 
70000
(
(-0.000110503 1.32472e-05 0)
(-0.00144333 2.08673e-05 0)
(-0.00338231 1.86848e-05 0)
(-0.00452711 1.36493e-05 0)
(-0.00453611 1.07694e-05 0)
(-0.00361068 6.16104e-06 0)
(-0.00204963 2.57583e-06 0)
(-0.000209203 6.07838e-07 0)
(0.00162305 9.40646e-08 0)
(0.00326962 8.12742e-07 0)
(0.00462638 2.63584e-06 0)
(0.00565016 5.20789e-06 0)
(0.00634537 8.30827e-06 0)
(0.00674214 1.16972e-05 0)
(0.00689485 1.50572e-05 0)
(0.00684853 1.8374e-05 0)
(0.00665699 2.13973e-05 0)
(0.00633872 2.47079e-05 0)
(0.00591758 2.81263e-05 0)
(0.00539809 3.21423e-05 0)
(0.00477295 3.69896e-05 0)
(0.00404459 4.25114e-05 0)
(0.00319313 4.90831e-05 0)
(0.00219673 5.67821e-05 0)
(0.00103354 6.52801e-05 0)
(-0.000354025 7.55049e-05 0)
(-0.00201093 8.70013e-05 0)
(-0.00401025 0.000100427 0)
(-0.00645105 0.000116567 0)
(-0.00942918 0.000135265 0)
(-0.0130973 0.000157826 0)
(-0.0176216 0.000184682 0)
(-0.023206 0.000216733 0)
(-0.0300977 0.000254836 0)
(-0.038622 0.000301619 0)
(-0.0490578 0.000355064 0)
(-0.0619985 0.00042463 0)
(-0.0777032 0.000500519 0)
(-0.0972476 0.000603476 0)
(-0.120828 0.000714059 0)
(-0.150244 0.000862292 0)
(-0.185778 0.00103287 0)
(-0.229895 0.00123517 0)
(-0.28383 0.00151838 0)
(-0.350347 0.00184846 0)
(-0.430658 0.00213385 0)
(-0.538866 0.00279891 0)
(-0.633125 0.00227438 0)
(-0.879467 0.000739894 0)
(-0.662779 0.0445474 0)
(0.000118093 7.68451e-05 0)
(-0.00249281 0.000186636 0)
(-0.00747952 0.000176115 0)
(-0.010554 5.62064e-05 0)
(-0.00989674 -7.6258e-05 0)
(-0.00608376 -0.000176808 0)
(-0.000174491 -0.000234567 0)
(0.0067034 -0.000251543 0)
(0.013641 -0.000239435 0)
(0.0200608 -0.000209524 0)
(0.0256456 -0.000170107 0)
(0.0302794 -0.000127693 0)
(0.0339985 -8.74119e-05 0)
(0.0369289 -5.21498e-05 0)
(0.0392472 -2.36504e-05 0)
(0.0411191 -1.43376e-06 0)
(0.0426976 1.53655e-05 0)
(0.0440762 2.92054e-05 0)
(0.045337 4.14211e-05 0)
(0.0465353 5.30925e-05 0)
(0.0477093 6.62679e-05 0)
(0.0489048 8.0229e-05 0)
(0.050137 9.71786e-05 0)
(0.0514087 0.000117949 0)
(0.0527014 0.000143769 0)
(0.053943 0.000177993 0)
(0.0550483 0.000222858 0)
(0.0558836 0.000281161 0)
(0.0562628 0.00035907 0)
(0.055984 0.000458457 0)
(0.0547516 0.000587288 0)
(0.0522399 0.000750849 0)
(0.0480264 0.000957506 0)
(0.0416509 0.00121641 0)
(0.0324105 0.00154309 0)
(0.0197867 0.00194426 0)
(0.00247357 0.00245612 0)
(-0.0199383 0.00307626 0)
(-0.0499398 0.00387435 0)
(-0.0875902 0.00483762 0)
(-0.137315 0.006077 0)
(-0.199026 0.00760331 0)
(-0.279149 0.00949549 0)
(-0.379516 0.012034 0)
(-0.507928 0.0147725 0)
(-0.666166 0.0193788 0)
(-0.89219 0.0215817 0)
(-1.08101 0.0338544 0)
(-1.64803 0.0190764 0)
(-1.41284 0.114895 0)
(0.00040005 0.000144203 0)
(-0.00185294 0.000444246 0)
(-0.00806279 0.000476696 0)
(-0.0131455 0.000150477 0)
(-0.0130092 -0.000278819 0)
(-0.0073578 -0.000620789 0)
(0.00240845 -0.000825585 0)
(0.0144644 -0.000899727 0)
(0.0271916 -0.000878039 0)
(0.0394561 -0.00079703 0)
(0.0505859 -0.000685478 0)
(0.0602845 -0.0005655 0)
(0.068545 -0.000453821 0)
(0.0755423 -0.000359901 0)
(0.081549 -0.000288058 0)
(0.0868387 -0.000237108 0)
(0.0916615 -0.000203363 0)
(0.0961948 -0.00018201 0)
(0.100594 -0.000169295 0)
(0.104989 -0.000164085 0)
(0.109498 -0.000162537 0)
(0.114246 -0.000165886 0)
(0.119327 -0.000169487 0)
(0.12481 -0.000170798 0)
(0.130723 -0.000164933 0)
(0.137025 -0.000145211 0)
(0.143637 -0.000104021 0)
(0.150417 -3.53934e-05 0)
(0.157152 7.42447e-05 0)
(0.163605 0.000230615 0)
(0.169426 0.000450396 0)
(0.174235 0.000745844 0)
(0.177515 0.00113608 0)
(0.178745 0.0016425 0)
(0.177038 0.00229776 0)
(0.171846 0.00312665 0)
(0.161466 0.00419451 0)
(0.1456 0.00552611 0)
(0.120907 0.00724337 0)
(0.0877531 0.00936955 0)
(0.0400923 0.012119 0)
(-0.0212282 0.0155504 0)
(-0.105112 0.0198974 0)
(-0.212857 0.0256958 0)
(-0.355944 0.0320968 0)
(-0.533454 0.0432853 0)
(-0.803223 0.049031 0)
(-1.01269 0.0805479 0)
(-1.70571 0.0627131 0)
(-1.59476 0.185142 0)
(0.00044044 0.00017329 0)
(-0.000710673 0.000690265 0)
(-0.00634112 0.000866419 0)
(-0.0128619 0.00037969 0)
(-0.0149333 -0.000429551 0)
(-0.0102854 -0.00116968 0)
(0.000579278 -0.00167068 0)
(0.0157616 -0.00190805 0)
(0.0330891 -0.00193338 0)
(0.0507737 -0.00181685 0)
(0.0675975 -0.00162133 0)
(0.0828866 -0.00139691 0)
(0.0964174 -0.00118203 0)
(0.108279 -0.000999539 0)
(0.118744 -0.000860025 0)
(0.128138 -0.00076293 0)
(0.136775 -0.000701359 0)
(0.144903 -0.000668102 0)
(0.152747 -0.000656613 0)
(0.16051 -0.00066676 0)
(0.168394 -0.000693443 0)
(0.176619 -0.000738949 0)
(0.185372 -0.000796001 0)
(0.194818 -0.000859639 0)
(0.205064 -0.000919505 0)
(0.216131 -0.000964575 0)
(0.227983 -0.000979481 0)
(0.240501 -0.000954242 0)
(0.253484 -0.000866377 0)
(0.266691 -0.000705309 0)
(0.27976 -0.000445004 0)
(0.292306 -6.47182e-05 0)
(0.303772 0.000465922 0)
(0.313646 0.00118328 0)
(0.320954 0.00213686 0)
(0.325204 0.00337791 0)
(0.324484 0.00499521 0)
(0.31868 0.00705985 0)
(0.303992 0.00973335 0)
(0.28121 0.0131076 0)
(0.243423 0.0174909 0)
(0.192211 0.0230226 0)
(0.117238 0.0301319 0)
(0.0184346 0.0396109 0)
(-0.118871 0.0504241 0)
(-0.288637 0.0691795 0)
(-0.562325 0.0803359 0)
(-0.770369 0.13171 0)
(-1.44709 0.117608 0)
(-1.51818 0.257819 0)
(0.000281785 0.000168773 0)
(6.39163e-05 0.00086668 0)
(-0.00400063 0.00125473 0)
(-0.0107709 0.000735959 0)
(-0.0155308 -0.000401653 0)
(-0.0144344 -0.00161213 0)
(-0.00615105 -0.00255492 0)
(0.00843822 -0.00310945 0)
(0.0272872 -0.00330309 0)
(0.0481971 -0.00322657 0)
(0.0693691 -0.00298113 0)
(0.0895873 -0.0026556 0)
(0.108207 -0.00232155 0)
(0.125035 -0.00202508 0)
(0.140182 -0.00179003 0)
(0.153904 -0.00162069 0)
(0.166504 -0.00150879 0)
(0.178254 -0.00144565 0)
(0.18941 -0.00142227 0)
(0.200221 -0.00144062 0)
(0.210947 -0.00149573 0)
(0.221879 -0.00159208 0)
(0.233295 -0.0017207 0)
(0.245459 -0.00187409 0)
(0.258578 -0.00203549 0)
(0.272766 -0.00218826 0)
(0.288062 -0.00230737 0)
(0.304405 -0.00237719 0)
(0.321628 -0.00236513 0)
(0.339516 -0.00225421 0)
(0.357712 -0.0020089 0)
(0.375844 -0.00159855 0)
(0.393334 -0.000981994 0)
(0.409698 -0.000105603 0)
(0.423912 0.00109459 0)
(0.435552 0.00270191 0)
(0.442602 0.00482262 0)
(0.445094 0.00758606 0)
(0.439021 0.0111816 0)
(0.425455 0.0157912 0)
(0.397097 0.0217935 0)
(0.356081 0.0294614 0)
(0.291208 0.0393241 0)
(0.203852 0.0526866 0)
(0.0768006 0.0677177 0)
(-0.0802277 0.0948719 0)
(-0.33958 0.110374 0)
(-0.554771 0.18278 0)
(-1.1456 0.182211 0)
(-1.39384 0.327841 0)
(0.000105192 0.000155955 0)
(0.000267943 0.000968774 0)
(-0.00222989 0.00157909 0)
(-0.00820759 0.00116347 0)
(-0.0148149 -0.00015098 0)
(-0.0179847 -0.00177558 0)
(-0.0147973 -0.00322366 0)
(-0.004451 -0.00423631 0)
(0.0120198 -0.00475831 0)
(0.032664 -0.00485986 0)
(0.0554256 -0.00466308 0)
(0.0786128 -0.00429423 0)
(0.101073 -0.00386466 0)
(0.12217 -0.00345309 0)
(0.141679 -0.00310584 0)
(0.159629 -0.00283949 0)
(0.176192 -0.00264928 0)
(0.191569 -0.00252793 0)
(0.205988 -0.00246524 0)
(0.219683 -0.00246649 0)
(0.232914 -0.00252847 0)
(0.245991 -0.00265984 0)
(0.259237 -0.00285215 0)
(0.272988 -0.00309698 0)
(0.287547 -0.0033717 0)
(0.303138 -0.00365376 0)
(0.319904 -0.00390697 0)
(0.337879 -0.00410815 0)
(0.356971 -0.00421288 0)
(0.377017 -0.00419563 0)
(0.397687 -0.00401055 0)
(0.418635 -0.00361535 0)
(0.439276 -0.00295823 0)
(0.459148 -0.00196686 0)
(0.477203 -0.000564109 0)
(0.493054 0.00136797 0)
(0.504655 0.00395033 0)
(0.512099 0.00737506 0)
(0.511351 0.0118538 0)
(0.503588 0.0176696 0)
(0.481447 0.0252519 0)
(0.447353 0.0350498 0)
(0.389763 0.0476103 0)
(0.310913 0.0648951 0)
(0.193086 0.084144 0)
(0.0444458 0.119222 0)
(-0.192837 0.141616 0)
(-0.42548 0.224897 0)
(-0.92204 0.249308 0)
(-1.29111 0.400801 0)
(1.26906e-05 0.000148748 0)
(0.000134263 0.0010234 0)
(-0.00138838 0.00182435 0)
(-0.00620349 0.00160057 0)
(-0.0134048 0.000284143 0)
(-0.0198642 -0.00160262 0)
(-0.0220948 -0.00350512 0)
(-0.0178639 -0.00503544 0)
(-0.00678093 -0.00601938 0)
(0.0101084 -0.00645815 0)
(0.0310644 -0.00645795 0)
(0.0542833 -0.0061628 0)
(0.0782672 -0.00571769 0)
(0.101953 -0.00523628 0)
(0.124703 -0.00479389 0)
(0.146203 -0.00442736 0)
(0.166369 -0.00414253 0)
(0.185233 -0.00393855 0)
(0.202906 -0.00380673 0)
(0.219532 -0.00375692 0)
(0.235298 -0.00378914 0)
(0.250453 -0.00391827 0)
(0.265283 -0.00413965 0)
(0.280129 -0.00444735 0)
(0.295342 -0.00481602 0)
(0.311234 -0.00521891 0)
(0.328067 -0.00560917 0)
(0.345997 -0.00595464 0)
(0.365045 -0.00619745 0)
(0.385145 -0.00630052 0)
(0.406031 -0.00620597 0)
(0.427407 -0.00585734 0)
(0.448704 -0.00519133 0)
(0.469479 -0.00411531 0)
(0.488685 -0.00253939 0)
(0.505937 -0.000309967 0)
(0.519217 0.00270779 0)
(0.5286 0.00676974 0)
(0.530153 0.0121072 0)
(0.524993 0.0191101 0)
(0.505981 0.0282442 0)
(0.475445 0.0401602 0)
(0.422289 0.0553878 0)
(0.348252 0.0765301 0)
(0.238105 0.100179 0)
(0.093192 0.142356 0)
(-0.122124 0.173535 0)
(-0.370367 0.26303 0)
(-0.793032 0.315421 0)
(-1.21924 0.476866 0)
(2.93233e-06 0.000149179 0)
(-6.37537e-05 0.00106237 0)
(-0.00123137 0.00201406 0)
(-0.00512299 0.00201048 0)
(-0.0120756 0.000823038 0)
(-0.0202543 -0.00115101 0)
(-0.0265527 -0.00337292 0)
(-0.028112 -0.00537679 0)
(-0.0233902 -0.00687317 0)
(-0.012322 -0.00776589 0)
(0.00410453 -0.00810815 0)
(0.0244238 -0.00803134 0)
(0.0471433 -0.00769483 0)
(0.0709934 -0.00723815 0)
(0.0950257 -0.00676419 0)
(0.118593 -0.00633364 0)
(0.141317 -0.00596878 0)
(0.16299 -0.00568073 0)
(0.183542 -0.00546603 0)
(0.202968 -0.00534056 0)
(0.221315 -0.00530825 0)
(0.238694 -0.00539118 0)
(0.255264 -0.00559127 0)
(0.271271 -0.00590955 0)
(0.287023 -0.00632324 0)
(0.302854 -0.00680623 0)
(0.319105 -0.00730457 0)
(0.336051 -0.00777818 0)
(0.353851 -0.00815542 0)
(0.372575 -0.00838519 0)
(0.392069 -0.00839495 0)
(0.412126 -0.00811093 0)
(0.432237 -0.00745584 0)
(0.451987 -0.00631502 0)
(0.470365 -0.00458427 0)
(0.48697 -0.00207467 0)
(0.499862 0.00136393 0)
(0.509029 0.00604881 0)
(0.510759 0.0122325 0)
(0.505943 0.0204086 0)
(0.487984 0.0310799 0)
(0.458622 0.0450872 0)
(0.408139 0.0629805 0)
(0.336407 0.0878408 0)
(0.232823 0.116074 0)
(0.0901317 0.164746 0)
(-0.106535 0.204722 0)
(-0.359871 0.304884 0)
(-0.731795 0.380648 0)
(-1.17028 0.554122 0)
(2.89936e-05 0.000155187 0)
(-0.000186662 0.00110623 0)
(-0.00136528 0.00218181 0)
(-0.00479504 0.00239107 0)
(-0.0112665 0.0013982 0)
(-0.0199425 -0.000528723 0)
(-0.0284838 -0.00291834 0)
(-0.0341432 -0.00528447 0)
(-0.0348486 -0.00725483 0)
(-0.0297019 -0.0086371 0)
(-0.0188875 -0.00941245 0)
(-0.0032842 -0.00967419 0)
(0.0159359 -0.00957314 0)
(0.0375893 -0.00925812 0)
(0.0606434 -0.00884976 0)
(0.0842651 -0.00842903 0)
(0.107853 -0.00803567 0)
(0.130983 -0.00769589 0)
(0.153401 -0.00741462 0)
(0.174936 -0.00721477 0)
(0.195474 -0.00710392 0)
(0.214951 -0.00711022 0)
(0.23334 -0.0072429 0)
(0.2507 -0.00751284 0)
(0.267196 -0.00790569 0)
(0.283075 -0.00840278 0)
(0.29867 -0.00895021 0)
(0.314323 -0.00950463 0)
(0.330311 -0.0099836 0)
(0.346852 -0.0103217 0)
(0.363945 -0.0104298 0)
(0.381511 -0.0102138 0)
(0.399153 -0.00957883 0)
(0.416521 -0.00838555 0)
(0.432681 -0.00651248 0)
(0.447221 -0.00373586 0)
(0.458323 0.000113357 0)
(0.465852 0.00540827 0)
(0.466423 0.0124299 0)
(0.46055 0.0217602 0)
(0.442467 0.0339591 0)
(0.412952 0.0500093 0)
(0.364237 0.0705656 0)
(0.293905 0.0989723 0)
(0.195914 0.131909 0)
(0.056965 0.186336 0)
(-0.12486 0.236159 0)
(-0.372439 0.344327 0)
(-0.706489 0.442096 0)
(-1.13018 0.629209 0)
(5.48473e-05 0.000162892 0)
(-0.000227736 0.0011601 0)
(-0.00152781 0.00235023 0)
(-0.0048502 0.00275943 0)
(-0.0109857 0.00197897 0)
(-0.0195845 0.000172528 0)
(-0.0289796 -0.00227027 0)
(-0.0368486 -0.00487939 0)
(-0.0411301 -0.00723614 0)
(-0.0405651 -0.00907236 0)
(-0.0347901 -0.0102986 0)
(-0.0241399 -0.0109594 0)
(-0.0093551 -0.0111814 0)
(0.00865855 -0.0111071 0)
(0.0289961 -0.0108621 0)
(0.0508273 -0.0105391 0)
(0.0734723 -0.010191 0)
(0.0963898 -0.00985844 0)
(0.119199 -0.00955563 0)
(0.141609 -0.00931261 0)
(0.16338 -0.00913909 0)
(0.184294 -0.0090663 0)
(0.204137 -0.0091081 0)
(0.22275 -0.00928486 0)
(0.24008 -0.00959392 0)
(0.25619 -0.0100304 0)
(0.271298 -0.0105489 0)
(0.285716 -0.0111112 0)
(0.299775 -0.0116308 0)
(0.313806 -0.0120313 0)
(0.327961 -0.0122083 0)
(0.342319 -0.0120452 0)
(0.356639 -0.0114264 0)
(0.370674 -0.0101853 0)
(0.383623 -0.00817829 0)
(0.395079 -0.00514765 0)
(0.403409 -0.000899024 0)
(0.408333 0.00498773 0)
(0.406878 0.0128349 0)
(0.399111 0.0232888 0)
(0.380236 0.0369957 0)
(0.35001 0.0550237 0)
(0.302581 0.0782031 0)
(0.23387 0.109992 0)
(0.140776 0.147565 0)
(0.00808438 0.207337 0)
(-0.161026 0.266874 0)
(-0.394821 0.38166 0)
(-0.695662 0.499883 0)
(-1.08792 0.698538 0)
(6.93327e-05 0.000170184 0)
(-0.000228263 0.00122197 0)
(-0.00163173 0.00252978 0)
(-0.00501182 0.00313145 0)
(-0.0110206 0.00256258 0)
(-0.0194394 0.000903159 0)
(-0.0289657 -0.00153008 0)
(-0.0376904 -0.00429578 0)
(-0.0438038 -0.00695189 0)
(-0.04603 -0.00917515 0)
(-0.0437998 -0.0108182 0)
(-0.0371232 -0.0118794 0)
(-0.0263962 -0.0124567 0)
(-0.0122248 -0.0126781 0)
(0.00470844 -0.0126645 0)
(0.0237049 -0.0125115 0)
(0.0441364 -0.012279 0)
(0.0654552 -0.012018 0)
(0.0872448 -0.0117511 0)
(0.10917 -0.0115144 0)
(0.130933 -0.0113178 0)
(0.152233 -0.0111912 0)
(0.172725 -0.011148 0)
(0.192065 -0.0112137 0)
(0.209976 -0.0113962 0)
(0.22629 -0.0117074 0)
(0.241027 -0.0121178 0)
(0.254373 -0.0126028 0)
(0.266618 -0.0130816 0)
(0.278133 -0.0134745 0)
(0.289188 -0.0136659 0)
(0.300003 -0.013519 0)
(0.310513 -0.0128953 0)
(0.320606 -0.0115996 0)
(0.329658 -0.00946058 0)
(0.337302 -0.00618795 0)
(0.342136 -0.00155366 0)
(0.343755 0.00489953 0)
(0.339643 0.0135496 0)
(0.32945 0.0250833 0)
(0.309319 0.0402555 0)
(0.27822 0.060182 0)
(0.231758 0.0858901 0)
(0.165278 0.120888 0)
(0.0767899 0.162923 0)
(-0.0475526 0.227634 0)
(-0.204332 0.296147 0)
(-0.419241 0.417714 0)
(-0.688056 0.552092 0)
(-1.03778 0.764053 0)
(7.52829e-05 0.00017673 0)
(-0.000220639 0.00128917 0)
(-0.00168702 0.00272194 0)
(-0.00515892 0.00351727 0)
(-0.0111706 0.00315662 0)
(-0.0194791 0.00164821 0)
(-0.0289145 -0.000752589 0)
(-0.0378093 -0.00363066 0)
(-0.0445896 -0.00652715 0)
(-0.0481379 -0.00907709 0)
(-0.0478908 -0.0110866 0)
(-0.0437576 -0.0125164 0)
(-0.0359575 -0.0134388 0)
(-0.0248924 -0.0139666 0)
(-0.0110476 -0.0142123 0)
(0.00503752 -0.014269 0)
(0.0228455 -0.0141982 0)
(0.0418938 -0.0140576 0)
(0.0617987 -0.013876 0)
(0.0822458 -0.0136944 0)
(0.102949 -0.0135211 0)
(0.1236 -0.0133807 0)
(0.143806 -0.01328 0)
(0.163114 -0.0132428 0)
(0.181077 -0.0132827 0)
(0.197314 -0.0134262 0)
(0.211623 -0.0136632 0)
(0.224003 -0.0139897 0)
(0.234622 -0.01434 0)
(0.243812 -0.0146406 0)
(0.251888 -0.0147726 0)
(0.259167 -0.0145843 0)
(0.265745 -0.0139153 0)
(0.271646 -0.0125426 0)
(0.276446 -0.0102629 0)
(0.279851 -0.00675492 0)
(0.280719 -0.00174855 0)
(0.278564 0.00524175 0)
(0.271326 0.0146611 0)
(0.258351 0.0272199 0)
(0.236574 0.0437881 0)
(0.204547 0.0655185 0)
(0.158784 0.0936078 0)
(0.0949906 0.13163 0)
(0.0110948 0.177821 0)
(-0.103784 0.247072 0)
(-0.247723 0.323804 0)
(-0.441231 0.45114 0)
(-0.677681 0.599884 0)
(-0.978679 0.825048 0)
(7.78181e-05 0.000182825 0)
(-0.000216768 0.00136046 0)
(-0.00172239 0.00292553 0)
(-0.0052734 0.00392018 0)
(-0.0113331 0.00376808 0)
(-0.0196041 0.00240855 0)
(-0.0289377 4.30849e-05 0)
(-0.037765 -0.0029333 0)
(-0.0446593 -0.00604361 0)
(-0.0486435 -0.00888382 0)
(-0.0492504 -0.0112201 0)
(-0.0464124 -0.0129819 0)
(-0.0403124 -0.0142216 0)
(-0.0312626 -0.0150399 0)
(-0.0196391 -0.0155421 0)
(-0.00586219 -0.0158169 0)
(0.00965157 -0.0159254 0)
(0.0264991 -0.0159291 0)
(0.0443526 -0.0158616 0)
(0.0629508 -0.0157681 0)
(0.0820547 -0.0156548 0)
(0.101404 -0.0155384 0)
(0.120624 -0.0154142 0)
(0.139233 -0.0152969 0)
(0.156692 -0.0151986 0)
(0.172471 -0.0151553 0)
(0.18618 -0.0151749 0)
(0.197622 -0.0152771 0)
(0.206808 -0.0154185 0)
(0.213967 -0.0155406 0)
(0.219393 -0.0155302 0)
(0.223439 -0.0152283 0)
(0.226316 -0.014457 0)
(0.228159 -0.0129688 0)
(0.228739 -0.0105261 0)
(0.227846 -0.00677901 0)
(0.224603 -0.00140892 0)
(0.218498 0.00609169 0)
(0.207885 0.0162409 0)
(0.191946 0.0297657 0)
(0.168231 0.0476406 0)
(0.13521 0.0710666 0)
(0.089896 0.101358 0)
(0.0288796 0.142176 0)
(-0.0504541 0.1922 0)
(-0.155613 0.265439 0)
(-0.286671 0.349726 0)
(-0.457721 0.481464 0)
(-0.662403 0.642509 0)
(-0.914674 0.875673 0)
(7.97515e-05 0.000188722 0)
(-0.00021706 0.00143566 0)
(-0.00175427 0.00313969 0)
(-0.00536953 0.00434056 0)
(-0.0114813 0.00440026 0)
(-0.0197484 0.00318798 0)
(-0.0290126 0.000854536 0)
(-0.0377334 -0.00222106 0)
(-0.0445506 -0.0055399 0)
(-0.0485736 -0.0086571 0)
(-0.0494183 -0.0112998 0)
(-0.0470777 -0.013369 0)
(-0.0417596 -0.0149011 0)
(-0.0337704 -0.0159883 0)
(-0.0234442 -0.0167308 0)
(-0.0111483 -0.0172145 0)
(0.00276206 -0.0174992 0)
(0.0179342 -0.0176495 0)
(0.0340923 -0.0177039 0)
(0.0510216 -0.0177115 0)
(0.0685299 -0.0176777 0)
(0.0864369 -0.0176098 0)
(0.104387 -0.0174887 0)
(0.121943 -0.0173148 0)
(0.138542 -0.0170917 0)
(0.153582 -0.0168578 0)
(0.166536 -0.0166352 0)
(0.177059 -0.0164668 0)
(0.18501 -0.0163344 0)
(0.19049 -0.0162015 0)
(0.193728 -0.0159679 0)
(0.19506 -0.0154764 0)
(0.194758 -0.0145365 0)
(0.193028 -0.0128821 0)
(0.189802 -0.010241 0)
(0.18495 -0.00623846 0)
(0.177834 -0.000503764 0)
(0.167957 0.00748911 0)
(0.154025 0.0183307 0)
(0.135178 0.0327654 0)
(0.109421 0.0518522 0)
(0.0753649 0.0768571 0)
(0.0302959 0.109163 0)
(-0.0281569 0.152521 0)
(-0.103132 0.206025 0)
(-0.199143 0.282775 0)
(-0.317676 0.373384 0)
(-0.467181 0.509579 0)
(-0.642431 0.678513 0)
(-0.848549 0.916214 0)
(8.17941e-05 0.000194514 0)
(-0.000219387 0.00151512 0)
(-0.00178706 0.00336423 0)
(-0.00545944 0.0047783 0)
(-0.0116184 0.00505428 0)
(-0.0198892 0.00398898 0)
(-0.0291042 0.00168354 0)
(-0.0377301 -0.00149707 0)
(-0.044433 -0.00502914 0)
(-0.0483656 -0.00842414 0)
(-0.0491932 -0.0113686 0)
(-0.046956 -0.0137355 0)
(-0.0418974 -0.0155463 0)
(-0.0343428 -0.0168871 0)
(-0.0246288 -0.0178549 0)
(-0.0131093 -0.0185341 0)
(-0.000118786 -0.0189842 0)
(0.0140141 -0.0192727 0)
(0.0290393 -0.0194434 0)
(0.0447555 -0.0195509 0)
(0.0610422 -0.0195995 0)
(0.0776809 -0.0195897 0)
(0.0944768 -0.019486 0)
(0.110986 -0.0192706 0)
(0.126658 -0.018935 0)
(0.140886 -0.0185116 0)
(0.153025 -0.0180344 0)
(0.162718 -0.0175656 0)
(0.16966 -0.017112 0)
(0.173839 -0.0166627 0)
(0.175408 -0.0161365 0)
(0.174658 -0.0153845 0)
(0.171877 -0.0142098 0)
(0.167304 -0.0123335 0)
(0.160981 -0.00945112 0)
(0.15284 -0.00516621 0)
(0.142436 0.000944094 0)
(0.129312 0.00942278 0)
(0.112449 0.020928 0)
(0.0910275 0.0362259 0)
(0.0633833 0.0564373 0)
(0.0283639 0.0829087 0)
(-0.0165434 0.117045 0)
(-0.0727892 0.162705 0)
(-0.143761 0.219293 0)
(-0.231656 0.2991 0)
(-0.338725 0.395129 0)
(-0.468892 0.534533 0)
(-0.617734 0.709252 0)
(-0.783339 0.950296 0)
(8.38917e-05 0.000200201 0)
(-0.000222497 0.00159923 0)
(-0.00182057 0.00359946 0)
(-0.00554753 0.00523362 0)
(-0.0117504 0.0057307 0)
(-0.0200244 0.00481269 0)
(-0.0291962 0.0025316 0)
(-0.0377381 -0.000760715 0)
(-0.0443298 -0.00451395 0)
(-0.0481466 -0.0081937 0)
(-0.0488805 -0.011444 0)
(-0.0465977 -0.0141091 0)
(-0.0415657 -0.0161955 0)
(-0.0341276 -0.0177838 0)
(-0.0246323 -0.0189689 0)
(-0.0134374 -0.0198345 0)
(-0.000877748 -0.0204402 0)
(0.0127233 -0.0208573 0)
(0.0271166 -0.0211351 0)
(0.0421213 -0.0213345 0)
(0.0576009 -0.0214608 0)
(0.0734374 -0.021506 0)
(0.0893703 -0.0214224 0)
(0.105031 -0.0211716 0)
(0.119927 -0.0207273 0)
(0.133385 -0.0201176 0)
(0.144945 -0.0193765 0)
(0.153904 -0.0185866 0)
(0.160043 -0.0177791 0)
(0.163269 -0.016969 0)
(0.163667 -0.0160967 0)
(0.161468 -0.0150264 0)
(0.156947 -0.0135593 0)
(0.150348 -0.0114088 0)
(0.141777 -0.00824127 0)
(0.131203 -0.0036418 0)
(0.118321 0.00286214 0)
(0.102717 0.011831 0)
(0.0835769 0.023982 0)
(0.0601554 0.0401096 0)
(0.0310301 0.0613746 0)
(-0.00470322 0.0892103 0)
(-0.0493682 0.125028 0)
(-0.103711 0.172737 0)
(-0.171074 0.232109 0)
(-0.252067 0.314483 0)
(-0.349063 0.415004 0)
(-0.462692 0.556913 0)
(-0.589057 0.735601 0)
(-0.721241 0.976923 0)
(8.58987e-05 0.000205798 0)
(-0.000226048 0.00168818 0)
(-0.00185404 0.00384581 0)
(-0.0056342 0.00570698 0)
(-0.0118797 0.00643011 0)
(-0.020156 0.00565982 0)
(-0.0292854 0.0033995 0)
(-0.0377467 -1.12449e-05 0)
(-0.0442322 -0.00399434 0)
(-0.0479338 -0.00796773 0)
(-0.0485597 -0.0115315 0)
(-0.0461902 -0.0145003 0)
(-0.0411045 -0.0168655 0)
(-0.033655 -0.0187019 0)
(-0.024199 -0.020103 0)
(-0.0130995 -0.0211517 0)
(-0.000697315 -0.0219083 0)
(0.0126825 -0.0224477 0)
(0.0267869 -0.0228256 0)
(0.0414357 -0.0231093 0)
(0.0564954 -0.0233061 0)
(0.0718419 -0.0234023 0)
(0.0872521 -0.0233341 0)
(0.10237 -0.023045 0)
(0.116701 -0.0224905 0)
(0.129656 -0.0216899 0)
(0.140585 -0.0206817 0)
(0.149058 -0.019555 0)
(0.154675 -0.0183704 0)
(0.157294 -0.0171684 0)
(0.156964 -0.0159115 0)
(0.153872 -0.01448 0)
(0.148283 -0.0126754 0)
(0.140419 -0.0102078 0)
(0.130427 -0.00671691 0)
(0.118293 -0.00177161 0)
(0.103798 0.0051463 0)
(0.0865691 0.0146161 0)
(0.06593 0.0274048 0)
(0.0412194 0.0443405 0)
(0.011189 0.0666067 0)
(-0.0248517 0.0957241 0)
(-0.0690304 0.133094 0)
(-0.121617 0.182658 0)
(-0.185686 0.244505 0)
(-0.260852 0.329067 0)
(-0.349215 0.433302 0)
(-0.449184 0.576957 0)
(-0.557066 0.757903 0)
(-0.662784 0.997847 0)
(8.77608e-05 0.000211315 0)
(-0.000230043 0.00178207 0)
(-0.00188713 0.00410375 0)
(-0.00571895 0.0061989 0)
(-0.0120066 0.00715318 0)
(-0.0202848 0.00653101 0)
(-0.0293715 0.0042877 0)
(-0.037753 0.000751657 0)
(-0.0441338 -0.00347021 0)
(-0.047722 -0.00774664 0)
(-0.0482396 -0.0116326 0)
(-0.0457762 -0.0149125 0)
(-0.0406162 -0.0175623 0)
(-0.0331149 -0.0196514 0)
(-0.0236326 -0.0212711 0)
(-0.0125355 -0.0225039 0)
(-0.000167819 -0.0234108 0)
(0.0131429 -0.0240703 0)
(0.0271414 -0.0245451 0)
(0.0416442 -0.0249087 0)
(0.0565182 -0.0251712 0)
(0.0716319 -0.0253124 0)
(0.0867666 -0.0252543 0)
(0.101573 -0.0249209 0)
(0.115566 -0.0242511 0)
(0.128164 -0.0232523 0)
(0.138768 -0.0219642 0)
(0.146879 -0.0204923 0)
(0.152136 -0.0189163 0)
(0.154383 -0.0173019 0)
(0.153643 -0.0156353 0)
(0.150078 -0.0138135 0)
(0.143933 -0.0116408 0)
(0.135421 -0.00882474 0)
(0.124695 -0.00498193 0)
(0.111748 0.000334672 0)
(0.0964124 0.0076843 0)
(0.0783479 0.0176671 0)
(0.0569658 0.0310911 0)
(0.031678 0.0488212 0)
(0.00137738 0.0720527 0)
(-0.0344943 0.102384 0)
(-0.0778182 0.141211 0)
(-0.128611 0.192459 0)
(-0.189545 0.256529 0)
(-0.259673 0.342982 0)
(-0.340625 0.450187 0)
(-0.429366 0.595049 0)
(-0.522295 0.77697 0)
(-0.607627 1.01415 0)
(8.94548e-05 0.000216774 0)
(-0.000234517 0.00188102 0)
(-0.00191973 0.00437378 0)
(-0.00580137 0.00670994 0)
(-0.0121304 0.00790061 0)
(-0.0204106 0.00742696 0)
(-0.0294547 0.00519661 0)
(-0.0377564 0.00152811 0)
(-0.0440326 -0.00294171 0)
(-0.0475076 -0.00753087 0)
(-0.0479174 -0.011748 0)
(-0.0453595 -0.015347 0)
(-0.0401212 -0.0182884 0)
(-0.0325579 -0.0206359 0)
(-0.0230302 -0.0224789 0)
(-0.0119047 -0.0238989 0)
(0.00047314 -0.024958 0)
(0.0137752 -0.0257383 0)
(0.0277469 -0.0263098 0)
(0.0422038 -0.0267522 0)
(0.0570112 -0.0270782 0)
(0.072032 -0.0272607 0)
(0.087043 -0.0272079 0)
(0.101691 -0.026824 0)
(0.115496 -0.026031 0)
(0.127879 -0.0248254 0)
(0.138264 -0.023249 0)
(0.146152 -0.0214203 0)
(0.151196 -0.0194402 0)
(0.153242 -0.0173998 0)
(0.152311 -0.0153077 0)
(0.148553 -0.0130784 0)
(0.142208 -0.0105189 0)
(0.133474 -0.0073353 0)
(0.122509 -0.00312258 0)
(0.109308 0.00258261 0)
(0.0937279 0.010376 0)
(0.0754541 0.0208811 0)
(0.0539545 0.0349389 0)
(0.0287026 0.0534533 0)
(-0.00131109 0.0776237 0)
(-0.0365244 0.109115 0)
(-0.0786213 0.149325 0)
(-0.127468 0.202116 0)
(-0.185292 0.268206 0)
(-0.250859 0.356286 0)
(-0.325274 0.465869 0)
(-0.404639 0.611505 0)
(-0.485392 0.793354 0)
(-0.554967 1.02683 0)
(9.09845e-05 0.000222194 0)
(-0.000239488 0.00198513 0)
(-0.00195181 0.00465637 0)
(-0.00588118 0.00724061 0)
(-0.0122507 0.00867311 0)
(-0.0205328 0.00834841 0)
(-0.0295343 0.00612669 0)
(-0.0377565 0.00231822 0)
(-0.0439283 -0.00240907 0)
(-0.0472899 -0.00732094 0)
(-0.0475916 -0.0118785 0)
(-0.0449388 -0.0158049 0)
(-0.0396211 -0.0190453 0)
(-0.0319933 -0.0216574 0)
(-0.0224152 -0.0237289 0)
(-0.0112526 -0.0253403 0)
(0.00114864 -0.0265545 0)
(0.0144619 -0.0274577 0)
(0.0284347 -0.0281273 0)
(0.0428843 -0.0286493 0)
(0.0576759 -0.0290387 0)
(0.0726675 -0.029261 0)
(0.0876294 -0.0292098 0)
(0.102201 -0.0287696 0)
(0.115902 -0.0278453 0)
(0.128155 -0.0264235 0)
(0.138397 -0.024549 0)
(0.146142 -0.0223527 0)
(0.151059 -0.0199584 0)
(0.153005 -0.0174821 0)
(0.152012 -0.0149552 0)
(0.14823 -0.0123089 0)
(0.141897 -0.00935338 0)
(0.133209 -0.00579241 0)
(0.122322 -0.00120105 0)
(0.109234 0.00490178 0)
(0.0938144 0.0131443 0)
(0.07577 0.0241758 0)
(0.0546084 0.0388637 0)
(0.0298509 0.0581515 0)
(0.000581181 0.0832396 0)
(-0.0335791 0.115843 0)
(-0.0740894 0.157374 0)
(-0.120766 0.211597 0)
(-0.175398 0.279517 0)
(-0.236622 0.369015 0)
(-0.30503 0.480508 0)
(-0.376253 0.626463 0)
(-0.446771 0.807559 0)
(-0.503854 1.03685 0)
(9.23399e-05 0.000227607 0)
(-0.00024494 0.00209451 0)
(-0.00198331 0.00495201 0)
(-0.00595816 0.00779146 0)
(-0.012367 0.00947134 0)
(-0.0206506 0.00929609 0)
(-0.0296096 0.00707842 0)
(-0.037753 0.00312212 0)
(-0.0438208 -0.00187251 0)
(-0.0470692 -0.00711746 0)
(-0.0472624 -0.0120251 0)
(-0.0445143 -0.0162874 0)
(-0.0391165 -0.0198342 0)
(-0.0314229 -0.0227175 0)
(-0.0217925 -0.025023 0)
(-0.0105902 -0.0268301 0)
(0.00183799 -0.0282028 0)
(0.015168 -0.0292315 0)
(0.0291502 -0.0300013 0)
(0.0436054 -0.0306048 0)
(0.0583993 -0.0310585 0)
(0.0733863 -0.0313202 0)
(0.0883299 -0.0312679 0)
(0.102863 -0.030766 0)
(0.116498 -0.0297026 0)
(0.128663 -0.0280551 0)
(0.138803 -0.0258719 0)
(0.146446 -0.0232978 0)
(0.151281 -0.0204803 0)
(0.153183 -0.0175608 0)
(0.152195 -0.0145933 0)
(0.148479 -0.0115256 0)
(0.142276 -0.00817083 0)
(0.133784 -0.00422948 0)
(0.123158 0.000742313 0)
(0.1104 0.00724499 0)
(0.0953876 0.0159358 0)
(0.0778485 0.0274922 0)
(0.0573221 0.0428028 0)
(0.0333698 0.0628493 0)
(0.00516111 0.0888325 0)
(-0.0276401 0.122503 0)
(-0.0662842 0.165296 0)
(-0.110569 0.220848 0)
(-0.161886 0.290434 0)
(-0.218798 0.381162 0)
(-0.281479 0.494154 0)
(-0.345298 0.640094 0)
(-0.406775 0.81991 0)
(-0.453474 1.04466 0)
(9.35296e-05 0.000233045 0)
(-0.000250858 0.00220927 0)
(-0.00201418 0.00526117 0)
(-0.00603208 0.00836302 0)
(-0.0124788 0.010296 0)
(-0.0207634 0.0102708 0)
(-0.02968 0.0080523 0)
(-0.0377452 0.00393995 0)
(-0.0437099 -0.00133225 0)
(-0.0468456 -0.00692099 0)
(-0.0469307 -0.0121886 0)
(-0.0440869 -0.0167956 0)
(-0.0386085 -0.0206565 0)
(-0.0308483 -0.0238178 0)
(-0.0211645 -0.026363 0)
(-0.00992149 -0.0283702 0)
(0.00253507 -0.0299048 0)
(0.0158836 -0.0310617 0)
(0.0298778 -0.0319343 0)
(0.0443424 -0.0326214 0)
(0.0591446 -0.0331411 0)
(0.0741354 -0.0334421 0)
(0.089072 -0.0333865 0)
(0.103579 -0.0328179 0)
(0.117166 -0.0316076 0)
(0.129261 -0.0297246 0)
(0.139317 -0.027222 0)
(0.14688 -0.0242601 0)
(0.151656 -0.0210108 0)
(0.153538 -0.0176419 0)
(0.15259 -0.0142303 0)
(0.148986 -0.0107398 0)
(0.142973 -0.00698645 0)
(0.134754 -0.00266609 0)
(0.124487 0.00268305 0)
(0.112178 0.00958262 0)
(0.097715 0.0187162 0)
(0.0808432 0.0307905 0)
(0.0611335 0.0467121 0)
(0.0381835 0.0674981 0)
(0.0112458 0.094351 0)
(-0.0199805 0.12904 0)
(-0.0565513 0.173035 0)
(-0.0982514 0.22982 0)
(-0.146123 0.300904 0)
(-0.198682 0.392709 0)
(-0.255747 0.506802 0)
(-0.31258 0.652479 0)
(-0.365783 0.830603 0)
(-0.403424 1.05059 0)
(9.45472e-05 0.000238552 0)
(-0.000257203 0.00232951 0)
(-0.00204435 0.00558433 0)
(-0.00610272 0.00895586 0)
(-0.0125857 0.0111476 0)
(-0.0208708 0.0112732 0)
(-0.0297447 0.00904887 0)
(-0.0377325 0.0047719 0)
(-0.0435955 -0.000788438 0)
(-0.0466195 -0.00673206 0)
(-0.046597 -0.0123699 0)
(-0.0436579 -0.0173306 0)
(-0.0380987 -0.0215136 0)
(-0.0302714 -0.0249599 0)
(-0.0205337 -0.0277505 0)
(-0.00924931 -0.0299623 0)
(0.00323625 -0.0316624 0)
(0.016604 -0.0329504 0)
(0.0306113 -0.0339283 0)
(0.045087 -0.0347014 0)
(0.0598997 -0.0352888 0)
(0.0748974 -0.0356295 0)
(0.089831 -0.0355683 0)
(0.104318 -0.0349279 0)
(0.117863 -0.0335628 0)
(0.129895 -0.0314343 0)
(0.139876 -0.0286017 0)
(0.147367 -0.0252417 0)
(0.152095 -0.0215527 0)
(0.153973 -0.0177289 0)
(0.153083 -0.0138709 0)
(0.149614 -0.00995795 0)
(0.143823 -0.00580913 0)
(0.13592 -0.00111415 0)
(0.126064 0.00460605 0)
(0.114271 0.0118959 0)
(0.100437 0.021463 0)
(0.0843267 0.0340437 0)
(0.0655438 0.0505605 0)
(0.0437207 0.0720618 0)
(0.0181921 0.0997536 0)
(-0.0113081 0.13541 0)
(-0.0456553 0.180539 0)
(-0.084616 0.23846 0)
(-0.128922 0.310881 0)
(-0.177059 0.403584 0)
(-0.228545 0.518474 0)
(-0.278631 0.663606 0)
(-0.324017 0.839692 0)
(-0.353403 1.05495 0)
(9.54075e-05 0.000244171 0)
(-0.000263939 0.00245534 0)
(-0.00207375 0.00592191 0)
(-0.00616989 0.00957052 0)
(-0.0126872 0.0120268 0)
(-0.020972 0.0123041 0)
(-0.0298032 0.0100687 0)
(-0.0377145 0.00561817 0)
(-0.0434772 -0.000241212 0)
(-0.046391 -0.00655116 0)
(-0.046262 -0.0125698 0)
(-0.0432284 -0.0178936 0)
(-0.0375887 -0.0224069 0)
(-0.0296944 -0.0261452 0)
(-0.0199027 -0.0291871 0)
(-0.00857678 -0.0316084 0)
(0.00393804 -0.0334775 0)
(0.0173255 -0.0348995 0)
(0.0313466 -0.0359855 0)
(0.0458343 -0.036847 0)
(0.0606587 -0.0375039 0)
(0.0756647 -0.0378845 0)
(0.090597 -0.0378157 0)
(0.105066 -0.0370982 0)
(0.118572 -0.0355702 0)
(0.130545 -0.033186 0)