/*--------------------------------*- C++ -*----------------------------------*\
  =========                 |
  \\      /  F ield         | OpenFOAM: The Open Source CFD Toolbox
   \\    /   O peration     | Website:  https://openfoam.org
    \\  /    A nd           | Version:  7
     \\/     M anipulation  |
\*---------------------------------------------------------------------------*/
FoamFile
{
    version     2.0;
    format      ascii;
    class       surfaceScalarField;
    location    "0.16";
    object      phi;
}
// * * * * * * * * * * * * * * * * * * * * * * * * * * * * * * * * * * * * * //

dimensions      [0 3 -1 0 0 0 0];

internalField   nonuniform List<scalar> 
139350
(
6.45136e-08
9.21179e-08
3.19685e-08
3.2545e-08
2.30661e-08
8.90247e-09
1.95842e-08
3.48189e-09
1.76351e-08
1.94904e-09
1.62078e-08
1.42737e-09
1.50776e-08
1.13018e-09
1.41679e-08
9.09678e-10
1.34201e-08
7.47844e-10
1.27907e-08
6.29319e-10
1.22512e-08
5.3956e-10
1.17821e-08
4.69098e-10
1.13698e-08
4.12331e-10
1.1004e-08
3.65734e-10
1.06771e-08
3.26907e-10
1.0383e-08
2.94131e-10
1.01168e-08
2.66145e-10
9.87483e-09
2.42003e-10
9.65385e-09
2.20988e-10
9.45131e-09
2.02541e-10
9.26508e-09
1.86225e-10
9.09339e-09
1.71693e-10
8.93472e-09
1.58664e-10
8.78782e-09
1.46909e-10
8.65158e-09
1.3624e-10
8.52508e-09
1.265e-10
8.40752e-09
1.17554e-10
8.29823e-09
1.09294e-10
8.19661e-09
1.01617e-10
8.10216e-09
9.44481e-11
8.01446e-09
8.76975e-11
7.93314e-09
8.13252e-11
7.85791e-09
7.52326e-11
7.78848e-09
6.94288e-11
7.72471e-09
6.37718e-11
7.66635e-09
5.83506e-11
7.61342e-09
5.29393e-11
7.56569e-09
4.77264e-11
7.52327e-09
4.24192e-11
7.48609e-09
3.71753e-11
7.45411e-09
3.19818e-11
7.42795e-09
2.6158e-11
7.40634e-09
2.16185e-11
7.39278e-09
1.3552e-11
7.38072e-09
1.20663e-11
7.38488e-09
-4.16097e-12
7.376e-09
8.88276e-12
7.43127e-09
-5.52704e-11
7.24787e-09
1.83395e-10
-3.35992e-09
1.06078e-08
1.25945e-07
1.27616e-07
9.12969e-08
6.71933e-08
7.19513e-08
2.82481e-08
6.12436e-08
1.41896e-08
5.48151e-08
8.37751e-09
5.03281e-08
5.91446e-09
4.68512e-08
4.60701e-09
4.40454e-08
3.71553e-09
4.17298e-08
3.06343e-09
3.97791e-08
2.58004e-09
3.81061e-08
2.2125e-09
3.6651e-08
1.92417e-09
3.53713e-08
1.69209e-09
3.42354e-08
1.50164e-09
3.32193e-08
1.34295e-09
3.23045e-08
1.20899e-09
3.1476e-08
1.09461e-09
3.07221e-08
9.95947e-10
3.0033e-08
9.1007e-10
2.94008e-08
8.34707e-10
2.8819e-08
7.68074e-10
2.82819e-08
7.08753e-10
2.7785e-08
6.55599e-10
2.73242e-08
6.07681e-10
2.68962e-08
5.64228e-10
2.64981e-08
5.24601e-10
2.61274e-08
4.88257e-10
2.57819e-08
4.5474e-10
2.54599e-08
4.23646e-10
2.51597e-08
3.94649e-10
2.488e-08
3.67419e-10
2.46196e-08
3.41741e-10
2.43775e-08
3.17287e-10
2.4153e-08
2.93994e-10
2.39453e-08
2.71414e-10
2.37539e-08
2.4976e-10
2.35786e-08
2.28242e-10
2.34187e-08
2.07607e-10
2.32748e-08
1.86367e-10
2.31458e-08
1.66163e-10
2.30333e-08
1.44472e-10
2.29356e-08
1.23813e-10
2.28559e-08
1.01399e-10
2.27916e-08
7.77766e-11
2.27467e-08
5.69761e-11
2.27233e-08
1.9228e-11
2.27086e-08
2.35887e-11
2.27905e-08
-1.37177e-10
2.26724e-08
3.01501e-10
-4.16089e-09
2.34734e-08
1.58754e-07
1.35266e-07
1.36534e-07
8.9413e-08
1.1751e-07
4.72721e-08
1.03345e-07
2.83551e-08
9.33637e-08
1.83586e-08
8.60772e-08
1.3201e-08
8.03839e-08
1.03003e-08
7.57473e-08
8.35218e-09
7.18848e-08
6.9259e-09
6.86089e-08
5.85595e-09
6.57863e-08
5.03512e-09
6.33223e-08
4.3881e-09
6.11487e-08
3.86571e-09
5.92144e-08
3.43598e-09
5.74802e-08
3.07711e-09
5.59156e-08
2.77361e-09
5.44961e-08
2.51406e-09
5.32022e-08
2.28989e-09
5.20177e-08
2.09457e-09
5.09294e-08
1.92302e-09
4.99262e-08
1.77125e-09
4.89989e-08
1.63607e-09
4.81396e-08
1.51492e-09
4.73416e-08
1.40569e-09
4.65991e-08
1.30666e-09
4.59074e-08
1.21638e-09
4.5262e-08
1.13362e-09
4.46594e-08
1.05736e-09
4.40964e-08
9.86677e-10
4.35702e-08
9.20829e-10
4.30785e-08
8.59096e-10
4.26193e-08
8.00947e-10
4.21909e-08
7.45713e-10
4.17917e-08
6.9315e-10
4.14207e-08
6.42382e-10
4.10768e-08
5.93726e-10
4.07595e-08
5.45568e-10
4.04676e-08
4.99502e-10
4.02019e-08
4.52022e-10
3.99605e-08
4.07566e-10
3.97465e-08
3.58481e-10
3.95555e-08
3.14841e-10
3.93954e-08
2.61435e-10
3.92565e-08
2.16702e-10
3.91555e-08
1.57987e-10
3.90764e-08
9.83632e-11
3.90353e-08
6.46078e-11
3.90783e-08
-1.80095e-10
3.91041e-08
2.75625e-10
-4.01357e-09
3.89568e-08
1.75612e-07
1.31169e-07
1.65629e-07
9.9396e-08
1.5275e-07
6.01513e-08
1.40154e-07
4.09514e-08
1.29489e-07
2.90236e-08
1.20867e-07
2.18231e-08
1.13772e-07
1.73945e-08
1.07811e-07
1.43141e-08
1.0273e-07
1.20062e-08
9.83489e-08
1.02373e-08
9.45268e-08
8.85722e-09
9.11585e-08
7.75643e-09
8.81642e-08
6.85993e-09
8.54829e-08
6.11736e-09
8.30662e-08
5.49376e-09
8.08759e-08
4.96387e-09
7.88811e-08
4.50892e-09
7.70563e-08
4.11469e-09
7.53806e-08
3.77021e-09
7.38367e-08
3.46694e-09
7.24099e-08
3.19808e-09
7.10877e-08
2.95822e-09
6.98597e-08
2.74296e-09
6.87167e-08
2.54867e-09
6.7651e-08
2.37238e-09
6.66558e-08
2.21157e-09
6.57253e-08
2.06413e-09
6.48544e-08
1.92824e-09
6.40388e-08
1.80234e-09
6.32745e-08
1.68509e-09
6.25583e-08
1.57526e-09
6.18874e-08
1.47189e-09
6.12592e-08
1.37387e-09
6.06717e-08
1.28067e-09
6.01232e-08
1.19089e-09
5.9612e-08
1.10493e-09
5.91374e-08
1.02015e-09
5.86978e-08
9.39145e-10
5.82939e-08
8.55914e-10
5.79231e-08
7.78372e-10
5.75892e-08
6.92336e-10
5.72864e-08
6.1763e-10
5.7025e-08
5.22819e-10
5.67918e-08
4.49978e-10
5.66088e-08
3.40944e-10
5.64534e-08
2.53811e-10
5.63543e-08
1.63666e-10
5.63271e-08
-1.52899e-10
5.63925e-08
2.10225e-10
-3.63795e-09
5.60169e-08
1.84511e-07
1.23444e-07
1.82345e-07
1.01562e-07
1.76132e-07
6.63637e-08
1.67786e-07
4.92973e-08
1.59182e-07
3.76278e-08
1.51295e-07
2.97107e-08
1.44242e-07
2.44471e-08
1.37964e-07
2.05926e-08
1.32386e-07
1.75839e-08
1.27425e-07
1.51986e-08
1.22994e-07
1.3288e-08
1.19017e-07
1.17331e-08
1.1543e-07
1.04468e-08
1.1218e-07
9.368e-09
1.09221e-07
8.45267e-09
1.06516e-07
7.66819e-09
1.04036e-07
6.98977e-09
1.01752e-07
6.39825e-09
9.96436e-08
5.87867e-09
9.76914e-08
5.41915e-09
9.58793e-08
5.01018e-09
9.41934e-08
4.64409e-09
9.26218e-08
4.31457e-09
9.1154e-08
4.01642e-09
8.97811e-08
3.74532e-09
8.8495e-08
3.4976e-09
8.7289e-08
3.27015e-09
8.6157e-08
3.0603e-09
8.50936e-08
2.86573e-09
8.40942e-08
2.68445e-09
8.31548e-08
2.51464e-09
8.22719e-08
2.35481e-09
8.14424e-08
2.20336e-09
8.06637e-08
2.05942e-09
7.99336e-08
1.92101e-09
7.925e-08
1.78852e-09
7.86118e-08
1.65829e-09
7.80171e-08
1.53383e-09
7.74665e-08
1.40658e-09
7.69569e-08
1.28793e-09
7.64922e-08
1.15708e-09
7.60663e-08
1.04351e-09
7.56893e-08
8.99845e-10
7.53486e-08
7.90665e-10
7.50646e-08
6.24964e-10
7.48185e-08
4.99874e-10
7.46347e-08
3.47445e-10
7.45255e-08
-4.36374e-11
7.45345e-08
2.01135e-10
-3.19116e-09
7.40878e-08
1.90343e-07
1.15317e-07
1.91862e-07
1.00043e-07
1.90271e-07
6.79548e-08
1.86175e-07
5.33931e-08
1.8075e-07
4.30534e-08
1.75015e-07
3.54458e-08
1.69337e-07
3.01242e-08
1.63875e-07
2.60553e-08
1.58723e-07
2.27354e-08
1.53925e-07
1.99974e-08
1.49481e-07
1.77316e-08
1.45376e-07
1.58379e-08
1.41586e-07
1.42369e-08
1.38084e-07
1.28695e-08
1.34846e-07
1.16916e-08
1.31845e-07
1.06689e-08
1.2906e-07
9.77474e-09
1.2647e-07
8.9877e-09
1.24058e-07
8.29067e-09
1.21808e-07
7.66981e-09
1.19704e-07
7.11379e-09
1.17735e-07
6.61331e-09
1.15889e-07
6.16065e-09
1.14156e-07
5.74937e-09
1.12527e-07
5.37399e-09
1.10995e-07
5.02988e-09
1.09552e-07
4.71305e-09
1.08192e-07
4.42004e-09
1.0691e-07
4.14785e-09
1.05701e-07
3.89382e-09
1.0456e-07
3.65559e-09
1.03484e-07
3.43115e-09
1.02469e-07
3.21841e-09
1.01512e-07
3.0161e-09
1.00611e-07
2.82172e-09
9.97641e-08
2.63556e-09
9.89693e-08
2.45301e-09
9.82249e-08
2.27832e-09
9.75308e-08
2.10067e-09
9.68844e-08
1.9343e-09
9.62886e-08
1.75287e-09
9.57386e-08
1.59352e-09
9.5242e-08
1.39644e-09
9.47902e-08
1.24244e-09
9.43967e-08
1.01849e-09
9.40538e-08
8.42751e-10
9.3771e-08
6.30293e-10
9.35708e-08
1.56544e-10
9.34879e-08
2.84005e-10
-2.66828e-09
9.2965e-08
1.95505e-07
1.07627e-07
1.9825e-07
9.72979e-08
1.98993e-07
6.72121e-08
1.97805e-07
5.45803e-08
1.95182e-07
4.56772e-08
1.91856e-07
3.87715e-08
1.88141e-07
3.3839e-08
1.8421e-07
2.99866e-08
1.80212e-07
2.67333e-08
1.76257e-07
2.39522e-08
1.72413e-07
2.15757e-08
1.68718e-07
1.95328e-08
1.65192e-07
1.77624e-08
1.61845e-07
1.62172e-08
1.58675e-07
1.48608e-08
1.55681e-07
1.36638e-08
1.52853e-07
1.2602e-08
1.50186e-07
1.16555e-08
1.47668e-07
1.0808e-08
1.45292e-07
1.00457e-08
1.43049e-07
9.35701e-09
1.4093e-07
8.73231e-09
1.38927e-07
8.1634e-09
1.37033e-07
7.64328e-09
1.35241e-07
7.16596e-09
1.33545e-07
6.72624e-09
1.31939e-07
6.31962e-09
1.30416e-07
5.94212e-09
1.28974e-07
5.59025e-09
1.27607e-07
5.2609e-09
1.26311e-07
4.95127e-09
1.25083e-07
4.65893e-09
1.23921e-07
4.38137e-09
1.2282e-07
4.11703e-09
1.21778e-07
3.8629e-09
1.20795e-07
3.61919e-09
1.19867e-07
3.38047e-09
1.18994e-07
3.15149e-09
1.18175e-07
2.91974e-09
1.17408e-07
2.70131e-09
1.16695e-07
2.4661e-09
1.16032e-07
2.25588e-09
1.15425e-07
2.00355e-09
1.1487e-07
1.79759e-09
1.14372e-07
1.51682e-09
1.13935e-07
1.27944e-09
1.13554e-07
1.011e-09
1.13258e-07
4.52806e-10
1.13079e-07
4.63562e-10
-2.06958e-09
1.1248e-07
2.0082e-07
1.00392e-07
2.03775e-07
9.43433e-08
2.05352e-07
6.5635e-08
2.05659e-07
5.42736e-08
2.04836e-07
4.64995e-08
2.03368e-07
4.02398e-08
2.01434e-07
3.57727e-08
1.9912e-07
3.23006e-08
1.96533e-07
2.93209e-08
1.93774e-07
2.67111e-08
1.90924e-07
2.44255e-08
1.88043e-07
2.24136e-08
1.85176e-07
2.06299e-08
1.82353e-07
1.90397e-08
1.79598e-07
1.76161e-08
1.76925e-07
1.63371e-08
1.74343e-07
1.51842e-08
1.71857e-07
1.41415e-08
1.69469e-07
1.31955e-08
1.6718e-07
1.23344e-08
1.64989e-07
1.15482e-08
1.62893e-07
1.08281e-08
1.6089e-07
1.01664e-08
1.58977e-07
9.55674e-09
1.5715e-07
8.99315e-09
1.55406e-07
8.47053e-09
1.53741e-07
7.98438e-09
1.52152e-07
7.53061e-09
1.50637e-07
7.10561e-09
1.49192e-07
6.70608e-09
1.47814e-07
6.32902e-09
1.46501e-07
5.97178e-09
1.45251e-07
5.63162e-09
1.44061e-07
5.30675e-09
1.4293e-07
4.99386e-09
1.41856e-07
4.69304e-09
1.40838e-07
4.39835e-09
1.39875e-07
4.11473e-09
1.38966e-07
3.82863e-09
1.38111e-07
3.55701e-09
1.37309e-07
3.26786e-09
1.3656e-07
3.00451e-09
1.35866e-07
2.69785e-09
1.35228e-07
2.43566e-09
1.34643e-07
2.10127e-09
1.34127e-07
1.79593e-09
1.33663e-07
1.47451e-09
1.33277e-07
8.38871e-10
1.33008e-07
7.32947e-10
-1.4147e-09
1.32353e-07
2.06424e-07
9.35003e-08
2.09335e-07
9.14323e-08
2.11063e-07
6.39064e-08
2.11949e-07
5.33879e-08
2.12019e-07
4.64295e-08
2.11643e-07
4.06156e-08
2.10925e-07
3.64906e-08
2.09868e-07
3.33576e-08
2.08511e-07
3.06784e-08
2.06911e-07
2.83106e-08
2.05125e-07
2.62117e-08
2.03201e-07
2.43377e-08
2.01181e-07
2.26495e-08
1.99102e-07
2.1119e-08
1.96992e-07
1.97258e-08
1.94876e-07
1.84537e-08
1.9277e-07
1.72894e-08
1.90691e-07
1.6221e-08
1.88648e-07
1.52385e-08
1.86649e-07
1.43329e-08
1.84701e-07
1.34963e-08
1.82808e-07
1.27218e-08
1.80971e-07
1.20031e-08
1.79193e-07
1.13346e-08
1.77475e-07
1.07114e-08
1.75817e-07
1.01289e-08
1.74218e-07
9.58319e-09
1.72678e-07
9.07038e-09
1.71196e-07
8.58713e-09
1.69772e-07
8.13028e-09
1.68404e-07
7.69691e-09
1.67092e-07
7.28438e-09
1.65833e-07
6.88994e-09
1.64628e-07
6.51174e-09
1.63476e-07
6.14633e-09
1.62375e-07
5.79375e-09
1.61326e-07
5.44781e-09
1.60327e-07
5.11346e-09
1.59379e-07
4.77673e-09
1.58481e-07
4.45458e-09
1.57634e-07
4.11481e-09
1.56839e-07
3.79962e-09
1.56095e-07
3.44234e-09
1.55407e-07
3.12355e-09
1.54768e-07
2.74022e-09
1.54198e-07
2.36632e-09
1.53678e-07
1.99427e-09
1.53222e-07
1.29461e-09
1.5288e-07
1.07543e-09
-7.31455e-10
1.52196e-07
2.1227e-07
8.68929e-08
2.15143e-07
8.85586e-08
2.16818e-07
6.22317e-08
2.17863e-07
5.23426e-08
2.18278e-07
4.60146e-08
2.18404e-07
4.04904e-08
2.18338e-07
3.65564e-08
2.1805e-07
3.36458e-08
2.17533e-07
3.11949e-08
2.16807e-07
2.90368e-08
2.15895e-07
2.71237e-08
2.14822e-07
2.54105e-08
2.13614e-07
2.38574e-08
2.12296e-07
2.24368e-08
2.10892e-07
2.11299e-08
2.09423e-07
1.9923e-08
2.07907e-07
1.88051e-08
2.06361e-07
1.7767e-08
2.04799e-07
1.68011e-08
2.03231e-07
1.59006e-08
2.01668e-07
1.50595e-08
2.00117e-07
1.42726e-08
1.98585e-07
1.3535e-08
1.97077e-07
1.28425e-08
1.95597e-07
1.2191e-08
1.94149e-07
1.1577e-08
1.92735e-07
1.09971e-08
1.91358e-07
1.0448e-08
1.90018e-07
9.92704e-09
1.88717e-07
9.43126e-09
1.87456e-07
8.95809e-09
1.86235e-07
8.50512e-09
1.85055e-07
8.06974e-09
1.83917e-07
7.65021e-09
1.8282e-07
7.24313e-09
1.81765e-07
6.84859e-09
1.80753e-07
6.46032e-09
1.79783e-07
6.0832e-09
1.78856e-07
5.70336e-09
1.77974e-07
5.3371e-09
1.77135e-07
4.95339e-09
1.76343e-07
4.59132e-09
1.75596e-07
4.18991e-09
1.74901e-07
3.81818e-09
1.74249e-07
3.39221e-09
1.73661e-07
2.95452e-09
1.7312e-07
2.53501e-09
1.72627e-07
1.78826e-09
1.72238e-07
1.46426e-09
-5.18721e-11
1.71558e-07
2.18316e-07
8.0558e-08
2.21193e-07
8.56813e-08
2.22791e-07
6.06334e-08
2.23865e-07
5.12688e-08
2.24388e-07
4.54911e-08
2.24691e-07
4.01878e-08
2.24901e-07
3.63465e-08
2.2499e-07
3.35569e-08
2.24937e-07
3.12474e-08
2.24744e-07
2.92304e-08
2.24414e-07
2.74538e-08
2.23953e-07
2.5871e-08
2.23371e-07
2.44395e-08
2.22679e-07
2.31291e-08
2.21889e-07
2.19199e-08
2.21014e-07
2.07975e-08
2.20068e-07
1.97513e-08
2.19062e-07
1.87726e-08
2.18009e-07
1.78547e-08
2.16918e-07
1.69916e-08
2.15799e-07
1.61786e-08
2.1466e-07
1.54112e-08
2.13509e-07
1.46858e-08
2.12353e-07
1.39988e-08
2.11197e-07
1.33472e-08
2.10046e-07
1.27281e-08
2.08904e-07
1.21387e-08
2.07775e-07
1.15766e-08
2.06663e-07
1.10393e-08
2.0557e-07
1.05245e-08
2.04498e-07
1.003e-08
2.0345e-07
9.55362e-09
2.02426e-07
9.09308e-09
2.0143e-07
8.64685e-09
2.00461e-07
8.21165e-09
1.99522e-07
7.78767e-09
1.98614e-07
7.36878e-09
1.97737e-07
6.95969e-09
1.96893e-07
6.54702e-09
1.96085e-07
6.14591e-09
1.9531e-07
5.72756e-09
1.94575e-07
5.32655e-09
1.93875e-07
4.88975e-09
1.93221e-07
4.47219e-09
1.92602e-07
4.01136e-09
1.92038e-07
3.51901e-09
1.91516e-07
3.0568e-09
1.91023e-07
2.28114e-09
1.90622e-07
1.86566e-09
5.89945e-10
1.8998e-07
2.24549e-07
7.4502e-08
2.27453e-07
8.27778e-08
2.28987e-07
5.9099e-08
2.30068e-07
5.01876e-08
2.30633e-07
4.4927e-08
2.30984e-07
3.98366e-08
2.31283e-07
3.60471e-08
2.3152e-07
3.33202e-08
2.31675e-07
3.10919e-08
2.31748e-07
2.91576e-08
2.31737e-07
2.74645e-08
2.31641e-07
2.5967e-08
2.3146e-07
2.46211e-08
2.31194e-07
2.33946e-08
2.30849e-07
2.22657e-08
2.30427e-07
2.12186e-08
2.29937e-07
2.02417e-08
2.29384e-07
1.93258e-08
2.28775e-07
1.84638e-08
2.28117e-07
1.76499e-08
2.27416e-07
1.68792e-08
2.26679e-07
1.61477e-08
2.25913e-07
1.54521e-08
2.25123e-07
1.47891e-08
2.24314e-07
1.41562e-08
2.23491e-07
1.35507e-08
2.22659e-07
1.29706e-08
2.21822e-07
1.24136e-08
2.20984e-07
1.18777e-08
2.20148e-07
1.13609e-08
2.19316e-07
1.08614e-08
2.18493e-07
1.03773e-08
2.17679e-07
9.90655e-09
2.16878e-07
9.44784e-09
2.16092e-07
8.99805e-09
2.15322e-07
8.55751e-09
2.1457e-07
8.12028e-09
2.13839e-07
7.69085e-09
2.1313e-07
7.25659e-09
2.12444e-07
6.83115e-09
2.11783e-07
6.38865e-09
2.11152e-07
5.95826e-09
2.10545e-07
5.49591e-09
2.09976e-07
5.04189e-09
2.09432e-07
4.55476e-09
2.08932e-07
4.01963e-09
2.08467e-07
3.52116e-09
2.08014e-07
2.73404e-09
2.07636e-07
2.24397e-09
1.16204e-09
2.07064e-07
2.30975e-07
6.87327e-08
2.33914e-07
7.98392e-08
2.35391e-07
5.76214e-08
2.36481e-07
4.9098e-08
2.37078e-07
4.43297e-08
2.37445e-07
3.94703e-08
2.37766e-07
3.57257e-08
2.38049e-07
3.30374e-08
2.3828e-07
3.08608e-08
2.38462e-07
2.89759e-08
2.38596e-07
2.73301e-08
2.38681e-07
2.58819e-08
2.38714e-07
2.45879e-08
2.38694e-07
2.34149e-08
2.3862e-07
2.23401e-08
2.38491e-07
2.13469e-08
2.3831e-07
2.04226e-08
2.38079e-07
1.95574e-08
2.37799e-07
1.87434e-08
2.37474e-07
1.79744e-08
2.37108e-07
1.72452e-08
2.36705e-07
1.65516e-08
2.36267e-07
1.58899e-08
2.35799e-07
1.52571e-08
2.35304e-07
1.46506e-08
2.34787e-07
1.40678e-08
2.34251e-07
1.35067e-08
2.337e-07
1.29653e-08
2.33136e-07
1.24417e-08
2.32562e-07
1.19341e-08
2.31983e-07
1.14409e-08
2.314e-07
1.09605e-08
2.30815e-07
1.04907e-08
2.30233e-07
1.00307e-08
2.29653e-07
9.57732e-09
2.2908e-07
9.131e-09
2.28514e-07
8.68605e-09
2.27958e-07
8.24659e-09
2.27414e-07
7.80099e-09
2.26884e-07
7.36106e-09
2.26368e-07
6.90431e-09
2.25873e-07
6.45409e-09
2.25393e-07
5.97568e-09
2.24939e-07
5.4952e-09
2.24504e-07
4.99009e-09
2.24099e-07
4.42493e-09
2.23722e-07
3.8976e-09
2.23342e-07
3.11414e-09
2.23018e-07
2.56791e-09
1.63875e-09
2.22542e-07
2.37602e-07
6.3256e-08
2.40579e-07
7.68613e-08
2.42e-07
5.62009e-08
2.43097e-07
4.80009e-08
2.43731e-07
4.36956e-08
2.44111e-07
3.90907e-08
2.44438e-07
3.53985e-08
2.44734e-07
3.27417e-08
2.44988e-07
3.06067e-08
2.45206e-07
2.87574e-08
2.45395e-07
2.71413e-08
2.45555e-07
2.57218e-08
2.45685e-07
2.44577e-08
2.45784e-07
2.3316e-08
2.45851e-07
2.22737e-08
2.45883e-07
2.13139e-08
2.45882e-07
2.04238e-08
2.45847e-07
1.95929e-08
2.45777e-07
1.8813e-08
2.45674e-07
1.80774e-08
2.45539e-07
1.73804e-08
2.45373e-07
1.67177e-08
2.45177e-07
1.60853e-08
2.44955e-07
1.54799e-08
2.44707e-07
1.48986e-08
2.44436e-07
1.43389e-08
2.44144e-07
1.37986e-08
2.43833e-07
1.32757e-08
2.43507e-07
1.27683e-08
2.43166e-07
1.22746e-08
2.42814e-07
1.17931e-08
2.42452e-07
1.13221e-08
2.42083e-07
1.08597e-08
2.41709e-07
1.0405e-08
2.41331e-07
9.95499e-09
2.40952e-07
9.51003e-09
2.40574e-07
9.06474e-09
2.40197e-07
8.62273e-09
2.39825e-07
8.17345e-09
2.39459e-07
7.72672e-09
2.391e-07
7.26359e-09
2.38753e-07
6.80157e-09
2.38413e-07
6.31488e-09
2.38092e-07
5.81703e-09
2.37781e-07
5.30095e-09
2.37488e-07
4.71759e-09
2.37217e-07
4.1688e-09
2.3693e-07
3.40055e-09
2.36682e-07
2.81604e-09
2.0049e-09
2.36316e-07
2.44437e-07
5.80754e-08
2.47453e-07
7.38448e-08
2.48819e-07
5.48356e-08
2.49918e-07
4.6901e-08
2.50591e-07
4.30228e-08
2.50988e-07
3.86943e-08
2.5132e-07
3.50664e-08
2.51621e-07
3.24402e-08
2.51883e-07
3.03446e-08
2.52113e-07
2.85278e-08
2.52319e-07
2.69352e-08
2.52505e-07
2.55356e-08
2.52672e-07
2.42906e-08
2.5282e-07
2.3168e-08
2.52949e-07
2.2145e-08
2.53058e-07
2.12051e-08
2.53146e-07
2.03353e-08
2.53214e-07
1.95254e-08
2.5326e-07
1.87668e-08
2.53285e-07
1.80527e-08
2.53288e-07
1.73774e-08
2.53269e-07
1.67361e-08
2.5323e-07
1.61246e-08
2.5317e-07
1.55396e-08
2.53091e-07
1.49779e-08
2.52993e-07
1.44368e-08
2.52878e-07
1.3914e-08
2.52746e-07
1.34073e-08
2.526e-07
1.29147e-08
2.5244e-07
1.24346e-08
2.52268e-07
1.1965e-08
2.52085e-07
1.15046e-08
2.51894e-07
1.10513e-08
2.51694e-07
1.06043e-08
2.51489e-07
1.01605e-08
2.51279e-07
9.72016e-09
2.51065e-07
9.27828e-09
2.5085e-07
8.83779e-09
2.50634e-07
8.38935e-09
2.50421e-07
7.94061e-09
2.50208e-07
7.47616e-09
2.50002e-07
7.00799e-09
2.49798e-07
6.51828e-09
2.49605e-07
6.0102e-09
2.49418e-07
5.48816e-09
2.49239e-07
4.89614e-09
2.49076e-07
4.33241e-09
2.48889e-07
3.5868e-09
2.48726e-07
2.97953e-09
2.25772e-09
2.48473e-07
2.51489e-07
5.31931e-08
2.54534e-07
7.08e-08
2.55855e-07
5.35146e-08
2.56952e-07
4.58035e-08
2.57663e-07
4.23121e-08
2.58079e-07
3.82783e-08
2.58417e-07
3.47283e-08
2.58724e-07
3.21329e-08
2.58992e-07
3.00769e-08
2.59227e-07
2.82932e-08
2.59439e-07
2.67233e-08
2.59633e-07
2.53411e-08
2.59812e-07
2.41114e-08
2.59978e-07
2.30027e-08
2.6013e-07
2.19928e-08
2.6027e-07
2.10655e-08
2.60397e-07
2.02083e-08
2.60511e-07
1.9411e-08
2.60612e-07
1.86653e-08
2.60701e-07
1.79642e-08
2.60776e-07
1.73021e-08
2.60838e-07
1.66741e-08
2.60887e-07
1.60761e-08
2.60922e-07
1.55043e-08
2.60944e-07
1.49557e-08
2.60954e-07
1.44274e-08
2.60951e-07
1.39169e-08
2.60936e-07
1.34218e-08
2.60911e-07
1.29403e-08
2.60875e-07
1.24705e-08
2.60829e-07
1.20105e-08
2.60775e-07
1.15587e-08
2.60713e-07
1.11133e-08
2.60644e-07
1.06731e-08
2.60569e-07
1.02353e-08
2.60489e-07
9.79996e-09
2.60405e-07
9.36228e-09
2.60319e-07
8.92451e-09
2.6023e-07
8.47855e-09
2.6014e-07
8.02991e-09
2.6005e-07
7.56648e-09
2.59963e-07
7.09534e-09
2.59876e-07
6.60533e-09
2.59794e-07
6.09178e-09
2.59715e-07
5.56664e-09
2.59639e-07
4.97268e-09
2.59572e-07
4.39909e-09
2.59479e-07
3.67957e-09
2.59397e-07
3.06169e-09
2.40593e-09
2.59249e-07
2.58767e-07
4.86093e-08
2.61829e-07
6.77373e-08
2.63117e-07
5.22268e-08
2.64207e-07
4.47135e-08
2.64954e-07
4.15658e-08
2.65391e-07
3.78408e-08
2.65736e-07
3.4383e-08
2.6605e-07
3.18196e-08
2.66323e-07
2.98034e-08
2.66562e-07
2.80543e-08
2.66777e-07
2.6508e-08
2.66975e-07
2.51431e-08
2.67159e-07
2.39277e-08
2.6733e-07
2.28315e-08
2.67491e-07
2.18325e-08
2.67641e-07
2.0915e-08
2.67782e-07
2.00669e-08
2.67915e-07
1.92782e-08
2.6804e-07
1.85408e-08
2.68156e-07
1.78479e-08
2.68264e-07
1.71939e-08
2.68364e-07
1.6574e-08
2.68456e-07
1.5984e-08
2.6854e-07
1.54203e-08
2.68616e-07
1.48797e-08
2.68685e-07
1.43592e-08
2.68745e-07
1.38562e-08
2.68799e-07
1.33686e-08
2.68845e-07
1.28941e-08
2.68884e-07
1.24308e-08
2.68918e-07
1.1977e-08
2.68946e-07
1.1531e-08
2.68968e-07
1.10908e-08
2.68986e-07
1.06553e-08
2.69e-07
1.02217e-08
2.6901e-07
9.78991e-09
2.69017e-07
9.3554e-09
2.69021e-07
8.91971e-09
2.69024e-07
8.47593e-09
2.69026e-07
8.02759e-09
2.69027e-07
7.5655e-09
2.6903e-07
7.09264e-09
2.69032e-07
6.60301e-09
2.69037e-07
6.08665e-09
2.69044e-07
5.55956e-09
2.6905e-07
4.96763e-09
2.69061e-07
4.38779e-09
2.69046e-07
3.69446e-09
2.69033e-07
3.07451e-09
2.46621e-09
2.68973e-07
2.66279e-07
4.43227e-08
2.69349e-07
6.46674e-08
2.70614e-07
5.09616e-08
2.71692e-07
4.36353e-08
2.72471e-07
4.0787e-08
2.72932e-07
3.73801e-08
2.73285e-07
3.40299e-08
2.73604e-07
3.15e-08
2.73884e-07
2.95234e-08
2.74128e-07
2.78107e-08
2.74346e-07
2.62894e-08
2.74547e-07
2.49424e-08
2.74733e-07
2.37415e-08
2.74907e-07
2.26576e-08
2.75071e-07
2.16691e-08
2.75225e-07
2.07606e-08
2.75372e-07
1.99204e-08
2.75511e-07
1.91387e-08
2.75644e-07
1.84078e-08
2.75771e-07
1.77209e-08
2.75893e-07
1.70725e-08
2.76009e-07
1.64579e-08
2.7612e-07
1.58731e-08
2.76226e-07
1.53143e-08
2.76327e-07
1.47784e-08
2.76424e-07
1.42625e-08
2.76516e-07
1.37639e-08
2.76604e-07
1.32804e-08
2.76689e-07
1.28097e-08
2.76769e-07
1.23501e-08
2.76847e-07
1.18996e-08
2.76921e-07
1.14566e-08
2.76993e-07
1.10191e-08
2.77062e-07
1.05859e-08
2.7713e-07
1.01545e-08
2.77195e-07
9.72424e-09
2.77259e-07
9.29125e-09
2.77323e-07
8.85625e-09
2.77385e-07
8.41345e-09
2.77448e-07
7.96464e-09
2.77511e-07
7.50308e-09
2.77575e-07
7.02857e-09
2.77639e-07
6.53881e-09
2.77705e-07
6.0208e-09
2.77773e-07
5.49178e-09
2.77836e-07
4.90371e-09
2.77904e-07
4.32003e-09
2.77948e-07
3.65073e-09
2.77988e-07
3.03402e-09
2.45854e-09
2.77996e-07
2.74034e-07
4.03304e-08
2.771e-07
6.16012e-08
2.78353e-07
4.97088e-08
2.79415e-07
4.25724e-08
2.80223e-07
3.99795e-08
2.80708e-07
3.68947e-08
2.8107e-07
3.3668e-08
2.81396e-07
3.11744e-08
2.81682e-07
2.9237e-08
2.81931e-07
2.75619e-08
2.82154e-07
2.60671e-08
2.82357e-07
2.47388e-08
2.82546e-07
2.35529e-08
2.82722e-07
2.24816e-08
2.82887e-07
2.15037e-08
2.83043e-07
2.06042e-08
2.83192e-07
1.97716e-08
2.83334e-07
1.89967e-08
2.8347e-07
1.82716e-08
2.83601e-07
1.75898e-08
2.83728e-07
1.69461e-08
2.8385e-07
1.63357e-08
2.83969e-07
1.57546e-08
2.84084e-07
1.51993e-08
2.84195e-07
1.46665e-08
2.84305e-07
1.41534e-08
2.84411e-07
1.36574e-08
2.84515e-07
1.31761e-08
2.84618e-07
1.27074e-08
2.84719e-07
1.22494e-08
2.84818e-07
1.18001e-08
2.84916e-07
1.13582e-08
2.85014e-07
1.09215e-08
2.85111e-07
1.04889e-08
2.85208e-07
1.00578e-08
2.85304e-07
9.62752e-09
2.85401e-07
9.1945e-09
2.85498e-07
8.7588e-09
2.85596e-07
8.31566e-09
2.85695e-07
7.8654e-09
2.85795e-07
7.40323e-09
2.85897e-07
6.92664e-09
2.86e-07
6.43578e-09
2.86105e-07
5.91642e-09
2.86211e-07
5.38506e-09
2.86314e-07
4.80127e-09
2.86419e-07
4.21534e-09
2.86503e-07
3.56668e-09
2.86581e-07
2.95598e-09
2.40202e-09
2.86637e-07
2.8204e-07
3.66274e-08
2.85092e-07
5.85497e-08
2.86342e-07
4.84588e-08
2.87387e-07
4.15279e-08
2.88218e-07
3.91476e-08
2.8873e-07
3.63832e-08
2.89102e-07
3.32962e-08
2.89433e-07
3.08428e-08
2.89727e-07
2.89438e-08
2.89981e-07
2.73076e-08
2.90207e-07
2.58408e-08
2.90414e-07
2.45321e-08
2.90605e-07
2.33617e-08
2.90783e-07
2.23034e-08
2.9095e-07
2.13365e-08
2.91108e-07
2.04462e-08
2.91259e-07
1.96214e-08
2.91402e-07
1.88531e-08
2.9154e-07
1.81338e-08
2.91673e-07
1.7457e-08
2.91801e-07
1.68176e-08
2.91926e-07
1.6211e-08
2.92047e-07
1.56332e-08
2.92166e-07
1.50807e-08
2.92282e-07
1.45504e-08
2.92396e-07
1.40393e-08
2.92508e-07
1.35449e-08
2.9262e-07
1.30649e-08
2.9273e-07
1.25971e-08
2.9284e-07
1.21397e-08
2.92949e-07
1.16907e-08
2.93059e-07
1.12487e-08
2.93169e-07
1.08116e-08
2.93279e-07
1.03784e-08
2.9339e-07
9.94643e-09
2.93503e-07
9.51498e-09
2.93617e-07
9.08081e-09
2.93732e-07
8.64339e-09
2.93849e-07
8.19884e-09
2.93968e-07
7.74631e-09
2.94089e-07
7.2825e-09
2.94212e-07
6.8034e-09
2.94337e-07
6.31048e-09
2.94464e-07
5.78972e-09
2.94593e-07
5.2556e-09
2.94719e-07
4.67574e-09
2.94846e-07
4.08866e-09
2.94955e-07
3.45688e-09
2.95058e-07
2.85318e-09
2.31218e-09
2.95148e-07
2.90309e-07
3.32075e-08
2.93334e-07
5.5524e-08
2.9459e-07
4.72028e-08
2.95615e-07
4.05036e-08
2.96466e-07
3.82963e-08
2.97005e-07
3.58446e-08
2.97388e-07
3.29132e-08
2.97725e-07
3.05051e-08
2.98025e-07
2.86439e-08
2.98285e-07
2.70474e-08
2.98516e-07
2.56103e-08
2.98726e-07
2.43221e-08
2.9892e-07
2.31677e-08
2.991e-07
2.21229e-08
2.9927e-07
2.11672e-08
2.99429e-07
2.02864e-08
2.99581e-07
1.94697e-08
2.99726e-07
1.87082e-08
2.99865e-07
1.79947e-08
2.99999e-07
1.7323e-08
3.00129e-07
1.66879e-08
3.00255e-07
1.6085e-08
3.00378e-07
1.55104e-08
3.00498e-07
1.49606e-08
3.00616e-07
1.44324e-08
3.00732e-07
1.39231e-08
3.00847e-07
1.343e-08
3.00961e-07
1.29508e-08
3.01075e-07
1.24835e-08
3.01188e-07
1.20261e-08
3.01302e-07
1.15768e-08
3.01417e-07
1.1134e-08
3.01532e-07
1.0696e-08
3.01649e-07
1.02615e-08
3.01768e-07
9.82811e-09
3.01888e-07
9.39483e-09
3.0201e-07
8.95881e-09
3.02134e-07
8.51907e-09
3.02261e-07
8.07239e-09
3.0239e-07
7.6171e-09
3.02521e-07
7.1509e-09
3.02656e-07
6.66899e-09
3.02793e-07
6.17331e-09
3.02932e-07
5.65099e-09
3.03073e-07
5.11389e-09
3.03212e-07
4.53729e-09
3.03351e-07
3.94987e-09
3.03476e-07
3.33137e-09
3.03595e-07
2.73451e-09
2.20014e-09
3.03707e-07
2.98848e-07
3.00623e-08
3.01836e-07
5.25354e-08
3.03106e-07
4.59328e-08
3.04109e-07
3.95009e-08
3.04974e-07
3.74309e-08
3.05541e-07
3.52783e-08
3.05936e-07
3.25175e-08
3.0628e-07
3.01614e-08
3.06587e-07
2.83372e-08
3.06853e-07
2.6781e-08
3.07088e-07
2.53751e-08
3.07302e-07
2.41085e-08
3.07499e-07
2.29707e-08
3.07682e-07
2.19398e-08
3.07853e-07
2.09958e-08
3.08015e-07
2.01248e-08
3.08168e-07
1.93163e-08
3.08315e-07
1.85618e-08
3.08455e-07
1.78543e-08
3.0859e-07
1.71878e-08
3.08721e-07
1.65571e-08
3.08848e-07
1.59579e-08
3.08972e-07
1.53865e-08
3.09093e-07
1.48393e-08
3.09213e-07
1.43133e-08
3.0933e-07
1.38056e-08
3.09446e-07
1.33137e-08
3.09562e-07
1.28352e-08
3.09677e-07
1.23681e-08
3.09793e-07
1.19105e-08
3.09909e-07
1.14606e-08
3.10026e-07
1.1017e-08
3.10144e-07
1.05777e-08
3.10264e-07
1.01416e-08
3.10386e-07
9.70637e-09
3.1051e-07
9.27093e-09
3.10636e-07
8.8327e-09
3.10765e-07
8.3903e-09
3.10896e-07
7.94108e-09
3.1103e-07
7.48277e-09
3.11168e-07
7.01373e-09
3.11308e-07
6.52884e-09
3.11451e-07
6.03e-09
3.11596e-07
5.50597e-09
3.11744e-07
4.96589e-09
3.1189e-07
4.39182e-09
3.12035e-07
3.80465e-09
3.1217e-07
3.19625e-09
3.12299e-07
2.60534e-09
2.07299e-09
3.12426e-07
3.07667e-07
2.71822e-08
3.10608e-07
4.95951e-08
3.11898e-07
4.46421e-08
3.12879e-07
3.85203e-08
3.13753e-07
3.65567e-08
3.14347e-07
3.46844e-08
3.14757e-07
3.21076e-08
3.15107e-07
2.98115e-08
3.1542e-07
2.80239e-08
3.15693e-07
2.65081e-08
3.15933e-07
2.5135e-08
3.16151e-07
2.38912e-08
3.16351e-07
2.27706e-08
3.16537e-07
2.17539e-08
3.16711e-07
2.0822e-08
3.16874e-07
1.99611e-08
3.1703e-07
1.9161e-08
3.17178e-07
1.84138e-08
3.17319e-07
1.77125e-08
3.17456e-07
1.70512e-08
3.17588e-07
1.6425e-08
3.17716e-07
1.58297e-08
3.17841e-07
1.52615e-08
3.17964e-07
1.4717e-08
3.18084e-07
1.41931e-08
3.18202e-07
1.36871e-08
3.1832e-07
1.31963e-08
3.18436e-07
1.27185e-08
3.18553e-07
1.22515e-08
3.1867e-07
1.17937e-08
3.18787e-07
1.13431e-08
3.18906e-07
1.08983e-08
3.19026e-07
1.04577e-08
3.19148e-07
1.00198e-08
3.19272e-07
9.58262e-09
3.19398e-07
9.14486e-09
3.19526e-07
8.70421e-09
3.19657e-07
8.25902e-09
3.19792e-07
7.80701e-09
3.19929e-07
7.34559e-09
3.20069e-07
6.87344e-09
3.20212e-07
6.38553e-09
3.20359e-07
5.88335e-09
3.20507e-07
5.35748e-09
3.20659e-07
4.81459e-09
3.20808e-07
4.24233e-09
3.20957e-07
3.65576e-09
3.21099e-07
3.0548e-09
3.21235e-07
2.46855e-09
1.93489e-09
3.21373e-07
3.16778e-07
2.45559e-08
3.19658e-07
4.67141e-08
3.20976e-07
4.3325e-08
3.21934e-07
3.75614e-08
3.22813e-07
3.56785e-08
3.23433e-07
3.40638e-08
3.23859e-07
3.16821e-08
3.24215e-07
2.94548e-08
3.24535e-07
2.77039e-08
3.24815e-07
2.62283e-08
3.25061e-07
2.48895e-08
3.25282e-07
2.36697e-08
3.25486e-07
2.2567e-08
3.25675e-07
2.15651e-08
3.25851e-07
2.06456e-08
3.26017e-07
1.97951e-08
3.26174e-07
1.90039e-08
3.26324e-07
1.82641e-08
3.26467e-07
1.75691e-08
3.26605e-07
1.69132e-08
3.26739e-07
1.62916e-08
3.26868e-07
1.57002e-08
3.26994e-07
1.51353e-08
3.27118e-07
1.45935e-08
3.27239e-07
1.40718e-08
3.27359e-07
1.35675e-08
3.27477e-07
1.30778e-08
3.27595e-07
1.26006e-08
3.27713e-07
1.21338e-08
3.27831e-07
1.16756e-08
3.2795e-07
1.12243e-08
3.2807e-07
1.07784e-08
3.28191e-07
1.03363e-08
3.28314e-07
9.89651e-09
3.2844e-07
9.45731e-09
3.28567e-07
9.01715e-09
3.28698e-07
8.57398e-09
3.28831e-07
8.12594e-09
3.28967e-07
7.67102e-09
3.29106e-07
7.20644e-09
3.29248e-07
6.73106e-09
3.29394e-07
6.24012e-09
3.29542e-07
5.73455e-09
3.29693e-07
5.20675e-09
3.29847e-07
4.66125e-09
3.29999e-07
4.09014e-09
3.3015e-07
3.50434e-09
3.30296e-07
2.9086e-09
3.30439e-07
2.32552e-09
1.78812e-09
3.30586e-07
3.26188e-07
2.21707e-08
3.28998e-07
4.39034e-08
3.30346e-07
4.19774e-08
3.31285e-07
3.66229e-08
3.32162e-07
3.48013e-08
3.32808e-07
3.34179e-08
3.3325e-07
3.12393e-08
3.33614e-07
2.9091e-08
3.33941e-07
2.73774e-08
3.34228e-07
2.59416e-08
3.34479e-07
2.46383e-08
3.34705e-07
2.34438e-08
3.34912e-07
2.23597e-08
3.35104e-07
2.1373e-08
3.35283e-07
2.04664e-08
3.35452e-07
1.96267e-08
3.35611e-07
1.88445e-08
3.35763e-07
1.81124e-08
3.35908e-07
1.74239e-08
3.36047e-07
1.67735e-08
3.36182e-07
1.61567e-08
3.36313e-07
1.55693e-08
3.36441e-07
1.50078e-08
3.36565e-07
1.44688e-08
3.36688e-07
1.39494e-08
3.36809e-07
1.34466e-08
3.36928e-07
1.29581e-08
3.37048e-07
1.24815e-08
3.37166e-07
1.20148e-08
3.37286e-07
1.15563e-08
3.37406e-07
1.11042e-08
3.37527e-07