/*--------------------------------*- C++ -*----------------------------------*\
  =========                 |
  \\      /  F ield         | OpenFOAM: The Open Source CFD Toolbox
   \\    /   O peration     | Website:  https://openfoam.org
    \\  /    A nd           | Version:  7
     \\/     M anipulation  |
\*---------------------------------------------------------------------------*/
FoamFile
{
    version     2.0;
    format      ascii;
    class       surfaceScalarField;
    location    "0.16";
    object      phi_0;
}
// * * * * * * * * * * * * * * * * * * * * * * * * * * * * * * * * * * * * * //

dimensions      [0 3 -1 0 0 0 0];

internalField   nonuniform List<scalar> 
139350
(
6.45136e-08
9.21179e-08
3.19685e-08
3.2545e-08
2.30661e-08
8.90247e-09
1.95842e-08
3.48189e-09
1.76351e-08
1.94904e-09
1.62078e-08
1.42737e-09
1.50776e-08
1.13018e-09
1.41679e-08
9.0968e-10
1.34201e-08
7.47846e-10
1.27907e-08
6.29321e-10
1.22512e-08
5.39562e-10
1.17821e-08
4.691e-10
1.13697e-08
4.12331e-10
1.1004e-08
3.65735e-10
1.06771e-08
3.26907e-10
1.0383e-08
2.94131e-10
1.01168e-08
2.66144e-10
9.87483e-09
2.42003e-10
9.65384e-09
2.20987e-10
9.4513e-09
2.0254e-10
9.26507e-09
1.86224e-10
9.09338e-09
1.71692e-10
8.93472e-09
1.58662e-10
8.78781e-09
1.46907e-10
8.65157e-09
1.36238e-10
8.52508e-09
1.26497e-10
8.40753e-09
1.17552e-10
8.29824e-09
1.09291e-10
8.19662e-09
1.01613e-10
8.10218e-09
9.44429e-11
8.01449e-09
8.76911e-11
7.93317e-09
8.13173e-11
7.85795e-09
7.52228e-11
7.78853e-09
6.94168e-11
7.72477e-09
6.3757e-11
7.66644e-09
5.83324e-11
7.61352e-09
5.29169e-11
7.56583e-09
4.7699e-11
7.52344e-09
4.23854e-11
7.48631e-09
3.7134e-11
7.45438e-09
3.1931e-11
7.42828e-09
2.60957e-11
7.40674e-09
2.15423e-11
7.39328e-09
1.34572e-11
7.38133e-09
1.1952e-11
7.38564e-09
-4.30694e-12
7.37692e-09
8.71393e-12
7.43243e-09
-5.55071e-11
7.24916e-09
1.83267e-10
-3.361e-09
1.06102e-08
1.25945e-07
1.27616e-07
9.1297e-08
6.71933e-08
7.19513e-08
2.82481e-08
6.12436e-08
1.41896e-08
5.48152e-08
8.37752e-09
5.03281e-08
5.91447e-09
4.68512e-08
4.60703e-09
4.40453e-08
3.71555e-09
4.17297e-08
3.06345e-09
3.9779e-08
2.58005e-09
3.81061e-08
2.21251e-09
3.6651e-08
1.92418e-09
3.53712e-08
1.69209e-09
3.42353e-08
1.50165e-09
3.32193e-08
1.34296e-09
3.23044e-08
1.209e-09
3.14759e-08
1.09461e-09
3.0722e-08
9.95949e-10
3.00329e-08
9.10071e-10
2.94007e-08
8.34708e-10
2.88189e-08
7.68075e-10
2.82818e-08
7.08754e-10
2.77849e-08
6.556e-10
2.73241e-08
6.07681e-10
2.68961e-08
5.64229e-10
2.6498e-08
5.24601e-10
2.61273e-08
4.88256e-10
2.57819e-08
4.54737e-10
2.54598e-08
4.23642e-10
2.51596e-08
3.94643e-10
2.48799e-08
3.67409e-10
2.46195e-08
3.41727e-10
2.43775e-08
3.17268e-10
2.41529e-08
2.9397e-10
2.39453e-08
2.71382e-10
2.37539e-08
2.49718e-10
2.35786e-08
2.28187e-10
2.34188e-08
2.07538e-10
2.32749e-08
1.86278e-10
2.3146e-08
1.66051e-10
2.30336e-08
1.44331e-10
2.2936e-08
1.23636e-10
2.28564e-08
1.01178e-10
2.27924e-08
7.74963e-11
2.27477e-08
5.66306e-11
2.27246e-08
1.8775e-11
2.27102e-08
2.3067e-11
2.27927e-08
-1.37972e-10
2.2675e-08
3.00937e-10
-4.16293e-09
2.3477e-08
1.58754e-07
1.35266e-07
1.36534e-07
8.9413e-08
1.1751e-07
4.72721e-08
1.03345e-07
2.83551e-08
9.33637e-08
1.83586e-08
8.60772e-08
1.3201e-08
8.03839e-08
1.03003e-08
7.57472e-08
8.35221e-09
7.18847e-08
6.92594e-09
6.86088e-08
5.85598e-09
6.57862e-08
5.03515e-09
6.33222e-08
4.38813e-09
6.11486e-08
3.86573e-09
5.92142e-08
3.43599e-09
5.74801e-08
3.07713e-09
5.59154e-08
2.77362e-09
5.4496e-08
2.51407e-09
5.3202e-08
2.2899e-09
5.20175e-08
2.09458e-09
5.09292e-08
1.92303e-09
4.9926e-08
1.77125e-09
4.89987e-08
1.63608e-09
4.81394e-08
1.51492e-09
4.73414e-08
1.4057e-09
4.65989e-08
1.30667e-09
4.59071e-08
1.21639e-09
4.52618e-08
1.13363e-09
4.46591e-08
1.05736e-09
4.40961e-08
9.86684e-10
4.35699e-08
9.20832e-10
4.30782e-08
8.59095e-10
4.2619e-08
8.00941e-10
4.21906e-08
7.45699e-10
4.17914e-08
6.93125e-10
4.14205e-08
6.42343e-10
4.10765e-08
5.93671e-10
4.07592e-08
5.45491e-10
4.04673e-08
4.99398e-10
4.02017e-08
4.51885e-10
3.99604e-08
4.07387e-10
3.97465e-08
3.58249e-10
3.95556e-08
3.14543e-10
3.93957e-08
2.61054e-10
3.9257e-08
2.16212e-10
3.91562e-08
1.57375e-10
3.90775e-08
9.75405e-11
3.90369e-08
6.3668e-11
3.90805e-08
-1.81585e-10
3.9107e-08
2.74392e-10
-4.0166e-09
3.89607e-08
1.75612e-07
1.31169e-07
1.65629e-07
9.9396e-08
1.5275e-07
6.01513e-08
1.40154e-07
4.09514e-08
1.29489e-07
2.90236e-08
1.20867e-07
2.18231e-08
1.13772e-07
1.73946e-08
1.0781e-07
1.43142e-08
1.0273e-07
1.20063e-08
9.83488e-08
1.02373e-08
9.45266e-08
8.85728e-09
9.11583e-08
7.75648e-09
8.81641e-08
6.85997e-09
8.54827e-08
6.1174e-09
8.3066e-08
5.49379e-09
8.08757e-08
4.9639e-09
7.88808e-08
4.50895e-09
7.7056e-08
4.11471e-09
7.53804e-08
3.77023e-09
7.38364e-08
3.46696e-09
7.24096e-08
3.1981e-09
7.10874e-08
2.95825e-09
6.98594e-08
2.74298e-09
6.87164e-08
2.5487e-09
6.76506e-08
2.37241e-09
6.66554e-08
2.2116e-09
6.57249e-08
2.06416e-09
6.4854e-08
1.92827e-09
6.40383e-08
1.80237e-09
6.3274e-08
1.68511e-09
6.25578e-08
1.57528e-09
6.18869e-08
1.47191e-09
6.12587e-08
1.37387e-09
6.06712e-08
1.28066e-09
6.01226e-08
1.19087e-09
5.96114e-08
1.10487e-09
5.91369e-08
1.02007e-09
5.86972e-08
9.39024e-10
5.82934e-08
8.55744e-10
5.79226e-08
7.78141e-10
5.75888e-08
6.92026e-10
5.72862e-08
6.17223e-10
5.70249e-08
5.22289e-10
5.67919e-08
4.49284e-10
5.66092e-08
3.40068e-10
5.64541e-08
2.5261e-10
5.63555e-08
1.62291e-10
5.6329e-08
-1.55092e-10
5.63952e-08
2.08167e-10
-3.64196e-09
5.60206e-08
1.84511e-07
1.23444e-07
1.82345e-07
1.01562e-07
1.76132e-07
6.63637e-08
1.67786e-07
4.92972e-08
1.59182e-07
3.76278e-08
1.51295e-07
2.97107e-08
1.44242e-07
2.44472e-08
1.37964e-07
2.05927e-08
1.32386e-07
1.7584e-08
1.27424e-07
1.51987e-08
1.22994e-07
1.32881e-08
1.19017e-07
1.17331e-08
1.1543e-07
1.04469e-08
1.12179e-07
9.36806e-09
1.0922e-07
8.45272e-09
1.06516e-07
7.66824e-09
1.04035e-07
6.98981e-09
1.01752e-07
6.3983e-09
9.96432e-08
5.87871e-09
9.7691e-08
5.41919e-09
9.58789e-08
5.01023e-09
9.4193e-08
4.64413e-09
9.26214e-08
4.31461e-09
9.11536e-08
4.01647e-09
8.97806e-08
3.74538e-09
8.84946e-08
3.49766e-09
8.72885e-08
3.27021e-09
8.61564e-08
3.06036e-09
8.5093e-08
2.86579e-09
8.40936e-08
2.6845e-09
8.31542e-08
2.51469e-09
8.22712e-08
2.35486e-09
8.14417e-08
2.20339e-09
8.06629e-08
2.05944e-09
7.99328e-08
1.92101e-09
7.92492e-08
1.78849e-09
7.8611e-08
1.65821e-09
7.80164e-08
1.5337e-09
7.74657e-08
1.40639e-09
7.69562e-08
1.28766e-09
7.64915e-08
1.15671e-09
7.60657e-08
1.04301e-09
7.56888e-08
8.9918e-10
7.53483e-08
7.89778e-10
7.50646e-08
6.23837e-10
7.48189e-08
4.98308e-10
7.46355e-08
3.45628e-10
7.45269e-08
-4.64887e-11
7.45369e-08
1.98161e-10
-3.19617e-09
7.40911e-08
1.90343e-07
1.15317e-07
1.91862e-07
1.00043e-07
1.90271e-07
6.79548e-08
1.86175e-07
5.33931e-08
1.8075e-07
4.30534e-08
1.75015e-07
3.54458e-08
1.69337e-07
3.01243e-08
1.63875e-07
2.60554e-08
1.58723e-07
2.27355e-08
1.53924e-07
1.99975e-08
1.49481e-07
1.77317e-08
1.45376e-07
1.5838e-08
1.41586e-07
1.4237e-08
1.38084e-07
1.28696e-08
1.34845e-07
1.16917e-08
1.31845e-07
1.0669e-08
1.2906e-07
9.77481e-09
1.2647e-07
8.98777e-09
1.24058e-07
8.29074e-09
1.21807e-07
7.66987e-09
1.19704e-07
7.11385e-09
1.17735e-07
6.61337e-09
1.15888e-07
6.16072e-09
1.14155e-07
5.74944e-09
1.12527e-07
5.37407e-09
1.10994e-07
5.02997e-09
1.09551e-07
4.71314e-09
1.08192e-07
4.42014e-09
1.0691e-07
4.14794e-09
1.057e-07
3.89391e-09
1.04559e-07
3.65568e-09
1.03483e-07
3.43124e-09
1.02468e-07
3.21848e-09
1.01511e-07
3.01616e-09
1.0061e-07
2.82174e-09
9.97632e-08
2.63555e-09
9.89684e-08
2.45295e-09
9.82239e-08
2.2782e-09
9.75298e-08
2.10047e-09
9.68835e-08
1.934e-09
9.62878e-08
1.75245e-09
9.57378e-08
1.59294e-09
9.52414e-08
1.39565e-09
9.47898e-08
1.24137e-09
9.43965e-08
1.01712e-09
9.4054e-08
8.40836e-10
9.37716e-08
6.28025e-10
9.3572e-08
1.53076e-10
9.34901e-08
2.80085e-10
-2.67432e-09
9.29682e-08
1.95505e-07
1.07627e-07
1.9825e-07
9.72978e-08
1.98993e-07
6.72121e-08
1.97805e-07
5.45803e-08
1.95182e-07
4.56772e-08
1.91856e-07
3.87715e-08
1.88141e-07
3.38391e-08
1.8421e-07
2.99867e-08
1.80212e-07
2.67335e-08
1.76257e-07
2.39524e-08
1.72413e-07
2.15759e-08
1.68718e-07
1.9533e-08
1.65192e-07
1.77625e-08
1.61844e-07
1.62174e-08
1.58675e-07
1.4861e-08
1.5568e-07
1.36639e-08
1.52853e-07
1.26021e-08
1.50185e-07
1.16556e-08
1.47668e-07
1.08081e-08
1.45292e-07
1.00458e-08
1.43049e-07
9.3571e-09
1.4093e-07
8.73241e-09
1.38927e-07
8.1635e-09
1.37033e-07
7.64338e-09
1.35241e-07
7.16607e-09
1.33544e-07
6.72636e-09
1.31938e-07
6.31975e-09
1.30416e-07
5.94225e-09
1.28973e-07
5.59038e-09
1.27606e-07
5.26103e-09
1.2631e-07
4.9514e-09
1.25083e-07
4.65905e-09
1.2392e-07
4.38148e-09
1.22819e-07
4.11712e-09
1.21777e-07
3.86296e-09
1.20794e-07
3.6192e-09
1.19866e-07
3.38044e-09
1.18993e-07
3.15139e-09
1.18174e-07
2.91954e-09
1.17407e-07
2.70099e-09
1.16694e-07
2.46563e-09
1.16032e-07
2.25521e-09
1.15425e-07
2.00265e-09
1.1487e-07
1.79635e-09
1.14372e-07
1.51521e-09
1.13935e-07
1.27718e-09
1.13555e-07
1.00828e-09
1.13259e-07
4.48753e-10
1.13081e-07
4.58706e-10
-2.0767e-09
1.12483e-07
2.0082e-07
1.00392e-07
2.03775e-07
9.43433e-08
2.05352e-07
6.56349e-08
2.05659e-07
5.42735e-08
2.04836e-07
4.64995e-08
2.03368e-07
4.02398e-08
2.01434e-07
3.57728e-08
1.9912e-07
3.23007e-08
1.96533e-07
2.93211e-08
1.93774e-07
2.67113e-08
1.90924e-07
2.44257e-08
1.88043e-07
2.24138e-08
1.85176e-07
2.06301e-08
1.82353e-07
1.90399e-08
1.79598e-07
1.76162e-08
1.76925e-07
1.63372e-08
1.74342e-07
1.51843e-08
1.71856e-07
1.41417e-08
1.69469e-07
1.31956e-08
1.6718e-07
1.23346e-08
1.64989e-07
1.15483e-08
1.62893e-07
1.08282e-08
1.6089e-07
1.01666e-08
1.58976e-07
9.55687e-09
1.57149e-07
8.99329e-09
1.55405e-07
8.47068e-09
1.5374e-07
7.98454e-09
1.52152e-07
7.53077e-09
1.50636e-07
7.10578e-09
1.49191e-07
6.70625e-09
1.47813e-07
6.32919e-09
1.465e-07
5.97194e-09
1.4525e-07
5.63177e-09
1.4406e-07
5.30688e-09
1.42929e-07
4.99396e-09
1.41855e-07
4.69309e-09
1.40837e-07
4.39834e-09
1.39874e-07
4.11463e-09
1.38965e-07
3.82842e-09
1.3811e-07
3.55666e-09
1.37308e-07
3.26734e-09
1.36559e-07
3.00376e-09
1.35865e-07
2.69682e-09
1.35227e-07
2.43425e-09
1.34643e-07
2.09942e-09
1.34127e-07
1.79335e-09
1.33664e-07
1.47132e-09
1.33278e-07
8.34249e-10
1.3301e-07
7.2719e-10
-1.42288e-09
1.32356e-07
2.06424e-07
9.35003e-08
2.09335e-07
9.14323e-08
2.11063e-07
6.39064e-08
2.11949e-07
5.33878e-08
2.12019e-07
4.64294e-08
2.11643e-07
4.06156e-08
2.10925e-07
3.64907e-08
2.09868e-07
3.33578e-08
2.08511e-07
3.06785e-08
2.06911e-07
2.83108e-08
2.05125e-07
2.6212e-08
2.03201e-07
2.43379e-08
2.01181e-07
2.26497e-08
1.99102e-07
2.11192e-08
1.96992e-07
1.9726e-08
1.94875e-07
1.84539e-08
1.9277e-07
1.72896e-08
1.90691e-07
1.62212e-08
1.88648e-07
1.52387e-08
1.86649e-07
1.4333e-08
1.84701e-07
1.34965e-08
1.82807e-07
1.27219e-08
1.80971e-07
1.20032e-08
1.79193e-07
1.13348e-08
1.77474e-07
1.07116e-08
1.75816e-07
1.01291e-08
1.74217e-07
9.58338e-09
1.72677e-07
9.07057e-09
1.71196e-07
8.58733e-09
1.69772e-07
8.13048e-09
1.68404e-07
7.69711e-09
1.67091e-07
7.28458e-09
1.65833e-07
6.89012e-09
1.64628e-07
6.51189e-09
1.63475e-07
6.14645e-09
1.62374e-07
5.79382e-09
1.61325e-07
5.44781e-09
1.60326e-07
5.11337e-09
1.59378e-07
4.77652e-09
1.58481e-07
4.45421e-09
1.57634e-07
4.11425e-09
1.56839e-07
3.7988e-09
1.56094e-07
3.4412e-09
1.55407e-07
3.12197e-09
1.54768e-07
2.73814e-09
1.54198e-07
2.36342e-09
1.53678e-07
1.99063e-09
1.53223e-07
1.28944e-09
1.52882e-07
1.06882e-09
-7.40667e-10
1.52199e-07
2.1227e-07
8.68929e-08
2.15143e-07
8.85586e-08
2.16818e-07
6.22316e-08
2.17864e-07
5.23425e-08
2.18278e-07
4.60145e-08
2.18404e-07
4.04904e-08
2.18338e-07
3.65565e-08
2.1805e-07
3.36459e-08
2.17533e-07
3.11951e-08
2.16807e-07
2.90371e-08
2.15895e-07
2.7124e-08
2.14822e-07
2.54107e-08
2.13614e-07
2.38577e-08
2.12296e-07
2.24371e-08
2.10892e-07
2.11302e-08
2.09423e-07
1.99233e-08
2.07907e-07
1.88053e-08
2.06361e-07
1.77672e-08
2.04798e-07
1.68013e-08
2.03231e-07
1.59008e-08
2.01667e-07
1.50597e-08
2.00117e-07
1.42728e-08
1.98585e-07
1.35352e-08
1.97077e-07
1.28427e-08
1.95597e-07
1.21912e-08
1.94149e-07
1.15772e-08
1.92735e-07
1.09973e-08
1.91357e-07
1.04483e-08
1.90017e-07
9.92727e-09
1.88716e-07
9.43149e-09
1.87455e-07
8.95832e-09
1.86234e-07
8.50535e-09
1.85054e-07
8.06995e-09
1.83916e-07
7.6504e-09
1.82819e-07
7.24328e-09
1.81764e-07
6.84868e-09
1.80752e-07
6.46033e-09
1.79782e-07
6.08312e-09
1.78855e-07
5.70314e-09
1.77973e-07
5.3367e-09
1.77134e-07
4.95277e-09
1.76343e-07
4.59042e-09
1.75595e-07
4.18865e-09
1.74901e-07
3.81643e-09
1.74249e-07
3.38989e-09
1.73661e-07
2.95132e-09
1.73121e-07
2.53093e-09
1.72628e-07
1.78255e-09
1.7224e-07
1.45686e-09
-6.20437e-11
1.71561e-07
2.18316e-07
8.0558e-08
2.21193e-07
8.56813e-08
2.22791e-07
6.06333e-08
2.23865e-07
5.12687e-08
2.24388e-07
4.54911e-08
2.24691e-07
4.01878e-08
2.24901e-07
3.63466e-08
2.2499e-07
3.3557e-08
2.24937e-07
3.12476e-08
2.24744e-07
2.92306e-08
2.24414e-07
2.7454e-08
2.23953e-07
2.58713e-08
2.23371e-07
2.44398e-08
2.22679e-07
2.31294e-08
2.21889e-07
2.19202e-08
2.21014e-07
2.07978e-08
2.20068e-07
1.97516e-08
2.19062e-07
1.87729e-08
2.18009e-07
1.78549e-08
2.16917e-07
1.69919e-08
2.15798e-07
1.61788e-08
2.1466e-07
1.54115e-08
2.13509e-07
1.4686e-08
2.12352e-07
1.39991e-08
2.11196e-07
1.33475e-08
2.10045e-07
1.27283e-08
2.08903e-07
1.2139e-08
2.07775e-07
1.15768e-08
2.06663e-07
1.10395e-08
2.05569e-07
1.05247e-08
2.04497e-07
1.00302e-08
2.03449e-07
9.55386e-09
2.02426e-07
9.09331e-09
2.01429e-07
8.64706e-09
2.0046e-07
8.21181e-09
1.99521e-07
7.78777e-09
1.98613e-07
7.3688e-09
1.97736e-07
6.9596e-09
1.96893e-07
6.54678e-09
1.96084e-07
6.14548e-09
1.9531e-07
5.72689e-09
1.94575e-07
5.32556e-09
1.93875e-07
4.88836e-09
1.93221e-07
4.47028e-09
1.92602e-07
4.00881e-09
1.92038e-07
3.51551e-09
1.91517e-07
3.05231e-09
1.91024e-07
2.27494e-09
1.90624e-07
1.85755e-09
5.78914e-10
1.89983e-07
2.24549e-07
7.4502e-08
2.27453e-07
8.27778e-08
2.28987e-07
5.90989e-08
2.30068e-07
5.01875e-08
2.30633e-07
4.49269e-08
2.30984e-07
3.98366e-08
2.31283e-07
3.60471e-08
2.3152e-07
3.33203e-08
2.31675e-07
3.10921e-08
2.31748e-07
2.91578e-08
2.31738e-07
2.74647e-08
2.31642e-07
2.59673e-08
2.3146e-07
2.46214e-08
2.31194e-07
2.3395e-08
2.30849e-07
2.2266e-08
2.30427e-07
2.12189e-08
2.29937e-07
2.0242e-08
2.29384e-07
1.93261e-08
2.28775e-07
1.84641e-08
2.28116e-07
1.76502e-08
2.27416e-07
1.68795e-08
2.26679e-07
1.6148e-08
2.25913e-07
1.54523e-08
2.25122e-07
1.47894e-08
2.24314e-07
1.41564e-08
2.23491e-07
1.3551e-08
2.22659e-07
1.29709e-08
2.21822e-07
1.24138e-08
2.20984e-07
1.18779e-08
2.20147e-07
1.13612e-08
2.19316e-07
1.08616e-08
2.18492e-07
1.03776e-08
2.17678e-07
9.90679e-09
2.16877e-07
9.44806e-09
2.16091e-07
8.99823e-09
2.15321e-07
8.55762e-09
2.1457e-07
8.1203e-09
2.13839e-07
7.69075e-09
2.13129e-07
7.25634e-09
2.12444e-07
6.83069e-09
2.11783e-07
6.38792e-09
2.11151e-07
5.95718e-09
2.10545e-07
5.49441e-09
2.09976e-07
5.03981e-09
2.09432e-07
4.55199e-09
2.08932e-07
4.01585e-09
2.08468e-07
3.51627e-09
2.08016e-07
2.72738e-09
2.07638e-07
2.23522e-09
1.15026e-09
2.07067e-07
2.30975e-07
6.87327e-08
2.33914e-07
7.98392e-08
2.35391e-07
5.76213e-08
2.36481e-07
4.90979e-08
2.37078e-07
4.43296e-08
2.37445e-07
3.94702e-08
2.37766e-07
3.57257e-08
2.38049e-07
3.30374e-08
2.3828e-07
3.0861e-08
2.38462e-07
2.89761e-08
2.38596e-07
2.73304e-08
2.38681e-07
2.58822e-08
2.38714e-07
2.45882e-08
2.38694e-07
2.34153e-08
2.3862e-07
2.23405e-08
2.38491e-07
2.13472e-08
2.3831e-07
2.0423e-08
2.38079e-07
1.95578e-08
2.37799e-07
1.87438e-08
2.37474e-07
1.79748e-08
2.37108e-07
1.72456e-08
2.36704e-07
1.65519e-08
2.36267e-07
1.58902e-08
2.35798e-07
1.52574e-08
2.35304e-07
1.46509e-08
2.34787e-07
1.40681e-08
2.34251e-07
1.3507e-08
2.33699e-07
1.29656e-08
2.33135e-07
1.2442e-08
2.32562e-07
1.19344e-08
2.31982e-07
1.14412e-08
2.31399e-07
1.09607e-08
2.30815e-07
1.0491e-08
2.30232e-07
1.00309e-08
2.29653e-07
9.5775e-09
2.29079e-07
9.1311e-09
2.28514e-07
8.68606e-09
2.27958e-07
8.24647e-09
2.27413e-07
7.8007e-09
2.26884e-07
7.36055e-09
2.26368e-07
6.90351e-09
2.25872e-07
6.45293e-09
2.25393e-07
5.97406e-09
2.24939e-07
5.49297e-09
2.24504e-07
4.98711e-09
2.24099e-07
4.4209e-09
2.23723e-07
3.89236e-09
2.23344e-07
3.10706e-09
2.2302e-07
2.55861e-09
1.62634e-09
2.22544e-07
2.37602e-07
6.3256e-08
2.40579e-07
7.68612e-08
2.42e-07
5.62008e-08
2.43097e-07
4.80008e-08
2.43731e-07
4.36954e-08
2.44111e-07
3.90906e-08
2.44438e-07
3.53984e-08
2.44734e-07
3.27418e-08
2.44988e-07
3.06069e-08
2.45206e-07
2.87576e-08
2.45395e-07
2.71416e-08
2.45555e-07
2.57221e-08
2.45685e-07
2.4458e-08
2.45784e-07
2.33164e-08
2.45851e-07
2.22741e-08
2.45883e-07
2.13143e-08
2.45882e-07
2.04242e-08
2.45847e-07
1.95933e-08
2.45777e-07
1.88134e-08
2.45674e-07
1.80778e-08
2.45539e-07
1.73808e-08
2.45373e-07
1.67181e-08
2.45177e-07
1.60857e-08
2.44954e-07
1.54802e-08
2.44706e-07
1.48989e-08
2.44435e-07
1.43393e-08
2.44143e-07
1.3799e-08
2.43833e-07
1.3276e-08
2.43506e-07
1.27686e-08
2.43166e-07
1.22749e-08
2.42813e-07
1.17934e-08
2.42452e-07
1.13224e-08
2.42083e-07
1.086e-08
2.41709e-07
1.04052e-08
2.41331e-07
9.95515e-09
2.40952e-07
9.51012e-09
2.40573e-07
9.06473e-09
2.40197e-07
8.62258e-09
2.39825e-07
8.17313e-09
2.39459e-07
7.72616e-09
2.391e-07
7.26273e-09
2.38752e-07
6.80032e-09
2.38413e-07
6.31313e-09
2.38092e-07
5.81464e-09
2.37781e-07
5.29777e-09
2.37489e-07
4.7133e-09
2.37218e-07
4.16323e-09
2.36932e-07
3.39309e-09
2.36684e-07
2.80627e-09
1.99197e-09
2.36318e-07
2.44437e-07
5.80754e-08
2.47453e-07
7.38448e-08
2.48819e-07
5.48355e-08
2.49918e-07
4.69008e-08
2.50591e-07
4.30226e-08
2.50988e-07
3.86942e-08
2.5132e-07
3.50664e-08
2.51621e-07
3.24402e-08
2.51883e-07
3.03447e-08
2.52113e-07
2.8528e-08
2.52319e-07
2.69355e-08
2.52505e-07
2.5536e-08
2.52672e-07
2.4291e-08
2.5282e-07
2.31684e-08
2.52949e-07
2.21454e-08
2.53058e-07
2.12055e-08
2.53146e-07
2.03357e-08
2.53214e-07
1.95258e-08
2.5326e-07
1.87672e-08
2.53285e-07
1.80531e-08
2.53288e-07
1.73778e-08
2.53269e-07
1.67365e-08
2.5323e-07
1.61251e-08
2.5317e-07
1.554e-08
2.53091e-07
1.49783e-08
2.52993e-07
1.44372e-08
2.52877e-07
1.39144e-08
2.52746e-07
1.34076e-08
2.52599e-07
1.29151e-08
2.52439e-07
1.24349e-08
2.52267e-07
1.19653e-08
2.52085e-07
1.15049e-08
2.51893e-07
1.10516e-08
2.51694e-07
1.06045e-08
2.51489e-07
1.01606e-08
2.51279e-07
9.72022e-09
2.51065e-07
9.27824e-09
2.5085e-07
8.83761e-09
2.50634e-07
8.38898e-09
2.5042e-07
7.94e-09
2.50208e-07
7.47523e-09
2.50002e-07
7.00664e-09
2.49798e-07
6.51642e-09
2.49605e-07
6.00765e-09
2.49418e-07
5.48478e-09
2.4924e-07
4.89162e-09
2.49077e-07
4.32653e-09
2.48891e-07
3.57901e-09
2.48728e-07
2.96937e-09
2.24438e-09
2.48475e-07
2.51489e-07
5.31931e-08
2.54534e-07
7.08e-08
2.55855e-07
5.35145e-08
2.56952e-07
4.58034e-08
2.57663e-07
4.2312e-08
2.58079e-07
3.82782e-08
2.58417e-07
3.47282e-08
2.58724e-07
3.21329e-08
2.58992e-07
3.0077e-08
2.59227e-07
2.82934e-08
2.59439e-07
2.67236e-08
2.59633e-07
2.53415e-08
2.59812e-07
2.41117e-08
2.59978e-07
2.30031e-08
2.6013e-07
2.19932e-08
2.6027e-07
2.1066e-08
2.60396e-07
2.02088e-08
2.60511e-07
1.94115e-08
2.60612e-07
1.86657e-08
2.60701e-07
1.79647e-08
2.60776e-07
1.73026e-08
2.60838e-07
1.66746e-08
2.60886e-07
1.60765e-08
2.60922e-07
1.55048e-08
2.60944e-07
1.49561e-08
2.60953e-07
1.44278e-08
2.6095e-07
1.39172e-08
2.60936e-07
1.34222e-08
2.6091e-07
1.29407e-08
2.60874e-07
1.24708e-08
2.60829e-07
1.20108e-08
2.60775e-07
1.1559e-08
2.60713e-07
1.11135e-08
2.60644e-07
1.06733e-08
2.60569e-07
1.02354e-08
2.60489e-07
9.8e-09
2.60405e-07
9.36221e-09
2.60319e-07
8.92429e-09
2.60229e-07
8.47812e-09
2.6014e-07
8.02923e-09
2.6005e-07
7.56546e-09
2.59963e-07
7.0939e-09
2.59876e-07
6.60334e-09
2.59794e-07
6.08908e-09
2.59716e-07
5.56308e-09
2.5964e-07
4.96795e-09
2.59573e-07
4.39294e-09
2.59481e-07
3.67147e-09
2.59399e-07
3.05119e-09
2.39226e-09
2.59251e-07
2.58767e-07
4.86093e-08
2.61829e-07
6.77373e-08
2.63117e-07
5.22267e-08
2.64207e-07
4.47133e-08
2.64954e-07
4.15657e-08
2.65391e-07
3.78407e-08
2.65736e-07
3.43829e-08
2.6605e-07
3.18196e-08
2.66323e-07
2.98034e-08
2.66562e-07
2.80545e-08
2.66777e-07
2.65083e-08
2.66975e-07
2.51435e-08
2.67159e-07
2.39281e-08
2.6733e-07
2.28319e-08
2.67491e-07
2.18329e-08
2.67641e-07
2.09155e-08
2.67782e-07
2.00674e-08
2.67915e-07
1.92787e-08
2.6804e-07
1.85413e-08
2.68156e-07
1.78484e-08
2.68264e-07
1.71944e-08
2.68364e-07
1.65745e-08
2.68456e-07
1.59845e-08
2.6854e-07
1.54208e-08
2.68616e-07
1.48801e-08
2.68684e-07
1.43596e-08
2.68745e-07
1.38566e-08
2.68798e-07
1.3369e-08
2.68844e-07
1.28944e-08
2.68884e-07
1.24312e-08
2.68918e-07
1.19773e-08
2.68945e-07
1.15313e-08
2.68968e-07
1.1091e-08
2.68986e-07
1.06555e-08
2.68999e-07
1.02218e-08
2.69009e-07
9.78991e-09
2.69016e-07
9.35529e-09
2.69021e-07
8.91944e-09
2.69024e-07
8.47545e-09
2.69026e-07
8.02684e-09
2.69027e-07
7.5644e-09
2.6903e-07
7.09109e-09
2.69032e-07
6.6009e-09
2.69038e-07
6.08381e-09
2.69045e-07
5.55582e-09
2.6905e-07
4.96269e-09
2.69062e-07
4.38139e-09
2.69047e-07
3.6861e-09
2.69035e-07
3.06372e-09
2.45228e-09
2.68975e-07
2.66279e-07
4.43227e-08
2.69349e-07
6.46674e-08
2.70614e-07
5.09615e-08
2.71692e-07
4.36351e-08
2.72471e-07
4.07868e-08
2.72932e-07
3.73799e-08
2.73285e-07
3.40298e-08
2.73604e-07
3.15e-08
2.73884e-07
2.95235e-08
2.74128e-07
2.78109e-08
2.74347e-07
2.62897e-08
2.74547e-07
2.49427e-08
2.74733e-07
2.37419e-08
2.74907e-07
2.26581e-08
2.75071e-07
2.16696e-08
2.75225e-07
2.07611e-08
2.75372e-07
1.99209e-08
2.75511e-07
1.91393e-08
2.75644e-07
1.84083e-08
2.75771e-07
1.77214e-08
2.75892e-07
1.7073e-08
2.76008e-07
1.64585e-08
2.76119e-07
1.58736e-08
2.76225e-07
1.53148e-08
2.76327e-07
1.47789e-08
2.76423e-07
1.42629e-08
2.76516e-07
1.37643e-08
2.76604e-07
1.32808e-08
2.76688e-07
1.28101e-08
2.76769e-07
1.23504e-08
2.76846e-07
1.18998e-08
2.76921e-07
1.14568e-08
2.76993e-07
1.10193e-08
2.77062e-07
1.05861e-08
2.77129e-07
1.01545e-08
2.77195e-07
9.72421e-09
2.77259e-07
9.29109e-09
2.77323e-07
8.85592e-09
2.77385e-07
8.41291e-09
2.77448e-07
7.96382e-09
2.77511e-07
7.50189e-09
2.77575e-07
7.02691e-09
2.77639e-07
6.53658e-09
2.77705e-07
6.01781e-09
2.77773e-07
5.48787e-09
2.77837e-07
4.89857e-09
2.77905e-07
4.3134e-09
2.77949e-07
3.64213e-09
2.7799e-07
3.02298e-09
2.44442e-09
2.77998e-07
2.74034e-07
4.03304e-08
2.771e-07
6.16012e-08
2.78353e-07
4.97087e-08
2.79415e-07
4.25723e-08
2.80223e-07
3.99793e-08
2.80708e-07
3.68944e-08
2.8107e-07
3.36678e-08
2.81396e-07
3.11744e-08
2.81683e-07
2.9237e-08
2.81931e-07
2.75621e-08
2.82154e-07
2.60674e-08
2.82357e-07
2.47391e-08
2.82546e-07
2.35533e-08
2.82722e-07
2.24821e-08
2.82887e-07
2.15042e-08
2.83043e-07
2.06047e-08
2.83192e-07
1.97722e-08
2.83334e-07
1.89973e-08
2.8347e-07
1.82721e-08
2.83601e-07
1.75904e-08
2.83728e-07
1.69467e-08
2.8385e-07
1.63363e-08
2.83968e-07
1.57552e-08
2.84083e-07
1.51998e-08
2.84195e-07
1.4667e-08
2.84304e-07
1.41539e-08
2.84411e-07
1.36578e-08
2.84515e-07
1.31765e-08
2.84617e-07
1.27077e-08
2.84718e-07
1.22497e-08
2.84818e-07
1.18004e-08
2.84916e-07
1.13584e-08
2.85013e-07
1.09217e-08
2.85111e-07
1.0489e-08
2.85207e-07
1.00578e-08
2.85304e-07
9.62745e-09
2.85401e-07
9.1943e-09
2.85498e-07
8.75842e-09
2.85596e-07
8.31505e-09
2.85695e-07
7.86449e-09
2.85795e-07
7.40195e-09
2.85897e-07
6.92488e-09
2.86001e-07
6.43342e-09
2.86105e-07
5.91329e-09
2.86212e-07
5.38098e-09
2.86315e-07
4.79594e-09
2.8642e-07
4.20849e-09
2.86504e-07
3.55785e-09
2.86582e-07
2.94474e-09
2.38774e-09
2.86639e-07
2.8204e-07
3.66274e-08
2.85092e-07
5.85496e-08
2.86342e-07
4.84587e-08
2.87387e-07
4.15277e-08
2.88218e-07
3.91473e-08
2.8873e-07
3.63829e-08
2.89102e-07
3.3296e-08
2.89433e-07
3.08427e-08
2.89727e-07
2.89438e-08
2.89981e-07
2.73078e-08
2.90207e-07
2.58411e-08
2.90414e-07
2.45325e-08
2.90605e-07
2.33622e-08
2.90783e-07
2.23039e-08
2.9095e-07
2.1337e-08
2.91108e-07
2.04467e-08
2.91259e-07
1.9622e-08
2.91402e-07
1.88537e-08
2.9154e-07
1.81344e-08
2.91673e-07
1.74577e-08
2.91801e-07
1.68182e-08
2.91926e-07
1.62116e-08
2.92047e-07
1.56338e-08
2.92166e-07
1.50813e-08
2.92282e-07
1.4551e-08
2.92396e-07
1.40399e-08
2.92508e-07
1.35454e-08
2.92619e-07
1.30653e-08
2.92729e-07
1.25975e-08
2.92839e-07
1.214e-08
2.92949e-07
1.16909e-08
2.93058e-07
1.12489e-08
2.93168e-07
1.08118e-08
2.93279e-07
1.03784e-08
2.9339e-07
9.94643e-09
2.93503e-07
9.51487e-09
2.93616e-07
9.08055e-09
2.93732e-07
8.64296e-09
2.93849e-07
8.19817e-09
2.93968e-07
7.74533e-09
2.94089e-07
7.28113e-09
2.94212e-07
6.80154e-09
2.94338e-07
6.308e-09
2.94464e-07
5.78644e-09
2.94594e-07
5.25135e-09
2.9472e-07
4.67022e-09
2.94847e-07
4.0816e-09
2.94957e-07
3.44784e-09
2.9506e-07
2.84175e-09
2.29778e-09
2.9515e-07
2.90309e-07
3.32075e-08
2.93334e-07
5.5524e-08
2.9459e-07
4.72026e-08
2.95615e-07
4.05034e-08
2.96466e-07
3.8296e-08
2.97005e-07
3.58443e-08
2.97388e-07
3.2913e-08
2.97725e-07
3.0505e-08
2.98025e-07
2.86439e-08
2.98285e-07
2.70476e-08
2.98516e-07
2.56106e-08
2.98726e-07
2.43225e-08
2.9892e-07
2.31682e-08
2.991e-07
2.21234e-08
2.9927e-07
2.11678e-08
2.99429e-07
2.0287e-08
2.99581e-07
1.94703e-08
2.99726e-07
1.87089e-08
2.99865e-07
1.79954e-08
2.99999e-07
1.73237e-08
3.00129e-07
1.66886e-08
3.00255e-07
1.60857e-08
3.00377e-07
1.5511e-08
3.00498e-07
1.49612e-08
3.00615e-07
1.4433e-08
3.00732e-07
1.39237e-08
3.00847e-07
1.34305e-08
3.00961e-07
1.29513e-08
3.01074e-07
1.24839e-08
3.01188e-07
1.20264e-08
3.01302e-07
1.1577e-08
3.01416e-07
1.11342e-08
3.01532e-07
1.06962e-08
3.01649e-07
1.02615e-08
3.01767e-07
9.82807e-09
3.01887e-07
9.39468e-09
3.02009e-07
8.95851e-09
3.02134e-07
8.51858e-09
3.0226e-07
8.07165e-09
3.0239e-07
7.61604e-09
3.02521e-07
7.14945e-09
3.02656e-07
6.66702e-09
3.02793e-07
6.17071e-09
3.02932e-07
5.64757e-09
3.03074e-07
5.10947e-09
3.03213e-07
4.53161e-09
3.03352e-07
3.94263e-09
3.03477e-07
3.32215e-09
3.03596e-07
2.72292e-09
2.18564e-09
3.03708e-07
2.98848e-07
3.00623e-08
3.01836e-07
5.25354e-08
3.03106e-07
4.59327e-08
3.04109e-07
3.95007e-08
3.04974e-07
3.74307e-08
3.05541e-07
3.5278e-08
3.05936e-07
3.25173e-08
3.0628e-07
3.01613e-08
3.06587e-07
2.83373e-08
3.06853e-07
2.67811e-08
3.07088e-07
2.53754e-08
3.07302e-07
2.41089e-08
3.07499e-07
2.29712e-08
3.07682e-07
2.19403e-08
3.07853e-07
2.09964e-08
3.08015e-07
2.01254e-08
3.08168e-07
1.93169e-08
3.08315e-07
1.85625e-08
3.08455e-07
1.7855e-08
3.0859e-07
1.71885e-08
3.08721e-07
1.65578e-08
3.08848e-07
1.59586e-08
3.08972e-07
1.53872e-08
3.09093e-07
1.484e-08
3.09212e-07
1.43139e-08
3.0933e-07
1.38062e-08
3.09446e-07
1.33142e-08
3.09562e-07
1.28357e-08
3.09677e-07
1.23685e-08
3.09792e-07
1.19108e-08
3.09909e-07
1.14609e-08
3.10026e-07
1.10172e-08
3.10144e-07
1.05778e-08
3.10264e-07
1.01416e-08
3.10386e-07
9.7063e-09
3.1051e-07
9.27074e-09
3.10636e-07
8.83235e-09
3.10765e-07
8.38976e-09
3.10896e-07
7.94028e-09
3.1103e-07
7.48164e-09
3.11168e-07
7.01219e-09
3.11308e-07
6.52677e-09
3.11451e-07
6.02728e-09
3.11597e-07
5.50242e-09
3.11745e-07
4.96133e-09
3.1189e-07
4.38597e-09
3.12036e-07
3.79722e-09
3.12171e-07
3.18686e-09
3.123e-07
2.59361e-09
2.05842e-09
3.12428e-07
3.07667e-07
2.71822e-08
3.10608e-07
4.9595e-08
3.11898e-07
4.46419e-08
3.12879e-07
3.85201e-08
3.13753e-07
3.65564e-08
3.14347e-07
3.46841e-08
3.14757e-07
3.21074e-08
3.15107e-07
2.98113e-08
3.15421e-07
2.80239e-08
3.15693e-07
2.65082e-08
3.15934e-07
2.51353e-08
3.16151e-07
2.38916e-08
3.16351e-07
2.27711e-08
3.16537e-07
2.17545e-08
3.16711e-07
2.08226e-08
3.16874e-07
1.99617e-08
3.1703e-07
1.91618e-08
3.17178e-07
1.84146e-08
3.17319e-07
1.77132e-08
3.17456e-07
1.70519e-08
3.17588e-07
1.64258e-08
3.17716e-07
1.58304e-08
3.17841e-07
1.52622e-08
3.17963e-07
1.47177e-08
3.18083e-07
1.41938e-08
3.18202e-07
1.36877e-08
3.18319e-07
1.31969e-08
3.18436e-07
1.2719e-08
3.18553e-07
1.22519e-08
3.18669e-07
1.1794e-08
3.18787e-07
1.13433e-08
3.18906e-07
1.08985e-08
3.19026e-07
1.04578e-08
3.19147e-07
1.00198e-08
3.19271e-07
9.58252e-09
3.19397e-07
9.14463e-09
3.19526e-07
8.70382e-09
3.19657e-07
8.25842e-09
3.19791e-07
7.80615e-09
3.19929e-07
7.34439e-09
3.20069e-07
6.87182e-09
3.20212e-07
6.38337e-09
3.20359e-07
5.88051e-09
3.20508e-07
5.35381e-09
3.20659e-07
4.80988e-09
3.20809e-07
4.23632e-09
3.20958e-07
3.64818e-09
3.211e-07
3.04526e-09
3.21236e-07
2.4567e-09
1.92026e-09
3.21375e-07
3.16778e-07
2.45559e-08
3.19658e-07
4.67141e-08
3.20976e-07
4.33249e-08
3.21935e-07
3.75611e-08
3.22813e-07
3.56782e-08
3.23433e-07
3.40635e-08
3.23859e-07
3.16818e-08
3.24216e-07
2.94547e-08
3.24536e-07
2.77039e-08
3.24815e-07
2.62285e-08
3.25061e-07
2.48898e-08
3.25282e-07
2.36701e-08
3.25486e-07
2.25675e-08
3.25675e-07
2.15657e-08
3.25851e-07
2.06463e-08
3.26017e-07
1.97958e-08
3.26174e-07
1.90046e-08
3.26324e-07
1.82648e-08
3.26467e-07
1.75699e-08
3.26605e-07
1.6914e-08
3.26739e-07
1.62924e-08
3.26868e-07
1.5701e-08
3.26994e-07
1.51361e-08
3.27117e-07
1.45943e-08
3.27239e-07
1.40726e-08
3.27358e-07
1.35681e-08
3.27477e-07
1.30784e-08
3.27595e-07
1.26011e-08
3.27712e-07
1.21342e-08
3.2783e-07
1.16759e-08
3.27949e-07
1.12245e-08
3.28069e-07
1.07785e-08
3.28191e-07
1.03363e-08
3.28314e-07
9.89649e-09
3.28439e-07
9.45717e-09
3.28567e-07
9.01689e-09
3.28697e-07
8.57355e-09
3.2883e-07
8.12529e-09
3.28967e-07
7.6701e-09
3.29106e-07
7.20517e-09
3.29248e-07
6.72935e-09
3.29394e-07
6.23786e-09
3.29543e-07
5.73161e-09
3.29693e-07
5.20295e-09
3.29847e-07
4.65641e-09
3.29999e-07
4.08399e-09
3.30151e-07
3.49661e-09
3.30297e-07
2.89893e-09
3.3044e-07
2.31357e-09
1.77346e-09
3.30587e-07
3.26188e-07
2.21707e-08
3.28998e-07
4.39034e-08
3.30346e-07
4.19772e-08
3.31285e-07
3.66226e-08
3.32162e-07
3.4801e-08
3.32808e-07
3.34175e-08
3.33251e-07
3.1239e-08
3.33614e-07
2.90909e-08
3.33941e-07
2.73773e-08
3.34228e-07
2.59418e-08
3.34479e-07
2.46386e-08
3.34705e-07
2.34443e-08
3.34912e-07
2.23603e-08
3.35104e-07
2.13736e-08
3.35283e-07
2.04671e-08
3.35452e-07
1.96274e-08
3.35611e-07
1.88453e-08
3.35763e-07
1.81132e-08
3.35908e-07
1.74247e-08
3.36047e-07
1.67744e-08
3.36182e-07
1.61576e-08
3.36313e-07
1.55702e-08
3.3644e-07
1.50086e-08
3.36565e-07
1.44696e-08
3.36688e-07
1.39501e-08
3.36808e-07
1.34473e-08
3.36928e-07
1.29587e-08
3.37047e-07
1.2482e-08
3.37166e-07
1.20153e-08
3.37285e-07
1.15566e-08
3.37405e-07
1.11044e-08
3.37527e-07
1.06573e-08
3.37649e-07