/*--------------------------------*- C++ -*----------------------------------*\
  =========                 |
  \\      /  F ield         | OpenFOAM: The Open Source CFD Toolbox
   \\    /   O peration     | Website:  https://openfoam.org
    \\  /    A nd           | Version:  7
     \\/     M anipulation  |
\*---------------------------------------------------------------------------*/
FoamFile
{
    version     2.0;
    format      ascii;
    class       volVectorField;
    location    "0.16";
    object      vorticity;
}
// * * * * * * * * * * * * * * * * * * * * * * * * * * * * * * * * * * * * * //

dimensions      [0 0 -1 0 0 0 0];

internalField   nonuniform List<vector> 
70000
(
(0 -0 -45716.2)
(0 -0 -28618.6)
(0 -0 -20915.8)
(0 -0 -16984.2)
(0 -0 -14964.8)
(0 -0 -13659.8)
(0 -0 -12652.4)
(0 -0 -11842.1)
(0 -0 -11180.6)
(0 -0 -10629.2)
(0 -0 -10159.8)
(0 -0 -9753.88)
(0 -0 -9398.58)
(0 -0 -9084.51)
(0 -0 -8804.58)
(0 -0 -8553.3)
(0 -0 -8326.37)
(0 -0 -8120.35)
(0 -0 -7932.46)
(0 -0 -7760.42)
(0 -0 -7602.34)
(0 -0 -7456.65)
(0 -0 -7322.04)
(0 -0 -7197.39)
(0 -0 -7081.73)
(0 -0 -6974.27)
(0 -0 -6874.29)
(0 -0 -6781.2)
(0 -0 -6694.48)
(0 -0 -6613.69)
(0 -0 -6538.45)
(0 -0 -6468.41)
(0 -0 -6403.35)
(0 -0 -6342.97)
(0 -0 -6287.14)
(0 -0 -6235.67)
(0 -0 -6188.42)
(0 -0 -6145.47)
(0 -0 -6106.33)
(0 -0 -6071.97)
(0 -0 -6040.36)
(0 -0 -6015.55)
(0 -0 -5990.17)
(0 -0 -5977.91)
(0 -0 -5955.1)
(0 -0 -5963.34)
(0 -0 -5933.38)
(0 -0 -5979.21)
(0 -0 -5949.26)
(0 -0 -5786.35)
(0 -0 -13549.6)
(0 -0 -19947.4)
(0 -0 -18537)
(0 -0 -16251.5)
(0 -0 -14506.9)
(0 -0 -13284.4)
(0 -0 -12357.8)
(0 -0 -11609.5)
(0 -0 -10989)
(0 -0 -10465.7)
(0 -0 -10017.3)
(0 -0 -9627.61)
(0 -0 -9285.04)
(0 -0 -8981.08)
(0 -0 -8709.26)
(0 -0 -8464.54)
(0 -0 -8242.93)
(0 -0 -8041.22)
(0 -0 -7856.82)
(0 -0 -7687.57)
(0 -0 -7531.7)
(0 -0 -7387.72)
(0 -0 -7254.35)
(0 -0 -7130.54)
(0 -0 -7015.36)
(0 -0 -6908.02)
(0 -0 -6807.86)
(0 -0 -6714.27)
(0 -0 -6626.75)
(0 -0 -6544.87)
(0 -0 -6468.25)
(0 -0 -6396.54)
(0 -0 -6329.49)
(0 -0 -6266.84)
(0 -0 -6208.4)
(0 -0 -6154)
(0 -0 -6103.48)
(0 -0 -6056.86)
(0 -0 -6013.74)
(0 -0 -5974.84)
(0 -0 -5938.58)
(0 -0 -5908.03)
(0 -0 -5877.63)
(0 -0 -5857.58)
(0 -0 -5830.48)
(0 -0 -5826.46)
(0 -0 -5796.79)
(0 -0 -5818.45)
(0 -0 -5792.52)
(0 -0 -5884.27)
(0 -0 -3818.72)
(0 -0 -10828.6)
(0 -0 -13363.1)
(0 -0 -13519.5)
(0 -0 -12866.9)
(0 -0 -12141.6)
(0 -0 -11501.1)
(0 -0 -10942)
(0 -0 -10451.6)
(0 -0 -10020.5)
(0 -0 -9640.14)
(0 -0 -9302.28)
(0 -0 -9000.21)
(0 -0 -8728.47)
(0 -0 -8482.68)
(0 -0 -8259.26)
(0 -0 -8055.25)
(0 -0 -7868.23)
(0 -0 -7696.15)
(0 -0 -7537.3)
(0 -0 -7390.24)
(0 -0 -7253.72)
(0 -0 -7126.7)
(0 -0 -7008.26)
(0 -0 -6897.6)
(0 -0 -6794.05)
(0 -0 -6697)
(0 -0 -6605.92)
(0 -0 -6520.37)
(0 -0 -6439.95)
(0 -0 -6364.29)
(0 -0 -6293.1)
(0 -0 -6226.12)
(0 -0 -6163.09)
(0 -0 -6103.85)
(0 -0 -6048.2)
(0 -0 -5995.99)
(0 -0 -5947.19)
(0 -0 -5901.49)
(0 -0 -5859.3)
(0 -0 -5819.62)
(0 -0 -5784.26)
(0 -0 -5749.93)
(0 -0 -5722.5)
(0 -0 -5692.15)
(0 -0 -5675.25)
(0 -0 -5646.84)
(0 -0 -5643.73)
(0 -0 -5619.9)
(0 -0 -5710.91)
(0 -0 -533.094)
(0 -0 -4662.41)
(0 -0 -7717.76)
(0 -0 -9327.5)
(0 -0 -9891.28)
(0 -0 -9956.94)
(0 -0 -9825.81)
(0 -0 -9614.64)
(0 -0 -9372.2)
(0 -0 -9123.13)
(0 -0 -8879.82)
(0 -0 -8647.84)
(0 -0 -8429.3)
(0 -0 -8224.63)
(0 -0 -8033.5)
(0 -0 -7855.18)
(0 -0 -7688.81)
(0 -0 -7533.5)
(0 -0 -7388.36)
(0 -0 -7252.55)
(0 -0 -7125.32)
(0 -0 -7005.96)
(0 -0 -6893.85)
(0 -0 -6788.4)
(0 -0 -6689.1)
(0 -0 -6595.48)
(0 -0 -6507.13)
(0 -0 -6423.66)
(0 -0 -6344.75)
(0 -0 -6270.08)
(0 -0 -6199.39)
(0 -0 -6132.43)
(0 -0 -6069.01)
(0 -0 -6008.9)
(0 -0 -5951.96)
(0 -0 -5898.03)
(0 -0 -5846.99)
(0 -0 -5798.73)
(0 -0 -5753.12)
(0 -0 -5710.21)
(0 -0 -5669.66)
(0 -0 -5631.96)
(0 -0 -5596.16)
(0 -0 -5563.76)
(0 -0 -5532.59)
(0 -0 -5505.43)
(0 -0 -5480.14)
(0 -0 -5455.8)
(0 -0 -5443.76)
(0 -0 -5453.17)
(0 -0 322.385)
(0 -0 -1444.46)
(0 -0 -3532.05)
(0 -0 -5257.99)
(0 -0 -6397.46)
(0 -0 -7071.85)
(0 -0 -7449.18)
(0 -0 -7639.91)
(0 -0 -7712.25)
(0 -0 -7710.4)
(0 -0 -7662.89)
(0 -0 -7587.78)
(0 -0 -7496.47)
(0 -0 -7396.23)
(0 -0 -7291.75)
(0 -0 -7186.07)
(0 -0 -7081.14)
(0 -0 -6978.21)
(0 -0 -6878.06)
(0 -0 -6781.17)
(0 -0 -6687.79)
(0 -0 -6598.03)
(0 -0 -6511.93)
(0 -0 -6429.43)
(0 -0 -6350.46)
(0 -0 -6274.9)
(0 -0 -6202.64)
(0 -0 -6133.54)
(0 -0 -6067.46)
(0 -0 -6004.28)
(0 -0 -5943.86)
(0 -0 -5886.08)
(0 -0 -5830.82)
(0 -0 -5777.98)
(0 -0 -5727.47)
(0 -0 -5679.16)
(0 -0 -5633.01)
(0 -0 -5588.89)
(0 -0 -5546.82)
(0 -0 -5506.59)
(0 -0 -5468.43)
(0 -0 -5431.74)
(0 -0 -5397.55)
(0 -0 -5363.81)
(0 -0 -5334.41)
(0 -0 -5301.73)
(0 -0 -5280.69)
(0 -0 -5242.6)
(0 -0 -5242.41)
(0 -0 -5200.24)
(0 -0 364.661)
(0 -0 -158.575)
(0 -0 -1181.27)
(0 -0 -2361.18)
(0 -0 -3415.89)
(0 -0 -4253.68)
(0 -0 -4888.08)
(0 -0 -5353.06)
(0 -0 -5683.73)
(0 -0 -5912.12)
(0 -0 -6064.49)
(0 -0 -6160.94)
(0 -0 -6216.36)
(0 -0 -6241.71)
(0 -0 -6245.03)
(0 -0 -6232.25)
(0 -0 -6207.75)
(0 -0 -6174.8)
(0 -0 -6135.81)
(0 -0 -6092.62)
(0 -0 -6046.61)
(0 -0 -5998.8)
(0 -0 -5949.99)
(0 -0 -5900.78)
(0 -0 -5851.6)
(0 -0 -5802.81)
(0 -0 -5754.65)
(0 -0 -5707.3)
(0 -0 -5660.91)
(0 -0 -5615.58)
(0 -0 -5571.36)
(0 -0 -5528.29)
(0 -0 -5486.42)
(0 -0 -5445.74)
(0 -0 -5406.26)
(0 -0 -5367.97)
(0 -0 -5330.89)
(0 -0 -5294.93)
(0 -0 -5260.24)
(0 -0 -5226.45)
(0 -0 -5194.21)
(0 -0 -5162.28)
(0 -0 -5132.87)
(0 -0 -5101.89)
(0 -0 -5076.65)
(0 -0 -5043.97)
(0 -0 -5027.31)
(0 -0 -4985.56)
(0 -0 -4988.77)
(0 -0 -4936.49)
(0 -0 253.992)
(0 -0 185.252)
(0 -0 -173.24)
(0 -0 -764.264)
(0 -0 -1446.64)
(0 -0 -2113.55)
(0 -0 -2717.78)
(0 -0 -3239.95)
(0 -0 -3676.02)
(0 -0 -4031.78)
(0 -0 -4317.53)
(0 -0 -4544.37)
(0 -0 -4722.62)
(0 -0 -4861.21)
(0 -0 -4967.66)
(0 -0 -5048.14)
(0 -0 -5107.67)
(0 -0 -5150.29)
(0 -0 -5179.28)
(0 -0 -5197.26)
(0 -0 -5206.37)
(0 -0 -5208.32)
(0 -0 -5204.49)
(0 -0 -5196.04)
(0 -0 -5183.86)
(0 -0 -5168.73)
(0 -0 -5151.25)
(0 -0 -5131.93)
(0 -0 -5111.18)
(0 -0 -5089.33)
(0 -0 -5066.67)
(0 -0 -5043.41)
(0 -0 -5019.75)
(0 -0 -4995.84)
(0 -0 -4971.8)
(0 -0 -4947.72)
(0 -0 -4923.73)
(0 -0 -4899.8)
(0 -0 -4876.17)
(0 -0 -4852.5)
(0 -0 -4829.57)
(0 -0 -4806)
(0 -0 -4784.36)
(0 -0 -4760.05)
(0 -0 -4741.19)
(0 -0 -4713.62)
(0 -0 -4701.53)
(0 -0 -4664.75)
(0 -0 -4666.33)
(0 -0 -4622.17)
(0 -0 178.72)
(0 -0 204.461)
(0 -0 130.627)
(0 -0 -85.094)
(0 -0 -417.395)
(0 -0 -813.788)
(0 -0 -1234.45)
(0 -0 -1650.56)
(0 -0 -2042.32)
(0 -0 -2398.8)
(0 -0 -2715.78)
(0 -0 -2993.18)
(0 -0 -3233.19)
(0 -0 -3439.11)
(0 -0 -3614.67)
(0 -0 -3763.6)
(0 -0 -3889.37)
(0 -0 -3995.18)
(0 -0 -4083.81)
(0 -0 -4157.71)
(0 -0 -4219.01)
(0 -0 -4269.51)
(0 -0 -4310.77)
(0 -0 -4344.13)
(0 -0 -4370.73)
(0 -0 -4391.52)
(0 -0 -4407.36)
(0 -0 -4418.93)
(0 -0 -4426.85)
(0 -0 -4431.63)
(0 -0 -4433.71)
(0 -0 -4433.47)
(0 -0 -4431.21)
(0 -0 -4427.23)
(0 -0 -4421.75)
(0 -0 -4414.96)
(0 -0 -4407.07)
(0 -0 -4398.15)
(0 -0 -4388.47)
(0 -0 -4377.83)
(0 -0 -4366.93)
(0 -0 -4354.63)
(0 -0 -4343.24)
(0 -0 -4328.72)
(0 -0 -4318.25)
(0 -0 -4299.54)
(0 -0 -4293.09)
(0 -0 -4266.16)
(0 -0 -4266.96)
(0 -0 -4234.88)
(0 -0 147.991)
(0 -0 164.575)
(0 -0 169.941)
(0 -0 120.96)
(0 -0 1.17762)
(0 -0 -180.255)
(0 -0 -407.94)
(0 -0 -665.54)
(0 -0 -937.257)
(0 -0 -1210.21)
(0 -0 -1475.2)
(0 -0 -1726.25)
(0 -0 -1959.85)
(0 -0 -2174.33)
(0 -0 -2369.3)
(0 -0 -2545.2)
(0 -0 -2702.99)
(0 -0 -2843.92)
(0 -0 -2969.35)
(0 -0 -3080.7)
(0 -0 -3179.32)
(0 -0 -3266.5)
(0 -0 -3343.44)
(0 -0 -3411.22)
(0 -0 -3470.83)
(0 -0 -3523.18)
(0 -0 -3569.05)
(0 -0 -3609.17)
(0 -0 -3644.14)
(0 -0 -3674.55)
(0 -0 -3700.86)
(0 -0 -3723.53)
(0 -0 -3742.93)
(0 -0 -3759.4)
(0 -0 -3773.21)
(0 -0 -3784.65)
(0 -0 -3793.93)
(0 -0 -3801.23)
(0 -0 -3806.8)
(0 -0 -3810.58)
(0 -0 -3813.15)
(0 -0 -3813.7)
(0 -0 -3814.05)
(0 -0 -3811.1)
(0 -0 -3810.47)
(0 -0 -3802.65)
(0 -0 -3803.29)
(0 -0 -3788.07)
(0 -0 -3791.02)
(0 -0 -3771.24)
(0 -0 136.795)
(0 -0 137.041)
(0 -0 148.697)
(0 -0 149.633)
(0 -0 122.183)
(0 -0 60.237)
(0 -0 -35.9841)
(0 -0 -162.805)
(0 -0 -313.873)
(0 -0 -481.889)
(0 -0 -659.956)
(0 -0 -842.178)
(0 -0 -1023.83)
(0 -0 -1201.33)
(0 -0 -1372.13)
(0 -0 -1534.54)
(0 -0 -1687.52)
(0 -0 -1830.57)
(0 -0 -1963.58)
(0 -0 -2086.66)
(0 -0 -2200.16)
(0 -0 -2304.52)
(0 -0 -2400.23)
(0 -0 -2487.86)
(0 -0 -2567.96)
(0 -0 -2641.09)
(0 -0 -2707.78)
(0 -0 -2768.55)
(0 -0 -2823.86)
(0 -0 -2874.17)
(0 -0 -2919.88)
(0 -0 -2961.38)
(0 -0 -2999)
(0 -0 -3033.06)
(0 -0 -3063.81)
(0 -0 -3091.55)
(0 -0 -3116.45)
(0 -0 -3138.75)
(0 -0 -3158.64)
(0 -0 -3176.18)
(0 -0 -3191.76)
(0 -0 -3204.92)
(0 -0 -3216.95)
(0 -0 -3225.64)
(0 -0 -3235.16)
(0 -0 -3238.5)
(0 -0 -3247.03)
(0 -0 -3243.51)
(0 -0 -3250.89)
(0 -0 -3242.78)
(0 -0 129.912)
(0 -0 123.968)
(0 -0 129.149)
(0 -0 136.34)
(0 -0 136.426)
(0 -0 123.191)
(0 -0 93.0159)
(0 -0 44.0752)
(0 -0 -23.4509)
(0 -0 -107.724)
(0 -0 -205.974)
(0 -0 -315.066)
(0 -0 -431.864)
(0 -0 -553.468)
(0 -0 -677.345)
(0 -0 -801.382)
(0 -0 -923.884)
(0 -0 -1043.54)
(0 -0 -1159.37)
(0 -0 -1270.67)
(0 -0 -1377)
(0 -0 -1478.08)
(0 -0 -1573.77)
(0 -0 -1664.05)
(0 -0 -1749.01)
(0 -0 -1828.76)
(0 -0 -1903.48)
(0 -0 -1973.38)
(0 -0 -2038.68)
(0 -0 -2099.61)
(0 -0 -2156.4)
(0 -0 -2209.27)
(0 -0 -2258.45)
(0 -0 -2304.15)
(0 -0 -2346.54)
(0 -0 -2385.85)
(0 -0 -2422.19)
(0 -0 -2455.77)
(0 -0 -2486.7)
(0 -0 -2515.09)
(0 -0 -2541.18)
(0 -0 -2564.69)
(0 -0 -2586.55)
(0 -0 -2605.16)
(0 -0 -2623.54)
(0 -0 -2636.69)
(0 -0 -2652.54)
(0 -0 -2659.36)
(0 -0 -2671.91)
(0 -0 -2674.02)
(0 -0 122.92)
(0 -0 116.613)
(0 -0 117.981)
(0 -0 122.452)
(0 -0 126.386)
(0 -0 126.853)
(0 -0 121.396)
(0 -0 107.729)
(0 -0 84.2261)
(0 -0 50.1923)
(0 -0 5.72843)
(0 -0 -48.4506)
(0 -0 -111.217)
(0 -0 -181.203)
(0 -0 -256.955)
(0 -0 -337.039)
(0 -0 -420.111)
(0 -0 -504.965)
(0 -0 -590.546)
(0 -0 -675.961)
(0 -0 -760.469)
(0 -0 -843.469)
(0 -0 -924.486)
(0 -0 -1003.16)
(0 -0 -1079.21)
(0 -0 -1152.46)
(0 -0 -1222.77)
(0 -0 -1290.09)
(0 -0 -1354.39)
(0 -0 -1415.67)
(0 -0 -1473.97)
(0 -0 -1529.35)
(0 -0 -1581.86)
(0 -0 -1631.59)
(0 -0 -1678.6)
(0 -0 -1723)
(0 -0 -1764.83)
(0 -0 -1804.21)
(0 -0 -1841.17)
(0 -0 -1875.79)
(0 -0 -1908.21)
(0 -0 -1938.2)
(0 -0 -1966.44)
(0 -0 -1991.74)
(0 -0 -2016.25)
(0 -0 -2036.45)
(0 -0 -2057.69)
(0 -0 -2072.26)
(0 -0 -2089.23)
(0 -0 -2099.19)
(0 -0 115.598)
(0 -0 110.379)
(0 -0 110.698)
(0 -0 113.134)
(0 -0 115.94)
(0 -0 118.192)
(0 -0 119.064)
(0 -0 117.362)
(0 -0 111.814)
(0 -0 101.376)
(0 -0 85.3328)
(0 -0 63.3191)
(0 -0 35.2851)
(0 -0 1.45412)
(0 -0 -37.7434)
(0 -0 -81.7357)
(0 -0 -129.868)
(0 -0 -181.451)
(0 -0 -235.797)
(0 -0 -292.247)
(0 -0 -350.187)
(0 -0 -409.061)
(0 -0 -468.37)
(0 -0 -527.68)
(0 -0 -586.617)
(0 -0 -644.862)
(0 -0 -702.153)
(0 -0 -758.273)
(0 -0 -813.048)
(0 -0 -866.342)
(0 -0 -918.048)
(0 -0 -968.091)
(0 -0 -1016.4)
(0 -0 -1062.96)
(0 -0 -1107.71)
(0 -0 -1150.66)
(0 -0 -1191.78)
(0 -0 -1231.09)
(0 -0 -1268.56)
(0 -0 -1304.2)
(0 -0 -1338.07)
(0 -0 -1369.97)
(0 -0 -1400.33)
(0 -0 -1428.3)
(0 -0 -1455.32)
(0 -0 -1479)
(0 -0 -1502.75)
(0 -0 -1521.77)
(0 -0 -1541.25)
(0 -0 -1556.1)
(0 -0 108.352)
(0 -0 104.16)
(0 -0 104.371)
(0 -0 106.077)
(0 -0 107.94)
(0 -0 109.644)
(0 -0 111.173)
(0 -0 112.183)
(0 -0 112.098)
(0 -0 110.292)
(0 -0 106.182)
(0 -0 99.2712)
(0 -0 89.1904)
(0 -0 75.7048)
(0 -0 58.723)
(0 -0 38.2748)
(0 -0 14.4944)
(0 -0 -12.4019)
(0 -0 -42.1408)
(0 -0 -74.4091)
(0 -0 -108.877)
(0 -0 -145.2)
(0 -0 -183.05)
(0 -0 -222.103)
(0 -0 -262.055)
(0 -0 -302.625)
(0 -0 -343.559)
(0 -0 -384.624)
(0 -0 -425.615)
(0 -0 -466.353)
(0 -0 -506.678)
(0 -0 -546.457)
(0 -0 -585.563)
(0 -0 -623.903)
(0 -0 -661.375)
(0 -0 -697.915)
(0 -0 -733.439)
(0 -0 -767.9)
(0 -0 -801.239)
(0 -0 -833.387)
(0 -0 -864.366)
(0 -0 -893.967)
(0 -0 -922.47)
(0 -0 -949.243)
(0 -0 -975.192)
(0 -0 -998.772)
(0 -0 -1021.99)
(0 -0 -1042.04)
(0 -0 -1061.66)
(0 -0 -1078.28)
(0 -0 101.371)
(0 -0 97.967)
(0 -0 98.1917)
(0 -0 99.6636)
(0 -0 101.172)
(0 -0 102.438)
(0 -0 103.656)
(0 -0 104.835)
(0 -0 105.804)
(0 -0 106.319)
(0 -0 106.101)
(0 -0 104.854)
(0 -0 102.291)
(0 -0 98.1593)
(0 -0 92.2512)
(0 -0 84.4187)
(0 -0 74.5726)
(0 -0 62.6805)
(0 -0 48.762)
(0 -0 32.8806)
(0 -0 15.1351)
(0 -0 -4.34628)
(0 -0 -25.4165)
(0 -0 -47.9147)
(0 -0 -71.6709)
(0 -0 -96.5156)
(0 -0 -122.276)
(0 -0 -148.79)
(0 -0 -175.899)
(0 -0 -203.455)
(0 -0 -231.317)
(0 -0 -259.358)
(0 -0 -287.455)
(0 -0 -315.502)
(0 -0 -343.392)
(0 -0 -371.036)
(0 -0 -398.34)
(0 -0 -425.226)
(0 -0 -451.622)
(0 -0 -477.432)
(0 -0 -502.645)
(0 -0 -527.073)
(0 -0 -550.87)
(0 -0 -573.593)
(0 -0 -595.759)
(0 -0 -616.425)
(0 -0 -636.661)
(0 -0 -654.939)
(0 -0 -672.549)
(0 -0 -688.314)
(0 -0 94.6932)
(0 -0 91.9155)
(0 -0 92.1284)
(0 -0 93.4513)
(0 -0 94.8279)
(0 -0 95.9211)
(0 -0 96.9144)
(0 -0 97.9061)
(0 -0 98.8684)
(0 -0 99.7344)
(0 -0 100.415)
(0 -0 100.796)
(0 -0 100.738)
(0 -0 100.097)
(0 -0 98.7271)
(0 -0 96.4958)
(0 -0 93.2879)
(0 -0 89.0102)
(0 -0 83.5954)
(0 -0 77.0003)
(0 -0 69.2093)
(0 -0 60.2227)
(0 -0 50.0721)
(0 -0 38.7975)
(0 -0 26.4564)
(0 -0 13.1173)
(0 -0 -1.14193)
(0 -0 -16.2384)
(0 -0 -32.0847)
(0 -0 -48.5931)
(0 -0 -65.6741)
(0 -0 -83.2418)
(0 -0 -101.209)
(0 -0 -119.493)
(0 -0 -138.013)
(0 -0 -156.691)
(0 -0 -175.451)
(0 -0 -194.217)
(0 -0 -212.927)
(0 -0 -231.488)
(0 -0 -249.877)
(0 -0 -267.945)
(0 -0 -285.762)
(0 -0 -303.04)
(0 -0 -320.035)
(0 -0 -336.213)
(0 -0 -352.072)
(0 -0 -366.847)
(0 -0 -381.051)
(0 -0 -394.209)
(0 -0 88.3152)
(0 -0 86.0577)
(0 -0 86.2521)
(0 -0 87.4252)
(0 -0 88.7034)
(0 -0 89.7174)
(0 -0 90.6045)
(0 -0 91.4684)
(0 -0 92.3131)
(0 -0 93.1237)
(0 -0 93.8844)
(0 -0 94.5667)
(0 -0 95.1256)
(0 -0 95.5033)
(0 -0 95.6331)
(0 -0 95.4434)
(0 -0 94.8615)
(0 -0 93.818)
(0 -0 92.2492)
(0 -0 90.0997)
(0 -0 87.324)
(0 -0 83.8889)
(0 -0 79.7689)
(0 -0 74.9534)
(0 -0 69.4403)
(0 -0 63.2394)
(0 -0 56.3649)
(0 -0 48.8445)
(0 -0 40.7084)
(0 -0 31.9924)
(0 -0 22.7369)
(0 -0 12.9847)
(0 -0 2.78193)
(0 -0 -7.82472)
(0 -0 -18.7863)
(0 -0 -30.0532)
(0 -0 -41.5766)
(0 -0 -53.3016)
(0 -0 -65.1855)
(0 -0 -77.1604)
(0 -0 -89.2023)
(0 -0 -101.211)
(0 -0 -113.207)
(0 -0 -125.022)
(0 -0 -136.757)
(0 -0 -148.14)
(0 -0 -159.354)
(0 -0 -170.058)
(0 -0 -180.394)
(0 -0 -190.21)
(0 -0 82.2361)
(0 -0 80.4117)
(0 -0 80.5961)
(0 -0 81.6244)
(0 -0 82.799)
(0 -0 83.7475)
(0 -0 84.5666)
(0 -0 85.3534)
(0 -0 86.1155)
(0 -0 86.8462)
(0 -0 87.5465)
(0 -0 88.216)
(0 -0 88.8464)
(0 -0 89.4221)
(0 -0 89.9214)
(0 -0 90.3167)
(0 -0 90.5764)
(0 -0 90.666)
(0 -0 90.5496)
(0 -0 90.1916)
(0 -0 89.5578)
(0 -0 88.6173)
(0 -0 87.3421)
(0 -0 85.7088)
(0 -0 83.699)
(0 -0 81.2993)
(0 -0 78.5024)
(0 -0 75.3039)
(0 -0 71.7063)
(0 -0 67.7155)
(0 -0 63.3416)
(0 -0 58.598)
(0 -0 53.5008)
(0 -0 48.0694)
(0 -0 42.325)
(0 -0 36.2922)
(0 -0 29.9947)
(0 -0 23.4634)
(0 -0 16.7215)
(0 -0 9.80969)
(0 -0 2.74463)
(0 -0 -4.41584)
(0 -0 -11.6708)
(0 -0 -18.934)
(0 -0 -26.2293)
(0 -0 -33.4357)
(0 -0 -40.5911)
(0 -0 -47.5669)
(0 -0 -54.3575)
(0 -0 -60.9423)
(0 -0 76.4564)
(0 -0 74.9889)
(0 -0 75.1724)
(0 -0 76.0686)
(0 -0 77.1373)
(0 -0 78.0191)
(0 -0 78.7767)
(0 -0 79.501)
(0 -0 80.2017)
(0 -0 80.8708)
(0 -0 81.5105)
(0 -0 82.1255)
(0 -0 82.7175)
(0 -0 83.2849)
(0 -0 83.8233)
(0 -0 84.3256)
(0 -0 84.7819)
(0 -0 85.1797)
(0 -0 85.5045)
(0 -0 85.74)
(0 -0 85.8691)
(0 -0 85.8742)
(0 -0 85.7377)
(0 -0 85.4426)
(0 -0 84.9734)
(0 -0 84.316)
(0 -0 83.4585)
(0 -0 82.3913)
(0 -0 81.1069)
(0 -0 79.6004)
(0 -0 77.8692)
(0 -0 75.9128)
(0 -0 73.7329)
(0 -0 71.3334)
(0 -0 68.7193)
(0 -0 65.8988)
(0 -0 62.88)
(0 -0 59.676)
(0 -0 56.2962)
(0 -0 52.7599)
(0 -0 49.076)
(0 -0 45.272)
(0 -0 41.3549)
(0 -0 37.3609)
(0 -0 33.2966)
(0 -0 29.204)
(0 -0 25.0985)
(0 -0 21.0125)
(0 -0 16.9936)
(0 -0 13.0155)
(0 -0 70.9759)
(0 -0 69.7996)
(0 -0 69.9881)
(0 -0 70.7666)
(0 -0 71.7312)
(0 -0 72.5461)
(0 -0 73.2438)
(0 -0 73.9089)
(0 -0 74.554)
(0 -0 75.1704)
(0 -0 75.7586)
(0 -0 76.3232)
(0 -0 76.8673)
(0 -0 77.3924)
(0 -0 77.899)
(0 -0 78.3864)
(0 -0 78.8529)
(0 -0 79.2956)
(0 -0 79.7102)
(0 -0 80.0915)
(0 -0 80.433)
(0 -0 80.7274)
(0 -0 80.9667)
(0 -0 81.1423)
(0 -0 81.2456)
(0 -0 81.2681)
(0 -0 81.2015)
(0 -0 81.0385)
(0 -0 80.7723)
(0 -0 80.3973)
(0 -0 79.9085)
(0 -0 79.3022)
(0 -0 78.5752)
(0 -0 77.726)
(0 -0 76.7532)
(0 -0 75.6577)
(0 -0 74.4398)
(0 -0 73.1029)
(0 -0 71.6496)
(0 -0 70.0857)
(0 -0 68.4161)
(0 -0 66.6489)
(0 -0 64.7921)
(0 -0 62.8548)
(0 -0 60.8509)
(0 -0 58.7867)
(0 -0 56.6885)
(0 -0 54.5513)
(0 -0 52.4232)
(0 -0 50.266)
(0 -0 65.793)
(0 -0 64.8524)
(0 -0 65.0487)
(0 -0 65.7233)
(0 -0 66.5876)
(0 -0 67.3369)
(0 -0 67.9771)
(0 -0 68.585)
(0 -0 69.1765)
(0 -0 69.7433)
(0 -0 70.2842)
(0 -0 70.803)
(0 -0 71.3027)
(0 -0 71.7851)
(0 -0 72.2513)
(0 -0 72.7022)
(0 -0 73.1383)
(0 -0 73.5596)
(0 -0 73.9657)
(0 -0 74.3553)
(0 -0 74.7271)
(0 -0 75.0787)
(0 -0 75.4074)
(0 -0 75.7098)
(0 -0 75.9823)
(0 -0 76.221)
(0 -0 76.4221)
(0 -0 76.5815)
(0 -0 76.6957)
(0 -0 76.7611)
(0 -0 76.7744)
(0 -0 76.7328)
(0 -0 76.6333)
(0 -0 76.4735)
(0 -0 76.2513)
(0 -0 75.9649)
(0 -0 75.6131)
(0 -0 75.195)
(0 -0 74.7107)
(0 -0 74.1601)
(0 -0 73.5456)
(0 -0 72.8668)
(0 -0 72.13)
(0 -0 71.3328)
(0 -0 70.4879)
(0 -0 69.5883)
(0 -0 68.6563)
(0 -0 67.676)
(0 -0 66.685)
(0 -0 65.646)
(0 -0 60.9051)
(0 -0 60.1536)
(0 -0 60.3585)
(0 -0 60.9417)
(0 -0 61.7106)
(0 -0 62.3962)
(0 -0 62.9816)
(0 -0 63.5351)
(0 -0 64.075)
(0 -0 64.5941)
(0 -0 65.0899)
(0 -0 65.5654)
(0 -0 66.0236)
(0 -0 66.4658)
(0 -0 66.8932)
(0 -0 67.3068)
(0 -0 67.7074)
(0 -0 68.0957)
(0 -0 68.4721)
(0 -0 68.8368)
(0 -0 69.19)
(0 -0 69.5312)
(0 -0 69.8597)
(0 -0 70.1745)
(0 -0 70.4745)
(0 -0 70.7581)
(0 -0 71.024)
(0 -0 71.2707)
(0 -0 71.4969)
(0 -0 71.701)
(0 -0 71.8816)
(0 -0 72.0375)
(0 -0 72.1669)
(0 -0 72.2685)
(0 -0 72.3406)
(0 -0 72.3818)
(0 -0 72.3907)
(0 -0 72.3658)
(0 -0 72.3066)
(0 -0 72.2113)
(0 -0 72.0812)
(0 -0 71.9132)
(0 -0 71.7118)
(0 -0 71.4715)
(0 -0 71.2013)
(0 -0 70.8916)
(0 -0 70.5583)
(0 -0 70.1849)
(0 -0 69.7982)
(0 -0 69.3663)
(0 -0 56.3082)
(0 -0 55.7074)
(0 -0 55.92)
(0 -0 56.4233)
(0 -0 57.1024)
(0 -0 57.7263)
(0 -0 58.2601)
(0 -0 58.7621)
(0 -0 59.2529)
(0 -0 59.7262)
(0 -0 60.179)
(0 -0 60.6133)
(0 -0 61.0319)
(0 -0 61.436)
(0 -0 61.8266)
(0 -0 62.2047)
(0 -0 62.5709)
(0 -0 62.926)
(0 -0 63.2706)
(0 -0 63.6051)
(0 -0 63.93)
(0 -0 64.2454)
(0 -0 64.5513)
(0 -0 64.8473)
(0 -0 65.1333)
(0 -0 65.4086)
(0 -0 65.6731)
(0 -0 65.9264)
(0 -0 66.1681)
(0 -0 66.3982)
(0 -0 66.6163)
(0 -0 66.822)
(0 -0 67.0148)
(0 -0 67.1942)
(0 -0 67.3592)
(0 -0 67.5091)
(0 -0 67.643)
(0 -0 67.7597)
(0 -0 67.8587)
(0 -0 67.9384)
(0 -0 67.9995)
(0 -0 68.0389)
(0 -0 68.0596)
(0 -0 68.0563)
(0 -0 68.0351)
(0 -0 67.9874)
(0 -0 67.9238)
(0 -0 67.8307)
(0 -0 67.727)
(0 -0 67.5867)
(0 -0 51.9972)
(0 -0 51.5157)
(0 -0 51.7339)
(0 -0 52.1676)
(0 -0 52.7633)
(0 -0 53.3278)
(0 -0 53.8129)
(0 -0 54.2666)
(0 -0 54.7108)
(0 -0 55.1409)
(0 -0 55.5528)
(0 -0 55.948)
(0 -0 56.3289)
(0 -0 56.6969)
(0 -0 57.0526)
(0 -0 57.3969)
(0 -0 57.7305)
(0 -0 58.0539)
(0 -0 58.3678)
(0 -0 58.6727)
(0 -0 58.9689)
(0 -0 59.2568)
(0 -0 59.5363)
(0 -0 59.8073)
(0 -0 60.0699)
(0 -0 60.3238)
(0 -0 60.569)
(0 -0 60.8058)
(0 -0 61.0342)
(0 -0 61.2546)
(0 -0 61.4671)
(0 -0 61.672)
(0 -0 61.8693)
(0 -0 62.0587)
(0 -0 62.24)
(0 -0 62.4127)
(0 -0 62.5764)
(0 -0 62.7302)
(0 -0 62.8739)
(0 -0 63.0062)
(0 -0 63.1276)
(0 -0 63.2357)
(0 -0 63.3324)
(0 -0 63.4137)
(0 -0 63.4834)
(0 -0 63.5351)
(0 -0 63.5756)
(0 -0 63.5945)
(0 -0 63.6054)
(0 -0 63.5877)
(0 -0 47.9656)
(0 -0 47.5782)
(0 -0 47.799)
(0 -0 48.1724)
(0 -0 48.6914)
(0 -0 49.1991)
(0 -0 49.6384)
(0 -0 50.0471)
(0 -0 50.4477)
(0 -0 50.8368)
(0 -0 51.2102)
(0 -0 51.5686)
(0 -0 51.914)
(0 -0 52.2477)
(0 -0 52.5705)
(0 -0 52.8829)
(0 -0 53.1856)
(0 -0 53.479)
(0 -0 53.7639)
(0 -0 54.0405)
(0 -0 54.3094)
(0 -0 54.5706)
(0 -0 54.8243)
(0 -0 55.0703)
(0 -0 55.3086)
(0 -0 55.5392)
(0 -0 55.762)
(0 -0 55.9774)
(0 -0 56.1857)
(0 -0 56.3874)
(0 -0 56.5829)
(0 -0 56.7725)
(0 -0 56.9565)
(0 -0 57.1349)
(0 -0 57.3076)
(0 -0 57.4743)
(0 -0 57.6348)
(0 -0 57.7883)
(0 -0 57.935)
(0 -0 58.0736)
(0 -0 58.2047)
(0 -0 58.3264)
(0 -0 58.4399)
(0 -0 58.5424)
(0 -0 58.6362)
(0 -0 58.7168)
(0 -0 58.7884)
(0 -0 58.8436)
(0 -0 58.8921)
(0 -0 58.9181)
(0 -0 44.2059)
(0 -0 43.8925)
(0 -0 44.1124)
(0 -0 44.4338)
(0 -0 44.8831)
(0 -0 45.3369)
(0 -0 45.7333)
(0 -0 46.1003)
(0 -0 46.4601)
(0 -0 46.8109)
(0 -0 47.1482)
(0 -0 47.4719)
(0 -0 47.784)
(0 -0 48.0857)
(0 -0 48.3774)
(0 -0 48.6598)
(0 -0 48.9334)
(0 -0 49.1987)
(0 -0 49.4562)
(0 -0 49.7062)
(0 -0 49.9492)
(0 -0 50.1854)
(0 -0 50.4146)
(0 -0 50.6368)
(0 -0 50.8518)
(0 -0 51.0597)
(0 -0 51.2605)
(0 -0 51.4545)
(0 -0 51.6422)
(0 -0 51.8241)
(0 -0 52.0006)
(0 -0 52.1721)
(0 -0 52.339)
(0 -0 52.5013)
(0 -0 52.659)
(0 -0 52.8118)
(0 -0 52.9596)
(0 -0 53.1018)
(0 -0 53.2384)
(0 -0 53.3686)
(0 -0 53.4926)
(0 -0 53.6091)
(0 -0 53.7188)
(0 -0 53.8197)
(0 -0 53.9131)
(0 -0 53.996)
(0 -0 54.0708)
(0 -0 54.1326)
(0 -0 54.1879)
(0 -0 54.2253)
(0 -0 40.7094)
(0 -0 40.4545)
(0 -0 40.6697)
(0 -0 40.9462)
(0 -0 41.3329)
(0 -0 41.7358)
(0 -0 42.0923)
(0 -0 42.4209)
(0 -0 42.7428)
(0 -0 43.0579)
(0 -0 43.3615)
(0 -0 43.6531)
(0 -0 43.9341)
(0 -0 44.2057)
(0 -0 44.4685)
(0 -0 44.7229)
(0 -0 44.9693)
(0 -0 45.2081)
(0 -0 45.44)
(0 -0 45.6651)
(0 -0 45.8839)
(0 -0 46.0965)
(0 -0 46.3027)
(0 -0 46.5025)
(0 -0 46.6957)
(0 -0 46.8822)
(0 -0 47.0622)
(0 -0 47.236)
(0 -0 47.404)
(0 -0 47.5667)
(0 -0 47.7248)
(0 -0 47.8786)
(0 -0 48.0283)
(0 -0 48.1742)
(0 -0 48.3161)
(0 -0 48.4538)
(0 -0 48.5872)
(0 -0 48.7158)
(0 -0 48.8395)
(0 -0 48.9575)
(0 -0 49.0701)
(0 -0 49.1762)
(0 -0 49.2762)
(0 -0 49.3687)
(0 -0 49.4542)
(0 -0 49.531)
(0 -0 49.6001)
(0 -0 49.6584)
(0 -0 49.71)
(0 -0 49.7472)
(0 -0 37.4663)
(0 -0 37.2579)
(0 -0 37.4648)
(0 -0 37.7026)
(0 -0 38.0334)
(0 -0 38.3889)
(0 -0 38.7082)
(0 -0 39.0017)
(0 -0 39.2888)
(0 -0 39.5708)
(0 -0 39.8433)
(0 -0 40.105)
(0 -0 40.3573)
(0 -0 40.6011)
(0 -0 40.8369)
(0 -0 41.0652)
(0 -0 41.2863)
(0 -0 41.5006)
(0 -0 41.7086)
(0 -0 41.9106)
(0 -0 42.1068)
(0 -0 42.2974)
(0 -0 42.4822)
(0 -0 42.6611)
(0 -0 42.8338)
(0 -0 43.0004)
(0 -0 43.1609)
(0 -0 43.3157)
(0 -0 43.4653)
(0 -0 43.6102)
(0 -0 43.7509)
(0 -0 43.888)
(0 -0 44.0216)
(0 -0 44.1519)
(0 -0 44.2787)
(0 -0 44.402)
(0 -0 44.5214)
(0 -0 44.6366)
(0 -0 44.7473)
(0 -0 44.853)
(0 -0 44.9538)
(0 -0 45.0488)
(0 -0 45.1381)
(0 -0 45.2209)
(0 -0 45.2971)
(0 -0 45.3656)
(0 -0 45.4268)
(0 -0 45.4789)
(0 -0 45.524)
(0 -0 45.5575)
(0 -0 34.4661)
(0 -0 34.2952)
(0 -0 34.4898)
(0 -0 34.6943)
(0 -0 34.976)
(0 -0 35.2875)
(0 -0 35.5725)
(0 -0 35.834)
(0 -0 36.0894)
(0 -0 36.341)
(0 -0 36.5847)
(0 -0 36.8191)
(0 -0 37.0448)
(0 -0 37.263)
(0 -0 37.474)
(0 -0 37.6783)
(0 -0 37.876)
(0 -0 38.0676)
(0 -0 38.2535)
(0 -0 38.434)
(0 -0 38.6094)
(0 -0 38.7796)
(0 -0 38.9446)
(0 -0 39.1041)
(0 -0 39.2578)
(0 -0 39.4059)
(0 -0 39.5483)
(0 -0 39.6854)
(0 -0 39.8179)
(0 -0 39.9462)
(0 -0 40.0708)
(0 -0 40.1924)
(0 -0 40.311)
(0 -0 40.4269)
(0 -0 40.5398)
(0 -0 40.6496)
(0 -0 40.756)
(0 -0 40.8586)
(0 -0 40.9572)
(0 -0 41.0514)
(0 -0 41.1409)
(0 -0 41.2254)
(0 -0 41.3045)
(0 -0 41.3778)
(0 -0 41.4449)
(0 -0 41.5053)
(0 -0 41.5585)
(0 -0 41.604)
(0 -0 41.6424)
(0 -0 41.6715)
(0 -0 31.6974)
(0 -0 31.5569)
(0 -0 31.7363)
(0 -0 31.9124)
(0 -0 32.1512)
(0 -0 32.4224)
(0 -0 32.6757)
(0 -0 32.9082)
(0 -0 33.1347)
(0 -0 33.3585)
(0 -0 33.576)
(0 -0 33.7853)
(0 -0 33.9868)
(0 -0 34.1815)
(0 -0 34.3697)
(0 -0 34.5519)
(0 -0 34.7281)
(0 -0 34.8989)
(0 -0 35.0645)
(0 -0 35.2253)
(0 -0 35.3814)
(0 -0 35.5329)
(0 -0 35.6796)
(0 -0 35.8212)
(0 -0 35.9575)
(0 -0 36.0884)
(0 -0 36.2141)
(0 -0 36.335)
(0 -0 36.4516)
(0 -0 36.5646)
(0 -0 36.6745)
(0 -0 36.7817)
(0 -0 36.8866)
(0 -0 36.9892)
(0 -0 37.0893)
(0 -0 37.1867)
(0 -0 37.2811)
(0 -0 37.3722)
(0 -0 37.4597)
(0 -0 37.5432)
(0 -0 37.6225)
(0 -0 37.6971)
(0 -0 37.7669)
(0 -0 37.8314)
(0 -0 37.8901)
(0 -0 37.9428)
(0 -0 37.9887)
(0 -0 38.028)
(0 -0 38.06)
(0 -0 38.0849)
(0 -0 29.148)
(0 -0 29.0324)
(0 -0 29.1946)
(0 -0 29.3468)
(0 -0 29.5485)
(0 -0 29.7831)
(0 -0 30.0071)
(0 -0 30.2135)
(0 -0 30.414)
(0 -0 30.6125)
(0 -0 30.8061)
(0 -0 30.9925)
(0 -0 31.172)
(0 -0 31.3452)
(0 -0 31.5128)
(0 -0 31.6747)
(0 -0 31.8314)
(0 -0 31.9831)
(0 -0 32.1302)
(0 -0 32.2729)
(0 -0 32.4115)
(0 -0 32.5458)
(0 -0 32.6757)
(0 -0 32.801)
(0 -0 32.9212)
(0 -0 33.0364)
(0 -0 33.1468)
(0 -0 33.2527)
(0 -0 33.3548)
(0 -0 33.4537)
(0 -0 33.55)
(0 -0 33.6442)
(0 -0 33.7365)
(0 -0 33.8269)
(0 -0 33.9153)
(0 -0 34.0015)
(0 -0 34.085)
(0 -0 34.1656)
(0 -0 34.2429)
(0 -0 34.3167)
(0 -0 34.3866)
(0 -0 34.4524)
(0 -0 34.5136)
(0 -0 34.5702)
(0 -0 34.6212)
(0 -0 34.667)
(0 -0 34.7061)
(0 -0 34.7398)
(0 -0 34.7659)
(0 -0 34.7869)
(0 -0 26.8054)
(0 -0 26.7101)
(0 -0 26.8544)
(0 -0 26.9863)
(0 -0 27.1561)
(0 -0 27.3577)
(0 -0 27.5551)
(0 -0 27.7379)
(0 -0 27.9151)
(0 -0 28.0909)
(0 -0 28.2628)
(0 -0 28.4286)
(0 -0 28.5881)
(0 -0 28.742)
(0 -0 28.8907)
(0 -0 29.0344)
(0 -0 29.1733)
(0 -0 29.3076)
(0 -0 29.4378)
(0 -0 29.5642)
(0 -0 29.6867)
(0 -0 29.8055)
(0 -0 29.9202)
(0 -0 30.0304)
(0 -0 30.136)
(0 -0 30.2369)
(0 -0 30.3332)
(0 -0 30.4255)
(0 -0 30.5144)
(0 -0 30.6005)
(0 -0 30.6845)
(0 -0 30.7668)
(0 -0 30.8476)
(0 -0 30.927)
(0 -0 31.0048)
(0 -0 31.0807)
(0 -0 31.1544)
(0 -0 31.2255)
(0 -0 31.2937)
(0 -0 31.3587)
(0 -0 31.4201)
(0 -0 31.4779)
(0 -0 31.5314)
(0 -0 31.5807)
(0 -0 31.6248)
(0 -0 31.6643)
(0 -0 31.6974)
(0 -0 31.726)
(0 -0 31.7468)
(0 -0 31.7641)
(0 -0 24.6569)
(0 -0 24.578)
(0 -0 24.7043)
(0 -0 24.8189)
(0 -0 24.9614)
(0 -0 25.1338)
(0 -0 25.3069)
(0 -0 25.4687)
(0 -0 25.6252)
(0 -0 25.7806)
(0 -0 25.9331)
(0 -0 26.0803)
(0 -0 26.2219)
(0 -0 26.3583)
(0 -0 26.4901)
(0 -0 26.6173)
(0 -0 26.7401)
(0 -0 26.8589)
(0 -0 26.9739)
(0 -0 27.0854)
(0 -0 27.1935)
(0 -0 27.2981)
(0 -0 27.399)
(0 -0 27.4957)
(0 -0 27.588)
(0 -0 27.6759)
(0 -0 27.7595)
(0 -0 27.8394)
(0 -0 27.9162)
(0 -0 27.9907)
(0 -0 28.0635)
(0 -0 28.1351)
(0 -0 28.2056)
(0 -0 28.275)
(0 -0 28.3433)
(0 -0 28.41)
(0 -0 28.4748)
(0 -0 28.5374)
(0 -0 28.5973)
(0 -0 28.6544)
(0 -0 28.7083)
(0 -0 28.7589)
(0 -0 28.8054)
(0 -0 28.8483)
(0 -0 28.8862)
(0 -0 28.9201)
(0 -0 28.9477)
(0 -0 28.9717)
(0 -0 28.9878)
(0 -0 29.0019)
(0 -0 22.6895)
(0 -0 22.6239)
(0 -0 22.7329)
(0 -0 22.8323)
(0 -0 22.9518)
(0 -0 23.0983)
(0 -0 23.2496)
(0 -0 23.3925)
(0 -0 23.5307)
(0 -0 23.6681)
(0 -0 23.8032)
(0 -0 23.9339)
(0 -0 24.0594)
(0 -0 24.1803)
(0 -0 24.2969)
(0 -0 24.4094)
(0 -0 24.5179)
(0 -0 24.6226)
(0 -0 24.7239)
(0 -0 24.8221)
(0 -0 24.9173)
(0 -0 25.0092)
(0 -0 25.0977)
(0 -0 25.1822)
(0 -0 25.2625)
(0 -0 25.3386)
(0 -0 25.4108)
(0 -0 25.4795)
(0 -0 25.5455)
(0 -0 25.6095)
(0 -0 25.6722)
(0 -0 25.7341)
(0 -0 25.7953)
(0 -0 25.8559)
(0 -0 25.9156)
(0 -0 25.974)
(0 -0 26.0309)
(0 -0 26.0859)
(0 -0 26.1385)
(0 -0 26.1886)
(0 -0 26.2357)
(0 -0 26.2798)
(0 -0 26.3202)
(0 -0 26.3573)
(0 -0 26.3897)
(0 -0 26.4186)
(0 -0 26.4413)
(0 -0 26.4613)
(0 -0 26.4732)
(0 -0 26.4844)
(0 -0 20.8902)
(0 -0 20.8352)
(0 -0 20.928)
(0 -0 21.0142)
(0 -0 21.1141)
(0 -0 21.2381)
(0 -0 21.3698)
(0 -0 21.496)
(0 -0 21.6182)
(0 -0 21.7395)
(0 -0 21.8593)
(0 -0 21.9752)
(0 -0 22.0866)
(0 -0 22.1937)
(0 -0 22.2968)
(0 -0 22.3961)
(0 -0 22.4918)
(0 -0 22.5841)
(0 -0 22.6732)
(0 -0 22.7596)
(0 -0 22.8431)
(0 -0 22.9237)
(0 -0 23.0011)
(0 -0 23.0747)
(0 -0 23.1443)
(0 -0 23.2098)
(0 -0 23.2717)
(0 -0 23.3303)
(0 -0 23.3865)
(0 -0 23.4412)
(0 -0 23.4949)
(0 -0 23.5481)
(0 -0 23.6011)
(0 -0 23.6537)
(0 -0 23.7058)
(0 -0 23.757)
(0 -0 23.8068)
(0 -0 23.855)
(0 -0 23.9011)
(0 -0 23.945)
(0 -0 23.9861)
(0 -0 24.0246)
(0 -0 24.0596)
(0 -0 24.0916)
(0 -0 24.119)
(0 -0 24.1435)
(0 -0 24.1619)
(0 -0 24.1782)
(0 -0 24.1864)
(0 -0 24.1951)
(0 -0 19.2461)
(0 -0 19.1995)
(0 -0 19.2776)
(0 -0 19.3521)
(0 -0 19.4354)
(0 -0 19.5401)
(0 -0 19.6542)
(0 -0 19.7656)
(0 -0 19.8737)
(0 -0 19.9812)
(0 -0 20.0873)
(0 -0 20.1903)
(0 -0 20.2892)
(0 -0 20.3841)
(0 -0 20.4753)
(0 -0 20.563)
(0 -0 20.6474)
(0 -0 20.7285)
(0 -0 20.8069)
(0 -0 20.8827)
(0 -0 20.956)
(0 -0 21.0265)
(0 -0 21.094)
(0 -0 21.1579)
(0 -0 21.2179)
(0 -0 21.274)
(0 -0 21.3266)
(0 -0 21.3763)
(0 -0 21.4238)
(0 -0 21.4701)
(0 -0 21.5157)
(0 -0 21.5613)
(0 -0 21.6069)
(0 -0 21.6526)
(0 -0 21.6979)
(0 -0 21.7427)
(0 -0 21.7863)
(0 -0 21.8286)
(0 -0 21.869)
(0 -0 21.9074)
(0 -0 21.9432)
(0 -0 21.9767)
(0 -0 22.0069)
(0 -0 22.0344)
(0 -0 22.0575)
(0 -0 22.0781)
(0 -0 22.0927)
(0 -0 22.1058)
(0 -0 22.1107)
(0 -0 22.1172)
(0 -0 17.7446)
(0 -0 17.7048)
(0 -0 17.7697)
(0 -0 17.8337)
(0 -0 17.9032)
(0 -0 17.9911)
(0 -0 18.0898)
(0 -0 18.1881)
(0 -0 18.284)
(0 -0 18.3793)
(0 -0 18.4736)
(0 -0 18.5652)
(0 -0 18.6531)
(0 -0 18.7373)
(0 -0 18.8181)
(0 -0 18.8956)
(0 -0 18.9699)
(0 -0 19.0414)
(0 -0 19.1102)
(0 -0 19.1767)
(0 -0 19.2409)
(0 -0 19.3026)
(0 -0 19.3613)
(0 -0 19.4165)
(0 -0 19.468)
(0 -0 19.5158)
(0 -0 19.5602)
(0 -0 19.6018)
(0 -0 19.6416)
(0 -0 19.6804)
(0 -0 19.719)
(0 -0 19.7578)
(0 -0 19.7969)
(0 -0 19.8364)
(0 -0 19.8759)
(0 -0 19.915)
(0 -0 19.9533)
(0 -0 19.9903)
(0 -0 20.0257)
(0 -0 20.0593)
(0 -0 20.0906)
(0 -0 20.1197)
(0 -0 20.1457)
(0 -0 20.1692)
(0 -0 20.1886)
(0 -0 20.2057)
(0 -0 20.217)
(0 -0 20.2274)
(0 -0 20.2293)
(0 -0 20.2339)
(0 -0 16.3737)
(0 -0 16.3393)
(0 -0 16.3926)
(0 -0 16.4471)
(0 -0 16.505)
(0 -0 16.5786)
(0 -0 16.6637)
(0 -0 16.7505)
(0 -0 16.8359)
(0 -0 16.9207)
(0 -0 17.0047)
(0 -0 17.0864)
(0 -0 17.1647)
(0 -0 17.2396)
(0 -0 17.3112)
(0 -0 17.3797)
(0 -0 17.4453)
(0 -0 17.5082)
(0 -0 17.5687)
(0 -0 17.6271)
(0 -0 17.6833)
(0 -0 17.7371)
(0 -0 17.7881)
(0 -0 17.8358)
(0 -0 17.8798)
(0 -0 17.9201)
(0 -0 17.9572)
(0 -0 17.9918)
(0 -0 18.0247)
(0 -0 18.0569)
(0 -0 18.0892)
(0 -0 18.122)
(0 -0 18.1555)
(0 -0 18.1896)
(0 -0 18.2239)
(0 -0 18.2581)
(0 -0 18.2917)
(0 -0 18.3242)
(0 -0 18.3552)
(0 -0 18.3847)
(0 -0 18.412)
(0 -0 18.4373)
(0 -0 18.4597)
(0 -0 18.4798)
(0 -0 18.4959)
(0 -0 18.5101)
(0 -0 18.5184)
(0 -0 18.5263)
(0 -0 18.5257)
(0 -0 18.5286)
(0 -0 15.1218)
(0 -0 15.0915)
(0 -0 15.135)
(0 -0 15.1809)
(0 -0 15.2289)
(0 -0 15.2905)
(0 -0 15.3638)
(0 -0 15.4405)
(0 -0 15.5168)
(0 -0 15.5926)
(0 -0 15.6677)
(0 -0 15.7408)
(0 -0 15.8108)
(0 -0 15.8776)
(0 -0 15.9412)
(0 -0 16.002)
(0 -0 16.06)
(0 -0 16.1154)
(0 -0 16.1686)
(0 -0 16.2198)
(0 -0 16.2691)
(0 -0 16.3161)