/*--------------------------------*- C++ -*----------------------------------*\
  =========                 |
  \\      /  F ield         | OpenFOAM: The Open Source CFD Toolbox
   \\    /   O peration     | Website:  https://openfoam.org
    \\  /    A nd           | Version:  7
     \\/     M anipulation  |
\*---------------------------------------------------------------------------*/
FoamFile
{
    version     2.0;
    format      ascii;
    class       volVectorField;
    location    "0.16";
    object      wallShearStress;
}
// * * * * * * * * * * * * * * * * * * * * * * * * * * * * * * * * * * * * * //

dimensions      [0 2 -2 0 0 0 0];

internalField   uniform (0 0 0);

boundaryField
{
    velocityInlet
    {
        type            calculated;
        value           uniform (0 0 0);
    }
    pressureOutlet
    {
        type            calculated;
        value           uniform (0 0 0);
    }
    fixedWalls
    {
        type            calculated;
        value           nonuniform List<vector> 
100
(
(-0.0227707 -0.00833537 0)
(0.00447806 -0.00169251 0)
(0.000724739 0.000452953 0)
(0.00180806 -2.73293e-05 0)
(0.000969766 0.00014111 0)
(0.000227812 0.00014229 0)
(-0.000580724 0.00013756 0)
(-0.00126476 0.000110751 0)
(-0.00178599 8.21638e-05 0)
(-0.00216306 5.88768e-05 0)
(-0.00243429 4.15519e-05 0)
(-0.00263266 2.9146e-05 0)
(-0.00278619 2.08192e-05 0)
(-0.00292993 1.87893e-05 0)
(-0.00311948 2.80362e-05 0)
(-0.00340428 4.43632e-05 0)
(-0.00371954 3.83307e-05 0)
(-0.00383342 -8.86458e-06 0)
(-0.00383952 -1.62763e-05 0)
(-0.00459537 0.000114506 0)
(-0.00639715 0.000237221 0)
(-0.00826708 0.000210845 0)
(-0.0100606 0.000283642 0)
(-0.0120655 0.000410113 0)
(-0.0121005 6.14886e-05 0)
(-0.00695666 -0.00088366 0)
(0.0022182 -0.00136131 0)
(0.0106418 -0.00128998 0)
(0.0155976 -0.000744545 0)
(0.0164602 -0.000121129 0)
(0.0137584 0.000390748 0)
(0.00887969 0.000631959 0)
(0.00359455 0.000602119 0)
(-0.000741087 0.000453357 0)
(-0.00356964 0.00026656 0)
(-0.00504376 0.000125068 0)
(-0.0055864 4.09757e-05 0)
(-0.00561121 -1.95324e-06 0)
(-0.00539165 -2.28363e-05 0)
(-0.00507738 -3.06517e-05 0)
(-0.00474576 -3.17596e-05 0)
(-0.00443616 -2.92332e-05 0)
(-0.0041674 -2.48514e-05 0)
(-0.00394484 -1.99615e-05 0)
(-0.00376346 -1.57866e-05 0)
(-0.00361183 -1.30278e-05 0)
(-0.00348057 -1.1018e-05 0)
(-0.00337121 -7.89321e-06 0)
(-0.00329532 -2.48485e-06 0)
(-0.00326004 4.057e-06 0)
(-0.0032525 8.87159e-06 0)
(-0.00323912 9.0553e-06 0)
(-0.00317816 4.00504e-06 0)
(-0.00303219 -5.63721e-06 0)
(-0.0027734 -1.91317e-05 0)
(-0.00238523 -3.5528e-05 0)
(-0.00186775 -5.27203e-05 0)
(-0.00124788 -6.69521e-05 0)
(-0.00058554 -7.36128e-05 0)
(3.51956e-05 -6.97324e-05 0)
(0.00052511 -5.46945e-05 0)
(0.000819156 -3.30002e-05 0)
(0.000899601 -1.02328e-05 0)
(0.000789523 1.17896e-05 0)
(0.000550216 2.4438e-05 0)
(0.000255874 2.96126e-05 0)
(-2.72091e-05 2.81351e-05 0)
(-0.000249238 2.14644e-05 0)
(-0.000381979 1.19824e-05 0)
(-0.000419631 1.96407e-06 0)
(-0.00037728 -6.96561e-06 0)
(-0.000293157 -1.17209e-05 0)
(-0.000229356 -1.0507e-05 0)
(-0.000257793 -1.05044e-06 0)
(-0.000428381 1.28292e-05 0)
(-0.00073616 2.57498e-05 0)
(-0.00112019 3.27532e-05 0)
(-0.00149839 3.16703e-05 0)
(-0.00180427 2.46115e-05 0)
(-0.00200483 1.51997e-05 0)
(-0.00210112 6.33781e-06 0)
(-0.00211591 -1.42752e-07 0)
(-0.00208125 -4.14743e-06 0)
(-0.00202586 -5.68227e-06 0)
(-0.00197344 -5.36787e-06 0)
(-0.00193399 -4.36957e-06 0)
(-0.00191495 -3.19857e-06 0)
(-0.00191202 -2.16143e-06 0)
(-0.00193567 -4.64333e-07 0)
(-0.00198568 1.78875e-06 0)
(-0.00209489 6.54313e-06 0)
(-0.0022959 1.65129e-05 0)
(-0.00267224 3.55486e-05 0)
(-0.00332059 6.15209e-05 0)
(-0.00407659 7.38156e-05 0)
(-0.00469285 5.18983e-05 0)
(-0.00424054 -1.76745e-05 0)
(-0.0032724 -7.70306e-05 0)
(-0.00115616 -0.00014409 0)
(0.000482394 -6.04642e-05 0)
)
;
    }
    bottomWall
    {
        type            calculated;
        value           nonuniform List<vector> 
800
(
(-0.0353512 0.00216563 0)
(-0.0160362 0.000524976 0)
(-0.0105899 0.000100568 0)
(-0.00845472 3.46027e-05 0)
(-0.00749028 1.9697e-05 0)
(-0.00685421 1.60261e-05 0)
(-0.00634503 1.32261e-05 0)
(-0.00593344 1.07765e-05 0)
(-0.00559849 8.97562e-06 0)
(-0.00531944 7.6757e-06 0)
(-0.00508172 6.69075e-06 0)
(-0.00487589 5.91259e-06 0)
(-0.00469548 5.28235e-06 0)
(-0.00453577 4.76312e-06 0)
(-0.00439316 4.32928e-06 0)
(-0.00426487 3.96225e-06 0)
(-0.00414872 3.64833e-06 0)
(-0.00404296 3.37723e-06 0)
(-0.00394618 3.14108e-06 0)
(-0.00385722 2.93381e-06 0)
(-0.00377512 2.75066e-06 0)
(-0.00369908 2.58783e-06 0)
(-0.00362843 2.44224e-06 0)
(-0.00356258 2.31142e-06 0)
(-0.00350104 2.1933e-06 0)
(-0.00344339 2.0862e-06 0)
(-0.00338925 1.9887e-06 0)
(-0.00333831 1.89959e-06 0)
(-0.00329029 1.81789e-06 0)
(-0.00324493 1.74274e-06 0)
(-0.00320201 1.67341e-06 0)
(-0.00316135 1.60927e-06 0)
(-0.00312276 1.54977e-06 0)
(-0.0030861 1.49445e-06 0)
(-0.00305121 1.4429e-06 0)
(-0.00301797 1.39476e-06 0)
(-0.00298628 1.34971e-06 0)
(-0.00295602 1.30748e-06 0)
(-0.0029271 1.26781e-06 0)
(-0.00289944 1.2305e-06 0)
(-0.00287295 1.19534e-06 0)
(-0.00284757 1.16217e-06 0)
(-0.00282322 1.13086e-06 0)
(-0.00279986 1.10118e-06 0)
(-0.00277741 1.07321e-06 0)
(-0.00275583 1.04643e-06 0)
(-0.00273507 1.02151e-06 0)
(-0.0027151 9.96982e-07 0)
(-0.00269584 9.74917e-07 0)
(-0.0026773 9.51378e-07 0)
(-0.00266181 9.32068e-07 0)
(-0.00264902 9.21078e-07 0)
(-0.0026364 9.07039e-07 0)
(-0.00262398 8.92063e-07 0)
(-0.00261176 8.78019e-07 0)
(-0.00259972 8.64653e-07 0)
(-0.00258786 8.516e-07 0)
(-0.00257618 8.38819e-07 0)
(-0.00256468 8.26338e-07 0)
(-0.00255334 8.14154e-07 0)
(-0.00254217 8.0225e-07 0)
(-0.00253116 7.90612e-07 0)
(-0.00252031 7.79232e-07 0)
(-0.00250961 7.68101e-07 0)
(-0.00249907 7.57213e-07 0)
(-0.00248867 7.4656e-07 0)
(-0.00247842 7.36134e-07 0)
(-0.0024683 7.25928e-07 0)
(-0.00245833 7.15938e-07 0)
(-0.00244849 7.06155e-07 0)
(-0.00243879 6.96575e-07 0)
(-0.00242921 6.87192e-07 0)
(-0.00241976 6.77999e-07 0)
(-0.00241044 6.68992e-07 0)
(-0.00240124 6.60166e-07 0)
(-0.00239216 6.51515e-07 0)
(-0.00238319 6.43035e-07 0)
(-0.00237434 6.34721e-07 0)
(-0.00236561 6.26569e-07 0)
(-0.00235698 6.18576e-07 0)
(-0.00234846 6.10736e-07 0)
(-0.00234005 6.03048e-07 0)
(-0.00233174 5.95506e-07 0)
(-0.00232354 5.88108e-07 0)
(-0.00231543 5.8085e-07 0)
(-0.00230743 5.73728e-07 0)
(-0.00229952 5.6674e-07 0)
(-0.00229171 5.59881e-07 0)
(-0.00228398 5.53149e-07 0)
(-0.00227635 5.46541e-07 0)
(-0.00226881 5.40053e-07 0)
(-0.00226136 5.33681e-07 0)
(-0.002254 5.27424e-07 0)
(-0.00224671 5.21278e-07 0)
(-0.00223952 5.1524e-07 0)
(-0.0022324 5.09308e-07 0)
(-0.00222537 5.03479e-07 0)
(-0.00221841 4.9775e-07 0)
(-0.00221153 4.9212e-07 0)
(-0.00220473 4.86584e-07 0)
(-0.00219801 4.81143e-07 0)
(-0.00219136 4.75793e-07 0)
(-0.00218478 4.70532e-07 0)
(-0.00217827 4.65359e-07 0)
(-0.00217183 4.60271e-07 0)
(-0.00216546 4.55267e-07 0)
(-0.00215916 4.50345e-07 0)
(-0.00215293 4.45503e-07 0)
(-0.00214676 4.4074e-07 0)
(-0.00214066 4.36053e-07 0)
(-0.00213462 4.31442e-07 0)
(-0.00212864 4.26905e-07 0)
(-0.00212273 4.2244e-07 0)
(-0.00211687 4.18047e-07 0)
(-0.00211108 4.13723e-07 0)
(-0.00210534 4.09468e-07 0)
(-0.00209966 4.05281e-07 0)
(-0.00209404 4.0116e-07 0)
(-0.00208848 3.97104e-07 0)
(-0.00208297 3.93111e-07 0)
(-0.00207751 3.89182e-07 0)
(-0.00207211 3.85315e-07 0)
(-0.00206676 3.81509e-07 0)
(-0.00206146 3.77762e-07 0)
(-0.00205621 3.74075e-07 0)
(-0.00205101 3.70445e-07 0)
(-0.00204587 3.66873e-07 0)
(-0.00204077 3.63357e-07 0)
(-0.00203571 3.59897e-07 0)
(-0.00203071 3.56489e-07 0)
(-0.00202575 3.53135e-07 0)
(-0.00202084 3.49834e-07 0)
(-0.00201597 3.46588e-07 0)
(-0.00201115 3.43388e-07 0)
(-0.00200637 3.4024e-07 0)
(-0.00200163 3.37139e-07 0)
(-0.00199694 3.34088e-07 0)
(-0.00199229 3.31082e-07 0)
(-0.00198767 3.28128e-07 0)
(-0.0019831 3.25211e-07 0)
(-0.00197857 3.22352e-07 0)
(-0.00197408 3.19519e-07 0)
(-0.00196962 3.16757e-07 0)
(-0.00196521 3.13996e-07 0)
(-0.00196083 3.11338e-07 0)
(-0.00195649 3.08631e-07 0)
(-0.00195218 3.06089e-07 0)
(-0.00194791 3.03401e-07 0)
(-0.00194368 3.00965e-07 0)
(-0.00193948 2.98217e-07 0)
(-0.00193596 2.95781e-07 0)
(-0.00193308 2.94536e-07 0)
(-0.0019302 2.93016e-07 0)
(-0.00192731 2.9125e-07 0)
(-0.00192442 2.8953e-07 0)
(-0.00192152 2.87822e-07 0)
(-0.00191862 2.8617e-07 0)
(-0.00191572 2.84508e-07 0)
(-0.00191281 2.8285e-07 0)
(-0.0019099 2.81205e-07 0)
(-0.00190699 2.79565e-07 0)
(-0.00190407 2.77933e-07 0)
(-0.00190115 2.76332e-07 0)
(-0.00189823 2.74699e-07 0)
(-0.0018953 2.73098e-07 0)
(-0.00189237 2.71496e-07 0)
(-0.00188944 2.69906e-07 0)
(-0.0018865 2.68316e-07 0)
(-0.00188356 2.66732e-07 0)
(-0.00188062 2.65163e-07 0)
(-0.00187767 2.63597e-07 0)
(-0.00187472 2.62042e-07 0)
(-0.00187177 2.60509e-07 0)
(-0.00186881 2.58959e-07 0)
(-0.00186585 2.57438e-07 0)
(-0.00186289 2.55915e-07 0)
(-0.00185992 2.54397e-07 0)
(-0.00185695 2.52895e-07 0)
(-0.00185398 2.51399e-07 0)
(-0.001851 2.49915e-07 0)
(-0.00184802 2.48452e-07 0)
(-0.00184504 2.46978e-07 0)
(-0.00184205 2.45521e-07 0)
(-0.00183906 2.44073e-07 0)
(-0.00183607 2.4263e-07 0)
(-0.00183308 2.4121e-07 0)
(-0.00183008 2.39792e-07 0)
(-0.00182708 2.38383e-07 0)
(-0.00182407 2.37004e-07 0)
(-0.00182106 2.356e-07 0)
(-0.00181805 2.34236e-07 0)
(-0.00181504 2.32862e-07 0)
(-0.00181202 2.31501e-07 0)
(-0.001809 2.30158e-07 0)
(-0.00180598 2.28827e-07 0)
(-0.00180295 2.27511e-07 0)
(-0.00179992 2.26196e-07 0)
(-0.00179688 2.24903e-07 0)
(-0.00179384 2.23644e-07 0)
(-0.0017908 2.22356e-07 0)
(-0.00178776 2.21098e-07 0)
(-0.00178471 2.19849e-07 0)
(-0.00178166 2.1861e-07 0)
(-0.0017786 2.17398e-07 0)
(-0.00177554 2.16194e-07 0)
(-0.00177248 2.15005e-07 0)
(-0.00176941 2.13852e-07 0)
(-0.00176634 2.12671e-07 0)
(-0.00176326 2.11538e-07 0)
(-0.00176018 2.10394e-07 0)
(-0.0017571 2.09264e-07 0)
(-0.00175401 2.08161e-07 0)
(-0.00175091 2.07055e-07 0)
(-0.00174782 2.05992e-07 0)
(-0.00174471 2.04983e-07 0)
(-0.0017416 2.03899e-07 0)
(-0.00173849 2.02873e-07 0)
(-0.00173537 2.01847e-07 0)
(-0.00173225 2.00863e-07 0)
(-0.00172912 1.99872e-07 0)
(-0.00172599 1.98896e-07 0)
(-0.00172285 1.97957e-07 0)
(-0.00171971 1.97016e-07 0)
(-0.00171655 1.9613e-07 0)
(-0.0017134 1.95279e-07 0)
(-0.00171023 1.94403e-07 0)
(-0.00170706 1.93546e-07 0)
(-0.00170388 1.92756e-07 0)
(-0.0017007 1.91892e-07 0)
(-0.0016975 1.91266e-07 0)
(-0.00169431 1.903e-07 0)
(-0.00169109 1.89941e-07 0)
(-0.00168788 1.8883e-07 0)
(-0.00168464 1.88968e-07 0)
(-0.00168142 1.87081e-07 0)
(-0.00167814 1.88507e-07 0)
(-0.00167493 1.84843e-07 0)
(-0.00167158 1.89223e-07 0)
(-0.00166841 1.8136e-07 0)
(-0.00166493 1.92363e-07 0)
(-0.00166189 1.74855e-07 0)
(-0.00165816 2.00493e-07 0)
(-0.00165541 1.61713e-07 0)
(-0.0016512 2.18635e-07 0)
(-0.00164902 1.35276e-07 0)
(-0.00164395 2.55187e-07 0)
(-0.00164279 8.50583e-08 0)
(-0.00163641 3.19544e-07 0)
(-0.0016367 5.55185e-09 0)
(-0.00162859 3.52069e-07 0)
(-0.0353513 -0.00216561 0)
(-0.0160371 -0.000524935 0)
(-0.010592 -0.000100519 0)
(-0.00845826 -3.45548e-05 0)
(-0.0074953 -1.96472e-05 0)
(-0.00686079 -1.59743e-05 0)
(-0.00635321 -1.31728e-05 0)
(-0.00594323 -1.07218e-05 0)
(-0.0056099 -8.91921e-06 0)
(-0.0053325 -7.61715e-06 0)
(-0.00509648 -6.62951e-06 0)
(-0.00489242 -5.848e-06 0)
(-0.00471387 -5.21367e-06 0)
(-0.00455612 -4.68967e-06 0)
(-0.00441559 -4.2504e-06 0)
(-0.00428951 -3.87734e-06 0)
(-0.00417571 -3.55681e-06 0)
(-0.00407246 -3.2785e-06 0)
(-0.00397836 -3.03455e-06 0)
(-0.00389225 -2.81883e-06 0)
(-0.00381319 -2.62651e-06 0)
(-0.00374039 -2.45372e-06 0)
(-0.00367318 -2.29733e-06 0)
(-0.00361101 -2.15475e-06 0)
(-0.00355339 -2.02384e-06 0)
(-0.00349991 -1.90282e-06 0)
(-0.00345024 -1.79012e-06 0)
(-0.00340406 -1.68446e-06 0)
(-0.00336112 -1.58457e-06 0)
(-0.00332119 -1.48959e-06 0)
(-0.00328411 -1.39826e-06 0)
(-0.00324968 -1.31028e-06 0)
(-0.0032178 -1.22396e-06 0)
(-0.00318833 -1.13992e-06 0)
(-0.00316119 -1.05542e-06 0)
(-0.00313631 -9.72611e-07 0)
(-0.00311362 -8.8703e-07 0)
(-0.00309315 -8.02436e-07 0)
(-0.00307465 -7.13974e-07 0)
(-0.00305867 -6.22186e-07 0)
(-0.00304407 -5.33381e-07 0)
(-0.00303311 -4.19726e-07 0)
(-0.00302169 -3.48481e-07 0)
(-0.00301741 -1.66517e-07 0)
(-0.00300706 -1.80498e-07 0)
(-0.00301395 2.24951e-07 0)
(-0.00299888 -1.41799e-07 0)
(-0.00302732 1.33646e-06 0)
(-0.0030051 -6.32295e-06 0)
(-0.00283922 0.000205761 0)
(1.94854e-05 -8.64023e-06 0)
(1.92589e-05 -3.98347e-05 0)
(1.60963e-05 -6.10659e-05 0)
(1.48674e-05 -7.20533e-05 0)
(1.68054e-05 -7.37384e-05 0)
(1.53389e-05 -6.21096e-05 0)
(-1.15315e-05 -1.5657e-05 0)
(-8.70068e-05 9.98686e-05 0)
(-0.000161328 0.000297272 0)
(-0.000166976 0.000502302 0)
(-0.000120597 0.000639171 0)
(-6.61446e-05 0.000702164 0)
(-1.85599e-05 0.000705787 0)
(1.75101e-05 0.000665936 0)
(4.15929e-05 0.000598884 0)
(5.80236e-05 0.000512686 0)
(6.81705e-05 0.000415337 0)
(7.5108e-05 0.000311328 0)
(8.04039e-05 0.000203645 0)
(8.54184e-05 9.20506e-05 0)
(8.94145e-05 -2.46321e-05 0)
(9.33812e-05 -0.000143395 0)
(9.81533e-05 -0.000265914 0)
(0.000102272 -0.000391953 0)
(0.00010535 -0.000520642 0)
(0.000107043 -0.000650767 0)
(0.000107108 -0.000780917 0)
(0.000105419 -0.000909452 0)
(0.000101999 -0.00103468 0)
(9.69995e-05 -0.00115504 0)
(9.06398e-05 -0.00126923 0)
(8.31754e-05 -0.00137621 0)
(7.48704e-05 -0.00147518 0)
(6.59751e-05 -0.00156563 0)
(5.67089e-05 -0.00164726 0)
(4.72503e-05 -0.00171996 0)
(3.77294e-05 -0.00178377 0)
(2.82234e-05 -0.00183884 0)
(1.87824e-05 -0.00188536 0)
(9.3466e-06 -0.00192359 0)
(-1.2087e-07 -0.00195364 0)
(-9.66624e-06 -0.00197584 0)
(-1.95781e-05 -0.00199023 0)
(-3.0463e-05 -0.00199693 0)
(-4.26986e-05 -0.00199523 0)
(-5.63609e-05 -0.00198455 0)
(-7.17862e-05 -0.00196451 0)
(-8.97724e-05 -0.00193447 0)
(-0.00011135 -0.00189317 0)
(-0.000137695 -0.00183889 0)
(-0.000170042 -0.0017693 0)
(-0.00020883 -0.00168069 0)
(-0.000250766 -0.00156797 0)
(-0.000285738 -0.00142795 0)
(-0.000299429 -0.00126467 0)
(-0.000282664 -0.00109034 0)
(-0.000237836 -0.000920012 0)
(-0.000176074 -0.000765231 0)
(-0.000110591 -0.00063166 0)
(-5.17524e-05 -0.000520473 0)
(-4.88647e-06 -0.000429754 0)
(2.79409e-05 -0.000356993 0)
(4.69961e-05 -0.000299455 0)
(5.44503e-05 -0.000254813 0)
(5.31711e-05 -0.000220581 0)
(4.60771e-05 -0.000193791 0)
(3.581e-05 -0.000171465 0)
(2.43523e-05 -0.000151351 0)
(1.30139e-05 -0.000132034 0)
(2.71922e-06 -0.000112851 0)
(-5.91407e-06 -9.38448e-05 0)
(-1.24029e-05 -7.5347e-05 0)
(-1.64042e-05 -5.80708e-05 0)
(-1.77097e-05 -4.293e-05 0)
(-1.62171e-05 -3.09187e-05 0)
(-1.21428e-05 -2.2838e-05 0)
(-5.90599e-06 -1.92437e-05 0)
(2.15232e-06 -2.03236e-05 0)
(1.15117e-05 -2.61668e-05 0)
(2.17796e-05 -3.70175e-05 0)
(3.23369e-05 -5.29502e-05 0)
(4.26963e-05 -7.3817e-05 0)
(5.24439e-05 -9.93007e-05 0)
(6.12051e-05 -0.000128884 0)
(6.86952e-05 -0.000161831 0)
(7.47595e-05 -0.000197243 0)
(7.93736e-05 -0.000234183 0)
(8.25918e-05 -0.000271782 0)
(8.44694e-05 -0.000309299 0)
(8.50144e-05 -0.00034612 0)
(8.41488e-05 -0.0003817 0)
(8.17169e-05 -0.000415465 0)
(7.75719e-05 -0.000446721 0)
(7.16828e-05 -0.000474679 0)
(6.41925e-05 -0.000498558 0)
(5.54028e-05 -0.000517692 0)
(4.57333e-05 -0.000531657 0)
(3.55719e-05 -0.000540266 0)
(2.53461e-05 -0.000543508 0)
(1.55417e-05 -0.000541648 0)
(6.4441e-06 -0.000535278 0)
(-1.84477e-06 -0.000524972 0)
(-9.30069e-06 -0.000511324 0)
(-1.59918e-05 -0.000494914 0)
(-2.20487e-05 -0.000476279 0)
(-2.75953e-05 -0.00045588 0)
(-3.26432e-05 -0.000434125 0)
(-3.70358e-05 -0.000411438 0)
(-4.04769e-05 -0.000388328 0)
(-4.26236e-05 -0.000365417 0)
(-4.3197e-05 -0.000343413 0)
(-4.20673e-05 -0.000323029 0)
(-3.92932e-05 -0.000304901 0)
(-3.5118e-05 -0.00028951 0)
(-2.99349e-05 -0.000277121 0)
(-2.42285e-05 -0.000267764 0)
(-1.84986e-05 -0.000261225 0)
(-1.31825e-05 -0.000257075 0)
(-8.58646e-06 -0.000254732 0)
(-4.83526e-06 -0.000253534 0)
(-1.85166e-06 -0.000252861 0)
(5.8588e-07 -0.000252226 0)
(2.74686e-06 -0.000251332 0)
(4.81839e-06 -0.000250052 0)
(6.78307e-06 -0.000248328 0)
(8.36859e-06 -0.000246003 0)
(9.09576e-06 -0.000242684 0)
(8.4101e-06 -0.000237722 0)
(5.7911e-06 -0.000230412 0)
(6.88118e-07 -0.000220448 0)
(-7.76737e-06 -0.000207671 0)
(-2.09513e-05 -0.000191655 0)
(-4.05048e-05 -0.00017192 0)
(-6.75853e-05 -0.00014713 0)
(-0.000101693 -0.000114714 0)
(-0.000139624 -7.19135e-05 0)
(-0.000176268 -1.81463e-05 0)
(-0.000206738 4.41768e-05 0)
(-0.000228061 0.000110719 0)
(-0.000239772 0.000177142 0)
(-0.000243189 0.000240686 0)
(-0.000239965 0.000299992 0)
(-0.000231556 0.000354427 0)
(-0.000219115 0.000403638 0)
(-0.000203556 0.000447383 0)
(-0.000185617 0.000485509 0)
(-0.000165909 0.000517941 0)
(-0.00014494 0.000544673 0)
(-0.000123127 0.000565751 0)
(-0.000100842 0.000581258 0)
(-7.8418e-05 0.000591366 0)
(-5.60853e-05 0.000596358 0)
(-3.40618e-05 0.000596444 0)
(-1.25253e-05 0.000591939 0)
(8.56094e-06 0.00058314 0)
(2.91928e-05 0.000570264 0)
(4.93298e-05 0.000553514 0)
(6.89609e-05 0.000533081 0)
(8.80784e-05 0.000509142 0)
(0.000106669 0.000481858 0)
(0.000124708 0.000451376 0)
(0.000142151 0.000417828 0)
(0.000158928 0.000381338 0)
(0.000174936 0.000342022 0)
(0.000190035 0.0003 0)
(0.000204042 0.000255408 0)
(0.000216731 0.000208406 0)
(0.000227831 0.000159202 0)
(0.00023703 0.000108066 0)
(0.000244001 5.53485e-05 0)
(0.000248406 1.47957e-06 0)
(0.000249916 -5.30263e-05 0)
(0.000248246 -0.000107577 0)
(0.000243169 -0.000161526 0)
(0.000234519 -0.000214177 0)
(0.000222222 -0.00026481 0)
(0.000206303 -0.000312698 0)
(0.000186894 -0.00035713 0)
(0.000164234 -0.000397438 0)
(0.000138663 -0.000433017 0)
(0.000110615 -0.000463338 0)
(8.06065e-05 -0.000487962 0)
(4.92298e-05 -0.000506546 0)
(1.7162e-05 -0.000518848 0)
(-1.49252e-05 -0.000524727 0)
(-4.64097e-05 -0.000524078 0)
(-7.63477e-05 -0.000516913 0)
(-0.000103809 -0.000503553 0)
(-0.000128096 -0.000484363 0)
(-0.000148518 -0.000459939 0)
(-0.000164485 -0.00043113 0)
(-0.000175602 -0.000399223 0)
(-0.000181946 -0.000366446 0)
(-0.000184641 -0.000336997 0)
(-0.000186997 -0.000318951 0)
(-0.000196758 -0.000327427 0)
(-0.000230673 -0.000388075 0)
(-0.000321947 -0.000536829 0)
(-0.000517992 -0.000807727 0)
(-0.000826494 -0.00118658 0)
(1.51061e-06 -1.98007e-05 0)
(2.7015e-05 -1.68475e-05 0)
(3.55573e-05 -2.44747e-06 0)
(2.2952e-05 1.59116e-05 0)
(-7.7372e-06 2.81535e-05 0)
(-4.55694e-05 3.0701e-05 0)
(-8.06492e-05 2.45037e-05 0)
(-0.000106853 1.31981e-05 0)
(-0.000121169 6.55195e-07 0)
(-0.000123861 -1.00208e-05 0)
(-0.000116942 -1.69472e-05 0)
(-0.000103753 -1.9534e-05 0)
(-8.77793e-05 -1.87693e-05 0)
(-7.16189e-05 -1.65316e-05 0)
(-5.64567e-05 -1.47177e-05 0)
(-4.20938e-05 -1.48543e-05 0)
(-2.70979e-05 -1.78291e-05 0)
(-9.19726e-06 -2.3947e-05 0)
(1.43485e-05 -3.28215e-05 0)
(4.61365e-05 -4.40743e-05 0)
(8.829e-05 -5.58158e-05 0)
(0.000137283 -6.62858e-05 0)
(0.000194136 -7.52318e-05 0)
(0.000253752 -7.0237e-05 0)
(0.000304159 -5.21677e-05 0)
(0.00034915 -2.35774e-05 0)
(0.000374059 -4.16194e-06 0)
(0.000381667 -1.91116e-05 0)
(0.000375915 -1.77452e-05 0)
(0.000319263 3.90371e-05 0)
(0.000285397 0.00010198 0)
(0.000276972 0.000218633 0)
(0.000228464 0.00024604 0)
(0.00024827 3.77044e-05 0)
(0.000369269 -0.000234055 0)
(0.000639237 -0.000310853 0)
(0.000841656 -0.000217323 0)
(0.00094312 -0.000162456 0)
(0.00106468 -0.000158674 0)
(0.00119011 -0.000143934 0)
(0.00131536 -0.00014202 0)
(0.0014512 -0.000147172 0)
(0.00159686 -0.000163956 0)
(0.0017557 -0.000192808 0)
(0.00192123 -0.000221486 0)
(0.00207685 -0.000225097 0)
(0.0021923 -0.000182193 0)
(0.00223871 -9.25383e-05 0)
(0.00219936 1.51324e-05 0)
(0.00208723 0.000110237 0)
(0.00192128 0.000189368 0)
(0.00170589 0.000261479 0)
(0.00144076 0.000329938 0)
(0.00112922 0.000395286 0)
(0.00077677 0.000460859 0)
(0.000376241 0.000532449 0)
(-0.00010028 0.000591471 0)
(-0.000599967 0.000591529 0)
(-0.00104803 0.000553033 0)
(-0.00146471 0.000504829 0)
(-0.00185105 0.000442524 0)
(-0.00218509 0.00036515 0)
(-0.00245015 0.000279775 0)
(-0.00264203 0.000196498 0)
(-0.0027686 0.000125769 0)
(-0.0028461 7.75078e-05 0)
(-0.00289715 5.34887e-05 0)
(-0.00294153 5.22966e-05 0)
(-0.00300025 5.74083e-05 0)
(-0.00307278 4.88052e-05 0)
(-0.00315326 -4.19447e-06 0)
(-0.00320069 -0.000137822 0)
(-0.00315006 -0.000380281 0)
(-0.00290986 -0.000726337 0)
(-0.00235208 -0.00116201 0)
(-0.00121838 -0.00128626 0)
(-0.000157444 -0.000665197 0)
(0.000172749 2.13596e-05 0)
(0.000154105 0.000242838 0)
(2.92441e-05 0.000224604 0)
(-3.76752e-05 0.000110322 0)
(2.74788e-05 -4.48798e-05 0)
(0.000150793 -0.000123651 0)
(0.000281761 -0.000148817 0)
(0.000394206 -0.000140583 0)
(0.000479657 -0.000110159 0)
(0.000529836 -6.91486e-05 0)
(0.00054626 -3.11351e-05 0)
(0.000536428 -9.13262e-07 0)
(0.00050881 2.15535e-05 0)
(0.000468366 3.75981e-05 0)
(0.000419558 4.84852e-05 0)
(0.000365252 5.59997e-05 0)
(0.00030698 6.19524e-05 0)
(0.000244787 6.73638e-05 0)
(0.000177661 7.13169e-05 0)
(0.000106575 6.93378e-05 0)
(3.86259e-05 5.35549e-05 0)
(-6.47325e-06 2.20365e-05 0)
(-6.97077e-06 -4.64296e-06 0)
(-9.6784e-06 -1.25726e-06 0)
(-4.92161e-06 -3.26219e-06 0)
(7.69612e-06 1.66448e-05 0)
(2.18265e-05 6.18287e-05 0)
(2.57536e-05 0.000108609 0)
(1.19838e-05 0.000129306 0)
(-1.5357e-05 0.000105316 0)
(-4.66406e-05 3.62686e-05 0)
(-7.54571e-05 -7.25891e-05 0)
(-0.000101254 -0.000210855 0)
(-0.000126028 -0.000376414 0)
(-0.000149378 -0.000568547 0)
(-0.000168799 -0.00078339 0)
(-0.000180288 -0.00101439 0)
(-0.000179599 -0.0012538 0)
(-0.000159008 -0.00148791 0)
(-0.000108602 -0.00169355 0)
(-1.86439e-05 -0.00183891 0)
(0.000120935 -0.00188561 0)
(0.000312217 -0.00178047 0)
(0.000532289 -0.00146509 0)
(0.000697802 -0.00089972 0)
(0.000662678 -0.000165585 0)
(0.000414134 0.000501218 0)
(0.000183599 0.000891573 0)
(0.000112116 0.00106928 0)
(8.4611e-05 0.00122293 0)
(2.24141e-05 0.00130836 0)
(-6.97896e-05 0.00130479 0)
(-0.000165982 0.0012021 0)
(-0.000259641 0.00100288 0)
(-0.000356635 0.000714273 0)
(-0.000432615 0.000322053 0)
(-0.000421042 -0.000129889 0)
(-0.000331776 -0.000510195 0)
(-0.000205162 -0.000759329 0)
(-7.66414e-05 -0.0008457 0)
(3.99143e-05 -0.000774736 0)
(0.000122532 -0.000601629 0)
(0.000180274 -0.000391061 0)
(0.000240611 -0.000208288 0)
(0.000326226 -9.62861e-05 0)
(0.000386759 -2.2814e-05 0)
(0.000375147 6.77319e-05 0)
(-1.48754e-05 0.000137576 0)
(-0.000595209 7.21654e-05 0)
(-0.00104725 -0.000184838 0)
(-0.00111089 -0.000465159 0)
(-0.00116159 -0.000894818 0)
(-0.000670618 -0.00107792 0)
(8.6122e-05 -0.000627725 0)
(0.00060231 -7.78193e-05 0)
(0.000715146 0.000553832 0)
(0.000655718 0.000997802 0)
(0.000656002 0.00138944 0)
(0.000607445 0.00177108 0)
(0.000564552 0.00209637 0)
(0.000516161 0.00239894 0)
(0.00046887 0.00266215 0)
(0.000424694 0.00289858 0)
(0.000384072 0.00310559 0)
(0.000346792 0.00328948 0)
(0.000312028 0.00345039 0)
(0.000279385 0.00359167 0)
(0.000248021 0.00371439 0)
(0.000217723 0.00382042 0)
(0.000188244 0.003911 0)
(0.000159833 0.00398755 0)
(0.000132811 0.00405148 0)
(0.000107724 0.00410435 0)
(8.50838e-05 0.00414787 0)
(6.54227e-05 0.00418384 0)
(4.92205e-05 0.00421423 0)
(3.70225e-05 0.00424102 0)
(2.95717e-05 0.0042662 0)
(2.78753e-05 0.00429169 0)
(3.30959e-05 0.00431926 0)
(4.62803e-05 0.00435052 0)
(6.78873e-05 0.00438698 0)
(9.71205e-05 0.00442993 0)
(0.00013131 0.00448018 0)
(0.000165796 0.00453751 0)
(0.000194545 0.00460027 0)
(0.000211461 0.00466502 0)
(0.000212105 0.00472671 0)
(0.000195106 0.00477958 0)
(0.000162857 0.00481835 0)
(0.000120982 0.00483963 0)
(7.65591e-05 0.00484273 0)
(3.66319e-05 0.00482944 0)
(6.04443e-06 0.00480493 0)
(-1.5274e-05 0.00477478 0)
(-3.01547e-05 0.00474209 0)
(-4.12471e-05 0.00470779 0)
(-4.98349e-05 0.00467198 0)
(-5.6173e-05 0.00463497 0)
(-6.03715e-05 0.00459744 0)
(-6.28212e-05 0.00456007 0)
(-6.40868e-05 0.00452326 0)
(-6.46217e-05 0.00448709 0)
(-6.46414e-05 0.00445156 0)
(-6.42056e-05 0.00441675 0)
(-6.33401e-05 0.00438277 0)
(-6.20787e-05 0.00434977 0)
(-6.04261e-05 0.00431788 0)
(-5.83343e-05 0.00428722 0)
(-5.57296e-05 0.00425799 0)
(-5.25513e-05 0.00423042 0)
(-4.87659e-05 0.00420475 0)
(-4.43642e-05 0.00418122 0)
(-3.93706e-05 0.00416007 0)
(-3.38586e-05 0.0041415 0)
(-2.79571e-05 0.0041257 0)
(-2.18424e-05 0.00411277 0)
(-1.57266e-05 0.00410273 0)
(-9.81448e-06 0.00409551 0)
(-4.2091e-06 0.00409091 0)
(1.04051e-06 0.00408872 0)
(5.92086e-06 0.00408866 0)
(1.05812e-05 0.00409054 0)
(1.49563e-05 0.00409448 0)
(1.86709e-05 0.00410036 0)
(2.15425e-05 0.00410775 0)
(2.37104e-05 0.00411635 0)
(2.54575e-05 0.00412605 0)
(2.71836e-05 0.00413687 0)
(2.94392e-05 0.00414898 0)
(3.2944e-05 0.00416272 0)
(3.86033e-05 0.00417862 0)
(4.75437e-05 0.00419741 0)
(6.11658e-05 0.00422005 0)
(8.11884e-05 0.00424773 0)
(0.000109707 0.00428189 0)
(0.000149279 0.00432418 0)
(0.000202957 0.00437659 0)
(0.000274158 0.00444157 0)
(0.0003663 0.00452229 0)
(0.000481961 0.00462315 0)
(0.000621178 0.00475023 0)
(0.000778688 0.00491124 0)
(0.000941178 0.00511461 0)
(0.00108748 0.0053666 0)
(0.00119361 0.00566295 0)
(0.00124147 0.0059816 0)
(0.001228 0.00629408 0)
(0.00116452 0.00657751 0)
(0.00106782 0.00682164 0)
(0.00095198 0.00702761 0)
(0.000825458 0.00720014 0)
(0.000692356 0.00734184 0)
(0.000555778 0.00745264 0)
(0.000418812 0.00753293 0)
(0.000283019 0.00758447 0)
(0.000149872 0.00760805 0)
(2.2245e-05 0.00760435 0)
(-9.63789e-05 0.00757683 0)
(-0.00020826 0.00753189 0)
(-0.000317102 0.00746871 0)
(-0.000421192 0.00738697 0)
(-0.000520538 0.00728918 0)
(-0.000616073 0.00717609 0)
(-0.000707615 0.00704828 0)
(-0.000795367 0.00690722 0)
(-0.000879804 0.00675391 0)
(-0.000961143 0.00658915 0)
(-0.00103968 0.00641398 0)
(-0.00111581 0.00622934 0)
(-0.00118989 0.006036 0)
(-0.0012623 0.00583482 0)
(-0.00133347 0.00562656 0)
(-0.00140388 0.00541193 0)
(-0.00147401 0.0051916 0)
(-0.00154442 0.00496617 0)
(-0.00161572 0.00473615 0)
(-0.00168856 0.00450198 0)
(-0.00176366 0.00426394 0)
(-0.00184178 0.00402219 0)
(-0.00192374 0.00377667 0)
(-0.00201036 0.0035271 0)
(-0.00210244 0.00327294 0)
(-0.00220073 0.00301345 0)
(-0.00230589 0.00274772 0)
(-0.00241846 0.00247475 0)
(-0.00253892 0.00219367 0)
(-0.00266777 0.00190379 0)
(-0.00280561 0.00160474 0)
(-0.00295281 0.00129647 0)
(-0.00310942 0.00097935 0)
(-0.00327773 0.000654205 0)
(-0.00346347 0.000321072 0)
(-0.00366872 -2.09121e-05 0)
(-0.00389359 -0.000371486 0)
(-0.00414425 -0.000733775 0)
(-0.00442532 -0.00109675 0)
(-0.00475246 -0.00150765 0)
(-0.00509277 -0.00185272 0)
(-0.00553771 -0.00241004 0)
(-0.00585934 -0.00255678 0)
(-0.00650112 -0.00358723 0)
(-0.00623023 -0.00281474 0)
)
;
    }
    frontAndBack
    {
        type            empty;
    }
}


// ************************************************************************* //
