/*--------------------------------*- C++ -*----------------------------------*\
  =========                 |
  \\      /  F ield         | OpenFOAM: The Open Source CFD Toolbox
   \\    /   O peration     | Website:  https://openfoam.org
    \\  /    A nd           | Version:  7
     \\/     M anipulation  |
\*---------------------------------------------------------------------------*/
FoamFile
{
    version     2.0;
    format      ascii;
    class       volScalarField;
    location    "0.13";
    object      nut;
}
// * * * * * * * * * * * * * * * * * * * * * * * * * * * * * * * * * * * * * //

dimensions      [0 2 -1 0 0 0 0];

internalField   nonuniform List<scalar> 
70000
(
9.9625e-12
6.87862e-14
2.57052e-16
8.66844e-17
4.74939e-17
7.81685e-17
2.73938e-17
1.27725e-17
8.64114e-18
6.293e-18
4.59889e-18
3.41774e-18
2.59772e-18
2.01439e-18
1.58829e-18
1.27001e-18
1.02759e-18
8.39908e-19
6.92315e-19
5.74721e-19
4.79803e-19
4.02354e-19
3.38418e-19
2.85211e-19
2.40374e-19
2.0247e-19
1.69854e-19
1.42024e-19
1.17473e-19
9.66221e-20
7.75903e-20
6.19217e-20
4.70105e-20
3.5514e-20
2.43704e-20
1.62707e-20
9.49837e-21
4.13123e-21
2.2388e-21
2.74735e-23
2.76122e-22
7.36992e-21
1.44415e-21
3.81751e-19
1.49017e-19
9.43975e-18
1.41276e-17
2.99021e-16
6.43551e-15
6.4167e-13
1.04272e-10
5.9884e-12
6.44669e-14
2.14246e-14
2.89151e-16
1.696e-17
2.51601e-17
2.11086e-17
1.22494e-17
7.27949e-18
4.76442e-18
3.31688e-18
2.39744e-18
1.78254e-18
1.35708e-18
1.0542e-18
8.33265e-19
6.68389e-19
5.43016e-19
4.45947e-19
3.69677e-19
3.08868e-19
2.59856e-19
2.19792e-19
1.8688e-19
1.59333e-19
1.36454e-19
1.16769e-19
1.00505e-19
8.58761e-20
7.42851e-20
6.29736e-20
5.48817e-20
4.58422e-20
4.0147e-20
3.35346e-20
2.8384e-20
2.67341e-20
1.81824e-20
2.86867e-20
1.42263e-20
4.86864e-20
1.76493e-19
4.62953e-19
2.93594e-18
1.25728e-17
9.71041e-17
6.46607e-16
2.70103e-14
8.52995e-14
3.19133e-10
3.39973e-12
1.91162e-13
1.9934e-14
7.72796e-16
5.94487e-17
7.53128e-18
4.31054e-18
2.20641e-18
1.10438e-18
6.17287e-19
3.81287e-19
2.50651e-19
1.71877e-19
1.21957e-19
8.91803e-20
6.70304e-20
5.16422e-20
4.07156e-20
3.27888e-20
2.69526e-20
2.25967e-20
1.93365e-20
1.68842e-20
1.50941e-20
1.38027e-20
1.30129e-20
1.25943e-20
1.2711e-20
1.31937e-20
1.44907e-20
1.63147e-20
1.96611e-20
2.41821e-20
3.16685e-20
4.27152e-20
5.88932e-20
8.76872e-20
1.21925e-19
2.03397e-19
2.79862e-19
5.60564e-19
1.06188e-18
2.28651e-18
6.84913e-18
2.96638e-17
1.47443e-16
9.80145e-16
3.17638e-14
1.09034e-13
6.15322e-09
1.9289e-11
7.85589e-13
6.1265e-14
5.52906e-15
9.40127e-16
1.1325e-16
3.05753e-17
1.29204e-17
5.81683e-18
2.7727e-18
1.45854e-18
8.39677e-19
5.16945e-19
3.3533e-19
2.27557e-19
1.60925e-19
1.18286e-19
9.01961e-20
7.1254e-20
5.82741e-20
4.93267e-20
4.32258e-20
3.92433e-20
3.69502e-20
3.61247e-20
3.67168e-20
3.88359e-20
4.27517e-20
4.9023e-20
5.83945e-20
7.24193e-20
9.2725e-20
1.23654e-19
1.68265e-19
2.39687e-19
3.41357e-19
5.17237e-19
7.56805e-19
1.22556e-18
1.80784e-18
3.21513e-18
4.75202e-18
1.00963e-17
2.11175e-17
5.52303e-17
2.26738e-16
7.23168e-16
2.7204e-14
1.62485e-13
2.31941e-09
2.23507e-10
4.46564e-12
3.22816e-13
2.32212e-14
4.46056e-15
7.37644e-16
2.09264e-16
8.63493e-17
3.8824e-17
1.84722e-17
9.58371e-18
5.4078e-18
3.26097e-18
2.07387e-18
1.38098e-18
9.58736e-19
6.91842e-19
5.17763e-19
4.01201e-19
3.21563e-19
2.66476e-19
2.28345e-19
2.02472e-19
1.85973e-19
1.77196e-19
1.75385e-19
1.80601e-19
1.93559e-19
2.1626e-19
2.51249e-19
3.04507e-19
3.81691e-19
4.99776e-19
6.68972e-19
9.41042e-19
1.32493e-18
1.99421e-18
2.89941e-18
4.67463e-18
6.88908e-18
1.20322e-17
1.76468e-17
3.51632e-17
6.4769e-17
1.20853e-16
4.25618e-16
5.39043e-16
2.52398e-14
1.39017e-13
3.00543e-09
5.28465e-09
4.37196e-11
1.95289e-12
1.08971e-13
1.82466e-14
3.31437e-15
9.74434e-16
4.00109e-16
1.80642e-16
8.63896e-17
4.47108e-17
2.50116e-17
1.49084e-17
9.35974e-18
6.14813e-18
4.20798e-18
2.99195e-18
2.20486e-18
1.68115e-18
1.32477e-18
1.07834e-18
9.06693e-19
7.87998e-19
7.08648e-19
6.60377e-19
6.38736e-19
6.42297e-19
6.7211e-19
7.33134e-19
8.32261e-19
9.86265e-19
1.21106e-18
1.55537e-18
2.04724e-18
2.83676e-18
3.94432e-18
5.87454e-18
8.47404e-18
1.35534e-17
1.99505e-17
3.43038e-17
5.1488e-17
9.47213e-17
1.64202e-16
2.74947e-16
8.52614e-16
6.19745e-16
2.4392e-14
1.131e-13
1.07671e-09
4.76814e-09
3.72319e-09
1.85985e-11
6.77788e-13
9.30522e-14
1.55194e-14
4.26008e-15
1.657e-15
7.28146e-16
3.43432e-16
1.75709e-16
9.71389e-17
5.72062e-17
3.54793e-17
2.3017e-17
1.55535e-17
1.09136e-17
7.93294e-18
5.96248e-18
4.62827e-18
3.7079e-18
3.06574e-18
2.61743e-18
2.31002e-18
2.11044e-18
1.99942e-18
1.96776e-18
2.01429e-18
2.14868e-18
2.38611e-18
2.76692e-18
3.32896e-18
4.19207e-18
5.42277e-18
7.38936e-18
1.01387e-17
1.48937e-17
2.13073e-17
3.36572e-17
4.94712e-17
8.35833e-17
1.26726e-16
2.2152e-16
3.74085e-16
5.96674e-16
1.70477e-15
1.109e-15
2.46848e-14
9.1341e-14
2.42975e-09
3.87273e-09
8.2491e-10
2.44163e-09
8.71915e-12
7.25036e-13
9.269e-14
2.13028e-14
7.3651e-15
2.99941e-15
1.3432e-15
6.61254e-16
3.54724e-16
2.0387e-16
1.23874e-16
7.89314e-17
5.24725e-17
3.62584e-17
2.59683e-17
1.92347e-17
1.47124e-17
1.16104e-17
9.45102e-18
7.93855e-18
6.88757e-18
6.1807e-18
5.74674e-18
5.54619e-18
5.56419e-18
5.81415e-18
6.3249e-18
7.18416e-18
8.47459e-18
1.04651e-17
1.33035e-17
1.78108e-17
2.41026e-17
3.48501e-17
4.94204e-17
7.6857e-17
1.12749e-16
1.86862e-16
2.85074e-16
4.85415e-16
8.22374e-16
1.24189e-15
3.32169e-15
2.47341e-15
2.67583e-14
7.31282e-14
3.3716e-09
4.37361e-09
5.93059e-10
3.008e-10
5.50932e-10
1.89545e-11
9.84084e-13
1.50552e-13
4.14122e-14
1.45771e-14
5.88805e-15
2.68275e-15
1.3558e-15
7.43466e-16
4.34954e-16
2.68611e-16
1.73896e-16
1.17425e-16
8.23913e-17
5.98931e-17
4.50126e-17
3.49267e-17
2.79625e-17
2.31003e-17
1.97068e-17
1.73812e-17
1.58759e-17
1.5043e-17
1.48106e-17
1.51799e-17
1.61966e-17
1.80392e-17
2.08801e-17
2.5296e-17
3.16068e-17
4.15607e-17
5.5449e-17
7.88205e-17
1.10709e-16
1.69189e-16
2.47458e-16
4.01544e-16
6.15984e-16
1.02e-15
1.74798e-15
2.57112e-15
6.36083e-15
5.70098e-15
3.19681e-14
6.11161e-14
3.41333e-09
4.6109e-09
6.74977e-10
1.94256e-10
4.74975e-11
6.7709e-11
3.28713e-10
2.94529e-12
4.10922e-13
1.03587e-13
3.39745e-14
1.33829e-14
6.07371e-15
3.06678e-15
1.68083e-15
9.84562e-16
6.1014e-16
3.97127e-16
2.70003e-16
1.90954e-16
1.40044e-16
1.06276e-16
8.33468e-17
6.75184e-17
5.65187e-17
4.89286e-17
4.38707e-17
4.08028e-17
3.94277e-17
3.96531e-17
4.1517e-17
4.53656e-17
5.15454e-17
6.12834e-17
7.52625e-17
9.71834e-17
1.27765e-16
1.78425e-16
2.47959e-16
3.72002e-16
5.41483e-16
8.60049e-16
1.32162e-15
2.13371e-15
3.66304e-15
5.35997e-15
1.22601e-14
1.2796e-14
4.30639e-14
5.84407e-14
3.21437e-09
4.39479e-09
7.76557e-10
2.0297e-10
3.69162e-11
2.2084e-11
1.36953e-11
2.13713e-11
1.76892e-10
2.43644e-12
3.88656e-13
1.06241e-13
3.83614e-14
1.65211e-14
8.0459e-15
4.30021e-15
2.47649e-15
1.51801e-15
9.81697e-16
6.65438e-16
4.70502e-16
3.45792e-16
2.63545e-16
2.08023e-16
1.70001e-16
1.43881e-16
1.26253e-16
1.14996e-16
1.08879e-16
1.07325e-16
1.10176e-16
1.18052e-16
1.31606e-16
1.53503e-16
1.85193e-16
2.34716e-16
3.03805e-16
4.16497e-16
5.71915e-16
8.41597e-16
1.21656e-15
1.89148e-15
2.89994e-15
4.5849e-15
7.80459e-15
1.15353e-14
2.45099e-14
2.82514e-14
6.61012e-14
7.06349e-14
3.02014e-09
3.97667e-09
8.49551e-10
2.14016e-10
3.92591e-11
2.04199e-11
8.82052e-12
4.75431e-12
4.3634e-12
7.09791e-12
7.82869e-11
5.80464e-12
6.52119e-13
1.69862e-13
6.16471e-14
2.70428e-14
1.34902e-14
7.40799e-15
4.39061e-15
2.77206e-15
1.84753e-15
1.2915e-15
9.42723e-16
7.16471e-16
5.66081e-16
4.6468e-16
3.96444e-16
3.51762e-16
3.24926e-16
3.12837e-16
3.13986e-16
3.29155e-16
3.59326e-16
4.10515e-16
4.85748e-16
6.03471e-16
7.67792e-16
1.03197e-15
1.39757e-15
2.01476e-15
2.88536e-15
4.38866e-15
6.69069e-15
1.03727e-14
1.74423e-14
2.58977e-14
5.14749e-14
6.39729e-14
1.16568e-13
1.13185e-13
2.84892e-09
3.51698e-09
9.11523e-10
2.11586e-10
4.28627e-11
2.20181e-11
9.27056e-12
4.06539e-12
2.58602e-12
2.02734e-12
1.85877e-12
2.2086e-12
4.50549e-12
8.13247e-11
3.60054e-12
5.17387e-13
1.55257e-13
6.29401e-14
3.03677e-14
1.64974e-14
9.79676e-15
6.24714e-15
4.22966e-15
3.01826e-15
2.25967e-15
1.76998e-15
1.44875e-15
1.23854e-15
1.10601e-15
1.03224e-15
1.0065e-15
1.02683e-15
1.09265e-15
1.21798e-15
1.40855e-15
1.71014e-15
2.13238e-15
2.80282e-15
3.73298e-15
5.26111e-15
7.44125e-15
1.10581e-14
1.67012e-14
2.538e-14
4.20358e-14
6.21166e-14
1.16433e-13
1.53369e-13
2.38117e-13
2.35005e-13
2.67909e-09
3.06175e-09
9.80853e-10
2.00566e-10
4.61281e-11
2.35578e-11
1.05787e-11
4.39881e-12
2.54013e-12
1.72287e-12
1.23992e-12
9.6525e-13
8.43989e-13
8.53395e-13
1.05203e-12
1.82336e-12
7.84729e-12
2.25368e-11
1.11416e-12
2.83893e-13
1.11756e-13
5.46746e-14
3.06866e-14
1.90175e-14
1.27457e-14
9.1262e-15
6.93149e-15
5.5604e-15
4.69894e-15
4.17772e-15
3.9007e-15
3.82645e-15
3.9287e-15
4.23612e-15
4.75217e-15
5.60212e-15
6.8061e-15
8.70476e-15
1.1346e-14
1.5573e-14
2.16529e-14
3.13623e-14
4.66896e-14
6.949e-14
1.12724e-13
1.66105e-13
2.94456e-13
4.01508e-13
5.69214e-13
6.04509e-13
2.5008e-09
2.62718e-09
1.06106e-09
1.86623e-10
4.9544e-11
2.45408e-11
1.20422e-11
4.95573e-12
2.78163e-12
1.82635e-12
1.23968e-12
8.72286e-13
6.53672e-13
5.25096e-13
4.52519e-13
4.21122e-13
4.29426e-13
4.92461e-13
6.67603e-13
1.20063e-12
4.21488e-12
1.638e-10
1.96209e-12
4.68598e-13
1.91701e-13
1.00465e-13
6.13256e-14
4.17815e-14
3.10758e-14
2.49185e-14
2.13535e-14
1.94754e-14
1.87764e-14
1.91525e-14
2.04599e-14
2.30581e-14
2.69354e-14
3.31467e-14
4.18599e-14
5.55022e-14
7.52477e-14
1.05653e-13
1.53925e-13
2.23681e-13
3.53352e-13
5.1694e-13
8.69849e-13
1.21206e-12
1.63872e-12
1.89666e-12
2.31463e-09
2.22725e-09
1.1468e-09
1.72391e-10
5.35846e-11
2.51019e-11
1.35632e-11
5.58731e-12
3.09634e-12
2.03049e-12
1.36936e-12
9.40036e-13
6.74258e-13
5.07877e-13
3.99985e-13
3.28873e-13
2.82843e-13
2.5533e-13
2.43037e-13
2.4544e-13
2.65359e-13
3.11566e-13
4.06959e-13
6.18942e-13
1.21304e-12
4.1749e-12
4.92164e-10
4.59505e-12
1.10747e-12
5.03219e-13
3.01896e-13
2.14632e-13
1.71848e-13
1.51591e-13
1.44086e-13
1.4727e-13
1.58629e-13
1.81627e-13
2.16146e-13
2.70761e-13
3.51025e-13
4.7084e-13
6.61873e-13
9.30211e-13
1.41805e-12
2.04359e-12
3.26963e-12
4.60289e-12
6.0881e-12
7.60253e-12
2.12287e-09
1.86821e-09
1.23077e-09
1.58916e-10
5.82959e-11
2.53719e-11
1.51701e-11
6.29373e-12
3.44539e-12
2.26991e-12
1.54395e-12
1.05912e-12
7.52376e-13
5.57037e-13
4.27356e-13
3.38495e-13
2.76745e-13
2.33782e-13
2.04295e-13
1.84902e-13
1.73562e-13
1.69246e-13
1.7185e-13
1.82298e-13
2.03024e-13
2.39006e-13
3.00492e-13
4.09275e-13
6.17435e-13
1.0721e-12
2.3081e-12
7.45473e-12
5.85174e-11
4.24694e-11
9.18326e-12
4.64142e-12
3.25754e-12
2.77403e-12
2.66374e-12
2.81814e-12
3.21174e-12
3.8627e-12
4.98644e-12
6.52988e-12
9.34077e-12
1.29716e-11
1.95651e-11
2.74282e-11
3.5628e-11
4.6931e-11
1.92718e-09
1.55045e-09
1.30637e-09
1.46972e-10
6.3433e-11
2.54195e-11
1.68678e-11
7.10285e-12
3.83404e-12
2.53528e-12
1.74503e-12
1.2044e-12
8.56134e-13
6.32568e-13
4.82906e-13
3.79023e-13
3.05503e-13
2.5295e-13
2.1523e-13
1.88257e-13
1.69315e-13
1.56623e-13
1.49082e-13
1.4614e-13
1.47738e-13
1.54346e-13
1.67077e-13
1.88016e-13
2.20661e-13
2.71184e-13
3.50001e-13
4.76745e-13
6.86724e-13
1.05382e-12
1.72523e-12
3.05208e-12
5.85599e-12
1.2456e-11
2.96077e-11
7.78497e-11
1.52779e-10
1.93997e-14
2.52466e-10
3.27213e-10
3.66439e-10
4.19546e-10
5.21752e-10
6.75566e-10
7.54867e-10
9.10781e-10
1.72975e-09
1.27383e-09
1.36792e-09
1.37457e-10
6.85917e-11
2.53145e-11
1.86224e-11
8.03929e-12
4.27394e-12
2.83069e-12
1.97258e-12
1.37254e-12
9.78852e-13
7.24779e-13
5.542e-13
4.35131e-13
3.50203e-13
2.88904e-13
2.44331e-13
2.11822e-13
1.8822e-13
1.71389e-13
1.59917e-13
1.52935e-13
1.5002e-13
1.51151e-13
1.56701e-13
1.67545e-13
1.85129e-13
2.11925e-13
2.51573e-13
3.10377e-13
3.9749e-13
5.2965e-13
7.31292e-13
1.04927e-12
1.55382e-12
2.38103e-12
3.74751e-12
6.04794e-12
9.97749e-12
1.65907e-11
2.80329e-11
4.6411e-11
7.70596e-11
1.20596e-10
1.83909e-10
2.5722e-10
3.42646e-10
4.45155e-10
1.53337e-09
1.03801e-09
1.41055e-09
1.3133e-10
7.32499e-11
2.51574e-11
2.03742e-11
9.12341e-12
4.77596e-12
3.16162e-12
2.23043e-12
1.56641e-12
1.12165e-12
8.33014e-13
6.39067e-13
5.03329e-13
4.06126e-13
3.35685e-13
2.84249e-13
2.46535e-13
2.18933e-13
1.98975e-13
1.85001e-13
1.75956e-13
1.71265e-13
1.70776e-13
1.74716e-13
1.83772e-13
1.99083e-13
2.22608e-13
2.57107e-13
3.07266e-13
3.79467e-13
4.85004e-13
6.39179e-13
8.69818e-13
1.21563e-12
1.74552e-12
2.56312e-12
3.83389e-12
5.84719e-12
8.96586e-12
1.39961e-11
2.15795e-11
3.37247e-11
5.09711e-11
7.66769e-11
1.10385e-10
1.55074e-10
2.2333e-10
1.34095e-09
8.41818e-10
1.43021e-09
1.29501e-10
7.68089e-11
2.508e-11
2.20477e-11
1.03732e-11
5.35132e-12
3.5334e-12
2.52256e-12
1.79019e-12
1.2879e-12
9.59546e-13
7.38853e-13
5.84171e-13
4.73109e-13
3.92466e-13
3.33531e-13
2.90323e-13
2.58721e-13
2.35893e-13
2.19922e-13
2.0958e-13
2.04189e-13
2.03555e-13
2.07907e-13
2.1798e-13
2.34981e-13
2.6097e-13
2.98797e-13
3.53205e-13
4.3056e-13
5.41759e-13
7.01465e-13
9.34991e-13
1.27772e-12
1.78817e-12
2.55601e-12
3.71187e-12
5.49072e-12
8.16203e-12
1.23353e-11
1.84845e-11
2.80163e-11
4.14819e-11
6.11676e-11
8.7724e-11
1.24226e-10
1.82341e-10
1.15547e-09
6.82947e-10
1.42405e-09
1.32783e-10
7.87085e-11
2.52286e-11
2.35601e-11
1.1803e-11
6.01296e-12
3.95189e-12
2.85283e-12
2.04828e-12
1.48164e-12
1.10761e-12
8.56124e-13
6.79706e-13
5.52751e-13
4.60436e-13
3.92995e-13
3.43661e-13
3.07736e-13
2.81974e-13
2.64172e-13
2.52922e-13
2.47456e-13
2.47578e-13
2.53594e-13
2.66408e-13
2.87482e-13
3.19254e-13
3.6509e-13
4.30451e-13
5.22716e-13
6.54055e-13
8.4112e-13
1.11121e-12
1.50345e-12
2.07857e-12
2.93209e-12
4.1947e-12
6.10433e-12
8.92461e-12
1.32336e-11
1.95036e-11
2.89699e-11
4.22957e-11
6.14329e-11
8.76026e-11
1.24499e-10
1.83451e-10
9.79821e-10
5.58073e-10
1.39066e-09
1.41868e-10
7.85681e-11
2.57398e-11
2.48335e-11
1.34203e-11
6.77608e-12
4.42398e-12
3.22526e-12
2.34534e-12
1.70742e-12
1.28099e-12
9.94023e-13
7.92641e-13
6.47423e-13
5.41682e-13
4.64489e-13
4.08203e-13
3.67469e-13
3.38568e-13
3.18973e-13
3.07078e-13
3.02029e-13
3.03659e-13
3.12412e-13
3.29458e-13
3.56659e-13
3.97043e-13
4.54809e-13
5.3659e-13
6.51472e-13
8.13921e-13
1.04416e-12
1.37389e-12
1.84966e-12
2.54024e-12
3.55574e-12
5.04106e-12
7.25808e-12
1.0496e-11
1.53544e-11
2.23574e-11
3.27038e-11
4.71961e-11
6.77275e-11
9.59671e-11
1.36412e-10
2.00168e-10
8.16698e-10
4.63065e-10
1.33041e-09
1.57291e-10
7.62575e-11
2.67173e-11
2.58075e-11
1.52213e-11
7.65845e-12
4.95794e-12
3.64421e-12
2.68623e-12
1.97033e-12
1.48402e-12
1.15619e-12
9.26174e-13
7.60006e-13
6.3884e-13
5.5047e-13
4.86283e-13
4.40179e-13
4.07898e-13
3.86542e-13
3.74283e-13
3.70184e-13
3.74136e-13
3.86784e-13
4.09661e-13
4.45179e-13
4.97166e-13
5.70959e-13
6.74779e-13
8.20053e-13
1.02441e-12
1.31298e-12
1.72371e-12
2.31331e-12
3.16268e-12
4.40192e-12
6.19887e-12
8.84997e-12
1.2687e-11
1.83526e-11
2.64462e-11
3.81912e-11
5.45248e-11
7.7416e-11
1.08914e-10
1.54334e-10
2.24332e-10
6.68406e-10
3.93286e-10
1.24555e-09
1.79288e-10
7.19314e-11
2.8215e-11
2.64511e-11
1.71858e-11
8.68016e-12
5.56349e-12
4.11455e-12
3.07604e-12
2.276e-12
1.72166e-12
1.34683e-12
1.08401e-12
8.93886e-13
7.5506e-13
6.5392e-13
5.80792e-13
5.28732e-13
4.92859e-13
4.69849e-13
4.57627e-13
4.5517e-13
4.62466e-13
4.8043e-13
5.11076e-13
5.57538e-13
6.24676e-13
7.193e-13
8.51676e-13
1.03623e-12
1.29465e-12
1.65825e-12
2.17301e-12
2.90821e-12
3.96034e-12
5.48364e-12
7.67533e-12
1.08727e-11
1.54601e-11
2.2134e-11
3.15759e-11
4.50625e-11
6.36561e-11
8.94735e-11
1.24843e-10
1.75804e-10
2.52217e-10
5.36668e-10
3.43923e-10
1.14006e-09
2.07575e-10
6.60596e-11
3.02123e-11
2.67741e-11
1.92726e-11
9.86295e-12
6.25205e-12
4.64187e-12
3.51993e-12
2.63059e-12
1.99957e-12
1.57076e-12
1.27043e-12
1.05301e-12
8.94051e-13
7.78394e-13
6.95212e-13
6.36618e-13
5.97021e-13
5.72606e-13
5.61018e-13
5.61155e-13
5.73141e-13
5.98256e-13
6.39135e-13
6.99839e-13
7.86542e-13
9.07923e-13
1.07682e-12
1.3114e-12
1.6384e-12
2.09671e-12
2.74216e-12
3.65902e-12
4.96261e-12
6.83486e-12
9.50752e-12
1.33631e-11
1.88435e-11
2.67042e-11
3.77082e-11
5.31916e-11
7.43309e-11
1.03427e-10
1.42954e-10
1.9951e-10
2.81808e-10
4.22496e-10
3.10206e-10
1.01952e-09
2.41063e-10
5.94078e-11
3.25829e-11
2.68332e-11
2.14179e-11
1.12285e-11
7.03677e-12
5.23264e-12
4.02311e-12
3.04067e-12
2.32409e-12
1.83349e-12
1.49035e-12
1.24194e-12
1.06015e-12
9.28094e-13
8.33701e-13
7.68045e-13
7.24723e-13
6.9936e-13
6.89281e-13
6.93316e-13
7.11782e-13
7.46434e-13
8.00707e-13
8.79844e-13
9.91673e-13
1.14722e-12
1.36251e-12
1.66032e-12
2.07359e-12
2.65027e-12
3.45811e-12
4.5987e-12
6.20954e-12
8.50334e-12
1.17506e-11
1.63816e-11
2.28987e-11
3.21155e-11
4.48709e-11
6.25636e-11
8.64519e-11
1.19023e-10
1.6278e-10
2.24659e-10
3.11939e-10
3.26119e-10
2.87596e-10
8.91247e-10
2.77515e-10
5.29781e-11
3.50849e-11
2.67276e-11
2.35392e-11
1.27958e-11
7.93265e-12
5.89454e-12
4.59079e-12
3.51309e-12
2.7023e-12
2.14127e-12
1.74934e-12
1.46591e-12
1.2584e-12
1.10795e-12
1.00119e-12
9.28041e-13
8.81195e-13
8.55629e-13
8.48312e-13
8.58014e-13
8.85318e-13
9.326e-13
1.00431e-12
1.10718e-12
1.25113e-12
1.45007e-12
1.72398e-12
2.10125e-12
2.62228e-12
3.34582e-12
4.35365e-12
5.76723e-12
7.74935e-12
1.05463e-11
1.44706e-11
2.00014e-11
2.77007e-11
3.84381e-11
5.31148e-11
7.31893e-11
9.99673e-11
1.36095e-10
1.83986e-10
2.50683e-10
3.41845e-10
2.46885e-10
2.72116e-10
7.63931e-10
3.13423e-10
4.78434e-11
3.74011e-11
2.65859e-11
2.55422e-11
1.45774e-11
8.95676e-12
6.63664e-12
5.22827e-12
4.05476e-12
3.14186e-12
2.50109e-12
2.05372e-12
1.73088e-12
1.4946e-12
1.32371e-12
1.20346e-12
1.12257e-12
1.07269e-12
1.04806e-12
1.04525e-12
1.06298e-12
1.1022e-12
1.16608e-12
1.26036e-12
1.39364e-12
1.5784e-12
1.83217e-12
2.1797e-12
2.65612e-12
3.31082e-12
4.2151e-12
5.46711e-12
7.21058e-12
9.63656e-12
1.30271e-11
1.77386e-11
2.4299e-11
3.33255e-11
4.57387e-11
6.2484e-11
8.50727e-11
1.14813e-10
1.54468e-10
2.06249e-10
2.77096e-10
3.70959e-10
1.83417e-10
2.60498e-10
6.44818e-10
3.44644e-10
4.48586e-11
3.91889e-11
2.65464e-11
2.73333e-11
1.65732e-11
1.01279e-11
7.4695e-12
5.94097e-12
4.67243e-12
3.65095e-12
2.92069e-12
2.4105e-12
2.04352e-12
1.77533e-12
1.58196e-12
1.44725e-12
1.35863e-12
1.30661e-12
1.28457e-12
1.28864e-12
1.31753e-12
1.37265e-12
1.45817e-12
1.58145e-12
1.75342e-12
1.98974e-12
2.31228e-12
2.7516e-12
3.35085e-12
4.16996e-12
5.29469e-12
6.84189e-12
8.97983e-12
1.19302e-11
1.60124e-11
2.16266e-11
2.93472e-11
3.98399e-11
5.4069e-11
7.30014e-11
9.81806e-11
1.30879e-10
1.73928e-10
2.29225e-10
3.03434e-10
3.98819e-10
1.33909e-10
2.49911e-10
5.37644e-10
3.67523e-10
4.4512e-11
4.01362e-11
2.6729e-11
2.8838e-11
1.87649e-11
1.14657e-11
8.40511e-12
6.73471e-12
5.37241e-12
4.238e-12
3.40846e-12
2.82743e-12
2.41126e-12
2.10798e-12
1.89024e-12
1.74033e-12
1.64437e-12
1.59162e-12
1.57452e-12
1.58866e-12
1.63276e-12
1.70883e-12
1.82233e-12
1.9826e-12
2.20345e-12
2.50438e-12
2.91252e-12
3.46534e-12
4.21535e-12
5.23475e-12
6.62564e-12
8.52572e-12
1.11297e-11
1.46917e-11
1.95683e-11
2.62023e-11
3.52092e-11
4.72944e-11
6.34463e-11
8.46572e-11
1.12447e-10
1.47998e-10
1.94197e-10
2.5254e-10
3.29256e-10
4.25025e-10
9.62763e-11
2.38103e-10
4.43907e-10
3.79683e-10
4.70158e-11
4.00754e-11
2.72068e-11
3.00195e-11
2.11126e-11
1.29896e-11
9.4568e-12
7.61593e-12
6.16043e-12
4.91142e-12
3.97339e-12
3.31293e-12
2.84219e-12
2.50072e-12
2.25696e-12
2.09149e-12
1.98913e-12
1.93779e-12
1.9288e-12
1.95718e-12
2.02169e-12
2.12509e-12
2.27442e-12
2.48147e-12
2.76352e-12
3.14473e-12
3.65844e-12
4.35023e-12
5.28343e-12
6.54416e-12
8.25264e-12
1.05693e-11
1.37166e-11
1.79816e-11
2.37571e-11
3.15236e-11
4.19322e-11
5.57123e-11
7.3864e-11
9.73742e-11
1.27718e-10
1.65976e-10
2.14981e-10
2.75804e-10
3.54144e-10
4.49251e-10
6.83332e-11
2.23771e-10
3.64162e-10
3.80232e-10
5.24008e-11
3.90809e-11
2.79883e-11
3.08876e-11
2.3555e-11
1.47164e-11
1.06392e-11
8.59214e-12
7.04166e-12
5.67934e-12
4.62489e-12
3.87611e-12
3.34512e-12
2.96253e-12
2.6915e-12
2.51066e-12
2.40353e-12
2.35659e-12
2.35997e-12
2.40798e-12
2.49945e-12
2.63808e-12
2.83283e-12
3.09845e-12
3.45641e-12
3.93637e-12
4.57894e-12
5.43905e-12
6.59227e-12
8.14022e-12
1.02228e-11
1.30244e-11
1.67958e-11
2.18561e-11
2.86314e-11
3.76342e-11
4.95391e-11
6.50892e-11
8.52768e-11
1.1103e-10
1.43826e-10
1.84588e-10
2.3596e-10
2.98611e-10
3.77698e-10
4.71223e-10
4.80131e-11
2.06517e-10
2.98137e-10
3.69664e-10
6.04674e-11
3.74494e-11
2.9016e-11
3.14972e-11
2.6014e-11
1.66574e-11
1.19681e-11
9.67213e-12
8.02085e-12
6.54925e-12
5.37257e-12
4.52662e-12
3.9295e-12
3.50308e-12
3.20412e-12
3.00883e-12
2.89945e-12
2.86102e-12
2.88228e-12
2.95674e-12
3.08331e-12
3.26681e-12
3.51851e-12
3.85672e-12
4.30781e-12
4.90788e-12
5.70591e-12
6.76744e-12
8.18154e-12
1.00668e-11
1.25837e-11
1.59413e-11
2.04182e-11
2.6363e-11
3.42302e-11
4.4556e-11
5.80271e-11
7.53829e-11
9.75853e-11
1.25508e-10
1.60568e-10
2.03494e-10
2.5675e-10
3.2059e-10
3.99598e-10
4.90753e-10
3.34999e-11
1.86666e-10
2.44775e-10
3.49622e-10
7.06761e-11
3.56116e-11
3.01767e-11
3.19382e-11
2.84034e-11
1.88132e-11
1.34594e-11
1.0866e-11
9.10254e-12
7.52771e-12
6.22595e-12
5.27456e-12
4.6053e-12
4.13267e-12
3.80586e-12
3.59802e-12
3.49005e-12
3.46553e-12
3.5117e-12
3.6211e-12
3.7927e-12
4.03265e-12
4.35493e-12
4.78202e-12
5.34602e-12
6.09045e-12
7.07366e-12
8.37299e-12
1.00922e-11
1.23676e-11
1.5381e-11
1.93657e-11
2.46263e-11
3.1537e-11
4.05741e-11
5.22863e-11
6.73622e-11
8.65125e-11
1.10668e-10
1.40613e-10
1.77659e-10
2.22387e-10
2.77035e-10
3.41419e-10
4.19583e-10
5.07718e-10
2.32843e-11
1.65092e-10
2.02441e-10
3.22544e-10
8.21193e-11
3.40413e-11
3.13248e-11
3.23177e-11
3.06431e-11
2.11704e-11
1.51286e-11
1.21853e-11
1.02915e-11
8.62017e-12
7.19407e-12
6.13027e-12
5.38299e-12
4.86214e-12
4.50849e-12
4.2912e-12
4.18966e-12
4.18602e-12
4.26585e-12
4.42056e-12
4.6491e-12
4.95914e-12
5.36782e-12
5.90241e-12
6.60158e-12
7.51718e-12
8.71797e-12
1.0294e-11
1.23646e-11
1.50843e-11
1.8656e-11
2.33357e-11
2.9451e-11
3.7396e-11
4.76607e-11
6.07954e-11
7.74739e-11
9.83712e-11
1.24356e-10
1.56115e-10
1.94861e-10
2.40996e-10
2.96483e-10
3.60774e-10
4.37428e-10
5.22046e-10
1.61648e-11
1.43033e-10
1.69217e-10
2.91196e-10
9.36139e-11
3.3178e-11
3.23263e-11
3.27385e-11
3.26737e-11
2.36981e-11
1.69892e-11
1.36422e-11
1.15933e-11
9.83097e-12
8.28518e-12
7.10412e-12
6.27333e-12
5.70275e-12
5.32432e-12
5.10209e-12
5.01364e-12
5.03963e-12
5.16384e-12
5.37627e-12
5.6758e-12
6.07173e-12
6.58477e-12
7.24766e-12
8.10644e-12
9.22214e-12
1.06748e-11
1.2568e-11
1.50367e-11
1.82539e-11
2.24423e-11
2.78782e-11
3.49075e-11
4.39377e-11
5.54628e-11
7.00226e-11
8.82648e-11
1.10812e-10
1.38464e-10
1.71791e-10
2.11878e-10
2.58982e-10
3.14782e-10
3.78428e-10
4.53013e-10
5.33744e-10
1.12311e-11
1.21648e-10
1.43188e-10
2.58322e-10
1.03897e-10
3.33553e-11
3.31083e-11
3.32806e-11
3.44685e-11
2.63494e-11
1.90514e-11
1.525e-11
1.30144e-11
1.11636e-11
9.50641e-12
8.2062e-12
7.28732e-12
6.66604e-12
6.26606e-12
6.04508e-12
5.97824e-12
6.04463e-12
6.22605e-12
6.51084e-12
6.89759e-12
7.39734e-12
8.03472e-12
8.84861e-12
9.89311e-12
1.12392e-11
1.29789e-11
1.52296e-11
1.81419e-11
2.19063e-11
2.67632e-11
3.30059e-11
4.0993e-11
5.11376e-11
6.39274e-11
7.98814e-11
9.96052e-11
1.23664e-10
1.52787e-10
1.87386e-10
2.28429e-10
2.76079e-10
3.31719e-10
3.94221e-10
4.66271e-10
5.4286e-10
7.8256e-12
1.01664e-10
1.22617e-10
2.26267e-10
1.11906e-10
3.47364e-11
3.36794e-11
3.39874e-11
3.60369e-11
2.90644e-11
2.13185e-11
1.70219e-11
1.4563e-11
1.26212e-11
1.08636e-11
9.44603e-12
8.43593e-12
7.76373e-12
7.34665e-12
7.13493e-12
7.10031e-12
7.22007e-12
7.47383e-12
7.84789e-12
8.34028e-12
8.96373e-12
9.7472e-12
1.07362e-11
1.19935e-11
1.36008e-11
1.56622e-11
1.83088e-11
2.17066e-11
2.60616e-11
3.16294e-11
3.87155e-11
4.76852e-11
5.89482e-11
7.29776e-11
9.02569e-11
1.1135e-10
1.3673e-10
1.67082e-10
2.02686e-10
2.44315e-10
2.92051e-10
3.47065e-10
4.08002e-10
4.77173e-10
5.49483e-10
5.47728e-12
8.35519e-11
1.06033e-10
1.96561e-10
1.1699e-10
3.72991e-11
3.41276e-11
3.48604e-11
3.74201e-11
3.1779e-11
2.37847e-11
1.89699e-11
1.62482e-11
1.42068e-11
1.23609e-11
1.08321e-11
9.72986e-12
9.00747e-12
8.57903e-12
8.3865e-12
8.39704e-12
8.58551e-12
8.92908e-12
9.41159e-12
1.00301e-11
1.07989e-11
1.17514e-11
1.29403e-11
1.44376e-11
1.63359e-11
1.87516e-11
2.18291e-11
2.57482e-11
3.07284e-11
3.70368e-11
4.49861e-11
5.49411e-11
6.73009e-11
8.25125e-11
1.01021e-10
1.23326e-10
1.49838e-10
1.81129e-10
2.17385e-10
2.59291e-10
3.06757e-10
3.60739e-10
4.1974e-10
4.85752e-10
5.53721e-10
3.85255e-12
6.76717e-11
9.22947e-11
1.69961e-10
1.1897e-10
4.08639e-11
3.46017e-11
3.58724e-11
3.86814e-11
3.44345e-11
2.6433e-11
2.1104e-11
1.80799e-11
1.59237e-11
1.40013e-11
1.23715e-11
1.11791e-11
1.04086e-11
9.97581e-12
9.81442e-12
9.88543e-12
1.01605e-11
1.06137e-11
1.1226e-11
1.19928e-11
1.29298e-11
1.40751e-11
1.54886e-11
1.72521e-11
1.9469e-11
2.22678e-11
2.58053e-11
3.02732e-11
3.59018e-11
4.29655e-11
5.17786e-11
6.26988e-11
7.61065e-11
9.24155e-11
1.12023e-10
1.35365e-10
1.62781e-10
1.9472e-10
2.31357e-10
2.73204e-10
3.20006e-10
3.72593e-10
4.29386e-10
4.92072e-10
5.55723e-10
2.72294e-12
5.4172e-11
8.05887e-11
1.46739e-10
1.18077e-10
4.51245e-11
3.52716e-11
3.6989e-11
3.98924e-11
3.6987e-11
2.92349e-11
2.34303e-11
2.00683e-11
1.77764e-11
1.57863e-11
1.40694e-11
1.27927e-11
1.19778e-11
1.15491e-11
1.14327e-11
1.1582e-11
1.19639e-11
1.25489e-11
1.33142e-11
1.4253e-11
1.5382e-11
1.67435e-11
1.84053e-11
2.04587e-11
2.30182e-11
2.62233e-11
3.0242e-11
3.52759e-11
4.15625e-11
4.93792e-11
5.90364e-11
7.08784e-11
8.52594e-11
1.02556e-10
1.23108e-10
1.47297e-10
1.75364e-10
2.07703e-10
2.44422e-10
2.85846e-10
3.31668e-10
3.82586e-10
4.36972e-10
4.96235e-10
5.55642e-10
1.93336e-12
4.29878e-11
7.03809e-11
1.26846e-10
1.14835e-10
4.96949e-11
3.62869e-11
3.81852e-11
4.11193e-11
3.94137e-11
3.21517e-11
2.59493e-11
2.22226e-11
1.97698e-11
1.77167e-11
1.59292e-11
1.45779e-11
1.37248e-11
1.33099e-11
1.32542e-11
1.35019e-11
1.40136e-11
1.47547e-11
1.56978e-11
1.68332e-11
1.81776e-11
1.9778e-11
2.17094e-11
2.40729e-11
2.69934e-11
3.0621e-11
3.51326e-11
4.07373e-11
4.76765e-11
5.6226e-11
6.66872e-11
7.93849e-11
9.46429e-11
1.12792e-10
1.34124e-10
1.58937e-10
1.87439e-10
2.19903e-10
2.56346e-10
2.97093e-10
3.41736e-10
3.90764e-10
4.42562e-10
4.98343e-10
5.53624e-10
1.37842e-12
3.39103e-11
6.13473e-11
1.10019e-10
1.09889e-10
5.41757e-11
3.77459e-11
3.94582e-11
4.24142e-11
4.17147e-11
3.51397e-11
2.86548e-11
2.45506e-11
2.19096e-11
1.97926e-11
1.7952e-11
1.65401e-11
1.56579e-11
1.52682e-11
1.52905e-11
1.5659e-11
1.63255e-11
1.72488e-11
1.83956e-11
1.97523e-11
2.13352e-11
2.31948e-11
2.54138e-11
2.81025e-11
3.13959e-11
3.54529e-11
4.04581e-11
4.6625e-11
5.41954e-11
6.34395e-11
7.46448e-11
8.8112e-11
1.0413e-10
1.22984e-10
1.44908e-10
1.70144e-10
1.98826e-10
2.31154e-10
2.67132e-10
3.06943e-10
3.50115e-10
3.97041e-10
4.46171e-10
4.98505e-10
5.49826e-10
9.86404e-13
2.66575e-11
5.33057e-11
9.58731e-11
1.03885e-10
5.82198e-11
3.968e-11
4.08294e-11
4.38114e-11
4.391e-11
3.81553e-11
3.15325e-11
2.70569e-11
2.42014e-11
2.20142e-11
2.0137e-11
1.86822e-11
1.77832e-11
1.7432e-11
1.75511e-11
1.80645e-11
1.89129e-11
2.0046e-11
2.14231e-11
2.30254e-11
2.48677e-11
2.7004e-11
2.95238e-11
3.25467e-11
3.62164e-11
4.07e-11
4.61872e-11
5.28935e-11
6.10578e-11
7.09407e-11
8.28121e-11
9.69451e-11
1.13591e-10
1.32988e-10
1.55319e-10
1.80763e-10
2.09395e-10
2.41372e-10
2.76626e-10
3.15255e-10
3.56789e-10
4.01509e-10
4.47929e-10
4.96871e-10
5.44404e-10
7.08275e-13
2.0929e-11
4.61551e-11
8.39914e-11
9.73765e-11
6.15801e-11
4.20529e-11
4.23398e-11
4.53303e-11
4.60331e-11
4.11609e-11
3.45601e-11
2.97417e-11
2.665e-11
2.43813e-11
2.24814e-11
2.10043e-11
2.01045e-11
1.98071e-11
2.0043e-11
2.07269e-11
2.17856e-11
2.31571e-11
2.4791e-11
2.66618e-11
2.87821e-11
3.12082e-11
3.40365e-11
3.73948e-11
4.14354e-11
4.63316e-11
5.22766e-11
5.94852e-11
6.81904e-11
7.86403e-11
9.10844e-11
1.05765e-10
1.22897e-10
1.4267e-10
1.65218e-10
1.90663e-10
2.19042e-10
2.5044e-10
2.84739e-10
3.22024e-10
3.61805e-10
4.04233e-10
4.47912e-10
4.9354e-10
5.37489e-10
5.10249e-13
1.64408e-11
3.9832e-11
7.39775e-11
9.07873e-11
6.41286e-11
4.47699e-11
4.40355e-11
4.69806e-11
4.81234e-11
4.41298e-11
3.77088e-11
3.26e-11
2.9258e-11
2.68933e-11
2.49806e-11
2.35033e-11
2.26221e-11
2.23961e-11
2.27702e-11
2.36511e-11
2.49496e-11
2.65883e-11
2.85047e-11
3.06649e-11
3.30779e-11
3.58019e-11
3.89394e-11
4.26263e-11
4.70223e-11
5.23057e-11
5.86714e-11
6.63313e-11
7.55104e-11
8.64416e-11
9.93519e-11
1.14453e-10
1.3192e-10
1.51899e-10
1.74479e-10
1.99734e-10
2.27673e-10
2.58279e-10
2.91449e-10
3.27257e-10
3.65164e-10
4.05257e-10
4.46227e-10
4.88645e-10
5.29204e-10
3.68867e-13
1.29416e-11
3.4289e-11
6.5487e-11
8.44004e-11
6.58478e-11
4.76961e-11
4.59496e-11
4.8767e-11
5.02191e-11
4.70478e-11
4.09452e-11
3.56202e-11
3.20249e-11
2.95488e-11
2.76286e-11
2.61728e-11
2.53329e-11
2.51985e-11
2.5733e-11
2.68377e-11
2.84057e-11
3.03401e-11
3.25633e-11
3.50307e-11
3.77466e-11
4.07706e-11
4.42107e-11
4.82103e-11
5.29359e-11
5.85696e-11
6.53067e-11
7.33543e-11
8.29275e-11
9.42426e-11
1.07503e-10
1.22889e-10
1.4054e-10
1.60558e-10
1.82992e-10
2.07872e-10
2.3518e-10
2.64842e-10
2.96756e-10
3.30951e-10
3.669e-10
4.04638e-10
4.42969e-10
4.82326e-10
5.197e-10
2.67743e-13
1.02179e-11
2.94819e-11
5.82384e-11
7.83841e-11
6.68006e-11
5.0682e-11
4.80927e-11
5.06935e-11
5.23524e-11
4.99126e-11
4.42353e-11
3.87841e-11
3.49461e-11
3.23447e-11
3.04175e-11
2.90033e-11
2.82294e-11
2.82091e-11
2.89274e-11
3.02828e-11
3.21492e-11
3.44068e-11
3.69587e-11
3.97473e-11
4.27713e-11
4.60906e-11
4.98186e-11
5.41058e-11
5.91249e-11
6.50611e-11
7.21088e-11
8.04691e-11
9.03462e-11
1.01939e-10
1.15427e-10
1.3096e-10
1.48643e-10
1.68538e-10
1.9066e-10
2.14996e-10
2.41493e-10
2.70092e-10
3.00646e-10
3.33134e-10
3.67084e-10
4.02458e-10
4.382e-10
4.74654e-10
5.09081e-10
1.95315e-13
8.09628e-12
2.53538e-11
5.20104e-11
7.28243e-11
6.70973e-11
5.3588e-11
5.04508e-11
5.27648e-11
5.4548e-11
5.27309e-11
4.75472e-11
4.20672e-11
3.80118e-11
3.5275e-11
3.33377e-11