/*--------------------------------*- C++ -*----------------------------------*\
  =========                 |
  \\      /  F ield         | OpenFOAM: The Open Source CFD Toolbox
   \\    /   O peration     | Website:  https://openfoam.org
    \\  /    A nd           | Version:  7
     \\/     M anipulation  |
\*---------------------------------------------------------------------------*/
FoamFile
{
    version     2.0;
    format      ascii;
    class       surfaceScalarField;
    location    "0.13";
    object      phi_0;
}
// * * * * * * * * * * * * * * * * * * * * * * * * * * * * * * * * * * * * * //

dimensions      [0 3 -1 0 0 0 0];

internalField   nonuniform List<scalar> 
139350
(
6.45137e-08
9.21178e-08
3.19689e-08
3.25448e-08
2.30666e-08
8.90236e-09
1.95847e-08
3.4819e-09
1.76355e-08
1.94915e-09
1.6208e-08
1.42756e-09
1.50775e-08
1.13045e-09
1.41675e-08
9.1002e-10
1.34192e-08
7.48251e-10
1.27894e-08
6.29789e-10
1.22494e-08
5.40092e-10
1.17797e-08
4.69694e-10
1.13667e-08
4.12994e-10
1.10002e-08
3.66466e-10
1.06725e-08
3.27705e-10
1.03775e-08
2.94986e-10
1.01105e-08
2.67041e-10
9.86755e-09
2.42918e-10
9.64566e-09
2.21893e-10
9.44225e-09
2.03405e-10
9.25524e-09
1.87013e-10
9.08288e-09
1.72363e-10
8.92371e-09
1.59172e-10
8.7765e-09
1.47205e-10
8.64023e-09
1.36268e-10
8.51404e-09
1.26194e-10
8.3972e-09
1.16842e-10
8.28911e-09
1.08089e-10
8.18929e-09
9.98176e-11
8.09735e-09
9.19364e-11
8.01302e-09
8.4334e-11
7.93607e-09
7.69466e-11
7.86643e-09
6.96435e-11
7.80403e-09
6.24007e-11
7.749e-09
5.50304e-11
7.70142e-09
4.75739e-11
7.66168e-09
3.9743e-11
7.63003e-09
3.16526e-11
7.60709e-09
2.29365e-11
7.59347e-09
1.36218e-11
7.58982e-09
3.6481e-12
7.59775e-09
-7.92505e-12
7.61687e-09
-1.9122e-11
7.65206e-09
-3.51884e-11
7.69764e-09
-4.55852e-11
7.77029e-09
-7.26521e-11
7.83952e-09
-6.92287e-11
7.98766e-09
-1.48141e-10
7.87685e-09
1.10819e-10
-3.62736e-09
1.15042e-08
1.25945e-07
1.27616e-07
9.12976e-08
6.71927e-08
7.1952e-08
2.82479e-08
6.1244e-08
1.41899e-08
5.48149e-08
8.37825e-09
5.03269e-08
5.91558e-09
4.68489e-08
4.60847e-09
4.40416e-08
3.71731e-09
4.17244e-08
3.06551e-09
3.97717e-08
2.5824e-09
3.80967e-08
2.21517e-09
3.66392e-08
1.92716e-09
3.53568e-08
1.69543e-09
3.42179e-08
1.50535e-09
3.31986e-08
1.34703e-09
3.22801e-08
1.21341e-09
3.14479e-08
1.09931e-09
3.06899e-08
1.00085e-09
2.99967e-08
9.15087e-10
2.93604e-08
8.39728e-10
2.87745e-08
7.72977e-10
2.82334e-08
7.13401e-10
2.77327e-08
6.5984e-10
2.72686e-08
6.11346e-10
2.68377e-08
5.67129e-10
2.64374e-08
5.26521e-10
2.60653e-08
4.88948e-10
2.57195e-08
4.53914e-10
2.53983e-08
4.20968e-10
2.51006e-08
3.89722e-10
2.48251e-08
3.59775e-10
2.45712e-08
3.30829e-10
2.43384e-08
3.02448e-10
2.41264e-08
2.7445e-10
2.39352e-08
2.46232e-10
2.37649e-08
2.17833e-10
2.36164e-08
1.88245e-10
2.34901e-08
1.5796e-10
2.33879e-08
1.25183e-10
2.33103e-08
9.11832e-11
2.32609e-08
5.30126e-11
2.32404e-08
1.26438e-11
2.32545e-08
-3.32869e-11
2.33041e-08
-8.47133e-11
2.33969e-08
-1.38467e-10
2.35386e-08
-2.14271e-10
2.37215e-08
-2.52198e-10
2.40339e-08
-4.6053e-10
2.41767e-08
-3.19849e-11
-4.61213e-09
2.51615e-08
1.58754e-07
1.35265e-07
1.36535e-07
8.94119e-08
1.17511e-07
4.72718e-08
1.03345e-07
2.83559e-08
9.3363e-08
1.83604e-08
8.60749e-08
1.32036e-08
8.03796e-08
1.03038e-08
7.57404e-08
8.35645e-09
7.1875e-08
6.9309e-09
6.85958e-08
5.86165e-09
6.57694e-08
5.04157e-09
6.33012e-08
4.39536e-09
6.11228e-08
3.87385e-09
5.91831e-08
3.44505e-09
5.74429e-08
3.08714e-09
5.58718e-08
2.78454e-09
5.44453e-08
2.52578e-09
5.31439e-08
2.30227e-09
5.19516e-08
2.10742e-09
5.08552e-08
1.93612e-09
4.98438e-08
1.78436e-09
4.89083e-08
1.64892e-09
4.80409e-08
1.5272e-09
4.72352e-08
1.41708e-09
4.64856e-08
1.31678e-09
4.57873e-08
1.2248e-09
4.51364e-08
1.13987e-09
4.45294e-08
1.06085e-09
4.39636e-08
9.86769e-10
4.34366e-08
9.16739e-10
4.29465e-08
8.49909e-10
4.24917e-08
7.85577e-10
4.20713e-08
7.22868e-10
4.16845e-08
6.6129e-10
4.1331e-08
5.99672e-10
4.10109e-08
5.37967e-10
4.0725e-08
4.74134e-10
4.04737e-08
4.0925e-10
4.02597e-08
3.39155e-10
4.00833e-08
2.6762e-10
3.99504e-08
1.85891e-10
3.98597e-08
1.03395e-10
3.98236e-08
2.76763e-12
3.98361e-08
-9.72167e-11
3.9921e-08
-2.23369e-10
4.00657e-08
-3.58925e-10
4.0299e-08
-4.85535e-10
4.06576e-08
-8.19173e-10
4.10725e-08
-4.4682e-10
-4.7508e-09
4.12112e-08
1.75613e-07
1.31169e-07
1.6563e-07
9.93945e-08
1.52751e-07
6.01507e-08
1.40154e-07
4.09526e-08
1.29488e-07
2.90265e-08
1.20864e-07
2.18276e-08
1.13768e-07
1.74006e-08
1.07802e-07
1.43216e-08
1.02718e-07
1.20151e-08
9.83324e-08
1.02475e-08
9.45052e-08
8.86879e-09
9.1131e-08
7.7695e-09
8.81302e-08
6.87464e-09
8.54415e-08
6.13384e-09
8.30166e-08
5.51204e-09
8.08172e-08
4.9839e-09
7.88124e-08
4.53056e-09
7.6977e-08
4.13772e-09
7.529e-08
3.79435e-09
7.37343e-08
3.49184e-09
7.22953e-08
3.22338e-09
7.09607e-08
2.98348e-09
6.97202e-08
2.76771e-09
6.85649e-08
2.57238e-09
6.74872e-08
2.39445e-09
6.64807e-08
2.23133e-09
6.55398e-08
2.08081e-09
6.46597e-08
1.94096e-09
6.38364e-08
1.81006e-09
6.30665e-08
1.68658e-09
6.23473e-08
1.5691e-09
6.16765e-08
1.45637e-09
6.10525e-08
1.34695e-09
6.04738e-08
1.23992e-09
5.99401e-08
1.13344e-09
5.94507e-08
1.02729e-09
5.90067e-08
9.18185e-10
5.8608e-08
8.07889e-10
5.82579e-08
6.89313e-10
5.79561e-08
5.69412e-10
5.771e-08
4.32017e-10
5.75171e-08
2.9625e-10
5.73931e-08
1.26758e-10
5.73294e-08
-3.34747e-11
5.73564e-08
-2.50387e-10
5.74553e-08
-4.5782e-10
5.7671e-08
-7.01279e-10
5.80088e-08
-1.15695e-09
5.85206e-08
-9.58647e-10
-4.78472e-09
5.85546e-08
1.84511e-07
1.23443e-07
1.82345e-07
1.0156e-07
1.76133e-07
6.63627e-08
1.67788e-07
4.92984e-08
1.59183e-07
3.76315e-08
1.51293e-07
2.97169e-08
1.44238e-07
2.44557e-08
1.37956e-07
2.06036e-08
1.32374e-07
1.7597e-08
1.27408e-07
1.52138e-08
1.22971e-07
1.33054e-08
1.18988e-07
1.17529e-08
1.15393e-07
1.04693e-08
1.12134e-07
9.39324e-09
1.09165e-07
8.4808e-09
1.0645e-07
7.69917e-09
1.03957e-07
7.02342e-09
1.0166e-07
6.43431e-09
9.95379e-08
5.91674e-09
9.7571e-08
5.45879e-09
9.57435e-08
5.05088e-09
9.40417e-08
4.68524e-09
9.24539e-08
4.35552e-09
9.09698e-08
4.05645e-09
8.95807e-08
3.78358e-09
8.82789e-08
3.53314e-09
8.70578e-08
3.30191e-09
8.59117e-08
3.08702e-09
8.48358e-08
2.88597e-09
8.38259e-08
2.6965e-09
8.28785e-08
2.51649e-09
8.19908e-08
2.34409e-09
8.11605e-08
2.17724e-09
8.03859e-08
2.01451e-09
7.96661e-08
1.85329e-09
7.90002e-08
1.69314e-09
7.83889e-08
1.52945e-09
7.78322e-08
1.36461e-09
7.73331e-08
1.18848e-09
7.68913e-08
1.01119e-09
7.65143e-08
8.08985e-10
7.62e-08
6.1057e-10
7.5964e-08
3.62791e-10
7.57988e-08
1.317e-10
7.57337e-08
-1.85325e-10
7.57549e-08
-4.78954e-10
7.59021e-08
-8.4853e-10
7.61839e-08
-1.43873e-09
7.66589e-08
-1.43367e-09
-4.8291e-09
7.67033e-08
1.90343e-07
1.15316e-07
1.91863e-07
1.0004e-07
1.90272e-07
6.79532e-08
1.86177e-07
5.3394e-08
1.80751e-07
4.30574e-08
1.75015e-07
3.54532e-08
1.69335e-07
3.0135e-08
1.6387e-07
2.60692e-08
1.58714e-07
2.27525e-08
1.5391e-07
2.00176e-08
1.49461e-07
1.7755e-08
1.45349e-07
1.58647e-08
1.41551e-07
1.42675e-08
1.3804e-07
1.29041e-08
1.34791e-07
1.17303e-08
1.31778e-07
1.07117e-08
1.2898e-07
9.82149e-09
1.26376e-07
9.03806e-09
1.23949e-07
8.34419e-09
1.21682e-07
7.72593e-09
1.19561e-07
7.17187e-09
1.17573e-07
6.67262e-09
1.15708e-07
6.22036e-09
1.13956e-07
5.80852e-09
1.12308e-07
5.43153e-09
1.10757e-07
5.08457e-09
1.09295e-07
4.76351e-09
1.07918e-07
4.46463e-09
1.06619e-07
4.18469e-09
1.05395e-07
3.9207e-09
1.04241e-07
3.6699e-09
1.03156e-07
3.4298e-09
1.02135e-07
3.19773e-09
1.01178e-07
2.97172e-09
1.00283e-07
2.74842e-09
9.94489e-08
2.52707e-09
9.86765e-08
2.30181e-09
9.79657e-08
2.07546e-09
9.7319e-08
1.83512e-09
9.67368e-08
1.59343e-09
9.62256e-08
1.32017e-09
9.57847e-08
1.05148e-09
9.54274e-08
7.2014e-10
9.51505e-08
4.08553e-10
9.49763e-08
-1.10932e-11
9.49034e-08
-4.06044e-10
9.49538e-08
-8.9894e-10
9.51549e-08
-1.6399e-09
9.55429e-08
-1.82159e-09
-4.84378e-09
9.55575e-08
1.95505e-07
1.07626e-07
1.9825e-07
9.7295e-08
1.98994e-07
6.72099e-08
1.97807e-07
5.45806e-08
1.95184e-07
4.56811e-08
1.91857e-07
3.87794e-08
1.88141e-07
3.38511e-08
1.84208e-07
3.00028e-08
1.80206e-07
2.67537e-08
1.76247e-07
2.39767e-08
1.72398e-07
2.16044e-08
1.68696e-07
1.95661e-08
1.65163e-07
1.78006e-08
1.61807e-07
1.62608e-08
1.58627e-07
1.49099e-08
1.5562e-07
1.37183e-08
1.5278e-07
1.26618e-08
1.50098e-07
1.17203e-08
1.47565e-07
1.08772e-08
1.45172e-07
1.01187e-08
1.42911e-07
9.43306e-09
1.40773e-07
8.81056e-09
1.3875e-07
8.24287e-09
1.36836e-07
7.72284e-09
1.35023e-07
7.24432e-09
1.33306e-07
6.80192e-09
1.31679e-07
6.3909e-09
1.30136e-07
6.00699e-09
1.28674e-07
5.64639e-09
1.2729e-07
5.30557e-09
1.25978e-07
4.98125e-09
1.24738e-07
4.67039e-09
1.23566e-07
4.36981e-09
1.2246e-07
4.07703e-09
1.21421e-07
3.78804e-09
1.20446e-07
3.50174e-09
1.19537e-07
3.21119e-09
1.18693e-07
2.91937e-09
1.17917e-07
2.61117e-09
1.17209e-07
2.30078e-09
1.16576e-07
1.9533e-09
1.16019e-07
1.60913e-09
1.15546e-07
1.1925e-09
1.15162e-07
7.92869e-10
1.14878e-07
2.72645e-10
1.14708e-07
-2.36015e-10
1.14655e-07
-8.46014e-10
1.14759e-07
-1.74409e-09
1.15049e-07
-2.11081e-09
-4.80756e-09
1.15012e-07
2.0082e-07
1.0039e-07
2.03775e-07
9.43401e-08
2.05353e-07
6.56321e-08
2.0566e-07
5.42732e-08
2.04839e-07
4.65029e-08
2.0337e-07
4.02476e-08
2.01436e-07
3.57854e-08
1.99121e-07
3.23182e-08
1.96531e-07
2.93435e-08
1.93769e-07
2.67387e-08
1.90915e-07
2.44585e-08
1.88029e-07
2.24523e-08
1.85155e-07
2.06747e-08
1.82325e-07
1.90911e-08
1.7956e-07
1.76743e-08
1.76876e-07
1.64022e-08
1.74282e-07
1.5256e-08
1.71783e-07
1.42197e-08
1.6938e-07
1.32794e-08
1.67076e-07
1.24234e-08
1.64867e-07
1.16414e-08
1.62753e-07
1.09245e-08
1.60731e-07
1.02651e-08
1.58798e-07
9.65629e-09
1.5695e-07
9.09214e-09
1.55185e-07
8.56725e-09
1.53499e-07
8.07681e-09
1.51889e-07
7.6164e-09
1.50354e-07
7.182e-09
1.48889e-07
6.7698e-09
1.47494e-07
6.37625e-09
1.46167e-07
5.99796e-09
1.44905e-07
5.63137e-09
1.43709e-07
5.27364e-09
1.42577e-07
4.92025e-09
1.41509e-07
4.56976e-09
1.40505e-07
4.21441e-09
1.39568e-07
3.85709e-09
1.38698e-07
3.48116e-09
1.37897e-07
3.10127e-09
1.37171e-07
2.67992e-09
1.36521e-07
2.25841e-09
1.35956e-07
1.7581e-09
1.35482e-07
1.26663e-09
1.35104e-07
6.50249e-10
1.34846e-07
2.18054e-11
1.347e-07
-6.99774e-10
1.34705e-07
-1.74916e-09
1.34897e-07
-2.30233e-09
-4.72466e-09
1.34814e-07
2.06424e-07
9.34986e-08
2.09335e-07
9.14286e-08
2.11064e-07
6.39029e-08
2.11951e-07
5.33867e-08
2.12021e-07
4.64322e-08
2.11646e-07
4.06231e-08
2.10928e-07
3.65033e-08
2.0987e-07
3.33759e-08
2.08512e-07
3.07022e-08
2.0691e-07
2.83403e-08
2.05121e-07
2.62476e-08
2.03193e-07
2.43802e-08
2.01169e-07
2.26992e-08
1.99083e-07
2.11765e-08
1.96966e-07
1.97914e-08
1.94841e-07
1.85276e-08
1.92725e-07
1.73713e-08
1.90635e-07
1.63105e-08
1.88579e-07
1.53351e-08
1.86567e-07
1.44357e-08
1.84603e-07
1.36045e-08
1.82694e-07
1.28344e-08
1.8084e-07
1.21188e-08
1.79044e-07
1.14521e-08
1.77307e-07
1.08291e-08
1.75629e-07
1.0245e-08
1.74011e-07
9.69525e-09
1.72451e-07
9.17582e-09
1.70951e-07
8.6828e-09
1.69508e-07
8.21242e-09
1.68123e-07
7.7611e-09
1.66796e-07
7.32536e-09
1.65526e-07
6.90147e-09
1.64313e-07
6.48638e-09
1.63158e-07
6.07526e-09
1.62061e-07
5.6664e-09
1.61024e-07
5.25147e-09
1.60048e-07
4.83311e-09
1.59136e-07
4.39379e-09
1.58289e-07
3.94776e-09
1.57512e-07
3.45671e-09
1.56811e-07
2.96008e-09
1.56188e-07
2.38107e-09
1.55656e-07
1.79864e-09
1.55213e-07
1.09265e-09
1.54889e-07
3.45589e-10
1.54672e-07
-4.82222e-10
1.54591e-07
-1.66821e-09
1.54695e-07
-2.40635e-09
-4.6092e-09
1.54579e-07
2.1227e-07
8.6891e-08
2.15144e-07
8.85545e-08
2.16819e-07
6.22275e-08
2.17866e-07
5.23407e-08
2.18281e-07
4.60166e-08
2.18407e-07
4.04973e-08
2.18341e-07
3.65689e-08
2.18053e-07
3.36641e-08
2.17536e-07
3.12193e-08
2.16809e-07
2.90676e-08
2.15895e-07
2.71612e-08
2.1482e-07
2.54554e-08
2.13609e-07
2.39105e-08
2.12286e-07
2.24986e-08
2.10877e-07
2.12009e-08
2.09401e-07
2.00033e-08
2.07878e-07
1.88946e-08
2.06323e-07
1.78654e-08
2.0475e-07
1.69077e-08
2.03172e-07
1.60145e-08
2.01596e-07
1.51798e-08
2.00032e-07
1.43982e-08
1.98487e-07
1.36647e-08
1.96964e-07
1.29747e-08
1.95469e-07
1.23242e-08
1.94005e-07
1.17091e-08
1.92574e-07
1.11256e-08
1.9118e-07
1.05701e-08
1.89824e-07
1.00392e-08
1.88507e-07
9.52932e-09
1.87231e-07
9.03708e-09
1.85997e-07
8.55912e-09
1.84807e-07
8.09171e-09
1.83661e-07
7.63176e-09
1.82562e-07
7.17428e-09
1.81511e-07
6.71741e-09
1.8051e-07
6.25249e-09
1.79562e-07
5.78181e-09
1.78668e-07
5.28751e-09
1.77833e-07
4.78275e-09
1.7706e-07
4.22994e-09
1.76355e-07
3.66454e-09
1.75721e-07
3.01515e-09
1.75172e-07
2.34742e-09
1.74704e-07
1.56082e-09
1.74347e-07
7.02753e-10
1.74089e-07
-2.24278e-10
1.73948e-07
-1.52672e-09
1.73984e-07
-2.44258e-09
-4.48033e-09
1.73855e-07
2.18316e-07
8.05559e-08
2.21193e-07
8.56768e-08
2.22792e-07
6.06285e-08
2.23867e-07
5.12661e-08
2.24391e-07
4.54924e-08
2.24694e-07
4.01941e-08
2.24905e-07
3.63586e-08
2.24994e-07
3.3575e-08
2.24941e-07
3.12719e-08
2.24747e-07
2.92615e-08
2.24416e-07
2.74921e-08
2.23955e-07
2.59173e-08
2.23371e-07
2.44945e-08
2.22676e-07
2.31936e-08
2.21882e-07
2.19943e-08
2.21003e-07
2.08822e-08
2.20052e-07
1.98461e-08
2.1904e-07
1.88772e-08
2.17979e-07
1.79684e-08
2.1688e-07
1.71135e-08
2.15752e-07
1.63077e-08
2.14604e-07
1.55463e-08
2.13443e-07
1.48256e-08
2.12276e-07
1.41418e-08
2.11109e-07
1.34917e-08
2.09946e-07
1.28719e-08
2.08792e-07
1.22794e-08
2.07651e-07
1.1711e-08
2.06527e-07
1.11637e-08
2.05422e-07
1.06344e-08
2.04339e-07
1.012e-08
2.03281e-07
9.6172e-09
2.0225e-07
9.12247e-09
2.01249e-07
8.63277e-09
2.0028e-07
8.14305e-09
1.99346e-07
7.6514e-09
1.9845e-07
7.14896e-09
1.97594e-07
6.63767e-09
1.96782e-07
6.09976e-09
1.96018e-07
5.54683e-09
1.95304e-07
4.94313e-09
1.9465e-07
4.31873e-09
1.94055e-07
3.60999e-09
1.93536e-07
2.86682e-09
1.93086e-07
2.01075e-09
1.92734e-07
1.05464e-09
1.92472e-07
3.77971e-11
1.92303e-07
-1.35807e-09
1.92299e-07
-2.43819e-09
-4.36056e-09
1.92179e-07
2.24549e-07
7.44997e-08
2.27453e-07
8.27727e-08
2.28989e-07
5.90934e-08
2.30071e-07
5.01841e-08
2.30635e-07
4.49274e-08
2.30987e-07
3.98423e-08
2.31287e-07
3.60586e-08
2.31524e-07
3.3338e-08
2.3168e-07
3.11163e-08
2.31753e-07
2.91888e-08
2.31742e-07
2.75031e-08
2.31645e-07
2.60139e-08
2.31462e-07
2.46771e-08
2.31195e-07
2.34605e-08
2.30848e-07
2.23421e-08
2.30424e-07
2.13058e-08
2.2993e-07
2.03397e-08
2.29373e-07
1.94342e-08
2.2876e-07
1.8582e-08
2.28097e-07
1.77768e-08
2.2739e-07
1.70138e-08
2.26648e-07
1.62888e-08
2.25875e-07
1.55982e-08
2.25078e-07
1.49387e-08
2.24263e-07
1.43075e-08
2.23433e-07
1.37017e-08
2.22594e-07
1.31185e-08
2.21749e-07
1.25553e-08
2.20904e-07
1.20093e-08
2.2006e-07
1.14777e-08
2.19223e-07
1.09576e-08
2.18394e-07
1.04459e-08
2.17578e-07
9.93907e-09
2.16776e-07
9.43428e-09
2.15993e-07
8.92642e-09
2.15231e-07
8.41352e-09
2.14493e-07
7.8867e-09
2.13783e-07
7.3474e-09
2.13104e-07
6.77835e-09
2.12462e-07
6.1892e-09
2.11858e-07
5.54688e-09
2.11302e-07
4.87521e-09
2.10792e-07
4.11963e-09
2.10345e-07
3.31356e-09
2.09956e-07
2.40052e-09
2.09647e-07
1.3631e-09
2.09418e-07
2.67359e-10
2.09257e-07
-1.19772e-09
2.09243e-07
-2.42363e-09
-4.27299e-09
2.09155e-07
2.30975e-07
6.87303e-08
2.33914e-07
7.98336e-08
2.35393e-07
5.76152e-08
2.36483e-07
4.90936e-08
2.37081e-07
4.43293e-08
2.37448e-07
3.94752e-08
2.3777e-07
3.57367e-08
2.38053e-07
3.30549e-08
2.38285e-07
3.0885e-08
2.38466e-07
2.9007e-08
2.38601e-07
2.73689e-08
2.38686e-07
2.5929e-08
2.38718e-07
2.46443e-08
2.38697e-07
2.34815e-08
2.38622e-07
2.24175e-08
2.38492e-07
2.14354e-08
2.3831e-07
2.05223e-08
2.38076e-07
1.96679e-08
2.37794e-07
1.8864e-08
2.37467e-07
1.81041e-08
2.37098e-07
1.73828e-08
2.36691e-07
1.66957e-08
2.3625e-07
1.60391e-08
2.35779e-07
1.54097e-08
2.35282e-07
1.48048e-08
2.34762e-07
1.42215e-08
2.34224e-07
1.36572e-08
2.33669e-07
1.31094e-08
2.33103e-07
1.25755e-08
2.32528e-07
1.20526e-08
2.31948e-07
1.1538e-08
2.31365e-07
1.10288e-08
2.30783e-07
1.05215e-08
2.30204e-07
1.00131e-08
2.29632e-07
9.49849e-09
2.29069e-07
8.97573e-09
2.2852e-07
8.43591e-09
2.27988e-07
7.8799e-09
2.27475e-07
7.29116e-09
2.26987e-07
6.67712e-09
2.26526e-07
6.00796e-09
2.261e-07
5.30081e-09
2.25709e-07
4.51067e-09
2.25368e-07
3.65516e-09
2.25071e-07
2.69765e-09
2.24837e-07
1.5967e-09
2.2467e-07
4.34774e-10
2.24549e-07
-1.0776e-09
2.24553e-07
-2.42736e-09
-4.23775e-09
2.24518e-07
2.37602e-07
6.32533e-08
2.4058e-07
7.68552e-08
2.42001e-07
5.61939e-08
2.43099e-07
4.79958e-08
2.43734e-07
4.36944e-08
2.44115e-07
3.90949e-08
2.44442e-07
3.5409e-08
2.44738e-07
3.27589e-08
2.44993e-07
3.06307e-08
2.45211e-07
2.87885e-08
2.454e-07
2.718e-08
2.4556e-07
2.5769e-08
2.4569e-07
2.45143e-08
2.45789e-07
2.33829e-08
2.45855e-07
2.23515e-08
2.45887e-07
2.14031e-08
2.45885e-07
2.05242e-08
2.45849e-07
1.97043e-08
2.45778e-07
1.89345e-08
2.45674e-07
1.8208e-08
2.45538e-07
1.75189e-08
2.45371e-07
1.68626e-08
2.45175e-07
1.62349e-08
2.44953e-07
1.56326e-08
2.44705e-07
1.50524e-08
2.44435e-07
1.44917e-08
2.44144e-07
1.39478e-08
2.43835e-07
1.3418e-08
2.43511e-07
1.28996e-08
2.43174e-07
1.239e-08
2.42826e-07
1.18862e-08
2.42469e-07
1.13853e-08
2.42107e-07
1.08837e-08
2.41741e-07
1.03785e-08
2.41375e-07
9.86455e-09
2.41012e-07
9.33953e-09
2.40653e-07
8.79475e-09
2.40302e-07
8.23031e-09
2.39963e-07
7.63067e-09
2.39639e-07
7.0008e-09
2.39333e-07
6.3144e-09
2.39052e-07
5.58201e-09
2.38794e-07
4.76776e-09
2.38574e-07
3.87532e-09
2.38388e-07
2.88438e-09
2.38248e-07
1.73678e-09
2.38161e-07
5.21292e-10
2.38104e-07
-1.02017e-09
2.38147e-07
-2.471e-09
-4.26842e-09
2.38178e-07
2.44437e-07
5.80726e-08
2.47454e-07
7.38382e-08
2.4882e-07
5.48278e-08
2.49921e-07
4.68949e-08
2.50595e-07
4.30207e-08
2.50992e-07
3.86978e-08
2.51324e-07
3.50764e-08
2.51626e-07
3.24569e-08
2.51888e-07
3.03684e-08
2.52118e-07
2.85587e-08
2.52324e-07
2.69738e-08
2.52511e-07
2.55828e-08
2.52678e-07
2.43473e-08
2.52825e-07
2.3235e-08
2.52954e-07
2.2223e-08
2.53063e-07
2.12944e-08
2.53151e-07
2.0436e-08
2.53218e-07
1.96369e-08
2.53264e-07
1.88884e-08
2.53289e-07
1.81833e-08
2.53292e-07
1.75156e-08
2.53275e-07
1.68802e-08
2.53237e-07
1.6273e-08
2.53179e-07
1.56903e-08
2.53102e-07
1.51291e-08
2.53008e-07
1.45861e-08
2.52897e-07
1.40588e-08
2.5277e-07
1.35444e-08
2.5263e-07
1.304e-08
2.52477e-07
1.25429e-08
2.52313e-07
1.205e-08
2.5214e-07
1.15584e-08
2.5196e-07
1.10643e-08
2.51773e-07
1.05647e-08
2.51584e-07
1.00543e-08
2.51393e-07
9.53063e-09
2.51202e-07
8.98509e-09
2.51016e-07
8.41698e-09
2.50834e-07
7.81181e-09
2.50663e-07
7.17207e-09
2.50503e-07
6.47501e-09
2.5036e-07
5.72494e-09
2.50233e-07
4.89426e-09
2.50133e-07
3.97508e-09
2.50058e-07
2.95934e-09
2.50016e-07
1.77929e-09
2.50016e-07
5.21484e-10
2.50031e-07
-1.03557e-09
2.50126e-07
-2.56628e-09
-4.3698e-09
2.50228e-07
2.51489e-07
5.319e-08
2.54535e-07
7.07928e-08
2.55856e-07
5.3506e-08
2.56955e-07
4.57965e-08
2.57666e-07
4.23092e-08
2.58083e-07
3.82811e-08
2.58422e-07
3.47377e-08
2.58729e-07
3.21493e-08
2.58997e-07
3.01004e-08
2.59232e-07
2.8324e-08
2.59444e-07
2.67619e-08
2.59639e-07
2.53883e-08
2.59818e-07
2.41681e-08
2.59983e-07
2.30698e-08
2.60135e-07
2.20709e-08
2.60275e-07
2.11549e-08
2.60402e-07
2.0309e-08
2.60516e-07
1.95225e-08
2.60618e-07
1.87866e-08
2.60707e-07
1.80943e-08
2.60783e-07
1.74393e-08
2.60847e-07
1.68167e-08
2.60898e-07
1.62221e-08
2.60936e-07
1.56519e-08
2.60963e-07
1.51026e-08
2.60977e-07
1.45714e-08
2.60981e-07
1.40553e-08
2.60974e-07
1.35514e-08
2.60957e-07
1.3057e-08
2.60931e-07
1.2569e-08
2.60896e-07
1.20843e-08
2.60855e-07
1.15999e-08
2.60807e-07
1.11119e-08
2.60755e-07
1.06171e-08
2.60699e-07
1.01101e-08
2.60642e-07
9.58819e-09
2.60584e-07
9.04298e-09
2.60528e-07
8.47282e-09
2.60475e-07
7.86444e-09
2.60429e-07
7.21782e-09
2.60391e-07
6.51361e-09
2.60365e-07
5.75062e-09
2.60351e-07
4.90817e-09
2.60357e-07
3.96958e-09
2.60381e-07
2.93492e-09
2.60427e-07
1.73305e-09
2.60507e-07
4.42017e-10
2.60593e-07
-1.12208e-09
2.60742e-07
-2.71476e-09
-4.53785e-09
2.6091e-07
2.58767e-07
4.8606e-08
2.6183e-07
6.77296e-08
2.63119e-07
5.22174e-08
2.6421e-07
4.47055e-08
2.64957e-07
4.1562e-08
2.65395e-07
3.78429e-08
2.65741e-07
3.43919e-08
2.66055e-07
3.18356e-08
2.66329e-07
2.98266e-08
2.66568e-07
2.80849e-08
2.66783e-07
2.65465e-08
2.66981e-07
2.51903e-08
2.67165e-07
2.39845e-08
2.67336e-07
2.28986e-08
2.67496e-07
2.19106e-08
2.67646e-07
2.10045e-08
2.67788e-07
2.01675e-08
2.67921e-07
1.93895e-08
2.68046e-07
1.86617e-08
2.68163e-07
1.79771e-08
2.68273e-07
1.73297e-08
2.68375e-07
1.67145e-08
2.6847e-07
1.61272e-08
2.68557e-07
1.55639e-08
2.68639e-07
1.50215e-08
2.68713e-07
1.44969e-08
2.68781e-07
1.39871e-08
2.68844e-07
1.34892e-08
2.689e-07
1.30004e-08
2.68951e-07
1.25176e-08
2.68998e-07
1.20376e-08
2.69041e-07
1.15573e-08
2.6908e-07
1.10726e-08
2.69117e-07
1.05803e-08
2.69152e-07
1.0075e-08
2.69187e-07
9.55347e-09
2.69222e-07
9.00772e-09
2.69259e-07
8.43517e-09
2.693e-07
7.82371e-09
2.69347e-07
7.17103e-09
2.694e-07
6.46084e-09
2.69463e-07
5.68735e-09
2.69536e-07
4.8353e-09
2.69624e-07
3.88196e-09
2.69727e-07
2.83183e-09
2.69845e-07
1.61517e-09
2.69989e-07
2.9769e-10
2.70136e-07
-1.26924e-09
2.70331e-07
-2.90997e-09
-4.76176e-09
2.70555e-07
2.66279e-07
4.43192e-08
2.69349e-07
6.46591e-08
2.70616e-07
5.09514e-08
2.71695e-07
4.36264e-08
2.72474e-07
4.07822e-08
2.72936e-07
3.73813e-08
2.7329e-07
3.40382e-08
2.7361e-07
3.15157e-08
2.7389e-07
2.95465e-08
2.74133e-07
2.78412e-08
2.74352e-07
2.63278e-08
2.74553e-07
2.49896e-08
2.74739e-07
2.37983e-08
2.74913e-07
2.27248e-08
2.75076e-07
2.17473e-08
2.75231e-07
2.08501e-08
2.75377e-07
2.0021e-08
2.75517e-07
1.92498e-08
2.7565e-07
1.85282e-08
2.75778e-07
1.78492e-08
2.75901e-07
1.72068e-08
2.7602e-07
1.65962e-08
2.76134e-07
1.6013e-08
2.76244e-07
1.54536e-08
2.76351e-07
1.49148e-08
2.76454e-07
1.43933e-08
2.76555e-07
1.38865e-08
2.76653e-07
1.33913e-08
2.76749e-07
1.29048e-08
2.76842e-07
1.24241e-08
2.76934e-07
1.19457e-08
2.77025e-07
1.14666e-08
2.77115e-07
1.09826e-08
2.77205e-07
1.04904e-08
2.77295e-07
9.98454e-09
2.77387e-07
9.46152e-09
2.77481e-07
8.91364e-09
2.77579e-07
8.33745e-09
2.7768e-07
7.72199e-09
2.77789e-07
7.06292e-09
2.77903e-07
6.34653e-09
2.78027e-07
5.56345e-09
2.7816e-07
4.70234e-09
2.78305e-07
3.73687e-09
2.78464e-07
2.67303e-09
2.78633e-07
1.44564e-09
2.78824e-07
1.06515e-10
2.79017e-07
-1.46221e-09
2.79248e-07
-3.14084e-09
-5.02696e-09
2.79513e-07
2.74034e-07
4.03266e-08
2.77101e-07
6.15922e-08
2.78354e-07
4.96977e-08
2.79418e-07
4.25625e-08
2.80227e-07
3.99737e-08
2.80713e-07
3.68951e-08
2.81075e-07
3.36757e-08
2.81401e-07
3.11897e-08
2.81688e-07
2.92598e-08
2.81937e-07
2.75923e-08
2.82159e-07
2.61055e-08
2.82363e-07
2.4786e-08
2.82552e-07
2.36098e-08
2.82727e-07
2.2549e-08
2.82893e-07
2.15821e-08
2.83049e-07
2.06938e-08
2.83198e-07
1.98722e-08
2.8334e-07
1.91075e-08
2.83477e-07
1.83915e-08
2.83609e-07
1.77172e-08
2.83737e-07
1.70789e-08
2.83861e-07
1.64716e-08
2.83983e-07
1.58913e-08
2.84102e-07
1.53342e-08
2.8422e-07
1.47971e-08
2.84336e-07
1.42771e-08
2.84451e-07
1.37713e-08
2.84566e-07
1.32768e-08
2.8468e-07
1.27906e-08
2.84794e-07
1.23099e-08
2.84909e-07
1.18312e-08
2.85024e-07
1.13512e-08
2.85141e-07
1.0866e-08
2.85259e-07
1.0372e-08
2.8538e-07
9.86373e-09
2.85504e-07
9.33755e-09
2.85632e-07
8.78604e-09
2.85764e-07
8.20493e-09
2.85902e-07
7.5843e-09
2.86047e-07
6.91814e-09
2.86198e-07
6.19479e-09
2.8636e-07
5.4023e-09
2.8653e-07
4.53188e-09
2.86711e-07
3.55561e-09
2.86905e-07
2.47889e-09
2.87108e-07
1.24283e-09
2.8733e-07
-1.14752e-10
2.87553e-07
-1.68602e-09
2.87808e-07
-3.39549e-09
-5.31872e-09
2.881e-07
2.82041e-07
3.66234e-08
2.85093e-07
5.85401e-08
2.86344e-07
4.84468e-08
2.87389e-07
4.15169e-08
2.88222e-07
3.91408e-08
2.88735e-07
3.63828e-08
2.89107e-07
3.33033e-08
2.89439e-07
3.08577e-08
2.89732e-07
2.89664e-08
2.89987e-07
2.73378e-08
2.90213e-07
2.58792e-08
2.9042e-07
2.45793e-08
2.90611e-07
2.34186e-08
2.90789e-07
2.23709e-08
2.90956e-07
2.1415e-08
2.91114e-07
2.05359e-08
2.91264e-07
1.9722e-08
2.91408e-07
1.89638e-08
2.91546e-07
1.82532e-08
2.9168e-07
1.75835e-08
2.9181e-07
1.69489e-08
2.91937e-07
1.63446e-08
2.92062e-07
1.57665e-08
2.92185e-07
1.52111e-08
2.92307e-07
1.46751e-08
2.92428e-07
1.41557e-08
2.9255e-07
1.365e-08
2.92671e-07
1.31552e-08
2.92793e-07
1.26683e-08
2.92917e-07
1.21864e-08
2.93042e-07
1.17062e-08
2.93169e-07
1.12242e-08
2.93298e-07
1.07365e-08
2.93431e-07
1.02395e-08
2.93567e-07
9.72775e-09
2.93707e-07
9.19727e-09
2.93852e-07
8.64103e-09
2.94003e-07
8.05406e-09
2.9416e-07
7.42732e-09
2.94325e-07
6.75348e-09
2.94497e-07
6.02242e-09
2.94679e-07
5.22051e-09
2.9487e-07
4.34038e-09
2.95072e-07
3.35401e-09
2.95286e-07
2.26487e-09
2.95508e-07
1.02097e-09
2.95746e-07
-3.52575e-10
2.95988e-07
-1.9281e-09
2.96255e-07
-3.66333e-09
-5.62396e-09
2.96561e-07
2.90309e-07
3.32032e-08
2.93335e-07
5.55137e-08
2.94592e-07
4.71898e-08
2.95618e-07
4.04915e-08
2.9647e-07
3.82885e-08
2.97009e-07
3.58434e-08
2.97393e-07
3.29197e-08
2.97731e-07
3.05196e-08
2.98031e-07
2.86662e-08
2.98292e-07
2.70775e-08
2.98522e-07
2.56486e-08
2.98732e-07
2.43693e-08
2.98926e-07
2.32247e-08
2.99106e-07
2.21905e-08
2.99275e-07
2.12459e-08
2.99435e-07
2.03763e-08
2.99587e-07
1.95703e-08
2.99732e-07
1.88188e-08
2.99871e-07
1.81137e-08
3.00006e-07
1.74486e-08
3.00137e-07
1.68177e-08
3.00266e-07
1.62163e-08
3.00392e-07
1.56403e-08
3.00517e-07
1.50863e-08
3.00641e-07
1.45512e-08
3.00764e-07
1.4032e-08
3.00888e-07
1.3526e-08
3.01013e-07
1.30305e-08
3.01139e-07
1.25424e-08
3.01266e-07
1.20589e-08
3.01396e-07
1.15765e-08
3.01528e-07
1.1092e-08
3.01664e-07
1.06012e-08
3.01803e-07
1.01005e-08
3.01946e-07
9.5846e-09
3.02094e-07
9.04919e-09
3.02247e-07
8.48759e-09
3.02407e-07
7.89423e-09
3.02574e-07
7.26077e-09
3.02748e-07
6.57893e-09
3.02931e-07
5.83967e-09
3.03123e-07
5.0284e-09
3.03325e-07
4.1383e-09
3.03537e-07
3.14231e-09
3.03761e-07
2.04124e-09
3.03992e-07
7.89812e-10
3.04237e-07
-5.97653e-10
3.04488e-07
-2.17914e-09
3.04761e-07
-3.93622e-09
-5.93242e-09
3.05069e-07
2.98848e-07
3.00578e-08
3.01837e-07
5.25244e-08
3.03108e-07
4.59188e-08
3.04112e-07
3.94878e-08
3.04978e-07
3.74221e-08
3.05546e-07
3.52762e-08
3.05942e-07
3.25234e-08
3.06286e-07
3.01755e-08
3.06593e-07
2.83593e-08
3.06859e-07
2.6811e-08
3.07095e-07
2.54134e-08
3.07308e-07
2.41558e-08
3.07505e-07
2.30279e-08
3.07688e-07
2.20076e-08
3.07859e-07
2.10747e-08
3.08021e-07
2.02148e-08
3.08174e-07
1.9417e-08
3.0832e-07
1.86723e-08
3.08461e-07
1.7973e-08
3.08597e-07
1.73125e-08
3.0873e-07
1.66853e-08
3.08859e-07
1.60868e-08
3.08986e-07
1.5513e-08
3.09112e-07
1.49604e-08
3.09238e-07
1.4426e-08
3.09363e-07
1.3907e-08
3.09488e-07
1.34006e-08
3.09614e-07
1.29042e-08
3.09742e-07
1.24147e-08
3.09872e-07
1.19293e-08
3.10004e-07
1.14446e-08
3.10138e-07
1.09572e-08
3.10277e-07
1.0463e-08
3.10419e-07
9.95835e-09
3.10565e-07
9.43801e-09
3.10717e-07
8.89739e-09
3.10875e-07
8.33012e-09
3.11039e-07
7.73013e-09
3.1121e-07
7.08968e-09
3.11389e-07
6.39978e-09
3.11577e-07
5.65208e-09
3.11773e-07
4.83164e-09
3.1198e-07
3.9316e-09
3.12196e-07
2.9264e-09
3.12423e-07
1.81408e-09
3.12658e-07
5.55309e-10
3.12904e-07
-8.4427e-10
3.13158e-07
-2.43287e-09
3.1343e-07
-4.20847e-09
-6.23658e-09
3.13734e-07
3.07668e-07
2.71774e-08
3.10609e-07
4.95834e-08
3.119e-07
4.46271e-08
3.12882e-07
3.8506e-08
3.13758e-07
3.65467e-08
3.14352e-07
3.46814e-08
3.14763e-07
3.21129e-08
3.15113e-07
2.98251e-08
3.15427e-07
2.80457e-08
3.157e-07
2.65379e-08
3.1594e-07
2.51732e-08
3.16157e-07
2.39385e-08
3.16357e-07
2.28278e-08
3.16543e-07
2.18219e-08
3.16717e-07
2.09011e-08
3.1688e-07
2.00513e-08
3.17035e-07
1.9262e-08
3.17183e-07
1.85243e-08
3.17325e-07
1.78308e-08
3.17463e-07
1.71751e-08
3.17596e-07
1.65518e-08
3.17727e-07
1.59562e-08
3.17855e-07
1.53845e-08
3.17982e-07
1.48334e-08
3.18109e-07
1.42997e-08
3.18235e-07
1.37808e-08
3.18361e-07
1.3274e-08
3.18489e-07
1.27766e-08
3.18618e-07
1.22857e-08
3.18749e-07
1.17983e-08
3.18882e-07
1.13111e-08
3.19019e-07
1.08208e-08
3.19159e-07
1.03232e-08
3.19303e-07
9.81441e-09
3.19451e-07
9.28949e-09
3.19605e-07
8.74357e-09
3.19765e-07
8.17051e-09
3.19931e-07
7.56388e-09
3.20104e-07
6.91633e-09
3.20286e-07
6.21849e-09
3.20475e-07
5.46237e-09
3.20674e-07
4.63307e-09
3.20882e-07
3.72334e-09
3.21099e-07
2.7094e-09
3.21326e-07
1.58668e-09
3.21561e-07
3.20843e-10
3.21806e-07
-1.08913e-09
3.22058e-07
-2.68526e-09
3.22326e-07
-4.47621e-09
-6.53114e-09
3.2262e-07
3.16778e-07
2.45508e-08
3.1966e-07
4.67017e-08
3.20978e-07
4.33089e-08
3.21938e-07
3.75459e-08
3.22817e-07
3.56675e-08
3.23439e-07
3.40599e-08
3.23865e-07
3.16866e-08
3.24222e-07
2.94681e-08
3.24542e-07
2.77255e-08
3.24822e-07
2.62581e-08
3.25067e-07
2.49277e-08
3.25289e-07
2.37171e-08
3.25492e-07
2.26244e-08
3.25681e-07
2.16333e-08
3.25857e-07
2.0725e-08
3.26023e-07
1.98856e-08
3.2618e-07
1.91049e-08
3.2633e-07
1.83745e-08
3.26473e-07
1.76871e-08
3.26612e-07
1.70363e-08
3.26747e-07
1.64169e-08
3.26879e-07
1.58244e-08
3.27008e-07
1.52549e-08
3.27137e-07
1.47052e-08
3.27264e-07
1.41723e-08
3.27391e-07
1.36535e-08
3.27519e-07
1.31462e-08
3.27648e-07
1.26478e-08
3.27778e-07
1.21554e-08
3.2791e-07
1.16661e-08
3.28045e-07
1.11764e-08
3.28183e-07
1.06831e-08
3.28324e-07
1.0182e-08
3.28469e-07
9.6691e-09
3.28619e-07
9.13958e-09
3.28774e-07
8.58838e-09
3.28935e-07
8.00951e-09
3.29103e-07
7.39633e-09
3.29277e-07
6.74174e-09
3.2946e-07
6.03618e-09
3.2965e-07
5.27178e-09
3.29849e-07
4.43402e-09
3.30058e-07
3.51505e-09
3.30274e-07
2.4929e-09
3.305e-07
1.3608e-09
3.30733e-07
8.83326e-11
3.30974e-07
-1.33034e-09
3.31222e-07
-2.93361e-09
3.31483e-07
-4.73667e-09
-6.81229e-09
3.31764e-07
3.26188e-07
2.21653e-08
3.29e-07
4.38902e-08
3.30348e-07
4.19602e-08
3.31288e-07
3.66062e-08
3.32166e-07
3.47891e-08
3.32813e-07
3.3413e-08
3.33257e-07
3.12432e-08
3.33621e-07
2.91038e-08
3.33948e-07
2.73987e-08
3.34235e-07
2.59712e-08
3.34486e-07
2.46764e-08
3.34712e-07
2.34913e-08
3.34919e-07
2.24173e-08
3.35111e-07
2.14414e-08
3.35289e-07
2.05461e-08
3.35458e-07
1.97175e-08
3.35617e-07
1.89458e-08
3.35768e-07
1.82229e-08
3.35914e-07
1.75416e-08
3.36054e-07
1.68959e-08
3.3619e-07
1.62806e-08
3.36324e-07
1.56912e-08
3.36455e-07
1.5124e-08
3.36584e-07
1.45757e-08
3.36713e-07
1.40436e-08
3.36841e-07
1.35249e-08
3.3697e-07
1.30172e-08
3.371e-07
1.25179e-08
3.37232e-07
1.2024e-08