/*--------------------------------*- C++ -*----------------------------------*\
  =========                 |
  \\      /  F ield         | OpenFOAM: The Open Source CFD Toolbox
   \\    /   O peration     | Website:  https://openfoam.org
    \\  /    A nd           | Version:  7
     \\/     M anipulation  |
\*---------------------------------------------------------------------------*/
FoamFile
{
    version     2.0;
    format      ascii;
    class       volVectorField;
    location    "0.13";
    object      U;
}
// * * * * * * * * * * * * * * * * * * * * * * * * * * * * * * * * * * * * * //

dimensions      [0 1 -1 0 0 0 0];

internalField   nonuniform List<vector> 
70000
(
(0.553416 0.016978 0)
(0.251431 0.00340021 0)
(0.165956 0.00031876 0)
(0.13249 4.88476e-05 0)
(0.117403 4.38974e-05 0)
(0.107464 5.20548e-05 0)
(0.0995122 4.4245e-05 0)
(0.0930887 3.51561e-05 0)
(0.0878654 2.91046e-05 0)
(0.0835177 2.49519e-05 0)
(0.0798177 2.17731e-05 0)
(0.076618 1.92191e-05 0)
(0.0738174 1.71301e-05 0)
(0.0713421 1.53975e-05 0)
(0.069136 1.39403e-05 0)
(0.067156 1.26985e-05 0)
(0.0653681 1.16272e-05 0)
(0.0637451 1.06924e-05 0)
(0.0622654 9.86757e-06 0)
(0.060911 9.13229e-06 0)
(0.0596675 8.46989e-06 0)
(0.0585226 7.86712e-06 0)
(0.0574662 7.31276e-06 0)
(0.0564898 6.79774e-06 0)
(0.0555863 6.31372e-06 0)
(0.0547497 5.85422e-06 0)
(0.0539749 5.41197e-06 0)
(0.0532577 4.98242e-06 0)
(0.0525947 4.55764e-06 0)
(0.0519831 4.13553e-06 0)
(0.0514209 3.70482e-06 0)
(0.0509063 3.26829e-06 0)
(0.0504386 2.80661e-06 0)
(0.0500171 2.33111e-06 0)
(0.0496422 1.80987e-06 0)
(0.0493144 1.26335e-06 0)
(0.049035 6.54551e-07 0)
(0.0488072 -1.83416e-08 0)
(0.0486301 -7.23494e-07 0)
(0.0485162 -1.65436e-06 0)
(0.0484515 -2.44248e-06 0)
(0.0484779 -3.92606e-06 0)
(0.048534 -4.10612e-06 0)
(0.0487525 -6.97418e-06 0)
(0.0489207 -5.20209e-06 0)
(0.0494368 -1.23497e-05 0)
(0.0496411 -2.66389e-06 0)
(0.0506755 -2.41553e-05 0)
(0.0508092 3.99848e-05 0)
(0.0487585 -0.00191022 0)
(0.884864 0.0434925 0)
(0.650171 0.0201475 0)
(0.494037 0.0066029 0)
(0.403656 0.0027529 0)
(0.354988 0.00154601 0)
(0.323717 0.00112966 0)
(0.299862 0.000907174 0)
(0.280699 0.000742528 0)
(0.265032 0.000619763 0)
(0.251959 0.000529189 0)
(0.240827 0.000460376 0)
(0.231197 0.000406165 0)
(0.222763 0.000362303 0)
(0.215303 0.000326135 0)
(0.208649 0.000295855 0)
(0.202671 0.000270165 0)
(0.197267 0.000248107 0)
(0.192357 0.000228959 0)
(0.187875 0.000212171 0)
(0.183768 0.000197313 0)
(0.17999 0.000184047 0)
(0.176507 0.0001721 0)
(0.173287 0.000161251 0)
(0.170304 0.000151313 0)
(0.167536 0.000142133 0)
(0.164965 0.000133574 0)
(0.162576 0.000125518 0)
(0.160355 0.000117858 0)
(0.158292 0.000110491 0)
(0.156377 0.000103328 0)
(0.154603 9.6265e-05 0)
(0.152965 8.92284e-05 0)
(0.151459 8.20859e-05 0)
(0.150081 7.47944e-05 0)
(0.148832 6.715e-05 0)
(0.147713 5.91711e-05 0)
(0.146724 5.05144e-05 0)
(0.145874 4.13081e-05 0)
(0.145159 3.10085e-05 0)
(0.144611 1.98252e-05 0)
(0.144191 7.13513e-06 0)
(0.144012 -7.01182e-06 0)
(0.143909 -2.29724e-05 0)
(0.144234 -4.32831e-05 0)
(0.14443 -6.09823e-05 0)
(0.145537 -9.39952e-05 0)
(0.145876 -0.000101078 0)
(0.148324 -0.000197863 0)
(0.148653 9.80138e-05 0)
(0.1493 -0.00321089 0)
(0.991208 0.0499541 0)
(0.890944 0.0305595 0)
(0.762554 0.0146063 0)
(0.656651 0.00796611 0)
(0.585604 0.0048747 0)
(0.536294 0.00346945 0)
(0.49846 0.00273312 0)
(0.46789 0.00223874 0)
(0.442635 0.0018749 0)
(0.421388 0.00160312 0)
(0.403199 0.00139548 0)
(0.387401 0.00123191 0)
(0.37352 0.00109968 0)
(0.361207 0.000990687 0)
(0.350198 0.000899439 0)
(0.340286 0.000822029 0)
(0.331308 0.000755579 0)
(0.323136 0.000697925 0)
(0.315662 0.00064741 0)
(0.308801 0.00060275 0)
(0.302482 0.000562929 0)
(0.296643 0.000527132 0)
(0.291236 0.000494695 0)
(0.286217 0.000465069 0)
(0.28155 0.000437791 0)
(0.277205 0.000412462 0)
(0.273157 0.000388733 0)
(0.269381 0.000366293 0)
(0.265861 0.000344849 0)
(0.262581 0.000324138 0)
(0.259527 0.000303879 0)
(0.25669 0.000283845 0)
(0.254062 0.000263705 0)
(0.251638 0.00024329 0)
(0.249414 0.000222108 0)
(0.24739 0.000200143 0)
(0.245568 0.000176507 0)
(0.243955 0.000151593 0)
(0.242547 0.000123655 0)
(0.241388 9.40226e-05 0)
(0.240421 5.93588e-05 0)
(0.239804 2.27698e-05 0)
(0.239303 -2.16273e-05 0)
(0.239418 -7.1508e-05 0)
(0.239359 -0.000129784 0)
(0.240594 -0.000202044 0)
(0.240787 -0.000256385 0)
(0.243901 -0.000452166 0)
(0.244037 -0.000132797 0)
(0.24803 -0.00346041 0)
(1.01554 0.0489518 0)
(1.00651 0.0357193 0)
(0.935938 0.0208121 0)
(0.85212 0.0134903 0)
(0.78241 0.00918926 0)
(0.727331 0.00677428 0)
(0.682313 0.00537783 0)
(0.644624 0.00443639 0)
(0.612682 0.00374152 0)
(0.585291 0.00321534 0)
(0.561513 0.00280873 0)
(0.540643 0.00248632 0)
(0.522152 0.00222458 0)
(0.505637 0.00200811 0)
(0.490787 0.00182638 0)
(0.477352 0.00167186 0)
(0.465133 0.00153897 0)
(0.453968 0.0014235 0)
(0.443724 0.00132224 0)
(0.434292 0.00123265 0)
(0.425579 0.00115275 0)
(0.417508 0.00108094 0)
(0.410014 0.00101591 0)
(0.403041 0.000956583 0)
(0.396541 0.00090204 0)
(0.390473 0.000851502 0)
(0.384802 0.000804287 0)
(0.3795 0.000759782 0)
(0.374539 0.000717427 0)
(0.369899 0.000676707 0)
(0.365562 0.000637099 0)
(0.361513 0.000598148 0)
(0.357741 0.000559267 0)
(0.354236 0.000520089 0)
(0.350995 0.000479758 0)
(0.348013 0.000438181 0)
(0.345291 0.000393758 0)
(0.342837 0.00034725 0)
(0.340643 0.000295189 0)
(0.338758 0.000240674 0)
(0.337118 0.000175909 0)
(0.335903 0.000109469 0)
(0.334842 2.55157e-05 0)
(0.334506 -5.92049e-05 0)
(0.334004 -0.000174707 0)
(0.334977 -0.000292518 0)
(0.334853 -0.000422339 0)
(0.337955 -0.000706542 0)
(0.337843 -0.000488928 0)
(0.343031 -0.00344357 0)
(1.01435 0.0460959 0)
(1.04799 0.037335 0)
(1.0246 0.0241771 0)
(0.974765 0.0175458 0)
(0.923631 0.013096 0)
(0.876975 0.0101916 0)
(0.834891 0.0083309 0)
(0.797227 0.00700765 0)
(0.763756 0.00599632 0)
(0.734034 0.0052082 0)
(0.707546 0.00458562 0)
(0.683823 0.00408412 0)
(0.662465 0.00367226 0)
(0.643142 0.00332853 0)
(0.625579 0.00303784 0)
(0.609546 0.00278916 0)
(0.594852 0.00257422 0)
(0.581336 0.00238668 0)
(0.568864 0.00222165 0)
(0.55732 0.00207524 0)
(0.546607 0.00194439 0)
(0.536641 0.00182657 0)
(0.527351 0.00171977 0)
(0.518675 0.00162226 0)
(0.510559 0.00153261 0)
(0.502957 0.00144958 0)
(0.49583 0.00137209 0)
(0.489142 0.00129916 0)
(0.482863 0.00122992 0)
(0.476969 0.00116354 0)
(0.471438 0.00109922 0)
(0.466251 0.00103621 0)
(0.461396 0.000973635 0)
(0.456858 0.000910883 0)
(0.452634 0.000846687 0)
(0.448716 0.000780838 0)
(0.445103 0.00071094 0)
(0.441802 0.000638144 0)
(0.438805 0.000557042 0)
(0.43616 0.000472732 0)
(0.433802 0.000372376 0)
(0.43191 0.000271049 0)
(0.430219 0.000139389 0)
(0.429289 1.41477e-05 0)
(0.428258 -0.000165689 0)
(0.428706 -0.000337124 0)
(0.428207 -0.000554345 0)
(0.430773 -0.00092746 0)
(0.430602 -0.00085547 0)
(0.435248 -0.00346451 0)
(1.00941 0.0430452 0)
(1.05564 0.0370895 0)
(1.0587 0.0253166 0)
(1.03637 0.0197476 0)
(1.00724 0.01578 0)
(0.976295 0.0129145 0)
(0.944844 0.0109419 0)
(0.914062 0.00945764 0)
(0.884801 0.00826546 0)
(0.857441 0.00729686 0)
(0.832059 0.00650616 0)
(0.808591 0.00585287 0)
(0.786916 0.00530553 0)
(0.766891 0.00484136 0)
(0.748371 0.00444362 0)
(0.731216 0.00409964 0)
(0.715297 0.00379959 0)
(0.700497 0.00353578 0)
(0.686712 0.0033021 0)
(0.673848 0.00309364 0)
(0.661823 0.00290643 0)
(0.650564 0.00273723 0)
(0.640006 0.00258333 0)
(0.630093 0.00244245 0)
(0.620773 0.00231267 0)
(0.612003 0.00219231 0)
(0.603743 0.00207988 0)
(0.595959 0.00197405 0)
(0.588621 0.00187362 0)
(0.581704 0.00177743 0)
(0.575184 0.00168439 0)
(0.569044 0.00159346 0)
(0.563268 0.00150345 0)
(0.557843 0.00141347 0)
(0.552763 0.00132183 0)
(0.54802 0.00122817 0)
(0.543612 0.0011293 0)
(0.539544 0.00102669 0)
(0.53581 0.000913046 0)
(0.532452 0.000795243 0)
(0.529414 0.000655772 0)
(0.526856 0.000515211 0)
(0.524548 0.000333415 0)
(0.522983 0.000159793 0)
(0.52142 -8.46048e-05 0)
(0.521216 -0.000319884 0)
(0.520351 -0.000624082 0)
(0.522099 -0.00109863 0)
(0.521941 -0.00116653 0)
(0.52548 -0.00348856 0)
(1.00635 0.0401771 0)
(1.05242 0.0361421 0)
(1.06608 0.0252386 0)
(1.05958 0.0205502 0)
(1.04698 0.0172037 0)
(1.03099 0.0146284 0)
(1.01215 0.0127955 0)
(0.991547 0.0113679 0)
(0.970225 0.0101688 0)
(0.948916 0.0091518 0)
(0.92806 0.00829051 0)
(0.907919 0.00755658 0)
(0.888639 0.0069255 0)
(0.870289 0.00637844 0)
(0.852888 0.00590087 0)
(0.836424 0.00548125 0)
(0.820867 0.00511024 0)
(0.806173 0.0047802 0)
(0.792299 0.00448489 0)
(0.779195 0.00421913 0)
(0.766815 0.00397866 0)
(0.755113 0.00375986 0)
(0.744045 0.0035597 0)
(0.733573 0.00337558 0)
(0.723658 0.00320524 0)
(0.714267 0.00304669 0)
(0.705369 0.00289818 0)
(0.696936 0.00275807 0)
(0.688944 0.00262489 0)
(0.68137 0.00249722 0)
(0.674196 0.00237369 0)
(0.667405 0.002253 0)
(0.660986 0.00213365 0)
(0.654925 0.0020145 0)
(0.649217 0.00189346 0)
(0.643855 0.00176998 0)
(0.638839 0.00164015 0)
(0.634173 0.0015056 0)
(0.629853 0.00135744 0)
(0.625914 0.00120379 0)
(0.622316 0.00102344 0)
(0.619188 0.000840664 0)
(0.616352 0.000607755 0)
(0.614205 0.000381249 0)
(0.612173 7.17008e-05 0)
(0.611319 -0.000235012 0)
(0.61012 -0.000620438 0)
(0.611008 -0.00120456 0)
(0.610789 -0.00140752 0)
(0.613259 -0.00347662 0)
(1.00506 0.0374996 0)
(1.04763 0.0350431 0)
(1.06398 0.0246901 0)
(1.06423 0.0205797 0)
(1.06077 0.0177395 0)
(1.05491 0.0154659 0)
(1.0462 0.0138476 0)
(1.03508 0.0125843 0)
(1.02224 0.0114953 0)
(1.0083 0.0105408 0)
(0.993711 0.00970667 0)
(0.97882 0.00897495 0)
(0.963894 0.00832875 0)
(0.949125 0.00775489 0)
(0.934651 0.00724302 0)
(0.920563 0.00678459 0)
(0.90692 0.00637235 0)
(0.893759 0.00600011 0)
(0.881096 0.00566258 0)
(0.868938 0.00535523 0)
(0.857283 0.00507419 0)
(0.846121 0.00481609 0)
(0.835441 0.004578 0)
(0.825227 0.00435737 0)
(0.815464 0.00415191 0)
(0.806135 0.00395956 0)
(0.797225 0.00377846 0)
(0.788716 0.00360686 0)
(0.780597 0.00344312 0)
(0.772851 0.00328567 0)
(0.765469 0.00313294 0)
(0.758439 0.00298343 0)
(0.751754 0.00283542 0)
(0.745406 0.00268752 0)
(0.739393 0.00253731 0)
(0.73371 0.00238404 0)
(0.72836 0.00222321 0)
(0.723347 0.00205645 0)
(0.718673 0.00187364 0)
(0.714364 0.00168348 0)
(0.710397 0.00146236 0)
(0.706873 0.00123607 0)
(0.703664 0.000953028 0)
(0.701075 0.000671365 0)
(0.69869 0.000297841 0)
(0.697294 -8.432e-05 0)
(0.695818 -0.000545607 0)
(0.69596 -0.00123757 0)
(0.695594 -0.00157612 0)
(0.697181 -0.00342556 0)
(1.00451 0.0349635 0)
(1.0436 0.0339626 0)
(1.05995 0.0240383 0)
(1.06227 0.0202889 0)
(1.06259 0.0178024 0)
(1.06195 0.0157427 0)
(1.05942 0.0142974 0)
(1.05493 0.0131991 0)
(1.04878 0.0122515 0)
(1.04129 0.0114082 0)
(1.03273 0.0106579 0)
(1.02336 0.00998648 0)
(1.01341 0.00938099 0)
(1.00307 0.00883185 0)
(0.99251 0.008332 0)
(0.981853 0.00787572 0)
(0.971206 0.00745806 0)
(0.960651 0.00707472 0)
(0.950249 0.00672186 0)
(0.940046 0.00639611 0)
(0.930077 0.00609447 0)
(0.920368 0.00581426 0)
(0.910934 0.00555307 0)
(0.901786 0.0053087 0)
(0.892933 0.00507915 0)
(0.884376 0.00486254 0)
(0.876116 0.00465712 0)
(0.868153 0.00446119 0)
(0.860485 0.00427313 0)
(0.85311 0.00409131 0)
(0.846026 0.00391412 0)
(0.83923 0.00373993 0)
(0.832722 0.00356687 0)
(0.8265 0.0033934 0)
(0.820567 0.00321685 0)
(0.814924 0.00303627 0)
(0.809577 0.00284671 0)
(0.804531 0.00264964 0)
(0.799794 0.00243419 0)
(0.795389 0.00220893 0)
(0.791304 0.00194918 0)
(0.787617 0.00168012 0)
(0.784247 0.00135001 0)
(0.781416 0.00101267 0)
(0.778842 0.000581395 0)
(0.777083 0.000120969 0)
(0.775426 -0.000411879 0)
(0.775009 -0.00120212 0)
(0.774479 -0.00167586 0)
(0.775386 -0.0033447 0)
(1.00412 0.0325326 0)
(1.04027 0.0329085 0)
(1.05619 0.0234028 0)
(1.05891 0.0199031 0)
(1.06031 0.0176717 0)
(1.06172 0.0157431 0)
(1.06213 0.0143986 0)
(1.06128 0.0134148 0)
(1.05928 0.0125824 0)
(1.05622 0.011844 0)
(1.05221 0.011186 0)
(1.04734 0.0105938 0)
(1.04176 0.0100546 0)
(1.03557 0.00955925 0)
(1.0289 0.00910189 0)
(1.02187 0.0086781 0)
(1.01455 0.00828431 0)
(1.00705 0.00791746 0)
(0.999435 0.00757491 0)
(0.991761 0.00725431 0)
(0.984083 0.00695354 0)
(0.976443 0.00667067 0)
(0.968876 0.00640394 0)
(0.96141 0.00615168 0)
(0.954069 0.00591229 0)
(0.946872 0.00568424 0)
(0.939832 0.00546604 0)
(0.932963 0.00525618 0)
(0.926273 0.00505317 0)
(0.919773 0.00485545 0)
(0.913468 0.00466145 0)
(0.907365 0.00446951 0)
(0.901471 0.00427772 0)
(0.895792 0.00408443 0)
(0.890335 0.00388682 0)
(0.885106 0.00368377 0)
(0.880116 0.00347003 0)
(0.875374 0.00324682 0)
(0.87089 0.00300284 0)
(0.866688 0.00274609 0)
(0.862765 0.00245182 0)
(0.859183 0.00214308 0)
(0.855892 0.0017706 0)
(0.853056 0.00138017 0)
(0.850492 0.000897234 0)
(0.848586 0.000361065 0)
(0.846885 -0.000239372 0)
(0.846126 -0.00111385 0)
(0.845484 -0.001718 0)
(0.845918 -0.00324735 0)
(1.00374 0.0301981 0)
(1.03728 0.0318587 0)
(1.05285 0.0227984 0)
(1.05567 0.0194997 0)
(1.05722 0.0174797 0)
(1.05918 0.0156394 0)
(1.06066 0.014342 0)
(1.06139 0.0134211 0)
(1.06144 0.0126614 0)
(1.06085 0.0119965 0)
(1.05961 0.01141 0)
(1.05774 0.0108862 0)
(1.05526 0.0104105 0)
(1.05223 0.00997291 0)
(1.04871 0.00956691 0)
(1.04475 0.00918798 0)
(1.04042 0.00883271 0)
(1.03577 0.00849839 0)
(1.03087 0.00818283 0)
(1.02577 0.00788415 0)
(1.02051 0.00760078 0)
(1.01513 0.00733126 0)
(1.00967 0.00707429 0)
(1.00418 0.00682864 0)
(0.998665 0.00659309 0)
(0.993164 0.00636642 0)
(0.987695 0.00614742 0)
(0.982279 0.0059348 0)
(0.976933 0.00572725 0)
(0.971671 0.00552333 0)
(0.966508 0.00532155 0)
(0.961455 0.0051203 0)
(0.956526 0.00491765 0)
(0.951732 0.00471193 0)
(0.947084 0.00450018 0)
(0.942593 0.0042812 0)
(0.938274 0.00404951 0)
(0.934138 0.00380604 0)
(0.930199 0.00353936 0)
(0.92648 0.00325653 0)
(0.922985 0.00293354 0)
(0.919765 0.0025902 0)
(0.916793 0.00218157 0)
(0.914187 0.00174341 0)
(0.911839 0.00121508 0)
(0.910005 0.000612136 0)
(0.90842 -5.42387e-05 0)
(0.907537 -0.000996115 0)
(0.906884 -0.00172083 0)
(0.907048 -0.00314909 0)
(1.00337 0.0279623 0)
(1.03444 0.0308008 0)
(1.04975 0.0222188 0)
(1.05271 0.0190934 0)
(1.05422 0.0172691 0)
(1.05624 0.0155065 0)
(1.05798 0.0142307 0)
(1.05924 0.0133401 0)
(1.0601 0.0126205 0)
(1.06061 0.0119982 0)
(1.06076 0.011456 0)
(1.06052 0.0109781 0)
(1.05988 0.0105488 0)
(1.05885 0.010157 0)
(1.05744 0.00979497 0)
(1.05567 0.00945761 0)
(1.05356 0.00914099 0)
(1.05115 0.00884209 0)
(1.04847 0.00855856 0)
(1.04554 0.0082885 0)
(1.0424 0.00803038 0)
(1.03908 0.00778289 0)
(1.0356 0.00754489 0)
(1.03201 0.00731531 0)
(1.02831 0.00709315 0)
(1.02454 0.00687739 0)
(1.02072 0.00666697 0)
(1.01686 0.00646076 0)
(1.01299 0.00625758 0)
(1.00912 0.00605609 0)
(1.00527 0.00585485 0)
(1.00146 0.00565232 0)
(0.997689 0.00544654 0)
(0.993984 0.00523583 0)
(0.990355 0.00501715 0)
(0.986815 0.00478919 0)
(0.98338 0.00454634 0)
(0.980065 0.0042892 0)
(0.976884 0.00400644 0)
(0.973859 0.00370388 0)
(0.970999 0.00335891 0)
(0.968346 0.00298738 0)
(0.965887 0.00254981 0)
(0.96371 0.002071 0)
(0.961754 0.00150485 0)
(0.960187 0.000845175 0)
(0.958865 0.000122408 0)
(0.958056 -0.000872998 0)
(0.957505 -0.001706 0)
(0.957584 -0.00306707 0)
(1.00301 0.0258287 0)
(1.03172 0.0297308 0)
(1.04675 0.0216604 0)
(1.04992 0.0186842 0)
(1.0514 0.0170466 0)
(1.05338 0.0153665 0)
(1.05516 0.0141057 0)
(1.05653 0.0132308 0)
(1.05763 0.0125337 0)
(1.05853 0.0119346 0)
(1.05923 0.0114164 0)
(1.05973 0.0109645 0)
(1.05999 0.0105633 0)
(1.06002 0.0102009 0)
(1.0598 0.00986917 0)
(1.05935 0.00956222 0)
(1.05866 0.00927565 0)
(1.05773 0.00900597 0)
(1.05658 0.00875047 0)
(1.05523 0.00850697 0)
(1.05368 0.00827371 0)
(1.05195 0.00804924 0)
(1.05007 0.00783236 0)
(1.04804 0.00762197 0)
(1.04589 0.00741707 0)
(1.04363 0.00721665 0)
(1.04127 0.00701972 0)
(1.03884 0.00682516 0)
(1.03635 0.00663184 0)
(1.03382 0.00643845 0)
(1.03125 0.00624355 0)
(1.02866 0.0060456 0)
(1.02607 0.0058426 0)
(1.02349 0.00563284 0)
(1.02094 0.00541319 0)
(1.01842 0.00518221 0)
(1.01595 0.00493424 0)
(1.01354 0.00466944 0)
(1.01122 0.00437681 0)
(1.00899 0.00406073 0)
(1.00688 0.00370041 0)
(1.00491 0.00330734 0)
(1.00308 0.00284808 0)
(1.00146 0.00233648 0)
(1.00002 0.00174039 0)
(0.998851 0.00103468 0)
(0.997902 0.000267071 0)
(0.997317 -0.000768507 0)
(0.99697 -0.0016955 0)
(0.997111 -0.00301789 0)
(1.00268 0.0238 0)
(1.02912 0.0286469 0)
(1.04384 0.0211227 0)
(1.04723 0.0182718 0)
(1.04871 0.0168107 0)
(1.05066 0.015222 0)
(1.05243 0.0139779 0)
(1.05381 0.013114 0)
(1.05494 0.0124329 0)
(1.05594 0.0118482 0)
(1.05681 0.0113431 0)
(1.05757 0.010905 0)
(1.05819 0.010519 0)
(1.05869 0.0101731 0)
(1.05904 0.00985907 0)
(1.05926 0.00957085 0)
(1.05932 0.0093037 0)
(1.05924 0.00905388 0)
(1.05901 0.00881837 0)
(1.05864 0.00859469 0)
(1.05812 0.00838087 0)
(1.05746 0.00817524 0)
(1.05668 0.00797641 0)
(1.05578 0.00778317 0)
(1.05476 0.00759439 0)
(1.05365 0.00740901 0)
(1.05244 0.00722596 0)
(1.05114 0.00704409 0)
(1.04978 0.00686221 0)
(1.04835 0.00667896 0)
(1.04687 0.00649285 0)
(1.04536 0.00630229 0)
(1.04381 0.00610521 0)
(1.04224 0.00589982 0)
(1.04066 0.00568289 0)
(1.03908 0.00545283 0)
(1.03753 0.00520394 0)
(1.036 0.00493592 0)
(1.03451 0.0046382 0)
(1.03308 0.00431359 0)
(1.03171 0.0039434 0)
(1.03045 0.00353467 0)
(1.02928 0.00305997 0)
(1.02825 0.00252322 0)
(1.02736 0.00190402 0)
(1.02666 0.00116381 0)
(1.02613 0.000357152 0)
(1.02586 -0.000703799 0)
(1.02578 -0.00170855 0)
(1.02608 -0.0030145 0)
(1.00238 0.0218778 0)
(1.02665 0.0275484 0)
(1.04102 0.0206054 0)
(1.04462 0.0178578 0)
(1.04612 0.01656 0)
(1.04804 0.0150716 0)
(1.04981 0.0138484 0)
(1.05118 0.0129947 0)
(1.05231 0.0123279 0)
(1.0533 0.0117551 0)
(1.05421 0.0112589 0)
(1.05503 0.0108289 0)
(1.05577 0.0104513 0)
(1.05643 0.0101144 0)
(1.057 0.00980994 0)
(1.0575 0.00953202 0)
(1.05791 0.00927589 0)
(1.05824 0.00903772 0)
(1.05848 0.00881436 0)
(1.05863 0.00860322 0)
(1.05868 0.00840214 0)
(1.05865 0.00820931 0)
(1.05854 0.0080232 0)
(1.05834 0.00784245 0)
(1.05806 0.00766586 0)
(1.0577 0.00749223 0)
(1.05727 0.0073204 0)
(1.05677 0.00714916 0)
(1.05621 0.0069772 0)
(1.0556 0.00680313 0)
(1.05494 0.00662533 0)
(1.05423 0.00644215 0)
(1.05349 0.0062514 0)
(1.05272 0.0060512 0)
(1.05194 0.00583821 0)
(1.05114 0.00561066 0)
(1.05034 0.00536287 0)
(1.04955 0.00509397 0)
(1.04878 0.00479397 0)
(1.04804 0.00446403 0)
(1.04735 0.00408765 0)
(1.04671 0.00366764 0)
(1.04614 0.0031821 0)
(1.04566 0.00262656 0)
(1.04529 0.00198965 0)
(1.04504 0.00122461 0)
(1.04493 0.00038623 0)
(1.04499 -0.000689584 0)
(1.04519 -0.00175718 0)
(1.0457 -0.00306338 0)
(1.0021 0.0200631 0)
(1.02431 0.0264371 0)
(1.03829 0.0201063 0)
(1.04209 0.0174443 0)
(1.04362 0.0162946 0)
(1.04551 0.0149139 0)
(1.04728 0.0137168 0)
(1.04865 0.0128733 0)
(1.04976 0.0122207 0)
(1.05075 0.0116597 0)
(1.05164 0.0111715 0)
(1.05247 0.0107477 0)
(1.05322 0.0103758 0)
(1.05392 0.0100444 0)
(1.05456 0.00974548 0)
(1.05516 0.00947323 0)
(1.0557 0.00922306 0)
(1.05619 0.00899118 0)
(1.05662 0.00877446 0)
(1.05701 0.00857028 0)
(1.05735 0.00837643 0)
(1.05763 0.00819106 0)
(1.05786 0.00801253 0)
(1.05805 0.00783945 0)
(1.05818 0.0076705 0)
(1.05826 0.00750444 0)
(1.0583 0.00734003 0)
(1.05829 0.00717599 0)
(1.05824 0.00701094 0)
(1.05815 0.0068434 0)
(1.05803 0.00667167 0)
(1.05788 0.006494 0)
(1.0577 0.00630811 0)
(1.05749 0.00611202 0)
(1.05727 0.00590228 0)
(1.05704 0.0056769 0)
(1.05681 0.00543029 0)
(1.05658 0.00516098 0)
(1.05635 0.00485963 0)
(1.05615 0.00452577 0)
(1.05598 0.00414502 0)
(1.05585 0.00371638 0)
(1.05576 0.00322273 0)
(1.05574 0.00265299 0)
(1.0558 0.00200215 0)
(1.05594 0.00121955 0)
(1.05618 0.000355577 0)
(1.05653 -0.000728097 0)
(1.057 -0.00184549 0)
(1.05771 -0.00316417 0)
(1.00185 0.0183562 0)
(1.02211 0.0253172 0)
(1.03565 0.0196216 0)
(1.03966 0.0170329 0)
(1.04121 0.0160151 0)
(1.04306 0.0147481 0)
(1.04483 0.0135825 0)
(1.04621 0.0127495 0)
(1.04731 0.0121112 0)
(1.04828 0.0115626 0)
(1.04917 0.0110826 0)
(1.04998 0.0106648 0)
(1.05073 0.0102978 0)
(1.05142 0.00997079 0)
(1.05207 0.00967581 0)
(1.05268 0.00940723 0)
(1.05326 0.00916059 0)
(1.0538 0.00893223 0)
(1.0543 0.00871908 0)
(1.05478 0.00851854 0)
(1.05523 0.00832843 0)
(1.05564 0.00814687 0)
(1.05603 0.00797224 0)
(1.05639 0.00780311 0)
(1.05672 0.00763814 0)
(1.05703 0.00747606 0)
(1.05731 0.00731561 0)
(1.05757 0.00715544 0)
(1.0578 0.00699414 0)
(1.05801 0.00683017 0)
(1.05821 0.00666176 0)
(1.05838 0.00648711 0)
(1.05854 0.00630383 0)
(1.05869 0.00610983 0)
(1.05883 0.00590163 0)
(1.05897 0.00567701 0)
(1.05911 0.00543049 0)
(1.05925 0.00515999 0)
(1.0594 0.00485688 0)
(1.05957 0.00451914 0)
(1.05977 0.00413436 0)
(1.05999 0.0036983 0)
(1.06026 0.00319766 0)
(1.06057 0.00261661 0)
(1.06094 0.00195397 0)
(1.06138 0.00115873 0)
(1.06188 0.000273764 0)
(1.06247 -0.000814194 0)
(1.06315 -0.00197096 0)
(1.06401 -0.00331066 0)
(1.00162 0.0167568 0)
(1.02005 0.024193 0)
(1.03312 0.0191473 0)
(1.03731 0.0166252 0)
(1.03889 0.0157226 0)
(1.04071 0.0145734 0)
(1.04247 0.0134453 0)
(1.04385 0.0126233 0)
(1.04495 0.0119992 0)
(1.04591 0.0114637 0)
(1.04678 0.0109924 0)
(1.04758 0.0105807 0)
(1.04831 0.0102187 0)
(1.049 0.00989581 0)
(1.04964 0.00960436 0)
(1.05024 0.00933879 0)
(1.05082 0.00909481 0)
(1.05136 0.00886883 0)
(1.05188 0.00865787 0)
(1.05238 0.00845937 0)
(1.05286 0.00827118 0)
(1.05332 0.00809145 0)
(1.05377 0.00791857 0)
(1.05419 0.00775111 0)
(1.05461 0.00758776 0)
(1.05501 0.00742723 0)
(1.0554 0.00726826 0)
(1.05578 0.00710949 0)
(1.05615 0.00694948 0)
(1.05651 0.00678667 0)
(1.05686 0.00661924 0)
(1.05721 0.00644532 0)
(1.05756 0.00626249 0)
(1.0579 0.00606857 0)
(1.05824 0.00586003 0)
(1.05859 0.00563446 0)
(1.05895 0.00538652 0)
(1.05931 0.00511357 0)
(1.05969 0.00480765 0)
(1.06009 0.00446538 0)
(1.06052 0.00407604 0)
(1.06097 0.0036328 0)
(1.06146 0.00312522 0)
(1.06199 0.00253447 0)
(1.06256 0.00186091 0)
(1.06319 0.00105616 0)
(1.06387 0.00015316 0)
(1.06462 -0.000938154 0)
(1.06543 -0.00212647 0)
(1.06641 -0.0034926 0)
(1.00142 0.0152641 0)
(1.01812 0.0230683 0)
(1.0307 0.0186793 0)
(1.03504 0.0162228 0)
(1.03666 0.0154184 0)
(1.03844 0.0143893 0)
(1.0402 0.0133048 0)
(1.04158 0.0124946 0)
(1.04267 0.0118845 0)
(1.04362 0.0113627 0)
(1.04448 0.0109007 0)
(1.04527 0.0104954 0)
(1.04599 0.0101385 0)
(1.04667 0.00981993 0)
(1.0473 0.00953201 0)
(1.04789 0.00926936 0)
(1.04845 0.0090278 0)
(1.04899 0.00880386 0)
(1.04951 0.0085946 0)
(1.05 0.00839751 0)
(1.05048 0.00821049 0)
(1.05095 0.00803169 0)
(1.05141 0.00785953 0)
(1.05185 0.0076926 0)
(1.05229 0.00752959 0)
(1.05273 0.00736926 0)
(1.05316 0.00721032 0)
(1.05358 0.00705144 0)
(1.054 0.00689115 0)
(1.05443 0.00672789 0)
(1.05485 0.00655981 0)
(1.05528 0.00638501 0)
(1.05571 0.00620102 0)
(1.05614 0.00600559 0)
(1.05658 0.00579521 0)
(1.05704 0.00556722 0)
(1.0575 0.00531652 0)
(1.05798 0.0050399 0)
(1.05848 0.00473004 0)
(1.05901 0.00438242 0)
(1.05956 0.00398769 0)
(1.06013 0.0035371 0)
(1.06075 0.00302214 0)
(1.0614 0.00242242 0)
(1.06209 0.00173835 0)
(1.06282 0.000925332 0)
(1.0636 7.12819e-06 0)
(1.06444 -0.00108825 0)
(1.06533 -0.00230282 0)
(1.06637 -0.00369859 0)
(1.00124 0.0138767 0)
(1.01633 0.0219473 0)
(1.02838 0.0182139 0)
(1.03287 0.0158267 0)
(1.03453 0.015104 0)
(1.03627 0.0141953 0)
(1.03802 0.0131607 0)
(1.03941 0.0123636 0)
(1.04049 0.0117672 0)
(1.04143 0.0112595 0)
(1.04228 0.0108074 0)
(1.04306 0.0104089 0)
(1.04377 0.0100573 0)
(1.04443 0.00974314 0)
(1.04505 0.00945886 0)
(1.04563 0.0091992 0)
(1.04618 0.00896008 0)
(1.04671 0.00873813 0)
(1.04721 0.00853047 0)
(1.0477 0.00833462 0)
(1.04818 0.0081485 0)
(1.04864 0.0079703 0)
(1.04909 0.00779845 0)
(1.04953 0.00763156 0)
(1.04997 0.00746834 0)
(1.05041 0.00730754 0)
(1.05085 0.00714792 0)
(1.05128 0.00698815 0)
(1.05172 0.00682674 0)
(1.05216 0.00666214 0)
(1.05261 0.00649247 0)
(1.05306 0.00631581 0)
(1.05352 0.00612967 0)
(1.05399 0.00593172 0)
(1.05448 0.00571847 0)
(1.05497 0.00548709 0)
(1.05548 0.00523264 0)
(1.05602 0.00495146 0)
(1.05657 0.00463678 0)
(1.05715 0.00428314 0)
(1.05775 0.00388227 0)
(1.05839 0.00342409 0)
(1.05906 0.00290125 0)
(1.05976 0.00229287 0)
(1.06051 0.00159847 0)
(1.06129 0.000777632 0)
(1.06211 -0.000153709 0)
(1.06299 -0.00125451 0)
(1.06391 -0.00249162 0)
(1.06495 -0.00391827 0)
(1.00107 0.0125926 0)
(1.01467 0.0208341 0)
(1.02617 0.0177476 0)
(1.03078 0.015438 0)
(1.0325 0.0147815 0)
(1.0342 0.0139909 0)
(1.03593 0.0130123 0)
(1.03732 0.0122302 0)
(1.0384 0.0116472 0)
(1.03933 0.0111539 0)
(1.04017 0.0107125 0)
(1.04093 0.010321 0)
(1.04164 0.00997493 0)
(1.04229 0.00966536 0)
(1.04289 0.00938489 0)
(1.04346 0.00912832 0)
(1.044 0.00889172 0)
(1.04452 0.00867181 0)
(1.04502 0.00846575 0)
(1.04549 0.00827113 0)
(1.04596 0.00808587 0)
(1.04641 0.00790817 0)
(1.04685 0.0077365 0)
(1.04729 0.00756947 0)
(1.04772 0.00740581 0)
(1.04815 0.0072443 0)
(1.04859 0.00708369 0)
(1.04902 0.00692267 0)
(1.04946 0.00675976 0)
(1.0499 0.00659338 0)
(1.05035 0.00642166 0)
(1.0508 0.00624263 0)
(1.05127 0.00605381 0)
(1.05175 0.00585277 0)
(1.05224 0.00563609 0)
(1.05275 0.00540073 0)
(1.05327 0.00514195 0)
(1.05382 0.00485568 0)
(1.05439 0.00453562 0)
(1.05498 0.00417557 0)
(1.0556 0.00376805 0)
(1.05625 0.00330216 0)
(1.05694 0.00277108 0)
(1.05766 0.0021543 0)
(1.05842 0.00144967 0)
(1.05921 0.000621438 0)
(1.06004 -0.000322251 0)
(1.06092 -0.0014297 0)
(1.06184 -0.00268637 0)
(1.06286 -0.00414322 0)
(1.00093 0.0114091 0)
(1.01315 0.0197326 0)
(1.02408 0.0172775 0)
(1.02878 0.0150571 0)
(1.03056 0.0144526 0)
(1.03221 0.0137757 0)
(1.03392 0.0128592 0)
(1.03532 0.0120944 0)
(1.0364 0.0115244 0)
(1.03732 0.0110459 0)
(1.03815 0.0106156 0)
(1.0389 0.0102317 0)
(1.0396 0.00989135 0)
(1.04024 0.00958653 0)
(1.04083 0.00931 0)
(1.04139 0.00905665 0)
(1.04192 0.00882266 0)
(1.04243 0.00860486 0)
(1.04292 0.00840047 0)
(1.04338 0.0082071 0)
(1.04384 0.0080227 0)
(1.04428 0.00784551 0)
(1.04471 0.00767398 0)
(1.04514 0.00750676 0)
(1.04556 0.0073426 0)
(1.04599 0.00718028 0)
(1.04641 0.00701857 0)
(1.04684 0.00685615 0)
(1.04727 0.00669157 0)
(1.0477 0.00652323 0)
(1.04814 0.00634924 0)
(1.04859 0.00616762 0)
(1.04906 0.00597587 0)
(1.04953 0.00577148 0)
(1.05002 0.00555109 0)
(1.05052 0.00531148 0)
(1.05105 0.00504807 0)
(1.05159 0.00475646 0)
(1.05216 0.0044307 0)
(1.05275 0.0040641 0)
(1.05337 0.00364966 0)
(1.05402 0.00317608 0)
(1.0547 0.00263665 0)
(1.05541 0.00201167 0)
(1.05616 0.00129718 0)
(1.05694 0.000461619 0)
(1.05776 -0.000493351 0)
(1.05861 -0.00160828 0)
(1.05951 -0.00288215 0)
(1.06049 -0.00436714 0)
(1.0008 0.010323 0)
(1.01175 0.018647 0)
(1.02209 0.0168008 0)
(1.02687 0.0146844 0)
(1.02871 0.0141196 0)
(1.03032 0.0135498 0)
(1.03201 0.0127007 0)
(1.0334 0.0119562 0)
(1.03449 0.011399 0)
(1.0354 0.0109352 0)
(1.03622 0.0105168 0)
(1.03697 0.0101409 0)
(1.03765 0.00980645 0)
(1.03828 0.00950655 0)
(1.03887 0.00923411 0)
(1.03942 0.00898411 0)
(1.03994 0.00875284 0)
(1.04044 0.00853723 0)
(1.04091 0.00833456 0)
(1.04137 0.00814249 0)
(1.04181 0.00795899 0)
(1.04225 0.00778231 0)
(1.04267 0.00761093 0)
(1.04309 0.00744352 0)
(1.0435 0.00727882 0)
(1.04392 0.00711566 0)
(1.04433 0.0069528 0)
(1.04475 0.00678895 0)
(1.04517 0.00662263 0)
(1.0456 0.00645225 0)
(1.04603 0.00627592 0)
(1.04647 0.0060916 0)
(1.04693 0.00589681 0)
(1.04739 0.00568897 0)
(1.04787 0.00546474 0)
(1.04837 0.00522076 0)
(1.04888 0.0049526 0)
(1.04942 0.00465557 0)
(1.04997 0.00432399 0)
(1.05056 0.00395084 0)
(1.05116 0.0035294 0)
(1.0518 0.00304829 0)
(1.05247 0.00250059 0)
(1.05316 0.00186768 0)
(1.05389 0.00114382 0)
(1.05465 0.00030103 0)
(1.05544 -0.000664015 0)
(1.05626 -0.00178688 0)
(1.05712 -0.00307577 0)
(1.05805 -0.0045857 0)
(1.00069 0.00933043 0)
(1.01047 0.0175814 0)
(1.02022 0.0163151 0)
(1.02504 0.0143198 0)
(1.02694 0.0137842 0)
(1.02853 0.0133133 0)
(1.03018 0.0125362 0)
(1.03158 0.0118155 0)
(1.03266 0.0112709 0)
(1.03357 0.0108218 0)
(1.03438 0.0104158 0)
(1.03512 0.0100484 0)
(1.03579 0.00972014 0)
(1.03641 0.00942533 0)
(1.03699 0.00915715 0)
(1.03754 0.00891063 0)
(1.03805 0.00868219 0)
(1.03853 0.00846884 0)
(1.039 0.00826796 0)
(1.03945 0.00807724 0)
(1.03989 0.00789467 0)
(1.04031 0.00771853 0)
(1.04073 0.00754732 0)
(1.04114 0.00737971 0)
(1.04154 0.00721448 0)
(1.04195 0.00705047 0)
(1.04235 0.00688644 0)
(1.04276 0.00672113 0)
(1.04317 0.00655305 0)
(1.04359 0.00638059 0)
(1.04402 0.00620187 0)
(1.04445 0.00601482 0)
(1.04489 0.00581694 0)
(1.04535 0.00560561 0)
(1.04582 0.0053775 0)
(1.04631 0.00512914 0)
(1.04681 0.00485617 0)
(1.04733 0.00455374 0)
(1.04788 0.00421634 0)
(1.04844 0.00383674 0)
(1.04904 0.00340835 0)
(1.04966 0.00291992 0)
(1.0503 0.00236419 0)
(1.05098 0.00172367 0)
(1.05168 0.000991095 0)
(1.05241 0.000141232 0)
(1.05317 -0.000832682 0)
(1.05396 -0.00196338 0)
(1.05477 -0.00326509 0)
(1.05564 -0.00479583 0)
(1.0006 0.00842716 0)
(1.00931 0.0165399 0)
(1.01846 0.0158188 0)
(1.02329 0.013963 0)
(1.02527 0.0134485 0)
(1.02682 0.0130667 0)
(1.02844 0.0123651 0)
(1.02983 0.0116719 0)
(1.03092 0.0111401 0)
(1.03182 0.0107056 0)
(1.03263 0.0103125 0)
(1.03336 0.0099541 0)
(1.03403 0.00963233 0)
(1.03464 0.00934278 0)
(1.03521 0.00907901 0)
(1.03574 0.00883612 0)
(1.03625 0.00861061 0)
(1.03673 0.00839962 0)
(1.03719 0.0082006 0)
(1.03763 0.00801128 0)
(1.03805 0.00782969 0)
(1.03847 0.00765412 0)
(1.03888 0.00748309 0)
(1.03928 0.00731529 0)
(1.03968 0.00714953 0)
(1.04007 0.00698466 0)
(1.04047 0.00681946 0)
(1.04087 0.00665267 0)
(1.04127 0.00648281 0)
(1.04168 0.00630826 0)
(1.0421 0.00612713 0)
(1.04252 0.00593733 0)
(1.04296 0.00573636 0)
(1.04341 0.00552152 0)
(1.04386 0.00528953 0)
(1.04434 0.00503679 0)
(1.04483 0.00475904 0)
(1.04534 0.00445128 0)
(1.04587 0.0041081 0)
(1.04643 0.0037222 0)
(1.047 0.003287 0)
(1.0476 0.00279152 0)
(1.04823 0.00222811 0)
(1.04888 0.00158035 0)
(1.04956 0.000839793 0)
(1.05026 -1.67289e-05 0)
(1.05098 -0.000998387 0)
(1.05173 -0.00213637 0)
(1.05249 -0.00344848 0)
(1.0533 -0.00499526 0)
(1.00051 0.00760837 0)
(1.00826 0.0155264 0)
(1.01682 0.0153104 0)
(1.02163 0.0136134 0)
(1.02368 0.0131142 0)
(1.02521 0.0128108 0)
(1.02679 0.0121868 0)
(1.02818 0.0115254 0)
(1.02927 0.0110068 0)