/*--------------------------------*- C++ -*----------------------------------*\
  =========                 |
  \\      /  F ield         | OpenFOAM: The Open Source CFD Toolbox
   \\    /   O peration     | Website:  https://openfoam.org
    \\  /    A nd           | Version:  7
     \\/     M anipulation  |
\*---------------------------------------------------------------------------*/
FoamFile
{
    version     2.0;
    format      ascii;
    class       volVectorField;
    location    "0.13";
    object      vorticity;
}
// * * * * * * * * * * * * * * * * * * * * * * * * * * * * * * * * * * * * * //

dimensions      [0 0 -1 0 0 0 0];

internalField   nonuniform List<vector> 
70000
(
(0 -0 -45716.2)
(0 -0 -28618.8)
(0 -0 -20916.1)
(0 -0 -16984.5)
(0 -0 -14964.9)
(0 -0 -13659.7)
(0 -0 -12652.1)
(0 -0 -11841.5)
(0 -0 -11179.7)
(0 -0 -10627.8)
(0 -0 -10157.9)
(0 -0 -9751.45)
(0 -0 -9395.54)
(0 -0 -9080.79)
(0 -0 -8800.09)
(0 -0 -8547.99)
(0 -0 -8320.17)
(0 -0 -8113.21)
(0 -0 -7924.35)
(0 -0 -7751.32)
(0 -0 -7592.27)
(0 -0 -7445.65)
(0 -0 -7310.18)
(0 -0 -7184.75)
(0 -0 -7068.46)
(0 -0 -6960.53)
(0 -0 -6860.31)
(0 -0 -6767.25)
(0 -0 -6680.89)
(0 -0 -6600.86)
(0 -0 -6526.88)
(0 -0 -6458.7)
(0 -0 -6396.19)
(0 -0 -6339.22)
(0 -0 -6287.82)
(0 -0 -6241.99)
(0 -0 -6201.86)
(0 -0 -6167.75)
(0 -0 -6139.53)
(0 -0 -6118.6)
(0 -0 -6103.33)
(0 -0 -6098.55)
(0 -0 -6097.14)
(0 -0 -6114.4)
(0 -0 -6126.03)
(0 -0 -6177.55)
(0 -0 -6194.88)
(0 -0 -6305.15)
(0 -0 -6326.75)
(0 -0 -6249.27)
(0 -0 -13549.6)
(0 -0 -19947.5)
(0 -0 -18537)
(0 -0 -16251.6)
(0 -0 -14506.8)
(0 -0 -13284.1)
(0 -0 -12357.2)
(0 -0 -11608.6)
(0 -0 -10987.6)
(0 -0 -10463.9)
(0 -0 -10014.9)
(0 -0 -9624.57)
(0 -0 -9281.28)
(0 -0 -8976.53)
(0 -0 -8703.81)
(0 -0 -8458.1)
(0 -0 -8235.41)
(0 -0 -8032.54)
(0 -0 -7846.9)
(0 -0 -7676.35)
(0 -0 -7519.14)
(0 -0 -7373.77)
(0 -0 -7239.02)
(0 -0 -7113.83)
(0 -0 -6997.3)
(0 -0 -6888.67)
(0 -0 -6787.29)
(0 -0 -6692.61)
(0 -0 -6604.15)
(0 -0 -6521.52)
(0 -0 -6444.4)
(0 -0 -6372.5)
(0 -0 -6305.64)
(0 -0 -6243.64)
(0 -0 -6186.44)
(0 -0 -6133.97)
(0 -0 -6086.24)
(0 -0 -6043.44)
(0 -0 -6005.39)
(0 -0 -5973.09)
(0 -0 -5945.25)
(0 -0 -5925.47)
(0 -0 -5908.34)
(0 -0 -5905.29)
(0 -0 -5898.43)
(0 -0 -5920.88)
(0 -0 -5920.88)
(0 -0 -5984.58)
(0 -0 -5996.36)
(0 -0 -6162.13)
(0 -0 -3818.71)
(0 -0 -10828.5)
(0 -0 -13363.1)
(0 -0 -13519.6)
(0 -0 -12866.9)
(0 -0 -12141.5)
(0 -0 -11500.8)
(0 -0 -10941.5)
(0 -0 -10450.7)
(0 -0 -10019.3)
(0 -0 -9638.4)
(0 -0 -9300.01)
(0 -0 -8997.33)
(0 -0 -8724.91)
(0 -0 -8478.33)
(0 -0 -8254.03)
(0 -0 -8049.04)
(0 -0 -7860.95)
(0 -0 -7687.7)
(0 -0 -7527.61)
(0 -0 -7379.22)
(0 -0 -7241.31)
(0 -0 -7112.83)
(0 -0 -6992.88)
(0 -0 -6880.69)
(0 -0 -6775.58)
(0 -0 -6676.96)
(0 -0 -6584.34)
(0 -0 -6497.28)
(0 -0 -6415.4)
(0 -0 -6338.39)
(0 -0 -6265.95)
(0 -0 -6197.89)
(0 -0 -6133.99)
(0 -0 -6074.14)
(0 -0 -6018.22)
(0 -0 -5966.16)
(0 -0 -5918.03)
(0 -0 -5873.64)
(0 -0 -5833.57)
(0 -0 -5796.96)
(0 -0 -5765.95)
(0 -0 -5737.29)
(0 -0 -5717.6)
(0 -0 -5696.8)
(0 -0 -5692.93)
(0 -0 -5679.51)
(0 -0 -5698.17)
(0 -0 -5696.19)
(0 -0 -5817.85)
(0 -0 -533.09)
(0 -0 -4662.38)
(0 -0 -7717.75)
(0 -0 -9327.57)
(0 -0 -9891.42)
(0 -0 -9957.11)
(0 -0 -9825.95)
(0 -0 -9614.69)
(0 -0 -9372.09)
(0 -0 -9122.8)
(0 -0 -8879.22)
(0 -0 -8646.91)
(0 -0 -8427.96)
(0 -0 -8222.83)
(0 -0 -8031.16)
(0 -0 -7852.22)
(0 -0 -7685.15)
(0 -0 -7529.04)
(0 -0 -7383.02)
(0 -0 -7246.25)
(0 -0 -7117.96)
(0 -0 -6997.47)
(0 -0 -6884.13)
(0 -0 -6777.39)
(0 -0 -6676.72)
(0 -0 -6581.68)
(0 -0 -6491.84)
(0 -0 -6406.85)
(0 -0 -6326.38)
(0 -0 -6250.14)
(0 -0 -6177.87)
(0 -0 -6109.34)
(0 -0 -6044.37)
(0 -0 -5982.78)
(0 -0 -5924.44)
(0 -0 -5869.22)
(0 -0 -5817.04)
(0 -0 -5767.85)
(0 -0 -5721.56)
(0 -0 -5678.32)
(0 -0 -5637.83)
(0 -0 -5600.76)
(0 -0 -5566.18)
(0 -0 -5535.88)
(0 -0 -5507.71)
(0 -0 -5484.93)
(0 -0 -5465.38)
(0 -0 -5448.42)
(0 -0 -5448.97)
(0 -0 -5455.86)
(0 -0 322.383)
(0 -0 -1444.43)
(0 -0 -3532.03)
(0 -0 -5258.04)
(0 -0 -6397.64)
(0 -0 -7072.17)
(0 -0 -7449.62)
(0 -0 -7640.43)
(0 -0 -7712.8)
(0 -0 -7710.94)
(0 -0 -7663.38)
(0 -0 -7588.16)
(0 -0 -7496.7)
(0 -0 -7396.26)
(0 -0 -7291.54)
(0 -0 -7185.55)
(0 -0 -7080.25)
(0 -0 -6976.89)
(0 -0 -6876.25)
(0 -0 -6778.78)
(0 -0 -6684.75)
(0 -0 -6594.27)
(0 -0 -6507.35)
(0 -0 -6423.96)
(0 -0 -6344.01)
(0 -0 -6267.4)
(0 -0 -6194)
(0 -0 -6123.68)
(0 -0 -6056.33)
(0 -0 -5991.8)
(0 -0 -5929.99)
(0 -0 -5870.76)
(0 -0 -5814.02)
(0 -0 -5759.67)
(0 -0 -5707.61)
(0 -0 -5657.76)
(0 -0 -5610.08)
(0 -0 -5564.45)
(0 -0 -5520.9)
(0 -0 -5479.27)
(0 -0 -5439.79)
(0 -0 -5401.92)
(0 -0 -5366.73)
(0 -0 -5332.15)
(0 -0 -5302.31)
(0 -0 -5269.21)
(0 -0 -5248.99)
(0 -0 -5209.81)
(0 -0 -5216.53)
(0 -0 -5159.03)
(0 -0 364.656)
(0 -0 -158.562)
(0 -0 -1181.25)
(0 -0 -2361.2)
(0 -0 -3416.03)
(0 -0 -4254)
(0 -0 -4888.59)
(0 -0 -5353.77)
(0 -0 -5684.64)
(0 -0 -5913.2)
(0 -0 -6065.72)
(0 -0 -6162.28)
(0 -0 -6217.79)
(0 -0 -6243.2)
(0 -0 -6246.56)
(0 -0 -6233.79)
(0 -0 -6209.26)
(0 -0 -6176.24)
(0 -0 -6137.15)
(0 -0 -6093.81)
(0 -0 -6047.59)
(0 -0 -5999.52)
(0 -0 -5950.38)
(0 -0 -5900.75)
(0 -0 -5851.09)
(0 -0 -5801.72)
(0 -0 -5752.9)
(0 -0 -5704.82)
(0 -0 -5657.6)
(0 -0 -5611.35)
(0 -0 -5566.13)
(0 -0 -5522)
(0 -0 -5478.97)
(0 -0 -5437.06)
(0 -0 -5396.28)
(0 -0 -5356.61)
(0 -0 -5318.08)
(0 -0 -5280.59)
(0 -0 -5244.29)
(0 -0 -5208.82)
(0 -0 -5174.81)
(0 -0 -5140.99)
(0 -0 -5109.66)
(0 -0 -5076.49)
(0 -0 -5049.22)
(0 -0 -5013.73)
(0 -0 -4995.38)
(0 -0 -4948.53)
(0 -0 -4953.92)
(0 -0 -4884.82)
(0 -0 253.986)
(0 -0 185.254)
(0 -0 -173.221)
(0 -0 -764.262)
(0 -0 -1446.71)
(0 -0 -2113.77)
(0 -0 -2718.19)
(0 -0 -3240.61)
(0 -0 -3676.94)
(0 -0 -4032.99)
(0 -0 -4319.03)
(0 -0 -4546.16)
(0 -0 -4724.69)
(0 -0 -4863.57)
(0 -0 -4970.3)
(0 -0 -5051.05)
(0 -0 -5110.85)
(0 -0 -5153.73)
(0 -0 -5182.96)
(0 -0 -5201.17)
(0 -0 -5210.47)
(0 -0 -5212.58)
(0 -0 -5208.89)
(0 -0 -5200.51)
(0 -0 -5188.35)
(0 -0 -5173.16)
(0 -0 -5155.55)
(0 -0 -5136.01)
(0 -0 -5114.95)
(0 -0 -5092.71)
(0 -0 -5069.55)
(0 -0 -5045.7)
(0 -0 -5021.35)
(0 -0 -4996.64)
(0 -0 -4971.7)
(0 -0 -4946.61)
(0 -0 -4921.47)
(0 -0 -4896.27)
(0 -0 -4871.21)
(0 -0 -4845.95)
(0 -0 -4821.23)
(0 -0 -4795.61)
(0 -0 -4771.73)
(0 -0 -4744.7)
(0 -0 -4723.05)
(0 -0 -4691.58)
(0 -0 -4676.28)
(0 -0 -4632.88)
(0 -0 -4632.74)
(0 -0 -4573.13)
(0 -0 178.716)
(0 -0 204.459)
(0 -0 130.636)
(0 -0 -85.0837)
(0 -0 -417.42)
(0 -0 -813.901)
(0 -0 -1234.71)
(0 -0 -1651.02)
(0 -0 -2043.04)
(0 -0 -2399.82)
(0 -0 -2717.14)
(0 -0 -2994.92)
(0 -0 -3235.32)
(0 -0 -3441.67)
(0 -0 -3617.68)
(0 -0 -3767.07)
(0 -0 -3893.33)
(0 -0 -3999.63)
(0 -0 -4088.78)
(0 -0 -4163.2)
(0 -0 -4225.02)
(0 -0 -4276.04)
(0 -0 -4317.81)
(0 -0 -4351.67)
(0 -0 -4378.72)
(0 -0 -4399.94)
(0 -0 -4416.13)
(0 -0 -4427.99)
(0 -0 -4436.12)
(0 -0 -4441.02)
(0 -0 -4443.12)
(0 -0 -4442.79)
(0 -0 -4440.34)
(0 -0 -4436.05)
(0 -0 -4430.12)
(0 -0 -4422.75)
(0 -0 -4414.11)
(0 -0 -4404.27)
(0 -0 -4393.47)
(0 -0 -4381.46)
(0 -0 -4368.93)
(0 -0 -4354.64)
(0 -0 -4340.95)
(0 -0 -4323.52)
(0 -0 -4309.83)
(0 -0 -4286.73)
(0 -0 -4275.96)
(0 -0 -4241.81)
(0 -0 -4237.99)
(0 -0 -4191.65)
(0 -0 147.987)
(0 -0 164.571)
(0 -0 169.943)
(0 -0 120.969)
(0 -0 1.17743)
(0 -0 -180.296)
(0 -0 -408.064)
(0 -0 -665.8)
(0 -0 -937.708)
(0 -0 -1210.91)
(0 -0 -1476.2)
(0 -0 -1727.61)
(0 -0 -1961.63)
(0 -0 -2176.57)
(0 -0 -2372.05)
(0 -0 -2548.51)
(0 -0 -2706.89)
(0 -0 -2848.45)
(0 -0 -2974.56)
(0 -0 -3086.61)
(0 -0 -3185.96)
(0 -0 -3273.89)
(0 -0 -3351.6)
(0 -0 -3420.17)
(0 -0 -3480.59)
(0 -0 -3533.71)
(0 -0 -3580.34)
(0 -0 -3621.17)
(0 -0 -3656.8)
(0 -0 -3687.78)
(0 -0 -3714.59)
(0 -0 -3737.65)
(0 -0 -3757.32)
(0 -0 -3773.94)
(0 -0 -3787.76)
(0 -0 -3799.05)
(0 -0 -3807.99)
(0 -0 -3814.75)
(0 -0 -3819.52)
(0 -0 -3822.23)
(0 -0 -3823.39)
(0 -0 -3822.1)
(0 -0 -3820.19)
(0 -0 -3814.28)
(0 -0 -3810.17)
(0 -0 -3797.69)
(0 -0 -3793.21)
(0 -0 -3770.39)
(0 -0 -3766.7)
(0 -0 -3733.31)
(0 -0 136.791)
(0 -0 137.038)
(0 -0 148.696)
(0 -0 149.637)
(0 -0 122.189)
(0 -0 60.2312)
(0 -0 -36.0262)
(0 -0 -162.918)
(0 -0 -314.1)
(0 -0 -482.281)
(0 -0 -660.57)
(0 -0 -843.074)
(0 -0 -1025.07)
(0 -0 -1202.98)
(0 -0 -1374.26)
(0 -0 -1537.19)
(0 -0 -1690.77)
(0 -0 -1834.48)
(0 -0 -1968.18)
(0 -0 -2092.03)
(0 -0 -2206.33)
(0 -0 -2311.53)
(0 -0 -2408.15)
(0 -0 -2496.72)
(0 -0 -2577.8)
(0 -0 -2651.93)
(0 -0 -2719.63)
(0 -0 -2781.39)
(0 -0 -2837.68)
(0 -0 -2888.91)
(0 -0 -2935.48)
(0 -0 -2977.75)
(0 -0 -3016.04)
(0 -0 -3050.64)
(0 -0 -3081.8)
(0 -0 -3109.77)
(0 -0 -3134.72)
(0 -0 -3156.83)
(0 -0 -3176.26)
(0 -0 -3193.02)
(0 -0 -3207.45)
(0 -0 -3218.98)
(0 -0 -3228.87)
(0 -0 -3234.66)
(0 -0 -3240.6)
(0 -0 -3239.16)
(0 -0 -3242.08)
(0 -0 -3230.74)
(0 -0 -3230.15)
(0 -0 -3208.85)
(0 -0 129.908)
(0 -0 123.965)
(0 -0 129.147)
(0 -0 136.342)
(0 -0 136.432)
(0 -0 123.196)
(0 -0 93.0106)
(0 -0 44.0415)
(0 -0 -23.5389)
(0 -0 -107.901)
(0 -0 -206.282)
(0 -0 -315.557)
(0 -0 -432.594)
(0 -0 -554.5)
(0 -0 -678.743)
(0 -0 -803.215)
(0 -0 -926.218)
(0 -0 -1046.44)
(0 -0 -1162.9)
(0 -0 -1274.91)
(0 -0 -1381.99)
(0 -0 -1483.88)
(0 -0 -1580.45)
(0 -0 -1671.68)
(0 -0 -1757.64)
(0 -0 -1838.44)
(0 -0 -1914.26)
(0 -0 -1985.28)
(0 -0 -2051.7)
(0 -0 -2113.74)
(0 -0 -2171.6)
(0 -0 -2225.5)
(0 -0 -2275.61)
(0 -0 -2322.15)
(0 -0 -2365.24)
(0 -0 -2405.1)
(0 -0 -2441.79)
(0 -0 -2475.5)
(0 -0 -2506.28)
(0 -0 -2534.18)
(0 -0 -2559.4)
(0 -0 -2581.53)
(0 -0 -2601.45)
(0 -0 -2617.35)
(0 -0 -2632.24)
(0 -0 -2640.69)
(0 -0 -2650.81)
(0 -0 -2649.83)
(0 -0 -2653.77)
(0 -0 -2643.21)
(0 -0 122.915)
(0 -0 116.611)
(0 -0 117.981)
(0 -0 122.454)
(0 -0 126.391)
(0 -0 126.86)
(0 -0 121.402)
(0 -0 107.728)
(0 -0 84.2051)
(0 -0 50.1333)
(0 -0 5.6058)
(0 -0 -48.6705)
(0 -0 -111.575)
(0 -0 -181.748)
(0 -0 -257.742)
(0 -0 -338.126)
(0 -0 -421.562)
(0 -0 -506.843)
(0 -0 -592.917)
(0 -0 -678.888)
(0 -0 -764.017)
(0 -0 -847.703)
(0 -0 -929.474)
(0 -0 -1008.97)
(0 -0 -1085.92)
(0 -0 -1160.12)
(0 -0 -1231.46)
(0 -0 -1299.86)
(0 -0 -1365.26)
(0 -0 -1427.67)
(0 -0 -1487.1)
(0 -0 -1543.58)
(0 -0 -1597.14)
(0 -0 -1647.86)
(0 -0 -1695.74)
(0 -0 -1740.88)
(0 -0 -1783.28)
(0 -0 -1823.02)
(0 -0 -1860.09)
(0 -0 -1894.49)
(0 -0 -1926.31)
(0 -0 -1955.22)
(0 -0 -1981.81)
(0 -0 -2004.71)
(0 -0 -2026.02)
(0 -0 -2041.85)
(0 -0 -2057.6)
(0 -0 -2064.82)
(0 -0 -2073.21)
(0 -0 -2071.38)
(0 -0 115.593)
(0 -0 110.376)
(0 -0 110.697)
(0 -0 113.135)
(0 -0 115.944)
(0 -0 118.198)
(0 -0 119.072)
(0 -0 117.37)
(0 -0 111.818)
(0 -0 101.368)
(0 -0 85.3006)
(0 -0 63.2451)
(0 -0 35.1451)
(0 -0 1.21726)
(0 -0 -38.1146)
(0 -0 -82.2847)
(0 -0 -130.643)
(0 -0 -182.504)
(0 -0 -237.183)
(0 -0 -294.022)
(0 -0 -352.409)
(0 -0 -411.79)
(0 -0 -471.668)
(0 -0 -531.614)
(0 -0 -591.255)
(0 -0 -650.276)
(0 -0 -708.411)
(0 -0 -765.439)
(0 -0 -821.175)
(0 -0 -875.473)
(0 -0 -928.205)
(0 -0 -979.281)
(0 -0 -1028.61)
(0 -0 -1076.14)
(0 -0 -1121.8)
(0 -0 -1165.56)
(0 -0 -1207.35)
(0 -0 -1247.15)
(0 -0 -1284.91)
(0 -0 -1320.54)
(0 -0 -1354.07)
(0 -0 -1385.18)
(0 -0 -1414.25)
(0 -0 -1440.24)
(0 -0 -1464.52)
(0 -0 -1484.4)
(0 -0 -1503.27)
(0 -0 -1515.75)
(0 -0 -1527.34)
(0 -0 -1531.7)
(0 -0 108.346)
(0 -0 104.157)
(0 -0 104.37)
(0 -0 106.078)
(0 -0 107.944)
(0 -0 109.65)
(0 -0 111.181)
(0 -0 112.193)
(0 -0 112.109)
(0 -0 110.3)
(0 -0 106.184)
(0 -0 99.2608)
(0 -0 89.1554)
(0 -0 75.629)
(0 -0 58.5852)
(0 -0 38.0484)
(0 -0 14.148)
(0 -0 -12.9043)
(0 -0 -42.8384)
(0 -0 -75.3444)
(0 -0 -110.093)
(0 -0 -146.747)
(0 -0 -184.976)
(0 -0 -224.463)
(0 -0 -264.908)
(0 -0 -306.032)
(0 -0 -347.584)
(0 -0 -389.328)
(0 -0 -431.058)
(0 -0 -472.585)
(0 -0 -513.739)
(0 -0 -554.373)
(0 -0 -594.342)
(0 -0 -633.533)
(0 -0 -671.821)
(0 -0 -709.116)
(0 -0 -745.303)
(0 -0 -780.296)
(0 -0 -814.001)
(0 -0 -846.285)
(0 -0 -877.13)
(0 -0 -906.223)
(0 -0 -933.794)
(0 -0 -959.047)
(0 -0 -982.826)
(0 -0 -1003.33)
(0 -0 -1022.52)
(0 -0 -1037.14)
(0 -0 -1050.05)
(0 -0 -1057.89)
(0 -0 101.365)
(0 -0 97.9632)
(0 -0 98.1906)
(0 -0 99.6654)
(0 -0 101.177)
(0 -0 102.445)
(0 -0 103.664)
(0 -0 104.845)
(0 -0 105.816)
(0 -0 106.332)
(0 -0 106.114)
(0 -0 104.865)
(0 -0 102.297)
(0 -0 98.153)
(0 -0 92.2225)
(0 -0 84.3542)
(0 -0 74.455)
(0 -0 62.4888)
(0 -0 48.472)
(0 -0 32.4649)
(0 -0 14.5642)
(0 -0 -5.105)
(0 -0 -26.398)
(0 -0 -49.158)
(0 -0 -73.2178)
(0 -0 -98.4143)
(0 -0 -124.573)
(0 -0 -151.539)
(0 -0 -179.152)
(0 -0 -207.26)
(0 -0 -235.717)
(0 -0 -264.387)
(0 -0 -293.136)
(0 -0 -321.843)
(0 -0 -350.382)
(0 -0 -378.646)
(0 -0 -406.517)
(0 -0 -433.884)
(0 -0 -460.647)
(0 -0 -486.658)
(0 -0 -511.872)
(0 -0 -536.016)
(0 -0 -559.203)
(0 -0 -580.856)
(0 -0 -601.441)
(0 -0 -619.804)
(0 -0 -636.967)
(0 -0 -651.066)
(0 -0 -663.415)
(0 -0 -672.292)
(0 -0 94.6867)
(0 -0 91.9113)
(0 -0 92.1271)
(0 -0 93.4531)
(0 -0 94.8327)
(0 -0 95.9283)
(0 -0 96.9234)
(0 -0 97.9164)
(0 -0 98.88)
(0 -0 99.7477)
(0 -0 100.431)
(0 -0 100.813)
(0 -0 100.757)
(0 -0 100.115)
(0 -0 98.7407)
(0 -0 96.4993)
(0 -0 93.2732)
(0 -0 88.9671)
(0 -0 83.5109)
(0 -0 76.8595)
(0 -0 68.9944)
(0 -0 59.9159)
(0 -0 49.651)
(0 -0 38.238)
(0 -0 25.7318)
(0 -0 12.1971)
(0 -0 -2.29079)
(0 -0 -17.6526)
(0 -0 -33.8024)
(0 -0 -50.6526)
(0 -0 -68.1117)
(0 -0 -86.09)
(0 -0 -104.493)
(0 -0 -123.232)
(0 -0 -142.212)
(0 -0 -161.341)
(0 -0 -180.528)
(0 -0 -199.673)
(0 -0 -218.692)
(0 -0 -237.455)
(0 -0 -255.914)
(0 -0 -273.853)
(0 -0 -291.315)
(0 -0 -307.906)
(0 -0 -323.846)
(0 -0 -338.439)
(0 -0 -352.147)
(0 -0 -363.951)
(0 -0 -374.364)
(0 -0 -382.512)
(0 -0 88.3082)
(0 -0 86.0532)
(0 -0 86.2506)
(0 -0 87.4271)
(0 -0 88.7085)
(0 -0 89.725)
(0 -0 90.6139)
(0 -0 91.4791)
(0 -0 92.3249)
(0 -0 93.1372)
(0 -0 93.9002)
(0 -0 94.5853)
(0 -0 95.1474)
(0 -0 95.5281)
(0 -0 95.66)
(0 -0 95.4703)
(0 -0 94.8856)
(0 -0 93.8347)
(0 -0 92.2527)
(0 -0 90.0828)
(0 -0 87.2781)
(0 -0 83.8037)
(0 -0 79.6336)
(0 -0 74.7556)
(0 -0 69.1648)
(0 -0 62.8708)
(0 -0 55.8806)
(0 -0 48.2253)
(0 -0 39.9303)
(0 -0 31.0295)
(0 -0 21.5633)
(0 -0 11.5753)
(0 -0 1.1142)
(0 -0 -9.76863)
(0 -0 -21.0186)
(0 -0 -32.5767)
(0 -0 -44.3849)
(0 -0 -56.3723)
(0 -0 -68.4835)
(0 -0 -80.623)
(0 -0 -92.751)
(0 -0 -104.722)
(0 -0 -116.537)
(0 -0 -127.952)
(0 -0 -139.048)
(0 -0 -149.43)
(0 -0 -159.27)
(0 -0 -168.027)
(0 -0 -175.865)
(0 -0 -182.308)
(0 -0 82.2285)
(0 -0 80.4068)
(0 -0 80.5944)
(0 -0 81.6263)
(0 -0 82.8043)
(0 -0 83.7555)
(0 -0 84.5765)
(0 -0 85.3644)
(0 -0 86.1277)
(0 -0 86.8599)
(0 -0 87.5625)
(0 -0 88.2349)
(0 -0 88.8689)
(0 -0 89.4485)
(0 -0 89.9515)
(0 -0 90.3502)
(0 -0 90.6123)
(0 -0 90.7027)
(0 -0 90.5847)
(0 -0 90.2221)
(0 -0 89.5798)
(0 -0 88.6263)
(0 -0 87.3331)
(0 -0 85.6763)
(0 -0 83.6368)
(0 -0 81.1994)
(0 -0 78.3569)
(0 -0 75.1009)
(0 -0 71.4329)
(0 -0 67.3575)
(0 -0 62.8832)
(0 -0 58.0231)
(0 -0 52.7934)
(0 -0 47.2155)
(0 -0 41.3129)
(0 -0 35.1151)
(0 -0 28.6502)
(0 -0 21.959)
(0 -0 15.0712)
(0 -0 8.04501)
(0 -0 0.905498)
(0 -0 -6.25909)
(0 -0 -13.4387)
(0 -0 -20.4953)
(0 -0 -27.4457)
(0 -0 -34.0816)
(0 -0 -40.4459)
(0 -0 -46.2614)
(0 -0 -51.5649)
(0 -0 -56.0733)
(0 -0 76.4482)
(0 -0 74.9836)
(0 -0 75.1706)
(0 -0 76.0706)
(0 -0 77.1429)
(0 -0 78.0275)
(0 -0 78.787)
(0 -0 79.5125)
(0 -0 80.2142)
(0 -0 80.8848)
(0 -0 81.5267)
(0 -0 82.1447)
(0 -0 82.7403)
(0 -0 83.3116)
(0 -0 83.8541)
(0 -0 84.3605)
(0 -0 84.8206)
(0 -0 85.2216)
(0 -0 85.5486)
(0 -0 85.7851)
(0 -0 85.9136)
(0 -0 85.9162)
(0 -0 85.7755)
(0 -0 85.4744)
(0 -0 84.9974)
(0 -0 84.3299)
(0 -0 83.4596)
(0 -0 82.3755)
(0 -0 81.069)
(0 -0 79.5336)
(0 -0 77.7655)
(0 -0 75.7634)
(0 -0 73.5282)
(0 -0 71.0641)
(0 -0 68.3764)
(0 -0 65.476)
(0 -0 62.3721)
(0 -0 59.0834)
(0 -0 55.6217)
(0 -0 52.0169)
(0 -0 48.2802)
(0 -0 44.4596)
(0 -0 40.5624)
(0 -0 36.659)
(0 -0 32.7531)
(0 -0 28.9486)
(0 -0 25.2406)
(0 -0 21.7728)
(0 -0 18.5334)
(0 -0 15.7085)
(0 -0 70.9671)
(0 -0 69.7939)
(0 -0 69.986)
(0 -0 70.7687)
(0 -0 71.7371)
(0 -0 72.555)
(0 -0 73.2546)
(0 -0 73.9209)
(0 -0 74.5669)
(0 -0 75.1848)
(0 -0 75.7752)
(0 -0 76.3427)
(0 -0 76.8904)
(0 -0 77.4194)
(0 -0 77.93)
(0 -0 78.4215)
(0 -0 78.8919)
(0 -0 79.3382)
(0 -0 79.756)
(0 -0 80.1396)
(0 -0 80.4827)
(0 -0 80.7781)
(0 -0 81.0178)
(0 -0 81.1939)
(0 -0 81.298)
(0 -0 81.3217)
(0 -0 81.2566)
(0 -0 81.0948)
(0 -0 80.8288)
(0 -0 80.4518)
(0 -0 79.9578)
(0 -0 79.3421)
(0 -0 78.6008)
(0 -0 77.7319)
(0 -0 76.7337)
(0 -0 75.6078)
(0 -0 74.3548)
(0 -0 72.9805)
(0 -0 71.4881)
(0 -0 69.8888)
(0 -0 68.1879)
(0 -0 66.4038)
(0 -0 64.5432)
(0 -0 62.6373)
(0 -0 60.6888)
(0 -0 58.7506)
(0 -0 56.8148)
(0 -0 54.9699)
(0 -0 53.183)
(0 -0 51.603)
(0 -0 65.7837)
(0 -0 64.8462)
(0 -0 65.0465)
(0 -0 65.7254)
(0 -0 66.5938)
(0 -0 67.3463)
(0 -0 67.9884)
(0 -0 68.5975)
(0 -0 69.1898)
(0 -0 69.7579)
(0 -0 70.301)
(0 -0 70.8228)
(0 -0 71.3261)
(0 -0 71.8124)
(0 -0 72.2826)
(0 -0 72.7374)
(0 -0 73.1773)
(0 -0 73.602)
(0 -0 74.011)
(0 -0 74.4031)
(0 -0 74.7766)
(0 -0 75.1297)
(0 -0 75.46)
(0 -0 75.7646)
(0 -0 76.0406)
(0 -0 76.2844)
(0 -0 76.4921)
(0 -0 76.6597)
(0 -0 76.7829)
(0 -0 76.8576)
(0 -0 76.8794)
(0 -0 76.8447)
(0 -0 76.7498)
(0 -0 76.5917)
(0 -0 76.3677)
(0 -0 76.0762)
(0 -0 75.7155)
(0 -0 75.2858)
(0 -0 74.7867)
(0 -0 74.2209)
(0 -0 73.5894)
(0 -0 72.8985)
(0 -0 72.1495)
(0 -0 71.3557)
(0 -0 70.5151)
(0 -0 69.656)
(0 -0 68.7617)
(0 -0 67.8949)
(0 -0 67.0006)
(0 -0 66.2108)
(0 -0 60.8951)
(0 -0 60.147)
(0 -0 60.3561)
(0 -0 60.9439)
(0 -0 61.7171)
(0 -0 62.406)
(0 -0 62.9935)
(0 -0 63.548)
(0 -0 64.0887)
(0 -0 64.6091)
(0 -0 65.107)
(0 -0 65.5856)
(0 -0 66.0473)
(0 -0 66.4933)
(0 -0 66.9246)
(0 -0 67.342)
(0 -0 67.7462)
(0 -0 68.1376)
(0 -0 68.5166)
(0 -0 68.8834)
(0 -0 69.238)
(0 -0 69.5803)
(0 -0 69.9102)
(0 -0 70.2274)
(0 -0 70.5312)
(0 -0 70.8208)
(0 -0 71.095)
(0 -0 71.3521)
(0 -0 71.5903)
(0 -0 71.8076)
(0 -0 72.0018)
(0 -0 72.1708)
(0 -0 72.3123)
(0 -0 72.4244)
(0 -0 72.5048)
(0 -0 72.5519)
(0 -0 72.5639)
(0 -0 72.5395)
(0 -0 72.4776)
(0 -0 72.3777)
(0 -0 72.239)
(0 -0 72.0629)
(0 -0 71.8479)
(0 -0 71.5999)
(0 -0 71.3122)
(0 -0 71.0036)
(0 -0 70.6494)
(0 -0 70.3019)
(0 -0 69.8907)
(0 -0 69.5413)
(0 -0 56.2976)
(0 -0 55.7003)
(0 -0 55.9174)
(0 -0 56.4256)
(0 -0 57.1092)
(0 -0 57.7366)
(0 -0 58.2724)
(0 -0 58.7754)
(0 -0 59.267)
(0 -0 59.7416)
(0 -0 60.1965)
(0 -0 60.6338)
(0 -0 61.0559)
(0 -0 61.4638)
(0 -0 61.8583)
(0 -0 62.24)
(0 -0 62.6095)
(0 -0 62.9675)
(0 -0 63.3143)
(0 -0 63.6503)
(0 -0 63.9761)
(0 -0 64.2921)
(0 -0 64.5989)
(0 -0 64.8969)
(0 -0 65.1865)
(0 -0 65.4679)
(0 -0 65.7408)
(0 -0 66.005)
(0 -0 66.2597)
(0 -0 66.5041)
(0 -0 66.7372)
(0 -0 66.9581)
(0 -0 67.1654)
(0 -0 67.3582)
(0 -0 67.5352)
(0 -0 67.695)
(0 -0 67.8366)
(0 -0 67.9587)
(0 -0 68.0602)
(0 -0 68.14)
(0 -0 68.1969)
(0 -0 68.2307)
(0 -0 68.2386)
(0 -0 68.2243)
(0 -0 68.1783)
(0 -0 68.1163)
(0 -0 68.0089)
(0 -0 67.9048)
(0 -0 67.7251)
(0 -0 67.5934)
(0 -0 51.9858)
(0 -0 51.5081)
(0 -0 51.731)
(0 -0 52.1699)
(0 -0 52.7704)
(0 -0 53.3386)
(0 -0 53.8257)
(0 -0 54.2804)
(0 -0 54.7253)
(0 -0 55.1566)
(0 -0 55.5706)
(0 -0 55.9689)
(0 -0 56.3533)
(0 -0 56.725)
(0 -0 57.0845)
(0 -0 57.4323)
(0 -0 57.769)
(0 -0 58.095)
(0 -0 58.4107)
(0 -0 58.7166)
(0 -0 59.0131)
(0 -0 59.3009)
(0 -0 59.5808)
(0 -0 59.8533)
(0 -0 60.1192)
(0 -0 60.3789)
(0 -0 60.6326)
(0 -0 60.8803)
(0 -0 61.1218)
(0 -0 61.3568)
(0 -0 61.5847)
(0 -0 61.8052)
(0 -0 62.0174)
(0 -0 62.221)
(0 -0 62.415)
(0 -0 62.5988)
(0 -0 62.7716)
(0 -0 62.9324)
(0 -0 63.0804)
(0 -0 63.2146)
(0 -0 63.3338)
(0 -0 63.4378)
(0 -0 63.5231)
(0 -0 63.5931)
(0 -0 63.6371)
(0 -0 63.6701)
(0 -0 63.6606)
(0 -0 63.6561)
(0 -0 63.5743)
(0 -0 63.5384)
(0 -0 47.9535)
(0 -0 47.5701)
(0 -0 47.7958)
(0 -0 48.1748)
(0 -0 48.6989)
(0 -0 49.2104)
(0 -0 49.6518)
(0 -0 50.0614)
(0 -0 50.4626)
(0 -0 50.8529)
(0 -0 51.2284)
(0 -0 51.5898)
(0 -0 51.9387)
(0 -0 52.2762)
(0 -0 52.6026)
(0 -0 52.9184)
(0 -0 53.2239)
(0 -0 53.5197)
(0 -0 53.8059)
(0 -0 54.0831)
(0 -0 54.3516)
(0 -0 54.6123)
(0 -0 54.8657)
(0 -0 55.1128)
(0 -0 55.3541)
(0 -0 55.5902)
(0 -0 55.8214)
(0 -0 56.0478)
(0 -0 56.2692)
(0 -0 56.4855)
(0 -0 56.6963)
(0 -0 56.9014)
(0 -0 57.1004)
(0 -0 57.2928)
(0 -0 57.4782)
(0 -0 57.656)
(0 -0 57.8257)
(0 -0 57.9865)
(0 -0 58.1379)
(0 -0 58.2791)
(0 -0 58.4089)
(0 -0 58.5273)
(0 -0 58.6307)
(0 -0 58.7228)
(0 -0 58.7921)
(0 -0 58.8541)
(0 -0 58.8766)
(0 -0 58.9063)
(0 -0 58.861)
(0 -0 58.8627)
(0 -0 44.1931)
(0 -0 43.8839)
(0 -0 44.109)
(0 -0 44.4362)
(0 -0 44.8909)
(0 -0 45.3486)
(0 -0 45.7473)
(0 -0 46.1151)
(0 -0 46.4754)
(0 -0 46.8274)
(0 -0 47.1668)
(0 -0 47.4936)
(0 -0 47.8092)
(0 -0 48.1145)
(0 -0 48.4098)
(0 -0 48.6954)
(0 -0 48.9717)
(0 -0 49.2389)
(0 -0 49.4973)
(0 -0 49.7474)
(0 -0 49.9896)
(0 -0 50.2245)
(0 -0 50.453)
(0 -0 50.6757)
(0 -0 50.8935)
(0 -0 51.1068)
(0 -0 51.316)
(0 -0 51.521)
(0 -0 51.7218)
(0 -0 51.9182)
(0 -0 52.11)
(0 -0 52.2968)
(0 -0 52.4784)
(0 -0 52.6544)
(0 -0 52.8245)
(0 -0 52.9881)
(0 -0 53.1448)
(0 -0 53.2942)
(0 -0 53.4355)
(0 -0 53.5684)
(0 -0 53.6916)
(0 -0 53.8054)
(0 -0 53.9061)
(0 -0 53.9977)
(0 -0 54.0688)
(0 -0 54.1347)
(0 -0 54.1638)
(0 -0 54.202)
(0 -0 54.1684)
(0 -0 54.1833)
(0 -0 40.6958)
(0 -0 40.4453)
(0 -0 40.6661)
(0 -0 40.9487)
(0 -0 41.341)
(0 -0 41.7481)
(0 -0 42.1068)
(0 -0 42.4362)
(0 -0 42.7586)
(0 -0 43.0748)
(0 -0 43.3805)
(0 -0 43.6751)
(0 -0 43.9597)
(0 -0 44.235)
(0 -0 44.5012)
(0 -0 44.7586)
(0 -0 45.0074)
(0 -0 45.2479)
(0 -0 45.4803)
(0 -0 45.705)
(0 -0 45.9223)
(0 -0 46.1331)
(0 -0 46.3381)
(0 -0 46.5381)
(0 -0 46.7338)
(0 -0 46.9257)
(0 -0 47.114)
(0 -0 47.2988)
(0 -0 47.48)
(0 -0 47.6574)
(0 -0 47.8306)
(0 -0 47.9995)
(0 -0 48.1637)
(0 -0 48.3229)
(0 -0 48.4768)
(0 -0 48.6249)
(0 -0 48.7669)
(0 -0 48.9023)
(0 -0 49.0305)
(0 -0 49.1513)
(0 -0 49.2633)
(0 -0 49.3673)
(0 -0 49.4594)
(0 -0 49.5437)
(0 -0 49.6093)
(0 -0 49.671)
(0 -0 49.6987)
(0 -0 49.7362)
(0 -0 49.706)
(0 -0 49.7249)
(0 -0 37.452)
(0 -0 37.2482)
(0 -0 37.4608)
(0 -0 37.7051)
(0 -0 38.042)
(0 -0 38.4017)
(0 -0 38.7233)
(0 -0 39.0175)
(0 -0 39.305)
(0 -0 39.5881)
(0 -0 39.8627)
(0 -0 40.1275)
(0 -0 40.3833)
(0 -0 40.6308)
(0 -0 40.87)
(0 -0 41.1012)
(0 -0 41.3245)
(0 -0 41.5401)
(0 -0 41.7482)
(0 -0 41.9491)
(0 -0 42.1434)
(0 -0 42.3317)
(0 -0 42.5147)
(0 -0 42.6935)
(0 -0 42.8685)
(0 -0 43.0404)
(0 -0 43.2093)
(0 -0 43.3752)
(0 -0 43.5381)
(0 -0 43.6977)
(0 -0 43.8536)
(0 -0 44.0056)
(0 -0 44.1534)
(0 -0 44.2967)
(0 -0 44.4352)
(0 -0 44.5684)
(0 -0 44.696)
(0 -0 44.8176)
(0 -0 44.9327)
(0 -0 45.0411)
(0 -0 45.1416)
(0 -0 45.2349)
(0 -0 45.3174)
(0 -0 45.3931)
(0 -0 45.4517)
(0 -0 45.5072)
(0 -0 45.5313)
(0 -0 45.5657)
(0 -0 45.5365)
(0 -0 45.5563)
(0 -0 34.451)
(0 -0 34.2849)
(0 -0 34.4856)
(0 -0 34.6969)
(0 -0 34.985)
(0 -0 35.301)
(0 -0 35.5882)
(0 -0 35.8504)
(0 -0 36.1061)
(0 -0 36.3587)
(0 -0 36.6046)
(0 -0 36.842)
(0 -0 37.0714)
(0 -0 37.2932)
(0 -0 37.5075)
(0 -0 37.7145)
(0 -0 37.9142)
(0 -0 38.1067)
(0 -0 38.2924)
(0 -0 38.4713)
(0 -0 38.6441)
(0 -0 38.8115)
(0 -0 38.9743)
(0 -0 39.1333)
(0 -0 39.2892)
(0 -0 39.4426)
(0 -0 39.5935)
(0 -0 39.742)
(0 -0 39.8879)
(0 -0 40.031)
(0 -0 40.1709)
(0 -0 40.3073)
(0 -0 40.4399)
(0 -0 40.5684)
(0 -0 40.6925)
(0 -0 40.8118)
(0 -0 40.926)
(0 -0 41.0347)
(0 -0 41.1375)
(0 -0 41.2343)
(0 -0 41.3239)
(0 -0 41.407)
(0 -0 41.4803)
(0 -0 41.5476)
(0 -0 41.5993)
(0 -0 41.6486)
(0 -0 41.6689)
(0 -0 41.6997)
(0 -0 41.6712)
(0 -0 41.6908)
(0 -0 31.6814)
(0 -0 31.546)
(0 -0 31.7318)
(0 -0 31.9151)
(0 -0 32.1605)
(0 -0 32.4364)
(0 -0 32.692)
(0 -0 32.9252)
(0 -0 33.1519)
(0 -0 33.3767)
(0 -0 33.5964)
(0 -0 33.8087)
(0 -0 34.0139)
(0 -0 34.2122)
(0 -0 34.4037)
(0 -0 34.5884)
(0 -0 34.7664)
(0 -0 34.9378)
(0 -0 35.1027)
(0 -0 35.2614)
(0 -0 35.4145)
(0 -0 35.5626)
(0 -0 35.7066)
(0 -0 35.8475)
(0 -0 35.9858)
(0 -0 36.1221)
(0 -0 36.2565)
(0 -0 36.3889)
(0 -0 36.5193)
(0 -0 36.6472)
(0 -0 36.7723)
(0 -0 36.8943)
(0 -0 37.013)
(0 -0 37.1279)
(0 -0 37.2388)
(0 -0 37.3453)
(0 -0 37.4472)
(0 -0 37.544)
(0 -0 37.6355)
(0 -0 37.7215)
(0 -0 37.801)
(0 -0 37.8748)
(0 -0 37.9396)
(0 -0 37.9992)
(0 -0 38.0446)
(0 -0 38.088)
(0 -0 38.105)
(0 -0 38.1323)
(0 -0 38.1047)
(0 -0 38.1237)
(0 -0 29.1312)
(0 -0 29.0209)
(0 -0 29.1899)
(0 -0 29.3496)
(0 -0 29.5582)
(0 -0 29.7977)
(0 -0 30.0241)
(0 -0 30.231)
(0 -0 30.4317)
(0 -0 30.6312)
(0 -0 30.8269)
(0 -0 31.0165)
(0 -0 31.1997)
(0 -0 31.3765)
(0 -0 31.5472)
(0 -0 31.7117)
(0 -0 31.8699)
(0 -0 32.0219)
(0 -0 32.1678)
(0 -0 32.308)
(0 -0 32.4429)
(0 -0 32.5733)
(0 -0 32.7002)
(0 -0 32.8244)
(0 -0 32.9466)
(0 -0 33.0672)
(0 -0 33.1865)
(0 -0 33.3043)
(0 -0 33.4204)
(0 -0 33.5345)
(0 -0 33.6461)
(0 -0 33.755)
(0 -0 33.8609)
(0 -0 33.9634)
(0 -0 34.0622)
(0 -0 34.1571)
(0 -0 34.2477)
(0 -0 34.3337)
(0 -0 34.4149)
(0 -0 34.4911)
(0 -0 34.5614)
(0 -0 34.6266)
(0 -0 34.6839)
(0 -0 34.7364)
(0 -0 34.7761)
(0 -0 34.8142)
(0 -0 34.8283)
(0 -0 34.8524)
(0 -0 34.8258)
(0 -0 34.8439)
(0 -0 26.7877)
(0 -0 26.6979)
(0 -0 26.8493)
(0 -0 26.9891)
(0 -0 27.1662)
(0 -0 27.3729)
(0 -0 27.5727)
(0 -0 27.756)
(0 -0 27.9333)
(0 -0 28.11)
(0 -0 28.2842)
(0 -0 28.4532)
(0 -0 28.6164)
(0 -0 28.7739)
(0 -0 28.9257)
(0 -0 29.0717)
(0 -0 29.2119)
(0 -0 29.3463)
(0 -0 29.475)
(0 -0 29.5982)
(0 -0 29.7166)
(0 -0 29.8309)
(0 -0 29.9421)
(0 -0 30.0511)
(0 -0 30.1587)
(0 -0 30.2651)
(0 -0 30.3707)
(0 -0 30.4752)
(0 -0 30.5784)
(0 -0 30.6798)
(0 -0 30.7793)
(0 -0 30.8763)
(0 -0 30.9705)
(0 -0 31.0618)
(0 -0 31.1497)
(0 -0 31.2339)
(0 -0 31.3143)
(0 -0 31.3905)
(0 -0 31.4623)
(0 -0 31.5296)
(0 -0 31.5917)
(0 -0 31.6492)
(0 -0 31.6996)
(0 -0 31.7457)
(0 -0 31.7804)
(0 -0 31.8138)
(0 -0 31.8254)
(0 -0 31.8464)
(0 -0 31.8211)
(0 -0 31.8381)
(0 -0 24.6383)
(0 -0 24.5652)
(0 -0 24.699)
(0 -0 24.8218)
(0 -0 24.972)
(0 -0 25.1496)
(0 -0 25.3252)
(0 -0 25.4874)
(0 -0 25.644)
(0 -0 25.8003)
(0 -0 25.955)
(0 -0 26.1055)
(0 -0 26.2508)
(0 -0 26.3909)
(0 -0 26.5257)
(0 -0 26.6552)
(0 -0 26.7791)
(0 -0 26.8976)
(0 -0 27.0106)
(0 -0 27.1185)
(0 -0 27.2219)
(0 -0 27.3216)
(0 -0 27.4186)
(0 -0 27.5139)
(0 -0 27.6081)
(0 -0 27.7018)
(0 -0 27.7949)
(0 -0 27.8874)
(0 -0 27.9789)
(0 -0 28.0691)
(0 -0 28.1575)
(0 -0 28.2438)
(0 -0 28.3276)
(0 -0 28.4087)
(0 -0 28.4867)
(0 -0 28.5614)
(0 -0 28.6325)
(0 -0 28.6999)
(0 -0 28.7633)
(0 -0 28.8226)
(0 -0 28.8773)
(0 -0 28.9278)
(0 -0 28.9721)
(0 -0 29.0126)
(0 -0 29.0428)
(0 -0 29.0718)
(0 -0 29.0813)
(0 -0 29.0996)
(0 -0 29.0757)
(0 -0 29.0914)
(0 -0 22.67)
(0 -0 22.6103)
(0 -0 22.7271)
(0 -0 22.8353)
(0 -0 22.9627)
(0 -0 23.1148)
(0 -0 23.2686)
(0 -0 23.4119)
(0 -0 23.5501)
(0 -0 23.6883)
(0 -0 23.8257)
(0 -0 23.9597)
(0 -0 24.0891)
(0 -0 24.2137)
(0 -0 24.3333)
(0 -0 24.4479)
(0 -0 24.5573)
(0 -0 24.6614)
(0 -0 24.7603)
(0 -0 24.8544)
(0 -0 24.9443)
(0 -0 25.0308)
(0 -0 25.1151)
(0 -0 25.1979)
(0 -0 25.2802)
(0 -0 25.3624)
(0 -0 25.4444)
(0 -0 25.5261)
(0 -0 25.6072)
(0 -0 25.6872)
(0 -0 25.7657)
(0 -0 25.8424)
(0 -0 25.9169)
(0 -0 25.9889)
(0 -0 26.0581)
(0 -0 26.1243)
(0 -0 26.1871)
(0 -0 26.2466)
(0 -0 26.3024)
(0 -0 26.3546)
(0 -0 26.4026)
(0 -0 26.447)
(0 -0 26.4858)
(0 -0 26.5212)
(0 -0 26.5475)
(0 -0 26.5727)
(0 -0 26.5804)
(0 -0 26.5962)
(0 -0 26.5738)
(0 -0 26.588)
(0 -0 20.8697)
(0 -0 20.8209)
(0 -0 20.9219)
(0 -0 21.0173)
(0 -0 21.1254)
(0 -0 21.2553)
(0 -0 21.3895)
(0 -0 21.5161)
(0 -0 21.6381)
(0 -0 21.7604)
(0 -0 21.8824)
(0 -0 22.0018)
(0 -0 22.1171)
(0 -0 22.2278)
(0 -0 22.334)
(0 -0 22.4353)
(0 -0 22.5317)
(0 -0 22.623)
(0 -0 22.7094)
(0 -0 22.7911)
(0 -0 22.8689)
(0 -0 22.9436)
(0 -0 23.0164)
(0 -0 23.0882)
(0 -0 23.1598)
(0 -0 23.2316)
(0 -0 23.3037)
(0 -0 23.3758)
(0 -0 23.4476)
(0 -0 23.5186)
(0 -0 23.5884)
(0 -0 23.6566)
(0 -0 23.7227)
(0 -0 23.7867)
(0 -0 23.848)
(0 -0 23.9066)
(0 -0 23.9621)
(0 -0 24.0145)
(0 -0 24.0636)
(0 -0 24.1095)
(0 -0 24.1516)
(0 -0 24.1905)
(0 -0 24.2245)
(0 -0 24.2555)
(0 -0 24.2784)
(0 -0 24.3002)
(0 -0 24.3064)
(0 -0 24.3198)
(0 -0 24.2988)
(0 -0 24.3115)
(0 -0 19.2246)
(0 -0 19.1846)
(0 -0 19.2712)
(0 -0 19.3552)
(0 -0 19.4473)
(0 -0 19.5578)
(0 -0 19.6746)
(0 -0 19.7864)
(0 -0 19.8944)
(0 -0 20.0026)
(0 -0 20.1112)
(0 -0 20.2177)
(0 -0 20.3205)
(0 -0 20.4191)
(0 -0 20.5133)
(0 -0 20.6029)
(0 -0 20.6878)
(0 -0 20.7678)
(0 -0 20.8429)
(0 -0 20.9136)
(0 -0 20.9806)
(0 -0 21.0447)
(0 -0 21.1073)
(0 -0 21.1692)
(0 -0 21.2313)
(0 -0 21.294)
(0 -0 21.3573)
(0 -0 21.421)
(0 -0 21.4846)
(0 -0 21.5476)
(0 -0 21.6096)
(0 -0 21.6703)
(0 -0 21.7291)
(0 -0 21.7859)
(0 -0 21.8403)
(0 -0 21.8922)
(0 -0 21.9412)
(0 -0 21.9874)
(0 -0 22.0306)
(0 -0 22.0709)
(0 -0 22.1079)
(0 -0 22.142)
(0 -0 22.1717)
(0 -0 22.1987)
(0 -0 22.2186)
(0 -0 22.2375)
(0 -0 22.2424)
(0 -0 22.2536)
(0 -0 22.2342)
(0 -0 22.2451)
(0 -0 17.7221)
(0 -0 17.6891)
(0 -0 17.763)
(0 -0 17.8369)
(0 -0 17.9155)
(0 -0 18.0096)
(0 -0 18.1109)
(0 -0 18.2096)
(0 -0 18.3053)
(0 -0 18.4014)
(0 -0 18.4981)
(0 -0 18.5934)
(0 -0 18.6853)
(0 -0 18.7733)
(0 -0 18.857)
(0 -0 18.9363)
(0 -0 19.011)
(0 -0 19.081)
(0 -0 19.1462)
(0 -0 19.2071)
(0 -0 19.2644)
(0 -0 19.3192)
(0 -0 19.3727)
(0 -0 19.4258)
(0 -0 19.4795)
(0 -0 19.5342)
(0 -0 19.5897)
(0 -0 19.646)
(0 -0 19.7023)
(0 -0 19.7584)
(0 -0 19.8137)
(0 -0 19.8677)
(0 -0 19.9202)
(0 -0 19.9707)
(0 -0 20.019)
(0 -0 20.0649)
(0 -0 20.1083)
(0 -0 20.149)
(0 -0 20.187)
(0 -0 20.2224)
(0 -0 20.2549)
(0 -0 20.2848)
(0 -0 20.3108)
(0 -0 20.3344)
(0 -0 20.3518)
(0 -0 20.3679)
(0 -0 20.3718)
(0 -0 20.3811)
(0 -0 20.363)
(0 -0 20.3722)
(0 -0 16.3502)
(0 -0 16.3228)
(0 -0 16.3855)
(0 -0 16.4504)
(0 -0 16.5177)
(0 -0 16.5978)
(0 -0 16.6857)
(0 -0 16.7728)
(0 -0 16.8579)
(0 -0 16.9435)
(0 -0 17.0299)
(0 -0 17.1153)
(0 -0 17.1978)
(0 -0 17.2765)
(0 -0 17.3511)
(0 -0 17.4214)
(0 -0 17.4872)
(0 -0 17.5483)
(0 -0 17.6047)
(0 -0 17.657)
(0 -0 17.7058)
(0 -0 17.7523)
(0 -0 17.7977)
(0 -0 17.8432)
(0 -0 17.8895)
(0 -0 17.9371)
(0 -0 17.9858)
(0 -0 18.0355)
(0 -0 18.0856)
(0 -0 18.1356)
(0 -0 18.185)
(0 -0 18.2333)
(0 -0 18.2802)
(0 -0 18.3252)
(0 -0 18.3683)
(0 -0 18.409)
(0 -0 18.4474)
(0 -0 18.4834)
(0 -0 18.5169)
(0 -0 18.548)
(0 -0 18.5765)
(0 -0 18.6028)
(0 -0 18.6257)
(0 -0 18.6463)
(0 -0 18.6614)
(0 -0 18.6752)
(0 -0 18.6782)
(0 -0 18.6857)
(0 -0 18.6689)
(0 -0 18.6763)
(0 -0 15.0971)
(0 -0 15.0743)
(0 -0 15.1275)
(0 -0 15.1843)
(0 -0 15.2422)
(0 -0 15.3105)
(0 -0 15.3866)
(0 -0 15.4635)
(0 -0 15.5395)
(0 -0 15.6161)
(0 -0 15.6937)
(0 -0 15.7706)
(0 -0 15.8449)
(0 -0 15.9155)
(0 -0 15.9822)
(0 -0 16.0446)
(0 -0 16.1026)
(0 -0 16.156)
(0 -0 16.2048)
(0 -0 16.2494)