/*--------------------------------*- C++ -*----------------------------------*\
  =========                 |
  \\      /  F ield         | OpenFOAM: The Open Source CFD Toolbox
   \\    /   O peration     | Website:  https://openfoam.org
    \\  /    A nd           | Version:  7
     \\/     M anipulation  |
\*---------------------------------------------------------------------------*/
FoamFile
{
    version     2.0;
    format      ascii;
    class       volVectorField;
    location    "0.13";
    object      wallShearStress;
}
// * * * * * * * * * * * * * * * * * * * * * * * * * * * * * * * * * * * * * //

dimensions      [0 2 -2 0 0 0 0];

internalField   uniform (0 0 0);

boundaryField
{
    velocityInlet
    {
        type            calculated;
        value           uniform (0 0 0);
    }
    pressureOutlet
    {
        type            calculated;
        value           uniform (0 0 0);
    }
    fixedWalls
    {
        type            calculated;
        value           nonuniform List<vector> 
100
(
(-0.0229686 -0.00848576 0)
(0.00410201 -0.00170517 0)
(0.000539259 0.000498668 0)
(0.00120233 2.68764e-05 0)
(0.000172598 0.000171187 0)
(-0.000752528 0.000159919 0)
(-0.00163871 0.000138575 0)
(-0.00231449 0.000101049 0)
(-0.00273422 6.32717e-05 0)
(-0.00292624 3.37067e-05 0)
(-0.00295327 1.19981e-05 0)
(-0.00287284 -4.60394e-06 0)
(-0.0027324 -1.48888e-05 0)
(-0.00259107 -1.56559e-05 0)
(-0.00253356 -3.98821e-06 0)
(-0.00266122 2.79776e-05 0)
(-0.00306754 7.69034e-05 0)
(-0.00377552 0.000128084 0)
(-0.00460744 0.000149346 0)
(-0.00504688 9.42443e-05 0)
(-0.00426754 -0.00014206 0)
(-0.00150001 -0.000474987 0)
(0.00234973 -0.00056792 0)
(0.00492685 -0.000335223 0)
(0.00503375 3.11173e-05 0)
(0.00332638 0.000245505 0)
(0.00117997 0.00026516 0)
(-0.000593285 0.000198431 0)
(-0.0017263 0.000116525 0)
(-0.00237128 6.20192e-05 0)
(-0.00273115 3.27277e-05 0)
(-0.00293427 1.2769e-05 0)
(-0.0031612 1.71332e-05 0)
(-0.00374534 7.43451e-05 0)
(-0.00481225 0.000140946 0)
(-0.0059856 0.000158187 0)
(-0.00663151 0.000109304 0)
(-0.00617479 -4.42703e-05 0)
(-0.00454705 -0.000198688 0)
(-0.00243628 -0.000255082 0)
(-0.000672545 -0.000200968 0)
(0.00031414 -0.00010876 0)
(0.000622157 -3.26953e-05 0)
(0.000621529 -2.30276e-06 0)
(0.000581311 -5.9384e-06 0)
(0.000610962 -1.72146e-05 0)
(0.000673128 -2.09714e-05 0)
(0.000666735 -9.20334e-06 0)
(0.000509933 1.23e-05 0)
(0.000182411 3.2761e-05 0)
(-0.000274714 4.69808e-05 0)
(-0.000785037 5.39579e-05 0)
(-0.00127568 5.15247e-05 0)
(-0.00169813 4.38252e-05 0)
(-0.00202915 3.41447e-05 0)
(-0.00226596 2.44503e-05 0)
(-0.00241566 1.54822e-05 0)
(-0.00248986 7.68613e-06 0)
(-0.00250697 1.69963e-06 0)
(-0.00249616 -1.2684e-06 0)
(-0.00249224 -6.33251e-07 0)
(-0.00252157 3.24456e-06 0)
(-0.00259011 7.80443e-06 0)
(-0.00268046 1.05132e-05 0)
(-0.00276105 9.7749e-06 0)
(-0.0028013 6.16221e-06 0)
(-0.00278254 8.80911e-08 0)
(-0.00270198 -6.61789e-06 0)
(-0.00257405 -1.19505e-05 0)
(-0.00242953 -1.38058e-05 0)
(-0.00230626 -1.13173e-05 0)
(-0.00223359 -5.92577e-06 0)
(-0.00222279 3.89238e-07 0)
(-0.00226958 6.5952e-06 0)
(-0.00235999 1.16555e-05 0)
(-0.0024705 1.45793e-05 0)
(-0.00256716 1.43746e-05 0)
(-0.00260805 1.08459e-05 0)
(-0.00254882 1.70376e-06 0)
(-0.00234642 -1.22258e-05 0)
(-0.00196781 -3.04594e-05 0)
(-0.00140863 -4.97148e-05 0)
(-0.00071948 -6.38066e-05 0)
(-7.83317e-06 -6.588e-05 0)
(0.000587656 -5.51184e-05 0)
(0.000949802 -3.30347e-05 0)
(0.00102828 -8.31002e-06 0)
(0.00084757 1.55058e-05 0)
(0.000488223 2.92315e-05 0)
(4.65716e-05 3.46847e-05 0)
(-0.000397009 3.44817e-05 0)
(-0.000805791 3.07526e-05 0)
(-0.00114085 2.55556e-05 0)
(-0.00145854 2.29754e-05 0)
(-0.00172184 2.25923e-05 0)
(-0.00206645 2.71435e-05 0)
(-0.0024471 3.51934e-05 0)
(-0.00284154 4.18417e-05 0)
(-0.00358228 4.1086e-05 0)
(-0.00321814 -1.2356e-05 0)
)
;
    }
    bottomWall
    {
        type            calculated;
        value           nonuniform List<vector> 
800
(
(-0.0353512 0.00216563 0)
(-0.0160362 0.000524975 0)
(-0.0105899 0.000100567 0)
(-0.00845478 3.46015e-05 0)
(-0.00749041 1.96955e-05 0)
(-0.00685441 1.60243e-05 0)
(-0.00634531 1.32241e-05 0)
(-0.0059338 1.07744e-05 0)
(-0.00559893 8.97341e-06 0)
(-0.00531997 7.67339e-06 0)
(-0.00508233 6.68833e-06 0)
(-0.0048766 5.91003e-06 0)
(-0.00469629 5.27957e-06 0)
(-0.00453668 4.76004e-06 0)
(-0.00439419 4.3258e-06 0)
(-0.00426603 3.95833e-06 0)
(-0.00415002 3.64393e-06 0)
(-0.00404442 3.37234e-06 0)
(-0.00394781 3.13575e-06 0)
(-0.00385903 2.92809e-06 0)
(-0.00377713 2.7446e-06 0)
(-0.00370129 2.58148e-06 0)
(-0.00363083 2.43567e-06 0)
(-0.00356518 2.30467e-06 0)
(-0.00350385 2.18644e-06 0)
(-0.0034464 2.07925e-06 0)
(-0.00339247 1.98169e-06 0)
(-0.00334173 1.89258e-06 0)
(-0.0032939 1.81089e-06 0)
(-0.00324874 1.73577e-06 0)
(-0.00320601 1.6665e-06 0)
(-0.00316554 1.60244e-06 0)
(-0.00312713 1.54306e-06 0)
(-0.00309064 1.48788e-06 0)
(-0.00305592 1.43648e-06 0)
(-0.00302284 1.38852e-06 0)
(-0.0029913 1.34368e-06 0)
(-0.00296119 1.30167e-06 0)
(-0.00293241 1.26225e-06 0)
(-0.00290488 1.2252e-06 0)
(-0.00287852 1.19033e-06 0)
(-0.00285325 1.15745e-06 0)
(-0.00282902 1.12642e-06 0)
(-0.00280575 1.09704e-06 0)
(-0.0027834 1.06937e-06 0)
(-0.00276191 1.04289e-06 0)
(-0.00274123 1.01825e-06 0)
(-0.00272133 9.94001e-07 0)
(-0.00270214 9.72201e-07 0)
(-0.00268366 9.48949e-07 0)
(-0.00266822 9.29895e-07 0)
(-0.00265547 9.19057e-07 0)
(-0.00264288 9.05191e-07 0)
(-0.00263049 8.9042e-07 0)
(-0.0026183 8.76573e-07 0)
(-0.00260629 8.63393e-07 0)
(-0.00259446 8.50526e-07 0)
(-0.00258281 8.37931e-07 0)
(-0.00257132 8.25635e-07 0)
(-0.00256001 8.13633e-07 0)
(-0.00254885 8.01908e-07 0)
(-0.00253786 7.90447e-07 0)
(-0.00252702 7.79241e-07 0)
(-0.00251633 7.68283e-07 0)
(-0.00250579 7.57563e-07 0)
(-0.0024954 7.47076e-07 0)
(-0.00248515 7.36813e-07 0)
(-0.00247504 7.26767e-07 0)
(-0.00246507 7.16933e-07 0)
(-0.00245523 7.07303e-07 0)
(-0.00244552 6.97872e-07 0)
(-0.00243594 6.88634e-07 0)
(-0.00242649 6.79583e-07 0)
(-0.00241716 6.70715e-07 0)
(-0.00240795 6.62024e-07 0)
(-0.00239885 6.53505e-07 0)
(-0.00238988 6.45153e-07 0)
(-0.00238101 6.36963e-07 0)
(-0.00237226 6.28932e-07 0)
(-0.00236362 6.21054e-07 0)
(-0.00235509 6.13325e-07 0)
(-0.00234666 6.05741e-07 0)
(-0.00233833 5.98299e-07 0)
(-0.0023301 5.90994e-07 0)
(-0.00232198 5.83824e-07 0)
(-0.00231395 5.76784e-07 0)
(-0.00230602 5.69871e-07 0)
(-0.00229818 5.63083e-07 0)
(-0.00229043 5.56416e-07 0)
(-0.00228278 5.49867e-07 0)
(-0.00227521 5.43434e-07 0)
(-0.00226773 5.37114e-07 0)
(-0.00226034 5.30903e-07 0)
(-0.00225303 5.248e-07 0)
(-0.0022458 5.18803e-07 0)
(-0.00223866 5.12907e-07 0)
(-0.0022316 5.07113e-07 0)
(-0.00222461 5.01416e-07 0)
(-0.00221771 4.95816e-07 0)
(-0.00221088 4.90309e-07 0)
(-0.00220412 4.84894e-07 0)
(-0.00219744 4.79569e-07 0)
(-0.00219083 4.74332e-07 0)
(-0.00218429 4.69182e-07 0)
(-0.00217782 4.64116e-07 0)
(-0.00217142 4.59133e-07 0)
(-0.00216509 4.54232e-07 0)
(-0.00215883 4.4941e-07 0)
(-0.00215263 4.44667e-07 0)
(-0.0021465 4.4e-07 0)
(-0.00214043 4.35409e-07 0)
(-0.00213442 4.30891e-07 0)
(-0.00212847 4.26446e-07 0)
(-0.00212259 4.22071e-07 0)
(-0.00211676 4.17766e-07 0)
(-0.00211099 4.13528e-07 0)
(-0.00210528 4.09356e-07 0)
(-0.00209963 4.0525e-07 0)
(-0.00209404 4.01208e-07 0)
(-0.00208849 3.97227e-07 0)
(-0.00208301 3.93308e-07 0)
(-0.00207757 3.89448e-07 0)
(-0.00207219 3.85647e-07 0)
(-0.00206687 3.81903e-07 0)
(-0.00206159 3.78215e-07 0)
(-0.00205636 3.74582e-07 0)
(-0.00205118 3.71002e-07 0)
(-0.00204606 3.67474e-07 0)
(-0.00204098 3.63999e-07 0)
(-0.00203594 3.60574e-07 0)
(-0.00203096 3.572e-07 0)
(-0.00202602 3.53875e-07 0)
(-0.00202113 3.50598e-07 0)
(-0.00201628 3.47368e-07 0)
(-0.00201147 3.44185e-07 0)
(-0.00200671 3.41047e-07 0)
(-0.002002 3.37954e-07 0)
(-0.00199732 3.34902e-07 0)
(-0.00199269 3.31897e-07 0)
(-0.0019881 3.28927e-07 0)
(-0.00198355 3.26008e-07 0)
(-0.00197903 3.23112e-07 0)
(-0.00197456 3.20283e-07 0)
(-0.00197013 3.17451e-07 0)
(-0.00196574 3.14719e-07 0)
(-0.00196138 3.11934e-07 0)
(-0.00195706 3.09312e-07 0)
(-0.00195278 3.06536e-07 0)
(-0.00194854 3.04015e-07 0)
(-0.00194433 3.01168e-07 0)
(-0.0019408 2.98644e-07 0)
(-0.00193792 2.9734e-07 0)
(-0.00193503 2.95759e-07 0)
(-0.00193214 2.93925e-07 0)
(-0.00192924 2.92116e-07 0)
(-0.00192635 2.90352e-07 0)
(-0.00192345 2.88616e-07 0)
(-0.00192054 2.86885e-07 0)
(-0.00191764 2.85161e-07 0)
(-0.00191473 2.83437e-07 0)
(-0.00191182 2.8173e-07 0)
(-0.0019089 2.80023e-07 0)
(-0.00190598 2.78326e-07 0)
(-0.00190306 2.7663e-07 0)
(-0.00190014 2.74937e-07 0)
(-0.00189722 2.73257e-07 0)
(-0.00189429 2.71586e-07 0)
(-0.00189136 2.69919e-07 0)
(-0.00188843 2.68258e-07 0)
(-0.00188549 2.66603e-07 0)
(-0.00188255 2.64963e-07 0)
(-0.00187961 2.63326e-07 0)
(-0.00187667 2.61693e-07 0)
(-0.00187373 2.60073e-07 0)
(-0.00187078 2.58455e-07 0)
(-0.00186783 2.5685e-07 0)
(-0.00186488 2.55257e-07 0)
(-0.00186193 2.53667e-07 0)
(-0.00185897 2.52096e-07 0)
(-0.00185602 2.50528e-07 0)
(-0.00185306 2.48964e-07 0)
(-0.00185009 2.4742e-07 0)
(-0.00184713 2.4587e-07 0)
(-0.00184416 2.44342e-07 0)
(-0.00184119 2.42824e-07 0)
(-0.00183822 2.41309e-07 0)
(-0.00183525 2.39816e-07 0)
(-0.00183228 2.38322e-07 0)
(-0.0018293 2.36842e-07 0)
(-0.00182632 2.35374e-07 0)
(-0.00182334 2.33909e-07 0)
(-0.00182036 2.32462e-07 0)
(-0.00181737 2.31028e-07 0)
(-0.00181438 2.29604e-07 0)
(-0.00181139 2.28192e-07 0)
(-0.0018084 2.26784e-07 0)
(-0.0018054 2.25405e-07 0)
(-0.00180241 2.24026e-07 0)
(-0.00179941 2.22661e-07 0)
(-0.00179641 2.21313e-07 0)
(-0.0017934 2.19963e-07 0)
(-0.0017904 2.1864e-07 0)
(-0.00178739 2.17332e-07 0)
(-0.00178438 2.16026e-07 0)
(-0.00178136 2.14754e-07 0)
(-0.00177834 2.13479e-07 0)
(-0.00177532 2.12223e-07 0)
(-0.0017723 2.10982e-07 0)
(-0.00176928 2.09747e-07 0)
(-0.00176625 2.08533e-07 0)
(-0.00176322 2.07337e-07 0)
(-0.00176018 2.06143e-07 0)
(-0.00175714 2.04983e-07 0)
(-0.0017541 2.03822e-07 0)
(-0.00175106 2.02688e-07 0)
(-0.00174801 2.01551e-07 0)
(-0.00174496 2.00431e-07 0)
(-0.0017419 1.99333e-07 0)
(-0.00173884 1.98256e-07 0)
(-0.00173578 1.97184e-07 0)
(-0.00173271 1.96129e-07 0)
(-0.00172964 1.95084e-07 0)
(-0.00172656 1.9408e-07 0)
(-0.00172348 1.93077e-07 0)
(-0.0017204 1.9209e-07 0)
(-0.0017173 1.91139e-07 0)
(-0.00171421 1.90162e-07 0)
(-0.00171111 1.89287e-07 0)
(-0.001708 1.88326e-07 0)
(-0.00170488 1.87564e-07 0)
(-0.00170177 1.86538e-07 0)
(-0.00169863 1.86031e-07 0)
(-0.00169551 1.84763e-07 0)
(-0.00169235 1.84803e-07 0)
(-0.00168922 1.82827e-07 0)
(-0.00168603 1.84123e-07 0)
(-0.00168291 1.80448e-07 0)
(-0.00167965 1.84581e-07 0)
(-0.00167658 1.76813e-07 0)
(-0.0016732 1.87412e-07 0)
(-0.00167025 1.70223e-07 0)
(-0.00166662 1.95139e-07 0)
(-0.00166395 1.5724e-07 0)
(-0.00165987 2.12652e-07 0)
(-0.00165775 1.31436e-07 0)
(-0.00165284 2.4812e-07 0)
(-0.00165171 8.24811e-08 0)
(-0.00164552 3.10559e-07 0)
(-0.00164581 5.12216e-09 0)
(-0.00163794 3.41694e-07 0)
(-0.0353513 -0.0021656 0)
(-0.0160372 -0.000524931 0)
(-0.0105922 -0.000100516 0)
(-0.00845848 -3.4553e-05 0)
(-0.0074955 -1.96464e-05 0)
(-0.00686093 -1.59743e-05 0)
(-0.00635325 -1.31736e-05 0)
(-0.00594315 -1.07232e-05 0)
(-0.00560968 -8.92131e-06 0)
(-0.00533211 -7.61982e-06 0)
(-0.00509589 -6.63269e-06 0)
(-0.0048916 -5.85166e-06 0)
(-0.0047128 -5.21782e-06 0)
(-0.00455477 -4.69429e-06 0)
(-0.00441393 -4.25544e-06 0)
(-0.00428751 -3.88265e-06 0)
(-0.00417336 -3.56214e-06 0)
(-0.00406975 -3.28349e-06 0)
(-0.00397528 -3.03872e-06 0)
(-0.00388881 -2.82161e-06 0)
(-0.00380942 -2.62722e-06 0)
(-0.00373632 -2.45159e-06 0)
(-0.00366888 -2.29144e-06 0)
(-0.00360654 -2.14407e-06 0)
(-0.00354886 -2.00717e-06 0)
(-0.00349544 -1.87875e-06 0)
(-0.00344598 -1.75698e-06 0)
(-0.00340019 -1.64031e-06 0)
(-0.00335786 -1.52708e-06 0)
(-0.00331881 -1.41604e-06 0)
(-0.00328292 -1.30534e-06 0)
(-0.00325007 -1.19412e-06 0)
(-0.00322021 -1.07985e-06 0)
(-0.00319329 -9.62308e-07 0)
(-0.00316936 -8.37553e-07 0)
(-0.00314843 -7.06536e-07 0)
(-0.00313059 -5.63127e-07 0)
(-0.00311605 -4.09142e-07 0)
(-0.00310475 -2.37652e-07 0)
(-0.00309747 -4.54425e-08 0)
(-0.00309334 1.68097e-07 0)
(-0.00309503 4.23131e-07 0)
(-0.00309861 6.49945e-07 0)
(-0.00311256 1.02067e-06 0)
(-0.00312329 1.21275e-06 0)
(-0.00315625 1.86786e-06 0)
(-0.00316927 1.66205e-06 0)
(-0.00323541 3.4151e-06 0)
(-0.00324049 -5.69622e-06 0)
(-0.00312526 0.000222883 0)
(-2.13255e-05 1.27055e-05 0)
(-2.66963e-05 6.51741e-05 0)
(-3.34542e-05 0.000121076 0)
(-4.1042e-05 0.000183817 0)
(-4.73454e-05 0.000251252 0)
(-5.03844e-05 0.000318877 0)
(-4.9665e-05 0.000381855 0)
(-4.58163e-05 0.000436796 0)
(-3.99275e-05 0.000481705 0)
(-3.2583e-05 0.000515426 0)
(-2.42166e-05 0.00053731 0)
(-1.51968e-05 0.000547044 0)
(-6.05028e-06 0.000544567 0)
(2.63754e-06 0.000530762 0)
(1.0624e-05 0.000506517 0)
(1.75764e-05 0.000473174 0)
(2.31998e-05 0.000432391 0)
(2.74284e-05 0.000385976 0)
(3.02601e-05 0.000335652 0)
(3.18304e-05 0.000283101 0)
(3.24905e-05 0.000229697 0)
(3.2499e-05 0.000176532 0)
(3.26723e-05 0.000124014 0)
(3.28166e-05 7.06404e-05 0)
(3.35134e-05 1.74978e-05 0)
(3.51643e-05 -3.59442e-05 0)
(3.78675e-05 -9.09012e-05 0)
(4.16582e-05 -0.000148408 0)
(4.64848e-05 -0.000209441 0)
(5.22034e-05 -0.000274871 0)
(5.85905e-05 -0.000345375 0)
(6.53647e-05 -0.000421383 0)
(7.22135e-05 -0.000503038 0)
(7.88172e-05 -0.000590192 0)
(8.48674e-05 -0.000682419 0)
(9.00802e-05 -0.000779046 0)
(9.42039e-05 -0.000879191 0)
(9.70266e-05 -0.0009818 0)
(9.8384e-05 -0.00108569 0)
(9.81657e-05 -0.00118958 0)
(9.63187e-05 -0.00129214 0)
(9.28458e-05 -0.00139204 0)
(8.77996e-05 -0.00148801 0)
(8.12708e-05 -0.00157884 0)
(7.33721e-05 -0.0016635 0)
(6.42167e-05 -0.00174104 0)
(5.39357e-05 -0.00181067 0)
(4.2693e-05 -0.00187172 0)
(3.05617e-05 -0.00192366 0)
(1.75786e-05 -0.00196589 0)
(4.0824e-06 -0.00199794 0)
(-9.78049e-06 -0.00201982 0)
(-2.4798e-05 -0.00203133 0)
(-4.14609e-05 -0.00203152 0)
(-5.92712e-05 -0.00202029 0)
(-7.79172e-05 -0.00199745 0)
(-9.66991e-05 -0.00196281 0)
(-0.000114632 -0.00191687 0)
(-0.000131623 -0.00186021 0)
(-0.000147282 -0.00179294 0)
(-0.000160621 -0.001716 0)
(-0.000172305 -0.00163004 0)
(-0.00018117 -0.00153381 0)
(-0.000180503 -0.00142934 0)
(-0.000168501 -0.00132469 0)
(-0.00015529 -0.00122394 0)
(-0.000145513 -0.00112043 0)
(-0.000123312 -0.00100906 0)
(-6.87056e-05 -0.000901449 0)
(1.81452e-05 -0.000818627 0)
(0.000115813 -0.000772235 0)
(0.000199595 -0.000761155 0)
(0.000252462 -0.000779843 0)
(0.000268776 -0.000819358 0)
(0.000249653 -0.000870012 0)
(0.000200713 -0.000919338 0)
(0.00013469 -0.000955171 0)
(6.88617e-05 -0.000973311 0)
(1.71865e-05 -0.000978369 0)
(-1.47053e-05 -0.000976776 0)
(-2.59259e-05 -0.000971933 0)
(-1.83181e-05 -0.000967664 0)
(3.0154e-08 -0.000969508 0)
(1.74817e-05 -0.000978563 0)
(2.70669e-05 -0.00099063 0)
(2.89584e-05 -0.0010014 0)
(2.60477e-05 -0.0010093 0)
(2.06856e-05 -0.00101404 0)
(1.42207e-05 -0.00101536 0)
(7.26138e-06 -0.00101314 0)
(-2.00653e-07 -0.00100722 0)
(-8.24612e-06 -0.000997323 0)
(-1.67965e-05 -0.000983092 0)
(-2.55094e-05 -0.000964383 0)
(-3.4071e-05 -0.000941346 0)
(-4.22929e-05 -0.000914368 0)
(-5.01993e-05 -0.000883887 0)
(-5.79107e-05 -0.000850236 0)
(-6.5528e-05 -0.00081367 0)
(-7.3061e-05 -0.000774379 0)
(-8.04337e-05 -0.000732518 0)
(-8.74091e-05 -0.000688315 0)
(-9.37781e-05 -0.000642142 0)
(-9.94638e-05 -0.0005944 0)
(-0.000104454 -0.000545412 0)
(-0.000108782 -0.000495483 0)
(-0.000112549 -0.000444847 0)
(-0.000115938 -0.000393428 0)
(-0.000119029 -0.000340769 0)
(-0.000121895 -0.000286542 0)
(-0.00012478 -0.000230964 0)
(-0.000128133 -0.000174422 0)
(-0.000132317 -0.000116956 0)
(-0.000137752 -5.8435e-05 0)
(-0.000144653 1.59964e-06 0)
(-0.000153047 6.3424e-05 0)
(-0.000162969 0.0001271 0)
(-0.000174418 0.000192924 0)
(-0.000187041 0.000261021 0)
(-0.000200387 0.000331415 0)
(-0.000213875 0.000403996 0)
(-0.000226861 0.000478489 0)
(-0.000238726 0.000554454 0)
(-0.000248947 0.000631328 0)
(-0.000257133 0.000708468 0)
(-0.00026307 0.000785175 0)
(-0.00026673 0.000860799 0)
(-0.000268199 0.000934776 0)
(-0.000267629 0.00100665 0)
(-0.00026519 0.00107604 0)
(-0.000261029 0.00114265 0)
(-0.000255258 0.00120622 0)
(-0.000247945 0.00126653 0)
(-0.000239122 0.00132334 0)
(-0.000228803 0.00137641 0)
(-0.00021699 0.00142552 0)
(-0.000203681 0.00147042 0)
(-0.00018888 0.00151089 0)
(-0.000172595 0.00154668 0)
(-0.000154851 0.00157756 0)
(-0.000135704 0.00160331 0)
(-0.000115245 0.0016237 0)
(-9.35821e-05 0.00163856 0)
(-7.07936e-05 0.00164771 0)
(-4.69711e-05 0.00165098 0)
(-2.25369e-05 0.00164821 0)
(2.42467e-06 0.00163974 0)
(2.80341e-05 0.00162541 0)
(5.40684e-05 0.00160524 0)
(8.0434e-05 0.00157923 0)
(0.000106969 0.00154744 0)
(0.000133519 0.00150997 0)
(0.000159906 0.00146695 0)
(0.000185949 0.00141854 0)
(0.000211455 0.00136494 0)
(0.000236223 0.00130639 0)
(0.000260048 0.00124316 0)
(0.000282717 0.00117556 0)
(0.000304014 0.00110394 0)
(0.000323719 0.00102865 0)
(0.000341608 0.000950109 0)
(0.000357458 0.00086875 0)
(0.000371043 0.000785036 0)
(0.000382145 0.000699459 0)
(0.000390548 0.000612543 0)
(0.000396051 0.000524839 0)
(0.000398471 0.000436932 0)
(0.000397648 0.000349441 0)
(0.000393463 0.000263019 0)
(0.000385844 0.000178351 0)
(0.000374809 9.6148e-05 0)
(0.00036042 1.71155e-05 0)
(0.000342719 -5.80225e-05 0)
(0.000321939 -0.000128566 0)
(0.000298494 -0.000193849 0)
(0.000272853 -0.000253383 0)
(0.000245395 -0.000306867 0)
(0.000216591 -0.000354055 0)
(0.000186936 -0.000394857 0)
(0.000156905 -0.000429305 0)
(0.000126932 -0.000457527 0)
(9.74058e-05 -0.000479718 0)
(6.86719e-05 -0.000496128 0)
(4.10247e-05 -0.000507046 0)
(1.47129e-05 -0.000512798 0)
(-1.00588e-05 -0.000513734 0)
(-3.31147e-05 -0.000510205 0)
(-5.42595e-05 -0.000502552 0)
(-7.33861e-05 -0.000491206 0)
(-9.05096e-05 -0.00047665 0)
(-0.00010568 -0.000459478 0)
(-0.000119117 -0.000440548 0)
(-0.000131428 -0.000421378 0)
(-0.000144056 -0.000404995 0)
(-0.000160196 -0.000397767 0)
(-0.000186799 -0.000412875 0)
(-0.000239324 -0.000475234 0)
(-0.000350718 -0.000624622 0)
(-0.000567945 -0.000903872 0)
(-0.000902861 -0.00130735 0)
(5.4674e-06 2.78645e-05 0)
(-4.10825e-05 5.23725e-05 0)
(-0.000100835 6.08613e-05 0)
(-0.000158985 6.06637e-05 0)
(-0.00021482 5.77782e-05 0)
(-0.000267392 5.39534e-05 0)
(-0.000316655 5.00535e-05 0)
(-0.000362866 4.62243e-05 0)
(-0.000406153 4.22457e-05 0)
(-0.000446387 3.77148e-05 0)
(-0.000483068 3.2119e-05 0)
(-0.000515257 2.47867e-05 0)
(-0.000541348 1.52357e-05 0)
(-0.000559727 3.10108e-06 0)
(-0.000568259 -1.21441e-05 0)
(-0.000564423 -3.03347e-05 0)
(-0.000545754 -5.05253e-05 0)
(-0.000510528 -7.08061e-05 0)
(-0.000457343 -8.67677e-05 0)
(-0.000389757 -9.01431e-05 0)
(-0.000319498 -7.41611e-05 0)
(-0.000262426 -4.14571e-05 0)
(-0.000230504 -2.2623e-06 0)
(-0.000226264 3.7015e-05 0)
(-0.000260315 7.16159e-05 0)
(-0.000329036 7.77549e-05 0)
(-0.000398275 5.06047e-05 0)
(-0.00044893 2.60527e-05 0)
(-0.000489673 1.18374e-05 0)
(-0.000516481 -4.88009e-06 0)
(-0.000512807 -1.98231e-05 0)
(-0.00047625 -1.57797e-05 0)
(-0.000424705 7.01956e-06 0)
(-0.000376512 3.47149e-05 0)
(-0.000336356 5.35734e-05 0)
(-0.000286395 3.78876e-05 0)
(-0.00021704 -5.4575e-05 0)
(-6.92494e-05 -0.000205577 0)
(0.000145912 -0.000229061 0)
(0.000269789 -0.000144182 0)
(0.00034156 -0.000116901 0)
(0.000415199 -9.91529e-05 0)
(0.000471734 -8.25681e-05 0)
(0.000517554 -6.84641e-05 0)
(0.000548313 -4.99656e-05 0)
(0.000562432 -3.04196e-05 0)
(0.000559029 -8.09442e-06 0)
(0.000535584 1.6337e-05 0)
(0.000491547 4.07619e-05 0)
(0.000427777 6.41856e-05 0)
(0.000345486 8.56823e-05 0)
(0.000246958 0.000103932 0)
(0.0001356 0.000117658 0)
(1.4329e-05 0.000125166 0)
(-0.000111394 0.000123269 0)
(-0.000227217 0.000107549 0)
(-0.000323707 8.04334e-05 0)
(-0.000395567 4.42132e-05 0)
(-0.000434802 -3.05525e-07 0)
(-0.000434677 -5.05499e-05 0)
(-0.000392165 -0.000102634 0)
(-0.000308677 -0.000153365 0)
(-0.000185394 -0.000201271 0)
(-1.89698e-05 -0.000239298 0)
(0.000174026 -0.000257116 0)
(0.000373011 -0.000256897 0)
(0.000573972 -0.000241203 0)
(0.000767668 -0.000208143 0)
(0.000940187 -0.000159631 0)
(0.00107765 -0.000104521 0)
(0.00117383 -5.79721e-05 0)
(0.0012348 -3.31901e-05 0)
(0.00127649 -3.29335e-05 0)
(0.00131547 -4.73944e-05 0)
(0.00135807 -5.92065e-05 0)
(0.00139538 -5.07968e-05 0)
(0.00140628 -1.46867e-05 0)
(0.00137038 3.75285e-05 0)
(0.00128721 8.43366e-05 0)
(0.00117163 0.000113375 0)
(0.00104097 0.000127291 0)
(0.000905336 0.0001354 0)
(0.000767091 0.000143239 0)
(0.000626617 0.00014953 0)
(0.000486996 0.000150163 0)
(0.000353821 0.000143709 0)
(0.000231708 0.000132066 0)
(0.00012266 0.000117493 0)
(2.67051e-05 0.000100554 0)
(-5.37964e-05 8.25618e-05 0)
(-0.000118469 6.65412e-05 0)
(-0.000172137 5.39579e-05 0)
(-0.000218593 4.38562e-05 0)
(-0.000259872 3.33613e-05 0)
(-0.000295095 1.71311e-05 0)
(-0.000317291 -1.1597e-05 0)
(-0.000310467 -5.61984e-05 0)
(-0.000254853 -0.000104158 0)
(-0.000150869 -0.000128153 0)
(-2.38142e-06 -0.000114633 0)
(-0.00010887 -5.14022e-05 0)
(-0.000103326 -0.000239722 0)
(-7.39414e-05 -0.000369248 0)
(-6.82207e-05 -0.000456062 0)
(-8.54238e-05 -0.000547439 0)
(-0.000110345 -0.000662051 0)
(-0.000135195 -0.000803462 0)
(-0.000156103 -0.000975785 0)
(-0.000171611 -0.00118154 0)
(-0.000177286 -0.00141426 0)
(-0.000165755 -0.00165627 0)
(-0.000127361 -0.00187855 0)
(-6.14424e-05 -0.00204293 0)
(3.28793e-05 -0.00212427 0)
(0.00014878 -0.00208657 0)
(0.000262376 -0.00191711 0)
(0.000339591 -0.00162535 0)
(0.000345792 -0.00125982 0)
(0.000275696 -0.000901457 0)
(0.000165496 -0.000621787 0)
(5.74409e-05 -0.000443356 0)
(-1.62007e-05 -0.00035448 0)
(-3.56212e-05 -0.000324156 0)
(-1.52604e-05 -0.000314414 0)
(2.02369e-05 -0.000300773 0)
(5.00458e-05 -0.000272687 0)
(5.19652e-05 -0.000243196 0)
(2.08411e-05 -0.000248161 0)
(-1.26154e-05 -0.000300615 0)
(-1.53799e-05 -0.000372858 0)
(1.592e-05 -0.000425073 0)
(6.73032e-05 -0.000434107 0)
(0.000121719 -0.000393092 0)
(0.000173245 -0.000306165 0)
(0.000222934 -0.000175318 0)
(0.000266035 5.58005e-06 0)
(0.000286324 0.000227724 0)
(0.000270426 0.000463593 0)
(0.000210638 0.000686577 0)
(0.000107028 0.000857012 0)
(-1.29912e-05 0.00093609 0)
(-0.000110494 0.000913423 0)
(-0.000171997 0.000804928 0)
(-0.000234318 0.000643344 0)
(-0.00034941 0.000448149 0)
(-0.000484891 0.000288859 0)
(-0.000647378 0.000240043 0)
(-0.00075322 0.000232361 0)
(-0.000671944 0.000164937 0)
(-0.000266055 0.00018406 0)
(0.000673451 0.000464571 0)
(0.00121649 0.00110852 0)
(0.00106229 0.00204574 0)
(0.000420113 0.0023364 0)
(0.000312893 0.00230733 0)
(0.00036597 0.00250215 0)
(0.000223652 0.00267775 0)
(0.000172609 0.0027315 0)
(0.000171875 0.00281521 0)
(0.000116848 0.00288584 0)
(9.30946e-05 0.00291617 0)
(8.07485e-05 0.00294948 0)
(5.4237e-05 0.00297123 0)
(4.06422e-05 0.00297727 0)
(3.00477e-05 0.00298129 0)
(1.72906e-05 0.00297829 0)
(1.04896e-05 0.00296959 0)
(5.01749e-06 0.00295943 0)
(-1.23881e-07 0.0029463 0)
(-2.72677e-06 0.00293105 0)
(-4.734e-06 0.00291523 0)
(-6.49383e-06 0.00289818 0)
(-7.53353e-06 0.00288027 0)
(-8.69501e-06 0.00286182 0)
(-1.01636e-05 0.00284245 0)
(-1.19189e-05 0.00282211 0)
(-1.4287e-05 0.00280068 0)
(-1.73282e-05 0.00277786 0)
(-2.09947e-05 0.00275347 0)
(-2.52792e-05 0.0027274 0)
(-3.00356e-05 0.00269955 0)
(-3.50434e-05 0.00266995 0)
(-4.00698e-05 0.00263879 0)
(-4.48387e-05 0.00260633 0)
(-4.90796e-05 0.002573 0)
(-5.2568e-05 0.0025393 0)
(-5.51332e-05 0.00250577 0)
(-5.66802e-05 0.002473 0)
(-5.71984e-05 0.00244149 0)
(-5.67502e-05 0.00241171 0)
(-5.54583e-05 0.002384 0)
(-5.34873e-05 0.00235859 0)
(-5.1023e-05 0.00233561 0)
(-4.82555e-05 0.00231508 0)
(-4.53657e-05 0.00229693 0)
(-4.25199e-05 0.00228106 0)
(-3.98694e-05 0.00226732 0)
(-3.7541e-05 0.00225553 0)
(-3.56372e-05 0.00224557 0)
(-3.42733e-05 0.0022373 0)
(-3.34783e-05 0.00223064 0)
(-3.32018e-05 0.00222562 0)
(-3.32654e-05 0.00222238 0)
(-3.34055e-05 0.00222122 0)
(-3.30056e-05 0.00222235 0)
(-3.10098e-05 0.00222623 0)
(-2.60871e-05 0.00223373 0)
(-1.69641e-05 0.00224591 0)
(-2.54529e-06 0.00226379 0)
(1.79819e-05 0.00228813 0)
(4.50849e-05 0.00231943 0)
(7.86882e-05 0.00235814 0)
(0.000117658 0.00240495 0)
(0.000159196 0.00246067 0)
(0.00019873 0.00252555 0)
(0.000230727 0.00259836 0)
(0.00025042 0.00267578 0)
(0.0002557 0.00275279 0)
(0.000248097 0.00282433 0)
(0.000232043 0.00288732 0)
(0.00021282 0.00294137 0)
(0.000194584 0.00298823 0)
(0.000179538 0.00303036 0)
(0.000168249 0.00306974 0)
(0.000160377 0.00310767 0)
(0.000155207 0.00314491 0)
(0.00015187 0.00318187 0)
(0.000149437 0.00321876 0)
(0.000147013 0.00325556 0)
(0.000143866 0.00329203 0)
(0.000139544 0.00332781 0)
(0.000133976 0.0033625 0)
(0.000127552 0.00339578 0)
(0.000121152 0.00342748 0)
(0.000116153 0.00345768 0)
(0.000114406 0.00348679 0)
(0.000118235 0.00351554 0)
(0.000130416 0.00354498 0)
(0.000154174 0.00357651 0)
(0.000193124 0.00361205 0)
(0.000251022 0.00365443 0)
(0.000331073 0.00370805 0)
(0.000434482 0.0037792 0)
(0.000558178 0.00387545 0)
(0.00069265 0.00400423 0)
(0.000822408 0.00417152 0)
(0.000930132 0.00437727 0)
(0.0010021 0.00461006 0)
(0.00103247 0.00485195 0)
(0.00102365 0.00508888 0)
(0.00098198 0.00531103 0)
(0.000914765 0.00551221 0)
(0.000829243 0.00568926 0)
(0.000731625 0.00584203 0)
(0.000625875 0.00597193 0)
(0.000514029 0.0060793 0)
(0.000397836 0.00616308 0)
(0.000278835 0.00622276 0)
(0.000158028 0.00625837 0)
(3.83804e-05 0.00626962 0)
(-7.58042e-05 0.00625829 0)
(-0.000184394 0.00622978 0)
(-0.000291455 0.00618624 0)
(-0.00039717 0.00612601 0)
(-0.000500368 0.00605026 0)
(-0.000601851 0.00596028 0)
(-0.000701893 0.00585623 0)
(-0.000800502 0.00573881 0)
(-0.000898057 0.00560895 0)
(-0.000994918 0.00546722 0)
(-0.00109142 0.00531431 0)
(-0.00118801 0.00515093 0)
(-0.00128518 0.00497771 0)
(-0.00138348 0.00479522 0)
(-0.00148353 0.00460403 0)
(-0.00158602 0.00440454 0)
(-0.00169171 0.004197 0)
(-0.0018014 0.00398147 0)
(-0.00191594 0.00375772 0)
(-0.00203611 0.00352523 0)
(-0.00216264 0.00328319 0)
(-0.00229613 0.00303061 0)
(-0.00243702 0.00276642 0)
(-0.00258564 0.00248968 0)
(-0.00274228 0.00219971 0)
(-0.00290742 0.00189627 0)
(-0.00308168 0.00157945 0)
(-0.00326452 0.00124974 0)
(-0.00345383 0.000908523 0)
(-0.00366217 0.000558399 0)
(-0.00389659 0.000194621 0)
(-0.00414386 -0.000183549 0)
(-0.00440921 -0.000573737 0)
(-0.00470613 -0.000967302 0)
(-0.00504637 -0.00140852 0)
(-0.00539818 -0.00178547 0)
(-0.00585026 -0.00238031 0)
(-0.00616879 -0.00255763 0)
(-0.00681188 -0.00363688 0)
(-0.00650164 -0.00287484 0)
)
;
    }
    frontAndBack
    {
        type            empty;
    }
}


// ************************************************************************* //
