/*--------------------------------*- C++ -*----------------------------------*\
  =========                 |
  \\      /  F ield         | OpenFOAM: The Open Source CFD Toolbox
   \\    /   O peration     | Website:  https://openfoam.org
    \\  /    A nd           | Version:  7
     \\/     M anipulation  |
\*---------------------------------------------------------------------------*/
FoamFile
{
    version     2.0;
    format      ascii;
    class       surfaceScalarField;
    location    "0.21";
    object      phi;
}
// * * * * * * * * * * * * * * * * * * * * * * * * * * * * * * * * * * * * * //

dimensions      [0 3 -1 0 0 0 0];

internalField   nonuniform List<scalar> 
139350
(
6.45934e-08
9.20381e-08
3.19536e-08
3.26398e-08
2.30644e-08
8.88924e-09
1.9572e-08
3.49236e-09
1.76223e-08
1.94972e-09
1.61969e-08
1.42543e-09
1.50661e-08
1.13077e-09
1.41545e-08
9.11623e-10
1.34044e-08
7.50032e-10
1.27728e-08
6.31581e-10
1.22309e-08
5.41957e-10
1.17592e-08
4.71675e-10
1.13441e-08
4.15111e-10
1.09754e-08
3.6873e-10
1.06452e-08
3.30125e-10
1.03477e-08
2.97575e-10
1.00779e-08
2.69816e-10
9.83196e-09
2.45904e-10
9.60684e-09
2.25117e-10
9.39994e-09
2.06899e-10
9.20913e-09
1.90811e-10
9.03263e-09
1.76502e-10
8.86894e-09
1.63689e-10
8.7168e-09
1.52139e-10
8.57514e-09
1.41659e-10
8.44305e-09
1.32088e-10
8.31976e-09
1.23286e-10
8.20463e-09
1.15137e-10
8.0971e-09
1.0753e-10
7.99672e-09
1.0038e-10
7.90313e-09
9.35848e-11
7.81604e-09
8.70897e-11
7.73527e-09
8.07705e-11
7.66065e-09
7.46179e-11
7.59221e-09
6.84415e-11
7.5299e-09
6.23105e-11
7.474e-09
5.59016e-11
7.4246e-09
4.94015e-11
7.3823e-09
4.23024e-11
7.34747e-09
3.48281e-11
7.32096e-09
2.65119e-11
7.30412e-09
1.68346e-11
7.29721e-09
6.91259e-12
7.30525e-09
-8.04329e-12
7.32424e-09
-1.8984e-11
7.37245e-09
-4.8211e-11
7.42555e-09
-5.31016e-11
7.57106e-09
-1.4551e-10
7.514e-09
5.70606e-11
-3.71708e-09
1.12311e-08
1.26027e-07
1.27455e-07
9.12677e-08
6.73992e-08
7.19507e-08
2.82062e-08
6.1228e-08
1.42151e-08
5.47861e-08
8.39159e-09
5.02968e-08
5.91473e-09
4.68173e-08
4.61029e-09
4.40061e-08
3.72279e-09
4.16841e-08
3.07206e-09
3.97265e-08
2.58917e-09
3.80463e-08
2.2222e-09
3.65833e-08
1.9346e-09
3.52951e-08
1.70335e-09
3.415e-08
1.5138e-09
3.31241e-08
1.35605e-09
3.21986e-08
1.22305e-09
3.13588e-08
1.10964e-09
3.05928e-08
1.01197e-09
2.98908e-08
9.27092e-10
2.92449e-08
8.52745e-10
2.86486e-08
7.87132e-10
2.80963e-08
7.28828e-10
2.75833e-08
6.76678e-10
2.71057e-08
6.29741e-10
2.66601e-08
5.87231e-10
2.62437e-08
5.485e-10
2.5854e-08
5.12987e-10
2.54889e-08
4.80219e-10
2.51467e-08
4.49772e-10
2.48258e-08
4.21289e-10
2.4525e-08
3.94403e-10
2.42432e-08
3.68854e-10
2.39797e-08
3.44246e-10
2.37339e-08
3.20444e-10
2.35055e-08
2.96877e-10
2.32941e-08
2.73653e-10
2.31003e-08
2.49753e-10
2.29239e-08
2.25804e-10
2.27663e-08
1.99827e-10
2.26278e-08
1.73404e-10
2.25113e-08
1.42962e-10
2.24171e-08
1.11092e-10
2.23511e-08
7.29141e-11
2.23141e-08
2.89169e-11
2.23156e-08
-2.05373e-11
2.23651e-08
-9.77077e-11
2.24581e-08
-1.46056e-10
2.27134e-08
-4.0085e-10
2.28416e-08
-7.10597e-11
-5.01547e-09
2.414e-08
1.58808e-07
1.3505e-07
1.36499e-07
8.97086e-08
1.17503e-07
4.72025e-08
1.0333e-07
2.83872e-08
9.33294e-08
1.83926e-08
8.60334e-08
1.32108e-08
8.03334e-08
1.03102e-08
7.56882e-08
8.36806e-09
7.18155e-08
6.94475e-09
6.85285e-08
5.87613e-09
6.56941e-08
5.0566e-09
6.32175e-08
4.41118e-09
6.10303e-08
3.89064e-09
5.90812e-08
3.46291e-09
5.7331e-08
3.10616e-09
5.57493e-08
2.80484e-09
5.43114e-08
2.54753e-09
5.29977e-08
2.32566e-09
5.17921e-08
2.13268e-09
5.06813e-08
1.96351e-09
4.96543e-08
1.81415e-09
4.87017e-08
1.68139e-09
4.78158e-08
1.56264e-09
4.69897e-08
1.45579e-09
4.62179e-08
1.35909e-09
4.54953e-08
1.27106e-09
4.48178e-08
1.19046e-09
4.41818e-08
1.11622e-09
4.35842e-08
1.04742e-09
4.30222e-08
9.83229e-10
4.24938e-08
9.22886e-10
4.19969e-08
8.65765e-10
4.153e-08
8.11088e-10
4.1092e-08
7.58456e-10
4.06821e-08
7.06804e-10
4.02995e-08
6.56202e-10
3.99446e-08
6.04689e-10
3.96169e-08
5.53509e-10
3.93183e-08
4.98447e-10
3.90481e-08
4.43521e-10
3.88116e-08
3.79546e-10
3.86064e-08
3.16215e-10
3.84444e-08
2.34917e-10
3.83197e-08
1.53693e-10
3.8256e-08
4.31461e-11
3.82469e-08
-8.86843e-11
3.83176e-08
-2.16711e-10
3.85551e-08
-6.3831e-10
3.88736e-08
-3.89591e-10
-5.4138e-09
3.92719e-08
1.75665e-07
1.30901e-07
1.65598e-07
9.97751e-08
1.52732e-07
6.00688e-08
1.40139e-07
4.09802e-08
1.29456e-07
2.90754e-08
1.2082e-07
2.18471e-08
1.13715e-07
1.74154e-08
1.07741e-07
1.4342e-08
1.02647e-07
1.20386e-08
9.82512e-08
1.0272e-08
9.44135e-08
8.89423e-09
9.10286e-08
7.79613e-09
8.80165e-08
6.90275e-09
8.53157e-08
6.16363e-09
8.28782e-08
5.54369e-09
8.06654e-08
5.01764e-09
7.86463e-08
4.56666e-09
7.67954e-08
4.17652e-09
7.50918e-08
3.83625e-09
7.35181e-08
3.53726e-09
7.20595e-08
3.27277e-09
7.07036e-08
3.0373e-09
6.94398e-08
2.82644e-09
6.8259e-08
2.63653e-09
6.71536e-08
2.46455e-09
6.61167e-08
2.30796e-09
6.51425e-08
2.16462e-09
6.42261e-08
2.03268e-09
6.33629e-08
1.91052e-09
6.25494e-08
1.79674e-09
6.17823e-08
1.69003e-09
6.10588e-08
1.58928e-09
6.03766e-08
1.49324e-09
5.97339e-08
1.40112e-09
5.91295e-08
1.31129e-09
5.8562e-08
1.2237e-09
5.80314e-08
1.13529e-09
5.75369e-08
1.04799e-09
5.70804e-08
9.54925e-10
5.66608e-08
8.63091e-10
5.6284e-08
7.56366e-10
5.59467e-08
6.5356e-10
5.56631e-08
5.18512e-10
5.54243e-08
3.9244e-10
5.52602e-08
2.07287e-10
5.51589e-08
1.26546e-11
5.51584e-08
-2.16209e-10
5.53154e-08
-7.95393e-10
5.56859e-08
-7.60094e-10
-5.56547e-09
5.58376e-08
1.84561e-07
1.23126e-07
1.82323e-07
1.02012e-07
1.76109e-07
6.62832e-08
1.67772e-07
4.93177e-08
1.59155e-07
3.76921e-08
1.51252e-07
2.97496e-08
1.44186e-07
2.44812e-08
1.37894e-07
2.06348e-08
1.323e-07
1.76323e-08
1.27321e-07
1.52507e-08
1.22872e-07
1.33434e-08
1.18876e-07
1.17924e-08
1.15268e-07
1.05107e-08
1.11995e-07
9.43697e-09
1.09011e-07
8.52711e-09
1.0628e-07
7.74841e-09
1.03771e-07
7.07603e-09
1.01457e-07
6.4908e-09
9.93152e-08
5.97771e-09
9.73276e-08
5.52485e-09
9.54777e-08
5.12269e-09
9.37515e-08
4.76348e-09
9.21371e-08
4.44088e-09
9.0624e-08
4.14964e-09
8.92032e-08
3.88538e-09
8.78667e-08
3.6444e-09
8.66078e-08
3.42356e-09
8.54203e-08
3.22014e-09
8.42991e-08
3.03177e-09
8.32395e-08
2.85635e-09
8.22375e-08
2.69199e-09
8.12898e-08
2.53699e-09
8.03934e-08
2.38958e-09
7.9546e-08
2.24854e-09
7.87458e-08
2.11157e-09
7.7991e-08
1.97845e-09
7.72813e-08
1.845e-09
7.66155e-08
1.71374e-09
7.59954e-08
1.57508e-09
7.54195e-08
1.43893e-09
7.48937e-08
1.28218e-09
7.44147e-08
1.13258e-09
7.39965e-08
9.36712e-10
7.36313e-08
7.57636e-10
7.33469e-08
4.9167e-10
7.31363e-08
2.23325e-10
7.30347e-08
-1.14602e-10
7.3089e-08
-8.49755e-10
7.33969e-08
-1.06799e-09
-5.61191e-09
7.34434e-08
1.90389e-07
1.14953e-07
1.91854e-07
1.00547e-07
1.90249e-07
6.78883e-08
1.86162e-07
5.34038e-08
1.80729e-07
4.31255e-08
1.74981e-07
3.54981e-08
1.6929e-07
3.01716e-08
1.63813e-07
2.61121e-08
1.58644e-07
2.28008e-08
1.53827e-07
2.00682e-08
1.49363e-07
1.78072e-08
1.45237e-07
1.59189e-08
1.41423e-07
1.43239e-08
1.37897e-07
1.29633e-08
1.34631e-07
1.17928e-08
1.31602e-07
1.0778e-08
1.28786e-07
9.89214e-09
1.26163e-07
9.11383e-09
1.23714e-07
8.4259e-09
1.21425e-07
7.81442e-09
1.19279e-07
7.26802e-09
1.17266e-07
6.77733e-09
1.15372e-07
6.33455e-09
1.13588e-07
5.93316e-09
1.11906e-07
5.56762e-09
1.10317e-07
5.23325e-09
1.08815e-07
4.92602e-09
1.07393e-07
4.6424e-09
1.06045e-07
4.37933e-09
1.04767e-07
4.13406e-09
1.03555e-07
3.9041e-09
1.02405e-07
3.68722e-09
1.01313e-07
3.48108e-09
1.00278e-07
3.28401e-09
9.92965e-08
3.09311e-09
9.8367e-08
2.90788e-09
9.7489e-08
2.72309e-09
9.6661e-08
2.54166e-09
9.58845e-08
2.35161e-09
9.51583e-08
2.1651e-09
9.44874e-08
1.95311e-09
9.38697e-08
1.75031e-09
9.33168e-08
1.48961e-09
9.28251e-08
1.24933e-09
9.24153e-08
9.01486e-10
9.20913e-08
5.47248e-10
9.18761e-08
1.00627e-10
9.18198e-08
-7.93434e-10
9.20175e-08
-1.26573e-09
-5.54463e-09
9.19502e-08
1.95541e-07
1.07227e-07
1.98249e-07
9.78393e-08
1.98973e-07
6.71649e-08
1.97795e-07
5.45811e-08
1.95168e-07
4.57533e-08
1.91831e-07
3.8835e-08
1.88104e-07
3.3898e-08
1.8416e-07
3.00569e-08
1.80146e-07
2.68148e-08
1.76172e-07
2.40416e-08
1.72308e-07
2.16717e-08
1.68591e-07
1.96359e-08
1.65041e-07
1.78733e-08
1.61668e-07
1.63367e-08
1.58471e-07
1.49896e-08
1.55447e-07
1.38026e-08
1.52587e-07
1.27514e-08
1.49885e-07
1.18163e-08
1.4733e-07
1.09807e-08
1.44914e-07
1.02306e-08
1.42627e-07
9.55467e-09
1.40462e-07
8.94296e-09
1.38409e-07
8.38721e-09
1.36462e-07
7.88032e-09
1.34613e-07
7.41621e-09
1.32857e-07
6.98962e-09
1.31187e-07
6.59597e-09
1.29598e-07
6.23121e-09
1.28086e-07
5.8918e-09
1.26645e-07
5.57447e-09
1.25273e-07
5.27632e-09
1.23965e-07
4.99464e-09
1.2272e-07
4.72666e-09
1.21534e-07
4.47028e-09
1.20405e-07
4.22207e-09
1.19331e-07
3.98125e-09
1.18313e-07
3.7417e-09
1.17348e-07
3.50648e-09
1.16438e-07
3.26175e-09
1.15582e-07
3.02101e-09
1.14784e-07
2.75101e-09
1.14044e-07
2.49037e-09
1.1337e-07
2.16354e-09
1.12764e-07
1.85534e-09
1.12238e-07
1.42756e-09
1.11808e-07
9.77607e-10
1.11483e-07
4.25329e-10
1.11315e-07
-6.25172e-10
1.11391e-07
-1.34252e-09
-5.35629e-09
1.11203e-07
2.00849e-07
9.99631e-08
2.03778e-07
9.49102e-08
2.05331e-07
6.56117e-08
2.05649e-07
5.42626e-08
2.04826e-07
4.65762e-08
2.0335e-07
4.03119e-08
2.01407e-07
3.58409e-08
1.99082e-07
3.23817e-08
1.9648e-07
2.94162e-08
1.93705e-07
2.6817e-08
1.90836e-07
2.45405e-08
1.87934e-07
2.25378e-08
1.85044e-07
2.07638e-08
1.82196e-07
1.9184e-08
1.79414e-07
1.77717e-08
1.76712e-07
1.65048e-08
1.74099e-07
1.5365e-08
1.71579e-07
1.43362e-08
1.69155e-07
1.34048e-08
1.66826e-07
1.25591e-08
1.64592e-07
1.17887e-08
1.6245e-07
1.10849e-08
1.60397e-07
1.044e-08
1.58431e-07
9.84708e-09
1.56546e-07
9.30034e-09
1.54742e-07
8.79451e-09
1.53012e-07
8.325e-09
1.51356e-07
7.88764e-09
1.49769e-07
7.47872e-09
1.48249e-07
7.09479e-09
1.46792e-07
6.7327e-09
1.45398e-07
6.3895e-09
1.44062e-07
6.06215e-09
1.42784e-07
5.74825e-09
1.41562e-07
5.44398e-09
1.40395e-07
5.1483e-09
1.39282e-07
4.85444e-09
1.38223e-07
4.56536e-09
1.37219e-07
4.26601e-09
1.3627e-07
3.97025e-09
1.35379e-07
3.64246e-09
1.34547e-07
3.32213e-09
1.3378e-07
2.93057e-09
1.33084e-07
2.55075e-09
1.32465e-07
2.04689e-09
1.31946e-07
1.49634e-09
1.3153e-07
8.41886e-10
1.31259e-07
-3.54117e-10
1.31219e-07
-1.30254e-09
-5.05794e-09
1.3092e-07
2.06448e-07
9.30477e-08
2.09341e-07
9.20163e-08
2.11041e-07
6.39123e-08
2.11937e-07
5.3366e-08
2.1201e-07
4.65037e-08
2.11628e-07
4.06941e-08
2.10903e-07
3.65658e-08
2.09837e-07
3.34469e-08
2.08469e-07
3.07845e-08
2.06856e-07
2.84304e-08
2.05053e-07
2.63431e-08
2.0311e-07
2.44805e-08
2.0107e-07
2.28041e-08
1.98968e-07
2.12861e-08
1.96834e-07
1.99061e-08
1.9469e-07
1.86483e-08
1.92556e-07
1.74992e-08
1.90445e-07
1.64471e-08
1.88368e-07
1.54819e-08
1.86332e-07
1.45946e-08
1.84344e-07
1.37771e-08
1.82407e-07
1.30222e-08
1.80523e-07
1.23237e-08
1.78694e-07
1.16757e-08
1.76922e-07
1.10731e-08
1.75205e-07
1.05113e-08
1.73544e-07
9.98603e-09
1.71938e-07
9.49348e-09
1.70387e-07
9.03014e-09
1.68889e-07
8.59266e-09
1.67444e-07
8.17796e-09
1.6605e-07
7.78304e-09
1.64707e-07
7.40481e-09
1.63415e-07
7.04073e-09
1.62172e-07
6.6868e-09
1.60979e-07
6.34175e-09
1.59835e-07
5.99848e-09
1.5874e-07
5.65965e-09
1.57697e-07
5.30959e-09
1.56705e-07
4.96172e-09
1.55768e-07
4.57972e-09
1.54889e-07
4.20142e-09
1.5407e-07
3.74934e-09
1.53322e-07
3.29826e-09
1.52645e-07
2.72398e-09
1.52068e-07
2.07386e-09
1.51588e-07
1.32175e-09
1.51235e-07
-1.64624e-12
1.51094e-07
-1.16071e-09
-4.6711e-09
1.50707e-07
2.12289e-07
8.64206e-08
2.15154e-07
8.91514e-08
2.16795e-07
6.22714e-08
2.1785e-07
5.23113e-08
2.18269e-07
4.6085e-08
2.18389e-07
4.05739e-08
2.18318e-07
3.66371e-08
2.18023e-07
3.37412e-08
2.17498e-07
3.13095e-08
2.16761e-07
2.91676e-08
2.15836e-07
2.72686e-08
2.14747e-07
2.55691e-08
2.13521e-07
2.403e-08
2.12183e-07
2.26238e-08
2.10758e-07
2.1332e-08
2.09265e-07
2.01412e-08
2.07723e-07
1.90405e-08
2.0615e-07
1.80209e-08
2.04557e-07
1.70747e-08
2.02956e-07
1.61951e-08
2.01357e-07
1.53761e-08
1.99767e-07
1.4612e-08
1.98193e-07
1.3898e-08
1.96639e-07
1.32296e-08
1.9511e-07
1.26024e-08
1.93608e-07
1.20129e-08
1.92137e-07
1.14573e-08
1.90698e-07
1.09325e-08
1.89293e-07
1.04353e-08
1.87923e-07
9.96272e-09
1.86589e-07
9.512e-09
1.85292e-07
9.08028e-09
1.84032e-07
8.66457e-09
1.8281e-07
8.26239e-09
1.81627e-07
7.86969e-09
1.80484e-07
7.48512e-09
1.79381e-07
7.10139e-09
1.7832e-07
6.72087e-09
1.77302e-07
6.3277e-09
1.76329e-07
5.93438e-09
1.75404e-07
5.50507e-09
1.74531e-07
5.07419e-09
1.73712e-07
4.56868e-09
1.72959e-07
4.05084e-09
1.72269e-07
3.41386e-09
1.71672e-07
2.67093e-09
1.71166e-07
1.82799e-09
1.70764e-07
4.00089e-10
1.70545e-07
-9.42121e-10
-4.22432e-09
1.70099e-07
2.18331e-07
8.00707e-08
2.21208e-07
8.6274e-08
2.22768e-07
6.07114e-08
2.2385e-07
5.12296e-08
2.24378e-07
4.55569e-08
2.24676e-07
4.02759e-08
2.24881e-07
3.64322e-08
2.24965e-07
3.36572e-08
2.24905e-07
3.13687e-08
2.24703e-07
2.93702e-08
2.24362e-07
2.76099e-08
2.23888e-07
2.60429e-08
2.23291e-07
2.46272e-08
2.22581e-07
2.3333e-08
2.21773e-07
2.21405e-08
2.20878e-07
2.10358e-08
2.1991e-07
2.00085e-08
2.18881e-07
1.90501e-08
2.17802e-07
1.81539e-08
2.16683e-07
1.73141e-08
2.15533e-07
1.65256e-08
2.14361e-07
1.57839e-08
2.13174e-07
1.50851e-08
2.11978e-07
1.44255e-08
2.10779e-07
1.38017e-08
2.09581e-07
1.32106e-08
2.08389e-07
1.26494e-08
2.07207e-07
1.21152e-08
2.06036e-07
1.16055e-08
2.04881e-07
1.11178e-08
2.03744e-07
1.06494e-08
2.02626e-07
1.01979e-08
2.0153e-07
9.76044e-09
2.00458e-07
9.33471e-09
1.99411e-07
8.91672e-09
1.98391e-07
8.50511e-09
1.974e-07
8.09257e-09
1.9644e-07
7.68116e-09
1.95512e-07
7.25517e-09
1.94621e-07
6.82579e-09
1.93767e-07
6.35871e-09
1.92958e-07
5.88357e-09
1.92192e-07
5.3341e-09
1.91486e-07
4.75759e-09
1.90832e-07
4.06747e-09
1.9026e-07
3.2433e-09
1.89768e-07
2.31906e-09
1.89356e-07
8.12643e-10
1.89094e-07
-6.79945e-10
-3.75108e-09
1.88621e-07
2.24559e-07
7.40046e-08
2.27472e-07
8.3361e-08
2.28965e-07
5.92187e-08
2.30052e-07
5.01427e-08
2.30621e-07
4.49874e-08
2.30968e-07
3.99291e-08
2.31263e-07
3.61377e-08
2.31495e-07
3.34252e-08
2.31644e-07
3.12192e-08
2.31709e-07
2.93054e-08
2.31689e-07
2.76304e-08
2.31581e-07
2.61504e-08
2.31386e-07
2.48219e-08
2.31106e-07
2.3613e-08
2.30745e-07
2.25021e-08
2.30307e-07
2.14739e-08
2.29798e-07
2.05171e-08
2.29225e-07
1.96229e-08
2.28595e-07
1.87843e-08
2.27914e-07
1.79953e-08
2.27188e-07
1.72513e-08
2.26424e-07
1.65478e-08
2.25628e-07
1.58813e-08
2.24805e-07
1.52484e-08
2.2396e-07
1.46463e-08
2.23099e-07
1.40721e-08
2.22225e-07
1.35235e-08
2.21342e-07
1.29979e-08
2.20454e-07
1.24931e-08
2.19565e-07
1.2007e-08
2.18678e-07
1.15371e-08
2.17794e-07
1.10812e-08
2.16918e-07
1.06367e-08
2.16051e-07
1.02015e-08
2.15196e-07
9.77152e-09
2.14356e-07
9.34556e-09
2.13532e-07
8.91632e-09
2.12728e-07
8.48553e-09
2.11945e-07
8.03789e-09
2.11188e-07
7.58302e-09
2.10458e-07
7.08881e-09
2.09762e-07
6.57937e-09
2.09099e-07
5.99657e-09
2.08485e-07
5.37181e-09
2.07914e-07
4.63917e-09
2.07408e-07
3.74853e-09
2.06972e-07
2.75498e-09
2.06588e-07
1.19667e-09
2.06319e-07
-4.10361e-10
-3.28633e-09
2.05854e-07
2.3098e-07
6.82304e-08
2.33937e-07
8.04041e-08
2.3537e-07
5.77852e-08
2.36464e-07
4.90495e-08
2.37067e-07
4.43842e-08
2.37429e-07
3.95669e-08
2.37745e-07
3.58217e-08
2.38023e-07
3.31471e-08
2.38248e-07
3.0994e-08
2.38422e-07
2.91312e-08
2.38548e-07
2.75052e-08
2.38622e-07
2.60759e-08
2.38643e-07
2.48006e-08
2.3861e-07
2.36463e-08
2.38522e-07
2.25905e-08
2.38379e-07
2.16171e-08
2.38182e-07
2.07138e-08
2.37934e-07
1.98712e-08
2.37636e-07
1.90816e-08
2.37293e-07
1.83388e-08
2.36907e-07
1.76376e-08
2.36481e-07
1.69737e-08
2.36019e-07
1.63431e-08
2.35525e-07
1.57426e-08
2.35002e-07
1.51693e-08
2.34453e-07
1.46204e-08
2.33883e-07
1.40936e-08
2.33295e-07
1.35866e-08
2.3269e-07
1.30972e-08
2.32074e-07
1.26234e-08
2.31448e-07
1.21629e-08
2.30816e-07
1.17136e-08
2.3018e-07
1.1273e-08
2.29542e-07
1.0839e-08
2.28906e-07
1.04077e-08
2.28274e-07
9.97785e-09
2.27648e-07
9.54221e-09
2.27031e-07
9.10213e-09
2.26426e-07
8.64288e-09
2.25837e-07
8.1723e-09
2.25265e-07
7.66101e-09
2.24717e-07
7.12708e-09
2.24192e-07
6.52123e-09
2.23705e-07
5.85929e-09
2.23249e-07
5.09457e-09
2.22844e-07
4.15342e-09
2.22496e-07
3.10389e-09
2.22173e-07
1.51882e-09
2.2193e-07
-1.66624e-10
-2.86155e-09
2.21505e-07
2.37601e-07
6.2754e-08
2.40605e-07
7.74008e-08
2.41981e-07
5.64088e-08
2.43079e-07
4.79513e-08
2.4372e-07
4.37437e-08
2.44095e-07
3.91911e-08
2.44417e-07
3.55001e-08
2.44708e-07
3.28565e-08
2.44956e-07
3.0746e-08
2.45166e-07
2.89204e-08
2.45346e-07
2.73256e-08
2.45496e-07
2.59262e-08
2.45615e-07
2.46818e-08
2.45701e-07
2.35597e-08
2.45754e-07
2.25372e-08
2.45774e-07
2.15978e-08
2.45758e-07
2.07291e-08
2.45708e-07
1.99213e-08
2.45624e-07
1.91664e-08
2.45505e-07
1.84577e-08
2.45352e-07
1.77898e-08
2.45168e-07
1.71579e-08
2.44953e-07
1.65579e-08
2.4471e-07
1.59864e-08
2.44439e-07
1.54401e-08
2.44143e-07
1.49163e-08
2.43824e-07
1.44125e-08
2.43484e-07
1.39264e-08
2.43126e-07
1.34556e-08
2.42751e-07
1.29982e-08
2.42362e-07
1.25518e-08
2.41961e-07
1.21145e-08
2.41551e-07
1.16835e-08
2.41133e-07
1.1257e-08
2.4071e-07
1.08308e-08
2.40284e-07
1.04038e-08
2.39857e-07
9.9687e-09
2.39433e-07
9.5264e-09
2.39013e-07
9.06294e-09
2.38601e-07
8.5841e-09
2.38198e-07
8.06363e-09
2.37812e-07
7.51339e-09
2.3744e-07
6.89295e-09
2.37096e-07
6.20398e-09
2.36774e-07
5.41618e-09
2.36488e-07
4.43969e-09
2.36244e-07
3.34742e-09
2.36006e-07
1.75737e-09
2.35813e-07
2.66351e-11
-2.49993e-09
2.35451e-07
2.44431e-07
5.75789e-08
2.47474e-07
7.43578e-08
2.48802e-07
5.50812e-08
2.499e-07
4.68527e-08
2.5058e-07
4.30644e-08
2.50973e-07
3.87981e-08
2.51299e-07
3.51739e-08
2.51595e-07
3.25603e-08
2.51851e-07
3.04901e-08
2.52073e-07
2.86986e-08
2.5227e-07
2.71288e-08
2.52445e-07
2.57506e-08
2.52601e-07
2.45263e-08
2.52736e-07
2.3424e-08
2.52852e-07
2.24213e-08
2.52948e-07
2.15021e-08
2.53023e-07
2.06541e-08
2.53077e-07
1.98674e-08
2.53109e-07
1.91341e-08
2.5312e-07
1.84473e-08
2.53108e-07
1.78015e-08
2.53074e-07
1.71917e-08
2.53018e-07
1.66136e-08
2.52941e-07
1.60635e-08
2.52843e-07
1.5538e-08
2.52725e-07
1.50342e-08
2.52589e-07
1.45495e-08
2.52434e-07
1.40813e-08
2.52262e-07
1.36272e-08
2.52075e-07
1.31852e-08
2.51874e-07
1.27527e-08
2.51661e-07
1.23278e-08
2.51437e-07
1.19077e-08
2.51203e-07
1.14903e-08
2.50963e-07
1.10716e-08
2.50716e-07
1.06501e-08
2.50466e-07
1.02188e-08
2.50215e-07
9.77791e-09
2.49963e-07
9.31435e-09
2.49716e-07
8.83175e-09
2.49472e-07
8.30706e-09
2.49239e-07
7.74622e-09
2.49015e-07
7.11697e-09
2.4881e-07
6.40905e-09
2.48621e-07
5.60495e-09
2.48455e-07
4.60591e-09
2.4832e-07
3.48281e-09
2.48173e-07
1.90465e-09
2.48042e-07
1.57507e-10
-2.21354e-09
2.47755e-07
2.51479e-07
5.2707e-08
2.54552e-07
7.12846e-08
2.55841e-07
5.37922e-08
2.56934e-07
4.57593e-08
2.57651e-07
4.23472e-08
2.58065e-07
3.83849e-08
2.58397e-07
3.48418e-08
2.58698e-07
3.22588e-08
2.58959e-07
3.02289e-08
2.59186e-07
2.84722e-08
2.59388e-07
2.69265e-08
2.59572e-07
2.55669e-08
2.59739e-07
2.43588e-08
2.59892e-07
2.32711e-08
2.60032e-07
2.2282e-08
2.60158e-07
2.13757e-08
2.60272e-07
2.05404e-08
2.60373e-07
1.97664e-08
2.60461e-07
1.9046e-08
2.60536e-07
1.83724e-08
2.60597e-07
1.774e-08
2.60645e-07
1.71439e-08
2.60679e-07
1.65796e-08
2.60699e-07
1.60434e-08
2.60705e-07
1.55318e-08
2.60698e-07
1.50417e-08
2.60677e-07
1.45704e-08
2.60643e-07
1.41151e-08
2.60597e-07
1.36734e-08
2.60539e-07
1.3243e-08
2.6047e-07
1.28215e-08
2.60391e-07
1.24065e-08
2.60304e-07
1.19954e-08
2.60208e-07
1.15858e-08
2.60106e-07
1.11738e-08
2.59999e-07
1.07576e-08
2.59887e-07
1.03303e-08
2.59774e-07
9.89149e-09
2.59659e-07
9.42905e-09
2.59546e-07
8.94442e-09
2.59436e-07
8.41769e-09
2.59332e-07
7.8494e-09
2.59235e-07
7.21441e-09
2.59151e-07
6.49313e-09
2.59079e-07
5.67708e-09
2.59019e-07
4.66518e-09
2.58981e-07
3.5211e-09
2.58919e-07
1.96657e-09
2.58851e-07
2.25946e-10
-2.00253e-09
2.5864e-07
2.58752e-07
4.81384e-08
2.61845e-07
6.81911e-08
2.63106e-07
5.2531e-08
2.64189e-07
4.46761e-08
2.64942e-07
4.15948e-08
2.65377e-07
3.79494e-08
2.65716e-07
3.45028e-08
2.66024e-07
3.19516e-08
2.6629e-07
2.99621e-08
2.66521e-07
2.82417e-08
2.66726e-07
2.67212e-08
2.66913e-07
2.538e-08
2.67085e-07
2.41872e-08
2.67243e-07
2.31127e-08
2.6739e-07
2.21349e-08
2.67527e-07
2.12386e-08
2.67655e-07
2.04124e-08
2.67774e-07
1.96471e-08
2.67886e-07
1.89349e-08
2.67988e-07
1.82696e-08
2.68083e-07
1.76454e-08
2.6817e-07
1.70575e-08
2.68248e-07
1.65015e-08
2.68317e-07
1.59738e-08
2.68379e-07
1.54706e-08
2.68431e-07
1.49889e-08
2.68476e-07
1.45259e-08
2.68512e-07
1.40788e-08
2.68541e-07
1.3645e-08
2.68561e-07
1.32221e-08
2.68575e-07
1.28077e-08
2.68583e-07
1.23993e-08
2.68584e-07
1.1994e-08
2.6858e-07
1.15896e-08
2.68572e-07
1.1182e-08
2.6856e-07
1.07691e-08
2.68546e-07
1.03444e-08
2.68531e-07
9.90658e-09
2.68516e-07
9.44458e-09
2.68502e-07
8.95775e-09
2.68491e-07
8.4291e-09
2.68486e-07
7.85454e-09
2.68485e-07
7.21473e-09
2.68495e-07
6.48348e-09
2.68514e-07
5.65783e-09
2.6854e-07
4.63969e-09
2.68578e-07
3.48236e-09
2.68587e-07
1.9585e-09
2.68571e-07
2.41182e-10
-1.8577e-09
2.68426e-07
2.66259e-07
4.38714e-08
2.69362e-07
6.50878e-08
2.70606e-07
5.12873e-08
2.71675e-07
4.36075e-08
2.72459e-07
4.08104e-08
2.72919e-07
3.749e-08
2.73265e-07
3.41559e-08
2.73579e-07
3.16385e-08
2.73851e-07
2.96893e-08
2.74086e-07
2.80067e-08
2.74295e-07
2.65128e-08
2.74484e-07
2.51908e-08
2.74658e-07
2.40135e-08
2.74818e-07
2.2952e-08
2.74968e-07
2.19851e-08
2.75109e-07
2.1098e-08
2.75241e-07
2.02798e-08
2.75367e-07
1.95214e-08
2.75486e-07
1.88156e-08
2.756e-07
1.81561e-08
2.75708e-07
1.75375e-08
2.7581e-07
1.69551e-08
2.75907e-07
1.64044e-08
2.75999e-07
1.58818e-08
2.76086e-07
1.53838e-08
2.76168e-07
1.49071e-08
2.76245e-07
1.44489e-08
2.76317e-07
1.40065e-08
2.76385e-07
1.35772e-08
2.76448e-07
1.31586e-08
2.76508e-07
1.2748e-08
2.76564e-07
1.23431e-08
2.76617e-07
1.19409e-08
2.76668e-07
1.1539e-08
2.76716e-07
1.11332e-08
2.76764e-07
1.07214e-08
2.76811e-07
1.02972e-08
2.76859e-07
9.85861e-09
2.76908e-07
9.39553e-09
2.76961e-07
8.90545e-09
2.77016e-07
8.37393e-09
2.77077e-07
7.79315e-09
2.77144e-07
7.14818e-09
2.77218e-07
6.4088e-09
2.77302e-07
5.57462e-09
2.77387e-07
4.55441e-09
2.7748e-07
3.38976e-09
2.77538e-07
1.89996e-09
2.77562e-07
2.17282e-10
-1.76468e-09
2.77469e-07
2.7401e-07
3.99025e-08
2.77112e-07
6.19859e-08
2.78349e-07
5.00508e-08
2.79399e-07
4.2557e-08
2.80211e-07
3.99983e-08
2.80696e-07
3.7005e-08
2.81052e-07
3.38002e-08
2.81371e-07
3.13197e-08
2.8165e-07
2.94101e-08
2.8189e-07
2.77669e-08
2.82101e-07
2.63011e-08
2.82293e-07
2.49991e-08
2.82469e-07
2.38378e-08
2.82631e-07
2.27897e-08
2.82782e-07
2.18338e-08
2.82925e-07
2.09559e-08
2.83059e-07
2.01453e-08
2.83187e-07
1.93936e-08
2.83309e-07
1.86935e-08
2.83426e-07
1.80391e-08
2.83538e-07
1.74251e-08
2.83647e-07
1.68468e-08
2.83751e-07
1.63001e-08
2.83852e-07
1.57811e-08
2.83949e-07
1.52865e-08
2.84043e-07
1.4813e-08
2.84134e-07
1.43577e-08
2.84223e-07
1.3918e-08
2.84309e-07
1.34911e-08
2.84393e-07
1.30746e-08
2.84475e-07
1.26658e-08
2.84556e-07
1.22622e-08
2.84636e-07
1.18609e-08
2.84716e-07
1.14594e-08
2.84795e-07
1.10535e-08
2.84876e-07
1.06409e-08
2.84958e-07
1.02154e-08
2.85042e-07
9.77441e-09
2.85129e-07
9.30872e-09
2.8522e-07
8.81422e-09
2.85315e-07
8.27861e-09
2.85417e-07
7.69126e-09
2.85525e-07
7.04035e-09
2.8564e-07
6.29384e-09
2.85763e-07
5.45169e-09
2.85885e-07
4.43191e-09
2.8601e-07
3.26461e-09
2.861e-07
1.80988e-09
2.86149e-07
1.68771e-10
-1.70808e-09
2.86092e-07
2.82014e-07
3.62264e-08
2.85103e-07
5.88967e-08
2.86342e-07
4.8812e-08
2.87371e-07
4.15275e-08
2.88207e-07
3.9163e-08
2.88718e-07
3.64932e-08
2.89084e-07
3.34345e-08
2.89408e-07
3.09953e-08
2.89694e-07
2.91246e-08
2.89939e-07
2.75218e-08
2.90154e-07
2.60858e-08
2.90349e-07
2.48047e-08
2.90527e-07
2.36599e-08
2.90691e-07
2.26255e-08
2.90844e-07
2.1681e-08
2.90987e-07
2.08125e-08
2.91122e-07
2.00098e-08
2.91251e-07
1.92646e-08
2.91375e-07
1.85703e-08
2.91493e-07
1.79208e-08
2.91607e-07
1.73111e-08
2.91717e-07
1.67366e-08
2.91824e-07
1.61933e-08
2.91928e-07
1.56773e-08
2.92029e-07
1.51853e-08
2.92128e-07
1.47142e-08
2.92225e-07
1.4261e-08
2.9232e-07
1.38229e-08
2.92413e-07
1.33974e-08
2.92506e-07
1.29818e-08
2.92598e-07
1.25735e-08
2.92691e-07
1.21701e-08
2.92783e-07
1.17685e-08
2.92876e-07
1.1366e-08
2.92971e-07
1.09588e-08
2.93068e-07
1.05441e-08
2.93167e-07
1.01161e-08
2.9327e-07
9.67153e-09
2.93377e-07
9.20208e-09
2.93489e-07
8.70232e-09
2.93606e-07
8.1616e-09
2.93729e-07
7.56742e-09
2.9386e-07
6.9099e-09
2.93997e-07
6.15693e-09
2.94141e-07
5.30738e-09
2.94283e-07
4.28961e-09
2.94425e-07
3.12352e-09
2.94531e-07
1.70354e-09
2.94592e-07
1.07758e-10
-1.6747e-09
2.94558e-07
2.90279e-07
3.28361e-08
2.93344e-07
5.5832e-08
2.94594e-07
4.75618e-08
2.95601e-07
4.05206e-08
2.96454e-07
3.83097e-08
2.96994e-07
3.59537e-08
2.97371e-07
3.30574e-08
2.97701e-07
3.06652e-08
2.97993e-07
2.88327e-08
2.98243e-07
2.72711e-08
2.98463e-07
2.58665e-08
2.9866e-07
2.46074e-08
2.9884e-07
2.34797e-08
2.99006e-07
2.24594e-08
2.99161e-07
2.15267e-08
2.99305e-07
2.06679e-08
2.99442e-07
1.98732e-08
2.99572e-07
1.91348e-08
2.99696e-07
1.84462e-08
2.99815e-07
1.78016e-08
2.9993e-07
1.71962e-08
3.00041e-07
1.66255e-08
3.00149e-07
1.60855e-08
3.00254e-07
1.55724e-08
3.00356e-07
1.50829e-08
3.00457e-07
1.46138e-08
3.00555e-07
1.41622e-08
3.00653e-07
1.37255e-08
3.00749e-07
1.33008e-08
3.00846e-07
1.28857e-08
3.00942e-07
1.24774e-08
3.01038e-07
1.20734e-08
3.01136e-07
1.16708e-08
3.01235e-07
1.12668e-08
3.01337e-07
1.08575e-08
3.01441e-07
1.044e-08
3.01548e-07
1.00088e-08
3.0166e-07
9.56e-09
3.01776e-07
9.0861e-09
3.01897e-07
8.58064e-09
3.02025e-07
8.0342e-09
3.02159e-07
7.43317e-09
3.023e-07
6.76871e-09
3.02447e-07
6.00992e-09
3.02601e-07
5.15381e-09
3.02751e-07
4.13922e-09
3.02897e-07
2.97767e-09
3.03009e-07
1.59159e-09
3.03074e-07
4.27366e-11
-1.6548e-09
3.03054e-07
2.98816e-07
2.97225e-08
3.01844e-07
5.28039e-08
3.03114e-07
4.62926e-08
3.04097e-07
3.95373e-08
3.04963e-07
3.74441e-08
3.0553e-07
3.53859e-08
3.0592e-07
3.26674e-08
3.06256e-07
3.03294e-08
3.06554e-07
2.85344e-08
3.06811e-07
2.70145e-08
3.07035e-07
2.5643e-08
3.07235e-07
2.44069e-08
3.07418e-07
2.32968e-08
3.07586e-07
2.22912e-08
3.07742e-07
2.13706e-08
3.07888e-07
2.05218e-08
3.08026e-07
1.97354e-08
3.08157e-07
1.90039e-08
3.08282e-07
1.83212e-08
3.08402e-07
1.76818e-08
3.08517e-07
1.70807e-08
3.08629e-07
1.65138e-08
3.08737e-07
1.59771e-08
3.08843e-07
1.54669e-08
3.08946e-07
1.49798e-08
3.09047e-07
1.45127e-08
3.09147e-07
1.40627e-08
3.09245e-07
1.36271e-08
3.09343e-07
1.32031e-08
3.0944e-07
1.27882e-08
3.09538e-07
1.23797e-08
3.09636e-07
1.1975e-08
3.09736e-07
1.15711e-08
3.09838e-07
1.11652e-08
3.09942e-07
1.07535e-08
3.10049e-07
1.03329e-08
3.10159e-07
9.89813e-09
3.10274e-07
9.44489e-09
3.10394e-07
8.96621e-09
3.1052e-07
8.45493e-09
3.10652e-07
7.90251e-09
3.1079e-07
7.29485e-09
3.10935e-07
6.62352e-09
3.11085e-07
5.85963e-09
3.11241e-07
4.99811e-09
3.11393e-07
3.98771e-09
3.11537e-07
2.83365e-09
3.11648e-07
1.4805e-09
3.11712e-07
-2.12076e-11
-1.6421e-09
3.11699e-07
3.07635e-07
2.68753e-08
3.10614e-07
4.98244e-08
3.11909e-07
4.49974e-08
3.12869e-07
3.85775e-08
3.13742e-07
3.65712e-08
3.14337e-07
3.47902e-08
3.14742e-07
3.22628e-08
3.15084e-07
2.99877e-08
3.15388e-07
2.82298e-08
3.15651e-07
2.67516e-08
3.15879e-07
2.54148e-08
3.16083e-07
2.4203e-08
3.16269e-07
2.31113e-08
3.16439e-07
2.21207e-08
3.16597e-07
2.12126e-08
3.16745e-07
2.03741e-08
3.16884e-07
1.95962e-08
3.17016e-07
1.88719e-08
3.17142e-07
1.81953e-08
3.17263e-07
1.7561e-08
3.17379e-07
1.69645e-08
3.17492e-07
1.64015e-08
3.176e-07
1.58682e-08
3.17706e-07
1.53608e-08
3.1781e-07
1.48762e-08
3.17912e-07
1.44111e-08
3.18012e-07
1.39627e-08
3.1811e-07
1.35282e-08
3.18209e-07
1.31049e-08
3.18307e-07
1.26902e-08
3.18405e-07
1.22814e-08
3.18504e-07
1.18758e-08
3.18605e-07
1.14705e-08
3.18707e-07
1.10626e-08
3.18812e-07
1.06485e-08
3.18921e-07
1.02246e-08
3.19033e-07
9.78618e-09
3.19149e-07
9.32843e-09
3.1927e-07
8.84488e-09
3.19397e-07
8.3279e-09
3.1953e-07
7.7695e-09
3.1967e-07
7.15561e-09
3.19815e-07
6.47778e-09
3.19965e-07
5.70959e-09
3.20119e-07
4.84405e-09
3.20268e-07
3.83883e-09
3.20407e-07
2.69484e-09
3.20514e-07
1.37373e-09
3.20574e-07
-8.14879e-11
-1.63302e-09
3.20565e-07
3.16744e-07
2.42824e-08
3.19663e-07
4.69056e-08
3.20989e-07
4.3671e-08
3.21927e-07
3.76401e-08
3.22802e-07
3.56964e-08
3.23424e-07
3.41677e-08
3.23845e-07
3.18422e-08
3.24193e-07
2.96395e-08
3.24504e-07
2.7919e-08
3.24773e-07
2.64824e-08
3.25006e-07
2.51816e-08
3.25214e-07
2.39955e-08
3.25402e-07
2.29227e-08
3.25575e-07
2.19476e-08
3.25736e-07
2.10525e-08
3.25885e-07
2.02246e-08
3.26026e-07
1.94555e-08
3.26159e-07
1.87386e-08
3.26286e-07
1.80682e-08
3.26408e-07
1.74393e-08
3.26525e-07
1.68475e-08
3.26638e-07
1.62885e-08
3.26747e-07
1.57586e-08
3.26854e-07
1.52542e-08
3.26958e-07
1.47721e-08
3.2706e-07
1.43091e-08
3.27161e-07
1.38623e-08
3.2726e-07
1.34289e-08
3.27359e-07
1.30063e-08
3.27457e-07
1.25918e-08
3.27556e-07
1.21826e-08
3.27655e-07
1.17762e-08
3.27756e-07
1.13695e-08
3.27859e-07
1.09596e-08
3.27965e-07
1.05429e-08
3.28074e-07
1.01159e-08
3.28186e-07
9.67372e-09
3.28303e-07
9.21154e-09
3.28425e-07
8.72315e-09
3.28552e-07
8.2007e-09
3.28685e-07
7.63652e-09
3.28824e-07
7.01688e-09
3.28968e-07
6.33315e-09
3.29116e-07
5.56151e-09
3.29267e-07
4.69346e-09
3.29411e-07
3.69442e-09
3.29544e-07
2.56273e-09
3.29644e-07
1.27284e-09
3.297e-07
-1.37106e-10
-1.62557e-09
3.29693e-07
3.26155e-07
2.19303e-08
3.29001e-07
4.40591e-08
3.30362e-07
4.23097e-08
3.31279e-07
3.67231e-08
3.32151e-07
3.48244e-08
3.32799e-07
3.352e-08
3.33237e-07
3.14039e-08
3.33593e-07
2.92843e-08
3.33909e-07
2.7602e-08
3.34185e-07
2.62065e-08
3.34424e-07
2.4943e-08
3.34636e-07
2.37839e-08
3.34827e-07
2.27309e-08
3.35003e-07
2.17718e-08
3.35166e-07
2.089e-08
3.35317e-07
2.00732e-08
3.35459e-07
1.93132e-08
3.35594e-07
1.86039e-08
3.35722e-07
1.79399e-08
3.35845e-07
1.73165e-08
3.35963e-07
1.67294e-08
3.36077e-07
1.61745e-08
3.36188e-07
1.56482e-08
3.36295e-07
1.51469e-08
3.364e-07
1.46674e-08
3.36502e-07
1.42065e-08
3.36603e-07
1.37613e-08
3.36703e-07
1.33292e-08
3.36802e-07
1.29072e-08
3.36901e-07