/*--------------------------------*- C++ -*----------------------------------*\
  =========                 |
  \\      /  F ield         | OpenFOAM: The Open Source CFD Toolbox
   \\    /   O peration     | Website:  https://openfoam.org
    \\  /    A nd           | Version:  7
     \\/     M anipulation  |
\*---------------------------------------------------------------------------*/
FoamFile
{
    version     2.0;
    format      ascii;
    class       volVectorField;
    location    "0.21";
    object      U;
}
// * * * * * * * * * * * * * * * * * * * * * * * * * * * * * * * * * * * * * //

dimensions      [0 1 -1 0 0 0 0];

internalField   nonuniform List<vector> 
70000
(
(0.553392 0.0167229 0)
(0.25127 0.00340086 0)
(0.166219 0.000321849 0)
(0.13248 5.41414e-05 0)
(0.117298 4.5582e-05 0)
(0.107382 5.3757e-05 0)
(0.0994426 4.61225e-05 0)
(0.0930115 3.67804e-05 0)
(0.0877763 3.04621e-05 0)
(0.0834171 2.61295e-05 0)
(0.0797055 2.28246e-05 0)
(0.0764934 2.0174e-05 0)
(0.0736797 1.80085e-05 0)
(0.0711904 1.62144e-05 0)
(0.0689693 1.47078e-05 0)
(0.0669733 1.34263e-05 0)
(0.0651682 1.23233e-05 0)
(0.0635268 1.13643e-05 0)
(0.0620272 1.05218e-05 0)
(0.0606514 9.77519e-06 0)
(0.0593845 9.10729e-06 0)
(0.0582143 8.50479e-06 0)
(0.0571302 7.95613e-06 0)
(0.0561236 7.4522e-06 0)
(0.0551871 6.9842e-06 0)
(0.0543144 6.54608e-06 0)
(0.0535002 6.12981e-06 0)
(0.0527399 5.73163e-06 0)
(0.0520298 5.34303e-06 0)
(0.0513666 4.96256e-06 0)
(0.0507479 4.57873e-06 0)
(0.0501714 4.19514e-06 0)
(0.0496359 3.79086e-06 0)
(0.0491399 3.38062e-06 0)
(0.0486834 2.92587e-06 0)
(0.0482658 2.45684e-06 0)
(0.0478881 1.91569e-06 0)
(0.0475521 1.33108e-06 0)
(0.0472574 6.71667e-07 0)
(0.0470136 -1.63735e-07 0)
(0.04681 -9.12405e-07 0)
(0.0466832 -2.38088e-06 0)
(0.046581 -2.93768e-06 0)
(0.0466261 -6.16001e-06 0)
(0.0466302 -5.4927e-06 0)
(0.0469717 -1.34313e-05 0)
(0.0470749 -7.5873e-06 0)
(0.0479508 -2.93692e-05 0)
(0.0484972 1.3684e-05 0)
(0.0460918 -0.00185093 0)
(0.8849 0.0431669 0)
(0.649729 0.0201932 0)
(0.494351 0.00659745 0)
(0.403713 0.00276678 0)
(0.354804 0.00155123 0)
(0.323517 0.00113085 0)
(0.299674 0.000909664 0)
(0.280494 0.000745761 0)
(0.264798 0.000622902 0)
(0.251693 0.00053214 0)
(0.24053 0.000463234 0)
(0.230867 0.000409 0)
(0.222398 0.000365161 0)
(0.214901 0.000329049 0)
(0.208207 0.000298855 0)
(0.202186 0.000273279 0)
(0.196738 0.000251366 0)
(0.191779 0.0002324 0)
(0.187244 0.000215833 0)
(0.18308 0.000201239 0)
(0.179241 0.000188282 0)
(0.175691 0.000176693 0)
(0.172397 0.000166252 0)
(0.169334 0.000156777 0)
(0.166479 0.000148117 0)
(0.163813 0.000140141 0)
(0.161319 0.000132737 0)
(0.158984 0.000125807 0)
(0.156796 0.000119258 0)
(0.154744 0.000113012 0)
(0.15282 0.000106978 0)
(0.151016 0.000101098 0)
(0.149329 9.52531e-05 0)
(0.147752 8.94197e-05 0)
(0.146283 8.34024e-05 0)
(0.144921 7.72509e-05 0)
(0.143665 7.0603e-05 0)
(0.142519 6.36546e-05 0)
(0.14148 5.5746e-05 0)
(0.14057 4.72579e-05 0)
(0.139759 3.72191e-05 0)
(0.139139 2.57517e-05 0)
(0.13857 1.25354e-05 0)
(0.138367 -5.28197e-06 0)
(0.138032 -2.21245e-05 0)
(0.13854 -5.7599e-05 0)
(0.138391 -7.27873e-05 0)
(0.140137 -0.000191179 0)
(0.140862 4.84268e-05 0)
(0.140031 -0.00339586 0)
(0.991238 0.0499006 0)
(0.89036 0.0307172 0)
(0.762716 0.0145959 0)
(0.656729 0.00797795 0)
(0.585426 0.00488331 0)
(0.536043 0.00346968 0)
(0.498197 0.00273428 0)
(0.467597 0.00224204 0)
(0.442299 0.00187896 0)
(0.421005 0.0016074 0)
(0.402769 0.00139998 0)
(0.386922 0.00123672 0)
(0.372989 0.00110485 0)
(0.360622 0.000996259 0)
(0.349554 0.000905453 0)
(0.339579 0.000828535 0)
(0.330535 0.000762638 0)
(0.322291 0.000705617 0)
(0.314741 0.000655828 0)
(0.307797 0.000611999 0)
(0.301387 0.000573121 0)
(0.29545 0.000538389 0)
(0.289935 0.000507147 0)
(0.284799 0.000478857 0)
(0.280004 0.000453065 0)
(0.27552 0.000429392 0)
(0.271318 0.000407506 0)
(0.267376 0.000387122 0)
(0.263673 0.000367978 0)
(0.260191 0.000349844 0)
(0.256917 0.00033248 0)
(0.253838 0.000315701 0)
(0.250944 0.000299227 0)
(0.248226 0.000282941 0)
(0.245679 0.000266401 0)
(0.243298 0.000249662 0)
(0.241081 0.000231865 0)
(0.239032 0.000213515 0)
(0.237142 0.000192784 0)
(0.235444 0.000171205 0)
(0.233891 0.00014499 0)
(0.232612 0.000117475 0)
(0.231403 8.18426e-05 0)
(0.230712 4.26138e-05 0)
(0.229822 -7.31875e-06 0)
(0.230102 -7.86193e-05 0)
(0.229454 -0.000137822 0)
(0.231381 -0.00038154 0)
(0.23162 -0.000142126 0)
(0.233411 -0.00387119 0)
(1.0156 0.0489192 0)
(1.00597 0.0358726 0)
(0.935978 0.0207889 0)
(0.852172 0.0135015 0)
(0.782258 0.00920526 0)
(0.727085 0.00677882 0)
(0.682027 0.00538124 0)
(0.644293 0.00444225 0)
(0.612295 0.00374869 0)
(0.584845 0.00322302 0)
(0.561007 0.00281685 0)
(0.540075 0.00249501 0)
(0.521519 0.00223395 0)
(0.504937 0.00201823 0)
(0.490015 0.00183733 0)
(0.476503 0.00168372 0)
(0.464203 0.00155187 0)
(0.452951 0.00143759 0)
(0.442614 0.00133768 0)
(0.433081 0.00124964 0)
(0.424258 0.0011715 0)
(0.416068 0.00110168 0)
(0.408443 0.00103887 0)
(0.401327 0.000982021 0)
(0.394672 0.000930239 0)
(0.388434 0.000882775 0)
(0.382578 0.000838982 0)
(0.377072 0.000798297 0)
(0.371889 0.000760219 0)
(0.367006 0.000724293 0)
(0.362401 0.000690077 0)
(0.358058 0.000657198 0)
(0.353963 0.000625166 0)
(0.350103 0.000593714 0)
(0.346469 0.000562106 0)
(0.343052 0.000530368 0)
(0.339851 0.000497028 0)
(0.336864 0.000462989 0)
(0.334084 0.000424863 0)
(0.331543 0.000385886 0)
(0.329186 0.000338133 0)
(0.32716 0.000290256 0)
(0.32523 0.000224685 0)
(0.3239 0.000160043 0)
(0.322363 6.39996e-05 0)
(0.322142 -4.4363e-05 0)
(0.320925 -0.000168527 0)
(0.322528 -0.000528383 0)
(0.322119 -0.000411701 0)
(0.325026 -0.00398848 0)
(1.01434 0.0460024 0)
(1.04754 0.0374855 0)
(1.0246 0.0241478 0)
(0.974797 0.0175552 0)
(0.923507 0.0131184 0)
(0.876761 0.0102021 0)
(0.834626 0.00833867 0)
(0.796906 0.00701773 0)
(0.763369 0.00600804 0)
(0.733578 0.00522064 0)
(0.70702 0.00459866 0)
(0.683224 0.00409795 0)
(0.661792 0.00368704 0)
(0.642392 0.0033444 0)
(0.624747 0.00305493 0)
(0.608629 0.00280763 0)
(0.593844 0.00259426 0)
(0.580231 0.00240854 0)
(0.567655 0.00224558 0)
(0.555998 0.00210156 0)
(0.545163 0.0019734 0)
(0.535064 0.00185865 0)
(0.52563 0.00175526 0)
(0.516796 0.00166158 0)
(0.508508 0.00157618 0)
(0.500718 0.00149789 0)
(0.493385 0.00142567 0)
(0.486473 0.00135864 0)
(0.479949 0.001296 0)
(0.473785 0.00123702 0)
(0.467959 0.00118103 0)
(0.462448 0.00112741 0)
(0.457236 0.00107544 0)
(0.452306 0.00102467 0)
(0.447648 0.000974017 0)
(0.44325 0.000923459 0)
(0.439108 0.000870852 0)
(0.43522 0.000817509 0)
(0.431575 0.000758329 0)
(0.428206 0.000698432 0)
(0.425056 0.000625275 0)
(0.422268 0.000553506 0)
(0.419613 0.000453571 0)
(0.417584 0.000359689 0)
(0.415399 0.000212844 0)
(0.414519 6.02946e-05 0)
(0.412768 -0.000135441 0)
(0.413705 -0.000603661 0)
(0.412827 -0.000666708 0)
(0.415404 -0.00404305 0)
(1.00933 0.0429137 0)
(1.05528 0.0372602 0)
(1.0587 0.0252911 0)
(1.0364 0.0197536 0)
(1.00715 0.0158059 0)
(0.976125 0.0129304 0)
(0.944624 0.0109543 0)
(0.913784 0.00947251 0)
(0.884454 0.0082824 0)
(0.857019 0.00731482 0)
(0.83156 0.00652492 0)
(0.808012 0.0058726 0)
(0.786255 0.00532647 0)
(0.766146 0.00486372 0)
(0.747538 0.0044676 0)
(0.730292 0.00412547 0)
(0.714277 0.00382757 0)
(0.699375 0.00356624 0)
(0.685479 0.00333542 0)
(0.672497 0.00313026 0)
(0.660343 0.0029468 0)
(0.648944 0.00278183 0)
(0.638234 0.00263266 0)
(0.628155 0.00249708 0)
(0.618655 0.00237319 0)
(0.609687 0.00225937 0)
(0.601212 0.00215424 0)
(0.593193 0.00205657 0)
(0.585599 0.00196528 0)
(0.5784 0.00187935 0)
(0.571572 0.00179787 0)
(0.565093 0.00171996 0)
(0.558946 0.00164468 0)
(0.553111 0.00157133 0)
(0.547579 0.00149852 0)
(0.542336 0.00142613 0)
(0.537377 0.00135136 0)
(0.532697 0.00127585 0)
(0.528288 0.00119289 0)
(0.524175 0.00110923 0)
(0.520312 0.00100809 0)
(0.516822 0.000909335 0)
(0.513508 0.000772871 0)
(0.510799 0.000645538 0)
(0.50803 0.000447342 0)
(0.506447 0.000242351 0)
(0.504242 -2.54799e-05 0)
(0.504352 -0.000602007 0)
(0.503164 -0.000849508 0)
(0.504828 -0.00403497 0)
(1.00625 0.040032 0)
(1.05207 0.0363322 0)
(1.0661 0.0252194 0)
(1.05963 0.0205521 0)
(1.04692 0.0172312 0)
(1.03086 0.0146486 0)
(1.01198 0.0128123 0)
(0.991325 0.0113875 0)
(0.969938 0.0101912 0)
(0.948555 0.00917566 0)
(0.92762 0.0083155 0)
(0.907397 0.00758282 0)
(0.888032 0.00695321 0)
(0.869594 0.00640786 0)
(0.852102 0.00593228 0)
(0.835544 0.00551497 0)
(0.819888 0.00514667 0)
(0.80509 0.00481981 0)
(0.791104 0.00452819 0)
(0.777879 0.00426669 0)
(0.765369 0.00403106 0)
(0.753525 0.00381773 0)
(0.742303 0.0036237 0)
(0.731662 0.00344641 0)
(0.721564 0.00328367 0)
(0.711973 0.00313358 0)
(0.702858 0.00299448 0)
(0.694187 0.00286489 0)
(0.685936 0.0027435 0)
(0.678079 0.00262907 0)
(0.670595 0.00252046 0)
(0.663464 0.00241659 0)
(0.656671 0.00231627 0)
(0.650198 0.00221862 0)
(0.644037 0.00212194 0)
(0.638174 0.00202598 0)
(0.632606 0.00192737 0)
(0.627326 0.00182792 0)
(0.62233 0.00171959 0)
(0.617635 0.00161027 0)
(0.61321 0.00147985 0)
(0.60915 0.00135169 0)
(0.605306 0.0011783 0)
(0.602018 0.00101356 0)
(0.598773 0.000765913 0)
(0.596552 0.000502643 0)
(0.59398 0.000163897 0)
(0.593285 -0.00052019 0)
(0.591832 -0.000945803 0)
(0.592536 -0.00393959 0)
(1.00495 0.0373538 0)
(1.04728 0.0352497 0)
(1.06399 0.0246787 0)
(1.06428 0.0205773 0)
(1.06072 0.0177676 0)
(1.05481 0.0154896 0)
(1.04607 0.0138681 0)
(1.0349 0.0126081 0)
(1.02201 0.0115227 0)
(1.00801 0.0105705 0)
(0.993342 0.00973801 0)
(0.978372 0.00900795 0)
(0.963362 0.00836356 0)
(0.948506 0.00779174 0)
(0.933942 0.00728221 0)
(0.91976 0.00682653 0)
(0.90602 0.00641755 0)
(0.892755 0.00604916 0)
(0.879983 0.00571615 0)
(0.867707 0.00541403 0)
(0.855923 0.00513896 0)
(0.844622 0.0048876 0)
(0.83379 0.00465707 0)
(0.823411 0.00444485 0)
(0.813468 0.00424874 0)
(0.803943 0.00406678 0)
(0.794818 0.00389725 0)
(0.786077 0.00373855 0)
(0.777703 0.00358928 0)
(0.769679 0.00344807 0)
(0.761993 0.00331365 0)
(0.754631 0.00318479 0)
(0.747581 0.00306015 0)
(0.740831 0.00293866 0)
(0.734376 0.0028184 0)
(0.728205 0.00269897 0)
(0.722318 0.00257655 0)
(0.716708 0.00245298 0)
(0.711377 0.00231923 0)
(0.706334 0.00218371 0)
(0.701564 0.00202418 0)
(0.697135 0.00186543 0)
(0.692947 0.00165623 0)
(0.689254 0.00145147 0)
(0.685688 0.00115763 0)
(0.682977 0.000831837 0)
(0.680145 0.000426484 0)
(0.678787 -0.000359748 0)
(0.677088 -0.000955336 0)
(0.676964 -0.00375832 0)
(1.0044 0.0348056 0)
(1.04324 0.0341759 0)
(1.05995 0.0240369 0)
(1.06231 0.0202824 0)
(1.06254 0.0178301 0)
(1.06186 0.0157692 0)
(1.05931 0.0143209 0)
(1.05479 0.0132262 0)
(1.04859 0.0122832 0)
(1.04105 0.0114431 0)
(1.03243 0.0106952 0)
(1.02299 0.010026 0)
(1.01296 0.00942284 0)
(1.00254 0.00887614 0)
(0.991888 0.00837902 0)
(0.981142 0.00792591 0)
(0.970402 0.00751204 0)
(0.959749 0.00713319 0)
(0.949243 0.00678565 0)
(0.938928 0.00646609 0)
(0.928838 0.00617155 0)
(0.918996 0.00589937 0)
(0.909418 0.00564718 0)
(0.900113 0.00541283 0)
(0.891087 0.00519439 0)
(0.882342 0.00499011 0)
(0.873877 0.00479839 0)
(0.865691 0.00461774 0)
(0.85778 0.00444679 0)
(0.850139 0.00428417 0)
(0.842764 0.00412861 0)
(0.835651 0.00397883 0)
(0.828795 0.00383339 0)
(0.822191 0.00369115 0)
(0.815839 0.00355003 0)
(0.809732 0.00340947 0)
(0.803875 0.00326538 0)
(0.798264 0.00311945 0)
(0.792905 0.00296209 0)
(0.787806 0.00280161 0)
(0.782961 0.00261481 0)
(0.778422 0.00242604 0)
(0.774125 0.00218355 0)
(0.770256 0.00193834 0)
(0.766564 0.00160222 0)
(0.763573 0.00121366 0)
(0.760621 0.000745184 0)
(0.758806 -0.000133918 0)
(0.75692 -0.000885355 0)
(0.756149 -0.00350475 0)
(1.00402 0.0323653 0)
(1.03991 0.0331253 0)
(1.05618 0.023413 0)
(1.05895 0.0198932 0)
(1.06026 0.0176984 0)
(1.06163 0.0157719 0)
(1.06202 0.0144245 0)
(1.06115 0.0134446 0)
(1.05912 0.0126176 0)
(1.05602 0.0118834 0)
(1.05195 0.0112286 0)
(1.04702 0.0106394 0)
(1.04137 0.010103 0)
(1.03511 0.00961062 0)
(1.02836 0.00915643 0)
(1.02124 0.00873625 0)
(1.01384 0.00834673 0)
(1.00625 0.00798499 0)
(0.998541 0.00764851 0)
(0.990765 0.00733502 0)
(0.982976 0.00704245 0)
(0.975215 0.00676889 0)
(0.967515 0.0065126 0)
(0.959904 0.00627195 0)
(0.952404 0.00604543 0)
(0.945031 0.00583164 0)
(0.9378 0.00562925 0)
(0.930722 0.00543698 0)
(0.923806 0.00525364 0)
(0.917057 0.00507797 0)
(0.910481 0.00490879 0)
(0.904083 0.00474486 0)
(0.897865 0.00458476 0)
(0.891831 0.0044273 0)
(0.885984 0.00427034 0)
(0.880327 0.00411322 0)
(0.874865 0.00395167 0)
(0.869601 0.00378719 0)
(0.864543 0.00360991 0)
(0.859702 0.00342763 0)
(0.855079 0.0032171 0)
(0.850714 0.00300082 0)
(0.84657 0.00272902 0)
(0.842784 0.0024453 0)
(0.839191 0.00207164 0)
(0.836159 0.00162378 0)
(0.833261 0.00109575 0)
(0.831219 0.000140286 0)
(0.829256 -0.000750491 0)
(0.828043 -0.00319777 0)
(1.00364 0.0300246 0)
(1.03693 0.0320771 0)
(1.05283 0.0228224 0)
(1.05571 0.0194868 0)
(1.05717 0.017505 0)
(1.05909 0.0156702 0)
(1.06055 0.01437 0)
(1.06127 0.013453 0)
(1.06129 0.0126995 0)
(1.06066 0.0120397 0)
(1.05938 0.0114572 0)
(1.05745 0.0109371 0)
(1.05491 0.0104649 0)
(1.05182 0.0100308 0)
(1.04823 0.00962842 0)
(1.04419 0.00925353 0)
(1.03979 0.008903 0)
(1.03506 0.00857434 0)
(1.03008 0.00826553 0)
(1.02488 0.00797482 0)
(1.01952 0.00770067 0)
(1.01404 0.00744167 0)
(1.00847 0.00719653 0)
(1.00284 0.00696405 0)
(0.997182 0.0067431 0)
(0.991523 0.00653257 0)
(0.985881 0.00633144 0)
(0.980276 0.00613865 0)
(0.974722 0.00595322 0)
(0.969234 0.00577407 0)
(0.963824 0.00560013 0)
(0.958503 0.00543025 0)
(0.95328 0.00526308 0)
(0.948163 0.00509747 0)
(0.943162 0.00493123 0)
(0.938284 0.00476366 0)
(0.933539 0.00459041 0)
(0.928932 0.00441272 0)
(0.924477 0.00422069 0)
(0.920185 0.00402134 0)
(0.916061 0.00379203 0)
(0.912142 0.00355246 0)
(0.908406 0.00325657 0)
(0.904953 0.00293845 0)
(0.901686 0.00253291 0)
(0.89885 0.00203215 0)
(0.89619 0.00144982 0)
(0.894153 0.00043743 0)
(0.892252 -0.000572711 0)
(0.890811 -0.00286052 0)
(1.00327 0.0277847 0)
(1.0341 0.0310178 0)
(1.04972 0.0222582 0)
(1.05275 0.0190784 0)
(1.05417 0.0172928 0)
(1.05614 0.0155393 0)
(1.05788 0.0142609 0)
(1.05912 0.013374 0)
(1.05995 0.0126611 0)
(1.06043 0.0120447 0)
(1.06054 0.0115073 0)
(1.06025 0.0110337 0)
(1.05956 0.0106086 0)
(1.05847 0.0102208 0)
(1.057 0.00986285 0)
(1.05516 0.00952995 0)
(1.05299 0.00921848 0)
(1.05051 0.00892571 0)
(1.04775 0.00864952 0)
(1.04474 0.00838816 0)
(1.04151 0.00814019 0)
(1.0381 0.00790433 0)
(1.03452 0.00767945 0)
(1.03081 0.00746453 0)
(1.02699 0.00725861 0)
(1.02308 0.00706079 0)
(1.01911 0.0068702 0)
(1.01508 0.00668597 0)
(1.01103 0.00650723 0)
(1.00696 0.00633304 0)
(1.00289 0.00616245 0)
(0.998831 0.00599439 0)
(0.994802 0.00582756 0)
(0.99081 0.00566085 0)
(0.986868 0.00549208 0)
(0.982986 0.00532049 0)
(0.979175 0.0051417 0)
(0.975446 0.00495669 0)
(0.971811 0.0047557 0)
(0.968284 0.00454475 0)
(0.964875 0.00430236 0)
(0.961612 0.00404472 0)
(0.958488 0.00373069 0)
(0.955576 0.00338379 0)
(0.952823 0.00295256 0)
(0.950387 0.00240756 0)
(0.948129 0.001778 0)
(0.9463 0.000725819 0)
(0.944602 -0.000378734 0)
(0.943134 -0.00251847 0)
(1.00292 0.0256486 0)
(1.03139 0.0299427 0)
(1.04672 0.0217161 0)
(1.04996 0.0186679 0)
(1.05135 0.0170684 0)
(1.05329 0.0154012 0)
(1.05506 0.0141381 0)
(1.05641 0.0132667 0)
(1.05748 0.0125768 0)
(1.05835 0.0119842 0)
(1.05902 0.0114715 0)
(1.05947 0.0110246 0)
(1.05968 0.0106281 0)
(1.05966 0.0102702 0)
(1.05939 0.00994294 0)
(1.05887 0.00964081 0)
(1.05812 0.00935974 0)
(1.05713 0.00909658 0)
(1.05591 0.0088489 0)
(1.05449 0.00861471 0)
(1.05287 0.00839237 0)
(1.05106 0.00818051 0)
(1.04909 0.00797791 0)
(1.04696 0.00778352 0)
(1.0447 0.00759638 0)
(1.04232 0.0074156 0)
(1.03983 0.00724034 0)
(1.03725 0.00706975 0)
(1.0346 0.00690304 0)
(1.03189 0.00673929 0)
(1.02913 0.00657759 0)
(1.02633 0.00641692 0)
(1.02351 0.00625598 0)
(1.02068 0.00609368 0)
(1.01785 0.00592782 0)
(1.01503 0.00575759 0)
(1.01224 0.00557859 0)
(1.00947 0.00539151 0)
(1.00676 0.00518684 0)
(1.0041 0.00496946 0)
(1.00152 0.00471941 0)
(0.999033 0.004449 0)
(0.996642 0.00412262 0)
(0.994398 0.00375317 0)
(0.992279 0.00330234 0)
(0.990379 0.00272287 0)
(0.988635 0.00205411 0)
(0.987164 0.000979248 0)
(0.985783 -0.000194264 0)
(0.984454 -0.00219566 0)
(1.0026 0.0236193 0)
(1.0288 0.0288507 0)
(1.0438 0.0211949 0)
(1.04727 0.0182552 0)
(1.04867 0.0168304 0)
(1.05057 0.0152586 0)
(1.05233 0.0140126 0)
(1.05369 0.013152 0)
(1.0548 0.0124784 0)
(1.05576 0.011901 0)
(1.0566 0.011402 0)
(1.05731 0.0109695 0)
(1.05789 0.0105886 0)
(1.05834 0.0102477 0)
(1.05864 0.00993848 0)
(1.0588 0.00965536 0)
(1.05881 0.00939399 0)
(1.05867 0.00915099 0)
(1.05837 0.00892366 0)
(1.05794 0.00870979 0)
(1.05735 0.00850754 0)
(1.05663 0.00831532 0)
(1.05577 0.00813179 0)
(1.05478 0.00795573 0)
(1.05367 0.00778609 0)
(1.05244 0.00762188 0)
(1.05112 0.00746218 0)
(1.0497 0.00730611 0)
(1.04819 0.00715279 0)
(1.04661 0.00700132 0)
(1.04496 0.0068507 0)
(1.04326 0.00669993 0)
(1.04151 0.00654765 0)
(1.03972 0.00639275 0)
(1.03791 0.00623297 0)
(1.03608 0.00606743 0)
(1.03424 0.0058917 0)
(1.0324 0.00570615 0)
(1.03058 0.00550163 0)
(1.02879 0.00528171 0)
(1.02703 0.00502826 0)
(1.02533 0.00474951 0)
(1.02369 0.00441555 0)
(1.02214 0.00402938 0)
(1.02069 0.00356423 0)
(1.01938 0.0029598 0)
(1.01819 0.00226004 0)
(1.01716 0.00117737 0)
(1.01616 -3.53287e-05 0)
(1.01508 -0.00191192 0)
(1.0023 0.0216984 0)
(1.02634 0.0277425 0)
(1.04097 0.020693 0)
(1.04466 0.0178419 0)
(1.04608 0.0165776 0)
(1.04795 0.0151098 0)
(1.04971 0.0138857 0)
(1.05107 0.0130349 0)
(1.05217 0.012376 0)
(1.05313 0.0118111 0)
(1.054 0.0113217 0)
(1.05478 0.0108978 0)
(1.05547 0.0105258 0)
(1.05608 0.0101942 0)
(1.05661 0.00989489 0)
(1.05705 0.00962233 0)
(1.05741 0.00937219 0)
(1.05768 0.00914107 0)
(1.05786 0.00892618 0)
(1.05795 0.00872523 0)
(1.05794 0.00853624 0)
(1.05785 0.00835751 0)
(1.05766 0.00818755 0)
(1.05738 0.00802504 0)
(1.05702 0.00786879 0)
(1.05657 0.00771769 0)
(1.05603 0.00757074 0)
(1.05542 0.00742693 0)
(1.05474 0.00728533 0)
(1.05399 0.00714493 0)
(1.05318 0.00700467 0)
(1.05231 0.00686348 0)
(1.05139 0.00671992 0)
(1.05044 0.00657283 0)
(1.04944 0.00641985 0)
(1.04842 0.00626001 0)
(1.04738 0.00608888 0)
(1.04633 0.00590642 0)
(1.04528 0.00570394 0)
(1.04424 0.00548363 0)
(1.04321 0.00522929 0)
(1.04221 0.00494517 0)
(1.04125 0.0046068 0)
(1.04035 0.00420857 0)
(1.03952 0.00373302 0)
(1.03877 0.00311185 0)
(1.03811 0.00238868 0)
(1.03751 0.00131074 0)
(1.0369 8.29352e-05 0)
(1.03611 -0.0016811 0)
(1.00203 0.0198868 0)
(1.02402 0.0266211 0)
(1.03823 0.0202072 0)
(1.04214 0.0174298 0)
(1.04359 0.01631 0)
(1.04542 0.0149536 0)
(1.04718 0.0137566 0)
(1.04854 0.0129159 0)
(1.04962 0.0122715 0)
(1.05058 0.0117191 0)
(1.05144 0.0112383 0)
(1.05222 0.0108211 0)
(1.05293 0.0104553 0)
(1.05358 0.0101295 0)
(1.05417 0.00983605 0)
(1.05471 0.00956937 0)
(1.05519 0.00932535 0)
(1.05563 0.0091007 0)
(1.05601 0.00889268 0)
(1.05634 0.00869901 0)
(1.05662 0.00851769 0)
(1.05684 0.008347 0)
(1.05701 0.00818538 0)
(1.05712 0.00803145 0)
(1.05717 0.00788392 0)
(1.05717 0.00774162 0)
(1.05711 0.00760346 0)
(1.057 0.00746834 0)
(1.05684 0.00733524 0)
(1.05663 0.00720308 0)
(1.05637 0.0070707 0)
(1.05607 0.00693697 0)
(1.05573 0.00680034 0)
(1.05536 0.0066596 0)
(1.05496 0.0065123 0)
(1.05453 0.00635732 0)
(1.05409 0.00619028 0)
(1.05363 0.00601068 0)
(1.05316 0.00581037 0)
(1.0527 0.00559012 0)
(1.05225 0.00533568 0)
(1.05181 0.00504762 0)
(1.0514 0.0047063 0)
(1.05103 0.00429918 0)
(1.05071 0.00381562 0)
(1.05043 0.00318403 0)
(1.05021 0.00244397 0)
(1.05 0.00137971 0)
(1.04973 0.000151697 0)
(1.04923 -0.00150677 0)
(1.00179 0.0181846 0)
(1.02184 0.0254906 0)
(1.0356 0.0197338 0)
(1.0397 0.0170208 0)
(1.04118 0.0160283 0)
(1.04298 0.0147889 0)
(1.04474 0.013625 0)
(1.0461 0.0127946 0)
(1.04718 0.0121647 0)
(1.04811 0.0116254 0)
(1.04896 0.0111535 0)
(1.04973 0.0107428 0)
(1.05043 0.0103824 0)
(1.05108 0.0100614 0)
(1.05168 0.00977212 0)
(1.05224 0.0095093 0)
(1.05276 0.00926898 0)
(1.05324 0.00904801 0)
(1.0537 0.00884375 0)
(1.05412 0.00865399 0)
(1.05451 0.00847679 0)
(1.05486 0.00831045 0)
(1.05519 0.00815341 0)
(1.05548 0.00800426 0)
(1.05574 0.00786171 0)
(1.05596 0.00772452 0)
(1.05615 0.00759155 0)
(1.05631 0.00746168 0)
(1.05644 0.00733378 0)
(1.05653 0.00720674 0)
(1.0566 0.00707932 0)
(1.05664 0.00695033 0)
(1.05666 0.00681814 0)
(1.05665 0.00668146 0)
(1.05663 0.00653778 0)
(1.05659 0.00638583 0)
(1.05654 0.00622131 0)
(1.05648 0.00604324 0)
(1.05642 0.00584404 0)
(1.05636 0.00562312 0)
(1.05631 0.0053681 0)
(1.05628 0.00507629 0)
(1.05627 0.00473211 0)
(1.05628 0.0043179 0)
(1.05633 0.00382744 0)
(1.05641 0.00318981 0)
(1.05652 0.00243803 0)
(1.05661 0.00139274 0)
(1.0566 0.000177342 0)
(1.05634 -0.00138369 0)
(1.00157 0.0165916 0)
(1.01979 0.0243549 0)
(1.03306 0.0192687 0)
(1.03735 0.0166166 0)
(1.03887 0.0157339 0)
(1.04063 0.0146152 0)
(1.04238 0.0134905 0)
(1.04375 0.012671 0)
(1.04482 0.0120556 0)
(1.04574 0.01153 0)
(1.04658 0.0110675 0)
(1.04734 0.0106635 0)
(1.04803 0.0103085 0)
(1.04866 0.00999205 0)
(1.04925 0.00970657 0)
(1.0498 0.00944696 0)
(1.05032 0.00920944 0)
(1.05082 0.00899099 0)
(1.05128 0.00878911 0)
(1.05173 0.00860165 0)
(1.05215 0.00842674 0)
(1.05255 0.00826273 0)
(1.05293 0.00810809 0)
(1.05329 0.00796142 0)
(1.05363 0.00782142 0)
(1.05395 0.00768686 0)
(1.05426 0.00755655 0)
(1.05454 0.00742936 0)
(1.05481 0.00730412 0)
(1.05506 0.00717967 0)
(1.05529 0.00705473 0)
(1.05552 0.00692806 0)
(1.05572 0.00679798 0)
(1.05592 0.00666312 0)
(1.05611 0.00652095 0)
(1.05629 0.00637002 0)
(1.05647 0.00620617 0)
(1.05666 0.00602794 0)
(1.05684 0.00582834 0)
(1.05703 0.00560552 0)
(1.05724 0.00534876 0)
(1.05746 0.00505272 0)
(1.0577 0.00470498 0)
(1.05797 0.00428452 0)
(1.05827 0.00378747 0)
(1.05858 0.00314654 0)
(1.05891 0.00238706 0)
(1.05919 0.0013636 0)
(1.05937 0.000169584 0)
(1.05928 -0.00130253 0)
(1.00137 0.0151069 0)
(1.01788 0.0232178 0)
(1.03063 0.0188079 0)
(1.03509 0.0162187 0)
(1.03665 0.0154281 0)
(1.03837 0.0144317 0)
(1.04012 0.0133527 0)
(1.04148 0.0125452 0)
(1.04255 0.011944 0)
(1.04346 0.0114327 0)
(1.04429 0.0109802 0)
(1.04503 0.0105832 0)
(1.04571 0.0102338 0)
(1.04633 0.00992197 0)
(1.04691 0.00964028 0)
(1.04745 0.00938379 0)
(1.04796 0.00914885 0)
(1.04845 0.00893258 0)
(1.04891 0.00873258 0)
(1.04935 0.00854679 0)
(1.04978 0.00837342 0)
(1.05019 0.00821084 0)
(1.05058 0.00805757 0)
(1.05096 0.00791221 0)
(1.05132 0.00777349 0)
(1.05168 0.00764017 0)
(1.05202 0.00751105 0)
(1.05235 0.00738498 0)
(1.05268 0.00726078 0)
(1.05299 0.00713727 0)
(1.0533 0.00701312 0)
(1.0536 0.00688706 0)
(1.0539 0.00675737 0)
(1.05419 0.00662261 0)
(1.05449 0.00648027 0)
(1.05479 0.00632872 0)
(1.05509 0.00616396 0)
(1.05539 0.00598406 0)
(1.05571 0.00578263 0)
(1.05604 0.0055567 0)
(1.05638 0.00529698 0)
(1.05675 0.00499606 0)
(1.05713 0.00464383 0)
(1.05754 0.00421746 0)
(1.05798 0.00371382 0)
(1.05843 0.00307124 0)
(1.05888 0.00230726 0)
(1.05928 0.00130667 0)
(1.05955 0.000139783 0)
(1.05958 -0.00125212 0)
(1.0012 0.0137287 0)
(1.01611 0.0220836 0)
(1.02831 0.0183478 0)
(1.03291 0.0158282 0)
(1.03453 0.0151126 0)
(1.03621 0.014238 0)
(1.03794 0.0132112 0)
(1.03931 0.0124171 0)
(1.04037 0.0118298 0)
(1.04128 0.0113333 0)
(1.04209 0.0108915 0)
(1.04282 0.0105018 0)
(1.04349 0.0101582 0)
(1.0441 0.00985115 0)
(1.04467 0.00957339 0)
(1.0452 0.00932007 0)
(1.0457 0.00908772 0)
(1.04617 0.00887359 0)
(1.04662 0.00867537 0)
(1.04706 0.00849109 0)
(1.04747 0.00831901 0)
(1.04788 0.00815754 0)
(1.04826 0.00800523 0)
(1.04864 0.00786072 0)
(1.04901 0.00772271 0)
(1.04937 0.00758998 0)
(1.04972 0.00746134 0)
(1.05007 0.00733561 0)
(1.0504 0.0072116 0)
(1.05074 0.0070881 0)
(1.05107 0.00696377 0)
(1.0514 0.0068373 0)
(1.05173 0.00670694 0)
(1.05207 0.00657121 0)
(1.0524 0.0064276 0)
(1.05275 0.00627432 0)
(1.0531 0.00610755 0)
(1.05346 0.00592493 0)
(1.05384 0.0057206 0)
(1.05423 0.00549067 0)
(1.05464 0.00522699 0)
(1.05507 0.00492071 0)
(1.05553 0.00456319 0)
(1.05601 0.00413114 0)
(1.05651 0.00362099 0)
(1.05702 0.00297781 0)
(1.05752 0.00221204 0)
(1.05797 0.00123429 0)
(1.05829 9.80466e-05 0)
(1.05837 -0.001222 0)
(1.00104 0.012455 0)
(1.01447 0.0209565 0)
(1.0261 0.017885 0)
(1.03082 0.0154461 0)
(1.0325 0.0147895 0)
(1.03414 0.0140336 0)
(1.03585 0.0130654 0)
(1.03722 0.0122869 0)
(1.03828 0.011713 0)
(1.03918 0.0112316 0)
(1.03998 0.0108011 0)
(1.0407 0.0104192 0)
(1.04136 0.0100816 0)
(1.04196 0.00977953 0)
(1.04252 0.00950584 0)
(1.04304 0.00925581 0)
(1.04352 0.00902614 0)
(1.04399 0.00881419 0)
(1.04443 0.00861778 0)
(1.04485 0.00843499 0)
(1.04526 0.00826415 0)
(1.04565 0.00810372 0)
(1.04603 0.00795226 0)
(1.0464 0.00780843 0)
(1.04677 0.00767095 0)
(1.04712 0.00753858 0)
(1.04747 0.00741012 0)
(1.04781 0.00728439 0)
(1.04815 0.00716018 0)
(1.04848 0.00703627 0)
(1.04882 0.00691128 0)
(1.04915 0.00678387 0)
(1.04949 0.00665231 0)
(1.04983 0.00651501 0)
(1.05018 0.00636953 0)
(1.05054 0.0062139 0)
(1.05091 0.00604446 0)
(1.05129 0.00585851 0)
(1.05169 0.00565061 0)
(1.0521 0.00541618 0)
(1.05253 0.00514792 0)
(1.05299 0.00483605 0)
(1.05347 0.0044728 0)
(1.05397 0.00403534 0)
(1.05449 0.00351904 0)
(1.05501 0.00287603 0)
(1.05553 0.00211085 0)
(1.05598 0.00115553 0)
(1.05631 5.17218e-05 0)
(1.05642 -0.00120407 0)
(1.0009 0.0112828 0)
(1.01296 0.0198408 0)
(1.024 0.0174163 0)
(1.02881 0.0150726 0)
(1.03056 0.0144606 0)
(1.03216 0.0138182 0)
(1.03385 0.0129148 0)
(1.03523 0.0121544 0)
(1.03629 0.0115937 0)
(1.03717 0.0111276 0)
(1.03796 0.0107091 0)
(1.03868 0.0103354 0)
(1.03933 0.010004 0)
(1.03992 0.00970702 0)
(1.04046 0.00943756 0)
(1.04097 0.00919095 0)
(1.04145 0.00896404 0)
(1.0419 0.00875436 0)
(1.04233 0.0085598 0)
(1.04275 0.00837856 0)
(1.04314 0.00820899 0)
(1.04353 0.00804961 0)
(1.0439 0.00789899 0)
(1.04426 0.00775582 0)
(1.04461 0.00761881 0)
(1.04496 0.00748672 0)
(1.0453 0.00735835 0)
(1.04563 0.00723251 0)
(1.04596 0.00710795 0)
(1.04629 0.00698345 0)
(1.04662 0.00685761 0)
(1.04695 0.00672905 0)
(1.04729 0.00659602 0)
(1.04763 0.00645689 0)
(1.04798 0.00630924 0)
(1.04833 0.00615096 0)
(1.0487 0.00597854 0)
(1.04908 0.00578897 0)
(1.04948 0.00557718 0)
(1.04989 0.00533805 0)
(1.05033 0.0050649 0)
(1.05078 0.00474745 0)
(1.05126 0.00437837 0)
(1.05176 0.00393589 0)
(1.05227 0.00341409 0)
(1.05279 0.00277196 0)
(1.05329 0.00200952 0)
(1.05372 0.00107608 0)
(1.05404 5.3799e-06 0)
(1.05415 -0.00119278 0)
(1.00078 0.0102085 0)
(1.01158 0.0187411 0)
(1.02201 0.016939 0)
(1.0269 0.0147079 0)
(1.02872 0.0141283 0)
(1.03028 0.013592 0)
(1.03194 0.0127587 0)
(1.03332 0.0120196 0)
(1.03438 0.0114718 0)
(1.03526 0.0110211 0)
(1.03604 0.0106152 0)
(1.03674 0.0102501 0)
(1.03738 0.00992518 0)
(1.03796 0.00963355 0)
(1.0385 0.00936847 0)
(1.039 0.00912541 0)
(1.03947 0.00890137 0)
(1.03991 0.00869403 0)
(1.04033 0.0085014 0)
(1.04074 0.00832175 0)
(1.04113 0.00815351 0)
(1.0415 0.0079952 0)
(1.04186 0.00784546 0)
(1.04222 0.00770296 0)
(1.04256 0.00756642 0)
(1.0429 0.00743462 0)
(1.04323 0.00730632 0)
(1.04355 0.00718033 0)
(1.04387 0.00705539 0)
(1.0442 0.00693024 0)
(1.04452 0.00680347 0)
(1.04484 0.00667368 0)
(1.04517 0.0065391 0)
(1.0455 0.00639803 0)
(1.04584 0.00624809 0)
(1.04619 0.00608704 0)
(1.04655 0.00591151 0)
(1.04693 0.00571823 0)
(1.04732 0.00550242 0)
(1.04772 0.0052586 0)
(1.04815 0.00498048 0)
(1.04859 0.00465766 0)
(1.04906 0.00428288 0)
(1.04954 0.00383589 0)
(1.05004 0.00330946 0)
(1.05054 0.00266894 0)
(1.05101 0.00191115 0)
(1.05141 0.000999112 0)
(1.05171 -3.87483e-05 0)
(1.05182 -0.00118493 0)
(1.00067 0.00922817 0)
(1.01032 0.0176618 0)
(1.02014 0.016451 0)
(1.02506 0.0143518 0)
(1.02696 0.0137944 0)
(1.02849 0.0133551 0)
(1.03011 0.0125964 0)
(1.03149 0.0118823 0)
(1.03256 0.0113475 0)
(1.03343 0.0109119 0)
(1.0342 0.0105193 0)
(1.0349 0.0101634 0)
(1.03553 0.00984517 0)
(1.0361 0.00955903 0)
(1.03663 0.00929849 0)
(1.03712 0.00905912 0)
(1.03758 0.00883806 0)
(1.03802 0.00863314 0)
(1.03843 0.00844252 0)
(1.03882 0.00826452 0)
(1.0392 0.00809765 0)
(1.03957 0.00794047 0)
(1.03992 0.00779163 0)
(1.04027 0.00764983 0)
(1.0406 0.0075138 0)
(1.04093 0.00738229 0)
(1.04125 0.00725407 0)
(1.04157 0.00712794 0)
(1.04188 0.0070026 0)
(1.0422 0.0068768 0)
(1.04251 0.00674909 0)
(1.04283 0.00661804 0)
(1.04315 0.00648187 0)
(1.04347 0.00633883 0)
(1.0438 0.00618656 0)
(1.04414 0.00602273 0)
(1.04449 0.00584406 0)
(1.04486 0.00564708 0)
(1.04524 0.00542725 0)
(1.04563 0.00517884 0)
(1.04605 0.00489583 0)
(1.04648 0.00456794 0)
(1.04693 0.0041878 0)
(1.04739 0.00373684 0)
(1.04787 0.0032068 0)
(1.04833 0.0025686 0)
(1.04878 0.00181719 0)
(1.04915 0.000926063 0)
(1.04942 -8.00048e-05 0)
(1.04952 -0.00117885 0)
(1.00058 0.00833711 0)
(1.00917 0.0166071 0)
(1.01838 0.0159505 0)
(1.02331 0.0140035 0)
(1.02529 0.0134609 0)
(1.02679 0.0131081 0)
(1.02838 0.0124274 0)
(1.02976 0.0117424 0)
(1.03082 0.0112206 0)
(1.03169 0.0108001 0)
(1.03246 0.0104212 0)
(1.03315 0.0100751 0)
(1.03377 0.00976384 0)
(1.03433 0.00948337 0)
(1.03485 0.00922753 0)
(1.03533 0.00899198 0)
(1.03579 0.00877402 0)
(1.03621 0.00857162 0)
(1.03662 0.00838308 0)
(1.03701 0.0082068 0)
(1.03738 0.00804135 0)
(1.03773 0.00788535 0)
(1.03808 0.00773746 0)
(1.03842 0.00759639 0)
(1.03874 0.00746089 0)
(1.03906 0.0073297 0)
(1.03938 0.00720158 0)
(1.03969 0.00707531 0)
(1.03999 0.0069496 0)
(1.0403 0.00682314 0)
(1.0406 0.00669449 0)
(1.04091 0.00656217 0)
(1.04122 0.00642442 0)
(1.04154 0.00627941 0)
(1.04186 0.00612482 0)
(1.04219 0.00595822 0)
(1.04253 0.00577642 0)
(1.04289 0.00557582 0)
(1.04326 0.00535202 0)
(1.04364 0.0050992 0)
(1.04404 0.00481146 0)
(1.04446 0.00447883 0)
(1.04489 0.00409379 0)
(1.04533 0.00363947 0)
(1.04578 0.00310688 0)
(1.04622 0.00247175 0)
(1.04663 0.00172819 0)
(1.04697 0.000857469 0)
(1.04721 -0.000117567 0)
(1.0473 -0.00117357 0)
(1.0005 0.00753029 0)
(1.00814 0.0155814 0)
(1.01674 0.0154366 0)
(1.02165 0.0136623 0)
(1.0237 0.0131295 0)
(1.02518 0.0128519 0)
(1.02673 0.0122511 0)
(1.0281 0.0115995 0)
(1.02917 0.0110914 0)
(1.03004 0.0106855 0)
(1.03079 0.0103207 0)
(1.03148 0.00998496 0)