/*--------------------------------*- C++ -*----------------------------------*\
  =========                 |
  \\      /  F ield         | OpenFOAM: The Open Source CFD Toolbox
   \\    /   O peration     | Website:  https://openfoam.org
    \\  /    A nd           | Version:  7
     \\/     M anipulation  |
\*---------------------------------------------------------------------------*/
FoamFile
{
    version     2.0;
    format      ascii;
    class       volVectorField;
    location    "0.21";
    object      U_0;
}
// * * * * * * * * * * * * * * * * * * * * * * * * * * * * * * * * * * * * * //

dimensions      [0 1 -1 0 0 0 0];

internalField   nonuniform List<vector> 
70000
(
(0.553392 0.0167229 0)
(0.25127 0.00340086 0)
(0.166219 0.00032185 0)
(0.13248 5.41424e-05 0)
(0.117297 4.5583e-05 0)
(0.107382 5.3758e-05 0)
(0.0994421 4.61236e-05 0)
(0.0930109 3.67815e-05 0)
(0.0877757 3.04632e-05 0)
(0.0834164 2.61305e-05 0)
(0.0797046 2.28257e-05 0)
(0.0764925 2.01752e-05 0)
(0.0736787 1.80097e-05 0)
(0.0711892 1.62157e-05 0)
(0.0689681 1.47092e-05 0)
(0.0669719 1.34278e-05 0)
(0.0651667 1.23249e-05 0)
(0.0635252 1.1366e-05 0)
(0.0620255 1.05236e-05 0)
(0.0606495 9.77716e-06 0)
(0.0593825 9.10941e-06 0)
(0.0582121 8.50709e-06 0)
(0.0571279 7.95861e-06 0)
(0.0561211 7.45489e-06 0)
(0.0551844 6.98711e-06 0)
(0.0543114 6.54924e-06 0)
(0.053497 6.13324e-06 0)
(0.0527364 5.73536e-06 0)
(0.0520261 5.34709e-06 0)
(0.0513626 4.967e-06 0)
(0.0507436 4.58359e-06 0)
(0.0501668 4.20047e-06 0)
(0.0496309 3.79672e-06 0)
(0.0491344 3.38707e-06 0)
(0.0486775 2.93298e-06 0)
(0.0482594 2.46472e-06 0)
(0.0478812 1.92438e-06 0)
(0.0475445 1.3408e-06 0)
(0.0472491 6.82352e-07 0)
(0.0470046 -1.51478e-07 0)
(0.0468002 -8.99218e-07 0)
(0.0466724 -2.36496e-06 0)
(0.0465692 -2.92073e-06 0)
(0.0466131 -6.13801e-06 0)
(0.0466159 -5.47747e-06 0)
(0.0469559 -1.34064e-05 0)
(0.0470572 -7.5635e-06 0)
(0.0479313 -2.93366e-05 0)
(0.0484753 1.36463e-05 0)
(0.0460685 -0.00185007 0)
(0.8849 0.0431669 0)
(0.649729 0.0201932 0)
(0.494351 0.00659746 0)
(0.403712 0.00276679 0)
(0.354803 0.00155124 0)
(0.323516 0.00113086 0)
(0.299673 0.000909675 0)
(0.280493 0.000745771 0)
(0.264796 0.000622913 0)
(0.251691 0.000532151 0)
(0.240528 0.000463246 0)
(0.230865 0.000409013 0)
(0.222396 0.000365174 0)
(0.214898 0.000329063 0)
(0.208204 0.00029887 0)
(0.202183 0.000273295 0)
(0.196734 0.000251383 0)
(0.191775 0.000232418 0)
(0.18724 0.000215852 0)
(0.183076 0.00020126 0)
(0.179237 0.000188305 0)
(0.175686 0.000176718 0)
(0.172392 0.000166279 0)
(0.169328 0.000156807 0)
(0.166473 0.000148149 0)
(0.163806 0.000140177 0)
(0.161312 0.000132776 0)
(0.158976 0.00012585 0)
(0.156787 0.000119305 0)
(0.154734 0.000113064 0)
(0.152809 0.000107035 0)
(0.151005 0.000101162 0)
(0.149317 9.53236e-05 0)
(0.147739 8.94981e-05 0)
(0.146269 8.34898e-05 0)
(0.144906 7.73486e-05 0)
(0.143649 7.07124e-05 0)
(0.142501 6.37777e-05 0)
(0.14146 5.58842e-05 0)
(0.140548 4.74149e-05 0)
(0.139735 3.73954e-05 0)
(0.139113 2.59553e-05 0)
(0.138541 1.27626e-05 0)
(0.138336 -5.01593e-06 0)
(0.137997 -2.18118e-05 0)
(0.1385 -5.7225e-05 0)
(0.138347 -7.23935e-05 0)
(0.140088 -0.000190647 0)
(0.140806 4.87615e-05 0)
(0.139968 -0.00339446 0)
(0.991238 0.0499006 0)
(0.89036 0.0307172 0)
(0.762716 0.0145959 0)
(0.656729 0.00797797 0)
(0.585425 0.00488334 0)
(0.536042 0.00346971 0)
(0.498195 0.00273431 0)
(0.467595 0.00224207 0)
(0.442297 0.00187899 0)
(0.421003 0.00160743 0)
(0.402767 0.00140001 0)
(0.386919 0.00123675 0)
(0.372986 0.00110489 0)
(0.360618 0.000996294 0)
(0.34955 0.000905491 0)
(0.339575 0.000828575 0)
(0.330531 0.000762681 0)
(0.322286 0.000705663 0)
(0.314735 0.000655878 0)
(0.307791 0.000612053 0)
(0.30138 0.00057318 0)
(0.295443 0.000538453 0)
(0.289928 0.000507217 0)
(0.284791 0.000478933 0)
(0.279996 0.000453148 0)
(0.27551 0.000429483 0)
(0.271308 0.000407606 0)
(0.267365 0.000387232 0)
(0.263661 0.000368099 0)
(0.260178 0.000349977 0)
(0.256903 0.000332627 0)
(0.253823 0.000315865 0)
(0.250928 0.00029941 0)
(0.248208 0.000283144 0)
(0.24566 0.000266627 0)
(0.243277 0.000249916 0)
(0.241058 0.00023215 0)
(0.239006 0.000213836 0)
(0.237114 0.000193146 0)
(0.235414 0.000171617 0)
(0.233858 0.000145455 0)
(0.232576 0.00011801 0)
(0.231363 8.24463e-05 0)
(0.230667 4.33204e-05 0)
(0.229772 -6.5116e-06 0)
(0.230047 -7.76081e-05 0)
(0.229392 -0.000136752 0)
(0.231313 -0.000380122 0)
(0.231541 -0.000140753 0)
(0.233321 -0.00386916 0)
(1.0156 0.0489192 0)
(1.00597 0.0358726 0)
(0.935978 0.0207889 0)
(0.852172 0.0135016 0)
(0.782257 0.00920531 0)
(0.727084 0.00677887 0)
(0.682026 0.00538129 0)
(0.644291 0.0044423 0)
(0.612293 0.00374874 0)
(0.584843 0.00322307 0)
(0.561005 0.00281691 0)
(0.540072 0.00249506 0)
(0.521516 0.002234 0)
(0.504933 0.00201829 0)
(0.49001 0.0018374 0)
(0.476499 0.0016838 0)
(0.464198 0.00155195 0)
(0.452945 0.00143767 0)
(0.442608 0.00133777 0)
(0.433074 0.00124974 0)
(0.424251 0.00117161 0)
(0.41606 0.00110179 0)
(0.408434 0.00103899 0)
(0.401318 0.000982156 0)
(0.394661 0.000930386 0)
(0.388423 0.000882936 0)
(0.382566 0.000839159 0)
(0.377059 0.000798493 0)
(0.371875 0.000760435 0)
(0.366991 0.000724531 0)
(0.362385 0.000690342 0)
(0.358041 0.000657491 0)
(0.353944 0.000625493 0)
(0.350082 0.000594079 0)
(0.346446 0.000562513 0)
(0.343028 0.000530825 0)
(0.339824 0.000497541 0)
(0.336835 0.000463567 0)
(0.334052 0.000425515 0)
(0.331508 0.000386627 0)
(0.329147 0.000338974 0)
(0.327118 0.000291224 0)
(0.325183 0.000225785 0)
(0.323848 0.000161336 0)
(0.322305 6.54408e-05 0)
(0.322078 -4.26257e-05 0)
(0.320852 -0.000166562 0)
(0.322448 -0.000525863 0)
(0.322027 -0.000408889 0)
(0.32492 -0.00398539 0)
(1.01434 0.0460024 0)
(1.04754 0.0374855 0)
(1.0246 0.0241478 0)
(0.974796 0.0175552 0)
(0.923507 0.0131184 0)
(0.87676 0.0102022 0)
(0.834625 0.00833874 0)
(0.796904 0.0070178 0)
(0.763367 0.00600812 0)
(0.733575 0.00522071 0)
(0.707017 0.00459874 0)
(0.683221 0.00409803 0)
(0.661788 0.00368712 0)
(0.642387 0.00334449 0)
(0.624743 0.00305503 0)
(0.608624 0.00280774 0)
(0.593838 0.00259438 0)
(0.580225 0.00240866 0)
(0.567648 0.00224571 0)
(0.555991 0.0021017 0)
(0.545155 0.00197356 0)
(0.535056 0.00185882 0)
(0.52562 0.00175545 0)
(0.516786 0.00166178 0)
(0.508497 0.0015764 0)
(0.500706 0.00149813 0)
(0.493373 0.00142594 0)
(0.486459 0.00135893 0)
(0.479934 0.00129632 0)
(0.473769 0.00123738 0)
(0.467942 0.00118143 0)
(0.462429 0.00112785 0)
(0.457216 0.00107594 0)
(0.452284 0.00102522 0)
(0.447624 0.000974631 0)
(0.443224 0.000924147 0)
(0.43908 0.000871626 0)
(0.435189 0.000818381 0)
(0.431541 0.000759315 0)
(0.428168 0.000699552 0)
(0.425014 0.000626547 0)
(0.422222 0.000554969 0)
(0.419563 0.000455238 0)
(0.417528 0.000361644 0)
(0.415337 0.000215051 0)
(0.41445 6.29224e-05 0)
(0.412691 -0.000132404 0)
(0.413618 -0.000599919 0)
(0.412729 -0.000662323 0)
(0.415291 -0.00403848 0)
(1.00933 0.0429137 0)
(1.05528 0.0372603 0)
(1.0587 0.0252911 0)
(1.0364 0.0197537 0)
(1.00715 0.015806 0)
(0.976124 0.0129305 0)
(0.944623 0.0109544 0)
(0.913782 0.00947262 0)
(0.884452 0.00828251 0)
(0.857017 0.00731492 0)
(0.831557 0.00652503 0)
(0.808009 0.00587272 0)
(0.786251 0.00532659 0)
(0.766142 0.00486385 0)
(0.747534 0.00446773 0)
(0.730287 0.00412562 0)
(0.714271 0.00382773 0)
(0.699369 0.00356641 0)
(0.685473 0.00333561 0)
(0.67249 0.00313045 0)
(0.660335 0.00294701 0)
(0.648936 0.00278206 0)
(0.638225 0.00263292 0)
(0.628145 0.00249735 0)
(0.618644 0.00237349 0)
(0.609675 0.0022597 0)
(0.601199 0.00215461 0)
(0.593179 0.00205697 0)
(0.585584 0.00196572 0)
(0.578383 0.00187984 0)
(0.571555 0.00179841 0)
(0.565074 0.00172056 0)
(0.558925 0.00164534 0)
(0.553088 0.00157207 0)
(0.547554 0.00149936 0)
(0.542309 0.00142707 0)
(0.537347 0.00135242 0)
(0.532664 0.00127704 0)
(0.528253 0.00119423 0)
(0.524136 0.00111076 0)
(0.520269 0.00100982 0)
(0.516775 0.000911329 0)
(0.513457 0.000775145 0)
(0.510742 0.000648203 0)
(0.507966 0.000450361 0)
(0.506377 0.000246022 0)
(0.504163 -2.13263e-05 0)
(0.504263 -0.000596978 0)
(0.503064 -0.00084351 0)
(0.504713 -0.00402863 0)
(1.00625 0.040032 0)
(1.05207 0.0363323 0)
(1.0661 0.0252195 0)
(1.05963 0.0205522 0)
(1.04692 0.0172313 0)
(1.03086 0.0146487 0)
(1.01198 0.0128125 0)
(0.991323 0.0113877 0)
(0.969936 0.0101913 0)
(0.948552 0.0091758 0)
(0.927617 0.00831564 0)
(0.907394 0.00758296 0)
(0.888028 0.00695336 0)
(0.86959 0.00640802 0)
(0.852098 0.00593245 0)
(0.835539 0.00551516 0)
(0.819882 0.00514687 0)
(0.805084 0.00482003 0)
(0.791097 0.00452842 0)
(0.777872 0.00426694 0)
(0.765361 0.00403133 0)
(0.753516 0.00381802 0)
(0.742294 0.00362402 0)
(0.731652 0.00344676 0)
(0.721553 0.00328405 0)
(0.711962 0.00313399 0)
(0.702845 0.00299494 0)
(0.694174 0.0028654 0)
(0.685921 0.00274406 0)
(0.678063 0.00262969 0)
(0.670577 0.00252114 0)
(0.663445 0.00241735 0)
(0.65665 0.00231712 0)
(0.650175 0.00221957 0)
(0.644012 0.00212301 0)
(0.638147 0.00202717 0)
(0.632576 0.00192871 0)
(0.627294 0.00182944 0)
(0.622295 0.00172131 0)
(0.617597 0.00161222 0)
(0.613167 0.00148206 0)
(0.609103 0.00135423 0)
(0.605254 0.0011812 0)
(0.601961 0.00101696 0)
(0.59871 0.000769777 0)
(0.596481 0.000507305 0)
(0.593902 0.000169179 0)
(0.593197 -0.000513837 0)
(0.591733 -0.000938188 0)
(0.592423 -0.00393134 0)
(1.00495 0.0373538 0)
(1.04728 0.0352497 0)
(1.06399 0.0246787 0)
(1.06428 0.0205774 0)
(1.06072 0.0177677 0)
(1.05481 0.0154898 0)
(1.04607 0.0138682 0)
(1.0349 0.0126083 0)
(1.02201 0.0115229 0)
(1.00801 0.0105707 0)
(0.99334 0.00973819 0)
(0.978369 0.00900813 0)
(0.963358 0.00836375 0)
(0.948503 0.00779193 0)
(0.933938 0.00728242 0)
(0.919756 0.00682676 0)
(0.906015 0.00641779 0)
(0.89275 0.00604943 0)
(0.879977 0.00571643 0)
(0.8677 0.00541434 0)
(0.855916 0.00513929 0)
(0.844614 0.00488796 0)
(0.833782 0.00465746 0)
(0.823402 0.00444528 0)
(0.813457 0.00424921 0)
(0.803931 0.00406729 0)
(0.794806 0.00389781 0)
(0.786063 0.00373917 0)
(0.777688 0.00358996 0)
(0.769664 0.00344883 0)
(0.761976 0.00331449 0)
(0.754612 0.00318573 0)
(0.747561 0.00306119 0)
(0.740809 0.00293982 0)
(0.734352 0.0028197 0)
(0.728179 0.00270043 0)
(0.722289 0.00257819 0)
(0.716677 0.00245483 0)
(0.711342 0.00232133 0)
(0.706296 0.00218608 0)
(0.701522 0.00202688 0)
(0.69709 0.00186852 0)
(0.692897 0.00165977 0)
(0.689199 0.0014556 0)
(0.685627 0.00116234 0)
(0.682908 0.00083748 0)
(0.680069 0.000432967 0)
(0.678702 -0.000352064 0)
(0.676992 -0.000946132 0)
(0.676854 -0.00374811 0)
(1.0044 0.0348056 0)
(1.04324 0.034176 0)
(1.05995 0.0240369 0)
(1.06231 0.0202825 0)
(1.06254 0.0178303 0)
(1.06186 0.0157694 0)
(1.05931 0.0143211 0)
(1.05479 0.0132264 0)
(1.04859 0.0122834 0)
(1.04105 0.0114434 0)
(1.03242 0.0106954 0)
(1.02298 0.0100263 0)
(1.01295 0.00942306 0)
(1.00253 0.00887637 0)
(0.991884 0.00837927 0)
(0.981138 0.00792618 0)
(0.970398 0.00751232 0)
(0.959744 0.0071335 0)
(0.949237 0.00678599 0)
(0.938922 0.00646646 0)
(0.928831 0.00617195 0)
(0.918989 0.0058998 0)
(0.90941 0.00564765 0)
(0.900104 0.00541334 0)
(0.891077 0.00519495 0)
(0.882331 0.00499072 0)
(0.873866 0.00479906 0)
(0.865678 0.00461847 0)
(0.857766 0.00444759 0)
(0.850124 0.00428506 0)
(0.842748 0.0041296 0)
(0.835633 0.00397993 0)
(0.828775 0.00383462 0)
(0.82217 0.00369252 0)
(0.815816 0.00355156 0)
(0.809707 0.00341118 0)
(0.803848 0.00326731 0)
(0.798234 0.00312163 0)
(0.792872 0.00296456 0)
(0.78777 0.00280441 0)
(0.782922 0.002618 0)
(0.778379 0.00242968 0)
(0.774077 0.00218772 0)
(0.770203 0.00194319 0)
(0.766506 0.00160777 0)
(0.763508 0.00122028 0)
(0.760549 0.000752813 0)
(0.758724 -0.000124514 0)
(0.756829 -0.000874571 0)
(0.756045 -0.00349257 0)
(1.00402 0.0323653 0)
(1.03991 0.0331253 0)
(1.05618 0.023413 0)
(1.05895 0.0198933 0)
(1.06026 0.0176986 0)
(1.06163 0.0157721 0)
(1.06202 0.0144247 0)
(1.06115 0.0134448 0)
(1.05912 0.0126178 0)
(1.05601 0.0118837 0)
(1.05195 0.0112288 0)
(1.04702 0.0106397 0)
(1.04136 0.0101033 0)
(1.0351 0.00961089 0)
(1.02836 0.00915671 0)
(1.02124 0.00873656 0)
(1.01384 0.00834706 0)
(1.00625 0.00798535 0)
(0.998536 0.0076489 0)
(0.990759 0.00733544 0)
(0.982969 0.00704291 0)
(0.975208 0.00676939 0)
(0.967507 0.00651314 0)
(0.959896 0.00627254 0)
(0.952394 0.00604608 0)
(0.945021 0.00583234 0)
(0.937789 0.00563002 0)
(0.93071 0.00543783 0)
(0.923793 0.00525457 0)
(0.917043 0.005079 0)
(0.910466 0.00490993 0)
(0.904066 0.00474612 0)
(0.897847 0.00458616 0)
(0.891811 0.00442887 0)
(0.885963 0.00427209 0)
(0.880303 0.00411519 0)
(0.874839 0.00395389 0)
(0.869573 0.00378969 0)
(0.864513 0.00361274 0)
(0.859668 0.00343084 0)
(0.855042 0.00322075 0)
(0.850674 0.003005 0)
(0.846526 0.0027338 0)
(0.842734 0.00245085 0)
(0.839137 0.00207801 0)
(0.836098 0.00163132 0)
(0.833193 0.00110447 0)
(0.831143 0.000150985 0)
(0.829171 -0.000738211 0)
(0.827946 -0.00318368 0)
(1.00364 0.0300247 0)
(1.03693 0.0320772 0)
(1.05283 0.0228225 0)
(1.05571 0.019487 0)
(1.05717 0.0175052 0)
(1.05909 0.0156704 0)
(1.06055 0.0143702 0)
(1.06126 0.0134532 0)
(1.06129 0.0126998 0)
(1.06066 0.0120399 0)
(1.05938 0.0114575 0)
(1.05745 0.0109374 0)
(1.05491 0.0104652 0)
(1.05182 0.0100311 0)
(1.04822 0.00962873 0)
(1.04419 0.00925388 0)
(1.03978 0.00890337 0)
(1.03506 0.00857474 0)
(1.03007 0.00826597 0)
(1.02488 0.0079753 0)
(1.01952 0.00770119 0)
(1.01403 0.00744223 0)
(1.00846 0.00719715 0)
(1.00283 0.00696472 0)
(0.997173 0.00674382 0)
(0.991514 0.00653336 0)
(0.985871 0.0063323 0)
(0.980265 0.0061396 0)
(0.97471 0.00595427 0)
(0.969221 0.00577522 0)
(0.96381 0.00560141 0)
(0.958487 0.00543167 0)
(0.953263 0.00526467 0)
(0.948144 0.00509923 0)
(0.943142 0.00493321 0)
(0.938262 0.00476588 0)
(0.933515 0.0045929 0)
(0.928906 0.00441553 0)
(0.924449 0.00422386 0)
(0.920153 0.00402494 0)
(0.916027 0.00379613 0)
(0.912104 0.00355714 0)
(0.908364 0.00326193 0)
(0.904908 0.00294466 0)
(0.901635 0.00254004 0)
(0.898794 0.00204056 0)
(0.896128 0.00145959 0)
(0.894083 0.000448936 0)
(0.892174 -0.000559097 0)
(0.890723 -0.00284464 0)
(1.00327 0.0277847 0)
(1.0341 0.0310179 0)
(1.04972 0.0222583 0)
(1.05275 0.0190785 0)
(1.05417 0.0172929 0)
(1.05614 0.0155395 0)
(1.05788 0.0142611 0)
(1.05912 0.0133743 0)
(1.05995 0.0126614 0)
(1.06043 0.012045 0)
(1.06054 0.0115076 0)
(1.06025 0.0110341 0)
(1.05956 0.010609 0)
(1.05847 0.0102211 0)
(1.057 0.0098632 0)
(1.05516 0.00953032 0)
(1.05299 0.00921888 0)
(1.0505 0.00892615 0)
(1.04774 0.00865 0)
(1.04474 0.00838869 0)
(1.04151 0.00814076 0)
(1.03809 0.00790495 0)
(1.03452 0.00768013 0)
(1.03081 0.00746527 0)
(1.02698 0.00725942 0)
(1.02307 0.00706167 0)
(1.0191 0.00687117 0)
(1.01507 0.00668702 0)
(1.01102 0.00650839 0)
(1.00694 0.00633432 0)
(1.00287 0.00616386 0)
(0.998817 0.00599596 0)
(0.994786 0.00582931 0)
(0.990793 0.0056628 0)
(0.98685 0.00549426 0)
(0.982966 0.00532293 0)
(0.979153 0.00514444 0)
(0.975422 0.00495979 0)
(0.971785 0.0047592 0)
(0.968256 0.00454872 0)
(0.964843 0.00430687 0)
(0.961578 0.00404988 0)
(0.958451 0.00373658 0)
(0.955535 0.00339061 0)
(0.952778 0.00296039 0)
(0.950336 0.00241678 0)
(0.948073 0.00178871 0)
(0.946237 0.000738419 0)
(0.944532 -0.000363952 0)
(0.943056 -0.00250094 0)
(1.00292 0.0256487 0)
(1.03139 0.0299428 0)
(1.04672 0.0217162 0)
(1.04996 0.018668 0)
(1.05135 0.0170685 0)
(1.05329 0.0154015 0)
(1.05506 0.0141383 0)
(1.05641 0.0132669 0)
(1.05748 0.0125771 0)
(1.05835 0.0119846 0)
(1.05902 0.0114718 0)
(1.05947 0.011025 0)
(1.05968 0.0106285 0)
(1.05966 0.0102706 0)
(1.05938 0.00994333 0)
(1.05887 0.00964122 0)
(1.05811 0.00936017 0)
(1.05712 0.00909706 0)
(1.05591 0.00884942 0)
(1.05448 0.00861528 0)
(1.05286 0.008393 0)
(1.05105 0.00818119 0)
(1.04908 0.00797866 0)
(1.04695 0.00778434 0)
(1.04469 0.00759727 0)
(1.04231 0.00741657 0)
(1.03982 0.0072414 0)
(1.03724 0.00707091 0)
(1.03459 0.00690431 0)
(1.03188 0.00674069 0)
(1.02912 0.00657913 0)
(1.02632 0.00641863 0)
(1.0235 0.00625788 0)
(1.02067 0.0060958 0)
(1.01783 0.00593019 0)
(1.01501 0.00576025 0)
(1.01222 0.00558157 0)
(1.00945 0.00539487 0)
(1.00674 0.00519064 0)
(1.00408 0.00497376 0)
(1.00149 0.0047243 0)
(0.999002 0.00445459 0)
(0.996608 0.004129 0)
(0.99436 0.00376055 0)
(0.992238 0.00331082 0)
(0.990333 0.0027328 0)
(0.988585 0.00206567 0)
(0.987109 0.000992772 0)
(0.985722 -0.00017849 0)
(0.984385 -0.00217658 0)
(1.0026 0.0236193 0)
(1.0288 0.0288507 0)
(1.0438 0.021195 0)
(1.04727 0.0182554 0)
(1.04867 0.0168306 0)
(1.05057 0.0152588 0)
(1.05233 0.0140129 0)
(1.05369 0.0131523 0)
(1.0548 0.0124788 0)
(1.05576 0.0119014 0)
(1.0566 0.0114024 0)
(1.05731 0.0109698 0)
(1.05789 0.010589 0)
(1.05833 0.0102481 0)
(1.05864 0.00993889 0)
(1.05879 0.00965579 0)
(1.0588 0.00939446 0)
(1.05866 0.0091515 0)
(1.05837 0.00892422 0)
(1.05793 0.00871041 0)
(1.05735 0.00850821 0)
(1.05662 0.00831606 0)
(1.05576 0.0081326 0)
(1.05477 0.00795662 0)
(1.05366 0.00778706 0)
(1.05244 0.00762293 0)
(1.05111 0.00746333 0)
(1.04969 0.00730736 0)
(1.04818 0.00715417 0)
(1.0466 0.00700283 0)
(1.04495 0.00685237 0)
(1.04325 0.00670178 0)
(1.0415 0.0065497 0)
(1.03971 0.00639503 0)
(1.03789 0.00623551 0)
(1.03606 0.00607028 0)
(1.03422 0.0058949 0)
(1.03238 0.00570975 0)
(1.03056 0.00550569 0)
(1.02876 0.00528632 0)
(1.027 0.00503349 0)
(1.0253 0.00475548 0)
(1.02366 0.00442237 0)
(1.02211 0.00403725 0)
(1.02066 0.00357327 0)
(1.01934 0.00297036 0)
(1.01815 0.00227233 0)
(1.01711 0.00119174 0)
(1.0161 -1.8224e-05 0)
(1.01502 -0.00189157 0)
(1.0023 0.0216984 0)
(1.02634 0.0277425 0)
(1.04097 0.0206931 0)
(1.04466 0.017842 0)
(1.04608 0.0165778 0)
(1.04795 0.0151101 0)
(1.04971 0.013886 0)
(1.05107 0.0130353 0)
(1.05216 0.0123764 0)
(1.05313 0.0118115 0)
(1.054 0.0113221 0)
(1.05478 0.0108982 0)
(1.05547 0.0105262 0)
(1.05608 0.0101946 0)
(1.0566 0.00989534 0)
(1.05704 0.00962279 0)
(1.0574 0.00937269 0)
(1.05767 0.00914161 0)
(1.05785 0.00892678 0)
(1.05794 0.00872589 0)
(1.05794 0.00853696 0)
(1.05784 0.0083583 0)
(1.05766 0.00818842 0)
(1.05738 0.00802599 0)
(1.05701 0.00786983 0)
(1.05656 0.00771882 0)
(1.05602 0.00757197 0)
(1.05541 0.00742828 0)
(1.05473 0.0072868 0)
(1.05398 0.00714655 0)
(1.05317 0.00700645 0)
(1.0523 0.00686545 0)
(1.05138 0.0067221 0)
(1.05042 0.00657526 0)
(1.04943 0.00642256 0)
(1.04841 0.00626304 0)
(1.04737 0.00609228 0)
(1.04632 0.00591024 0)
(1.04526 0.00570825 0)
(1.04421 0.00548851 0)
(1.04318 0.00523483 0)
(1.04218 0.00495149 0)
(1.04122 0.00461401 0)
(1.04032 0.00421687 0)
(1.03948 0.00374255 0)
(1.03873 0.00312295 0)
(1.03807 0.0024016 0)
(1.03747 0.00132587 0)
(1.03685 0.00010112 0)
(1.03606 -0.00165975 0)
(1.00203 0.0198868 0)
(1.02402 0.0266212 0)
(1.03823 0.0202073 0)
(1.04214 0.01743 0)
(1.04359 0.0163102 0)
(1.04542 0.0149538 0)
(1.04718 0.0137569 0)
(1.04854 0.0129162 0)
(1.04962 0.0122718 0)
(1.05058 0.0117195 0)
(1.05144 0.0112387 0)
(1.05222 0.0108216 0)
(1.05293 0.0104557 0)
(1.05358 0.01013 0)
(1.05417 0.00983652 0)
(1.0547 0.00956986 0)
(1.05519 0.00932588 0)
(1.05563 0.00910128 0)
(1.05601 0.00889332 0)
(1.05634 0.0086997 0)
(1.05662 0.00851846 0)
(1.05684 0.00834784 0)
(1.057 0.00818631 0)
(1.05711 0.00803246 0)
(1.05717 0.00788503 0)
(1.05716 0.00774283 0)
(1.0571 0.00760477 0)
(1.05699 0.00746978 0)
(1.05683 0.00733681 0)
(1.05662 0.0072048 0)
(1.05636 0.00707259 0)
(1.05606 0.00693906 0)
(1.05572 0.00680266 0)
(1.05535 0.00666217 0)
(1.05494 0.00651516 0)
(1.05452 0.00636051 0)
(1.05407 0.00619386 0)
(1.05361 0.00601471 0)
(1.05314 0.0058149 0)
(1.05268 0.00559525 0)
(1.05222 0.0053415 0)
(1.05179 0.00505425 0)
(1.05138 0.00471385 0)
(1.051 0.00430786 0)
(1.05068 0.00382559 0)
(1.0504 0.00319561 0)
(1.05018 0.00245743 0)
(1.04997 0.00139543 0)
(1.04969 0.000170382 0)
(1.04918 -0.00148455 0)
(1.00179 0.0181846 0)
(1.02184 0.0254907 0)
(1.0356 0.0197339 0)
(1.0397 0.017021 0)
(1.04118 0.0160286 0)
(1.04298 0.0147892 0)
(1.04474 0.0136254 0)
(1.0461 0.012795 0)
(1.04717 0.0121652 0)
(1.04811 0.0116259 0)
(1.04896 0.0111539 0)
(1.04973 0.0107433 0)
(1.05043 0.0103829 0)
(1.05108 0.0100619 0)
(1.05168 0.00977263 0)
(1.05223 0.00950983 0)
(1.05275 0.00926955 0)
(1.05324 0.00904862 0)
(1.05369 0.00884442 0)
(1.05411 0.00865472 0)
(1.0545 0.00847761 0)
(1.05486 0.00831135 0)
(1.05518 0.00815439 0)
(1.05547 0.00800534 0)
(1.05573 0.00786288 0)
(1.05595 0.0077258 0)
(1.05614 0.00759295 0)
(1.0563 0.0074632 0)
(1.05643 0.00733544 0)
(1.05652 0.00720856 0)
(1.05659 0.00708132 0)
(1.05663 0.00695253 0)
(1.05665 0.00682058 0)
(1.05664 0.00668416 0)
(1.05662 0.00654079 0)
(1.05658 0.00638918 0)
(1.05652 0.00622506 0)
(1.05646 0.00604745 0)
(1.0564 0.00584878 0)
(1.05634 0.00562848 0)
(1.05629 0.00537416 0)
(1.05625 0.00508319 0)
(1.05624 0.00473997 0)
(1.05625 0.00432692 0)
(1.0563 0.00383779 0)
(1.05638 0.0032018 0)
(1.05649 0.00245194 0)
(1.05658 0.00140898 0)
(1.05656 0.000196541 0)
(1.0563 -0.00136077 0)
(1.00157 0.0165916 0)
(1.01979 0.024355 0)
(1.03306 0.0192688 0)
(1.03735 0.0166168 0)
(1.03887 0.0157341 0)
(1.04063 0.0146155 0)
(1.04238 0.0134908 0)
(1.04375 0.0126714 0)
(1.04482 0.0120561 0)
(1.04574 0.0115305 0)
(1.04658 0.011068 0)
(1.04733 0.010664 0)
(1.04802 0.010309 0)
(1.04866 0.00999259 0)
(1.04925 0.00970711 0)
(1.0498 0.00944752 0)
(1.05032 0.00921004 0)
(1.05081 0.00899164 0)
(1.05128 0.00878981 0)
(1.05172 0.00860242 0)
(1.05214 0.0084276 0)
(1.05255 0.00826368 0)
(1.05293 0.00810913 0)
(1.05329 0.00796256 0)
(1.05363 0.00782267 0)
(1.05395 0.00768822 0)
(1.05425 0.00755803 0)
(1.05453 0.00743097 0)
(1.0548 0.00730588 0)
(1.05505 0.0071816 0)
(1.05528 0.00705684 0)
(1.0555 0.00693038 0)
(1.05571 0.00680054 0)
(1.05591 0.00666595 0)
(1.0561 0.0065241 0)
(1.05628 0.00637353 0)
(1.05646 0.00621009 0)
(1.05664 0.00603233 0)
(1.05682 0.00583328 0)
(1.05701 0.00561109 0)
(1.05722 0.00535506 0)
(1.05744 0.00505989 0)
(1.05768 0.00471312 0)
(1.05794 0.00429385 0)
(1.05824 0.00379816 0)
(1.05855 0.00315889 0)
(1.05888 0.00240137 0)
(1.05916 0.00138027 0)
(1.05933 0.000189237 0)
(1.05924 -0.00127908 0)
(1.00137 0.0151069 0)
(1.01788 0.0232179 0)
(1.03063 0.018808 0)
(1.03509 0.0162189 0)
(1.03665 0.0154283 0)
(1.03837 0.014432 0)
(1.04011 0.0133531 0)
(1.04148 0.0125456 0)
(1.04255 0.0119445 0)
(1.04346 0.0114332 0)
(1.04429 0.0109807 0)
(1.04503 0.0105838 0)
(1.04571 0.0102344 0)
(1.04633 0.00992253 0)
(1.04691 0.00964086 0)
(1.04745 0.00938438 0)
(1.04796 0.00914948 0)
(1.04844 0.00893326 0)
(1.04891 0.00873332 0)
(1.04935 0.00854761 0)
(1.04977 0.00837433 0)
(1.05018 0.00821184 0)
(1.05057 0.00805867 0)
(1.05095 0.00791342 0)
(1.05132 0.00777481 0)
(1.05167 0.0076416 0)
(1.05201 0.00751262 0)
(1.05235 0.00738669 0)
(1.05267 0.00726264 0)
(1.05298 0.0071393 0)
(1.05329 0.00701534 0)
(1.05359 0.0068895 0)
(1.05389 0.00676005 0)
(1.05418 0.00662558 0)
(1.05448 0.00648356 0)
(1.05477 0.00633238 0)
(1.05507 0.00616804 0)
(1.05538 0.00598863 0)
(1.05569 0.00578776 0)
(1.05602 0.00556248 0)
(1.05636 0.00530351 0)
(1.05672 0.00500347 0)
(1.05711 0.00465224 0)
(1.05752 0.00422708 0)
(1.05795 0.00372482 0)
(1.0584 0.00308393 0)
(1.05885 0.00232193 0)
(1.05925 0.00132373 0)
(1.05952 0.000159835 0)
(1.05954 -0.00122825 0)
(1.0012 0.0137288 0)
(1.01611 0.0220837 0)
(1.02831 0.018348 0)
(1.03291 0.0158284 0)
(1.03453 0.0151129 0)
(1.03621 0.0142383 0)
(1.03794 0.0132116 0)
(1.03931 0.0124176 0)
(1.04037 0.0118303 0)
(1.04127 0.0113338 0)
(1.04209 0.010892 0)
(1.04282 0.0105024 0)
(1.04349 0.0101588 0)
(1.0441 0.00985175 0)
(1.04466 0.009574 0)
(1.04519 0.0093207 0)
(1.04569 0.00908839 0)
(1.04617 0.00887431 0)
(1.04662 0.00867616 0)
(1.04705 0.00849196 0)
(1.04747 0.00831997 0)
(1.04787 0.0081586 0)
(1.04826 0.00800639 0)
(1.04864 0.00786199 0)
(1.049 0.0077241 0)
(1.04936 0.0075915 0)
(1.04971 0.00746299 0)
(1.05006 0.00733741 0)
(1.0504 0.00721355 0)
(1.05073 0.00709024 0)
(1.05106 0.0069661 0)
(1.05139 0.00683985 0)
(1.05172 0.00670975 0)
(1.05205 0.0065743 0)
(1.05239 0.00643103 0)
(1.05273 0.00627813 0)
(1.05308 0.00611179 0)
(1.05345 0.00592968 0)
(1.05382 0.00572592 0)
(1.05421 0.00549666 0)
(1.05462 0.00523374 0)
(1.05505 0.00492835 0)
(1.05551 0.00457187 0)
(1.05598 0.00414103 0)
(1.05648 0.0036323 0)
(1.05699 0.0029908 0)
(1.05749 0.00222704 0)
(1.05794 0.0012517 0)
(1.05826 0.000118442 0)
(1.05834 -0.0011978 0)
(1.00104 0.0124551 0)
(1.01447 0.0209566 0)
(1.0261 0.0178851 0)
(1.03082 0.0154462 0)
(1.0325 0.0147897 0)
(1.03414 0.0140339 0)
(1.03585 0.0130658 0)
(1.03722 0.0122874 0)
(1.03828 0.0117136 0)
(1.03918 0.0112322 0)
(1.03998 0.0108017 0)
(1.0407 0.0104199 0)
(1.04136 0.0100822 0)
(1.04196 0.00978017 0)
(1.04251 0.00950649 0)
(1.04303 0.00925648 0)
(1.04352 0.00902684 0)
(1.04398 0.00881495 0)
(1.04443 0.0086186 0)
(1.04485 0.0084359 0)
(1.04526 0.00826516 0)
(1.04565 0.00810484 0)
(1.04603 0.00795349 0)
(1.0464 0.00780978 0)
(1.04676 0.00767241 0)
(1.04711 0.00754017 0)
(1.04746 0.00741186 0)
(1.0478 0.00728628 0)
(1.04814 0.00716223 0)
(1.04847 0.0070385 0)
(1.04881 0.00691372 0)
(1.04914 0.00678655 0)
(1.04948 0.00665524 0)
(1.04982 0.00651824 0)
(1.05017 0.0063731 0)
(1.05053 0.00621786 0)
(1.05089 0.00604887 0)
(1.05127 0.00586343 0)
(1.05167 0.00565612 0)
(1.05208 0.00542237 0)
(1.05251 0.00515489 0)
(1.05297 0.00484393 0)
(1.05344 0.00448173 0)
(1.05394 0.0040455 0)
(1.05446 0.00353063 0)
(1.05499 0.00288933 0)
(1.0555 0.00212615 0)
(1.05595 0.00117324 0)
(1.05628 7.24062e-05 0)
(1.05638 -0.00117963 0)
(1.0009 0.0112828 0)
(1.01296 0.0198409 0)
(1.024 0.0174165 0)
(1.02881 0.0150728 0)
(1.03056 0.0144609 0)
(1.03216 0.0138186 0)
(1.03385 0.0129152 0)
(1.03522 0.0121549 0)
(1.03629 0.0115943 0)
(1.03717 0.0111282 0)
(1.03796 0.0107097 0)
(1.03868 0.0103361 0)
(1.03932 0.0100046 0)
(1.03991 0.0097077 0)
(1.04046 0.00943824 0)
(1.04097 0.00919165 0)
(1.04145 0.00896478 0)
(1.0419 0.00875515 0)
(1.04233 0.00856067 0)
(1.04274 0.00837952 0)
(1.04314 0.00821005 0)
(1.04352 0.00805078 0)
(1.04389 0.00790028 0)
(1.04425 0.00775723 0)
(1.04461 0.00762035 0)
(1.04495 0.0074884 0)
(1.04529 0.00736018 0)
(1.04562 0.00723449 0)
(1.04595 0.00711011 0)
(1.04628 0.0069858 0)
(1.04661 0.00686016 0)
(1.04694 0.00673184 0)
(1.04728 0.00659909 0)
(1.04762 0.00646026 0)
(1.04796 0.00631295 0)
(1.04832 0.00615507 0)
(1.04868 0.00598311 0)
(1.04906 0.00579407 0)
(1.04946 0.00558288 0)
(1.04987 0.00534445 0)
(1.05031 0.00507209 0)
(1.05076 0.00475558 0)
(1.05124 0.00438755 0)
(1.05174 0.00394632 0)
(1.05225 0.00342597 0)
(1.05276 0.00278555 0)
(1.05326 0.00202512 0)
(1.05369 0.00109408 0)
(1.05401 2.61741e-05 0)
(1.05412 -0.00116815 0)
(1.00078 0.0102086 0)
(1.01158 0.0187412 0)
(1.02201 0.0169392 0)
(1.0269 0.0147081 0)
(1.02872 0.0141285 0)
(1.03028 0.0135923 0)
(1.03193 0.0127591 0)
(1.03332 0.0120201 0)
(1.03438 0.0114724 0)
(1.03526 0.0110217 0)
(1.03604 0.0106159 0)
(1.03674 0.0102509 0)
(1.03738 0.00992589 0)
(1.03796 0.00963427 0)
(1.0385 0.00936919 0)
(1.039 0.00912615 0)
(1.03946 0.00890215 0)
(1.03991 0.00869486 0)
(1.04033 0.00850232 0)
(1.04073 0.00832276 0)
(1.04112 0.00815462 0)
(1.0415 0.00799644 0)
(1.04186 0.00784682 0)
(1.04221 0.00770445 0)
(1.04255 0.00756805 0)
(1.04289 0.00743639 0)
(1.04322 0.00730824 0)
(1.04354 0.00718241 0)
(1.04387 0.00705765 0)
(1.04419 0.0069327 0)
(1.04451 0.00680615 0)
(1.04483 0.0066766 0)
(1.04516 0.00654229 0)
(1.04549 0.00640154 0)
(1.04583 0.00625195 0)
(1.04618 0.00609132 0)
(1.04654 0.00591626 0)
(1.04691 0.00572351 0)
(1.0473 0.00550832 0)
(1.0477 0.0052652 0)
(1.04813 0.0049879 0)
(1.04857 0.00466602 0)
(1.04904 0.00429232 0)
(1.04952 0.00384659 0)
(1.05002 0.00332162 0)
(1.05051 0.00268281 0)
(1.05098 0.00192703 0)
(1.05139 0.0010174 0)
(1.05168 -1.77337e-05 0)
(1.05179 -0.00116016 0)
(1.00067 0.00922822 0)
(1.01032 0.0176619 0)
(1.02014 0.0164512 0)
(1.02506 0.014352 0)
(1.02696 0.0137947 0)
(1.02849 0.0133555 0)
(1.03011 0.0125969 0)
(1.03149 0.0118829 0)
(1.03256 0.0113481 0)
(1.03343 0.0109126 0)
(1.0342 0.01052 0)
(1.0349 0.0101642 0)
(1.03553 0.00984593 0)
(1.0361 0.00955979 0)
(1.03663 0.00929925 0)
(1.03712 0.00905989 0)
(1.03758 0.00883887 0)
(1.03801 0.00863402 0)
(1.03843 0.00844348 0)
(1.03882 0.00826558 0)
(1.0392 0.00809882 0)
(1.03957 0.00794176 0)
(1.03992 0.00779306 0)
(1.04026 0.00765139 0)
(1.0406 0.0075155 0)
(1.04092 0.00738414 0)
(1.04125 0.00725609 0)
(1.04156 0.00713012 0)
(1.04188 0.00700497 0)
(1.04219 0.00687937 0)
(1.0425 0.00675189 0)
(1.04282 0.00662108 0)
(1.04313 0.0064852 0)
(1.04346 0.00634248 0)
(1.04379 0.00619058 0)
(1.04413 0.00602717 0)
(1.04448 0.00584897 0)
(1.04484 0.00565255 0)
(1.04522 0.00543334 0)
(1.04562 0.00518566 0)
(1.04603 0.00490347 0)
(1.04646 0.00457654 0)
(1.04691 0.00419749 0)
(1.04737 0.00374781 0)
(1.04784 0.00321923 0)
(1.04831 0.00258276 0)
(1.04875 0.00183335 0)
(1.04912 0.000944617 0)
(1.04939 -5.86134e-05 0)
(1.04949 -0.00115397 0)
(1.00058 0.00833715 0)
(1.00917 0.0166072 0)
(1.01838 0.0159507 0)
(1.02331 0.0140038 0)
(1.02529 0.0134612 0)
(1.02679 0.0131085 0)
(1.02838 0.0124279 0)
(1.02976 0.011743 0)
(1.03082 0.0112213 0)
(1.03169 0.0108008 0)
(1.03245 0.0104219 0)
(1.03314 0.0100759 0)
(1.03377 0.00976465 0)
(1.03433 0.00948416 0)
(1.03485 0.00922833 0)
(1.03533 0.0089928 0)
(1.03578 0.00877487 0)
(1.03621 0.00857254 0)
(1.03661 0.00838408 0)
(1.037 0.00820791 0)
(1.03737 0.00804258 0)
(1.03773 0.0078867 0)
(1.03808 0.00773895 0)
(1.03841 0.00759803 0)
(1.03874 0.00746268 0)
(1.03906 0.00733164 0)
(1.03937 0.0072037 0)
(1.03968 0.0070776 0)
(1.03998 0.00695208 0)
(1.04029 0.00682583 0)
(1.04059 0.00669741 0)
(1.0409 0.00656535 0)
(1.04121 0.00642788 0)
(1.04153 0.0062832 0)
(1.04185 0.00612899 0)
(1.04218 0.00596282 0)
(1.04252 0.00578151 0)
(1.04287 0.00558148 0)
(1.04324 0.00535832 0)
(1.04362 0.00510623 0)
(1.04402 0.00481933 0)
(1.04444 0.00448768 0)
(1.04487 0.00410374 0)
(1.04531 0.00365071 0)
(1.04576 0.00311959 0)
(1.04619 0.00248619 0)
(1.0466 0.00174462 0)
(1.04694 0.000876275 0)
(1.04719 -9.59419e-05 0)
(1.04727 -0.00114864 0)
(1.0005 0.00753033 0)
(1.00814 0.0155815 0)
(1.01674 0.0154368 0)
(1.02165 0.0136625 0)
(1.0237 0.0131298 0)
(1.02518 0.0128523 0)
(1.02673 0.0122516 0)
(1.0281 0.0116001 0)
(1.02917 0.0110921 0)
(1.03004 0.0106863 0)
(1.03079 0.0103216 0)
(1.03147 0.00998581 0)