/*--------------------------------*- C++ -*----------------------------------*\
  =========                 |
  \\      /  F ield         | OpenFOAM: The Open Source CFD Toolbox
   \\    /   O peration     | Website:  https://openfoam.org
    \\  /    A nd           | Version:  7
     \\/     M anipulation  |
\*---------------------------------------------------------------------------*/
FoamFile
{
    version     2.0;
    format      ascii;
    class       volVectorField;
    location    "0.21";
    object      wallShearStress;
}
// * * * * * * * * * * * * * * * * * * * * * * * * * * * * * * * * * * * * * //

dimensions      [0 2 -2 0 0 0 0];

internalField   uniform (0 0 0);

boundaryField
{
    velocityInlet
    {
        type            calculated;
        value           uniform (0 0 0);
    }
    pressureOutlet
    {
        type            calculated;
        value           uniform (0 0 0);
    }
    fixedWalls
    {
        type            calculated;
        value           nonuniform List<vector> 
100
(
(-0.0208482 -0.00378136 0)
(-0.0111685 -0.00115382 0)
(-0.00764723 -0.000165556 0)
(-0.00696557 5.33235e-05 0)
(-0.00662907 1.14663e-06 0)
(-0.00631712 -2.41791e-05 0)
(-0.00602603 -2.25483e-05 0)
(-0.00575923 -2.0601e-05 0)
(-0.00549814 -2.30897e-05 0)
(-0.00522086 -2.87815e-05 0)
(-0.00491773 -3.55916e-05 0)
(-0.00459457 -4.10454e-05 0)
(-0.00427311 -4.221e-05 0)
(-0.0039882 -3.68338e-05 0)
(-0.00377693 -2.56343e-05 0)
(-0.00366229 -1.17707e-05 0)
(-0.00364093 1.39174e-06 0)
(-0.00368568 1.07043e-05 0)
(-0.00375993 1.43977e-05 0)
(-0.00383189 1.38871e-05 0)
(-0.00388118 1.14217e-05 0)
(-0.00389572 7.43684e-06 0)
(-0.00386534 3.79541e-07 0)
(-0.00378616 -7.5633e-06 0)
(-0.00367996 -1.09846e-05 0)
(-0.00361143 -3.25272e-06 0)
(-0.00366842 2.0044e-05 0)
(-0.0038663 4.29725e-05 0)
(-0.00402437 3.95147e-05 0)
(-0.00379832 -3.16247e-05 0)
(-0.00299175 -0.000117961 0)
(-0.00189632 -0.000147125 0)
(-0.00109913 -9.32182e-05 0)
(-0.000935987 -1.54114e-05 0)
(-0.00128132 4.21675e-05 0)
(-0.00180206 5.71051e-05 0)
(-0.00226201 4.6388e-05 0)
(-0.00257887 3.0771e-05 0)
(-0.00276148 1.80443e-05 0)
(-0.00284425 9.04341e-06 0)
(-0.00285961 3.17391e-06 0)
(-0.00283388 -8.6132e-07 0)
(-0.0027869 -2.48816e-06 0)
(-0.0027313 -2.74254e-06 0)
(-0.00266871 -3.27887e-06 0)
(-0.00259231 -5.30484e-06 0)
(-0.00249725 -8.36027e-06 0)
(-0.00239302 -1.03259e-05 0)
(-0.00230809 -8.70023e-06 0)
(-0.00228336 -2.77874e-06 0)
(-0.00236017 9.77101e-06 0)
(-0.00256259 2.58001e-05 0)
(-0.00286776 3.91667e-05 0)
(-0.00318529 4.13417e-05 0)
(-0.00338092 2.94106e-05 0)
(-0.00333005 1.69449e-06 0)
(-0.00296555 -3.46662e-05 0)
(-0.00230109 -7.06016e-05 0)
(-0.00143957 -9.47012e-05 0)
(-0.000569209 -9.52695e-05 0)
(8.40481e-05 -6.95899e-05 0)
(0.000347515 -2.76072e-05 0)
(0.000189611 1.79639e-05 0)
(-0.00028141 4.5474e-05 0)
(-0.000887954 5.94575e-05 0)
(-0.00147623 5.61456e-05 0)
(-0.00195906 4.50922e-05 0)
(-0.00230208 3.19424e-05 0)
(-0.00250371 1.92759e-05 0)
(-0.00257201 8.40038e-06 0)
(-0.00251679 -3.38866e-06 0)
(-0.00235327 -1.34779e-05 0)
(-0.00210661 -2.13174e-05 0)
(-0.00181263 -2.5911e-05 0)
(-0.00151483 -2.64513e-05 0)
(-0.00125823 -2.25857e-05 0)
(-0.00108063 -1.5143e-05 0)
(-0.00100188 -6.45299e-06 0)
(-0.00101933 1.96495e-06 0)
(-0.00111189 8.44078e-06 0)
(-0.00125098 1.23912e-05 0)
(-0.00140823 1.39473e-05 0)
(-0.00156203 1.35134e-05 0)
(-0.00169593 1.16308e-05 0)
(-0.00180434 9.07997e-06 0)
(-0.0018855 6.59382e-06 0)
(-0.00194547 4.64599e-06 0)
(-0.00197595 2.69639e-06 0)
(-0.00196495 -2.74373e-08 0)
(-0.00186611 -6.66952e-06 0)
(-0.00165018 -1.70154e-05 0)
(-0.00130227 -2.75733e-05 0)
(-0.00094885 -2.65041e-05 0)
(-0.000712345 -1.4749e-05 0)
(-0.000712814 2.17762e-06 0)
(-0.000794786 5.17481e-06 0)
(-0.00101874 7.20431e-06 0)
(-0.00102381 -7.06576e-06 0)
(-0.00111836 1.29561e-05 0)
(-0.00220801 3.8106e-05 0)
)
;
    }
    bottomWall
    {
        type            calculated;
        value           nonuniform List<vector> 
800
(
(-0.0353488 0.00214398 0)
(-0.0160264 0.00052484 0)
(-0.0106074 0.000100721 0)
(-0.00845551 3.52622e-05 0)
(-0.00748579 1.98616e-05 0)
(-0.00685213 1.61219e-05 0)
(-0.00634464 1.33557e-05 0)
(-0.00593351 1.08993e-05 0)
(-0.00559875 9.07805e-06 0)
(-0.0053199 7.76231e-06 0)
(-0.00508238 6.76617e-06 0)
(-0.00487676 5.97933e-06 0)
(-0.00469655 5.34186e-06 0)
(-0.00453704 4.8165e-06 0)
(-0.00439462 4.37734e-06 0)
(-0.00426654 4.00564e-06 0)
(-0.0041506 3.68775e-06 0)
(-0.00404505 3.41312e-06 0)
(-0.0039485 3.1738e-06 0)
(-0.00385976 2.96381e-06 0)
(-0.0037779 2.77821e-06 0)
(-0.0037021 2.61316e-06 0)
(-0.00363168 2.46571e-06 0)
(-0.00356606 2.33306e-06 0)
(-0.00350476 2.21328e-06 0)
(-0.00344735 2.10479e-06 0)
(-0.00339345 2.0061e-06 0)
(-0.00334274 1.91589e-06 0)
(-0.00329494 1.8332e-06 0)
(-0.00324981 1.75729e-06 0)
(-0.00320711 1.6873e-06 0)
(-0.00316665 1.62259e-06 0)
(-0.00312826 1.56264e-06 0)
(-0.00309178 1.50689e-06 0)
(-0.00305707 1.45498e-06 0)
(-0.00302401 1.40668e-06 0)
(-0.00299247 1.36139e-06 0)
(-0.00296236 1.31888e-06 0)
(-0.00293359 1.27915e-06 0)
(-0.00290605 1.24184e-06 0)
(-0.00287968 1.20657e-06 0)
(-0.00285441 1.17344e-06 0)
(-0.00283016 1.14214e-06 0)
(-0.00280689 1.11252e-06 0)
(-0.00278452 1.08472e-06 0)
(-0.00276302 1.05794e-06 0)
(-0.00274232 1.03312e-06 0)
(-0.0027224 1.00863e-06 0)
(-0.0027032 9.86703e-07 0)
(-0.0026847 9.63361e-07 0)
(-0.00266923 9.44014e-07 0)
(-0.00265646 9.33075e-07 0)
(-0.00264386 9.19028e-07 0)
(-0.00263146 9.04127e-07 0)
(-0.00261924 8.90222e-07 0)
(-0.00260721 8.76898e-07 0)
(-0.00259537 8.63956e-07 0)
(-0.00258369 8.5125e-07 0)
(-0.00257218 8.38972e-07 0)
(-0.00256084 8.26952e-07 0)
(-0.00254966 8.15012e-07 0)
(-0.00253864 8.03316e-07 0)
(-0.00252778 7.92196e-07 0)
(-0.00251706 7.81148e-07 0)
(-0.0025065 7.70338e-07 0)
(-0.00249608 7.59929e-07 0)
(-0.0024858 7.4942e-07 0)
(-0.00247566 7.39309e-07 0)
(-0.00246565 7.29427e-07 0)
(-0.00245578 7.19772e-07 0)
(-0.00244604 7.10175e-07 0)
(-0.00243643 7.00971e-07 0)
(-0.00242694 6.91988e-07 0)
(-0.00241757 6.82892e-07 0)
(-0.00240833 6.74183e-07 0)
(-0.0023992 6.65693e-07 0)
(-0.00239018 6.57251e-07 0)
(-0.00238128 6.49026e-07 0)
(-0.00237249 6.41013e-07 0)
(-0.00236381 6.33047e-07 0)
(-0.00235523 6.25291e-07 0)
(-0.00234676 6.17745e-07 0)
(-0.00233839 6.10239e-07 0)
(-0.00233013 6.02941e-07 0)
(-0.00232195 5.9568e-07 0)
(-0.00231388 5.88624e-07 0)
(-0.0023059 5.81605e-07 0)
(-0.00229802 5.74788e-07 0)
(-0.00229023 5.68171e-07 0)
(-0.00228253 5.61588e-07 0)
(-0.00227491 5.55037e-07 0)
(-0.00226739 5.48684e-07 0)
(-0.00225995 5.42528e-07 0)
(-0.00225259 5.36237e-07 0)
(-0.00224532 5.3014e-07 0)
(-0.00223813 5.2424e-07 0)
(-0.00223102 5.18533e-07 0)
(-0.00222398 5.12687e-07 0)
(-0.00221703 5.07034e-07 0)
(-0.00221015 5.01408e-07 0)
(-0.00220335 4.95806e-07 0)
(-0.00219662 4.90564e-07 0)
(-0.00218996 4.85345e-07 0)
(-0.00218337 4.79983e-07 0)
(-0.00217686 4.74811e-07 0)
(-0.00217041 4.69828e-07 0)
(-0.00216403 4.647e-07 0)
(-0.00215773 4.59763e-07 0)
(-0.00215148 4.55012e-07 0)
(-0.0021453 4.50283e-07 0)
(-0.00213919 4.45575e-07 0)
(-0.00213313 4.40888e-07 0)
(-0.00212715 4.36387e-07 0)
(-0.00212121 4.31907e-07 0)
(-0.00211535 4.27446e-07 0)
(-0.00210954 4.23171e-07 0)
(-0.00210378 4.18749e-07 0)
(-0.0020981 4.14513e-07 0)
(-0.00209246 4.10461e-07 0)
(-0.00208688 4.0643e-07 0)
(-0.00208135 4.02415e-07 0)
(-0.00207588 3.98253e-07 0)
(-0.00207046 3.94439e-07 0)
(-0.0020651 3.90645e-07 0)
(-0.00205978 3.867e-07 0)
(-0.00205452 3.82939e-07 0)
(-0.00204931 3.7936e-07 0)
(-0.00204415 3.7563e-07 0)
(-0.00203904 3.72082e-07 0)
(-0.00203397 3.68551e-07 0)
(-0.00202896 3.65033e-07 0)
(-0.00202399 3.61696e-07 0)
(-0.00201906 3.58205e-07 0)
(-0.00201419 3.54898e-07 0)
(-0.00200935 3.51603e-07 0)
(-0.00200456 3.48319e-07 0)
(-0.00199982 3.4505e-07 0)
(-0.00199512 3.41957e-07 0)
(-0.00199046 3.38881e-07 0)
(-0.00198585 3.35643e-07 0)
(-0.00198127 3.32597e-07 0)
(-0.00197674 3.29708e-07 0)
(-0.00197225 3.26698e-07 0)
(-0.0019678 3.2365e-07 0)
(-0.00196339 3.2102e-07 0)
(-0.00195901 3.1813e-07 0)
(-0.00195467 3.15229e-07 0)
(-0.00195037 3.12306e-07 0)
(-0.00194612 3.09631e-07 0)
(-0.0019419 3.068e-07 0)
(-0.00193835 3.04224e-07 0)
(-0.00193546 3.02807e-07 0)
(-0.00193256 3.01026e-07 0)
(-0.00192966 2.99162e-07 0)
(-0.00192676 2.97325e-07 0)
(-0.00192385 2.95566e-07 0)
(-0.00192094 2.93558e-07 0)
(-0.00191804 2.91806e-07 0)
(-0.00191512 2.90062e-07 0)
(-0.00191221 2.88096e-07 0)
(-0.00190929 2.86593e-07 0)
(-0.00190637 2.84658e-07 0)
(-0.00190345 2.8293e-07 0)
(-0.00190052 2.81251e-07 0)
(-0.00189759 2.79329e-07 0)
(-0.00189466 2.77653e-07 0)
(-0.00189173 2.75763e-07 0)
(-0.0018888 2.74104e-07 0)
(-0.00188587 2.72452e-07 0)
(-0.00188293 2.70596e-07 0)
(-0.00187999 2.6896e-07 0)
(-0.00187705 2.67338e-07 0)
(-0.00187411 2.65502e-07 0)
(-0.00187116 2.63909e-07 0)
(-0.00186821 2.62098e-07 0)
(-0.00186527 2.60312e-07 0)
(-0.00186232 2.58938e-07 0)
(-0.00185936 2.57172e-07 0)
(-0.00185641 2.55413e-07 0)
(-0.00185346 2.5387e-07 0)
(-0.0018505 2.52127e-07 0)
(-0.00184755 2.50609e-07 0)
(-0.00184458 2.49087e-07 0)
(-0.00184162 2.47389e-07 0)
(-0.00183866 2.45701e-07 0)
(-0.0018357 2.4421e-07 0)
(-0.00183273 2.42732e-07 0)
(-0.00182976 2.41085e-07 0)
(-0.00182679 2.39429e-07 0)
(-0.00182382 2.38001e-07 0)
(-0.00182085 2.36551e-07 0)
(-0.00181787 2.34954e-07 0)
(-0.0018149 2.33364e-07 0)
(-0.00181192 2.31961e-07 0)
(-0.00180894 2.3057e-07 0)
(-0.00180596 2.29017e-07 0)
(-0.00180298 2.27652e-07 0)
(-0.00179999 2.26297e-07 0)
(-0.001797 2.24935e-07 0)
(-0.00179401 2.23448e-07 0)
(-0.00179102 2.21946e-07 0)
(-0.00178802 2.20805e-07 0)
(-0.00178502 2.19503e-07 0)
(-0.00178202 2.18042e-07 0)
(-0.00177902 2.16761e-07 0)
(-0.00177602 2.15495e-07 0)
(-0.00177301 2.14218e-07 0)
(-0.00177 2.12987e-07 0)
(-0.00176698 2.11566e-07 0)
(-0.00176397 2.10345e-07 0)
(-0.00176095 2.09286e-07 0)
(-0.00175792 2.08075e-07 0)
(-0.0017549 2.06885e-07 0)
(-0.00175186 2.05691e-07 0)
(-0.00174883 2.04482e-07 0)
(-0.00174579 2.03506e-07 0)
(-0.00174275 2.02322e-07 0)
(-0.0017397 2.01185e-07 0)
(-0.00173665 2.0019e-07 0)
(-0.00173359 1.99225e-07 0)
(-0.00173053 1.98115e-07 0)
(-0.00172746 1.97163e-07 0)
(-0.00172438 1.96221e-07 0)
(-0.00172131 1.95144e-07 0)
(-0.00171822 1.94325e-07 0)
(-0.00171513 1.93469e-07 0)
(-0.00171203 1.92499e-07 0)
(-0.00170892 1.91834e-07 0)
(-0.00170581 1.90843e-07 0)
(-0.00170268 1.90152e-07 0)
(-0.00169956 1.89324e-07 0)
(-0.00169641 1.88917e-07 0)
(-0.00169327 1.87628e-07 0)
(-0.00169009 1.87821e-07 0)
(-0.00168695 1.85953e-07 0)
(-0.00168373 1.87449e-07 0)
(-0.00168059 1.83765e-07 0)
(-0.0016773 1.8812e-07 0)
(-0.0016742 1.80296e-07 0)
(-0.00167078 1.9134e-07 0)
(-0.00166781 1.73797e-07 0)
(-0.00166413 1.99428e-07 0)
(-0.00166144 1.60367e-07 0)
(-0.00165729 2.17644e-07 0)
(-0.00165517 1.34157e-07 0)
(-0.00165016 2.54316e-07 0)
(-0.00164905 8.33222e-08 0)
(-0.00164273 3.19049e-07 0)
(-0.00164307 2.41172e-09 0)
(-0.00163507 3.52515e-07 0)
(-0.0353489 -0.00214396 0)
(-0.0160272 -0.000524809 0)
(-0.010609 -0.000100689 0)
(-0.00845781 -3.52337e-05 0)
(-0.00748879 -1.98347e-05 0)
(-0.00685571 -1.60963e-05 0)
(-0.00634881 -1.33305e-05 0)
(-0.00593822 -1.08745e-05 0)
(-0.00560399 -9.05262e-06 0)
(-0.00532568 -7.73587e-06 0)
(-0.00508872 -6.73882e-06 0)
(-0.00488365 -5.95087e-06 0)
(-0.00470401 -5.31193e-06 0)
(-0.00454508 -4.78484e-06 0)
(-0.00440328 -4.34354e-06 0)
(-0.00427585 -3.96925e-06 0)
(-0.0041606 -3.64825e-06 0)
(-0.00405581 -3.37e-06 0)
(-0.00396007 -3.12649e-06 0)
(-0.00387223 -2.91163e-06 0)
(-0.00379135 -2.72034e-06 0)
(-0.00371664 -2.5488e-06 0)
(-0.00364743 -2.39379e-06 0)
(-0.00358316 -2.25245e-06 0)
(-0.00352337 -2.12258e-06 0)
(-0.00346765 -2.00229e-06 0)
(-0.00341567 -1.88979e-06 0)
(-0.00336713 -1.78365e-06 0)
(-0.0033218 -1.68225e-06 0)
(-0.00327945 -1.58449e-06 0)
(-0.00323995 -1.48865e-06 0)
(-0.00320315 -1.39406e-06 0)
(-0.00316896 -1.29827e-06 0)
(-0.00313729 -1.20144e-06 0)
(-0.00310815 -1.09946e-06 0)
(-0.00308149 -9.93858e-07 0)
(-0.00305737 -8.77268e-07 0)
(-0.00303592 -7.53405e-07 0)
(-0.0030171 -6.11371e-07 0)
(-0.00300154 -4.53077e-07 0)
(-0.00298854 -2.71777e-07 0)
(-0.00298044 -4.31949e-08 0)
(-0.00297392 1.8898e-07 0)
(-0.0029768 5.78435e-07 0)
(-0.00297705 8.57682e-07 0)
(-0.00299887 1.64707e-06 0)
(-0.00300543 1.7813e-06 0)
(-0.00306142 4.16096e-06 0)
(-0.003093 -3.39499e-06 0)
(-0.00294207 0.000218035 0)
(-9.23606e-05 5.05537e-05 0)
(-0.000108195 0.000228331 0)
(-0.000139863 0.000413244 0)
(-0.000187249 0.000642572 0)
(-0.000240631 0.000930365 0)
(-0.000267976 0.00126597 0)
(-0.000230746 0.00157857 0)
(-0.000124421 0.00176797 0)
(1.70148e-05 0.00177546 0)
(0.000155341 0.00160751 0)
(0.000267151 0.00129282 0)
(0.00034211 0.000876136 0)
(0.000380147 0.000403106 0)
(0.00038692 -8.57244e-05 0)
(0.000372052 -0.000560959 0)
(0.000343789 -0.00100526 0)
(0.000308521 -0.00140884 0)
(0.000270735 -0.00176815 0)
(0.000233145 -0.00208332 0)
(0.000197178 -0.0023565 0)
(0.000163444 -0.00259067 0)
(0.000132104 -0.00278904 0)
(0.000103182 -0.00295474 0)
(7.67026e-05 -0.00309083 0)
(5.22106e-05 -0.00320042 0)
(2.83729e-05 -0.00328575 0)
(5.28345e-06 -0.00334756 0)
(-1.44818e-05 -0.00338803 0)
(-3.26797e-05 -0.00341174 0)
(-5.63238e-05 -0.00341821 0)
(-9.12537e-05 -0.00340436 0)
(-0.000140668 -0.0033637 0)
(-0.000199365 -0.00328667 0)
(-0.000251227 -0.00316786 0)
(-0.000276156 -0.00301258 0)
(-0.000262823 -0.00283697 0)
(-0.000216509 -0.00266093 0)
(-0.000156175 -0.00249948 0)
(-0.000102391 -0.00235846 0)
(-6.87499e-05 -0.00223631 0)
(-5.90952e-05 -0.00212713 0)
(-6.81157e-05 -0.00202382 0)
(-8.6961e-05 -0.00191983 0)
(-0.000108069 -0.00181048 0)
(-0.000126979 -0.00169375 0)
(-0.000141778 -0.00157002 0)
(-0.00015184 -0.00144114 0)
(-0.000156913 -0.00130951 0)
(-0.000156869 -0.00117764 0)
(-0.000152041 -0.00104792 0)
(-0.000143716 -0.000922317 0)
(-0.00013419 -0.000801943 0)
(-0.000126207 -0.00068673 0)
(-0.000122025 -0.000575548 0)
(-0.000122602 -0.000466618 0)
(-0.000127256 -0.000358097 0)
(-0.000133868 -0.000248801 0)
(-0.000141284 -0.00014014 0)
(-0.000146596 -2.88114e-05 0)
(-0.000147592 8.5533e-05 0)
(-0.000143836 0.00020038 0)
(-0.000140401 0.000314036 0)
(-0.000146834 0.000429452 0)
(-0.00016712 0.000556704 0)
(-0.000180936 0.000701356 0)
(-0.000147894 0.000847214 0)
(-5.59057e-05 0.000957284 0)
(5.50868e-05 0.00100543 0)
(0.000137565 0.00100368 0)
(0.000172957 0.000970834 0)
(0.000161613 0.000922066 0)
(0.000109294 0.000873951 0)
(2.81375e-05 0.000845425 0)
(-5.93919e-05 0.000850855 0)
(-0.000124913 0.00088974 0)
(-0.00014746 0.000937862 0)
(-0.000132355 0.000961692 0)
(-0.000109159 0.00095369 0)
(-0.000100507 0.000935307 0)
(-9.70459e-05 0.000927999 0)
(-8.24978e-05 0.00093097 0)
(-5.56228e-05 0.00093541 0)
(-2.07717e-05 0.000937764 0)
(1.93603e-05 0.000933662 0)
(5.47072e-05 0.000917991 0)
(7.38906e-05 0.000895566 0)
(7.70487e-05 0.000876334 0)
(7.21353e-05 0.000862286 0)
(6.4032e-05 0.000849329 0)
(5.3698e-05 0.000835559 0)
(4.29049e-05 0.000821221 0)
(3.31912e-05 0.000805655 0)
(2.41708e-05 0.000789596 0)
(1.64905e-05 0.000775488 0)
(1.21557e-05 0.000763722 0)
(1.14958e-05 0.000752811 0)
(1.31186e-05 0.000742022 0)
(1.56404e-05 0.000731173 0)
(1.75718e-05 0.000720447 0)
(1.82411e-05 0.000710609 0)
(1.81045e-05 0.000701965 0)
(1.77038e-05 0.000694083 0)
(1.7169e-05 0.000686563 0)
(1.66564e-05 0.000679234 0)
(1.63035e-05 0.000671979 0)
(1.6279e-05 0.000664696 0)
(1.67091e-05 0.000657159 0)
(1.75483e-05 0.000649122 0)
(1.86672e-05 0.000640431 0)
(1.99045e-05 0.000631028 0)
(2.10949e-05 0.000620955 0)
(2.2083e-05 0.000610335 0)
(2.27143e-05 0.000599373 0)
(2.28484e-05 0.000588351 0)
(2.23874e-05 0.000577625 0)
(2.13045e-05 0.00056758 0)
(1.96476e-05 0.000558584 0)
(1.75319e-05 0.000550955 0)
(1.51169e-05 0.000544916 0)
(1.25788e-05 0.000540594 0)
(1.00826e-05 0.000538085 0)
(7.74428e-06 0.000537248 0)
(5.62091e-06 0.000537934 0)
(3.67739e-06 0.000539966 0)
(1.80133e-06 0.00054319 0)
(-1.76588e-07 0.000547481 0)
(-2.46632e-06 0.000552774 0)
(-5.26534e-06 0.000559071 0)
(-8.72094e-06 0.00056641 0)
(-1.29057e-05 0.000574838 0)
(-1.78071e-05 0.000584386 0)
(-2.33177e-05 0.000595065 0)
(-2.92241e-05 0.000606845 0)
(-3.5221e-05 0.000619631 0)
(-4.09376e-05 0.000633255 0)
(-4.59816e-05 0.000647456 0)
(-4.99962e-05 0.00066189 0)
(-5.27038e-05 0.000676158 0)
(-5.39349e-05 0.00068984 0)
(-5.36408e-05 0.000702568 0)
(-5.18651e-05 0.000713999 0)
(-4.87112e-05 0.000723835 0)
(-4.43275e-05 0.000731867 0)
(-3.88929e-05 0.000737946 0)
(-3.25834e-05 0.00074196 0)
(-2.55533e-05 0.00074383 0)
(-1.80553e-05 0.000743486 0)
(-1.02915e-05 0.00074106 0)
(-2.32147e-06 0.000736613 0)
(5.76038e-06 0.000730209 0)
(1.38866e-05 0.000721914 0)
(2.2006e-05 0.000711797 0)
(3.00801e-05 0.000699929 0)
(3.80757e-05 0.000686378 0)
(4.59609e-05 0.000671213 0)
(5.3708e-05 0.000654508 0)
(6.1291e-05 0.000636336 0)
(6.8683e-05 0.000616771 0)
(7.58573e-05 0.000595892 0)
(8.27854e-05 0.000573779 0)
(8.94362e-05 0.000550514 0)
(9.57781e-05 0.000526182 0)
(0.000101777 0.000500875 0)
(0.000107399 0.00047469 0)
(0.000112608 0.000447727 0)
(0.000117371 0.00042009 0)
(0.000121654 0.000391888 0)
(0.000125422 0.000363236 0)
(0.000128648 0.000334253 0)
(0.000131303 0.000305061 0)
(0.000133373 0.00027579 0)
(0.000134842 0.000246548 0)
(0.000135795 0.000217643 0)
(0.000136185 0.000189104 0)
(0.000135996 0.000160981 0)
(0.000135243 0.000133372 0)
(0.000133945 0.000106373 0)
(0.000132123 8.00885e-05 0)
(0.000129809 5.46227e-05 0)
(0.000127039 3.00868e-05 0)
(0.000123849 6.59334e-06 0)
(0.000120299 -1.57368e-05 0)
(0.000116484 -3.68011e-05 0)
(0.000112498 -5.65288e-05 0)
(0.000108435 -7.48747e-05 0)
(0.000104409 -9.18358e-05 0)
(0.00010051 -0.000107448 0)
(9.68394e-05 -0.000121833 0)
(9.34521e-05 -0.000135211 0)
(9.01429e-05 -0.000147739 0)
(8.66191e-05 -0.000159955 0)
(8.22217e-05 -0.000172832 0)
(7.55981e-05 -0.000188182 0)
(6.42864e-05 -0.000209758 0)
(4.33639e-05 -0.000243998 0)
(3.98176e-06 -0.000303163 0)
(-7.08094e-05 -0.000409554 0)
(-0.000214093 -0.000595599 0)
(-0.000473573 -0.000890176 0)
(-0.000841211 -0.00126787 0)
(1.28599e-05 0.000110916 0)
(-0.000148219 0.000175433 0)
(-0.000323276 0.000184285 0)
(-0.000481412 0.00016886 0)
(-0.000623035 0.000143931 0)
(-0.00074273 0.000109395 0)
(-0.000832222 6.46932e-05 0)
(-0.000882838 1.15162e-05 0)
(-0.000888605 -4.68126e-05 0)
(-0.000846116 -0.00010347 0)
(-0.000759326 -0.000151401 0)
(-0.000635438 -0.000184088 0)
(-0.000488106 -0.000195428 0)
(-0.00033488 -0.000182089 0)
(-0.000194657 -0.000141993 0)
(-8.80629e-05 -7.80702e-05 0)
(-3.55835e-05 -7.4682e-07 0)
(-4.38844e-05 7.49977e-05 0)
(-0.000108993 0.000127901 0)
(-0.000212964 0.000148271 0)
(-0.000320896 0.000151504 0)
(-0.000482023 0.000132918 0)
(-0.00059814 -2.07436e-05 0)
(-0.000616647 -0.000153679 0)
(-0.000621598 -0.000211877 0)
(-0.000566904 -0.000256156 0)
(-0.000425159 -6.04138e-05 0)
(-0.000399714 0.000347388 0)
(-0.000534536 0.000581965 0)
(-0.000761104 0.000524644 0)
(-0.000828113 5.66338e-06 0)
(-0.000317559 -0.000705755 0)
(0.000362699 -0.000730506 0)
(0.000707803 -0.000515319 0)
(0.000882314 -0.000340441 0)
(0.000987546 -0.000214909 0)
(0.00103721 -0.000133847 0)
(0.00104157 -5.5446e-05 0)
(0.000986714 2.13956e-05 0)
(0.000881208 9.21393e-05 0)
(0.000725623 0.000161974 0)
(0.000519659 0.000227767 0)
(0.000267075 0.000284637 0)
(-2.42609e-05 0.000326958 0)
(-0.000342575 0.00034858 0)
(-0.000669463 0.000343893 0)
(-0.000981392 0.000310665 0)
(-0.00125507 0.000249988 0)
(-0.00146932 0.000166349 0)
(-0.00160752 6.5265e-05 0)
(-0.00165817 -4.7348e-05 0)
(-0.00161361 -0.00016884 0)
(-0.00148204 -0.000291544 0)
(-0.00125268 -0.000406401 0)
(-0.000930922 -0.000503966 0)
(-0.000536078 -0.00058107 0)
(-7.88004e-05 -0.000645112 0)
(0.000458748 -0.000690752 0)
(0.00103722 -0.000663437 0)
(0.0015659 -0.000564526 0)
(0.00197884 -0.000419258 0)
(0.00224138 -0.000249717 0)
(0.00231785 -5.35482e-05 0)
(0.0022536 0.000167016 0)
(0.00206633 0.000376973 0)
(0.00178615 0.000488691 0)
(0.00149508 0.000469085 0)
(0.00135188 0.000411608 0)
(0.00127025 0.00032309 0)
(0.00120666 0.000183632 0)
(0.00117161 1.1584e-05 0)
(0.00119294 -0.000127241 0)
(0.00124896 -0.000146806 0)
(0.00124117 -4.18373e-05 0)
(0.00112341 6.6616e-05 0)
(0.000969361 8.55275e-05 0)
(0.000851647 6.1694e-05 0)
(0.000760927 5.53033e-05 0)
(0.000677807 4.4964e-05 0)
(0.000624121 1.15795e-05 0)
(0.000609211 -1.99999e-05 0)
(0.000618696 -4.29072e-05 0)
(0.000660428 -6.29034e-05 0)
(0.000701133 -6.98374e-05 0)
(0.000733045 -6.45605e-05 0)
(0.000754233 -5.28407e-05 0)
(0.00076423 -3.46845e-05 0)
(0.000765961 -1.21604e-05 0)
(0.000749583 1.19637e-05 0)
(0.000714952 3.69071e-05 0)
(0.000661886 6.25558e-05 0)
(0.000590455 8.90869e-05 0)
(0.00049958 0.000117836 0)
(0.000387143 0.000148009 0)
(0.000250919 0.000175571 0)
(9.23151e-05 0.00018365 0)
(-7.26887e-05 0.000155519 0)
(-0.000191967 3.19339e-05 0)
(-0.000156037 -9.53466e-05 0)
(6.26533e-06 -0.000126613 0)
(-8.89294e-05 -8.18918e-05 0)
(1.33753e-05 -0.000178996 0)
(1.20111e-05 -0.000115575 0)
(-2.90329e-05 -7.20405e-05 0)
(-4.673e-06 -4.56402e-05 0)
(-4.51075e-05 -0.000118286 0)
(-0.000148008 -0.000325682 0)
(-0.000219247 -0.000620421 0)
(-0.000269071 -0.000967485 0)
(-0.000302449 -0.00134881 0)
(-0.000315776 -0.00175171 0)
(-0.000300103 -0.00215575 0)
(-0.000247596 -0.0025243 0)
(-0.000155385 -0.0028169 0)
(-2.46169e-05 -0.00299578 0)
(0.000148376 -0.00303185 0)
(0.000360731 -0.00287893 0)
(0.00060396 -0.00250617 0)
(0.000848134 -0.00188114 0)
(0.00101135 -0.000948237 0)
(0.000663053 0.000193114 0)
(-0.000101912 0.000722387 0)
(-7.80474e-05 0.000713496 0)
(0.000181219 0.000860731 0)
(9.34265e-05 0.000888722 0)
(-2.72944e-05 0.000889108 0)
(-0.000116673 0.000764711 0)
(-0.000170569 0.000579273 0)
(-0.000180502 0.00036927 0)
(-0.00015457 0.000189986 0)
(-0.000117841 5.25896e-05 0)
(-7.80951e-05 -2.84027e-05 0)
(-4.97946e-05 -5.93331e-05 0)
(-2.95084e-05 -7.65705e-05 0)
(-9.02268e-06 -0.000110287 0)
(2.88463e-05 -0.000176014 0)
(8.26837e-05 -0.000241821 0)
(0.000101818 -0.000267524 0)
(4.45391e-05 -0.000260328 0)
(-0.000100731 -0.000262402 0)
(-0.000272287 -0.00031269 0)
(-0.000397389 -0.000399941 0)
(-0.000449366 -0.00048965 0)
(-0.000431097 -0.00056422 0)
(-0.00033746 -0.000597537 0)
(-0.000183327 -0.000568481 0)
(1.75575e-06 -0.000488791 0)
(0.000192611 -0.000291768 0)
(0.000341955 6.94052e-06 0)
(0.000329048 0.000336412 0)
(0.000229882 0.000569134 0)
(0.000274 0.000741518 0)
(0.000432245 0.00098301 0)
(0.000565346 0.00130349 0)
(0.000588231 0.00163897 0)
(0.000455526 0.0019125 0)
(0.000277985 0.00204938 0)
(0.000175643 0.00209303 0)
(0.000126659 0.00211291 0)
(6.89366e-05 0.0021081 0)
(-2.66058e-06 0.00205361 0)
(-6.05775e-05 0.001951 0)
(-9.36492e-05 0.00182332 0)
(-0.000100731 0.00169573 0)
(-7.7676e-05 0.00159817 0)
(-2.95572e-05 0.00156586 0)
(3.44608e-05 0.00161956 0)
(9.17798e-05 0.00174409 0)
(0.000139512 0.00191078 0)
(0.000181486 0.00208907 0)
(0.000200732 0.0022535 0)
(0.000153581 0.00237511 0)
(1.33181e-05 0.00246248 0)
(-0.000214551 0.00259371 0)
(-0.000485416 0.00269172 0)
(-0.000534422 0.00262742 0)
(-6.90689e-05 0.00250287 0)
(0.000842554 0.00268991 0)
(0.00157479 0.00347508 0)
(0.00135322 0.00445145 0)
(0.000450231 0.00476468 0)
(-2.76439e-06 0.00444971 0)
(0.000143629 0.00430234 0)
(0.000161086 0.00445664 0)
(-6.39433e-05 0.0044671 0)
(-0.000137064 0.00430586 0)
(-7.32138e-05 0.00423643 0)
(-9.79631e-05 0.00423105 0)
(-0.000162736 0.00415471 0)
(-0.000162875 0.00405406 0)
(-0.000152312 0.00399237 0)
(-0.000175176 0.00393034 0)
(-0.000193469 0.00384458 0)
(-0.000194602 0.00376245 0)
(-0.00020218 0.00369001 0)
(-0.000217393 0.00361179 0)
(-0.000228521 0.00352877 0)
(-0.000238751 0.00344887 0)
(-0.000254494 0.00336936 0)
(-0.000274228 0.00328606 0)
(-0.000297029 0.00320026 0)
(-0.000325841 0.00311365 0)
(-0.000361491 0.00302193 0)
(-0.000402086 0.00292377 0)
(-0.000444958 0.00281974 0)
(-0.00048615 0.00271101 0)
(-0.000519443 0.00260042 0)
(-0.000538412 0.00249452 0)
(-0.000540481 0.00240189 0)
(-0.00052968 0.00234676 0)
(-0.000496908 0.00231706 0)
(-0.00041726 0.00229859 0)
(-0.000251172 0.00228557 0)
(4.90516e-05 0.00229491 0)
(0.000503834 0.00239979 0)
(0.00103733 0.00273356 0)
(0.00143137 0.00331311 0)
(0.00151526 0.00396713 0)
(0.00137776 0.00446211 0)
(0.00122659 0.0047961 0)
(0.00109839 0.00510104 0)
(0.000936118 0.00537809 0)
(0.000765991 0.00557713 0)
(0.000618192 0.00572379 0)
(0.000476859 0.00583898 0)
(0.000344111 0.0059108 0)
(0.000229403 0.00595273 0)
(0.000126645 0.00597492 0)
(3.58241e-05 0.00597132 0)
(-3.961e-05 0.00594752 0)
(-0.000103073 0.00591161 0)
(-0.000159061 0.00586433 0)
(-0.000207449 0.00580594 0)
(-0.000248435 0.00573883 0)
(-0.000282925 0.00566467 0)
(-0.000311343 0.00558457 0)
(-0.000333734 0.0054997 0)
(-0.000349958 0.00541145 0)
(-0.000359893 0.00532121 0)
(-0.000363271 0.00523035 0)
(-0.000359674 0.00514044 0)
(-0.000348808 0.00505334 0)
(-0.000330511 0.004971 0)
(-0.000304807 0.00489559 0)
(-0.00027209 0.00482941 0)
(-0.000233182 0.00477461 0)
(-0.000189149 0.0047328 0)
(-0.000140561 0.00470979 0)
(-8.73955e-05 0.00472715 0)
(-2.74699e-05 0.00476245 0)
(4.17651e-05 0.00481405 0)
(0.000119654 0.00487909 0)
(0.000200779 0.00495858 0)
(0.000278235 0.00505171 0)
(0.000345595 0.00515553 0)
(0.000397538 0.00526443 0)
(0.000430648 0.00537341 0)
(0.000444107 0.00547962 0)
(0.000439498 0.00558132 0)
(0.000419488 0.00567633 0)
(0.00038645 0.00576219 0)
(0.000342116 0.00583738 0)
(0.000288004 0.00590131 0)
(0.000225503 0.00595311 0)
(0.000155522 0.00599131 0)
(7.86145e-05 0.00601455 0)
(-4.1724e-06 0.00602253 0)
(-9.03346e-05 0.00601614 0)
(-0.00017701 0.00599677 0)
(-0.000264975 0.00596624 0)
(-0.0003562 0.00592325 0)
(-0.000450587 0.00588392 0)
(-0.000547644 0.00583515 0)
(-0.000647625 0.00577383 0)
(-0.000750404 0.00569991 0)
(-0.000856245 0.00561332 0)
(-0.000965218 0.00551392 0)
(-0.00107741 0.00540164 0)
(-0.00119283 0.00527644 0)
(-0.00131153 0.00513837 0)
(-0.00143353 0.00498759 0)
(-0.00155886 0.00482441 0)
(-0.00168776 0.00464925 0)
(-0.00182063 0.00446261 0)
(-0.00195821 0.004265 0)
(-0.00210139 0.00405646 0)
(-0.00226332 0.00385863 0)
(-0.00245879 0.00368545 0)
(-0.00267846 0.00350768 0)
(-0.00292551 0.00331973 0)
(-0.00320052 0.00311399 0)
(-0.00350072 0.00288091 0)
(-0.00381732 0.00260988 0)
(-0.00413868 0.00229427 0)
(-0.00444414 0.00193001 0)
(-0.00471503 0.00152121 0)
(-0.0049599 0.00108003 0)
(-0.00519349 0.000616221 0)
(-0.00533231 -0.000138854 0)
(-0.00507549 0.00107822 0)
)
;
    }
    frontAndBack
    {
        type            empty;
    }
}


// ************************************************************************* //
