/*--------------------------------*- C++ -*----------------------------------*\
  =========                 |
  \\      /  F ield         | OpenFOAM: The Open Source CFD Toolbox
   \\    /   O peration     | Website:  https://openfoam.org
    \\  /    A nd           | Version:  7
     \\/     M anipulation  |
\*---------------------------------------------------------------------------*/
FoamFile
{
    version     2.0;
    format      ascii;
    class       volScalarField;
    location    "0.41";
    object      k;
}
// * * * * * * * * * * * * * * * * * * * * * * * * * * * * * * * * * * * * * //

dimensions      [0 2 -2 0 0 0 0];

internalField   nonuniform List<scalar> 
70000
(
1.08549e-05
4.21877e-06
2.82434e-06
2.31681e-06
1.99746e-06
1.75715e-06
1.56512e-06
1.4083e-06
1.27745e-06
1.16682e-06
1.07181e-06
9.89859e-07
9.18215e-07
8.55608e-07
8.00092e-07
7.51137e-07
7.07103e-07
6.68033e-07
6.32374e-07
6.00671e-07
5.71291e-07
5.45217e-07
5.20642e-07
4.9894e-07
4.78098e-07
4.5984e-07
4.41948e-07
4.26438e-07
4.10911e-07
3.97628e-07
3.84029e-07
3.72582e-07
3.60565e-07
3.50668e-07
3.3994e-07
3.314e-07
3.21686e-07
3.14397e-07
3.05438e-07
2.99341e-07
2.90934e-07
2.86036e-07
2.77849e-07
2.75219e-07
2.66539e-07
2.67538e-07
2.58736e-07
2.75499e-07
2.62157e-07
3.23506e-07
1.72794e-05
1.13673e-05
8.52051e-06
7.01042e-06
6.03709e-06
5.31091e-06
4.73129e-06
4.25768e-06
3.86248e-06
3.52834e-06
3.24143e-06
2.99393e-06
2.77754e-06
2.58844e-06
2.42071e-06
2.27281e-06
2.13972e-06
2.02167e-06
1.91385e-06
1.81805e-06
1.7292e-06
1.65041e-06
1.57608e-06
1.51048e-06
1.44744e-06
1.39224e-06
1.33813e-06
1.29122e-06
1.24426e-06
1.20407e-06
1.16295e-06
1.1283e-06
1.09196e-06
1.062e-06
1.02954e-06
1.00371e-06
9.74279e-07
9.52275e-07
9.25095e-07
9.06711e-07
8.81201e-07
8.66451e-07
8.41605e-07
8.32416e-07
8.07366e-07
8.05898e-07
7.83215e-07
8.16057e-07
7.93176e-07
8.50725e-07
1.937e-05
1.61297e-05
1.3291e-05
1.12896e-05
9.82835e-06
8.69601e-06
7.77804e-06
7.02053e-06
6.38377e-06
5.84269e-06
5.37641e-06
4.97301e-06
4.61937e-06
4.30972e-06
4.03439e-06
3.79131e-06
3.57201e-06
3.3774e-06
3.19921e-06
3.04092e-06
2.89376e-06
2.76332e-06
2.63999e-06
2.53121e-06
2.42648e-06
2.33478e-06
2.24478e-06
2.16672e-06
2.08857e-06
2.02157e-06
1.95309e-06
1.89525e-06
1.83468e-06
1.78465e-06
1.73043e-06
1.68735e-06
1.63805e-06
1.60142e-06
1.5558e-06
1.52519e-06
1.48241e-06
1.4576e-06
1.41632e-06
1.39909e-06
1.35871e-06
1.35074e-06
1.31508e-06
1.34616e-06
1.33217e-06
1.35636e-06
1.9861e-05
1.826e-05
1.60856e-05
1.42003e-05
1.264e-05
1.13487e-05
1.02605e-05
9.33855e-06
8.54677e-06
7.86386e-06
7.2688e-06
6.74954e-06
6.29071e-06
5.88661e-06
5.52495e-06
5.20429e-06
4.91322e-06
4.65429e-06
4.41591e-06
4.20394e-06
4.00587e-06
3.83026e-06
3.66346e-06
3.51631e-06
3.37411e-06
3.24953e-06
3.12694e-06
3.02045e-06
2.91373e-06
2.82199e-06
2.72828e-06
2.64885e-06
2.56574e-06
2.49694e-06
2.42226e-06
2.36304e-06
2.29484e-06
2.24452e-06
2.18127e-06
2.13908e-06
2.07986e-06
2.0452e-06
1.9887e-06
1.96253e-06
1.90795e-06
1.89167e-06
1.84252e-06
1.85973e-06
1.85964e-06
1.85937e-06
1.99706e-05
1.78459e-05
1.60748e-05
1.47666e-05
1.36025e-05
1.25378e-05
1.15692e-05
1.07019e-05
9.92058e-06
9.22541e-06
8.60488e-06
8.05273e-06
7.55616e-06
7.1131e-06
6.7108e-06
6.35062e-06
6.01961e-06
5.7234e-06
5.44787e-06
5.20205e-06
4.97022e-06
4.76424e-06
4.56698e-06
4.39269e-06
4.22311e-06
4.07424e-06
3.92703e-06
3.79874e-06
3.6699e-06
3.55864e-06
3.44495e-06
3.34811e-06
3.24675e-06
3.1626e-06
3.07095e-06
2.99841e-06
2.91421e-06
2.85239e-06
2.77416e-06
2.72183e-06
2.6488e-06
2.60505e-06
2.536e-06
2.50122e-06
2.43471e-06
2.41027e-06
2.34905e-06
2.34734e-06
2.34614e-06
2.32996e-06
2.00095e-05
1.47039e-05
1.37478e-05
1.32111e-05
1.25915e-05
1.19275e-05
1.1278e-05
1.0658e-05
1.00808e-05
9.5473e-06
9.0463e-06
8.58077e-06
8.14617e-06
7.74754e-06
7.3744e-06
7.03344e-06
6.71285e-06
6.42253e-06
6.1475e-06
5.90024e-06
5.66319e-06
5.45143e-06
5.24568e-06
5.06315e-06
4.88345e-06
4.72496e-06
4.56692e-06
4.42844e-06
4.28874e-06
4.16726e-06
4.04286e-06
3.93618e-06
3.82421e-06
3.73093e-06
3.62869e-06
3.54786e-06
3.45326e-06
3.38371e-06
3.29572e-06
3.23579e-06
3.15399e-06
3.10255e-06
3.02601e-06
2.983e-06
2.91021e-06
2.87796e-06
2.81256e-06
2.7872e-06
2.7785e-06
2.74649e-06
2.01332e-05
1.54676e-05
9.63457e-06
9.39832e-06
9.49314e-06
9.49264e-06
9.43433e-06
9.29668e-06
9.05615e-06
8.78306e-06
8.48801e-06
8.19158e-06
7.89876e-06
7.61702e-06
7.33827e-06
7.07965e-06
6.82978e-06
6.59833e-06
6.37139e-06
6.16392e-06
5.95872e-06
5.77318e-06
5.58822e-06
5.42277e-06
5.25638e-06
5.10833e-06
4.95857e-06
4.8263e-06
4.69161e-06
4.57335e-06
4.45146e-06
4.346e-06
4.23451e-06
4.1412e-06
4.03792e-06
3.95605e-06
3.85968e-06
3.78785e-06
3.69819e-06
3.63443e-06
3.55162e-06
3.49464e-06
3.41856e-06
3.36737e-06
3.29789e-06
3.25276e-06
3.19536e-06
3.14911e-06
3.13328e-06
3.08647e-06
2.01713e-05
1.8676e-05
8.6921e-06
5.54034e-06
5.63069e-06
5.93491e-06
6.29334e-06
6.57921e-06
6.75924e-06
6.86862e-06
6.88858e-06
6.86952e-06
6.81718e-06
6.73023e-06
6.6181e-06
6.49786e-06
6.35796e-06
6.21835e-06
6.07237e-06
5.934e-06
5.78944e-06
5.656e-06
5.51752e-06
5.39192e-06
5.26118e-06
5.14537e-06
5.02556e-06
4.91843e-06
4.80714e-06
4.70796e-06
4.60414e-06
4.5132e-06
4.4156e-06
4.3333e-06
4.24087e-06
4.16685e-06
4.07966e-06
4.01239e-06
3.93116e-06
3.86877e-06
3.79456e-06
3.7356e-06
3.6694e-06
3.61201e-06
3.55501e-06
3.49801e-06
3.4538e-06
3.39454e-06
3.37495e-06
3.31902e-06
2.01672e-05
1.97239e-05
1.61674e-05
4.86134e-06
3.04249e-06
3.10588e-06
3.37506e-06
3.80553e-06
4.17163e-06
4.49036e-06
4.73779e-06
4.92849e-06
5.06839e-06
5.17021e-06
5.22769e-06
5.26506e-06
5.26793e-06
5.25965e-06
5.2363e-06
5.20035e-06
5.14939e-06
5.0969e-06
5.03361e-06
4.9717e-06
4.9014e-06
4.83414e-06
4.75865e-06
4.68909e-06
4.61348e-06
4.54465e-06
4.47031e-06
4.40416e-06
4.33128e-06
4.26908e-06
4.19778e-06
4.13957e-06
4.07132e-06
4.01555e-06
3.95265e-06
3.8985e-06
3.84186e-06
3.78731e-06
3.73811e-06
3.68167e-06
3.64091e-06
3.58189e-06
3.5503e-06
3.48919e-06
3.46933e-06
3.4134e-06
2.01476e-05
1.99342e-05
1.90656e-05
1.44986e-05
5.24306e-06
2.15468e-06
1.91471e-06
1.9942e-06
2.20797e-06
2.5074e-06
2.78312e-06
3.03759e-06
3.26172e-06
3.46003e-06
3.62272e-06
3.76258e-06
3.8729e-06
3.96312e-06
4.03233e-06
4.08714e-06
4.12388e-06
4.14968e-06
4.16378e-06
4.16736e-06
4.16411e-06
4.15654e-06
4.14055e-06
4.12286e-06
4.09758e-06
4.07268e-06
4.0413e-06
4.01197e-06
3.97619e-06
3.94427e-06
3.90547e-06
3.87222e-06
3.83271e-06
3.79713e-06
3.75844e-06
3.71928e-06
3.68346e-06
3.64106e-06
3.60943e-06
3.56396e-06
3.5366e-06
3.4889e-06
3.46463e-06
3.41455e-06
3.39657e-06
3.35463e-06
2.01216e-05
1.99661e-05
1.96424e-05
1.85463e-05
1.52122e-05
8.3586e-06
3.1049e-06
1.63318e-06
1.44262e-06
1.44991e-06
1.52726e-06
1.68919e-06
1.87091e-06
2.04918e-06
2.21839e-06
2.37932e-06
2.52527e-06
2.65824e-06
2.77507e-06
2.88033e-06
2.97089e-06
3.05051e-06
3.11798e-06
3.17609e-06
3.22342e-06
3.26452e-06
3.29647e-06
3.32352e-06
3.343e-06
3.35875e-06
3.36805e-06
3.37509e-06
3.37635e-06
3.37539e-06
3.37187e-06
3.36611e-06
3.35741e-06
3.34588e-06
3.33542e-06
3.31903e-06
3.30758e-06
3.2868e-06
3.27441e-06
3.25023e-06
3.23669e-06
3.20973e-06
3.19495e-06
3.16383e-06
3.14999e-06
3.12451e-06
2.00982e-05
1.99327e-05
1.97573e-05
1.93525e-05
1.85061e-05
1.65364e-05
1.23272e-05
6.85782e-06
2.9848e-06
1.49275e-06
1.24312e-06
1.14795e-06
1.15242e-06
1.19547e-06
1.28817e-06
1.39629e-06
1.50813e-06
1.61936e-06
1.72857e-06
1.83479e-06
1.93418e-06
2.02831e-06
2.11454e-06
2.19499e-06
2.26788e-06
2.33485e-06
2.39531e-06
2.4499e-06
2.49905e-06
2.54277e-06
2.58175e-06
2.61607e-06
2.64637e-06
2.67229e-06
2.69516e-06
2.7141e-06
2.73129e-06
2.74339e-06
2.7558e-06
2.76233e-06
2.77038e-06
2.77278e-06
2.77583e-06
2.77514e-06
2.77373e-06
2.7692e-06
2.76504e-06
2.7543e-06
2.7482e-06
2.73771e-06
2.00781e-05
1.98876e-05
1.97569e-05
1.94609e-05
1.91459e-05
1.86411e-05
1.75553e-05
1.5426e-05
1.17385e-05
7.44027e-06
3.97623e-06
1.90989e-06
1.20763e-06
1.05714e-06
9.81645e-07
9.43316e-07
9.54799e-07
9.89753e-07
1.05164e-06
1.11656e-06
1.18555e-06
1.25634e-06
1.32695e-06
1.3978e-06
1.46678e-06
1.53289e-06
1.59685e-06
1.65672e-06
1.71444e-06
1.76781e-06
1.81885e-06
1.86577e-06
1.91015e-06
1.95067e-06
1.98889e-06
2.02311e-06
2.05597e-06
2.08432e-06
2.11208e-06
2.13507e-06
2.15807e-06
2.17631e-06
2.19472e-06
2.20796e-06
2.22247e-06
2.23042e-06
2.24076e-06
2.24323e-06
2.24742e-06
2.24599e-06
2.00614e-05
1.98539e-05
1.97343e-05
1.94712e-05
1.92552e-05
1.9047e-05
1.87357e-05
1.81904e-05
1.70963e-05
1.52312e-05
1.25616e-05
9.22517e-06
5.95981e-06
3.4667e-06
1.87293e-06
1.16472e-06
9.64092e-07
8.90791e-07
8.36014e-07
7.97063e-07
7.99234e-07
8.13335e-07
8.43759e-07
8.83086e-07
9.23373e-07
9.66259e-07
1.01145e-06
1.05639e-06
1.103e-06
1.14844e-06
1.1939e-06
1.23758e-06
1.28033e-06
1.32125e-06
1.36096e-06
1.39847e-06
1.43492e-06
1.46889e-06
1.50192e-06
1.53192e-06
1.5615e-06
1.58765e-06
1.61354e-06
1.63531e-06
1.65754e-06
1.67514e-06
1.69243e-06
1.70561e-06
1.71637e-06
1.72532e-06
2.00475e-05
1.98303e-05
1.97077e-05
1.94491e-05
1.92721e-05
1.9115e-05
1.89651e-05
1.875e-05
1.84618e-05
1.79113e-05
1.70761e-05
1.56961e-05
1.38762e-05
1.15198e-05
8.83588e-06
6.22402e-06
4.05531e-06
2.4866e-06
1.49484e-06
1.02642e-06
8.61608e-07
7.98705e-07
7.50426e-07
7.11005e-07
6.81944e-07
6.80628e-07
6.86823e-07
7.01723e-07
7.2414e-07
7.48395e-07
7.73887e-07
8.00673e-07
8.28796e-07
8.57817e-07
8.87167e-07
9.1709e-07
9.46494e-07
9.75889e-07
1.00441e-06
1.03199e-06
1.05909e-06
1.08484e-06
1.10988e-06
1.13296e-06
1.15564e-06
1.17614e-06
1.1949e-06
1.21221e-06
1.22562e-06
1.23896e-06
2.00362e-05
1.98125e-05
1.96852e-05
1.94188e-05
1.9258e-05
1.91086e-05
1.90001e-05
1.88488e-05
1.87115e-05
1.84996e-05
1.82464e-05
1.78307e-05
1.72282e-05
1.63565e-05
1.51511e-05
1.36123e-05
1.17961e-05
9.70455e-06
7.55617e-06
5.55539e-06
3.88023e-06
2.60667e-06
1.69785e-06
1.14476e-06
8.74297e-07
7.62614e-07
7.10703e-07
6.73602e-07
6.38045e-07
6.09437e-07
5.89821e-07
5.84446e-07
5.86895e-07
5.93681e-07
6.05136e-07
6.19474e-07
6.33696e-07
6.49738e-07
6.65464e-07
6.82408e-07
6.99746e-07
7.17667e-07
7.3543e-07
7.53058e-07
7.70621e-07
7.87362e-07
8.03023e-07
8.17915e-07
8.30102e-07
8.42536e-07
2.00272e-05
1.97986e-05
1.96661e-05
1.93969e-05
1.92323e-05
1.90812e-05
1.89819e-05
1.88524e-05
1.87354e-05
1.85955e-05
1.8458e-05
1.8288e-05
1.80782e-05
1.77919e-05
1.7404e-05
1.68592e-05
1.61474e-05
1.52221e-05
1.40737e-05
1.27265e-05
1.12161e-05
9.54656e-06
7.83039e-06
6.19022e-06
4.7057e-06
3.4733e-06
2.49897e-06
1.75736e-06
1.23902e-06
9.25459e-07
7.59927e-07
6.79803e-07
6.36755e-07
6.06639e-07
5.78895e-07
5.53214e-07
5.3064e-07
5.15911e-07
5.06201e-07
5.0485e-07
5.06374e-07
5.1043e-07
5.16382e-07
5.23911e-07
5.31494e-07
5.39624e-07
5.46861e-07
5.54758e-07
5.6071e-07
5.68155e-07
2.002e-05
1.97901e-05
1.96459e-05
1.93804e-05
1.92082e-05
1.90522e-05
1.89437e-05
1.8826e-05
1.87137e-05
1.85889e-05
1.84696e-05
1.83437e-05
1.82185e-05
1.8075e-05
1.79184e-05
1.77186e-05
1.7474e-05
1.71531e-05
1.6747e-05
1.62205e-05
1.55814e-05
1.47945e-05
1.38733e-05
1.28074e-05
1.16483e-05
1.03849e-05
9.04275e-06
7.68759e-06
6.37147e-06
5.15927e-06
4.06846e-06
3.15991e-06
2.41538e-06
1.81713e-06
1.35818e-06
1.03141e-06
8.20581e-07
6.95624e-07
6.24987e-07
5.84121e-07
5.56633e-07
5.34513e-07
5.14533e-07
4.95741e-07
4.77734e-07
4.63675e-07
4.50996e-07
4.44096e-07
4.37105e-07
4.36005e-07
2.00145e-05
1.979e-05
1.96198e-05
1.93669e-05
1.91877e-05
1.90254e-05
1.89078e-05
1.87895e-05
1.86738e-05
1.8553e-05
1.84389e-05
1.83217e-05
1.82092e-05
1.80894e-05
1.79767e-05
1.78539e-05
1.773e-05
1.75862e-05
1.74284e-05
1.72314e-05
1.7002e-05
1.6714e-05
1.63707e-05
1.59474e-05
1.54493e-05
1.48627e-05
1.41908e-05
1.34206e-05
1.2577e-05
1.16485e-05
1.06863e-05
9.65862e-06
8.59716e-06
7.53516e-06
6.50291e-06
5.52416e-06
4.6287e-06
3.81817e-06
3.12428e-06
2.5379e-06
2.04538e-06
1.63991e-06
1.31494e-06
1.0659e-06
8.83997e-07
7.58176e-07
6.73115e-07
6.21095e-07
5.82705e-07
5.68488e-07
2.00102e-05
1.97941e-05
1.95933e-05
1.93529e-05
1.9169e-05
1.89998e-05
1.88744e-05
1.87533e-05
1.8634e-05
1.85101e-05
1.83926e-05
1.82754e-05
1.81641e-05
1.80507e-05
1.79443e-05
1.78347e-05
1.77274e-05
1.76186e-05
1.75125e-05
1.7399e-05
1.72834e-05
1.71542e-05
1.70125e-05
1.68484e-05
1.66582e-05
1.64362e-05
1.61785e-05
1.58766e-05
1.55259e-05
1.51237e-05
1.46667e-05
1.41596e-05
1.35888e-05
1.29718e-05
1.22951e-05
1.15867e-05
1.08323e-05
1.00681e-05
9.27441e-06
8.46868e-06
7.66539e-06
6.88651e-06
6.14062e-06
5.44526e-06
4.80657e-06
4.24202e-06
3.74121e-06
3.33044e-06
2.97441e-06
2.71349e-06
2.0007e-05
1.98014e-05
1.95689e-05
1.93393e-05
1.91515e-05
1.89758e-05
1.88425e-05
1.87186e-05
1.85952e-05
1.84686e-05
1.83454e-05
1.82271e-05
1.81111e-05
1.79959e-05
1.78871e-05
1.77785e-05
1.76734e-05
1.75723e-05
1.74722e-05
1.7373e-05
1.72743e-05
1.71765e-05
1.70771e-05
1.698e-05
1.6873e-05
1.67669e-05
1.66482e-05
1.65242e-05
1.63777e-05
1.62212e-05
1.60394e-05
1.58401e-05
1.56084e-05
1.53579e-05
1.50663e-05
1.47525e-05
1.43986e-05
1.40144e-05
1.36015e-05
1.31576e-05
1.26783e-05
1.21818e-05
1.16591e-05
1.11267e-05
1.05833e-05
1.00557e-05
9.52172e-06
9.03289e-06
8.54863e-06
8.13523e-06
2.00047e-05
1.98099e-05
1.95462e-05
1.93259e-05
1.91344e-05
1.89535e-05
1.88117e-05
1.86854e-05
1.85578e-05
1.84288e-05
1.82997e-05
1.81796e-05
1.80588e-05
1.79411e-05
1.78285e-05
1.77185e-05
1.76075e-05
1.75059e-05
1.74025e-05
1.73037e-05
1.72064e-05
1.71149e-05
1.70207e-05
1.69349e-05
1.68401e-05
1.6755e-05
1.66633e-05
1.65796e-05
1.64852e-05
1.63968e-05
1.63025e-05
1.62055e-05
1.60992e-05
1.59935e-05
1.58687e-05
1.57423e-05
1.55976e-05
1.54383e-05
1.52716e-05
1.50878e-05
1.48798e-05
1.46655e-05
1.44287e-05
1.41753e-05
1.39086e-05
1.36399e-05
1.33465e-05
1.30587e-05
1.27662e-05
1.24919e-05
2.0003e-05
1.98189e-05
1.95251e-05
1.93121e-05
1.91174e-05
1.89328e-05
1.87821e-05
1.86532e-05
1.85221e-05
1.83905e-05
1.82562e-05
1.81339e-05
1.80086e-05
1.78881e-05
1.77718e-05
1.76596e-05
1.75439e-05
1.74405e-05
1.73334e-05
1.7232e-05
1.71306e-05
1.70359e-05
1.69387e-05
1.68516e-05
1.67545e-05
1.66718e-05
1.65856e-05
1.65076e-05
1.64209e-05
1.6343e-05
1.62649e-05
1.61862e-05
1.61061e-05
1.60335e-05
1.59524e-05
1.5879e-05
1.57982e-05
1.57147e-05
1.56366e-05
1.55523e-05
1.54568e-05
1.53649e-05
1.52647e-05
1.5153e-05
1.5041e-05
1.49313e-05
1.48003e-05
1.46679e-05
1.45353e-05
1.44079e-05
2.00018e-05
1.98274e-05
1.95058e-05
1.92973e-05
1.91001e-05
1.89136e-05
1.87542e-05
1.86223e-05
1.84883e-05
1.83541e-05
1.82153e-05
1.80905e-05
1.79614e-05
1.78378e-05
1.77183e-05
1.76035e-05
1.74838e-05
1.73781e-05
1.7268e-05
1.71637e-05
1.70592e-05
1.69613e-05
1.68613e-05
1.67709e-05
1.66701e-05
1.65829e-05
1.6494e-05
1.64115e-05
1.6322e-05
1.62414e-05
1.61635e-05
1.60849e-05
1.60101e-05
1.59428e-05
1.58688e-05
1.58037e-05
1.57331e-05
1.56658e-05
1.56039e-05
1.55411e-05
1.54729e-05
1.54104e-05
1.5349e-05
1.52806e-05
1.52183e-05
1.51655e-05
1.50938e-05
1.50231e-05
1.49582e-05
1.49003e-05
2.00009e-05
1.98305e-05
1.94892e-05
1.92822e-05
1.90829e-05
1.88963e-05
1.87286e-05
1.85931e-05
1.84566e-05
1.83199e-05
1.81775e-05
1.80498e-05
1.79176e-05
1.77913e-05
1.76687e-05
1.75514e-05
1.74282e-05
1.73199e-05
1.72073e-05
1.71002e-05
1.69929e-05
1.68924e-05
1.67899e-05
1.66965e-05
1.65924e-05
1.65021e-05
1.64111e-05
1.63244e-05
1.6231e-05
1.61475e-05
1.60653e-05
1.59827e-05
1.59031e-05
1.58323e-05
1.57552e-05
1.56869e-05
1.56132e-05
1.55478e-05
1.54839e-05
1.54254e-05
1.53627e-05
1.53043e-05
1.52489e-05
1.5189e-05
1.51354e-05
1.50941e-05
1.50344e-05
1.49771e-05
1.49282e-05
1.48895e-05
2.00003e-05
1.98289e-05
1.94758e-05
1.92664e-05
1.90657e-05
1.88806e-05
1.87055e-05
1.8566e-05
1.84273e-05
1.82885e-05
1.81432e-05
1.80128e-05
1.78777e-05
1.77494e-05
1.76235e-05
1.75043e-05
1.7378e-05
1.7267e-05
1.71523e-05
1.7043e-05
1.69326e-05
1.68301e-05
1.67253e-05
1.66291e-05
1.65224e-05
1.64296e-05
1.63366e-05
1.62467e-05
1.61499e-05
1.60645e-05
1.5978e-05
1.58932e-05
1.58097e-05
1.57364e-05
1.56554e-05
1.55828e-05
1.55056e-05
1.54386e-05
1.53683e-05
1.53075e-05
1.52404e-05
1.51782e-05
1.51188e-05
1.50582e-05
1.50027e-05
1.49603e-05
1.48996e-05
1.48429e-05
1.47956e-05
1.47602e-05
2e-05
1.98271e-05
1.94644e-05
1.92494e-05
1.90477e-05
1.88662e-05
1.86848e-05
1.85411e-05
1.84005e-05
1.82603e-05
1.81127e-05
1.79798e-05
1.78423e-05
1.77127e-05
1.75835e-05
1.74629e-05
1.73338e-05
1.72206e-05
1.7104e-05
1.6993e-05
1.68796e-05
1.67757e-05
1.66686e-05
1.65698e-05
1.64609e-05
1.63661e-05
1.62711e-05
1.61784e-05
1.60789e-05
1.5992e-05
1.59015e-05
1.58153e-05
1.57288e-05
1.56538e-05
1.55695e-05
1.54938e-05
1.54143e-05
1.53453e-05
1.52707e-05
1.52085e-05
1.51374e-05
1.50722e-05
1.50087e-05
1.49462e-05
1.48879e-05
1.48419e-05
1.47771e-05
1.47187e-05
1.46686e-05
1.46297e-05
1.99999e-05
1.98259e-05
1.94558e-05
1.92321e-05
1.90298e-05
1.88533e-05
1.86672e-05
1.8519e-05
1.83766e-05
1.82359e-05
1.80865e-05
1.79517e-05
1.7812e-05
1.76817e-05
1.75494e-05
1.7428e-05
1.72964e-05
1.71816e-05
1.70632e-05
1.69511e-05
1.6835e-05
1.673e-05
1.66209e-05
1.65197e-05
1.64094e-05
1.63128e-05
1.62156e-05
1.61205e-05
1.60188e-05
1.59306e-05
1.58366e-05
1.57492e-05
1.56605e-05
1.55836e-05
1.54964e-05
1.54186e-05
1.53376e-05
1.52667e-05
1.51892e-05
1.5126e-05
1.50515e-05
1.49842e-05
1.49182e-05
1.48544e-05
1.47942e-05
1.47448e-05
1.46763e-05
1.46175e-05
1.4565e-05
1.45216e-05
1.99999e-05
1.98252e-05
1.94502e-05
1.92155e-05
1.90128e-05
1.88423e-05
1.86534e-05
1.85004e-05
1.83563e-05
1.8216e-05
1.80653e-05
1.79291e-05
1.77877e-05
1.76568e-05
1.7522e-05
1.74004e-05
1.72667e-05
1.7151e-05
1.7031e-05
1.69185e-05
1.68e-05
1.66943e-05
1.65834e-05
1.64802e-05
1.63688e-05
1.6271e-05
1.61715e-05
1.60745e-05
1.59708e-05
1.58813e-05
1.57844e-05
1.56959e-05
1.56054e-05
1.55266e-05
1.54369e-05
1.53577e-05
1.52751e-05
1.52028e-05
1.51231e-05
1.50589e-05
1.49815e-05
1.49126e-05
1.48449e-05
1.47806e-05
1.47186e-05
1.46659e-05
1.45945e-05
1.45366e-05
1.44819e-05
1.4434e-05
1.99999e-05
1.98249e-05
1.94473e-05
1.92004e-05
1.89973e-05
1.88334e-05
1.86437e-05
1.84861e-05
1.83403e-05
1.82009e-05
1.80495e-05
1.79126e-05
1.777e-05
1.76388e-05
1.75023e-05
1.73808e-05
1.72454e-05
1.71296e-05
1.70082e-05
1.68958e-05
1.67754e-05
1.66695e-05
1.65571e-05
1.64523e-05
1.63403e-05
1.62416e-05
1.61399e-05
1.60414e-05
1.59363e-05
1.58455e-05
1.57462e-05
1.56568e-05
1.55646e-05
1.54839e-05
1.53921e-05
1.53123e-05
1.52278e-05
1.51545e-05
1.5073e-05
1.50077e-05
1.49274e-05
1.48577e-05
1.47885e-05
1.47242e-05
1.46603e-05
1.4604e-05
1.45309e-05
1.44741e-05
1.44172e-05
1.43645e-05
1.99999e-05
1.9825e-05
1.94472e-05
1.91876e-05
1.89839e-05
1.88262e-05
1.86383e-05
1.84763e-05
1.8329e-05
1.81909e-05
1.80396e-05
1.79025e-05
1.77594e-05
1.7628e-05
1.74906e-05
1.73696e-05
1.72332e-05
1.71179e-05
1.69956e-05
1.68838e-05
1.67619e-05
1.66563e-05
1.6543e-05
1.64371e-05
1.63249e-05
1.62257e-05
1.61219e-05
1.60223e-05
1.59162e-05
1.58242e-05
1.57232e-05
1.5633e-05
1.55393e-05
1.54567e-05
1.53633e-05
1.52832e-05
1.51967e-05
1.51229e-05
1.50399e-05
1.49734e-05
1.48902e-05
1.48204e-05
1.47497e-05
1.46856e-05
1.46195e-05
1.45596e-05
1.44856e-05
1.44299e-05
1.43704e-05
1.43129e-05
1.99999e-05
1.98256e-05
1.94494e-05
1.91773e-05
1.89726e-05
1.88206e-05
1.8637e-05
1.84712e-05
1.83224e-05
1.8186e-05
1.80357e-05
1.78991e-05
1.7756e-05
1.76248e-05
1.74873e-05
1.73673e-05
1.72308e-05
1.71166e-05
1.69938e-05
1.6883e-05
1.67604e-05
1.66557e-05
1.65418e-05
1.64353e-05
1.63234e-05
1.62242e-05
1.61185e-05
1.60182e-05
1.59116e-05
1.58187e-05
1.57162e-05
1.56256e-05
1.55302e-05
1.54463e-05
1.53518e-05
1.52715e-05
1.5183e-05
1.51091e-05
1.50247e-05
1.49568e-05
1.48707e-05
1.48019e-05
1.47296e-05
1.46654e-05
1.4597e-05
1.45336e-05
1.44593e-05
1.44045e-05
1.43416e-05
1.42796e-05
1.99999e-05
1.98267e-05
1.94542e-05
1.91706e-05
1.89639e-05
1.88169e-05
1.86394e-05
1.84711e-05
1.83208e-05
1.81863e-05
1.80377e-05
1.79021e-05
1.77595e-05
1.76288e-05
1.74918e-05
1.7373e-05
1.72369e-05
1.71237e-05
1.70011e-05
1.68912e-05
1.67687e-05
1.6665e-05
1.6551e-05
1.64446e-05
1.63331e-05
1.62341e-05
1.61273e-05
1.60267e-05
1.592e-05
1.58266e-05
1.57234e-05
1.56326e-05
1.5536e-05
1.54514e-05
1.53564e-05
1.52759e-05
1.5186e-05
1.51124e-05
1.5027e-05
1.49581e-05
1.48695e-05
1.48024e-05
1.47284e-05
1.46638e-05
1.4593e-05
1.45267e-05
1.44525e-05
1.43979e-05
1.43307e-05
1.42649e-05
1.99999e-05
1.98283e-05
1.94612e-05
1.91672e-05
1.89582e-05
1.88144e-05
1.86454e-05
1.84755e-05
1.83237e-05
1.81909e-05
1.80445e-05
1.79108e-05
1.77692e-05
1.76394e-05
1.75037e-05
1.73867e-05
1.72521e-05
1.71406e-05
1.70188e-05
1.69105e-05
1.67887e-05
1.66871e-05
1.65731e-05
1.64676e-05
1.63569e-05
1.62586e-05
1.61508e-05
1.60503e-05
1.59437e-05
1.585e-05
1.57461e-05
1.56551e-05
1.55571e-05
1.54721e-05
1.53767e-05
1.52959e-05
1.52047e-05
1.51315e-05
1.50448e-05
1.49745e-05
1.4884e-05
1.48187e-05
1.47427e-05
1.46775e-05
1.46045e-05
1.45363e-05
1.44622e-05
1.4407e-05
1.43356e-05
1.4267e-05
1.99999e-05
1.98303e-05
1.947e-05
1.91675e-05
1.89553e-05
1.88136e-05
1.86541e-05
1.84847e-05
1.83314e-05
1.82006e-05
1.80569e-05
1.79255e-05
1.77856e-05
1.7657e-05
1.75231e-05
1.74084e-05
1.72758e-05
1.71661e-05
1.7046e-05
1.69393e-05
1.68194e-05
1.67202e-05
1.66066e-05
1.65028e-05
1.63933e-05
1.6296e-05
1.61881e-05
1.6088e-05
1.5982e-05
1.58887e-05
1.57846e-05
1.56936e-05
1.5595e-05
1.55103e-05
1.54147e-05
1.53337e-05
1.52419e-05
1.51698e-05
1.50817e-05
1.50101e-05
1.49182e-05
1.48555e-05
1.47767e-05
1.47107e-05
1.4635e-05
1.45651e-05
1.44915e-05
1.44344e-05
1.43583e-05
1.42874e-05
1.99999e-05
1.98329e-05
1.94805e-05
1.91714e-05
1.89554e-05
1.88144e-05
1.86649e-05
1.84977e-05
1.83434e-05
1.82144e-05
1.80736e-05
1.79452e-05
1.78073e-05
1.76802e-05
1.75487e-05
1.74368e-05
1.73066e-05
1.7199e-05
1.70811e-05
1.69763e-05
1.68592e-05
1.67625e-05
1.66496e-05
1.65484e-05
1.64402e-05
1.63443e-05
1.62368e-05
1.61376e-05
1.60326e-05
1.59401e-05
1.58358e-05
1.57452e-05
1.56466e-05
1.55626e-05
1.54667e-05
1.53858e-05
1.52942e-05
1.52228e-05
1.51333e-05
1.50611e-05
1.4969e-05
1.49082e-05
1.48266e-05
1.476e-05
1.46823e-05
1.46115e-05
1.45378e-05
1.44782e-05
1.43978e-05
1.43254e-05
1.99999e-05
1.98359e-05
1.94918e-05
1.91792e-05
1.89586e-05
1.88172e-05
1.86774e-05
1.85143e-05
1.83593e-05
1.82319e-05
1.80941e-05
1.79691e-05
1.78333e-05
1.77083e-05
1.75796e-05
1.74707e-05
1.73431e-05
1.72381e-05
1.71227e-05
1.70203e-05
1.69066e-05
1.68127e-05
1.67009e-05
1.66028e-05
1.64961e-05
1.64023e-05
1.62955e-05
1.61974e-05
1.60939e-05
1.60025e-05
1.58981e-05
1.58083e-05
1.57103e-05
1.56272e-05
1.55309e-05
1.54505e-05
1.53596e-05
1.52888e-05
1.5198e-05
1.51257e-05
1.50341e-05
1.49744e-05
1.48898e-05
1.48231e-05
1.47435e-05
1.46721e-05
1.45975e-05
1.45351e-05
1.44507e-05
1.43778e-05
1.99999e-05
1.98392e-05
1.95039e-05
1.919e-05
1.8965e-05
1.88224e-05
1.86912e-05
1.85339e-05
1.83791e-05
1.82528e-05
1.8118e-05
1.79965e-05
1.78632e-05
1.77404e-05
1.76147e-05
1.75093e-05
1.73842e-05
1.72824e-05
1.71696e-05
1.70703e-05
1.69604e-05
1.6869e-05
1.67592e-05
1.66644e-05
1.65595e-05
1.64683e-05
1.63623e-05
1.62659e-05
1.61642e-05
1.6074e-05
1.59698e-05
1.58812e-05
1.57841e-05
1.5702e-05
1.56054e-05
1.5526e-05
1.54361e-05
1.53657e-05
1.52738e-05
1.52019e-05
1.51113e-05
1.50518e-05
1.49645e-05
1.48979e-05
1.48162e-05
1.47448e-05
1.46681e-05
1.46035e-05
1.45148e-05
1.44426e-05
1.99999e-05
1.98428e-05
1.95163e-05
1.92036e-05
1.89741e-05
1.88298e-05
1.87057e-05
1.85558e-05
1.8402e-05
1.82766e-05
1.81447e-05
1.80267e-05
1.7896e-05
1.7776e-05
1.76533e-05
1.75515e-05
1.74288e-05
1.73308e-05
1.72204e-05
1.7125e-05
1.70187e-05
1.69302e-05
1.68229e-05
1.67313e-05
1.66289e-05
1.65406e-05
1.64353e-05
1.63414e-05
1.62417e-05
1.61524e-05
1.6049e-05
1.59619e-05
1.58659e-05
1.57848e-05
1.56882e-05
1.56101e-05
1.55212e-05
1.54512e-05
1.53587e-05
1.52876e-05
1.51979e-05
1.51378e-05
1.50483e-05
1.4982e-05
1.48981e-05
1.48267e-05
1.47475e-05
1.46804e-05
1.4588e-05
1.45165e-05
1.99999e-05
1.98465e-05
1.95288e-05
1.92196e-05
1.89861e-05
1.88398e-05
1.87208e-05
1.85795e-05
1.84276e-05
1.8303e-05
1.81735e-05
1.80588e-05
1.7931e-05
1.78141e-05
1.76943e-05
1.75962e-05
1.74758e-05
1.73822e-05
1.72739e-05
1.71833e-05
1.70802e-05
1.69949e-05
1.68907e-05
1.68021e-05
1.67028e-05
1.66175e-05
1.65131e-05
1.64224e-05
1.63244e-05
1.62361e-05
1.6134e-05
1.60485e-05
1.59535e-05
1.58737e-05
1.57772e-05
1.57005e-05
1.56127e-05
1.55432e-05
1.54506e-05
1.53801e-05
1.52916e-05
1.52298e-05
1.51393e-05
1.50727e-05
1.49868e-05
1.49148e-05
1.48338e-05
1.47624e-05
1.46687e-05
1.45962e-05
1.99999e-05
1.98504e-05
1.95413e-05
1.92373e-05
1.90006e-05
1.88522e-05
1.87364e-05
1.86043e-05
1.84554e-05
1.83315e-05
1.82042e-05
1.80923e-05
1.79677e-05
1.78541e-05
1.77371e-05
1.76425e-05
1.75245e-05
1.74356e-05
1.73292e-05
1.72438e-05
1.71433e-05
1.7062e-05
1.69611e-05
1.68753e-05
1.67799e-05
1.66971e-05
1.6594e-05
1.65072e-05
1.64103e-05
1.63234e-05
1.6223e-05
1.6139e-05
1.60451e-05
1.59667e-05
1.58704e-05
1.57954e-05
1.57087e-05
1.56394e-05
1.55472e-05
1.54773e-05
1.53902e-05
1.53255e-05
1.52352e-05
1.51674e-05
1.50796e-05
1.50072e-05
1.49244e-05
1.4847e-05
1.47547e-05
1.46779e-05
1.99999e-05
1.98544e-05
1.95536e-05
1.92564e-05
1.90175e-05
1.88668e-05
1.87526e-05
1.86297e-05
1.84849e-05
1.83619e-05
1.82362e-05
1.81268e-05
1.80055e-05
1.78953e-05
1.7781e-05
1.76895e-05
1.75742e-05
1.74899e-05
1.73855e-05
1.73053e-05
1.72071e-05
1.71304e-05
1.70327e-05
1.695e-05
1.68586e-05
1.6778e-05
1.66772e-05
1.65942e-05
1.6498e-05
1.6413e-05
1.63142e-05
1.62316e-05
1.61392e-05
1.6062e-05
1.59657e-05
1.58929e-05
1.58072e-05
1.57381e-05
1.56464e-05
1.55771e-05
1.54912e-05
1.54231e-05
1.53338e-05
1.5264e-05
1.51739e-05
1.51024e-05
1.50155e-05
1.49338e-05
1.48419e-05
1.47601e-05
1.99999e-05
1.98583e-05
1.95657e-05
1.92764e-05
1.90363e-05
1.88834e-05
1.87695e-05
1.86553e-05
1.85156e-05
1.83936e-05
1.82693e-05
1.81618e-05
1.8044e-05
1.79371e-05
1.78254e-05
1.77366e-05
1.76241e-05
1.75442e-05
1.74422e-05
1.73666e-05
1.72707e-05
1.71991e-05
1.71042e-05
1.70254e-05
1.69376e-05
1.68591e-05
1.67614e-05
1.66817e-05
1.65863e-05
1.65038e-05
1.64059e-05
1.63251e-05
1.62345e-05
1.61578e-05
1.60618e-05
1.59917e-05
1.59064e-05
1.58374e-05
1.57467e-05
1.5678e-05
1.55924e-05
1.55212e-05
1.54329e-05
1.53605e-05
1.52682e-05
1.51978e-05
1.5105e-05
1.50216e-05
1.4927e-05
1.48413e-05
1.99999e-05
1.98622e-05
1.95776e-05
1.92967e-05
1.90566e-05
1.89019e-05
1.87871e-05
1.86807e-05
1.85467e-05
1.84262e-05
1.83031e-05
1.8197e-05
1.80826e-05
1.7979e-05
1.78697e-05
1.77833e-05
1.76739e-05
1.75977e-05
1.74986e-05
1.74269e-05
1.73337e-05
1.72673e-05
1.71748e-05
1.71008e-05
1.70153e-05
1.69398e-05
1.68456e-05
1.67683e-05
1.66747e-05
1.65944e-05
1.64967e-05
1.64186e-05
1.63295e-05
1.62526e-05
1.61576e-05
1.60903e-05
1.60047e-05
1.59361e-05
1.58463e-05
1.57783e-05
1.56918e-05
1.56188e-05
1.55303e-05
1.54553e-05
1.53613e-05
1.52905e-05
1.51926e-05
1.51073e-05
1.50088e-05
1.492e-05
1.99999e-05
1.9866e-05
1.95892e-05
1.9317e-05
1.9078e-05
1.8922e-05
1.88056e-05
1.8706e-05
1.8578e-05
1.84594e-05
1.83375e-05
1.82324e-05
1.81213e-05
1.80206e-05
1.79136e-05
1.78293e-05
1.77228e-05
1.76499e-05
1.7554e-05
1.74858e-05
1.73955e-05
1.73342e-05
1.72439e-05
1.71753e-05
1.70912e-05
1.70196e-05
1.69284e-05
1.68534e-05
1.67623e-05
1.66835e-05
1.65861e-05
1.65113e-05
1.64228e-05
1.63455e-05
1.62524e-05
1.61874e-05
1.61006e-05
1.60334e-05
1.5944e-05
1.58768e-05
1.57879e-05
1.57154e-05
1.56239e-05
1.55477e-05
1.54512e-05
1.53798e-05
1.5276e-05
1.519e-05
1.50863e-05
1.49935e-05
1.99999e-05
1.98698e-05
1.96006e-05
1.9337e-05
1.90999e-05
1.89434e-05
1.88251e-05
1.87309e-05
1.8609e-05
1.8493e-05
1.83724e-05
1.82679e-05
1.81597e-05
1.80616e-05
1.79566e-05
1.78743e-05
1.77705e-05
1.77008e-05
1.76077e-05
1.7543e-05
1.74558e-05
1.73992e-05
1.73112e-05
1.7248e-05
1.71651e-05
1.70979e-05
1.70091e-05
1.69368e-05
1.68484e-05
1.67702e-05
1.6674e-05
1.66023e-05
1.6513e-05
1.64364e-05
1.63457e-05
1.62814e-05
1.61936e-05
1.61289e-05
1.60384e-05
1.59723e-05
1.58801e-05
1.58101e-05
1.57127e-05
1.56363e-05
1.55379e-05
1.54634e-05
1.53551e-05
1.5268e-05
1.51584e-05
1.50592e-05
1.99999e-05
1.98734e-05
1.96117e-05
1.93564e-05
1.91221e-05
1.89657e-05
1.88456e-05
1.87556e-05
1.86395e-05
1.85265e-05
1.84075e-05
1.83033e-05
1.81978e-05
1.81018e-05
1.79988e-05
1.79182e-05
1.78167e-05
1.77499e-05
1.76596e-05
1.75982e-05
1.75143e-05
1.74618e-05
1.73765e-05
1.73183e-05
1.72369e-05
1.7174e-05
1.70872e-05
1.70185e-05
1.69319e-05
1.68544e-05
1.67605e-05
1.66902e-05
1.65997e-05
1.65256e-05
1.64362e-05
1.63714e-05
1.62839e-05
1.62219e-05
1.61287e-05
1.60639e-05
1.59685e-05
1.59012e-05
1.57965e-05
1.57207e-05
1.56202e-05
1.55403e-05
1.54287e-05
1.53406e-05
1.52232e-05
1.51192e-05
1.99999e-05
1.98769e-05
1.96224e-05
1.93751e-05
1.91444e-05
1.89887e-05
1.88671e-05
1.878e-05
1.86695e-05
1.85597e-05
1.84428e-05
1.83387e-05
1.82354e-05
1.81411e-05
1.804e-05
1.79607e-05
1.78615e-05
1.7797e-05
1.77094e-05
1.76513e-05
1.75708e-05
1.75221e-05
1.74394e-05
1.73861e-05
1.73064e-05
1.72479e-05
1.71626e-05
1.70982e-05
1.70122e-05
1.69361e-05
1.68451e-05
1.67745e-05
1.66833e-05
1.66126e-05
1.65229e-05
1.64575e-05
1.63714e-05
1.63109e-05
1.62149e-05
1.61512e-05
1.60539e-05
1.5986e-05
1.58758e-05
1.58009e-05
1.56964e-05
1.56115e-05
1.54962e-05
1.54062e-05
1.52803e-05
1.51755e-05
1.99999e-05
1.98802e-05
1.96328e-05
1.93929e-05
1.91666e-05
1.90119e-05
1.88894e-05
1.88042e-05
1.86991e-05
1.85925e-05
1.84782e-05
1.83742e-05
1.82724e-05
1.81796e-05
1.808e-05
1.80017e-05
1.79048e-05
1.7842e-05
1.77572e-05
1.77021e-05
1.7625e-05
1.75797e-05
1.75002e-05
1.7451e-05
1.73735e-05
1.73192e-05
1.72356e-05
1.71753e-05
1.70896e-05
1.70157e-05
1.69268e-05
1.68555e-05
1.67644e-05
1.66962e-05
1.66055e-05
1.65406e-05
1.64557e-05
1.63947e-05
1.62978e-05
1.62343e-05
1.61357e-05
1.60633e-05
1.59521e-05
1.58765e-05
1.57652e-05
1.56771e-05
1.55578e-05
1.54625e-05
1.5333e-05
1.52228e-05
1.99999e-05
1.98834e-05
1.96427e-05
1.94099e-05
1.91885e-05
1.90352e-05
1.89123e-05
1.88283e-05
1.87282e-05
1.8625e-05
1.85134e-05
1.84095e-05
1.83087e-05
1.82173e-05
1.81189e-05
1.80411e-05
1.79467e-05