/*--------------------------------*- C++ -*----------------------------------*\
  =========                 |
  \\      /  F ield         | OpenFOAM: The Open Source CFD Toolbox
   \\    /   O peration     | Website:  https://openfoam.org
    \\  /    A nd           | Version:  7
     \\/     M anipulation  |
\*---------------------------------------------------------------------------*/
FoamFile
{
    version     2.0;
    format      ascii;
    class       volScalarField;
    location    "0.41";
    object      k_0;
}
// * * * * * * * * * * * * * * * * * * * * * * * * * * * * * * * * * * * * * //

dimensions      [0 2 -2 0 0 0 0];

internalField   nonuniform List<scalar> 
70000
(
1.08549e-05
4.21877e-06
2.82434e-06
2.31681e-06
1.99746e-06
1.75715e-06
1.56512e-06
1.4083e-06
1.27745e-06
1.16682e-06
1.07181e-06
9.89858e-07
9.18214e-07
8.55607e-07
8.00091e-07
7.51136e-07
7.07102e-07
6.68032e-07
6.32374e-07
6.0067e-07
5.71291e-07
5.45216e-07
5.20642e-07
4.98939e-07
4.78097e-07
4.59839e-07
4.41946e-07
4.26437e-07
4.10909e-07
3.97626e-07
3.84026e-07
3.7258e-07
3.60563e-07
3.50666e-07
3.39937e-07
3.31398e-07
3.21684e-07
3.14393e-07
3.05436e-07
2.99337e-07
2.9093e-07
2.86029e-07
2.77846e-07
2.7521e-07
2.66529e-07
2.67525e-07
2.58721e-07
2.75476e-07
2.62138e-07
3.23514e-07
1.72794e-05
1.13673e-05
8.52051e-06
7.01042e-06
6.03709e-06
5.3109e-06
4.73129e-06
4.25768e-06
3.86248e-06
3.52834e-06
3.24143e-06
2.99393e-06
2.77754e-06
2.58843e-06
2.42071e-06
2.27281e-06
2.13972e-06
2.02167e-06
1.91385e-06
1.81805e-06
1.7292e-06
1.6504e-06
1.57608e-06
1.51048e-06
1.44744e-06
1.39224e-06
1.33812e-06
1.29121e-06
1.24426e-06
1.20406e-06
1.16294e-06
1.12829e-06
1.09195e-06
1.062e-06
1.02953e-06
1.00371e-06
9.74271e-07
9.52264e-07
9.25086e-07
9.06699e-07
8.8119e-07
8.66432e-07
8.41593e-07
8.32392e-07
8.07337e-07
8.0586e-07
7.8317e-07
8.15995e-07
7.93129e-07
8.50694e-07
1.937e-05
1.61297e-05
1.3291e-05
1.12896e-05
9.82835e-06
8.69601e-06
7.77804e-06
7.02053e-06
6.38377e-06
5.84269e-06
5.37641e-06
4.97301e-06
4.61936e-06
4.30971e-06
4.03439e-06
3.79131e-06
3.57201e-06
3.37739e-06
3.19921e-06
3.04092e-06
2.89376e-06
2.76331e-06
2.63999e-06
2.53121e-06
2.42647e-06
2.33478e-06
2.24477e-06
2.16671e-06
2.08856e-06
2.02156e-06
1.95308e-06
1.89524e-06
1.83466e-06
1.78464e-06
1.73042e-06
1.68734e-06
1.63804e-06
1.6014e-06
1.55578e-06
1.52517e-06
1.48239e-06
1.45757e-06
1.4163e-06
1.39905e-06
1.35867e-06
1.35068e-06
1.31501e-06
1.34608e-06
1.33215e-06
1.35631e-06
1.9861e-05
1.826e-05
1.60856e-05
1.42003e-05
1.264e-05
1.13487e-05
1.02605e-05
9.33854e-06
8.54677e-06
7.86386e-06
7.2688e-06
6.74953e-06
6.2907e-06
5.88661e-06
5.52495e-06
5.20428e-06
4.91321e-06
4.65428e-06
4.41591e-06
4.20393e-06
4.00586e-06
3.83025e-06
3.66345e-06
3.51631e-06
3.3741e-06
3.24953e-06
3.12693e-06
3.02044e-06
2.91372e-06
2.82198e-06
2.72826e-06
2.64884e-06
2.56572e-06
2.49692e-06
2.42225e-06
2.36302e-06
2.29482e-06
2.24449e-06
2.18124e-06
2.13905e-06
2.07983e-06
2.04516e-06
1.98867e-06
1.96248e-06
1.90789e-06
1.8916e-06
1.84244e-06
1.85963e-06
1.85961e-06
1.85931e-06
1.99706e-05
1.78459e-05
1.60748e-05
1.47666e-05
1.36025e-05
1.25378e-05
1.15692e-05
1.07019e-05
9.92058e-06
9.22541e-06
8.60488e-06
8.05273e-06
7.55616e-06
7.11309e-06
6.7108e-06
6.35061e-06
6.01961e-06
5.72339e-06
5.44787e-06
5.20204e-06
4.97021e-06
4.76424e-06
4.56698e-06
4.39269e-06
4.2231e-06
4.07423e-06
3.92702e-06
3.79873e-06
3.66989e-06
3.55863e-06
3.44493e-06
3.3481e-06
3.24673e-06
3.16258e-06
3.07093e-06
2.99838e-06
2.91419e-06
2.85236e-06
2.77412e-06
2.7218e-06
2.64875e-06
2.60502e-06
2.53595e-06
2.50117e-06
2.43465e-06
2.4102e-06
2.34896e-06
2.34723e-06
2.34611e-06
2.32992e-06
2.00095e-05
1.47039e-05
1.37478e-05
1.32111e-05
1.25915e-05
1.19275e-05
1.1278e-05
1.0658e-05
1.00808e-05
9.5473e-06
9.0463e-06
8.58077e-06
8.14617e-06
7.74753e-06
7.37439e-06
7.03343e-06
6.71284e-06
6.42253e-06
6.14749e-06
5.90024e-06
5.66319e-06
5.45143e-06
5.24567e-06
5.06315e-06
4.88344e-06
4.72497e-06
4.56691e-06
4.42844e-06
4.28872e-06
4.16725e-06
4.04285e-06
3.93617e-06
3.82419e-06
3.7309e-06
3.62867e-06
3.54782e-06
3.45323e-06
3.38368e-06
3.29568e-06
3.23576e-06
3.15394e-06
3.10252e-06
3.02595e-06
2.98296e-06
2.91014e-06
2.87789e-06
2.81248e-06
2.78709e-06
2.77846e-06
2.74647e-06
2.01332e-05
1.54676e-05
9.63457e-06
9.39832e-06
9.49314e-06
9.49264e-06
9.43434e-06
9.29669e-06
9.05616e-06
8.78307e-06
8.48802e-06
8.19158e-06
7.89876e-06
7.61702e-06
7.33827e-06
7.07965e-06
6.82977e-06
6.59833e-06
6.37138e-06
6.16392e-06
5.95872e-06
5.77319e-06
5.58821e-06
5.42278e-06
5.25638e-06
5.10834e-06
4.95857e-06
4.8263e-06
4.6916e-06
4.57335e-06
4.45145e-06
4.34598e-06
4.2345e-06
4.14117e-06
4.03791e-06
3.95602e-06
3.85965e-06
3.78782e-06
3.69814e-06
3.63441e-06
3.55156e-06
3.49462e-06
3.41849e-06
3.36736e-06
3.29782e-06
3.25271e-06
3.1953e-06
3.14901e-06
3.13324e-06
3.08647e-06
2.01713e-05
1.8676e-05
8.69211e-06
5.54034e-06
5.63069e-06
5.93491e-06
6.29335e-06
6.57923e-06
6.75926e-06
6.86864e-06
6.88859e-06
6.86953e-06
6.8172e-06
6.73024e-06
6.6181e-06
6.49786e-06
6.35796e-06
6.21835e-06
6.07237e-06
5.934e-06
5.78944e-06
5.65601e-06
5.51753e-06
5.39193e-06
5.26119e-06
5.14539e-06
5.02557e-06
4.91844e-06
4.80715e-06
4.70796e-06
4.60415e-06
4.51318e-06
4.41561e-06
4.33328e-06
4.24087e-06
4.16683e-06
4.07963e-06
4.01239e-06
3.93111e-06
3.86877e-06
3.7945e-06
3.73561e-06
3.66933e-06
3.61201e-06
3.55494e-06
3.49797e-06
3.45376e-06
3.39447e-06
3.37493e-06
3.31904e-06
2.01672e-05
1.97239e-05
1.61674e-05
4.86135e-06
3.04249e-06
3.10588e-06
3.37506e-06
3.80554e-06
4.17164e-06
4.49037e-06
4.73781e-06
4.9285e-06
5.06841e-06
5.17022e-06
5.2277e-06
5.26506e-06
5.26793e-06
5.25965e-06
5.23631e-06
5.20035e-06
5.14939e-06
5.09692e-06
5.03362e-06
4.97172e-06
4.90141e-06
4.83417e-06
4.75866e-06
4.6891e-06
4.61349e-06
4.54466e-06
4.47033e-06
4.40416e-06
4.3313e-06
4.26907e-06
4.19779e-06
4.13957e-06
4.0713e-06
4.01557e-06
3.95262e-06
3.89852e-06
3.84181e-06
3.78733e-06
3.73806e-06
3.68168e-06
3.64087e-06
3.58187e-06
3.55029e-06
3.48916e-06
3.46933e-06
3.41345e-06
2.01476e-05
1.99342e-05
1.90656e-05
1.44986e-05
5.24307e-06
2.15468e-06
1.91471e-06
1.9942e-06
2.20798e-06
2.50741e-06
2.78314e-06
3.03761e-06
3.26174e-06
3.46004e-06
3.62273e-06
3.76259e-06
3.87291e-06
3.96313e-06
4.03234e-06
4.08715e-06
4.12389e-06
4.14969e-06
4.16379e-06
4.16738e-06
4.16413e-06
4.15656e-06
4.14057e-06
4.12288e-06
4.09761e-06
4.0727e-06
4.04133e-06
4.01198e-06
3.97622e-06
3.94428e-06
3.90549e-06
3.87224e-06
3.83271e-06
3.79716e-06
3.75843e-06
3.71932e-06
3.68345e-06
3.64109e-06
3.60943e-06
3.56399e-06
3.53661e-06
3.48891e-06
3.46465e-06
3.41456e-06
3.3966e-06
3.35474e-06
2.01216e-05
1.99661e-05
1.96424e-05
1.85463e-05
1.52122e-05
8.3586e-06
3.10489e-06
1.63318e-06
1.44262e-06
1.44991e-06
1.52727e-06
1.6892e-06
1.87092e-06
2.04919e-06
2.2184e-06
2.37933e-06
2.52527e-06
2.65825e-06
2.77507e-06
2.88034e-06
2.9709e-06
3.05053e-06
3.11799e-06
3.17611e-06
3.22344e-06
3.26455e-06
3.2965e-06
3.32354e-06
3.34304e-06
3.35878e-06
3.36809e-06
3.37512e-06
3.37638e-06
3.37543e-06
3.3719e-06
3.36616e-06
3.35742e-06
3.34592e-06
3.33544e-06
3.31907e-06
3.3076e-06
3.28684e-06
3.27445e-06
3.25028e-06
3.23674e-06
3.20978e-06
3.19501e-06
3.1639e-06
3.15004e-06
3.12464e-06
2.00982e-05
1.99327e-05
1.97573e-05
1.93525e-05
1.85061e-05
1.65364e-05
1.23272e-05
6.85778e-06
2.98476e-06
1.49274e-06
1.24312e-06
1.14795e-06
1.15242e-06
1.19548e-06
1.28817e-06
1.39629e-06
1.50814e-06
1.61937e-06
1.72857e-06
1.8348e-06
1.93419e-06
2.02832e-06
2.11455e-06
2.19501e-06
2.2679e-06
2.33488e-06
2.39534e-06
2.44993e-06
2.49909e-06
2.5428e-06
2.58179e-06
2.6161e-06
2.64641e-06
2.67233e-06
2.69519e-06
2.71415e-06
2.73133e-06
2.74343e-06
2.75584e-06
2.76238e-06
2.77043e-06
2.77283e-06
2.77589e-06
2.7752e-06
2.7738e-06
2.76928e-06
2.76513e-06
2.75439e-06
2.74831e-06
2.73782e-06
2.00781e-05
1.98876e-05
1.97569e-05
1.94609e-05
1.91459e-05
1.86411e-05
1.75553e-05
1.5426e-05
1.17384e-05
7.44018e-06
3.97615e-06
1.90985e-06
1.20762e-06
1.05714e-06
9.81642e-07
9.43316e-07
9.548e-07
9.89757e-07
1.05164e-06
1.11656e-06
1.18555e-06
1.25635e-06
1.32695e-06
1.39781e-06
1.4668e-06
1.53291e-06
1.59687e-06
1.65675e-06
1.71447e-06
1.76784e-06
1.81889e-06
1.8658e-06
1.91019e-06
1.95071e-06
1.98893e-06
2.02315e-06
2.05602e-06
2.08437e-06
2.11213e-06
2.13512e-06
2.15813e-06
2.17637e-06
2.19478e-06
2.20804e-06
2.22256e-06
2.23051e-06
2.24087e-06
2.24333e-06
2.24755e-06
2.24613e-06
2.00614e-05
1.98539e-05
1.97343e-05
1.94712e-05
1.92552e-05
1.9047e-05
1.87357e-05
1.81904e-05
1.70962e-05
1.52311e-05
1.25615e-05
9.22504e-06
5.95969e-06
3.46662e-06
1.87288e-06
1.1647e-06
9.64088e-07
8.90789e-07
8.36011e-07
7.97064e-07
7.99235e-07
8.13338e-07
8.43764e-07
8.83094e-07
9.23382e-07
9.66272e-07
1.01147e-06
1.05641e-06
1.10302e-06
1.14846e-06
1.19393e-06
1.23761e-06
1.28036e-06
1.32128e-06
1.361e-06
1.39851e-06
1.43496e-06
1.46894e-06
1.50196e-06
1.53197e-06
1.56156e-06
1.58772e-06
1.6136e-06
1.63539e-06
1.65763e-06
1.67523e-06
1.69254e-06
1.70572e-06
1.7165e-06
1.72545e-06
2.00475e-05
1.98303e-05
1.97077e-05
1.94491e-05
1.92721e-05
1.9115e-05
1.89651e-05
1.875e-05
1.84618e-05
1.79113e-05
1.70761e-05
1.5696e-05
1.38761e-05
1.15197e-05
8.83576e-06
6.22392e-06
4.05523e-06
2.48655e-06
1.49481e-06
1.02641e-06
8.61604e-07
7.98703e-07
7.50423e-07
7.11004e-07
6.81944e-07
6.80633e-07
6.8683e-07
7.01732e-07
7.24154e-07
7.48405e-07
7.73905e-07
8.0069e-07
8.28817e-07
8.57842e-07
8.87193e-07
9.1712e-07
9.46524e-07
9.75932e-07
1.00444e-06
1.03203e-06
1.05914e-06
1.0849e-06
1.10993e-06
1.13303e-06
1.15572e-06
1.17622e-06
1.195e-06
1.21231e-06
1.22573e-06
1.23908e-06
2.00362e-05
1.98125e-05
1.96852e-05
1.94188e-05
1.9258e-05
1.91086e-05
1.90001e-05
1.88488e-05
1.87115e-05
1.84996e-05
1.82464e-05
1.78306e-05
1.72281e-05
1.63564e-05
1.51511e-05
1.36122e-05
1.1796e-05
9.70446e-06
7.55608e-06
5.5553e-06
3.88015e-06
2.6066e-06
1.69779e-06
1.14472e-06
8.74278e-07
7.62606e-07
7.10698e-07
6.73597e-07
6.38041e-07
6.09434e-07
5.89821e-07
5.84452e-07
5.86903e-07
5.93693e-07
6.05149e-07
6.1949e-07
6.33711e-07
6.49766e-07
6.65482e-07
6.82439e-07
6.99781e-07
7.1771e-07
7.35466e-07
7.5311e-07
7.70683e-07
7.87421e-07
8.03099e-07
8.17979e-07
8.30202e-07
8.4262e-07
2.00272e-05
1.97986e-05
1.96661e-05
1.93969e-05
1.92323e-05
1.90812e-05
1.89819e-05
1.88523e-05
1.87354e-05
1.85955e-05
1.8458e-05
1.8288e-05
1.80782e-05
1.77919e-05
1.7404e-05
1.68591e-05
1.61474e-05
1.52221e-05
1.40737e-05
1.27265e-05
1.1216e-05
9.54647e-06
7.83026e-06
6.19008e-06
4.70553e-06
3.47313e-06
2.49881e-06
1.75723e-06
1.23891e-06
9.25393e-07
7.5989e-07
6.79784e-07
6.36742e-07
6.06629e-07
5.78883e-07
5.53203e-07
5.3063e-07
5.1591e-07
5.062e-07
5.04859e-07
5.06386e-07
5.10449e-07
5.16398e-07
5.23937e-07
5.31525e-07
5.39652e-07
5.46901e-07
5.54787e-07
5.60768e-07
5.682e-07
2.002e-05
1.97901e-05
1.96459e-05
1.93804e-05
1.92082e-05
1.90522e-05
1.89437e-05
1.88259e-05
1.87137e-05
1.85889e-05
1.84696e-05
1.83437e-05
1.82185e-05
1.8075e-05
1.79184e-05
1.77186e-05
1.7474e-05
1.71531e-05
1.6747e-05
1.62204e-05
1.55814e-05
1.47944e-05
1.38733e-05
1.28073e-05
1.16482e-05
1.03847e-05
9.04251e-06
7.6873e-06
6.37112e-06
5.15891e-06
4.06809e-06
3.15957e-06
2.41507e-06
1.81685e-06
1.35794e-06
1.03123e-06
8.20457e-07
6.95544e-07
6.24935e-07
5.84084e-07
5.56601e-07
5.34484e-07
5.14497e-07
4.95705e-07
4.777e-07
4.63639e-07
4.50967e-07
4.44067e-07
4.3709e-07
4.35994e-07
2.00145e-05
1.979e-05
1.96198e-05
1.93669e-05
1.91877e-05
1.90254e-05
1.89078e-05
1.87895e-05
1.86738e-05
1.8553e-05
1.84389e-05
1.83217e-05
1.82092e-05
1.80894e-05
1.79767e-05
1.78539e-05
1.773e-05
1.75863e-05
1.74284e-05
1.72314e-05
1.7002e-05
1.6714e-05
1.63707e-05
1.59473e-05
1.54493e-05
1.48626e-05
1.41907e-05
1.34204e-05
1.25767e-05
1.16482e-05
1.0686e-05
9.65818e-06
8.59666e-06
7.5346e-06
6.5023e-06
5.5235e-06
4.62802e-06
3.81748e-06
3.12361e-06
2.53725e-06
2.04476e-06
1.63934e-06
1.31442e-06
1.06545e-06
8.83631e-07
7.57883e-07
6.72892e-07
6.20921e-07
5.8259e-07
5.68406e-07
2.00102e-05
1.97941e-05
1.95933e-05
1.93529e-05
1.9169e-05
1.89998e-05
1.88744e-05
1.87533e-05
1.8634e-05
1.851e-05
1.83926e-05
1.82754e-05
1.8164e-05
1.80507e-05
1.79443e-05
1.78346e-05
1.77274e-05
1.76186e-05
1.75125e-05
1.7399e-05
1.72834e-05
1.71542e-05
1.70125e-05
1.68484e-05
1.66581e-05
1.64361e-05
1.61785e-05
1.58765e-05
1.55258e-05
1.51235e-05
1.46666e-05
1.41593e-05
1.35886e-05
1.29715e-05
1.22947e-05
1.15862e-05
1.08316e-05
1.00675e-05
9.27368e-06
8.46777e-06
7.66435e-06
6.88538e-06
6.13934e-06
5.44388e-06
4.80516e-06
4.24053e-06
3.73974e-06
3.329e-06
2.97319e-06
2.71238e-06
2.0007e-05
1.98015e-05
1.95689e-05
1.93393e-05
1.91515e-05
1.89758e-05
1.88425e-05
1.87186e-05
1.85952e-05
1.84685e-05
1.83454e-05
1.8227e-05
1.8111e-05
1.79959e-05
1.78871e-05
1.77785e-05
1.76734e-05
1.75723e-05
1.74722e-05
1.7373e-05
1.72743e-05
1.71765e-05
1.70771e-05
1.69799e-05
1.68729e-05
1.67669e-05
1.66482e-05
1.65241e-05
1.63776e-05
1.62211e-05
1.60393e-05
1.58399e-05
1.56083e-05
1.53578e-05
1.50661e-05
1.47524e-05
1.43982e-05
1.40141e-05
1.36012e-05
1.31571e-05
1.26777e-05
1.21811e-05
1.16582e-05
1.11257e-05
1.05823e-05
1.00544e-05
9.52023e-06
9.03119e-06
8.54705e-06
8.13354e-06
2.00047e-05
1.98099e-05
1.95462e-05
1.93259e-05
1.91344e-05
1.89535e-05
1.88116e-05
1.86854e-05
1.85578e-05
1.84287e-05
1.82997e-05
1.81796e-05
1.80587e-05
1.79411e-05
1.78285e-05
1.77185e-05
1.76075e-05
1.75059e-05
1.74025e-05
1.73037e-05
1.72064e-05
1.71149e-05
1.70208e-05
1.69348e-05
1.684e-05
1.6755e-05
1.66633e-05
1.65796e-05
1.64851e-05
1.63968e-05
1.63024e-05
1.62053e-05
1.60992e-05
1.59935e-05
1.58686e-05
1.57423e-05
1.55973e-05
1.54382e-05
1.52716e-05
1.50875e-05
1.48795e-05
1.46653e-05
1.44282e-05
1.41748e-05
1.39083e-05
1.36393e-05
1.33455e-05
1.30578e-05
1.27654e-05
1.24911e-05
2.0003e-05
1.98189e-05
1.95251e-05
1.93121e-05
1.91174e-05
1.89328e-05
1.87821e-05
1.86532e-05
1.85221e-05
1.83904e-05
1.82561e-05
1.81339e-05
1.80085e-05
1.78881e-05
1.77718e-05
1.76596e-05
1.7544e-05
1.74406e-05
1.73334e-05
1.7232e-05
1.71306e-05
1.70359e-05
1.69388e-05
1.68516e-05
1.67544e-05
1.66718e-05
1.65857e-05
1.65075e-05
1.64207e-05
1.6343e-05
1.62648e-05
1.6186e-05
1.61061e-05
1.60335e-05
1.59523e-05
1.5879e-05
1.5798e-05
1.57147e-05
1.56367e-05
1.55521e-05
1.54567e-05
1.53649e-05
1.52644e-05
1.51526e-05
1.50411e-05
1.49311e-05
1.47997e-05
1.46674e-05
1.45352e-05
1.44077e-05
2.00018e-05
1.98274e-05
1.95058e-05
1.92973e-05
1.91001e-05
1.89136e-05
1.87542e-05
1.86223e-05
1.84882e-05
1.8354e-05
1.82152e-05
1.80905e-05
1.79613e-05
1.78378e-05
1.77183e-05
1.76035e-05
1.74838e-05
1.73782e-05
1.7268e-05
1.71637e-05
1.70593e-05
1.69614e-05
1.68614e-05
1.67709e-05
1.667e-05
1.6583e-05
1.64941e-05
1.64114e-05
1.63218e-05
1.62414e-05
1.61634e-05
1.60847e-05
1.60102e-05
1.59427e-05
1.58687e-05
1.58036e-05
1.57329e-05
1.56658e-05
1.56039e-05
1.55409e-05
1.54727e-05
1.54104e-05
1.53487e-05
1.52803e-05
1.52185e-05
1.51654e-05
1.50932e-05
1.50229e-05
1.49584e-05
1.49003e-05
2.00009e-05
1.98305e-05
1.94892e-05
1.92822e-05
1.9083e-05
1.88963e-05
1.87285e-05
1.85931e-05
1.84566e-05
1.83198e-05
1.81774e-05
1.80498e-05
1.79175e-05
1.77913e-05
1.76687e-05
1.75513e-05
1.74282e-05
1.732e-05
1.72074e-05
1.71003e-05
1.69929e-05
1.68924e-05
1.679e-05
1.66964e-05
1.65923e-05
1.65022e-05
1.64111e-05
1.63243e-05
1.62308e-05
1.61475e-05
1.60651e-05
1.59825e-05
1.59031e-05
1.58323e-05
1.57551e-05
1.56867e-05
1.5613e-05
1.55478e-05
1.54839e-05
1.54253e-05
1.53625e-05
1.53042e-05
1.52487e-05
1.51888e-05
1.51357e-05
1.50941e-05
1.50338e-05
1.49768e-05
1.49286e-05
1.48896e-05
2.00003e-05
1.98289e-05
1.94758e-05
1.92664e-05
1.90657e-05
1.88806e-05
1.87054e-05
1.8566e-05
1.84273e-05
1.82884e-05
1.81431e-05
1.80128e-05
1.78776e-05
1.77494e-05
1.76236e-05
1.75042e-05
1.7378e-05
1.72672e-05
1.71524e-05
1.7043e-05
1.69326e-05
1.68302e-05
1.67254e-05
1.6629e-05
1.65222e-05
1.64297e-05
1.63367e-05
1.62465e-05
1.61497e-05
1.60645e-05
1.59778e-05
1.5893e-05
1.58097e-05
1.57364e-05
1.56552e-05
1.55827e-05
1.55054e-05
1.54385e-05
1.53683e-05
1.53074e-05
1.52401e-05
1.5178e-05
1.51186e-05
1.50579e-05
1.5003e-05
1.49602e-05
1.48989e-05
1.48426e-05
1.47961e-05
1.47602e-05
2e-05
1.98271e-05
1.94644e-05
1.92494e-05
1.90477e-05
1.88662e-05
1.86848e-05
1.85411e-05
1.84004e-05
1.82602e-05
1.81126e-05
1.79798e-05
1.78422e-05
1.77127e-05
1.75835e-05
1.74628e-05
1.73337e-05
1.72207e-05
1.7104e-05
1.6993e-05
1.68796e-05
1.67757e-05
1.66686e-05
1.65697e-05
1.64608e-05
1.63662e-05
1.62711e-05
1.61781e-05
1.60787e-05
1.5992e-05
1.59014e-05
1.58151e-05
1.57288e-05
1.56537e-05
1.55692e-05
1.54936e-05
1.54142e-05
1.53452e-05
1.52707e-05
1.52084e-05
1.51371e-05
1.5072e-05
1.50085e-05
1.4946e-05
1.48881e-05
1.48418e-05
1.47764e-05
1.47184e-05
1.46689e-05
1.46296e-05
1.99999e-05
1.98259e-05
1.94558e-05
1.92321e-05
1.90298e-05
1.88533e-05
1.86672e-05
1.85189e-05
1.83765e-05
1.82358e-05
1.80864e-05
1.79517e-05
1.7812e-05
1.76816e-05
1.75494e-05
1.74279e-05
1.72963e-05
1.71817e-05
1.70633e-05
1.69511e-05
1.68351e-05
1.67301e-05
1.66209e-05
1.65196e-05
1.64092e-05
1.63129e-05
1.62156e-05
1.61203e-05
1.60186e-05
1.59305e-05
1.58364e-05
1.5749e-05
1.56605e-05
1.55835e-05
1.54961e-05
1.54184e-05
1.53374e-05
1.52665e-05
1.51892e-05
1.51259e-05
1.50512e-05
1.4984e-05
1.4918e-05
1.48542e-05
1.47943e-05
1.47445e-05
1.46756e-05
1.46173e-05
1.45652e-05
1.45214e-05
1.99999e-05
1.98252e-05
1.94502e-05
1.92155e-05
1.90128e-05
1.88424e-05
1.86534e-05
1.85004e-05
1.83562e-05
1.82158e-05
1.80652e-05
1.7929e-05
1.77876e-05
1.76568e-05
1.75221e-05
1.74004e-05
1.72666e-05
1.71511e-05
1.70311e-05
1.69185e-05
1.68e-05
1.66944e-05
1.65834e-05
1.64801e-05
1.63687e-05
1.62711e-05
1.61714e-05
1.60742e-05
1.59707e-05
1.58812e-05
1.57842e-05
1.56957e-05
1.56053e-05
1.55264e-05
1.54366e-05
1.53575e-05
1.5275e-05
1.52026e-05
1.5123e-05
1.50588e-05
1.4981e-05
1.49124e-05
1.48447e-05
1.47804e-05
1.47187e-05
1.46656e-05
1.45939e-05
1.45365e-05
1.4482e-05
1.44336e-05
1.99999e-05
1.98249e-05
1.94473e-05
1.92005e-05
1.89973e-05
1.88334e-05
1.86437e-05
1.8486e-05
1.83403e-05
1.82007e-05
1.80494e-05
1.79125e-05
1.77699e-05
1.76388e-05
1.75023e-05
1.73807e-05
1.72453e-05
1.71297e-05
1.70083e-05
1.68958e-05
1.67754e-05
1.66696e-05
1.65571e-05
1.64522e-05
1.63403e-05
1.62417e-05
1.61398e-05
1.60411e-05
1.59361e-05
1.58453e-05
1.5746e-05
1.56566e-05
1.55645e-05
1.54837e-05
1.53918e-05
1.53121e-05
1.52276e-05
1.51543e-05
1.50729e-05
1.50075e-05
1.49269e-05
1.48574e-05
1.47882e-05
1.4724e-05
1.46603e-05
1.46035e-05
1.45303e-05
1.4474e-05
1.44172e-05
1.4364e-05
1.99999e-05
1.9825e-05
1.94472e-05
1.91876e-05
1.89838e-05
1.88263e-05
1.86384e-05
1.84762e-05
1.83289e-05
1.81907e-05
1.80395e-05
1.79024e-05
1.77593e-05
1.7628e-05
1.74906e-05
1.73696e-05
1.72332e-05
1.71181e-05
1.69957e-05
1.68838e-05
1.6762e-05
1.66565e-05
1.6543e-05
1.64369e-05
1.63248e-05
1.62258e-05
1.61218e-05
1.6022e-05
1.5916e-05
1.5824e-05
1.57229e-05
1.56328e-05
1.55391e-05
1.54565e-05
1.5363e-05
1.5283e-05
1.51965e-05
1.51227e-05
1.50397e-05
1.49731e-05
1.48896e-05
1.48202e-05
1.47495e-05
1.46854e-05
1.46193e-05
1.4559e-05
1.44851e-05
1.44298e-05
1.43702e-05
1.43123e-05
1.99999e-05
1.98256e-05
1.94494e-05
1.91774e-05
1.89726e-05
1.88207e-05
1.86371e-05
1.84711e-05
1.83223e-05
1.81858e-05
1.80355e-05
1.7899e-05
1.77558e-05
1.76247e-05
1.74873e-05
1.73673e-05
1.72308e-05
1.71167e-05
1.69939e-05
1.6883e-05
1.67604e-05
1.66558e-05
1.65418e-05
1.64352e-05
1.63234e-05
1.62242e-05
1.61184e-05
1.60179e-05
1.59113e-05
1.58184e-05
1.57159e-05
1.56253e-05
1.553e-05
1.5446e-05
1.53515e-05
1.52712e-05
1.51828e-05
1.51089e-05
1.50245e-05
1.49564e-05
1.48702e-05
1.48016e-05
1.47294e-05
1.46652e-05
1.45966e-05
1.4533e-05
1.44589e-05
1.44044e-05
1.43412e-05
1.42788e-05
1.99999e-05
1.98267e-05
1.94542e-05
1.91707e-05
1.89639e-05
1.88169e-05
1.86394e-05
1.8471e-05
1.83207e-05
1.81861e-05
1.80375e-05
1.7902e-05
1.77593e-05
1.76287e-05
1.74918e-05
1.73729e-05
1.72369e-05
1.71239e-05
1.70012e-05
1.68913e-05
1.67687e-05
1.66652e-05
1.65509e-05
1.64445e-05
1.6333e-05
1.6234e-05
1.61271e-05
1.60264e-05
1.59197e-05
1.58263e-05
1.5723e-05
1.56323e-05
1.55358e-05
1.5451e-05
1.53561e-05
1.52756e-05
1.51857e-05
1.51122e-05
1.50268e-05
1.49576e-05
1.4869e-05
1.48022e-05
1.47282e-05
1.46635e-05
1.45925e-05
1.45261e-05
1.44522e-05
1.43978e-05
1.43302e-05
1.4264e-05
1.99999e-05
1.98283e-05
1.94612e-05
1.91673e-05
1.89581e-05
1.88145e-05
1.86455e-05
1.84753e-05
1.83236e-05
1.81908e-05
1.80443e-05
1.79107e-05
1.77691e-05
1.76393e-05
1.75037e-05
1.73867e-05
1.7252e-05
1.71407e-05
1.70189e-05
1.69105e-05
1.67888e-05
1.66873e-05
1.65731e-05
1.64675e-05
1.63569e-05
1.62585e-05
1.61506e-05
1.60499e-05
1.59434e-05
1.58497e-05
1.57457e-05
1.56548e-05
1.55569e-05
1.54717e-05
1.53764e-05
1.52955e-05
1.52044e-05
1.51313e-05
1.50445e-05
1.49739e-05
1.48834e-05
1.48185e-05
1.47423e-05
1.46771e-05
1.46039e-05
1.45357e-05
1.4462e-05
1.44068e-05
1.43349e-05
1.42662e-05
1.99999e-05
1.98303e-05
1.947e-05
1.91676e-05
1.89553e-05
1.88137e-05
1.86541e-05
1.84846e-05
1.83313e-05
1.82005e-05
1.80567e-05
1.79254e-05
1.77854e-05
1.76568e-05
1.75232e-05
1.74084e-05
1.72758e-05
1.71663e-05
1.70461e-05
1.69393e-05
1.68195e-05
1.67203e-05
1.66065e-05
1.65028e-05
1.63933e-05
1.62959e-05
1.61878e-05
1.60877e-05
1.59818e-05
1.58884e-05
1.57841e-05
1.56933e-05
1.55947e-05
1.551e-05
1.54143e-05
1.53333e-05
1.52417e-05
1.51695e-05
1.50813e-05
1.50094e-05
1.49177e-05
1.48552e-05
1.47763e-05
1.47102e-05
1.46343e-05
1.45645e-05
1.44912e-05
1.44341e-05
1.43574e-05
1.42866e-05
1.99999e-05
1.98329e-05
1.94805e-05
1.91714e-05
1.89554e-05
1.88145e-05
1.8665e-05
1.84976e-05
1.83433e-05
1.82143e-05
1.80735e-05
1.79451e-05
1.7807e-05
1.768e-05
1.75488e-05
1.74367e-05
1.73066e-05
1.71991e-05
1.70812e-05
1.69763e-05
1.68593e-05
1.67627e-05
1.66495e-05
1.65484e-05
1.64401e-05
1.63442e-05
1.62365e-05
1.61372e-05
1.60323e-05
1.59397e-05
1.58353e-05
1.57448e-05
1.56462e-05
1.55622e-05
1.54663e-05
1.53853e-05
1.52939e-05
1.52224e-05
1.51328e-05
1.50604e-05
1.49685e-05
1.4908e-05
1.4826e-05
1.47595e-05
1.46816e-05
1.46109e-05
1.45376e-05
1.44777e-05
1.43969e-05
1.43248e-05
1.99999e-05
1.98359e-05
1.94918e-05
1.91792e-05
1.89587e-05
1.88172e-05
1.86774e-05
1.85141e-05
1.83592e-05
1.82317e-05
1.8094e-05
1.7969e-05
1.78331e-05
1.7708e-05
1.75796e-05
1.74707e-05
1.73431e-05
1.72382e-05
1.71228e-05
1.70204e-05
1.69068e-05
1.68128e-05
1.67008e-05
1.66028e-05
1.6496e-05
1.64021e-05
1.62951e-05
1.6197e-05
1.60936e-05
1.60021e-05
1.58976e-05
1.58078e-05
1.57099e-05
1.56268e-05
1.55304e-05
1.545e-05
1.53593e-05
1.52884e-05
1.51974e-05
1.5125e-05
1.50337e-05
1.49741e-05
1.48892e-05
1.48225e-05
1.47427e-05
1.46715e-05
1.45973e-05
1.45345e-05
1.44498e-05
1.43774e-05
1.99999e-05
1.98392e-05
1.95039e-05
1.91901e-05
1.8965e-05
1.88224e-05
1.86913e-05
1.85338e-05
1.83789e-05
1.82526e-05
1.81179e-05
1.79964e-05
1.78629e-05
1.77402e-05
1.76148e-05
1.75093e-05
1.73842e-05
1.72825e-05
1.71697e-05
1.70704e-05
1.69606e-05
1.68692e-05
1.67591e-05
1.66644e-05
1.65595e-05
1.64681e-05
1.63619e-05
1.62655e-05
1.61639e-05
1.60735e-05
1.59693e-05
1.58807e-05
1.57837e-05
1.57015e-05
1.56048e-05
1.55255e-05
1.54357e-05
1.53652e-05
1.52731e-05
1.52012e-05
1.51108e-05
1.50514e-05
1.49637e-05
1.48973e-05
1.48154e-05
1.47442e-05
1.46678e-05
1.46028e-05
1.4514e-05
1.44422e-05
1.99999e-05
1.98428e-05
1.95163e-05
1.92037e-05
1.89742e-05
1.88299e-05
1.87058e-05
1.85557e-05
1.84018e-05
1.82764e-05
1.81445e-05
1.80265e-05
1.78957e-05
1.77757e-05
1.76533e-05
1.75514e-05
1.74288e-05
1.73309e-05
1.72205e-05
1.71252e-05
1.7019e-05
1.69303e-05
1.68229e-05
1.67313e-05
1.66289e-05
1.65404e-05
1.64349e-05
1.6341e-05
1.62414e-05
1.61519e-05
1.60484e-05
1.59614e-05
1.58654e-05
1.57842e-05
1.56876e-05
1.56096e-05
1.55208e-05
1.54506e-05
1.5358e-05
1.52868e-05
1.51974e-05
1.51372e-05
1.50475e-05
1.49814e-05
1.48973e-05
1.48261e-05
1.47471e-05
1.46797e-05
1.45872e-05
1.45162e-05
1.99999e-05
1.98465e-05
1.95288e-05
1.92196e-05
1.89861e-05
1.88399e-05
1.87209e-05
1.85794e-05
1.84275e-05
1.83028e-05
1.81733e-05
1.80586e-05
1.79307e-05
1.78138e-05
1.76944e-05
1.75961e-05
1.74758e-05
1.73823e-05
1.7274e-05
1.71835e-05
1.70804e-05
1.6995e-05
1.68907e-05
1.68021e-05
1.67028e-05
1.66172e-05
1.65126e-05
1.6422e-05
1.6324e-05
1.62355e-05
1.61334e-05
1.6048e-05
1.59529e-05
1.5873e-05
1.57766e-05
1.57e-05
1.56123e-05
1.55425e-05
1.54498e-05
1.53794e-05
1.52911e-05
1.52292e-05
1.51385e-05
1.5072e-05
1.49859e-05
1.49142e-05
1.48333e-05
1.47616e-05
1.4668e-05
1.45957e-05
1.99999e-05
1.98504e-05
1.95413e-05
1.92374e-05
1.90007e-05
1.88523e-05
1.87365e-05
1.86042e-05
1.84553e-05
1.83313e-05
1.82039e-05
1.80921e-05
1.79673e-05
1.78538e-05
1.77372e-05
1.76424e-05
1.75245e-05
1.74357e-05
1.73293e-05
1.7244e-05
1.71435e-05
1.70621e-05
1.6961e-05
1.68753e-05
1.67799e-05
1.66968e-05
1.65936e-05
1.65068e-05
1.64098e-05
1.63227e-05
1.62223e-05
1.61384e-05
1.60445e-05
1.5966e-05
1.58697e-05
1.57949e-05
1.57082e-05
1.56387e-05
1.55463e-05
1.54766e-05
1.53895e-05
1.53248e-05
1.52343e-05
1.51666e-05
1.50787e-05
1.50066e-05
1.49238e-05
1.48462e-05
1.47541e-05
1.46774e-05
1.99999e-05
1.98544e-05
1.95536e-05
1.92565e-05
1.90176e-05
1.88669e-05
1.87527e-05
1.86296e-05
1.84848e-05
1.83617e-05
1.8236e-05
1.81265e-05
1.80052e-05
1.7895e-05
1.7781e-05
1.76894e-05
1.75741e-05
1.749e-05
1.73857e-05
1.73055e-05
1.72073e-05
1.71305e-05
1.70326e-05
1.69501e-05
1.68586e-05
1.67777e-05
1.66767e-05
1.65938e-05
1.64974e-05
1.64123e-05
1.63134e-05
1.6231e-05
1.61386e-05
1.60612e-05
1.5965e-05
1.58924e-05
1.58067e-05
1.57373e-05
1.56456e-05
1.55764e-05
1.54905e-05
1.54223e-05
1.53329e-05
1.52632e-05
1.5173e-05
1.51018e-05
1.50147e-05
1.49331e-05
1.48414e-05
1.47593e-05
1.99999e-05
1.98583e-05
1.95657e-05
1.92765e-05
1.90364e-05
1.88835e-05
1.87696e-05
1.86552e-05
1.85154e-05
1.83933e-05
1.8269e-05
1.81615e-05
1.80436e-05
1.79368e-05
1.78254e-05
1.77365e-05
1.76241e-05
1.75443e-05
1.74423e-05
1.73669e-05
1.72709e-05
1.71993e-05
1.71041e-05
1.70255e-05
1.69376e-05
1.68588e-05
1.67609e-05
1.66813e-05
1.65857e-05
1.65031e-05
1.64051e-05
1.63244e-05
1.62339e-05
1.61569e-05
1.6061e-05
1.59911e-05
1.59059e-05
1.58366e-05
1.57458e-05
1.56772e-05
1.55916e-05
1.55203e-05
1.5432e-05
1.53595e-05
1.52674e-05
1.51971e-05
1.51041e-05
1.50209e-05
1.49265e-05
1.48406e-05
1.99999e-05
1.98622e-05
1.95776e-05
1.92968e-05
1.90567e-05
1.8902e-05
1.87872e-05
1.86808e-05
1.85466e-05
1.8426e-05
1.83028e-05
1.81967e-05
1.80823e-05
1.79787e-05
1.78697e-05
1.77831e-05
1.76739e-05
1.75978e-05
1.74987e-05
1.74272e-05
1.7334e-05
1.72675e-05
1.71747e-05
1.71009e-05
1.70153e-05
1.69395e-05
1.68451e-05
1.67679e-05
1.6674e-05
1.65936e-05
1.64959e-05
1.64179e-05
1.63288e-05
1.62516e-05
1.61568e-05
1.60897e-05
1.6004e-05
1.59352e-05
1.58454e-05
1.57775e-05
1.56909e-05
1.56178e-05
1.55293e-05
1.54542e-05
1.53606e-05
1.52898e-05
1.51916e-05
1.51067e-05
1.50083e-05
1.49193e-05
1.99999e-05
1.9866e-05
1.95892e-05
1.93171e-05
1.90781e-05
1.89222e-05
1.88058e-05
1.87061e-05
1.85779e-05
1.84592e-05
1.83372e-05
1.82321e-05
1.81209e-05
1.80203e-05
1.79135e-05
1.78291e-05
1.77228e-05
1.76501e-05
1.75541e-05
1.7486e-05
1.73958e-05
1.73344e-05
1.72439e-05
1.71754e-05
1.70912e-05
1.70193e-05
1.6928e-05
1.68529e-05
1.67617e-05
1.66826e-05
1.65852e-05
1.65106e-05
1.64219e-05
1.63444e-05
1.62517e-05
1.61867e-05
1.60999e-05
1.60326e-05
1.59431e-05
1.58759e-05
1.57869e-05
1.57144e-05
1.56229e-05
1.55466e-05
1.54505e-05
1.53791e-05
1.5275e-05
1.51893e-05
1.50858e-05
1.49927e-05
1.99999e-05
1.98698e-05
1.96006e-05
1.9337e-05
1.91e-05
1.89436e-05
1.88253e-05
1.8731e-05
1.86089e-05
1.84927e-05
1.8372e-05
1.82675e-05
1.81593e-05
1.80613e-05
1.79565e-05
1.78741e-05
1.77705e-05
1.77009e-05
1.76079e-05
1.75432e-05
1.74561e-05
1.73994e-05
1.73112e-05
1.72481e-05
1.71651e-05
1.70976e-05
1.70087e-05
1.69363e-05
1.68477e-05
1.67692e-05
1.66731e-05
1.66015e-05
1.6512e-05
1.64353e-05
1.63449e-05
1.62807e-05
1.61929e-05
1.6128e-05
1.60375e-05
1.59713e-05
1.58791e-05
1.5809e-05
1.57116e-05
1.56352e-05
1.55371e-05
1.54625e-05
1.53541e-05
1.52674e-05
1.51578e-05
1.50585e-05
1.99999e-05
1.98734e-05
1.96116e-05
1.93564e-05
1.91222e-05
1.8966e-05
1.88458e-05
1.87558e-05
1.86394e-05
1.85262e-05
1.84071e-05
1.83029e-05
1.81974e-05
1.81014e-05
1.79986e-05
1.79179e-05
1.78167e-05
1.775e-05
1.76597e-05
1.75984e-05
1.75147e-05
1.74621e-05
1.73766e-05
1.73184e-05
1.72369e-05
1.71738e-05
1.70868e-05
1.7018e-05
1.69311e-05
1.68534e-05
1.67596e-05
1.66894e-05
1.65987e-05
1.65245e-05
1.64353e-05
1.63706e-05
1.62831e-05
1.6221e-05
1.61278e-05
1.60629e-05
1.59675e-05
1.59e-05
1.57951e-05
1.57197e-05
1.56194e-05
1.55394e-05
1.54278e-05
1.534e-05
1.52225e-05
1.51186e-05
1.99999e-05
1.98768e-05
1.96224e-05
1.93751e-05
1.91446e-05
1.8989e-05
1.88674e-05
1.87802e-05
1.86694e-05
1.85595e-05
1.84424e-05
1.83383e-05
1.8235e-05
1.81406e-05
1.80398e-05
1.79604e-05
1.78614e-05
1.77971e-05
1.77095e-05
1.76516e-05
1.75712e-05
1.75224e-05
1.74396e-05
1.73863e-05
1.73064e-05
1.72477e-05
1.71622e-05
1.70977e-05
1.70113e-05
1.69351e-05
1.68442e-05
1.67736e-05
1.66822e-05
1.66116e-05
1.6522e-05
1.64567e-05
1.63707e-05
1.63099e-05
1.62139e-05
1.61502e-05
1.60529e-05
1.59847e-05
1.58745e-05
1.57999e-05
1.56954e-05
1.56105e-05
1.54954e-05
1.54056e-05
1.52796e-05
1.51749e-05
1.99999e-05
1.98802e-05
1.96327e-05
1.9393e-05
1.91668e-05
1.90122e-05
1.88898e-05
1.88045e-05
1.86991e-05
1.85923e-05
1.84778e-05
1.83737e-05
1.82719e-05
1.81791e-05
1.80797e-05
1.80013e-05
1.79047e-05
1.78421e-05
1.77573e-05
1.77024e-05
1.76254e-05
1.758e-05
1.75004e-05
1.74512e-05
1.73735e-05
1.7319e-05
1.72353e-05
1.71748e-05
1.70887e-05
1.70147e-05
1.69259e-05
1.68544e-05
1.67634e-05
1.66951e-05
1.66045e-05
1.65398e-05
1.6455e-05
1.63937e-05
1.62967e-05
1.62333e-05
1.61345e-05
1.60619e-05
1.59507e-05
1.58755e-05
1.57641e-05
1.56761e-05
1.5557e-05
1.54619e-05
1.53324e-05
1.52221e-05
1.99999e-05
1.98834e-05
1.96427e-05
1.94099e-05
1.91887e-05
1.90356e-05
1.89127e-05
1.88287e-05
1.87282e-05
1.86247e-05
1.8513e-05
1.8409e-05
1.83083e-05
1.82168e-05
1.81185e-05
1.80407e-05
1.79465e-05
1.78847e-05