/*--------------------------------*- C++ -*----------------------------------*\
  =========                 |
  \\      /  F ield         | OpenFOAM: The Open Source CFD Toolbox
   \\    /   O peration     | Website:  https://openfoam.org
    \\  /    A nd           | Version:  7
     \\/     M anipulation  |
\*---------------------------------------------------------------------------*/
FoamFile
{
    version     2.0;
    format      ascii;
    class       volScalarField;
    location    "0.41";
    object      p;
}
// * * * * * * * * * * * * * * * * * * * * * * * * * * * * * * * * * * * * * //

dimensions      [0 2 -2 0 0 0 0];

internalField   nonuniform List<scalar> 
70000
(
0.110755
0.0338682
0.0207284
0.023189
0.0234603
0.0224256
0.0214794
0.0207634
0.0201686
0.0196454
0.0191799
0.0187641
0.0183904
0.0180522
0.0177439
0.017461
0.0171998
0.0169573
0.0167308
0.0165182
0.0163176
0.0161272
0.0159455
0.0157711
0.0156026
0.0154389
0.0152786
0.0151205
0.0149634
0.0148059
0.0146468
0.0144846
0.0143177
0.0141445
0.0139631
0.0137712
0.0135668
0.0133468
0.0131086
0.0128486
0.0125622
0.012248
0.0118928
0.011509
0.0110533
0.0105888
0.00997565
0.00944893
0.00854268
0.00812286
0.106454
0.0342301
0.020931
0.0232836
0.0235147
0.0224613
0.0215073
0.0207864
0.020188
0.0196619
0.0191943
0.0187768
0.0184018
0.0180625
0.0177532
0.0174696
0.0172077
0.0169646
0.0167376
0.0165246
0.0163236
0.0161328
0.0159508
0.0157761
0.0156074
0.0154434
0.0152829
0.0151246
0.0149673
0.0148097
0.0146505
0.0144881
0.0143211
0.0141477
0.0139662
0.0137741
0.0135697
0.0133495
0.0131112
0.012851
0.0125644
0.0122501
0.0118946
0.0115106
0.0110544
0.0105897
0.0099762
0.00944747
0.00854567
0.00815387
0.102849
0.0351525
0.0212755
0.0234122
0.0235894
0.0225063
0.0215397
0.0208126
0.0202098
0.0196804
0.0192102
0.0187908
0.0184143
0.0180737
0.0177634
0.0174789
0.0172163
0.0169725
0.016745
0.0165315
0.01633
0.0161389
0.0159565
0.0157816
0.0156126
0.0154484
0.0152876
0.0151291
0.0149716
0.0148139
0.0146544
0.0144919
0.0143248
0.0141513
0.0139697
0.0137775
0.0135729
0.0133527
0.0131142
0.012854
0.0125673
0.0122529
0.0118972
0.0115132
0.0110566
0.0105919
0.00997769
0.0094476
0.00856638
0.00817759
0.0997442
0.0362516
0.0217519
0.0235848
0.0236906
0.0225643
0.0215779
0.0208426
0.0202345
0.019701
0.0192277
0.018806
0.0184276
0.0180856
0.0177742
0.0174887
0.0172253
0.0169808
0.0167527
0.0165387
0.0163367
0.0161452
0.0159625
0.0157872
0.015618
0.0154535
0.0152925
0.0151338
0.0149762
0.0148182
0.0146587
0.014496
0.0143288
0.0141552
0.0139735
0.0137812
0.0135766
0.0133563
0.0131179
0.0128577
0.012571
0.0122566
0.011901
0.0115171
0.0110607
0.0105959
0.00998308
0.00944959
0.00860314
0.00819611
0.0967879
0.0373453
0.0223253
0.023803
0.0238251
0.0226427
0.0216269
0.0208795
0.0202644
0.0197256
0.0192483
0.0188236
0.018443
0.0180992
0.0177864
0.0174997
0.0172353
0.01699
0.0167612
0.0165465
0.0163441
0.0161521
0.015969
0.0157933
0.0156238
0.015459
0.0152978
0.0151389
0.014981
0.0148229
0.0146632
0.0145005
0.0143332
0.0141595
0.0139778
0.0137855
0.0135809
0.0133607
0.0131224
0.0128623
0.0125758
0.0122617
0.0119064
0.0115229
0.0110673
0.0106025
0.00999327
0.00945528
0.00865322
0.00822194
0.0938806
0.0383773
0.0229491
0.0240474
0.0239872
0.0227431
0.0216894
0.0209258
0.0203017
0.0197561
0.0192735
0.018845
0.0184615
0.0181154
0.0178007
0.0175125
0.0172469
0.0170006
0.0167709
0.0165555
0.0163524
0.0161599
0.0159763
0.0158002
0.0156303
0.0154652
0.0153037
0.0151446
0.0149865
0.0148282
0.0146684
0.0145056
0.0143382
0.0141645
0.0139828
0.0137906
0.0135861
0.013366
0.013128
0.0128683
0.0125821
0.0122687
0.0119141
0.0115314
0.0110774
0.010613
0.0100099
0.00946668
0.00871535
0.00826059
0.0910152
0.0393305
0.02359
0.0242968
0.0241635
0.0228609
0.0217643
0.0209813
0.0203467
0.019793
0.0193042
0.0188708
0.0184837
0.0181349
0.0178179
0.0175279
0.0172607
0.0170131
0.0167824
0.0165661
0.0163622
0.016169
0.0159848
0.0158082
0.0156378
0.0154724
0.0153105
0.0151511
0.0149928
0.0148344
0.0146744
0.0145114
0.014344
0.0141703
0.0139887
0.0137967
0.0135924
0.0133727
0.013135
0.0128759
0.0125905
0.012278
0.0119246
0.0115433
0.011092
0.0106285
0.0100346
0.00948763
0.0087886
0.00831509
0.0882007
0.0401983
0.0242316
0.0245395
0.0243431
0.0229894
0.0218482
0.0210439
0.0203982
0.0198358
0.0193399
0.0189012
0.01851
0.0181578
0.0178382
0.017546
0.017277
0.0170279
0.0167959
0.0165785
0.0163736
0.0161796
0.0159947
0.0158175
0.0156466
0.0154807
0.0153185
0.0151587
0.0150001
0.0148415
0.0146814
0.0145183
0.0143509
0.0141773
0.0139958
0.013804
0.0136
0.0133808
0.0131438
0.0128856
0.0126012
0.0122902
0.0119387
0.0115594
0.011112
0.0106503
0.0100688
0.00952013
0.00887252
0.00838767
0.0854437
0.0409783
0.0248687
0.0247716
0.0245198
0.0231238
0.0219378
0.0211112
0.0204542
0.0198831
0.0193799
0.0189355
0.0185398
0.0181841
0.0178616
0.0175669
0.0172959
0.0170451
0.0168116
0.0165929
0.016387
0.016192
0.0160063
0.0158283
0.0156568
0.0154903
0.0153277
0.0151675
0.0150087
0.0148498
0.0146895
0.0145264
0.014359
0.0141854
0.0140042
0.0138127
0.0136093
0.0133908
0.0131546
0.0128977
0.0126148
0.0123057
0.0119569
0.0115804
0.0111385
0.0106796
0.0101136
0.0095664
0.00896718
0.00847968
0.0827476
0.0416696
0.0254997
0.0249931
0.0246908
0.0232613
0.022031
0.0211811
0.0205129
0.0199332
0.0194228
0.0189726
0.0185723
0.018213
0.0178874
0.0175902
0.0173171
0.0170644
0.0168293
0.0166092
0.0164021
0.0162061
0.0160194
0.0158407
0.0156685
0.0155014
0.0153383
0.0151777
0.0150185
0.0148593
0.0146989
0.0145357
0.0143684
0.014195
0.014014
0.0138231
0.0136203
0.0134028
0.0131677
0.0129124
0.0126315
0.0123249
0.0119796
0.0116068
0.011172
0.0107174
0.0101695
0.00962801
0.00907278
0.00859116
0.0801156
0.0422726
0.0261236
0.0252049
0.0248547
0.0234004
0.0221268
0.0212526
0.0205731
0.0199851
0.0194675
0.0190116
0.0186068
0.0182438
0.0179152
0.0176154
0.0173401
0.0170855
0.0168487
0.0166272
0.0164189
0.0162217
0.0160342
0.0158546
0.0156816
0.0155139
0.0153502
0.0151892
0.0150296
0.0148702
0.0147096
0.0145464
0.0143792
0.014206
0.0140255
0.0138352
0.0136332
0.0134168
0.0131832
0.0129299
0.0126514
0.0123481
0.0120071
0.011639
0.0112128
0.0107643
0.0102368
0.00970558
0.0091896
0.0087212
0.0775508
0.0427876
0.026739
0.0254081
0.0250105
0.0235402
0.0222248
0.0213251
0.0206342
0.0200382
0.0195135
0.0190518
0.0186425
0.0182759
0.0179442
0.0176419
0.0173644
0.0171079
0.0168695
0.0166466
0.016437
0.0162387
0.0160501
0.0158697
0.015696
0.0155276
0.0153633
0.0152019
0.015042
0.0148823
0.0147216
0.0145584
0.0143913
0.0142185
0.0140384
0.0138489
0.0136479
0.0134329
0.0132011
0.0129502
0.0126747
0.0123751
0.0120394
0.0116769
0.011261
0.0108205
0.0103151
0.00979871
0.00931753
0.0088696
0.0750559
0.0432154
0.0273435
0.0256043
0.0251576
0.0236798
0.0223249
0.0213986
0.0206959
0.020092
0.0195603
0.0190929
0.0186791
0.0183088
0.0179742
0.0176694
0.0173897
0.0171313
0.0168913
0.0166669
0.016456
0.0162567
0.0160671
0.0158858
0.0157113
0.0155423
0.0153775
0.0152156
0.0150553
0.0148955
0.0147347
0.0145715
0.0144046
0.0142322
0.0140527
0.0138641
0.0136643
0.013451
0.0132213
0.0129731
0.0127012
0.012406
0.0120764
0.0117205
0.0113161
0.0108857
0.0104034
0.00990614
0.00945566
0.00903162
0.0726335
0.0435569
0.0279344
0.0257948
0.0252955
0.0238184
0.022427
0.021473
0.0207581
0.0201464
0.0196079
0.0191347
0.0187164
0.0183425
0.0180049
0.0176975
0.0174156
0.0171554
0.0169138
0.016688
0.0164758
0.0162754
0.0160848
0.0159027
0.0157275
0.0155578
0.0153925
0.0152301
0.0150696
0.0149095
0.0147487
0.0145856
0.014419
0.0142471
0.0140683
0.0138808
0.0136824
0.0134709
0.0132436
0.0129985
0.0127306
0.0124402
0.0121177
0.0117692
0.0113775
0.0109592
0.0105005
0.0100259
0.00960301
0.00920621
0.0702859
0.0438134
0.0285086
0.0259811
0.0254239
0.0239551
0.0225308
0.0215484
0.0208206
0.0202014
0.0196561
0.0191772
0.0187543
0.0183768
0.0180361
0.0177262
0.0174421
0.0171801
0.0169368
0.0167096
0.0164962
0.0162947
0.0161032
0.0159202
0.0157442
0.015574
0.0154081
0.0152454
0.0150845
0.0149243
0.0147634
0.0146006
0.0144343
0.014263
0.0140851
0.0138987
0.0137018
0.0134925
0.0132677
0.013026
0.0127626
0.0124776
0.0121627
0.0118226
0.0114444
0.01104
0.0106051
0.0101557
0.0097586
0.00939043
0.0680151
0.0439868
0.0290629
0.0261649
0.0255427
0.0240889
0.0226362
0.0216247
0.0208835
0.0202569
0.0197049
0.0192202
0.0187927
0.0184115
0.0180679
0.0177554
0.0174692
0.0172052
0.0169603
0.0167317
0.0165171
0.0163144
0.016122
0.0159382
0.0157615
0.0155906
0.0154243
0.0152611
0.0151001
0.0149397
0.0147789
0.0146162
0.0144503
0.0142797
0.0141027
0.0139176
0.0137225
0.0135154
0.0132936
0.0130555
0.0127969
0.0125178
0.012211
0.0118802
0.0115161
0.0111271
0.0107159
0.0102933
0.00992123
0.00958194
0.0658227
0.0440791
0.0295942
0.0263473
0.0256518
0.0242187
0.0227429
0.0217019
0.0209467
0.0203127
0.0197543
0.0192638
0.0188317
0.0184468
0.0181001
0.0177851
0.0174967
0.0172308
0.0169843
0.0167543
0.0165384
0.0163346
0.0161412
0.0159566
0.0157792
0.0156077
0.0154409
0.0152774
0.0151161
0.0149557
0.0147949
0.0146325
0.0144671
0.0142972
0.0141213
0.0139376
0.0137443
0.0135396
0.0133209
0.0130868
0.0128334
0.0125605
0.0122623
0.0119414
0.0115919
0.0112194
0.0108318
0.0104369
0.0100897
0.00977918
0.06371
0.0440932
0.0300993
0.0265295
0.0257514
0.0243436
0.0228505
0.0217802
0.02101
0.0203688
0.0198042
0.0193079
0.0188712
0.0184826
0.0181329
0.0178153
0.0175246
0.0172569
0.0170087
0.0167772
0.0165601
0.0163553
0.0161609
0.0159754
0.0157973
0.0156253
0.015458
0.0152942
0.0151326
0.0149722
0.0148115
0.0146494
0.0144845
0.0143154
0.0141406
0.0139585
0.0137671
0.013565
0.0133496
0.0131197
0.0128717
0.0126054
0.0123163
0.0120059
0.0116712
0.0113163
0.0109519
0.0105851
0.0102628
0.00998111
0.0616776
0.0440321
0.0305753
0.0267123
0.0258419
0.0244626
0.0229585
0.0218595
0.0210735
0.0204251
0.0198545
0.0193526
0.0189112
0.0185189
0.0181661
0.0178459
0.017553
0.0172834
0.0170335
0.0168006
0.0165822
0.0163763
0.016181
0.0159947
0.0158159
0.0156433
0.0154755
0.0153114
0.0151497
0.0149892
0.0148287
0.0146669
0.0145026
0.0143344
0.0141607
0.0139802
0.013791
0.0135916
0.0133797
0.0131542
0.0129119
0.0126525
0.0123727
0.0120734
0.0117538
0.0114171
0.0110757
0.0107368
0.0104401
0.0101871
0.059726
0.0438996
0.0310192
0.0268959
0.025924
0.0245747
0.0230663
0.0219397
0.0211371
0.0204815
0.0199052
0.0193978
0.0189516
0.0185556
0.0181998
0.017877
0.0175819
0.0173103
0.0170588
0.0168244
0.0166048
0.0163978
0.0162015
0.0160144
0.0158349
0.0156617
0.0154935
0.015329
0.0151672
0.0150067
0.0148464
0.014685
0.0145213
0.014354
0.0141817
0.0140029
0.0138159
0.0136193
0.0134112
0.0131902
0.0129538
0.0127017
0.0124314
0.0121437
0.0118393
0.0115214
0.0112028
0.0108915
0.0106208
0.0103968
0.057855
0.0436998
0.0314281
0.0270806
0.0259982
0.0246792
0.0231733
0.0220209
0.0212009
0.0205379
0.0199562
0.0194434
0.0189926
0.0185928
0.0182339
0.0179085
0.0176112
0.0173377
0.0170845
0.0168487
0.0166278
0.0164196
0.0162224
0.0160344
0.0158543
0.0156805
0.0155119
0.0153471
0.0151851
0.0150247
0.0148646
0.0147037
0.0145407
0.0143744
0.0142034
0.0140264
0.0138418
0.0136483
0.0134439
0.0132277
0.0129976
0.012753
0.0124925
0.0122167
0.0119278
0.0116289
0.0113329
0.0110489
0.0108047
0.0106099
0.0560641
0.0434373
0.0317995
0.027266
0.0260654
0.0247754
0.0232788
0.0221028
0.0212647
0.0205941
0.0200074
0.0194894
0.0190339
0.0186304
0.0182684
0.0179404
0.0176409
0.0173655
0.0171106
0.0168734
0.0166512
0.0164419
0.0162437
0.016055
0.0158741
0.0156998
0.0155307
0.0153657
0.0152036
0.0150432
0.0148834
0.014723
0.0145608
0.0143955
0.014226
0.0140509
0.0138688
0.0136784
0.0134781
0.0132668
0.0130431
0.0128063
0.0125559
0.0122925
0.0120191
0.0117394
0.0114659
0.0112088
0.0109916
0.0108263
0.0543525
0.043117
0.032131
0.0274514
0.0261266
0.0248629
0.0233819
0.0221853
0.0213286
0.0206502
0.0200587
0.0195357
0.0190757
0.0186684
0.0183034
0.0179728
0.0176711
0.0173937
0.0171372
0.0168984
0.016675
0.0164646
0.0162655
0.0160759
0.0158944
0.0157195
0.0155501
0.0153848
0.0152226
0.0150623
0.0149028
0.0147429
0.0145815
0.0144174
0.0142495
0.0140764
0.0138969
0.0137097
0.0135136
0.0133076
0.0130904
0.0128618
0.0126216
0.0123708
0.0121131
0.0118528
0.0116017
0.011371
0.0111811
0.0110457
0.0527189
0.0427441
0.0324205
0.0276356
0.0261828
0.0249413
0.0234817
0.0222682
0.0213927
0.020706
0.02011
0.0195824
0.0191178
0.0187067
0.0183387
0.0180056
0.0177016
0.0174223
0.0171641
0.0169239
0.0166992
0.0164878
0.0162877
0.0160973
0.0159151
0.0157397
0.0155699
0.0154044
0.0152421
0.0150819
0.0149228
0.0147635
0.014603
0.0144401
0.0142738
0.0141028
0.013926
0.0137424
0.0135506
0.01335
0.0131396
0.0129193
0.0126896
0.0124518
0.0122099
0.0119689
0.0117403
0.0115356
0.0113732
0.011268
0.0511617
0.0423241
0.0326666
0.0278173
0.026235
0.0250105
0.0235775
0.022351
0.0214568
0.0207614
0.0201612
0.0196292
0.0191602
0.0187454
0.0183744
0.0180387
0.0177326
0.0174514
0.0171915
0.0169499
0.0167239
0.0165113
0.0163103
0.0161191
0.0159362
0.0157603
0.0155901
0.0154245
0.0152622
0.0151022
0.0149434
0.0147847
0.0146252
0.0144636
0.014299
0.0141303
0.0139564
0.0137763
0.013589
0.013394
0.0131906
0.012979
0.01276
0.0125353
0.0123093
0.0120877
0.0118814
0.0117024
0.0115676
0.0114926
0.0496789
0.0418626
0.0328678
0.0279946
0.0262842
0.0250706
0.0236683
0.0224335
0.0215209
0.0208163
0.0202122
0.0196762
0.0192029
0.0187844
0.0184104
0.0180722
0.0177639
0.0174808
0.0172193
0.0169762
0.0167489
0.0165353
0.0163333
0.0161413
0.0159578
0.0157814
0.0156109
0.015445
0.0152828
0.015123
0.0149646
0.0148067
0.0146481
0.014488
0.0143252
0.0141588
0.0139879
0.0138115
0.013629
0.0134397
0.0132435
0.0130407
0.0128326
0.0126213
0.0124114
0.0122091
0.012025
0.0118713
0.0117641
0.0117193
0.0482682
0.0413653
0.0330233
0.0281652
0.0263312
0.0251219
0.0237533
0.0225151
0.0215851
0.0208708
0.0202627
0.0197232
0.0192458
0.0188237
0.0184467
0.0181061
0.0177956
0.0175106
0.0172474
0.0170029
0.0167744
0.0165597
0.0163568
0.016164
0.0159799
0.015803
0.0156322
0.0154662
0.0153039
0.0151444
0.0149865
0.0148293
0.0146719
0.0145132
0.0143523
0.0141884
0.0140206
0.0138481
0.0136704
0.0134871
0.0132984
0.0131046
0.0129076
0.0127097
0.012516
0.0123329
0.0121708
0.0120421
0.0119622
0.0119475
0.0469273
0.0408379
0.033133
0.0283268
0.0263769
0.0251648
0.0238317
0.0225952
0.0216492
0.0209248
0.0203128
0.01977
0.0192889
0.0188632
0.0184833
0.0181402
0.0178276
0.0175408
0.017276
0.01703
0.0168003
0.0165845
0.0163807
0.0161872
0.0160024
0.0158251
0.0156539
0.0154878
0.0153256
0.0151664
0.0150091
0.0148527
0.0146964
0.0145393
0.0143804
0.0142191
0.0140545
0.0138861
0.0137134
0.0135363
0.0133551
0.0131706
0.0129848
0.0128005
0.012623
0.012459
0.0123188
0.0122146
0.0121618
0.0121768
0.0456533
0.0402859
0.0331971
0.0284767
0.0264218
0.0252
0.0239029
0.0226732
0.0217131
0.0209782
0.0203623
0.0198167
0.019332
0.0189029
0.0185201
0.0181746
0.01786
0.0175713
0.0173049
0.0170575
0.0168266
0.0166097
0.016405
0.0162107
0.0160254
0.0158477
0.0156762
0.01551
0.015348
0.015189
0.0150323
0.0148768
0.0147218
0.0145663
0.0144095
0.0142509
0.0140897
0.0139254
0.0137579
0.0135871
0.0134137
0.0132386
0.0130642
0.0128936
0.0127322
0.0125872
0.0124686
0.0123887
0.0123625
0.0124065
0.0444435
0.0397148
0.0332163
0.0286123
0.026466
0.0252282
0.0239665
0.0227483
0.0217765
0.021031
0.020411
0.019863
0.0193752
0.0189427
0.0185571
0.0182093
0.0178926
0.0176021
0.0173341
0.0170854
0.0168532
0.0166353
0.0164297
0.0162348
0.0160489
0.0158707
0.0156991
0.0155328
0.0153709
0.0152123
0.0150562
0.0149017
0.014748
0.0145942
0.0144397
0.0142838
0.0141261
0.0139661
0.0138039
0.0136397
0.0134741
0.0133086
0.0131457
0.0129889
0.0128437
0.0127174
0.0126201
0.0125639
0.0125637
0.0126361
0.0432948
0.0391294
0.0331921
0.0287314
0.0265095
0.0252501
0.0240221
0.0228199
0.0218393
0.0210832
0.0204589
0.0199088
0.0194182
0.0189826
0.0185942
0.0182441
0.0179255
0.0176333
0.0173637
0.0171136
0.0168803
0.0166614
0.0164549
0.0162592
0.0160728
0.0158942
0.0157224
0.0155561
0.0153944
0.0152363
0.0150809
0.0149274
0.014775
0.014623
0.0144708
0.0143179
0.0141638
0.0140083
0.0138515
0.0136939
0.0135364
0.0133806
0.0132293
0.0130862
0.0129571
0.0128493
0.0127729
0.01274
0.0127652
0.012865
0.0422043
0.0385345
0.0331262
0.0288317
0.0265517
0.0252666
0.0240694
0.0228873
0.021901
0.0211347
0.020506
0.019954
0.019461
0.0190224
0.0186314
0.0182791
0.0179585
0.0176647
0.0173936
0.0171422
0.0169077
0.0166878
0.0164805
0.0162841
0.0160972
0.0159183
0.0157462
0.01558
0.0154185
0.0152609
0.0151062
0.0149538
0.0148029
0.0146528
0.014503
0.0143531
0.0142027
0.0140518
0.0139007
0.0137499
0.0136005
0.0134545
0.0133148
0.0131855
0.0130723
0.0129828
0.0129269
0.0129165
0.0129663
0.0130924
0.0411688
0.0379341
0.0330209
0.0289113
0.0265919
0.0252783
0.0241087
0.0229496
0.0219612
0.0211855
0.020552
0.0199984
0.0195034
0.0190622
0.0186686
0.0183142
0.0179918
0.0176963
0.0174237
0.017171
0.0169354
0.0167145
0.0165065
0.0163095
0.016122
0.0159428
0.0157706
0.0156044
0.0154432
0.0152861
0.0151323
0.0149811
0.0148317
0.0146836
0.0145363
0.0143895
0.0142429
0.0140968
0.0139514
0.0138074
0.0136664
0.0135303
0.0134022
0.0132865
0.0131891
0.0131175
0.0130816
0.0130932
0.0131666
0.0133178
0.0401854
0.0373321
0.0328791
0.0289688
0.0266288
0.025286
0.0241399
0.0230064
0.0220194
0.0212354
0.020597
0.0200419
0.0195454
0.0191018
0.0187058
0.0183493
0.0180252
0.0177281
0.0174541
0.0172002
0.0169635
0.0167417
0.0165328
0.0163352
0.0161473
0.0159678
0.0157955
0.0156295
0.0154686
0.0153121
0.0151591
0.0150091
0.0148613
0.0147153
0.0145706
0.014427
0.0142844
0.0141431
0.0140035
0.0138666
0.0137339
0.0136077
0.0134913
0.0133891
0.0133072
0.0132531
0.0132367
0.0132694
0.0133654
0.0135403
0.0392509
0.0367317
0.0327037
0.0290028
0.0266612
0.0252901
0.0241636
0.0230571
0.0220751
0.0212842
0.0206409
0.0200844
0.0195867
0.0191412
0.0187428
0.0183844
0.0180586
0.01776
0.0174848
0.0172296
0.0169918
0.0167692
0.0165596
0.0163614
0.0161731
0.0159933
0.015821
0.015655
0.0154945
0.0153387
0.0151867
0.0150379
0.0148918
0.0147479
0.0146059
0.0144657
0.0143272
0.0141908
0.0140571
0.0139273
0.013803
0.0136868
0.013582
0.0134931
0.0134265
0.0133895
0.0133919
0.0134449
0.0135623
0.0137594
0.0383624
0.0361357
0.0324979
0.0290127
0.0266876
0.0252909
0.02418
0.0231012
0.0221277
0.0213317
0.0206837
0.0201257
0.0196273
0.0191801
0.0187797
0.0184194
0.018092
0.0177921
0.0175155
0.0172592
0.0170205
0.016797
0.0165867
0.0163879
0.0161992
0.0160193
0.0158469
0.0156812
0.0155211
0.015366
0.015215
0.0150676
0.0149232
0.0147816
0.0146424
0.0145055
0.0143712
0.0142398
0.0141122
0.0139895
0.0138737
0.0137673
0.013674
0.0135983
0.0135465
0.0135261
0.0135466
0.013619
0.0137566
0.0139742
0.0375171
0.0355464
0.0322652
0.0289981
0.0267063
0.0252885
0.0241897
0.0231384
0.0221767
0.0213777
0.0207251
0.0201658
0.019667
0.0192186
0.0188164
0.0184543
0.0181254
0.0178242
0.0175464
0.0172891
0.0170494
0.0168251
0.0166141
0.0164149
0.0162258
0.0160457
0.0158734
0.0157079
0.0155483
0.0153939
0.015244
0.015098
0.0149555
0.0148161
0.0146798
0.0145465
0.0144164
0.0142901
0.0141685
0.0140531
0.0139457
0.0138492
0.0137672
0.0137045
0.0136672
0.0136627
0.0137005
0.0137912
0.0139477
0.0141841
0.0367122
0.0349658
0.032009
0.028959
0.0267159
0.0252829
0.0241932
0.0231686
0.0222214
0.0214218
0.0207653
0.0202046
0.0197056
0.0192564
0.0188527
0.018489
0.0181587
0.0178563
0.0175774
0.0173191
0.0170785
0.0168534
0.0166419
0.0164422
0.0162528
0.0160726
0.0159004
0.0157352
0.0155761
0.0154225
0.0152737
0.0151292
0.0149886
0.0148517
0.0147183
0.0145885
0.0144627
0.0143416
0.0142262
0.0141179
0.014019
0.0139322
0.0138614
0.0138112
0.013788
0.0137989
0.0138531
0.013961
0.0141349
0.0143883
0.0359451
0.0343953
0.0317326
0.0288959
0.0267149
0.0252737
0.024191
0.0231918
0.0222615
0.0214636
0.0208039
0.0202419
0.019743
0.0192934
0.0188885
0.0185234
0.0181919
0.0178883
0.0176085
0.0173492
0.0171078
0.016882
0.0166699
0.0164698
0.0162803
0.0160999
0.0159278
0.015763
0.0156045
0.0154518
0.0153042
0.0151612
0.0150226
0.0148881
0.0147577
0.0146316
0.0145102
0.0143943
0.014285
0.014184
0.0140934
0.0140162
0.0139563
0.0139184
0.0139087
0.0139342
0.014004
0.0141278
0.0143176
0.0145861
0.0352135
0.0338363
0.0314392
0.0288096
0.026702
0.0252604
0.0241834
0.023208
0.0222963
0.0215028
0.0208409
0.0202777
0.0197791
0.0193295
0.0189237
0.0185574
0.0182248
0.0179202
0.0176395
0.0173793
0.0171372
0.0169108
0.0166982
0.0164978
0.016308
0.0161277
0.0159558
0.0157913
0.0156335
0.0154817
0.0153353
0.015194
0.0150574
0.0149254
0.0147981
0.0146757
0.0145587
0.0144481
0.0143449
0.0142511
0.0141687
0.014101
0.0140517
0.0140257
0.0140288
0.0140683
0.0141525
0.014291
0.0144952
0.0147768
0.034515
0.0332894
0.0311318
0.0287013
0.0266762
0.0252423
0.0241709
0.0232175
0.0223256
0.0215388
0.020876
0.0203119
0.0198137
0.0193645
0.0189582
0.0185909
0.0182573
0.0179519
0.0176704
0.0174095
0.0171667
0.0169398
0.0167268
0.016526
0.0163361
0.0161558
0.0159841
0.0158201
0.015663
0.0155122
0.0153671
0.0152275
0.015093
0.0149636
0.0148394
0.0147208
0.0146083
0.0145028
0.0144058
0.014319
0.0142448
0.0141863
0.0141473
0.0141326
0.0141481
0.0142006
0.0142982
0.0144501
0.0146669
0.0149598
0.0338475
0.0327555
0.0308132
0.0285723
0.0266368
0.0252188
0.0241535
0.0232204
0.0223491
0.0215712
0.020909
0.0203443
0.0198468
0.0193982
0.0189919
0.0186239
0.0182895
0.0179833
0.0177011
0.0174397
0.0171963
0.0169689
0.0167555
0.0165545
0.0163645
0.0161844
0.0160129
0.0158494
0.0156931
0.0155433
0.0153996
0.0152617
0.0151293
0.0150026
0.0148816
0.0147667
0.0146587
0.0145585
0.0144676
0.0143878
0.0143215
0.0142719
0.0142429
0.014239
0.0142661
0.0143307
0.0144406
0.0146045
0.0148323
0.0151342
0.033209
0.0322347
0.0304859
0.0284242
0.0265832
0.0251889
0.0241314
0.0232171
0.0223666
0.0215996
0.0209397
0.0203748
0.0198781
0.0194306
0.0190246
0.0186562
0.0183212
0.0180144
0.0177317
0.0174697
0.0172259
0.016998
0.0167844
0.0165832
0.0163932
0.0162132
0.0160421
0.0158792
0.0157236
0.0155749
0.0154327
0.0152965
0.0151664
0.0150423
0.0149245
0.0148135
0.0147099
0.0146149
0.01453
0.0144571
0.0143986
0.0143576
0.014338
0.0143445
0.0143824
0.0144581
0.0145792
0.0147536
0.0149906
0.0152996
0.0325977
0.0317273
0.0301521
0.0282588
0.0265154
0.025152
0.0241045
0.0232077
0.022378
0.0216237
0.0209676
0.0204034
0.0199077
0.0194615
0.0190561
0.0186877
0.0183523
0.0180451
0.0177619
0.0174995
0.0172553
0.0170272
0.0168134
0.0166121
0.0164222
0.0162424
0.0160717
0.0159094
0.0157547
0.0156071
0.0154663
0.015332
0.0152042
0.0150828
0.0149682
0.014861
0.0147618
0.014672
0.014593
0.0145267
0.0144757
0.014443
0.0144325
0.0144485
0.0144965
0.0145824
0.0147133
0.0148967
0.0151412
0.0154553
0.0320118
0.0312334
0.0298139
0.0280777
0.0264332
0.0251072
0.0240726
0.0231925
0.0223832
0.0216431
0.0209924
0.0204297
0.0199353
0.0194907
0.0190864
0.0187183
0.0183827
0.0180752
0.0177918
0.0175291
0.0172847
0.0170564
0.0168424
0.0166411
0.0164513
0.0162718
0.0161016
0.0159399
0.0157862
0.0156398
0.0155005
0.0153681
0.0152425
0.0151239
0.0150125
0.0149091
0.0148144
0.0147296
0.0146563
0.0145965
0.0145527
0.014528
0.0145259
0.0145509
0.014608
0.0147031
0.0148425
0.0150334
0.0152836
0.0156008
0.0314498
0.0307528
0.0294731
0.0278828
0.0263371
0.025054
0.0240355
0.0231718
0.0223824
0.0216575
0.0210139
0.0204537
0.0199609
0.0195181
0.0191153
0.0187478
0.0184123
0.0181047
0.0178212
0.0175584
0.0173139
0.0170854
0.0168714
0.0166702
0.0164806
0.0163014
0.0161317
0.0159708
0.015818
0.0156729
0.0155352
0.0154047
0.0152814
0.0151655
0.0150574
0.0149577
0.0148673
0.0147875
0.0147198
0.0146663
0.0146294
0.014612
0.0146179
0.0146511
0.0147165
0.0148196
0.0149663
0.0151632
0.0154173
0.0157355
0.0309102
0.0302855
0.029131
0.0276758
0.0262276
0.0249919
0.0239928
0.0231456
0.0223757
0.0216666
0.0210317
0.020475
0.0199843
0.0195437
0.0191426
0.0187761
0.018441
0.0181335
0.0178501
0.0175873
0.0173427
0.0171143
0.0169004
0.0166993
0.01651
0.0163312
0.0161621
0.016002
0.0158502
0.0157064
0.0155703
0.0154417
0.0153208
0.0152076
0.0151027
0.0150067
0.0149206
0.0148456
0.0147833
0.0147357
0.0147053
0.0146949
0.0147081
0.0147488
0.0148216
0.0149315
0.0150841
0.0152854
0.0155417
0.015859
0.0303917
0.0298312
0.0287891
0.0274585
0.0261052
0.0249205
0.0239442
0.023114
0.022363
0.0216705
0.0210455
0.0204934
0.0200054
0.0195672
0.0191682
0.0188031
0.0184686
0.0181615
0.0178783
0.0176157
0.0173713
0.017143
0.0169292
0.0167284
0.0165394
0.0163611
0.0161927
0.0160334
0.0158827
0.0157403
0.0156058
0.0154792
0.0153605
0.0152501
0.0151483
0.015056
0.014974
0.0149036
0.0148465
0.0148046
0.0147803
0.0147764
0.0147962
0.0148435
0.0149227
0.0150383
0.0151955
0.0153996
0.0156564
0.0159709
0.029893
0.0293896
0.0284484
0.0272323
0.0259709
0.0248396
0.0238894
0.0230771
0.0223447
0.021669
0.021055
0.0205088
0.0200241
0.0195885
0.0191919
0.0188285
0.0184951
0.0181886
0.0179058
0.0176435
0.0173993
0.0171713
0.0169578
0.0167573
0.0165688
0.016391
0.0162233
0.016065
0.0159154
0.0157743
0.0156415
0.0155168
0.0154005
0.0152928
0.0151941
0.0151053
0.0150274
0.0149615
0.0149093
0.0148726
0.014854
0.014856
0.0148817
0.0149349
0.0150194
0.0151395
0.0153
0.0155055
0.015761
0.016071
0.029413
0.0289603
0.0281097
0.0269989
0.0258256
0.0247494
0.023828
0.0230347
0.0223207
0.0216619
0.0210601
0.0205207
0.02004
0.0196076
0.0192136
0.0188523
0.0185203
0.0182146
0.0179324
0.0176706
0.0174269
0.0171992
0.0169861
0.0167861
0.016598
0.0164209
0.016254
0.0160966
0.0159482
0.0158086
0.0156774
0.0155547
0.0154407
0.0153356
0.01524
0.0151547
0.0150805
0.0150189
0.0149713
0.0149396
0.0149261
0.0149334
0.0149644
0.0150225
0.0151113
0.0152348
0.0153972
0.0156025
0.0158552
0.0161589
0.0289507
0.0285432
0.0277739
0.0267595
0.0256701
0.0246498
0.0237599
0.0229868
0.0222911
0.0216495
0.0210605
0.020529
0.0200531
0.0196242
0.0192333
0.0188743
0.018544
0.0182395
0.0179581
0.017697
0.0174538
0.0172267
0.0170141
0.0168146
0.0166271
0.0164507
0.0162847
0.0161283
0.0159811
0.0158429
0.0157134
0.0155927
0.0154809
0.0153784
0.0152858
0.0152037
0.0151332
0.0150756
0.0150323
0.0150051
0.0149963
0.0150083
0.0150438
0.0151059
0.0151981
0.0153237
0.0154866
0.0156904
0.0159386
0.0162344
0.0285049
0.0281378
0.0274417
0.0265154
0.0255056
0.0245412
0.0236847
0.0229333
0.0222562
0.0216316
0.0210561
0.0205335
0.0200632
0.0196383
0.0192507
0.0188945
0.0185661
0.018263
0.0179827
0.0177224
0.01748
0.0172535
0.0170415
0.0168427
0.0166559
0.0164804
0.0163152
0.0161599
0.0160139
0.0158771
0.0157494
0.0156306
0.0155211
0.0154211
0.0153313
0.0152524
0.0151854
0.0151314
0.0150921
0.015069
0.0150643
0.0150803
0.0151195
0.0151848
0.0152792
0.0154059
0.0155681
0.0157688
0.0160112
0.0162976
0.0280748
0.0277438
0.0271135
0.0262678
0.0253329
0.0244239
0.0236025
0.022874
0.0222157
0.0216083
0.0210468
0.020534
0.02007
0.0196496
0.0192657
0.0189125
0.0185865
0.0182852
0.0180061
0.0177469
0.0175054
0.0172797
0.0170685
0.0168704
0.0166844
0.0165097
0.0163455
0.0161913
0.0160466
0.0159113
0.0157852
0.0156684
0.015561
0.0154635
0.0153764
0.0153004
0.0152366
0.0151861
0.0151503
0.0151309
0.0151298
0.0151491
0.0151913
0.0152588
0.0153545
0.015481
0.0156411
0.0158375
0.0160726
0.0163483
0.0276596
0.0273609
0.0267897
0.0260176
0.0251531
0.0242985
0.0235133
0.022809
0.02217
0.0215797
0.0210326
0.0205303
0.0200734
0.019658
0.0192782
0.0189284
0.018605
0.0183057
0.0180282
0.0177702
0.0175298
0.0173051
0.0170947
0.0168975
0.0167124
0.0165386
0.0163755
0.0162224
0.0160791
0.0159452
0.0158208
0.0157058
0.0156006
0.0155054
0.0154209
0.0153477
0.0152868
0.0152394
0.0152068
0.0151905
0.0151924
0.0152144
0.0152587
0.0153276
0.0154234
0.0155486
0.0157056
0.0158964
0.016123
0.0163866
0.0272585
0.0269886
0.0264707
0.0257657
0.0249672
0.0241654
0.0234171
0.0227381
0.0221188
0.0215458
0.0210134
0.0205222
0.0200731
0.0196635
0.019288
0.0189419
0.0186215
0.0183245
0.0180488
0.0177923
0.0175531
0.0173296
0.0171202
0.016924
0.0167399
0.0165671
0.016405
0.0162532
0.0161112
0.0159788
0.015856
0.0157429
0.0156396
0.0155467
0.0154645
0.0153939
0.0153357
0.015291
0.0152612
0.0152476
0.0152518
0.0152758
0.0153214
0.0153907
0.0154858
0.0156087
0.0157613
0.0159453
0.0161622
0.0164127
0.0268708
0.0266267
0.0261568
0.0255131
0.024776
0.0240253
0.0233142
0.0226613
0.0220623
0.0215067
0.0209891
0.0205097
0.0200691
0.0196657
0.0192951
0.018953
0.0186359
0.0183415
0.0180679
0.0178131
0.0175753
0.017353
0.0171448
0.0169497
0.0167666
0.016595
0.0164341
0.0162834
0.0161427
0.0160118
0.0158907
0.0157793
0.015678
0.0155871
0.0155071
0.0154388
0.015383
0.0153408
0.0153132
0.0153017
0.0153078
0.0153331
0.0153792
0.0154481
0.0155414
0.0156608
0.015808
0.0159842
0.0161904
0.0164268
0.0264957
0.0262748
0.0258482
0.0252602
0.0245803
0.0238788
0.0232047
0.0225787
0.0220004
0.0214624
0.02096
0.0204927
0.0200612
0.0196645
0.0192993
0.0189615
0.018648
0.0183565
0.0180852
0.0178323
0.0175962
0.0173753
0.0171684
0.0169745
0.0167926
0.0166221
0.0164624
0.016313
0.0161737
0.0160443
0.0159246
0.015815
0.0157154
0.0156265
0.0155485
0.0154823
0.0154286
0.0153883
0.0153627
0.0153528
0.01536
0.0153858
0.0154317
0.0154993
0.0155899
0.015705
0.0158458
0.0160131
0.0162076
0.0164292
0.0261326
0.0259325
0.0255449
0.0250079
0.0243811
0.0237264
0.023089
0.0224903
0.0219333
0.0214131
0.0209258
0.020471
0.0200493
0.0196599
0.0193004
0.0189673
0.0186577
0.0183694
0.0181007
0.0178499
0.0176156
0.0173963
0.0171909
0.0169983
0.0168177
0.0166484
0.01649
0.0163419
0.0162039
0.0160759
0.0159578
0.0158497
0.0157519
0.0156646
0.0155885
0.0155241
0.0154721
0.0154335
0.0154092
0.0154004
0.0154081
0.0154339
0.0154788
0.0155441
0.0156312
0.0157411
0.0158745
0.0160322
0.0162142
0.0164203
0.0257811
0.0255996
0.0252473
0.0247565
0.024179
0.0235689
0.0229675
0.0223963
0.0218609
0.0213586
0.0208868
0.0204448
0.0200332
0.0196517
0.0192983
0.0189702
0.0186648
0.01838
0.0181142
0.0178658
0.0176335
0.017416
0.0172121
0.0170209
0.0168417
0.0166737
0.0165166
0.0163698
0.0162332
0.0161066
0.0159899
0.0158833
0.015787
0.0157014
0.0156268
0.0155639
0.0155134
0.0154759
0.0154526
0.0154443
0.015452
0.0154769
0.0155201
0.0155825
0.0156652
0.015769
0.0158943
0.0160415
0.0162104
0.0164004
0.0254404
0.0252758
0.0249552
0.0245067
0.0239748
0.0234069
0.0228406
0.0222969