/*--------------------------------*- C++ -*----------------------------------*\
  =========                 |
  \\      /  F ield         | OpenFOAM: The Open Source CFD Toolbox
   \\    /   O peration     | Website:  https://openfoam.org
    \\  /    A nd           | Version:  7
     \\/     M anipulation  |
\*---------------------------------------------------------------------------*/
FoamFile
{
    version     2.0;
    format      ascii;
    class       surfaceScalarField;
    location    "0.41";
    object      phi;
}
// * * * * * * * * * * * * * * * * * * * * * * * * * * * * * * * * * * * * * //

dimensions      [0 3 -1 0 0 0 0];

internalField   nonuniform List<scalar> 
139350
(
6.45924e-08
9.20391e-08
3.1951e-08
3.26414e-08
2.306e-08
8.89099e-09
1.95658e-08
3.49414e-09
1.76143e-08
1.95155e-09
1.61869e-08
1.42735e-09
1.50541e-08
1.1328e-09
1.41404e-08
9.13745e-10
1.33881e-08
7.52249e-10
1.27542e-08
6.3389e-10
1.22099e-08
5.4436e-10
1.17357e-08
4.74183e-10
1.1318e-08
4.1774e-10
1.09465e-08
3.71498e-10
1.06134e-08
3.33048e-10
1.03127e-08
3.00665e-10
1.00397e-08
2.73083e-10
9.79031e-09
2.49353e-10
9.56156e-09
2.28755e-10
9.35082e-09
2.10734e-10
9.15597e-09
1.94854e-10
8.9752e-09
1.80769e-10
8.807e-09
1.68201e-10
8.65008e-09
1.56921e-10
8.50333e-09
1.46743e-10
8.36582e-09
1.37508e-10
8.23674e-09
1.29082e-10
8.11539e-09
1.21352e-10
8.00118e-09
1.14211e-10
7.8936e-09
1.07579e-10
7.79224e-09
1.01356e-10
7.69675e-09
9.54981e-11
7.60687e-09
8.98802e-11
7.52235e-09
8.45185e-11
7.44315e-09
7.92018e-11
7.36907e-09
7.4075e-11
7.30034e-09
6.87261e-11
7.2368e-09
6.35481e-11
7.17902e-09
5.77759e-11
7.12688e-09
5.21405e-11
7.08134e-09
4.55372e-11
7.04272e-09
3.86248e-11
7.01166e-09
3.10559e-11
6.99092e-09
2.07433e-11
6.97744e-09
1.34787e-11
6.98419e-09
-6.75253e-12
6.98897e-09
-4.78265e-12
7.06189e-09
-7.29126e-11
6.93362e-09
1.28265e-10
-3.30437e-09
1.0238e-08
1.26026e-07
1.27457e-07
9.12631e-08
6.7404e-08
7.19423e-08
2.82118e-08
6.12156e-08
1.42208e-08
5.47697e-08
8.39746e-09
5.02761e-08
5.92095e-09
4.6792e-08
4.61691e-09
4.3976e-08
3.72978e-09
4.16488e-08
3.07938e-09
3.96859e-08
2.5968e-09
3.80001e-08
2.23016e-09
3.65314e-08
1.94292e-09
3.5237e-08
1.71209e-09
3.40855e-08
1.52303e-09
3.30527e-08
1.36581e-09
3.212e-08
1.23338e-09
3.12725e-08
1.12056e-09
3.04984e-08
1.02349e-09
2.97879e-08
9.39227e-10
2.91332e-08
8.65512e-10
2.85274e-08
8.00565e-10
2.79652e-08
7.42976e-10
2.74418e-08
6.91611e-10
2.69532e-08
6.45542e-10
2.64959e-08
6.04007e-10
2.60671e-08
5.66364e-10
2.56641e-08
5.32072e-10
2.52848e-08
5.00665e-10
2.49273e-08
4.71734e-10
2.45899e-08
4.44932e-10
2.42714e-08
4.19908e-10
2.39704e-08
3.9642e-10
2.36862e-08
3.7409e-10
2.34179e-08
3.52827e-10
2.31651e-08
3.32051e-10
2.29271e-08
3.12011e-10
2.27043e-08
2.91551e-10
2.24961e-08
2.71714e-10
2.23039e-08
2.50026e-10
2.21268e-08
2.29216e-10
2.19681e-08
2.04198e-10
2.1826e-08
1.80725e-10
2.17076e-08
1.49546e-10
2.16083e-08
1.19979e-10
2.15419e-08
7.99476e-11
2.15021e-08
3.30474e-11
2.15017e-08
-4.43475e-12
2.15959e-08
-1.6707e-10
2.15669e-08
1.57224e-10
-4.13765e-09
2.24002e-08
1.58807e-07
1.35054e-07
1.36494e-07
8.97168e-08
1.17493e-07
4.72129e-08
1.03316e-07
2.83981e-08
9.33092e-08
1.8404e-08
8.60073e-08
1.32228e-08
8.03011e-08
1.03232e-08
7.56491e-08
8.38177e-09
7.17693e-08
6.95918e-09
6.84749e-08
5.89122e-09
6.56327e-08
5.07235e-09
6.31479e-08
4.42767e-09
6.0952e-08
3.90799e-09
5.89938e-08
3.48124e-09
5.72341e-08
3.12557e-09
5.5642e-08
2.8254e-09
5.41933e-08
2.56926e-09
5.28682e-08
2.34857e-09
5.16507e-08
2.15679e-09
5.05273e-08
1.98885e-09
4.94871e-08
1.84076e-09
4.85207e-08
1.70938e-09
4.76202e-08
1.59214e-09
4.67788e-08
1.48696e-09
4.59907e-08
1.39213e-09
4.52508e-08
1.30621e-09
4.45549e-08
1.22797e-09
4.38992e-08
1.15636e-09
4.32805e-08
1.09049e-09
4.26959e-08
1.02955e-09
4.21429e-08
9.72812e-10
4.16197e-08
9.19668e-10
4.11244e-08
8.69393e-10
4.06556e-08
8.21641e-10
4.02122e-08
7.75386e-10
3.97934e-08
7.30852e-10
3.9399e-08
6.85998e-10
3.90281e-08
6.42565e-10
3.86824e-08
5.95781e-10
3.83603e-08
5.51308e-10
3.80668e-08
4.97653e-10
3.77976e-08
4.49902e-10
3.75658e-08
3.81374e-10
3.73585e-08
3.27258e-10
3.72065e-08
2.31978e-10
3.70806e-08
1.58901e-10
3.70341e-08
4.21303e-11
3.70693e-08
-2.02274e-10
3.7165e-08
6.14539e-11
-4.06166e-09
3.70891e-08
1.75664e-07
1.30906e-07
1.65594e-07
9.97863e-08
1.52723e-07
6.0084e-08
1.40124e-07
4.09969e-08
1.29435e-07
2.9093e-08
1.20792e-07
2.18659e-08
1.1368e-07
1.74356e-08
1.07698e-07
1.43636e-08
1.02596e-07
1.20615e-08
9.81908e-08
1.02961e-08
9.43437e-08
8.91942e-09
9.09488e-08
7.82255e-09
8.79262e-08
6.93057e-09
8.52144e-08
6.19305e-09
8.27651e-08
5.57486e-09
8.05399e-08
5.05065e-09
7.85076e-08
4.60155e-09
7.66429e-08
4.21329e-09
7.49248e-08
3.87491e-09
7.33357e-08
3.57785e-09
7.18611e-08
3.31537e-09
7.04885e-08
3.08205e-09
6.92071e-08
2.87354e-09
6.80078e-08
2.68624e-09
6.68827e-08
2.51719e-09
6.58251e-08
2.36389e-09
6.48288e-08
2.22423e-09
6.38888e-08
2.0964e-09
6.30004e-08
1.97883e-09
6.21599e-08
1.87012e-09
6.13636e-08
1.76903e-09
6.06088e-08
1.67448e-09
5.98929e-08
1.5853e-09
5.92138e-08
1.50077e-09
5.85698e-08
1.41935e-09
5.79595e-08
1.34114e-09
5.73824e-08
1.26312e-09
5.68373e-08
1.18771e-09
5.63255e-08
1.10753e-09
5.58452e-08
1.03162e-09
5.5402e-08
9.40823e-10
5.49903e-08
8.61609e-10
5.46258e-08
7.45853e-10
5.42924e-08
6.6075e-10
5.40269e-08
4.97436e-10
5.37942e-08
3.91642e-10
5.36585e-08
1.77741e-10
5.36032e-08
-1.46902e-10
5.3701e-08
-3.64023e-11
-3.77774e-09
5.34171e-08
1.8456e-07
1.23131e-07
1.8232e-07
1.02026e-07
1.76102e-07
6.63026e-08
1.67759e-07
4.934e-08
1.59136e-07
3.77162e-08
1.51226e-07
2.97756e-08
1.44152e-07
2.45093e-08
1.37851e-07
2.0665e-08
1.32248e-07
1.76645e-08
1.27259e-07
1.52847e-08
1.22799e-07
1.33792e-08
1.18792e-07
1.183e-08
1.15172e-07
1.05504e-08
1.11886e-07
9.47897e-09
1.08889e-07
8.57161e-09
1.06145e-07
7.79552e-09
1.0362e-07
7.12582e-09
1.0129e-07
6.54326e-09
9.91324e-08
6.03284e-09
9.71275e-08
5.5827e-09
9.52595e-08
5.18336e-09
9.35144e-08
4.82717e-09
9.18801e-08
4.50786e-09
9.0346e-08
4.22028e-09
8.89031e-08
3.96012e-09
8.75433e-08
3.72374e-09
8.62594e-08
3.50805e-09
8.50455e-08
3.31036e-09
8.38959e-08
3.12838e-09
8.2806e-08
2.96002e-09
8.17716e-08
2.80347e-09
8.0789e-08
2.65708e-09
7.98551e-08
2.51921e-09
7.89672e-08
2.38867e-09
7.81231e-08
2.26339e-09
7.73211e-08
2.14323e-09
7.656e-08
2.0242e-09
7.58384e-08
1.90928e-09
7.51575e-08
1.78849e-09
7.4515e-08
1.67408e-09
7.39165e-08
1.53936e-09
7.33564e-08
1.42169e-09
7.28498e-08
1.25242e-09
7.23825e-08
1.1281e-09
7.19874e-08
8.92502e-10
7.16387e-08
7.40355e-10
7.13862e-08
4.30243e-10
7.1231e-08
8.2981e-12
7.1236e-08
-4.14061e-11
-3.43177e-09
7.089e-08
1.90388e-07
1.14959e-07
1.91851e-07
1.00563e-07
1.90242e-07
6.79112e-08
1.86151e-07
5.34311e-08
1.80712e-07
4.31556e-08
1.74957e-07
3.5531e-08
1.69258e-07
3.02075e-08
1.63773e-07
2.6151e-08
1.58595e-07
2.28424e-08
1.53767e-07
2.01125e-08
1.49292e-07
1.78541e-08
1.45153e-07
1.59684e-08
1.41328e-07
1.43764e-08
1.37788e-07
1.30189e-08
1.34507e-07
1.18517e-08
1.31463e-07
1.08404e-08
1.2863e-07
9.95807e-09
1.2599e-07
9.18328e-09
1.23524e-07
8.49886e-09
1.21216e-07
7.89095e-09
1.19051e-07
7.34827e-09
1.17017e-07
6.86154e-09
1.15102e-07
6.4231e-09
1.13295e-07
6.0265e-09
1.11589e-07
5.66634e-09
1.09975e-07
5.33798e-09
1.08445e-07
5.03748e-09
1.06994e-07
4.76134e-09
1.05616e-07
4.50659e-09
1.04306e-07
4.27049e-09
1.03059e-07
4.05068e-09
1.01871e-07
3.84494e-09
1.00739e-07
3.65116e-09
9.96597e-08
3.46766e-09
9.86312e-08
3.29188e-09
9.76511e-08
3.12333e-09
9.67182e-08
2.95718e-09
9.58307e-08
2.79671e-09
9.49895e-08
2.62975e-09
9.41926e-08
2.47097e-09
9.34445e-08
2.28748e-09
9.27412e-08
2.12493e-09
9.20946e-08
1.89901e-09
9.14963e-08
1.72641e-09
9.09688e-08
1.42004e-09
9.05041e-08
1.20498e-09
9.01258e-08
8.08624e-10
8.98645e-08
2.6958e-10
8.97503e-08
7.27492e-11
-3.00576e-09
8.93243e-08
1.9554e-07
1.07234e-07
1.98247e-07
9.78567e-08
1.98967e-07
6.71908e-08
1.97786e-07
5.46125e-08
1.95153e-07
4.57887e-08
1.91809e-07
3.88741e-08
1.88076e-07
3.3941e-08
1.84123e-07
3.01037e-08
1.801e-07
2.68654e-08
1.76117e-07
2.40958e-08
1.72241e-07
2.17296e-08
1.68512e-07
1.96974e-08
1.6495e-07
1.79387e-08
1.61563e-07
1.64063e-08
1.58351e-07
1.50636e-08
1.5531e-07
1.38809e-08
1.52434e-07
1.28343e-08
1.49714e-07
1.19035e-08
1.4714e-07
1.10723e-08
1.44705e-07
1.03267e-08
1.42397e-07
9.65542e-09
1.4021e-07
9.04869e-09
1.38135e-07
8.49838e-09
1.36164e-07
7.99753e-09
1.3429e-07
7.54017e-09
1.32507e-07
7.12112e-09
1.30809e-07
6.73589e-09
1.29189e-07
6.38048e-09
1.27645e-07
6.05143e-09
1.2617e-07
5.74553e-09
1.2476e-07
5.45997e-09
1.23413e-07
5.1921e-09
1.22125e-07
4.93941e-09
1.20893e-07
4.69977e-09
1.19714e-07
4.47022e-09
1.18588e-07
4.2499e-09
1.17512e-07
4.03333e-09
1.16485e-07
3.8238e-09
1.15507e-07
3.60753e-09
1.14577e-07
3.40054e-09
1.13699e-07
3.16581e-09
1.1287e-07
2.95354e-09
1.12099e-07
2.67044e-09
1.11384e-07
2.44174e-09
1.10735e-07
2.06885e-09
1.10163e-07
1.77691e-09
1.09667e-07
1.3046e-09
1.09298e-07
6.38925e-10
1.09069e-07
3.00867e-10
-2.49113e-09
1.08555e-07
2.00848e-07
9.99706e-08
2.03775e-07
9.49294e-08
2.05325e-07
6.56404e-08
2.0564e-07
5.42978e-08
2.04813e-07
4.66163e-08
2.0333e-07
4.03565e-08
2.01381e-07
3.58902e-08
1.99049e-07
3.24357e-08
1.96439e-07
2.94749e-08
1.93655e-07
2.68803e-08
1.90776e-07
2.46085e-08
1.87863e-07
2.26107e-08
1.8496e-07
2.08418e-08
1.82099e-07
1.92674e-08
1.79302e-07
1.78606e-08
1.76583e-07
1.65993e-08
1.73953e-07
1.54649e-08
1.71415e-07
1.44414e-08
1.68972e-07
1.35154e-08
1.66623e-07
1.26751e-08
1.64368e-07
1.19103e-08
1.62204e-07
1.12126e-08
1.60129e-07
1.05742e-08
1.58137e-07
9.98865e-09
1.56228e-07
9.45012e-09
1.54395e-07
8.95347e-09
1.52637e-07
8.4942e-09
1.50949e-07
8.06817e-09
1.49329e-07
7.6718e-09
1.47773e-07
7.30165e-09
1.46278e-07
6.95475e-09
1.44842e-07
6.62814e-09
1.43462e-07
6.31913e-09
1.42137e-07
6.02525e-09
1.40864e-07
5.74328e-09
1.39641e-07
5.47202e-09
1.38469e-07
5.20555e-09
1.37346e-07
4.94697e-09
1.36272e-07
4.68151e-09
1.35247e-07
4.42554e-09
1.34273e-07
4.13994e-09
1.33351e-07
3.87589e-09
1.32484e-07
3.53746e-09
1.31677e-07
3.24806e-09
1.30932e-07
2.81397e-09
1.30272e-07
2.43718e-09
1.2968e-07
1.8962e-09
1.29212e-07
1.10723e-09
1.28884e-07
6.2854e-10
-1.9036e-09
1.28297e-07
2.06447e-07
9.30559e-08
2.09339e-07
9.20375e-08
2.11035e-07
6.39438e-08
2.11928e-07
5.34048e-08
2.11996e-07
4.65482e-08
2.11609e-07
4.07438e-08
2.10879e-07
3.66208e-08
2.09807e-07
3.35073e-08
2.08432e-07
3.08503e-08
2.0681e-07
2.85017e-08
2.04999e-07
2.64202e-08
2.03046e-07
2.45637e-08
2.00994e-07
2.28937e-08
1.98879e-07
2.13823e-08
1.9673e-07
2.00092e-08
1.94571e-07
1.87582e-08
1.9242e-07
1.76157e-08
1.90292e-07
1.657e-08
1.88196e-07
1.56112e-08
1.86141e-07
1.47302e-08
1.84132e-07
1.39193e-08
1.82173e-07
1.31716e-08
1.80266e-07
1.24808e-08
1.78413e-07
1.18414e-08
1.76615e-07
1.12486e-08
1.74871e-07
1.06976e-08
1.73181e-07
1.01845e-08
1.71543e-07
9.7054e-09
1.69958e-07
9.25691e-09
1.68424e-07
8.83571e-09
1.6694e-07
8.43891e-09
1.65505e-07
8.0635e-09
1.64117e-07
7.70678e-09
1.62776e-07
7.36612e-09
1.61481e-07
7.03822e-09
1.60232e-07
6.72164e-09
1.59027e-07
6.41022e-09
1.57867e-07
6.10675e-09
1.56753e-07
5.79605e-09
1.55684e-07
5.49404e-09
1.54663e-07
5.16119e-09
1.53692e-07
4.84689e-09
1.52772e-07
4.45755e-09
1.51913e-07
4.10707e-09
1.51109e-07
3.61809e-09
1.5039e-07
3.15529e-09
1.49736e-07
2.55108e-09
1.49191e-07
1.65167e-09
1.48786e-07
1.0342e-09
-1.26952e-09
1.48151e-07
2.12289e-07
8.64296e-08
2.15151e-07
8.91746e-08
2.1679e-07
6.23058e-08
2.17841e-07
5.23538e-08
2.18255e-07
4.61338e-08
2.1837e-07
4.06284e-08
2.18294e-07
3.66973e-08
2.17994e-07
3.38073e-08
2.17463e-07
3.13816e-08
2.16718e-07
2.9246e-08
2.15785e-07
2.73537e-08
2.14687e-07
2.56613e-08
2.13451e-07
2.41298e-08
2.12102e-07
2.27316e-08
2.10663e-07
2.14481e-08
2.09156e-07
2.02654e-08
2.07599e-07
1.91726e-08
2.06008e-07
1.81606e-08
2.04397e-07
1.72219e-08
2.02778e-07
1.63497e-08
2.01159e-07
1.55382e-08
1.99548e-07
1.47823e-08
1.97952e-07
1.40772e-08
1.96375e-07
1.34187e-08
1.9482e-07
1.28028e-08
1.93292e-07
1.22258e-08
1.91793e-07
1.16843e-08
1.90323e-07
1.1175e-08
1.88885e-07
1.06951e-08
1.87479e-07
1.02414e-08
1.86107e-07
9.81141e-09
1.84768e-07
9.40225e-09
1.83463e-07
9.01135e-09
1.82193e-07
8.63612e-09
1.80958e-07
8.27329e-09
1.79759e-07
7.92131e-09
1.78595e-07
7.57395e-09
1.77468e-07
7.23375e-09
1.76378e-07
6.88542e-09
1.75328e-07
6.54399e-09
1.74319e-07
6.17078e-09
1.73354e-07
5.81146e-09
1.72434e-07
5.37826e-09
1.7157e-07
4.97063e-09
1.70754e-07
4.43448e-09
1.70018e-07
3.89079e-09
1.6934e-07
3.22881e-09
1.68754e-07
2.23795e-09
1.683e-07
1.48819e-09
-6.20631e-10
1.67651e-07
2.1833e-07
8.00806e-08
2.21205e-07
8.62992e-08
2.22762e-07
6.07487e-08
2.2384e-07
5.12759e-08
2.24364e-07
4.561e-08
2.24657e-07
4.03352e-08
2.24857e-07
3.64976e-08
2.24935e-07
3.37288e-08
2.2487e-07
3.14467e-08
2.24661e-07
2.94549e-08
2.24313e-07
2.77021e-08
2.23831e-07
2.61431e-08
2.23225e-07
2.47362e-08
2.22505e-07
2.34512e-08
2.21685e-07
2.22683e-08
2.20777e-07
2.11731e-08
2.19795e-07
2.0155e-08
2.1875e-07
1.92055e-08
2.17654e-07
1.83178e-08
2.16517e-07
1.74864e-08
2.15349e-07
1.67065e-08
2.14157e-07
1.5974e-08
2.12949e-07
1.52852e-08
2.11731e-07
1.46367e-08
2.10509e-07
1.40255e-08
2.09286e-07
1.34486e-08
2.08067e-07
1.29033e-08
2.06855e-07
1.23869e-08
2.05653e-07
1.18969e-08
2.04464e-07
1.14306e-08
2.03289e-07
1.09859e-08
2.02132e-07
1.05601e-08
2.00992e-07
1.01508e-08
1.99873e-07
9.75566e-09
1.98774e-07
9.37144e-09
1.97699e-07
8.99666e-09
1.96648e-07
8.62505e-09
1.95623e-07
8.25897e-09
1.94625e-07
7.88327e-09
1.93657e-07
7.51185e-09
1.9272e-07
7.10769e-09
1.9182e-07
6.71155e-09
1.90955e-07
6.24377e-09
1.90139e-07
5.78654e-09
1.89361e-07
5.21236e-09
1.88654e-07
4.59795e-09
1.87998e-07
3.88488e-09
1.87411e-07
2.82491e-09
1.86944e-07
1.95487e-09
8.43299e-12
1.86315e-07
2.24558e-07
7.40153e-08
2.27469e-07
8.33883e-08
2.28959e-07
5.92591e-08
2.30042e-07
5.01928e-08
2.30607e-07
4.5045e-08
2.30949e-07
3.99933e-08
2.31238e-07
3.62084e-08
2.31465e-07
3.35022e-08
2.31609e-07
3.13029e-08
2.31667e-07
2.93963e-08
2.3164e-07
2.77292e-08
2.31525e-07
2.6258e-08
2.31322e-07
2.49392e-08
2.31033e-07
2.37407e-08
2.30661e-07
2.26405e-08
2.30211e-07
2.16231e-08
2.29689e-07
2.06768e-08
2.29102e-07
1.97927e-08
2.28456e-07
1.89637e-08
2.27758e-07
1.81842e-08
2.27015e-07
1.74497e-08
2.26232e-07
1.67563e-08
2.25417e-07
1.61008e-08
2.24573e-07
1.54802e-08
2.23707e-07
1.48919e-08
2.22822e-07
1.43335e-08
2.21923e-07
1.38025e-08
2.21013e-07
1.32967e-08
2.20096e-07
1.28139e-08
2.19175e-07
1.23518e-08
2.18252e-07
1.19085e-08
2.17331e-07
1.14814e-08
2.16413e-07
1.10685e-08
2.15501e-07
1.06675e-08
2.14597e-07
1.02753e-08
2.13704e-07
9.89046e-09
2.12822e-07
9.50673e-09
2.11955e-07
9.1263e-09
2.11104e-07
8.73436e-09
2.10272e-07
8.34347e-09
2.09461e-07
7.91891e-09
2.08677e-07
7.49569e-09
2.07917e-07
7.00372e-09
2.07196e-07
6.50677e-09
2.06504e-07
5.90442e-09
2.05869e-07
5.23286e-09
2.05278e-07
4.47666e-09
2.04732e-07
3.37068e-09
2.04289e-07
2.39804e-09
5.82941e-10
2.03714e-07
2.30979e-07
6.8242e-08
2.33934e-07
8.04336e-08
2.35364e-07
5.78288e-08
2.36453e-07
4.91036e-08
2.37052e-07
4.44463e-08
2.37409e-07
3.96361e-08
2.3772e-07
3.58976e-08
2.37992e-07
3.32297e-08
2.38212e-07
3.10835e-08
2.3838e-07
2.92282e-08
2.38499e-07
2.76106e-08
2.38566e-07
2.61906e-08
2.38579e-07
2.49257e-08
2.38537e-07
2.37828e-08
2.38439e-07
2.27388e-08
2.38285e-07
2.17773e-08
2.38076e-07
2.08857e-08
2.37814e-07
2.00543e-08
2.37502e-07
1.92754e-08
2.37143e-07
1.85431e-08
2.36741e-07
1.78524e-08
2.36298e-07
1.71994e-08
2.35818e-07
1.65807e-08
2.35304e-07
1.59935e-08
2.34761e-07
1.54351e-08
2.34191e-07
1.49033e-08
2.33598e-07
1.43958e-08
2.32984e-07
1.39104e-08
2.32353e-07
1.34451e-08
2.31707e-07
1.29978e-08
2.31049e-07
1.25666e-08
2.30381e-07
1.21492e-08
2.29706e-07
1.17435e-08
2.29026e-07
1.13474e-08
2.28344e-07
1.09578e-08
2.27661e-07
1.05733e-08
2.2698e-07
1.01877e-08
2.26303e-07
9.80298e-09
2.25633e-07
9.40477e-09
2.24972e-07
9.00407e-09
2.24322e-07
8.56901e-09
2.2369e-07
8.12827e-09
2.23071e-07
7.62205e-09
2.22482e-07
7.09594e-09
2.21912e-07
6.47489e-09
2.21384e-07
5.76099e-09
2.2089e-07
4.97049e-09
2.20421e-07
3.83988e-09
2.20034e-07
2.78519e-09
1.07626e-09
2.1954e-07
2.376e-07
6.27665e-08
2.40601e-07
7.74326e-08
2.41975e-07
5.64556e-08
2.43069e-07
4.80095e-08
2.43704e-07
4.38106e-08
2.44075e-07
3.92655e-08
2.44391e-07
3.55815e-08
2.44676e-07
3.29448e-08
2.44918e-07
3.08414e-08
2.45123e-07
2.90236e-08
2.45296e-07
2.74375e-08
2.45438e-07
2.6048e-08
2.45549e-07
2.48148e-08
2.45627e-07
2.37048e-08
2.45671e-07
2.26951e-08
2.4568e-07
2.17687e-08
2.45653e-07
2.09128e-08
2.4559e-07
2.01172e-08
2.45491e-07
1.9374e-08
2.45357e-07
1.86767e-08
2.4519e-07
1.80201e-08
2.44989e-07
1.73999e-08
2.44757e-07
1.68126e-08
2.44496e-07
1.62551e-08
2.44206e-07
1.57248e-08
2.4389e-07
1.52192e-08
2.4355e-07
1.47361e-08
2.43187e-07
1.42732e-08
2.42804e-07
1.38285e-08
2.42402e-07
1.33999e-08
2.41983e-07
1.29854e-08
2.41549e-07
1.25828e-08
2.41103e-07
1.219e-08
2.40645e-07
1.18049e-08
2.40179e-07
1.14242e-08
2.39706e-07
1.10467e-08
2.39227e-07
1.0666e-08
2.38746e-07
1.0284e-08
2.38264e-07
9.88675e-09
2.37785e-07
9.48354e-09
2.37308e-07
9.04567e-09
2.36841e-07
8.59531e-09
2.3638e-07
8.08292e-09
2.35939e-07
7.53724e-09
2.35508e-07
6.9054e-09
2.35106e-07
6.16319e-09
2.3473e-07
5.34708e-09
2.3436e-07
4.20955e-09
2.34051e-07
3.09452e-09
1.47156e-09
2.33655e-07
2.4443e-07
5.75924e-08
2.47471e-07
7.43919e-08
2.48795e-07
5.51314e-08
2.4989e-07
4.69152e-08
2.50564e-07
4.31362e-08
2.50952e-07
3.88779e-08
2.51272e-07
3.5261e-08
2.51562e-07
3.26545e-08
2.51812e-07
3.05916e-08
2.52028e-07
2.88081e-08
2.52218e-07
2.72474e-08
2.52386e-07
2.58796e-08
2.52534e-07
2.46671e-08
2.52661e-07
2.35778e-08
2.52767e-07
2.25888e-08
2.52852e-07
2.16835e-08
2.52916e-07
2.08493e-08
2.52957e-07
2.00759e-08
2.52976e-07
1.93552e-08
2.52972e-07
1.86807e-08
2.52945e-07
1.80469e-08
2.52895e-07
1.74494e-08
2.52823e-07
1.68847e-08
2.52729e-07
1.63493e-08
2.52613e-07
1.58407e-08
2.52476e-07
1.5356e-08
2.52319e-07
1.48932e-08
2.52143e-07
1.44497e-08
2.51948e-07
1.40234e-08
2.51736e-07
1.36123e-08
2.51507e-07
1.32141e-08
2.51263e-07
1.28266e-08
2.51005e-07
1.24477e-08
2.50735e-07
1.20751e-08
2.50454e-07
1.17054e-08
2.50163e-07
1.13375e-08
2.49864e-07
1.09649e-08
2.49559e-07
1.05889e-08
2.4925e-07
1.01966e-08
2.48938e-07
9.79517e-09
2.48624e-07
9.35925e-09
2.48315e-07
8.90462e-09
2.48007e-07
8.39141e-09
2.4771e-07
7.8337e-09
2.47419e-07
7.19665e-09
2.47144e-07
6.43784e-09
2.46888e-07
5.60374e-09
2.46625e-07
4.47242e-09
2.46402e-07
3.31736e-09
1.76409e-09
2.46109e-07
2.51478e-07
5.27214e-08
2.54548e-07
7.13211e-08
2.55834e-07
5.38458e-08
2.56923e-07
4.58261e-08
2.57635e-07
4.24241e-08
2.58043e-07
3.84702e-08
2.58369e-07
3.49348e-08
2.58665e-07
3.23591e-08
2.5892e-07
3.03367e-08
2.59139e-07
2.85883e-08
2.59335e-07
2.70521e-08
2.59511e-07
2.57034e-08
2.5967e-07
2.45077e-08
2.59814e-07
2.34338e-08
2.59944e-07
2.24592e-08
2.6006e-07
2.15679e-08
2.60162e-07
2.07473e-08
2.6025e-07
1.99876e-08
2.60325e-07
1.92806e-08
2.60385e-07
1.862e-08
2.60432e-07
1.80004e-08
2.60464e-07
1.74173e-08
2.60482e-07
1.68669e-08
2.60485e-07
1.63461e-08
2.60473e-07
1.5852e-08
2.60448e-07
1.53819e-08
2.60407e-07
1.49334e-08
2.60353e-07
1.45042e-08
2.60284e-07
1.40919e-08
2.60202e-07
1.36943e-08
2.60107e-07
1.33091e-08
2.6e-07
1.29342e-08
2.5988e-07
1.2567e-08
2.5975e-07
1.22054e-08
2.5961e-07
1.18459e-08
2.5946e-07
1.1487e-08
2.59302e-07
1.11226e-08
2.59138e-07
1.07532e-08
2.58968e-07
1.03669e-08
2.58794e-07
9.96864e-09
2.58617e-07
9.53658e-09
2.58441e-07
9.08049e-09
2.58263e-07
8.5691e-09
2.58093e-07
8.00443e-09
2.57924e-07
7.36533e-09
2.57763e-07
6.59858e-09
2.57615e-07
5.75244e-09
2.57451e-07
4.63581e-09
2.57311e-07
3.45785e-09
1.96115e-09
2.57114e-07
2.58751e-07
4.81538e-08
2.61842e-07
6.82301e-08
2.63099e-07
5.25883e-08
2.64178e-07
4.47474e-08
2.64925e-07
4.16769e-08
2.65355e-07
3.80404e-08
2.65688e-07
3.46017e-08
2.65989e-07
3.20581e-08
2.66249e-07
3.00764e-08
2.66473e-07
2.83645e-08
2.66671e-07
2.68539e-08
2.6685e-07
2.55242e-08
2.67014e-07
2.43446e-08
2.67163e-07
2.32846e-08
2.673e-07
2.23222e-08
2.67426e-07
2.14418e-08
2.67542e-07
2.06313e-08
2.67648e-07
1.98811e-08
2.67746e-07
1.91833e-08
2.67834e-07
1.85316e-08
2.67914e-07
1.79208e-08
2.67984e-07
1.73465e-08
2.68046e-07
1.68051e-08
2.68099e-07
1.62933e-08
2.68143e-07
1.58082e-08
2.68177e-07
1.53473e-08
2.68203e-07
1.49081e-08
2.68219e-07
1.44882e-08
2.68225e-07
1.40852e-08
2.68223e-07
1.36969e-08
2.68211e-07
1.33209e-08
2.6819e-07
1.29549e-08
2.68161e-07
1.25963e-08
2.68123e-07
1.22429e-08
2.68078e-07
1.1891e-08
2.68026e-07
1.15392e-08
2.67967e-07
1.11812e-08
2.67903e-07
1.08171e-08
2.67834e-07
1.04359e-08
2.67763e-07
1.00404e-08
2.67687e-07
9.61215e-09
2.67612e-07
9.15545e-09
2.67535e-07
8.64635e-09
2.67462e-07
8.07766e-09
2.67389e-07
7.4377e-09
2.67319e-07
6.66867e-09
2.67257e-07
5.81487e-09
2.67175e-07
4.7173e-09
2.67103e-07
3.52971e-09
2.07942e-09
2.66985e-07
2.66258e-07
4.38878e-08
2.69359e-07
6.51294e-08
2.70599e-07
5.13482e-08
2.71663e-07
4.36834e-08
2.72442e-07
4.08979e-08
2.72895e-07
3.75868e-08
2.73236e-07
3.4261e-08
2.73543e-07
3.17515e-08
2.73809e-07
2.98102e-08
2.74037e-07
2.81365e-08
2.74238e-07
2.66529e-08
2.74419e-07
2.5343e-08
2.74584e-07
2.41795e-08
2.74736e-07
2.31333e-08
2.74875e-07
2.21828e-08
2.75004e-07
2.13125e-08
2.75125e-07
2.0511e-08
2.75237e-07
1.97687e-08
2.75342e-07
1.90781e-08
2.75441e-07
1.8433e-08
2.75533e-07
1.78285e-08
2.7562e-07
1.72602e-08
2.757e-07
1.67245e-08
2.75775e-07
1.62184e-08
2.75844e-07
1.57391e-08
2.75908e-07
1.52839e-08
2.75965e-07
1.48505e-08
2.76017e-07
1.44364e-08
2.76063e-07
1.40393e-08
2.76103e-07
1.36569e-08
2.76137e-07
1.32867e-08
2.76166e-07
1.29265e-08
2.76189e-07
1.25734e-08
2.76206e-07
1.22254e-08
2.76218e-07
1.18786e-08
2.76226e-07
1.15314e-08
2.7623e-07
1.11777e-08
2.7623e-07
1.0817e-08
2.76227e-07
1.04392e-08
2.76222e-07
1.00453e-08
2.76214e-07
9.61963e-09
2.76208e-07
9.1621e-09
2.76199e-07
8.65455e-09
2.76194e-07
8.08327e-09
2.76189e-07
7.44248e-09
2.76183e-07
6.67445e-09
2.76182e-07
5.81612e-09
2.7616e-07
4.73898e-09
2.76138e-07
3.55146e-09
2.13982e-09
2.76078e-07
2.74009e-07
3.99199e-08
2.77108e-07
6.20301e-08
2.78341e-07
5.01156e-08
2.79387e-07
4.26378e-08
2.80193e-07
4.00912e-08
2.80672e-07
3.71079e-08
2.81022e-07
3.39117e-08
2.81334e-07
3.14393e-08
2.81606e-07
2.95379e-08
2.81839e-07
2.79039e-08
2.82043e-07
2.64488e-08
2.82226e-07
2.51594e-08
2.82393e-07
2.40126e-08
2.82546e-07
2.29807e-08
2.82686e-07
2.20421e-08
2.82817e-07
2.11821e-08
2.82939e-07
2.03892e-08
2.83053e-07
1.96544e-08
2.8316e-07
1.89705e-08
2.83262e-07
1.83312e-08
2.83359e-07
1.77319e-08
2.83451e-07
1.71683e-08
2.83538e-07
1.66371e-08
2.83621e-07
1.61352e-08
2.83701e-07
1.56598e-08
2.83776e-07
1.52085e-08
2.83847e-07
1.47789e-08
2.83915e-07
1.43686e-08
2.83979e-07
1.39753e-08
2.8404e-07
1.35966e-08
2.84096e-07
1.32301e-08
2.84149e-07
1.28735e-08
2.84199e-07
1.25239e-08
2.84245e-07
1.21791e-08
2.84288e-07
1.18354e-08
2.84329e-07
1.14908e-08
2.84367e-07
1.11396e-08
2.84403e-07
1.07805e-08
2.84438e-07
1.04046e-08
2.84472e-07
1.00109e-08
2.84506e-07
9.58643e-09
2.8454e-07
9.12753e-09
2.84574e-07
8.6204e-09
2.8461e-07
8.04721e-09
2.84648e-07
7.40518e-09
2.84682e-07
6.63991e-09
2.84719e-07
5.77944e-09
2.84736e-07
4.7223e-09
2.84745e-07
3.5417e-09
2.16302e-09
2.84722e-07
2.82013e-07
3.62449e-08
2.85099e-07
5.89436e-08
2.86334e-07
4.88807e-08
2.87359e-07
4.16131e-08
2.88188e-07
3.92616e-08
2.88694e-07
3.66023e-08
2.89053e-07
3.35526e-08
2.89371e-07
3.11217e-08
2.89649e-07
2.92595e-08
2.89887e-07
2.76662e-08
2.90094e-07
2.62413e-08
2.9028e-07
2.49735e-08
2.90449e-07
2.38439e-08
2.90603e-07
2.28266e-08
2.90745e-07
2.19004e-08
2.90876e-07
2.10508e-08
2.90998e-07
2.02668e-08
2.91113e-07
1.95396e-08
2.91222e-07
1.88621e-08
2.91324e-07
1.82286e-08
2.91422e-07
1.76342e-08
2.91515e-07
1.7075e-08
2.91605e-07
1.65476e-08
2.91691e-07
1.60492e-08
2.91773e-07
1.55772e-08
2.91853e-07
1.5129e-08
2.9193e-07
1.47023e-08
2.92004e-07
1.42948e-08
2.92075e-07
1.39042e-08
2.92143e-07
1.35281e-08
2.92209e-07
1.31641e-08
2.92273e-07
1.28098e-08
2.92334e-07
1.24624e-08
2.92394e-07
1.21196e-08
2.92452e-07
1.17776e-08
2.92508e-07
1.14344e-08
2.92563e-07
1.10844e-08
2.92618e-07
1.07258e-08
2.92672e-07
1.03505e-08
2.92727e-07
9.95613e-09
2.92781e-07
9.53177e-09
2.92838e-07
9.07111e-09
2.92895e-07
8.56344e-09
2.92953e-07
7.98876e-09
2.93013e-07
7.34523e-09
2.93069e-07
6.58363e-09
2.93126e-07
5.72308e-09
2.93163e-07
4.68482e-09
2.93189e-07
3.51588e-09
2.16636e-09
2.93186e-07
2.90278e-07
3.28556e-08
2.9334e-07
5.58818e-08
2.94586e-07
4.76346e-08
2.95588e-07
4.06113e-08
2.96435e-07
3.84142e-08
2.96968e-07
3.60691e-08
2.97339e-07
3.31822e-08
2.97662e-07
3.07987e-08
2.97946e-07
2.89749e-08
2.98189e-07
2.74231e-08
2.98401e-07
2.60301e-08
2.98589e-07
2.47848e-08
2.9876e-07
2.36731e-08
2.98916e-07
2.26708e-08
2.99059e-07
2.17575e-08
2.99191e-07
2.09186e-08
2.99314e-07
2.01436e-08
2.99429e-07
1.94242e-08
2.99538e-07
1.87534e-08
2.99641e-07
1.81255e-08
2.99739e-07
1.75361e-08
2.99833e-07
1.69812e-08
2.99923e-07
1.64577e-08
3.00009e-07
1.59627e-08
3.00093e-07
1.54937e-08
3.00174e-07
1.50483e-08
3.00252e-07
1.46242e-08
3.00327e-07
1.42191e-08
3.00401e-07
1.38308e-08
3.00472e-07
1.34568e-08
3.00542e-07
1.30948e-08
3.00609e-07
1.27423e-08
3.00675e-07
1.23965e-08
3.0074e-07
1.2055e-08
3.00803e-07
1.17141e-08
3.00866e-07
1.13715e-08
3.00928e-07
1.1022e-08
3.00991e-07
1.06632e-08
3.01054e-07
1.02879e-08
3.01117e-07
9.8924e-09
3.01182e-07
9.46747e-09
3.01248e-07
9.00497e-09
3.01315e-07
8.49617e-09
3.01383e-07
7.92046e-09
3.01453e-07
7.27554e-09
3.01518e-07
6.5182e-09
3.01582e-07
5.65958e-09
3.01628e-07
4.63903e-09
3.01658e-07
3.48515e-09
2.16269e-09
3.01662e-07
2.98815e-07
2.97432e-08
3.0184e-07
5.28566e-08
3.03105e-07
4.63695e-08
3.04083e-07
3.96332e-08
3.04943e-07
3.75546e-08
3.05504e-07
3.55079e-08
3.05887e-07
3.27992e-08
3.06216e-07
3.04701e-08
3.06507e-07
2.86841e-08
3.06755e-07
2.71743e-08
3.06971e-07
2.58149e-08
3.07162e-07
2.45933e-08
3.07335e-07
2.35e-08
3.07493e-07
2.25133e-08
3.07637e-07
2.16131e-08
3.0777e-07
2.07853e-08
3.07894e-07
2.00197e-08
3.0801e-07
1.93083e-08
3.08119e-07
1.86442e-08
3.08223e-07
1.80223e-08
3.08321e-07
1.74379e-08
3.08415e-07
1.68874e-08
3.08505e-07
1.63677e-08
3.08591e-07
1.5876e-08
3.08675e-07
1.541e-08
3.08756e-07
1.49674e-08
3.08834e-07
1.45458e-08
3.0891e-07
1.41431e-08
3.08984e-07
1.37569e-08
3.09056e-07
1.33849e-08
3.09126e-07
1.30247e-08
3.09195e-07
1.26738e-08
3.09262e-07
1.23293e-08
3.09328e-07
1.19889e-08
3.09393e-07
1.16488e-08
3.09458e-07
1.13066e-08
3.09523e-07
1.09574e-08
3.09588e-07
1.05982e-08
3.09653e-07
1.02225e-08
3.0972e-07
9.82573e-09
3.09787e-07
9.39994e-09
3.09857e-07
8.93579e-09
3.09927e-07
8.42573e-09
3.09998e-07
7.84952e-09
3.1007e-07
7.20377e-09
3.10137e-07
6.45123e-09
3.102e-07
5.59652e-09
3.10246e-07
4.59289e-09
3.10274e-07
3.45659e-09
2.16049e-09
3.10277e-07
3.07633e-07
2.68971e-08
3.1061e-07
4.98801e-08
3.11901e-07
4.50787e-08
3.12855e-07
3.86787e-08
3.13722e-07
3.66879e-08
3.14311e-07
3.4919e-08
3.14708e-07
3.24018e-08
3.15042e-07
3.01358e-08
3.15339e-07
2.83873e-08
3.15594e-07
2.69196e-08
3.15814e-07
2.55953e-08
3.16008e-07
2.43987e-08
3.16184e-07
2.33245e-08
3.16343e-07
2.23538e-08
3.16489e-07
2.14672e-08
3.16624e-07
2.06509e-08
3.16748e-07
1.98949e-08
3.16865e-07
1.91916e-08
3.16975e-07
1.85346e-08
3.17078e-07
1.79186e-08
3.17177e-07
1.73394e-08
3.17271e-07
1.67934e-08
3.17361e-07
1.62776e-08
3.17448e-07
1.57894e-08
3.17531e-07
1.53265e-08
3.17612e-07
1.48866e-08
3.1769e-07
1.44676e-08
3.17766e-07
1.40672e-08
3.1784e-07
1.36832e-08
3.17912e-07
1.33132e-08
3.17982e-07
1.29547e-08
3.1805e-07
1.26053e-08
3.18117e-07
1.22622e-08
3.18183e-07
1.19227e-08
3.18249e-07
1.15834e-08
3.18314e-07
1.12416e-08
3.18378e-07
1.08925e-08
3.18444e-07
1.05329e-08
3.18509e-07
1.01568e-08
3.18576e-07
9.75898e-09
3.18644e-07
9.3323e-09
3.18713e-07
8.86688e-09
3.18783e-07
8.35574e-09
3.18852e-07
7.7797e-09
3.18922e-07
7.13397e-09
3.18987e-07
6.38684e-09
3.19045e-07
5.53801e-09
3.19087e-07
4.55099e-09
3.19109e-07
3.4343e-09
2.16492e-09
3.19105e-07
3.16743e-07
2.43054e-08
3.19659e-07
4.69643e-08
3.20981e-07
4.37568e-08
3.21912e-07
3.77469e-08
3.22781e-07
3.58195e-08
3.23396e-07
3.43035e-08
3.2381e-07
3.19885e-08
3.2415e-07
2.97953e-08
3.24453e-07
2.80844e-08
3.24714e-07
2.66587e-08
3.24938e-07
2.53709e-08
3.25136e-07
2.42006e-08
3.25315e-07
2.31463e-08
3.25476e-07
2.21921e-08
3.25624e-07
2.13196e-08
3.2576e-07
2.0515e-08
3.25886e-07
1.9769e-08
3.26003e-07
1.90742e-08
3.26113e-07
1.84243e-08
3.26218e-07
1.78145e-08
3.26316e-07
1.72405e-08
3.26411e-07
1.66991e-08
3.26501e-07
1.61873e-08
3.26588e-07
1.57027e-08
3.26671e-07
1.52429e-08
3.26752e-07
1.48059e-08
3.2683e-07
1.43895e-08
3.26906e-07
1.39915e-08
3.26979e-07
1.36097e-08
3.27051e-07
1.32417e-08
3.2712e-07
1.2885e-08
3.27188e-07
1.25372e-08
3.27255e-07
1.21955e-08
3.27321e-07
1.18571e-08
3.27386e-07
1.15186e-08
3.2745e-07
1.11771e-08
3.27514e-07
1.08283e-08
3.27579e-07
1.04684e-08
3.27643e-07
1.0092e-08
3.27709e-07
9.69335e-09
3.27775e-07
9.26594e-09
3.27843e-07
8.79975e-09
3.2791e-07
8.28795e-09
3.27977e-07
7.71278e-09
3.28043e-07
7.06815e-09
3.28103e-07
6.32714e-09
3.28155e-07
5.48607e-09
3.2819e-07
4.51583e-09
3.28204e-07
3.42049e-09
2.17894e-09
3.2819e-07
3.26153e-07
2.19545e-08
3.28997e-07
4.4121e-08
3.30353e-07
4.24001e-08
3.31265e-07
3.68356e-08
3.3213e-07
3.49541e-08
3.32771e-07
3.3663e-08
3.33201e-07
3.15578e-08
3.33549e-07
2.9448e-08
3.33857e-07
2.77757e-08
3.34125e-07
2.63914e-08
3.34354e-07
2.51415e-08
3.34556e-07
2.39988e-08
3.34737e-07
2.29652e-08
3.34901e-07
2.2028e-08
3.35051e-07
2.117e-08
3.35188e-07
2.03776e-08
3.35315e-07
1.96419e-08
3.35434e-07
1.89557e-08
3.35545e-07
1.83133e-08
3.35649e-07
1.77097e-08
3.35749e-07
1.71412e-08
3.35843e-07
1.66045e-08
3.35934e-07
1.60968e-08
3.36021e-07
1.56158e-08
3.36104e-07
1.51593e-08
3.36185e-07
1.47252e-08
3.36263e-07
1.43115e-08
3.36339e-07
1.3916e-08
3.36412e-07
1.35364e-08
3.36483e-07
1.31705e-08
3.36552e-07