/*--------------------------------*- C++ -*----------------------------------*\
  =========                 |
  \\      /  F ield         | OpenFOAM: The Open Source CFD Toolbox
   \\    /   O peration     | Website:  https://openfoam.org
    \\  /    A nd           | Version:  7
     \\/     M anipulation  |
\*---------------------------------------------------------------------------*/
FoamFile
{
    version     2.0;
    format      ascii;
    class       surfaceScalarField;
    location    "0.41";
    object      phi_0;
}
// * * * * * * * * * * * * * * * * * * * * * * * * * * * * * * * * * * * * * //

dimensions      [0 3 -1 0 0 0 0];

internalField   nonuniform List<scalar> 
139350
(
6.45924e-08
9.20391e-08
3.1951e-08
3.26414e-08
2.306e-08
8.89099e-09
1.95658e-08
3.49413e-09
1.76143e-08
1.95155e-09
1.61869e-08
1.42735e-09
1.50541e-08
1.1328e-09
1.41404e-08
9.13745e-10
1.33881e-08
7.52249e-10
1.27543e-08
6.33889e-10
1.22099e-08
5.4436e-10
1.17357e-08
4.74183e-10
1.1318e-08
4.1774e-10
1.09465e-08
3.71498e-10
1.06134e-08
3.33049e-10
1.03128e-08
3.00666e-10
1.00397e-08
2.73084e-10
9.79032e-09
2.49354e-10
9.56156e-09
2.28757e-10
9.35083e-09
2.10736e-10
9.15597e-09
1.94856e-10
8.9752e-09
1.80771e-10
8.80699e-09
1.68203e-10
8.65007e-09
1.56924e-10
8.50332e-09
1.46746e-10
8.36581e-09
1.37512e-10
8.23672e-09
1.29087e-10
8.11537e-09
1.21358e-10
8.00115e-09
1.14218e-10
7.89356e-09
1.07587e-10
7.7922e-09
1.01366e-10
7.69669e-09
9.55087e-11
7.6068e-09
8.98921e-11
7.52226e-09
8.45318e-11
7.44305e-09
7.92165e-11
7.36896e-09
7.40911e-11
7.30021e-09
6.87432e-11
7.23665e-09
6.35664e-11
7.17885e-09
5.77939e-11
7.12669e-09
5.21589e-11
7.08114e-09
4.55522e-11
7.0425e-09
3.86383e-11
7.01144e-09
3.10596e-11
6.9907e-09
2.07393e-11
6.97725e-09
1.34521e-11
6.98405e-09
-6.80209e-12
6.98894e-09
-4.88637e-12
7.06202e-09
-7.30789e-11
6.93405e-09
1.27971e-10
-3.30532e-09
1.02394e-08
1.26026e-07
1.27457e-07
9.12631e-08
6.7404e-08
7.19423e-08
2.82118e-08
6.12156e-08
1.42208e-08
5.47697e-08
8.39747e-09
5.02761e-08
5.92096e-09
4.6792e-08
4.61691e-09
4.39759e-08
3.72978e-09
4.16488e-08
3.07938e-09
3.96859e-08
2.59681e-09
3.80001e-08
2.23016e-09
3.65313e-08
1.94292e-09
3.5237e-08
1.7121e-09
3.40855e-08
1.52304e-09
3.30527e-08
1.36582e-09
3.212e-08
1.23338e-09
3.12725e-08
1.12057e-09
3.04983e-08
1.0235e-09
2.97879e-08
9.39237e-10
2.91331e-08
8.65522e-10
2.85274e-08
8.00576e-10
2.79651e-08
7.42989e-10
2.74417e-08
6.91625e-10
2.69531e-08
6.45559e-10
2.64958e-08
6.04026e-10
2.60669e-08
5.66387e-10
2.56639e-08
5.32098e-10
2.52846e-08
5.00696e-10
2.4927e-08
4.71769e-10
2.45896e-08
4.44971e-10
2.42711e-08
4.19953e-10
2.39701e-08
3.96471e-10
2.36858e-08
3.74147e-10
2.34175e-08
3.52892e-10
2.31646e-08
3.32123e-10
2.29266e-08
3.12091e-10
2.27037e-08
2.91639e-10
2.24954e-08
2.7181e-10
2.23031e-08
2.50128e-10
2.21259e-08
2.29326e-10
2.19672e-08
2.04307e-10
2.1825e-08
1.80837e-10
2.17064e-08
1.49641e-10
2.16071e-08
1.20066e-10
2.15405e-08
7.99764e-11
2.15007e-08
3.30338e-11
2.15004e-08
-4.59728e-12
2.15948e-08
-1.67426e-10
2.15662e-08
1.56581e-10
-4.1399e-09
2.24007e-08
1.58807e-07
1.35054e-07
1.36494e-07
8.97168e-08
1.17493e-07
4.72129e-08
1.03316e-07
2.83981e-08
9.33092e-08
1.8404e-08
8.60073e-08
1.32229e-08
8.0301e-08
1.03232e-08
7.5649e-08
8.38179e-09
7.17692e-08
6.95919e-09
6.84748e-08
5.89123e-09
6.56326e-08
5.07236e-09
6.31479e-08
4.42768e-09
6.0952e-08
3.908e-09
5.89937e-08
3.48126e-09
5.7234e-08
3.12559e-09
5.56419e-08
2.82542e-09
5.41932e-08
2.56928e-09
5.28681e-08
2.3486e-09
5.16505e-08
2.15682e-09
5.05272e-08
1.98887e-09
4.9487e-08
1.84079e-09
4.85205e-08
1.70941e-09
4.762e-08
1.59217e-09
4.67785e-08
1.487e-09
4.59904e-08
1.39218e-09
4.52505e-08
1.30626e-09
4.45546e-08
1.22803e-09
4.38988e-08
1.15644e-09
4.328e-08
1.09057e-09
4.26954e-08
1.02965e-09
4.21424e-08
9.72917e-10
4.16191e-08
9.19786e-10
4.11237e-08
8.69527e-10
4.06548e-08
8.21792e-10
4.02114e-08
7.75555e-10
3.97924e-08
7.3104e-10
3.93978e-08
6.86206e-10
3.90269e-08
6.42795e-10
3.8681e-08
5.96031e-10
3.83587e-08
5.51579e-10
3.80651e-08
4.97937e-10
3.77957e-08
4.50204e-10
3.75637e-08
3.81662e-10
3.73562e-08
3.27548e-10
3.7204e-08
2.3218e-10
3.7078e-08
1.59059e-10
3.70313e-08
4.20483e-11
3.70666e-08
-2.02718e-10
3.71626e-08
6.06022e-11
-4.06521e-09
3.70879e-08
1.75664e-07
1.30906e-07
1.65594e-07
9.97863e-08
1.52723e-07
6.0084e-08
1.40124e-07
4.09969e-08
1.29435e-07
2.90931e-08
1.20792e-07
2.1866e-08
1.1368e-07
1.74357e-08
1.07698e-07
1.43636e-08
1.02596e-07
1.20615e-08
9.81907e-08
1.02961e-08
9.43436e-08
8.91944e-09
9.09487e-08
7.82257e-09
8.79261e-08
6.9306e-09
8.52143e-08
6.19308e-09
8.2765e-08
5.5749e-09
8.05397e-08
5.05069e-09
7.85074e-08
4.60159e-09
7.66427e-08
4.21334e-09
7.49245e-08
3.87496e-09
7.33355e-08
3.5779e-09
7.18609e-08
3.31542e-09
7.04882e-08
3.08211e-09
6.92067e-08
2.87361e-09
6.80074e-08
2.68631e-09
6.68823e-08
2.51727e-09
6.58246e-08
2.36398e-09
6.48283e-08
2.22435e-09
6.38882e-08
2.09653e-09
6.29998e-08
1.97897e-09
6.21592e-08
1.87028e-09
6.13629e-08
1.76922e-09
6.0608e-08
1.67469e-09
5.9892e-08
1.58553e-09
5.92127e-08
1.50103e-09
5.85686e-08
1.41964e-09
5.79582e-08
1.34147e-09
5.73809e-08
1.26348e-09
5.68356e-08
1.18812e-09
5.63237e-08
1.10798e-09
5.58431e-08
1.0321e-09
5.53997e-08
9.41343e-10
5.49878e-08
8.62168e-10
5.4623e-08
7.46411e-10
5.42892e-08
6.61334e-10
5.40235e-08
4.97912e-10
5.37905e-08
3.92078e-10
5.36546e-08
1.77879e-10
5.35992e-08
-1.47318e-10
5.36972e-08
-3.73571e-11
-3.78225e-09
5.34142e-08
1.8456e-07
1.23131e-07
1.8232e-07
1.02026e-07
1.76102e-07
6.63026e-08
1.67759e-07
4.934e-08
1.59136e-07
3.77163e-08
1.51226e-07
2.97757e-08
1.44152e-07
2.45094e-08
1.37851e-07
2.06651e-08
1.32248e-07
1.76645e-08
1.27259e-07
1.52847e-08
1.22799e-07
1.33792e-08
1.18792e-07
1.18301e-08
1.15172e-07
1.05504e-08
1.11886e-07
9.47902e-09
1.08889e-07
8.57166e-09
1.06144e-07
7.79559e-09
1.0362e-07
7.12588e-09
1.0129e-07
6.54333e-09
9.91321e-08
6.03292e-09
9.71272e-08
5.58278e-09
9.52592e-08
5.18345e-09
9.3514e-08
4.82726e-09
9.18797e-08
4.50797e-09
9.03456e-08
4.2204e-09
8.89026e-08
3.96025e-09
8.75427e-08
3.72389e-09
8.62588e-08
3.50822e-09
8.50448e-08
3.31055e-09
8.38952e-08
3.12859e-09
8.28052e-08
2.96026e-09
8.17707e-08
2.80374e-09
8.0788e-08
2.65739e-09
7.9854e-08
2.51956e-09
7.89659e-08
2.38906e-09
7.81218e-08
2.26383e-09
7.73195e-08
2.14371e-09
7.65583e-08
2.02474e-09
7.58365e-08
1.90988e-09
7.51553e-08
1.78916e-09
7.45126e-08
1.67481e-09
7.39138e-08
1.54015e-09
7.33534e-08
1.42255e-09
7.28465e-08
1.2533e-09
7.23788e-08
1.12903e-09
7.19834e-08
8.93321e-10
7.16344e-08
7.41132e-10
7.13816e-08
4.30694e-10
7.12262e-08
8.01076e-12
7.12313e-08
-4.24291e-11
-3.4369e-09
7.08859e-08
1.90388e-07
1.14959e-07
1.91851e-07
1.00563e-07
1.90242e-07
6.79112e-08
1.86151e-07
5.3431e-08
1.80712e-07
4.31556e-08
1.74957e-07
3.55311e-08
1.69258e-07
3.02075e-08
1.63773e-07
2.61511e-08
1.58595e-07
2.28425e-08
1.53767e-07
2.01126e-08
1.49292e-07
1.78541e-08
1.45153e-07
1.59685e-08
1.41327e-07
1.43764e-08
1.37787e-07
1.3019e-08
1.34507e-07
1.18518e-08
1.31462e-07
1.08405e-08
1.2863e-07
9.95816e-09
1.2599e-07
9.18338e-09
1.23524e-07
8.49897e-09
1.21216e-07
7.89106e-09
1.19051e-07
7.34839e-09
1.17016e-07
6.86168e-09
1.15101e-07
6.42324e-09
1.13295e-07
6.02666e-09
1.11589e-07
5.66652e-09
1.09974e-07
5.33819e-09
1.08445e-07
5.03771e-09
1.06994e-07
4.7616e-09
1.05615e-07
4.50688e-09
1.04305e-07
4.27081e-09
1.03058e-07
4.05105e-09
1.0187e-07
3.84535e-09
1.00738e-07
3.65163e-09
9.96584e-08
3.46818e-09
9.86298e-08
3.29246e-09
9.76495e-08
3.12398e-09
9.67163e-08
2.95791e-09
9.58287e-08
2.79753e-09
9.49872e-08
2.63066e-09
9.419e-08
2.47196e-09
9.34416e-08
2.28857e-09
9.2738e-08
2.12611e-09
9.20911e-08
1.90023e-09
9.14924e-08
1.72771e-09
9.09645e-08
1.42124e-09
9.04995e-08
1.20613e-09
9.01208e-08
8.09433e-10
8.98593e-08
2.69495e-10
8.97452e-08
7.16685e-11
-3.01127e-09
8.93196e-08
1.9554e-07
1.07234e-07
1.98247e-07
9.78567e-08
1.98967e-07
6.71907e-08
1.97786e-07
5.46125e-08
1.95153e-07
4.57887e-08
1.91809e-07
3.88742e-08
1.88076e-07
3.39411e-08
1.84123e-07
3.01038e-08
1.801e-07
2.68655e-08
1.76117e-07
2.40959e-08
1.72241e-07
2.17297e-08
1.68512e-07
1.96975e-08
1.6495e-07
1.79388e-08
1.61562e-07
1.64064e-08
1.58351e-07
1.50637e-08
1.5531e-07
1.3881e-08
1.52434e-07
1.28344e-08
1.49714e-07
1.19037e-08
1.4714e-07
1.10724e-08
1.44704e-07
1.03269e-08
1.42397e-07
9.65558e-09
1.4021e-07
9.04886e-09
1.38135e-07
8.49857e-09
1.36164e-07
7.99774e-09
1.3429e-07
7.54041e-09
1.32506e-07
7.12138e-09
1.30808e-07
6.73619e-09
1.29189e-07
6.38081e-09
1.27644e-07
6.05181e-09
1.26169e-07
5.74594e-09
1.24759e-07
5.46044e-09
1.23412e-07
5.19262e-09
1.22124e-07
4.93999e-09
1.20891e-07
4.70043e-09
1.19713e-07
4.47096e-09
1.18586e-07
4.25073e-09
1.1751e-07
4.03426e-09
1.16483e-07
3.82483e-09
1.15505e-07
3.60867e-09
1.14575e-07
3.4018e-09
1.13696e-07
3.16719e-09
1.12867e-07
2.95505e-09
1.12095e-07
2.67201e-09
1.1138e-07
2.44342e-09
1.1073e-07
2.07044e-09
1.10158e-07
1.77843e-09
1.09662e-07
1.30577e-09
1.09292e-07
6.39087e-10
1.09064e-07
2.99751e-10
-2.49688e-09
1.0855e-07
2.00848e-07
9.99706e-08
2.03775e-07
9.49294e-08
2.05326e-07
6.56403e-08
2.0564e-07
5.42978e-08
2.04813e-07
4.66163e-08
2.0333e-07
4.03566e-08
2.01381e-07
3.58903e-08
1.99049e-07
3.24358e-08
1.96439e-07
2.9475e-08
1.93655e-07
2.68804e-08
1.90776e-07
2.46087e-08
1.87863e-07
2.26108e-08
1.8496e-07
2.08419e-08
1.82098e-07
1.92675e-08
1.79301e-07
1.78607e-08
1.76583e-07
1.65994e-08
1.73952e-07
1.5465e-08
1.71414e-07
1.44416e-08
1.68971e-07
1.35156e-08
1.66623e-07
1.26752e-08
1.64368e-07
1.19105e-08
1.62204e-07
1.12128e-08
1.60128e-07
1.05745e-08
1.58137e-07
9.98891e-09
1.56227e-07
9.45041e-09
1.54395e-07
8.95379e-09
1.52636e-07
8.49456e-09
1.50948e-07
8.06858e-09
1.49328e-07
7.67226e-09
1.47772e-07
7.30216e-09
1.46277e-07
6.95532e-09
1.44841e-07
6.62878e-09
1.43461e-07
6.31984e-09
1.42135e-07
6.02604e-09
1.40862e-07
5.74417e-09
1.3964e-07
5.47302e-09
1.38467e-07
5.20667e-09
1.37344e-07
4.94821e-09
1.3627e-07
4.68289e-09
1.35245e-07
4.42707e-09
1.3427e-07
4.14161e-09
1.33347e-07
3.87771e-09
1.3248e-07
3.53938e-09
1.31673e-07
3.25011e-09
1.30928e-07
2.81595e-09
1.30267e-07
2.43908e-09
1.29675e-07
1.89773e-09
1.29207e-07
1.10765e-09
1.28879e-07
6.27425e-10
-1.90944e-09
1.28292e-07
2.06447e-07
9.30559e-08
2.09339e-07
9.20374e-08
2.11035e-07
6.39438e-08
2.11928e-07
5.34048e-08
2.11996e-07
4.65482e-08
2.11609e-07
4.07438e-08
2.10879e-07
3.66209e-08
2.09807e-07
3.35074e-08
2.08432e-07
3.08505e-08
2.0681e-07
2.85018e-08
2.04999e-07
2.64204e-08
2.03045e-07
2.45638e-08
2.00994e-07
2.28939e-08
1.98879e-07
2.13825e-08
1.9673e-07
2.00094e-08
1.94571e-07
1.87583e-08
1.9242e-07
1.76158e-08
1.90292e-07
1.65702e-08
1.88196e-07
1.56114e-08
1.86141e-07
1.47304e-08
1.84132e-07
1.39195e-08
1.82173e-07
1.31718e-08
1.80266e-07
1.24811e-08
1.78413e-07
1.18418e-08
1.76615e-07
1.12489e-08
1.7487e-07
1.0698e-08
1.7318e-07
1.01849e-08
1.71543e-07
9.70588e-09
1.69957e-07
9.25745e-09
1.68423e-07
8.83632e-09
1.66939e-07
8.43958e-09
1.65504e-07
8.06425e-09
1.64116e-07
7.70761e-09
1.62775e-07
7.36706e-09
1.6148e-07
7.03927e-09
1.6023e-07
6.72281e-09
1.59025e-07
6.41152e-09
1.57865e-07
6.10821e-09
1.5675e-07
5.79767e-09
1.55682e-07
5.49582e-09
1.5466e-07
5.16314e-09
1.53689e-07
4.84903e-09
1.52768e-07
4.45981e-09
1.51909e-07
4.10947e-09
1.51104e-07
3.62044e-09
1.50386e-07
3.15755e-09
1.49731e-07
2.55293e-09
1.49186e-07
1.65235e-09
1.4878e-07
1.03313e-09
-1.27534e-09
1.48146e-07
2.12289e-07
8.64296e-08
2.15152e-07
8.91745e-08
2.1679e-07
6.23057e-08
2.17841e-07
5.23537e-08
2.18255e-07
4.61338e-08
2.1837e-07
4.06284e-08
2.18294e-07
3.66974e-08
2.17994e-07
3.38074e-08
2.17463e-07
3.13817e-08
2.16718e-07
2.92462e-08
2.15785e-07
2.73539e-08
2.14687e-07
2.56615e-08
2.13451e-07
2.413e-08
2.12102e-07
2.27318e-08
2.10663e-07
2.14483e-08
2.09156e-07
2.02656e-08
2.07599e-07
1.91728e-08
2.06008e-07
1.81608e-08
2.04397e-07
1.72221e-08
2.02778e-07
1.63499e-08
2.01159e-07
1.55385e-08
1.99548e-07
1.47826e-08
1.97952e-07
1.40775e-08
1.96374e-07
1.3419e-08
1.9482e-07
1.28032e-08
1.93292e-07
1.22262e-08
1.91792e-07
1.16848e-08
1.90322e-07
1.11756e-08
1.88884e-07
1.06957e-08
1.87478e-07
1.02421e-08
1.86106e-07
9.81219e-09
1.84767e-07
9.40311e-09
1.83462e-07
9.01231e-09
1.82192e-07
8.63719e-09
1.80957e-07
8.27448e-09
1.79757e-07
7.92265e-09
1.78593e-07
7.57544e-09
1.77466e-07
7.23541e-09
1.76376e-07
6.88725e-09
1.75326e-07
6.54602e-09
1.74316e-07
6.173e-09
1.73351e-07
5.81389e-09
1.7243e-07
5.38083e-09
1.71566e-07
4.97336e-09
1.7075e-07
4.43718e-09
1.70014e-07
3.89338e-09
1.69336e-07
3.23097e-09
1.68749e-07
2.23889e-09
1.68295e-07
1.4872e-09
-6.26312e-10
1.67646e-07
2.1833e-07
8.00805e-08
2.21205e-07
8.62991e-08
2.22762e-07
6.07486e-08
2.2384e-07
5.12758e-08
2.24364e-07
4.561e-08
2.24657e-07
4.03352e-08
2.24857e-07
3.64977e-08
2.24935e-07
3.37289e-08
2.2487e-07
3.14469e-08
2.24661e-07
2.94551e-08
2.24313e-07
2.77023e-08
2.23831e-07
2.61434e-08
2.23225e-07
2.47364e-08
2.22505e-07
2.34514e-08
2.21685e-07
2.22685e-08
2.20777e-07
2.11733e-08
2.19795e-07
2.01552e-08
2.1875e-07
1.92057e-08
2.17654e-07
1.8318e-08
2.16517e-07
1.74867e-08
2.15349e-07
1.67068e-08
2.14157e-07
1.59743e-08
2.12949e-07
1.52855e-08
2.11731e-07
1.46371e-08
2.10508e-07
1.40259e-08
2.09285e-07
1.34491e-08
2.08066e-07
1.29039e-08
2.06854e-07
1.23875e-08
2.05652e-07
1.18976e-08
2.04463e-07
1.14314e-08
2.03289e-07
1.09868e-08
2.02131e-07
1.0561e-08
2.00991e-07
1.01519e-08
1.99871e-07
9.75686e-09
1.98773e-07
9.37278e-09
1.97698e-07
8.99815e-09
1.96646e-07
8.62671e-09
1.95621e-07
8.26081e-09
1.94623e-07
7.88531e-09
1.93655e-07
7.51411e-09
1.92718e-07
7.11016e-09
1.91817e-07
6.71424e-09
1.90951e-07
6.24663e-09
1.90135e-07
5.78957e-09
1.89357e-07
5.21537e-09
1.8865e-07
4.60084e-09
1.87993e-07
3.88731e-09
1.87406e-07
2.82607e-09
1.86939e-07
1.95399e-09
2.98986e-12
1.8631e-07
2.24558e-07
7.40153e-08
2.27469e-07
8.33882e-08
2.28959e-07
5.9259e-08
2.30042e-07
5.01927e-08
2.30607e-07
4.50449e-08
2.30949e-07
3.99933e-08
2.31238e-07
3.62084e-08
2.31465e-07
3.35023e-08
2.31609e-07
3.13031e-08
2.31667e-07
2.93965e-08
2.3164e-07
2.77295e-08
2.31525e-07
2.62582e-08
2.31322e-07
2.49394e-08
2.31033e-07
2.37409e-08
2.3066e-07
2.26407e-08
2.3021e-07
2.16233e-08
2.29689e-07
2.0677e-08
2.29101e-07
1.97929e-08
2.28456e-07
1.89639e-08
2.27758e-07
1.81844e-08
2.27015e-07
1.74499e-08
2.26232e-07
1.67566e-08
2.25417e-07
1.61011e-08
2.24573e-07
1.54806e-08
2.23707e-07
1.48924e-08
2.22822e-07
1.4334e-08
2.21923e-07
1.38031e-08
2.21013e-07
1.32974e-08
2.20096e-07
1.28147e-08
2.19174e-07
1.23527e-08
2.18252e-07
1.19094e-08
2.1733e-07
1.14825e-08
2.16412e-07
1.10697e-08
2.155e-07
1.06689e-08
2.14596e-07
1.02768e-08
2.13702e-07
9.8921e-09
2.1282e-07
9.50855e-09
2.11953e-07
9.12832e-09
2.11102e-07
8.7366e-09
2.1027e-07
8.34593e-09
2.09458e-07
7.9216e-09
2.08674e-07
7.49862e-09
2.07914e-07
7.00682e-09
2.07193e-07
6.51006e-09
2.06501e-07
5.9077e-09
2.05866e-07
5.23599e-09
2.05274e-07
4.47932e-09
2.04728e-07
3.37204e-09
2.04285e-07
2.3973e-09
5.77856e-10
2.0371e-07
2.30979e-07
6.8242e-08
2.33934e-07
8.04335e-08
2.35364e-07
5.78287e-08
2.36453e-07
4.91035e-08
2.37052e-07
4.44463e-08
2.37409e-07
3.96361e-08
2.3772e-07
3.58977e-08
2.37992e-07
3.32298e-08
2.38212e-07
3.10837e-08
2.3838e-07
2.92284e-08
2.38499e-07
2.76108e-08
2.38566e-07
2.61909e-08
2.38579e-07
2.4926e-08
2.38537e-07
2.3783e-08
2.38439e-07
2.27391e-08
2.38285e-07
2.17775e-08
2.38076e-07
2.08859e-08
2.37814e-07
2.00545e-08
2.37502e-07
1.92757e-08
2.37143e-07
1.85433e-08
2.36741e-07
1.78527e-08
2.36297e-07
1.71997e-08
2.35818e-07
1.65811e-08
2.35304e-07
1.59939e-08
2.34761e-07
1.54356e-08
2.34191e-07
1.49039e-08
2.33598e-07
1.43965e-08
2.32984e-07
1.39112e-08
2.32353e-07
1.3446e-08
2.31707e-07
1.29988e-08
2.31049e-07
1.25677e-08
2.30381e-07
1.21504e-08
2.29706e-07
1.17448e-08
2.29025e-07
1.13489e-08
2.28343e-07
1.09594e-08
2.2766e-07
1.05751e-08
2.26979e-07
1.01897e-08
2.26302e-07
9.80516e-09
2.25631e-07
9.40717e-09
2.24971e-07
9.00671e-09
2.2432e-07
8.57189e-09
2.23688e-07
8.1314e-09
2.23069e-07
7.62537e-09
2.2248e-07
7.09944e-09
2.21909e-07
6.47839e-09
2.21381e-07
5.76433e-09
2.20887e-07
4.97333e-09
2.20417e-07
3.84141e-09
2.2003e-07
2.7846e-09
1.07159e-09
2.19536e-07
2.376e-07
6.27665e-08
2.40601e-07
7.74325e-08
2.41975e-07
5.64555e-08
2.43069e-07
4.80094e-08
2.43704e-07
4.38105e-08
2.44075e-07
3.92655e-08
2.44391e-07
3.55816e-08
2.44676e-07
3.2945e-08
2.44918e-07
3.08416e-08
2.45123e-07
2.90238e-08
2.45296e-07
2.74378e-08
2.45438e-07
2.60483e-08
2.45549e-07
2.48151e-08
2.45627e-07
2.37051e-08
2.45671e-07
2.26953e-08
2.4568e-07
2.17689e-08
2.45652e-07
2.0913e-08
2.45589e-07
2.01175e-08
2.45491e-07
1.93743e-08
2.45357e-07
1.86769e-08
2.4519e-07
1.80203e-08
2.44989e-07
1.74002e-08
2.44757e-07
1.68129e-08
2.44496e-07
1.62555e-08
2.44206e-07
1.57253e-08
2.4389e-07
1.52198e-08
2.4355e-07
1.47368e-08
2.43187e-07
1.4274e-08
2.42803e-07
1.38294e-08
2.42401e-07
1.34009e-08
2.41982e-07
1.29865e-08
2.41549e-07
1.25841e-08
2.41102e-07
1.21914e-08
2.40645e-07
1.18064e-08
2.40178e-07
1.14259e-08
2.39705e-07
1.10486e-08
2.39226e-07
1.06681e-08
2.38745e-07
1.02863e-08
2.38263e-07
9.88931e-09
2.37783e-07
9.48635e-09
2.37306e-07
9.04873e-09
2.36839e-07
8.59863e-09
2.36378e-07
8.08643e-09
2.35937e-07
7.54093e-09
2.35506e-07
6.90909e-09
2.35103e-07
6.1667e-09
2.34727e-07
5.35008e-09
2.34357e-07
4.21124e-09
2.34047e-07
3.09411e-09
1.46735e-09
2.33652e-07
2.4443e-07
5.75923e-08
2.47471e-07
7.43918e-08
2.48795e-07
5.51313e-08
2.4989e-07
4.6915e-08
2.50564e-07
4.31361e-08
2.50952e-07
3.88778e-08
2.51272e-07
3.52611e-08
2.51563e-07
3.26547e-08
2.51812e-07
3.05918e-08
2.52028e-07
2.88084e-08
2.52218e-07
2.72477e-08
2.52386e-07
2.588e-08
2.52534e-07
2.46675e-08
2.52661e-07
2.35781e-08
2.52767e-07
2.25891e-08
2.52852e-07
2.16838e-08
2.52916e-07
2.08496e-08
2.52957e-07
2.00762e-08
2.52976e-07
1.93555e-08
2.52972e-07
1.86809e-08
2.52945e-07
1.80472e-08
2.52895e-07
1.74498e-08
2.52823e-07
1.68851e-08
2.52729e-07
1.63498e-08
2.52613e-07
1.58412e-08
2.52476e-07
1.53567e-08
2.52319e-07
1.48939e-08
2.52143e-07
1.44505e-08
2.51948e-07
1.40244e-08
2.51735e-07
1.36134e-08
2.51506e-07
1.32153e-08
2.51263e-07
1.2828e-08
2.51005e-07
1.24492e-08
2.50735e-07
1.20767e-08
2.50453e-07
1.17072e-08
2.50162e-07
1.13395e-08
2.49863e-07
1.09671e-08
2.49558e-07
1.05914e-08
2.49248e-07
1.01993e-08
2.48936e-07
9.79812e-09
2.48623e-07
9.36245e-09
2.48313e-07
8.90808e-09
2.48005e-07
8.39508e-09
2.47708e-07
7.83754e-09
2.47417e-07
7.2005e-09
2.47142e-07
6.44149e-09
2.46885e-07
5.60685e-09
2.46622e-07
4.47424e-09
2.46399e-07
3.31714e-09
1.76037e-09
2.46106e-07
2.51478e-07
5.27214e-08
2.54548e-07
7.1321e-08
2.55834e-07
5.38457e-08
2.56923e-07
4.58259e-08
2.57635e-07
4.2424e-08
2.58043e-07
3.84701e-08
2.58369e-07
3.49348e-08
2.58665e-07
3.23592e-08
2.5892e-07
3.03369e-08
2.59139e-07
2.85885e-08
2.59335e-07
2.70524e-08
2.59511e-07
2.57038e-08
2.5967e-07
2.45081e-08
2.59814e-07
2.34342e-08
2.59944e-07
2.24596e-08
2.6006e-07
2.15682e-08
2.60161e-07
2.07476e-08
2.6025e-07
1.99878e-08
2.60324e-07
1.92809e-08
2.60385e-07
1.86203e-08
2.60432e-07
1.80007e-08
2.60464e-07
1.74176e-08
2.60481e-07
1.68673e-08
2.60485e-07
1.63466e-08
2.60473e-07
1.58526e-08
2.60447e-07
1.53826e-08
2.60407e-07
1.49342e-08
2.60353e-07
1.45051e-08
2.60284e-07
1.40929e-08
2.60202e-07
1.36954e-08
2.60107e-07
1.33104e-08
2.59999e-07
1.29356e-08
2.5988e-07
1.25686e-08
2.59749e-07
1.22072e-08
2.59609e-07
1.18478e-08
2.59459e-07
1.14892e-08
2.59301e-07
1.11249e-08
2.59137e-07
1.07558e-08
2.58967e-07
1.03697e-08
2.58793e-07
9.97171e-09
2.58615e-07
9.53992e-09
2.58439e-07
9.08409e-09
2.58262e-07
8.5729e-09
2.58091e-07
8.00839e-09
2.57922e-07
7.3693e-09
2.57761e-07
6.60233e-09
2.57612e-07
5.75565e-09
2.57449e-07
4.63776e-09
2.57308e-07
3.45785e-09
1.95794e-09
2.57111e-07
2.58751e-07
4.81538e-08
2.61842e-07
6.823e-08
2.63099e-07
5.25881e-08
2.64178e-07
4.47472e-08
2.64925e-07
4.16767e-08
2.65355e-07
3.80403e-08
2.65688e-07
3.46018e-08
2.65989e-07
3.20582e-08
2.66249e-07
3.00766e-08
2.66473e-07
2.83648e-08
2.66671e-07
2.68542e-08
2.6685e-07
2.55246e-08
2.67014e-07
2.4345e-08
2.67163e-07
2.32849e-08
2.673e-07
2.23226e-08
2.67426e-07
2.14421e-08
2.67542e-07
2.06316e-08
2.67648e-07
1.98814e-08
2.67745e-07
1.91836e-08
2.67834e-07
1.85319e-08
2.67913e-07
1.79211e-08
2.67984e-07
1.73469e-08
2.68046e-07
1.68055e-08
2.68099e-07
1.62937e-08
2.68143e-07
1.58088e-08
2.68177e-07
1.5348e-08
2.68202e-07
1.49089e-08
2.68218e-07
1.44891e-08
2.68225e-07
1.40863e-08
2.68222e-07
1.36981e-08
2.6821e-07
1.33222e-08
2.6819e-07
1.29564e-08
2.6816e-07
1.25979e-08
2.68123e-07
1.22447e-08
2.68077e-07
1.1893e-08
2.68025e-07
1.15414e-08
2.67966e-07
1.11836e-08
2.67902e-07
1.08198e-08
2.67833e-07
1.04388e-08
2.67761e-07
1.00436e-08
2.67686e-07
9.6156e-09
2.67611e-07
9.15916e-09
2.67533e-07
8.65027e-09
2.6746e-07
8.08172e-09
2.67387e-07
7.44177e-09
2.67317e-07
6.67251e-09
2.67255e-07
5.81816e-09
2.67173e-07
4.71939e-09
2.67101e-07
3.52994e-09
2.07674e-09
2.66982e-07
2.66258e-07
4.38878e-08
2.69359e-07
6.51293e-08
2.70599e-07
5.13481e-08
2.71663e-07
4.36833e-08
2.72442e-07
4.08977e-08
2.72896e-07
3.75867e-08
2.73236e-07
3.4261e-08
2.73543e-07
3.17516e-08
2.73809e-07
2.98104e-08
2.74037e-07
2.81369e-08
2.74238e-07
2.66533e-08
2.74419e-07
2.53434e-08
2.74584e-07
2.41799e-08
2.74735e-07
2.31337e-08
2.74875e-07
2.21832e-08
2.75004e-07
2.13129e-08
2.75124e-07
2.05113e-08
2.75237e-07
1.9769e-08
2.75342e-07
1.90784e-08
2.75441e-07
1.84333e-08
2.75533e-07
1.78288e-08
2.75619e-07
1.72605e-08
2.757e-07
1.67249e-08
2.75775e-07
1.62189e-08
2.75844e-07
1.57396e-08
2.75907e-07
1.52846e-08
2.75965e-07
1.48513e-08
2.76017e-07
1.44373e-08
2.76063e-07
1.40404e-08
2.76103e-07
1.36581e-08
2.76137e-07
1.32881e-08
2.76165e-07
1.2928e-08
2.76188e-07
1.25752e-08
2.76205e-07
1.22273e-08
2.76218e-07
1.18807e-08
2.76225e-07
1.15337e-08
2.76229e-07
1.11802e-08
2.76229e-07
1.08198e-08
2.76225e-07
1.04423e-08
2.7622e-07
1.00486e-08
2.76213e-07
9.62318e-09
2.76206e-07
9.16591e-09
2.76198e-07
8.65857e-09
2.76192e-07
8.08743e-09
2.76187e-07
7.44663e-09
2.76181e-07
6.67837e-09
2.7618e-07
5.8195e-09
2.76158e-07
4.7412e-09
2.76136e-07
3.55194e-09
2.13769e-09
2.76075e-07
2.74009e-07
3.99199e-08
2.77108e-07
6.203e-08
2.78341e-07
5.01154e-08
2.79387e-07
4.26376e-08
2.80193e-07
4.0091e-08
2.80672e-07
3.71077e-08
2.81022e-07
3.39117e-08
2.81334e-07
3.14394e-08
2.81606e-07
2.95382e-08
2.81839e-07
2.79042e-08
2.82043e-07
2.64492e-08
2.82226e-07
2.51599e-08
2.82393e-07
2.40131e-08
2.82546e-07
2.29811e-08
2.82686e-07
2.20426e-08
2.82817e-07
2.11825e-08
2.82938e-07
2.03895e-08
2.83053e-07
1.96548e-08
2.8316e-07
1.89707e-08
2.83262e-07
1.83315e-08
2.83359e-07
1.77322e-08
2.8345e-07
1.71687e-08
2.83538e-07
1.66375e-08
2.83621e-07
1.61356e-08
2.837e-07
1.56604e-08
2.83776e-07
1.52092e-08
2.83847e-07
1.47798e-08
2.83915e-07
1.43696e-08
2.83979e-07
1.39764e-08
2.84039e-07
1.35979e-08
2.84096e-07
1.32316e-08
2.84149e-07
1.28751e-08
2.84198e-07
1.25257e-08
2.84244e-07
1.21811e-08
2.84287e-07
1.18376e-08
2.84328e-07
1.14932e-08
2.84366e-07
1.11422e-08
2.84402e-07
1.07834e-08
2.84437e-07
1.04077e-08
2.84471e-07
1.00143e-08
2.84504e-07
9.59008e-09
2.84539e-07
9.13144e-09
2.84573e-07
8.62451e-09
2.84609e-07
8.05146e-09
2.84646e-07
7.40942e-09
2.84681e-07
6.64391e-09
2.84717e-07
5.7829e-09
2.84734e-07
4.72468e-09
2.84743e-07
3.54245e-09
2.16143e-09
2.84719e-07
2.82013e-07
3.62449e-08
2.85099e-07
5.89435e-08
2.86334e-07
4.88805e-08
2.87359e-07
4.16129e-08
2.88188e-07
3.92614e-08
2.88694e-07
3.66022e-08
2.89053e-07
3.35526e-08
2.89371e-07
3.11218e-08
2.89649e-07
2.92597e-08
2.89887e-07
2.76665e-08
2.90094e-07
2.62418e-08
2.9028e-07
2.49739e-08
2.90449e-07
2.38444e-08
2.90603e-07
2.28271e-08
2.90745e-07
2.19009e-08
2.90876e-07
2.10512e-08
2.90998e-07
2.02671e-08
2.91113e-07
1.95399e-08
2.91221e-07
1.88624e-08
2.91324e-07
1.82288e-08
2.91422e-07
1.76345e-08
2.91515e-07
1.70753e-08
2.91605e-07
1.6548e-08
2.91691e-07
1.60497e-08
2.91773e-07
1.55778e-08
2.91853e-07
1.51297e-08
2.91929e-07
1.47031e-08
2.92003e-07
1.42958e-08
2.92074e-07
1.39054e-08
2.92143e-07
1.35295e-08
2.92209e-07
1.31656e-08
2.92272e-07
1.28116e-08
2.92334e-07
1.24643e-08
2.92393e-07
1.21217e-08
2.92451e-07
1.17799e-08
2.92507e-07
1.14369e-08
2.92562e-07
1.10871e-08
2.92617e-07
1.07288e-08
2.92671e-07
1.03537e-08
2.92726e-07
9.95962e-09
2.9278e-07
9.53552e-09
2.92836e-07
9.07512e-09
2.92893e-07
8.56764e-09
2.92952e-07
7.99309e-09
2.93012e-07
7.34955e-09
2.93068e-07
6.58772e-09
2.93124e-07
5.72665e-09
2.93161e-07
4.68736e-09
2.93187e-07
3.51693e-09
2.16534e-09
2.93183e-07
2.90278e-07
3.28556e-08
2.9334e-07
5.58816e-08
2.94586e-07
4.76344e-08
2.95588e-07
4.0611e-08
2.96435e-07
3.8414e-08
2.96968e-07
3.6069e-08
2.97339e-07
3.31822e-08
2.97662e-07
3.07988e-08
2.97946e-07
2.89751e-08
2.98189e-07
2.74235e-08
2.98401e-07
2.60306e-08
2.98589e-07
2.47853e-08
2.9876e-07
2.36736e-08
2.98916e-07
2.26714e-08
2.99059e-07
2.17579e-08
2.99191e-07
2.0919e-08
2.99314e-07
2.0144e-08
2.99429e-07
1.94245e-08
2.99538e-07
1.87537e-08
2.99641e-07
1.81258e-08
2.99739e-07
1.75364e-08
2.99833e-07
1.69816e-08
2.99923e-07
1.64581e-08
3.00009e-07
1.59632e-08
3.00093e-07
1.54943e-08
3.00174e-07
1.5049e-08
3.00252e-07
1.46251e-08
3.00327e-07
1.42202e-08
3.00401e-07
1.3832e-08
3.00472e-07
1.34582e-08
3.00541e-07
1.30964e-08
3.00609e-07
1.27441e-08
3.00674e-07
1.23985e-08
3.00739e-07
1.20571e-08
3.00802e-07
1.17165e-08
3.00865e-07
1.13741e-08
3.00928e-07
1.10248e-08
3.0099e-07
1.06663e-08
3.01052e-07
1.02912e-08
3.01116e-07
9.89599e-09
3.0118e-07
9.47132e-09
3.01246e-07
9.00907e-09
3.01314e-07
8.50047e-09
3.01382e-07
7.92488e-09
3.01451e-07
7.27996e-09
3.01517e-07
6.5224e-09
3.0158e-07
5.66327e-09
3.01626e-07
4.64178e-09
3.01656e-07
3.48653e-09
2.16225e-09
3.01659e-07
2.98815e-07
2.97431e-08
3.0184e-07
5.28564e-08
3.03105e-07
4.63693e-08
3.04083e-07
3.96329e-08
3.04943e-07
3.75543e-08
3.05504e-07
3.55077e-08
3.05887e-07
3.27991e-08
3.06216e-07
3.04702e-08
3.06507e-07
2.86844e-08
3.06755e-07
2.71747e-08
3.06971e-07
2.58154e-08
3.07162e-07
2.45939e-08
3.07335e-07
2.35006e-08
3.07493e-07
2.25139e-08
3.07637e-07
2.16136e-08
3.0777e-07
2.07858e-08
3.07894e-07
2.00201e-08
3.0801e-07
1.93086e-08
3.08119e-07
1.86445e-08
3.08222e-07
1.80225e-08
3.08321e-07
1.74381e-08
3.08415e-07
1.68877e-08
3.08505e-07
1.6368e-08
3.08591e-07
1.58765e-08
3.08675e-07
1.54107e-08
3.08756e-07
1.49682e-08
3.08834e-07
1.45467e-08
3.0891e-07
1.41442e-08
3.08984e-07
1.37582e-08
3.09056e-07
1.33864e-08
3.09126e-07
1.30263e-08
3.09194e-07
1.26756e-08
3.09261e-07
1.23314e-08
3.09327e-07
1.19911e-08
3.09392e-07
1.16513e-08
3.09457e-07
1.13093e-08
3.09522e-07
1.09603e-08
3.09587e-07
1.06013e-08
3.09652e-07
1.02259e-08
3.09719e-07
9.82943e-09
3.09786e-07
9.40389e-09
3.09855e-07
8.93999e-09
3.09925e-07
8.43013e-09
3.09996e-07
7.85404e-09
3.10068e-07
7.20829e-09
3.10135e-07
6.45554e-09
3.10198e-07
5.60035e-09
3.10244e-07
4.59586e-09
3.10272e-07
3.45833e-09
2.16064e-09
3.10273e-07
3.07633e-07
2.68971e-08
3.1061e-07
4.98799e-08
3.11901e-07
4.50785e-08
3.12855e-07
3.86785e-08
3.13722e-07
3.66877e-08
3.14311e-07
3.49188e-08
3.14708e-07
3.24017e-08
3.15042e-07
3.01359e-08
3.15339e-07
2.83875e-08
3.15594e-07
2.692e-08
3.15814e-07
2.55958e-08
3.16008e-07
2.43992e-08
3.16184e-07
2.33251e-08
3.16343e-07
2.23544e-08
3.16489e-07
2.14677e-08
3.16623e-07
2.06513e-08
3.16748e-07
1.98953e-08
3.16865e-07
1.9192e-08
3.16975e-07
1.85349e-08
3.17078e-07
1.79189e-08
3.17177e-07
1.73397e-08
3.17271e-07
1.67937e-08
3.17361e-07
1.62779e-08
3.17447e-07
1.57899e-08
3.17531e-07
1.53271e-08
3.17612e-07
1.48874e-08
3.1769e-07
1.44685e-08
3.17766e-07
1.40684e-08
3.17839e-07
1.36845e-08
3.17911e-07
1.33147e-08
3.17981e-07
1.29564e-08
3.18049e-07
1.26072e-08
3.18117e-07
1.22643e-08
3.18183e-07
1.19251e-08
3.18248e-07
1.1586e-08
3.18313e-07
1.12444e-08
3.18378e-07
1.08955e-08
3.18443e-07
1.05362e-08
3.18508e-07
1.01603e-08
3.18575e-07
9.76278e-09
3.18642e-07
9.33636e-09
3.18711e-07
8.87119e-09
3.18781e-07
8.36025e-09
3.18851e-07
7.78433e-09
3.1892e-07
7.13861e-09
3.18985e-07
6.39127e-09
3.19043e-07
5.54201e-09
3.19085e-07
4.5542e-09
3.19107e-07
3.43642e-09
2.16568e-09
3.19102e-07
3.16743e-07
2.43053e-08
3.19659e-07
4.69642e-08
3.20981e-07
4.37565e-08
3.21913e-07
3.77466e-08
3.22781e-07
3.58192e-08
3.23397e-07
3.43033e-08
3.2381e-07
3.19884e-08
3.2415e-07
2.97954e-08
3.24453e-07
2.80847e-08
3.24714e-07
2.66591e-08
3.24938e-07
2.53715e-08
3.25136e-07
2.42012e-08
3.25315e-07
2.31469e-08
3.25476e-07
2.21927e-08
3.25624e-07
2.13201e-08
3.2576e-07
2.05155e-08
3.25886e-07
1.97695e-08
3.26003e-07
1.90745e-08
3.26113e-07
1.84246e-08
3.26217e-07
1.78148e-08
3.26316e-07
1.72408e-08
3.26411e-07
1.66994e-08
3.26501e-07
1.61877e-08
3.26587e-07
1.57032e-08
3.26671e-07
1.52436e-08
3.26752e-07
1.48067e-08
3.2683e-07
1.43905e-08
3.26905e-07
1.39927e-08
3.26979e-07
1.36111e-08
3.2705e-07
1.32433e-08
3.2712e-07
1.28868e-08
3.27188e-07
1.25393e-08
3.27254e-07
1.21977e-08
3.2732e-07
1.18595e-08
3.27385e-07
1.15213e-08
3.27449e-07
1.118e-08
3.27513e-07
1.08314e-08
3.27578e-07
1.04718e-08
3.27642e-07
1.00956e-08
3.27708e-07
9.69726e-09
3.27774e-07
9.27011e-09
3.27841e-07
8.80416e-09
3.27909e-07
8.29257e-09
3.27976e-07
7.71752e-09
3.28041e-07
7.07291e-09
3.28101e-07
6.33171e-09
3.28153e-07
5.49025e-09
3.28187e-07
4.51931e-09
3.28201e-07
3.42301e-09
2.18031e-09
3.28186e-07
3.26153e-07
2.19545e-08
3.28997e-07
4.41208e-08
3.30354e-07
4.23998e-08
3.31265e-07
3.68353e-08
3.3213e-07
3.49538e-08
3.32771e-07
3.36628e-08
3.33201e-07
3.15577e-08
3.33549e-07
2.94481e-08
3.33857e-07
2.7776e-08
3.34125e-07
2.63918e-08
3.34354e-07
2.51421e-08
3.34556e-07
2.39995e-08
3.34737e-07
2.29659e-08
3.34901e-07
2.20287e-08
3.35051e-07
2.11706e-08
3.35188e-07
2.03782e-08
3.35315e-07
1.96423e-08
3.35433e-07
1.89561e-08
3.35545e-07
1.83136e-08
3.35649e-07
1.771e-08
3.35749e-07
1.71415e-08
3.35843e-07
1.66048e-08
3.35934e-07
1.60972e-08
3.36021e-07
1.56163e-08
3.36104e-07
1.51599e-08
3.36185e-07
1.4726e-08
3.36263e-07
1.43125e-08
3.36338e-07
1.39172e-08
3.36412e-07
1.35379e-08
3.36483e-07
1.31722e-08
3.36552e-07