/*--------------------------------*- C++ -*----------------------------------*\
  =========                 |
  \\      /  F ield         | OpenFOAM: The Open Source CFD Toolbox
   \\    /   O peration     | Website:  https://openfoam.org
    \\  /    A nd           | Version:  7
     \\/     M anipulation  |
\*---------------------------------------------------------------------------*/
FoamFile
{
    version     2.0;
    format      ascii;
    class       volVectorField;
    location    "0.41";
    object      U;
}
// * * * * * * * * * * * * * * * * * * * * * * * * * * * * * * * * * * * * * //

dimensions      [0 1 -1 0 0 0 0];

internalField   nonuniform List<vector> 
70000
(
(0.55339 0.0167231 0)
(0.251259 0.00340105 0)
(0.166197 0.000322039 0)
(0.132447 5.43077e-05 0)
(0.117253 4.57452e-05 0)
(0.107325 5.39222e-05 0)
(0.0993728 4.62925e-05 0)
(0.0929285 3.69585e-05 0)
(0.0876795 3.06499e-05 0)
(0.0833058 2.63275e-05 0)
(0.0795792 2.30329e-05 0)
(0.0763515 2.03934e-05 0)
(0.0735214 1.82401e-05 0)
(0.0710148 1.64602e-05 0)
(0.0687756 1.49697e-05 0)
(0.0667604 1.37064e-05 0)
(0.064935 1.26237e-05 0)
(0.0632722 1.16866e-05 0)
(0.06175 1.0868e-05 0)
(0.0603503 1.01469e-05 0)
(0.0590583 9.50669e-06 0)
(0.0578615 8.93408e-06 0)
(0.0567495 8.41827e-06 0)
(0.0557133 7.95026e-06 0)
(0.0547453 7.52255e-06 0)
(0.0538391 7.12886e-06 0)
(0.0529891 6.76287e-06 0)
(0.0521905 6.42069e-06 0)
(0.0514394 6.09509e-06 0)
(0.0507319 5.78558e-06 0)
(0.0500655 5.48064e-06 0)
(0.0494375 5.18697e-06 0)
(0.0488462 4.88152e-06 0)
(0.0482895 4.58762e-06 0)
(0.0477672 4.25603e-06 0)
(0.0472777 3.94364e-06 0)
(0.0468219 3.55534e-06 0)
(0.0463995 3.19277e-06 0)
(0.0460111 2.72696e-06 0)
(0.045662 2.22374e-06 0)
(0.0453438 1.74292e-06 0)
(0.0450864 7.87765e-07 0)
(0.0448375 6.89658e-07 0)
(0.0447186 -1.73955e-06 0)
(0.0445166 1.92446e-08 0)
(0.0446541 -7.02081e-06 0)
(0.0444038 1.48377e-06 0)
(0.0450812 -2.04412e-05 0)
(0.0446605 2.62464e-05 0)
(0.0430857 -0.00172935 0)
(0.884899 0.0431675 0)
(0.649712 0.0201943 0)
(0.494311 0.00659873 0)
(0.403648 0.00276809 0)
(0.354715 0.0015526 0)
(0.323403 0.00113231 0)
(0.299532 0.000911227 0)
(0.280322 0.000747422 0)
(0.264595 0.00062466 0)
(0.251458 0.000533995 0)
(0.240262 0.000465191 0)
(0.230564 0.000411072 0)
(0.222058 0.000367364 0)
(0.214522 0.000331403 0)
(0.207787 0.000301376 0)
(0.201723 0.000275982 0)
(0.196228 0.000254263 0)
(0.19122 0.0002355 0)
(0.186634 0.000219147 0)
(0.182416 0.000204779 0)
(0.17852 0.000192065 0)
(0.17491 0.00018074 0)
(0.171554 0.00017059 0)
(0.168425 0.000161439 0)
(0.165499 0.000153141 0)
(0.162759 0.000145573 0)
(0.160185 0.000138628 0)
(0.157765 0.000132213 0)
(0.155485 0.000126242 0)
(0.153335 0.000120643 0)
(0.151306 0.000115333 0)
(0.149388 0.000110265 0)
(0.147577 0.000105325 0)
(0.145866 0.000100517 0)
(0.144254 9.56357e-05 0)
(0.142733 9.08035e-05 0)
(0.141307 8.55934e-05 0)
(0.139971 8.03964e-05 0)
(0.138728 7.43304e-05 0)
(0.13759 6.82815e-05 0)
(0.136532 6.0652e-05 0)
(0.135633 5.28668e-05 0)
(0.134752 4.29092e-05 0)
(0.134208 3.12823e-05 0)
(0.133439 1.90308e-05 0)
(0.133545 -2.91366e-06 0)
(0.132647 -8.88883e-06 0)
(0.134086 -8.95203e-05 0)
(0.132781 0.000137889 0)
(0.133168 -0.00292783 0)
(0.991237 0.0499017 0)
(0.890345 0.0307196 0)
(0.762675 0.0145988 0)
(0.656656 0.00798101 0)
(0.585322 0.00488653 0)
(0.535905 0.00347316 0)
(0.498022 0.00273804 0)
(0.467383 0.00224608 0)
(0.442044 0.00188325 0)
(0.420706 0.00161194 0)
(0.402424 0.00140478 0)
(0.386529 0.00124181 0)
(0.372546 0.00111028 0)
(0.360125 0.00100207 0)
(0.349001 0.000911685 0)
(0.338966 0.000835222 0)
(0.329859 0.000769805 0)
(0.321549 0.000713281 0)
(0.313928 0.000664009 0)
(0.30691 0.000620721 0)
(0.300423 0.000582422 0)
(0.294405 0.000548317 0)
(0.288805 0.000517769 0)
(0.283579 0.000490251 0)
(0.278689 0.000465328 0)
(0.274104 0.000442632 0)
(0.269795 0.000421849 0)
(0.265739 0.000402702 0)
(0.261913 0.000384946 0)
(0.2583 0.000368365 0)
(0.254885 0.000352739 0)
(0.251654 0.000337902 0)
(0.248596 0.000323599 0)
(0.245699 0.000309751 0)
(0.242961 0.000295932 0)
(0.240369 0.000282299 0)
(0.237927 0.000267937 0)
(0.235627 0.000253648 0)
(0.23347 0.000237293 0)
(0.231471 0.000221283 0)
(0.229596 0.00020068 0)
(0.227952 0.000181516 0)
(0.22634 0.000153074 0)
(0.225209 0.0001282 0)
(0.223762 8.70276e-05 0)
(0.223546 4.7729e-05 0)
(0.221944 1.09894e-06 0)
(0.223527 -0.000146852 0)
(0.221344 9.44605e-05 0)
(0.224081 -0.00306787 0)
(1.0156 0.0489207 0)
(1.00596 0.0358762 0)
(0.935943 0.0207936 0)
(0.852105 0.0135067 0)
(0.782155 0.00921075 0)
(0.726944 0.00678476 0)
(0.681846 0.00538772 0)
(0.644067 0.00444925 0)
(0.612021 0.00375618 0)
(0.58452 0.00323097 0)
(0.560629 0.00282528 0)
(0.53964 0.00250396 0)
(0.521025 0.00224351 0)
(0.50438 0.00202848 0)
(0.489391 0.00184834 0)
(0.475809 0.00169555 0)
(0.463434 0.00156454 0)
(0.452103 0.00145114 0)
(0.441683 0.00135213 0)
(0.432063 0.00126504 0)
(0.423149 0.0011879 0)
(0.414864 0.00111915 0)
(0.407139 0.00105754 0)
(0.399918 0.00100202 0)
(0.393151 0.00095173 0)
(0.386796 0.000905949 0)
(0.380815 0.000864054 0)
(0.375177 0.000825501 0)
(0.369852 0.000789813 0)
(0.364816 0.00075656 0)
(0.360048 0.000725336 0)
(0.35553 0.00069579 0)
(0.351246 0.000667491 0)
(0.34718 0.000640212 0)
(0.343326 0.000613279 0)
(0.339669 0.000586824 0)
(0.336209 0.00055938 0)
(0.332938 0.000532186 0)
(0.329853 0.000501551 0)
(0.32697 0.000471892 0)
(0.324248 0.000433667 0)
(0.32181 0.000399719 0)
(0.319426 0.000346121 0)
(0.317604 0.000305661 0)
(0.31545 0.000223878 0)
(0.314673 0.000167462 0)
(0.312432 5.6135e-05 0)
(0.313601 -0.000143473 0)
(0.310844 -1.36414e-06 0)
(0.314091 -0.00285848 0)
(1.01434 0.0460043 0)
(1.04753 0.0374901 0)
(1.02457 0.0241543 0)
(0.974741 0.0175625 0)
(0.923417 0.0131263 0)
(0.876633 0.0102108 0)
(0.834455 0.00834816 0)
(0.796689 0.00702805 0)
(0.763101 0.00601916 0)
(0.733255 0.00523251 0)
(0.706639 0.00461129 0)
(0.682782 0.00411139 0)
(0.661285 0.00370141 0)
(0.641815 0.00335982 0)
(0.624098 0.00307151 0)
(0.607902 0.00282543 0)
(0.593035 0.00261334 0)
(0.579336 0.00242893 0)
(0.566668 0.00226733 0)
(0.554916 0.00212471 0)
(0.543981 0.00199804 0)
(0.533778 0.00188488 0)
(0.524234 0.00178326 0)
(0.515284 0.00169153 0)
(0.506875 0.00160834 0)
(0.498957 0.00153252 0)
(0.491488 0.0014631 0)
(0.48443 0.0013992 0)
(0.477751 0.00134008 0)
(0.471422 0.00128503 0)
(0.465419 0.00123342 0)
(0.459718 0.00118469 0)
(0.454301 0.0011382 0)
(0.44915 0.00109352 0)
(0.444255 0.00104973 0)
(0.439599 0.00100686 0)
(0.435181 0.000962894 0)
(0.430987 0.000919466 0)
(0.427017 0.000871243 0)
(0.423282 0.00082476 0)
(0.419745 0.000765462 0)
(0.416519 0.000713623 0)
(0.413387 0.000630914 0)
(0.410832 0.000571457 0)
(0.408012 0.000444813 0)
(0.406526 0.000365329 0)
(0.40377 0.00018702 0)
(0.404129 -6.71392e-05 0)
(0.401197 -4.6867e-05 0)
(0.40349 -0.00261975 0)
(1.00933 0.0429157 0)
(1.05527 0.0372656 0)
(1.05868 0.025299 0)
(1.03636 0.019763 0)
(1.00707 0.0158163 0)
(0.976014 0.0129418 0)
(0.944473 0.0109669 0)
(0.913588 0.0094863 0)
(0.884208 0.00829735 0)
(0.85672 0.00733088 0)
(0.831201 0.0065421 0)
(0.80759 0.00589097 0)
(0.785765 0.00534615 0)
(0.765584 0.00488485 0)
(0.7469 0.00449032 0)
(0.729572 0.00414987 0)
(0.71347 0.00385372 0)
(0.698477 0.00359418 0)
(0.684487 0.0033652 0)
(0.671404 0.00316195 0)
(0.659145 0.00298051 0)
(0.647637 0.00281771 0)
(0.636811 0.00267093 0)
(0.626611 0.002538 0)
(0.616982 0.00241709 0)
(0.607879 0.00230662 0)
(0.599261 0.00220526 0)
(0.591089 0.00211181 0)
(0.583332 0.00202524 0)
(0.57596 0.00194459 0)
(0.568946 0.00186899 0)
(0.562268 0.00179763 0)
(0.555907 0.00172967 0)
(0.549841 0.00166447 0)
(0.544062 0.00160083 0)
(0.538551 0.00153869 0)
(0.533304 0.00147547 0)
(0.528308 0.00141311 0)
(0.523563 0.00134478 0)
(0.519074 0.00127882 0)
(0.514813 0.00119616 0)
(0.51087 0.00112345 0)
(0.507072 0.00101003 0)
(0.503817 0.00092697 0)
(0.500417 0.000756515 0)
(0.498185 0.000644024 0)
(0.495036 0.000406188 0)
(0.494427 7.85791e-05 0)
(0.491503 -7.55391e-06 0)
(0.492446 -0.00234151 0)
(1.00625 0.0400343 0)
(1.05206 0.0363383 0)
(1.06608 0.0252285 0)
(1.05959 0.0205632 0)
(1.04685 0.0172438 0)
(1.03076 0.0146626 0)
(1.01185 0.0128279 0)
(0.991153 0.0114047 0)
(0.969721 0.0102099 0)
(0.948288 0.00919592 0)
(0.927298 0.00833732 0)
(0.907013 0.00760627 0)
(0.887582 0.00697844 0)
(0.869072 0.00643502 0)
(0.851503 0.00596151 0)
(0.834862 0.00554638 0)
(0.819118 0.00518033 0)
(0.804228 0.00485577 0)
(0.790145 0.0045665 0)
(0.776819 0.00430745 0)
(0.764202 0.00407441 0)
(0.752246 0.00386387 0)
(0.740907 0.0036729 0)
(0.730142 0.00349902 0)
(0.719914 0.0033401 0)
(0.710185 0.00319429 0)
(0.700922 0.00306001 0)
(0.692096 0.0029358 0)
(0.683678 0.00282043 0)
(0.675642 0.00271269 0)
(0.667968 0.00261155 0)
(0.660633 0.00251596 0)
(0.65362 0.00242491 0)
(0.646912 0.00233754 0)
(0.640499 0.00225243 0)
(0.634362 0.00216935 0)
(0.628501 0.00208531 0)
(0.6229 0.00200235 0)
(0.617563 0.00191246 0)
(0.612487 0.00182519 0)
(0.60766 0.00171812 0)
(0.603142 0.00162203 0)
(0.598814 0.00147811 0)
(0.594971 0.00136676 0)
(0.591111 0.00115626 0)
(0.588212 0.00100067 0)
(0.584762 0.000713483 0)
(0.583251 0.000298256 0)
(0.580323 0.000116753 0)
(0.580083 -0.0019965 0)
(1.00495 0.0373564 0)
(1.04727 0.0352564 0)
(1.06397 0.0246888 0)
(1.06424 0.0205899 0)
(1.06066 0.0177821 0)
(1.05472 0.0155059 0)
(1.04596 0.0138863 0)
(1.03475 0.0126283 0)
(1.02183 0.0115449 0)
(1.00777 0.0105947 0)
(0.993059 0.00976428 0)
(0.978033 0.00903638 0)
(0.962961 0.00839432 0)
(0.948038 0.00782498 0)
(0.933399 0.00731808 0)
(0.919138 0.00686513 0)
(0.905312 0.00645894 0)
(0.891956 0.00609338 0)
(0.879088 0.00576326 0)
(0.866712 0.00546415 0)
(0.854823 0.00519225 0)
(0.843412 0.00494433 0)
(0.832464 0.00471758 0)
(0.821962 0.00450957 0)
(0.81189 0.00431817 0)
(0.802227 0.00414149 0)
(0.792956 0.00397789 0)
(0.784059 0.00382581 0)
(0.775518 0.00368392 0)
(0.767316 0.00355091 0)
(0.759439 0.00342562 0)
(0.75187 0.00330686 0)
(0.744601 0.0031935 0)
(0.737614 0.00308449 0)
(0.730905 0.00297828 0)
(0.724459 0.00287444 0)
(0.718278 0.00276967 0)
(0.712347 0.00266599 0)
(0.706674 0.00255457 0)
(0.70125 0.00244549 0)
(0.696079 0.00231432 0)
(0.691195 0.00219354 0)
(0.686527 0.00202066 0)
(0.68228 0.0018777 0)
(0.678115 0.00163167 0)
(0.674719 0.0014264 0)
(0.671065 0.00109648 0)
(0.668849 0.00059697 0)
(0.665875 0.000318545 0)
(0.664741 -0.00158992 0)
(1.0044 0.0348085 0)
(1.04324 0.0341833 0)
(1.05993 0.024048 0)
(1.06228 0.0202964 0)
(1.06248 0.0178463 0)
(1.06178 0.0157876 0)
(1.05921 0.0143414 0)
(1.05465 0.0132491 0)
(1.04842 0.0123084 0)
(1.04084 0.0114709 0)
(1.03218 0.0107255 0)
(1.02269 0.0100591 0)
(1.0126 0.00945879 0)
(1.00212 0.00891521 0)
(0.991406 0.00842135 0)
(0.980586 0.00797159 0)
(0.969766 0.0075611 0)
(0.959027 0.00718566 0)
(0.948429 0.00684158 0)
(0.938018 0.00652559 0)
(0.927828 0.00623483 0)
(0.91788 0.00596674 0)
(0.90819 0.00571905 0)
(0.898767 0.00548973 0)
(0.889617 0.00527693 0)
(0.880739 0.00507898 0)
(0.872132 0.00489437 0)
(0.863794 0.00472164 0)
(0.85572 0.0045595 0)
(0.847904 0.00440667 0)
(0.840342 0.00426197 0)
(0.833026 0.00412418 0)
(0.825953 0.00399212 0)
(0.819115 0.00386465 0)
(0.812512 0.00374011 0)
(0.806134 0.00361792 0)
(0.799986 0.0034946 0)
(0.794057 0.00337202 0)
(0.78836 0.00324091 0)
(0.782886 0.00311127 0)
(0.777645 0.00295794 0)
(0.772658 0.0028129 0)
(0.76789 0.00261381 0)
(0.763477 0.00243825 0)
(0.759204 0.00216131 0)
(0.755537 0.00190425 0)
(0.751812 0.00153607 0)
(0.74914 0.000960912 0)
(0.74614 0.000584485 0)
(0.744393 -0.00114065 0)
(1.00402 0.0323684 0)
(1.03991 0.0331334 0)
(1.05616 0.0234252 0)
(1.05892 0.0199085 0)
(1.06021 0.0177163 0)
(1.06155 0.0157921 0)
(1.06192 0.0144472 0)
(1.06103 0.0134698 0)
(1.05896 0.0126455 0)
(1.05583 0.0119142 0)
(1.05172 0.0112624 0)
(1.04676 0.0106765 0)
(1.04105 0.0101437 0)
(1.03474 0.00965503 0)
(1.02793 0.00920478 0)
(1.02075 0.00878862 0)
(1.01328 0.00840313 0)
(1.00561 0.00804542 0)
(0.997811 0.007713 0)
(0.989945 0.00740367 0)
(0.982062 0.00711548 0)
(0.974202 0.00684666 0)
(0.966398 0.00659559 0)
(0.958676 0.00636078 0)
(0.951059 0.00614084 0)
(0.943562 0.00593444 0)
(0.936197 0.00574035 0)
(0.928976 0.00555735 0)
(0.921905 0.00538432 0)
(0.914989 0.00522008 0)
(0.908234 0.00506358 0)
(0.901641 0.00491361 0)
(0.895214 0.00476905 0)
(0.888953 0.00462871 0)
(0.882863 0.00449094 0)
(0.876941 0.00435504 0)
(0.871197 0.00421744 0)
(0.865623 0.0040798 0)
(0.860236 0.00393271 0)
(0.85503 0.00378568 0)
(0.850021 0.00361371 0)
(0.845222 0.00344683 0)
(0.840619 0.00322554 0)
(0.836307 0.0030189 0)
(0.832152 0.002716 0)
(0.828469 0.00240923 0)
(0.824842 0.00200632 0)
(0.821978 0.00136795 0)
(0.819038 0.000896914 0)
(0.816947 -0.000671113 0)
(1.00364 0.0300281 0)
(1.03692 0.032086 0)
(1.05281 0.0228357 0)
(1.05568 0.0195036 0)
(1.05711 0.0175245 0)
(1.05901 0.0156923 0)
(1.06045 0.0143947 0)
(1.06114 0.0134805 0)
(1.06114 0.0127299 0)
(1.06048 0.0120732 0)
(1.05917 0.0114941 0)
(1.0572 0.0109777 0)
(1.05463 0.0105097 0)
(1.05149 0.01008 0)
(1.04784 0.0096822 0)
(1.04375 0.00931203 0)
(1.03928 0.00896621 0)
(1.03448 0.00864224 0)
(1.02942 0.00833811 0)
(1.02414 0.00805216 0)
(1.0187 0.00778299 0)
(1.01312 0.00752935 0)
(1.00745 0.00729014 0)
(1.00173 0.00706428 0)
(0.995963 0.00685079 0)
(0.99019 0.00664869 0)
(0.984426 0.00645705 0)
(0.978688 0.00627488 0)
(0.972992 0.00610129 0)
(0.967349 0.00593524 0)
(0.961771 0.00577583 0)
(0.956268 0.00562195 0)
(0.950847 0.00547255 0)
(0.945516 0.00532648 0)
(0.940285 0.00518208 0)
(0.935155 0.00503864 0)
(0.930139 0.00489252 0)
(0.925237 0.00474522 0)
(0.920465 0.00458731 0)
(0.915824 0.00442763 0)
(0.911329 0.00424194 0)
(0.906995 0.00405734 0)
(0.902816 0.00381899 0)
(0.898864 0.00358502 0)
(0.895058 0.00326162 0)
(0.891607 0.00291058 0)
(0.888264 0.00247685 0)
(0.885459 0.00178948 0)
(0.882708 0.00123313 0)
(0.880523 -0.000209661 0)
(1.00327 0.0277884 0)
(1.03409 0.0310274 0)
(1.0497 0.0222726 0)
(1.05272 0.0190966 0)
(1.05411 0.0173139 0)
(1.05606 0.0155633 0)
(1.05778 0.0142876 0)
(1.05899 0.0134036 0)
(1.0598 0.0126938 0)
(1.06026 0.0120807 0)
(1.06033 0.011547 0)
(1.06001 0.0110776 0)
(1.05929 0.0106571 0)
(1.05816 0.0102742 0)
(1.05664 0.00992152 0)
(1.05475 0.00959399 0)
(1.05252 0.00928791 0)
(1.04998 0.00900048 0)
(1.04715 0.0087296 0)
(1.04407 0.00847361 0)
(1.04076 0.0082312 0)
(1.03727 0.0080013 0)
(1.0336 0.00778299 0)
(1.0298 0.00757541 0)
(1.02588 0.00737781 0)
(1.02187 0.00718939 0)
(1.01778 0.00700943 0)
(1.01364 0.00683711 0)
(1.00946 0.00667168 0)
(1.00525 0.00651227 0)
(1.00102 0.00635807 0)
(0.996802 0.00620805 0)
(0.992591 0.00606123 0)
(0.988401 0.00591652 0)
(0.984244 0.00577227 0)
(0.980127 0.00562775 0)
(0.976063 0.00547929 0)
(0.972056 0.00532824 0)
(0.968123 0.00516528 0)
(0.964268 0.00499839 0)
(0.960506 0.00480459 0)
(0.956852 0.00460738 0)
(0.953309 0.00435777 0)
(0.949927 0.00410173 0)
(0.946666 0.00376358 0)
(0.943655 0.00337614 0)
(0.940765 0.00291595 0)
(0.938237 0.00219541 0)
(0.935806 0.00156419 0)
(0.933743 0.000230169 0)
(1.00292 0.0256527 0)
(1.03138 0.0299531 0)
(1.0467 0.0217317 0)
(1.04992 0.0186875 0)
(1.0513 0.0170913 0)
(1.05321 0.0154271 0)
(1.05496 0.0141669 0)
(1.05629 0.0132985 0)
(1.05733 0.0126118 0)
(1.05818 0.0120228 0)
(1.05882 0.011514 0)
(1.05923 0.0110715 0)
(1.05942 0.01068 0)
(1.05935 0.0103276 0)
(1.05904 0.0100061 0)
(1.05848 0.00970994 0)
(1.05767 0.00943488 0)
(1.05663 0.0091777 0)
(1.05535 0.00893593 0)
(1.05386 0.00870768 0)
(1.05217 0.00849147 0)
(1.05029 0.00828613 0)
(1.04823 0.00809069 0)
(1.04602 0.0079043 0)
(1.04368 0.00772622 0)
(1.0412 0.00755572 0)
(1.03862 0.00739212 0)
(1.03593 0.00723466 0)
(1.03317 0.00708266 0)
(1.03033 0.00693529 0)
(1.02743 0.00679178 0)
(1.02448 0.00665116 0)
(1.0215 0.00651245 0)
(1.01849 0.00637459 0)
(1.01546 0.00623591 0)
(1.01243 0.00609568 0)
(1.0094 0.00595019 0)
(1.00638 0.00580062 0)
(1.00339 0.00563784 0)
(1.00043 0.00546884 0)
(0.997518 0.00527227 0)
(0.994667 0.00506757 0)
(0.991883 0.00481228 0)
(0.989203 0.00454004 0)
(0.98661 0.0041926 0)
(0.984181 0.00377778 0)
(0.981859 0.00329591 0)
(0.979765 0.00255741 0)
(0.977761 0.00186392 0)
(0.97598 0.000625826 0)
(1.0026 0.0236237 0)
(1.02879 0.0288619 0)
(1.04378 0.0212117 0)
(1.04723 0.0182764 0)
(1.04862 0.0168551 0)
(1.05049 0.0152864 0)
(1.05223 0.0140436 0)
(1.05357 0.013186 0)
(1.05465 0.0125158 0)
(1.05559 0.011942 0)
(1.0564 0.0114472 0)
(1.05708 0.0110193 0)
(1.05763 0.0106438 0)
(1.05804 0.0103088 0)
(1.0583 0.0100059 0)
(1.05842 0.0097293 0)
(1.05838 0.00947452 0)
(1.05818 0.00923808 0)
(1.05783 0.00901723 0)
(1.05733 0.00880984 0)
(1.05668 0.00861424 0)
(1.05589 0.00842905 0)
(1.05496 0.0082532 0)
(1.05389 0.00808572 0)
(1.0527 0.00792579 0)
(1.0514 0.00777264 0)
(1.04998 0.00762552 0)
(1.04847 0.00748367 0)
(1.04686 0.00734636 0)
(1.04517 0.00721275 0)
(1.0434 0.00708202 0)
(1.04156 0.00695322 0)
(1.03966 0.00682531 0)
(1.03771 0.00669723 0)
(1.03572 0.00656721 0)
(1.03369 0.00643455 0)
(1.03164 0.00629545 0)
(1.02957 0.00615088 0)
(1.0275 0.00599201 0)
(1.02542 0.0058247 0)
(1.02336 0.00562947 0)
(1.02132 0.00542152 0)
(1.01932 0.00516505 0)
(1.01738 0.00488205 0)
(1.01549 0.00452987 0)
(1.0137 0.00409633 0)
(1.01198 0.00359804 0)
(1.0104 0.00285349 0)
(1.00888 0.00211425 0)
(1.00748 0.000948817 0)
(1.0023 0.0217031 0)
(1.02634 0.0277545 0)
(1.04095 0.020711 0)
(1.04463 0.0178646 0)
(1.04603 0.0166041 0)
(1.04787 0.0151397 0)
(1.04961 0.0139188 0)
(1.05094 0.0130713 0)
(1.05202 0.0124158 0)
(1.05296 0.0118547 0)
(1.0538 0.0113696 0)
(1.05455 0.0109507 0)
(1.05521 0.0105844 0)
(1.05578 0.010259 0)
(1.05627 0.0099665 0)
(1.05667 0.00970097 0)
(1.05698 0.00945797 0)
(1.0572 0.00923394 0)
(1.05733 0.00902607 0)
(1.05736 0.00883209 0)
(1.05729 0.00865022 0)
(1.05714 0.00847899 0)
(1.05688 0.00831717 0)
(1.05653 0.00816374 0)
(1.05609 0.00801778 0)
(1.05557 0.00787841 0)
(1.05495 0.00774485 0)
(1.05425 0.00761624 0)
(1.05348 0.0074918 0)
(1.05262 0.00737062 0)
(1.0517 0.00725182 0)
(1.05071 0.00713441 0)
(1.04966 0.00701723 0)
(1.04856 0.00689922 0)
(1.04741 0.0067785 0)
(1.04621 0.00665431 0)
(1.04498 0.00652281 0)
(1.04371 0.00638469 0)
(1.04243 0.00623151 0)
(1.04113 0.00606786 0)
(1.03982 0.00587633 0)
(1.03851 0.00566787 0)
(1.03722 0.00541309 0)
(1.03595 0.0051236 0)
(1.03472 0.00476978 0)
(1.03353 0.00432498 0)
(1.0324 0.00381478 0)
(1.03133 0.00307348 0)
(1.03028 0.0023034 0)
(1.02928 0.00119421 0)
(1.00203 0.0198918 0)
(1.02402 0.0266341 0)
(1.03821 0.0202265 0)
(1.0421 0.0174542 0)
(1.04353 0.0163384 0)
(1.04535 0.0149855 0)
(1.04708 0.013792 0)
(1.04841 0.0129546 0)
(1.04948 0.0123138 0)
(1.0504 0.0117653 0)
(1.05124 0.011289 0)
(1.05199 0.0108771 0)
(1.05267 0.0105173 0)
(1.05328 0.0101982 0)
(1.05383 0.0099119 0)
(1.05433 0.00965275 0)
(1.05477 0.00941639 0)
(1.05516 0.00919934 0)
(1.05549 0.00899882 0)
(1.05576 0.0088126 0)
(1.05598 0.00863884 0)
(1.05614 0.00847606 0)
(1.05624 0.00832301 0)
(1.05628 0.00817859 0)
(1.05627 0.00804186 0)
(1.05619 0.00791188 0)
(1.05606 0.00778782 0)
(1.05587 0.00766877 0)
(1.05562 0.00755387 0)
(1.05531 0.00744217 0)
(1.05495 0.0073327 0)
(1.05454 0.00722442 0)
(1.05408 0.00711607 0)
(1.05357 0.00700655 0)
(1.05302 0.00689387 0)
(1.05244 0.0067772 0)
(1.05181 0.00665265 0)
(1.05116 0.00652062 0)
(1.05048 0.00637311 0)
(1.04978 0.0062134 0)
(1.04907 0.00602616 0)
(1.04835 0.00581835 0)
(1.04763 0.0055664 0)
(1.04692 0.00527322 0)
(1.04623 0.00491929 0)
(1.04556 0.00446881 0)
(1.04492 0.00395025 0)
(1.04429 0.00321853 0)
(1.04367 0.00242981 0)
(1.04303 0.00136557 0)
(1.00179 0.01819 0)
(1.02183 0.0255045 0)
(1.03558 0.0197544 0)
(1.03967 0.0170468 0)
(1.04113 0.0160587 0)
(1.04291 0.0148231 0)
(1.04464 0.0136627 0)
(1.04597 0.0128358 0)
(1.04703 0.0122096 0)
(1.04794 0.0116744 0)
(1.04876 0.0112072 0)
(1.0495 0.010802 0)
(1.05017 0.0104479 0)
(1.05078 0.010134 0)
(1.05135 0.00985233 0)
(1.05186 0.00959752 0)
(1.05234 0.00936536 0)
(1.05277 0.00915249 0)
(1.05317 0.00895621 0)
(1.05354 0.00877435 0)
(1.05387 0.00860514 0)
(1.05417 0.0084471 0)
(1.05443 0.008299 0)
(1.05465 0.00815978 0)
(1.05484 0.00802847 0)
(1.055 0.00790414 0)
(1.05512 0.00778593 0)
(1.0552 0.00767291 0)
(1.05524 0.00756418 0)
(1.05525 0.00745875 0)
(1.05522 0.00735558 0)
(1.05516 0.0072536 0)
(1.05506 0.00715147 0)
(1.05493 0.00704804 0)
(1.05476 0.00694122 0)
(1.05457 0.00683011 0)
(1.05435 0.00671083 0)
(1.05411 0.0065834 0)
(1.05385 0.00644038 0)
(1.05357 0.00628369 0)
(1.05328 0.00610008 0)
(1.05298 0.00589287 0)
(1.05268 0.00564352 0)
(1.05238 0.00534808 0)
(1.0521 0.00499433 0)
(1.05181 0.0045418 0)
(1.05154 0.00401751 0)
(1.05127 0.00329872 0)
(1.05096 0.00250067 0)
(1.05062 0.00147388 0)
(1.00157 0.0165973 0)
(1.01978 0.0243696 0)
(1.03304 0.0192906 0)
(1.03732 0.0166443 0)
(1.03882 0.0157663 0)
(1.04056 0.0146516 0)
(1.04228 0.0135306 0)
(1.04362 0.0127148 0)
(1.04467 0.0121031 0)
(1.04557 0.0115818 0)
(1.04638 0.0111242 0)
(1.0471 0.010726 0)
(1.04776 0.0103776 0)
(1.04836 0.0100686 0)
(1.04892 0.00979127 0)
(1.04943 0.00954017 0)
(1.0499 0.00931131 0)
(1.05035 0.00910147 0)
(1.05076 0.00890804 0)
(1.05115 0.00872892 0)
(1.05151 0.0085624 0)
(1.05185 0.00840707 0)
(1.05217 0.00826175 0)
(1.05247 0.00812539 0)
(1.05274 0.00799707 0)
(1.053 0.00787587 0)
(1.05323 0.00776093 0)
(1.05344 0.00765134 0)
(1.05363 0.00754617 0)
(1.05379 0.00744442 0)
(1.05393 0.00734502 0)
(1.05405 0.00724686 0)
(1.05415 0.00714853 0)
(1.05423 0.00704887 0)
(1.05428 0.00694571 0)
(1.05432 0.00683805 0)
(1.05434 0.0067221 0)
(1.05435 0.00659745 0)
(1.05434 0.00645729 0)
(1.05433 0.00630222 0)
(1.0543 0.00612095 0)
(1.05427 0.00591364 0)
(1.05424 0.00566587 0)
(1.05422 0.00536871 0)
(1.05419 0.00501466 0)
(1.05417 0.00456215 0)
(1.05415 0.00403403 0)
(1.05411 0.00332914 0)
(1.05404 0.00252926 0)
(1.0539 0.00153301 0)
(1.00137 0.0151129 0)
(1.01788 0.0232335 0)
(1.03061 0.0188312 0)
(1.03505 0.0162482 0)
(1.0366 0.0154625 0)
(1.0383 0.0144704 0)
(1.04002 0.0133953 0)
(1.04136 0.0125915 0)
(1.0424 0.0119943 0)
(1.04329 0.0114874 0)
(1.04409 0.01104 0)
(1.0448 0.0106491 0)
(1.04545 0.0103067 0)
(1.04604 0.0100027 0)
(1.04658 0.00972961 0)
(1.04708 0.00948213 0)
(1.04754 0.00925637 0)
(1.04798 0.00904922 0)
(1.04839 0.00885816 0)
(1.04878 0.00868116 0)
(1.04914 0.00851658 0)
(1.04949 0.00836306 0)
(1.04982 0.00821946 0)
(1.05014 0.0080848 0)
(1.05044 0.00795817 0)
(1.05073 0.00783871 0)
(1.051 0.00772556 0)
(1.05126 0.00761783 0)
(1.0515 0.00751459 0)
(1.05173 0.00741484 0)
(1.05195 0.00731748 0)
(1.05215 0.00722139 0)
(1.05234 0.00712511 0)
(1.05252 0.00702746 0)
(1.05268 0.00692624 0)
(1.05284 0.00682031 0)
(1.05298 0.00670605 0)
(1.05312 0.00658261 0)
(1.05325 0.00644379 0)
(1.05338 0.00628903 0)
(1.0535 0.00610872 0)
(1.05363 0.00590051 0)
(1.05376 0.00565314 0)
(1.05388 0.00535434 0)
(1.05402 0.00499929 0)
(1.05415 0.00454787 0)
(1.05428 0.00401729 0)
(1.05438 0.00332609 0)
(1.05444 0.00252953 0)
(1.05443 0.00155862 0)
(1.0012 0.0137352 0)
(1.0161 0.0221003 0)
(1.02829 0.0183726 0)
(1.03287 0.0158596 0)
(1.03447 0.0151492 0)
(1.03613 0.014279 0)
(1.03784 0.0132563 0)
(1.03918 0.0124662 0)
(1.04022 0.0118829 0)
(1.0411 0.011391 0)
(1.04189 0.0109545 0)
(1.04259 0.0105712 0)
(1.04323 0.0102349 0)
(1.0438 0.00993619 0)
(1.04433 0.0096675 0)
(1.04482 0.00942371 0)
(1.04527 0.00920108 0)
(1.0457 0.00899658 0)
(1.0461 0.0088078 0)
(1.04648 0.00863275 0)
(1.04684 0.00846987 0)
(1.04718 0.00831783 0)
(1.04751 0.00817557 0)
(1.04782 0.00804213 0)
(1.04813 0.00791664 0)
(1.04842 0.00779828 0)
(1.0487 0.00768621 0)
(1.04897 0.00757955 0)
(1.04923 0.00747739 0)
(1.04948 0.00737872 0)
(1.04972 0.00728242 0)
(1.04995 0.00718738 0)
(1.05018 0.0070921 0)
(1.0504 0.00699535 0)
(1.05061 0.00689496 0)
(1.05081 0.00678965 0)
(1.05101 0.00667595 0)
(1.05121 0.00655262 0)
(1.0514 0.00641404 0)
(1.0516 0.00625863 0)
(1.0518 0.00607822 0)
(1.05199 0.00586851 0)
(1.0522 0.00562053 0)
(1.0524 0.00532012 0)
(1.05261 0.00496355 0)
(1.05282 0.00451374 0)
(1.05302 0.00398197 0)
(1.05319 0.00330365 0)
(1.05332 0.0025139 0)
(1.05337 0.00156495 0)
(1.00104 0.0124619 0)
(1.01446 0.0209742 0)
(1.02608 0.0179113 0)
(1.03078 0.0154793 0)
(1.03244 0.0148283 0)
(1.03406 0.0140771 0)
(1.03575 0.0131131 0)
(1.0371 0.0123387 0)
(1.03814 0.011769 0)
(1.039 0.0112924 0)
(1.03978 0.0108675 0)
(1.04047 0.0104922 0)
(1.0411 0.0101623 0)
(1.04166 0.009869 0)
(1.04218 0.00960488 0)
(1.04266 0.00936492 0)
(1.0431 0.00914551 0)
(1.04352 0.00894373 0)
(1.04391 0.00875725 0)
(1.04428 0.00858416 0)
(1.04463 0.00842294 0)
(1.04496 0.00827232 0)
(1.04528 0.00813128 0)
(1.04559 0.00799891 0)
(1.04588 0.00787437 0)
(1.04617 0.00775687 0)
(1.04644 0.0076456 0)
(1.04671 0.0075397 0)
(1.04697 0.00743824 0)
(1.04722 0.00734024 0)
(1.04747 0.00724456 0)
(1.04771 0.00715006 0)
(1.04794 0.00705524 0)
(1.04817 0.00695884 0)
(1.04839 0.00685868 0)
(1.04861 0.00675337 0)
(1.04883 0.00663959 0)
(1.04905 0.00651575 0)
(1.04926 0.00637675 0)
(1.04948 0.00622017 0)
(1.04971 0.00603898 0)
(1.04993 0.00582749 0)
(1.05017 0.00557828 0)
(1.0504 0.00527638 0)
(1.05064 0.00491813 0)
(1.05087 0.00447027 0)
(1.0511 0.00393859 0)
(1.05129 0.00327226 0)
(1.05144 0.00249189 0)
(1.0515 0.00156286 0)
(1.0009 0.01129 0)
(1.01295 0.0198596 0)
(1.02398 0.0174441 0)
(1.02878 0.0151077 0)
(1.03051 0.0145017 0)
(1.03209 0.0138642 0)
(1.03375 0.0129652 0)
(1.0351 0.012209 0)
(1.03614 0.0116527 0)
(1.037 0.0111915 0)
(1.03776 0.0107789 0)
(1.03845 0.0104121 0)
(1.03906 0.0100888 0)
(1.03962 0.00980106 0)
(1.04013 0.00954168 0)
(1.04059 0.0093057 0)
(1.04103 0.00908961 0)
(1.04143 0.00889065 0)
(1.04181 0.00870654 0)
(1.04217 0.00853545 0)
(1.04251 0.00837592 0)
(1.04283 0.00822675 0)
(1.04314 0.00808693 0)
(1.04344 0.0079556 0)
(1.04373 0.00783198 0)
(1.04401 0.00771529 0)
(1.04428 0.00760474 0)
(1.04454 0.00749949 0)
(1.04479 0.00739862 0)
(1.04504 0.00730114 0)
(1.04528 0.0072059 0)
(1.04551 0.00711176 0)
(1.04574 0.00701719 0)
(1.04597 0.00692088 0)
(1.04619 0.0068207 0)
(1.04641 0.00671512 0)
(1.04663 0.00660098 0)
(1.04685 0.00647636 0)
(1.04707 0.00633663 0)
(1.04729 0.00617867 0)
(1.04752 0.00599637 0)
(1.04775 0.00578311 0)
(1.04798 0.00553241 0)
(1.04822 0.00522932 0)
(1.04846 0.00486959 0)
(1.04869 0.00442402 0)
(1.04891 0.00389378 0)
(1.0491 0.0032388 0)
(1.04924 0.00246974 0)
(1.04929 0.0015597 0)
(1.00078 0.0102162 0)
(1.01157 0.018761 0)
(1.02199 0.0169684 0)
(1.02686 0.014745 0)
(1.02866 0.0141717 0)
(1.0302 0.0136406 0)
(1.03184 0.0128118 0)
(1.03319 0.0120771 0)
(1.03423 0.0115339 0)
(1.03508 0.0110883 0)
(1.03584 0.0106885 0)
(1.03651 0.0103307 0)
(1.03712 0.0100142 0)
(1.03767 0.0097323 0)
(1.03817 0.00947784 0)
(1.03862 0.00924598 0)
(1.03905 0.00903334 0)
(1.03944 0.00883728 0)
(1.03981 0.00865562 0)
(1.04016 0.0084866 0)
(1.04049 0.00832882 0)
(1.04081 0.00818112 0)
(1.04111 0.00804255 0)
(1.0414 0.0079123 0)
(1.04168 0.00778961 0)
(1.04195 0.00767374 0)
(1.04221 0.00756391 0)
(1.04246 0.00745931 0)
(1.04271 0.00735901 0)
(1.04294 0.00726202 0)
(1.04318 0.00716719 0)
(1.0434 0.00707335 0)
(1.04363 0.00697898 0)
(1.04384 0.00688271 0)
(1.04406 0.00678244 0)
(1.04427 0.0066765 0)
(1.04449 0.00656191 0)
(1.0447 0.00643645 0)
(1.04491 0.00629589 0)
(1.04513 0.0061366 0)
(1.04535 0.00595311 0)
(1.04557 0.00573827 0)
(1.0458 0.00548612 0)
(1.04603 0.00518222 0)
(1.04626 0.00482153 0)
(1.04648 0.00437866 0)
(1.04668 0.00385124 0)
(1.04685 0.00320732 0)
(1.04696 0.00245114 0)
(1.04699 0.00156002 0)
(1.00067 0.00923626 0)
(1.01031 0.0176827 0)
(1.02012 0.016482 0)
(1.02503 0.0143909 0)
(1.0269 0.0138402 0)
(1.02841 0.0134064 0)
(1.03001 0.0126524 0)
(1.03137 0.0119429 0)
(1.03241 0.0114127 0)
(1.03326 0.0109825 0)
(1.034 0.0105962 0)
(1.03467 0.0102479 0)
(1.03527 0.00993861 0)
(1.03581 0.00966264 0)
(1.0363 0.00941327 0)
(1.03675 0.00918568 0)
(1.03716 0.00897661 0)
(1.03755 0.00878355 0)
(1.03791 0.00860443 0)
(1.03825 0.00843755 0)
(1.03857 0.00828157 0)
(1.03888 0.0081354 0)
(1.03917 0.00799813 0)
(1.03945 0.00786899 0)
(1.03972 0.00774726 0)
(1.03998 0.00763224 0)
(1.04024 0.00752316 0)
(1.04048 0.00741923 0)
(1.04072 0.00731952 0)
(1.04095 0.00722305 0)
(1.04117 0.00712865 0)
(1.04139 0.00703514 0)
(1.04161 0.00694098 0)
(1.04182 0.00684475 0)
(1.04202 0.00674439 0)
(1.04223 0.00663813 0)
(1.04243 0.00652311 0)
(1.04264 0.00639687 0)
(1.04285 0.00625551 0)
(1.04305 0.00609503 0)
(1.04326 0.00591041 0)
(1.04347 0.00569429 0)
(1.04369 0.00544092 0)
(1.0439 0.0051367 0)
(1.04411 0.00477573 0)
(1.04431 0.00433608 0)
(1.04449 0.00381284 0)
(1.04463 0.00318004 0)
(1.04472 0.00243807 0)
(1.04472 0.00156649 0)
(1.00058 0.00834563 0)
(1.00917 0.0166292 0)
(1.01837 0.0159832 0)
(1.02328 0.0140448 0)
(1.02523 0.0135091 0)
(1.02671 0.0131621 0)
(1.02828 0.0124864 0)
(1.02963 0.0118061 0)
(1.03067 0.0112892 0)
(1.03152 0.0108741 0)
(1.03226 0.0105018 0)
(1.03292 0.0101636 0)
(1.03351 0.00986178 0)
(1.03404 0.00959199 0)
(1.03452 0.00934789 0)
(1.03496 0.00912473 0)
(1.03537 0.00891937 0)
(1.03574 0.00872942 0)
(1.0361 0.00855291 0)
(1.03643 0.00838825 0)
(1.03674 0.00823413 0)
(1.03704 0.00808954 0)
(1.03733 0.00795361 0)
(1.0376 0.00782563 0)
(1.03786 0.0077049 0)
(1.03812 0.00759076 0)
(1.03836 0.00748248 0)
(1.0386 0.00737925 0)
(1.03883 0.00728018 0)
(1.03905 0.00718426 0)
(1.03927 0.00709033 0)
(1.03948 0.00699717 0)
(1.03969 0.00690326 0)
(1.03989 0.00680712 0)
(1.04009 0.00670673 0)
(1.04029 0.00660021 0)
(1.04048 0.00648481 0)
(1.04068 0.00635792 0)
(1.04087 0.00621584 0)
(1.04107 0.00605438 0)
(1.04127 0.00586879 0)
(1.04147 0.00565175 0)
(1.04167 0.00539753 0)
(1.04186 0.00509349 0)
(1.04205 0.00473305 0)
(1.04223 0.00429719 0)
(1.04238 0.00377945 0)
(1.0425 0.00315814 0)
(1.04255 0.00243159 0)
(1.04252 0.00158064 0)
(1.0005 0.00753926 0)
(1.00813 0.0156047 0)
(1.01672 0.015471 0)
(1.02161 0.0137057 0)
(1.02365 0.0131803 0)
(1.0251 0.0129088 0)
(1.02663 0.0123131 0)
(1.02798 0.0116664 0)
(1.02902 0.0111633 0)
(1.02986 0.0107631 0)
(1.03059 0.0104052 0)
(1.03125 0.0100777 0)
(1.03183 0.00978367 0)
(1.03235 0.00952025 0)
(1.03283 0.0092816 0)
(1.03326 0.00906304 0)