/*--------------------------------*- C++ -*----------------------------------*\
  =========                 |
  \\      /  F ield         | OpenFOAM: The Open Source CFD Toolbox
   \\    /   O peration     | Website:  https://openfoam.org
    \\  /    A nd           | Version:  7
     \\/     M anipulation  |
\*---------------------------------------------------------------------------*/
FoamFile
{
    version     2.0;
    format      ascii;
    class       volVectorField;
    location    "0.41";
    object      U_0;
}
// * * * * * * * * * * * * * * * * * * * * * * * * * * * * * * * * * * * * * //

dimensions      [0 1 -1 0 0 0 0];

internalField   nonuniform List<vector> 
70000
(
(0.55339 0.0167231 0)
(0.251259 0.00340104 0)
(0.166197 0.000322039 0)
(0.132447 5.43074e-05 0)
(0.117253 4.57449e-05 0)
(0.107325 5.39219e-05 0)
(0.0993729 4.62922e-05 0)
(0.0929286 3.69583e-05 0)
(0.0876796 3.06497e-05 0)
(0.0833059 2.63272e-05 0)
(0.0795792 2.30326e-05 0)
(0.0763515 2.03931e-05 0)
(0.0735215 1.82398e-05 0)
(0.0710149 1.64598e-05 0)
(0.0687757 1.49694e-05 0)
(0.0667605 1.37061e-05 0)
(0.064935 1.26234e-05 0)
(0.0632722 1.16863e-05 0)
(0.06175 1.08677e-05 0)
(0.0603503 1.01466e-05 0)
(0.0590583 9.50638e-06 0)
(0.0578616 8.93376e-06 0)
(0.0567495 8.41796e-06 0)
(0.0557133 7.94995e-06 0)
(0.0547453 7.52225e-06 0)
(0.0538391 7.12856e-06 0)
(0.052989 6.76259e-06 0)
(0.0521904 6.42041e-06 0)
(0.0514392 6.09483e-06 0)
(0.0507317 5.7853e-06 0)
(0.0500653 5.48036e-06 0)
(0.0494371 5.18665e-06 0)
(0.0488458 4.88115e-06 0)
(0.048289 4.58716e-06 0)
(0.0477666 4.25544e-06 0)
(0.047277 3.94286e-06 0)
(0.0468212 3.55422e-06 0)
(0.0463986 3.19133e-06 0)
(0.0460101 2.72472e-06 0)
(0.0456609 2.22099e-06 0)
(0.0453425 1.73841e-06 0)
(0.0450851 7.82357e-07 0)
(0.0448361 6.80964e-07 0)
(0.0447172 -1.75079e-06 0)
(0.0445153 3.04236e-09 0)
(0.044653 -7.04468e-06 0)
(0.0444031 1.45056e-06 0)
(0.0450814 -2.04835e-05 0)
(0.0446626 2.61712e-05 0)
(0.0430875 -0.00172958 0)
(0.884899 0.0431675 0)
(0.649712 0.0201943 0)
(0.494311 0.00659872 0)
(0.403648 0.00276809 0)
(0.354715 0.0015526 0)
(0.323403 0.00113232 0)
(0.299532 0.000911228 0)
(0.280322 0.000747422 0)
(0.264595 0.00062466 0)
(0.251458 0.000533995 0)
(0.240262 0.000465191 0)
(0.230564 0.000411072 0)
(0.222058 0.000367364 0)
(0.214522 0.000331404 0)
(0.207786 0.000301377 0)
(0.201722 0.000275983 0)
(0.196227 0.000254264 0)
(0.19122 0.000235502 0)
(0.186634 0.000219148 0)
(0.182416 0.000204781 0)
(0.17852 0.000192067 0)
(0.17491 0.000180743 0)
(0.171553 0.000170593 0)
(0.168424 0.000161442 0)
(0.165499 0.000153146 0)
(0.162758 0.000145578 0)
(0.160184 0.000138634 0)
(0.157764 0.00013222 0)
(0.155484 0.00012625 0)
(0.153334 0.000120654 0)
(0.151304 0.000115345 0)
(0.149386 0.000110278 0)
(0.147575 0.00010534 0)
(0.145864 0.000100534 0)
(0.144251 9.56552e-05 0)
(0.14273 9.08253e-05 0)
(0.141303 8.56172e-05 0)
(0.139967 8.04225e-05 0)
(0.138724 7.43575e-05 0)
(0.137585 6.83101e-05 0)
(0.136527 6.06782e-05 0)
(0.135626 5.28921e-05 0)
(0.134745 4.29243e-05 0)
(0.1342 3.12893e-05 0)
(0.133431 1.901e-05 0)
(0.133537 -2.96139e-06 0)
(0.132639 -9.01617e-06 0)
(0.134079 -8.9731e-05 0)
(0.132776 0.000137538 0)
(0.133161 -0.00292899 0)
(0.991237 0.0499017 0)
(0.890345 0.0307196 0)
(0.762675 0.0145988 0)
(0.656657 0.00798101 0)
(0.585322 0.00488653 0)
(0.535905 0.00347317 0)
(0.498022 0.00273805 0)
(0.467382 0.00224608 0)
(0.442043 0.00188325 0)
(0.420706 0.00161194 0)
(0.402424 0.00140478 0)
(0.386529 0.00124181 0)
(0.372545 0.00111028 0)
(0.360125 0.00100207 0)
(0.349 0.00091169 0)
(0.338966 0.000835228 0)
(0.329859 0.000769812 0)
(0.321548 0.000713288 0)
(0.313927 0.000664016 0)
(0.306909 0.000620729 0)
(0.300422 0.00058243 0)
(0.294404 0.000548328 0)
(0.288803 0.000517781 0)
(0.283577 0.000490264 0)
(0.278688 0.000465344 0)
(0.274102 0.000442651 0)
(0.269793 0.000421871 0)
(0.265736 0.000402727 0)
(0.261911 0.000384975 0)
(0.258297 0.000368399 0)
(0.254882 0.000352778 0)
(0.25165 0.000337947 0)
(0.248592 0.00032365 0)
(0.245695 0.000309809 0)
(0.242956 0.000295998 0)
(0.240364 0.000282374 0)
(0.23792 0.000268021 0)
(0.23562 0.000253741 0)
(0.233462 0.000237395 0)
(0.231462 0.000221395 0)
(0.229586 0.000200796 0)
(0.227941 0.000181638 0)
(0.226328 0.000153186 0)
(0.225196 0.000128309 0)
(0.223748 8.70863e-05 0)
(0.223531 4.77553e-05 0)
(0.221928 9.76672e-07 0)
(0.223511 -0.000147158 0)
(0.221329 9.38692e-05 0)
(0.224064 -0.00307003 0)
(1.0156 0.0489207 0)
(1.00596 0.0358762 0)
(0.935943 0.0207936 0)
(0.852106 0.0135067 0)
(0.782156 0.00921076 0)
(0.726944 0.00678478 0)
(0.681846 0.00538773 0)
(0.644066 0.00444926 0)
(0.612021 0.00375619 0)
(0.58452 0.00323098 0)
(0.560628 0.00282529 0)
(0.539639 0.00250397 0)
(0.521024 0.00224351 0)
(0.504379 0.00202849 0)
(0.48939 0.00184835 0)
(0.475808 0.00169556 0)
(0.463433 0.00156456 0)
(0.452102 0.00145115 0)
(0.441682 0.00135215 0)
(0.432062 0.00126505 0)
(0.423148 0.00118792 0)
(0.414862 0.00111917 0)
(0.407137 0.00105756 0)
(0.399916 0.00100204 0)
(0.393149 0.000951764 0)
(0.386794 0.000905987 0)
(0.380813 0.000864099 0)
(0.375173 0.000825552 0)
(0.369848 0.000789873 0)
(0.364812 0.000756629 0)
(0.360044 0.000725414 0)
(0.355525 0.00069588 0)
(0.35124 0.000667593 0)
(0.347174 0.000640329 0)
(0.343319 0.000613412 0)
(0.339662 0.000586975 0)
(0.336201 0.000559549 0)
(0.332928 0.000532377 0)
(0.329842 0.000501762 0)
(0.326958 0.000472126 0)
(0.324236 0.000433918 0)
(0.321796 0.00039999 0)
(0.319411 0.00034639 0)
(0.317586 0.000305942 0)
(0.315431 0.000224094 0)
(0.314653 0.000167651 0)
(0.31241 5.61313e-05 0)
(0.313578 -0.000143793 0)
(0.310822 -2.0227e-06 0)
(0.314066 -0.00286143 0)
(1.01434 0.0460043 0)
(1.04753 0.0374901 0)
(1.02457 0.0241543 0)
(0.974741 0.0175625 0)
(0.923417 0.0131264 0)
(0.876633 0.0102108 0)
(0.834455 0.00834818 0)
(0.796688 0.00702807 0)
(0.763101 0.00601918 0)
(0.733255 0.00523252 0)
(0.706639 0.0046113 0)
(0.682781 0.00411141 0)
(0.661284 0.00370143 0)
(0.641815 0.00335984 0)
(0.624097 0.00307153 0)
(0.607901 0.00282546 0)
(0.593034 0.00261337 0)
(0.579334 0.00242896 0)
(0.566667 0.00226736 0)
(0.554914 0.00212474 0)
(0.543979 0.00199807 0)
(0.533776 0.00188492 0)
(0.524231 0.0017833 0)
(0.515282 0.00169158 0)
(0.506872 0.00160839 0)
(0.498954 0.00153259 0)
(0.491484 0.00146317 0)
(0.484426 0.00139929 0)
(0.477747 0.00134017 0)
(0.471418 0.00128514 0)
(0.465414 0.00123355 0)
(0.459712 0.00118484 0)
(0.454295 0.00113836 0)
(0.449143 0.00109371 0)
(0.444248 0.00104994 0)
(0.439591 0.0010071 0)
(0.435171 0.000963166 0)
(0.430977 0.000919773 0)
(0.427006 0.000871587 0)
(0.42327 0.000825143 0)
(0.419731 0.000765879 0)
(0.416503 0.000714079 0)
(0.41337 0.000631382 0)
(0.410813 0.000571957 0)
(0.40799 0.000445243 0)
(0.406503 0.000365739 0)
(0.403745 0.000187212 0)
(0.404103 -6.73909e-05 0)
(0.40117 -4.75503e-05 0)
(0.403461 -0.00262325 0)
(1.00933 0.0429157 0)
(1.05527 0.0372656 0)
(1.05868 0.025299 0)
(1.03636 0.019763 0)
(1.00707 0.0158164 0)
(0.976014 0.0129418 0)
(0.944473 0.010967 0)
(0.913588 0.00948633 0)
(0.884208 0.00829737 0)
(0.856719 0.0073309 0)
(0.831201 0.00654212 0)
(0.80759 0.00589099 0)
(0.785765 0.00534617 0)
(0.765583 0.00488488 0)
(0.746899 0.00449035 0)
(0.729571 0.0041499 0)
(0.713469 0.00385375 0)
(0.698476 0.00359422 0)
(0.684485 0.00336525 0)
(0.671402 0.00316199 0)
(0.659143 0.00298056 0)
(0.647634 0.00281776 0)
(0.636809 0.00267099 0)
(0.626608 0.00253807 0)
(0.616979 0.00241717 0)
(0.607876 0.00230671 0)
(0.599258 0.00220537 0)
(0.591086 0.00211193 0)
(0.583328 0.00202538 0)
(0.575955 0.00194474 0)
(0.568941 0.00186917 0)
(0.562262 0.00179784 0)
(0.5559 0.0017299 0)
(0.549835 0.00166473 0)
(0.544055 0.00160113 0)
(0.538542 0.00153902 0)
(0.533295 0.00147585 0)
(0.528297 0.00141355 0)
(0.523551 0.00134526 0)
(0.51906 0.00127936 0)
(0.514798 0.00119676 0)
(0.510854 0.0011241 0)
(0.507053 0.00101072 0)
(0.503797 0.000927713 0)
(0.500395 0.000757194 0)
(0.498161 0.00064468 0)
(0.49501 0.000406624 0)
(0.494399 7.84472e-05 0)
(0.491474 -8.30577e-06 0)
(0.492416 -0.00234534 0)
(1.00625 0.0400343 0)
(1.05206 0.0363383 0)
(1.06608 0.0252285 0)
(1.05959 0.0205632 0)
(1.04685 0.0172438 0)
(1.03076 0.0146626 0)
(1.01185 0.0128279 0)
(0.991153 0.0114047 0)
(0.969721 0.0102099 0)
(0.948288 0.00919596 0)
(0.927297 0.00833735 0)
(0.907013 0.00760631 0)
(0.887581 0.00697847 0)
(0.869071 0.00643506 0)
(0.851502 0.00596155 0)
(0.834861 0.00554643 0)
(0.819117 0.00518038 0)
(0.804227 0.00485582 0)
(0.790143 0.00456656 0)
(0.776817 0.00430751 0)
(0.7642 0.00407447 0)
(0.752244 0.00386394 0)
(0.740904 0.00367299 0)
(0.73014 0.00349911 0)
(0.719911 0.00334021 0)
(0.710182 0.00319441 0)
(0.700919 0.00306015 0)
(0.692092 0.00293596 0)
(0.683673 0.0028206 0)
(0.675638 0.00271289 0)
(0.667963 0.00261178 0)
(0.660627 0.00251622 0)
(0.653614 0.00242521 0)
(0.646905 0.00233788 0)
(0.640491 0.00225282 0)
(0.634353 0.00216979 0)
(0.628492 0.00208581 0)
(0.622889 0.00200292 0)
(0.617551 0.00191309 0)
(0.612474 0.00182591 0)
(0.607645 0.0017189 0)
(0.603126 0.0016229 0)
(0.598796 0.00147903 0)
(0.594951 0.00136775 0)
(0.591089 0.0011572 0)
(0.588187 0.00100159 0)
(0.584736 0.000714172 0)
(0.583223 0.000298278 0)
(0.580294 0.000115967 0)
(0.580053 -0.00200053 0)
(1.00495 0.0373564 0)
(1.04727 0.0352564 0)
(1.06397 0.0246888 0)
(1.06424 0.0205899 0)
(1.06066 0.0177821 0)
(1.05472 0.015506 0)
(1.04596 0.0138863 0)
(1.03475 0.0126283 0)
(1.02183 0.011545 0)
(1.00777 0.0105947 0)
(0.993059 0.00976432 0)
(0.978032 0.00903643 0)
(0.96296 0.00839436 0)
(0.948037 0.00782503 0)
(0.933398 0.00731814 0)
(0.919137 0.00686518 0)
(0.905311 0.00645899 0)
(0.891955 0.00609344 0)
(0.879087 0.00576333 0)
(0.86671 0.00546422 0)
(0.854821 0.00519234 0)
(0.84341 0.00494442 0)
(0.832462 0.00471768 0)
(0.82196 0.00450968 0)
(0.811887 0.0043183 0)
(0.802224 0.00414165 0)
(0.792953 0.00397806 0)
(0.784055 0.00382601 0)
(0.775514 0.00368415 0)
(0.767311 0.00355116 0)
(0.759434 0.0034259 0)
(0.751865 0.00330718 0)
(0.744594 0.00319387 0)
(0.737607 0.00308491 0)
(0.730898 0.00297876 0)
(0.724451 0.00287499 0)
(0.718269 0.00277029 0)
(0.712336 0.00266668 0)
(0.706662 0.00255535 0)
(0.701238 0.00244636 0)
(0.696065 0.0023153 0)
(0.691179 0.00219462 0)
(0.68651 0.0020218 0)
(0.682261 0.00187894 0)
(0.678094 0.00163288 0)
(0.674695 0.00142758 0)
(0.67104 0.00109742 0)
(0.668822 0.000597182 0)
(0.665847 0.000317758 0)
(0.664712 -0.00159408 0)
(1.0044 0.0348085 0)
(1.04324 0.0341833 0)
(1.05993 0.024048 0)
(1.06228 0.0202964 0)
(1.06248 0.0178463 0)
(1.06178 0.0157876 0)
(1.05921 0.0143415 0)
(1.05465 0.0132491 0)
(1.04842 0.0123085 0)
(1.04084 0.0114709 0)
(1.03218 0.0107255 0)
(1.02269 0.0100591 0)
(1.0126 0.00945885 0)
(1.00212 0.00891527 0)
(0.991405 0.00842142 0)
(0.980585 0.00797165 0)
(0.969765 0.00756117 0)
(0.959026 0.00718573 0)
(0.948428 0.00684166 0)
(0.938017 0.00652568 0)
(0.927826 0.00623493 0)
(0.917878 0.00596685 0)
(0.908188 0.00571918 0)
(0.898766 0.00548987 0)
(0.889615 0.00527709 0)
(0.880736 0.00507917 0)
(0.87213 0.00489458 0)
(0.863791 0.00472187 0)
(0.855716 0.00455977 0)
(0.8479 0.00440697 0)
(0.840337 0.00426232 0)
(0.833021 0.00412457 0)
(0.825948 0.00399256 0)
(0.819109 0.00386515 0)
(0.812505 0.00374067 0)
(0.806126 0.00361856 0)
(0.799977 0.00349533 0)
(0.794047 0.00337284 0)
(0.788349 0.00324184 0)
(0.782873 0.00311232 0)
(0.777632 0.00295909 0)
(0.772643 0.00281418 0)
(0.767873 0.00261518 0)
(0.763459 0.00243973 0)
(0.759184 0.00216277 0)
(0.755515 0.00190567 0)
(0.751788 0.00153725 0)
(0.749115 0.000961312 0)
(0.746113 0.00058372 0)
(0.744366 -0.00114484 0)
(1.00402 0.0323684 0)
(1.03991 0.0331334 0)
(1.05616 0.0234252 0)
(1.05892 0.0199085 0)
(1.06021 0.0177163 0)
(1.06155 0.0157922 0)
(1.06192 0.0144472 0)
(1.06103 0.0134699 0)
(1.05896 0.0126456 0)
(1.05583 0.0119143 0)
(1.05172 0.0112625 0)
(1.04676 0.0106766 0)
(1.04105 0.0101437 0)
(1.03474 0.00965511 0)
(1.02793 0.00920485 0)
(1.02075 0.00878869 0)
(1.01328 0.00840321 0)
(1.00561 0.00804551 0)
(0.99781 0.00771309 0)
(0.989944 0.00740377 0)
(0.982061 0.00711559 0)
(0.974201 0.00684678 0)
(0.966396 0.00659574 0)
(0.958675 0.00636095 0)
(0.951057 0.00614103 0)
(0.94356 0.00593465 0)
(0.936195 0.0057406 0)
(0.928973 0.00555763 0)
(0.921902 0.00538463 0)
(0.914986 0.00522043 0)
(0.90823 0.00506398 0)
(0.901636 0.00491406 0)
(0.895209 0.00476956 0)
(0.888947 0.00462929 0)
(0.882857 0.00449159 0)
(0.876934 0.00435578 0)
(0.871189 0.00421828 0)
(0.865614 0.00408075 0)
(0.860226 0.00393378 0)
(0.855019 0.00378688 0)
(0.850008 0.00361504 0)
(0.845208 0.00344831 0)
(0.840604 0.00322712 0)
(0.83629 0.00302061 0)
(0.832134 0.00271771 0)
(0.828449 0.00241089 0)
(0.824821 0.00200772 0)
(0.821954 0.00136853 0)
(0.819014 0.00089621 0)
(0.816922 -0.000675253 0)
(1.00364 0.0300281 0)
(1.03692 0.032086 0)
(1.05281 0.0228356 0)
(1.05568 0.0195035 0)
(1.05711 0.0175245 0)
(1.05901 0.0156923 0)
(1.06045 0.0143948 0)
(1.06114 0.0134805 0)
(1.06114 0.01273 0)
(1.06048 0.0120732 0)
(1.05917 0.0114942 0)
(1.0572 0.0109778 0)
(1.05463 0.0105098 0)
(1.05148 0.01008 0)
(1.04784 0.00968229 0)
(1.04375 0.00931211 0)
(1.03928 0.0089663 0)
(1.03448 0.00864233 0)
(1.02942 0.0083382 0)
(1.02414 0.00805226 0)
(1.0187 0.00778311 0)
(1.01312 0.00752949 0)
(1.00745 0.0072903 0)
(1.00172 0.00706446 0)
(0.995962 0.00685101 0)
(0.990188 0.00664894 0)
(0.984424 0.00645733 0)
(0.978686 0.0062752 0)
(0.972989 0.00610164 0)
(0.967346 0.00593564 0)
(0.961768 0.00577629 0)
(0.956264 0.00562247 0)
(0.950843 0.00547313 0)
(0.945511 0.00532714 0)
(0.940279 0.00518282 0)
(0.935148 0.00503948 0)
(0.930132 0.00489347 0)
(0.925229 0.00474628 0)
(0.920456 0.00458851 0)
(0.915814 0.00442897 0)
(0.911318 0.00424343 0)
(0.906982 0.00405899 0)
(0.902803 0.00382077 0)
(0.898849 0.00358693 0)
(0.895042 0.00326355 0)
(0.891589 0.00291245 0)
(0.888245 0.00247845 0)
(0.885439 0.00179023 0)
(0.882686 0.00123248 0)
(0.8805 -0.000213416 0)
(1.00327 0.0277884 0)
(1.03409 0.0310274 0)
(1.0497 0.0222726 0)
(1.05272 0.0190965 0)
(1.05411 0.0173139 0)
(1.05606 0.0155633 0)
(1.05778 0.0142876 0)
(1.05899 0.0134037 0)
(1.0598 0.0126939 0)
(1.06026 0.0120808 0)
(1.06034 0.0115471 0)
(1.06001 0.0110777 0)
(1.05929 0.0106572 0)
(1.05816 0.0102743 0)
(1.05664 0.00992161 0)
(1.05475 0.00959409 0)
(1.05252 0.009288 0)
(1.04998 0.00900058 0)
(1.04715 0.0087297 0)
(1.04407 0.00847372 0)
(1.04076 0.00823133 0)
(1.03726 0.00800145 0)
(1.0336 0.00778316 0)
(1.0298 0.00757562 0)
(1.02588 0.00737804 0)
(1.02187 0.00718966 0)
(1.01778 0.00700974 0)
(1.01364 0.00683746 0)
(1.00945 0.00667209 0)
(1.00524 0.00651273 0)
(1.00102 0.00635858 0)
(0.996798 0.00620863 0)
(0.992587 0.00606188 0)
(0.988396 0.00591725 0)
(0.984239 0.00577309 0)
(0.980121 0.00562867 0)
(0.976056 0.00548034 0)
(0.972049 0.00532942 0)
(0.968115 0.00516661 0)
(0.964259 0.00499987 0)
(0.960496 0.00480624 0)
(0.956841 0.00460919 0)
(0.953297 0.00435972 0)
(0.949914 0.00410383 0)
(0.946651 0.0037657 0)
(0.943639 0.0033782 0)
(0.940748 0.00291773 0)
(0.938219 0.00219631 0)
(0.935787 0.00156362 0)
(0.933723 0.00022663 0)
(1.00292 0.0256527 0)
(1.03138 0.0299531 0)
(1.0467 0.0217316 0)
(1.04992 0.0186875 0)
(1.0513 0.0170912 0)
(1.05321 0.0154271 0)
(1.05496 0.0141669 0)
(1.05629 0.0132985 0)
(1.05733 0.0126119 0)
(1.05818 0.0120228 0)
(1.05882 0.0115141 0)
(1.05923 0.0110716 0)
(1.05942 0.0106801 0)
(1.05935 0.0103277 0)
(1.05904 0.0100062 0)
(1.05848 0.00971005 0)
(1.05767 0.00943499 0)
(1.05663 0.0091778 0)
(1.05535 0.00893604 0)
(1.05386 0.0087078 0)
(1.05217 0.00849161 0)
(1.05028 0.00828629 0)
(1.04823 0.00809087 0)
(1.04602 0.00790451 0)
(1.04367 0.00772647 0)
(1.0412 0.00755601 0)
(1.03861 0.00739246 0)
(1.03593 0.00723505 0)
(1.03316 0.00708311 0)
(1.03033 0.00693579 0)
(1.02743 0.00679234 0)
(1.02448 0.00665179 0)
(1.0215 0.00651316 0)
(1.01849 0.00637539 0)
(1.01546 0.00623681 0)
(1.01242 0.0060967 0)
(1.00939 0.00595133 0)
(1.00638 0.0058019 0)
(1.00338 0.00563928 0)
(1.00042 0.00547044 0)
(0.997509 0.00527404 0)
(0.994658 0.00506953 0)
(0.991873 0.00481438 0)
(0.989191 0.00454229 0)
(0.986597 0.00419489 0)
(0.984168 0.00377999 0)
(0.981844 0.00329783 0)
(0.979749 0.00255844 0)
(0.977745 0.00186348 0)
(0.975963 0.000622283 0)
(1.0026 0.0236236 0)
(1.02879 0.0288619 0)
(1.04378 0.0212116 0)
(1.04723 0.0182763 0)
(1.04862 0.016855 0)
(1.05049 0.0152864 0)
(1.05223 0.0140436 0)
(1.05357 0.0131861 0)
(1.05465 0.0125159 0)
(1.05559 0.0119421 0)
(1.0564 0.0114473 0)
(1.05708 0.0110195 0)
(1.05763 0.010644 0)
(1.05804 0.0103089 0)
(1.0583 0.010006 0)
(1.05841 0.00972941 0)
(1.05838 0.00947464 0)
(1.05818 0.00923819 0)
(1.05783 0.00901734 0)
(1.05733 0.00880996 0)
(1.05668 0.00861437 0)
(1.05589 0.00842921 0)
(1.05496 0.00825338 0)
(1.05389 0.00808594 0)
(1.0527 0.00792606 0)
(1.0514 0.00777295 0)
(1.04998 0.00762588 0)
(1.04847 0.00748409 0)
(1.04686 0.00734684 0)
(1.04516 0.00721329 0)
(1.04339 0.00708263 0)
(1.04155 0.00695391 0)
(1.03966 0.00682608 0)
(1.03771 0.00669809 0)
(1.03572 0.00656818 0)
(1.03369 0.00643564 0)
(1.03164 0.00629667 0)
(1.02957 0.00615225 0)
(1.02749 0.00599355 0)
(1.02542 0.00582641 0)
(1.02335 0.00563136 0)
(1.02132 0.0054236 0)
(1.01931 0.00516729 0)
(1.01737 0.00488444 0)
(1.01548 0.0045323 0)
(1.01368 0.00409867 0)
(1.01197 0.00360008 0)
(1.01039 0.00285464 0)
(1.00887 0.00211391 0)
(1.00746 0.00094561 0)
(1.0023 0.0217031 0)
(1.02634 0.0277545 0)
(1.04095 0.0207109 0)
(1.04463 0.0178646 0)
(1.04603 0.0166041 0)
(1.04787 0.0151397 0)
(1.04961 0.0139188 0)
(1.05094 0.0130713 0)
(1.05202 0.0124159 0)
(1.05296 0.0118548 0)
(1.0538 0.0113697 0)
(1.05455 0.0109508 0)
(1.05521 0.0105845 0)
(1.05578 0.0102592 0)
(1.05627 0.00996663 0)
(1.05667 0.0097011 0)
(1.05698 0.00945809 0)
(1.0572 0.00923406 0)
(1.05733 0.00902618 0)
(1.05736 0.00883222 0)
(1.05729 0.00865036 0)
(1.05713 0.00847914 0)
(1.05688 0.00831736 0)
(1.05653 0.00816397 0)
(1.05609 0.00801805 0)
(1.05556 0.00787873 0)
(1.05495 0.00774523 0)
(1.05425 0.00761668 0)
(1.05347 0.00749231 0)
(1.05262 0.0073712 0)
(1.0517 0.00725248 0)
(1.05071 0.00713514 0)
(1.04966 0.00701805 0)
(1.04856 0.00690015 0)
(1.0474 0.00677953 0)
(1.04621 0.00665548 0)
(1.04497 0.00652411 0)
(1.04371 0.00638615 0)
(1.04242 0.00623314 0)
(1.04112 0.00606967 0)
(1.03981 0.00587832 0)
(1.03851 0.00567006 0)
(1.03721 0.00541544 0)
(1.03594 0.0051261 0)
(1.03471 0.00477232 0)
(1.03352 0.00432742 0)
(1.03239 0.00381691 0)
(1.03132 0.00307473 0)
(1.03027 0.0023032 0)
(1.02927 0.00119137 0)
(1.00203 0.0198918 0)
(1.02402 0.026634 0)
(1.03821 0.0202264 0)
(1.0421 0.0174541 0)
(1.04353 0.0163383 0)
(1.04535 0.0149855 0)
(1.04708 0.013792 0)
(1.04841 0.0129547 0)
(1.04948 0.0123138 0)
(1.0504 0.0117654 0)
(1.05124 0.0112892 0)
(1.05199 0.0108773 0)
(1.05267 0.0105174 0)
(1.05328 0.0101983 0)
(1.05383 0.00991205 0)
(1.05433 0.00965289 0)
(1.05477 0.00941651 0)
(1.05516 0.00919946 0)
(1.05549 0.00899894 0)
(1.05576 0.00881272 0)
(1.05598 0.00863898 0)
(1.05614 0.00847622 0)
(1.05624 0.0083232 0)
(1.05628 0.00817882 0)
(1.05627 0.00804213 0)
(1.05619 0.00791222 0)
(1.05606 0.00778822 0)
(1.05587 0.00766923 0)
(1.05562 0.00755441 0)
(1.05531 0.00744278 0)
(1.05495 0.0073334 0)
(1.05454 0.0072252 0)
(1.05408 0.00711694 0)
(1.05357 0.00700753 0)
(1.05302 0.00689496 0)
(1.05243 0.00677842 0)
(1.05181 0.00665402 0)
(1.05115 0.00652215 0)
(1.05047 0.00637482 0)
(1.04978 0.00621529 0)
(1.04906 0.00602824 0)
(1.04834 0.00582063 0)
(1.04763 0.00556885 0)
(1.04691 0.00527581 0)
(1.04622 0.00492192 0)
(1.04555 0.00447134 0)
(1.04491 0.00395244 0)
(1.04429 0.00321987 0)
(1.04366 0.00242974 0)
(1.04302 0.00136306 0)
(1.00179 0.01819 0)
(1.02183 0.0255044 0)
(1.03558 0.0197543 0)
(1.03967 0.0170467 0)
(1.04113 0.0160587 0)
(1.04291 0.014823 0)
(1.04464 0.0136627 0)
(1.04597 0.0128359 0)
(1.04703 0.0122097 0)
(1.04794 0.0116745 0)
(1.04876 0.0112073 0)
(1.0495 0.0108022 0)
(1.05017 0.0104481 0)
(1.05078 0.0101341 0)
(1.05135 0.00985248 0)
(1.05186 0.00959767 0)
(1.05234 0.00936549 0)
(1.05277 0.00915262 0)
(1.05317 0.00895634 0)
(1.05354 0.00877448 0)
(1.05387 0.00860527 0)
(1.05417 0.00844725 0)
(1.05443 0.00829919 0)
(1.05465 0.00816001 0)
(1.05484 0.00802875 0)
(1.055 0.00790449 0)
(1.05511 0.00778634 0)
(1.0552 0.00767339 0)
(1.05524 0.00756474 0)
(1.05525 0.00745939 0)
(1.05522 0.00735631 0)
(1.05516 0.00725443 0)
(1.05506 0.00715239 0)
(1.05492 0.00704907 0)
(1.05476 0.00694238 0)
(1.05457 0.00683139 0)
(1.05435 0.00671226 0)
(1.05411 0.00658499 0)
(1.05385 0.00644215 0)
(1.05357 0.00628565 0)
(1.05328 0.00610224 0)
(1.05298 0.00589523 0)
(1.05268 0.00564604 0)
(1.05238 0.00535074 0)
(1.05209 0.00499703 0)
(1.0518 0.00454439 0)
(1.05153 0.00401977 0)
(1.05126 0.00330015 0)
(1.05095 0.00250076 0)
(1.05061 0.00147175 0)
(1.00157 0.0165973 0)
(1.01978 0.0243696 0)
(1.03304 0.0192905 0)
(1.03732 0.0166443 0)
(1.03882 0.0157662 0)
(1.04056 0.0146515 0)
(1.04228 0.0135306 0)
(1.04362 0.0127148 0)
(1.04467 0.0121032 0)
(1.04557 0.011582 0)
(1.04638 0.0111244 0)
(1.0471 0.0107262 0)
(1.04776 0.0103778 0)
(1.04836 0.0100688 0)
(1.04892 0.00979143 0)
(1.04943 0.00954032 0)
(1.0499 0.00931145 0)
(1.05035 0.0091016 0)
(1.05076 0.00890817 0)
(1.05115 0.00872905 0)
(1.05151 0.00856254 0)
(1.05185 0.00840723 0)
(1.05217 0.00826194 0)
(1.05247 0.00812563 0)
(1.05274 0.00799736 0)
(1.053 0.00787622 0)
(1.05323 0.00776135 0)
(1.05344 0.00765184 0)
(1.05362 0.00754675 0)
(1.05379 0.00744509 0)
(1.05393 0.00734578 0)
(1.05405 0.00724772 0)
(1.05415 0.0071495 0)
(1.05422 0.00704995 0)
(1.05428 0.00694692 0)
(1.05432 0.00683939 0)
(1.05434 0.00672359 0)
(1.05434 0.00659911 0)
(1.05434 0.00645913 0)
(1.05432 0.00630425 0)
(1.0543 0.00612317 0)
(1.05427 0.00591606 0)
(1.05424 0.00566846 0)
(1.05421 0.00537144 0)
(1.05419 0.00501743 0)
(1.05416 0.0045648 0)
(1.05414 0.00403634 0)
(1.05411 0.00333065 0)
(1.05403 0.00252951 0)
(1.05389 0.00153127 0)
(1.00137 0.0151129 0)
(1.01788 0.0232335 0)
(1.03061 0.0188312 0)
(1.03505 0.0162481 0)
(1.0366 0.0154625 0)
(1.0383 0.0144704 0)
(1.04002 0.0133953 0)
(1.04136 0.0125916 0)
(1.0424 0.0119943 0)
(1.04329 0.0114875 0)
(1.04409 0.0110402 0)
(1.0448 0.0106493 0)
(1.04545 0.0103069 0)
(1.04604 0.0100029 0)
(1.04658 0.00972979 0)
(1.04708 0.00948229 0)
(1.04754 0.00925652 0)
(1.04798 0.00904935 0)
(1.04839 0.00885829 0)
(1.04877 0.00868129 0)
(1.04914 0.00851671 0)
(1.04949 0.00836321 0)
(1.04982 0.00821965 0)
(1.05014 0.00808503 0)
(1.05044 0.00795846 0)
(1.05072 0.00783907 0)
(1.051 0.007726 0)
(1.05125 0.00761835 0)
(1.0515 0.0075152 0)
(1.05173 0.00741554 0)
(1.05194 0.00731827 0)
(1.05215 0.00722229 0)
(1.05234 0.00712612 0)
(1.05251 0.00702858 0)
(1.05268 0.00692749 0)
(1.05283 0.00682171 0)
(1.05298 0.0067076 0)
(1.05312 0.00658433 0)
(1.05325 0.00644569 0)
(1.05337 0.00629112 0)
(1.0535 0.00611101 0)
(1.05362 0.005903 0)
(1.05375 0.00565579 0)
(1.05388 0.00535713 0)
(1.05401 0.00500211 0)
(1.05414 0.00455057 0)
(1.05427 0.00401966 0)
(1.05437 0.00332771 0)
(1.05443 0.00252996 0)
(1.05442 0.00155727 0)
(1.0012 0.0137352 0)
(1.0161 0.0221002 0)
(1.02829 0.0183725 0)
(1.03287 0.0158595 0)
(1.03447 0.0151491 0)
(1.03613 0.014279 0)
(1.03784 0.0132563 0)
(1.03919 0.0124662 0)
(1.04022 0.011883 0)
(1.0411 0.0113911 0)
(1.04189 0.0109547 0)
(1.04259 0.0105714 0)
(1.04323 0.0102351 0)
(1.0438 0.00993639 0)
(1.04433 0.00966769 0)
(1.04482 0.00942389 0)
(1.04527 0.00920124 0)
(1.0457 0.00899673 0)
(1.0461 0.00880793 0)
(1.04648 0.00863288 0)
(1.04684 0.00847 0)
(1.04718 0.00831799 0)
(1.04751 0.00817576 0)
(1.04782 0.00804236 0)
(1.04813 0.00791694 0)
(1.04842 0.00779864 0)
(1.0487 0.00768665 0)
(1.04897 0.00758009 0)
(1.04923 0.00747801 0)
(1.04948 0.00737945 0)
(1.04972 0.00728325 0)
(1.04995 0.00718832 0)
(1.05018 0.00709315 0)
(1.05039 0.00699653 0)
(1.0506 0.00689627 0)
(1.05081 0.00679111 0)
(1.05101 0.00667756 0)
(1.05121 0.0065544 0)
(1.0514 0.006416 0)
(1.05159 0.00626079 0)
(1.05179 0.00608058 0)
(1.05199 0.00587106 0)
(1.05219 0.00562325 0)
(1.0524 0.00532296 0)
(1.05261 0.00496643 0)
(1.05282 0.0045165 0)
(1.05302 0.00398441 0)
(1.05319 0.00330538 0)
(1.05331 0.00251454 0)
(1.05336 0.001564 0)
(1.00104 0.0124619 0)
(1.01446 0.0209741 0)
(1.02608 0.0179112 0)
(1.03078 0.0154792 0)
(1.03244 0.0148282 0)
(1.03406 0.014077 0)
(1.03575 0.0131131 0)
(1.0371 0.0123387 0)
(1.03814 0.0117691 0)
(1.03901 0.0112925 0)
(1.03978 0.0108677 0)
(1.04047 0.0104924 0)
(1.0411 0.0101625 0)
(1.04166 0.00986921 0)
(1.04218 0.00960508 0)
(1.04266 0.00936511 0)
(1.0431 0.00914567 0)
(1.04352 0.00894388 0)
(1.04391 0.00875739 0)
(1.04427 0.00858429 0)
(1.04462 0.00842307 0)
(1.04496 0.00827248 0)
(1.04528 0.00813148 0)
(1.04559 0.00799915 0)
(1.04588 0.00787467 0)
(1.04617 0.00775725 0)
(1.04644 0.00764606 0)
(1.04671 0.00754025 0)
(1.04697 0.00743889 0)
(1.04722 0.007341 0)
(1.04747 0.00724542 0)
(1.04771 0.00715104 0)
(1.04794 0.00705634 0)
(1.04817 0.00696006 0)
(1.04839 0.00686004 0)
(1.04861 0.00675488 0)
(1.04883 0.00664126 0)
(1.04904 0.00651759 0)
(1.04926 0.00637878 0)
(1.04948 0.00622238 0)
(1.0497 0.00604139 0)
(1.04993 0.0058301 0)
(1.05016 0.00558106 0)
(1.0504 0.00527929 0)
(1.05063 0.00492107 0)
(1.05087 0.00447309 0)
(1.05109 0.0039411 0)
(1.05128 0.00327412 0)
(1.05143 0.00249275 0)
(1.05149 0.00156232 0)
(1.0009 0.01129 0)
(1.01295 0.0198595 0)
(1.02398 0.017444 0)
(1.02878 0.0151076 0)
(1.03051 0.0145016 0)
(1.03209 0.0138642 0)
(1.03375 0.0129652 0)
(1.0351 0.012209 0)
(1.03614 0.0116528 0)
(1.037 0.0111917 0)
(1.03776 0.0107791 0)
(1.03845 0.0104123 0)
(1.03906 0.010089 0)
(1.03962 0.00980129 0)
(1.04013 0.0095419 0)
(1.04059 0.0093059 0)
(1.04103 0.00908979 0)
(1.04143 0.0088908 0)
(1.04181 0.00870668 0)
(1.04217 0.00853559 0)
(1.04251 0.00837606 0)
(1.04283 0.0082269 0)
(1.04314 0.00808712 0)
(1.04344 0.00795584 0)
(1.04373 0.00783229 0)
(1.04401 0.00771567 0)
(1.04428 0.00760521 0)
(1.04454 0.00750006 0)
(1.04479 0.0073993 0)
(1.04504 0.00730193 0)
(1.04528 0.0072068 0)
(1.04551 0.00711278 0)
(1.04574 0.00701834 0)
(1.04596 0.00692216 0)
(1.04619 0.00682212 0)
(1.04641 0.00671668 0)
(1.04662 0.00660271 0)
(1.04684 0.00647826 0)
(1.04706 0.00633871 0)
(1.04729 0.00618095 0)
(1.04751 0.00599885 0)
(1.04774 0.00578579 0)
(1.04798 0.00553526 0)
(1.04822 0.00523228 0)
(1.04846 0.0048726 0)
(1.04869 0.00442692 0)
(1.04891 0.00389639 0)
(1.04909 0.0032408 0)
(1.04923 0.00247085 0)
(1.04928 0.00155959 0)
(1.00078 0.0102162 0)
(1.01157 0.0187609 0)
(1.02199 0.0169683 0)
(1.02686 0.0147449 0)
(1.02866 0.0141716 0)
(1.0302 0.0136405 0)
(1.03184 0.0128118 0)
(1.03319 0.0120772 0)
(1.03423 0.011534 0)
(1.03508 0.0110884 0)
(1.03584 0.0106887 0)
(1.03651 0.0103309 0)
(1.03712 0.0100145 0)
(1.03767 0.00973255 0)
(1.03816 0.00947807 0)
(1.03862 0.00924618 0)
(1.03905 0.00903352 0)
(1.03944 0.00883743 0)
(1.03981 0.00865576 0)
(1.04016 0.00848674 0)
(1.04049 0.00832896 0)
(1.04081 0.00818128 0)
(1.04111 0.00804275 0)
(1.0414 0.00791255 0)
(1.04168 0.00778992 0)
(1.04195 0.00767413 0)
(1.04221 0.0075644 0)
(1.04246 0.0074599 0)
(1.0427 0.00735971 0)
(1.04294 0.00726284 0)
(1.04318 0.00716813 0)
(1.0434 0.00707442 0)
(1.04362 0.00698018 0)
(1.04384 0.00688404 0)
(1.04406 0.00678391 0)
(1.04427 0.00667812 0)
(1.04448 0.0065637 0)
(1.0447 0.00643842 0)
(1.04491 0.00629804 0)
(1.04513 0.00613895 0)
(1.04535 0.00595565 0)
(1.04557 0.00574101 0)
(1.0458 0.00548903 0)
(1.04602 0.00518526 0)
(1.04625 0.00482461 0)
(1.04647 0.00438164 0)
(1.04667 0.00385395 0)
(1.04684 0.00320949 0)
(1.04695 0.00245251 0)
(1.04698 0.00156034 0)
(1.00067 0.00923624 0)
(1.01031 0.0176827 0)
(1.02012 0.0164819 0)
(1.02503 0.0143908 0)
(1.0269 0.0138401 0)
(1.02841 0.0134063 0)
(1.03001 0.0126524 0)
(1.03137 0.0119429 0)
(1.03241 0.0114128 0)
(1.03326 0.0109827 0)
(1.034 0.0105964 0)
(1.03467 0.0102482 0)
(1.03527 0.00993887 0)
(1.03581 0.0096629 0)
(1.0363 0.00941351 0)
(1.03674 0.0091859 0)
(1.03716 0.0089768 0)
(1.03755 0.00878372 0)
(1.03791 0.00860457 0)
(1.03825 0.00843769 0)
(1.03857 0.00828171 0)
(1.03888 0.00813556 0)
(1.03917 0.00799833 0)
(1.03945 0.00786924 0)
(1.03972 0.00774758 0)
(1.03998 0.00763264 0)
(1.04024 0.00752367 0)
(1.04048 0.00741984 0)
(1.04072 0.00732025 0)
(1.04095 0.00722391 0)
(1.04117 0.00712963 0)
(1.04139 0.00703624 0)
(1.04161 0.00694222 0)
(1.04182 0.00684613 0)
(1.04202 0.00674592 0)
(1.04223 0.00663981 0)
(1.04243 0.00652495 0)
(1.04264 0.0063989 0)
(1.04284 0.00625772 0)
(1.04305 0.00609744 0)
(1.04326 0.00591302 0)
(1.04347 0.00569711 0)
(1.04368 0.00544391 0)
(1.0439 0.00513981 0)
(1.04411 0.00477889 0)
(1.04431 0.00433915 0)
(1.04448 0.00381567 0)
(1.04462 0.00318239 0)
(1.04471 0.00243972 0)
(1.04471 0.00156725 0)
(1.00058 0.00834561 0)
(1.00917 0.0166292 0)
(1.01837 0.0159831 0)
(1.02328 0.0140447 0)
(1.02523 0.013509 0)
(1.02671 0.0131621 0)
(1.02828 0.0124863 0)
(1.02963 0.0118061 0)
(1.03068 0.0112893 0)
(1.03152 0.0108743 0)
(1.03226 0.010502 0)
(1.03292 0.0101639 0)
(1.03351 0.00986206 0)
(1.03404 0.00959226 0)
(1.03452 0.00934814 0)
(1.03496 0.00912496 0)
(1.03537 0.00891957 0)
(1.03574 0.00872959 0)
(1.0361 0.00855306 0)
(1.03643 0.00838838 0)
(1.03674 0.00823427 0)
(1.03704 0.00808969 0)
(1.03733 0.00795381 0)
(1.0376 0.00782588 0)
(1.03786 0.00770523 0)
(1.03812 0.00759118 0)
(1.03836 0.00748299 0)
(1.0386 0.00737989 0)
(1.03883 0.00728093 0)
(1.03905 0.00718514 0)
(1.03927 0.00709134 0)
(1.03948 0.00699832 0)
(1.03969 0.00690455 0)
(1.03989 0.00680855 0)
(1.04009 0.00670831 0)
(1.04028 0.00660195 0)
(1.04048 0.00648672 0)
(1.04067 0.00636001 0)
(1.04087 0.00621812 0)
(1.04107 0.00605686 0)
(1.04126 0.00587148 0)
(1.04146 0.00565464 0)
(1.04166 0.00540058 0)
(1.04186 0.00509668 0)
(1.04205 0.0047363 0)
(1.04222 0.00430037 0)
(1.04238 0.00378241 0)
(1.04249 0.00316069 0)
(1.04254 0.00243354 0)
(1.04251 0.00158186 0)
(1.0005 0.00753923 0)
(1.00813 0.0156046 0)
(1.01672 0.0154709 0)
(1.02161 0.0137056 0)
(1.02365 0.0131802 0)
(1.0251 0.0129087 0)
(1.02663 0.012313 0)
(1.02798 0.0116664 0)
(1.02902 0.0111634 0)
(1.02986 0.0107633 0)
(1.03059 0.0104055 0)
(1.03125 0.010078 0)
(1.03183 0.00978397 0)
(1.03235 0.00952054 0)
(1.03283 0.00928187 0)