/*--------------------------------*- C++ -*----------------------------------*\
  =========                 |
  \\      /  F ield         | OpenFOAM: The Open Source CFD Toolbox
   \\    /   O peration     | Website:  https://openfoam.org
    \\  /    A nd           | Version:  7
     \\/     M anipulation  |
\*---------------------------------------------------------------------------*/
FoamFile
{
    version     2.0;
    format      ascii;
    class       volScalarField;
    location    "0.41";
    object      yPlus;
}
// * * * * * * * * * * * * * * * * * * * * * * * * * * * * * * * * * * * * * //

dimensions      [0 0 0 0 0 0 0];

internalField   uniform 0;

boundaryField
{
    velocityInlet
    {
        type            calculated;
        value           uniform 0;
    }
    pressureOutlet
    {
        type            calculated;
        value           uniform 0;
    }
    fixedWalls
    {
        type            calculated;
        value           nonuniform List<scalar> 
100
(
2.16914
1.16915
1.06207
1.03476
0.970785
0.903583
0.849087
0.809505
0.782825
0.767115
0.762087
0.769676
0.792592
0.827854
0.85649
0.841156
0.740754
0.542484
0.288761
0.191476
0.399259
0.599592
0.74229
0.833397
0.886707
0.915025
0.926204
0.923773
0.909588
0.886515
0.85953
0.834649
0.816465
0.80454
0.791436
0.767856
0.73443
0.707402
0.709181
0.75526
0.847503
0.969143
1.09602
1.21795
1.33056
1.40559
1.38912
1.21404
0.739568
0.785413
1.23656
1.39248
1.33992
1.1332
0.812225
0.3168
0.572148
0.784141
0.892707
0.953887
0.992731
1.02376
1.0547
1.08668
1.11658
1.14196
1.16376
1.18548
1.21072
1.23468
1.23184
1.16135
0.985625
0.668562
0.395865
0.854753
1.1022
1.23951
1.28079
1.23243
1.10222
0.896756
0.606462
0.180737
0.592218
0.761552
0.851701
0.896587
0.913351
0.912525
0.900543
0.883147
0.864137
0.849517
0.843222
0.844216
0.868873
0.882004
0.948865
0.975461
)
;
    }
    bottomWall
    {
        type            calculated;
        value           nonuniform List<scalar> 
800
(
2.94479
1.98391
1.61345
1.44036
1.35525
1.29664
1.24773
1.20666
1.17215
1.14262
1.11685
1.09406
1.07369
1.05533
1.03867
1.02345
1.00949
0.996604
0.984673
0.973583
0.963239
0.953561
0.944484
0.935946
0.927899
0.9203
0.913107
0.90629
0.899816
0.893659
0.887796
0.882205
0.876867
0.871764
0.866881
0.862204
0.857718
0.853413
0.849278
0.845303
0.841477
0.837794
0.834244
0.830821
0.827519
0.824331
0.821249
0.818273
0.815391
0.812607
0.810271
0.808337
0.806423
0.804534
0.80267
0.800829
0.799011
0.797217
0.795442
0.793691
0.79196
0.79025
0.788559
0.786889
0.785238
0.783606
0.781993
0.780397
0.77882
0.777261
0.775718
0.774192
0.772684
0.771191
0.769714
0.768254
0.766809
0.765379
0.763964
0.762563
0.761176
0.759804
0.758446
0.757101
0.75577
0.754452
0.753147
0.751854
0.750575
0.749307
0.748052
0.746808
0.745577
0.744357
0.743149
0.741951
0.740764
0.73959
0.738425
0.73727
0.736128
0.734994
0.733871
0.732757
0.731654
0.730561
0.729476
0.728402
0.727335
0.726279
0.725232
0.724193
0.723164
0.722143
0.72113
0.720126
0.71913
0.718143
0.717163
0.716192
0.715228
0.714272
0.713323
0.712383
0.71145
0.710524
0.709605
0.708693
0.707788
0.706891
0.706
0.705116
0.704238
0.703368
0.702504
0.701646
0.700795
0.699949
0.69911
0.698277
0.69745
0.696629
0.695813
0.695004
0.694201
0.693402
0.692609
0.691822
0.69104
0.690263
0.689612
0.689078
0.688542
0.688006
0.687469
0.68693
0.68639
0.685848
0.685307
0.684763
0.684218
0.683672
0.683125
0.682577
0.682027
0.681476
0.680924
0.680371
0.679817
0.679261
0.678704
0.678146
0.677587
0.677026
0.676465
0.675902
0.675339
0.674774
0.674207
0.67364
0.673072
0.672501
0.67193
0.671358
0.670785
0.67021
0.669634
0.669057
0.668478
0.667898
0.667318
0.666735
0.666152
0.665567
0.664982
0.664394
0.663805
0.663215
0.662624
0.662031
0.661438
0.660842
0.660246
0.659648
0.659048
0.658446
0.657844
0.65724
0.656635
0.656028
0.655419
0.65481
0.654198
0.653585
0.65297
0.652353
0.651735
0.651115
0.650493
0.649871
0.649245
0.648617
0.647989
0.647358
0.646725
0.64609
0.645453
0.644814
0.644173
0.643529
0.642883
0.642234
0.641585
0.640929
0.640277
0.639611
0.638961
0.63828
0.637638
0.63693
0.636313
0.635552
0.634992
0.634134
0.633691
0.632658
0.632423
0.63112
0.631183
0.629528
2.94479
1.9839
1.61344
1.44033
1.35519
1.29655
1.24759
1.20646
1.17189
1.14229
1.11645
1.09357
1.07312
1.05466
1.0379
1.02258
1.00851
0.995511
0.983463
0.972253
0.961789
0.951994
0.942802
0.934155
0.926004
0.918308
0.91103
0.904139
0.89761
0.891415
0.885541
0.87997
0.874692
0.869693
0.864977
0.860533
0.856375
0.852504
0.848928
0.845701
0.84275
0.840354
0.838031
0.83692
0.835027
0.836316
0.833968
0.840307
0.836376
0.821828
0.730897
1.31554
1.4797
1.23791
0.896118
0.700234
0.886335
1.81468
2.54331
2.99246
3.19861
3.24031
3.16096
3.00126
2.78056
2.51724
2.21941
1.88618
1.50166
1.01979
0.657782
1.20305
1.61026
1.93592
2.21832
2.47461
2.7135
2.93941
3.15444
3.35993
3.5553
3.73987
3.91295
4.07389
4.22208
4.35703
4.47841
4.58593
4.67948
4.75896
4.82435
4.87575
4.91299
4.93645
4.94598
4.94084
4.92198
4.88979
4.84446
4.78658
4.71684
4.63589
4.54429
4.44258
4.33123
4.21055
4.0807
3.9416
3.79286
3.63372
3.46305
3.27901
3.07936
2.86099
2.61872
2.35382
2.0533
1.68027
1.10149
1.04109
1.5548
1.84649
1.98564
1.98713
1.87537
1.69468
1.56373
1.6434
1.79341
1.88057
1.9176
1.94737
1.98733
2.03723
2.08908
2.13109
2.15588
2.16579
2.16531
2.15068
2.11212
2.04218
1.93974
1.81258
1.67178
1.52193
1.36096
1.18963
1.01624
0.860584
0.768777
0.774513
0.832384
0.88967
0.926683
0.938525
0.923385
0.886483
0.816136
0.71418
0.589729
0.513776
0.609879
0.768486
0.919301
1.05572
1.17995
1.29512
1.40479
1.51368
1.62574
1.74485
1.8735
2.01248
2.16147
2.32018
2.48934
2.67089
2.86584
3.07034
3.27375
3.46348
3.63194
3.77793
3.90328
4.00979
4.09887
4.17184
4.23004
4.27469
4.30699
4.32802
4.33888
4.34051
4.33379
4.32037
4.3005
4.27481
4.24381
4.20793
4.1676
4.12316
4.07491
4.02312
3.96799
3.90973
3.84848
3.78435
3.71746
3.64789
3.57566
3.50082
3.4234
3.34335
3.26065
3.17525
3.08706
2.99598
2.90188
2.80458
2.70391
2.59962
2.49148
2.37926
2.26269
2.14311
2.0229
1.8979
1.76823
1.63522
1.50282
1.38013
1.28432
1.23759
1.25012
1.30747
1.38501
1.4648
1.54073
1.60974
1.66543
1.70676
1.73317
1.7446
1.74045
1.7232
1.70269
1.71239
1.84479
2.22635
0.646888
1.42278
1.84415
1.94381
1.72364
1.27
0.954151
1.43727
1.74492
1.85088
1.82319
1.75274
1.71951
1.76133
1.88267
2.06926
2.28939
2.51454
2.71648
2.8697
2.96617
2.98313
2.89134
2.72866
2.52225
2.28641
2.12897
2.08629
2.06352
2.06893
2.25253
2.43181
2.49097
2.35562
1.91976
1.09425
1.28436
2.24
2.91386
3.43166
3.8578
4.23722
4.56853
4.85798
5.1125
5.33518
5.52781
5.69275
5.8312
5.94385
6.03068
6.09112
6.12475
6.13088
6.10752
6.05628
5.97726
5.86926
5.73237
5.56645
5.37128
5.14681
4.89246
4.60705
4.28806
3.93076
3.52659
3.05996
2.50133
1.79959
1.3467
2.10352
2.81073
3.40899
3.93883
4.42088
4.86445
5.27146
5.64268
5.9743
6.25556
6.484
6.64812
6.75299
6.78435
6.74543
6.621
6.4119
6.12474
5.64139
5.16744
4.15124
1.85299
2.21626
2.14635
1.51543
1.19171
1.56176
1.6416
0.89013
1.00573
1.71208
2.3122
2.81163
3.21216
3.47149
3.54825
3.4509
3.17022
2.70183
1.96813
1.32386
2.10036
2.70463
3.0996
3.33482
3.44768
3.46677
3.42629
3.35794
3.28525
3.21952
3.16208
3.10811
3.04814
2.97338
2.8814
2.77578
2.66261
2.55171
2.45298
2.36781
2.30043
2.23471
2.1488
2.04523
1.90513
1.6766
1.33611
0.842504
0.681898
1.26226
1.41904
1.30267
1.52262
1.8428
2.04395
2.04949
1.83434
1.23838
1.31428
2.37632
2.97983
3.28473
3.4838
3.69219
3.89079
4.03992
4.17266
4.291
4.38981
4.47847
4.55639
4.62433
4.68513
4.73859
4.78588
4.8278
4.86465
4.8971
4.92551
4.95021
4.97156
4.9898
5.00517
5.01788
5.02813
5.03609
5.0419
5.04571
5.04762
5.04774
5.04623
5.04319
5.03869
5.0328
5.02559
5.01716
5.00753
4.99677
4.98492
4.97199
4.95801
4.94292
4.92667
4.90914
4.89012
4.86927
4.84611
4.81994
4.78983
4.75453
4.71249
4.662
4.60138
4.53092
4.45236
4.36753
4.28255
4.20671
4.15237
4.15796
4.22272
4.34737
4.52244
4.74311
5.05004
5.49024
5.94249
6.25409
6.46173
6.6262
6.75514
6.83861
6.88325
6.90055
6.89387
6.86675
6.82595
6.77318
6.71058
6.641
6.56607
6.48711
6.40543
6.32193
6.23721
6.15183
6.06619
5.98064
5.89552
5.81124
5.72828
5.64724
5.56884
5.49392
5.42345
5.35851
5.30032
5.25009
5.20904
5.19658
5.20568
5.22642
5.25449
5.28833
5.32803
5.37179
5.41836
5.46829
5.52355
5.58667
5.65762
5.74007
5.81753
5.8847
5.94837
5.99671
6.02618
6.04588
6.05886
6.06047
6.05182
6.03398
6.00586
5.96669
5.91599
5.85336
5.77852
5.69132
5.59175
5.48001
5.35656
5.22229
5.07865
4.92831
4.77584
4.62806
4.53859
4.51169
4.52886
4.60321
4.74284
4.94394
5.19599
5.48536
5.80542
6.13495
6.52187
6.58399
)
;
    }
    frontAndBack
    {
        type            empty;
    }
}


// ************************************************************************* //
