/*--------------------------------*- C++ -*----------------------------------*\
  =========                 |
  \\      /  F ield         | OpenFOAM: The Open Source CFD Toolbox
   \\    /   O peration     | Website:  https://openfoam.org
    \\  /    A nd           | Version:  7
     \\/     M anipulation  |
\*---------------------------------------------------------------------------*/
FoamFile
{
    version     2.0;
    format      ascii;
    class       surfaceScalarField;
    location    "0.26";
    object      ddtCorrDdt0(phi);
}
// * * * * * * * * * * * * * * * * * * * * * * * * * * * * * * * * * * * * * //

dimensions      [0 3 -2 0 0 0 0];

internalField   nonuniform List<scalar> 
139350
(
-7.00627e-10
7.01719e-10
-1.89901e-09
1.19973e-09
-3.21207e-09
1.31537e-09
-4.42238e-09
1.21195e-09
-5.54188e-09
1.12106e-09
-6.6366e-09
1.09666e-09
-7.75659e-09
1.12182e-09
-8.93374e-09
1.17932e-09
-1.01765e-08
1.24479e-09
-1.14732e-08
1.29908e-09
-1.28067e-08
1.33573e-09
-1.41595e-08
1.35537e-09
-1.55214e-08
1.3641e-09
-1.68877e-08
1.36866e-09
-1.82616e-08
1.37571e-09
-1.96484e-08
1.38915e-09
-2.10568e-08
1.40902e-09
-2.24896e-08
1.43565e-09
-2.39562e-08
1.46685e-09
-2.54554e-08
1.50201e-09
-2.6992e-08
1.53766e-09
-2.85642e-08
1.57382e-09
-3.01716e-08
1.60868e-09
-3.18127e-08
1.64233e-09
-3.34857e-08
1.67302e-09
-3.51847e-08
1.70138e-09
-3.69106e-08
1.72552e-09
-3.86539e-08
1.74596e-09
-4.04132e-08
1.75998e-09
-4.21796e-08
1.76778e-09
-4.39453e-08
1.76674e-09
-4.56999e-08
1.75552e-09
-4.74351e-08
1.73487e-09
-4.91331e-08
1.70057e-09
-5.07951e-08
1.66111e-09
-5.23946e-08
1.6024e-09
-5.39648e-08
1.57023e-09
-5.54724e-08
1.50854e-09
-5.7042e-08
1.56989e-09
-5.86264e-08
1.58292e-09
-6.05934e-08
1.96603e-09
-6.29047e-08
2.30795e-09
-6.64664e-08
3.559e-09
-7.14783e-08
5.00773e-09
-8.00209e-08
8.54053e-09
-9.31731e-08
1.31498e-08
-1.16649e-07
2.34803e-08
-1.55248e-07
3.86025e-08
-2.17173e-07
6.19303e-08
2.43549e-07
-4.60721e-07
-1.04316e-09
1.7462e-09
-3.58988e-09
3.74792e-09
-6.69349e-09
4.42141e-09
-9.49664e-09
4.0169e-09
-1.19519e-08
3.57805e-09
-1.43159e-08
3.46272e-09
-1.67712e-08
3.57917e-09
-1.94088e-08
3.81924e-09
-2.22439e-08
4.08217e-09
-2.52353e-08
4.293e-09
-2.8322e-08
4.42494e-09
-3.14485e-08
4.48455e-09
-3.45809e-08
4.49897e-09
-3.77072e-08
4.49751e-09
-4.08351e-08
4.50547e-09
-4.39808e-08
4.53735e-09
-4.71648e-08
4.59378e-09
-5.04014e-08
4.67528e-09
-5.37084e-08
4.77416e-09
-5.709e-08
4.88655e-09
-6.05535e-08
5.00246e-09
-6.40979e-08
5.11985e-09
-6.77216e-08
5.23363e-09
-7.14207e-08
5.3428e-09
-7.51894e-08
5.44173e-09
-7.90168e-08
5.53142e-09
-8.28966e-08
5.60493e-09
-8.68091e-08
5.66122e-09
-9.07395e-08
5.69128e-09
-9.46605e-08
5.69018e-09
-9.85407e-08
5.64793e-09
-1.02338e-07
5.55411e-09
-1.06007e-07
5.40345e-09
-1.09479e-07
5.17554e-09
-1.127e-07
4.88132e-09
-1.15571e-07
4.4757e-09
-1.18049e-07
4.0485e-09
-1.20007e-07
3.4675e-09
-1.21481e-07
3.04401e-09
-1.22319e-07
2.41928e-09
-1.22847e-07
2.49251e-09
-1.22911e-07
2.36848e-09
-1.23711e-07
4.35612e-09
-1.25268e-07
6.56061e-09
-1.31043e-07
1.4313e-08
-1.42892e-07
2.49963e-08
-1.67331e-07
4.79251e-08
-2.27401e-07
9.86759e-08
-3.15876e-07
1.5041e-07
5.64899e-07
-6.37223e-07
-8.1317e-10
2.56088e-09
-3.64476e-09
6.58109e-09
-7.69065e-09
8.46983e-09
-1.16411e-08
7.9693e-09
-1.50453e-08
6.98403e-09
-1.81621e-08
6.58183e-09
-2.13272e-08
6.74637e-09
-2.47423e-08
7.23682e-09
-2.84698e-08
7.81206e-09
-3.24656e-08
8.2916e-09
-3.66374e-08
8.5993e-09
-4.08909e-08
8.74096e-09
-4.51619e-08
8.7726e-09
-4.94213e-08
8.75951e-09
-5.36713e-08
8.75746e-09
-5.79309e-08
8.79959e-09
-6.22274e-08
8.89106e-09
-6.65828e-08
9.03391e-09
-7.10223e-08
9.21405e-09
-7.5556e-08
9.42327e-09
-8.01957e-08
9.64352e-09
-8.49435e-08
9.86938e-09
-8.98002e-08
1.00917e-08
-9.47632e-08
1.03073e-08
-9.98275e-08
1.05059e-08
-1.04981e-07
1.06878e-08
-1.10216e-07
1.08392e-08
-1.15507e-07
1.09553e-08
-1.20833e-07
1.10181e-08
-1.26154e-07
1.1013e-08
-1.31424e-07
1.09189e-08
-1.36577e-07
1.07087e-08
-1.4154e-07
1.03658e-08
-1.46204e-07
9.84233e-09
-1.50467e-07
9.14318e-09
-1.54169e-07
8.18058e-09
-1.57185e-07
7.06529e-09
-1.59312e-07
5.59551e-09
-1.60436e-07
4.16835e-09
-1.60329e-07
2.30989e-09
-1.59072e-07
1.23446e-09
-1.5642e-07
-2.87443e-10
-1.53335e-07
1.2674e-09
-1.49617e-07
2.83751e-09
-1.48619e-07
1.33137e-08
-1.53083e-07
2.94571e-08
-1.65651e-07
6.04987e-08
-2.24286e-07
1.57316e-07
-3.08696e-07
2.34825e-07
8.9833e-07
-6.42126e-07
-4.84983e-10
3.04751e-09
-2.89665e-09
8.99441e-09
-7.02154e-09
1.25973e-08
-1.16264e-08
1.25762e-08
-1.58305e-08
1.11901e-08
-1.95837e-08
1.03373e-08
-2.32055e-08
1.03704e-08
-2.70057e-08
1.10396e-08
-3.11517e-08
1.19606e-08
-3.56589e-08
1.28016e-08
-4.04473e-08
1.33904e-08
-4.54051e-08
1.37017e-08
-5.0439e-08
1.38092e-08
-5.54924e-08
1.38157e-08
-6.0547e-08
1.38141e-08
-6.5609e-08
1.38644e-08
-7.07002e-08
1.3983e-08
-7.58411e-08
1.41782e-08
-8.10592e-08
1.44326e-08
-8.63683e-08
1.47354e-08
-9.17851e-08
1.50619e-08
-9.73175e-08
1.54035e-08
-1.02972e-07
1.57473e-08
-1.08751e-07
1.60879e-08
-1.14655e-07
1.64101e-08
-1.20677e-07
1.67125e-08
-1.26812e-07
1.69738e-08
-1.33037e-07
1.71835e-08
-1.39331e-07
1.73129e-08
-1.45651e-07
1.73346e-08
-1.51945e-07
1.72138e-08
-1.58137e-07
1.69018e-08
-1.64139e-07
1.63671e-08
-1.69821e-07
1.55277e-08
-1.75054e-07
1.43748e-08
-1.79645e-07
1.27747e-08
-1.83413e-07
1.08338e-08
-1.86116e-07
8.29924e-09
-1.87528e-07
5.58086e-09
-1.8738e-07
2.15933e-09
-1.85563e-07
-5.84025e-10
-1.81763e-07
-4.09141e-09
-1.7666e-07
-3.83866e-09
-1.70041e-07
-3.78624e-09
-1.64361e-07
7.63168e-09
-1.64046e-07
2.91394e-08
-1.67144e-07
6.36023e-08
-2.17451e-07
2.07628e-07
-3.02326e-07
3.19704e-07
1.17508e-06
-5.79072e-07
-2.9841e-10
3.34766e-09
-2.09046e-09
1.07882e-08
-5.70375e-09
1.62133e-08
-1.03755e-08
1.725e-08
-1.51008e-08
1.59174e-08
-1.94474e-08
1.46864e-08
-2.35031e-08
1.44284e-08
-2.75545e-08
1.50938e-08
-3.18584e-08
1.6267e-08
-3.65375e-08
1.74836e-08
-4.15863e-08
1.84421e-08
-4.69239e-08
1.90424e-08
-5.24533e-08
1.93415e-08
-5.80952e-08
1.94604e-08
-6.38014e-08
1.95224e-08
-6.95492e-08
1.9615e-08
-7.53371e-08
1.97716e-08
-8.11684e-08
2.0013e-08
-8.70599e-08
2.03246e-08
-9.30208e-08
2.06994e-08
-9.9068e-08
2.11107e-08
-1.05213e-07
2.15503e-08
-1.11469e-07
2.20048e-08
-1.17847e-07
2.24672e-08
-1.24356e-07
2.29188e-08
-1.30997e-07
2.33564e-08
-1.37774e-07
2.37506e-08
-1.44671e-07
2.40841e-08
-1.51674e-07
2.43165e-08
-1.58743e-07
2.4405e-08
-1.65828e-07
2.43001e-08
-1.72853e-07
2.39275e-08
-1.79725e-07
2.32388e-08
-1.8631e-07
2.2116e-08
-1.92464e-07
2.0528e-08
-1.97988e-07
1.83016e-08
-2.02666e-07
1.55117e-08
-2.06251e-07
1.18855e-08
-2.08448e-07
7.77825e-09
-2.0899e-07
2.69836e-09
-2.07639e-07
-1.93627e-09
-2.04109e-07
-7.62529e-09
-1.9876e-07
-9.19185e-09
-1.91763e-07
-1.07886e-08
-1.84202e-07
6.84283e-11
-1.82527e-07
2.74616e-08
-1.82279e-07
6.33606e-08
-2.23275e-07
2.48628e-07
-3.16636e-07
4.13069e-07
1.386e-06
-5.27558e-07
-2.65218e-10
3.61469e-09
-1.59394e-09
1.21187e-08
-4.53159e-09
1.91537e-08
-8.83806e-09
2.15586e-08
-1.36897e-08
2.07711e-08
-1.84386e-08
1.94378e-08
-2.28828e-08
1.8875e-08
-2.71488e-08
1.93625e-08
-3.14885e-08
2.06095e-08
-3.61129e-08
2.21111e-08
-4.11248e-08
2.34568e-08
-4.6526e-08
2.44468e-08
-5.22624e-08
2.50807e-08
-5.82609e-08
2.54619e-08
-6.4455e-08
2.57186e-08
-7.07895e-08
2.59524e-08
-7.72267e-08
2.62095e-08
-8.37353e-08
2.65252e-08
-9.03037e-08
2.68935e-08
-9.692e-08
2.73189e-08
-1.03589e-07
2.77812e-08
-1.10317e-07
2.82801e-08
-1.17118e-07
2.88075e-08
-1.2401e-07
2.936e-08
-1.3101e-07
2.99186e-08
-1.3813e-07
3.04795e-08
-1.45386e-07
3.10066e-08
-1.52774e-07
3.14749e-08
-1.60288e-07
3.1832e-08
-1.679e-07
3.20181e-08
-1.75567e-07
3.19677e-08
-1.83217e-07
3.15792e-08
-1.90763e-07
3.0784e-08
-1.98073e-07
2.943e-08
-2.05e-07
2.74539e-08
-2.11351e-07
2.46558e-08
-2.16891e-07
2.10515e-08
-2.21389e-07
1.6384e-08
-2.24506e-07
1.08959e-08
-2.26007e-07
4.19643e-09
-2.25561e-07
-2.3834e-09
-2.22997e-07
-1.01945e-08
-2.1832e-07
-1.3872e-08
-2.12285e-07
-1.68294e-08
-2.04789e-07
-7.42931e-09
-2.03222e-07
2.58915e-08
-2.04551e-07
6.46953e-08
-2.37129e-07
2.81211e-07
-3.36135e-07
5.12079e-07
1.54832e-06
-4.98451e-07
-3.04115e-10
3.92069e-09
-1.425e-09
1.32414e-08
-3.84779e-09
2.15793e-08
-7.66205e-09
2.5375e-08
-1.2339e-08
2.54501e-08
-1.72219e-08
2.43232e-08
-2.19096e-08
2.35651e-08
-2.63291e-08
2.37849e-08
-3.06388e-08
2.49218e-08
-3.507e-08
2.65453e-08
-3.98143e-08
2.82041e-08
-4.49775e-08
2.96132e-08
-5.05891e-08
3.06952e-08
-5.66254e-08
3.15011e-08
-6.30345e-08
3.21298e-08
-6.97484e-08
3.26692e-08
-7.66986e-08
3.31605e-08
-8.38135e-08
3.36436e-08
-9.10389e-08
3.41195e-08
-9.83245e-08
3.46076e-08
-1.05644e-07
3.51026e-08
-1.12983e-07
3.56209e-08
-1.20344e-07
3.61697e-08
-1.27739e-07
3.67569e-08
-1.35192e-07
3.73706e-08
-1.4272e-07
3.80109e-08
-1.50352e-07
3.86382e-08
-1.58096e-07
3.92217e-08
-1.6596e-07
3.96975e-08
-1.73929e-07
3.99886e-08
-1.81973e-07
4.00121e-08
-1.90031e-07
3.96393e-08
-1.98025e-07
3.87767e-08
-2.05835e-07
3.72431e-08
-2.13314e-07
3.49317e-08
-2.20285e-07
3.16303e-08
-2.26504e-07
2.7271e-08
-2.31765e-07
2.16449e-08
-2.35707e-07
1.48377e-08
-2.38133e-07
6.62036e-09
-2.38651e-07
-1.867e-09
-2.37219e-07
-1.1631e-08
-2.33575e-07
-1.75202e-08
-2.28864e-07
-2.15458e-08
-2.22559e-07
-1.37364e-08
-2.21321e-07
2.46505e-08
-2.26152e-07
6.95313e-08
-2.5269e-07
3.07754e-07
-3.48495e-07
6.07887e-07
1.67064e-06
-4.70813e-07
-3.50127e-10
4.27274e-09
-1.44781e-09
1.43409e-08
-3.61711e-09
2.37514e-08
-7.05568e-09
2.88158e-08
-1.14672e-08
2.98637e-08
-1.62938e-08
2.91524e-08
-2.10628e-08
2.83366e-08
-2.55497e-08
2.82747e-08
-2.97882e-08
2.9163e-08
-3.3967e-08
3.07272e-08
-3.83145e-08
3.25546e-08
-4.302e-08
3.4322e-08
-4.82075e-08
3.58857e-08
-5.39335e-08
3.72301e-08
-6.01995e-08
3.8398e-08
-6.69612e-08
3.94338e-08
-7.41465e-08
4.03465e-08
-8.16582e-08
4.11589e-08
-8.9403e-08
4.18648e-08
-9.72842e-08
4.2492e-08
-1.05231e-07
4.30511e-08
-1.1319e-07
4.35811e-08
-1.21132e-07
4.41135e-08
-1.29051e-07
4.4678e-08
-1.36961e-07
4.52798e-08
-1.44877e-07
4.59305e-08
-1.52835e-07
4.65951e-08
-1.6085e-07
4.72405e-08
-1.68947e-07
4.77955e-08
-1.77125e-07
4.81673e-08
-1.85368e-07
4.82562e-08
-1.93635e-07
4.79077e-08
-2.01858e-07
4.69994e-08
-2.09938e-07
4.53261e-08
-2.17735e-07
4.27281e-08
-2.25096e-07
3.89933e-08
-2.31777e-07
3.39522e-08
-2.37597e-07
2.74654e-08
-2.42198e-07
1.94386e-08
-2.45414e-07
9.83429e-09
-2.46839e-07
-4.43596e-10
-2.465e-07
-1.19752e-08
-2.44056e-07
-1.99678e-08
-2.40672e-07
-2.49355e-08
-2.36119e-07
-1.82926e-08
-2.35365e-07
2.38934e-08
-2.43439e-07
7.76106e-08
-2.663e-07
3.30618e-07
-3.51361e-07
6.92951e-07
1.76131e-06
-4.42032e-07
-3.79304e-10
4.65401e-09
-1.53099e-09
1.54945e-08
-3.65407e-09
2.58773e-08
-6.92265e-09
3.20867e-08
-1.11413e-08
3.40844e-08
-1.58604e-08
3.38741e-08
-2.06173e-08
3.3096e-08
-2.51103e-08
3.27707e-08
-2.92693e-08
3.33247e-08
-3.32115e-08
3.46725e-08
-3.71519e-08
3.64981e-08
-4.13201e-08
3.84935e-08
-4.59122e-08
4.04808e-08
-5.10672e-08
4.23881e-08
-5.68617e-08
4.41947e-08
-6.3308e-08
4.5883e-08
-7.03666e-08
4.74058e-08
-7.79467e-08
4.87426e-08
-8.59382e-08
4.98568e-08
-9.42098e-08
5.07667e-08
-1.02646e-07
5.1489e-08
-1.11145e-07
5.20821e-08
-1.19636e-07
5.26055e-08
-1.28074e-07
5.3118e-08
-1.36447e-07
5.36521e-08
-1.44755e-07
5.42412e-08
-1.53024e-07
5.48643e-08
-1.61275e-07
5.54946e-08
-1.69538e-07
5.60597e-08
-1.77827e-07
5.6457e-08
-1.86142e-07
5.65718e-08
-1.94461e-07
5.62285e-08
-2.02736e-07
5.52732e-08
-2.10889e-07
5.34829e-08
-2.188e-07
5.06381e-08
-2.2634e-07
4.65356e-08
-2.33285e-07
4.08974e-08
-2.39476e-07
3.3657e-08
-2.44587e-07
2.45493e-08
-2.48462e-07
1.37067e-08
-2.50748e-07
1.84065e-09
-2.51453e-07
-1.12752e-08
-2.50338e-07
-2.10871e-08
-2.48334e-07
-2.69454e-08
-2.45764e-07
-2.0866e-08
-2.45923e-07
2.40488e-08
-2.5629e-07
8.79823e-08
-2.7658e-07
3.50911e-07
-3.46232e-07
7.62606e-07
1.81925e-06
-4.04171e-07
-3.93762e-10
5.04977e-09
-1.61239e-09
1.6715e-08
-3.79159e-09
2.80594e-08
-7.05414e-09
3.53515e-08
-1.12145e-08
3.82469e-08
-1.58771e-08
3.85394e-08
-2.06147e-08
3.78361e-08
-2.51043e-08
3.72633e-08
-2.92122e-08
3.74354e-08
-3.29887e-08
3.84522e-08
-3.6609e-08
4.01214e-08
-4.03013e-08
4.2189e-08
-4.42959e-08
4.44784e-08
-4.87902e-08
4.68855e-08
-5.39308e-08
4.93374e-08
-5.97989e-08
5.17541e-08
-6.64129e-08
5.40205e-08
-7.37202e-08
5.60535e-08
-8.16259e-08
5.77631e-08
-8.99904e-08
5.91343e-08
-9.86711e-08
6.01713e-08
-1.07526e-07
6.09389e-08
-1.16438e-07
6.15189e-08
-1.25319e-07
6.20002e-08
-1.34115e-07
6.2448e-08
-1.42797e-07
6.29259e-08
-1.5137e-07
6.3437e-08
-1.59843e-07
6.39705e-08
-1.68244e-07
6.44622e-08
-1.76594e-07
6.4808e-08
-1.84905e-07
6.4884e-08
-1.93176e-07
6.45005e-08
-2.01377e-07
6.34732e-08
-2.09458e-07
6.15672e-08
-2.17325e-07
5.85036e-08
-2.24876e-07
5.40894e-08
-2.31925e-07
4.79466e-08
-2.38332e-07
4.00644e-08
-2.43834e-07
3.00506e-08
-2.48266e-07
1.81369e-08
-2.51385e-07
4.95688e-09
-2.53135e-07
-9.53058e-09
-2.53444e-07
-2.07824e-08
-2.5299e-07
-2.74058e-08
-2.52503e-07
-2.13563e-08
-2.54068e-07
2.56106e-08
-2.6596e-07
9.98782e-08
-2.83956e-07
3.6891e-07
-3.36393e-07
8.15045e-07
1.84297e-06
-3.60114e-07
-4.02316e-10
5.45411e-09
-1.67958e-09
1.79942e-08
-3.94695e-09
3.03297e-08
-7.29081e-09
3.86977e-08
-1.15008e-08
4.2459e-08
-1.619e-08
4.32313e-08
-2.09525e-08
4.26011e-08
-2.54666e-08
4.17804e-08
-2.95723e-08
4.15439e-08
-3.32753e-08
4.21584e-08
-3.67076e-08
4.35567e-08
-4.00725e-08
4.55573e-08
-4.3601e-08
4.80098e-08
-4.75156e-08
5.08031e-08
-5.20081e-08
5.3832e-08
-5.72174e-08
5.69664e-08
-6.32233e-08
6.00271e-08
-7.00275e-08
6.28612e-08
-7.75749e-08
6.5311e-08
-8.57456e-08
6.7308e-08
-9.43952e-08
6.88225e-08
-1.03362e-07
6.99077e-08
-1.12496e-07
7.0654e-08
-1.21668e-07
7.11732e-08
-1.30782e-07
7.15624e-08
-1.39772e-07
7.19183e-08
-1.4861e-07
7.22751e-08
-1.57284e-07
7.26467e-08
-1.65807e-07
7.29865e-08
-1.74197e-07
7.3199e-08
-1.82471e-07
7.31588e-08
-1.90641e-07
7.26716e-08
-1.98696e-07
7.15279e-08
-2.06613e-07
6.9487e-08
-2.14328e-07
6.62175e-08
-2.2177e-07
6.15333e-08
-2.28801e-07
5.49783e-08
-2.35302e-07
4.65653e-08
-2.41093e-07
3.58407e-08
-2.46003e-07
2.30439e-08
-2.49911e-07
8.86262e-09
-2.5272e-07
-6.72655e-09
-2.54494e-07
-1.90134e-08
-2.55759e-07
-2.6147e-08
-2.57402e-07
-1.97173e-08
-2.60722e-07
2.89262e-08
-2.73547e-07
1.12707e-07
-2.89028e-07
3.84393e-07
-3.23655e-07
8.49673e-07
1.83367e-06
-3.14366e-07
-4.10347e-10
5.86651e-09
-1.73922e-09
1.9325e-08
-4.0963e-09
3.26897e-08
-7.55319e-09
4.21569e-08
-1.18725e-08
4.67804e-08
-1.66523e-08
4.80138e-08
-2.14906e-08
4.74419e-08
-2.60712e-08
4.63639e-08
-3.02251e-08
4.57006e-08
-3.39353e-08
4.58718e-08
-3.73037e-08
4.69281e-08
-4.05054e-08
4.87624e-08
-4.3754e-08
5.12614e-08
-4.72708e-08
5.43229e-08
-5.12644e-08
5.78278e-08
-5.59077e-08
6.16125e-08
-6.1326e-08
6.54462e-08
-6.75722e-08
6.91107e-08
-7.46379e-08
7.23773e-08
-8.24393e-08
7.51123e-08
-9.08517e-08
7.72365e-08
-9.97162e-08
7.87736e-08
-1.08868e-07
7.98068e-08
-1.18152e-07
8.04585e-08
-1.2744e-07
8.08508e-08
-1.3663e-07
8.11104e-08
-1.4566e-07
8.13052e-08
-1.54489e-07
8.14784e-08
-1.6311e-07
8.16081e-08
-1.71526e-07
8.16166e-08
-1.79752e-07
8.13855e-08
-1.87805e-07
8.07254e-08
-1.95688e-07
7.94105e-08
-2.03399e-07
7.72001e-08
-2.10905e-07
7.37232e-08
-2.18164e-07
6.87943e-08
-2.25096e-07
6.19096e-08
-2.316e-07
5.30695e-08
-2.37588e-07
4.18283e-08
-2.42898e-07
2.83508e-08
-2.47521e-07
1.34825e-08
-2.51366e-07
-2.88676e-09
-2.54567e-07
-1.58175e-08
-2.57609e-07
-2.31117e-08
-2.61341e-07
-1.59888e-08
-2.66509e-07
3.40894e-08
-2.7976e-07
1.2596e-07
-2.92343e-07
3.96977e-07
-3.09705e-07
8.67036e-07
1.79388e-06
-2.69912e-07
-4.19357e-10
6.28793e-09
-1.79838e-09
2.07059e-08
-4.24183e-09
3.51361e-08
-7.81828e-09
4.57356e-08
-1.22707e-08
5.1235e-08
-1.71764e-08
5.29222e-08
-2.21271e-08
5.23951e-08
-2.6807e-08
5.10468e-08
-3.1046e-08
4.99425e-08
-3.48189e-08
4.96479e-08
-3.82119e-08
5.03242e-08
-4.13803e-08
5.1934e-08
-4.45182e-08
5.44023e-08
-4.78338e-08
5.76416e-08
-5.15333e-08
6.15294e-08
-5.58004e-08
6.58824e-08
-6.07846e-08
7.04312e-08
-6.65726e-08
7.49019e-08
-7.31946e-08
7.9e-08
-8.06036e-08
8.2524e-08
-8.87031e-08
8.53376e-08
-9.73509e-08
8.74229e-08
-1.06385e-07
8.88421e-08
-1.15642e-07
8.97165e-08
-1.24974e-07
9.01829e-08
-1.34253e-07
9.0392e-08
-1.4339e-07
9.04425e-08
-1.52318e-07
9.04079e-08
-1.61003e-07
9.02945e-08
-1.69434e-07
9.00486e-08
-1.77614e-07
8.95657e-08
-1.85557e-07
8.86698e-08
-1.93276e-07
8.7129e-08
-2.00781e-07
8.47068e-08
-2.08069e-07
8.10104e-08
-2.15119e-07
7.58467e-08
-2.21908e-07
6.86983e-08
-2.2836e-07
5.95208e-08
-2.34469e-07
4.79362e-08
-2.401e-07
3.39795e-08
-2.45331e-07
1.871e-08
-2.50124e-07
1.90095e-09
-2.54628e-07
-1.1319e-08
-2.59346e-07
-1.84014e-08
-2.64986e-07
-1.0353e-08
-2.71832e-07
4.09296e-08
-2.84977e-07
1.39108e-07
-2.94167e-07
4.06167e-07
-2.95563e-07
8.68433e-07
1.72739e-06
-2.29078e-07
-4.2921e-10
6.71923e-09
-1.86018e-09
2.21389e-08
-4.38928e-09
3.76681e-08
-8.08605e-09
4.94347e-08
-1.26792e-08
5.58302e-08
-1.77261e-08
5.79718e-08
-2.28086e-08
5.74801e-08
-2.76082e-08
5.58495e-08
-3.19545e-08
5.42915e-08
-3.58206e-08
5.35172e-08
-3.9288e-08
5.37947e-08
-4.25026e-08
5.5152e-08
-4.56461e-08
5.75487e-08
-4.89141e-08
6.09124e-08
-5.25032e-08
6.51207e-08
-5.65946e-08
6.99766e-08
-6.13441e-08
7.51814e-08
-6.6854e-08
8.04151e-08
-7.31779e-08
8.53244e-08
-8.02942e-08
8.96429e-08
-8.81322e-08
9.31771e-08
-9.6569e-08
9.5861e-08
-1.05454e-07
9.77278e-08
-1.14625e-07
9.88897e-08
-1.23932e-07
9.94889e-08
-1.3323e-07
9.96929e-08
-1.42414e-07
9.96264e-08
-1.51395e-07
9.93908e-08
-1.6012e-07
9.9021e-08
-1.68561e-07
9.84902e-08
-1.76708e-07
9.77128e-08
-1.84569e-07
9.65315e-08
-1.92158e-07
9.47178e-08
-1.99492e-07
9.20428e-08
-2.06591e-07
8.81089e-08
-2.13452e-07
8.27092e-08
-2.20098e-07
7.53434e-08
-2.26478e-07
6.59006e-08
-2.32654e-07
5.41112e-08
-2.38537e-07
3.98587e-08
-2.44255e-07
2.44244e-08
-2.49852e-07
7.49293e-09
-2.5546e-07
-5.71711e-09
-2.61607e-07
-1.22625e-08
-2.68821e-07
-3.14361e-09
-2.76944e-07
4.90473e-08
-2.89384e-07
1.51549e-07
-2.94661e-07
4.11443e-07
-2.81841e-07
8.55613e-07
1.63873e-06
-1.9319e-07
-4.39587e-10
7.16091e-09
-1.92346e-09
2.36247e-08
-4.54166e-09
4.02892e-08
-8.36037e-09
5.32557e-08
-1.30976e-08
6.05695e-08
-1.82922e-08
6.3169e-08
-2.35157e-08
6.27061e-08
-2.84458e-08
6.07826e-08
-3.29108e-08
5.87593e-08
-3.68847e-08
5.74943e-08
-4.04497e-08
5.73626e-08
-4.37499e-08
5.84555e-08
-4.69627e-08
6.07645e-08
-5.02771e-08
6.42297e-08
-5.38822e-08
6.87278e-08
-5.79531e-08
7.40502e-08
-6.26435e-08
7.98725e-08
-6.80588e-08
8.58334e-08
-7.42602e-08
9.15263e-08
-8.12406e-08
9.66258e-08
-8.8942e-08
1.0088e-07
-9.72576e-08
1.04178e-07
-1.06051e-07
1.06522e-07
-1.15165e-07
1.08006e-07
-1.24449e-07
1.08773e-07
-1.33758e-07
1.09004e-07
-1.42974e-07
1.08843e-07
-1.51997e-07
1.08416e-07
-1.60762e-07
1.07787e-07
-1.69226e-07
1.06955e-07
-1.77369e-07
1.05856e-07
-1.85191e-07
1.04354e-07
-1.92706e-07
1.02232e-07
-1.9993e-07
9.92692e-08
-2.06901e-07
9.50792e-08
-2.13627e-07
8.94366e-08
-2.20166e-07
8.18816e-08
-2.26493e-07
7.22269e-08
-2.32716e-07
6.0332e-08
-2.38795e-07
4.5935e-08
-2.44887e-07
3.05121e-08
-2.51119e-07
1.37189e-08
-2.57588e-07
7.46017e-10
-2.64822e-07
-5.03609e-09
-2.73165e-07
5.19387e-09
-2.82005e-07
5.78809e-08
-2.93095e-07
1.62639e-07
-2.9399e-07
4.12336e-07
-2.6883e-07
8.30452e-07
1.53256e-06
-1.62665e-07
-4.50375e-10
7.61337e-09
-1.98852e-09
2.51647e-08
-4.69985e-09
4.30033e-08
-8.6435e-09
5.72017e-08
-1.35282e-08
6.54563e-08
-1.8875e-08
6.85184e-08
-2.42445e-08
6.80781e-08
-2.93107e-08
6.58518e-08
-3.39006e-08
6.33519e-08
-3.79893e-08
6.15862e-08
-4.16612e-08
6.10375e-08
-4.50634e-08
6.18609e-08
-4.83741e-08
6.40782e-08
-5.17817e-08
6.76401e-08
-5.54731e-08
7.24212e-08
-5.96195e-08
7.81993e-08
-6.43711e-08
8.46247e-08
-6.98308e-08
9.12959e-08
-7.60601e-08
9.77561e-08
-8.30543e-08
1.03622e-07
-9.07626e-08
1.0859e-07
-9.90839e-08
1.125e-07
-1.07886e-07
1.15325e-07
-1.17021e-07
1.17142e-07
-1.26341e-07
1.18092e-07
-1.35698e-07
1.18362e-07
-1.44974e-07
1.18118e-07
-1.54065e-07
1.17509e-07
-1.62898e-07
1.1662e-07
-1.7142e-07
1.15478e-07
-1.79605e-07
1.14041e-07
-1.87445e-07
1.12195e-07
-1.94953e-07
1.09739e-07
-2.02145e-07
1.06463e-07
-2.09068e-07
1.02001e-07
-2.15737e-07
9.61068e-08
-2.22233e-07
8.83771e-08
-2.28555e-07
7.85476e-08
-2.34834e-07
6.66097e-08
-2.41084e-07
5.21809e-08
-2.4746e-07
3.68846e-08
-2.54163e-07
2.04146e-08
-2.61248e-07
7.8251e-09
-2.69199e-07
2.90675e-09
-2.7818e-07
1.41681e-08
-2.87107e-07
6.68009e-08
-2.96222e-07
1.71754e-07
-2.92355e-07
4.08466e-07
-2.56617e-07
7.94713e-07
1.4132e-06
-1.37262e-07
-4.61589e-10
8.07705e-09
-2.05564e-09
2.67607e-08
-4.86395e-09
4.58145e-08
-8.93621e-09
6.12762e-08
-1.39725e-08
7.04946e-08
-1.94758e-08
7.40243e-08
-2.49954e-08
7.36001e-08
-3.02017e-08
7.10609e-08
-3.49205e-08
6.80734e-08
-3.91278e-08
6.57966e-08
-4.29113e-08
6.48239e-08
-4.64218e-08
6.53745e-08
-4.98418e-08
6.75009e-08
-5.33625e-08
7.11636e-08
-5.71728e-08
7.62334e-08
-6.14442e-08
8.24732e-08
-6.63249e-08
8.9506e-08
-7.19154e-08
9.68891e-08
-7.8274e-08
1.04115e-07
-8.5394e-08
1.10744e-07
-9.32229e-08
1.1642e-07
-1.01661e-07
1.20939e-07
-1.10577e-07
1.24243e-07
-1.19826e-07
1.26391e-07
-1.29259e-07
1.27525e-07
-1.38733e-07
1.27839e-07
-1.48128e-07
1.27513e-07
-1.57336e-07
1.26719e-07
-1.66282e-07
1.25566e-07
-1.7491e-07
1.24107e-07
-1.8319e-07
1.22321e-07
-1.91111e-07
1.20116e-07
-1.98684e-07
1.17311e-07
-2.05924e-07
1.13704e-07
-2.12882e-07
1.08958e-07
-2.19581e-07
1.02806e-07
-2.26113e-07
9.49074e-08
-2.32494e-07
8.4928e-08
-2.38866e-07
7.29798e-08
-2.45285e-07
5.85952e-08
-2.51891e-07
4.34866e-08
-2.58929e-07
2.74459e-08
-2.66417e-07
1.53054e-08
-2.74741e-07
1.12222e-08
-2.83889e-07
2.33095e-08
-2.923e-07
7.5204e-08
-2.98897e-07
1.7835e-07
-2.90007e-07
3.99573e-07
-2.45226e-07
7.49931e-07
1.28438e-06
-1.16414e-07
-4.7328e-10
8.55241e-09
-2.12479e-09
2.84141e-08
-5.03399e-09
4.87264e-08
-9.23873e-09
6.54832e-08
-1.44309e-08
7.56887e-08
-2.00956e-08
7.96916e-08
-2.57694e-08
7.92764e-08
-3.11193e-08
7.64137e-08
-3.59703e-08
7.29271e-08
-4.02995e-08
7.01288e-08
-4.41976e-08
6.87248e-08
-4.782e-08
6.9e-08
-5.13542e-08
7.10377e-08
-5.49963e-08
7.48084e-08
-5.89396e-08
8.01784e-08
-6.33583e-08
8.68942e-08
-6.84016e-08
9.45497e-08
-7.41687e-08
1.02659e-07
-8.07146e-08
1.10661e-07
-8.80291e-08
1.18061e-07
-9.60555e-08
1.24447e-07
-1.04691e-07
1.29575e-07
-1.13802e-07
1.33355e-07
-1.23241e-07
1.35831e-07
-1.32861e-07
1.37144e-07
-1.42516e-07
1.37496e-07
-1.52087e-07
1.37084e-07
-1.61467e-07
1.361e-07
-1.70578e-07
1.34678e-07
-1.79365e-07
1.32894e-07
-1.87795e-07
1.30751e-07
-1.95856e-07
1.28177e-07
-2.0356e-07
1.25013e-07
-2.10921e-07
1.21066e-07
-2.17993e-07
1.16029e-07
-2.24803e-07
1.09617e-07
-2.31446e-07
1.0155e-07
-2.37958e-07
9.14376e-08
-2.44472e-07
7.94912e-08
-2.51076e-07
6.51957e-08
-2.57889e-07
5.02946e-08
-2.65169e-07
3.47192e-08
-2.72893e-07
2.30215e-08
-2.81311e-07
1.96304e-08
-2.90229e-07
3.22203e-08
-2.97616e-07
8.25833e-08
-3.01279e-07
1.8201e-07
-2.87251e-07
3.85541e-07
-2.34741e-07
6.97417e-07
1.14913e-06
-9.94962e-08
-4.85505e-10
9.03997e-09
-2.19601e-09
3.01264e-08
-5.21002e-09
5.17431e-08
-9.55121e-09
6.98265e-08
-1.49035e-08
8.1043e-08
-2.07346e-08
8.55251e-08
-2.65672e-08
8.51113e-08
-3.20644e-08
8.19137e-08
-3.70509e-08
7.7916e-08
-4.15048e-08
7.45858e-08
-4.55205e-08
7.27432e-08
-4.92578e-08
7.27403e-08
-5.29095e-08
7.4692e-08
-5.66777e-08
7.85791e-08
-6.07607e-08
8.42632e-08
-6.53375e-08
9.14732e-08
-7.05593e-08
9.97719e-08
-7.65255e-08
1.08627e-07
-8.32888e-08
1.17425e-07
-9.08353e-08
1.25609e-07
-9.91034e-08
1.32716e-07
-1.07985e-07
1.38458e-07
-1.17344e-07
1.42714e-07
-1.27027e-07
1.45516e-07
-1.36886e-07
1.47002e-07
-1.46774e-07
1.47385e-07
-1.5657e-07
1.4688e-07
-1.66167e-07
1.45698e-07
-1.75489e-07
1.44e-07
-1.84479e-07
1.41884e-07
-1.93105e-07
1.39377e-07
-2.01356e-07
1.36427e-07
-2.09244e-07
1.329e-07
-2.16785e-07
1.28607e-07
-2.24034e-07
1.23276e-07
-2.31022e-07
1.16605e-07
-2.37844e-07
1.0837e-07
-2.44546e-07
9.81383e-08
-2.51252e-07
8.61938e-08
-2.5807e-07
7.20092e-08
-2.65087e-07
5.73066e-08
-2.72552e-07
4.21767e-08
-2.80397e-07
3.08587e-08
-2.88705e-07
2.79281e-08
-2.97092e-07
4.05994e-08
-3.03084e-07
8.85659e-08
-3.03553e-07
1.82476e-07
-2.84449e-07
3.66432e-07
-2.25351e-07
6.38316e-07
1.00984e-06
-8.60685e-08
-4.98316e-10
9.54032e-09
-2.26935e-09
3.18993e-08
-5.39213e-09
5.48685e-08
-9.87384e-09
7.43103e-08
-1.53906e-08
8.65615e-08
-2.13932e-08
9.15302e-08
-2.73893e-08
9.11096e-08
-3.30376e-08
8.75647e-08
-3.81628e-08
8.30437e-08
-4.27447e-08
7.91706e-08
-4.68808e-08
7.68819e-08
-5.07359e-08
7.65983e-08
-5.45085e-08
7.84671e-08
-5.84066e-08
8.24795e-08
-6.26344e-08
8.84927e-08
-6.7376e-08
9.62166e-08
-7.27853e-08
1.05182e-07
-7.8963e-08
1.14807e-07
-8.59599e-08
1.24422e-07
-9.37586e-08
1.33409e-07
-1.02293e-07
1.41251e-07
-1.11449e-07
1.47614e-07
-1.21086e-07
1.52351e-07
-1.31047e-07
1.55477e-07
-1.41179e-07
1.57134e-07
-1.51333e-07
1.5754e-07
-1.61388e-07
1.56934e-07
-1.71236e-07
1.55547e-07
-1.808e-07
1.53564e-07
-1.90026e-07
1.51109e-07
-1.98883e-07
1.48233e-07
-2.0736e-07
1.44904e-07
-2.15472e-07
1.4101e-07
-2.23235e-07
1.36371e-07
-2.30708e-07
1.30747e-07
-2.37925e-07
1.23822e-07
-2.44976e-07
1.15419e-07
-2.51919e-07
1.05079e-07
-2.5886e-07
9.31313e-08
-2.65919e-07
7.90638e-08
-2.73152e-07
6.45334e-08
-2.80773e-07
4.97903e-08
-2.88669e-07
3.87457e-08
-2.96734e-07
3.5983e-08
-3.04385e-07
4.82417e-08
-3.08746e-07
9.29169e-08
-3.05925e-07
1.79651e-07
-2.81982e-07
3.42484e-07
-2.17355e-07
5.73685e-07
8.68485e-07
-7.60061e-08
-5.11771e-10
1.00541e-08
-2.34485e-09
3.37341e-08
-5.58038e-09
5.81066e-08
-1.02068e-08
7.89387e-08
-1.58922e-08
9.22487e-08
-2.20716e-08
9.77118e-08
-2.82359e-08
9.7276e-08
-3.40394e-08
9.33708e-08
-3.93068e-08
8.83135e-08
-4.40197e-08
8.38863e-08
-4.82793e-08
8.11439e-08
-5.22553e-08
8.0577e-08
-5.61521e-08
8.23662e-08
-6.01841e-08
8.65135e-08
-6.45615e-08
9.28715e-08
-6.94736e-08
1.0113e-07
-7.50777e-08
1.10786e-07
-8.14757e-08
1.21206e-07
-8.87167e-08
1.31663e-07
-9.67803e-08
1.41474e-07
-1.05595e-07
1.50067e-07
-1.15043e-07
1.57062e-07
-1.24976e-07
1.62284e-07
-1.35234e-07
1.65735e-07
-1.45659e-07
1.67558e-07
-1.56102e-07
1.67984e-07
-1.66437e-07
1.67268e-07
-1.76557e-07
1.65668e-07
-1.86387e-07
1.63393e-07
-1.95871e-07
1.60593e-07
-2.04982e-07
1.57343e-07
-2.13709e-07
1.53631e-07
-2.22072e-07
1.4937e-07
-2.30088e-07
1.44388e-07
-2.37816e-07
1.38473e-07
-2.45297e-07
1.31302e-07
-2.52614e-07
1.22734e-07
-2.59834e-07
1.12297e-07
-2.67045e-07
1.00338e-07
-2.7437e-07
8.63835e-08
-2.81833e-07
7.19899e-08
-2.896e-07
5.75493e-08
-2.97506e-07
4.66423e-08
-3.05253e-07
4.37195e-08
-3.12047e-07
5.5026e-08
-3.14665e-07
9.55247e-08
-3.08603e-07
1.73583e-07
-2.80218e-07
3.14093e-07
-2.11106e-07
5.04569e-07
7.26738e-07
-6.9367e-08
-5.25924e-10
1.05819e-08
-2.42255e-09
3.56323e-08
-5.77481e-09
6.14612e-08
-1.05502e-08
8.3716e-08
-1.64086e-08
9.81087e-08
-2.27699e-08
1.04075e-07
-2.91075e-08
1.03616e-07
-3.50703e-08
9.9336e-08
-4.04836e-08
9.37289e-08
-4.53307e-08
8.8736e-08
-4.97168e-08
8.55322e-08
-5.38169e-08
8.46797e-08
-5.78414e-08
8.63928e-08
-6.20113e-08
9.06853e-08
-6.6543e-08
9.74045e-08
-7.16314e-08
1.0622e-07
-7.74371e-08
1.16591e-07
-8.40633e-08
1.27834e-07
-9.15574e-08
1.39156e-07
-9.98959e-08
1.49813e-07
-1.09002e-07
1.59173e-07
-1.18753e-07
1.66813e-07
-1.28995e-07
1.72526e-07
-1.39563e-07
1.76304e-07
-1.50296e-07
1.7829e-07
-1.6104e-07
1.78729e-07
-1.7167e-07
1.77897e-07
-1.82077e-07
1.76075e-07
-1.92186e-07
1.73501e-07
-2.01944e-07
1.7035e-07
-2.11324e-07
1.66722e-07
-2.2032e-07
1.62626e-07
-2.28951e-07
1.57999e-07
-2.3724e-07
1.52677e-07
-2.45246e-07
1.46477e-07
-2.53015e-07
1.39069e-07
-2.60625e-07
1.3034e-07
-2.68148e-07
1.19817e-07
-2.75655e-07
1.07842e-07
-2.83265e-07
9.39883e-08
-2.90973e-07
7.96914e-08
-2.98886e-07
6.54535e-08
-3.06782e-07
5.45285e-08
-3.14176e-07
5.11024e-08
-3.20057e-07
6.08972e-08
-3.20922e-07
9.63792e-08
-3.11797e-07
1.64452e-07
-2.79501e-07
2.81791e-07
-2.06974e-07
4.32037e-07
5.86106e-07
-6.6349e-08
-5.40832e-10
1.11246e-08
-2.50249e-09
3.75955e-08
-5.97542e-09
6.49364e-08
-1.09042e-08
8.86465e-08
-1.694e-08
1.04146e-07
-2.34883e-08
1.10626e-07
-3.00044e-08
1.10134e-07
-3.61309e-08
1.05465e-07
-4.16937e-08
9.92937e-08
-4.66785e-08
9.37233e-08
-5.11943e-08
9.00501e-08
-5.54217e-08
8.89094e-08
-5.95775e-08
9.05505e-08
-6.38893e-08
9.49987e-08
-6.85803e-08
1.02097e-07
-7.38507e-08
1.11492e-07
-7.98648e-08
1.22605e-07
-8.67269e-08
1.34697e-07
-9.44827e-08
1.46912e-07
-1.03105e-07
1.58436e-07
-1.12513e-07
1.68581e-07
-1.22577e-07
1.76876e-07
-1.33139e-07
1.83087e-07
-1.44027e-07
1.87192e-07
-1.55078e-07
1.89339e-07
-1.66134e-07
1.89785e-07
-1.77069e-07
1.8883e-07
-1.87774e-07
1.8678e-07
-1.98173e-07
1.839e-07
-2.08216e-07
1.80392e-07
-2.17877e-07
1.76382e-07
-2.27153e-07
1.71902e-07
-2.36067e-07
1.66909e-07
-2.44645e-07
1.61255e-07
-2.52945e-07
1.54774e-07
-2.6102e-07
1.47142e-07
-2.68942e-07
1.38259e-07
-2.76787e-07
1.2766e-07
-2.84613e-07
1.15662e-07
-2.92524e-07
1.01895e-07
-3.00493e-07
8.76525e-08
-3.08558e-07
7.35091e-08
-3.16437e-07
6.2398e-08
-3.23472e-07
5.81252e-08
-3.28437e-07
6.58513e-08
-3.27617e-07
9.55489e-08
-3.15705e-07
1.52532e-07
-2.80135e-07
2.46213e-07
-2.05292e-07
3.57189e-07
4.48014e-07
-6.72065e-08
-5.56549e-10
1.1683e-08
-2.58471e-09
3.9625e-08
-6.18218e-09
6.85359e-08
-1.12689e-08
9.37349e-08
-1.74866e-08
1.10365e-07
-2.42271e-08
1.17368e-07
-3.09269e-08
1.16835e-07
-3.72217e-08
1.11762e-07
-4.29378e-08
1.05012e-07
-4.80638e-08
9.88515e-08
-5.27127e-08
9.47007e-08
-5.70707e-08
9.32695e-08
-6.13613e-08
9.48427e-08
-6.58193e-08
9.9458e-08
-7.06744e-08
1.06952e-07
-7.61327e-08
1.16951e-07
-8.23619e-08
1.28834e-07
-8.94676e-08
1.41803e-07
-9.74936e-08
1.54937e-07
-1.0641e-07
1.67352e-07
-1.16129e-07
1.783e-07
-1.26515e-07
1.87262e-07
-1.37406e-07
1.93977e-07
-1.48625e-07
1.98411e-07
-1.60003e-07
2.00716e-07
-1.71381e-07
2.01163e-07
-1.8263e-07
2.00077e-07
-1.93642e-07
1.97791e-07
-2.04341e-07
1.94597e-07
-2.14678e-07
1.90727e-07
-2.24631e-07
1.86333e-07