/*--------------------------------*- C++ -*----------------------------------*\
  =========                 |
  \\      /  F ield         | OpenFOAM: The Open Source CFD Toolbox
   \\    /   O peration     | Website:  https://openfoam.org
    \\  /    A nd           | Version:  7
     \\/     M anipulation  |
\*---------------------------------------------------------------------------*/
FoamFile
{
    version     2.0;
    format      ascii;
    class       volScalarField;
    location    "0.26";
    object      nut;
}
// * * * * * * * * * * * * * * * * * * * * * * * * * * * * * * * * * * * * * //

dimensions      [0 2 -1 0 0 0 0];

internalField   nonuniform List<scalar> 
70000
(
9.96293e-12
6.88112e-14
2.56285e-16
8.61492e-17
4.79365e-17
7.88005e-17
2.77007e-17
1.29577e-17
8.78659e-18
6.41347e-18
4.69955e-18
3.50379e-18
2.67323e-18
2.08226e-18
1.6506e-18
1.32816e-18
1.08277e-18
8.929e-19
7.43874e-19
6.25363e-19
5.30026e-19
4.52529e-19
3.88915e-19
3.36275e-19
2.92276e-19
2.55393e-19
2.23966e-19
1.97467e-19
1.74279e-19
1.54899e-19
1.3712e-19
1.22833e-19
1.08552e-19
9.79389e-20
8.6093e-20
7.74182e-20
6.87785e-20
5.77725e-20
5.83223e-20
3.36874e-20
6.4598e-20
5.75235e-21
1.48875e-19
7.98849e-21
1.01523e-18
1.96745e-18
1.62303e-17
7.82295e-17
6.46247e-15
3.6808e-13
1.04279e-10
5.9871e-12
6.44402e-14
2.14341e-14
2.89242e-16
1.70083e-17
2.52786e-17
2.12315e-17
1.23435e-17
7.35088e-18
4.82098e-18
3.36297e-18
2.43597e-18
1.8155e-18
1.38585e-18
1.07993e-18
8.56634e-19
6.90095e-19
5.6343e-19
4.65476e-19
3.88574e-19
3.27383e-19
2.78134e-19
2.38022e-19
2.0513e-19
1.77733e-19
1.55035e-19
1.35592e-19
1.19569e-19
1.05184e-19
9.3784e-20
8.2586e-20
7.45469e-20
6.54106e-20
5.95933e-20
5.26032e-20
4.64856e-20
4.52246e-20
3.12492e-20
5.07144e-20
1.03825e-20
1.16209e-19
1.95486e-21
7.63408e-19
7.30479e-19
1.09313e-17
3.36271e-17
2.65051e-16
2.66593e-14
4.20901e-14
3.19201e-10
3.39731e-12
1.90864e-13
1.99058e-14
7.68271e-16
5.87493e-17
7.41558e-18
4.26458e-18
2.18456e-18
1.09384e-18
6.11717e-19
3.77752e-19
2.47947e-19
1.69537e-19
1.19768e-19
8.70561e-20
6.48873e-20
4.94558e-20
3.84378e-20
3.03985e-20
2.44144e-20
1.98797e-20
1.63934e-20
1.36693e-20
1.15281e-20
9.80201e-21
8.43995e-21
7.28997e-21
6.41441e-21
5.60291e-21
5.06381e-21
4.44892e-21
4.1699e-21
3.68971e-21
3.59553e-21
3.36421e-21
3.18871e-21
3.95825e-21
2.7329e-21
8.36053e-21
3.71594e-21
4.64334e-20
6.35939e-20
6.46245e-19
2.1554e-18
1.33652e-17
6.01513e-17
3.56363e-16
3.19695e-14
8.74891e-14
6.15377e-09
1.9273e-11
7.83944e-13
6.1089e-14
5.49613e-15
9.32437e-16
1.1175e-16
3.00895e-17
1.27002e-17
5.70443e-18
2.7076e-18
1.41505e-18
8.0708e-19
4.90534e-19
3.12776e-19
2.0751e-19
1.42514e-19
1.00914e-19
7.34238e-20
5.47305e-20
4.1693e-20
3.23947e-20
2.56346e-20
2.06357e-20
1.68862e-20
1.40417e-20
1.18634e-20
1.0189e-20
8.89534e-21
7.91449e-21
7.16346e-21
6.65702e-21
6.288e-21
6.2139e-21
6.18748e-21
6.73499e-21
7.17322e-21
9.13115e-21
1.07632e-20
1.76855e-20
2.74723e-20
6.87391e-20
2.00046e-19
7.2206e-19
3.43433e-18
1.28352e-17
7.37901e-17
2.48862e-16
2.60053e-14
1.29371e-13
2.32287e-09
2.23323e-10
4.45446e-12
3.21769e-13
2.30692e-14
4.42337e-15
7.29002e-16
2.06455e-16
8.51598e-17
3.82558e-17
1.81615e-17
9.38484e-18
5.2623e-18
3.14413e-18
1.97409e-18
1.29189e-18
8.7646e-19
6.13809e-19
4.42144e-19
3.26569e-19
2.46685e-19
1.90175e-19
1.49386e-19
1.19419e-19
9.70623e-20
8.01798e-20
6.72837e-20
5.73897e-20
4.97175e-20
4.38716e-20
3.93088e-20
3.61152e-20
3.36149e-20
3.26429e-20
3.17964e-20
3.36701e-20
3.47176e-20
4.23998e-20
4.72622e-20
7.24055e-20
9.58896e-20
2.04784e-19
4.35843e-19
1.25759e-18
5.14431e-18
1.38451e-17
8.98441e-17
1.30044e-16
2.07918e-14
1.10095e-13
3.01256e-09
5.28691e-09
4.359e-11
1.94558e-12
1.08166e-13
1.80742e-14
3.27393e-15
9.6139e-16
3.94774e-16
1.78206e-16
8.51328e-17
4.39527e-17
2.4482e-17
1.44947e-17
9.01108e-18
5.83812e-18
3.92166e-18
2.72006e-18
1.94116e-18
1.421e-18
1.06428e-18
8.13826e-19
6.34322e-19
5.03296e-19
4.06135e-19
3.33128e-19
2.77612e-19
2.35104e-19
2.0222e-19
1.77018e-19
1.57327e-19
1.43058e-19
1.31801e-19
1.2608e-19
1.21086e-19
1.25346e-19
1.2649e-19
1.49634e-19
1.60544e-19
2.3574e-19
2.8477e-19
5.62827e-19
9.7515e-19
2.41429e-18
8.25967e-18
1.62534e-17
1.15562e-16
6.03653e-17
1.68786e-14
8.69919e-14
1.07681e-09
4.76501e-09
3.72038e-09
1.85101e-11
6.71922e-13
9.20462e-14
1.53103e-14
4.19794e-15
1.63304e-15
7.17708e-16
3.38336e-16
1.72831e-16
9.52551e-17
5.58097e-17
3.43435e-17
2.20293e-17
1.46532e-17
1.00658e-17
7.11572e-18
5.16093e-18
3.83061e-18
2.90351e-18
2.24383e-18
1.76561e-18
1.41328e-18
1.15006e-18
9.50962e-19
7.99091e-19
6.81993e-19
5.92147e-19
5.21963e-19
4.7015e-19
4.29089e-19
4.05346e-19
3.84809e-19
3.90944e-19
3.88795e-19
4.46401e-19
4.70251e-19
6.57606e-19
7.68911e-19
1.39341e-18
2.20427e-18
4.69109e-18
1.41474e-17
2.12339e-17
1.6288e-16
4.5449e-17
1.39034e-14
6.63545e-14
2.42796e-09
3.86938e-09
8.22345e-10
2.42216e-09
8.62263e-12
7.15843e-13
9.12628e-14
2.09466e-14
7.24186e-15
2.94962e-15
1.32048e-15
6.49332e-16
3.475e-16
1.9889e-16
1.20059e-16
7.57598e-17
4.96731e-17
3.36821e-17
2.35274e-17
1.68742e-17
1.23925e-17
9.2986e-18
7.11634e-18
5.54721e-18
4.39992e-18
3.54872e-18
2.90894e-18
2.42337e-18
2.05077e-18
1.76516e-18
1.54268e-18
1.37645e-18
1.24491e-18
1.16242e-18
1.09255e-18
1.09173e-18
1.07392e-18
1.20069e-18
1.25168e-18
1.67308e-18
1.93326e-18
3.23816e-18
4.91691e-18
9.21164e-18
2.54442e-17
3.21346e-17
2.48341e-16
8.67109e-17
1.17313e-14
5.0121e-14
3.36954e-09
4.36997e-09
5.90826e-10
2.99801e-10
5.48552e-10
1.86252e-11
9.6581e-13
1.47537e-13
4.0575e-14
1.42828e-14
5.76725e-15
2.62511e-15
1.32396e-15
7.23399e-16
4.20774e-16
2.57592e-16
1.64676e-16
1.09281e-16
7.49156e-17
5.2844e-17
3.82308e-17
2.82944e-17
2.13793e-17
1.64666e-17
1.29135e-17
1.03027e-17
8.35777e-18
6.89245e-18
5.77586e-18
4.92304e-18
4.26215e-18
3.76494e-18
3.37345e-18
3.11424e-18
2.89955e-18
2.85399e-18
2.78168e-18
3.03817e-18
3.14485e-18
4.04056e-18
4.64985e-18
7.28231e-18
1.08439e-17
1.84218e-17
4.76342e-17
5.65671e-17
4.01796e-16
2.31752e-16
1.03022e-14
3.83374e-14
3.41108e-09
4.60706e-09
6.72272e-10
1.93365e-10
4.7081e-11
6.72201e-11
3.13692e-10
2.86506e-12
4.0024e-13
1.00932e-13
3.30951e-14
1.30245e-14
5.89998e-15
2.96925e-15
1.61871e-15
9.40477e-16
5.75944e-16
3.68715e-16
2.45169e-16
1.68442e-16
1.19083e-16
8.63432e-17
6.40462e-17
4.85039e-17
3.74507e-17
2.94492e-17
2.3567e-17
1.91859e-17
1.58823e-17
1.33776e-17
1.14523e-17
1.00017e-17
8.86781e-18
8.08975e-18
7.45775e-18
7.23611e-18
6.99069e-18
7.478e-18
7.69554e-18
9.55361e-18
1.09808e-17
1.62533e-17
2.39552e-17
3.78984e-17
9.28193e-17
1.12008e-16
6.81757e-16
5.84612e-16
9.63828e-15
2.87713e-14
3.21193e-09
4.39065e-09
7.73325e-10
2.01911e-10
3.65213e-11
2.18095e-11
1.34915e-11
2.11584e-11
1.6128e-10
2.34059e-12
3.74867e-13
1.02505e-13
3.69649e-14
1.58737e-14
7.69236e-15
4.07951e-15
2.32267e-15
1.40097e-15
8.86464e-16
5.83992e-16
3.98225e-16
2.79798e-16
2.01859e-16
1.49125e-16
1.12589e-16
8.67409e-17
6.81213e-17
5.44972e-17
4.43857e-17
3.68164e-17
3.10689e-17
2.67582e-17
2.34224e-17
2.10829e-17
1.92149e-17
1.83743e-17
1.7582e-17
1.84488e-17
1.88745e-17
2.27336e-17
2.61162e-17
3.68574e-17
5.39719e-17
8.11564e-17
1.8944e-16
2.40176e-16
1.2136e-15
1.34832e-15
1.00481e-14
2.27133e-14
3.01755e-09
3.97212e-09
8.45881e-10
2.12759e-10
3.87902e-11
2.01258e-11
8.6576e-12
4.65299e-12
4.27621e-12
7.00927e-12
8.21794e-11
5.39659e-12
6.16786e-13
1.60928e-13
5.82296e-14
2.53737e-14
1.25221e-14
6.76942e-15
3.92645e-15
2.40939e-15
1.54847e-15
1.03459e-15
7.14679e-16
5.08298e-16
3.71071e-16
2.77402e-16
2.12013e-16
1.65462e-16
1.3174e-16
1.07009e-16
8.85751e-17
7.4912e-17
6.44904e-17
5.71063e-17
5.13102e-17
4.82804e-17
4.56734e-17
4.7018e-17
4.77721e-17
5.59663e-17
6.42248e-17
8.70023e-17
1.26685e-16
1.83679e-16
4.09678e-16
5.484e-16
2.29029e-15
2.99212e-15
1.2156e-14
2.10694e-14
2.84618e-09
3.512e-09
9.07449e-10
2.1016e-10
4.23046e-11
2.16643e-11
9.07992e-12
3.96307e-12
2.517e-12
1.97299e-12
1.8108e-12
2.16052e-12
4.4762e-12
8.76795e-11
3.20408e-12
4.71396e-13
1.41086e-13
5.64996e-14
2.67209e-14
1.41172e-14
8.08349e-15
4.92419e-15
3.15251e-15
2.10319e-15
1.45348e-15
1.03598e-15
7.59203e-16
5.70762e-16
4.39434e-16
3.46261e-16
2.78816e-16
2.29918e-16
1.93435e-16
1.67617e-16
1.47766e-16
1.36326e-16
1.27061e-16
1.28102e-16
1.28957e-16
1.47036e-16
1.68237e-16
2.19738e-16
3.17742e-16
4.48407e-16
9.55534e-16
1.34005e-15
4.66898e-15
6.72738e-15
1.75768e-14
2.44551e-14
2.67619e-09
3.05631e-09
9.76355e-10
1.98985e-10
4.54811e-11
2.31363e-11
1.03418e-11
4.27469e-12
2.4614e-12
1.66664e-12
1.19751e-12
9.30995e-13
8.13396e-13
8.22443e-13
1.01578e-12
1.77659e-12
8.08159e-12
1.57237e-11
9.1953e-13
2.33529e-13
8.93738e-14
4.19007e-14
2.22567e-14
1.28912e-14
7.96759e-15
5.18468e-15
3.52104e-15
2.48085e-15
1.80575e-15
1.35461e-15
1.04433e-15
8.28392e-16
6.73208e-16
5.65215e-16
4.84652e-16
4.35253e-16
3.97133e-16
3.90256e-16
3.87404e-16
4.29033e-16
4.87475e-16
6.15088e-16
8.79838e-16
1.21477e-15
2.46711e-15
3.58028e-15
1.05623e-14
1.60902e-14
3.10357e-14
3.75221e-14
2.49776e-09
2.62127e-09
1.0561e-09
1.84879e-10
4.88031e-11
2.40493e-11
1.17499e-11
4.8012e-12
2.68444e-12
1.75801e-12
1.19008e-12
8.34983e-13
6.23864e-13
4.99412e-13
4.2842e-13
3.96179e-13
4.00502e-13
4.54146e-13
6.07823e-13
1.0841e-12
3.93418e-12
4.39335e-11
1.25087e-12
2.94879e-13
1.13076e-13
5.41994e-14
2.96538e-14
1.77571e-14
1.13735e-14
7.69122e-15
5.43953e-15
4.01085e-15
3.0617e-15
2.43377e-15
1.99093e-15
1.71255e-15
1.50864e-15
1.42877e-15
1.3843e-15
1.47872e-15
1.65418e-15
2.01218e-15
2.82476e-15
3.81749e-15
7.34916e-15
1.08799e-14
2.76065e-14
4.31594e-14
6.83284e-14
7.77058e-14
2.31144e-09
2.22086e-09
1.14135e-09
1.70467e-10
5.27383e-11
2.45365e-11
1.32066e-11
5.39581e-12
2.97555e-12
1.94493e-12
1.3072e-12
8.93993e-13
6.38664e-13
4.78799e-13
3.74756e-13
3.05499e-13
2.59599e-13
2.30464e-13
2.14452e-13
2.1022e-13
2.18884e-13
2.4548e-13
3.03977e-13
4.36114e-13
8.09654e-13
2.78121e-12
2.09786e-11
1.5427e-12
3.55531e-13
1.40558e-13
7.05451e-14
4.08324e-14
2.59955e-14
1.79232e-14
1.30836e-14
1.02307e-14
8.34472e-15
7.36531e-15
6.76961e-15
6.82571e-15
7.35966e-15
8.52298e-15
1.15431e-14
1.51443e-14
2.73254e-14
4.05207e-14
8.95253e-14
1.40085e-13
1.95916e-13
2.20718e-13
2.11955e-09
1.86135e-09
1.22479e-09
1.56789e-10
5.733e-11
2.47261e-11
1.47379e-11
6.05747e-12
3.29604e-12
2.16298e-12
1.46537e-12
1.00076e-12
7.07536e-13
5.2097e-13
3.96876e-13
3.11343e-13
2.51167e-13
2.08288e-13
1.77498e-13
1.55396e-13
1.39783e-13
1.29279e-13
1.23122e-13
1.21059e-13
1.23389e-13
1.31162e-13
1.46734e-13
1.75226e-13
2.28494e-13
3.39371e-13
6.26124e-13
1.84019e-12
2.99349e-11
3.54343e-12
6.77692e-13
2.75609e-13
1.50098e-13
9.9746e-14
7.4748e-14
6.37946e-14
6.07997e-14
6.29814e-14
7.78489e-14
9.52509e-14
1.55682e-13
2.2291e-13
4.2757e-13
6.48042e-13
8.31028e-13
9.40835e-13
1.92372e-09
1.54316e-09
1.29984e-09
1.44612e-10
6.23327e-11
2.46863e-11
1.63464e-11
6.81181e-12
3.65003e-12
2.40234e-12
1.6461e-12
1.13035e-12
7.9916e-13
5.86875e-13
4.44597e-13
3.45374e-13
2.74449e-13
2.22823e-13
1.84607e-13
1.55871e-13
1.33974e-13
1.17127e-13
1.04113e-13
9.40961e-14
8.65114e-14
8.09911e-14
7.73116e-14
7.54022e-14
7.52955e-14
7.72645e-14
8.16993e-14
8.96312e-14
1.02368e-13
1.23414e-13
1.578e-13
2.20278e-13
3.40422e-13
6.2102e-13
1.44975e-12
5.59343e-12
2.30136e-12
1.89287e-11
6.23226e-12
3.93078e-12
4.1168e-12
4.45771e-12
6.443e-12
8.26275e-12
9.08562e-12
9.60818e-12
1.72619e-09
1.26614e-09
1.36082e-09
1.3483e-10
6.73422e-11
2.44858e-11
1.79963e-11
7.68087e-12
4.04756e-12
2.66605e-12
1.84856e-12
1.27895e-12
9.06592e-13
6.66798e-13
5.0569e-13
3.9274e-13
3.11405e-13
2.51679e-13
2.06993e-13
1.72932e-13
1.46521e-13
1.25734e-13
1.09177e-13
9.58773e-14
8.51468e-14
7.64961e-14
6.95626e-14
6.41011e-14
5.99115e-14
5.69145e-14
5.49982e-14
5.42748e-14
5.46889e-14
5.66986e-14
6.03403e-14
6.68321e-14
7.66828e-14
9.28996e-14
1.18786e-13
1.61867e-13
2.41716e-13
3.80172e-13
6.94448e-13
1.28439e-12
2.8731e-12
6.17394e-12
1.47425e-11
3.21632e-11
6.04522e-11
1.08206e-10
1.52972e-09
1.02998e-09
1.40283e-09
1.28385e-10
7.18365e-11
2.42243e-11
1.96266e-11
8.68219e-12
4.49762e-12
2.95829e-12
2.07549e-12
1.44849e-12
1.03026e-12
7.5959e-13
5.77662e-13
4.49792e-13
3.57326e-13
2.89111e-13
2.37804e-13
1.98446e-13
1.67685e-13
1.43239e-13
1.23542e-13
1.07504e-13
9.435e-14
8.3527e-14
7.46177e-14
6.7329e-14
6.14101e-14
5.67261e-14
5.3105e-14
5.05635e-14
4.89645e-14
4.85437e-14
4.92016e-14
5.15506e-14
5.57234e-14
6.29802e-14
7.47568e-14
9.33464e-14
1.26458e-13
1.78226e-13
2.84598e-13
4.58408e-13
8.5185e-13
1.53417e-12
2.9245e-12
5.1962e-12
8.01856e-12
1.24764e-11
1.33726e-09
8.3349e-10
1.42186e-09
1.26174e-10
7.5217e-11
2.4031e-11
2.11605e-11
9.83049e-12
5.00917e-12
3.28281e-12
2.32953e-12
1.64198e-12
1.17257e-12
8.66759e-13
6.61242e-13
5.1659e-13
4.11666e-13
3.34014e-13
2.75424e-13
2.30314e-13
1.94893e-13
1.66585e-13
1.43623e-13
1.24783e-13
1.09199e-13
9.62555e-14
8.54858e-14
7.65618e-14
6.91993e-14
6.32366e-14
5.84739e-14
5.48963e-14
5.23475e-14
5.1002e-14
5.07626e-14
5.20886e-14
5.51458e-14
6.08109e-14
7.04413e-14
8.5485e-14
1.122e-13
1.53202e-13
2.33728e-13
3.63321e-13
6.32338e-13
1.08781e-12
1.92457e-12
3.24738e-12
4.89928e-12
7.56763e-12
1.15176e-09
6.74377e-10
1.41503e-09
1.28988e-10
7.69224e-11
2.40494e-11
2.25145e-11
1.11364e-11
5.59233e-12
3.64358e-12
2.61299e-12
1.86241e-12
1.33638e-12
9.90546e-13
7.5816e-13
5.94461e-13
4.75388e-13
3.87008e-13
3.20153e-13
2.68537e-13
2.27871e-13
1.95235e-13
1.68633e-13
1.46688e-13
1.28428e-13
1.13168e-13
1.00389e-13
8.97269e-14
8.08666e-14
7.36238e-14
6.77775e-14
6.32945e-14
6.00127e-14
5.80795e-14
5.7428e-14
5.84573e-14
6.14373e-14
6.71148e-14
7.70452e-14
9.25018e-14
1.19718e-13
1.6153e-13
2.40438e-13
3.6801e-13
6.15732e-13
1.03247e-12
1.74929e-12
2.86992e-12
4.3395e-12
6.77902e-12
9.76132e-10
5.49303e-10
1.38094e-09
1.37499e-10
7.65705e-11
2.4412e-11
2.36103e-11
1.26034e-11
6.2589e-12
4.04521e-12
2.92802e-12
2.11272e-12
1.52474e-12
1.1335e-12
8.70507e-13
6.85188e-13
5.50022e-13
4.49392e-13
3.73074e-13
3.14e-13
2.67311e-13
2.29701e-13
1.98911e-13
1.7339e-13
1.52049e-13
1.34125e-13
1.19042e-13
1.06398e-13
9.58454e-14
8.71764e-14
8.01518e-14
7.47222e-14
7.07269e-14
6.82969e-14
6.74106e-14
6.84419e-14
7.17987e-14
7.82005e-14
8.95007e-14
1.07079e-13
1.37574e-13
1.84743e-13
2.70544e-13
4.10198e-13
6.67299e-13
1.09722e-12
1.8057e-12
2.90551e-12
4.42674e-12
6.99548e-12
8.13082e-10
4.54121e-10
1.31995e-09
1.52227e-10
7.40287e-11
2.52181e-11
2.43875e-11
1.42235e-11
7.02247e-12
4.49314e-12
3.27674e-12
2.39575e-12
1.74094e-12
1.29842e-12
1.00062e-12
7.90814e-13
6.37397e-13
5.22802e-13
4.3565e-13
3.68006e-13
3.14374e-13
2.71003e-13
2.3534e-13
2.05641e-13
1.80686e-13
1.59627e-13
1.41829e-13
1.26848e-13
1.14303e-13
1.03964e-13
9.5572e-14
8.90625e-14
8.4281e-14
8.13459e-14
8.02923e-14
8.14887e-14
8.55018e-14
9.30927e-14
1.06456e-13
1.27275e-13
1.62751e-13
2.18023e-13
3.15297e-13
4.74196e-13
7.54522e-13
1.21897e-12
1.96334e-12
3.1112e-12
4.77278e-12
7.5963e-12
6.64912e-10
3.84174e-10
1.23431e-09
1.73401e-10
6.94497e-11
2.65172e-11
2.48152e-11
1.5972e-11
7.89815e-12
4.99368e-12
3.66138e-12
2.71414e-12
1.98844e-12
1.48842e-12
1.1511e-12
9.13623e-13
7.39586e-13
6.09134e-13
5.09615e-13
4.32146e-13
3.70516e-13
3.20474e-13
2.79133e-13
2.44533e-13
2.15314e-13
1.90536e-13
1.69503e-13
1.51728e-13
1.36799e-13
1.24458e-13
1.14433e-13
1.06639e-13
1.00935e-13
9.74268e-14
9.62157e-14
9.76823e-14
1.02564e-13
1.11725e-13
1.27719e-13
1.52698e-13
1.9448e-13
2.59918e-13
3.71788e-13
5.54331e-13
8.65488e-13
1.37448e-12
2.17516e-12
3.40087e-12
5.23608e-12
8.34441e-12
5.33344e-10
3.34626e-10
1.128e-09
2.0074e-10
6.33008e-11
2.82851e-11
2.49034e-11
1.78039e-11
8.9018e-12
5.55408e-12
4.08438e-12
3.07019e-12
2.27074e-12
1.70686e-12
1.3248e-12
1.05615e-12
8.58922e-13
7.10549e-13
5.9697e-13
5.0828e-13
4.37466e-13
3.79716e-13
3.31768e-13
2.91423e-13
2.57169e-13
2.27973e-13
2.03074e-13
1.81946e-13
1.64144e-13
1.49386e-13
1.37385e-13
1.2804e-13
1.21221e-13
1.17029e-13
1.15634e-13
1.1745e-13
1.23391e-13
1.34484e-13
1.53648e-13
1.83651e-13
2.32946e-13
3.10315e-13
4.39262e-13
6.48463e-13
9.95078e-13
1.5533e-12
2.41939e-12
3.73411e-12
5.74544e-12
9.1125e-12
4.19388e-10
3.00699e-10
1.00663e-09
2.33169e-10
5.63443e-11
3.03931e-11
2.47082e-11
1.96522e-11
1.00484e-11
6.18249e-12
4.54851e-12
3.46577e-12
2.5913e-12
1.95734e-12
1.52484e-12
1.22116e-12
9.97993e-13
8.29484e-13
7.00007e-13
5.98555e-13
5.17241e-13
4.50617e-13
3.95002e-13
3.47937e-13
3.07747e-13
2.73303e-13
2.43786e-13
2.18629e-13
1.97361e-13
1.79676e-13
1.65277e-13
1.54044e-13
1.45863e-13
1.40836e-13
1.39206e-13
1.41437e-13
1.48626e-13
1.62026e-13
1.84919e-13
2.20815e-13
2.78816e-13
3.69739e-13
5.17915e-13
7.55972e-13
1.14092e-12
1.75005e-12
2.68399e-12
4.08762e-12
6.257e-12
9.81988e-12
3.23263e-10
2.77855e-10
8.77516e-10
2.68475e-10
4.95729e-11
3.25988e-11
2.43272e-11
2.14319e-11
1.13494e-11
6.88797e-12
5.05705e-12
3.90224e-12
2.95327e-12
2.24361e-12
1.75458e-12
1.41167e-12
1.15964e-12
9.68659e-13
8.21316e-13
7.05434e-13
6.12173e-13
5.35376e-13
4.70898e-13
4.15994e-13
3.68821e-13
3.28155e-13
2.93124e-13
2.63128e-13
2.37679e-13
2.16449e-13
1.99135e-13
1.85601e-13
1.75752e-13
1.69695e-13
1.67747e-13
1.7045e-13
1.79083e-13
1.95181e-13
2.22398e-13
2.65079e-13
3.32991e-13
4.3899e-13
6.08276e-13
8.76748e-13
1.3015e-12
1.96106e-12
2.96031e-12
4.44416e-12
6.738e-12
1.04096e-11
2.44308e-10
2.6213e-10
7.49381e-10
3.0318e-10
4.40385e-11
3.45842e-11
2.38856e-11
2.30475e-11
1.28095e-11
7.68054e-12
5.6139e-12
4.38045e-12
3.35932e-12
2.56946e-12
2.01757e-12
1.63089e-12
1.34693e-12
1.13107e-12
9.63799e-13
8.31707e-13
7.24932e-13
6.36537e-13
5.61859e-13
4.97842e-13
4.42477e-13
3.9445e-13
3.52847e-13
3.17049e-13
2.86559e-13
2.61038e-13
2.4018e-13
2.23839e-13
2.1194e-13
2.04602e-13
2.02221e-13
2.05436e-13
2.1571e-13
2.34913e-13
2.67074e-13
3.17438e-13
3.9645e-13
5.18899e-13
7.10828e-13
1.01058e-12
1.47518e-12
2.18249e-12
3.2399e-12
4.78746e-12
7.15955e-12
1.08373e-11
1.81133e-10
2.50274e-10
6.29505e-10
3.33164e-10
4.05611e-11
3.60063e-11
2.35159e-11
2.44054e-11
1.44207e-11
8.57084e-12
6.22359e-12
4.90085e-12
3.81135e-12
2.9385e-12
2.31748e-12
1.88219e-12
1.56311e-12
1.31995e-12
1.13066e-12
9.80502e-13
8.58549e-13
7.57011e-13
6.70654e-13
5.96093e-13
5.31149e-13
4.74436e-13
4.25018e-13
3.82275e-13
3.45717e-13
3.15005e-13
2.8984e-13
2.70073e-13
2.55651e-13
2.46716e-13
2.43736e-13
2.47473e-13
2.59575e-13
2.82285e-13
3.20013e-13
3.78926e-13
4.70137e-13
6.10169e-13
8.25764e-13
1.15677e-12
1.65956e-12
2.40941e-12
3.51311e-12
5.10026e-12
7.49389e-12
1.10673e-11
1.31919e-10
2.39482e-10
5.21658e-10
3.5479e-10
3.95861e-11
3.65526e-11
2.33308e-11
2.54323e-11
1.61575e-11
9.56938e-12
6.89109e-12
5.4636e-12
4.31026e-12
3.35393e-12
2.65796e-12
2.16901e-12
1.81159e-12
1.53876e-12
1.32538e-12
1.15528e-12
1.01642e-12
9.00093e-13
8.00447e-13
7.13745e-13
6.37648e-13
5.70721e-13
5.12035e-13
4.60996e-13
4.17146e-13
3.80165e-13
3.49773e-13
3.25826e-13
3.08296e-13
2.97355e-13
2.93546e-13
2.97768e-13
3.11852e-13
3.38437e-13
3.82315e-13
4.50546e-13
5.54869e-13
7.13238e-13
9.528e-13
1.31388e-12
1.85116e-12
2.63542e-12
3.76861e-12
5.36397e-12
7.7144e-12
1.10717e-11
9.45693e-11
2.27529e-10
4.27362e-10
3.65693e-10
4.12857e-11
3.60546e-11
2.33957e-11
2.60929e-11
1.7974e-11
1.06854e-11
7.62175e-12
6.06883e-12
4.85581e-12
3.81831e-12
3.04258e-12
2.49484e-12
2.09581e-12
1.7911e-12
1.5517e-12
1.35981e-12
1.20229e-12
1.06947e-12
9.54812e-13
8.54211e-13
7.65191e-13
6.86298e-13
6.16656e-13
5.55735e-13
5.03144e-13
4.58604e-13
4.21876e-13
3.92831e-13
3.71471e-13
3.58006e-13
3.53046e-13
3.57641e-13
3.73796e-13
4.04552e-13
4.55062e-13
5.33207e-13
6.51239e-13
8.28151e-13
1.09102e-12
1.47955e-12
2.0453e-12
2.85251e-12
3.99353e-12
5.55942e-12
7.797e-12
1.08321e-11
6.68893e-11
2.13134e-10
3.47187e-10
3.64993e-10
4.56641e-11
3.45834e-11
2.37122e-11
2.63983e-11
1.98052e-11
1.19252e-11
8.42116e-12
6.71701e-12
5.44671e-12
4.33327e-12
3.47458e-12
2.86312e-12
2.41926e-12
2.08067e-12
1.81354e-12
1.59818e-12
1.4203e-12
1.26924e-12
1.13775e-12
1.02134e-12
9.17422e-13
8.24574e-13
7.42027e-13
6.69371e-13
6.06327e-13
5.52698e-13
5.08302e-13
4.73046e-13
4.46965e-13
4.30312e-13
4.2376e-13
4.28505e-13
4.46716e-13
4.81813e-13
5.39262e-13
6.27635e-13
7.59514e-13
9.5444e-13
1.23878e-12
1.6504e-12
2.23604e-12
3.05132e-12
4.17402e-12
5.66803e-12
7.72221e-12
1.03415e-11
4.68058e-11
1.95917e-10
2.80865e-10
3.53195e-10
5.25183e-11
3.24288e-11
2.42177e-11
2.64033e-11
2.15709e-11
1.32891e-11
9.29487e-12
7.40909e-12
6.08075e-12
4.89927e-12
3.95677e-12
3.27717e-12
2.78538e-12
2.41121e-12
2.11502e-12
1.87473e-12
1.67491e-12
1.5039e-12
1.3537e-12
1.21944e-12
1.09844e-12
9.89389e-13
8.91701e-13
8.05158e-13
7.29654e-13
6.65119e-13
6.11464e-13
5.6865e-13
5.36752e-13
5.16067e-13
5.07322e-13
5.11844e-13
5.31936e-13
5.71345e-13
6.35776e-13
7.34294e-13
8.79538e-13
1.09102e-12
1.39356e-12
1.82199e-12
2.41631e-12
3.22147e-12
4.29611e-12
5.67347e-12
7.47746e-12
9.6065e-12
3.24998e-11
1.76214e-10
2.2733e-10
3.3196e-10
6.13315e-11
3.00101e-11
2.47963e-11
2.61959e-11
2.31856e-11
1.47681e-11
1.0248e-11
8.14656e-12
6.75509e-12
5.51544e-12
4.49123e-12
3.74007e-12
3.1975e-12
2.78644e-12
2.46031e-12
2.19403e-12
1.9709e-12
1.77834e-12
1.60754e-12
1.45327e-12
1.3128e-12
1.18504e-12
1.06966e-12
9.66741e-13
8.76431e-13
7.98847e-13
7.34037e-13
6.82041e-13
6.42982e-13
6.17199e-13
6.05449e-13
6.09167e-13
6.30744e-13
6.74162e-13
7.45245e-13
8.53292e-13
1.01063e-12
1.23609e-12
1.55201e-12
1.98892e-12
2.57814e-12
3.35219e-12
4.34685e-12
5.56336e-12
7.05929e-12
8.64926e-12
2.24613e-11
1.54902e-10
1.84932e-10
3.03747e-10
7.1238e-11
2.7782e-11
2.53014e-11
2.58789e-11
2.45714e-11
1.63401e-11
1.12844e-11
8.93137e-12
7.46674e-12
6.17948e-12
5.07912e-12
4.25456e-12
3.65879e-12
3.20998e-12
2.85366e-12
2.56084e-12
2.31339e-12
2.09782e-12
1.90459e-12
1.72805e-12
1.56556e-12
1.41628e-12
1.28032e-12
1.15817e-12
1.05032e-12
9.57177e-13
8.78961e-13
8.15832e-13
7.67967e-13
7.3574e-13
7.19914e-13
7.21976e-13
7.44339e-13
7.91096e-13
8.68013e-13
9.84308e-13
1.15154e-12
1.38714e-12
1.70993e-12
2.14498e-12
2.71313e-12
3.43315e-12
4.31562e-12
5.33111e-12
6.47523e-12
7.50828e-12
1.54905e-11
1.33212e-10
1.51732e-10
2.71348e-10
8.11061e-11
2.61538e-11
2.55983e-11
2.5548e-11
2.5673e-11
1.79685e-11
1.24059e-11
9.76571e-12
8.21298e-12
6.88784e-12
5.72042e-12
4.82286e-12
4.17224e-12
3.68533e-12
3.29927e-12
2.98004e-12
2.70774e-12
2.46799e-12
2.25058e-12
2.0495e-12
1.86222e-12
1.68835e-12
1.52857e-12
1.38391e-12
1.25537e-12
1.14371e-12
1.04943e-12
9.72829e-13
9.14158e-13
8.73804e-13
8.52498e-13
8.5171e-13
8.73776e-13
9.22734e-13
1.00406e-12
1.12653e-12
1.3004e-12
1.54094e-12
1.86245e-12
2.28346e-12
2.81297e-12
3.45534e-12
4.19543e-12
4.97737e-12
5.74502e-12
6.23845e-12
1.06802e-11
1.12287e-10
1.25802e-10
2.37534e-10
8.97244e-11
2.54211e-11
2.56111e-11
2.52751e-11
2.6467e-11
1.96032e-11
1.36113e-11
1.0652e-11
8.99188e-12
7.63611e-12
6.41392e-12
5.44662e-12
4.7406e-12
4.21588e-12
3.80131e-12
3.45663e-12
3.15957e-12
2.89487e-12
2.65171e-12
2.42381e-12
2.20883e-12
2.007e-12
1.81973e-12
1.64884e-12
1.49596e-12
1.36236e-12
1.24888e-12
1.15603e-12
1.08412e-12
1.03355e-12
1.00496e-12
9.99707e-13
1.01992e-12
1.06937e-12
1.15298e-12
1.27863e-12
1.45472e-12
1.69364e-12
2.0042e-12
2.3976e-12
2.87012e-12
3.41209e-12
3.98418e-12
4.5113e-12
4.90098e-12
4.90958e-12
7.37609e-12
9.28422e-11
1.05393e-10
2.04675e-10
9.60738e-11
2.57122e-11
2.5342e-11
2.50946e-11
2.69657e-11
2.11846e-11
1.48936e-11
1.15921e-11
9.80241e-12
8.41944e-12
7.15712e-12
6.12673e-12
5.36634e-12
4.80488e-12
4.36389e-12
3.99568e-12
3.67474e-12
3.38483e-12
3.11462e-12
2.85766e-12
2.61194e-12
2.37846e-12
2.15965e-12
1.95829e-12
1.77689e-12
1.61737e-12
1.48101e-12
1.36859e-12
1.28053e-12
1.21717e-12
1.17901e-12
1.16715e-12
1.18338e-12
1.23094e-12
1.31389e-12
1.43876e-12
1.6115e-12
1.84094e-12
2.12966e-12
2.48102e-12
2.87856e-12
3.29996e-12
3.68561e-12
3.95106e-12
3.98732e-12
3.60304e-12
5.11039e-12
7.53373e-11
8.9037e-11
1.74319e-10
9.95413e-11
2.69881e-11
2.48687e-11
2.50012e-11
2.72115e-11
2.26515e-11
1.62389e-11
1.25869e-11
1.06444e-11
9.23309e-12
7.94632e-12
6.86315e-12
6.0516e-12
5.45544e-12
4.99107e-12
4.60231e-12
4.25933e-12
3.9446e-12
3.64641e-12
3.35826e-12
3.07864e-12
2.80953e-12
2.55465e-12
2.31805e-12
2.10333e-12
1.91327e-12
1.74974e-12
1.61385e-12
1.50613e-12
1.42684e-12
1.37624e-12
1.35506e-12
1.36451e-12
1.40706e-12
1.48551e-12
1.60462e-12
1.76732e-12
1.97832e-12
2.2335e-12
2.52832e-12
2.83443e-12
3.11953e-12
3.30983e-12
3.32356e-12
3.05791e-12
2.4059e-12
3.5529e-12
6.01091e-11
7.55979e-11
1.47229e-10
9.99746e-11
2.90756e-11
2.43254e-11
2.49623e-11
2.7266e-11
2.39503e-11
1.76247e-11
1.36358e-11
1.15183e-11
1.00729e-11
8.77686e-12
7.65484e-12
6.79803e-12
6.17056e-12
5.68683e-12
5.28168e-12
4.91961e-12
4.58126e-12
4.25461e-12
3.93332e-12
3.61654e-12
3.30753e-12
3.01158e-12
2.73435e-12
2.48084e-12
2.25492e-12
2.05922e-12
1.89526e-12
1.76371e-12
1.6647e-12
1.59815e-12
1.56423e-12
1.56337e-12
1.59695e-12
1.66617e-12
1.77354e-12
1.91854e-12
2.10132e-12
2.31096e-12
2.53557e-12
2.73665e-12
2.87584e-12
2.87331e-12
2.66324e-12
2.17251e-12
1.40176e-12
2.47798e-12
4.7282e-11
6.42699e-11
1.23677e-10
9.7631e-11
3.16966e-11
2.38634e-11
2.49385e-11
2.71968e-11
2.50433e-11
1.90203e-11
1.47353e-11
1.24249e-11
1.09359e-11
9.6436e-12
8.49969e-12
7.60675e-12
6.95304e-12
6.4551e-12
6.03896e-12
5.662e-12
5.30223e-12
4.94724e-12
4.59108e-12
4.23384e-12
3.88033e-12
3.5378e-12
3.2139e-12
2.91539e-12
2.6475e-12
2.41383e-12
2.21642e-12
2.05611e-12
1.93284e-12
1.84608e-12
1.79525e-12
1.77975e-12
1.79955e-12
1.85388e-12
1.94263e-12
2.06146e-12
2.20583e-12
2.3583e-12
2.50074e-12
2.58729e-12
2.5785e-12
2.39815e-12
2.0097e-12
1.39093e-12
6.57648e-13
1.73294e-12
3.67679e-11
5.45233e-11
1.03606e-10
9.3051e-11
3.45084e-11
2.36133e-11
2.48997e-11
2.70643e-11
2.59136e-11
2.03887e-11
1.58787e-11
1.33645e-11
1.182e-11
1.05413e-11
9.39461e-12
8.47823e-12
7.80553e-12
7.29985e-12
6.8794e-12
6.49312e-12
6.11524e-12
5.73277e-12
5.34034e-12
4.93931e-12
4.5364e-12
4.14123e-12
3.76389e-12
3.41333e-12
3.09649e-12
2.81816e-12
2.58106e-12
2.3862e-12
2.23331e-12
2.12126e-12
2.04851e-12
2.01318e-12
2.01351e-12
2.04645e-12
2.10892e-12
2.19263e-12
2.28843e-12
2.37314e-12
2.42408e-12
2.39173e-12
2.24134e-12
1.91067e-12
1.40417e-12
7.65144e-13
2.0609e-13
1.21431e-12
2.83391e-11
4.60333e-11
8.67384e-11
8.68978e-11
3.71611e-11
2.3658e-11
2.48366e-11
2.6914e-11
2.65664e-11
2.16908e-11
1.70548e-11
1.43371e-11
1.27245e-11
1.14654e-11
1.03358e-11
9.41218e-12
8.73042e-12
8.22504e-12
7.80833e-12
7.41977e-12
7.02837e-12
6.62012e-12
6.19045e-12
5.74231e-12
5.28478e-12
4.83034e-12
4.39203e-12
3.98147e-12
3.60772e-12
3.27705e-12
2.99302e-12
2.75689e-12
2.5681e-12
2.42477e-12
2.32423e-12
2.26301e-12
2.23734e-12
2.24162e-12
2.2696e-12
2.30906e-12
2.34666e-12
2.35471e-12
2.30825e-12
2.1585e-12
1.88153e-12
1.4392e-12
8.84803e-13
3.29243e-13
2.25205e-14
8.51935e-13
2.16993e-11
3.86112e-11
7.26777e-11
7.98247e-11
3.9356e-11
2.40219e-11
2.47629e-11
2.67735e-11
2.7025e-11
2.28904e-11
1.82478e-11
1.53409e-11
1.36493e-11
1.2412e-11
1.13189e-11
1.04076e-11
9.72983e-12
9.23468e-12
8.83124e-12
8.44893e-12
8.05005e-12
7.61874e-12
7.15132e-12
6.65283e-12
6.13515e-12
5.61417e-12
5.10652e-12
4.62702e-12
4.18734e-12
3.79558e-12
3.45631e-12
3.17115e-12
2.93917e-12
2.75765e-12
2.6225e-12
2.52849e-12
2.46952e-12
2.43727e-12
2.42222e-12
2.40852e-12
2.37932e-12
2.30411e-12
2.15834e-12
1.89877e-12
1.51829e-12
1.01115e-12
4.80961e-13
8.80172e-14
2.23909e-16
5.98031e-13
1.65388e-11
3.21443e-11
6.0992e-11
7.23925e-11
4.08879e-11
2.46737e-11
2.47108e-11
2.66563e-11
2.73247e-11
2.39593e-11
1.94379e-11
1.63723e-11
1.45949e-11
1.33785e-11
1.23396e-11
1.14628e-11
1.08055e-11
1.03328e-11
9.95376e-12
9.58785e-12
9.18902e-12
8.73851e-12
8.23348e-12
7.68147e-12
7.09779e-12
6.5024e-12
5.91612e-12
5.35768e-12
4.84188e-12
4.37907e-12
3.9751e-12
3.63202e-12
3.34852e-12
3.12089e-12
2.94344e-12
2.80889e-12
2.70866e-12
2.63156e-12
2.56493e-12
2.48973e-12
2.38662e-12
2.22428e-12
1.98156e-12
1.62554e-12
1.17104e-12
6.497e-13
2.07218e-13
5.77692e-15
7.49586e-14
4.19811e-13
1.25685e-11
2.65544e-11
5.12727e-11
6.50256e-11
4.16627e-11
2.5536e-11
2.47184e-11
2.65673e-11
2.75052e-11
2.48807e-11
2.06022e-11
1.74253e-11
1.55614e-11
1.43636e-11
1.33941e-11
1.25756e-11
1.19586e-11
1.15234e-11
1.11818e-11
1.0844e-11
1.04543e-11
9.98978e-12
9.44798e-12
8.83946e-12
8.18364e-12
7.50526e-12
6.83013e-12
6.1816e-12
5.57825e-12
5.03316e-12
4.55378e-12
4.1427e-12
3.79824e-12
3.51557e-12
3.2872e-12
3.10366e-12
2.95366e-12
2.82321e-12
2.69667e-12
2.55258e-12
2.3703e-12
2.11995e-12
1.78676e-12
1.35255e-12
8.57384e-13
3.70289e-13
5.80713e-14
1.07657e-15
5.29299e-13
2.94622e-13
9.53532e-12
2.1776e-11
4.31643e-11
5.80039e-11
4.16887e-11
2.65021e-11
2.48151e-11
2.65078e-11
2.76042e-11
2.56503e-11
2.17171e-11
1.8491e-11
1.65483e-11
1.53669e-11
1.4479e-11
1.37431e-11
1.31899e-11
1.28103e-11
1.25212e-11
1.22251e-11
1.18554e-11
1.13833e-11
1.08064e-11
1.01387e-11
9.40426e-12
8.63363e-12
7.85841e-12
7.10743e-12
6.40377e-12
5.76382e-12
5.19697e-12
4.70658e-12
4.29058e-12
3.94295e-12
3.65421e-12
3.41255e-12
3.20393e-12
3.01162e-12
2.81742e-12
2.59826e-12
2.33363e-12
1.99733e-12
1.58379e-12
1.09296e-12
5.91001e-13
1.77795e-13
5.23299e-15
6.20878e-14
1.78032e-12
2.06722e-13
7.22723e-12
1.77457e-11
3.6374e-11
5.14888e-11
4.1048e-11
2.74576e-11
2.5014e-11
2.64801e-11
2.76535e-11
2.62755e-11
2.27614e-11
1.95582e-11
1.75538e-11
1.63886e-11
1.5592e-11
1.4963e-11
1.44996e-11
1.41972e-11
1.39783e-11
1.37393e-11
1.3402e-11
1.29303e-11
1.2321e-11
1.15915e-11
1.07718e-11
9.89895e-12
9.01139e-12
8.14433e-12
7.32621e-12
6.57738e-12
5.90965e-12
5.32735e-12
4.82809e-12
4.40458e-12
4.04527e-12
3.73589e-12
3.45959e-12
3.19717e-12
2.92832e-12
2.62935e-12
2.28128e-12
1.86379e-12
1.3827e-12
8.58048e-13
3.79887e-13
6.51406e-14
9.29501e-17
3.33822e-13
4.24643e-12
1.45078e-13
5.47395e-12
1.43887e-11
3.06689e-11
4.55575e-11
3.9864e-11
2.83004e-11
2.53102e-11
2.64892e-11
2.76781e-11
2.67723e-11
2.37183e-11
2.06134e-11
1.85747e-11
1.74291e-11