/*--------------------------------*- C++ -*----------------------------------*\
  =========                 |
  \\      /  F ield         | OpenFOAM: The Open Source CFD Toolbox
   \\    /   O peration     | Website:  https://openfoam.org
    \\  /    A nd           | Version:  7
     \\/     M anipulation  |
\*---------------------------------------------------------------------------*/
FoamFile
{
    version     2.0;
    format      ascii;
    class       volScalarField;
    location    "0.26";
    object      p;
}
// * * * * * * * * * * * * * * * * * * * * * * * * * * * * * * * * * * * * * //

dimensions      [0 2 -2 0 0 0 0];

internalField   nonuniform List<scalar> 
70000
(
0.128798
0.0513449
0.0388282
0.0412795
0.0414584
0.0404132
0.0394884
0.0387963
0.0382263
0.0377309
0.0372968
0.0369161
0.0365811
0.0362852
0.036023
0.03579
0.0355826
0.0353978
0.0352332
0.0350868
0.0349568
0.0348417
0.0347402
0.0346514
0.0345741
0.0345076
0.034451
0.0344037
0.034365
0.0343343
0.034311
0.0342944
0.0342839
0.0342787
0.0342782
0.0342814
0.0342872
0.0342945
0.0343014
0.0343076
0.0343082
0.0343069
0.0342899
0.0342752
0.0342232
0.0341962
0.0340817
0.0340768
0.0338474
0.0340164
0.12443
0.0517117
0.0390312
0.0413751
0.0415129
0.0404492
0.0395166
0.0388195
0.0382458
0.0377476
0.0373113
0.0369289
0.0365925
0.0362955
0.0360324
0.0357986
0.0355905
0.0354051
0.03524
0.0350931
0.0349627
0.0348472
0.0347455
0.0346563
0.0345788
0.034512
0.0344552
0.0344077
0.0343689
0.034338
0.0343145
0.0342978
0.0342872
0.0342819
0.0342813
0.0342843
0.03429
0.0342971
0.034304
0.03431
0.0343106
0.0343091
0.034292
0.0342771
0.0342249
0.0341977
0.0340829
0.034076
0.0338518
0.0340528
0.120849
0.0526516
0.0393715
0.0415042
0.0415872
0.0404939
0.0395489
0.0388457
0.0382676
0.037766
0.0373272
0.0369428
0.0366049
0.0363066
0.0360424
0.0358078
0.0355989
0.0354129
0.0352472
0.0350999
0.034969
0.0348532
0.0347511
0.0346616
0.0345838
0.0345167
0.0344597
0.034412
0.034373
0.0343419
0.0343183
0.0343013
0.0342906
0.0342852
0.0342845
0.0342873
0.0342929
0.0343
0.0343068
0.0343128
0.0343132
0.0343117
0.0342944
0.0342795
0.0342271
0.0341996
0.0340848
0.0340754
0.0338703
0.0340813
0.117755
0.0537534
0.039841
0.0416782
0.0416881
0.0405515
0.0395871
0.0388756
0.0382921
0.0377864
0.0373446
0.0369579
0.0366182
0.0363185
0.0360531
0.0358175
0.0356078
0.0354211
0.0352548
0.0351069
0.0349756
0.0348593
0.0347568
0.034667
0.0345889
0.0345216
0.0344644
0.0344164
0.0343772
0.0343459
0.0343221
0.034305
0.0342941
0.0342886
0.0342878
0.0342905
0.034296
0.0343031
0.0343098
0.0343157
0.0343161
0.0343145
0.0342973
0.0342824
0.03423
0.0342022
0.0340884
0.0340743
0.0339005
0.0341032
0.114796
0.0548499
0.0404069
0.0418987
0.0418226
0.0406293
0.0396361
0.0389127
0.0383222
0.0378111
0.0373652
0.0369755
0.0366335
0.036332
0.0360652
0.0358284
0.0356177
0.0354301
0.0352632
0.0351146
0.0349827
0.034866
0.0347631
0.0346729
0.0345945
0.0345269
0.0344694
0.0344212
0.0343817
0.0343502
0.0343262
0.034309
0.034298
0.0342923
0.0342913
0.034294
0.0342994
0.0343064
0.0343131
0.034319
0.0343195
0.034318
0.0343008
0.034286
0.0342341
0.0342056
0.0340946
0.0340744
0.0339391
0.0341267
0.111887
0.0558888
0.0410221
0.0421458
0.0419849
0.0407291
0.0396985
0.0389591
0.0383595
0.0378416
0.0373904
0.0369969
0.036652
0.0363482
0.0360796
0.0358412
0.0356293
0.0354407
0.0352728
0.0351235
0.034991
0.0348737
0.0347703
0.0346797
0.0346008
0.0345328
0.034475
0.0344265
0.0343868
0.0343551
0.0343309
0.0343135
0.0343023
0.0342965
0.0342954
0.034298
0.0343033
0.0343103
0.034317
0.034323
0.0343235
0.0343222
0.0343054
0.0342907
0.0342398
0.0342106
0.0341043
0.0340772
0.0339832
0.0341539
0.109022
0.0568513
0.0416529
0.0423977
0.0421616
0.0408462
0.0397733
0.0390148
0.0384047
0.0378786
0.0374211
0.0370228
0.0366744
0.0363678
0.0360968
0.0358566
0.0356432
0.0354533
0.0352843
0.035134
0.0350007
0.0348827
0.0347787
0.0346875
0.0346082
0.0345398
0.0344815
0.0344327
0.0343926
0.0343607
0.0343362
0.0343186
0.0343072
0.0343013
0.0343001
0.0343026
0.0343079
0.0343149
0.0343216
0.0343277
0.0343286
0.0343275
0.0343113
0.0342969
0.0342477
0.0342175
0.0341182
0.0340846
0.0340307
0.0341845
0.106208
0.0577293
0.0422832
0.0426427
0.042342
0.040974
0.039857
0.0390776
0.0384564
0.0379216
0.0374571
0.0370534
0.0367008
0.0363909
0.0361173
0.0358749
0.0356596
0.0354682
0.0352979
0.0351465
0.0350122
0.0348933
0.0347885
0.0346967
0.0346168
0.0345479
0.0344892
0.03444
0.0343996
0.0343673
0.0343425
0.0343247
0.0343131
0.0343069
0.0343056
0.0343081
0.0343133
0.0343203
0.0343272
0.0343336
0.0343348
0.0343342
0.0343189
0.034305
0.0342582
0.0342273
0.0341367
0.0340981
0.0340804
0.0342185
0.103449
0.0585201
0.0429081
0.0428766
0.0425199
0.0411077
0.0399464
0.0391451
0.0385126
0.037969
0.0374972
0.0370878
0.0367308
0.0364174
0.0361409
0.035896
0.0356787
0.0354855
0.0353137
0.0351611
0.0350256
0.0349058
0.0348001
0.0347075
0.034627
0.0345575
0.0344982
0.0344485
0.0344077
0.034375
0.03435
0.0343318
0.03432
0.0343137
0.0343122
0.0343146
0.0343198
0.0343269
0.034334
0.0343407
0.0343424
0.0343424
0.0343284
0.0343152
0.0342717
0.0342404
0.0341603
0.0341189
0.0341312
0.0342556
0.100752
0.0592234
0.0435262
0.0430993
0.0426924
0.0412445
0.0400392
0.0392151
0.0385715
0.0380193
0.0375403
0.0371251
0.0367636
0.0364465
0.036167
0.0359196
0.0357001
0.0355051
0.0353317
0.0351776
0.035041
0.03492
0.0348135
0.03472
0.0346387
0.0345685
0.0345087
0.0344584
0.0344171
0.034384
0.0343586
0.0343401
0.0343281
0.0343215
0.0343199
0.0343223
0.0343275
0.0343348
0.0343421
0.0343492
0.0343516
0.0343524
0.0343401
0.0343279
0.0342885
0.0342575
0.0341889
0.0341476
0.0341828
0.0342952
0.0981179
0.0598396
0.0441368
0.0433115
0.042858
0.0413831
0.0401346
0.0392867
0.0386319
0.0380714
0.0375852
0.0371644
0.0367983
0.0364776
0.036195
0.0359451
0.0357234
0.0355264
0.0353514
0.0351959
0.035058
0.0349359
0.0348283
0.034734
0.0346518
0.0345809
0.0345205
0.0344697
0.0344278
0.0343943
0.0343685
0.0343497
0.0343373
0.0343306
0.0343289
0.0343312
0.0343365
0.034344
0.0343516
0.0343593
0.0343625
0.0343644
0.034354
0.0343432
0.0343087
0.034279
0.0342225
0.0341842
0.034235
0.0343371
0.0955512
0.0603691
0.0447385
0.0435142
0.0430159
0.0415224
0.0402321
0.0393593
0.0386932
0.0381246
0.0376313
0.0372048
0.0368342
0.0365099
0.0362244
0.0359718
0.035748
0.0355491
0.0353725
0.0352155
0.0350763
0.0349531
0.0348445
0.0347492
0.0346663
0.0345946
0.0345335
0.0344821
0.0344397
0.0344058
0.0343795
0.0343604
0.0343478
0.0343409
0.034339
0.0343413
0.0343467
0.0343544
0.0343625
0.0343708
0.0343752
0.0343782
0.0343703
0.0343613
0.0343322
0.0343048
0.0342607
0.0342281
0.0342883
0.034381
0.0930541
0.0608123
0.0453293
0.0437087
0.0431653
0.0416618
0.0403316
0.0394328
0.0387551
0.0381785
0.0376783
0.037246
0.036871
0.0365431
0.0362546
0.0359995
0.0357735
0.0355728
0.0353945
0.0352361
0.0350956
0.0349712
0.0348616
0.0347654
0.0346816
0.0346093
0.0345475
0.0344955
0.0344526
0.0344182
0.0343915
0.0343721
0.0343592
0.0343521
0.0343501
0.0343524
0.034358
0.034366
0.0343747
0.0343838
0.0343894
0.0343938
0.0343887
0.0343819
0.0343587
0.034335
0.034303
0.0342783
0.034343
0.034427
0.0906289
0.0611701
0.0459067
0.0438962
0.0433057
0.0418003
0.0404329
0.0395071
0.0388174
0.0382331
0.0377259
0.037288
0.0369085
0.036577
0.0362855
0.0360279
0.0357997
0.0355971
0.0354172
0.0352573
0.0351155
0.0349901
0.0348794
0.0347824
0.0346978
0.0346247
0.0345622
0.0345096
0.0344662
0.0344313
0.0344043
0.0343845
0.0343714
0.0343642
0.0343621
0.0343645
0.0343703
0.0343787
0.034388
0.0343979
0.034405
0.0344111
0.034409
0.0344048
0.034388
0.034369
0.0343485
0.0343333
0.0343994
0.0344756
0.0882782
0.0614438
0.0464678
0.0440784
0.0434367
0.0419371
0.0405359
0.0395822
0.03888
0.0382881
0.0377742
0.0373305
0.0369465
0.0366114
0.0363168
0.0360568
0.0358264
0.0356219
0.0354404
0.0352791
0.035136
0.0350094
0.0348978
0.0347998
0.0347144
0.0346406
0.0345775
0.0345243
0.0344804
0.034445
0.0344177
0.0343976
0.0343842
0.0343768
0.0343748
0.0343773
0.0343833
0.0343922
0.0344022
0.0344132
0.0344219
0.0344297
0.034431
0.0344299
0.0344195
0.0344063
0.0343968
0.034392
0.0344577
0.034527
0.0860038
0.0616351
0.0470095
0.0442568
0.0435581
0.0420712
0.0406405
0.0396582
0.038943
0.0383436
0.037823
0.0373736
0.036985
0.0366463
0.0363487
0.0360861
0.0358535
0.0356472
0.035464
0.0353013
0.0351569
0.0350292
0.0349166
0.0348177
0.0347315
0.0346569
0.0345931
0.0345394
0.034495
0.0344592
0.0344314
0.0344111
0.0343975
0.03439
0.0343879
0.0343906
0.0343969
0.0344063
0.0344171
0.0344292
0.0344397
0.0344495
0.0344543
0.0344567
0.0344529
0.0344463
0.034447
0.0344531
0.0345178
0.0345817
0.0838075
0.0617459
0.0475287
0.0444326
0.0436699
0.0422016
0.0407462
0.0397351
0.0390061
0.0383994
0.0378724
0.0374172
0.037024
0.0366816
0.036381
0.0361158
0.0358811
0.0356728
0.035488
0.0353238
0.0351782
0.0350493
0.0349357
0.0348359
0.0347488
0.0346735
0.0346091
0.0345548
0.0345099
0.0344737
0.0344455
0.0344249
0.0344111
0.0344036
0.0344015
0.0344043
0.034411
0.0344209
0.0344327
0.0344459
0.0344583
0.0344703
0.0344787
0.034485
0.0344877
0.0344884
0.0344988
0.0345157
0.03458
0.0346404
0.0816906
0.0617788
0.0480224
0.0446072
0.0437721
0.0423273
0.0408528
0.0398128
0.0390694
0.0384555
0.0379222
0.0374612
0.0370634
0.0367174
0.0364137
0.036146
0.035909
0.0356988
0.0355123
0.0353467
0.0351998
0.0350698
0.0349551
0.0348543
0.0347665
0.0346904
0.0346254
0.0345705
0.034525
0.0344884
0.0344599
0.034439
0.034425
0.0344174
0.0344154
0.0344184
0.0344254
0.034436
0.0344487
0.0344633
0.0344776
0.034492
0.034504
0.0345146
0.0345238
0.0345321
0.0345517
0.0345792
0.0346441
0.0347033
0.0796538
0.0617366
0.0484877
0.0447814
0.0438649
0.0424473
0.0409598
0.0398914
0.0391327
0.0385117
0.0379723
0.0375058
0.0371033
0.0367535
0.0364469
0.0361765
0.0359373
0.0357252
0.035537
0.0353699
0.0352217
0.0350905
0.0349747
0.0348731
0.0347844
0.0347076
0.0346419
0.0345864
0.0345404
0.0345033
0.0344745
0.0344533
0.0344392
0.0344315
0.0344295
0.0344327
0.0344402
0.0344515
0.0344652
0.0344811
0.0344975
0.0345143
0.0345301
0.0345452
0.0345609
0.0345772
0.0346055
0.0346433
0.0347103
0.0347709
0.0776975
0.0616229
0.0489218
0.0449558
0.0439489
0.0425607
0.0410667
0.0399709
0.0391961
0.038568
0.0380229
0.0375508
0.0371436
0.0367901
0.0364804
0.0362074
0.035966
0.035752
0.035562
0.0353934
0.0352439
0.0351115
0.0349947
0.0348921
0.0348026
0.034725
0.0346586
0.0346025
0.034556
0.0345185
0.0344893
0.0344679
0.0344536
0.0344458
0.0344439
0.0344474
0.0344553
0.0344673
0.0344821
0.0344994
0.0345179
0.0345374
0.034557
0.0345768
0.0345989
0.0346232
0.0346602
0.0347078
0.0347786
0.0348434
0.0758217
0.0614416
0.049322
0.0451304
0.0440246
0.0426667
0.0411728
0.0400511
0.0392595
0.0386242
0.0380736
0.0375961
0.0371843
0.0368271
0.0365143
0.0362387
0.035995
0.035779
0.0355874
0.0354172
0.0352664
0.0351328
0.0350149
0.0349114
0.034821
0.0347427
0.0346756
0.0346189
0.0345719
0.0345339
0.0345043
0.0344826
0.0344681
0.0344603
0.0344586
0.0344623
0.0344707
0.0344834
0.0344993
0.0345181
0.0345388
0.034561
0.0345846
0.0346093
0.0346377
0.0346701
0.0347155
0.0347729
0.0348492
0.0349207
0.0740259
0.0611971
0.0496859
0.0453053
0.0440928
0.0427646
0.0412774
0.040132
0.0393229
0.0386802
0.0381245
0.0376418
0.0372254
0.0368644
0.0365485
0.0362703
0.0360244
0.0358064
0.035613
0.0354414
0.0352892
0.0351544
0.0350354
0.0349309
0.0348396
0.0347605
0.0346927
0.0346354
0.0345879
0.0345495
0.0345196
0.0344976
0.0344829
0.0344751
0.0344734
0.0344774
0.0344864
0.0344998
0.0345169
0.0345373
0.0345602
0.0345853
0.0346128
0.0346425
0.0346773
0.0347178
0.0347716
0.0348386
0.0349219
0.0350029
0.0723094
0.0608941
0.0500111
0.0454799
0.0441543
0.0428537
0.0413798
0.0402133
0.0393863
0.038736
0.0381755
0.0376877
0.0372667
0.036902
0.0365831
0.0363023
0.0360541
0.0358341
0.035639
0.0354658
0.0353122
0.0351762
0.0350562
0.0349507
0.0348585
0.0347786
0.0347101
0.0346522
0.0346041
0.0345652
0.034535
0.0345127
0.0344979
0.03449
0.0344885
0.0344928
0.0345023
0.0345165
0.0345349
0.0345569
0.034582
0.0346101
0.0346416
0.0346764
0.0347175
0.0347661
0.0348284
0.034905
0.0349968
0.0350895
0.0706708
0.0605375
0.0502958
0.0456532
0.04421
0.0429339
0.0414791
0.040295
0.0394496
0.0387913
0.0382264
0.0377339
0.0373083
0.0369398
0.0366179
0.0363345
0.036084
0.0358621
0.0356653
0.0354905
0.0353356
0.0351983
0.0350772
0.0349707
0.0348776
0.0347969
0.0347277
0.0346692
0.0346205
0.0345812
0.0345505
0.034528
0.034513
0.0345051
0.0345037
0.0345083
0.0345184
0.0345335
0.0345531
0.0345768
0.0346043
0.0346355
0.0346709
0.034711
0.0347585
0.034815
0.0348858
0.0349721
0.0350737
0.0351804
0.0691086
0.0601328
0.0505382
0.0458239
0.0442608
0.0430048
0.0415744
0.0403765
0.0395129
0.0388462
0.0382771
0.0377802
0.0373502
0.036978
0.036653
0.036367
0.0361143
0.0358904
0.0356918
0.0355155
0.0353591
0.0352207
0.0350984
0.0349909
0.0348969
0.0348154
0.0347455
0.0346863
0.0346371
0.0345973
0.0345663
0.0345435
0.0345283
0.0345204
0.0345192
0.0345241
0.0345348
0.0345508
0.0345717
0.0345971
0.034627
0.0346613
0.0347008
0.0347462
0.0348
0.0348644
0.0349438
0.03504
0.0351526
0.0352748
0.0676209
0.0596853
0.0507371
0.0459905
0.0443077
0.0430664
0.0416649
0.0404576
0.039576
0.0389006
0.0383274
0.0378265
0.0373922
0.0370163
0.0366883
0.0363998
0.0361448
0.0359189
0.0357186
0.0355407
0.035383
0.0352433
0.0351199
0.0350113
0.0349165
0.0348341
0.0347635
0.0347036
0.0346539
0.0346136
0.0345822
0.0345591
0.0345438
0.0345359
0.0345348
0.0345401
0.0345514
0.0345683
0.0345905
0.0346178
0.0346501
0.0346876
0.0347313
0.0347819
0.0348421
0.0349142
0.0350024
0.0351087
0.0352332
0.0353724
0.0662055
0.0592007
0.0508917
0.0461509
0.0443516
0.043119
0.0417498
0.0405378
0.0396391
0.0389543
0.0383773
0.0378727
0.0374343
0.0370547
0.0367238
0.0364327
0.0361756
0.0359477
0.0357456
0.0355662
0.035407
0.035266
0.0351415
0.035032
0.0349362
0.034853
0.0347816
0.0347211
0.0346708
0.03463
0.0345982
0.0345749
0.0345595
0.0345515
0.0345506
0.0345563
0.0345682
0.0345861
0.0346097
0.0346388
0.0346736
0.0347143
0.0347621
0.034818
0.0348846
0.0349645
0.0350614
0.035178
0.0353152
0.0354722
0.0648599
0.0586846
0.0510015
0.0463028
0.0443933
0.043163
0.0418282
0.0406164
0.0397018
0.0390074
0.0384266
0.0379187
0.0374764
0.0370933
0.0367594
0.0364658
0.0362065
0.0359767
0.0357728
0.0355918
0.0354313
0.035289
0.0351634
0.0350528
0.034956
0.0348721
0.0347999
0.0347387
0.0346878
0.0346466
0.0346144
0.0345908
0.0345752
0.0345673
0.0345665
0.0345726
0.0345852
0.034604
0.034629
0.03466
0.0346973
0.0347414
0.0347933
0.0348545
0.0349274
0.035015
0.0351207
0.0352478
0.0353982
0.0355737
0.0635815
0.0581426
0.0510666
0.0464438
0.0444334
0.0431988
0.0418995
0.040693
0.0397642
0.0390598
0.0384751
0.0379643
0.0375185
0.0371319
0.036795
0.0364991
0.0362375
0.0360058
0.0358002
0.0356177
0.0354557
0.0353122
0.0351854
0.0350738
0.0349761
0.0348912
0.0348183
0.0347565
0.034705
0.0346633
0.0346307
0.0346068
0.0345911
0.0345831
0.0345826
0.0345891
0.0346023
0.0346222
0.0346486
0.0346815
0.0347214
0.0347687
0.0348248
0.0348912
0.0349705
0.0350656
0.0351803
0.0353179
0.0354818
0.035676
0.0623675
0.0575799
0.0510878
0.0465713
0.0444722
0.0432271
0.0419632
0.0407667
0.0398261
0.0391114
0.0385228
0.0380095
0.0375605
0.0371705
0.0368307
0.0365324
0.0362687
0.0360351
0.0358277
0.0356437
0.0354803
0.0353355
0.0352076
0.0350949
0.0349963
0.0349106
0.0348369
0.0347743
0.0347223
0.0346801
0.0346471
0.0346229
0.034607
0.0345991
0.0345987
0.0346056
0.0346196
0.0346405
0.0346683
0.0347032
0.0347456
0.0347963
0.0348565
0.0349281
0.0350137
0.0351163
0.0352398
0.0353881
0.0355656
0.0357783
0.0612148
0.0570018
0.0510661
0.0466829
0.0445098
0.0432487
0.0420189
0.0408369
0.039887
0.0391622
0.0385696
0.0380541
0.0376022
0.037209
0.0368664
0.0365657
0.0363
0.0360644
0.0358554
0.0356698
0.035505
0.035359
0.0352299
0.0351161
0.0350166
0.03493
0.0348555
0.0347923
0.0347397
0.0346969
0.0346636
0.0346391
0.0346231
0.0346151
0.034615
0.0346223
0.034637
0.0346589
0.0346882
0.034725
0.03477
0.034824
0.0348884
0.0349651
0.0350568
0.0351668
0.0352991
0.035458
0.035649
0.0358797
0.0601205
0.0564128
0.0510031
0.0467765
0.0445458
0.0432643
0.0420663
0.0409029
0.0399468
0.0392122
0.0386153
0.0380979
0.0376435
0.0372473
0.036902
0.0365989
0.0363312
0.0360939
0.0358831
0.035696
0.0355298
0.0353825
0.0352523
0.0351375
0.0350369
0.0349495
0.0348742
0.0348103
0.0347571
0.0347138
0.0346801
0.0346553
0.0346391
0.0346312
0.0346312
0.034639
0.0346544
0.0346773
0.0347081
0.0347469
0.0347944
0.0348517
0.0349202
0.0350019
0.0350998
0.035217
0.0353579
0.0355272
0.0357314
0.0359794
0.0590815
0.0558172
0.050901
0.0468502
0.0445796
0.0432745
0.0421054
0.0409639
0.040005
0.0392612
0.0386598
0.0381408
0.0376843
0.0372853
0.0369374
0.0366321
0.0363624
0.0361233
0.0359109
0.0357223
0.0355547
0.0354062
0.0352747
0.0351589
0.0350574
0.0349691
0.034893
0.0348284
0.0347745
0.0347308
0.0346966
0.0346715
0.0346552
0.0346473
0.0346475
0.0346557
0.0346718
0.0346958
0.034728
0.0347688
0.0348189
0.0348794
0.0349519
0.0350386
0.0351423
0.0352666
0.0354159
0.0355954
0.0358123
0.0360766
0.0580948
0.0552189
0.0507623
0.0469025
0.0446101
0.0432801
0.0421363
0.0410193
0.0400611
0.0393091
0.0387031
0.0381826
0.0377245
0.037323
0.0369726
0.0366651
0.0363935
0.0361526
0.0359387
0.0357485
0.0355796
0.0354298
0.0352972
0.0351803
0.0350779
0.0349887
0.0349118
0.0348465
0.034792
0.0347477
0.0347131
0.0346878
0.0346713
0.0346634
0.0346638
0.0346724
0.0346892
0.0347143
0.0347479
0.0347906
0.0348432
0.0349069
0.0349834
0.0350749
0.0351844
0.0353155
0.0354729
0.0356621
0.0358911
0.0361704
0.0571571
0.0546213
0.0505898
0.0469321
0.0446361
0.0432815
0.0421593
0.0410686
0.0401147
0.0393557
0.0387451
0.0382232
0.0377638
0.0373603
0.0370074
0.0366979
0.0364244
0.0361819
0.0359663
0.0357747
0.0356045
0.0354535
0.0353197
0.0352018
0.0350983
0.0350083
0.0349306
0.0348646
0.0348095
0.0347646
0.0347296
0.034704
0.0346873
0.0346794
0.03468
0.034689
0.0347065
0.0347326
0.0347677
0.0348123
0.0348673
0.0349341
0.0350144
0.0351106
0.0352256
0.0353633
0.0355284
0.0357269
0.0359671
0.0362599
0.0562657
0.0540271
0.0503866
0.0469381
0.0446562
0.0432791
0.0421748
0.0411113
0.040165
0.0394009
0.0387857
0.0382625
0.0378022
0.0373969
0.0370419
0.0367303
0.0364551
0.036211
0.0359939
0.0358009
0.0356293
0.035477
0.0353422
0.0352232
0.0351188
0.0350278
0.0349494
0.0348826
0.0348268
0.0347815
0.034746
0.03472
0.0347032
0.0346953
0.034696
0.0347055
0.0347237
0.0347508
0.0347872
0.0348337
0.0348912
0.0349609
0.0350449
0.0351455
0.0352658
0.0354097
0.0355821
0.0357893
0.0360396
0.0363444
0.0554176
0.0534389
0.0501561
0.0469202
0.0446689
0.043273
0.0421831
0.041147
0.0402116
0.0394443
0.0388248
0.0383003
0.0378395
0.0374328
0.0370758
0.0367623
0.0364855
0.0362398
0.0360213
0.0358269
0.035654
0.0355005
0.0353646
0.0352445
0.0351392
0.0350473
0.034968
0.0349005
0.0348441
0.0347982
0.0347623
0.034736
0.034719
0.034711
0.0347119
0.0347218
0.0347406
0.0347687
0.0348065
0.0348548
0.0349145
0.0349872
0.0350747
0.0351795
0.0353048
0.0354545
0.0356337
0.0358487
0.0361081
0.036423
0.05461
0.0528586
0.0499015
0.0468782
0.0446728
0.0432633
0.0421848
0.0411755
0.0402539
0.0394857
0.0388623
0.0383365
0.0378754
0.0374677
0.0371091
0.0367939
0.0365155
0.0362683
0.0360484
0.0358527
0.0356786
0.0355239
0.0353868
0.0352657
0.0351594
0.0350667
0.0349866
0.0349183
0.0348613
0.0348148
0.0347784
0.0347518
0.0347345
0.0347265
0.0347276
0.0347378
0.0347573
0.0347863
0.0348254
0.0348754
0.0349373
0.0350127
0.0351035
0.0352123
0.0353422
0.0354973
0.0356826
0.0359046
0.0361718
0.0364951
0.0538403
0.0522879
0.0496262
0.0468125
0.0446663
0.0432497
0.0421803
0.0411968
0.0402913
0.0395245
0.0388981
0.038371
0.03791
0.0375017
0.0371417
0.0368248
0.0365449
0.0362964
0.0360752
0.0358782
0.0357029
0.035547
0.0354089
0.0352868
0.0351795
0.0350858
0.0350049
0.034936
0.0348782
0.0348312
0.0347943
0.0347673
0.0347499
0.0347418
0.034743
0.0347535
0.0347735
0.0348034
0.0348438
0.0348954
0.0349594
0.0350373
0.0351312
0.0352436
0.0353778
0.0355377
0.0357285
0.0359565
0.0362302
0.0365598
0.0531061
0.051728
0.0493333
0.0467238
0.0446482
0.0432318
0.0421701
0.0412109
0.0403235
0.0395605
0.0389319
0.0384037
0.0379429
0.0375344
0.0371734
0.0368551
0.0365738
0.0363241
0.0361016
0.0359034
0.0357269
0.0355699
0.0354307
0.0353076
0.0351993
0.0351048
0.0350231
0.0349533
0.0348949
0.0348473
0.03481
0.0347826
0.0347649
0.0347567
0.034758
0.0347688
0.0347893
0.03482
0.0348615
0.0349146
0.0349805
0.0350609
0.0351576
0.0352733
0.0354113
0.0355755
0.035771
0.0360039
0.0362825
0.0366166
0.0524049
0.05118
0.0490258
0.0466132
0.0446175
0.0432089
0.0421544
0.0412179
0.0403499
0.0395931
0.0389636
0.0384345
0.037974
0.0375658
0.037204
0.0368846
0.036602
0.0363511
0.0361275
0.0359282
0.0357505
0.0355925
0.0354522
0.0353281
0.0352189
0.0351235
0.0350409
0.0349704
0.0349114
0.0348631
0.0348253
0.0347975
0.0347795
0.0347712
0.0347725
0.0347836
0.0348046
0.034836
0.0348785
0.034933
0.0350007
0.0350831
0.0351824
0.035301
0.0354423
0.0356101
0.0358094
0.0360463
0.0363284
0.0366649
0.0517347
0.0506443
0.0487065
0.0464818
0.0445733
0.0431804
0.0421335
0.041218
0.0403703
0.039622
0.0389929
0.0384633
0.0380033
0.0375956
0.0372335
0.0369131
0.0366295
0.0363775
0.0361528
0.0359524
0.0357737
0.0356146
0.0354733
0.0353482
0.0352381
0.0351418
0.0350584
0.0349872
0.0349274
0.0348786
0.0348402
0.034812
0.0347937
0.0347852
0.0347865
0.0347977
0.0348192
0.0348513
0.0348947
0.0349504
0.0350196
0.0351039
0.0352054
0.0353265
0.0354706
0.0356413
0.0358436
0.0360831
0.0363671
0.0367041
0.0510934
0.0501214
0.048378
0.0463313
0.044515
0.0431454
0.0421074
0.0412115
0.0403844
0.0396466
0.0390195
0.0384898
0.0380306
0.0376237
0.0372617
0.0369406
0.036656
0.0364031
0.0361775
0.0359761
0.0357964
0.0356363
0.035494
0.0353679
0.0352569
0.0351598
0.0350756
0.0350035
0.034943
0.0348936
0.0348546
0.034826
0.0348073
0.0347986
0.0347999
0.0348112
0.034833
0.0348656
0.0349098
0.0349665
0.035037
0.0351229
0.0352263
0.0353495
0.0354957
0.0356686
0.0358729
0.0361138
0.0363983
0.0367337
0.0504791
0.0496116
0.0480425
0.0461631
0.0444426
0.0431033
0.0420761
0.0411986
0.0403922
0.0396667
0.0390431
0.038514
0.0380557
0.0376499
0.0372883
0.0369669
0.0366816
0.0364278
0.0362014
0.0359991
0.0358184
0.0356573
0.0355141
0.0353872
0.0352752
0.0351772
0.0350922
0.0350194
0.0349582
0.034908
0.0348685
0.0348394
0.0348204
0.0348114
0.0348125
0.0348239
0.0348459
0.0348789
0.0349237
0.0349813
0.0350529
0.0351401
0.0352448
0.0353696
0.0355174
0.0356917
0.035897
0.0361381
0.0364214
0.0367534
0.04989
0.0491149
0.047702
0.0459791
0.0443558
0.0430532
0.0420396
0.0411795
0.0403935
0.0396817
0.0390633
0.0385356
0.0380785
0.0376741
0.0373133
0.0369918
0.036706
0.0364515
0.0362244
0.0360213
0.0358397
0.0356778
0.0355336
0.0354058
0.035293
0.0351941
0.0351083
0.0350347
0.0349727
0.0349219
0.0348818
0.0348521
0.0348327
0.0348234
0.0348243
0.0348357
0.0348577
0.034891
0.0349363
0.0349945
0.0350669
0.035155
0.0352608
0.0353866
0.0355353
0.0357102
0.0359154
0.0361555
0.036436
0.0367628
0.0493246
0.0486312
0.0473584
0.0457809
0.0442551
0.0429946
0.0419974
0.0411544
0.0403884
0.0396915
0.0390799
0.0385544
0.0380989
0.0376961
0.0373364
0.0370152
0.0367291
0.0364741
0.0362463
0.0360426
0.0358603
0.0356975
0.0355525
0.0354238
0.0353101
0.0352104
0.0351237
0.0350493
0.0349866
0.0349351
0.0348944
0.0348641
0.0348442
0.0348345
0.0348352
0.0348464
0.0348684
0.0349018
0.0349474
0.035006
0.0350789
0.0351676
0.0352739
0.0354002
0.0355491
0.0357237
0.0359278
0.0361656
0.0364419
0.0367617
0.0487814
0.0481604
0.0470131
0.0455703
0.0441408
0.0429269
0.0419494
0.0411234
0.040377
0.0396957
0.0390924
0.0385703
0.0381167
0.0377158
0.0373575
0.0370369
0.0367508
0.0364955
0.0362672
0.0360628
0.0358799
0.0357163
0.0355705
0.035441
0.0353264
0.0352259
0.0351384
0.0350632
0.0349998
0.0349475
0.0349061
0.0348753
0.0348548
0.0348447
0.034845
0.0348559
0.0348778
0.0349111
0.0349567
0.0350155
0.0350886
0.0351774
0.0352839
0.03541
0.0355584
0.0357319
0.0359339
0.0361681
0.0364387
0.0367498
0.048259
0.0477022
0.0466675
0.045349
0.0440135
0.0428499
0.0418951
0.0410866
0.0403593
0.0396942
0.0391005
0.0385828
0.0381317
0.0377329
0.0373763
0.0370568
0.0367709
0.0365154
0.0362868
0.036082
0.0358984
0.0357342
0.0355876
0.0354573
0.035342
0.0352406
0.0351523
0.0350763
0.0350121
0.0349591
0.034917
0.0348854
0.0348644
0.0348537
0.0348536
0.0348641
0.0348857
0.0349188
0.0349642
0.0350228
0.0350957
0.0351844
0.0352904
0.0354158
0.035563
0.0357344
0.0359333
0.0361627
0.0364262
0.0367273
0.047756
0.0472563
0.0463226
0.0451184
0.043874
0.0427631
0.0418343
0.0410439
0.0403354
0.039687
0.039104
0.0385918
0.0381437
0.0377474
0.0373929
0.0370746
0.0367893
0.0365339
0.0363051
0.0360999
0.0359159
0.035751
0.0356038
0.0354727
0.0353566
0.0352544
0.0351652
0.0350885
0.0350234
0.0349696
0.0349268
0.0348945
0.0348728
0.0348615
0.0348608
0.0348708
0.0348919
0.0349246
0.0349696
0.0350278
0.0351002
0.0351881
0.0352932
0.0354173
0.0355624
0.035731
0.0359257
0.0361491
0.0364043
0.0366939
0.0472714
0.0468225
0.0459794
0.0448802
0.0437232
0.0426667
0.0417666
0.0409954
0.0403054
0.0396738
0.0391026
0.0385969
0.0381526
0.0377591
0.0374069
0.0370902
0.0368058
0.0365507
0.0363218
0.0361164
0.035932
0.0357666
0.0356187
0.035487
0.0353701
0.0352671
0.0351772
0.0350996
0.0350337
0.0349791
0.0349354
0.0349024
0.0348799
0.0348679
0.0348665
0.0348758
0.0348963
0.0349284
0.0349727
0.0350301
0.0351016
0.0351885
0.0352921
0.0354142
0.0355566
0.0357214
0.0359109
0.0361273
0.0363729
0.0366498
0.0468039
0.0464003
0.0456385
0.0446355
0.0435619
0.0425607
0.0416918
0.040941
0.0402694
0.0396547
0.0390961
0.038598
0.0381581
0.0377678
0.0374182
0.0371035
0.0368202
0.0365656
0.0363369
0.0361314
0.0359467
0.0357809
0.0356325
0.0355
0.0353824
0.0352787
0.035188
0.0351095
0.0350428
0.0349874
0.0349428
0.034909
0.0348857
0.0348728
0.0348706
0.0348791
0.0348987
0.0349299
0.0349733
0.0350296
0.0350999
0.0351851
0.0352867
0.0354062
0.0355451
0.0357053
0.0358887
0.036097
0.036332
0.0365951
0.0463527
0.0459895
0.0453008
0.0443857
0.0433912
0.0424454
0.0416097
0.0408804
0.0402274
0.0396297
0.0390842
0.0385947
0.03816
0.0377734
0.0374267
0.0371142
0.0368323
0.0365785
0.0363502
0.0361447
0.0359599
0.0357938
0.0356448
0.0355118
0.0353935
0.035289
0.0351975
0.0351182
0.0350506
0.0349943
0.0349488
0.0349141
0.0348898
0.0348761
0.0348729
0.0348804
0.034899
0.0349291
0.0349712
0.0350261
0.0350947
0.0351779
0.0352769
0.0353931
0.0355278
0.0356826
0.0358589
0.0360582
0.0362816
0.03653
0.0459168
0.0455896
0.0449665
0.0441319
0.0432119
0.042321
0.0415201
0.0408137
0.0401795
0.0395988
0.039067
0.0385868
0.0381581
0.0377756
0.0374321
0.0371221
0.036842
0.0365893
0.0363615
0.0361562
0.0359714
0.035805
0.0356557
0.0355221
0.0354032
0.0352979
0.0352056
0.0351254
0.035057
0.0349997
0.0349533
0.0349176
0.0348923
0.0348775
0.0348732
0.0348796
0.0348969
0.0349256
0.0349662
0.0350194
0.0350858
0.0351665
0.0352624
0.0353747
0.0355045
0.0356531
0.0358216
0.0360109
0.0362219
0.0364548
0.0454953
0.0452002
0.0446363
0.043875
0.043025
0.0421881
0.041423
0.0407407
0.0401257
0.0395619
0.0390442
0.0385742
0.0381522
0.0377743
0.0374344
0.0371272
0.0368491
0.0365977
0.0363706
0.0361658
0.035981
0.0358145
0.0356648
0.0355308
0.0354112
0.0353053
0.0352122
0.0351312
0.0350618
0.0350035
0.0349561
0.0349193
0.0348929
0.0348769
0.0348713
0.0348764
0.0348923
0.0349194
0.0349581
0.0350091
0.0350731
0.0351508
0.035243
0.0353508
0.035475
0.0356167
0.0357765
0.0359552
0.0361531
0.0363699
0.0450873
0.044821
0.0443103
0.043616
0.0428315
0.0420471
0.0413185
0.0406613
0.0400659
0.0395192
0.0390159
0.0385566
0.038142
0.0377693
0.0374333
0.0371292
0.0368534
0.0366036
0.0363775
0.0361732
0.0359886
0.0358221
0.0356722
0.0355377
0.0354176
0.035311
0.0352171
0.0351352
0.0350649
0.0350056
0.0349571
0.0349191
0.0348915
0.0348742
0.0348672
0.0348707
0.0348849
0.0349101
0.0349467
0.0349952
0.0350563
0.0351305
0.0352185
0.0353212
0.0354392
0.0355733
0.0357238
0.0358912
0.0360753
0.0362756
0.0446921
0.0444517
0.0439888
0.0433555
0.0426322
0.0418985
0.0412067
0.0405755
0.0400002
0.0394707
0.0389819
0.0385339
0.0381273
0.0377604
0.0374287
0.037128
0.0368548
0.0366068
0.0363819
0.0361783
0.0359941
0.0358277
0.0356776
0.0355428
0.0354222
0.0353149
0.0352202
0.0351374
0.0350661
0.0350057
0.0349561
0.0349168
0.0348879
0.0348691
0.0348606
0.0348623
0.0348746
0.0348976
0.0349318
0.0349775
0.0350352
0.0351054
0.0351888
0.0352858
0.0353971
0.0355229
0.0356636
0.0358191
0.035989
0.0361725
0.0443091
0.0440917
0.043672
0.0430943
0.042428
0.0417429
0.0410879
0.0404832
0.0399285
0.0394164
0.0389423
0.038506
0.0381081
0.0377473
0.0374204
0.0371234
0.036853
0.0366071
0.0363837
0.0361809
0.0359973
0.035831
0.0356809
0.0355458
0.0354247
0.0353168
0.0352213
0.0351376
0.0350653
0.0350038
0.0349529
0.0349123
0.0348819
0.0348615
0.0348512
0.0348511
0.0348612
0.0348818
0.0349131
0.0349556
0.0350096
0.0350755
0.0351536
0.0352445
0.0353484
0.0354655
0.0355958
0.035739
0.0358944
0.0360609
0.0439375
0.0437409
0.04336
0.042833
0.0422195
0.041581
0.0409623
0.0403847
0.0398509
0.0393562
0.038897
0.0384728
0.038084
0.0377301
0.0374082
0.0371152
0.036848
0.0366044
0.0363826
0.036181
0.0359979
0.035832
0.0356819
0.0355466
0.0354251
0.0353165
0.0352203
0.0351357
0.0350623
0.0349997
0.0349474
0.0349054
0.0348734
0.0348513
0.0348391
0.0348368
0.0348445
0.0348624
0.0348906
0.0349296
0.0349794
0.0350405
0.035113
0.0351973
0.0352934
0.0354013
0.0355208
0.0356513
0.035792
0.0359415
0.0435768
0.0433987
0.043053
0.0425721
0.0420076
0.0414133
0.0408303
0.0402798
0.0397673
0.0392903
0.0388461
0.0384342
0.0380551
0.0377084
0.037392
0.0371033
0.0368395
0.0365984
0.0363785
0.0361782
0.0359959
0.0358305
0.0356805
0.035545
0.0354231
0.035314
0.035217
0.0351315
0.035057
0.0349931
0.0349395
0.0348959
0.0348622
0.0348382
0.0348239
0.0348192
0.0348243
0.0348392
0.0348641
0.0348991
0.0349445
0.0350003
0.0350668
0.035144
0.0352319
0.0353302
0.0354386
0.0355562
0.0356822
0.0358148
0.0432263
0.043065
0.0427509
0.0423121
0.0417928
0.0412404
0.0406921
0.0401689
0.0396779
0.0392187
0.0387896
0.0383903
0.0380211
0.0376821
0.0373716
0.0370875
0.0368273