/*--------------------------------*- C++ -*----------------------------------*\
  =========                 |
  \\      /  F ield         | OpenFOAM: The Open Source CFD Toolbox
   \\    /   O peration     | Website:  https://openfoam.org
    \\  /    A nd           | Version:  7
     \\/     M anipulation  |
\*---------------------------------------------------------------------------*/
FoamFile
{
    version     2.0;
    format      ascii;
    class       surfaceScalarField;
    location    "0.26";
    object      phi;
}
// * * * * * * * * * * * * * * * * * * * * * * * * * * * * * * * * * * * * * //

dimensions      [0 3 -1 0 0 0 0];

internalField   nonuniform List<scalar> 
139350
(
6.4512e-08
9.21195e-08
3.19643e-08
3.25477e-08
2.30587e-08
8.90558e-09
1.95736e-08
3.48517e-09
1.76211e-08
1.95244e-09
1.61903e-08
1.43085e-09
1.50566e-08
1.1337e-09
1.41434e-08
9.13208e-10
1.3392e-08
7.51383e-10
1.27591e-08
6.32884e-10
1.22159e-08
5.43182e-10
1.17431e-08
4.72818e-10
1.13269e-08
4.16195e-10
1.09571e-08
3.69787e-10
1.06259e-08
3.31188e-10
1.03273e-08
2.98675e-10
1.00563e-08
2.7098e-10
9.80913e-09
2.47156e-10
9.58264e-09
2.26482e-10
9.37424e-09
2.08401e-10
9.18177e-09
1.92478e-10
9.0034e-09
1.78366e-10
8.83761e-09
1.6579e-10
8.68309e-09
1.54521e-10
8.53871e-09
1.44376e-10
8.40351e-09
1.35202e-10
8.27664e-09
1.26867e-10
8.15738e-09
1.19267e-10
8.04507e-09
1.12302e-10
7.93917e-09
1.05903e-10
7.83919e-09
9.99819e-11
7.74469e-09
9.45023e-11
7.65532e-09
8.93679e-11
7.57073e-09
8.45861e-11
7.49072e-09
8.00172e-11
7.41498e-09
7.57374e-11
7.34345e-09
7.15268e-11
7.27592e-09
6.75313e-11
7.21243e-09
6.3485e-11
7.15301e-09
5.94241e-11
7.09756e-09
5.54492e-11
7.04702e-09
5.05442e-11
7.00001e-09
4.70028e-11
6.96081e-09
3.92053e-11
6.92261e-09
3.82007e-11
6.90139e-09
2.12189e-11
6.86728e-09
3.411e-11
6.89805e-09
-3.07681e-11
6.69253e-09
2.05522e-10
-3.14136e-09
9.83389e-09
1.25943e-07
1.2762e-07
9.12893e-08
6.72012e-08
7.19365e-08
2.82584e-08
6.1221e-08
1.42007e-08
5.47844e-08
8.38904e-09
5.02889e-08
5.92635e-09
4.68036e-08
4.61904e-09
4.39893e-08
3.72753e-09
4.16653e-08
3.07538e-09
3.97062e-08
2.59199e-09
3.80247e-08
2.22459e-09
3.6561e-08
1.93656e-09
3.52722e-08
1.70496e-09
3.41269e-08
1.51517e-09
3.31008e-08
1.35728e-09
3.21752e-08
1.22426e-09
3.13353e-08
1.11091e-09
3.0569e-08
1.01338e-09
2.98668e-08
9.28718e-10
2.92205e-08
8.5466e-10
2.86236e-08
7.89424e-10
2.80704e-08
7.31599e-10
2.75561e-08
6.80051e-10
2.70768e-08
6.33859e-10
2.66289e-08
5.92268e-10
2.62094e-08
5.5465e-10
2.58158e-08
5.20481e-10
2.54458e-08
4.89322e-10
2.50973e-08
4.60787e-10
2.47686e-08
4.3457e-10
2.44582e-08
4.10357e-10
2.41648e-08
3.87955e-10
2.38871e-08
3.67048e-10
2.36241e-08
3.47586e-10
2.3375e-08
3.29131e-10
2.31388e-08
3.1188e-10
2.29153e-08
2.95069e-10
2.27035e-08
2.79326e-10
2.25037e-08
2.63281e-10
2.2315e-08
2.48163e-10
2.21385e-08
2.31909e-10
2.19732e-08
2.15814e-10
2.18216e-08
1.9865e-10
2.16833e-08
1.77507e-10
2.156e-08
1.61461e-10
2.14605e-08
1.20793e-10
2.13628e-08
1.31792e-10
2.13733e-08
-4.12996e-11
2.11575e-08
4.2134e-10
-3.84505e-09
2.18612e-08
1.58752e-07
1.35272e-07
1.36527e-07
8.94267e-08
1.17494e-07
4.72914e-08
1.03317e-07
2.83769e-08
9.33248e-08
1.83816e-08
8.60263e-08
1.32249e-08
8.03208e-08
1.03246e-08
7.5672e-08
8.37635e-09
7.17975e-08
6.94986e-09
6.85097e-08
5.87979e-09
6.56752e-08
5.0591e-09
6.31992e-08
4.41258e-09
6.1013e-08
3.89108e-09
5.90656e-08
3.46262e-09
5.73175e-08
3.10536e-09
5.5738e-08
2.80374e-09
5.43027e-08
2.54629e-09
5.29916e-08
2.32444e-09
5.17887e-08
2.13162e-09
5.06806e-08
1.96274e-09
4.96562e-08
1.81384e-09
4.87061e-08
1.68174e-09
4.78222e-08
1.56388e-09
4.69979e-08
1.45819e-09
4.62272e-08
1.36297e-09
4.5505e-08
1.2768e-09
4.4827e-08
1.1985e-09
4.41893e-08
1.12706e-09
4.35884e-08
1.06164e-09
4.30215e-08
1.00151e-09
4.24858e-08
9.46018e-10
4.19791e-08
8.94672e-10
4.14993e-08
8.46839e-10
4.10446e-08
8.02323e-10
4.06134e-08
7.60283e-10
4.02043e-08
7.21026e-10
3.98163e-08
6.83013e-10
3.9448e-08
6.47626e-10
3.90997e-08
6.11645e-10
3.87692e-08
5.78688e-10
3.84589e-08
5.42129e-10
3.81652e-08
5.09527e-10
3.78948e-08
4.69087e-10
3.76406e-08
4.3172e-10
3.74154e-08
3.8659e-10
3.72137e-08
3.22561e-10
3.70357e-08
3.0973e-10
3.69586e-08
3.57932e-11
3.68284e-08
5.51586e-10
-3.56429e-09
3.65476e-08
1.75611e-07
1.31176e-07
1.65623e-07
9.94146e-08
1.52735e-07
6.01793e-08
1.40127e-07
4.09848e-08
1.29449e-07
2.90599e-08
1.20812e-07
2.18613e-08
1.13703e-07
1.74337e-08
1.07726e-07
1.43534e-08
1.02631e-07
1.20451e-08
9.8235e-08
1.02758e-08
9.43983e-08
8.8958e-09
9.10153e-08
7.7956e-09
8.80061e-08
6.90034e-09
8.5309e-08
6.15966e-09
8.28759e-08
5.53853e-09
8.0668e-08
5.01159e-09
7.86543e-08
4.56001e-09
7.68092e-08
4.16949e-09
7.51118e-08
3.82906e-09
7.35444e-08
3.53015e-09
7.20923e-08
3.26598e-09
7.07429e-08
3.03113e-09
6.94855e-08
2.82124e-09
6.8311e-08
2.63273e-09
6.72113e-08
2.46264e-09
6.61796e-08
2.30853e-09
6.52097e-08
2.16832e-09
6.42965e-08
2.04029e-09
6.34352e-08
1.92293e-09
6.26217e-08
1.81501e-09
6.18524e-08
1.71536e-09
6.11239e-08
1.62311e-09
6.04335e-08
1.53723e-09
5.97786e-08
1.45729e-09
5.91569e-08
1.38196e-09
5.85663e-08
1.31163e-09
5.80055e-08
1.24385e-09
5.74722e-08
1.18087e-09
5.69666e-08
1.11721e-09
5.64858e-08
1.05953e-09
5.60326e-08
9.95318e-10
5.56017e-08
9.40488e-10
5.52016e-08
8.69115e-10
5.48222e-08
8.11198e-10
5.44807e-08
7.28019e-10
5.41654e-08
6.37841e-10
5.38896e-08
5.85603e-10
5.36949e-08
2.30419e-10
5.3574e-08
6.72517e-10
-2.99857e-09
5.30083e-08
1.8451e-07
1.23452e-07
1.8234e-07
1.01584e-07
1.7612e-07
6.6399e-08
1.67764e-07
4.93413e-08
1.59146e-07
3.76775e-08
1.51244e-07
2.97642e-08
1.44175e-07
2.45027e-08
1.37879e-07
2.06489e-08
1.32284e-07
1.76399e-08
1.27306e-07
1.52542e-08
1.22858e-07
1.33435e-08
1.18864e-07
1.17892e-08
1.1526e-07
1.05044e-08
1.11992e-07
9.42796e-09
1.09015e-07
8.51589e-09
1.06291e-07
7.7354e-09
1.03789e-07
7.06162e-09
1.01484e-07
6.47531e-09
9.93511e-08
5.96144e-09
9.73731e-08
5.50813e-09
9.55332e-08
5.10587e-09
9.38174e-08
4.74698e-09
9.22134e-08
4.4252e-09
9.07108e-08
4.13537e-09
8.93003e-08
3.87319e-09
8.79737e-08
3.63509e-09
8.6724e-08
3.41803e-09
8.55448e-08
3.21944e-09
8.44306e-08
3.03713e-09
8.33764e-08
2.8692e-09
8.23778e-08
2.71398e-09
8.14308e-08
2.57012e-09
8.05319e-08
2.43614e-09
7.96779e-08
2.3113e-09
7.88661e-08
2.19377e-09
7.80938e-08
2.08396e-09
7.73591e-08
1.97846e-09
7.66596e-08
1.8804e-09
7.59949e-08
1.78194e-09
7.53616e-08
1.69282e-09
7.47624e-08
1.59452e-09
7.41915e-08
1.51136e-09
7.36573e-08
1.4033e-09
7.31497e-08
1.31889e-09
7.26848e-08
1.19285e-09
7.22523e-08
1.07035e-09
7.18675e-08
9.70471e-10
7.15534e-08
5.44463e-10
7.13582e-08
8.6774e-10
-2.33886e-09
7.06985e-08
1.90342e-07
1.15326e-07
1.91858e-07
1.00068e-07
1.90262e-07
6.79957e-08
1.86157e-07
5.3446e-08
1.8072e-07
4.31149e-08
1.7497e-07
3.55136e-08
1.69277e-07
3.01962e-08
1.63796e-07
2.61292e-08
1.58626e-07
2.28099e-08
1.53809e-07
2.00718e-08
1.49346e-07
1.7806e-08
1.45222e-07
1.59129e-08
1.41413e-07
1.43136e-08
1.37892e-07
1.2949e-08
1.34633e-07
1.17749e-08
1.31612e-07
1.07572e-08
1.28804e-07
9.86877e-09
1.26191e-07
9.08834e-09
1.23754e-07
8.39868e-09
1.21476e-07
7.78589e-09
1.19344e-07
7.23867e-09
1.17343e-07
6.74771e-09
1.15463e-07
6.30532e-09
1.13693e-07
5.90507e-09
1.12025e-07
5.54157e-09
1.10449e-07
5.21025e-09
1.0896e-07
4.90723e-09
1.0755e-07
4.62918e-09
1.06214e-07
4.37323e-09
1.04947e-07
4.1369e-09
1.03743e-07
3.91799e-09
1.02598e-07
3.7147e-09
1.01509e-07
3.52509e-09
1.00472e-07
3.34812e-09
9.94846e-08
3.18146e-09
9.85431e-08
3.02549e-09
9.76456e-08
2.87593e-09
9.67894e-08
2.73659e-09
9.59738e-08
2.59757e-09
9.51955e-08
2.47118e-09
9.44562e-08
2.33374e-09
9.37512e-08
2.21642e-09
9.30866e-08
2.06783e-09
9.24553e-08
1.95024e-09
9.18685e-08
1.77967e-09
9.13223e-08
1.61648e-09
9.08257e-08
1.46709e-09
9.03985e-08
9.71668e-10
9.00975e-08
1.16871e-09
-1.60215e-09
8.93608e-08
1.95504e-07
1.07637e-07
1.98246e-07
9.73257e-08
1.98984e-07
6.72576e-08
1.9779e-07
5.46403e-08
1.95157e-07
4.57486e-08
1.91818e-07
3.88519e-08
1.88089e-07
3.39259e-08
1.8414e-07
3.00775e-08
1.80124e-07
2.68263e-08
1.7615e-07
2.4046e-08
1.72286e-07
2.16701e-08
1.6857e-07
1.96282e-08
1.65024e-07
1.78597e-08
1.61655e-07
1.63178e-08
1.58464e-07
1.49658e-08
1.55447e-07
1.37744e-08
1.52597e-07
1.27193e-08
1.49904e-07
1.17808e-08
1.47361e-07
1.09421e-08
1.44957e-07
1.01896e-08
1.42684e-07
9.51175e-09
1.40533e-07
8.89887e-09
1.38495e-07
8.34278e-09
1.36564e-07
7.83651e-09
1.34731e-07
7.37414e-09
1.32991e-07
6.95055e-09
1.31337e-07
6.56134e-09
1.29763e-07
6.20268e-09
1.28265e-07
5.87125e-09
1.26838e-07
5.56416e-09
1.25477e-07
5.27878e-09
1.24179e-07
5.01298e-09
1.2294e-07
4.76444e-09
1.21756e-07
4.53188e-09
1.20625e-07
4.31254e-09
1.19544e-07
4.10674e-09
1.1851e-07
3.90951e-09
1.17522e-07
3.72512e-09
1.16577e-07
3.54206e-09
1.15674e-07
3.37443e-09
1.14813e-07
3.19488e-09
1.1399e-07
3.03887e-09
1.1321e-07
2.848e-09
1.12469e-07
2.69126e-09
1.11772e-07
2.47676e-09
1.11123e-07
2.26495e-09
1.10524e-07
2.06698e-09
1.09991e-07
1.50389e-09
1.09586e-07
1.5745e-09
-7.95115e-10
1.08779e-07
2.00819e-07
1.00403e-07
2.03771e-07
9.43738e-08
2.05344e-07
6.56847e-08
2.05645e-07
5.43396e-08
2.04814e-07
4.6579e-08
2.03335e-07
4.03307e-08
2.01389e-07
3.58725e-08
1.9906e-07
3.24067e-08
1.96455e-07
2.9431e-08
1.93677e-07
2.68236e-08
1.90808e-07
2.45398e-08
1.87906e-07
2.25299e-08
1.85017e-07
2.07488e-08
1.82172e-07
1.91624e-08
1.79394e-07
1.77438e-08
1.76698e-07
1.64711e-08
1.74091e-07
1.53258e-08
1.7158e-07
1.42921e-08
1.69166e-07
1.33562e-08
1.66849e-07
1.25065e-08
1.64627e-07
1.17329e-08
1.625e-07
1.10268e-08
1.60462e-07
1.03804e-08
1.58511e-07
9.78736e-09
1.56643e-07
9.24179e-09
1.54855e-07
8.73869e-09
1.53143e-07
8.27363e-09
1.51503e-07
7.84271e-09
1.49932e-07
7.44249e-09
1.48426e-07
7.0699e-09
1.46983e-07
6.72217e-09
1.45599e-07
6.39698e-09
1.44271e-07
6.09184e-09
1.42998e-07
5.80529e-09
1.41776e-07
5.53434e-09
1.40603e-07
5.27923e-09
1.39478e-07
5.03454e-09
1.38399e-07
4.80478e-09
1.37363e-07
4.57743e-09
1.3637e-07
4.36747e-09
1.3542e-07
4.14556e-09
1.3451e-07
3.94876e-09
1.33642e-07
3.71617e-09
1.32816e-07
3.51658e-09
1.32033e-07
3.26039e-09
1.31303e-07
2.99506e-09
1.3062e-07
2.74988e-09
1.29998e-07
2.12591e-09
1.29501e-07
2.07126e-09
6.02687e-11
1.28645e-07
2.06422e-07
9.35122e-08
2.09331e-07
9.14656e-08
2.11055e-07
6.39603e-08
2.11935e-07
5.34595e-08
2.11998e-07
4.65162e-08
2.11613e-07
4.07156e-08
2.10884e-07
3.66016e-08
2.09813e-07
3.34771e-08
2.08441e-07
3.0804e-08
2.06824e-07
2.84406e-08
2.05018e-07
2.63451e-08
2.03074e-07
2.44743e-08
2.01033e-07
2.27898e-08
1.98931e-07
2.1264e-08
1.96798e-07
1.98766e-08
1.94658e-07
1.86117e-08
1.92528e-07
1.74558e-08
1.90423e-07
1.63973e-08
1.88353e-07
1.5426e-08
1.86326e-07
1.45331e-08
1.84348e-07
1.37108e-08
1.82423e-07
1.29522e-08
1.80553e-07
1.2251e-08
1.78738e-07
1.16017e-08
1.7698e-07
1.09995e-08
1.75279e-07
1.04399e-08
1.73634e-07
9.91887e-09
1.72044e-07
9.43292e-09
1.70508e-07
8.97882e-09
1.69024e-07
8.55364e-09
1.67591e-07
8.15474e-09
1.66208e-07
7.77983e-09
1.64874e-07
7.42643e-09
1.63586e-07
7.09308e-09
1.62344e-07
6.77671e-09
1.61145e-07
6.47759e-09
1.5999e-07
6.19005e-09
1.58876e-07
5.91869e-09
1.57803e-07
5.65056e-09
1.56769e-07
5.40073e-09
1.55776e-07
5.13942e-09
1.54821e-07
4.90292e-09
1.53906e-07
4.6318e-09
1.53034e-07
4.3889e-09
1.52199e-07
4.09487e-09
1.51419e-07
3.77551e-09
1.50684e-07
3.48478e-09
1.49998e-07
2.81147e-09
1.49433e-07
2.63631e-09
9.33651e-10
1.4856e-07
2.12269e-07
8.69059e-08
2.15139e-07
8.85947e-08
2.1681e-07
6.22899e-08
2.1785e-07
5.24199e-08
2.18257e-07
4.61084e-08
2.18374e-07
4.05988e-08
2.18298e-07
3.66776e-08
2.17998e-07
3.37773e-08
2.17468e-07
3.13344e-08
2.16726e-07
2.91826e-08
2.15796e-07
2.72747e-08
2.14704e-07
2.55663e-08
2.13475e-07
2.40184e-08
2.12136e-07
2.26036e-08
2.10709e-07
2.13037e-08
2.09216e-07
2.01048e-08
2.07675e-07
1.89962e-08
2.06103e-07
1.79689e-08
2.04514e-07
1.70152e-08
2.02919e-07
1.61286e-08
2.01326e-07
1.53032e-08
1.99745e-07
1.45337e-08
1.9818e-07
1.38157e-08
1.96637e-07
1.31447e-08
1.9512e-07
1.25169e-08
1.93631e-07
1.19288e-08
1.92173e-07
1.13771e-08
1.90747e-07
1.08588e-08
1.89354e-07
1.03713e-08
1.87996e-07
9.91184e-09
1.86673e-07
9.47822e-09
1.85384e-07
9.06836e-09
1.8413e-07
8.67998e-09
1.82912e-07
8.31174e-09
1.81728e-07
7.96068e-09
1.80578e-07
7.62712e-09
1.79463e-07
7.30541e-09
1.78382e-07
7.00012e-09
1.77334e-07
6.69833e-09
1.7632e-07
6.41464e-09
1.75339e-07
6.12007e-09
1.74394e-07
5.8483e-09
1.73481e-07
5.54444e-09
1.72609e-07
5.26133e-09
1.71769e-07
4.93495e-09
1.70979e-07
4.56568e-09
1.70231e-07
4.23216e-09
1.69519e-07
3.52398e-09
1.68917e-07
3.23779e-09
1.79103e-09
1.6806e-07
2.18314e-07
8.05722e-08
2.21189e-07
8.57205e-08
2.22783e-07
6.0696e-08
2.23851e-07
5.13519e-08
2.24367e-07
4.5592e-08
2.24661e-07
4.03046e-08
2.24861e-07
3.64774e-08
2.24939e-07
3.36996e-08
2.24873e-07
3.13999e-08
2.24665e-07
2.93909e-08
2.24319e-07
2.76212e-08
2.2384e-07
2.60449e-08
2.23238e-07
2.46201e-08
2.22525e-07
2.33169e-08
2.21713e-07
2.21158e-08
2.20815e-07
2.10026e-08
2.19845e-07
1.99667e-08
2.18814e-07
1.89997e-08
2.17734e-07
1.80949e-08
2.16616e-07
1.72468e-08
2.15469e-07
1.64505e-08
2.14301e-07
1.5702e-08
2.13119e-07
1.49977e-08
2.11929e-07
1.43343e-08
2.10737e-07
1.37087e-08
2.09548e-07
1.31183e-08
2.08364e-07
1.25604e-08
2.07191e-07
1.20326e-08
2.06029e-07
1.15328e-08
2.04882e-07
1.10589e-08
2.03751e-07
1.06088e-08
2.02639e-07
1.01809e-08
2.01546e-07
9.77311e-09
2.00473e-07
9.38439e-09
1.99422e-07
9.01191e-09
1.98393e-07
8.65615e-09
1.97387e-07
8.31158e-09
1.96404e-07
7.9827e-09
1.95445e-07
7.657e-09
1.94512e-07
7.3481e-09
1.93603e-07
7.02888e-09
1.92723e-07
6.72899e-09
1.91867e-07
6.40026e-09
1.91045e-07
6.08318e-09
1.90248e-07
5.73131e-09
1.89494e-07
5.32009e-09
1.88778e-07
4.94829e-09
1.88081e-07
4.22078e-09
1.87481e-07
3.83757e-09
2.59656e-09
1.86676e-07
2.24548e-07
7.45173e-08
2.27449e-07
8.282e-08
2.28978e-07
5.91663e-08
2.30053e-07
5.02768e-08
2.3061e-07
4.50351e-08
2.30953e-07
3.99619e-08
2.31243e-07
3.61877e-08
2.31468e-07
3.3474e-08
2.31611e-07
3.1257e-08
2.3167e-07
2.93323e-08
2.31643e-07
2.76476e-08
2.3153e-07
2.61582e-08
2.3133e-07
2.48204e-08
2.31044e-07
2.36026e-08
2.30677e-07
2.24829e-08
2.30233e-07
2.14461e-08
2.2972e-07
2.04805e-08
2.29142e-07
1.95773e-08
2.28507e-07
1.87294e-08
2.27823e-07
1.79313e-08
2.27095e-07
1.71784e-08
2.2633e-07
1.6467e-08
2.25534e-07
1.57937e-08
2.24712e-07
1.51559e-08
2.2387e-07
1.4551e-08
2.23012e-07
1.39767e-08
2.22141e-07
1.34308e-08
2.21262e-07
1.29114e-08
2.20378e-07
1.24167e-08
2.19492e-07
1.1945e-08
2.18607e-07
1.14945e-08
2.17724e-07
1.10639e-08
2.16845e-07
1.06514e-08
2.15974e-07
1.0256e-08
2.1511e-07
9.87531e-09
2.14257e-07
9.50978e-09
2.13414e-07
9.15415e-09
2.12584e-07
8.81273e-09
2.11767e-07
8.47368e-09
2.10966e-07
8.14932e-09
2.1018e-07
7.81506e-09
2.09413e-07
7.49566e-09
2.08663e-07
7.15091e-09
2.07938e-07
6.80806e-09
2.07231e-07
6.43827e-09
2.06555e-07
5.99554e-09
2.05912e-07
5.59152e-09
2.05273e-07
4.85968e-09
2.04714e-07
4.39669e-09
3.31666e-09
2.03994e-07
2.30974e-07
6.87492e-08
2.33909e-07
7.98846e-08
2.35382e-07
5.76935e-08
2.36466e-07
4.91935e-08
2.37055e-07
4.44454e-08
2.37413e-07
3.96043e-08
2.37724e-07
3.58763e-08
2.37996e-07
3.32025e-08
2.38214e-07
3.10386e-08
2.38382e-07
2.91646e-08
2.38501e-07
2.75288e-08
2.38569e-07
2.609e-08
2.38584e-07
2.48055e-08
2.38544e-07
2.36425e-08
2.38449e-07
2.25782e-08
2.38298e-07
2.15963e-08
2.38094e-07
2.06844e-08
2.37839e-07
1.98328e-08
2.37535e-07
1.90337e-08
2.37185e-07
1.82814e-08
2.36792e-07
1.75708e-08
2.36361e-07
1.68981e-08
2.35895e-07
1.626e-08
2.35397e-07
1.56537e-08
2.34871e-07
1.50767e-08
2.34321e-07
1.4527e-08
2.33749e-07
1.40026e-08
2.33159e-07
1.35017e-08
2.32553e-07
1.30226e-08
2.31934e-07
1.25638e-08
2.31305e-07
1.21238e-08
2.30668e-07
1.17014e-08
2.30024e-07
1.1295e-08
2.29376e-07
1.09038e-08
2.28726e-07
1.05253e-08
2.28076e-07
1.01602e-08
2.27427e-07
9.80351e-09
2.2678e-07
9.45918e-09
2.26138e-07
9.11625e-09
2.25501e-07
8.78539e-09
2.24871e-07
8.44505e-09
2.24253e-07
8.1146e-09
2.23641e-07
7.76218e-09
2.23047e-07
7.40229e-09
2.22463e-07
7.0218e-09
2.219e-07
6.55874e-09
2.21362e-07
6.12943e-09
2.20816e-07
5.40621e-09
2.20331e-07
4.88203e-09
3.925e-09
2.19722e-07
2.376e-07
6.32737e-08
2.40575e-07
7.69099e-08
2.41991e-07
5.62779e-08
2.43081e-07
4.81029e-08
2.43707e-07
4.38191e-08
2.44078e-07
3.92337e-08
2.44395e-07
3.55594e-08
2.44679e-07
3.29185e-08
2.4492e-07
3.07975e-08
2.45124e-07
2.89605e-08
2.45297e-07
2.73557e-08
2.4544e-07
2.5947e-08
2.45552e-07
2.46936e-08
2.45632e-07
2.35631e-08
2.45677e-07
2.25324e-08
2.45688e-07
2.15851e-08
2.45665e-07
2.07082e-08
2.45606e-07
1.98918e-08
2.45512e-07
1.91276e-08
2.45384e-07
1.84093e-08
2.45223e-07
1.77318e-08
2.4503e-07
1.70907e-08
2.44807e-07
1.64827e-08
2.44556e-07
1.59049e-08
2.44278e-07
1.53545e-08
2.43976e-07
1.48295e-08
2.43651e-07
1.43279e-08
2.43304e-07
1.38479e-08
2.42939e-07
1.33878e-08
2.42557e-07
1.29462e-08
2.42159e-07
1.25216e-08
2.41748e-07
1.21129e-08
2.41324e-07
1.17183e-08
2.40891e-07
1.13373e-08
2.40448e-07
1.09675e-08
2.39999e-07
1.06095e-08
2.39544e-07
1.02584e-08
2.39086e-07
9.91789e-09
2.38624e-07
9.57795e-09
2.38162e-07
9.24734e-09
2.37699e-07
8.90779e-09
2.37241e-07
8.57316e-09
2.36783e-07
8.2197e-09
2.36335e-07
7.85053e-09
2.35891e-07
7.46524e-09
2.35458e-07
6.99207e-09
2.35043e-07
6.54431e-09
2.3461e-07
5.8395e-09
2.3422e-07
5.27202e-09
4.407e-09
2.33738e-07
2.44435e-07
5.80944e-08
2.47449e-07
7.38969e-08
2.48809e-07
5.49176e-08
2.49902e-07
4.70096e-08
2.50567e-07
4.31544e-08
2.50954e-07
3.88467e-08
2.51275e-07
3.5238e-08
2.51565e-07
3.2629e-08
2.51813e-07
3.05487e-08
2.52028e-07
2.87456e-08
2.52218e-07
2.71657e-08
2.52387e-07
2.57782e-08
2.52536e-07
2.45452e-08
2.52664e-07
2.34349e-08
2.52772e-07
2.24246e-08
2.52859e-07
2.1498e-08
2.52924e-07
2.06425e-08
2.52969e-07
1.98477e-08
2.52991e-07
1.91056e-08
2.5299e-07
1.84095e-08
2.52968e-07
1.77542e-08
2.52923e-07
1.71352e-08
2.52857e-07
1.6549e-08
2.5277e-07
1.59923e-08
2.52662e-07
1.54626e-08
2.52534e-07
1.49576e-08
2.52386e-07
1.44751e-08
2.52221e-07
1.40133e-08
2.52038e-07
1.35706e-08
2.51839e-07
1.31453e-08
2.51625e-07
1.2736e-08
2.51396e-07
1.23415e-08
2.51154e-07
1.19601e-08
2.50901e-07
1.15912e-08
2.50636e-07
1.12323e-08
2.50361e-07
1.0884e-08
2.50078e-07
1.05417e-08
2.49788e-07
1.02083e-08
2.4949e-07
9.87508e-09
2.49189e-07
9.54861e-09
2.48883e-07
9.21395e-09
2.48576e-07
8.87971e-09
2.48267e-07
8.52938e-09
2.47961e-07
8.15678e-09
2.47655e-07
7.77064e-09
2.47352e-07
7.2954e-09
2.47061e-07
6.83515e-09
2.46746e-07
6.15479e-09
2.46458e-07
5.55962e-09
4.762e-09
2.46103e-07
2.51488e-07
5.32134e-08
2.54529e-07
7.08555e-08
2.55845e-07
5.36019e-08
2.56935e-07
4.5919e-08
2.57638e-07
4.24521e-08
2.58044e-07
3.84404e-08
2.58371e-07
3.49108e-08
2.58666e-07
3.23341e-08
2.5892e-07
3.02949e-08
2.59139e-07
2.85262e-08
2.59335e-07
2.69703e-08
2.59511e-07
2.56016e-08
2.59672e-07
2.4385e-08
2.59817e-07
2.32898e-08
2.59948e-07
2.22936e-08
2.60065e-07
2.13807e-08
2.60169e-07
2.05385e-08
2.60259e-07
1.97571e-08
2.60336e-07
1.90285e-08
2.604e-07
1.83461e-08
2.6045e-07
1.77046e-08
2.60485e-07
1.70995e-08
2.60507e-07
1.65272e-08
2.60515e-07
1.59845e-08
2.60509e-07
1.54688e-08
2.60489e-07
1.49776e-08
2.60455e-07
1.45089e-08
2.60407e-07
1.40606e-08
2.60347e-07
1.3631e-08
2.60274e-07
1.32186e-08
2.60188e-07
1.28218e-08
2.6009e-07
1.24392e-08
2.59981e-07
1.20693e-08
2.59861e-07
1.17112e-08
2.5973e-07
1.13626e-08
2.59591e-07
1.10238e-08
2.59442e-07
1.06905e-08
2.59285e-07
1.03648e-08
2.59121e-07
1.00392e-08
2.58952e-07
9.71819e-09
2.58776e-07
9.38989e-09
2.58597e-07
9.05828e-09
2.58414e-07
8.71282e-09
2.5823e-07
8.34045e-09
2.58045e-07
7.95542e-09
2.57857e-07
7.48354e-09
2.57677e-07
7.01539e-09
2.5747e-07
6.36194e-09
2.57278e-07
5.75149e-09
5.00216e-09
2.57038e-07
2.58765e-07
4.86309e-08
2.61825e-07
6.77964e-08
2.63107e-07
5.23195e-08
2.6419e-07
4.48361e-08
2.64927e-07
4.17144e-08
2.65355e-07
3.80129e-08
2.65689e-07
3.4577e-08
2.65989e-07
3.20336e-08
2.66249e-07
3.00355e-08
2.66472e-07
2.8303e-08
2.6667e-07
2.67721e-08
2.6685e-07
2.5422e-08
2.67014e-07
2.4221e-08
2.67164e-07
2.31393e-08
2.67303e-07
2.21552e-08
2.6743e-07
2.12529e-08
2.67548e-07
2.04207e-08
2.67657e-07
1.96486e-08
2.67756e-07
1.8929e-08
2.67847e-07
1.82553e-08
2.67929e-07
1.76224e-08
2.68003e-07
1.70259e-08
2.68068e-07
1.64623e-08
2.68124e-07
1.59283e-08
2.68172e-07
1.54213e-08
2.6821e-07
1.49389e-08
2.6824e-07
1.4479e-08
2.68261e-07
1.40397e-08
2.68273e-07
1.36191e-08
2.68276e-07
1.32156e-08
2.6827e-07
1.28276e-08
2.68256e-07
1.24538e-08
2.68232e-07
1.20924e-08
2.68201e-07
1.17427e-08
2.68161e-07
1.14022e-08
2.68114e-07
1.1071e-08
2.68059e-07
1.07452e-08
2.67998e-07
1.04261e-08
2.6793e-07
1.01072e-08
2.67857e-07
9.79123e-09
2.67778e-07
9.46893e-09
2.67696e-07
9.14043e-09
2.67609e-07
8.79977e-09
2.6752e-07
8.4294e-09
2.6743e-07
8.04595e-09
2.67333e-07
7.58038e-09
2.6724e-07
7.10762e-09
2.67122e-07
6.48064e-09
2.67009e-07
5.86407e-09
5.14853e-09
2.66863e-07
2.66277e-07
4.43457e-08
2.69344e-07
6.47302e-08
2.70603e-07
5.10599e-08
2.71674e-07
4.37652e-08
2.72444e-07
4.09445e-08
2.72894e-07
3.75625e-08
2.73236e-07
3.42356e-08
2.73542e-07
3.17273e-08
2.73807e-07
2.97703e-08
2.74035e-07
2.80756e-08
2.74236e-07
2.65711e-08
2.74418e-07
2.52402e-08
2.74584e-07
2.40551e-08
2.74736e-07
2.29869e-08
2.74877e-07
2.20142e-08
2.75008e-07
2.11219e-08
2.7513e-07
2.02984e-08
2.75245e-07
1.95341e-08
2.75352e-07
1.88215e-08
2.75453e-07
1.81544e-08
2.75548e-07
1.75276e-08
2.75637e-07
1.69369e-08
2.7572e-07
1.63789e-08
2.75798e-07
1.58504e-08
2.7587e-07
1.5349e-08
2.75937e-07
1.48721e-08
2.75999e-07
1.44178e-08
2.76054e-07
1.39841e-08
2.76104e-07
1.35692e-08
2.76148e-07
1.31715e-08
2.76186e-07
1.27893e-08
2.76219e-07
1.24214e-08
2.76246e-07
1.20658e-08
2.76266e-07
1.17219e-08
2.76282e-07
1.13871e-08
2.76291e-07
1.10613e-08
2.76295e-07
1.0741e-08
2.76295e-07
1.04267e-08
2.76289e-07
1.0113e-08
2.76279e-07
9.80086e-09
2.76265e-07
9.48329e-09
2.76248e-07
9.15744e-09
2.76227e-07
8.82055e-09
2.76204e-07
8.45273e-09
2.76179e-07
8.07045e-09
2.76147e-07
7.61236e-09
2.76118e-07
7.1373e-09
2.76064e-07
6.53453e-09
2.7601e-07
5.91808e-09
5.22576e-09
2.75932e-07
2.74032e-07
4.03547e-08
2.77095e-07
6.16678e-08
2.78342e-07
4.98129e-08
2.79397e-07
4.27099e-08
2.80195e-07
4.01461e-08
2.8067e-07
3.70877e-08
2.8102e-07
3.38858e-08
2.81332e-07
3.14153e-08
2.81603e-07
2.9499e-08
2.81835e-07
2.78435e-08
2.82039e-07
2.6367e-08
2.82223e-07
2.50561e-08
2.82391e-07
2.38873e-08
2.82545e-07
2.28329e-08
2.82687e-07
2.1872e-08
2.8282e-07
2.09896e-08
2.82943e-07
2.01746e-08
2.8306e-07
1.94177e-08
2.8317e-07
1.87116e-08
2.83274e-07
1.80502e-08
2.83373e-07
1.74285e-08
2.83468e-07
1.68425e-08
2.83558e-07
1.62887e-08
2.83644e-07
1.57643e-08
2.83726e-07
1.52667e-08
2.83805e-07
1.47936e-08
2.8388e-07
1.4343e-08
2.83951e-07
1.3913e-08
2.84018e-07
1.35018e-08
2.84082e-07
1.31078e-08
2.84142e-07
1.27295e-08
2.84198e-07
1.23653e-08
2.8425e-07
1.20137e-08
2.84298e-07
1.16735e-08
2.84343e-07
1.13426e-08
2.84383e-07
1.10205e-08
2.8442e-07
1.07039e-08
2.84454e-07
1.03929e-08
2.84484e-07
1.00828e-08
2.84512e-07
9.77322e-09
2.84536e-07
9.45896e-09
2.84559e-07
9.13504e-09
2.84579e-07
8.80065e-09
2.84596e-07
8.43534e-09
2.84613e-07
8.05366e-09
2.84622e-07
7.60314e-09
2.84632e-07
7.12753e-09
2.84621e-07
6.54591e-09
2.84605e-07
5.93369e-09
5.25736e-09
2.84573e-07
2.82039e-07
3.66532e-08
2.85087e-07
5.86203e-08
2.86331e-07
4.85688e-08
2.87367e-07
4.16731e-08
2.8819e-07
3.93237e-08
2.8869e-07
3.65872e-08
2.8905e-07
3.35265e-08
2.89367e-07
3.10978e-08
2.89645e-07
2.92215e-08
2.89882e-07
2.76064e-08
2.90089e-07
2.61594e-08
2.90276e-07
2.48696e-08
2.90446e-07
2.37176e-08
2.90601e-07
2.26774e-08
2.90745e-07
2.17285e-08
2.90878e-07
2.08564e-08
2.91002e-07
2.005e-08
2.9112e-07
1.93006e-08
2.9123e-07
1.86008e-08
2.91336e-07
1.79449e-08
2.91436e-07
1.73281e-08
2.91532e-07
1.67463e-08
2.91625e-07
1.61964e-08
2.91713e-07
1.56754e-08
2.91799e-07
1.51809e-08
2.91882e-07
1.47108e-08
2.91962e-07
1.4263e-08
2.92039e-07
1.38358e-08
2.92114e-07
1.34273e-08
2.92185e-07
1.30361e-08
2.92254e-07
1.26604e-08
2.92321e-07
1.22989e-08
2.92385e-07
1.19499e-08
2.92446e-07
1.16124e-08
2.92504e-07
1.12842e-08
2.9256e-07
1.09645e-08
2.92614e-07
1.06505e-08
2.92665e-07
1.03417e-08
2.92714e-07
1.0034e-08
2.92761e-07
9.72608e-09
2.92806e-07
9.414e-09
2.92849e-07
9.09144e-09
2.92891e-07
8.75853e-09
2.92931e-07
8.39555e-09
2.92971e-07
8.01411e-09
2.93003e-07
7.5708e-09
2.93035e-07
7.09615e-09
2.93048e-07
6.53264e-09
2.93054e-07
5.92735e-09
5.26258e-09
2.93049e-07
2.90307e-07
3.32347e-08
2.93329e-07
5.55987e-08
2.94579e-07
4.73189e-08
2.95595e-07
4.06568e-08
2.96437e-07
3.84822e-08
2.96964e-07
3.606e-08
2.97334e-07
3.31564e-08
2.97657e-07
3.07747e-08
2.97941e-07
2.89378e-08
2.98183e-07
2.7364e-08
2.98394e-07
2.59482e-08
2.98584e-07
2.46803e-08
2.98755e-07
2.35457e-08
2.98913e-07
2.25203e-08
2.99057e-07
2.15838e-08
2.99192e-07
2.07221e-08
2.99317e-07
1.99246e-08
2.99435e-07
1.91828e-08
2.99546e-07
1.84895e-08
2.99652e-07
1.78392e-08
2.99753e-07
1.72272e-08
2.99849e-07
1.66496e-08
2.99942e-07
1.61033e-08
3.00032e-07
1.55856e-08
3.00119e-07
1.50941e-08
3.00203e-07
1.46267e-08
3.00285e-07
1.41814e-08
3.00364e-07
1.37566e-08
3.00441e-07
1.33504e-08
3.00516e-07
1.29613e-08
3.00588e-07
1.25878e-08
3.00659e-07
1.22285e-08
3.00727e-07
1.18816e-08
3.00793e-07
1.15461e-08
3.00858e-07
1.12199e-08
3.0092e-07
1.09021e-08
3.00981e-07
1.059e-08
3.0104e-07
1.02827e-08
3.01097e-07
9.97675e-09
3.01153e-07
9.66998e-09
3.01208e-07
9.35936e-09
3.01261e-07
9.03787e-09
3.01314e-07
8.70583e-09
3.01364e-07
8.34509e-09
3.01414e-07
7.96393e-09
3.01458e-07
7.5274e-09
3.01499e-07
7.05515e-09
3.01524e-07
6.5072e-09
3.01541e-07
5.91069e-09
5.25537e-09
3.01548e-07
2.98846e-07
3.0091e-08
3.01831e-07
5.26142e-08
3.03094e-07
4.60553e-08
3.04089e-07
3.96624e-08
3.04944e-07
3.76269e-08
3.05499e-07
3.55055e-08
3.05881e-07
3.27741e-08
3.0621e-07
3.0446e-08
3.065e-07
2.86478e-08
3.06748e-07
2.71159e-08
3.06963e-07
2.57329e-08
3.07155e-07
2.44881e-08
3.07329e-07
2.33715e-08
3.07488e-07
2.23612e-08
3.07635e-07
2.14376e-08
3.0777e-07
2.05867e-08
3.07896e-07
1.97983e-08
3.08015e-07
1.90643e-08
3.08127e-07
1.83777e-08
3.08233e-07
1.77331e-08
3.08334e-07
1.71259e-08
3.08431e-07
1.65526e-08
3.08524e-07
1.601e-08
3.08614e-07
1.54956e-08
3.08701e-07
1.5007e-08
3.08786e-07
1.45422e-08
3.08868e-07
1.40993e-08
3.08948e-07
1.36767e-08
3.09026e-07
1.32727e-08
3.09101e-07
1.28857e-08
3.09175e-07
1.25142e-08
3.09247e-07
1.21567e-08
3.09316e-07
1.18117e-08
3.09385e-07
1.1478e-08
3.09451e-07
1.11535e-08
3.09516e-07
1.08373e-08
3.09579e-07
1.05268e-08
3.09641e-07
1.02207e-08
3.09701e-07
9.91622e-09
3.09761e-07
9.61044e-09
3.09819e-07
9.30091e-09
3.09877e-07
8.98046e-09
3.09934e-07
8.64907e-09
3.09988e-07
8.29062e-09
3.10042e-07
7.91012e-09
3.10089e-07
7.48005e-09
3.10133e-07
7.0116e-09
3.10163e-07
6.47735e-09
3.10182e-07
5.89101e-09
5.24478e-09
3.10193e-07
3.07666e-07
2.72124e-08
3.10602e-07
4.96782e-08
3.11886e-07
4.47711e-08
3.12858e-07
3.86904e-08
3.13722e-07
3.6763e-08
3.14304e-07
3.49237e-08
3.147e-07
3.23781e-08
3.15034e-07
3.01115e-08
3.1533e-07
2.83517e-08
3.15585e-07
2.68618e-08
3.15804e-07
2.55132e-08
3.16e-07
2.42928e-08
3.16176e-07
2.31948e-08
3.16337e-07
2.22001e-08
3.16485e-07
2.12897e-08
3.16622e-07
2.045e-08
3.16749e-07
1.9671e-08
3.16869e-07
1.89449e-08
3.16981e-07
1.82652e-08
3.17088e-07
1.76264e-08
3.17189e-07
1.70243e-08
3.17287e-07
1.64553e-08
3.1738e-07
1.59164e-08
3.17471e-07
1.54053e-08
3.17558e-07
1.49196e-08
3.17643e-07
1.44575e-08
3.17725e-07
1.4017e-08
3.17805e-07
1.35967e-08
3.17883e-07
1.31948e-08
3.17959e-07
1.28098e-08
3.18033e-07
1.24402e-08
3.18105e-07
1.20846e-08
3.18175e-07
1.17414e-08
3.18244e-07
1.14094e-08
3.18311e-07
1.10866e-08
3.18376e-07
1.07718e-08
3.1844e-07
1.04628e-08
3.18503e-07
1.0158e-08
3.18564e-07
9.85474e-09
3.18625e-07
9.54996e-09
3.18684e-07
9.24141e-09
3.18743e-07
8.92212e-09
3.188e-07
8.59145e-09
3.18855e-07
8.23546e-09
3.18909e-07
7.85625e-09
3.18957e-07
7.43249e-09
3.18999e-07
6.96917e-09
3.19029e-07
6.44743e-09
3.19048e-07
5.87244e-09
5.23617e-09
3.19056e-07
3.16776e-07
2.45877e-08
3.19652e-07
4.68017e-08
3.20963e-07
4.34608e-08
3.21913e-07
3.77402e-08
3.2278e-07
3.58956e-08
3.23388e-07
3.43156e-08
3.238e-07
3.19667e-08
3.2414e-07
2.97708e-08
3.24443e-07
2.80494e-08
3.24703e-07
2.66016e-08
3.24927e-07
2.52889e-08
3.25126e-07
2.4094e-08
3.25306e-07
2.30153e-08
3.25469e-07
2.20367e-08
3.25619e-07
2.114e-08
3.25757e-07
2.03118e-08
3.25885e-07
1.95425e-08
3.26006e-07
1.88247e-08
3.26119e-07
1.81519e-08
3.26226e-07
1.75191e-08
3.26328e-07
1.69221e-08
3.26426e-07
1.63575e-08
3.2652e-07
1.58225e-08
3.26611e-07
1.53147e-08
3.26698e-07
1.4832e-08
3.26783e-07
1.43725e-08
3.26866e-07
1.39346e-08
3.26946e-07
1.35165e-08
3.27024e-07
1.31167e-08
3.271e-07
1.27338e-08
3.27174e-07
1.23662e-08
3.27246e-07
1.20125e-08
3.27316e-07
1.16711e-08
3.27385e-07
1.13407e-08
3.27452e-07
1.10196e-08
3.27518e-07
1.07063e-08
3.27582e-07
1.03988e-08
3.27645e-07
1.00952e-08
3.27706e-07
9.79322e-09
3.27766e-07
9.48955e-09
3.27826e-07
9.18204e-09
3.27884e-07
8.86411e-09
3.27941e-07
8.53441e-09
3.27995e-07
8.18111e-09
3.28048e-07
7.80395e-09
3.28094e-07
7.3865e-09
3.28133e-07
6.92952e-09
3.28161e-07
6.41972e-09
3.28176e-07
5.85716e-09
5.23256e-09
3.2818e-07
3.26186e-07
2.22041e-08
3.28992e-07
4.39956e-08
3.30333e-07
4.21201e-08
3.31262e-07
3.68108e-08
3.32129e-07
3.50294e-08
3.32762e-07
3.36826e-08
3.3319e-07
3.15386e-08
3.33537e-07
2.94235e-08
3.33845e-07
2.77412e-08
3.34112e-07
2.63349e-08
3.34341e-07
2.50594e-08
3.34544e-07
2.38915e-08
3.34726e-07
2.28329e-08
3.34892e-07
2.18709e-08
3.35044e-07
2.09883e-08
3.35184e-07
2.01719e-08
3.35314e-07
1.94127e-08
3.35435e-07
1.87032e-08
3.35549e-07
1.80377e-08
3.35657e-07
1.7411e-08
3.3576e-07
1.68193e-08
3.35858e-07
1.62592e-08
3.35953e-07
1.57281e-08
3.36044e-07
1.52237e-08
3.36132e-07
1.4744e-08
3.36217e-07
1.42873e-08
3.363e-07
1.38519e-08
3.3638e-07
1.34361e-08
3.36458e-07
1.30385e-08
3.36535e-07
1.26577e-08
3.36609e-07
1.2292e-08
3.36681e-07
1.19402e-08
3.36751e-07