/*--------------------------------*- C++ -*----------------------------------*\
  =========                 |
  \\      /  F ield         | OpenFOAM: The Open Source CFD Toolbox
   \\    /   O peration     | Website:  https://openfoam.org
    \\  /    A nd           | Version:  7
     \\/     M anipulation  |
\*---------------------------------------------------------------------------*/
FoamFile
{
    version     2.0;
    format      ascii;
    class       surfaceScalarField;
    location    "0.26";
    object      phi_0;
}
// * * * * * * * * * * * * * * * * * * * * * * * * * * * * * * * * * * * * * //

dimensions      [0 3 -1 0 0 0 0];

internalField   nonuniform List<scalar> 
139350
(
6.4512e-08
9.21195e-08
3.19643e-08
3.25476e-08
2.30588e-08
8.90556e-09
1.95736e-08
3.48516e-09
1.76212e-08
1.95243e-09
1.61903e-08
1.43084e-09
1.50567e-08
1.13369e-09
1.41435e-08
9.13196e-10
1.33921e-08
7.51371e-10
1.27592e-08
6.32871e-10
1.22161e-08
5.43169e-10
1.17432e-08
4.72805e-10
1.13271e-08
4.16181e-10
1.09573e-08
3.69773e-10
1.06261e-08
3.31175e-10
1.03275e-08
2.98661e-10
1.00565e-08
2.70966e-10
9.80935e-09
2.47142e-10
9.58288e-09
2.26467e-10
9.3745e-09
2.08386e-10
9.18204e-09
1.92462e-10
9.00368e-09
1.78351e-10
8.83791e-09
1.65774e-10
8.68341e-09
1.54505e-10
8.53905e-09
1.4436e-10
8.40386e-09
1.35185e-10
8.27701e-09
1.2685e-10
8.15776e-09
1.19249e-10
8.04548e-09
1.12285e-10
7.93959e-09
1.05885e-10
7.83963e-09
9.99642e-11
7.74514e-09
9.44847e-11
7.65579e-09
8.93505e-11
7.57122e-09
8.4569e-11
7.49122e-09
8.00005e-11
7.4155e-09
7.57213e-11
7.34399e-09
7.15109e-11
7.27648e-09
6.7516e-11
7.21301e-09
6.34691e-11
7.1536e-09
5.94079e-11
7.09817e-09
5.5429e-11
7.04765e-09
5.05205e-11
7.00068e-09
4.69664e-11
6.96153e-09
3.91541e-11
6.92341e-09
3.8114e-11
6.90233e-09
2.10855e-11
6.86846e-09
3.3873e-11
6.89961e-09
-3.11575e-11
6.69471e-09
2.04901e-10
-3.14381e-09
9.83853e-09
1.25943e-07
1.2762e-07
9.12893e-08
6.72012e-08
7.19366e-08
2.82583e-08
6.12211e-08
1.42006e-08
5.47845e-08
8.389e-09
5.02891e-08
5.92631e-09
4.68037e-08
4.619e-09
4.39894e-08
3.72749e-09
4.16655e-08
3.07534e-09
3.97064e-08
2.59195e-09
3.8025e-08
2.22454e-09
3.65613e-08
1.93651e-09
3.52726e-08
1.70491e-09
3.41272e-08
1.51512e-09
3.31012e-08
1.35724e-09
3.21756e-08
1.22421e-09
3.13357e-08
1.11086e-09
3.05695e-08
1.01333e-09
2.98673e-08
9.2867e-10
2.92211e-08
8.54611e-10
2.86242e-08
7.89374e-10
2.8071e-08
7.31547e-10
2.75568e-08
6.79999e-10
2.70775e-08
6.33806e-10
2.66296e-08
5.92213e-10
2.62102e-08
5.54595e-10
2.58166e-08
5.20425e-10
2.54466e-08
4.89266e-10
2.50982e-08
4.6073e-10
2.47696e-08
4.34513e-10
2.44592e-08
4.103e-10
2.41658e-08
3.87899e-10
2.38882e-08
3.66993e-10
2.36252e-08
3.47534e-10
2.33761e-08
3.29082e-10
2.314e-08
3.11835e-10
2.29165e-08
2.95028e-10
2.27047e-08
2.79291e-10
2.25049e-08
2.6325e-10
2.23162e-08
2.48138e-10
2.21397e-08
2.31883e-10
2.19745e-08
2.15788e-10
2.18228e-08
1.98603e-10
2.16846e-08
1.77437e-10
2.15614e-08
1.61313e-10
2.14619e-08
1.20537e-10
2.13645e-08
1.31305e-10
2.13756e-08
-4.2299e-11
2.11607e-08
4.19827e-10
-3.85073e-09
2.18676e-08
1.58752e-07
1.35272e-07
1.36527e-07
8.94267e-08
1.17494e-07
4.72913e-08
1.03318e-07
2.83768e-08
9.3325e-08
1.83815e-08
8.60265e-08
1.32248e-08
8.0321e-08
1.03245e-08
7.56722e-08
8.37628e-09
7.17978e-08
6.94979e-09
6.851e-08
5.87971e-09
6.56756e-08
5.05902e-09
6.31996e-08
4.41249e-09
6.10135e-08
3.891e-09
5.90661e-08
3.46253e-09
5.73181e-08
3.10527e-09
5.57386e-08
2.80365e-09
5.43033e-08
2.54621e-09
5.29923e-08
2.32435e-09
5.17894e-08
2.13152e-09
5.06814e-08
1.96265e-09
4.9657e-08
1.81374e-09
4.87069e-08
1.68164e-09
4.78231e-08
1.56378e-09
4.69988e-08
1.45809e-09
4.62282e-08
1.36287e-09
4.55061e-08
1.27669e-09
4.48281e-08
1.19839e-09
4.41904e-08
1.12695e-09
4.35896e-08
1.06153e-09
4.30228e-08
1.0014e-09
4.24871e-08
9.45908e-10
4.19805e-08
8.94564e-10
4.15007e-08
8.46735e-10
4.10461e-08
8.02224e-10
4.06149e-08
7.6019e-10
4.02058e-08
7.20943e-10
3.98179e-08
6.82941e-10
3.94496e-08
6.47568e-10
3.91013e-08
6.11602e-10
3.87708e-08
5.78663e-10
3.84605e-08
5.42113e-10
3.81668e-08
5.09526e-10
3.78963e-08
4.69069e-10
3.76421e-08
4.31685e-10
3.74169e-08
3.86448e-10
3.72152e-08
3.22254e-10
3.70374e-08
3.0911e-10
3.69609e-08
3.41958e-11
3.68315e-08
5.49215e-10
-3.57332e-09
3.65541e-08
1.75611e-07
1.31176e-07
1.65623e-07
9.94146e-08
1.52735e-07
6.01792e-08
1.40127e-07
4.09847e-08
1.29449e-07
2.90598e-08
1.20813e-07
2.18612e-08
1.13704e-07
1.74336e-08
1.07727e-07
1.43532e-08
1.02631e-07
1.2045e-08
9.82354e-08
1.02757e-08
9.43988e-08
8.89567e-09
9.10158e-08
7.79546e-09
8.80066e-08
6.9002e-09
8.53096e-08
6.15952e-09
8.28765e-08
5.53839e-09
8.06687e-08
5.01145e-09
7.8655e-08
4.55987e-09
7.681e-08
4.16935e-09
7.51126e-08
3.82892e-09
7.35453e-08
3.53e-09
7.20932e-08
3.26582e-09
7.07438e-08
3.03098e-09
6.94865e-08
2.82109e-09
6.8312e-08
2.63257e-09
6.72124e-08
2.46248e-09
6.61808e-08
2.30836e-09
6.5211e-08
2.16815e-09
6.42978e-08
2.04012e-09
6.34366e-08
1.92276e-09
6.26232e-08
1.81483e-09
6.18539e-08
1.71518e-09
6.11255e-08
1.62294e-09
6.04352e-08
1.53707e-09
5.97803e-08
1.45714e-09
5.91587e-08
1.38182e-09
5.85681e-08
1.3115e-09
5.80073e-08
1.24374e-09
5.74741e-08
1.18078e-09
5.69685e-08
1.11715e-09
5.64877e-08
1.0595e-09
5.60345e-08
9.95319e-10
5.56035e-08
9.40523e-10
5.52034e-08
8.69146e-10
5.48239e-08
8.11226e-10
5.44824e-08
7.2793e-10
5.41671e-08
6.3753e-10
5.38913e-08
5.84946e-10
5.36972e-08
2.28306e-10
5.35771e-08
6.69282e-10
-3.01039e-09
5.30142e-08
1.8451e-07
1.23452e-07
1.8234e-07
1.01584e-07
1.7612e-07
6.63988e-08
1.67764e-07
4.93411e-08
1.59147e-07
3.76773e-08
1.51244e-07
2.9764e-08
1.44175e-07
2.45026e-08
1.37879e-07
2.06488e-08
1.32284e-07
1.76398e-08
1.27306e-07
1.5254e-08
1.22858e-07
1.33433e-08
1.18865e-07
1.1789e-08
1.15261e-07
1.05042e-08
1.11993e-07
9.42777e-09
1.09015e-07
8.51569e-09
1.06292e-07
7.7352e-09
1.0379e-07
7.06142e-09
1.01484e-07
6.47511e-09
9.9352e-08
5.96124e-09
9.73741e-08
5.50793e-09
9.55342e-08
5.10566e-09
9.38185e-08
4.74677e-09
9.22146e-08
4.42498e-09
9.0712e-08
4.13514e-09
8.93015e-08
3.87296e-09
8.7975e-08
3.63485e-09
8.67254e-08
3.41779e-09
8.55463e-08
3.2192e-09
8.44322e-08
3.03688e-09
8.3378e-08
2.86896e-09
8.23795e-08
2.71374e-09
8.14325e-08
2.56988e-09
8.05337e-08
2.4359e-09
7.96798e-08
2.31108e-09
7.8868e-08
2.19356e-09
7.80958e-08
2.08378e-09
7.73612e-08
1.97831e-09
7.66617e-08
1.88028e-09
7.5997e-08
1.78186e-09
7.53637e-08
1.69279e-09
7.47645e-08
1.59453e-09
7.41936e-08
1.51143e-09
7.36593e-08
1.40338e-09
7.31516e-08
1.31898e-09
7.26867e-08
1.19283e-09
7.22542e-08
1.07005e-09
7.18693e-08
9.69809e-10
7.15557e-08
5.4193e-10
7.13614e-08
8.63554e-10
-2.3528e-09
7.07038e-08
1.90342e-07
1.15326e-07
1.91858e-07
1.00068e-07
1.90262e-07
6.79955e-08
1.86157e-07
5.34458e-08
1.8072e-07
4.31147e-08
1.7497e-07
3.55134e-08
1.69277e-07
3.0196e-08
1.63797e-07
2.6129e-08
1.58627e-07
2.28097e-08
1.53809e-07
2.00716e-08
1.49347e-07
1.78057e-08
1.45223e-07
1.59127e-08
1.41414e-07
1.43133e-08
1.37893e-07
1.29487e-08
1.34634e-07
1.17747e-08
1.31612e-07
1.07569e-08
1.28805e-07
9.86851e-09
1.26192e-07
9.08807e-09
1.23755e-07
8.39841e-09
1.21477e-07
7.78562e-09
1.19345e-07
7.23839e-09
1.17344e-07
6.74743e-09
1.15464e-07
6.30503e-09
1.13694e-07
5.90478e-09
1.12026e-07
5.54127e-09
1.10451e-07
5.20995e-09
1.08962e-07
4.90692e-09
1.07552e-07
4.62886e-09
1.06216e-07
4.37291e-09
1.04948e-07
4.13658e-09
1.03744e-07
3.91767e-09
1.026e-07
3.71438e-09
1.01511e-07
3.52478e-09
1.00474e-07
3.34783e-09
9.94867e-08
3.18118e-09
9.85452e-08
3.02524e-09
9.76478e-08
2.87572e-09
9.67917e-08
2.73643e-09
9.59761e-08
2.59746e-09
9.51977e-08
2.47113e-09
9.44585e-08
2.33375e-09
9.37534e-08
2.21651e-09
9.30888e-08
2.06796e-09
9.24574e-08
1.95039e-09
9.18705e-08
1.77972e-09
9.13244e-08
1.61619e-09
9.08278e-08
1.4664e-09
9.04009e-08
9.68797e-10
9.0101e-08
1.16351e-09
-1.61775e-09
8.93659e-08
1.95504e-07
1.07637e-07
1.98246e-07
9.73256e-08
1.98984e-07
6.72574e-08
1.9779e-07
5.464e-08
1.95157e-07
4.57483e-08
1.91818e-07
3.88516e-08
1.88089e-07
3.39257e-08
1.84141e-07
3.00773e-08
1.80124e-07
2.6826e-08
1.7615e-07
2.40458e-08
1.72286e-07
2.16698e-08
1.68571e-07
1.96279e-08
1.65025e-07
1.78594e-08
1.61656e-07
1.63175e-08
1.58465e-07
1.49655e-08
1.55448e-07
1.37741e-08
1.52597e-07
1.2719e-08
1.49905e-07
1.17804e-08
1.47362e-07
1.09418e-08
1.44958e-07
1.01893e-08
1.42685e-07
9.5114e-09
1.40534e-07
8.89851e-09
1.38497e-07
8.34242e-09
1.36565e-07
7.83614e-09
1.34733e-07
7.37377e-09
1.32993e-07
6.95017e-09
1.31338e-07
6.56095e-09
1.29765e-07
6.20228e-09
1.28267e-07
5.87086e-09
1.2684e-07
5.56375e-09
1.25479e-07
5.27838e-09
1.24181e-07
5.01258e-09
1.22942e-07
4.76405e-09
1.21758e-07
4.53151e-09
1.20627e-07
4.31219e-09
1.19546e-07
4.10643e-09
1.18512e-07
3.90924e-09
1.17524e-07
3.7249e-09
1.16579e-07
3.54191e-09
1.15676e-07
3.37436e-09
1.14815e-07
3.19489e-09
1.13993e-07
3.03898e-09
1.13212e-07
2.84816e-09
1.12471e-07
2.69146e-09
1.11774e-07
2.47687e-09
1.11126e-07
2.26467e-09
1.10526e-07
2.06624e-09
1.09994e-07
1.50074e-09
1.09589e-07
1.56833e-09
-8.1195e-10
1.08783e-07
2.00819e-07
1.00403e-07
2.03771e-07
9.43737e-08
2.05344e-07
6.56844e-08
2.05645e-07
5.43393e-08
2.04814e-07
4.65787e-08
2.03336e-07
4.03304e-08
2.01389e-07
3.58723e-08
1.9906e-07
3.24064e-08
1.96455e-07
2.94307e-08
1.93678e-07
2.68233e-08
1.90808e-07
2.45395e-08
1.87906e-07
2.25295e-08
1.85017e-07
2.07485e-08
1.82173e-07
1.9162e-08
1.79395e-07
1.77434e-08
1.76698e-07
1.64707e-08
1.74092e-07
1.53254e-08
1.71581e-07
1.42917e-08
1.69166e-07
1.33558e-08
1.6685e-07
1.25061e-08
1.64629e-07
1.17325e-08
1.62501e-07
1.10263e-08
1.60463e-07
1.038e-08
1.58512e-07
9.78691e-09
1.56645e-07
9.24134e-09
1.54857e-07
8.73823e-09
1.53145e-07
8.27317e-09
1.51505e-07
7.84224e-09
1.49933e-07
7.44201e-09
1.48428e-07
7.06941e-09
1.46984e-07
6.72169e-09
1.45601e-07
6.3965e-09
1.44273e-07
6.09137e-09
1.43e-07
5.80484e-09
1.41778e-07
5.53391e-09
1.40606e-07
5.27884e-09
1.39481e-07
5.0342e-09
1.38401e-07
4.8045e-09
1.37366e-07
4.57723e-09
1.36373e-07
4.36737e-09
1.35422e-07
4.14555e-09
1.34512e-07
3.94887e-09
1.33644e-07
3.71636e-09
1.32819e-07
3.51681e-09
1.32035e-07
3.26055e-09
1.31305e-07
2.99478e-09
1.30622e-07
2.74905e-09
1.3e-07
2.12252e-09
1.29504e-07
2.06423e-09
4.25108e-11
1.2865e-07
2.06422e-07
9.35122e-08
2.09331e-07
9.14654e-08
2.11055e-07
6.396e-08
2.11935e-07
5.34592e-08
2.11998e-07
4.65159e-08
2.11613e-07
4.07153e-08
2.10884e-07
3.66013e-08
2.09814e-07
3.34768e-08
2.08441e-07
3.08036e-08
2.06824e-07
2.84402e-08
2.05019e-07
2.63447e-08
2.03074e-07
2.44739e-08
2.01033e-07
2.27894e-08
1.98932e-07
2.12636e-08
1.96799e-07
1.98762e-08
1.94658e-07
1.86113e-08
1.92529e-07
1.74553e-08
1.90423e-07
1.63968e-08
1.88354e-07
1.54255e-08
1.86327e-07
1.45326e-08
1.84349e-07
1.37103e-08
1.82424e-07
1.29516e-08
1.80554e-07
1.22504e-08
1.78739e-07
1.16012e-08
1.76982e-07
1.0999e-08
1.75281e-07
1.04393e-08
1.73636e-07
9.91832e-09
1.72045e-07
9.43236e-09
1.70509e-07
8.97825e-09
1.69026e-07
8.55308e-09
1.67593e-07
8.15418e-09
1.6621e-07
7.77926e-09
1.64876e-07
7.42587e-09
1.63588e-07
7.09254e-09
1.62346e-07
6.7762e-09
1.61148e-07
6.47712e-09
1.59992e-07
6.18964e-09
1.58878e-07
5.91835e-09
1.57805e-07
5.65031e-09
1.56772e-07
5.40059e-09
1.55778e-07
5.13939e-09
1.54824e-07
4.90302e-09
1.53908e-07
4.63199e-09
1.53036e-07
4.38914e-09
1.52202e-07
4.09504e-09
1.51421e-07
3.77523e-09
1.50686e-07
3.48383e-09
1.50001e-07
2.80787e-09
1.49437e-07
2.62857e-09
9.15295e-10
1.48564e-07
2.12269e-07
8.69059e-08
2.15139e-07
8.85946e-08
2.1681e-07
6.22896e-08
2.1785e-07
5.24196e-08
2.18258e-07
4.6108e-08
2.18374e-07
4.05984e-08
2.18298e-07
3.66772e-08
2.17998e-07
3.37769e-08
2.17468e-07
3.13341e-08
2.16726e-07
2.91822e-08
2.15796e-07
2.72743e-08
2.14704e-07
2.55659e-08
2.13476e-07
2.40179e-08
2.12136e-07
2.26032e-08
2.10709e-07
2.13032e-08
2.09216e-07
2.01043e-08
2.07676e-07
1.89957e-08
2.06104e-07
1.79683e-08
2.04515e-07
1.70147e-08
2.0292e-07
1.6128e-08
2.01327e-07
1.53026e-08
1.99746e-07
1.45331e-08
1.98181e-07
1.3815e-08
1.96638e-07
1.3144e-08
1.95121e-07
1.25163e-08
1.93632e-07
1.19282e-08
1.92174e-07
1.13765e-08
1.90748e-07
1.08582e-08
1.89356e-07
1.03706e-08
1.87998e-07
9.91119e-09
1.86674e-07
9.47757e-09
1.85386e-07
9.06772e-09
1.84133e-07
8.67934e-09
1.82914e-07
8.31112e-09
1.8173e-07
7.96009e-09
1.80581e-07
7.62657e-09
1.79465e-07
7.30492e-09
1.78384e-07
6.99971e-09
1.77336e-07
6.69802e-09
1.76322e-07
6.41444e-09
1.75342e-07
6.12001e-09
1.74396e-07
5.84838e-09
1.73484e-07
5.54462e-09
1.72611e-07
5.26158e-09
1.71771e-07
4.93512e-09
1.70981e-07
4.56537e-09
1.70234e-07
4.2311e-09
1.69522e-07
3.52019e-09
1.68921e-07
3.2295e-09
1.77242e-09
1.68063e-07
2.18314e-07
8.05721e-08
2.21189e-07
8.57203e-08
2.22783e-07
6.06957e-08
2.23851e-07
5.13515e-08
2.24367e-07
4.55916e-08
2.24661e-07
4.03041e-08
2.24861e-07
3.6477e-08
2.24939e-07
3.36992e-08
2.24874e-07
3.13995e-08
2.24666e-07
2.93904e-08
2.24319e-07
2.76208e-08
2.23841e-07
2.60445e-08
2.23239e-07
2.46196e-08
2.22526e-07
2.33164e-08
2.21714e-07
2.21152e-08
2.20816e-07
2.1002e-08
2.19845e-07
1.99661e-08
2.18815e-07
1.89991e-08
2.17735e-07
1.80943e-08
2.16617e-07
1.72461e-08
2.1547e-07
1.64498e-08
2.14302e-07
1.57013e-08
2.1312e-07
1.4997e-08
2.1193e-07
1.43336e-08
2.10738e-07
1.3708e-08
2.09549e-07
1.31175e-08
2.08366e-07
1.25596e-08
2.07192e-07
1.20319e-08
2.06031e-07
1.15321e-08
2.04884e-07
1.10581e-08
2.03753e-07
1.06081e-08
2.02641e-07
1.01802e-08
2.01548e-07
9.77239e-09
2.00475e-07
9.38369e-09
1.99424e-07
9.01124e-09
1.98395e-07
8.65553e-09
1.97389e-07
8.31103e-09
1.96407e-07
7.98223e-09
1.95448e-07
7.65663e-09
1.94514e-07
7.34786e-09
1.93606e-07
7.02878e-09
1.92725e-07
6.72904e-09
1.91869e-07
6.40043e-09
1.91047e-07
6.08341e-09
1.90251e-07
5.73146e-09
1.89497e-07
5.31974e-09
1.88781e-07
4.94709e-09
1.88084e-07
4.21683e-09
1.87485e-07
3.82892e-09
2.57803e-09
1.86679e-07
2.24548e-07
7.45172e-08
2.27449e-07
8.28198e-08
2.28978e-07
5.91659e-08
2.30054e-07
5.02764e-08
2.3061e-07
4.50347e-08
2.30953e-07
3.99614e-08
2.31243e-07
3.61872e-08
2.31469e-07
3.34736e-08
2.31612e-07
3.12565e-08
2.3167e-07
2.93318e-08
2.31644e-07
2.76472e-08
2.31531e-07
2.61577e-08
2.3133e-07
2.48199e-08
2.31045e-07
2.3602e-08
2.30677e-07
2.24823e-08
2.30234e-07
2.14455e-08
2.2972e-07
2.04799e-08
2.29143e-07
1.95766e-08
2.28508e-07
1.87287e-08
2.27824e-07
1.79305e-08
2.27096e-07
1.71776e-08
2.26331e-07
1.64662e-08
2.25535e-07
1.57929e-08
2.24714e-07
1.51551e-08
2.23871e-07
1.45502e-08
2.23013e-07
1.39759e-08
2.22143e-07
1.343e-08
2.21264e-07
1.29106e-08
2.2038e-07
1.24159e-08
2.19494e-07
1.19442e-08
2.18608e-07
1.14937e-08
2.17725e-07
1.10631e-08
2.16847e-07
1.06506e-08
2.15976e-07
1.02553e-08
2.15112e-07
9.87457e-09
2.14259e-07
9.50909e-09
2.13416e-07
9.15352e-09
2.12586e-07
8.81219e-09
2.1177e-07
8.47325e-09
2.10969e-07
8.14902e-09
2.10182e-07
7.81491e-09
2.09416e-07
7.49567e-09
2.08665e-07
7.15104e-09
2.0794e-07
6.80826e-09
2.07233e-07
6.43838e-09
2.06558e-07
5.99514e-09
2.05915e-07
5.59017e-09
2.05276e-07
4.85559e-09
2.04717e-07
4.38787e-09
3.29851e-09
2.03997e-07
2.30974e-07
6.87492e-08
2.33909e-07
7.98844e-08
2.35382e-07
5.76931e-08
2.36466e-07
4.9193e-08
2.37055e-07
4.44449e-08
2.37413e-07
3.96037e-08
2.37725e-07
3.58757e-08
2.37996e-07
3.3202e-08
2.38214e-07
3.10381e-08
2.38382e-07
2.91641e-08
2.38501e-07
2.75283e-08
2.38569e-07
2.60895e-08
2.38584e-07
2.4805e-08
2.38544e-07
2.36419e-08
2.38449e-07
2.25776e-08
2.38299e-07
2.15957e-08
2.38095e-07
2.06837e-08
2.3784e-07
1.9832e-08
2.37535e-07
1.9033e-08
2.37185e-07
1.82805e-08
2.36793e-07
1.75699e-08
2.36362e-07
1.68972e-08
2.35896e-07
1.62591e-08
2.35398e-07
1.56528e-08
2.34873e-07
1.50758e-08
2.34322e-07
1.45261e-08
2.33751e-07
1.40017e-08
2.33161e-07
1.35008e-08
2.32555e-07
1.30217e-08
2.31936e-07
1.25629e-08
2.31307e-07
1.21229e-08
2.30669e-07
1.17005e-08
2.30026e-07
1.12941e-08
2.29378e-07
1.09029e-08
2.28728e-07
1.05244e-08
2.28078e-07
1.01594e-08
2.27429e-07
9.80281e-09
2.26782e-07
9.45858e-09
2.2614e-07
9.11576e-09
2.25504e-07
8.78504e-09
2.24874e-07
8.44485e-09
2.24255e-07
8.11456e-09
2.23644e-07
7.76227e-09
2.2305e-07
7.40244e-09
2.22466e-07
7.02185e-09
2.21903e-07
6.55827e-09
2.21365e-07
6.12795e-09
2.20819e-07
5.40202e-09
2.20334e-07
4.87318e-09
3.90751e-09
2.19725e-07
2.376e-07
6.32736e-08
2.40575e-07
7.69097e-08
2.41991e-07
5.62775e-08
2.43081e-07
4.81024e-08
2.43708e-07
4.38185e-08
2.44078e-07
3.92331e-08
2.44395e-07
3.55588e-08
2.44679e-07
3.2918e-08
2.4492e-07
3.07969e-08
2.45124e-07
2.896e-08
2.45298e-07
2.73552e-08
2.45441e-07
2.59465e-08
2.45553e-07
2.46931e-08
2.45632e-07
2.35625e-08
2.45678e-07
2.25318e-08
2.45689e-07
2.15844e-08
2.45665e-07
2.07075e-08
2.45606e-07
1.98909e-08
2.45513e-07
1.91267e-08
2.45385e-07
1.84084e-08
2.45224e-07
1.77308e-08
2.45031e-07
1.70898e-08
2.44809e-07
1.64818e-08
2.44557e-07
1.59039e-08
2.4428e-07
1.53535e-08
2.43977e-07
1.48285e-08
2.43652e-07
1.43269e-08
2.43306e-07
1.38469e-08
2.42941e-07
1.33868e-08
2.42558e-07
1.29452e-08
2.42161e-07
1.25206e-08
2.41749e-07
1.21119e-08
2.41326e-07
1.17173e-08
2.40893e-07
1.13364e-08
2.40451e-07
1.09666e-08
2.40001e-07
1.06086e-08
2.39547e-07
1.02577e-08
2.39088e-07
9.91723e-09
2.38626e-07
9.5774e-09
2.38164e-07
9.24692e-09
2.37702e-07
8.90753e-09
2.37243e-07
8.57306e-09
2.36786e-07
8.21973e-09
2.36338e-07
7.85062e-09
2.35894e-07
7.46522e-09
2.35461e-07
6.99151e-09
2.35046e-07
6.5427e-09
2.34613e-07
5.83526e-09
2.34223e-07
5.26329e-09
4.39038e-09
2.3374e-07
2.44435e-07
5.80944e-08
2.47449e-07
7.38966e-08
2.48809e-07
5.49172e-08
2.49902e-07
4.70091e-08
2.50567e-07
4.31538e-08
2.50954e-07
3.88461e-08
2.51275e-07
3.52374e-08
2.51565e-07
3.26283e-08
2.51814e-07
3.05481e-08
2.52029e-07
2.8745e-08
2.52219e-07
2.71651e-08
2.52388e-07
2.57776e-08
2.52536e-07
2.45446e-08
2.52664e-07
2.34342e-08
2.52772e-07
2.24239e-08
2.52859e-07
2.14973e-08
2.52925e-07
2.06417e-08
2.52969e-07
1.98468e-08
2.52991e-07
1.91047e-08
2.52991e-07
1.84085e-08
2.52969e-07
1.77532e-08
2.52924e-07
1.71342e-08
2.52858e-07
1.65479e-08
2.52771e-07
1.59912e-08
2.52663e-07
1.54615e-08
2.52535e-07
1.49565e-08
2.52388e-07
1.4474e-08
2.52223e-07
1.40122e-08
2.5204e-07
1.35695e-08
2.51841e-07
1.31442e-08
2.51627e-07
1.27349e-08
2.51398e-07
1.23404e-08
2.51156e-07
1.1959e-08
2.50903e-07
1.15902e-08
2.50638e-07
1.12313e-08
2.50363e-07
1.08831e-08
2.5008e-07
1.05409e-08
2.4979e-07
1.02076e-08
2.49493e-07
9.87447e-09
2.49192e-07
9.54814e-09
2.48886e-07
9.21362e-09
2.48579e-07
8.87955e-09
2.48269e-07
8.52934e-09
2.47963e-07
8.15679e-09
2.47658e-07
7.77053e-09
2.47355e-07
7.29475e-09
2.47064e-07
6.83343e-09
2.46749e-07
6.15054e-09
2.46461e-07
5.55113e-09
4.74643e-09
2.46105e-07
2.51488e-07
5.32133e-08
2.54529e-07
7.08553e-08
2.55845e-07
5.36014e-08
2.56936e-07
4.59184e-08
2.57638e-07
4.24514e-08
2.58044e-07
3.84397e-08
2.58371e-07
3.49101e-08
2.58666e-07
3.23335e-08
2.5892e-07
3.02942e-08
2.5914e-07
2.85256e-08
2.59335e-07
2.69697e-08
2.59512e-07
2.5601e-08
2.59672e-07
2.43844e-08
2.59817e-07
2.32891e-08
2.59948e-07
2.22929e-08
2.60066e-07
2.13799e-08
2.6017e-07
2.05377e-08
2.6026e-07
1.97562e-08
2.60337e-07
1.90275e-08
2.60401e-07
1.83451e-08
2.6045e-07
1.77035e-08
2.60486e-07
1.70984e-08
2.60508e-07
1.6526e-08
2.60516e-07
1.59834e-08
2.6051e-07
1.54676e-08
2.6049e-07
1.49764e-08
2.60456e-07
1.45077e-08
2.60409e-07
1.40594e-08
2.60349e-07
1.36299e-08
2.60275e-07
1.32175e-08
2.6019e-07
1.28206e-08
2.60092e-07
1.24381e-08
2.59983e-07
1.20682e-08
2.59863e-07
1.17102e-08
2.59733e-07
1.13616e-08
2.59593e-07
1.10228e-08
2.59444e-07
1.06896e-08
2.59288e-07
1.03641e-08
2.59124e-07
1.00385e-08
2.58954e-07
9.71765e-09
2.58778e-07
9.3895e-09
2.586e-07
9.05805e-09
2.58416e-07
8.71271e-09
2.58233e-07
8.34037e-09
2.58048e-07
7.95523e-09
2.5786e-07
7.48279e-09
2.5768e-07
7.01357e-09
2.57473e-07
6.35772e-09
2.5728e-07
5.74337e-09
4.98779e-09
2.57039e-07
2.58765e-07
4.86308e-08
2.61825e-07
6.77961e-08
2.63107e-07
5.23191e-08
2.6419e-07
4.48355e-08
2.64928e-07
4.17137e-08
2.65355e-07
3.80122e-08
2.65689e-07
3.45762e-08
2.6599e-07
3.20329e-08
2.66249e-07
3.00348e-08
2.66472e-07
2.83024e-08
2.66671e-07
2.67715e-08
2.6685e-07
2.54213e-08
2.67014e-07
2.42204e-08
2.67165e-07
2.31386e-08
2.67303e-07
2.21544e-08
2.67431e-07
2.12521e-08
2.67549e-07
2.04198e-08
2.67657e-07
1.96477e-08
2.67757e-07
1.89279e-08
2.67848e-07
1.82542e-08
2.6793e-07
1.76212e-08
2.68004e-07
1.70247e-08
2.68069e-07
1.6461e-08
2.68125e-07
1.5927e-08
2.68173e-07
1.542e-08
2.68212e-07
1.49376e-08
2.68242e-07
1.44778e-08
2.68263e-07
1.40384e-08
2.68275e-07
1.36178e-08
2.68278e-07
1.32144e-08
2.68272e-07
1.28264e-08
2.68257e-07
1.24526e-08
2.68234e-07
1.20913e-08
2.68203e-07
1.17416e-08
2.68164e-07
1.14011e-08
2.68116e-07
1.107e-08
2.68062e-07
1.07442e-08
2.68001e-07
1.04252e-08
2.67933e-07
1.01065e-08
2.6786e-07
9.79063e-09
2.67781e-07
9.46847e-09
2.67699e-07
9.14013e-09
2.67612e-07
8.79958e-09
2.67523e-07
8.42925e-09
2.67432e-07
8.04566e-09
2.67336e-07
7.57955e-09
2.67243e-07
7.10573e-09
2.67125e-07
6.47651e-09
2.67012e-07
5.85638e-09
5.13544e-09
2.66864e-07
2.66277e-07
4.43456e-08
2.69344e-07
6.473e-08
2.70603e-07
5.10594e-08
2.71674e-07
4.37645e-08
2.72444e-07
4.09437e-08
2.72895e-07
3.75617e-08
2.73236e-07
3.42348e-08
2.73542e-07
3.17265e-08
2.73808e-07
2.97696e-08
2.74035e-07
2.80749e-08
2.74236e-07
2.65704e-08
2.74418e-07
2.52395e-08
2.74584e-07
2.40544e-08
2.74737e-07
2.29861e-08
2.74878e-07
2.20134e-08
2.75009e-07
2.11211e-08
2.75131e-07
2.02974e-08
2.75245e-07
1.95331e-08
2.75353e-07
1.88204e-08
2.75454e-07
1.81532e-08
2.75549e-07
1.75263e-08
2.75638e-07
1.69356e-08
2.75721e-07
1.63776e-08
2.75799e-07
1.58491e-08
2.75872e-07
1.53476e-08
2.75939e-07
1.48707e-08
2.76e-07
1.44164e-08
2.76056e-07
1.39827e-08
2.76106e-07
1.35678e-08
2.7615e-07
1.31702e-08
2.76188e-07
1.2788e-08
2.76221e-07
1.24201e-08
2.76248e-07
1.20646e-08
2.76268e-07
1.17206e-08
2.76284e-07
1.13859e-08
2.76293e-07
1.10602e-08
2.76298e-07
1.074e-08
2.76297e-07
1.04258e-08
2.76291e-07
1.01122e-08
2.76282e-07
9.80019e-09
2.76267e-07
9.48277e-09
2.76251e-07
9.15707e-09
2.7623e-07
8.82028e-09
2.76207e-07
8.45249e-09
2.76182e-07
8.07007e-09
2.7615e-07
7.61145e-09
2.76121e-07
7.13537e-09
2.76067e-07
6.53054e-09
2.76012e-07
5.91092e-09
5.21402e-09
2.75934e-07
2.74032e-07
4.03546e-08
2.77095e-07
6.16675e-08
2.78342e-07
4.98124e-08
2.79397e-07
4.27092e-08
2.80195e-07
4.01453e-08
2.8067e-07
3.70868e-08
2.8102e-07
3.38849e-08
2.81332e-07
3.14145e-08
2.81603e-07
2.94983e-08
2.81836e-07
2.78427e-08
2.8204e-07
2.63662e-08
2.82224e-07
2.50554e-08
2.82392e-07
2.38866e-08
2.82546e-07
2.28321e-08
2.82688e-07
2.18711e-08
2.8282e-07
2.09887e-08
2.82944e-07
2.01736e-08
2.83061e-07
1.94166e-08
2.83171e-07
1.87104e-08
2.83275e-07
1.80489e-08
2.83374e-07
1.74272e-08
2.83469e-07
1.68411e-08
2.83559e-07
1.62873e-08
2.83645e-07
1.57628e-08
2.83728e-07
1.52652e-08
2.83806e-07
1.47921e-08
2.83881e-07
1.43415e-08
2.83952e-07
1.39115e-08
2.8402e-07
1.35003e-08
2.84084e-07
1.31064e-08
2.84144e-07
1.27281e-08
2.842e-07
1.2364e-08
2.84252e-07
1.20123e-08
2.843e-07
1.16722e-08
2.84345e-07
1.13414e-08
2.84386e-07
1.10193e-08
2.84423e-07
1.07028e-08
2.84457e-07
1.03919e-08
2.84487e-07
1.00819e-08
2.84515e-07
9.77248e-09
2.84539e-07
9.45836e-09
2.84562e-07
9.13459e-09
2.84582e-07
8.80031e-09
2.84599e-07
8.43501e-09
2.84616e-07
8.05319e-09
2.84625e-07
7.60217e-09
2.84635e-07
7.1256e-09
2.84623e-07
6.54211e-09
2.84607e-07
5.92712e-09
5.24701e-09
2.84574e-07
2.82039e-07
3.66531e-08
2.85087e-07
5.862e-08
2.86331e-07
4.85683e-08
2.87368e-07
4.16723e-08
2.8819e-07
3.93228e-08
2.88691e-07
3.65863e-08
2.8905e-07
3.35256e-08
2.89368e-07
3.10969e-08
2.89645e-07
2.92207e-08
2.89882e-07
2.76056e-08
2.9009e-07
2.61587e-08
2.90276e-07
2.48688e-08
2.90446e-07
2.37168e-08
2.90602e-07
2.26766e-08
2.90745e-07
2.17276e-08
2.90878e-07
2.08554e-08
2.91003e-07
2.00489e-08
2.9112e-07
1.92994e-08
2.91231e-07
1.85996e-08
2.91337e-07
1.79436e-08
2.91437e-07
1.73267e-08
2.91533e-07
1.67448e-08
2.91626e-07
1.61948e-08
2.91715e-07
1.56738e-08
2.91801e-07
1.51793e-08
2.91883e-07
1.47092e-08
2.91964e-07
1.42615e-08
2.92041e-07
1.38342e-08
2.92115e-07
1.34258e-08
2.92187e-07
1.30345e-08
2.92256e-07
1.26589e-08
2.92323e-07
1.22975e-08
2.92387e-07
1.19485e-08
2.92448e-07
1.1611e-08
2.92506e-07
1.12828e-08
2.92563e-07
1.09633e-08
2.92616e-07
1.06494e-08
2.92667e-07
1.03406e-08
2.92716e-07
1.00331e-08
2.92763e-07
9.72527e-09
2.92808e-07
9.41333e-09
2.92852e-07
9.09091e-09
2.92894e-07
8.7581e-09
2.92934e-07
8.39514e-09
2.92974e-07
8.01356e-09
2.93006e-07
7.56978e-09
2.93038e-07
7.09424e-09
2.93051e-07
6.52908e-09
2.93056e-07
5.92143e-09
5.25366e-09
2.9305e-07
2.90307e-07
3.32346e-08
2.93329e-07
5.55983e-08
2.94579e-07
4.73183e-08
2.95595e-07
4.0656e-08
2.96437e-07
3.84813e-08
2.96964e-07
3.6059e-08
2.97334e-07
3.31555e-08
2.97657e-07
3.07737e-08
2.97941e-07
2.89369e-08
2.98184e-07
2.73631e-08
2.98395e-07
2.59474e-08
2.98584e-07
2.46795e-08
2.98756e-07
2.35449e-08
2.98913e-07
2.25194e-08
2.99058e-07
2.15829e-08
2.99192e-07
2.07211e-08
2.99318e-07
1.99235e-08
2.99436e-07
1.91815e-08
2.99547e-07
1.84882e-08
2.99653e-07
1.78378e-08
2.99754e-07
1.72257e-08
2.99851e-07
1.6648e-08
2.99944e-07
1.61017e-08
3.00034e-07
1.5584e-08
3.0012e-07
1.50924e-08
3.00205e-07
1.4625e-08
3.00286e-07
1.41797e-08
3.00366e-07
1.37549e-08
3.00443e-07
1.33487e-08
3.00518e-07
1.29597e-08
3.0059e-07
1.25862e-08
3.00661e-07
1.22269e-08
3.00729e-07
1.18801e-08
3.00796e-07
1.15446e-08
3.0086e-07
1.12185e-08
3.00922e-07
1.09007e-08
3.00983e-07
1.05887e-08
3.01042e-07
1.02815e-08
3.01099e-07
9.97573e-09
3.01156e-07
9.6691e-09
3.0121e-07
9.35861e-09
3.01264e-07
9.03727e-09
3.01317e-07
8.70533e-09
3.01367e-07
8.34461e-09
3.01418e-07
7.96332e-09
3.01461e-07
7.52636e-09
3.01502e-07
7.05331e-09
3.01527e-07
6.50392e-09
3.01543e-07
5.90546e-09
5.24787e-09
3.01549e-07
2.98846e-07
3.00909e-08
3.01831e-07
5.26139e-08
3.03094e-07
4.60547e-08
3.04089e-07
3.96616e-08
3.04944e-07
3.76259e-08
3.05499e-07
3.55044e-08
3.05881e-07
3.27731e-08
3.0621e-07
3.0445e-08
3.065e-07
2.86469e-08
3.06748e-07
2.7115e-08
3.06963e-07
2.5732e-08
3.07156e-07
2.44873e-08
3.0733e-07
2.33706e-08
3.07489e-07
2.23603e-08
3.07635e-07
2.14366e-08
3.07771e-07
2.05856e-08
3.07897e-07
1.97972e-08
3.08016e-07
1.9063e-08
3.08127e-07
1.83763e-08
3.08234e-07
1.77316e-08
3.08335e-07
1.71244e-08
3.08432e-07
1.65509e-08
3.08526e-07
1.60083e-08
3.08616e-07
1.54938e-08
3.08703e-07
1.50052e-08
3.08788e-07
1.45404e-08
3.0887e-07
1.40975e-08
3.0895e-07
1.3675e-08
3.09027e-07
1.32709e-08
3.09103e-07
1.2884e-08
3.09177e-07
1.25125e-08
3.09249e-07
1.21551e-08
3.09319e-07
1.18101e-08
3.09387e-07
1.14764e-08
3.09453e-07
1.1152e-08
3.09518e-07
1.08359e-08
3.09582e-07
1.05255e-08
3.09644e-07
1.02195e-08
3.09704e-07
9.91513e-09
3.09764e-07
9.60948e-09
3.09822e-07
9.30009e-09
3.0988e-07
8.97977e-09
3.09937e-07
8.64848e-09
3.09991e-07
8.29006e-09
3.10045e-07
7.90945e-09
3.10092e-07
7.479e-09
3.10136e-07
7.00985e-09
3.10165e-07
6.47439e-09
3.10184e-07
5.8865e-09
5.23868e-09
3.10194e-07
3.07666e-07
2.72123e-08
3.10602e-07
4.96778e-08
3.11886e-07
4.47705e-08
3.12858e-07
3.86895e-08
3.13722e-07
3.6762e-08
3.14304e-07
3.49226e-08
3.147e-07
3.2377e-08
3.15035e-07
3.01104e-08
3.15331e-07
2.83507e-08
3.15585e-07
2.68609e-08
3.15805e-07
2.55123e-08
3.16e-07
2.42919e-08
3.16177e-07
2.31939e-08
3.16338e-07
2.21992e-08
3.16486e-07
2.12887e-08
3.16623e-07
2.04489e-08
3.1675e-07
1.96698e-08
3.16869e-07
1.89436e-08
3.16982e-07
1.82637e-08
3.17089e-07
1.76248e-08
3.1719e-07
1.70226e-08
3.17288e-07
1.64535e-08
3.17382e-07
1.59146e-08
3.17472e-07
1.54034e-08
3.17559e-07
1.49177e-08
3.17644e-07
1.44556e-08
3.17727e-07
1.40151e-08
3.17807e-07
1.35948e-08
3.17885e-07
1.31929e-08
3.17961e-07
1.2808e-08
3.18035e-07
1.24384e-08
3.18107e-07
1.20829e-08
3.18177e-07
1.17398e-08
3.18246e-07
1.14078e-08
3.18313e-07
1.1085e-08
3.18379e-07
1.07703e-08
3.18443e-07
1.04614e-08
3.18506e-07
1.01567e-08
3.18567e-07
9.85357e-09
3.18628e-07
9.54892e-09
3.18687e-07
9.24051e-09
3.18746e-07
8.92135e-09
3.18803e-07
8.59078e-09
3.18859e-07
8.23483e-09
3.18913e-07
7.85553e-09
3.1896e-07
7.43144e-09
3.19002e-07
6.96753e-09
3.19032e-07
6.44483e-09
3.1905e-07
5.86869e-09
5.23146e-09
3.19057e-07
3.16776e-07
2.45876e-08
3.19652e-07
4.68013e-08
3.20963e-07
4.34601e-08
3.21913e-07
3.77393e-08
3.22781e-07
3.58945e-08
3.23389e-07
3.43144e-08
3.238e-07
3.19655e-08
3.24141e-07
2.97697e-08
3.24443e-07
2.80484e-08
3.24703e-07
2.66006e-08
3.24928e-07
2.52879e-08
3.25127e-07
2.40931e-08
3.25306e-07
2.30144e-08
3.2547e-07
2.20357e-08
3.25619e-07
2.1139e-08
3.25758e-07
2.03106e-08
3.25886e-07
1.95412e-08
3.26007e-07
1.88232e-08
3.2612e-07
1.81503e-08
3.26227e-07
1.75174e-08
3.2633e-07
1.69203e-08
3.26427e-07
1.63556e-08
3.26521e-07
1.58206e-08
3.26612e-07
1.53127e-08
3.267e-07
1.483e-08
3.26785e-07
1.43705e-08
3.26868e-07
1.39326e-08
3.26948e-07
1.35145e-08
3.27026e-07
1.31148e-08
3.27102e-07
1.27319e-08
3.27176e-07
1.23643e-08
3.27248e-07
1.20106e-08
3.27319e-07
1.16693e-08
3.27388e-07
1.1339e-08
3.27455e-07
1.10179e-08
3.2752e-07
1.07047e-08
3.27585e-07
1.03973e-08
3.27647e-07
1.00938e-08
3.27709e-07
9.79197e-09
3.2777e-07
9.48843e-09
3.27829e-07
9.18105e-09
3.27887e-07
8.86326e-09
3.27944e-07
8.53366e-09
3.27999e-07
8.18041e-09
3.28051e-07
7.80318e-09
3.28097e-07
7.38548e-09
3.28136e-07
6.92802e-09
3.28164e-07
6.4175e-09
3.28178e-07
5.85417e-09
5.22919e-09
3.28181e-07
3.26186e-07
2.2204e-08
3.28992e-07
4.39952e-08
3.30333e-07
4.21194e-08
3.31262e-07
3.68098e-08
3.32129e-07
3.50283e-08
3.32762e-07
3.36813e-08
3.3319e-07
3.15374e-08
3.33537e-07
2.94223e-08
3.33846e-07
2.77401e-08
3.34112e-07
2.63339e-08
3.34342e-07
2.50584e-08
3.34544e-07
2.38905e-08
3.34727e-07
2.28319e-08
3.34893e-07
2.18699e-08
3.35045e-07
2.09872e-08
3.35184e-07
2.01707e-08
3.35314e-07
1.94113e-08
3.35436e-07
1.87017e-08
3.3555e-07
1.8036e-08
3.35658e-07
1.74092e-08
3.35761e-07
1.68174e-08
3.3586e-07
1.62572e-08
3.35954e-07
1.5726e-08
3.36045e-07
1.52216e-08
3.36133e-07
1.47419e-08
3.36219e-07
1.42852e-08
3.36302e-07
1.38497e-08
3.36382e-07
1.3434e-08
3.3646e-07
1.30365e-08
3.36537e-07
1.26556e-08
3.36611e-07
1.229e-08
3.36683e-07
1.19383e-08