/*--------------------------------*- C++ -*----------------------------------*\
  =========                 |
  \\      /  F ield         | OpenFOAM: The Open Source CFD Toolbox
   \\    /   O peration     | Website:  https://openfoam.org
    \\  /    A nd           | Version:  7
     \\/     M anipulation  |
\*---------------------------------------------------------------------------*/
FoamFile
{
    version     2.0;
    format      ascii;
    class       volVectorField;
    location    "0.26";
    object      U;
}
// * * * * * * * * * * * * * * * * * * * * * * * * * * * * * * * * * * * * * //

dimensions      [0 1 -1 0 0 0 0];

internalField   nonuniform List<vector> 
70000
(
(0.553412 0.0169782 0)
(0.251412 0.00340052 0)
(0.165917 0.000319083 0)
(0.13243 4.91247e-05 0)
(0.117322 4.41672e-05 0)
(0.107361 5.2326e-05 0)
(0.0993887 4.4521e-05 0)
(0.0929445 3.544e-05 0)
(0.087701 2.93973e-05 0)
(0.0833334 2.5254e-05 0)
(0.0796136 2.20863e-05 0)
(0.076394 1.9546e-05 0)
(0.0735733 1.74739e-05 0)
(0.0710771 1.57615e-05 0)
(0.0688494 1.43281e-05 0)
(0.0668464 1.3114e-05 0)
(0.0650341 1.20744e-05 0)
(0.063385 1.11759e-05 0)
(0.0618771 1.03925e-05 0)
(0.0604922 9.70428e-06 0)
(0.0592152 9.09547e-06 0)
(0.0580337 8.55349e-06 0)
(0.0569371 8.06822e-06 0)
(0.0559162 7.63139e-06 0)
(0.0549635 7.23601e-06 0)
(0.0540723 6.87668e-06 0)
(0.0532367 6.54779e-06 0)
(0.0524519 6.24626e-06 0)
(0.0517135 5.96637e-06 0)
(0.0510176 5.70773e-06 0)
(0.0503611 5.46225e-06 0)
(0.0497407 5.23423e-06 0)
(0.0491543 5.00953e-06 0)
(0.0485993 4.80038e-06 0)
(0.0480742 4.58267e-06 0)
(0.0475774 4.37671e-06 0)
(0.0471071 4.15566e-06 0)
(0.0466642 3.91925e-06 0)
(0.0462442 3.70707e-06 0)
(0.0458554 3.34381e-06 0)
(0.0454815 3.24694e-06 0)
(0.0451559 2.46517e-06 0)
(0.0448203 2.89946e-06 0)
(0.0445854 8.53371e-07 0)
(0.0442668 3.13086e-06 0)
(0.0441899 -2.56294e-06 0)
(0.043834 5.64675e-06 0)
(0.0440284 -1.09255e-05 0)
(0.043757 2.97533e-05 0)
(0.0406301 -0.00164231 0)
(0.884862 0.0434935 0)
(0.650141 0.0201495 0)
(0.493964 0.00660525 0)
(0.403537 0.00275533 0)
(0.354822 0.00154848 0)
(0.323504 0.00113215 0)
(0.299603 0.000909663 0)
(0.280396 0.000744989 0)
(0.264686 0.000622201 0)
(0.251571 0.000531621 0)
(0.2404 0.000462831 0)
(0.230731 0.000408676 0)
(0.222258 0.000364907 0)
(0.214758 0.000328873 0)
(0.208063 0.000298767 0)
(0.202041 0.000273295 0)
(0.196592 0.0002515 0)
(0.191632 0.000232666 0)
(0.187097 0.000216248 0)
(0.18293 0.000201824 0)
(0.179088 0.000189061 0)
(0.175533 0.000177698 0)
(0.172233 0.000167521 0)
(0.169161 0.000158359 0)
(0.166293 0.000150069 0)
(0.163611 0.000142532 0)
(0.161096 0.00013565 0)
(0.158733 0.000129338 0)
(0.15651 0.00012352 0)
(0.154415 0.000118139 0)
(0.152438 0.000113126 0)
(0.150569 0.000108451 0)
(0.148802 0.00010403 0)
(0.147129 9.98736e-05 0)
(0.145544 9.58466e-05 0)
(0.144042 9.20327e-05 0)
(0.142618 8.81874e-05 0)
(0.141273 8.45047e-05 0)
(0.139993 8.05919e-05 0)
(0.1388 7.66881e-05 0)
(0.137649 7.24584e-05 0)
(0.136627 6.75486e-05 0)
(0.135578 6.30183e-05 0)
(0.134792 5.50074e-05 0)
(0.133786 5.17291e-05 0)
(0.133403 3.37653e-05 0)
(0.132312 4.3908e-05 0)
(0.132596 -3.47674e-05 0)
(0.131732 0.000248604 0)
(0.128705 -0.00277767 0)
(0.991208 0.0499561 0)
(0.890919 0.0305638 0)
(0.762479 0.0146118 0)
(0.656516 0.00797195 0)
(0.585406 0.00488066 0)
(0.536032 0.00347549 0)
(0.498136 0.00273911 0)
(0.467506 0.00224459 0)
(0.442195 0.00188059 0)
(0.420894 0.00160869 0)
(0.402655 0.001401 0)
(0.386809 0.00123748 0)
(0.372881 0.00110538 0)
(0.360522 0.000996627 0)
(0.349465 0.000905726 0)
(0.339504 0.000828774 0)
(0.330475 0.0007629 0)
(0.322246 0.000705949 0)
(0.314712 0.000656282 0)
(0.307784 0.000612626 0)
(0.30139 0.000573987 0)
(0.295468 0.000539571 0)
(0.289967 0.000508741 0)
(0.284843 0.000480975 0)
(0.280057 0.000455847 0)
(0.275578 0.000433001 0)
(0.271376 0.000412136 0)
(0.267427 0.000393002 0)
(0.263709 0.000375376 0)
(0.260204 0.00035908 0)
(0.256894 0.000343927 0)
(0.253764 0.000329806 0)
(0.250803 0.000316516 0)
(0.247997 0.00030404 0)
(0.245337 0.000292064 0)
(0.242814 0.000280766 0)
(0.240418 0.000269523 0)
(0.238151 0.000258919 0)
(0.23599 0.000247659 0)
(0.233966 0.000237105 0)
(0.232011 0.000224782 0)
(0.23025 0.00021308 0)
(0.228457 0.000198413 0)
(0.227044 0.000182401 0)
(0.225321 0.000165695 0)
(0.224478 0.00013288 0)
(0.222653 0.000135896 0)
(0.22273 -2.16686e-05 0)
(0.221032 0.000366012 0)
(0.21986 -0.00278775 0)
(1.01554 0.0489544 0)
(1.00649 0.0357257 0)
(0.935877 0.0208211 0)
(0.851996 0.0135003 0)
(0.782217 0.00919963 0)
(0.727065 0.00678482 0)
(0.681974 0.00538829 0)
(0.644213 0.00444656 0)
(0.612203 0.0037513 0)
(0.58475 0.00322477 0)
(0.560915 0.00281792 0)
(0.539991 0.00249541 0)
(0.521449 0.00223375 0)
(0.504886 0.00201755 0)
(0.489987 0.00183629 0)
(0.476503 0.00168243 0)
(0.464233 0.00155041 0)
(0.453014 0.00143605 0)
(0.442712 0.00133614 0)
(0.433215 0.0012482 0)
(0.42443 0.00117026 0)
(0.416277 0.00110075 0)
(0.408691 0.00103842 0)
(0.401612 0.000982227 0)
(0.394991 0.000931334 0)
(0.388786 0.000885028 0)
(0.382958 0.000842715 0)
(0.377474 0.000803891 0)
(0.372307 0.00076812 0)
(0.367429 0.000735039 0)
(0.362819 0.000704297 0)
(0.358456 0.000675653 0)
(0.354323 0.000648749 0)
(0.350404 0.000623511 0)
(0.346685 0.000599402 0)
(0.343154 0.0005767 0)
(0.339797 0.000554295 0)
(0.336613 0.000533311 0)
(0.333577 0.000511178 0)
(0.33072 0.000491009 0)
(0.327964 0.000466949 0)
(0.325448 0.000446216 0)
(0.322913 0.000416905 0)
(0.320828 0.000391907 0)
(0.318407 0.000355026 0)
(0.316987 0.000308013 0)
(0.314491 0.000291128 0)
(0.314125 7.07383e-05 0)
(0.311604 0.000435563 0)
(0.31138 -0.00239581 0)
(1.01435 0.0460989 0)
(1.04798 0.0373432 0)
(1.02456 0.0241893 0)
(0.974665 0.01756 0)
(0.923464 0.0131113 0)
(0.876733 0.0102073 0)
(0.83457 0.00834661 0)
(0.796828 0.00702295 0)
(0.763281 0.00601099 0)
(0.733487 0.0052222 0)
(0.706934 0.00459906 0)
(0.68315 0.00409721 0)
(0.661737 0.00368523 0)
(0.642362 0.00334167 0)
(0.624749 0.00305143 0)
(0.608667 0.00280352 0)
(0.593924 0.00258966 0)
(0.580358 0.00240357 0)
(0.567831 0.00224036 0)
(0.556227 0.0020962 0)
(0.545448 0.00196806 0)
(0.535407 0.00185349 0)
(0.526031 0.00175051 0)
(0.517257 0.00165748 0)
(0.509028 0.00157307 0)
(0.501295 0.00149614 0)
(0.494017 0.00142574 0)
(0.487154 0.00136106 0)
(0.480674 0.0013014 0)
(0.474547 0.00124618 0)
(0.468746 0.00119484 0)
(0.463247 0.00114697 0)
(0.45803 0.00110204 0)
(0.453076 0.00105988 0)
(0.448367 0.00101971 0)
(0.44389 0.000981895 0)
(0.439629 0.0009448 0)
(0.435578 0.000910128 0)
(0.431713 0.000873882 0)
(0.42806 0.000841178 0)
(0.424541 0.000802275 0)
(0.421293 0.000770025 0)
(0.418057 0.000722876 0)
(0.415295 0.000686833 0)
(0.412233 0.000626322 0)
(0.410172 0.0005635 0)
(0.407111 0.000519409 0)
(0.406121 0.000249547 0)
(0.403052 0.000537199 0)
(0.4026 -0.00193387 0)
(1.00941 0.0430487 0)
(1.05563 0.037099 0)
(1.05866 0.0253313 0)
(1.03629 0.0197656 0)
(1.00711 0.0157999 0)
(0.976089 0.0129355 0)
(0.944561 0.0109632 0)
(0.913698 0.00947869 0)
(0.884357 0.00828575 0)
(0.856919 0.00731622 0)
(0.831463 0.00652462 0)
(0.807926 0.00587061 0)
(0.786187 0.00532284 0)
(0.766104 0.00485859 0)
(0.747529 0.00446116 0)
(0.730323 0.0041179 0)
(0.714354 0.00381902 0)
(0.699503 0.00355686 0)
(0.685666 0.00332537 0)
(0.672746 0.00311967 0)
(0.660659 0.00293588 0)
(0.649331 0.0027708 0)
(0.638694 0.00262181 0)
(0.62869 0.00248674 0)
(0.619266 0.00236378 0)
(0.610374 0.00225138 0)
(0.601973 0.00214826 0)
(0.594025 0.00205329 0)
(0.586497 0.00196551 0)
(0.579358 0.00188411 0)
(0.57258 0.00180831 0)
(0.56614 0.00173753 0)
(0.560016 0.00167105 0)
(0.554186 0.0016086 0)
(0.548634 0.00154916 0)
(0.543343 0.00149315 0)
(0.538298 0.00143843 0)
(0.533491 0.00138722 0)
(0.528898 0.00133418 0)
(0.524541 0.00128627 0)
(0.520348 0.00123013 0)
(0.516439 0.00118371 0)
(0.512584 0.00111686 0)
(0.509189 0.00106665 0)
(0.505576 0.00098176 0)
(0.502878 0.000899053 0)
(0.49937 0.000825988 0)
(0.497666 0.000511378 0)
(0.494301 0.000712012 0)
(0.493117 -0.00142761 0)
(1.00635 0.0401809 0)
(1.05241 0.0361528 0)
(1.06604 0.0252555 0)
(1.05951 0.0205714 0)
(1.04687 0.0172278 0)
(1.03082 0.0146544 0)
(1.01191 0.0128225 0)
(0.991228 0.0113949 0)
(0.969826 0.0101952 0)
(0.948435 0.0091772 0)
(0.927499 0.00831478 0)
(0.907282 0.00757983 0)
(0.88793 0.00694797 0)
(0.869512 0.0064005 0)
(0.852049 0.00592297 0)
(0.835526 0.00550389 0)
(0.819912 0.00513399 0)
(0.805164 0.00480568 0)
(0.791235 0.00451278 0)
(0.778074 0.00425019 0)
(0.765633 0.00401371 0)
(0.753864 0.00379981 0)
(0.742721 0.00360557 0)
(0.732163 0.0034285 0)
(0.72215 0.00326649 0)
(0.712645 0.00311773 0)
(0.703615 0.0029807 0)
(0.695028 0.00285403 0)
(0.686856 0.00273656 0)
(0.679073 0.00262727 0)
(0.671655 0.00252525 0)
(0.664579 0.00242974 0)
(0.657827 0.00233986 0)
(0.651379 0.00225525 0)
(0.64522 0.00217468 0)
(0.639333 0.00209859 0)
(0.633705 0.00202441 0)
(0.628325 0.00195478 0)
(0.623176 0.00188323 0)
(0.618269 0.00181816 0)
(0.61355 0.00174337 0)
(0.609111 0.00168048 0)
(0.604767 0.00159327 0)
(0.600846 0.00152559 0)
(0.5968 0.00141732 0)
(0.593542 0.00130982 0)
(0.589708 0.00120916 0)
(0.587324 0.000851494 0)
(0.583789 0.000964664 0)
(0.581858 -0.000868168 0)
(1.00506 0.0375039 0)
(1.04762 0.035055 0)
(1.06395 0.0247088 0)
(1.06417 0.0206035 0)
(1.06067 0.0177671 0)
(1.05476 0.0154963 0)
(1.04599 0.0138797 0)
(1.0348 0.0126171 0)
(1.02189 0.0115279 0)
(1.00787 0.0105726 0)
(0.993195 0.00973738 0)
(0.978222 0.0090045 0)
(0.963216 0.00835729 0)
(0.948372 0.00778273 0)
(0.933825 0.00727061 0)
(0.919669 0.00681248 0)
(0.905961 0.00640118 0)
(0.892736 0.00603062 0)
(0.880012 0.00569561 0)
(0.867791 0.0053917 0)
(0.856071 0.0051151 0)
(0.84484 0.00486256 0)
(0.834083 0.00463128 0)
(0.823785 0.00441883 0)
(0.813925 0.00422312 0)
(0.804486 0.00404229 0)
(0.795448 0.00387475 0)
(0.786793 0.00371908 0)
(0.778502 0.00357402 0)
(0.770557 0.00343849 0)
(0.762943 0.00331144 0)
(0.755643 0.00319207 0)
(0.748643 0.00307938 0)
(0.741927 0.00297294 0)
(0.735485 0.00287138 0)
(0.729302 0.00277515 0)
(0.72337 0.00268139 0)
(0.717678 0.00259297 0)
(0.712213 0.00250266 0)
(0.706983 0.0024197 0)
(0.701946 0.00232614 0)
(0.697173 0.00224547 0)
(0.692522 0.00213848 0)
(0.688244 0.00205087 0)
(0.683925 0.00192122 0)
(0.680252 0.00178527 0)
(0.676223 0.00165873 0)
(0.6733 0.00126247 0)
(0.669664 0.00128862 0)
(0.667151 -0.00026584 0)
(1.00451 0.0349682 0)
(1.04359 0.0339756 0)
(1.05992 0.0240588 0)
(1.06221 0.0203152 0)
(1.06249 0.0178331 0)
(1.06181 0.0157769 0)
(1.05923 0.0143341 0)
(1.05468 0.0132372 0)
(1.04846 0.01229 0)
(1.04089 0.0114465 0)
(1.03226 0.0106953 0)
(1.02281 0.0100229 0)
(1.01277 0.00941637 0)
(1.00235 0.00886641 0)
(0.991706 0.00836612 0)
(0.980971 0.00790992 0)
(0.970249 0.00749304 0)
(0.959621 0.00711128 0)
(0.949147 0.00676095 0)
(0.938873 0.0064388 0)
(0.928831 0.00614195 0)
(0.919046 0.00586785 0)
(0.90953 0.00561423 0)
(0.900295 0.00537907 0)
(0.891342 0.00516057 0)
(0.882674 0.00495709 0)
(0.874289 0.0047672 0)
(0.866181 0.00458957 0)
(0.858347 0.00442304 0)
(0.85078 0.00426653 0)
(0.843473 0.00411906 0)
(0.836419 0.00397979 0)
(0.829611 0.00384774 0)
(0.82304 0.00372245 0)
(0.816702 0.0036025 0)
(0.810586 0.00348834 0)
(0.804689 0.00337695 0)
(0.799003 0.00327131 0)
(0.793521 0.00316378 0)
(0.788249 0.00306391 0)
(0.783157 0.00295304 0)
(0.778298 0.00285481 0)
(0.77357 0.00272989 0)
(0.769158 0.00262153 0)
(0.764763 0.0024732 0)
(0.760881 0.00230771 0)
(0.756813 0.00215654 0)
(0.753558 0.00172946 0)
(0.749907 0.00167072 0)
(0.747022 0.000364412 0)
(1.00412 0.0325378 0)
(1.04026 0.0329227 0)
(1.05616 0.0234251 0)
(1.05885 0.0199318 0)
(1.06022 0.0177054 0)
(1.06159 0.0157808 0)
(1.06195 0.0144394 0)
(1.06104 0.0134578 0)
(1.05898 0.0126265 0)
(1.05585 0.0118885 0)
(1.05176 0.0112302 0)
(1.04682 0.0106374 0)
(1.04115 0.0100973 0)
(1.03488 0.00960124 0)
(1.02812 0.00914344 0)
(1.021 0.00871967 0)
(1.01361 0.00832656 0)
(1.00602 0.00796123 0)
(0.998323 0.00762122 0)
(0.990568 0.00730434 0)
(0.982808 0.00700864 0)
(0.975083 0.00673235 0)
(0.967427 0.00647388 0)
(0.959866 0.00623174 0)
(0.952421 0.00600459 0)
(0.945108 0.00579117 0)
(0.937941 0.00559034 0)
(0.930926 0.00540101 0)
(0.924073 0.00522222 0)
(0.917384 0.00505303 0)
(0.910864 0.00489259 0)
(0.904513 0.00474014 0)
(0.898332 0.00459478 0)
(0.892321 0.00445609 0)
(0.88648 0.00432268 0)
(0.880806 0.00419503 0)
(0.8753 0.00407006 0)
(0.869959 0.00395078 0)
(0.864781 0.00382944 0)
(0.859773 0.00371546 0)
(0.854915 0.00359035 0)
(0.850247 0.00347653 0)
(0.8457 0.00333685 0)
(0.841406 0.00320889 0)
(0.837161 0.00304522 0)
(0.833306 0.00285196 0)
(0.829381 0.00267755 0)
(0.826031 0.00222936 0)
(0.822492 0.00209144 0)
(0.819462 0.000997482 0)
(1.00374 0.0302037 0)
(1.03727 0.0318741 0)
(1.05282 0.0228225 0)
(1.05561 0.0195308 0)
(1.05713 0.0175163 0)
(1.05905 0.0156805 0)
(1.06048 0.0143868 0)
(1.06116 0.0134686 0)
(1.06116 0.0127108 0)
(1.0605 0.0120469 0)
(1.05919 0.0114607 0)
(1.05724 0.0109368 0)
(1.05468 0.0104608 0)
(1.05156 0.0100228 0)
(1.04795 0.00961653 0)
(1.0439 0.00923775 0)
(1.03948 0.00888322 0)
(1.03475 0.00855048 0)
(1.02976 0.00823753 0)
(1.02456 0.00794274 0)
(1.01921 0.00766471 0)
(1.01374 0.0074022 0)
(1.00819 0.00715412 0)
(1.00259 0.00691945 0)
(0.996964 0.00669724 0)
(0.991343 0.00648659 0)
(0.985742 0.00628668 0)
(0.980178 0.00609669 0)
(0.974667 0.00591588 0)
(0.969219 0.00574353 0)
(0.963845 0.00557892 0)
(0.958552 0.00542146 0)
(0.953348 0.00527034 0)
(0.948238 0.00512525 0)
(0.943227 0.00498486 0)
(0.938319 0.0048497 0)
(0.933518 0.00471672 0)
(0.928826 0.00458891 0)
(0.924245 0.00445864 0)
(0.919784 0.00433485 0)
(0.915432 0.00419992 0)
(0.91122 0.00407403 0)
(0.907103 0.00392386 0)
(0.903175 0.00377928 0)
(0.899304 0.0036042 0)
(0.895713 0.00338739 0)
(0.892119 0.00319194 0)
(0.888913 0.0027329 0)
(0.885635 0.00252589 0)
(0.882684 0.00160342 0)
(1.00337 0.0279684 0)
(1.03443 0.0308175 0)
(1.04972 0.0222449 0)
(1.05265 0.0191271 0)
(1.05412 0.0173087 0)
(1.0561 0.0155511 0)
(1.0578 0.0142796 0)
(1.05901 0.0133922 0)
(1.05982 0.012675 0)
(1.06027 0.0120544 0)
(1.06035 0.0115132 0)
(1.06003 0.0110358 0)
(1.05931 0.0106067 0)
(1.0582 0.0102149 0)
(1.0567 0.00985306 0)
(1.05484 0.00951615 0)
(1.05264 0.00920051 0)
(1.05014 0.00890338 0)
(1.04736 0.00862267 0)
(1.04433 0.00835674 0)
(1.04109 0.0081043 0)
(1.03767 0.00786428 0)
(1.03409 0.00763579 0)
(1.03038 0.00741802 0)
(1.02657 0.00721026 0)
(1.02267 0.00701185 0)
(1.01871 0.00682214 0)
(1.01471 0.00664054 0)
(1.01067 0.00646648 0)
(1.00662 0.00629939 0)
(1.00256 0.00613871 0)
(0.998508 0.00598396 0)
(0.994476 0.00583446 0)
(0.990469 0.00568998 0)
(0.986497 0.00554926 0)
(0.982566 0.00541291 0)
(0.978683 0.00527795 0)
(0.974854 0.00514725 0)
(0.971083 0.00501351 0)
(0.967381 0.00488491 0)
(0.963743 0.00474525 0)
(0.960195 0.00461172 0)
(0.956709 0.00445588 0)
(0.953349 0.00429895 0)
(0.950037 0.00411668 0)
(0.946912 0.00388224 0)
(0.943812 0.00366882 0)
(0.940957 0.00320894 0)
(0.938082 0.002945 0)
(0.935406 0.00215829 0)
(1.00301 0.0258353 0)
(1.03171 0.0297488 0)
(1.04672 0.0216885 0)
(1.04986 0.0187205 0)
(1.05131 0.0170894 0)
(1.05325 0.0154148 0)
(1.05498 0.0141586 0)
(1.0563 0.0132875 0)
(1.05734 0.0125934 0)
(1.05819 0.0119966 0)
(1.05883 0.01148 0)
(1.05924 0.0110292 0)
(1.05943 0.0106288 0)
(1.05938 0.0102671 0)
(1.05908 0.00993594 0)
(1.05853 0.00962987 0)
(1.05775 0.00934466 0)
(1.05672 0.0090771 0)
(1.05548 0.00882475 0)
(1.05402 0.00858573 0)
(1.05237 0.00835856 0)
(1.05054 0.0081421 0)
(1.04854 0.0079354 0)
(1.0464 0.00773766 0)
(1.04412 0.00754822 0)
(1.04173 0.00736644 0)
(1.03924 0.00719179 0)
(1.03665 0.00702374 0)
(1.034 0.00686178 0)
(1.03127 0.00670546 0)
(1.0285 0.00655427 0)
(1.02569 0.00640783 0)
(1.02284 0.00626549 0)
(1.01997 0.00612711 0)
(1.01709 0.00599147 0)
(1.0142 0.00585921 0)
(1.01131 0.00572745 0)
(1.00843 0.00559886 0)
(1.00557 0.00546662 0)
(1.00273 0.0053379 0)
(0.999914 0.00519829 0)
(0.997143 0.00506157 0)
(0.994404 0.00490466 0)
(0.991735 0.00474008 0)
(0.989099 0.0045546 0)
(0.986572 0.0043091 0)
(0.984075 0.00408137 0)
(0.981716 0.00362938 0)
(0.979349 0.00332162 0)
(0.977092 0.00263989 0)
(1.00268 0.0238071 0)
(1.02911 0.0286662 0)
(1.04381 0.0211529 0)
(1.04716 0.0183108 0)
(1.04862 0.0168567 0)
(1.05052 0.015274 0)
(1.05225 0.014035 0)
(1.05358 0.0131754 0)
(1.05466 0.0124978 0)
(1.05559 0.0119161 0)
(1.05641 0.0114132 0)
(1.05709 0.0109768 0)
(1.05764 0.0105922 0)
(1.05805 0.0102475 0)
(1.05832 0.00993469 0)
(1.05845 0.00964784 0)
(1.05842 0.00938254 0)
(1.05824 0.00913528 0)
(1.05791 0.00890335 0)
(1.05743 0.00868462 0)
(1.05681 0.0084774 0)
(1.05605 0.00828037 0)
(1.05515 0.00809246 0)
(1.05413 0.00791275 0)
(1.05299 0.00774051 0)
(1.05174 0.00757507 0)
(1.05038 0.00741586 0)
(1.04893 0.00726231 0)
(1.0474 0.00711395 0)
(1.04579 0.0069703 0)
(1.04411 0.00683087 0)
(1.04236 0.0066953 0)
(1.04056 0.00656293 0)
(1.03871 0.00643366 0)
(1.03683 0.00630627 0)
(1.0349 0.00618137 0)
(1.03296 0.00605618 0)
(1.03099 0.00593312 0)
(1.029 0.0058059 0)
(1.02701 0.00568053 0)
(1.02502 0.00554458 0)
(1.02303 0.00540828 0)
(1.02106 0.00525386 0)
(1.01911 0.0050859 0)
(1.01717 0.00490035 0)
(1.01529 0.00464993 0)
(1.01343 0.00441164 0)
(1.01164 0.00397419 0)
(1.00982 0.00363525 0)
(1.00806 0.00303315 0)
(1.00238 0.0218854 0)
(1.02664 0.0275691 0)
(1.04099 0.0206377 0)
(1.04456 0.0178997 0)
(1.04603 0.0166095 0)
(1.0479 0.0151274 0)
(1.04963 0.0139098 0)
(1.05095 0.013061 0)
(1.05202 0.0123983 0)
(1.05296 0.011829 0)
(1.0538 0.0113356 0)
(1.05455 0.010908 0)
(1.05521 0.0105324 0)
(1.05579 0.0101972 0)
(1.05629 0.00989457 0)
(1.05669 0.00961858 0)
(1.05701 0.00936481 0)
(1.05724 0.0091297 0)
(1.05738 0.00891044 0)
(1.05743 0.00870477 0)
(1.05738 0.00851088 0)
(1.05724 0.00832732 0)
(1.05701 0.00815291 0)
(1.05669 0.00798665 0)
(1.05628 0.00782771 0)
(1.05578 0.00767534 0)
(1.05521 0.0075289 0)
(1.05455 0.00738779 0)
(1.05383 0.00725147 0)
(1.05303 0.00711943 0)
(1.05216 0.00699114 0)
(1.05124 0.00686622 0)
(1.05025 0.00674398 0)
(1.04922 0.00662428 0)
(1.04813 0.0065059 0)
(1.047 0.00638935 0)
(1.04584 0.00627201 0)
(1.04464 0.00615589 0)
(1.04341 0.00603534 0)
(1.04216 0.00591509 0)
(1.04089 0.00578477 0)
(1.0396 0.00565111 0)
(1.03831 0.00550125 0)
(1.03703 0.00533305 0)
(1.03574 0.00514936 0)
(1.03447 0.00489888 0)
(1.03321 0.00465338 0)
(1.03196 0.00423459 0)
(1.03069 0.00387555 0)
(1.02942 0.00333277 0)
(1.0021 0.0200713 0)
(1.0243 0.0264594 0)
(1.03825 0.0201408 0)
(1.04203 0.017489 0)
(1.04352 0.0163475 0)
(1.04537 0.0149737 0)
(1.0471 0.0137827 0)
(1.04842 0.0129446 0)
(1.04948 0.0122966 0)
(1.0504 0.0117398 0)
(1.05124 0.011255 0)
(1.05199 0.0108343 0)
(1.05267 0.010465 0)
(1.05329 0.0101359 0)
(1.05385 0.00983934 0)
(1.05435 0.00956958 0)
(1.0548 0.0093223 0)
(1.05519 0.00909403 0)
(1.05553 0.00888195 0)
(1.05582 0.00868382 0)
(1.05605 0.0084978 0)
(1.05622 0.00832242 0)
(1.05634 0.00815644 0)
(1.0564 0.00799882 0)
(1.0564 0.00784868 0)
(1.05635 0.00770523 0)
(1.05624 0.00756778 0)
(1.05607 0.00743569 0)
(1.05585 0.00730836 0)
(1.05558 0.00718525 0)
(1.05526 0.00706577 0)
(1.05489 0.0069495 0)
(1.05447 0.00683571 0)
(1.054 0.00672422 0)
(1.05349 0.00661379 0)
(1.05295 0.00650481 0)
(1.05236 0.00639478 0)
(1.05174 0.0062853 0)
(1.05109 0.00617138 0)
(1.05041 0.00605644 0)
(1.04971 0.00593208 0)
(1.04899 0.00580185 0)
(1.04826 0.00565708 0)
(1.04751 0.00549044 0)
(1.04676 0.00530928 0)
(1.046 0.00506196 0)
(1.04524 0.0048118 0)
(1.04447 0.00441328 0)
(1.04366 0.00404305 0)
(1.04284 0.00354351 0)
(1.00185 0.0183649 0)
(1.0221 0.025341 0)
(1.03562 0.0196584 0)
(1.0396 0.0170806 0)
(1.04111 0.0160716 0)
(1.04293 0.014812 0)
(1.04465 0.013653 0)
(1.04598 0.012826 0)
(1.04702 0.0121929 0)
(1.04794 0.0116491 0)
(1.04876 0.0111732 0)
(1.0495 0.010759 0)
(1.05017 0.0103953 0)
(1.05079 0.0100712 0)
(1.05135 0.00977914 0)
(1.05188 0.00951361 0)
(1.05236 0.00927043 0)
(1.0528 0.00904623 0)
(1.05321 0.00883829 0)
(1.05359 0.0086444 0)
(1.05393 0.00846278 0)
(1.05423 0.00829198 0)
(1.05451 0.00813077 0)
(1.05474 0.00797812 0)
(1.05495 0.00783316 0)
(1.05512 0.00769508 0)
(1.05525 0.00756317 0)
(1.05535 0.00743679 0)
(1.05542 0.0073153 0)
(1.05545 0.00719813 0)
(1.05544 0.00708468 0)
(1.0554 0.00697448 0)
(1.05533 0.00686676 0)
(1.05522 0.0067613 0)
(1.05508 0.00665685 0)
(1.05491 0.00655367 0)
(1.05471 0.0064494 0)
(1.05448 0.00634522 0)
(1.05423 0.00623677 0)
(1.05395 0.00612624 0)
(1.05365 0.006007 0)
(1.05333 0.00587991 0)
(1.053 0.0057396 0)
(1.05265 0.00557515 0)
(1.05229 0.0053962 0)
(1.05192 0.00515369 0)
(1.05154 0.00490065 0)
(1.05114 0.00452197 0)
(1.05069 0.00414708 0)
(1.05021 0.0036782 0)
(1.00162 0.0167661 0)
(1.02004 0.0242182 0)
(1.03309 0.0191864 0)
(1.03725 0.016676 0)
(1.03879 0.0157828 0)
(1.04057 0.0146416 0)
(1.04229 0.0135206 0)
(1.04362 0.0127051 0)
(1.04466 0.0120869 0)
(1.04556 0.0115567 0)
(1.04637 0.0110902 0)
(1.0471 0.0106828 0)
(1.04776 0.0103246 0)
(1.04836 0.0100054 0)
(1.04892 0.00971743 0)
(1.04944 0.00945549 0)
(1.04992 0.00921552 0)
(1.05037 0.00899427 0)
(1.05079 0.0087891 0)
(1.05119 0.00859787 0)
(1.05156 0.00841886 0)
(1.05192 0.00825066 0)
(1.05224 0.00809211 0)
(1.05255 0.0079422 0)
(1.05284 0.00780008 0)
(1.0531 0.00766497 0)
(1.05335 0.00753617 0)
(1.05357 0.00741303 0)
(1.05377 0.00729494 0)
(1.05395 0.00718131 0)
(1.05411 0.00707151 0)
(1.05425 0.00696508 0)
(1.05436 0.00686122 0)
(1.05445 0.00675965 0)
(1.05452 0.00665916 0)
(1.05456 0.00655985 0)
(1.05459 0.00645956 0)
(1.0546 0.00635899 0)
(1.05459 0.00625445 0)
(1.05456 0.00614698 0)
(1.05451 0.0060315 0)
(1.05445 0.00590669 0)
(1.05438 0.00576961 0)
(1.05429 0.00560723 0)
(1.0542 0.00542967 0)
(1.05409 0.00519244 0)
(1.05397 0.00493769 0)
(1.05382 0.0045771 0)
(1.05362 0.00420197 0)
(1.05339 0.00375426 0)
(1.00142 0.0152739 0)
(1.01811 0.0230952 0)
(1.03067 0.0187208 0)
(1.03498 0.0162767 0)
(1.03657 0.0154824 0)
(1.03831 0.0144619 0)
(1.04002 0.013385 0)
(1.04135 0.0125819 0)
(1.04239 0.0119784 0)
(1.04328 0.0114625 0)
(1.04407 0.011006 0)
(1.04479 0.0106056 0)
(1.04544 0.0102533 0)
(1.04603 0.0099389 0)
(1.04658 0.00965508 0)
(1.04708 0.00939665 0)
(1.04756 0.00915969 0)
(1.048 0.00894105 0)
(1.04842 0.00873817 0)
(1.04881 0.00854899 0)
(1.04919 0.00837185 0)
(1.04955 0.00820538 0)
(1.04989 0.00804847 0)
(1.05022 0.00790017 0)
(1.05053 0.00775965 0)
(1.05083 0.00762618 0)
(1.05111 0.00749907 0)
(1.05138 0.00737771 0)
(1.05164 0.00726146 0)
(1.05188 0.00714979 0)
(1.05211 0.00704204 0)
(1.05232 0.00693775 0)
(1.05252 0.00683612 0)
(1.05271 0.00673683 0)
(1.05288 0.0066387 0)
(1.05304 0.00654169 0)
(1.05318 0.00644383 0)
(1.05331 0.00634542 0)
(1.05343 0.00624334 0)
(1.05354 0.00613767 0)
(1.05364 0.00602456 0)
(1.05372 0.00590112 0)
(1.0538 0.00576596 0)
(1.05387 0.00560524 0)
(1.05393 0.0054282 0)
(1.05398 0.00519604 0)
(1.05401 0.00494048 0)
(1.05401 0.00459559 0)
(1.05397 0.00422306 0)
(1.0539 0.00378974 0)
(1.00124 0.0138871 0)
(1.01632 0.0219759 0)
(1.02835 0.0182579 0)
(1.03281 0.0158839 0)
(1.03444 0.015172 0)
(1.03614 0.0142723 0)
(1.03784 0.0132459 0)
(1.03917 0.0124566 0)
(1.04021 0.0118674 0)
(1.04108 0.0113663 0)
(1.04187 0.0109204 0)
(1.04257 0.0105275 0)
(1.04321 0.0101811 0)
(1.04379 0.00987179 0)
(1.04433 0.00959224 0)
(1.04482 0.00933739 0)
(1.04528 0.00910345 0)
(1.04572 0.00888738 0)
(1.04613 0.0086867 0)
(1.04651 0.00849941 0)
(1.04688 0.00832389 0)
(1.04724 0.00815884 0)
(1.04757 0.0080032 0)
(1.0479 0.00785604 0)
(1.04821 0.00771658 0)
(1.04852 0.00758413 0)
(1.04881 0.00745803 0)
(1.04909 0.00733769 0)
(1.04936 0.00722249 0)
(1.04962 0.00711191 0)
(1.04988 0.00700529 0)
(1.05012 0.00690218 0)
(1.05036 0.00680179 0)
(1.05058 0.00670376 0)
(1.05079 0.00660697 0)
(1.051 0.00651121 0)
(1.0512 0.00641474 0)
(1.05138 0.00631746 0)
(1.05156 0.00621677 0)
(1.05174 0.00611197 0)
(1.0519 0.00600016 0)
(1.05206 0.00587739 0)
(1.05221 0.00574311 0)
(1.05236 0.00558364 0)
(1.0525 0.00540649 0)
(1.05263 0.00517897 0)
(1.05274 0.0049234 0)
(1.05283 0.00459182 0)
(1.05288 0.00422372 0)
(1.05289 0.00380033 0)
(1.00107 0.0126036 0)
(1.01466 0.0208643 0)
(1.02614 0.0177943 0)
(1.03072 0.0154986 0)
(1.0324 0.0148535 0)
(1.03406 0.0140725 0)
(1.03574 0.0131028 0)
(1.03709 0.0123291 0)
(1.03811 0.0117539 0)
(1.03898 0.011268 0)
(1.03976 0.0108334 0)
(1.04045 0.0104483 0)
(1.04108 0.010108 0)
(1.04165 0.00980398 0)
(1.04217 0.00952886 0)
(1.04266 0.00927771 0)
(1.04311 0.00904688 0)
(1.04353 0.00883345 0)
(1.04393 0.00863499 0)
(1.04431 0.00844958 0)
(1.04467 0.00827564 0)
(1.04501 0.00811194 0)
(1.04534 0.00795744 0)
(1.04566 0.00781127 0)
(1.04597 0.00767269 0)
(1.04626 0.00754103 0)
(1.04655 0.00741566 0)
(1.04683 0.00729602 0)
(1.04711 0.00718152 0)
(1.04737 0.00707162 0)
(1.04763 0.00696572 0)
(1.04788 0.00686332 0)
(1.04812 0.00676367 0)
(1.04835 0.00666636 0)
(1.04858 0.00657033 0)
(1.0488 0.00647525 0)
(1.04901 0.00637955 0)
(1.04922 0.00628281 0)
(1.04943 0.00618286 0)
(1.04962 0.0060784 0)
(1.04982 0.00596719 0)
(1.05 0.00584469 0)
(1.05019 0.00571063 0)
(1.05037 0.00555216 0)
(1.05054 0.00537469 0)
(1.0507 0.00515135 0)
(1.05085 0.00489665 0)
(1.05097 0.00457634 0)
(1.05106 0.00421389 0)
(1.0511 0.00379796 0)
(1.00093 0.0114208 0)
(1.01313 0.0197646 0)
(1.02404 0.0173269 0)
(1.02872 0.0151212 0)
(1.03046 0.0145288 0)
(1.03208 0.0138622 0)
(1.03374 0.0129551 0)
(1.03508 0.0121993 0)
(1.03611 0.0116379 0)
(1.03697 0.0111674 0)
(1.03774 0.0107448 0)
(1.03842 0.0103679 0)
(1.03904 0.010034 0)
(1.0396 0.0097354 0)
(1.04011 0.00946486 0)
(1.04059 0.00921755 0)
(1.04103 0.00898994 0)
(1.04144 0.00877922 0)
(1.04183 0.00858305 0)
(1.0422 0.00839956 0)
(1.04255 0.00822724 0)
(1.04288 0.00806489 0)
(1.0432 0.00791152 0)
(1.04351 0.00776632 0)
(1.04381 0.00762857 0)
(1.0441 0.00749763 0)
(1.04438 0.00737291 0)
(1.04466 0.00725387 0)
(1.04492 0.00713993 0)
(1.04518 0.00703058 0)
(1.04544 0.0069252 0)
(1.04568 0.00682332 0)
(1.04592 0.00672419 0)
(1.04616 0.00662737 0)
(1.04638 0.00653185 0)
(1.0466 0.00643719 0)
(1.04682 0.00634196 0)
(1.04703 0.0062455 0)
(1.04724 0.00614594 0)
(1.04744 0.00604159 0)
(1.04764 0.00593062 0)
(1.04784 0.00580823 0)
(1.04803 0.00567409 0)
(1.04822 0.00551656 0)
(1.0484 0.00533886 0)
(1.04857 0.00511942 0)
(1.04872 0.0048665 0)
(1.04885 0.00455592 0)
(1.04894 0.00420007 0)
(1.049 0.00379064 0)
(1.0008 0.0103353 0)
(1.01173 0.0186808 0)
(1.02206 0.0168529 0)
(1.0268 0.0147521 0)
(1.02861 0.0142001 0)
(1.03019 0.0136413 0)
(1.03183 0.0128022 0)
(1.03317 0.0120674 0)
(1.0342 0.0115194 0)
(1.03505 0.0110644 0)
(1.03581 0.0106543 0)
(1.03648 0.0102862 0)
(1.03709 0.00995901 0)
(1.03764 0.00966597 0)
(1.03815 0.00940017 0)
(1.03861 0.00915684 0)
(1.03904 0.00893257 0)
(1.03945 0.00872464 0)
(1.03983 0.00853083 0)
(1.04019 0.00834932 0)
(1.04053 0.00817866 0)
(1.04085 0.00801769 0)
(1.04117 0.00786549 0)
(1.04147 0.00772126 0)
(1.04176 0.00758434 0)
(1.04204 0.00745413 0)
(1.04231 0.00733005 0)
(1.04258 0.00721158 0)
(1.04284 0.00709817 0)
(1.04309 0.00698932 0)
(1.04334 0.00688443 0)
(1.04358 0.00678301 0)
(1.04381 0.00668433 0)
(1.04404 0.00658792 0)
(1.04426 0.00649282 0)
(1.04448 0.00639847 0)
(1.04469 0.00630361 0)
(1.0449 0.00620733 0)
(1.0451 0.00610803 0)
(1.0453 0.00600374 0)
(1.0455 0.00589286 0)
(1.04569 0.00577063 0)
(1.04588 0.00563637 0)
(1.04607 0.00547984 0)
(1.04624 0.00530226 0)
(1.04641 0.00508657 0)
(1.04656 0.00483635 0)
(1.04668 0.00453449 0)
(1.04677 0.00418604 0)
(1.04682 0.00378329 0)
(1.00069 0.00934344 0)
(1.01046 0.0176171 0)
(1.02019 0.0163701 0)
(1.02497 0.0143912 0)
(1.02685 0.0138692 0)
(1.02839 0.0134099 0)
(1.03 0.0126435 0)
(1.03134 0.0119331 0)
(1.03238 0.0113985 0)
(1.03322 0.010959 0)
(1.03397 0.010562 0)
(1.03464 0.0102031 0)
(1.03524 0.00988285 0)
(1.03578 0.00959559 0)
(1.03628 0.00933472 0)
(1.03673 0.00909551 0)
(1.03715 0.00887469 0)
(1.03755 0.00866966 0)
(1.03792 0.00847828 0)
(1.03827 0.00829881 0)
(1.0386 0.00812985 0)
(1.03892 0.00797031 0)
(1.03923 0.0078193 0)
(1.03952 0.00767608 0)
(1.0398 0.00754001 0)
(1.04008 0.00741053 0)
(1.04034 0.00728711 0)
(1.0406 0.00716922 0)
(1.04085 0.00705635 0)
(1.0411 0.00694801 0)
(1.04134 0.0068436 0)
(1.04157 0.00674262 0)
(1.0418 0.0066444 0)
(1.04202 0.00654838 0)
(1.04223 0.00645368 0)
(1.04244 0.00635965 0)
(1.04265 0.00626511 0)
(1.04285 0.00616904 0)
(1.04305 0.00606996 0)
(1.04324 0.00596579 0)
(1.04343 0.00585499 0)
(1.04362 0.00573302 0)
(1.0438 0.00559876 0)
(1.04398 0.00544337 0)
(1.04415 0.00526641 0)
(1.04431 0.00505445 0)
(1.04444 0.0048078 0)
(1.04455 0.00451411 0)
(1.04463 0.00417384 0)
(1.04466 0.00377869 0)
(1.0006 0.00844086 0)
(1.00929 0.0165776 0)
(1.01843 0.0158767 0)
(1.02323 0.0140382 0)
(1.02517 0.0135381 0)
(1.02668 0.0131686 0)
(1.02826 0.0124783 0)
(1.0296 0.0117962 0)
(1.03064 0.0112751 0)
(1.03148 0.0108509 0)
(1.03221 0.0104677 0)
(1.03288 0.0101185 0)
(1.03347 0.00980548 0)
(1.03401 0.0095242 0)
(1.03449 0.00926842 0)
(1.03494 0.00903348 0)
(1.03536 0.00881623 0)
(1.03574 0.00861419 0)
(1.03611 0.00842532 0)
(1.03645 0.00824796 0)
(1.03677 0.00808076 0)
(1.03708 0.00792269 0)
(1.03738 0.00777291 0)
(1.03767 0.00763072 0)
(1.03794 0.00749553 0)
(1.03821 0.00736681 0)
(1.03847 0.00724405 0)
(1.03872 0.00712677 0)
(1.03897 0.00701446 0)
(1.0392 0.00690663 0)
(1.03944 0.00680272 0)
(1.03966 0.00670221 0)
(1.03988 0.00660444 0)
(1.0401 0.00650884 0)
(1.04031 0.00641455 0)
(1.04051 0.00632086 0)
(1.04071 0.00622667 0)
(1.04091 0.00613084 0)
(1.0411 0.00603202 0)
(1.04128 0.00592805 0)
(1.04147 0.0058174 0)
(1.04165 0.00569584 0)
(1.04182 0.0055618 0)
(1.04199 0.00540774 0)
(1.04215 0.00523192 0)
(1.04229 0.0050238 0)
(1.04242 0.00478153 0)
(1.04251 0.00449583 0)
(1.04257 0.0041645 0)
(1.04258 0.00377838 0)
(1.00051 0.00762277 0)
(1.00825 0.015566 0)
(1.01678 0.0153714 0)
(1.02157 0.0136925 0)
(1.02358 0.0132085 0)
(1.02507 0.0129181 0)
(1.02661 0.0123062 0)
(1.02795 0.0116565 0)
(1.02898 0.0111494 0)
(1.02982 0.0107401 0)
(1.03055 0.0103711 0)
(1.0312 0.0100323 0)
(1.03179 0.00972679 0)
(1.03232 0.00945168 0)
(1.0328 0.00920117 0)
(1.03324 0.00897067 0)
(1.03365 0.00875711 0)