/*--------------------------------*- C++ -*----------------------------------*\
  =========                 |
  \\      /  F ield         | OpenFOAM: The Open Source CFD Toolbox
   \\    /   O peration     | Website:  https://openfoam.org
    \\  /    A nd           | Version:  7
     \\/     M anipulation  |
\*---------------------------------------------------------------------------*/
FoamFile
{
    version     2.0;
    format      ascii;
    class       volVectorField;
    location    "0.26";
    object      U_0;
}
// * * * * * * * * * * * * * * * * * * * * * * * * * * * * * * * * * * * * * //

dimensions      [0 1 -1 0 0 0 0];

internalField   nonuniform List<vector> 
70000
(
(0.553412 0.0169782 0)
(0.251412 0.00340052 0)
(0.165917 0.000319082 0)
(0.13243 4.91237e-05 0)
(0.117322 4.41662e-05 0)
(0.107362 5.23251e-05 0)
(0.0993891 4.45201e-05 0)
(0.092945 3.54391e-05 0)
(0.0877016 2.93963e-05 0)
(0.0833341 2.5253e-05 0)
(0.0796144 2.20853e-05 0)
(0.0763949 1.95449e-05 0)
(0.0735742 1.74727e-05 0)
(0.0710782 1.57603e-05 0)
(0.0688505 1.43269e-05 0)
(0.0668476 1.31127e-05 0)
(0.0650354 1.20732e-05 0)
(0.0633864 1.11745e-05 0)
(0.0618786 1.03911e-05 0)
(0.0604938 9.70285e-06 0)
(0.0592169 9.09398e-06 0)
(0.0580355 8.55195e-06 0)
(0.0569389 8.06662e-06 0)
(0.0559182 7.62973e-06 0)
(0.0549656 7.23429e-06 0)
(0.0540744 6.87488e-06 0)
(0.053239 6.54594e-06 0)
(0.0524543 6.24434e-06 0)
(0.0517161 5.96437e-06 0)
(0.0510203 5.70566e-06 0)
(0.0503638 5.46009e-06 0)
(0.0497436 5.23198e-06 0)
(0.0491572 5.00716e-06 0)
(0.0486024 4.79786e-06 0)
(0.0480774 4.57995e-06 0)
(0.0475807 4.37376e-06 0)
(0.0471105 4.15229e-06 0)
(0.0466677 3.91546e-06 0)
(0.0462478 3.70234e-06 0)
(0.0458591 3.33823e-06 0)
(0.0454853 3.23924e-06 0)
(0.0451598 2.45555e-06 0)
(0.0448244 2.8853e-06 0)
(0.0445899 8.34218e-07 0)
(0.0442716 3.10189e-06 0)
(0.0441954 -2.60337e-06 0)
(0.0438408 5.57519e-06 0)
(0.0440365 -1.10048e-05 0)
(0.0437706 2.95742e-05 0)
(0.0406407 -0.00164294 0)
(0.884862 0.0434935 0)
(0.650141 0.0201495 0)
(0.493964 0.00660524 0)
(0.403537 0.00275532 0)
(0.354822 0.00154847 0)
(0.323505 0.00113215 0)
(0.299604 0.000909654 0)
(0.280397 0.00074498 0)
(0.264687 0.000622191 0)
(0.251573 0.000531611 0)
(0.240401 0.00046282 0)
(0.230733 0.000408665 0)
(0.22226 0.000364896 0)
(0.21476 0.000328861 0)
(0.208065 0.000298756 0)
(0.202044 0.000273283 0)
(0.196595 0.000251487 0)
(0.191635 0.000232653 0)
(0.1871 0.000216235 0)
(0.182934 0.00020181 0)
(0.179092 0.000189047 0)
(0.175537 0.000177683 0)
(0.172237 0.000167506 0)
(0.169165 0.000158343 0)
(0.166298 0.000150052 0)
(0.163615 0.000142515 0)
(0.161101 0.000135632 0)
(0.158739 0.00012932 0)
(0.156516 0.000123502 0)
(0.154421 0.000118121 0)
(0.152444 0.000113108 0)
(0.150576 0.000108432 0)
(0.148809 0.000104011 0)
(0.147135 9.98551e-05 0)
(0.145551 9.58286e-05 0)
(0.144049 9.20154e-05 0)
(0.142625 8.81707e-05 0)
(0.14128 8.44889e-05 0)
(0.140001 8.0576e-05 0)
(0.138808 7.66726e-05 0)
(0.137657 7.24395e-05 0)
(0.136634 6.75265e-05 0)
(0.135586 6.29827e-05 0)
(0.1348 5.49553e-05 0)
(0.133794 5.16348e-05 0)
(0.133412 3.3612e-05 0)
(0.132322 4.36316e-05 0)
(0.132607 -3.52757e-05 0)
(0.131752 0.000247844 0)
(0.12872 -0.00278062 0)
(0.991208 0.0499561 0)
(0.890919 0.0305638 0)
(0.76248 0.0146118 0)
(0.656516 0.00797192 0)
(0.585407 0.00488064 0)
(0.536033 0.00347547 0)
(0.498138 0.00273909 0)
(0.467507 0.00224457 0)
(0.442196 0.00188056 0)
(0.420896 0.00160867 0)
(0.402657 0.00140097 0)
(0.386811 0.00123745 0)
(0.372884 0.00110536 0)
(0.360525 0.000996599 0)
(0.349468 0.000905697 0)
(0.339507 0.000828745 0)
(0.330478 0.00076287 0)
(0.32225 0.000705918 0)
(0.314716 0.00065625 0)
(0.307789 0.000612593 0)
(0.301395 0.000573953 0)
(0.295473 0.000539536 0)
(0.289973 0.000508704 0)
(0.284849 0.000480937 0)
(0.280063 0.000455807 0)
(0.275584 0.00043296 0)
(0.271382 0.000412094 0)
(0.267434 0.000392959 0)
(0.263716 0.000375332 0)
(0.260211 0.000359035 0)
(0.256902 0.000343883 0)
(0.253772 0.000329762 0)
(0.250811 0.000316473 0)
(0.248005 0.000303998 0)
(0.245346 0.000292025 0)
(0.242823 0.00028073 0)
(0.240428 0.00026949 0)
(0.23816 0.000258891 0)
(0.236 0.000247636 0)
(0.233976 0.000237089 0)
(0.232021 0.000224768 0)
(0.230259 0.000213069 0)
(0.228466 0.000198388 0)
(0.227053 0.00018236 0)
(0.22533 0.000165588 0)
(0.224488 0.000132675 0)
(0.222663 0.000135489 0)
(0.22274 -2.25788e-05 0)
(0.221052 0.000364577 0)
(0.219872 -0.00279306 0)
(1.01554 0.0489544 0)
(1.00649 0.0357257 0)
(0.935877 0.0208211 0)
(0.851997 0.0135002 0)
(0.782217 0.0091996 0)
(0.727066 0.00678479 0)
(0.681975 0.00538826 0)
(0.644215 0.00444652 0)
(0.612205 0.00375126 0)
(0.584752 0.00322473 0)
(0.560917 0.00281788 0)
(0.539993 0.00249537 0)
(0.521452 0.00223371 0)
(0.504889 0.0020175 0)
(0.489991 0.00183624 0)
(0.476507 0.00168238 0)
(0.464237 0.00155036 0)
(0.453018 0.001436 0)
(0.442716 0.00133609 0)
(0.43322 0.00124814 0)
(0.424435 0.0011702 0)
(0.416283 0.00110069 0)
(0.408696 0.00103835 0)
(0.401618 0.000982162 0)
(0.394998 0.000931267 0)
(0.388793 0.000884958 0)
(0.382965 0.000842643 0)
(0.377482 0.000803817 0)
(0.372315 0.000768044 0)
(0.367437 0.000734963 0)
(0.362828 0.000704221 0)
(0.358465 0.000675577 0)
(0.354333 0.000648674 0)
(0.350414 0.000623439 0)
(0.346695 0.000599335 0)
(0.343164 0.000576639 0)
(0.339808 0.000554242 0)
(0.336624 0.000533269 0)
(0.333588 0.000511149 0)
(0.330731 0.000490995 0)
(0.327975 0.000466946 0)
(0.325459 0.000446229 0)
(0.322924 0.00041691 0)
(0.320838 0.000391905 0)
(0.318417 0.000354945 0)
(0.316996 0.0003078 0)
(0.314502 0.000290671 0)
(0.314134 6.94356e-05 0)
(0.311623 0.00043355 0)
(0.311391 -0.0024034 0)
(1.01435 0.0460989 0)
(1.04798 0.0373432 0)
(1.02456 0.0241893 0)
(0.974666 0.01756 0)
(0.923465 0.0131112 0)
(0.876734 0.0102072 0)
(0.834572 0.00834656 0)
(0.796829 0.0070229 0)
(0.763282 0.00601094 0)
(0.733489 0.00522214 0)
(0.706936 0.004599 0)
(0.683152 0.00409714 0)
(0.66174 0.00368516 0)
(0.642365 0.0033416 0)
(0.624752 0.00305136 0)
(0.608671 0.00280344 0)
(0.593928 0.00258959 0)
(0.580362 0.00240349 0)
(0.567835 0.00224028 0)
(0.556232 0.00209612 0)
(0.545453 0.00196797 0)
(0.535412 0.0018534 0)
(0.526037 0.00175041 0)
(0.517263 0.00165739 0)
(0.509034 0.00157297 0)
(0.501302 0.00149604 0)
(0.494024 0.00142563 0)
(0.487162 0.00136095 0)
(0.480683 0.00130129 0)
(0.474555 0.00124607 0)
(0.468755 0.00119472 0)
(0.463256 0.00114685 0)
(0.45804 0.00110192 0)
(0.453086 0.00105977 0)
(0.448378 0.00101961 0)
(0.443901 0.000981804 0)
(0.43964 0.000944721 0)
(0.43559 0.000910067 0)
(0.431724 0.000873842 0)
(0.428072 0.000841163 0)
(0.424553 0.000802283 0)
(0.421305 0.000770062 0)
(0.418069 0.000722917 0)
(0.415306 0.000686878 0)
(0.412244 0.000626288 0)
(0.410183 0.000563294 0)
(0.407122 0.000518951 0)
(0.406131 0.000247894 0)
(0.403069 0.000534552 0)
(0.402613 -0.00194317 0)
(1.00941 0.0430487 0)
(1.05563 0.037099 0)
(1.05866 0.0253313 0)
(1.03629 0.0197655 0)
(1.00711 0.0157999 0)
(0.97609 0.0129354 0)
(0.944563 0.0109632 0)
(0.9137 0.00947862 0)
(0.884358 0.00828568 0)
(0.856921 0.00731614 0)
(0.831465 0.00652454 0)
(0.807928 0.00587052 0)
(0.78619 0.00532275 0)
(0.766107 0.0048585 0)
(0.747533 0.00446106 0)
(0.730326 0.0041178 0)
(0.714358 0.00381892 0)
(0.699508 0.00355676 0)
(0.68567 0.00332526 0)
(0.672751 0.00311956 0)
(0.660665 0.00293576 0)
(0.649337 0.00277068 0)
(0.6387 0.00262168 0)
(0.628697 0.00248661 0)
(0.619273 0.00236364 0)
(0.610382 0.00225124 0)
(0.601981 0.00214811 0)
(0.594034 0.00205314 0)
(0.586506 0.00196536 0)
(0.579367 0.00188395 0)
(0.57259 0.00180815 0)
(0.56615 0.00173737 0)
(0.560026 0.0016709 0)
(0.554196 0.00160845 0)
(0.548645 0.00154902 0)
(0.543354 0.00149302 0)
(0.53831 0.00143832 0)
(0.533503 0.00138713 0)
(0.528911 0.00133412 0)
(0.524553 0.00128625 0)
(0.520361 0.00123015 0)
(0.516452 0.00118377 0)
(0.512596 0.00111693 0)
(0.509201 0.00106674 0)
(0.505587 0.000981776 0)
(0.502889 0.000898855 0)
(0.499382 0.000825529 0)
(0.497677 0.000509464 0)
(0.494318 0.000708674 0)
(0.493132 -0.00143825 0)
(1.00635 0.0401809 0)
(1.05241 0.0361527 0)
(1.06604 0.0252554 0)
(1.05951 0.0205713 0)
(1.04687 0.0172277 0)
(1.03082 0.0146543 0)
(1.01191 0.0128224 0)
(0.99123 0.0113949 0)
(0.969828 0.0101951 0)
(0.948437 0.0091771 0)
(0.927501 0.00831467 0)
(0.907284 0.00757971 0)
(0.887932 0.00694785 0)
(0.869515 0.00640037 0)
(0.852052 0.00592284 0)
(0.835529 0.00550376 0)
(0.819916 0.00513385 0)
(0.805169 0.00480554 0)
(0.79124 0.00451264 0)
(0.778079 0.00425005 0)
(0.765639 0.00401356 0)
(0.75387 0.00379966 0)
(0.742728 0.00360541 0)
(0.73217 0.00342833 0)
(0.722157 0.00326632 0)
(0.712652 0.00311756 0)
(0.703622 0.00298051 0)
(0.695036 0.00285384 0)
(0.686864 0.00273637 0)
(0.679082 0.00262708 0)
(0.671664 0.00252505 0)
(0.664589 0.00242954 0)
(0.657838 0.00233967 0)
(0.65139 0.00225506 0)
(0.645231 0.0021745 0)
(0.639344 0.00209842 0)
(0.633717 0.00202426 0)
(0.628338 0.00195466 0)
(0.623188 0.00188315 0)
(0.618282 0.00181812 0)
(0.613562 0.00174338 0)
(0.609124 0.00168055 0)
(0.604779 0.00159337 0)
(0.600858 0.00152571 0)
(0.596813 0.00141738 0)
(0.593553 0.00130963 0)
(0.58972 0.00120868 0)
(0.587336 0.000849378 0)
(0.583805 0.000960625 0)
(0.581874 -0.000879803 0)
(1.00506 0.0375039 0)
(1.04762 0.0350549 0)
(1.06395 0.0247087 0)
(1.06417 0.0206034 0)
(1.06067 0.017767 0)
(1.05476 0.0154962 0)
(1.04599 0.0138796 0)
(1.0348 0.012617 0)
(1.02189 0.0115278 0)
(1.00787 0.0105725 0)
(0.993197 0.00973726 0)
(0.978224 0.00900437 0)
(0.963219 0.00835715 0)
(0.948374 0.00778258 0)
(0.933828 0.00727045 0)
(0.919672 0.00681231 0)
(0.905964 0.00640101 0)
(0.89274 0.00603045 0)
(0.880016 0.00569543 0)
(0.867796 0.00539151 0)
(0.856076 0.00511491 0)
(0.844845 0.00486237 0)
(0.834089 0.00463108 0)
(0.823791 0.00441863 0)
(0.813932 0.00422291 0)
(0.804493 0.00404207 0)
(0.795456 0.00387453 0)
(0.786801 0.00371885 0)
(0.778511 0.00357379 0)
(0.770566 0.00343824 0)
(0.762953 0.0033112 0)
(0.755653 0.00319182 0)
(0.748653 0.00307913 0)
(0.741938 0.0029727 0)
(0.735496 0.00287115 0)
(0.729314 0.00277494 0)
(0.723382 0.0026812 0)
(0.71769 0.00259281 0)
(0.712226 0.00250255 0)
(0.706996 0.00241964 0)
(0.701959 0.00232615 0)
(0.697186 0.00224554 0)
(0.692534 0.00213859 0)
(0.688257 0.00205101 0)
(0.683938 0.00192132 0)
(0.680265 0.00178509 0)
(0.676236 0.0016582 0)
(0.673313 0.00126019 0)
(0.66968 0.00128392 0)
(0.667167 -0.000278362 0)
(1.00451 0.0349682 0)
(1.04359 0.0339755 0)
(1.05992 0.0240587 0)
(1.06221 0.0203151 0)
(1.06249 0.017833 0)
(1.06181 0.0157768 0)
(1.05923 0.014334 0)
(1.05468 0.013237 0)
(1.04846 0.0122899 0)
(1.0409 0.0114463 0)
(1.03226 0.0106952 0)
(1.02281 0.0100227 0)
(1.01277 0.00941621 0)
(1.00235 0.00886623 0)
(0.991709 0.00836593 0)
(0.980974 0.00790973 0)
(0.970253 0.00749284 0)
(0.959624 0.00711107 0)
(0.949151 0.00676073 0)
(0.938877 0.00643858 0)
(0.928836 0.00614172 0)
(0.919051 0.00586762 0)
(0.909536 0.00561399 0)
(0.900301 0.00537883 0)
(0.891349 0.00516031 0)
(0.882681 0.00495683 0)
(0.874296 0.00476693 0)
(0.866189 0.0045893 0)
(0.858356 0.00442276 0)
(0.850789 0.00426625 0)
(0.843483 0.00411877 0)
(0.836429 0.0039795 0)
(0.829621 0.00384745 0)
(0.823051 0.00372216 0)
(0.816712 0.00360222 0)
(0.810597 0.00348809 0)
(0.8047 0.00337672 0)
(0.799015 0.00327112 0)
(0.793533 0.00316364 0)
(0.788261 0.00306384 0)
(0.783169 0.00295303 0)
(0.778311 0.00285487 0)
(0.773583 0.00273001 0)
(0.769171 0.00262169 0)
(0.764776 0.00247331 0)
(0.760894 0.00230752 0)
(0.756826 0.00215594 0)
(0.753571 0.00172703 0)
(0.749922 0.00166548 0)
(0.747038 0.000351297 0)
(1.00412 0.0325378 0)
(1.04026 0.0329226 0)
(1.05616 0.023425 0)
(1.05885 0.0199317 0)
(1.06022 0.0177052 0)
(1.06159 0.0157807 0)
(1.06195 0.0144393 0)
(1.06105 0.0134576 0)
(1.05898 0.0126263 0)
(1.05586 0.0118883 0)
(1.05177 0.01123 0)
(1.04682 0.0106372 0)
(1.04115 0.0100971 0)
(1.03488 0.00960105 0)
(1.02813 0.00914323 0)
(1.021 0.00871945 0)
(1.01361 0.00832633 0)
(1.00603 0.00796099 0)
(0.998327 0.00762097 0)
(0.990572 0.00730408 0)
(0.982812 0.00700837 0)
(0.975088 0.00673208 0)
(0.967432 0.0064736 0)
(0.959872 0.00623145 0)
(0.952427 0.00600429 0)
(0.945115 0.00579087 0)
(0.937948 0.00559003 0)
(0.930934 0.00540069 0)
(0.924081 0.00522189 0)
(0.917393 0.0050527 0)
(0.910873 0.00489225 0)
(0.904522 0.0047398 0)
(0.898342 0.00459444 0)
(0.892331 0.00445576 0)
(0.88649 0.00432235 0)
(0.880817 0.00419473 0)
(0.875311 0.00406979 0)
(0.869971 0.00395055 0)
(0.864793 0.00382927 0)
(0.859785 0.00371536 0)
(0.854927 0.00359032 0)
(0.85026 0.00347659 0)
(0.845712 0.00333698 0)
(0.841418 0.00320905 0)
(0.837174 0.00304534 0)
(0.833318 0.00285176 0)
(0.829393 0.00267687 0)
(0.826044 0.00222679 0)
(0.822507 0.00208578 0)
(0.819477 0.000984161 0)
(1.00374 0.0302037 0)
(1.03727 0.0318741 0)
(1.05282 0.0228224 0)
(1.05561 0.0195307 0)
(1.05713 0.0175161 0)
(1.05905 0.0156804 0)
(1.06048 0.0143867 0)
(1.06116 0.0134685 0)
(1.06116 0.0127107 0)
(1.0605 0.0120468 0)
(1.05919 0.0114606 0)
(1.05724 0.0109366 0)
(1.05468 0.0104606 0)
(1.05156 0.0100226 0)
(1.04795 0.00961631 0)
(1.04391 0.0092375 0)
(1.03949 0.00888296 0)
(1.03475 0.0085502 0)
(1.02976 0.00823724 0)
(1.02457 0.00794244 0)
(1.01921 0.0076644 0)
(1.01374 0.00740188 0)
(1.00819 0.0071538 0)
(1.00259 0.00691911 0)
(0.99697 0.0066969 0)
(0.991349 0.00648624 0)
(0.985749 0.00628632 0)
(0.980186 0.00609633 0)
(0.974675 0.00591551 0)
(0.969227 0.00574315 0)
(0.963853 0.00557854 0)
(0.958561 0.00542108 0)
(0.953357 0.00526996 0)
(0.948247 0.00512487 0)
(0.943237 0.00498449 0)
(0.938329 0.00484935 0)
(0.933528 0.00471641 0)
(0.928837 0.00458864 0)
(0.924256 0.00445843 0)
(0.919795 0.00433471 0)
(0.915443 0.00419987 0)
(0.911232 0.00407407 0)
(0.907115 0.00392398 0)
(0.903187 0.00377943 0)
(0.899316 0.00360431 0)
(0.895725 0.00338717 0)
(0.892131 0.00319117 0)
(0.888926 0.00273021 0)
(0.885649 0.0025199 0)
(0.882697 0.00159004 0)
(1.00337 0.0279684 0)
(1.03443 0.0308174 0)
(1.04972 0.0222448 0)
(1.05265 0.0191269 0)
(1.05412 0.0173086 0)
(1.0561 0.015551 0)
(1.05781 0.0142794 0)
(1.05901 0.013392 0)
(1.05982 0.0126749 0)
(1.06027 0.0120542 0)
(1.06035 0.011513 0)
(1.06003 0.0110356 0)
(1.05932 0.0106065 0)
(1.0582 0.0102147 0)
(1.0567 0.00985281 0)
(1.05484 0.00951588 0)
(1.05265 0.00920022 0)
(1.05014 0.00890307 0)
(1.04736 0.00862235 0)
(1.04434 0.0083564 0)
(1.0411 0.00810395 0)
(1.03767 0.00786392 0)
(1.0341 0.00763542 0)
(1.03039 0.00741764 0)
(1.02658 0.00720988 0)
(1.02268 0.00701145 0)
(1.01872 0.00682174 0)
(1.01471 0.00664013 0)
(1.01068 0.00646606 0)
(1.00662 0.00629897 0)
(1.00257 0.00613828 0)
(0.998517 0.00598353 0)
(0.994485 0.00583403 0)
(0.990478 0.00568956 0)
(0.986506 0.00554885 0)
(0.982576 0.00541252 0)
(0.978693 0.00527759 0)
(0.974864 0.00514694 0)
(0.971094 0.00501327 0)
(0.967392 0.00488474 0)
(0.963755 0.00474516 0)
(0.960206 0.00461174 0)
(0.95672 0.00445598 0)
(0.95336 0.00429909 0)
(0.950049 0.00411677 0)
(0.946924 0.00388199 0)
(0.943825 0.00366795 0)
(0.94097 0.00320614 0)
(0.938095 0.00293881 0)
(0.935418 0.00214506 0)
(1.00301 0.0258353 0)
(1.03171 0.0297487 0)
(1.04672 0.0216884 0)
(1.04986 0.0187203 0)
(1.05131 0.0170892 0)
(1.05325 0.0154146 0)
(1.05498 0.0141584 0)
(1.0563 0.0132873 0)
(1.05735 0.0125932 0)
(1.05819 0.0119964 0)
(1.05883 0.0114798 0)
(1.05925 0.011029 0)
(1.05943 0.0106286 0)
(1.05938 0.0102668 0)
(1.05908 0.00993567 0)
(1.05854 0.00962958 0)
(1.05775 0.00934435 0)
(1.05673 0.00907677 0)
(1.05548 0.0088244 0)
(1.05403 0.00858535 0)
(1.05237 0.00835817 0)
(1.05054 0.0081417 0)
(1.04855 0.00793498 0)
(1.0464 0.00773724 0)
(1.04413 0.00754778 0)
(1.04174 0.007366 0)
(1.03924 0.00719134 0)
(1.03666 0.00702328 0)
(1.034 0.00686132 0)
(1.03128 0.00670499 0)
(1.02851 0.0065538 0)
(1.02569 0.00640735 0)
(1.02285 0.00626501 0)
(1.01998 0.00612664 0)
(1.0171 0.00599102 0)
(1.01421 0.00585878 0)
(1.01132 0.00572705 0)
(1.00844 0.00559851 0)
(1.00558 0.00546634 0)
(1.00274 0.0053377 0)
(0.999925 0.00519818 0)
(0.997154 0.00506156 0)
(0.994415 0.00490473 0)
(0.991746 0.0047402 0)
(0.989111 0.00455466 0)
(0.986584 0.00430881 0)
(0.984088 0.0040804 0)
(0.981729 0.0036265 0)
(0.979362 0.00331536 0)
(0.977103 0.00262702 0)
(1.00268 0.0238071 0)
(1.02911 0.0286662 0)
(1.04381 0.0211528 0)
(1.04717 0.0183106 0)
(1.04862 0.0168565 0)
(1.05052 0.0152738 0)
(1.05225 0.0140347 0)
(1.05358 0.0131752 0)
(1.05466 0.0124976 0)
(1.0556 0.0119158 0)
(1.05641 0.011413 0)
(1.05709 0.0109766 0)
(1.05764 0.010592 0)
(1.05805 0.0102473 0)
(1.05833 0.00993441 0)
(1.05845 0.00964754 0)
(1.05842 0.00938221 0)
(1.05825 0.00913492 0)
(1.05792 0.00890297 0)
(1.05744 0.00868421 0)
(1.05682 0.00847697 0)
(1.05605 0.00827993 0)
(1.05516 0.00809199 0)
(1.05413 0.00791228 0)
(1.05299 0.00774003 0)
(1.05174 0.00757458 0)
(1.05039 0.00741536 0)
(1.04894 0.00726181 0)
(1.04741 0.00711344 0)
(1.0458 0.00696979 0)
(1.04411 0.00683036 0)
(1.04237 0.00669478 0)
(1.04057 0.00656242 0)
(1.03872 0.00643315 0)
(1.03684 0.00630578 0)
(1.03491 0.00618089 0)
(1.03297 0.00605575 0)
(1.031 0.00593273 0)
(1.02901 0.00580558 0)
(1.02702 0.00568029 0)
(1.02503 0.00554443 0)
(1.02304 0.00540823 0)
(1.02107 0.0052539 0)
(1.01912 0.00508597 0)
(1.01719 0.00490036 0)
(1.0153 0.00464958 0)
(1.01345 0.00441058 0)
(1.01165 0.00397126 0)
(1.00984 0.00362902 0)
(1.00807 0.00302082 0)
(1.00238 0.0218854 0)
(1.02664 0.0275691 0)
(1.04099 0.0206376 0)
(1.04456 0.0178995 0)
(1.04603 0.0166092 0)
(1.0479 0.0151272 0)
(1.04963 0.0139096 0)
(1.05095 0.0130607 0)
(1.05202 0.012398 0)
(1.05296 0.0118288 0)
(1.0538 0.0113354 0)
(1.05455 0.0109078 0)
(1.05522 0.0105321 0)
(1.05579 0.010197 0)
(1.05629 0.00989427 0)
(1.0567 0.00961825 0)
(1.05702 0.00936445 0)
(1.05725 0.00912932 0)
(1.05738 0.00891003 0)
(1.05743 0.00870433 0)
(1.05738 0.00851041 0)
(1.05724 0.00832684 0)
(1.05701 0.00815241 0)
(1.05669 0.00798613 0)
(1.05628 0.00782718 0)
(1.05579 0.0076748 0)
(1.05521 0.00752835 0)
(1.05456 0.00738724 0)
(1.05383 0.00725091 0)
(1.05303 0.00711887 0)
(1.05217 0.00699058 0)
(1.05124 0.00686566 0)
(1.05026 0.00674342 0)
(1.04922 0.00662372 0)
(1.04814 0.00650536 0)
(1.04701 0.00638884 0)
(1.04585 0.00627153 0)
(1.04465 0.00615546 0)
(1.04342 0.00603498 0)
(1.04217 0.00591481 0)
(1.0409 0.00578459 0)
(1.03961 0.00565102 0)
(1.03832 0.00550125 0)
(1.03704 0.00533308 0)
(1.03575 0.00514932 0)
(1.03448 0.00489847 0)
(1.03322 0.00465223 0)
(1.03197 0.00423162 0)
(1.0307 0.00386943 0)
(1.02943 0.00332113 0)
(1.0021 0.0200713 0)
(1.0243 0.0264593 0)
(1.03825 0.0201407 0)
(1.04203 0.0174888 0)
(1.04352 0.0163473 0)
(1.04537 0.0149734 0)
(1.0471 0.0137824 0)
(1.04842 0.0129443 0)
(1.04948 0.0122964 0)
(1.0504 0.0117395 0)
(1.05124 0.0112548 0)
(1.05199 0.010834 0)
(1.05267 0.0104647 0)
(1.05329 0.0101356 0)
(1.05385 0.00983903 0)
(1.05435 0.00956924 0)
(1.0548 0.00932193 0)
(1.05519 0.00909362 0)
(1.05553 0.00888151 0)
(1.05582 0.00868334 0)
(1.05605 0.0084973 0)
(1.05622 0.00832189 0)
(1.05634 0.00815589 0)
(1.0564 0.00799825 0)
(1.0564 0.0078481 0)
(1.05635 0.00770465 0)
(1.05624 0.00756719 0)
(1.05608 0.00743509 0)
(1.05586 0.00730776 0)
(1.05559 0.00718464 0)
(1.05527 0.00706516 0)
(1.05489 0.0069489 0)
(1.05448 0.00683511 0)
(1.05401 0.00672363 0)
(1.0535 0.00661321 0)
(1.05295 0.00650425 0)
(1.05237 0.00639426 0)
(1.05175 0.00628483 0)
(1.0511 0.00617098 0)
(1.05042 0.00605612 0)
(1.04972 0.00593185 0)
(1.049 0.00580172 0)
(1.04827 0.00565703 0)
(1.04752 0.00549041 0)
(1.04677 0.00530918 0)
(1.04601 0.00506148 0)
(1.04525 0.00481058 0)
(1.04448 0.00441031 0)
(1.04367 0.00403714 0)
(1.04284 0.00353267 0)
(1.00185 0.0183649 0)
(1.0221 0.0253409 0)
(1.03562 0.0196582 0)
(1.0396 0.0170804 0)
(1.04111 0.0160714 0)
(1.04293 0.0148117 0)
(1.04465 0.0136528 0)
(1.04598 0.0128257 0)
(1.04703 0.0121926 0)
(1.04794 0.0116488 0)
(1.04876 0.0111729 0)
(1.0495 0.0107587 0)
(1.05017 0.010395 0)
(1.05079 0.0100709 0)
(1.05136 0.00977881 0)
(1.05188 0.00951325 0)
(1.05236 0.00927004 0)
(1.05281 0.0090458 0)
(1.05321 0.00883782 0)
(1.05359 0.00864389 0)
(1.05393 0.00846224 0)
(1.05424 0.00829141 0)
(1.05451 0.00813017 0)
(1.05475 0.00797751 0)
(1.05495 0.00783253 0)
(1.05512 0.00769444 0)
(1.05526 0.00756253 0)
(1.05536 0.00743614 0)
(1.05542 0.00731464 0)
(1.05545 0.00719748 0)
(1.05545 0.00708402 0)
(1.05541 0.00697382 0)
(1.05533 0.00686611 0)
(1.05523 0.00676066 0)
(1.05509 0.00665623 0)
(1.05492 0.00655307 0)
(1.05472 0.00644885 0)
(1.05449 0.00634471 0)
(1.05423 0.00623633 0)
(1.05396 0.00612588 0)
(1.05366 0.00600673 0)
(1.05334 0.00587974 0)
(1.05301 0.0057395 0)
(1.05266 0.00557507 0)
(1.0523 0.00539604 0)
(1.05193 0.00515315 0)
(1.05156 0.00489937 0)
(1.05115 0.00451904 0)
(1.0507 0.00414144 0)
(1.05022 0.00366825 0)
(1.00162 0.016766 0)
(1.02004 0.0242181 0)
(1.03309 0.0191862 0)
(1.03725 0.0166758 0)
(1.03879 0.0157825 0)
(1.04057 0.0146413 0)
(1.04229 0.0135203 0)
(1.04362 0.0127048 0)
(1.04466 0.0120866 0)
(1.04556 0.0115564 0)
(1.04637 0.0110899 0)
(1.0471 0.0106825 0)
(1.04776 0.0103243 0)
(1.04837 0.0100051 0)
(1.04892 0.00971708 0)
(1.04944 0.00945511 0)
(1.04992 0.00921511 0)
(1.05037 0.00899381 0)
(1.0508 0.0087886 0)
(1.05119 0.00859733 0)
(1.05157 0.00841828 0)
(1.05192 0.00825006 0)
(1.05225 0.00809147 0)
(1.05256 0.00794154 0)
(1.05284 0.0077994 0)
(1.05311 0.00766428 0)
(1.05335 0.00753547 0)
(1.05358 0.00741234 0)
(1.05378 0.00729423 0)
(1.05396 0.00718061 0)
(1.05412 0.00707081 0)
(1.05425 0.00696438 0)
(1.05437 0.00686052 0)
(1.05446 0.00675897 0)
(1.05453 0.0066585 0)
(1.05457 0.00655921 0)
(1.0546 0.00645896 0)
(1.05461 0.00635844 0)
(1.05459 0.00625397 0)
(1.05456 0.00614658 0)
(1.05452 0.00603118 0)
(1.05446 0.00590647 0)
(1.05439 0.00576946 0)
(1.0543 0.0056071 0)
(1.05421 0.00542945 0)
(1.0541 0.00519185 0)
(1.05398 0.00493638 0)
(1.05383 0.00457424 0)
(1.05363 0.00419668 0)
(1.0534 0.00374526 0)
(1.00142 0.0152739 0)
(1.01811 0.0230951 0)
(1.03067 0.0187206 0)
(1.03498 0.0162765 0)
(1.03657 0.0154821 0)
(1.03831 0.0144615 0)
(1.04002 0.0133847 0)
(1.04135 0.0125816 0)
(1.04239 0.0119781 0)
(1.04328 0.0114622 0)
(1.04407 0.0110057 0)
(1.04479 0.0106053 0)
(1.04544 0.0102529 0)
(1.04603 0.00993857 0)
(1.04658 0.00965472 0)
(1.04709 0.00939625 0)
(1.04756 0.00915925 0)
(1.048 0.00894056 0)
(1.04842 0.00873764 0)
(1.04882 0.00854841 0)
(1.04919 0.00837123 0)
(1.04955 0.00820473 0)
(1.04989 0.00804779 0)
(1.05022 0.00789947 0)
(1.05053 0.00775893 0)
(1.05083 0.00762544 0)
(1.05112 0.00749833 0)
(1.05139 0.00737696 0)
(1.05164 0.00726071 0)
(1.05189 0.00714904 0)
(1.05211 0.00704129 0)
(1.05233 0.006937 0)
(1.05253 0.00683538 0)
(1.05272 0.0067361 0)
(1.05289 0.006638 0)
(1.05305 0.00654101 0)
(1.05319 0.0064432 0)
(1.05332 0.00634484 0)
(1.05344 0.00624282 0)
(1.05355 0.00613722 0)
(1.05365 0.0060242 0)
(1.05373 0.00590086 0)
(1.05381 0.00576576 0)
(1.05388 0.00560505 0)
(1.05394 0.00542791 0)
(1.05399 0.0051954 0)
(1.05402 0.00493914 0)
(1.05402 0.00459285 0)
(1.05398 0.00421816 0)
(1.05391 0.00378173 0)
(1.00124 0.0138871 0)
(1.01632 0.0219758 0)
(1.02835 0.0182577 0)
(1.03281 0.0158837 0)
(1.03444 0.0151717 0)
(1.03614 0.014272 0)
(1.03784 0.0132456 0)
(1.03918 0.0124562 0)
(1.04021 0.0118671 0)
(1.04109 0.011366 0)
(1.04187 0.0109201 0)
(1.04258 0.0105272 0)
(1.04321 0.0101808 0)
(1.0438 0.00987144 0)
(1.04433 0.00959186 0)
(1.04483 0.00933697 0)
(1.04529 0.00910299 0)
(1.04572 0.00888687 0)
(1.04613 0.00868614 0)
(1.04652 0.0084988 0)
(1.04689 0.00832323 0)
(1.04724 0.00815815 0)
(1.04758 0.00800247 0)
(1.0479 0.00785528 0)
(1.04822 0.00771581 0)
(1.04852 0.00758334 0)
(1.04881 0.00745724 0)
(1.0491 0.00733689 0)
(1.04937 0.00722169 0)
(1.04963 0.00711111 0)
(1.04988 0.0070045 0)
(1.05013 0.00690139 0)
(1.05036 0.00680101 0)
(1.05059 0.00670299 0)
(1.0508 0.00660622 0)
(1.05101 0.00651049 0)
(1.05121 0.00641406 0)
(1.05139 0.00631683 0)
(1.05157 0.0062162 0)
(1.05175 0.00611148 0)
(1.05191 0.00599976 0)
(1.05207 0.00587707 0)
(1.05222 0.00574286 0)
(1.05237 0.00558339 0)
(1.05251 0.00540615 0)
(1.05264 0.00517829 0)
(1.05275 0.00492207 0)
(1.05284 0.00458923 0)
(1.05288 0.00421926 0)
(1.05289 0.00379334 0)
(1.00107 0.0126036 0)
(1.01466 0.0208642 0)
(1.02614 0.0177941 0)
(1.03072 0.0154983 0)
(1.0324 0.0148531 0)
(1.03406 0.0140722 0)
(1.03575 0.0131025 0)
(1.03709 0.0123287 0)
(1.03812 0.0117535 0)
(1.03898 0.0112677 0)
(1.03976 0.0108331 0)
(1.04045 0.010448 0)
(1.04108 0.0101077 0)
(1.04165 0.00980362 0)
(1.04218 0.00952846 0)
(1.04266 0.00927727 0)
(1.04311 0.0090464 0)
(1.04353 0.00883291 0)
(1.04393 0.0086344 0)
(1.04431 0.00844893 0)
(1.04467 0.00827495 0)
(1.04501 0.0081112 0)
(1.04535 0.00795666 0)
(1.04566 0.00781047 0)
(1.04597 0.00767187 0)
(1.04627 0.00754019 0)
(1.04656 0.00741482 0)
(1.04684 0.00729517 0)
(1.04711 0.00718066 0)
(1.04738 0.00707077 0)
(1.04763 0.00696487 0)
(1.04788 0.00686248 0)
(1.04812 0.00676284 0)
(1.04836 0.00666554 0)
(1.04859 0.00656954 0)
(1.04881 0.00647449 0)
(1.04902 0.00637883 0)
(1.04923 0.00628214 0)
(1.04944 0.00618225 0)
(1.04963 0.00607787 0)
(1.04983 0.00596674 0)
(1.05001 0.00584432 0)
(1.0502 0.00571032 0)
(1.05038 0.00555186 0)
(1.05055 0.0053743 0)
(1.05072 0.00515065 0)
(1.05086 0.00489535 0)
(1.05098 0.00457393 0)
(1.05106 0.0042099 0)
(1.05111 0.003792 0)
(1.00093 0.0114207 0)
(1.01313 0.0197645 0)
(1.02404 0.0173267 0)
(1.02872 0.0151209 0)
(1.03046 0.0145285 0)
(1.03208 0.0138618 0)
(1.03374 0.0129547 0)
(1.03508 0.012199 0)
(1.03611 0.0116375 0)
(1.03697 0.0111671 0)
(1.03774 0.0107444 0)
(1.03842 0.0103675 0)
(1.03904 0.0100337 0)
(1.0396 0.00973502 0)
(1.04012 0.00946444 0)
(1.04059 0.00921708 0)
(1.04103 0.00898943 0)
(1.04144 0.00877865 0)
(1.04183 0.00858242 0)
(1.0422 0.00839887 0)
(1.04255 0.0082265 0)
(1.04289 0.0080641 0)
(1.04321 0.0079107 0)
(1.04352 0.00776546 0)
(1.04382 0.00762769 0)
(1.04411 0.00749674 0)
(1.04439 0.00737201 0)
(1.04466 0.00725296 0)
(1.04493 0.00713902 0)
(1.04519 0.00702967 0)
(1.04544 0.0069243 0)
(1.04569 0.00682243 0)
(1.04593 0.00672332 0)
(1.04616 0.00662651 0)
(1.04639 0.00653101 0)
(1.04661 0.00643638 0)
(1.04683 0.00634119 0)
(1.04704 0.00624478 0)
(1.04725 0.00614529 0)
(1.04745 0.00604101 0)
(1.04765 0.00593012 0)
(1.04785 0.00580782 0)
(1.04804 0.00567374 0)
(1.04823 0.00551621 0)
(1.04841 0.00533843 0)
(1.04858 0.00511871 0)
(1.04873 0.00486525 0)
(1.04886 0.00455373 0)
(1.04895 0.00419659 0)
(1.04901 0.0037857 0)
(1.0008 0.0103353 0)
(1.01173 0.0186807 0)
(1.02206 0.0168527 0)
(1.0268 0.0147517 0)
(1.02861 0.0141997 0)
(1.03019 0.0136408 0)
(1.03183 0.0128018 0)
(1.03317 0.012067 0)
(1.0342 0.011519 0)
(1.03505 0.0110641 0)
(1.03581 0.010654 0)
(1.03649 0.0102858 0)
(1.0371 0.00995863 0)
(1.03765 0.00966556 0)
(1.03815 0.00939973 0)
(1.03862 0.00915635 0)
(1.03905 0.00893202 0)
(1.03945 0.00872404 0)
(1.03983 0.00853017 0)
(1.04019 0.00834859 0)
(1.04053 0.00817787 0)
(1.04086 0.00801686 0)
(1.04117 0.00786461 0)
(1.04147 0.00772035 0)
(1.04176 0.00758341 0)
(1.04205 0.00745318 0)
(1.04232 0.00732909 0)
(1.04259 0.00721062 0)
(1.04285 0.00709721 0)
(1.0431 0.00698836 0)
(1.04334 0.00688348 0)
(1.04358 0.00678207 0)
(1.04382 0.00668341 0)
(1.04405 0.00658701 0)
(1.04427 0.00649193 0)
(1.04449 0.00639762 0)
(1.0447 0.00630279 0)
(1.04491 0.00620657 0)
(1.04511 0.00610733 0)
(1.04531 0.00600312 0)
(1.04551 0.00589231 0)
(1.0457 0.00577016 0)
(1.04589 0.00563596 0)
(1.04608 0.00547944 0)
(1.04625 0.00530179 0)
(1.04642 0.00508586 0)
(1.04657 0.00483517 0)
(1.04669 0.00453253 0)
(1.04678 0.00418309 0)
(1.04682 0.00377936 0)
(1.00069 0.0093434 0)
(1.01046 0.017617 0)
(1.02019 0.0163699 0)
(1.02497 0.0143909 0)
(1.02685 0.0138688 0)
(1.02839 0.0134094 0)
(1.03 0.012643 0)
(1.03135 0.0119326 0)
(1.03238 0.011398 0)
(1.03322 0.0109586 0)
(1.03397 0.0105617 0)
(1.03464 0.0102027 0)
(1.03524 0.00988245 0)
(1.03578 0.00959517 0)
(1.03628 0.00933426 0)
(1.03673 0.009095 0)
(1.03716 0.00887412 0)
(1.03755 0.00866902 0)
(1.03792 0.00847758 0)
(1.03827 0.00829804 0)
(1.03861 0.00812902 0)
(1.03892 0.00796943 0)
(1.03923 0.00781837 0)
(1.03952 0.00767511 0)
(1.03981 0.00753902 0)
(1.04008 0.00740953 0)
(1.04035 0.00728609 0)
(1.04061 0.0071682 0)
(1.04086 0.00705533 0)
(1.0411 0.00694699 0)
(1.04134 0.00684259 0)
(1.04158 0.00674163 0)
(1.0418 0.00664342 0)
(1.04203 0.00654742 0)
(1.04224 0.00645274 0)
(1.04245 0.00635874 0)
(1.04266 0.00626425 0)
(1.04286 0.00616823 0)
(1.04306 0.00606921 0)
(1.04325 0.00596511 0)
(1.04344 0.00585439 0)
(1.04363 0.0057325 0)
(1.04381 0.0055983 0)
(1.04399 0.00544292 0)
(1.04416 0.00526591 0)
(1.04432 0.00505374 0)
(1.04445 0.00480672 0)
(1.04456 0.00451242 0)
(1.04464 0.00417143 0)
(1.04467 0.00377576 0)
(1.0006 0.00844081 0)
(1.00929 0.0165774 0)
(1.01843 0.0158764 0)
(1.02323 0.0140379 0)
(1.02517 0.0135377 0)
(1.02669 0.0131681 0)
(1.02826 0.0124778 0)
(1.0296 0.0117957 0)
(1.03064 0.0112747 0)
(1.03148 0.0108505 0)
(1.03222 0.0104673 0)
(1.03288 0.0101181 0)
(1.03347 0.00980506 0)
(1.03401 0.00952375 0)
(1.0345 0.00926793 0)
(1.03494 0.00903295 0)
(1.03536 0.00881563 0)
(1.03575 0.00861352 0)
(1.03611 0.00842458 0)
(1.03645 0.00824714 0)
(1.03678 0.00807988 0)
(1.03709 0.00792175 0)
(1.03738 0.00777192 0)
(1.03767 0.0076297 0)
(1.03795 0.00749448 0)
(1.03821 0.00736575 0)
(1.03847 0.00724298 0)
(1.03873 0.00712569 0)
(1.03897 0.00701338 0)
(1.03921 0.00690556 0)
(1.03944 0.00680166 0)
(1.03967 0.00670116 0)
(1.03989 0.00660341 0)
(1.0401 0.00650783 0)
(1.04031 0.00641356 0)
(1.04052 0.00631991 0)
(1.04072 0.00622575 0)
(1.04091 0.00612998 0)
(1.04111 0.00603121 0)
(1.04129 0.00592731 0)
(1.04148 0.00581674 0)
(1.04166 0.00569526 0)
(1.04183 0.00556129 0)
(1.042 0.00540725 0)
(1.04216 0.0052314 0)
(1.0423 0.00502312 0)
(1.04243 0.00478055 0)
(1.04252 0.0044944 0)
(1.04258 0.00416263 0)
(1.04259 0.0037764 0)
(1.00051 0.00762273 0)
(1.00825 0.0155658 0)
(1.01678 0.0153711 0)
(1.02157 0.0136921 0)
(1.02358 0.013208 0)
(1.02507 0.0129176 0)
(1.02661 0.0123057 0)
(1.02795 0.011656 0)
(1.02898 0.0111489 0)
(1.02982 0.0107397 0)
(1.03055 0.0103707 0)
(1.03121 0.0100319 0)
(1.03179 0.00972636 0)
(1.03232 0.00945122 0)
(1.0328 0.00920066 0)
(1.03324 0.00897011 0)