/*--------------------------------*- C++ -*----------------------------------*\
  =========                 |
  \\      /  F ield         | OpenFOAM: The Open Source CFD Toolbox
   \\    /   O peration     | Website:  https://openfoam.org
    \\  /    A nd           | Version:  7
     \\/     M anipulation  |
\*---------------------------------------------------------------------------*/
FoamFile
{
    version     2.0;
    format      ascii;
    class       volVectorField;
    location    "0.26";
    object      wallShearStress;
}
// * * * * * * * * * * * * * * * * * * * * * * * * * * * * * * * * * * * * * //

dimensions      [0 2 -2 0 0 0 0];

internalField   uniform (0 0 0);

boundaryField
{
    velocityInlet
    {
        type            calculated;
        value           uniform (0 0 0);
    }
    pressureOutlet
    {
        type            calculated;
        value           uniform (0 0 0);
    }
    fixedWalls
    {
        type            calculated;
        value           nonuniform List<vector> 
100
(
(-0.0116867 -0.00687708 0)
(0.0101037 -0.000805693 0)
(0.000522211 0.000610215 0)
(0.00162115 0.000158655 0)
(0.000107177 0.000110964 0)
(0.00079524 -8.06021e-05 0)
(0.00163728 -0.000153633 0)
(0.00264811 -0.000164637 0)
(0.00340029 -0.00012484 0)
(0.00369625 -5.30092e-05 0)
(0.00333081 5.94235e-05 0)
(0.00218082 0.000193755 0)
(0.000509819 0.000277648 0)
(-0.000774647 0.000172069 0)
(0.000336035 -0.000253265 0)
(0.00457484 -0.000709737 0)
(0.00879536 -0.000605448 0)
(0.00954509 -5.53968e-05 0)
(0.00702573 0.000392334 0)
(0.00326108 0.000480242 0)
(-0.000138279 0.000374512 0)
(-0.00247333 0.00022879 0)
(-0.00376036 0.000114598 0)
(-0.00433446 4.92438e-05 0)
(-0.00450632 1.73992e-05 0)
(-0.00447783 1.39427e-06 0)
(-0.00435709 -6.67083e-06 0)
(-0.0041928 -1.09033e-05 0)
(-0.00400235 -1.44193e-05 0)
(-0.00378177 -1.96743e-05 0)
(-0.00351678 -2.77693e-05 0)
(-0.00320222 -3.67658e-05 0)
(-0.00286533 -4.14971e-05 0)
(-0.00257255 -3.65776e-05 0)
(-0.00241276 -2.32197e-05 0)
(-0.00249445 9.89517e-06 0)
(-0.00296154 6.6131e-05 0)
(-0.00389348 0.000130853 0)
(-0.0050681 0.00016236 0)
(-0.00586062 0.000121881 0)
(-0.00539689 -6.08282e-05 0)
(-0.00319262 -0.000299534 0)
(2.79628e-05 -0.000409147 0)
(0.00262834 -0.000302568 0)
(0.00352755 -9.34333e-05 0)
(0.00290298 7.99391e-05 0)
(0.00155624 0.000144564 0)
(0.000159277 0.000138277 0)
(-0.000968371 0.000105881 0)
(-0.00176183 7.24035e-05 0)
(-0.00228157 4.7759e-05 0)
(-0.00261192 3.19871e-05 0)
(-0.00282051 2.22466e-05 0)
(-0.00294856 1.56092e-05 0)
(-0.00301316 9.83005e-06 0)
(-0.00301742 3.40494e-06 0)
(-0.00296585 -3.10504e-06 0)
(-0.00287618 -7.43518e-06 0)
(-0.00277823 -8.25355e-06 0)
(-0.00270137 -5.91012e-06 0)
(-0.00266376 -1.97314e-06 0)
(-0.00267196 2.77882e-06 0)
(-0.00272423 7.9094e-06 0)
(-0.00280706 1.19471e-05 0)
(-0.00289012 1.30317e-05 0)
(-0.00293078 1.15263e-05 0)
(-0.0028838 4.43951e-06 0)
(-0.00269877 -8.41251e-06 0)
(-0.00231185 -3.04829e-05 0)
(-0.0016645 -6.13063e-05 0)
(-0.000773253 -9.11347e-05 0)
(0.000212349 -9.95987e-05 0)
(0.00102242 -8.18562e-05 0)
(0.00139703 -3.82024e-05 0)
(0.00122262 1.87033e-05 0)
(0.00060178 5.84252e-05 0)
(-0.000235767 7.17157e-05 0)
(-0.00106676 7.04002e-05 0)
(-0.00174622 5.57023e-05 0)
(-0.00222307 3.82465e-05 0)
(-0.00250455 2.22635e-05 0)
(-0.0026223 9.61682e-06 0)
(-0.00261199 -4.31137e-07 0)
(-0.00250668 -8.05618e-06 0)
(-0.00234085 -1.29546e-05 0)
(-0.00214744 -1.51119e-05 0)
(-0.00196185 -1.44297e-05 0)
(-0.0018111 -1.12626e-05 0)
(-0.00172194 -5.9802e-06 0)
(-0.00170366 3.97176e-07 0)
(-0.0017545 6.38814e-06 0)
(-0.00183467 9.25012e-06 0)
(-0.00185287 4.4651e-06 0)
(-0.00173552 -8.1156e-06 0)
(-0.00137179 -2.61555e-05 0)
(-0.000925422 -3.55196e-05 0)
(-0.000348747 -3.59931e-05 0)
(-8.57308e-05 -2.67467e-05 0)
(0.000311505 -1.94439e-05 0)
(0.000258033 6.39854e-06 0)
)
;
    }
    bottomWall
    {
        type            calculated;
        value           nonuniform List<vector> 
800
(
(-0.0353512 0.00216562 0)
(-0.0160365 0.000524961 0)
(-0.0105907 0.000100552 0)
(-0.00845587 3.4588e-05 0)
(-0.00749182 1.96825e-05 0)
(-0.00685615 1.60118e-05 0)
(-0.00634734 1.3212e-05 0)
(-0.00593611 1.07629e-05 0)
(-0.0056015 8.96253e-06 0)
(-0.00532276 7.66321e-06 0)
(-0.00508531 6.67883e-06 0)
(-0.00487975 5.90115e-06 0)
(-0.00469959 5.27121e-06 0)
(-0.00454012 4.7521e-06 0)
(-0.00439774 4.31823e-06 0)
(-0.0042697 3.95106e-06 0)
(-0.00415379 3.63694e-06 0)
(-0.00404828 3.36561e-06 0)
(-0.00395175 3.12925e-06 0)
(-0.00386305 2.9218e-06 0)
(-0.00378122 2.7385e-06 0)
(-0.00370544 2.57556e-06 0)
(-0.00363505 2.4299e-06 0)
(-0.00356946 2.29905e-06 0)
(-0.00350818 2.18094e-06 0)
(-0.00345078 2.07388e-06 0)
(-0.00339689 1.97647e-06 0)
(-0.00334619 1.88749e-06 0)
(-0.00329841 1.80596e-06 0)
(-0.00325327 1.73102e-06 0)
(-0.00321058 1.66194e-06 0)
(-0.00317012 1.59809e-06 0)
(-0.00313173 1.53893e-06 0)
(-0.00309525 1.48399e-06 0)
(-0.00306054 1.43285e-06 0)
(-0.00302747 1.38516e-06 0)
(-0.00299592 1.34059e-06 0)
(-0.0029658 1.29887e-06 0)
(-0.002937 1.25973e-06 0)
(-0.00290945 1.22297e-06 0)
(-0.00288306 1.18837e-06 0)
(-0.00285776 1.15575e-06 0)
(-0.00283349 1.12499e-06 0)
(-0.00281018 1.09586e-06 0)
(-0.00278778 1.06842e-06 0)
(-0.00276625 1.04215e-06 0)
(-0.00274552 1.01772e-06 0)
(-0.00272557 9.93671e-07 0)
(-0.00270632 9.7205e-07 0)
(-0.00268779 9.48968e-07 0)
(-0.0026723 9.30036e-07 0)
(-0.0026595 9.19296e-07 0)
(-0.00264688 9.05533e-07 0)
(-0.00263444 8.90848e-07 0)
(-0.00262221 8.77085e-07 0)
(-0.00261015 8.63987e-07 0)
(-0.00259828 8.51194e-07 0)
(-0.00258658 8.38666e-07 0)
(-0.00257504 8.26431e-07 0)
(-0.00256368 8.14483e-07 0)
(-0.00255248 8.02808e-07 0)
(-0.00254144 7.91391e-07 0)
(-0.00253055 7.80224e-07 0)
(-0.00251982 7.693e-07 0)
(-0.00250923 7.5861e-07 0)
(-0.00249879 7.48147e-07 0)
(-0.0024885 7.37904e-07 0)
(-0.00247834 7.27874e-07 0)
(-0.00246832 7.18051e-07 0)
(-0.00245843 7.0843e-07 0)
(-0.00244868 6.99003e-07 0)
(-0.00243905 6.89767e-07 0)
(-0.00242955 6.80717e-07 0)
(-0.00242018 6.71846e-07 0)
(-0.00241092 6.6315e-07 0)
(-0.00240178 6.54625e-07 0)
(-0.00239276 6.46265e-07 0)
(-0.00238386 6.38067e-07 0)
(-0.00237506 6.30025e-07 0)
(-0.00236638 6.22136e-07 0)
(-0.0023578 6.14395e-07 0)
(-0.00234933 6.06799e-07 0)
(-0.00234097 5.99344e-07 0)
(-0.0023327 5.92027e-07 0)
(-0.00232454 5.84845e-07 0)
(-0.00231647 5.77793e-07 0)
(-0.0023085 5.70871e-07 0)
(-0.00230062 5.64073e-07 0)
(-0.00229284 5.57398e-07 0)
(-0.00228515 5.50843e-07 0)
(-0.00227755 5.44406e-07 0)
(-0.00227003 5.38083e-07 0)
(-0.00226261 5.31873e-07 0)
(-0.00225526 5.25773e-07 0)
(-0.00224801 5.19781e-07 0)
(-0.00224083 5.13894e-07 0)
(-0.00223373 5.08111e-07 0)
(-0.00222672 5.02429e-07 0)
(-0.00221978 4.96845e-07 0)
(-0.00221292 4.91358e-07 0)
(-0.00220613 4.85966e-07 0)
(-0.00219942 4.80667e-07 0)
(-0.00219277 4.75458e-07 0)
(-0.00218621 4.70338e-07 0)
(-0.00217971 4.65305e-07 0)
(-0.00217328 4.60356e-07 0)
(-0.00216692 4.55491e-07 0)
(-0.00216062 4.50705e-07 0)
(-0.00215439 4.45999e-07 0)
(-0.00214823 4.41371e-07 0)
(-0.00214213 4.36817e-07 0)
(-0.00213609 4.32337e-07 0)
(-0.00213012 4.27929e-07 0)
(-0.0021242 4.2359e-07 0)
(-0.00211834 4.19321e-07 0)
(-0.00211255 4.15118e-07 0)
(-0.00210681 4.10981e-07 0)
(-0.00210113 4.06907e-07 0)
(-0.0020955 4.02896e-07 0)
(-0.00208993 3.98946e-07 0)
(-0.00208442 3.95056e-07 0)
(-0.00207896 3.91225e-07 0)
(-0.00207355 3.87452e-07 0)
(-0.00206819 3.83736e-07 0)
(-0.00206289 3.80075e-07 0)
(-0.00205763 3.7647e-07 0)
(-0.00205243 3.72918e-07 0)
(-0.00204727 3.6942e-07 0)
(-0.00204216 3.65974e-07 0)
(-0.0020371 3.6258e-07 0)
(-0.00203209 3.59236e-07 0)
(-0.00202712 3.55941e-07 0)
(-0.0020222 3.52696e-07 0)
(-0.00201733 3.495e-07 0)
(-0.00201249 3.46352e-07 0)
(-0.00200771 3.43251e-07 0)
(-0.00200296 3.40199e-07 0)
(-0.00199826 3.37191e-07 0)
(-0.00199359 3.34234e-07 0)
(-0.00198897 3.31315e-07 0)
(-0.00198439 3.28454e-07 0)
(-0.00197985 3.25619e-07 0)
(-0.00197535 3.22856e-07 0)
(-0.00197089 3.20095e-07 0)
(-0.00196646 3.17439e-07 0)
(-0.00196207 3.14734e-07 0)
(-0.00195772 3.122e-07 0)
(-0.00195341 3.09517e-07 0)
(-0.00194913 3.07092e-07 0)
(-0.00194488 3.04345e-07 0)
(-0.00194132 3.01908e-07 0)
(-0.00193841 3.00678e-07 0)
(-0.0019355 2.99167e-07 0)
(-0.00193258 2.97416e-07 0)
(-0.00192965 2.95679e-07 0)
(-0.00192673 2.94003e-07 0)
(-0.0019238 2.92351e-07 0)
(-0.00192086 2.90707e-07 0)
(-0.00191792 2.89067e-07 0)
(-0.00191498 2.87436e-07 0)
(-0.00191204 2.85813e-07 0)
(-0.00190909 2.84198e-07 0)
(-0.00190614 2.82591e-07 0)
(-0.00190318 2.8099e-07 0)
(-0.00190022 2.79397e-07 0)
(-0.00189725 2.77811e-07 0)
(-0.00189429 2.76232e-07 0)
(-0.00189132 2.7466e-07 0)
(-0.00188834 2.73095e-07 0)
(-0.00188536 2.71537e-07 0)
(-0.00188238 2.69985e-07 0)
(-0.0018794 2.6844e-07 0)
(-0.00187641 2.66903e-07 0)
(-0.00187342 2.65373e-07 0)
(-0.00187042 2.63851e-07 0)
(-0.00186742 2.62336e-07 0)
(-0.00186442 2.60828e-07 0)
(-0.00186141 2.59329e-07 0)
(-0.0018584 2.57836e-07 0)
(-0.00185539 2.56351e-07 0)
(-0.00185238 2.54874e-07 0)
(-0.00184936 2.53404e-07 0)
(-0.00184633 2.51943e-07 0)
(-0.00184331 2.50489e-07 0)
(-0.00184028 2.49043e-07 0)
(-0.00183725 2.47605e-07 0)
(-0.00183421 2.46175e-07 0)
(-0.00183117 2.44752e-07 0)
(-0.00182813 2.43338e-07 0)
(-0.00182508 2.41933e-07 0)
(-0.00182203 2.40535e-07 0)
(-0.00181898 2.39146e-07 0)
(-0.00181592 2.37766e-07 0)
(-0.00181286 2.36395e-07 0)
(-0.0018098 2.35033e-07 0)
(-0.00180674 2.33678e-07 0)
(-0.00180367 2.32335e-07 0)
(-0.00180059 2.30999e-07 0)
(-0.00179752 2.29673e-07 0)
(-0.00179444 2.28356e-07 0)
(-0.00179135 2.27049e-07 0)
(-0.00178827 2.25752e-07 0)
(-0.00178517 2.24466e-07 0)
(-0.00178208 2.23188e-07 0)
(-0.00177898 2.21926e-07 0)
(-0.00177588 2.20668e-07 0)
(-0.00177278 2.19425e-07 0)
(-0.00176967 2.18191e-07 0)
(-0.00176655 2.16968e-07 0)
(-0.00176344 2.15756e-07 0)
(-0.00176031 2.14559e-07 0)
(-0.00175719 2.13368e-07 0)
(-0.00175406 2.12199e-07 0)
(-0.00175093 2.11034e-07 0)
(-0.00174779 2.09882e-07 0)
(-0.00174465 2.08742e-07 0)
(-0.0017415 2.07614e-07 0)
(-0.00173835 2.06502e-07 0)
(-0.00173519 2.05403e-07 0)
(-0.00173203 2.04317e-07 0)
(-0.00172887 2.03244e-07 0)
(-0.0017257 2.02183e-07 0)
(-0.00172252 2.01144e-07 0)
(-0.00171934 2.00116e-07 0)
(-0.00171615 1.99092e-07 0)
(-0.00171296 1.9811e-07 0)
(-0.00170976 1.97097e-07 0)
(-0.00170656 1.9618e-07 0)
(-0.00170335 1.95163e-07 0)
(-0.00170013 1.94353e-07 0)
(-0.00169691 1.93264e-07 0)
(-0.00169367 1.92695e-07 0)
(-0.00169044 1.91332e-07 0)
(-0.00168718 1.91303e-07 0)
(-0.00168395 1.89228e-07 0)
(-0.00168065 1.90447e-07 0)
(-0.00167743 1.86621e-07 0)
(-0.00167407 1.9071e-07 0)
(-0.0016709 1.82699e-07 0)
(-0.00166741 1.93347e-07 0)
(-0.00166438 1.75721e-07 0)
(-0.00166064 2.00932e-07 0)
(-0.00165789 1.62175e-07 0)
(-0.00165369 2.18468e-07 0)
(-0.00165152 1.35504e-07 0)
(-0.00164647 2.54331e-07 0)
(-0.00164531 8.51063e-08 0)
(-0.00163896 3.17809e-07 0)
(-0.00163925 5.51581e-09 0)
(-0.0016312 3.49604e-07 0)
(-0.0353511 -0.00216564 0)
(-0.016036 -0.00052498 0)
(-0.0105897 -0.00010057 0)
(-0.00845461 -3.46027e-05 0)
(-0.00749031 -1.9696e-05 0)
(-0.00685439 -1.60246e-05 0)
(-0.00634537 -1.32244e-05 0)
(-0.00593395 -1.07746e-05 0)
(-0.00559918 -8.97325e-06 0)
(-0.00532034 -7.67264e-06 0)
(-0.00508286 -6.6868e-06 0)
(-0.00487731 -5.90764e-06 0)
(-0.00469722 -5.27634e-06 0)
(-0.00453785 -4.75606e-06 0)
(-0.00439562 -4.3212e-06 0)
(-0.00426775 -3.95319e-06 0)
(-0.00415204 -3.6383e-06 0)
(-0.00404676 -3.36621e-06 0)
(-0.00395049 -3.12904e-06 0)
(-0.00386207 -2.92069e-06 0)
(-0.00378054 -2.73638e-06 0)
(-0.00370511 -2.57229e-06 0)
(-0.0036351 -2.42536e-06 0)
(-0.00356992 -2.29309e-06 0)
(-0.0035091 -2.17341e-06 0)
(-0.00345219 -2.06462e-06 0)
(-0.00339885 -1.96521e-06 0)
(-0.00334875 -1.87403e-06 0)
(-0.0033016 -1.78986e-06 0)
(-0.00325718 -1.71194e-06 0)
(-0.00321526 -1.63907e-06 0)
(-0.00317565 -1.57097e-06 0)
(-0.00313821 -1.50602e-06 0)
(-0.00310278 -1.44476e-06 0)
(-0.00306925 -1.38445e-06 0)
(-0.00303753 -1.32692e-06 0)
(-0.00300751 -1.26774e-06 0)
(-0.00297923 -1.20967e-06 0)
(-0.00295242 -1.14821e-06 0)
(-0.0029276 -1.08119e-06 0)
(-0.00290372 -1.01714e-06 0)
(-0.00288294 -9.204e-07 0)
(-0.00286151 -8.67709e-07 0)
(-0.00284652 -6.85071e-07 0)
(-0.00282617 -7.08033e-07 0)
(-0.00282127 -2.76121e-07 0)
(-0.00279853 -6.62474e-07 0)
(-0.00281099 8.36051e-07 0)
(-0.0027907 -6.58814e-06 0)
(-0.00260199 0.000192236 0)
(0.000137009 -4.45983e-05 0)
(0.000127582 -0.000202126 0)
(8.71132e-05 -0.000259012 0)
(-2.44641e-05 -0.000166568 0)
(-0.000295358 0.000152279 0)
(-0.000457851 0.000728968 0)
(-0.000318733 0.00115926 0)
(-0.000119507 0.00127407 0)
(-2.72933e-05 0.00125545 0)
(-2.63575e-06 0.00121085 0)
(-9.05897e-06 0.00118449 0)
(-2.23245e-05 0.0011775 0)
(-3.68165e-05 0.00119213 0)
(-4.47582e-05 0.00121828 0)
(-4.68878e-05 0.00124784 0)
(-4.36061e-05 0.00127607 0)
(-3.35445e-05 0.00129574 0)
(-1.84014e-05 0.00130071 0)
(2.60236e-07 0.00128692 0)
(2.1189e-05 0.00125174 0)
(4.36041e-05 0.00119357 0)
(6.61193e-05 0.00111216 0)
(8.75678e-05 0.00100852 0)
(0.000106886 0.000884932 0)
(0.000123222 0.000744494 0)
(0.000136118 0.00059133 0)
(0.000146056 0.000430214 0)
(0.000153689 0.0002643 0)
(0.00015668 9.07297e-05 0)
(0.00015349 -8.17102e-05 0)
(0.000148893 -0.000246444 0)
(0.000143537 -0.000404857 0)
(0.000137365 -0.000556255 0)
(0.000130742 -0.000699864 0)
(0.000124096 -0.000835457 0)
(0.000117781 -0.000963264 0)
(0.000112046 -0.00108384 0)
(0.000107035 -0.00119794 0)
(0.000102792 -0.00130642 0)
(9.92734e-05 -0.00141015 0)
(9.63648e-05 -0.00150995 0)
(9.38913e-05 -0.00160651 0)
(9.16239e-05 -0.00170039 0)
(8.93047e-05 -0.00179192 0)
(8.66811e-05 -0.00188125 0)
(8.34828e-05 -0.00196834 0)
(7.94175e-05 -0.0020529 0)
(7.42004e-05 -0.00213445 0)
(6.75485e-05 -0.00221231 0)
(5.91233e-05 -0.00228558 0)
(4.86068e-05 -0.00235313 0)
(3.58884e-05 -0.00241372 0)
(2.05359e-05 -0.00246613 0)
(2.05457e-06 -0.00250848 0)
(-1.92936e-05 -0.00253929 0)
(-4.43132e-05 -0.00255725 0)
(-7.41451e-05 -0.00255935 0)
(-0.000108453 -0.00254362 0)
(-0.000146254 -0.00250817 0)
(-0.000187266 -0.00245165 0)
(-0.000231382 -0.00237128 0)
(-0.000275837 -0.00226696 0)
(-0.000320975 -0.00213835 0)
(-0.000363717 -0.00198236 0)
(-0.000398576 -0.0018061 0)
(-0.000431272 -0.0016022 0)
(-0.000439987 -0.00137575 0)
(-0.000429247 -0.00115784 0)
(-0.00044695 -0.000917277 0)
(-0.0004192 -0.000612566 0)
(-0.000241887 -0.000315124 0)
(5.1001e-05 -0.000122998 0)
(0.000352558 -4.64957e-05 0)
(0.000538605 -7.22883e-05 0)
(0.000609932 -0.000157202 0)
(0.000568098 -0.000254932 0)
(0.000431939 -0.000335178 0)
(0.000242319 -0.000362694 0)
(6.62533e-05 -0.000330381 0)
(-4.42917e-05 -0.000284074 0)
(-0.000104046 -0.000274985 0)
(-0.00015463 -0.000292568 0)
(-0.000188004 -0.000295428 0)
(-0.000179961 -0.000282351 0)
(-0.000138839 -0.000284425 0)
(-6.29616e-05 -0.00028938 0)
(1.19105e-05 -0.000295436 0)
(5.54848e-05 -0.000312975 0)
(7.76654e-05 -0.000336994 0)
(9.01045e-05 -0.000357397 0)
(0.000100809 -0.000381171 0)
(0.000110235 -0.000416133 0)
(0.000115278 -0.000461887 0)
(0.000115741 -0.000512483 0)
(0.000114272 -0.000563408 0)
(0.000112858 -0.00061374 0)
(0.000110973 -0.000663486 0)
(0.00010766 -0.000711476 0)
(0.00010303 -0.000756537 0)
(9.77125e-05 -0.000798449 0)
(9.20975e-05 -0.00083781 0)
(8.59576e-05 -0.000875481 0)
(7.83492e-05 -0.000911978 0)
(6.78262e-05 -0.000946888 0)
(5.30406e-05 -0.000978563 0)
(3.34706e-05 -0.00100436 0)
(9.86036e-06 -0.00102134 0)
(-1.57208e-05 -0.00102718 0)
(-4.05447e-05 -0.00102101 0)
(-6.21827e-05 -0.00100345 0)
(-7.88498e-05 -0.000975866 0)
(-8.92627e-05 -0.000940365 0)
(-9.26324e-05 -0.000899639 0)
(-8.84428e-05 -0.000856767 0)
(-7.62403e-05 -0.00081485 0)
(-5.59336e-05 -0.00077652 0)
(-2.84561e-05 -0.000743662 0)
(3.28163e-06 -0.000718043 0)
(3.1721e-05 -0.000701566 0)
(4.24701e-05 -0.000697047 0)
(1.96005e-05 -0.000698769 0)
(-4.22149e-05 -0.000687704 0)
(-0.000128208 -0.00063822 0)
(-0.00020998 -0.000547648 0)
(-0.000266648 -0.000434888 0)
(-0.000294924 -0.000320918 0)
(-0.000302414 -0.000216529 0)
(-0.000297585 -0.000123289 0)
(-0.000286212 -3.98362e-05 0)
(-0.000271755 3.53308e-05 0)
(-0.000256204 0.000103418 0)
(-0.000240711 0.000165206 0)
(-0.000225971 0.000221639 0)
(-0.000212082 0.000273375 0)
(-0.000199042 0.000320909 0)
(-0.000186742 0.00036461 0)
(-0.00017501 0.000404746 0)
(-0.000163646 0.000441501 0)
(-0.000152444 0.000474994 0)
(-0.000141201 0.000505282 0)
(-0.000129732 0.000532378 0)
(-0.000117872 0.000556251 0)
(-0.000105479 0.000576836 0)
(-9.24401e-05 0.000594043 0)
(-7.86723e-05 0.000607758 0)
(-6.4129e-05 0.000617856 0)
(-4.87764e-05 0.000624214 0)
(-3.26834e-05 0.000626699 0)
(-1.59402e-05 0.000625266 0)
(1.45105e-06 0.000619884 0)
(1.94643e-05 0.000610461 0)
(3.7966e-05 0.00059693 0)
(5.68143e-05 0.000579255 0)
(7.58407e-05 0.000557444 0)
(9.48562e-05 0.000531543 0)
(0.000113654 0.000501642 0)
(0.000132012 0.000467869 0)
(0.000149692 0.000430396 0)
(0.000166445 0.000389435 0)
(0.000182012 0.000345242 0)
(0.000196132 0.000298115 0)
(0.000208541 0.000248399 0)
(0.00021898 0.000196491 0)
(0.000227205 0.000142848 0)
(0.000232996 8.79833e-05 0)
(0.000236174 3.2467e-05 0)
(0.000236607 -2.30978e-05 0)
(0.000234217 -7.80882e-05 0)
(0.000228995 -0.000131885 0)
(0.000220988 -0.000183902 0)
(0.000210297 -0.000233596 0)
(0.000197067 -0.000280476 0)
(0.000181489 -0.000324103 0)
(0.000163786 -0.000364101 0)
(0.000144206 -0.000400144 0)
(0.000123025 -0.000431966 0)
(0.000100533 -0.000459352 0)
(7.70372e-05 -0.000482139 0)
(5.28544e-05 -0.000500216 0)
(2.8311e-05 -0.000513519 0)
(3.74798e-06 -0.000522029 0)
(-2.04983e-05 -0.00052574 0)
(-4.40507e-05 -0.000524638 0)
(-6.63623e-05 -0.000518785 0)
(-8.69712e-05 -0.000508399 0)
(-0.000105512 -0.000493669 0)
(-0.000121512 -0.000474861 0)
(-0.000134478 -0.000452311 0)
(-0.000143949 -0.00042645 0)
(-0.000149517 -0.000397865 0)
(-0.000150895 -0.00036745 0)
(-0.000148072 -0.000336696 0)
(-0.000141659 -0.000308232 0)
(-0.000133552 -0.000286762 0)
(-0.0001281 -0.000280587 0)
(-0.000134165 -0.000303999 0)
(-0.000168887 -0.000378977 0)
(-0.000263843 -0.000533738 0)
(-0.000460876 -0.000792435 0)
(-0.000762635 -0.00113649 0)
(3.67703e-05 -0.000115599 0)
(0.00015805 -7.27063e-06 0)
(6.33445e-05 0.000157052 0)
(-0.000174859 0.00026846 0)
(-0.000455617 0.000302432 0)
(-0.000721152 0.000284575 0)
(-0.000953708 0.000244748 0)
(-0.00114785 0.000199099 0)
(-0.00130572 0.000156025 0)
(-0.00143206 0.000118401 0)
(-0.00153187 8.62549e-05 0)
(-0.00160926 5.83028e-05 0)
(-0.00166701 3.27335e-05 0)
(-0.00170632 7.53701e-06 0)
(-0.00172688 -1.92302e-05 0)
(-0.00172726 -4.99146e-05 0)
(-0.00170327 -8.61977e-05 0)
(-0.00165112 -0.000128932 0)
(-0.00156591 -0.000178998 0)
(-0.00144233 -0.00023658 0)
(-0.00127465 -0.000301119 0)
(-0.00105724 -0.000370798 0)
(-0.000785377 -0.000441159 0)
(-0.000456067 -0.000504096 0)
(-6.27112e-05 -0.00053995 0)
(0.00039124 -0.000506653 0)
(0.000830499 -0.0003451 0)
(0.00108086 -0.000101815 0)
(0.00114738 5.81865e-05 0)
(0.00116405 7.30638e-05 0)
(0.00118154 -1.0708e-05 0)
(0.00122467 -6.18646e-05 0)
(0.00122401 3.74707e-05 0)
(0.00105885 0.000261451 0)
(0.000679235 0.000439951 0)
(0.000229286 0.000421525 0)
(-8.77892e-05 0.000264186 0)
(-0.000229812 0.000102017 0)
(-0.000275071 -1.34111e-05 0)
(-0.000281865 -7.0516e-05 0)
(-0.000280398 -8.00229e-05 0)
(-0.000260626 -5.69629e-05 0)
(-0.000201219 1.0532e-05 0)
(-0.000132585 0.000118915 0)
(-9.87179e-05 0.000206583 0)
(-9.70402e-05 0.000205211 0)
(-6.32609e-05 7.16136e-05 0)
(8.29671e-05 -0.000190072 0)
(0.000381721 -0.00041676 0)
(0.000752933 -0.000402923 0)
(0.000967633 -0.000251481 0)
(0.00109566 -0.000263915 0)
(0.00130349 -0.000316504 0)
(0.00150992 -0.000266883 0)
(0.00165218 -0.000223017 0)
(0.00178032 -0.000200625 0)
(0.00189449 -0.000171117 0)
(0.00199003 -0.000155542 0)
(0.00207989 -0.000142277 0)
(0.00215885 -0.000125954 0)
(0.00222825 -0.000116101 0)
(0.00229453 -0.000110156 0)
(0.00235994 -0.000110761 0)
(0.00243192 -0.000123704 0)
(0.00252017 -0.000149461 0)
(0.00263336 -0.000187169 0)
(0.00277953 -0.0002312 0)
(0.00296004 -0.00026723 0)
(0.00316129 -0.00027509 0)
(0.00334972 -0.000234993 0)
(0.00347462 -0.000137673 0)
(0.00348349 1.65569e-06 0)
(0.00335451 0.000147367 0)
(0.00311603 0.000274546 0)
(0.00279354 0.000375384 0)
(0.00241379 0.000446157 0)
(0.00200205 0.000492719 0)
(0.00157551 0.000522703 0)
(0.00114794 0.000544007 0)
(0.000717136 0.000564521 0)
(0.000254246 0.000571237 0)
(-0.000216118 0.000533466 0)
(-0.000622361 0.000476314 0)
(-0.000986903 0.000429318 0)
(-0.00132364 0.000377406 0)
(-0.00161889 0.000314537 0)
(-0.00186067 0.000242403 0)
(-0.00204173 0.000164776 0)
(-0.00216187 8.02935e-05 0)
(-0.0022156 -1.41155e-05 0)
(-0.00220054 -0.000113469 0)
(-0.00212237 -0.000227092 0)
(-0.00196205 -0.000380348 0)
(-0.00165059 -0.000529757 0)
(-0.00120246 -0.000553723 0)
(-0.000770411 -0.000427926 0)
(-0.000462792 -0.000261015 0)
(-0.000266171 -0.000141236 0)
(-0.000133018 -7.33028e-05 0)
(-3.03735e-05 -3.33472e-05 0)
(-9.83186e-05 4.48861e-05 0)
(-0.000333038 -0.000297523 0)
(-0.000428289 -0.00089262 0)
(-0.000427041 -0.00148281 0)
(-0.000388304 -0.00204248 0)
(-0.000321912 -0.00253804 0)
(-0.000227501 -0.00293758 0)
(-0.000109682 -0.00320856 0)
(3.08933e-05 -0.00333405 0)
(0.000185352 -0.00328365 0)
(0.000332399 -0.00305737 0)
(0.000453238 -0.00267301 0)
(0.000534654 -0.00216819 0)
(0.000571933 -0.00159221 0)
(0.000569623 -0.000989543 0)
(0.000526092 -0.000386892 0)
(0.000403855 0.000189897 0)
(0.000167088 0.000660317 0)
(-5.61937e-05 0.000848253 0)
(-5.91749e-05 0.000876241 0)
(0.000124659 0.000939454 0)
(0.000247479 0.00111015 0)
(0.000181021 0.00130277 0)
(3.60542e-05 0.00135794 0)
(-9.4019e-05 0.00126661 0)
(-0.000203099 0.00108075 0)
(-0.000292478 0.00081949 0)
(-0.000351855 0.000475817 0)
(-0.000303633 0.000100174 0)
(-0.000177305 -0.000184746 0)
(-1.92218e-05 -0.000303752 0)
(8.0891e-05 -0.000270485 0)
(8.2441e-05 -0.000161734 0)
(2.60805e-05 -7.96503e-05 0)
(-3.24226e-05 -6.92176e-05 0)
(-9.1021e-05 -6.61628e-05 0)
(-0.000133108 -9.77e-05 0)
(-0.000108355 -0.000195426 0)
(2.18837e-05 -0.000268113 0)
(0.000181805 -0.000305768 0)
(0.000330745 -0.000288903 0)
(0.000358884 -0.000230119 0)
(0.000160987 -0.000204468 0)
(-0.0002692 -0.000225315 0)
(-0.000504373 -0.000311038 0)
(-0.000661907 -0.000506408 0)
(-0.000643943 -0.000682841 0)
(-0.000630277 -0.00102824 0)
(-0.000353117 -0.00109004 0)
(-8.50537e-06 -0.000810864 0)
(0.000243091 -0.00054302 0)
(0.000370699 -0.000278544 0)
(0.000366471 -6.8847e-05 0)
(0.000313761 0.000104397 0)
(0.000236562 0.00031044 0)
(0.000103436 0.00054063 0)
(-6.253e-05 0.000729321 0)
(-0.000191398 0.00084123 0)
(-0.000232094 0.000911567 0)
(-0.000164485 0.000990019 0)
(2.43608e-05 0.00111701 0)
(0.000354566 0.00132796 0)
(0.00078456 0.00165663 0)
(0.00110563 0.00219278 0)
(0.00102473 0.00286039 0)
(0.000559262 0.0032485 0)
(0.000235307 0.00323553 0)
(0.000271308 0.00324616 0)
(0.000326895 0.00341278 0)
(0.000214136 0.00356033 0)
(0.000107788 0.00358503 0)
(9.90345e-05 0.00359483 0)
(8.36998e-05 0.00363935 0)
(3.03115e-05 0.00366195 0)
(-2.61838e-07 0.0036519 0)
(-3.15352e-06 0.00364799 0)
(-1.15872e-05 0.00365443 0)
(-2.13948e-05 0.00365486 0)
(-1.61532e-05 0.00365529 0)
(-1.55413e-06 0.00366676 0)
(1.57765e-05 0.00368645 0)
(4.0275e-05 0.00371172 0)
(7.25228e-05 0.00374606 0)
(0.000106098 0.00378991 0)
(0.000135436 0.00383949 0)
(0.000155858 0.0038913 0)
(0.000161235 0.00394118 0)
(0.000147396 0.00398236 0)
(0.000115368 0.00400775 0)
(7.05886e-05 0.00401245 0)
(2.13568e-05 0.00399515 0)
(-2.56363e-05 0.00395991 0)
(-6.85199e-05 0.0039114 0)
(-0.000107486 0.00385276 0)
(-0.0001428 0.00378621 0)
(-0.000174555 0.00371392 0)
(-0.000202967 0.00363814 0)
(-0.00022821 0.00356097 0)
(-0.000249918 0.00348454 0)
(-0.000267001 0.00341154 0)
(-0.000277831 0.00334539 0)
(-0.000280235 0.00328977 0)
(-0.000270999 0.00324771 0)
(-0.000245284 0.00321952 0)
(-0.000191641 0.00320229 0)
(-9.12005e-05 0.00319885 0)
(7.62157e-05 0.00322954 0)
(0.000316388 0.00332058 0)
(0.000581958 0.00346878 0)
(0.000775432 0.00371485 0)
(0.000818091 0.00403923 0)
(0.000712239 0.00430651 0)
(0.000551835 0.00445176 0)
(0.000412157 0.00452206 0)
(0.000288391 0.00457246 0)
(0.000159895 0.0045928 0)
(4.18076e-05 0.00456321 0)
(-4.53975e-05 0.00450193 0)
(-0.000109041 0.00443394 0)
(-0.000163053 0.0043597 0)
(-0.000208411 0.00427361 0)
(-0.000242813 0.00417885 0)
(-0.000268237 0.00408056 0)
(-0.000287504 0.00398018 0)
(-0.000301857 0.00387816 0)
(-0.000312275 0.00377562 0)
(-0.000319952 0.00367333 0)
(-0.000325711 0.00357146 0)
(-0.000330034 0.00347024 0)
(-0.000333386 0.00336989 0)
(-0.000336171 0.00327044 0)
(-0.00033863 0.00317185 0)
(-0.000340906 0.00307407 0)
(-0.000343136 0.00297712 0)
(-0.000345452 0.00288094 0)
(-0.000347952 0.00278546 0)
(-0.000350701 0.00269057 0)
(-0.000353753 0.00259619 0)
(-0.000357152 0.00250224 0)
(-0.00036094 0.00240862 0)
(-0.000365149 0.00231523 0)
(-0.000369806 0.00222197 0)
(-0.000374929 0.00212873 0)
(-0.000380534 0.00203541 0)
(-0.000386633 0.00194193 0)
(-0.000393232 0.00184818 0)
(-0.000400336 0.00175407 0)
(-0.000407949 0.00165953 0)
(-0.000416074 0.00156448 0)
(-0.000424715 0.00146885 0)
(-0.000433879 0.00137259 0)
(-0.000443576 0.00127563 0)
(-0.000453824 0.00117793 0)
(-0.000464644 0.00107941 0)
(-0.000476062 0.000980008 0)
(-0.000488101 0.00087961 0)
(-0.000500774 0.000778068 0)
(-0.000514066 0.000675194 0)
(-0.000527925 0.000570779 0)
(-0.000542258 0.00046463 0)
(-0.000556937 0.000356636 0)
(-0.000571818 0.000246816 0)
(-0.000586774 0.000135325 0)
(-0.000601969 2.2397e-05 0)
(-0.000617533 -9.18623e-05 0)
(-0.000633359 -0.000207289 0)
(-0.00064963 -0.000323709 0)
(-0.000666711 -0.000441185 0)
(-0.000684753 -0.000559835 0)
(-0.000703908 -0.0006798 0)
(-0.000724369 -0.000801245 0)
(-0.000746315 -0.000924338 0)
(-0.000769923 -0.00104924 0)
(-0.00079539 -0.00117611 0)
(-0.000822933 -0.0013051 0)
(-0.000852787 -0.00143639 0)
(-0.000885233 -0.00157013 0)
(-0.000920596 -0.0017065 0)
(-0.000959245 -0.00184568 0)
(-0.0010016 -0.00198789 0)
(-0.00104814 -0.00213336 0)
(-0.00109938 -0.00228237 0)
(-0.00115594 -0.00243519 0)
(-0.00121848 -0.00259217 0)
(-0.00128775 -0.00275366 0)
(-0.00136458 -0.00292006 0)
(-0.00144991 -0.0030919 0)
(-0.00154475 -0.00326947 0)
(-0.00165033 -0.00345388 0)
(-0.00176768 -0.00364451 0)
(-0.00189882 -0.00384485 0)
(-0.00204387 -0.00404969 0)
(-0.00220771 -0.00427252 0)
(-0.00238535 -0.00448845 0)
(-0.00259279 -0.00475036 0)
(-0.00280291 -0.00495747 0)
(-0.00307166 -0.00530674 0)
(-0.00328447 -0.0054259 0)
(-0.0036216 -0.00600646 0)
(-0.00363976 -0.00573498 0)
)
;
    }
    frontAndBack
    {
        type            empty;
    }
}


// ************************************************************************* //
