/*--------------------------------*- C++ -*----------------------------------*\
  =========                 |
  \\      /  F ield         | OpenFOAM: The Open Source CFD Toolbox
   \\    /   O peration     | Website:  https://openfoam.org
    \\  /    A nd           | Version:  7
     \\/     M anipulation  |
\*---------------------------------------------------------------------------*/
FoamFile
{
    version     2.0;
    format      ascii;
    class       surfaceScalarField;
    location    "0.03";
    object      ddtCorrDdt0(phi);
}
// * * * * * * * * * * * * * * * * * * * * * * * * * * * * * * * * * * * * * //

dimensions      [0 3 -2 0 0 0 0];

internalField   nonuniform List<scalar> 
139350
(
5.82391e-10
-5.83044e-10
1.6438e-09
-1.06304e-09
2.99018e-09
-1.34799e-09
4.4429e-09
-1.45404e-09
5.95529e-09
-1.51372e-09
7.54251e-09
-1.58836e-09
9.23626e-09
-1.69494e-09
1.10847e-08
-1.85001e-09
1.31265e-08
-2.04326e-09
1.53741e-08
-2.24963e-09
1.78203e-08
-2.44798e-09
2.04449e-08
-2.62653e-09
2.32234e-08
-2.78017e-09
2.61319e-08
-2.91007e-09
2.91514e-08
-3.02155e-09
3.2273e-08
-3.12319e-09
3.54934e-08
-3.22326e-09
3.88202e-08
-3.3286e-09
4.22611e-08
-3.44406e-09
4.58316e-08
-3.57212e-09
4.95437e-08
-3.71458e-09
5.34137e-08
-3.87156e-09
5.74542e-08
-4.0429e-09
6.16812e-08
-4.22861e-09
6.6106e-08
-4.42836e-09
7.07477e-08
-4.64301e-09
7.56174e-08
-4.87382e-09
8.07385e-08
-5.12242e-09
8.61266e-08
-5.39145e-09
9.18082e-08
-5.68324e-09
9.78037e-08
-5.99867e-09
1.04144e-07
-6.34178e-09
1.10849e-07
-6.70988e-09
1.17957e-07
-7.10873e-09
1.25485e-07
-7.53281e-09
1.33473e-07
-7.9897e-09
1.41943e-07
-8.4731e-09
1.50934e-07
-8.99221e-09
1.60473e-07
-9.54238e-09
1.70611e-07
-1.01391e-08
1.81374e-07
-1.07669e-08
1.92872e-07
-1.14985e-08
2.05081e-07
-1.22136e-08
2.1831e-07
-1.32287e-08
2.32385e-07
-1.40803e-08
2.48092e-07
-1.57068e-08
2.6467e-07
-1.65833e-08
2.86036e-07
-2.13681e-08
2.96457e-07
-1.04274e-08
-1.33656e-07
4.30109e-07
8.38753e-10
-1.42259e-09
3.08156e-09
-3.3076e-09
6.36473e-09
-4.63291e-09
1.00401e-08
-5.13079e-09
1.38477e-08
-5.32277e-09
1.78501e-08
-5.59204e-09
2.21888e-08
-6.03497e-09
2.70205e-08
-6.68334e-09
3.24605e-08
-7.48497e-09
3.85454e-08
-8.33673e-09
4.52426e-08
-9.14714e-09
5.24771e-08
-9.86301e-09
6.01605e-08
-1.04654e-08
6.82132e-08
-1.09645e-08
7.65777e-08
-1.13882e-08
8.52259e-08
-1.17732e-08
9.41521e-08
-1.21526e-08
1.03372e-07
-1.25509e-08
1.1291e-07
-1.29847e-08
1.22798e-07
-1.34621e-08
1.3307e-07
-1.39892e-08
1.43764e-07
-1.45678e-08
1.54919e-07
-1.51997e-08
1.66575e-07
-1.58868e-08
1.78774e-07
-1.66315e-08
1.91568e-07
-1.74377e-08
2.05002e-07
-1.83124e-08
2.19139e-07
-1.92613e-08
2.34039e-07
-2.02948e-08
2.49773e-07
-2.14191e-08
2.66413e-07
-2.26418e-08
2.84039e-07
-2.39703e-08
3.02731e-07
-2.54064e-08
3.2258e-07
-2.69589e-08
3.43666e-07
-2.86243e-08
3.66093e-07
-3.04173e-08
3.8994e-07
-3.23247e-08
4.15329e-07
-3.43821e-08
4.42336e-07
-3.65521e-08
4.71122e-07
-3.89274e-08
5.01753e-07
-4.14014e-08
5.34494e-07
-4.42405e-08
5.69387e-07
-4.71113e-08
6.06979e-07
-5.08198e-08
6.471e-07
-5.42077e-08
6.91763e-07
-6.03691e-08
7.37684e-07
-6.25101e-08
7.98758e-07
-8.24452e-08
8.47592e-07
-5.92688e-08
-2.24434e-07
9.38365e-07
6.31941e-10
-2.05544e-09
3.03398e-09
-5.7115e-09
7.20359e-09
-8.80438e-09
1.23674e-08
-1.02961e-08
1.78971e-08
-1.0854e-08
2.37083e-08
-1.14046e-08
3.00008e-08
-1.23289e-08
3.70445e-08
-1.37289e-08
4.50585e-08
-1.55008e-08
5.41413e-08
-1.74219e-08
6.42684e-08
-1.92763e-08
7.53283e-08
-2.09251e-08
8.71738e-08
-2.23129e-08
9.96648e-08
-2.34573e-08
1.12696e-07
-2.44223e-08
1.26212e-07
-2.52902e-08
1.40191e-07
-2.61356e-08
1.54649e-07
-2.70108e-08
1.69611e-07
-2.79502e-08
1.85118e-07
-2.89711e-08
2.01213e-07
-3.00867e-08
2.17948e-07
-3.13045e-08
2.35378e-07
-3.26328e-08
2.53569e-07
-3.40798e-08
2.7259e-07
-3.56563e-08
2.92523e-07
-3.73726e-08
3.13452e-07
-3.92462e-08
3.35478e-07
-4.12887e-08
3.58703e-07
-4.35232e-08
3.83241e-07
-4.59597e-08
4.09216e-07
-4.86201e-08
4.36756e-07
-5.1512e-08
4.65998e-07
-5.46535e-08
4.97088e-07
-5.80505e-08
5.30174e-07
-6.17155e-08
5.65421e-07
-6.56659e-08
6.0298e-07
-6.98883e-08
6.43055e-07
-7.4458e-08
6.85778e-07
-7.92788e-08
7.31432e-07
-8.45824e-08
7.80117e-07
-9.009e-08
8.32248e-07
-9.63729e-08
8.8792e-07
-1.02789e-07
9.4789e-07
-1.10789e-07
1.01184e-06
-1.18161e-07
1.08314e-06
-1.3167e-07
1.15567e-06
-1.35046e-07
1.25007e-06
-1.76846e-07
1.33986e-06
-1.49068e-07
-3.34816e-07
1.45023e-06
3.77313e-10
-2.43374e-09
2.29186e-09
-7.62801e-09
6.25441e-09
-1.27689e-08
1.18752e-08
-1.59184e-08
1.84032e-08
-1.73836e-08
2.54602e-08
-1.8463e-08
3.30985e-08
-1.99686e-08
4.16002e-08
-2.22325e-08
5.12802e-08
-2.51827e-08
6.23459e-08
-2.849e-08
7.48474e-08
-3.178e-08
8.86959e-08
-3.47758e-08
1.03723e-07
-3.7342e-08
1.19744e-07
-3.94798e-08
1.36603e-07
-4.12846e-08
1.54204e-07
-4.28927e-08
1.72497e-07
-4.44322e-08
1.91478e-07
-4.59938e-08
2.1116e-07
-4.76361e-08
2.31576e-07
-4.93893e-08
2.52764e-07
-5.1277e-08
2.74773e-07
-5.33163e-08
2.97666e-07
-5.55284e-08
3.2152e-07
-5.79356e-08
3.46424e-07
-6.05647e-08
3.72489e-07
-6.34388e-08
3.9983e-07
-6.6592e-08
4.28584e-07
-7.00449e-08
4.58894e-07
-7.38371e-08
4.90916e-07
-7.79839e-08
5.24818e-07
-8.25257e-08
5.60775e-07
-8.74708e-08
5.98977e-07
-9.2861e-08
6.39624e-07
-9.86989e-08
6.82925e-07
-1.05022e-07
7.29112e-07
-1.11854e-07
7.78404e-07
-1.19184e-07
8.31087e-07
-1.27143e-07
8.87366e-07
-1.35561e-07
9.47625e-07
-1.44844e-07
1.01204e-06
-1.5451e-07
1.08115e-06
-1.65481e-07
1.1551e-06
-1.76746e-07
1.23493e-06
-1.90616e-07
1.31993e-06
-2.03167e-07
1.41491e-06
-2.26652e-07
1.51184e-06
-2.31985e-07
1.63263e-06
-2.97638e-07
1.7593e-06
-2.75745e-07
-4.72003e-07
1.89648e-06
2.61433e-10
-2.69623e-09
1.57681e-09
-8.94541e-09
4.6941e-09
-1.58882e-08
9.77722e-09
-2.10031e-08
1.63517e-08
-2.39597e-08
2.39154e-08
-2.60282e-08
3.22721e-08
-2.83268e-08
4.15434e-08
-3.15058e-08
5.20317e-08
-3.5673e-08
6.40385e-08
-4.04994e-08
7.77396e-08
-4.54833e-08
9.31461e-08
-5.01846e-08
1.1014e-07
-5.43381e-08
1.2854e-07
-5.78814e-08
1.48163e-07
-6.09105e-08
1.68871e-07
-6.3603e-08
1.90577e-07
-6.61412e-08
2.13242e-07
-6.86612e-08
2.36854e-07
-7.12523e-08
2.61424e-07
-7.39608e-08
2.86965e-07
-7.68218e-08
3.13511e-07
-7.98642e-08
3.41107e-07
-8.31268e-08
3.69823e-07
-8.66537e-08
3.99752e-07
-9.04984e-08
4.31019e-07
-9.47076e-08
4.63763e-07
-9.93413e-08
4.98153e-07
-1.04436e-07
5.34366e-07
-1.10054e-07
5.72597e-07
-1.16217e-07
6.13055e-07
-1.22988e-07
6.55959e-07
-1.30377e-07
7.01544e-07
-1.38452e-07
7.50062e-07
-1.47217e-07
8.01772e-07
-1.56739e-07
8.5697e-07
-1.67054e-07
9.15937e-07
-1.78155e-07
9.79034e-07
-1.90242e-07
1.04655e-06
-2.03075e-07
1.11894e-06
-2.17239e-07
1.19649e-06
-2.32066e-07
1.27984e-06
-2.48835e-07
1.36919e-06
-2.66094e-07
1.46592e-06
-2.87353e-07
1.56888e-06
-3.06125e-07
1.68391e-06
-3.41683e-07
1.80303e-06
-3.51111e-07
1.94413e-06
-4.38746e-07
2.10291e-06
-4.34532e-07
-6.33323e-07
2.26422e-06
2.65364e-10
-2.9627e-09
1.20013e-09
-9.88228e-09
3.42641e-09
-1.81165e-08
7.46243e-09
-2.50408e-08
1.32774e-08
-2.97763e-08
2.05184e-08
-3.32707e-08
2.88585e-08
-3.66685e-08
3.81987e-08
-4.08482e-08
4.8703e-08
-4.61794e-08
6.06773e-08
-5.24762e-08
7.44084e-08
-5.92167e-08
9.00544e-08
-6.5833e-08
1.07623e-07
-7.19085e-08
1.27008e-07
-7.72685e-08
1.48053e-07
-8.19583e-08
1.70606e-07
-8.61589e-08
1.9455e-07
-9.0088e-08
2.19809e-07
-9.39232e-08
2.46341e-07
-9.77882e-08
2.74126e-07
-1.01748e-07
3.0315e-07
-1.05848e-07
3.33409e-07
-1.10126e-07
3.64913e-07
-1.14634e-07
3.97701e-07
-1.19443e-07
4.31839e-07
-1.24641e-07
4.67443e-07
-1.30313e-07
5.04656e-07
-1.36559e-07
5.43663e-07
-1.43446e-07
5.84671e-07
-1.51066e-07
6.27909e-07
-1.59457e-07
6.73623e-07
-1.68706e-07
7.22072e-07
-1.78828e-07
7.73532e-07
-1.89918e-07
8.28297e-07
-2.01984e-07
8.86672e-07
-2.1512e-07
9.49005e-07
-2.29388e-07
1.01563e-06
-2.44784e-07
1.08697e-06
-2.61584e-07
1.16338e-06
-2.79492e-07
1.24541e-06
-2.99262e-07
1.33341e-06
-3.20071e-07
1.42814e-06
-3.43574e-07
1.52981e-06
-3.67764e-07
1.64016e-06
-3.97708e-07
1.75782e-06
-4.23789e-07
1.88864e-06
-4.72501e-07
2.02718e-06
-4.89659e-07
2.18357e-06
-5.95141e-07
2.36803e-06
-6.18994e-07
-8.16546e-07
2.55124e-06
3.06733e-10
-3.27058e-09
1.11853e-09
-1.06962e-08
2.76508e-09
-1.97652e-08
5.80711e-09
-2.80845e-08
1.05434e-08
-3.45143e-08
1.68959e-08
-3.96248e-08
2.45794e-08
-4.43536e-08
3.33478e-08
-4.96187e-08
4.31836e-08
-5.60173e-08
5.43065e-08
-6.36018e-08
6.70471e-08
-7.19597e-08
8.16984e-08
-8.04868e-08
9.84322e-08
-8.86445e-08
1.17286e-07
-9.61244e-08
1.38197e-07
-1.02872e-07
1.61057e-07
-1.09021e-07
1.85747e-07
-1.14782e-07
2.12177e-07
-1.20355e-07
2.40279e-07
-1.25894e-07
2.70014e-07
-1.31485e-07
3.01343e-07
-1.37181e-07
3.34233e-07
-1.43017e-07
3.68647e-07
-1.49052e-07
4.04571e-07
-1.55369e-07
4.42016e-07
-1.62092e-07
4.81053e-07
-1.69351e-07
5.21794e-07
-1.77306e-07
5.64419e-07
-1.86072e-07
6.0914e-07
-1.95791e-07
6.56212e-07
-2.06531e-07
7.05911e-07
-2.18409e-07
7.58534e-07
-2.31452e-07
8.14392e-07
-2.45781e-07
8.73819e-07
-2.61412e-07
9.37157e-07
-2.78465e-07
1.00479e-06
-2.97026e-07
1.07711e-06
-3.17104e-07
1.15457e-06
-3.39045e-07
1.23759e-06
-3.62521e-07
1.32677e-06
-3.88439e-07
1.42254e-06
-4.15845e-07
1.52576e-06
-4.46797e-07
1.63665e-06
-4.78663e-07
1.75712e-06
-5.18173e-07
1.88614e-06
-5.52815e-07
2.02831e-06
-6.14673e-07
2.18237e-06
-6.4372e-07
2.3503e-06
-7.63085e-07
2.55165e-06
-8.20352e-07
-1.02031e-06
2.75542e-06
3.3647e-10
-3.60825e-09
1.17473e-09
-1.15367e-08
2.59011e-09
-2.11828e-08
4.99673e-09
-3.04929e-08
8.80943e-09
-3.83288e-08
1.41644e-08
-4.49814e-08
2.08999e-08
-5.10907e-08
2.87227e-08
-5.74437e-08
3.74654e-08
-6.47622e-08
4.72166e-08
-7.33557e-08
5.82762e-08
-8.30218e-08
7.10159e-08
-9.3229e-08
8.57573e-08
-1.03388e-07
1.02709e-07
-1.13078e-07
1.21957e-07
-1.22123e-07
1.43495e-07
-1.30561e-07
1.6726e-07
-1.38551e-07
1.93181e-07
-1.46278e-07
2.21191e-07
-1.53909e-07
2.51254e-07
-1.6155e-07
2.83331e-07
-1.69261e-07
3.17382e-07
-1.7707e-07
3.53343e-07
-1.85017e-07
3.91149e-07
-1.93176e-07
4.3074e-07
-2.01688e-07
4.7211e-07
-2.10723e-07
5.15304e-07
-2.20505e-07
5.60449e-07
-2.31219e-07
6.07737e-07
-2.43083e-07
6.57419e-07
-2.56215e-07
7.09788e-07
-2.70783e-07
7.6517e-07
-2.86836e-07
8.23907e-07
-3.04524e-07
8.8637e-07
-3.23877e-07
9.5293e-07
-3.45032e-07
1.02401e-06
-3.68108e-07
1.10002e-06
-3.93121e-07
1.18146e-06
-4.20487e-07
1.2688e-06
-4.49861e-07
1.36264e-06
-4.82285e-07
1.46351e-06
-5.16712e-07
1.57227e-06
-5.55566e-07
1.6893e-06
-5.95696e-07
1.8163e-06
-6.45172e-07
1.95312e-06
-6.89637e-07
2.10248e-06
-7.64038e-07
2.26702e-06
-8.08268e-07
2.44319e-06
-9.39251e-07
2.65317e-06
-1.03035e-06
-1.23833e-06
2.87118e-06
3.47496e-10
-3.95697e-09
1.24833e-09
-1.24398e-08
2.65264e-09
-2.25893e-08
4.80302e-09
-3.26451e-08
8.06192e-09
-4.15895e-08
1.26606e-08
-4.95817e-08
1.85381e-08
-5.69699e-08
2.54058e-08
-6.43136e-08
3.2996e-08
-7.23546e-08
4.12631e-08
-8.16257e-08
5.04223e-08
-9.21834e-08
6.08511e-08
-1.0366e-07
7.29631e-08
-1.15503e-07
8.71129e-08
-1.2723e-07
1.03548e-07
-1.38561e-07
1.22405e-07
-1.49421e-07
1.43723e-07
-1.59873e-07
1.67493e-07
-1.7005e-07
1.93686e-07
-1.80106e-07
2.22293e-07
-1.90159e-07
2.53311e-07
-2.00283e-07
2.86732e-07
-2.10493e-07
3.2251e-07
-2.20798e-07
3.60562e-07
-2.3123e-07
4.00776e-07
-2.41908e-07
4.43062e-07
-2.5301e-07
4.87367e-07
-2.64815e-07
5.3373e-07
-2.77585e-07
5.82273e-07
-2.9163e-07
6.33209e-07
-3.07153e-07
6.86818e-07
-3.24396e-07
7.43434e-07
-3.43455e-07
8.03421e-07
-3.64517e-07
8.67179e-07
-3.87637e-07
9.35107e-07
-4.12966e-07
1.00765e-06
-4.40657e-07
1.08526e-06
-4.70729e-07
1.16843e-06
-5.03662e-07
1.25768e-06
-5.3911e-07
1.35361e-06
-5.78219e-07
1.4568e-06
-6.19912e-07
1.5681e-06
-6.66861e-07
1.68806e-06
-7.15661e-07
1.81802e-06
-7.75137e-07
1.95875e-06
-8.30368e-07
2.11136e-06
-9.16648e-07
2.28094e-06
-9.77859e-07
2.46127e-06
-1.11958e-06
2.67316e-06
-1.24225e-06
-1.46206e-06
2.89688e-06
3.49438e-10
-4.30768e-09
1.30219e-09
-1.33949e-08
2.77307e-09
-2.40625e-08
4.90114e-09
-3.4775e-08
7.95388e-09
-4.46441e-08
1.21518e-08
-5.37813e-08
1.74756e-08
-6.22956e-08
2.36464e-08
-7.04867e-08
3.03283e-08
-7.90388e-08
3.736e-08
-8.86602e-08
4.48485e-08
-9.96745e-08
5.31159e-08
-1.1193e-07
6.25924e-08
-1.24982e-07
7.37144e-08
-1.38354e-07
8.68547e-08
-1.51705e-07
1.02286e-07
-1.64855e-07
1.20171e-07
-1.77762e-07
1.4059e-07
-1.90471e-07
1.63578e-07
-2.03098e-07
1.89178e-07
-2.15761e-07
2.17445e-07
-2.28553e-07
2.48441e-07
-2.41491e-07
2.82187e-07
-2.54547e-07
3.18641e-07
-2.67687e-07
3.57691e-07
-2.80962e-07
3.99191e-07
-2.94512e-07
4.42999e-07
-3.08628e-07
4.89042e-07
-3.2363e-07
5.37336e-07
-3.39929e-07
5.88013e-07
-3.57833e-07
6.41299e-07
-3.77686e-07
6.97508e-07
-3.99666e-07
7.57e-07
-4.24015e-07
8.20193e-07
-4.50831e-07
8.87504e-07
-4.80283e-07
9.59404e-07
-5.12558e-07
1.03635e-06
-5.47679e-07
1.11886e-06
-5.86174e-07
1.20746e-06
-6.27718e-07
1.30275e-06
-6.7351e-07
1.40536e-06
-7.22528e-07
1.51604e-06
-7.77539e-07
1.63554e-06
-8.35169e-07
1.76486e-06
-9.04448e-07
1.90536e-06
-9.70877e-07
2.05715e-06
-1.06844e-06
2.22642e-06
-1.14714e-06
2.40599e-06
-1.29915e-06
2.61367e-06
-1.44993e-06
-1.6832e-06
2.8348e-06
3.51032e-10
-4.66002e-09
1.33987e-09
-1.43861e-08
2.88435e-09
-2.56093e-08
5.08425e-09
-3.69767e-08
8.13918e-09
-4.77009e-08
1.22265e-08
-5.78704e-08
1.73186e-08
-6.73895e-08
2.31245e-08
-7.6295e-08
2.92644e-08
-8.5181e-08
3.54898e-08
-9.48885e-08
4.18011e-08
-1.05988e-07
4.84326e-08
-1.18564e-07
5.57695e-08
-1.32321e-07
6.42567e-08
-1.46844e-07
7.43252e-08
-1.61776e-07
8.6341e-08
-1.76873e-07
1.00567e-07
-1.91993e-07
1.17174e-07
-2.07081e-07
1.36265e-07
-2.22193e-07
1.57937e-07
-2.37436e-07
1.8231e-07
-2.5293e-07
2.09529e-07
-2.68712e-07
2.39714e-07
-2.84736e-07
2.7292e-07
-3.00895e-07
3.09092e-07
-3.17139e-07
3.48093e-07
-3.33515e-07
3.89726e-07
-3.50266e-07
4.33825e-07
-3.67731e-07
4.80287e-07
-3.86395e-07
5.29132e-07
-4.0668e-07
5.80496e-07
-4.29054e-07
6.34634e-07
-4.53807e-07
6.91876e-07
-4.81262e-07
7.5263e-07
-5.11588e-07
8.17319e-07
-5.44978e-07
8.86423e-07
-5.81663e-07
9.60412e-07
-6.21673e-07
1.0398e-06
-6.65565e-07
1.12514e-06
-7.13057e-07
1.21698e-06
-7.65351e-07
1.31599e-06
-8.21548e-07
1.42284e-06
-8.84384e-07
1.53837e-06
-9.50706e-07
1.66333e-06
-1.02941e-06
1.79941e-06
-1.10696e-06
1.94611e-06
-1.21514e-06
2.10989e-06
-1.31092e-06
2.28341e-06
-1.47268e-06
2.48088e-06
-1.64741e-06
-1.89401e-06
2.69168e-06
3.55017e-10
-5.01638e-09
1.37309e-09
-1.54067e-08
2.97876e-09
-2.72174e-08
5.26944e-09
-3.92693e-08
8.41435e-09
-5.08477e-08
1.25529e-08
-6.20107e-08
1.76339e-08
-7.24724e-08
2.33472e-08
-8.20108e-08
2.92757e-08
-9.11118e-08
3.51092e-08
-1.00725e-07
4.0768e-08
-1.1165e-07
4.63987e-08
-1.24198e-07
5.23128e-08
-1.38238e-07
5.89099e-08
-1.53443e-07
6.66153e-08
-1.69485e-07
7.58283e-08
-1.86089e-07
8.68681e-08
-2.03037e-07
9.99637e-08
-2.20179e-07
1.15266e-07
-2.37499e-07
1.32911e-07
-2.55084e-07
1.53064e-07
-2.73086e-07
1.75939e-07
-2.9159e-07
2.01757e-07
-3.10557e-07
2.30689e-07
-3.29829e-07
2.62784e-07
-3.4924e-07
2.9797e-07
-3.68703e-07
3.36054e-07
-3.88356e-07
3.76817e-07
-4.08495e-07
4.20057e-07
-4.29639e-07
4.6568e-07
-4.52306e-07
5.13709e-07
-4.77087e-07
5.64312e-07
-5.04412e-07
6.17754e-07
-5.3471e-07
6.74411e-07
-5.68246e-07
7.34686e-07
-6.0526e-07
7.99053e-07
-6.46032e-07
8.67984e-07
-6.90608e-07
9.41981e-07
-7.39564e-07
1.02159e-06
-7.92671e-07
1.10734e-06
-8.51099e-07
1.19989e-06
-9.14102e-07
1.29983e-06
-9.84327e-07
1.40802e-06
-1.05891e-06
1.52506e-06
-1.14645e-06
1.65272e-06
-1.23462e-06
1.79011e-06
-1.35253e-06
1.94347e-06
-1.46429e-06
2.10578e-06
-1.635e-06
2.28745e-06
-1.82909e-06
-2.08739e-06
2.48083e-06
3.60844e-10
-5.37862e-09
1.40817e-09
-1.64565e-08
3.06661e-09
-2.88784e-08
5.44345e-09
-4.16482e-08
8.70131e-09
-5.41076e-08
1.29578e-08
-6.6269e-08
1.8141e-08
-7.76575e-08
2.392e-08
-8.77923e-08
2.98514e-08
-9.70456e-08
3.55877e-08
-1.06464e-07
4.09969e-08
-1.17062e-07
4.61612e-08
-1.29365e-07
5.13191e-08
-1.43398e-07
5.68075e-08
-1.58934e-07
6.30112e-08
-1.75691e-07
7.0312e-08
-1.93392e-07
7.90382e-08
-2.11767e-07
8.9438e-08
-2.30582e-07
1.01678e-07
-2.49743e-07
1.15905e-07
-2.69313e-07
1.32296e-07
-2.89481e-07
1.511e-07
-3.10396e-07
1.7261e-07
-3.3207e-07
1.97098e-07
-3.54319e-07
2.24728e-07
-3.76875e-07
2.55522e-07
-3.99499e-07
2.89339e-07
-4.22178e-07
3.2595e-07
-4.45109e-07
3.65096e-07
-4.6879e-07
4.06588e-07
-4.938e-07
4.50338e-07
-5.20842e-07
4.96413e-07
-5.5049e-07
5.44993e-07
-5.83296e-07
5.96393e-07
-6.19648e-07
6.50977e-07
-6.5985e-07
7.09191e-07
-7.04247e-07
7.71492e-07
-7.52913e-07
8.38356e-07
-8.0643e-07
9.10316e-07
-8.64635e-07
9.87856e-07
-9.28641e-07
1.07161e-06
-9.97857e-07
1.16211e-06
-1.07483e-06
1.26015e-06
-1.15696e-06
1.36621e-06
-1.25251e-06
1.48204e-06
-1.35045e-06
1.60646e-06
-1.47695e-06
1.74517e-06
-1.60301e-06
1.89172e-06
-1.78155e-06
2.05294e-06
-1.99032e-06
-2.2575e-06
2.22303e-06
3.67512e-10
-5.74756e-09
1.44638e-09
-1.75379e-08
3.15539e-09
-3.05899e-08
5.61356e-09
-4.41084e-08
8.9862e-09
-5.74823e-08
1.33801e-08
-7.06649e-08
1.87091e-08
-8.29884e-08
2.46259e-08
-9.37116e-08
3.06684e-08
-1.03091e-07
3.64689e-08
-1.12268e-07
4.18689e-08
-1.22465e-07
4.69122e-08
-1.34411e-07
5.17898e-08
-1.48278e-07
5.67824e-08
-1.63929e-07
6.22224e-08
-1.81135e-07
6.84575e-08
-1.9963e-07
7.57953e-08
-2.19109e-07
8.44727e-08
-2.39262e-07
9.46441e-08
-2.59919e-07
1.06438e-07
-2.8111e-07
1.20016e-07
-3.03061e-07
1.35624e-07
-3.26007e-07
1.53584e-07
-3.50034e-07
1.74233e-07
-3.7497e-07
1.97824e-07
-4.00472e-07
2.2447e-07
-4.26147e-07
2.54097e-07
-4.5181e-07
2.86502e-07
-4.77516e-07
3.21401e-07
-5.03693e-07
3.5854e-07
-5.30942e-07
3.97741e-07
-5.60048e-07
4.38973e-07
-5.91724e-07
4.82324e-07
-6.26653e-07
5.28033e-07
-6.65359e-07
5.76407e-07
-7.0823e-07
6.27842e-07
-7.55684e-07
6.82763e-07
-8.07838e-07
7.41608e-07
-8.65277e-07
8.04873e-07
-9.27904e-07
8.73003e-07
-9.96773e-07
9.46562e-07
-1.07142e-06
1.02603e-06
-1.1543e-06
1.11213e-06
-1.24306e-06
1.20518e-06
-1.34556e-06
1.30684e-06
-1.45212e-06
1.41576e-06
-1.58587e-06
1.53683e-06
-1.72409e-06
1.66432e-06
-1.90905e-06
1.80191e-06
-2.12792e-06
-2.4004e-06
1.9448e-06
3.74529e-10
-6.12356e-09
1.48502e-09
-1.8651e-08
3.24762e-09
-3.23551e-08
5.78633e-09
-4.66492e-08
9.27347e-09
-6.09715e-08
1.38096e-08
-7.5203e-08
1.92976e-08
-8.84785e-08
2.53779e-08
-9.97945e-08
3.15749e-08
-1.0929e-07
3.75098e-08
-1.18206e-07
4.30141e-08
-1.27972e-07
4.81158e-08
-1.39516e-07
5.29796e-08
-1.53145e-07
5.78525e-08
-1.68805e-07
6.30297e-08
-1.86315e-07
6.88235e-08
-2.05427e-07
7.55133e-08
-2.25803e-07
8.33115e-08
-2.47063e-07
9.23465e-08
-2.68958e-07
1.02716e-07
-2.91482e-07
1.14546e-07
-3.14895e-07
1.28058e-07
-3.39522e-07
1.43567e-07
-3.65547e-07
1.61434e-07
-3.92838e-07
1.81959e-07
-4.21002e-07
2.05319e-07
-4.49509e-07
2.31496e-07
-4.77992e-07
2.6032e-07
-5.06343e-07
2.91503e-07
-5.34881e-07
3.24753e-07
-5.64195e-07
3.59825e-07
-5.95124e-07
3.96604e-07
-6.28505e-07
4.35094e-07
-6.65149e-07
4.75453e-07
-7.0572e-07
5.17922e-07
-7.50704e-07
5.62834e-07
-8.00598e-07
6.10565e-07
-8.55573e-07
6.61503e-07
-9.16218e-07
7.1609e-07
-9.82494e-07
7.7472e-07
-1.05541e-06
8.37878e-07
-1.13458e-06
9.05975e-07
-1.2224e-06
9.79636e-07
-1.31673e-06
1.05902e-06
-1.42495e-06
1.14568e-06
-1.53878e-06
1.23808e-06
-1.67827e-06
1.34025e-06
-1.82626e-06
1.44714e-06
-2.01594e-06
1.55992e-06
-2.24071e-06
-2.51458e-06
1.67409e-06
3.81802e-10
-6.50687e-09
1.52448e-09
-1.97964e-08
3.34354e-09
-3.41769e-08
5.96438e-09
-4.92722e-08
9.56765e-09
-6.45769e-08
1.4249e-08
-7.98864e-08
1.99011e-08
-9.41326e-08
2.61533e-08
-1.06049e-07
3.25192e-08
-1.15659e-07
3.86136e-08
-1.24304e-07
4.42655e-08
-1.33627e-07
4.94998e-08
-1.44753e-07
5.44723e-08
-1.5812e-07
5.94149e-08
-1.7375e-07
6.46033e-08
-1.91507e-07
7.03281e-08
-2.11154e-07
7.68466e-08
-2.32326e-07
8.43481e-08
-2.54568e-07
9.29351e-08
-2.7755e-07
1.02674e-07
-3.01224e-07
1.13657e-07
-3.25881e-07
1.26071e-07
-3.51939e-07
1.40209e-07
-3.79688e-07
1.56423e-07
-4.09055e-07
1.75031e-07
-4.39614e-07
1.96233e-07
-4.70714e-07
2.20043e-07
-5.01807e-07
2.46311e-07
-5.32613e-07
2.74751e-07
-5.63326e-07
3.05047e-07
-5.94493e-07
3.36907e-07
-6.26988e-07
3.70154e-07
-6.61754e-07
4.04719e-07
-6.9972e-07
4.40688e-07
-7.41691e-07
4.78232e-07
-7.88253e-07
5.17619e-07
-8.39987e-07
5.59165e-07
-8.97124e-07
6.03201e-07
-9.60256e-07
6.50103e-07
-1.0294e-06
7.00204e-07
-1.10551e-06
7.53905e-07
-1.18829e-06
8.11527e-07
-1.28002e-06
8.73604e-07
-1.37881e-06
9.40131e-07
-1.49147e-06
1.01247e-06
-1.61113e-06
1.08905e-06
-1.75485e-06
1.1729e-06
-1.91013e-06
1.25966e-06
-2.1027e-06
1.34857e-06
-2.32963e-06
-2.60108e-06
1.43506e-06
3.89374e-10
-6.89781e-09
1.56511e-09
-2.09749e-08
3.44297e-09
-3.60575e-08
6.14825e-09
-5.19797e-08
9.87052e-09
-6.83014e-08
1.47012e-08
-8.47192e-08
2.05216e-08
-9.99552e-08
2.695e-08
-1.12481e-07
3.34906e-08
-1.22202e-07
3.97529e-08
-1.30569e-07
4.55665e-08
-1.39443e-07
5.09584e-08
-1.50148e-07
5.60849e-08
-1.63249e-07
6.11751e-08
-1.78843e-07
6.6499e-08
-1.96834e-07
7.23389e-08
-2.16997e-07
7.89404e-08
-2.38932e-07
8.64778e-08
-2.62109e-07
9.5035e-08
-2.86111e-07
1.04656e-07
-3.10848e-07
1.15407e-07
-3.36635e-07
1.2745e-07
-3.63985e-07
1.41053e-07
-3.93295e-07
1.56551e-07
-4.24556e-07
1.74252e-07
-4.5732e-07
1.94358e-07
-4.90823e-07
2.16887e-07
-5.24342e-07
2.41693e-07
-5.57422e-07
2.68485e-07
-5.90122e-07
2.96927e-07
-6.22938e-07
3.26695e-07
-6.56761e-07
3.57565e-07
-6.92627e-07
3.89416e-07
-7.31577e-07
4.22269e-07
-7.74547e-07
4.56238e-07
-8.22228e-07
4.91528e-07
-8.75279e-07
5.28394e-07
-9.33995e-07
5.67106e-07
-9.9897e-07
6.07973e-07
-1.07027e-06
6.51261e-07
-1.1488e-06
6.97287e-07
-1.23432e-06
7.46275e-07
-1.32901e-06
7.98666e-07
-1.43121e-06
8.54303e-07
-1.54711e-06
9.14336e-07
-1.67117e-06
9.77164e-07
-1.81768e-06
1.04492e-06
-1.97789e-06
1.11375e-06
-2.17154e-06
1.18161e-06
-2.39749e-06
-2.66313e-06
1.24364e-06
3.97301e-10
-7.29673e-09
1.6069e-09
-2.21873e-08
3.54587e-09
-3.79993e-08
6.33803e-09
-5.47741e-08
1.01824e-08
-7.21481e-08
1.51672e-08
-8.97061e-08
2.11607e-08
-1.05951e-07
2.77698e-08
-1.19093e-07
3.44892e-08
-1.28924e-07
4.09239e-08
-1.37007e-07
4.69044e-08
-1.45427e-07
5.24618e-08
-1.55709e-07
5.77565e-08
-1.68547e-07
6.3021e-08
-1.8411e-07
6.85279e-08
-2.02345e-07
7.45599e-08
-2.23032e-07
8.13594e-08
-2.45736e-07
8.90931e-08
-2.69846e-07
9.78337e-08
-2.94856e-07
1.07613e-07
-3.2063e-07
1.18484e-07
-3.4751e-07
1.30596e-07
-3.761e-07
1.44202e-07
-4.06904e-07
1.59622e-07
-4.39979e-07
1.77147e-07
-4.74851e-07
1.96966e-07
-5.10644e-07
2.19085e-07
-5.46466e-07
2.43345e-07
-5.81685e-07
2.69443e-07
-6.16224e-07
2.97026e-07
-6.50523e-07
3.25744e-07
-6.85484e-07
3.55341e-07
-7.22227e-07
3.85658e-07
-7.619e-07
4.16672e-07
-8.05562e-07
4.48447e-07
-8.54009e-07
4.81136e-07
-9.0797e-07
5.14943e-07
-9.67807e-07
5.5008e-07
-1.03411e-06
5.86791e-07
-1.10698e-06
6.25278e-07
-1.18729e-06
6.65785e-07
-1.27483e-06
7.08434e-07
-1.37166e-06
7.53583e-07
-1.47636e-06
8.00941e-07
-1.59447e-06
8.51422e-07
-1.72166e-06
9.03455e-07
-1.86971e-06
9.58337e-07
-2.03278e-06
1.01264e-06
-2.22585e-06
1.06346e-06
-2.44832e-06
-2.70538e-06
1.10569e-06
4.05628e-10
-7.70402e-09
1.64989e-09
-2.34345e-08
3.65226e-09
-4.00046e-08
6.53379e-09
-5.7658e-08
1.05034e-08
-7.612e-08
1.56471e-08
-9.48521e-08
2.1819e-08
-1.12125e-07
2.86134e-08
-1.2589e-07
3.55159e-08
-1.3583e-07
4.21269e-08
-1.43622e-07
4.82781e-08
-1.51581e-07
5.40048e-08
-1.61439e-07
5.94727e-08
-1.74018e-07
6.49204e-08
-1.89561e-07
7.06271e-08
-2.08055e-07
7.68804e-08
-2.29289e-07
8.39239e-08
-2.52784e-07
9.19211e-08
-2.77846e-07
1.00939e-07
-3.03879e-07
1.11005e-07
-3.30698e-07
1.22168e-07
-3.58678e-07
1.34577e-07
-3.88511e-07
1.48479e-07
-4.20811e-07
1.64189e-07
-4.55691e-07
1.81983e-07
-4.92651e-07
2.02033e-07
-5.30697e-07
2.24325e-07
-5.68763e-07
2.4868e-07
-6.06043e-07
2.74776e-07
-6.42325e-07
3.02243e-07
-6.77992e-07
3.30713e-07
-7.13958e-07
3.59907e-07
-7.51424e-07
3.89644e-07
-7.91642e-07
4.19867e-07
-8.35788e-07
4.5061e-07
-8.84758e-07
4.81986e-07
-9.39348e-07
5.14156e-07
-9.99982e-07
5.47287e-07
-1.06724e-06
5.81571e-07
-1.14127e-06
6.17152e-07
-1.22287e-06
6.5421e-07
-1.31189e-06
6.92782e-07
-1.41023e-06
7.33144e-07
-1.51673e-06
7.74904e-07
-1.63623e-06
8.18736e-07
-1.76549e-06
8.63126e-07
-1.9141e-06
9.0866e-07
-2.07832e-06
9.52218e-07
-2.26941e-06
9.90432e-07
-2.48654e-06
-2.73297e-06
1.01801e-06
4.14398e-10
-8.12013e-09
1.69412e-09
-2.47172e-08
3.76223e-09
-4.20757e-08
6.73566e-09
-6.06339e-08
1.08334e-08
-8.02202e-08
1.6141e-08
-1.00162e-07
2.24966e-08
-1.18483e-07
2.94812e-08
-1.32877e-07
3.65713e-08
-1.42923e-07
4.33628e-08
-1.50417e-07
4.96883e-08
-1.5791e-07
5.55876e-08
-1.67341e-07
6.12319e-08
-1.79666e-07
6.68673e-08
-1.95199e-07
7.27812e-08
-2.13972e-07
7.9268e-08
-2.35779e-07
8.65744e-08
-2.60095e-07
9.48624e-08
-2.86138e-07
1.04196e-07
-3.13217e-07
1.14601e-07
-3.41107e-07
1.26131e-07
-3.70211e-07
1.38939e-07
-4.01322e-07
1.53279e-07
-4.35155e-07
1.69464e-07
-4.71879e-07
1.87764e-07
-5.10956e-07
2.08332e-07
-5.51268e-07
2.31132e-07
-5.91569e-07
2.55965e-07
-6.30879e-07
2.82489e-07
-6.68852e-07
3.10313e-07
-7.0582e-07
3.3906e-07
-7.4271e-07
3.68437e-07
-7.80803e-07
3.98246e-07
-8.21457e-07
4.28416e-07
-8.65959e-07
4.5896e-07
-9.15307e-07
4.89964e-07
-9.70355e-07
5.21563e-07
-1.03158e-06
5.53888e-07
-1.09957e-06
5.87092e-07
-1.17448e-06
6.21274e-07
-1.25706e-06
6.56565e-07
-1.34719e-06
6.92934e-07
-1.4466e-06
7.30581e-07
-1.55438e-06
7.6905e-07
-1.6747e-06
8.08786e-07
-1.80523e-06
8.48343e-07
-1.95366e-06
8.87736e-07
-2.11772e-06
9.24069e-07
-2.30575e-06
9.53779e-07
-2.51626e-06
-2.75073e-06
9.71527e-07
4.23651e-10
-8.54556e-09
1.73964e-09
-2.60362e-08
3.87583e-09
-4.4215e-08
6.94377e-09
-6.37043e-08
1.11725e-08
-8.44513e-08
1.66488e-08
-1.05641e-07
2.31937e-08
-1.2503e-07
3.03734e-08
-1.4006e-07
3.76554e-08
-1.50208e-07
4.46316e-08
-1.57397e-07
5.11353e-08
-1.64417e-07
5.72106e-08
-1.7342e-07
6.30348e-08
-1.85493e-07
6.88619e-08
-2.0103e-07
7.49882e-08
-2.20102e-07
8.17159e-08
-2.4251e-07
8.92955e-08
-2.6768e-07
9.78877e-08
-2.94733e-07
1.07554e-07
-3.22889e-07
1.18321e-07
-3.51877e-07
1.30249e-07
-3.82142e-07
1.43501e-07
-4.14577e-07
1.58342e-07
-4.5e-07
1.7509e-07
-4.8863e-07
1.94008e-07
-5.29879e-07
2.15235e-07
-5.72498e-07
2.38717e-07
-6.15055e-07
2.6423e-07
-6.56395e-07
2.91412e-07
-6.96038e-07
3.19859e-07
-7.3427e-07
3.49181e-07
-7.72037e-07
3.79079e-07
-8.10704e-07
4.09351e-07
-8.51734e-07
4.39915e-07
-8.96526e-07
4.70776e-07
-9.46174e-07
5.02008e-07
-1.00159e-06
5.33724e-07
-1.06331e-06
5.66037e-07
-1.13188e-06
5.99072e-07
-1.20752e-06
6.32894e-07
-1.29088e-06
6.676e-07
-1.3819e-06
7.0311e-07
-1.48211e-06
7.39555e-07
-1.59083e-06
7.76446e-07
-1.71159e-06
8.1402e-07
-1.84281e-06
8.50908e-07
-1.99055e-06
8.86683e-07
-2.15351e-06
9.18616e-07
-2.33769e-06
9.43135e-07
-2.54079e-06
-2.76259e-06
9.54991e-07
4.33427e-10
-8.98082e-09
1.78647e-09
-2.73924e-08
3.99311e-09
-4.64248e-08
7.15825e-09
-6.68721e-08
1.15207e-08
-8.88163e-08
1.71703e-08
-1.11293e-07
2.391e-08
-1.31773e-07
3.12899e-08
-1.47443e-07
3.87685e-08
-1.5769e-07
4.59335e-08
-1.64566e-07
5.26192e-08
-1.71107e-07
5.88739e-08
-1.79678e-07
6.48816e-08
-1.91504e-07
7.09042e-08
-2.07056e-07
7.72481e-08
-2.2645e-07
8.42233e-08
-2.49489e-07
9.2084e-08
-2.75545e-07
1.0099e-07
-3.03643e-07
1.11e-07
-3.32904e-07
1.22142e-07
-3.63022e-07
1.34484e-07
-3.94488e-07
1.48202e-07
-4.28298e-07
1.63575e-07
-4.65377e-07
1.80926e-07
-5.05984e-07
2.00516e-07
-5.49475e-07
2.22472e-07
-5.94457e-07
2.46718e-07
-6.39306e-07
2.73009e-07
-6.82688e-07
3.00963e-07
-7.23997e-07
3.30163e-07
-7.63473e-07
3.60213e-07
-8.02091e-07
3.90806e-07
-8.413e-07
4.21743e-07
-8.82677e-07
4.5294e-07
-9.27725e-07
4.844e-07
-9.77639e-07
5.1619e-07
-1.03338e-06
5.48415e-07
-1.09553e-06
5.81175e-07
-1.16465e-06
6.14577e-07
-1.24092e-06
6.48666e-07
-1.32497e-06
6.83512e-07
-1.41675e-06
7.19003e-07
-1.51761e-06
7.55214e-07
-1.62704e-06
7.9164e-07
-1.74802e-06
8.28337e-07
-1.87951e-06
8.64016e-07
-2.02624e-06
8.97923e-07
-2.18742e-06
9.27461e-07
-2.36724e-06
9.49172e-07
-2.56252e-06
-2.77145e-06
9.58024e-07
4.43765e-10
-9.42648e-09
1.83466e-09
-2.87865e-08
4.11411e-09
-4.87076e-08
7.37919e-09
-7.01398e-08
1.18783e-08
-9.33181e-08
1.77054e-08
-1.17123e-07
2.46454e-08
-1.38715e-07
3.22307e-08
-1.55032e-07
3.99104e-08
-1.65373e-07
4.72685e-08
-1.71927e-07
5.41401e-08
-1.77982e-07
6.05778e-08
-1.8612e-07
6.67724e-08
-1.97702e-07
7.29947e-08
-2.13281e-07
7.95611e-08
-2.3302e-07
8.67901e-08
-2.56722e-07
9.49392e-08
-2.83699e-07
1.04167e-07
-3.12874e-07
1.1453e-07
-3.43271e-07
1.26057e-07
-3.74553e-07
1.38825e-07
-4.0726e-07
1.53025e-07
-4.42501e-07
1.68948e-07
-4.81305e-07
1.86927e-07
-5.23966e-07
2.07221e-07
-5.69774e-07
2.29942e-07
-6.17181e-07
2.54995e-07
-6.64364e-07
2.82111e-07
-7.09808e-07
3.10893e-07
-7.52783e-07
3.40908e-07
-7.93491e-07
3.71754e-07
-8.32942e-07
4.03125e-07
-8.72674e-07
4.34823e-07
-9.1438e-07
4.66765e-07
-9.59671e-07
4.98959e-07
-1.00984e-06
5.31469e-07
-1.06589e-06
5.64398e-07
-1.12847e-06
5.97838e-07
-1.19809e-06
6.31885e-07
-1.27497e-06
6.66573e-07
-1.35966e-06
7.01951e-07
-1.45213e-06
7.37886e-07
-1.55354e-06
7.74403e-07
-1.66356e-06
8.10998e-07
-1.78461e-06
8.47576e-07
-1.9161e-06
8.82915e-07
-2.06158e-06
9.16037e-07
-2.22055e-06
9.44462e-07
-2.39567e-06
9.64921e-07
-2.58299e-06
-2.77924e-06
9.72697e-07
4.54702e-10
-9.88314e-09
1.88423e-09
-3.02194e-08
4.23882e-09
-5.10655e-08
7.60666e-09
-7.35104e-08
1.22453e-08
-9.79595e-08
1.8254e-08
-1.23134e-07
2.53998e-08
-1.45864e-07
3.31958e-08
-1.62831e-07
4.10813e-08
-1.73262e-07
4.86367e-08
-1.79487e-07
5.5698e-08
-1.85047e-07
6.23222e-08
-1.92748e-07
6.87071e-08
-2.04091e-07
7.51331e-08
-2.19711e-07
8.1927e-08
-2.39818e-07
8.94157e-08
-2.64214e-07
9.78603e-08
-2.92149e-07
1.07417e-07
-3.22435e-07
1.18141e-07
-3.54e-07
1.30063e-07
-3.86478e-07
1.43268e-07
-4.20469e-07
1.57963e-07
-4.57199e-07
1.74454e-07
-4.978e-07
1.9308e-07
-5.42596e-07
2.14099e-07
-5.90798e-07
2.3761e-07
-6.40695e-07
2.63496e-07
-6.90255e-07
2.91467e-07
-7.37782e-07
3.21105e-07
-7.82426e-07
3.51966e-07
-8.24355e-07
3.83642e-07
-8.64623e-07
4.15828e-07