/*--------------------------------*- C++ -*----------------------------------*\
  =========                 |
  \\      /  F ield         | OpenFOAM: The Open Source CFD Toolbox
   \\    /   O peration     | Website:  https://openfoam.org
    \\  /    A nd           | Version:  7
     \\/     M anipulation  |
\*---------------------------------------------------------------------------*/
FoamFile
{
    version     2.0;
    format      ascii;
    class       volVectorField;
    location    "0.03";
    object      ddtCorrDdt0(U);
}
// * * * * * * * * * * * * * * * * * * * * * * * * * * * * * * * * * * * * * //

dimensions      [0 1 -2 0 0 0 0];

internalField   nonuniform List<vector> 
70000
(
(0.000936886 -7.20344e-05 0)
(0.00640177 -0.000111166 0)
(0.0145757 -0.000118855 0)
(0.0237083 -9.99071e-05 0)
(0.0330817 -0.000100332 0)
(0.0428872 -0.000101937 0)
(0.0532771 -0.000102636 0)
(0.064514 -0.000106147 0)
(0.0769025 -0.000112707 0)
(0.0906065 -0.000121346 0)
(0.105628 -0.000131433 0)
(0.121862 -0.000142809 0)
(0.139152 -0.000154208 0)
(0.157337 -0.000165094 0)
(0.176276 -0.000175099 0)
(0.195882 -0.00018447 0)
(0.216117 -0.000193594 0)
(0.237003 -0.000203 0)
(0.258588 -0.000213285 0)
(0.28095 -0.000224594 0)
(0.304176 -0.000237378 0)
(0.328357 -0.00025151 0)
(0.353584 -0.000267005 0)
(0.379951 -0.000283755 0)
(0.407541 -0.000301596 0)
(0.436454 -0.000320413 0)
(0.46678 -0.000340357 0)
(0.498639 -0.000361372 0)
(0.532139 -0.000383866 0)
(0.567442 -0.000408203 0)
(0.604656 -0.000433988 0)
(0.644007 -0.000462707 0)
(0.685567 -0.000492663 0)
(0.729652 -0.000526213 0)
(0.776258 -0.000560804 0)
(0.825801 -0.000599162 0)
(0.878205 -0.000639366 0)
(0.933939 -0.000682295 0)
(0.993006 -0.000730589 0)
(1.05568 -0.000779506 0)
(1.12252 -0.000837256 0)
(1.1931 -0.000905904 0)
(1.26919 -0.000963542 0)
(1.3495 -0.00108789 0)
(1.43748 -0.00114843 0)
(1.5294 -0.00129989 0)
(1.64127 -0.00164288 0)
(1.72932 -0.001381 0)
(1.94272 -0.00102585 0)
(1.73791 -0.0611912 0)
(0.000461746 -0.000346183 0)
(0.00979992 -0.000762603 0)
(0.0282138 -0.00101941 0)
(0.050667 -0.0011145 0)
(0.0737312 -0.00116987 0)
(0.0976345 -0.00124403 0)
(0.123204 -0.00135226 0)
(0.151382 -0.00150339 0)
(0.183084 -0.00168812 0)
(0.218796 -0.00188654 0)
(0.258489 -0.00208091 0)
(0.301779 -0.00226057 0)
(0.348114 -0.00242236 0)
(0.396948 -0.00256731 0)
(0.447845 -0.00270012 0)
(0.500544 -0.00282811 0)
(0.554953 -0.0029586 0)
(0.611117 -0.00309764 0)
(0.669164 -0.00324984 0)
(0.729273 -0.00341781 0)
(0.791653 -0.00360374 0)
(0.856526 -0.00380842 0)
(0.924123 -0.00403253 0)
(0.994696 -0.0042768 0)
(1.06849 -0.00454207 0)
(1.14581 -0.0048299 0)
(1.22693 -0.00514286 0)
(1.31222 -0.00548341 0)
(1.40202 -0.00585559 0)
(1.49679 -0.00626268 0)
(1.59688 -0.00670768 0)
(1.70292 -0.0071951 0)
(1.81516 -0.00772539 0)
(1.93448 -0.00830433 0)
(2.06093 -0.00893022 0)
(2.19571 -0.00961097 0)
(2.33864 -0.0103431 0)
(2.4911 -0.0111393 0)
(2.65313 -0.0119933 0)
(2.8255 -0.0129328 0)
(3.00985 -0.0139329 0)
(3.2048 -0.0150911 0)
(3.4154 -0.0162771 0)
(3.63751 -0.0178445 0)
(3.88047 -0.0193143 0)
(4.13436 -0.0218231 0)
(4.43947 -0.0231583 0)
(4.68251 -0.0310167 0)
(5.246 -0.0166814 0)
(5.08289 -0.130327 0)
(-0.000276364 -0.000639393 0)
(0.00775482 -0.00166615 0)
(0.0284829 -0.0024588 0)
(0.0580649 -0.00282679 0)
(0.0905357 -0.00299434 0)
(0.124319 -0.00319742 0)
(0.160264 -0.00351766 0)
(0.199938 -0.00397063 0)
(0.244935 -0.00452568 0)
(0.296263 -0.00512354 0)
(0.354108 -0.00570751 0)
(0.41798 -0.00624144 0)
(0.487025 -0.0067138 0)
(0.560323 -0.00713006 0)
(0.637115 -0.00750748 0)
(0.716917 -0.00786917 0)
(0.799518 -0.00823665 0)
(0.884924 -0.00862616 0)
(0.973265 -0.00904935 0)
(1.06475 -0.009513 0)
(1.15963 -0.0100228 0)
(1.25819 -0.0105822 0)
(1.36074 -0.0111948 0)
(1.46766 -0.0118644 0)
(1.57934 -0.0125956 0)
(1.69624 -0.0133939 0)
(1.81885 -0.0142675 0)
(1.94776 -0.0152234 0)
(2.08351 -0.0162725 0)
(2.22686 -0.0174231 0)
(2.37836 -0.0186866 0)
(2.53902 -0.0200713 0)
(2.70926 -0.0215863 0)
(2.89046 -0.0232405 0)
(3.08278 -0.0250407 0)
(3.28809 -0.0270012 0)
(3.50627 -0.0291196 0)
(3.73943 -0.031433 0)
(3.98785 -0.0339105 0)
(4.25272 -0.0366532 0)
(4.53662 -0.0395557 0)
(4.83764 -0.0428863 0)
(5.16309 -0.0463527 0)
(5.50716 -0.0506773 0)
(5.8832 -0.0548992 0)
(6.27535 -0.0619429 0)
(6.74651 -0.0647815 0)
(7.12274 -0.0869564 0)
(7.9384 -0.0675984 0)
(7.98018 -0.198617 0)
(-0.000395651 -0.00082309 0)
(0.00469636 -0.00247672 0)
(0.0218186 -0.00403562 0)
(0.0510893 -0.0049276 0)
(0.0873157 -0.00534239 0)
(0.126987 -0.00571398 0)
(0.169486 -0.00628115 0)
(0.216042 -0.00711629 0)
(0.268629 -0.00817858 0)
(0.328913 -0.00935686 0)
(0.397657 -0.0105331 0)
(0.474674 -0.0116246 0)
(0.559113 -0.0125936 0)
(0.649859 -0.0134441 0)
(0.745874 -0.0142087 0)
(0.846412 -0.0149326 0)
(0.951064 -0.0156586 0)
(1.0597 -0.0164178 0)
(1.17237 -0.0172321 0)
(1.2892 -0.0181141 0)
(1.41041 -0.0190749 0)
(1.53625 -0.020123 0)
(1.66703 -0.0212684 0)
(1.80317 -0.0225212 0)
(1.94513 -0.0238937 0)
(2.09353 -0.0253979 0)
(2.249 -0.0270508 0)
(2.41231 -0.028866 0)
(2.58421 -0.0308654 0)
(2.7657 -0.0330631 0)
(2.95752 -0.0354835 0)
(3.16097 -0.0381392 0)
(3.37668 -0.0410553 0)
(3.6064 -0.0442435 0)
(3.85048 -0.0477278 0)
(4.11127 -0.0515301 0)
(4.38888 -0.0556546 0)
(4.68593 -0.0601737 0)
(5.0031 -0.0650207 0)
(5.34194 -0.070405 0)
(5.70579 -0.0761039 0)
(6.09282 -0.0826114 0)
(6.51146 -0.0894249 0)
(6.95554 -0.0977565 0)
(7.44153 -0.105786 0)
(7.94622 -0.119552 0)
(8.55589 -0.124262 0)
(9.04885 -0.164092 0)
(10.0267 -0.146342 0)
(10.2987 -0.287922 0)
(-8.96903e-05 -0.0009249 0)
(0.00295708 -0.00305958 0)
(0.0147147 -0.0053858 0)
(0.0384218 -0.0070156 0)
(0.0721387 -0.00792031 0)
(0.11255 -0.00859673 0)
(0.15758 -0.00944841 0)
(0.207076 -0.0106771 0)
(0.262474 -0.0122902 0)
(0.325725 -0.0141507 0)
(0.398296 -0.0160745 0)
(0.480702 -0.0179101 0)
(0.572552 -0.0195715 0)
(0.6729 -0.0210443 0)
(0.780643 -0.0223678 0)
(0.894844 -0.0236088 0)
(1.01486 -0.0248347 0)
(1.14037 -0.026096 0)
(1.27124 -0.0274272 0)
(1.40748 -0.0288482 0)
(1.54917 -0.0303767 0)
(1.69642 -0.032028 0)
(1.84945 -0.0338213 0)
(2.00858 -0.0357776 0)
(2.17426 -0.0379221 0)
(2.34713 -0.0402779 0)
(2.52791 -0.0428751 0)
(2.71753 -0.0457369 0)
(2.91688 -0.0488998 0)
(3.12716 -0.0523852 0)
(3.34929 -0.0562331 0)
(3.58481 -0.060462 0)
(3.83453 -0.0651175 0)
(4.10047 -0.0702164 0)
(4.38322 -0.0758056 0)
(4.68541 -0.0819198 0)
(5.00748 -0.088573 0)
(5.35237 -0.0958839 0)
(5.72118 -0.103749 0)
(6.11585 -0.1125 0)
(6.54017 -0.121799 0)
(6.99293 -0.132376 0)
(7.48291 -0.143496 0)
(8.00409 -0.157024 0)
(8.57642 -0.169763 0)
(9.16822 -0.192144 0)
(9.88505 -0.19968 0)
(10.485 -0.257403 0)
(11.5461 -0.249319 0)
(12.0658 -0.397025 0)
(0.000188946 -0.00101585 0)
(0.00264243 -0.00345824 0)
(0.0103886 -0.00637237 0)
(0.0273107 -0.00875813 0)
(0.054594 -0.0103444 0)
(0.0908629 -0.0115312 0)
(0.133931 -0.012779 0)
(0.182384 -0.014417 0)
(0.236457 -0.0165581 0)
(0.297676 -0.0191034 0)
(0.367875 -0.0218386 0)
(0.448359 -0.0245461 0)
(0.539556 -0.0270745 0)
(0.641118 -0.0293667 0)
(0.752243 -0.0314486 0)
(0.872034 -0.0333965 0)
(0.999721 -0.0352981 0)
(1.13479 -0.0372243 0)
(1.27692 -0.0392246 0)
(1.42597 -0.0413272 0)
(1.58185 -0.0435552 0)
(1.7445 -0.04593 0)
(1.91393 -0.0484809 0)
(2.09025 -0.051243 0)
(2.27374 -0.05426 0)
(2.46491 -0.0575727 0)
(2.66445 -0.0612317 0)
(2.87331 -0.0652753 0)
(3.0925 -0.0697577 0)
(3.32335 -0.0747102 0)
(3.56697 -0.0801915 0)
(3.82504 -0.0862275 0)
(4.09859 -0.0928864 0)
(4.38979 -0.100194 0)
(4.69949 -0.108221 0)
(5.03044 -0.117024 0)
(5.38343 -0.126627 0)
(5.76155 -0.137204 0)
(6.16631 -0.148623 0)
(6.59997 -0.161336 0)
(7.06652 -0.174916 0)
(7.56558 -0.190328 0)
(8.10603 -0.206551 0)
(8.6819 -0.22637 0)
(9.31628 -0.244627 0)
(9.97249 -0.276945 0)
(10.76 -0.289445 0)
(11.4594 -0.362735 0)
(12.5405 -0.373349 0)
(13.2844 -0.519825 0)
(0.0002765 -0.00112186 0)
(0.00292883 -0.00376904 0)
(0.00884156 -0.00706539 0)
(0.0207267 -0.0100741 0)
(0.0411629 -0.0123698 0)
(0.0708796 -0.014203 0)
(0.108663 -0.015977 0)
(0.152677 -0.0180709 0)
(0.202045 -0.0207056 0)
(0.257421 -0.0238733 0)
(0.320488 -0.0273881 0)
(0.393069 -0.0310015 0)
(0.476458 -0.0345019 0)
(0.571189 -0.0377748 0)
(0.677136 -0.0408094 0)
(0.793782 -0.0436694 0)
(0.920475 -0.046449 0)
(1.05664 -0.0492336 0)
(1.20186 -0.0520879 0)
(1.35586 -0.0550486 0)
(1.51844 -0.0581427 0)
(1.68944 -0.0613931 0)
(1.86863 -0.0648349 0)
(2.05586 -0.0685155 0)
(2.2511 -0.0724991 0)
(2.45457 -0.0768516 0)
(2.66671 -0.0816526 0)
(2.88837 -0.0869641 0)
(3.12051 -0.0928658 0)
(3.36453 -0.099405 0)
(3.62166 -0.106661 0)
(3.8937 -0.114672 0)
(4.18187 -0.123527 0)
(4.48844 -0.133264 0)
(4.8145 -0.143979 0)
(5.16282 -0.155753 0)
(5.53453 -0.168626 0)
(5.93272 -0.182829 0)
(6.35922 -0.198216 0)
(6.81654 -0.215351 0)
(7.30873 -0.233736 0)
(7.83613 -0.254601 0)
(8.40749 -0.276549 0)
(9.0175 -0.30351 0)
(9.68928 -0.328157 0)
(10.3901 -0.370849 0)
(11.2118 -0.391439 0)
(11.9946 -0.476936 0)
(13.0601 -0.51238 0)
(13.9632 -0.660671 0)
(0.000237995 -0.0012402 0)
(0.00319316 -0.00406714 0)
(0.00879716 -0.00761041 0)
(0.0181004 -0.0110685 0)
(0.0336149 -0.0139798 0)
(0.0572069 -0.01647 0)
(0.0887941 -0.0188299 0)
(0.126774 -0.0214073 0)
(0.169628 -0.0244911 0)
(0.217111 -0.0281812 0)
(0.270382 -0.0323688 0)
(0.331362 -0.0368227 0)
(0.40196 -0.0412993 0)
(0.483588 -0.0456313 0)
(0.576994 -0.0497577 0)
(0.682349 -0.0537076 0)
(0.799417 -0.0575608 0)
(0.927804 -0.0614041 0)
(1.06713 -0.0653127 0)
(1.21714 -0.0693322 0)
(1.37765 -0.0734926 0)
(1.54849 -0.0778128 0)
(1.72938 -0.082324 0)
(1.91996 -0.0870759 0)
(2.11988 -0.0921476 0)
(2.32895 -0.0976303 0)
(2.54721 -0.10364 0)
(2.77515 -0.110273 0)
(3.01353 -0.117647 0)
(3.26363 -0.125835 0)
(3.5267 -0.134945 0)
(3.8046 -0.14503 0)
(4.09872 -0.156203 0)
(4.41136 -0.168517 0)
(4.74384 -0.18209 0)
(5.09893 -0.197031 0)
(5.47798 -0.213397 0)
(5.88406 -0.231475 0)
(6.3192 -0.25112 0)
(6.78607 -0.273 0)
(7.28862 -0.296562 0)
(7.8279 -0.323312 0)
(8.41185 -0.351468 0)
(9.03742 -0.386055 0)
(9.72307 -0.418054 0)
(10.4489 -0.470843 0)
(11.2755 -0.502463 0)
(12.1117 -0.597826 0)
(13.1483 -0.659952 0)
(14.1345 -0.813813 0)
(0.000177656 -0.0013658 0)
(0.00326969 -0.00438649 0)
(0.0090875 -0.00812592 0)
(0.0176567 -0.0119018 0)
(0.0306054 -0.0152989 0)
(0.0500388 -0.0183738 0)
(0.0765597 -0.0212979 0)
(0.108942 -0.0243365 0)
(0.145418 -0.0277986 0)
(0.185044 -0.0318809 0)
(0.228308 -0.0365785 0)
(0.276856 -0.0417197 0)
(0.332815 -0.0470675 0)
(0.398199 -0.0524232 0)
(0.474554 -0.0576785 0)
(0.562842 -0.0628161 0)
(0.663464 -0.0678814 0)
(0.776442 -0.0729454 0)
(0.901631 -0.078084 0)
(1.03892 -0.0833507 0)
(1.1883 -0.0887802 0)
(1.34977 -0.0943851 0)
(1.52321 -0.100183 0)
(1.70831 -0.106208 0)
(1.90453 -0.11254 0)
(2.11133 -0.119284 0)
(2.32828 -0.126588 0)
(2.55537 -0.134594 0)
(2.79291 -0.143466 0)
(3.04187 -0.153322 0)
(3.30336 -0.164306 0)
(3.57915 -0.1765 0)
(3.87071 -0.19004 0)
(4.18035 -0.205002 0)
(4.50958 -0.221522 0)
(4.86111 -0.23974 0)
(5.23654 -0.259728 0)
(5.63879 -0.281828 0)
(6.07005 -0.305903 0)
(6.53305 -0.332716 0)
(7.03148 -0.361687 0)
(7.56721 -0.394553 0)
(8.14651 -0.429276 0)
(8.76999 -0.471636 0)
(9.44862 -0.511821 0)
(10.1777 -0.574217 0)
(10.988 -0.618715 0)
(11.8407 -0.723097 0)
(12.8389 -0.810569 0)
(13.8476 -0.974427 0)
(0.000142542 -0.00149256 0)
(0.00323054 -0.00472843 0)
(0.00926346 -0.00865872 0)
(0.0178661 -0.0126974 0)
(0.0299326 -0.0164826 0)
(0.0472663 -0.0200512 0)
(0.0706198 -0.0234754 0)
(0.0990393 -0.0269167 0)
(0.130658 -0.0306672 0)
(0.16405 -0.034999 0)
(0.199078 -0.0400168 0)
(0.236896 -0.0456369 0)
(0.279468 -0.0516628 0)
(0.329008 -0.0578946 0)
(0.387551 -0.0641938 0)
(0.456706 -0.0704986 0)
(0.537524 -0.0768104 0)
(0.63055 -0.0831685 0)
(0.736002 -0.0896375 0)
(0.85403 -0.0962756 0)
(0.98487 -0.103126 0)
(1.12885 -0.110199 0)
(1.28621 -0.117493 0)
(1.45693 -0.125016 0)
(1.64061 -0.13282 0)
(1.8366 -0.141003 0)
(2.04409 -0.149732 0)
(2.26255 -0.159185 0)
(2.49175 -0.169583 0)
(2.73214 -0.1811 0)
(2.98447 -0.193934 0)
(3.25025 -0.20821 0)
(3.53094 -0.224097 0)
(3.82873 -0.241699 0)
(4.14528 -0.261172 0)
(4.4832 -0.282688 0)
(4.84428 -0.306333 0)
(5.23129 -0.332497 0)
(5.6465 -0.361064 0)
(6.09264 -0.392864 0)
(6.573 -0.427341 0)
(7.09032 -0.466368 0)
(7.6488 -0.507854 0)
(8.25263 -0.557909 0)
(8.90609 -0.606766 0)
(9.61526 -0.678332 0)
(10.3919 -0.736426 0)
(11.2263 -0.849621 0)
(12.1713 -0.960022 0)
(13.1563 -1.13605 0)
(0.000131343 -0.00161922 0)
(0.00316737 -0.00508584 0)
(0.00928905 -0.00922058 0)
(0.0180805 -0.0135098 0)
(0.0300378 -0.0176389 0)
(0.0466098 -0.0216385 0)
(0.0684654 -0.0255002 0)
(0.0946633 -0.0292807 0)
(0.123282 -0.0332344 0)
(0.152631 -0.037687 0)
(0.182066 -0.0428476 0)
(0.212214 -0.0487306 0)
(0.244643 -0.055204 0)
(0.281411 -0.0620926 0)
(0.32466 -0.0692511 0)
(0.376335 -0.0765877 0)
(0.437943 -0.0840612 0)
(0.510487 -0.0916711 0)
(0.594546 -0.0994605 0)
(0.690535 -0.107488 0)
(0.79894 -0.115809 0)
(0.920417 -0.124442 0)
(1.05565 -0.133373 0)
(1.20512 -0.142574 0)
(1.36883 -0.152054 0)
(1.54631 -0.161871 0)
(1.73668 -0.172185 0)
(1.93905 -0.18319 0)
(2.15265 -0.195159 0)
(2.37735 -0.208325 0)
(2.6134 -0.222956 0)
(2.86189 -0.239234 0)
(3.12406 -0.25738 0)
(3.40189 -0.277535 0)
(3.69709 -0.299879 0)
(4.01212 -0.324617 0)
(4.34889 -0.351852 0)
(4.71001 -0.382012 0)
(5.09776 -0.415015 0)
(5.51486 -0.451725 0)
(5.96409 -0.491661 0)
(6.44886 -0.536733 0)
(6.97171 -0.584969 0)
(7.53885 -0.642498 0)
(8.1509 -0.700109 0)
(8.8183 -0.780406 0)
(9.54413 -0.852018 0)
(10.3312 -0.973803 0)
(11.2044 -1.10424 0)
(12.1283 -1.29282 0)
(0.000130003 -0.00174687 0)
(0.00311901 -0.00545435 0)
(0.00924712 -0.00980742 0)
(0.0181675 -0.0143564 0)
(0.030228 -0.0188203 0)
(0.0466527 -0.0232239 0)
(0.0679705 -0.0274866 0)
(0.0931809 -0.0315604 0)
(0.120314 -0.035653 0)
(0.147492 -0.0401321 0)
(0.173767 -0.0452991 0)
(0.199337 -0.0512664 0)
(0.225331 -0.0579748 0)
(0.253462 -0.0652904 0)
(0.285678 -0.0730819 0)
(0.323941 -0.081245 0)
(0.369941 -0.0897063 0)
(0.424937 -0.0984258 0)
(0.489745 -0.107418 0)
(0.564951 -0.116739 0)
(0.651195 -0.12646 0)
(0.749358 -0.136621 0)
(0.860497 -0.14721 0)
(0.985597 -0.158169 0)
(1.12521 -0.169451 0)
(1.2793 -0.181057 0)
(1.44717 -0.1931 0)
(1.62783 -0.205768 0)
(1.82019 -0.219356 0)
(2.02357 -0.234159 0)
(2.23771 -0.250513 0)
(2.46316 -0.268677 0)
(2.7008 -0.28893 0)
(2.95228 -0.311473 0)
(3.21926 -0.336514 0)
(3.50393 -0.364298 0)
(3.80828 -0.394947 0)
(4.13472 -0.428918 0)
(4.48548 -0.466172 0)
(4.86318 -0.507579 0)
(5.27022 -0.552768 0)
(5.71015 -0.603623 0)
(6.18469 -0.658369 0)
(6.70023 -0.723002 0)
(7.25653 -0.789105 0)
(7.86373 -0.87756 0)
(8.52234 -0.962049 0)
(9.23872 -1.09197 0)
(10.0221 -1.23928 0)
(10.8545 -1.43941 0)
(0.00012979 -0.00187647 0)
(0.00308709 -0.00583325 0)
(0.00919548 -0.0104147 0)
(0.0181767 -0.0152369 0)
(0.0303386 -0.0200437 0)
(0.0467985 -0.0248481 0)
(0.0679916 -0.0294982 0)
(0.0928538 -0.0338426 0)
(0.119366 -0.0380384 0)
(0.145576 -0.0424869 0)
(0.170367 -0.0475748 0)
(0.193665 -0.0535057 0)
(0.216261 -0.0602914 0)
(0.239472 -0.0678461 0)
(0.264975 -0.0760627 0)
(0.294526 -0.0848401 0)
(0.329759 -0.0940846 0)
(0.371977 -0.103721 0)
(0.422063 -0.113735 0)
(0.480639 -0.124173 0)
(0.548353 -0.135129 0)
(0.626147 -0.146675 0)
(0.715274 -0.158819 0)
(0.817088 -0.171488 0)
(0.932636 -0.184587 0)
(1.06238 -0.19804 0)
(1.20599 -0.211893 0)
(1.36261 -0.22629 0)
(1.53103 -0.241527 0)
(1.7102 -0.257936 0)
(1.89942 -0.275919 0)
(2.09869 -0.295815 0)
(2.3085 -0.317975 0)
(2.53007 -0.34267 0)
(2.76484 -0.370149 0)
(3.01474 -0.400704 0)
(3.28168 -0.434481 0)
(3.56785 -0.471956 0)
(3.87537 -0.513145 0)
(4.20666 -0.558902 0)
(4.56387 -0.608974 0)
(4.95021 -0.665196 0)
(5.36731 -0.726004 0)
(5.82042 -0.79719 0)
(6.30998 -0.871239 0)
(6.84369 -0.967082 0)
(7.42188 -1.06336 0)
(8.05049 -1.20069 0)
(8.73001 -1.36151 0)
(9.449 -1.57124 0)
(0.000128423 -0.00200841 0)
(0.00306377 -0.00622332 0)
(0.00915128 -0.0110408 0)
(0.0181621 -0.0161485 0)
(0.0303905 -0.0213114 0)
(0.0469036 -0.0265242 0)
(0.0680905 -0.0315627 0)
(0.0928475 -0.036171 0)
(0.119128 -0.040454 0)
(0.14496 -0.0448443 0)
(0.169164 -0.0498092 0)
(0.191539 -0.0556372 0)
(0.212652 -0.0624059 0)
(0.233572 -0.0700743 0)
(0.25565 -0.078565 0)
(0.280413 -0.0877868 0)
(0.30933 -0.0976345 0)
(0.343604 -0.108003 0)
(0.384053 -0.118848 0)
(0.431214 -0.130206 0)
(0.485631 -0.142191 0)
(0.548156 -0.154918 0)
(0.62005 -0.168432 0)
(0.702831 -0.182666 0)
(0.797864 -0.197484 0)
(0.906009 -0.212739 0)
(1.02733 -0.22839 0)
(1.1612 -0.244514 0)
(1.30644 -0.261376 0)
(1.46184 -0.279325 0)
(1.62635 -0.298812 0)
(1.79956 -0.320257 0)
(1.98152 -0.344082 0)
(2.17303 -0.370639 0)
(2.37524 -0.400232 0)
(2.58975 -0.433199 0)
(2.8183 -0.469723 0)
(3.0628 -0.510293 0)
(3.32523 -0.554979 0)
(3.60767 -0.604614 0)
(3.91214 -0.65905 0)
(4.24121 -0.720076 0)
(4.59671 -0.786317 0)
(4.98228 -0.863326 0)
(5.39935 -0.944534 0)
(5.85281 -1.04681 0)
(6.34325 -1.1534 0)
(6.87461 -1.29717 0)
(7.44276 -1.46809 0)
(8.0368 -1.68476 0)
(0.000126237 -0.00214283 0)
(0.00304398 -0.00662512 0)
(0.0091139 -0.0116862 0)
(0.0181456 -0.0170903 0)
(0.0304216 -0.0226227 0)
(0.0469742 -0.0282549 0)
(0.0681689 -0.0336884 0)
(0.0928828 -0.0385619 0)
(0.11906 -0.0429272 0)
(0.144735 -0.047248 0)
(0.16873 -0.0520717 0)
(0.1908 -0.0577679 0)
(0.211411 -0.0644741 0)
(0.231467 -0.0721903 0)
(0.252131 -0.0808662 0)
(0.27472 -0.0904237 0)
(0.300528 -0.10075 0)
(0.330617 -0.111712 0)
(0.365682 -0.123235 0)
(0.406125 -0.135342 0)
(0.452331 -0.148167 0)
(0.504986 -0.161872 0)
(0.565233 -0.176551 0)
(0.634573 -0.192159 0)
(0.714494 -0.208538 0)
(0.806076 -0.225473 0)
(0.909661 -0.24283 0)
(1.02483 -0.260608 0)
(1.15052 -0.279015 0)
(1.28545 -0.298397 0)
(1.42839 -0.319236 0)
(1.57858 -0.342021 0)
(1.73576 -0.367247 0)
(1.9003 -0.39535 0)
(2.07305 -0.426691 0)
(2.25524 -0.461665 0)
(2.4484 -0.500492 0)
(2.6541 -0.543674 0)
(2.87414 -0.591336 0)
(3.1102 -0.644285 0)
(3.36417 -0.702459 0)
(3.63789 -0.767606 0)
(3.93337 -0.838525 0)
(4.2527 -0.920479 0)
(4.59797 -1.00787 0)
(4.97169 -1.11548 0)
(5.37445 -1.23066 0)
(5.80772 -1.3796 0)
(6.26522 -1.55735 0)
(6.73383 -1.77791 0)
(0.000123825 -0.00227986 0)
(0.00302609 -0.00703864 0)
(0.0090803 -0.0123521 0)
(0.0181309 -0.0180626 0)
(0.0304491 -0.0239779 0)
(0.0470327 -0.0300414 0)
(0.0682295 -0.035878 0)
(0.0929061 -0.0410205 0)
(0.119007 -0.0454671 0)
(0.144586 -0.0497145 0)
(0.168489 -0.0543908 0)
(0.190475 -0.0599453 0)
(0.210975 -0.0665728 0)
(0.230813 -0.0743098 0)
(0.251048 -0.0831309 0)
(0.272871 -0.0929697 0)
(0.297445 -0.103706 0)
(0.325715 -0.11518 0)
(0.358256 -0.127283 0)
(0.395345 -0.140022 0)
(0.437217 -0.15355 0)
(0.484394 -0.168075 0)
(0.537857 -0.183747 0)
(0.599004 -0.200555 0)
(0.66928 -0.218329 0)
(0.749843 -0.236796 0)
(0.841139 -0.255733 0)
(0.942878 -0.275048 0)
(1.05409 -0.294884 0)
(1.17349 -0.315564 0)
(1.29974 -0.337586 0)
(1.43185 -0.361498 0)
(1.56931 -0.387863 0)
(1.71216 -0.417196 0)
(1.86095 -0.449922 0)
(2.01659 -0.486489 0)
(2.18032 -0.527163 0)
(2.35342 -0.572456 0)
(2.53741 -0.622539 0)
(2.7336 -0.6782 0)
(2.9437 -0.73944 0)
(3.16883 -0.807968 0)
(3.41104 -0.882742 0)
(3.67121 -0.968692 0)
(3.95154 -1.06119 0)
(4.25275 -1.17297 0)
(4.57518 -1.29487 0)
(4.91781 -1.44754 0)
(5.27361 -1.62915 0)
(5.62661 -1.8504 0)
(0.000121483 -0.00241962 0)
(0.00300988 -0.00746405 0)
(0.00904888 -0.0130395 0)
(0.0181168 -0.0190663 0)
(0.0304765 -0.0253781 0)
(0.0470891 -0.0318849 0)
(0.0682838 -0.0381328 0)
(0.0929198 -0.0435485 0)
(0.118945 -0.0480768 0)
(0.144437 -0.0522488 0)
(0.168273 -0.0567756 0)
(0.190231 -0.0621867 0)
(0.210734 -0.0687323 0)
(0.230579 -0.0764838 0)
(0.250774 -0.0854386 0)
(0.272449 -0.0955407 0)
(0.296695 -0.106661 0)
(0.324373 -0.118611 0)
(0.355977 -0.131246 0)
(0.391695 -0.144556 0)
(0.431659 -0.158707 0)
(0.47627 -0.173955 0)
(0.526382 -0.190508 0)
(0.583257 -0.208392 0)
(0.648259 -0.227433 0)
(0.722473 -0.247305 0)
(0.806372 -0.2677 0)
(0.899686 -0.288433 0)
(1.00148 -0.309575 0)
(1.11045 -0.331416 0)
(1.22522 -0.354462 0)
(1.34466 -0.379306 0)
(1.46807 -0.406574 0)
(1.59526 -0.436857 0)
(1.72652 -0.470642 0)
(1.86249 -0.508429 0)
(2.00415 -0.550528 0)
(2.15247 -0.597463 0)
(2.30872 -0.649444 0)
(2.47384 -0.707238 0)
(2.6493 -0.770898 0)
(2.83568 -0.842079 0)
(3.03483 -0.919903 0)
(3.24675 -1.00892 0)
(3.47342 -1.10542 0)
(3.71426 -1.22024 0)
(3.96916 -1.34702 0)
(4.23489 -1.50194 0)
(4.50441 -1.68478 0)
(4.7593 -1.90378 0)
(0.000119297 -0.00256221 0)
(0.0029954 -0.00790166 0)
(0.00901919 -0.0137492 0)
(0.0181024 -0.0201023 0)
(0.0305034 -0.0268243 0)
(0.047145 -0.0337872 0)
(0.0683361 -0.0404547 0)
(0.0929293 -0.0461477 0)
(0.118877 -0.050758 0)
(0.144281 -0.054853 0)
(0.16805 -0.0592291 0)
(0.189984 -0.064497 0)
(0.210509 -0.0709622 0)
(0.230413 -0.0787304 0)
(0.250686 -0.0878211 0)
(0.272432 -0.0981875 0)
(0.296705 -0.10969 0)
(0.32432 -0.122108 0)
(0.355719 -0.135262 0)
(0.391037 -0.14912 0)
(0.430355 -0.163862 0)
(0.474011 -0.179791 0)
(0.522782 -0.19717 0)
(0.577832 -0.216065 0)
(0.640426 -0.236298 0)
(0.711561 -0.257494 0)
(0.79164 -0.279259 0)
(0.88036 -0.301318 0)
(0.976774 -0.323664 0)
(1.07955 -0.346553 0)
(1.18729 -0.37049 0)
(1.29877 -0.396109 0)
(1.41319 -0.424093 0)
(1.5302 -0.455102 0)
(1.6499 -0.489686 0)
(1.77272 -0.52839 0)
(1.89941 -0.571571 0)
(2.03071 -0.619756 0)
(2.16762 -0.67319 0)
(2.31078 -0.732621 0)
(2.46141 -0.798138 0)
(2.61967 -0.871331 0)
(2.78709 -0.951488 0)
(2.96311 -1.04274 0)
(3.14924 -1.14223 0)
(3.344 -1.25906 0)
(3.54677 -1.38906 0)
(3.75255 -1.5448 0)
(3.95457 -1.7267 0)
(4.13288 -1.94095 0)
(0.000117287 -0.00270776 0)
(0.00298266 -0.00835182 0)
(0.00899114 -0.0144821 0)
(0.018087 -0.0211714 0)
(0.0305286 -0.0283177 0)
(0.0471994 -0.0357502 0)
(0.0683862 -0.0428457 0)
(0.0929352 -0.0488198 0)
(0.118804 -0.0535124 0)
(0.144117 -0.0575288 0)
(0.167817 -0.0617528 0)
(0.189722 -0.066878 0)
(0.210264 -0.0732655 0)
(0.230229 -0.0810554 0)
(0.250601 -0.0902894 0)
(0.272475 -0.100929 0)
(0.296887 -0.112823 0)
(0.324623 -0.125718 0)
(0.356094 -0.139394 0)
(0.391406 -0.1538 0)
(0.430625 -0.169131 0)
(0.474071 -0.185733 0)
(0.522491 -0.203928 0)
(0.576997 -0.223818 0)
(0.638775 -0.245217 0)
(0.708734 -0.2677 0)
(0.787193 -0.290789 0)
(0.873782 -0.314117 0)
(0.967512 -0.337601 0)
(1.06703 -0.361458 0)
(1.1709 -0.386192 0)
(1.27787 -0.412476 0)
(1.38709 -0.441044 0)
(1.4981 -0.472624 0)
(1.61089 -0.507821 0)
(1.72576 -0.547226 0)
(1.84325 -0.591236 0)
(1.96393 -0.64038 0)
(2.08861 -0.694934 0)
(2.21769 -0.755617 0)
(2.35212 -0.822554 0)
(2.49179 -0.897249 0)
(2.63789 -0.979156 0)
(2.78949 -1.07197 0)
(2.94757 -1.1736 0)
(3.11004 -1.29159 0)
(3.27581 -1.4234 0)
(3.43859 -1.57875 0)
(3.59193 -1.75799 0)
(3.71531 -1.96559 0)
(0.000115455 -0.00285644 0)
(0.00297162 -0.00881482 0)
(0.00896468 -0.0152389 0)
(0.0180704 -0.0222746 0)
(0.0305514 -0.0298596 0)
(0.0472513 -0.0377759 0)
(0.0684325 -0.0453078 0)
(0.0929361 -0.0515667 0)
(0.118725 -0.0563418 0)
(0.143947 -0.0602777 0)
(0.167574 -0.0643483 0)
(0.189443 -0.0693311 0)
(0.209996 -0.0756437 0)
(0.230012 -0.083461 0)
(0.250479 -0.0928478 0)
(0.272487 -0.103774 0)
(0.297062 -0.116072 0)
(0.324969 -0.129457 0)
(0.356594 -0.143667 0)
(0.39203 -0.158633 0)
(0.431343 -0.174564 0)
(0.474862 -0.191855 0)
(0.523339 -0.21088 0)
(0.577865 -0.231777 0)
(0.639574 -0.254352 0)
(0.709302 -0.278122 0)
(0.787288 -0.302523 0)
(0.873087 -0.327095 0)
(0.965666 -0.35168 0)
(1.06364 -0.376459 0)
(1.16557 -0.401934 0)
(1.27019 -0.428814 0)
(1.37662 -0.457887 0)
(1.48438 -0.48994 0)
(1.59338 -0.525638 0)
(1.70382 -0.565607 0)
(1.81614 -0.610284 0)
(1.93079 -0.660198 0)
(2.04839 -0.715647 0)
(2.16922 -0.777319 0)
(2.29399 -0.845368 0)
(2.42243 -0.921201 0)
(2.55537 -1.00443 0)
(2.69172 -1.09831 0)
(2.83195 -1.20142 0)
(2.97354 -1.31991 0)
(3.11505 -1.45243 0)
(3.24931 -1.60642 0)
(3.37023 -1.78178 0)
(3.45753 -1.98141 0)
(0.000113806 -0.00300841 0)
(0.00296218 -0.00929095 0)
(0.00893973 -0.0160207 0)
(0.0180524 -0.023413 0)
(0.0305711 -0.0314509 0)
(0.0472995 -0.0398661 0)
(0.0684735 -0.0478434 0)
(0.0929301 -0.0543905 0)
(0.118638 -0.0592479 0)
(0.143767 -0.0631015 0)
(0.167318 -0.0670171 0)
(0.189148 -0.0718577 0)
(0.209702 -0.0780981 0)
(0.229762 -0.085949 0)
(0.250315 -0.0954985 0)
(0.272451 -0.106724 0)
(0.297189 -0.119443 0)
(0.325272 -0.133333 0)
(0.357067 -0.148093 0)
(0.392655 -0.163633 0)
(0.432112 -0.180183 0)
(0.47579 -0.198185 0)
(0.524461 -0.218069 0)
(0.579212 -0.240004 0)
(0.641147 -0.263781 0)
(0.711039 -0.288859 0)
(0.789057 -0.314581 0)
(0.87469 -0.340395 0)
(0.966858 -0.366069 0)
(1.06416 -0.391748 0)
(1.16514 -0.417935 0)
(1.26857 -0.445375 0)
(1.37354 -0.47491 0)
(1.47959 -0.507385 0)
(1.58659 -0.543523 0)
(1.6947 -0.583984 0)
(1.80429 -0.629239 0)
(1.91572 -0.679815 0)
(2.02952 -0.736026 0)
(2.14586 -0.798527 0)
(2.26528 -0.867498 0)
(2.38743 -0.944233 0)
(2.51282 -1.0285 0)
(2.64031 -1.12312 0)
(2.76992 -1.22721 0)
(2.89891 -1.34577 0)
(3.02553 -1.47819 0)
(3.14216 -1.63008 0)
(3.24305 -1.80077 0)
(3.30873 -1.99165 0)
(0.000112337 -0.00316386 0)
(0.00295423 -0.0097805 0)
(0.00891622 -0.0168282 0)
(0.0180328 -0.0245875 0)
(0.0305871 -0.0330928 0)
(0.047343 -0.0420226 0)
(0.0685078 -0.0504545 0)
(0.0929152 -0.057293 0)
(0.118541 -0.0622325 0)
(0.143575 -0.066002 0)
(0.167047 -0.0697609 0)
(0.188833 -0.0744594 0)
(0.209382 -0.0806302 0)
(0.229477 -0.0885211 0)
(0.250108 -0.0982439 0)
(0.272365 -0.109783 0)
(0.297258 -0.12294 0)
(0.325512 -0.137351 0)
(0.357471 -0.152676 0)
(0.39321 -0.168809 0)
(0.432815 -0.185998 0)
(0.476667 -0.204737 0)
(0.525563 -0.225514 0)
(0.580598 -0.248525 0)
(0.642851 -0.273541 0)
(0.713043 -0.299958 0)
(0.791277 -0.327023 0)
(0.876983 -0.35409 0)
(0.969039 -0.380853 0)
(1.06603 -0.407423 0)
(1.16651 -0.434308 0)
(1.26925 -0.462292 0)
(1.3734 -0.49227 0)
(1.47849 -0.525147 0)
(1.58438 -0.5617 0)
(1.69123 -0.60262 0)
(1.79936 -0.648413 0)
(1.9091 -0.699599 0)
(2.02089 -0.756506 0)
(2.13486 -0.819752 0)
(2.25141 -0.889537 0)
(2.37016 -0.96704 0)
(2.49139 -1.05216 0)
(2.61392 -1.14732 0)
(2.73746 -1.25207 0)
(2.85914 -1.37038 0)
(2.97697 -1.50214 0)
(3.08326 -1.65146 0)
(3.17253 -1.817 0)
(3.2266 -1.99879 0)
(0.000111043 -0.003323 0)
(0.00294762 -0.0102838 0)
(0.00889402 -0.0176623 0)
(0.0180114 -0.0257991 0)
(0.0305987 -0.0347863 0)
(0.0473805 -0.0442471 0)
(0.0685338 -0.0531433 0)
(0.0928894 -0.0602763 0)
(0.118431 -0.0652976 0)
(0.143369 -0.0689807 0)
(0.166759 -0.0725812 0)
(0.188496 -0.0771375 0)
(0.209033 -0.0832416 0)
(0.229156 -0.0911789 0)
(0.249855 -0.101086 0)
(0.272225 -0.112955 0)
(0.297264 -0.126566 0)
(0.32568 -0.141516 0)
(0.357794 -0.157422 0)
(0.393674 -0.174163 0)
(0.433419 -0.192013 0)
(0.47744 -0.211521 0)
(0.52656 -0.233227 0)
(0.581884 -0.257354 0)
(0.644471 -0.283652 0)
(0.714992 -0.311443 0)
(0.79349 -0.339878 0)
(0.879338 -0.368213 0)
(0.971376 -0.39607 0)
(1.06817 -0.42353 0)
(1.1683 -0.451109 0)
(1.27057 -0.479629 0)
(1.37414 -0.510045 0)
(1.47855 -0.543318 0)
(1.58372 -0.580279 0)
(1.68977 -0.621652 0)
(1.79701 -0.66797 0)
(1.90576 -0.719749 0)
(2.01639 -0.777326 0)
(2.12902 -0.841279 0)
(2.24394 -0.911826 0)
(2.36078 -0.990025 0)
(2.47961 -1.07589 0)
(2.5993 -1.17148 0)
(2.71928 -1.27664 0)
(2.83664 -1.39454 0)
(2.94927 -1.52525 0)
(3.04959 -1.67169 0)
(3.13245 -1.83187 0)
(3.18115 -2.00457 0)
(0.000109913 -0.00348602 0)
(0.00294219 -0.010801 0)
(0.00887301 -0.0185239 0)
(0.0179882 -0.0270491 0)
(0.0306052 -0.0365326 0)
(0.0474111 -0.0465412 0)
(0.0685501 -0.055912 0)
(0.092851 -0.0633426 0)
(0.118307 -0.0684449 0)
(0.143147 -0.0720396 0)
(0.166453 -0.0754797 0)
(0.188134 -0.0798936 0)
(0.208653 -0.0859337 0)
(0.228795 -0.0939243 0)
(0.249555 -0.104028 0)
(0.272028 -0.116241 0)
(0.297204 -0.130324 0)
(0.32577 -0.14583 0)
(0.358027 -0.162334 0)
(0.394036 -0.179702 0)
(0.43391 -0.198236 0)
(0.478088 -0.218541 0)
(0.527423 -0.241215 0)
(0.583026 -0.266503 0)
(0.645938 -0.294125 0)
(0.716781 -0.323329 0)
(0.79554 -0.353161 0)
(0.881531 -0.382782 0)
(0.973563 -0.411741 0)
(1.07019 -0.440092 0)
(1.17001 -0.468361 0)
(1.27184 -0.497415 0)
(1.37489 -0.528267 0)
(1.47873 -0.561937 0)
(1.58328 -0.59931 0)
(1.68869 -0.641139 0)
(1.79525 -0.687984 0)
(1.90327 -0.740357 0)
(2.01308 -0.798598 0)
(2.12479 -0.863245 0)
(2.2386 -0.93453 0)
(2.35417 -1.01339 0)
(2.47143 -1.09994 0)
(2.58926 -1.19589 0)
(2.7069 -1.30131 0)
(2.82148 -1.41866 0)
(2.93078 -1.54807 0)
(3.02756 -1.69146 0)
(3.10697 -1.84625 0)
(3.15396 -2.01009 0)
(0.000108933 -0.00365317 0)
(0.00293776 -0.0113326 0)
(0.00885304 -0.0194138 0)
(0.0179628 -0.0283383 0)
(0.030606 -0.0383328 0)
(0.0474337 -0.0489063 0)
(0.0685552 -0.0587627 0)
(0.092798 -0.0664941 0)
(0.118166 -0.0716764 0)
(0.142908 -0.0751802 0)
(0.166125 -0.0784579 0)
(0.187747 -0.0827292 0)
(0.20824 -0.0887081 0)
(0.228393 -0.096759 0)
(0.249206 -0.10707 0)
(0.271772 -0.119644 0)
(0.297073 -0.134217 0)
(0.325777 -0.150297 0)
(0.358164 -0.167416 0)
(0.394288 -0.18543 0)
(0.434277 -0.204671 0)
(0.478599 -0.225805 0)
(0.528134 -0.249487 0)
(0.584002 -0.27598 0)
(0.64722 -0.304971 0)
(0.718366 -0.335626 0)
(0.797363 -0.366885 0)
(0.883479 -0.397808 0)
(0.975484 -0.427877 0)
(1.07193 -0.457119 0)
(1.17142 -0.486077 0)
(1.27281 -0.515663 0)
(1.37534 -0.546952 0)
(1.47861 -0.581022 0)
(1.58256 -0.618813 0)
(1.68735 -0.661106 0)
(1.79327 -0.708487 0)
(1.90061 -0.76146 0)
(2.00969 -0.820369 0)
(2.1206 -0.88571 0)
(2.23349 -0.957723 0)
(2.34802 -1.03723 0)
(2.46401 -1.12441 0)
(2.58037 -1.22068 0)
(2.69621 -1.32625 0)
(2.80872 -1.44297 0)
(2.91563 -1.57093 0)
(3.01013 -1.71116 0)
(3.08774 -1.86064 0)
(3.13505 -2.01603 0)
(0.000108083 -0.00382467 0)
(0.00293411 -0.0118789 0)
(0.00883397 -0.0203328 0)
(0.0179354 -0.029668 0)
(0.0306004 -0.040188 0)
(0.047447 -0.051344 0)
(0.068548 -0.0616976 0)
(0.0927289 -0.0697328 0)
(0.118007 -0.0749939 0)
(0.142648 -0.0784044 0)
(0.165774 -0.0815174 0)
(0.187331 -0.0856457 0)
(0.207792 -0.0915662 0)
(0.227949 -0.0996846 0)
(0.248804 -0.110216 0)
(0.271452 -0.123167 0)
(0.296867 -0.138249 0)
(0.325694 -0.15492 0)
(0.358196 -0.172672 0)
(0.394421 -0.19135 0)