/*--------------------------------*- C++ -*----------------------------------*\
  =========                 |
  \\      /  F ield         | OpenFOAM: The Open Source CFD Toolbox
   \\    /   O peration     | Website:  https://openfoam.org
    \\  /    A nd           | Version:  7
     \\/     M anipulation  |
\*---------------------------------------------------------------------------*/
FoamFile
{
    version     2.0;
    format      ascii;
    class       volScalarField;
    location    "0.03";
    object      nut;
}
// * * * * * * * * * * * * * * * * * * * * * * * * * * * * * * * * * * * * * //

dimensions      [0 2 -1 0 0 0 0];

internalField   nonuniform List<scalar> 
70000
(
9.96291e-12
6.88238e-14
2.55783e-16
8.5644e-17
4.84248e-17
7.96397e-17
2.8191e-17
1.33101e-17
9.11173e-18
6.72532e-18
4.99626e-18
3.78539e-18
2.94207e-18
2.34037e-18
1.8994e-18
1.56887e-18
1.31642e-18
1.12055e-18
9.66449e-19
8.43836e-19
7.45224e-19
6.65296e-19
5.99941e-19
5.46335e-19
5.01892e-19
4.65364e-19
4.34552e-19
4.09702e-19
3.87867e-19
3.71594e-19
3.55315e-19
3.46103e-19
3.32334e-19
3.29563e-19
3.15561e-19
3.18138e-19
3.03512e-19
3.04226e-19
3.01349e-19
2.66652e-19
3.42365e-19
1.56559e-19
6.20513e-19
4.76104e-21
3.0771e-18
1.25364e-18
4.30376e-17
1.08821e-16
5.12355e-15
3.60369e-13
1.04279e-10
5.98648e-12
6.44135e-14
2.14336e-14
2.8854e-16
1.69018e-17
2.51781e-17
2.11367e-17
1.22814e-17
7.31763e-18
4.80826e-18
3.36912e-18
2.45709e-18
1.84769e-18
1.42623e-18
1.1263e-18
9.07483e-19
7.44241e-19
6.20147e-19
5.24173e-19
4.48911e-19
3.89073e-19
3.41058e-19
3.02001e-19
2.70216e-19
2.43744e-19
2.22233e-19
2.0362e-19
1.89123e-19
1.7538e-19
1.66268e-19
1.55051e-19
1.50679e-19
1.40039e-19
1.40066e-19
1.29068e-19
1.31194e-19
1.24051e-19
1.15506e-19
1.38932e-19
7.11979e-20
2.58686e-19
3.05566e-21
1.40348e-18
5.2401e-19
2.24326e-17
5.95111e-17
5.67321e-16
2.55796e-14
1.93352e-14
3.19211e-10
3.39618e-12
1.90615e-13
1.98671e-14
7.60002e-16
5.71199e-17
6.99488e-18
3.98039e-18
1.97995e-18
9.52429e-19
5.10408e-19
3.01322e-19
1.88444e-19
1.22402e-19
8.19473e-20
5.63315e-20
3.96523e-20
2.85167e-20
2.09323e-20
1.56747e-20
1.19899e-20
9.38099e-21
7.53714e-21
6.22787e-21
5.33384e-21
4.71677e-21
4.37341e-21
4.16653e-21
4.21175e-21
4.27017e-21
4.66009e-21
4.86545e-21
5.60383e-21
5.79431e-21
6.83722e-21
6.77886e-21
7.81263e-21
7.39256e-21
7.34131e-21
7.74454e-21
5.09447e-21
1.97983e-20
4.15518e-20
4.94002e-19
2.75842e-18
2.08195e-17
1.2032e-16
7.54766e-16
2.94674e-14
3.84586e-14
6.15418e-09
1.9266e-11
7.82541e-13
6.08616e-14
5.4322e-15
9.11887e-16
1.06158e-16
2.7519e-17
1.10977e-17
4.67535e-18
2.03513e-18
9.55181e-19
4.79042e-19
2.49736e-19
1.32412e-19
7.02258e-20
3.6636e-20
1.84106e-20
8.65223e-21
3.62773e-21
1.24406e-21
2.86151e-22
2.34083e-23
3.87846e-24
9.75033e-23
4.77704e-22
1.30983e-21
2.74402e-21
4.88794e-21
7.88845e-21
1.17773e-20
1.6711e-20
2.25541e-20
2.93521e-20
3.6879e-20
4.42717e-20
5.25942e-20
5.63847e-20
6.52163e-20
5.54337e-20
7.42069e-20
3.99727e-20
1.79883e-19
3.1208e-19
3.65012e-18
1.76225e-17
1.22908e-16
5.96856e-16
2.25575e-14
6.75068e-14
2.32288e-09
2.23251e-10
4.44509e-12
3.20416e-13
2.27779e-14
4.32363e-15
6.95928e-16
1.90707e-16
7.55168e-17
3.20647e-17
1.41081e-17
6.62663e-18
3.31183e-18
1.72461e-18
9.1829e-19
4.92507e-19
2.62156e-19
1.36091e-19
6.73191e-20
3.06596e-20
1.21324e-20
3.71335e-21
6.4818e-22
1.60867e-23
6.44558e-23
8.8301e-22
3.39851e-21
8.40066e-21
1.65626e-20
2.85115e-20
4.48253e-20
6.57874e-20
9.20892e-20
1.22366e-19
1.58962e-19
1.93935e-19
2.38547e-19
2.62077e-19
3.11091e-19
2.859e-19
3.49583e-19
2.28786e-19
4.54917e-19
4.76272e-19
3.71257e-18
1.6939e-17
1.02181e-16
4.07969e-16
1.66126e-14
5.94066e-14
3.01212e-09
5.28757e-09
4.34848e-11
1.93644e-12
1.06684e-13
1.76322e-14
3.12585e-15
8.91184e-16
3.52618e-16
1.51298e-16
6.75092e-17
3.19774e-17
1.60452e-17
8.38246e-18
4.48571e-18
2.42632e-18
1.30943e-18
6.94589e-19
3.55294e-19
1.70596e-19
7.36924e-20
2.64935e-20
6.65626e-21
6.55843e-22
1.62619e-24
9.45596e-22
6.19082e-21
1.88557e-20
4.16177e-20
7.67316e-20
1.26693e-19
1.92366e-19
2.77333e-19
3.76541e-19
5.00398e-19
6.21563e-19
7.80725e-19
8.7747e-19
1.06077e-18
1.02151e-18
1.23185e-18
8.97467e-19
1.30716e-18
1.01502e-18
4.12911e-18
1.66032e-17
7.74685e-17
2.52493e-16
1.22793e-14
4.84351e-14
1.07676e-09
4.76393e-09
3.70843e-09
1.84085e-11
6.61775e-13
8.96203e-14
1.45952e-14
3.89028e-15
1.46124e-15
6.12742e-16
2.71338e-16
1.28096e-16
6.415e-17
3.35054e-17
1.79667e-17
9.76823e-18
5.32114e-18
2.86614e-18
1.50185e-18
7.48982e-19
3.44052e-19
1.37691e-19
4.29455e-20
7.79303e-21
1.95074e-22
4.38284e-22
8.15358e-21
3.33363e-20
8.44399e-20
1.68529e-19
2.92886e-19
4.61066e-19
6.82754e-19
9.47393e-19
1.28116e-18
1.61912e-18
2.06158e-18
2.36261e-18
2.88853e-18
2.87321e-18
3.4632e-18
2.69495e-18
3.48897e-18
2.39331e-18
5.3025e-18
1.64005e-17
5.36454e-17
1.35232e-16
9.0032e-15
3.91319e-14
2.42825e-09
3.8688e-09
8.20967e-10
2.4007e-09
8.4722e-12
6.95394e-13
8.67835e-14
1.9363e-14
6.46854e-15
2.51873e-15
1.06283e-15
4.85318e-16
2.37441e-16
1.22061e-16
6.4803e-17
3.50621e-17
1.9105e-17
1.03536e-17
5.49923e-18
2.80923e-18
1.34385e-18
5.76785e-19
2.053e-19
5.06425e-20
4.72732e-21
9.05185e-24
7.77466e-21
4.95752e-20
1.49146e-19
3.25808e-19
5.97865e-19
9.76364e-19
1.48298e-18
2.09977e-18
2.88077e-18
3.69457e-18
4.74799e-18
5.52671e-18
6.79386e-18
6.93053e-18
8.31446e-18
6.82731e-18
8.23295e-18
5.62066e-18
7.61441e-18
1.69115e-17
3.27085e-17
5.96178e-17
6.56212e-15
3.02164e-14
3.36976e-09
4.36958e-09
5.89768e-10
2.98647e-10
5.45751e-10
1.7987e-11
9.14386e-13
1.35734e-13
3.6075e-14
1.2152e-14
4.6336e-15
1.96382e-15
9.08774e-16
4.48093e-16
2.30618e-16
1.21991e-16
6.54662e-17
3.51873e-17
1.86753e-17
9.61918e-18
4.6977e-18
2.09979e-18
8.08339e-19
2.36237e-19
3.69588e-20
3.46575e-22
5.39431e-21
6.76226e-20
2.48848e-19
5.97429e-19
1.15569e-18
1.95171e-18
3.02962e-18
4.36103e-18
6.04696e-18
7.8401e-18
1.01274e-17
1.19216e-17
1.46627e-17
1.52477e-17
1.81165e-17
1.55396e-17
1.77312e-17
1.25487e-17
1.19343e-17
1.88285e-17
1.69098e-17
2.08011e-17
4.80252e-15
2.20539e-14
3.41122e-09
4.60671e-09
6.71133e-10
1.9251e-10
4.6394e-11
6.58938e-11
2.83822e-10
2.60331e-12
3.52441e-13
8.51722e-14
2.64077e-14
9.69194e-15
4.03646e-15
1.83794e-15
8.89523e-16
4.48519e-16
2.31929e-16
1.21234e-16
6.31161e-17
3.21726e-17
1.57112e-17
7.12359e-18
2.84933e-18
9.10462e-19
1.81924e-19
8.02858e-21
2.64784e-21
9.35164e-20
4.25565e-19
1.11424e-18
2.25221e-18
3.90175e-18
6.14712e-18
8.94005e-18
1.24602e-17
1.62462e-17
2.09932e-17
2.48628e-17
3.04546e-17
3.20789e-17
3.76013e-17
3.33249e-17
3.62915e-17
2.66962e-17
2.01192e-17
2.32516e-17
7.01476e-18
5.58725e-18
3.55733e-15
1.54967e-14
3.21207e-09
4.39026e-09
7.72064e-10
2.00991e-10
3.59376e-11
2.12358e-11
1.29005e-11
1.99769e-11
1.25048e-10
1.91974e-12
2.9367e-13
7.51701e-14
2.49775e-14
9.72175e-15
4.1897e-15
1.93217e-15
9.31356e-16
4.60437e-16
2.29406e-16
1.13083e-16
5.395e-17
2.41743e-17
9.71082e-18
3.20904e-18
7.15795e-19
5.28577e-20
9.13164e-22
1.48374e-19
8.11272e-19
2.26108e-18
4.69232e-18
8.2271e-18
1.3016e-17
1.89539e-17
2.63556e-17
3.43186e-17
4.41032e-17
5.22255e-17
6.33944e-17
6.71767e-17
7.73904e-17
7.01217e-17
7.32137e-17
5.55051e-17
3.61425e-17
3.23979e-17
2.03286e-18
1.48759e-18
2.68264e-15
1.06997e-14
3.01772e-09
3.9717e-09
8.44509e-10
2.11738e-10
3.81444e-11
1.95556e-11
8.23817e-12
4.30032e-12
3.84551e-12
6.19122e-12
8.53302e-11
3.60469e-12
3.98299e-13
9.53882e-14
3.0859e-14
1.17246e-14
4.90632e-15
2.17677e-15
9.95924e-16
4.586e-16
2.07204e-16
8.89963e-17
3.46987e-17
1.13214e-17
2.58398e-18
2.26509e-19
3.22183e-22
3.08449e-19
1.86595e-18
5.31384e-18
1.10365e-17
1.92266e-17
3.01203e-17
4.34103e-17
5.96551e-17
7.69127e-17
9.76011e-17
1.14726e-16
1.37212e-16
1.45217e-16
1.63701e-16
1.5018e-16
1.505e-16
1.16418e-16
6.91232e-17
5.12338e-17
2.63874e-19
1.34218e-18
2.07302e-15
7.43015e-15
2.84639e-09
3.51159e-09
9.05977e-10
2.09058e-10
4.15787e-11
2.10136e-11
8.62086e-12
3.64267e-12
2.23722e-12
1.68913e-12
1.48326e-12
1.69209e-12
3.46873e-12
4.40714e-11
1.39939e-12
1.97265e-13
5.13866e-14
1.70649e-14
6.39486e-15
2.54007e-15
1.02316e-15
4.00708e-16
1.44784e-16
4.43305e-17
9.60657e-18
8.16747e-19
6.86435e-22
9.38709e-19
5.55079e-18
1.53305e-17
3.08863e-17
5.2288e-17
7.9749e-17
1.12175e-16
1.50602e-16
1.90291e-16
2.36389e-16
2.73527e-16
3.20085e-16
3.35728e-16
3.68286e-16
3.38991e-16
3.25619e-16
2.54459e-16
1.42158e-16
9.19173e-17
3.53468e-20
3.39851e-18
1.65602e-15
5.31722e-15
2.67644e-09
3.05594e-09
9.74785e-10
1.97815e-10
4.46812e-11
2.23959e-11
9.80097e-12
3.91404e-12
2.17436e-12
1.41403e-12
9.66174e-13
7.06418e-13
5.74979e-13
5.37827e-13
6.15032e-13
1.03322e-12
6.39673e-12
1.93985e-12
1.61796e-13
3.42736e-14
9.5689e-15
2.92117e-15
8.74787e-16
2.29018e-16
4.25668e-17
2.85343e-18
1.83214e-20
4.58353e-18
2.31042e-17
5.82785e-17
1.0971e-16
1.75633e-16
2.55299e-16
3.44361e-16
4.45071e-16
5.44065e-16
6.543e-16
7.37693e-16
8.37178e-16
8.62523e-16
9.14276e-16
8.36374e-16
7.67692e-16
5.99702e-16
3.20976e-16
1.87598e-16
1.00204e-18
8.18362e-18
1.38259e-15
4.01498e-15
2.49803e-09
2.62094e-09
1.05443e-09
1.83641e-10
4.79294e-11
2.32227e-11
1.1114e-11
4.3802e-12
2.35889e-12
1.48215e-12
9.52788e-13
6.26698e-13
4.33414e-13
3.16797e-13
2.44309e-13
1.99682e-13
1.75502e-13
1.71087e-13
1.98486e-13
3.35436e-13
2.34333e-12
1.53954e-13
1.87034e-14
2.62644e-15
2.99934e-16
9.22853e-18
1.49903e-18
4.53989e-17
1.62501e-16
3.40452e-16
5.62584e-16
8.13552e-16
1.08768e-15
1.36707e-15
1.66099e-15
1.92529e-15
2.20321e-15
2.38416e-15
2.58966e-15
2.58885e-15
2.62543e-15
2.35906e-15
2.05864e-15
1.58742e-15
8.22198e-16
4.42403e-16
8.91516e-18
1.64504e-17
1.22027e-15
3.26515e-15
2.31175e-09
2.22058e-09
1.13958e-09
1.69154e-10
5.17842e-11
2.36243e-11
1.24654e-11
4.90419e-12
2.60064e-12
1.62989e-12
1.03997e-12
6.66071e-13
4.39478e-13
2.99681e-13
2.09478e-13
1.49218e-13
1.08047e-13
7.94324e-14
5.92512e-14
4.48443e-14
3.45027e-14
2.7197e-14
2.25901e-14
2.19546e-14
4.07913e-14
6.43365e-12
4.10037e-14
6.60583e-15
5.58535e-15
6.00429e-15
6.68101e-15
7.38713e-15
8.10258e-15
8.73503e-15
9.36946e-15
9.80593e-15
1.02656e-14
1.03245e-14
1.04508e-14
9.90526e-15
9.43471e-15
8.16932e-15
6.70774e-15
5.0152e-15
2.52074e-15
1.25481e-15
5.34493e-17
2.95427e-17
1.15149e-15
2.91024e-15
2.11989e-09
1.86112e-09
1.22293e-09
1.55391e-10
5.62864e-11
2.37264e-11
1.38779e-11
5.48401e-12
2.86426e-12
1.80112e-12
1.15845e-12
7.40616e-13
4.83073e-13
3.22922e-13
2.19016e-13
1.49386e-13
1.01895e-13
6.91586e-14
4.64189e-14
3.0537e-14
1.94235e-14
1.16873e-14
6.41471e-15
3.00255e-15
1.03426e-15
1.65955e-16
5.38683e-20
1.70831e-16
2.05939e-15
9.35417e-15
8.91044e-16
2.27185e-11
9.44794e-13
3.18849e-13
1.84426e-13
1.30503e-13
1.03477e-13
8.48054e-14
7.26792e-14
6.06778e-14
5.13614e-14
4.08531e-14
3.05831e-14
2.1406e-14
1.031e-14
4.70442e-15
3.27219e-16
5.322e-17
1.17354e-15
2.90939e-15
1.9241e-09
1.54299e-09
1.29788e-09
1.4312e-10
6.11908e-11
2.35963e-11
1.53515e-11
6.14195e-12
3.15251e-12
1.9867e-12
1.29255e-12
8.30732e-13
5.41416e-13
3.60477e-13
2.42613e-13
1.63316e-13
1.09178e-13
7.20284e-14
4.65368e-14
2.91232e-14
1.7359e-14
9.58988e-15
4.68686e-15
1.85304e-15
4.79492e-16
3.6389e-17
2.26087e-18
2.29691e-16
1.41664e-15
4.72716e-15
1.22128e-14
2.77722e-14
6.0009e-14
1.28246e-13
2.87306e-13
6.92824e-13
1.42994e-12
7.84651e-11
8.54466e-12
2.34087e-12
1.07214e-12
5.78947e-13
3.2712e-13
1.8589e-13
7.86858e-14
3.10105e-14
2.98674e-15
1.4953e-16
1.27496e-15
3.46515e-15
1.7266e-09
1.26604e-09
1.35876e-09
1.33226e-10
6.60939e-11
2.33025e-11
1.68495e-11
6.8967e-12
3.47319e-12
2.18842e-12
1.44094e-12
9.33e-13
6.09206e-13
4.05725e-13
2.7284e-13
1.83086e-13
1.21604e-13
7.9389e-14
5.05168e-14
3.09552e-14
1.79298e-14
9.52238e-15
4.39837e-15
1.59205e-15
3.47939e-16
1.43976e-17
9.79734e-18
3.00975e-16
1.43882e-15
4.05607e-15
8.95211e-15
1.71728e-14
3.03773e-14
5.06963e-14
8.21483e-14
1.29168e-13
2.02276e-13
3.11577e-13
4.87116e-13
7.63095e-13
1.23516e-12
2.12999e-12
3.83636e-12
6.94108e-12
6.10037e-11
4.18161e-12
2.52884e-13
9.44539e-15
8.4447e-16
8.43978e-15
1.53016e-09
1.02995e-09
1.40069e-09
1.2665e-10
7.04746e-11
2.29436e-11
1.83107e-11
7.76246e-12
3.83289e-12
2.40885e-12
1.60505e-12
1.04833e-12
6.86313e-13
4.57573e-13
3.07959e-13
2.06581e-13
1.36893e-13
8.89562e-14
5.61875e-14
3.40574e-14
1.94172e-14
1.00724e-14
4.48248e-15
1.51937e-15
2.8636e-16
5.52382e-18
2.61807e-17
4.41449e-16
1.80697e-15
4.64475e-15
9.50605e-15
1.69769e-14
2.78872e-14
4.29981e-14
6.37238e-14
9.0637e-14
1.25935e-13
1.68697e-13
2.21266e-13
2.79154e-13
3.39075e-13
3.94926e-13
4.14435e-13
4.12581e-13
3.00592e-13
1.78654e-13
3.71515e-14
7.82401e-16
2.47916e-14
3.27868e-13
1.33772e-09
8.33543e-10
1.41964e-09
1.24278e-10
7.3735e-11
2.26471e-11
1.96588e-11
8.75049e-12
4.23792e-12
2.65006e-12
1.78608e-12
1.17829e-12
7.73901e-13
5.16568e-13
3.48035e-13
2.33526e-13
1.54547e-13
1.00113e-13
6.29055e-14
3.78302e-14
2.13132e-14
1.08503e-14
4.67665e-15
1.48989e-15
2.39472e-16
1.30756e-18
5.97392e-17
6.76205e-16
2.46619e-15
5.94463e-15
1.15976e-14
1.98743e-14
3.13799e-14
4.65357e-14
6.61754e-14
9.02085e-14
1.1946e-13
1.52186e-13
1.88097e-13
2.22829e-13
2.51044e-13
2.68981e-13
2.57502e-13
2.28692e-13
1.53249e-13
8.17698e-14
2.04399e-14
1.00187e-15
1.97161e-17
1.21849e-15
1.15225e-09
6.74509e-10
1.41274e-09
1.26894e-10
7.53139e-11
2.25531e-11
2.08118e-11
9.86787e-12
4.69525e-12
2.91409e-12
1.98478e-12
1.3243e-12
8.73331e-13
5.83631e-13
3.93625e-13
2.64213e-13
1.74655e-13
1.12805e-13
7.05319e-14
4.21015e-14
2.3451e-14
1.17206e-14
4.88941e-15
1.45675e-15
1.93523e-16
3.62814e-20
1.24492e-16
1.04723e-15
3.47327e-15
7.95157e-15
1.49619e-14
2.4908e-14
3.832e-14
5.5498e-14
7.70556e-14
1.02668e-13
1.32579e-13
1.6482e-13
1.97957e-13
2.27957e-13
2.48489e-13
2.57038e-13
2.38004e-13
2.02378e-13
1.34395e-13
7.06167e-14
2.092e-14
2.18948e-15
6.09666e-17
4.13976e-16
9.76643e-10
5.49516e-10
1.37859e-09
1.35163e-10
7.48286e-11
2.27903e-11
2.16936e-11
1.11145e-11
5.21299e-12
3.20328e-12
2.20159e-12
1.48756e-12
9.85977e-13
6.59763e-13
4.45394e-13
2.99074e-13
1.97469e-13
1.27148e-13
7.90903e-14
4.68418e-14
2.57788e-14
1.26315e-14
5.08353e-15
1.40263e-15
1.46289e-16
1.7301e-19
2.43343e-16
1.61935e-15
4.94554e-15
1.08237e-14
1.97483e-14
3.21102e-14
4.84169e-14
6.89243e-14
9.41308e-14
1.23592e-13
1.57133e-13
1.92605e-13
2.27612e-13
2.58123e-13
2.76654e-13
2.80977e-13
2.56719e-13
2.1398e-13
1.43744e-13
7.67933e-14
2.65024e-14
4.6312e-15
6.94227e-16
1.06674e-15
8.13604e-10
4.54413e-10
1.31755e-09
1.49599e-10
7.21459e-11
2.34543e-11
2.22461e-11
1.24792e-11
5.80041e-12
3.52039e-12
2.43675e-12
1.66899e-12
1.11319e-12
7.45999e-13
5.0403e-13
3.38563e-13
2.23273e-13
1.43294e-13
8.86413e-14
5.20566e-14
2.82751e-14
1.35553e-14
5.23861e-15
1.32048e-15
9.98077e-17
4.07357e-18
4.53209e-16
2.49074e-15
7.06728e-15
1.48444e-14
2.63331e-14
4.19196e-14
6.21054e-14
8.71355e-14
1.17426e-13
1.52451e-13
1.91637e-13
2.32618e-13
2.72011e-13
3.05497e-13
3.24316e-13
3.25875e-13
2.9642e-13
2.45051e-13
1.67841e-13
9.26668e-14
3.65851e-14
9.22206e-15
2.54141e-15
2.84629e-15
6.65438e-10
3.84543e-10
1.23186e-09
1.70433e-10
6.74182e-11
2.45911e-11
2.24415e-11
1.39351e-11
6.46769e-12
3.86858e-12
2.69035e-12
1.86914e-12
1.25626e-12
8.43399e-13
5.7023e-13
3.83133e-13
2.52345e-13
1.6139e-13
9.92414e-14
5.77486e-14
3.09181e-14
1.44657e-14
5.33778e-15
1.20742e-15
5.79925e-17
2.22598e-17
8.12985e-16
3.80861e-15
1.01119e-14
2.04421e-14
3.53154e-14
5.51065e-14
8.031e-14
1.11174e-13
1.48035e-13
1.9029e-13
2.3694e-13
2.8532e-13
3.30995e-13
3.69058e-13
3.89428e-13
3.88625e-13
3.53424e-13
2.91802e-13
2.04409e-13
1.17637e-13
5.22397e-14
1.72639e-14
6.56207e-15
6.4449e-15
5.33864e-10
3.35072e-10
1.12554e-09
1.97389e-10
6.11125e-11
2.61746e-11
2.22922e-11
1.54359e-11
7.22521e-12
4.25141e-12
2.96246e-12
2.08808e-12
1.41631e-12
9.53018e-13
6.44686e-13
4.33214e-13
2.84943e-13
1.81564e-13
1.10928e-13
6.39055e-14
3.3675e-14
1.53313e-14
5.36383e-15
1.06331e-15
2.54717e-17
7.57746e-17
1.4156e-15
5.79191e-15
1.44764e-14
2.82342e-14
4.75621e-14
7.2805e-14
1.04439e-13
1.42719e-13
1.87892e-13
2.39261e-13
2.9535e-13
3.53072e-13
4.06849e-13
4.50872e-13
4.73704e-13
4.70536e-13
4.28721e-13
3.55107e-13
2.54675e-13
1.53355e-13
7.54585e-14
3.06051e-14
1.42347e-14
1.29754e-14
4.19894e-10
3.01221e-10
1.00416e-09
2.29403e-10
5.39897e-11
2.80759e-11
2.18558e-11
1.69152e-11
8.08212e-12
4.67276e-12
3.25318e-12
2.32531e-12
1.59416e-12
1.07586e-12
7.28058e-13
4.89197e-13
3.21283e-13
2.03908e-13
1.23712e-13
7.04923e-14
3.64977e-14
1.6113e-14
5.29913e-15
8.91364e-16
6.10457e-18
2.03564e-16
2.40613e-15
8.76427e-15
2.07313e-14
3.90932e-14
6.42878e-14
9.65999e-14
1.36468e-13
1.8415e-13
2.39792e-13
3.02566e-13
3.70453e-13
4.39783e-13
5.03717e-13
5.5519e-13
5.81344e-13
5.75664e-13
5.26107e-13
4.38539e-13
3.22054e-13
2.03074e-13
1.0928e-13
5.18902e-14
2.77537e-14
2.41354e-14
3.23745e-10
2.78453e-10
8.75073e-10
2.64278e-10
4.70371e-11
3.00541e-11
2.12299e-11
1.82905e-11
9.04417e-12
5.1368e-12
3.56277e-12
2.57971e-12
1.79019e-12
1.21278e-12
8.20941e-13
5.51403e-13
3.61524e-13
2.2847e-13
1.37565e-13
7.74458e-14
3.93201e-14
1.67637e-14
5.12698e-15
6.99099e-16
1.23385e-19
4.74366e-16
4.00883e-15
1.32018e-14
2.9693e-14
5.42455e-14
8.71775e-14
1.28669e-13
1.79095e-13
2.3871e-13
3.07545e-13
3.84594e-13
4.67216e-13
5.50955e-13
6.27551e-13
6.88302e-13
7.18784e-13
7.10455e-13
6.5181e-13
5.48018e-13
4.12052e-13
2.71792e-13
1.58165e-13
8.49504e-14
5.03517e-14
4.25007e-14
2.44758e-10
2.62804e-10
7.46984e-10
2.98552e-10
4.12926e-11
3.17933e-11
2.05368e-11
1.94706e-11
1.01106e-11
5.64805e-12
3.89171e-12
2.84962e-12
2.0042e-12
1.36445e-12
9.23828e-13
6.20057e-13
4.05736e-13
2.55227e-13
1.52408e-13
8.46687e-14
4.2056e-14
1.72298e-14
4.83391e-15
4.99218e-16
1.25789e-18
1.00533e-15
6.56703e-15
1.98016e-14
4.25263e-14
7.54091e-14
1.18559e-13
1.71987e-13
2.35975e-13
3.10766e-13
3.96263e-13
4.91224e-13
5.92289e-13
6.93978e-13
7.86399e-13
8.58786e-13
8.94916e-13
8.83933e-13
8.14696e-13
6.92053e-13
5.32628e-13
3.66737e-13
2.28567e-13
1.35372e-13
8.67984e-14
7.19738e-14
1.81546e-10
2.51021e-10
6.27181e-10
3.28123e-10
3.75535e-11
3.29526e-11
1.99041e-11
2.03682e-11
1.12693e-11
6.21112e-12
4.2407e-12
3.13288e-12
2.23518e-12
1.53117e-12
1.03705e-12
6.95251e-13
4.53873e-13
2.8407e-13
1.68105e-13
9.20236e-14
4.45979e-14
1.74527e-14
4.41277e-15
3.09718e-16
2.54067e-17
1.99067e-15
1.06017e-14
2.95803e-14
6.08888e-14
1.04987e-13
1.61647e-13
2.3062e-13
3.12054e-13
4.06181e-13
5.12768e-13
6.30269e-13
7.54493e-13
8.78656e-13
9.90952e-13
1.07809e-12
1.12169e-12
1.10831e-12
1.02691e-12
8.82415e-13
6.94926e-13
4.98157e-13
3.29749e-13
2.113e-13
1.44141e-13
1.18449e-13
1.32291e-10
2.40298e-10
5.19435e-10
3.49367e-10
3.62383e-11
3.32222e-11
1.94377e-11
2.09174e-11
1.2493e-11
6.83019e-12
4.61045e-12
3.427e-12
2.48126e-12
1.71274e-12
1.16072e-12
7.76908e-13
5.05747e-13
3.14784e-13
1.84442e-13
9.93282e-14
4.68177e-14
1.73727e-14
3.86644e-15
1.52266e-16
1.34423e-16
3.74507e-15
1.68964e-14
4.40128e-14
8.71329e-14
1.46335e-13
2.20871e-13
3.10109e-13
4.14021e-13
5.32825e-13
6.66162e-13
8.12112e-13
9.65513e-13
1.11796e-12
1.25537e-12
1.3614e-12
1.41504e-12
1.39998e-12
1.3049e-12
1.13523e-12
9.14406e-13
6.80489e-13
4.74954e-13
3.24595e-13
2.32788e-13
1.90805e-13
9.48988e-11
2.2841e-10
4.25267e-10
3.59924e-10
3.74957e-11
3.2436e-11
1.91961e-11
2.10905e-11
1.37364e-11
7.50818e-12
5.00165e-12
3.72941e-12
2.73961e-12
1.90834e-12
1.29464e-12
8.64751e-13
5.60996e-13
3.47021e-13
2.01125e-13
1.06354e-13
4.85696e-14
1.69346e-14
3.21206e-15
4.73405e-17
4.51399e-16
6.76845e-15
2.66198e-14
6.52295e-14
1.24587e-13
2.04131e-13
3.02331e-13
4.18012e-13
5.50916e-13
7.01263e-13
8.68597e-13
1.05055e-12
1.24085e-12
1.42908e-12
1.59842e-12
1.7289e-12
1.79626e-12
1.78097e-12
1.67097e-12
1.47257e-12
1.21249e-12
9.3404e-13
6.83087e-13
4.92483e-13
3.68096e-13
3.02369e-13
6.71768e-11
2.14072e-10
3.45243e-10
3.58922e-10
4.13175e-11
3.06652e-11
1.91763e-11
2.0905e-11
1.49385e-11
8.24548e-12
5.41485e-12
4.03773e-12
3.0066e-12
2.11636e-12
1.43826e-12
9.58284e-13
6.19081e-13
3.80301e-13
2.1777e-13
1.12827e-13
4.96967e-14
1.60955e-14
2.48466e-15
3.78119e-18
1.20182e-15
1.18414e-14
4.15005e-14
9.62922e-14
1.77945e-13
2.84879e-13
4.1442e-13
5.64627e-13
7.34958e-13
9.25684e-13
1.1363e-12
1.36397e-12
1.60106e-12
1.8348e-12
2.04504e-12
2.20747e-12
2.29382e-12
2.28091e-12
2.1554e-12
1.9247e-12
1.61891e-12
1.28738e-12
9.81134e-13
7.39951e-13
5.72695e-13
4.7312e-13
4.70534e-11
1.96902e-10
2.79088e-10
3.46873e-10
4.75056e-11
2.81972e-11
1.93137e-11
2.042e-11
1.60262e-11
9.03775e-12
5.85033e-12
4.34988e-12
3.27797e-12
2.33436e-12
1.59058e-12
1.05676e-12
6.7927e-13
4.13994e-13
2.33906e-13
1.18434e-13
5.00403e-14
1.4834e-14
1.73909e-15
6.92462e-19
2.77717e-15
2.01641e-14
6.40754e-14
1.41581e-13
2.5381e-13
3.97614e-13
5.6867e-13
7.6398e-13
9.82674e-13
1.22515e-12
1.49099e-12
1.77683e-12
2.07353e-12
2.36544e-12
2.62841e-12
2.83298e-12
2.94593e-12
2.9398e-12
2.79936e-12
2.53324e-12
2.17496e-12
1.78075e-12
1.40761e-12
1.1032e-12
8.7988e-13
7.3294e-13
3.27108e-11
1.77236e-10
2.2573e-10
3.25443e-10
5.55658e-11
2.5445e-11
1.94939e-11
1.97244e-11
1.69241e-11
9.87314e-12
6.30787e-12
4.66413e-12
3.54915e-12
2.55898e-12
1.75008e-12
1.15917e-12
7.40642e-13
4.47335e-13
2.48979e-13
1.22835e-13
4.94538e-14
1.31612e-14
1.04791e-15
5.29349e-17
5.83062e-15
3.35562e-14
9.80399e-14
2.07332e-13
3.61441e-13
5.54857e-13
7.80915e-13
1.03518e-12
1.31641e-12
1.62532e-12
1.96174e-12
2.32182e-12
2.69473e-12
3.06141e-12
3.39285e-12
3.6535e-12
3.80401e-12
3.81186e-12
3.65911e-12
3.35554e-12
2.93818e-12
2.4709e-12
2.01755e-12
1.63468e-12
1.33861e-12
1.12647e-12
2.26396e-11
1.55947e-10
1.83511e-10
2.97099e-10
6.46677e-11
2.28509e-11
1.95746e-11
1.89187e-11
1.75665e-11
1.07298e-11
6.78638e-12
4.97903e-12
3.81563e-12
2.78604e-12
1.91462e-12
1.26422e-12
8.02102e-13
4.7943e-13
2.6237e-13
1.25677e-13
4.78187e-14
1.11307e-14
4.92102e-16
3.58713e-16
1.14182e-14
5.47421e-14
1.4874e-13
3.02391e-13
5.13792e-13
7.73948e-13
1.07289e-12
1.40425e-12
1.76644e-12
2.16072e-12
2.58754e-12
3.0427e-12
3.51345e-12
3.97675e-12
4.39778e-12
4.73364e-12
4.93755e-12
4.97077e-12
4.8117e-12
4.47091e-12
3.98899e-12
3.43801e-12
2.88967e-12
2.41038e-12
2.02086e-12
1.72038e-12
1.56403e-11
1.34265e-10
1.50489e-10
2.64637e-10
7.37194e-11
2.08021e-11
1.94258e-11
1.80934e-11
1.79105e-11
1.15748e-11
7.2834e-12
5.29326e-12
4.07332e-12
3.01073e-12
2.08144e-12
1.3703e-12
8.62404e-13
5.0929e-13
2.73415e-13
1.2662e-13
4.50648e-14
8.84683e-15
1.39995e-16
1.32746e-15
2.12044e-14
8.77552e-14
2.2386e-13
4.39253e-13
7.28945e-13
1.07886e-12
1.47441e-12
1.90669e-12
2.37377e-12
2.87797e-12
3.42085e-12
3.99816e-12
4.5951e-12
5.18398e-12
5.72306e-12
6.16065e-12
6.44083e-12
6.51716e-12
6.36314e-12
5.98942e-12
5.44002e-12
4.79567e-12
4.13677e-12
3.54055e-12
3.03246e-12
2.6141e-12
1.08056e-11
1.13335e-10
1.24729e-10
2.3083e-10
8.1548e-11
1.95653e-11
1.89739e-11
1.73133e-11
1.79447e-11
1.23656e-11
7.79446e-12
5.60559e-12
4.3189e-12
3.22797e-12
2.24721e-12
1.47554e-12
9.20185e-13
5.35875e-13
2.81445e-13
1.25364e-13
4.11909e-14
6.46754e-15
8.01584e-18
3.70037e-15
3.77568e-14
1.38506e-13
3.34385e-13
6.35513e-13
1.0321e-12
1.50275e-12
2.02645e-12
2.59093e-12
3.19412e-12
3.84012e-12
4.53244e-12
5.26726e-12
6.02775e-12
6.78088e-12
7.47666e-12
8.05284e-12
8.44234e-12
8.58905e-12
8.45992e-12
8.06445e-12
7.44977e-12
6.7053e-12
5.92095e-12
5.18544e-12
4.52919e-12
3.95608e-12
7.48069e-12
9.3872e-11
1.04482e-10
1.98045e-10
8.71662e-11
1.92432e-11
1.8221e-11
1.66068e-11
1.76905e-11
1.30536e-11
8.31163e-12
5.91455e-12
4.54986e-12
3.43276e-12
2.40806e-12
1.57774e-12
9.73994e-13
5.58135e-13
2.85823e-13
1.21682e-13
3.62846e-14
4.19762e-15
5.24436e-18
8.73952e-15
6.49652e-14
2.15582e-13
4.95934e-13
9.15884e-13
1.45835e-12
2.09145e-12
2.78529e-12
3.52321e-12
4.30335e-12
5.13272e-12
6.01806e-12
6.95689e-12
7.93048e-12
8.89978e-12
9.8051e-12
1.05715e-11
1.11181e-11
1.13767e-11
1.13055e-11
1.09108e-11
1.02421e-11
9.39718e-12
8.47587e-12
7.57855e-12
6.74078e-12
5.96802e-12
5.19753e-12
7.63357e-11
8.82792e-11
1.67827e-10
8.99849e-11
1.97861e-11
1.7241e-11
1.59648e-11
1.71964e-11
1.35915e-11
8.82229e-12
6.21816e-12
4.76444e-12
3.62057e-12
2.55977e-12
1.67444e-12
1.02233e-12
5.75063e-13
2.85997e-13
1.15453e-13
3.05381e-14
2.26658e-15
2.23075e-16
1.85014e-14
1.08632e-13
3.31354e-13
7.30633e-13
1.315e-12
2.05651e-12
2.90836e-12
3.82842e-12
4.7943e-12
5.80502e-12
6.87222e-12
8.00785e-12
9.21215e-12
1.0465e-11
1.17208e-11
1.29084e-11
1.39375e-11
1.47108e-11
1.51439e-11
1.51837e-11
1.48306e-11
1.41349e-11
1.32012e-11
1.21396e-11
1.10612e-11
1.00068e-11
8.98144e-12
3.62544e-12
6.10643e-11
7.49841e-11
1.40932e-10
8.98683e-11
2.10307e-11
1.61594e-11
1.5354e-11
1.6526e-11
1.39407e-11
9.30863e-12
6.51367e-12
4.96148e-12
3.78775e-12
2.69805e-12
1.76296e-12
1.06366e-12
5.85746e-13
2.81546e-13
1.06702e-13
2.42561e-14
8.84164e-16
1.34783e-15
3.62263e-14
1.77299e-13
5.03531e-13
1.0697e-12
1.88134e-12
2.89452e-12
4.04131e-12
5.2627e-12
6.52894e-12
7.84098e-12
9.21774e-12
1.06793e-11
1.2231e-11
1.38523e-11
1.54903e-11
1.70611e-11
1.84556e-11
1.95563e-11
2.02584e-11
2.04933e-11
2.02513e-11
1.95816e-11
1.85922e-11
1.74034e-11
1.61343e-11
1.48304e-11
1.3493e-11
2.53834e-12
4.81844e-11
6.37911e-11
1.17622e-10
8.70847e-11
2.27278e-11
1.51151e-11
1.47357e-11
1.57454e-11
1.40785e-11
9.74802e-12
6.79721e-12
5.14016e-12
3.93164e-12
2.81883e-12
1.84048e-12
1.09648e-12
5.89411e-13
2.72227e-13
9.56237e-14
1.78511e-14
1.63586e-16
4.69088e-15
6.68859e-14
2.83389e-13
7.57302e-13
1.55704e-12
2.68265e-12
4.06692e-12
5.61208e-12
7.23585e-12
8.89899e-12
1.06062e-11
1.23876e-11
1.42759e-11
1.62846e-11
1.83951e-11
2.05472e-11
2.26419e-11
2.45478e-11
2.61227e-11
2.72355e-11
2.7797e-11
2.77811e-11
2.72323e-11
2.6257e-11
2.49841e-11
2.35351e-11
2.19599e-11
2.02478e-11
1.78313e-12
3.76105e-11
5.41703e-11
9.783e-11
8.21799e-11
2.45753e-11
1.42244e-11
1.40808e-11
1.49112e-11
1.40013e-11
1.01148e-11
7.06325e-12
5.29976e-12
4.05072e-12
2.91856e-12
1.90419e-12
1.11935e-12
5.85472e-13
2.58024e-13
8.26103e-14
1.18178e-14
3.59032e-19
1.25008e-14
1.17943e-13
4.44796e-13
1.12831e-12
2.25429e-12
3.81358e-12
5.70539e-12
7.78984e-12
9.95255e-12
1.21421e-11
1.43696e-11
1.66824e-11
1.91324e-11
2.17467e-11
2.45116e-11
2.73599e-11
3.01763e-11
3.28025e-11
3.50662e-11
3.68018e-11
3.78935e-11
3.82894e-11
3.80242e-11
3.71934e-11
3.59323e-11
3.43534e-11
3.25099e-11
3.03655e-11
1.25602e-12
2.91177e-11
4.57963e-11
8.12678e-11
7.58177e-11
2.62678e-11
1.3558e-11
1.33795e-11
1.40637e-11
1.37245e-11
1.03838e-11
7.30436e-12
5.43941e-12
4.14443e-12
2.99458e-12
1.95148e-12
1.13093e-12
5.73566e-13
2.39174e-13
6.82543e-14
6.68046e-15
1.08693e-16
2.84224e-14
2.00397e-13
6.87058e-13
1.66676e-12
3.24776e-12
5.40635e-12
7.99355e-12
1.08101e-11
1.36972e-11
1.65877e-11
1.95037e-11
2.25184e-11
2.57124e-11
2.91344e-11
3.2781e-11
3.65797e-11
4.03975e-11
4.4044e-11
4.73104e-11
4.99867e-11
5.19218e-11
5.30247e-11
5.33132e-11
5.28566e-11
5.17918e-11
5.0203e-11
4.8144e-11
4.55282e-11
8.86576e-13
2.24121e-11
3.84795e-11
6.75295e-11
6.86476e-11
2.75476e-11
1.31354e-11
1.26432e-11
1.3226e-11
1.32788e-11
1.05338e-11
7.51113e-12
5.55791e-12
4.21302e-12
3.04527e-12
1.98017e-12
1.13014e-12
5.53586e-13
2.1619e-13
5.33343e-14
2.90022e-15
1.32514e-15
5.81272e-14
3.30209e-13
1.04634e-12
2.44309e-12
4.65813e-12
7.64565e-12
1.11877e-11
1.50014e-11
1.88662e-11
2.26946e-11
2.65263e-11
3.04734e-11
3.46594e-11
3.91668e-11
4.40105e-11
4.91162e-11
5.43329e-11
5.94324e-11
6.41623e-11
6.82547e-11
7.15121e-11
7.37862e-11
7.50668e-11
7.53729e-11
7.48347e-11
7.34749e-11
7.13424e-11
6.82572e-11
6.26777e-13
1.71862e-11
3.21065e-11
5.61759e-11
6.1223e-11
2.82433e-11
1.29295e-11
1.18996e-11
1.24079e-11
1.27028e-11
1.05519e-11
7.6726e-12
5.65353e-12
4.2572e-12
3.07013e-12
1.9887e-12
1.11615e-12
5.25713e-13
1.89852e-13
3.87708e-14
7.33581e-16
5.82971e-15
1.10167e-13
5.30224e-13
1.57347e-12
3.55575e-12
6.65395e-12
1.07895e-11
1.56463e-11
2.08229e-11
2.60132e-11
3.1103e-11
3.61598e-11
4.13532e-11
4.68713e-11
5.28474e-11
5.93283e-11
6.62442e-11
7.34274e-11
8.0606e-11
8.74753e-11
9.36931e-11
9.90013e-11
1.03168e-10
1.06139e-10
1.07845e-10
1.08396e-10
1.07698e-10
1.05782e-10
1.02304e-10
4.43644e-13
1.31524e-11
2.65984e-11
4.67928e-11
5.39582e-11
2.82852e-11
1.28791e-11
1.11816e-11
1.16115e-11
1.20367e-11
1.04351e-11
7.7774e-12
5.72389e-12
4.27792e-12
3.06969e-12
1.97635e-12
1.08858e-12
4.90442e-13
1.61199e-13
2.5548e-14
2.90694e-17
1.73092e-14
1.97113e-13
8.32748e-13
2.33948e-12
5.14192e-12
9.47025e-12
1.51984e-11
2.18706e-11
2.89177e-11
3.59135e-11
4.27087e-11
4.9414e-11
5.62844e-11
6.36029e-11
7.15806e-11
8.0316e-11
8.97543e-11
9.97159e-11
1.09879e-10
1.19877e-10
1.29273e-10
1.3773e-10
1.44893e-10
1.50645e-10
1.54768e-10
1.57328e-10
1.58022e-10
1.56845e-10
1.53161e-10
3.14367e-13
1.0059e-11
2.18893e-11
3.90199e-11
4.71219e-11
2.76971e-11
1.29033e-11
1.05154e-11
1.08365e-11
1.13165e-11
1.01906e-11
7.81526e-12
5.76596e-12
4.27619e-12
3.04533e-12
1.94326e-12
1.04753e-12
4.48596e-13
1.31478e-13
1.45954e-14
4.86149e-17
4.15965e-14
3.3704e-13
1.28296e-12
3.44288e-12
7.39199e-12
1.34343e-11
2.13759e-11
3.05625e-11
4.01868e-11
4.96533e-11
5.87667e-11
6.77029e-11
7.68432e-11
8.66105e-11
9.73324e-11
1.09189e-10
1.22158e-10
1.36057e-10
1.50508e-10
1.65075e-10
1.79194e-10
1.92428e-10
2.04249e-10
2.14438e-10
2.22545e-10
2.28547e-10
2.3179e-10
2.32191e-10
2.2863e-10
2.23071e-13
7.69467e-12
1.79155e-11
3.25606e-11
4.08634e-11
2.65688e-11
1.29187e-11
9.91451e-12
1.00842e-11
1.05712e-11
9.8346e-12
7.77878e-12
5.77622e-12
4.25288e-12
2.99908e-12
1.89054e-12
9.93743e-13
4.01347e-13
1.02086e-13
6.62796e-15
1.37541e-15
8.74872e-14
5.55455e-13
1.94335e-12
5.01959e-12
1.05693e-11
1.90008e-11
3.00245e-11
4.27035e-11
5.58917e-11
6.87538e-11
8.10328e-11
9.30031e-11
1.05231e-10
1.18346e-10
1.32846e-10
1.49039e-10
1.6696e-10
1.86438e-10
2.07034e-10
2.28228e-10
2.49295e-10
2.69663e-10
2.88554e-10
3.056e-10
3.19981e-10
3.31523e-10
3.39001e-10
3.4218e-10
3.39159e-10
1.58613e-13
5.8895e-12
1.4603e-11
2.71783e-11
3.52471e-11
2.50255e-11
1.28552e-11
9.37977e-12
9.35871e-12
9.82272e-12
9.38872e-12
7.66496e-12