/*--------------------------------*- C++ -*----------------------------------*\
  =========                 |
  \\      /  F ield         | OpenFOAM: The Open Source CFD Toolbox
   \\    /   O peration     | Website:  https://openfoam.org
    \\  /    A nd           | Version:  7
     \\/     M anipulation  |
\*---------------------------------------------------------------------------*/
FoamFile
{
    version     2.0;
    format      ascii;
    class       volScalarField;
    location    "0.03";
    object      p;
}
// * * * * * * * * * * * * * * * * * * * * * * * * * * * * * * * * * * * * * //

dimensions      [0 2 -2 0 0 0 0];

internalField   nonuniform List<scalar> 
70000
(
0.118059
0.0406036
0.0280825
0.0305259
0.0306932
0.0296334
0.0286913
0.0279788
0.0273854
0.0268633
0.0263988
0.0259838
0.0256104
0.0252718
0.0249625
0.0246779
0.0244145
0.0241691
0.0239393
0.0237227
0.0235175
0.023322
0.0231347
0.0229542
0.0227792
0.0226086
0.0224413
0.0222761
0.0221119
0.0219474
0.0217816
0.0216129
0.0214402
0.0212616
0.0210757
0.0208803
0.0206737
0.0204531
0.0202163
0.0199605
0.0196811
0.0193778
0.0190388
0.018675
0.0182491
0.0178146
0.0172503
0.016753
0.015933
0.0154038
0.113691
0.0409705
0.0282855
0.0306215
0.0307479
0.0296696
0.0287196
0.0280022
0.0274051
0.0268802
0.0264136
0.0259969
0.0256221
0.0252824
0.0249722
0.0246869
0.0244228
0.0241769
0.0239466
0.0237296
0.023524
0.0233282
0.0231406
0.0229599
0.0227847
0.022614
0.0224465
0.0222812
0.0221168
0.0219523
0.0217863
0.0216176
0.0214448
0.0212661
0.0210802
0.0208848
0.0206781
0.0204575
0.0202207
0.0199648
0.0196855
0.0193822
0.0190431
0.0186792
0.0182532
0.0178187
0.0172543
0.0167562
0.0159399
0.0154426
0.11011
0.0419104
0.0286258
0.0307506
0.0308221
0.0297143
0.028752
0.0280285
0.027427
0.0268987
0.0264296
0.026011
0.0256347
0.0252938
0.0249826
0.0246965
0.0244317
0.0241852
0.0239543
0.0237369
0.0235309
0.0233348
0.0231469
0.0229659
0.0227905
0.0226196
0.0224519
0.0222864
0.022122
0.0219573
0.0217913
0.0216225
0.0214496
0.0212709
0.021085
0.0208895
0.0206829
0.0204623
0.0202255
0.0199696
0.0196903
0.019387
0.019048
0.0186843
0.0182582
0.017824
0.0172595
0.0167608
0.0159591
0.0154792
0.107016
0.0430121
0.0290952
0.0309245
0.030923
0.0297718
0.0287901
0.0280584
0.0274516
0.0269192
0.0264471
0.0260262
0.0256482
0.0253059
0.0249935
0.0247064
0.0244409
0.0241937
0.0239623
0.0237443
0.023538
0.0233414
0.0231532
0.022972
0.0227963
0.0226252
0.0224574
0.0222917
0.0221271
0.0219623
0.0217962
0.0216273
0.0214544
0.0212757
0.0210897
0.0208943
0.0206877
0.0204671
0.0202304
0.0199746
0.0196954
0.0193923
0.0190533
0.0186898
0.018264
0.0178301
0.0172666
0.0167664
0.0159902
0.0155142
0.104056
0.0441085
0.0296609
0.0311448
0.0310573
0.0298495
0.0288389
0.0280952
0.0274814
0.0269437
0.0264675
0.0260436
0.0256634
0.0253193
0.0250055
0.0247173
0.0244508
0.0242028
0.0239707
0.0237522
0.0235453
0.0233483
0.0231598
0.0229781
0.0228022
0.0226308
0.0224628
0.0222969
0.0221322
0.0219673
0.0218011
0.0216321
0.0214591
0.0212804
0.0210944
0.0208989
0.0206924
0.0204719
0.0202353
0.0199796
0.0197006
0.0193977
0.0190591
0.018696
0.0182707
0.0178371
0.0172763
0.0167735
0.0160316
0.0155554
0.101147
0.0451473
0.0302759
0.0313916
0.0312192
0.0299489
0.0289009
0.0281412
0.0275183
0.0269737
0.0264923
0.0260645
0.0256813
0.025335
0.0250194
0.0247297
0.0244619
0.0242129
0.0239799
0.0237607
0.0235532
0.0233557
0.0231666
0.0229846
0.0228083
0.0226366
0.0224682
0.0223021
0.0221372
0.0219721
0.0218057
0.0216366
0.0214635
0.0212847
0.0210987
0.0209033
0.0206967
0.0204764
0.0202399
0.0199844
0.0197057
0.0194031
0.0190651
0.0187024
0.0182783
0.017845
0.0172886
0.016783
0.0160813
0.0156053
0.0982825
0.0461097
0.0309065
0.0316432
0.0313956
0.0300654
0.0289751
0.0281962
0.0275627
0.0270099
0.0265221
0.0260895
0.0257027
0.0253535
0.0250356
0.024744
0.0244747
0.0242244
0.0239903
0.0237701
0.0235618
0.0233636
0.0231739
0.0229913
0.0228145
0.0226424
0.0224736
0.0223072
0.0221419
0.0219766
0.02181
0.0216407
0.0214675
0.0212885
0.0211024
0.020907
0.0207005
0.0204802
0.0202439
0.0199887
0.0197103
0.0194082
0.0190708
0.0187089
0.0182865
0.0178536
0.0173038
0.0167955
0.0161377
0.015664
0.0954681
0.0469877
0.0315367
0.0318879
0.0315755
0.0301927
0.0290582
0.0282583
0.0276135
0.0270518
0.0265568
0.0261188
0.0257277
0.0253751
0.0250545
0.0247607
0.0244895
0.0242375
0.0240021
0.0237807
0.0235713
0.0233722
0.0231817
0.0229984
0.022821
0.0226482
0.022479
0.0223121
0.0221464
0.0219807
0.0218137
0.0216442
0.0214707
0.0212916
0.0211053
0.0209098
0.0207033
0.0204831
0.0202469
0.019992
0.019714
0.0194125
0.0190761
0.0187151
0.018295
0.0178628
0.0173218
0.0168117
0.0161988
0.0157309
0.0927098
0.0477785
0.0321613
0.0321215
0.031753
0.0303258
0.0291468
0.0283248
0.0276686
0.0270979
0.0265955
0.0261516
0.0257559
0.0253997
0.025076
0.0247795
0.0245062
0.0242524
0.0240153
0.0237925
0.0235818
0.0233816
0.0231901
0.0230059
0.0228277
0.0226542
0.0224843
0.0223168
0.0221505
0.0219843
0.0218169
0.0216469
0.0214731
0.0212936
0.0211071
0.0209114
0.0207048
0.0204846
0.0202485
0.019994
0.0197164
0.0194157
0.0190804
0.0187206
0.0183034
0.0178722
0.0173422
0.0168321
0.0162625
0.0158047
0.0900122
0.0484817
0.0327793
0.0323439
0.0319251
0.0304621
0.0292389
0.0283939
0.0277263
0.0271468
0.0266369
0.026187
0.0257866
0.0254265
0.0250996
0.0248004
0.0245247
0.0242688
0.0240299
0.0238055
0.0235934
0.0233919
0.0231992
0.023014
0.0228348
0.0226604
0.0224896
0.0223213
0.0221543
0.0219874
0.0218194
0.0216489
0.0214745
0.0212946
0.0211077
0.0209118
0.0207049
0.0204847
0.0202486
0.0199944
0.0197173
0.0194174
0.0190834
0.018725
0.0183116
0.0178819
0.0173645
0.0168568
0.0163271
0.0158838
0.0873786
0.0490979
0.0333898
0.0325558
0.0320903
0.0306001
0.0293335
0.0284645
0.0277855
0.0271975
0.0266801
0.0262242
0.0258191
0.0254551
0.0251248
0.0248228
0.0245446
0.0242866
0.0240457
0.0238196
0.023606
0.023403
0.023209
0.0230225
0.0228422
0.0226668
0.022495
0.0223258
0.0221579
0.0219902
0.0218214
0.0216501
0.021475
0.0212946
0.0211071
0.0209107
0.0207035
0.0204832
0.0202471
0.0199931
0.0197165
0.0194174
0.019085
0.0187283
0.0183194
0.0178917
0.0173884
0.0168858
0.0163913
0.0159657
0.084812
0.0496274
0.0339913
0.0327583
0.0322477
0.0307389
0.0294302
0.0285362
0.0278456
0.0272492
0.0267245
0.0262626
0.0258527
0.0254848
0.0251512
0.0248464
0.0245656
0.0243054
0.0240625
0.0238346
0.0236193
0.0234148
0.0232194
0.0230316
0.02285
0.0226734
0.0225005
0.0223302
0.0221613
0.0219926
0.0218228
0.0216507
0.0214748
0.0212936
0.0211054
0.0209085
0.0207008
0.0204802
0.0202439
0.0199901
0.019714
0.0194159
0.0190853
0.0187303
0.0183265
0.0179017
0.0174133
0.0169187
0.0164542
0.0160482
0.0823149
0.0500706
0.034582
0.0329525
0.0323968
0.0308777
0.029529
0.0286087
0.0279063
0.0273017
0.0267697
0.0263018
0.0258871
0.0255153
0.0251785
0.0248707
0.0245874
0.0243249
0.0240801
0.0238502
0.0236332
0.0234271
0.0232302
0.023041
0.0228581
0.0226802
0.0225061
0.0223346
0.0221646
0.0219948
0.021824
0.0216508
0.021474
0.0212918
0.0211029
0.0209052
0.0206969
0.0204759
0.0202394
0.0199858
0.0197102
0.0194129
0.0190843
0.0187314
0.0183332
0.0179121
0.0174389
0.0169549
0.0165152
0.0161293
0.07989
0.0504285
0.0351593
0.0331398
0.0325368
0.0310157
0.0296296
0.0286821
0.0279674
0.0273548
0.0268156
0.0263417
0.0259222
0.0255464
0.0252063
0.0248956
0.0246098
0.024345
0.0240981
0.0238664
0.0236477
0.0234399
0.0232415
0.0230508
0.0228665
0.0226872
0.0225118
0.0223391
0.0221678
0.0219968
0.0218249
0.0216506
0.0214727
0.0212896
0.0210997
0.0209012
0.0206922
0.0204707
0.020234
0.0199803
0.0197053
0.0194089
0.0190825
0.0187317
0.0183396
0.0179232
0.0174649
0.0169937
0.0165744
0.0162074
0.0775393
0.0507023
0.0357204
0.0333218
0.0326675
0.031152
0.0297319
0.0287563
0.0280289
0.0274084
0.0268621
0.0263822
0.0259578
0.0255781
0.0252346
0.0249211
0.0246327
0.0243656
0.0241166
0.023883
0.0236625
0.0234531
0.0232531
0.0230609
0.0228751
0.0226945
0.0225178
0.0223437
0.0221712
0.0219989
0.0218257
0.0216503
0.0214712
0.021287
0.0210961
0.0208967
0.0206869
0.0204649
0.0202278
0.0199742
0.0196997
0.0194043
0.0190802
0.0187319
0.018346
0.0179351
0.0174913
0.0170343
0.0166318
0.0162817
0.0752652
0.0508936
0.0362621
0.0335
0.0327886
0.0312856
0.0298358
0.0288314
0.0280907
0.0274624
0.0269092
0.0264232
0.0259939
0.0256102
0.0252634
0.0249469
0.024656
0.0243866
0.0241355
0.0238999
0.0236776
0.0234666
0.023265
0.0230713
0.022884
0.022702
0.0225239
0.0223485
0.0221746
0.022001
0.0218266
0.0216499
0.0214696
0.0212843
0.0210923
0.020892
0.0206814
0.0204588
0.0202214
0.0199678
0.0196938
0.0193995
0.0190778
0.0187322
0.0183527
0.0179481
0.017518
0.0170761
0.0166876
0.0163522
0.0730691
0.0510046
0.0367813
0.0336758
0.0329001
0.0314156
0.0299409
0.0289073
0.0281527
0.0275168
0.0269568
0.0264647
0.0260306
0.0256429
0.0252926
0.0249732
0.0246796
0.0244079
0.0241547
0.0239172
0.0236931
0.0234803
0.0232771
0.0230819
0.0228932
0.0227097
0.0225301
0.0223534
0.0221781
0.0220033
0.0218275
0.0216496
0.0214681
0.0212816
0.0210885
0.0208873
0.0206759
0.0204526
0.0202149
0.0199613
0.019688
0.0193948
0.0190757
0.018733
0.0183599
0.0179624
0.0175452
0.0171187
0.0167421
0.0164189
0.0709524
0.0510376
0.037275
0.0338503
0.033002
0.0315409
0.0300469
0.0289842
0.0282148
0.0275715
0.0270049
0.0265068
0.0260676
0.0256759
0.0253222
0.0249999
0.0247037
0.0244296
0.0241742
0.0239348
0.0237088
0.0234944
0.0232895
0.0230927
0.0229025
0.0227176
0.0225366
0.0223584
0.0221819
0.0220056
0.0218286
0.0216494
0.0214667
0.021279
0.0210849
0.0208826
0.0206704
0.0204466
0.0202086
0.0199551
0.0196826
0.0193905
0.0190741
0.0187347
0.018368
0.017978
0.017573
0.0171616
0.0167957
0.0164825
0.0689158
0.0509956
0.0377404
0.0340244
0.0330947
0.0316605
0.0301533
0.029062
0.0282771
0.0276263
0.0270534
0.0265493
0.0261052
0.0257094
0.0253523
0.0250269
0.0247281
0.0244516
0.0241941
0.0239527
0.0237249
0.0235087
0.0233022
0.0231038
0.0229121
0.0227257
0.0225433
0.0223637
0.0221857
0.0220082
0.0218298
0.0216493
0.0214654
0.0212766
0.0210814
0.0208782
0.0206652
0.0204408
0.0202026
0.0199493
0.0196776
0.0193869
0.0190733
0.0187374
0.018377
0.017995
0.0176015
0.0172046
0.0168486
0.0165435
0.0669598
0.0508822
0.0381746
0.0341987
0.0331785
0.0317736
0.0302596
0.0291406
0.0283394
0.0276812
0.0271022
0.0265923
0.0261431
0.0257433
0.0253827
0.0250544
0.0247529
0.024474
0.0242143
0.0239709
0.0237413
0.0235233
0.0233151
0.0231151
0.0229219
0.022734
0.0225501
0.0223692
0.0221898
0.0220109
0.0218312
0.0216495
0.0214643
0.0212744
0.0210781
0.020874
0.0206603
0.0204354
0.0201971
0.019944
0.0196732
0.019384
0.0190733
0.0187412
0.0183871
0.0180134
0.0176308
0.0172476
0.0169009
0.0166028
0.0650844
0.0507012
0.038575
0.0343734
0.0332541
0.0318793
0.0303651
0.0292201
0.0284018
0.0277361
0.0271513
0.0266357
0.0261815
0.0257775
0.0254136
0.0250822
0.024778
0.0244968
0.0242349
0.0239894
0.0237579
0.0235382
0.0233283
0.0231267
0.0229319
0.0227425
0.0225572
0.0223748
0.0221941
0.0220139
0.0218328
0.0216498
0.0214635
0.0212724
0.0210751
0.0208701
0.0206558
0.0204304
0.0201921
0.0199393
0.0196696
0.019382
0.0190743
0.0187463
0.0183985
0.018033
0.0176608
0.0172906
0.0169529
0.0166607
0.063289
0.050457
0.0389391
0.0345483
0.0333222
0.0319768
0.0304693
0.0293002
0.0284642
0.0277908
0.0272006
0.0266794
0.0262203
0.0258122
0.0254448
0.0251104
0.0248036
0.0245199
0.0242558
0.0240083
0.0237748
0.0235533
0.0233418
0.0231386
0.0229422
0.0227513
0.0225645
0.0223807
0.0221986
0.022017
0.0218347
0.0216504
0.0214628
0.0212707
0.0210724
0.0208666
0.0206516
0.0204259
0.0201876
0.0199352
0.0196667
0.0193809
0.0190763
0.0187526
0.018411
0.0180538
0.0176917
0.0173336
0.0170046
0.0167179
0.0615729
0.0501543
0.0392646
0.034723
0.0333837
0.0320658
0.0305712
0.0293809
0.0285266
0.0278453
0.02725
0.0267234
0.0262593
0.0258472
0.0254763
0.0251389
0.0248294
0.0245433
0.024277
0.0240274
0.0237921
0.0235687
0.0233555
0.0231507
0.0229527
0.0227603
0.0225721
0.0223868
0.0222033
0.0220203
0.0218367
0.0216512
0.0214625
0.0212692
0.02107
0.0208634
0.0206478
0.0204219
0.0201836
0.0199318
0.0196645
0.0193808
0.0190793
0.0187601
0.0184247
0.0180759
0.0177235
0.0173767
0.0170561
0.0167745
0.0599348
0.0497982
0.0395496
0.0348965
0.0334394
0.0321458
0.0306701
0.0294619
0.028589
0.0278995
0.0272994
0.0267677
0.0262988
0.0258825
0.0255082
0.0251678
0.0248556
0.024567
0.0242985
0.0240469
0.0238096
0.0235845
0.0233695
0.023163
0.0229635
0.0227695
0.0225798
0.0223931
0.0222082
0.0220239
0.021839
0.0216523
0.0214624
0.0212681
0.0210679
0.0208606
0.0206445
0.0204183
0.0201803
0.0199292
0.0196633
0.0193816
0.0190835
0.0187688
0.0184397
0.0180991
0.0177561
0.0174199
0.0171076
0.016831
0.0583732
0.049394
0.0397924
0.0350675
0.0334903
0.0322166
0.0307652
0.0295429
0.0286514
0.0279532
0.0273486
0.0268122
0.0263384
0.025918
0.0255403
0.025197
0.0248821
0.0245911
0.0243203
0.0240666
0.0238274
0.0236004
0.0233838
0.0231756
0.0229745
0.022779
0.0225878
0.0223997
0.0222134
0.0220278
0.0218416
0.0216536
0.0214626
0.0212673
0.0210663
0.0208582
0.0206417
0.0204154
0.0201776
0.0199273
0.0196629
0.0193835
0.0190888
0.0187788
0.018456
0.0181234
0.0177895
0.0174633
0.0171591
0.0168875
0.0568861
0.0489471
0.0399917
0.0352344
0.0335374
0.0322782
0.0308554
0.0296235
0.0287138
0.0280065
0.0273976
0.0268567
0.0263783
0.0259539
0.0255728
0.0252265
0.0249089
0.0246154
0.0243424
0.0240867
0.0238455
0.0236167
0.0233983
0.0231885
0.0229858
0.0227888
0.0225961
0.0224065
0.0222188
0.0220319
0.0218444
0.0216552
0.0214631
0.0212668
0.021065
0.0208563
0.0206394
0.020413
0.0201757
0.0199262
0.0196634
0.0193865
0.0190952
0.0187901
0.0184735
0.0181488
0.0178238
0.017507
0.0172107
0.016944
0.0554713
0.0484631
0.0401468
0.0353951
0.0335815
0.0323309
0.0309401
0.0297032
0.0287761
0.0280593
0.0274461
0.0269013
0.0264184
0.0259899
0.0256054
0.0252562
0.024936
0.0246401
0.0243648
0.024107
0.0238639
0.0236333
0.0234131
0.0232016
0.0229973
0.0227988
0.0226046
0.0224136
0.0222245
0.0220362
0.0218475
0.0216571
0.021464
0.0212667
0.0210641
0.0208548
0.0206377
0.0204113
0.0201744
0.0199259
0.0196648
0.0193905
0.0191029
0.0188026
0.0184923
0.0181754
0.0178589
0.0175511
0.0172624
0.0170008
0.0541265
0.0479477
0.0402572
0.0355475
0.0336235
0.032375
0.0310185
0.0297815
0.0288383
0.0281114
0.0274941
0.0269457
0.0264586
0.0260261
0.0256383
0.0252861
0.0249633
0.024665
0.0243875
0.0241276
0.0238826
0.0236501
0.0234282
0.023215
0.0230091
0.022809
0.0226134
0.0224209
0.0222305
0.0220409
0.0218509
0.0216594
0.0214652
0.021267
0.0210636
0.0208539
0.0206365
0.0204102
0.0201739
0.0199265
0.0196672
0.0193956
0.0191117
0.0188164
0.0185123
0.0182029
0.0178948
0.0175956
0.0173143
0.0170579
0.052849
0.0474065
0.0403231
0.0356891
0.033664
0.032411
0.0310898
0.0298578
0.0289001
0.0281629
0.0275415
0.0269898
0.0264988
0.0260625
0.0256713
0.0253163
0.0249908
0.0246902
0.0244104
0.0241485
0.0239015
0.0236672
0.0234435
0.0232287
0.0230212
0.0228195
0.0226224
0.0224285
0.0222367
0.0220458
0.0218546
0.021662
0.0214667
0.0212677
0.0210637
0.0208535
0.0206359
0.0204098
0.0201742
0.019928
0.0196707
0.0194018
0.0191218
0.0188315
0.0185335
0.0182316
0.0179316
0.0176406
0.0173665
0.0171154
0.0516359
0.0468448
0.0403451
0.0358172
0.0337033
0.0324397
0.0311536
0.0299313
0.0289615
0.0282138
0.0275881
0.0270336
0.0265389
0.0260989
0.0257044
0.0253466
0.0250186
0.0247155
0.0244336
0.0241696
0.0239207
0.0236845
0.0234591
0.0232426
0.0230335
0.0228303
0.0226317
0.0224364
0.0222433
0.0220511
0.0218587
0.021665
0.0214687
0.0212689
0.0210642
0.0208536
0.0206359
0.0204102
0.0201753
0.0199305
0.0196752
0.0194092
0.0191331
0.0188478
0.018556
0.0182613
0.0179692
0.0176861
0.017419
0.0171732
0.0504843
0.0462676
0.0403243
0.0359296
0.0337415
0.0324617
0.0312095
0.0300015
0.0290221
0.0282639
0.0276339
0.0270768
0.0265789
0.0261353
0.0257376
0.025377
0.0250465
0.0247411
0.024457
0.0241909
0.0239401
0.0237021
0.023475
0.0232568
0.0230461
0.0228414
0.0226413
0.0224446
0.0222501
0.0220567
0.0218631
0.0216683
0.0214711
0.0212705
0.0210653
0.0208543
0.0206367
0.0204113
0.0201772
0.0199339
0.0196808
0.0194178
0.0191456
0.0188654
0.0185797
0.0182921
0.0180076
0.0177322
0.0174719
0.0172315
0.0493912
0.0456797
0.0402623
0.0360241
0.0337782
0.0324778
0.0312572
0.0300675
0.0290816
0.0283133
0.0276787
0.0271194
0.0266187
0.0261716
0.0257709
0.0254075
0.0250746
0.0247669
0.0244806
0.0242125
0.0239598
0.02372
0.0234911
0.0232713
0.023059
0.0228527
0.0226512
0.0224531
0.0222573
0.0220626
0.0218679
0.021672
0.021474
0.0212726
0.0210669
0.0208557
0.0206381
0.0204132
0.0201801
0.0199383
0.0196875
0.0194276
0.0191594
0.0188842
0.0186046
0.0183239
0.0180468
0.0177788
0.0175252
0.0172902
0.0483535
0.0450854
0.0401613
0.0360988
0.0338128
0.0324887
0.0312967
0.0301287
0.0291397
0.0283619
0.0277225
0.0271612
0.026658
0.0262079
0.0258041
0.0254381
0.0251027
0.0247928
0.0245044
0.0242343
0.0239797
0.0237381
0.0235075
0.023286
0.0230722
0.0228644
0.0226614
0.0224619
0.0222648
0.0220689
0.0218731
0.0216762
0.0214773
0.0212753
0.0210691
0.0208577
0.0206403
0.0204159
0.0201839
0.0199438
0.0196953
0.0194386
0.0191745
0.0189043
0.0186306
0.0183567
0.0180869
0.017826
0.017579
0.0173495
0.0473681
0.0444885
0.0400239
0.0361522
0.0338443
0.032495
0.0313282
0.0301845
0.0291958
0.0284095
0.0277652
0.0272021
0.0266969
0.0262439
0.0258372
0.0254686
0.0251309
0.0248188
0.0245284
0.0242563
0.0239997
0.0237564
0.0235241
0.023301
0.0230856
0.0228763
0.0226719
0.0224711
0.0222727
0.0220755
0.0218786
0.0216808
0.0214811
0.0212785
0.0210719
0.0208604
0.0206432
0.0204195
0.0201887
0.0199503
0.0197043
0.0194508
0.0191908
0.0189257
0.0186579
0.0183906
0.0181278
0.0178739
0.0176333
0.0174092
0.046432
0.0438923
0.0398528
0.0361831
0.0338714
0.0324974
0.031352
0.0302342
0.0292495
0.028456
0.0278067
0.0272419
0.0267351
0.0262796
0.0258701
0.025499
0.0251591
0.0248449
0.0245524
0.0242784
0.02402
0.0237749
0.0235409
0.0233162
0.0230993
0.0228885
0.0226827
0.0224805
0.0222809
0.0220826
0.0218846
0.0216859
0.0214855
0.0212823
0.0210754
0.0208639
0.020647
0.020424
0.0201945
0.0199579
0.0197144
0.0194643
0.0192084
0.0189483
0.0186864
0.0184255
0.0181695
0.0179224
0.017688
0.0174694
0.0455423
0.0432998
0.0396512
0.0361905
0.0338928
0.032496
0.0313683
0.0302775
0.0293002
0.0285012
0.027847
0.0272805
0.0267725
0.0263149
0.0259028
0.0255293
0.0251873
0.024871
0.0245766
0.0243006
0.0240405
0.0237936
0.023558
0.0233317
0.0231132
0.022901
0.0226938
0.0224903
0.0222894
0.0220901
0.0218911
0.0216915
0.0214904
0.0212866
0.0210795
0.0208681
0.0206516
0.0204295
0.0202013
0.0199667
0.0197258
0.019479
0.0192273
0.0189722
0.018716
0.0184614
0.0182121
0.0179715
0.0177433
0.0175301
0.044696
0.0427133
0.0394224
0.0361742
0.0339069
0.0324913
0.0313777
0.030314
0.0293473
0.0285449
0.027886
0.0273179
0.026809
0.0263496
0.0259352
0.0255595
0.0252153
0.0248971
0.0246008
0.024323
0.0240611
0.0238125
0.0235752
0.0233474
0.0231274
0.0229138
0.0227052
0.0225005
0.0222984
0.0220979
0.021898
0.0216976
0.0214958
0.0212917
0.0210843
0.020873
0.0206571
0.0204359
0.0202091
0.0199765
0.0197383
0.019495
0.0192475
0.0189973
0.0187467
0.0184984
0.0182554
0.0180213
0.0177991
0.0175914
0.0438904
0.0421351
0.0391697
0.036134
0.0339124
0.032483
0.0313806
0.0303436
0.0293903
0.0285866
0.0279236
0.0273539
0.0268444
0.0263837
0.0259672
0.0255893
0.0252432
0.0249231
0.024625
0.0243454
0.0240818
0.0238316
0.0235927
0.0233634
0.0231419
0.0229269
0.022717
0.022511
0.0223078
0.0221063
0.0219054
0.0217043
0.0215019
0.0212974
0.0210899
0.0208788
0.0206635
0.0204433
0.020218
0.0199876
0.0197521
0.0195122
0.0192689
0.0190237
0.0187786
0.0185363
0.0182996
0.0180717
0.0178554
0.0176531
0.043123
0.0415665
0.0388965
0.0360703
0.0339078
0.032471
0.0313776
0.0303661
0.0294287
0.0286261
0.0279597
0.0273884
0.0268786
0.0264169
0.0259987
0.0256188
0.0252708
0.024949
0.0246491
0.0243679
0.0241026
0.0238508
0.0236104
0.0233795
0.0231566
0.0229402
0.0227291
0.0225219
0.0223175
0.022115
0.0219133
0.0217114
0.0215085
0.0213037
0.0210963
0.0208855
0.0206708
0.0204517
0.0202281
0.0199998
0.0197672
0.0195308
0.0192916
0.0190513
0.0188117
0.0185752
0.0183446
0.0181228
0.0179123
0.0177152
0.0423911
0.0410091
0.0386059
0.0359838
0.0338917
0.0324549
0.031369
0.0303816
0.029462
0.0286629
0.0279941
0.0274213
0.0269114
0.0264492
0.0260296
0.025648
0.0252982
0.0249747
0.0246732
0.0243904
0.0241235
0.0238701
0.0236282
0.0233959
0.0231716
0.0229539
0.0227415
0.0225331
0.0223277
0.0221243
0.0219217
0.0217192
0.0215159
0.0213108
0.0211034
0.020893
0.0206791
0.0204612
0.0202393
0.0200132
0.0197834
0.0195506
0.0193156
0.01908
0.0188458
0.0186151
0.0183904
0.0181744
0.0179696
0.0177778
0.0416927
0.0404636
0.0383009
0.0358756
0.0338632
0.0324341
0.0313552
0.0303903
0.0294898
0.0286967
0.0280266
0.0274526
0.0269428
0.0264804
0.0260598
0.0256766
0.0253252
0.0250002
0.0246972
0.0244128
0.0241443
0.0238895
0.0236461
0.0234124
0.0231868
0.0229678
0.0227542
0.0225447
0.0223383
0.022134
0.0219307
0.0217276
0.0215238
0.0213187
0.0211114
0.0209015
0.0206883
0.0204718
0.0202516
0.0200279
0.019801
0.0195716
0.0193408
0.01911
0.018881
0.0186558
0.018437
0.0182267
0.0180274
0.0178408
0.0410253
0.0399308
0.0379844
0.0357469
0.0338215
0.0324079
0.0313364
0.0303923
0.0295119
0.0287269
0.028057
0.0274822
0.0269725
0.0265104
0.0260891
0.0257046
0.0253518
0.0250254
0.0247209
0.0244351
0.0241652
0.023909
0.0236642
0.0234292
0.0232023
0.0229821
0.0227673
0.0225567
0.0223494
0.0221442
0.0219402
0.0217366
0.0215325
0.0213273
0.0211202
0.0209108
0.0206986
0.0204834
0.0202651
0.0200437
0.0198198
0.019594
0.0193673
0.0191412
0.0189172
0.0186975
0.0184843
0.0182796
0.0180856
0.017904
0.0403872
0.039411
0.0376589
0.0355993
0.0337661
0.0323756
0.0313128
0.0303881
0.029528
0.0287533
0.028085
0.0275099
0.0270006
0.026539
0.0261175
0.025732
0.0253779
0.0250502
0.0247445
0.0244573
0.0241861
0.0239285
0.0236824
0.0234461
0.0232179
0.0229966
0.0227807
0.0225691
0.0223609
0.0221549
0.0219503
0.0217462
0.0215419
0.0213367
0.0211299
0.0209211
0.02071
0.0204962
0.0202797
0.0200608
0.0198399
0.0196176
0.019395
0.0191734
0.0189545
0.0187401
0.0185323
0.018333
0.0181442
0.0179676
0.0397763
0.0389046
0.0373268
0.0354344
0.0336967
0.0323364
0.0312843
0.0303777
0.0295381
0.0287753
0.0281104
0.0275355
0.0270269
0.0265661
0.0261447
0.0257585
0.0254034
0.0250746
0.0247677
0.0244793
0.0242068
0.0239479
0.0237006
0.0234631
0.0232338
0.0230113
0.0227944
0.0225819
0.0223728
0.0221661
0.021961
0.0217565
0.0215521
0.0213469
0.0211405
0.0209324
0.0207223
0.0205101
0.0202956
0.0200792
0.0198612
0.0196425
0.0194239
0.0192069
0.0189928
0.0187836
0.0185809
0.0183869
0.0182031
0.0180313
0.039191
0.0384116
0.0369899
0.0352539
0.0336134
0.0322896
0.0312508
0.0303614
0.029542
0.0287928
0.0281327
0.027559
0.0270513
0.0265916
0.0261706
0.0257841
0.0254282
0.0250984
0.0247905
0.0245011
0.0242275
0.0239674
0.0237189
0.0234803
0.0232499
0.0230264
0.0228085
0.0225951
0.0223852
0.0221779
0.0219723
0.0217675
0.021563
0.021358
0.021152
0.0209447
0.0207358
0.0205251
0.0203127
0.0200987
0.0198838
0.0196686
0.019454
0.0192414
0.0190321
0.0188278
0.0186303
0.0184412
0.0182624
0.0180952
0.0386296
0.0379319
0.0366503
0.0350595
0.0335164
0.0322346
0.031212
0.0303395
0.02954
0.0288053
0.0281518
0.02758
0.0270736
0.0266153
0.0261952
0.0258087
0.0254523
0.0251217
0.0248129
0.0245225
0.0242479
0.0239868
0.0237372
0.0234975
0.0232661
0.0230416
0.0228229
0.0226087
0.0223981
0.0221902
0.0219842
0.0217792
0.0215746
0.0213699
0.0211645
0.0209581
0.0207504
0.0205413
0.0203309
0.0201195
0.0199076
0.0196959
0.0194853
0.0192769
0.0190723
0.0188728
0.0186802
0.018496
0.0183218
0.0181591
0.0380908
0.0374655
0.0363093
0.0348532
0.0334062
0.0321708
0.0311678
0.0303121
0.0295319
0.0288127
0.0281672
0.0275986
0.0270939
0.0266371
0.0262182
0.0258321
0.0254754
0.0251443
0.0248348
0.0245436
0.0242681
0.024006
0.0237555
0.0235149
0.0232825
0.0230572
0.0228376
0.0226227
0.0224115
0.0222031
0.0219967
0.0217916
0.0215871
0.0213827
0.0211779
0.0209724
0.020766
0.0205587
0.0203504
0.0201416
0.0199327
0.0197244
0.0195177
0.0193136
0.0191134
0.0189186
0.0187307
0.0185511
0.0183815
0.018223
0.0375731
0.037012
0.0359684
0.0346364
0.0332834
0.0320981
0.0311177
0.0302793
0.029518
0.0288149
0.0281788
0.0276143
0.0271118
0.026657
0.0262396
0.0258543
0.0254976
0.0251661
0.0248561
0.0245643
0.024288
0.0240251
0.0237738
0.0235323
0.0232991
0.0230729
0.0228526
0.022637
0.0224253
0.0222165
0.0220099
0.0218047
0.0216004
0.0213964
0.0211923
0.0209878
0.0207828
0.0205772
0.0203711
0.0201649
0.019959
0.0197541
0.0195512
0.0193512
0.0191554
0.0189651
0.0187817
0.0186066
0.0184412
0.0182867
0.0370753
0.0365713
0.0356286
0.0344109
0.0331488
0.0320162
0.0310615
0.0302412
0.0294984
0.0288117
0.0281862
0.0276269
0.0271273
0.0266748
0.0262592
0.025875
0.0255187
0.0251871
0.0248767
0.0245844
0.0243076
0.024044
0.0237919
0.0235496
0.0233157
0.0230889
0.0228679
0.0226518
0.0224396
0.0222305
0.0220237
0.0218186
0.0216145
0.021411
0.0212077
0.0210043
0.0208007
0.0205969
0.020393
0.0201894
0.0199865
0.019785
0.0195858
0.0193898
0.0191982
0.0190122
0.0188331
0.0186623
0.0185009
0.0183503
0.0365963
0.0361431
0.0352909
0.0341781
0.0330034
0.031925
0.030999
0.0301976
0.0294733
0.0288032
0.0281892
0.0276363
0.0271402
0.0266904
0.026277
0.0258942
0.0255386
0.0252071
0.0248966
0.024604
0.0243267
0.0240626
0.0238099
0.023567
0.0233325
0.023105
0.0228835
0.0226669
0.0224544
0.022245
0.0220382
0.0218332
0.0216294
0.0214265
0.021224
0.0210218
0.0208197
0.0206178
0.0204161
0.0202151
0.0200152
0.019817
0.0196214
0.0194293
0.0192417
0.0190599
0.018885
0.0187182
0.0185606
0.0184135
0.036135
0.035727
0.0349561
0.0339394
0.0328479
0.0318248
0.0309298
0.0301486
0.0294426
0.0287892
0.0281876
0.0276422
0.0271504
0.0267036
0.0262927
0.0259117
0.0255571
0.0252261
0.0249157
0.024623
0.0243454
0.024081
0.0238278
0.0235843
0.0233493
0.0231213
0.0228994
0.0226824
0.0224696
0.0222602
0.0220533
0.0218485
0.0216452
0.0214429
0.0212414
0.0210404
0.0208399
0.0206398
0.0204404
0.020242
0.020045
0.0198501
0.019658
0.0194697
0.019286
0.0191082
0.0189372
0.0187742
0.0186203
0.0184764
0.0356904
0.0353227
0.0346248
0.0336961
0.0326836
0.0317157
0.0308538
0.0300941
0.0294066
0.02877
0.0281814
0.0276444
0.0271577
0.0267144
0.0263063
0.0259274
0.0255742
0.025244
0.0249339
0.0246413
0.0243636
0.0240989
0.0238454
0.0236016
0.0233661
0.0231378
0.0229155
0.0226983
0.0224854
0.0222758
0.0220691
0.0218646
0.0216618
0.0214603
0.0212598
0.0210601
0.0208612
0.020663
0.0204659
0.0202701
0.020076
0.0198843
0.0196956
0.0195109
0.019331
0.0191569
0.0189897
0.0188303
0.0186797
0.0185389
0.0352615
0.0349298
0.0342976
0.0334493
0.0325112
0.0315982
0.0307709
0.0300341
0.0293652
0.0287455
0.0281705
0.0276427
0.0271619
0.0267226
0.0263177
0.0259413
0.0255898
0.0252606
0.0249511
0.0246587
0.0243812
0.0241164
0.0238627
0.0236187
0.023383
0.0231544
0.0229319
0.0227146
0.0225015
0.0222921
0.0220856
0.0218815
0.0216793
0.0214786
0.0212792
0.0210808
0.0208836
0.0206874
0.0204925
0.0202993
0.0201081
0.0199195
0.0197342
0.0195529
0.0193766
0.0192061
0.0190424
0.0188864
0.0187389
0.0186009
0.0348477
0.0345481
0.033975
0.0332
0.0323319
0.0314728
0.0306812
0.0299683
0.0293186
0.0287158
0.0281547
0.027637
0.0271628
0.0267281
0.0263267
0.0259531
0.0256037
0.0252759
0.0249672
0.0246754
0.0243981
0.0241335
0.0238798
0.0236357
0.0233998
0.0231711
0.0229485
0.0227311
0.0225182
0.0223089
0.0221027
0.0218991
0.0216976
0.0214978
0.0212995
0.0211026
0.0209071
0.0207129
0.0205203
0.0203296
0.0201412
0.0199557
0.0197736
0.0195957
0.0194229
0.0192558
0.0190954
0.0189424
0.0187978
0.0186623
0.034448
0.0341773
0.0336573
0.0329492
0.0321466
0.0313398
0.0305848
0.0298969
0.0292667
0.028681
0.0281342
0.0276271
0.0271603
0.0267308
0.0263333
0.0259629
0.0256159
0.0252897
0.0249822
0.0246911
0.0244143
0.02415
0.0238964
0.0236524
0.0234166
0.0231879
0.0229653
0.022748
0.0225352
0.0223263
0.0221205
0.0219175
0.0217167
0.0215179
0.0213209
0.0211255
0.0209316
0.0207395
0.0205492
0.020361
0.0201754
0.0199928
0.0198139
0.0196392
0.0194696
0.0193058
0.0191484
0.0189984
0.0188564
0.0187232
0.0340618
0.0338168
0.0333447
0.0326976
0.0319562
0.0312001
0.0304819
0.0298199
0.0292097
0.0286411
0.0281088
0.027613
0.0271543
0.0267305
0.0263374
0.0259704
0.0256261
0.025302
0.0249959
0.0247058
0.0244297
0.0241659
0.0239127
0.0236689
0.0234332
0.0232047
0.0229823
0.0227652
0.0225527
0.0223441
0.0221389
0.0219366
0.0217367
0.021539
0.0213433
0.0211494
0.0209573
0.0207672
0.0205791
0.0203935
0.0202106
0.0200309
0.019855
0.0196834
0.0195169
0.0193561
0.0192016
0.0190543
0.0189147
0.0187834
0.0336885
0.0334666
0.0330376
0.0324461
0.0317616
0.0310541
0.0303726
0.0297372
0.0291475
0.0285962
0.0280787
0.0275947
0.0271446
0.0267271
0.0263388
0.0259757
0.0256344
0.0253126
0.0250082
0.0247194
0.0244442
0.0241811
0.0239285
0.0236851
0.0234497
0.0232215
0.0229994
0.0227827
0.0225706
0.0223625
0.022158
0.0219564
0.0217575
0.0215609
0.0213666
0.0211743
0.020984
0.0207959
0.0206102
0.020427
0.0202467
0.0200698
0.0198968
0.0197282
0.0195646
0.0194066
0.0192549
0.01911
0.0189725
0.0188429
0.0333273
0.0331261
0.0327361
0.0321952
0.0315635
0.0309026
0.0302574
0.029649
0.0290803
0.0285465
0.0280439
0.027572
0.0271312
0.0267206
0.0263375
0.0259786
0.0256407
0.0253215
0.0250191
0.0247318
0.0244578
0.0241956
0.0239437
0.0237009
0.0234661
0.0232383
0.0230167
0.0228004
0.0225889
0.0223815
0.0221776
0.021977
0.0217791
0.0215838
0.0213908
0.0212002
0.0210118
0.0208257
0.0206422
0.0204615
0.0202838
0.0201096
0.0199394
0.0197736
0.0196128
0.0194575
0.0193082
0.0191655
0.0190299
0.0189019
0.0329778
0.0327952
0.0324403
0.0319456
0.0313628
0.0307462
0.0301366
0.0295555
0.0290081
0.028492
0.0280045
0.027545
0.0271139
0.0267107
0.0263334
0.025979
0.0256448
0.0253286
0.0250285
0.024743
0.0244704
0.0242093
0.0239584
0.0237163
0.0234822
0.023255
0.023034
0.0228184
0.0226075
0.0224009
0.0221979
0.0219982
0.0218015
0.0216075
0.021416
0.0212271
0.0210405
0.0208566
0.0206753
0.0204969
0.0203218
0.0201502
0.0199827
0.0198196
0.0196613
0.0195085
0.0193615
0.0192209
0.019087
0.0189602
0.0326395
0.0324736
0.0321503
0.0316976
0.0311602
0.0305855
0.0300107
0.0294568
0.028931
0.0284328