/*--------------------------------*- C++ -*----------------------------------*\
  =========                 |
  \\      /  F ield         | OpenFOAM: The Open Source CFD Toolbox
   \\    /   O peration     | Website:  https://openfoam.org
    \\  /    A nd           | Version:  7
     \\/     M anipulation  |
\*---------------------------------------------------------------------------*/
FoamFile
{
    version     2.0;
    format      ascii;
    class       surfaceScalarField;
    location    "0.03";
    object      phi;
}
// * * * * * * * * * * * * * * * * * * * * * * * * * * * * * * * * * * * * * //

dimensions      [0 3 -1 0 0 0 0];

internalField   nonuniform List<scalar> 
139350
(
6.45119e-08
9.21196e-08
3.19637e-08
3.25482e-08
2.30567e-08
8.90692e-09
1.95695e-08
3.48722e-09
1.76144e-08
1.95515e-09
1.61801e-08
1.43424e-09
1.50423e-08
1.1378e-09
1.41243e-08
9.18067e-10
1.33672e-08
7.57093e-10
1.27276e-08
6.39525e-10
1.21768e-08
5.50813e-10
1.16954e-08
4.81477e-10
1.12695e-08
4.25899e-10
1.08889e-08
3.80543e-10
1.05459e-08
3.42993e-10
1.02344e-08
3.11523e-10
9.94953e-09
2.8487e-10
9.68744e-09
2.62089e-10
9.44498e-09
2.42464e-10
9.21954e-09
2.25444e-10
9.00894e-09
2.10596e-10
8.81136e-09
1.97576e-10
8.62526e-09
1.86107e-10
8.44929e-09
1.75964e-10
8.28233e-09
1.66961e-10
8.12339e-09
1.58943e-10
7.97161e-09
1.5178e-10
7.82625e-09
1.45363e-10
7.68665e-09
1.39592e-10
7.55226e-09
1.34394e-10
7.42258e-09
1.29677e-10
7.29717e-09
1.25408e-10
7.1757e-09
1.21471e-10
7.05781e-09
1.17894e-10
6.94332e-09
1.14491e-10
6.83192e-09
1.11399e-10
6.72364e-09
1.08281e-10
6.61817e-09
1.0547e-10
6.51579e-09
1.02379e-10
6.41621e-09
9.95748e-11
6.31992e-09
9.62972e-11
6.22698e-09
9.29354e-11
6.13739e-09
8.95929e-11
6.05333e-09
8.40548e-11
5.97118e-09
8.21565e-11
5.90199e-09
6.91876e-11
5.8257e-09
7.62916e-11
5.79991e-09
2.57883e-11
5.61355e-09
1.86361e-10
-2.7548e-09
8.36835e-09
1.25943e-07
1.2762e-07
9.12877e-08
6.72033e-08
7.19311e-08
2.82636e-08
6.12094e-08
1.42089e-08
5.47647e-08
8.3999e-09
5.0259e-08
5.93993e-09
4.67613e-08
4.63548e-09
4.39323e-08
3.7471e-09
4.15909e-08
3.09844e-09
3.96116e-08
2.61889e-09
3.79068e-08
2.25558e-09
3.64165e-08
1.9718e-09
3.50978e-08
1.74452e-09
3.39193e-08
1.55907e-09
3.28568e-08
1.40552e-09
3.18915e-08
1.27681e-09
3.10086e-08
1.16778e-09
3.01961e-08
1.07458e-09
2.94443e-08
9.94286e-10
2.87451e-08
9.24646e-10
2.80918e-08
8.63894e-10
2.74787e-08
8.10627e-10
2.69011e-08
7.63715e-10
2.63548e-08
7.22242e-10
2.58363e-08
6.85452e-10
2.53426e-08
6.52719e-10
2.48708e-08
6.23516e-10
2.44188e-08
5.97401e-10
2.39844e-08
5.73986e-10
2.35658e-08
5.52955e-10
2.31615e-08
5.33985e-10
2.27701e-08
5.16874e-10
2.23903e-08
5.01279e-10
2.2021e-08
4.87158e-10
2.16615e-08
4.73992e-10
2.13108e-08
4.62066e-10
2.09687e-08
4.50382e-10
2.06343e-08
4.39926e-10
2.0308e-08
4.2865e-10
1.99886e-08
4.18923e-10
1.96782e-08
4.06757e-10
1.93744e-08
3.96734e-10
1.90817e-08
3.82246e-10
1.87962e-08
3.69627e-10
1.85261e-08
3.52189e-10
1.82665e-08
3.28833e-10
1.8024e-08
3.18821e-10
1.7842e-08
2.07745e-10
1.75285e-08
4.99842e-10
-3.2894e-09
1.80631e-08
1.58752e-07
1.35272e-07
1.36525e-07
8.94302e-08
1.17488e-07
4.73014e-08
1.03303e-07
2.83937e-08
9.32981e-08
1.84046e-08
8.5984e-08
1.32539e-08
8.02595e-08
1.03601e-08
7.55877e-08
8.41889e-09
7.16859e-08
7.00025e-09
6.83659e-08
5.93881e-09
6.54941e-08
5.1274e-09
6.29754e-08
4.49055e-09
6.0741e-08
3.97894e-09
5.87396e-08
3.56043e-09
5.6932e-08
3.21312e-09
5.52874e-08
2.92143e-09
5.37812e-08
2.67393e-09
5.23938e-08
2.46206e-09
5.11087e-08
2.27931e-09
4.99127e-08
2.12064e-09
4.87945e-08
1.9821e-09
4.77446e-08
1.86052e-09
4.6755e-08
1.75338e-09
4.58186e-08
1.65861e-09
4.49296e-08
1.57451e-09
4.40826e-08
1.49968e-09
4.32732e-08
1.43293e-09
4.24973e-08
1.37327e-09
4.17515e-08
1.31984e-09
4.10325e-08
1.27192e-09
4.03377e-08
1.22882e-09
3.96645e-08
1.19002e-09
3.90109e-08
1.15489e-09
3.83749e-08
1.12317e-09
3.77549e-08
1.09395e-09
3.71494e-08
1.06758e-09
3.65576e-08
1.04223e-09
3.59778e-08
1.01969e-09
3.54106e-08
9.95828e-10
3.48537e-08
9.75825e-10
3.43103e-08
9.50229e-10
3.37753e-08
9.31639e-10
3.32581e-08
8.9949e-10
3.27467e-08
8.81025e-10
3.22636e-08
8.35257e-10
3.17824e-08
8.1009e-10
3.13448e-08
7.56385e-10
3.09472e-08
6.0536e-10
3.05517e-08
8.95375e-10
-2.79152e-09
3.00538e-08
1.75611e-07
1.31176e-07
1.65623e-07
9.94188e-08
1.52731e-07
6.01932e-08
1.40114e-07
4.10102e-08
1.29423e-07
2.90963e-08
1.20768e-07
2.19086e-08
1.13636e-07
1.74923e-08
1.0763e-07
1.44242e-08
1.02501e-07
1.21296e-08
9.80644e-08
1.03754e-08
9.41802e-08
9.01159e-09
9.07423e-08
7.92848e-09
8.76704e-08
7.0508e-09
8.4903e-08
6.32792e-09
8.23914e-08
5.72466e-09
8.00972e-08
5.21562e-09
7.79892e-08
4.78197e-09
7.60418e-08
4.40949e-09
7.42338e-08
4.08727e-09
7.25477e-08
3.8068e-09
7.09684e-08
3.56134e-09
6.94834e-08
3.34552e-09
6.80818e-08
3.15499e-09
6.67542e-08
2.9862e-09
6.54925e-08
2.83623e-09
6.42895e-08
2.70264e-09
6.31391e-08
2.58339e-09
6.20356e-08
2.47674e-09
6.09742e-08
2.38124e-09
5.99505e-08
2.29559e-09
5.89607e-08
2.21866e-09
5.80012e-08
2.1495e-09
5.7069e-08
2.08709e-09
5.61613e-08
2.03088e-09
5.52758e-08
1.97949e-09
5.44101e-08
1.93327e-09
5.35628e-08
1.88946e-09
5.27318e-08
1.85072e-09
5.19172e-08
1.81046e-09
5.11158e-08
1.7772e-09
5.03312e-08
1.73482e-09
4.95569e-08
1.70594e-09
4.88042e-08
1.65219e-09
4.80572e-08
1.62803e-09
4.73448e-08
1.54761e-09
4.66317e-08
1.52322e-09
4.59732e-08
1.41487e-09
4.53429e-08
1.23574e-09
4.47961e-08
1.44211e-09
-1.88559e-09
4.38902e-08
1.8451e-07
1.23452e-07
1.8234e-07
1.01589e-07
1.76118e-07
6.64152e-08
1.67755e-07
4.93733e-08
1.59126e-07
3.77258e-08
1.51205e-07
2.98292e-08
1.44113e-07
2.4585e-08
1.37787e-07
2.07498e-08
1.32155e-07
1.77613e-08
1.27132e-07
1.53982e-08
1.22632e-07
1.35121e-08
1.18577e-07
1.19838e-08
1.14901e-07
1.0726e-08
1.11552e-07
9.67719e-09
1.08484e-07
8.79298e-09
1.05659e-07
8.04052e-09
1.03046e-07
7.39492e-09
1.00618e-07
6.837e-09
9.83539e-08
6.35183e-09
9.62331e-08
5.92757e-09
9.42396e-08
5.5548e-09
9.23593e-08
5.22588e-09
9.05797e-08
4.93459e-09
8.889e-08
4.67581e-09
8.7281e-08
4.44532e-09
8.57441e-08
4.23954e-09
8.42719e-08
4.05551e-09
8.2858e-08
3.89068e-09
8.14963e-08
3.7429e-09
8.01817e-08
3.61026e-09
7.89092e-08
3.49111e-09
7.76747e-08
3.38402e-09
7.64742e-08
3.28753e-09
7.53044e-08
3.20074e-09
7.41621e-08
3.12179e-09
7.30444e-08
3.05095e-09
7.19493e-08
2.98452e-09
7.08741e-08
2.92596e-09
6.98183e-08
2.8662e-09
6.87785e-08
2.81708e-09
6.77576e-08
2.75568e-09
6.67488e-08
2.71472e-09
6.57632e-08
2.63786e-09
6.47847e-08
2.60649e-09
6.38411e-08
2.49123e-09
6.29007e-08
2.46359e-09
6.20111e-08
2.30449e-09
6.11552e-08
2.09167e-09
6.03922e-08
2.20511e-09
-7.61722e-10
5.92683e-08
1.90342e-07
1.15326e-07
1.91859e-07
1.00072e-07
1.90261e-07
6.80127e-08
1.86153e-07
5.34819e-08
1.80707e-07
4.3172e-08
1.74943e-07
3.55931e-08
1.69228e-07
3.02995e-08
1.6372e-07
2.6258e-08
1.58515e-07
2.29667e-08
1.53653e-07
2.02595e-08
1.49138e-07
1.80273e-08
1.44952e-07
1.61702e-08
1.41069e-07
1.46085e-08
1.37464e-07
1.32826e-08
1.34109e-07
1.2148e-08
1.30979e-07
1.11702e-08
1.28052e-07
1.03222e-08
1.25306e-07
9.58253e-09
1.22724e-07
8.93416e-09
1.20288e-07
8.36324e-09
1.17985e-07
7.85852e-09
1.158e-07
7.41076e-09
1.13722e-07
7.01231e-09
1.11741e-07
6.6568e-09
1.09847e-07
6.33892e-09
1.08033e-07
6.05414e-09
1.0629e-07
5.79869e-09
1.04611e-07
5.56927e-09
1.02991e-07
5.36311e-09
1.01423e-07
5.17772e-09
9.99035e-08
5.01098e-09
9.84265e-08
4.86098e-09
9.69882e-08
4.72585e-09
9.55846e-08
4.60433e-09
9.42123e-08
4.49408e-09
9.2868e-08
4.3953e-09
9.15491e-08
4.30339e-09
9.02526e-08
4.22245e-09
8.89776e-08
4.14125e-09
8.77203e-08
4.07433e-09
8.6483e-08
3.99301e-09
8.52594e-08
3.9383e-09
8.40583e-08
3.83901e-09
8.28672e-08
3.79759e-09
8.17063e-08
3.65211e-09
8.05572e-08
3.61267e-09
7.94455e-08
3.41615e-09
7.83815e-08
3.15567e-09
7.73929e-08
3.1937e-09
5.61189e-10
7.607e-08
1.95504e-07
1.07636e-07
1.98247e-07
9.73292e-08
1.98985e-07
6.72746e-08
1.97789e-07
5.4678e-08
1.9515e-07
4.5811e-08
1.91802e-07
3.89416e-08
1.88056e-07
3.40454e-08
1.84084e-07
3.02292e-08
1.80038e-07
2.70135e-08
1.76025e-07
2.42724e-08
1.72113e-07
2.19392e-08
1.6834e-07
1.99433e-08
1.64725e-07
1.82235e-08
1.61275e-07
1.6732e-08
1.57991e-07
1.5432e-08
1.54868e-07
1.42936e-08
1.51898e-07
1.32925e-08
1.49071e-07
1.24086e-08
1.4638e-07
1.16256e-08
1.43814e-07
1.09295e-08
1.41363e-07
1.03091e-08
1.39019e-07
9.75462e-09
1.36774e-07
9.25795e-09
1.34618e-07
8.81219e-09
1.32546e-07
8.41148e-09
1.30549e-07
8.05079e-09
1.28622e-07
7.72584e-09
1.26758e-07
7.43288e-09
1.24953e-07
7.16874e-09
1.232e-07
6.9305e-09
1.21495e-07
6.71574e-09
1.19834e-07
6.52216e-09
1.18212e-07
6.3476e-09
1.16626e-07
6.1905e-09
1.15072e-07
6.04816e-09
1.13547e-07
5.92062e-09
1.12047e-07
5.80265e-09
1.10571e-07
5.69869e-09
1.09116e-07
5.59592e-09
1.0768e-07
5.51068e-09
1.06263e-07
5.41016e-09
1.0486e-07
5.34081e-09
1.03478e-07
5.22172e-09
1.02108e-07
5.16731e-09
1.00761e-07
4.99895e-09
9.9435e-08
4.93878e-09
9.81314e-08
4.71974e-09
9.68839e-08
4.40322e-09
9.56989e-08
4.37867e-09
2.06763e-09
9.41925e-08
2.00819e-07
1.00402e-07
2.03772e-07
9.43769e-08
2.05345e-07
6.57013e-08
2.05645e-07
5.43779e-08
2.04812e-07
4.66443e-08
2.03326e-07
4.04268e-08
2.01369e-07
3.60032e-08
1.99023e-07
3.25754e-08
1.96394e-07
2.96418e-08
1.93586e-07
2.70809e-08
1.90677e-07
2.48483e-08
1.87726e-07
2.28937e-08
1.84778e-07
2.11717e-08
1.81863e-07
1.96472e-08
1.79002e-07
1.8293e-08
1.76209e-07
1.70867e-08
1.73492e-07
1.60095e-08
1.70855e-07
1.50452e-08
1.683e-07
1.41802e-08
1.65827e-07
1.34028e-08
1.63434e-07
1.27029e-08
1.61116e-07
1.20717e-08
1.58872e-07
1.15019e-08
1.56698e-07
1.09867e-08
1.54589e-07
1.05205e-08
1.52541e-07
1.00984e-08
1.50551e-07
9.71611e-09
1.48614e-07
9.36974e-09
1.46727e-07
9.05609e-09
1.44885e-07
8.77212e-09
1.43086e-07
8.5153e-09
1.41325e-07
8.28318e-09
1.39599e-07
8.07348e-09
1.37905e-07
7.88446e-09
1.3624e-07
7.71324e-09
1.34601e-07
7.55971e-09
1.32985e-07
7.41827e-09
1.3139e-07
7.29346e-09
1.29815e-07
7.17152e-09
1.28256e-07
7.06963e-09
1.26713e-07
6.95273e-09
1.25184e-07
6.86952e-09
1.23671e-07
6.73502e-09
1.22172e-07
6.66616e-09
1.20688e-07
6.48315e-09
1.1923e-07
6.39667e-09
1.17783e-07
6.16682e-09
1.1639e-07
5.79649e-09
1.15054e-07
5.71464e-09
3.71242e-09
1.13409e-07
2.06423e-07
9.35111e-08
2.09331e-07
9.14683e-08
2.11056e-07
6.39766e-08
2.11936e-07
5.34981e-08
2.11997e-07
4.6583e-08
2.11608e-07
4.08156e-08
2.10872e-07
3.67396e-08
2.0979e-07
3.36575e-08
2.084e-07
3.10316e-08
2.0676e-07
2.87207e-08
2.04925e-07
2.66832e-08
2.02943e-07
2.48757e-08
2.00856e-07
2.32593e-08
1.98697e-07
2.18056e-08
1.96496e-07
2.0494e-08
1.94275e-07
1.9308e-08
1.92051e-07
1.82336e-08
1.89837e-07
1.7259e-08
1.87643e-07
1.63739e-08
1.85477e-07
1.55693e-08
1.83342e-07
1.48374e-08
1.81243e-07
1.41711e-08
1.7918e-07
1.35643e-08
1.77156e-07
1.30113e-08
1.75169e-07
1.25073e-08
1.7322e-07
1.2048e-08
1.71306e-07
1.16294e-08
1.69428e-07
1.12481e-08
1.67583e-07
1.09011e-08
1.65769e-07
1.05856e-08
1.63986e-07
1.02992e-08
1.62229e-07
1.00395e-08
1.60498e-07
9.80434e-09
1.58791e-07
9.59198e-09
1.57105e-07
9.39951e-09
1.55437e-07
9.22682e-09
1.53788e-07
9.06813e-09
1.52153e-07
8.92799e-09
1.50532e-07
8.79225e-09
1.48924e-07
8.67811e-09
1.47327e-07
8.54999e-09
1.4574e-07
8.45607e-09
1.44163e-07
8.31219e-09
1.42599e-07
8.23005e-09
1.41042e-07
8.04065e-09
1.39511e-07
7.92718e-09
1.37983e-07
7.6948e-09
1.36498e-07
7.28132e-09
1.35067e-07
7.14578e-09
5.43274e-09
1.33347e-07
2.12269e-07
8.69045e-08
2.1514e-07
8.85971e-08
2.16811e-07
6.23059e-08
2.1785e-07
5.24585e-08
2.18257e-07
4.61761e-08
2.18371e-07
4.07015e-08
2.1829e-07
3.68205e-08
2.17982e-07
3.39657e-08
2.1744e-07
3.15739e-08
2.16682e-07
2.94789e-08
2.15731e-07
2.7634e-08
2.14612e-07
2.59948e-08
2.13349e-07
2.45218e-08
2.11967e-07
2.31874e-08
2.10489e-07
2.19725e-08
2.08934e-07
2.08632e-08
2.07319e-07
1.9848e-08
2.0566e-07
1.89177e-08
2.0397e-07
1.80644e-08
2.02258e-07
1.72812e-08
2.00533e-07
1.65623e-08
1.98802e-07
1.59021e-08
1.97071e-07
1.5296e-08
1.95342e-07
1.47397e-08
1.9362e-07
1.42292e-08
1.91907e-07
1.37609e-08
1.90205e-07
1.33318e-08
1.88514e-07
1.29388e-08
1.86836e-07
1.25794e-08
1.8517e-07
1.22512e-08
1.83517e-07
1.19523e-08
1.81876e-07
1.16804e-08
1.80247e-07
1.14336e-08
1.78629e-07
1.12104e-08
1.7702e-07
1.10081e-08
1.75421e-07
1.08265e-08
1.73829e-07
1.066e-08
1.72244e-07
1.0513e-08
1.70664e-07
1.03715e-08
1.6909e-07
1.02522e-08
1.6752e-07
1.01201e-08
1.65955e-07
1.00211e-08
1.64392e-07
9.87532e-09
1.62838e-07
9.78388e-09
1.61283e-07
9.59637e-09
1.5975e-07
9.45979e-09
1.58213e-07
9.23125e-09
1.56705e-07
8.79025e-09
1.55244e-07
8.60651e-09
7.15725e-09
1.53519e-07
2.18315e-07
8.05706e-08
2.21189e-07
8.57225e-08
2.22783e-07
6.07117e-08
2.23851e-07
5.13906e-08
2.24367e-07
4.56607e-08
2.24659e-07
4.04095e-08
2.24855e-07
3.66244e-08
2.24926e-07
3.38943e-08
2.24852e-07
3.16481e-08
2.24632e-07
2.96988e-08
2.24271e-07
2.79956e-08
2.23773e-07
2.64924e-08
2.23148e-07
2.51472e-08
2.22405e-07
2.39301e-08
2.21557e-07
2.2821e-08
2.20614e-07
2.18054e-08
2.1959e-07
2.08723e-08
2.18494e-07
2.00132e-08
2.17338e-07
1.92207e-08
2.1613e-07
1.84893e-08
2.14879e-07
1.78137e-08
2.13591e-07
1.71899e-08
2.12273e-07
1.66139e-08
2.10931e-07
1.60823e-08
2.09568e-07
1.5592e-08
2.08188e-07
1.51402e-08
2.06796e-07
1.47243e-08
2.05393e-07
1.43419e-08
2.03981e-07
1.39911e-08
2.02563e-07
1.36696e-08
2.01139e-07
1.3376e-08
1.99711e-07
1.31084e-08
1.98279e-07
1.28653e-08
1.96844e-07
1.26454e-08
1.95406e-07
1.24462e-08
1.93965e-07
1.22677e-08
1.9252e-07
1.21044e-08
1.91073e-07
1.19608e-08
1.89621e-07
1.18231e-08
1.88166e-07
1.17072e-08
1.86706e-07
1.15799e-08
1.85244e-07
1.14831e-08
1.83776e-07
1.13437e-08
1.82311e-07
1.1249e-08
1.80835e-07
1.10716e-08
1.79376e-07
1.09191e-08
1.77907e-07
1.06999e-08
1.76448e-07
1.02492e-08
1.75029e-07
1.00256e-08
8.81169e-09
1.73375e-07
2.24548e-07
7.45154e-08
2.27449e-07
8.28216e-08
2.28979e-07
5.91816e-08
2.30054e-07
5.03157e-08
2.3061e-07
4.51048e-08
2.30951e-07
4.0069e-08
2.31237e-07
3.63384e-08
2.31457e-07
3.36742e-08
2.31592e-07
3.15126e-08
2.31642e-07
2.96496e-08
2.31604e-07
2.80334e-08
2.31477e-07
2.66195e-08
2.3126e-07
2.53643e-08
2.30954e-07
2.4236e-08
2.30562e-07
2.32129e-08
2.30088e-07
2.22792e-08
2.29537e-07
2.14233e-08
2.28914e-07
2.06358e-08
2.28226e-07
1.99095e-08
2.27476e-07
1.92385e-08
2.26672e-07
1.8618e-08
2.25818e-07
1.80439e-08
2.24919e-07
1.75129e-08
2.23979e-07
1.70219e-08
2.23003e-07
1.65683e-08
2.21994e-07
1.61495e-08
2.20955e-07
1.57634e-08
2.19889e-07
1.54079e-08
2.18798e-07
1.50813e-08
2.17686e-07
1.47819e-08
2.16554e-07
1.45082e-08
2.15403e-07
1.42591e-08
2.14236e-07
1.40329e-08
2.13052e-07
1.38287e-08
2.11854e-07
1.36443e-08
2.10642e-07
1.348e-08
2.09416e-07
1.33304e-08
2.08177e-07
1.31999e-08
2.06925e-07
1.30753e-08
2.0566e-07
1.29714e-08
2.04383e-07
1.28573e-08
2.03096e-07
1.277e-08
2.01795e-07
1.2645e-08
2.0049e-07
1.25541e-08
1.99167e-07
1.2394e-08
1.97852e-07
1.22347e-08
1.96522e-07
1.20295e-08
1.95185e-07
1.15866e-08
1.93877e-07
1.13337e-08
1.03259e-08
1.92362e-07
2.30974e-07
6.87471e-08
2.3391e-07
7.98857e-08
2.35383e-07
5.77085e-08
2.36467e-07
4.92324e-08
2.37055e-07
4.45161e-08
2.37411e-07
3.97136e-08
2.37718e-07
3.60307e-08
2.37984e-07
3.34081e-08
2.38196e-07
3.13011e-08
2.38355e-07
2.94904e-08
2.38464e-07
2.79244e-08
2.38521e-07
2.65625e-08
2.38523e-07
2.53622e-08
2.38469e-07
2.42907e-08
2.38356e-07
2.33255e-08
2.38185e-07
2.24502e-08
2.37956e-07
2.16521e-08
2.3767e-07
2.09216e-08
2.37329e-07
2.02506e-08
2.36935e-07
1.96329e-08
2.36489e-07
1.90634e-08
2.35995e-07
1.85379e-08
2.35455e-07
1.80529e-08
2.34872e-07
1.76054e-08
2.34247e-07
1.71928e-08
2.33584e-07
1.68128e-08
2.32884e-07
1.64632e-08
2.3215e-07
1.6142e-08
2.31384e-07
1.58477e-08
2.30587e-07
1.55786e-08
2.29762e-07
1.53335e-08
2.2891e-07
1.51112e-08
2.28032e-07
1.49104e-08
2.27131e-07
1.47303e-08
2.26206e-07
1.45688e-08
2.2526e-07
1.44264e-08
2.24292e-07
1.4298e-08
2.23304e-07
1.41877e-08
2.22296e-07
1.40833e-08
2.2127e-07
1.39979e-08
2.20224e-07
1.39035e-08
2.19162e-07
1.38318e-08
2.1808e-07
1.37274e-08
2.16987e-07
1.36462e-08
2.15873e-07
1.35088e-08
2.14756e-07
1.33515e-08
2.13622e-07
1.31638e-08
2.12464e-07
1.27439e-08
2.11325e-07
1.24734e-08
1.16426e-08
2.10008e-07
2.37601e-07
6.32713e-08
2.40576e-07
7.69106e-08
2.41992e-07
5.62924e-08
2.43082e-07
4.81419e-08
2.43708e-07
4.38909e-08
2.44076e-07
3.93454e-08
2.44389e-07
3.57177e-08
2.44667e-07
3.31295e-08
2.44901e-07
3.1067e-08
2.45097e-07
2.92945e-08
2.45261e-07
2.77606e-08
2.45394e-07
2.64297e-08
2.45495e-07
2.52613e-08
2.45562e-07
2.42234e-08
2.45595e-07
2.32931e-08
2.45591e-07
2.24541e-08
2.45549e-07
2.16937e-08
2.45469e-07
2.10015e-08
2.4535e-07
2.03695e-08
2.45192e-07
1.9791e-08
2.44995e-07
1.92605e-08
2.44759e-07
1.87736e-08
2.44486e-07
1.83266e-08
2.44175e-07
1.79164e-08
2.43827e-07
1.75404e-08
2.43444e-07
1.7196e-08
2.43026e-07
1.68811e-08
2.42574e-07
1.65936e-08
2.4209e-07
1.63318e-08
2.41575e-07
1.60942e-08
2.41029e-07
1.58793e-08
2.40454e-07
1.56861e-08
2.39851e-07
1.55133e-08
2.39221e-07
1.53602e-08
2.38565e-07
1.52247e-08
2.37884e-07
1.51074e-08
2.37179e-07
1.50035e-08
2.3645e-07
1.49167e-08
2.35698e-07
1.48356e-08
2.34924e-07
1.47718e-08
2.34127e-07
1.47004e-08
2.33311e-07
1.46476e-08
2.32471e-07
1.4567e-08
2.31618e-07
1.44995e-08
2.3074e-07
1.43872e-08
2.29852e-07
1.42391e-08
2.28945e-07
1.40704e-08
2.28005e-07
1.36842e-08
2.27071e-07
1.34073e-08
1.27257e-08
2.25988e-07
2.44436e-07
5.80917e-08
2.47449e-07
7.3897e-08
2.4881e-07
5.49317e-08
2.49903e-07
4.70487e-08
2.50567e-07
4.32272e-08
2.50952e-07
3.89608e-08
2.51269e-07
3.54002e-08
2.51553e-07
3.28456e-08
2.51795e-07
3.08254e-08
2.52001e-07
2.9088e-08
2.52182e-07
2.75799e-08
2.52341e-07
2.62709e-08
2.52479e-07
2.51235e-08
2.52596e-07
2.41062e-08
2.52692e-07
2.3197e-08
2.52766e-07
2.23797e-08
2.52818e-07
2.16419e-08
2.52846e-07
2.09734e-08
2.5285e-07
2.03659e-08
2.52828e-07
1.98128e-08
2.5278e-07
1.93084e-08
2.52705e-07
1.88482e-08
2.52604e-07
1.84283e-08
2.52474e-07
1.80456e-08
2.52317e-07
1.76973e-08
2.52133e-07
1.73808e-08
2.5192e-07
1.70938e-08
2.51679e-07
1.68341e-08
2.51411e-07
1.66e-08
2.51116e-07
1.63896e-08
2.50794e-07
1.62015e-08
2.50445e-07
1.60346e-08
2.50071e-07
1.58874e-08
2.49672e-07
1.57594e-08
2.49248e-07
1.56484e-08
2.488e-07
1.55551e-08
2.48329e-07
1.54746e-08
2.47835e-07
1.54106e-08
2.47319e-07
1.53523e-08
2.46781e-07
1.53098e-08
2.4622e-07
1.52612e-08
2.4564e-07
1.52271e-08
2.45037e-07
1.51702e-08
2.44419e-07
1.51175e-08
2.43777e-07
1.50296e-08
2.43121e-07
1.48948e-08
2.42447e-07
1.47446e-08
2.41734e-07
1.43976e-08
2.41018e-07
1.41235e-08
1.35646e-08
2.40179e-07
2.51488e-07
5.32103e-08
2.5453e-07
7.0855e-08
2.55846e-07
5.36154e-08
2.56937e-07
4.59582e-08
2.57638e-07
4.2526e-08
2.58042e-07
3.85569e-08
2.58365e-07
3.50772e-08
2.58654e-07
3.25565e-08
2.58901e-07
3.05788e-08
2.59111e-07
2.88772e-08
2.59297e-07
2.73941e-08
2.59464e-07
2.61044e-08
2.59613e-07
2.49738e-08
2.59748e-07
2.3972e-08
2.59867e-07
2.30773e-08
2.59973e-07
2.22742e-08
2.60064e-07
2.15505e-08
2.60141e-07
2.08966e-08
2.60203e-07
2.03042e-08
2.60249e-07
1.97668e-08
2.60278e-07
1.92787e-08
2.60291e-07
1.88354e-08
2.60286e-07
1.84332e-08
2.60263e-07
1.80687e-08
2.60221e-07
1.77392e-08
2.6016e-07
1.74421e-08
2.60079e-07
1.7175e-08
2.59977e-07
1.69357e-08
2.59855e-07
1.67222e-08
2.59712e-07
1.65326e-08
2.59548e-07
1.63653e-08
2.59364e-07
1.62191e-08
2.59158e-07
1.60925e-08
2.58933e-07
1.59848e-08
2.58688e-07
1.58939e-08
2.58422e-07
1.58203e-08
2.58138e-07
1.57594e-08
2.57834e-07
1.57144e-08
2.5751e-07
1.56756e-08
2.57169e-07
1.5651e-08
2.56808e-07
1.56221e-08
2.56432e-07
1.5604e-08
2.56034e-07
1.55676e-08
2.55623e-07
1.55283e-08
2.55192e-07
1.54613e-08
2.54745e-07
1.5341e-08
2.54283e-07
1.52066e-08
2.53781e-07
1.48998e-08
2.5327e-07
1.46345e-08
1.41741e-08
2.52661e-07
2.58766e-07
4.86275e-08
2.61826e-07
6.77953e-08
2.63108e-07
5.23325e-08
2.64191e-07
4.48753e-08
2.64928e-07
4.17894e-08
2.65353e-07
3.81319e-08
2.65683e-07
3.47475e-08
2.65977e-07
3.22619e-08
2.66229e-07
3.0327e-08
2.66443e-07
2.86628e-08
2.66632e-07
2.72056e-08
2.66801e-07
2.59352e-08
2.66954e-07
2.48207e-08
2.67093e-07
2.38327e-08
2.67221e-07
2.29502e-08
2.67337e-07
2.21582e-08
2.67442e-07
2.1445e-08
2.67537e-07
2.08012e-08
2.67623e-07
2.0219e-08
2.67698e-07
1.96918e-08
2.67762e-07
1.92141e-08
2.67816e-07
1.87816e-08
2.67859e-07
1.83905e-08
2.6789e-07
1.80377e-08
2.67909e-07
1.77204e-08
2.67915e-07
1.7436e-08
2.67907e-07
1.71823e-08
2.67886e-07
1.69568e-08
2.67851e-07
1.67575e-08
2.67801e-07
1.65824e-08
2.67737e-07
1.64298e-08
2.67658e-07
1.62984e-08
2.67563e-07
1.61865e-08
2.67455e-07
1.60936e-08
2.67331e-07
1.60173e-08
2.67193e-07
1.59581e-08
2.67041e-07
1.59118e-08
2.66875e-07
1.58808e-08
2.66694e-07
1.58565e-08
2.665e-07
1.58451e-08
2.6629e-07
1.58311e-08
2.6607e-07
1.58248e-08
2.65833e-07
1.58042e-08
2.65586e-07
1.57752e-08
2.65324e-07
1.57239e-08
2.65048e-07
1.5617e-08
2.6476e-07
1.54946e-08
2.64435e-07
1.5225e-08
2.64097e-07
1.49718e-08
1.45883e-08
2.63683e-07
2.66278e-07
4.43419e-08
2.69345e-07
6.47285e-08
2.70605e-07
5.10724e-08
2.71676e-07
4.38044e-08
2.72445e-07
4.10206e-08
2.72892e-07
3.76841e-08
2.73229e-07
3.44103e-08
2.7353e-07
3.19617e-08
2.73787e-07
3.00695e-08
2.74006e-07
2.84444e-08
2.74196e-07
2.70147e-08
2.74368e-07
2.57642e-08
2.74522e-07
2.46659e-08
2.74663e-07
2.36917e-08
2.74793e-07
2.2821e-08
2.74912e-07
2.20392e-08
2.75021e-07
2.13352e-08
2.75123e-07
2.07e-08
2.75216e-07
2.01258e-08
2.75301e-07
1.96063e-08
2.75379e-07
1.91363e-08
2.75449e-07
1.87114e-08
2.75512e-07
1.8328e-08
2.75566e-07
1.7983e-08
2.75613e-07
1.76738e-08
2.75651e-07
1.7398e-08
2.7568e-07
1.71531e-08
2.757e-07
1.69369e-08
2.7571e-07
1.67472e-08
2.75711e-07
1.65819e-08
2.75701e-07
1.64393e-08
2.75682e-07
1.63178e-08
2.75652e-07
1.62159e-08
2.75613e-07
1.61328e-08
2.75564e-07
1.60664e-08
2.75505e-07
1.60168e-08
2.75437e-07
1.59802e-08
2.7536e-07
1.59583e-08
2.75272e-07
1.59437e-08
2.75177e-07
1.59407e-08
2.75071e-07
1.59367e-08
2.74958e-07
1.59377e-08
2.74835e-07
1.59276e-08
2.74705e-07
1.59053e-08
2.74565e-07
1.58642e-08
2.74413e-07
1.57681e-08
2.74254e-07
1.56539e-08
2.74063e-07
1.54162e-08
2.73858e-07
1.51764e-08
1.48512e-08
2.73595e-07
2.74033e-07
4.03505e-08
2.77096e-07
6.16654e-08
2.78343e-07
4.98247e-08
2.79399e-07
4.27491e-08
2.80196e-07
4.02234e-08
2.80668e-07
3.72119e-08
2.81013e-07
3.4065e-08
2.81319e-07
3.16559e-08
2.81583e-07
2.98062e-08
2.81805e-07
2.82216e-08
2.81999e-07
2.68209e-08
2.82172e-07
2.55911e-08
2.82328e-07
2.45096e-08
2.82471e-07
2.35496e-08
2.82601e-07
2.26908e-08
2.82721e-07
2.19194e-08
2.82831e-07
2.12244e-08
2.82934e-07
2.05973e-08
2.83029e-07
2.00305e-08
2.83118e-07
1.9518e-08
2.832e-07
1.90545e-08
2.83275e-07
1.86359e-08
2.83345e-07
1.82586e-08
2.83408e-07
1.79197e-08
2.83465e-07
1.76167e-08
2.83516e-07
1.73472e-08
2.8356e-07
1.71088e-08
2.83598e-07
1.68993e-08
2.83629e-07
1.67164e-08
2.83653e-07
1.6558e-08
2.8367e-07
1.64222e-08
2.8368e-07
1.63075e-08
2.83683e-07
1.62123e-08
2.83681e-07
1.61356e-08
2.83672e-07
1.60755e-08
2.83657e-07
1.60319e-08
2.83636e-07
1.60012e-08
2.83609e-07
1.59847e-08
2.83577e-07
1.59758e-08
2.8354e-07
1.59774e-08
2.83498e-07
1.59792e-08
2.83452e-07
1.59838e-08
2.834e-07
1.59796e-08
2.83344e-07
1.59607e-08
2.83284e-07
1.5925e-08
2.83215e-07
1.5837e-08
2.83141e-07
1.57276e-08
2.83041e-07
1.55161e-08
2.82928e-07
1.52897e-08
1.5008e-08
2.82771e-07
2.82039e-07
3.66485e-08
2.85088e-07
5.8617e-08
2.86333e-07
4.858e-08
2.87369e-07
4.17122e-08
2.88191e-07
3.94021e-08
2.88688e-07
3.67141e-08
2.89043e-07
3.37102e-08
2.89354e-07
3.13448e-08
2.89624e-07
2.95368e-08
2.89851e-07
2.79941e-08
2.90048e-07
2.66239e-08
2.90223e-07
2.54159e-08
2.90381e-07
2.43517e-08
2.90525e-07
2.34063e-08
2.90656e-07
2.25599e-08
2.90776e-07
2.1799e-08
2.90887e-07
2.11133e-08
2.9099e-07
2.04943e-08
2.91086e-07
1.99349e-08
2.91174e-07
1.94292e-08
2.91257e-07
1.8972e-08
2.91334e-07
1.85592e-08
2.91405e-07
1.81875e-08
2.9147e-07
1.78541e-08
2.9153e-07
1.75565e-08
2.91585e-07
1.72924e-08
2.91634e-07
1.70595e-08
2.91678e-07
1.68555e-08
2.91717e-07
1.6678e-08
2.9175e-07
1.6525e-08
2.91777e-07
1.63945e-08
2.918e-07
1.62848e-08
2.91818e-07
1.61943e-08
2.91831e-07
1.61221e-08
2.91841e-07
1.6066e-08
2.91847e-07
1.60261e-08
2.91849e-07
1.5999e-08
2.91848e-07
1.59853e-08
2.91845e-07
1.59796e-08
2.91839e-07
1.5983e-08
2.9183e-07
1.59876e-08
2.91821e-07
1.59932e-08
2.91809e-07
1.59916e-08
2.91796e-07
1.59738e-08
2.91781e-07
1.59401e-08
2.9176e-07
1.58577e-08
2.91737e-07
1.5751e-08
2.91693e-07
1.55603e-08
2.91636e-07
1.53467e-08
1.50972e-08
2.91546e-07
2.90308e-07
3.32296e-08
2.9333e-07
5.55946e-08
2.94581e-07
4.73293e-08
2.95597e-07
4.06959e-08
2.96438e-07
3.85617e-08
2.96962e-07
3.61897e-08
2.97327e-07
3.33447e-08
2.97644e-07
3.10282e-08
2.97919e-07
2.92614e-08
2.98152e-07
2.77615e-08
2.98352e-07
2.64236e-08
2.9853e-07
2.52383e-08
2.9869e-07
2.4192e-08
2.98834e-07
2.32616e-08
2.98966e-07
2.2428e-08
2.99087e-07
2.1678e-08
2.99199e-07
2.10018e-08
2.99302e-07
2.03912e-08
2.99397e-07
1.98394e-08
2.99486e-07
1.93406e-08
2.99568e-07
1.88897e-08
2.99644e-07
1.84828e-08
2.99715e-07
1.81167e-08
2.99781e-07
1.77886e-08
2.99841e-07
1.74962e-08
2.99896e-07
1.72373e-08
2.99946e-07
1.70095e-08
2.99991e-07
1.68105e-08
3.00031e-07
1.6638e-08
3.00066e-07
1.64898e-08
3.00097e-07
1.63638e-08
3.00124e-07
1.62583e-08
3.00146e-07
1.61716e-08
3.00166e-07
1.61027e-08
3.00182e-07
1.60497e-08
3.00196e-07
1.60123e-08
3.00207e-07
1.59874e-08
3.00218e-07
1.59752e-08
3.00226e-07
1.59709e-08
3.00234e-07
1.59748e-08
3.00242e-07
1.59804e-08
3.00249e-07
1.59855e-08
3.00257e-07
1.59842e-08
3.00264e-07
1.59662e-08
3.00272e-07
1.59323e-08
3.00276e-07
1.5854e-08
3.00278e-07
1.57489e-08
3.00263e-07
1.55747e-08
3.00237e-07
1.53734e-08
1.5148e-08
3.00186e-07
2.98847e-07
3.00854e-08
3.01832e-07
5.26093e-08
3.03096e-07
4.6065e-08
3.04091e-07
3.97014e-08
3.04945e-07
3.77075e-08
3.05497e-07
3.5638e-08
3.05874e-07
3.29672e-08
3.06196e-07
3.07062e-08
3.06478e-07
2.898e-08
3.06716e-07
2.75234e-08
3.0692e-07
2.62195e-08
3.071e-07
2.50581e-08
3.07262e-07
2.40303e-08
3.07408e-07
2.31155e-08
3.07541e-07
2.22951e-08
3.07663e-07
2.15564e-08
3.07774e-07
2.08899e-08
3.07878e-07
2.0288e-08
3.07973e-07
1.9744e-08
3.08061e-07
1.92522e-08
3.08143e-07
1.88078e-08
3.08219e-07
1.8407e-08
3.08289e-07
1.80465e-08
3.08354e-07
1.77238e-08
3.08414e-07
1.74367e-08
3.08468e-07
1.71829e-08
3.08517e-07
1.69602e-08
3.08562e-07
1.67663e-08
3.08601e-07
1.65986e-08
3.08636e-07
1.6455e-08
3.08666e-07
1.63333e-08
3.08693e-07
1.62317e-08
3.08716e-07
1.61485e-08
3.08736e-07
1.60826e-08
3.08754e-07
1.60322e-08
3.08769e-07
1.59966e-08
3.08783e-07
1.59733e-08
3.08797e-07
1.59619e-08
3.08809e-07
1.59585e-08
3.08822e-07
1.59621e-08
3.08835e-07
1.59676e-08
3.08848e-07
1.59716e-08
3.08863e-07
1.59696e-08
3.08879e-07
1.59507e-08
3.08895e-07
1.59157e-08
3.08909e-07
1.58405e-08
3.08921e-07
1.57368e-08
3.0892e-07
1.5576e-08
3.08906e-07
1.53865e-08
1.51798e-08
3.08875e-07
3.07666e-07
2.72064e-08
3.10603e-07
4.96723e-08
3.11888e-07
4.478e-08
3.12861e-07
3.87291e-08
3.13723e-07
3.68448e-08
3.14302e-07
3.50591e-08
3.14693e-07
3.25759e-08
3.15021e-07
3.03786e-08
3.15308e-07
2.86926e-08
3.15552e-07
2.72797e-08
3.1576e-07
2.60113e-08
3.15943e-07
2.48751e-08
3.16107e-07
2.38665e-08
3.16255e-07
2.29677e-08
3.16389e-07
2.2161e-08
3.16512e-07
2.14339e-08
3.16624e-07
2.07775e-08
3.16728e-07
2.01845e-08
3.16823e-07
1.96485e-08
3.16911e-07
1.9164e-08
3.16993e-07
1.87263e-08
3.17068e-07
1.83316e-08
3.17138e-07
1.79769e-08
3.17202e-07
1.76598e-08
3.1726e-07
1.73781e-08
3.17314e-07
1.71296e-08
3.17362e-07
1.69122e-08
3.17405e-07
1.67233e-08
3.17443e-07
1.65605e-08
3.17476e-07
1.64216e-08
3.17505e-07
1.63042e-08
3.17531e-07
1.62065e-08
3.17552e-07
1.61267e-08
3.17571e-07
1.60637e-08
3.17588e-07
1.60156e-08
3.17603e-07
1.59818e-08
3.17616e-07
1.59599e-08
3.17629e-07
1.59492e-08
3.17641e-07
1.59461e-08
3.17654e-07
1.59493e-08
3.17667e-07
1.59543e-08
3.17682e-07
1.59571e-08
3.17698e-07
1.59538e-08
3.17714e-07
1.59341e-08
3.17732e-07
1.58977e-08
3.17748e-07
1.58251e-08
3.17761e-07
1.57233e-08
3.17763e-07
1.55738e-08
3.17754e-07
1.53956e-08
1.52042e-08
3.1773e-07
3.16776e-07
2.45811e-08
3.19654e-07
4.67948e-08
3.20965e-07
4.34688e-08
3.21916e-07
3.77788e-08
3.22782e-07
3.59785e-08
3.23387e-07
3.44539e-08
3.23793e-07
3.21695e-08
3.24127e-07
3.0045e-08
3.2442e-07
2.83993e-08
3.2467e-07
2.703e-08
3.24883e-07
2.57987e-08
3.25069e-07
2.46889e-08
3.25235e-07
2.37002e-08
3.25385e-07
2.2818e-08
3.2552e-07
2.20254e-08
3.25644e-07
2.13103e-08
3.25757e-07
2.06644e-08
3.25861e-07
2.00806e-08
3.25957e-07
1.95529e-08
3.26045e-07
1.90758e-08
3.26126e-07
1.8645e-08
3.26201e-07
1.82567e-08
3.2627e-07
1.7908e-08
3.26333e-07
1.75966e-08
3.26391e-07
1.73205e-08
3.26443e-07
1.70774e-08
3.2649e-07
1.68653e-08
3.26531e-07
1.66817e-08
3.26568e-07
1.6524e-08
3.266e-07
1.63898e-08
3.26627e-07
1.62767e-08
3.26651e-07
1.6183e-08
3.26671e-07
1.61067e-08
3.26688e-07
1.60466e-08
3.26702e-07
1.60009e-08
3.26715e-07
1.59689e-08
3.26727e-07
1.59484e-08
3.26738e-07
1.59382e-08
3.26748e-07
1.59355e-08
3.26759e-07
1.59383e-08
3.26771e-07
1.59427e-08
3.26784e-07
1.59443e-08
3.26798e-07
1.59397e-08
3.26813e-07
1.59193e-08
3.26828e-07
1.58818e-08
3.26842e-07
1.58118e-08
3.26853e-07
1.57124e-08
3.26854e-07
1.55727e-08
3.26844e-07
1.54057e-08
1.52272e-08
3.26821e-07
3.26187e-07
2.2197e-08
3.28994e-07
4.39876e-08
3.30335e-07
4.21272e-08
3.31265e-07
3.68491e-08
3.3213e-07
3.51135e-08
3.3276e-07
3.38239e-08
3.33183e-07
3.17465e-08
3.33523e-07
2.97049e-08
3.33822e-07
2.81002e-08
3.34078e-07
2.67742e-08
3.34296e-07
2.55813e-08
3.34485e-07
2.44993e-08
3.34654e-07
2.35313e-08
3.34806e-07
2.26662e-08
3.34943e-07
2.18881e-08
3.35068e-07
2.11855e-08
3.35182e-07
2.05504e-08
3.35286e-07
1.99761e-08
3.35382e-07
1.94569e-08
3.35471e-07
1.89876e-08
3.35552e-07
1.85638e-08
3.35626e-07
1.81821e-08
3.35695e-07
1.78396e-08
3.35757e-07
1.75341e-08
3.35814e-07
1.72636e-08
3.35865e-07
1.70263e-08
3.35911e-07
1.68197e-08
3.35951e-07
1.66414e-08
3.35986e-07
1.64889e-08
3.36016e-07
1.63596e-08
3.36042e-07
1.62511e-08
3.36064e-07
1.61614e-08
3.36082e-07