/*--------------------------------*- C++ -*----------------------------------*\
  =========                 |
  \\      /  F ield         | OpenFOAM: The Open Source CFD Toolbox
   \\    /   O peration     | Website:  https://openfoam.org
    \\  /    A nd           | Version:  7
     \\/     M anipulation  |
\*---------------------------------------------------------------------------*/
FoamFile
{
    version     2.0;
    format      ascii;
    class       volVectorField;
    location    "0.03";
    object      U;
}
// * * * * * * * * * * * * * * * * * * * * * * * * * * * * * * * * * * * * * //

dimensions      [0 1 -1 0 0 0 0];

internalField   nonuniform List<vector> 
70000
(
(0.553413 0.0169782 0)
(0.251411 0.00340057 0)
(0.165909 0.00031916 0)
(0.132412 4.91875e-05 0)
(0.117288 4.42458e-05 0)
(0.107308 5.24271e-05 0)
(0.0993121 4.46426e-05 0)
(0.0928395 3.55858e-05 0)
(0.0875624 2.95718e-05 0)
(0.0831555 2.54605e-05 0)
(0.0793903 2.23284e-05 0)
(0.0761188 1.98287e-05 0)
(0.0732394 1.78006e-05 0)
(0.070678 1.61344e-05 0)
(0.0683782 1.47486e-05 0)
(0.0662966 1.35829e-05 0)
(0.0643989 1.25924e-05 0)
(0.0626579 1.17435e-05 0)
(0.0610513 1.10107e-05 0)
(0.059561 1.03742e-05 0)
(0.0581719 9.81839e-06 0)
(0.0568713 9.33091e-06 0)
(0.0556485 8.90148e-06 0)
(0.0544944 8.52193e-06 0)
(0.0534012 8.18482e-06 0)
(0.0523622 7.88479e-06 0)
(0.0513714 7.61544e-06 0)
(0.0504238 7.374e-06 0)
(0.0495151 7.15332e-06 0)
(0.0486412 6.95435e-06 0)
(0.0477989 6.76595e-06 0)
(0.0469851 6.5965e-06 0)
(0.0461977 6.42426e-06 0)
(0.0454338 6.27256e-06 0)
(0.0446926 6.09919e-06 0)
(0.0439716 5.95184e-06 0)
(0.0432706 5.76012e-06 0)
(0.0425886 5.59261e-06 0)
(0.0419241 5.37853e-06 0)
(0.0412821 5.12091e-06 0)
(0.0406508 4.95181e-06 0)
(0.0400581 4.36387e-06 0)
(0.0394525 4.59192e-06 0)
(0.0389389 2.84166e-06 0)
(0.0383317 4.81117e-06 0)
(0.037982 -8.50029e-07 0)
(0.03728 7.31833e-06 0)
(0.0373132 -1.10626e-05 0)
(0.0364388 2.06605e-05 0)
(0.0345581 -0.00144244 0)
(0.884863 0.0434936 0)
(0.65014 0.0201499 0)
(0.493946 0.00660637 0)
(0.403487 0.00275704 0)
(0.354728 0.00155074 0)
(0.323354 0.00113498 0)
(0.299384 0.000913099 0)
(0.280092 0.00074911 0)
(0.264284 0.000627098 0)
(0.251053 0.000537383 0)
(0.239747 0.000469531 0)
(0.229924 0.000416366 0)
(0.221276 0.000373629 0)
(0.213581 0.000338657 0)
(0.20667 0.000309641 0)
(0.200413 0.000285282 0)
(0.194708 0.000264629 0)
(0.189472 0.000246971 0)
(0.184639 0.000231766 0)
(0.180156 0.000218598 0)
(0.175975 0.00020714 0)
(0.17206 0.000197132 0)
(0.168379 0.000188364 0)
(0.164903 0.000180665 0)
(0.16161 0.000173893 0)
(0.158479 0.000167933 0)
(0.155492 0.000162684 0)
(0.152634 0.000158062 0)
(0.149892 0.00015399 0)
(0.147252 0.000150411 0)
(0.144706 0.000147251 0)
(0.142243 0.000144483 0)
(0.139856 0.000142009 0)
(0.137537 0.000139853 0)
(0.135282 0.000137841 0)
(0.133083 0.000136106 0)
(0.130938 0.000134301 0)
(0.128844 0.000132784 0)
(0.126795 0.000130864 0)
(0.124803 0.00012929 0)
(0.122836 0.000126882 0)
(0.120965 0.000124712 0)
(0.119055 0.000121559 0)
(0.117377 0.000117314 0)
(0.115445 0.000114056 0)
(0.114172 0.000102799 0)
(0.111973 0.000105611 0)
(0.111631 5.11491e-05 0)
(0.108913 0.000236892 0)
(0.107188 -0.00242858 0)
(0.991209 0.0499562 0)
(0.890919 0.0305648 0)
(0.762463 0.0146146 0)
(0.656459 0.0079766 0)
(0.585287 0.00488701 0)
(0.53583 0.00348355 0)
(0.497831 0.00274904 0)
(0.467075 0.00225659 0)
(0.441613 0.00189493 0)
(0.420135 0.00162565 0)
(0.401687 0.00142081 0)
(0.385602 0.0012603 0)
(0.371401 0.00113136 0)
(0.358735 0.00102584 0)
(0.347337 0.000938259 0)
(0.337001 0.000864708 0)
(0.327564 0.000802323 0)
(0.318894 0.000748968 0)
(0.310883 0.000703017 0)
(0.303445 0.000663216 0)
(0.296505 0.000628579 0)
(0.290002 0.000598326 0)
(0.283883 0.000571826 0)
(0.278105 0.000548568 0)
(0.272627 0.00052813 0)
(0.267417 0.000510163 0)
(0.262446 0.000494373 0)
(0.257687 0.00048051 0)
(0.25312 0.000468357 0)
(0.248722 0.000457732 0)
(0.244478 0.000448453 0)
(0.24037 0.000440397 0)
(0.236386 0.000433356 0)
(0.232513 0.00042731 0)
(0.228742 0.0004219 0)
(0.225061 0.00041735 0)
(0.221465 0.000412881 0)
(0.217947 0.00040932 0)
(0.214497 0.000404878 0)
(0.211131 0.000401762 0)
(0.2078 0.000396024 0)
(0.204607 0.000392655 0)
(0.201353 0.000383671 0)
(0.198429 0.000378664 0)
(0.195132 0.000363889 0)
(0.192765 0.00035186 0)
(0.189086 0.000336079 0)
(0.187973 0.000246359 0)
(0.183484 0.000485673 0)
(0.182622 -0.00232405 0)
(1.01554 0.0489544 0)
(1.00649 0.0357272 0)
(0.935869 0.0208256 0)
(0.851953 0.0135083 0)
(0.782109 0.009211 0)
(0.726866 0.00679959 0)
(0.681654 0.00540671 0)
(0.643745 0.00446904 0)
(0.611554 0.00377839 0)
(0.583884 0.00325703 0)
(0.559793 0.00285584 0)
(0.538571 0.00253938 0)
(0.519687 0.00228407 0)
(0.502737 0.00207442 0)
(0.487404 0.00189989 0)
(0.47344 0.00175293 0)
(0.460644 0.00162801 0)
(0.448852 0.00152096 0)
(0.437929 0.00142862 0)
(0.427764 0.00134851 0)
(0.418263 0.00127871 0)
(0.409345 0.00121768 0)
(0.400943 0.00116416 0)
(0.392998 0.00111715 0)
(0.385459 0.00107582 0)
(0.378283 0.00103948 0)
(0.371429 0.00100754 0)
(0.364865 0.000979524 0)
(0.35856 0.000955006 0)
(0.352487 0.000933619 0)
(0.346622 0.000915032 0)
(0.340943 0.00089898 0)
(0.335433 0.000885116 0)
(0.330072 0.000873333 0)
(0.324849 0.000863062 0)
(0.319745 0.000854595 0)
(0.314754 0.000846649 0)
(0.309865 0.000840604 0)
(0.305064 0.000833266 0)
(0.300366 0.000828827 0)
(0.295716 0.000819412 0)
(0.291226 0.000815957 0)
(0.286668 0.00079983 0)
(0.282488 0.000797011 0)
(0.277882 0.000766175 0)
(0.274325 0.000760107 0)
(0.269303 0.000714375 0)
(0.267097 0.000606579 0)
(0.261168 0.000806923 0)
(0.260084 -0.00173723 0)
(1.01435 0.0460988 0)
(1.04798 0.0373448 0)
(1.02456 0.024195 0)
(0.974642 0.017571 0)
(0.92339 0.0131276 0)
(0.876575 0.0102292 0)
(0.834296 0.00837439 0)
(0.796402 0.00705725 0)
(0.762667 0.00605266 0)
(0.732645 0.00527218 0)
(0.705818 0.00465822 0)
(0.681711 0.00416626 0)
(0.659922 0.00376474 0)
(0.640118 0.00343205 0)
(0.622019 0.00315303 0)
(0.605394 0.00291665 0)
(0.590051 0.00271468 0)
(0.575826 0.00254085 0)
(0.562581 0.00239032 0)
(0.5502 0.00225931 0)
(0.538583 0.00214483 0)
(0.527643 0.00204446 0)
(0.517306 0.00195626 0)
(0.507506 0.00187863 0)
(0.498187 0.00181026 0)
(0.489299 0.00175006 0)
(0.480798 0.0016971 0)
(0.472643 0.00165061 0)
(0.464799 0.00160993 0)
(0.457236 0.00157447 0)
(0.449925 0.00154372 0)
(0.442839 0.00151725 0)
(0.435957 0.00149455 0)
(0.429257 0.0014754 0)
(0.422722 0.00145902 0)
(0.416332 0.00144573 0)
(0.410077 0.00143374 0)
(0.403942 0.00142498 0)
(0.397913 0.00141475 0)
(0.391999 0.0014094 0)
(0.386145 0.0013967 0)
(0.380459 0.00139428 0)
(0.374714 0.0013714 0)
(0.369347 0.00137274 0)
(0.363569 0.00132577 0)
(0.358815 0.00132783 0)
(0.352671 0.0012518 0)
(0.349168 0.00113212 0)
(0.34228 0.0012676 0)
(0.339867 -0.000984853 0)
(1.00941 0.0430485 0)
(1.05564 0.0371005 0)
(1.05867 0.0253375 0)
(1.03628 0.0197785 0)
(1.00707 0.0158203 0)
(0.975987 0.0129637 0)
(0.944363 0.011 0)
(0.913367 0.0095247 0)
(0.883852 0.00834223 0)
(0.856198 0.0073845 0)
(0.830479 0.00660601 0)
(0.806626 0.00596626 0)
(0.784516 0.00543369 0)
(0.764001 0.00498539 0)
(0.744932 0.00460453 0)
(0.727167 0.0042784 0)
(0.710572 0.00399723 0)
(0.69503 0.00375337 0)
(0.680431 0.00354083 0)
(0.66668 0.00335481 0)
(0.653691 0.00319146 0)
(0.641389 0.00304762 0)
(0.629706 0.00292074 0)
(0.618581 0.0028087 0)
(0.607959 0.00270972 0)
(0.597793 0.00262234 0)
(0.588039 0.00254533 0)
(0.578658 0.0024776 0)
(0.569613 0.00241828 0)
(0.560872 0.00236656 0)
(0.552407 0.00232175 0)
(0.544188 0.00228324 0)
(0.536195 0.00225039 0)
(0.5284 0.00222283 0)
(0.520788 0.00219958 0)
(0.513336 0.00218099 0)
(0.506033 0.00216476 0)
(0.498859 0.00215335 0)
(0.491802 0.00214064 0)
(0.484865 0.00213495 0)
(0.477999 0.00212 0)
(0.471293 0.00211954 0)
(0.46455 0.00209176 0)
(0.458148 0.00209786 0)
(0.451402 0.00203867 0)
(0.445547 0.00204623 0)
(0.43854 0.0019494 0)
(0.433716 0.00181099 0)
(0.426258 0.00189569 0)
(0.422177 -9.82546e-05 0)
(1.00635 0.0401806 0)
(1.05241 0.0361541 0)
(1.06605 0.0252618 0)
(1.05952 0.0205854 0)
(1.04685 0.0172508 0)
(1.03076 0.0146874 0)
(1.01179 0.0128666 0)
(0.991002 0.0114512 0)
(0.969459 0.0102652 0)
(0.947885 0.00926256 0)
(0.926721 0.00841731 0)
(0.906223 0.00770117 0)
(0.886535 0.00708955 0)
(0.867721 0.00656352 0)
(0.849796 0.00610846 0)
(0.832744 0.00571279 0)
(0.816529 0.00536718 0)
(0.801108 0.00506409 0)
(0.786429 0.00479737 0)
(0.772442 0.00456198 0)
(0.759097 0.00435378 0)
(0.746342 0.0041693 0)
(0.734133 0.00400567 0)
(0.722425 0.00386048 0)
(0.711178 0.00373168 0)
(0.700352 0.00361756 0)
(0.689913 0.00351666 0)
(0.679828 0.00342772 0)
(0.670066 0.00334969 0)
(0.660598 0.00328159 0)
(0.651399 0.00322262 0)
(0.642443 0.00317201 0)
(0.633708 0.003129 0)
(0.625171 0.00309314 0)
(0.616817 0.00306326 0)
(0.608621 0.00303973 0)
(0.600574 0.00301985 0)
(0.592654 0.00300644 0)
(0.584853 0.00299226 0)
(0.577165 0.00298714 0)
(0.569554 0.00297161 0)
(0.562083 0.00297398 0)
(0.5546 0.00294428 0)
(0.547397 0.00295485 0)
(0.539941 0.0028898 0)
(0.533189 0.00289801 0)
(0.525586 0.00279356 0)
(0.519621 0.00262891 0)
(0.511818 0.00267756 0)
(0.50631 0.000931214 0)
(1.00506 0.0375035 0)
(1.04762 0.0350561 0)
(1.06395 0.0247151 0)
(1.06417 0.0206179 0)
(1.06067 0.0177916 0)
(1.05473 0.0155325 0)
(1.04592 0.0139291 0)
(1.03466 0.0126814 0)
(1.02165 0.0116089 0)
(1.00749 0.0106724 0)
(0.992632 0.00985819 0)
(0.977433 0.00914852 0)
(0.962151 0.0085265 0)
(0.946973 0.00797889 0)
(0.93203 0.00749528 0)
(0.917411 0.00706708 0)
(0.90317 0.00668707 0)
(0.889338 0.00634915 0)
(0.875928 0.00604814 0)
(0.862942 0.00577966 0)
(0.850373 0.00553997 0)
(0.838209 0.00532587 0)
(0.826432 0.00513463 0)
(0.815023 0.00496388 0)
(0.803964 0.00481162 0)
(0.793231 0.0046761 0)
(0.782806 0.00455584 0)
(0.772667 0.00444953 0)
(0.762794 0.00435607 0)
(0.753167 0.00427445 0)
(0.743766 0.00420381 0)
(0.734573 0.00414333 0)
(0.725571 0.0040922 0)
(0.716741 0.00404991 0)
(0.70807 0.00401521 0)
(0.699537 0.00398844 0)
(0.691136 0.00396666 0)
(0.682845 0.0039529 0)
(0.674659 0.00393919 0)
(0.666568 0.00393622 0)
(0.658549 0.00392256 0)
(0.65064 0.003929 0)
(0.642737 0.00390116 0)
(0.635043 0.00391594 0)
(0.627181 0.00385208 0)
(0.619834 0.00385706 0)
(0.611908 0.00375616 0)
(0.605133 0.00356518 0)
(0.597156 0.00358366 0)
(0.590652 0.00208184 0)
(1.00451 0.0349678 0)
(1.04359 0.0339766 0)
(1.05993 0.0240649 0)
(1.06221 0.0203297 0)
(1.06249 0.0178584 0)
(1.0618 0.015815 0)
(1.0592 0.0143871 0)
(1.05459 0.0133071 0)
(1.04831 0.0123791 0)
(1.04064 0.0115573 0)
(1.03187 0.0108305 0)
(1.02226 0.0101852 0)
(1.01201 0.00960831 0)
(1.00133 0.00909038 0)
(0.990378 0.0086243 0)
(0.979273 0.00820435 0)
(0.968114 0.00782566 0)
(0.956979 0.00748399 0)
(0.945924 0.00717566 0)
(0.934989 0.00689744 0)
(0.924206 0.00664649 0)
(0.913592 0.0064203 0)
(0.903161 0.00621668 0)
(0.892919 0.00603366 0)
(0.882866 0.00586952 0)
(0.873003 0.00572274 0)
(0.863324 0.00559202 0)
(0.853824 0.00547617 0)
(0.844495 0.00537422 0)
(0.835329 0.0052852 0)
(0.826317 0.00520836 0)
(0.817448 0.00514291 0)
(0.808712 0.00508809 0)
(0.800097 0.00504339 0)
(0.791597 0.00500757 0)
(0.783194 0.00498096 0)
(0.774887 0.00496055 0)
(0.766656 0.00494941 0)
(0.758503 0.00493925 0)
(0.750412 0.00494105 0)
(0.742376 0.00493256 0)
(0.734412 0.00494509 0)
(0.726455 0.00492342 0)
(0.71864 0.0049431 0)
(0.710714 0.00488702 0)
(0.703141 0.00488764 0)
(0.69519 0.00479785 0)
(0.688008 0.00458729 0)
(0.680067 0.00457819 0)
(0.67302 0.00331069 0)
(1.00412 0.0325373 0)
(1.04026 0.0329236 0)
(1.05616 0.0234311 0)
(1.05885 0.0199463 0)
(1.06022 0.0177311 0)
(1.06158 0.0158201 0)
(1.06192 0.0144948 0)
(1.06099 0.0135315 0)
(1.05888 0.0127212 0)
(1.05569 0.0120071 0)
(1.05151 0.0113758 0)
(1.04645 0.0108132 0)
(1.04063 0.0103064 0)
(1.03417 0.00984661 0)
(1.02719 0.00942793 0)
(1.0198 0.00904601 0)
(1.01207 0.00869737 0)
(1.0041 0.0083791 0)
(0.995943 0.00808868 0)
(0.98766 0.00782395 0)
(0.979296 0.00758297 0)
(0.970887 0.00736402 0)
(0.962462 0.00716552 0)
(0.954046 0.00698607 0)
(0.945654 0.0068244 0)
(0.937301 0.00667934 0)
(0.928996 0.00654989 0)
(0.920745 0.0064351 0)
(0.912554 0.00633424 0)
(0.904424 0.00624651 0)
(0.896356 0.00617133 0)
(0.888348 0.00610804 0)
(0.880399 0.00605602 0)
(0.872504 0.00601484 0)
(0.864661 0.00598334 0)
(0.856861 0.00596192 0)
(0.849105 0.00594755 0)
(0.841381 0.00594334 0)
(0.833691 0.00594094 0)
(0.826025 0.00595118 0)
(0.81838 0.005952 0)
(0.810765 0.00597361 0)
(0.803143 0.00596276 0)
(0.795599 0.00598932 0)
(0.787972 0.00594684 0)
(0.780568 0.00594481 0)
(0.772915 0.00587101 0)
(0.765747 0.00565141 0)
(0.758105 0.00561798 0)
(0.750954 0.00456767 0)
(1.00374 0.0302032 0)
(1.03727 0.0318749 0)
(1.05283 0.0228284 0)
(1.05562 0.0195453 0)
(1.05713 0.0175424 0)
(1.05904 0.0157207 0)
(1.06046 0.0144439 0)
(1.06112 0.0135451 0)
(1.06108 0.0128096 0)
(1.06038 0.0121711 0)
(1.059 0.0116137 0)
(1.05697 0.0111221 0)
(1.05431 0.010682 0)
(1.05107 0.0102834 0)
(1.04731 0.00992011 0)
(1.04307 0.00958766 0)
(1.03842 0.00928282 0)
(1.03341 0.00900306 0)
(1.02809 0.00874637 0)
(1.0225 0.0085111 0)
(1.01669 0.00829585 0)
(1.01069 0.00809941 0)
(1.00454 0.00792072 0)
(0.998262 0.0077588 0)
(0.991876 0.00761278 0)
(0.985404 0.00748183 0)
(0.978863 0.00736526 0)
(0.972266 0.00726238 0)
(0.965625 0.00717268 0)
(0.958948 0.00709559 0)
(0.952243 0.00703073 0)
(0.945515 0.00697762 0)
(0.93877 0.0069358 0)
(0.932007 0.00690499 0)
(0.925231 0.00688415 0)
(0.918439 0.00687377 0)
(0.911634 0.00687094 0)
(0.904811 0.00687871 0)
(0.897975 0.00688895 0)
(0.891118 0.006912 0)
(0.884243 0.00692668 0)
(0.877354 0.00696106 0)
(0.870433 0.00696574 0)
(0.863533 0.00700218 0)
(0.856555 0.00697839 0)
(0.849696 0.00697745 0)
(0.842665 0.00692297 0)
(0.835907 0.00670627 0)
(0.828844 0.0066536 0)
(0.822001 0.0057991 0)
(1.00337 0.0279677 0)
(1.03443 0.0308182 0)
(1.04972 0.0222506 0)
(1.05265 0.0191417 0)
(1.05413 0.0173352 0)
(1.0561 0.0155922 0)
(1.05779 0.0143381 0)
(1.05897 0.0134709 0)
(1.05975 0.0127769 0)
(1.06016 0.0121827 0)
(1.0602 0.0116715 0)
(1.05982 0.0112277 0)
(1.05903 0.0108363 0)
(1.05784 0.010486 0)
(1.05624 0.0101697 0)
(1.05425 0.00988236 0)
(1.0519 0.00962029 0)
(1.04921 0.00938074 0)
(1.0462 0.00916161 0)
(1.04291 0.00896125 0)
(1.03935 0.00877837 0)
(1.03555 0.00861192 0)
(1.03153 0.00846106 0)
(1.02732 0.00832501 0)
(1.02293 0.00820313 0)
(1.01838 0.00809479 0)
(1.01369 0.0079995 0)
(1.00887 0.00791673 0)
(1.00394 0.00784615 0)
(0.998894 0.00778735 0)
(0.993756 0.00774011 0)
(0.988531 0.00770411 0)
(0.983225 0.00767905 0)
(0.977844 0.00766478 0)
(0.972394 0.00766042 0)
(0.966877 0.00766654 0)
(0.961298 0.00768038 0)
(0.955655 0.00770493 0)
(0.949956 0.0077324 0)
(0.944196 0.00777247 0)
(0.93838 0.00780529 0)
(0.932513 0.00785607 0)
(0.926584 0.00788052 0)
(0.92063 0.00793016 0)
(0.914592 0.00792911 0)
(0.90859 0.00793406 0)
(0.902457 0.00790112 0)
(0.896444 0.00769888 0)
(0.890218 0.00763378 0)
(0.884033 0.00695177 0)
(1.00301 0.0258346 0)
(1.03171 0.0297493 0)
(1.04673 0.0216941 0)
(1.04986 0.0187351 0)
(1.05131 0.0171162 0)
(1.05324 0.0154567 0)
(1.05497 0.0142185 0)
(1.05627 0.0133683 0)
(1.05728 0.0126982 0)
(1.05809 0.0121285 0)
(1.05869 0.0116425 0)
(1.05906 0.0112263 0)
(1.05919 0.0108645 0)
(1.05908 0.0105455 0)
(1.05871 0.0102615 0)
(1.05808 0.010007 0)
(1.05719 0.00977801 0)
(1.05605 0.00957124 0)
(1.05466 0.00938433 0)
(1.05302 0.00921541 0)
(1.05115 0.00906303 0)
(1.04907 0.00892607 0)
(1.04677 0.00880364 0)
(1.04427 0.00869501 0)
(1.04159 0.00859957 0)
(1.03873 0.00851675 0)
(1.0357 0.0084461 0)
(1.03251 0.00838716 0)
(1.02918 0.00833964 0)
(1.02571 0.00830322 0)
(1.02211 0.00827774 0)
(1.01838 0.00826298 0)
(1.01454 0.00825873 0)
(1.01059 0.00826498 0)
(1.00653 0.00828091 0)
(1.00238 0.00830722 0)
(0.99813 0.00834124 0)
(0.993788 0.0083859 0)
(0.989357 0.00843382 0)
(0.98484 0.00849388 0)
(0.980238 0.00854787 0)
(0.975559 0.00861771 0)
(0.970795 0.00866489 0)
(0.965972 0.00873044 0)
(0.961058 0.00875466 0)
(0.95612 0.00877016 0)
(0.951073 0.00875983 0)
(0.946038 0.00858178 0)
(0.940837 0.00851182 0)
(0.935564 0.00797872 0)
(1.00268 0.0238063 0)
(1.02911 0.0286666 0)
(1.04381 0.0211584 0)
(1.04717 0.0183255 0)
(1.04862 0.016884 0)
(1.05052 0.0153168 0)
(1.05224 0.0140964 0)
(1.05354 0.0132584 0)
(1.0546 0.0126054 0)
(1.0555 0.0120513 0)
(1.05627 0.0115797 0)
(1.05691 0.0111783 0)
(1.05742 0.0108328 0)
(1.05778 0.0105316 0)
(1.058 0.0102667 0)
(1.05806 0.0100327 0)
(1.05796 0.00982514 0)
(1.0577 0.00964071 0)
(1.05728 0.00947677 0)
(1.05668 0.00933125 0)
(1.05592 0.00920251 0)
(1.05498 0.0090893 0)
(1.05389 0.00899062 0)
(1.05263 0.00890565 0)
(1.05121 0.00883375 0)
(1.04963 0.0087743 0)
(1.04791 0.00872681 0)
(1.04603 0.00869081 0)
(1.04402 0.00866596 0)
(1.04186 0.00865192 0)
(1.03958 0.00864852 0)
(1.03716 0.0086556 0)
(1.03462 0.00867292 0)
(1.03197 0.00870057 0)
(1.0292 0.00873776 0)
(1.02632 0.00878524 0)
(1.02333 0.00884047 0)
(1.02024 0.00890623 0)
(1.01705 0.00897561 0)
(1.01376 0.00905656 0)
(1.01038 0.00913273 0)
(1.0069 0.00922248 0)
(1.00334 0.00929336 0)
(0.999692 0.00937609 0)
(0.995954 0.00942607 0)
(0.992157 0.00945559 0)
(0.988262 0.00946751 0)
(0.984315 0.00932038 0)
(0.980221 0.00925269 0)
(0.975995 0.00884565 0)
(1.00238 0.0218845 0)
(1.02664 0.0275693 0)
(1.04099 0.0206431 0)
(1.04456 0.0179144 0)
(1.04603 0.0166371 0)
(1.0479 0.0151712 0)
(1.04961 0.0139728 0)
(1.05092 0.0131462 0)
(1.05196 0.0125087 0)
(1.05287 0.0119676 0)
(1.05367 0.011506 0)
(1.05438 0.0111137 0)
(1.055 0.0107775 0)
(1.05553 0.0104862 0)
(1.05598 0.010232 0)
(1.05633 0.0100094 0)
(1.0566 0.00981429 0)
(1.05677 0.00964323 0)
(1.05684 0.00949355 0)
(1.0568 0.00936309 0)
(1.05665 0.00925013 0)
(1.0564 0.00915332 0)
(1.05603 0.00907159 0)
(1.05555 0.00900407 0)
(1.05495 0.00895006 0)
(1.05424 0.00890889 0)
(1.05341 0.00888002 0)
(1.05246 0.00886289 0)
(1.0514 0.00885711 0)
(1.05022 0.00886229 0)
(1.04893 0.00887818 0)
(1.04753 0.0089046 0)
(1.04602 0.00894128 0)
(1.0444 0.00898832 0)
(1.04268 0.00904494 0)
(1.04086 0.0091119 0)
(1.03894 0.00918676 0)
(1.03692 0.0092721 0)
(1.03481 0.00936153 0)
(1.03261 0.00946195 0)
(1.03031 0.009559 0)
(1.02793 0.00966742 0)
(1.02546 0.00976069 0)
(1.0229 0.00986002 0)
(1.02027 0.00993397 0)
(1.01755 0.00997907 0)
(1.01476 0.0100113 0)
(1.01188 0.00989826 0)
(1.00886 0.00983841 0)
(1.00569 0.00953584 0)
(1.0021 0.0200702 0)
(1.0243 0.0264593 0)
(1.03826 0.0201459 0)
(1.04204 0.0175038 0)
(1.04353 0.0163756 0)
(1.04537 0.0150184 0)
(1.04708 0.0138473 0)
(1.04838 0.013032 0)
(1.04941 0.0124099 0)
(1.05031 0.0118819 0)
(1.0511 0.0114293 0)
(1.05182 0.0110442 0)
(1.05246 0.0107146 0)
(1.05303 0.0104296 0)
(1.05354 0.0101817 0)
(1.054 0.00996576 0)
(1.0544 0.00977764 0)
(1.05474 0.00961414 0)
(1.05502 0.00947263 0)
(1.05524 0.00935099 0)
(1.0554 0.0092475 0)
(1.05548 0.00916079 0)
(1.0555 0.0090898 0)
(1.05544 0.00903366 0)
(1.05531 0.00899164 0)
(1.05511 0.00896307 0)
(1.05482 0.00894736 0)
(1.05445 0.00894393 0)
(1.05399 0.00895229 0)
(1.05346 0.00897201 0)
(1.05283 0.00900274 0)
(1.05213 0.00904428 0)
(1.05134 0.00909628 0)
(1.05047 0.00915887 0)
(1.04951 0.0092312 0)
(1.04848 0.00931406 0)
(1.04736 0.00940507 0)
(1.04617 0.00950657 0)
(1.0449 0.00961274 0)
(1.04355 0.00972935 0)
(1.04213 0.00984406 0)
(1.04063 0.00996809 0)
(1.03906 0.0100805 0)
(1.03742 0.0101941 0)
(1.03571 0.0102883 0)
(1.03393 0.0103484 0)
(1.03208 0.0103978 0)
(1.03013 0.0103184 0)
(1.02807 0.0102699 0)
(1.02585 0.0100518 0)
(1.00185 0.0183638 0)
(1.0221 0.0253407 0)
(1.03563 0.0196633 0)
(1.0396 0.0170954 0)
(1.04112 0.0161001 0)
(1.04292 0.0148576 0)
(1.04464 0.0137192 0)
(1.04594 0.0129158 0)
(1.04696 0.0123092 0)
(1.04784 0.0117948 0)
(1.04863 0.0113514 0)
(1.04933 0.0109732 0)
(1.04996 0.0106494 0)
(1.05053 0.0103696 0)
(1.05105 0.0101265 0)
(1.05153 0.009915 0)
(1.05197 0.00973133 0)
(1.05236 0.00957241 0)
(1.05272 0.00943571 0)
(1.05303 0.00931919 0)
(1.05331 0.0092212 0)
(1.05354 0.0091404 0)
(1.05373 0.00907578 0)
(1.05388 0.00902649 0)
(1.05397 0.00899186 0)
(1.05402 0.00897123 0)
(1.05402 0.00896402 0)
(1.05397 0.0089696 0)
(1.05386 0.00898746 0)
(1.05369 0.00901711 0)
(1.05347 0.00905814 0)
(1.05318 0.00911031 0)
(1.05284 0.00917322 0)
(1.05244 0.00924696 0)
(1.05199 0.00933069 0)
(1.05147 0.00942511 0)
(1.0509 0.00952801 0)
(1.05028 0.0096414 0)
(1.04959 0.00976007 0)
(1.04886 0.00988864 0)
(1.04806 0.0100167 0)
(1.04722 0.0101523 0)
(1.04632 0.0102793 0)
(1.04536 0.0104038 0)
(1.04436 0.0105133 0)
(1.0433 0.0105865 0)
(1.04219 0.0106488 0)
(1.04099 0.0106001 0)
(1.03968 0.0105643 0)
(1.03824 0.0104125 0)
(1.00162 0.0167648 0)
(1.02004 0.0242177 0)
(1.0331 0.0191911 0)
(1.03725 0.0166908 0)
(1.0388 0.0158116 0)
(1.04057 0.0146882 0)
(1.04228 0.0135884 0)
(1.04359 0.0127973 0)
(1.0446 0.0122062 0)
(1.04547 0.0117061 0)
(1.04624 0.0112726 0)
(1.04693 0.0109015 0)
(1.04755 0.0105835 0)
(1.04811 0.0103087 0)
(1.04862 0.0100699 0)
(1.04909 0.00986218 0)
(1.04953 0.00968203 0)
(1.04993 0.00952647 0)
(1.0503 0.0093931 0)
(1.05064 0.00927995 0)
(1.05095 0.00918543 0)
(1.05124 0.00910828 0)
(1.05149 0.00904752 0)
(1.05171 0.00900239 0)
(1.05191 0.00897225 0)
(1.05207 0.00895649 0)
(1.0522 0.00895454 0)
(1.05229 0.0089658 0)
(1.05235 0.00898969 0)
(1.05237 0.00902573 0)
(1.05235 0.00907342 0)
(1.0523 0.00913251 0)
(1.05221 0.00920254 0)
(1.05208 0.0092836 0)
(1.05191 0.00937482 0)
(1.0517 0.00947685 0)
(1.05146 0.00958762 0)
(1.05118 0.00970879 0)
(1.05087 0.00983581 0)
(1.05052 0.00997213 0)
(1.05013 0.0101093 0)
(1.04972 0.0102523 0)
(1.04927 0.0103892 0)
(1.04878 0.0105208 0)
(1.04827 0.0106406 0)
(1.04771 0.0107239 0)
(1.04711 0.010795 0)
(1.04645 0.0107724 0)
(1.0457 0.0107491 0)
(1.04483 0.0106479 0)
(1.00142 0.0152725 0)
(1.01811 0.0230945 0)
(1.03067 0.0187253 0)
(1.03499 0.0162915 0)
(1.03657 0.0155117 0)
(1.03831 0.0145095 0)
(1.04001 0.0134546 0)
(1.04132 0.0126766 0)
(1.04233 0.0121009 0)
(1.04318 0.0116157 0)
(1.04394 0.0111926 0)
(1.04462 0.010829 0)
(1.04523 0.010517 0)
(1.04578 0.0102473 0)
(1.04628 0.0100127 0)
(1.04674 0.0098088 0)
(1.04717 0.00963196 0)
(1.04756 0.00947942 0)
(1.04793 0.00934888 0)
(1.04827 0.00923845 0)
(1.04858 0.00914658 0)
(1.04887 0.00907208 0)
(1.04914 0.00901402 0)
(1.04939 0.00897171 0)
(1.04961 0.00894455 0)
(1.04981 0.008932 0)
(1.04999 0.00893349 0)
(1.05014 0.00894844 0)
(1.05027 0.00897625 0)
(1.05037 0.00901639 0)
(1.05044 0.00906835 0)
(1.05049 0.00913183 0)
(1.05052 0.00920633 0)
(1.05052 0.00929192 0)
(1.0505 0.00938775 0)
(1.05045 0.00949435 0)
(1.05039 0.00960986 0)
(1.0503 0.00973556 0)
(1.05019 0.00986754 0)
(1.05006 0.0100082 0)
(1.04992 0.0101507 0)
(1.04975 0.0102976 0)
(1.04957 0.0104403 0)
(1.04937 0.010576 0)
(1.04916 0.0107015 0)
(1.04891 0.010792 0)
(1.04865 0.0108684 0)
(1.04833 0.0108668 0)
(1.04794 0.0108551 0)
(1.04746 0.0107915 0)
(1.00124 0.0138855 0)
(1.01632 0.0219748 0)
(1.02835 0.0182622 0)
(1.03282 0.0158987 0)
(1.03444 0.0152017 0)
(1.03614 0.014321 0)
(1.03783 0.0133172 0)
(1.03914 0.0125538 0)
(1.04015 0.0119932 0)
(1.04099 0.0115233 0)
(1.04174 0.0111114 0)
(1.04241 0.0107555 0)
(1.043 0.0104498 0)
(1.04354 0.0101854 0)
(1.04403 0.00995532 0)
(1.04448 0.00975519 0)
(1.0449 0.00958169 0)
(1.04528 0.00943216 0)
(1.04564 0.00930437 0)
(1.04597 0.00919649 0)
(1.04627 0.00910703 0)
(1.04656 0.00903485 0)
(1.04682 0.00897908 0)
(1.04707 0.00893906 0)
(1.0473 0.00891427 0)
(1.0475 0.00890418 0)
(1.04769 0.00890826 0)
(1.04786 0.00892593 0)
(1.048 0.00895657 0)
(1.04813 0.00899961 0)
(1.04824 0.0090545 0)
(1.04833 0.00912091 0)
(1.0484 0.00919832 0)
(1.04846 0.00928673 0)
(1.0485 0.00938535 0)
(1.04853 0.00949458 0)
(1.04854 0.00961276 0)
(1.04855 0.00974081 0)
(1.04854 0.0098754 0)
(1.04852 0.010018 0)
(1.0485 0.0101631 0)
(1.04846 0.0103115 0)
(1.04842 0.010457 0)
(1.04838 0.0105942 0)
(1.04833 0.0107222 0)
(1.04826 0.0108175 0)
(1.04818 0.0108966 0)
(1.04806 0.0109116 0)
(1.04789 0.0109102 0)
(1.04764 0.0108744 0)
(1.00107 0.0126019 0)
(1.01466 0.020863 0)
(1.02615 0.0177983 0)
(1.03073 0.0155133 0)
(1.03241 0.0148836 0)
(1.03406 0.0141223 0)
(1.03573 0.0131759 0)
(1.03705 0.0124288 0)
(1.03806 0.011883 0)
(1.03889 0.011429 0)
(1.03963 0.0110288 0)
(1.04029 0.0106812 0)
(1.04087 0.0103819 0)
(1.0414 0.0101229 0)
(1.04188 0.00989751 0)
(1.04232 0.00970136 0)
(1.04272 0.00953132 0)
(1.04309 0.00938486 0)
(1.04344 0.00925987 0)
(1.04376 0.00915457 0)
(1.04406 0.00906752 0)
(1.04433 0.00899762 0)
(1.04459 0.00894404 0)
(1.04483 0.00890618 0)
(1.04505 0.00888356 0)
(1.04525 0.0088757 0)
(1.04543 0.00888207 0)
(1.0456 0.00890208 0)
(1.04574 0.0089351 0)
(1.04588 0.00898052 0)
(1.04599 0.00903773 0)
(1.04609 0.00910638 0)
(1.04618 0.0091859 0)
(1.04625 0.00927627 0)
(1.04631 0.0093767 0)
(1.04636 0.0094875 0)
(1.04641 0.00960718 0)
(1.04644 0.00973632 0)
(1.04648 0.00987213 0)
(1.04651 0.0100152 0)
(1.04653 0.0101614 0)
(1.04656 0.0103098 0)
(1.04658 0.0104559 0)
(1.04661 0.0105933 0)
(1.04664 0.0107216 0)
(1.04665 0.01082 0)
(1.04666 0.0109006 0)
(1.04665 0.0109283 0)
(1.04658 0.0109363 0)
(1.04646 0.0109209 0)
(1.00093 0.0114188 0)
(1.01314 0.0197629 0)
(1.02405 0.0173306 0)
(1.02873 0.0151359 0)
(1.03047 0.0145594 0)
(1.03208 0.013913 0)
(1.03373 0.01303 0)
(1.03505 0.0123017 0)
(1.03606 0.0117704 0)
(1.03688 0.0113325 0)
(1.03761 0.0109448 0)
(1.03826 0.0106057 0)
(1.03883 0.0103132 0)
(1.03935 0.0100598 0)
(1.03982 0.00983928 0)
(1.04025 0.00964724 0)
(1.04064 0.00948078 0)
(1.04101 0.00933752 0)
(1.04134 0.00921543 0)
(1.04165 0.00911279 0)
(1.04194 0.00902821 0)
(1.0422 0.00896063 0)
(1.04245 0.00890927 0)
(1.04268 0.00887359 0)
(1.04289 0.00885314 0)
(1.04308 0.00884748 0)
(1.04326 0.00885609 0)
(1.04342 0.00887837 0)
(1.04356 0.00891365 0)
(1.04368 0.00896128 0)
(1.04379 0.00902061 0)
(1.04389 0.00909123 0)
(1.04397 0.00917256 0)
(1.04405 0.0092645 0)
(1.04411 0.00936633 0)
(1.04416 0.00947821 0)
(1.04421 0.00959883 0)
(1.04426 0.00972845 0)
(1.0443 0.00986476 0)
(1.04435 0.0100077 0)
(1.04439 0.0101539 0)
(1.04443 0.0103016 0)
(1.04448 0.0104474 0)
(1.04453 0.0105842 0)
(1.04458 0.0107118 0)
(1.04463 0.0108123 0)
(1.04468 0.0108937 0)
(1.0447 0.0109316 0)
(1.04468 0.0109483 0)
(1.04461 0.0109485 0)
(1.0008 0.0103332 0)
(1.01174 0.0186788 0)
(1.02207 0.0168563 0)
(1.02681 0.0147667 0)
(1.02862 0.0142311 0)
(1.03019 0.0136932 0)
(1.03181 0.012879 0)
(1.03314 0.0121725 0)
(1.03414 0.0116554 0)
(1.03496 0.0112337 0)
(1.03568 0.0108591 0)
(1.03632 0.0105292 0)
(1.03689 0.0102436 0)
(1.0374 0.0099961 0)
(1.03786 0.00978053 0)
(1.03828 0.00959277 0)
(1.03866 0.00943003 0)
(1.03901 0.00929009 0)
(1.03934 0.00917099 0)
(1.03964 0.00907111 0)
(1.03992 0.00898908 0)
(1.04017 0.0089239 0)
(1.04041 0.00887485 0)
(1.04063 0.00884141 0)
(1.04083 0.00882321 0)
(1.04102 0.00881981 0)
(1.04118 0.0088307 0)
(1.04133 0.00885528 0)
(1.04146 0.00889283 0)
(1.04158 0.00894267 0)
(1.04168 0.0090041 0)
(1.04177 0.00907664 0)
(1.04185 0.0091597 0)
(1.04192 0.00925311 0)
(1.04197 0.00935619 0)
(1.04202 0.00946898 0)
(1.04207 0.00959033 0)
(1.04211 0.00972024 0)
(1.04215 0.00985674 0)
(1.04219 0.0099993 0)
(1.04224 0.0101452 0)
(1.04228 0.0102919 0)
(1.04233 0.0104368 0)
(1.04238 0.0105728 0)
(1.04244 0.0106993 0)
(1.04249 0.0108015 0)
(1.04254 0.0108839 0)
(1.04257 0.0109301 0)
(1.04257 0.010955 0)
(1.04252 0.0109676 0)
(1.00069 0.00934116 0)
(1.01046 0.0176148 0)
(1.02019 0.0163732 0)
(1.02498 0.0144058 0)
(1.02685 0.0139007 0)
(1.02839 0.0134629 0)
(1.02999 0.0127222 0)
(1.03131 0.0120409 0)
(1.03232 0.0115381 0)
(1.03313 0.0111325 0)
(1.03384 0.0107716 0)
(1.03447 0.0104514 0)
(1.03503 0.010173 0)
(1.03553 0.00993157 0)
(1.03599 0.00972119 0)
(1.0364 0.00953788 0)
(1.03677 0.00937901 0)
(1.03712 0.00924249 0)
(1.03743 0.00912651 0)
(1.03772 0.00902948 0)
(1.03799 0.00895011 0)
(1.03824 0.00888742 0)
(1.03847 0.00884075 0)
(1.03868 0.00880964 0)
(1.03887 0.00879376 0)
(1.03905 0.0087927 0)
(1.03921 0.00880597 0)
(1.03935 0.00883292 0)
(1.03947 0.00887282 0)
(1.03958 0.00892493 0)
(1.03967 0.00898849 0)
(1.03975 0.00906299 0)
(1.03982 0.0091478 0)
(1.03988 0.00924269 0)
(1.03993 0.00934703 0)
(1.03998 0.00946071 0)
(1.04001 0.00958275 0)
(1.04005 0.00971291 0)
(1.04008 0.00984954 0)
(1.04012 0.00999169 0)
(1.04015 0.0101371 0)
(1.04019 0.0102829 0)
(1.04023 0.0104268 0)
(1.04028 0.0105621 0)
(1.04033 0.0106876 0)
(1.04037 0.0107912 0)
(1.04041 0.0108751 0)
(1.04043 0.0109284 0)
(1.04042 0.0109614 0)
(1.04038 0.0109842 0)
(1.0006 0.00843838 0)
(1.0093 0.0165749 0)
(1.01844 0.0158795 0)
(1.02324 0.0140527 0)
(1.02518 0.01357 0)
(1.02669 0.0132228 0)
(1.02825 0.012559 0)
(1.02957 0.0119069 0)
(1.03058 0.0114184 0)
(1.03139 0.0110288 0)
(1.03209 0.0106822 0)
(1.03272 0.0103722 0)
(1.03327 0.0101013 0)
(1.03376 0.00986618 0)
(1.03421 0.00966118 0)
(1.03461 0.00948248 0)
(1.03497 0.00932762 0)
(1.03531 0.00919467 0)
(1.03562 0.00908192 0)
(1.0359 0.00898785 0)
(1.03616 0.00891122 0)
(1.03641 0.00885111 0)
(1.03663 0.00880691 0)
(1.03683 0.00877824 0)
(1.03701 0.00876476 0)
(1.03718 0.00876615 0)
(1.03733 0.00878187 0)
(1.03746 0.0088113 0)
(1.03758 0.00885362 0)
(1.03768 0.00890808 0)
(1.03776 0.00897386 0)
(1.03784 0.00905038 0)
(1.0379 0.009137 0)
(1.03795 0.00923343 0)
(1.03799 0.00933906 0)
(1.03803 0.00945369 0)
(1.03806 0.00957646 0)
(1.03808 0.00970693 0)
(1.03811 0.00984369 0)
(1.03814 0.00998553 0)
(1.03816 0.0101305 0)
(1.03819 0.0102755 0)
(1.03822 0.0104185 0)
(1.03826 0.0105533 0)
(1.03829 0.010678 0)
(1.03833 0.0107832 0)
(1.03835 0.010869 0)
(1.03836 0.0109287 0)
(1.03834 0.0109695 0)
(1.03829 0.0110013 0)
(1.00051 0.00762009 0)
(1.00825 0.0155629 0)
(1.01679 0.0153738 0)
(1.02158 0.0137069 0)
(1.02359 0.0132408 0)
(1.02507 0.0129734 0)
(1.0266 0.0123889 0)
(1.02792 0.0117701 0)
(1.02893 0.0112964 0)
(1.02973 0.0109225 0)
(1.03043 0.0105907 0)
(1.03105 0.0102914 0)
(1.03159 0.0100285 0)
(1.03208 0.00979983 0)
(1.03251 0.0096004 0)
(1.03291 0.0094265 0)
(1.03327 0.0092758 0)
(1.0336 0.00914655 0)
(1.0339 0.00903714 0)
(1.03418 0.00894614 0)
(1.03443 0.00887235 0)
(1.03466 0.00881493 0)