/*--------------------------------*- C++ -*----------------------------------*\
  =========                 |
  \\      /  F ield         | OpenFOAM: The Open Source CFD Toolbox
   \\    /   O peration     | Website:  https://openfoam.org
    \\  /    A nd           | Version:  7
     \\/     M anipulation  |
\*---------------------------------------------------------------------------*/
FoamFile
{
    version     2.0;
    format      ascii;
    class       volVectorField;
    location    "0.03";
    object      vorticity;
}
// * * * * * * * * * * * * * * * * * * * * * * * * * * * * * * * * * * * * * //

dimensions      [0 0 -1 0 0 0 0];

internalField   nonuniform List<vector> 
70000
(
(0 -0 -45716)
(0 -0 -28617.2)
(0 -0 -20911.7)
(0 -0 -16976.6)
(0 -0 -14953.1)
(0 -0 -13643.3)
(0 -0 -12630.6)
(0 -0 -11814.4)
(0 -0 -11146.3)
(0 -0 -10587.6)
(0 -0 -10110.1)
(0 -0 -9695.23)
(0 -0 -9330.05)
(0 -0 -9005.12)
(0 -0 -8713.32)
(0 -0 -8449.16)
(0 -0 -8208.29)
(0 -0 -7987.26)
(0 -0 -7783.27)
(0 -0 -7594.01)
(0 -0 -7417.57)
(0 -0 -7252.34)
(0 -0 -7096.98)
(0 -0 -6950.31)
(0 -0 -6811.35)
(0 -0 -6679.24)
(0 -0 -6553.23)
(0 -0 -6432.67)
(0 -0 -6317)
(0 -0 -6205.69)
(0 -0 -6098.35)
(0 -0 -5994.54)
(0 -0 -5893.99)
(0 -0 -5796.33)
(0 -0 -5701.41)
(0 -0 -5608.9)
(0 -0 -5518.77)
(0 -0 -5430.83)
(0 -0 -5344.88)
(0 -0 -5261.45)
(0 -0 -5179.14)
(0 -0 -5101.13)
(0 -0 -5021.44)
(0 -0 -4952.06)
(0 -0 -4871.64)
(0 -0 -4820.25)
(0 -0 -4728.42)
(0 -0 -4718.65)
(0 -0 -4610.06)
(0 -0 -4474.42)
(0 -0 -13549.7)
(0 -0 -19947.3)
(0 -0 -18535.7)
(0 -0 -16248)
(0 -0 -14500.5)
(0 -0 -13274.5)
(0 -0 -12343.9)
(0 -0 -11591)
(0 -0 -10965.3)
(0 -0 -10436.2)
(0 -0 -9981.23)
(0 -0 -9584.18)
(0 -0 -9233.42)
(0 -0 -8920.37)
(0 -0 -8638.52)
(0 -0 -8382.83)
(0 -0 -8149.26)
(0 -0 -7934.62)
(0 -0 -7736.25)
(0 -0 -7552.01)
(0 -0 -7380.08)
(0 -0 -7218.94)
(0 -0 -7067.3)
(0 -0 -6924.06)
(0 -0 -6788.27)
(0 -0 -6659.09)
(0 -0 -6535.8)
(0 -0 -6417.76)
(0 -0 -6304.43)
(0 -0 -6195.29)
(0 -0 -6089.92)
(0 -0 -5987.9)
(0 -0 -5888.92)
(0 -0 -5792.62)
(0 -0 -5698.79)
(0 -0 -5607.1)
(0 -0 -5517.45)
(0 -0 -5429.61)
(0 -0 -5343.35)
(0 -0 -5259)
(0 -0 -5175.42)
(0 -0 -5094.91)
(0 -0 -5012.91)
(0 -0 -4938.28)
(0 -0 -4855.05)
(0 -0 -4792.63)
(0 -0 -4700.57)
(0 -0 -4664.59)
(0 -0 -4562)
(0 -0 -4580.21)
(0 -0 -3818.78)
(0 -0 -10829)
(0 -0 -13363.7)
(0 -0 -13519.6)
(0 -0 -12865.6)
(0 -0 -12138.4)
(0 -0 -11495.3)
(0 -0 -10933.2)
(0 -0 -10439.2)
(0 -0 -10004.1)
(0 -0 -9619.06)
(0 -0 -9275.91)
(0 -0 -8967.83)
(0 -0 -8689.33)
(0 -0 -8435.97)
(0 -0 -8204.14)
(0 -0 -7990.86)
(0 -0 -7793.69)
(0 -0 -7610.55)
(0 -0 -7439.71)
(0 -0 -7279.71)
(0 -0 -7129.29)
(0 -0 -6987.36)
(0 -0 -6852.99)
(0 -0 -6725.36)
(0 -0 -6603.74)
(0 -0 -6487.52)
(0 -0 -6376.11)
(0 -0 -6269.02)
(0 -0 -6165.8)
(0 -0 -6066.04)
(0 -0 -5969.38)
(0 -0 -5875.49)
(0 -0 -5784.05)
(0 -0 -5694.82)
(0 -0 -5607.52)
(0 -0 -5521.97)
(0 -0 -5437.95)
(0 -0 -5355.23)
(0 -0 -5273.93)
(0 -0 -5193.28)
(0 -0 -5114.57)
(0 -0 -5035.03)
(0 -0 -4959.83)
(0 -0 -4879.53)
(0 -0 -4810.96)
(0 -0 -4726.32)
(0 -0 -4669.58)
(0 -0 -4582.68)
(0 -0 -4594.16)
(0 -0 -533.057)
(0 -0 -4662.8)
(0 -0 -7719.02)
(0 -0 -9329.56)
(0 -0 -9893.6)
(0 -0 -9958.92)
(0 -0 -9826.89)
(0 -0 -9614.33)
(0 -0 -9370.06)
(0 -0 -9118.74)
(0 -0 -8872.77)
(0 -0 -8637.66)
(0 -0 -8415.47)
(0 -0 -8206.57)
(0 -0 -8010.58)
(0 -0 -7826.73)
(0 -0 -7654.12)
(0 -0 -7491.81)
(0 -0 -7338.91)
(0 -0 -7194.56)
(0 -0 -7057.96)
(0 -0 -6928.41)
(0 -0 -6805.24)
(0 -0 -6687.86)
(0 -0 -6575.74)
(0 -0 -6468.37)
(0 -0 -6365.33)
(0 -0 -6266.21)
(0 -0 -6170.62)
(0 -0 -6078.24)
(0 -0 -5988.75)
(0 -0 -5901.84)
(0 -0 -5817.28)
(0 -0 -5734.78)
(0 -0 -5654.14)
(0 -0 -5575.12)
(0 -0 -5497.55)
(0 -0 -5421.2)
(0 -0 -5345.95)
(0 -0 -5271.64)
(0 -0 -5198.02)
(0 -0 -5125.3)
(0 -0 -5052.65)
(0 -0 -4981.45)
(0 -0 -4909.06)
(0 -0 -4839.54)
(0 -0 -4767.92)
(0 -0 -4697.51)
(0 -0 -4636.09)
(0 -0 -4585.39)
(0 -0 322.454)
(0 -0 -1444.59)
(0 -0 -3533.01)
(0 -0 -5260.29)
(0 -0 -6401.12)
(0 -0 -7076.6)
(0 -0 -7454.61)
(0 -0 -7645.59)
(0 -0 -7717.79)
(0 -0 -7715.49)
(0 -0 -7667.22)
(0 -0 -7591.07)
(0 -0 -7498.39)
(0 -0 -7396.41)
(0 -0 -7289.78)
(0 -0 -7181.45)
(0 -0 -7073.36)
(0 -0 -6966.69)
(0 -0 -6862.21)
(0 -0 -6760.36)
(0 -0 -6661.36)
(0 -0 -6565.3)
(0 -0 -6472.19)
(0 -0 -6381.97)
(0 -0 -6294.54)
(0 -0 -6209.77)
(0 -0 -6127.52)
(0 -0 -6047.65)
(0 -0 -5969.99)
(0 -0 -5894.39)
(0 -0 -5820.69)
(0 -0 -5748.73)
(0 -0 -5678.35)
(0 -0 -5609.4)
(0 -0 -5541.75)
(0 -0 -5475.22)
(0 -0 -5409.7)
(0 -0 -5345.01)
(0 -0 -5281.11)
(0 -0 -5217.69)
(0 -0 -5154.94)
(0 -0 -5092.21)
(0 -0 -5030.32)
(0 -0 -4967.51)
(0 -0 -4906.87)
(0 -0 -4841.93)
(0 -0 -4786.12)
(0 -0 -4711.34)
(0 -0 -4675.59)
(0 -0 -4586.01)
(0 -0 364.711)
(0 -0 -158.542)
(0 -0 -1181.71)
(0 -0 -2362.76)
(0 -0 -3419.08)
(0 -0 -4258.69)
(0 -0 -4894.84)
(0 -0 -5361.4)
(0 -0 -5693.43)
(0 -0 -5922.95)
(0 -0 -6076.3)
(0 -0 -6173.58)
(0 -0 -6229.7)
(0 -0 -6255.58)
(0 -0 -6259.23)
(0 -0 -6246.52)
(0 -0 -6221.77)
(0 -0 -6188.21)
(0 -0 -6148.22)
(0 -0 -6103.58)
(0 -0 -6055.63)
(0 -0 -6005.39)
(0 -0 -5953.62)
(0 -0 -5900.89)
(0 -0 -5847.62)
(0 -0 -5794.15)
(0 -0 -5740.71)
(0 -0 -5687.49)
(0 -0 -5634.59)
(0 -0 -5582.12)
(0 -0 -5530.11)
(0 -0 -5478.59)
(0 -0 -5427.56)
(0 -0 -5377.01)
(0 -0 -5326.91)
(0 -0 -5277.2)
(0 -0 -5227.87)
(0 -0 -5178.77)
(0 -0 -5130.02)
(0 -0 -5081.22)
(0 -0 -5032.89)
(0 -0 -4983.85)
(0 -0 -4936.04)
(0 -0 -4885.67)
(0 -0 -4839.51)
(0 -0 -4784.73)
(0 -0 -4745.11)
(0 -0 -4676.81)
(0 -0 -4658.29)
(0 -0 -4569.19)
(0 -0 254.02)
(0 -0 185.323)
(0 -0 -173.318)
(0 -0 -764.997)
(0 -0 -1448.61)
(0 -0 -2117.25)
(0 -0 -2723.54)
(0 -0 -3247.92)
(0 -0 -3686.24)
(0 -0 -4044.27)
(0 -0 -4332.3)
(0 -0 -4561.45)
(0 -0 -4742.05)
(0 -0 -4883.05)
(0 -0 -4991.91)
(0 -0 -5074.77)
(0 -0 -5136.59)
(0 -0 -5181.38)
(0 -0 -5212.35)
(0 -0 -5232.09)
(0 -0 -5242.7)
(0 -0 -5245.84)
(0 -0 -5242.88)
(0 -0 -5234.91)
(0 -0 -5222.84)
(0 -0 -5207.41)
(0 -0 -5189.2)
(0 -0 -5168.72)
(0 -0 -5146.37)
(0 -0 -5122.49)
(0 -0 -5097.34)
(0 -0 -5071.15)
(0 -0 -5044.09)
(0 -0 -5016.3)
(0 -0 -4987.89)
(0 -0 -4958.93)
(0 -0 -4929.51)
(0 -0 -4899.6)
(0 -0 -4869.38)
(0 -0 -4838.52)
(0 -0 -4807.68)
(0 -0 -4775.56)
(0 -0 -4744.52)
(0 -0 -4710.13)
(0 -0 -4680.31)
(0 -0 -4640.61)
(0 -0 -4616.64)
(0 -0 -4564.02)
(0 -0 -4555.83)
(0 -0 -4488.04)
(0 -0 178.742)
(0 -0 204.516)
(0 -0 130.685)
(0 -0 -85.2845)
(0 -0 -418.273)
(0 -0 -815.864)
(0 -0 -1238.21)
(0 -0 -1656.4)
(0 -0 -2050.56)
(0 -0 -2409.68)
(0 -0 -2729.54)
(0 -0 -3010.06)
(0 -0 -3253.43)
(0 -0 -3462.97)
(0 -0 -3642.37)
(0 -0 -3795.33)
(0 -0 -3925.31)
(0 -0 -4035.43)
(0 -0 -4128.44)
(0 -0 -4206.75)
(0 -0 -4272.43)
(0 -0 -4327.24)
(0 -0 -4372.71)
(0 -0 -4410.13)
(0 -0 -4440.61)
(0 -0 -4465.09)
(0 -0 -4484.37)
(0 -0 -4499.15)
(0 -0 -4510.03)
(0 -0 -4517.52)
(0 -0 -4522.07)
(0 -0 -4524.04)
(0 -0 -4523.76)
(0 -0 -4521.51)
(0 -0 -4517.5)
(0 -0 -4511.95)
(0 -0 -4505.01)
(0 -0 -4496.78)
(0 -0 -4487.49)
(0 -0 -4476.95)
(0 -0 -4465.78)
(0 -0 -4452.94)
(0 -0 -4440.53)
(0 -0 -4424.68)
(0 -0 -4412.45)
(0 -0 -4391.23)
(0 -0 -4382.8)
(0 -0 -4350.83)
(0 -0 -4351.88)
(0 -0 -4309.77)
(0 -0 148.016)
(0 -0 164.612)
(0 -0 170.009)
(0 -0 120.992)
(0 -0 0.942034)
(0 -0 -181.113)
(0 -0 -409.85)
(0 -0 -668.949)
(0 -0 -942.593)
(0 -0 -1217.88)
(0 -0 -1485.6)
(0 -0 -1739.79)
(0 -0 -1976.94)
(0 -0 -2195.41)
(0 -0 -2394.79)
(0 -0 -2575.51)
(0 -0 -2738.51)
(0 -0 -2885.01)
(0 -0 -3016.33)
(0 -0 -3133.84)
(0 -0 -3238.86)
(0 -0 -3332.63)
(0 -0 -3416.3)
(0 -0 -3490.93)
(0 -0 -3557.46)
(0 -0 -3616.76)
(0 -0 -3669.57)
(0 -0 -3716.61)
(0 -0 -3758.47)
(0 -0 -3795.71)
(0 -0 -3828.83)
(0 -0 -3858.27)
(0 -0 -3884.4)
(0 -0 -3907.59)
(0 -0 -3928.1)
(0 -0 -3946.24)
(0 -0 -3962.2)
(0 -0 -3976.2)
(0 -0 -3988.43)
(0 -0 -3998.92)
(0 -0 -4008.1)
(0 -0 -4015.36)
(0 -0 -4022.23)
(0 -0 -4025.95)
(0 -0 -4031.76)
(0 -0 -4030.29)
(0 -0 -4037.75)
(0 -0 -4027.49)
(0 -0 -4039.56)
(0 -0 -4021.81)
(0 -0 136.825)
(0 -0 137.074)
(0 -0 148.75)
(0 -0 149.707)
(0 -0 122.203)
(0 -0 60.0256)
(0 -0 -36.7005)
(0 -0 -164.369)
(0 -0 -316.671)
(0 -0 -486.333)
(0 -0 -666.482)
(0 -0 -851.251)
(0 -0 -1035.95)
(0 -0 -1217.02)
(0 -0 -1391.94)
(0 -0 -1559.02)
(0 -0 -1717.24)
(0 -0 -1866.08)
(0 -0 -2005.39)
(0 -0 -2135.29)
(0 -0 -2256.08)
(0 -0 -2368.15)
(0 -0 -2472.01)
(0 -0 -2568.14)
(0 -0 -2657.08)
(0 -0 -2739.33)
(0 -0 -2815.4)
(0 -0 -2885.77)
(0 -0 -2950.88)
(0 -0 -3011.18)
(0 -0 -3067.06)
(0 -0 -3118.92)
(0 -0 -3167.08)
(0 -0 -3211.9)
(0 -0 -3253.63)
(0 -0 -3292.58)
(0 -0 -3328.93)
(0 -0 -3362.96)
(0 -0 -3394.79)
(0 -0 -3424.62)
(0 -0 -3452.67)
(0 -0 -3478.74)
(0 -0 -3503.74)
(0 -0 -3525.98)
(0 -0 -3549)
(0 -0 -3566.33)
(0 -0 -3589.33)
(0 -0 -3599.34)
(0 -0 -3623.59)
(0 -0 -3627.64)
(0 -0 129.946)
(0 -0 124.004)
(0 -0 129.193)
(0 -0 136.406)
(0 -0 136.505)
(0 -0 123.222)
(0 -0 92.8732)
(0 -0 43.5605)
(0 -0 -24.5966)
(0 -0 -109.812)
(0 -0 -209.363)
(0 -0 -320.166)
(0 -0 -439.136)
(0 -0 -563.42)
(0 -0 -690.533)
(0 -0 -818.399)
(0 -0 -945.35)
(0 -0 -1070.09)
(0 -0 -1191.65)
(0 -0 -1309.33)
(0 -0 -1422.68)
(0 -0 -1531.39)
(0 -0 -1635.34)
(0 -0 -1734.47)
(0 -0 -1828.83)
(0 -0 -1918.53)
(0 -0 -2003.69)
(0 -0 -2084.5)
(0 -0 -2161.15)
(0 -0 -2233.86)
(0 -0 -2302.83)
(0 -0 -2368.32)
(0 -0 -2430.52)
(0 -0 -2489.69)
(0 -0 -2545.99)
(0 -0 -2599.68)
(0 -0 -2650.87)
(0 -0 -2699.84)
(0 -0 -2746.62)
(0 -0 -2791.48)
(0 -0 -2834.47)
(0 -0 -2875.64)
(0 -0 -2915.45)
(0 -0 -2952.95)
(0 -0 -2990.43)
(0 -0 -3023.52)
(0 -0 -3060.02)
(0 -0 -3087.11)
(0 -0 -3122.76)
(0 -0 -3145.07)
(0 -0 122.957)
(0 -0 116.653)
(0 -0 118.027)
(0 -0 122.51)
(0 -0 126.464)
(0 -0 126.941)
(0 -0 121.452)
(0 -0 107.668)
(0 -0 83.9163)
(0 -0 49.4491)
(0 -0 4.31833)
(0 -0 -50.8151)
(0 -0 -114.879)
(0 -0 -186.565)
(0 -0 -264.478)
(0 -0 -347.239)
(0 -0 -433.554)
(0 -0 -522.258)
(0 -0 -612.331)
(0 -0 -702.907)
(0 -0 -793.265)
(0 -0 -882.818)
(0 -0 -971.104)
(0 -0 -1057.76)
(0 -0 -1142.51)
(0 -0 -1225.16)
(0 -0 -1305.56)
(0 -0 -1383.62)
(0 -0 -1459.31)
(0 -0 -1532.61)
(0 -0 -1603.55)
(0 -0 -1672.2)
(0 -0 -1738.59)
(0 -0 -1802.86)
(0 -0 -1865.05)
(0 -0 -1925.32)
(0 -0 -1983.7)
(0 -0 -2040.38)
(0 -0 -2095.34)
(0 -0 -2148.81)
(0 -0 -2200.74)
(0 -0 -2251.26)
(0 -0 -2300.58)
(0 -0 -2348.13)
(0 -0 -2395.42)
(0 -0 -2439.44)
(0 -0 -2485.5)
(0 -0 -2524.97)
(0 -0 -2569.23)
(0 -0 -2605.01)
(0 -0 115.637)
(0 -0 110.423)
(0 -0 110.747)
(0 -0 113.191)
(0 -0 116.012)
(0 -0 118.281)
(0 -0 119.163)
(0 -0 117.446)
(0 -0 111.83)
(0 -0 101.239)
(0 -0 84.9231)
(0 -0 62.4736)
(0 -0 33.7941)
(0 -0 -0.944281)
(0 -0 -41.3668)
(0 -0 -86.9593)
(0 -0 -137.124)
(0 -0 -191.226)
(0 -0 -248.627)
(0 -0 -308.713)
(0 -0 -370.913)
(0 -0 -434.706)
(0 -0 -499.627)
(0 -0 -565.27)
(0 -0 -631.28)
(0 -0 -697.354)
(0 -0 -763.232)
(0 -0 -828.698)
(0 -0 -893.575)
(0 -0 -957.727)
(0 -0 -1021.04)
(0 -0 -1083.46)
(0 -0 -1144.91)
(0 -0 -1205.39)
(0 -0 -1264.87)
(0 -0 -1323.4)
(0 -0 -1380.92)
(0 -0 -1437.56)
(0 -0 -1493.23)
(0 -0 -1548.09)
(0 -0 -1602.04)
(0 -0 -1655.18)
(0 -0 -1707.61)
(0 -0 -1758.93)
(0 -0 -1810.15)
(0 -0 -1859.18)
(0 -0 -1909.53)
(0 -0 -1955.59)
(0 -0 -2004.16)
(0 -0 -2047.7)
(0 -0 108.393)
(0 -0 104.207)
(0 -0 104.424)
(0 -0 106.138)
(0 -0 108.012)
(0 -0 109.73)
(0 -0 111.275)
(0 -0 112.297)
(0 -0 112.208)
(0 -0 110.369)
(0 -0 106.177)
(0 -0 99.1109)
(0 -0 88.7702)
(0 -0 74.8853)
(0 -0 57.3217)
(0 -0 36.063)
(0 -0 11.1943)
(0 -0 -17.1199)
(0 -0 -48.6564)
(0 -0 -83.1536)
(0 -0 -120.328)
(0 -0 -159.888)
(0 -0 -201.545)
(0 -0 -245.022)
(0 -0 -290.053)
(0 -0 -336.392)
(0 -0 -383.808)
(0 -0 -432.093)
(0 -0 -481.056)
(0 -0 -530.534)
(0 -0 -580.377)
(0 -0 -630.473)
(0 -0 -680.71)
(0 -0 -731.025)
(0 -0 -781.331)
(0 -0 -831.614)
(0 -0 -881.791)
(0 -0 -931.898)
(0 -0 -981.841)
(0 -0 -1031.69)
(0 -0 -1081.36)
(0 -0 -1130.87)
(0 -0 -1180.28)
(0 -0 -1229.27)
(0 -0 -1278.53)
(0 -0 -1326.61)
(0 -0 -1375.72)
(0 -0 -1422.4)
(0 -0 -1470.43)
(0 -0 -1515.8)
(0 -0 101.415)
(0 -0 98.0161)
(0 -0 98.2482)
(0 -0 99.7288)
(0 -0 101.248)
(0 -0 102.526)
(0 -0 103.758)
(0 -0 104.951)
(0 -0 105.932)
(0 -0 106.452)
(0 -0 106.223)
(0 -0 104.941)
(0 -0 102.303)
(0 -0 98.0344)
(0 -0 91.9045)
(0 -0 83.7348)
(0 -0 73.4013)
(0 -0 60.8337)
(0 -0 46.0105)
(0 -0 28.9524)
(0 -0 9.71471)
(0 -0 -11.6206)
(0 -0 -34.9521)
(0 -0 -60.165)
(0 -0 -87.1358)
(0 -0 -115.736)
(0 -0 -145.835)
(0 -0 -177.303)
(0 -0 -210.012)
(0 -0 -243.844)
(0 -0 -278.683)
(0 -0 -314.432)
(0 -0 -350.993)
(0 -0 -388.296)
(0 -0 -426.258)
(0 -0 -464.842)
(0 -0 -503.968)
(0 -0 -543.634)
(0 -0 -583.759)
(0 -0 -624.359)
(0 -0 -665.372)
(0 -0 -706.769)
(0 -0 -748.607)
(0 -0 -790.613)
(0 -0 -833.24)
(0 -0 -875.555)
(0 -0 -918.831)
(0 -0 -961.088)
(0 -0 -1004.21)
(0 -0 -1046.27)
(0 -0 94.7394)
(0 -0 91.9675)
(0 -0 92.1882)
(0 -0 93.5205)
(0 -0 94.9081)
(0 -0 96.0134)
(0 -0 97.0193)
(0 -0 98.0237)
(0 -0 98.9986)
(0 -0 99.8764)
(0 -0 100.567)
(0 -0 100.952)
(0 -0 100.888)
(0 -0 100.222)
(0 -0 98.7952)
(0 -0 96.4604)
(0 -0 93.0825)
(0 -0 88.5453)
(0 -0 82.7546)
(0 -0 75.6387)
(0 -0 67.1478)
(0 -0 57.2524)
(0 -0 45.9413)
(0 -0 33.2179)
(0 -0 19.0994)
(0 -0 3.6134)
(0 -0 -13.2022)
(0 -0 -31.3034)
(0 -0 -50.6385)
(0 -0 -71.1556)
(0 -0 -92.7971)
(0 -0 -115.512)
(0 -0 -139.244)
(0 -0 -163.953)
(0 -0 -189.583)
(0 -0 -216.111)
(0 -0 -243.483)
(0 -0 -271.689)
(0 -0 -300.681)
(0 -0 -330.453)
(0 -0 -360.975)
(0 -0 -392.205)
(0 -0 -424.191)
(0 -0 -456.743)
(0 -0 -490.131)
(0 -0 -523.803)
(0 -0 -558.428)
(0 -0 -592.968)
(0 -0 -628.249)
(0 -0 -663.442)
(0 -0 88.364)
(0 -0 86.1126)
(0 -0 86.3154)
(0 -0 87.4984)
(0 -0 88.7882)
(0 -0 89.8146)
(0 -0 90.7141)
(0 -0 91.5898)
(0 -0 92.4458)
(0 -0 93.268)
(0 -0 94.0411)
(0 -0 94.7369)
(0 -0 95.3095)
(0 -0 95.6986)
(0 -0 95.833)
(0 -0 95.6345)
(0 -0 95.0218)
(0 -0 93.9138)
(0 -0 92.2325)
(0 -0 89.9058)
(0 -0 86.8693)
(0 -0 83.0668)
(0 -0 78.4511)
(0 -0 72.9828)
(0 -0 66.6313)
(0 -0 59.3733)
(0 -0 51.1935)
(0 -0 42.0829)
(0 -0 32.0402)
(0 -0 21.0679)
(0 -0 9.175)
(0 -0 -3.62955)
(0 -0 -17.3307)
(0 -0 -31.9189)
(0 -0 -47.3766)
(0 -0 -63.6978)
(0 -0 -80.8646)
(0 -0 -98.8745)
(0 -0 -117.712)
(0 -0 -137.374)
(0 -0 -157.857)
(0 -0 -179.131)
(0 -0 -201.238)
(0 -0 -224.066)
(0 -0 -247.766)
(0 -0 -272.052)
(0 -0 -297.232)
(0 -0 -322.832)
(0 -0 -349.136)
(0 -0 -375.868)
(0 -0 82.2875)
(0 -0 80.4696)
(0 -0 80.6629)
(0 -0 81.7016)
(0 -0 82.8882)
(0 -0 83.8496)
(0 -0 84.6813)
(0 -0 85.4795)
(0 -0 86.2521)
(0 -0 86.9931)
(0 -0 87.705)
(0 -0 88.3884)
(0 -0 89.0358)
(0 -0 89.6315)
(0 -0 90.1526)
(0 -0 90.5699)
(0 -0 90.8485)
(0 -0 90.9492)
(0 -0 90.8299)
(0 -0 90.4469)
(0 -0 89.7568)
(0 -0 88.7172)
(0 -0 87.2872)
(0 -0 85.4282)
(0 -0 83.1042)
(0 -0 80.2815)
(0 -0 76.93)
(0 -0 73.0225)
(0 -0 68.5366)
(0 -0 63.4522)
(0 -0 57.7543)
(0 -0 51.4287)
(0 -0 44.4662)
(0 -0 36.8561)
(0 -0 28.5919)
(0 -0 19.6639)
(0 -0 10.067)
(0 -0 -0.208008)
(0 -0 -11.1677)
(0 -0 -22.8177)
(0 -0 -35.1714)
(0 -0 -48.2197)
(0 -0 -61.997)
(0 -0 -76.455)
(0 -0 -91.6706)
(0 -0 -107.526)
(0 -0 -124.14)
(0 -0 -141.342)
(0 -0 -159.184)
(0 -0 -177.629)
(0 -0 76.5105)
(0 -0 75.0499)
(0 -0 75.2428)
(0 -0 76.1499)
(0 -0 77.2311)
(0 -0 78.1261)
(0 -0 78.8964)
(0 -0 79.6321)
(0 -0 80.3426)
(0 -0 81.0211)
(0 -0 81.6712)
(0 -0 82.2991)
(0 -0 82.9074)
(0 -0 83.4952)
(0 -0 84.0583)
(0 -0 84.5896)
(0 -0 85.0783)
(0 -0 85.5106)
(0 -0 85.8696)
(0 -0 86.136)
(0 -0 86.2888)
(0 -0 86.3058)
(0 -0 86.1639)
(0 -0 85.8392)
(0 -0 85.3071)
(0 -0 84.5429)
(0 -0 83.5219)
(0 -0 82.2196)
(0 -0 80.6133)
(0 -0 78.681)
(0 -0 76.4028)
(0 -0 73.7601)
(0 -0 70.7357)
(0 -0 67.3131)
(0 -0 63.4769)
(0 -0 59.2117)
(0 -0 54.5028)
(0 -0 49.335)
(0 -0 43.6932)
(0 -0 37.5649)
(0 -0 30.9308)
(0 -0 23.785)
(0 -0 16.1013)
(0 -0 7.8874)
(0 -0 -0.89326)
(0 -0 -10.2128)
(0 -0 -20.1066)
(0 -0 -30.5431)
(0 -0 -41.501)
(0 -0 -53.0273)
(0 -0 71.0327)
(0 -0 69.8638)
(0 -0 70.0621)
(0 -0 70.8521)
(0 -0 71.8296)
(0 -0 72.6581)
(0 -0 73.3687)
(0 -0 74.0449)
(0 -0 74.6992)
(0 -0 75.3242)
(0 -0 75.9218)
(0 -0 76.4981)
(0 -0 77.0573)
(0 -0 77.6017)
(0 -0 78.1322)
(0 -0 78.6487)
(0 -0 79.1496)
(0 -0 79.6316)
(0 -0 80.0898)
(0 -0 80.5178)
(0 -0 80.9082)
(0 -0 81.2524)
(0 -0 81.5407)
(0 -0 81.7625)
(0 -0 81.9055)
(0 -0 81.9562)
(0 -0 81.9002)
(0 -0 81.7222)
(0 -0 81.4067)
(0 -0 80.9384)
(0 -0 80.3023)
(0 -0 79.4838)
(0 -0 78.4688)
(0 -0 77.2434)
(0 -0 75.7936)
(0 -0 74.1058)
(0 -0 72.1652)
(0 -0 69.9585)
(0 -0 67.4697)
(0 -0 64.6856)
(0 -0 61.5891)
(0 -0 58.1681)
(0 -0 54.4043)
(0 -0 50.2872)
(0 -0 45.8)
(0 -0 40.9324)
(0 -0 35.6801)
(0 -0 30.022)
(0 -0 23.9905)
(0 -0 17.5227)
(0 -0 65.8527)
(0 -0 64.9198)
(0 -0 65.1265)
(0 -0 65.813)
(0 -0 66.6907)
(0 -0 67.454)
(0 -0 68.1071)
(0 -0 68.7259)
(0 -0 69.326)
(0 -0 69.9005)
(0 -0 70.4497)
(0 -0 70.9791)
(0 -0 71.4927)
(0 -0 71.9931)
(0 -0 72.482)
(0 -0 72.9608)
(0 -0 73.4303)
(0 -0 73.8905)
(0 -0 74.3406)
(0 -0 74.7795)
(0 -0 75.2053)
(0 -0 75.616)
(0 -0 76.0091)
(0 -0 76.3812)
(0 -0 76.7277)
(0 -0 77.0429)
(0 -0 77.32)
(0 -0 77.5511)
(0 -0 77.7281)
(0 -0 77.8425)
(0 -0 77.8857)
(0 -0 77.8495)
(0 -0 77.7252)
(0 -0 77.5046)
(0 -0 77.1784)
(0 -0 76.7381)
(0 -0 76.1735)
(0 -0 75.4751)
(0 -0 74.6317)
(0 -0 73.633)
(0 -0 72.467)
(0 -0 71.1221)
(0 -0 69.5873)
(0 -0 67.8478)
(0 -0 65.8971)
(0 -0 63.7144)
(0 -0 61.304)
(0 -0 58.6345)
(0 -0 55.7301)
(0 -0 52.538)
(0 -0 60.9676)
(0 -0 60.2243)
(0 -0 60.4401)
(0 -0 61.0358)
(0 -0 61.8185)
(0 -0 62.5184)
(0 -0 63.1169)
(0 -0 63.6809)
(0 -0 64.2288)
(0 -0 64.7546)
(0 -0 65.2576)
(0 -0 65.7426)
(0 -0 66.2134)
(0 -0 66.6723)
(0 -0 67.1211)
(0 -0 67.5612)
(0 -0 67.9938)
(0 -0 68.4194)
(0 -0 68.8385)
(0 -0 69.2512)
(0 -0 69.6576)
(0 -0 70.0582)
(0 -0 70.453)
(0 -0 70.842)
(0 -0 71.224)
(0 -0 71.597)
(0 -0 71.9583)
(0 -0 72.3042)
(0 -0 72.6308)
(0 -0 72.9343)
(0 -0 73.2108)
(0 -0 73.4564)
(0 -0 73.6672)
(0 -0 73.8397)
(0 -0 73.9691)
(0 -0 74.0515)
(0 -0 74.0812)
(0 -0 74.0532)
(0 -0 73.9612)
(0 -0 73.7987)
(0 -0 73.5592)
(0 -0 73.234)
(0 -0 72.8178)
(0 -0 72.2984)
(0 -0 71.6739)
(0 -0 70.9262)
(0 -0 70.0602)
(0 -0 69.0503)
(0 -0 67.9109)
(0 -0 66.6053)
(0 -0 56.3736)
(0 -0 55.7814)
(0 -0 56.0055)
(0 -0 56.5218)
(0 -0 57.2152)
(0 -0 57.8538)
(0 -0 58.4006)
(0 -0 58.9128)
(0 -0 59.4109)
(0 -0 59.89)
(0 -0 60.3489)
(0 -0 60.7914)
(0 -0 61.2214)
(0 -0 61.641)
(0 -0 62.0517)
(0 -0 62.4549)
(0 -0 62.8516)
(0 -0 63.2424)
(0 -0 63.6278)
(0 -0 64.0082)
(0 -0 64.3842)
(0 -0 64.7569)
(0 -0 65.1274)
(0 -0 65.4963)
(0 -0 65.8639)
(0 -0 66.2296)
(0 -0 66.5921)
(0 -0 66.9496)
(0 -0 67.3002)
(0 -0 67.6423)
(0 -0 67.9743)
(0 -0 68.295)
(0 -0 68.6032)
(0 -0 68.8979)
(0 -0 69.1777)
(0 -0 69.4413)
(0 -0 69.6864)
(0 -0 69.9109)
(0 -0 70.112)
(0 -0 70.2866)
(0 -0 70.4315)
(0 -0 70.5418)
(0 -0 70.6154)
(0 -0 70.6443)
(0 -0 70.6287)
(0 -0 70.5564)
(0 -0 70.4311)
(0 -0 70.2359)
(0 -0 69.9791)
(0 -0 69.6372)
(0 -0 52.0655)
(0 -0 51.5931)
(0 -0 51.8233)
(0 -0 52.2706)
(0 -0 52.8811)
(0 -0 53.4606)
(0 -0 53.9588)
(0 -0 54.4223)
(0 -0 54.8731)
(0 -0 55.3079)
(0 -0 55.7247)
(0 -0 56.127)
(0 -0 56.5181)
(0 -0 56.9002)
(0 -0 57.2747)
(0 -0 57.6428)
(0 -0 58.0054)
(0 -0 58.363)
(0 -0 58.7159)
(0 -0 59.0644)
(0 -0 59.4095)
(0 -0 59.7521)
(0 -0 60.0935)
(0 -0 60.4349)
(0 -0 60.7766)
(0 -0 61.1183)
(0 -0 61.4592)
(0 -0 61.7982)
(0 -0 62.1339)
(0 -0 62.4657)
(0 -0 62.7928)
(0 -0 63.1153)
(0 -0 63.4332)
(0 -0 63.747)
(0 -0 64.0565)
(0 -0 64.3619)
(0 -0 64.6629)
(0 -0 64.9589)
(0 -0 65.249)
(0 -0 65.532)
(0 -0 65.8069)
(0 -0 66.0711)
(0 -0 66.3242)
(0 -0 66.5618)
(0 -0 66.7846)
(0 -0 66.9857)
(0 -0 67.1674)
(0 -0 67.3199)
(0 -0 67.448)
(0 -0 67.5377)
(0 -0 48.037)
(0 -0 47.6591)
(0 -0 47.8924)
(0 -0 48.28)
(0 -0 48.8144)
(0 -0 49.3374)
(0 -0 49.7899)
(0 -0 50.208)
(0 -0 50.6143)
(0 -0 51.0071)
(0 -0 51.3842)
(0 -0 51.7483)
(0 -0 52.1026)
(0 -0 52.4493)
(0 -0 52.7895)
(0 -0 53.1244)
(0 -0 53.4547)
(0 -0 53.7807)
(0 -0 54.1028)
(0 -0 54.4211)
(0 -0 54.7364)
(0 -0 55.0499)
(0 -0 55.3629)
(0 -0 55.6764)
(0 -0 55.9909)
(0 -0 56.3061)
(0 -0 56.621)
(0 -0 56.9347)
(0 -0 57.2461)
(0 -0 57.5545)
(0 -0 57.8597)
(0 -0 58.1623)
(0 -0 58.4626)
(0 -0 58.7616)
(0 -0 59.06)
(0 -0 59.3585)
(0 -0 59.6574)
(0 -0 59.9569)
(0 -0 60.2571)
(0 -0 60.5576)
(0 -0 60.8582)
(0 -0 61.158)
(0 -0 61.457)
(0 -0 61.7531)
(0 -0 62.047)
(0 -0 62.335)
(0 -0 62.6186)
(0 -0 62.8925)
(0 -0 63.1596)
(0 -0 63.4117)
(0 -0 44.2803)
(0 -0 43.9771)
(0 -0 44.21)
(0 -0 44.5461)
(0 -0 45.0113)
(0 -0 45.4808)
(0 -0 45.8904)
(0 -0 46.2664)
(0 -0 46.6311)
(0 -0 46.9845)
(0 -0 47.3243)
(0 -0 47.6525)
(0 -0 47.9722)
(0 -0 48.2854)
(0 -0 48.5934)
(0 -0 48.897)
(0 -0 49.1968)
(0 -0 49.4932)
(0 -0 49.7861)
(0 -0 50.0758)
(0 -0 50.363)
(0 -0 50.649)
(0 -0 50.9349)
(0 -0 51.2219)
(0 -0 51.5103)
(0 -0 51.7996)
(0 -0 52.0889)
(0 -0 52.3769)
(0 -0 52.6627)
(0 -0 52.9457)
(0 -0 53.2257)
(0 -0 53.5034)
(0 -0 53.7795)
(0 -0 54.0551)
(0 -0 54.331)
(0 -0 54.6082)
(0 -0 54.8872)
(0 -0 55.1687)
(0 -0 55.4528)
(0 -0 55.7397)
(0 -0 56.0294)
(0 -0 56.3216)
(0 -0 56.6165)
(0 -0 56.9133)
(0 -0 57.2122)
(0 -0 57.5116)
(0 -0 57.8122)
(0 -0 58.1113)
(0 -0 58.4109)
(0 -0 58.7058)
(0 -0 40.7869)
(0 -0 40.5427)
(0 -0 40.7715)
(0 -0 41.0634)
(0 -0 41.4665)
(0 -0 41.8855)
(0 -0 42.2552)
(0 -0 42.5923)
(0 -0 42.9184)
(0 -0 43.2349)
(0 -0 43.5398)
(0 -0 43.8345)
(0 -0 44.1218)
(0 -0 44.4038)
(0 -0 44.6815)
(0 -0 44.9559)
(0 -0 45.2272)
(0 -0 45.4957)
(0 -0 45.7613)
(0 -0 46.0242)
(0 -0 46.285)
(0 -0 46.5451)
(0 -0 46.8057)
(0 -0 47.0677)
(0 -0 47.3314)
(0 -0 47.5963)
(0 -0 47.8611)
(0 -0 48.1246)
(0 -0 48.3858)
(0 -0 48.6439)
(0 -0 48.8991)
(0 -0 49.1519)
(0 -0 49.4032)
(0 -0 49.6541)
(0 -0 49.9056)
(0 -0 50.1586)
(0 -0 50.4139)
(0 -0 50.672)
(0 -0 50.9332)
(0 -0 51.1978)
(0 -0 51.4659)
(0 -0 51.7374)
(0 -0 52.0125)
(0 -0 52.2909)
(0 -0 52.5726)
(0 -0 52.8571)
(0 -0 53.1444)
(0 -0 53.4333)
(0 -0 53.7249)
(0 -0 54.0162)
(0 -0 37.5471)
(0 -0 37.3498)
(0 -0 37.5708)
(0 -0 37.8247)
(0 -0 38.1726)
(0 -0 38.5445)
(0 -0 38.8771)
(0 -0 39.1787)
(0 -0 39.469)
(0 -0 39.7514)
(0 -0 40.0238)
(0 -0 40.2874)
(0 -0 40.5447)
(0 -0 40.7976)
(0 -0 41.0472)
(0 -0 41.2942)
(0 -0 41.539)
(0 -0 41.7816)
(0 -0 42.0217)
(0 -0 42.2596)
(0 -0 42.4958)
(0 -0 42.7318)
(0 -0 42.9686)
(0 -0 43.2073)
(0 -0 43.448)
(0 -0 43.69)
(0 -0 43.9319)
(0 -0 44.1724)
(0 -0 44.4102)
(0 -0 44.6448)
(0 -0 44.8764)
(0 -0 45.1054)
(0 -0 45.3328)
(0 -0 45.5598)
(0 -0 45.7875)
(0 -0 46.0168)
(0 -0 46.2484)
(0 -0 46.4829)
(0 -0 46.7205)
(0 -0 46.9615)
(0 -0 47.206)
(0 -0 47.4542)
(0 -0 47.7059)
(0 -0 47.9612)
(0 -0 48.2199)
(0 -0 48.482)
(0 -0 48.7471)
(0 -0 49.0149)
(0 -0 49.2859)
(0 -0 49.5581)
(0 -0 34.5502)
(0 -0 34.3909)
(0 -0 34.6003)
(0 -0 34.8215)
(0 -0 35.1209)
(0 -0 35.4493)
(0 -0 35.7475)
(0 -0 36.0167)
(0 -0 36.2744)
(0 -0 36.5252)
(0 -0 36.7677)
(0 -0 37.0025)
(0 -0 37.232)
(0 -0 37.4581)
(0 -0 37.6817)
(0 -0 37.9036)
(0 -0 38.1238)
(0 -0 38.3424)
(0 -0 38.5589)
(0 -0 38.7736)
(0 -0 38.9871)
(0 -0 39.2006)
(0 -0 39.4155)
(0 -0 39.6326)
(0 -0 39.8519)
(0 -0 40.0726)
(0 -0 40.2932)
(0 -0 40.5121)
(0 -0 40.7281)
(0 -0 40.9407)
(0 -0 41.1499)
(0 -0 41.3565)
(0 -0 41.5615)
(0 -0 41.766)
(0 -0 41.9711)
(0 -0 42.1779)
(0 -0 42.3869)
(0 -0 42.5988)
(0 -0 42.8137)
(0 -0 43.032)
(0 -0 43.2537)
(0 -0 43.4789)
(0 -0 43.7073)
(0 -0 43.9394)
(0 -0 44.1746)
(0 -0 44.4133)
(0 -0 44.6548)
(0 -0 44.8994)
(0 -0 45.1469)
(0 -0 45.3964)
(0 -0 31.7847)
(0 -0 31.6565)
(0 -0 31.8513)
(0 -0 32.0448)
(0 -0 32.302)
(0 -0 32.5905)
(0 -0 32.857)
(0 -0 33.0968)
(0 -0 33.3248)
(0 -0 33.5466)
(0 -0 33.7615)
(0 -0 33.97)
(0 -0 34.174)
(0 -0 34.3754)
(0 -0 34.5751)
(0 -0 34.7738)
(0 -0 34.9716)
(0 -0 35.168)
(0 -0 35.3629)
(0 -0 35.5562)
(0 -0 35.7487)
(0 -0 35.9416)
(0 -0 36.1363)
(0 -0 36.3335)
(0 -0 36.5331)
(0 -0 36.7341)
(0 -0 36.9349)
(0 -0 37.1338)
(0 -0 37.3296)
(0 -0 37.5216)
(0 -0 37.71)
(0 -0 37.8957)
(0 -0 38.0796)
(0 -0 38.263)
(0 -0 38.4471)
(0 -0 38.6327)
(0 -0 38.8206)
(0 -0 39.0113)
(0 -0 39.2049)
(0 -0 39.4018)
(0 -0 39.6019)
(0 -0 39.8054)
(0 -0 40.0119)
(0 -0 40.2218)
(0 -0 40.4346)
(0 -0 40.6508)
(0 -0 40.8695)
(0 -0 41.0913)
(0 -0 41.3159)
(0 -0 41.5426)
(0 -0 29.2387)
(0 -0 29.1359)
(0 -0 29.3142)
(0 -0 29.4846)
(0 -0 29.7053)
(0 -0 29.9576)
(0 -0 30.195)
(0 -0 30.4082)
(0 -0 30.6093)
(0 -0 30.8047)
(0 -0 30.9944)
(0 -0 31.1787)
(0 -0 31.3594)
(0 -0 31.5383)
(0 -0 31.7162)
(0 -0 31.8937)
(0 -0 32.0709)
(0 -0 32.2471)
(0 -0 32.4222)
(0 -0 32.5959)
(0 -0 32.7692)
(0 -0 32.9432)
(0 -0 33.1194)
(0 -0 33.2984)
(0 -0 33.48)
(0 -0 33.663)
(0 -0 33.8456)
(0 -0 34.0261)
(0 -0 34.2031)
(0 -0 34.3761)
(0 -0 34.5452)
(0 -0 34.7114)
(0 -0 34.8757)
(0 -0 35.0396)
(0 -0 35.204)
(0 -0 35.37)
(0 -0 35.5383)
(0 -0 35.7092)
(0 -0 35.883)
(0 -0 36.06)
(0 -0 36.24)
(0 -0 36.4232)
(0 -0 36.6092)
(0 -0 36.7985)
(0 -0 36.9903)
(0 -0 37.1854)
(0 -0 37.3828)
(0 -0 37.5832)
(0 -0 37.786)
(0 -0 37.9912)
(0 -0 26.8996)
(0 -0 26.8177)
(0 -0 26.9787)
(0 -0 27.1295)
(0 -0 27.319)
(0 -0 27.5389)
(0 -0 27.7498)
(0 -0 27.939)
(0 -0 28.1159)
(0 -0 28.2874)
(0 -0 28.4542)
(0 -0 28.6165)
(0 -0 28.7761)
(0 -0 28.9344)
(0 -0 29.0925)
(0 -0 29.2508)
(0 -0 29.4092)
(0 -0 29.5672)
(0 -0 29.7242)
(0 -0 29.8802)
(0 -0 30.0359)
(0 -0 30.1928)
(0 -0 30.3522)
(0 -0 30.5147)
(0 -0 30.6799)
(0 -0 30.8465)
(0 -0 31.0126)
(0 -0 31.1762)
(0 -0 31.3359)
(0 -0 31.4914)
(0 -0 31.6427)
(0 -0 31.7909)
(0 -0 31.9371)
(0 -0 32.0828)
(0 -0 32.2291)
(0 -0 32.377)
(0 -0 32.527)
(0 -0 32.6797)
(0 -0 32.8353)
(0 -0 32.9938)
(0 -0 33.1552)
(0 -0 33.3196)
(0 -0 33.4867)
(0 -0 33.6568)
(0 -0 33.8293)
(0 -0 34.0048)
(0 -0 34.1824)
(0 -0 34.3629)
(0 -0 34.5454)
(0 -0 34.7305)
(0 -0 24.7546)
(0 -0 24.6897)
(0 -0 24.8335)
(0 -0 24.9677)
(0 -0 25.1307)
(0 -0 25.3219)
(0 -0 25.5086)
(0 -0 25.6764)
(0 -0 25.8318)
(0 -0 25.9817)
(0 -0 26.1277)
(0 -0 26.2703)
(0 -0 26.4107)
(0 -0 26.5505)
(0 -0 26.6907)
(0 -0 26.8317)
(0 -0 26.9733)
(0 -0 27.1147)
(0 -0 27.2553)
(0 -0 27.3953)
(0 -0 27.5353)
(0 -0 27.6767)
(0 -0 27.8209)
(0 -0 27.9685)
(0 -0 28.119)
(0 -0 28.2707)
(0 -0 28.4217)
(0 -0 28.57)
(0 -0 28.714)
(0 -0 28.8534)
(0 -0 28.9884)
(0 -0 29.1201)
(0 -0 29.2497)
(0 -0 29.3787)
(0 -0 29.5083)
(0 -0 29.6395)
(0 -0 29.7728)
(0 -0 29.9088)
(0 -0 30.0475)
(0 -0 30.1891)
(0 -0 30.3334)
(0 -0 30.4806)
(0 -0 30.6303)
(0 -0 30.7828)
(0 -0 30.9374)
(0 -0 31.0949)
(0 -0 31.2542)
(0 -0 31.4164)
(0 -0 31.5803)
(0 -0 31.7467)
(0 -0 22.7908)
(0 -0 22.7398)
(0 -0 22.8669)
(0 -0 22.9869)
(0 -0 23.1276)
(0 -0 23.2935)
(0 -0 23.4585)
(0 -0 23.6071)
(0 -0 23.7433)
(0 -0 23.874)
(0 -0 24.0014)
(0 -0 24.1262)
(0 -0 24.2494)
(0 -0 24.3727)
(0 -0 24.4968)
(0 -0 24.6223)
(0 -0 24.7487)
(0 -0 24.8753)
(0 -0 25.0013)
(0 -0 25.1269)
(0 -0 25.2527)
(0 -0 25.3803)
(0 -0 25.511)
(0 -0 25.6452)
(0 -0 25.7824)
(0 -0 25.9209)
(0 -0 26.0584)
(0 -0 26.1928)
(0 -0 26.3226)
(0 -0 26.4474)
(0 -0 26.5675)
(0 -0 26.6841)
(0 -0 26.7985)
(0 -0 26.9123)
(0 -0 27.0267)
(0 -0 27.1426)
(0 -0 27.2607)
(0 -0 27.3813)
(0 -0 27.5047)
(0 -0 27.6308)
(0 -0 27.7596)
(0 -0 27.891)
(0 -0 28.0248)
(0 -0 28.1612)
(0 -0 28.2995)
(0 -0 28.4405)
(0 -0 28.5831)
(0 -0 28.7284)
(0 -0 28.8753)
(0 -0 29.0245)
(0 -0 20.9951)
(0 -0 20.9553)
(0 -0 21.0671)
(0 -0 21.1746)
(0 -0 21.2966)
(0 -0 21.4406)
(0 -0 21.5861)
(0 -0 21.7177)
(0 -0 21.837)
(0 -0 21.9506)
(0 -0 22.0614)
(0 -0 22.1702)
(0 -0 22.2781)
(0 -0 22.3866)
(0 -0 22.4964)
(0 -0 22.6081)
(0 -0 22.721)
(0 -0 22.8344)
(0 -0 22.9474)
(0 -0 23.0602)
(0 -0 23.1734)
(0 -0 23.2886)
(0 -0 23.4073)
(0 -0 23.5297)
(0 -0 23.6552)
(0 -0 23.7819)
(0 -0 23.9073)
(0 -0 24.0293)
(0 -0 24.1463)
(0 -0 24.2579)
(0 -0 24.3645)
(0 -0 24.4674)
(0 -0 24.568)
(0 -0 24.6679)
(0 -0 24.7684)
(0 -0 24.8705)
(0 -0 24.9747)
(0 -0 25.0815)
(0 -0 25.1909)
(0 -0 25.303)
(0 -0 25.4176)
(0 -0 25.5348)
(0 -0 25.6541)
(0 -0 25.7758)
(0 -0 25.8994)
(0 -0 26.0254)
(0 -0 26.1529)
(0 -0 26.2828)
(0 -0 26.4141)
(0 -0 26.5477)
(0 -0 19.3547)
(0 -0 19.3241)
(0 -0 19.4219)
(0 -0 19.5185)
(0 -0 19.6248)
(0 -0 19.75)
(0 -0 19.8783)
(0 -0 19.9947)
(0 -0 20.0992)
(0 -0 20.1977)
(0 -0 20.2936)
(0 -0 20.3882)
(0 -0 20.4826)
(0 -0 20.5779)
(0 -0 20.6751)
(0 -0 20.7744)
(0 -0 20.8755)
(0 -0 20.9772)
(0 -0 21.0788)
(0 -0 21.1801)
(0 -0 21.2822)
(0 -0 21.3866)
(0 -0 21.4946)
(0 -0 21.6067)
(0 -0 21.7218)
(0 -0 21.8381)
(0 -0 21.9528)
(0 -0 22.0637)
(0 -0 22.1693)
(0 -0 22.269)
(0 -0 22.3635)
(0 -0 22.454)
(0 -0 22.5422)
(0 -0 22.6296)
(0 -0 22.7175)
(0 -0 22.8071)
(0 -0 22.8988)
(0 -0 22.993)
(0 -0 23.0899)
(0 -0 23.1893)
(0 -0 23.2912)
(0 -0 23.3955)
(0 -0 23.5018)
(0 -0 23.6103)
(0 -0 23.7205)
(0 -0 23.833)
(0 -0 23.9468)
(0 -0 24.0628)
(0 -0 24.18)
(0 -0 24.2995)
(0 -0 17.8571)
(0 -0 17.8339)
(0 -0 17.9193)
(0 -0 18.0063)
(0 -0 18.0997)
(0 -0 18.2088)
(0 -0 18.3218)
(0 -0 18.4248)
(0 -0 18.5163)
(0 -0 18.6015)
(0 -0 18.6844)
(0 -0 18.7665)
(0 -0 18.8487)
(0 -0 18.9324)
(0 -0 19.0185)
(0 -0 19.1071)
(0 -0 19.1976)
(0 -0 19.2891)
(0 -0 19.3805)
(0 -0 19.4719)
(0 -0 19.5642)
(0 -0 19.6591)
(0 -0 19.7578)
(0 -0 19.8608)
(0 -0 19.967)
(0 -0 20.0742)
(0 -0 20.1795)
(0 -0 20.2807)
(0 -0 20.376)
(0 -0 20.4652)
(0 -0 20.5488)
(0 -0 20.6282)
(0 -0 20.7051)
(0 -0 20.7812)
(0 -0 20.8579)
(0 -0 20.9362)
(0 -0 21.0167)
(0 -0 21.0997)
(0 -0 21.1853)
(0 -0 21.2734)
(0 -0 21.3638)
(0 -0 21.4565)
(0 -0 21.5511)
(0 -0 21.6479)
(0 -0 21.7461)
(0 -0 21.8464)
(0 -0 21.9479)
(0 -0 22.0514)
(0 -0 22.156)
(0 -0 22.2626)
(0 -0 16.4901)
(0 -0 16.4728)
(0 -0 16.5476)
(0 -0 16.6261)
(0 -0 16.7087)
(0 -0 16.8043)
(0 -0 16.904)
(0 -0 16.9952)
(0 -0 17.0754)
(0 -0 17.149)
(0 -0 17.2203)
(0 -0 17.2912)
(0 -0 17.3629)
(0 -0 17.4364)
(0 -0 17.5127)
(0 -0 17.5918)
(0 -0 17.6732)
(0 -0 17.7558)
(0 -0 17.8384)
(0 -0 17.9211)
(0 -0 18.0048)
(0 -0 18.0914)
(0 -0 18.1821)
(0 -0 18.2773)
(0 -0 18.3757)
(0 -0 18.475)
(0 -0 18.5722)
(0 -0 18.6648)
(0 -0 18.7511)
(0 -0 18.8309)
(0 -0 18.9047)
(0 -0 18.9742)
(0 -0 19.0411)
(0 -0 19.1071)
(0 -0 19.1737)
(0 -0 19.2419)
(0 -0 19.3124)
(0 -0 19.3853)
(0 -0 19.4608)
(0 -0 19.5388)
(0 -0 19.6191)
(0 -0 19.7015)
(0 -0 19.7857)
(0 -0 19.8718)
(0 -0 19.9594)
(0 -0 20.0488)
(0 -0 20.1393)
(0 -0 20.2317)
(0 -0 20.325)
(0 -0 20.4201)
(0 -0 15.2421)
(0 -0 15.2298)
(0 -0 15.2954)
(0 -0 15.3663)
(0 -0 15.4401)
(0 -0 15.5244)
(0 -0 15.6126)
(0 -0 15.6935)
(0 -0 15.7637)
(0 -0 15.8272)
(0 -0 15.8884)
(0 -0 15.9496)
(0 -0 16.0119)
(0 -0 16.0765)
(0 -0 16.1442)
(0 -0 16.2152)
(0 -0 16.2887)
(0 -0 16.3634)
(0 -0 16.4384)