/*--------------------------------*- C++ -*----------------------------------*\
  =========                 |
  \\      /  F ield         | OpenFOAM: The Open Source CFD Toolbox
   \\    /   O peration     | Website:  https://openfoam.org
    \\  /    A nd           | Version:  7
     \\/     M anipulation  |
\*---------------------------------------------------------------------------*/
FoamFile
{
    version     2.0;
    format      ascii;
    class       volVectorField;
    location    "0.03";
    object      wallShearStress;
}
// * * * * * * * * * * * * * * * * * * * * * * * * * * * * * * * * * * * * * //

dimensions      [0 2 -2 0 0 0 0];

internalField   uniform (0 0 0);

boundaryField
{
    velocityInlet
    {
        type            calculated;
        value           uniform (0 0 0);
    }
    pressureOutlet
    {
        type            calculated;
        value           uniform (0 0 0);
    }
    fixedWalls
    {
        type            calculated;
        value           nonuniform List<vector> 
100
(
(-0.0163396 -0.00436997 0)
(-0.00294268 -0.000838722 0)
(-0.00399149 0.000257107 0)
(-0.00456036 0.000122353 0)
(-0.00483135 4.27105e-05 0)
(-0.00476335 -8.18941e-06 0)
(-0.00446059 -3.83159e-05 0)
(-0.00406599 -5.10742e-05 0)
(-0.00365466 -5.5042e-05 0)
(-0.00326308 -5.36282e-05 0)
(-0.00291769 -4.77833e-05 0)
(-0.00264013 -3.82793e-05 0)
(-0.00244514 -2.64579e-05 0)
(-0.00233864 -1.43947e-05 0)
(-0.00231618 -3.34496e-06 0)
(-0.00236437 6.42086e-06 0)
(-0.00246456 1.3201e-05 0)
(-0.00259609 1.69339e-05 0)
(-0.00273939 1.79332e-05 0)
(-0.00287812 1.67861e-05 0)
(-0.00300012 1.41773e-05 0)
(-0.0030976 1.07691e-05 0)
(-0.00316682 7.23544e-06 0)
(-0.00320752 4.20336e-06 0)
(-0.00322198 2.13422e-06 0)
(-0.00321469 2.87427e-07 0)
(-0.00319152 -6.0297e-07 0)
(-0.00315834 -8.35703e-07 0)
(-0.00312004 -7.59356e-07 0)
(-0.00307961 -7.343e-07 0)
(-0.00303808 -1.03005e-06 0)
(-0.0029946 -1.93569e-06 0)
(-0.00294794 -3.49148e-06 0)
(-0.00290401 -4.15507e-06 0)
(-0.00288336 -2.31742e-06 0)
(-0.0029066 2.38894e-06 0)
(-0.00297458 4.77387e-06 0)
(-0.00309832 9.88297e-06 0)
(-0.0033491 2.90624e-05 0)
(-0.00378564 5.48437e-05 0)
(-0.00430738 5.92602e-05 0)
(-0.00471504 3.62367e-05 0)
(-0.00496463 1.77555e-05 0)
(-0.00521948 2.78269e-05 0)
(-0.00563611 5.41533e-05 0)
(-0.00630447 9.32894e-05 0)
(-0.00724784 0.000136874 0)
(-0.00812741 0.000142062 0)
(-0.00816399 4.48438e-05 0)
(-0.00642077 -0.000183294 0)
(-0.00265513 -0.000473999 0)
(0.00218331 -0.000552633 0)
(0.00637634 -0.000503045 0)
(0.00885543 -0.000292949 0)
(0.00923825 -4.33179e-05 0)
(0.00779837 0.000160702 0)
(0.00522643 0.000267947 0)
(0.00234727 0.000277414 0)
(-0.000184503 0.000229852 0)
(-0.00204023 0.000157272 0)
(-0.00317392 8.91266e-05 0)
(-0.00373004 4.00934e-05 0)
(-0.00390968 1.15952e-05 0)
(-0.00388206 -3.81701e-06 0)
(-0.00375452 -1.18058e-05 0)
(-0.00359195 -1.45381e-05 0)
(-0.00344818 -1.17573e-05 0)
(-0.00336768 -4.93513e-06 0)
(-0.00336669 2.81258e-06 0)
(-0.00342527 8.27984e-06 0)
(-0.0035116 1.0997e-05 0)
(-0.00361536 1.40528e-05 0)
(-0.00375221 1.95619e-05 0)
(-0.00393459 2.61087e-05 0)
(-0.00414514 3.0757e-05 0)
(-0.00433154 3.1132e-05 0)
(-0.0044068 2.48486e-05 0)
(-0.00424897 3.24478e-06 0)
(-0.00371888 -3.45476e-05 0)
(-0.00272401 -8.51726e-05 0)
(-0.00128039 -0.000137456 0)
(0.000359453 -0.000152396 0)
(0.00175347 -0.000131826 0)
(0.0025034 -6.92955e-05 0)
(0.0024495 3.55295e-06 0)
(0.00173402 5.93316e-05 0)
(0.000660018 8.52087e-05 0)
(-0.000478147 8.47364e-05 0)
(-0.0014743 7.15597e-05 0)
(-0.00228109 5.5775e-05 0)
(-0.00290157 4.28866e-05 0)
(-0.00341196 3.28147e-05 0)
(-0.00380002 2.35836e-05 0)
(-0.00422301 2.60212e-05 0)
(-0.00490855 5.07249e-05 0)
(-0.00588058 6.44884e-05 0)
(-0.00676312 7.77659e-05 0)
(-0.0081937 7.10153e-05 0)
(-0.00828544 2.76993e-05 0)
(-0.00959001 4.70279e-05 0)
)
;
    }
    bottomWall
    {
        type            calculated;
        value           nonuniform List<vector> 
800
(
(-0.0353512 0.00216562 0)
(-0.0160365 0.00052496 0)
(-0.0105907 0.000100548 0)
(-0.00845619 3.45813e-05 0)
(-0.0074925 1.96733e-05 0)
(-0.00685726 1.60001e-05 0)
(-0.00634897 1.31982e-05 0)
(-0.00593833 1.07466e-05 0)
(-0.00560439 8.9434e-06 0)
(-0.00532643 7.64073e-06 0)
(-0.00508989 6.65256e-06 0)
(-0.00488535 5.87074e-06 0)
(-0.00470635 5.23643e-06 0)
(-0.00454816 4.7129e-06 0)
(-0.00440719 4.27463e-06 0)
(-0.00428066 3.90317e-06 0)
(-0.00416638 3.58485e-06 0)
(-0.0040626 3.3094e-06 0)
(-0.0039679 3.06895e-06 0)
(-0.00388112 2.85739e-06 0)
(-0.0038013 2.66993e-06 0)
(-0.00372763 2.50272e-06 0)
(-0.00365943 2.35269e-06 0)
(-0.00359613 2.21734e-06 0)
(-0.00353723 2.09462e-06 0)
(-0.00348231 1.98283e-06 0)
(-0.00343099 1.88056e-06 0)
(-0.00338296 1.78663e-06 0)
(-0.00333793 1.70004e-06 0)
(-0.00329564 1.61992e-06 0)
(-0.00325589 1.54554e-06 0)
(-0.00321847 1.47626e-06 0)
(-0.00318321 1.41152e-06 0)
(-0.00314995 1.35085e-06 0)
(-0.00311856 1.29382e-06 0)
(-0.00308891 1.24007e-06 0)
(-0.00306088 1.18928e-06 0)
(-0.00303438 1.14117e-06 0)
(-0.0030093 1.09549e-06 0)
(-0.00298556 1.05201e-06 0)
(-0.00296308 1.01058e-06 0)
(-0.0029418 9.70959e-07 0)
(-0.00292164 9.33127e-07 0)
(-0.00290255 8.96707e-07 0)
(-0.00288445 8.62034e-07 0)
(-0.00286732 8.28205e-07 0)
(-0.00285108 7.96471e-07 0)
(-0.00283572 7.64528e-07 0)
(-0.00282115 7.35574e-07 0)
(-0.00280739 7.03963e-07 0)
(-0.00279611 6.77837e-07 0)
(-0.00278693 6.63145e-07 0)
(-0.00277799 6.43978e-07 0)
(-0.00276932 6.23087e-07 0)
(-0.00276093 6.03208e-07 0)
(-0.00275281 5.84134e-07 0)
(-0.00274496 5.65363e-07 0)
(-0.00273736 5.4681e-07 0)
(-0.00273002 5.28515e-07 0)
(-0.00272293 5.10489e-07 0)
(-0.00271609 4.9272e-07 0)
(-0.0027095 4.75203e-07 0)
(-0.00270314 4.57936e-07 0)
(-0.00269703 4.40921e-07 0)
(-0.00269114 4.2416e-07 0)
(-0.00268549 4.07656e-07 0)
(-0.00268006 3.91413e-07 0)
(-0.00267485 3.75437e-07 0)
(-0.00266986 3.59734e-07 0)
(-0.00266509 3.44312e-07 0)
(-0.00266052 3.2918e-07 0)
(-0.00265615 3.14347e-07 0)
(-0.00265199 2.99823e-07 0)
(-0.00264802 2.85618e-07 0)
(-0.00264424 2.71742e-07 0)
(-0.00264064 2.58204e-07 0)
(-0.00263722 2.4501e-07 0)
(-0.00263397 2.32168e-07 0)
(-0.0026309 2.19685e-07 0)
(-0.00262798 2.0757e-07 0)
(-0.00262523 1.9583e-07 0)
(-0.00262262 1.84478e-07 0)
(-0.00262016 1.73529e-07 0)
(-0.00261783 1.63004e-07 0)
(-0.00261564 1.52927e-07 0)
(-0.00261357 1.43327e-07 0)
(-0.00261163 1.34237e-07 0)
(-0.00260979 1.25688e-07 0)
(-0.00260805 1.17712e-07 0)
(-0.00260642 1.10335e-07 0)
(-0.00260487 1.03573e-07 0)
(-0.0026034 9.74321e-08 0)
(-0.002602 9.19004e-08 0)
(-0.00260067 8.69507e-08 0)
(-0.00259941 8.25375e-08 0)
(-0.0025982 7.8599e-08 0)
(-0.00259703 7.50581e-08 0)
(-0.00259592 7.18264e-08 0)
(-0.00259486 6.8809e-08 0)
(-0.00259383 6.59105e-08 0)
(-0.00259286 6.30399e-08 0)
(-0.00259192 6.01173e-08 0)
(-0.00259103 5.70767e-08 0)
(-0.00259019 5.38712e-08 0)
(-0.0025894 5.04731e-08 0)
(-0.00258866 4.68757e-08 0)
(-0.00258797 4.30907e-08 0)
(-0.00258734 3.91469e-08 0)
(-0.00258675 3.50849e-08 0)
(-0.00258623 3.09539e-08 0)
(-0.00258575 2.68063e-08 0)
(-0.00258534 2.26942e-08 0)
(-0.00258497 1.86642e-08 0)
(-0.00258465 1.4756e-08 0)
(-0.00258438 1.09987e-08 0)
(-0.00258416 7.41119e-09 0)
(-0.00258399 3.99977e-09 0)
(-0.00258385 7.57997e-10 0)
(-0.00258376 -2.33605e-09 0)
(-0.0025837 -5.25085e-09 0)
(-0.00258368 -7.74359e-09 0)
(-0.0025837 -1.05775e-08 0)
(-0.00258374 -1.32136e-08 0)
(-0.00258383 -1.58409e-08 0)
(-0.00258394 -1.8021e-08 0)
(-0.00258409 -2.02785e-08 0)
(-0.00258426 -2.25512e-08 0)
(-0.00258447 -2.48151e-08 0)
(-0.0025847 -2.70506e-08 0)
(-0.00258497 -2.92497e-08 0)
(-0.00258527 -3.14615e-08 0)
(-0.00258559 -3.36194e-08 0)
(-0.00258594 -3.57662e-08 0)
(-0.00258632 -3.78681e-08 0)
(-0.00258673 -3.99811e-08 0)
(-0.00258716 -4.19749e-08 0)
(-0.00258762 -4.39755e-08 0)
(-0.0025881 -4.59353e-08 0)
(-0.00258861 -4.78726e-08 0)
(-0.00258915 -4.97187e-08 0)
(-0.00258971 -5.15483e-08 0)
(-0.00259029 -5.3343e-08 0)
(-0.00259089 -5.50811e-08 0)
(-0.00259152 -5.67864e-08 0)
(-0.00259216 -5.84263e-08 0)
(-0.00259283 -6.00772e-08 0)
(-0.00259352 -6.16246e-08 0)
(-0.00259423 -6.3229e-08 0)
(-0.00259496 -6.46986e-08 0)
(-0.0025957 -6.62985e-08 0)
(-0.00259635 -6.76078e-08 0)
(-0.00259689 -6.83187e-08 0)
(-0.00259745 -6.91405e-08 0)
(-0.00259801 -7.01009e-08 0)
(-0.00259859 -7.11113e-08 0)
(-0.00259918 -7.20431e-08 0)
(-0.00259978 -7.29967e-08 0)
(-0.0026004 -7.39056e-08 0)
(-0.00260103 -7.47892e-08 0)
(-0.00260167 -7.5674e-08 0)
(-0.00260232 -7.65369e-08 0)
(-0.00260299 -7.73837e-08 0)
(-0.00260367 -7.82612e-08 0)
(-0.00260436 -7.90642e-08 0)
(-0.00260506 -7.99079e-08 0)
(-0.00260578 -8.07059e-08 0)
(-0.00260651 -8.14869e-08 0)
(-0.00260725 -8.22514e-08 0)
(-0.00260801 -8.30051e-08 0)
(-0.00260878 -8.37546e-08 0)
(-0.00260956 -8.4475e-08 0)
(-0.00261035 -8.5184e-08 0)
(-0.00261116 -8.59137e-08 0)
(-0.00261198 -8.6569e-08 0)
(-0.00261281 -8.72613e-08 0)
(-0.00261365 -8.79003e-08 0)
(-0.00261451 -8.8502e-08 0)
(-0.00261538 -8.90986e-08 0)
(-0.00261626 -8.96443e-08 0)
(-0.00261715 -9.017e-08 0)
(-0.00261805 -9.07081e-08 0)
(-0.00261897 -9.11469e-08 0)
(-0.0026199 -9.16117e-08 0)
(-0.00262084 -9.20163e-08 0)
(-0.00262179 -9.23898e-08 0)
(-0.00262275 -9.27722e-08 0)
(-0.00262372 -9.30921e-08 0)
(-0.0026247 -9.3406e-08 0)
(-0.00262569 -9.37533e-08 0)
(-0.00262669 -9.40171e-08 0)
(-0.00262771 -9.43545e-08 0)
(-0.00262873 -9.46223e-08 0)
(-0.00262976 -9.48561e-08 0)
(-0.00263081 -9.5076e-08 0)
(-0.00263186 -9.52492e-08 0)
(-0.00263292 -9.53958e-08 0)
(-0.00263399 -9.54078e-08 0)
(-0.00263507 -9.53767e-08 0)
(-0.00263615 -9.53249e-08 0)
(-0.00263724 -9.50979e-08 0)
(-0.00263834 -9.49038e-08 0)
(-0.00263944 -9.4602e-08 0)
(-0.00264055 -9.42583e-08 0)
(-0.00264166 -9.39693e-08 0)
(-0.00264278 -9.36221e-08 0)
(-0.0026439 -9.33482e-08 0)
(-0.00264502 -9.31692e-08 0)
(-0.00264615 -9.2923e-08 0)
(-0.00264729 -9.27935e-08 0)
(-0.00264843 -9.25495e-08 0)
(-0.00264957 -9.21845e-08 0)
(-0.00265072 -9.17453e-08 0)
(-0.00265186 -9.10101e-08 0)
(-0.002653 -9.01321e-08 0)
(-0.00265414 -8.90867e-08 0)
(-0.00265527 -8.77107e-08 0)
(-0.00265639 -8.63086e-08 0)
(-0.0026575 -8.47288e-08 0)
(-0.0026586 -8.31618e-08 0)
(-0.0026597 -8.17339e-08 0)
(-0.00266078 -8.04846e-08 0)
(-0.00266186 -7.95462e-08 0)
(-0.00266293 -7.86899e-08 0)
(-0.002664 -7.80932e-08 0)
(-0.00266506 -7.75767e-08 0)
(-0.00266611 -7.67252e-08 0)
(-0.00266715 -7.56812e-08 0)
(-0.00266817 -7.39002e-08 0)
(-0.00266916 -7.14181e-08 0)
(-0.00267012 -6.81949e-08 0)
(-0.00267104 -6.42753e-08 0)
(-0.00267191 -5.97732e-08 0)
(-0.00267273 -5.56511e-08 0)
(-0.0026735 -5.09343e-08 0)
(-0.00267423 -4.80496e-08 0)
(-0.00267491 -4.41995e-08 0)
(-0.00267559 -4.39168e-08 0)
(-0.00267622 -4.0711e-08 0)
(-0.00267688 -4.42414e-08 0)
(-0.00267746 -3.91592e-08 0)
(-0.00267813 -4.76376e-08 0)
(-0.00267862 -3.56723e-08 0)
(-0.00267929 -5.02856e-08 0)
(-0.00267959 -2.41437e-08 0)
(-0.00268019 -4.73239e-08 0)
(-0.00268018 -7.09661e-10 0)
(-0.0026806 -3.63683e-08 0)
(-0.00268022 3.19734e-08 0)
(-0.00268037 -1.68883e-08 0)
(-0.00267949 5.06035e-08 0)
(-0.0353512 -0.00216564 0)
(-0.0160359 -0.000524988 0)
(-0.0105892 -0.000100587 0)
(-0.00845344 -3.46246e-05 0)
(-0.00748817 -1.97247e-05 0)
(-0.00685102 -1.60611e-05 0)
(-0.00634048 -1.32689e-05 0)
(-0.00592724 -1.08282e-05 0)
(-0.00559033 -9.03722e-06 0)
(-0.00530898 -7.74817e-06 0)
(-0.0050686 -6.77495e-06 0)
(-0.00485973 -6.00943e-06 0)
(-0.0046759 -5.3925e-06 0)
(-0.00451237 -4.88711e-06 0)
(-0.00436554 -4.46752e-06 0)
(-0.00423265 -4.11512e-06 0)
(-0.00411149 -3.81617e-06 0)
(-0.00400034 -3.56041e-06 0)
(-0.00389777 -3.34003e-06 0)
(-0.00380262 -3.149e-06 0)
(-0.00371393 -2.9826e-06 0)
(-0.0036309 -2.83706e-06 0)
(-0.00355283 -2.70933e-06 0)
(-0.00347915 -2.59693e-06 0)
(-0.00340935 -2.49778e-06 0)
(-0.00334302 -2.41015e-06 0)
(-0.00327976 -2.33252e-06 0)
(-0.00321926 -2.26369e-06 0)
(-0.00316125 -2.20239e-06 0)
(-0.00310545 -2.14786e-06 0)
(-0.00305168 -2.09874e-06 0)
(-0.00299972 -2.05491e-06 0)
(-0.00294945 -2.0143e-06 0)
(-0.00290068 -1.97797e-06 0)
(-0.00285336 -1.94209e-06 0)
(-0.00280732 -1.91008e-06 0)
(-0.00276257 -1.87465e-06 0)
(-0.00271903 -1.84312e-06 0)
(-0.00267661 -1.80324e-06 0)
(-0.00263562 -1.76586e-06 0)
(-0.00259531 -1.71792e-06 0)
(-0.00255747 -1.65907e-06 0)
(-0.00251881 -1.60977e-06 0)
(-0.00248602 -1.48151e-06 0)
(-0.00244725 -1.48033e-06 0)
(-0.00242493 -1.12623e-06 0)
(-0.00238009 -1.38818e-06 0)
(-0.00238226 -4.97436e-08 0)
(-0.00232384 -5.03565e-06 0)
(-0.002214 0.000167974 0)
(-2.62434e-06 2.32105e-06 0)
(7.38025e-07 1.44435e-06 0)
(2.40466e-06 -5.82074e-06 0)
(2.74521e-06 -1.35766e-05 0)
(2.76467e-06 -2.14742e-05 0)
(2.69625e-06 -2.91057e-05 0)
(2.63877e-06 -3.65536e-05 0)
(2.58731e-06 -4.38476e-05 0)
(2.53545e-06 -5.09992e-05 0)
(2.47985e-06 -5.80098e-05 0)
(2.41925e-06 -6.48776e-05 0)
(2.35305e-06 -7.15994e-05 0)
(2.28084e-06 -7.81717e-05 0)
(2.20223e-06 -8.45904e-05 0)
(2.11689e-06 -9.0851e-05 0)
(2.02442e-06 -9.69489e-05 0)
(1.92443e-06 -0.000102879 0)
(1.81652e-06 -0.000108636 0)
(1.70028e-06 -0.000114213 0)
(1.5753e-06 -0.000119605 0)
(1.44119e-06 -0.000124806 0)
(1.29753e-06 -0.000129809 0)
(1.14393e-06 -0.000134606 0)
(9.80021e-07 -0.000139192 0)
(8.05404e-07 -0.000143558 0)
(6.19708e-07 -0.000147697 0)
(4.22566e-07 -0.000151601 0)
(2.13625e-07 -0.000155264 0)
(-7.44673e-09 -0.000158676 0)
(-2.40971e-07 -0.000161831 0)
(-4.87256e-07 -0.00016472 0)
(-7.46593e-07 -0.000167335 0)
(-1.01926e-06 -0.000169669 0)
(-1.30552e-06 -0.000171714 0)
(-1.60561e-06 -0.000173462 0)
(-1.91975e-06 -0.000174904 0)
(-2.24811e-06 -0.000176034 0)
(-2.59079e-06 -0.000176845 0)
(-2.94779e-06 -0.000177327 0)
(-3.31848e-06 -0.000177475 0)
(-3.70264e-06 -0.000177283 0)
(-4.10091e-06 -0.000176744 0)
(-4.51388e-06 -0.000175852 0)
(-4.94181e-06 -0.000174599 0)
(-5.38491e-06 -0.00017298 0)
(-5.84316e-06 -0.000170987 0)
(-6.31606e-06 -0.000168615 0)
(-6.80204e-06 -0.000165858 0)
(-7.30285e-06 -0.000162712 0)
(-7.81856e-06 -0.000159169 0)
(-8.34962e-06 -0.000155224 0)
(-8.89669e-06 -0.000150873 0)
(-9.46021e-06 -0.000146109 0)
(-1.00394e-05 -0.000140925 0)
(-1.06341e-05 -0.000135318 0)
(-1.12442e-05 -0.000129281 0)
(-1.187e-05 -0.000122809 0)
(-1.25116e-05 -0.000115898 0)
(-1.31692e-05 -0.000108542 0)
(-1.38429e-05 -0.000100736 0)
(-1.45326e-05 -9.24742e-05 0)
(-1.52383e-05 -8.37516e-05 0)
(-1.59599e-05 -7.45627e-05 0)
(-1.6697e-05 -6.49022e-05 0)
(-1.74492e-05 -5.47646e-05 0)
(-1.82159e-05 -4.41446e-05 0)
(-1.89962e-05 -3.30369e-05 0)
(-1.9789e-05 -2.14364e-05 0)
(-2.05933e-05 -9.33794e-06 0)
(-2.14061e-05 3.2648e-06 0)
(-2.22259e-05 1.6373e-05 0)
(-2.30488e-05 2.99896e-05 0)
(-2.38719e-05 4.41208e-05 0)
(-2.46894e-05 5.87673e-05 0)
(-2.5496e-05 7.39297e-05 0)
(-2.62846e-05 8.96076e-05 0)
(-2.70469e-05 0.000105799 0)
(-2.77736e-05 0.000122504 0)
(-2.84545e-05 0.000139725 0)
(-2.90792e-05 0.000157472 0)
(-2.96359e-05 0.000175768 0)
(-3.01072e-05 0.000194604 0)
(-3.04599e-05 0.000213829 0)
(-3.06585e-05 0.00023324 0)
(-3.06863e-05 0.00025283 0)
(-3.05286e-05 0.000272716 0)
(-3.01553e-05 0.000292925 0)
(-2.9527e-05 0.000313393 0)
(-2.86035e-05 0.000334026 0)
(-2.73438e-05 0.000354725 0)
(-2.57048e-05 0.000375386 0)
(-2.36403e-05 0.000395889 0)
(-2.1125e-05 0.000416101 0)
(-1.81496e-05 0.000435892 0)
(-1.46994e-05 0.00045512 0)
(-1.07901e-05 0.000473627 0)
(-6.47206e-06 0.00049125 0)
(-1.83583e-06 0.000507837 0)
(2.99075e-06 0.000523257 0)
(7.84867e-06 0.00053741 0)
(1.25528e-05 0.000550225 0)
(1.68769e-05 0.000561641 0)
(2.04889e-05 0.00057158 0)
(2.2852e-05 0.000579968 0)
(2.31662e-05 0.000586837 0)
(2.04934e-05 0.000592515 0)
(1.42604e-05 0.000597803 0)
(5.13813e-06 0.000603833 0)
(-4.18683e-06 0.000611408 0)
(-8.98757e-06 0.000619921 0)
(-4.08754e-06 0.000626068 0)
(1.26473e-05 0.000624301 0)
(3.91137e-05 0.000610267 0)
(7.11627e-05 0.000583021 0)
(0.000106009 0.000544179 0)
(0.000142395 0.000494501 0)
(0.000177474 0.000433186 0)
(0.000205618 0.000361434 0)
(0.000221536 0.000285278 0)
(0.000224499 0.000213404 0)
(0.000217756 0.000152453 0)
(0.000205818 0.000105373 0)
(0.000191575 7.23152e-05 0)
(0.000176142 5.3151e-05 0)
(0.00015937 4.70361e-05 0)
(0.000139552 5.18581e-05 0)
(0.000111941 6.30808e-05 0)
(6.66119e-05 7.55599e-05 0)
(-1.06115e-05 9.00882e-05 0)
(-0.000131318 0.000122034 0)
(-0.000282689 0.000199187 0)
(-0.000425925 0.000339852 0)
(-0.000524839 0.000525548 0)
(-0.000568981 0.000713309 0)
(-0.000575063 0.000879892 0)
(-0.000559679 0.00102555 0)
(-0.000531132 0.00115517 0)
(-0.000493855 0.0012701 0)
(-0.000450923 0.0013707 0)
(-0.000404485 0.00145741 0)
(-0.000356152 0.00153062 0)
(-0.00030716 0.00159079 0)
(-0.000258442 0.00163845 0)
(-0.000210782 0.00167413 0)
(-0.000164919 0.00169856 0)
(-0.000121341 0.00171268 0)
(-8.02229e-05 0.00171736 0)
(-4.20722e-05 0.00171326 0)
(-7.21051e-06 0.00170166 0)
(2.48825e-05 0.00168361 0)
(5.43348e-05 0.00165959 0)
(8.11115e-05 0.00163035 0)
(0.000105381 0.00159649 0)
(0.00012723 0.00155863 0)
(0.000146809 0.00151732 0)
(0.000164252 0.00147309 0)
(0.000179712 0.00142643 0)
(0.000193343 0.00137777 0)
(0.000205302 0.00132752 0)
(0.000215746 0.00127604 0)
(0.000224835 0.00122365 0)
(0.000232722 0.0011706 0)
(0.000239562 0.00111715 0)
(0.000245499 0.0010635 0)
(0.000250675 0.00100979 0)
(0.000255222 0.000956174 0)
(0.000259263 0.00090274 0)
(0.00026291 0.000849561 0)
(0.000266263 0.000796682 0)
(0.000269406 0.000744124 0)
(0.000272407 0.000691885 0)
(0.000275314 0.000639945 0)
(0.000278152 0.000588266 0)
(0.00028092 0.000536797 0)
(0.000283584 0.000485476 0)
(0.000286076 0.000434234 0)
(0.000288282 0.000383001 0)
(0.000290044 0.000331716 0)
(0.00029115 0.000280335 0)
(0.000291329 0.000228844 0)
(0.000290255 0.000177271 0)
(0.000287547 0.000125706 0)
(0.000282778 7.43163e-05 0)
(0.00027548 2.33597e-05 0)
(0.00026516 -2.67935e-05 0)
(0.000251353 -7.56451e-05 0)
(0.000233652 -0.000122564 0)
(0.000211726 -0.000166773 0)
(0.000185395 -0.000207376 0)
(0.000154667 -0.000243412 0)
(0.000119768 -0.000273927 0)
(8.11398e-05 -0.000298144 0)
(3.93432e-05 -0.000315824 0)
(-5.47602e-06 -0.000327971 0)
(-5.39279e-05 -0.000338058 0)
(-0.000108724 -0.000354571 0)
(-0.000178561 -0.000394045 0)
(-0.000283948 -0.000482872 0)
(-0.000453272 -0.000650202 0)
(-0.000688158 -0.000903706 0)
(5.20455e-09 3.31168e-06 0)
(-1.27755e-06 1.97779e-06 0)
(8.24036e-07 1.06444e-06 0)
(3.34839e-06 8.07092e-07 0)
(5.9417e-06 7.09315e-07 0)
(8.56034e-06 6.30258e-07 0)
(1.12372e-05 5.40194e-07 0)
(1.39847e-05 4.37568e-07 0)
(1.68123e-05 3.2181e-07 0)
(1.97294e-05 1.92599e-07 0)
(2.27456e-05 4.99254e-08 0)
(2.58701e-05 -1.06155e-07 0)
(2.9112e-05 -2.75529e-07 0)
(3.248e-05 -4.57962e-07 0)
(3.59827e-05 -6.53125e-07 0)
(3.9628e-05 -8.60588e-07 0)
(4.34234e-05 -1.07987e-06 0)
(4.73759e-05 -1.3105e-06 0)
(5.14918e-05 -1.55202e-06 0)
(5.57772e-05 -1.80399e-06 0)
(6.02373e-05 -2.06573e-06 0)
(6.48767e-05 -2.33648e-06 0)
(6.96991e-05 -2.61545e-06 0)
(7.47074e-05 -2.90186e-06 0)
(7.99038e-05 -3.19481e-06 0)
(8.52895e-05 -3.49331e-06 0)
(9.08648e-05 -3.79641e-06 0)
(9.66291e-05 -4.10306e-06 0)
(0.000102581 -4.41207e-06 0)
(0.000108717 -4.72212e-06 0)
(0.000115033 -5.03176e-06 0)
(0.000121525 -5.33966e-06 0)
(0.000128185 -5.64429e-06 0)
(0.000135007 -5.94396e-06 0)
(0.000141981 -6.23708e-06 0)
(0.000149096 -6.52192e-06 0)
(0.000156341 -6.79655e-06 0)
(0.000163703 -7.05925e-06 0)
(0.000171166 -7.30841e-06 0)
(0.000178716 -7.5423e-06 0)
(0.000186335 -7.75911e-06 0)
(0.000194004 -7.95703e-06 0)
(0.000201703 -8.13418e-06 0)
(0.000209412 -8.28858e-06 0)
(0.000217108 -8.41826e-06 0)
(0.000224766 -8.52135e-06 0)
(0.000232362 -8.59613e-06 0)
(0.00023987 -8.64092e-06 0)
(0.000247263 -8.65425e-06 0)
(0.000254512 -8.63479e-06 0)
(0.00026159 -8.58122e-06 0)
(0.000268468 -8.49231e-06 0)
(0.000275114 -8.36705e-06 0)
(0.000281499 -8.2045e-06 0)
(0.000287593 -8.00379e-06 0)
(0.000293365 -7.76424e-06 0)
(0.000298783 -7.48556e-06 0)
(0.000303817 -7.16764e-06 0)
(0.000308436 -6.81049e-06 0)
(0.000312612 -6.41434e-06 0)
(0.000316314 -5.97971e-06 0)
(0.000319515 -5.50746e-06 0)
(0.000322185 -4.99887e-06 0)
(0.000324299 -4.45515e-06 0)
(0.000325829 -3.87888e-06 0)
(0.000326753 -3.26816e-06 0)
(0.000327043 -2.62731e-06 0)
(0.000326684 -1.95989e-06 0)
(0.000325665 -1.27037e-06 0)
(0.000323969 -5.59134e-07 0)
(0.000321583 1.70925e-07 0)
(0.000318497 9.17102e-07 0)
(0.000314703 1.67642e-06 0)
(0.000310195 2.44572e-06 0)
(0.000304971 3.2216e-06 0)
(0.00029903 4.0006e-06 0)
(0.000292376 4.77916e-06 0)
(0.000285015 5.55374e-06 0)
(0.000276955 6.32076e-06 0)
(0.000268209 7.07659e-06 0)
(0.000258789 7.81759e-06 0)
(0.000248715 8.54027e-06 0)
(0.000238006 9.24133e-06 0)
(0.000226685 9.91757e-06 0)
(0.000214776 1.05657e-05 0)
(0.000202309 1.11828e-05 0)
(0.000189312 1.17659e-05 0)
(0.000175819 1.23126e-05 0)
(0.000161862 1.28205e-05 0)
(0.000147479 1.32877e-05 0)
(0.000132705 1.37134e-05 0)
(0.000117577 1.40988e-05 0)
(0.000102128 1.44491e-05 0)
(8.63805e-05 1.47741e-05 0)
(7.03333e-05 1.50758e-05 0)
(5.39648e-05 1.52901e-05 0)
(3.73172e-05 1.51095e-05 0)
(2.0931e-05 1.3855e-05 0)
(5.8599e-06 9.79964e-06 0)
(-1.72537e-06 2.68032e-06 0)
(1.12221e-06 1.15747e-06 0)
(2.72276e-06 1.01766e-05 0)
(3.16412e-06 2.12028e-05 0)
(3.19105e-06 3.21468e-05 0)
(3.17247e-06 4.30027e-05 0)
(3.13043e-06 5.3768e-05 0)
(3.07057e-06 6.44337e-05 0)
(2.9931e-06 7.49956e-05 0)
(2.89713e-06 8.54466e-05 0)
(2.78089e-06 9.57785e-05 0)
(2.64222e-06 0.000105981 0)
(2.47834e-06 0.000116039 0)
(2.28613e-06 0.000125936 0)
(2.06218e-06 0.000135652 0)
(1.80262e-06 0.000145162 0)
(1.503e-06 0.000154437 0)
(1.1585e-06 0.000163442 0)
(7.63901e-07 0.00017214 0)
(3.13419e-07 0.000180488 0)
(-1.9928e-07 0.000188435 0)
(-7.81027e-07 0.000195927 0)
(-1.43937e-06 0.000202903 0)
(-2.18267e-06 0.000209297 0)
(-3.02005e-06 0.000215033 0)
(-3.96165e-06 0.00022003 0)
(-5.01858e-06 0.0002242 0)
(-6.20248e-06 0.000227446 0)
(-7.52338e-06 0.000229663 0)
(-8.99114e-06 0.000230743 0)
(-1.05959e-05 0.000230554 0)
(-1.23534e-05 0.000228952 0)
(-1.43006e-05 0.000225783 0)
(-1.64648e-05 0.000220883 0)
(-1.88747e-05 0.000214067 0)
(-2.15591e-05 0.000205131 0)
(-2.45472e-05 0.000193848 0)
(-2.78744e-05 0.000179983 0)
(-3.16219e-05 0.000163245 0)
(-3.58153e-05 0.000143315 0)
(-4.04956e-05 0.000119869 0)
(-4.57181e-05 9.25553e-05 0)
(-5.15293e-05 6.09987e-05 0)
(-5.80006e-05 2.48236e-05 0)
(-6.52014e-05 -1.64209e-05 0)
(-7.31437e-05 -6.34534e-05 0)
(-8.19567e-05 -0.000116773 0)
(-9.16673e-05 -0.000176758 0)
(-0.000102354 -0.00024405 0)
(-0.000114086 -0.000319384 0)
(-0.000126924 -0.000403903 0)
(-0.000140971 -0.000498878 0)
(-0.000155607 -0.000604163 0)
(-0.000169566 -0.00071594 0)
(-0.000181662 -0.000831527 0)
(-0.000191684 -0.000951697 0)
(-0.000198879 -0.00107727 0)
(-0.000202038 -0.00120665 0)
(-0.0001995 -0.00133673 0)
(-0.000189488 -0.00146367 0)
(-0.000170068 -0.00158323 0)
(-0.000139686 -0.0016911 0)
(-9.70032e-05 -0.00178284 0)
(-4.30891e-05 -0.00185254 0)
(1.29994e-05 -0.00189666 0)
(6.19752e-05 -0.0019159 0)
(9.3497e-05 -0.00191215 0)
(9.83713e-05 -0.00188885 0)
(6.93559e-05 -0.00187342 0)
(-2.97637e-07 -0.00191769 0)
(-0.000101348 -0.00174309 0)
(-0.00021885 -0.00165987 0)
(-0.000318349 -0.00152185 0)
(-0.000364913 -0.00134265 0)
(-0.000331072 -0.00113009 0)
(-0.000141349 -0.000878377 0)
(0.000264645 -0.000548954 0)
(0.000938026 -5.18996e-05 0)
(0.00164984 0.000780368 0)
(0.00199874 0.00189844 0)
(0.00188788 0.00291976 0)
(0.0016369 0.00364094 0)
(0.00142573 0.00421165 0)
(0.00125787 0.00471346 0)
(0.00112617 0.00516489 0)
(0.00100985 0.00557362 0)
(0.000911956 0.00593849 0)
(0.000830436 0.00627222 0)
(0.00075532 0.00657742 0)
(0.000690068 0.00685337 0)
(0.000635972 0.0071067 0)
(0.000590204 0.00734107 0)
(0.000552764 0.00755861 0)
(0.000522179 0.00776279 0)
(0.000495658 0.00795533 0)
(0.000471698 0.00813673 0)
(0.000449207 0.0083076 0)
(0.000427378 0.00846819 0)
(0.000405893 0.00861868 0)
(0.000384528 0.00875932 0)
(0.000363102 0.00889028 0)
(0.000341505 0.00901168 0)
(0.000319671 0.00912361 0)
(0.000297562 0.00922616 0)
(0.000275165 0.00931939 0)
(0.000252491 0.00940338 0)
(0.000229572 0.00947821 0)
(0.000206465 0.00954396 0)
(0.000183239 0.00960076 0)
(0.000159975 0.00964875 0)
(0.000136755 0.00968809 0)
(0.00011367 0.00971898 0)
(9.08209e-05 0.00974162 0)
(6.82941e-05 0.00975621 0)
(4.6167e-05 0.00976296 0)
(2.48011e-05 0.00976206 0)
(4.30815e-06 0.00975437 0)
(-1.57134e-05 0.00974026 0)
(-3.52982e-05 0.00971981 0)
(-5.4437e-05 0.00969338 0)
(-7.31855e-05 0.00966115 0)
(-9.15398e-05 0.00962342 0)
(-0.000109532 0.0095804 0)
(-0.000127159 0.00953236 0)
(-0.000144438 0.00947951 0)
(-0.000161371 0.00942208 0)
(-0.000177971 0.00936029 0)
(-0.000194247 0.00929433 0)
(-0.000210211 0.00922442 0)
(-0.000225876 0.00915074 0)
(-0.000241258 0.00907348 0)
(-0.000256372 0.0089928 0)
(-0.000271236 0.00890888 0)
(-0.000285869 0.00882186 0)
(-0.00030029 0.0087319 0)
(-0.000314518 0.00863913 0)
(-0.000328574 0.00854369 0)
(-0.000342478 0.00844569 0)
(-0.000356251 0.00834526 0)
(-0.000369915 0.00824249 0)
(-0.000383491 0.00813748 0)
(-0.000396999 0.00803034 0)
(-0.00041046 0.00792114 0)
(-0.000423896 0.00780997 0)
(-0.000437327 0.0076969 0)
(-0.000450774 0.00758199 0)
(-0.000464259 0.00746532 0)
(-0.000477801 0.00734694 0)
(-0.000491422 0.00722691 0)
(-0.000505143 0.00710527 0)
(-0.000518987 0.00698207 0)
(-0.000532974 0.00685735 0)
(-0.000547129 0.00673116 0)
(-0.000561475 0.00660353 0)
(-0.000576037 0.00647449 0)
(-0.000590843 0.00634408 0)
(-0.000605921 0.00621231 0)
(-0.000621304 0.00607921 0)
(-0.000637025 0.00594481 0)
(-0.000653123 0.00580912 0)
(-0.000669639 0.00567216 0)
(-0.00068662 0.00553393 0)
(-0.000704119 0.00539445 0)
(-0.000722194 0.00525373 0)
(-0.000740909 0.00511176 0)
(-0.000760341 0.00496854 0)
(-0.000780571 0.00482407 0)
(-0.000801696 0.00467834 0)
(-0.00082382 0.00453133 0)
(-0.000847067 0.00438303 0)
(-0.000871574 0.00423342 0)
(-0.000897497 0.00408247 0)
(-0.000925017 0.00393016 0)
(-0.000954339 0.00377645 0)
(-0.0009857 0.0036213 0)
(-0.00101937 0.00346469 0)
(-0.00105568 0.00330656 0)
(-0.00109498 0.00314685 0)
(-0.0011377 0.0029855 0)
(-0.00118436 0.00282238 0)
(-0.00123552 0.00265734 0)
(-0.00129184 0.00249013 0)
(-0.00135408 0.00232041 0)
(-0.00142307 0.00214768 0)
(-0.00149969 0.00197129 0)
(-0.00158486 0.00179043 0)
(-0.00167956 0.00160417 0)
(-0.0017848 0.00141154 0)
(-0.00190167 0.00121159 0)
(-0.00203113 0.00100348 0)
(-0.0021738 0.000786623 0)
(-0.00233201 0.000560734 0)
(-0.00251102 0.000324896 0)
(-0.00271251 7.66823e-05 0)
(-0.00293472 -0.000185476 0)
(-0.00318029 -0.000463873 0)
(-0.00345182 -0.000746861 0)
(-0.00375849 -0.00111352 0)
(-0.00403808 -0.00129184 0)
(-0.00443626 -0.00210326 0)
(-0.00420668 -0.00137797 0)
)
;
    }
    frontAndBack
    {
        type            empty;
    }
}


// ************************************************************************* //
