/*--------------------------------*- C++ -*----------------------------------*\
  =========                 |
  \\      /  F ield         | OpenFOAM: The Open Source CFD Toolbox
   \\    /   O peration     | Website:  https://openfoam.org
    \\  /    A nd           | Version:  7
     \\/     M anipulation  |
\*---------------------------------------------------------------------------*/
FoamFile
{
    version     2.0;
    format      ascii;
    class       volVectorField;
    location    "0.38";
    object      ddt0(U);
}
// * * * * * * * * * * * * * * * * * * * * * * * * * * * * * * * * * * * * * //

dimensions      [0 1 -2 0 0 0 0];

internalField   nonuniform List<vector> 
70000
(
(-0.000573813 2.45142e-05 0)
(-0.00155141 1.60907e-05 0)
(-0.000695411 1.17489e-05 0)
(0.00124416 1.99367e-05 0)
(0.00320496 1.99355e-05 0)
(0.00480583 2.08885e-05 0)
(0.00581448 2.37504e-05 0)
(0.00617798 2.75108e-05 0)
(0.00603786 3.16465e-05 0)
(0.00559609 3.54413e-05 0)
(0.00503097 3.81272e-05 0)
(0.00447324 3.99761e-05 0)
(0.0039914 4.10829e-05 0)
(0.00359626 4.19685e-05 0)
(0.00327086 4.27466e-05 0)
(0.00297735 4.36967e-05 0)
(0.00267742 4.5044e-05 0)
(0.00233077 4.65219e-05 0)
(0.00191396 4.85743e-05 0)
(0.00141206 5.07173e-05 0)
(0.000822747 5.32446e-05 0)
(0.000154527 5.57892e-05 0)
(-0.000573911 5.83386e-05 0)
(-0.00133959 6.06359e-05 0)
(-0.00211538 6.2878e-05 0)
(-0.00287369 6.44472e-05 0)
(-0.00358292 6.60099e-05 0)
(-0.00421106 6.68282e-05 0)
(-0.00471953 6.73841e-05 0)
(-0.00505983 6.73229e-05 0)
(-0.00517315 6.64275e-05 0)
(-0.00497937 6.44602e-05 0)
(-0.00436261 6.11514e-05 0)
(-0.00321239 5.60311e-05 0)
(-0.00132095 4.8872e-05 0)
(0.00145349 3.87477e-05 0)
(0.00548631 2.69186e-05 0)
(0.0109589 7.64855e-06 0)
(0.0184298 -3.97938e-06 0)
(0.0282906 -4.21438e-05 0)
(0.041011 -3.49958e-05 0)
(0.0577764 -0.000105025 0)
(0.0783021 -4.04665e-05 0)
(0.104603 -0.00011911 0)
(0.137587 4.77244e-05 0)
(0.170601 0.000154607 0)
(0.227625 0.000562714 0)
(0.238768 0.00121939 0)
(0.333818 0.00576781 0)
(0.134035 -0.025775 0)
(-0.000864265 9.05034e-05 0)
(-0.00196328 -3.46106e-05 0)
(0.00225623 -0.000220552 0)
(0.0104091 -0.000286985 0)
(0.0189571 -0.000264638 0)
(0.0263314 -0.000200222 0)
(0.0318249 -0.000119522 0)
(0.0352903 -4.64349e-05 0)
(0.0371667 4.34068e-06 0)
(0.0381154 3.07389e-05 0)
(0.0387238 3.65238e-05 0)
(0.0394026 2.94414e-05 0)
(0.04036 1.70735e-05 0)
(0.0416311 5.43272e-06 0)
(0.0431534 -2.36261e-06 0)
(0.0448074 -4.85463e-06 0)
(0.0464697 -1.3642e-06 0)
(0.0480223 6.34123e-06 0)
(0.049393 1.71967e-05 0)
(0.0505452 2.9212e-05 0)
(0.0514765 4.09081e-05 0)
(0.052216 5.06469e-05 0)
(0.0528135 5.74008e-05 0)
(0.0533269 6.01121e-05 0)
(0.0538182 5.89378e-05 0)
(0.0543486 5.23587e-05 0)
(0.0549835 4.07712e-05 0)
(0.055793 2.25233e-05 0)
(0.0568609 -3.66921e-06 0)
(0.0582984 -3.97679e-05 0)
(0.0602441 -8.95576e-05 0)
(0.0628829 -0.000157921 0)
(0.0664976 -0.000249568 0)
(0.0713471 -0.000372256 0)
(0.0779629 -0.000533207 0)
(0.0866633 -0.00074802 0)
(0.098468 -0.00102068 0)
(0.113756 -0.00139137 0)
(0.134183 -0.00182902 0)
(0.16064 -0.00246533 0)
(0.194866 -0.00312368 0)
(0.239988 -0.00421163 0)
(0.296301 -0.00510727 0)
(0.369971 -0.00692234 0)
(0.46577 -0.00783005 0)
(0.568778 -0.0108128 0)
(0.752019 -0.0097037 0)
(0.831742 -0.0161524 0)
(1.20524 0.0089231 0)
(1.03373 -0.042252 0)
(-0.000871987 0.000186422 0)
(-0.00278666 -0.000136601 0)
(0.00180677 -0.00069065 0)
(0.0134678 -0.000980149 0)
(0.02754 -0.000962286 0)
(0.0406052 -0.000780671 0)
(0.0509409 -0.000536231 0)
(0.0579666 -0.000307176 0)
(0.0621245 -0.000145374 0)
(0.0643868 -6.21024e-05 0)
(0.0657424 -4.49077e-05 0)
(0.0669403 -6.89554e-05 0)
(0.0684136 -0.000110373 0)
(0.0703064 -0.000150372 0)
(0.0725745 -0.000178443 0)
(0.0750575 -0.000189851 0)
(0.0775635 -0.000183173 0)
(0.079904 -0.000163208 0)
(0.0819457 -0.00013371 0)
(0.0836157 -0.000100919 0)
(0.0848939 -6.88601e-05 0)
(0.0858077 -4.21315e-05 0)
(0.0864143 -2.28785e-05 0)
(0.0867805 -1.33173e-05 0)
(0.0869744 -1.26606e-05 0)
(0.0870615 -2.40658e-05 0)
(0.0871055 -4.62349e-05 0)
(0.087178 -8.34685e-05 0)
(0.0873663 -0.000138614 0)
(0.0877916 -0.00021735 0)
(0.0886196 -0.00032844 0)
(0.090062 -0.000484899 0)
(0.092477 -0.000697678 0)
(0.0961613 -0.000989011 0)
(0.101828 -0.00137408 0)
(0.10981 -0.00189755 0)
(0.12152 -0.00257075 0)
(0.13733 -0.00349092 0)
(0.159552 -0.00462202 0)
(0.189324 -0.00622385 0)
(0.228992 -0.0080459 0)
(0.283143 -0.0108466 0)
(0.352011 -0.0135653 0)
(0.444833 -0.0185605 0)
(0.569406 -0.021759 0)
(0.704744 -0.0312642 0)
(0.958093 -0.0304887 0)
(1.08401 -0.0513057 0)
(1.59531 -0.0156689 0)
(1.67401 -0.0597704 0)
(-0.000646926 0.000307043 0)
(-0.00350102 -0.000170141 0)
(-0.00122879 -0.00117923 0)
(0.00951818 -0.0018627 0)
(0.0256003 -0.00197827 0)
(0.0426766 -0.00170802 0)
(0.0575903 -0.00125369 0)
(0.0686855 -0.000784102 0)
(0.075809 -0.000420972 0)
(0.0798011 -0.000208364 0)
(0.0818321 -0.000133712 0)
(0.0829559 -0.00015299 0)
(0.0839112 -0.000218871 0)
(0.0850813 -0.000291861 0)
(0.0865741 -0.000347154 0)
(0.0882993 -0.000372102 0)
(0.0900715 -0.00036202 0)
(0.0916745 -0.000323881 0)
(0.0929242 -0.000265015 0)
(0.0937009 -0.000196915 0)
(0.0939456 -0.000127807 0)
(0.093657 -6.60003e-05 0)
(0.0928715 -1.53734e-05 0)
(0.0916394 2.07673e-05 0)
(0.0900096 4.39447e-05 0)
(0.088029 5.00846e-05 0)
(0.0857366 4.11277e-05 0)
(0.0831803 1.07144e-05 0)
(0.0804249 -4.62119e-05 0)
(0.0775666 -0.000139529 0)
(0.0747643 -0.000283469 0)
(0.072204 -0.000500963 0)
(0.0702641 -0.000809372 0)
(0.0692054 -0.00124933 0)
(0.0698234 -0.00184303 0)
(0.0723779 -0.00267208 0)
(0.0784552 -0.0037544 0)
(0.0883582 -0.00525425 0)
(0.104591 -0.00714239 0)
(0.128518 -0.00980328 0)
(0.162324 -0.0129638 0)
(0.211809 -0.0177179 0)
(0.276295 -0.0225959 0)
(0.367294 -0.0314524 0)
(0.492989 -0.0373575 0)
(0.632425 -0.0551877 0)
(0.897663 -0.0560352 0)
(1.05808 -0.091766 0)
(1.55623 -0.0604543 0)
(1.87501 -0.0771461 0)
(-0.000395417 0.000435467 0)
(-0.00359678 -8.82679e-05 0)
(-0.00419862 -0.00150041 0)
(0.00267686 -0.00268512 0)
(0.0167141 -0.0031191 0)
(0.0345876 -0.00290373 0)
(0.0525578 -0.00229382 0)
(0.0677625 -0.00155711 0)
(0.0788737 -0.000914618 0)
(0.0859463 -0.000477422 0)
(0.0898264 -0.00025842 0)
(0.0915927 -0.000207027 0)
(0.0922081 -0.000254955 0)
(0.0923514 -0.000338625 0)
(0.0924114 -0.000412794 0)
(0.0925188 -0.000450392 0)
(0.0926302 -0.000438112 0)
(0.092602 -0.000381175 0)
(0.0922605 -0.000288483 0)
(0.0914618 -0.000176201 0)
(0.0901071 -5.71123e-05 0)
(0.0881492 5.62503e-05 0)
(0.085582 0.000157743 0)
(0.0824167 0.000242878 0)
(0.0786644 0.000313911 0)
(0.074336 0.000366262 0)
(0.0694333 0.00040263 0)
(0.0639653 0.000414897 0)
(0.0579631 0.000395785 0)
(0.0514803 0.00033084 0)
(0.0446537 0.000200601 0)
(0.0376195 -2.89652e-05 0)
(0.030751 -0.000380903 0)
(0.0242468 -0.000916751 0)
(0.0189269 -0.0016641 0)
(0.0149729 -0.00274437 0)
(0.013988 -0.00418332 0)
(0.0162723 -0.00620983 0)
(0.0241721 -0.00881722 0)
(0.0394121 -0.0124943 0)
(0.0634828 -0.0169883 0)
(0.103354 -0.0237002 0)
(0.156767 -0.0307874 0)
(0.237757 -0.0436461 0)
(0.350594 -0.0525504 0)
(0.484964 -0.0786337 0)
(0.725165 -0.083515 0)
(0.919281 -0.130414 0)
(1.33715 -0.114353 0)
(1.79618 -0.111379 0)
(-0.000278077 0.000555567 0)
(-0.00326784 7.63833e-05 0)
(-0.00575274 -0.00159436 0)
(-0.00313428 -0.00325313 0)
(0.00650299 -0.00413341 0)
(0.021929 -0.0041673 0)
(0.0402227 -0.00356793 0)
(0.0581444 -0.00265112 0)
(0.0732998 -0.00172957 0)
(0.0845835 -0.00100353 0)
(0.09197 -0.00054387 0)
(0.0960743 -0.000321771 0)
(0.0977567 -0.000266233 0)
(0.0978399 -0.000297985 0)
(0.0969864 -0.000352225 0)
(0.0956351 -0.000383592 0)
(0.0940186 -0.000364119 0)
(0.0922015 -0.000290728 0)
(0.0901338 -0.000168496 0)
(0.0877227 -1.45664e-05 0)
(0.0848695 0.000155629 0)
(0.0814946 0.000326154 0)
(0.077546 0.000488622 0)
(0.0729856 0.000637298 0)
(0.0677752 0.000775028 0)
(0.0618782 0.00089689 0)
(0.0552508 0.00100637 0)
(0.0478548 0.0010937 0)
(0.0396808 0.00114961 0)
(0.0307314 0.00115459 0)
(0.0211132 0.00108442 0)
(0.0109044 0.000893147 0)
(0.000457503 0.00055249 0)
(-0.0100902 -2.11244e-05 0)
(-0.0199364 -0.000860779 0)
(-0.0289372 -0.0021262 0)
(-0.0355862 -0.00385653 0)
(-0.0394765 -0.00633451 0)
(-0.0386344 -0.00959589 0)
(-0.0308406 -0.0142067 0)
(-0.0155586 -0.0199717 0)
(0.0153974 -0.0285571 0)
(0.0576362 -0.0378335 0)
(0.128738 -0.0545036 0)
(0.224772 -0.0668464 0)
(0.354822 -0.100019 0)
(0.557752 -0.111611 0)
(0.777569 -0.165988 0)
(1.12192 -0.170199 0)
(1.62154 -0.160146 0)
(-0.000293847 0.000663479 0)
(-0.00292363 0.000274395 0)
(-0.00608714 -0.00151585 0)
(-0.00638684 -0.00353364 0)
(-0.0011641 -0.00487097 0)
(0.0101888 -0.00528944 0)
(0.0263049 -0.00489323 0)
(0.0446031 -0.00396994 0)
(0.0623881 -0.00287365 0)
(0.0776624 -0.00187988 0)
(0.0893789 -0.00113185 0)
(0.0973188 -0.000649844 0)
(0.10183 -0.00038764 0)
(0.103546 -0.00027151 0)
(0.10319 -0.000230081 0)
(0.101433 -0.000204892 0)
(0.0988068 -0.000152316 0)
(0.0956775 -5.56956e-05 0)
(0.0922352 9.06014e-05 0)
(0.0885466 0.000275011 0)
(0.0845958 0.000484329 0)
(0.0803257 0.000702415 0)
(0.0756679 0.000920185 0)
(0.0705492 0.00113139 0)
(0.0648871 0.00133961 0)
(0.0585961 0.00153981 0)
(0.051586 0.0017362 0)
(0.0437667 0.0019175 0)
(0.035085 0.00207258 0)
(0.0254873 0.00217661 0)
(0.0150419 0.00220093 0)
(0.003766 0.00208729 0)
(-0.00802644 0.00180194 0)
(-0.0202501 0.00123956 0)
(-0.0321624 0.000359033 0)
(-0.0436136 -0.00103261 0)
(-0.0532777 -0.00299755 0)
(-0.0605598 -0.00585695 0)
(-0.063969 -0.00971118 0)
(-0.0607355 -0.0151728 0)
(-0.0513482 -0.0221462 0)
(-0.0264232 -0.0324851 0)
(0.00728714 -0.0439542 0)
(0.0713129 -0.0640794 0)
(0.152346 -0.0803512 0)
(0.278936 -0.11931 0)
(0.449587 -0.13939 0)
(0.678614 -0.199691 0)
(0.97925 -0.222731 0)
(1.46437 -0.226853 0)
(-0.000355622 0.000766972 0)
(-0.00277044 0.000475851 0)
(-0.00587967 -0.00135223 0)
(-0.00752478 -0.00360676 0)
(-0.0053024 -0.00533084 0)
(0.00224586 -0.00616847 0)
(0.015108 -0.00610671 0)
(0.0318403 -0.00535349 0)
(0.0502153 -0.00424416 0)
(0.0680004 -0.00308735 0)
(0.0834669 -0.00208389 0)
(0.095583 -0.00131087 0)
(0.103984 -0.000766833 0)
(0.108808 -0.00040703 0)
(0.110546 -0.000174601 0)
(0.109861 -1.35028e-05 0)
(0.107461 0.000127113 0)
(0.103976 0.000276146 0)
(0.0998809 0.000453654 0)
(0.0954848 0.000660145 0)
(0.0909449 0.000891236 0)
(0.0863057 0.00113602 0)
(0.0815437 0.00138839 0)
(0.0765929 0.00164376 0)
(0.0713563 0.00190762 0)
(0.0657182 0.0021756 0)
(0.0595539 0.00245302 0)
(0.0527284 0.00272735 0)
(0.0451459 0.00298607 0)
(0.0366984 0.00319889 0)
(0.0274075 0.00333309 0)
(0.0172304 0.00331838 0)
(0.00642177 0.00311466 0)
(-0.00497747 0.00259648 0)
(-0.0163257 0.00171067 0)
(-0.0274434 0.000237727 0)
(-0.0372431 -0.00191834 0)
(-0.0449215 -0.00510131 0)
(-0.049499 -0.00949681 0)
(-0.0477254 -0.0157338 0)
(-0.0410022 -0.0238604 0)
(-0.0190851 -0.0358207 0)
(0.00945234 -0.0494872 0)
(0.0686925 -0.0726984 0)
(0.139058 -0.0932128 0)
(0.260385 -0.137022 0)
(0.408966 -0.166191 0)
(0.632307 -0.232352 0)
(0.907559 -0.271847 0)
(1.36055 -0.300617 0)
(-0.00040216 0.000874516 0)
(-0.0027718 0.000673055 0)
(-0.0056812 -0.00116877 0)
(-0.00759808 -0.00357799 0)
(-0.00680415 -0.00560117 0)
(-0.00176623 -0.00682211 0)
(0.0082069 -0.00714027 0)
(0.0226327 -0.00667344 0)
(0.040067 -0.00570005 0)
(0.0585927 -0.004518 0)
(0.076325 -0.00335381 0)
(0.0917605 -0.0023278 0)
(0.103936 -0.00148555 0)
(0.112424 -0.000824196 0)
(0.11728 -0.00031967 0)
(0.118925 6.26857e-05 0)
(0.118022 0.000365158 0)
(0.11532 0.000619229 0)
(0.11151 0.000856232 0)
(0.107142 0.0010911 0)
(0.102592 0.00133336 0)
(0.0980699 0.00158321 0)
(0.0936617 0.00184238 0)
(0.0893661 0.00211151 0)
(0.0851199 0.00240036 0)
(0.0808158 0.00270697 0)
(0.0763244 0.00303885 0)
(0.071489 0.00338331 0)
(0.0661851 0.00372713 0)
(0.0602621 0.00403528 0)
(0.0536945 0.0042714 0)
(0.0463857 0.00435421 0)
(0.0385164 0.00423625 0)
(0.0300875 0.00377485 0)
(0.0216084 0.0029 0)
(0.0132881 0.00137358 0)
(0.005948 -0.000944549 0)
(0.000554153 -0.0044064 0)
(-0.00237691 -0.00929825 0)
(0.000668327 -0.0162426 0)
(0.00770328 -0.0254598 0)
(0.0290616 -0.0389152 0)
(0.0556664 -0.0547263 0)
(0.111354 -0.0807218 0)
(0.175425 -0.105502 0)
(0.288944 -0.153607 0)
(0.423015 -0.191682 0)
(0.631466 -0.263637 0)
(0.887068 -0.319794 0)
(1.30194 -0.370999 0)
(-0.000421476 0.000988916 0)
(-0.00282958 0.000870208 0)
(-0.00561901 -0.000986379 0)
(-0.00742823 -0.00352138 0)
(-0.00702032 -0.0057835 0)
(-0.00315749 -0.00733261 0)
(0.00497695 -0.00801743 0)
(0.0174263 -0.00788197 0)
(0.033387 -0.0071385 0)
(0.0514491 -0.00604796 0)
(0.0699507 -0.00483298 0)
(0.0873112 -0.00363428 0)
(0.102268 -0.00253219 0)
(0.113977 -0.00156428 0)
(0.122063 -0.000746697 0)
(0.126592 -7.98454e-05 0)
(0.128012 0.000453988 0)
(0.127012 0.000874784 0)
(0.124362 0.00121568 0)
(0.120773 0.00150248 0)
(0.116812 0.00175966 0)
(0.112867 0.00200205 0)
(0.109168 0.00224351 0)
(0.105823 0.00249359 0)
(0.102849 0.00276909 0)
(0.100191 0.00307294 0)
(0.0977555 0.00341663 0)
(0.0954007 0.003789 0)
(0.0930009 0.00417774 0)
(0.0903879 0.00454437 0)
(0.0875018 0.00484983 0)
(0.0842078 0.00500383 0)
(0.0806108 0.00495073 0)
(0.0766785 0.00453447 0)
(0.0727764 0.00366443 0)
(0.0691246 0.00209105 0)
(0.066288 -0.000376321 0)
(0.0652979 -0.00408889 0)
(0.0663279 -0.00943684 0)
(0.0728261 -0.0170314 0)
(0.0826896 -0.0272579 0)
(0.105375 -0.0420926 0)
(0.132769 -0.0599196 0)
(0.185764 -0.0884379 0)
(0.246649 -0.117298 0)
(0.35095 -0.169243 0)
(0.473882 -0.215618 0)
(0.663028 -0.293669 0)
(0.898063 -0.364496 0)
(1.27057 -0.438913 0)
(-0.000425413 0.00110978 0)
(-0.0028837 0.00107296 0)
(-0.00564516 -0.000807124 0)
(-0.00731289 -0.00346648 0)
(-0.00686064 -0.00594449 0)
(-0.00333174 -0.00778364 0)
(0.0039731 -0.00880442 0)
(0.0152134 -0.0089995 0)
(0.0299251 -0.00852367 0)
(0.0471195 -0.0075947 0)
(0.0654571 -0.00641532 0)
(0.0835217 -0.00512754 0)
(0.100029 -0.0038302 0)
(0.113955 -0.0025906 0)
(0.124643 -0.00146185 0)
(0.131846 -0.00048362 0)
(0.135742 0.000327045 0)
(0.136853 0.000966033 0)
(0.135897 0.00145668 0)
(0.133635 0.001828 0)
(0.130749 0.00211607 0)
(0.127765 0.00235057 0)
(0.125048 0.00255942 0)
(0.122824 0.00276349 0)
(0.121214 0.00298885 0)
(0.120247 0.00324545 0)
(0.119902 0.00355056 0)
(0.120085 0.00389675 0)
(0.120705 0.00427438 0)
(0.121609 0.00464378 0)
(0.122726 0.00496442 0)
(0.12391 0.00513985 0)
(0.125203 0.00510601 0)
(0.126552 0.00469789 0)
(0.128192 0.00380207 0)
(0.130329 0.00216361 0)
(0.133316 -0.000459796 0)
(0.138132 -0.0044162 0)
(0.144766 -0.0101884 0)
(0.156269 -0.0183908 0)
(0.17085 -0.0295325 0)
(0.196322 -0.045635 0)
(0.226494 -0.0652972 0)
(0.277792 -0.096069 0)
(0.337294 -0.128693 0)
(0.432354 -0.18399 0)
(0.545151 -0.237907 0)
(0.713257 -0.321798 0)
(0.924975 -0.405607 0)
(1.25156 -0.503181 0)
(-0.000425813 0.00123623 0)
(-0.00292099 0.0012837 0)
(-0.00569368 -0.000626796 0)
(-0.00727745 -0.00341959 0)
(-0.00669492 -0.00611332 0)
(-0.00314344 -0.00822817 0)
(0.00393232 -0.0095642 0)
(0.0146424 -0.010075 0)
(0.0286208 -0.00987027 0)
(0.0450801 -0.00913076 0)
(0.062941 -0.00803568 0)
(0.080998 -0.00671963 0)
(0.0980911 -0.00528771 0)
(0.113203 -0.00382536 0)
(0.125569 -0.0024138 0)
(0.134755 -0.00112881 0)
(0.140726 -2.50285e-05 0)
(0.143816 0.000861928 0)
(0.144629 0.00153612 0)
(0.143891 0.00202147 0)
(0.142317 0.00236014 0)
(0.140507 0.00259403 0)
(0.13892 0.00276473 0)
(0.137879 0.00290493 0)
(0.137601 0.00305071 0)
(0.138207 0.00322013 0)
(0.139759 0.00343744 0)
(0.142242 0.00370052 0)
(0.14562 0.00400429 0)
(0.149789 0.00431009 0)
(0.154694 0.00457759 0)
(0.160205 0.00470732 0)
(0.16633 0.00462732 0)
(0.17301 0.00416784 0)
(0.180383 0.00319311 0)
(0.188623 0.00144638 0)
(0.197938 -0.00136105 0)
(0.209157 -0.00557864 0)
(0.222228 -0.0117582 0)
(0.239575 -0.0205438 0)
(0.259978 -0.03251 0)
(0.289254 -0.0497693 0)
(0.323398 -0.0710678 0)
(0.374097 -0.103799 0)
(0.433177 -0.139797 0)
(0.519883 -0.19792 0)
(0.622933 -0.258438 0)
(0.769898 -0.34764 0)
(0.956133 -0.442966 0)
(1.23512 -0.561555 0)
(-0.000427287 0.00136788 0)
(-0.00294808 0.00150258 0)
(-0.00573569 -0.000442541 0)
(-0.00727515 -0.00337859 0)
(-0.00658661 -0.00629712 0)
(-0.00292936 -0.00868933 0)
(0.00416663 -0.0103341 0)
(0.0147383 -0.0111508 0)
(0.0284006 -0.0112112 0)
(0.0444308 -0.0106654 0)
(0.0618733 -0.00967309 0)
(0.0796812 -0.00836063 0)
(0.0968305 -0.00683453 0)
(0.112393 -0.00519048 0)
(0.125613 -0.00352996 0)
(0.135994 -0.00195858 0)
(0.143382 -0.000566474 0)
(0.147975 0.000577092 0)
(0.150264 0.00145153 0)
(0.150906 0.00206951 0)
(0.150595 0.0024739 0)
(0.149951 0.00271536 0)
(0.149477 0.00284719 0)
(0.149559 0.00291301 0)
(0.15048 0.00295825 0)
(0.15244 0.003009 0)
(0.155577 0.00309636 0)
(0.159957 0.00322449 0)
(0.165613 0.00339377 0)
(0.172504 0.00356867 0)
(0.180616 0.00371031 0)
(0.189856 0.00371919 0)
(0.200229 0.00351657 0)
(0.211687 0.00293154 0)
(0.224313 0.00180824 0)
(0.238242 -0.000110073 0)
(0.253606 -0.00314899 0)
(0.271032 -0.00766735 0)
(0.290527 -0.0142571 0)
(0.31381 -0.0236189 0)
(0.340286 -0.0363377 0)
(0.373826 -0.0546469 0)
(0.412363 -0.0773919 0)
(0.463383 -0.111779 0)
(0.522517 -0.150722 0)
(0.602161 -0.21113 0)
(0.696028 -0.277214 0)
(0.823037 -0.371045 0)
(0.983284 -0.476214 0)
(1.21556 -0.612269 0)
(-0.000429928 0.00150481 0)
(-0.00297174 0.00172933 0)
(-0.00576862 -0.000253614 0)
(-0.00727547 -0.00334127 0)
(-0.00650809 -0.00649534 0)
(-0.00275263 -0.00917309 0)
(0.00442354 -0.01113 0)
(0.0150117 -0.0122516 0)
(0.0285889 -0.0125733 0)
(0.0444297 -0.0122185 0)
(0.06162 -0.0113319 0)
(0.0791885 -0.010034 0)
(0.0962059 -0.00843281 0)
(0.111829 -0.00663156 0)
(0.12536 -0.00474719 0)
(0.13631 -0.00291015 0)
(0.144487 -0.00124257 0)
(0.150023 0.000153559 0)
(0.15333 0.00123124 0)
(0.155004 0.0019886 0)
(0.155702 0.00246574 0)
(0.156031 0.00271907 0)
(0.156506 0.00281157 0)
(0.157536 0.00279623 0)
(0.159446 0.0027265 0)
(0.162482 0.00263542 0)
(0.166845 0.00256015 0)
(0.172664 0.00251087 0)
(0.180039 0.00249371 0)
(0.188993 0.00247735 0)
(0.199558 0.00242529 0)
(0.211696 0.00224018 0)
(0.225426 0.00183783 0)
(0.240728 0.00104854 0)
(0.257666 -0.000299798 0)
(0.276344 -0.00246407 0)
(0.296871 -0.00579492 0)
(0.31967 -0.0106693 0)
(0.344853 -0.0176913 0)
(0.373483 -0.0276379 0)
(0.405512 -0.0410628 0)
(0.443163 -0.0603257 0)
(0.485831 -0.0843528 0)
(0.537688 -0.120105 0)
(0.597002 -0.161562 0)
(0.67091 -0.223744 0)
(0.756485 -0.294337 0)
(0.865694 -0.391997 0)
(1.00127 -0.505158 0)
(1.19021 -0.654884 0)
(-0.000432884 0.00164718 0)
(-0.0029944 0.00196397 0)
(-0.00579644 -6.02017e-05 0)
(-0.00727072 -0.00330699 0)
(-0.00643472 -0.0067069 0)
(-0.00259673 -0.00967988 0)
(0.00465799 -0.0119566 0)
(0.0152994 -0.0133877 0)
(0.0288787 -0.0139717 0)
(0.044655 -0.0138063 0)
(0.0617193 -0.0130236 0)
(0.0791277 -0.011741 0)
(0.0959966 -0.0100695 0)
(0.111538 -0.00812043 0)
(0.125104 -0.00602456 0)
(0.136239 -0.00393477 0)
(0.144757 -0.0020027 0)
(0.150771 -0.00036142 0)
(0.154661 0.000915808 0)
(0.156983 0.00181155 0)
(0.158362 0.00236155 0)
(0.159386 0.00262629 0)
(0.160562 0.00267691 0)
(0.162303 0.00257451 0)
(0.164948 0.00237916 0)
(0.168771 0.00212957 0)
(0.174009 0.0018677 0)
(0.180835 0.00160903 0)
(0.189397 0.00136481 0)
(0.199774 0.00110846 0)
(0.212042 0.000806015 0)
(0.226212 0.000363612 0)
(0.242332 -0.000307312 0)
(0.260413 -0.00137391 0)
(0.28053 -0.0030206 0)
(0.30276 -0.00550538 0)
(0.327231 -0.00919259 0)
(0.354187 -0.014484 0)
(0.383856 -0.0219738 0)
(0.416766 -0.0325234 0)
(0.453276 -0.0466331 0)
(0.494364 -0.0667692 0)
(0.540375 -0.0919457 0)
(0.59311 -0.12881 0)
(0.652437 -0.172374 0)
(0.721729 -0.235877 0)
(0.800088 -0.309973 0)
(0.894186 -0.410623 0)
(1.0078 -0.529951 0)
(1.15869 -0.689729 0)
(-0.000435703 0.00179517 0)
(-0.00301608 0.00220687 0)
(-0.00582154 0.000137391 0)
(-0.00726199 -0.00327595 0)
(-0.00635866 -0.00693171 0)
(-0.00244452 -0.0102097 0)
(0.00488051 -0.0128147 0)
(0.0155755 -0.0145622 0)
(0.029177 -0.0154125 0)
(0.0449334 -0.0154374 0)
(0.0619345 -0.0147572 0)
(0.0792439 -0.0134874 0)
(0.0959958 -0.0117439 0)
(0.111428 -0.00964695 0)
(0.124924 -0.00734175 0)
(0.136057 -0.0050032 0)
(0.144662 -0.00281161 0)
(0.150856 -0.000930171 0)
(0.155013 0.000542176 0)
(0.157674 0.00157254 0)
(0.159444 0.002192 0)
(0.160896 0.00246455 0)
(0.162523 0.00246879 0)
(0.164736 0.0022732 0)
(0.167874 0.00194339 0)
(0.172223 0.00152291 0)
(0.178031 0.00105709 0)
(0.185505 0.000566001 0)
(0.194819 6.52141e-05 0)
(0.20609 -0.000467279 0)
(0.219426 -0.0010632 0)
(0.23488 -0.00181231 0)
(0.252524 -0.00280701 0)
(0.272401 -0.00421146 0)
(0.294607 -0.00621871 0)
(0.319203 -0.0090895 0)
(0.346349 -0.0131923 0)
(0.376156 -0.0189579 0)
(0.408949 -0.0269555 0)
(0.444867 -0.0381291 0)
(0.484527 -0.0529203 0)
(0.52806 -0.0738647 0)
(0.576335 -0.100089 0)
(0.629597 -0.137858 0)
(0.688542 -0.183171 0)
(0.75402 -0.247617 0)
(0.826213 -0.32433 0)
(0.90795 -0.427149 0)
(1.00305 -0.550969 0)
(1.12213 -0.717562 0)
(-0.000438301 0.00194888 0)
(-0.0030364 0.00245836 0)
(-0.00584437 0.000339055 0)
(-0.0072509 -0.00324844 0)
(-0.0062798 -0.00717019 0)
(-0.00229042 -0.0107632 0)
(0.00510147 -0.0137051 0)
(0.0158464 -0.0157764 0)
(0.0294709 -0.0168983 0)
(0.0452177 -0.0171159 0)
(0.062177 -0.0165376 0)
(0.0794168 -0.0152782 0)
(0.0960777 -0.0134588 0)
(0.111408 -0.0112096 0)
(0.124808 -0.00869133 0)
(0.135868 -0.00610161 0)
(0.14444 -0.00364978 0)
(0.150658 -0.00152912 0)
(0.154899 0.000136079 0)
(0.157701 0.00129784 0)
(0.15966 0.00198281 0)
(0.161339 0.00225862 0)
(0.163223 0.00221116 0)
(0.165715 0.00191612 0)
(0.169152 0.00144409 0)
(0.173819 0.000842749 0)
(0.179975 0.000160309 0)
(0.187834 -0.000579568 0)
(0.197583 -0.00135762 0)
(0.209364 -0.00219159 0)
(0.223302 -0.00311126 0)
(0.239474 -0.00420269 0)
(0.257982 -0.00556112 0)
(0.278879 -0.00734862 0)
(0.302286 -0.0097638 0)
(0.328255 -0.0130717 0)
(0.356975 -0.0176381 0)
(0.388471 -0.0239236 0)
(0.423125 -0.0324659 0)
(0.460834 -0.0442804 0)
(0.502334 -0.0597584 0)
(0.547248 -0.0814591 0)
(0.596652 -0.108652 0)
(0.649869 -0.147168 0)
(0.707916 -0.193922 0)
(0.77005 -0.259017 0)
(0.836943 -0.337605 0)
(0.908751 -0.441841 0)
(0.988785 -0.568706 0)
(1.08225 -0.73936 0)
(-0.000440702 0.00210847 0)
(-0.00305514 0.00271866 0)
(-0.00586475 0.000544752 0)
(-0.007238 -0.0032247 0)
(-0.00619922 -0.00742286 0)
(-0.00213435 -0.0113412 0)
(0.00532375 -0.0146288 0)
(0.0161173 -0.0170313 0)
(0.0297638 -0.0184303 0)
(0.0455019 -0.0188436 0)
(0.0624244 -0.0183675 0)
(0.0796043 -0.0171163 0)
(0.0961865 -0.0152166 0)
(0.111424 -0.0128093 0)
(0.124724 -0.0100716 0)
(0.135689 -0.00722491 0)
(0.144186 -0.00450852 0)
(0.150359 -0.00214631 0)
(0.154595 -0.000288037 0)
(0.157432 0.00100352 0)
(0.159466 0.00175102 0)
(0.161251 0.00202598 0)
(0.163265 0.00192179 0)
(0.165907 0.00152129 0)
(0.169511 0.000899951 0)
(0.17436 0.000109336 0)
(0.180711 -0.000799916 0)
(0.188782 -0.00180068 0)
(0.198765 -0.00287053 0)
(0.21081 -0.00402329 0)
(0.225047 -0.00528718 0)
(0.241574 -0.00674481 0)
(0.260492 -0.00849417 0)
(0.281877 -0.0106956 0)
(0.305859 -0.0135512 0)
(0.332482 -0.0173316 0)
(0.361956 -0.0223957 0)
(0.394248 -0.0292327 0)
(0.429768 -0.0383478 0)
(0.468272 -0.050811 0)
(0.510521 -0.0669816 0)
(0.555872 -0.0893944 0)
(0.605406 -0.117492 0)
(0.657958 -0.156635 0)
(0.714578 -0.204575 0)
(0.773573 -0.270097 0)
(0.835775 -0.349961 0)
(0.899544 -0.454978 0)
(0.96747 -0.583673 0)
(1.04069 -0.756152 0)
(-0.000442924 0.00227405 0)
(-0.00307222 0.00298798 0)
(-0.00588252 0.000754469 0)
(-0.00722332 -0.00320495 0)
(-0.00611752 -0.00769021 0)
(-0.0019772 -0.0119449 0)
(0.00554689 -0.015587 0)
(0.016389 -0.0183283 0)
(0.0300576 -0.0200101 0)
(0.045787 -0.020622 0)
(0.0626736 -0.0202485 0)
(0.0797959 -0.0190033 0)
(0.0963031 -0.017019 0)
(0.111452 -0.0144474 0)
(0.124653 -0.0114829 0)
(0.135518 -0.00837175 0)
(0.143925 -0.00538465 0)
(0.150028 -0.00277674 0)
(0.154222 -0.000723491 0)
(0.15705 0.000697666 0)
(0.159102 0.00150579 0)
(0.16093 0.00177664 0)
(0.163008 0.00161128 0)
(0.165728 0.00109985 0)
(0.169421 0.000322656 0)
(0.174371 -0.000664794 0)
(0.180829 -0.00180951 0)
(0.189015 -0.00308085 0)
(0.199116 -0.0044535 0)
(0.211285 -0.00593737 0)
(0.225651 -0.00755949 0)
(0.242316 -0.00939918 0)
(0.261386 -0.0115569 0)
(0.282937 -0.0141921 0)
(0.307105 -0.0175088 0)
(0.333925 -0.0217837 0)
(0.363612 -0.0273669 0)
(0.396102 -0.0347727 0)
(0.431797 -0.0444778 0)
(0.470388 -0.0575881 0)
(0.512591 -0.0744515 0)
(0.557654 -0.0975358 0)
(0.606552 -0.126479 0)
(0.657899 -0.16616 0)
(0.712634 -0.21507 0)
(0.768528 -0.280852 0)
(0.826399 -0.361515 0)
(0.883434 -0.466796 0)
(0.94146 -0.596309 0)
(0.998599 -0.768854 0)
(-0.000444973 0.00244574 0)
(-0.00308761 0.00326654 0)
(-0.00589759 0.000968187 0)
(-0.00720683 -0.00318941 0)
(-0.00603496 -0.00797266 0)
(-0.00181964 -0.0125753 0)
(0.00576986 -0.016581 0)
(0.0166604 -0.0196687 0)
(0.0303516 -0.0216391 0)
(0.046073 -0.0224526 0)
(0.062924 -0.0221821 0)
(0.0799893 -0.0209408 0)
(0.0964221 -0.0188673 0)
(0.111482 -0.0161247 0)
(0.124585 -0.0129255 0)
(0.135348 -0.00954196 0)
(0.143659 -0.00627721 0)
(0.149683 -0.00341864 0)
(0.153823 -0.00116768 0)
(0.156623 0.000383661 0)
(0.158672 0.00125122 0)
(0.160517 0.00151532 0)
(0.162626 0.00128486 0)
(0.16539 0.000657399 0)
(0.169135 -0.000281829 0)
(0.174145 -0.00147326 0)
(0.180667 -0.00286133 0)
(0.188917 -0.00441181 0)
(0.199078 -0.00609639 0)
(0.2113 -0.00792104 0)
(0.225708 -0.00991159 0)
(0.242402 -0.0121445 0)
(0.261485 -0.0147221 0)
(0.283031 -0.0178035 0)
(0.307171 -0.0215935 0)
(0.333933 -0.0263749 0)
(0.36352 -0.0324889 0)
(0.395852 -0.0404695 0)
(0.431298 -0.0507721 0)
(0.469529 -0.0645185 0)
(0.511175 -0.0820667 0)
(0.555461 -0.105783 0)
(0.603205 -0.135511 0)
(0.652941 -0.175659 0)
(0.705445 -0.225351 0)
(0.758192 -0.29126 0)
(0.811903 -0.372342 0)
(0.862992 -0.477456 0)
(0.912594 -0.606948 0)
(0.956545 -0.778184 0)
(-0.000446849 0.00262366 0)
(-0.00310127 0.00355453 0)
(-0.00590993 0.00118589 0)
(-0.00718855 -0.00317832 0)
(-0.0059518 -0.0082706 0)
(-0.00166218 -0.0132333 0)
(0.00599178 -0.0176123 0)
(0.0169301 -0.0210541 0)
(0.0306442 -0.0233188 0)
(0.0463582 -0.0243371 0)
(0.0631743 -0.0241699 0)
(0.0801828 -0.0229301 0)
(0.0965412 -0.0207626 0)
(0.111513 -0.0178421 0)
(0.124515 -0.0143999 0)
(0.135174 -0.0107356 0)
(0.143388 -0.00718593 0)
(0.14933 -0.00407137 0)
(0.153411 -0.00161968 0)
(0.156177 6.27209e-05 0)
(0.158214 0.000988786 0)
(0.160065 0.00124375 0)
(0.162193 0.000944481 0)
(0.164986 0.000196086 0)
(0.168768 -0.000911209 0)
(0.173819 -0.00231361 0)
(0.180385 -0.00395271 0)
(0.188678 -0.00579041 0)
(0.198873 -0.00779522 0)
(0.211116 -0.00996909 0)
(0.225527 -0.0123365 0)
(0.242199 -0.0149711 0)
(0.261231 -0.0179768 0)
(0.28269 -0.0215127 0)
(0.306697 -0.0257832 0)
(0.33327 -0.0310768 0)
(0.362594 -0.0377264 0)
(0.394577 -0.0462801 0)
(0.429541 -0.0571795 0)
(0.467157 -0.0715445 0)
(0.50795 -0.0897606 0)
(0.551159 -0.114068 0)
(0.597435 -0.144518 0)
(0.645288 -0.185067 0)
(0.695327 -0.235373 0)
(0.744853 -0.301287 0)
(0.794458 -0.382473 0)
(0.840023 -0.487045 0)
(0.882086 -0.615816 0)
(0.914749 -0.78465 0)
(-0.000448555 0.00280791 0)
(-0.0031132 0.00385218 0)
(-0.00591951 0.00140754 0)
(-0.0071685 -0.00317195 0)
(-0.00586831 -0.00858445 0)
(-0.00150532 -0.0139199 0)
(0.00621183 -0.0186822 0)
(0.0171969 -0.0224859 0)
(0.0309338 -0.025051 0)
(0.0466408 -0.0262772 0)
(0.0634224 -0.0262133 0)
(0.0803745 -0.0249726 0)
(0.0966585 -0.022706 0)
(0.11154 -0.0196004 0)
(0.124442 -0.0159065 0)
(0.134996 -0.0119528 0)
(0.14311 -0.00811068 0)
(0.148969 -0.00473467 0)
(0.152988 -0.00207913 0)
(0.155717 -0.000264743 0)
(0.157739 0.00071895 0)
(0.159592 0.000962406 0)
(0.161735 0.000590631 0)
(0.164551 -0.000283649 0)
(0.168364 -0.00156509 0)
(0.17345 -0.0031855 0)
(0.180053 -0.00508328 0)
(0.188378 -0.0072162 0)
(0.198597 -0.00954928 0)
(0.210847 -0.0120803 0)
(0.225243 -0.0148322 0)
(0.241872 -0.017876 0)
(0.260825 -0.0213164 0)
(0.28216 -0.0253125 0)
(0.305986 -0.0300681 0)
(0.33231 -0.0358757 0)
(0.36129 -0.0430614 0)
(0.392828 -0.0521814 0)
(0.42719 -0.0636709 0)
(0.464053 -0.0786324 0)
(0.503836 -0.0974918 0)
(0.545796 -0.122348 0)
(0.590425 -0.153448 0)
(0.636231 -0.194335 0)
(0.683653 -0.245095 0)
(0.729894 -0.310896 0)
(0.77538 -0.391908 0)
(0.815629 -0.495594 0)
(0.850638 -0.623032 0)
(0.873216 -0.788569 0)
(-0.000450093 0.00299861 0)
(-0.00312337 0.00415968 0)
(-0.00592631 0.00163313 0)
(-0.00714671 -0.00317053 0)
(-0.00578479 -0.00891465 0)
(-0.00134959 -0.0146359 0)
(0.00642925 -0.0197921 0)
(0.0174595 -0.0239656 0)
(0.0312186 -0.026837 0)
(0.0469189 -0.0282744 0)
(0.0636664 -0.028314 0)
(0.0805622 -0.0270696 0)
(0.0967718 -0.0246986 0)
(0.111564 -0.0214002 0)
(0.124363 -0.0174459 0)
(0.134812 -0.0131937 0)
(0.142825 -0.00905138 0)
(0.148599 -0.00540835 0)
(0.152556 -0.00254582 0)
(0.155246 -0.000598542 0)
(0.157251 0.000441811 0)
(0.159105 0.000671295 0)
(0.16126 0.00022319 0)
(0.164097 -0.000782071 0)
(0.167938 -0.0022439 0)
(0.173057 -0.00408948 0)
(0.179693 -0.00625374 0)
(0.188047 -0.00868989 0)
(0.198284 -0.0113592 0)
(0.210536 -0.0142552 0)
(0.22491 -0.0173988 0)
(0.241485 -0.0208587 0)
(0.260345 -0.0247396 0)
(0.281539 -0.0292006 0)
(0.305159 -0.0344441 0)
(0.331204 -0.0407654 0)
(0.359801 -0.048485 0)
(0.390844 -0.0581614 0)
(0.424543 -0.0702296 0)
(0.46058 -0.0857624 0)
(0.499268 -0.105234 0)
(0.539883 -0.130594 0)
(0.582766 -0.162269 0)
(0.626424 -0.203424 0)
(0.671138 -0.254484 0)
(0.714042 -0.320042 0)
(0.755383 -0.400623 0)
(0.790404 -0.50309 0)
(0.81864 -0.628644 0)
(0.831917 -0.790127 0)
(-0.000451469 0.00319586 0)
(-0.0031318 0.00447722 0)
(-0.00593035 0.00186262 0)
(-0.00712321 -0.00317432 0)
(-0.00570154 -0.00926167 0)
(-0.00119552 -0.0153821 0)
(0.00664328 -0.0209432 0)
(0.0177168 -0.0254948 0)
(0.031497 -0.0286786 0)
(0.0471906 -0.0303305 0)
(0.063904 -0.0304736 0)
(0.0807436 -0.0292226 0)
(0.0968788 -0.0267416 0)
(0.111581 -0.0232426 0)
(0.124278 -0.0190184 0)
(0.13462 -0.0144585 0)
(0.142533 -0.010008 0)
(0.148221 -0.00609229 0)
(0.152114 -0.00301959 0)
(0.154766 -0.000938572 0)