/*--------------------------------*- C++ -*----------------------------------*\
  =========                 |
  \\      /  F ield         | OpenFOAM: The Open Source CFD Toolbox
   \\    /   O peration     | Website:  https://openfoam.org
    \\  /    A nd           | Version:  7
     \\/     M anipulation  |
\*---------------------------------------------------------------------------*/
FoamFile
{
    version     2.0;
    format      ascii;
    class       surfaceScalarField;
    location    "0.38";
    object      ddtCorrDdt0(phi);
}
// * * * * * * * * * * * * * * * * * * * * * * * * * * * * * * * * * * * * * //

dimensions      [0 3 -2 0 0 0 0];

internalField   nonuniform List<scalar> 
139350
(
-1.6028e-10
1.61077e-10
-1.73822e-10
1.51338e-11
4.10378e-11
-2.13028e-10
3.42736e-10
-3.00032e-10
6.24398e-10
-2.80114e-10
8.3167e-10
-2.05384e-10
9.40711e-10
-1.07123e-10
9.60063e-10
-1.66505e-11
9.14906e-10
4.7563e-11
8.3613e-10
8.23619e-11
7.47135e-10
9.18001e-11
6.65357e-10
8.54005e-11
5.95979e-10
7.22932e-11
5.3913e-10
5.9837e-11
4.90594e-10
5.15367e-11
4.43954e-10
4.91382e-11
3.93623e-10
5.33861e-11
3.33827e-10
6.20552e-11
2.62454e-10
7.41928e-11
1.76861e-10
8.74398e-11
7.89684e-11
1.00348e-10
-3.09514e-11
1.11199e-10
-1.47517e-10
1.18929e-10
-2.69043e-10
1.22531e-10
-3.88851e-10
1.22389e-10
-5.04689e-10
1.16887e-10
-6.08955e-10
1.06966e-10
-6.98951e-10
9.10278e-11
-7.6479e-10
6.8382e-11
-8.01523e-10
3.76093e-11
-7.94669e-10
-4.41769e-12
-7.32516e-10
-6.13032e-11
-5.93447e-10
-1.36516e-10
-3.56791e-10
-2.3566e-10
9.49367e-12
-3.63715e-10
5.42464e-10
-5.32065e-10
1.28535e-09
-7.40795e-10
2.30918e-09
-1.02351e-09
3.65065e-09
-1.3402e-09
5.46521e-09
-1.81528e-09
7.71927e-09
-2.25337e-09
1.07642e-08
-3.0473e-09
1.43364e-08
-3.57151e-09
1.91661e-08
-4.83393e-09
2.4396e-08
-5.22827e-09
3.14962e-08
-7.10332e-09
3.73784e-08
-5.87711e-09
4.70475e-08
-9.66683e-09
3.64029e-08
1.06536e-08
-4.74322e-08
8.38422e-08
-2.18975e-10
3.81017e-10
2.82696e-11
-2.30377e-10
1.02124e-09
-1.20405e-09
2.36414e-09
-1.64112e-09
3.65393e-09
-1.5682e-09
4.69683e-09
-1.24621e-09
5.42176e-09
-8.29955e-10
5.85486e-09
-4.46761e-10
6.0831e-09
-1.78042e-10
6.20834e-09
-3.89651e-11
6.31068e-09
-7.48299e-12
6.44201e-09
-4.20374e-11
6.62093e-09
-1.03464e-10
6.84581e-09
-1.61827e-10
7.10202e-09
-2.01415e-10
7.36957e-09
-2.15711e-10
7.62932e-09
-2.0306e-10
7.86532e-09
-1.71519e-10
8.06953e-09
-1.2698e-10
8.2375e-09
-7.85638e-11
8.37283e-09
-3.23356e-11
8.47997e-09
5.4188e-12
8.56978e-09
3.16842e-11
8.64975e-09
4.3646e-11
8.73213e-09
4.28199e-11
8.8249e-09
2.52471e-11
8.94154e-09
-6.75471e-12
9.0916e-09
-5.79278e-11
9.29405e-09
-1.31329e-10
9.56519e-09
-2.32602e-10
9.93519e-09
-3.71785e-10
1.04376e-08
-5.6282e-10
1.11209e-08
-8.17033e-10
1.20432e-08
-1.15682e-09
1.32798e-08
-1.5976e-09
1.49328e-08
-2.18409e-09
1.71168e-08
-2.9226e-09
2.00108e-08
-3.91721e-09
2.37715e-08
-5.0996e-09
2.87318e-08
-6.77642e-09
3.50529e-08
-8.57371e-09
4.34187e-08
-1.14158e-08
5.37606e-08
-1.39126e-08
6.77081e-08
-1.8786e-08
8.38564e-08
-2.13748e-08
1.0691e-07
-3.01606e-08
1.29313e-07
-2.8274e-08
1.66679e-07
-4.70294e-08
1.82195e-07
-4.85302e-09
-6.53033e-08
2.00073e-07
-2.94487e-10
6.76604e-10
-7.56523e-11
-4.47362e-10
1.27183e-09
-2.54947e-09
3.40849e-09
-3.77587e-09
5.67092e-09
-3.82882e-09
7.622e-09
-3.19506e-09
9.06763e-09
-2.27333e-09
9.99936e-09
-1.37528e-09
1.05332e-08
-7.09039e-10
1.08334e-08
-3.35007e-10
1.10441e-08
-2.14905e-10
1.12655e-08
-2.59391e-10
1.15446e-08
-3.7921e-10
1.18903e-08
-5.0406e-10
1.22854e-08
-5.93096e-10
1.27003e-08
-6.27791e-10
1.31038e-08
-6.03018e-10
1.34683e-08
-5.33502e-10
1.37777e-08
-4.33113e-10
1.40226e-08
-3.21457e-10
1.42054e-08
-2.12296e-10
1.4331e-08
-1.18734e-10
1.44119e-08
-4.65745e-11
1.44572e-08
-5.1456e-13
1.44804e-08
2.26042e-11
1.44898e-08
1.70364e-11
1.44995e-08
-1.33316e-11
1.45195e-08
-7.67819e-11
1.45707e-08
-1.79606e-10
1.46728e-08
-3.33772e-10
1.48615e-08
-5.57734e-10
1.51799e-08
-8.80236e-10
1.56874e-08
-1.32161e-09
1.6462e-08
-1.93025e-09
1.7598e-08
-2.73066e-09
1.92342e-08
-3.81936e-09
2.15209e-08
-5.20705e-09
2.46974e-08
-7.09338e-09
2.89986e-08
-9.3995e-09
3.48424e-08
-1.26211e-08
4.25607e-08
-1.62913e-08
5.29846e-08
-2.18427e-08
6.62813e-08
-2.72086e-08
8.46496e-08
-3.71591e-08
1.06394e-07
-4.31174e-08
1.38639e-07
-6.24088e-08
1.71608e-07
-6.12362e-08
2.24809e-07
-1.00227e-07
2.72372e-07
-5.24059e-08
-8.56164e-08
2.92692e-07
-3.45857e-10
1.02366e-09
-4.011e-10
-3.90177e-10
7.109e-10
-3.65934e-09
3.00956e-09
-6.07252e-09
5.85886e-09
-6.67623e-09
8.60674e-09
-5.94059e-09
1.08381e-08
-4.5023e-09
1.24011e-08
-2.93494e-09
1.33533e-08
-1.65826e-09
1.38684e-08
-8.45724e-10
1.41366e-08
-4.79739e-10
1.43138e-08
-4.32325e-10
1.4495e-08
-5.5683e-10
1.47227e-08
-7.28263e-10
1.49985e-08
-8.65273e-10
1.52983e-08
-9.24583e-10
1.5588e-08
-8.89071e-10
1.58325e-08
-7.75345e-10
1.60067e-08
-6.04061e-10
1.60939e-08
-4.06461e-10
1.60904e-08
-2.05915e-10
1.59972e-08
-2.40699e-11
1.58241e-08
1.29372e-10
1.55771e-08
2.47632e-10
1.52672e-08
3.35645e-10
1.4899e-08
3.86505e-10
1.4483e-08
4.05871e-10
1.40254e-08
3.81939e-10
1.35439e-08
3.04914e-10
1.3056e-08
1.55131e-10
1.25957e-08
-9.45122e-11
1.22068e-08
-4.90344e-10
1.19494e-08
-1.0612e-09
1.19077e-08
-1.88738e-09
1.21799e-08
-2.99982e-09
1.29176e-08
-4.5561e-09
1.42845e-08
-6.57159e-09
1.65384e-08
-9.34707e-09
1.99559e-08
-1.28156e-08
2.49765e-08
-1.76426e-08
3.20264e-08
-2.33405e-08
4.19981e-08
-3.18175e-08
5.51681e-08
-4.03777e-08
7.40407e-08
-5.60367e-08
9.69158e-08
-6.59906e-08
1.3146e-07
-9.69567e-08
1.69612e-07
-9.93809e-08
2.25537e-07
-1.56149e-07
2.9398e-07
-1.20838e-07
-1.24391e-07
3.32762e-07
-3.43163e-10
1.36809e-09
-6.86725e-10
-4.46006e-11
-1.37619e-10
-4.20625e-09
1.71083e-09
-7.91889e-09
4.53908e-09
-9.50251e-09
7.71317e-09
-9.11226e-09
1.06471e-08
-7.43375e-09
1.29738e-08
-5.25818e-09
1.45795e-08
-3.26088e-09
1.55455e-08
-1.80715e-09
1.60414e-08
-9.72178e-10
1.62502e-08
-6.36691e-10
1.63157e-08
-6.18638e-10
1.63327e-08
-7.41693e-10
1.63472e-08
-8.76034e-10
1.63663e-08
-9.40637e-10
1.6374e-08
-8.92969e-10
1.63411e-08
-7.39764e-10
1.62409e-08
-5.00408e-10
1.60501e-08
-2.13431e-10
1.57575e-08
8.96145e-11
1.53563e-08
3.78612e-10
1.48494e-08
6.39183e-10
1.42362e-08
8.62055e-10
1.35215e-08
1.05355e-09
1.27035e-08
1.20582e-09
1.17864e-08
1.3262e-09
1.07702e-08
1.39936e-09
9.66625e-09
1.41193e-09
8.48698e-09
1.33542e-09
7.26099e-09
1.13442e-09
6.0287e-09
7.4299e-10
4.84609e-09
1.24504e-10
3.79646e-09
-8.36546e-10
2.97636e-09
-2.17667e-09
2.53684e-09
-4.11558e-09
2.64732e-09
-6.67971e-09
3.56036e-09
-1.02599e-08
5.57714e-09
-1.4831e-08
9.12388e-09
-2.11905e-08
1.4678e-08
-2.88939e-08
2.31276e-08
-4.02703e-08
3.48388e-08
-5.20882e-08
5.22581e-08
-7.34611e-08
7.42808e-08
-8.80115e-08
1.0713e-07
-1.29809e-07
1.47403e-07
-1.39647e-07
2.00256e-07
-2.08999e-07
2.76203e-07
-1.96774e-07
-1.87342e-07
3.39161e-07
-3.1336e-10
1.68278e-09
-8.2065e-10
4.64764e-10
-8.15997e-10
-4.20865e-09
3.00914e-10
-9.03367e-09
2.59364e-09
-1.17932e-08
5.67325e-09
-1.21894e-08
8.97568e-09
-1.07337e-08
1.19908e-08
-8.26963e-09
1.43981e-08
-5.66505e-09
1.60964e-08
-3.50089e-09
1.71394e-08
-2.0115e-09
1.7664e-08
-1.15678e-09
1.78224e-08
-7.73369e-10
1.77508e-08
-6.663e-10
1.75492e-08
-6.70648e-10
1.72784e-08
-6.66678e-10
1.69659e-08
-5.76593e-10
1.66118e-08
-3.82871e-10
1.62044e-08
-8.95429e-11
1.57243e-08
2.68872e-10
1.51572e-08
6.59767e-10
1.44887e-08
1.04859e-09
1.37133e-08
1.41759e-09
1.28212e-08
1.75536e-09
1.18087e-08
2.06926e-09
1.06654e-08
2.3505e-09
9.38723e-09
2.60765e-09
7.96608e-09
2.82174e-09
6.40539e-09
2.97571e-09
4.71062e-09
3.03124e-09
2.90312e-09
2.94489e-09
1.01738e-09
2.62979e-09
-8.9627e-10
2.04128e-09
-2.75931e-09
1.02771e-09
-4.4772e-09
-4.55712e-10
-5.90644e-09
-2.68535e-09
-6.87182e-09
-5.71195e-09
-7.13656e-09
-9.99491e-09
-6.38024e-09
-1.5586e-08
-4.20416e-09
-2.33677e-08
-9.26943e-11
-3.30047e-08
6.78145e-09
-4.71479e-08
1.69424e-08
-6.22485e-08
3.24354e-08
-8.89594e-08
5.3261e-08
-1.08835e-07
8.32119e-08
-1.59763e-07
1.2379e-07
-1.80218e-07
1.73486e-07
-2.58691e-07
2.48877e-07
-2.72154e-07
-2.6986e-07
3.31404e-07
-2.923e-10
1.97645e-09
-8.45112e-10
1.0197e-09
-1.17945e-09
-3.87202e-09
-7.18261e-10
-9.49268e-09
8.48449e-10
-1.33579e-08
3.43675e-09
-1.47751e-08
6.67301e-09
-1.39674e-08
1.00644e-08
-1.16573e-08
1.31683e-08
-8.76571e-09
1.57005e-08
-6.02836e-09
1.7542e-08
-3.8493e-09
1.8708e-08
-2.31812e-09
1.92894e-08
-1.35104e-09
1.94148e-08
-7.87927e-10
1.92151e-08
-4.66997e-10
1.88026e-08
-2.50965e-10
1.82623e-08
-3.23749e-11
1.76449e-08
2.37343e-10
1.6976e-08
5.82863e-10
1.62582e-08
9.8888e-10
1.54867e-08
1.43439e-09
1.46472e-08
1.88965e-09
1.3729e-08
2.33876e-09
1.27147e-08
2.77091e-09
1.15918e-08
3.19545e-09
1.03403e-08
3.60331e-09
8.9472e-09
4.00409e-09
7.39488e-09
4.37529e-09
5.67757e-09
4.69613e-09
3.79205e-09
4.91779e-09
1.75096e-09
4.98898e-09
-4.19504e-10
4.80131e-09
-2.67587e-09
4.3008e-09
-4.94785e-09
3.30089e-09
-7.14296e-09
1.74249e-09
-9.12961e-09
-6.97714e-10
-1.07269e-08
-4.11235e-09
-1.17177e-08
-9.00385e-09
-1.17661e-08
-1.55364e-08
-1.05066e-08
-2.46284e-08
-7.38601e-09
-3.61246e-08
-1.67877e-09
-5.28586e-08
7.34895e-09
-7.12756e-08
2.11977e-08
-1.02814e-07
4.09964e-08
-1.28632e-07
6.83961e-08
-1.87166e-07
1.08081e-07
-2.19897e-07
1.55847e-07
-3.06454e-07
2.28492e-07
-3.44788e-07
-3.6353e-07
3.22171e-07
-2.92529e-10
2.27039e-09
-8.36464e-10
1.5658e-09
-1.30659e-09
-3.39956e-09
-1.25322e-09
-9.54384e-09
-2.97219e-10
-1.43118e-08
1.68772e-09
-1.67575e-08
4.55784e-09
-1.68349e-08
7.96036e-09
-1.50561e-08
1.14611e-08
-1.22631e-08
1.4678e-08
-9.24046e-09
1.73436e-08
-6.51112e-09
1.93258e-08
-4.29567e-09
2.0602e-08
-2.62338e-09
2.12341e-08
-1.4162e-09
2.13339e-08
-5.62876e-10
2.10338e-08
5.24301e-11
2.04639e-08
5.41515e-10
1.97297e-08
9.74371e-10
1.89086e-08
1.4075e-09
1.80434e-08
1.85638e-09
1.71555e-08
2.32537e-09
1.62446e-08
2.80213e-09
1.53045e-08
3.28181e-09
1.43167e-08
3.76005e-09
1.32638e-08
4.2516e-09
1.21191e-08
4.7494e-09
1.08613e-08
5.2652e-09
9.46398e-09
5.77387e-09
7.91164e-09
6.25159e-09
6.19129e-09
6.63918e-09
4.30555e-09
6.87772e-09
2.26987e-09
6.83805e-09
1.1914e-10
6.45467e-09
-2.0884e-09
5.50964e-09
-4.2643e-09
3.92147e-09
-6.29294e-09
1.33188e-09
-7.99112e-09
-2.41185e-09
-9.16423e-09
-7.83059e-09
-9.46812e-09
-1.52313e-08
-8.57213e-09
-2.55257e-08
-5.89843e-09
-3.87978e-08
-8.25079e-10
-5.79355e-08
7.5466e-09
-7.96468e-08
2.02657e-08
-1.15538e-07
3.92006e-08
-1.47566e-07
6.471e-08
-2.12679e-07
1.0286e-07
-2.5804e-07
1.49163e-07
-3.52753e-07
2.1857e-07
-4.14184e-07
-4.62116e-07
3.17165e-07
-3.06536e-10
2.57836e-09
-8.42686e-10
2.10415e-09
-1.33527e-09
-2.90461e-09
-1.4502e-09
-9.42667e-09
-8.5807e-10
-1.49018e-08
6.49004e-10
-1.82619e-08
3.08918e-09
-1.92724e-08
6.2731e-09
-1.82362e-08
9.86256e-09
-1.58492e-08
1.34794e-08
-1.28524e-08
1.67848e-08
-9.81274e-09
1.9536e-08
-7.04217e-09
2.15935e-08
-4.67691e-09
2.29212e-08
-2.74004e-09
2.35671e-08
-1.20476e-09
2.3639e-08
-1.61616e-11
2.32786e-08
9.05919e-10
2.2628e-08
1.62788e-09
2.18127e-08
2.22638e-09
2.09226e-08
2.74868e-09
2.00182e-08
3.2329e-09
1.91264e-08
3.69547e-09
1.82584e-08
4.15286e-09
1.74046e-08
4.61515e-09
1.65515e-08
5.10794e-09
1.56718e-08
5.63045e-09
1.47411e-08
6.19929e-09
1.37269e-08
6.78927e-09
1.26062e-08
7.3754e-09
1.13567e-08
7.88969e-09
9.971e-09
8.26641e-09
8.45221e-09
8.35789e-09
6.82507e-09
8.08495e-09
5.13229e-09
7.2036e-09
3.45476e-09
5.60205e-09
1.88832e-09
2.89926e-09
6.11041e-10
-1.13229e-09
-2.06339e-10
-7.01311e-09
-2.27312e-10
-1.52092e-08
8.4959e-10
-2.66039e-08
3.59064e-09
-4.15384e-08
8.54808e-09
-6.28965e-08
1.66682e-08
-8.77666e-08
2.87305e-08
-1.27606e-07
4.69019e-08
-1.65736e-07
7.09255e-08
-2.36706e-07
1.07153e-07
-2.9426e-07
1.51653e-07
-3.97249e-07
2.17553e-07
-4.80073e-07
-5.60532e-07
3.15978e-07
-3.24286e-10
2.90411e-09
-8.6803e-10
2.65012e-09
-1.35281e-09
-2.41745e-09
-1.50025e-09
-9.27695e-09
-1.05051e-09
-1.53494e-08
1.92668e-10
-1.95024e-08
2.31523e-09
-2.13923e-08
5.24239e-09
-2.11595e-08
8.74363e-09
-1.93471e-08
1.25039e-08
-1.66077e-08
1.61888e-08
-1.34938e-08
1.95092e-08
-1.03577e-08
2.22474e-08
-7.41113e-09
2.42792e-08
-4.76797e-09
2.55734e-08
-2.49493e-09
2.61825e-08
-6.21926e-10
2.62245e-08
8.67974e-10
2.58478e-08
2.0075e-09
2.52066e-08
2.87122e-09
2.44297e-08
3.52776e-09
2.36174e-08
4.04836e-09
2.28306e-08
4.48382e-09
2.21068e-08
4.87971e-09
2.14554e-08
5.26774e-09
2.08765e-08
5.69016e-09
2.03508e-08
6.15753e-09
1.98583e-08
6.69516e-09
1.9367e-08
7.28177e-09
1.88511e-08
7.89437e-09
1.82824e-08
8.45935e-09
1.76458e-08
8.90597e-09
1.69328e-08
9.07202e-09
1.61576e-08
8.86325e-09
1.5346e-08
8.01634e-09
1.45677e-08
6.38341e-09
1.38965e-08
3.57131e-09
1.34959e-08
-7.29435e-10
1.35131e-08
-7.03025e-09
1.42558e-08
-1.59508e-08
1.60057e-08
-2.83551e-08
1.92713e-08
-4.48036e-08
2.45709e-08
-6.81999e-08
3.27882e-08
-9.59837e-08
4.45523e-08
-1.39376e-07
6.20527e-08
-1.83235e-07
8.47233e-08
-2.5938e-07
1.18693e-07
-3.28224e-07
1.60803e-07
-4.39355e-07
2.22417e-07
-5.41675e-07
-6.54543e-07
3.16436e-07
-3.40837e-10
3.24643e-09
-9.03122e-10
3.21467e-09
-1.38465e-09
-1.93352e-09
-1.51763e-09
-9.14168e-09
-1.08456e-09
-1.57803e-08
7.34055e-11
-2.06577e-08
2.04461e-09
-2.33608e-08
4.80097e-09
-2.39119e-08
8.18567e-09
-2.27284e-08
1.19527e-08
-2.03697e-08
1.58087e-08
-1.73459e-08
1.94706e-08
-1.40147e-08
2.26927e-08
-1.06292e-08
2.52981e-08
-7.36934e-09
2.71912e-08
-4.38398e-09
2.83647e-08
-1.79208e-09
2.8894e-08
3.42798e-10
2.89086e-08
1.9958e-09
2.85676e-08
3.21585e-09
2.80213e-08
4.07628e-09
2.73997e-08
4.67312e-09
2.67946e-08
5.09043e-09
2.62715e-08
5.40579e-09
2.58638e-08
5.67669e-09
2.55913e-08
5.96599e-09
2.54505e-08
6.29967e-09
2.54336e-08
6.71535e-09
2.55167e-08
7.19984e-09
2.56782e-08
7.73601e-09
2.58895e-08
8.249e-09
2.61326e-08
8.66577e-09
2.63909e-08
8.81481e-09
2.66703e-08
8.58689e-09
2.69813e-08
7.70651e-09
2.738e-08
5.98763e-09
2.79194e-08
3.03271e-09
2.87393e-08
-1.54719e-09
2.9966e-08
-8.25691e-09
3.18588e-08
-1.78426e-08
3.46855e-08
-3.11834e-08
3.88626e-08
-4.89805e-08
4.48845e-08
-7.42257e-08
5.35137e-08
-1.04613e-07
6.52544e-08
-1.51122e-07
8.21938e-08
-2.00173e-07
1.0355e-07
-2.80739e-07
1.34985e-07
-3.59653e-07
1.7407e-07
-4.78436e-07
2.30428e-07
-5.98022e-07
-7.40774e-07
3.16668e-07
-3.55846e-10
3.60378e-09
-9.40126e-10
3.80123e-09
-1.42832e-09
-1.44289e-09
-1.54268e-09
-9.02501e-09
-1.07926e-09
-1.62415e-08
9.19385e-11
-2.18261e-08
2.04033e-09
-2.53064e-08
4.74293e-09
-2.66105e-08
8.07116e-09
-2.60531e-08
1.18218e-08
-2.41153e-08
1.57438e-08
-2.12639e-08
1.95818e-08
-1.78478e-08
2.30968e-08
-1.41402e-08
2.60954e-08
-1.03639e-08
2.8447e-08
-6.73146e-09
3.00999e-08
-3.44161e-09
3.10882e-08
-6.41397e-10
3.15126e-08
1.57432e-09
3.15206e-08
3.21142e-09
3.12672e-08
4.33193e-09
3.08979e-08
5.04555e-09
3.05259e-08
5.46392e-09
3.02394e-08
5.69521e-09
3.00941e-08
5.82329e-09
3.01307e-08
5.93267e-09
3.0365e-08
6.0667e-09
3.08064e-08
6.27723e-09
3.1445e-08
6.56242e-09
3.22697e-08
6.91428e-09
3.32584e-08
7.26128e-09
3.4396e-08
7.5311e-09
3.56631e-08
7.54865e-09
3.70619e-08
7.19118e-09
3.85917e-08
6.17779e-09
4.0296e-08
4.2862e-09
4.22107e-08
1.1188e-09
4.44469e-08
-3.78133e-09
4.71132e-08
-1.09233e-08
5.04096e-08
-2.11381e-08
5.45894e-08
-3.53647e-08
5.99641e-08
-5.43552e-08
6.69894e-08
-8.1255e-08
7.62957e-08
-1.13919e-07
8.82375e-08
-1.6307e-07
1.04746e-07
-2.16681e-07
1.24856e-07
-3.00853e-07
1.53604e-07
-3.88396e-07
1.89158e-07
-5.13986e-07
2.39479e-07
-6.48332e-07
-8.16901e-07
3.15616e-07
-3.70395e-10
3.9757e-09
-9.7658e-10
4.40971e-09
-1.47636e-09
-9.40677e-10
-1.57807e-09
-8.92098e-09
-1.07618e-09
-1.67412e-08
1.45635e-10
-2.30452e-08
2.14025e-09
-2.72983e-08
4.87427e-09
-2.93405e-08
8.22073e-09
-2.9396e-08
1.19912e-08
-2.78807e-08
1.59587e-08
-2.52273e-08
1.98931e-08
-2.17773e-08
2.35735e-08
-1.78166e-08
2.68114e-08
-1.35978e-08
2.94662e-08
-9.38209e-09
3.1464e-08
-5.4361e-09
3.28116e-08
-1.98482e-09
3.35845e-08
8.04321e-10
3.39143e-08
2.88524e-09
3.39506e-08
4.29785e-09
3.38433e-08
5.15591e-09
3.37166e-08
5.59212e-09
3.36731e-08
5.74163e-09
3.37848e-08
5.71284e-09
3.411e-08
5.61065e-09
3.46826e-08
5.49543e-09
3.55299e-08
5.4332e-09
3.66585e-08
5.43495e-09
3.80719e-08
5.50379e-09
3.9759e-08
5.57511e-09
4.1713e-08
5.57997e-09
4.39178e-08
5.3448e-09
4.63762e-08
4.73572e-09
4.90832e-08
3.47186e-09
5.20723e-08
1.29992e-09
5.53683e-08
-2.17654e-09
5.9054e-08
-7.46501e-09
6.32237e-08
-1.50932e-08
6.80177e-08
-2.59315e-08
7.36691e-08
-4.10178e-08
8.03919e-08
-6.10782e-08
8.85779e-08
-8.94451e-08
9.87405e-08
-1.24083e-07
1.11057e-07
-1.75392e-07
1.27271e-07
-2.32895e-07
1.4627e-07
-3.19855e-07
1.72358e-07
-4.14478e-07
2.04139e-07
-5.45764e-07
2.48051e-07
-6.92232e-07
-8.81724e-07
3.12884e-07
-3.85221e-10
4.36245e-09
-1.01279e-09
5.03958e-09
-1.52521e-09
-4.2582e-10
-1.61795e-09
-8.82591e-09
-1.07979e-09
-1.72772e-08
2.00891e-10
-2.43231e-08
2.26778e-09
-2.93624e-08
5.07741e-09
-3.21461e-08
8.49468e-09
-3.28098e-08
1.23297e-08
-3.17106e-08
1.63621e-08
-2.92556e-08
2.03743e-08
-2.57846e-08
2.41597e-08
-2.15978e-08
2.75404e-08
-1.69744e-08
3.0379e-08
-1.22166e-08
3.25961e-08
-7.6498e-09
3.41861e-08
-3.57072e-09
3.52103e-08
-2.16989e-10
3.57882e-08
2.31095e-09
3.60625e-08
4.02575e-09
3.61819e-08
5.03952e-09
3.62744e-08
5.50111e-09
3.64497e-08
5.56921e-09
3.67896e-08
5.37416e-09
3.73645e-08
5.03892e-09
3.8222e-08
4.63919e-09
3.94048e-08
4.25363e-09
4.09349e-08
3.90596e-09
4.28308e-08
3.61076e-09
4.50943e-08
3.31252e-09
4.77297e-08
2.94728e-09
5.07287e-08
2.34677e-09
5.40987e-08
1.36851e-09
5.78362e-08
-2.64635e-10
6.19691e-08
-2.83024e-09
6.65176e-08
-6.72434e-09
7.15401e-08
-1.24858e-08
7.71209e-08
-2.06742e-08
8.33484e-08
-3.21584e-08
9.04293e-08
-4.81005e-08
9.84996e-08
-6.91488e-08
1.07867e-07
-9.88163e-08
1.18951e-07
-1.35168e-07
1.31744e-07
-1.88191e-07
1.47784e-07
-2.48935e-07
1.65851e-07
-3.37925e-07
1.89478e-07
-4.38099e-07
2.17559e-07
-5.73841e-07
2.55147e-07
-7.29808e-07
-9.35135e-07
3.08568e-07
-4.0051e-10
4.76451e-09
-1.0503e-09
5.69168e-09
-1.57437e-09
1.0068e-10
-1.65877e-09
-8.73919e-09
-1.08586e-09
-1.78479e-08
2.54223e-10
-2.56605e-08
2.40023e-09
-3.15056e-08
5.30235e-09
-3.50442e-08
8.817e-09
-3.63208e-08
1.27471e-08
-3.56355e-08
1.68691e-08
-3.33736e-08
2.09677e-08
-2.98783e-08
2.48419e-08
-2.54678e-08
2.83209e-08
-2.04494e-08
3.12731e-08
-1.51647e-08
3.36213e-08
-9.99463e-09
3.53583e-08
-5.30366e-09
3.65411e-08
-1.39686e-09
3.72839e-08
1.57168e-09
3.77256e-08
3.58614e-09
3.80133e-08
4.75483e-09
3.82755e-08
5.24033e-09
3.86251e-08
5.22252e-09
3.91485e-08
4.85187e-09
3.99233e-08
4.26729e-09
4.1006e-08
3.55766e-09
4.24503e-08
2.81251e-09
4.429e-08
2.06728e-09
4.65566e-08
1.34696e-09
4.92638e-08
6.06179e-10
5.24272e-08
-2.13523e-10
5.60478e-08
-1.27293e-09
6.014e-08
-2.72098e-09
6.47057e-08
-4.82938e-09
6.9771e-08
-7.89296e-09
7.53567e-08
-1.23094e-08
8.15039e-08
-1.86313e-08
8.8289e-08
-2.74597e-08
9.57626e-08
-3.96316e-08
1.041e-07
-5.64399e-08
1.13384e-07
-7.84335e-08
1.23827e-07
-1.09264e-07
1.35784e-07
-1.47126e-07
1.49071e-07
-2.01485e-07
1.65014e-07
-2.64878e-07
1.82337e-07
-3.55252e-07
2.0382e-07
-4.59577e-07
2.28529e-07
-5.98546e-07
2.60279e-07
-7.61547e-07
-9.77923e-07
3.03077e-07
-4.16225e-10
5.18228e-09
-1.08905e-09
6.36682e-09
-1.62421e-09
6.38257e-10
-1.69966e-09
-8.66143e-09
-1.09157e-09
-1.84538e-08
3.08679e-10
-2.70579e-08
2.53583e-09
-3.37299e-08
5.53593e-09
-3.80402e-08
9.15871e-09
-3.994e-08
1.31993e-08
-3.9671e-08
1.7428e-08
-3.75982e-08
2.16258e-08
-3.40711e-08
2.55912e-08
-2.9429e-08
2.9155e-08
-2.40092e-08
3.21892e-08
-1.81947e-08
3.46199e-08
-1.24221e-08
3.64432e-08
-7.12289e-09
3.77175e-08
-2.66834e-09
3.8558e-08
7.34814e-10
3.91033e-08
3.04288e-09
3.95007e-08
4.36033e-09
3.98794e-08
4.86297e-09
4.03536e-08
4.75112e-09
4.10121e-08
4.19453e-09
4.19362e-08
3.34624e-09
4.31874e-08
2.30762e-09
4.48262e-08
1.17677e-09
4.68952e-08
-7.61702e-13
4.94345e-08
-1.18967e-09
5.2467e-08
-2.42555e-09
5.60177e-08
-3.7617e-09
6.0096e-08
-5.35043e-09
6.47236e-08
-7.34586e-09
6.99092e-08
-1.00142e-08
7.56797e-08
-1.3661e-08
8.20592e-08
-1.86885e-08
8.90781e-08
-2.56487e-08
9.68071e-08
-3.51892e-08
1.05273e-07
-4.8097e-08
1.14617e-07
-6.57865e-08
1.24894e-07
-8.87109e-08
1.36221e-07
-1.20596e-07
1.48908e-07
-1.59815e-07
1.62629e-07
-2.15212e-07
1.78498e-07
-2.80747e-07
1.95235e-07
-3.71994e-07
2.14932e-07
-4.79269e-07
2.36743e-07
-6.20353e-07
2.63405e-07
-7.88198e-07
-1.01145e-06
2.96943e-07
-4.3231e-10
5.61613e-09
-1.12884e-09
7.06564e-09
-1.67495e-09
1.18677e-09
-1.74072e-09
-8.59336e-09
-1.09619e-09
-1.90962e-08
3.66224e-10
-2.85176e-08
2.67669e-09
-3.60376e-08
5.77764e-09
-4.11371e-08
9.51325e-09
-4.3672e-08
1.36715e-08
-4.38241e-08
1.80161e-08
-4.19386e-08
2.23224e-08
-3.83725e-08
2.6385e-08
-3.34874e-08
3.00331e-08
-2.76533e-08
3.31388e-08
-2.12963e-08
3.5631e-08
-1.49109e-08
3.75092e-08
-8.99714e-09
3.88363e-08
-3.99266e-09
3.9731e-08
-1.56424e-10
4.03351e-08
2.44082e-09
4.07977e-08
3.90057e-09
4.12496e-08
4.41234e-09
4.18064e-08
4.19703e-09
4.25586e-08
3.4434e-09
4.35895e-08
2.31829e-09
4.4964e-08
9.34199e-10
4.67462e-08
-6.02533e-10
4.8983e-08
-2.23668e-09
5.17204e-08
-3.92448e-09
5.49874e-08
-5.69187e-09
5.88152e-08
-7.58706e-09
6.32203e-08
-9.75478e-09
6.82295e-08
-1.23525e-08
7.38572e-08
-1.56412e-08
8.01323e-08
-1.99338e-08
8.70829e-08
-2.56387e-08
9.47338e-08
-3.32983e-08
1.0315e-07
-4.36061e-08
1.12346e-07
-5.72933e-08
1.22432e-07
-7.58744e-08
1.33449e-07
-9.97289e-08
1.45432e-07
-1.32583e-07
1.58658e-07
-1.73043e-07
1.72699e-07
-2.2926e-07
1.88466e-07
-2.96515e-07
2.04722e-07
-3.88254e-07
2.22962e-07
-4.97505e-07
2.42374e-07
-6.39761e-07
2.64782e-07
-8.10595e-07
-1.0373e-06
2.90637e-07
-4.48741e-10
6.06641e-09
-1.16961e-09
7.78879e-09
-1.72663e-09
1.74615e-09
-1.78208e-09
-8.53563e-09
-1.09978e-09
-1.97763e-08
4.2735e-10
-3.0042e-08
2.82408e-09
-3.84316e-08
6.02889e-09
-4.43379e-08
9.88076e-09
-4.75203e-08
1.41609e-08
-4.80991e-08
1.86263e-08
-4.63999e-08
2.30467e-08
-4.2788e-08
2.72117e-08
-3.76483e-08
3.09466e-08
-3.13842e-08
3.41223e-08
-2.44679e-08
3.66686e-08
-1.74539e-08
3.85887e-08
-1.09133e-08
3.99501e-08
-5.35129e-09
4.08763e-08
-1.07927e-09
4.15134e-08
1.80563e-09
4.20137e-08
3.40297e-09
4.25105e-08
3.91678e-09
4.31212e-08
3.58895e-09
4.3938e-08
2.62755e-09
4.50461e-08
1.21307e-09
4.65121e-08
-5.30829e-10
4.84025e-08
-2.49008e-09
5.07666e-08
-4.59999e-09
5.36533e-08
-6.80868e-09
5.70946e-08
-9.13261e-09
6.11256e-08
-1.16158e-08
6.57664e-08
-1.43949e-08
7.10471e-08
-1.76309e-08
7.69876e-08
-2.1581e-08
8.36169e-08
-2.6561e-08
9.09659e-08
-3.29875e-08
9.90566e-08
-4.13879e-08
1.07948e-07
-5.24981e-08
1.1765e-07
-6.69962e-08
1.28242e-07
-8.64688e-08
1.39766e-07
-1.11254e-07
1.52185e-07
-1.45007e-07
1.65753e-07
-1.86613e-07
1.79977e-07
-2.4349e-07
1.9558e-07
-3.1212e-07
2.114e-07
-4.04078e-07
2.28437e-07
-5.14537e-07
2.45876e-07
-6.57196e-07
2.64784e-07
-8.29492e-07
-1.05695e-06
2.84453e-07
-4.65507e-10
6.53345e-09
-1.21132e-09
8.53685e-09
-1.7792e-09
2.31636e-09
-1.82373e-09
-8.48886e-09
-1.10247e-09
-2.04955e-08
4.92012e-10
-3.16338e-08
2.97828e-09
-4.09151e-08
6.29037e-09
-4.7646e-08
1.02621e-08
-5.14884e-08
1.46677e-08
-5.24997e-08
1.92578e-08
-5.09858e-08
2.37961e-08
-4.73214e-08
2.80669e-08
-4.19149e-08
3.18911e-08
-3.52045e-08
3.51375e-08
-2.77102e-08
3.77363e-08
-2.00495e-08
3.96937e-08
-1.28668e-08
4.10819e-08
-6.73684e-09
4.20296e-08
-2.02372e-09
4.26875e-08
1.14952e-09
4.32117e-08
2.88144e-09
4.37381e-08
3.3915e-09
4.43864e-08
2.94304e-09
4.52512e-08
1.76378e-09
4.64189e-08
4.80088e-11
4.79582e-08
-2.06917e-09
4.99366e-08
-4.46577e-09
5.24048e-08
-7.06749e-09
5.54127e-08
-9.81436e-09
5.8994e-08
-1.27134e-08
6.31848e-08
-1.58045e-08
6.80076e-08
-1.92171e-08
7.34935e-08
-2.31146e-08
7.96645e-08
-2.77514e-08
8.65495e-08
-3.34441e-08
9.41801e-08
-4.0618e-08
1.02577e-07
-4.97836e-08
1.1179e-07
-6.17125e-08
1.21832e-07
-7.70388e-08
1.32751e-07
-9.73899e-08
1.44594e-07
-1.23099e-07
1.57269e-07
-1.57687e-07
1.71004e-07
-2.00351e-07
1.85278e-07
-2.57771e-07
2.0064e-07
-3.27483e-07
2.16018e-07
-4.1946e-07
2.32013e-07
-5.30529e-07
2.47783e-07
-6.72962e-07
2.63779e-07
-8.45477e-07
-1.07164e-06
2.78474e-07
-4.826e-10
7.01756e-09
-1.25395e-09
9.3104e-09
-1.83263e-09
2.89732e-09
-1.86565e-09
-8.45366e-09
-1.10433e-09
-2.12547e-08
5.60095e-10
-3.32956e-08
3.1393e-09
-4.34916e-08
6.56227e-09
-5.10649e-08
1.06576e-08
-5.55802e-08
1.51926e-08
-5.70296e-08
1.9911e-08
-5.57001e-08
2.45704e-08
-5.1976e-08
2.89496e-08
-4.629e-08
3.28653e-08
-3.91163e-08
3.61834e-08
-3.10243e-08
3.88345e-08
-2.26975e-08
4.08278e-08
-1.48563e-08
4.22402e-08
-8.14669e-09
4.32056e-08
-2.98596e-09
4.38794e-08
4.77385e-10
4.44214e-08
2.3419e-09
4.49707e-08
2.84324e-09
4.56494e-08
2.26668e-09
4.6554e-08
8.59958e-10
4.77732e-08
-1.16862e-09
4.9377e-08
-3.67214e-09
5.14339e-08
-6.52015e-09
5.39954e-08
-9.62834e-09
5.71114e-08
-1.29284e-08
6.08161e-08
-1.64177e-08
6.51455e-08
-2.01319e-08
7.01226e-08
-2.41939e-08
7.57782e-08
-2.87682e-08
8.21347e-08
-3.41075e-08
8.92197e-08
-4.05274e-08
9.70629e-08
-4.84613e-08
1.05683e-07
-5.84036e-08
1.15122e-07
-7.11526e-08
1.25394e-07
-8.73107e-08
1.36518e-07
-1.08517e-07
1.48546e-07
-1.35129e-07
1.61346e-07
-1.70492e-07
1.75114e-07
-2.14122e-07
1.89324e-07
-2.71988e-07
2.04365e-07
-3.42526e-07
2.19258e-07
-4.34357e-07
2.34286e-07
-5.45554e-07
2.48557e-07
-6.87229e-07
2.62033e-07
-8.58942e-07
-1.0822e-06
2.72603e-07
-5.00008e-10
7.51905e-09
-1.29747e-09
1.011e-08
-1.88689e-09
3.48895e-09
-1.90779e-09
-8.43064e-09
-1.10541e-09
-2.20551e-08
6.31503e-10
-3.50299e-08
3.30707e-09
-4.61645e-08
6.84458e-09
-5.45985e-08
1.10674e-08
-5.97995e-08
1.57357e-08
-6.16929e-08
2.05861e-08
-6.05463e-08
2.53698e-08
-5.67549e-08
2.98601e-08
-5.07763e-08
3.38689e-08
-4.31213e-08
3.72597e-08
-3.44113e-08
3.99634e-08
-2.53982e-08
4.19921e-08
-1.68814e-08
4.34277e-08
-9.57986e-09
4.44093e-08
-3.9646e-09
4.50973e-08
-2.09016e-10
4.56551e-08
1.7864e-09
4.62249e-08
2.27434e-09
4.69313e-08
1.56245e-09
4.78732e-08
-8.1245e-11
4.9141e-08
-2.43408e-09
5.08065e-08
-5.33691e-09
5.29389e-08
-8.65021e-09
5.559e-08
-1.2279e-08
5.88097e-08
-1.61462e-08
6.26318e-08
-2.02394e-08
6.70913e-08
-2.45898e-08
7.22113e-08
-2.93135e-08
7.80208e-08
-3.45759e-08
8.45415e-08
-4.0628e-08
9.17986e-08
-4.7783e-08
9.98184e-08
-5.64814e-08
1.08618e-07
-6.72029e-08
1.18227e-07
-8.07631e-08
1.28661e-07
-9.77459e-08
1.39916e-07
-1.19774e-07
1.52042e-07
-1.47258e-07
1.64877e-07
-1.83332e-07
1.7858e-07
-2.27829e-07
1.92635e-07
-2.8605e-07
2.07284e-07
-3.57178e-07
2.21627e-07
-4.48704e-07
2.35698e-07
-5.59621e-07
2.48533e-07
-7.0006e-07
2.59702e-07
-8.70101e-07
-1.08917e-06
2.66684e-07
-5.1772e-10
8.03823e-09
-1.34186e-09
1.09362e-08
-1.94196e-09
4.09119e-09
-1.95011e-09
-8.42044e-09
-1.1056e-09
-2.28977e-08
7.06137e-10
-3.68391e-08
3.48148e-09
-4.89373e-08
7.13726e-09
-5.82505e-08
1.14915e-08
-6.41502e-08
1.62971e-08
-6.64936e-08
2.12833e-08
-6.55284e-08
2.61946e-08
-6.16616e-08
3.07985e-08
-5.53763e-08
3.49022e-08
-4.72213e-08
3.83667e-08
-3.7872e-08
4.11233e-08
-2.81518e-08
4.31872e-08
-1.89418e-08
4.46454e-08
-1.10358e-08
4.56426e-08
-4.95901e-09
4.6344e-08
-9.09036e-10
4.6917e-08
1.21554e-09
4.75068e-08
1.68532e-09
4.82405e-08
8.30725e-10
4.92195e-08
-1.0596e-09
5.05359e-08
-3.74832e-09
5.22632e-08
-7.06363e-09
5.44712e-08
-1.08562e-08
5.72122e-08
-1.50197e-08
6.05354e-08
-1.94678e-08
6.4474e-08
-2.41779e-08
6.9062e-08
-2.91763e-08
7.43215e-08
-3.45728e-08
8.02795e-08
-4.05324e-08
8.69559e-08
-4.73043e-08
9.43729e-08
-5.51988e-08
1.02552e-07
-6.46607e-08
1.11507e-07
-7.61582e-08
1.21257e-07
-9.05142e-08
1.31815e-07
-1.08306e-07
1.43155e-07
-1.31117e-07
1.55324e-07
-1.5943e-07
1.68135e-07
-1.96148e-07
1.81703e-07
-2.41402e-07
1.9553e-07
-2.99884e-07
2.09723e-07
-3.71374e-07
2.23442e-07
-4.62428e-07
2.36521e-07
-5.72696e-07
2.47907e-07
-7.11443e-07
2.56856e-07
-8.7904e-07
-1.09285e-06
2.60551e-07
-5.35725e-10
8.57536e-09
-1.3871e-09
1.17896e-08
-1.99782e-09
4.70394e-09
-1.99261e-09
-8.4237e-09
-1.10467e-09
-2.37838e-08
7.83886e-10
-3.87253e-08
3.6624e-09
-5.18133e-08
7.44023e-09
-6.20245e-08
1.19299e-08
-6.86364e-08
1.68768e-08
-7.14358e-08
2.20026e-08
-7.06502e-08
2.70449e-08
-6.66994e-08
3.17652e-08
-6.00928e-08
3.59657e-08
-5.14183e-08
3.9505e-08
-4.14076e-08
4.23147e-08
-3.09587e-08
4.44137e-08
-2.10374e-08
4.58942e-08
-1.25143e-08
4.69066e-08
-5.96881e-09
4.76212e-08
-1.62237e-09
4.82092e-08
6.29439e-10
4.8819e-08
1.07606e-09
4.95804e-08
7.11177e-11
5.05971e-08
-2.07584e-09
5.19632e-08
-5.11242e-09
5.37536e-08
-8.85365e-09
5.60389e-08
-1.31396e-08
5.88714e-08
-1.7852e-08
6.22997e-08
-2.28947e-08
6.63564e-08
-2.82345e-08
7.10737e-08
-3.38924e-08
7.64729e-08
-3.9972e-08
8.25784e-08
-4.66366e-08
8.94077e-08
-5.41338e-08
9.69794e-08
-6.27695e-08
1.05309e-07
-7.29911e-08
1.14408e-07
-8.52571e-08
1.24281e-07
-1.00389e-07
1.3494e-07
-1.18967e-07
1.46338e-07
-1.42519e-07
1.58511e-07
-1.71605e-07
1.71255e-07
-2.08899e-07
1.84637e-07
-2.54789e-07
1.98174e-07
-3.13428e-07
2.11853e-07
-3.85057e-07
2.24872e-07
-4.75451e-07
2.36899e-07
-5.8472e-07
2.46786e-07
-7.21326e-07
2.53521e-07
-8.85765e-07
-1.0934e-06
2.54083e-07
-5.54011e-10
9.13073e-09
-1.43318e-09
1.26707e-08
-2.05446e-09
5.32715e-09
-2.03527e-09
-8.44103e-09
-1.10284e-09
-2.47145e-08
8.64615e-10
-4.06904e-08
3.84968e-09
-5.47959e-08
7.75337e-09
-6.59246e-08
1.23823e-08
-7.3262e-08
1.74746e-08
-7.65235e-08
2.2744e-08
-7.59157e-08
2.79207e-08
-7.18717e-08
3.27602e-08
-6.49286e-08
3.70596e-08
-5.57143e-08
4.06748e-08
-4.50193e-08
4.35382e-08
-3.38195e-08
4.56724e-08
-2.31684e-08
4.7175e-08
-1.40151e-08
4.82023e-08
-6.99372e-09
4.89298e-08
-2.34882e-09
4.95328e-08
2.81261e-11
5.0163e-08
4.463e-10
5.09526e-08
-7.16983e-10
5.2008e-08
-3.13096e-09
5.34251e-08
-6.52774e-09
5.52804e-08
-1.07087e-08
5.76449e-08
-1.55025e-08
6.05711e-08
-2.07782e-08
6.41067e-08
-2.64291e-08
6.82835e-08
-3.24114e-08
7.3132e-08
-3.874e-08
7.86721e-08
-4.55122e-08
8.49256e-08
-5.2889e-08
9.1907e-08
-6.11154e-08
9.96308e-08
-7.04927e-08
1.08106e-07
-8.14675e-08
1.1734e-07
-9.44915e-08
1.27326e-07
-1.10376e-07
1.38068e-07
-1.29712e-07
1.49504e-07