/*--------------------------------*- C++ -*----------------------------------*\
  =========                 |
  \\      /  F ield         | OpenFOAM: The Open Source CFD Toolbox
   \\    /   O peration     | Website:  https://openfoam.org
    \\  /    A nd           | Version:  7
     \\/     M anipulation  |
\*---------------------------------------------------------------------------*/
FoamFile
{
    version     2.0;
    format      ascii;
    class       volScalarField;
    location    "0.38";
    object      p;
}
// * * * * * * * * * * * * * * * * * * * * * * * * * * * * * * * * * * * * * //

dimensions      [0 2 -2 0 0 0 0];

internalField   nonuniform List<scalar> 
70000
(
0.103133
0.0256742
0.0131461
0.0155803
0.0157361
0.014662
0.013703
0.0129715
0.0123571
0.0118124
0.0113243
0.0108848
0.0104864
0.0101225
0.00978767
0.00947766
0.00918891
0.00891854
0.0086642
0.00842393
0.00819613
0.00797944
0.00777271
0.00757498
0.00738545
0.00720343
0.00702834
0.00685972
0.0066972
0.00654043
0.00638921
0.00624331
0.00610266
0.00596705
0.00583655
0.00571089
0.00559022
0.00547426
0.00536279
0.0052562
0.00515221
0.00505464
0.00495332
0.00486507
0.00475403
0.00467879
0.0045274
0.00448148
0.00422046
0.00418991
0.0987649
0.0260411
0.0133491
0.0156759
0.0157907
0.0146981
0.0137312
0.0129947
0.0123766
0.0118291
0.0113388
0.0108976
0.0104978
0.0101328
0.00979707
0.00948627
0.00919683
0.00892587
0.00867102
0.00843031
0.00820211
0.00798506
0.00777801
0.00758
0.00739021
0.00720795
0.00703266
0.00686385
0.00670114
0.00654421
0.00639285
0.00624682
0.00610605
0.00597032
0.00583972
0.00571398
0.00559322
0.0054772
0.00536567
0.00525904
0.005155
0.00505743
0.00495607
0.00486786
0.00475679
0.00468159
0.00453029
0.00448325
0.00422714
0.00423911
0.0951844
0.0269811
0.0136894
0.015805
0.0158649
0.0147428
0.0137636
0.0130209
0.0123984
0.0118476
0.0113547
0.0109116
0.0105102
0.010144
0.00980719
0.00949551
0.00920533
0.00893373
0.00867831
0.00843711
0.00820848
0.00799105
0.00778366
0.00758534
0.00739527
0.00721277
0.00703724
0.00686822
0.00670533
0.00654822
0.0063967
0.00625052
0.00610962
0.00597377
0.00584306
0.00571722
0.00559637
0.00548027
0.00536867
0.005262
0.00515791
0.00506034
0.00495893
0.00487082
0.00475968
0.0046847
0.00453363
0.0044852
0.00424763
0.00429137
0.0920903
0.028083
0.014159
0.015979
0.0159659
0.0148004
0.0138018
0.0130509
0.0124231
0.0118681
0.0113722
0.0109267
0.0105236
0.0101559
0.00981796
0.0095053
0.00921429
0.00894199
0.00868596
0.00844423
0.00821514
0.00799729
0.00778954
0.00759089
0.00740053
0.00721775
0.00704199
0.00687274
0.00670965
0.00655235
0.00640066
0.00625432
0.00611327
0.00597729
0.00584646
0.0057205
0.00559955
0.00548336
0.00537168
0.00526494
0.0051608
0.0050632
0.00496178
0.00487373
0.00476269
0.00468769
0.0045379
0.0044868
0.00428013
0.00434718
0.0891311
0.0291796
0.0147251
0.0161997
0.0161004
0.0148783
0.0138508
0.013088
0.0124531
0.0118928
0.0113929
0.0109444
0.010539
0.0101695
0.00983015
0.00951631
0.00922431
0.00895117
0.00869443
0.00845208
0.00822244
0.00800412
0.00779595
0.00759692
0.00740622
0.00722314
0.0070471
0.00687761
0.00671428
0.00655677
0.00640489
0.00625836
0.00611714
0.005981
0.00585002
0.00572392
0.00560284
0.00548653
0.00537474
0.00526791
0.00516369
0.00506604
0.00496462
0.00487653
0.00476583
0.00469043
0.00454345
0.00448844
0.0043216
0.00441023
0.0862222
0.0302187
0.0153404
0.0164468
0.0162628
0.0149782
0.0139133
0.0131345
0.0124906
0.0119234
0.0114182
0.0109659
0.0105576
0.0101858
0.00984461
0.00952927
0.00923604
0.00896185
0.00870423
0.00846112
0.00823082
0.00801192
0.00780324
0.00760376
0.00741266
0.00722921
0.00705284
0.00688305
0.00671944
0.00656168
0.00640956
0.00626281
0.00612138
0.00598504
0.00585387
0.00572759
0.00560634
0.00548986
0.00537792
0.00527095
0.0051666
0.00506883
0.00496742
0.00487917
0.00476905
0.00469281
0.00455037
0.00449084
0.00436872
0.00447924
0.0833576
0.0311814
0.0159713
0.0166988
0.0164396
0.0150953
0.0139882
0.0131903
0.0125358
0.0119605
0.011449
0.010992
0.0105801
0.0102054
0.00986198
0.00954478
0.00925001
0.00897453
0.00871582
0.00847177
0.00824066
0.00802105
0.00781175
0.00761172
0.00742012
0.00723623
0.00705946
0.00688929
0.00672535
0.00656728
0.00641486
0.00626784
0.00612615
0.00598956
0.00585814
0.00573163
0.00561014
0.00549345
0.00538127
0.00527409
0.00516955
0.00507158
0.00497013
0.00488158
0.00477228
0.00469474
0.00455852
0.00449469
0.00441814
0.00455073
0.0805433
0.0320597
0.0166019
0.0169439
0.0166202
0.0152232
0.014072
0.0132533
0.0125876
0.0120036
0.011485
0.0110226
0.0106066
0.0102287
0.00988256
0.00956318
0.00926658
0.00898957
0.00872954
0.00848437
0.00825228
0.00803182
0.00782176
0.00762107
0.00742887
0.00724445
0.00706718
0.00689658
0.00673222
0.00657377
0.00642099
0.00627363
0.00613161
0.00599471
0.00586297
0.00573616
0.00561435
0.00549737
0.00538487
0.0052774
0.00517256
0.00507428
0.00497274
0.00488368
0.00477546
0.0046962
0.00456762
0.00450046
0.00446651
0.00461943
0.0777853
0.0328507
0.017227
0.0171781
0.0167982
0.0153571
0.0141615
0.0133208
0.012644
0.0120511
0.0115253
0.0110572
0.0106367
0.0102553
0.00990624
0.00958443
0.00928579
0.00900704
0.00874553
0.00849906
0.00826586
0.00804441
0.00783348
0.007632
0.00743911
0.00725405
0.00707621
0.00690508
0.00674023
0.00658132
0.00642811
0.00628034
0.00613792
0.00600063
0.0058685
0.00574131
0.0056191
0.00550173
0.0053888
0.00528093
0.00517568
0.00507694
0.00497525
0.00488545
0.00477851
0.00469722
0.00457729
0.00450831
0.004511
0.00468141
0.0750879
0.0335544
0.0178454
0.017401
0.0169709
0.0154941
0.0142545
0.0133911
0.012703
0.0121016
0.0115685
0.0110946
0.0106696
0.0102846
0.00993251
0.00960816
0.00930736
0.00902676
0.00876364
0.00851578
0.00828134
0.00805881
0.00784691
0.00764457
0.00745089
0.00726512
0.00708663
0.00691489
0.00674948
0.00659005
0.00643633
0.00628808
0.00614519
0.00600744
0.00587483
0.00574718
0.00562447
0.00550661
0.00539315
0.00528475
0.00517896
0.00507961
0.00497769
0.00488689
0.0047814
0.00469789
0.00458704
0.00451802
0.00454954
0.00473299
0.0724547
0.0341709
0.0184563
0.0176134
0.0171368
0.0156329
0.0143501
0.0134628
0.0127637
0.0121539
0.0116136
0.011134
0.0107045
0.0103158
0.00996072
0.00963381
0.00933081
0.00904831
0.00878354
0.00853423
0.00829852
0.00807484
0.00786191
0.00765865
0.00746413
0.00727759
0.00709839
0.00692599
0.00675997
0.00659994
0.00644567
0.00629687
0.00615344
0.00601516
0.00588201
0.00575381
0.00563051
0.00551207
0.00539795
0.00528891
0.00518246
0.00508232
0.00498008
0.00488804
0.00478404
0.00469835
0.0045964
0.00452902
0.00458078
0.00477132
0.0698884
0.0347008
0.0190584
0.0178165
0.0172949
0.0157725
0.0144479
0.0135357
0.0128252
0.0122073
0.01166
0.0111747
0.0107407
0.0103484
0.00999029
0.00966083
0.00935564
0.00907125
0.00880482
0.00855405
0.00831704
0.0080922
0.00787823
0.00767401
0.00747862
0.00729128
0.00711134
0.00693825
0.00677157
0.00661092
0.00645604
0.00630666
0.00616263
0.00602377
0.00589
0.00576119
0.00563721
0.0055181
0.00540324
0.00529342
0.0051862
0.00508509
0.00498244
0.00488896
0.00478642
0.00469872
0.00460491
0.00454048
0.004604
0.00479479
0.0673917
0.0351444
0.0196496
0.0180113
0.0174446
0.0159122
0.0145477
0.0136095
0.0128874
0.0122616
0.0117073
0.0112162
0.0107778
0.0103819
0.0100208
0.00968881
0.00938146
0.00909518
0.00882711
0.00857489
0.00833658
0.00811059
0.00789556
0.00769039
0.00749412
0.00730597
0.00712527
0.00695147
0.00678412
0.00662282
0.00646731
0.0063173
0.00617265
0.00603316
0.00589873
0.00576924
0.00564453
0.00552467
0.00540897
0.00529827
0.00519019
0.00508795
0.00498481
0.00488973
0.00478848
0.00469908
0.00461224
0.0045515
0.00461912
0.00480312
0.064967
0.0355027
0.0202275
0.0181993
0.0175854
0.0160511
0.0146494
0.0136841
0.01295
0.0123165
0.0117553
0.0112585
0.0108156
0.0104161
0.010052
0.00971751
0.00940799
0.00911985
0.00885015
0.00859648
0.00835689
0.00812974
0.00791367
0.00770754
0.0075104
0.00732143
0.00713998
0.00696546
0.00679742
0.00663546
0.0064793
0.00632865
0.00618335
0.0060432
0.00590807
0.00577787
0.00565238
0.00553169
0.0054151
0.00530341
0.0051944
0.0050909
0.00498717
0.00489042
0.0047902
0.00469946
0.00461815
0.00456118
0.00462655
0.00479728
0.0626168
0.035777
0.0207891
0.018382
0.0177169
0.0161884
0.0147529
0.0137597
0.0130131
0.0123719
0.0118039
0.0113015
0.010854
0.0104509
0.0100838
0.0097468
0.00943512
0.0091451
0.00887376
0.00861865
0.00837778
0.00814948
0.00793237
0.00772529
0.00752727
0.00733749
0.00715527
0.00698003
0.0068113
0.00664868
0.00649186
0.00634056
0.00619459
0.00605376
0.00591791
0.00578695
0.00566064
0.00553908
0.00542155
0.0053088
0.00519879
0.00509394
0.00498952
0.00489109
0.0047916
0.00469985
0.00462251
0.00456882
0.00462704
0.00477913
0.0603431
0.0359689
0.0213314
0.0185608
0.0178389
0.016323
0.0148579
0.0138362
0.0130765
0.0124279
0.0118532
0.011345
0.010893
0.0104863
0.0101162
0.00977662
0.00946276
0.00917086
0.00889788
0.00864132
0.00839916
0.0081697
0.00795155
0.00774351
0.00754462
0.00735403
0.00717104
0.00699508
0.00682566
0.00666236
0.00650487
0.00635291
0.00620625
0.00606472
0.00592813
0.0057964
0.00566924
0.00554676
0.00542825
0.00531438
0.00520334
0.00509708
0.00499187
0.00489178
0.00479266
0.00470018
0.00462531
0.00457392
0.00462154
0.00475104
0.0581475
0.0360803
0.0218513
0.0187373
0.0179512
0.016454
0.0149643
0.0139136
0.0131402
0.0124843
0.0119031
0.0113892
0.0109326
0.0105222
0.0101491
0.00980695
0.0094909
0.0091971
0.00892246
0.00866445
0.00842099
0.00819037
0.00797116
0.00776216
0.00756238
0.00737097
0.00718721
0.00701052
0.00684039
0.00667642
0.00651825
0.00636561
0.00621826
0.00607602
0.00593867
0.00580613
0.0056781
0.00555468
0.00543517
0.00532013
0.00520801
0.0051003
0.0049942
0.00489252
0.00479341
0.00470036
0.00462659
0.00457622
0.00461104
0.00471544
0.0560313
0.0361139
0.0223457
0.0189126
0.018054
0.0165803
0.0150715
0.013992
0.0132042
0.012541
0.0119536
0.0114339
0.0109727
0.0105586
0.0101825
0.00983778
0.00951952
0.00922381
0.0089475
0.00868801
0.00844324
0.00821144
0.00799117
0.0077812
0.00758053
0.00738829
0.00720375
0.00702632
0.00685548
0.00669081
0.00653196
0.00637863
0.00623057
0.00608759
0.00594947
0.00581611
0.00568719
0.00556279
0.00544225
0.00532602
0.00521277
0.00510361
0.00499652
0.00489331
0.00479387
0.00470028
0.00462642
0.00457569
0.00459646
0.00467456
0.0539953
0.0360726
0.0228118
0.0190876
0.0181476
0.0167011
0.0151792
0.0140714
0.0132683
0.012598
0.0120045
0.0114792
0.0110133
0.0105955
0.0102164
0.0098691
0.00954862
0.00925098
0.00897299
0.00871201
0.00846592
0.00823293
0.00801158
0.00780063
0.00759905
0.00740597
0.00722064
0.00704246
0.00687089
0.00670552
0.00654597
0.00639193
0.00624316
0.00609943
0.00596052
0.00582631
0.00569648
0.00557107
0.00544949
0.00533203
0.00521763
0.005107
0.00499882
0.00489415
0.00479405
0.00469984
0.00462489
0.0045724
0.00457861
0.00463033
0.0520399
0.0359598
0.0232468
0.0192628
0.0182324
0.0168153
0.0152869
0.0141516
0.0133325
0.012655
0.0120559
0.011525
0.0110545
0.010633
0.0102508
0.00990091
0.00957819
0.00927862
0.00899892
0.00873645
0.00848902
0.00825483
0.00803239
0.00782045
0.00761795
0.00742401
0.00723788
0.00705893
0.00688663
0.00672054
0.00656027
0.00640552
0.006256
0.00611151
0.00597179
0.00583671
0.00570596
0.00557953
0.00545687
0.00533817
0.00522256
0.00511048
0.00500111
0.00489501
0.00479396
0.00469895
0.00462209
0.00456655
0.00455816
0.00458422
0.0501651
0.0357795
0.023648
0.0194384
0.0183091
0.0169222
0.0153939
0.0142328
0.0133968
0.0127122
0.0121076
0.0115713
0.0110961
0.0106709
0.0102857
0.00993319
0.00960824
0.00930672
0.00902531
0.00876133
0.00851255
0.00827715
0.0080536
0.00784065
0.00763722
0.00744242
0.00725547
0.00707575
0.0069027
0.00673587
0.00657487
0.00641939
0.00626912
0.00612384
0.00598329
0.00584733
0.00571563
0.00558814
0.00546439
0.00534442
0.00522758
0.00511404
0.00500339
0.00489586
0.00479362
0.00469753
0.0046181
0.0045584
0.00453569
0.00453739
0.0483704
0.035536
0.0240129
0.0196143
0.0183783
0.017021
0.0154996
0.0143147
0.0134612
0.0127692
0.0121595
0.011618
0.0111382
0.0107093
0.010321
0.00996595
0.00963875
0.00933527
0.00905215
0.00878664
0.0085365
0.00829987
0.00807522
0.00786125
0.00765688
0.00746119
0.00727342
0.0070929
0.00691909
0.00675152
0.00658978
0.00643354
0.0062825
0.00613642
0.00599503
0.00585816
0.00572549
0.00559693
0.00547205
0.00535081
0.00523269
0.00511768
0.00500567
0.0048967
0.00479301
0.00469556
0.00461301
0.00454821
0.00451166
0.00449067
0.046655
0.0352342
0.0243393
0.01979
0.0184409
0.0171113
0.0156031
0.0143972
0.0135257
0.0128261
0.0122116
0.0116652
0.0111808
0.0107481
0.0103568
0.00999916
0.00966972
0.00936427
0.00907943
0.00881239
0.00856088
0.00832302
0.00809725
0.00788225
0.00767692
0.00748035
0.00729173
0.00711041
0.00693582
0.00676749
0.00660499
0.00644799
0.00629616
0.00614926
0.006007
0.0058692
0.00573554
0.0056059
0.00547986
0.00535733
0.00523788
0.00512141
0.00500794
0.00489748
0.00479215
0.00469299
0.0046069
0.00453629
0.00448649
0.00444464
0.0450177
0.0348789
0.0246252
0.0199646
0.0184978
0.0171927
0.0157036
0.01448
0.0135903
0.0128828
0.0122638
0.0117126
0.0112237
0.0107873
0.010393
0.0100328
0.00970113
0.00939373
0.00910715
0.00883858
0.00858569
0.00834659
0.00811968
0.00790364
0.00769736
0.00749988
0.00731041
0.00712828
0.0069529
0.00678379
0.00662052
0.00646273
0.0063101
0.00616236
0.00601922
0.00588047
0.0057458
0.00561504
0.00548783
0.00536398
0.00524318
0.00512521
0.00501022
0.00489819
0.00479103
0.00468983
0.00459985
0.00452292
0.00446053
0.00439975
0.0434569
0.0344755
0.0248691
0.0201367
0.01855
0.017265
0.0158003
0.014563
0.0136549
0.0129391
0.0123159
0.0117603
0.011267
0.010827
0.0104296
0.0100669
0.00973298
0.00942362
0.00913531
0.0088652
0.00861093
0.00837058
0.00814253
0.00792544
0.00771818
0.00751979
0.00732946
0.0071465
0.00697032
0.00680042
0.00663636
0.00647778
0.00632433
0.00617573
0.00603169
0.00589197
0.00575627
0.00562437
0.00549595
0.00537078
0.00524857
0.0051291
0.00501251
0.00489883
0.00478966
0.0046861
0.00459196
0.00450836
0.00443409
0.00435628
0.0419708
0.0340296
0.0250695
0.0203048
0.0185984
0.0173281
0.0158923
0.0146456
0.0137196
0.012995
0.0123678
0.0118082
0.0113107
0.0108669
0.0104666
0.0101014
0.00976525
0.00945394
0.0091639
0.00889225
0.0086366
0.00839499
0.0081658
0.00794765
0.00773941
0.0075401
0.00734889
0.00716509
0.0069881
0.00681739
0.00665253
0.00649313
0.00633885
0.00618937
0.00604441
0.0059037
0.00576694
0.0056339
0.00550425
0.00537773
0.00525408
0.00513306
0.00501481
0.00489937
0.00478805
0.00468184
0.00458332
0.00449289
0.00440747
0.00431446
0.040557
0.0335466
0.0252257
0.0204668
0.0186439
0.0173824
0.0159788
0.0147274
0.0137844
0.0130504
0.0124195
0.0118562
0.0113546
0.0109072
0.010504
0.0101362
0.00979793
0.00948468
0.00919292
0.00891972
0.00866269
0.00841982
0.00818948
0.00797027
0.00776104
0.00756079
0.0073687
0.00718405
0.00700623
0.00683471
0.00666904
0.00650881
0.00635367
0.0062033
0.0060574
0.00591568
0.00577785
0.00564363
0.00551272
0.00538483
0.00525971
0.00513711
0.00501714
0.00489984
0.00478621
0.0046771
0.00457405
0.00447675
0.00438091
0.00427442
0.0392132
0.0330323
0.0253373
0.0206205
0.0186874
0.0174281
0.0160591
0.0148079
0.013849
0.0131054
0.0124706
0.0119041
0.0113987
0.0109478
0.0105416
0.0101714
0.00983099
0.00951582
0.00922235
0.00894762
0.0086892
0.00844507
0.00821357
0.0079933
0.00778307
0.00758188
0.0073889
0.00720339
0.00702473
0.00685238
0.00668588
0.00652481
0.0063688
0.00621752
0.00607066
0.00592792
0.00578898
0.00565357
0.00552138
0.00539209
0.00526547
0.00514125
0.00501949
0.00490022
0.00478417
0.00467194
0.00456426
0.00446017
0.00435465
0.00423625
0.0379368
0.0324922
0.0254044
0.0207635
0.0187295
0.0174659
0.0161324
0.0148864
0.0139134
0.0131598
0.0125213
0.0119519
0.011443
0.0109886
0.0105795
0.0102069
0.00986441
0.00954735
0.00925218
0.00897592
0.00871612
0.00847074
0.00823808
0.00801673
0.0078055
0.00760337
0.00740949
0.00722311
0.0070436
0.00687041
0.00670307
0.00654114
0.00638424
0.00623204
0.0060842
0.00594041
0.00580036
0.00566374
0.00553023
0.00539953
0.00527137
0.00514549
0.00502188
0.00490055
0.00478194
0.00466643
0.00455408
0.00444335
0.00432889
0.00420002
0.0367249
0.0319317
0.0254277
0.0208931
0.0187704
0.0174964
0.0161983
0.0149623
0.0139774
0.0132137
0.0125713
0.0119995
0.0114873
0.0110296
0.0106177
0.0102428
0.00989816
0.00957924
0.00928239
0.00900462
0.00874345
0.00849681
0.008263
0.00804058
0.00782834
0.00762526
0.00743047
0.00724322
0.00706285
0.00688881
0.0067206
0.0065578
0.00640001
0.00624686
0.00609803
0.00595318
0.00581199
0.00567413
0.0055393
0.00540715
0.00527742
0.00514984
0.00502432
0.00490083
0.00477958
0.00466066
0.00454362
0.00442649
0.00430379
0.00416574
0.0355746
0.0313558
0.0254083
0.0210071
0.0188103
0.0175203
0.0162563
0.0150349
0.0140408
0.013267
0.0126205
0.0120466
0.0115316
0.0110707
0.0106561
0.0102788
0.00993222
0.00961148
0.00931298
0.00903371
0.00877117
0.00852329
0.00828832
0.00806483
0.00785159
0.00764755
0.00745185
0.00726371
0.00708247
0.00690757
0.0067385
0.00657481
0.0064161
0.006262
0.00611216
0.00596623
0.00582388
0.00568477
0.00554858
0.00541497
0.00528364
0.00515431
0.00502683
0.0049011
0.00477711
0.00465471
0.00453302
0.00440975
0.00427951
0.00413344
0.0344828
0.0307693
0.0253478
0.0211032
0.0188489
0.0175383
0.0163062
0.0151035
0.0141033
0.0133196
0.0126689
0.0120932
0.0115757
0.0111119
0.0106946
0.0103151
0.00996655
0.00964404
0.00934391
0.00906317
0.00879929
0.00855016
0.00831405
0.00808949
0.00787523
0.00767025
0.00747362
0.00728459
0.00710248
0.00692671
0.00675676
0.00659217
0.00643254
0.00627746
0.00612659
0.00597956
0.00583604
0.00569566
0.0055581
0.005423
0.00529003
0.00515892
0.00502943
0.00490139
0.0047746
0.00464866
0.0045224
0.00439331
0.00425619
0.00410311
0.0334465
0.0301765
0.0252484
0.0211796
0.0188853
0.0175513
0.0163481
0.0151673
0.0141643
0.0133715
0.0127164
0.0121391
0.0116196
0.0111531
0.0107332
0.0103516
0.0100011
0.00967688
0.00937517
0.00909298
0.00882777
0.00857742
0.00834017
0.00811454
0.00789928
0.00769334
0.00749579
0.00730587
0.00712287
0.00694622
0.00677538
0.00660989
0.00644931
0.00629326
0.00614134
0.0059932
0.00584848
0.00570682
0.00556786
0.00543125
0.00529663
0.0051637
0.00503215
0.00490174
0.00477209
0.00464262
0.00451189
0.0043773
0.00423392
0.00407475
0.0324626
0.0295811
0.0251125
0.0212348
0.0189188
0.0175599
0.016382
0.0152258
0.0142235
0.0134225
0.0127629
0.0121842
0.0116631
0.0111943
0.0107719
0.0103881
0.0100359
0.00970998
0.00940674
0.00912313
0.00885661
0.00860505
0.00836668
0.00813999
0.00792373
0.00771683
0.00751836
0.00732754
0.00714366
0.00696612
0.00679438
0.00662797
0.00646644
0.00630939
0.00615642
0.00600715
0.00586123
0.00571826
0.00557789
0.00543974
0.00530345
0.00516866
0.00503502
0.00490219
0.00476967
0.00463667
0.00450162
0.00436186
0.00421282
0.00404833
0.0315281
0.0289865
0.0249432
0.0212676
0.018948
0.0175645
0.0164083
0.0152784
0.0142804
0.0134726
0.0128084
0.0122283
0.0117061
0.0112352
0.0108106
0.0104248
0.0100708
0.0097433
0.00943858
0.00915358
0.00888579
0.00863304
0.00839356
0.00816582
0.00794857
0.00774072
0.00754133
0.0073496
0.00716483
0.0069864
0.00681376
0.00664643
0.00648394
0.00632587
0.00617183
0.00602143
0.00587428
0.00573
0.0055882
0.0054485
0.0053105
0.00517383
0.00503807
0.0049028
0.00476739
0.00463091
0.0044917
0.00434711
0.00419295
0.00402385
0.0306401
0.0283957
0.0247435
0.021277
0.0189716
0.0175656
0.0164273
0.0153247
0.0143344
0.0135215
0.0128528
0.0122714
0.0117484
0.0112758
0.0108491
0.0104614
0.0101058
0.0097768
0.00947066
0.00918433
0.00891528
0.00866138
0.0084208
0.00819204
0.0079738
0.007765
0.00756469
0.00737206
0.0071864
0.00700707
0.00683353
0.00666526
0.00650179
0.00634271
0.00618759
0.00603604
0.00588766
0.00574205
0.00559881
0.00545754
0.00531782
0.00517925
0.00504135
0.00490362
0.00476533
0.00462545
0.00448225
0.00433318
0.00417441
0.00400128
0.0297956
0.0278112
0.0245166
0.0212628
0.018988
0.0175633
0.0164394
0.0153643
0.0143849
0.0135689
0.012896
0.0123134
0.01179
0.0113161
0.0108875
0.010498
0.0101408
0.00981043
0.00950294
0.00921533
0.00894508
0.00869004
0.00844839
0.00821861
0.00799941
0.00778967
0.00758845
0.00739492
0.00720836
0.00702814
0.00685368
0.00668447
0.00652003
0.00635992
0.00620372
0.00605101
0.00590138
0.00575443
0.00560974
0.00546689
0.00532544
0.00518495
0.00504489
0.00490471
0.00476357
0.00462038
0.00447339
0.00432016
0.00415724
0.00398062
0.028992
0.0272349
0.024266
0.0212248
0.0189959
0.0175577
0.0164453
0.015397
0.0144315
0.0136146
0.0129379
0.0123542
0.0118306
0.0113558
0.0109257
0.0105346
0.0101759
0.00984415
0.00953539
0.00924655
0.00897514
0.00871901
0.00847632
0.00824554
0.00802538
0.00781472
0.00761259
0.00741817
0.00723072
0.0070496
0.00687423
0.00670407
0.00653865
0.00637751
0.00622022
0.00606634
0.00591546
0.00576717
0.00562102
0.00547658
0.00533339
0.00519097
0.00504876
0.00490613
0.0047622
0.00461581
0.00446523
0.00430816
0.00414151
0.00396185
0.0282266
0.0266684
0.0239949
0.0211634
0.0189938
0.0175485
0.0164452
0.0154228
0.0144735
0.0136582
0.0129785
0.0123936
0.0118701
0.0113949
0.0109635
0.0105709
0.0102109
0.0098779
0.00956796
0.00927797
0.00900545
0.00874825
0.00850456
0.00827281
0.00805171
0.00784014
0.00763712
0.00744181
0.00725348
0.00707146
0.00689517
0.00672407
0.00655767
0.00639549
0.0062371
0.00608205
0.00592992
0.00578027
0.00563266
0.00548663
0.0053417
0.00519735
0.005053
0.00490795
0.00476129
0.00461182
0.00445787
0.00429728
0.00412729
0.00394498
0.0274969
0.0261132
0.0237066
0.0210794
0.0189804
0.0175353
0.0164398
0.0154418
0.0145106
0.0136992
0.0130175
0.0124316
0.0119084
0.0114332
0.0110009
0.010607
0.0102457
0.00991163
0.0096006
0.00930953
0.00903596
0.00877776
0.00853309
0.00830041
0.00807839
0.00786592
0.00766202
0.00746584
0.00727663
0.00709372
0.00691652
0.00674448
0.00657709
0.00641388
0.00625439
0.00609817
0.00594478
0.00579378
0.0056447
0.00549708
0.00535041
0.00520415
0.00505768
0.00491026
0.00476094
0.00460854
0.00445142
0.0042876
0.00411463
0.00393001
0.0268007
0.02557
0.0234041
0.0209738
0.0189547
0.0175175
0.0164293
0.0154541
0.0145424
0.0137373
0.0130547
0.012468
0.0119454
0.0114705
0.0110376
0.0106427
0.0102804
0.00994528
0.00963326
0.00934121
0.00906665
0.00880749
0.00856189
0.0083283
0.0081054
0.00789206
0.0076873
0.00749026
0.00730018
0.00711638
0.00693828
0.00676529
0.00659692
0.00643268
0.00627209
0.0061147
0.00596006
0.00580771
0.00565717
0.00550797
0.00535958
0.00521142
0.00506285
0.00491312
0.00476124
0.00460604
0.00444598
0.00427922
0.00410359
0.00391697
0.0261358
0.0250396
0.0230901
0.0208478
0.0189159
0.0174945
0.016414
0.0154599
0.0145686
0.0137721
0.0130901
0.0125029
0.011981
0.0115068
0.0110737
0.010678
0.0103148
0.00997878
0.00966589
0.00937295
0.00909748
0.00883742
0.00859093
0.00835648
0.00813273
0.00791854
0.00771294
0.00751505
0.00732411
0.00713945
0.00696044
0.00678653
0.00661718
0.0064519
0.00629022
0.00613167
0.00597578
0.00582209
0.00567011
0.00551934
0.00536923
0.00521921
0.0050686
0.00491661
0.00476228
0.00460445
0.00444165
0.00427222
0.00409423
0.00390587
0.0255002
0.0245225
0.0227673
0.020703
0.0188636
0.0174655
0.0163939
0.0154595
0.014589
0.013803
0.0131232
0.0125361
0.012015
0.0115418
0.011109
0.0107128
0.0103488
0.0100121
0.00969843
0.00940469
0.00912841
0.00886751
0.00862019
0.00838492
0.00816035
0.00794535
0.00773893
0.00754021
0.00734844
0.00716292
0.00698302
0.00680818
0.00663787
0.00647157
0.00630881
0.0061491
0.00599197
0.00583695
0.00568354
0.00553122
0.00537943
0.00522758
0.00507497
0.00492082
0.00476415
0.00460386
0.00443854
0.0042667
0.00408662
0.00389676
0.024892
0.0240188
0.022438
0.0205411
0.0187974
0.0174297
0.0163691
0.0154531
0.0146034
0.0138299
0.0131537
0.0125674
0.0120475
0.0115755
0.0111433
0.010747
0.0103824
0.0100451
0.00973082
0.0094364
0.00915938
0.00889772
0.00864964
0.00841359
0.00818825
0.00797247
0.00776526
0.00756574
0.00737315
0.00718679
0.00700602
0.00683027
0.006659
0.00649169
0.00632786
0.00616701
0.00600866
0.00585233
0.00569751
0.00554366
0.00539023
0.0052366
0.00508207
0.00492584
0.00476696
0.00460436
0.00443675
0.00426274
0.00408083
0.00388969
0.0243095
0.0235287
0.0221042
0.0203637
0.0187174
0.0173865
0.0163395
0.0154411
0.014612
0.0138523
0.0131815
0.0125967
0.0120781
0.0116078
0.0111766
0.0107804
0.0104156
0.0100778
0.00976298
0.00946801
0.00919036
0.00892802
0.00867924
0.00844247
0.0082164
0.00799988
0.00779192
0.00759163
0.00739824
0.00721106
0.00702944
0.0068528
0.00668059
0.00651229
0.0063474
0.00618543
0.00602588
0.00586826
0.00571205
0.00555672
0.00540169
0.00524634
0.00508995
0.00493175
0.0047708
0.00460607
0.00443637
0.00426044
0.00407694
0.00388472
0.0237512
0.0230521
0.0217677
0.0201727
0.0186239
0.0173352
0.0163048
0.0154236
0.0146146
0.0138699
0.0132061
0.0126238
0.012107
0.0116385
0.0112086
0.0108129
0.0104481
0.01011
0.00979487
0.00949945
0.00922129
0.00895837
0.00870895
0.00847153
0.00824479
0.00802757
0.00781889
0.00761786
0.00742371
0.00723573
0.00705328
0.00687577
0.00670264
0.00653337
0.00636745
0.00620438
0.00604365
0.00588478
0.00572722
0.00557045
0.00541387
0.00525686
0.00509871
0.00493864
0.00477577
0.0046091
0.00443751
0.00425988
0.00407502
0.00388192
0.0232156
0.0225889
0.02143
0.0199698
0.0185174
0.0172755
0.0162648
0.0154007
0.0146115
0.0138827
0.0132273
0.0126485
0.0121338
0.0116674
0.0112392
0.0108445
0.0104799
0.0101417
0.00982639
0.00953068
0.00925211
0.0089887
0.00873874
0.00850074
0.00827338
0.00805551
0.00784616
0.00764443
0.00744955
0.0072608
0.00707755
0.0068992
0.00672518
0.00655496
0.00638803
0.00622389
0.00606202
0.00590192
0.00574306
0.00558489
0.00542683
0.00526824
0.00510843
0.00494662
0.00478197
0.00461353
0.00444028
0.00426118
0.00407517
0.00388137
0.0227012
0.0221388
0.0210926
0.0197567
0.0183985
0.0172068
0.0162191
0.0153727
0.0146027
0.0138903
0.0132447
0.0126706
0.0121586
0.0116946
0.0112684
0.0108749
0.0105108
0.0101729
0.00985749
0.00956162
0.00928278
0.00901899
0.00876857
0.00853006
0.00830214
0.00808369
0.00787371
0.00767133
0.00747575
0.00728628
0.00710226
0.00692309
0.0067482
0.00657707
0.00640917
0.00624399
0.00608101
0.00591973
0.00575962
0.00560012
0.00544064
0.00528056
0.00511919
0.00495578
0.0047895
0.00461949
0.00444477
0.00426442
0.00407748
0.00388318
0.022207
0.0217017
0.0207564
0.019535
0.0182679
0.0171292
0.0161675
0.0153394
0.0145883
0.0138928
0.0132582
0.0126898
0.0121811
0.0117199
0.011296
0.0109041
0.0105409
0.0102033
0.00988807
0.0095922
0.00931322
0.00904916
0.00879839
0.00855945
0.00833105
0.00811208
0.00790153
0.00769853
0.00750231
0.00731215
0.00712739
0.00694744
0.00677174
0.00659972
0.00643088
0.0062647
0.00610067
0.00593827
0.00577696
0.00561619
0.00545538
0.0052939
0.00513109
0.00496621
0.00479848
0.00462707
0.0044511
0.00426972
0.00408206
0.00388744
0.0217317
0.0212772
0.0204226
0.0193062
0.0181267
0.0170425
0.0161097
0.0153009
0.0145686
0.0138901
0.0132675
0.0127059
0.0122013
0.0117431
0.0113219
0.0109319
0.0105699
0.010233
0.00991807
0.00962235
0.00934337
0.00907918
0.00882816
0.00858888
0.00836008
0.00814064
0.00792959
0.00772604
0.00752921
0.00733841
0.00715297
0.00697228
0.00679579
0.00662294
0.00645321
0.00628608
0.00612103
0.00595756
0.00579512
0.00563316
0.00547111
0.00530834
0.00514421
0.00497801
0.004809
0.00463639
0.00445938
0.00427718
0.00408901
0.00389426
0.0212743
0.0208651
0.0200919
0.0190718
0.0179757
0.0169469
0.0160455
0.0152573
0.0145436
0.0138822
0.0132724
0.0127187
0.0122188
0.0117642
0.0113459
0.0109582
0.0105977
0.0102617
0.0099474
0.009652
0.00937317
0.00910898
0.00885782
0.0086183
0.00838919
0.00816937
0.00795787
0.00775383
0.00755646
0.00736506
0.00717898
0.00699761
0.00682037
0.00664673
0.00647616
0.00630814
0.00614215
0.00597767
0.00581417
0.00565111
0.00548791
0.00532397
0.00515866
0.00499129
0.00482117
0.00464756
0.00446971
0.00428691
0.00409845
0.00390377
0.0208338
0.0204649
0.0197649
0.0188328
0.0178159
0.0168427
0.0159747
0.0152083
0.0145134
0.0138693
0.0132729
0.012728
0.0122337
0.011783
0.011368
0.010983
0.0106243
0.0102895
0.00997596
0.00968108
0.00940255
0.0091385
0.00888733
0.00864768
0.00841834
0.00819822
0.00798635
0.00778188
0.00758404
0.0073921
0.00720543
0.00702343
0.00684551
0.00667114
0.00649978
0.00633092
0.00616405
0.00599864
0.00583417
0.0056701
0.00550586
0.00534088
0.00517452
0.00500615
0.0048351
0.00466069
0.00448222
0.00429904
0.0041105
0.00391609
0.0204093
0.0200765
0.0194422
0.0185906
0.0176484
0.0167303
0.0158972
0.0151539
0.0144781
0.0138512
0.0132688
0.0127336
0.0122456
0.0117994
0.0113881
0.011006
0.0106495
0.0103162
0.0100037
0.0097095
0.00943145
0.00916768
0.00891663
0.00867697
0.0084475
0.00822717
0.00801502
0.00781019
0.00761193
0.00741953
0.00723234
0.00704975
0.00687121
0.00669617
0.00652409
0.00635447
0.00618678
0.00602053
0.00585518
0.0056902
0.00552505
0.00535914
0.0051919
0.0050227
0.00485091
0.00467589
0.00449701
0.00431367
0.00412528
0.00393135
0.02
0.0196994
0.0191242
0.0183462
0.0174742
0.0166101
0.0158131
0.0150941
0.0144377
0.0138281
0.0132601
0.0127354
0.0122545
0.0118134
0.011406
0.0110271
0.0106732
0.0103417
0.0100305
0.00973718
0.00945979
0.00919646
0.00894567
0.00870611
0.00847663
0.00825618
0.00804383
0.00783874
0.00764013
0.00744733
0.00725969
0.0070766
0.0068975
0.00672185
0.00654913
0.00637881
0.00621041
0.00604339
0.00587726
0.00571149
0.00554554
0.00537887
0.00521089
0.00504103
0.00486869
0.00469328
0.00451421
0.00433093
0.0041429
0.00394969
0.0196051
0.0193333
0.0188114
0.0181004
0.0172941
0.0164828
0.0157225
0.0150288
0.0143924
0.0138002
0.0132468
0.0127333
0.0122601
0.0118246
0.0114217
0.0110464
0.0106953
0.0103659
0.0100562
0.00976406
0.0094875
0.00922477
0.00897439
0.00873507
0.00850569
0.00828523
0.00807278
0.0078675
0.00766864
0.00747551
0.00728749
0.00710396
0.00692439
0.00674821
0.00657492
0.006404
0.00623496
0.00606729
0.00590049
0.00573404
0.00556743
0.00540013
0.00523158
0.00506125
0.00488856
0.00471297
0.00453393
0.00435094
0.00416351
0.00397123
0.0192239
0.018978
0.018504
0.0178542
0.0171092
0.0163488
0.0156255
0.0149581
0.0143421
0.0137674
0.013229
0.0127271
0.0122624
0.0118331
0.011435
0.0110636
0.0107157
0.0103887
0.0100808
0.00979004
0.00951451
0.00925256
0.00900273
0.00876379
0.00853464