/*--------------------------------*- C++ -*----------------------------------*\
  =========                 |
  \\      /  F ield         | OpenFOAM: The Open Source CFD Toolbox
   \\    /   O peration     | Website:  https://openfoam.org
    \\  /    A nd           | Version:  7
     \\/     M anipulation  |
\*---------------------------------------------------------------------------*/
FoamFile
{
    version     2.0;
    format      ascii;
    class       volVectorField;
    location    "0.38";
    object      vorticity;
}
// * * * * * * * * * * * * * * * * * * * * * * * * * * * * * * * * * * * * * //

dimensions      [0 0 -1 0 0 0 0];

internalField   nonuniform List<vector> 
70000
(
(0 -0 -45716.1)
(0 -0 -28617.9)
(0 -0 -20913.8)
(0 -0 -16980.4)
(0 -0 -14959)
(0 -0 -13651.7)
(0 -0 -12642)
(0 -0 -11829.2)
(0 -0 -11165.3)
(0 -0 -10611.3)
(0 -0 -10139.4)
(0 -0 -9730.82)
(0 -0 -9372.76)
(0 -0 -9055.77)
(0 -0 -8772.72)
(0 -0 -8518.13)
(0 -0 -8287.65)
(0 -0 -8077.83)
(0 -0 -7885.88)
(0 -0 -7709.5)
(0 -0 -7546.78)
(0 -0 -7396.13)
(0 -0 -7256.2)
(0 -0 -7125.84)
(0 -0 -7004.06)
(0 -0 -6890.01)
(0 -0 -6782.93)
(0 -0 -6682.17)
(0 -0 -6587.16)
(0 -0 -6497.37)
(0 -0 -6412.36)
(0 -0 -6331.69)
(0 -0 -6255.01)
(0 -0 -6181.94)
(0 -0 -6112.19)
(0 -0 -6045.45)
(0 -0 -5981.41)
(0 -0 -5919.93)
(0 -0 -5860.4)
(0 -0 -5803.4)
(0 -0 -5746.97)
(0 -0 -5694.29)
(0 -0 -5638.69)
(0 -0 -5591.92)
(0 -0 -5532.5)
(0 -0 -5497.64)
(0 -0 -5424.84)
(0 -0 -5413.65)
(0 -0 -5343.11)
(0 -0 -5111.94)
(0 -0 -13549.7)
(0 -0 -19947.4)
(0 -0 -18536.3)
(0 -0 -16249.8)
(0 -0 -14503.7)
(0 -0 -13279.5)
(0 -0 -12351.1)
(0 -0 -11600.9)
(0 -0 -10978.5)
(0 -0 -10453.2)
(0 -0 -10002.8)
(0 -0 -9611.11)
(0 -0 -9266.43)
(0 -0 -8960.26)
(0 -0 -8686.09)
(0 -0 -8438.87)
(0 -0 -8214.59)
(0 -0 -8010.03)
(0 -0 -7822.57)
(0 -0 -7650.07)
(0 -0 -7490.72)
(0 -0 -7343.02)
(0 -0 -7205.68)
(0 -0 -7077.62)
(0 -0 -6957.89)
(0 -0 -6845.68)
(0 -0 -6740.27)
(0 -0 -6641.04)
(0 -0 -6547.44)
(0 -0 -6458.97)
(0 -0 -6375.2)
(0 -0 -6295.72)
(0 -0 -6220.19)
(0 -0 -6148.26)
(0 -0 -6079.65)
(0 -0 -6014.06)
(0 -0 -5951.21)
(0 -0 -5890.93)
(0 -0 -5832.72)
(0 -0 -5776.96)
(0 -0 -5722.1)
(0 -0 -5670.49)
(0 -0 -5617.03)
(0 -0 -5570.39)
(0 -0 -5514.59)
(0 -0 -5476.52)
(0 -0 -5411.6)
(0 -0 -5387.58)
(0 -0 -5322.59)
(0 -0 -5336.45)
(0 -0 -3818.75)
(0 -0 -10828.8)
(0 -0 -13363.4)
(0 -0 -13519.6)
(0 -0 -12866.2)
(0 -0 -12140)
(0 -0 -11498.2)
(0 -0 -10937.8)
(0 -0 -10445.9)
(0 -0 -10013.4)
(0 -0 -9631.48)
(0 -0 -9292.12)
(0 -0 -8988.52)
(0 -0 -8715.2)
(0 -0 -8467.76)
(0 -0 -8242.58)
(0 -0 -8036.71)
(0 -0 -7847.71)
(0 -0 -7673.51)
(0 -0 -7512.4)
(0 -0 -7362.93)
(0 -0 -7223.84)
(0 -0 -7094.07)
(0 -0 -6972.69)
(0 -0 -6858.9)
(0 -0 -6751.99)
(0 -0 -6651.36)
(0 -0 -6556.44)
(0 -0 -6466.75)
(0 -0 -6381.87)
(0 -0 -6301.41)
(0 -0 -6225.01)
(0 -0 -6152.36)
(0 -0 -6083.15)
(0 -0 -6017.14)
(0 -0 -5954.07)
(0 -0 -5893.68)
(0 -0 -5835.82)
(0 -0 -5780.11)
(0 -0 -5726.71)
(0 -0 -5674.65)
(0 -0 -5625.24)
(0 -0 -5575.4)
(0 -0 -5530.1)
(0 -0 -5480.16)
(0 -0 -5440.18)
(0 -0 -5387)
(0 -0 -5352.98)
(0 -0 -5298.44)
(0 -0 -5346.77)
(0 -0 -533.075)
(0 -0 -4662.59)
(0 -0 -7718.38)
(0 -0 -9328.54)
(0 -0 -9892.45)
(0 -0 -9957.9)
(0 -0 -9826.25)
(0 -0 -9614.3)
(0 -0 -9370.92)
(0 -0 -9120.81)
(0 -0 -8876.42)
(0 -0 -8643.36)
(0 -0 -8423.73)
(0 -0 -8217.98)
(0 -0 -8025.73)
(0 -0 -7846.27)
(0 -0 -7678.7)
(0 -0 -7522.13)
(0 -0 -7375.64)
(0 -0 -7238.41)
(0 -0 -7109.65)
(0 -0 -6988.66)
(0 -0 -6874.8)
(0 -0 -6767.49)
(0 -0 -6666.2)
(0 -0 -6570.45)
(0 -0 -6479.83)
(0 -0 -6393.94)
(0 -0 -6312.43)
(0 -0 -6234.98)
(0 -0 -6161.31)
(0 -0 -6091.15)
(0 -0 -6024.25)
(0 -0 -5960.39)
(0 -0 -5899.37)
(0 -0 -5840.98)
(0 -0 -5785.05)
(0 -0 -5731.41)
(0 -0 -5679.86)
(0 -0 -5630.34)
(0 -0 -5582.47)
(0 -0 -5536.53)
(0 -0 -5491.57)
(0 -0 -5448.78)
(0 -0 -5405.91)
(0 -0 -5365.44)
(0 -0 -5324.96)
(0 -0 -5283.86)
(0 -0 -5248.61)
(0 -0 -5249.92)
(0 -0 322.418)
(0 -0 -1444.51)
(0 -0 -3532.51)
(0 -0 -5259.14)
(0 -0 -6399.31)
(0 -0 -7074.21)
(0 -0 -7451.77)
(0 -0 -7642.41)
(0 -0 -7714.4)
(0 -0 -7712)
(0 -0 -7663.83)
(0 -0 -7588)
(0 -0 -7495.96)
(0 -0 -7395)
(0 -0 -7289.81)
(0 -0 -7183.43)
(0 -0 -7077.79)
(0 -0 -6974.13)
(0 -0 -6873.24)
(0 -0 -6775.55)
(0 -0 -6681.33)
(0 -0 -6590.68)
(0 -0 -6503.6)
(0 -0 -6420.06)
(0 -0 -6339.97)
(0 -0 -6263.22)
(0 -0 -6189.67)
(0 -0 -6119.19)
(0 -0 -6051.64)
(0 -0 -5986.9)
(0 -0 -5924.81)
(0 -0 -5865.25)
(0 -0 -5808.1)
(0 -0 -5753.23)
(0 -0 -5700.53)
(0 -0 -5649.86)
(0 -0 -5601.17)
(0 -0 -5554.28)
(0 -0 -5509.19)
(0 -0 -5465.63)
(0 -0 -5423.81)
(0 -0 -5383.1)
(0 -0 -5344.36)
(0 -0 -5305.69)
(0 -0 -5270.47)
(0 -0 -5231.74)
(0 -0 -5202.72)
(0 -0 -5158.63)
(0 -0 -5142.61)
(0 -0 -5107.7)
(0 -0 364.684)
(0 -0 -158.555)
(0 -0 -1181.48)
(0 -0 -2361.96)
(0 -0 -3417.5)
(0 -0 -4256.19)
(0 -0 -4891.36)
(0 -0 -5356.89)
(0 -0 -5687.84)
(0 -0 -5916.25)
(0 -0 -6068.45)
(0 -0 -6164.59)
(0 -0 -6219.64)
(0 -0 -6244.6)
(0 -0 -6247.53)
(0 -0 -6234.38)
(0 -0 -6209.54)
(0 -0 -6176.26)
(0 -0 -6136.97)
(0 -0 -6093.47)
(0 -0 -6047.13)
(0 -0 -5998.98)
(0 -0 -5949.79)
(0 -0 -5900.16)
(0 -0 -5850.53)
(0 -0 -5801.23)
(0 -0 -5752.51)
(0 -0 -5704.56)
(0 -0 -5657.53)
(0 -0 -5611.49)
(0 -0 -5566.53)
(0 -0 -5522.69)
(0 -0 -5480)
(0 -0 -5438.47)
(0 -0 -5398.1)
(0 -0 -5358.88)
(0 -0 -5320.84)
(0 -0 -5283.86)
(0 -0 -5248.1)
(0 -0 -5213.22)
(0 -0 -5179.78)
(0 -0 -5146.65)
(0 -0 -5115.82)
(0 -0 -5083.57)
(0 -0 -5056.54)
(0 -0 -5022.7)
(0 -0 -5003.16)
(0 -0 -4962.05)
(0 -0 -4957.13)
(0 -0 -4915.55)
(0 -0 254.004)
(0 -0 185.288)
(0 -0 -173.269)
(0 -0 -764.62)
(0 -0 -1447.63)
(0 -0 -2115.41)
(0 -0 -2720.6)
(0 -0 -3243.68)
(0 -0 -3680.5)
(0 -0 -4036.8)
(0 -0 -4322.88)
(0 -0 -4549.88)
(0 -0 -4728.16)
(0 -0 -4866.72)
(0 -0 -4973.12)
(0 -0 -5053.54)
(0 -0 -5113.03)
(0 -0 -5155.65)
(0 -0 -5184.66)
(0 -0 -5202.7)
(0 -0 -5211.89)
(0 -0 -5213.92)
(0 -0 -5210.18)
(0 -0 -5201.81)
(0 -0 -5189.7)
(0 -0 -5174.62)
(0 -0 -5157.16)
(0 -0 -5137.85)
(0 -0 -5117.08)
(0 -0 -5095.2)
(0 -0 -5072.49)
(0 -0 -5049.2)
(0 -0 -5025.51)
(0 -0 -5001.59)
(0 -0 -4977.57)
(0 -0 -4953.56)
(0 -0 -4929.69)
(0 -0 -4905.95)
(0 -0 -4882.59)
(0 -0 -4859.32)
(0 -0 -4836.85)
(0 -0 -4813.98)
(0 -0 -4793.04)
(0 -0 -4769.89)
(0 -0 -4751.98)
(0 -0 -4726.4)
(0 -0 -4715.1)
(0 -0 -4682.63)
(0 -0 -4682.72)
(0 -0 -4649.7)
(0 -0 178.731)
(0 -0 204.487)
(0 -0 130.66)
(0 -0 -85.1813)
(0 -0 -417.832)
(0 -0 -814.829)
(0 -0 -1236.3)
(0 -0 -1653.33)
(0 -0 -2046.01)
(0 -0 -2403.31)
(0 -0 -2720.99)
(0 -0 -2998.94)
(0 -0 -3239.38)
(0 -0 -3445.63)
(0 -0 -3621.47)
(0 -0 -3770.64)
(0 -0 -3896.68)
(0 -0 -4002.77)
(0 -0 -4091.72)
(0 -0 -4165.98)
(0 -0 -4227.68)
(0 -0 -4278.61)
(0 -0 -4320.34)
(0 -0 -4354.18)
(0 -0 -4381.28)
(0 -0 -4402.59)
(0 -0 -4418.93)
(0 -0 -4431.02)
(0 -0 -4439.46)
(0 -0 -4444.76)
(0 -0 -4447.38)
(0 -0 -4447.7)
(0 -0 -4446.06)
(0 -0 -4442.73)
(0 -0 -4437.99)
(0 -0 -4432.03)
(0 -0 -4425.09)
(0 -0 -4417.26)
(0 -0 -4408.83)
(0 -0 -4399.67)
(0 -0 -4390.44)
(0 -0 -4380.18)
(0 -0 -4371.01)
(0 -0 -4359.35)
(0 -0 -4351.78)
(0 -0 -4337.18)
(0 -0 -4334.27)
(0 -0 -4313.83)
(0 -0 -4318.04)
(0 -0 -4297.52)
(0 -0 148.003)
(0 -0 164.591)
(0 -0 169.975)
(0 -0 120.981)
(0 -0 1.06418)
(0 -0 -180.683)
(0 -0 -408.884)
(0 -0 -667.172)
(0 -0 -939.685)
(0 -0 -1213.47)
(0 -0 -1479.27)
(0 -0 -1731.06)
(0 -0 -1965.34)
(0 -0 -2180.42)
(0 -0 -2375.94)
(0 -0 -2552.36)
(0 -0 -2710.66)
(0 -0 -2852.11)
(0 -0 -2978.11)
(0 -0 -3090.06)
(0 -0 -3189.33)
(0 -0 -3277.22)
(0 -0 -3354.91)
(0 -0 -3423.49)
(0 -0 -3483.96)
(0 -0 -3537.2)
(0 -0 -3583.99)
(0 -0 -3625.05)
(0 -0 -3661)
(0 -0 -3692.41)
(0 -0 -3719.77)
(0 -0 -3743.54)
(0 -0 -3764.09)
(0 -0 -3781.79)
(0 -0 -3796.95)
(0 -0 -3809.86)
(0 -0 -3820.77)
(0 -0 -3829.89)
(0 -0 -3837.5)
(0 -0 -3843.62)
(0 -0 -3848.8)
(0 -0 -3852.44)
(0 -0 -3856.16)
(0 -0 -3857.33)
(0 -0 -3861.1)
(0 -0 -3858.9)
(0 -0 -3865.19)
(0 -0 -3857.98)
(0 -0 -3867.78)
(0 -0 -3860.24)
(0 -0 136.81)
(0 -0 137.056)
(0 -0 148.722)
(0 -0 149.672)
(0 -0 122.197)
(0 -0 60.1341)
(0 -0 -36.3376)
(0 -0 -163.559)
(0 -0 -315.164)
(0 -0 -483.817)
(0 -0 -662.581)
(0 -0 -845.52)
(0 -0 -1027.88)
(0 -0 -1206.08)
(0 -0 -1377.55)
(0 -0 -1540.62)
(0 -0 -1694.26)
(0 -0 -1838)
(0 -0 -1971.71)
(0 -0 -2095.56)
(0 -0 -2209.87)
(0 -0 -2315.11)
(0 -0 -2411.77)
(0 -0 -2500.42)
(0 -0 -2581.61)
(0 -0 -2655.89)
(0 -0 -2723.79)
(0 -0 -2785.83)
(0 -0 -2842.48)
(0 -0 -2894.18)
(0 -0 -2941.35)
(0 -0 -2984.37)
(0 -0 -3023.6)
(0 -0 -3059.37)
(0 -0 -3091.98)
(0 -0 -3121.71)
(0 -0 -3148.8)
(0 -0 -3173.53)
(0 -0 -3196.09)
(0 -0 -3216.65)
(0 -0 -3235.59)
(0 -0 -3252.63)
(0 -0 -3268.94)
(0 -0 -3282.71)
(0 -0 -3297.75)
(0 -0 -3307.82)
(0 -0 -3323.55)
(0 -0 -3329.18)
(0 -0 -3345.76)
(0 -0 -3350.59)
(0 -0 129.929)
(0 -0 123.985)
(0 -0 129.17)
(0 -0 136.373)
(0 -0 136.468)
(0 -0 123.21)
(0 -0 92.9479)
(0 -0 43.8273)
(0 -0 -23.9846)
(0 -0 -108.646)
(0 -0 -207.37)
(0 -0 -317.004)
(0 -0 -434.388)
(0 -0 -556.608)
(0 -0 -681.12)
(0 -0 -805.81)
(0 -0 -928.985)
(0 -0 -1049.34)
(0 -0 -1165.91)
(0 -0 -1278.02)
(0 -0 -1385.2)
(0 -0 -1487.21)
(0 -0 -1583.9)
(0 -0 -1675.28)
(0 -0 -1761.41)
(0 -0 -1842.44)
(0 -0 -1918.52)
(0 -0 -1989.87)
(0 -0 -2056.7)
(0 -0 -2119.25)
(0 -0 -2177.75)
(0 -0 -2232.44)
(0 -0 -2283.54)
(0 -0 -2331.29)
(0 -0 -2375.89)
(0 -0 -2417.57)
(0 -0 -2456.5)
(0 -0 -2492.93)
(0 -0 -2526.99)
(0 -0 -2558.88)
(0 -0 -2588.84)
(0 -0 -2616.78)
(0 -0 -2643.51)
(0 -0 -2667.83)
(0 -0 -2692.49)
(0 -0 -2713.06)
(0 -0 -2737.12)
(0 -0 -2753.79)
(0 -0 -2776.97)
(0 -0 -2792.48)
(0 -0 122.939)
(0 -0 116.632)
(0 -0 118.003)
(0 -0 122.481)
(0 -0 126.427)
(0 -0 126.9)
(0 -0 121.427)
(0 -0 107.702)
(0 -0 84.0825)
(0 -0 49.8604)
(0 -0 5.13506)
(0 -0 -49.3745)
(0 -0 -112.532)
(0 -0 -182.961)
(0 -0 -259.201)
(0 -0 -339.812)
(0 -0 -423.45)
(0 -0 -508.911)
(0 -0 -595.148)
(0 -0 -681.275)
(0 -0 -766.559)
(0 -0 -850.409)
(0 -0 -932.359)
(0 -0 -1012.05)
(0 -0 -1089.23)
(0 -0 -1163.7)
(0 -0 -1235.35)
(0 -0 -1304.11)
(0 -0 -1369.96)
(0 -0 -1432.91)
(0 -0 -1492.99)
(0 -0 -1550.27)
(0 -0 -1604.81)
(0 -0 -1656.73)
(0 -0 -1706.08)
(0 -0 -1753.03)
(0 -0 -1797.62)
(0 -0 -1840.03)
(0 -0 -1880.32)
(0 -0 -1918.65)
(0 -0 -1955.16)
(0 -0 -1989.81)
(0 -0 -2023.18)
(0 -0 -2054.42)
(0 -0 -2085.52)
(0 -0 -2113.36)
(0 -0 -2143.18)
(0 -0 -2167.79)
(0 -0 -2195.93)
(0 -0 -2219.26)
(0 -0 115.618)
(0 -0 110.4)
(0 -0 110.721)
(0 -0 113.163)
(0 -0 115.977)
(0 -0 118.239)
(0 -0 119.117)
(0 -0 117.407)
(0 -0 111.826)
(0 -0 101.317)
(0 -0 85.1587)
(0 -0 62.9807)
(0 -0 34.732)
(0 -0 0.637108)
(0 -0 -38.8711)
(0 -0 -83.2188)
(0 -0 -131.751)
(0 -0 -183.779)
(0 -0 -238.62)
(0 -0 -295.62)
(0 -0 -354.172)
(0 -0 -413.727)
(0 -0 -473.796)
(0 -0 -533.953)
(0 -0 -593.833)
(0 -0 -653.126)
(0 -0 -711.574)
(0 -0 -768.968)
(0 -0 -825.135)
(0 -0 -879.947)
(0 -0 -933.299)
(0 -0 -985.124)
(0 -0 -1035.36)
(0 -0 -1084)
(0 -0 -1131.01)
(0 -0 -1176.43)
(0 -0 -1220.23)
(0 -0 -1262.49)
(0 -0 -1303.2)
(0 -0 -1342.45)
(0 -0 -1380.31)
(0 -0 -1416.72)
(0 -0 -1452.09)
(0 -0 -1485.79)
(0 -0 -1519.21)
(0 -0 -1550.25)
(0 -0 -1582.32)
(0 -0 -1610.94)
(0 -0 -1641.26)
(0 -0 -1668.77)
(0 -0 108.372)
(0 -0 104.182)
(0 -0 104.396)
(0 -0 106.107)
(0 -0 107.978)
(0 -0 109.69)
(0 -0 111.227)
(0 -0 112.243)
(0 -0 112.155)
(0 -0 110.331)
(0 -0 106.183)
(0 -0 99.2072)
(0 -0 89.03)
(0 -0 75.4141)
(0 -0 58.2667)
(0 -0 37.6165)
(0 -0 13.5967)
(0 -0 -13.5785)
(0 -0 -43.6383)
(0 -0 -76.2746)
(0 -0 -111.161)
(0 -0 -147.964)
(0 -0 -186.357)
(0 -0 -226.028)
(0 -0 -266.681)
(0 -0 -308.045)
(0 -0 -349.871)
(0 -0 -391.936)
(0 -0 -434.042)
(0 -0 -476.016)
(0 -0 -517.703)
(0 -0 -558.978)
(0 -0 -599.724)
(0 -0 -639.86)
(0 -0 -679.297)
(0 -0 -717.995)
(0 -0 -755.885)
(0 -0 -792.965)
(0 -0 -829.188)
(0 -0 -864.562)
(0 -0 -899.112)
(0 -0 -932.753)
(0 -0 -965.753)
(0 -0 -997.654)
(0 -0 -1029.37)
(0 -0 -1059.54)
(0 -0 -1090.24)
(0 -0 -1118.88)
(0 -0 -1148.25)
(0 -0 -1176.18)
(0 -0 101.394)
(0 -0 97.9902)
(0 -0 98.2188)
(0 -0 99.6964)
(0 -0 101.212)
(0 -0 102.485)
(0 -0 103.71)
(0 -0 104.896)
(0 -0 105.87)
(0 -0 106.385)
(0 -0 106.159)
(0 -0 104.893)
(0 -0 102.296)
(0 -0 98.1119)
(0 -0 92.1302)
(0 -0 84.2012)
(0 -0 74.2333)
(0 -0 62.1922)
(0 -0 48.0948)
(0 -0 32.0008)
(0 -0 14.0055)
(0 -0 -5.76881)
(0 -0 -27.1804)
(0 -0 -50.0752)
(0 -0 -74.2918)
(0 -0 -99.6671)
(0 -0 -126.039)
(0 -0 -153.252)
(0 -0 -181.155)
(0 -0 -209.609)
(0 -0 -238.478)
(0 -0 -267.646)
(0 -0 -296.996)
(0 -0 -326.436)
(0 -0 -355.867)
(0 -0 -385.223)
(0 -0 -414.422)
(0 -0 -443.421)
(0 -0 -472.161)
(0 -0 -500.604)
(0 -0 -528.749)
(0 -0 -556.498)
(0 -0 -584.013)
(0 -0 -610.975)
(0 -0 -637.927)
(0 -0 -664.062)
(0 -0 -690.528)
(0 -0 -715.949)
(0 -0 -741.699)
(0 -0 -766.883)
(0 -0 94.7168)
(0 -0 91.94)
(0 -0 92.157)
(0 -0 93.4861)
(0 -0 94.87)
(0 -0 95.9705)
(0 -0 96.9707)
(0 -0 97.9686)
(0 -0 98.9362)
(0 -0 99.806)
(0 -0 100.488)
(0 -0 100.866)
(0 -0 100.8)
(0 -0 100.141)
(0 -0 98.7451)
(0 -0 96.4753)
(0 -0 93.2152)
(0 -0 88.8699)
(0 -0 83.3697)
(0 -0 76.6696)
(0 -0 68.7492)
(0 -0 59.6094)
(0 -0 49.2721)
(0 -0 37.7747)
(0 -0 25.1688)
(0 -0 11.5165)
(0 -0 -3.11131)
(0 -0 -18.6392)
(0 -0 -34.987)
(0 -0 -52.0748)
(0 -0 -69.8198)
(0 -0 -88.1446)
(0 -0 -106.969)
(0 -0 -126.222)
(0 -0 -145.831)
(0 -0 -165.734)
(0 -0 -185.866)
(0 -0 -206.177)
(0 -0 -226.617)
(0 -0 -247.136)
(0 -0 -267.722)
(0 -0 -288.29)
(0 -0 -308.924)
(0 -0 -329.422)
(0 -0 -350.07)
(0 -0 -370.435)
(0 -0 -391.075)
(0 -0 -411.349)
(0 -0 -431.832)
(0 -0 -452.275)
(0 -0 88.3401)
(0 -0 86.0836)
(0 -0 86.2823)
(0 -0 87.4621)
(0 -0 88.7479)
(0 -0 89.7696)
(0 -0 90.6636)
(0 -0 91.5334)
(0 -0 92.3828)
(0 -0 93.1972)
(0 -0 93.9606)
(0 -0 94.6441)
(0 -0 95.2022)
(0 -0 95.5762)
(0 -0 95.6984)
(0 -0 95.496)
(0 -0 94.8955)
(0 -0 93.8262)
(0 -0 92.2232)
(0 -0 90.0296)
(0 -0 87.1981)
(0 -0 83.6922)
(0 -0 79.4856)
(0 -0 74.5631)
(0 -0 68.9195)
(0 -0 62.5584)
(0 -0 55.4921)
(0 -0 47.7395)
(0 -0 39.3261)
(0 -0 30.2814)
(0 -0 20.6398)
(0 -0 10.437)
(0 -0 -0.287021)
(0 -0 -11.4944)
(0 -0 -23.1432)
(0 -0 -35.1962)
(0 -0 -47.6126)
(0 -0 -60.3568)
(0 -0 -73.3952)
(0 -0 -86.6892)
(0 -0 -100.226)
(0 -0 -113.947)
(0 -0 -127.889)
(0 -0 -141.94)
(0 -0 -156.227)
(0 -0 -170.548)
(0 -0 -185.13)
(0 -0 -199.729)
(0 -0 -214.522)
(0 -0 -229.537)
(0 -0 82.2624)
(0 -0 80.439)
(0 -0 80.628)
(0 -0 81.6632)
(0 -0 82.8459)
(0 -0 83.8024)
(0 -0 84.6286)
(0 -0 85.4211)
(0 -0 86.1878)
(0 -0 86.9217)
(0 -0 87.6245)
(0 -0 88.2955)
(0 -0 88.9266)
(0 -0 89.502)
(0 -0 89.9994)
(0 -0 90.3912)
(0 -0 90.6453)
(0 -0 90.7268)
(0 -0 90.5993)
(0 -0 90.2264)
(0 -0 89.5732)
(0 -0 88.6072)
(0 -0 87.2991)
(0 -0 85.6238)
(0 -0 83.5608)
(0 -0 81.0941)
(0 -0 78.2124)
(0 -0 74.9089)
(0 -0 71.1814)
(0 -0 67.0314)
(0 -0 62.4642)
(0 -0 57.488)
(0 -0 52.1142)
(0 -0 46.356)
(0 -0 40.229)
(0 -0 33.7494)
(0 -0 26.9349)
(0 -0 19.8039)
(0 -0 12.3725)
(0 -0 4.66267)
(0 -0 -3.31735)
(0 -0 -11.537)
(0 -0 -20.0068)
(0 -0 -28.678)
(0 -0 -37.5914)
(0 -0 -46.6765)
(0 -0 -55.9934)
(0 -0 -65.4898)
(0 -0 -75.172)
(0 -0 -85.1575)
(0 -0 76.4841)
(0 -0 75.0176)
(0 -0 75.206)
(0 -0 76.1096)
(0 -0 77.1867)
(0 -0 78.0768)
(0 -0 78.8417)
(0 -0 79.5718)
(0 -0 80.2767)
(0 -0 80.9488)
(0 -0 81.5904)
(0 -0 82.2066)
(0 -0 82.7991)
(0 -0 83.3663)
(0 -0 83.904)
(0 -0 84.405)
(0 -0 84.8595)
(0 -0 85.2551)
(0 -0 85.5772)
(0 -0 85.8094)
(0 -0 85.9343)
(0 -0 85.9337)
(0 -0 85.7893)
(0 -0 85.4836)
(0 -0 85)
(0 -0 84.3231)
(0 -0 83.4394)
(0 -0 82.337)
(0 -0 81.0062)
(0 -0 79.4391)
(0 -0 77.6302)
(0 -0 75.5755)
(0 -0 73.2734)
(0 -0 70.7236)
(0 -0 67.9276)
(0 -0 64.8885)
(0 -0 61.6101)
(0 -0 58.0979)
(0 -0 54.3569)
(0 -0 50.3947)
(0 -0 46.2153)
(0 -0 41.829)
(0 -0 37.2362)
(0 -0 32.4491)
(0 -0 27.4656)
(0 -0 22.2929)
(0 -0 16.9385)
(0 -0 11.3787)
(0 -0 5.66479)
(0 -0 -0.33097)
(0 -0 71.005)
(0 -0 69.8298)
(0 -0 70.0234)
(0 -0 70.8097)
(0 -0 71.7832)
(0 -0 72.6067)
(0 -0 73.3118)
(0 -0 73.9827)
(0 -0 74.6318)
(0 -0 75.2509)
(0 -0 75.8406)
(0 -0 76.4059)
(0 -0 76.95)
(0 -0 77.4745)
(0 -0 77.98)
(0 -0 78.4661)
(0 -0 78.9313)
(0 -0 79.373)
(0 -0 79.7873)
(0 -0 80.1689)
(0 -0 80.5113)
(0 -0 80.8072)
(0 -0 81.0484)
(0 -0 81.2261)
(0 -0 81.3316)
(0 -0 81.3556)
(0 -0 81.2895)
(0 -0 81.1248)
(0 -0 80.8534)
(0 -0 80.4679)
(0 -0 79.9618)
(0 -0 79.3291)
(0 -0 78.5648)
(0 -0 77.665)
(0 -0 76.6262)
(0 -0 75.4461)
(0 -0 74.123)
(0 -0 72.6561)
(0 -0 71.045)
(0 -0 69.2898)
(0 -0 67.3919)
(0 -0 65.3503)
(0 -0 63.1694)
(0 -0 60.8442)
(0 -0 58.3858)
(0 -0 55.7773)
(0 -0 53.0461)
(0 -0 50.1474)
(0 -0 47.142)
(0 -0 43.9199)
(0 -0 65.8237)
(0 -0 64.8841)
(0 -0 65.0858)
(0 -0 65.7685)
(0 -0 66.6421)
(0 -0 67.4004)
(0 -0 68.0481)
(0 -0 68.6618)
(0 -0 69.2571)
(0 -0 69.8262)
(0 -0 70.3682)
(0 -0 70.8871)
(0 -0 71.3863)
(0 -0 71.8675)
(0 -0 72.3321)
(0 -0 72.7812)
(0 -0 73.2156)
(0 -0 73.6358)
(0 -0 74.0416)
(0 -0 74.4321)
(0 -0 74.806)
(0 -0 75.1611)
(0 -0 75.4947)
(0 -0 75.8035)
(0 -0 76.0841)
(0 -0 76.3324)
(0 -0 76.5444)
(0 -0 76.7158)
(0 -0 76.8422)
(0 -0 76.9192)
(0 -0 76.9425)
(0 -0 76.9081)
(0 -0 76.812)
(0 -0 76.6506)
(0 -0 76.4206)
(0 -0 76.1189)
(0 -0 75.7431)
(0 -0 75.2905)
(0 -0 74.7597)
(0 -0 74.148)
(0 -0 73.456)
(0 -0 72.679)
(0 -0 71.8218)
(0 -0 70.8743)
(0 -0 69.8495)
(0 -0 68.726)
(0 -0 67.5316)
(0 -0 66.2236)
(0 -0 64.8548)
(0 -0 63.3401)
(0 -0 60.9373)
(0 -0 60.1868)
(0 -0 60.3974)
(0 -0 60.9892)
(0 -0 61.7678)
(0 -0 62.4626)
(0 -0 63.0558)
(0 -0 63.6149)
(0 -0 64.1584)
(0 -0 64.6794)
(0 -0 65.1758)
(0 -0 65.651)
(0 -0 66.1079)
(0 -0 66.5483)
(0 -0 66.9735)
(0 -0 67.3846)
(0 -0 67.7829)
(0 -0 68.1695)
(0 -0 68.5453)
(0 -0 68.9107)
(0 -0 69.2659)
(0 -0 69.6108)
(0 -0 69.9447)
(0 -0 70.267)
(0 -0 70.5767)
(0 -0 70.8724)
(0 -0 71.1527)
(0 -0 71.4161)
(0 -0 71.6608)
(0 -0 71.8847)
(0 -0 72.0859)
(0 -0 72.2624)
(0 -0 72.412)
(0 -0 72.5326)
(0 -0 72.6224)
(0 -0 72.6791)
(0 -0 72.7012)
(0 -0 72.6865)
(0 -0 72.6341)
(0 -0 72.541)
(0 -0 72.4082)
(0 -0 72.2307)
(0 -0 72.0131)
(0 -0 71.7455)
(0 -0 71.4396)
(0 -0 71.0764)
(0 -0 70.679)
(0 -0 70.213)
(0 -0 69.7214)
(0 -0 69.1388)
(0 -0 56.3419)
(0 -0 55.7421)
(0 -0 55.9608)
(0 -0 56.4731)
(0 -0 57.1623)
(0 -0 57.7958)
(0 -0 58.3374)
(0 -0 58.8449)
(0 -0 59.339)
(0 -0 59.8139)
(0 -0 60.2667)
(0 -0 60.7001)
(0 -0 61.1169)
(0 -0 61.5185)
(0 -0 61.9062)
(0 -0 62.2811)
(0 -0 62.6444)
(0 -0 62.9972)
(0 -0 63.3406)
(0 -0 63.6753)
(0 -0 64.0019)
(0 -0 64.3207)
(0 -0 64.6319)
(0 -0 64.9354)
(0 -0 65.2312)
(0 -0 65.5192)
(0 -0 65.7989)
(0 -0 66.0701)
(0 -0 66.3322)
(0 -0 66.5846)
(0 -0 66.8265)
(0 -0 67.0572)
(0 -0 67.2758)
(0 -0 67.4815)
(0 -0 67.6733)
(0 -0 67.8504)
(0 -0 68.0118)
(0 -0 68.1564)
(0 -0 68.2839)
(0 -0 68.3923)
(0 -0 68.4827)
(0 -0 68.5511)
(0 -0 68.6019)
(0 -0 68.627)
(0 -0 68.6359)
(0 -0 68.6141)
(0 -0 68.5798)
(0 -0 68.5065)
(0 -0 68.4291)
(0 -0 68.2968)
(0 -0 52.0324)
(0 -0 51.552)
(0 -0 51.7765)
(0 -0 52.2197)
(0 -0 52.8259)
(0 -0 53.4004)
(0 -0 53.8934)
(0 -0 54.3526)
(0 -0 54.7999)
(0 -0 55.2309)
(0 -0 55.6424)
(0 -0 56.036)
(0 -0 56.4145)
(0 -0 56.7792)
(0 -0 57.1313)
(0 -0 57.4717)
(0 -0 57.8016)
(0 -0 58.1222)
(0 -0 58.4344)
(0 -0 58.7389)
(0 -0 59.0364)
(0 -0 59.3272)
(0 -0 59.6117)
(0 -0 59.89)
(0 -0 60.1622)
(0 -0 60.4287)
(0 -0 60.6893)
(0 -0 60.9441)
(0 -0 61.1931)
(0 -0 61.4362)
(0 -0 61.6732)
(0 -0 61.9039)
(0 -0 62.1281)
(0 -0 62.3455)
(0 -0 62.5559)
(0 -0 62.7588)
(0 -0 62.9541)
(0 -0 63.1412)
(0 -0 63.3203)
(0 -0 63.49)
(0 -0 63.6517)
(0 -0 63.8026)
(0 -0 63.9461)
(0 -0 64.0767)
(0 -0 64.2018)
(0 -0 64.3105)
(0 -0 64.4172)
(0 -0 64.5017)
(0 -0 64.5926)
(0 -0 64.6496)
(0 -0 48.0024)
(0 -0 47.6161)
(0 -0 47.8435)
(0 -0 48.2269)
(0 -0 48.7569)
(0 -0 49.2749)
(0 -0 49.7223)
(0 -0 50.1363)
(0 -0 50.5396)
(0 -0 50.9293)
(0 -0 51.3016)
(0 -0 51.6577)
(0 -0 51.9999)
(0 -0 52.3297)
(0 -0 52.648)
(0 -0 52.9558)
(0 -0 53.2541)
(0 -0 53.5441)
(0 -0 53.8266)
(0 -0 54.1025)
(0 -0 54.3721)
(0 -0 54.636)
(0 -0 54.8943)
(0 -0 55.1472)
(0 -0 55.395)
(0 -0 55.6379)
(0 -0 55.876)
(0 -0 56.1093)
(0 -0 56.3381)
(0 -0 56.5623)
(0 -0 56.7819)
(0 -0 56.997)
(0 -0 57.2076)
(0 -0 57.4136)
(0 -0 57.615)
(0 -0 57.8118)
(0 -0 58.004)
(0 -0 58.1912)
(0 -0 58.3739)
(0 -0 58.5514)
(0 -0 58.7247)
(0 -0 58.892)
(0 -0 59.0561)
(0 -0 59.2131)
(0 -0 59.3687)
(0 -0 59.5149)
(0 -0 59.6633)
(0 -0 59.7981)
(0 -0 59.9429)
(0 -0 60.0652)
(0 -0 44.2443)
(0 -0 43.9322)
(0 -0 44.1589)
(0 -0 44.4907)
(0 -0 44.9516)
(0 -0 45.4159)
(0 -0 45.8206)
(0 -0 46.1928)
(0 -0 46.5549)
(0 -0 46.9058)
(0 -0 47.2414)
(0 -0 47.5622)
(0 -0 47.8704)
(0 -0 48.1673)
(0 -0 48.4537)
(0 -0 48.7307)
(0 -0 48.9992)
(0 -0 49.2603)
(0 -0 49.5149)
(0 -0 49.7637)
(0 -0 50.007)
(0 -0 50.2454)
(0 -0 50.4789)
(0 -0 50.7077)
(0 -0 50.9321)
(0 -0 51.1522)
(0 -0 51.368)
(0 -0 51.5799)
(0 -0 51.7877)
(0 -0 51.9917)
(0 -0 52.1918)
(0 -0 52.3881)
(0 -0 52.5807)
(0 -0 52.7696)
(0 -0 52.9549)
(0 -0 53.1366)
(0 -0 53.3147)
(0 -0 53.4893)
(0 -0 53.6605)
(0 -0 53.8281)
(0 -0 53.9929)
(0 -0 54.1536)
(0 -0 54.3126)
(0 -0 54.467)
(0 -0 54.6212)
(0 -0 54.7693)
(0 -0 54.9205)
(0 -0 55.0623)
(0 -0 55.2145)
(0 -0 55.3504)
(0 -0 40.7495)
(0 -0 40.4958)
(0 -0 40.7183)
(0 -0 41.0057)
(0 -0 41.4044)
(0 -0 41.8182)
(0 -0 42.1831)
(0 -0 42.5168)
(0 -0 42.8407)
(0 -0 43.1553)
(0 -0 43.4566)
(0 -0 43.7445)
(0 -0 44.0208)
(0 -0 44.2869)
(0 -0 44.5435)
(0 -0 44.7916)
(0 -0 45.0322)
(0 -0 45.2662)
(0 -0 45.4946)
(0 -0 45.7179)
(0 -0 45.9366)
(0 -0 46.151)
(0 -0 46.3613)
(0 -0 46.5675)
(0 -0 46.7698)
(0 -0 46.9683)
(0 -0 47.1633)
(0 -0 47.3546)
(0 -0 47.5425)
(0 -0 47.727)
(0 -0 47.9081)
(0 -0 48.0859)
(0 -0 48.2604)
(0 -0 48.4317)
(0 -0 48.5998)
(0 -0 48.7648)
(0 -0 48.9268)
(0 -0 49.0858)
(0 -0 49.242)
(0 -0 49.3951)
(0 -0 49.5459)
(0 -0 49.6936)
(0 -0 49.8399)
(0 -0 49.9826)
(0 -0 50.1254)
(0 -0 50.2635)
(0 -0 50.4047)
(0 -0 50.5386)
(0 -0 50.6819)
(0 -0 50.8124)
(0 -0 37.5082)
(0 -0 37.301)
(0 -0 37.5153)
(0 -0 37.7646)
(0 -0 38.108)
(0 -0 38.4748)
(0 -0 38.8027)
(0 -0 39.1011)
(0 -0 39.3899)
(0 -0 39.6709)
(0 -0 39.9403)
(0 -0 40.1976)
(0 -0 40.4443)
(0 -0 40.6817)
(0 -0 40.9105)
(0 -0 41.1317)
(0 -0 41.3462)
(0 -0 41.555)
(0 -0 41.7589)
(0 -0 41.9586)
(0 -0 42.1543)
(0 -0 42.3464)
(0 -0 42.5349)
(0 -0 42.72)
(0 -0 42.9017)
(0 -0 43.0802)
(0 -0 43.2556)
(0 -0 43.4278)
(0 -0 43.597)
(0 -0 43.7632)
(0 -0 43.9264)
(0 -0 44.0867)
(0 -0 44.244)
(0 -0 44.3985)
(0 -0 44.5502)
(0 -0 44.6991)
(0 -0 44.8452)
(0 -0 44.9887)
(0 -0 45.1296)
(0 -0 45.2679)
(0 -0 45.404)
(0 -0 45.5375)
(0 -0 45.6696)
(0 -0 45.7988)
(0 -0 45.9278)
(0 -0 46.0531)
(0 -0 46.1808)
(0 -0 46.3026)
(0 -0 46.4326)
(0 -0 46.5519)
(0 -0 34.5097)
(0 -0 34.34)
(0 -0 34.5425)
(0 -0 34.759)
(0 -0 35.0539)
(0 -0 35.3771)
(0 -0 35.6707)
(0 -0 35.9371)
(0 -0 36.1937)
(0 -0 36.4437)
(0 -0 36.6838)
(0 -0 36.9129)
(0 -0 37.1322)
(0 -0 37.3431)
(0 -0 37.5462)
(0 -0 37.7425)
(0 -0 37.9328)
(0 -0 38.1182)
(0 -0 38.2995)
(0 -0 38.4771)
(0 -0 38.6516)
(0 -0 38.823)
(0 -0 38.9914)
(0 -0 39.1569)
(0 -0 39.3196)
(0 -0 39.4795)
(0 -0 39.6367)
(0 -0 39.7912)
(0 -0 39.943)
(0 -0 40.0922)
(0 -0 40.2388)
(0 -0 40.3827)
(0 -0 40.5241)
(0 -0 40.6629)
(0 -0 40.7991)
(0 -0 40.9329)
(0 -0 41.0641)
(0 -0 41.1929)
(0 -0 41.3194)
(0 -0 41.4435)
(0 -0 41.5656)
(0 -0 41.6853)
(0 -0 41.8037)
(0 -0 41.9194)
(0 -0 42.0349)
(0 -0 42.1471)
(0 -0 42.2613)
(0 -0 42.3704)
(0 -0 42.4863)
(0 -0 42.5933)
(0 -0 31.7427)
(0 -0 31.6036)
(0 -0 31.7912)
(0 -0 31.9798)
(0 -0 32.2324)
(0 -0 32.5157)
(0 -0 32.7778)
(0 -0 33.015)
(0 -0 33.2424)
(0 -0 33.4641)
(0 -0 33.6772)
(0 -0 33.8804)
(0 -0 34.0746)
(0 -0 34.2611)
(0 -0 34.4405)
(0 -0 34.6138)
(0 -0 34.7819)
(0 -0 34.9457)
(0 -0 35.1061)
(0 -0 35.2635)
(0 -0 35.4184)
(0 -0 35.5707)
(0 -0 35.7206)
(0 -0 35.8681)
(0 -0 36.0132)
(0 -0 36.1559)
(0 -0 36.2964)
(0 -0 36.4346)
(0 -0 36.5704)
(0 -0 36.704)
(0 -0 36.8352)
(0 -0 36.964)
(0 -0 37.0906)
(0 -0 37.2149)
(0 -0 37.3369)
(0 -0 37.4566)
(0 -0 37.574)
(0 -0 37.6892)
(0 -0 37.8022)
(0 -0 37.9131)
(0 -0 38.022)
(0 -0 38.1289)
(0 -0 38.2343)
(0 -0 38.3374)
(0 -0 38.4401)
(0 -0 38.5399)
(0 -0 38.6411)
(0 -0 38.738)
(0 -0 38.8405)
(0 -0 38.9354)
(0 -0 29.1952)
(0 -0 29.0809)
(0 -0 29.2518)
(0 -0 29.4171)
(0 -0 29.6331)
(0 -0 29.8802)
(0 -0 30.1133)
(0 -0 30.3242)
(0 -0 30.5252)
(0 -0 30.721)
(0 -0 30.9095)
(0 -0 31.089)
(0 -0 31.2603)
(0 -0 31.4244)
(0 -0 31.5822)
(0 -0 31.7345)
(0 -0 31.8821)
(0 -0 32.0262)
(0 -0 32.1674)
(0 -0 32.3063)
(0 -0 32.4431)
(0 -0 32.578)
(0 -0 32.7109)
(0 -0 32.8419)
(0 -0 32.9709)
(0 -0 33.098)
(0 -0 33.2232)
(0 -0 33.3463)
(0 -0 33.4675)
(0 -0 33.5867)
(0 -0 33.7038)
(0 -0 33.8189)
(0 -0 33.9319)
(0 -0 34.0428)
(0 -0 34.1517)
(0 -0 34.2585)
(0 -0 34.3632)
(0 -0 34.4658)
(0 -0 34.5664)
(0 -0 34.665)
(0 -0 34.7619)
(0 -0 34.8568)
(0 -0 34.9502)
(0 -0 35.0417)
(0 -0 35.1324)
(0 -0 35.2207)
(0 -0 35.3099)
(0 -0 35.3953)
(0 -0 35.4853)
(0 -0 35.5688)
(0 -0 26.8545)
(0 -0 26.7605)
(0 -0 26.9138)
(0 -0 27.0595)
(0 -0 27.2442)
(0 -0 27.4589)
(0 -0 27.6654)
(0 -0 27.8527)
(0 -0 28.03)
(0 -0 28.2025)
(0 -0 28.3685)
(0 -0 28.5266)
(0 -0 28.6771)
(0 -0 28.8209)
(0 -0 28.9589)
(0 -0 29.0919)
(0 -0 29.221)
(0 -0 29.347)
(0 -0 29.4707)
(0 -0 29.5927)
(0 -0 29.7132)
(0 -0 29.8322)
(0 -0 29.9497)
(0 -0 30.0656)
(0 -0 30.18)
(0 -0 30.2928)
(0 -0 30.404)
(0 -0 30.5135)
(0 -0 30.6214)
(0 -0 30.7275)
(0 -0 30.8318)
(0 -0 30.9342)
(0 -0 31.0348)
(0 -0 31.1336)
(0 -0 31.2305)
(0 -0 31.3254)
(0 -0 31.4185)
(0 -0 31.5096)
(0 -0 31.5989)
(0 -0 31.6863)
(0 -0 31.772)
(0 -0 31.8559)
(0 -0 31.9384)
(0 -0 32.019)
(0 -0 32.0989)
(0 -0 32.1764)
(0 -0 32.2546)
(0 -0 32.3294)
(0 -0 32.4079)
(0 -0 32.4807)
(0 -0 24.7079)
(0 -0 24.6304)
(0 -0 24.7661)
(0 -0 24.895)
(0 -0 25.0532)
(0 -0 25.2391)
(0 -0 25.4216)
(0 -0 25.5877)
(0 -0 25.7439)
(0 -0 25.8954)
(0 -0 26.0413)
(0 -0 26.18)
(0 -0 26.3116)
(0 -0 26.437)
(0 -0 26.5571)
(0 -0 26.6728)
(0 -0 26.7849)
(0 -0 26.8946)
(0 -0 27.0025)
(0 -0 27.1092)
(0 -0 27.2149)
(0 -0 27.3195)
(0 -0 27.423)
(0 -0 27.5253)
(0 -0 27.6265)
(0 -0 27.7264)
(0 -0 27.8249)
(0 -0 27.9222)
(0 -0 28.0179)
(0 -0 28.1122)
(0 -0 28.2048)
(0 -0 28.2959)
(0 -0 28.3853)
(0 -0 28.473)
(0 -0 28.559)
(0 -0 28.6432)
(0 -0 28.7257)
(0 -0 28.8064)
(0 -0 28.8853)
(0 -0 28.9625)
(0 -0 29.038)
(0 -0 29.1119)
(0 -0 29.1844)
(0 -0 29.2551)
(0 -0 29.3249)
(0 -0 29.3927)
(0 -0 29.4607)
(0 -0 29.5257)
(0 -0 29.5938)
(0 -0 29.6568)
(0 -0 22.7424)
(0 -0 22.6782)
(0 -0 22.797)
(0 -0 22.9116)
(0 -0 23.0472)
(0 -0 23.2078)
(0 -0 23.3687)
(0 -0 23.5159)
(0 -0 23.6535)
(0 -0 23.7864)
(0 -0 23.9142)
(0 -0 24.0354)
(0 -0 24.1501)
(0 -0 24.259)
(0 -0 24.3629)
(0 -0 24.4629)
(0 -0 24.5599)
(0 -0 24.6548)
(0 -0 24.7484)
(0 -0 24.8413)
(0 -0 24.9336)
(0 -0 25.0253)
(0 -0 25.1162)
(0 -0 25.2064)
(0 -0 25.2956)
(0 -0 25.3839)
(0 -0 25.4712)
(0 -0 25.5573)
(0 -0 25.6422)
(0 -0 25.7258)
(0 -0 25.8081)
(0 -0 25.8888)
(0 -0 25.9681)
(0 -0 26.0459)
(0 -0 26.1221)
(0 -0 26.1966)
(0 -0 26.2695)
(0 -0 26.3407)
(0 -0 26.4103)
(0 -0 26.4782)
(0 -0 26.5446)
(0 -0 26.6093)
(0 -0 26.6727)
(0 -0 26.7344)
(0 -0 26.7952)
(0 -0 26.854)
(0 -0 26.9128)
(0 -0 26.9689)
(0 -0 27.0274)
(0 -0 27.0814)
(0 -0 20.9451)
(0 -0 20.8915)
(0 -0 20.9946)
(0 -0 21.0966)
(0 -0 21.2134)
(0 -0 21.352)
(0 -0 21.4935)
(0 -0 21.624)
(0 -0 21.7452)
(0 -0 21.8615)
(0 -0 21.9731)
(0 -0 22.0789)
(0 -0 22.1784)
(0 -0 22.2725)
(0 -0 22.3619)
(0 -0 22.4478)
(0 -0 22.5311)
(0 -0 22.6128)
(0 -0 22.6937)
(0 -0 22.7743)
(0 -0 22.8546)
(0 -0 22.9347)
(0 -0 23.0144)
(0 -0 23.0937)
(0 -0 23.1723)
(0 -0 23.2502)
(0 -0 23.3274)
(0 -0 23.4036)
(0 -0 23.4788)
(0 -0 23.5529)
(0 -0 23.6258)
(0 -0 23.6974)
(0 -0 23.7677)
(0 -0 23.8365)
(0 -0 23.9039)
(0 -0 23.9698)
(0 -0 24.0341)
(0 -0 24.0968)
(0 -0 24.158)
(0 -0 24.2176)
(0 -0 24.2756)
(0 -0 24.3322)
(0 -0 24.3873)
(0 -0 24.4409)
(0 -0 24.4934)
(0 -0 24.5441)
(0 -0 24.5946)
(0 -0 24.6427)
(0 -0 24.6925)
(0 -0 24.7383)
(0 -0 19.303)
(0 -0 19.258)
(0 -0 19.3468)
(0 -0 19.4377)
(0 -0 19.5387)
(0 -0 19.6585)
(0 -0 19.7827)
(0 -0 19.8984)
(0 -0 20.0052)
(0 -0 20.1069)
(0 -0 20.2043)
(0 -0 20.2962)
(0 -0 20.3823)
(0 -0 20.4631)
(0 -0 20.5397)
(0 -0 20.613)
(0 -0 20.6841)
(0 -0 20.754)
(0 -0 20.8235)
(0 -0 20.893)
(0 -0 20.9628)
(0 -0 21.0326)
(0 -0 21.1023)
(0 -0 21.1719)
(0 -0 21.2411)
(0 -0 21.3098)
(0 -0 21.378)
(0 -0 21.4455)
(0 -0 21.5121)
(0 -0 21.5778)
(0 -0 21.6424)
(0 -0 21.7058)
(0 -0 21.7681)
(0 -0 21.829)
(0 -0 21.8885)
(0 -0 21.9467)
(0 -0 22.0033)
(0 -0 22.0585)
(0 -0 22.1121)
(0 -0 22.1642)
(0 -0 22.2149)
(0 -0 22.264)
(0 -0 22.3118)
(0 -0 22.3581)
(0 -0 22.4032)
(0 -0 22.4466)
(0 -0 22.4896)
(0 -0 22.5303)
(0 -0 22.5724)
(0 -0 22.6109)
(0 -0 17.8037)
(0 -0 17.7654)
(0 -0 17.8415)
(0 -0 17.9226)
(0 -0 18.0106)
(0 -0 18.1142)
(0 -0 18.2233)
(0 -0 18.3258)
(0 -0 18.4201)
(0 -0 18.5091)
(0 -0 18.5938)
(0 -0 18.6735)
(0 -0 18.7477)
(0 -0 18.8168)
(0 -0 18.8819)
(0 -0 18.9441)
(0 -0 19.0043)
(0 -0 19.0637)
(0 -0 19.1231)
(0 -0 19.1828)
(0 -0 19.2431)
(0 -0 19.3038)
(0 -0 19.3648)
(0 -0 19.4257)
(0 -0 19.4866)
(0 -0 19.5473)
(0 -0 19.6076)
(0 -0 19.6673)
(0 -0 19.7264)
(0 -0 19.7846)
(0 -0 19.8419)
(0 -0 19.8982)
(0 -0 19.9533)
(0 -0 20.0073)
(0 -0 20.0599)
(0 -0 20.1112)
(0 -0 20.161)
(0 -0 20.2095)
(0 -0 20.2564)
(0 -0 20.3019)
(0 -0 20.3459)
(0 -0 20.3885)
(0 -0 20.4297)
(0 -0 20.4695)
(0 -0 20.508)
(0 -0 20.5448)
(0 -0 20.5811)
(0 -0 20.6152)
(0 -0 20.6503)
(0 -0 20.6822)
(0 -0 16.4349)
(0 -0 16.402)
(0 -0 16.4671)
(0 -0 16.5395)
(0 -0 16.6166)
(0 -0 16.7066)
(0 -0 16.8024)
(0 -0 16.8933)
(0 -0 16.9767)
(0 -0 17.0547)
(0 -0 17.1284)
(0 -0 17.1973)
(0 -0 17.2609)
(0 -0 17.3197)
(0 -0 17.3747)
(0 -0 17.4269)
(0 -0 17.4775)
(0 -0 17.5276)
(0 -0 17.578)
(0 -0 17.6292)
(0 -0 17.6811)
(0 -0 17.7338)
(0 -0 17.787)
(0 -0 17.8405)
(0 -0 17.894)
(0 -0 17.9476)
(0 -0 18.001)
(0 -0 18.0539)
(0 -0 18.1064)
(0 -0 18.1581)
(0 -0 18.209)
(0 -0 18.259)
(0 -0 18.3079)
(0 -0 18.3557)
(0 -0 18.4022)
(0 -0 18.4475)
(0 -0 18.4913)
(0 -0 18.5338)
(0 -0 18.5748)
(0 -0 18.6145)
(0 -0 18.6526)
(0 -0 18.6894)
(0 -0 18.7248)
(0 -0 18.7587)
(0 -0 18.7913)
(0 -0 18.8223)
(0 -0 18.8526)
(0 -0 18.8809)
(0 -0 18.9097)
(0 -0 18.9357)
(0 -0 15.1852)
(0 -0 15.1566)
(0 -0 15.2122)
(0 -0 15.2768)
(0 -0 15.3449)
(0 -0 15.4235)
(0 -0 15.5078)
(0 -0 15.5887)
(0 -0 15.6626)
(0 -0 15.731)
(0 -0 15.7951)
(0 -0 15.8545)
(0 -0 15.9088)
(0 -0 15.9586)
(0 -0 16.0045)
(0 -0 16.048)
(0 -0 16.0901)
(0 -0 16.132)
(0 -0 16.1745)
(0 -0 16.218)
(0 -0 16.2627)
(0 -0 16.3083)