/*--------------------------------*- C++ -*----------------------------------*\
  =========                 |
  \\      /  F ield         | OpenFOAM: The Open Source CFD Toolbox
   \\    /   O peration     | Website:  https://openfoam.org
    \\  /    A nd           | Version:  7
     \\/     M anipulation  |
\*---------------------------------------------------------------------------*/
FoamFile
{
    version     2.0;
    format      ascii;
    class       volVectorField;
    location    "0.38";
    object      wallShearStress;
}
// * * * * * * * * * * * * * * * * * * * * * * * * * * * * * * * * * * * * * //

dimensions      [0 2 -2 0 0 0 0];

internalField   uniform (0 0 0);

boundaryField
{
    velocityInlet
    {
        type            calculated;
        value           uniform (0 0 0);
    }
    pressureOutlet
    {
        type            calculated;
        value           uniform (0 0 0);
    }
    fixedWalls
    {
        type            calculated;
        value           nonuniform List<vector> 
100
(
(0.00138377 0.000244909 0)
(-0.00412161 0.000250767 0)
(-0.00338794 -4.19608e-05 0)
(-0.00357486 5.19573e-05 0)
(-0.00360925 4.37678e-05 0)
(-0.00359829 3.47747e-05 0)
(-0.00359489 2.85314e-05 0)
(-0.00352223 2.51976e-06 0)
(-0.00327222 -3.30653e-05 0)
(-0.00319747 1.8861e-05 0)
(-0.00434439 0.000241543 0)
(-0.00687524 0.000426608 0)
(-0.00882407 0.000306745 0)
(-0.00703554 -0.000469582 0)
(0.000162171 -0.00132118 0)
(0.00782024 -0.0011406 0)
(0.0100399 -0.00024368 0)
(0.00718449 0.000493107 0)
(0.00232387 0.000653572 0)
(-0.00199109 0.000479045 0)
(-0.00455394 0.000242504 0)
(-0.00561342 8.47485e-05 0)
(-0.00579431 1.01411e-05 0)
(-0.00558115 -2.32175e-05 0)
(-0.00522379 -3.49279e-05 0)
(-0.0048225 -3.96628e-05 0)
(-0.00440872 -4.32268e-05 0)
(-0.00399376 -4.61756e-05 0)
(-0.00360224 -4.49642e-05 0)
(-0.00328099 -3.59098e-05 0)
(-0.00307856 -2.00892e-05 0)
(-0.00302536 -4.17357e-07 0)
(-0.00311958 2.10063e-05 0)
(-0.0032847 2.88518e-05 0)
(-0.00334031 4.82443e-06 0)
(-0.00311827 -4.16914e-05 0)
(-0.00273711 -6.17035e-05 0)
(-0.00264262 -1.46313e-05 0)
(-0.00321944 7.73738e-05 0)
(-0.00438658 0.000146124 0)
(-0.00577018 0.000173324 0)
(-0.00704742 0.000175616 0)
(-0.00775588 0.000136591 0)
(-0.00717381 -4.87771e-05 0)
(-0.00464201 -0.000324132 0)
(-0.000413545 -0.000549054 0)
(0.00383501 -0.000528977 0)
(0.0063908 -0.00030309 0)
(0.00668044 -1.50873e-05 0)
(0.00512363 0.000188744 0)
(0.00277892 0.000252163 0)
(0.000533661 0.000224073 0)
(-0.00118539 0.000162286 0)
(-0.00230559 0.000100161 0)
(-0.0029527 5.51489e-05 0)
(-0.00328957 2.72194e-05 0)
(-0.00345061 1.20111e-05 0)
(-0.00353119 5.70723e-06 0)
(-0.00359855 6.33979e-06 0)
(-0.0036981 1.18442e-05 0)
(-0.00384743 1.88787e-05 0)
(-0.00402852 2.33729e-05 0)
(-0.00419644 2.27677e-05 0)
(-0.00430469 1.86043e-05 0)
(-0.00432581 1.3606e-05 0)
(-0.00424324 6.82203e-06 0)
(-0.00402063 -4.85879e-06 0)
(-0.00358794 -2.63127e-05 0)
(-0.00286763 -5.8757e-05 0)
(-0.00182894 -9.80983e-05 0)
(-0.000511043 -0.000134625 0)
(0.000913247 -0.000146141 0)
(0.00213063 -0.000127104 0)
(0.00283809 -7.24319e-05 0)
(0.00287165 -4.40574e-06 0)
(0.00229242 5.4172e-05 0)
(0.00132598 8.6777e-05 0)
(0.00023579 9.29e-05 0)
(-0.000789263 8.49965e-05 0)
(-0.00164119 6.87112e-05 0)
(-0.00228263 5.08462e-05 0)
(-0.00272455 3.49045e-05 0)
(-0.00300029 2.21227e-05 0)
(-0.00314579 1.24123e-05 0)
(-0.00319116 5.57047e-06 0)
(-0.00315705 -6.42006e-07 0)
(-0.00306117 -5.34645e-06 0)
(-0.00291505 -8.99942e-06 0)
(-0.00273151 -1.17697e-05 0)
(-0.00251147 -1.40838e-05 0)
(-0.00226015 -1.64906e-05 0)
(-0.00195959 -2.00954e-05 0)
(-0.00161 -2.49011e-05 0)
(-0.00120419 -2.97288e-05 0)
(-0.000763775 -3.28943e-05 0)
(-0.000347345 -3.5654e-05 0)
(0.000112152 -3.37054e-05 0)
(0.000324838 -2.76503e-05 0)
(0.000671654 -1.4237e-05 0)
(0.000156013 2.05124e-05 0)
)
;
    }
    bottomWall
    {
        type            calculated;
        value           nonuniform List<vector> 
800
(
(-0.0353512 0.00216563 0)
(-0.0160362 0.000524973 0)
(-0.01059 0.000100564 0)
(-0.008455 3.45978e-05 0)
(-0.00749076 1.96913e-05 0)
(-0.00685492 1.60198e-05 0)
(-0.00634598 1.32197e-05 0)
(-0.00593461 1.07703e-05 0)
(-0.00559987 8.96982e-06 0)
(-0.00532101 7.67038e-06 0)
(-0.00508345 6.68587e-06 0)
(-0.00487778 5.90805e-06 0)
(-0.00469753 5.27797e-06 0)
(-0.00453796 4.75876e-06 0)
(-0.0043955 4.32481e-06 0)
(-0.00426737 3.95761e-06 0)
(-0.00415138 3.6435e-06 0)
(-0.00404579 3.3722e-06 0)
(-0.00394918 3.1359e-06 0)
(-0.0038604 2.92854e-06 0)
(-0.00377848 2.74535e-06 0)
(-0.00370261 2.58253e-06 0)
(-0.00363213 2.43702e-06 0)
(-0.00356645 2.30633e-06 0)
(-0.00350507 2.18838e-06 0)
(-0.00344758 2.08149e-06 0)
(-0.00339359 1.98424e-06 0)
(-0.0033428 1.89544e-06 0)
(-0.0032949 1.81409e-06 0)
(-0.00324966 1.73932e-06 0)
(-0.00320686 1.67041e-06 0)
(-0.00316629 1.60674e-06 0)
(-0.00312779 1.54775e-06 0)
(-0.00309119 1.49298e-06 0)
(-0.00305636 1.442e-06 0)
(-0.00302316 1.39446e-06 0)
(-0.0029915 1.35005e-06 0)
(-0.00296125 1.30847e-06 0)
(-0.00293233 1.26946e-06 0)
(-0.00290465 1.23281e-06 0)
(-0.00287813 1.19833e-06 0)
(-0.00285271 1.16582e-06 0)
(-0.00282831 1.13516e-06 0)
(-0.00280488 1.10612e-06 0)
(-0.00278235 1.07877e-06 0)
(-0.00276069 1.0526e-06 0)
(-0.00273983 1.02826e-06 0)
(-0.00271975 1.00429e-06 0)
(-0.00270038 9.82755e-07 0)
(-0.00268172 9.5976e-07 0)
(-0.00266612 9.40913e-07 0)
(-0.00265323 9.30205e-07 0)
(-0.00264051 9.16476e-07 0)
(-0.00262798 9.01849e-07 0)
(-0.00261565 8.88138e-07 0)
(-0.0026035 8.75083e-07 0)
(-0.00259153 8.62329e-07 0)
(-0.00257973 8.49837e-07 0)
(-0.0025681 8.37634e-07 0)
(-0.00255664 8.25715e-07 0)
(-0.00254534 8.14064e-07 0)
(-0.0025342 8.02667e-07 0)
(-0.00252321 7.91516e-07 0)
(-0.00251238 7.80602e-07 0)
(-0.00250169 7.69918e-07 0)
(-0.00249115 7.59458e-07 0)
(-0.00248076 7.49215e-07 0)
(-0.0024705 7.39182e-07 0)
(-0.00246038 7.29355e-07 0)
(-0.00245039 7.19726e-07 0)
(-0.00244053 7.1029e-07 0)
(-0.00243081 7.01043e-07 0)
(-0.00242121 6.91979e-07 0)
(-0.00241173 6.83092e-07 0)
(-0.00240237 6.74379e-07 0)
(-0.00239313 6.65834e-07 0)
(-0.00238401 6.57452e-07 0)
(-0.002375 6.49229e-07 0)
(-0.00236611 6.41161e-07 0)
(-0.00235732 6.33244e-07 0)
(-0.00234865 6.25474e-07 0)
(-0.00234007 6.17846e-07 0)
(-0.00233161 6.10358e-07 0)
(-0.00232324 6.03007e-07 0)
(-0.00231497 5.95788e-07 0)
(-0.00230681 5.88699e-07 0)
(-0.00229874 5.81736e-07 0)
(-0.00229076 5.74898e-07 0)
(-0.00228288 5.68181e-07 0)
(-0.00227509 5.61583e-07 0)
(-0.00226738 5.551e-07 0)
(-0.00225977 5.48731e-07 0)
(-0.00225225 5.42473e-07 0)
(-0.0022448 5.36324e-07 0)
(-0.00223745 5.30281e-07 0)
(-0.00223017 5.24342e-07 0)
(-0.00222298 5.18504e-07 0)
(-0.00221586 5.12766e-07 0)
(-0.00220883 5.07125e-07 0)
(-0.00220187 5.0158e-07 0)
(-0.00219498 4.96127e-07 0)
(-0.00218817 4.90766e-07 0)
(-0.00218144 4.85492e-07 0)
(-0.00217477 4.80306e-07 0)
(-0.00216818 4.75204e-07 0)
(-0.00216165 4.70185e-07 0)
(-0.0021552 4.65246e-07 0)
(-0.00214881 4.60386e-07 0)
(-0.00214249 4.55603e-07 0)
(-0.00213623 4.50896e-07 0)
(-0.00213004 4.46261e-07 0)
(-0.00212391 4.41698e-07 0)
(-0.00211784 4.37205e-07 0)
(-0.00211183 4.32781e-07 0)
(-0.00210589 4.28424e-07 0)
(-0.0021 4.24133e-07 0)
(-0.00209417 4.19906e-07 0)
(-0.0020884 4.15743e-07 0)
(-0.00208269 4.11642e-07 0)
(-0.00207703 4.07603e-07 0)
(-0.00207143 4.03623e-07 0)
(-0.00206588 3.99704e-07 0)
(-0.00206039 3.95842e-07 0)
(-0.00205495 3.92039e-07 0)
(-0.00204956 3.88292e-07 0)
(-0.00204422 3.84602e-07 0)
(-0.00203893 3.80966e-07 0)
(-0.00203369 3.77385e-07 0)
(-0.0020285 3.73857e-07 0)
(-0.00202336 3.70383e-07 0)
(-0.00201826 3.66961e-07 0)
(-0.00201321 3.63591e-07 0)
(-0.00200821 3.60272e-07 0)
(-0.00200325 3.57003e-07 0)
(-0.00199834 3.53785e-07 0)
(-0.00199347 3.50616e-07 0)
(-0.00198864 3.47496e-07 0)
(-0.00198386 3.44422e-07 0)
(-0.00197912 3.41399e-07 0)
(-0.00197442 3.38415e-07 0)
(-0.00196976 3.35489e-07 0)
(-0.00196514 3.3259e-07 0)
(-0.00196055 3.29763e-07 0)
(-0.00195601 3.2694e-07 0)
(-0.00195151 3.24221e-07 0)
(-0.00194704 3.21455e-07 0)
(-0.00194261 3.18858e-07 0)
(-0.00193822 3.16114e-07 0)
(-0.00193386 3.13629e-07 0)
(-0.00192954 3.10825e-07 0)
(-0.00192592 3.08329e-07 0)
(-0.00192295 3.0704e-07 0)
(-0.00191999 3.0549e-07 0)
(-0.00191701 3.03705e-07 0)
(-0.00191403 3.01926e-07 0)
(-0.00191105 3.00219e-07 0)
(-0.00190807 2.98525e-07 0)
(-0.00190508 2.96843e-07 0)
(-0.00190208 2.95168e-07 0)
(-0.00189909 2.93496e-07 0)
(-0.00189609 2.91836e-07 0)
(-0.00189308 2.90184e-07 0)
(-0.00189007 2.88529e-07 0)
(-0.00188706 2.86897e-07 0)
(-0.00188404 2.8526e-07 0)
(-0.00188102 2.83634e-07 0)
(-0.001878 2.82015e-07 0)
(-0.00187497 2.80404e-07 0)
(-0.00187193 2.78801e-07 0)
(-0.0018689 2.77202e-07 0)
(-0.00186586 2.75614e-07 0)
(-0.00186281 2.74033e-07 0)
(-0.00185977 2.72451e-07 0)
(-0.00185671 2.70889e-07 0)
(-0.00185366 2.69324e-07 0)
(-0.0018506 2.67772e-07 0)
(-0.00184754 2.6623e-07 0)
(-0.00184447 2.64691e-07 0)
(-0.0018414 2.63165e-07 0)
(-0.00183833 2.61646e-07 0)
(-0.00183525 2.60126e-07 0)
(-0.00183217 2.58626e-07 0)
(-0.00182909 2.57126e-07 0)
(-0.001826 2.55637e-07 0)
(-0.00182291 2.54159e-07 0)
(-0.00181981 2.52683e-07 0)
(-0.00181671 2.51221e-07 0)
(-0.00181361 2.49767e-07 0)
(-0.0018105 2.48313e-07 0)
(-0.00180739 2.46883e-07 0)
(-0.00180428 2.45449e-07 0)
(-0.00180116 2.44034e-07 0)
(-0.00179804 2.42628e-07 0)
(-0.00179492 2.41229e-07 0)
(-0.00179179 2.3984e-07 0)
(-0.00178865 2.38459e-07 0)
(-0.00178552 2.37097e-07 0)
(-0.00178238 2.35739e-07 0)
(-0.00177924 2.34385e-07 0)
(-0.00177609 2.33058e-07 0)
(-0.00177294 2.31732e-07 0)
(-0.00176978 2.30422e-07 0)
(-0.00176662 2.29124e-07 0)
(-0.00176346 2.27831e-07 0)
(-0.00176029 2.26556e-07 0)
(-0.00175712 2.25289e-07 0)
(-0.00175394 2.2403e-07 0)
(-0.00175076 2.22794e-07 0)
(-0.00174758 2.21557e-07 0)
(-0.00174439 2.20342e-07 0)
(-0.0017412 2.19139e-07 0)
(-0.001738 2.17942e-07 0)
(-0.0017348 2.16767e-07 0)
(-0.00173159 2.15589e-07 0)
(-0.00172838 2.14414e-07 0)
(-0.00172516 2.13282e-07 0)
(-0.00172194 2.12142e-07 0)
(-0.00171871 2.11023e-07 0)
(-0.00171548 2.09908e-07 0)
(-0.00171225 2.08816e-07 0)
(-0.00170901 2.07733e-07 0)
(-0.00170576 2.06662e-07 0)
(-0.00170251 2.05605e-07 0)
(-0.00169925 2.04557e-07 0)
(-0.00169599 2.03504e-07 0)
(-0.00169272 2.02516e-07 0)
(-0.00168944 2.0148e-07 0)
(-0.00168616 2.00552e-07 0)
(-0.00168288 1.99506e-07 0)
(-0.00167958 1.98683e-07 0)
(-0.00167629 1.97569e-07 0)
(-0.00167297 1.9698e-07 0)
(-0.00166967 1.9556e-07 0)
(-0.00166633 1.95544e-07 0)
(-0.00166303 1.93425e-07 0)
(-0.00165965 1.94669e-07 0)
(-0.00165636 1.90756e-07 0)
(-0.00165292 1.94915e-07 0)
(-0.00164968 1.86738e-07 0)
(-0.00164612 1.97566e-07 0)
(-0.00164301 1.79615e-07 0)
(-0.00163919 2.05251e-07 0)
(-0.00163638 1.65843e-07 0)
(-0.00163209 2.2306e-07 0)
(-0.00162986 1.38778e-07 0)
(-0.00162472 2.59492e-07 0)
(-0.00162352 8.75912e-08 0)
(-0.00161704 3.24025e-07 0)
(-0.00161733 6.74374e-09 0)
(-0.00160911 3.56295e-07 0)
(-0.0353512 -0.00216562 0)
(-0.0160365 -0.000524962 0)
(-0.0105906 -0.000100553 0)
(-0.00845585 -3.45893e-05 0)
(-0.00749176 -1.96847e-05 0)
(-0.006856 -1.60147e-05 0)
(-0.00634709 -1.32153e-05 0)
(-0.00593576 -1.0766e-05 0)
(-0.00560106 -8.96516e-06 0)
(-0.00532227 -7.66496e-06 0)
(-0.00508481 -6.67954e-06 0)
(-0.00487927 -5.90084e-06 0)
(-0.00469917 -5.27001e-06 0)
(-0.00453977 -4.75018e-06 0)
(-0.00439748 -4.31574e-06 0)
(-0.00426954 -3.94812e-06 0)
(-0.00415374 -3.63361e-06 0)
(-0.00404836 -3.3619e-06 0)
(-0.00395197 -3.12516e-06 0)
(-0.00386342 -2.91731e-06 0)
(-0.00378175 -2.73362e-06 0)
(-0.00370614 -2.57031e-06 0)
(-0.00363593 -2.42438e-06 0)
(-0.00357053 -2.29338e-06 0)
(-0.00350945 -2.17533e-06 0)
(-0.00345224 -2.0686e-06 0)
(-0.00339854 -1.97183e-06 0)
(-0.003348 -1.88395e-06 0)
(-0.00330035 -1.80391e-06 0)
(-0.00325531 -1.73114e-06 0)
(-0.00321267 -1.66464e-06 0)
(-0.00317219 -1.60446e-06 0)
(-0.00313371 -1.54926e-06 0)
(-0.00309702 -1.50009e-06 0)
(-0.003062 -1.45454e-06 0)
(-0.00302846 -1.41551e-06 0)
(-0.00299626 -1.37843e-06 0)
(-0.00296534 -1.34876e-06 0)
(-0.00293537 -1.31987e-06 0)
(-0.00290669 -1.29679e-06 0)
(-0.00287823 -1.2794e-06 0)
(-0.00285177 -1.25075e-06 0)
(-0.00282363 -1.26186e-06 0)
(-0.0028004 -1.18255e-06 0)
(-0.00277012 -1.28575e-06 0)
(-0.00275369 -1.00078e-06 0)
(-0.00271597 -1.45134e-06 0)
(-0.00271377 -1.34847e-07 0)
(-0.00267331 -6.62835e-06 0)
(-0.0024754 0.000180348 0)
(4.12408e-08 3.33098e-06 0)
(-2.67757e-06 2.07229e-05 0)
(-4.33371e-06 4.22866e-05 0)
(-4.28112e-06 7.03558e-05 0)
(-2.6562e-06 0.000104678 0)
(-8.14388e-06 0.000151292 0)
(-4.28965e-05 0.000237027 0)
(-0.000135087 0.000406734 0)
(-0.000256396 0.000694808 0)
(-0.000318459 0.00105782 0)
(-0.000289743 0.00138406 0)
(-0.000217273 0.0016132 0)
(-0.000146219 0.00175604 0)
(-8.46171e-05 0.00183056 0)
(-2.65497e-05 0.00184482 0)
(3.30545e-05 0.00179836 0)
(9.03529e-05 0.00169038 0)
(0.000143148 0.0015253 0)
(0.000189959 0.00130795 0)
(0.000228611 0.00104875 0)
(0.000259446 0.000760815 0)
(0.000286047 0.000454909 0)
(0.000301274 0.000119093 0)
(0.000294972 -0.000220574 0)
(0.000283029 -0.000540408 0)
(0.000268119 -0.000845835 0)
(0.000249666 -0.00113371 0)
(0.000228453 -0.00140029 0)
(0.00020554 -0.00164341 0)
(0.000181875 -0.00186222 0)
(0.0001582 -0.00205681 0)
(0.000135048 -0.0022279 0)
(0.000112766 -0.00237658 0)
(9.1544e-05 -0.00250416 0)
(7.14552e-05 -0.00261204 0)
(5.24738e-05 -0.0027016 0)
(3.45288e-05 -0.00277412 0)
(1.74936e-05 -0.00283083 0)
(1.21692e-06 -0.00287268 0)
(-1.44847e-05 -0.00290068 0)
(-2.98503e-05 -0.00291546 0)
(-4.53143e-05 -0.00291773 0)
(-6.10252e-05 -0.00290734 0)
(-7.68338e-05 -0.00288474 0)
(-9.27305e-05 -0.00285032 0)
(-0.00010876 -0.00280427 0)
(-0.000125021 -0.00274676 0)
(-0.000141637 -0.00267787 0)
(-0.000158695 -0.00259763 0)
(-0.000176245 -0.00250603 0)
(-0.000194257 -0.002403 0)
(-0.000212655 -0.00228851 0)
(-0.00023126 -0.00216244 0)
(-0.000249592 -0.0020249 0)
(-0.000267112 -0.00187589 0)
(-0.000282703 -0.00171582 0)
(-0.00029539 -0.00154556 0)
(-0.0003035 -0.00136551 0)
(-0.000304448 -0.00117919 0)
(-0.000298497 -0.00098716 0)
(-0.000278958 -0.000793248 0)
(-0.000246788 -0.000613808 0)
(-0.000226266 -0.000441642 0)
(-0.000202824 -0.000256813 0)
(-0.000127098 -7.38538e-05 0)
(2.60588e-07 6.95786e-05 0)
(0.000140962 0.000154828 0)
(0.000257986 0.000179709 0)
(0.000327733 0.00016143 0)
(0.000339252 0.000118033 0)
(0.000305742 6.96716e-05 0)
(0.000238988 2.36031e-05 0)
(0.000153655 -1.27929e-05 0)
(6.81839e-05 -3.68337e-05 0)
(-4.55854e-06 -4.66741e-05 0)
(-5.5527e-05 -4.21016e-05 0)
(-8.18915e-05 -2.83246e-05 0)
(-8.82727e-05 -8.92125e-06 0)
(-8.70998e-05 1.4749e-05 0)
(-8.63098e-05 4.49983e-05 0)
(-9.16107e-05 8.4661e-05 0)
(-0.000105344 0.000136491 0)
(-0.00012642 0.000202711 0)
(-0.000151478 0.000283988 0)
(-0.000176046 0.000378575 0)
(-0.000196311 0.000482985 0)
(-0.000209397 0.000592752 0)
(-0.000213548 0.00070293 0)
(-0.000208207 0.000808619 0)
(-0.000193877 0.000905365 0)
(-0.000171883 0.000989491 0)
(-0.000144138 0.00105839 0)
(-0.000112762 0.00111062 0)
(-7.9899e-05 0.0011456 0)
(-4.76548e-05 0.00116387 0)
(-1.77094e-05 0.00116678 0)
(9.03229e-06 0.00115637 0)
(3.24484e-05 0.00113457 0)
(5.2419e-05 0.00110322 0)
(6.90644e-05 0.00106426 0)
(8.27389e-05 0.00101945 0)
(9.39363e-05 0.000970273 0)
(0.000103213 0.000917858 0)
(0.000111109 0.000862982 0)
(0.000118065 0.000806097 0)
(0.000124373 0.000747409 0)
(0.00013015 0.000686976 0)
(0.000135351 0.000624802 0)
(0.000139787 0.0005609 0)
(0.000143131 0.000495351 0)
(0.000144927 0.000428403 0)
(0.000144685 0.000360546 0)
(0.000141928 0.000292452 0)
(0.000136181 0.000225182 0)
(0.000127363 0.000160099 0)
(0.000115757 9.88387e-05 0)
(0.00010211 4.31932e-05 0)
(8.79492e-05 -4.97473e-06 0)
(7.5306e-05 -4.48894e-05 0)
(6.57814e-05 -7.71468e-05 0)
(6.02031e-05 -0.000102805 0)
(5.89134e-05 -0.000123359 0)
(6.16181e-05 -0.000140315 0)
(6.77412e-05 -0.00015509 0)
(7.66514e-05 -0.000169019 0)
(8.76944e-05 -0.000183501 0)
(9.99821e-05 -0.000200094 0)
(0.000112009 -0.000220313 0)
(0.000121426 -0.000244959 0)
(0.000125295 -0.000273232 0)
(0.000121192 -0.000302231 0)
(0.000108379 -0.000327804 0)
(8.79896e-05 -0.000346284 0)
(6.24655e-05 -0.000355458 0)
(3.47653e-05 -0.000354532 0)
(7.70197e-06 -0.000343982 0)
(-1.64881e-05 -0.000325341 0)
(-3.62971e-05 -0.000301208 0)
(-5.14808e-05 -0.000274361 0)
(-6.27386e-05 -0.000246804 0)
(-7.10523e-05 -0.000219505 0)
(-7.72038e-05 -0.000192742 0)
(-8.16338e-05 -0.00016657 0)
(-8.4524e-05 -0.000141081 0)
(-8.59284e-05 -0.00011646 0)
(-8.58536e-05 -9.29533e-05 0)
(-8.43107e-05 -7.0842e-05 0)
(-8.13418e-05 -5.03983e-05 0)
(-7.70108e-05 -3.18636e-05 0)
(-7.14008e-05 -1.5451e-05 0)
(-6.46189e-05 -1.34273e-06 0)
(-5.67823e-05 1.03185e-05 0)
(-4.80089e-05 1.94167e-05 0)
(-3.84338e-05 2.58629e-05 0)
(-2.81982e-05 2.9615e-05 0)
(-1.73964e-05 3.06427e-05 0)
(-6.15746e-06 2.88844e-05 0)
(5.32445e-06 2.43381e-05 0)
(1.68783e-05 1.70646e-05 0)
(2.83406e-05 7.13789e-06 0)
(3.95378e-05 -5.33131e-06 0)
(5.03101e-05 -2.02093e-05 0)
(6.04878e-05 -3.73399e-05 0)
(6.98949e-05 -5.6532e-05 0)
(7.83623e-05 -7.75696e-05 0)
(8.57255e-05 -0.000100211 0)
(9.18274e-05 -0.000124186 0)
(9.65229e-05 -0.000149201 0)
(9.96827e-05 -0.000174939 0)
(0.000101197 -0.000201064 0)
(0.000100981 -0.000227225 0)
(9.89756e-05 -0.000253062 0)
(9.51538e-05 -0.00027821 0)
(8.95216e-05 -0.000302306 0)
(8.21195e-05 -0.000324995 0)
(7.3023e-05 -0.000345938 0)
(6.23425e-05 -0.000364817 0)
(5.02215e-05 -0.000381338 0)
(3.68343e-05 -0.000395241 0)
(2.23824e-05 -0.000406296 0)
(7.09117e-06 -0.000414306 0)
(-8.8011e-06 -0.000419098 0)
(-2.49692e-05 -0.000420495 0)
(-4.09059e-05 -0.000418393 0)
(-5.62514e-05 -0.000412833 0)
(-7.07343e-05 -0.000403809 0)
(-8.39116e-05 -0.000391387 0)
(-9.53097e-05 -0.000375704 0)
(-0.000104472 -0.000356969 0)
(-0.000110966 -0.000335524 0)
(-0.000114434 -0.00031197 0)
(-0.000114712 -0.000287439 0)
(-0.000112143 -0.000264133 0)
(-0.00010819 -0.000246292 0)
(-0.00010656 -0.000241758 0)
(-0.000115194 -0.000264256 0)
(-0.000149925 -0.00033498 0)
(-0.000240499 -0.000481531 0)
(-0.000429217 -0.00072814 0)
(-0.000714505 -0.00105703 0)
(6e-06 5.7986e-06 0)
(-1.29096e-05 2.58563e-05 0)
(-4.86544e-05 3.34499e-05 0)
(-8.45806e-05 3.44955e-05 0)
(-0.000121273 3.24707e-05 0)
(-0.000156106 2.69118e-05 0)
(-0.00018577 1.78714e-05 0)
(-0.00020705 5.90349e-06 0)
(-0.000217798 -7.70703e-06 0)
(-0.000217482 -2.20507e-05 0)
(-0.000206548 -3.7257e-05 0)
(-0.000184845 -5.50541e-05 0)
(-0.000149374 -7.76287e-05 0)
(-9.55077e-05 -0.000105598 0)
(-1.73566e-05 -0.000138425 0)
(9.05865e-05 -0.000173561 0)
(0.000231481 -0.00019916 0)
(0.000402405 -0.000190474 0)
(0.000563702 -0.000116553 0)
(0.000648493 -2.24642e-05 0)
(0.000667671 2.06592e-05 0)
(0.000658725 3.90825e-05 0)
(0.00061627 8.23115e-05 0)
(0.000515835 0.000147399 0)
(0.000349052 0.000198071 0)
(0.00015778 0.000184385 0)
(2.52479e-05 0.000112383 0)
(-2.96913e-05 4.01944e-05 0)
(-2.63319e-05 -1.85861e-05 0)
(1.32046e-05 -4.00481e-05 0)
(1.6132e-05 -1.17935e-05 0)
(-1.23969e-05 3.69897e-05 0)
(1.72084e-05 0.000150853 0)
(8.3028e-05 0.000318601 0)
(0.000104036 0.000322488 0)
(0.000232965 -0.000133655 0)
(0.000647679 -0.000754947 0)
(0.00143899 -0.000902937 0)
(0.00192806 -0.000527956 0)
(0.00206625 -0.000369139 0)
(0.00228971 -0.000347544 0)
(0.00247766 -0.000247367 0)
(0.00259354 -0.000201764 0)
(0.0027072 -0.000167875 0)
(0.00278681 -0.000126114 0)
(0.00284108 -9.78278e-05 0)
(0.00287383 -6.47293e-05 0)
(0.00287618 -3.1439e-05 0)
(0.00285009 3.48309e-06 0)
(0.00279205 4.41441e-05 0)
(0.0026971 8.8491e-05 0)
(0.00256381 0.000136234 0)
(0.00239029 0.000185046 0)
(0.00217858 0.000231415 0)
(0.001933 0.000272901 0)
(0.00165994 0.000307761 0)
(0.0013665 0.000336102 0)
(0.00105905 0.000359965 0)
(0.000741685 0.000382871 0)
(0.000412364 0.000409103 0)
(5.56413e-05 0.00043707 0)
(-0.000325561 0.000445722 0)
(-0.000683137 0.00043084 0)
(-0.00101794 0.000413039 0)
(-0.00134799 0.000396087 0)
(-0.0016715 0.000377114 0)
(-0.00198239 0.000354307 0)
(-0.00227509 0.0003267 0)
(-0.00254474 0.000294359 0)
(-0.00278748 0.000257569 0)
(-0.00299977 0.000216457 0)
(-0.00317814 0.000171499 0)
(-0.00331971 0.000123406 0)
(-0.00342223 7.25854e-05 0)
(-0.00348385 2.09486e-05 0)
(-0.00350672 -3.31092e-05 0)
(-0.0034855 -8.86463e-05 0)
(-0.00342155 -0.000143972 0)
(-0.00331626 -0.000199221 0)
(-0.00317117 -0.000255463 0)
(-0.0029861 -0.000314268 0)
(-0.00276064 -0.0003793 0)
(-0.00248942 -0.000454153 0)
(-0.00216582 -0.000543511 0)
(-0.00177546 -0.000642372 0)
(-0.00130954 -0.000742789 0)
(-0.000743638 -0.000803384 0)
(-2.91355e-05 -0.000734385 0)
(0.00061008 -0.000142474 0)
(0.000580938 0.000426865 0)
(0.000762359 4.23899e-05 0)
(0.000618121 -0.000416837 0)
(0.000984776 -0.000277276 0)
(0.00109348 -8.41674e-05 0)
(0.00106725 4.87763e-05 0)
(0.000927626 0.000198991 0)
(0.000678652 0.000271074 0)
(0.000413759 0.000271327 0)
(0.000144159 0.000216341 0)
(-2.91654e-05 8.80826e-05 0)
(5.82735e-05 3.4249e-05 0)
(0.000135992 0.000205514 0)
(0.000274733 0.000560609 0)
(0.000282226 0.000990008 0)
(0.000115712 0.00119108 0)
(-4.91118e-05 0.00114604 0)
(-0.000142643 0.000975611 0)
(-0.000190156 0.000751119 0)
(-0.000201201 0.000515955 0)
(-0.000191462 0.000295481 0)
(-0.000171042 0.000106778 0)
(-0.000141058 -3.09535e-05 0)
(-7.87231e-05 -9.44819e-05 0)
(4.56381e-05 -4.3327e-05 0)
(0.000206963 0.000138375 0)
(0.00023649 0.000383658 0)
(7.46478e-05 0.00046173 0)
(-9.80977e-05 0.000312506 0)
(-0.000167378 6.36464e-05 0)
(-0.000156987 -0.000187448 0)
(-9.6534e-05 -0.000375345 0)
(-1.13359e-05 -0.000462412 0)
(6.40931e-05 -0.000440543 0)
(9.80643e-05 -0.000336789 0)
(7.74356e-05 -0.000215198 0)
(2.56023e-05 -0.000146085 0)
(-1.19768e-05 -0.000146392 0)
(-4.64844e-05 -0.00016695 0)
(-0.000106569 -0.000211449 0)
(-0.000147907 -0.000317889 0)
(-0.000151493 -0.000461758 0)
(-0.000134705 -0.000619216 0)
(-8.57267e-05 -0.000734612 0)
(-1.33173e-05 -0.000756373 0)
(7.25125e-05 -0.000682837 0)
(0.000141881 -0.000530543 0)
(0.000170809 -0.000361248 0)
(0.000201252 -0.000237707 0)
(0.000267095 -0.000152118 0)
(0.000328553 -4.83854e-05 0)
(0.000292597 8.3924e-05 0)
(4.36152e-05 0.000176591 0)
(-0.000322583 0.000144306 0)
(-0.000631773 -1.69208e-05 0)
(-0.000752881 -0.000203846 0)
(-0.000729584 -0.000368489 0)
(-0.000618806 -0.000539431 0)
(-0.000296845 -0.000551129 0)
(8.19208e-05 -0.000347227 0)
(0.000375122 -3.38855e-05 0)
(0.000484789 0.000343689 0)
(0.000410979 0.000671372 0)
(0.000329689 0.000892378 0)
(0.000290094 0.00108859 0)
(0.000274382 0.00127772 0)
(0.000272415 0.00146255 0)
(0.000280502 0.00164327 0)
(0.000298831 0.00182044 0)
(0.000316992 0.00199791 0)
(0.000329119 0.0021702 0)
(0.000327627 0.00233545 0)
(0.000308268 0.00248637 0)
(0.000273377 0.00261692 0)
(0.000229433 0.00272341 0)
(0.000184796 0.00280619 0)
(0.000145542 0.00286907 0)
(0.000114043 0.00291693 0)
(8.96531e-05 0.00295397 0)
(7.04209e-05 0.00298285 0)
(5.44824e-05 0.00300502 0)
(4.07332e-05 0.00302123 0)
(2.88026e-05 0.0030322 0)
(1.86479e-05 0.00303869 0)
(1.01742e-05 0.00304149 0)
(3.12647e-06 0.00304129 0)
(-2.74047e-06 0.00303866 0)
(-7.5636e-06 0.00303394 0)
(-1.1337e-05 0.0030274 0)
(-1.40515e-05 0.00301929 0)
(-1.5844e-05 0.00300963 0)
(-1.69481e-05 0.0029982 0)
(-1.76927e-05 0.00298453 0)
(-1.86579e-05 0.00296781 0)
(-2.07927e-05 0.00294682 0)
(-2.54818e-05 0.0029197 0)
(-3.46026e-05 0.00288385 0)
(-5.04105e-05 0.00283573 0)
(-7.51141e-05 0.00277078 0)
(-0.000109983 0.0026837 0)
(-0.000154013 0.00256932 0)
(-0.000202738 0.00242457 0)
(-0.00024853 0.00225132 0)
(-0.000283867 0.00205874 0)
(-0.000306128 0.00186148 0)
(-0.000316003 0.00167355 0)
(-0.000306983 0.00151154 0)
(-0.000266068 0.001417 0)
(-0.000210895 0.00145692 0)
(-0.000209759 0.0016577 0)
(-0.000290456 0.00192059 0)
(-0.000329817 0.00206577 0)
(-4.73773e-05 0.00217792 0)
(0.00178657 0.00369325 0)
(0.00287072 0.00322085 0)
(0.00311709 0.00465097 0)
(0.00233988 0.0064951 0)
(0.00127307 0.00615936 0)
(0.00110547 0.00608827 0)
(0.000820989 0.00650302 0)
(0.000395049 0.00655361 0)
(0.000220056 0.00646107 0)
(5.36319e-05 0.00647291 0)
(-0.000133184 0.00637935 0)
(-0.000223311 0.00623788 0)
(-0.000305191 0.00612198 0)
(-0.000383894 0.00596738 0)
(-0.000423273 0.00579752 0)
(-0.000455473 0.00563684 0)
(-0.000482404 0.00546504 0)
(-0.000493561 0.00529109 0)
(-0.000500327 0.00512367 0)
(-0.000504413 0.00495625 0)
(-0.000502876 0.00479127 0)
(-0.000499324 0.00463174 0)
(-0.000494847 0.00447564 0)
(-0.000488666 0.00432323 0)
(-0.000481694 0.0041754 0)
(-0.000474345 0.00403158 0)
(-0.000466362 0.00389168 0)
(-0.00045786 0.00375595 0)
(-0.000448894 0.00362432 0)
(-0.00043933 0.0034968 0)
(-0.000429133 0.00337358 0)
(-0.000418297 0.00325478 0)
(-0.000406797 0.00314052 0)
(-0.000394655 0.00303098 0)
(-0.00038194 0.00292629 0)
(-0.000368738 0.00282657 0)
(-0.000355159 0.00273189 0)
(-0.000341335 0.00264229 0)
(-0.000327399 0.00255776 0)
(-0.000313477 0.00247824 0)
(-0.000299683 0.00240365 0)
(-0.000286105 0.00233384 0)
(-0.000272804 0.00226868 0)
(-0.000259808 0.00220801 0)
(-0.000247114 0.00215166 0)
(-0.000234685 0.0020995 0)
(-0.000222459 0.00205138 0)
(-0.000210348 0.00200721 0)
(-0.000198246 0.0019669 0)
(-0.000186034 0.00193042 0)
(-0.000173586 0.00189774 0)
(-0.00016077 0.00186887 0)
(-0.000147459 0.00184383 0)
(-0.000133522 0.00182264 0)
(-0.000118757 0.00180527 0)
(-0.000102811 0.00179165 0)
(-8.53635e-05 0.00178174 0)
(-6.63313e-05 0.0017756 0)
(-4.50087e-05 0.00177343 0)
(-2.12029e-05 0.001776 0)
(4.88878e-06 0.00178323 0)
(3.33831e-05 0.0017953 0)
(6.4187e-05 0.00181239 0)
(9.71124e-05 0.00183468 0)
(0.000131824 0.00186233 0)
(0.000167779 0.00189556 0)
(0.000204144 0.00193462 0)
(0.000239701 0.00197977 0)
(0.000272767 0.00203124 0)
(0.000301208 0.00208895 0)
(0.00032259 0.00215215 0)
(0.000334598 0.00221886 0)
(0.00033575 0.00228551 0)
(0.000326329 0.00234717 0)
(0.000309186 0.00239821 0)
(0.000289929 0.00243422 0)
(0.000275914 0.00245445 0)
(0.000273889 0.00246312 0)
(0.000287149 0.00246879 0)
(0.000313743 0.00248156 0)
(0.000346996 0.00250882 0)
(0.000378149 0.0025539 0)
(0.000398756 0.00261739 0)
(0.000401102 0.0026972 0)
(0.000378294 0.0027875 0)
(0.000326325 0.00287625 0)
(0.000247683 0.00294143 0)
(0.000154661 0.00295604 0)
(7.00347e-05 0.00290421 0)
(1.75144e-05 0.00279794 0)
(1.07821e-05 0.00267063 0)
(4.78584e-05 0.00257961 0)
(0.000105786 0.00254259 0)
(0.000145069 0.00257141 0)
(0.000132036 0.00268065 0)
(4.81912e-05 0.00280987 0)
(-0.000110913 0.00290037 0)
(-0.00033524 0.00300397 0)
)
;
    }
    frontAndBack
    {
        type            empty;
    }
}


// ************************************************************************* //
