/*--------------------------------*- C++ -*----------------------------------*\
  =========                 |
  \\      /  F ield         | OpenFOAM: The Open Source CFD Toolbox
   \\    /   O peration     | Website:  https://openfoam.org
    \\  /    A nd           | Version:  7
     \\/     M anipulation  |
\*---------------------------------------------------------------------------*/
FoamFile
{
    version     2.0;
    format      ascii;
    class       volScalarField;
    location    "0.36";
    object      k;
}
// * * * * * * * * * * * * * * * * * * * * * * * * * * * * * * * * * * * * * //

dimensions      [0 2 -2 0 0 0 0];

internalField   nonuniform List<scalar> 
70000
(
1.08549e-05
4.21873e-06
2.82424e-06
2.3167e-06
1.99738e-06
1.75716e-06
1.56517e-06
1.40844e-06
1.27758e-06
1.16701e-06
1.07197e-06
9.90076e-07
9.18404e-07
8.55833e-07
8.003e-07
7.51334e-07
7.07301e-07
6.6817e-07
6.32536e-07
6.00728e-07
5.71403e-07
5.4519e-07
5.20702e-07
4.98825e-07
4.7811e-07
4.59637e-07
4.41919e-07
4.26141e-07
4.10845e-07
3.97231e-07
3.8391e-07
3.72081e-07
3.60349e-07
3.50074e-07
3.39543e-07
3.30721e-07
3.20998e-07
3.13597e-07
3.0437e-07
2.98258e-07
2.89449e-07
2.8429e-07
2.7594e-07
2.71539e-07
2.63423e-07
2.5954e-07
2.51291e-07
2.55344e-07
2.48923e-07
2.97112e-07
1.72794e-05
1.13672e-05
8.52023e-06
7.01011e-06
6.0368e-06
5.31087e-06
4.73136e-06
4.25802e-06
3.86279e-06
3.52885e-06
3.24185e-06
2.99451e-06
2.77805e-06
2.58904e-06
2.4213e-06
2.27336e-06
2.14031e-06
2.02206e-06
1.91435e-06
1.81822e-06
1.72955e-06
1.65032e-06
1.57628e-06
1.51013e-06
1.4475e-06
1.39162e-06
1.33807e-06
1.2903e-06
1.24408e-06
1.20286e-06
1.16259e-06
1.12679e-06
1.09128e-06
1.06024e-06
1.02827e-06
1.0017e-06
9.72117e-07
9.49865e-07
9.21802e-07
9.03371e-07
8.76667e-07
8.61046e-07
8.35738e-07
8.2243e-07
7.97872e-07
7.86039e-07
7.60648e-07
7.67648e-07
7.53258e-07
8.02031e-07
1.937e-05
1.61297e-05
1.32907e-05
1.12892e-05
9.82789e-06
8.69586e-06
7.778e-06
7.0209e-06
6.38409e-06
5.84333e-06
5.37691e-06
4.97373e-06
4.62003e-06
4.31049e-06
4.03524e-06
3.79205e-06
3.57293e-06
3.37796e-06
3.20004e-06
3.04118e-06
2.89439e-06
2.76318e-06
2.64041e-06
2.53064e-06
2.42669e-06
2.33375e-06
2.24482e-06
2.16521e-06
2.08841e-06
2.0196e-06
1.95259e-06
1.89287e-06
1.83355e-06
1.78193e-06
1.72825e-06
1.68426e-06
1.63439e-06
1.59759e-06
1.55036e-06
1.51968e-06
1.47492e-06
1.44882e-06
1.40635e-06
1.38415e-06
1.34302e-06
1.32317e-06
1.28012e-06
1.28377e-06
1.26981e-06
1.28895e-06
1.9861e-05
1.82601e-05
1.60855e-05
1.42001e-05
1.26396e-05
1.13486e-05
1.02603e-05
9.3388e-06
8.54689e-06
7.8643e-06
7.26906e-06
6.74999e-06
6.29119e-06
5.88716e-06
5.52577e-06
5.20491e-06
4.91427e-06
4.65482e-06
4.41699e-06
4.20419e-06
4.0068e-06
3.83005e-06
3.6642e-06
3.51554e-06
3.37466e-06
3.24816e-06
3.1273e-06
3.01847e-06
2.91382e-06
2.8195e-06
2.72784e-06
2.64599e-06
2.56433e-06
2.49381e-06
2.41938e-06
2.35949e-06
2.29006e-06
2.23986e-06
2.17425e-06
2.13211e-06
2.07006e-06
2.03413e-06
1.97513e-06
1.94462e-06
1.88747e-06
1.86032e-06
1.80154e-06
1.79572e-06
1.78984e-06
1.77667e-06
1.99706e-05
1.7846e-05
1.60748e-05
1.47669e-05
1.36025e-05
1.2538e-05
1.15691e-05
1.0702e-05
9.92036e-06
9.22534e-06
8.60454e-06
8.05241e-06
7.55598e-06
7.11282e-06
6.71107e-06
6.35058e-06
6.02037e-06
5.72351e-06
5.44891e-06
5.20205e-06
4.97133e-06
4.76383e-06
4.56808e-06
4.39168e-06
4.22414e-06
4.07258e-06
3.92792e-06
3.79652e-06
3.67046e-06
3.55606e-06
3.44477e-06
3.34543e-06
3.24531e-06
3.15986e-06
3.06781e-06
2.99523e-06
2.90907e-06
2.84792e-06
2.76652e-06
2.71488e-06
2.63779e-06
2.59372e-06
2.52025e-06
2.48283e-06
2.41149e-06
2.3791e-06
2.30992e-06
2.28739e-06
2.2841e-06
2.24969e-06
2.00095e-05
1.47038e-05
1.37482e-05
1.32119e-05
1.25921e-05
1.19282e-05
1.12783e-05
1.06582e-05
1.00803e-05
9.54656e-06
9.04508e-06
8.57923e-06
8.14484e-06
7.74585e-06
7.3735e-06
7.03212e-06
6.71267e-06
6.42165e-06
6.14798e-06
5.89953e-06
5.66416e-06
5.4505e-06
5.24699e-06
5.06174e-06
4.88496e-06
4.72307e-06
4.56839e-06
4.42626e-06
4.28983e-06
4.16515e-06
4.04307e-06
3.93441e-06
3.82308e-06
3.72938e-06
3.62601e-06
3.54597e-06
3.44873e-06
3.38081e-06
3.28855e-06
3.23096e-06
3.14315e-06
3.09382e-06
3.01002e-06
2.96794e-06
2.88646e-06
2.85045e-06
2.77759e-06
2.73652e-06
2.7305e-06
2.68343e-06
2.01332e-05
1.54669e-05
9.63478e-06
9.39956e-06
9.4945e-06
9.49396e-06
9.43535e-06
9.2971e-06
9.05555e-06
8.78184e-06
8.48596e-06
8.18893e-06
7.89621e-06
7.61378e-06
7.33592e-06
7.07661e-06
6.82803e-06
6.5959e-06
6.37072e-06
6.16198e-06
5.95903e-06
5.77135e-06
5.58937e-06
5.42075e-06
5.25813e-06
5.1062e-06
4.96042e-06
4.82443e-06
4.69309e-06
4.57218e-06
4.4521e-06
4.34569e-06
4.23411e-06
4.14145e-06
4.03647e-06
3.9564e-06
3.85667e-06
3.78816e-06
3.69247e-06
3.63409e-06
3.54239e-06
3.49187e-06
3.40424e-06
3.36062e-06
3.27573e-06
3.23711e-06
3.16837e-06
3.11164e-06
3.10178e-06
3.04781e-06
2.01713e-05
1.86755e-05
8.68968e-06
5.54092e-06
5.63167e-06
5.9364e-06
6.29466e-06
6.57998e-06
6.75884e-06
6.86724e-06
6.88565e-06
6.8661e-06
6.81324e-06
6.72529e-06
6.61381e-06
6.49311e-06
6.35452e-06
6.21444e-06
6.07034e-06
5.93072e-06
5.78873e-06
5.65319e-06
5.51804e-06
5.38929e-06
5.26263e-06
5.143e-06
5.0273e-06
4.91703e-06
4.80868e-06
4.70791e-06
4.6052e-06
4.51451e-06
4.41629e-06
4.33564e-06
4.24121e-06
4.17022e-06
4.07874e-06
4.01731e-06
3.92779e-06
3.87487e-06
3.78835e-06
3.74166e-06
3.65884e-06
3.61741e-06
3.53865e-06
3.49689e-06
3.44161e-06
3.37664e-06
3.36438e-06
3.31157e-06
2.01672e-05
1.97238e-05
1.61657e-05
4.85899e-06
3.04282e-06
3.1066e-06
3.37621e-06
3.80629e-06
4.17162e-06
4.48922e-06
4.73551e-06
4.9248e-06
5.06431e-06
5.16476e-06
5.22258e-06
5.25912e-06
5.2628e-06
5.25462e-06
5.23243e-06
5.19555e-06
5.14716e-06
5.09316e-06
5.03289e-06
4.96886e-06
4.90209e-06
4.83204e-06
4.76024e-06
4.68848e-06
4.61518e-06
4.54583e-06
4.47212e-06
4.40704e-06
4.33344e-06
4.27353e-06
4.20018e-06
4.14613e-06
4.07267e-06
4.02527e-06
3.95245e-06
3.91133e-06
3.8402e-06
3.80268e-06
3.7343e-06
3.69904e-06
3.63661e-06
3.59472e-06
3.55685e-06
3.49564e-06
3.48403e-06
3.44419e-06
2.01477e-05
1.99342e-05
1.9065e-05
1.44954e-05
5.23768e-06
2.15418e-06
1.91471e-06
1.9943e-06
2.20807e-06
2.50665e-06
2.7817e-06
3.03472e-06
3.25838e-06
3.45524e-06
3.61793e-06
3.75677e-06
3.86765e-06
3.95724e-06
4.02785e-06
4.08184e-06
4.12044e-06
4.14563e-06
4.16133e-06
4.16514e-06
4.16252e-06
4.1552e-06
4.14123e-06
4.12265e-06
4.09912e-06
4.07466e-06
4.04397e-06
4.01613e-06
3.98038e-06
3.95104e-06
3.91102e-06
3.88254e-06
3.83878e-06
3.81223e-06
3.76477e-06
3.73925e-06
3.69079e-06
3.66594e-06
3.61846e-06
3.59317e-06
3.55148e-06
3.51735e-06
3.49463e-06
3.44754e-06
3.43974e-06
3.4159e-06
2.01216e-05
1.99661e-05
1.96421e-05
1.85449e-05
1.52075e-05
8.34843e-06
3.09912e-06
1.63231e-06
1.44214e-06
1.44936e-06
1.52644e-06
1.68755e-06
1.86881e-06
2.04588e-06
2.21492e-06
2.37465e-06
2.52098e-06
2.65293e-06
2.77086e-06
2.87525e-06
2.96729e-06
3.04629e-06
3.11533e-06
3.17298e-06
3.22212e-06
3.26249e-06
3.29646e-06
3.32339e-06
3.34423e-06
3.36061e-06
3.37111e-06
3.379e-06
3.3821e-06
3.38205e-06
3.37959e-06
3.37621e-06
3.36737e-06
3.36175e-06
3.34865e-06
3.34137e-06
3.32524e-06
3.31665e-06
3.29851e-06
3.28871e-06
3.27244e-06
3.25659e-06
3.24823e-06
3.22801e-06
3.22862e-06
3.22068e-06
2.00982e-05
1.99328e-05
1.97571e-05
1.93517e-05
1.85041e-05
1.65318e-05
1.23167e-05
6.84761e-06
2.98023e-06
1.49187e-06
1.24262e-06
1.1473e-06
1.15152e-06
1.19407e-06
1.28624e-06
1.39331e-06
1.50539e-06
1.6155e-06
1.72548e-06
1.83073e-06
1.93126e-06
2.0246e-06
2.11221e-06
2.19202e-06
2.26643e-06
2.33304e-06
2.39473e-06
2.44971e-06
2.49984e-06
2.54441e-06
2.58437e-06
2.62014e-06
2.65121e-06
2.67976e-06
2.70258e-06
2.72587e-06
2.74191e-06
2.76057e-06
2.77137e-06
2.78592e-06
2.7933e-06
2.80398e-06
2.80921e-06
2.81647e-06
2.8222e-06
2.82542e-06
2.83289e-06
2.83569e-06
2.84901e-06
2.85428e-06
2.00782e-05
1.98876e-05
1.97567e-05
1.94601e-05
1.91443e-05
1.86387e-05
1.75511e-05
1.5419e-05
1.17302e-05
7.43567e-06
3.97635e-06
1.91189e-06
1.20809e-06
1.05688e-06
9.81692e-07
9.42435e-07
9.53652e-07
9.8777e-07
1.05002e-06
1.11411e-06
1.18369e-06
1.25387e-06
1.32522e-06
1.39566e-06
1.46544e-06
1.53156e-06
1.59612e-06
1.65651e-06
1.71488e-06
1.76909e-06
1.82079e-06
1.86935e-06
1.91407e-06
1.95742e-06
1.99552e-06
2.03392e-06
2.06654e-06
2.10026e-06
2.12828e-06
2.1573e-06
2.18297e-06
2.20668e-06
2.23096e-06
2.25067e-06
2.27486e-06
2.29063e-06
2.31645e-06
2.32983e-06
2.35664e-06
2.37953e-06
2.00614e-05
1.98539e-05
1.97342e-05
1.94704e-05
1.92537e-05
1.90449e-05
1.87332e-05
1.81874e-05
1.70923e-05
1.52275e-05
1.25612e-05
9.23105e-06
5.97088e-06
3.47834e-06
1.88151e-06
1.16784e-06
9.64605e-07
8.90836e-07
8.36331e-07
7.9661e-07
7.98615e-07
8.12475e-07
8.42769e-07
8.81919e-07
9.22508e-07
9.65504e-07
1.01094e-06
1.05626e-06
1.10328e-06
1.14932e-06
1.19524e-06
1.24029e-06
1.28324e-06
1.32653e-06
1.36634e-06
1.40699e-06
1.44415e-06
1.48199e-06
1.51643e-06
1.5507e-06
1.58484e-06
1.61406e-06
1.64784e-06
1.6748e-06
1.70726e-06
1.73268e-06
1.76617e-06
1.7887e-06
1.82409e-06
1.85413e-06
2.00475e-05
1.98304e-05
1.97075e-05
1.94481e-05
1.92706e-05
1.91128e-05
1.89626e-05
1.87478e-05
1.84595e-05
1.79101e-05
1.70755e-05
1.56996e-05
1.38843e-05
1.15359e-05
8.85872e-06
6.24982e-06
4.0775e-06
2.50352e-06
1.50463e-06
1.03009e-06
8.62598e-07
7.99127e-07
7.50857e-07
7.11222e-07
6.82061e-07
6.80584e-07
6.86796e-07
7.01766e-07
7.24389e-07
7.48948e-07
7.74749e-07
8.02487e-07
8.30784e-07
8.61478e-07
8.91086e-07
9.22977e-07
9.53492e-07
9.85481e-07
1.01556e-06
1.04622e-06
1.07805e-06
1.10547e-06
1.13797e-06
1.16609e-06
1.19647e-06
1.22583e-06
1.25772e-06
1.28337e-06
1.32131e-06
1.35095e-06
2.00362e-05
1.98125e-05
1.9685e-05
1.94178e-05
1.92564e-05
1.91063e-05
1.89975e-05
1.88466e-05
1.87095e-05
1.84989e-05
1.82468e-05
1.78325e-05
1.72331e-05
1.63645e-05
1.51657e-05
1.36319e-05
1.18233e-05
9.73675e-06
7.58896e-06
5.58511e-06
3.90257e-06
2.62222e-06
1.70715e-06
1.14898e-06
8.75811e-07
7.63154e-07
7.10972e-07
6.73809e-07
6.38174e-07
6.09712e-07
5.90225e-07
5.85605e-07
5.88292e-07
5.95749e-07
6.07513e-07
6.22773e-07
6.38013e-07
6.55647e-07
6.72676e-07
6.91976e-07
7.12988e-07
7.32185e-07
7.55474e-07
7.77829e-07
8.00242e-07
8.24974e-07
8.49948e-07
8.72799e-07
9.04745e-07
9.28227e-07
2.00272e-05
1.97987e-05
1.96658e-05
1.93958e-05
1.92305e-05
1.90786e-05
1.89792e-05
1.88497e-05
1.87336e-05
1.85944e-05
1.84591e-05
1.82896e-05
1.80821e-05
1.77968e-05
1.74119e-05
1.68691e-05
1.61618e-05
1.52402e-05
1.40968e-05
1.27521e-05
1.12447e-05
9.57508e-06
7.85578e-06
6.20996e-06
4.71866e-06
3.47934e-06
2.49965e-06
1.75427e-06
1.2343e-06
9.21413e-07
7.57375e-07
6.78641e-07
6.36112e-07
6.06152e-07
5.78087e-07
5.52308e-07
5.30694e-07
5.17046e-07
5.09611e-07
5.1025e-07
5.13258e-07
5.19164e-07
5.28352e-07
5.38712e-07
5.4938e-07
5.62265e-07
5.76164e-07
5.91663e-07
6.10058e-07
6.25377e-07
2.002e-05
1.979e-05
1.96459e-05
1.93792e-05
1.92063e-05
1.90491e-05
1.89409e-05
1.88229e-05
1.87119e-05
1.85875e-05
1.84709e-05
1.83455e-05
1.82223e-05
1.80798e-05
1.79242e-05
1.77249e-05
1.74821e-05
1.71619e-05
1.67576e-05
1.62332e-05
1.55957e-05
1.4811e-05
1.38906e-05
1.28248e-05
1.16644e-05
1.03981e-05
9.05014e-06
7.68691e-06
6.36135e-06
5.13939e-06
4.03808e-06
3.12312e-06
2.3735e-06
1.7724e-06
1.31481e-06
9.94467e-07
7.9372e-07
6.78491e-07
6.15226e-07
5.78306e-07
5.52012e-07
5.29396e-07
5.08655e-07
4.89238e-07
4.73295e-07
4.62537e-07
4.57144e-07
4.57892e-07
4.61046e-07
4.67736e-07
2.00145e-05
1.97899e-05
1.96198e-05
1.93655e-05
1.91858e-05
1.90216e-05
1.89049e-05
1.87859e-05
1.86716e-05
1.85514e-05
1.84404e-05
1.83238e-05
1.82129e-05
1.8095e-05
1.79823e-05
1.78596e-05
1.77368e-05
1.75921e-05
1.74339e-05
1.72379e-05
1.70076e-05
1.67209e-05
1.63777e-05
1.59546e-05
1.54577e-05
1.4871e-05
1.41981e-05
1.34243e-05
1.25779e-05
1.16413e-05
1.06717e-05
9.629e-06
8.54848e-06
7.46323e-06
6.40481e-06
5.39851e-06
4.47499e-06
3.6384e-06
2.92697e-06
2.32366e-06
1.81928e-06
1.40848e-06
1.09215e-06
8.66064e-07
7.17402e-07
6.27428e-07
5.72811e-07
5.4394e-07
5.23813e-07
5.24497e-07
2.00102e-05
1.97939e-05
1.95933e-05
1.93514e-05
1.91671e-05
1.89953e-05
1.88713e-05
1.87491e-05
1.86314e-05
1.85081e-05
1.83944e-05
1.82778e-05
1.81679e-05
1.80574e-05
1.79502e-05
1.78406e-05
1.77348e-05
1.76239e-05
1.7517e-05
1.74041e-05
1.72861e-05
1.71576e-05
1.70149e-05
1.68497e-05
1.66612e-05
1.64393e-05
1.6182e-05
1.58774e-05
1.55292e-05
1.51224e-05
1.46639e-05
1.41514e-05
1.35721e-05
1.29418e-05
1.22473e-05
1.15156e-05
1.07306e-05
9.92801e-06
9.07798e-06
8.20137e-06
7.31808e-06
6.44142e-06
5.58918e-06
4.7774e-06
4.01758e-06
3.32921e-06
2.73287e-06
2.23902e-06
1.83327e-06
1.56614e-06
2.0007e-05
1.98013e-05
1.95689e-05
1.93377e-05
1.91496e-05
1.89705e-05
1.88391e-05
1.87139e-05
1.85921e-05
1.84663e-05
1.83475e-05
1.82299e-05
1.8115e-05
1.80042e-05
1.78934e-05
1.77852e-05
1.76822e-05
1.75778e-05
1.74768e-05
1.73785e-05
1.72761e-05
1.71794e-05
1.70784e-05
1.69787e-05
1.68744e-05
1.67678e-05
1.66497e-05
1.65215e-05
1.63811e-05
1.62192e-05
1.60396e-05
1.5839e-05
1.56044e-05
1.53492e-05
1.50487e-05
1.47289e-05
1.43567e-05
1.39602e-05
1.35162e-05
1.30368e-05
1.25101e-05
1.19482e-05
1.13382e-05
1.07068e-05
1.00195e-05
9.32731e-06
8.56541e-06
7.80571e-06
7.01489e-06
6.27474e-06
2.00047e-05
1.98099e-05
1.9546e-05
1.93242e-05
1.91325e-05
1.89473e-05
1.8808e-05
1.86801e-05
1.8554e-05
1.84261e-05
1.83021e-05
1.81829e-05
1.80627e-05
1.79514e-05
1.78352e-05
1.7726e-05
1.76182e-05
1.75119e-05
1.74078e-05
1.73103e-05
1.7208e-05
1.71181e-05
1.70221e-05
1.69326e-05
1.68415e-05
1.67556e-05
1.66642e-05
1.65746e-05
1.64892e-05
1.63929e-05
1.63027e-05
1.62051e-05
1.60983e-05
1.59893e-05
1.58594e-05
1.5735e-05
1.55773e-05
1.54227e-05
1.52364e-05
1.50426e-05
1.48166e-05
1.45769e-05
1.42952e-05
1.40165e-05
1.36669e-05
1.33163e-05
1.29189e-05
1.24715e-05
1.19905e-05
1.14739e-05
2.0003e-05
1.98191e-05
1.95246e-05
1.93104e-05
1.91152e-05
1.89257e-05
1.8778e-05
1.86474e-05
1.85173e-05
1.83877e-05
1.82588e-05
1.81378e-05
1.80126e-05
1.79005e-05
1.77789e-05
1.76682e-05
1.75565e-05
1.74473e-05
1.73398e-05
1.72398e-05
1.71327e-05
1.70401e-05
1.69404e-05
1.68488e-05
1.67565e-05
1.66729e-05
1.65863e-05
1.65017e-05
1.64251e-05
1.63387e-05
1.62648e-05
1.61856e-05
1.61063e-05
1.60275e-05
1.59443e-05
1.58725e-05
1.57826e-05
1.57064e-05
1.56132e-05
1.55281e-05
1.54238e-05
1.53246e-05
1.51982e-05
1.50954e-05
1.49431e-05
1.47907e-05
1.46414e-05
1.4433e-05
1.42016e-05
1.39829e-05
2.00018e-05
1.98279e-05
1.9505e-05
1.92957e-05
1.90976e-05
1.89057e-05
1.87495e-05
1.8616e-05
1.84823e-05
1.83511e-05
1.8218e-05
1.80948e-05
1.79659e-05
1.78521e-05
1.77262e-05
1.76133e-05
1.74984e-05
1.73859e-05
1.72758e-05
1.71723e-05
1.70622e-05
1.69664e-05
1.68633e-05
1.67681e-05
1.66726e-05
1.65849e-05
1.64942e-05
1.64057e-05
1.63258e-05
1.62378e-05
1.61627e-05
1.60847e-05
1.60112e-05
1.59351e-05
1.58612e-05
1.57954e-05
1.57193e-05
1.56559e-05
1.55812e-05
1.55194e-05
1.54395e-05
1.53765e-05
1.52932e-05
1.5238e-05
1.51533e-05
1.50673e-05
1.49968e-05
1.48963e-05
1.47602e-05
1.46495e-05
2.00009e-05
1.98305e-05
1.94884e-05
1.92807e-05
1.90801e-05
1.88878e-05
1.87231e-05
1.85864e-05
1.84494e-05
1.83168e-05
1.81804e-05
1.80545e-05
1.79231e-05
1.7807e-05
1.76777e-05
1.75627e-05
1.74446e-05
1.73292e-05
1.72168e-05
1.71097e-05
1.69972e-05
1.68983e-05
1.67921e-05
1.66943e-05
1.65953e-05
1.65051e-05
1.64107e-05
1.63195e-05
1.62335e-05
1.61456e-05
1.60636e-05
1.59833e-05
1.59042e-05
1.58231e-05
1.57464e-05
1.56766e-05
1.5599e-05
1.55336e-05
1.54589e-05
1.54018e-05
1.53252e-05
1.52678e-05
1.51934e-05
1.51427e-05
1.50713e-05
1.5001e-05
1.49349e-05
1.48636e-05
1.47456e-05
1.46497e-05
2.00003e-05
1.98289e-05
1.94749e-05
1.92649e-05
1.90623e-05
1.88718e-05
1.8699e-05
1.85587e-05
1.84191e-05
1.82853e-05
1.81463e-05
1.80177e-05
1.78849e-05
1.7766e-05
1.76344e-05
1.75173e-05
1.73959e-05
1.72787e-05
1.71634e-05
1.70535e-05
1.69386e-05
1.68369e-05
1.67276e-05
1.66279e-05
1.65255e-05
1.64334e-05
1.6336e-05
1.62426e-05
1.61514e-05
1.60643e-05
1.59761e-05
1.58946e-05
1.58104e-05
1.5727e-05
1.56449e-05
1.55725e-05
1.54897e-05
1.54211e-05
1.53413e-05
1.52785e-05
1.51974e-05
1.51326e-05
1.50584e-05
1.49977e-05
1.49257e-05
1.48563e-05
1.47765e-05
1.47128e-05
1.46001e-05
1.44963e-05
2e-05
1.98272e-05
1.94636e-05
1.92477e-05
1.90436e-05
1.88572e-05
1.8677e-05
1.85329e-05
1.83913e-05
1.82568e-05
1.81159e-05
1.7985e-05
1.78515e-05
1.77297e-05
1.75967e-05
1.74778e-05
1.73534e-05
1.72351e-05
1.71167e-05
1.70047e-05
1.68873e-05
1.67834e-05
1.66712e-05
1.65699e-05
1.64645e-05
1.63705e-05
1.62705e-05
1.61751e-05
1.60799e-05
1.5993e-05
1.59005e-05
1.58173e-05
1.57291e-05
1.56445e-05
1.55579e-05
1.54833e-05
1.53971e-05
1.53246e-05
1.52429e-05
1.51737e-05
1.5091e-05
1.5019e-05
1.49432e-05
1.48759e-05
1.47968e-05
1.47274e-05
1.46354e-05
1.45635e-05
1.44489e-05
1.43234e-05
1.99999e-05
1.9826e-05
1.94553e-05
1.92302e-05
1.9025e-05
1.88443e-05
1.86579e-05
1.85096e-05
1.83665e-05
1.82318e-05
1.80896e-05
1.79572e-05
1.78233e-05
1.7699e-05
1.75653e-05
1.74451e-05
1.73179e-05
1.71992e-05
1.70777e-05
1.69646e-05
1.68445e-05
1.67388e-05
1.66242e-05
1.65212e-05
1.64135e-05
1.63177e-05
1.62154e-05
1.61181e-05
1.602e-05
1.59324e-05
1.5837e-05
1.57514e-05
1.56602e-05
1.55746e-05
1.54849e-05
1.54072e-05
1.53199e-05
1.52427e-05
1.51606e-05
1.50861e-05
1.50014e-05
1.49259e-05
1.48464e-05
1.47768e-05
1.46897e-05
1.46203e-05
1.4521e-05
1.44408e-05
1.43232e-05
1.41842e-05
1.99999e-05
1.98253e-05
1.94501e-05
1.92135e-05
1.90073e-05
1.88335e-05
1.86425e-05
1.84897e-05
1.83455e-05
1.82109e-05
1.80682e-05
1.7935e-05
1.78009e-05
1.76748e-05
1.75409e-05
1.74199e-05
1.72905e-05
1.71719e-05
1.70475e-05
1.69337e-05
1.68113e-05
1.67043e-05
1.65877e-05
1.64833e-05
1.63738e-05
1.62763e-05
1.61718e-05
1.60729e-05
1.59728e-05
1.58839e-05
1.57866e-05
1.56983e-05
1.56046e-05
1.55181e-05
1.5426e-05
1.53452e-05
1.52568e-05
1.51765e-05
1.50923e-05
1.50156e-05
1.49264e-05
1.48508e-05
1.4766e-05
1.46963e-05
1.46021e-05
1.45315e-05
1.44283e-05
1.43411e-05
1.42185e-05
1.40737e-05
1.99999e-05
1.98251e-05
1.94477e-05
1.91984e-05
1.89911e-05
1.88247e-05
1.86312e-05
1.84738e-05
1.83286e-05
1.81948e-05
1.80521e-05
1.79191e-05
1.77848e-05
1.76578e-05
1.75242e-05
1.74029e-05
1.72721e-05
1.71536e-05
1.70271e-05
1.69131e-05
1.67887e-05
1.66808e-05
1.65626e-05
1.64573e-05
1.63461e-05
1.62476e-05
1.61409e-05
1.6041e-05
1.59395e-05
1.58491e-05
1.57501e-05
1.56596e-05
1.55637e-05
1.54764e-05
1.53823e-05
1.52987e-05
1.52087e-05
1.51268e-05
1.50392e-05
1.49616e-05
1.4868e-05
1.47924e-05
1.47034e-05
1.46321e-05
1.45342e-05
1.44593e-05
1.43556e-05
1.42613e-05
1.41336e-05
1.39899e-05
1.99999e-05
1.98253e-05
1.94479e-05
1.91858e-05
1.89769e-05
1.88177e-05
1.86241e-05
1.84623e-05
1.83163e-05
1.81835e-05
1.80417e-05
1.79096e-05
1.77754e-05
1.76485e-05
1.75156e-05
1.73947e-05
1.72633e-05
1.71452e-05
1.70172e-05
1.69033e-05
1.67776e-05
1.66692e-05
1.65498e-05
1.64444e-05
1.63315e-05
1.62324e-05
1.6124e-05
1.60232e-05
1.5921e-05
1.58292e-05
1.57286e-05
1.56366e-05
1.55388e-05
1.54505e-05
1.5355e-05
1.52689e-05
1.51771e-05
1.50941e-05
1.50037e-05
1.49237e-05
1.48285e-05
1.47506e-05
1.46603e-05
1.45849e-05
1.44862e-05
1.44056e-05
1.43019e-05
1.42026e-05
1.40694e-05
1.39325e-05
1.99999e-05
1.9826e-05
1.94504e-05
1.91761e-05
1.8965e-05
1.88123e-05
1.86211e-05
1.84555e-05
1.83086e-05
1.81772e-05
1.80372e-05
1.79067e-05
1.7773e-05
1.76473e-05
1.75157e-05
1.73957e-05
1.72644e-05
1.71468e-05
1.70182e-05
1.69048e-05
1.67784e-05
1.66702e-05
1.65498e-05
1.64449e-05
1.63307e-05
1.62316e-05
1.6122e-05
1.60208e-05
1.59184e-05
1.58252e-05
1.57231e-05
1.56305e-05
1.5531e-05
1.54417e-05
1.5345e-05
1.5257e-05
1.51632e-05
1.50795e-05
1.49868e-05
1.49039e-05
1.4808e-05
1.47282e-05
1.46358e-05
1.45577e-05
1.44572e-05
1.43734e-05
1.4267e-05
1.41673e-05
1.40277e-05
1.39003e-05
1.99999e-05
1.98272e-05
1.94555e-05
1.917e-05
1.89558e-05
1.88084e-05
1.86219e-05
1.84537e-05
1.83056e-05
1.8176e-05
1.80384e-05
1.791e-05
1.77772e-05
1.76529e-05
1.75227e-05
1.74043e-05
1.72737e-05
1.7157e-05
1.70283e-05
1.69157e-05
1.67891e-05
1.66814e-05
1.65605e-05
1.64563e-05
1.63414e-05
1.62422e-05
1.61321e-05
1.60309e-05
1.59284e-05
1.58344e-05
1.57312e-05
1.56385e-05
1.55379e-05
1.54479e-05
1.53504e-05
1.52612e-05
1.51661e-05
1.50818e-05
1.49874e-05
1.49025e-05
1.48061e-05
1.47251e-05
1.46309e-05
1.45507e-05
1.44484e-05
1.43631e-05
1.42537e-05
1.41548e-05
1.40127e-05
1.38909e-05
1.99999e-05
1.98289e-05
1.94626e-05
1.91678e-05
1.89495e-05
1.88059e-05
1.86262e-05
1.84562e-05
1.8307e-05
1.81791e-05
1.80443e-05
1.7919e-05
1.77875e-05
1.76659e-05
1.75382e-05
1.74221e-05
1.72931e-05
1.71779e-05
1.70497e-05
1.69385e-05
1.68126e-05
1.6706e-05
1.6585e-05
1.6482e-05
1.63669e-05
1.62681e-05
1.61579e-05
1.60573e-05
1.59547e-05
1.586e-05
1.57558e-05
1.56635e-05
1.55619e-05
1.5471e-05
1.53726e-05
1.52826e-05
1.51858e-05
1.51009e-05
1.50044e-05
1.49178e-05
1.48207e-05
1.47388e-05
1.46429e-05
1.45609e-05
1.44573e-05
1.43711e-05
1.42597e-05
1.41616e-05
1.40206e-05
1.38979e-05
1.99999e-05
1.98311e-05
1.94716e-05
1.91694e-05
1.89462e-05
1.8805e-05
1.86333e-05
1.84637e-05
1.83128e-05
1.81869e-05
1.80553e-05
1.79337e-05
1.78043e-05
1.76859e-05
1.75609e-05
1.74475e-05
1.73206e-05
1.72074e-05
1.70803e-05
1.69708e-05
1.68465e-05
1.67414e-05
1.66207e-05
1.65192e-05
1.64047e-05
1.63069e-05
1.6197e-05
1.6098e-05
1.59955e-05
1.59007e-05
1.57965e-05
1.5705e-05
1.56029e-05
1.55118e-05
1.54126e-05
1.53225e-05
1.52249e-05
1.51396e-05
1.50416e-05
1.49542e-05
1.48567e-05
1.47741e-05
1.4677e-05
1.45931e-05
1.4489e-05
1.44021e-05
1.429e-05
1.41932e-05
1.40546e-05
1.39286e-05
1.99999e-05
1.98339e-05
1.94823e-05
1.91749e-05
1.89463e-05
1.88057e-05
1.86427e-05
1.84752e-05
1.83228e-05
1.81988e-05
1.80706e-05
1.79529e-05
1.78263e-05
1.77116e-05
1.75897e-05
1.74794e-05
1.73552e-05
1.72445e-05
1.71189e-05
1.70118e-05
1.68895e-05
1.67863e-05
1.66663e-05
1.65669e-05
1.64532e-05
1.63572e-05
1.62477e-05
1.61508e-05
1.60486e-05
1.59541e-05
1.58506e-05
1.57601e-05
1.56578e-05
1.5567e-05
1.54672e-05
1.53775e-05
1.52797e-05
1.51937e-05
1.50949e-05
1.50078e-05
1.49101e-05
1.48268e-05
1.47293e-05
1.46448e-05
1.45412e-05
1.44546e-05
1.43437e-05
1.42486e-05
1.41115e-05
1.39869e-05
1.99999e-05
1.9837e-05
1.94941e-05
1.91842e-05
1.89498e-05
1.88082e-05
1.86536e-05
1.84902e-05
1.83363e-05
1.82141e-05
1.80892e-05
1.79758e-05
1.78526e-05
1.77422e-05
1.76236e-05
1.75166e-05
1.73957e-05
1.7288e-05
1.71644e-05
1.70603e-05
1.69401e-05
1.68393e-05
1.67202e-05
1.66237e-05
1.65108e-05
1.64174e-05
1.63086e-05
1.62144e-05
1.61125e-05
1.60188e-05
1.59168e-05
1.58273e-05
1.57252e-05
1.5635e-05
1.5535e-05
1.54462e-05
1.53484e-05
1.52618e-05
1.51629e-05
1.50767e-05
1.49789e-05
1.48951e-05
1.47978e-05
1.47136e-05
1.46113e-05
1.45256e-05
1.44168e-05
1.4324e-05
1.41888e-05
1.40717e-05
1.99999e-05
1.98406e-05
1.95067e-05
1.91966e-05
1.89568e-05
1.88133e-05
1.86659e-05
1.85084e-05
1.83532e-05
1.82325e-05
1.81108e-05
1.80018e-05
1.78826e-05
1.77768e-05
1.76615e-05
1.75583e-05
1.74411e-05
1.73368e-05
1.72155e-05
1.71152e-05
1.69969e-05
1.68988e-05
1.67811e-05
1.66882e-05
1.6576e-05
1.64857e-05
1.63779e-05
1.62869e-05
1.61854e-05
1.60932e-05
1.59932e-05
1.59046e-05
1.5803e-05
1.5714e-05
1.56142e-05
1.55267e-05
1.54289e-05
1.53421e-05
1.52439e-05
1.51592e-05
1.50613e-05
1.49774e-05
1.48811e-05
1.47982e-05
1.46977e-05
1.46137e-05
1.45079e-05
1.44181e-05
1.42867e-05
1.4182e-05
1.99999e-05
1.98444e-05
1.95199e-05
1.92116e-05
1.89671e-05
1.88209e-05
1.86792e-05
1.8529e-05
1.83728e-05
1.82535e-05
1.81347e-05
1.80301e-05
1.79155e-05
1.78144e-05
1.77024e-05
1.76036e-05
1.74901e-05
1.73894e-05
1.72711e-05
1.7175e-05
1.70583e-05
1.69635e-05
1.68477e-05
1.67585e-05
1.66471e-05
1.65605e-05
1.64542e-05
1.63664e-05
1.62653e-05
1.61757e-05
1.60776e-05
1.599e-05
1.58896e-05
1.5802e-05
1.57028e-05
1.56171e-05
1.55192e-05
1.54328e-05
1.5336e-05
1.52528e-05
1.51549e-05
1.50718e-05
1.49772e-05
1.48964e-05
1.47983e-05
1.47168e-05
1.4615e-05
1.45288e-05
1.4404e-05
1.43128e-05
1.99999e-05
1.98484e-05
1.95332e-05
1.9229e-05
1.89806e-05
1.88312e-05
1.86934e-05
1.85512e-05
1.83946e-05
1.82767e-05
1.816e-05
1.80602e-05
1.79505e-05
1.7854e-05
1.77455e-05
1.76514e-05
1.75416e-05
1.7445e-05
1.73302e-05
1.72381e-05
1.71229e-05
1.70319e-05
1.69185e-05
1.68328e-05
1.67229e-05
1.66399e-05
1.65357e-05
1.64509e-05
1.63506e-05
1.62645e-05
1.6168e-05
1.60815e-05
1.59829e-05
1.5897e-05
1.57989e-05
1.57149e-05
1.56171e-05
1.55319e-05
1.5437e-05
1.53552e-05
1.52577e-05
1.51765e-05
1.50843e-05
1.50061e-05
1.49108e-05
1.48327e-05
1.47358e-05
1.46542e-05
1.45379e-05
1.44581e-05
1.99999e-05
1.98526e-05
1.95465e-05
1.92484e-05
1.8997e-05
1.88442e-05
1.87085e-05
1.85741e-05
1.84183e-05
1.83014e-05
1.81864e-05
1.80918e-05
1.79867e-05
1.78946e-05
1.77903e-05
1.77009e-05
1.75946e-05
1.75026e-05
1.73917e-05
1.73032e-05
1.71897e-05
1.7103e-05
1.69922e-05
1.69095e-05
1.68023e-05
1.67225e-05
1.66208e-05
1.65386e-05
1.644e-05
1.63579e-05
1.62623e-05
1.61777e-05
1.60811e-05
1.59972e-05
1.59005e-05
1.5818e-05
1.57209e-05
1.56378e-05
1.55447e-05
1.54641e-05
1.5368e-05
1.52896e-05
1.52001e-05
1.51249e-05
1.5033e-05
1.49591e-05
1.48677e-05
1.47916e-05
1.46844e-05
1.46126e-05
1.99999e-05
1.98568e-05
1.95597e-05
1.92696e-05
1.90158e-05
1.886e-05
1.87245e-05
1.85973e-05
1.84433e-05
1.83273e-05
1.82134e-05
1.81242e-05
1.80233e-05
1.79358e-05
1.78359e-05
1.7751e-05
1.76483e-05
1.75615e-05
1.74543e-05
1.73689e-05
1.72579e-05
1.71756e-05
1.70675e-05
1.69873e-05
1.68839e-05
1.68068e-05
1.67078e-05
1.66282e-05
1.65322e-05
1.6454e-05
1.63589e-05
1.62769e-05
1.61826e-05
1.61011e-05
1.60058e-05
1.59247e-05
1.58291e-05
1.57486e-05
1.5657e-05
1.55779e-05
1.5484e-05
1.54091e-05
1.53227e-05
1.52508e-05
1.51628e-05
1.50941e-05
1.50085e-05
1.49379e-05
1.48386e-05
1.4772e-05
1.99999e-05
1.98611e-05
1.95728e-05
1.92918e-05
1.90366e-05
1.88784e-05
1.87412e-05
1.86205e-05
1.84691e-05
1.83538e-05
1.82409e-05
1.81568e-05
1.80596e-05
1.7977e-05
1.78817e-05
1.7801e-05
1.77023e-05
1.76209e-05
1.75169e-05
1.74345e-05
1.73268e-05
1.72486e-05
1.71429e-05
1.70655e-05
1.69665e-05
1.68917e-05
1.67953e-05
1.67188e-05
1.66259e-05
1.65511e-05
1.64567e-05
1.63779e-05
1.62862e-05
1.62069e-05
1.61129e-05
1.60337e-05
1.59401e-05
1.58624e-05
1.57722e-05
1.56952e-05
1.56042e-05
1.55332e-05
1.54502e-05
1.53818e-05
1.52983e-05
1.52353e-05
1.51554e-05
1.50897e-05
1.49965e-05
1.49327e-05
1.99999e-05
1.98653e-05
1.95859e-05
1.93144e-05
1.90592e-05
1.88992e-05
1.87586e-05
1.86435e-05
1.84951e-05
1.83807e-05
1.82685e-05
1.81889e-05
1.80953e-05
1.80178e-05
1.79268e-05
1.78504e-05
1.77562e-05
1.76798e-05
1.75785e-05
1.74999e-05
1.73955e-05
1.73212e-05
1.72175e-05
1.71439e-05
1.70485e-05
1.69762e-05
1.68824e-05
1.68097e-05
1.67197e-05
1.66477e-05
1.65547e-05
1.64796e-05
1.63903e-05
1.63134e-05
1.62207e-05
1.61437e-05
1.60527e-05
1.59777e-05
1.5889e-05
1.58146e-05
1.57273e-05
1.56604e-05
1.55806e-05
1.55164e-05
1.54379e-05
1.53803e-05
1.53052e-05
1.52437e-05
1.51545e-05
1.50915e-05
1.99999e-05
1.98695e-05
1.95992e-05
1.93369e-05
1.90834e-05
1.89219e-05
1.87769e-05
1.86664e-05
1.85207e-05
1.84075e-05
1.8296e-05
1.82204e-05
1.813e-05
1.80579e-05
1.79709e-05
1.78991e-05
1.78095e-05
1.77375e-05
1.76389e-05
1.75646e-05
1.74633e-05
1.73924e-05
1.72908e-05
1.72218e-05
1.71289e-05
1.70597e-05
1.69684e-05
1.69e-05
1.68125e-05
1.67431e-05
1.66523e-05
1.65811e-05
1.6494e-05
1.64195e-05
1.63283e-05
1.6254e-05
1.61657e-05
1.60935e-05
1.60063e-05
1.59352e-05
1.5852e-05
1.57892e-05
1.57127e-05
1.5653e-05
1.55796e-05
1.55269e-05
1.54555e-05
1.53969e-05
1.53099e-05
1.52453e-05
1.99999e-05
1.98737e-05
1.96124e-05
1.93589e-05
1.91088e-05
1.89461e-05
1.87962e-05
1.86891e-05
1.85455e-05
1.84339e-05
1.83232e-05
1.82508e-05
1.81633e-05
1.80967e-05
1.80138e-05
1.79466e-05
1.78615e-05
1.77935e-05
1.7698e-05
1.76281e-05
1.75295e-05
1.74616e-05
1.73628e-05
1.72984e-05
1.72071e-05
1.71416e-05
1.70527e-05
1.6989e-05
1.69035e-05
1.68368e-05
1.6749e-05
1.66816e-05
1.65962e-05
1.65244e-05
1.6435e-05
1.63637e-05
1.62784e-05
1.62087e-05
1.61233e-05
1.60562e-05
1.59774e-05
1.59186e-05
1.58454e-05
1.57901e-05
1.57215e-05
1.56729e-05
1.5604e-05
1.55467e-05
1.54598e-05
1.53921e-05
1.99999e-05
1.98777e-05
1.96252e-05
1.93805e-05
1.91351e-05
1.89715e-05
1.88169e-05
1.87112e-05
1.85692e-05
1.84597e-05
1.83496e-05
1.82801e-05
1.81951e-05
1.81342e-05
1.80553e-05
1.79927e-05
1.79118e-05
1.78479e-05
1.77558e-05
1.76899e-05
1.75937e-05
1.7529e-05
1.74332e-05
1.73726e-05
1.72831e-05
1.72216e-05
1.7135e-05
1.70761e-05
1.69921e-05
1.69287e-05
1.68443e-05
1.67804e-05
1.66967e-05
1.66278e-05
1.65403e-05
1.64725e-05
1.63898e-05
1.63227e-05
1.62398e-05
1.61769e-05
1.61025e-05
1.60476e-05
1.59775e-05
1.59264e-05
1.58622e-05
1.58166e-05
1.57486e-05
1.56909e-05
1.56023e-05
1.55304e-05
1.99999e-05
1.98816e-05
1.96375e-05
1.94019e-05
1.91618e-05
1.89978e-05
1.8839e-05
1.87329e-05
1.85919e-05
1.84848e-05
1.8375e-05
1.83081e-05
1.82254e-05
1.81701e-05
1.80951e-05
1.80372e-05
1.79603e-05
1.79008e-05
1.78118e-05
1.77497e-05
1.76556e-05
1.75948e-05
1.75014e-05
1.74443e-05
1.7357e-05
1.72993e-05
1.72154e-05
1.71605e-05
1.70783e-05
1.70189e-05
1.69377e-05
1.6877e-05
1.67952e-05
1.67295e-05
1.66442e-05
1.65796e-05
1.64996e-05
1.64355e-05
1.63552e-05
1.6297e-05
1.62267e-05
1.61751e-05
1.61081e-05
1.60612e-05
1.60001e-05
1.59558e-05
1.58874e-05
1.58278e-05
1.57361e-05
1.56595e-05
1.99999e-05
1.98854e-05
1.96495e-05
1.94227e-05
1.91886e-05
1.90249e-05
1.88622e-05
1.87541e-05
1.86134e-05
1.8509e-05
1.83991e-05
1.83345e-05
1.82544e-05
1.82041e-05
1.8133e-05
1.808e-05
1.8007e-05
1.79519e-05
1.7866e-05
1.78075e-05
1.77155e-05
1.76587e-05
1.75672e-05
1.75134e-05
1.74288e-05
1.73746e-05
1.72934e-05
1.72421e-05
1.71619e-05
1.71071e-05
1.70288e-05
1.69711e-05
1.68915e-05
1.68293e-05
1.67464e-05
1.66851e-05
1.66075e-05
1.65464e-05
1.64698e-05
1.64161e-05
1.63487e-05
1.63004e-05
1.62371e-05
1.61935e-05
1.61335e-05
1.6089e-05
1.6019e-05
1.59561e-05
1.58608e-05
1.57797e-05
1.99999e-05
1.98891e-05
1.96612e-05
1.94428e-05
1.92153e-05
1.90525e-05
1.88863e-05
1.87752e-05
1.8634e-05
1.85319e-05
1.84218e-05
1.83595e-05
1.82819e-05