/*--------------------------------*- C++ -*----------------------------------*\
  =========                 |
  \\      /  F ield         | OpenFOAM: The Open Source CFD Toolbox
   \\    /   O peration     | Website:  https://openfoam.org
    \\  /    A nd           | Version:  7
     \\/     M anipulation  |
\*---------------------------------------------------------------------------*/
FoamFile
{
    version     2.0;
    format      ascii;
    class       volScalarField;
    location    "0.36";
    object      k_0;
}
// * * * * * * * * * * * * * * * * * * * * * * * * * * * * * * * * * * * * * //

dimensions      [0 2 -2 0 0 0 0];

internalField   nonuniform List<scalar> 
70000
(
1.08549e-05
4.21873e-06
2.82424e-06
2.3167e-06
1.99738e-06
1.75716e-06
1.56517e-06
1.40844e-06
1.27758e-06
1.16701e-06
1.07197e-06
9.90077e-07
9.18404e-07
8.55833e-07
8.003e-07
7.51334e-07
7.07301e-07
6.6817e-07
6.32537e-07
6.00728e-07
5.71403e-07
5.4519e-07
5.20702e-07
4.98825e-07
4.78109e-07
4.59637e-07
4.41918e-07
4.26142e-07
4.10844e-07
3.97231e-07
3.83909e-07
3.72082e-07
3.60349e-07
3.50073e-07
3.39544e-07
3.30721e-07
3.21001e-07
3.13597e-07
3.04373e-07
2.98261e-07
2.89452e-07
2.84294e-07
2.75945e-07
2.71544e-07
2.63426e-07
2.59546e-07
2.51304e-07
2.55338e-07
2.4893e-07
2.97153e-07
1.72794e-05
1.13672e-05
8.52023e-06
7.01011e-06
6.0368e-06
5.31087e-06
4.73136e-06
4.25802e-06
3.86279e-06
3.52885e-06
3.24185e-06
2.99451e-06
2.77805e-06
2.58905e-06
2.4213e-06
2.27336e-06
2.14031e-06
2.02206e-06
1.91435e-06
1.81822e-06
1.72956e-06
1.65032e-06
1.57628e-06
1.51013e-06
1.4475e-06
1.39162e-06
1.33807e-06
1.29031e-06
1.24408e-06
1.20286e-06
1.16259e-06
1.12679e-06
1.09128e-06
1.06023e-06
1.02828e-06
1.0017e-06
9.72126e-07
9.49868e-07
9.21811e-07
9.0338e-07
8.76676e-07
8.6106e-07
8.3575e-07
8.22445e-07
7.97881e-07
7.86054e-07
7.60681e-07
7.67679e-07
7.53248e-07
8.02033e-07
1.937e-05
1.61297e-05
1.32907e-05
1.12892e-05
9.82789e-06
8.69587e-06
7.778e-06
7.02091e-06
6.3841e-06
5.84333e-06
5.37691e-06
4.97373e-06
4.62003e-06
4.3105e-06
4.03524e-06
3.79206e-06
3.57293e-06
3.37796e-06
3.20005e-06
3.04118e-06
2.8944e-06
2.76318e-06
2.64041e-06
2.53064e-06
2.42669e-06
2.33375e-06
2.24482e-06
2.16521e-06
2.0884e-06
2.0196e-06
1.95259e-06
1.89287e-06
1.83356e-06
1.78193e-06
1.72827e-06
1.68426e-06
1.63441e-06
1.59759e-06
1.55037e-06
1.5197e-06
1.47494e-06
1.44884e-06
1.40637e-06
1.38418e-06
1.34303e-06
1.32319e-06
1.28016e-06
1.28386e-06
1.26966e-06
1.28882e-06
1.9861e-05
1.82601e-05
1.60855e-05
1.42001e-05
1.26396e-05
1.13486e-05
1.02603e-05
9.3388e-06
8.5469e-06
7.86431e-06
7.26906e-06
6.75e-06
6.29119e-06
5.88716e-06
5.52577e-06
5.20491e-06
4.91428e-06
4.65483e-06
4.41699e-06
4.20419e-06
4.0068e-06
3.83005e-06
3.6642e-06
3.51555e-06
3.37466e-06
3.24817e-06
3.1273e-06
3.01848e-06
2.91382e-06
2.81951e-06
2.72784e-06
2.64599e-06
2.56434e-06
2.49381e-06
2.4194e-06
2.35949e-06
2.29008e-06
2.23987e-06
2.17427e-06
2.13214e-06
2.07008e-06
2.03416e-06
1.97515e-06
1.94466e-06
1.88749e-06
1.86035e-06
1.80155e-06
1.79591e-06
1.78972e-06
1.77638e-06
1.99706e-05
1.7846e-05
1.60748e-05
1.47669e-05
1.36025e-05
1.2538e-05
1.15691e-05
1.0702e-05
9.92036e-06
9.22534e-06
8.60453e-06
8.05242e-06
7.55599e-06
7.11283e-06
6.71108e-06
6.35058e-06
6.02038e-06
5.72352e-06
5.44891e-06
5.20205e-06
4.97133e-06
4.76384e-06
4.56808e-06
4.39169e-06
4.22414e-06
4.07259e-06
3.92792e-06
3.79653e-06
3.67047e-06
3.55607e-06
3.44479e-06
3.34543e-06
3.24533e-06
3.15986e-06
3.06784e-06
2.99523e-06
2.9091e-06
2.84793e-06
2.76655e-06
2.71491e-06
2.63781e-06
2.59376e-06
2.52029e-06
2.48288e-06
2.4115e-06
2.37915e-06
2.30988e-06
2.28772e-06
2.28412e-06
2.2493e-06
2.00095e-05
1.47038e-05
1.37482e-05
1.32119e-05
1.25921e-05
1.19282e-05
1.12783e-05
1.06582e-05
1.00803e-05
9.54655e-06
9.04507e-06
8.57923e-06
8.14484e-06
7.74585e-06
7.3735e-06
7.03213e-06
6.71268e-06
6.42166e-06
6.14799e-06
5.89955e-06
5.66417e-06
5.45052e-06
5.247e-06
5.06176e-06
4.88497e-06
4.72309e-06
4.5684e-06
4.42627e-06
4.28985e-06
4.16515e-06
4.0431e-06
3.9344e-06
3.82312e-06
3.72937e-06
3.62604e-06
3.54597e-06
3.44876e-06
3.38082e-06
3.28858e-06
3.23098e-06
3.14318e-06
3.09387e-06
3.01006e-06
2.96799e-06
2.88647e-06
2.85052e-06
2.7775e-06
2.73689e-06
2.73064e-06
2.6831e-06
2.01332e-05
1.54669e-05
9.63479e-06
9.39956e-06
9.4945e-06
9.49395e-06
9.43533e-06
9.29708e-06
9.05553e-06
8.78182e-06
8.48594e-06
8.18891e-06
7.8962e-06
7.61377e-06
7.33592e-06
7.07661e-06
6.82804e-06
6.59591e-06
6.37073e-06
6.162e-06
5.95904e-06
5.77137e-06
5.58938e-06
5.42078e-06
5.25814e-06
5.10622e-06
4.96044e-06
4.82444e-06
4.69312e-06
4.57218e-06
4.45214e-06
4.34569e-06
4.23415e-06
4.14145e-06
4.03651e-06
3.9564e-06
3.8567e-06
3.78816e-06
3.69251e-06
3.63411e-06
3.54241e-06
3.49191e-06
3.40427e-06
3.36067e-06
3.27572e-06
3.23727e-06
3.16822e-06
3.11196e-06
3.10198e-06
3.04762e-06
2.01713e-05
1.86755e-05
8.68966e-06
5.54092e-06
5.63166e-06
5.93639e-06
6.29464e-06
6.57996e-06
6.75881e-06
6.86721e-06
6.88563e-06
6.86607e-06
6.81322e-06
6.72527e-06
6.61381e-06
6.49311e-06
6.35453e-06
6.21445e-06
6.07035e-06
5.93074e-06
5.78874e-06
5.65321e-06
5.51805e-06
5.38931e-06
5.26264e-06
5.14302e-06
5.02733e-06
4.91704e-06
4.80872e-06
4.70791e-06
4.60524e-06
4.51451e-06
4.41633e-06
4.33564e-06
4.24126e-06
4.17021e-06
4.07879e-06
4.01731e-06
3.92782e-06
3.87488e-06
3.78836e-06
3.74169e-06
3.65885e-06
3.61747e-06
3.53857e-06
3.49713e-06
3.44146e-06
3.37688e-06
3.36459e-06
3.31144e-06
2.01672e-05
1.97238e-05
1.61657e-05
4.85898e-06
3.04282e-06
3.1066e-06
3.3762e-06
3.80627e-06
4.1716e-06
4.48919e-06
4.73548e-06
4.92477e-06
5.06428e-06
5.16474e-06
5.22257e-06
5.25911e-06
5.26281e-06
5.25463e-06
5.23244e-06
5.19557e-06
5.14717e-06
5.09319e-06
5.0329e-06
4.96888e-06
4.90211e-06
4.83205e-06
4.76027e-06
4.68848e-06
4.61523e-06
4.54583e-06
4.47216e-06
4.40704e-06
4.33348e-06
4.27352e-06
4.20022e-06
4.14612e-06
4.07271e-06
4.02526e-06
3.95247e-06
3.91134e-06
3.84019e-06
3.8027e-06
3.73428e-06
3.69912e-06
3.63646e-06
3.59495e-06
3.55676e-06
3.49582e-06
3.48423e-06
3.44403e-06
2.01477e-05
1.99342e-05
1.9065e-05
1.44954e-05
5.23767e-06
2.15417e-06
1.9147e-06
1.9943e-06
2.20806e-06
2.50663e-06
2.78167e-06
3.03469e-06
3.25835e-06
3.45522e-06
3.61791e-06
3.75676e-06
3.86764e-06
3.95725e-06
4.02786e-06
4.08185e-06
4.12045e-06
4.14565e-06
4.16134e-06
4.16516e-06
4.16254e-06
4.15522e-06
4.14126e-06
4.12266e-06
4.09916e-06
4.07467e-06
4.04401e-06
4.01613e-06
3.98041e-06
3.95103e-06
3.91105e-06
3.88252e-06
3.8388e-06
3.81222e-06
3.76478e-06
3.73926e-06
3.69078e-06
3.66594e-06
3.61842e-06
3.59324e-06
3.55133e-06
3.51752e-06
3.49465e-06
3.44766e-06
3.43996e-06
3.41581e-06
2.01216e-05
1.99661e-05
1.96421e-05
1.85449e-05
1.52075e-05
8.34842e-06
3.09913e-06
1.6323e-06
1.44214e-06
1.44935e-06
1.52643e-06
1.68754e-06
1.86879e-06
2.04586e-06
2.2149e-06
2.37464e-06
2.52097e-06
2.65293e-06
2.77086e-06
2.87526e-06
2.96729e-06
3.0463e-06
3.11534e-06
3.17299e-06
3.22214e-06
3.26249e-06
3.29649e-06
3.3234e-06
3.34425e-06
3.36062e-06
3.37113e-06
3.37901e-06
3.38212e-06
3.38206e-06
3.37961e-06
3.37622e-06
3.36737e-06
3.36175e-06
3.34864e-06
3.34136e-06
3.32521e-06
3.31662e-06
3.29847e-06
3.28874e-06
3.27234e-06
3.25667e-06
3.24831e-06
3.22819e-06
3.22891e-06
3.22095e-06
2.00982e-05
1.99328e-05
1.97571e-05
1.93517e-05
1.85041e-05
1.65318e-05
1.23167e-05
6.84766e-06
2.98028e-06
1.49188e-06
1.24263e-06
1.1473e-06
1.15152e-06
1.19407e-06
1.28623e-06
1.3933e-06
1.50538e-06
1.6155e-06
1.72548e-06
1.83073e-06
1.93126e-06
2.02461e-06
2.11221e-06
2.19203e-06
2.26645e-06
2.33305e-06
2.39475e-06
2.44972e-06
2.49986e-06
2.54442e-06
2.58439e-06
2.62014e-06
2.65123e-06
2.67976e-06
2.70259e-06
2.72587e-06
2.74191e-06
2.76056e-06
2.77135e-06
2.78591e-06
2.79326e-06
2.80396e-06
2.80916e-06
2.81647e-06
2.82213e-06
2.82542e-06
2.83296e-06
2.83583e-06
2.84935e-06
2.85463e-06
2.00782e-05
1.98876e-05
1.97567e-05
1.94601e-05
1.91443e-05
1.86387e-05
1.75511e-05
1.5419e-05
1.17303e-05
7.43581e-06
3.97647e-06
1.91196e-06
1.2081e-06
1.05688e-06
9.81696e-07
9.42436e-07
9.53652e-07
9.8777e-07
1.05002e-06
1.11411e-06
1.18369e-06
1.25387e-06
1.32523e-06
1.39566e-06
1.46545e-06
1.53157e-06
1.59613e-06
1.65652e-06
1.71489e-06
1.76909e-06
1.82081e-06
1.86935e-06
1.91409e-06
1.95742e-06
1.99553e-06
2.03391e-06
2.06654e-06
2.10024e-06
2.12825e-06
2.1573e-06
2.18292e-06
2.20665e-06
2.23091e-06
2.25065e-06
2.27482e-06
2.29064e-06
2.31648e-06
2.32995e-06
2.35696e-06
2.37989e-06
2.00614e-05
1.98539e-05
1.97341e-05
1.94704e-05
1.92537e-05
1.90449e-05
1.87332e-05
1.81874e-05
1.70924e-05
1.52276e-05
1.25613e-05
9.23126e-06
5.97108e-06
3.47848e-06
1.88158e-06
1.16786e-06
9.64612e-07
8.90842e-07
8.36336e-07
7.96613e-07
7.98618e-07
8.12478e-07
8.42771e-07
8.81922e-07
9.22511e-07
9.65507e-07
1.01094e-06
1.05627e-06
1.10329e-06
1.14931e-06
1.19526e-06
1.24028e-06
1.28325e-06
1.32652e-06
1.36634e-06
1.40699e-06
1.44415e-06
1.48198e-06
1.51639e-06
1.55072e-06
1.58477e-06
1.61402e-06
1.64782e-06
1.67475e-06
1.70723e-06
1.7327e-06
1.76614e-06
1.78884e-06
1.82445e-06
1.85425e-06
2.00475e-05
1.98304e-05
1.97075e-05
1.94481e-05
1.92706e-05
1.91128e-05
1.89627e-05
1.87478e-05
1.84595e-05
1.79101e-05
1.70756e-05
1.56998e-05
1.38845e-05
1.15362e-05
8.85893e-06
6.24999e-06
4.07762e-06
2.50359e-06
1.50467e-06
1.03011e-06
8.62604e-07
7.99132e-07
7.50861e-07
7.11227e-07
6.82065e-07
6.80586e-07
6.86799e-07
7.01769e-07
7.24394e-07
7.48943e-07
7.7476e-07
8.02481e-07
8.30789e-07
8.61476e-07
8.91077e-07
9.22974e-07
9.53489e-07
9.85469e-07
1.01552e-06
1.04624e-06
1.07799e-06
1.10544e-06
1.13797e-06
1.16603e-06
1.19644e-06
1.22588e-06
1.25763e-06
1.28356e-06
1.32165e-06
1.35084e-06
2.00362e-05
1.98125e-05
1.9685e-05
1.94178e-05
1.92563e-05
1.91063e-05
1.89975e-05
1.88466e-05
1.87096e-05
1.84989e-05
1.82469e-05
1.78326e-05
1.72332e-05
1.63646e-05
1.51658e-05
1.3632e-05
1.18234e-05
9.73688e-06
7.58908e-06
5.5852e-06
3.90263e-06
2.62226e-06
1.70718e-06
1.149e-06
8.7582e-07
7.6316e-07
7.10977e-07
6.73815e-07
6.3818e-07
6.09715e-07
5.90232e-07
5.85607e-07
5.88294e-07
5.95751e-07
6.07507e-07
6.22773e-07
6.38014e-07
6.55641e-07
6.72649e-07
6.92001e-07
7.12946e-07
7.32156e-07
7.55494e-07
7.77778e-07
8.00218e-07
8.25015e-07
8.49874e-07
8.72981e-07
9.04945e-07
9.28082e-07
2.00272e-05
1.97987e-05
1.96658e-05
1.93958e-05
1.92305e-05
1.90786e-05
1.89793e-05
1.88497e-05
1.87336e-05
1.85945e-05
1.84591e-05
1.82896e-05
1.80822e-05
1.77969e-05
1.74119e-05
1.68692e-05
1.61618e-05
1.52402e-05
1.40969e-05
1.27522e-05
1.12448e-05
9.57514e-06
7.85584e-06
6.21002e-06
4.71872e-06
3.47939e-06
2.49969e-06
1.75431e-06
1.23433e-06
9.21431e-07
7.57389e-07
6.78652e-07
6.36123e-07
6.06163e-07
5.78095e-07
5.5232e-07
5.30705e-07
5.17055e-07
5.09614e-07
5.10255e-07
5.13259e-07
5.19159e-07
5.28374e-07
5.38694e-07
5.49365e-07
5.62283e-07
5.76191e-07
5.91801e-07
6.1009e-07
6.25463e-07
2.002e-05
1.979e-05
1.96459e-05
1.93792e-05
1.92062e-05
1.90491e-05
1.89409e-05
1.88229e-05
1.87119e-05
1.85876e-05
1.8471e-05
1.83455e-05
1.82223e-05
1.80799e-05
1.79242e-05
1.77249e-05
1.74821e-05
1.71619e-05
1.67576e-05
1.62332e-05
1.55957e-05
1.4811e-05
1.38906e-05
1.28249e-05
1.16645e-05
1.03982e-05
9.05021e-06
7.687e-06
6.36144e-06
5.13949e-06
4.03819e-06
3.12323e-06
2.37359e-06
1.77248e-06
1.31488e-06
9.94527e-07
7.9377e-07
6.78535e-07
6.15266e-07
5.78349e-07
5.52054e-07
5.29437e-07
5.08717e-07
4.8929e-07
4.73367e-07
4.62631e-07
4.57301e-07
4.58077e-07
4.61269e-07
4.68024e-07
2.00145e-05
1.97899e-05
1.96198e-05
1.93655e-05
1.91858e-05
1.90216e-05
1.89049e-05
1.87859e-05
1.86717e-05
1.85514e-05
1.84404e-05
1.83238e-05
1.8213e-05
1.8095e-05
1.79823e-05
1.78596e-05
1.77368e-05
1.75921e-05
1.74339e-05
1.72379e-05
1.70076e-05
1.67209e-05
1.63777e-05
1.59546e-05
1.54577e-05
1.4871e-05
1.41982e-05
1.34244e-05
1.2578e-05
1.16414e-05
1.06718e-05
9.62913e-06
8.54864e-06
7.46342e-06
6.40504e-06
5.39876e-06
4.47526e-06
3.63865e-06
2.92719e-06
2.32382e-06
1.81939e-06
1.40851e-06
1.09217e-06
8.6609e-07
7.1752e-07
6.27665e-07
5.7318e-07
5.44405e-07
5.24312e-07
5.24971e-07
2.00102e-05
1.97939e-05
1.95932e-05
1.93514e-05
1.91671e-05
1.89953e-05
1.88713e-05
1.87491e-05
1.86315e-05
1.85082e-05
1.83945e-05
1.82779e-05
1.8168e-05
1.80574e-05
1.79502e-05
1.78407e-05
1.77348e-05
1.76239e-05
1.7517e-05
1.74041e-05
1.72861e-05
1.71576e-05
1.70149e-05
1.68497e-05
1.66613e-05
1.64393e-05
1.6182e-05
1.58775e-05
1.55292e-05
1.51224e-05
1.4664e-05
1.41514e-05
1.35722e-05
1.29419e-05
1.22474e-05
1.15158e-05
1.07308e-05
9.92833e-06
9.07833e-06
8.20174e-06
7.31845e-06
6.44167e-06
5.58931e-06
4.77719e-06
4.01691e-06
3.32792e-06
2.73083e-06
2.23606e-06
1.82917e-06
1.56107e-06
2.0007e-05
1.98013e-05
1.95688e-05
1.93377e-05
1.91496e-05
1.89705e-05
1.88392e-05
1.87139e-05
1.85921e-05
1.84663e-05
1.83476e-05
1.82299e-05
1.81151e-05
1.80043e-05
1.78934e-05
1.77852e-05
1.76822e-05
1.75778e-05
1.74768e-05
1.73785e-05
1.72761e-05
1.71794e-05
1.70784e-05
1.69787e-05
1.68744e-05
1.67678e-05
1.66496e-05
1.65216e-05
1.63811e-05
1.62192e-05
1.60397e-05
1.5839e-05
1.56045e-05
1.53492e-05
1.50488e-05
1.4729e-05
1.43567e-05
1.39604e-05
1.35163e-05
1.3037e-05
1.25104e-05
1.19484e-05
1.13386e-05
1.07069e-05
1.00194e-05
9.32676e-06
8.56367e-06
7.8026e-06
7.00911e-06
6.26501e-06
2.00047e-05
1.98099e-05
1.9546e-05
1.93242e-05
1.91324e-05
1.89473e-05
1.88081e-05
1.86801e-05
1.8554e-05
1.84262e-05
1.83022e-05
1.8183e-05
1.80628e-05
1.79515e-05
1.78352e-05
1.77261e-05
1.76182e-05
1.75119e-05
1.74078e-05
1.73103e-05
1.7208e-05
1.71182e-05
1.70221e-05
1.69326e-05
1.68416e-05
1.67556e-05
1.66642e-05
1.65747e-05
1.64892e-05
1.63929e-05
1.63028e-05
1.62051e-05
1.60984e-05
1.59892e-05
1.58594e-05
1.57351e-05
1.55773e-05
1.54228e-05
1.52364e-05
1.50427e-05
1.48167e-05
1.45769e-05
1.42956e-05
1.40166e-05
1.36666e-05
1.33167e-05
1.29183e-05
1.24702e-05
1.19893e-05
1.14692e-05
2.0003e-05
1.98191e-05
1.95246e-05
1.93104e-05
1.91152e-05
1.89257e-05
1.87781e-05
1.86474e-05
1.85173e-05
1.83877e-05
1.82589e-05
1.81378e-05
1.80128e-05
1.79006e-05
1.77789e-05
1.76683e-05
1.75565e-05
1.74472e-05
1.73398e-05
1.72397e-05
1.71327e-05
1.70401e-05
1.69404e-05
1.68488e-05
1.67566e-05
1.66729e-05
1.65862e-05
1.65018e-05
1.64251e-05
1.63386e-05
1.6265e-05
1.61856e-05
1.61063e-05
1.60274e-05
1.59444e-05
1.58725e-05
1.57826e-05
1.57065e-05
1.56132e-05
1.55282e-05
1.54239e-05
1.53244e-05
1.51985e-05
1.50956e-05
1.49425e-05
1.47913e-05
1.46414e-05
1.44318e-05
1.42025e-05
1.39822e-05
2.00018e-05
1.98279e-05
1.95049e-05
1.92957e-05
1.90976e-05
1.89056e-05
1.87495e-05
1.8616e-05
1.84823e-05
1.83512e-05
1.82182e-05
1.80949e-05
1.7966e-05
1.78522e-05
1.77261e-05
1.76135e-05
1.74984e-05
1.73858e-05
1.72759e-05
1.71723e-05
1.70622e-05
1.69664e-05
1.68632e-05
1.67681e-05
1.66727e-05
1.6585e-05
1.64941e-05
1.64058e-05
1.63257e-05
1.62378e-05
1.61628e-05
1.60847e-05
1.60112e-05
1.5935e-05
1.58613e-05
1.57954e-05
1.57193e-05
1.56559e-05
1.55813e-05
1.55194e-05
1.54395e-05
1.53763e-05
1.52934e-05
1.52383e-05
1.51527e-05
1.50676e-05
1.49971e-05
1.48954e-05
1.47608e-05
1.46504e-05
2.00009e-05
1.98305e-05
1.94884e-05
1.92807e-05
1.908e-05
1.88878e-05
1.87232e-05
1.85864e-05
1.84495e-05
1.83169e-05
1.81805e-05
1.80546e-05
1.79233e-05
1.78071e-05
1.76777e-05
1.75629e-05
1.74445e-05
1.73292e-05
1.72168e-05
1.71097e-05
1.69972e-05
1.68983e-05
1.6792e-05
1.66943e-05
1.65953e-05
1.65052e-05
1.64106e-05
1.63196e-05
1.62335e-05
1.61456e-05
1.60637e-05
1.59833e-05
1.59041e-05
1.5823e-05
1.57465e-05
1.56766e-05
1.5599e-05
1.55336e-05
1.54591e-05
1.54018e-05
1.53251e-05
1.52678e-05
1.51935e-05
1.51429e-05
1.50709e-05
1.50011e-05
1.49353e-05
1.48632e-05
1.4746e-05
1.46508e-05
2.00003e-05
1.98289e-05
1.94749e-05
1.92649e-05
1.90622e-05
1.88718e-05
1.8699e-05
1.85587e-05
1.84192e-05
1.82854e-05
1.81464e-05
1.80178e-05
1.78851e-05
1.7766e-05
1.76344e-05
1.75174e-05
1.73959e-05
1.72787e-05
1.71635e-05
1.70534e-05
1.69386e-05
1.68369e-05
1.67275e-05
1.66279e-05
1.65255e-05
1.64335e-05
1.63359e-05
1.62426e-05
1.61514e-05
1.60643e-05
1.59762e-05
1.58947e-05
1.58104e-05
1.57269e-05
1.5645e-05
1.55725e-05
1.54897e-05
1.54212e-05
1.53414e-05
1.52785e-05
1.51972e-05
1.51326e-05
1.50585e-05
1.49979e-05
1.49256e-05
1.48561e-05
1.47769e-05
1.47129e-05
1.46004e-05
1.44972e-05
2e-05
1.98272e-05
1.94635e-05
1.92478e-05
1.90436e-05
1.88572e-05
1.86771e-05
1.85329e-05
1.83914e-05
1.82569e-05
1.8116e-05
1.79851e-05
1.78517e-05
1.77298e-05
1.75968e-05
1.7478e-05
1.73534e-05
1.72351e-05
1.71168e-05
1.70047e-05
1.68873e-05
1.67834e-05
1.66712e-05
1.65699e-05
1.64645e-05
1.63706e-05
1.62705e-05
1.61751e-05
1.608e-05
1.5993e-05
1.59006e-05
1.58174e-05
1.5729e-05
1.56444e-05
1.5558e-05
1.54833e-05
1.53972e-05
1.53247e-05
1.5243e-05
1.51737e-05
1.50909e-05
1.50191e-05
1.49434e-05
1.4876e-05
1.47969e-05
1.47273e-05
1.46357e-05
1.4564e-05
1.44493e-05
1.43242e-05
1.99999e-05
1.9826e-05
1.94553e-05
1.92302e-05
1.90249e-05
1.88443e-05
1.8658e-05
1.85096e-05
1.83666e-05
1.82319e-05
1.80898e-05
1.79573e-05
1.78236e-05
1.76991e-05
1.75654e-05
1.74452e-05
1.73179e-05
1.71993e-05
1.70778e-05
1.69645e-05
1.68445e-05
1.67388e-05
1.66241e-05
1.65212e-05
1.64136e-05
1.63178e-05
1.62154e-05
1.6118e-05
1.60201e-05
1.59325e-05
1.58371e-05
1.57515e-05
1.56601e-05
1.55745e-05
1.5485e-05
1.54073e-05
1.53199e-05
1.52428e-05
1.51607e-05
1.50861e-05
1.50013e-05
1.49259e-05
1.48466e-05
1.47769e-05
1.46898e-05
1.46203e-05
1.45213e-05
1.44415e-05
1.43238e-05
1.41854e-05
1.99999e-05
1.98253e-05
1.94501e-05
1.92135e-05
1.90072e-05
1.88335e-05
1.86426e-05
1.84897e-05
1.83455e-05
1.82111e-05
1.80683e-05
1.79352e-05
1.78012e-05
1.76749e-05
1.75411e-05
1.742e-05
1.72905e-05
1.71719e-05
1.70475e-05
1.69337e-05
1.68113e-05
1.67043e-05
1.65876e-05
1.64833e-05
1.63739e-05
1.62764e-05
1.61717e-05
1.60729e-05
1.59729e-05
1.5884e-05
1.57866e-05
1.56984e-05
1.56046e-05
1.55181e-05
1.5426e-05
1.53453e-05
1.52568e-05
1.51766e-05
1.50924e-05
1.50156e-05
1.49264e-05
1.48509e-05
1.47663e-05
1.46964e-05
1.46023e-05
1.45318e-05
1.44286e-05
1.43419e-05
1.42194e-05
1.40758e-05
1.99999e-05
1.98251e-05
1.94476e-05
1.91984e-05
1.8991e-05
1.88247e-05
1.86312e-05
1.84738e-05
1.83287e-05
1.81949e-05
1.80523e-05
1.79193e-05
1.77851e-05
1.7658e-05
1.75244e-05
1.7403e-05
1.72721e-05
1.71536e-05
1.70271e-05
1.6913e-05
1.67887e-05
1.66808e-05
1.65626e-05
1.64573e-05
1.63462e-05
1.62477e-05
1.61409e-05
1.60409e-05
1.59396e-05
1.58492e-05
1.57501e-05
1.56596e-05
1.55637e-05
1.54763e-05
1.53823e-05
1.52988e-05
1.52087e-05
1.51269e-05
1.50394e-05
1.49615e-05
1.48679e-05
1.47926e-05
1.47038e-05
1.46323e-05
1.45345e-05
1.44597e-05
1.43561e-05
1.42623e-05
1.4135e-05
1.39929e-05
1.99999e-05
1.98253e-05
1.94479e-05
1.91858e-05
1.89769e-05
1.88177e-05
1.86241e-05
1.84623e-05
1.83164e-05
1.81837e-05
1.8042e-05
1.79099e-05
1.77757e-05
1.76487e-05
1.75158e-05
1.73948e-05
1.72633e-05
1.71452e-05
1.70172e-05
1.69033e-05
1.67775e-05
1.66693e-05
1.65497e-05
1.64444e-05
1.63316e-05
1.62325e-05
1.61239e-05
1.60232e-05
1.59212e-05
1.58293e-05
1.57286e-05
1.56366e-05
1.55388e-05
1.54505e-05
1.5355e-05
1.52689e-05
1.51771e-05
1.50942e-05
1.50039e-05
1.49237e-05
1.48285e-05
1.47509e-05
1.46606e-05
1.45851e-05
1.44865e-05
1.44062e-05
1.43027e-05
1.42037e-05
1.40714e-05
1.39364e-05
1.99999e-05
1.9826e-05
1.94504e-05
1.91761e-05
1.89649e-05
1.88123e-05
1.86211e-05
1.84555e-05
1.83087e-05
1.81774e-05
1.80374e-05
1.7907e-05
1.77733e-05
1.76474e-05
1.75159e-05
1.73958e-05
1.72645e-05
1.71469e-05
1.70182e-05
1.69048e-05
1.67784e-05
1.66702e-05
1.65498e-05
1.64449e-05
1.63308e-05
1.62317e-05
1.6122e-05
1.60209e-05
1.59186e-05
1.58253e-05
1.57231e-05
1.56305e-05
1.5531e-05
1.54417e-05
1.5345e-05
1.5257e-05
1.51633e-05
1.50796e-05
1.49869e-05
1.49039e-05
1.48081e-05
1.47285e-05
1.46362e-05
1.4558e-05
1.44576e-05
1.43742e-05
1.42681e-05
1.41687e-05
1.40304e-05
1.39047e-05
1.99999e-05
1.98272e-05
1.94555e-05
1.917e-05
1.89557e-05
1.88084e-05
1.86219e-05
1.84537e-05
1.83057e-05
1.81762e-05
1.80387e-05
1.79103e-05
1.77774e-05
1.76531e-05
1.75229e-05
1.74044e-05
1.72738e-05
1.7157e-05
1.70283e-05
1.69156e-05
1.67891e-05
1.66815e-05
1.65605e-05
1.64563e-05
1.63415e-05
1.62423e-05
1.61321e-05
1.6031e-05
1.59285e-05
1.58345e-05
1.57312e-05
1.56385e-05
1.55379e-05
1.54479e-05
1.53504e-05
1.52613e-05
1.51662e-05
1.50819e-05
1.49875e-05
1.49025e-05
1.48062e-05
1.47254e-05
1.46313e-05
1.45511e-05
1.44489e-05
1.4364e-05
1.42551e-05
1.41566e-05
1.40161e-05
1.38955e-05
1.99999e-05
1.98289e-05
1.94626e-05
1.91678e-05
1.89494e-05
1.88059e-05
1.86262e-05
1.84563e-05
1.83071e-05
1.81794e-05
1.80446e-05
1.79193e-05
1.77878e-05
1.76661e-05
1.75385e-05
1.74223e-05
1.72932e-05
1.71779e-05
1.70497e-05
1.69385e-05
1.68126e-05
1.6706e-05
1.6585e-05
1.6482e-05
1.63669e-05
1.62682e-05
1.61578e-05
1.60574e-05
1.59549e-05
1.586e-05
1.57559e-05
1.56636e-05
1.55619e-05
1.54711e-05
1.53726e-05
1.52826e-05
1.51859e-05
1.5101e-05
1.50045e-05
1.49179e-05
1.48209e-05
1.47391e-05
1.46434e-05
1.45613e-05
1.4458e-05
1.43722e-05
1.42614e-05
1.41639e-05
1.40244e-05
1.39025e-05
1.99999e-05
1.98311e-05
1.94716e-05
1.91694e-05
1.89462e-05
1.88049e-05
1.86333e-05
1.84637e-05
1.83129e-05
1.81871e-05
1.80557e-05
1.7934e-05
1.78046e-05
1.76861e-05
1.75612e-05
1.74477e-05
1.73207e-05
1.72074e-05
1.70803e-05
1.69708e-05
1.68465e-05
1.67414e-05
1.66207e-05
1.65193e-05
1.64048e-05
1.6307e-05
1.6197e-05
1.60981e-05
1.59956e-05
1.59007e-05
1.57966e-05
1.5705e-05
1.56029e-05
1.55118e-05
1.54126e-05
1.53226e-05
1.52251e-05
1.51397e-05
1.50417e-05
1.49543e-05
1.4857e-05
1.47745e-05
1.46775e-05
1.45936e-05
1.44899e-05
1.44034e-05
1.42921e-05
1.4196e-05
1.40587e-05
1.39338e-05
1.99999e-05
1.98339e-05
1.94823e-05
1.91748e-05
1.89463e-05
1.88056e-05
1.86426e-05
1.84752e-05
1.83229e-05
1.8199e-05
1.80709e-05
1.79533e-05
1.78266e-05
1.77119e-05
1.759e-05
1.74796e-05
1.73553e-05
1.72445e-05
1.71189e-05
1.70118e-05
1.68895e-05
1.67863e-05
1.66663e-05
1.65669e-05
1.64533e-05
1.63573e-05
1.62477e-05
1.6151e-05
1.60487e-05
1.59541e-05
1.58507e-05
1.57601e-05
1.56578e-05
1.5567e-05
1.54673e-05
1.53776e-05
1.52798e-05
1.51938e-05
1.5095e-05
1.50079e-05
1.49104e-05
1.48273e-05
1.47299e-05
1.46455e-05
1.45423e-05
1.44562e-05
1.43461e-05
1.42518e-05
1.4116e-05
1.39932e-05
1.99999e-05
1.9837e-05
1.94941e-05
1.91842e-05
1.89497e-05
1.88082e-05
1.86535e-05
1.84902e-05
1.83364e-05
1.82144e-05
1.80896e-05
1.79762e-05
1.7853e-05
1.77425e-05
1.76239e-05
1.75168e-05
1.73958e-05
1.7288e-05
1.71644e-05
1.70603e-05
1.69401e-05
1.68392e-05
1.67202e-05
1.66238e-05
1.65109e-05
1.64175e-05
1.63086e-05
1.62146e-05
1.61126e-05
1.60189e-05
1.59169e-05
1.58273e-05
1.57252e-05
1.5635e-05
1.55351e-05
1.54463e-05
1.53485e-05
1.5262e-05
1.5163e-05
1.50769e-05
1.49793e-05
1.48957e-05
1.47986e-05
1.47145e-05
1.46126e-05
1.45275e-05
1.44195e-05
1.43276e-05
1.41938e-05
1.40792e-05
1.99999e-05
1.98406e-05
1.95067e-05
1.91965e-05
1.89567e-05
1.88133e-05
1.86658e-05
1.85085e-05
1.83533e-05
1.82328e-05
1.81112e-05
1.80022e-05
1.7883e-05
1.77772e-05
1.76618e-05
1.75586e-05
1.74413e-05
1.73368e-05
1.72155e-05
1.71152e-05
1.69969e-05
1.68988e-05
1.67811e-05
1.66883e-05
1.6576e-05
1.64859e-05
1.6378e-05
1.62871e-05
1.61854e-05
1.60933e-05
1.59933e-05
1.59046e-05
1.5803e-05
1.5714e-05
1.56142e-05
1.55268e-05
1.54291e-05
1.53423e-05
1.52441e-05
1.51594e-05
1.50617e-05
1.4978e-05
1.48819e-05
1.47992e-05
1.46992e-05
1.46159e-05
1.4511e-05
1.4422e-05
1.42924e-05
1.41903e-05
1.99999e-05
1.98444e-05
1.95199e-05
1.92116e-05
1.8967e-05
1.88208e-05
1.86791e-05
1.8529e-05
1.83729e-05
1.82538e-05
1.81351e-05
1.80305e-05
1.7916e-05
1.78149e-05
1.77028e-05
1.76039e-05
1.74903e-05
1.73894e-05
1.72712e-05
1.7175e-05
1.70583e-05
1.69634e-05
1.68477e-05
1.67586e-05
1.66472e-05
1.65607e-05
1.64542e-05
1.63666e-05
1.62653e-05
1.61758e-05
1.60778e-05
1.599e-05
1.58896e-05
1.5802e-05
1.57029e-05
1.56172e-05
1.55193e-05
1.54329e-05
1.53363e-05
1.52531e-05
1.51554e-05
1.50725e-05
1.49782e-05
1.48977e-05
1.48e-05
1.47192e-05
1.46185e-05
1.45332e-05
1.44104e-05
1.43213e-05
1.99999e-05
1.98484e-05
1.95332e-05
1.9229e-05
1.89805e-05
1.8831e-05
1.86933e-05
1.85512e-05
1.83947e-05
1.8277e-05
1.81604e-05
1.80607e-05
1.7951e-05
1.78544e-05
1.77459e-05
1.76517e-05
1.75418e-05
1.7445e-05
1.73303e-05
1.72382e-05
1.71228e-05
1.70319e-05
1.69185e-05
1.68329e-05
1.6723e-05
1.66401e-05
1.65358e-05
1.6451e-05
1.63507e-05
1.62647e-05
1.61681e-05
1.60816e-05
1.59829e-05
1.5897e-05
1.5799e-05
1.5715e-05
1.56171e-05
1.55321e-05
1.54374e-05
1.53555e-05
1.52582e-05
1.51774e-05
1.50854e-05
1.50075e-05
1.49128e-05
1.48354e-05
1.47395e-05
1.46589e-05
1.45447e-05
1.44664e-05
1.99999e-05
1.98526e-05
1.95466e-05
1.92484e-05
1.89969e-05
1.8844e-05
1.87084e-05
1.85741e-05
1.84183e-05
1.83017e-05
1.81868e-05
1.80923e-05
1.79873e-05
1.78951e-05
1.77907e-05
1.77012e-05
1.75948e-05
1.75027e-05
1.73918e-05
1.73032e-05
1.71897e-05
1.7103e-05
1.69923e-05
1.69096e-05
1.68024e-05
1.67227e-05
1.66209e-05
1.65387e-05
1.64401e-05
1.63581e-05
1.62624e-05
1.61777e-05
1.60811e-05
1.59973e-05
1.59006e-05
1.58181e-05
1.5721e-05
1.56381e-05
1.55451e-05
1.54645e-05
1.53685e-05
1.52905e-05
1.52014e-05
1.51265e-05
1.50351e-05
1.49621e-05
1.48717e-05
1.47967e-05
1.46912e-05
1.46205e-05
1.99999e-05
1.98568e-05
1.95597e-05
1.92696e-05
1.90157e-05
1.88598e-05
1.87243e-05
1.85972e-05
1.84433e-05
1.83276e-05
1.82138e-05
1.81248e-05
1.80239e-05
1.79363e-05
1.78364e-05
1.77513e-05
1.76485e-05
1.75617e-05
1.74544e-05
1.73689e-05
1.72579e-05
1.71756e-05
1.70675e-05
1.69873e-05
1.68841e-05
1.6807e-05
1.67079e-05
1.66283e-05
1.65324e-05
1.64542e-05
1.63589e-05
1.6277e-05
1.61827e-05
1.61011e-05
1.60059e-05
1.59248e-05
1.58292e-05
1.57489e-05
1.56574e-05
1.55783e-05
1.54846e-05
1.54102e-05
1.53241e-05
1.52525e-05
1.51651e-05
1.50972e-05
1.50127e-05
1.49431e-05
1.48452e-05
1.47793e-05
1.99999e-05
1.98611e-05
1.95728e-05
1.92918e-05
1.90365e-05
1.88782e-05
1.8741e-05
1.86203e-05
1.84691e-05
1.83541e-05
1.82414e-05
1.81574e-05
1.80603e-05
1.79776e-05
1.78823e-05
1.78014e-05
1.77026e-05
1.76211e-05
1.7517e-05
1.74345e-05
1.73268e-05
1.72487e-05
1.71429e-05
1.70656e-05
1.69666e-05
1.68919e-05
1.67955e-05
1.6719e-05
1.66261e-05
1.65512e-05
1.64567e-05
1.6378e-05
1.62863e-05
1.6207e-05
1.6113e-05
1.60338e-05
1.59403e-05
1.58627e-05
1.57726e-05
1.56956e-05
1.5605e-05
1.55344e-05
1.54516e-05
1.53836e-05
1.53007e-05
1.52386e-05
1.51596e-05
1.50948e-05
1.50026e-05
1.49394e-05
1.99999e-05
1.98654e-05
1.9586e-05
1.93144e-05
1.90591e-05
1.8899e-05
1.87583e-05
1.86433e-05
1.8495e-05
1.83809e-05
1.8269e-05
1.81896e-05
1.8096e-05
1.80185e-05
1.79274e-05
1.78509e-05
1.77566e-05
1.768e-05
1.75786e-05
1.74998e-05
1.73956e-05
1.73212e-05
1.72175e-05
1.7144e-05
1.70487e-05
1.69764e-05
1.68826e-05
1.68099e-05
1.672e-05
1.66479e-05
1.65547e-05
1.64798e-05
1.63904e-05
1.63134e-05
1.62208e-05
1.61439e-05
1.60529e-05
1.5978e-05
1.58894e-05
1.58151e-05
1.57281e-05
1.56616e-05
1.55821e-05
1.55182e-05
1.54404e-05
1.53837e-05
1.53093e-05
1.52485e-05
1.51601e-05
1.50973e-05
1.99999e-05
1.98696e-05
1.95993e-05
1.93368e-05
1.90833e-05
1.89217e-05
1.87765e-05
1.86662e-05
1.85206e-05
1.84077e-05
1.82966e-05
1.82211e-05
1.81307e-05
1.80586e-05
1.79715e-05
1.78996e-05
1.78099e-05
1.77376e-05
1.7639e-05
1.75646e-05
1.74633e-05
1.73924e-05
1.72908e-05
1.7222e-05
1.7129e-05
1.70599e-05
1.69685e-05
1.69003e-05
1.68127e-05
1.67432e-05
1.66524e-05
1.65813e-05
1.64941e-05
1.64195e-05
1.63283e-05
1.62541e-05
1.6166e-05
1.60938e-05
1.60067e-05
1.59358e-05
1.5853e-05
1.57904e-05
1.57142e-05
1.56549e-05
1.55821e-05
1.55301e-05
1.54594e-05
1.54013e-05
1.53148e-05
1.52502e-05
1.99999e-05
1.98737e-05
1.96124e-05
1.93588e-05
1.91087e-05
1.89459e-05
1.87958e-05
1.86888e-05
1.85453e-05
1.84341e-05
1.83237e-05
1.82516e-05
1.8164e-05
1.80975e-05
1.80145e-05
1.79472e-05
1.7862e-05
1.77937e-05
1.76982e-05
1.76281e-05
1.75295e-05
1.74616e-05
1.73628e-05
1.72986e-05
1.72072e-05
1.71418e-05
1.70529e-05
1.69893e-05
1.69037e-05
1.6837e-05
1.67491e-05
1.66818e-05
1.65963e-05
1.65244e-05
1.6435e-05
1.63639e-05
1.62786e-05
1.62089e-05
1.61237e-05
1.60568e-05
1.59783e-05
1.59198e-05
1.58468e-05
1.5792e-05
1.5724e-05
1.5676e-05
1.56074e-05
1.55505e-05
1.5464e-05
1.53962e-05
1.99999e-05
1.98777e-05
1.96252e-05
1.93805e-05
1.9135e-05
1.89712e-05
1.88164e-05
1.87109e-05
1.8569e-05
1.84598e-05
1.83502e-05
1.82809e-05
1.81958e-05
1.8135e-05
1.8056e-05
1.79934e-05
1.79123e-05
1.78481e-05
1.7756e-05
1.76899e-05
1.75937e-05
1.7529e-05
1.74333e-05
1.73728e-05
1.72832e-05
1.72219e-05
1.71353e-05
1.70764e-05
1.69923e-05
1.69289e-05
1.68444e-05
1.67806e-05
1.66968e-05
1.66278e-05
1.65403e-05
1.64727e-05
1.639e-05
1.6323e-05
1.62401e-05
1.61776e-05
1.61035e-05
1.60488e-05
1.59789e-05
1.59282e-05
1.58645e-05
1.58193e-05
1.57516e-05
1.5694e-05
1.56056e-05
1.55335e-05
1.99999e-05
1.98816e-05
1.96376e-05
1.94018e-05
1.91617e-05
1.89975e-05
1.88384e-05
1.87324e-05
1.85915e-05
1.84849e-05
1.83756e-05
1.83088e-05
1.82263e-05
1.8171e-05
1.80959e-05
1.80379e-05
1.79608e-05
1.79011e-05
1.7812e-05
1.77497e-05
1.76557e-05
1.75948e-05
1.75015e-05
1.74445e-05
1.73572e-05
1.72996e-05
1.72156e-05
1.71609e-05
1.70785e-05
1.70191e-05
1.69379e-05
1.68772e-05
1.67952e-05
1.67295e-05
1.66443e-05
1.65798e-05
1.64998e-05
1.64357e-05
1.63556e-05
1.62977e-05
1.62276e-05
1.61762e-05
1.61094e-05
1.60628e-05
1.60021e-05
1.5958e-05
1.58898e-05
1.58302e-05
1.57385e-05
1.56618e-05
1.99999e-05
1.98854e-05
1.96496e-05
1.94226e-05
1.91885e-05
1.90245e-05
1.88616e-05
1.87535e-05
1.8613e-05
1.85091e-05
1.83997e-05
1.83354e-05
1.82553e-05
1.82051e-05
1.81339e-05
1.80807e-05
1.80077e-05
1.79522e-05
1.78662e-05
1.78075e-05
1.77156e-05
1.76587e-05
1.75672e-05
1.75136e-05
1.7429e-05
1.73748e-05
1.72937e-05
1.72425e-05
1.71622e-05
1.71074e-05
1.7029e-05
1.69714e-05
1.68916e-05
1.68293e-05
1.67464e-05
1.66853e-05
1.66076e-05
1.65466e-05
1.64702e-05
1.64167e-05
1.63495e-05
1.63014e-05
1.62382e-05
1.61948e-05
1.61352e-05
1.60908e-05
1.60208e-05
1.59578e-05
1.58624e-05
1.57813e-05
1.99999e-05
1.98891e-05
1.96612e-05
1.94428e-05
1.92152e-05
1.90521e-05
1.88856e-05
1.87745e-05
1.86335e-05
1.85319e-05
1.84223e-05
1.83604e-05
1.82829e-05
1.82372e-05
1.81697e-05