/*--------------------------------*- C++ -*----------------------------------*\
  =========                 |
  \\      /  F ield         | OpenFOAM: The Open Source CFD Toolbox
   \\    /   O peration     | Website:  https://openfoam.org
    \\  /    A nd           | Version:  7
     \\/     M anipulation  |
\*---------------------------------------------------------------------------*/
FoamFile
{
    version     2.0;
    format      ascii;
    class       volScalarField;
    location    "0.36";
    object      nut;
}
// * * * * * * * * * * * * * * * * * * * * * * * * * * * * * * * * * * * * * //

dimensions      [0 2 -1 0 0 0 0];

internalField   nonuniform List<scalar> 
70000
(
0
0
0
0
0
0
0
0
0
0
0
0
0
0
0
0
0
0
0
0
0
0
0
0
0
0
0
0
0
0
0
0
0
0
0
0
0
0
0
0
0
0
0
0
0
0
0
5.92418e-13
0
0
0
0
0
0
0
0
0
0
0
0
0
0
0
0
0
0
0
0
0
0
0
0
0
0
0
0
0
0
0
0
0
0
0
0
0
0
0
0
0
0
0
0
0
0
0
0
0
1.13548e-12
0
0
0
0
0
0
0
0
0
0
0
0
0
0
0
0
0
0
0
0
0
0
0
0
0
0
0
0
0
0
0
0
0
0
0
0
0
0
0
0
0
0
0
0
0
0
0
0
0
1.59552e-12
1.22682e-12
0
0
0
0
0
0
0
0
0
0
0
0
0
0
0
0
0
0
0
0
0
0
0
0
0
0
0
0
0
0
0
0
0
0
0
0
0
0
0
0
0
0
0
0
0
0
0
0
1.88141e-12
3.38702e-12
0
0
0
0
0
0
0
0
0
0
0
0
0
0
0
0
0
0
0
0
0
0
0
0
0
0
0
0
0
0
0
0
0
0
0
0
0
0
0
0
0
0
0
0
0
0
2.35004e-13
0
2.13495e-12
4.62184e-12
0
9.44249e-10
0
0
0
0
0
0
0
0
0
0
0
0
0
0
0
0
0
0
0
0
0
0
0
0
0
0
0
0
0
0
0
0
0
0
0
0
0
0
0
0
0
0
0
0
5.26975e-13
0
2.32047e-12
5.40194e-12
0
1.31918e-08
0
0
0
0
0
0
0
0
0
0
0
0
0
0
0
0
0
0
0
0
0
0
0
0
0
0
0
0
0
0
0
0
0
0
0
0
0
0
0
0
0
0
0
0
7.37192e-13
0
2.26543e-12
6.14151e-12
0
1.20854e-08
0
0
0
0
0
0
0
0
0
0
0
0
0
0
0
0
0
0
0
0
0
0
0
0
0
0
0
0
0
0
0
0
0
0
0
0
0
0
0
0
0
0
0
0
8.33698e-13
0
1.96313e-12
6.90268e-12
0
1.10659e-08
0
0
0
0
0
0
0
0
0
0
0
0
0
0
0
0
0
0
0
0
0
0
0
0
0
0
0
0
0
0
0
0
0
0
0
0
0
0
0
0
0
0
0
0
8.3498e-13
0
1.5286e-12
7.6041e-12
0
1.02175e-08
0
0
0
0
0
0
0
0
0
0
0
0
0
0
0
0
0
0
0
0
0
0
0
0
0
0
0
0
0
0
0
0
0
0
0
0
0
0
0
0
0
0
0
0
7.78818e-13
0
1.08598e-12
8.20303e-12
0
9.50717e-09
0
0
0
0
0
0
0
0
0
0
0
0
0
0
0
0
0
0
0
0
0
0
0
0
0
0
0
0
0
0
0
0
0
0
0
0
0
0
0
0
0
0
0
0
7.04901e-13
0
7.17808e-13
8.71227e-12
0
8.86422e-09
0
0
0
0
0
0
0
0
0
0
0
0
0
0
0
0
0
0
0
0
0
0
0
0
0
0
0
0
0
0
0
0
0
0
0
0
0
0
0
0
0
0
0
0
6.55382e-13
0
4.78225e-13
9.11873e-12
0
8.22279e-09
0
0
0
0
0
0
0
0
0
0
0
0
0
0
0
0
0
0
0
0
0
0
0
0
0
0
0
0
0
0
0
0
0
0
0
0
0
0
0
0
0
0
0
0
6.82834e-13
5.13405e-13
4.19413e-13
9.45589e-12
0
7.56305e-09
0
0
0
0
0
0
0
0
0
0
0
0
2.20942e-11
5.38868e-12
0
0
0
0
0
0
0
0
0
0
0
0
0
0
0
0
0
0
0
0
0
0
0
0
0
0
0
0
0
0
8.55656e-13
1.49123e-12
5.97323e-13
9.786e-12
0
6.89114e-09
0
0
0
0
0
0
0
0
0
0
0
0
0
0
1.36479e-11
4.77291e-11
4.41605e-11
1.68044e-11
1.46003e-12
0
0
0
0
0
0
0
0
0
0
0
0
0
0
0
0
0
0
0
0
0
0
0
4.15995e-13
0
1.28407e-12
2.7748e-12
1.10109e-12
1.02281e-11
0
6.21816e-09
0
0
0
0
0
0
0
0
0
0
0
0
0
0
0
0
0
1.00443e-11
4.16675e-11
6.72079e-11
7.23429e-11
4.86774e-11
2.18972e-11
7.52588e-12
1.17576e-12
0
0
0
0
0
0
0
0
0
0
0
0
0
0
0
1.76106e-13
0
1.26779e-12
6.48126e-13
2.22727e-12
4.66888e-12
2.16928e-12
1.11302e-11
0
5.55264e-09
0
0
0
8.52262e-11
0
0
0
0
0
0
0
0
0
0
0
0
0
0
0
0
1.14806e-12
2.18549e-11
4.54906e-11
6.99892e-11
9.12693e-11
1.0059e-10
8.56581e-11
5.51706e-11
3.04722e-11
1.62346e-11
8.72864e-12
4.85642e-12
2.85434e-12
1.78284e-12
1.23297e-12
8.77849e-13
9.01822e-13
7.39129e-13
1.29619e-12
1.04536e-12
2.27656e-12
1.68379e-12
3.55253e-12
3.24562e-12
4.675e-12
8.33853e-12
4.78296e-12
1.38592e-11
0
4.90087e-09
0
0
0
1.69505e-10
0
0
0
0
0
0
0
0
0
0
0
0
0
0
0
0
0
0
0
0
1.00069e-11
2.32713e-11
3.96962e-11
5.94086e-11
8.20355e-11
1.06499e-10
1.31242e-10
1.50363e-10
1.50402e-10
1.24864e-10
8.96888e-11
6.0808e-11
4.23129e-11
3.04347e-11
2.44353e-11
1.94788e-11
1.85057e-11
1.54699e-11
1.63903e-11
1.52321e-11
1.56628e-11
2.10254e-11
1.55346e-11
2.69675e-11
6.55225e-12
4.26835e-09
0
0
0
2.25738e-10
0
0
0
0
0
0
0
0
0
0
0
0
0
0
0
0
0
0
0
0
0
0
1.98939e-12
9.54562e-12
1.75096e-11
2.63523e-11
3.66353e-11
4.9446e-11
6.58507e-11
8.61482e-11
1.11418e-10
1.40931e-10
1.76974e-10
2.17375e-10
2.6326e-10
2.94746e-10
2.96806e-10
2.57933e-10
2.09915e-10
1.67481e-10
1.38715e-10
1.35664e-10
1.24423e-10
1.59549e-10
1.74832e-10
3.66022e-09
0
0
0
2.38879e-10
0
0
0
0
0
0
0
0
0
0
0
0
0
0
0
0
0
0
0
0
0
0
0
0
1.0454e-12
6.96889e-12
1.30217e-11
1.91658e-11
2.56081e-11
3.1767e-11
3.86833e-11
4.43206e-11
5.21851e-11
5.73925e-11
6.84884e-11
7.66549e-11
9.51836e-11
1.15431e-10
1.48522e-10
2.09451e-10
2.91749e-10
4.87311e-10
7.94505e-10
1.45546e-09
2.29493e-09
3.08076e-09
0
0
0
1.916e-10
0
0
0
0
0
0
0
0
0
0
0
0
0
0
0
0
0
0
0
0
0
0
0
0
0
0
3.04706e-12
7.64624e-12
1.2295e-11
1.61665e-11
2.04119e-11
2.24253e-11
2.5651e-11
2.37676e-11
2.4623e-11
1.67162e-11
1.26121e-11
7.89804e-13
0
0
0
2.23353e-11
3.29873e-11
2.27315e-10
4.76309e-10
2.53291e-09
0
0
0
6.48749e-11
0
0
0
0
0
0
0
0
0
0
0
0
0
0
0
0
0
0
0
0
0
0
0
0
0
0
0
2.34479e-12
6.16634e-12
8.90716e-12
1.18255e-11
1.21788e-11
1.33963e-11
9.34609e-12
7.23433e-12
0
0
0
0
0
0
0
0
0
0
2.01799e-09
0
0
0
0
0
0
0
0
0
0
0
0
0
0
0
0
0
0
0
0
0
0
0
0
0
0
0
0
0
0
0
1.63888e-13
3.67216e-12
5.86166e-12
8.03028e-12
7.41809e-12
7.24853e-12
1.87828e-12
0
0
0
0
0
0
0
0
0
0
0
1.53557e-09
0
0
0
0
0
0
0
0
0
0
0
0
0
0
0
0
0
0
0
0
0
0
0
0
0
0
0
0
0
0
0
0
3.06939e-12
5.03878e-12
6.76352e-12
5.53157e-12
4.25241e-12
0
0
0
0
0
0
0
0
0
0
0
0
1.08367e-09
0
0
0
0
0
0
0
0
0
0
0
0
0
0
0
0
0
0
0
0
0
0
0
0
0
0
0
0
0
0
0
0
3.45675e-12
5.40043e-12
6.84272e-12
5.16617e-12
2.90023e-12
0
0
0
0
0
0
0
0
0
0
0
0
6.59079e-10
0
0
0
0
0
0
0
0
0
0
0
0
0
0
0
0
0
0
0
0
0
0
0
0
0
0
0
0
0
0
0
4.81387e-13
4.40212e-12
6.43587e-12
7.67677e-12
5.62873e-12
2.41272e-12
0
0
0
0
0
0
0
0
0
0
0
0
2.58022e-10
0
0
0
0
0
0
0
0
0
0
0
0
0
0
0
0
0
0
0
0
0
0
0
0
0
0
0
0
0
0
0
1.47589e-12
5.74766e-12
7.94696e-12
9.0262e-12
6.62072e-12
2.44527e-12
0
0
0
0
0
0
0
0
0
0
0
0
0
0
0
0
0
0
0
0
0
0
0
0
0
0
0
0
0
0
0
0
0
0
0
0
0
0
0
0
0
0
0
0
2.78649e-12
7.48948e-12
9.91892e-12
1.08668e-11
8.09326e-12
2.93479e-12
0
0
0
0
0
0
0
0
0
0
0
0
0
0
0
0
0
0
0
0
0
0
0
0
0
0
0
0
0
0
0
0
0
0
0
0
0
0
0
0
0
0
0
0
4.4754e-12
9.70718e-12
1.24412e-11
1.33024e-11
1.01554e-11
4.0035e-12
0
0
0
0
0
0
0
0
0
0
0
0
0
0
0
0
0
0
0
0
0
0
0
0
0
0
0
0
0
0
0
0
0
0
0
0
0
0
0
0
0
0
0
0
6.64538e-12
1.25339e-11
1.56733e-11
1.65249e-11
1.30302e-11
5.91324e-12
0
0
0
0
0
0
0
0
0
0
0
0
0
0
0
0
0
0
0
0
0
0
0
0
0
0
0
0
0
0
0
0
0
0
0
0
0
0
0
0
0
0
0
8.98994e-13
9.43578e-12
1.61507e-11
1.9838e-11
2.08073e-11
1.70472e-11
9.06109e-12
0
0
0
0
0
0
0
0
0
0
0
0
0
0
0
0
0
0
0
0
0
0
0
0
0
0
0
0
0
0
0
0
0
0
0
0
0
0
0
0
0
0
0
3.12788e-12
1.30264e-11
2.07924e-11
2.52291e-11
2.65154e-11
2.26588e-11
1.4006e-11
0
0
0
0
0
0
0
0
0
0
0
0
0
8.9911e-10
0
0
0
0
0
0
0
0
0
0
0
0
0
0
0
0
0
0
0
0
0
0
0
0
0
0
0
0
0
6.07782e-12
1.76421e-11
2.67543e-11
3.22232e-11
3.4124e-11
3.04676e-11
2.15104e-11
3.92129e-12
0
0
0
0
0
0
0
0
0
0
0
0
1.82896e-09
0
0
0
0
0
0
0
0
0
0
0
0
0
0
0
0
0
0
0
0
0
0
0
0
0
0
0
0
0
9.95325e-12
2.35655e-11
3.44101e-11
4.13033e-11
4.4248e-11
4.12654e-11
3.25924e-11
1.48206e-11
0
0
0
0
0
0
0
0
0
0
0
0
2.63318e-09
0
0
0
0
0
0
0
0
0
0
0
0
0
0
0
0
0
0
0
0
0
0
0
0
0
0
0
0
0
1.50037e-11
3.11449e-11
4.42244e-11
5.3077e-11
5.76725e-11
5.60773e-11
4.85903e-11
3.18368e-11
6.37875e-12
0
0
0
0
0
0
0
0
0
0
0
3.31369e-09
0
0
0
0
0
0
0
0
0
0
0
0
0
0
0
0
0
0
0
0
0
0
0
0
0
0
0
0
0
2.15293e-11
4.08002e-11
5.67608e-11
6.82888e-11
7.5372e-11
7.61912e-11
7.12136e-11
5.7296e-11
3.55253e-11
0
0
0
0
0
0
0
0
3.46552e-10
2.05445e-08
0
3.87558e-09
0
0
0
0
0
0
0
0
0
0
0
0
0
0
0
0
0
0
0
0
0
0
0
0
0
0
0
0
3.42013e-12
2.98872e-11
5.30334e-11
7.26994e-11
8.78449e-11
9.85474e-11
1.03206e-10
1.02612e-10
9.41462e-11
7.9829e-11
5.4488e-11
2.10922e-11
0
0
0
0
0
1.32196e-09
9.47389e-09
4.49746e-08
0
4.32636e-09
0
0
0
0
0
0
0
0
0
0
0
0
0
0
0
0
0
0
0
0
0
0
0
0
0
0
0
0
9.14017e-12
4.04932e-11
6.84317e-11
9.28436e-11
1.12826e-10
1.28645e-10
1.39065e-10
1.45421e-10
1.46031e-10
1.44449e-10
1.38112e-10
1.34991e-10
1.33512e-10
1.58716e-10
2.49019e-10
5.79474e-10
1.72225e-09
5.90308e-09
2.17711e-08
4.96643e-08
0
4.67435e-09
0
0
0
0
0
0
0
0
0
0
0
0
0
0
0
0
0
0
0
0
0
0
0
0
0
0
0
0
1.65801e-11
5.38187e-11
8.76692e-11
1.18122e-10
1.44493e-10
1.67366e-10
1.86067e-10
2.02789e-10
2.17329e-10
2.35603e-10
2.59291e-10
3.04163e-10
3.84308e-10
5.57317e-10
9.37437e-10
1.88161e-09
4.46033e-09
1.21192e-08
3.22296e-08
4.11021e-08
0
4.9284e-09
0
0
0
0
0
0
0
0
0
0
0
0
0
0
0
0
0
0
0
0
0
0
0
0
0
0
0
0
2.60782e-11
7.03849e-11
1.11499e-10
1.49583e-10
1.84283e-10
2.16663e-10
2.46871e-10
2.78366e-10
3.13117e-10
3.60499e-10
4.28489e-10
5.4424e-10
7.4457e-10
1.13302e-09
1.92692e-09
3.71369e-09
8.08298e-09
1.88229e-08
3.57523e-08
3.08491e-08
0
5.09857e-09
0
0
0
0
0
0
0
0
0
0
0
0
0
0
0
0
0
0
0
0
0
0
0
0
0
0
0
0
3.79874e-11
9.07494e-11
1.40737e-10
1.88378e-10
2.33783e-10
2.78702e-10
3.24439e-10
3.76227e-10
4.39044e-10
5.27087e-10
6.57064e-10
8.71709e-10
1.23818e-09
1.91918e-09
3.25522e-09
6.0676e-09
1.22163e-08
2.39375e-08
3.28296e-08
2.23276e-08
0
5.19596e-09
0
0
0
0
0
0
0
0
0
0
0
0
0
0
0
0
0
0
0
0
0
0
0
0
0
0
0
0
5.26568e-11
1.15482e-10
1.76234e-10
2.35721e-10
2.94677e-10
3.558e-10
4.21937e-10
5.00704e-10
6.01041e-10
7.4355e-10
9.56292e-10
1.30187e-09
1.88447e-09
2.93431e-09
4.91221e-09
8.77994e-09
1.60655e-08
2.58401e-08
2.69952e-08
1.57171e-08
0
5.23172e-09
0
0
0
0
0
0
0
0
0
0
0
0
0
0
0
0
0
0
0
0
0
0
0
0
0
0
0
0
7.04014e-11
1.45126e-10
2.18825e-10
2.92825e-10
3.68666e-10
4.503e-10
5.42547e-10
6.56088e-10
8.04832e-10
1.01743e-09
1.33572e-09
1.84559e-09
2.69135e-09
4.16693e-09
6.80766e-09
1.14927e-08
1.86823e-08
2.45477e-08
2.07769e-08
1.06153e-08
0
5.21611e-09
0
0
0
0
0
0
0
0
0
0
0
0
0
0
0
0
0
0
0
0
0
0
0
0
0
0
0
2.25422e-12
9.14617e-11
1.80149e-10
2.69265e-10
3.60811e-10
4.57335e-10
5.6438e-10
6.8918e-10
8.46172e-10
1.05518e-09
1.35433e-09
1.80079e-09
2.50474e-09
3.64639e-09
5.55913e-09
8.75127e-09
1.37138e-08
1.94767e-08
2.12361e-08
1.51991e-08
6.64544e-09
0
5.15813e-09
0
0
0
0
0
0
0
0
0
0
0
0
0
0
0
0
0
0
0
0
0
0
0
0
0
0
0
1.18889e-11
1.1595e-10
2.20868e-10
3.28128e-10
4.40577e-10
5.6197e-10
6.99784e-10
8.64069e-10
1.07362e-09
1.35483e-09
1.7561e-09
2.34972e-09
3.26677e-09
4.70798e-09
6.99634e-09
1.04704e-08
1.49956e-08
1.85043e-08
1.71355e-08
1.05064e-08
3.53325e-09
0
5.06546e-09
0
0
0
0
0
0
0
0
0
0
0
0
0
0
0
0
0
0
0
0
0
0
0
0
0
0
0
2.28279e-11
1.43779e-10
2.67359e-10
3.95686e-10
5.32623e-10
6.83316e-10
8.57464e-10
1.06823e-09
1.33909e-09
1.7032e-09
2.21874e-09
2.97006e-09
4.09958e-09
5.80005e-09
8.31415e-09
1.1679e-08
1.51278e-08
1.62845e-08
1.30317e-08
6.66104e-09
1.08691e-09
0
4.94453e-09
0
0
0
0
0
0
0
0
0
0
0
0
0
0
0
0
0
0
0
0
0
0
0
0
0
0
0
3.46213e-11
1.74574e-10
3.19337e-10
4.71751e-10
6.3684e-10
8.21263e-10
1.03714e-09
1.30077e-09
1.64032e-09
2.09488e-09
2.73013e-09
3.63575e-09
4.94883e-09
6.81566e-09
9.32919e-09
1.21739e-08
1.41979e-08
1.34327e-08
9.30124e-09
3.55077e-09
0
0
4.80067e-09
0
0
0
0
0
0
0
0
0
0
0
0
0
0
0
0
0
0
0
0
0
0
0
0
0
0
0
4.65103e-11
2.07573e-10
3.76024e-10
5.55491e-10
7.52249e-10
9.74492e-10
1.23674e-09
1.55822e-09
1.97101e-09
2.51817e-09
3.26833e-09
4.30579e-09
5.74036e-09
7.63293e-09
9.88768e-09
1.19024e-08
1.24961e-08
1.04295e-08
6.07687e-09
1.05935e-09
0
0
4.63836e-09
0
0
0
0
0
0
0
0
0
0
0
0
0
0
0
0
0
0
0
0
0
0
0
0
0
0
0
5.7343e-11
2.41515e-10
4.35999e-10
6.45226e-10
8.76718e-10
1.14007e-09
1.45197e-09
1.83374e-09
2.31994e-09
2.95418e-09
3.80112e-09
4.92609e-09
6.38956e-09
8.14146e-09
9.91026e-09
1.09615e-08
1.03652e-08
7.57094e-09
3.37292e-09
0
0
0
4.4614e-09
0
0
0
0
0
0
0
0
0
0
0
0
0
0
0
0
0
0
0
0
0
0
0
0
0
0
0
6.5492e-11
2.74525e-10
4.97048e-10
7.38218e-10
1.00668e-09
1.31312e-09
1.67576e-09
2.11666e-09
2.6705e-09
3.37679e-09
4.28752e-09
5.43574e-09
6.81685e-09
8.26956e-09
9.41028e-09
9.54081e-09
8.09715e-09
5.00793e-09
1.1541e-09
0
0
0
4.27316e-09
0
0
0
0
0
0
0
0
0
0
0
0
0
0
0
0
0
0
0
0
0
0
0
0
0
0
0
6.87797e-11
3.04024e-10
5.56026e-10
8.30502e-10
1.13694e-09
1.48654e-09
1.89801e-09
2.39229e-09
3.00104e-09
3.754e-09
4.68214e-09
5.77662e-09
6.96471e-09
8.00159e-09
8.47902e-09
7.8519e-09
5.89555e-09
2.79889e-09
0
0
0
0
4.07655e-09
0
0
0
0
0
0
0
0
0
0
0
0
0
0
0
0
0
0
0
0
0
0
0
0
0
0
0
6.44289e-11
3.26651e-10
6.08771e-10
9.16768e-10
1.26052e-09
1.65093e-09
2.10571e-09
2.64243e-09
3.28611e-09
4.05122e-09
4.94172e-09
5.90443e-09
6.81041e-09
7.37769e-09
7.25045e-09
6.07884e-09
3.88193e-09
9.50559e-10
0
0
0
0
3.8741e-09
0
0
0
0
0
0
0
0
0
0
0
0
0
0
0
0
0
0
0
0
0
0
0
0
0
0
0
4.90491e-11
3.3825e-10
6.50083e-10
9.90385e-10
1.36879e-09
1.79478e-09
2.28346e-09
2.84654e-09
3.49887e-09
4.23587e-09
5.0326e-09
5.79773e-09
6.36978e-09
6.47818e-09
5.86466e-09
4.35747e-09
2.11666e-09
0
0
0
0
0
3.66811e-09
2.85464e-11
0
0
0
0
0
0
0
0
0
0
0
0
0
0
0
0
0
0
0
0
0
0
0
0
0
0
1.86718e-11
3.33909e-10
6.73825e-10
1.04358e-09
1.45175e-09
1.90516e-09
2.41465e-09
2.98381e-09
3.6147e-09
4.28262e-09
4.937e-09
5.46183e-09
5.69104e-09
5.40157e-09
4.44263e-09
2.77529e-09
6.20351e-10
0
0
0
0
0
3.46077e-09
3.04443e-10
0
0
0
0
0
0
0
0
0
0
0
0
0
0
0
0
0
0
0
0
0
0
0
0
0
0
0
3.08186e-10
6.73156e-10
1.06784e-09
1.49869e-09
1.96875e-09
2.48306e-09
3.03561e-09
3.61478e-09
4.17784e-09
4.65632e-09
4.92657e-09
4.84195e-09
4.24437e-09
3.07555e-09
1.38062e-09
0
0
0
0
0
0
3.2541e-09
5.32886e-10
0
0
0
0
0
0
0
0
0
0
0
0
0
0
0
0
0
0
0
0
0
0
0
0
0
0
0
2.55383e-10
6.41067e-10
1.05449e-09
1.4991e-09
1.97314e-09
2.47487e-09
2.98831e-09
3.48929e-09
3.92207e-09
4.21041e-09
4.23915e-09
3.89596e-09
3.08816e-09
1.82424e-09
1.93729e-10
0
0
0
0
0
0
3.04989e-09
7.18649e-10
0
0
0
0
0
0
0
0
0
0
0
0
0
0
0
0
0
0
0
0
0
0
0
0
0
0
0
1.69963e-10
5.70869e-10
9.95588e-10
1.44375e-09
1.90844e-09
2.38069e-09
2.8355e-09
3.23918e-09
3.52979e-09
3.63338e-09
3.45489e-09
2.92112e-09
1.99435e-09
7.23883e-10
0
0
0
0
0
0
0
2.84961e-09
8.66253e-10
0
0
0
0
0
0
0
0
0
0
0
0
0
0
0
0
0
0
0
0
0
0
0
0
0
0
0
4.70906e-11
4.56909e-10
8.84784e-10
1.32605e-09
1.76874e-09
2.19703e-09
2.57926e-09
2.87621e-09
3.0269e-09
2.96738e-09
2.62869e-09
1.9734e-09
1.00416e-09
0
0
0
0
0
0
0
0
2.65447e-09
9.80038e-10
0
0
0
0
0
0
0
0
0
0
0
0
0
0
0
0
0
0
0
0
0
0
0
0
0
0
0
0
2.95369e-10
7.18291e-10
1.14304e-09
1.55319e-09
1.92728e-09
2.23014e-09
2.42128e-09
2.44651e-09
2.25644e-09
1.80874e-09
1.09425e-09
1.41542e-10
0
0
0
0
0
0
0
0
2.46545e-09
1.06407e-09
0
0
0
0
0
0
0
0
0
0
0
0
0
0
0
0
0
0
0
0
0
0
0
0
0
0
0
0
8.49483e-11
4.95651e-10
8.9612e-10
1.2665e-09
1.58156e-09
1.80578e-09
1.90121e-09
1.82425e-09
1.54138e-09
1.03348e-09
3.11023e-10
0
0
0
0
0
0
0
0
0
2.28325e-09
1.1221e-09
0
0
0
0
0
0
0
0
0
0
0
0
0
0
0
0
0
0
0
0
0
0
0
0
0
0
0
0
0
2.20207e-10
5.91307e-10
9.18735e-10
1.17559e-09
1.32872e-09
1.34544e-09
1.19429e-09
8.56343e-10
3.30569e-10
0
0
0
0
0
0
0
0
0
0
2.10838e-09
1.15761e-09
0
0
0
0
0
0
0
0
0
0
0
0
0
0
0
0
0
0
0
0
0
0
0
0
0
0
0
0
0
0
2.38946e-10
5.24452e-10
7.2902e-10
8.23836e-10
7.8282e-10
5.86363e-10
2.27413e-10
0
0
0
0
0
0
0
0
0
0
0
1.94118e-09
1.17379e-09
0
0
0
0
0
0
0
0
0
0
0
0
0
0
0
0
0
0
0
0
0
0
0
0
0
0
0
0
0
0
0
1.01185e-10
2.63248e-10
3.15635e-10
2.39053e-10
2.41713e-11
0
0
0
0
0
0
0
0
0
0
0
0
1.78183e-09
1.17358e-09
0
0
0
0
0
0
0
0
0
0
0
0
0
0
0
0
0
0
0
0
0
0
0
0
0
0
0
0
0
0
0
0
0
0
0
0
0
0
0
0
0
0
0
0
0
0
0
0
1.63041e-09
1.15965e-09
0
0
0
0
0
0
0
0
0
0
0
0
0
0
0
0
0
0
0
0
0
0
0
0
0
0
0
0
0
0
0
0
0
0
0
0
0
0
0
0
0
0
0
0
0
0
0
0
1.48691e-09
1.13441e-09
0
0
0
0
0
0
0
0
0
0
0
0
0
0
0
0
0
0
0
0
0
0
0
0
0
0
0
0
0
0
0
0
0
0
0
0
0
0
0
0
0
0
0
0
0
0
0
0
1.35125e-09
1.10002e-09
0
0
0
0
0
0
0
0
0
0
0
0
0
0
0
0
0
0
0
0
0
0
0
0
0
0
0
0
0
0
0
0
0
0
0
0
0
0
0
0
0
0
0
0
0
0
0
0
1.22324e-09
1.05836e-09
0
0
0
0
0
0
0
0
0
0
0
0
0
0
0
0
0
0
0
0
0
0
0
0
0
0
0
0
0
0
0
0
0
0
0
0
0
0
0
0
0
0
0
0
0
0
0
0
1.10272e-09
1.01097e-09
0
0
0
0
0
0
0
0
0
0
0
0
0
0
0
0
0
0
0
0
0
0
0
0
0
0
0
0
0
0
0
0
0
0
0
0
0
0
0
0
0
0
0
0
0
0
0
0
9.8938e-10
9.59305e-10
0
0
0
0
0
0
0
0
0
0
0
0
0
0
0
0
0
0
0
0
0
0
0
0
0
0
0
0
0
0
0
0
0
0
0
0
0
0
0
0
0
0
0
0
0
0
0
0
8.82901e-10
9.04725e-10
0
0
0
0
0
0
0
0
0
0
0
0
0
0
0
0
0
0
0
0
0
0
0
0
0
0
0
0
0
0
0
0
0
0
0
0
0
0
0
0
0
0
0
0
0
0
2.75899e-10
0
7.82967e-10
8.4834e-10
0
0
0
0
0
0
0
0
0
0
0
0
0
0
0
0
0
0
0
0
0
0
0
0
0
0
0
0
0
0
0
0
0
0
0
0
0
0
0
0
0
0
0
0
0
0
6.05154e-10
0
6.89245e-10
7.91073e-10
0
0
0
0
0
0
0
0
0
0
0
0
0
0
0
0
0
0
0
0
0
0
0
0
0
0
0
0
0
0
0
0
0
0
0
0
0
0
0
0
0
0
0
0
0
1.07289e-10
9.35501e-10
0
6.01391e-10
7.33706e-10
0
0
0
0
0
0
0
0
0
0
0
0
0
0
0
0
0
0
0
0
0
0
0
0
0
0
0
0
0
0
0
0
0
0
0
0
0
0
0
0
0
0
0
0
1.41773e-10
4.61254e-10
1.27322e-09
0
5.19097e-10
6.76789e-10
0
0
0
0
0
0
0
0
0
0
0
0
0
0
0
0
0
0
0
0
0
0
0
0
0
0
0
0
0
0
0
0
0
0
0
0
0
0
0
0
0
0
1.55177e-10
3.279e-10
5.0434e-10
8.1995e-10
1.6256e-09
0
4.41996e-10
6.20914e-10
0
0
0
0
0
0
0
0
0
0
0
0
0
0
0
0
0
0
0
0
0
0
0
0
0
0
0
0
0
0
0
0
0
0
0
0
0
0
0
0
1.68706e-10
3.45014e-10
5.20229e-10
6.9522e-10
8.73527e-10
1.19009e-09
2.00088e-09
0
3.6974e-10
5.66552e-10
0
0
0
0
0
0
0
0
0
0
0
0
0
0
0
0
0
0
0
0
0
0
0
0
0
0
0
0
0
0
0
0
0
0
0
0
0
0
1.77916e-10
3.57615e-10
5.36181e-10
7.15336e-10
8.94231e-10
1.07256e-09
1.2558e-09
1.57956e-09
2.40864e-09
0
3.01986e-10
5.14091e-10
0
0
0
0
0
0
0
0
0
0
0
0
0
0
0
0
0
0
0
0
0
0
0
0
0
0
0
0
0
0
0
0
0
0
0
0
1.92787e-10
3.79839e-10
5.61065e-10
7.40323e-10
9.19237e-10
1.09977e-09
1.28265e-09
1.46662e-09
1.65914e-09
1.99794e-09
2.86035e-09
0
2.38395e-10
4.63857e-10
0
0
0
0
0
0
0
0
0
0
0
0
0
0
0
0
0
0
0
0
0
0
0
0
0
0
0
0
0
0
0
0
0
0
2.21704e-10
4.26268e-10
6.15234e-10
7.94683e-10
9.70059e-10
1.14562e-09
1.32298e-09
1.50451e-09
1.69282e-09
1.88599e-09
2.09356e-09
2.45675e-09
3.36941e-09
0
1.78633e-10
4.16129e-10
0
0
0
0
0
0
0
0
0
0
0
0
0
0
0
0
0
0
0
0
0
0
0
0
0
0
0
0
0
0
0
0
2.675e-10
5.04007e-10
7.13654e-10
9.02405e-10
1.07695e-09
1.24399e-09
1.40977e-09
1.57929e-09
1.75476e-09
1.9381e-09
2.13445e-09
2.3417e-09
2.57122e-09
2.96949e-09
3.95093e-09
0
1.22388e-10
3.7116e-10
0
0
0
0
0
0
0
0
0
0
0
0
0
0
0
0
0
0
0
0
0
0
0
0
0
0
0
0
0
1.13764e-11
3.30382e-10
6.1241e-10
8.58492e-10
1.07228e-09
1.25954e-09
1.42714e-09
1.58258e-09
1.73339e-09
1.88696e-09
2.04939e-09
2.22449e-09
2.41199e-09
2.62002e-09
2.84723e-09
3.10668e-09
3.55171e-09
4.6214e-09
0
6.93603e-11
3.292e-10
0
0
0
0
0
0
0
0
0
0
0
0
0
0
0
0
0
0
0
0
0
0
0
0
0
0
0
3.71029e-11
4.09481e-10
7.45914e-10
1.04288e-09
1.29965e-09
1.51849e-09
1.70431e-09
1.86416e-09
2.0061e-09
2.13879e-09
2.27078e-09
2.41085e-09
2.56646e-09
2.7435e-09
2.93976e-09
3.16407e-09
3.418e-09
3.71605e-09
4.22009e-09
5.39779e-09
0
1.92795e-11
2.90527e-10
0
0
0
0
0
0
0
0
0
0
0
0
0
0
0
0
0
0
0
0
0
0
0
0
0
8.28941e-11
5.03719e-10
8.96035e-10
1.2523e-09
1.56711e-09
1.83784e-09
2.06495e-09
2.25206e-09
2.40552e-09
2.53388e-09
2.64676e-09
2.75423e-09
2.86617e-09
2.99286e-09
3.14333e-09
3.32537e-09
3.53683e-09
3.78317e-09
4.07092e-09
4.41632e-09
4.99147e-09
6.29608e-09
0
0
2.55466e-10
0
0
0
0
0
0
0
0
0
0
0
0
0
0
0
0
0
0
0
0
0
0
0
1.58503e-10
6.15982e-10
1.05682e-09
1.47164e-09
1.85135e-09
2.1886e-09
2.47852e-09
2.71944e-09
2.91313e-09
3.06484e-09
3.18261e-09
3.27665e-09
3.35831e-09
3.43944e-09
3.53144e-09
3.64626e-09
3.79463e-09
3.98614e-09
4.21972e-09
4.49491e-09
4.82366e-09
5.22444e-09
5.8814e-09
7.32959e-09
0
0
2.24486e-10
0
0
0
0
0
0
0
0
0
0
0
0
0
0
0
0
0
0
0
0
0
2.70807e-10
7.55992e-10
1.23183e-09
1.69418e-09
2.13393e-09
2.54104e-09
2.90615e-09
3.22202e-09
3.48439e-09
3.69262e-09
3.85001e-09
3.96364e-09
4.04353e-09
4.10175e-09
4.15144e-09
4.20644e-09
4.28001e-09
4.38585e-09
4.53639e-09
4.74293e-09
5.00597e-09
5.31705e-09
5.69316e-09
6.1561e-09
6.90322e-09
8.50761e-09
0
0
1.98244e-10
0
0
0
0
0
0
0
0
0
0
0
0
0
0
0
0
0
0
0
4.00384e-10
9.2354e-10
1.43107e-09
1.92749e-09
2.41245e-09
2.87888e-09
3.31659e-09
3.71478e-09
4.06381e-09
4.35662e-09
4.58957e-09
4.76319e-09
4.88245e-09
4.95644e-09
4.9974e-09
5.01955e-09
5.03796e-09
5.06842e-09
5.12637e-09
5.22728e-09
5.38527e-09
5.61312e-09
5.91235e-09
6.2673e-09
6.69503e-09
7.22423e-09
8.06644e-09
9.83503e-09
0
0
1.77491e-10
0
0
0
0
0
0
0
0
0
0
0
0
0
0
0
0
0
5.19682e-10
1.09843e-09
1.64879e-09
2.1804e-09
2.69959e-09
3.20818e-09
3.70192e-09
4.17194e-09
4.60695e-09
4.99547e-09
5.32766e-09
5.59661e-09
5.79935e-09
5.93761e-09
6.01808e-09
6.05211e-09
6.05436e-09
6.04143e-09
6.03054e-09
6.0394e-09
6.08559e-09
6.18654e-09
6.35785e-09
6.61349e-09
6.95529e-09
7.36091e-09
7.84229e-09
8.43879e-09
9.37703e-09
1.13119e-08
0
0
1.63423e-10
0
0
0
0
0
0
0
0
0
0
0
0
0
0
0
6.28893e-10
1.27444e-09
1.87872e-09
2.45171e-09
3.00467e-09
3.54566e-09
4.07773e-09
4.59855e-09
5.10101e-09
5.57447e-09
6.00666e-09
6.38554e-09
6.70104e-09
6.9464e-09
7.11927e-09
7.22261e-09
7.26498e-09
7.26006e-09
7.22513e-09
7.17936e-09
7.14227e-09
7.13355e-09
7.17271e-09
7.27918e-09
7.46986e-09
7.75946e-09
8.14953e-09
8.6109e-09
9.14525e-09
9.80627e-09
1.08367e-08
1.29338e-08
0
0
1.58736e-10
0
0
0
0
0
0
0
0
0
0
0
0
0
7.03174e-10
1.42312e-09
2.10595e-09
2.742e-09
3.33826e-09
3.90901e-09
4.46703e-09
5.01887e-09
5.56426e-09
6.09745e-09
6.60876e-09
7.08605e-09
7.51612e-09
7.88643e-09
8.18664e-09
8.41002e-09
8.55477e-09
8.62506e-09
8.63142e-09
8.58999e-09
8.52077e-09
8.44559e-09
8.38637e-09
8.3648e-09
8.40216e-09
8.51974e-09
8.73554e-09
9.06453e-09
9.50731e-09
1.00278e-08
1.06113e-08
1.13297e-08
1.24435e-08
1.46926e-08
0
0
1.66574e-10
0
0
0
0
0
0
0
0
0
0
9.83529e-11
7.10168e-10
1.41712e-09
2.19127e-09
2.94571e-09
3.64708e-09
4.29007e-09
4.88885e-09
5.46399e-09
6.03111e-09
6.59605e-09
7.15583e-09
7.7019e-09
8.22257e-09
8.70456e-09
9.13401e-09
9.4979e-09
9.78553e-09
9.99008e-09
1.01102e-08
1.01511e-08
1.01253e-08
1.00513e-08
9.95205e-09
9.85206e-09
9.77564e-09
9.74645e-09
9.7874e-09
9.92139e-09
1.01673e-08
1.054e-08
1.10384e-08
1.16198e-08
1.2245e-08
1.30092e-08
1.41922e-08
1.65763e-08
0
0
1.90957e-10
0
0
0
2.63981e-10
6.7514e-10
9.74403e-10
9.77969e-10
8.09018e-10
7.59364e-10
9.82387e-10
1.43054e-09
2.01361e-09
2.74159e-09
3.62064e-09
4.45934e-09
5.21731e-09
5.89433e-09
6.51369e-09
7.10455e-09
7.6874e-09
8.26893e-09
8.84481e-09
9.4047e-09
9.93582e-09
1.04243e-08
1.08558e-08
1.1217e-08
1.14966e-08
1.16874e-08
1.17883e-08
1.18055e-08
1.17531e-08
1.16523e-08
1.15287e-08
1.14095e-08
1.13214e-08
1.12901e-08
1.13399e-08
1.1495e-08
1.17751e-08
1.21943e-08
1.27496e-08
1.33927e-08
1.40487e-08
1.48419e-08
1.6074e-08
1.85692e-08
0
0
2.39929e-10
5.32003e-11
4.05072e-11
3.27045e-10
8.68075e-10
1.56752e-09
2.11993e-09
2.24128e-09
2.08274e-09
2.00011e-09
2.18295e-09
2.5904e-09
3.13723e-09
3.8678e-09
4.90721e-09
5.90178e-09
6.76958e-09
7.51916e-09
8.18579e-09
8.80969e-09
9.41857e-09
1.00222e-08
1.06169e-08
1.11921e-08
1.17355e-08
1.22332e-08
1.26713e-08
1.30356e-08
1.33142e-08
1.34992e-08
1.35892e-08
1.35909e-08
1.352e-08
1.34e-08
1.32591e-08
1.31273e-08
1.30337e-08
1.30056e-08
1.30689e-08
1.32489e-08
1.35659e-08
1.4033e-08
1.46446e-08
1.53481e-08
1.60243e-08
1.68223e-08
1.80766e-08
2.06505e-08
0
0
3.23222e-10
2.35103e-10
3.51889e-10
8.11811e-10
1.59213e-09
2.59253e-09
3.34661e-09
3.52159e-09
3.30673e-09
3.14005e-09
3.25247e-09
3.6079e-09
4.11105e-09
4.80771e-09
5.95516e-09
7.19429e-09
8.23948e-09
9.11311e-09
9.86392e-09
1.05455e-08
1.11954e-08
1.18292e-08
1.24467e-08
1.304e-08
1.35987e-08
1.41106e-08
1.4562e-08
1.49383e-08
1.52262e-08
1.54166e-08
1.55071e-08
1.55047e-08
1.54262e-08
1.5297e-08
1.5148e-08
1.50117e-08
1.49193e-08
1.49001e-08
1.49812e-08
1.51888e-08
1.55441e-08
1.60588e-08
1.67245e-08
1.74845e-08
1.81734e-08
1.89428e-08
2.01826e-08
2.27916e-08
0
0
4.62002e-10
4.93424e-10
7.60926e-10
1.42068e-09
2.46811e-09
3.75561e-09
4.60512e-09
4.77055e-09
4.48712e-09
4.25787e-09
4.32447e-09
4.64824e-09
5.12588e-09
5.76635e-09
6.80618e-09
8.27136e-09
9.5445e-09
1.05997e-08
1.14829e-08
1.22563e-08
1.29685e-08
1.36443e-08
1.4291e-08
1.49068e-08
1.54862e-08
1.60202e-08
1.64959e-08
1.68977e-08
1.72104e-08
1.74225e-08
1.75299e-08
1.75391e-08
1.74674e-08
1.73419e-08
1.71959e-08
1.70643e-08
1.69806e-08
1.69757e-08
1.70782e-08
1.73152e-08
1.77088e-08
1.82692e-08
1.89853e-08
1.9796e-08
2.0493e-08
2.11917e-08
2.23679e-08
2.49525e-08
0
0
6.87927e-10
8.68958e-10
1.31478e-09
2.20056e-09
3.53271e-09
5.03203e-09
5.87879e-09
6.02385e-09
5.75565e-09
5.55644e-09
5.63758e-09
5.96853e-09
6.47924e-09
7.11546e-09
7.87357e-09
8.98902e-09
1.05097e-08
1.18345e-08
1.29288e-08
1.3849e-08
1.46566e-08
1.53927e-08
1.60786e-08
1.67248e-08
1.73343e-08
1.79033e-08
1.84201e-08
1.88677e-08
1.92276e-08
1.94848e-08
1.96324e-08
1.9675e-08
1.963e-08
1.95256e-08
1.9397e-08
1.92815e-08
1.9215e-08
1.92302e-08
1.9357e-08
1.96238e-08
2.00539e-08
2.06563e-08
2.14166e-08
2.22694e-08
2.29729e-08
2.35498e-08
2.45969e-08
2.70766e-08
0
5.84521e-11
1.05668e-09
1.4163e-09
2.0683e-09
3.20847e-09
4.82991e-09
6.40416e-09
7.1839e-09
7.36633e-09
7.22523e-09
7.10716e-09
7.24029e-09
7.66073e-09
8.21366e-09
8.83888e-09
9.46926e-09
1.0115e-08
1.10369e-08
1.26468e-08
1.40678e-08
1.52018e-08
1.6142e-08
1.69579e-08
1.76955e-08
1.83842e-08
1.90401e-08
1.96657e-08
2.02506e-08
2.07751e-08
2.12156e-08
2.15518e-08
2.1772e-08
2.18781e-08
2.18864e-08
2.18257e-08
2.17331e-08
2.16482e-08
2.16091e-08
2.16507e-08
2.18049e-08
2.21014e-08
2.25648e-08
2.32037e-08
2.39998e-08
2.48814e-08
2.55841e-08
2.59815e-08
2.68178e-08
2.90906e-08
0
4.78331e-10
1.66011e-09
2.2236e-09
3.10214e-09
4.50832e-09
6.37194e-09
7.82925e-09
8.54192e-09
8.85186e-09
8.84787e-09
8.8232e-09
9.26588e-09
9.7398e-09
1.03091e-08
1.07433e-08
1.11594e-08
1.17154e-08
1.22832e-08
1.31715e-08
1.47901e-08
1.61706e-08
1.72644e-08
1.81724e-08
1.89717e-08
1.97176e-08
2.04433e-08
2.11591e-08
2.18542e-08
2.25032e-08
2.30746e-08
2.35395e-08
2.38799e-08
2.40925e-08
2.41913e-08
2.42053e-08
2.41731e-08
2.41369e-08
2.41375e-08
2.42127e-08
2.43966e-08
2.47209e-08
2.52127e-08
2.58799e-08
2.66993e-08
2.75872e-08
2.82515e-08
2.84041e-08
2.89455e-08
3.09062e-08
0
1.33225e-09
2.652e-09
3.39983e-09
4.49327e-09
6.14783e-09
8.13418e-09
9.29397e-09
9.98379e-09
1.04149e-08
1.04205e-08
1.07737e-08
1.15419e-08
1.2115e-08
1.27584e-08
1.30701e-08
1.29763e-08
1.32286e-08
1.37008e-08
1.42258e-08
1.51341e-08
1.66285e-08
1.78396e-08
1.8819e-08
1.96724e-08
2.04848e-08
2.13092e-08
2.21624e-08
2.30292e-08
2.38732e-08
2.4649e-08
2.53151e-08
2.58428e-08
2.62223e-08
2.64641e-08
2.65963e-08
2.66584e-08
2.66953e-08
2.67517e-08
2.68688e-08
2.70845e-08
2.74337e-08
2.79468e-08
2.86311e-08
2.94539e-08
3.03068e-08
3.08125e-08
3.06417e-08
3.08363e-08
3.24295e-08
0
3.02319e-09
4.23153e-09
5.0528e-09
6.28645e-09
8.08885e-09
9.92126e-09
1.0728e-08
1.14225e-08
1.18915e-08
1.19149e-08
1.28211e-08
1.38066e-08
1.44732e-08
1.52291e-08
1.56327e-08
1.50734e-08
1.48249e-08
1.49729e-08
1.53698e-08
1.58494e-08
1.66359e-08
1.77655e-08
1.8698e-08
1.95278e-08
2.03697e-08
2.12976e-08
2.23305e-08
2.34404e-08
2.45699e-08
2.56519e-08
2.66242e-08
2.74382e-08
2.80694e-08
2.85243e-08
2.88317e-08
2.90328e-08
2.91744e-08
2.93054e-08
2.94733e-08
2.97218e-08
3.00915e-08
3.06173e-08
3.13022e-08
3.20927e-08
3.28179e-08
3.28913e-08
3.23602e-08
3.22528e-08
3.35508e-08
4.89304e-09
6.04289e-09
6.35643e-09
6.94911e-09
8.13956e-09
9.86274e-09
1.11907e-08
1.17289e-08
1.24787e-08
1.2878e-08
1.30654e-08
1.44866e-08
1.54898e-08
1.62275e-08
1.7117e-08
1.78067e-08
1.71899e-08
1.64813e-08
1.61436e-08
1.61612e-08
1.64405e-08
1.68528e-08
1.73471e-08
1.80057e-08
1.8598e-08
1.92053e-08
2.00035e-08
2.11486e-08
2.25118e-08
2.39863e-08
2.54638e-08
2.68482e-08
2.80617e-08
2.90545e-08
2.98177e-08
3.03763e-08
3.07739e-08
3.10604e-08
3.12878e-08
3.15133e-08
3.17932e-08
3.2177e-08
3.27043e-08
3.33609e-08
3.40426e-08
3.43954e-08
3.37858e-08
3.30896e-08
3.28791e-08
3.41245e-08
0
6.81554e-11
4.59493e-11
0
0
0
4.48982e-10
1.75293e-09
2.87738e-09
2.78968e-09
1.84971e-09
7.70966e-10
0
0
0
0
2.73294e-10
9.95088e-10
1.67073e-09
3.83997e-09
1.10967e-08
2.32158e-08
2.84139e-08
2.37278e-08
1.17745e-08
2.9352e-09
2.21182e-10
4.98869e-10
1.04614e-09
1.05576e-09
1.26271e-09
1.69417e-09
4.19566e-10
0
1.34688e-09
3.31936e-09
4.10064e-09
4.21644e-09
4.0354e-09
0
0
0
2.34893e-10
4.85165e-09
6.94822e-09
7.58124e-09
7.52024e-09
6.98072e-09
6.99663e-09
7.09195e-09
4.00006e-09
0
4.41517e-09
1.69834e-08
2.09527e-08
1.15421e-08
0
0
0
0
0
0
0
0
0
0
0
0
0
0
0
0
1.40404e-09
1.59084e-09
1.73257e-09
2.181e-09
1.55894e-09
0
1.46484e-09
6.8442e-09
8.89429e-09
8.47656e-09
8.72375e-09
1.02363e-08
1.3069e-08
1.60213e-08
1.97452e-08
2.18834e-08
2.36128e-08
2.05511e-08
1.06088e-08
0
0
0
0
0
5.69193e-08
3.28933e-08
4.29992e-08
0
0
2.77178e-11
0
0
0
0
2.34726e-10
1.07939e-09
2.12986e-09
2.23127e-09
1.4662e-09
5.8002e-10
0
0
0
0
7.36631e-10
1.43404e-09
1.87802e-09
3.67969e-09
1.06022e-08
2.14042e-08
2.58257e-08
2.18567e-08
1.04251e-08
2.45343e-09
5.16883e-10
1.05169e-09
1.61494e-09
1.6118e-09
1.52753e-09
1.97649e-09
9.40352e-10
0
4.84074e-10
2.86152e-09
3.95006e-09
4.11938e-09
4.18365e-09
1.65732e-09
0
0
0
3.74764e-09
6.45564e-09
7.36952e-09
7.3313e-09
7.09484e-09
7.41272e-09
7.24174e-09
3.25554e-09
0
5.37767e-09
1.69923e-08
1.99693e-08
9.42612e-09
0
0
0
0
0
0
0
0
0
0
0
0
0
0
0
0
1.25058e-09
1.57707e-09
1.70245e-09
2.19322e-09
2.27216e-09
9.08208e-10
1.68179e-09
6.32858e-09
8.49675e-09
7.9575e-09
7.95136e-09
9.25122e-09
1.19969e-08
1.49402e-08
1.85559e-08
2.05607e-08
2.21632e-08
1.90515e-08
8.73226e-09
0
0
0
0
0
3.5738e-08
2.84558e-08
3.5641e-08
4.94141e-09
0
1.1258e-11
0
0
0
0
1.50682e-10
6.39703e-10
1.4635e-09
1.66037e-09
1.10305e-09
3.97766e-10
0
0
0
1.93379e-10
1.19149e-09
1.82745e-09
2.09134e-09
3.62903e-09
1.03011e-08
1.95685e-08
2.35343e-08
2.01783e-08
9.11234e-09
2.014e-09
9.20993e-10
1.68779e-09
2.2395e-09
2.28313e-09
1.86722e-09
2.21871e-09
1.54091e-09
0
0
2.38742e-09
3.73644e-09
4.05281e-09
4.18475e-09
3.15733e-09
0
0
0
2.45149e-09
5.85566e-09
7.13204e-09
7.11352e-09
7.15731e-09
7.93709e-09
7.36656e-09
2.52723e-09
0
6.44756e-09
1.68375e-08
1.89587e-08
7.60112e-09
0
0
0
0
0
1.67356e-09
0
0
0
0
0
0
0
0
0
0
9.37765e-10
1.5734e-09
1.70462e-09
2.18695e-09
2.71833e-09
1.95041e-09
2.11177e-09
5.89768e-09
8.14246e-09
7.51024e-09
7.23112e-09
8.29885e-09
1.09495e-08
1.38868e-08
1.74003e-08
1.92721e-08
2.07455e-08
1.76147e-08
7.02122e-09
0
0
0
0
0
2.11111e-08
2.59042e-08
2.36121e-08
3.29704e-08
3.03458e-12
6.6556e-12
0
0
0
0
1.28986e-10
4.40563e-10
9.63674e-10
1.11557e-09
7.36293e-10
2.18775e-10
0
0
0
5.51256e-10
1.57441e-09
2.17074e-09
2.31685e-09
3.71973e-09
1.00182e-08
1.7769e-08
2.14294e-08
1.82744e-08
7.62739e-09
1.63426e-09
1.47172e-09
2.39291e-09
2.92668e-09