/*--------------------------------*- C++ -*----------------------------------*\
  =========                 |
  \\      /  F ield         | OpenFOAM: The Open Source CFD Toolbox
   \\    /   O peration     | Website:  https://openfoam.org
    \\  /    A nd           | Version:  7
     \\/     M anipulation  |
\*---------------------------------------------------------------------------*/
FoamFile
{
    version     2.0;
    format      ascii;
    class       volScalarField;
    location    "0.36";
    object      p;
}
// * * * * * * * * * * * * * * * * * * * * * * * * * * * * * * * * * * * * * //

dimensions      [0 2 -2 0 0 0 0];

internalField   nonuniform List<scalar> 
70000
(
0.101426
0.0245405
0.0114022
0.0138643
0.0141378
0.0131067
0.0121663
0.011458
0.0108732
0.0103619
0.0099102
0.00951018
0.00915439
0.00883635
0.00855076
0.0082934
0.00806092
0.00785062
0.00766038
0.00748849
0.00733361
0.00719466
0.00707085
0.00696154
0.00686631
0.00678487
0.00671711
0.006663
0.0066227
0.0065964
0.00658446
0.00658718
0.0066051
0.00663835
0.00668754
0.00675224
0.0068328
0.00692752
0.00703554
0.00715301
0.00727492
0.0073952
0.00749579
0.00757283
0.00756969
0.00750479
0.00721427
0.00679957
0.00583241
0.00454956
0.0971256
0.0249025
0.0116048
0.013959
0.0141922
0.0131425
0.0121942
0.0114811
0.0108926
0.0103785
0.00992462
0.00952293
0.00916579
0.00884664
0.00856013
0.00830199
0.00806885
0.00785798
0.00766724
0.00749492
0.00733965
0.00720036
0.00707625
0.00696667
0.0068712
0.00678955
0.0067216
0.00666732
0.00662687
0.00660043
0.00658838
0.006591
0.00660884
0.00664203
0.00669118
0.00675586
0.00683642
0.00693118
0.00703926
0.00715686
0.00727892
0.00739946
0.00750032
0.00757783
0.00757509
0.00751095
0.007221
0.00680653
0.00584261
0.00460738
0.0935202
0.0258248
0.0119493
0.0140876
0.0142669
0.0131875
0.0122265
0.0115073
0.0109144
0.0103969
0.00994057
0.00953693
0.00917826
0.00885785
0.0085703
0.00831129
0.00807741
0.0078659
0.00767461
0.00750181
0.00734611
0.00720646
0.00708201
0.00697213
0.0068764
0.00679451
0.00672633
0.00667186
0.00663123
0.00660464
0.00659245
0.00659495
0.00661268
0.00664579
0.00669487
0.00675951
0.00684006
0.00693485
0.00704301
0.00716076
0.00728304
0.00740397
0.00750527
0.00758365
0.00758177
0.00751942
0.00723138
0.00681928
0.00587443
0.00468635
0.0904154
0.0269238
0.0124256
0.0142601
0.0143681
0.0132454
0.0122647
0.0115372
0.010939
0.0104175
0.00995801
0.00955207
0.00919161
0.00886977
0.00858105
0.00832107
0.00808636
0.00787416
0.00768226
0.00750893
0.00735277
0.0072127
0.00708789
0.00697769
0.00688166
0.0067995
0.00673109
0.00667639
0.00663556
0.00660879
0.00659643
0.00659877
0.00661636
0.00664935
0.00669833
0.0067629
0.0068434
0.0069382
0.00704641
0.00716432
0.00728687
0.00740827
0.00751027
0.00758981
0.00758958
0.00752984
0.00724631
0.00683855
0.00592946
0.00479191
0.087459
0.0280174
0.012999
0.0144782
0.0145026
0.0133238
0.0123138
0.0115742
0.010969
0.010442
0.00997856
0.00956964
0.00920691
0.00888329
0.00859313
0.00833196
0.00809626
0.00788322
0.0076906
0.00751665
0.00735994
0.0072194
0.00709415
0.00698357
0.00688719
0.00680472
0.00673602
0.00668106
0.00663998
0.00661297
0.00660039
0.00660253
0.00661993
0.00665273
0.00670155
0.00676598
0.00684637
0.00694111
0.00704933
0.00716735
0.00729016
0.0074121
0.00751498
0.00759601
0.00759825
0.00754199
0.00726634
0.00686546
0.00600854
0.00493592
0.0845517
0.0290494
0.0136227
0.0147225
0.0146646
0.0134243
0.0123763
0.0116205
0.0110062
0.0104725
0.0100037
0.00959092
0.00922526
0.00889935
0.00860735
0.00834467
0.00810772
0.00789363
0.00770012
0.00752539
0.00736801
0.00722687
0.0071011
0.00699004
0.00689324
0.00681037
0.0067413
0.006686
0.00664461
0.00661729
0.00660442
0.00660628
0.00662341
0.00665595
0.00670451
0.00676871
0.00684888
0.00694345
0.00705156
0.00716962
0.00729262
0.00741509
0.00751898
0.00760176
0.00760733
0.00755546
0.0072916
0.00690129
0.00611171
0.00512385
0.0816862
0.0300024
0.0142634
0.0149719
0.0148409
0.0135421
0.0124512
0.011676
0.0110512
0.0105094
0.0100343
0.00961668
0.00924739
0.00891863
0.00862434
0.00835979
0.00812127
0.00790586
0.00771123
0.00753554
0.00737732
0.00723544
0.00710901
0.00699736
0.00690001
0.00681665
0.00674712
0.00669139
0.00664958
0.00662187
0.00660861
0.00661009
0.00662683
0.006659
0.00670717
0.006771
0.0068508
0.00694506
0.00705289
0.00717084
0.00729388
0.00741682
0.00752176
0.0076065
0.00761625
0.00756974
0.00732193
0.00694715
0.00623814
0.0053576
0.0788716
0.0308701
0.0149049
0.0152145
0.0150205
0.0136706
0.0125351
0.0117386
0.0111027
0.0105521
0.01007
0.00964695
0.00927347
0.00894139
0.0086444
0.00837762
0.00813724
0.00792025
0.00772426
0.0075474
0.00738815
0.00724536
0.00711812
0.00700574
0.00690773
0.00682375
0.00675364
0.00669737
0.00665503
0.00662681
0.00661305
0.00661402
0.00663025
0.00666189
0.00670952
0.00677282
0.00685205
0.00694581
0.00705312
0.00717076
0.00729362
0.00741689
0.00752285
0.00760966
0.00762449
0.00758432
0.00735695
0.00700389
0.00638598
0.00563679
0.0761145
0.0316499
0.0155418
0.0154466
0.0151972
0.013805
0.0126247
0.0118059
0.0111587
0.0105993
0.0101098
0.00968106
0.00930308
0.00896739
0.00866742
0.00839815
0.00815566
0.00793687
0.00773933
0.00756111
0.00740067
0.00725681
0.00712861
0.00701536
0.00691654
0.00683182
0.00676101
0.00670406
0.00666108
0.00663221
0.00661781
0.00661814
0.0066337
0.00666466
0.00671156
0.00677412
0.00685256
0.00694557
0.0070521
0.00716916
0.00729157
0.00741495
0.00752185
0.00761076
0.00763154
0.00759877
0.00739609
0.00707189
0.00655302
0.00595683
0.0734183
0.0323411
0.0161727
0.0156679
0.0153682
0.0139425
0.0127179
0.0118758
0.0112174
0.0106494
0.0101526
0.00971799
0.00933541
0.00899599
0.00869291
0.00842101
0.00817628
0.00795554
0.00775631
0.00757659
0.00741483
0.00726978
0.0071405
0.00702625
0.00692651
0.00684092
0.00676929
0.00671155
0.00666778
0.00663815
0.00662297
0.0066225
0.00663723
0.00666733
0.0067133
0.0067749
0.00685231
0.0069443
0.00704975
0.00716592
0.00728756
0.00741076
0.00751849
0.00760945
0.00763701
0.00761282
0.00743866
0.00715095
0.0067367
0.00630942
0.0707862
0.0329439
0.0167965
0.0158796
0.015532
0.0140816
0.0128137
0.0119473
0.0112776
0.0107013
0.0101973
0.0097568
0.00936962
0.00902645
0.00872024
0.00844567
0.00819863
0.00797589
0.00777489
0.00759361
0.00743043
0.00728411
0.00715365
0.00703832
0.00693756
0.00685101
0.00677845
0.00671981
0.00667515
0.00664463
0.00662853
0.00662713
0.00664086
0.00666992
0.00671476
0.00677519
0.00685129
0.00694199
0.00704603
0.00716099
0.00728153
0.00740423
0.00751267
0.00760559
0.00764069
0.0076264
0.00748394
0.00724028
0.00693396
0.00668589
0.0682213
0.0334588
0.0174117
0.0160827
0.0156877
0.0142214
0.0129118
0.0120198
0.0113386
0.0107542
0.0102431
0.00979682
0.00940506
0.00905817
0.00874884
0.0084716
0.00822225
0.00799748
0.00779469
0.0076118
0.00744718
0.00729953
0.00716785
0.00705137
0.00694954
0.00686195
0.00678838
0.00672875
0.00668311
0.00665159
0.00663446
0.00663198
0.00664457
0.00667242
0.00671594
0.00677498
0.00684953
0.00693867
0.007041
0.00715442
0.00727356
0.00739542
0.00750444
0.00759925
0.00764253
0.0076396
0.0075313
0.00733851
0.0071414
0.00707681
0.0657263
0.0338865
0.018016
0.0162788
0.0158347
0.014361
0.0130118
0.0120933
0.0114003
0.0108079
0.0102897
0.00983769
0.00944135
0.00909075
0.0087783
0.0084984
0.00824674
0.00801995
0.00781536
0.00763086
0.00746477
0.00731577
0.00718284
0.00706518
0.00696222
0.00687355
0.00679892
0.00673824
0.00669154
0.00665893
0.00664067
0.00663701
0.00664833
0.00667482
0.00671685
0.0067743
0.00684708
0.0069344
0.00703477
0.00714633
0.0072638
0.00738452
0.00749404
0.00759072
0.00764272
0.00765266
0.00758022
0.00744388
0.00735542
0.00747237
0.0633037
0.0342278
0.0186068
0.0164691
0.0159726
0.0144995
0.0131139
0.0121677
0.0114624
0.0108622
0.0103371
0.00987924
0.00947828
0.00912396
0.00880841
0.00852584
0.00827187
0.00804305
0.00783665
0.00765053
0.00748296
0.0073326
0.00719839
0.00707953
0.00697542
0.00688562
0.0068099
0.00674811
0.00670029
0.00666653
0.00664707
0.00664213
0.00665206
0.00667708
0.00671747
0.00677316
0.00684399
0.00692928
0.00702745
0.00713691
0.0072525
0.00737184
0.00748182
0.00758044
0.00764157
0.00766589
0.00763029
0.00755437
0.00757231
0.00786341
0.060956
0.0344842
0.0191808
0.0166554
0.0161009
0.0146362
0.0132177
0.0122429
0.0115248
0.0109171
0.0103851
0.00992138
0.00951577
0.00915771
0.00883903
0.00855379
0.00829749
0.00806662
0.00785841
0.00767065
0.00750159
0.00734985
0.00721435
0.00709427
0.00698898
0.00689803
0.00682117
0.00675824
0.00670925
0.00667428
0.00665354
0.00664725
0.00665571
0.00667914
0.00671778
0.00677157
0.00684031
0.00692338
0.0070192
0.00712634
0.00723992
0.00735771
0.00746815
0.0075689
0.00763948
0.0076796
0.00768121
0.00766792
0.00778853
0.00824205
0.0586851
0.0346574
0.0197349
0.016839
0.0162196
0.0147698
0.013323
0.0123192
0.0115876
0.0109723
0.0104337
0.00996408
0.00955378
0.00919195
0.00887012
0.00858217
0.00832353
0.0080906
0.00788056
0.00769114
0.00752056
0.00736743
0.00723062
0.00710929
0.00700279
0.00691067
0.00683264
0.00676853
0.00671832
0.00668209
0.00666002
0.00665231
0.00665923
0.00668098
0.00671776
0.00676955
0.00683606
0.00691678
0.00701012
0.00711481
0.00722629
0.00734247
0.0074534
0.00755657
0.00763684
0.00769397
0.00773265
0.00778254
0.00800075
0.00860192
0.0564925
0.0347496
0.020266
0.0170213
0.0163285
0.0148996
0.0134296
0.0123963
0.0116506
0.0110279
0.0104827
0.0100073
0.00959228
0.00922665
0.00890164
0.00861098
0.00834997
0.00811495
0.00790305
0.00771195
0.00753984
0.00738528
0.00724713
0.00712453
0.0070168
0.00692347
0.00684423
0.0067789
0.00672745
0.00668991
0.00666645
0.00665725
0.00666256
0.00668256
0.0067174
0.00676709
0.00683129
0.00690955
0.00700033
0.00710246
0.0072118
0.00732638
0.00743788
0.0075438
0.00763394
0.00770906
0.00778426
0.00789635
0.00820603
0.00893827
0.0543796
0.0347634
0.020771
0.0172033
0.016428
0.0150243
0.0135371
0.0124745
0.0117138
0.0110838
0.0105323
0.0100511
0.00963125
0.00926179
0.00893359
0.00864018
0.00837678
0.00813965
0.00792586
0.00773306
0.00755939
0.00740338
0.00726387
0.00713996
0.00703097
0.0069364
0.00685592
0.00678933
0.00673658
0.00669768
0.00667278
0.00666204
0.00666567
0.00668385
0.00671668
0.00676418
0.00682599
0.00690172
0.00698987
0.00708939
0.00719659
0.00730962
0.00742178
0.00753081
0.00763095
0.00772473
0.00783556
0.00800764
0.00840179
0.00924772
0.0523471
0.0347021
0.0212467
0.0173858
0.0165184
0.0151432
0.013645
0.0125536
0.0117771
0.0111398
0.0105823
0.0100953
0.00967067
0.00929735
0.00896595
0.00866978
0.00840396
0.0081647
0.00794899
0.00775446
0.0075792
0.00742171
0.00728081
0.00715556
0.00704528
0.00694943
0.00686767
0.00679978
0.00674568
0.00670539
0.00667899
0.00666665
0.00666854
0.00668483
0.00671558
0.00676082
0.00682018
0.00689329
0.00697877
0.00707565
0.00718073
0.00729229
0.00740521
0.00751771
0.0076279
0.00774069
0.00788592
0.00811479
0.00858573
0.00952787
0.0503953
0.0345694
0.0216904
0.0175693
0.0166003
0.0152552
0.0137526
0.0126337
0.0118405
0.0111959
0.0106326
0.0101399
0.00971052
0.00933332
0.00899869
0.00869975
0.00843149
0.00819007
0.00797243
0.00777614
0.00759926
0.00744027
0.00729794
0.00717133
0.00705971
0.00696255
0.00687947
0.00681024
0.00675475
0.006713
0.00668506
0.00667106
0.00667114
0.00668547
0.00671408
0.00675698
0.00681382
0.00688426
0.00696703
0.00706125
0.00716422
0.00727442
0.00738818
0.00750444
0.00762466
0.00775647
0.00793459
0.00821629
0.00875579
0.00977698
0.0485241
0.0343695
0.0220991
0.0177537
0.0166743
0.0153595
0.0138595
0.0127146
0.0119039
0.011252
0.0106832
0.010185
0.00975076
0.00936966
0.00903181
0.00873007
0.00845936
0.00821576
0.00799616
0.00779809
0.00761957
0.00745904
0.00731525
0.00718724
0.00707426
0.00697574
0.0068913
0.00682068
0.00676376
0.0067205
0.00669095
0.00667523
0.00667345
0.00668575
0.00671214
0.00675264
0.0068069
0.0068746
0.00695464
0.00704618
0.00714705
0.00725598
0.00737065
0.00749089
0.007621
0.00777151
0.00798072
0.00831066
0.00891007
0.00999369
0.046733
0.0341067
0.0224702
0.0179389
0.0167414
0.0154555
0.0139647
0.0127963
0.0119675
0.0113079
0.0107339
0.0102304
0.00979138
0.00940636
0.00906527
0.00876074
0.00848756
0.00824176
0.00802018
0.0078203
0.00764011
0.00747801
0.00733274
0.00720329
0.00708891
0.006989
0.00690315
0.0068311
0.00677269
0.00672787
0.00669666
0.00667915
0.00667544
0.00668563
0.00670974
0.00674777
0.00679938
0.00686429
0.00694154
0.0070304
0.00712918
0.00723691
0.00735251
0.00747684
0.00761661
0.00778518
0.00802334
0.00839652
0.00904686
0.010177
0.0450212
0.0337862
0.0228015
0.018124
0.0168024
0.0155428
0.0140676
0.0128785
0.0120311
0.0113635
0.0107847
0.0102761
0.00983232
0.00944339
0.00909905
0.00879173
0.00851607
0.00826805
0.00804447
0.00784276
0.00766087
0.00749718
0.00735039
0.00721947
0.00710365
0.00700231
0.00691501
0.00684148
0.00678153
0.00673508
0.00670215
0.00668279
0.00667708
0.0066851
0.00670686
0.00674233
0.00679123
0.00685329
0.0069277
0.00701385
0.00711052
0.00721711
0.00733363
0.00746206
0.00761112
0.00779678
0.00806147
0.00847251
0.00916461
0.010326
0.0433874
0.0334131
0.0230908
0.0183081
0.0168583
0.015621
0.0141672
0.0129611
0.0120947
0.0114188
0.0108354
0.010322
0.00987356
0.0094807
0.00913313
0.00882301
0.00854488
0.00829463
0.00806902
0.00786545
0.00768184
0.00751653
0.00736819
0.00723577
0.00711846
0.00701565
0.00692686
0.0068518
0.00679025
0.00674213
0.00670741
0.00668614
0.00667835
0.00668413
0.00670344
0.00673629
0.0067824
0.00684154
0.00691306
0.00699648
0.007091
0.00719646
0.00731383
0.00744624
0.00760407
0.00780559
0.00809406
0.00853732
0.00926191
0.0104402
0.0418299
0.0329928
0.0233365
0.0184895
0.0169103
0.0156899
0.0142626
0.0130436
0.0121584
0.0114737
0.010886
0.0103681
0.00991505
0.00951827
0.00916747
0.00885457
0.00857395
0.00832146
0.00809381
0.00788837
0.00770302
0.00753605
0.00738612
0.00725217
0.00713334
0.00702901
0.00693869
0.00686204
0.00679884
0.00674898
0.00671242
0.00668915
0.00667922
0.00668267
0.00669947
0.00672961
0.00677286
0.00682901
0.00689757
0.00697821
0.00707053
0.00717482
0.00729292
0.00742908
0.00759501
0.00781088
0.0081201
0.00858976
0.00933757
0.0105191
0.0403468
0.0325311
0.0235374
0.0186664
0.0169592
0.0157498
0.0143531
0.0131257
0.0122221
0.0115281
0.0109362
0.0104142
0.00995673
0.00955606
0.00920204
0.00888637
0.00860327
0.00834853
0.00811883
0.0079115
0.00772437
0.00755572
0.00740418
0.00726865
0.00714827
0.00704238
0.00695047
0.00687218
0.00680728
0.00675562
0.00671713
0.00669181
0.00667965
0.0066807
0.00669491
0.00672226
0.00676255
0.00681564
0.00688117
0.00695896
0.00704901
0.00715206
0.00727069
0.00741023
0.00758343
0.00781189
0.00813858
0.0086287
0.00939062
0.0105628
0.0389359
0.0320335
0.0236927
0.0188367
0.0170059
0.0158008
0.0144378
0.0132069
0.0122858
0.011582
0.010986
0.0104603
0.00999855
0.00959402
0.00923679
0.00891837
0.0086328
0.00837581
0.00814405
0.00793481
0.00774588
0.00757553
0.00742234
0.0072852
0.00716323
0.00705573
0.00696218
0.00688221
0.00681554
0.00676202
0.00672154
0.00669408
0.00667962
0.00667818
0.0066897
0.00671418
0.00675144
0.00680138
0.00686378
0.00693866
0.00702633
0.007128
0.00724691
0.00738933
0.0075688
0.00780789
0.00814856
0.00865315
0.00942031
0.0105714
0.0375946
0.0315058
0.0238021
0.018998
0.0170513
0.0158434
0.0145158
0.0132865
0.0123493
0.0116353
0.0110353
0.0105062
0.0100404
0.00963211
0.00927169
0.00895054
0.00866252
0.00840329
0.00816946
0.00795828
0.00776754
0.00759545
0.00744059
0.0073018
0.00717819
0.00706904
0.00697381
0.00689209
0.0068236
0.00676815
0.00672561
0.00669594
0.0066791
0.00667508
0.00668383
0.00670533
0.00673946
0.00678616
0.00684534
0.0069172
0.00700236
0.00710246
0.00722133
0.00736601
0.00755061
0.00779816
0.00814914
0.00866224
0.00942615
0.0105454
0.0363203
0.0309535
0.0238658
0.0191475
0.0170958
0.0158782
0.0145866
0.013364
0.0124126
0.011688
0.0110839
0.0105517
0.0100823
0.00967027
0.00930669
0.00898284
0.0086924
0.00843092
0.00819501
0.00798189
0.00778932
0.00761547
0.0074589
0.00731844
0.00719315
0.0070823
0.00698533
0.00690181
0.00683143
0.00677398
0.00672931
0.00669735
0.00667804
0.00667135
0.00667723
0.00669567
0.00672656
0.00676992
0.00682577
0.00689448
0.00697697
0.00707527
0.00719368
0.00733989
0.00752831
0.00778201
0.00813952
0.00865527
0.00940787
0.0104859
0.0351102
0.030382
0.0238847
0.0192828
0.0171396
0.015906
0.0146498
0.0134386
0.0124754
0.01174
0.0111317
0.0105969
0.0101241
0.00970845
0.00934175
0.00901522
0.00872238
0.00845868
0.00822069
0.00800562
0.0078112
0.00763557
0.00747726
0.00733508
0.00720807
0.00709548
0.00699672
0.00691134
0.00683901
0.00677949
0.00673261
0.00669828
0.00667641
0.00666696
0.00666988
0.00668514
0.00671269
0.00675259
0.00680498
0.0068704
0.00695001
0.00704622
0.00716368
0.00731059
0.00750138
0.00775878
0.00811898
0.00863167
0.00936548
0.0103937
0.0339611
0.0297963
0.0238601
0.0194015
0.0171827
0.0159275
0.0147048
0.0135096
0.0125374
0.0117913
0.0111786
0.0106415
0.0101656
0.00974657
0.0093768
0.00904764
0.00875243
0.00848653
0.00824646
0.00802944
0.00783314
0.00765571
0.00749563
0.0073517
0.00722293
0.00710855
0.00700795
0.00692066
0.00684631
0.00678465
0.00673548
0.00669869
0.00667417
0.00666186
0.00666171
0.00667369
0.00669779
0.0067341
0.0067829
0.00684485
0.00692135
0.0070151
0.00713105
0.0072777
0.00746932
0.00772787
0.0080869
0.00859107
0.00929919
0.0102704
0.0328702
0.029201
0.0237938
0.0195014
0.0172245
0.0159435
0.0147516
0.0135763
0.0125983
0.0118419
0.0112245
0.0106853
0.0102068
0.00978457
0.00941179
0.00908004
0.0087825
0.00851442
0.00827229
0.0080533
0.00785513
0.00767587
0.007514
0.00736828
0.00723771
0.00712149
0.00701899
0.00692972
0.00685329
0.00678941
0.00673788
0.00669854
0.00667127
0.00665601
0.00665268
0.00666127
0.00668179
0.00671438
0.00675941
0.0068177
0.00689081
0.0069817
0.00709551
0.00724085
0.00743163
0.00768875
0.00804281
0.00853327
0.00920949
0.0101175
0.0318344
0.0286002
0.0236881
0.0195806
0.0172642
0.0159547
0.0147903
0.013638
0.0126577
0.0118917
0.0112693
0.0107283
0.0102476
0.00982235
0.00944665
0.00911236
0.00881254
0.00854232
0.00829814
0.00807718
0.00787712
0.00769602
0.00753232
0.00738478
0.00725237
0.00713427
0.00702982
0.00693851
0.00685992
0.00679375
0.00673977
0.00669779
0.00666769
0.00664936
0.00664275
0.00664782
0.00666462
0.00669335
0.00673444
0.00678883
0.00685825
0.00694581
0.00705676
0.00719967
0.00738788
0.00764095
0.00798633
0.00845826
0.00909707
0.00993698
0.0308505
0.0279978
0.0235458
0.0196375
0.0173006
0.0159618
0.014821
0.013694
0.012715
0.0119405
0.011313
0.0107703
0.0102877
0.00985982
0.00948132
0.00914454
0.00884249
0.00857017
0.00832396
0.00810105
0.00789908
0.00771612
0.00755058
0.00740118
0.00726689
0.00714685
0.0070404
0.00694698
0.00686617
0.00679764
0.00674112
0.00669641
0.00666337
0.00664187
0.00663185
0.00663328
0.00664623
0.00667092
0.00670788
0.00675812
0.00682348
0.0069072
0.00701452
0.00715382
0.00733767
0.00758408
0.00791724
0.00836619
0.00896285
0.0097308
0.0299155
0.0273969
0.02337
0.019671
0.0173324
0.0159653
0.0148439
0.0137438
0.0127697
0.0119881
0.0113555
0.0108111
0.0103271
0.00989688
0.00951573
0.00917652
0.0088723
0.00859791
0.00834971
0.00812484
0.00792097
0.00773613
0.00756872
0.00741744
0.00728122
0.00715921
0.00705069
0.0069551
0.006872
0.00680102
0.00674188
0.00669435
0.00665827
0.00663349
0.00661994
0.00661759
0.00662653
0.00664702
0.00667962
0.00672543
0.00678636
0.00686567
0.00696853
0.00710297
0.00728066
0.00751785
0.00783545
0.00825744
0.00880795
0.00950119
0.0290266
0.0268004
0.0231637
0.0196804
0.0173582
0.0159655
0.0148596
0.013787
0.0128213
0.0120344
0.0113968
0.0108507
0.0103656
0.00993339
0.00954977
0.00920823
0.00890189
0.0086255
0.00837533
0.00814853
0.00794275
0.00775602
0.00758672
0.00743352
0.00729534
0.0071713
0.00706066
0.00696284
0.00687738
0.00680387
0.00674202
0.00669157
0.00665234
0.00662416
0.00660696
0.00660069
0.00660546
0.00662155
0.00664956
0.00669064
0.00674671
0.00682102
0.00691853
0.00704684
0.00721656
0.00744208
0.00774102
0.00813253
0.00863365
0.00925051
0.0281807
0.0262106
0.0229305
0.0196652
0.0173763
0.0159624
0.0148685
0.0138233
0.0128691
0.0120791
0.0114367
0.0108889
0.0104031
0.00996923
0.00958337
0.00923958
0.0089312
0.00865286
0.00840076
0.00817205
0.00796437
0.00777575
0.00760454
0.00744939
0.00730921
0.00718308
0.00707027
0.00697016
0.00688225
0.00680614
0.00674149
0.00668803
0.00664553
0.00661384
0.00659285
0.00658252
0.00658295
0.00659444
0.00661761
0.00665361
0.00670437
0.00677303
0.0068643
0.00698519
0.00714516
0.00735669
0.00763415
0.00799215
0.00844141
0.00898125
0.0273753
0.0256294
0.0226737
0.0196255
0.0173852
0.015956
0.0148711
0.0138525
0.0129127
0.0121217
0.0114751
0.0109256
0.0104393
0.0100043
0.00961642
0.00927051
0.00896015
0.00867993
0.00842596
0.00819536
0.00798579
0.00779526
0.00762212
0.007465
0.00732278
0.00719453
0.00707949
0.00697702
0.0068866
0.00680779
0.00674025
0.00668367
0.0066378
0.00660248
0.00657756
0.00656301
0.00655892
0.00656559
0.00658365
0.00661423
0.0066592
0.00672155
0.00680564
0.00691782
0.00706634
0.0072617
0.00751517
0.00783717
0.00823287
0.00869598
0.0266077
0.0250584
0.0223967
0.0195617
0.0173835
0.015946
0.014868
0.0138746
0.0129514
0.012162
0.0115119
0.0109608
0.0104742
0.0100383
0.0096488
0.00930092
0.00898866
0.00870663
0.00845084
0.00821839
0.00800694
0.00781451
0.00763942
0.0074803
0.007336
0.00720559
0.00708826
0.00698336
0.00689036
0.00680878
0.00673825
0.00667845
0.0066291
0.00659001
0.00656102
0.0065421
0.0065333
0.00653493
0.00654759
0.00657238
0.00661105
0.00666641
0.00674239
0.0068446
0.00698005
0.00715725
0.00738456
0.0076686
0.00800978
0.00839726
0.0258754
0.0244987
0.0221026
0.0194748
0.0173698
0.0159318
0.0148594
0.0138897
0.0129849
0.0121995
0.011547
0.0109943
0.0105076
0.0100713
0.00968039
0.00933072
0.00901667
0.00873289
0.00847535
0.00824109
0.00802777
0.00783344
0.0076564
0.00749525
0.00734885
0.00721621
0.00709654
0.00698916
0.00689349
0.00680906
0.00673545
0.00667232
0.00661938
0.00657639
0.0065432
0.00651972
0.00650602
0.00650237
0.00650933
0.00652794
0.00655981
0.00660748
0.00667442
0.00676546
0.00688631
0.00704359
0.00724295
0.00748761
0.00777399
0.00808765
0.0251763
0.0239512
0.0217945
0.0193657
0.0173432
0.0159128
0.0148458
0.0138979
0.0130127
0.0122338
0.01158
0.0110261
0.0105394
0.0101029
0.00971105
0.00935981
0.00904407
0.00875863
0.0084994
0.00826337
0.00804823
0.00785199
0.00767299
0.0075098
0.00736125
0.00722636
0.0071043
0.00699436
0.00689596
0.00680858
0.0067318
0.00666524
0.00660858
0.00656157
0.00652402
0.00649582
0.00647702
0.00646785
0.0064688
0.00648082
0.00650537
0.00654466
0.00660167
0.00668039
0.00678527
0.0069211
0.00709107
0.00729546
0.00752737
0.00776968
0.0245081
0.0234165
0.0214752
0.0192359
0.0173029
0.0158883
0.0148273
0.0138995
0.0130346
0.0122643
0.0116109
0.0110559
0.0105694
0.0101332
0.00974064
0.00938806
0.00907077
0.00878376
0.00852291
0.00828518
0.00806823
0.00787011
0.00768914
0.00752389
0.00737317
0.00723598
0.00711147
0.00699892
0.00689771
0.00680731
0.00672726
0.00665716
0.00659667
0.0065455
0.00650343
0.00647035
0.00644623
0.00643128
0.00642591
0.00643095
0.00644764
0.00647788
0.00652409
0.00658944
0.00667713
0.00679025
0.00692979
0.0070935
0.00727186
0.00744585
0.0238689
0.022895
0.0211471
0.019087
0.0172484
0.0158574
0.014804
0.0138947
0.0130504
0.0122908
0.0116391
0.0110837
0.0105975
0.0101618
0.00976901
0.00941536
0.00909668
0.00880819
0.00854581
0.00830643
0.00808772
0.00788773
0.00770479
0.00753747
0.00738455
0.00724502
0.00711801
0.00700278
0.00689869
0.00680518
0.00672177
0.00664803
0.00658358
0.00652812
0.00648139
0.00644324
0.0064136
0.00639261
0.0063806
0.00637826
0.00638659
0.00640712
0.00644174
0.00649275
0.0065622
0.00665162
0.00676005
0.00688316
0.00700938
0.0071186
0.0232568
0.0223869
0.0208126
0.0189207
0.0171795
0.0158193
0.0147758
0.0138838
0.01306
0.0123127
0.0116645
0.0111094
0.0106237
0.0101888
0.009796
0.00944158
0.00912168
0.00883184
0.008568
0.00832705
0.00810662
0.00790479
0.00771988
0.00755047
0.00739533
0.00725342
0.00712387
0.0070059
0.00689886
0.00680216
0.00671529
0.0066378
0.00656928
0.0065094
0.00645785
0.00641445
0.00637908
0.00635179
0.00633283
0.0063227
0.00632218
0.0063324
0.00635468
0.00639053
0.00644089
0.00650588
0.0065829
0.00666591
0.0067419
0.00679025
0.0226701
0.0218921
0.0204735
0.0187386
0.0170963
0.0157733
0.0147425
0.0138671
0.0130634
0.0123298
0.0116868
0.0111326
0.0106478
0.0102138
0.00982146
0.00946658
0.00914567
0.00885459
0.00858939
0.00834694
0.00812485
0.0079212
0.00773435
0.00756284
0.00740545
0.00726114
0.00712899
0.00700822
0.00689816
0.00679819
0.00670778
0.00662643
0.00655373
0.00648928
0.00643277
0.00638394
0.00634262
0.00630879
0.00628257
0.00626427
0.00625442
0.00625376
0.00626306
0.00628305
0.00631366
0.00635378
0.00639944
0.00644326
0.00647131
0.00646303
0.0221072
0.0214107
0.0201317
0.0185427
0.0169991
0.0157189
0.014704
0.0138446
0.0130606
0.0123418
0.0117055
0.0111533
0.0106696
0.0102369
0.00984524
0.00949022
0.00916853
0.00887636
0.0086099
0.00836602
0.00814233
0.0079369
0.00774811
0.00757451
0.00741486
0.0072681
0.00713332
0.0070097
0.00689655
0.00679323
0.00669918
0.00661388
0.00653687
0.00646774
0.0064061
0.00635167
0.0063042
0.00626358
0.00622979
0.00620297
0.00618337
0.00617133
0.00616709
0.00617066
0.00618108
0.00619616
0.00621083
0.00621673
0.00619947
0.006139
0.0215668
0.0209425
0.0197887
0.0183347
0.0168884
0.0156554
0.0146597
0.0138166
0.0130517
0.0123485
0.0117203
0.0111712
0.010689
0.0102578
0.00986717
0.00951235
0.00919012
0.00889702
0.00862941
0.0083842
0.00815897
0.00795181
0.0077611
0.0075854
0.00742348
0.00727426
0.0071368
0.00701028
0.00689398
0.00678723
0.00668946
0.00660011
0.00651868
0.00644473
0.00637783
0.00631762
0.0062638
0.00621616
0.00617452
0.00613885
0.0061091
0.00608525
0.00606703
0.00605378
0.00604376
0.0060339
0.00601826
0.00598785
0.00592819
0.00582007
0.0210473
0.0204871
0.0194458
0.0181162
0.0167648
0.0155825
0.0146095
0.0137831
0.0130368
0.0123497
0.011731
0.011186
0.0107059
0.0102764
0.00988713
0.00953281
0.00921032
0.00891646
0.00864783
0.00840138
0.00817468
0.00796584
0.00777324
0.00759546
0.00743126
0.00727955
0.00713937
0.00700991
0.00689039
0.00678016
0.00667857
0.00658508
0.00649913
0.00642023
0.00634792
0.00628178
0.00622143
0.00616653
0.00611679
0.00607197
0.00603174
0.00599573
0.00596319
0.00593288
0.00590239
0.00586792
0.00582294
0.0057581
0.00565916
0.005508
0.0205477
0.0200445
0.0191039
0.0178889
0.0166292
0.0155002
0.0145529
0.0137441
0.013016
0.0123454
0.0117373
0.0111976
0.0107201
0.0102926
0.00990495
0.00955146
0.00922898
0.00893458
0.00866505
0.00841745
0.00818938
0.00797891
0.00778446
0.00760461
0.00743812
0.0072839
0.00714099
0.00700853
0.00688575
0.00677195
0.00666649
0.00656875
0.00647817
0.00639422
0.00631637
0.00624414
0.00617708
0.00611473
0.00605667
0.00600243
0.00595146
0.00590303
0.00585596
0.00580851
0.00575771
0.00569922
0.00562611
0.00552894
0.00539397
0.00520436
0.0200666
0.0196142
0.0187642
0.0176542
0.0164824
0.0154083
0.0144897
0.0136996
0.0129895
0.0123354
0.0117389
0.0112055
0.0107314
0.0103063
0.0099205
0.00956814
0.00924597
0.00895123
0.00868096
0.00843233
0.00820296
0.00799094
0.00779467
0.00761277
0.007444
0.00728727
0.00714159
0.0070061
0.00688
0.00676258
0.00665316
0.0065511
0.00645581
0.00636668
0.00628317
0.00620473
0.00613079
0.00606083
0.00599424
0.00593039
0.00586847
0.00580744
0.00574576
0.00568123
0.00561049
0.00552876
0.00542896
0.00530175
0.0051341
0.00491057
0.0196031
0.019196
0.0184272
0.0174136
0.0163255
0.0153071
0.0144196
0.0136494
0.0129574
0.0123199
0.0117357
0.0112097
0.0107397
0.0103173
0.00993365
0.00958272
0.00926114
0.00896629
0.00869545
0.00844591
0.00821533
0.00800182
0.00780379
0.00761987
0.00744884
0.00728958
0.00714111
0.00700256
0.0068731
0.00675201
0.00663856
0.00653211
0.00643201
0.00633763
0.00624835
0.00616356
0.00608262
0.00600488
0.00592962
0.00585601
0.00578301
0.00570931
0.00563305
0.00555169
0.00546153
0.00535757
0.00523269
0.00507786
0.00488089
0.00462784
0.0191562
0.0187894
0.0180937
0.0171681
0.0161594
0.0151967
0.0143424
0.0135935
0.0129196
0.0122988
0.0117276
0.0112098
0.0107446
0.0103255
0.00994426
0.00959504
0.00927434
0.00897964
0.00870839
0.00845807
0.00822639
0.00801147
0.00781174
0.00762584
0.00745255
0.00729077
0.00713951
0.00699786
0.00686502
0.0067402
0.00662268
0.00651176
0.00640678
0.00630705
0.00621191
0.00612068
0.00603263
0.00594701
0.00586297
0.0057795
0.00569538
0.00560903
0.00551835
0.00542053
0.00531166
0.00518663
0.00503844
0.00485849
0.00463557
0.00435721
0.018725
0.0183942
0.0177641
0.016919
0.0159852
0.0150776
0.0142581
0.0135318
0.0128763
0.0122721
0.0117143
0.0112056
0.0107461
0.0103307
0.0099522
0.00960497
0.00928544
0.00899113
0.00871968
0.00846872
0.00823605
0.0080198
0.00781843
0.0076306
0.00745508
0.00729079
0.00713672
0.00699197
0.0068557
0.00672712
0.00660548
0.00649005
0.00638012
0.00627498
0.00617391
0.00607615
0.00598092
0.00588734
0.00579445
0.0057011
0.00560588
0.00550702
0.00540221
0.00528846
0.00516173
0.00501692
0.00484729
0.00464478
0.0043992
0.00409953
0.0183085
0.0180099
0.017439
0.0166673
0.0158037
0.0149503
0.0141666
0.0134642
0.0128275
0.0122399
0.011696
0.0111971
0.010744
0.0103327
0.00995734
0.00961238
0.0092943
0.00900063
0.00872918
0.00847774
0.00824419
0.00802672
0.00782378
0.00763406
0.00745635
0.00728956
0.0071327
0.00698484
0.00684512
0.00671275
0.00658695
0.00646697
0.00635205
0.00624145
0.00613439
0.00603006
0.00592759
0.00582603
0.00572429
0.00562109
0.00551488
0.00540374
0.0052852
0.00515615
0.00501255
0.00484939
0.00466028
0.00443776
0.00417271
0.00385551
0.0179061
0.0176363
0.0171186
0.0164139
0.015616
0.0148152
0.0140681
0.0133906
0.0127731
0.0122024
0.0116724
0.011184
0.010738
0.0103315
0.00995954
0.00961714
0.00930078
0.00900802
0.00873679
0.00848502
0.00825072
0.00803212
0.00782771
0.00763616
0.0074563
0.00728704
0.00712739
0.00697642
0.00683325
0.00669708
0.0065671
0.00644253
0.0063226
0.0062065
0.00609342
0.00598249
0.00587278
0.00576325
0.00565271
0.00553977
0.00542277
0.00529967
0.00516791
0.00502434
0.00486496
0.00468496
0.00447835
0.00423836
0.00395689
0.00362568
0.017517
0.017273
0.0168032
0.0161596
0.0154229
0.014673