/*--------------------------------*- C++ -*----------------------------------*\
  =========                 |
  \\      /  F ield         | OpenFOAM: The Open Source CFD Toolbox
   \\    /   O peration     | Website:  https://openfoam.org
    \\  /    A nd           | Version:  7
     \\/     M anipulation  |
\*---------------------------------------------------------------------------*/
FoamFile
{
    version     2.0;
    format      ascii;
    class       surfaceScalarField;
    location    "0.36";
    object      phi;
}
// * * * * * * * * * * * * * * * * * * * * * * * * * * * * * * * * * * * * * //

dimensions      [0 3 -1 0 0 0 0];

internalField   nonuniform List<scalar> 
139350
(
6.4592e-08
9.20395e-08
3.19498e-08
3.26423e-08
2.30577e-08
8.89205e-09
1.95626e-08
3.49513e-09
1.76103e-08
1.95233e-09
1.61824e-08
1.42788e-09
1.50493e-08
1.13311e-09
1.41353e-08
9.1392e-10
1.3383e-08
7.52399e-10
1.27489e-08
6.341e-10
1.22042e-08
5.44695e-10
1.17295e-08
4.74684e-10
1.1311e-08
4.18435e-10
1.09386e-08
3.72409e-10
1.06044e-08
3.34196e-10
1.03024e-08
3.02074e-10
1.00276e-08
2.74778e-10
9.77622e-09
2.51365e-10
9.5451e-09
2.31115e-10
9.33162e-09
2.13478e-10
9.1336e-09
1.98021e-10
8.9492e-09
1.84404e-10
8.77684e-09
1.72355e-10
8.61519e-09
1.61658e-10
8.46305e-09
1.52134e-10
8.31941e-09
1.43643e-10
8.18334e-09
1.36064e-10
8.05404e-09
1.29306e-10
7.93075e-09
1.23286e-10
7.8128e-09
1.17953e-10
7.69956e-09
1.13239e-10
7.59042e-09
1.09144e-10
7.48483e-09
1.05582e-10
7.3822e-09
1.02634e-10
7.28207e-09
1.00132e-10
7.18375e-09
9.83179e-11
7.08694e-09
9.68111e-11
6.99078e-09
9.61568e-11
6.89524e-09
9.55413e-11
6.79926e-09
9.5984e-11
6.70323e-09
9.60296e-11
6.60624e-09
9.69891e-11
6.50903e-09
9.72086e-11
6.41277e-09
9.62599e-11
6.31704e-09
9.57255e-11
6.23251e-09
8.45324e-11
6.14997e-09
8.25436e-11
6.12849e-09
2.14738e-11
5.99536e-09
1.33138e-10
-2.88905e-09
8.88441e-09
1.26025e-07
1.27458e-07
9.12606e-08
6.74067e-08
7.1937e-08
2.82157e-08
6.12076e-08
1.42245e-08
5.47598e-08
8.40021e-09
5.02651e-08
5.92256e-09
4.67807e-08
4.61752e-09
4.39648e-08
3.72977e-09
4.1638e-08
3.07918e-09
3.96754e-08
2.59678e-09
3.79895e-08
2.23056e-09
3.65203e-08
1.94391e-09
3.5225e-08
1.71377e-09
3.40719e-08
1.52547e-09
3.3037e-08
1.36909e-09
3.21015e-08
1.23758e-09
3.12505e-08
1.12577e-09
3.04721e-08
1.0298e-09
2.97564e-08
9.4674e-10
2.90956e-08
8.74337e-10
2.84828e-08
8.10826e-10
2.79124e-08
7.54816e-10
2.73795e-08
7.05196e-10
2.68801e-08
6.61071e-10
2.64105e-08
6.21714e-10
2.59676e-08
5.86536e-10
2.55486e-08
5.55048e-10
2.51511e-08
5.2686e-10
2.47727e-08
5.01641e-10
2.44115e-08
4.79149e-10
2.40656e-08
4.59151e-10
2.37332e-08
4.4156e-10
2.34126e-08
4.26149e-10
2.31022e-08
4.13061e-10
2.28004e-08
4.01911e-10
2.25055e-08
3.93285e-10
2.2216e-08
3.86253e-10
2.19298e-08
3.82372e-10
2.16461e-08
3.79279e-10
2.13615e-08
3.80587e-10
2.10767e-08
3.80762e-10
2.07865e-08
3.87226e-10
2.04953e-08
3.8846e-10
2.01944e-08
3.9715e-10
1.98967e-08
3.93388e-10
1.95922e-08
3.89047e-10
1.93035e-08
3.71247e-10
1.90815e-08
2.43485e-10
1.87857e-08
4.28865e-10
-3.58185e-09
1.94785e-08
1.58807e-07
1.35055e-07
1.36492e-07
8.97216e-08
1.17487e-07
4.72204e-08
1.03306e-07
2.84059e-08
9.32959e-08
1.84099e-08
8.59923e-08
1.32261e-08
8.02858e-08
1.0324e-08
7.56346e-08
8.38096e-09
7.17562e-08
6.95766e-09
6.84631e-08
5.88983e-09
6.5622e-08
5.0717e-09
6.31377e-08
4.42816e-09
6.09416e-08
3.90986e-09
5.89824e-08
3.48468e-09
5.72208e-08
3.13074e-09
5.56259e-08
2.83245e-09
5.41733e-08
2.57837e-09
5.28432e-08
2.35992e-09
5.16194e-08
2.17056e-09
5.04885e-08
2.00525e-09
4.94393e-08
1.86003e-09
4.84623e-08
1.73177e-09
4.75495e-08
1.61797e-09
4.6694e-08
1.5166e-09
4.58897e-08
1.42602e-09
4.51313e-08
1.34489e-09
4.44143e-08
1.27208e-09
4.37345e-08
1.20671e-09
4.30881e-08
1.14801e-09
4.24718e-08
1.0954e-09
4.18826e-08
1.04838e-09
4.13175e-08
1.00666e-09
4.07738e-08
9.69831e-10
4.02489e-08
9.38013e-10
3.97402e-08
9.10616e-10
3.92449e-08
8.88538e-10
3.87609e-08
8.7029e-10
3.82846e-08
8.5864e-10
3.78146e-08
8.49299e-10
3.73456e-08
8.49609e-10
3.68784e-08
8.4794e-10
3.64035e-08
8.62161e-10
3.59286e-08
8.63344e-10
3.54345e-08
8.91197e-10
3.49468e-08
8.81126e-10
3.44306e-08
9.05263e-10
3.39395e-08
8.62322e-10
3.34848e-08
6.98178e-10
3.30631e-08
8.50622e-10
-3.26708e-09
3.27483e-08
1.75664e-07
1.30907e-07
1.65593e-07
9.97926e-08
1.52718e-07
6.00951e-08
1.40115e-07
4.10094e-08
1.29421e-07
2.91032e-08
1.20775e-07
2.1872e-08
1.13662e-07
1.74373e-08
1.07681e-07
1.43619e-08
1.02581e-07
1.20579e-08
9.81785e-08
1.02922e-08
9.43339e-08
8.91632e-09
9.0941e-08
7.82102e-09
8.79197e-08
6.93117e-09
8.52082e-08
6.19613e-09
8.27582e-08
5.58075e-09
8.05311e-08
5.05962e-09
7.84955e-08
4.61389e-09
7.66262e-08
4.22928e-09
7.49019e-08
3.89483e-09
7.33051e-08
3.60202e-09
7.1821e-08
3.34413e-09
7.0437e-08
3.1158e-09
6.91422e-08
2.91274e-09
6.79274e-08
2.73145e-09
6.67843e-08
2.56908e-09
6.57059e-08
2.42328e-09
6.46859e-08
2.29211e-09
6.37187e-08
2.17396e-09
6.27991e-08
2.06752e-09
6.19228e-08
1.97172e-09
6.10855e-08
1.8857e-09
6.02833e-08
1.80885e-09
5.95126e-08
1.74054e-09
5.87698e-08
1.68077e-09
5.80517e-08
1.62874e-09
5.73546e-08
1.58561e-09
5.66756e-08
1.54933e-09
5.60103e-08
1.52394e-09
5.53565e-08
1.50307e-09
5.47078e-08
1.49835e-09
5.40646e-08
1.4911e-09
5.3415e-08
1.51174e-09
5.27677e-08
1.51064e-09
5.20985e-08
1.56044e-09
5.1436e-08
1.54367e-09
5.07375e-08
1.60368e-09
5.00599e-08
1.53997e-09
4.94033e-08
1.35476e-09
4.8834e-08
1.41995e-09
-2.54022e-09
4.81071e-08
1.8456e-07
1.23133e-07
1.82319e-07
1.02033e-07
1.76098e-07
6.63165e-08
1.67751e-07
4.93569e-08
1.59122e-07
3.77313e-08
1.51209e-07
2.97856e-08
1.44133e-07
2.45131e-08
1.37832e-07
2.06633e-08
1.3223e-07
1.76592e-08
1.27245e-07
1.52779e-08
1.22788e-07
1.33726e-08
1.18784e-07
1.18251e-08
1.15167e-07
1.05481e-08
1.11883e-07
9.48005e-09
1.08887e-07
8.57661e-09
1.06142e-07
7.80494e-09
1.03616e-07
7.14008e-09
1.01282e-07
6.56279e-09
9.91192e-08
6.05804e-09
9.71073e-08
5.614e-09
9.52302e-08
5.22121e-09
9.34739e-08
4.87211e-09
9.18261e-08
4.56052e-09
9.02761e-08
4.28141e-09
8.88146e-08
4.03063e-09
8.74331e-08
3.80472e-09
8.61244e-08
3.60084e-09
8.48818e-08
3.41659e-09
8.36992e-08
3.25003e-09
8.25715e-08
3.09951e-09
8.14934e-08
2.96376e-09
8.04605e-08
2.84179e-09
7.94683e-08
2.73271e-09
7.85127e-08
2.63632e-09
7.75899e-08
2.55164e-09
7.66955e-08
2.47999e-09
7.5826e-08
2.41882e-09
7.49765e-08
2.37337e-09
7.41443e-08
2.33529e-09
7.33223e-08
2.32035e-09
7.25102e-08
2.30318e-09
7.16957e-08
2.32624e-09
7.08858e-08
2.32053e-09
7.00573e-08
2.38895e-09
6.92331e-08
2.36791e-09
6.83791e-08
2.4577e-09
6.75326e-08
2.38649e-09
6.67121e-08
2.1752e-09
6.59797e-08
2.15233e-09
-1.58827e-09
6.50278e-08
1.90388e-07
1.14961e-07
1.91851e-07
1.00571e-07
1.9024e-07
6.79269e-08
1.86145e-07
5.34516e-08
1.80701e-07
4.31756e-08
1.74941e-07
3.5546e-08
1.69239e-07
3.0215e-08
1.63751e-07
2.61511e-08
1.58573e-07
2.28368e-08
1.53748e-07
2.01036e-08
1.49276e-07
1.78442e-08
1.45142e-07
1.59596e-08
1.4132e-07
1.43701e-08
1.37783e-07
1.30166e-08
1.34506e-07
1.18542e-08
1.31462e-07
1.08486e-08
1.28629e-07
9.97266e-09
1.25987e-07
9.20487e-09
1.23517e-07
8.52801e-09
1.21203e-07
7.92821e-09
1.1903e-07
7.39424e-09
1.16985e-07
6.9169e-09
1.15057e-07
6.48862e-09
1.13235e-07
6.10315e-09
1.11511e-07
5.75526e-09
1.09875e-07
5.44057e-09
1.0832e-07
5.15542e-09
1.0684e-07
4.89671e-09
1.05428e-07
4.66191e-09
1.04079e-07
4.44885e-09
1.02787e-07
4.25584e-09
1.01547e-07
4.08152e-09
1.00355e-07
3.92477e-09
9.92063e-08
3.78517e-09
9.80964e-08
3.66158e-09
9.7021e-08
3.55541e-09
9.5976e-08
3.46376e-09
9.49566e-08
3.39281e-09
9.39592e-08
3.33269e-09
9.2977e-08
3.30251e-09
9.20085e-08
3.2717e-09
9.10427e-08
3.29209e-09
9.00828e-08
3.28038e-09
8.91112e-08
3.36052e-09
8.81394e-08
3.33981e-09
8.71508e-08
3.44628e-09
8.61547e-08
3.38254e-09
8.51949e-08
3.135e-09
8.43124e-08
3.03482e-09
-4.51355e-10
8.31755e-08
1.9554e-07
1.07235e-07
1.98246e-07
9.78647e-08
1.98965e-07
6.72077e-08
1.97781e-07
5.46359e-08
1.95144e-07
4.58131e-08
1.91795e-07
3.88943e-08
1.88057e-07
3.39536e-08
1.841e-07
3.01077e-08
1.80075e-07
2.68618e-08
1.76092e-07
2.40867e-08
1.72219e-07
2.17177e-08
1.68493e-07
1.96852e-08
1.64935e-07
1.79284e-08
1.61552e-07
1.63998e-08
1.58343e-07
1.50624e-08
1.55305e-07
1.38865e-08
1.5243e-07
1.28476e-08
1.4971e-07
1.19256e-08
1.47134e-07
1.11038e-08
1.44694e-07
1.03685e-08
1.4238e-07
9.70815e-09
1.40183e-07
9.11321e-09
1.38096e-07
8.57566e-09
1.36111e-07
8.08872e-09
1.34219e-07
7.64666e-09
1.32415e-07
7.24461e-09
1.30692e-07
6.87845e-09
1.29044e-07
6.54463e-09
1.27466e-07
6.24025e-09
1.25952e-07
5.96276e-09
1.24498e-07
5.71022e-09
1.23098e-07
5.48099e-09
1.21749e-07
5.27378e-09
1.20446e-07
5.08803e-09
1.19186e-07
4.92249e-09
1.17962e-07
4.77868e-09
1.16773e-07
4.65348e-09
1.15612e-07
4.55376e-09
1.14476e-07
4.46874e-09
1.13358e-07
4.41977e-09
1.12257e-07
4.37319e-09
1.11162e-07
4.38639e-09
1.10074e-07
4.36864e-09
1.08982e-07
4.45314e-09
1.07884e-07
4.43785e-09
1.06782e-07
4.54825e-09
1.05662e-07
4.50228e-09
1.0458e-07
4.21636e-09
1.03571e-07
4.04466e-09
8.40879e-10
1.02278e-07
2.00848e-07
9.99723e-08
2.03775e-07
9.49378e-08
2.05324e-07
6.56582e-08
2.05637e-07
5.43234e-08
2.04805e-07
4.66445e-08
2.03318e-07
4.03819e-08
2.01363e-07
3.59086e-08
1.99025e-07
3.24451e-08
1.96411e-07
2.94754e-08
1.93625e-07
2.68735e-08
1.90746e-07
2.45968e-08
1.87834e-07
2.25968e-08
1.84934e-07
2.08284e-08
1.82077e-07
1.92571e-08
1.79284e-07
1.78555e-08
1.76569e-07
1.66014e-08
1.73941e-07
1.54758e-08
1.71404e-07
1.44626e-08
1.6896e-07
1.35478e-08
1.66608e-07
1.27197e-08
1.64348e-07
1.19682e-08
1.62177e-07
1.12847e-08
1.60091e-07
1.06617e-08
1.58086e-07
1.00929e-08
1.5616e-07
9.57277e-09
1.54308e-07
9.09652e-09
1.52527e-07
8.66008e-09
1.50812e-07
8.25989e-09
1.49159e-07
7.89299e-09
1.47565e-07
7.55675e-09
1.46026e-07
7.24919e-09
1.44538e-07
6.96857e-09
1.43098e-07
6.71362e-09
1.41703e-07
6.4837e-09
1.40348e-07
6.27768e-09
1.39029e-07
6.0971e-09
1.37744e-07
5.93892e-09
1.36487e-07
5.8104e-09
1.35255e-07
5.70054e-09
1.34043e-07
5.63178e-09
1.32847e-07
5.56955e-09
1.3166e-07
5.57307e-09
1.30478e-07
5.55061e-09
1.29297e-07
5.63419e-09
1.28106e-07
5.62865e-09
1.2692e-07
5.73477e-09
1.25711e-07
5.71109e-09
1.24533e-07
5.39411e-09
1.23422e-07
5.15574e-09
2.25028e-09
1.22013e-07
2.06447e-07
9.30577e-08
2.09338e-07
9.20463e-08
2.11034e-07
6.39626e-08
2.11925e-07
5.34323e-08
2.1199e-07
4.65797e-08
2.11597e-07
4.0774e-08
2.10861e-07
3.66453e-08
2.09783e-07
3.35231e-08
2.08402e-07
3.08567e-08
2.06776e-07
2.84993e-08
2.04961e-07
2.64111e-08
2.03008e-07
2.45503e-08
2.00957e-07
2.28791e-08
1.98845e-07
2.13694e-08
1.96699e-07
2.00008e-08
1.94544e-07
1.87569e-08
1.92396e-07
1.76237e-08
1.90269e-07
1.65893e-08
1.88174e-07
1.56432e-08
1.86117e-07
1.47764e-08
1.84105e-07
1.39808e-08
1.8214e-07
1.32497e-08
1.80225e-07
1.25769e-08
1.78361e-07
1.1957e-08
1.76548e-07
1.13856e-08
1.74786e-07
1.08584e-08
1.73074e-07
1.03718e-08
1.71411e-07
9.92273e-09
1.69796e-07
9.50847e-09
1.68226e-07
9.12665e-09
1.667e-07
8.77549e-09
1.65215e-07
8.45338e-09
1.63769e-07
8.15926e-09
1.6236e-07
7.8926e-09
1.60985e-07
7.65247e-09
1.59642e-07
7.44057e-09
1.58327e-07
7.25413e-09
1.57037e-07
7.10062e-09
1.55768e-07
6.96938e-09
1.54516e-07
6.88308e-09
1.53278e-07
6.80795e-09
1.52049e-07
6.80215e-09
1.50822e-07
6.77785e-09
1.49598e-07
6.85836e-09
1.4836e-07
6.86625e-09
1.4713e-07
6.96507e-09
1.45876e-07
6.9648e-09
1.4464e-07
6.63e-09
1.43461e-07
6.33435e-09
3.73219e-09
1.41979e-07
2.12288e-07
8.64315e-08
2.15151e-07
8.91838e-08
2.16788e-07
6.23256e-08
2.17837e-07
5.23831e-08
2.18248e-07
4.61685e-08
2.18359e-07
4.06633e-08
2.18276e-07
3.67279e-08
2.1797e-07
3.38301e-08
2.17431e-07
3.13949e-08
2.16681e-07
2.92498e-08
2.15743e-07
2.73492e-08
2.14642e-07
2.56508e-08
2.13405e-07
2.41161e-08
2.12057e-07
2.27179e-08
2.1062e-07
2.14377e-08
2.09115e-07
2.02615e-08
2.07561e-07
1.91779e-08
2.05973e-07
1.81778e-08
2.04363e-07
1.72529e-08
2.02743e-07
1.63963e-08
2.01122e-07
1.56021e-08
1.99507e-07
1.48649e-08
1.97903e-07
1.41802e-08
1.96316e-07
1.35438e-08
1.9475e-07
1.29522e-08
1.93206e-07
1.24021e-08
1.91687e-07
1.18907e-08
1.90194e-07
1.14155e-08
1.88729e-07
1.09744e-08
1.8729e-07
1.05653e-08
1.85878e-07
1.01871e-08
1.84493e-07
9.83832e-09
1.83134e-07
9.51831e-09
1.818e-07
9.22682e-09
1.80489e-07
8.96325e-09
1.792e-07
8.72953e-09
1.77931e-07
8.52329e-09
1.7668e-07
8.3522e-09
1.75443e-07
8.20627e-09
1.74218e-07
8.10786e-09
1.73001e-07
8.02511e-09
1.7179e-07
8.01327e-09
1.70576e-07
7.99156e-09
1.69364e-07
8.07002e-09
1.68136e-07
8.09491e-09
1.66913e-07
8.18769e-09
1.65667e-07
8.21097e-09
1.64422e-07
7.87451e-09
1.6322e-07
7.53628e-09
5.23523e-09
1.61717e-07
2.1833e-07
8.00826e-08
2.21205e-07
8.63089e-08
2.22761e-07
6.07696e-08
2.23836e-07
5.13073e-08
2.24357e-07
4.56479e-08
2.24646e-07
4.03748e-08
2.24839e-07
3.65342e-08
2.24911e-07
3.37587e-08
2.24838e-07
3.14675e-08
2.24622e-07
2.94659e-08
2.24267e-07
2.77037e-08
2.23781e-07
2.61371e-08
2.23172e-07
2.47252e-08
2.22451e-07
2.34385e-08
2.21632e-07
2.22574e-08
2.20725e-07
2.11677e-08
2.19745e-07
2.01584e-08
2.18702e-07
1.92208e-08
2.17607e-07
1.83477e-08
2.1647e-07
1.7533e-08
2.15301e-07
1.67719e-08
2.14105e-07
1.606e-08
2.12892e-07
1.53937e-08
2.11666e-07
1.47698e-08
2.10433e-07
1.41855e-08
2.09196e-07
1.36385e-08
2.0796e-07
1.31266e-08
2.06728e-07
1.26479e-08
2.05501e-07
1.2201e-08
2.04282e-07
1.17843e-08
2.03072e-07
1.1397e-08
2.01873e-07
1.10383e-08
2.00683e-07
1.07077e-08
1.99504e-07
1.04056e-08
1.98336e-07
1.01315e-08
1.97178e-07
9.88782e-09
1.96029e-07
9.67257e-09
1.94887e-07
9.49365e-09
1.93751e-07
9.34188e-09
1.9262e-07
9.23901e-09
1.9149e-07
9.1558e-09
1.9036e-07
9.14339e-09
1.89221e-07
9.12992e-09
1.88081e-07
9.20975e-09
1.86921e-07
9.25536e-09
1.85762e-07
9.34638e-09
1.8458e-07
9.39345e-09
1.83382e-07
9.0725e-09
1.82207e-07
8.71058e-09
6.70527e-09
1.80737e-07
2.24558e-07
7.40175e-08
2.27469e-07
8.33986e-08
2.28957e-07
5.92811e-08
2.30038e-07
5.02263e-08
2.306e-07
4.50862e-08
2.30937e-07
4.00376e-08
2.3122e-07
3.62511e-08
2.31439e-07
3.35393e-08
2.31575e-07
3.13316e-08
2.31626e-07
2.94149e-08
2.31592e-07
2.77378e-08
2.31472e-07
2.62577e-08
2.31265e-07
2.49323e-08
2.30973e-07
2.37304e-08
2.306e-07
2.26306e-08
2.3015e-07
2.16175e-08
2.29629e-07
2.06793e-08
2.29043e-07
1.98069e-08
2.28398e-07
1.89927e-08
2.277e-07
1.82308e-08
2.26956e-07
1.75163e-08
2.26171e-07
1.68451e-08
2.2535e-07
1.62139e-08
2.245e-07
1.562e-08
2.23625e-07
1.50611e-08
2.22728e-07
1.45352e-08
2.21814e-07
1.40406e-08
2.20886e-07
1.35759e-08
2.19947e-07
1.314e-08
2.18999e-07
1.2732e-08
2.18045e-07
1.23513e-08
2.17086e-07
1.19975e-08
2.16123e-07
1.16706e-08
2.15157e-07
1.1371e-08
2.1419e-07
1.1099e-08
2.13221e-07
1.08571e-08
2.12249e-07
1.06438e-08
2.11276e-07
1.04671e-08
2.10299e-07
1.03188e-08
2.09318e-07
1.02198e-08
2.0833e-07
1.01438e-08
2.07336e-07
1.01372e-08
2.06328e-07
1.01379e-08
2.05314e-07
1.02238e-08
2.04276e-07
1.02936e-08
2.03233e-07
1.03889e-08
2.02167e-07
1.04603e-08
2.01068e-07
1.01712e-08
1.99971e-07
9.80704e-09
8.09003e-09
1.98587e-07
2.30979e-07
6.82443e-08
2.33933e-07
8.04444e-08
2.35362e-07
5.7852e-08
2.36449e-07
4.91393e-08
2.37045e-07
4.44911e-08
2.37397e-07
3.96853e-08
2.37701e-07
3.59466e-08
2.37966e-07
3.32742e-08
2.38178e-07
3.11202e-08
2.38338e-07
2.92549e-08
2.38449e-07
2.76266e-08
2.3851e-07
2.61966e-08
2.38519e-07
2.49238e-08
2.38473e-07
2.37759e-08
2.38373e-07
2.27309e-08
2.38218e-07
2.17725e-08
2.38009e-07
2.08883e-08
2.37748e-07
2.00682e-08
2.37436e-07
1.93042e-08
2.37077e-07
1.859e-08
2.36673e-07
1.79202e-08
2.36227e-07
1.72907e-08
2.35743e-07
1.66981e-08
2.35224e-07
1.61394e-08
2.34672e-07
1.56126e-08
2.34092e-07
1.51156e-08
2.33485e-07
1.46471e-08
2.32855e-07
1.42058e-08
2.32204e-07
1.37909e-08
2.31535e-07
1.34017e-08
2.30848e-07
1.30378e-08
2.30147e-07
1.26991e-08
2.29431e-07
1.23859e-08
2.28703e-07
1.2099e-08
2.27964e-07
1.18386e-08
2.27213e-07
1.16078e-08
2.26451e-07
1.14053e-08
2.25679e-07
1.12393e-08
2.24896e-07
1.11023e-08
2.24101e-07
1.10143e-08
2.23293e-07
1.09523e-08
2.22473e-07
1.09571e-08
2.21634e-07
1.09771e-08
2.20784e-07
1.10736e-08
2.19908e-07
1.117e-08
2.19021e-07
1.12759e-08
2.18108e-07
1.13723e-08
2.17151e-07
1.1129e-08
2.16173e-07
1.07847e-08
9.34665e-09
2.14916e-07
2.376e-07
6.27689e-08
2.40601e-07
7.7444e-08
2.41973e-07
5.648e-08
2.43064e-07
4.80475e-08
2.43697e-07
4.3859e-08
2.44062e-07
3.93198e-08
2.44372e-07
3.5637e-08
2.44649e-07
3.29969e-08
2.44883e-07
3.08862e-08
2.45079e-07
2.90585e-08
2.45245e-07
2.74612e-08
2.45381e-07
2.60607e-08
2.45486e-07
2.48182e-08
2.4556e-07
2.3702e-08
2.45601e-07
2.26898e-08
2.45609e-07
2.17654e-08
2.45581e-07
2.0916e-08
2.45518e-07
2.01314e-08
2.45419e-07
1.9403e-08
2.45284e-07
1.87242e-08
2.45115e-07
1.80894e-08
2.44912e-07
1.74939e-08
2.44676e-07
1.69341e-08
2.44409e-07
1.64069e-08
2.44111e-07
1.591e-08
2.43786e-07
1.54414e-08
2.43433e-07
1.49997e-08
2.43055e-07
1.45836e-08
2.42654e-07
1.41924e-08
2.4223e-07
1.38253e-08
2.41786e-07
1.34823e-08
2.41321e-07
1.31634e-08
2.40838e-07
1.28688e-08
2.40338e-07
1.25997e-08
2.3982e-07
1.23563e-08
2.39286e-07
1.2142e-08
2.38735e-07
1.19557e-08
2.38169e-07
1.18056e-08
2.37586e-07
1.16852e-08
2.36988e-07
1.16129e-08
2.36371e-07
1.15692e-08
2.35739e-07
1.15893e-08
2.35084e-07
1.16318e-08
2.34415e-07
1.17423e-08
2.33719e-07
1.18662e-08
2.33007e-07
1.1988e-08
2.32269e-07
1.21097e-08
2.31476e-07
1.19227e-08
2.30642e-07
1.1619e-08
1.04488e-08
2.29539e-07
2.4443e-07
5.75948e-08
2.4747e-07
7.44039e-08
2.48793e-07
5.51571e-08
2.49885e-07
4.69555e-08
2.50556e-07
4.31883e-08
2.50938e-07
3.89374e-08
2.51252e-07
3.53231e-08
2.51535e-07
3.27143e-08
2.51776e-07
3.06448e-08
2.51983e-07
2.88515e-08
2.52165e-07
2.7279e-08
2.52327e-07
2.58992e-08
2.52469e-07
2.46762e-08
2.52592e-07
2.35792e-08
2.52695e-07
2.25865e-08
2.52778e-07
2.16821e-08
2.52841e-07
2.08536e-08
2.52881e-07
2.00907e-08
2.52899e-07
1.93849e-08
2.52894e-07
1.87292e-08
2.52866e-07
1.8118e-08
2.52813e-07
1.75463e-08
2.52737e-07
1.70104e-08
2.52637e-07
1.65069e-08
2.52514e-07
1.60334e-08
2.52367e-07
1.55878e-08
2.52198e-07
1.51686e-08
2.52008e-07
1.47743e-08
2.51796e-07
1.44043e-08
2.51563e-07
1.40579e-08
2.5131e-07
1.37349e-08
2.51038e-07
1.34355e-08
2.50747e-07
1.31599e-08
2.50437e-07
1.29094e-08
2.5011e-07
1.26843e-08
2.49764e-07
1.2488e-08
2.494e-07
1.23197e-08
2.49018e-07
1.21873e-08
2.48618e-07
1.20852e-08
2.482e-07
1.20305e-08
2.47763e-07
1.20068e-08
2.47308e-07
1.20439e-08
2.4683e-07
1.21095e-08
2.46337e-07
1.22359e-08
2.45817e-07
1.23861e-08
2.45277e-07
1.25276e-08
2.44713e-07
1.26744e-08
2.44085e-07
1.25502e-08
2.43399e-07
1.23048e-08
1.13902e-08
2.42458e-07
2.51478e-07
5.2724e-08
2.54548e-07
7.13336e-08
2.55832e-07
5.38729e-08
2.56919e-07
4.58689e-08
2.57627e-07
4.24801e-08
2.58029e-07
3.85351e-08
2.58348e-07
3.50037e-08
2.58636e-07
3.24268e-08
2.58882e-07
3.03985e-08
2.59094e-07
2.86402e-08
2.59281e-07
2.70917e-08
2.5945e-07
2.573e-08
2.59604e-07
2.45225e-08
2.59743e-07
2.34396e-08
2.5987e-07
2.246e-08
2.59983e-07
2.15685e-08
2.60084e-07
2.07529e-08
2.60172e-07
2.00033e-08
2.60245e-07
1.93112e-08
2.60305e-07
1.86699e-08
2.60349e-07
1.80735e-08
2.60378e-07
1.75172e-08
2.60392e-07
1.6997e-08
2.60389e-07
1.65097e-08
2.6037e-07
1.60525e-08
2.60334e-07
1.56233e-08
2.60282e-07
1.52205e-08
2.60214e-07
1.48428e-08
2.60129e-07
1.44893e-08
2.60028e-07
1.41594e-08
2.5991e-07
1.38529e-08
2.59775e-07
1.35699e-08
2.59624e-07
1.33108e-08
2.59457e-07
1.30768e-08
2.59273e-07
1.28682e-08
2.59072e-07
1.26886e-08
2.58855e-07
1.25372e-08
2.5862e-07
1.24217e-08
2.58368e-07
1.23374e-08
2.58099e-07
1.22996e-08
2.57811e-07
1.22952e-08
2.57506e-07
1.23487e-08
2.57179e-07
1.24362e-08
2.56837e-07
1.25783e-08
2.56471e-07
1.27523e-08
2.56083e-07
1.29153e-08
2.55671e-07
1.30867e-08
2.55192e-07
1.30286e-08
2.54642e-07
1.28552e-08
1.21833e-08
2.53849e-07
2.58751e-07
4.81565e-08
2.61841e-07
6.82432e-08
2.63097e-07
5.26167e-08
2.64173e-07
4.47928e-08
2.64916e-07
4.17369e-08
2.65341e-07
3.81109e-08
2.65667e-07
3.46777e-08
2.65959e-07
3.2134e-08
2.66211e-07
3.0147e-08
2.66426e-07
2.84252e-08
2.66616e-07
2.69017e-08
2.66788e-07
2.5558e-08
2.66945e-07
2.43652e-08
2.6709e-07
2.32948e-08
2.67224e-07
2.23262e-08
2.67348e-07
2.14446e-08
2.67462e-07
2.06384e-08
2.67568e-07
1.98978e-08
2.67664e-07
1.92149e-08
2.67751e-07
1.85829e-08
2.67828e-07
1.79961e-08
2.67896e-07
1.74497e-08
2.67953e-07
1.69397e-08
2.68e-07
1.64629e-08
2.68036e-07
1.60165e-08
2.68061e-07
1.55984e-08
2.68074e-07
1.52069e-08
2.68076e-07
1.48407e-08
2.68067e-07
1.44991e-08
2.68045e-07
1.41813e-08
2.68011e-07
1.38871e-08
2.67964e-07
1.36168e-08
2.67904e-07
1.33706e-08
2.67831e-07
1.31498e-08
2.67744e-07
1.29548e-08
2.67644e-07
1.27892e-08
2.67529e-07
1.26522e-08
2.67399e-07
1.25512e-08
2.67254e-07
1.24824e-08
2.67094e-07
1.24594e-08
2.66917e-07
1.24723e-08
2.66726e-07
1.25403e-08
2.66515e-07
1.2647e-08
2.66289e-07
1.28038e-08
2.66043e-07
1.29983e-08
2.65775e-07
1.31832e-08
2.65484e-07
1.33785e-08
2.65125e-07
1.33872e-08
2.64684e-07
1.32962e-08
1.28536e-08
2.64014e-07
2.66258e-07
4.38906e-08
2.69358e-07
6.51432e-08
2.70597e-07
5.13782e-08
2.71658e-07
4.37315e-08
2.72433e-07
4.09621e-08
2.72881e-07
3.76631e-08
2.73214e-07
3.43443e-08
2.73512e-07
3.18358e-08
2.73769e-07
2.98898e-08
2.73988e-07
2.82062e-08
2.74181e-07
2.67091e-08
2.74355e-07
2.5384e-08
2.74514e-07
2.4206e-08
2.74661e-07
2.3148e-08
2.74797e-07
2.219e-08
2.74924e-07
2.13175e-08
2.75043e-07
2.05194e-08
2.75155e-07
1.97864e-08
2.75259e-07
1.91108e-08
2.75356e-07
1.84858e-08
2.75446e-07
1.7906e-08
2.75529e-07
1.73667e-08
2.75605e-07
1.68639e-08
2.75673e-07
1.63943e-08
2.75735e-07
1.59553e-08
2.75788e-07
1.55448e-08
2.75834e-07
1.51611e-08
2.75872e-07
1.4803e-08
2.75901e-07
1.44696e-08
2.75922e-07
1.41605e-08
2.75934e-07
1.38753e-08
2.75936e-07
1.36143e-08
2.75929e-07
1.33778e-08
2.75912e-07
1.31672e-08
2.75884e-07
1.29829e-08
2.75844e-07
1.28283e-08
2.75794e-07
1.2703e-08
2.75731e-07
1.26138e-08
2.75655e-07
1.25581e-08
2.75567e-07
1.25474e-08
2.75465e-07
1.25748e-08
2.7535e-07
1.26552e-08
2.75219e-07
1.2778e-08
2.75075e-07
1.29481e-08
2.74913e-07
1.31596e-08
2.7473e-07
1.33663e-08
2.74524e-07
1.35852e-08
2.74251e-07
1.36602e-08
2.73888e-07
1.36585e-08
1.34324e-08
2.7331e-07
2.74009e-07
3.99228e-08
2.77108e-07
6.20445e-08
2.78339e-07
5.0147e-08
2.79382e-07
4.26886e-08
2.80184e-07
4.01599e-08
2.80657e-07
3.71902e-08
2.80999e-07
3.40025e-08
2.81302e-07
3.15324e-08
2.81565e-07
2.96268e-08
2.81789e-07
2.79828e-08
2.81984e-07
2.65136e-08
2.8216e-07
2.52079e-08
2.82321e-07
2.40452e-08
2.82469e-07
2.3e-08
2.82607e-07
2.20525e-08
2.82735e-07
2.11891e-08
2.82855e-07
2.0399e-08
2.82968e-07
1.96732e-08
2.83075e-07
1.90042e-08
2.83175e-07
1.83855e-08
2.8327e-07
1.78118e-08
2.83358e-07
1.72783e-08
2.8344e-07
1.67813e-08
2.83517e-07
1.63174e-08
2.83588e-07
1.58842e-08
2.83654e-07
1.54794e-08
2.83713e-07
1.51016e-08
2.83767e-07
1.47495e-08
2.83814e-07
1.44223e-08
2.83855e-07
1.41196e-08
2.83889e-07
1.38412e-08
2.83916e-07
1.35873e-08
2.83936e-07
1.33583e-08
2.83947e-07
1.31557e-08
2.8395e-07
1.29797e-08
2.83945e-07
1.28339e-08
2.8393e-07
1.27181e-08
2.83905e-07
1.26385e-08
2.83869e-07
1.25935e-08
2.83824e-07
1.25931e-08
2.83766e-07
1.26325e-08
2.83698e-07
1.27235e-08
2.83616e-07
1.28596e-08
2.83522e-07
1.30416e-08
2.83414e-07
1.32678e-08
2.83285e-07
1.34957e-08
2.83131e-07
1.37388e-08
2.82913e-07
1.38789e-08
2.826e-07
1.39713e-08
1.39495e-08
2.82083e-07
2.82012e-07
3.62479e-08
2.85098e-07
5.89587e-08
2.86332e-07
4.89137e-08
2.87353e-07
4.16669e-08
2.88178e-07
3.93348e-08
2.88678e-07
3.66908e-08
2.89029e-07
3.36511e-08
2.89338e-07
3.12237e-08
2.89607e-07
2.93579e-08
2.89835e-07
2.77545e-08
2.90034e-07
2.63148e-08
2.90212e-07
2.50295e-08
2.90375e-07
2.38826e-08
2.90524e-07
2.28504e-08
2.90663e-07
2.1914e-08
2.90792e-07
2.10599e-08
2.90913e-07
2.02779e-08
2.91027e-07
1.95593e-08
2.91134e-07
1.88969e-08
2.91236e-07
1.82844e-08
2.91331e-07
1.77164e-08
2.91421e-07
1.71884e-08
2.91505e-07
1.66967e-08
2.91585e-07
1.6238e-08
2.91659e-07
1.58098e-08
2.91728e-07
1.54101e-08
2.91793e-07
1.50372e-08
2.91852e-07
1.46902e-08
2.91906e-07
1.43681e-08
2.91955e-07
1.40708e-08
2.91999e-07
1.37978e-08
2.92036e-07
1.35498e-08
2.92067e-07
1.3327e-08
2.92092e-07
1.31309e-08
2.9211e-07
1.2962e-08
2.9212e-07
1.28235e-08
2.92123e-07
1.27157e-08
2.92117e-07
1.26443e-08
2.92102e-07
1.26084e-08
2.92078e-07
1.26166e-08
2.92045e-07
1.26664e-08
2.92001e-07
1.27666e-08
2.91947e-07
1.2914e-08
2.91882e-07
1.31071e-08
2.91803e-07
1.33462e-08
2.91704e-07
1.35953e-08
2.91579e-07
1.38639e-08
2.91389e-07
1.40681e-08
2.91103e-07
1.42572e-08
1.44284e-08
2.90625e-07
2.90278e-07
3.28587e-08
2.93339e-07
5.58976e-08
2.94584e-07
4.76693e-08
2.95582e-07
4.06681e-08
2.96425e-07
3.84921e-08
2.96952e-07
3.61641e-08
2.97314e-07
3.32888e-08
2.97628e-07
3.09098e-08
2.97903e-07
2.90831e-08
2.98136e-07
2.75211e-08
2.98339e-07
2.61125e-08
2.98519e-07
2.48485e-08
2.98684e-07
2.3718e-08
2.98835e-07
2.26994e-08
2.98975e-07
2.17743e-08
2.99105e-07
2.09298e-08
2.99227e-07
2.01561e-08
2.99341e-07
1.94449e-08
2.99449e-07
1.87892e-08
2.99551e-07
1.81828e-08
2.99646e-07
1.76207e-08
2.99736e-07
1.70982e-08
2.99821e-07
1.66118e-08
2.99901e-07
1.61581e-08
2.99976e-07
1.57348e-08
3.00047e-07
1.53397e-08
3.00112e-07
1.49716e-08
3.00173e-07
1.46292e-08
3.0023e-07
1.43119e-08
3.00281e-07
1.40193e-08
3.00327e-07
1.37514e-08
3.00369e-07
1.35087e-08
3.00404e-07
1.32914e-08
3.00434e-07
1.31012e-08
3.00457e-07
1.29386e-08
3.00474e-07
1.28066e-08
3.00484e-07
1.2706e-08
3.00486e-07
1.26418e-08
3.00481e-07
1.26141e-08
3.00467e-07
1.26302e-08
3.00445e-07
1.26891e-08
3.00413e-07
1.27978e-08
3.00372e-07
1.29552e-08
3.0032e-07
1.31591e-08
3.00256e-07
1.34103e-08
3.00171e-07
1.36808e-08
3.00058e-07
1.39766e-08
2.99882e-07
1.42442e-08
2.99608e-07
1.45313e-08
1.48841e-08
2.99152e-07
2.98815e-07
2.97463e-08
3.01839e-07
5.28731e-08
3.03103e-07
4.64059e-08
3.04078e-07
3.96931e-08
3.04933e-07
3.76373e-08
3.05487e-07
3.56095e-08
3.05862e-07
3.29139e-08
3.06181e-07
3.05907e-08
3.06462e-07
2.88023e-08
3.06701e-07
2.72823e-08
3.06907e-07
2.59064e-08
3.07091e-07
2.46648e-08
3.07257e-07
2.35512e-08
3.0741e-07
2.25465e-08
3.07551e-07
2.16331e-08
3.07683e-07
2.07986e-08
3.07805e-07
2.00334e-08
3.0792e-07
1.93299e-08
3.08028e-07
1.8681e-08
3.0813e-07
1.8081e-08
3.08226e-07
1.75248e-08
3.08316e-07
1.7008e-08
3.08401e-07
1.65268e-08
3.08481e-07
1.60782e-08
3.08556e-07
1.56597e-08
3.08627e-07
1.52694e-08
3.08692e-07
1.49058e-08
3.08753e-07
1.4568e-08
3.0881e-07
1.42553e-08
3.08862e-07
1.39675e-08
3.08909e-07
1.37045e-08
3.08951e-07
1.34668e-08
3.08987e-07
1.32548e-08
3.09018e-07
1.30701e-08
3.09044e-07
1.29135e-08
3.09062e-07
1.27878e-08
3.09075e-07
1.26939e-08
3.0908e-07
1.26366e-08
3.09077e-07
1.26165e-08
3.09068e-07
1.264e-08
3.09049e-07
1.27073e-08
3.09023e-07
1.28242e-08
3.08987e-07
1.29909e-08
3.08941e-07
1.32055e-08
3.08882e-07
1.34691e-08
3.08802e-07
1.37613e-08
3.08692e-07
1.40864e-08
3.08519e-07
1.44166e-08
3.08249e-07
1.48013e-08
1.53245e-08
3.07809e-07
3.07633e-07
2.69004e-08
3.10609e-07
4.98974e-08
3.11898e-07
4.51169e-08
3.12849e-07
3.87419e-08
3.13711e-07
3.67757e-08
3.14293e-07
3.50275e-08
3.14682e-07
3.2525e-08
3.15006e-07
3.02661e-08
3.15293e-07
2.85157e-08
3.15538e-07
2.70377e-08
3.15748e-07
2.56961e-08
3.15935e-07
2.44781e-08
3.16104e-07
2.3382e-08
3.16259e-07
2.23917e-08
3.16401e-07
2.14904e-08
3.16534e-07
2.06661e-08
3.16657e-07
1.99098e-08
3.16773e-07
1.92141e-08
3.16882e-07
1.85723e-08
3.16984e-07
1.79789e-08
3.1708e-07
1.74287e-08
3.17171e-07
1.69176e-08
3.17256e-07
1.64418e-08
3.17335e-07
1.59984e-08
3.1741e-07
1.55848e-08
3.1748e-07
1.51993e-08
3.17546e-07
1.48404e-08
3.17607e-07
1.45072e-08
3.17663e-07
1.41991e-08
3.17715e-07
1.39159e-08
3.17761e-07
1.36577e-08
3.17803e-07
1.3425e-08
3.17839e-07
1.32184e-08
3.1787e-07
1.30392e-08
3.17896e-07
1.28884e-08
3.17915e-07
1.27687e-08
3.17927e-07
1.26814e-08
3.17933e-07
1.26308e-08
3.17931e-07
1.2618e-08
3.17922e-07
1.26488e-08
3.17906e-07
1.27242e-08
3.17881e-07
1.28492e-08
3.17846e-07
1.3025e-08
3.17801e-07
1.32505e-08
3.17744e-07
1.35267e-08
3.17664e-07
1.38412e-08
3.17553e-07
1.41975e-08
3.1738e-07
1.45894e-08
3.17112e-07
1.50698e-08
1.57514e-08
3.16685e-07
3.16743e-07
2.43087e-08
3.19658e-07
4.69824e-08
3.20978e-07
4.37969e-08
3.21906e-07
3.78134e-08
3.2277e-07
3.59125e-08
3.23378e-07
3.4419e-08
3.23783e-07
3.21204e-08
3.24113e-07
2.99356e-08
3.24405e-07
2.82234e-08
3.24656e-07
2.67871e-08
3.24871e-07
2.54812e-08
3.25061e-07
2.42882e-08
3.25233e-07
2.32102e-08
3.2539e-07
2.22347e-08
3.25534e-07
2.1346e-08
3.25668e-07
2.05322e-08
3.25793e-07
1.9785e-08
3.25909e-07
1.90974e-08
3.26019e-07
1.84629e-08
3.26122e-07
1.78761e-08
3.26218e-07
1.73322e-08
3.26309e-07
1.68269e-08
3.26394e-07
1.63567e-08
3.26474e-07
1.59185e-08
3.26548e-07
1.551e-08
3.26618e-07
1.51293e-08
3.26684e-07
1.47751e-08
3.26744e-07
1.44466e-08
3.268e-07
1.41432e-08
3.26851e-07
1.38648e-08
3.26897e-07
1.36115e-08
3.26939e-07
1.33838e-08
3.26975e-07
1.31824e-08
3.27005e-07
1.30087e-08
3.2703e-07
1.28637e-08
3.27048e-07
1.27501e-08
3.2706e-07
1.26693e-08
3.27066e-07
1.26253e-08
3.27064e-07
1.26197e-08
3.27055e-07
1.26577e-08
3.27038e-07
1.2741e-08
3.27014e-07
1.28741e-08
3.2698e-07
1.30588e-08
3.26935e-07
1.32955e-08
3.26876e-07
1.3585e-08
3.26796e-07
1.39221e-08
3.26682e-07
1.4311e-08
3.26508e-07
1.47634e-08
3.26242e-07
1.53361e-08
1.6163e-08
3.2583e-07
3.26153e-07
2.1958e-08
3.28996e-07
4.41399e-08
3.30351e-07
4.24421e-08
3.31258e-07
3.69056e-08
3.32118e-07
3.50524e-08
3.32752e-07
3.37859e-08
3.33173e-07
3.16988e-08
3.3351e-07
2.95985e-08
3.33808e-07
2.79255e-08
3.34065e-07
2.65304e-08
3.34285e-07
2.52614e-08
3.34478e-07
2.40946e-08
3.34653e-07
2.30356e-08
3.34812e-07
2.20754e-08
3.34959e-07
2.11995e-08
3.35094e-07
2.03967e-08
3.3522e-07
1.9659e-08
3.35338e-07
1.89796e-08
3.35448e-07
1.83526e-08
3.35552e-07
1.77728e-08
3.35649e-07
1.72353e-08
3.3574e-07
1.6736e-08
3.35825e-07
1.62714e-08
3.35905e-07
1.58386e-08
3.3598e-07
1.54352e-08
3.3605e-07
1.50595e-08
3.36115e-07
1.47101e-08
3.36175e-07
1.43863e-08
3.3623e-07
1.40876e-08
3.36281e-07
1.3814e-08
3.36327e-07
1.35656e-08
3.36368e-07
1.3343e-08