/*--------------------------------*- C++ -*----------------------------------*\
  =========                 |
  \\      /  F ield         | OpenFOAM: The Open Source CFD Toolbox
   \\    /   O peration     | Website:  https://openfoam.org
    \\  /    A nd           | Version:  7
     \\/     M anipulation  |
\*---------------------------------------------------------------------------*/
FoamFile
{
    version     2.0;
    format      ascii;
    class       surfaceScalarField;
    location    "0.36";
    object      phi_0;
}
// * * * * * * * * * * * * * * * * * * * * * * * * * * * * * * * * * * * * * //

dimensions      [0 3 -1 0 0 0 0];

internalField   nonuniform List<scalar> 
139350
(
6.4592e-08
9.20395e-08
3.19497e-08
3.26423e-08
2.30577e-08
8.89206e-09
1.95626e-08
3.49513e-09
1.76102e-08
1.95233e-09
1.61824e-08
1.42788e-09
1.50493e-08
1.1331e-09
1.41353e-08
9.13921e-10
1.33829e-08
7.524e-10
1.27488e-08
6.34103e-10
1.22041e-08
5.447e-10
1.17294e-08
4.7469e-10
1.1311e-08
4.18441e-10
1.09386e-08
3.72415e-10
1.06044e-08
3.34202e-10
1.03023e-08
3.02081e-10
1.00275e-08
2.74785e-10
9.77614e-09
2.51372e-10
9.54502e-09
2.31123e-10
9.33153e-09
2.13485e-10
9.13351e-09
1.98028e-10
8.94909e-09
1.84412e-10
8.77673e-09
1.72363e-10
8.61506e-09
1.61667e-10
8.46292e-09
1.52144e-10
8.31927e-09
1.43654e-10
8.18319e-09
1.36077e-10
8.05387e-09
1.29321e-10
7.93057e-09
1.23304e-10
7.81259e-09
1.17974e-10
7.69933e-09
1.13265e-10
7.59015e-09
1.09176e-10
7.48453e-09
1.05621e-10
7.38185e-09
1.02683e-10
7.28165e-09
1.00195e-10
7.18325e-09
9.83986e-11
7.08634e-09
9.69156e-11
6.99005e-09
9.6293e-11
6.89433e-09
9.57193e-11
6.79811e-09
9.62182e-11
6.70177e-09
9.6337e-11
6.60437e-09
9.73971e-11
6.50663e-09
9.77448e-11
6.40965e-09
9.69762e-11
6.31299e-09
9.66653e-11
6.22719e-09
8.57931e-11
6.14302e-09
8.41733e-11
6.1193e-09
2.37182e-11
5.98396e-09
1.35344e-10
-2.88024e-09
8.8642e-09
1.26025e-07
1.27458e-07
9.12606e-08
6.74067e-08
7.1937e-08
2.82157e-08
6.12076e-08
1.42245e-08
5.47597e-08
8.4002e-09
5.02651e-08
5.92255e-09
4.67807e-08
4.61751e-09
4.39648e-08
3.72976e-09
4.16381e-08
3.07918e-09
3.96754e-08
2.59678e-09
3.79895e-08
2.23057e-09
3.65203e-08
1.94392e-09
3.52249e-08
1.71378e-09
3.40719e-08
1.52549e-09
3.3037e-08
1.36911e-09
3.21014e-08
1.2376e-09
3.12504e-08
1.12579e-09
3.0472e-08
1.02981e-09
2.97564e-08
9.46755e-10
2.90955e-08
8.74352e-10
2.84827e-08
8.1084e-10
2.79123e-08
7.5483e-10
2.73794e-08
7.05208e-10
2.688e-08
6.61084e-10
2.64104e-08
6.21727e-10
2.59675e-08
5.8655e-10
2.55485e-08
5.55064e-10
2.5151e-08
5.26879e-10
2.47726e-08
5.01663e-10
2.44114e-08
4.79177e-10
2.40655e-08
4.59186e-10
2.37331e-08
4.41607e-10
2.34125e-08
4.26213e-10
2.3102e-08
4.13147e-10
2.28002e-08
4.02028e-10
2.25051e-08
3.93446e-10
2.22156e-08
3.86473e-10
2.19292e-08
3.82673e-10
2.16452e-08
3.7969e-10
2.13603e-08
3.8115e-10
2.10751e-08
3.81528e-10
2.07842e-08
3.88278e-10
2.04921e-08
3.89882e-10
2.01899e-08
3.9911e-10
1.98906e-08
3.96014e-10
1.95837e-08
3.92707e-10
1.92918e-08
3.76012e-10
1.90651e-08
2.5043e-10
1.87641e-08
4.36422e-10
-3.5651e-09
1.94489e-08
1.58807e-07
1.35055e-07
1.36492e-07
8.97216e-08
1.17487e-07
4.72205e-08
1.03306e-07
2.84059e-08
9.32959e-08
1.84099e-08
8.59923e-08
1.32261e-08
8.02859e-08
1.0324e-08
7.56347e-08
8.38094e-09
7.17562e-08
6.95765e-09
6.84632e-08
5.88983e-09
6.5622e-08
5.07171e-09
6.31378e-08
4.42817e-09
6.09417e-08
3.90988e-09
5.89825e-08
3.4847e-09
5.72208e-08
3.13076e-09
5.56259e-08
2.83248e-09
5.41733e-08
2.5784e-09
5.28432e-08
2.35994e-09
5.16194e-08
2.17058e-09
5.04885e-08
2.00527e-09
4.94393e-08
1.86004e-09
4.84623e-08
1.73178e-09
4.75495e-08
1.61798e-09
4.6694e-08
1.51661e-09
4.58897e-08
1.42603e-09
4.51314e-08
1.34489e-09
4.44144e-08
1.27209e-09
4.37345e-08
1.20671e-09
4.30882e-08
1.14801e-09
4.2472e-08
1.0954e-09
4.18827e-08
1.04839e-09
4.13177e-08
1.00668e-09
4.0774e-08
9.6988e-10
4.02491e-08
9.38092e-10
3.97403e-08
9.10739e-10
3.92451e-08
8.88725e-10
3.8761e-08
8.70568e-10
3.82846e-08
8.59046e-10
3.78144e-08
8.49884e-10
3.73451e-08
8.50447e-10
3.68775e-08
8.49121e-10
3.6402e-08
8.63835e-10
3.59262e-08
8.65663e-10
3.54308e-08
8.94483e-10
3.49412e-08
8.85594e-10
3.44223e-08
9.11677e-10
3.39276e-08
8.70715e-10
3.34672e-08
7.10807e-10
3.30383e-08
8.65297e-10
-3.24148e-09
3.27147e-08
1.75664e-07
1.30907e-07
1.65593e-07
9.97926e-08
1.52718e-07
6.00951e-08
1.40115e-07
4.10094e-08
1.29421e-07
2.91032e-08
1.20775e-07
2.18719e-08
1.13662e-07
1.74372e-08
1.07681e-07
1.43619e-08
1.02581e-07
1.20579e-08
9.81786e-08
1.02922e-08
9.4334e-08
8.91631e-09
9.09411e-08
7.82104e-09
8.79198e-08
6.93119e-09
8.52083e-08
6.19616e-09
8.27583e-08
5.58078e-09
8.05311e-08
5.05966e-09
7.84956e-08
4.61392e-09
7.66263e-08
4.22931e-09
7.4902e-08
3.89486e-09
7.33052e-08
3.60204e-09
7.18211e-08
3.34414e-09
7.04371e-08
3.1158e-09
6.91423e-08
2.91274e-09
6.79275e-08
2.73145e-09
6.67844e-08
2.56907e-09
6.57061e-08
2.42326e-09
6.46861e-08
2.29208e-09
6.37189e-08
2.17393e-09
6.27994e-08
2.06749e-09
6.19231e-08
1.97169e-09
6.10858e-08
1.88567e-09
6.02837e-08
1.80883e-09
5.9513e-08
1.74055e-09
5.87703e-08
1.68081e-09
5.80522e-08
1.62883e-09
5.73551e-08
1.58577e-09
5.66761e-08
1.54961e-09
5.60108e-08
1.52439e-09
5.53569e-08
1.50376e-09
5.47079e-08
1.49938e-09
5.40645e-08
1.49261e-09
5.34143e-08
1.51395e-09
5.27662e-08
1.51377e-09
5.20957e-08
1.56498e-09
5.14314e-08
1.54993e-09
5.07302e-08
1.61286e-09
5.00488e-08
1.55208e-09
4.93864e-08
1.37323e-09
4.88091e-08
1.44264e-09
-2.50484e-09
4.80724e-08
1.8456e-07
1.23133e-07
1.82319e-07
1.02033e-07
1.76098e-07
6.63165e-08
1.67751e-07
4.93569e-08
1.59122e-07
3.77313e-08
1.51209e-07
2.97856e-08
1.44133e-07
2.4513e-08
1.37832e-07
2.06632e-08
1.3223e-07
1.76591e-08
1.27245e-07
1.52778e-08
1.22788e-07
1.33726e-08
1.18784e-07
1.18251e-08
1.15167e-07
1.05481e-08
1.11883e-07
9.48008e-09
1.08888e-07
8.57664e-09
1.06142e-07
7.80498e-09
1.03616e-07
7.14012e-09
1.01283e-07
6.56283e-09
9.91194e-08
6.05807e-09
9.71074e-08
5.61402e-09
9.52303e-08
5.22123e-09
9.3474e-08
4.87211e-09
9.18262e-08
4.56051e-09
9.02763e-08
4.28139e-09
8.88147e-08
4.0306e-09
8.74333e-08
3.80468e-09
8.61246e-08
3.60079e-09
8.4882e-08
3.41653e-09
8.36995e-08
3.24995e-09
8.25718e-08
3.09943e-09
8.14938e-08
2.96368e-09
8.04609e-08
2.84171e-09
7.94688e-08
2.73265e-09
7.85133e-08
2.6363e-09
7.75905e-08
2.55167e-09
7.66962e-08
2.48011e-09
7.58267e-08
2.41907e-09
7.49773e-08
2.37383e-09
7.4145e-08
2.33604e-09
7.33228e-08
2.32153e-09
7.25105e-08
2.30497e-09
7.16955e-08
2.32893e-09
7.08849e-08
2.32441e-09
7.00552e-08
2.39468e-09
6.92292e-08
2.37588e-09
6.83725e-08
2.46957e-09
6.75222e-08
2.40234e-09
6.66961e-08
2.19937e-09
6.59553e-08
2.18345e-09
-1.54227e-09
6.49927e-08
1.90388e-07
1.14961e-07
1.9185e-07
1.00571e-07
1.9024e-07
6.7927e-08
1.86145e-07
5.34517e-08
1.80701e-07
4.31755e-08
1.74941e-07
3.55459e-08
1.69239e-07
3.02149e-08
1.63751e-07
2.6151e-08
1.58574e-07
2.28367e-08
1.53748e-07
2.01035e-08
1.49276e-07
1.78441e-08
1.45142e-07
1.59595e-08
1.4132e-07
1.43701e-08
1.37783e-07
1.30166e-08
1.34506e-07
1.18542e-08
1.31462e-07
1.08487e-08
1.2863e-07
9.97271e-09
1.25987e-07
9.20491e-09
1.23517e-07
8.52804e-09
1.21203e-07
7.92824e-09
1.1903e-07
7.39425e-09
1.16985e-07
6.9169e-09
1.15057e-07
6.48861e-09
1.13236e-07
6.10312e-09
1.11511e-07
5.75522e-09
1.09875e-07
5.44051e-09
1.08321e-07
5.15534e-09
1.06841e-07
4.89662e-09
1.05429e-07
4.6618e-09
1.04079e-07
4.44873e-09
1.02787e-07
4.25571e-09
1.01548e-07
4.08139e-09
1.00356e-07
3.92465e-09
9.92069e-08
3.78508e-09
9.8097e-08
3.66154e-09
9.70217e-08
3.55548e-09
9.59768e-08
3.46397e-09
9.49573e-08
3.39326e-09
9.39599e-08
3.33348e-09
9.29776e-08
3.30382e-09
9.20088e-08
3.27374e-09
9.10425e-08
3.29522e-09
9.0082e-08
3.28497e-09
8.91093e-08
3.36739e-09
8.81357e-08
3.34945e-09
8.71445e-08
3.46076e-09
8.61447e-08
3.40216e-09
8.51794e-08
3.1647e-09
8.42883e-08
3.07452e-09
-3.94e-10
8.314e-08
1.9554e-07
1.07235e-07
1.98246e-07
9.78648e-08
1.98965e-07
6.72078e-08
1.97781e-07
5.46359e-08
1.95144e-07
4.5813e-08
1.91795e-07
3.88942e-08
1.88057e-07
3.39535e-08
1.841e-07
3.01075e-08
1.80075e-07
2.68616e-08
1.76092e-07
2.40866e-08
1.72219e-07
2.17176e-08
1.68493e-07
1.96851e-08
1.64935e-07
1.79284e-08
1.61552e-07
1.63998e-08
1.58343e-07
1.50625e-08
1.55306e-07
1.38866e-08
1.52431e-07
1.28477e-08
1.4971e-07
1.19256e-08
1.47134e-07
1.11039e-08
1.44694e-07
1.03685e-08
1.4238e-07
9.70816e-09
1.40184e-07
9.11321e-09
1.38097e-07
8.57564e-09
1.36111e-07
8.08868e-09
1.3422e-07
7.6466e-09
1.32416e-07
7.24453e-09
1.30693e-07
6.87835e-09
1.29045e-07
6.54451e-09
1.27466e-07
6.24011e-09
1.25952e-07
5.9626e-09
1.24498e-07
5.71005e-09
1.23099e-07
5.48081e-09
1.2175e-07
5.27361e-09
1.20447e-07
5.08788e-09
1.19186e-07
4.9224e-09
1.17963e-07
4.77869e-09
1.16773e-07
4.65367e-09
1.15612e-07
4.55421e-09
1.14476e-07
4.46959e-09
1.13359e-07
4.42121e-09
1.12257e-07
4.37548e-09
1.11162e-07
4.38997e-09
1.10073e-07
4.37393e-09
1.0898e-07
4.46114e-09
1.0788e-07
4.44918e-09
1.06775e-07
4.56529e-09
1.05652e-07
4.52571e-09
1.04565e-07
4.25148e-09
1.03547e-07
4.09289e-09
9.10088e-10
1.02242e-07
2.00848e-07
9.99723e-08
2.03775e-07
9.49379e-08
2.05324e-07
6.56584e-08
2.05636e-07
5.43235e-08
2.04805e-07
4.66445e-08
2.03317e-07
4.03818e-08
2.01362e-07
3.59085e-08
1.99025e-07
3.2445e-08
1.96411e-07
2.94752e-08
1.93625e-07
2.68733e-08
1.90746e-07
2.45966e-08
1.87834e-07
2.25966e-08
1.84934e-07
2.08284e-08
1.82077e-07
1.9257e-08
1.79284e-07
1.78555e-08
1.76569e-07
1.66014e-08
1.73941e-07
1.54759e-08
1.71404e-07
1.44626e-08
1.6896e-07
1.35478e-08
1.66609e-07
1.27198e-08
1.64348e-07
1.19683e-08
1.62177e-07
1.12847e-08
1.60091e-07
1.06617e-08
1.58087e-07
1.00929e-08
1.56161e-07
9.57271e-09
1.54309e-07
9.09643e-09
1.52527e-07
8.65997e-09
1.50812e-07
8.25975e-09
1.49159e-07
7.89283e-09
1.47565e-07
7.55656e-09
1.46026e-07
7.24898e-09
1.44539e-07
6.96835e-09
1.43099e-07
6.7134e-09
1.41703e-07
6.48351e-09
1.40348e-07
6.27754e-09
1.3903e-07
6.09707e-09
1.37744e-07
5.93908e-09
1.36488e-07
5.81086e-09
1.35256e-07
5.70145e-09
1.34044e-07
5.63337e-09
1.32847e-07
5.57211e-09
1.3166e-07
5.57711e-09
1.30477e-07
5.55663e-09
1.29295e-07
5.64331e-09
1.28102e-07
5.64169e-09
1.26913e-07
5.75431e-09
1.25701e-07
5.7383e-09
1.24518e-07
5.43455e-09
1.23398e-07
5.21231e-09
2.33161e-09
1.21977e-07
2.06447e-07
9.30578e-08
2.09338e-07
9.20464e-08
2.11034e-07
6.39628e-08
2.11925e-07
5.34324e-08
2.1199e-07
4.65798e-08
2.11597e-07
4.0774e-08
2.10861e-07
3.66452e-08
2.09783e-07
3.3523e-08
2.08401e-07
3.08565e-08
2.06776e-07
2.84991e-08
2.04961e-07
2.64109e-08
2.03008e-07
2.45502e-08
2.00957e-07
2.2879e-08
1.98845e-07
2.13694e-08
1.967e-07
2.00008e-08
1.94544e-07
1.87569e-08
1.92396e-07
1.76237e-08
1.9027e-07
1.65893e-08
1.88174e-07
1.56433e-08
1.86118e-07
1.47764e-08
1.84105e-07
1.39809e-08
1.8214e-07
1.32497e-08
1.80225e-07
1.25768e-08
1.78361e-07
1.1957e-08
1.76548e-07
1.13855e-08
1.74786e-07
1.08583e-08
1.73074e-07
1.03717e-08
1.71412e-07
9.92258e-09
1.69796e-07
9.5083e-09
1.68226e-07
9.12644e-09
1.667e-07
8.77525e-09
1.65215e-07
8.45313e-09
1.6377e-07
8.15901e-09
1.62361e-07
7.89237e-09
1.60986e-07
7.65231e-09
1.59642e-07
7.44053e-09
1.58327e-07
7.2543e-09
1.57037e-07
7.10112e-09
1.55768e-07
6.97039e-09
1.54517e-07
6.88485e-09
1.53278e-07
6.81081e-09
1.52048e-07
6.80667e-09
1.5082e-07
6.78462e-09
1.49595e-07
6.86861e-09
1.48356e-07
6.88098e-09
1.47123e-07
6.98706e-09
1.45866e-07
6.99573e-09
1.44624e-07
6.67562e-09
1.43438e-07
6.39891e-09
3.82498e-09
1.41944e-07
2.12288e-07
8.64316e-08
2.15151e-07
8.91839e-08
2.16788e-07
6.23257e-08
2.17837e-07
5.23833e-08
2.18248e-07
4.61686e-08
2.18359e-07
4.06633e-08
2.18276e-07
3.67278e-08
2.17969e-07
3.38299e-08
2.17431e-07
3.13947e-08
2.16681e-07
2.92495e-08
2.15743e-07
2.7349e-08
2.14642e-07
2.56506e-08
2.13405e-07
2.41159e-08
2.12057e-07
2.27178e-08
2.1062e-07
2.14376e-08
2.09116e-07
2.02614e-08
2.07561e-07
1.91779e-08
2.05973e-07
1.81778e-08
2.04363e-07
1.72529e-08
2.02743e-07
1.63963e-08
2.01122e-07
1.56021e-08
1.99507e-07
1.48649e-08
1.97903e-07
1.41802e-08
1.96317e-07
1.35438e-08
1.9475e-07
1.29521e-08
1.93206e-07
1.2402e-08
1.91688e-07
1.18906e-08
1.90195e-07
1.14153e-08
1.88729e-07
1.09742e-08
1.8729e-07
1.05651e-08
1.85879e-07
1.01868e-08
1.84494e-07
9.83806e-09
1.83135e-07
9.51805e-09
1.818e-07
9.22659e-09
1.8049e-07
8.96308e-09
1.79201e-07
8.7295e-09
1.77931e-07
8.52349e-09
1.7668e-07
8.35277e-09
1.75443e-07
8.20739e-09
1.74218e-07
8.10983e-09
1.73e-07
8.02829e-09
1.71789e-07
8.01829e-09
1.70574e-07
7.99908e-09
1.69362e-07
8.08139e-09
1.68131e-07
8.1113e-09
1.66906e-07
8.21205e-09
1.65656e-07
8.24546e-09
1.64407e-07
7.92509e-09
1.63198e-07
7.60835e-09
5.33896e-09
1.61684e-07
2.1833e-07
8.00826e-08
2.21205e-07
8.6309e-08
2.22761e-07
6.07697e-08
2.23836e-07
5.13074e-08
2.24357e-07
4.5648e-08
2.24645e-07
4.03748e-08
2.24839e-07
3.65341e-08
2.2491e-07
3.37585e-08
2.24838e-07
3.14673e-08
2.24622e-07
2.94657e-08
2.24267e-07
2.77034e-08
2.23781e-07
2.61369e-08
2.23172e-07
2.47249e-08
2.22451e-07
2.34383e-08
2.21632e-07
2.22573e-08
2.20726e-07
2.11676e-08
2.19745e-07
2.01584e-08
2.18702e-07
1.92208e-08
2.17607e-07
1.83477e-08
2.16471e-07
1.75331e-08
2.15301e-07
1.67719e-08
2.14106e-07
1.606e-08
2.12892e-07
1.53937e-08
2.11666e-07
1.47697e-08
2.10433e-07
1.41854e-08
2.09197e-07
1.36384e-08
2.07961e-07
1.31265e-08
2.06728e-07
1.26478e-08
2.05502e-07
1.22008e-08
2.04283e-07
1.17841e-08
2.03073e-07
1.13968e-08
2.01873e-07
1.1038e-08
2.00683e-07
1.07075e-08
1.99505e-07
1.04053e-08
1.98336e-07
1.01313e-08
1.97178e-07
9.88782e-09
1.96029e-07
9.67283e-09
1.94887e-07
9.49431e-09
1.93751e-07
9.34315e-09
1.9262e-07
9.24121e-09
1.91489e-07
9.15933e-09
1.90358e-07
9.14892e-09
1.89219e-07
9.1382e-09
1.88078e-07
9.22222e-09
1.86916e-07
9.27337e-09
1.85755e-07
9.37301e-09
1.8457e-07
9.43131e-09
1.83367e-07
9.12771e-09
1.82186e-07
8.78954e-09
6.81907e-09
1.80706e-07
2.24558e-07
7.40175e-08
2.27469e-07
8.33987e-08
2.28957e-07
5.92813e-08
2.30038e-07
5.02265e-08
2.306e-07
4.50863e-08
2.30937e-07
4.00377e-08
2.3122e-07
3.6251e-08
2.31439e-07
3.35392e-08
2.31575e-07
3.13313e-08
2.31626e-07
2.94147e-08
2.31592e-07
2.77375e-08
2.31472e-07
2.62574e-08
2.31265e-07
2.4932e-08
2.30973e-07
2.37302e-08
2.306e-07
2.26304e-08
2.3015e-07
2.16173e-08
2.29629e-07
2.06793e-08
2.29043e-07
1.98069e-08
2.28398e-07
1.89927e-08
2.277e-07
1.82308e-08
2.26956e-07
1.75163e-08
2.26171e-07
1.68451e-08
2.25351e-07
1.62139e-08
2.245e-07
1.562e-08
2.23625e-07
1.50611e-08
2.22728e-07
1.45351e-08
2.21814e-07
1.40405e-08
2.20886e-07
1.35757e-08
2.19947e-07
1.31398e-08
2.18999e-07
1.27318e-08
2.18045e-07
1.2351e-08
2.17086e-07
1.19972e-08
2.16123e-07
1.16703e-08
2.15158e-07
1.13708e-08
2.1419e-07
1.10989e-08
2.13221e-07
1.08572e-08
2.12249e-07
1.06441e-08
2.11276e-07
1.04679e-08
2.10299e-07
1.03203e-08
2.09318e-07
1.02223e-08
2.08329e-07
1.01477e-08
2.07335e-07
1.01433e-08
2.06326e-07
1.0147e-08
2.05311e-07
1.02373e-08
2.04271e-07
1.03131e-08
2.03227e-07
1.04176e-08
2.02157e-07
1.05013e-08
2.01054e-07
1.02306e-08
1.99951e-07
9.89215e-09
8.21275e-09
1.98557e-07
2.30979e-07
6.82443e-08
2.33933e-07
8.04446e-08
2.35362e-07
5.78522e-08
2.36449e-07
4.91395e-08
2.37044e-07
4.44912e-08
2.37397e-07
3.96854e-08
2.37701e-07
3.59466e-08
2.37966e-07
3.32741e-08
2.38178e-07
3.11199e-08
2.38338e-07
2.92546e-08
2.38449e-07
2.76262e-08
2.3851e-07
2.61963e-08
2.38519e-07
2.49234e-08
2.38473e-07
2.37756e-08
2.38373e-07
2.27307e-08
2.38218e-07
2.17724e-08
2.38009e-07
2.08881e-08
2.37748e-07
2.00681e-08
2.37436e-07
1.93042e-08
2.37077e-07
1.85899e-08
2.36673e-07
1.79202e-08
2.36228e-07
1.72907e-08
2.35743e-07
1.6698e-08
2.35224e-07
1.61394e-08
2.34673e-07
1.56125e-08
2.34092e-07
1.51155e-08
2.33486e-07
1.4647e-08
2.32856e-07
1.42057e-08
2.32205e-07
1.37907e-08
2.31535e-07
1.34015e-08
2.30849e-07
1.30376e-08
2.30147e-07
1.26989e-08
2.29432e-07
1.23857e-08
2.28704e-07
1.20988e-08
2.27964e-07
1.18385e-08
2.27213e-07
1.16079e-08
2.26451e-07
1.14057e-08
2.25679e-07
1.12402e-08
2.24895e-07
1.1104e-08
2.24101e-07
1.10171e-08
2.23292e-07
1.09566e-08
2.22471e-07
1.09637e-08
2.21631e-07
1.09869e-08
2.20781e-07
1.10882e-08
2.19903e-07
1.11911e-08
2.19014e-07
1.13066e-08
2.18099e-07
1.14161e-08
2.17137e-07
1.11922e-08
2.16154e-07
1.08752e-08
9.47693e-09
2.1489e-07
2.376e-07
6.27689e-08
2.40601e-07
7.74441e-08
2.41973e-07
5.64802e-08
2.43064e-07
4.80477e-08
2.43696e-07
4.38591e-08
2.44062e-07
3.93199e-08
2.44372e-07
3.5637e-08
2.44649e-07
3.29968e-08
2.44883e-07
3.0886e-08
2.45079e-07
2.90582e-08
2.45245e-07
2.74608e-08
2.45381e-07
2.60603e-08
2.45486e-07
2.48178e-08
2.4556e-07
2.37016e-08
2.45601e-07
2.26895e-08
2.45609e-07
2.17652e-08
2.45581e-07
2.09158e-08
2.45518e-07
2.01312e-08
2.45419e-07
1.9403e-08
2.45285e-07
1.87242e-08
2.45116e-07
1.80893e-08
2.44912e-07
1.74938e-08
2.44677e-07
1.6934e-08
2.44409e-07
1.64068e-08
2.44112e-07
1.59099e-08
2.43786e-07
1.54413e-08
2.43433e-07
1.49995e-08
2.43056e-07
1.45834e-08
2.42654e-07
1.41922e-08
2.42231e-07
1.38251e-08
2.41786e-07
1.34821e-08
2.41322e-07
1.31632e-08
2.40839e-07
1.28686e-08
2.40338e-07
1.25995e-08
2.3982e-07
1.23563e-08
2.39286e-07
1.21423e-08
2.38735e-07
1.19563e-08
2.38169e-07
1.18067e-08
2.37586e-07
1.1687e-08
2.36987e-07
1.16159e-08
2.3637e-07
1.15739e-08
2.35737e-07
1.15965e-08
2.35081e-07
1.16424e-08
2.34412e-07
1.17579e-08
2.33714e-07
1.18886e-08
2.33e-07
1.20206e-08
2.3226e-07
1.2156e-08
2.31463e-07
1.19891e-08
2.30625e-07
1.17139e-08
1.05852e-08
2.29516e-07
2.4443e-07
5.75949e-08
2.4747e-07
7.4404e-08
2.48793e-07
5.51574e-08
2.49885e-07
4.69558e-08
2.50556e-07
4.31885e-08
2.50938e-07
3.89375e-08
2.51252e-07
3.53232e-08
2.51535e-07
3.27142e-08
2.51776e-07
3.06446e-08
2.51983e-07
2.88511e-08
2.52165e-07
2.72786e-08
2.52327e-07
2.58988e-08
2.52469e-07
2.46757e-08
2.52592e-07
2.35788e-08
2.52695e-07
2.25861e-08
2.52778e-07
2.16819e-08
2.52841e-07
2.08534e-08
2.52881e-07
2.00905e-08
2.529e-07
1.93848e-08
2.52895e-07
1.87292e-08
2.52866e-07
1.81179e-08
2.52814e-07
1.75463e-08
2.52737e-07
1.70103e-08
2.52637e-07
1.65069e-08
2.52514e-07
1.60333e-08
2.52367e-07
1.55877e-08
2.52199e-07
1.51684e-08
2.52008e-07
1.47741e-08
2.51796e-07
1.44041e-08
2.51563e-07
1.40577e-08
2.51311e-07
1.37347e-08
2.51039e-07
1.34353e-08
2.50747e-07
1.31598e-08
2.50438e-07
1.29093e-08
2.5011e-07
1.26844e-08
2.49764e-07
1.24883e-08
2.494e-07
1.23204e-08
2.49018e-07
1.21886e-08
2.48617e-07
1.20874e-08
2.48199e-07
1.20339e-08
2.47761e-07
1.2012e-08
2.47306e-07
1.20517e-08
2.46828e-07
1.21209e-08
2.46333e-07
1.22524e-08
2.45812e-07
1.24098e-08
2.45271e-07
1.25618e-08
2.44704e-07
1.27229e-08
2.44073e-07
1.26195e-08
2.43384e-07
1.24032e-08
1.15313e-08
2.42438e-07
2.51478e-07
5.27241e-08
2.54548e-07
7.13338e-08
2.55832e-07
5.38731e-08
2.56919e-07
4.58692e-08
2.57627e-07
4.24803e-08
2.58029e-07
3.85353e-08
2.58348e-07
3.50038e-08
2.58636e-07
3.24268e-08
2.58882e-07
3.03983e-08
2.59093e-07
2.86398e-08
2.59281e-07
2.70912e-08
2.5945e-07
2.57295e-08
2.59604e-07
2.4522e-08
2.59743e-07
2.34391e-08
2.5987e-07
2.24596e-08
2.59984e-07
2.15682e-08
2.60084e-07
2.07527e-08
2.60172e-07
2.00031e-08
2.60245e-07
1.93111e-08
2.60305e-07
1.86698e-08
2.60349e-07
1.80734e-08
2.60379e-07
1.75171e-08
2.60392e-07
1.69969e-08
2.60389e-07
1.65096e-08
2.6037e-07
1.60523e-08
2.60335e-07
1.56231e-08
2.60283e-07
1.52203e-08
2.60214e-07
1.48426e-08
2.60129e-07
1.44891e-08
2.60028e-07
1.41592e-08
2.5991e-07
1.38527e-08
2.59776e-07
1.35698e-08
2.59625e-07
1.33107e-08
2.59457e-07
1.30768e-08
2.59273e-07
1.28684e-08
2.59072e-07
1.26891e-08
2.58855e-07
1.25381e-08
2.5862e-07
1.24232e-08
2.58368e-07
1.23398e-08
2.58098e-07
1.23033e-08
2.57809e-07
1.23009e-08
2.57504e-07
1.2357e-08
2.57177e-07
1.24483e-08
2.56833e-07
1.25958e-08
2.56466e-07
1.27773e-08
2.56077e-07
1.2951e-08
2.55662e-07
1.31371e-08
2.55182e-07
1.31001e-08
2.54628e-07
1.29565e-08
1.23276e-08
2.53832e-07
2.58751e-07
4.81565e-08
2.61841e-07
6.82434e-08
2.63097e-07
5.2617e-08
2.64173e-07
4.47931e-08
2.64916e-07
4.17372e-08
2.6534e-07
3.81111e-08
2.65666e-07
3.46778e-08
2.65959e-07
3.2134e-08
2.66211e-07
3.01468e-08
2.66426e-07
2.84249e-08
2.66616e-07
2.69012e-08
2.66788e-07
2.55575e-08
2.66945e-07
2.43646e-08
2.6709e-07
2.32942e-08
2.67224e-07
2.23257e-08
2.67348e-07
2.14442e-08
2.67462e-07
2.0638e-08
2.67568e-07
1.98976e-08
2.67664e-07
1.92148e-08
2.67751e-07
1.85828e-08
2.67829e-07
1.7996e-08
2.67896e-07
1.74496e-08
2.67954e-07
1.69396e-08
2.68e-07
1.64628e-08
2.68036e-07
1.60164e-08
2.68061e-07
1.55982e-08
2.68075e-07
1.52067e-08
2.68077e-07
1.48406e-08
2.68067e-07
1.44989e-08
2.68045e-07
1.41811e-08
2.68011e-07
1.38869e-08
2.67964e-07
1.36167e-08
2.67904e-07
1.33705e-08
2.67831e-07
1.31499e-08
2.67744e-07
1.29551e-08
2.67644e-07
1.27897e-08
2.67529e-07
1.26532e-08
2.67399e-07
1.25529e-08
2.67254e-07
1.24851e-08
2.67093e-07
1.24635e-08
2.66916e-07
1.24784e-08
2.66724e-07
1.25493e-08
2.66512e-07
1.26598e-08
2.66286e-07
1.28223e-08
2.66039e-07
1.30243e-08
2.65769e-07
1.32202e-08
2.65476e-07
1.34305e-08
2.65115e-07
1.34607e-08
2.64672e-07
1.33994e-08
1.29999e-08
2.64e-07
2.66258e-07
4.38906e-08
2.69358e-07
6.51434e-08
2.70597e-07
5.13785e-08
2.71658e-07
4.37319e-08
2.72433e-07
4.09625e-08
2.7288e-07
3.76634e-08
2.73214e-07
3.43444e-08
2.73512e-07
3.18358e-08
2.73769e-07
2.98896e-08
2.73988e-07
2.82059e-08
2.74181e-07
2.67086e-08
2.74355e-07
2.53834e-08
2.74514e-07
2.42054e-08
2.74661e-07
2.31474e-08
2.74797e-07
2.21894e-08
2.74924e-07
2.1317e-08
2.75043e-07
2.0519e-08
2.75155e-07
1.97861e-08
2.75259e-07
1.91105e-08
2.75356e-07
1.84856e-08
2.75446e-07
1.79059e-08
2.75529e-07
1.73666e-08
2.75605e-07
1.68637e-08
2.75674e-07
1.63942e-08
2.75735e-07
1.59552e-08
2.75789e-07
1.55446e-08
2.75834e-07
1.51609e-08
2.75872e-07
1.48028e-08
2.75902e-07
1.44694e-08
2.75922e-07
1.41603e-08
2.75934e-07
1.38751e-08
2.75937e-07
1.36142e-08
2.75929e-07
1.33778e-08
2.75912e-07
1.31674e-08
2.75884e-07
1.29833e-08
2.75844e-07
1.2829e-08
2.75793e-07
1.27042e-08
2.75731e-07
1.26158e-08
2.75655e-07
1.2561e-08
2.75566e-07
1.25519e-08
2.75463e-07
1.25813e-08
2.75348e-07
1.26647e-08
2.75216e-07
1.27915e-08
2.75071e-07
1.29673e-08
2.74909e-07
1.31867e-08
2.74725e-07
1.34045e-08
2.74516e-07
1.36386e-08
2.74242e-07
1.37351e-08
2.73878e-07
1.37631e-08
1.35795e-08
2.73299e-07
2.74009e-07
3.99229e-08
2.77108e-07
6.20447e-08
2.78339e-07
5.01473e-08
2.79382e-07
4.2689e-08
2.80184e-07
4.01602e-08
2.80657e-07
3.71905e-08
2.80998e-07
3.40027e-08
2.81302e-07
3.15324e-08
2.81565e-07
2.96266e-08
2.81788e-07
2.79824e-08
2.81984e-07
2.6513e-08
2.8216e-07
2.52073e-08
2.82321e-07
2.40445e-08
2.82469e-07
2.29993e-08
2.82607e-07
2.20519e-08
2.82735e-07
2.11886e-08
2.82855e-07
2.03986e-08
2.82969e-07
1.96729e-08
2.83075e-07
1.90039e-08
2.83176e-07
1.83853e-08
2.8327e-07
1.78116e-08
2.83358e-07
1.72782e-08
2.83441e-07
1.67811e-08
2.83518e-07
1.63173e-08
2.83589e-07
1.5884e-08
2.83654e-07
1.54793e-08
2.83714e-07
1.51014e-08
2.83767e-07
1.47493e-08
2.83815e-07
1.44221e-08
2.83855e-07
1.41194e-08
2.83889e-07
1.3841e-08
2.83916e-07
1.35873e-08
2.83936e-07
1.33584e-08
2.83947e-07
1.31559e-08
2.8395e-07
1.29802e-08
2.83945e-07
1.28347e-08
2.83929e-07
1.27195e-08
2.83904e-07
1.26407e-08
2.83869e-07
1.25968e-08
2.83823e-07
1.25979e-08
2.83764e-07
1.26395e-08
2.83696e-07
1.27335e-08
2.83613e-07
1.28738e-08
2.83519e-07
1.30617e-08
2.8341e-07
1.32958e-08
2.83279e-07
1.3535e-08
2.83125e-07
1.37934e-08
2.82905e-07
1.3955e-08
2.82591e-07
1.40767e-08
1.40965e-08
2.82074e-07
2.82012e-07
3.62479e-08
2.85098e-07
5.8959e-08
2.86332e-07
4.8914e-08
2.87353e-07
4.16673e-08
2.88178e-07
3.93352e-08
2.88678e-07
3.66911e-08
2.89029e-07
3.36513e-08
2.89338e-07
3.12237e-08
2.89607e-07
2.93577e-08
2.89835e-07
2.77542e-08
2.90034e-07
2.63142e-08
2.90212e-07
2.50288e-08
2.90375e-07
2.38818e-08
2.90524e-07
2.28497e-08
2.90663e-07
2.19133e-08
2.90792e-07
2.10593e-08
2.90913e-07
2.02774e-08
2.91027e-07
1.95589e-08
2.91135e-07
1.88966e-08
2.91236e-07
1.82841e-08
2.91331e-07
1.77162e-08
2.91421e-07
1.71883e-08
2.91506e-07
1.66966e-08
2.91585e-07
1.62379e-08
2.91659e-07
1.58097e-08
2.91729e-07
1.54099e-08
2.91793e-07
1.5037e-08
2.91853e-07
1.469e-08
2.91907e-07
1.43679e-08
2.91956e-07
1.40706e-08
2.91999e-07
1.37977e-08
2.92036e-07
1.35498e-08
2.92068e-07
1.33271e-08
2.92092e-07
1.31312e-08
2.9211e-07
1.29626e-08
2.9212e-07
1.28245e-08
2.92122e-07
1.27173e-08
2.92116e-07
1.26467e-08
2.92101e-07
1.26119e-08
2.92077e-07
1.26218e-08
2.92043e-07
1.26738e-08
2.92e-07
1.27771e-08
2.91945e-07
1.29288e-08
2.91878e-07
1.31279e-08
2.91799e-07
1.3375e-08
2.91699e-07
1.36354e-08
2.91573e-07
1.39193e-08
2.91383e-07
1.41448e-08
2.91097e-07
1.43628e-08
1.45743e-08
2.90619e-07
2.90278e-07
3.28587e-08
2.93339e-07
5.58979e-08
2.94583e-07
4.76696e-08
2.95582e-07
4.06685e-08
2.96425e-07
3.84925e-08
2.96952e-07
3.61644e-08
2.97314e-07
3.3289e-08
2.97628e-07
3.09098e-08
2.97903e-07
2.90829e-08
2.98136e-07
2.75207e-08
2.98338e-07
2.61119e-08
2.98519e-07
2.48478e-08
2.98684e-07
2.37172e-08
2.98835e-07
2.26986e-08
2.98975e-07
2.17735e-08
2.99105e-07
2.09291e-08
2.99227e-07
2.01555e-08
2.99342e-07
1.94445e-08
2.99449e-07
1.87888e-08
2.99551e-07
1.81826e-08
2.99647e-07
1.76205e-08
2.99737e-07
1.70981e-08
2.99822e-07
1.66116e-08
2.99902e-07
1.61579e-08
2.99977e-07
1.57346e-08
3.00047e-07
1.53395e-08
3.00113e-07
1.49714e-08
3.00174e-07
1.4629e-08
3.0023e-07
1.43117e-08
3.00282e-07
1.40192e-08
3.00328e-07
1.37513e-08
3.00369e-07
1.35087e-08
3.00405e-07
1.32916e-08
3.00434e-07
1.31015e-08
3.00458e-07
1.29392e-08
3.00474e-07
1.28077e-08
3.00484e-07
1.27077e-08
3.00486e-07
1.26444e-08
3.0048e-07
1.26179e-08
3.00466e-07
1.26357e-08
3.00443e-07
1.26969e-08
3.00412e-07
1.28088e-08
3.0037e-07
1.29706e-08
3.00317e-07
1.31805e-08
3.00252e-07
1.34399e-08
3.00166e-07
1.37217e-08
3.00053e-07
1.40327e-08
2.99876e-07
1.43213e-08
2.99603e-07
1.46365e-08
1.50281e-08
2.99149e-07
2.98815e-07
2.97464e-08
3.01839e-07
5.28734e-08
3.03103e-07
4.64063e-08
3.04078e-07
3.96936e-08
3.04932e-07
3.76377e-08
3.05487e-07
3.56099e-08
3.05862e-07
3.29141e-08
3.06181e-07
3.05908e-08
3.06462e-07
2.88021e-08
3.067e-07
2.72818e-08
3.06907e-07
2.59058e-08
3.0709e-07
2.4664e-08
3.07257e-07
2.35503e-08
3.0741e-07
2.25456e-08
3.07551e-07
2.16323e-08
3.07683e-07
2.07979e-08
3.07805e-07
2.00328e-08
3.0792e-07
1.93294e-08
3.08029e-07
1.86806e-08
3.08131e-07
1.80808e-08
3.08226e-07
1.75246e-08
3.08317e-07
1.70078e-08
3.08402e-07
1.65266e-08
3.08482e-07
1.6078e-08
3.08557e-07
1.56595e-08
3.08627e-07
1.52692e-08
3.08693e-07
1.49056e-08
3.08754e-07
1.45678e-08
3.0881e-07
1.42551e-08
3.08862e-07
1.39673e-08
3.08909e-07
1.37044e-08
3.08951e-07
1.34668e-08
3.08988e-07
1.3255e-08
3.09019e-07
1.30706e-08
3.09044e-07
1.29142e-08
3.09062e-07
1.2789e-08
3.09074e-07
1.26958e-08
3.09079e-07
1.26394e-08
3.09077e-07
1.26205e-08
3.09067e-07
1.26458e-08
3.09048e-07
1.27155e-08
3.09021e-07
1.28357e-08
3.08985e-07
1.30068e-08
3.08938e-07
1.32276e-08
3.08879e-07
1.34993e-08
3.08798e-07
1.38027e-08
3.08687e-07
1.41429e-08
3.08515e-07
1.44936e-08
3.08246e-07
1.49056e-08
1.54657e-08
3.07808e-07
3.07633e-07
2.69005e-08
3.10609e-07
4.98977e-08
3.11898e-07
4.51173e-08
3.12849e-07
3.87424e-08
3.13711e-07
3.67762e-08
3.14293e-07
3.50279e-08
3.14682e-07
3.25253e-08
3.15006e-07
3.02662e-08
3.15293e-07
2.85156e-08
3.15537e-07
2.70372e-08
3.15748e-07
2.56954e-08
3.15935e-07
2.44773e-08
3.16104e-07
2.3381e-08
3.16259e-07
2.23908e-08
3.16401e-07
2.14896e-08
3.16534e-07
2.06653e-08
3.16658e-07
1.99091e-08
3.16773e-07
1.92135e-08
3.16882e-07
1.85719e-08
3.16984e-07
1.79785e-08
3.17081e-07
1.74284e-08
3.17171e-07
1.69174e-08
3.17256e-07
1.64416e-08
3.17336e-07
1.59982e-08
3.17411e-07
1.55846e-08
3.17481e-07
1.51991e-08
3.17546e-07
1.48401e-08
3.17607e-07
1.45069e-08
3.17664e-07
1.41989e-08
3.17715e-07
1.39158e-08
3.17762e-07
1.36577e-08
3.17803e-07
1.34251e-08
3.1784e-07
1.32186e-08
3.17871e-07
1.30397e-08
3.17896e-07
1.28892e-08
3.17915e-07
1.27701e-08
3.17927e-07
1.26835e-08
3.17933e-07
1.26338e-08
3.17931e-07
1.26224e-08
3.17922e-07
1.26549e-08
3.17904e-07
1.27328e-08
3.17879e-07
1.28611e-08
3.17844e-07
1.30413e-08
3.17799e-07
1.3273e-08
3.17741e-07
1.35574e-08
3.1766e-07
1.3883e-08
3.17549e-07
1.42541e-08
3.17377e-07
1.46661e-08
3.1711e-07
1.51726e-08
1.58891e-08
3.16686e-07
3.16743e-07
2.43088e-08
3.19658e-07
4.69827e-08
3.20978e-07
4.37973e-08
3.21906e-07
3.78139e-08
3.22769e-07
3.5913e-08
3.23378e-07
3.44195e-08
3.23782e-07
3.21208e-08
3.24113e-07
2.99356e-08
3.24405e-07
2.82232e-08
3.24656e-07
2.67866e-08
3.24871e-07
2.54805e-08
3.25061e-07
2.42873e-08
3.25233e-07
2.32092e-08
3.2539e-07
2.22337e-08
3.25534e-07
2.1345e-08
3.25668e-07
2.05314e-08
3.25793e-07
1.97843e-08
3.2591e-07
1.90968e-08
3.26019e-07
1.84624e-08
3.26122e-07
1.78758e-08
3.26218e-07
1.73319e-08
3.26309e-07
1.68267e-08
3.26394e-07
1.63565e-08
3.26474e-07
1.59183e-08
3.26549e-07
1.55098e-08
3.26619e-07
1.51291e-08
3.26684e-07
1.47749e-08
3.26745e-07
1.44464e-08
3.268e-07
1.4143e-08
3.26852e-07
1.38647e-08
3.26898e-07
1.36114e-08
3.26939e-07
1.33839e-08
3.26975e-07
1.31827e-08
3.27005e-07
1.30092e-08
3.2703e-07
1.28647e-08
3.27048e-07
1.27516e-08
3.2706e-07
1.26715e-08
3.27066e-07
1.26285e-08
3.27064e-07
1.26243e-08
3.27055e-07
1.26641e-08
3.27037e-07
1.27499e-08
3.27012e-07
1.28864e-08
3.26978e-07
1.30756e-08
3.26932e-07
1.33184e-08
3.26874e-07
1.36161e-08
3.26793e-07
1.39642e-08
3.26679e-07
1.43675e-08
3.26506e-07
1.48393e-08
3.26242e-07
1.5437e-08
1.62966e-08
3.25834e-07
3.26153e-07
2.19581e-08
3.28996e-07
4.41402e-08
3.30351e-07
4.24425e-08
3.31258e-07
3.69062e-08
3.32118e-07
3.5053e-08
3.32751e-07
3.37864e-08
3.33173e-07
3.16991e-08
3.3351e-07
2.95986e-08
3.33808e-07
2.79253e-08
3.34065e-07
2.65299e-08
3.34285e-07
2.52606e-08
3.34478e-07
2.40937e-08
3.34653e-07
2.30345e-08
3.34812e-07
2.20743e-08
3.34959e-07
2.11985e-08
3.35094e-07
2.03958e-08
3.35221e-07
1.96582e-08
3.35338e-07
1.8979e-08
3.35449e-07
1.83521e-08
3.35552e-07
1.77724e-08
3.35649e-07
1.72349e-08
3.3574e-07
1.67357e-08
3.35825e-07
1.62712e-08
3.35905e-07
1.58384e-08
3.3598e-07
1.5435e-08
3.3605e-07
1.50592e-08
3.36115e-07
1.47099e-08
3.36175e-07
1.43861e-08
3.36231e-07
1.40874e-08
3.36282e-07
1.38139e-08
3.36328e-07
1.35656e-08