/*--------------------------------*- C++ -*----------------------------------*\
  =========                 |
  \\      /  F ield         | OpenFOAM: The Open Source CFD Toolbox
   \\    /   O peration     | Website:  https://openfoam.org
    \\  /    A nd           | Version:  7
     \\/     M anipulation  |
\*---------------------------------------------------------------------------*/
FoamFile
{
    version     2.0;
    format      ascii;
    class       volVectorField;
    location    "0.36";
    object      U;
}
// * * * * * * * * * * * * * * * * * * * * * * * * * * * * * * * * * * * * * //

dimensions      [0 1 -1 0 0 0 0];

internalField   nonuniform List<vector> 
70000
(
(0.55339 0.0167231 0)
(0.251254 0.00340113 0)
(0.166186 0.000322123 0)
(0.132429 5.43698e-05 0)
(0.117229 4.5805e-05 0)
(0.107297 5.39783e-05 0)
(0.0993425 4.63435e-05 0)
(0.0928968 3.70057e-05 0)
(0.0876469 3.06964e-05 0)
(0.0832722 2.63774e-05 0)
(0.0795439 2.30908e-05 0)
(0.0763136 2.04626e-05 0)
(0.0734797 1.83234e-05 0)
(0.070968 1.65597e-05 0)
(0.0687223 1.50878e-05 0)
(0.0666989 1.38458e-05 0)
(0.0648637 1.27874e-05 0)
(0.063189 1.18783e-05 0)
(0.0616529 1.10915e-05 0)
(0.060237 1.04069e-05 0)
(0.0589262 9.80808e-06 0)
(0.0577078 9.28282e-06 0)
(0.0565709 8.82088e-06 0)
(0.0555064 8.41488e-06 0)
(0.0545062 8.05804e-06 0)
(0.0535634 7.74654e-06 0)
(0.0526717 7.47512e-06 0)
(0.0518256 7.24292e-06 0)
(0.0510202 7.04468e-06 0)
(0.050251 6.88336e-06 0)
(0.0495138 6.75041e-06 0)
(0.0488046 6.65748e-06 0)
(0.0481201 6.58336e-06 0)
(0.047456 6.55994e-06 0)
(0.0468098 6.53596e-06 0)
(0.0461769 6.58247e-06 0)
(0.0455551 6.59184e-06 0)
(0.0449401 6.69096e-06 0)
(0.0443285 6.70586e-06 0)
(0.0437204 6.76503e-06 0)
(0.0431033 6.77224e-06 0)
(0.0425 6.43155e-06 0)
(0.0418576 6.56002e-06 0)
(0.041286 4.63018e-06 0)
(0.0405889 5.57426e-06 0)
(0.0401613 -1.48337e-06 0)
(0.0393658 2.47528e-06 0)
(0.039394 -1.90982e-05 0)
(0.0387289 -4.49292e-06 0)
(0.0368471 -0.00147723 0)
(0.884899 0.0431677 0)
(0.649705 0.020195 0)
(0.494287 0.00659955 0)
(0.403606 0.00276886 0)
(0.354658 0.00155318 0)
(0.323337 0.00113269 0)
(0.299462 0.000911425 0)
(0.280253 0.000747518 0)
(0.264527 0.000624741 0)
(0.251393 0.000534132 0)
(0.240197 0.000465438 0)
(0.230497 0.000411465 0)
(0.221987 0.00036793 0)
(0.214443 0.000332165 0)
(0.207697 0.000302358 0)
(0.201617 0.000277211 0)
(0.196103 0.000255768 0)
(0.191071 0.000237316 0)
(0.186456 0.000221311 0)
(0.182203 0.000207333 0)
(0.178267 0.000195056 0)
(0.17461 0.000184223 0)
(0.171199 0.000174628 0)
(0.168007 0.000166108 0)
(0.165011 0.000158532 0)
(0.162188 0.000151794 0)
(0.159523 0.000145809 0)
(0.156997 0.000140512 0)
(0.154597 0.000135847 0)
(0.152309 0.000131783 0)
(0.150121 0.000128282 0)
(0.148023 0.000125358 0)
(0.146003 0.000122957 0)
(0.14405 0.000121173 0)
(0.142157 0.00011988 0)
(0.140311 0.000119335 0)
(0.138504 0.000119195 0)
(0.136724 0.000120061 0)
(0.13496 0.000121079 0)
(0.133209 0.0001235 0)
(0.131434 0.000125478 0)
(0.12969 0.000129157 0)
(0.127827 0.000131334 0)
(0.126123 0.00013412 0)
(0.124039 0.000134329 0)
(0.122584 0.000127447 0)
(0.120046 0.000121513 0)
(0.119449 5.37295e-05 0)
(0.116694 0.00017984 0)
(0.11458 -0.00258273 0)
(0.991238 0.0499021 0)
(0.89034 0.0307209 0)
(0.762651 0.0146009 0)
(0.656607 0.00798307 0)
(0.585249 0.00488806 0)
(0.535817 0.00347401 0)
(0.497929 0.00273828 0)
(0.467292 0.00224594 0)
(0.44196 0.00188298 0)
(0.420632 0.00161177 0)
(0.402357 0.00140487 0)
(0.386467 0.00124227 0)
(0.372485 0.00111118 0)
(0.360061 0.00100348 0)
(0.348928 0.000913662 0)
(0.33888 0.000837833 0)
(0.329752 0.000773122 0)
(0.321415 0.000717384 0)
(0.313761 0.000668987 0)
(0.306701 0.000626672 0)
(0.300164 0.000589456 0)
(0.294088 0.000556563 0)
(0.288419 0.000527376 0)
(0.283114 0.000501398 0)
(0.278134 0.000478227 0)
(0.273445 0.000457541 0)
(0.269018 0.000439076 0)
(0.264825 0.000422627 0)
(0.260845 0.000408025 0)
(0.257055 0.000395155 0)
(0.253437 0.000383915 0)
(0.249972 0.000374294 0)
(0.246644 0.0003662 0)
(0.243436 0.00035979 0)
(0.240335 0.000354864 0)
(0.23732 0.000351934 0)
(0.234383 0.000350375 0)
(0.231501 0.000351531 0)
(0.22866 0.000353534 0)
(0.225852 0.000359692 0)
(0.223023 0.000364993 0)
(0.220246 0.000377008 0)
(0.217303 0.000383655 0)
(0.21458 0.000400514 0)
(0.211303 0.000401829 0)
(0.20887 0.000412275 0)
(0.204874 0.000395589 0)
(0.203411 0.000294114 0)
(0.19879 0.000437797 0)
(0.197085 -0.00260454 0)
(1.0156 0.0489212 0)
(1.00596 0.0358782 0)
(0.935926 0.0207971 0)
(0.852062 0.0135105 0)
(0.782084 0.00921372 0)
(0.726851 0.00678643 0)
(0.681742 0.00538809 0)
(0.643964 0.00444868 0)
(0.611928 0.00375516 0)
(0.584441 0.00322996 0)
(0.560564 0.00282463 0)
(0.539589 0.00250391 0)
(0.520984 0.00224421 0)
(0.504344 0.00203008 0)
(0.489354 0.00185095 0)
(0.475765 0.0016993 0)
(0.463375 0.00156956 0)
(0.452022 0.00145756 0)
(0.44157 0.00136011 0)
(0.43191 0.00127473 0)
(0.422946 0.00119949 0)
(0.414599 0.00113287 0)
(0.406803 0.00107362 0)
(0.399498 0.00102076 0)
(0.392634 0.000973498 0)
(0.386166 0.000931169 0)
(0.380056 0.000893245 0)
(0.374269 0.000859299 0)
(0.368775 0.000828992 0)
(0.363545 0.000802065 0)
(0.358555 0.000778321 0)
(0.353779 0.000757678 0)
(0.349199 0.000740002 0)
(0.34479 0.000725474 0)
(0.340537 0.000713849 0)
(0.336415 0.000705876 0)
(0.332409 0.000700668 0)
(0.328495 0.000700418 0)
(0.324652 0.000702078 0)
(0.320871 0.000711614 0)
(0.317088 0.000719843 0)
(0.31338 0.000742064 0)
(0.309501 0.000753444 0)
(0.305875 0.0007904 0)
(0.301634 0.000792827 0)
(0.298303 0.000833334 0)
(0.293264 0.00080599 0)
(0.290825 0.000692588 0)
(0.285015 0.000789077 0)
(0.282907 -0.00214646 0)
(1.01434 0.0460048 0)
(1.04753 0.0374926 0)
(1.02456 0.024159 0)
(0.974709 0.0175681 0)
(0.923357 0.0131312 0)
(0.876545 0.0102138 0)
(0.83435 0.00834909 0)
(0.796577 0.00702723 0)
(0.762995 0.00601727 0)
(0.733164 0.00523027 0)
(0.706566 0.00460932 0)
(0.682729 0.00411014 0)
(0.66125 0.0037012 0)
(0.641795 0.00336091 0)
(0.624086 0.0030741 0)
(0.607891 0.00282974 0)
(0.593018 0.00261957 0)
(0.579303 0.00243729 0)
(0.566611 0.00227802 0)
(0.554824 0.00213799 0)
(0.543843 0.00201416 0)
(0.533583 0.00190416 0)
(0.523969 0.00180605 0)
(0.514937 0.00171826 0)
(0.50643 0.00163951 0)
(0.498399 0.00156875 0)
(0.490799 0.00150513 0)
(0.48359 0.00144794 0)
(0.476738 0.00139664 0)
(0.47021 0.00135077 0)
(0.463977 0.00131001 0)
(0.458011 0.00127419 0)
(0.45229 0.0012431 0)
(0.446785 0.00121694 0)
(0.441478 0.0011954 0)
(0.436342 0.00117946 0)
(0.43136 0.00116799 0)
(0.426503 0.00116403 0)
(0.421751 0.00116336 0)
(0.417088 0.00117476 0)
(0.412451 0.00118464 0)
(0.407909 0.00121666 0)
(0.403224 0.00123246 0)
(0.398789 0.00129063 0)
(0.393787 0.00129602 0)
(0.389618 0.00136812 0)
(0.383904 0.00133815 0)
(0.380429 0.00121808 0)
(0.374084 0.00125631 0)
(0.370862 -0.00151586 0)
(1.00933 0.0429162 0)
(1.05527 0.0372683 0)
(1.05868 0.0253045 0)
(1.03633 0.0197701 0)
(1.00703 0.0158231 0)
(0.97594 0.0129466 0)
(0.944374 0.0109691 0)
(0.913472 0.00948582 0)
(0.884089 0.00829496 0)
(0.856607 0.00732749 0)
(0.831105 0.00653859 0)
(0.807514 0.00588805 0)
(0.785712 0.00534438 0)
(0.765552 0.00488468 0)
(0.746884 0.00449212 0)
(0.729567 0.00415399 0)
(0.713468 0.00386045 0)
(0.698469 0.00360383 0)
(0.684462 0.00337807 0)
(0.671352 0.00317835 0)
(0.659055 0.00300079 0)
(0.647496 0.00284228 0)
(0.636607 0.00270026 0)
(0.626328 0.00257264 0)
(0.616607 0.00245771 0)
(0.607395 0.00235402 0)
(0.598649 0.00226042 0)
(0.590329 0.00217593 0)
(0.5824 0.00209977 0)
(0.574829 0.00203131 0)
(0.567588 0.0019701 0)
(0.560645 0.00191585 0)
(0.553978 0.0018683 0)
(0.547559 0.00182761 0)
(0.541367 0.00179347 0)
(0.535374 0.00176703 0)
(0.529563 0.00174697 0)
(0.523903 0.00173711 0)
(0.518375 0.00173221 0)
(0.512955 0.00174357 0)
(0.507594 0.00175383 0)
(0.502333 0.00179391 0)
(0.496979 0.00181419 0)
(0.491841 0.00189108 0)
(0.486252 0.00190341 0)
(0.481323 0.00200052 0)
(0.475188 0.00198066 0)
(0.470726 0.00184721 0)
(0.464192 0.00183866 0)
(0.459779 -0.000759801 0)
(1.00625 0.0400348 0)
(1.05206 0.0363412 0)
(1.06608 0.0252346 0)
(1.05957 0.0205716 0)
(1.04682 0.0172523 0)
(1.0307 0.0146694 0)
(1.01176 0.0128318 0)
(0.991039 0.0114053 0)
(0.969591 0.0102078 0)
(0.948153 0.009192 0)
(0.927169 0.00833258 0)
(0.9069 0.00760168 0)
(0.887489 0.00697483 0)
(0.869002 0.0064331 0)
(0.851454 0.00596188 0)
(0.834831 0.00554957 0)
(0.819097 0.00518681 0)
(0.80421 0.00486596 0)
(0.790119 0.00458082 0)
(0.776775 0.00432631 0)
(0.764128 0.00409825 0)
(0.75213 0.0038932 0)
(0.740735 0.00370831 0)
(0.729901 0.00354119 0)
(0.719588 0.00338987 0)
(0.709757 0.00325266 0)
(0.700374 0.00312819 0)
(0.691405 0.00301528 0)
(0.682822 0.00291302 0)
(0.674595 0.00282062 0)
(0.666699 0.00273754 0)
(0.659105 0.00266339 0)
(0.651794 0.0025979 0)
(0.644738 0.00254121 0)
(0.637919 0.00249302 0)
(0.631308 0.00245461 0)
(0.624892 0.0024246 0)
(0.618637 0.0024074 0)
(0.61253 0.0023971 0)
(0.606539 0.0024069 0)
(0.600631 0.00241687 0)
(0.594818 0.00246296 0)
(0.588964 0.00248851 0)
(0.583272 0.00258014 0)
(0.577266 0.00260429 0)
(0.571722 0.00271761 0)
(0.565333 0.00271871 0)
(0.560069 0.0025682 0)
(0.553444 0.00251778 0)
(0.548099 0.000131083 0)
(1.00495 0.037357 0)
(1.04727 0.0352594 0)
(1.06397 0.0246953 0)
(1.06423 0.0205992 0)
(1.06064 0.0177922 0)
(1.05467 0.0155148 0)
(1.04588 0.0138924 0)
(1.03464 0.0126309 0)
(1.02169 0.0115441 0)
(1.00762 0.0105912 0)
(0.9929 0.00975911 0)
(0.977878 0.00903064 0)
(0.962819 0.00838907 0)
(0.947914 0.00782121 0)
(0.933297 0.00731667 0)
(0.919055 0.00686686 0)
(0.905245 0.0064645 0)
(0.891898 0.00610339 0)
(0.879031 0.00577828 0)
(0.866645 0.00548472 0)
(0.854736 0.00521893 0)
(0.843291 0.00497773 0)
(0.832298 0.0047584 0)
(0.821736 0.00455864 0)
(0.811588 0.00437649 0)
(0.801834 0.00421028 0)
(0.792453 0.00405859 0)
(0.783424 0.00392022 0)
(0.774729 0.00379422 0)
(0.766347 0.00367976 0)
(0.758259 0.00357629 0)
(0.750445 0.0034834 0)
(0.742888 0.00340084 0)
(0.735567 0.00332878 0)
(0.728468 0.00326699 0)
(0.721564 0.00321687 0)
(0.714846 0.00317708 0)
(0.708282 0.00315246 0)
(0.701864 0.00313683 0)
(0.695556 0.00314455 0)
(0.68934 0.00315455 0)
(0.683205 0.00320521 0)
(0.677066 0.00323749 0)
(0.671035 0.00334031 0)
(0.664803 0.00338062 0)
(0.658864 0.00350361 0)
(0.652366 0.00353141 0)
(0.646576 0.00336766 0)
(0.639914 0.00327757 0)
(0.633942 0.00112871 0)
(1.0044 0.0348091 0)
(1.04323 0.0341865 0)
(1.05993 0.0240548 0)
(1.06227 0.0203064 0)
(1.06246 0.0178577 0)
(1.06174 0.0157984 0)
(1.05913 0.0143499 0)
(1.05455 0.0132541 0)
(1.04829 0.0123097 0)
(1.04068 0.0114688 0)
(1.03199 0.0107209 0)
(1.0225 0.0100531 0)
(1.01242 0.00945257 0)
(1.00194 0.00890997 0)
(0.991244 0.00841825 0)
(0.980441 0.00797169 0)
(0.969638 0.00756536 0)
(0.958911 0.00719494 0)
(0.948319 0.00685663 0)
(0.937906 0.00654714 0)
(0.927703 0.00626356 0)
(0.917732 0.00600339 0)
(0.908006 0.00576446 0)
(0.898534 0.00554486 0)
(0.889319 0.00534296 0)
(0.880361 0.00515732 0)
(0.871657 0.00498673 0)
(0.863202 0.0048301 0)
(0.854988 0.00468663 0)
(0.847007 0.00455557 0)
(0.83925 0.00443648 0)
(0.831706 0.004329 0)
(0.824366 0.00423301 0)
(0.817214 0.00414873 0)
(0.810243 0.00407611 0)
(0.803432 0.00401665 0)
(0.796777 0.00396919 0)
(0.790248 0.00393882 0)
(0.783844 0.00391951 0)
(0.77753 0.00392608 0)
(0.7713 0.00393761 0)
(0.765126 0.0039927 0)
(0.758966 0.0040337 0)
(0.752866 0.00414576 0)
(0.746638 0.00420545 0)
(0.740578 0.00433513 0)
(0.734152 0.00439134 0)
(0.728141 0.00422333 0)
(0.72156 0.00409895 0)
(0.715254 0.00218515 0)
(1.00402 0.0323691 0)
(1.03991 0.0331367 0)
(1.05615 0.0234324 0)
(1.0589 0.0199192 0)
(1.06018 0.0177289 0)
(1.06151 0.0158048 0)
(1.06185 0.014458 0)
(1.06092 0.0134775 0)
(1.05882 0.0126494 0)
(1.05566 0.0119144 0)
(1.05153 0.0112594 0)
(1.04654 0.0106713 0)
(1.04083 0.0101374 0)
(1.03452 0.00964904 0)
(1.02772 0.00920045 0)
(1.02054 0.0087873 0)
(1.01309 0.00840605 0)
(1.00543 0.0080537 0)
(0.997642 0.00772765 0)
(0.989778 0.0074256 0)
(0.981889 0.00714556 0)
(0.974012 0.00688579 0)
(0.966181 0.00664474 0)
(0.95842 0.00642108 0)
(0.950749 0.00621361 0)
(0.943184 0.00602129 0)
(0.935736 0.00584325 0)
(0.928412 0.00567868 0)
(0.921218 0.00552701 0)
(0.914156 0.00538769 0)
(0.907226 0.00526048 0)
(0.900427 0.00514518 0)
(0.893757 0.00504185 0)
(0.887209 0.00495085 0)
(0.880782 0.00487233 0)
(0.874461 0.00480796 0)
(0.868247 0.00475682 0)
(0.862118 0.00472419 0)
(0.856076 0.00470443 0)
(0.85009 0.00471236 0)
(0.844163 0.00472812 0)
(0.838264 0.00478895 0)
(0.832371 0.00484119 0)
(0.826499 0.00496236 0)
(0.820535 0.00504386 0)
(0.814651 0.00518016 0)
(0.808518 0.00526465 0)
(0.802595 0.00510343 0)
(0.796276 0.00495304 0)
(0.789936 0.00327284 0)
(1.00364 0.0300288 0)
(1.03692 0.0320895 0)
(1.05281 0.0228432 0)
(1.05567 0.019515 0)
(1.05709 0.0175384 0)
(1.05897 0.0157067 0)
(1.06038 0.0144079 0)
(1.06104 0.013491 0)
(1.06101 0.0127368 0)
(1.06031 0.0120761 0)
(1.05897 0.0114934 0)
(1.05698 0.0109741 0)
(1.05438 0.0105042 0)
(1.05123 0.010074 0)
(1.04759 0.00967734 0)
(1.0435 0.00930977 0)
(1.03904 0.00896805 0)
(1.03425 0.00864957 0)
(1.0292 0.00835218 0)
(1.02392 0.00807413 0)
(1.01847 0.00781393 0)
(1.01289 0.00757034 0)
(1.0072 0.00734229 0)
(1.00144 0.00712888 0)
(0.995632 0.00692933 0)
(0.989802 0.00674298 0)
(0.983967 0.00656926 0)
(0.978142 0.00640771 0)
(0.972339 0.006258 0)
(0.966569 0.00611986 0)
(0.960838 0.00599325 0)
(0.955153 0.00587819 0)
(0.949517 0.00577495 0)
(0.94393 0.0056841 0)
(0.938395 0.00560599 0)
(0.932907 0.00554249 0)
(0.927467 0.00549298 0)
(0.922063 0.00546285 0)
(0.916698 0.00544702 0)
(0.91135 0.00546004 0)
(0.906023 0.00548361 0)
(0.900693 0.00555271 0)
(0.895347 0.00561914 0)
(0.889988 0.00575066 0)
(0.884547 0.005856 0)
(0.87912 0.00600079 0)
(0.873513 0.00611289 0)
(0.86797 0.00596979 0)
(0.862119 0.00580555 0)
(0.856032 0.00435231 0)
(1.00327 0.0277891 0)
(1.03409 0.0310311 0)
(1.0497 0.0222806 0)
(1.0527 0.0191088 0)
(1.05409 0.017329 0)
(1.05602 0.0155795 0)
(1.05771 0.0143032 0)
(1.05889 0.013417 0)
(1.05967 0.0127038 0)
(1.06009 0.0120868 0)
(1.06013 0.0115491 0)
(1.05978 0.0110762 0)
(1.05903 0.0106532 0)
(1.05789 0.0102691 0)
(1.05636 0.00991681 0)
(1.05447 0.00959139 0)
(1.05225 0.00928912 0)
(1.04971 0.00900713 0)
(1.04688 0.00874319 0)
(1.0438 0.00849554 0)
(1.0405 0.00826276 0)
(1.03699 0.00804374 0)
(1.03331 0.00783761 0)
(1.02948 0.00764365 0)
(1.02553 0.0074613 0)
(1.02147 0.00729013 0)
(1.01732 0.00712982 0)
(1.0131 0.0069801 0)
(1.00883 0.00684089 0)
(1.00451 0.00671211 0)
(1.00015 0.00659394 0)
(0.995772 0.0064866 0)
(0.991373 0.00639054 0)
(0.986959 0.00630654 0)
(0.982535 0.00623514 0)
(0.978102 0.00617843 0)
(0.973663 0.00613603 0)
(0.969212 0.00611349 0)
(0.964753 0.00610628 0)
(0.960272 0.00612853 0)
(0.955772 0.00616379 0)
(0.951238 0.00624414 0)
(0.946662 0.00632777 0)
(0.942042 0.0064716 0)
(0.93734 0.00660231 0)
(0.932601 0.00675853 0)
(0.92772 0.00689746 0)
(0.922796 0.00678308 0)
(0.917602 0.00661923 0)
(0.912018 0.00538504 0)
(1.00292 0.0256535 0)
(1.03138 0.029957 0)
(1.04669 0.0217401 0)
(1.04991 0.0187005 0)
(1.05128 0.0171077 0)
(1.05317 0.0154452 0)
(1.05489 0.0141849 0)
(1.05619 0.0133147 0)
(1.0572 0.012625 0)
(1.05801 0.0120321 0)
(1.05861 0.0115191 0)
(1.059 0.0110727 0)
(1.05916 0.0106781 0)
(1.05908 0.0103238 0)
(1.05875 0.0100021 0)
(1.05819 0.00970753 0)
(1.05738 0.00943593 0)
(1.05633 0.00918403 0)
(1.05506 0.00894929 0)
(1.05357 0.00872967 0)
(1.05187 0.0085236 0)
(1.04998 0.00832985 0)
(1.04791 0.00814746 0)
(1.04568 0.00797572 0)
(1.0433 0.00781409 0)
(1.04078 0.00766218 0)
(1.03815 0.00751977 0)
(1.0354 0.0073867 0)
(1.03255 0.007263 0)
(1.02962 0.00714871 0)
(1.02661 0.00704416 0)
(1.02352 0.0069497 0)
(1.02038 0.00686592 0)
(1.01717 0.00679378 0)
(1.01391 0.00673394 0)
(1.0106 0.00668872 0)
(1.00724 0.0066579 0)
(1.00384 0.00664716 0)
(1.00039 0.00665252 0)
(0.996884 0.00668752 0)
(0.993329 0.00673777 0)
(0.989714 0.00683203 0)
(0.986036 0.00693523 0)
(0.982289 0.0070933 0)
(0.978456 0.00725008 0)
(0.974549 0.00742084 0)
(0.970521 0.00758567 0)
(0.966377 0.00750893 0)
(0.961971 0.00736051 0)
(0.957066 0.00633656 0)
(1.0026 0.0236245 0)
(1.02879 0.028866 0)
(1.04378 0.0212205 0)
(1.04722 0.0182902 0)
(1.04859 0.0168728 0)
(1.05045 0.0153065 0)
(1.05216 0.0140641 0)
(1.05347 0.0132053 0)
(1.05452 0.0125323 0)
(1.05542 0.0119547 0)
(1.0562 0.0114554 0)
(1.05685 0.0110233 0)
(1.05737 0.0106441 0)
(1.05776 0.0103066 0)
(1.05801 0.0100029 0)
(1.05811 0.00972745 0)
(1.05807 0.00947577 0)
(1.05787 0.00924443 0)
(1.05752 0.00903061 0)
(1.05702 0.00883208 0)
(1.05637 0.00864703 0)
(1.05557 0.00847404 0)
(1.05462 0.00831201 0)
(1.05353 0.0081601 0)
(1.05231 0.00801769 0)
(1.05097 0.00788434 0)
(1.04951 0.0077598 0)
(1.04793 0.00764393 0)
(1.04625 0.00753677 0)
(1.04448 0.00743843 0)
(1.0426 0.00734927 0)
(1.04065 0.00726974 0)
(1.0386 0.00720049 0)
(1.03649 0.00714261 0)
(1.03429 0.00709683 0)
(1.03202 0.00706561 0)
(1.02969 0.0070489 0)
(1.02728 0.00705239 0)
(1.02481 0.00707267 0)
(1.02226 0.00712252 0)
(1.01965 0.00718969 0)
(1.01696 0.0072994 0)
(1.01419 0.00742331 0)
(1.01134 0.00759682 0)
(1.0084 0.00777918 0)
(1.00537 0.007967 0)
(1.00223 0.00815654 0)
(0.998921 0.00812397 0)
(0.99535 0.00800532 0)
(0.99121 0.00718274 0)
(1.0023 0.021704 0)
(1.02634 0.0277588 0)
(1.04095 0.0207203 0)
(1.04462 0.0178794 0)
(1.04601 0.0166233 0)
(1.04783 0.0151617 0)
(1.04954 0.0139419 0)
(1.05084 0.0130936 0)
(1.05188 0.0124356 0)
(1.05279 0.0118708 0)
(1.0536 0.0113811 0)
(1.05431 0.0109575 0)
(1.05495 0.010587 0)
(1.0555 0.0102587 0)
(1.05597 0.00996482 0)
(1.05636 0.00969992 0)
(1.05667 0.00945966 0)
(1.05689 0.00924054 0)
(1.05701 0.00903969 0)
(1.05704 0.00885475 0)
(1.05697 0.00868381 0)
(1.0568 0.00852532 0)
(1.05653 0.00837804 0)
(1.05616 0.00824102 0)
(1.05569 0.00811355 0)
(1.05513 0.0079951 0)
(1.05447 0.00788538 0)
(1.05372 0.00778419 0)
(1.05288 0.00769157 0)
(1.05195 0.00760763 0)
(1.05093 0.00753272 0)
(1.04984 0.00746735 0)
(1.04866 0.00741218 0)
(1.0474 0.00736836 0)
(1.04607 0.00733666 0)
(1.04466 0.00731965 0)
(1.04318 0.00731737 0)
(1.04162 0.00733547 0)
(1.03999 0.00737109 0)
(1.03828 0.0074361 0)
(1.03649 0.00752043 0)
(1.03463 0.00764568 0)
(1.03269 0.00778987 0)
(1.03065 0.00797892 0)
(1.02854 0.00818506 0)
(1.02632 0.00839133 0)
(1.024 0.00860405 0)
(1.02149 0.00861958 0)
(1.01872 0.00854314 0)
(1.01533 0.00791298 0)
(1.00203 0.0198927 0)
(1.02401 0.0266385 0)
(1.03821 0.0202363 0)
(1.04209 0.0174698 0)
(1.04351 0.016359 0)
(1.0453 0.0150096 0)
(1.04701 0.0138178 0)
(1.04831 0.01298 0)
(1.04934 0.012337 0)
(1.05023 0.0117848 0)
(1.05103 0.0113038 0)
(1.05175 0.0108869 0)
(1.05241 0.0105224 0)
(1.053 0.0101997 0)
(1.05354 0.00991158 0)
(1.05403 0.00965259 0)
(1.05446 0.00941864 0)
(1.05484 0.00920633 0)
(1.05517 0.00901284 0)
(1.05544 0.00883582 0)
(1.05565 0.00867336 0)
(1.0558 0.00852385 0)
(1.05589 0.00838601 0)
(1.05591 0.00825881 0)
(1.05587 0.0081415 0)
(1.05576 0.0080335 0)
(1.05558 0.00793446 0)
(1.05533 0.00784416 0)
(1.05502 0.00776262 0)
(1.05465 0.00768996 0)
(1.0542 0.00762649 0)
(1.05369 0.00757276 0)
(1.05311 0.00752941 0)
(1.05247 0.00749767 0)
(1.05175 0.0074783 0)
(1.05097 0.00747391 0)
(1.05013 0.00748466 0)
(1.04921 0.00751604 0)
(1.04823 0.00756578 0)
(1.04717 0.00764472 0)
(1.04604 0.00774492 0)
(1.04484 0.00788445 0)
(1.04356 0.00804711 0)
(1.0422 0.00825068 0)
(1.04077 0.00847775 0)
(1.03923 0.00870267 0)
(1.0376 0.00893679 0)
(1.03578 0.00900202 0)
(1.03368 0.00897772 0)
(1.03096 0.00853069 0)
(1.00179 0.0181909 0)
(1.02183 0.0255092 0)
(1.03557 0.0197647 0)
(1.03965 0.0170634 0)
(1.0411 0.0160809 0)
(1.04286 0.0148493 0)
(1.04457 0.0136912 0)
(1.04587 0.0128645 0)
(1.04689 0.0122364 0)
(1.04777 0.0116975 0)
(1.04856 0.0112253 0)
(1.04927 0.0108147 0)
(1.04991 0.0104555 0)
(1.0505 0.0101374 0)
(1.05105 0.00985339 0)
(1.05156 0.0095983 0)
(1.05203 0.00936823 0)
(1.05246 0.00915994 0)
(1.05286 0.00897069 0)
(1.05322 0.00879823 0)
(1.05354 0.00864067 0)
(1.05383 0.00849642 0)
(1.05407 0.00836422 0)
(1.05428 0.00824302 0)
(1.05444 0.00813204 0)
(1.05456 0.00803071 0)
(1.05464 0.00793866 0)
(1.05467 0.00785568 0)
(1.05465 0.00778176 0)
(1.05459 0.00771705 0)
(1.05448 0.00766186 0)
(1.05432 0.00761676 0)
(1.05411 0.00758239 0)
(1.05385 0.00756002 0)
(1.05354 0.00755041 0)
(1.05317 0.00755621 0)
(1.05275 0.00757768 0)
(1.05227 0.00762008 0)
(1.05173 0.00768177 0)
(1.05113 0.00777247 0)
(1.05047 0.00788631 0)
(1.04974 0.00803806 0)
(1.04895 0.0082165 0)
(1.04809 0.00843288 0)
(1.04717 0.00867747 0)
(1.04615 0.00892036 0)
(1.04504 0.00917419 0)
(1.04374 0.009289 0)
(1.04217 0.00932418 0)
(1.03999 0.00905077 0)
(1.00157 0.0165983 0)
(1.01978 0.0243745 0)
(1.03304 0.0193014 0)
(1.0373 0.0166619 0)
(1.03879 0.01579 0)
(1.04051 0.01468 0)
(1.04221 0.0135619 0)
(1.04352 0.0127467 0)
(1.04454 0.0121335 0)
(1.0454 0.0116086 0)
(1.04617 0.0111458 0)
(1.04687 0.0107418 0)
(1.04751 0.0103877 0)
(1.04809 0.0100741 0)
(1.04862 0.00979373 0)
(1.04912 0.0095419 0)
(1.04959 0.00931481 0)
(1.05003 0.00910939 0)
(1.05044 0.00892301 0)
(1.05083 0.00875349 0)
(1.05119 0.008599 0)
(1.05152 0.00845801 0)
(1.05182 0.00832925 0)
(1.05209 0.00821172 0)
(1.05234 0.00810465 0)
(1.05256 0.00800746 0)
(1.05275 0.00791981 0)
(1.05291 0.00784152 0)
(1.05304 0.00777258 0)
(1.05314 0.00771318 0)
(1.0532 0.00766364 0)
(1.05323 0.00762459 0)
(1.05322 0.00759663 0)
(1.05317 0.00758111 0)
(1.05309 0.0075788 0)
(1.05296 0.00759233 0)
(1.05279 0.00762213 0)
(1.05257 0.00767318 0)
(1.05231 0.00774445 0)
(1.052 0.00784458 0)
(1.05163 0.00796955 0)
(1.05122 0.00813127 0)
(1.05075 0.00832259 0)
(1.05022 0.00854989 0)
(1.04964 0.00880874 0)
(1.04898 0.00906851 0)
(1.04823 0.00934079 0)
(1.04729 0.00950414 0)
(1.04609 0.00960394 0)
(1.0443 0.00949474 0)
(1.00137 0.015114 0)
(1.01787 0.0232387 0)
(1.03061 0.0188426 0)
(1.03504 0.0162668 0)
(1.03657 0.0154879 0)
(1.03825 0.0145011 0)
(1.03995 0.0134295 0)
(1.04126 0.0126269 0)
(1.04227 0.0120283 0)
(1.04312 0.0115179 0)
(1.04388 0.0110652 0)
(1.04457 0.010668 0)
(1.04519 0.0103193 0)
(1.04576 0.0100101 0)
(1.04629 0.00973349 0)
(1.04678 0.00948481 0)
(1.04724 0.0092605 0)
(1.04767 0.00905761 0)
(1.04807 0.00887363 0)
(1.04846 0.00870644 0)
(1.04882 0.00855428 0)
(1.04915 0.00841564 0)
(1.04947 0.00828931 0)
(1.04977 0.00817429 0)
(1.05004 0.00806984 0)
(1.05029 0.00797541 0)
(1.05052 0.00789069 0)
(1.05073 0.00781551 0)
(1.05092 0.00774992 0)
(1.05108 0.00769412 0)
(1.05122 0.00764847 0)
(1.05134 0.00761364 0)
(1.05142 0.00759027 0)
(1.05148 0.00757972 0)
(1.05151 0.00758282 0)
(1.0515 0.00760216 0)
(1.05147 0.00763835 0)
(1.05139 0.00769607 0)
(1.05128 0.00777492 0)
(1.05113 0.00788247 0)
(1.05094 0.00801638 0)
(1.05071 0.00818614 0)
(1.05043 0.0083878 0)
(1.05011 0.0086244 0)
(1.04973 0.00889485 0)
(1.04929 0.00917048 0)
(1.04876 0.00946067 0)
(1.04805 0.00967135 0)
(1.04709 0.00983921 0)
(1.04556 0.00988528 0)
(1.0012 0.0137363 0)
(1.0161 0.0221057 0)
(1.02828 0.0183846 0)
(1.03286 0.0158793 0)
(1.03445 0.0151763 0)
(1.03609 0.0143121 0)
(1.03777 0.0132935 0)
(1.03908 0.012505 0)
(1.04009 0.0119207 0)
(1.04093 0.0114253 0)
(1.04168 0.0109832 0)
(1.04236 0.0105932 0)
(1.04297 0.0102502 0)
(1.04353 0.00994556 0)
(1.04404 0.00967279 0)
(1.04452 0.00942734 0)
(1.04497 0.00920583 0)
(1.04539 0.00900544 0)
(1.04579 0.00882376 0)
(1.04616 0.00865875 0)
(1.04651 0.00850868 0)
(1.04685 0.00837211 0)
(1.04716 0.00824782 0)
(1.04745 0.00813485 0)
(1.04773 0.00803248 0)
(1.04799 0.00794019 0)
(1.04823 0.00785768 0)
(1.04845 0.00778484 0)
(1.04866 0.00772173 0)
(1.04884 0.00766862 0)
(1.04901 0.00762588 0)
(1.04915 0.00759423 0)
(1.04928 0.00757434 0)
(1.04938 0.00756761 0)
(1.04945 0.00757492 0)
(1.0495 0.00759881 0)
(1.04953 0.0076401 0)
(1.04952 0.00770315 0)
(1.04949 0.00778812 0)
(1.04942 0.0079017 0)
(1.04932 0.0080429 0)
(1.04918 0.00821933 0)
(1.049 0.00842942 0)
(1.04879 0.00867421 0)
(1.04853 0.00895446 0)
(1.0482 0.00924531 0)
(1.0478 0.00955367 0)
(1.04722 0.0098106 0)
(1.04639 0.0100487 0)
(1.04502 0.0102414 0)
(1.00104 0.012463 0)
(1.01446 0.0209798 0)
(1.02607 0.0179238 0)
(1.03077 0.0155001 0)
(1.03242 0.0148571 0)
(1.03402 0.0141126 0)
(1.03568 0.0131534 0)
(1.037 0.0123811 0)
(1.038 0.0118108 0)
(1.03884 0.0113306 0)
(1.03958 0.0108999 0)
(1.04024 0.0105175 0)
(1.04084 0.0101802 0)
(1.04139 0.00988037 0)
(1.04189 0.00961158 0)
(1.04236 0.00936948 0)
(1.0428 0.00915085 0)
(1.04321 0.00895303 0)
(1.0436 0.00877369 0)
(1.04396 0.00861087 0)
(1.04431 0.00846288 0)
(1.04463 0.00832831 0)
(1.04493 0.00820597 0)
(1.04522 0.00809492 0)
(1.04549 0.00799445 0)
(1.04574 0.00790407 0)
(1.04598 0.00782352 0)
(1.0462 0.0077527 0)
(1.04641 0.00769172 0)
(1.04659 0.00764089 0)
(1.04677 0.0076006 0)
(1.04692 0.00757163 0)
(1.04705 0.00755467 0)
(1.04717 0.00755115 0)
(1.04726 0.00756203 0)
(1.04733 0.00758978 0)
(1.04738 0.00763542 0)
(1.0474 0.007703 0)
(1.04739 0.00779323 0)
(1.04736 0.00791199 0)
(1.0473 0.00805943 0)
(1.0472 0.00824174 0)
(1.04708 0.00845902 0)
(1.04691 0.00871142 0)
(1.04671 0.00900055 0)
(1.04644 0.00930641 0)
(1.0461 0.00963384 0)
(1.04558 0.00993632 0)
(1.04482 0.0102458 0)
(1.04356 0.0105769 0)
(1.0009 0.0112912 0)
(1.01295 0.0198655 0)
(1.02397 0.0174573 0)
(1.02877 0.0151297 0)
(1.03048 0.0145324 0)
(1.03204 0.0139023 0)
(1.03368 0.0130087 0)
(1.035 0.0122552 0)
(1.036 0.0116985 0)
(1.03683 0.0112337 0)
(1.03756 0.010815 0)
(1.03822 0.0104406 0)
(1.03881 0.0101093 0)
(1.03935 0.00981445 0)
(1.03984 0.0095498 0)
(1.0403 0.00931117 0)
(1.04073 0.00909554 0)
(1.04113 0.00890036 0)
(1.0415 0.00872344 0)
(1.04186 0.00856287 0)
(1.04219 0.00841701 0)
(1.04251 0.00828447 0)
(1.0428 0.00816409 0)
(1.04308 0.00805496 0)
(1.04334 0.00795637 0)
(1.04359 0.00786786 0)
(1.04382 0.00778919 0)
(1.04403 0.00772031 0)
(1.04423 0.00766134 0)
(1.04442 0.00761264 0)
(1.04458 0.00757465 0)
(1.04473 0.00754815 0)
(1.04487 0.00753391 0)
(1.04498 0.00753335 0)
(1.04508 0.0075475 0)
(1.04515 0.00757879 0)
(1.0452 0.0076284 0)
(1.04523 0.00770013 0)
(1.04524 0.00779515 0)
(1.04522 0.00791866 0)
(1.04517 0.00807173 0)
(1.0451 0.00825954 0)
(1.04499 0.00848332 0)
(1.04485 0.00874315 0)
(1.04467 0.00904089 0)
(1.04443 0.00936189 0)
(1.04411 0.00970968 0)
(1.04362 0.0100572 0)
(1.0429 0.0104382 0)
(1.04171 0.0108998 0)
(1.00078 0.0102174 0)
(1.01157 0.0187672 0)
(1.02199 0.0169823 0)
(1.02685 0.0147682 0)
(1.02863 0.0142042 0)
(1.03016 0.0136813 0)
(1.03177 0.0128586 0)
(1.03309 0.0121271 0)
(1.0341 0.0115838 0)
(1.03492 0.0111346 0)
(1.03564 0.0107284 0)
(1.03628 0.0103626 0)
(1.03687 0.0100375 0)
(1.0374 0.00974773 0)
(1.03788 0.00948737 0)
(1.03833 0.00925235 0)
(1.03875 0.00903982 0)
(1.03914 0.00884739 0)
(1.03951 0.00867297 0)
(1.03985 0.00851471 0)
(1.04018 0.00837104 0)
(1.04048 0.00824059 0)
(1.04077 0.00812223 0)
(1.04104 0.00801505 0)
(1.0413 0.00791837 0)
(1.04153 0.00783175 0)
(1.04176 0.00775497 0)
(1.04196 0.00768803 0)
(1.04216 0.00763107 0)
(1.04233 0.00758448 0)
(1.04249 0.00754874 0)
(1.04264 0.00752468 0)
(1.04277 0.00751308 0)
(1.04288 0.00751539 0)
(1.04297 0.00753272 0)
(1.04304 0.00756742 0)
(1.04309 0.00762085 0)
(1.04313 0.00769657 0)
(1.04313 0.00779613 0)
(1.04312 0.00792424 0)
(1.04307 0.0080826 0)
(1.04301 0.0082758 0)
(1.04291 0.00850577 0)
(1.04278 0.00877307 0)
(1.04261 0.00907958 0)
(1.04238 0.00941603 0)
(1.04207 0.00978552 0)
(1.04159 0.0101777 0)
(1.0409 0.0106294 0)
(1.03977 0.0112129 0)
(1.00067 0.00923746 0)
(1.01031 0.0176892 0)
(1.02012 0.0164966 0)
(1.02501 0.0144154 0)
(1.02688 0.0138747 0)
(1.02837 0.0134497 0)
(1.02994 0.0127026 0)
(1.03127 0.0119968 0)
(1.03227 0.0114668 0)
(1.03309 0.011033 0)
(1.0338 0.01064 0)
(1.03444 0.0102832 0)
(1.03502 0.00996457 0)
(1.03554 0.00968011 0)
(1.03601 0.0094242 0)
(1.03645 0.00919293 0)
(1.03687 0.00898362 0)
(1.03725 0.00879404 0)
(1.03761 0.0086222 0)
(1.03794 0.00846634 0)
(1.03826 0.00832493 0)
(1.03856 0.00819663 0)
(1.03884 0.00808034 0)
(1.0391 0.00797516 0)
(1.03935 0.00788044 0)
(1.03958 0.00779575 0)
(1.03979 0.00772091 0)
(1.03999 0.00765593 0)
(1.04018 0.007601 0)
(1.04035 0.00755655 0)
(1.0405 0.00752309 0)
(1.04064 0.00750146 0)
(1.04076 0.00749251 0)
(1.04087 0.00749768 0)
(1.04096 0.00751817 0)
(1.04103 0.00755623 0)
(1.04108 0.00761343 0)
(1.04111 0.00769309 0)
(1.04111 0.00779708 0)
(1.0411 0.00792972 0)
(1.04105 0.0080932 0)
(1.04099 0.00829179 0)
(1.04089 0.00852783 0)
(1.04077 0.00880275 0)
(1.0406 0.0091184 0)
(1.04038 0.00947064 0)
(1.04007 0.00986301 0)
(1.03961 0.0102991 0)
(1.03893 0.0108196 0)
(1.03787 0.0115161 0)
(1.00058 0.00834686 0)
(1.00916 0.016636 0)
(1.01836 0.0159985 0)
(1.02326 0.0140705 0)
(1.02521 0.0135457 0)
(1.02667 0.0132083 0)
(1.02821 0.01254 0)
(1.02953 0.011864 0)
(1.03054 0.0113475 0)
(1.03135 0.010929 0)
(1.03206 0.0105497 0)
(1.03269 0.0102023 0)
(1.03325 0.00989051 0)
(1.03377 0.0096115 0)
(1.03424 0.00936021 0)
(1.03467 0.00913284 0)
(1.03507 0.00892687 0)
(1.03545 0.00874024 0)
(1.0358 0.00857107 0)
(1.03613 0.00841769 0)
(1.03644 0.00827861 0)
(1.03673 0.00815254 0)
(1.037 0.00803838 0)
(1.03726 0.00793526 0)
(1.03749 0.00784254 0)
(1.03772 0.00775983 0)
(1.03793 0.00768696 0)
(1.03812 0.00762399 0)
(1.0383 0.00757113 0)
(1.03846 0.00752885 0)
(1.03861 0.00749768 0)
(1.03874 0.00747852 0)
(1.03886 0.00747224 0)
(1.03896 0.00748029 0)
(1.03905 0.00750393 0)
(1.03911 0.00754537 0)
(1.03916 0.0076063 0)
(1.03919 0.00768988 0)
(1.03919 0.00779823 0)
(1.03917 0.00793539 0)
(1.03913 0.0081039 0)
(1.03907 0.0083079 0)
(1.03898 0.00854999 0)
(1.03885 0.00883267 0)
(1.03869 0.00915788 0)
(1.03847 0.00952616 0)
(1.03817 0.00994222 0)
(1.03772 0.0104213 0)
(1.03707 0.0110077 0)
(1.03607 0.0118072 0)
(1.0005 0.00754053 0)
(1.00813 0.0156117 0)
(1.01672 0.015487 0)
(1.0216 0.0137328 0)
(1.02362 0.013219 0)
(1.02506 0.0129578 0)
(1.02656 0.0123703 0)
(1.02788 0.0117284 0)
(1.02889 0.0112261 0)
(1.0297 0.0108223 0)
(1.03039 0.0104571 0)
(1.03102 0.0101199 0)
(1.03158 0.00981519 0)
(1.03209 0.00954182 0)
(1.03255 0.0092953 0)
(1.03298 0.00907198 0)
(1.03337 0.00886948 0)
(1.03374 0.0086859 0)
(1.03408 0.00851951 0)