/*--------------------------------*- C++ -*----------------------------------*\
  =========                 |
  \\      /  F ield         | OpenFOAM: The Open Source CFD Toolbox
   \\    /   O peration     | Website:  https://openfoam.org
    \\  /    A nd           | Version:  7
     \\/     M anipulation  |
\*---------------------------------------------------------------------------*/
FoamFile
{
    version     2.0;
    format      ascii;
    class       volVectorField;
    location    "0.36";
    object      U_0;
}
// * * * * * * * * * * * * * * * * * * * * * * * * * * * * * * * * * * * * * //

dimensions      [0 1 -1 0 0 0 0];

internalField   nonuniform List<vector> 
70000
(
(0.55339 0.0167231 0)
(0.251254 0.00340113 0)
(0.166185 0.000322124 0)
(0.132429 5.43704e-05 0)
(0.117229 4.58055e-05 0)
(0.107297 5.39788e-05 0)
(0.0993424 4.6344e-05 0)
(0.0928967 3.70062e-05 0)
(0.0876468 3.0697e-05 0)
(0.0832721 2.6378e-05 0)
(0.0795437 2.30915e-05 0)
(0.0763134 2.04634e-05 0)
(0.0734795 1.83242e-05 0)
(0.0709678 1.65606e-05 0)
(0.068722 1.50888e-05 0)
(0.0666986 1.38469e-05 0)
(0.0648633 1.27887e-05 0)
(0.0631886 1.18796e-05 0)
(0.0616524 1.1093e-05 0)
(0.0602365 1.04085e-05 0)
(0.0589256 9.80986e-06 0)
(0.0577071 9.28478e-06 0)
(0.0565702 8.82307e-06 0)
(0.0555057 8.41735e-06 0)
(0.0545054 8.06084e-06 0)
(0.0535625 7.74978e-06 0)
(0.0526707 7.47886e-06 0)
(0.0518245 7.2473e-06 0)
(0.0510191 7.04985e-06 0)
(0.0502497 6.8895e-06 0)
(0.0495124 6.75778e-06 0)
(0.0488031 6.66638e-06 0)
(0.0481183 6.59418e-06 0)
(0.0474539 6.57321e-06 0)
(0.0468074 6.55235e-06 0)
(0.046174 6.60284e-06 0)
(0.0455516 6.61733e-06 0)
(0.0449358 6.72303e-06 0)
(0.0443233 6.74637e-06 0)
(0.0437139 6.8166e-06 0)
(0.0430951 6.83773e-06 0)
(0.0424895 6.51573e-06 0)
(0.0418441 6.66727e-06 0)
(0.0412686 4.76827e-06 0)
(0.0405662 5.7515e-06 0)
(0.0401319 -1.26066e-06 0)
(0.0393268 2.76649e-06 0)
(0.0393444 -1.87546e-05 0)
(0.0386602 -4.23914e-06 0)
(0.0367739 -0.00147357 0)
(0.884899 0.0431677 0)
(0.649705 0.020195 0)
(0.494287 0.00659955 0)
(0.403606 0.00276886 0)
(0.354658 0.00155318 0)
(0.323336 0.00113269 0)
(0.299462 0.000911424 0)
(0.280253 0.000747518 0)
(0.264527 0.000624742 0)
(0.251393 0.000534135 0)
(0.240197 0.000465441 0)
(0.230497 0.000411469 0)
(0.221987 0.000367934 0)
(0.214443 0.00033217 0)
(0.207696 0.000302363 0)
(0.201617 0.000277216 0)
(0.196103 0.000255774 0)
(0.191071 0.000237322 0)
(0.186456 0.000221317 0)
(0.182203 0.000207339 0)
(0.178267 0.000195062 0)
(0.174609 0.000184229 0)
(0.171198 0.000174634 0)
(0.168007 0.000166115 0)
(0.16501 0.00015854 0)
(0.162188 0.000151803 0)
(0.159522 0.000145819 0)
(0.156996 0.000140524 0)
(0.154596 0.000135861 0)
(0.152308 0.000131801 0)
(0.150121 0.000128304 0)
(0.148022 0.000125385 0)
(0.146002 0.000122993 0)
(0.144049 0.00012122 0)
(0.142156 0.000119942 0)
(0.140309 0.000119417 0)
(0.138501 0.000119304 0)
(0.13672 0.000120207 0)
(0.134955 0.000121274 0)
(0.133203 0.000123764 0)
(0.131426 0.000125833 0)
(0.129678 0.000129639 0)
(0.12781 0.000131983 0)
(0.1261 0.000135008 0)
(0.124007 0.000135518 0)
(0.12254 0.000129086 0)
(0.119984 0.000123671 0)
(0.119368 5.68117e-05 0)
(0.116571 0.000182893 0)
(0.114438 -0.00257352 0)
(0.991238 0.0499021 0)
(0.89034 0.030721 0)
(0.762651 0.0146009 0)
(0.656607 0.00798307 0)
(0.585249 0.00488805 0)
(0.535817 0.003474 0)
(0.497929 0.00273828 0)
(0.467292 0.00224593 0)
(0.441961 0.00188298 0)
(0.420632 0.00161177 0)
(0.402357 0.00140487 0)
(0.386467 0.00124228 0)
(0.372485 0.00111119 0)
(0.360061 0.00100349 0)
(0.348928 0.000913671 0)
(0.33888 0.000837843 0)
(0.329752 0.000773131 0)
(0.321415 0.000717393 0)
(0.313761 0.000668995 0)
(0.306701 0.000626679 0)
(0.300164 0.000589463 0)
(0.294088 0.00055657 0)
(0.288419 0.000527382 0)
(0.283114 0.000501403 0)
(0.278134 0.000478232 0)
(0.273445 0.000457547 0)
(0.269018 0.000439083 0)
(0.264826 0.000422634 0)
(0.260846 0.000408034 0)
(0.257056 0.000395168 0)
(0.253438 0.000383933 0)
(0.249973 0.00037432 0)
(0.246645 0.000366238 0)
(0.243437 0.000359844 0)
(0.240336 0.000354942 0)
(0.237321 0.000352045 0)
(0.234383 0.000350535 0)
(0.231502 0.000351759 0)
(0.228659 0.000353856 0)
(0.22585 0.000360148 0)
(0.223019 0.000365632 0)
(0.220239 0.00037791 0)
(0.217291 0.000384906 0)
(0.214562 0.000402284 0)
(0.211275 0.000404252 0)
(0.20883 0.000415743 0)
(0.204813 0.000400194 0)
(0.203328 0.000301023 0)
(0.198658 0.000445619 0)
(0.196923 -0.0025891 0)
(1.0156 0.0489212 0)
(1.00596 0.0358783 0)
(0.935926 0.0207971 0)
(0.852062 0.0135105 0)
(0.782083 0.00921371 0)
(0.726851 0.00678642 0)
(0.681742 0.00538807 0)
(0.643964 0.00444867 0)
(0.611928 0.00375515 0)
(0.584441 0.00322996 0)
(0.560565 0.00282463 0)
(0.53959 0.00250391 0)
(0.520985 0.00224422 0)
(0.504345 0.00203009 0)
(0.489355 0.00185097 0)
(0.475765 0.00169932 0)
(0.463375 0.00156957 0)
(0.452022 0.00145757 0)
(0.441571 0.00136012 0)
(0.43191 0.00127474 0)
(0.422946 0.0011995 0)
(0.4146 0.00113287 0)
(0.406803 0.00107362 0)
(0.399498 0.00102076 0)
(0.392634 0.000973496 0)
(0.386167 0.000931165 0)
(0.380057 0.00089324 0)
(0.37427 0.000859293 0)
(0.368776 0.000828985 0)
(0.363546 0.00080206 0)
(0.358556 0.000778319 0)
(0.353781 0.000757683 0)
(0.349201 0.000740018 0)
(0.344793 0.00072551 0)
(0.34054 0.000713914 0)
(0.336418 0.000705985 0)
(0.332412 0.000700842 0)
(0.328498 0.000700686 0)
(0.324655 0.000702482 0)
(0.320873 0.000712214 0)
(0.317088 0.000720716 0)
(0.313378 0.000743338 0)
(0.309495 0.000755255 0)
(0.305863 0.000793032 0)
(0.301613 0.000796483 0)
(0.29827 0.000838718 0)
(0.293211 0.000813167 0)
(0.29075 0.000703651 0)
(0.284891 0.000802442 0)
(0.282744 -0.00212426 0)
(1.01434 0.0460048 0)
(1.04753 0.0374926 0)
(1.02456 0.024159 0)
(0.974709 0.0175681 0)
(0.923357 0.0131312 0)
(0.876545 0.0102138 0)
(0.83435 0.00834905 0)
(0.796577 0.0070272 0)
(0.762996 0.00601724 0)
(0.733164 0.00523026 0)
(0.706567 0.00460931 0)
(0.68273 0.00411014 0)
(0.661251 0.00370121 0)
(0.641796 0.00336092 0)
(0.624087 0.00307412 0)
(0.607892 0.00282976 0)
(0.593019 0.00261959 0)
(0.579304 0.0024373 0)
(0.566612 0.00227804 0)
(0.554825 0.00213799 0)
(0.543844 0.00201417 0)
(0.533584 0.00190416 0)
(0.52397 0.00180604 0)
(0.514938 0.00171825 0)
(0.506431 0.00163949 0)
(0.4984 0.00156873 0)
(0.4908 0.00150511 0)
(0.483592 0.00144792 0)
(0.47674 0.00139661 0)
(0.470212 0.00135074 0)
(0.463979 0.00130998 0)
(0.458014 0.00127416 0)
(0.452292 0.00124309 0)
(0.446788 0.00121694 0)
(0.441482 0.00119543 0)
(0.436345 0.00117954 0)
(0.431364 0.00116815 0)
(0.426507 0.00116431 0)
(0.421755 0.00116381 0)
(0.417091 0.00117546 0)
(0.412453 0.0011857 0)
(0.407909 0.00121825 0)
(0.403221 0.00123477 0)
(0.398781 0.00129406 0)
(0.393771 0.00130084 0)
(0.38959 0.00137537 0)
(0.383856 0.0013479 0)
(0.38036 0.00123321 0)
(0.37397 0.00127564 0)
(0.370703 -0.00148646 0)
(1.00933 0.0429162 0)
(1.05527 0.0372683 0)
(1.05868 0.0253046 0)
(1.03633 0.0197701 0)
(1.00703 0.0158231 0)
(0.975939 0.0129466 0)
(0.944373 0.010969 0)
(0.913472 0.00948577 0)
(0.884089 0.00829492 0)
(0.856608 0.00732746 0)
(0.831105 0.00653857 0)
(0.807515 0.00588804 0)
(0.785713 0.00534439 0)
(0.765553 0.0048847 0)
(0.746885 0.00449214 0)
(0.729568 0.00415401 0)
(0.713469 0.00386047 0)
(0.69847 0.00360385 0)
(0.684463 0.00337808 0)
(0.671353 0.00317836 0)
(0.659056 0.0030008 0)
(0.647496 0.00284228 0)
(0.636608 0.00270025 0)
(0.626329 0.00257263 0)
(0.616608 0.00245769 0)
(0.607396 0.002354 0)
(0.59865 0.00226039 0)
(0.59033 0.00217589 0)
(0.582402 0.00209972 0)
(0.574831 0.00203125 0)
(0.56759 0.00197004 0)
(0.560647 0.00191579 0)
(0.553981 0.00186824 0)
(0.547562 0.00182757 0)
(0.541371 0.00179347 0)
(0.535378 0.00176708 0)
(0.529567 0.00174711 0)
(0.523907 0.00173739 0)
(0.518379 0.00173269 0)
(0.512958 0.00174436 0)
(0.507596 0.00175505 0)
(0.502334 0.0017958 0)
(0.496977 0.00181697 0)
(0.491833 0.00189528 0)
(0.486237 0.00190937 0)
(0.481297 0.00200956 0)
(0.475143 0.001993 0)
(0.47066 0.00186626 0)
(0.464085 0.00186405 0)
(0.459622 -0.000722949 0)
(1.00625 0.0400349 0)
(1.05206 0.0363412 0)
(1.06608 0.0252346 0)
(1.05957 0.0205716 0)
(1.04682 0.0172523 0)
(1.0307 0.0146694 0)
(1.01176 0.0128317 0)
(0.991038 0.0114053 0)
(0.969591 0.0102077 0)
(0.948153 0.00919195 0)
(0.927169 0.00833254 0)
(0.906901 0.00760166 0)
(0.88749 0.00697482 0)
(0.869003 0.0064331 0)
(0.851455 0.00596189 0)
(0.834832 0.00554959 0)
(0.819098 0.00518683 0)
(0.804211 0.00486598 0)
(0.79012 0.00458084 0)
(0.776776 0.00432633 0)
(0.764129 0.00409826 0)
(0.752131 0.0038932 0)
(0.740736 0.0037083 0)
(0.729902 0.00354118 0)
(0.719589 0.00338984 0)
(0.709758 0.00325263 0)
(0.700375 0.00312814 0)
(0.691407 0.00301523 0)
(0.682824 0.00291295 0)
(0.674597 0.00282054 0)
(0.6667 0.00273746 0)
(0.659107 0.0026633 0)
(0.651796 0.00259782 0)
(0.64474 0.00254114 0)
(0.637922 0.00249298 0)
(0.631311 0.00245463 0)
(0.624896 0.00242472 0)
(0.61864 0.00240767 0)
(0.612533 0.0023976 0)
(0.606542 0.00240777 0)
(0.600633 0.00241825 0)
(0.594818 0.00246513 0)
(0.588961 0.00249175 0)
(0.583265 0.00258508 0)
(0.577251 0.00261137 0)
(0.571697 0.00272841 0)
(0.56529 0.00273366 0)
(0.560005 0.00259106 0)
(0.553341 0.00254924 0)
(0.547946 0.000176585 0)
(1.00495 0.037357 0)
(1.04727 0.0352594 0)
(1.06397 0.0246953 0)
(1.06423 0.0205992 0)
(1.06063 0.0177922 0)
(1.05467 0.0155148 0)
(1.04588 0.0138923 0)
(1.03464 0.0126308 0)
(1.02169 0.011544 0)
(1.00762 0.0105911 0)
(0.9929 0.00975905 0)
(0.977878 0.0090306 0)
(0.96282 0.00838905 0)
(0.947915 0.0078212 0)
(0.933298 0.00731668 0)
(0.919056 0.00686688 0)
(0.905246 0.00646452 0)
(0.891899 0.00610342 0)
(0.879032 0.00577831 0)
(0.866646 0.00548474 0)
(0.854737 0.00521894 0)
(0.843292 0.00497773 0)
(0.832299 0.00475839 0)
(0.821737 0.00455862 0)
(0.811589 0.00437646 0)
(0.801835 0.00421023 0)
(0.792454 0.00405854 0)
(0.783426 0.00392015 0)
(0.77473 0.00379414 0)
(0.766348 0.00367966 0)
(0.75826 0.00357618 0)
(0.750447 0.00348328 0)
(0.74289 0.00340073 0)
(0.735569 0.00332868 0)
(0.72847 0.00326692 0)
(0.721567 0.00321686 0)
(0.714849 0.00317718 0)
(0.708285 0.00315273 0)
(0.701866 0.00313737 0)
(0.695558 0.0031455 0)
(0.689341 0.00315609 0)
(0.683204 0.00320767 0)
(0.677062 0.00324119 0)
(0.671027 0.00334599 0)
(0.664788 0.00338883 0)
(0.658838 0.00351612 0)
(0.652324 0.00354898 0)
(0.646512 0.00339424 0)
(0.639815 0.00331506 0)
(0.633794 0.00118332 0)
(1.0044 0.0348091 0)
(1.04323 0.0341865 0)
(1.05993 0.0240549 0)
(1.06227 0.0203064 0)
(1.06246 0.0178578 0)
(1.06174 0.0157984 0)
(1.05913 0.0143498 0)
(1.05455 0.013254 0)
(1.04829 0.0123096 0)
(1.04068 0.0114687 0)
(1.03199 0.0107208 0)
(1.0225 0.010053 0)
(1.01242 0.00945253 0)
(1.00195 0.00890995 0)
(0.991245 0.00841824 0)
(0.980442 0.0079717 0)
(0.969639 0.00756538 0)
(0.958912 0.00719496 0)
(0.948321 0.00685666 0)
(0.937908 0.00654716 0)
(0.927704 0.00626357 0)
(0.917733 0.0060034 0)
(0.908007 0.00576445 0)
(0.898535 0.00554485 0)
(0.88932 0.00534293 0)
(0.880362 0.00515728 0)
(0.871658 0.00498667 0)
(0.863203 0.00483003 0)
(0.854989 0.00468654 0)
(0.847008 0.00455546 0)
(0.839252 0.00443636 0)
(0.831708 0.00432886 0)
(0.824368 0.00423288 0)
(0.817216 0.00414861 0)
(0.810245 0.00407602 0)
(0.803434 0.00401663 0)
(0.796779 0.00396929 0)
(0.79025 0.00393911 0)
(0.783846 0.0039201 0)
(0.777531 0.00392713 0)
(0.7713 0.00393933 0)
(0.765125 0.00399546 0)
(0.758961 0.00403787 0)
(0.752856 0.00415219 0)
(0.746621 0.00421479 0)
(0.740552 0.00434932 0)
(0.73411 0.00441148 0)
(0.728078 0.00425357 0)
(0.721465 0.00414217 0)
(0.715114 0.00224816 0)
(1.00402 0.0323691 0)
(1.03991 0.0331367 0)
(1.05615 0.0234324 0)
(1.0589 0.0199193 0)
(1.06018 0.0177289 0)
(1.06151 0.0158048 0)
(1.06185 0.014458 0)
(1.06092 0.0134775 0)
(1.05882 0.0126494 0)
(1.05566 0.0119143 0)
(1.05153 0.0112593 0)
(1.04654 0.0106712 0)
(1.04083 0.0101373 0)
(1.03452 0.00964899 0)
(1.02772 0.00920042 0)
(1.02055 0.00878729 0)
(1.01309 0.00840606 0)
(1.00543 0.00805372 0)
(0.997643 0.00772767 0)
(0.98978 0.00742562 0)
(0.98189 0.00714558 0)
(0.974013 0.00688579 0)
(0.966182 0.00664474 0)
(0.958421 0.00642106 0)
(0.95075 0.00621357 0)
(0.943185 0.00602124 0)
(0.935737 0.00584318 0)
(0.928413 0.0056786 0)
(0.921219 0.00552691 0)
(0.914157 0.00538757 0)
(0.907228 0.00526035 0)
(0.900429 0.00514503 0)
(0.893759 0.0050417 0)
(0.887211 0.00495072 0)
(0.880783 0.00487223 0)
(0.874463 0.00480794 0)
(0.868249 0.00475693 0)
(0.862119 0.00472451 0)
(0.856077 0.00470508 0)
(0.850091 0.00471353 0)
(0.844162 0.00473003 0)
(0.838261 0.00479202 0)
(0.832365 0.00484585 0)
(0.826489 0.00496952 0)
(0.820518 0.00505432 0)
(0.814625 0.00519597 0)
(0.808478 0.00528729 0)
(0.802535 0.00513718 0)
(0.796187 0.00500171 0)
(0.789804 0.00334392 0)
(1.00364 0.0300288 0)
(1.03692 0.0320895 0)
(1.05281 0.0228433 0)
(1.05567 0.019515 0)
(1.05709 0.0175384 0)
(1.05897 0.0157067 0)
(1.06038 0.0144079 0)
(1.06104 0.0134909 0)
(1.06101 0.0127367 0)
(1.06031 0.012076 0)
(1.05897 0.0114933 0)
(1.05698 0.010974 0)
(1.05438 0.0105041 0)
(1.05123 0.010074 0)
(1.04759 0.00967729 0)
(1.0435 0.00930975 0)
(1.03904 0.00896804 0)
(1.03425 0.00864957 0)
(1.0292 0.00835219 0)
(1.02393 0.00807414 0)
(1.01848 0.00781394 0)
(1.01289 0.00757034 0)
(1.0072 0.00734229 0)
(1.00144 0.00712886 0)
(0.995634 0.0069293 0)
(0.989804 0.00674293 0)
(0.983969 0.0065692 0)
(0.978143 0.00640763 0)
(0.972341 0.0062579 0)
(0.96657 0.00611973 0)
(0.96084 0.00599311 0)
(0.955154 0.00587804 0)
(0.949518 0.00577481 0)
(0.943931 0.00568397 0)
(0.938397 0.0056059 0)
(0.932908 0.00554248 0)
(0.927468 0.00549311 0)
(0.922064 0.00546322 0)
(0.916698 0.00544775 0)
(0.91135 0.00546134 0)
(0.906021 0.00548574 0)
(0.900689 0.0055561 0)
(0.89534 0.0056243 0)
(0.889977 0.00575855 0)
(0.88453 0.00586755 0)
(0.879094 0.00601817 0)
(0.873474 0.00613791 0)
(0.867912 0.00600687 0)
(0.862036 0.00585928 0)
(0.855911 0.00443079 0)
(1.00327 0.0277892 0)
(1.03409 0.0310312 0)
(1.0497 0.0222807 0)
(1.0527 0.0191088 0)
(1.05409 0.0173291 0)
(1.05602 0.0155795 0)
(1.05771 0.0143032 0)
(1.05889 0.0134169 0)
(1.05967 0.0127037 0)
(1.06009 0.0120866 0)
(1.06013 0.011549 0)
(1.05978 0.0110761 0)
(1.05903 0.0106531 0)
(1.05789 0.010269 0)
(1.05636 0.00991674 0)
(1.05447 0.00959135 0)
(1.05225 0.00928909 0)
(1.04971 0.00900712 0)
(1.04688 0.00874319 0)
(1.0438 0.00849554 0)
(1.0405 0.00826276 0)
(1.03699 0.00804374 0)
(1.03331 0.0078376 0)
(1.02948 0.00764362 0)
(1.02553 0.00746127 0)
(1.02147 0.00729008 0)
(1.01732 0.00712975 0)
(1.0131 0.00698002 0)
(1.00883 0.00684079 0)
(1.00451 0.00671199 0)
(1.00015 0.00659381 0)
(0.995774 0.00648645 0)
(0.991374 0.0063904 0)
(0.98696 0.00630641 0)
(0.982537 0.00623506 0)
(0.978103 0.00617845 0)
(0.973664 0.0061362 0)
(0.969212 0.00611393 0)
(0.964752 0.00610712 0)
(0.96027 0.00612998 0)
(0.955769 0.00616614 0)
(0.951233 0.00624787 0)
(0.946654 0.00633343 0)
(0.94203 0.00648021 0)
(0.937323 0.00661493 0)
(0.932575 0.00677739 0)
(0.927682 0.0069247 0)
(0.922742 0.00682324 0)
(0.917526 0.00667754 0)
(0.911909 0.00547028 0)
(1.00292 0.0256535 0)
(1.03138 0.0299571 0)
(1.04669 0.0217401 0)
(1.04991 0.0187006 0)
(1.05127 0.0171077 0)
(1.05317 0.0154452 0)
(1.05489 0.0141849 0)
(1.05619 0.0133147 0)
(1.0572 0.0126249 0)
(1.05801 0.0120319 0)
(1.05861 0.0115189 0)
(1.059 0.0110726 0)
(1.05916 0.0106779 0)
(1.05908 0.0103237 0)
(1.05875 0.010002 0)
(1.05819 0.00970746 0)
(1.05738 0.00943588 0)
(1.05633 0.00918401 0)
(1.05506 0.00894927 0)
(1.05357 0.00872966 0)
(1.05187 0.0085236 0)
(1.04998 0.00832984 0)
(1.04791 0.00814745 0)
(1.04568 0.00797569 0)
(1.0433 0.00781405 0)
(1.04079 0.00766213 0)
(1.03815 0.0075197 0)
(1.0354 0.00738661 0)
(1.03255 0.00726289 0)
(1.02962 0.00714859 0)
(1.02661 0.00704403 0)
(1.02352 0.00694956 0)
(1.02038 0.00686579 0)
(1.01717 0.00679367 0)
(1.01391 0.0067339 0)
(1.0106 0.00668877 0)
(1.00725 0.00665813 0)
(1.00384 0.00664768 0)
(1.00039 0.00665348 0)
(0.996882 0.00668915 0)
(0.993325 0.00674037 0)
(0.989708 0.00683611 0)
(0.986027 0.00694139 0)
(0.982276 0.00710261 0)
(0.978438 0.00726371 0)
(0.974524 0.00744109 0)
(0.970485 0.00761495 0)
(0.966327 0.00755188 0)
(0.961902 0.00742287 0)
(0.95697 0.00642768 0)
(1.0026 0.0236245 0)
(1.02879 0.028866 0)
(1.04378 0.0212206 0)
(1.04722 0.0182903 0)
(1.04859 0.0168729 0)
(1.05045 0.0153065 0)
(1.05216 0.0140641 0)
(1.05347 0.0132052 0)
(1.05452 0.0125322 0)
(1.05542 0.0119545 0)
(1.0562 0.0114553 0)
(1.05685 0.0110231 0)
(1.05737 0.010644 0)
(1.05776 0.0103065 0)
(1.05801 0.0100028 0)
(1.05811 0.00972736 0)
(1.05807 0.0094757 0)
(1.05787 0.00924438 0)
(1.05752 0.00903058 0)
(1.05702 0.00883206 0)
(1.05637 0.00864701 0)
(1.05557 0.00847402 0)
(1.05462 0.00831199 0)
(1.05353 0.00816007 0)
(1.05232 0.00801764 0)
(1.05097 0.00788428 0)
(1.04951 0.00775972 0)
(1.04794 0.00764383 0)
(1.04626 0.00753666 0)
(1.04448 0.00743831 0)
(1.04261 0.00734914 0)
(1.04065 0.00726961 0)
(1.03861 0.00720038 0)
(1.03649 0.00714252 0)
(1.03429 0.00709681 0)
(1.03203 0.00706571 0)
(1.02969 0.0070492 0)
(1.02728 0.00705301 0)
(1.02481 0.00707376 0)
(1.02226 0.00712434 0)
(1.01965 0.00719256 0)
(1.01695 0.00730384 0)
(1.01418 0.00742997 0)
(1.01133 0.00760682 0)
(1.00839 0.00779378 0)
(1.00535 0.00798854 0)
(1.00219 0.00818765 0)
(0.998876 0.0081694 0)
(0.995288 0.00807113 0)
(0.991127 0.00727879 0)
(1.0023 0.021704 0)
(1.02634 0.0277588 0)
(1.04095 0.0207204 0)
(1.04462 0.0178795 0)
(1.046 0.0166233 0)
(1.04783 0.0151618 0)
(1.04954 0.0139419 0)
(1.05084 0.0130935 0)
(1.05188 0.0124355 0)
(1.05279 0.0118706 0)
(1.0536 0.011381 0)
(1.05431 0.0109573 0)
(1.05495 0.0105869 0)
(1.0555 0.0102585 0)
(1.05597 0.00996467 0)
(1.05636 0.0096998 0)
(1.05667 0.00945957 0)
(1.05689 0.00924048 0)
(1.05701 0.00903965 0)
(1.05704 0.00885472 0)
(1.05697 0.00868379 0)
(1.0568 0.0085253 0)
(1.05653 0.00837802 0)
(1.05616 0.00824099 0)
(1.0557 0.0081135 0)
(1.05513 0.00799504 0)
(1.05447 0.0078853 0)
(1.05372 0.0077841 0)
(1.05288 0.00769146 0)
(1.05195 0.00760751 0)
(1.05093 0.0075326 0)
(1.04984 0.00746724 0)
(1.04866 0.00741208 0)
(1.0474 0.00736831 0)
(1.04607 0.00733669 0)
(1.04466 0.00731982 0)
(1.04318 0.00731776 0)
(1.04162 0.0073362 0)
(1.03999 0.00737234 0)
(1.03828 0.00743813 0)
(1.03649 0.00752358 0)
(1.03462 0.00765049 0)
(1.03268 0.00779704 0)
(1.03064 0.00798958 0)
(1.02852 0.00820056 0)
(1.0263 0.00841406 0)
(1.02397 0.00863679 0)
(1.02145 0.00866715 0)
(1.01866 0.00861182 0)
(1.01526 0.00801295 0)
(1.00203 0.0198927 0)
(1.02401 0.0266386 0)
(1.03821 0.0202364 0)
(1.04209 0.0174699 0)
(1.04351 0.0163591 0)
(1.0453 0.0150097 0)
(1.04701 0.0138178 0)
(1.04831 0.01298 0)
(1.04934 0.0123369 0)
(1.05023 0.0117847 0)
(1.05103 0.0113036 0)
(1.05175 0.0108867 0)
(1.05241 0.0105222 0)
(1.053 0.0101996 0)
(1.05354 0.0099114 0)
(1.05403 0.00965245 0)
(1.05446 0.00941853 0)
(1.05484 0.00920625 0)
(1.05517 0.00901278 0)
(1.05544 0.00883578 0)
(1.05565 0.00867332 0)
(1.0558 0.00852382 0)
(1.05589 0.00838597 0)
(1.05591 0.00825877 0)
(1.05587 0.00814144 0)
(1.05576 0.00803343 0)
(1.05558 0.00793437 0)
(1.05534 0.00784407 0)
(1.05502 0.00776252 0)
(1.05465 0.00768984 0)
(1.0542 0.00762638 0)
(1.05369 0.00757266 0)
(1.05311 0.00752934 0)
(1.05247 0.00749766 0)
(1.05175 0.00747838 0)
(1.05097 0.00747415 0)
(1.05013 0.00748514 0)
(1.04921 0.00751689 0)
(1.04822 0.00756719 0)
(1.04717 0.00764695 0)
(1.04604 0.00774835 0)
(1.04483 0.00788964 0)
(1.04355 0.00805477 0)
(1.04219 0.00826198 0)
(1.04075 0.00849409 0)
(1.03921 0.00872648 0)
(1.03757 0.00897096 0)
(1.03574 0.00905139 0)
(1.03363 0.00904869 0)
(1.0309 0.00863356 0)
(1.00179 0.0181909 0)
(1.02183 0.0255092 0)
(1.03557 0.0197648 0)
(1.03965 0.0170635 0)
(1.0411 0.016081 0)
(1.04286 0.0148494 0)
(1.04457 0.0136912 0)
(1.04587 0.0128644 0)
(1.04689 0.0122363 0)
(1.04777 0.0116973 0)
(1.04856 0.0112252 0)
(1.04927 0.0108145 0)
(1.04991 0.0104553 0)
(1.0505 0.0101372 0)
(1.05105 0.00985319 0)
(1.05156 0.00959813 0)
(1.05203 0.0093681 0)
(1.05246 0.00915983 0)
(1.05286 0.00897061 0)
(1.05322 0.00879817 0)
(1.05354 0.00864062 0)
(1.05383 0.00849638 0)
(1.05407 0.00836417 0)
(1.05428 0.00824297 0)
(1.05444 0.00813198 0)
(1.05456 0.00803063 0)
(1.05464 0.00793857 0)
(1.05467 0.00785558 0)
(1.05465 0.00778165 0)
(1.05459 0.00771694 0)
(1.05448 0.00766175 0)
(1.05432 0.00761668 0)
(1.05411 0.00758234 0)
(1.05385 0.00756005 0)
(1.05354 0.00755055 0)
(1.05317 0.00755652 0)
(1.05274 0.00757826 0)
(1.05226 0.00762107 0)
(1.05172 0.00768335 0)
(1.05112 0.00777493 0)
(1.05046 0.00789003 0)
(1.04973 0.00804362 0)
(1.04894 0.00822463 0)
(1.04808 0.00844479 0)
(1.04715 0.00869461 0)
(1.04613 0.00894514 0)
(1.04501 0.00920959 0)
(1.04371 0.00933986 0)
(1.04213 0.0093969 0)
(1.03994 0.00915558 0)
(1.00157 0.0165983 0)
(1.01978 0.0243746 0)
(1.03304 0.0193015 0)
(1.0373 0.0166621 0)
(1.03879 0.0157901 0)
(1.04051 0.0146801 0)
(1.04221 0.0135619 0)
(1.04352 0.0127467 0)
(1.04453 0.0121334 0)
(1.0454 0.0116084 0)
(1.04617 0.0111456 0)
(1.04687 0.0107415 0)
(1.0475 0.0103875 0)
(1.04809 0.0100738 0)
(1.04862 0.0097935 0)
(1.04913 0.0095417 0)
(1.04959 0.00931465 0)
(1.05003 0.00910926 0)
(1.05044 0.00892292 0)
(1.05083 0.00875342 0)
(1.05119 0.00859895 0)
(1.05152 0.00845796 0)
(1.05182 0.0083292 0)
(1.0521 0.00821167 0)
(1.05234 0.00810458 0)
(1.05256 0.00800738 0)
(1.05275 0.00791972 0)
(1.05291 0.00784141 0)
(1.05304 0.00777247 0)
(1.05314 0.00771308 0)
(1.0532 0.00766355 0)
(1.05323 0.00762452 0)
(1.05322 0.00759661 0)
(1.05317 0.00758117 0)
(1.05309 0.00757899 0)
(1.05296 0.00759272 0)
(1.05279 0.00762281 0)
(1.05257 0.0076743 0)
(1.05231 0.0077462 0)
(1.05199 0.00784726 0)
(1.05163 0.00797356 0)
(1.05121 0.00813719 0)
(1.05074 0.00833119 0)
(1.05021 0.00856238 0)
(1.04963 0.00882661 0)
(1.04896 0.00909416 0)
(1.0482 0.00937724 0)
(1.04727 0.0095562 0)
(1.04606 0.00967791 0)
(1.04426 0.00960064 0)
(1.00137 0.015114 0)
(1.01787 0.0232388 0)
(1.03061 0.0188427 0)
(1.03504 0.016267 0)
(1.03657 0.015488 0)
(1.03825 0.0145012 0)
(1.03995 0.0134295 0)
(1.04126 0.0126269 0)
(1.04227 0.0120282 0)
(1.04312 0.0115177 0)
(1.04388 0.011065 0)
(1.04457 0.0106677 0)
(1.04519 0.010319 0)
(1.04576 0.0100098 0)
(1.04629 0.00973323 0)
(1.04678 0.00948459 0)
(1.04724 0.00926032 0)
(1.04767 0.00905746 0)
(1.04807 0.00887351 0)
(1.04846 0.00870636 0)
(1.04882 0.00855421 0)
(1.04916 0.00841559 0)
(1.04947 0.00828926 0)
(1.04977 0.00817423 0)
(1.05004 0.00806977 0)
(1.05029 0.00797533 0)
(1.05053 0.00789059 0)
(1.05073 0.0078154 0)
(1.05092 0.00774981 0)
(1.05109 0.00769402 0)
(1.05122 0.00764839 0)
(1.05134 0.00761359 0)
(1.05142 0.00759027 0)
(1.05148 0.00757982 0)
(1.05151 0.00758306 0)
(1.0515 0.00760262 0)
(1.05147 0.00763914 0)
(1.05139 0.00769733 0)
(1.05128 0.00777684 0)
(1.05113 0.00788538 0)
(1.05094 0.00802067 0)
(1.0507 0.00819242 0)
(1.05042 0.00839685 0)
(1.0501 0.00863743 0)
(1.04972 0.00891338 0)
(1.04927 0.00919689 0)
(1.04874 0.009498 0)
(1.04803 0.00972432 0)
(1.04706 0.00991396 0)
(1.04553 0.00999147 0)
(1.0012 0.0137363 0)
(1.0161 0.0221058 0)
(1.02828 0.0183847 0)
(1.03286 0.0158794 0)
(1.03445 0.0151764 0)
(1.03609 0.0143123 0)
(1.03777 0.0132936 0)
(1.03908 0.012505 0)
(1.04009 0.0119207 0)
(1.04093 0.0114251 0)
(1.04168 0.010983 0)
(1.04236 0.010593 0)
(1.04297 0.0102499 0)
(1.04353 0.00994526 0)
(1.04404 0.0096725 0)
(1.04452 0.00942709 0)
(1.04497 0.00920562 0)
(1.04539 0.00900527 0)
(1.04579 0.00882363 0)
(1.04616 0.00865865 0)
(1.04652 0.00850861 0)
(1.04685 0.00837204 0)
(1.04716 0.00824776 0)
(1.04746 0.00813478 0)
(1.04773 0.0080324 0)
(1.04799 0.0079401 0)
(1.04823 0.00785757 0)
(1.04845 0.00778473 0)
(1.04866 0.00772162 0)
(1.04884 0.00766852 0)
(1.04901 0.00762581 0)
(1.04915 0.0075942 0)
(1.04928 0.00757437 0)
(1.04938 0.00756775 0)
(1.04945 0.00757522 0)
(1.04951 0.00759935 0)
(1.04953 0.00764099 0)
(1.04952 0.00770453 0)
(1.04948 0.00779022 0)
(1.04942 0.00790482 0)
(1.04931 0.00804747 0)
(1.04917 0.00822595 0)
(1.049 0.00843889 0)
(1.04878 0.00868774 0)
(1.04851 0.00897359 0)
(1.04818 0.0092724 0)
(1.04778 0.0095917 0)
(1.04719 0.00986421 0)
(1.04636 0.0101238 0)
(1.045 0.0103471 0)
(1.00104 0.012463 0)
(1.01446 0.0209799 0)
(1.02607 0.017924 0)
(1.03077 0.0155002 0)
(1.03242 0.0148572 0)
(1.03402 0.0141127 0)
(1.03568 0.0131535 0)
(1.037 0.0123811 0)
(1.038 0.0118107 0)
(1.03884 0.0113304 0)
(1.03958 0.0108997 0)
(1.04024 0.0105172 0)
(1.04084 0.0101799 0)
(1.04139 0.00988004 0)
(1.04189 0.00961127 0)
(1.04236 0.0093692 0)
(1.0428 0.00915062 0)
(1.04321 0.00895284 0)
(1.0436 0.00877354 0)
(1.04396 0.00861075 0)
(1.04431 0.00846279 0)
(1.04463 0.00832823 0)
(1.04494 0.0082059 0)
(1.04522 0.00809485 0)
(1.04549 0.00799437 0)
(1.04575 0.00790398 0)
(1.04598 0.00782341 0)
(1.0462 0.00775259 0)
(1.04641 0.00769161 0)
(1.0466 0.00764079 0)
(1.04677 0.00760054 0)
(1.04692 0.00757161 0)
(1.04705 0.00755473 0)
(1.04717 0.00755134 0)
(1.04726 0.00756239 0)
(1.04733 0.0075904 0)
(1.04738 0.0076364 0)
(1.0474 0.00770452 0)
(1.04739 0.0077955 0)
(1.04736 0.00791533 0)
(1.04729 0.00806426 0)
(1.0472 0.00824868 0)
(1.04707 0.00846888 0)
(1.04691 0.00872541 0)
(1.0467 0.0090202 0)
(1.04643 0.00933405 0)
(1.04608 0.00967242 0)
(1.04556 0.00999031 0)
(1.04481 0.0103208 0)
(1.04355 0.0106817 0)
(1.0009 0.0112912 0)
(1.01295 0.0198656 0)
(1.02397 0.0174574 0)
(1.02877 0.0151299 0)
(1.03048 0.0145325 0)
(1.03204 0.0139025 0)
(1.03368 0.0130088 0)
(1.035 0.0122552 0)
(1.036 0.0116984 0)
(1.03683 0.0112336 0)
(1.03756 0.0108147 0)
(1.03822 0.0104403 0)
(1.03881 0.010109 0)
(1.03935 0.00981409 0)
(1.03984 0.00954946 0)
(1.0403 0.00931087 0)
(1.04073 0.00909528 0)
(1.04113 0.00890015 0)
(1.04151 0.00872328 0)
(1.04186 0.00856274 0)
(1.04219 0.0084169 0)
(1.04251 0.00828438 0)
(1.04281 0.00816401 0)
(1.04308 0.00805488 0)
(1.04335 0.00795628 0)
(1.04359 0.00786776 0)
(1.04382 0.00778908 0)
(1.04404 0.00772019 0)
(1.04423 0.00766124 0)
(1.04442 0.00761255 0)
(1.04459 0.00757459 0)
(1.04474 0.00754816 0)
(1.04487 0.007534 0)
(1.04498 0.00753357 0)
(1.04508 0.00754792 0)
(1.04515 0.00757948 0)
(1.0452 0.00762949 0)
(1.04523 0.00770178 0)
(1.04524 0.00779758 0)
(1.04522 0.00792221 0)
(1.04517 0.00807681 0)
(1.04509 0.00826679 0)
(1.04499 0.00849355 0)
(1.04484 0.00875756 0)
(1.04466 0.009061 0)
(1.04442 0.00938998 0)
(1.0441 0.00974863 0)
(1.04361 0.0101113 0)
(1.04289 0.0105128 0)
(1.04171 0.0110029 0)
(1.00078 0.0102174 0)
(1.01157 0.0187673 0)
(1.02199 0.0169824 0)
(1.02685 0.0147684 0)
(1.02863 0.0142044 0)
(1.03016 0.0136814 0)
(1.03176 0.0128587 0)
(1.03309 0.0121271 0)
(1.03409 0.0115837 0)
(1.03491 0.0111344 0)
(1.03564 0.0107282 0)
(1.03628 0.0103622 0)
(1.03687 0.0100371 0)
(1.0374 0.00974734 0)
(1.03788 0.009487 0)
(1.03833 0.00925202 0)
(1.03875 0.00903953 0)
(1.03914 0.00884716 0)
(1.03951 0.00867278 0)
(1.03986 0.00851457 0)
(1.04018 0.00837092 0)
(1.04049 0.00824049 0)
(1.04077 0.00812214 0)
(1.04104 0.00801495 0)
(1.0413 0.00791827 0)
(1.04154 0.00783164 0)
(1.04176 0.00775486 0)
(1.04196 0.00768791 0)
(1.04216 0.00763096 0)
(1.04233 0.0075844 0)
(1.04249 0.0075487 0)
(1.04264 0.0075247 0)
(1.04277 0.0075132 0)
(1.04288 0.00751566 0)
(1.04297 0.0075332 0)
(1.04304 0.00756819 0)
(1.04309 0.00762204 0)
(1.04312 0.00769834 0)
(1.04313 0.00779872 0)
(1.04311 0.00792798 0)
(1.04307 0.00808792 0)
(1.043 0.00828333 0)
(1.0429 0.00851632 0)
(1.04277 0.00878784 0)
(1.0426 0.00910006 0)
(1.04237 0.00944445 0)
(1.04205 0.00982467 0)
(1.04158 0.0102317 0)
(1.04089 0.0107031 0)
(1.03977 0.0113138 0)
(1.00067 0.0092375 0)
(1.01031 0.0176893 0)
(1.02012 0.0164967 0)
(1.02501 0.0144156 0)
(1.02688 0.0138749 0)
(1.02837 0.0134499 0)
(1.02994 0.0127027 0)
(1.03127 0.0119968 0)
(1.03227 0.0114667 0)
(1.03309 0.0110328 0)
(1.0338 0.0106398 0)
(1.03444 0.0102828 0)
(1.03502 0.00996416 0)
(1.03554 0.00967968 0)
(1.03601 0.0094238 0)
(1.03646 0.00919257 0)
(1.03687 0.00898331 0)
(1.03725 0.00879378 0)
(1.03761 0.00862199 0)
(1.03795 0.00846618 0)
(1.03826 0.0083248 0)
(1.03856 0.00819653 0)
(1.03884 0.00808024 0)
(1.0391 0.00797506 0)
(1.03935 0.00788033 0)
(1.03958 0.00779564 0)
(1.03979 0.00772079 0)
(1.03999 0.00765581 0)
(1.04018 0.0076009 0)
(1.04035 0.00755647 0)
(1.0405 0.00752305 0)
(1.04064 0.0075015 0)
(1.04077 0.00749266 0)
(1.04087 0.00749799 0)
(1.04096 0.00751869 0)
(1.04103 0.00755707 0)
(1.04108 0.00761471 0)
(1.0411 0.00769498 0)
(1.04111 0.00779982 0)
(1.04109 0.00793364 0)
(1.04105 0.00809874 0)
(1.04098 0.00829958 0)
(1.04089 0.00853867 0)
(1.04076 0.00881782 0)
(1.0406 0.00913917 0)
(1.04037 0.00949927 0)
(1.04006 0.00990216 0)
(1.0396 0.0103527 0)
(1.03893 0.0108922 0)
(1.03788 0.0116142 0)
(1.00058 0.0083469 0)
(1.00916 0.0166361 0)
(1.01836 0.0159987 0)
(1.02326 0.0140707 0)
(1.02521 0.0135459 0)
(1.02667 0.0132085 0)
(1.02821 0.0125401 0)
(1.02953 0.011864 0)
(1.03054 0.0113475 0)
(1.03135 0.0109288 0)
(1.03205 0.0105494 0)
(1.03269 0.0102019 0)
(1.03325 0.00989007 0)
(1.03377 0.00961105 0)
(1.03424 0.00935978 0)
(1.03467 0.00913245 0)
(1.03507 0.00892653 0)
(1.03545 0.00873996 0)
(1.0358 0.00857085 0)
(1.03613 0.00841752 0)
(1.03644 0.00827847 0)
(1.03673 0.00815242 0)
(1.037 0.00803827 0)
(1.03726 0.00793515 0)
(1.0375 0.00784243 0)
(1.03772 0.00775971 0)
(1.03793 0.00768684 0)
(1.03812 0.00762387 0)
(1.0383 0.00757102 0)
(1.03846 0.00752877 0)
(1.03861 0.00749766 0)
(1.03875 0.00747858 0)
(1.03886 0.00747242 0)
(1.03897 0.00748063 0)
(1.03905 0.00750451 0)
(1.03911 0.00754628 0)
(1.03916 0.00760767 0)
(1.03919 0.00769188 0)
(1.03919 0.00780111 0)
(1.03917 0.00793948 0)
(1.03913 0.00810964 0)
(1.03907 0.00831591 0)
(1.03897 0.00856108 0)
(1.03885 0.00884798 0)
(1.03868 0.00917885 0)
(1.03846 0.00955486 0)
(1.03816 0.00998119 0)
(1.03771 0.0104741 0)
(1.03707 0.0110786 0)
(1.03609 0.011902 0)
(1.0005 0.00754057 0)
(1.00813 0.0156119 0)
(1.01672 0.0154872 0)
(1.0216 0.013733 0)
(1.02362 0.0132192 0)
(1.02506 0.012958 0)
(1.02656 0.0123704 0)
(1.02788 0.0117285 0)
(1.02889 0.011226 0)
(1.0297 0.0108221 0)
(1.03039 0.0104568 0)
(1.03102 0.0101195 0)
(1.03158 0.00981472 0)
(1.03209 0.00954134 0)
(1.03255 0.00929484 0)
(1.03298 0.00907156 0)
(1.03337 0.00886911 0)
(1.03374 0.0086856 0)
(1.03409 0.00851927 0)
(1.03441 0.0083685 0)