/*--------------------------------*- C++ -*----------------------------------*\
  =========                 |
  \\      /  F ield         | OpenFOAM: The Open Source CFD Toolbox
   \\    /   O peration     | Website:  https://openfoam.org
    \\  /    A nd           | Version:  7
     \\/     M anipulation  |
\*---------------------------------------------------------------------------*/
FoamFile
{
    version     2.0;
    format      ascii;
    class       volVectorField;
    location    "0.36";
    object      wallShearStress;
}
// * * * * * * * * * * * * * * * * * * * * * * * * * * * * * * * * * * * * * //

dimensions      [0 2 -2 0 0 0 0];

internalField   uniform (0 0 0);

boundaryField
{
    velocityInlet
    {
        type            calculated;
        value           uniform (0 0 0);
    }
    pressureOutlet
    {
        type            calculated;
        value           uniform (0 0 0);
    }
    fixedWalls
    {
        type            calculated;
        value           nonuniform List<vector> 
100
(
(-0.0130231 -0.00305543 0)
(-0.00224324 -0.000661552 0)
(-0.00242962 0.000170571 0)
(-0.00248615 0.000121501 0)
(-0.00319844 0.000127769 0)
(-0.00333801 3.01749e-05 0)
(-0.00265853 -0.000154206 0)
(-0.00105183 -0.000295911 0)
(0.000640784 -0.000278211 0)
(0.00156535 -0.00013508 0)
(0.00131721 6.1406e-05 0)
(0.000248405 0.000161791 0)
(-0.0010701 0.000186185 0)
(-0.00223669 0.000154509 0)
(-0.00308385 0.000108429 0)
(-0.00360417 6.69733e-05 0)
(-0.00384999 3.49095e-05 0)
(-0.00386963 6.69933e-06 0)
(-0.00369171 -2.11627e-05 0)
(-0.00333264 -4.84523e-05 0)
(-0.00281102 -7.41043e-05 0)
(-0.00216121 -9.48398e-05 0)
(-0.00144886 -0.000105 0)
(-0.000775539 -9.90442e-05 0)
(-0.000261094 -7.52297e-05 0)
(8.70666e-07 -4.32334e-05 0)
(-2.27947e-05 -8.27005e-06 0)
(-0.000297276 2.42828e-05 0)
(-0.000745645 4.6859e-05 0)
(-0.00128767 5.89514e-05 0)
(-0.00185265 6.26257e-05 0)
(-0.00238688 6.02507e-05 0)
(-0.00285307 5.35702e-05 0)
(-0.00322903 4.41882e-05 0)
(-0.00350808 3.40438e-05 0)
(-0.00369714 2.49417e-05 0)
(-0.00380939 1.80416e-05 0)
(-0.00384875 1.16204e-05 0)
(-0.00380299 -3.44241e-08 0)
(-0.00365809 -1.42976e-05 0)
(-0.00342495 -2.73323e-05 0)
(-0.0031633 -3.18804e-05 0)
(-0.00298448 -2.27835e-05 0)
(-0.0030289 8.24464e-06 0)
(-0.00341297 5.62977e-05 0)
(-0.00411116 9.85263e-05 0)
(-0.00485778 0.000105138 0)
(-0.00521304 6.25197e-05 0)
(-0.00473689 -5.63997e-05 0)
(-0.00322808 -0.00019643 0)
(-0.00100798 -0.000281212 0)
(0.00109617 -0.000248887 0)
(0.00212666 -0.000112514 0)
(0.00171948 6.77671e-05 0)
(0.000333919 0.000151141 0)
(-0.00124573 0.000161291 0)
(-0.0025052 0.000118361 0)
(-0.00328472 6.88992e-05 0)
(-0.00366793 3.2975e-05 0)
(-0.00381061 1.38981e-05 0)
(-0.00383801 6.2106e-06 0)
(-0.00381715 3.64708e-06 0)
(-0.0037639 1.44249e-06 0)
(-0.00366079 -3.59739e-06 0)
(-0.00348258 -1.16798e-05 0)
(-0.00321827 -2.08657e-05 0)
(-0.00288042 -2.86127e-05 0)
(-0.00250055 -3.30607e-05 0)
(-0.00211802 -3.33866e-05 0)
(-0.00176955 -2.97581e-05 0)
(-0.00148042 -2.35454e-05 0)
(-0.00125646 -1.69786e-05 0)
(-0.0010821 -1.22423e-05 0)
(-0.000927988 -1.06473e-05 0)
(-0.000761818 -1.29086e-05 0)
(-0.000555246 -1.90325e-05 0)
(-0.000295548 -2.71729e-05 0)
(-8.00673e-06 -3.04371e-05 0)
(0.000224849 -2.5996e-05 0)
(0.000285171 -7.40375e-06 0)
(8.97984e-05 1.76015e-05 0)
(-0.000343991 3.84437e-05 0)
(-0.000899264 5.00724e-05 0)
(-0.00143389 4.6938e-05 0)
(-0.00184396 3.46645e-05 0)
(-0.00208033 1.92707e-05 0)
(-0.00214114 4.44819e-06 0)
(-0.0020476 -9.3777e-06 0)
(-0.00184468 -1.91772e-05 0)
(-0.00160685 -2.2097e-05 0)
(-0.00143998 -1.47199e-05 0)
(-0.00143934 1.04878e-07 0)
(-0.00163935 1.68521e-05 0)
(-0.0019117 1.8642e-05 0)
(-0.00212116 8.79583e-06 0)
(-0.00220693 -4.22217e-06 0)
(-0.00243782 1.5328e-05 0)
(-0.00310549 5.68661e-05 0)
(-0.00460862 0.000103089 0)
(-0.00567028 4.0082e-05 0)
)
;
    }
    bottomWall
    {
        type            calculated;
        value           nonuniform List<vector> 
800
(
(-0.0353488 0.00214398 0)
(-0.0160265 0.000524833 0)
(-0.0106078 0.000100713 0)
(-0.00845609 3.52562e-05 0)
(-0.00748649 1.98563e-05 0)
(-0.00685296 1.6117e-05 0)
(-0.00634558 1.33519e-05 0)
(-0.00593451 1.08968e-05 0)
(-0.00559976 9.0762e-06 0)
(-0.00532093 7.76078e-06 0)
(-0.00508342 6.76488e-06 0)
(-0.00487779 5.97811e-06 0)
(-0.00469759 5.34064e-06 0)
(-0.00453809 4.81524e-06 0)
(-0.00439568 4.37603e-06 0)
(-0.00426761 4.00418e-06 0)
(-0.0041517 3.68605e-06 0)
(-0.00404618 3.4113e-06 0)
(-0.00394966 3.17195e-06 0)
(-0.00386096 2.96185e-06 0)
(-0.00377913 2.77616e-06 0)
(-0.00370337 2.61123e-06 0)
(-0.00363298 2.46375e-06 0)
(-0.0035674 2.33126e-06 0)
(-0.00350613 2.21183e-06 0)
(-0.00344874 2.10353e-06 0)
(-0.00339487 2.00503e-06 0)
(-0.00334417 1.91501e-06 0)
(-0.00329639 1.83258e-06 0)
(-0.00325126 1.75686e-06 0)
(-0.00320857 1.68704e-06 0)
(-0.00316811 1.6226e-06 0)
(-0.00312971 1.56283e-06 0)
(-0.00309323 1.50737e-06 0)
(-0.0030585 1.45587e-06 0)
(-0.00302541 1.40778e-06 0)
(-0.00299385 1.36283e-06 0)
(-0.0029637 1.32086e-06 0)
(-0.00293488 1.28138e-06 0)
(-0.00290729 1.24433e-06 0)
(-0.00288087 1.20953e-06 0)
(-0.00285554 1.17678e-06 0)
(-0.00283122 1.14597e-06 0)
(-0.00280786 1.11663e-06 0)
(-0.00278542 1.089e-06 0)
(-0.00276383 1.06275e-06 0)
(-0.00274304 1.03834e-06 0)
(-0.00272302 1.0143e-06 0)
(-0.00270371 9.928e-07 0)
(-0.0026851 9.69718e-07 0)
(-0.00266954 9.50812e-07 0)
(-0.00265668 9.4002e-07 0)
(-0.002644 9.26264e-07 0)
(-0.00263149 9.11814e-07 0)
(-0.00261919 8.98189e-07 0)
(-0.00260706 8.8514e-07 0)
(-0.0025951 8.72305e-07 0)
(-0.00258332 8.59871e-07 0)
(-0.00257171 8.4786e-07 0)
(-0.00256026 8.35936e-07 0)
(-0.00254897 8.24258e-07 0)
(-0.00253784 8.12986e-07 0)
(-0.00252685 8.01954e-07 0)
(-0.00251602 7.91158e-07 0)
(-0.00250533 7.80595e-07 0)
(-0.00249479 7.70096e-07 0)
(-0.00248439 7.59994e-07 0)
(-0.00247411 7.50119e-07 0)
(-0.00246398 7.40304e-07 0)
(-0.00245398 7.3088e-07 0)
(-0.0024441 7.21511e-07 0)
(-0.00243435 7.12364e-07 0)
(-0.00242472 7.03435e-07 0)
(-0.00241522 6.94559e-07 0)
(-0.00240583 6.86066e-07 0)
(-0.00239655 6.77621e-07 0)
(-0.0023874 6.69224e-07 0)
(-0.00237835 6.61206e-07 0)
(-0.00236941 6.53233e-07 0)
(-0.00236059 6.45472e-07 0)
(-0.00235186 6.3792e-07 0)
(-0.00234323 6.3041e-07 0)
(-0.00233471 6.2294e-07 0)
(-0.00232629 6.15677e-07 0)
(-0.00231796 6.08619e-07 0)
(-0.00230973 6.01766e-07 0)
(-0.00230159 5.94948e-07 0)
(-0.00229355 5.88e-07 0)
(-0.0022856 5.81418e-07 0)
(-0.00227773 5.75038e-07 0)
(-0.00226996 5.6869e-07 0)
(-0.00226227 5.62373e-07 0)
(-0.00225466 5.56254e-07 0)
(-0.00224713 5.50165e-07 0)
(-0.0022397 5.44104e-07 0)
(-0.00223234 5.38406e-07 0)
(-0.00222505 5.32568e-07 0)
(-0.00221785 5.26924e-07 0)
(-0.00221072 5.21305e-07 0)
(-0.00220367 5.15713e-07 0)
(-0.00219669 5.10477e-07 0)
(-0.00218978 5.05099e-07 0)
(-0.00218295 4.99743e-07 0)
(-0.00217619 4.94577e-07 0)
(-0.0021695 4.89598e-07 0)
(-0.00216287 4.8464e-07 0)
(-0.00215632 4.79535e-07 0)
(-0.00214983 4.74616e-07 0)
(-0.00214341 4.69882e-07 0)
(-0.00213705 4.65166e-07 0)
(-0.00213075 4.60302e-07 0)
(-0.00212453 4.55788e-07 0)
(-0.00211835 4.51291e-07 0)
(-0.00211225 4.46644e-07 0)
(-0.0021062 4.42347e-07 0)
(-0.00210022 4.379e-07 0)
(-0.00209429 4.33467e-07 0)
(-0.00208842 4.29219e-07 0)
(-0.00208261 4.25151e-07 0)
(-0.00207686 4.20933e-07 0)
(-0.00207116 4.1673e-07 0)
(-0.00206552 4.12875e-07 0)
(-0.00205992 4.08702e-07 0)
(-0.0020544 4.0471e-07 0)
(-0.00204891 4.01066e-07 0)
(-0.00204348 3.97104e-07 0)
(-0.0020381 3.93156e-07 0)
(-0.00203278 3.89556e-07 0)
(-0.0020275 3.85802e-07 0)
(-0.00202228 3.82062e-07 0)
(-0.0020171 3.78669e-07 0)
(-0.00201196 3.74956e-07 0)
(-0.00200689 3.71422e-07 0)
(-0.00200185 3.68068e-07 0)
(-0.00199687 3.64559e-07 0)
(-0.00199192 3.61229e-07 0)
(-0.00198703 3.57914e-07 0)
(-0.00198217 3.54441e-07 0)
(-0.00197737 3.51153e-07 0)
(-0.00197261 3.48202e-07 0)
(-0.00196789 3.44944e-07 0)
(-0.00196321 3.41677e-07 0)
(-0.00195858 3.38787e-07 0)
(-0.00195398 3.35693e-07 0)
(-0.00194943 3.32517e-07 0)
(-0.00194492 3.29581e-07 0)
(-0.00194045 3.26804e-07 0)
(-0.00193602 3.23667e-07 0)
(-0.00193162 3.20955e-07 0)
(-0.00192727 3.17922e-07 0)
(-0.00192362 3.15159e-07 0)
(-0.00192064 3.13705e-07 0)
(-0.00191765 3.12083e-07 0)
(-0.00191465 3.09896e-07 0)
(-0.00191167 3.08001e-07 0)
(-0.00190866 3.06146e-07 0)
(-0.00190567 3.04083e-07 0)
(-0.00190267 3.02253e-07 0)
(-0.00189967 3.00431e-07 0)
(-0.00189666 2.98619e-07 0)
(-0.00189365 2.9659e-07 0)
(-0.00189065 2.94794e-07 0)
(-0.00188763 2.93014e-07 0)
(-0.00188462 2.91016e-07 0)
(-0.00188161 2.89038e-07 0)
(-0.00187859 2.87281e-07 0)
(-0.00187557 2.85534e-07 0)
(-0.00187255 2.83581e-07 0)
(-0.00186953 2.81853e-07 0)
(-0.00186651 2.80133e-07 0)
(-0.00186348 2.78211e-07 0)
(-0.00186046 2.76302e-07 0)
(-0.00185743 2.74607e-07 0)
(-0.0018544 2.7272e-07 0)
(-0.00185137 2.70841e-07 0)
(-0.00184834 2.69176e-07 0)
(-0.00184531 2.67519e-07 0)
(-0.00184227 2.65671e-07 0)
(-0.00183923 2.63834e-07 0)
(-0.0018362 2.62011e-07 0)
(-0.00183316 2.60191e-07 0)
(-0.00183012 2.58588e-07 0)
(-0.00182708 2.56983e-07 0)
(-0.00182404 2.55203e-07 0)
(-0.001821 2.53245e-07 0)
(-0.00181796 2.51675e-07 0)
(-0.00181492 2.50116e-07 0)
(-0.00181187 2.48382e-07 0)
(-0.00180883 2.46652e-07 0)
(-0.00180578 2.44946e-07 0)
(-0.00180273 2.43426e-07 0)
(-0.00179968 2.41744e-07 0)
(-0.00179664 2.40072e-07 0)
(-0.00179359 2.38589e-07 0)
(-0.00179053 2.36944e-07 0)
(-0.00178748 2.35308e-07 0)
(-0.00178443 2.33865e-07 0)
(-0.00178137 2.3243e-07 0)
(-0.00177831 2.30826e-07 0)
(-0.00177526 2.29252e-07 0)
(-0.0017722 2.27681e-07 0)
(-0.00176914 2.26297e-07 0)
(-0.00176608 2.24929e-07 0)
(-0.00176301 2.23562e-07 0)
(-0.00175994 2.2205e-07 0)
(-0.00175688 2.20545e-07 0)
(-0.0017538 2.19375e-07 0)
(-0.00175073 2.18065e-07 0)
(-0.00174765 2.16598e-07 0)
(-0.00174457 2.15311e-07 0)
(-0.00174149 2.1404e-07 0)
(-0.00173841 2.12774e-07 0)
(-0.00173532 2.11527e-07 0)
(-0.00173222 2.10287e-07 0)
(-0.00172913 2.09047e-07 0)
(-0.00172603 2.07993e-07 0)
(-0.00172292 2.06798e-07 0)
(-0.00171982 2.05615e-07 0)
(-0.0017167 2.0459e-07 0)
(-0.00171359 2.03577e-07 0)
(-0.00171046 2.02588e-07 0)
(-0.00170733 2.01453e-07 0)
(-0.0017042 2.00484e-07 0)
(-0.00170106 1.99385e-07 0)
(-0.00169792 1.9855e-07 0)
(-0.00169475 1.97788e-07 0)
(-0.00169159 1.9668e-07 0)
(-0.00168843 1.95984e-07 0)
(-0.00168525 1.95123e-07 0)
(-0.00168206 1.9441e-07 0)
(-0.00167887 1.93539e-07 0)
(-0.00167566 1.93133e-07 0)
(-0.00167245 1.91812e-07 0)
(-0.00166922 1.92121e-07 0)
(-0.001666 1.90206e-07 0)
(-0.00166272 1.9162e-07 0)
(-0.00165951 1.87936e-07 0)
(-0.00165615 1.92449e-07 0)
(-0.00165299 1.84328e-07 0)
(-0.0016495 1.95591e-07 0)
(-0.00164647 1.7762e-07 0)
(-0.00164272 2.03979e-07 0)
(-0.00163997 1.64071e-07 0)
(-0.00163573 2.22608e-07 0)
(-0.00163356 1.37026e-07 0)
(-0.00162846 2.60072e-07 0)
(-0.00162731 8.5306e-08 0)
(-0.00162088 3.25883e-07 0)
(-0.00162121 3.03412e-09 0)
(-0.00161305 3.60062e-07 0)
(-0.0353488 -0.00214399 0)
(-0.0160261 -0.000524851 0)
(-0.0106069 -0.000100734 0)
(-0.00845455 -3.52757e-05 0)
(-0.00748438 -1.98753e-05 0)
(-0.00685028 -1.61353e-05 0)
(-0.00634242 -1.33687e-05 0)
(-0.0059309 -1.09131e-05 0)
(-0.00559573 -9.09292e-06 0)
(-0.00531643 -7.77898e-06 0)
(-0.0050784 -6.78567e-06 0)
(-0.00487217 -6.00244e-06 0)
(-0.00469124 -5.36911e-06 0)
(-0.00453089 -4.84823e-06 0)
(-0.00438751 -4.41404e-06 0)
(-0.00425833 -4.04774e-06 0)
(-0.00414116 -3.7356e-06 0)
(-0.00403424 -3.46718e-06 0)
(-0.00393617 -3.23445e-06 0)
(-0.00384578 -3.03155e-06 0)
(-0.00376209 -2.85354e-06 0)
(-0.0036843 -2.69684e-06 0)
(-0.00361172 -2.55835e-06 0)
(-0.00354376 -2.43572e-06 0)
(-0.0034799 -2.32707e-06 0)
(-0.00341971 -2.231e-06 0)
(-0.00336278 -2.14628e-06 0)
(-0.00330876 -2.07199e-06 0)
(-0.00325734 -2.00713e-06 0)
(-0.00320823 -1.95164e-06 0)
(-0.00316116 -1.90462e-06 0)
(-0.00311589 -1.86652e-06 0)
(-0.00307219 -1.8361e-06 0)
(-0.00302979 -1.81554e-06 0)
(-0.00298853 -1.80108e-06 0)
(-0.00294812 -1.7987e-06 0)
(-0.00290843 -1.79925e-06 0)
(-0.00286916 -1.815e-06 0)
(-0.00283011 -1.8269e-06 0)
(-0.00279129 -1.85567e-06 0)
(-0.00275189 -1.86926e-06 0)
(-0.00271337 -1.88626e-06 0)
(-0.00267236 -1.88088e-06 0)
(-0.00263587 -1.79744e-06 0)
(-0.00259135 -1.73323e-06 0)
(-0.00256406 -1.26739e-06 0)
(-0.00251324 -1.08886e-06 0)
(-0.00251507 8.75055e-07 0)
(-0.00247 -2.64918e-06 0)
(-0.00235367 0.000173163 0)
(4.65951e-05 -2.70493e-05 0)
(2.64661e-05 -0.000112213 0)
(-4.40772e-06 -0.00013003 0)
(-3.32092e-06 -0.000109133 0)
(5.86075e-06 -9.69868e-05 0)
(-2.34399e-06 -8.25772e-05 0)
(-1.51081e-05 -6.03641e-05 0)
(-2.18729e-05 -2.94161e-05 0)
(-2.65759e-05 4.06663e-06 0)
(-3.17531e-05 4.09367e-05 0)
(-3.82703e-05 8.32146e-05 0)
(-4.65484e-05 0.000133384 0)
(-5.68756e-05 0.000193402 0)
(-6.90288e-05 0.000265596 0)
(-8.19676e-05 0.00035104 0)
(-9.37993e-05 0.000448903 0)
(-0.000101995 0.000555588 0)
(-0.000103703 0.000664636 0)
(-9.6216e-05 0.000766771 0)
(-7.77782e-05 0.000850645 0)
(-4.8421e-05 0.000905459 0)
(-1.01645e-05 0.000920537 0)
(3.36839e-05 0.000888691 0)
(7.9935e-05 0.000806996 0)
(0.000124356 0.000677157 0)
(0.000163192 0.000505245 0)
(0.000194179 0.00030019 0)
(0.00021614 7.0222e-05 0)
(0.00022859 -0.000173459 0)
(0.000233068 -0.000420697 0)
(0.000231327 -0.000666205 0)
(0.000224814 -0.00090493 0)
(0.000215049 -0.00113364 0)
(0.00020281 -0.00135097 0)
(0.000187049 -0.00155683 0)
(0.000163018 -0.00175122 0)
(0.000120708 -0.00193095 0)
(4.81933e-05 -0.0020839 0)
(-5.43874e-05 -0.00218574 0)
(-0.000157367 -0.00221108 0)
(-0.000213573 -0.00215998 0)
(-0.000199186 -0.00206161 0)
(-0.000132138 -0.00195007 0)
(-5.52492e-05 -0.00184958 0)
(-1.80696e-06 -0.00176989 0)
(1.46309e-05 -0.00170958 0)
(-4.02985e-06 -0.00165977 0)
(-4.91865e-05 -0.00159684 0)
(-0.000109824 -0.0014977 0)
(-0.000173896 -0.00135448 0)
(-0.000230145 -0.00117104 0)
(-0.000270261 -0.000959612 0)
(-0.000291899 -0.000738633 0)
(-0.000295745 -0.000519527 0)
(-0.000285241 -0.00031189 0)
(-0.000266489 -0.000124139 0)
(-0.000252817 4.53063e-05 0)
(-0.000241927 0.000214578 0)
(-0.000223994 0.000383225 0)
(-0.000188741 0.000518354 0)
(-0.000138795 0.000582926 0)
(-8.80662e-05 0.00057912 0)
(-4.68721e-05 0.000533871 0)
(-2.05306e-05 0.000519825 0)
(-5.96327e-07 0.00050817 0)
(1.47262e-05 0.000485318 0)
(2.55355e-05 0.000454095 0)
(3.20386e-05 0.000417408 0)
(3.4515e-05 0.00037805 0)
(3.33376e-05 0.000338551 0)
(2.90348e-05 0.000301141 0)
(2.21964e-05 0.000267651 0)
(1.33139e-05 0.000239414 0)
(2.56032e-06 0.000217361 0)
(-1.06092e-05 0.000201983 0)
(-2.78683e-05 0.000196795 0)
(-5.10991e-05 0.00020691 0)
(-7.27877e-05 0.000234705 0)
(-7.40113e-05 0.00027747 0)
(-4.09904e-05 0.000318915 0)
(1.86449e-05 0.00034412 0)
(8.68442e-05 0.000348261 0)
(0.000150954 0.000342699 0)
(0.000198018 0.000321021 0)
(0.000220202 0.000289533 0)
(0.000214682 0.000254834 0)
(0.000183135 0.000224203 0)
(0.000132468 0.000203523 0)
(7.50542e-05 0.000196204 0)
(2.61818e-05 0.000198478 0)
(-5.7499e-06 0.000200482 0)
(-2.362e-05 0.000194929 0)
(-3.55838e-05 0.000182462 0)
(-4.66817e-05 0.000170168 0)
(-5.5338e-05 0.000165273 0)
(-5.67478e-05 0.000169495 0)
(-4.85398e-05 0.000179814 0)
(-3.24868e-05 0.000189473 0)
(-1.36124e-05 0.000194268 0)
(2.45777e-06 0.000194846 0)
(1.36397e-05 0.000193765 0)
(2.13515e-05 0.000192445 0)
(2.79513e-05 0.000190037 0)
(3.5388e-05 0.000184741 0)
(4.46774e-05 0.000174571 0)
(5.60037e-05 0.000157925 0)
(6.88506e-05 0.000134026 0)
(8.21171e-05 0.000102553 0)
(9.43264e-05 6.3823e-05 0)
(0.000103471 1.91642e-05 0)
(0.000108111 -2.87006e-05 0)
(0.000107835 -7.66595e-05 0)
(0.000103777 -0.000122557 0)
(9.69247e-05 -0.000164542 0)
(8.86742e-05 -0.000201671 0)
(8.02305e-05 -0.000233839 0)
(7.24365e-05 -0.000261309 0)
(6.58903e-05 -0.000284535 0)
(6.10798e-05 -0.000304155 0)
(5.83509e-05 -0.000321098 0)
(5.77098e-05 -0.000336536 0)
(5.86449e-05 -0.00035162 0)
(6.01323e-05 -0.000367128 0)
(6.06012e-05 -0.000383066 0)
(5.85848e-05 -0.000399464 0)
(5.34456e-05 -0.00041577 0)
(4.59281e-05 -0.000427809 0)
(3.92435e-05 -0.000428951 0)
(3.53607e-05 -0.000414497 0)
(3.09238e-05 -0.000389369 0)
(1.75071e-05 -0.000363133 0)
(-1.61304e-05 -0.000338716 0)
(-7.85154e-05 -0.000307258 0)
(-0.000166612 -0.000251558 0)
(-0.000261389 -0.000159887 0)
(-0.000342155 -3.9929e-05 0)
(-0.000401357 9.17558e-05 0)
(-0.000441402 0.00022486 0)
(-0.000465103 0.000354898 0)
(-0.000476153 0.000480294 0)
(-0.000477625 0.000600009 0)
(-0.000472019 0.000713487 0)
(-0.000461193 0.000820568 0)
(-0.000446442 0.0009212 0)
(-0.000428639 0.00101536 0)
(-0.00040836 0.00110298 0)
(-0.000386263 0.00118478 0)
(-0.000362235 0.00125984 0)
(-0.000336397 0.00132795 0)
(-0.00030889 0.00138894 0)
(-0.000279827 0.00144269 0)
(-0.000249327 0.00148907 0)
(-0.000217527 0.00152796 0)
(-0.000184699 0.00156011 0)
(-0.000150915 0.00158521 0)
(-0.00011628 0.00160292 0)
(-8.09447e-05 0.00161322 0)
(-4.509e-05 0.00161608 0)
(-9.2893e-06 0.00161157 0)
(2.64987e-05 0.0016003 0)
(6.25226e-05 0.00158216 0)
(9.84664e-05 0.00155728 0)
(0.000134264 0.00152573 0)
(0.000169729 0.00148764 0)
(0.000204675 0.00144317 0)
(0.000238899 0.00139252 0)
(0.000272158 0.00133586 0)
(0.000304144 0.00127342 0)
(0.00033449 0.0012055 0)
(0.000362831 0.00113247 0)
(0.000388776 0.00105474 0)
(0.000411921 0.000972788 0)
(0.000431907 0.000887134 0)
(0.000449901 0.000801696 0)
(0.000463845 0.000713712 0)
(0.000473414 0.000623754 0)
(0.000478023 0.00053224 0)
(0.000477079 0.000439866 0)
(0.00047008 0.000347613 0)
(0.000456633 0.000256662 0)
(0.000436546 0.000168404 0)
(0.000409919 8.43854e-05 0)
(0.00037713 6.17951e-06 0)
(0.00033873 -6.47201e-05 0)
(0.000295709 -0.000126975 0)
(0.000249578 -0.000179698 0)
(0.000202076 -0.000222973 0)
(0.000155165 -0.000258386 0)
(0.000108064 -0.000283826 0)
(6.22041e-05 -0.000299526 0)
(1.88083e-05 -0.000305881 0)
(-2.11194e-05 -0.000303734 0)
(-5.68886e-05 -0.000294677 0)
(-8.844e-05 -0.000282528 0)
(-0.000117348 -0.000274201 0)
(-0.000147417 -0.000278959 0)
(-0.000192849 -0.000320731 0)
(-0.000280213 -0.000429521 0)
(-0.000447292 -0.000636144 0)
(-0.000696957 -0.00094374 0)
(-2.12306e-06 -5.35697e-05 0)
(7.37964e-05 -6.59051e-05 0)
(0.000128437 -4.17988e-05 0)
(0.000130456 8.44441e-06 0)
(8.54473e-05 4.10373e-05 0)
(2.74061e-05 3.93231e-05 0)
(-1.31955e-05 1.35016e-05 0)
(-1.64527e-05 -1.46402e-05 0)
(1.39316e-05 -1.79362e-05 0)
(4.14313e-05 3.94829e-06 0)
(4.20777e-05 2.36819e-05 0)
(3.68892e-05 1.90901e-05 0)
(5.92766e-05 -2.1086e-05 0)
(0.000143364 -0.000106178 0)
(0.000278042 -0.00013048 0)
(0.00035422 -7.30423e-05 0)
(0.000373649 -3.47544e-05 0)
(0.000380914 -1.34349e-05 0)
(0.00037238 5.26818e-06 0)
(0.000355315 1.57775e-05 0)
(0.000332661 2.36955e-05 0)
(0.000305711 2.93555e-05 0)
(0.000277199 3.29808e-05 0)
(0.000248365 3.69197e-05 0)
(0.000217061 4.40511e-05 0)
(0.000177029 5.50531e-05 0)
(0.000120808 6.49575e-05 0)
(4.8607e-05 6.46218e-05 0)
(-2.42653e-05 5.182e-05 0)
(-8.61234e-05 3.61066e-05 0)
(-0.000133658 2.81929e-05 0)
(-0.000162233 2.8234e-05 0)
(-0.000164572 3.99614e-05 0)
(-0.000148279 6.83819e-05 0)
(-0.000128735 9.86629e-05 0)
(-0.000109645 0.000103841 0)
(-7.8213e-05 6.208e-05 0)
(-1.0087e-05 -3.96042e-05 0)
(0.000129651 -0.000173641 0)
(0.00033365 -0.000242022 0)
(0.000523311 -0.000203366 0)
(0.00066159 -0.000173995 0)
(0.000803515 -0.000205594 0)
(0.000973923 -0.000234161 0)
(0.00114066 -0.000240284 0)
(0.00129152 -0.000227065 0)
(0.00141621 -0.000193916 0)
(0.00150926 -0.000155217 0)
(0.00157625 -0.000119745 0)
(0.00162169 -8.94879e-05 0)
(0.00164888 -6.3522e-05 0)
(0.00165899 -4.0086e-05 0)
(0.00165225 -1.92191e-05 0)
(0.00163135 -5.50868e-07 0)
(0.00159745 1.7264e-05 0)
(0.00154998 3.50291e-05 0)
(0.00148869 5.36041e-05 0)
(0.00141231 7.31593e-05 0)
(0.00132027 9.34088e-05 0)
(0.00121213 0.000114439 0)
(0.00108731 0.000136209 0)
(0.00094533 0.000158691 0)
(0.000785564 0.000181827 0)
(0.000607527 0.000205322 0)
(0.000411051 0.000228614 0)
(0.000196584 0.000250814 0)
(-3.45975e-05 0.000270506 0)
(-0.000281307 0.000286456 0)
(-0.000539079 0.000296859 0)
(-0.000801774 0.000301027 0)
(-0.00106455 0.000298915 0)
(-0.00132251 0.000290055 0)
(-0.00157021 0.000275078 0)
(-0.00180301 0.000255152 0)
(-0.00201744 0.000231541 0)
(-0.0022116 0.000204791 0)
(-0.00238331 0.000175721 0)
(-0.00253222 0.000144363 0)
(-0.00265641 0.00011042 0)
(-0.00275621 7.11097e-05 0)
(-0.00282425 2.44399e-05 0)
(-0.00285935 -3.13204e-05 0)
(-0.00284871 -9.72562e-05 0)
(-0.00278896 -0.000169657 0)
(-0.00267625 -0.000248338 0)
(-0.00251244 -0.000331984 0)
(-0.00228343 -0.000428779 0)
(-0.00198583 -0.000530826 0)
(-0.00160664 -0.000653873 0)
(-0.00110514 -0.000766431 0)
(-0.000437405 -0.000732675 0)
(0.000189073 -0.000270219 0)
(0.000295803 0.000249921 0)
(0.000255433 0.000200027 0)
(0.00024164 7.37384e-05 0)
(0.000221126 5.24898e-05 0)
(0.000194273 4.50645e-05 0)
(0.000154563 6.3141e-05 0)
(8.15989e-05 7.59973e-05 0)
(-1.85552e-06 5.64055e-05 0)
(5.17853e-05 2.24831e-05 0)
(7.26281e-05 0.000123395 0)
(9.68762e-05 0.000245462 0)
(8.49099e-05 0.000373481 0)
(8.92646e-06 0.000407471 0)
(-8.72428e-05 0.000291942 0)
(-0.000129591 9.10202e-05 0)
(-0.000126357 -0.000119151 0)
(-9.10094e-05 -0.000291104 0)
(-3.7696e-05 -0.00040114 0)
(2.61595e-05 -0.000437025 0)
(8.7889e-05 -0.000398727 0)
(0.000120085 -0.000294192 0)
(9.78434e-05 -0.000153704 0)
(3.89803e-05 -2.98632e-05 0)
(-1.56995e-05 4.25186e-05 0)
(-4.27828e-05 6.33718e-05 0)
(-4.04459e-05 5.65786e-05 0)
(-1.03397e-05 5.93696e-05 0)
(3.58203e-05 0.000101498 0)
(7.54785e-05 0.00018604 0)
(8.78345e-05 0.000285132 0)
(7.04268e-05 0.000362524 0)
(3.65102e-05 0.000397355 0)
(6.90821e-07 0.000389193 0)
(-2.84586e-05 0.000348124 0)
(-4.72826e-05 0.000282562 0)
(-5.03427e-05 0.000207208 0)
(-3.56776e-05 0.000142528 0)
(-1.10932e-05 0.000106158 0)
(9.75026e-06 0.000102947 0)
(2.12416e-05 0.000132121 0)
(1.66684e-05 0.000160401 0)
(1.3938e-06 0.000174641 0)
(-2.07688e-05 0.00017097 0)
(-5.22773e-05 0.000146058 0)
(-8.78745e-05 8.74325e-05 0)
(-0.00012721 -1.03799e-05 0)
(-0.000155164 -0.000141475 0)
(-0.000173237 -0.000279089 0)
(-0.000195708 -0.000419446 0)
(-0.000199863 -0.000579792 0)
(-0.000164932 -0.000729566 0)
(-0.000132633 -0.00085866 0)
(-0.000130788 -0.00101497 0)
(-0.000115073 -0.00121226 0)
(-7.05474e-05 -0.00140053 0)
(-7.94793e-05 -0.00154175 0)
(-0.00019741 -0.00168732 0)
(-0.00036949 -0.00189907 0)
(-0.000491185 -0.00215831 0)
(-0.000515411 -0.00242693 0)
(-0.000440123 -0.00266212 0)
(-0.000273155 -0.00280423 0)
(-4.07156e-05 -0.002825 0)
(0.000237842 -0.00267646 0)
(0.000537888 -0.00230088 0)
(0.00078557 -0.00165477 0)
(0.000924508 -0.000850715 0)
(0.00100412 -6.25516e-05 0)
(0.00100173 0.000728132 0)
(0.000769324 0.00147735 0)
(0.000451547 0.00195567 0)
(0.000374387 0.00219805 0)
(0.000353265 0.00240308 0)
(-5.77538e-06 0.00276897 0)
(-0.000674771 0.0029629 0)
(-0.000610554 0.00269824 0)
(0.000985121 0.00272885 0)
(0.00269605 0.0041727 0)
(0.00223271 0.0061376 0)
(0.00062067 0.00657691 0)
(0.000339783 0.00616022 0)
(0.0005265 0.00637714 0)
(7.50552e-05 0.00656824 0)
(-0.000130306 0.00631912 0)
(-2.02664e-05 0.0062418 0)
(-0.000140179 0.00623772 0)
(-0.000220337 0.006072 0)
(-0.000162734 0.00595997 0)
(-0.000185443 0.00589685 0)
(-0.000208356 0.00577937 0)
(-0.000176492 0.0056807 0)
(-0.000171552 0.00560967 0)
(-0.000171719 0.00552388 0)
(-0.00015176 0.00544681 0)
(-0.00014084 0.00538477 0)
(-0.000133328 0.00532124 0)
(-0.00011899 0.00526344 0)
(-0.000108043 0.0052142 0)
(-9.89156e-05 0.00516712 0)
(-8.77444e-05 0.00512439 0)
(-7.81765e-05 0.00508691 0)
(-6.973e-05 0.00505207 0)
(-6.10803e-05 0.00502034 0)
(-5.36583e-05 0.00499176 0)
(-4.7436e-05 0.00496499 0)
(-4.21289e-05 0.00493981 0)
(-3.84332e-05 0.00491574 0)
(-3.64821e-05 0.00489183 0)
(-3.62621e-05 0.0048675 0)
(-3.80178e-05 0.00484213 0)
(-4.16906e-05 0.00481495 0)
(-4.70839e-05 0.00478546 0)
(-5.40216e-05 0.00475323 0)
(-6.21732e-05 0.0047179 0)
(-7.11785e-05 0.00467934 0)
(-8.0677e-05 0.00463751 0)
(-9.0291e-05 0.00459253 0)
(-9.96924e-05 0.00454463 0)
(-0.000108606 0.00449412 0)
(-0.000116799 0.00444138 0)
(-0.000124092 0.00438682 0)
(-0.000130389 0.00433091 0)
(-0.000135641 0.00427408 0)
(-0.000139857 0.00421675 0)
(-0.000143084 0.00415927 0)
(-0.000145382 0.00410197 0)
(-0.000146844 0.00404515 0)
(-0.00014756 0.003989 0)
(-0.000147619 0.00393372 0)
(-0.000147099 0.00387943 0)
(-0.000146046 0.00382623 0)
(-0.000144494 0.00377421 0)
(-0.000142464 0.00372343 0)
(-0.000139957 0.00367397 0)
(-0.000136941 0.00362586 0)
(-0.000133387 0.00357919 0)
(-0.000129276 0.00353403 0)
(-0.000124563 0.00349044 0)
(-0.000119218 0.00344852 0)
(-0.000113265 0.00340835 0)
(-0.000106714 0.00336997 0)
(-9.96142e-05 0.00333349 0)
(-9.21093e-05 0.00329896 0)
(-8.43488e-05 0.00326638 0)
(-7.657e-05 0.00323577 0)
(-6.90776e-05 0.00320707 0)
(-6.22225e-05 0.00318017 0)
(-5.64163e-05 0.00315488 0)
(-5.20585e-05 0.0031309 0)
(-4.95042e-05 0.00310782 0)
(-4.90157e-05 0.00308514 0)
(-5.06894e-05 0.0030623 0)
(-5.44457e-05 0.00303872 0)
(-6.00517e-05 0.00301388 0)
(-6.71129e-05 0.00298739 0)
(-7.51882e-05 0.00295899 0)
(-8.38263e-05 0.00292856 0)
(-9.26263e-05 0.00289614 0)
(-0.000101273 0.00286182 0)
(-0.000109544 0.00282578 0)
(-0.000117311 0.00278819 0)
(-0.000124508 0.00274926 0)
(-0.000131166 0.00270919 0)
(-0.000137339 0.00266818 0)
(-0.000143151 0.00262643 0)
(-0.000148753 0.00258407 0)
(-0.000154319 0.00254128 0)
(-0.000160052 0.00249814 0)
(-0.000166124 0.00245472 0)
(-0.000172737 0.00241107 0)
(-0.000180055 0.00236716 0)
(-0.000188188 0.002323 0)
(-0.000197254 0.00227855 0)
(-0.000207357 0.00223377 0)
(-0.000218553 0.00218865 0)
(-0.000230914 0.00214315 0)
(-0.000244536 0.00209727 0)
(-0.000259508 0.00205096 0)
(-0.000275917 0.00200419 0)
(-0.000293869 0.0019569 0)
(-0.000313495 0.00190904 0)
(-0.00033493 0.00186052 0)
(-0.000358305 0.00181125 0)
(-0.000383774 0.00176115 0)
(-0.00041154 0.00171012 0)
(-0.000441795 0.00165803 0)
(-0.000474796 0.00160478 0)
(-0.000510883 0.00155024 0)
(-0.000550472 0.00149418 0)
(-0.000593925 0.00143602 0)
(-0.000645066 0.00138372 0)
(-0.000704351 0.0013345 0)
(-0.000771278 0.00128312 0)
(-0.000846907 0.00122828 0)
(-0.000932304 0.00116873 0)
(-0.00102841 0.00110312 0)
(-0.00113605 0.00103007 0)
(-0.00125597 0.000948533 0)
(-0.00138905 0.000858301 0)
(-0.00153709 0.000760281 0)
(-0.00170868 0.000656222 0)
(-0.00191143 0.000544059 0)
(-0.00214179 0.000417035 0)
(-0.00239317 0.00026844 0)
(-0.00265174 5.49219e-05 0)
(-0.00292669 -0.000142836 0)
(-0.00318346 -0.000674118 0)
(-0.00317804 -0.000137426 0)
)
;
    }
    frontAndBack
    {
        type            empty;
    }
}


// ************************************************************************* //
