/*--------------------------------*- C++ -*----------------------------------*\
  =========                 |
  \\      /  F ield         | OpenFOAM: The Open Source CFD Toolbox
   \\    /   O peration     | Website:  https://openfoam.org
    \\  /    A nd           | Version:  7
     \\/     M anipulation  |
\*---------------------------------------------------------------------------*/
FoamFile
{
    version     2.0;
    format      ascii;
    class       volScalarField;
    location    "0.36";
    object      yPlus;
}
// * * * * * * * * * * * * * * * * * * * * * * * * * * * * * * * * * * * * * //

dimensions      [0 0 0 0 0 0 0];

internalField   uniform 0;

boundaryField
{
    velocityInlet
    {
        type            calculated;
        value           uniform 0;
    }
    pressureOutlet
    {
        type            calculated;
        value           uniform 0;
    }
    fixedWalls
    {
        type            calculated;
        value           nonuniform List<scalar> 
100
(
1.83062
0.761688
0.774818
0.780687
0.885689
0.904042
0.806282
0.508936
0.400248
0.618575
0.566858
0.248692
0.513072
0.740672
0.869621
0.940172
0.971739
0.97421
0.951533
0.904059
0.830295
0.728066
0.596267
0.436673
0.254844
0.0810264
0.0821324
0.270599
0.427966
0.562185
0.674235
0.765246
0.836619
0.890021
0.92768
0.952358
0.966718
0.971684
0.965859
0.947262
0.916589
0.880925
0.85576
0.86223
0.91532
1.00451
1.09175
1.13067
1.07746
0.889354
0.4987
0.519741
0.7216
0.648567
0.287393
0.553169
0.783829
0.897531
0.948509
0.966841
0.970344
0.967715
0.960937
0.947668
0.924301
0.888529
0.840602
0.783229
0.720856
0.658915
0.602701
0.555249
0.515273
0.477147
0.432284
0.369006
0.269254
0.0632276
0.235008
0.264285
0.147916
0.29084
0.469822
0.593114
0.67255
0.714346
0.724709
0.708703
0.672687
0.627867
0.594422
0.594326
0.634242
0.684824
0.72131
0.735806
0.773445
0.873032
1.06335
1.17938
)
;
    }
    bottomWall
    {
        type            calculated;
        value           nonuniform List<scalar> 
800
(
2.94479
1.98391
1.61345
1.44036
1.35525
1.29664
1.24772
1.20662
1.1721
1.14254
1.11675
1.09393
1.07354
1.05515
1.03847
1.02323
1.00923
0.996327
0.984371
0.973255
0.962887
0.953186
0.944084
0.935525
0.927456
0.919834
0.912621
0.905782
0.899288
0.89311
0.887227
0.881616
0.876257
0.871134
0.866231
0.861532
0.857026
0.8527
0.848543
0.844547
0.8407
0.836995
0.833424
0.829979
0.826655
0.823445
0.820342
0.817344
0.81444
0.811632
0.809277
0.807326
0.805396
0.80349
0.801608
0.79975
0.797915
0.796102
0.79431
0.79254
0.790791
0.789061
0.787353
0.785663
0.783992
0.78234
0.780708
0.779092
0.777495
0.775915
0.774352
0.772806
0.771277
0.769763
0.768266
0.766784
0.765318
0.763866
0.762429
0.761008
0.759599
0.758205
0.756825
0.755459
0.754106
0.752766
0.751438
0.750124
0.748823
0.747534
0.746256
0.744991
0.743738
0.742495
0.741265
0.740046
0.738838
0.737641
0.736454
0.735279
0.734114
0.732959
0.731815
0.730681
0.729556
0.728441
0.727336
0.726242
0.725156
0.724079
0.723012
0.721955
0.720906
0.719866
0.718835
0.717813
0.716799
0.715795
0.714798
0.713809
0.71283
0.711858
0.710894
0.709939
0.708991
0.70805
0.707118
0.706194
0.705276
0.704367
0.703465
0.702569
0.701683
0.700802
0.699928
0.699062
0.698202
0.697349
0.696504
0.695664
0.694831
0.694005
0.693186
0.692372
0.691565
0.690765
0.68997
0.689181
0.688399
0.687623
0.686971
0.686438
0.685904
0.685369
0.684834
0.684296
0.683759
0.68322
0.682681
0.682141
0.6816
0.681059
0.680516
0.679972
0.679428
0.678884
0.678338
0.677792
0.677245
0.676697
0.676148
0.675599
0.675049
0.674498
0.673947
0.673395
0.672842
0.672288
0.671734
0.671179
0.670625
0.670069
0.669512
0.668954
0.668396
0.667838
0.667279
0.666719
0.666158
0.665597
0.665036
0.664473
0.66391
0.663346
0.662781
0.662216
0.661651
0.661084
0.660516
0.659948
0.659379
0.65881
0.658239
0.657668
0.657095
0.656522
0.655948
0.655373
0.654796
0.65422
0.653641
0.653062
0.652482
0.6519
0.651318
0.650734
0.650148
0.649562
0.648973
0.648384
0.647792
0.647199
0.646605
0.646009
0.645412
0.644811
0.64421
0.643606
0.643
0.642392
0.641782
0.641168
0.640555
0.639935
0.639317
0.638687
0.638072
0.637426
0.636817
0.636144
0.635559
0.634834
0.634303
0.633483
0.633063
0.632073
0.63185
0.630601
0.630664
0.629074
2.94479
1.98388
1.61338
1.44023
1.35506
1.29638
1.2474
1.20626
1.17168
1.14206
1.1162
1.0933
1.07281
1.05432
1.0375
1.02211
1.00795
0.994856
0.982689
0.97134
0.960713
0.950729
0.941317
0.932419
0.92398
0.915954
0.908298
0.900973
0.893945
0.88718
0.880649
0.874319
0.868166
0.862155
0.856265
0.850456
0.844711
0.83899
0.833261
0.827526
0.821665
0.815895
0.809705
0.804157
0.797339
0.793128
0.785234
0.785516
0.778856
0.760003
0.627592
1.03871
1.13246
1.0558
0.987829
0.892158
0.760794
0.544101
0.367865
0.670193
0.931903
1.17181
1.40669
1.64502
1.88762
2.13042
2.36527
2.58163
2.76723
2.90915
2.99672
3.01805
2.9629
2.8222
2.58628
2.23997
1.75067
1.09125
1.4318
2.08474
2.59518
3.01407
3.36844
3.67392
3.94022
4.17264
4.37137
4.53022
4.63703
4.6783
4.65198
4.57162
4.45784
4.33526
4.22386
4.13241
4.05713
3.97038
3.84066
3.6523
3.40128
3.09082
2.73158
2.32327
1.86389
1.37463
1.15601
1.53973
1.96549
2.26274
2.39159
2.38156
2.28805
2.26091
2.23875
2.19131
2.12316
2.03916
1.94436
1.84375
1.74256
1.64632
1.56076
1.49216
1.44657
1.44
1.4832
1.55765
1.63664
1.6953
1.73515
1.76384
1.8024
1.81716
1.80319
1.75916
1.69351
1.62222
1.56619
1.53044
1.49709
1.45149
1.39561
1.34318
1.30841
1.29558
1.30402
1.32178
1.33927
1.35452
1.3664
1.37329
1.37028
1.3516
1.31158
1.24465
1.14662
1.01353
0.847494
0.702703
0.76203
0.950438
1.13311
1.28842
1.41716
1.52332
1.61089
1.6834
1.74396
1.7956
1.84131
1.88373
1.92442
1.96327
2.00164
2.04189
2.07857
2.09542
2.07105
1.99967
1.88609
1.72672
1.5099
1.24696
1.09807
1.28658
1.58041
1.86262
2.11792
2.34718
2.55363
2.74
2.90843
3.06063
3.19801
3.32171
3.43377
3.53361
3.62179
3.69883
3.76518
3.8212
3.86723
3.90457
3.93308
3.95258
3.96323
3.96507
3.95816
3.94313
3.91966
3.88785
3.84766
3.79907
3.74206
3.67658
3.60259
3.52002
3.42881
3.32892
3.22031
3.10294
2.9771
2.84875
2.7119
2.56619
2.41127
2.24698
2.07368
1.89267
1.70734
1.5255
1.36376
1.25104
1.21405
1.24439
1.30872
1.38373
1.44926
1.50017
1.53491
1.55353
1.55617
1.54536
1.52342
1.48554
1.45572
1.47685
1.64438
2.0453
0.555456
1.14376
1.4008
1.38249
1.15836
0.762342
0.314733
0.513877
0.414701
0.747667
0.829678
0.873049
1.15414
1.68485
2.15285
2.35606
2.43642
2.47021
2.44719
2.3961
2.32066
2.2268
2.12162
2.0071
1.87438
1.6961
1.42157
0.977515
0.642035
1.16554
1.48742
1.66598
1.71722
1.6881
1.62929
1.50915
1.18234
0.790889
1.76145
2.43172
2.9096
3.29867
3.66357
4.01862
4.32875
4.58767
4.79127
4.94282
5.05261
5.12718
5.17169
5.18873
5.17915
5.14683
5.0932
5.01659
4.91569
4.78723
4.62797
4.43378
4.19895
3.91541
3.57091
3.14614
2.60812
1.90713
1.47352
2.26843
3.01936
3.64413
4.18041
4.64855
5.05857
5.41651
5.72685
5.99428
6.22136
6.41161
6.56527
6.68485
6.76367
6.80219
6.78673
6.71309
6.57495
6.36874
6.07211
5.66557
5.11964
4.374
3.2781
1.1511
2.29898
2.41264
2.16566
1.92895
1.77717
1.57955
1.21271
0.5637
0.636906
1.15199
1.59209
1.92385
1.97664
1.67064
1.01491
1.13251
1.68704
1.97125
2.05724
1.98003
1.74025
1.31555
0.67978
0.639065
0.844141
0.831777
0.843558
1.06804
1.40579
1.70277
1.89588
1.9739
1.95157
1.84888
1.6732
1.4467
1.21611
1.05616
1.03163
1.15074
1.25325
1.30144
1.28166
1.18157
0.938064
0.804031
1.29451
1.73299
2.0901
2.41294
2.67852
2.9116
3.17183
3.45778
3.73171
3.96496
4.19298
4.45307
4.71336
4.94898
5.13507
5.23223
5.22505
5.06544
4.68707
3.98693
2.95588
2.18872
2.89068
3.7322
4.3708
4.72296
4.78582
4.89777
5.2965
5.6938
6.11394
6.95741
7.56969
7.79701
7.85519
7.95072
7.98654
7.93636
7.90133
7.8589
7.78871
7.72788
7.66929
7.60391
7.54482
7.49024
7.43615
7.38678
7.34171
7.29919
7.26042
7.22519
7.1927
7.16316
7.13636
7.11181
7.08938
7.06872
7.0494
7.03104
7.01319
6.99535
6.97706
6.95788
6.93737
6.91519
6.89103
6.86471
6.8361
6.80516
6.77194
6.73657
6.69923
6.66013
6.61953
6.57771
6.53494
6.49152
6.44767
6.40364
6.35962
6.3158
6.27231
6.22928
6.18681
6.145
6.10393
6.06367
6.0243
5.98591
5.94859
5.91239
5.87741
5.84374
5.81142
5.7805
5.751
5.7229
5.69615
5.67063
5.64621
5.62266
5.59975
5.57717
5.55461
5.53173
5.50822
5.48379
5.45818
5.43122
5.40276
5.37272
5.34105
5.30778
5.27293
5.23657
5.19877
5.15963
5.11926
5.0777
5.03508
4.99144
4.94683
4.90129
4.85483
4.80745
4.75915
4.70989
4.65964
4.60834
4.55596
4.50239
4.44757
4.39141
4.33379
4.27461
4.21371
4.15096
4.0862
4.01926
3.94999
3.87821
3.80375
3.72639
3.65682
3.59135
3.52376
3.45397
3.38238
3.31031
3.2408
3.17998
3.13846
3.1318
3.178
3.29052
3.47588
3.72295
4.0096
4.32355
4.68316
4.86795
)
;
    }
    frontAndBack
    {
        type            empty;
    }
}


// ************************************************************************* //
