/*--------------------------------*- C++ -*----------------------------------*\
  =========                 |
  \\      /  F ield         | OpenFOAM: The Open Source CFD Toolbox
   \\    /   O peration     | Website:  https://openfoam.org
    \\  /    A nd           | Version:  7
     \\/     M anipulation  |
\*---------------------------------------------------------------------------*/
FoamFile
{
    version     2.0;
    format      ascii;
    class       volScalarField;
    location    "0.28";
    object      k;
}
// * * * * * * * * * * * * * * * * * * * * * * * * * * * * * * * * * * * * * //

dimensions      [0 2 -2 0 0 0 0];

internalField   nonuniform List<scalar> 
70000
(
1.08549e-05
4.21873e-06
2.82426e-06
2.31658e-06
1.99723e-06
1.75683e-06
1.5649e-06
1.40806e-06
1.27739e-06
1.16678e-06
1.07199e-06
9.90083e-07
9.18662e-07
8.56075e-07
8.00787e-07
7.51799e-07
7.08021e-07
6.6886e-07
6.33513e-07
6.0166e-07
5.72667e-07
5.46404e-07
5.22281e-07
5.00387e-07
4.80028e-07
4.61628e-07
4.44191e-07
4.28651e-07
4.1349e-07
4.00336e-07
3.86985e-07
3.75834e-07
3.63976e-07
3.545e-07
3.43928e-07
3.35921e-07
3.26798e-07
3.20258e-07
3.12469e-07
3.07182e-07
3.00586e-07
2.97354e-07
2.91358e-07
2.91218e-07
2.85086e-07
2.9253e-07
2.8086e-07
3.20228e-07
2.86985e-07
3.54606e-07
1.72795e-05
1.13672e-05
8.52032e-06
7.00983e-06
6.03646e-06
5.30998e-06
4.7306e-06
4.25691e-06
3.8622e-06
3.52812e-06
3.24184e-06
2.99445e-06
2.77872e-06
2.58966e-06
2.42263e-06
2.27461e-06
2.14232e-06
2.02395e-06
1.9171e-06
1.82081e-06
1.73314e-06
1.65375e-06
1.58078e-06
1.5146e-06
1.45298e-06
1.39739e-06
1.34457e-06
1.29764e-06
1.2517e-06
1.21198e-06
1.17153e-06
1.13782e-06
1.10194e-06
1.07324e-06
1.0413e-06
1.01687e-06
9.88995e-07
9.68625e-07
9.44614e-07
9.27972e-07
9.07069e-07
8.96052e-07
8.76703e-07
8.73251e-07
8.55342e-07
8.675e-07
8.43337e-07
9.21119e-07
8.6489e-07
9.10376e-07
1.93701e-05
1.61296e-05
1.32909e-05
1.12889e-05
9.82758e-06
8.69472e-06
7.77704e-06
7.0193e-06
6.38321e-06
5.84215e-06
5.37678e-06
4.97348e-06
4.62088e-06
4.3112e-06
4.03706e-06
3.79365e-06
3.57576e-06
3.38047e-06
3.20399e-06
3.04474e-06
2.89959e-06
2.76805e-06
2.64696e-06
2.53721e-06
2.4347e-06
2.34247e-06
2.25441e-06
2.17651e-06
2.09979e-06
2.03377e-06
1.96623e-06
1.91004e-06
1.8502e-06
1.80213e-06
1.74902e-06
1.70764e-06
1.66094e-06
1.62575e-06
1.58516e-06
1.55601e-06
1.5199e-06
1.4995e-06
1.46508e-06
1.45537e-06
1.4238e-06
1.43205e-06
1.40151e-06
1.48153e-06
1.43167e-06
1.44218e-06
1.9861e-05
1.826e-05
1.60857e-05
1.41999e-05
1.26396e-05
1.13477e-05
1.02597e-05
9.33732e-06
8.54619e-06
7.8631e-06
7.26902e-06
6.74965e-06
6.29209e-06
5.88769e-06
5.52764e-06
5.20621e-06
4.91719e-06
4.65701e-06
4.42109e-06
4.20753e-06
4.01226e-06
3.835e-06
3.67114e-06
3.5227e-06
3.38324e-06
3.25814e-06
3.13777e-06
3.03183e-06
2.92664e-06
2.83649e-06
2.74383e-06
2.66663e-06
2.58467e-06
2.51809e-06
2.44554e-06
2.38768e-06
2.32365e-06
2.27329e-06
2.21689e-06
2.17468e-06
2.12358e-06
2.09325e-06
2.04315e-06
2.02558e-06
1.97885e-06
1.97887e-06
1.945e-06
2.00362e-06
1.96708e-06
1.95825e-06
1.99706e-05
1.78458e-05
1.6075e-05
1.47667e-05
1.36029e-05
1.25377e-05
1.15693e-05
1.07015e-05
9.92059e-06
9.22493e-06
8.60519e-06
8.05246e-06
7.55715e-06
7.11315e-06
6.71272e-06
6.35103e-06
6.02259e-06
5.7243e-06
5.45185e-06
5.20369e-06
4.97521e-06
4.76704e-06
4.57307e-06
4.39727e-06
4.2305e-06
4.08132e-06
3.93615e-06
3.80892e-06
3.6814e-06
3.57222e-06
3.45971e-06
3.36522e-06
3.26574e-06
3.18329e-06
3.09539e-06
3.02276e-06
2.9454e-06
2.88123e-06
2.81251e-06
2.75843e-06
2.69369e-06
2.65418e-06
2.59026e-06
2.56435e-06
2.50538e-06
2.49573e-06
2.45215e-06
2.48278e-06
2.45503e-06
2.44016e-06
2.00095e-05
1.47037e-05
1.37482e-05
1.32118e-05
1.25928e-05
1.19287e-05
1.12794e-05
1.0659e-05
1.00821e-05
9.54787e-06
9.04724e-06
8.58046e-06
8.14683e-06
7.74636e-06
7.37499e-06
7.03153e-06
6.71367e-06
6.42023e-06
6.14853e-06
5.89812e-06
5.66451e-06
5.45008e-06
5.24743e-06
5.06332e-06
4.88595e-06
4.72747e-06
4.57082e-06
4.4338e-06
4.29505e-06
4.17567e-06
4.05274e-06
3.94776e-06
3.83883e-06
3.74568e-06
3.64948e-06
3.56585e-06
3.48129e-06
3.40647e-06
3.33027e-06
3.26758e-06
3.19349e-06
3.14706e-06
3.07397e-06
3.04022e-06
2.97189e-06
2.95355e-06
2.89899e-06
2.90306e-06
2.87622e-06
2.85627e-06
2.01331e-05
1.54674e-05
9.63457e-06
9.39975e-06
9.49537e-06
9.49524e-06
9.43736e-06
9.30009e-06
9.05912e-06
8.78522e-06
8.48979e-06
8.19175e-06
7.89937e-06
7.615e-06
7.33756e-06
7.07545e-06
6.82769e-06
6.59215e-06
6.3682e-06
6.1568e-06
5.95447e-06
5.76587e-06
5.58317e-06
5.41614e-06
5.25107e-06
5.10324e-06
4.95393e-06
4.82302e-06
4.68895e-06
4.57203e-06
4.45214e-06
4.34682e-06
4.23982e-06
4.1441e-06
4.04935e-06
3.96132e-06
3.87757e-06
3.79796e-06
3.72056e-06
3.65411e-06
3.57696e-06
3.52583e-06
3.45086e-06
3.4098e-06
3.33954e-06
3.31354e-06
3.25525e-06
3.23855e-06
3.19816e-06
3.17568e-06
2.01713e-05
1.86758e-05
8.6907e-06
5.54108e-06
5.63215e-06
5.93764e-06
6.29688e-06
6.58348e-06
6.7634e-06
6.87268e-06
6.89107e-06
6.87115e-06
6.81789e-06
6.7278e-06
6.61551e-06
6.49184e-06
6.3525e-06
6.20881e-06
6.06479e-06
5.92191e-06
5.77914e-06
5.64242e-06
5.50496e-06
5.3778e-06
5.24686e-06
5.13077e-06
5.01028e-06
4.90369e-06
4.79279e-06
4.69343e-06
4.59209e-06
4.49915e-06
4.40719e-06
4.31959e-06
4.23736e-06
4.15432e-06
4.08024e-06
4.00425e-06
3.93331e-06
3.8691e-06
3.79754e-06
3.744e-06
3.67709e-06
3.62808e-06
3.56643e-06
3.52654e-06
3.47808e-06
3.43332e-06
3.39205e-06
3.3655e-06
2.01672e-05
1.97238e-05
1.61663e-05
4.85914e-06
3.04295e-06
3.10716e-06
3.37771e-06
3.80911e-06
4.17559e-06
4.49435e-06
4.74136e-06
4.93035e-06
5.06971e-06
5.16852e-06
5.22475e-06
5.25914e-06
5.25907e-06
5.24909e-06
5.22443e-06
5.18357e-06
5.13273e-06
5.07652e-06
5.01256e-06
4.9484e-06
4.87645e-06
4.8091e-06
4.73231e-06
4.6621e-06
4.58664e-06
4.516e-06
4.44402e-06
4.3741e-06
4.3068e-06
4.23743e-06
4.17599e-06
4.10777e-06
4.05053e-06
3.98692e-06
3.92987e-06
3.8742e-06
3.81732e-06
3.76588e-06
3.7149e-06
3.66293e-06
3.61663e-06
3.56654e-06
3.53024e-06
3.47371e-06
3.43615e-06
3.40427e-06
2.01476e-05
1.99342e-05
1.90652e-05
1.44958e-05
5.23725e-06
2.15414e-06
1.91537e-06
1.99557e-06
2.21053e-06
2.51013e-06
2.78624e-06
3.03936e-06
3.26345e-06
3.45902e-06
3.62078e-06
3.75712e-06
3.86588e-06
3.95161e-06
4.02005e-06
4.06983e-06
4.10518e-06
4.12684e-06
4.1391e-06
4.13882e-06
4.13404e-06
4.12429e-06
4.10506e-06
4.08485e-06
4.05879e-06
4.03034e-06
3.99981e-06
3.96554e-06
3.93279e-06
3.89347e-06
3.86088e-06
3.81815e-06
3.78465e-06
3.74193e-06
3.70535e-06
3.6645e-06
3.62649e-06
3.58317e-06
3.54884e-06
3.50129e-06
3.46902e-06
3.42012e-06
3.39188e-06
3.33829e-06
3.30472e-06
3.2707e-06
2.01216e-05
1.99661e-05
1.96422e-05
1.85451e-05
1.5207e-05
8.34563e-06
3.09636e-06
1.63237e-06
1.44289e-06
1.45063e-06
1.52852e-06
1.69053e-06
1.87255e-06
2.04866e-06
2.2178e-06
2.3752e-06
2.52047e-06
2.64894e-06
2.76447e-06
2.86532e-06
2.95353e-06
3.02923e-06
3.09362e-06
3.14819e-06
3.19206e-06
3.23002e-06
3.25884e-06
3.28189e-06
3.29925e-06
3.31065e-06
3.3185e-06
3.32089e-06
3.32008e-06
3.31623e-06
3.31096e-06
3.29933e-06
3.2906e-06
3.27375e-06
3.2601e-06
3.24033e-06
3.22349e-06
3.19794e-06
3.18061e-06
3.14887e-06
3.12939e-06
3.09231e-06
3.07074e-06
3.02804e-06
2.99869e-06
2.97003e-06
2.00982e-05
1.99328e-05
1.97572e-05
1.93518e-05
1.8504e-05
1.65305e-05
1.23115e-05
6.8381e-06
2.97251e-06
1.49044e-06
1.24293e-06
1.14805e-06
1.15269e-06
1.19553e-06
1.28826e-06
1.3939e-06
1.50542e-06
1.6133e-06
1.72119e-06
1.82398e-06
1.92083e-06
2.01164e-06
2.09444e-06
2.17147e-06
2.2407e-06
2.30368e-06
2.36091e-06
2.41085e-06
2.45691e-06
2.4958e-06
2.53185e-06
2.56101e-06
2.58834e-06
2.6089e-06
2.62897e-06
2.6422e-06
2.65531e-06
2.66271e-06
2.66865e-06
2.67094e-06
2.67025e-06
2.66721e-06
2.66214e-06
2.65104e-06
2.64147e-06
2.62177e-06
2.60749e-06
2.57884e-06
2.55477e-06
2.53425e-06
2.00781e-05
1.98877e-05
1.97569e-05
1.94605e-05
1.91445e-05
1.86383e-05
1.75487e-05
1.54142e-05
1.17164e-05
7.41652e-06
3.96001e-06
1.90347e-06
1.20678e-06
1.05679e-06
9.81991e-07
9.42559e-07
9.53556e-07
9.8685e-07
1.04793e-06
1.11047e-06
1.17736e-06
1.24568e-06
1.31335e-06
1.38102e-06
1.44702e-06
1.50906e-06
1.57011e-06
1.62526e-06
1.67974e-06
1.72809e-06
1.77583e-06
1.81715e-06
1.85803e-06
1.89289e-06
1.9266e-06
1.95548e-06
1.98241e-06
2.00548e-06
2.02569e-06
2.04297e-06
2.05662e-06
2.0678e-06
2.07478e-06
2.07887e-06
2.0781e-06
2.07448e-06
2.06732e-06
2.05269e-06
2.03487e-06
2.02131e-06
2.00614e-05
1.9854e-05
1.97343e-05
1.94708e-05
1.92538e-05
1.9045e-05
1.87321e-05
1.8185e-05
1.7086e-05
1.52164e-05
1.25399e-05
9.20309e-06
5.94487e-06
3.46124e-06
1.87432e-06
1.16674e-06
9.64611e-07
8.90605e-07
8.36685e-07
7.95414e-07
7.965e-07
8.08847e-07
8.36698e-07
8.73489e-07
9.12211e-07
9.51393e-07
9.9436e-07
1.03502e-06
1.07898e-06
1.11974e-06
1.16237e-06
1.20078e-06
1.24007e-06
1.27569e-06
1.31061e-06
1.3429e-06
1.37342e-06
1.40163e-06
1.42739e-06
1.451e-06
1.47138e-06
1.48986e-06
1.50419e-06
1.51632e-06
1.52401e-06
1.52805e-06
1.52705e-06
1.52291e-06
1.51314e-06
1.50383e-06
2.00475e-05
1.98304e-05
1.97077e-05
1.94487e-05
1.92707e-05
1.9113e-05
1.89619e-05
1.87464e-05
1.84564e-05
1.79044e-05
1.70658e-05
1.56822e-05
1.38614e-05
1.15076e-05
8.83266e-06
6.23427e-06
4.07473e-06
2.51076e-06
1.51527e-06
1.03675e-06
8.64823e-07
7.99837e-07
7.52191e-07
7.11289e-07
6.8141e-07
6.7469e-07
6.79408e-07
6.90837e-07
7.11755e-07
7.32193e-07
7.56069e-07
7.78198e-07
8.03287e-07
8.27734e-07
8.53003e-07
8.7804e-07
9.02575e-07
9.2658e-07
9.49002e-07
9.70555e-07
9.90008e-07
1.00767e-06
1.02363e-06
1.0365e-06
1.04719e-06
1.05453e-06
1.05845e-06
1.05751e-06
1.05419e-06
1.04779e-06
2.00362e-05
1.98126e-05
1.96852e-05
1.94183e-05
1.92566e-05
1.91063e-05
1.89971e-05
1.8845e-05
1.87076e-05
1.84944e-05
1.82414e-05
1.78232e-05
1.72208e-05
1.63476e-05
1.51456e-05
1.36126e-05
1.18098e-05
9.73803e-06
7.60989e-06
5.62787e-06
3.95724e-06
2.68224e-06
1.76319e-06
1.1882e-06
8.96462e-07
7.71254e-07
7.14687e-07
6.76969e-07
6.42885e-07
6.1111e-07
5.90099e-07
5.76922e-07
5.77224e-07
5.80514e-07
5.87952e-07
5.98686e-07
6.10003e-07
6.2206e-07
6.33341e-07
6.45257e-07
6.56448e-07
6.6711e-07
6.78213e-07
6.86897e-07
6.95769e-07
7.01127e-07
7.05597e-07
7.05574e-07
7.04615e-07
7.01727e-07
2.00272e-05
1.97987e-05
1.9666e-05
1.93961e-05
1.92311e-05
1.90784e-05
1.89789e-05
1.88479e-05
1.87316e-05
1.85903e-05
1.8454e-05
1.82825e-05
1.80738e-05
1.77863e-05
1.74001e-05
1.68563e-05
1.61503e-05
1.52328e-05
1.4101e-05
1.27713e-05
1.1291e-05
9.65463e-06
7.9722e-06
6.35643e-06
4.89054e-06
3.65287e-06
2.66854e-06
1.90717e-06
1.35729e-06
1.00317e-06
8.04463e-07
7.02277e-07
6.49807e-07
6.16549e-07
5.90087e-07
5.64931e-07
5.4115e-07
5.21713e-07
5.0662e-07
4.97808e-07
4.92415e-07
4.92135e-07
4.93207e-07
4.95397e-07
4.995e-07
5.04252e-07
5.10089e-07
5.18064e-07
5.28223e-07
5.40463e-07
2.002e-05
1.97899e-05
1.96463e-05
1.93795e-05
1.92068e-05
1.90491e-05
1.89403e-05
1.88214e-05
1.87092e-05
1.85838e-05
1.84646e-05
1.83389e-05
1.82138e-05
1.80712e-05
1.79145e-05
1.77166e-05
1.74728e-05
1.71566e-05
1.67538e-05
1.62385e-05
1.56092e-05
1.48452e-05
1.39456e-05
1.29177e-05
1.17899e-05
1.05789e-05
9.2888e-06
7.98249e-06
6.70919e-06
5.52218e-06
4.45127e-06
3.52924e-06
2.76734e-06
2.14565e-06
1.65029e-06
1.27467e-06
1.00647e-06
8.28989e-07
7.17915e-07
6.51039e-07
6.11191e-07
5.85389e-07
5.70591e-07
5.57608e-07
5.54833e-07
5.57286e-07
5.68003e-07
5.90504e-07
6.36868e-07
7.03015e-07
2.00145e-05
1.97899e-05
1.962e-05
1.93664e-05
1.91858e-05
1.90224e-05
1.89033e-05
1.8785e-05
1.86678e-05
1.8548e-05
1.84327e-05
1.83173e-05
1.82033e-05
1.80864e-05
1.7972e-05
1.78529e-05
1.77274e-05
1.7589e-05
1.74288e-05
1.72395e-05
1.70102e-05
1.67335e-05
1.63957e-05
1.59917e-05
1.55083e-05
1.49525e-05
1.43098e-05
1.35873e-05
1.27869e-05
1.19244e-05
1.10135e-05
1.00689e-05
9.08765e-06
8.10683e-06
7.14624e-06
6.23682e-06
5.39033e-06
4.62965e-06
3.95628e-06
3.38054e-06
2.9046e-06
2.51084e-06
2.20774e-06
1.96593e-06
1.8122e-06
1.70194e-06
1.70089e-06
1.73879e-06
1.85677e-06
2.0556e-06
2.00102e-05
1.97942e-05
1.95928e-05
1.93529e-05
1.91664e-05
1.89971e-05
1.88687e-05
1.87489e-05
1.86264e-05
1.8505e-05
1.83849e-05
1.82707e-05
1.8157e-05
1.80473e-05
1.7939e-05
1.78333e-05
1.77248e-05
1.76208e-05
1.75123e-05
1.74044e-05
1.72877e-05
1.71638e-05
1.70225e-05
1.68669e-05
1.66791e-05
1.64722e-05
1.62224e-05
1.59424e-05
1.56102e-05
1.52421e-05
1.48189e-05
1.4357e-05
1.38422e-05
1.32898e-05
1.26889e-05
1.20665e-05
1.14129e-05
1.07518e-05
1.00875e-05
9.43227e-06
8.80346e-06
8.18917e-06
7.65639e-06
7.16019e-06
6.75703e-06
6.42273e-06
6.1915e-06
6.03078e-06
6.04069e-06
6.12235e-06
2.0007e-05
1.98022e-05
1.95677e-05
1.934e-05
1.91481e-05
1.89732e-05
1.88358e-05
1.87138e-05
1.85864e-05
1.84625e-05
1.83368e-05
1.82211e-05
1.81036e-05
1.79914e-05
1.78816e-05
1.7776e-05
1.76711e-05
1.75738e-05
1.74724e-05
1.73776e-05
1.72788e-05
1.7184e-05
1.70847e-05
1.69926e-05
1.68836e-05
1.67878e-05
1.66672e-05
1.6554e-05
1.641e-05
1.62703e-05
1.60969e-05
1.59183e-05
1.57069e-05
1.54857e-05
1.52238e-05
1.49571e-05
1.46523e-05
1.43354e-05
1.39896e-05
1.36395e-05
1.32742e-05
1.28922e-05
1.25378e-05
1.21799e-05
1.18296e-05
1.15599e-05
1.12805e-05
1.10971e-05
1.09166e-05
1.08761e-05
2.00047e-05
1.98113e-05
1.95442e-05
1.9327e-05
1.91305e-05
1.89507e-05
1.88044e-05
1.86796e-05
1.85482e-05
1.84212e-05
1.82905e-05
1.81719e-05
1.8051e-05
1.79352e-05
1.78226e-05
1.77146e-05
1.76057e-05
1.75067e-05
1.74033e-05
1.73081e-05
1.72116e-05
1.71226e-05
1.70285e-05
1.69479e-05
1.68488e-05
1.6776e-05
1.66768e-05
1.66037e-05
1.65036e-05
1.64307e-05
1.63298e-05
1.62475e-05
1.61435e-05
1.60498e-05
1.59299e-05
1.58233e-05
1.5695e-05
1.55647e-05
1.54146e-05
1.52766e-05
1.51099e-05
1.49416e-05
1.47791e-05
1.46151e-05
1.44208e-05
1.42814e-05
1.41108e-05
1.39771e-05
1.38083e-05
1.37073e-05
2.0003e-05
1.98207e-05
1.95226e-05
1.93135e-05
1.91131e-05
1.89295e-05
1.87744e-05
1.8646e-05
1.85117e-05
1.83812e-05
1.82462e-05
1.81244e-05
1.80002e-05
1.78808e-05
1.7765e-05
1.76546e-05
1.7542e-05
1.74409e-05
1.73344e-05
1.72367e-05
1.71367e-05
1.7045e-05
1.69475e-05
1.68668e-05
1.67639e-05
1.66961e-05
1.65993e-05
1.65332e-05
1.64382e-05
1.63777e-05
1.62871e-05
1.62249e-05
1.61413e-05
1.60755e-05
1.59921e-05
1.59284e-05
1.58544e-05
1.57825e-05
1.57009e-05
1.56413e-05
1.55533e-05
1.54775e-05
1.54018e-05
1.53325e-05
1.5232e-05
1.51658e-05
1.50822e-05
1.50002e-05
1.48801e-05
1.47831e-05
2.00018e-05
1.98295e-05
1.95028e-05
1.92991e-05
1.90954e-05
1.89099e-05
1.8746e-05
1.86136e-05
1.84769e-05
1.83429e-05
1.82041e-05
1.80792e-05
1.79519e-05
1.78292e-05
1.771e-05
1.75976e-05
1.74814e-05
1.73783e-05
1.72691e-05
1.71686e-05
1.70662e-05
1.69718e-05
1.68714e-05
1.67883e-05
1.66814e-05
1.66113e-05
1.65107e-05
1.64409e-05
1.63436e-05
1.6282e-05
1.61887e-05
1.61293e-05
1.6048e-05
1.59865e-05
1.59085e-05
1.5852e-05
1.57863e-05
1.57259e-05
1.56577e-05
1.56131e-05
1.55452e-05
1.54925e-05
1.54394e-05
1.53981e-05
1.53333e-05
1.52889e-05
1.52451e-05
1.51855e-05
1.5099e-05
1.50161e-05
2.00009e-05
1.98308e-05
1.94869e-05
1.92848e-05
1.90781e-05
1.88924e-05
1.87196e-05
1.85828e-05
1.84441e-05
1.8307e-05
1.81648e-05
1.80369e-05
1.79067e-05
1.77812e-05
1.76587e-05
1.75442e-05
1.74253e-05
1.73198e-05
1.72086e-05
1.71052e-05
1.70011e-05
1.69039e-05
1.68018e-05
1.67159e-05
1.66068e-05
1.65339e-05
1.64319e-05
1.63575e-05
1.62586e-05
1.61934e-05
1.60971e-05
1.60357e-05
1.59492e-05
1.58849e-05
1.58038e-05
1.57463e-05
1.56768e-05
1.56178e-05
1.55485e-05
1.55036e-05
1.54403e-05
1.53911e-05
1.53393e-05
1.53033e-05
1.52465e-05
1.52033e-05
1.51721e-05
1.51094e-05
1.50475e-05
1.49695e-05
2.00003e-05
1.9829e-05
1.94733e-05
1.92695e-05
1.90603e-05
1.88767e-05
1.86954e-05
1.8554e-05
1.84136e-05
1.82739e-05
1.81289e-05
1.7998e-05
1.78652e-05
1.77374e-05
1.7612e-05
1.74953e-05
1.73747e-05
1.72664e-05
1.71537e-05
1.70478e-05
1.69425e-05
1.68426e-05
1.67393e-05
1.66506e-05
1.65404e-05
1.64647e-05
1.6362e-05
1.62842e-05
1.61841e-05
1.61162e-05
1.60178e-05
1.5955e-05
1.58644e-05
1.57986e-05
1.57145e-05
1.56554e-05
1.55813e-05
1.55223e-05
1.54487e-05
1.54011e-05
1.53365e-05
1.52856e-05
1.52307e-05
1.51945e-05
1.51364e-05
1.50939e-05
1.5058e-05
1.49934e-05
1.49357e-05
1.48597e-05
2e-05
1.98273e-05
1.94619e-05
1.92526e-05
1.90417e-05
1.88623e-05
1.86734e-05
1.85273e-05
1.83854e-05
1.82437e-05
1.80966e-05
1.79629e-05
1.7828e-05
1.76983e-05
1.75704e-05
1.74515e-05
1.73303e-05
1.72192e-05
1.71055e-05
1.69976e-05
1.68913e-05
1.67891e-05
1.66848e-05
1.65938e-05
1.64829e-05
1.64049e-05
1.63014e-05
1.62215e-05
1.61197e-05
1.60502e-05
1.59504e-05
1.58868e-05
1.57926e-05
1.57268e-05
1.56401e-05
1.55801e-05
1.5503e-05
1.54436e-05
1.53672e-05
1.53182e-05
1.52515e-05
1.52001e-05
1.51422e-05
1.51046e-05
1.50432e-05
1.50017e-05
1.49579e-05
1.48938e-05
1.48296e-05
1.4762e-05
1.99999e-05
1.98261e-05
1.94536e-05
1.92353e-05
1.90233e-05
1.88496e-05
1.86542e-05
1.85035e-05
1.83599e-05
1.8217e-05
1.80684e-05
1.79321e-05
1.77955e-05
1.76645e-05
1.75346e-05
1.7414e-05
1.72928e-05
1.71791e-05
1.70648e-05
1.69555e-05
1.68483e-05
1.67447e-05
1.66394e-05
1.65466e-05
1.64354e-05
1.63556e-05
1.62512e-05
1.61702e-05
1.60665e-05
1.59965e-05
1.58953e-05
1.58313e-05
1.57338e-05
1.56691e-05
1.55798e-05
1.55197e-05
1.54405e-05
1.53802e-05
1.53028e-05
1.52528e-05
1.5184e-05
1.5133e-05
1.50737e-05
1.50328e-05
1.49702e-05
1.49286e-05
1.48775e-05
1.48134e-05
1.47432e-05
1.46794e-05
1.99999e-05
1.98254e-05
1.94484e-05
1.92187e-05
1.90059e-05
1.88389e-05
1.86387e-05
1.84834e-05
1.83379e-05
1.81945e-05
1.80449e-05
1.79065e-05
1.77686e-05
1.76369e-05
1.75054e-05
1.73836e-05
1.72628e-05
1.71471e-05
1.70325e-05
1.69226e-05
1.68145e-05
1.67105e-05
1.66041e-05
1.65102e-05
1.63994e-05
1.63179e-05
1.62129e-05
1.61314e-05
1.60262e-05
1.5956e-05
1.58537e-05
1.57894e-05
1.56894e-05
1.56262e-05
1.55341e-05
1.54751e-05
1.53936e-05
1.53326e-05
1.52552e-05
1.52039e-05
1.51336e-05
1.50837e-05
1.50228e-05
1.49777e-05
1.49159e-05
1.48731e-05
1.48144e-05
1.47504e-05
1.46759e-05
1.46101e-05
1.99999e-05
1.98252e-05
1.94461e-05
1.92035e-05
1.89903e-05
1.883e-05
1.86273e-05
1.84676e-05
1.83198e-05
1.81769e-05
1.80267e-05
1.78867e-05
1.77479e-05
1.76158e-05
1.74834e-05
1.73612e-05
1.72407e-05
1.71241e-05
1.70094e-05
1.68997e-05
1.6791e-05
1.66875e-05
1.658e-05
1.64857e-05
1.6376e-05
1.62929e-05
1.61878e-05
1.6106e-05
1.60001e-05
1.59299e-05
1.5827e-05
1.57622e-05
1.56611e-05
1.55989e-05
1.55044e-05
1.54471e-05
1.5363e-05
1.5302e-05
1.52252e-05
1.51718e-05
1.51012e-05
1.50523e-05
1.49886e-05
1.49401e-05
1.48799e-05
1.48336e-05
1.47686e-05
1.47032e-05
1.46274e-05
1.45567e-05
1.99999e-05
1.98254e-05
1.94466e-05
1.91905e-05
1.8977e-05
1.88227e-05
1.86203e-05
1.84563e-05
1.83061e-05
1.81643e-05
1.80139e-05
1.78732e-05
1.77337e-05
1.76017e-05
1.74691e-05
1.73474e-05
1.72269e-05
1.71107e-05
1.69961e-05
1.68873e-05
1.67785e-05
1.66762e-05
1.6568e-05
1.64738e-05
1.63661e-05
1.62816e-05
1.6177e-05
1.60954e-05
1.59894e-05
1.59193e-05
1.58164e-05
1.57511e-05
1.56504e-05
1.5588e-05
1.54925e-05
1.54369e-05
1.53498e-05
1.52898e-05
1.52131e-05
1.51574e-05
1.50878e-05
1.50392e-05
1.49713e-05
1.49216e-05
1.48618e-05
1.48109e-05
1.47404e-05
1.46749e-05
1.45963e-05
1.45211e-05
1.99999e-05
1.9826e-05
1.94496e-05
1.91802e-05
1.89661e-05
1.88168e-05
1.86177e-05
1.84497e-05
1.82973e-05
1.81567e-05
1.80066e-05
1.78662e-05
1.77261e-05
1.75946e-05
1.74629e-05
1.73421e-05
1.7222e-05
1.71074e-05
1.69933e-05
1.68861e-05
1.67781e-05
1.6677e-05
1.65687e-05
1.64751e-05
1.63694e-05
1.6284e-05
1.618e-05
1.6099e-05
1.59936e-05
1.59237e-05
1.5821e-05
1.57557e-05
1.56559e-05
1.55929e-05
1.54978e-05
1.54434e-05
1.53538e-05
1.52959e-05
1.5218e-05
1.51612e-05
1.50932e-05
1.50431e-05
1.49716e-05
1.49219e-05
1.48602e-05
1.48043e-05
1.47298e-05
1.46646e-05
1.45821e-05
1.45054e-05
1.99999e-05
1.98272e-05
1.94552e-05
1.91736e-05
1.8958e-05
1.88125e-05
1.86191e-05
1.8448e-05
1.82934e-05
1.81542e-05
1.8005e-05
1.78658e-05
1.77254e-05
1.75949e-05
1.74648e-05
1.73451e-05
1.72257e-05
1.71132e-05
1.69992e-05
1.68939e-05
1.67871e-05
1.66876e-05
1.65798e-05
1.64876e-05
1.63851e-05
1.62987e-05
1.61961e-05
1.61166e-05
1.60121e-05
1.59431e-05
1.58406e-05
1.57766e-05
1.56773e-05
1.56142e-05
1.55202e-05
1.54666e-05
1.5375e-05
1.53198e-05
1.52393e-05
1.51835e-05
1.51163e-05
1.50628e-05
1.49897e-05
1.49402e-05
1.48743e-05
1.48138e-05
1.47374e-05
1.46702e-05
1.45828e-05
1.4504e-05
1.99999e-05
1.98288e-05
1.94627e-05
1.91708e-05
1.89528e-05
1.88096e-05
1.86242e-05
1.84507e-05
1.82944e-05
1.81563e-05
1.80084e-05
1.78711e-05
1.77302e-05
1.76011e-05
1.74733e-05
1.73549e-05
1.72371e-05
1.71278e-05
1.70149e-05
1.69126e-05
1.68083e-05
1.67104e-05
1.66045e-05
1.65146e-05
1.6415e-05
1.63286e-05
1.62279e-05
1.61506e-05
1.60471e-05
1.59799e-05
1.58775e-05
1.58165e-05
1.57163e-05
1.5655e-05
1.55621e-05
1.55088e-05
1.54163e-05
1.53636e-05
1.52798e-05
1.52272e-05
1.51585e-05
1.51011e-05
1.50283e-05
1.49778e-05
1.4906e-05
1.48421e-05
1.47642e-05
1.46932e-05
1.46008e-05
1.4519e-05
1.99999e-05
1.9831e-05
1.94722e-05
1.9172e-05
1.89505e-05
1.88085e-05
1.86324e-05
1.84581e-05
1.83001e-05
1.81626e-05
1.80165e-05
1.78818e-05
1.77408e-05
1.76141e-05
1.74891e-05
1.73724e-05
1.72571e-05
1.71509e-05
1.704e-05
1.69409e-05
1.68396e-05
1.67431e-05
1.66404e-05
1.65531e-05
1.64564e-05
1.63708e-05
1.62727e-05
1.61978e-05
1.60958e-05
1.60308e-05
1.59292e-05
1.58715e-05
1.57699e-05
1.57121e-05
1.56196e-05
1.5567e-05
1.54745e-05
1.54233e-05
1.53373e-05
1.52887e-05
1.52156e-05
1.51558e-05
1.50849e-05
1.50307e-05
1.49526e-05
1.48875e-05
1.48067e-05
1.47303e-05
1.46334e-05
1.45485e-05
1.99999e-05
1.98337e-05
1.9483e-05
1.91774e-05
1.8951e-05
1.88095e-05
1.86427e-05
1.84699e-05
1.83104e-05
1.81733e-05
1.80298e-05
1.78973e-05
1.77568e-05
1.76331e-05
1.75106e-05
1.7396e-05
1.72839e-05
1.71808e-05
1.70726e-05
1.69774e-05
1.68792e-05
1.67847e-05
1.66861e-05
1.66019e-05
1.65077e-05
1.6424e-05
1.63292e-05
1.62565e-05
1.61569e-05
1.60942e-05
1.59944e-05
1.59393e-05
1.58374e-05
1.57837e-05
1.56914e-05
1.56396e-05
1.55479e-05
1.54968e-05
1.54112e-05
1.53644e-05
1.52858e-05
1.52268e-05
1.51561e-05
1.5096e-05
1.50134e-05
1.49482e-05
1.48618e-05
1.47788e-05
1.46789e-05
1.45909e-05
1.99999e-05
1.98368e-05
1.94947e-05
1.91869e-05
1.89548e-05
1.88129e-05
1.86547e-05
1.84856e-05
1.83245e-05
1.81876e-05
1.80468e-05
1.79165e-05
1.77773e-05
1.76569e-05
1.75366e-05
1.74248e-05
1.73163e-05
1.72163e-05
1.71117e-05
1.70207e-05
1.69254e-05
1.6834e-05
1.67401e-05
1.66591e-05
1.65675e-05
1.64867e-05
1.63957e-05
1.63249e-05
1.62287e-05
1.61683e-05
1.60714e-05
1.6018e-05
1.59172e-05
1.58675e-05
1.57753e-05
1.57246e-05
1.56339e-05
1.55831e-05
1.54989e-05
1.54511e-05
1.53684e-05
1.53121e-05
1.52379e-05
1.51718e-05
1.5088e-05
1.50205e-05
1.49264e-05
1.4838e-05
1.47357e-05
1.46446e-05
1.99999e-05
1.98403e-05
1.95072e-05
1.91998e-05
1.89618e-05
1.88193e-05
1.8668e-05
1.8505e-05
1.83424e-05
1.82055e-05
1.80674e-05
1.79387e-05
1.78017e-05
1.76847e-05
1.75661e-05
1.74577e-05
1.73529e-05
1.72562e-05
1.71559e-05
1.70692e-05
1.69768e-05
1.68895e-05
1.68007e-05
1.67229e-05
1.66341e-05
1.6557e-05
1.64702e-05
1.64012e-05
1.63095e-05
1.62511e-05
1.61577e-05
1.61055e-05
1.60078e-05
1.59605e-05
1.58691e-05
1.58201e-05
1.57299e-05
1.56803e-05
1.55968e-05
1.55465e-05
1.5462e-05
1.54079e-05
1.53272e-05
1.52571e-05
1.51733e-05
1.51003e-05
1.49981e-05
1.49067e-05
1.48011e-05
1.47068e-05
1.99999e-05
1.9844e-05
1.95201e-05
1.92154e-05
1.89721e-05
1.88285e-05
1.86822e-05
1.85274e-05
1.83633e-05
1.82266e-05
1.80908e-05
1.79635e-05
1.78293e-05
1.77154e-05
1.75984e-05
1.74938e-05
1.73926e-05
1.72993e-05
1.7204e-05
1.71215e-05
1.70321e-05
1.69499e-05
1.68661e-05
1.67913e-05
1.67062e-05
1.66331e-05
1.65505e-05
1.64835e-05
1.6397e-05
1.63405e-05
1.62509e-05
1.61998e-05
1.61063e-05
1.60607e-05
1.59707e-05
1.59232e-05
1.58332e-05
1.57857e-05
1.57018e-05
1.56486e-05
1.55643e-05
1.55101e-05
1.54221e-05
1.53504e-05
1.52652e-05
1.51843e-05
1.50751e-05
1.49827e-05
1.48729e-05
1.47741e-05
1.99999e-05
1.9848e-05
1.95334e-05
1.92332e-05
1.89857e-05
1.88405e-05
1.86974e-05
1.85518e-05
1.83868e-05
1.82505e-05
1.81162e-05
1.79904e-05
1.78595e-05
1.7748e-05
1.76327e-05
1.75321e-05
1.74341e-05
1.73448e-05
1.72546e-05
1.71759e-05
1.70901e-05
1.70136e-05
1.69346e-05
1.68627e-05
1.6782e-05
1.67132e-05
1.66346e-05
1.657e-05
1.64894e-05
1.64343e-05
1.63487e-05
1.62991e-05
1.62104e-05
1.61662e-05
1.60776e-05
1.6031e-05
1.5942e-05
1.58965e-05
1.5811e-05
1.5756e-05
1.5672e-05
1.56149e-05
1.55208e-05
1.54497e-05
1.53599e-05
1.52699e-05
1.51565e-05
1.50632e-05
1.49475e-05
1.48426e-05
1.99999e-05
1.98521e-05
1.95468e-05
1.92527e-05
1.90026e-05
1.88553e-05
1.87138e-05
1.85776e-05
1.84126e-05
1.82771e-05
1.81434e-05
1.80192e-05
1.78915e-05
1.77817e-05
1.76683e-05
1.75715e-05
1.74764e-05
1.73916e-05
1.73064e-05
1.72311e-05
1.71497e-05
1.70793e-05
1.70043e-05
1.69358e-05
1.68602e-05
1.67954e-05
1.67206e-05
1.66591e-05
1.65845e-05
1.65305e-05
1.64493e-05
1.64013e-05
1.63179e-05
1.62748e-05
1.61868e-05
1.61415e-05
1.60543e-05
1.60096e-05
1.5922e-05
1.58666e-05
1.57823e-05
1.57195e-05
1.56218e-05
1.55525e-05
1.54534e-05
1.53555e-05
1.52416e-05
1.51446e-05
1.50203e-05
1.49079e-05
1.99999e-05
1.98562e-05
1.95602e-05
1.92734e-05
1.90226e-05
1.88725e-05
1.87317e-05
1.86041e-05
1.84403e-05
1.83059e-05
1.81718e-05
1.80496e-05
1.79246e-05
1.7816e-05
1.77046e-05
1.76112e-05
1.75188e-05
1.74388e-05
1.73582e-05
1.72863e-05
1.721e-05
1.71455e-05
1.70741e-05
1.70094e-05
1.6939e-05
1.6878e-05
1.68071e-05
1.67494e-05
1.66805e-05
1.66272e-05
1.65513e-05
1.65045e-05
1.6427e-05
1.63836e-05
1.62966e-05
1.62531e-05
1.61679e-05
1.61229e-05
1.60331e-05
1.59782e-05
1.58919e-05
1.58228e-05
1.57241e-05
1.56541e-05
1.55426e-05
1.54412e-05
1.53275e-05
1.52228e-05
1.50882e-05
1.49676e-05
1.99999e-05
1.98604e-05
1.95737e-05
1.92948e-05
1.90453e-05
1.88921e-05
1.87511e-05
1.86308e-05
1.84697e-05
1.83364e-05
1.82015e-05
1.8081e-05
1.79579e-05
1.78503e-05
1.77409e-05
1.76505e-05
1.75608e-05
1.74854e-05
1.74087e-05
1.73406e-05
1.72698e-05
1.72106e-05
1.71427e-05
1.70824e-05
1.70171e-05
1.69597e-05
1.6893e-05
1.68395e-05
1.67753e-05
1.67231e-05
1.66529e-05
1.66072e-05
1.65356e-05
1.64899e-05
1.64065e-05
1.63644e-05
1.62805e-05
1.62344e-05
1.61422e-05
1.60885e-05
1.59983e-05
1.59244e-05
1.58255e-05
1.57496e-05
1.5628e-05
1.55263e-05
1.54093e-05
1.52937e-05
1.51496e-05
1.50215e-05
1.99999e-05
1.98646e-05
1.95869e-05
1.93166e-05
1.90701e-05
1.89139e-05
1.87721e-05
1.86575e-05
1.85003e-05
1.83682e-05
1.82322e-05
1.81132e-05
1.79912e-05
1.78844e-05
1.77766e-05
1.76887e-05
1.76018e-05
1.75306e-05
1.74574e-05
1.73935e-05
1.73284e-05
1.72736e-05
1.72093e-05
1.71537e-05
1.70932e-05
1.70393e-05
1.69771e-05
1.69279e-05
1.68675e-05
1.68172e-05
1.67525e-05
1.67084e-05
1.66414e-05
1.6593e-05
1.65152e-05
1.6474e-05
1.63891e-05
1.63418e-05
1.62496e-05
1.61944e-05
1.61002e-05
1.6023e-05
1.59224e-05
1.58376e-05
1.57101e-05
1.56082e-05
1.54829e-05
1.53561e-05
1.52038e-05
1.50698e-05
1.99999e-05
1.98687e-05
1.96e-05
1.93386e-05
1.90964e-05
1.89378e-05
1.87947e-05
1.86843e-05
1.85316e-05
1.84012e-05
1.8264e-05
1.81458e-05
1.80239e-05
1.79179e-05
1.78114e-05
1.77254e-05
1.76411e-05
1.75737e-05
1.75036e-05
1.74444e-05
1.73847e-05
1.73337e-05
1.72733e-05
1.72225e-05
1.71664e-05
1.71159e-05
1.70586e-05
1.70134e-05
1.69562e-05
1.69085e-05
1.68486e-05
1.68069e-05
1.67425e-05
1.66931e-05
1.66215e-05
1.65793e-05
1.64924e-05
1.64454e-05
1.63525e-05
1.62951e-05
1.61968e-05
1.61164e-05
1.60125e-05
1.59188e-05
1.57868e-05
1.56835e-05
1.55469e-05
1.54094e-05
1.52501e-05
1.51118e-05
1.99999e-05
1.98727e-05
1.96128e-05
1.93607e-05
1.91239e-05
1.89634e-05
1.88189e-05
1.87113e-05
1.85634e-05
1.8435e-05
1.82966e-05
1.81786e-05
1.8056e-05
1.79506e-05
1.78448e-05
1.77604e-05
1.76783e-05
1.76141e-05
1.75472e-05
1.74927e-05
1.74378e-05
1.73904e-05
1.7334e-05
1.72879e-05
1.7236e-05
1.71891e-05
1.71366e-05
1.7095e-05
1.70406e-05
1.69963e-05
1.69405e-05
1.69016e-05
1.68377e-05
1.67906e-05
1.67223e-05
1.66784e-05
1.65916e-05
1.65442e-05
1.64486e-05
1.63905e-05
1.62861e-05
1.62035e-05
1.60953e-05
1.59919e-05
1.58566e-05
1.57499e-05
1.55993e-05
1.54529e-05
1.52886e-05
1.51463e-05
1.99999e-05
1.98767e-05
1.96253e-05
1.93825e-05
1.91521e-05
1.89907e-05
1.88446e-05
1.87387e-05
1.85955e-05
1.84695e-05
1.833e-05
1.82114e-05
1.80875e-05
1.79823e-05
1.78767e-05
1.77933e-05
1.7713e-05
1.76516e-05
1.75878e-05
1.7538e-05
1.74872e-05
1.74433e-05
1.7391e-05
1.73496e-05
1.73015e-05
1.72582e-05
1.72104e-05
1.71719e-05
1.71204e-05
1.70797e-05
1.70276e-05
1.69911e-05
1.69271e-05
1.68846e-05
1.68158e-05
1.67725e-05
1.66851e-05
1.66365e-05
1.65379e-05
1.64795e-05
1.63666e-05
1.62844e-05
1.61688e-05
1.60554e-05
1.59195e-05
1.58054e-05
1.56384e-05
1.5486e-05
1.53192e-05
1.51702e-05
1.99999e-05
1.98805e-05
1.96374e-05
1.94041e-05
1.91807e-05
1.90194e-05
1.88719e-05
1.87666e-05
1.86278e-05
1.85046e-05
1.8364e-05
1.82442e-05
1.81185e-05
1.80128e-05
1.79068e-05
1.78239e-05
1.7745e-05
1.76859e-05
1.76253e-05
1.75799e-05
1.75325e-05
1.7492e-05
1.7444e-05
1.74071e-05
1.73625e-05
1.73231e-05
1.72792e-05
1.72436e-05
1.71952e-05
1.7158e-05
1.71096e-05
1.70746e-05
1.70112e-05
1.69734e-05
1.69024e-05
1.68603e-05
1.67724e-05
1.67216e-05
1.66202e-05
1.65602e-05
1.64396e-05
1.63576e-05
1.62313e-05
1.61109e-05
1.59741e-05
1.58465e-05
1.56661e-05
1.55103e-05
1.5338e-05
1.51762e-05
1.99999e-05
1.98843e-05
1.96492e-05
1.94252e-05
1.92095e-05
1.90492e-05
1.89006e-05
1.87952e-05
1.86602e-05
1.854e-05
1.83985e-05
1.82772e-05
1.81491e-05
1.80423e-05
1.79352e-05
1.78522e-05
1.7774e-05
1.7717e-05
1.76592e-05
1.76177e-05
1.75734e-05
1.75365e-05
1.74926e-05
1.746e-05
1.74186e-05
1.73831e-05
1.73428e-05
1.73099e-05
1.72647e-05
1.72309e-05
1.71859e-05
1.71517e-05
1.70902e-05
1.7055e-05
1.69835e-05
1.6941e-05
1.68525e-05
1.67998e-05
1.66952e-05
1.66326e-05
1.65034e-05
1.64218e-05
1.62825e-05
1.6158e-05
1.60185e-05
1.58732e-05
1.56828e-05
1.55245e-05
1.53403e-05
1.51603e-05
1.99999e-05
1.98879e-05
1.96607e-05
1.94458e-05
1.92382e-05
1.90799e-05
1.89308e-05
1.88246e-05
1.86929e-05
1.85755e-05
1.84335e-05
1.83103e-05
1.81793e-05
1.80706e-05
1.79615e-05
1.78779e-05