/*--------------------------------*- C++ -*----------------------------------*\
  =========                 |
  \\      /  F ield         | OpenFOAM: The Open Source CFD Toolbox
   \\    /   O peration     | Website:  https://openfoam.org
    \\  /    A nd           | Version:  7
     \\/     M anipulation  |
\*---------------------------------------------------------------------------*/
FoamFile
{
    version     2.0;
    format      ascii;
    class       volScalarField;
    location    "0.28";
    object      p;
}
// * * * * * * * * * * * * * * * * * * * * * * * * * * * * * * * * * * * * * //

dimensions      [0 2 -2 0 0 0 0];

internalField   nonuniform List<scalar> 
70000
(
0.139088
0.0621998
0.0490558
0.0515086
0.0517685
0.0507189
0.0497548
0.0490178
0.0483992
0.0478495
0.0473546
0.0469065
0.0464972
0.0461196
0.0457675
0.0454358
0.0451201
0.0448164
0.0445212
0.0442314
0.0439441
0.0436562
0.0433652
0.0430681
0.0427621
0.0424442
0.0421112
0.0417597
0.041386
0.0409858
0.0405548
0.0400878
0.0395793
0.0390229
0.0384118
0.0377381
0.0369936
0.0361682
0.035253
0.0342354
0.0331058
0.0318533
0.0304628
0.0289457
0.0272532
0.0254962
0.0235
0.0217068
0.0194924
0.018755
0.134788
0.0625618
0.0492584
0.0516033
0.051823
0.0507547
0.0497827
0.0490408
0.0484186
0.047866
0.047369
0.0469192
0.0465086
0.0461298
0.0457768
0.0454443
0.0451279
0.0448236
0.0445279
0.0442377
0.0439499
0.0436617
0.0433703
0.0430729
0.0427667
0.0424485
0.0421153
0.0417636
0.0413896
0.0409893
0.040558
0.0400908
0.0395821
0.0390255
0.0384142
0.0377402
0.0369955
0.0361698
0.0352541
0.0342362
0.033106
0.0318528
0.0304614
0.0289434
0.0272494
0.025491
0.0234927
0.0216959
0.0194875
0.0187269
0.131182
0.0634841
0.0496029
0.0517319
0.0518977
0.0507997
0.0498151
0.0490671
0.0484405
0.0478846
0.047385
0.0469332
0.046521
0.046141
0.045787
0.0454536
0.0451364
0.0448315
0.0445353
0.0442446
0.0439563
0.0436678
0.043376
0.0430783
0.0427718
0.0424534
0.04212
0.0417681
0.0413939
0.0409934
0.040562
0.0400946
0.0395858
0.039029
0.0384176
0.0377435
0.0369986
0.0361727
0.0352568
0.0342384
0.0331082
0.0318545
0.0304624
0.0289436
0.0272481
0.0254881
0.0234864
0.0216824
0.0194939
0.0186215
0.128077
0.0645832
0.0500792
0.0519044
0.0519988
0.0508577
0.0498534
0.0490971
0.0484652
0.0479052
0.0474026
0.0469485
0.0465345
0.046153
0.0457978
0.0454635
0.0451455
0.0448399
0.0445431
0.0442518
0.0439632
0.0436742
0.0433821
0.0430841
0.0427774
0.0424587
0.0421251
0.041773
0.0413988
0.0409981
0.0405667
0.0400993
0.0395904
0.0390336
0.0384222
0.0377482
0.0370033
0.0361775
0.0352617
0.0342435
0.0331132
0.0318597
0.0304672
0.028948
0.0272513
0.025489
0.0234845
0.0216653
0.0194981
0.0184239
0.125121
0.0656768
0.0506526
0.0521225
0.0521334
0.0509362
0.0499025
0.0491342
0.0484953
0.04793
0.0474233
0.0469663
0.04655
0.0461668
0.0458101
0.0454747
0.0451557
0.0448493
0.0445518
0.04426
0.0439708
0.0436814
0.043389
0.0430907
0.0427837
0.0424649
0.0421311
0.0417789
0.0414045
0.0410039
0.0405724
0.0401051
0.0395963
0.0390398
0.0384286
0.0377549
0.0370104
0.0361851
0.0352698
0.0342522
0.0331225
0.0318697
0.0304777
0.0289586
0.0272613
0.0254959
0.0234895
0.021646
0.0194913
0.0181415
0.122214
0.0667088
0.0512763
0.0523668
0.0522953
0.0510366
0.0499651
0.0491806
0.0485328
0.0479607
0.0474488
0.0469879
0.0465688
0.0461833
0.0458249
0.0454879
0.0451678
0.0448603
0.044562
0.0442695
0.0439797
0.0436899
0.043397
0.0430984
0.0427911
0.0424721
0.0421382
0.0417859
0.0414116
0.041011
0.0405797
0.0401126
0.0396041
0.039048
0.0384374
0.0377643
0.0370207
0.0361963
0.0352821
0.0342658
0.0331374
0.031886
0.0304956
0.0289776
0.0272809
0.0255119
0.0235044
0.0216271
0.0194678
0.0177818
0.119348
0.067662
0.051917
0.0526161
0.0524716
0.0511544
0.0500401
0.0492363
0.0485781
0.047998
0.0474799
0.0470143
0.0465915
0.0462033
0.0458426
0.0455038
0.0451822
0.0448735
0.0445742
0.0442808
0.0439904
0.0437
0.0434067
0.0431077
0.0428001
0.0424809
0.0421469
0.0417946
0.0414203
0.0410199
0.0405889
0.0401222
0.0396143
0.0390589
0.0384491
0.0377771
0.0370348
0.036212
0.0352997
0.0342856
0.0331596
0.031911
0.0305233
0.0290077
0.0273131
0.0255404
0.0235326
0.0216123
0.0194248
0.0173564
0.116534
0.0685298
0.0525586
0.0528587
0.0526511
0.0512829
0.0501241
0.0492992
0.0486299
0.0480412
0.0475162
0.0470453
0.0466185
0.046227
0.0458637
0.0455228
0.0451994
0.0448893
0.0445888
0.0442944
0.0440032
0.043712
0.0434182
0.0431188
0.0428109
0.0424916
0.0421575
0.0418053
0.0414311
0.0410311
0.0406005
0.0401344
0.0396273
0.0390729
0.0384645
0.0377941
0.0370537
0.0362333
0.0353237
0.0343129
0.0331906
0.0319463
0.0305627
0.0290514
0.027361
0.0255847
0.0235776
0.0216056
0.0193624
0.016883
0.113777
0.0693097
0.0531956
0.0530908
0.0528279
0.0514174
0.0502138
0.0493667
0.0486864
0.048089
0.0475568
0.0470803
0.0466491
0.0462542
0.0458881
0.0455448
0.0452195
0.0449078
0.0446059
0.0443104
0.0440182
0.0437263
0.0434319
0.0431321
0.0428239
0.0425043
0.0421702
0.0418181
0.0414443
0.0410447
0.0406148
0.0401496
0.0396436
0.0390907
0.038484
0.0378158
0.037078
0.0362609
0.0353551
0.0343489
0.0332316
0.0319934
0.0306161
0.0291109
0.0274271
0.025648
0.023642
0.0216116
0.0192849
0.0163847
0.111081
0.070001
0.0538265
0.0533122
0.0529989
0.0515549
0.0503072
0.0494369
0.0487455
0.0481398
0.0476004
0.0471182
0.0466827
0.0462842
0.0459151
0.0455695
0.0452421
0.0449287
0.0446253
0.0443287
0.0440355
0.0437428
0.0434478
0.0431475
0.042839
0.0425194
0.0421853
0.0418334
0.04146
0.041061
0.0406319
0.0401679
0.0396634
0.0391123
0.038508
0.0378427
0.0371083
0.0362953
0.0353945
0.0343943
0.0332838
0.0320536
0.0306848
0.0291879
0.0275135
0.0257328
0.0237281
0.0216349
0.0191998
0.0158882
0.108449
0.070604
0.0544504
0.053524
0.0531627
0.0516941
0.0504032
0.0495087
0.0488062
0.0481923
0.047646
0.0471582
0.0467182
0.0463162
0.0459442
0.0455962
0.0452667
0.0449516
0.0446468
0.0443489
0.0440548
0.0437613
0.0434657
0.043165
0.0428563
0.0425365
0.0422026
0.041851
0.0414782
0.04108
0.0406521
0.0401895
0.0396869
0.0391381
0.0385366
0.0378748
0.0371448
0.036337
0.0354423
0.0344496
0.0333476
0.0321275
0.0307697
0.0292835
0.0276214
0.0258408
0.0238371
0.0216796
0.0191176
0.0154231
0.105884
0.0711191
0.0550658
0.0537272
0.0533185
0.051834
0.0505014
0.0495817
0.0488678
0.0482461
0.0476928
0.0471994
0.0467551
0.0463496
0.0459748
0.0456243
0.0452929
0.044976
0.0446698
0.0443708
0.0440757
0.0437815
0.0434853
0.0431842
0.0428754
0.0425557
0.042222
0.0418709
0.0414988
0.0411016
0.0406751
0.0402142
0.0397139
0.0391679
0.0385699
0.0379123
0.0371873
0.0363858
0.0354985
0.0345147
0.033423
0.032215
0.0308707
0.0293977
0.0277508
0.0259726
0.0239695
0.0217492
0.0190507
0.0150176
0.10339
0.0715469
0.0556703
0.0539234
0.0534657
0.0519738
0.0506018
0.0496556
0.0489301
0.0483006
0.0477406
0.0472416
0.046793
0.046384
0.0460064
0.0456535
0.0453201
0.0450016
0.0446941
0.0443939
0.0440979
0.0438031
0.0435064
0.043205
0.042896
0.0425765
0.0422431
0.0418927
0.0415215
0.0411255
0.0407006
0.0402419
0.0397441
0.0392014
0.0386073
0.0379547
0.0372356
0.0364414
0.0355626
0.0345893
0.0335095
0.0323155
0.0309872
0.0295298
0.027901
0.0261277
0.0241251
0.0218464
0.0190115
0.0146946
0.100967
0.0718885
0.0562612
0.0541139
0.0536037
0.0521126
0.0507041
0.0497304
0.0489929
0.0483559
0.0477891
0.0472846
0.0468316
0.0464192
0.0460387
0.0456836
0.0453482
0.0450281
0.0447193
0.044418
0.0441212
0.0438257
0.0435286
0.043227
0.042918
0.0425987
0.0422658
0.0419161
0.041546
0.0411515
0.0407285
0.0402721
0.0397773
0.0392383
0.0386488
0.0380016
0.0372893
0.0365032
0.0356341
0.0346724
0.0336063
0.0324282
0.031118
0.0296786
0.0280702
0.0263049
0.0243032
0.0219732
0.0190114
0.0144722
0.0986197
0.0721451
0.0568355
0.0543003
0.0537323
0.0522495
0.0508083
0.0498063
0.0490561
0.0484117
0.0478383
0.0473283
0.0468709
0.046455
0.0460718
0.0457143
0.0453771
0.0450554
0.0447452
0.0444429
0.0441453
0.0438492
0.0435517
0.04325
0.0429411
0.0426221
0.0422898
0.041941
0.0415721
0.0411793
0.0407584
0.0403047
0.0398132
0.0392783
0.0386937
0.0380527
0.0373478
0.0365706
0.0357123
0.0347635
0.0337124
0.0325517
0.0312617
0.0298424
0.0282567
0.0265026
0.024503
0.0221311
0.0190602
0.0143643
0.0963491
0.0723186
0.0573899
0.0544842
0.0538512
0.0523835
0.0509142
0.0498831
0.0491197
0.048468
0.0478882
0.0473726
0.0469108
0.0464915
0.0461055
0.0457457
0.0454065
0.0450832
0.0447718
0.0444685
0.0441701
0.0438734
0.0435757
0.0432739
0.0429651
0.0426466
0.042315
0.0419672
0.0415998
0.0412088
0.0407901
0.0403394
0.0398515
0.039321
0.0387419
0.0381076
0.0374107
0.0366433
0.0357965
0.0348617
0.033827
0.0326851
0.0314171
0.0300199
0.0284586
0.0267193
0.0247243
0.0223213
0.0191657
0.0143788
0.0941569
0.0724111
0.0579213
0.0546668
0.0539604
0.0525136
0.0510213
0.049961
0.0491836
0.0485248
0.0479388
0.0474175
0.0469514
0.0465286
0.0461398
0.0457776
0.0454366
0.0451117
0.044799
0.0444948
0.0441956
0.0438985
0.0436004
0.0432986
0.0429901
0.042672
0.0423413
0.0419947
0.0416288
0.0412398
0.0408237
0.0403761
0.0398921
0.0393665
0.0387932
0.038166
0.0374777
0.0367208
0.0358865
0.0349665
0.0339493
0.0328276
0.031583
0.0302098
0.0286748
0.0269538
0.0249669
0.0225454
0.0193336
0.0145188
0.0920444
0.0724253
0.0584266
0.0548491
0.0540603
0.0526388
0.0511293
0.0500399
0.0492478
0.048582
0.0479899
0.0474632
0.0469925
0.0465663
0.0461747
0.0458102
0.0454673
0.0451409
0.0448269
0.0445217
0.0442218
0.0439242
0.043626
0.0433242
0.043016
0.0426985
0.0423687
0.0420234
0.0416591
0.0412723
0.040859
0.0404148
0.039935
0.0394145
0.0388475
0.0382279
0.0375488
0.0368029
0.0359819
0.0350777
0.0340791
0.0329787
0.031759
0.0304115
0.0289045
0.0272055
0.0252314
0.022805
0.0195678
0.0147841
0.0900122
0.0723644
0.0589027
0.055032
0.0541511
0.0527582
0.0512378
0.0501198
0.0493122
0.0486394
0.0480415
0.0475094
0.0470343
0.0466046
0.0462102
0.0458435
0.0454986
0.0451707
0.0448555
0.0445493
0.0442488
0.0439508
0.0436524
0.0433507
0.0430429
0.0427261
0.0423973
0.0420533
0.0416909
0.0413064
0.040896
0.0404555
0.0399802
0.0394651
0.0389048
0.0382933
0.0376239
0.0368897
0.0360827
0.035195
0.0342161
0.0331381
0.0319446
0.0306246
0.0291476
0.0274745
0.0255191
0.0231021
0.019871
0.0151725
0.0880608
0.0722321
0.0593468
0.055216
0.0542335
0.0528707
0.0513462
0.0502008
0.0493768
0.0486969
0.0480936
0.0475562
0.0470766
0.0466435
0.0462463
0.0458773
0.0455305
0.0452011
0.0448847
0.0445776
0.0442765
0.0439781
0.0436796
0.043378
0.0430707
0.0427546
0.042427
0.0420845
0.0417241
0.0413421
0.0409349
0.0404982
0.0400277
0.0395185
0.0389652
0.0383622
0.0377031
0.0369812
0.0361889
0.0353187
0.0343603
0.033306
0.0321399
0.0308494
0.0294043
0.0277612
0.0258315
0.0234386
0.0202448
0.0156803
0.0861901
0.0720326
0.059756
0.0554009
0.054308
0.0529757
0.0514539
0.0502828
0.0494415
0.0487546
0.0481461
0.0476035
0.0471196
0.0466829
0.046283
0.0459117
0.0455631
0.0452322
0.0449147
0.0446067
0.0443049
0.0440062
0.0437076
0.0434063
0.0430995
0.0427843
0.0424579
0.0421171
0.0417588
0.0413795
0.0409756
0.0405431
0.0400777
0.0395746
0.0390288
0.0384348
0.0377865
0.0370776
0.0363007
0.0354487
0.034512
0.0334825
0.0323452
0.031086
0.0296751
0.0280665
0.0261702
0.0238167
0.02069
0.0163028
0.0843996
0.0717704
0.0601277
0.0555866
0.0543757
0.0530725
0.05156
0.0503656
0.0495065
0.0488122
0.0481989
0.0476514
0.047163
0.0467229
0.0463202
0.0459468
0.0455964
0.045264
0.0449453
0.0446365
0.0443341
0.0440351
0.0437365
0.0434355
0.0431293
0.0428151
0.04249
0.042151
0.0417951
0.0414187
0.0410184
0.0405903
0.0401302
0.0396336
0.0390957
0.0385112
0.0378743
0.037179
0.0364183
0.0355855
0.0346714
0.0336678
0.0325608
0.031335
0.0299609
0.0283914
0.0265369
0.0242382
0.0212069
0.0170346
0.0826884
0.0714505
0.0604595
0.0557724
0.0544374
0.0531606
0.0516638
0.0504491
0.0495716
0.0488697
0.0482519
0.0476997
0.047207
0.0467635
0.0463581
0.0459825
0.0456303
0.0452964
0.0449766
0.044667
0.0443641
0.0440649
0.0437664
0.0434658
0.0431603
0.0428471
0.0425235
0.0421865
0.0418329
0.0414597
0.0410632
0.0406398
0.0401854
0.0396957
0.0391661
0.0385915
0.0379666
0.0372855
0.0365419
0.0357291
0.0348387
0.0338625
0.0327872
0.0315968
0.0302625
0.0287371
0.0269333
0.0247046
0.0217945
0.0178694
0.0810552
0.071078
0.0607495
0.0559571
0.0544941
0.0532396
0.0517645
0.050533
0.0496369
0.048927
0.048305
0.0477484
0.0472515
0.0468046
0.0463965
0.0460187
0.0456648
0.0453295
0.0450087
0.0446983
0.0443949
0.0440956
0.0437972
0.043497
0.0431923
0.0428803
0.0425583
0.0422234
0.0418725
0.0415026
0.0411102
0.0406917
0.0402434
0.039761
0.0392401
0.038676
0.0380637
0.0373976
0.0366717
0.0358799
0.0350142
0.0340667
0.0330247
0.0318721
0.0305808
0.0291046
0.0273607
0.025217
0.0224515
0.0188002
0.0794984
0.0706585
0.060996
0.0561393
0.0545469
0.0533096
0.0518612
0.0506169
0.0497023
0.048984
0.0483581
0.0477974
0.0472965
0.0468462
0.0464355
0.0460556
0.0456999
0.0453634
0.0450414
0.0447303
0.0444266
0.0441271
0.043829
0.0435293
0.0432255
0.0429149
0.0425946
0.0422619
0.0419139
0.0415475
0.0411594
0.0407462
0.0403042
0.0398295
0.0393179
0.0387649
0.0381656
0.0375152
0.036808
0.0360381
0.0351984
0.0342808
0.0332739
0.0321615
0.0309165
0.0294951
0.0278203
0.0257757
0.0231754
0.0198193
0.0780161
0.0701975
0.0611977
0.0563171
0.0545967
0.0533705
0.051953
0.0507006
0.049768
0.0490407
0.0484111
0.0478468
0.0473419
0.0468883
0.046475
0.0460931
0.0457358
0.0453979
0.045075
0.0447632
0.0444591
0.0441596
0.0438618
0.0435628
0.04326
0.0429507
0.0426324
0.0423021
0.0419572
0.0415945
0.041211
0.0408034
0.0403681
0.0399015
0.0393996
0.0388581
0.0382728
0.0376388
0.036951
0.0362041
0.0353913
0.0345053
0.0335351
0.0324654
0.0312704
0.0299093
0.0283127
0.0263806
0.0239633
0.0209185
0.076606
0.0697007
0.0613538
0.0564883
0.0546445
0.0534227
0.0520391
0.0507835
0.0498337
0.049097
0.0484638
0.0478962
0.0473877
0.0469308
0.046515
0.0461311
0.0457722
0.0454331
0.0451093
0.0447969
0.0444926
0.0441931
0.0438956
0.0435973
0.0432957
0.042988
0.0426717
0.0423441
0.0420024
0.0416437
0.0412651
0.0408634
0.0404352
0.0399771
0.0394854
0.0389561
0.0383852
0.0377684
0.0371009
0.036378
0.0355935
0.0347404
0.0338088
0.0327844
0.031643
0.0303479
0.0288382
0.0270311
0.0248115
0.0220892
0.0752656
0.0691739
0.0614642
0.0566506
0.054691
0.0534666
0.0521187
0.050865
0.0498995
0.049153
0.0485162
0.0479458
0.0474338
0.0469738
0.0465555
0.0461697
0.0458093
0.045469
0.0451443
0.0448314
0.0445269
0.0442275
0.0439305
0.0436331
0.0433327
0.0430267
0.0427126
0.0423878
0.0420496
0.0416952
0.0413217
0.0409262
0.0405056
0.0400564
0.0395754
0.0390589
0.0385031
0.0379042
0.037258
0.0365601
0.035805
0.0349865
0.0340954
0.033119
0.0320351
0.0308115
0.0293969
0.0277256
0.0257155
0.0233223
0.0739923
0.0686226
0.0615289
0.0568013
0.0547368
0.0535029
0.0521912
0.0509445
0.0499651
0.0492085
0.0485681
0.0479952
0.0474801
0.0470171
0.0465965
0.0462089
0.045847
0.0455056
0.0451801
0.0448668
0.0445621
0.044263
0.0439665
0.0436701
0.0433711
0.043067
0.0427552
0.0424334
0.0420989
0.041749
0.041381
0.0409921
0.0405793
0.0401396
0.0396698
0.0391666
0.0386267
0.0380465
0.0374225
0.0367506
0.0360263
0.0352438
0.0343957
0.0334693
0.0324467
0.0313001
0.0299883
0.0284623
0.0266707
0.0246085
0.0727832
0.0680522
0.061549
0.0569378
0.054782
0.0535322
0.0522561
0.0510213
0.0500305
0.0492635
0.0486195
0.0480445
0.0475267
0.0470608
0.0466379
0.0462485
0.0458853
0.0455429
0.0452167
0.044903
0.0445983
0.0442995
0.0440037
0.0437083
0.0434108
0.0431087
0.0427996
0.042481
0.0421503
0.0418052
0.041443
0.0410611
0.0406566
0.0402268
0.0397687
0.0392795
0.0387561
0.0381955
0.0375945
0.0369498
0.0362574
0.0355126
0.034709
0.0338358
0.0328783
0.0318138
0.0306115
0.0292386
0.0276715
0.0259386
0.0716353
0.0674677
0.0615256
0.0570578
0.0548265
0.0535554
0.0523132
0.0510946
0.0500953
0.0493181
0.0486701
0.0480935
0.0475734
0.0471048
0.0466797
0.0462887
0.0459242
0.0455809
0.0452541
0.0449401
0.0446354
0.044337
0.0440421
0.0437479
0.0434521
0.0431521
0.0428457
0.0425305
0.0422041
0.041864
0.0415079
0.0411333
0.0407375
0.0403181
0.0398723
0.0393977
0.0388915
0.0383513
0.0377743
0.0371577
0.0364987
0.0357931
0.0350359
0.0342185
0.0333296
0.032352
0.0312652
0.0300517
0.0287122
0.027303
0.0705457
0.0668736
0.0614606
0.0571591
0.0548699
0.0535732
0.0523621
0.0511638
0.0501591
0.0493722
0.0487201
0.0481421
0.04762
0.0471491
0.0467219
0.0463293
0.0459637
0.0456195
0.0452922
0.0449781
0.0446736
0.0443757
0.0440816
0.0437888
0.0434948
0.0431972
0.0428937
0.0425822
0.0422602
0.0419255
0.0415758
0.0412088
0.0408222
0.0404136
0.0399807
0.0395213
0.0390331
0.038514
0.0379619
0.0373747
0.0367502
0.0360854
0.0353766
0.0346177
0.0338006
0.0329141
0.0319477
0.0308979
0.0297867
0.0286927
0.0695112
0.0662743
0.0613564
0.0572399
0.0549113
0.0535864
0.0524031
0.0512282
0.0502216
0.0494256
0.0487693
0.0481901
0.0476665
0.0471935
0.0467644
0.0463704
0.0460038
0.0456588
0.0453312
0.0450169
0.0447127
0.0444154
0.0441224
0.0438311
0.043539
0.043244
0.0429437
0.042636
0.0423187
0.0419896
0.0416467
0.0412878
0.0409108
0.0405135
0.0400941
0.0396505
0.0391809
0.0386838
0.0381576
0.0376007
0.037012
0.0363895
0.0357311
0.035033
0.0342908
0.0334991
0.0326569
0.0317734
0.0308886
0.0300984
0.0685287
0.0656733
0.0612157
0.0572985
0.0549496
0.0535957
0.0524362
0.0512871
0.0502823
0.0494784
0.0488176
0.0482374
0.0477128
0.0472381
0.0468072
0.0464118
0.0460443
0.0456988
0.0453708
0.0450566
0.0447528
0.0444563
0.0441645
0.0438748
0.0435849
0.0432925
0.0429956
0.042692
0.0423796
0.0420566
0.0417208
0.0413703
0.0410033
0.0406179
0.0402125
0.0397853
0.0393352
0.0388608
0.0383613
0.0378359
0.0372843
0.0367055
0.0360993
0.0354641
0.0347995
0.0341057
0.0333903
0.032674
0.0320116
0.0315112
0.0675953
0.065074
0.0610414
0.0573339
0.0549835
0.0536015
0.0524618
0.05134
0.0503407
0.0495302
0.048865
0.0482839
0.0477588
0.0472826
0.0468502
0.0464536
0.0460854
0.0457394
0.0454113
0.0450972
0.0447939
0.0444983
0.0442078
0.0439199
0.0436323
0.0433429
0.0430495
0.0427503
0.0424432
0.0421264
0.0417981
0.0414565
0.0411
0.0407269
0.040336
0.039926
0.0394959
0.0390451
0.0385733
0.0380803
0.0375668
0.0370333
0.0364808
0.0359106
0.0353259
0.0347322
0.0341451
0.0335952
0.0331488
0.0329225
0.066708
0.0644792
0.060837
0.0573452
0.0550114
0.0536041
0.0524804
0.0513866
0.0503961
0.049581
0.0489115
0.0483295
0.0478042
0.0473271
0.0468933
0.0464958
0.0461269
0.0457807
0.0454525
0.0451387
0.0448361
0.0445415
0.0442525
0.0439665
0.0436814
0.0433951
0.0431056
0.0428109
0.0425094
0.0421992
0.0418787
0.0415464
0.0412008
0.0408406
0.0404648
0.0400725
0.0396632
0.0392367
0.0387934
0.0383339
0.0378597
0.0373725
0.0368754
0.0363718
0.0358687
0.0353767
0.0349181
0.0345322
0.0342937
0.034324
0.065864
0.0638913
0.0606058
0.0573321
0.0550319
0.0536037
0.0524924
0.0514264
0.0504481
0.0496305
0.0489569
0.0483741
0.047849
0.0473714
0.0469366
0.0465382
0.0461689
0.0458225
0.0454944
0.0451811
0.0448792
0.0445859
0.0442985
0.0440147
0.0437323
0.0434492
0.0431637
0.042874
0.0425783
0.042275
0.0419627
0.04164
0.0413058
0.040959
0.0405988
0.0402249
0.039837
0.0394356
0.0390216
0.0385965
0.0381626
0.037723
0.0372825
0.0368469
0.0364266
0.0360369
0.0357061
0.0354801
0.0354398
0.0357079
0.0650605
0.0633121
0.0603511
0.0572946
0.0550433
0.0536002
0.0524983
0.0514594
0.050496
0.0496782
0.0490012
0.0484176
0.0478931
0.0474154
0.0469799
0.0465809
0.0462112
0.0458648
0.0455371
0.0452243
0.0449234
0.0446314
0.0443458
0.0440643
0.0437848
0.0435053
0.0432241
0.0429395
0.0426499
0.0423539
0.0420502
0.0417376
0.0414152
0.0410822
0.0407382
0.0403832
0.0400174
0.0396418
0.039258
0.038868
0.0384754
0.0380843
0.0377014
0.0373347
0.0369979
0.0367103
0.0365054
0.0364339
0.0365805
0.0370668
0.064295
0.0627432
0.0600763
0.0572333
0.0550443
0.0535932
0.0524986
0.0514856
0.0505395
0.0497239
0.0490443
0.04846
0.0479363
0.0474589
0.0470231
0.0466237
0.0462539
0.0459077
0.0455804
0.0452685
0.0449686
0.0446782
0.0443946
0.0441156
0.0438391
0.0435634
0.0432867
0.0430075
0.0427243
0.0424359
0.0421411
0.041839
0.0415288
0.0412102
0.040883
0.0405474
0.0402044
0.0398553
0.0395022
0.0391482
0.0387976
0.0384559
0.0381312
0.0378341
0.0375808
0.0373943
0.037312
0.0373884
0.0377096
0.0383938
0.063565
0.0621858
0.0597847
0.057149
0.0550335
0.0535823
0.0524938
0.051505
0.0505779
0.0497672
0.049086
0.0485012
0.0479784
0.0475019
0.0470662
0.0466666
0.0462969
0.045951
0.0456244
0.0453134
0.0450149
0.0447261
0.0444447
0.0441683
0.0438952
0.0436235
0.0433516
0.0430781
0.0428016
0.0425211
0.0422356
0.0419443
0.0416469
0.0413431
0.0410331
0.0407176
0.0403979
0.0400757
0.0397541
0.0394367
0.0391287
0.0388369
0.038571
0.0383436
0.0381732
0.0380859
0.0381222
0.0383386
0.038821
0.0396825
0.0628682
0.0616408
0.0594792
0.0570428
0.05501
0.0535668
0.0524842
0.0515178
0.0506111
0.0498075
0.0491261
0.048541
0.0480195
0.0475442
0.047109
0.0467095
0.0463401
0.0459948
0.0456691
0.0453592
0.0450621
0.0447752
0.0444961
0.0442227
0.0439531
0.0436856
0.0434188
0.0431512
0.0428818
0.0426095
0.0423336
0.0420537
0.0417693
0.0414808
0.0411885
0.0408936
0.0405976
0.0403031
0.0400134
0.0397331
0.0394682
0.0392268
0.0390196
0.0388614
0.0387728
0.0387821
0.0389319
0.0392795
0.039909
0.0409272
0.0622026
0.0611087
0.0591626
0.056916
0.0549731
0.053546
0.05247
0.0515243
0.0506386
0.0498446
0.0491643
0.0485794
0.0480593
0.0475857
0.0471514
0.0467524
0.0463835
0.046039
0.0457143
0.0454057
0.0451103
0.0448255
0.044549
0.0442787
0.0440128
0.0437498
0.0434882
0.0432269
0.0429648
0.0427011
0.0424353
0.0421669
0.0418961
0.0416233
0.0413492
0.0410752
0.0408036
0.0405371
0.0402798
0.0400369
0.0398154
0.0396243
0.0394757
0.0393859
0.0393772
0.0394797
0.0397369
0.0402061
0.0409682
0.0421228
0.0615661
0.06059
0.0588375
0.0567703
0.0549221
0.0535191
0.0524512
0.0515247
0.0506604
0.0498779
0.0492005
0.0486163
0.0480978
0.0476262
0.0471933
0.0467952
0.046427
0.0460835
0.04576
0.045453
0.0451595
0.044877
0.0446032
0.0443363
0.0440744
0.0438161
0.04356
0.0433052
0.0430508
0.042796
0.0425405
0.0422842
0.0420273
0.0417705
0.0415149
0.0412624
0.0410154
0.0407774
0.0405528
0.0403476
0.0401695
0.0400285
0.0399377
0.0399151
0.039984
0.0401753
0.0405332
0.0411136
0.0419936
0.0432645
0.0609569
0.0600848
0.058506
0.0566074
0.054857
0.0534853
0.0524278
0.0515193
0.0506763
0.0499071
0.0492343
0.0486514
0.0481349
0.0476656
0.0472346
0.0468376
0.0464705
0.0461283
0.0458063
0.045501
0.0452096
0.0449296
0.0446588
0.0443954
0.0441377
0.0438844
0.0436342
0.0433862
0.0431396
0.042894
0.0426492
0.0424053
0.0421626
0.0419223
0.0416857
0.0414549
0.0412329
0.0410235
0.0408318
0.0406643
0.0405295
0.0404381
0.0404041
0.040447
0.0405903
0.0408657
0.0413168
0.0419978
0.0429807
0.0443484
0.0603733
0.0595932
0.0581704
0.056429
0.0547779
0.0534438
0.0523997
0.0515084
0.0506864
0.0499319
0.0492653
0.0486848
0.0481705
0.0477038
0.0472751
0.0468798
0.046514
0.0461732
0.045853
0.0455497
0.0452606
0.0449833
0.0447157
0.0444561
0.0442029
0.0439547
0.0437106
0.0434697
0.0432313
0.0429953
0.0427615
0.0425302
0.0423021
0.0420786
0.0418612
0.0416525
0.0414557
0.0412751
0.0411163
0.0409864
0.0408944
0.0408518
0.040873
0.0409792
0.0411934
0.0415473
0.0420837
0.0428542
0.0439253
0.0453713
0.0598137
0.0591152
0.0578322
0.0562369
0.0546849
0.0533941
0.0523665
0.0514921
0.0506906
0.049952
0.0492933
0.0487161
0.0482045
0.0477408
0.0473147
0.0469214
0.0465574
0.0462184
0.0459001
0.0455991
0.0453125
0.0450381
0.044774
0.0445184
0.0442698
0.0440271
0.0437893
0.0435557
0.0433259
0.0430996
0.0428771
0.0426588
0.0424456
0.0422391
0.0420412
0.0418548
0.0416833
0.0415316
0.0414056
0.0413128
0.041263
0.0412682
0.0413446
0.0415096
0.0417906
0.0422171
0.0428303
0.043679
0.0448239
0.0463304
0.0592767
0.0586505
0.0574929
0.056033
0.0545787
0.0533357
0.052328
0.0514707
0.0506892
0.0499673
0.0493179
0.0487452
0.0482367
0.0477763
0.0473532
0.0469625
0.0466006
0.0462635
0.0459475
0.0456489
0.0453652
0.045094
0.0448335
0.0445821
0.0443385
0.0441015
0.0438703
0.0436443
0.0434232
0.043207
0.0429961
0.042791
0.042593
0.0424037
0.0422255
0.0420614
0.0419153
0.0417924
0.0416988
0.0416427
0.0416341
0.0416855
0.0418131
0.0420356
0.0423791
0.0428715
0.043553
0.0444686
0.045673
0.0472234
0.058761
0.058199
0.057154
0.0558189
0.0544599
0.0532682
0.0522838
0.0514441
0.0506822
0.0499775
0.0493389
0.0487718
0.0482671
0.0478102
0.0473907
0.0470028
0.0466434
0.0463087
0.0459951
0.0456993
0.0454186
0.0451508
0.0448942
0.0446473
0.0444089
0.0441778
0.0439534
0.0437353
0.0435232
0.0433174
0.0431182
0.0429266
0.0427439
0.0425721
0.0424137
0.0422719
0.0421512
0.0420567
0.0419952
0.0419749
0.0420063
0.0421021
0.0422785
0.0425548
0.0429561
0.0435075
0.0442485
0.0452201
0.0464704
0.0480488
0.0582652
0.0577604
0.0568164
0.0555962
0.0543294
0.0531916
0.0522336
0.0514124
0.0506698
0.0499827
0.0493561
0.0487957
0.0482954
0.0478425
0.0474268
0.0470423
0.0466857
0.0463537
0.0460429
0.0457501
0.0454726
0.0452086
0.0449561
0.044714
0.0444809
0.044256
0.0440387
0.0438287
0.0436258
0.0434305
0.0432433
0.0430654
0.0428982
0.0427439
0.0426053
0.0424859
0.0423902
0.0423238
0.0422936
0.0423083
0.0423782
0.0425163
0.0427386
0.0430645
0.0435193
0.044122
0.0449136
0.0459303
0.0472139
0.0488057
0.0577883
0.0573344
0.0564811
0.0553664
0.054188
0.0531057
0.0521772
0.0513755
0.050652
0.0499827
0.0493691
0.0488166
0.0483215
0.0478731
0.0474615
0.0470808
0.0467275
0.0463985
0.0460907
0.0458012
0.0455273
0.0452672
0.0450191
0.0447819
0.0445544
0.044336
0.044126
0.0439242
0.0437309
0.0435463
0.0433713
0.0432071
0.0430556
0.0429188
0.0428
0.0427027
0.0426317
0.0425929
0.0425932
0.0426415
0.0427483
0.0429263
0.0431912
0.043562
0.0440666
0.0447121
0.0455455
0.0465968
0.0479015
0.0494939
0.0573292
0.0569206
0.0561489
0.0551308
0.0540367
0.0530107
0.0521142
0.0513334
0.050629
0.0499776
0.0493778
0.0488344
0.0483453
0.0479018
0.0474948
0.0471182
0.0467685
0.046443
0.0461385
0.0458525
0.0455825
0.0453265
0.0450831
0.0448511
0.0446295
0.0444176
0.0442151
0.0440219
0.0438382
0.0436645
0.0435018
0.0433516
0.0432156
0.0430964
0.0429971
0.0429217
0.042875
0.042863
0.0428929
0.0429733
0.043115
0.0433303
0.0436343
0.0440442
0.0445761
0.0452743
0.0461414
0.0472178
0.0485326
0.0501131
0.0568869
0.0565188
0.0558204
0.0548908
0.0538766
0.052907
0.0520445
0.051286
0.0506009
0.0499674
0.0493821
0.0488487
0.0483664
0.0479284
0.0475263
0.0471544
0.0468088
0.0464869
0.0461862
0.045904
0.045638
0.0453865
0.045148
0.0449214
0.0447058
0.0445008
0.044306
0.0441215
0.0439476
0.0437849
0.0436347
0.0434983
0.043378
0.0432762
0.0431963
0.0431423
0.0431192
0.0431332
0.0431913
0.0433024
0.0434767
0.0437265
0.044066
0.0445115
0.045081
0.0458027
0.046699
0.0477911
0.0491063
0.0506633
0.0564605
0.0561286
0.0554961
0.0546474
0.0537086
0.0527949
0.051968
0.0512331
0.0505677
0.0499523
0.049382
0.0488595
0.0483849
0.0479528
0.0475562
0.0471891
0.046848
0.0465303
0.0462336
0.0459555
0.0456939
0.045447
0.0452136
0.0449927
0.0447834
0.0445854
0.0443985
0.0442229
0.0440589
0.0439073
0.0437695
0.0436471
0.0435422
0.0434576
0.0433967
0.0433636
0.0433635
0.0434023
0.0434874
0.0436272
0.0438319
0.0441131
0.0444844
0.0449612
0.0455608
0.046306
0.0472165
0.0483102
0.0496111
0.0511419
0.0560492
0.0557496
0.0551765
0.0544016
0.0535337
0.0526748
0.0518847
0.0511747
0.0505294
0.0499321
0.0493773
0.0488665
0.0484004
0.0479749
0.0475841
0.0472223
0.0468861
0.0465729
0.0462806
0.0460069
0.0457499
0.045508
0.0452799
0.0450648
0.0448621
0.0446713
0.0444924
0.0443257
0.0441717
0.0440314
0.043906
0.0437974
0.0437078
0.0436401
0.0435977
0.043585
0.0436068
0.0436694
0.0437798
0.0439464
0.0441789
0.0444883
0.0448875
0.0453907
0.0460141
0.0467762
0.0476948
0.0487861
0.0500687
0.0515581
0.0556521
0.0553815
0.0548619
0.0541545
0.0533528
0.0525474
0.0517948
0.0511108
0.0504861
0.049907
0.049368
0.0488696
0.0484128
0.0479946
0.04761
0.0472539
0.046923
0.0466147
0.046327
0.046058
0.0458059
0.0455692
0.0453467
0.0451377
0.0449416
0.0447582
0.0445875
0.0444299
0.044286
0.0441568
0.0440438
0.0439489
0.0438743
0.0438231
0.0437987
0.0438054
0.0438483
0.0439333
0.0440674
0.0442585
0.044516
0.0448503
0.0452734
0.0457981
0.0464391
0.047212
0.048132
0.0492129
0.0504689
0.0519104
0.0552686
0.0550239
0.0545526
0.0539067
0.0531669
0.0524131
0.0516983
0.0510413
0.0504377
0.0498771
0.0493541
0.0488688
0.0484219
0.0480116
0.0476337
0.0472838
0.0469584
0.0466554
0.0463728
0.0461088
0.0458618
0.0456305
0.0454138
0.0452111
0.0450218
0.0448459
0.0446835
0.044535
0.0444012
0.0442832
0.0441824
0.0441009
0.044041
0.0440058
0.0439988
0.0440241
0.0440868
0.0441928
0.0443486
0.044562
0.0448417
0.0451975
0.0456403
0.0461817
0.0468346
0.0476121
0.0485269
0.0495904
0.0508129
0.0522009
0.054898
0.0546765
0.0542487
0.053659
0.0529769
0.0522727
0.0515957
0.0509663
0.0503844
0.0498424
0.0493357
0.0488638
0.0484276
0.0480257
0.0476551
0.0473116
0.0469923
0.0466949
0.0464176
0.046159
0.0459174
0.0456917
0.0454811
0.0452848
0.0451025
0.0449343
0.0447802
0.0446409
0.0445171
0.0444101
0.0443214
0.044253
0.0442074
0.0441876
0.0441971
0.0442401
0.0443214
0.0444467
0.0446223
0.0448556
0.0451545
0.0455283
0.0459866
0.0465399
0.0471992
0.0479755
0.0488792
0.0499189
0.051102
0.0524318
0.0545395
0.054339
0.0539505
0.0534119
0.0527834
0.0521268
0.0514871
0.0508858
0.050326
0.0498029
0.0493127
0.0488547
0.0484297
0.048037
0.047674
0.0473375
0.0470245
0.0467331
0.0464615
0.0462084
0.0459725
0.0457527
0.0455483
0.0453586
0.0451834
0.0450229
0.0448772
0.044747
0.0446332
0.0445371
0.0444602
0.0444046
0.0443728
0.0443678
0.0443929
0.0444524
0.0445509
0.0446938
0.0448871
0.0451377
0.0454529
0.0458411
0.0463109
0.0468714
0.0475321
0.0483018
0.0491887
0.0501993
0.0513381
0.0526059
0.0541928
0.054011
0.053658
0.0531662
0.0525874
0.0519759
0.0513729
0.0508
0.0502628
0.0497588
0.0492852
0.0488415
0.0484282
0.0480451
0.0476903
0.0473611
0.0470549
0.0467697
0.0465041
0.0462569
0.0460269
0.0458133
0.0456152
0.0454322
0.0452643
0.0451115
0.0449743
0.0448532
0.0447492
0.0446637
0.0445983
0.0445551
0.0445365
0.0445454
0.0445853
0.0446601
0.0447743
0.044933
0.0451418
0.0454071
0.0457356
0.0461346
0.0466119
0.0471753
0.0478324
0.0485905
0.0494558
0.0504325
0.051523
0.0527261
0.0538572
0.0536923
0.0533713
0.0529221
0.0523894
0.0518207
0.0512535
0.0507091
0.0501947
0.04971
0.0492532
0.048824
0.048423
0.04805
0.0477038
0.0473823
0.0470831