/*--------------------------------*- C++ -*----------------------------------*\
  =========                 |
  \\      /  F ield         | OpenFOAM: The Open Source CFD Toolbox
   \\    /   O peration     | Website:  https://openfoam.org
    \\  /    A nd           | Version:  7
     \\/     M anipulation  |
\*---------------------------------------------------------------------------*/
FoamFile
{
    version     2.0;
    format      ascii;
    class       surfaceScalarField;
    location    "0.28";
    object      phi;
}
// * * * * * * * * * * * * * * * * * * * * * * * * * * * * * * * * * * * * * //

dimensions      [0 3 -1 0 0 0 0];

internalField   nonuniform List<scalar> 
139350
(
6.45923e-08
9.20392e-08
3.19504e-08
3.26419e-08
2.30585e-08
8.89194e-09
1.95632e-08
3.49534e-09
1.76103e-08
1.95281e-09
1.61819e-08
1.42848e-09
1.50482e-08
1.13363e-09
1.41341e-08
9.14159e-10
1.33819e-08
7.52175e-10
1.27486e-08
6.33287e-10
1.22054e-08
5.43212e-10
1.17329e-08
4.72493e-10
1.13174e-08
4.15524e-10
1.09486e-08
3.68776e-10
1.06188e-08
3.29838e-10
1.03218e-08
2.96979e-10
1.00529e-08
2.68927e-10
9.80815e-09
2.44719e-10
9.58453e-09
2.23624e-10
9.37946e-09
2.05068e-10
9.19086e-09
1.88602e-10
9.01699e-09
1.73863e-10
8.85644e-09
1.60555e-10
8.70801e-09
1.48434e-10
8.57071e-09
1.37293e-10
8.44376e-09
1.26951e-10
8.32651e-09
1.17253e-10
8.21845e-09
1.08055e-10
8.11923e-09
9.92207e-11
8.0286e-09
9.06307e-11
7.94646e-09
8.21398e-11
7.87282e-09
7.36414e-11
7.80787e-09
6.49552e-11
7.75187e-09
5.59996e-11
7.70538e-09
4.64901e-11
7.66893e-09
3.64416e-11
7.64364e-09
2.52956e-11
7.63023e-09
1.34061e-11
7.63069e-09
-4.62032e-13
7.64583e-09
-1.51361e-11
7.67879e-09
-3.2962e-11
7.73055e-09
-5.17522e-11
7.80451e-09
-7.39604e-11
7.90394e-09
-9.94387e-11
8.02606e-09
-1.22116e-10
8.18469e-09
-1.58626e-10
8.34522e-09
-1.60538e-10
8.56809e-09
-2.22862e-10
8.49044e-09
7.76515e-11
-3.42056e-09
1.1911e-08
1.26026e-07
1.27457e-07
9.12618e-08
6.74057e-08
7.19381e-08
2.82156e-08
6.12075e-08
1.42259e-08
5.47574e-08
8.40293e-09
5.02598e-08
5.92598e-09
4.67727e-08
4.62082e-09
4.39548e-08
3.73205e-09
4.16272e-08
3.0797e-09
3.96655e-08
2.595e-09
3.79825e-08
2.22619e-09
3.65182e-08
1.93681e-09
3.52298e-08
1.70394e-09
3.40857e-08
1.51294e-09
3.30616e-08
1.35389e-09
3.21389e-08
1.21972e-09
3.13026e-08
1.10521e-09
3.05408e-08
1.00647e-09
2.9844e-08
9.20482e-10
2.92041e-08
8.44937e-10
2.86147e-08
7.77999e-10
2.80704e-08
7.18197e-10
2.75666e-08
6.64341e-10
2.70996e-08
6.15442e-10
2.66662e-08
5.70677e-10
2.62638e-08
5.29328e-10
2.58903e-08
4.90783e-10
2.55439e-08
4.54481e-10
2.52232e-08
4.19904e-10
2.49272e-08
3.86586e-10
2.46554e-08
3.54011e-10
2.44072e-08
3.21749e-10
2.4183e-08
2.89196e-10
2.3983e-08
2.55982e-10
2.38083e-08
2.21194e-10
2.36601e-08
1.84703e-10
2.35406e-08
1.44792e-10
2.34518e-08
1.02213e-10
2.3398e-08
5.32869e-11
2.33818e-08
1.07164e-12
2.34109e-08
-6.21001e-11
2.34871e-08
-1.27885e-10
2.36245e-08
-2.11376e-10
2.38195e-08
-2.9445e-10
2.40981e-08
-4.00747e-10
2.44402e-08
-5.00747e-10
2.4877e-08
-5.97245e-10
2.53886e-08
-7.34506e-10
2.57353e-08
-2.69008e-10
-3.80536e-09
2.61201e-08
1.58807e-07
1.35054e-07
1.36493e-07
8.97197e-08
1.17488e-07
4.72204e-08
1.03305e-07
2.84091e-08
9.32919e-08
1.84162e-08
8.59834e-08
1.32345e-08
8.02716e-08
1.03326e-08
7.56158e-08
8.38781e-09
7.17346e-08
6.96094e-09
6.84413e-08
5.88828e-09
6.56029e-08
5.06454e-09
6.31247e-08
4.41506e-09
6.09379e-08
3.89077e-09
5.89911e-08
3.45969e-09
5.7245e-08
3.09998e-09
5.56688e-08
2.79599e-09
5.42377e-08
2.53623e-09
5.29322e-08
2.31199e-09
5.17361e-08
2.1166e-09
5.06361e-08
1.94489e-09
4.96214e-08
1.79274e-09
4.86827e-08
1.65688e-09
4.78124e-08
1.53463e-09
4.70041e-08
1.42378e-09
4.62523e-08
1.32251e-09
4.55524e-08
1.22921e-09
4.49006e-08
1.14254e-09
4.42938e-08
1.06125e-09
4.37295e-08
9.84235e-10
4.32056e-08
9.10464e-10
4.27208e-08
8.38871e-10
4.2274e-08
7.68514e-10
4.1865e-08
6.9818e-10
4.1494e-08
6.27037e-10
4.11619e-08
5.53314e-10
4.087e-08
4.76582e-10
4.06212e-08
3.93614e-10
4.04179e-08
3.05456e-10
4.02659e-08
2.05309e-10
4.01684e-08
9.85412e-11
4.01365e-08
-3.01637e-11
4.01715e-08
-1.62904e-10
4.02967e-08
-3.36535e-10
4.04998e-08
-4.97553e-10
4.08351e-08
-7.36049e-10
4.12471e-08
-9.12762e-10
4.18349e-08
-1.18503e-09
4.24923e-08
-1.39195e-09
4.31818e-08
-9.58497e-10
-3.54903e-09
4.29255e-08
1.75664e-07
1.30906e-07
1.65594e-07
9.97898e-08
1.5272e-07
6.00945e-08
1.40115e-07
4.10139e-08
1.29418e-07
2.91133e-08
1.20766e-07
2.18862e-08
1.13646e-07
1.7453e-08
1.07658e-07
1.43756e-08
1.02552e-07
1.20665e-08
9.81476e-08
1.02931e-08
9.43043e-08
8.90791e-09
9.09168e-08
7.80255e-09
8.79052e-08
6.90237e-09
8.52078e-08
6.1571e-09
8.27761e-08
5.53168e-09
8.05714e-08
5.00069e-09
7.85624e-08
4.54521e-09
7.67236e-08
4.15076e-09
7.5034e-08
3.8062e-09
7.34762e-08
3.50277e-09
7.20354e-08
3.2335e-09
7.06995e-08
2.99279e-09
6.9458e-08
2.77608e-09
6.83022e-08
2.57956e-09
6.72247e-08
2.40009e-09
6.62189e-08
2.23493e-09
6.52797e-08
2.08175e-09
6.44025e-08
1.93845e-09
6.35837e-08
1.80312e-09
6.28201e-08
1.67402e-09
6.21096e-08
1.54938e-09
6.14505e-08
1.4276e-09
6.0842e-08
1.30672e-09
6.02837e-08
1.18533e-09
5.97763e-08
1.06065e-09
5.93211e-08
9.31803e-10
5.89208e-08
7.93902e-10
5.85782e-08
6.48087e-10
5.82992e-08
4.84271e-10
5.80879e-08
3.09919e-10
5.79562e-08
1.01472e-10
5.7906e-08
-1.12679e-10
5.79647e-08
-3.95238e-10
5.81168e-08
-6.49694e-10
5.84277e-08
-1.04689e-09
5.88356e-08
-1.32067e-09
5.94496e-08
-1.79906e-09
6.01669e-08
-2.10926e-09
6.09579e-08
-1.74943e-09
-3.45203e-09
6.08609e-08
1.8456e-07
1.23131e-07
1.82321e-07
1.02029e-07
1.761e-07
6.6315e-08
1.67752e-07
4.93617e-08
1.59122e-07
3.7744e-08
1.51203e-07
2.98051e-08
1.4412e-07
2.45361e-08
1.3781e-07
2.06851e-08
1.32202e-07
1.7675e-08
1.27211e-07
1.52837e-08
1.22753e-07
1.33656e-08
1.18752e-07
1.18036e-08
1.15143e-07
1.05112e-08
1.11873e-07
9.42768e-09
1.08896e-07
8.50889e-09
1.06174e-07
7.7221e-09
1.03677e-07
7.0423e-09
1.01378e-07
6.45005e-09
9.92539e-08
5.93006e-09
9.72865e-08
5.47018e-09
9.54594e-08
5.06063e-09
9.37587e-08
4.69344e-09
9.21727e-08
4.36207e-09
9.06913e-08
4.06106e-09
8.93055e-08
3.78582e-09
8.80081e-08
3.53238e-09
8.67925e-08
3.29733e-09
8.56534e-08
3.07758e-09
8.45861e-08
2.87037e-09
8.3587e-08
2.67313e-09
8.26531e-08
2.4833e-09
8.17821e-08
2.29855e-09
8.09728e-08
2.1161e-09
8.02243e-08
1.93384e-09
7.9537e-08
1.74793e-09
7.89119e-08
1.55692e-09
7.83515e-08
1.35429e-09
7.78586e-08
1.14093e-09
7.74391e-08
9.03754e-10
7.70974e-08
6.51632e-10
7.68456e-08
3.53306e-10
7.66862e-08
4.67565e-11
7.66467e-08
-3.55774e-10
7.67149e-08
-7.17868e-10
7.69503e-08
-1.28238e-09
7.731e-08
-1.68036e-09
7.78714e-08
-2.36044e-09
7.85851e-08
-2.82296e-09
7.93573e-08
-2.52159e-09
-3.50844e-09
7.94137e-08
1.90388e-07
1.14959e-07
1.91851e-07
1.00566e-07
1.90242e-07
6.79243e-08
1.86148e-07
5.34557e-08
1.80703e-07
4.31891e-08
1.74939e-07
3.55687e-08
1.69232e-07
3.02438e-08
1.63736e-07
2.61805e-08
1.58551e-07
2.28606e-08
1.53718e-07
2.01163e-08
1.49242e-07
1.78413e-08
1.45108e-07
1.59382e-08
1.4129e-07
1.43285e-08
1.37764e-07
1.29539e-08
1.34503e-07
1.17702e-08
1.31482e-07
1.07434e-08
1.28678e-07
9.84628e-09
1.2607e-07
9.05733e-09
1.23641e-07
8.35904e-09
1.21374e-07
7.73716e-09
1.19255e-07
7.18002e-09
1.1727e-07
6.67793e-09
1.1541e-07
6.22283e-09
1.13663e-07
5.8079e-09
1.12021e-07
5.42733e-09
1.10478e-07
5.07605e-09
1.09025e-07
4.74969e-09
1.07659e-07
4.44424e-09
1.06373e-07
4.1561e-09
1.05164e-07
3.88191e-09
1.04029e-07
3.61833e-09
1.02965e-07
3.36229e-09
1.01971e-07
3.11017e-09
1.01046e-07
2.85913e-09
1.0019e-07
2.60433e-09
9.9403e-08
2.34355e-09
9.86884e-08
2.06888e-09
9.80489e-08
1.78048e-09
9.74897e-08
1.46291e-09
9.7016e-08
1.12535e-09
9.66389e-08
7.30415e-10
9.63627e-08
3.22946e-10
9.62117e-08
-2.04774e-10
9.61815e-08
-6.87707e-10
9.63167e-08
-1.41759e-09
9.6603e-08
-1.96665e-09
9.70746e-08
-2.83198e-09
9.77359e-08
-3.4843e-09
9.84583e-08
-3.24395e-09
-3.65629e-09
9.86061e-08
1.95541e-07
1.07233e-07
1.98247e-07
9.78597e-08
1.98968e-07
6.72039e-08
1.97785e-07
5.46387e-08
1.95148e-07
4.5826e-08
1.91798e-07
3.89182e-08
1.88056e-07
3.39857e-08
1.84094e-07
3.01427e-08
1.80062e-07
2.68927e-08
1.76072e-07
2.41068e-08
1.72192e-07
2.1721e-08
1.68463e-07
1.96674e-08
1.64905e-07
1.78863e-08
1.61527e-07
1.63315e-08
1.58331e-07
1.49669e-08
1.55311e-07
1.37632e-08
1.52461e-07
1.26964e-08
1.49772e-07
1.17462e-08
1.47235e-07
1.08959e-08
1.44841e-07
1.01312e-08
1.4258e-07
9.44036e-09
1.40445e-07
8.81308e-09
1.38427e-07
8.24076e-09
1.36519e-07
7.71593e-09
1.34715e-07
7.23214e-09
1.33007e-07
6.78367e-09
1.31391e-07
6.36547e-09
1.29862e-07
5.97292e-09
1.28417e-07
5.60176e-09
1.27051e-07
5.24799e-09
1.25761e-07
4.90763e-09
1.24547e-07
4.57695e-09
1.23405e-07
4.25159e-09
1.22336e-07
3.928e-09
1.2134e-07
3.60046e-09
1.20418e-07
3.26587e-09
1.19572e-07
2.91523e-09
1.18805e-07
2.54751e-09
1.18122e-07
2.14572e-09
1.17529e-07
1.71816e-09
1.17036e-07
1.22332e-09
1.1665e-07
7.09256e-10
1.16389e-07
5.55606e-11
1.1626e-07
-5.58308e-10
1.16289e-07
-1.447e-09
1.16491e-07
-2.16772e-09
1.1686e-07
-3.2013e-09
1.1744e-07
-4.06397e-09
1.18105e-07
-3.90933e-09
-3.90103e-09
1.1835e-07
2.00848e-07
9.99698e-08
2.03776e-07
9.49321e-08
2.05326e-07
6.56533e-08
2.0564e-07
5.43246e-08
2.0481e-07
4.66559e-08
2.03323e-07
4.04051e-08
2.01367e-07
3.59417e-08
1.99027e-07
3.24832e-08
1.96408e-07
2.95114e-08
1.93615e-07
2.69001e-08
1.90729e-07
2.46071e-08
1.87811e-07
2.25848e-08
1.84908e-07
2.07897e-08
1.82051e-07
1.91883e-08
1.79264e-07
1.77544e-08
1.76561e-07
1.64664e-08
1.73951e-07
1.53061e-08
1.7144e-07
1.42574e-08
1.69029e-07
1.33065e-08
1.66719e-07
1.24412e-08
1.64508e-07
1.16511e-08
1.62395e-07
1.09268e-08
1.60375e-07
1.02604e-08
1.58446e-07
9.64447e-09
1.56606e-07
9.07282e-09
1.5485e-07
8.53962e-09
1.53176e-07
8.0397e-09
1.5158e-07
7.56817e-09
1.50062e-07
7.12049e-09
1.48617e-07
6.69229e-09
1.47246e-07
6.27917e-09
1.45946e-07
5.87692e-09
1.44717e-07
5.48064e-09
1.43559e-07
5.08613e-09
1.42472e-07
4.68701e-09
1.41459e-07
4.27922e-09
1.40521e-07
3.85305e-09
1.39662e-07
3.40596e-09
1.38888e-07
2.92009e-09
1.38204e-07
2.40195e-09
1.3762e-07
1.8077e-09
1.37144e-07
1.18546e-09
1.36791e-07
4.08615e-10
1.36573e-07
-3.41169e-10
1.36506e-07
-1.3795e-09
1.36622e-07
-2.28409e-09
1.36892e-07
-3.47119e-09
1.37377e-07
-4.54893e-09
1.37991e-07
-4.52274e-09
-4.2551e-09
1.38345e-07
2.06447e-07
9.3055e-08
2.09339e-07
9.20399e-08
2.11036e-07
6.39565e-08
2.11929e-07
5.34318e-08
2.11995e-07
4.65892e-08
2.11605e-07
4.07954e-08
2.10869e-07
3.66775e-08
2.0979e-07
3.3562e-08
2.08406e-07
3.08956e-08
2.06776e-07
2.85308e-08
2.04955e-07
2.64277e-08
2.02995e-07
2.45452e-08
2.00938e-07
2.28464e-08
1.98822e-07
2.13045e-08
1.96676e-07
1.98999e-08
1.94525e-07
1.86172e-08
1.92388e-07
1.74433e-08
1.90279e-07
1.63666e-08
1.88209e-07
1.53769e-08
1.86185e-07
1.44648e-08
1.84214e-07
1.36222e-08
1.82299e-07
1.28415e-08
1.80444e-07
1.21159e-08
1.78649e-07
1.14394e-08
1.76916e-07
1.08061e-08
1.75244e-07
1.0211e-08
1.73635e-07
9.64907e-09
1.72087e-07
9.11568e-09
1.70601e-07
8.60633e-09
1.69177e-07
8.11662e-09
1.67814e-07
7.64197e-09
1.66513e-07
7.17795e-09
1.65275e-07
6.71932e-09
1.64099e-07
6.26141e-09
1.62989e-07
5.79737e-09
1.61946e-07
5.32226e-09
1.60973e-07
4.82592e-09
1.60075e-07
4.30423e-09
1.59256e-07
3.73888e-09
1.58524e-07
3.13425e-09
1.57886e-07
2.44525e-09
1.57353e-07
1.71811e-09
1.56937e-07
8.24746e-10
1.56656e-07
-6.01951e-11
1.56513e-07
-1.23617e-09
1.56557e-07
-2.32759e-09
1.56742e-07
-3.6569e-09
1.57134e-07
-4.94074e-09
1.57706e-07
-5.0951e-09
-4.73026e-09
1.58182e-07
2.12289e-07
8.64285e-08
2.15152e-07
8.91767e-08
2.1679e-07
6.23182e-08
2.17841e-07
5.23809e-08
2.18254e-07
4.61758e-08
2.18367e-07
4.06825e-08
2.18287e-07
3.67583e-08
2.1798e-07
3.38681e-08
2.17441e-07
3.14348e-08
2.16688e-07
2.92843e-08
2.15745e-07
2.73709e-08
2.14637e-07
2.56523e-08
2.13393e-07
2.40908e-08
2.12038e-07
2.26598e-08
2.10596e-07
2.13417e-08
2.0909e-07
2.01234e-08
2.07539e-07
1.89945e-08
2.05959e-07
1.79462e-08
2.04365e-07
1.69709e-08
2.02769e-07
1.60616e-08
2.01179e-07
1.52121e-08
1.99603e-07
1.44167e-08
1.98049e-07
1.367e-08
1.96522e-07
1.29671e-08
1.95024e-07
1.23033e-08
1.93561e-07
1.16742e-08
1.92135e-07
1.10755e-08
1.90748e-07
1.0503e-08
1.89401e-07
9.9524e-09
1.88098e-07
9.41964e-09
1.8684e-07
8.90017e-09
1.85629e-07
8.38949e-09
1.84466e-07
7.88227e-09
1.83354e-07
7.37347e-09
1.82295e-07
6.85604e-09
1.81293e-07
6.32421e-09
1.80351e-07
5.76761e-09
1.79475e-07
5.18066e-09
1.78669e-07
4.54473e-09
1.77941e-07
3.86226e-09
1.77299e-07
3.08736e-09
1.76754e-07
2.26331e-09
1.76314e-07
1.26421e-09
1.76004e-07
2.50342e-10
1.75816e-07
-1.0485e-09
1.75809e-07
-2.31998e-09
1.75935e-07
-3.78316e-09
1.7625e-07
-5.25575e-09
1.76794e-07
-5.63973e-09
-5.33846e-09
1.77403e-07
2.1833e-07
8.00793e-08
2.21206e-07
8.63011e-08
2.22763e-07
6.0761e-08
2.2384e-07
5.13033e-08
2.24363e-07
4.5653e-08
2.24654e-07
4.03915e-08
2.2485e-07
3.65623e-08
2.24923e-07
3.37952e-08
2.24851e-07
3.15072e-08
2.24633e-07
2.95021e-08
2.24275e-07
2.77292e-08
2.23782e-07
2.61446e-08
2.23166e-07
2.47074e-08
2.22437e-07
2.33887e-08
2.21609e-07
2.21693e-08
2.20697e-07
2.10358e-08
2.19713e-07
1.9978e-08
2.18671e-07
1.8988e-08
2.17583e-07
1.80589e-08
2.1646e-07
1.71851e-08
2.15311e-07
1.63613e-08
2.14144e-07
1.55831e-08
2.12968e-07
1.48461e-08
2.11789e-07
1.41464e-08
2.10612e-07
1.34799e-08
2.09443e-07
1.28431e-08
2.08286e-07
1.22323e-08
2.07146e-07
1.16436e-08
2.06025e-07
1.10733e-08
2.04927e-07
1.05175e-08
2.03855e-07
9.9719e-09
2.02813e-07
9.432e-09
2.01803e-07
8.89246e-09
2.00828e-07
8.34807e-09
1.99892e-07
7.79162e-09
1.99e-07
7.21673e-09
1.98155e-07
6.61283e-09
1.97362e-07
5.97321e-09
1.96628e-07
5.27886e-09
1.9596e-07
4.53062e-09
1.95365e-07
3.68217e-09
1.94855e-07
2.77291e-09
1.94437e-07
1.68236e-09
1.94137e-07
5.50886e-10
1.93942e-07
-8.54426e-10
1.93913e-07
-2.29043e-09
1.9401e-07
-3.8801e-09
1.94276e-07
-5.52199e-09
1.9481e-07
-6.17399e-09
-6.08427e-09
1.95556e-07
2.24559e-07
7.40138e-08
2.2747e-07
8.33899e-08
2.2896e-07
5.92712e-08
2.30042e-07
5.02205e-08
2.30606e-07
4.50891e-08
2.30946e-07
4.00519e-08
2.31231e-07
3.62768e-08
2.31453e-07
3.35739e-08
2.31589e-07
3.13704e-08
2.3164e-07
2.9452e-08
2.31602e-07
2.77663e-08
2.31477e-07
2.62704e-08
2.31262e-07
2.49219e-08
2.30961e-07
2.36894e-08
2.30579e-07
2.25519e-08
2.3012e-07
2.14946e-08
2.29592e-07
2.05063e-08
2.29001e-07
1.95785e-08
2.28356e-07
1.87043e-08
2.27663e-07
1.7878e-08
2.26929e-07
1.70947e-08
2.26162e-07
1.63502e-08
2.25368e-07
1.56407e-08
2.24552e-07
1.49625e-08
2.23719e-07
1.43122e-08
2.22876e-07
1.36864e-08
2.22026e-07
1.3082e-08
2.21175e-07
1.24954e-08
2.20325e-07
1.19232e-08
2.19481e-07
1.13616e-08
2.18646e-07
1.08064e-08
2.17825e-07
1.02533e-08
2.1702e-07
9.69698e-09
2.16236e-07
9.13197e-09
2.15477e-07
8.55097e-09
2.14747e-07
7.94715e-09
2.1405e-07
7.30971e-09
2.13392e-07
6.6311e-09
2.12779e-07
5.89184e-09
2.12218e-07
5.09147e-09
2.11716e-07
4.18368e-09
2.11286e-07
3.20303e-09
2.10931e-07
2.03724e-09
2.10679e-07
8.03211e-10
2.10516e-07
-6.91758e-10
2.10497e-07
-2.27095e-09
2.10596e-07
-3.97886e-09
2.10846e-07
-5.77228e-09
2.11391e-07
-6.71926e-09
-6.96338e-09
2.1227e-07
2.30979e-07
6.82403e-08
2.33934e-07
8.04349e-08
2.35365e-07
5.78407e-08
2.36454e-07
4.91316e-08
2.37051e-07
4.44917e-08
2.37406e-07
3.96971e-08
2.37713e-07
3.59699e-08
2.3798e-07
3.33069e-08
2.38192e-07
3.11581e-08
2.38352e-07
2.92925e-08
2.3846e-07
2.76576e-08
2.38517e-07
2.62142e-08
2.38518e-07
2.49204e-08
2.38464e-07
2.37439e-08
2.38353e-07
2.26625e-08
2.38187e-07
2.16603e-08
2.37968e-07
2.07252e-08
2.37699e-07
1.9848e-08
2.37382e-07
1.90211e-08
2.37022e-07
1.82386e-08
2.36621e-07
1.74952e-08
2.36185e-07
1.67866e-08
2.35716e-07
1.6109e-08
2.3522e-07
1.54586e-08
2.347e-07
1.48322e-08
2.3416e-07
1.42266e-08
2.33604e-07
1.36385e-08
2.33034e-07
1.30645e-08
2.32456e-07
1.25014e-08
2.31872e-07
1.19453e-08
2.31287e-07
1.13923e-08
2.30702e-07
1.08378e-08
2.30123e-07
1.02764e-08
2.29552e-07
9.70269e-09
2.28994e-07
9.10911e-09
2.28453e-07
8.48844e-09
2.27933e-07
7.8296e-09
2.27439e-07
7.12446e-09
2.26978e-07
6.35294e-09
2.26556e-07
5.51351e-09
2.2618e-07
4.56039e-09
2.2586e-07
3.52238e-09
2.256e-07
2.29738e-09
2.25426e-07
9.77532e-10
2.25325e-07
-5.91172e-10
2.25344e-07
-2.29016e-09
2.25472e-07
-4.10696e-09
2.25738e-07
-6.0374e-09
2.26315e-07
-7.2966e-09
-7.96713e-09
2.27319e-07
2.37601e-07
6.27646e-08
2.40602e-07
7.74336e-08
2.41975e-07
5.64673e-08
2.43069e-07
4.80379e-08
2.43703e-07
4.38573e-08
2.44072e-07
3.93291e-08
2.44384e-07
3.56579e-08
2.44663e-07
3.30276e-08
2.44898e-07
3.09231e-08
2.45094e-07
2.90967e-08
2.45256e-07
2.74947e-08
2.45388e-07
2.6083e-08
2.45486e-07
2.48218e-08
2.45551e-07
2.3679e-08
2.45582e-07
2.2632e-08
2.45577e-07
2.16646e-08
2.45538e-07
2.07644e-08
2.45465e-07
1.99216e-08
2.45358e-07
1.91284e-08
2.45218e-07
1.83783e-08
2.45047e-07
1.76659e-08
2.44847e-07
1.69866e-08
2.4462e-07
1.63363e-08
2.44367e-07
1.57112e-08
2.44092e-07
1.51078e-08
2.43796e-07
1.45227e-08
2.43481e-07
1.39528e-08
2.43151e-07
1.33946e-08
2.42808e-07
1.28445e-08
2.42454e-07
1.22989e-08
2.42093e-07
1.17535e-08
2.41727e-07
1.12039e-08
2.41359e-07
1.06444e-08
2.40993e-07
1.00693e-08
2.40631e-07
9.47101e-09
2.40277e-07
8.8419e-09
2.39936e-07
8.17051e-09
2.39612e-07
7.44828e-09
2.39311e-07
6.65463e-09
2.39037e-07
5.78681e-09
2.38798e-07
4.8003e-09
2.38603e-07
3.71736e-09
2.38453e-07
2.44709e-09
2.38373e-07
1.05756e-09
2.38353e-07
-5.70971e-10
2.3843e-07
-2.36775e-09
2.38607e-07
-4.28422e-09
2.38911e-07
-6.34106e-09
2.39536e-07
-7.92112e-09
-9.08188e-09
2.4065e-07
2.44431e-07
5.75902e-08
2.47472e-07
7.43926e-08
2.48796e-07
5.5143e-08
2.4989e-07
4.69439e-08
2.50563e-07
4.31842e-08
2.50948e-07
3.89441e-08
2.51264e-07
3.53416e-08
2.51549e-07
3.27432e-08
2.51791e-07
3.06809e-08
2.51997e-07
2.88903e-08
2.52177e-07
2.73151e-08
2.52334e-07
2.59263e-08
2.52469e-07
2.46869e-08
2.52582e-07
2.35654e-08
2.52675e-07
2.25395e-08
2.52746e-07
2.15932e-08
2.52796e-07
2.07141e-08
2.52825e-07
1.98924e-08
2.52833e-07
1.91202e-08
2.52821e-07
1.83909e-08
2.52788e-07
1.7699e-08
2.52735e-07
1.70397e-08
2.52662e-07
1.64086e-08
2.52572e-07
1.58019e-08
2.52463e-07
1.52159e-08
2.52339e-07
1.46471e-08
2.522e-07
1.40921e-08
2.52047e-07
1.35474e-08
2.51882e-07
1.30093e-08
2.51707e-07
1.24739e-08
2.51524e-07
1.19369e-08
2.51334e-07
1.13935e-08
2.5114e-07
1.08381e-08
2.50945e-07
1.02646e-08
2.50751e-07
9.66519e-09
2.50561e-07
9.03198e-09
2.50378e-07
8.3531e-09
2.50207e-07
7.61961e-09
2.50051e-07
6.81052e-09
2.49916e-07
5.92175e-09
2.49806e-07
4.91057e-09
2.49731e-07
3.79241e-09
2.4969e-07
2.48751e-09
2.49706e-07
1.04195e-09
2.4977e-07
-6.35416e-10
2.49914e-07
-2.51157e-09
2.5015e-07
-4.52026e-09
2.50506e-07
-6.69698e-09
2.51184e-07
-8.59903e-09
-1.0289e-08
2.52391e-07
2.51478e-07
5.2719e-08
2.54549e-07
7.13214e-08
2.55835e-07
5.38572e-08
2.56923e-07
4.58553e-08
2.57634e-07
4.24736e-08
2.58039e-07
3.85392e-08
2.58361e-07
3.50198e-08
2.5865e-07
3.24539e-08
2.58897e-07
3.04338e-08
2.59108e-07
2.86798e-08
2.59292e-07
2.71306e-08
2.59456e-07
2.57621e-08
2.59603e-07
2.45405e-08
2.59733e-07
2.34352e-08
2.59848e-07
2.24242e-08
2.5995e-07
2.14918e-08
2.60038e-07
2.0626e-08
2.60113e-07
1.98171e-08
2.60176e-07
1.90575e-08
2.60226e-07
1.83405e-08
2.60265e-07
1.76607e-08
2.60291e-07
1.70132e-08
2.60306e-07
1.63938e-08
2.60309e-07
1.57985e-08
2.60302e-07
1.52235e-08
2.60283e-07
1.46652e-08
2.60255e-07
1.41201e-08
2.60218e-07
1.35845e-08
2.60173e-07
1.30547e-08
2.6012e-07
1.25265e-08
2.60062e-07
1.19955e-08
2.59999e-07
1.14568e-08
2.59932e-07
1.09045e-08
2.59864e-07
1.03323e-08
2.59797e-07
9.73225e-09
2.59733e-07
9.09606e-09
2.59675e-07
8.41153e-09
2.59625e-07
7.66934e-09
2.59587e-07
6.84833e-09
2.59566e-07
5.94283e-09
2.59564e-07
4.91239e-09
2.59591e-07
3.7656e-09
2.59646e-07
2.4332e-09
2.59746e-07
9.41897e-10
2.59887e-07
-7.76713e-10
2.60094e-07
-2.71836e-09
2.60388e-07
-4.81446e-09
2.608e-07
-7.10875e-09
2.61528e-07
-9.32776e-09
-1.15649e-08
2.62804e-07
2.58751e-07
4.81511e-08
2.61842e-07
6.823e-08
2.631e-07
5.25995e-08
2.64178e-07
4.4777e-08
2.64924e-07
4.17279e-08
2.65351e-07
3.81124e-08
2.65679e-07
3.46913e-08
2.65974e-07
3.21593e-08
2.66226e-07
3.01816e-08
2.6644e-07
2.84658e-08
2.66627e-07
2.69436e-08
2.66794e-07
2.55954e-08
2.66943e-07
2.43908e-08
2.67078e-07
2.33002e-08
2.67201e-07
2.23019e-08
2.67312e-07
2.13805e-08
2.67414e-07
2.05244e-08
2.67507e-07
1.97243e-08
2.67591e-07
1.89726e-08
2.67669e-07
1.8263e-08
2.67739e-07
1.75902e-08
2.67803e-07
1.69495e-08
2.6786e-07
1.63365e-08
2.67912e-07
1.57473e-08
2.67957e-07
1.51782e-08
2.67997e-07
1.46255e-08
2.68031e-07
1.40856e-08
2.68061e-07
1.35548e-08
2.68086e-07
1.30292e-08
2.68108e-07
1.25047e-08
2.68127e-07
1.19765e-08
2.68144e-07
1.14397e-08
2.68161e-07
1.08882e-08
2.68177e-07
1.03156e-08
2.68196e-07
9.71346e-09
2.68219e-07
9.07349e-09
2.68247e-07
8.38311e-09
2.68284e-07
7.63258e-09
2.68331e-07
6.80081e-09
2.68394e-07
5.88041e-09
2.68473e-07
4.83339e-09
2.68576e-07
3.66189e-09
2.68704e-07
2.30606e-09
2.68869e-07
7.76002e-10
2.69072e-07
-9.79436e-10
2.69331e-07
-2.97724e-09
2.69675e-07
-5.15834e-09
2.70138e-07
-7.57177e-09
2.70908e-07
-1.00977e-08
-1.28824e-08
2.72225e-07
2.66258e-07
4.38848e-08
2.6936e-07
6.51289e-08
2.706e-07
5.13593e-08
2.71663e-07
4.37136e-08
2.72441e-07
4.09506e-08
2.72891e-07
3.76619e-08
2.73227e-07
3.43555e-08
2.73527e-07
3.18593e-08
2.73785e-07
2.99239e-08
2.74002e-07
2.82479e-08
2.74192e-07
2.67542e-08
2.7436e-07
2.5427e-08
2.74511e-07
2.42397e-08
2.74648e-07
2.31636e-08
2.74772e-07
2.21775e-08
2.74886e-07
2.12663e-08
2.74992e-07
2.04188e-08
2.7509e-07
1.96258e-08
2.75183e-07
1.88802e-08
2.7527e-07
1.81758e-08
2.75353e-07
1.75075e-08
2.75432e-07
1.68706e-08
2.75507e-07
1.6261e-08
2.75579e-07
1.56749e-08
2.75649e-07
1.51085e-08
2.75716e-07
1.45582e-08
2.75782e-07
1.40203e-08
2.75845e-07
1.34912e-08
2.75908e-07
1.29667e-08
2.7597e-07
1.24428e-08
2.76032e-07
1.19147e-08
2.76094e-07
1.13772e-08
2.76158e-07
1.08241e-08
2.76225e-07
1.02489e-08
2.76296e-07
9.64292e-09
2.76371e-07
8.99768e-09
2.76454e-07
8.30039e-09
2.76546e-07
7.54085e-09
2.76648e-07
6.69819e-09
2.76765e-07
5.76329e-09
2.76898e-07
4.70067e-09
2.77054e-07
3.50648e-09
2.77231e-07
2.12913e-09
2.77442e-07
5.6476e-10
2.77688e-07
-1.2256e-09
2.77985e-07
-3.27403e-09
2.78366e-07
-5.53924e-09
2.7887e-07
-8.07619e-09
2.79668e-07
-1.08952e-08
-1.42129e-08
2.80998e-07
2.74009e-07
3.99167e-08
2.77109e-07
6.20292e-08
2.78342e-07
5.01264e-08
2.79387e-07
4.26685e-08
2.80192e-07
4.01457e-08
2.80668e-07
3.71863e-08
2.81012e-07
3.40112e-08
2.81317e-07
3.15541e-08
2.8158e-07
2.96604e-08
2.81803e-07
2.80258e-08
2.81995e-07
2.65621e-08
2.82165e-07
2.52568e-08
2.82317e-07
2.40872e-08
2.82455e-07
2.30261e-08
2.8258e-07
2.20524e-08
2.82695e-07
2.11514e-08
2.82801e-07
2.03122e-08
2.82901e-07
1.9526e-08
2.82996e-07
1.87858e-08
2.83086e-07
1.80858e-08
2.83172e-07
1.74208e-08
2.83256e-07
1.67866e-08
2.83338e-07
1.61791e-08
2.83419e-07
1.55945e-08
2.83498e-07
1.50291e-08
2.83577e-07
1.44794e-08
2.83655e-07
1.39417e-08
2.83734e-07
1.34123e-08
2.83814e-07
1.28871e-08
2.83895e-07
1.23619e-08
2.83978e-07
1.18319e-08
2.84063e-07
1.12918e-08
2.84152e-07
1.07354e-08
2.84245e-07
1.01559e-08
2.84343e-07
9.54458e-09
2.84448e-07
8.89271e-09
2.84561e-07
8.1874e-09
2.84684e-07
7.41795e-09
2.84818e-07
6.56388e-09
2.84967e-07
5.61432e-09
2.85132e-07
4.53624e-09
2.85318e-07
3.32039e-09
2.85525e-07
1.92214e-09
2.85763e-07
3.26302e-10
2.86036e-07
-1.49862e-09
2.86357e-07
-3.59497e-09
2.86762e-07
-5.94378e-09
2.87295e-07
-8.60967e-09
2.88105e-07
-1.17051e-08
-1.5528e-08
2.8942e-07
2.82013e-07
3.62413e-08
2.851e-07
5.89423e-08
2.86335e-07
4.88914e-08
2.87359e-07
4.16444e-08
2.88187e-07
3.9318e-08
2.88689e-07
3.66842e-08
2.89043e-07
3.36574e-08
2.89353e-07
3.12438e-08
2.89622e-07
2.93911e-08
2.89849e-07
2.77989e-08
2.90044e-07
2.63671e-08
2.90216e-07
2.50846e-08
2.9037e-07
2.39334e-08
2.90509e-07
2.28877e-08
2.90634e-07
2.19267e-08
2.9075e-07
2.10362e-08
2.90856e-07
2.02054e-08
2.90957e-07
1.94259e-08
2.91051e-07
1.8691e-08
2.91142e-07
1.79951e-08
2.91229e-07
1.73333e-08
2.91315e-07
1.67014e-08
2.91399e-07
1.60954e-08
2.91481e-07
1.55116e-08
2.91564e-07
1.49465e-08
2.91647e-07
1.43966e-08
2.9173e-07
1.38582e-08
2.91815e-07
1.33275e-08
2.91902e-07
1.28005e-08
2.91991e-07
1.2273e-08
2.92082e-07
1.174e-08
2.92178e-07
1.11963e-08
2.92278e-07
1.06354e-08
2.92383e-07
1.00506e-08
2.92495e-07
9.43298e-09
2.92614e-07
8.77357e-09
2.92742e-07
8.05947e-09
2.9288e-07
7.27945e-09
2.93031e-07
6.41352e-09
2.93196e-07
5.44913e-09
2.93377e-07
4.35554e-09
2.93578e-07
3.11871e-09
2.93801e-07
1.69967e-09
2.94053e-07
7.43039e-11
2.94339e-07
-1.78536e-09
2.94673e-07
-3.92872e-09
2.9509e-07
-6.3602e-09
2.95639e-07
-9.15939e-09
2.96447e-07
-1.25126e-08
-1.68012e-08
2.9772e-07
2.90278e-07
3.28517e-08
2.93341e-07
5.588e-08
2.94587e-07
4.76452e-08
2.95588e-07
4.06432e-08
2.96433e-07
3.84726e-08
2.96963e-07
3.61547e-08
2.97328e-07
3.32927e-08
2.97643e-07
3.09283e-08
2.97918e-07
2.91161e-08
2.9815e-07
2.75672e-08
2.98348e-07
2.61688e-08
2.98523e-07
2.49102e-08
2.98678e-07
2.37779e-08
2.98818e-07
2.27481e-08
2.98944e-07
2.18003e-08
2.9906e-07
2.09205e-08
2.99167e-07
2.00983e-08
2.99267e-07
1.93257e-08
2.99362e-07
1.85963e-08
2.99453e-07
1.79045e-08
2.9954e-07
1.72457e-08
2.99626e-07
1.66159e-08
2.9971e-07
1.60113e-08
2.99793e-07
1.54282e-08
2.99877e-07
1.48631e-08
2.99961e-07
1.43127e-08
3.00046e-07
1.37731e-08
3.00132e-07
1.32408e-08
3.00221e-07
1.27116e-08
3.00313e-07
1.21812e-08
3.00408e-07
1.16448e-08
3.00508e-07
1.10968e-08
3.00612e-07
1.0531e-08
3.00722e-07
9.94033e-09
3.0084e-07
9.31589e-09
3.00965e-07
8.64846e-09
3.01099e-07
7.92518e-09
3.01244e-07
7.13431e-09
3.01401e-07
6.25634e-09
3.01573e-07
5.27715e-09
3.01761e-07
4.16811e-09
3.01968e-07
2.91101e-09
3.02197e-07
1.47123e-09
3.02453e-07
-1.82144e-10
3.02744e-07
-2.07652e-09
3.03083e-07
-4.26685e-09
3.03502e-07
-6.77916e-09
3.04055e-07
-9.7132e-09
3.04847e-07
-1.33041e-08
-1.80093e-08
3.06055e-07
2.98815e-07
2.9739e-08
3.01841e-07
5.28544e-08
3.03106e-07
4.63799e-08
3.04084e-07
3.96658e-08
3.04941e-07
3.7615e-08
3.05499e-07
3.55974e-08
3.05876e-07
3.29154e-08
3.06196e-07
3.06077e-08
3.06477e-07
2.88352e-08
3.06714e-07
2.73302e-08
3.06916e-07
2.59669e-08
3.07093e-07
2.47334e-08
3.0725e-07
2.36207e-08
3.07391e-07
2.26072e-08
3.07518e-07
2.1673e-08
3.07635e-07
2.08042e-08
3.07742e-07
1.99909e-08
3.07842e-07
1.92254e-08
3.07937e-07
1.85015e-08
3.08028e-07
1.78139e-08
3.08115e-07
1.71582e-08
3.08201e-07
1.65306e-08
3.08285e-07
1.59272e-08
3.08368e-07
1.53448e-08
3.08452e-07
1.47797e-08
3.08536e-07
1.42285e-08
3.08621e-07
1.36877e-08
3.08708e-07
1.31536e-08
3.08798e-07
1.2622e-08
3.0889e-07
1.20886e-08
3.08987e-07
1.15484e-08
3.09088e-07
1.09961e-08
3.09193e-07
1.04251e-08
3.09305e-07
9.82838e-09
3.09424e-07
9.19694e-09
3.09551e-07
8.52137e-09
3.09688e-07
7.78884e-09
3.09835e-07
6.98711e-09
3.09994e-07
6.0972e-09
3.10168e-07
5.10354e-09
3.10357e-07
3.97927e-09
3.10565e-07
2.70279e-09
3.10793e-07
1.24258e-09
3.11049e-07
-4.37523e-10
3.11338e-07
-2.36595e-09
3.11675e-07
-4.60324e-09
3.12089e-07
-7.19352e-09
3.12636e-07
-1.02601e-08
3.13398e-07
-1.40667e-08
-1.91323e-08
3.14521e-07
3.07634e-07
2.68926e-08
3.10611e-07
4.98774e-08
3.11902e-07
4.5089e-08
3.12855e-07
3.87121e-08
3.1372e-07
3.67506e-08
3.14305e-07
3.50126e-08
3.14696e-07
3.25241e-08
3.15022e-07
3.02816e-08
3.15308e-07
2.85486e-08
3.15551e-07
2.70876e-08
3.15757e-07
2.57611e-08
3.15936e-07
2.4554e-08
3.16095e-07
2.34615e-08
3.16238e-07
2.24648e-08
3.16366e-07
2.15446e-08
3.16483e-07
2.06872e-08
3.16591e-07
1.98831e-08
3.16691e-07
1.91248e-08
3.16786e-07
1.84065e-08
3.16877e-07
1.77233e-08
3.16964e-07
1.70708e-08
3.1705e-07
1.64453e-08
3.17133e-07
1.58433e-08
3.17217e-07
1.52614e-08
3.173e-07
1.46963e-08
3.17384e-07
1.41444e-08
3.1747e-07
1.36024e-08
3.17557e-07
1.30663e-08
3.17647e-07
1.25323e-08
3.17739e-07
1.19958e-08
3.17836e-07
1.14519e-08
3.17937e-07
1.08951e-08
3.18043e-07
1.03189e-08
3.18155e-07
9.71611e-09
3.18275e-07
9.07769e-09
3.18402e-07
8.39405e-09
3.18538e-07
7.65241e-09
3.18685e-07
6.84005e-09
3.18844e-07
5.9385e-09
3.19017e-07
4.93088e-09
3.19204e-07
3.79187e-09
3.1941e-07
2.49707e-09
3.19635e-07
1.01703e-09
3.19886e-07
-6.88396e-10
3.2017e-07
-2.6497e-09
3.205e-07
-4.93322e-09
3.20904e-07
-7.59754e-09
3.21434e-07
-1.07901e-08
3.22156e-07
-1.47882e-08
-2.01537e-08
3.23177e-07
3.16743e-07
2.43005e-08
3.1966e-07
4.69611e-08
3.20982e-07
4.3767e-08
3.21913e-07
3.7781e-08
3.22779e-07
3.58845e-08
3.2339e-07
3.44013e-08
3.23797e-07
3.21172e-08
3.24129e-07
2.99497e-08
3.24421e-07
2.82565e-08
3.24669e-07
2.68393e-08
3.24879e-07
2.55511e-08
3.25061e-07
2.43718e-08
3.25223e-07
2.33003e-08
3.25367e-07
2.23209e-08
3.25496e-07
2.14151e-08
3.25614e-07
2.05694e-08
3.25722e-07
1.97747e-08
3.25823e-07
1.90239e-08
3.25918e-07
1.83114e-08
3.26009e-07
1.76325e-08
3.26097e-07
1.69833e-08
3.26182e-07
1.63601e-08
3.26266e-07
1.57595e-08
3.26349e-07
1.51782e-08
3.26432e-07
1.4613e-08
3.26516e-07
1.40604e-08
3.26602e-07
1.35171e-08
3.26689e-07
1.29791e-08
3.26779e-07
1.24426e-08
3.26871e-07
1.1903e-08
3.26968e-07
1.13554e-08
3.27069e-07
1.07942e-08
3.27175e-07
1.02129e-08
3.27287e-07
9.60406e-09
3.27406e-07
8.9588e-09
3.27532e-07
8.26726e-09
3.27668e-07
7.51677e-09
3.27814e-07
6.69416e-09
3.27971e-07
5.78141e-09
3.28141e-07
4.76056e-09
3.28326e-07
3.60746e-09
3.28527e-07
2.29556e-09
3.28748e-07
7.96677e-10
3.28992e-07
-9.32492e-10
3.29267e-07
-2.92491e-09
3.29587e-07
-5.25288e-09
3.29975e-07
-7.98607e-09
3.30479e-07
-1.12942e-08
3.31148e-07
-1.5457e-08
-2.10603e-08
3.32055e-07
3.26154e-07
2.19493e-08
3.28998e-07
4.41173e-08
3.30354e-07
4.24102e-08
3.31265e-07
3.68707e-08
3.32128e-07
3.50215e-08
3.32764e-07
3.37653e-08
3.33188e-07
3.16933e-08
3.33526e-07
2.96114e-08
3.33824e-07
2.79589e-08
3.34078e-07
2.65852e-08
3.34292e-07
2.53365e-08
3.34478e-07
2.41864e-08
3.34641e-07
2.31367e-08
3.34787e-07
2.21751e-08
3.34918e-07
2.12842e-08
3.35037e-07
2.04506e-08
3.35146e-07
1.96656e-08
3.35247e-07
1.89224e-08
3.35343e-07
1.82159e-08
3.35434e-07
1.75416e-08
3.35521e-07
1.68957e-08
3.35607e-07
1.62747e-08
3.35691e-07
1.56756e-08
3.35774e-07
1.50949e-08