/*--------------------------------*- C++ -*----------------------------------*\
  =========                 |
  \\      /  F ield         | OpenFOAM: The Open Source CFD Toolbox
   \\    /   O peration     | Website:  https://openfoam.org
    \\  /    A nd           | Version:  7
     \\/     M anipulation  |
\*---------------------------------------------------------------------------*/
FoamFile
{
    version     2.0;
    format      ascii;
    class       surfaceScalarField;
    location    "0.28";
    object      phi_0;
}
// * * * * * * * * * * * * * * * * * * * * * * * * * * * * * * * * * * * * * //

dimensions      [0 3 -1 0 0 0 0];

internalField   nonuniform List<scalar> 
139350
(
6.45923e-08
9.20392e-08
3.19504e-08
3.26419e-08
2.30585e-08
8.89195e-09
1.95631e-08
3.49536e-09
1.76103e-08
1.95282e-09
1.61818e-08
1.42849e-09
1.50481e-08
1.13364e-09
1.4134e-08
9.14167e-10
1.33818e-08
7.52182e-10
1.27485e-08
6.33294e-10
1.22053e-08
5.43219e-10
1.17328e-08
4.72502e-10
1.13172e-08
4.15533e-10
1.09485e-08
3.68787e-10
1.06186e-08
3.29852e-10
1.03216e-08
2.96995e-10
1.00527e-08
2.68946e-10
9.80792e-09
2.44741e-10
9.58427e-09
2.23648e-10
9.37918e-09
2.05095e-10
9.19055e-09
1.88632e-10
9.01665e-09
1.73895e-10
8.85606e-09
1.6059e-10
8.70759e-09
1.48472e-10
8.57025e-09
1.37335e-10
8.44326e-09
1.26997e-10
8.32595e-09
1.17304e-10
8.21784e-09
1.0811e-10
8.11856e-09
9.92805e-11
8.02787e-09
9.06955e-11
7.94566e-09
8.22096e-11
7.87194e-09
7.37162e-11
7.80691e-09
6.50345e-11
7.75082e-09
5.60824e-11
7.70425e-09
4.6575e-11
7.66772e-09
3.65255e-11
7.64235e-09
2.53754e-11
7.62887e-09
1.34747e-11
7.62929e-09
-4.12887e-13
7.6444e-09
-1.51172e-11
7.6774e-09
-3.29991e-11
7.72926e-09
-5.18577e-11
7.80346e-09
-7.41981e-11
7.90329e-09
-9.9831e-11
8.02607e-09
-1.22778e-10
8.18574e-09
-1.59677e-10
8.34782e-09
-1.62074e-10
8.57319e-09
-2.2537e-10
8.49838e-09
7.48046e-11
-3.42635e-09
1.19247e-08
1.26026e-07
1.27457e-07
9.12617e-08
6.74057e-08
7.1938e-08
2.82157e-08
6.12073e-08
1.4226e-08
5.47572e-08
8.40299e-09
5.02596e-08
5.92603e-09
4.67724e-08
4.62085e-09
4.39545e-08
3.73207e-09
4.1627e-08
3.07971e-09
3.96653e-08
2.59502e-09
3.79823e-08
2.2262e-09
3.6518e-08
1.93683e-09
3.52295e-08
1.70396e-09
3.40854e-08
1.51297e-09
3.30613e-08
1.35393e-09
3.21385e-08
1.21976e-09
3.13022e-08
1.10527e-09
3.05404e-08
1.00653e-09
2.98435e-08
9.20557e-10
2.92036e-08
8.45021e-10
2.86141e-08
7.78093e-10
2.80697e-08
7.18303e-10
2.75658e-08
6.64458e-10
2.70987e-08
6.15572e-10
2.66652e-08
5.70821e-10
2.62628e-08
5.29488e-10
2.58891e-08
4.90959e-10
2.55425e-08
4.54676e-10
2.52217e-08
4.2012e-10
2.49256e-08
3.86824e-10
2.46535e-08
3.54273e-10
2.44052e-08
3.22037e-10
2.41807e-08
2.89509e-10
2.39805e-08
2.56321e-10
2.38055e-08
2.21556e-10
2.36569e-08
1.85083e-10
2.35371e-08
1.45185e-10
2.3448e-08
1.02603e-10
2.33939e-08
5.36526e-11
2.33774e-08
1.3869e-12
2.34063e-08
-6.18998e-11
2.34823e-08
-1.2785e-10
2.36198e-08
-2.11648e-10
2.38151e-08
-2.95149e-10
2.40945e-08
-4.02158e-10
2.4438e-08
-5.03229e-10
2.48771e-08
-6.01192e-10
2.53932e-08
-7.4139e-10
2.57453e-08
-2.77302e-10
-3.81816e-09
2.61371e-08
1.58807e-07
1.35054e-07
1.36493e-07
8.97198e-08
1.17488e-07
4.72205e-08
1.03305e-07
2.84092e-08
9.32917e-08
1.84163e-08
8.59831e-08
1.32346e-08
8.02713e-08
1.03327e-08
7.56155e-08
8.38784e-09
7.17343e-08
6.96096e-09
6.8441e-08
5.88828e-09
6.56026e-08
5.06455e-09
6.31244e-08
4.41507e-09
6.09376e-08
3.89079e-09
5.89908e-08
3.45973e-09
5.72447e-08
3.10003e-09
5.56684e-08
2.79607e-09
5.42373e-08
2.53633e-09
5.29318e-08
2.3121e-09
5.17356e-08
2.11674e-09
5.06356e-08
1.94504e-09
4.96208e-08
1.79291e-09
4.8682e-08
1.65707e-09
4.78116e-08
1.53485e-09
4.70031e-08
1.42403e-09
4.62512e-08
1.32279e-09
4.55511e-08
1.22952e-09
4.48992e-08
1.14288e-09
4.42923e-08
1.06164e-09
4.37277e-08
9.84663e-10
4.32036e-08
9.10942e-10
4.27185e-08
8.39401e-10
4.22714e-08
7.69102e-10
4.18621e-08
6.98829e-10
4.14907e-08
6.27749e-10
4.11581e-08
5.54089e-10
4.08658e-08
4.77417e-10
4.06165e-08
3.94499e-10
4.04127e-08
3.06372e-10
4.02601e-08
2.06224e-10
4.01621e-08
9.94106e-11
4.01296e-08
-2.94328e-11
4.01642e-08
-1.62423e-10
4.02891e-08
-3.36501e-10
4.04922e-08
-4.98243e-10
4.08279e-08
-7.37903e-10
4.12411e-08
-9.16446e-10
4.18312e-08
-1.1913e-09
4.24933e-08
-1.40348e-09
4.31891e-08
-9.73062e-10
-3.57109e-09
4.2942e-08
1.75664e-07
1.30906e-07
1.65594e-07
9.979e-08
1.5272e-07
6.00947e-08
1.40115e-07
4.10141e-08
1.29418e-07
2.91134e-08
1.20766e-07
2.18863e-08
1.13645e-07
1.74531e-08
1.07658e-07
1.43757e-08
1.02552e-07
1.20665e-08
9.81473e-08
1.02931e-08
9.4304e-08
8.90789e-09
9.09165e-08
7.80254e-09
8.79049e-08
6.90238e-09
8.52075e-08
6.15713e-09
8.27758e-08
5.53174e-09
8.05711e-08
5.00078e-09
7.85621e-08
4.54532e-09
7.67233e-08
4.15091e-09
7.50336e-08
3.80638e-09
7.34757e-08
3.50298e-09
7.20349e-08
3.23375e-09
7.06989e-08
2.99308e-09
6.94573e-08
2.7764e-09
6.83014e-08
2.57993e-09
6.72237e-08
2.40051e-09
6.62178e-08
2.2354e-09
6.52784e-08
2.08228e-09
6.4401e-08
1.93904e-09
6.35819e-08
1.80378e-09
6.28181e-08
1.67476e-09
6.21073e-08
1.55021e-09
6.14478e-08
1.42853e-09
6.08389e-08
1.30776e-09
6.02802e-08
1.18648e-09
5.97724e-08
1.06191e-09
5.93166e-08
9.33176e-10
5.89157e-08
7.95378e-10
5.85725e-08
6.49648e-10
5.82928e-08
4.85874e-10
5.80807e-08
3.11501e-10
5.79484e-08
1.02923e-10
5.78975e-08
-1.11546e-10
5.79556e-08
-3.94652e-10
5.81075e-08
-6.5012e-10
5.84185e-08
-1.04891e-09
5.88274e-08
-1.32528e-09
5.94434e-08
-1.80738e-09
6.01651e-08
-2.12518e-09
6.09626e-08
-1.77054e-09
-3.48503e-09
6.08765e-08
1.8456e-07
1.23131e-07
1.82321e-07
1.0203e-07
1.761e-07
6.63153e-08
1.67752e-07
4.9362e-08
1.59121e-07
3.77442e-08
1.51202e-07
2.98053e-08
1.44119e-07
2.45363e-08
1.3781e-07
2.06852e-08
1.32201e-07
1.7675e-08
1.27211e-07
1.52837e-08
1.22753e-07
1.33656e-08
1.18752e-07
1.18035e-08
1.15143e-07
1.05112e-08
1.11873e-07
9.42768e-09
1.08895e-07
8.50893e-09
1.06174e-07
7.72218e-09
1.03677e-07
7.04243e-09
1.01378e-07
6.45022e-09
9.92537e-08
5.93028e-09
9.72862e-08
5.47044e-09
9.5459e-08
5.06094e-09
9.37583e-08
4.6938e-09
9.21722e-08
4.36249e-09
9.06906e-08
4.06154e-09
8.93047e-08
3.78637e-09
8.80071e-08
3.533e-09
8.67914e-08
3.29803e-09
8.5652e-08
3.07837e-09
8.45846e-08
2.87126e-09
8.35852e-08
2.67414e-09
8.26509e-08
2.48444e-09
8.17796e-08
2.29983e-09
8.09699e-08
2.11753e-09
8.02209e-08
1.93543e-09
7.95331e-08
1.7497e-09
7.89074e-08
1.55886e-09
7.83464e-08
1.3564e-09
7.78529e-08
1.14319e-09
7.74326e-08
9.06103e-10
7.70902e-08
6.53997e-10
7.68375e-08
3.55564e-10
7.66773e-08
4.86424e-11
7.66372e-08
-3.54517e-10
7.6705e-08
-7.17893e-10
7.69404e-08
-1.28439e-09
7.73009e-08
-1.68573e-09
7.78642e-08
-2.37066e-09
7.85819e-08
-2.84289e-09
7.93608e-08
-2.54941e-09
-3.5537e-09
7.94294e-08
1.90388e-07
1.14959e-07
1.91851e-07
1.00566e-07
1.90242e-07
6.79246e-08
1.86148e-07
5.34561e-08
1.80703e-07
4.31894e-08
1.74939e-07
3.5569e-08
1.69231e-07
3.0244e-08
1.63736e-07
2.61806e-08
1.5855e-07
2.28607e-08
1.53718e-07
2.01163e-08
1.49242e-07
1.78413e-08
1.45107e-07
1.59381e-08
1.4129e-07
1.43285e-08
1.37764e-07
1.29539e-08
1.34503e-07
1.17702e-08
1.31481e-07
1.07434e-08
1.28677e-07
9.84639e-09
1.2607e-07
9.0575e-09
1.23641e-07
8.35927e-09
1.21374e-07
7.73745e-09
1.19255e-07
7.18037e-09
1.1727e-07
6.67835e-09
1.15409e-07
6.22333e-09
1.13662e-07
5.80847e-09
1.12021e-07
5.42799e-09
1.10477e-07
5.07681e-09
1.09024e-07
4.75056e-09
1.07658e-07
4.44523e-09
1.06372e-07
4.15722e-09
1.05163e-07
3.88318e-09
1.04027e-07
3.61977e-09
1.02963e-07
3.36391e-09
1.01969e-07
3.11199e-09
1.01043e-07
2.86118e-09
1.00186e-07
2.6066e-09
9.93988e-08
2.34607e-09
9.86836e-08
2.07162e-09
9.80433e-08
1.78343e-09
9.74834e-08
1.46602e-09
9.70089e-08
1.12852e-09
9.66309e-08
7.33504e-10
9.6354e-08
3.25611e-10
9.62023e-08
-2.02809e-10
9.61716e-08
-6.87284e-10
9.63068e-08
-1.41954e-09
9.65938e-08
-1.97269e-09
9.70672e-08
-2.84409e-09
9.77322e-08
-3.50795e-09
9.84614e-08
-3.27858e-09
-3.71452e-09
9.86222e-08
1.95541e-07
1.07233e-07
1.98247e-07
9.78598e-08
1.98967e-07
6.72042e-08
1.97785e-07
5.4639e-08
1.95148e-07
4.58264e-08
1.91798e-07
3.89186e-08
1.88056e-07
3.3986e-08
1.84094e-07
3.01429e-08
1.80062e-07
2.68928e-08
1.76071e-07
2.41068e-08
1.72191e-07
2.1721e-08
1.68462e-07
1.96673e-08
1.64904e-07
1.78862e-08
1.61527e-07
1.63314e-08
1.5833e-07
1.49668e-08
1.5531e-07
1.37632e-08
1.5246e-07
1.26964e-08
1.49771e-07
1.17463e-08
1.47235e-07
1.08961e-08
1.44841e-07
1.01315e-08
1.4258e-07
9.44074e-09
1.40445e-07
8.81355e-09
1.38427e-07
8.24132e-09
1.36519e-07
7.71659e-09
1.34714e-07
7.23291e-09
1.33006e-07
6.78456e-09
1.3139e-07
6.3665e-09
1.29861e-07
5.97409e-09
1.28416e-07
5.6031e-09
1.27049e-07
5.24952e-09
1.2576e-07
4.90937e-09
1.24545e-07
4.57891e-09
1.23403e-07
4.2538e-09
1.22333e-07
3.93049e-09
1.21337e-07
3.60324e-09
1.20414e-07
3.26895e-09
1.19567e-07
2.91859e-09
1.18799e-07
2.55116e-09
1.18116e-07
2.14959e-09
1.17522e-07
1.72212e-09
1.17028e-07
1.22724e-09
1.16641e-07
7.12694e-10
1.1638e-07
5.82292e-11
1.1625e-07
-5.5743e-10
1.1628e-07
-1.44891e-09
1.16481e-07
-2.17436e-09
1.16853e-07
-3.21531e-09
1.17436e-07
-4.09119e-09
1.18108e-07
-3.95073e-09
-3.97213e-09
1.18366e-07
2.00848e-07
9.99698e-08
2.03776e-07
9.49323e-08
2.05326e-07
6.56536e-08
2.0564e-07
5.4325e-08
2.0481e-07
4.66563e-08
2.03323e-07
4.04055e-08
2.01367e-07
3.59421e-08
1.99027e-07
3.24835e-08
1.96408e-07
2.95116e-08
1.93614e-07
2.69002e-08
1.90728e-07
2.46071e-08
1.87811e-07
2.25848e-08
1.84907e-07
2.07896e-08
1.82051e-07
1.91882e-08
1.79263e-07
1.77543e-08
1.7656e-07
1.64664e-08
1.7395e-07
1.53062e-08
1.71439e-07
1.42575e-08
1.69029e-07
1.33067e-08
1.66719e-07
1.24415e-08
1.64508e-07
1.16515e-08
1.62394e-07
1.09273e-08
1.60374e-07
1.0261e-08
1.58446e-07
9.64519e-09
1.56605e-07
9.07367e-09
1.54849e-07
8.54062e-09
1.53175e-07
8.04086e-09
1.51579e-07
7.56951e-09
1.5006e-07
7.12203e-09
1.48616e-07
6.69406e-09
1.47244e-07
6.28119e-09
1.45944e-07
5.87921e-09
1.44714e-07
5.48323e-09
1.43556e-07
5.08905e-09
1.42469e-07
4.69027e-09
1.41455e-07
4.28285e-09
1.40516e-07
3.85703e-09
1.39657e-07
3.41029e-09
1.38882e-07
2.92469e-09
1.38198e-07
2.40668e-09
1.37612e-07
1.81242e-09
1.37135e-07
1.18965e-09
1.36782e-07
4.11953e-10
1.36564e-07
-3.39835e-10
1.36497e-07
-1.38139e-09
1.36613e-07
-2.2913e-09
1.36885e-07
-3.48703e-09
1.37374e-07
-4.57963e-09
1.37994e-07
-4.57086e-09
-4.33837e-09
1.3836e-07
2.06447e-07
9.3055e-08
2.09339e-07
9.20401e-08
2.11036e-07
6.39568e-08
2.11929e-07
5.34322e-08
2.11995e-07
4.65897e-08
2.11605e-07
4.0796e-08
2.10869e-07
3.6678e-08
2.0979e-07
3.35623e-08
2.08406e-07
3.08958e-08
2.06775e-07
2.8531e-08
2.04954e-07
2.64277e-08
2.02994e-07
2.45452e-08
2.00937e-07
2.28464e-08
1.98821e-07
2.13044e-08
1.96675e-07
1.98998e-08
1.94525e-07
1.86172e-08
1.92387e-07
1.74434e-08
1.90278e-07
1.63667e-08
1.88208e-07
1.5377e-08
1.86184e-07
1.44651e-08
1.84213e-07
1.36225e-08
1.82299e-07
1.28419e-08
1.80443e-07
1.21165e-08
1.78648e-07
1.14401e-08
1.76915e-07
1.08071e-08
1.75243e-07
1.02121e-08
1.73634e-07
9.65036e-09
1.72086e-07
9.11718e-09
1.706e-07
8.60807e-09
1.69176e-07
8.11861e-09
1.67813e-07
7.64426e-09
1.66511e-07
7.18056e-09
1.65272e-07
6.72228e-09
1.64096e-07
6.26474e-09
1.62986e-07
5.80111e-09
1.61942e-07
5.32642e-09
1.60969e-07
4.8305e-09
1.6007e-07
4.30921e-09
1.5925e-07
3.74419e-09
1.58517e-07
3.13972e-09
1.57879e-07
2.45073e-09
1.57345e-07
1.72303e-09
1.56929e-07
8.28707e-10
1.56647e-07
-5.84138e-11
1.56504e-07
-1.23807e-09
1.56548e-07
-2.33537e-09
1.56735e-07
-3.67442e-09
1.57131e-07
-4.97479e-09
1.5771e-07
-5.14982e-09
-4.82486e-09
1.58196e-07
2.12289e-07
8.64286e-08
2.15152e-07
8.91769e-08
2.1679e-07
6.23186e-08
2.17841e-07
5.23814e-08
2.18254e-07
4.61764e-08
2.18367e-07
4.06831e-08
2.18286e-07
3.67588e-08
2.1798e-07
3.38686e-08
2.17441e-07
3.14351e-08
2.16687e-07
2.92845e-08
2.15744e-07
2.7371e-08
2.14637e-07
2.56524e-08
2.13392e-07
2.40907e-08
2.12037e-07
2.26597e-08
2.10595e-07
2.13416e-08
2.09089e-07
2.01233e-08
2.07538e-07
1.89945e-08
2.05959e-07
1.79463e-08
2.04365e-07
1.6971e-08
2.02768e-07
1.60618e-08
2.01178e-07
1.52124e-08
1.99603e-07
1.44171e-08
1.98049e-07
1.36706e-08
1.96521e-07
1.29679e-08
1.95024e-07
1.23043e-08
1.9356e-07
1.16754e-08
1.92134e-07
1.10769e-08
1.90746e-07
1.05046e-08
1.894e-07
9.95431e-09
1.88097e-07
9.42185e-09
1.86838e-07
8.90271e-09
1.85627e-07
8.3924e-09
1.84463e-07
7.88557e-09
1.83351e-07
7.37721e-09
1.82292e-07
6.86023e-09
1.81289e-07
6.32888e-09
1.80347e-07
5.77275e-09
1.7947e-07
5.18625e-09
1.78663e-07
4.55071e-09
1.77935e-07
3.86842e-09
1.77292e-07
3.09357e-09
1.76746e-07
2.26891e-09
1.76306e-07
1.26874e-09
1.75995e-07
2.52539e-10
1.75807e-07
-1.05041e-09
1.758e-07
-2.32833e-09
1.75928e-07
-3.80219e-09
1.76246e-07
-5.29285e-09
1.76797e-07
-5.70072e-09
-5.44367e-09
1.77416e-07
2.1833e-07
8.00793e-08
2.21206e-07
8.63013e-08
2.22763e-07
6.07614e-08
2.2384e-07
5.13038e-08
2.24363e-07
4.56537e-08
2.24654e-07
4.03922e-08
2.2485e-07
3.6563e-08
2.24923e-07
3.37957e-08
2.2485e-07
3.15076e-08
2.24632e-07
2.95024e-08
2.24274e-07
2.77295e-08
2.23782e-07
2.61448e-08
2.23165e-07
2.47075e-08
2.22436e-07
2.33887e-08
2.21608e-07
2.21692e-08
2.20696e-07
2.10357e-08
2.19712e-07
1.9978e-08
2.1867e-07
1.8988e-08
2.17582e-07
1.8059e-08
2.16459e-07
1.71853e-08
2.1531e-07
1.63617e-08
2.14143e-07
1.55836e-08
2.12967e-07
1.48468e-08
2.11788e-07
1.41472e-08
2.10611e-07
1.3481e-08
2.09442e-07
1.28444e-08
2.08285e-07
1.22338e-08
2.07144e-07
1.16454e-08
2.06023e-07
1.10754e-08
2.04925e-07
1.05199e-08
2.03853e-07
9.97467e-09
2.02811e-07
9.43518e-09
2.018e-07
8.89609e-09
2.00825e-07
8.35218e-09
1.99889e-07
7.79623e-09
1.98996e-07
7.22187e-09
1.9815e-07
6.61851e-09
1.97357e-07
5.97938e-09
1.96622e-07
5.28547e-09
1.95953e-07
4.53743e-09
1.95358e-07
3.68903e-09
1.94848e-07
2.77914e-09
1.94429e-07
1.68738e-09
1.94128e-07
5.53447e-10
1.93934e-07
-8.56337e-10
1.93905e-07
-2.29937e-09
1.94003e-07
-3.90051e-09
1.94272e-07
-5.56176e-09
1.94812e-07
-6.24059e-09
-6.199e-09
1.95568e-07
2.24559e-07
7.40139e-08
2.2747e-07
8.33901e-08
2.2896e-07
5.92716e-08
2.30042e-07
5.02211e-08
2.30606e-07
4.50898e-08
2.30946e-07
4.00526e-08
2.31231e-07
3.62775e-08
2.31452e-07
3.35746e-08
2.31589e-07
3.1371e-08
2.31639e-07
2.94524e-08
2.31602e-07
2.77666e-08
2.31476e-07
2.62706e-08
2.31261e-07
2.4922e-08
2.3096e-07
2.36895e-08
2.30578e-07
2.2552e-08
2.30119e-07
2.14946e-08
2.29591e-07
2.05064e-08
2.29e-07
1.95786e-08
2.28355e-07
1.87044e-08
2.27662e-07
1.78782e-08
2.26928e-07
1.70951e-08
2.26161e-07
1.63507e-08
2.25367e-07
1.56414e-08
2.2455e-07
1.49633e-08
2.23718e-07
1.43132e-08
2.22875e-07
1.36877e-08
2.22025e-07
1.30836e-08
2.21173e-07
1.24973e-08
2.20323e-07
1.19254e-08
2.19479e-07
1.13642e-08
2.18644e-07
1.08094e-08
2.17822e-07
1.02568e-08
2.17018e-07
9.7009e-09
2.16233e-07
9.13641e-09
2.15474e-07
8.55597e-09
2.14743e-07
7.95273e-09
2.14045e-07
7.31587e-09
2.13387e-07
6.6378e-09
2.12773e-07
5.89901e-09
2.12212e-07
5.09887e-09
2.1171e-07
4.19112e-09
2.11279e-07
3.20984e-09
2.10924e-07
2.04271e-09
2.10671e-07
8.06071e-10
2.10509e-07
-6.93662e-10
2.1049e-07
-2.28042e-09
2.1059e-07
-4.00052e-09
2.10842e-07
-5.81431e-09
2.11392e-07
-6.79054e-09
-7.08629e-09
2.12279e-07
2.30979e-07
6.82404e-08
2.33934e-07
8.04352e-08
2.35365e-07
5.78412e-08
2.36454e-07
4.91322e-08
2.37051e-07
4.44924e-08
2.37406e-07
3.96979e-08
2.37713e-07
3.59707e-08
2.37979e-07
3.33076e-08
2.38192e-07
3.11587e-08
2.38351e-07
2.92931e-08
2.3846e-07
2.76581e-08
2.38516e-07
2.62146e-08
2.38517e-07
2.49207e-08
2.38462e-07
2.37441e-08
2.38352e-07
2.26627e-08
2.38186e-07
2.16604e-08
2.37967e-07
2.07253e-08
2.37698e-07
1.98481e-08
2.37381e-07
1.90213e-08
2.3702e-07
1.82388e-08
2.3662e-07
1.74956e-08
2.36183e-07
1.67871e-08
2.35715e-07
1.61096e-08
2.35219e-07
1.54595e-08
2.34699e-07
1.48333e-08
2.34159e-07
1.4228e-08
2.33602e-07
1.36401e-08
2.33033e-07
1.30665e-08
2.32454e-07
1.25037e-08
2.3187e-07
1.19481e-08
2.31284e-07
1.13954e-08
2.307e-07
1.08414e-08
2.3012e-07
1.02806e-08
2.29549e-07
9.70744e-09
2.28991e-07
9.11446e-09
2.28449e-07
8.49442e-09
2.27929e-07
7.83621e-09
2.27435e-07
7.13163e-09
2.26973e-07
6.36063e-09
2.26551e-07
5.52143e-09
2.26173e-07
4.56834e-09
2.25853e-07
3.52967e-09
2.25593e-07
2.30322e-09
2.25418e-07
9.80628e-10
2.25318e-07
-5.93078e-10
2.25337e-07
-2.30008e-09
2.25467e-07
-4.12972e-09
2.25734e-07
-6.08134e-09
2.26315e-07
-7.37153e-09
-8.09644e-09
2.27325e-07
2.37601e-07
6.27647e-08
2.40602e-07
7.74339e-08
2.41975e-07
5.64678e-08
2.43069e-07
4.80385e-08
2.43703e-07
4.38581e-08
2.44071e-07
3.93299e-08
2.44383e-07
3.56587e-08
2.44662e-07
3.30285e-08
2.44897e-07
3.09239e-08
2.45093e-07
2.90973e-08
2.45256e-07
2.74953e-08
2.45387e-07
2.60835e-08
2.45485e-07
2.48222e-08
2.4555e-07
2.36793e-08
2.45581e-07
2.26322e-08
2.45576e-07
2.16647e-08
2.45537e-07
2.07645e-08
2.45463e-07
1.99217e-08
2.45356e-07
1.91285e-08
2.45216e-07
1.83785e-08
2.45046e-07
1.76663e-08
2.44846e-07
1.69871e-08
2.44618e-07
1.6337e-08
2.44366e-07
1.57121e-08
2.4409e-07
1.51089e-08
2.43794e-07
1.45242e-08
2.43479e-07
1.39545e-08
2.43149e-07
1.33967e-08
2.42806e-07
1.2847e-08
2.42452e-07
1.23018e-08
2.42091e-07
1.17569e-08
2.41725e-07
1.12078e-08
2.41356e-07
1.06488e-08
2.40989e-07
1.00744e-08
2.40627e-07
9.47669e-09
2.40273e-07
8.84824e-09
2.39932e-07
8.17751e-09
2.39608e-07
7.45588e-09
2.39306e-07
6.66276e-09
2.39032e-07
5.7952e-09
2.38792e-07
4.80869e-09
2.38596e-07
3.72508e-09
2.38446e-07
2.45326e-09
2.38366e-07
1.06085e-09
2.38346e-07
-5.7289e-10
2.38424e-07
-2.37803e-09
2.38602e-07
-4.30786e-09
2.38907e-07
-6.38655e-09
2.39534e-07
-7.9987e-09
-9.21557e-09
2.40653e-07
2.44431e-07
5.75903e-08
2.47472e-07
7.43929e-08
2.48796e-07
5.51435e-08
2.4989e-07
4.69446e-08
2.50563e-07
4.31851e-08
2.50948e-07
3.8945e-08
2.51264e-07
3.53425e-08
2.51548e-07
3.27442e-08
2.5179e-07
3.06818e-08
2.51997e-07
2.88911e-08
2.52176e-07
2.73158e-08
2.52333e-07
2.59269e-08
2.52468e-07
2.46874e-08
2.52581e-07
2.35658e-08
2.52673e-07
2.25398e-08
2.52745e-07
2.15934e-08
2.52795e-07
2.07143e-08
2.52824e-07
1.98926e-08
2.52832e-07
1.91205e-08
2.52819e-07
1.83913e-08
2.52786e-07
1.76995e-08
2.52733e-07
1.70402e-08
2.52661e-07
1.64093e-08
2.5257e-07
1.58028e-08
2.52462e-07
1.52171e-08
2.52337e-07
1.46486e-08
2.52198e-07
1.4094e-08
2.52045e-07
1.35496e-08
2.5188e-07
1.30119e-08
2.51705e-07
1.2477e-08
2.51521e-07
1.19404e-08
2.51331e-07
1.13976e-08
2.51138e-07
1.08427e-08
2.50942e-07
1.02699e-08
2.50748e-07
9.67117e-09
2.50557e-07
9.03866e-09
2.50374e-07
8.36047e-09
2.50202e-07
7.6276e-09
2.50046e-07
6.81906e-09
2.49911e-07
5.93055e-09
2.498e-07
4.91936e-09
2.49725e-07
3.8005e-09
2.49684e-07
2.49397e-09
2.49699e-07
1.04541e-09
2.49764e-07
-6.37342e-10
2.49908e-07
-2.52212e-09
2.50145e-07
-4.54452e-09
2.50502e-07
-6.74363e-09
2.51181e-07
-8.67833e-09
-1.0425e-08
2.52391e-07
2.51478e-07
5.27191e-08
2.54549e-07
7.13217e-08
2.55835e-07
5.38577e-08
2.56923e-07
4.5856e-08
2.57634e-07
4.24745e-08
2.58039e-07
3.85402e-08
2.5836e-07
3.50208e-08
2.5865e-07
3.24549e-08
2.58897e-07
3.04348e-08
2.59107e-07
2.86807e-08
2.59291e-07
2.71314e-08
2.59456e-07
2.57628e-08
2.59602e-07
2.45412e-08
2.59732e-07
2.34358e-08
2.59847e-07
2.24246e-08
2.59948e-07
2.14921e-08
2.60036e-07
2.06263e-08
2.60112e-07
1.98174e-08
2.60174e-07
1.90578e-08
2.60225e-07
1.83408e-08
2.60263e-07
1.76611e-08
2.60289e-07
1.70138e-08
2.60304e-07
1.63946e-08
2.60307e-07
1.57995e-08
2.603e-07
1.52248e-08
2.60282e-07
1.46668e-08
2.60254e-07
1.4122e-08
2.60216e-07
1.35868e-08
2.60171e-07
1.30574e-08
2.60118e-07
1.25297e-08
2.60059e-07
1.19992e-08
2.59996e-07
1.14611e-08
2.59929e-07
1.09094e-08
2.59861e-07
1.03379e-08
2.59794e-07
9.73853e-09
2.59729e-07
9.10306e-09
2.59671e-07
8.41924e-09
2.59621e-07
7.67769e-09
2.59582e-07
6.85724e-09
2.59561e-07
5.95202e-09
2.59559e-07
4.92154e-09
2.59585e-07
3.77403e-09
2.59639e-07
2.43992e-09
2.59739e-07
9.45523e-10
2.5988e-07
-7.7861e-10
2.60087e-07
-2.7291e-09
2.60382e-07
-4.83908e-09
2.60794e-07
-7.1561e-09
2.61524e-07
-9.40795e-09
-1.17012e-08
2.628e-07
2.58751e-07
4.81512e-08
2.61842e-07
6.82303e-08
2.631e-07
5.26e-08
2.64178e-07
4.47778e-08
2.64924e-07
4.17289e-08
2.6535e-07
3.81135e-08
2.65679e-07
3.46925e-08
2.65973e-07
3.21604e-08
2.66225e-07
3.01827e-08
2.66439e-07
2.84668e-08
2.66626e-07
2.69445e-08
2.66793e-07
2.55962e-08
2.66942e-07
2.43916e-08
2.67077e-07
2.33008e-08
2.67199e-07
2.23024e-08
2.67311e-07
2.13809e-08
2.67412e-07
2.05247e-08
2.67505e-07
1.97246e-08
2.6759e-07
1.89729e-08
2.67667e-07
1.82634e-08
2.67738e-07
1.75907e-08
2.67801e-07
1.69501e-08
2.67859e-07
1.63373e-08
2.6791e-07
1.57483e-08
2.67955e-07
1.51795e-08
2.67995e-07
1.46271e-08
2.68029e-07
1.40876e-08
2.68059e-07
1.35572e-08
2.68084e-07
1.30321e-08
2.68106e-07
1.2508e-08
2.68125e-07
1.19804e-08
2.68141e-07
1.14442e-08
2.68157e-07
1.08933e-08
2.68174e-07
1.03214e-08
2.68192e-07
9.72002e-09
2.68215e-07
9.08079e-09
2.68243e-07
8.39116e-09
2.68279e-07
7.64129e-09
2.68326e-07
6.81009e-09
2.68388e-07
5.88997e-09
2.68467e-07
4.84288e-09
2.68571e-07
3.67063e-09
2.68697e-07
2.31305e-09
2.68863e-07
7.7981e-10
2.69066e-07
-9.81235e-10
2.69325e-07
-2.98806e-09
2.69669e-07
-5.18308e-09
2.70132e-07
-7.61932e-09
2.70902e-07
-1.0178e-08
-1.30173e-08
2.72218e-07
2.66258e-07
4.38849e-08
2.6936e-07
6.51293e-08
2.706e-07
5.13599e-08
2.71663e-07
4.37144e-08
2.7244e-07
4.09517e-08
2.72891e-07
3.76631e-08
2.73226e-07
3.43567e-08
2.73526e-07
3.18606e-08
2.73784e-07
2.99251e-08
2.74002e-07
2.82491e-08
2.74191e-07
2.67553e-08
2.74359e-07
2.5428e-08
2.7451e-07
2.42406e-08
2.74647e-07
2.31644e-08
2.74771e-07
2.21782e-08
2.74885e-07
2.12669e-08
2.7499e-07
2.04192e-08
2.75089e-07
1.96262e-08
2.75181e-07
1.88806e-08
2.75268e-07
1.81763e-08
2.75351e-07
1.7508e-08
2.7543e-07
1.68713e-08
2.75505e-07
1.62619e-08
2.75578e-07
1.5676e-08
2.75647e-07
1.51099e-08
2.75714e-07
1.45599e-08
2.7578e-07
1.40224e-08
2.75843e-07
1.34937e-08
2.75906e-07
1.29697e-08
2.75967e-07
1.24463e-08
2.76029e-07
1.19187e-08
2.76091e-07
1.13819e-08
2.76155e-07
1.08294e-08
2.76222e-07
1.02549e-08
2.76292e-07
9.64977e-09
2.76367e-07
9.0053e-09
2.7645e-07
8.30877e-09
2.76541e-07
7.54991e-09
2.76643e-07
6.70782e-09
2.7676e-07
5.77321e-09
2.76893e-07
4.7105e-09
2.77048e-07
3.51555e-09
2.77224e-07
2.13639e-09
2.77435e-07
5.68785e-10
2.77681e-07
-1.22721e-09
2.77978e-07
-3.28478e-09
2.78359e-07
-5.56384e-09
2.78863e-07
-8.1234e-09
2.7966e-07
-1.09748e-08
-1.43448e-08
2.80987e-07
2.74009e-07
3.99168e-08
2.77109e-07
6.20296e-08
2.78342e-07
5.01271e-08
2.79387e-07
4.26693e-08
2.80192e-07
4.01468e-08
2.80667e-07
3.71876e-08
2.81011e-07
3.40126e-08
2.81317e-07
3.15555e-08
2.8158e-07
2.96618e-08
2.81802e-07
2.8027e-08
2.81994e-07
2.65633e-08
2.82164e-07
2.52579e-08
2.82316e-07
2.40882e-08
2.82454e-07
2.3027e-08
2.82579e-07
2.20532e-08
2.82693e-07
2.11521e-08
2.828e-07
2.03127e-08
2.829e-07
1.95265e-08
2.82994e-07
1.87863e-08
2.83084e-07
1.80863e-08
2.83171e-07
1.74214e-08
2.83254e-07
1.67874e-08
2.83336e-07
1.61801e-08
2.83417e-07
1.55957e-08
2.83496e-07
1.50306e-08
2.83575e-07
1.44812e-08
2.83653e-07
1.39439e-08
2.83732e-07
1.34149e-08
2.83811e-07
1.28902e-08
2.83892e-07
1.23656e-08
2.83975e-07
1.18361e-08
2.8406e-07
1.12967e-08
2.84148e-07
1.0741e-08
2.84241e-07
1.01622e-08
2.84339e-07
9.55171e-09
2.84444e-07
8.90063e-09
2.84557e-07
8.19611e-09
2.84679e-07
7.42736e-09
2.84813e-07
6.57387e-09
2.84962e-07
5.62461e-09
2.85126e-07
4.54643e-09
2.85312e-07
3.32981e-09
2.85518e-07
1.92973e-09
2.85756e-07
3.30602e-10
2.86029e-07
-1.49994e-09
2.8635e-07
-3.60546e-09
2.86754e-07
-5.96799e-09
2.87287e-07
-8.65602e-09
2.88095e-07
-1.17832e-08
-1.56556e-08
2.89406e-07
2.82013e-07
3.62415e-08
2.851e-07
5.89427e-08
2.86335e-07
4.8892e-08
2.87359e-07
4.16453e-08
2.88186e-07
3.93192e-08
2.88688e-07
3.66856e-08
2.89042e-07
3.36589e-08
2.89352e-07
3.12453e-08
2.89622e-07
2.93926e-08
2.89848e-07
2.78004e-08
2.90043e-07
2.63684e-08
2.90215e-07
2.50858e-08
2.90369e-07
2.39345e-08
2.90507e-07
2.28887e-08
2.90633e-07
2.19276e-08
2.90748e-07
2.10369e-08
2.90855e-07
2.0206e-08
2.90955e-07
1.94265e-08
2.9105e-07
1.86916e-08
2.9114e-07
1.79957e-08
2.91228e-07
1.73339e-08
2.91313e-07
1.67021e-08
2.91397e-07
1.60963e-08
2.91479e-07
1.55128e-08
2.91562e-07
1.49481e-08
2.91645e-07
1.43985e-08
2.91728e-07
1.38604e-08
2.91813e-07
1.33302e-08
2.91899e-07
1.28038e-08
2.91988e-07
1.22768e-08
2.9208e-07
1.17444e-08
2.92175e-07
1.12014e-08
2.92275e-07
1.06413e-08
2.9238e-07
1.00572e-08
2.92491e-07
9.44041e-09
2.9261e-07
8.78181e-09
2.92737e-07
8.06852e-09
2.92875e-07
7.28923e-09
2.93025e-07
6.42389e-09
2.9319e-07
5.4598e-09
2.93371e-07
4.36611e-09
2.93572e-07
3.1285e-09
2.93794e-07
1.70763e-09
2.94046e-07
7.89571e-11
2.94332e-07
-1.78627e-09
2.94665e-07
-3.93874e-09
2.95081e-07
-6.38373e-09
2.95629e-07
-9.20438e-09
2.96434e-07
-1.25883e-08
-1.69234e-08
2.97702e-07
2.90278e-07
3.28519e-08
2.93341e-07
5.58804e-08
2.94587e-07
4.76459e-08
2.95588e-07
4.06442e-08
2.96433e-07
3.84739e-08
2.96963e-07
3.61562e-08
2.97327e-07
3.32942e-08
2.97643e-07
3.09299e-08
2.97918e-07
2.91177e-08
2.98149e-07
2.75687e-08
2.98347e-07
2.61703e-08
2.98522e-07
2.49116e-08
2.98677e-07
2.37792e-08
2.98816e-07
2.27492e-08
2.98943e-07
2.18013e-08
2.99058e-07
2.09213e-08
2.99165e-07
2.0099e-08
2.99266e-07
1.93263e-08
2.9936e-07
1.85968e-08
2.99451e-07
1.79051e-08
2.99538e-07
1.72464e-08
2.99624e-07
1.66167e-08
2.99708e-07
1.60123e-08
2.99791e-07
1.54295e-08
2.99875e-07
1.48648e-08
2.99958e-07
1.43146e-08
3.00043e-07
1.37755e-08
3.0013e-07
1.32436e-08
3.00219e-07
1.2715e-08
3.0031e-07
1.21852e-08
3.00405e-07
1.16494e-08
3.00505e-07
1.11022e-08
3.00609e-07
1.05371e-08
3.00719e-07
9.94722e-09
3.00836e-07
9.32361e-09
3.0096e-07
8.65704e-09
3.01094e-07
7.93459e-09
3.01239e-07
7.14446e-09
3.01396e-07
6.2671e-09
3.01567e-07
5.28824e-09
3.01754e-07
4.17909e-09
3.01962e-07
2.92122e-09
3.0219e-07
1.47962e-09
3.02446e-07
-1.77041e-10
3.02736e-07
-2.0769e-09
3.03074e-07
-4.27617e-09
3.03492e-07
-6.80168e-09
3.04044e-07
-9.75632e-09
3.04832e-07
-1.33765e-08
-1.81249e-08
3.06033e-07
2.98815e-07
2.97391e-08
3.01841e-07
5.28548e-08
3.03106e-07
4.63807e-08
3.04084e-07
3.96669e-08
3.04941e-07
3.76163e-08
3.05498e-07
3.55989e-08
3.05875e-07
3.29171e-08
3.06196e-07
3.06094e-08
3.06477e-07
2.88369e-08
3.06714e-07
2.73319e-08
3.06915e-07
2.59685e-08
3.07092e-07
2.4735e-08
3.07249e-07
2.36221e-08
3.0739e-07
2.26084e-08
3.07517e-07
2.16741e-08
3.07633e-07
2.08051e-08
3.0774e-07
1.99917e-08
3.07841e-07
1.92261e-08
3.07935e-07
1.85021e-08
3.08026e-07
1.78145e-08
3.08113e-07
1.71589e-08
3.08199e-07
1.65314e-08
3.08283e-07
1.59283e-08
3.08366e-07
1.53461e-08
3.08449e-07
1.47814e-08
3.08533e-07
1.42306e-08
3.08619e-07
1.36902e-08
3.08706e-07
1.31565e-08
3.08795e-07
1.26255e-08
3.08888e-07
1.20927e-08
3.08984e-07
1.15533e-08
3.09084e-07
1.10017e-08
3.0919e-07
1.04315e-08
3.09302e-07
9.83555e-09
3.0942e-07
9.20498e-09
3.09547e-07
8.53029e-09
3.09683e-07
7.79862e-09
3.0983e-07
6.99766e-09
3.09989e-07
6.10837e-09
3.10162e-07
5.11506e-09
3.1035e-07
3.99071e-09
3.10558e-07
2.71348e-09
3.10786e-07
1.25149e-09
3.11041e-07
-4.31864e-10
3.1133e-07
-2.36565e-09
3.11665e-07
-4.61163e-09
3.12078e-07
-7.2147e-09
3.12623e-07
-1.03008e-08
3.13381e-07
-1.4135e-08
-1.92402e-08
3.14496e-07
3.07634e-07
2.68927e-08
3.10611e-07
4.98779e-08
3.11902e-07
4.50898e-08
3.12855e-07
3.87132e-08
3.1372e-07
3.6752e-08
3.14304e-07
3.50142e-08
3.14695e-07
3.25259e-08
3.15021e-07
3.02835e-08
3.15308e-07
2.85505e-08
3.1555e-07
2.70895e-08
3.15756e-07
2.57629e-08
3.15935e-07
2.45557e-08
3.16094e-07
2.34631e-08
3.16236e-07
2.24662e-08
3.16364e-07
2.15458e-08
3.16481e-07
2.06883e-08
3.16589e-07
1.98839e-08
3.1669e-07
1.91256e-08
3.16784e-07
1.84072e-08
3.16875e-07
1.7724e-08
3.16962e-07
1.70716e-08
3.17048e-07
1.64462e-08
3.17131e-07
1.58445e-08
3.17215e-07
1.52629e-08
3.17298e-07
1.4698e-08
3.17382e-07
1.41466e-08
3.17467e-07
1.3605e-08
3.17554e-07
1.30694e-08
3.17644e-07
1.25359e-08
3.17737e-07
1.20001e-08
3.17833e-07
1.14569e-08
3.17934e-07
1.09009e-08
3.1804e-07
1.03255e-08
3.18152e-07
9.72357e-09
3.1827e-07
9.08605e-09
3.18397e-07
8.40332e-09
3.18534e-07
7.66257e-09
3.1868e-07
6.85101e-09
3.18838e-07
5.9501e-09
3.19011e-07
4.94287e-09
3.19198e-07
3.80379e-09
3.19403e-07
2.50828e-09
3.19628e-07
1.02653e-09
3.19878e-07
-6.82064e-10
3.20161e-07
-2.64855e-09
3.2049e-07
-4.94043e-09
3.20892e-07
-7.617e-09
3.21419e-07
-1.08279e-08
3.22136e-07
-1.48516e-08
-2.02529e-08
3.23148e-07
3.16743e-07
2.43006e-08
3.1966e-07
4.69616e-08
3.20982e-07
4.37678e-08
3.21912e-07
3.77822e-08
3.22779e-07
3.5886e-08
3.2339e-07
3.44031e-08
3.23796e-07
3.21191e-08
3.24128e-07
2.99517e-08
3.2442e-07
2.82585e-08
3.24668e-07
2.68413e-08
3.24878e-07
2.55531e-08
3.2506e-07
2.43736e-08
3.25221e-07
2.3302e-08
3.25365e-07
2.23224e-08
3.25495e-07
2.14164e-08
3.25612e-07
2.05706e-08
3.25721e-07
1.97756e-08
3.25822e-07
1.90247e-08
3.25917e-07
1.83121e-08
3.26007e-07
1.76333e-08
3.26095e-07
1.69841e-08
3.2618e-07
1.6361e-08
3.26264e-07
1.57607e-08
3.26347e-07
1.51797e-08
3.2643e-07
1.46148e-08
3.26514e-07
1.40627e-08
3.26599e-07
1.35198e-08
3.26686e-07
1.29824e-08
3.26776e-07
1.24464e-08
3.26868e-07
1.19075e-08
3.26965e-07
1.13607e-08
3.27065e-07
1.08002e-08
3.27171e-07
1.02197e-08
3.27283e-07
9.61181e-09
3.27401e-07
8.96748e-09
3.27528e-07
8.27689e-09
3.27663e-07
7.52732e-09
3.27809e-07
6.70555e-09
3.27965e-07
5.79348e-09
3.28135e-07
4.77304e-09
3.28319e-07
3.61992e-09
3.2852e-07
2.30736e-09
3.2874e-07
8.06842e-10
3.28983e-07
-9.25364e-10
3.29257e-07
-2.92275e-09
3.29575e-07
-5.25867e-09
3.29962e-07
-8.00344e-09
3.30462e-07
-1.13287e-08
3.31126e-07
-1.55148e-08
-2.11498e-08
3.32023e-07
3.26154e-07
2.19494e-08
3.28998e-07
4.41178e-08
3.30354e-07
4.2411e-08
3.31265e-07
3.68719e-08
3.32128e-07
3.50231e-08
3.32763e-07
3.37672e-08
3.33187e-07
3.16953e-08
3.33525e-07
2.96135e-08
3.33823e-07
2.7961e-08
3.34077e-07
2.65873e-08
3.34291e-07
2.53386e-08
3.34477e-07
2.41883e-08
3.3464e-07
2.31385e-08
3.34786e-07
2.21768e-08
3.34916e-07
2.12856e-08
3.35035e-07
2.04519e-08
3.35144e-07
1.96666e-08
3.35246e-07
1.89233e-08
3.35341e-07
1.82167e-08
3.35432e-07
1.75424e-08
3.35519e-07
1.68966e-08
3.35605e-07
1.62758e-08
3.35689e-07
1.56768e-08
3.35772e-07
1.50965e-08
3.35855e-07
1.45316e-08