/*--------------------------------*- C++ -*----------------------------------*\
  =========                 |
  \\      /  F ield         | OpenFOAM: The Open Source CFD Toolbox
   \\    /   O peration     | Website:  https://openfoam.org
    \\  /    A nd           | Version:  7
     \\/     M anipulation  |
\*---------------------------------------------------------------------------*/
FoamFile
{
    version     2.0;
    format      ascii;
    class       volVectorField;
    location    "0.28";
    object      U;
}
// * * * * * * * * * * * * * * * * * * * * * * * * * * * * * * * * * * * * * //

dimensions      [0 1 -1 0 0 0 0];

internalField   nonuniform List<vector> 
70000
(
(0.55339 0.0167231 0)
(0.251258 0.00340108 0)
(0.166191 0.00032209 0)
(0.132434 5.43321e-05 0)
(0.117231 4.57634e-05 0)
(0.107296 5.39341e-05 0)
(0.0993373 4.62932e-05 0)
(0.0928889 3.69447e-05 0)
(0.0876387 3.06172e-05 0)
(0.0832672 2.62715e-05 0)
(0.0795461 2.29493e-05 0)
(0.0763275 2.02799e-05 0)
(0.0735099 1.80941e-05 0)
(0.0710192 1.62795e-05 0)
(0.068799 1.47519e-05 0)
(0.0668058 1.34489e-05 0)
(0.0650054 1.23245e-05 0)
(0.0633706 1.13413e-05 0)
(0.0618796 1.04733e-05 0)
(0.0605143 9.69649e-06 0)
(0.0592603 8.99449e-06 0)
(0.0581054 8.35139e-06 0)
(0.0570397 7.75498e-06 0)
(0.0560549 7.19394e-06 0)
(0.055144 6.65886e-06 0)
(0.0543015 6.13912e-06 0)
(0.0535227 5.62757e-06 0)
(0.0528041 5.11405e-06 0)
(0.0521429 4.58949e-06 0)
(0.0515371 4.04643e-06 0)
(0.0509857 3.46935e-06 0)
(0.0504883 2.85407e-06 0)
(0.0500456 2.17611e-06 0)
(0.049659 1.43645e-06 0)
(0.0493311 5.90113e-07 0)
(0.0490653 -3.38176e-07 0)
(0.0488667 -1.45248e-06 0)
(0.0487419 -2.65055e-06 0)
(0.0486973 -4.09145e-06 0)
(0.0487465 -5.8971e-06 0)
(0.048892 -7.65871e-06 0)
(0.0491685 -9.7768e-06 0)
(0.0495419 -1.14425e-05 0)
(0.0501413 -1.55984e-05 0)
(0.050732 -1.37482e-05 0)
(0.0518499 -2.40893e-05 0)
(0.0524313 -7.80688e-06 0)
(0.0544549 -3.46379e-05 0)
(0.0540587 6.50009e-05 0)
(0.0543095 -0.00202159 0)
(0.884899 0.0431676 0)
(0.649711 0.0201947 0)
(0.494296 0.00659953 0)
(0.403611 0.00276912 0)
(0.354652 0.00155366 0)
(0.323313 0.00113327 0)
(0.29942 0.000911937 0)
(0.280195 0.000747786 0)
(0.26446 0.000624614 0)
(0.251326 0.000533497 0)
(0.240142 0.00046422 0)
(0.230466 0.000409621 0)
(0.221993 0.000365437 0)
(0.214498 0.000329008 0)
(0.207813 0.000298519 0)
(0.201807 0.000272664 0)
(0.196377 0.000250479 0)
(0.191443 0.000231231 0)
(0.186937 0.000214362 0)
(0.182807 0.000199431 0)
(0.179008 0.00018609 0)
(0.175504 0.000174056 0)
(0.172263 0.000163095 0)
(0.169261 0.000153011 0)
(0.166476 0.000143635 0)
(0.163891 0.000134813 0)
(0.161491 0.000126411 0)
(0.159263 0.000118297 0)
(0.157198 0.00011034 0)
(0.15529 0.000102421 0)
(0.153532 9.43864e-05 0)
(0.151921 8.61101e-05 0)
(0.150458 7.73897e-05 0)
(0.149143 6.81049e-05 0)
(0.147981 5.79254e-05 0)
(0.146978 4.68028e-05 0)
(0.146145 3.40923e-05 0)
(0.145497 2.00745e-05 0)
(0.145047 3.47959e-06 0)
(0.144829 -1.42163e-05 0)
(0.144848 -3.7933e-05 0)
(0.145192 -6.27282e-05 0)
(0.145776 -9.36955e-05 0)
(0.146934 -0.000127561 0)
(0.148076 -0.000165044 0)
(0.150606 -0.000210563 0)
(0.151827 -0.000234936 0)
(0.156844 -0.000302233 0)
(0.156346 2.8099e-05 0)
(0.162333 -0.00279047 0)
(0.991238 0.0499018 0)
(0.890345 0.0307204 0)
(0.762661 0.0146009 0)
(0.656613 0.00798397 0)
(0.585239 0.00488977 0)
(0.53578 0.00347619 0)
(0.497859 0.00274044 0)
(0.467191 0.0022475 0)
(0.441836 0.00188347 0)
(0.420497 0.00161083 0)
(0.40223 0.00140228 0)
(0.386366 0.00123791 0)
(0.37243 0.00110501 0)
(0.360071 0.000995463 0)
(0.349022 0.000903792 0)
(0.339077 0.000826067 0)
(0.33007 0.000759399 0)
(0.321871 0.000701596 0)
(0.314374 0.000650985 0)
(0.307491 0.000606252 0)
(0.30115 0.000566359 0)
(0.295291 0.000530463 0)
(0.289865 0.000497877 0)
(0.284829 0.000468022 0)
(0.280147 0.000440408 0)
(0.275791 0.000414594 0)
(0.271734 0.000390198 0)
(0.267955 0.00036685 0)
(0.264439 0.0003442 0)
(0.261172 0.000321909 0)
(0.258142 0.000299592 0)
(0.255343 0.000276896 0)
(0.252772 0.000253326 0)
(0.250427 0.00022853 0)
(0.248312 0.000201717 0)
(0.246434 0.000172669 0)
(0.244804 0.000139879 0)
(0.243442 0.000103787 0)
(0.242363 6.11925e-05 0)
(0.241612 1.53177e-05 0)
(0.241193 -4.35881e-05 0)
(0.241228 -0.000107005 0)
(0.241598 -0.00018991 0)
(0.242773 -0.000271817 0)
(0.24392 -0.000386824 0)
(0.247027 -0.00048478 0)
(0.248375 -0.000612163 0)
(0.254912 -0.00073643 0)
(0.254521 -0.000388136 0)
(0.264493 -0.00267943 0)
(1.0156 0.0489207 0)
(1.00596 0.0358774 0)
(0.935937 0.020797 0)
(0.852071 0.013512 0)
(0.782079 0.00921691 0)
(0.726817 0.00679083 0)
(0.681669 0.0053928 0)
(0.643848 0.00445261 0)
(0.611774 0.00375729 0)
(0.584263 0.0032295 0)
(0.560383 0.00282107 0)
(0.539426 0.00249696 0)
(0.520865 0.00223375 0)
(0.504294 0.00201606 0)
(0.489399 0.00183337 0)
(0.475928 0.0016781 0)
(0.463681 0.00154467 0)
(0.452495 0.00142882 0)
(0.442233 0.0013273 0)
(0.432787 0.00123752 0)
(0.424062 0.00115746 0)
(0.415982 0.00108545 0)
(0.408481 0.00102016 0)
(0.401502 0.000960443 0)
(0.395 0.000905346 0)
(0.388934 0.000854019 0)
(0.38327 0.000805718 0)
(0.37798 0.000759745 0)
(0.37304 0.000715439 0)
(0.368429 0.000672162 0)
(0.364134 0.000629218 0)
(0.360143 0.000585954 0)
(0.356448 0.000541495 0)
(0.353045 0.000495181 0)
(0.349937 0.000445645 0)
(0.347128 0.00039241 0)
(0.344629 0.000332923 0)
(0.342459 0.000267655 0)
(0.340635 0.000191224 0)
(0.339203 0.000107217 0)
(0.338171 3.86355e-06 0)
(0.337668 -0.00010706 0)
(0.337568 -0.000257189 0)
(0.338393 -0.000397766 0)
(0.339221 -0.000616333 0)
(0.342243 -0.000776043 0)
(0.343482 -0.00104753 0)
(0.350191 -0.00123678 0)
(0.350291 -0.000953193 0)
(0.360724 -0.00252785 0)
(1.01434 0.0460042 0)
(1.04753 0.0374914 0)
(1.02457 0.0241586 0)
(0.974723 0.0175699 0)
(0.923363 0.0131356 0)
(0.876529 0.0102205 0)
(0.834297 0.00835677 0)
(0.796479 0.0070343 0)
(0.762851 0.00602206 0)
(0.732983 0.00523139 0)
(0.706366 0.00460576 0)
(0.682533 0.0041013 0)
(0.661085 0.00368676 0)
(0.64169 0.00334072 0)
(0.624071 0.00304811 0)
(0.607997 0.00279789 0)
(0.593274 0.00258177 0)
(0.579739 0.00239335 0)
(0.567254 0.00222766 0)
(0.555704 0.00208074 0)
(0.544991 0.00194945 0)
(0.535029 0.0018312 0)
(0.525746 0.00172387 0)
(0.517082 0.00162569 0)
(0.508982 0.00153514 0)
(0.501401 0.0014509 0)
(0.494301 0.00137178 0)
(0.487647 0.00129669 0)
(0.481411 0.00122461 0)
(0.47557 0.00115454 0)
(0.470106 0.00108542 0)
(0.465003 0.00101626 0)
(0.460251 0.000945737 0)
(0.455845 0.000872835 0)
(0.451783 0.000795563 0)
(0.448068 0.000713108 0)
(0.44471 0.000621845 0)
(0.441726 0.000522123 0)
(0.439136 0.000406414 0)
(0.436977 0.00027938 0)
(0.43527 0.000123223 0)
(0.434128 -4.09706e-05 0)
(0.433448 -0.000266533 0)
(0.433722 -0.000474298 0)
(0.434098 -0.000806485 0)
(0.436611 -0.00104387 0)
(0.437685 -0.00146408 0)
(0.443697 -0.00175094 0)
(0.444489 -0.00152763 0)
(0.45371 -0.00253515 0)
(1.00933 0.0429155 0)
(1.05528 0.0372669 0)
(1.05868 0.0253038 0)
(1.03635 0.0197718 0)
(1.00704 0.0158282 0)
(0.975944 0.012955 0)
(0.944353 0.0109794 0)
(0.913413 0.00949618 0)
(0.883985 0.00830304 0)
(0.856461 0.00733121 0)
(0.830926 0.00653631 0)
(0.807322 0.00587864 0)
(0.785531 0.00532714 0)
(0.765411 0.00485922 0)
(0.746816 0.00445824 0)
(0.729605 0.00411153 0)
(0.713646 0.00380929 0)
(0.69882 0.00354373 0)
(0.685021 0.00330866 0)
(0.672153 0.00309907 0)
(0.660133 0.0029109 0)
(0.648886 0.00274078 0)
(0.638346 0.0025859 0)
(0.628457 0.00244387 0)
(0.619169 0.00231267 0)
(0.610437 0.00219048 0)
(0.602222 0.0020757 0)
(0.594493 0.00196684 0)
(0.587219 0.0018625 0)
(0.580378 0.00176132 0)
(0.573949 0.00166185 0)
(0.567918 0.00156271 0)
(0.562272 0.00146217 0)
(0.557005 0.00135878 0)
(0.552115 0.00124995 0)
(0.547603 0.00113444 0)
(0.543481 0.00100764 0)
(0.539758 0.000869528 0)
(0.536462 0.00071077 0)
(0.533617 0.000536418 0)
(0.531262 0.000323836 0)
(0.529478 9.95561e-05 0)
(0.528213 -0.000203968 0)
(0.527862 -0.000487019 0)
(0.52776 -0.000932595 0)
(0.529567 -0.0012667 0)
(0.530447 -0.00182381 0)
(0.535411 -0.00224087 0)
(0.536773 -0.00207086 0)
(0.544547 -0.0026185 0)
(1.00625 0.0400341 0)
(1.05206 0.0363394 0)
(1.06609 0.0252334 0)
(1.05959 0.0205729 0)
(1.04684 0.0172575 0)
(1.03072 0.0146786 0)
(1.01177 0.012844 0)
(0.991024 0.0114184 0)
(0.969541 0.0102191 0)
(0.948062 0.00919884 0)
(0.92704 0.00833266 0)
(0.906743 0.00759322 0)
(0.887322 0.00695656 0)
(0.86885 0.00640418 0)
(0.851347 0.00592178 0)
(0.834802 0.00549793 0)
(0.819183 0.00512331 0)
(0.804446 0.00479028 0)
(0.790543 0.00449248 0)
(0.777426 0.00422463 0)
(0.765044 0.00398233 0)
(0.753351 0.00376182 0)
(0.742303 0.00355994 0)
(0.731859 0.00337393 0)
(0.721981 0.00320141 0)
(0.712636 0.00304021 0)
(0.703794 0.00288842 0)
(0.695427 0.00274421 0)
(0.687512 0.00260587 0)
(0.68003 0.00247169 0)
(0.672963 0.00233989 0)
(0.666298 0.00220875 0)
(0.660027 0.00207608 0)
(0.654141 0.00194006 0)
(0.648643 0.00179751 0)
(0.643532 0.00164667 0)
(0.638821 0.00148214 0)
(0.634517 0.00130322 0)
(0.630653 0.00109925 0)
(0.627243 0.00087492 0)
(0.624341 0.000604111 0)
(0.621995 0.00031547 0)
(0.620207 -6.65285e-05 0)
(0.619266 -0.000431678 0)
(0.61871 -0.000985726 0)
(0.619792 -0.00143232 0)
(0.620436 -0.00211283 0)
(0.624314 -0.00267943 0)
(0.626032 -0.00257291 0)
(0.632513 -0.00276375 0)
(1.00495 0.0373561 0)
(1.04727 0.0352574 0)
(1.06397 0.0246937 0)
(1.06425 0.0205999 0)
(1.06066 0.0177969 0)
(1.0547 0.015524 0)
(1.04591 0.0139054 0)
(1.03466 0.0126457 0)
(1.02169 0.011558 0)
(1.00759 0.010601 0)
(0.992831 0.00976209 0)
(0.977775 0.00902435 0)
(0.96269 0.00837158 0)
(0.947776 0.00779108 0)
(0.933173 0.00727285 0)
(0.918974 0.00680856 0)
(0.905241 0.0063911 0)
(0.892008 0.00601431 0)
(0.879293 0.00567285 0)
(0.867099 0.0053621 0)
(0.855424 0.00507802 0)
(0.844256 0.0048171 0)
(0.833582 0.00457624 0)
(0.823388 0.00435269 0)
(0.813655 0.00414401 0)
(0.804368 0.00394794 0)
(0.795511 0.00376241 0)
(0.787068 0.00358543 0)
(0.779027 0.00341507 0)
(0.771375 0.00324941 0)
(0.764104 0.00308641 0)
(0.757204 0.00292403 0)
(0.750671 0.00275976 0)
(0.744504 0.00259136 0)
(0.738705 0.00241518 0)
(0.733277 0.0022289 0)
(0.728235 0.0020265 0)
(0.723586 0.00180638 0)
(0.719367 0.001557 0)
(0.715583 0.00128202 0)
(0.712302 0.000953061 0)
(0.709547 0.000599591 0)
(0.707362 0.000139099 0)
(0.705944 -0.000312021 0)
(0.705002 -0.00096762 0)
(0.705447 -0.00153684 0)
(0.705843 -0.00232884 0)
(0.708744 -0.00305234 0)
(0.710618 -0.00303253 0)
(0.716092 -0.00298218 0)
(1.0044 0.0348082 0)
(1.04324 0.0341843 0)
(1.05994 0.0240528 0)
(1.06228 0.0203065 0)
(1.06248 0.0178617 0)
(1.06177 0.0158071 0)
(1.05918 0.0143629 0)
(1.05459 0.0132696 0)
(1.04832 0.0123251 0)
(1.04069 0.011481 0)
(1.03198 0.0107267 0)
(1.02245 0.0100496 0)
(1.01233 0.00943727 0)
(1.00184 0.00888074 0)
(0.991123 0.00837338 0)
(0.98033 0.00790983 0)
(0.969564 0.0074854 0)
(0.958906 0.00709589 0)
(0.948421 0.0067375 0)
(0.938153 0.00640679 0)
(0.928136 0.00610065 0)
(0.918394 0.00581623 0)
(0.908943 0.00555093 0)
(0.899793 0.00530236 0)
(0.89095 0.00506831 0)
(0.882417 0.00484667 0)
(0.874195 0.00463544 0)
(0.866284 0.00443265 0)
(0.858682 0.00423633 0)
(0.851389 0.00404445 0)
(0.844404 0.00385483 0)
(0.837727 0.00366524 0)
(0.831362 0.00347289 0)
(0.82531 0.00327521 0)
(0.819581 0.0030682 0)
(0.814179 0.00284891 0)
(0.809125 0.00261095 0)
(0.804426 0.00235163 0)
(0.800122 0.00205893 0)
(0.796217 0.00173505 0)
(0.792781 0.00135036 0)
(0.78983 0.000933317 0)
(0.787421 0.000398353 0)
(0.785703 -0.000140096 0)
(0.784496 -0.000888942 0)
(0.784451 -0.00158474 0)
(0.784632 -0.0024788 0)
(0.786741 -0.00335503 0)
(0.78862 -0.00345632 0)
(0.793399 -0.00328243 0)
(1.00402 0.032368 0)
(1.03991 0.0331342 0)
(1.05616 0.0234299 0)
(1.05892 0.0199187 0)
(1.06021 0.0177321 0)
(1.06155 0.0158127 0)
(1.0619 0.0144704 0)
(1.06098 0.013493 0)
(1.05888 0.0126655 0)
(1.0557 0.0119281 0)
(1.05155 0.0112676 0)
(1.04654 0.0106707 0)
(1.04079 0.010125 0)
(1.03444 0.00962227 0)
(1.02761 0.00915688 0)
(1.02042 0.0087249 0)
(1.01297 0.00832311 0)
(1.00534 0.00794868 0)
(0.997607 0.00759908 0)
(0.989837 0.00727196 0)
(0.982079 0.00696513 0)
(0.974375 0.00667654 0)
(0.96676 0.00640422 0)
(0.959262 0.00614629 0)
(0.951903 0.00590094 0)
(0.944701 0.00566638 0)
(0.937672 0.00544083 0)
(0.930829 0.00522247 0)
(0.924181 0.00500941 0)
(0.917738 0.00479966 0)
(0.911509 0.00459099 0)
(0.905501 0.00438105 0)
(0.899726 0.00416691 0)
(0.894191 0.00394572 0)
(0.888911 0.00371322 0)
(0.883895 0.0034659 0)
(0.879167 0.00319708 0)
(0.874736 0.00290303 0)
(0.870645 0.00257139 0)
(0.866898 0.0022029 0)
(0.863564 0.00176708 0)
(0.860659 0.00129045 0)
(0.858241 0.000687666 0)
(0.85643 6.46203e-05 0)
(0.855121 -0.000768486 0)
(0.854771 -0.00158859 0)
(0.854814 -0.00257803 0)
(0.856357 -0.00359441 0)
(0.858172 -0.00385297 0)
(0.862502 -0.00366457 0)
(1.00364 0.0300276 0)
(1.03692 0.0320867 0)
(1.05282 0.0228403 0)
(1.05568 0.0195138 0)
(1.05711 0.0175407 0)
(1.059 0.0157137 0)
(1.06043 0.0144194 0)
(1.0611 0.0135059 0)
(1.06107 0.0127529 0)
(1.06037 0.0120908 0)
(1.05901 0.0115034 0)
(1.057 0.0109762 0)
(1.05437 0.0104951 0)
(1.05118 0.0100506 0)
(1.0475 0.00963672 0)
(1.04338 0.00924927 0)
(1.03889 0.0088853 0)
(1.0341 0.00854239 0)
(1.02906 0.00821856 0)
(1.02384 0.00791202 0)
(1.01846 0.00762116 0)
(1.01299 0.00734445 0)
(1.00746 0.00708042 0)
(1.0019 0.00682761 0)
(0.996334 0.00658459 0)
(0.990796 0.00634987 0)
(0.985305 0.00612192 0)
(0.979882 0.00589911 0)
(0.974544 0.00567968 0)
(0.969306 0.00546172 0)
(0.964185 0.00524301 0)
(0.959194 0.00502117 0)
(0.954349 0.00479317 0)
(0.949663 0.00455593 0)
(0.945154 0.00430504 0)
(0.940836 0.00403646 0)
(0.936734 0.00374331 0)
(0.932861 0.00342093 0)
(0.929257 0.00305664 0)
(0.925934 0.00264986 0)
(0.922949 0.00216954 0)
(0.920329 0.00163972 0)
(0.91812 0.000977191 0)
(0.916427 0.000276299 0)
(0.915196 -0.000631286 0)
(0.914742 -0.00156736 0)
(0.914752 -0.00264705 0)
(0.915956 -0.00378832 0)
(0.917725 -0.00423075 0)
(0.921792 -0.00413873 0)
(1.00327 0.0277879 0)
(1.03409 0.0310281 0)
(1.0497 0.0222772 0)
(1.05272 0.0191069 0)
(1.05411 0.0173305 0)
(1.05606 0.0155855 0)
(1.05776 0.0143138 0)
(1.05895 0.0134312 0)
(1.05973 0.0127197 0)
(1.06015 0.0121018 0)
(1.06019 0.0115604 0)
(1.05982 0.0110806 0)
(1.05904 0.0106472 0)
(1.05786 0.0102494 0)
(1.05629 0.0098801 0)
(1.05436 0.00953442 0)
(1.05209 0.00920891 0)
(1.04952 0.0089009 0)
(1.04669 0.00860829 0)
(1.04362 0.00832937 0)
(1.04034 0.00806263 0)
(1.0369 0.00780672 0)
(1.03332 0.00756036 0)
(1.02963 0.00732229 0)
(1.02585 0.00709127 0)
(1.02201 0.006866 0)
(1.01814 0.0066451 0)
(1.01424 0.00642706 0)
(1.01034 0.00621023 0)
(1.00646 0.00599275 0)
(1.00261 0.00577241 0)
(0.998819 0.0055468 0)
(0.995095 0.0053128 0)
(0.991455 0.00506716 0)
(0.98792 0.00480532 0)
(0.984505 0.0045228 0)
(0.981235 0.00421251 0)
(0.978126 0.00386906 0)
(0.975214 0.00347936 0)
(0.972516 0.00304177 0)
(0.970078 0.0025249 0)
(0.967933 0.00194968 0)
(0.966121 0.00123723 0)
(0.964727 0.000466848 0)
(0.963736 -0.000504592 0)
(0.963364 -0.00154341 0)
(0.963456 -0.00270809 0)
(0.964521 -0.00395998 0)
(0.966309 -0.0046052 0)
(0.97026 -0.00471239 0)
(1.00292 0.0256521 0)
(1.03138 0.0299537 0)
(1.0467 0.0217361 0)
(1.04993 0.018698 0)
(1.0513 0.0171083 0)
(1.0532 0.0154503 0)
(1.05494 0.0141945 0)
(1.05625 0.0133281 0)
(1.05726 0.0126405 0)
(1.05807 0.0120474 0)
(1.05867 0.0115315 0)
(1.05904 0.0110791 0)
(1.05917 0.0106752 0)
(1.05906 0.010308 0)
(1.05869 0.00996976 0)
(1.05807 0.00965503 0)
(1.05722 0.00935977 0)
(1.05613 0.00908088 0)
(1.05483 0.00881592 0)
(1.05332 0.00856293 0)
(1.05163 0.00832027 0)
(1.04976 0.00808647 0)
(1.04775 0.00786022 0)
(1.04561 0.00764026 0)
(1.04335 0.00742534 0)
(1.04099 0.00721418 0)
(1.03855 0.00700543 0)
(1.03605 0.0067976 0)
(1.0335 0.00658905 0)
(1.03091 0.00637789 0)
(1.02831 0.0061619 0)
(1.02571 0.00593858 0)
(1.02312 0.00570472 0)
(1.02057 0.00545691 0)
(1.01806 0.00519039 0)
(1.01561 0.00490036 0)
(1.01325 0.00457945 0)
(1.01099 0.00422173 0)
(1.00887 0.00381362 0)
(1.0069 0.0033526 0)
(1.00512 0.00280726 0)
(1.00357 0.00219483 0)
(1.00227 0.00144238 0)
(1.00129 0.00061264 0)
(1.00066 -0.000412098 0)
(1.00051 -0.00153838 0)
(1.00078 -0.00278202 0)
(1.00187 -0.00413349 0)
(1.00374 -0.00499485 0)
(1.0077 -0.00537388 0)
(1.0026 0.023623 0)
(1.02879 0.0288623 0)
(1.04378 0.0212161 0)
(1.04724 0.018287 0)
(1.04862 0.0168726 0)
(1.05048 0.0153105 0)
(1.05221 0.0140728 0)
(1.05352 0.0132179 0)
(1.05458 0.0125474 0)
(1.05548 0.0119702 0)
(1.05625 0.0114689 0)
(1.05689 0.0110317 0)
(1.05739 0.0106442 0)
(1.05774 0.0102947 0)
(1.05795 0.0099752 0)
(1.058 0.00967991 0)
(1.05791 0.00940452 0)
(1.05767 0.00914565 0)
(1.05728 0.00890059 0)
(1.05674 0.00866714 0)
(1.05607 0.00844345 0)
(1.05527 0.0082279 0)
(1.05435 0.00801901 0)
(1.05332 0.0078154 0)
(1.05218 0.00761575 0)
(1.05094 0.00741867 0)
(1.04963 0.00722275 0)
(1.04824 0.00702643 0)
(1.04678 0.00682798 0)
(1.04528 0.00662546 0)
(1.04374 0.00641653 0)
(1.04217 0.00619861 0)
(1.04058 0.00596835 0)
(1.039 0.00572213 0)
(1.03743 0.00545504 0)
(1.03588 0.00516195 0)
(1.03438 0.00483519 0)
(1.03295 0.00446842 0)
(1.03159 0.00404757 0)
(1.03035 0.00356927 0)
(1.02924 0.00300254 0)
(1.02829 0.00236033 0)
(1.02754 0.00157673 0)
(1.02704 0.000697864 0)
(1.0268 -0.000370531 0)
(1.02695 -0.00156946 0)
(1.02747 -0.00288578 0)
(1.02868 -0.00432893 0)
(1.03069 -0.00541293 0)
(1.03472 -0.0061234 0)
(1.0023 0.0217024 0)
(1.02634 0.0277548 0)
(1.04095 0.0207153 0)
(1.04463 0.0178754 0)
(1.04603 0.0166222 0)
(1.04787 0.0151648 0)
(1.04959 0.0139496 0)
(1.0509 0.0131055 0)
(1.05194 0.0124504 0)
(1.05285 0.0118865 0)
(1.05365 0.0113956 0)
(1.05436 0.0109679 0)
(1.05496 0.0105901 0)
(1.05548 0.0102507 0)
(1.05591 0.00994178 0)
(1.05626 0.00965757 0)
(1.05651 0.00939375 0)
(1.05668 0.00914684 0)
(1.05675 0.00891405 0)
(1.05674 0.00869305 0)
(1.05665 0.00848187 0)
(1.05647 0.00827877 0)
(1.05621 0.00808216 0)
(1.05586 0.00789055 0)
(1.05545 0.00770248 0)
(1.05496 0.00751648 0)
(1.05441 0.00733102 0)
(1.0538 0.00714443 0)
(1.05313 0.00695488 0)
(1.05242 0.00676033 0)
(1.05167 0.0065583 0)
(1.05089 0.00634608 0)
(1.05009 0.00612017 0)
(1.04927 0.00587677 0)
(1.04845 0.00561074 0)
(1.04765 0.00531672 0)
(1.04687 0.00498669 0)
(1.04612 0.00461399 0)
(1.04544 0.00418414 0)
(1.04482 0.00369283 0)
(1.04431 0.00310995 0)
(1.04391 0.00244393 0)
(1.04366 0.00163599 0)
(1.04361 0.000717005 0)
(1.04376 -0.000387024 0)
(1.04422 -0.00164598 0)
(1.045 -0.0030297 0)
(1.04638 -0.00455922 0)
(1.04854 -0.00586945 0)
(1.05265 -0.00695381 0)
(1.00203 0.019891 0)
(1.02402 0.0266342 0)
(1.03822 0.0202308 0)
(1.04211 0.0174651 0)
(1.04353 0.016357 0)
(1.04534 0.0150117 0)
(1.04706 0.0138245 0)
(1.04837 0.0129912 0)
(1.0494 0.0123514 0)
(1.05029 0.0118009 0)
(1.05109 0.0113194 0)
(1.05179 0.0108993 0)
(1.05242 0.0105285 0)
(1.05298 0.0101958 0)
(1.05348 0.00989336 0)
(1.05391 0.00961562 0)
(1.0543 0.00935833 0)
(1.05463 0.00911809 0)
(1.05491 0.00889212 0)
(1.05514 0.00867811 0)
(1.05532 0.00847408 0)
(1.05545 0.00827824 0)
(1.05553 0.00808896 0)
(1.05557 0.00790469 0)
(1.05556 0.0077239 0)
(1.05551 0.00754502 0)
(1.05541 0.00736645 0)
(1.05528 0.00718644 0)
(1.05511 0.00700303 0)
(1.05492 0.00681408 0)
(1.05469 0.006617 0)
(1.05444 0.00640894 0)
(1.05418 0.00618625 0)
(1.0539 0.00594495 0)
(1.05363 0.0056797 0)
(1.05336 0.00538492 0)
(1.05311 0.00505227 0)
(1.05289 0.00467479 0)
(1.05271 0.00423774 0)
(1.05259 0.00373577 0)
(1.05253 0.00313996 0)
(1.05258 0.00245418 0)
(1.05274 0.00162656 0)
(1.05305 0.000674363 0)
(1.05353 -0.000459683 0)
(1.05426 -0.00176871 0)
(1.05527 -0.00321605 0)
(1.05682 -0.00482975 0)
(1.05912 -0.00636665 0)
(1.06327 -0.00784824 0)
(1.00179 0.018189 0)
(1.02183 0.0255045 0)
(1.03558 0.0197586 0)
(1.03967 0.0170579 0)
(1.04113 0.0160779 0)
(1.0429 0.0148504 0)
(1.04462 0.013697 0)
(1.04593 0.0128749 0)
(1.04695 0.0122505 0)
(1.04783 0.0117139 0)
(1.04861 0.0112421 0)
(1.0493 0.0108294 0)
(1.04992 0.0104648 0)
(1.05048 0.0101377 0)
(1.05099 0.00984015 0)
(1.05144 0.00956686 0)
(1.05186 0.0093137 0)
(1.05224 0.00907737 0)
(1.05259 0.00885519 0)
(1.05291 0.0086449 0)
(1.0532 0.00844457 0)
(1.05347 0.00825245 0)
(1.0537 0.00806691 0)
(1.05392 0.00788639 0)
(1.05411 0.00770933 0)
(1.05427 0.00753416 0)
(1.05442 0.00735918 0)
(1.05455 0.0071826 0)
(1.05465 0.00700239 0)
(1.05475 0.00681631 0)
(1.05483 0.00662168 0)
(1.0549 0.00641554 0)
(1.05496 0.00619409 0)
(1.05503 0.00595322 0)
(1.05509 0.0056874 0)
(1.05517 0.00539085 0)
(1.05527 0.00505499 0)
(1.0554 0.00467253 0)
(1.05556 0.00422864 0)
(1.05578 0.00371682 0)
(1.05605 0.00310961 0)
(1.05641 0.00240644 0)
(1.05686 0.00156182 0)
(1.05744 0.000581153 0)
(1.05815 -0.000579754 0)
(1.05909 -0.0019317 0)
(1.06027 -0.0034406 0)
(1.06196 -0.00513926 0)
(1.06435 -0.00689939 0)
(1.06849 -0.00878632 0)
(1.00157 0.0165963 0)
(1.01979 0.0243695 0)
(1.03304 0.0192947 0)
(1.03732 0.0166556 0)
(1.03881 0.0157861 0)
(1.04055 0.0146801 0)
(1.04226 0.0135668 0)
(1.04358 0.0127564 0)
(1.04459 0.0121474 0)
(1.04546 0.0116254 0)
(1.04622 0.0111639 0)
(1.04691 0.0107587 0)
(1.04751 0.0104004 0)
(1.04806 0.0100786 0)
(1.04855 0.00978563 0)
(1.04901 0.00951617 0)
(1.04942 0.00926625 0)
(1.04981 0.00903269 0)
(1.05018 0.00881292 0)
(1.05052 0.00860476 0)
(1.05084 0.00840634 0)
(1.05115 0.00821598 0)
(1.05144 0.00803208 0)
(1.05173 0.0078531 0)
(1.052 0.0076775 0)
(1.05226 0.00750368 0)
(1.05251 0.00732993 0)
(1.05276 0.00715443 0)
(1.053 0.00697509 0)
(1.05324 0.00678962 0)
(1.05347 0.00659526 0)
(1.05371 0.00638896 0)
(1.05395 0.00616682 0)
(1.0542 0.0059246 0)
(1.05446 0.00565662 0)
(1.05474 0.00535693 0)
(1.05504 0.00501675 0)
(1.05537 0.00462848 0)
(1.05574 0.00417731 0)
(1.05616 0.0036556 0)
(1.05663 0.00303736 0)
(1.05718 0.00231801 0)
(1.05781 0.00145754 0)
(1.05855 0.000451531 0)
(1.05942 -0.00073496 0)
(1.06048 -0.00212545 0)
(1.06177 -0.00369523 0)
(1.06355 -0.00548179 0)
(1.06599 -0.00745819 0)
(1.07003 -0.00974623 0)
(1.00137 0.0151118 0)
(1.01788 0.0232333 0)
(1.03061 0.0188353 0)
(1.03505 0.0162596 0)
(1.0366 0.015483 0)
(1.03829 0.0145002 0)
(1.03999 0.0134334 0)
(1.04131 0.0126359 0)
(1.04232 0.012042 0)
(1.04318 0.0115352 0)
(1.04393 0.0110846 0)
(1.0446 0.0106873 0)
(1.0452 0.0103355 0)
(1.04573 0.0100192 0)
(1.04621 0.00973072 0)
(1.04665 0.00946498 0)
(1.04706 0.00921808 0)
(1.04744 0.00898696 0)
(1.0478 0.00876911 0)
(1.04814 0.00856246 0)
(1.04847 0.00836521 0)
(1.04878 0.00817571 0)
(1.04909 0.00799244 0)
(1.04939 0.00781388 0)
(1.04969 0.0076385 0)
(1.04998 0.00746471 0)
(1.05027 0.0072908 0)
(1.05056 0.00711493 0)
(1.05085 0.00693498 0)
(1.05115 0.00674862 0)
(1.05145 0.00655302 0)
(1.05177 0.00634506 0)
(1.05209 0.00612078 0)
(1.05242 0.0058758 0)
(1.05278 0.00560434 0)
(1.05315 0.00530029 0)
(1.05356 0.00495475 0)
(1.05399 0.00455976 0)
(1.05447 0.00410068 0)
(1.05499 0.00356871 0)
(1.05557 0.00293934 0)
(1.05622 0.00220431 0)
(1.05694 0.00132833 0)
(1.05777 0.000298913 0)
(1.05871 -0.000913013 0)
(1.05984 -0.00233963 0)
(1.06118 -0.00397007 0)
(1.06299 -0.00584875 0)
(1.06541 -0.0080317 0)
(1.0693 -0.0107062 0)
(1.0012 0.013734 0)
(1.0161 0.0220999 0)
(1.02829 0.0183766 0)
(1.03288 0.0158712 0)
(1.03447 0.0151704 0)
(1.03612 0.0143101 0)
(1.03781 0.0132964 0)
(1.03914 0.0125134 0)
(1.04014 0.0119342 0)
(1.04099 0.0114432 0)
(1.04173 0.0110042 0)
(1.04239 0.0106151 0)
(1.04297 0.01027 0)
(1.04349 0.0099593 0)
(1.04396 0.00967555 0)
(1.0444 0.00941362 0)
(1.04479 0.00916976 0)
(1.04516 0.00894102 0)
(1.04551 0.00872499 0)
(1.04584 0.00851967 0)
(1.04616 0.00832332 0)
(1.04647 0.00813437 0)
(1.04678 0.00795132 0)
(1.04707 0.00777269 0)
(1.04737 0.00759697 0)
(1.04767 0.0074226 0)
(1.04797 0.00724785 0)
(1.04827 0.00707086 0)
(1.04858 0.0068895 0)
(1.04889 0.0067014 0)
(1.04922 0.00650369 0)
(1.04955 0.00629318 0)
(1.0499 0.00606584 0)
(1.05027 0.00581721 0)
(1.05066 0.00554141 0)
(1.05107 0.00523218 0)
(1.05152 0.00488053 0)
(1.05199 0.00447817 0)
(1.05251 0.00401066 0)
(1.05308 0.0034681 0)
(1.0537 0.0028274 0)
(1.05438 0.00207699 0)
(1.05515 0.00118549 0)
(1.056 0.000133849 0)
(1.05697 -0.00110363 0)
(1.0581 -0.00256527 0)
(1.05945 -0.00425602 0)
(1.06124 -0.00623084 0)
(1.06361 -0.00860876 0)
(1.06727 -0.0116455 0)
(1.00104 0.0124605 0)
(1.01446 0.0209736 0)
(1.02608 0.0179152 0)
(1.03079 0.0154912 0)
(1.03244 0.0148502 0)
(1.03405 0.0141095 0)
(1.03572 0.0131554 0)
(1.03705 0.0123888 0)
(1.03806 0.0118242 0)
(1.03889 0.0113491 0)
(1.03962 0.0109224 0)
(1.04027 0.0105421 0)
(1.04084 0.0102038 0)
(1.04135 0.00989899 0)
(1.04181 0.00962009 0)
(1.04223 0.00936208 0)
(1.04262 0.00912135 0)
(1.04298 0.00889505 0)
(1.04332 0.00868085 0)
(1.04364 0.00847684 0)
(1.04395 0.00828134 0)
(1.04425 0.00809284 0)
(1.04454 0.00790987 0)
(1.04484 0.00773101 0)
(1.04513 0.00755475 0)
(1.04542 0.00737953 0)
(1.04571 0.00720364 0)
(1.04601 0.00702521 0)
(1.04632 0.00684207 0)
(1.04663 0.00665183 0)
(1.04696 0.00645158 0)
(1.0473 0.00623807 0)
(1.04765 0.00600722 0)
(1.04802 0.00575446 0)
(1.04842 0.00547386 0)
(1.04884 0.00515899 0)
(1.04929 0.00480084 0)
(1.04978 0.00439075 0)
(1.05031 0.00391455 0)
(1.05088 0.00336127 0)
(1.0515 0.00270915 0)
(1.05219 0.00194371 0)
(1.05295 0.00103675 0)
(1.0538 -3.64768e-05 0)
(1.05475 -0.0012995 0)
(1.05587 -0.00279581 0)
(1.05718 -0.00454601 0)
(1.05891 -0.00661939 0)
(1.0612 -0.00917912 0)
(1.06459 -0.0125457 0)
(1.0009 0.0112886 0)
(1.01295 0.0198589 0)
(1.02398 0.017448 0)
(1.02878 0.0151199 0)
(1.03051 0.0145244 0)
(1.03207 0.0138982 0)
(1.03372 0.0130097 0)
(1.03505 0.0122622 0)
(1.03606 0.0117118 0)
(1.03688 0.011253 0)
(1.0376 0.0108393 0)
(1.03824 0.0104681 0)
(1.0388 0.010137 0)
(1.0393 0.00983816 0)
(1.03975 0.00956428 0)
(1.04016 0.00931033 0)
(1.04054 0.00907283 0)
(1.04089 0.00884903 0)
(1.04122 0.00863672 0)
(1.04153 0.00843404 0)
(1.04183 0.00823941 0)
(1.04212 0.00805134 0)
(1.04241 0.00786844 0)
(1.04269 0.00768929 0)
(1.04297 0.00751242 0)
(1.04326 0.00733628 0)
(1.04354 0.00715914 0)
(1.04383 0.00697913 0)
(1.04413 0.00679407 0)
(1.04444 0.00660152 0)
(1.04476 0.00639855 0)
(1.04509 0.00618185 0)
(1.04544 0.00594729 0)
(1.04581 0.00569021 0)
(1.0462 0.00540462 0)
(1.04661 0.00508394 0)
(1.04706 0.00471914 0)
(1.04754 0.00430123 0)
(1.04806 0.00381631 0)
(1.04862 0.00325242 0)
(1.04923 0.00258895 0)
(1.0499 0.001809 0)
(1.05064 0.000886596 0)
(1.05146 -0.000206992 0)
(1.05238 -0.0014955 0)
(1.05345 -0.00302665 0)
(1.05472 -0.00483473 0)
(1.05636 -0.00700645 0)
(1.05851 -0.00973345 0)
(1.06161 -0.013391 0)
(1.00078 0.0102146 0)
(1.01157 0.0187601 0)
(1.022 0.0169723 0)
(1.02686 0.0147575 0)
(1.02866 0.0141952 0)
(1.03019 0.013676 0)
(1.03181 0.0128587 0)
(1.03314 0.0121336 0)
(1.03415 0.0115971 0)
(1.03496 0.0111546 0)
(1.03568 0.0107545 0)
(1.0363 0.010393 0)
(1.03686 0.0100693 0)
(1.03735 0.00977674 0)
(1.03779 0.00950804 0)
(1.03819 0.00925831 0)
(1.03856 0.00902414 0)
(1.0389 0.00880293 0)
(1.03922 0.00859256 0)
(1.03952 0.00839127 0)
(1.03981 0.00819752 0)
(1.04009 0.00800991 0)
(1.04037 0.00782707 0)
(1.04064 0.00764763 0)
(1.04092 0.00747013 0)
(1.04119 0.00729303 0)
(1.04147 0.00711461 0)
(1.04175 0.00693298 0)
(1.04204 0.00674595 0)
(1.04234 0.00655104 0)
(1.04265 0.00634529 0)
(1.04298 0.00612534 0)
(1.04332 0.00588702 0)
(1.04367 0.00562557 0)
(1.04405 0.00533496 0)
(1.04446 0.00500847 0)
(1.04489 0.00463706 0)
(1.04535 0.00421141 0)
(1.04585 0.0037179 0)
(1.0464 0.00314368 0)
(1.04699 0.0024691 0)
(1.04763 0.00167529 0)
(1.04834 0.000737684 0)
(1.04912 -0.000374963 0)
(1.05 -0.00168847 0)
(1.05102 -0.00325429 0)
(1.05222 -0.00511796 0)
(1.05375 -0.0073848 0)
(1.05574 -0.0102629 0)
(1.05851 -0.0141685 0)
(1.00067 0.00923456 0)
(1.01031 0.0176816 0)
(1.02013 0.0164858 0)
(1.02503 0.0144037 0)
(1.0269 0.0138645 0)
(1.0284 0.0134434 0)
(1.02998 0.0127018 0)
(1.03132 0.0120027 0)
(1.03233 0.0114801 0)
(1.03314 0.011054 0)
(1.03384 0.0106681 0)
(1.03446 0.0103168 0)
(1.035 0.0100008 0)
(1.03549 0.00971465 0)
(1.03592 0.00945132 0)
(1.03631 0.00920594 0)
(1.03667 0.00897522 0)
(1.037 0.00875669 0)
(1.03731 0.00854833 0)
(1.03761 0.00834846 0)
(1.03789 0.00815564 0)
(1.03816 0.00796851 0)
(1.03843 0.00778575 0)
(1.0387 0.00760602 0)
(1.03896 0.0074279 0)
(1.03923 0.00724983 0)
(1.0395 0.00707012 0)
(1.03977 0.00688686 0)
(1.04005 0.00669784 0)
(1.04034 0.00650056 0)
(1.04064 0.00629203 0)
(1.04096 0.00606883 0)
(1.04129 0.00582675 0)
(1.04163 0.00556097 0)
(1.042 0.0052654 0)
(1.04239 0.00493318 0)
(1.04281 0.00455529 0)
(1.04325 0.00412211 0)
(1.04374 0.00362025 0)
(1.04426 0.00303611 0)
(1.04482 0.00235081 0)
(1.04543 0.00154389 0)
(1.04611 0.00059177 0)
(1.04685 -0.000539193 0)
(1.04767 -0.00187663 0)
(1.04863 -0.00347605 0)
(1.04975 -0.00539209 0)
(1.05117 -0.007748 0)
(1.05297 -0.0107591 0)
(1.05539 -0.0148676 0)
(1.00058 0.0083438 0)
(1.00917 0.016628 0)
(1.01837 0.015987 0)
(1.02328 0.0140579 0)
(1.02523 0.0135344 0)
(1.0267 0.0132009 0)
(1.02825 0.0125383 0)
(1.02958 0.0118694 0)
(1.03059 0.011361 0)
(1.0314 0.0109509 0)
(1.03209 0.0105798 0)
(1.0327 0.0102393 0)
(1.03324 0.00993138 0)
(1.03371 0.00965182 0)
(1.03414 0.00939404 0)
(1.03452 0.00915317 0)
(1.03487 0.00892602 0)
(1.03519 0.00871025 0)
(1.0355 0.00850396 0)
(1.03578 0.00830558 0)
(1.03606 0.00811372 0)
(1.03633 0.00792709 0)
(1.03659 0.00774443 0)
(1.03684 0.00756443 0)
(1.0371 0.00738568 0)
(1.03736 0.00720666 0)
(1.03762 0.00702566 0)
(1.03789 0.00684077 0)
(1.03816 0.00664977 0)
(1.03844 0.00645013 0)
(1.03873 0.00623884 0)
(1.03903 0.00601242 0)
(1.03935 0.00576664 0)
(1.03969 0.00549658 0)
(1.04004 0.00519615 0)
(1.04042 0.00485835 0)
(1.04082 0.00447418 0)
(1.04125 0.00403374 0)
(1.04171 0.00352387 0)
(1.04221 0.00293033 0)
(1.04274 0.00223483 0)
(1.04332 0.00141566 0)
(1.04396 0.000449798 0)
(1.04465 -0.000698299 0)
(1.04543 -0.00205811 0)
(1.04631 -0.00368942 0)
(1.04735 -0.0056538 0)
(1.04862 -0.00809015 0)
(1.05022 -0.0112139 0)
(1.05228 -0.0154795 0)
(1.0005 0.00753729 0)
(1.00813 0.0156032 0)
(1.01672 0.0154748 0)
(1.02161 0.0137191 0)
(1.02364 0.0132066 0)
(1.02509 0.0129493 0)
(1.0266 0.0123677 0)
(1.02792 0.0117333 0)