/*--------------------------------*- C++ -*----------------------------------*\
  =========                 |
  \\      /  F ield         | OpenFOAM: The Open Source CFD Toolbox
   \\    /   O peration     | Website:  https://openfoam.org
    \\  /    A nd           | Version:  7
     \\/     M anipulation  |
\*---------------------------------------------------------------------------*/
FoamFile
{
    version     2.0;
    format      ascii;
    class       volVectorField;
    location    "0.28";
    object      U_0;
}
// * * * * * * * * * * * * * * * * * * * * * * * * * * * * * * * * * * * * * //

dimensions      [0 1 -1 0 0 0 0];

internalField   nonuniform List<vector> 
70000
(
(0.55339 0.0167231 0)
(0.251258 0.00340109 0)
(0.166191 0.000322092 0)
(0.132433 5.43336e-05 0)
(0.117231 4.57648e-05 0)
(0.107296 5.39354e-05 0)
(0.0993367 4.62945e-05 0)
(0.0928882 3.69459e-05 0)
(0.087638 3.06183e-05 0)
(0.0832664 2.62727e-05 0)
(0.0795453 2.29505e-05 0)
(0.0763266 2.02811e-05 0)
(0.073509 1.80954e-05 0)
(0.0710182 1.62809e-05 0)
(0.0687979 1.47534e-05 0)
(0.0668046 1.34506e-05 0)
(0.0650041 1.23264e-05 0)
(0.0633692 1.13433e-05 0)
(0.061878 1.04755e-05 0)
(0.0605126 9.6989e-06 0)
(0.0592584 8.99709e-06 0)
(0.0581034 8.3542e-06 0)
(0.0570374 7.75799e-06 0)
(0.0560523 7.19716e-06 0)
(0.0551412 6.66228e-06 0)
(0.0542984 6.14273e-06 0)
(0.0535194 5.63136e-06 0)
(0.0528004 5.11796e-06 0)
(0.0521388 4.59348e-06 0)
(0.0515326 4.05041e-06 0)
(0.0509808 3.47318e-06 0)
(0.0504829 2.85754e-06 0)
(0.0500398 2.17897e-06 0)
(0.0496526 1.43827e-06 0)
(0.0493241 5.90469e-07 0)
(0.0490579 -3.40291e-07 0)
(0.0488587 -1.45763e-06 0)
(0.0487335 -2.66061e-06 0)
(0.0486884 -4.10554e-06 0)
(0.0487374 -5.91799e-06 0)
(0.048883 -7.70206e-06 0)
(0.0491599 -9.83502e-06 0)
(0.0495345 -1.15352e-05 0)
(0.0501356 -1.57191e-05 0)
(0.0507299 -1.39296e-05 0)
(0.0518527 -2.43495e-05 0)
(0.0524425 -8.14728e-06 0)
(0.0544777 -3.5137e-05 0)
(0.0541022 6.46217e-05 0)
(0.0543615 -0.00202453 0)
(0.884899 0.0431676 0)
(0.64971 0.0201947 0)
(0.494296 0.00659954 0)
(0.40361 0.00276913 0)
(0.354651 0.00155367 0)
(0.323312 0.00113328 0)
(0.299419 0.000911945 0)
(0.280193 0.000747792 0)
(0.264459 0.000624619 0)
(0.251324 0.000533502 0)
(0.24014 0.000464225 0)
(0.230465 0.000409627 0)
(0.221991 0.000365445 0)
(0.214496 0.000329018 0)
(0.207811 0.000298531 0)
(0.201805 0.000272678 0)
(0.196375 0.000250495 0)
(0.19144 0.00023125 0)
(0.186935 0.000214384 0)
(0.182804 0.000199456 0)
(0.179005 0.000186118 0)
(0.1755 0.000174087 0)
(0.172259 0.00016313 0)
(0.169256 0.00015305 0)
(0.166471 0.000143678 0)
(0.163885 0.000134861 0)
(0.161484 0.000126464 0)
(0.159255 0.000118356 0)
(0.15719 0.000110406 0)
(0.15528 0.000102494 0)
(0.153521 9.44669e-05 0)
(0.151909 8.61983e-05 0)
(0.150444 7.74855e-05 0)
(0.149128 6.82077e-05 0)
(0.147964 5.80341e-05 0)
(0.14696 4.69144e-05 0)
(0.146125 3.42037e-05 0)
(0.145475 2.01781e-05 0)
(0.145023 3.56767e-06 0)
(0.144803 -1.41896e-05 0)
(0.14482 -3.79371e-05 0)
(0.145162 -6.28122e-05 0)
(0.145747 -9.39321e-05 0)
(0.146905 -0.000127996 0)
(0.148051 -0.000165818 0)
(0.150586 -0.000211845 0)
(0.15182 -0.000236894 0)
(0.156855 -0.00030555 0)
(0.156394 2.45839e-05 0)
(0.162402 -0.00279725 0)
(0.991238 0.0499018 0)
(0.890345 0.0307205 0)
(0.762661 0.014601 0)
(0.656612 0.007984 0)
(0.585237 0.0048898 0)
(0.535778 0.00347622 0)
(0.497857 0.00274046 0)
(0.467189 0.00224751 0)
(0.441834 0.00188348 0)
(0.420495 0.00161084 0)
(0.402228 0.00140229 0)
(0.386364 0.00123792 0)
(0.372428 0.00110502 0)
(0.360069 0.00099548 0)
(0.34902 0.000903814 0)
(0.339075 0.000826096 0)
(0.330068 0.000759434 0)
(0.321869 0.000701638 0)
(0.314371 0.000651034 0)
(0.307488 0.000606309 0)
(0.301146 0.000566423 0)
(0.295287 0.000530537 0)
(0.28986 0.00049796 0)
(0.284823 0.000468116 0)
(0.280141 0.000440514 0)
(0.275784 0.000414713 0)
(0.271726 0.000390332 0)
(0.267947 0.000367001 0)
(0.264429 0.00034437 0)
(0.26116 0.0003221 0)
(0.258129 0.000299806 0)
(0.255328 0.000277136 0)
(0.252755 0.000253593 0)
(0.250408 0.000228824 0)
(0.248291 0.000202039 0)
(0.24641 0.000173016 0)
(0.244778 0.000140246 0)
(0.243413 0.000104163 0)
(0.24233 6.15612e-05 0)
(0.241576 1.56185e-05 0)
(0.241154 -4.33137e-05 0)
(0.241186 -0.000106876 0)
(0.241553 -0.00019004 0)
(0.242726 -0.000272338 0)
(0.243876 -0.000387996 0)
(0.246986 -0.000486973 0)
(0.248346 -0.000615811 0)
(0.2549 -0.000743035 0)
(0.254549 -0.000396204 0)
(0.264548 -0.00269241 0)
(1.0156 0.0489207 0)
(1.00596 0.0358774 0)
(0.935936 0.0207971 0)
(0.852071 0.0135121 0)
(0.782078 0.00921696 0)
(0.726816 0.00679087 0)
(0.681667 0.00539283 0)
(0.643846 0.00445263 0)
(0.611772 0.00375729 0)
(0.584261 0.0032295 0)
(0.560381 0.00282107 0)
(0.539424 0.00249696 0)
(0.520863 0.00223376 0)
(0.504293 0.00201608 0)
(0.489397 0.00183339 0)
(0.475927 0.00167814 0)
(0.46368 0.00154472 0)
(0.452493 0.00142889 0)
(0.442231 0.00132737 0)
(0.432784 0.00123761 0)
(0.424059 0.00115756 0)
(0.415979 0.00108557 0)
(0.408477 0.00102029 0)
(0.401498 0.000960597 0)
(0.394995 0.000905522 0)
(0.388928 0.000854219 0)
(0.383263 0.000805946 0)
(0.377972 0.000760004 0)
(0.37303 0.000715732 0)
(0.368418 0.000672494 0)
(0.364122 0.000629595 0)
(0.360128 0.000586379 0)
(0.356431 0.000541973 0)
(0.353026 0.000495715 0)
(0.349916 0.000446238 0)
(0.347104 0.000393061 0)
(0.344601 0.000333628 0)
(0.342427 0.000268403 0)
(0.3406 0.000191992 0)
(0.339163 0.000107973 0)
(0.338127 4.5483e-06 0)
(0.33762 -0.000106544 0)
(0.337517 -0.000257009 0)
(0.338339 -0.000398171 0)
(0.339167 -0.000617685 0)
(0.342191 -0.000778937 0)
(0.343439 -0.00105268 0)
(0.350163 -0.00124658 0)
(0.350301 -0.000966017 0)
(0.360766 -0.00254796 0)
(1.01434 0.0460042 0)
(1.04753 0.0374915 0)
(1.02457 0.0241587 0)
(0.974722 0.01757 0)
(0.923362 0.0131357 0)
(0.876528 0.0102205 0)
(0.834295 0.00835681 0)
(0.796477 0.00703432 0)
(0.762849 0.00602206 0)
(0.732981 0.00523138 0)
(0.706364 0.00460575 0)
(0.682531 0.00410129 0)
(0.661083 0.00368675 0)
(0.641689 0.00334072 0)
(0.62407 0.00304813 0)
(0.607996 0.00279793 0)
(0.593273 0.00258183 0)
(0.579737 0.00239343 0)
(0.567253 0.00222775 0)
(0.555703 0.00208086 0)
(0.544989 0.00194958 0)
(0.535026 0.00183136 0)
(0.525743 0.00172406 0)
(0.517078 0.0016259 0)
(0.508978 0.00153539 0)
(0.501397 0.00145118 0)
(0.494295 0.0013721 0)
(0.48764 0.00129706 0)
(0.481403 0.00122503 0)
(0.475561 0.00115502 0)
(0.470095 0.00108597 0)
(0.46499 0.00101688 0)
(0.460236 0.00094644 0)
(0.455827 0.000873628 0)
(0.451762 0.00079645 0)
(0.448045 0.000714094 0)
(0.444684 0.000622924 0)
(0.441696 0.000523289 0)
(0.439101 0.000407637 0)
(0.436938 0.00028062 0)
(0.435227 0.000124388 0)
(0.43408 -4.00165e-05 0)
(0.433397 -0.000265932 0)
(0.433667 -0.000474459 0)
(0.434043 -0.000807867 0)
(0.436556 -0.00104732 0)
(0.437638 -0.00147056 0)
(0.443664 -0.00176368 0)
(0.44449 -0.00154525 0)
(0.453747 -0.00256366 0)
(1.00933 0.0429156 0)
(1.05528 0.0372669 0)
(1.05868 0.0253039 0)
(1.03635 0.019772 0)
(1.00704 0.0158283 0)
(0.975943 0.0129551 0)
(0.944351 0.0109795 0)
(0.913411 0.00949622 0)
(0.883983 0.00830305 0)
(0.856458 0.0073312 0)
(0.830923 0.00653628 0)
(0.80732 0.00587861 0)
(0.785529 0.00532712 0)
(0.765409 0.00485922 0)
(0.746815 0.00445825 0)
(0.729603 0.00411156 0)
(0.713645 0.00380934 0)
(0.698819 0.0035438 0)
(0.68502 0.00330876 0)
(0.672152 0.00309921 0)
(0.660131 0.00291107 0)
(0.648884 0.00274097 0)
(0.638344 0.00258612 0)
(0.628455 0.00244414 0)
(0.619166 0.00231298 0)
(0.610433 0.00219083 0)
(0.602218 0.00207611 0)
(0.594487 0.00196732 0)
(0.587212 0.00186305 0)
(0.58037 0.00176194 0)
(0.57394 0.00166256 0)
(0.567906 0.00156353 0)
(0.562259 0.00146309 0)
(0.556989 0.00135984 0)
(0.552097 0.00125114 0)
(0.547582 0.00113577 0)
(0.543456 0.0010091 0)
(0.539729 0.000871122 0)
(0.536429 0.000712464 0)
(0.53358 0.000538159 0)
(0.531221 0.000325541 0)
(0.529432 0.000100995 0)
(0.528163 -0.000202899 0)
(0.527809 -0.000486882 0)
(0.527706 -0.000933939 0)
(0.529513 -0.00127063 0)
(0.5304 -0.00183158 0)
(0.535378 -0.0022563 0)
(0.53677 -0.0020933 0)
(0.544584 -0.00265623 0)
(1.00625 0.0400341 0)
(1.05206 0.0363395 0)
(1.06609 0.0252335 0)
(1.05959 0.020573 0)
(1.04684 0.0172576 0)
(1.03072 0.0146788 0)
(1.01177 0.0128441 0)
(0.991022 0.0114185 0)
(0.969539 0.0102191 0)
(0.94806 0.00919884 0)
(0.927038 0.00833263 0)
(0.906741 0.00759318 0)
(0.88732 0.00695652 0)
(0.868848 0.00640416 0)
(0.851345 0.00592177 0)
(0.8348 0.00549794 0)
(0.819181 0.00512336 0)
(0.804444 0.00479035 0)
(0.790542 0.00449258 0)
(0.777425 0.00422477 0)
(0.765043 0.0039825 0)
(0.75335 0.00376204 0)
(0.742301 0.0035602 0)
(0.731856 0.00337424 0)
(0.721978 0.00320177 0)
(0.712633 0.00304064 0)
(0.70379 0.00288892 0)
(0.695422 0.00274479 0)
(0.687506 0.00260653 0)
(0.680022 0.00247245 0)
(0.672954 0.00234077 0)
(0.666288 0.00220976 0)
(0.660014 0.00207723 0)
(0.654127 0.00194137 0)
(0.648626 0.00179899 0)
(0.643512 0.00164833 0)
(0.638798 0.00148398 0)
(0.634491 0.00130524 0)
(0.630623 0.00110142 0)
(0.627208 0.000877162 0)
(0.624302 0.000606346 0)
(0.621951 0.000317442 0)
(0.620161 -6.50115e-05 0)
(0.619215 -0.000431239 0)
(0.618658 -0.000987022 0)
(0.61974 -0.00143667 0)
(0.620391 -0.0021219 0)
(0.624284 -0.00269736 0)
(0.626028 -0.00260014 0)
(0.632551 -0.00281092 0)
(1.00495 0.0373561 0)
(1.04727 0.0352575 0)
(1.06397 0.0246938 0)
(1.06425 0.0206 0)
(1.06066 0.017797 0)
(1.0547 0.0155242 0)
(1.04591 0.0139055 0)
(1.03466 0.0126458 0)
(1.02169 0.011558 0)
(1.00759 0.010601 0)
(0.992828 0.00976207 0)
(0.977772 0.00902431 0)
(0.962687 0.00837154 0)
(0.947773 0.00779104 0)
(0.93317 0.00727282 0)
(0.918972 0.00680855 0)
(0.905239 0.00639112 0)
(0.892006 0.00601437 0)
(0.879291 0.00567295 0)
(0.867098 0.00536224 0)
(0.855422 0.00507821 0)
(0.844254 0.00481733 0)
(0.83358 0.00457652 0)
(0.823385 0.00435304 0)
(0.813652 0.00414443 0)
(0.804365 0.00394843 0)
(0.795507 0.00376299 0)
(0.787064 0.0035861 0)
(0.779022 0.00341585 0)
(0.771369 0.00325031 0)
(0.764095 0.00308745 0)
(0.757194 0.00292523 0)
(0.75066 0.00276112 0)
(0.74449 0.00259292 0)
(0.738689 0.00241695 0)
(0.733258 0.00223089 0)
(0.728214 0.00202872 0)
(0.723561 0.00180881 0)
(0.719338 0.00155962 0)
(0.71555 0.00128476 0)
(0.712265 0.000955816 0)
(0.709506 0.000602065 0)
(0.707317 0.000141053 0)
(0.705896 -0.000311282 0)
(0.704954 -0.000968888 0)
(0.705399 -0.00154157 0)
(0.7058 -0.00233919 0)
(0.708715 -0.00307271 0)
(0.710614 -0.00306448 0)
(0.71613 -0.00303849 0)
(1.0044 0.0348082 0)
(1.04324 0.0341843 0)
(1.05994 0.0240529 0)
(1.06228 0.0203067 0)
(1.06248 0.0178619 0)
(1.06177 0.0158073 0)
(1.05917 0.014363 0)
(1.05459 0.0132697 0)
(1.04832 0.0123252 0)
(1.04069 0.011481 0)
(1.03198 0.0107267 0)
(1.02245 0.0100496 0)
(1.01233 0.00943723 0)
(1.00183 0.0088807 0)
(0.991119 0.00837335 0)
(0.980326 0.00790981 0)
(0.96956 0.00748541 0)
(0.958903 0.00709593 0)
(0.948418 0.00673758 0)
(0.93815 0.00640692 0)
(0.928133 0.00610083 0)
(0.918391 0.00581647 0)
(0.90894 0.00555123 0)
(0.89979 0.00530274 0)
(0.890947 0.00506876 0)
(0.882413 0.00484721 0)
(0.874191 0.00463608 0)
(0.866279 0.00443341 0)
(0.858676 0.00423721 0)
(0.851382 0.00404548 0)
(0.844396 0.00385602 0)
(0.837718 0.00366661 0)
(0.831351 0.00347446 0)
(0.825297 0.00327701 0)
(0.819565 0.00307025 0)
(0.814161 0.00285123 0)
(0.809105 0.00261353 0)
(0.804402 0.00235447 0)
(0.800095 0.002062 0)
(0.796186 0.00173826 0)
(0.792746 0.00135362 0)
(0.789791 0.000936264 0)
(0.78738 0.000400754 0)
(0.785658 -0.000139078 0)
(0.78445 -0.000890208 0)
(0.784406 -0.00158983 0)
(0.784592 -0.00249035 0)
(0.786714 -0.00337776 0)
(0.788615 -0.00349298 0)
(0.793434 -0.00334717 0)
(1.00402 0.0323681 0)
(1.03991 0.0331343 0)
(1.05616 0.02343 0)
(1.05892 0.0199189 0)
(1.06021 0.0177323 0)
(1.06155 0.0158129 0)
(1.0619 0.0144706 0)
(1.06098 0.0134931 0)
(1.05887 0.0126656 0)
(1.0557 0.0119282 0)
(1.05155 0.0112676 0)
(1.04653 0.0106707 0)
(1.04079 0.010125 0)
(1.03444 0.00962223 0)
(1.02761 0.00915684 0)
(1.02042 0.00872488 0)
(1.01296 0.00832311 0)
(1.00533 0.00794871 0)
(0.997603 0.00759915 0)
(0.989833 0.00727208 0)
(0.982075 0.00696531 0)
(0.974372 0.00667678 0)
(0.966756 0.00640453 0)
(0.959258 0.00614668 0)
(0.951899 0.00590143 0)
(0.944697 0.00566696 0)
(0.937668 0.00544153 0)
(0.930823 0.0052233 0)
(0.924175 0.00501039 0)
(0.917731 0.00480081 0)
(0.9115 0.00459232 0)
(0.905492 0.0043826 0)
(0.899715 0.00416869 0)
(0.894178 0.00394775 0)
(0.888896 0.00371554 0)
(0.883878 0.00346852 0)
(0.879148 0.00320001 0)
(0.874714 0.00290626 0)
(0.870619 0.00257489 0)
(0.866869 0.00220655 0)
(0.863531 0.00177081 0)
(0.860623 0.00129385 0)
(0.858202 0.00069046 0)
(0.856388 6.59344e-05 0)
(0.855079 -0.00076976 0)
(0.85473 -0.00159406 0)
(0.854777 -0.00259065 0)
(0.856331 -0.00361936 0)
(0.858166 -0.00389417 0)
(0.862534 -0.00373654 0)
(1.00364 0.0300277 0)
(1.03692 0.0320868 0)
(1.05282 0.0228404 0)
(1.05568 0.019514 0)
(1.05711 0.017541 0)
(1.059 0.0157139 0)
(1.06043 0.0144197 0)
(1.0611 0.0135061 0)
(1.06107 0.0127531 0)
(1.06037 0.0120909 0)
(1.05901 0.0115035 0)
(1.05699 0.0109762 0)
(1.05437 0.0104951 0)
(1.05118 0.0100506 0)
(1.04749 0.00963669 0)
(1.04337 0.00924925 0)
(1.03889 0.00888529 0)
(1.0341 0.00854241 0)
(1.02906 0.00821862 0)
(1.02383 0.00791213 0)
(1.01846 0.00762133 0)
(1.01299 0.00734469 0)
(1.00746 0.00708073 0)
(1.00189 0.00682802 0)
(0.996329 0.0065851 0)
(0.990791 0.00635049 0)
(0.9853 0.00612267 0)
(0.979876 0.00590001 0)
(0.974537 0.00568075 0)
(0.969299 0.00546297 0)
(0.964176 0.00524448 0)
(0.959185 0.00502288 0)
(0.954338 0.00479513 0)
(0.94965 0.00455819 0)
(0.945139 0.00430761 0)
(0.940819 0.00403937 0)
(0.936715 0.00374656 0)
(0.932839 0.00342452 0)
(0.929232 0.00306054 0)
(0.925906 0.00265393 0)
(0.922919 0.00217371 0)
(0.920295 0.00164355 0)
(0.918084 0.000980332 0)
(0.916389 0.000277914 0)
(0.915157 -0.000632564 0)
(0.914704 -0.00157323 0)
(0.914718 -0.00266065 0)
(0.915931 -0.00381524 0)
(0.917716 -0.00427608 0)
(0.921816 -0.0042178 0)
(1.00327 0.0277879 0)
(1.03409 0.0310282 0)
(1.0497 0.0222773 0)
(1.05272 0.0191071 0)
(1.05411 0.0173308 0)
(1.05606 0.0155858 0)
(1.05776 0.0143141 0)
(1.05895 0.0134314 0)
(1.05973 0.0127199 0)
(1.06015 0.012102 0)
(1.06018 0.0115605 0)
(1.05981 0.0110807 0)
(1.05903 0.0106473 0)
(1.05785 0.0102495 0)
(1.05628 0.00988011 0)
(1.05435 0.00953442 0)
(1.05208 0.00920891 0)
(1.04952 0.00890092 0)
(1.04668 0.00860835 0)
(1.04361 0.00832948 0)
(1.04034 0.0080628 0)
(1.0369 0.00780696 0)
(1.03332 0.00756068 0)
(1.02963 0.00732271 0)
(1.02585 0.0070918 0)
(1.02201 0.00686665 0)
(1.01813 0.0066459 0)
(1.01423 0.00642802 0)
(1.01033 0.00621138 0)
(1.00645 0.00599411 0)
(1.0026 0.005774 0)
(0.998809 0.00554865 0)
(0.995084 0.00531494 0)
(0.991443 0.00506963 0)
(0.987906 0.00480812 0)
(0.984489 0.00452598 0)
(0.981217 0.00421607 0)
(0.978106 0.00387299 0)
(0.975191 0.00348362 0)
(0.97249 0.00304623 0)
(0.97005 0.00252945 0)
(0.967902 0.00195389 0)
(0.966087 0.00124068 0)
(0.964692 0.000468684 0)
(0.9637 -0.000505868 0)
(0.963329 -0.00154966 0)
(0.963425 -0.00272258 0)
(0.964498 -0.00398858 0)
(0.966299 -0.00465419 0)
(0.970276 -0.00479801 0)
(1.00292 0.0256521 0)
(1.03138 0.0299538 0)
(1.0467 0.0217363 0)
(1.04993 0.0186982 0)
(1.0513 0.0171086 0)
(1.0532 0.0154505 0)
(1.05493 0.0141948 0)
(1.05624 0.0133284 0)
(1.05726 0.0126407 0)
(1.05807 0.0120476 0)
(1.05867 0.0115316 0)
(1.05904 0.0110793 0)
(1.05917 0.0106753 0)
(1.05905 0.0103081 0)
(1.05868 0.0099698 0)
(1.05807 0.00965506 0)
(1.05721 0.0093598 0)
(1.05613 0.00908091 0)
(1.05482 0.00881598 0)
(1.05331 0.00856304 0)
(1.05162 0.00832043 0)
(1.04976 0.00808671 0)
(1.04775 0.00786055 0)
(1.0456 0.00764069 0)
(1.04334 0.00742589 0)
(1.04098 0.00721486 0)
(1.03854 0.00700627 0)
(1.03604 0.00679862 0)
(1.03349 0.00659027 0)
(1.03091 0.00637934 0)
(1.0283 0.0061636 0)
(1.0257 0.00594056 0)
(1.02311 0.00570703 0)
(1.02055 0.00545956 0)
(1.01804 0.00519341 0)
(1.0156 0.00490379 0)
(1.01323 0.00458329 0)
(1.01098 0.00422596 0)
(1.00885 0.00381822 0)
(1.00688 0.00335741 0)
(1.00509 0.00281216 0)
(1.00354 0.00219939 0)
(1.00224 0.0014461 0)
(1.00126 0.00061465 0)
(1.00062 -0.000413372 0)
(1.00048 -0.00154497 0)
(1.00075 -0.00279733 0)
(1.00184 -0.00416355 0)
(1.00373 -0.00504675 0)
(1.0077 -0.00546452 0)
(1.0026 0.023623 0)
(1.02879 0.0288624 0)
(1.04378 0.0212162 0)
(1.04724 0.0182872 0)
(1.04862 0.0168729 0)
(1.05048 0.0153109 0)
(1.05221 0.0140731 0)
(1.05352 0.0132182 0)
(1.05458 0.0125477 0)
(1.05548 0.0119704 0)
(1.05625 0.0114691 0)
(1.05689 0.0110319 0)
(1.05738 0.0106444 0)
(1.05773 0.0102948 0)
(1.05794 0.00997528 0)
(1.058 0.00967996 0)
(1.0579 0.00940457 0)
(1.05766 0.0091457 0)
(1.05727 0.00890067 0)
(1.05674 0.00866726 0)
(1.05607 0.00844363 0)
(1.05527 0.00822815 0)
(1.05435 0.00801935 0)
(1.05331 0.00781585 0)
(1.05217 0.00761632 0)
(1.05094 0.00741939 0)
(1.04962 0.00722363 0)
(1.04823 0.0070275 0)
(1.04677 0.00682927 0)
(1.04527 0.00662699 0)
(1.04373 0.00641834 0)
(1.04216 0.00620072 0)
(1.04057 0.0059708 0)
(1.03899 0.00572496 0)
(1.03741 0.00545826 0)
(1.03587 0.0051656 0)
(1.03437 0.00483928 0)
(1.03293 0.00447292 0)
(1.03157 0.00405246 0)
(1.03033 0.00357439 0)
(1.02921 0.00300774 0)
(1.02826 0.00236519 0)
(1.02751 0.00158068 0)
(1.02701 0.00070001 0)
(1.02677 -0.000371816 0)
(1.02693 -0.00157632 0)
(1.02745 -0.00290177 0)
(1.02866 -0.0043602 0)
(1.03068 -0.00546703 0)
(1.03471 -0.00621806 0)
(1.0023 0.0217024 0)
(1.02634 0.0277549 0)
(1.04095 0.0207155 0)
(1.04463 0.0178756 0)
(1.04603 0.0166225 0)
(1.04786 0.0151652 0)
(1.04959 0.01395 0)
(1.0509 0.0131058 0)
(1.05194 0.0124507 0)
(1.05285 0.0118868 0)
(1.05365 0.0113959 0)
(1.05435 0.0109681 0)
(1.05496 0.0105903 0)
(1.05548 0.0102509 0)
(1.05591 0.0099419 0)
(1.05625 0.00965767 0)
(1.0565 0.00939383 0)
(1.05667 0.00914693 0)
(1.05675 0.00891415 0)
(1.05674 0.00869319 0)
(1.05664 0.00848206 0)
(1.05646 0.00827903 0)
(1.0562 0.00808252 0)
(1.05586 0.00789102 0)
(1.05544 0.00770308 0)
(1.05495 0.00751723 0)
(1.0544 0.00733194 0)
(1.05379 0.00714556 0)
(1.05312 0.00695624 0)
(1.05241 0.00676194 0)
(1.05166 0.0065602 0)
(1.05088 0.00634831 0)
(1.05007 0.00612275 0)
(1.04926 0.00587975 0)
(1.04844 0.00561415 0)
(1.04763 0.00532058 0)
(1.04685 0.00499101 0)
(1.04611 0.00461874 0)
(1.04542 0.0041893 0)
(1.0448 0.00369823 0)
(1.04428 0.00311542 0)
(1.04389 0.00244904 0)
(1.04364 0.00164014 0)
(1.04358 0.000719267 0)
(1.04373 -0.000388321 0)
(1.0442 -0.00165306 0)
(1.04498 -0.00304623 0)
(1.04636 -0.00459146 0)
(1.04853 -0.00592511 0)
(1.05263 -0.00705098 0)
(1.00203 0.019891 0)
(1.02402 0.0266344 0)
(1.03822 0.020231 0)
(1.04211 0.0174653 0)
(1.04353 0.0163573 0)
(1.04534 0.0150121 0)
(1.04706 0.0138249 0)
(1.04837 0.0129916 0)
(1.0494 0.0123518 0)
(1.05029 0.0118013 0)
(1.05108 0.0113197 0)
(1.05179 0.0108996 0)
(1.05242 0.0105288 0)
(1.05298 0.010196 0)
(1.05347 0.00989353 0)
(1.05391 0.00961575 0)
(1.05429 0.00935845 0)
(1.05462 0.0091182 0)
(1.0549 0.00889224 0)
(1.05513 0.00867827 0)
(1.05531 0.00847429 0)
(1.05544 0.00827852 0)
(1.05553 0.00808934 0)
(1.05556 0.00790518 0)
(1.05555 0.00772452 0)
(1.0555 0.00754581 0)
(1.05541 0.00736742 0)
(1.05527 0.00718762 0)
(1.05511 0.00700445 0)
(1.05491 0.00681578 0)
(1.05468 0.006619 0)
(1.05443 0.00641128 0)
(1.05417 0.00618897 0)
(1.05389 0.00594808 0)
(1.05361 0.00568328 0)
(1.05335 0.00538897 0)
(1.05309 0.0050568 0)
(1.05287 0.00467977 0)
(1.05269 0.00424314 0)
(1.05256 0.00374141 0)
(1.05251 0.00314567 0)
(1.05256 0.00245952 0)
(1.05271 0.00163088 0)
(1.05303 0.000676733 0)
(1.0535 -0.000460975 0)
(1.05424 -0.00177596 0)
(1.05525 -0.00323293 0)
(1.0568 -0.00486267 0)
(1.0591 -0.00642329 0)
(1.06325 -0.00794641 0)
(1.00179 0.0181891 0)
(1.02183 0.0255046 0)
(1.03558 0.0197588 0)
(1.03967 0.0170582 0)
(1.04113 0.0160783 0)
(1.0429 0.0148508 0)
(1.04461 0.0136975 0)
(1.04593 0.0128753 0)
(1.04695 0.0122509 0)
(1.04783 0.0117143 0)
(1.04861 0.0112425 0)
(1.0493 0.0108297 0)
(1.04992 0.0104651 0)
(1.05048 0.0101379 0)
(1.05098 0.00984036 0)
(1.05144 0.00956704 0)
(1.05186 0.00931385 0)
(1.05224 0.00907751 0)
(1.05259 0.00885533 0)
(1.0529 0.00864508 0)
(1.05319 0.0084448 0)
(1.05346 0.00825275 0)
(1.0537 0.00806731 0)
(1.05391 0.0078869 0)
(1.0541 0.00770999 0)
(1.05427 0.00753498 0)
(1.05441 0.0073602 0)
(1.05454 0.00718384 0)
(1.05465 0.00700388 0)
(1.05474 0.00681809 0)
(1.05482 0.00662378 0)
(1.05489 0.00641799 0)
(1.05495 0.00619694 0)
(1.05501 0.0059565 0)
(1.05508 0.00569115 0)
(1.05516 0.00539509 0)
(1.05526 0.00505972 0)
(1.05538 0.00467773 0)
(1.05554 0.00423426 0)
(1.05576 0.0037227 0)
(1.05603 0.00311553 0)
(1.05639 0.00241198 0)
(1.05683 0.00156631 0)
(1.05741 0.000583631 0)
(1.05813 -0.000581003 0)
(1.05906 -0.00193904 0)
(1.06024 -0.00345765 0)
(1.06194 -0.00517251 0)
(1.06433 -0.00695643 0)
(1.06846 -0.00888414 0)
(1.00157 0.0165964 0)
(1.01979 0.0243696 0)
(1.03304 0.0192949 0)
(1.03732 0.0166559 0)
(1.03881 0.0157865 0)
(1.04055 0.0146805 0)
(1.04226 0.0135672 0)
(1.04357 0.0127569 0)
(1.04459 0.0121479 0)
(1.04546 0.0116259 0)
(1.04622 0.0111643 0)
(1.0469 0.0107591 0)
(1.04751 0.0104008 0)
(1.04805 0.0100789 0)
(1.04855 0.00978589 0)
(1.049 0.00951638 0)
(1.04942 0.00926643 0)
(1.04981 0.00903286 0)
(1.05017 0.00881309 0)
(1.05051 0.00860496 0)
(1.05084 0.00840659 0)
(1.05114 0.00821631 0)
(1.05144 0.0080325 0)
(1.05172 0.00785365 0)
(1.05199 0.00767819 0)
(1.05225 0.00750454 0)
(1.0525 0.00733099 0)
(1.05275 0.00715572 0)
(1.05299 0.00697665 0)
(1.05323 0.00679148 0)
(1.05346 0.00659746 0)
(1.0537 0.00639153 0)
(1.05394 0.0061698 0)
(1.05419 0.00592803 0)
(1.05445 0.00566053 0)
(1.05472 0.00536135 0)
(1.05502 0.00502168 0)
(1.05535 0.00463389 0)
(1.05572 0.00418315 0)
(1.05614 0.00366171 0)
(1.05661 0.00304351 0)
(1.05716 0.00232376 0)
(1.05779 0.00146221 0)
(1.05853 0.000454139 0)
(1.0594 -0.000736111 0)
(1.06046 -0.0021328 0)
(1.06175 -0.00371227 0)
(1.06353 -0.00551502 0)
(1.06596 -0.00751506 0)
(1.07 -0.00984251 0)
(1.00137 0.0151119 0)
(1.01788 0.0232334 0)
(1.03061 0.0188355 0)
(1.03505 0.01626 0)
(1.0366 0.0154834 0)
(1.03829 0.0145006 0)
(1.03999 0.0134339 0)
(1.04131 0.0126364 0)
(1.04232 0.0120425 0)
(1.04317 0.0115357 0)
(1.04393 0.0110851 0)
(1.0446 0.0106878 0)
(1.04519 0.0103359 0)
(1.04572 0.0100195 0)
(1.04621 0.00973103 0)
(1.04665 0.00946524 0)
(1.04706 0.0092183 0)
(1.04744 0.00898716 0)
(1.0478 0.00876931 0)
(1.04814 0.00856269 0)
(1.04846 0.00836548 0)
(1.04878 0.00817606 0)
(1.04908 0.00799289 0)
(1.04938 0.00781445 0)
(1.04968 0.00763922 0)
(1.04997 0.00746561 0)
(1.05026 0.00729192 0)
(1.05055 0.00711629 0)
(1.05085 0.00693661 0)
(1.05114 0.00675056 0)
(1.05145 0.00655531 0)
(1.05176 0.00634774 0)
(1.05208 0.00612389 0)
(1.05241 0.00587938 0)
(1.05276 0.00560842 0)
(1.05314 0.00530489 0)
(1.05354 0.00495988 0)
(1.05397 0.00456539 0)
(1.05445 0.00410674 0)
(1.05497 0.00357504 0)
(1.05555 0.0029457 0)
(1.05619 0.00221028 0)
(1.05692 0.00133319 0)
(1.05774 0.000301682 0)
(1.05869 -0.000914004 0)
(1.05981 -0.00234688 0)
(1.06115 -0.00398694 0)
(1.06296 -0.00588157 0)
(1.06538 -0.00808781 0)
(1.06925 -0.0108 0)
(1.0012 0.013734 0)
(1.0161 0.0221 0)
(1.02829 0.0183768 0)
(1.03288 0.0158716 0)
(1.03447 0.0151708 0)
(1.03612 0.0143106 0)
(1.03781 0.013297 0)
(1.03913 0.0125139 0)
(1.04014 0.0119348 0)
(1.04098 0.0114437 0)
(1.04173 0.0110047 0)
(1.04238 0.0106157 0)
(1.04297 0.0102705 0)
(1.04349 0.00995971 0)
(1.04396 0.00967591 0)
(1.04439 0.00941392 0)
(1.04479 0.00917002 0)
(1.04516 0.00894125 0)
(1.04551 0.00872522 0)
(1.04584 0.00851992 0)
(1.04616 0.00832361 0)
(1.04647 0.00813474 0)
(1.04677 0.00795179 0)
(1.04707 0.00777329 0)
(1.04736 0.00759774 0)
(1.04766 0.00742355 0)
(1.04796 0.00724901 0)
(1.04826 0.00707228 0)
(1.04857 0.0068912 0)
(1.04888 0.00670342 0)
(1.04921 0.00650608 0)
(1.04954 0.00629598 0)
(1.04989 0.00606909 0)
(1.05026 0.00582094 0)
(1.05065 0.00554566 0)
(1.05106 0.00523697 0)
(1.0515 0.00488586 0)
(1.05198 0.00448401 0)
(1.05249 0.00401695 0)
(1.05306 0.00347467 0)
(1.05368 0.002834 0)
(1.05436 0.00208319 0)
(1.05512 0.00119058 0)
(1.05598 0.000136827 0)
(1.05694 -0.00110438 0)
(1.05808 -0.00257226 0)
(1.05942 -0.00427253 0)
(1.0612 -0.00626289 0)
(1.06357 -0.0086635 0)
(1.06722 -0.0117358 0)
(1.00104 0.0124606 0)
(1.01446 0.0209738 0)
(1.02608 0.0179155 0)
(1.03079 0.0154915 0)
(1.03244 0.0148506 0)
(1.03405 0.0141101 0)
(1.03572 0.013156 0)
(1.03705 0.0123894 0)
(1.03805 0.0118248 0)
(1.03889 0.0113497 0)
(1.03962 0.010923 0)
(1.04026 0.0105427 0)
(1.04084 0.0102044 0)
(1.04135 0.00989946 0)
(1.04181 0.00962049 0)
(1.04223 0.00936243 0)
(1.04261 0.00912165 0)
(1.04297 0.00889531 0)
(1.04331 0.0086811 0)
(1.04363 0.00847711 0)
(1.04394 0.00828166 0)
(1.04424 0.00809323 0)
(1.04454 0.00791037 0)
(1.04483 0.00773164 0)
(1.04512 0.00755555 0)
(1.04541 0.00738053 0)
(1.0457 0.00720486 0)
(1.046 0.00702669 0)
(1.04631 0.00684385 0)
(1.04662 0.00665395 0)
(1.04695 0.00645407 0)
(1.04729 0.00624098 0)
(1.04764 0.0060106 0)
(1.04801 0.00575835 0)
(1.04841 0.00547829 0)
(1.04883 0.00516397 0)
(1.04928 0.00480638 0)
(1.04976 0.00439682 0)
(1.05029 0.00392108 0)
(1.05086 0.00336809 0)
(1.05148 0.002716 0)
(1.05217 0.00195017 0)
(1.05293 0.0010421 0)
(1.05377 -3.32517e-05 0)
(1.05473 -0.00129993 0)
(1.05584 -0.00280241 0)
(1.05715 -0.00456194 0)
(1.05888 -0.00665031 0)
(1.06115 -0.00923184 0)
(1.06452 -0.0126316 0)
(1.0009 0.0112886 0)
(1.01295 0.019859 0)
(1.02398 0.0174483 0)
(1.02878 0.0151203 0)
(1.0305 0.0145249 0)
(1.03207 0.0138987 0)
(1.03372 0.0130104 0)
(1.03505 0.0122629 0)
(1.03606 0.0117124 0)
(1.03688 0.0112537 0)
(1.0376 0.0108399 0)
(1.03824 0.0104687 0)
(1.0388 0.0101376 0)
(1.0393 0.00983868 0)
(1.03975 0.00956473 0)
(1.04016 0.00931072 0)
(1.04053 0.00907316 0)
(1.04088 0.00884933 0)
(1.04121 0.008637 0)
(1.04152 0.00843434 0)
(1.04183 0.00823975 0)
(1.04212 0.00805176 0)
(1.0424 0.00786897 0)
(1.04268 0.00768996 0)
(1.04297 0.00751326 0)
(1.04325 0.00733731 0)
(1.04353 0.00716041 0)
(1.04383 0.00698067 0)
(1.04412 0.00679592 0)
(1.04443 0.00660373 0)
(1.04475 0.00640115 0)
(1.04508 0.00618489 0)
(1.04543 0.00595081 0)
(1.0458 0.00569426 0)
(1.04619 0.00540922 0)
(1.0466 0.00508912 0)
(1.04704 0.00472491 0)
(1.04752 0.00430754 0)
(1.04804 0.00382309 0)
(1.0486 0.00325951 0)
(1.04921 0.00259608 0)
(1.04988 0.00181574 0)
(1.05061 0.000892255 0)
(1.05143 -0.000203442 0)
(1.05235 -0.00149552 0)
(1.05342 -0.00303269 0)
(1.05469 -0.00484986 0)
(1.05632 -0.00703589 0)
(1.05846 -0.00978356 0)
(1.06153 -0.0134718 0)
(1.00078 0.0102147 0)
(1.01157 0.0187602 0)
(1.022 0.0169726 0)
(1.02686 0.0147579 0)
(1.02866 0.0141957 0)
(1.03019 0.0136766 0)
(1.03181 0.0128594 0)
(1.03314 0.0121343 0)
(1.03415 0.0115978 0)
(1.03496 0.0111554 0)
(1.03567 0.0107552 0)
(1.0363 0.0103937 0)
(1.03685 0.01007 0)
(1.03735 0.00977731 0)
(1.03779 0.00950855 0)
(1.03819 0.00925874 0)
(1.03855 0.00902451 0)
(1.03889 0.00880326 0)
(1.03921 0.00859287 0)
(1.03951 0.00839159 0)
(1.03981 0.00819788 0)
(1.04009 0.00801035 0)
(1.04036 0.00782763 0)
(1.04064 0.00764833 0)
(1.04091 0.00747101 0)
(1.04119 0.00729411 0)
(1.04146 0.00711594 0)
(1.04174 0.00693459 0)
(1.04203 0.00674788 0)
(1.04233 0.00655334 0)
(1.04264 0.006348 0)
(1.04297 0.00612851 0)
(1.0433 0.00589068 0)
(1.04366 0.00562978 0)
(1.04404 0.00533975 0)
(1.04444 0.00501385 0)
(1.04487 0.00464305 0)
(1.04534 0.00421796 0)
(1.04584 0.00372494 0)
(1.04638 0.00315105 0)
(1.04697 0.00247652 0)
(1.04761 0.00168235 0)
(1.04831 0.000743703 0)
(1.0491 -0.000370994 0)
(1.04997 -0.00168798 0)
(1.05099 -0.00325962 0)
(1.05218 -0.00513203 0)
(1.05371 -0.00741242 0)
(1.05569 -0.0103098 0)
(1.05843 -0.0142434 0)
(1.00067 0.00923462 0)
(1.01031 0.0176818 0)
(1.02013 0.0164861 0)
(1.02503 0.0144041 0)
(1.0269 0.0138651 0)
(1.0284 0.0134441 0)
(1.02998 0.0127025 0)
(1.03132 0.0120035 0)
(1.03232 0.0114809 0)
(1.03313 0.0110547 0)
(1.03384 0.0106689 0)
(1.03445 0.0103175 0)
(1.035 0.0100015 0)
(1.03548 0.00971528 0)
(1.03591 0.00945188 0)
(1.0363 0.00920642 0)
(1.03666 0.00897563 0)
(1.03699 0.00875705 0)
(1.0373 0.00854866 0)
(1.0376 0.00834881 0)
(1.03788 0.00815602 0)
(1.03816 0.00796897 0)
(1.03842 0.00778633 0)
(1.03869 0.00760675 0)
(1.03895 0.0074288 0)
(1.03922 0.00725096 0)
(1.03949 0.00707151 0)
(1.03976 0.00688854 0)
(1.04004 0.00669986 0)
(1.04033 0.00650296 0)
(1.04063 0.00629486 0)
(1.04095 0.00607212 0)
(1.04127 0.00583057 0)
(1.04162 0.00556535 0)
(1.04199 0.00527038 0)
(1.04238 0.00493877 0)
(1.04279 0.00456151 0)
(1.04324 0.00412892 0)
(1.04372 0.00362757 0)
(1.04424 0.00304378 0)
(1.0448 0.00235857 0)
(1.04541 0.00155131 0)
(1.04608 0.000598201 0)
(1.04682 -0.000534739 0)
(1.04764 -0.00187552 0)
(1.04859 -0.00348049 0)
(1.04971 -0.00540485 0)
(1.05112 -0.00777342 0)
(1.05291 -0.0108022 0)
(1.0553 -0.0149359 0)
(1.00058 0.00834386 0)
(1.00917 0.0166281 0)
(1.01837 0.0159873 0)
(1.02328 0.0140583 0)
(1.02523 0.013535 0)
(1.0267 0.0132016 0)
(1.02825 0.012539 0)
(1.02958 0.0118702 0)
(1.03059 0.0113618 0)
(1.03139 0.0109517 0)
(1.03209 0.0105806 0)
(1.0327 0.0102401 0)
(1.03323 0.00993214 0)
(1.03371 0.00965251 0)
(1.03413 0.00939465 0)
(1.03452 0.00915369 0)
(1.03487 0.00892647 0)
(1.03519 0.00871064 0)
(1.03549 0.00850433 0)
(1.03578 0.00830595 0)
(1.03605 0.00811413 0)
(1.03632 0.00792758 0)
(1.03658 0.00774504 0)
(1.03684 0.00756519 0)
(1.03709 0.00738663 0)
(1.03735 0.00720783 0)
(1.03761 0.0070271 0)
(1.03788 0.00684252 0)
(1.03815 0.00665187 0)
(1.03843 0.00645263 0)
(1.03872 0.00624178 0)
(1.03902 0.00601584 0)
(1.03934 0.0057706 0)
(1.03968 0.00550114 0)
(1.04003 0.00520133 0)
(1.04041 0.00486416 0)
(1.04081 0.00448064 0)
(1.04123 0.00404081 0)
(1.04169 0.00353148 0)
(1.04219 0.00293832 0)
(1.04272 0.00224293 0)
(1.0433 0.00142348 0)
(1.04393 0.000456696 0)
(1.04462 -0.000693274 0)
(1.0454 -0.00205626 0)
(1.04627 -0.0036928 0)
(1.0473 -0.00566498 0)
(1.04857 -0.00811302 0)
(1.05016 -0.0112528 0)
(1.05219 -0.0155406 0)
(1.0005 0.00753735 0)
(1.00813 0.0156034 0)
(1.01672 0.0154751 0)
(1.02161 0.0137196 0)
(1.02364 0.0132072 0)
(1.02509 0.01295 0)
(1.0266 0.0123685 0)
(1.02792 0.0117342 0)
(1.02894 0.0112406 0)