/*--------------------------------*- C++ -*----------------------------------*\
  =========                 |
  \\      /  F ield         | OpenFOAM: The Open Source CFD Toolbox
   \\    /   O peration     | Website:  https://openfoam.org
    \\  /    A nd           | Version:  7
     \\/     M anipulation  |
\*---------------------------------------------------------------------------*/
FoamFile
{
    version     2.0;
    format      ascii;
    class       surfaceScalarField;
    location    "0.25";
    object      phi;
}
// * * * * * * * * * * * * * * * * * * * * * * * * * * * * * * * * * * * * * //

dimensions      [0 3 -1 0 0 0 0];

internalField   nonuniform List<scalar> 
139350
(
6.4593e-08
9.20385e-08
3.19526e-08
3.26405e-08
2.30627e-08
8.8899e-09
1.95698e-08
3.49286e-09
1.76198e-08
1.94997e-09
1.61945e-08
1.42537e-09
1.50641e-08
1.13037e-09
1.41532e-08
9.10868e-10
1.34043e-08
7.48922e-10
1.27742e-08
6.30125e-10
1.2234e-08
5.40175e-10
1.17644e-08
4.696e-10
1.13516e-08
4.1278e-10
1.09854e-08
3.66183e-10
1.0658e-08
3.27398e-10
1.03633e-08
2.94697e-10
1.00965e-08
2.66811e-10
9.85375e-09
2.42786e-10
9.63185e-09
2.21899e-10
9.42826e-09
2.03588e-10
9.24085e-09
1.87412e-10
9.06783e-09
1.73019e-10
8.90771e-09
1.60123e-10
8.75922e-09
1.48492e-10
8.62128e-09
1.37933e-10
8.493e-09
1.28283e-10
8.3736e-09
1.19405e-10
8.26241e-09
1.11182e-10
8.1589e-09
1.03508e-10
8.0626e-09
9.63025e-11
7.97314e-09
8.94671e-11
7.89018e-09
8.2957e-11
7.81352e-09
7.66571e-11
7.74294e-09
7.05774e-11
7.67841e-09
6.4538e-11
7.61975e-09
5.86548e-11
7.56715e-09
5.26049e-11
7.52045e-09
4.66914e-11
7.48009e-09
4.03686e-11
7.44593e-09
3.41522e-11
7.41853e-09
2.7408e-11
7.39813e-09
2.03921e-11
7.38449e-09
1.36435e-11
7.38e-09
4.48918e-12
7.37964e-09
3.56786e-13
7.39519e-09
-1.5546e-11
7.39915e-09
-3.95698e-12
7.45896e-09
-5.98112e-11
7.27961e-09
1.79352e-10
-3.28437e-09
1.0564e-08
1.26027e-07
1.27456e-07
9.12658e-08
6.74012e-08
7.19473e-08
2.82084e-08
6.12234e-08
1.42167e-08
5.47812e-08
8.39218e-09
5.02925e-08
5.91405e-09
4.68147e-08
4.6082e-09
4.40064e-08
3.71921e-09
4.16883e-08
3.06697e-09
3.97358e-08
2.58262e-09
3.80617e-08
2.21428e-09
3.66059e-08
1.92544e-09
3.53256e-08
1.69311e-09
3.41891e-08
1.50265e-09
3.31724e-08
1.34413e-09
3.22566e-08
1.21048e-09
3.14269e-08
1.09652e-09
3.06713e-08
9.98365e-10
2.99801e-08
9.13057e-10
2.93454e-08
8.38305e-10
2.87605e-08
7.72309e-10
2.82199e-08
7.13632e-10
2.77189e-08
6.61115e-10
2.72536e-08
6.13807e-10
2.68206e-08
5.70924e-10
2.64171e-08
5.31809e-10
2.60406e-08
4.95908e-10
2.5689e-08
4.6275e-10
2.53606e-08
4.31918e-10
2.50538e-08
4.03069e-10
2.47674e-08
3.75855e-10
2.45004e-08
3.50043e-10
2.42517e-08
3.25271e-10
2.40209e-08
3.01462e-10
2.38073e-08
2.78093e-10
2.36106e-08
2.55399e-10
2.34308e-08
2.32407e-10
2.32674e-08
2.10039e-10
2.31215e-08
1.86314e-10
2.29921e-08
1.63557e-10
2.28816e-08
1.37896e-10
2.27879e-08
1.14036e-10
2.2716e-08
8.55828e-11
2.26611e-08
5.93821e-11
2.26313e-08
3.01658e-11
2.262e-08
-4.30373e-12
2.26252e-08
-9.15024e-12
2.2703e-08
-1.37548e-10
2.25831e-08
2.99254e-10
-3.94128e-09
2.324e-08
1.58808e-07
1.35051e-07
1.36497e-07
8.97121e-08
1.17499e-07
4.72067e-08
1.03325e-07
2.83905e-08
9.33233e-08
1.83938e-08
8.60281e-08
1.32092e-08
8.03309e-08
1.03055e-08
7.56902e-08
8.35987e-09
7.18241e-08
6.93308e-09
6.85457e-08
5.86104e-09
6.57217e-08
5.03828e-09
6.32572e-08
4.38994e-09
6.10835e-08
3.86683e-09
5.91492e-08
3.4369e-09
5.74151e-08
3.07829e-09
5.58501e-08
2.77539e-09
5.44299e-08
2.51672e-09
5.31346e-08
2.29366e-09
5.19481e-08
2.09962e-09
5.08569e-08
1.92946e-09
4.98501e-08
1.77917e-09
4.89182e-08
1.6455e-09
4.80534e-08
1.52586e-09
4.72491e-08
1.41811e-09
4.64996e-08
1.32048e-09
4.57999e-08
1.2315e-09
4.51459e-08
1.14991e-09
4.4534e-08
1.07466e-09
4.39611e-08
1.00483e-09
4.34245e-08
9.39616e-10
4.29221e-08
8.78295e-10
4.24518e-08
8.20293e-10
4.20122e-08
7.64899e-10
4.16018e-08
7.11821e-10
4.12198e-08
6.60102e-10
4.08652e-08
6.10026e-10
4.05378e-08
5.59785e-10
4.02368e-08
5.11087e-10
3.99632e-08
4.59858e-10
3.97155e-08
4.11319e-10
3.94974e-08
3.55976e-10
3.93043e-08
3.07173e-10
3.91461e-08
2.43731e-10
3.90101e-08
1.95441e-10
3.89188e-08
1.21417e-10
3.88439e-08
7.055e-11
3.8818e-08
1.68477e-11
3.88457e-08
-1.65269e-10
3.88456e-08
2.99301e-10
-3.63802e-09
3.85424e-08
1.75664e-07
1.30903e-07
1.65597e-07
9.97798e-08
1.52728e-07
6.00751e-08
1.40133e-07
4.09855e-08
1.29449e-07
2.90777e-08
1.20814e-07
2.18449e-08
1.13711e-07
1.74077e-08
1.07743e-07
1.43284e-08
1.02657e-07
1.20188e-08
9.82722e-08
1.02461e-08
9.4448e-08
8.86239e-09
9.10791e-08
7.75886e-09
8.80853e-08
6.86067e-09
8.54048e-08
6.11736e-09
8.29893e-08
5.49384e-09
8.08e-08
4.9647e-09
7.88056e-08
4.51106e-09
7.69807e-08
4.11858e-09
7.53041e-08
3.77621e-09
7.37583e-08
3.47531e-09
7.23284e-08
3.20902e-09
7.10021e-08
2.97183e-09
6.97687e-08
2.75927e-09
6.86192e-08
2.56765e-09
6.75457e-08
2.39392e-09
6.65417e-08
2.23552e-09
6.56013e-08
2.0903e-09
6.47196e-08
1.9564e-09
6.38922e-08
1.83223e-09
6.31154e-08
1.7164e-09
6.2386e-08
1.60767e-09
6.17013e-08
1.505e-09
6.10589e-08
1.40725e-09
6.0457e-08
1.3138e-09
5.98939e-08
1.22318e-09
5.93682e-08
1.13566e-09
5.88796e-08
1.04848e-09
5.84265e-08
9.64182e-10
5.80101e-08
8.76255e-10
5.7628e-08
7.93343e-10
5.72849e-08
6.99114e-10
5.69745e-08
6.1758e-10
5.67091e-08
5.09086e-10
5.64724e-08
4.32165e-10
5.62925e-08
3.01343e-10
5.61343e-08
2.28776e-10
5.60407e-08
1.1045e-10
5.59934e-08
-1.17966e-10
5.6009e-08
2.83667e-10
-3.1141e-09
5.54851e-08
1.8456e-07
1.23128e-07
1.82322e-07
1.02018e-07
1.76106e-07
6.62913e-08
1.67766e-07
4.93253e-08
1.59148e-07
3.76961e-08
1.51245e-07
2.97477e-08
1.44181e-07
2.44716e-08
1.37893e-07
2.06163e-08
1.32308e-07
1.76044e-08
1.27341e-07
1.52133e-08
1.22906e-07
1.32968e-08
1.18928e-07
1.17371e-08
1.15341e-07
1.04476e-08
1.12091e-07
9.36687e-09
1.09134e-07
8.45094e-09
1.06432e-07
7.66696e-09
1.03953e-07
6.98997e-09
1.01671e-07
6.40067e-09
9.95634e-08
5.88394e-09
9.76109e-08
5.42777e-09
9.57974e-08
5.02254e-09
9.41088e-08
4.66041e-09
9.25331e-08
4.33498e-09
9.10598e-08
4.04093e-09
8.96799e-08
3.77381e-09
8.83856e-08
3.52989e-09
8.71699e-08
3.30599e-09
8.60269e-08
3.09937e-09
8.49515e-08
2.90768e-09
8.3939e-08
2.72886e-09
8.29856e-08
2.56107e-09
8.20879e-08
2.40274e-09
8.12429e-08
2.25222e-09
8.04482e-08
2.10851e-09
7.97018e-08
1.96959e-09
7.90018e-08
1.83562e-09
7.83474e-08
1.70288e-09
7.77369e-08
1.57466e-09
7.71712e-08
1.44202e-09
7.66476e-08
1.3169e-09
7.61705e-08
1.17623e-09
7.57338e-08
1.05432e-09
7.5349e-08
8.93831e-10
7.50013e-08
7.7989e-10
7.47153e-08
5.8732e-10
7.44634e-08
4.80707e-10
7.42766e-08
2.97197e-10
7.41474e-08
1.12901e-11
7.40938e-08
3.37255e-10
-2.53166e-09
7.35113e-08
1.90389e-07
1.14956e-07
1.91853e-07
1.00554e-07
1.90246e-07
6.78979e-08
1.86158e-07
5.34135e-08
1.80722e-07
4.31316e-08
1.74973e-07
3.54974e-08
1.69283e-07
3.01614e-08
1.63809e-07
2.60905e-08
1.58647e-07
2.27665e-08
1.53839e-07
2.00208e-08
1.49389e-07
1.77466e-08
1.45281e-07
1.58459e-08
1.41489e-07
1.42394e-08
1.37987e-07
1.28684e-08
1.3475e-07
1.16885e-08
1.31751e-07
1.06655e-08
1.28969e-07
9.77235e-09
1.26382e-07
8.98752e-09
1.23972e-07
8.29374e-09
1.21723e-07
7.67695e-09
1.1962e-07
7.12567e-09
1.1765e-07
6.63041e-09
1.15802e-07
6.18325e-09
1.14065e-07
5.77756e-09
1.12431e-07
5.40773e-09
1.10892e-07
5.06897e-09
1.09441e-07
4.75721e-09
1.08071e-07
4.46888e-09
1.06778e-07
4.20093e-09
1.05556e-07
3.95062e-09
1.04402e-07
3.71555e-09
1.03311e-07
3.4936e-09
1.0228e-07
3.28264e-09
1.01308e-07
3.08122e-09
1.0039e-07
2.88684e-09
9.95267e-08
2.69943e-09
9.87151e-08
2.51444e-09
9.79541e-08
2.33566e-09
9.7244e-08
2.15209e-09
9.65827e-08
1.97825e-09
9.59733e-08
1.78559e-09
9.54113e-08
1.61635e-09
9.49053e-08
1.39979e-09
9.44455e-08
1.2397e-09
9.40474e-08
9.85406e-10
9.36988e-08
8.29301e-10
9.34085e-08
5.8753e-10
9.31907e-08
2.29092e-10
9.30443e-08
4.83689e-10
-1.88951e-09
9.24021e-08
1.95541e-07
1.07229e-07
1.98248e-07
9.78462e-08
1.98971e-07
6.71756e-08
1.97792e-07
5.45926e-08
1.95161e-07
4.57617e-08
1.91823e-07
3.88363e-08
1.88095e-07
3.38887e-08
1.84152e-07
3.00341e-08
1.80141e-07
2.67766e-08
1.76175e-07
2.39868e-08
1.72322e-07
2.16001e-08
1.6862e-07
1.95478e-08
1.6509e-07
1.77696e-08
1.6174e-07
1.62186e-08
1.5857e-07
1.48584e-08
1.55576e-07
1.36595e-08
1.5275e-07
1.25977e-08
1.50085e-07
1.16528e-08
1.4757e-07
1.08083e-08
1.45197e-07
1.00503e-08
1.42956e-07
9.36696e-09
1.40838e-07
8.7484e-09
1.38835e-07
8.18618e-09
1.36939e-07
7.67305e-09
1.35144e-07
7.20279e-09
1.33443e-07
6.77001e-09
1.3183e-07
6.37006e-09
1.30301e-07
5.99881e-09
1.28849e-07
5.65269e-09
1.27471e-07
5.32846e-09
1.26163e-07
5.02329e-09
1.24922e-07
4.73458e-09
1.23745e-07
4.45983e-09
1.22629e-07
4.19718e-09
1.21572e-07
3.94371e-09
1.20573e-07
3.69911e-09
1.19629e-07
3.45815e-09
1.1874e-07
3.22487e-09
1.17905e-07
2.98676e-09
1.17123e-07
2.75993e-09
1.16397e-07
2.5122e-09
1.15723e-07
2.2904e-09
1.15106e-07
2.01634e-09
1.14544e-07
1.8022e-09
1.1404e-07
1.48877e-09
1.136e-07
1.26979e-09
1.13211e-07
9.76557e-10
1.12901e-07
5.38937e-10
1.12665e-07
7.19421e-10
-1.19451e-09
1.1197e-07
2.00848e-07
9.99658e-08
2.03777e-07
9.49177e-08
2.05329e-07
6.56234e-08
2.05646e-07
5.42758e-08
2.04821e-07
4.65869e-08
2.03341e-07
4.03157e-08
2.01396e-07
3.58337e-08
1.9907e-07
3.23598e-08
1.9647e-07
2.93768e-08
1.93699e-07
2.67583e-08
1.90837e-07
2.44616e-08
1.87946e-07
2.24387e-08
1.85071e-07
2.06452e-08
1.82242e-07
1.9047e-08
1.79483e-07
1.76175e-08
1.76808e-07
1.63347e-08
1.74226e-07
1.51801e-08
1.71741e-07
1.41378e-08
1.69355e-07
1.31939e-08
1.67069e-07
1.23367e-08
1.6488e-07
1.15558e-08
1.62786e-07
1.08421e-08
1.60784e-07
1.0188e-08
1.58871e-07
9.58628e-09
1.57043e-07
9.03102e-09
1.55296e-07
8.51677e-09
1.53627e-07
8.0388e-09
1.52033e-07
7.59283e-09
1.50511e-07
7.1751e-09
1.49057e-07
6.78216e-09
1.4767e-07
6.41094e-09
1.46346e-07
6.05859e-09
1.45083e-07
5.72234e-09
1.4388e-07
5.4001e-09
1.42735e-07
5.08862e-09
1.41647e-07
4.78739e-09
1.40614e-07
4.49074e-09
1.39637e-07
4.20269e-09
1.38713e-07
3.90987e-09
1.37844e-07
3.62897e-09
1.37031e-07
3.32609e-09
1.36272e-07
3.04937e-09
1.35569e-07
2.71889e-09
1.34925e-07
2.44586e-09
1.34337e-07
2.07706e-09
1.3382e-07
1.78716e-09
1.3335e-07
1.4463e-09
1.32956e-07
9.33034e-10
1.32643e-07
1.03207e-09
-4.72716e-10
1.31921e-07
2.06447e-07
9.30506e-08
2.0934e-07
9.20245e-08
2.11039e-07
6.39251e-08
2.11934e-07
5.33807e-08
2.12004e-07
4.65166e-08
2.11619e-07
4.07006e-08
2.10891e-07
3.65614e-08
2.09824e-07
3.34274e-08
2.08455e-07
3.07463e-08
2.06842e-07
2.83709e-08
2.05043e-07
2.62609e-08
2.03106e-07
2.43751e-08
2.01076e-07
2.26758e-08
1.98987e-07
2.11356e-08
1.9687e-07
1.97346e-08
1.94748e-07
1.84568e-08
1.92639e-07
1.72888e-08
1.90558e-07
1.6219e-08
1.88515e-07
1.52371e-08
1.86517e-07
1.43343e-08
1.84571e-07
1.35023e-08
1.82679e-07
1.2734e-08
1.80844e-07
1.20228e-08
1.79067e-07
1.13629e-08
1.77349e-07
1.07488e-08
1.7569e-07
1.01758e-08
1.7409e-07
9.63947e-09
1.72547e-07
9.13582e-09
1.71061e-07
8.66125e-09
1.6963e-07
8.21239e-09
1.68255e-07
7.78621e-09
1.66934e-07
7.37983e-09
1.65666e-07
6.99045e-09
1.6445e-07
6.61583e-09
1.63286e-07
6.25263e-09
1.62173e-07
5.90018e-09
1.61111e-07
5.5526e-09
1.601e-07
5.21377e-09
1.5914e-07
4.86997e-09
1.58231e-07
4.53769e-09
1.57375e-07
4.18297e-09
1.56571e-07
3.85257e-09
1.55821e-07
3.46938e-09
1.5513e-07
3.13667e-09
1.5449e-07
2.71729e-09
1.53922e-07
2.35456e-09
1.53401e-07
1.96809e-09
1.52944e-07
1.38947e-09
1.52575e-07
1.40078e-09
2.42994e-10
1.5186e-07
2.12289e-07
8.64238e-08
2.15153e-07
8.91603e-08
2.16793e-07
6.22853e-08
2.17846e-07
5.23276e-08
2.18263e-07
4.61001e-08
2.1838e-07
4.05832e-08
2.18306e-07
3.66358e-08
2.18008e-07
3.37248e-08
2.17481e-07
3.12739e-08
2.16742e-07
2.91097e-08
2.15817e-07
2.71863e-08
2.1473e-07
2.54615e-08
2.13509e-07
2.38968e-08
2.12179e-07
2.24655e-08
2.10765e-07
2.11494e-08
2.09286e-07
1.99349e-08
2.07764e-07
1.88115e-08
2.06212e-07
1.77701e-08
2.04646e-07
1.68031e-08
2.03077e-07
1.59037e-08
2.01513e-07
1.5066e-08
1.99963e-07
1.42843e-08
1.98432e-07
1.35537e-08
1.96925e-07
1.28696e-08
1.95447e-07
1.22275e-08
1.93999e-07
1.16234e-08
1.92585e-07
1.10537e-08
1.91206e-07
1.05148e-08
1.89864e-07
1.00036e-08
1.88559e-07
9.51703e-09
1.87293e-07
9.05225e-09
1.86066e-07
8.60657e-09
1.84879e-07
8.17731e-09
1.83733e-07
7.76228e-09
1.82627e-07
7.35817e-09
1.81563e-07
6.96426e-09
1.80541e-07
6.57463e-09
1.79562e-07
6.19299e-09
1.78626e-07
5.80567e-09
1.77736e-07
5.42845e-09
1.7689e-07
5.02847e-09
1.76093e-07
4.64928e-09
1.75343e-07
4.21977e-09
1.74649e-07
3.83066e-09
1.73999e-07
3.36685e-09
1.73419e-07
2.93493e-09
1.72882e-07
2.50481e-09
1.72397e-07
1.87466e-09
1.72002e-07
1.79546e-09
9.16999e-10
1.71328e-07
2.1833e-07
8.00742e-08
2.21207e-07
8.62836e-08
2.22766e-07
6.07264e-08
2.23846e-07
5.12476e-08
2.24372e-07
4.55741e-08
2.24667e-07
4.0288e-08
2.24869e-07
3.64342e-08
2.24949e-07
3.36444e-08
2.24886e-07
3.13366e-08
2.24681e-07
2.93153e-08
2.24337e-07
2.75298e-08
2.23863e-07
2.5936e-08
2.23266e-07
2.44931e-08
2.2256e-07
2.31716e-08
2.21757e-07
2.19523e-08
2.20871e-07
2.08212e-08
2.19915e-07
1.9768e-08
2.189e-07
1.87843e-08
2.1784e-07
1.78634e-08
2.16744e-07
1.69997e-08
2.15622e-07
1.61882e-08
2.14482e-07
1.54247e-08
2.1333e-07
1.47051e-08
2.12174e-07
1.40257e-08
2.11018e-07
1.33831e-08
2.09868e-07
1.27738e-08
2.08727e-07
1.2195e-08
2.07598e-07
1.16435e-08
2.06485e-07
1.11168e-08
2.0539e-07
1.0612e-08
2.04315e-07
1.01268e-08
2.03263e-07
9.65865e-09
2.02235e-07
9.20511e-09
2.01234e-07
8.76414e-09
2.00259e-07
8.33252e-09
1.99314e-07
7.90959e-09
1.98399e-07
7.48949e-09
1.97516e-07
7.07575e-09
1.96667e-07
6.65505e-09
1.95853e-07
6.2421e-09
1.95076e-07
5.806e-09
1.94339e-07
5.38582e-09
1.9364e-07
4.91855e-09
1.92991e-07
4.47977e-09
1.92379e-07
3.97894e-09
1.91828e-07
3.48589e-09
1.91318e-07
3.01504e-09
1.90844e-07
2.34827e-09
1.9046e-07
2.1801e-09
1.51315e-09
1.89864e-07
2.24559e-07
7.40084e-08
2.27471e-07
8.33714e-08
2.28963e-07
5.92349e-08
2.30048e-07
5.01624e-08
2.30615e-07
4.50069e-08
2.30959e-07
3.99441e-08
2.3125e-07
3.61432e-08
2.31478e-07
3.34161e-08
2.31624e-07
3.1191e-08
2.31685e-07
2.92543e-08
2.31661e-07
2.75536e-08
2.31551e-07
2.60461e-08
2.31355e-07
2.46894e-08
2.31074e-07
2.3452e-08
2.30714e-07
2.23125e-08
2.30279e-07
2.1256e-08
2.29776e-07
2.0271e-08
2.29212e-07
1.93487e-08
2.28593e-07
1.84821e-08
2.27927e-07
1.76658e-08
2.2722e-07
1.68949e-08
2.26479e-07
1.61656e-08
2.2571e-07
1.54742e-08
2.24919e-07
1.48176e-08
2.24109e-07
1.41926e-08
2.23286e-07
1.35965e-08
2.22455e-07
1.30266e-08
2.21618e-07
1.24803e-08
2.20779e-07
1.19552e-08
2.19943e-07
1.1449e-08
2.1911e-07
1.09593e-08
2.18285e-07
1.0484e-08
2.17469e-07
1.00209e-08
2.16665e-07
9.56795e-09
2.15875e-07
9.12213e-09
2.15102e-07
8.68286e-09
2.14347e-07
8.24438e-09
2.13613e-07
7.81001e-09
2.12901e-07
7.36698e-09
2.12215e-07
6.92865e-09
2.11554e-07
6.4667e-09
2.10925e-07
6.01489e-09
2.10324e-07
5.51945e-09
2.09764e-07
5.0399e-09
2.09233e-07
4.51011e-09
2.08752e-07
3.96678e-09
2.08308e-07
3.45922e-09
2.07886e-07
2.76994e-09
2.07548e-07
2.5179e-09
1.99917e-09
2.07062e-07
2.3098e-07
6.82346e-08
2.33936e-07
8.04154e-08
2.35368e-07
5.78027e-08
2.36459e-07
4.9071e-08
2.3706e-07
4.44061e-08
2.3742e-07
3.95849e-08
2.37732e-07
3.58307e-08
2.38006e-07
3.3142e-08
2.38227e-07
3.097e-08
2.38397e-07
2.90843e-08
2.38518e-07
2.74325e-08
2.38589e-07
2.59753e-08
2.38607e-07
2.46711e-08
2.38572e-07
2.34876e-08
2.38482e-07
2.24023e-08
2.38339e-07
2.13993e-08
2.38144e-07
2.04662e-08
2.37899e-07
1.95935e-08
2.37607e-07
1.87736e-08
2.37272e-07
1.80005e-08
2.36898e-07
1.72694e-08
2.36487e-07
1.65761e-08
2.36045e-07
1.59171e-08
2.35573e-07
1.52891e-08
2.35076e-07
1.46892e-08
2.34558e-07
1.41148e-08
2.34021e-07
1.35632e-08
2.3347e-07
1.30321e-08
2.32906e-07
1.25192e-08
2.32332e-07
1.20222e-08
2.31753e-07
1.15391e-08
2.31169e-07
1.10677e-08
2.30584e-07
1.06058e-08
2.3e-07
1.01518e-08
2.2942e-07
9.70251e-09
2.28845e-07
9.25745e-09
2.28279e-07
8.81093e-09
2.27723e-07
8.36604e-09
2.27179e-07
7.91067e-09
2.26651e-07
7.45658e-09
2.26139e-07
6.97845e-09
2.2565e-07
6.50425e-09
2.2518e-07
5.98983e-09
2.2474e-07
5.47903e-09
2.24323e-07
4.92793e-09
2.23943e-07
4.34611e-09
2.23596e-07
3.80649e-09
2.2326e-07
3.10642e-09
2.23e-07
2.77787e-09
2.35131e-09
2.22647e-07
2.37601e-07
6.27585e-08
2.40603e-07
7.74129e-08
2.41979e-07
5.64275e-08
2.43075e-07
4.79746e-08
2.43713e-07
4.37681e-08
2.44086e-07
3.92122e-08
2.44403e-07
3.55128e-08
2.4469e-07
3.28555e-08
2.44934e-07
3.07262e-08
2.4514e-07
2.88779e-08
2.45316e-07
2.72571e-08
2.45461e-07
2.58298e-08
2.45576e-07
2.45562e-08
2.45659e-07
2.34044e-08
2.4571e-07
2.23518e-08
2.45727e-07
2.13821e-08
2.4571e-07
2.04826e-08
2.45661e-07
1.96434e-08
2.45578e-07
1.88565e-08
2.45463e-07
1.81154e-08
2.45317e-07
1.7415e-08
2.45142e-07
1.67509e-08
2.4494e-07
1.61194e-08
2.44712e-07
1.55171e-08
2.4446e-07
1.49411e-08
2.44186e-07
1.43885e-08
2.43893e-07
1.38568e-08
2.43582e-07
1.33434e-08
2.43255e-07
1.28462e-08
2.42914e-07
1.23628e-08
2.42562e-07
1.18912e-08
2.422e-07
1.14292e-08
2.41831e-07
1.09747e-08
2.41457e-07
1.0526e-08
2.4108e-07
1.00799e-08
2.40701e-07
9.63589e-09
2.40324e-07
9.18846e-09
2.3995e-07
8.74026e-09
2.3958e-07
8.27997e-09
2.39219e-07
7.81753e-09
2.38867e-07
7.33083e-09
2.38529e-07
6.84192e-09
2.38203e-07
6.316e-09
2.379e-07
5.78252e-09
2.37611e-07
5.21637e-09
2.3735e-07
4.607e-09
2.37117e-07
4.0398e-09
2.36886e-07
3.33711e-09
2.36724e-07
2.94015e-09
2.55823e-09
2.36517e-07
2.44431e-07
5.75837e-08
2.47473e-07
7.43708e-08
2.48799e-07
5.51013e-08
2.49896e-07
4.6878e-08
2.50573e-07
4.30913e-08
2.50962e-07
3.88224e-08
2.51285e-07
3.51904e-08
2.51577e-07
3.25635e-08
2.51828e-07
3.04748e-08
2.52046e-07
2.86606e-08
2.52238e-07
2.70648e-08
2.52409e-07
2.56585e-08
2.52561e-07
2.44048e-08
2.52692e-07
2.32726e-08
2.52805e-07
2.22395e-08
2.52897e-07
2.12895e-08
2.5297e-07
2.041e-08
2.53022e-07
1.95911e-08
2.53054e-07
1.88245e-08
2.53066e-07
1.81038e-08
2.53057e-07
1.74236e-08
2.53029e-07
1.67793e-08
2.52981e-07
1.61671e-08
2.52915e-07
1.55836e-08
2.5283e-07
1.50256e-08
2.52728e-07
1.44902e-08
2.5261e-07
1.39748e-08
2.52477e-07
1.34767e-08
2.5233e-07
1.29937e-08
2.52169e-07
1.25232e-08
2.51997e-07
1.20632e-08
2.51815e-07
1.16116e-08
2.51624e-07
1.11659e-08
2.51425e-07
1.07245e-08
2.51221e-07
1.02842e-08
2.51012e-07
9.84439e-09
2.50801e-07
9.39956e-09
2.50589e-07
8.9519e-09
2.50379e-07
8.49094e-09
2.50171e-07
8.02467e-09
2.49968e-07
7.53423e-09
2.49774e-07
7.03593e-09
2.49587e-07
6.50344e-09
2.49415e-07
5.95395e-09
2.49255e-07
5.37694e-09
2.49113e-07
4.74874e-09
2.48995e-07
4.15762e-09
2.48876e-07
3.45647e-09
2.48817e-07
2.99851e-09
2.62236e-09
2.48753e-07
2.51478e-07
5.27122e-08
2.54551e-07
7.12984e-08
2.55838e-07
5.38137e-08
2.5693e-07
4.57866e-08
2.57644e-07
4.23769e-08
2.58054e-07
3.84126e-08
2.58382e-07
3.48622e-08
2.58679e-07
3.22663e-08
2.58936e-07
3.02182e-08
2.59158e-07
2.84388e-08
2.59355e-07
2.68671e-08
2.59535e-07
2.54793e-08
2.59698e-07
2.42416e-08
2.59847e-07
2.31238e-08
2.59982e-07
2.21041e-08
2.60105e-07
2.11667e-08
2.60215e-07
2.02994e-08
2.60314e-07
1.94925e-08
2.60401e-07
1.87379e-08
2.60475e-07
1.80291e-08
2.60538e-07
1.73607e-08
2.60589e-07
1.67283e-08
2.60628e-07
1.61279e-08
2.60656e-07
1.5556e-08
2.60672e-07
1.50096e-08
2.60677e-07
1.44855e-08
2.6067e-07
1.39812e-08
2.60653e-07
1.34938e-08
2.60626e-07
1.30209e-08
2.60589e-07
1.25602e-08
2.60543e-07
1.21092e-08
2.60489e-07
1.16658e-08
2.60427e-07
1.12275e-08
2.60359e-07
1.07925e-08
2.60286e-07
1.03576e-08
2.60208e-07
9.92206e-09
2.60127e-07
9.48043e-09
2.60045e-07
9.03429e-09
2.59962e-07
8.57413e-09
2.59881e-07
8.10589e-09
2.59801e-07
7.61384e-09
2.59728e-07
7.10901e-09
2.59659e-07
6.57237e-09
2.59602e-07
6.01123e-09
2.59553e-07
5.42542e-09
2.59518e-07
4.78434e-09
2.59504e-07
4.17175e-09
2.59488e-07
3.47246e-09
2.59527e-07
2.95925e-09
2.55828e-09
2.59591e-07
2.58751e-07
4.81439e-08
2.61844e-07
6.82059e-08
2.63103e-07
5.2554e-08
2.64185e-07
4.47055e-08
2.64934e-07
4.16273e-08
2.65366e-07
3.79806e-08
2.65701e-07
3.45272e-08
2.66004e-07
3.19635e-08
2.66266e-07
2.99561e-08
2.66492e-07
2.82131e-08
2.66692e-07
2.66665e-08
2.66875e-07
2.5297e-08
2.67042e-07
2.40745e-08
2.67196e-07
2.29696e-08
2.67339e-07
2.1961e-08
2.67472e-07
2.10333e-08
2.67597e-07
2.01749e-08
2.67713e-07
1.9376e-08
2.67823e-07
1.86288e-08
2.67925e-07
1.79271e-08
2.6802e-07
1.72655e-08
2.68108e-07
1.66396e-08
2.68191e-07
1.60457e-08
2.68266e-07
1.54803e-08
2.68336e-07
1.49403e-08
2.68398e-07
1.44227e-08
2.68455e-07
1.39247e-08
2.68505e-07
1.34436e-08
2.68549e-07
1.29769e-08
2.68587e-07
1.2522e-08
2.6862e-07
1.20766e-08
2.68647e-07
1.16384e-08
2.6867e-07
1.12048e-08
2.68688e-07
1.0774e-08
2.68703e-07
1.03426e-08
2.68716e-07
9.90972e-09
2.68726e-07
9.47014e-09
2.68736e-07
9.02472e-09
2.68745e-07
8.56493e-09
2.68756e-07
8.09473e-09
2.68769e-07
7.60123e-09
2.68787e-07
7.09087e-09
2.68809e-07
6.55048e-09
2.6884e-07
5.98003e-09
2.6888e-07
5.38578e-09
2.68929e-07
4.73509e-09
2.68998e-07
4.10226e-09
2.69069e-07
3.40219e-09
2.6919e-07
2.83744e-09
2.38835e-09
2.6936e-07
2.66259e-07
4.38773e-08
2.69361e-07
6.51036e-08
2.70603e-07
5.13118e-08
2.7167e-07
4.36391e-08
2.72451e-07
4.08459e-08
2.72907e-07
3.75248e-08
2.7325e-07
3.41846e-08
2.73558e-07
3.1655e-08
2.73826e-07
2.9688e-08
2.74056e-07
2.7983e-08
2.7426e-07
2.6463e-08
2.74444e-07
2.51125e-08
2.74613e-07
2.39053e-08
2.7477e-07
2.28132e-08
2.74915e-07
2.18153e-08
2.75052e-07
2.08966e-08
2.75181e-07
2.00456e-08
2.75304e-07
1.92532e-08
2.75421e-07
1.85116e-08
2.75534e-07
1.78147e-08
2.75642e-07
1.71574e-08
2.75746e-07
1.65354e-08
2.75847e-07
1.5945e-08
2.75944e-07
1.5383e-08
2.76038e-07
1.48462e-08
2.76129e-07
1.43318e-08
2.76217e-07
1.38369e-08
2.76302e-07
1.33589e-08
2.76383e-07
1.28952e-08
2.76462e-07
1.24431e-08
2.76538e-07
1.20004e-08
2.76612e-07
1.15646e-08
2.76684e-07
1.11331e-08
2.76754e-07
1.0704e-08
2.76823e-07
1.0274e-08
2.7689e-07
9.84182e-09
2.76958e-07
9.40254e-09
2.77026e-07
8.95636e-09
2.77096e-07
8.49566e-09
2.77168e-07
8.02258e-09
2.77242e-07
7.52672e-09
2.77323e-07
7.0107e-09
2.77407e-07
6.46582e-09
2.775e-07
5.88696e-09
2.77602e-07
5.28358e-09
2.77713e-07
4.62448e-09
2.77844e-07
3.97176e-09
2.77979e-07
3.2663e-09
2.78165e-07
2.65195e-09
2.13765e-09
2.78416e-07
2.7401e-07
3.99088e-08
2.77111e-07
6.20026e-08
2.78346e-07
5.00769e-08
2.79394e-07
4.25909e-08
2.80203e-07
4.00368e-08
2.80684e-07
3.70436e-08
2.81035e-07
3.38332e-08
2.81349e-07
3.1341e-08
2.81623e-07
2.94139e-08
2.81858e-07
2.77483e-08
2.82065e-07
2.62563e-08
2.82252e-07
2.49256e-08
2.82423e-07
2.37342e-08
2.82581e-07
2.26553e-08
2.82728e-07
2.16681e-08
2.82866e-07
2.07583e-08
2.82997e-07
1.99147e-08
2.83122e-07
1.91282e-08
2.83242e-07
1.83916e-08
2.83358e-07
1.76987e-08
2.83471e-07
1.70446e-08
2.83581e-07
1.64253e-08
2.83689e-07
1.58371e-08
2.83795e-07
1.52769e-08
2.839e-07
1.47418e-08
2.84003e-07
1.42288e-08
2.84104e-07
1.37352e-08
2.84205e-07
1.32584e-08
2.84304e-07
1.27956e-08
2.84403e-07
1.23445e-08
2.84501e-07
1.19024e-08
2.84598e-07
1.14671e-08
2.84696e-07
1.10358e-08
2.84793e-07
1.06066e-08
2.84891e-07
1.01762e-08
2.8499e-07
9.74299e-09
2.8509e-07
9.30245e-09
2.85192e-07
8.85405e-09
2.85297e-07
8.39106e-09
2.85405e-07
7.91403e-09
2.85518e-07
7.41458e-09
2.85636e-07
6.89239e-09
2.8576e-07
6.3418e-09
2.85892e-07
5.75465e-09
2.86035e-07
5.14109e-09
2.86186e-07
4.47339e-09
2.86357e-07
3.80064e-09
2.86539e-07
3.08435e-09
2.8677e-07
2.42106e-09
1.82967e-09
2.87078e-07
2.82013e-07
3.62331e-08
2.85101e-07
5.89145e-08
2.86339e-07
4.88397e-08
2.87366e-07
4.15637e-08
2.88198e-07
3.92046e-08
2.88706e-07
3.65357e-08
2.89067e-07
3.34721e-08
2.89386e-07
3.10216e-08
2.89667e-07
2.91336e-08
2.89907e-07
2.75084e-08
2.90117e-07
2.60461e-08
2.90306e-07
2.47362e-08
2.90479e-07
2.35611e-08
2.90639e-07
2.24956e-08
2.90788e-07
2.15196e-08
2.90927e-07
2.06188e-08
2.91059e-07
1.97826e-08
2.91185e-07
1.90022e-08
2.91306e-07
1.82703e-08
2.91424e-07
1.75812e-08
2.91538e-07
1.69301e-08
2.91651e-07
1.6313e-08
2.91761e-07
1.57265e-08
2.91871e-07
1.51676e-08
2.91979e-07
1.46333e-08
2.92087e-07
1.4121e-08
2.92194e-07
1.36278e-08
2.92302e-07
1.31511e-08
2.92409e-07
1.26884e-08
2.92516e-07
1.22371e-08
2.92624e-07
1.17945e-08
2.92733e-07
1.13585e-08
2.92842e-07
1.09263e-08
2.92953e-07
1.04958e-08
2.93065e-07
1.00638e-08
2.9318e-07
9.62848e-09
2.93297e-07
9.18555e-09
2.93417e-07
8.73387e-09
2.9354e-07
8.26752e-09
2.93669e-07
7.78568e-09
2.93802e-07
7.28157e-09
2.93941e-07
6.75266e-09
2.94088e-07
6.19525e-09
2.94243e-07
5.5996e-09
2.94409e-07
4.97485e-09
2.94585e-07
4.29768e-09
2.94781e-07
3.60458e-09
2.94993e-07
2.87204e-09
2.95255e-07
2.15966e-09
1.48402e-09
2.956e-07
2.90279e-07
3.28431e-08
2.93342e-07
5.5851e-08
2.94591e-07
4.75914e-08
2.95595e-07
4.05593e-08
2.96445e-07
3.83547e-08
2.96981e-07
3.60002e-08
2.97353e-07
3.30997e-08
2.97678e-07
3.06966e-08
2.97964e-07
2.8847e-08
2.9821e-07
2.7263e-08
2.98424e-07
2.58321e-08
2.98616e-07
2.45439e-08
2.98791e-07
2.33856e-08
2.98953e-07
2.23341e-08
2.99103e-07
2.13695e-08
2.99244e-07
2.04782e-08
2.99377e-07
1.96495e-08
2.99504e-07
1.88752e-08
2.99626e-07
1.81482e-08
2.99744e-07
1.74629e-08
2.9986e-07
1.68146e-08
2.99973e-07
1.61997e-08
3.00085e-07
1.56147e-08
3.00196e-07
1.50568e-08
3.00306e-07
1.45232e-08
3.00416e-07
1.40111e-08
3.00526e-07
1.3518e-08
3.00636e-07
1.30411e-08
3.00746e-07
1.25779e-08
3.00857e-07
1.21259e-08
3.00969e-07
1.16824e-08
3.01083e-07
1.12451e-08
3.01198e-07
1.08113e-08
3.01315e-07
1.03789e-08
3.01434e-07
9.94459e-09
3.01556e-07
9.50651e-09
3.01681e-07
9.0605e-09
3.0181e-07
8.60492e-09
3.01943e-07
8.13449e-09
3.02081e-07
7.64731e-09
3.02225e-07
7.13776e-09
3.02376e-07
6.6018e-09
3.02535e-07
6.03672e-09
3.02702e-07
5.4323e-09
3.02881e-07
4.79566e-09
3.03071e-07
4.10786e-09
3.03281e-07
3.39408e-09
3.03513e-07
2.64055e-09
3.03794e-07
1.87848e-09
1.11531e-09
3.04163e-07
2.98816e-07
2.97299e-08
3.01843e-07
5.2824e-08
3.0311e-07
4.63239e-08
3.04091e-07
3.95786e-08
3.04953e-07
3.74924e-08
3.05517e-07
3.54366e-08
3.05902e-07
3.27145e-08
3.06232e-07
3.03661e-08
3.06525e-07
2.85543e-08
3.06776e-07
2.7012e-08
3.06994e-07
2.5614e-08
3.0719e-07
2.43487e-08
3.07368e-07
2.32077e-08
3.07531e-07
2.21705e-08
3.07683e-07
2.12178e-08
3.07825e-07
2.03361e-08
3.07959e-07
1.95153e-08
3.08087e-07
1.87472e-08
3.0821e-07
1.80252e-08
3.08329e-07
1.73437e-08
3.08446e-07
1.66983e-08
3.0856e-07
1.60855e-08
3.08673e-07
1.5502e-08
3.08784e-07
1.4945e-08
3.08895e-07
1.44119e-08
3.09007e-07
1.39001e-08
3.09118e-07
1.34069e-08
3.09229e-07
1.29296e-08
3.09341e-07
1.24658e-08
3.09454e-07
1.20128e-08
3.09569e-07
1.15681e-08
3.09684e-07
1.11293e-08
3.09802e-07
1.06937e-08
3.09922e-07
1.0259e-08
3.10044e-07
9.82214e-09
3.1017e-07
9.38093e-09
3.10299e-07
8.93149e-09
3.10432e-07
8.47169e-09
3.1057e-07
7.99677e-09
3.10713e-07
7.504e-09
3.10862e-07
6.98852e-09
3.11019e-07
6.44534e-09
3.11183e-07
5.87206e-09
3.11357e-07
5.25864e-09
3.11543e-07
4.60971e-09
3.11741e-07
3.91012e-09
3.11959e-07
3.17542e-09
3.12203e-07
2.39699e-09
3.12497e-07
1.58498e-09
7.33897e-10
3.12878e-07
3.07634e-07
2.68831e-08
3.10612e-07
4.98457e-08
3.11906e-07
4.50306e-08
3.12863e-07
3.86214e-08
3.13732e-07
3.66232e-08
3.14323e-07
3.48454e-08
3.14723e-07
3.2315e-08
3.15059e-07
3.00299e-08
3.15358e-07
2.82554e-08
3.15615e-07
2.67548e-08
3.15838e-07
2.53913e-08
3.16036e-07
2.41501e-08
3.16217e-07
2.30272e-08
3.16383e-07
2.20047e-08
3.16536e-07
2.10643e-08
3.1668e-07
2.01925e-08
3.16815e-07
1.93797e-08
3.16945e-07
1.86181e-08
3.17069e-07
1.79011e-08
3.17189e-07
1.72236e-08
3.17306e-07
1.65811e-08
3.17421e-07
1.59704e-08
3.17535e-07
1.53884e-08
3.17647e-07
1.48324e-08
3.17759e-07
1.42998e-08
3.17871e-07
1.37881e-08
3.17984e-07
1.32947e-08
3.18096e-07
1.28171e-08
3.18209e-07
1.23525e-08
3.18324e-07
1.18985e-08
3.18439e-07
1.14525e-08
3.18556e-07
1.10121e-08
3.18676e-07
1.05745e-08
3.18797e-07
1.01374e-08
3.18922e-07
9.69783e-09
3.19049e-07
9.25335e-09
3.1918e-07
8.8003e-09
3.19316e-07
8.33614e-09
3.19456e-07
7.85651e-09
3.19602e-07
7.35805e-09
3.19754e-07
6.83639e-09
3.19914e-07
6.28595e-09
3.20081e-07
5.70418e-09
3.20259e-07
5.08159e-09
3.20448e-07
4.42023e-09
3.2065e-07
3.7078e-09
3.20874e-07
2.95205e-09
3.21125e-07
2.14576e-09
3.21426e-07
1.28405e-09
3.46843e-10
3.21813e-07
3.16744e-07
2.42906e-08
3.19661e-07
4.6928e-08
3.20986e-07
4.37062e-08
3.2192e-07
3.76868e-08
3.22791e-07
3.57521e-08
3.23409e-07
3.42274e-08
3.23825e-07
3.18996e-08
3.24167e-07
2.96874e-08
3.24472e-07
2.79504e-08
3.24736e-07
2.64915e-08
3.24963e-07
2.51638e-08
3.25165e-07
2.3948e-08
3.25349e-07
2.28438e-08
3.25517e-07
2.18365e-08
3.25672e-07
2.09087e-08
3.25818e-07
2.00471e-08
3.25955e-07
1.92426e-08
3.26085e-07
1.84876e-08
3.26211e-07
1.77758e-08
3.26332e-07
1.71023e-08
3.2645e-07
1.64629e-08
3.26566e-07
1.58543e-08
3.26681e-07
1.52738e-08
3.26794e-07
1.47188e-08
3.26907e-07
1.41867e-08
3.2702e-07
1.36752e-08
3.27134e-07
1.31816e-08
3.27247e-07
1.27035e-08
3.27361e-07
1.22382e-08
3.27477e-07
1.17831e-08
3.27594e-07
1.13358e-08
3.27712e-07
1.08936e-08
3.27833e-07
1.0454e-08
3.27955e-07
1.00145e-08
3.28081e-07
9.57211e-09
3.2821e-07
9.12431e-09
3.28343e-07
8.66755e-09
3.2848e-07
8.199e-09
3.28622e-07
7.71457e-09
3.2877e-07
7.21043e-09
3.28924e-07
6.68245e-09
3.29085e-07
6.12478e-09
3.29255e-07
5.53443e-09
3.29434e-07
4.90254e-09
3.29625e-07
4.22875e-09
3.2983e-07
3.50264e-09
3.30056e-07
2.72581e-09
3.30312e-07
1.88972e-09
3.30618e-07
9.7895e-10
-4.08717e-11
3.31005e-07
3.26154e-07
2.1939e-08
3.28999e-07
4.40828e-08
3.30359e-07
4.23469e-08
3.31273e-07
3.67728e-08
3.32141e-07
3.4884e-08
3.32784e-07
3.35845e-08
3.33217e-07
3.14667e-08
3.33566e-07
2.93381e-08
3.33877e-07
2.76395e-08
3.34147e-07
2.62216e-08
3.34379e-07
2.49311e-08
3.34585e-07
2.3742e-08
3.34772e-07
2.26573e-08
3.34943e-07
2.16657e-08
3.35101e-07
2.07508e-08
3.35248e-07
1.98999e-08
3.35387e-07
1.91039e-08
3.35518e-07
1.83556e-08
3.35645e-07
1.76492e-08
3.35768e-07
1.69798e-08
3.35887e-07
1.63435e-08
3.36004e-07
1.57371e-08
3.3612e-07
1.51581e-08
3.36235e-07
1.46041e-08
3.36349e-07
1.40725e-08
3.36463e-07
1.35612e-08
3.36577e-07
1.30674e-08
3.36692e-07
1.25888e-08
3.36807e-07
1.21227e-08
3.36924e-07
1.16666e-08
3.37042e-07
1.12179e-08
3.37161e-07
1.0774e-08
3.37283e-07