/*--------------------------------*- C++ -*----------------------------------*\
  =========                 |
  \\      /  F ield         | OpenFOAM: The Open Source CFD Toolbox
   \\    /   O peration     | Website:  https://openfoam.org
    \\  /    A nd           | Version:  7
     \\/     M anipulation  |
\*---------------------------------------------------------------------------*/
FoamFile
{
    version     2.0;
    format      ascii;
    class       surfaceScalarField;
    location    "0.25";
    object      phi_0;
}
// * * * * * * * * * * * * * * * * * * * * * * * * * * * * * * * * * * * * * //

dimensions      [0 3 -1 0 0 0 0];

internalField   nonuniform List<scalar> 
139350
(
6.4593e-08
9.20385e-08
3.19525e-08
3.26405e-08
2.30626e-08
8.8899e-09
1.95698e-08
3.49286e-09
1.76198e-08
1.94997e-09
1.61944e-08
1.42537e-09
1.50641e-08
1.13038e-09
1.41532e-08
9.1087e-10
1.34043e-08
7.48923e-10
1.27741e-08
6.30126e-10
1.2234e-08
5.40178e-10
1.17644e-08
4.69603e-10
1.13516e-08
4.12784e-10
1.09854e-08
3.66189e-10
1.0658e-08
3.27405e-10
1.03633e-08
2.94705e-10
1.00965e-08
2.6682e-10
9.85366e-09
2.42797e-10
9.63175e-09
2.21911e-10
9.42814e-09
2.03602e-10
9.24072e-09
1.87427e-10
9.06768e-09
1.73036e-10
8.90754e-09
1.60142e-10
8.75903e-09
1.48513e-10
8.62107e-09
1.37956e-10
8.49276e-09
1.28308e-10
8.37333e-09
1.19432e-10
8.26212e-09
1.11212e-10
8.15858e-09
1.03541e-10
8.06224e-09
9.63384e-11
7.97273e-09
8.95064e-11
7.88973e-09
8.3e-11
7.81303e-09
7.6704e-11
7.7424e-09
7.06286e-11
7.67781e-09
6.45937e-11
7.61909e-09
5.87152e-11
7.56642e-09
5.26699e-11
7.51966e-09
4.6761e-11
7.47922e-09
4.04416e-11
7.44499e-09
3.4228e-11
7.41751e-09
2.74831e-11
7.39704e-09
2.04644e-11
7.38334e-09
1.37042e-11
7.37881e-09
4.53252e-12
7.37844e-09
3.61899e-13
7.39404e-09
-1.55945e-11
7.39815e-09
-4.11229e-12
7.45826e-09
-6.01108e-11
7.27953e-09
1.78733e-10
-3.28545e-09
1.0565e-08
1.26027e-07
1.27456e-07
9.12658e-08
6.74012e-08
7.19473e-08
2.82084e-08
6.12234e-08
1.42167e-08
5.47812e-08
8.3922e-09
5.02925e-08
5.91406e-09
4.68146e-08
4.6082e-09
4.40063e-08
3.71921e-09
4.16883e-08
3.06697e-09
3.97358e-08
2.58262e-09
3.80617e-08
2.21428e-09
3.66058e-08
1.92544e-09
3.53255e-08
1.69312e-09
3.4189e-08
1.50266e-09
3.31723e-08
1.34415e-09
3.22565e-08
1.2105e-09
3.14267e-08
1.09655e-09
3.06711e-08
9.98397e-10
2.998e-08
9.13094e-10
2.93452e-08
8.38348e-10
2.87603e-08
7.72357e-10
2.82196e-08
7.13686e-10
2.77186e-08
6.61175e-10
2.72532e-08
6.13873e-10
2.68202e-08
5.70998e-10
2.64166e-08
5.31891e-10
2.60401e-08
4.95998e-10
2.56884e-08
4.62848e-10
2.53599e-08
4.32026e-10
2.50531e-08
4.03187e-10
2.47666e-08
3.75985e-10
2.44994e-08
3.50186e-10
2.42507e-08
3.25429e-10
2.40197e-08
3.01636e-10
2.3806e-08
2.78283e-10
2.36091e-08
2.55608e-10
2.34291e-08
2.32635e-10
2.32656e-08
2.10287e-10
2.31195e-08
1.8658e-10
2.29899e-08
1.6384e-10
2.28792e-08
1.3819e-10
2.27853e-08
1.14335e-10
2.27131e-08
8.58664e-11
2.2658e-08
5.96335e-11
2.26281e-08
3.0329e-11
2.26167e-08
-4.27335e-12
2.2622e-08
-9.39855e-12
2.27001e-08
-1.38213e-10
2.25811e-08
2.97738e-10
-3.94437e-09
2.324e-08
1.58808e-07
1.35051e-07
1.36497e-07
8.97121e-08
1.17499e-07
4.72068e-08
1.03325e-07
2.83905e-08
9.33232e-08
1.83938e-08
8.6028e-08
1.32092e-08
8.03308e-08
1.03055e-08
7.56901e-08
8.35986e-09
7.1824e-08
6.93307e-09
6.85456e-08
5.86103e-09
6.57216e-08
5.03827e-09
6.32571e-08
4.38993e-09
6.10834e-08
3.86683e-09
5.91492e-08
3.43691e-09
5.7415e-08
3.07831e-09
5.58501e-08
2.77543e-09
5.44299e-08
2.51677e-09
5.31345e-08
2.29372e-09
5.1948e-08
2.09968e-09
5.08568e-08
1.92954e-09
4.98499e-08
1.77926e-09
4.89179e-08
1.6456e-09
4.80531e-08
1.52598e-09
4.72488e-08
1.41824e-09
4.64992e-08
1.32062e-09
4.57994e-08
1.23165e-09
4.51453e-08
1.15008e-09
4.45333e-08
1.07485e-09
4.39603e-08
1.00503e-09
4.34236e-08
9.39843e-10
4.29211e-08
8.78545e-10
4.24507e-08
8.20568e-10
4.20109e-08
7.65203e-10
4.16004e-08
7.12156e-10
4.12182e-08
6.60472e-10
4.08634e-08
6.10435e-10
4.05358e-08
5.60234e-10
4.02345e-08
5.11579e-10
3.99607e-08
4.60392e-10
3.97126e-08
4.11895e-10
3.94942e-08
3.56586e-10
3.93008e-08
3.07808e-10
3.91423e-08
2.44357e-10
3.90059e-08
1.96032e-10
3.89143e-08
1.21878e-10
3.88393e-08
7.08028e-11
3.88132e-08
1.66481e-11
3.88412e-08
-1.6621e-10
3.8842e-08
2.96942e-10
-3.64338e-09
3.8541e-08
1.75664e-07
1.30903e-07
1.65597e-07
9.97798e-08
1.52728e-07
6.00751e-08
1.40133e-07
4.09856e-08
1.29449e-07
2.90777e-08
1.20814e-07
2.18449e-08
1.13711e-07
1.74077e-08
1.07743e-07
1.43284e-08
1.02657e-07
1.20188e-08
9.82721e-08
1.02461e-08
9.4448e-08
8.86236e-09
9.10791e-08
7.75884e-09
8.80853e-08
6.86066e-09
8.54048e-08
6.11737e-09
8.29893e-08
5.49386e-09
8.08e-08
4.96474e-09
7.88056e-08
4.51112e-09
7.69807e-08
4.11865e-09
7.53041e-08
3.7763e-09
7.37582e-08
3.47542e-09
7.23283e-08
3.20915e-09
7.10019e-08
2.97198e-09
6.97685e-08
2.75944e-09
6.86189e-08
2.56784e-09
6.75454e-08
2.39413e-09
6.65412e-08
2.23576e-09
6.56008e-08
2.09056e-09
6.47189e-08
1.95669e-09
6.38914e-08
1.83254e-09
6.31145e-08
1.71675e-09
6.2385e-08
1.60806e-09
6.17001e-08
1.50543e-09
6.10576e-08
1.40772e-09
6.04555e-08
1.31432e-09
5.98922e-08
1.22375e-09
5.93663e-08
1.13629e-09
5.88774e-08
1.04918e-09
5.8424e-08
9.64952e-10
5.80073e-08
8.77095e-10
5.76249e-08
7.94256e-10
5.72814e-08
7.0009e-10
5.69706e-08
6.18606e-10
5.67049e-08
5.10122e-10
5.64677e-08
4.3317e-10
5.62874e-08
3.0219e-10
5.61289e-08
2.29342e-10
5.60351e-08
1.10407e-10
5.5988e-08
-1.19089e-10
5.60044e-08
2.80542e-10
-3.12158e-09
5.54826e-08
1.8456e-07
1.23128e-07
1.82322e-07
1.02018e-07
1.76106e-07
6.62914e-08
1.67766e-07
4.93254e-08
1.59148e-07
3.76962e-08
1.51245e-07
2.97477e-08
1.44181e-07
2.44716e-08
1.37893e-07
2.06163e-08
1.32308e-07
1.76044e-08
1.2734e-07
1.52133e-08
1.22906e-07
1.32967e-08
1.18928e-07
1.17371e-08
1.15341e-07
1.04475e-08
1.12092e-07
9.36686e-09
1.09134e-07
8.45095e-09
1.06432e-07
7.667e-09
1.03953e-07
6.99003e-09
1.01671e-07
6.40076e-09
9.95634e-08
5.88406e-09
9.76109e-08
5.42792e-09
9.57974e-08
5.02271e-09
9.41087e-08
4.66061e-09
9.25329e-08
4.33521e-09
9.10596e-08
4.04118e-09
8.96796e-08
3.7741e-09
8.83852e-08
3.53021e-09
8.71694e-08
3.30634e-09
8.60263e-08
3.09976e-09
8.49508e-08
2.90811e-09
8.39382e-08
2.72934e-09
8.29846e-08
2.5616e-09
8.20868e-08
2.40332e-09
8.12416e-08
2.25286e-09
8.04467e-08
2.10922e-09
7.97001e-08
1.97038e-09
7.89999e-08
1.83649e-09
7.83452e-08
1.70384e-09
7.77345e-08
1.57572e-09
7.71684e-08
1.44319e-09
7.66444e-08
1.31817e-09
7.61669e-08
1.1776e-09
7.57298e-08
1.05577e-09
7.53446e-08
8.95309e-10
7.49964e-08
7.81346e-10
7.471e-08
5.88596e-10
7.44577e-08
4.81631e-10
7.42708e-08
2.97369e-10
7.41416e-08
1.00498e-11
7.40887e-08
3.33411e-10
-2.54107e-09
7.35082e-08
1.90389e-07
1.14956e-07
1.91853e-07
1.00554e-07
1.90246e-07
6.7898e-08
1.86158e-07
5.34137e-08
1.80722e-07
4.31317e-08
1.74973e-07
3.54975e-08
1.69283e-07
3.01614e-08
1.63809e-07
2.60905e-08
1.58647e-07
2.27664e-08
1.53839e-07
2.00207e-08
1.49389e-07
1.77466e-08
1.45281e-07
1.58458e-08
1.41489e-07
1.42393e-08
1.37987e-07
1.28683e-08
1.3475e-07
1.16885e-08
1.31751e-07
1.06655e-08
1.28969e-07
9.7724e-09
1.26382e-07
8.98761e-09
1.23972e-07
8.29386e-09
1.21723e-07
7.67711e-09
1.1962e-07
7.12588e-09
1.1765e-07
6.63065e-09
1.15802e-07
6.18353e-09
1.14065e-07
5.77788e-09
1.12431e-07
5.40809e-09
1.10892e-07
5.06937e-09
1.0944e-07
4.75766e-09
1.08071e-07
4.46938e-09
1.06777e-07
4.20148e-09
1.05555e-07
3.95123e-09
1.04401e-07
3.71622e-09
1.0331e-07
3.49434e-09
1.02279e-07
3.28346e-09
1.01306e-07
3.08214e-09
1.00389e-07
2.88785e-09
9.95248e-08
2.70055e-09
9.87129e-08
2.51568e-09
9.79516e-08
2.33703e-09
9.72412e-08
2.15359e-09
9.65795e-08
1.97989e-09
9.59697e-08
1.78736e-09
9.54073e-08
1.61823e-09
9.49008e-08
1.40173e-09
9.44406e-08
1.24162e-09
9.4042e-08
9.87133e-10
9.3693e-08
8.30605e-10
9.34025e-08
5.87942e-10
9.31847e-08
2.2778e-10
9.3039e-08
4.7917e-10
-1.90068e-09
9.23986e-08
1.95541e-07
1.07229e-07
1.98248e-07
9.78462e-08
1.98971e-07
6.71757e-08
1.97791e-07
5.45928e-08
1.95161e-07
4.57618e-08
1.91822e-07
3.88364e-08
1.88095e-07
3.38887e-08
1.84151e-07
3.00341e-08
1.80141e-07
2.67765e-08
1.76175e-07
2.39867e-08
1.72322e-07
2.16e-08
1.6862e-07
1.95477e-08
1.6509e-07
1.77695e-08
1.6174e-07
1.62186e-08
1.5857e-07
1.48584e-08
1.55576e-07
1.36595e-08
1.5275e-07
1.25977e-08
1.50085e-07
1.16529e-08
1.47571e-07
1.08085e-08
1.45197e-07
1.00505e-08
1.42956e-07
9.36718e-09
1.40838e-07
8.74868e-09
1.38835e-07
8.18651e-09
1.36939e-07
7.67342e-09
1.35144e-07
7.20322e-09
1.33443e-07
6.7705e-09
1.3183e-07
6.3706e-09
1.303e-07
5.99941e-09
1.28848e-07
5.65335e-09
1.2747e-07
5.3292e-09
1.26162e-07
5.0241e-09
1.24921e-07
4.73549e-09
1.23744e-07
4.46083e-09
1.22628e-07
4.1983e-09
1.21571e-07
3.94494e-09
1.20571e-07
3.70048e-09
1.19627e-07
3.45967e-09
1.18737e-07
3.22655e-09
1.17902e-07
2.9886e-09
1.1712e-07
2.76195e-09
1.16393e-07
2.51438e-09
1.15719e-07
2.29272e-09
1.15102e-07
2.01874e-09
1.14539e-07
1.8046e-09
1.14035e-07
1.49096e-09
1.13594e-07
1.27149e-09
1.13205e-07
9.77227e-10
1.12895e-07
5.37589e-10
1.1266e-07
7.14294e-10
-1.20723e-09
1.11966e-07
2.00848e-07
9.99658e-08
2.03777e-07
9.49178e-08
2.05329e-07
6.56235e-08
2.05646e-07
5.4276e-08
2.04821e-07
4.6587e-08
2.03341e-07
4.03158e-08
2.01396e-07
3.58338e-08
1.9907e-07
3.23598e-08
1.9647e-07
2.93768e-08
1.93699e-07
2.67582e-08
1.90837e-07
2.44615e-08
1.87946e-07
2.24386e-08
1.85071e-07
2.06451e-08
1.82242e-07
1.90469e-08
1.79483e-07
1.76174e-08
1.76808e-07
1.63347e-08
1.74226e-07
1.51801e-08
1.71741e-07
1.41378e-08
1.69355e-07
1.3194e-08
1.67069e-07
1.23368e-08
1.6488e-07
1.1556e-08
1.62786e-07
1.08424e-08
1.60784e-07
1.01883e-08
1.58871e-07
9.5867e-09
1.57043e-07
9.03151e-09
1.55296e-07
8.51733e-09
1.53627e-07
8.03943e-09
1.52033e-07
7.59353e-09
1.5051e-07
7.17589e-09
1.49057e-07
6.78303e-09
1.47669e-07
6.4119e-09
1.46345e-07
6.05966e-09
1.45082e-07
5.72353e-09
1.43879e-07
5.40142e-09
1.42734e-07
5.09008e-09
1.41645e-07
4.78901e-09
1.40612e-07
4.49254e-09
1.39634e-07
4.20468e-09
1.38711e-07
3.91206e-09
1.37841e-07
3.63136e-09
1.37027e-07
3.32868e-09
1.36268e-07
3.05214e-09
1.35565e-07
2.72176e-09
1.3492e-07
2.44874e-09
1.34332e-07
2.07972e-09
1.33814e-07
1.78927e-09
1.33344e-07
1.44724e-09
1.3295e-07
9.31689e-10
1.32638e-07
1.02643e-09
-4.86743e-10
1.31917e-07
2.06447e-07
9.30506e-08
2.0934e-07
9.20246e-08
2.11039e-07
6.39253e-08
2.11934e-07
5.33809e-08
2.12004e-07
4.65168e-08
2.11619e-07
4.07008e-08
2.10891e-07
3.65615e-08
2.09824e-07
3.34274e-08
2.08454e-07
3.07463e-08
2.06842e-07
2.83708e-08
2.05042e-07
2.62608e-08
2.03106e-07
2.4375e-08
2.01075e-07
2.26757e-08
1.98987e-07
2.11355e-08
1.9687e-07
1.97345e-08
1.94748e-07
1.84567e-08
1.92639e-07
1.72888e-08
1.90558e-07
1.6219e-08
1.88515e-07
1.52372e-08
1.86517e-07
1.43344e-08
1.84571e-07
1.35025e-08
1.82679e-07
1.27343e-08
1.80844e-07
1.20232e-08
1.79067e-07
1.13633e-08
1.77349e-07
1.07494e-08
1.7569e-07
1.01764e-08
1.74089e-07
9.64018e-09
1.72546e-07
9.13661e-09
1.7106e-07
8.66214e-09
1.6963e-07
8.21338e-09
1.68254e-07
7.78732e-09
1.66933e-07
7.38106e-09
1.65665e-07
6.99181e-09
1.64449e-07
6.61735e-09
1.63284e-07
6.25432e-09
1.62171e-07
5.90205e-09
1.61109e-07
5.55468e-09
1.60098e-07
5.21606e-09
1.59137e-07
4.8725e-09
1.58228e-07
4.54046e-09
1.57371e-07
4.18597e-09
1.56567e-07
3.85578e-09
1.55816e-07
3.47273e-09
1.55125e-07
3.14003e-09
1.54484e-07
2.72042e-09
1.53917e-07
2.35709e-09
1.53395e-07
1.96932e-09
1.52938e-07
1.38817e-09
1.5257e-07
1.39474e-09
2.27938e-10
1.51855e-07
2.12289e-07
8.64238e-08
2.15153e-07
8.91604e-08
2.16793e-07
6.22854e-08
2.17846e-07
5.23278e-08
2.18263e-07
4.61003e-08
2.1838e-07
4.05833e-08
2.18306e-07
3.6636e-08
2.18008e-07
3.37249e-08
2.17481e-07
3.12739e-08
2.16742e-07
2.91097e-08
2.15816e-07
2.71863e-08
2.1473e-07
2.54614e-08
2.13509e-07
2.38967e-08
2.12179e-07
2.24654e-08
2.10764e-07
2.11492e-08
2.09286e-07
1.99349e-08
2.07763e-07
1.88115e-08
2.06212e-07
1.77701e-08
2.04646e-07
1.68032e-08
2.03077e-07
1.59039e-08
2.01513e-07
1.50662e-08
1.99963e-07
1.42846e-08
1.98432e-07
1.35541e-08
1.96925e-07
1.287e-08
1.95447e-07
1.2228e-08
1.93999e-07
1.16241e-08
1.92585e-07
1.10545e-08
1.91206e-07
1.05157e-08
1.89863e-07
1.00046e-08
1.88558e-07
9.51813e-09
1.87292e-07
9.05348e-09
1.86065e-07
8.60795e-09
1.84878e-07
8.17884e-09
1.83732e-07
7.76399e-09
1.82626e-07
7.36007e-09
1.81562e-07
6.96638e-09
1.80539e-07
6.57698e-09
1.7956e-07
6.19558e-09
1.78624e-07
5.80853e-09
1.77733e-07
5.43158e-09
1.76887e-07
5.03187e-09
1.7609e-07
4.65291e-09
1.75339e-07
4.22357e-09
1.74644e-07
3.83449e-09
1.73994e-07
3.37045e-09
1.73413e-07
2.93787e-09
1.72876e-07
2.50636e-09
1.72391e-07
1.87346e-09
1.71997e-07
1.78916e-09
9.0123e-10
1.71323e-07
2.1833e-07
8.00743e-08
2.21207e-07
8.62837e-08
2.22766e-07
6.07265e-08
2.23846e-07
5.12478e-08
2.24372e-07
4.55744e-08
2.24667e-07
4.02882e-08
2.24868e-07
3.64344e-08
2.24949e-07
3.36445e-08
2.24886e-07
3.13367e-08
2.2468e-07
2.93153e-08
2.24337e-07
2.75297e-08
2.23862e-07
2.5936e-08
2.23266e-07
2.44929e-08
2.2256e-07
2.31715e-08
2.21757e-07
2.19522e-08
2.20871e-07
2.08211e-08
2.19914e-07
1.97679e-08
2.189e-07
1.87843e-08
2.1784e-07
1.78634e-08
2.16744e-07
1.69998e-08
2.15622e-07
1.61884e-08
2.14481e-07
1.5425e-08
2.1333e-07
1.47055e-08
2.12174e-07
1.40262e-08
2.11018e-07
1.33837e-08
2.09868e-07
1.27745e-08
2.08726e-07
1.21958e-08
2.07598e-07
1.16445e-08
2.06484e-07
1.11178e-08
2.05389e-07
1.06132e-08
2.04315e-07
1.01281e-08
2.03262e-07
9.66017e-09
2.02235e-07
9.2068e-09
2.01232e-07
8.76603e-09
2.00258e-07
8.33462e-09
1.99312e-07
7.91193e-09
1.98397e-07
7.49209e-09
1.97514e-07
7.07863e-09
1.96665e-07
6.65823e-09
1.95851e-07
6.24558e-09
1.95073e-07
5.80978e-09
1.94336e-07
5.38987e-09
1.93636e-07
4.92278e-09
1.92987e-07
4.48405e-09
1.92374e-07
3.98299e-09
1.91823e-07
3.48923e-09
1.91312e-07
3.0169e-09
1.90839e-07
2.34721e-09
1.90454e-07
2.17369e-09
1.49699e-09
1.89858e-07
2.24559e-07
7.40085e-08
2.27471e-07
8.33715e-08
2.28963e-07
5.92351e-08
2.30048e-07
5.01626e-08
2.30615e-07
4.50072e-08
2.30959e-07
3.99443e-08
2.3125e-07
3.61434e-08
2.31478e-07
3.34163e-08
2.31624e-07
3.11911e-08
2.31685e-07
2.92543e-08
2.31661e-07
2.75536e-08
2.31551e-07
2.60461e-08
2.31354e-07
2.46893e-08
2.31074e-07
2.34519e-08
2.30714e-07
2.23124e-08
2.30279e-07
2.12559e-08
2.29776e-07
2.02709e-08
2.29211e-07
1.93486e-08
2.28593e-07
1.84821e-08
2.27927e-07
1.76658e-08
2.2722e-07
1.68951e-08
2.26479e-07
1.61658e-08
2.2571e-07
1.54746e-08
2.24918e-07
1.4818e-08
2.24109e-07
1.41932e-08
2.23286e-07
1.35973e-08
2.22454e-07
1.30275e-08
2.21618e-07
1.24813e-08
2.20779e-07
1.19564e-08
2.19942e-07
1.14502e-08
2.19109e-07
1.09608e-08
2.18284e-07
1.04857e-08
2.17468e-07
1.00227e-08
2.16664e-07
9.56999e-09
2.15874e-07
9.12441e-09
2.15101e-07
8.68541e-09
2.14346e-07
8.24721e-09
2.13611e-07
7.81315e-09
2.12899e-07
7.37045e-09
2.12212e-07
6.93245e-09
2.11551e-07
6.47084e-09
2.10922e-07
6.01932e-09
2.1032e-07
5.52409e-09
2.0976e-07
5.04461e-09
2.09228e-07
4.51458e-09
2.08747e-07
3.97052e-09
2.08302e-07
3.46141e-09
2.0788e-07
2.76908e-09
2.07543e-07
2.51153e-09
1.98297e-09
2.07057e-07
2.3098e-07
6.82346e-08
2.33936e-07
8.04155e-08
2.35368e-07
5.78029e-08
2.36459e-07
4.90712e-08
2.3706e-07
4.44064e-08
2.37419e-07
3.95851e-08
2.37732e-07
3.58309e-08
2.38006e-07
3.31422e-08
2.38227e-07
3.09701e-08
2.38397e-07
2.90844e-08
2.38518e-07
2.74325e-08
2.38589e-07
2.59753e-08
2.38607e-07
2.46711e-08
2.38571e-07
2.34875e-08
2.38482e-07
2.24023e-08
2.38338e-07
2.13992e-08
2.38143e-07
2.04661e-08
2.37898e-07
1.95934e-08
2.37607e-07
1.87736e-08
2.37272e-07
1.80006e-08
2.36898e-07
1.72696e-08
2.36487e-07
1.65764e-08
2.36044e-07
1.59174e-08
2.35573e-07
1.52896e-08
2.35076e-07
1.46898e-08
2.34558e-07
1.41155e-08
2.34021e-07
1.35641e-08
2.33469e-07
1.30332e-08
2.32905e-07
1.25204e-08
2.32332e-07
1.20236e-08
2.31752e-07
1.15406e-08
2.31168e-07
1.10694e-08
2.30583e-07
1.06078e-08
2.29999e-07
1.0154e-08
2.29419e-07
9.70497e-09
2.28844e-07
9.26018e-09
2.28277e-07
8.81398e-09
2.27721e-07
8.36942e-09
2.27177e-07
7.91441e-09
2.26649e-07
7.46068e-09
2.26137e-07
6.98291e-09
2.25647e-07
6.50904e-09
2.25176e-07
5.99485e-09
2.24737e-07
5.48412e-09
2.24318e-07
4.9328e-09
2.23939e-07
4.35024e-09
2.23591e-07
3.80902e-09
2.23254e-07
3.10582e-09
2.22994e-07
2.77169e-09
2.33538e-09
2.22642e-07
2.37601e-07
6.27585e-08
2.40603e-07
7.7413e-08
2.41978e-07
5.64277e-08
2.43075e-07
4.79749e-08
2.43713e-07
4.37684e-08
2.44085e-07
3.92125e-08
2.44403e-07
3.5513e-08
2.4469e-07
3.28557e-08
2.44934e-07
3.07264e-08
2.4514e-07
2.8878e-08
2.45315e-07
2.72572e-08
2.45461e-07
2.58298e-08
2.45576e-07
2.45562e-08
2.45659e-07
2.34044e-08
2.45709e-07
2.23518e-08
2.45726e-07
2.1382e-08
2.4571e-07
2.04826e-08
2.4566e-07
1.96433e-08
2.45577e-07
1.88564e-08
2.45462e-07
1.81154e-08
2.45317e-07
1.74151e-08
2.45142e-07
1.67511e-08
2.4494e-07
1.61197e-08
2.44712e-07
1.55176e-08
2.4446e-07
1.49417e-08
2.44186e-07
1.43893e-08
2.43893e-07
1.38577e-08
2.43581e-07
1.33445e-08
2.43254e-07
1.28474e-08
2.42913e-07
1.23642e-08
2.42561e-07
1.18928e-08
2.422e-07
1.14311e-08
2.41831e-07
1.09768e-08
2.41456e-07
1.05283e-08
2.41079e-07
1.00825e-08
2.407e-07
9.6388e-09
2.40323e-07
9.19171e-09
2.39948e-07
8.74387e-09
2.39579e-07
8.28395e-09
2.39217e-07
7.8219e-09
2.38865e-07
7.33559e-09
2.38527e-07
6.84704e-09
2.382e-07
6.32136e-09
2.37896e-07
5.78798e-09
2.37607e-07
5.22161e-09
2.37346e-07
4.61149e-09
2.37113e-07
4.04267e-09
2.36882e-07
3.33682e-09
2.36719e-07
2.93432e-09
2.54287e-09
2.36511e-07
2.44431e-07
5.75838e-08
2.47473e-07
7.43709e-08
2.48799e-07
5.51015e-08
2.49896e-07
4.68783e-08
2.50573e-07
4.30917e-08
2.50962e-07
3.88227e-08
2.51285e-07
3.51907e-08
2.51577e-07
3.25637e-08
2.51828e-07
3.0475e-08
2.52045e-07
2.86608e-08
2.52238e-07
2.70649e-08
2.52409e-07
2.56585e-08
2.5256e-07
2.44049e-08
2.52692e-07
2.32726e-08
2.52804e-07
2.22395e-08
2.52897e-07
2.12894e-08
2.52969e-07
2.041e-08
2.53022e-07
1.9591e-08
2.53054e-07
1.88245e-08
2.53065e-07
1.81038e-08
2.53057e-07
1.74237e-08
2.53028e-07
1.67795e-08
2.52981e-07
1.61674e-08
2.52914e-07
1.5584e-08
2.5283e-07
1.50262e-08
2.52728e-07
1.4491e-08
2.5261e-07
1.39757e-08
2.52477e-07
1.34778e-08
2.52329e-07
1.29949e-08
2.52169e-07
1.25247e-08
2.51997e-07
1.20649e-08
2.51814e-07
1.16135e-08
2.51623e-07
1.11681e-08
2.51424e-07
1.0727e-08
2.5122e-07
1.0287e-08
2.51011e-07
9.84746e-09
2.508e-07
9.40299e-09
2.50588e-07
8.9557e-09
2.50377e-07
8.49515e-09
2.50169e-07
8.0293e-09
2.49966e-07
7.53927e-09
2.49771e-07
7.04134e-09
2.49584e-07
6.50912e-09
2.49412e-07
5.95974e-09
2.49251e-07
5.38253e-09
2.49109e-07
4.75358e-09
2.48991e-07
4.16085e-09
2.48871e-07
3.45655e-09
2.48812e-07
2.99317e-09
2.60786e-09
2.48747e-07
2.51478e-07
5.27122e-08
2.54551e-07
7.12986e-08
2.55838e-07
5.38139e-08
2.5693e-07
4.57869e-08
2.57644e-07
4.23773e-08
2.58054e-07
3.84129e-08
2.58382e-07
3.48626e-08
2.58679e-07
3.22666e-08
2.58936e-07
3.02184e-08
2.59157e-07
2.8439e-08
2.59355e-07
2.68673e-08
2.59534e-07
2.54794e-08
2.59697e-07
2.42417e-08
2.59846e-07
2.31238e-08
2.59982e-07
2.2104e-08
2.60104e-07
2.11666e-08
2.60215e-07
2.02994e-08
2.60314e-07
1.94925e-08
2.604e-07
1.87379e-08
2.60475e-07
1.80291e-08
2.60538e-07
1.73608e-08
2.60589e-07
1.67284e-08
2.60628e-07
1.61281e-08
2.60656e-07
1.55564e-08
2.60672e-07
1.50101e-08
2.60676e-07
1.44863e-08
2.6067e-07
1.39821e-08
2.60653e-07
1.34949e-08
2.60626e-07
1.30223e-08
2.60589e-07
1.25617e-08
2.60543e-07
1.21109e-08
2.60488e-07
1.16678e-08
2.60427e-07
1.12297e-08
2.60359e-07
1.07951e-08
2.60285e-07
1.03605e-08
2.60207e-07
9.92528e-09
2.60126e-07
9.48402e-09
2.60044e-07
9.03828e-09
2.5996e-07
8.57855e-09
2.59879e-07
8.11075e-09
2.59799e-07
7.61913e-09
2.59725e-07
7.1147e-09
2.59656e-07
6.57836e-09
2.59599e-07
6.01734e-09
2.5955e-07
5.43135e-09
2.59514e-07
4.78953e-09
2.59499e-07
4.17535e-09
2.59483e-07
3.47298e-09
2.59522e-07
2.95453e-09
2.54488e-09
2.59585e-07
2.58751e-07
4.8144e-08
2.61844e-07
6.8206e-08
2.63103e-07
5.25543e-08
2.64185e-07
4.47058e-08
2.64934e-07
4.16277e-08
2.65366e-07
3.7981e-08
2.65701e-07
3.45276e-08
2.66004e-07
3.19638e-08
2.66266e-07
2.99564e-08
2.66491e-07
2.82133e-08
2.66692e-07
2.66667e-08
2.66874e-07
2.52971e-08
2.67041e-07
2.40746e-08
2.67195e-07
2.29697e-08
2.67339e-07
2.1961e-08
2.67472e-07
2.10333e-08
2.67596e-07
2.01748e-08
2.67713e-07
1.93759e-08
2.67822e-07
1.86288e-08
2.67924e-07
1.79271e-08
2.68019e-07
1.72655e-08
2.68108e-07
1.66398e-08
2.6819e-07
1.6046e-08
2.68266e-07
1.54807e-08
2.68335e-07
1.49409e-08
2.68398e-07
1.44235e-08
2.68454e-07
1.39257e-08
2.68505e-07
1.34448e-08
2.68549e-07
1.29782e-08
2.68587e-07
1.25236e-08
2.68619e-07
1.20784e-08
2.68647e-07
1.16405e-08
2.68669e-07
1.12071e-08
2.68688e-07
1.07766e-08
2.68702e-07
1.03456e-08
2.68715e-07
9.91308e-09
2.68725e-07
9.47389e-09
2.68734e-07
9.0289e-09
2.68743e-07
8.56956e-09
2.68754e-07
8.09982e-09
2.68766e-07
7.60677e-09
2.68784e-07
7.09682e-09
2.68806e-07
6.55676e-09
2.68837e-07
5.98646e-09
2.68876e-07
5.39204e-09
2.68925e-07
4.74065e-09
2.68994e-07
4.10627e-09
2.69064e-07
3.40321e-09
2.69185e-07
2.83348e-09
2.37627e-09
2.69354e-07
2.66259e-07
4.38773e-08
2.69361e-07
6.51038e-08
2.70603e-07
5.13121e-08
2.7167e-07
4.36394e-08
2.72451e-07
4.08463e-08
2.72907e-07
3.75252e-08
2.73249e-07
3.4185e-08
2.73558e-07
3.16554e-08
2.73826e-07
2.96884e-08
2.74056e-07
2.79833e-08
2.74259e-07
2.64632e-08
2.74444e-07
2.51127e-08
2.74613e-07
2.39055e-08
2.74769e-07
2.28133e-08
2.74915e-07
2.18153e-08
2.75052e-07
2.08966e-08
2.75181e-07
2.00456e-08
2.75304e-07
1.92531e-08
2.75421e-07
1.85115e-08
2.75533e-07
1.78147e-08
2.75641e-07
1.71574e-08
2.75746e-07
1.65355e-08
2.75846e-07
1.59452e-08
2.75944e-07
1.53834e-08
2.76038e-07
1.48468e-08
2.76129e-07
1.43326e-08
2.76217e-07
1.38379e-08
2.76301e-07
1.33601e-08
2.76383e-07
1.28965e-08
2.76462e-07
1.24448e-08
2.76538e-07
1.20022e-08
2.76612e-07
1.15667e-08
2.76683e-07
1.11355e-08
2.76753e-07
1.07068e-08
2.76822e-07
1.02771e-08
2.76889e-07
9.84532e-09
2.76957e-07
9.40646e-09
2.77025e-07
8.96072e-09
2.77094e-07
8.50048e-09
2.77166e-07
8.02789e-09
2.7724e-07
7.5325e-09
2.7732e-07
7.01693e-09
2.77404e-07
6.47239e-09
2.77497e-07
5.8937e-09
2.77599e-07
5.29018e-09
2.77709e-07
4.63041e-09
2.77839e-07
3.97622e-09
2.77975e-07
3.26791e-09
2.78159e-07
2.64888e-09
2.12709e-09
2.78408e-07
2.7401e-07
3.99088e-08
2.77111e-07
6.20028e-08
2.78346e-07
5.00772e-08
2.79394e-07
4.25913e-08
2.80203e-07
4.00372e-08
2.80684e-07
3.70441e-08
2.81035e-07
3.38337e-08
2.81349e-07
3.13415e-08
2.81623e-07
2.94143e-08
2.81858e-07
2.77486e-08
2.82065e-07
2.62566e-08
2.82251e-07
2.49259e-08
2.82422e-07
2.37344e-08
2.8258e-07
2.26554e-08
2.82728e-07
2.16682e-08
2.82866e-07
2.07583e-08
2.82997e-07
1.99146e-08
2.83122e-07
1.91282e-08
2.83242e-07
1.83915e-08
2.83358e-07
1.76986e-08
2.83471e-07
1.70446e-08
2.83581e-07
1.64254e-08
2.83689e-07
1.58373e-08
2.83795e-07
1.52773e-08
2.83899e-07
1.47424e-08
2.84002e-07
1.42296e-08
2.84104e-07
1.37362e-08
2.84204e-07
1.32596e-08
2.84304e-07
1.27971e-08
2.84402e-07
1.23462e-08
2.845e-07
1.19043e-08
2.84598e-07
1.14693e-08
2.84695e-07
1.10384e-08
2.84792e-07
1.06095e-08
2.8489e-07
1.01794e-08
2.84989e-07
9.74664e-09
2.85089e-07
9.30653e-09
2.85191e-07
8.85859e-09
2.85295e-07
8.39609e-09
2.85403e-07
7.91957e-09
2.85515e-07
7.42061e-09
2.85633e-07
6.89887e-09
2.85757e-07
6.34866e-09
2.85889e-07
5.76171e-09
2.86031e-07
5.14804e-09
2.86182e-07
4.47973e-09
2.86353e-07
3.80559e-09
2.86534e-07
3.08663e-09
2.86764e-07
2.41901e-09
1.82081e-09
2.8707e-07
2.82013e-07
3.62331e-08
2.85101e-07
5.89147e-08
2.86339e-07
4.884e-08
2.87366e-07
4.15641e-08
2.88198e-07
3.92051e-08
2.88706e-07
3.65362e-08
2.89067e-07
3.34726e-08
2.89386e-07
3.10221e-08
2.89666e-07
2.9134e-08
2.89906e-07
2.75088e-08
2.90116e-07
2.60464e-08
2.90306e-07
2.47364e-08
2.90479e-07
2.35613e-08
2.90639e-07
2.24957e-08
2.90787e-07
2.15197e-08
2.90927e-07
2.06189e-08
2.91059e-07
1.97826e-08
2.91185e-07
1.90021e-08
2.91306e-07
1.82703e-08
2.91423e-07
1.75812e-08
2.91538e-07
1.69301e-08
2.9165e-07
1.63131e-08
2.91761e-07
1.57267e-08
2.9187e-07
1.51679e-08
2.91979e-07
1.46339e-08
2.92086e-07
1.41217e-08
2.92194e-07
1.36288e-08
2.92301e-07
1.31524e-08
2.92408e-07
1.26899e-08
2.92516e-07
1.22388e-08
2.92623e-07
1.17966e-08
2.92732e-07
1.13609e-08
2.92841e-07
1.0929e-08
2.92952e-07
1.04988e-08
2.93064e-07
1.00672e-08
2.93179e-07
9.63227e-09
2.93295e-07
9.18979e-09
2.93415e-07
8.7386e-09
2.93539e-07
8.27275e-09
2.93667e-07
7.79144e-09
2.938e-07
7.28784e-09
2.93939e-07
6.75942e-09
2.94085e-07
6.20241e-09
2.9424e-07
5.60699e-09
2.94406e-07
4.98218e-09
2.94581e-07
4.30446e-09
2.94777e-07
3.61008e-09
2.94988e-07
2.87508e-09
2.95248e-07
2.15876e-09
1.47704e-09
2.95592e-07
2.90279e-07
3.28431e-08
2.93342e-07
5.58512e-08
2.94591e-07
4.75917e-08
2.95595e-07
4.05597e-08
2.96445e-07
3.83552e-08
2.9698e-07
3.60008e-08
2.97353e-07
3.31002e-08
2.97678e-07
3.06972e-08
2.97964e-07
2.88475e-08
2.98209e-07
2.72635e-08
2.98423e-07
2.58325e-08
2.98616e-07
2.45442e-08
2.98791e-07
2.33858e-08
2.98953e-07
2.23342e-08
2.99103e-07
2.13696e-08
2.99243e-07
2.04782e-08
2.99376e-07
1.96495e-08
2.99503e-07
1.88752e-08
2.99625e-07
1.81482e-08
2.99744e-07
1.74628e-08
2.99859e-07
1.68146e-08
2.99973e-07
1.61997e-08
3.00084e-07
1.56149e-08
3.00195e-07
1.50571e-08
3.00305e-07
1.45237e-08
3.00415e-07
1.40119e-08
3.00525e-07
1.3519e-08
3.00635e-07
1.30423e-08
3.00746e-07
1.25794e-08
3.00857e-07
1.21276e-08
3.00969e-07
1.16844e-08
3.01082e-07
1.12475e-08
3.01197e-07
1.08141e-08
3.01314e-07
1.0382e-08
3.01433e-07
9.9481e-09
3.01555e-07
9.51045e-09
3.0168e-07
9.06491e-09
3.01808e-07
8.60983e-09
3.01941e-07
8.13993e-09
3.02079e-07
7.6533e-09
3.02223e-07
7.14429e-09
3.02374e-07
6.60884e-09
3.02532e-07
6.04419e-09
3.02699e-07
5.44004e-09
3.02877e-07
4.80339e-09
3.03067e-07
4.11512e-09
3.03277e-07
3.40019e-09
3.03507e-07
2.64444e-09
3.03787e-07
1.87885e-09
1.11037e-09
3.04154e-07
2.98816e-07
2.973e-08
3.01843e-07
5.28242e-08
3.0311e-07
4.63243e-08
3.04091e-07
3.9579e-08
3.04953e-07
3.7493e-08
3.05517e-07
3.54372e-08
3.05902e-07
3.27151e-08
3.06232e-07
3.03667e-08
3.06525e-07
2.85548e-08
3.06776e-07
2.70124e-08
3.06994e-07
2.56144e-08
3.07189e-07
2.4349e-08
3.07367e-07
2.3208e-08
3.07531e-07
2.21707e-08
3.07682e-07
2.1218e-08
3.07824e-07
2.03362e-08
3.07959e-07
1.95153e-08
3.08087e-07
1.87472e-08
3.0821e-07
1.80251e-08
3.08329e-07
1.73436e-08
3.08445e-07
1.66983e-08
3.08559e-07
1.60855e-08
3.08672e-07
1.55021e-08
3.08784e-07
1.49454e-08
3.08895e-07
1.44125e-08
3.09006e-07
1.39009e-08
3.09117e-07
1.34079e-08
3.09229e-07
1.29309e-08
3.09341e-07
1.24673e-08
3.09454e-07
1.20146e-08
3.09568e-07
1.15703e-08
3.09684e-07
1.11318e-08
3.09801e-07
1.06965e-08
3.09921e-07
1.02623e-08
3.10043e-07
9.82578e-09
3.10169e-07
9.38503e-09
3.10297e-07
8.93607e-09
3.1043e-07
8.47679e-09
3.10568e-07
8.00243e-09
3.10711e-07
7.51022e-09
3.1086e-07
6.99532e-09
3.11016e-07
6.45268e-09
3.11181e-07
5.87986e-09
3.11354e-07
5.26675e-09
3.11539e-07
4.61788e-09
3.11737e-07
3.9179e-09
3.11955e-07
3.18221e-09
3.12197e-07
2.40183e-09
3.12489e-07
1.58675e-09
7.31138e-10
3.12868e-07
3.07634e-07
2.68832e-08
3.10612e-07
4.98459e-08
3.11906e-07
4.5031e-08
3.12863e-07
3.86219e-08
3.13732e-07
3.66238e-08
3.14323e-07
3.4846e-08
3.14723e-07
3.23156e-08
3.15059e-07
3.00305e-08
3.15358e-07
2.8256e-08
3.15615e-07
2.67554e-08
3.15837e-07
2.53918e-08
3.16036e-07
2.41505e-08
3.16216e-07
2.30275e-08
3.16382e-07
2.2005e-08
3.16536e-07
2.10644e-08
3.16679e-07
2.01926e-08
3.16815e-07
1.93797e-08
3.16944e-07
1.8618e-08
3.17068e-07
1.7901e-08
3.17188e-07
1.72234e-08
3.17306e-07
1.65811e-08
3.17421e-07
1.59704e-08
3.17534e-07
1.53885e-08
3.17647e-07
1.48327e-08
3.17759e-07
1.43003e-08
3.17871e-07
1.37889e-08
3.17983e-07
1.32958e-08
3.18096e-07
1.28184e-08
3.18209e-07
1.23541e-08
3.18323e-07
1.19004e-08
3.18439e-07
1.14547e-08
3.18556e-07
1.10147e-08
3.18675e-07
1.05774e-08
3.18796e-07
1.01408e-08
3.1892e-07
9.7016e-09
3.19048e-07
9.2576e-09
3.19179e-07
8.80505e-09
3.19314e-07
8.34144e-09
3.19454e-07
7.86239e-09
3.196e-07
7.36452e-09
3.19752e-07
6.84345e-09
3.19911e-07
6.29359e-09
3.20078e-07
5.71232e-09
3.20255e-07
5.09009e-09
3.20444e-07
4.42885e-09
3.20646e-07
3.71615e-09
3.20869e-07
2.95958e-09
3.21119e-07
2.15163e-09
3.21418e-07
1.28732e-09
3.46397e-10
3.21803e-07
3.16744e-07
2.42907e-08
3.19661e-07
4.69283e-08
3.20986e-07
4.37066e-08
3.2192e-07
3.76874e-08
3.22791e-07
3.57527e-08
3.23409e-07
3.42281e-08
3.23825e-07
3.19003e-08
3.24167e-07
2.96881e-08
3.24472e-07
2.79511e-08
3.24735e-07
2.64921e-08
3.24963e-07
2.51644e-08
3.25165e-07
2.39484e-08
3.25348e-07
2.28441e-08
3.25516e-07
2.18368e-08
3.25672e-07
2.09088e-08
3.25817e-07
2.00472e-08
3.25954e-07
1.92426e-08
3.26085e-07
1.84875e-08
3.2621e-07
1.77757e-08
3.26331e-07
1.71022e-08
3.2645e-07
1.64628e-08
3.26566e-07
1.58543e-08
3.2668e-07
1.52739e-08
3.26794e-07
1.47191e-08
3.26907e-07
1.41872e-08
3.2702e-07
1.3676e-08
3.27133e-07
1.31827e-08
3.27247e-07
1.27048e-08
3.27361e-07
1.22398e-08
3.27476e-07
1.17851e-08
3.27593e-07
1.13381e-08
3.27711e-07
1.08963e-08
3.27832e-07
1.04571e-08
3.27954e-07
1.0018e-08
3.2808e-07
9.57603e-09
3.28209e-07
9.12871e-09
3.28341e-07
8.67248e-09
3.28478e-07
8.2045e-09
3.2862e-07
7.72066e-09
3.28768e-07
7.21715e-09
3.28921e-07
6.68979e-09
3.29082e-07
6.13274e-09
3.29251e-07
5.54293e-09
3.2943e-07
4.91145e-09
3.29621e-07
4.23787e-09
3.29826e-07
3.51161e-09
3.30051e-07
2.73414e-09
3.30306e-07
1.89671e-09
3.30609e-07
9.83841e-10
-3.88803e-11
3.30995e-07
3.26154e-07
2.19391e-08
3.28999e-07
4.40831e-08
3.30359e-07
4.23473e-08
3.31273e-07
3.67734e-08
3.32141e-07
3.48846e-08
3.32784e-07
3.35852e-08
3.33216e-07
3.14675e-08
3.33566e-07
2.93388e-08
3.33877e-07
2.76402e-08
3.34146e-07
2.62223e-08
3.34379e-07
2.49317e-08
3.34585e-07
2.37425e-08
3.34771e-07
2.26576e-08
3.34942e-07
2.1666e-08
3.351e-07
2.0751e-08
3.35247e-07
1.99e-08
3.35386e-07
1.91039e-08
3.35518e-07
1.83556e-08
3.35645e-07
1.76491e-08
3.35767e-07
1.69796e-08
3.35887e-07
1.63433e-08
3.36004e-07
1.57371e-08
3.36119e-07
1.51582e-08
3.36234e-07
1.46043e-08
3.36348e-07
1.4073e-08
3.36462e-07
1.35619e-08
3.36577e-07
1.30685e-08
3.36691e-07
1.25902e-08
3.36807e-07
1.21244e-08
3.36923e-07
1.16686e-08
3.37041e-07
1.12202e-08