/*--------------------------------*- C++ -*----------------------------------*\
  =========                 |
  \\      /  F ield         | OpenFOAM: The Open Source CFD Toolbox
   \\    /   O peration     | Website:  https://openfoam.org
    \\  /    A nd           | Version:  7
     \\/     M anipulation  |
\*---------------------------------------------------------------------------*/
FoamFile
{
    version     2.0;
    format      ascii;
    class       volVectorField;
    location    "0.25";
    object      U;
}
// * * * * * * * * * * * * * * * * * * * * * * * * * * * * * * * * * * * * * //

dimensions      [0 1 -1 0 0 0 0];

internalField   nonuniform List<vector> 
70000
(
(0.553391 0.016723 0)
(0.251266 0.00340093 0)
(0.16621 0.000321915 0)
(0.132468 5.41921e-05 0)
(0.117282 4.5625e-05 0)
(0.107366 5.37906e-05 0)
(0.099428 4.61466e-05 0)
(0.0930006 3.67945e-05 0)
(0.0877714 3.04653e-05 0)
(0.0834204 2.6121e-05 0)
(0.0797191 2.28034e-05 0)
(0.0765194 2.01404e-05 0)
(0.0737199 1.79632e-05 0)
(0.0712461 1.61587e-05 0)
(0.069042 1.4643e-05 0)
(0.0670639 1.33538e-05 0)
(0.0652775 1.22443e-05 0)
(0.0636557 1.1279e-05 0)
(0.0621764 1.04312e-05 0)
(0.0608214 9.67935e-06 0)
(0.059576 9.00683e-06 0)
(0.0584277 8.39993e-06 0)
(0.0573661 7.8475e-06 0)
(0.0563825 7.34013e-06 0)
(0.0554696 6.86976e-06 0)
(0.0546209 6.42959e-06 0)
(0.0538312 6.0129e-06 0)
(0.0530959 5.6152e-06 0)
(0.0524113 5.22918e-06 0)
(0.0517739 4.85352e-06 0)
(0.0511814 4.47749e-06 0)
(0.0506313 4.10587e-06 0)
(0.0501222 3.71887e-06 0)
(0.0496522 3.33399e-06 0)
(0.0492211 2.91301e-06 0)
(0.0488278 2.4958e-06 0)
(0.0484725 2.01801e-06 0)
(0.0481558 1.53818e-06 0)
(0.0478764 9.98735e-07 0)
(0.0476412 3.77952e-07 0)
(0.0474378 -1.32901e-07 0)
(0.0472975 -1.14718e-06 0)
(0.0471634 -1.18521e-06 0)
(0.047151 -3.43081e-06 0)
(0.0470508 -1.33804e-06 0)
(0.0472475 -7.56071e-06 0)
(0.0470549 2.23798e-06 0)
(0.0476431 -1.68482e-05 0)
(0.0471714 3.18562e-05 0)
(0.0447826 -0.00175325 0)
(0.8849 0.0431671 0)
(0.649723 0.0201937 0)
(0.494334 0.00659793 0)
(0.403687 0.00276713 0)
(0.354773 0.00155137 0)
(0.323487 0.00113074 0)
(0.299651 0.000909267 0)
(0.280485 0.000745059 0)
(0.264809 0.00062189 0)
(0.251733 0.000530818 0)
(0.240605 0.000461615 0)
(0.230983 0.000407104 0)
(0.222561 0.000363015 0)
(0.215115 0.000326683 0)
(0.208476 0.000296294 0)
(0.202514 0.000270545 0)
(0.197127 0.000248475 0)
(0.192232 0.000229363 0)
(0.187764 0.000212657 0)
(0.183667 0.000197927 0)
(0.179898 0.000184836 0)
(0.176419 0.000173113 0)
(0.173199 0.000162536 0)
(0.170211 0.000152923 0)
(0.167433 0.000144121 0)
(0.164846 0.000136001 0)
(0.162433 0.00012845 0)
(0.160181 0.000121373 0)
(0.158077 0.000114679 0)
(0.156111 0.000108295 0)
(0.154276 0.000102136 0)
(0.152563 9.61553e-05 0)
(0.150967 9.02451e-05 0)
(0.149482 8.44046e-05 0)
(0.148106 7.84552e-05 0)
(0.146836 7.24989e-05 0)
(0.145669 6.61896e-05 0)
(0.144608 5.98501e-05 0)
(0.143646 5.28134e-05 0)
(0.1428 4.57806e-05 0)
(0.142038 3.76601e-05 0)
(0.141441 2.94627e-05 0)
(0.140857 2.02871e-05 0)
(0.140591 9.81914e-06 0)
(0.140094 1.7306e-06 0)
(0.140373 -1.51007e-05 0)
(0.139665 -8.53278e-06 0)
(0.140948 -7.25043e-05 0)
(0.139641 0.000205863 0)
(0.138598 -0.0028535 0)
(0.991238 0.049901 0)
(0.890354 0.0307182 0)
(0.762699 0.0145971 0)
(0.656699 0.00797881 0)
(0.585389 0.00488358 0)
(0.536006 0.00346919 0)
(0.49817 0.00273291 0)
(0.467592 0.00223974 0)
(0.442328 0.00187568 0)
(0.42108 0.00160315 0)
(0.402901 0.00139479 0)
(0.387121 0.00123066 0)
(0.373266 0.00109801 0)
(0.360984 0.000988713 0)
(0.350009 0.000897287 0)
(0.340133 0.000819813 0)
(0.331193 0.000753412 0)
(0.323058 0.00069592 0)
(0.31562 0.000645684 0)
(0.308792 0.000601417 0)
(0.302501 0.000562107 0)
(0.296687 0.00052694 0)
(0.291298 0.000495256 0)
(0.286291 0.000466508 0)
(0.281629 0.000440244 0)
(0.27728 0.000416078 0)
(0.273218 0.000393681 0)
(0.269418 0.000372769 0)
(0.265861 0.000353084 0)
(0.262531 0.000334409 0)
(0.259411 0.000316517 0)
(0.25649 0.000299249 0)
(0.253759 0.000282353 0)
(0.251205 0.000265762 0)
(0.248826 0.000249085 0)
(0.246613 0.000232484 0)
(0.244563 0.000215169 0)
(0.242677 0.000197892 0)
(0.240945 0.000178886 0)
(0.23939 0.000160316 0)
(0.237962 0.000138253 0)
(0.236778 0.000117901 0)
(0.235619 9.12292e-05 0)
(0.234918 6.86687e-05 0)
(0.233899 3.75255e-05 0)
(0.233975 9.31518e-06 0)
(0.232705 -6.18046e-06 0)
(0.234163 -0.000119704 0)
(0.232068 0.000236039 0)
(0.233265 -0.00283467 0)
(1.0156 0.0489198 0)
(1.00596 0.0358741 0)
(0.935964 0.0207908 0)
(0.852144 0.0135032 0)
(0.782219 0.00920586 0)
(0.727044 0.006778 0)
(0.681996 0.00537872 0)
(0.644285 0.00443785 0)
(0.612326 0.00374231 0)
(0.584932 0.00321464 0)
(0.561165 0.00280652 0)
(0.540319 0.00248284 0)
(0.521864 0.0022201 0)
(0.505394 0.00200288 0)
(0.490595 0.00182064 0)
(0.477217 0.00166582 0)
(0.465058 0.00153287 0)
(0.453954 0.00141756 0)
(0.443771 0.00131668 0)
(0.434398 0.00122771 0)
(0.42574 0.00114864 0)
(0.41772 0.00107789 0)
(0.41027 0.00101414 0)
(0.403334 0.000956317 0)
(0.396863 0.000903524 0)
(0.390814 0.000854999 0)
(0.385152 0.000810096 0)
(0.379846 0.00076825 0)
(0.374868 0.000728964 0)
(0.370196 0.000691802 0)
(0.365809 0.000656344 0)
(0.361689 0.000622255 0)
(0.357823 0.000589098 0)
(0.354197 0.000556687 0)
(0.350803 0.000524379 0)
(0.347629 0.000492365 0)
(0.344673 0.000459324 0)
(0.341929 0.000426519 0)
(0.339388 0.000390753 0)
(0.337074 0.000356206 0)
(0.334929 0.000314871 0)
(0.333082 0.000278339 0)
(0.331287 0.000227246 0)
(0.330029 0.000189962 0)
(0.328441 0.000124885 0)
(0.328085 8.60615e-05 0)
(0.326304 2.89322e-05 0)
(0.327459 -0.000116064 0)
(0.324873 0.000206353 0)
(0.326726 -0.00245653 0)
(1.01434 0.0460031 0)
(1.04754 0.0374874 0)
(1.02459 0.0241505 0)
(0.974774 0.0175576 0)
(0.923472 0.0131195 0)
(0.876719 0.0102013 0)
(0.834588 0.00833517 0)
(0.796886 0.00701122 0)
(0.763386 0.0059983 0)
(0.733649 0.00520755 0)
(0.707165 0.00458226 0)
(0.683463 0.00407839 0)
(0.662142 0.00366455 0)
(0.642869 0.00331925 0)
(0.625366 0.00302737 0)
(0.609403 0.00277789 0)
(0.594785 0.00256252 0)
(0.58135 0.00237494 0)
(0.56896 0.00221023 0)
(0.557498 0.00206453 0)
(0.546866 0.00193473 0)
(0.536977 0.00181834 0)
(0.527758 0.00171331 0)
(0.519146 0.00161793 0)
(0.511086 0.00153078 0)
(0.503531 0.00145064 0)
(0.49644 0.00137649 0)
(0.489775 0.00130742 0)
(0.483507 0.00124265 0)
(0.477606 0.00118146 0)
(0.47205 0.00112321 0)
(0.466818 0.00106734 0)
(0.461892 0.0010132 0)
(0.457257 0.000960433 0)
(0.4529 0.000908132 0)
(0.44881 0.000856476 0)
(0.444981 0.00080358 0)
(0.441405 0.00075122 0)
(0.438073 0.000694654 0)
(0.435005 0.00064024 0)
(0.432145 0.000575488 0)
(0.429616 0.000519006 0)
(0.427181 0.000439021 0)
(0.425305 0.000383194 0)
(0.423161 0.000279772 0)
(0.42222 0.000224947 0)
(0.420029 0.000122565 0)
(0.420521 -5.25764e-05 0)
(0.417821 0.000210876 0)
(0.419008 -0.0020446 0)
(1.00933 0.0429144 0)
(1.05528 0.0372624 0)
(1.05869 0.0252944 0)
(1.03638 0.0197569 0)
(1.00712 0.0158079 0)
(0.976083 0.0129298 0)
(0.94458 0.0109503 0)
(0.913748 0.00946438 0)
(0.884444 0.00826967 0)
(0.857055 0.00729723 0)
(0.831661 0.00650242 0)
(0.8082 0.00584534 0)
(0.78655 0.0052947 0)
(0.766568 0.00482777 0)
(0.748107 0.00442782 0)
(0.731023 0.00408217 0)
(0.715186 0.00378102 0)
(0.700476 0.00351667 0)
(0.686785 0.00328301 0)
(0.674019 0.00307513 0)
(0.662092 0.00288904 0)
(0.65093 0.00272148 0)
(0.640465 0.00256973 0)
(0.630639 0.00243152 0)
(0.6214 0.00230491 0)
(0.612701 0.00218827 0)
(0.604503 0.00208018 0)
(0.596769 0.00197939 0)
(0.589469 0.00188481 0)
(0.582572 0.00179546 0)
(0.576056 0.00171045 0)
(0.569898 0.00162897 0)
(0.564081 0.00155016 0)
(0.558586 0.00147348 0)
(0.553403 0.00139774 0)
(0.548516 0.00132306 0)
(0.54392 0.00124704 0)
(0.539606 0.00117186 0)
(0.535566 0.00109136 0)
(0.531813 0.00101381 0)
(0.528302 0.000922696 0)
(0.525133 0.000842692 0)
(0.52211 0.000731472 0)
(0.519621 0.000652192 0)
(0.516978 0.000510389 0)
(0.515397 0.000430201 0)
(0.512888 0.000287949 0)
(0.512557 6.8404e-05 0)
(0.509912 0.000281845 0)
(0.510075 -0.0016032 0)
(1.00625 0.0400328 0)
(1.05207 0.0363347 0)
(1.0661 0.0252232 0)
(1.05961 0.0205562 0)
(1.04689 0.017234 0)
(1.03082 0.0146487 0)
(1.01194 0.0128084 0)
(0.991275 0.0113785 0)
(0.969901 0.0101763 0)
(0.948547 0.00915446 0)
(0.927661 0.00828771 0)
(0.907508 0.0075485 0)
(0.888233 0.0069126 0)
(0.869908 0.0063613 0)
(0.85255 0.00588015 0)
(0.836145 0.00545766 0)
(0.82066 0.00508451 0)
(0.806053 0.00475309 0)
(0.792272 0.00445717 0)
(0.779269 0.00419159 0)
(0.766994 0.00395202 0)
(0.755398 0.00373486 0)
(0.744435 0.00353703 0)
(0.734065 0.00335593 0)
(0.724247 0.00318929 0)
(0.714946 0.00303518 0)
(0.706129 0.00289189 0)
(0.697768 0.0027579 0)
(0.689835 0.00263189 0)
(0.682306 0.00251264 0)
(0.67516 0.00239903 0)
(0.668377 0.00229006 0)
(0.661943 0.00218466 0)
(0.655839 0.00208209 0)
(0.650058 0.00198094 0)
(0.644583 0.00188122 0)
(0.639411 0.0017801 0)
(0.634531 0.00168001 0)
(0.62994 0.00157368 0)
(0.625643 0.0014707 0)
(0.621611 0.00135161 0)
(0.617915 0.00124514 0)
(0.61441 0.00110209 0)
(0.61139 0.000994472 0)
(0.608338 0.000816705 0)
(0.606165 0.000701467 0)
(0.603407 0.000526667 0)
(0.602297 0.000252403 0)
(0.59969 0.000418251 0)
(0.598968 -0.0011185 0)
(1.00495 0.0373547 0)
(1.04727 0.0352523 0)
(1.06398 0.0246828 0)
(1.06427 0.020582 0)
(1.0607 0.0177713 0)
(1.05477 0.0154907 0)
(1.04602 0.0138648 0)
(1.03485 0.0125991 0)
(1.02196 0.0115069 0)
(1.00796 0.010547 0)
(0.993324 0.00970639 0)
(0.9784 0.00896808 0)
(0.963456 0.00831557 0)
(0.948688 0.00773591 0)
(0.934233 0.00721891 0)
(0.920181 0.00675613 0)
(0.906591 0.0063404 0)
(0.893496 0.0059656 0)
(0.880914 0.00562648 0)
(0.868846 0.00531854 0)
(0.857289 0.00503787 0)
(0.846229 0.00478109 0)
(0.835654 0.00454525 0)
(0.825545 0.00432774 0)
(0.815884 0.0041263 0)
(0.806654 0.00393889 0)
(0.797835 0.00376373 0)
(0.789411 0.00359917 0)
(0.781364 0.00344378 0)
(0.77368 0.00329618 0)
(0.766343 0.00315515 0)
(0.759341 0.00301952 0)
(0.752663 0.00288807 0)
(0.746295 0.00275993 0)
(0.740233 0.00263349 0)
(0.734465 0.00250866 0)
(0.728989 0.00238228 0)
(0.723795 0.00225686 0)
(0.718885 0.00212442 0)
(0.714258 0.00199519 0)
(0.7099 0.00184803 0)
(0.705858 0.00171348 0)
(0.702036 0.00153946 0)
(0.69864 0.00139997 0)
(0.695309 0.00118949 0)
(0.692684 0.00103264 0)
(0.689755 0.000829186 0)
(0.688032 0.00050332 0)
(0.685425 0.00061433 0)
(0.684062 -0.000602397 0)
(1.0044 0.0348066 0)
(1.04324 0.0341788 0)
(1.05995 0.0240414 0)
(1.0623 0.0202877 0)
(1.06252 0.0178347 0)
(1.06183 0.0157713 0)
(1.05926 0.0143186 0)
(1.05472 0.0132179 0)
(1.04852 0.0122674 0)
(1.04097 0.0114187 0)
(1.03236 0.0106614 0)
(1.02294 0.00998253 0)
(1.01296 0.00936956 0)
(1.00259 0.00881323 0)
(0.992021 0.00830674 0)
(0.981372 0.00784455 0)
(0.97075 0.00742189 0)
(0.960235 0.00703457 0)
(0.949888 0.00667885 0)
(0.939753 0.00635142 0)
(0.929863 0.00604929 0)
(0.92024 0.00576977 0)
(0.910898 0.00551041 0)
(0.901846 0.00526898 0)
(0.893088 0.00504349 0)
(0.884626 0.00483207 0)
(0.876457 0.00463306 0)
(0.868579 0.00444488 0)
(0.860989 0.00426613 0)
(0.853681 0.00409541 0)
(0.846652 0.00393149 0)
(0.839894 0.00377314 0)
(0.833407 0.00361909 0)
(0.827182 0.00346836 0)
(0.82122 0.00331924 0)
(0.815513 0.00317155 0)
(0.810065 0.00302194 0)
(0.804868 0.00287285 0)
(0.799928 0.00271593 0)
(0.795245 0.00256151 0)
(0.790814 0.0023879 0)
(0.786665 0.00222546 0)
(0.782741 0.0020227 0)
(0.77918 0.00185006 0)
(0.775745 0.00161036 0)
(0.77287 0.00140937 0)
(0.769885 0.00117917 0)
(0.767772 0.000808955 0)
(0.76519 0.000858602 0)
(0.763435 -7.72525e-05 0)
(1.00402 0.0323664 0)
(1.03991 0.0331284 0)
(1.05617 0.0234179 0)
(1.05894 0.0198991 0)
(1.06024 0.0177038 0)
(1.0616 0.015775 0)
(1.06197 0.0144234 0)
(1.06109 0.0134374 0)
(1.05904 0.0126026 0)
(1.05593 0.0118592 0)
(1.05185 0.0111942 0)
(1.04693 0.0105942 0)
(1.04129 0.0100467 0)
(1.03506 0.00954315 0)
(1.02836 0.0090779 0)
(1.02131 0.00864682 0)
(1.01399 0.00824655 0)
(1.0065 0.00787425 0)
(0.998906 0.00752744 0)
(0.991271 0.00720386 0)
(0.983643 0.00690148 0)
(0.976064 0.00661839 0)
(0.968567 0.00635279 0)
(0.961176 0.00610299 0)
(0.953914 0.00586741 0)
(0.946796 0.00564454 0)
(0.939835 0.00543295 0)
(0.933042 0.00523128 0)
(0.926424 0.00503827 0)
(0.919986 0.00485264 0)
(0.913735 0.00467323 0)
(0.907673 0.00449884 0)
(0.901805 0.00432823 0)
(0.89613 0.00416038 0)
(0.890655 0.00399357 0)
(0.885378 0.00382754 0)
(0.880306 0.00365885 0)
(0.875438 0.00348983 0)
(0.870782 0.00331204 0)
(0.86634 0.00313544 0)
(0.862114 0.00293873 0)
(0.858127 0.0027506 0)
(0.854345 0.00252265 0)
(0.850865 0.002318 0)
(0.847533 0.00205297 0)
(0.844637 0.00180909 0)
(0.841752 0.00155328 0)
(0.839492 0.00114803 0)
(0.837026 0.00113428 0)
(0.835125 0.000429407 0)
(1.00364 0.0300259 0)
(1.03692 0.0320805 0)
(1.05283 0.0228277 0)
(1.0557 0.0194933 0)
(1.05715 0.0175112 0)
(1.05905 0.0156744 0)
(1.0605 0.0143702 0)
(1.0612 0.0134472 0)
(1.06121 0.0126858 0)
(1.06057 0.0120165 0)
(1.05927 0.0114233 0)
(1.05733 0.0108916 0)
(1.05479 0.0104074 0)
(1.05171 0.00996107 0)
(1.04814 0.00954634 0)
(1.04414 0.00915905 0)
(1.03978 0.00879608 0)
(1.03511 0.00845499 0)
(1.03021 0.0081338 0)
(1.02511 0.00783083 0)
(1.01987 0.00754462 0)
(1.01452 0.00727378 0)
(1.00911 0.00701705 0)
(1.00366 0.00677316 0)
(0.998203 0.00654093 0)
(0.992758 0.00631916 0)
(0.987348 0.00610672 0)
(0.98199 0.00590248 0)
(0.976699 0.00570537 0)
(0.971487 0.00551427 0)
(0.966368 0.00532812 0)
(0.961349 0.00514582 0)
(0.956441 0.00496619 0)
(0.951651 0.00478825 0)
(0.946988 0.00461029 0)
(0.942457 0.00443201 0)
(0.938069 0.00424997 0)
(0.933825 0.00406634 0)
(0.929739 0.00387279 0)
(0.925813 0.00367864 0)
(0.922056 0.0034636 0)
(0.918487 0.00325369 0)
(0.915087 0.00300526 0)
(0.911926 0.00277189 0)
(0.908909 0.00248588 0)
(0.906222 0.00220336 0)
(0.90361 0.00192326 0)
(0.901436 0.001493 0)
(0.899215 0.00141751 0)
(0.897397 0.000891285 0)
(1.00327 0.027786 0)
(1.03409 0.0310215 0)
(1.04971 0.022264 0)
(1.05274 0.0190855 0)
(1.05415 0.0172998 0)
(1.05611 0.0155446 0)
(1.05783 0.0142624 0)
(1.05905 0.0133696 0)
(1.05987 0.0126489 0)
(1.06033 0.0120229 0)
(1.06042 0.0114746 0)
(1.06012 0.0109891 0)
(1.05942 0.0105514 0)
(1.05832 0.0101506 0)
(1.05685 0.00977941 0)
(1.05503 0.00943302 0)
(1.05287 0.00910782 0)
(1.05042 0.0088011 0)
(1.04771 0.0085108 0)
(1.04476 0.00823527 0)
(1.04161 0.00797314 0)
(1.0383 0.00772324 0)
(1.03483 0.00748449 0)
(1.03126 0.00725588 0)
(1.02759 0.00703642 0)
(1.02385 0.00682511 0)
(1.02006 0.00662103 0)
(1.01623 0.00642319 0)
(1.0124 0.00623067 0)
(1.00856 0.00604246 0)
(1.00474 0.00585763 0)
(1.00094 0.00567514 0)
(0.997181 0.00549388 0)
(0.993472 0.00531293 0)
(0.989823 0.00513057 0)
(0.986244 0.00494652 0)
(0.982745 0.00475732 0)
(0.979334 0.00456499 0)
(0.976022 0.00436144 0)
(0.972819 0.00415515 0)
(0.969733 0.00392726 0)
(0.966781 0.0037005 0)
(0.963957 0.00343694 0)
(0.961309 0.00317959 0)
(0.958785 0.00287724 0)
(0.9565 0.00256229 0)
(0.954314 0.00225977 0)
(0.952431 0.00181433 0)
(0.95058 0.00168042 0)
(0.949043 0.00128537 0)
(1.00292 0.0256501 0)
(1.03138 0.0299467 0)
(1.04671 0.0217223 0)
(1.04995 0.0186756 0)
(1.05133 0.0170763 0)
(1.05325 0.0154076 0)
(1.05501 0.0141409 0)
(1.05634 0.0132638 0)
(1.0574 0.0125662 0)
(1.05825 0.0119641 0)
(1.0589 0.0114404 0)
(1.05933 0.0109814 0)
(1.05953 0.010572 0)
(1.05949 0.0102007 0)
(1.05921 0.00985965 0)
(1.0587 0.00954333 0)
(1.05794 0.00924764 0)
(1.05696 0.00896945 0)
(1.05577 0.00870632 0)
(1.05438 0.00845639 0)
(1.0528 0.00821813 0)
(1.05105 0.00799029 0)
(1.04915 0.00777177 0)
(1.04712 0.00756156 0)
(1.04497 0.00735871 0)
(1.04271 0.00716228 0)
(1.04036 0.00697137 0)
(1.03794 0.00678507 0)
(1.03546 0.00660249 0)
(1.03294 0.00642269 0)
(1.03037 0.00624475 0)
(1.02779 0.00606771 0)
(1.02519 0.00589043 0)
(1.02259 0.00571205 0)
(1.02001 0.00553082 0)
(1.01744 0.00534645 0)
(1.0149 0.0051555 0)
(1.01241 0.00495979 0)
(1.00996 0.00475153 0)
(1.00758 0.00453823 0)
(1.00527 0.00430276 0)
(1.00305 0.00406415 0)
(1.00091 0.00379065 0)
(0.998893 0.00351459 0)
(0.996975 0.00320027 0)
(0.995221 0.00285999 0)
(0.993565 0.00253732 0)
(0.992114 0.00208491 0)
(0.99073 0.00189783 0)
(0.989613 0.00159048 0)
(1.0026 0.0236209 0)
(1.0288 0.0288549 0)
(1.04379 0.0212016 0)
(1.04726 0.0182637 0)
(1.04865 0.0168392 0)
(1.05053 0.0152662 0)
(1.05228 0.0140169 0)
(1.05362 0.0131507 0)
(1.05471 0.0124696 0)
(1.05566 0.0118826 0)
(1.05648 0.0113726 0)
(1.05717 0.0109279 0)
(1.05774 0.010534 0)
(1.05816 0.0101795 0)
(1.05845 0.00985621 0)
(1.0586 0.0095585 0)
(1.0586 0.00928197 0)
(1.05846 0.0090232 0)
(1.05817 0.00877948 0)
(1.05774 0.00854869 0)
(1.05718 0.00832911 0)
(1.05649 0.00811933 0)
(1.05568 0.00791814 0)
(1.05475 0.00772441 0)
(1.05371 0.00753714 0)
(1.05258 0.00735533 0)
(1.05135 0.00717803 0)
(1.05005 0.0070043 0)
(1.04867 0.0068332 0)
(1.04723 0.00666378 0)
(1.04574 0.00649508 0)
(1.0442 0.00632613 0)
(1.04262 0.00615576 0)
(1.04102 0.00598309 0)
(1.0394 0.00580632 0)
(1.03777 0.00562513 0)
(1.03614 0.00543607 0)
(1.03452 0.00524071 0)
(1.03292 0.00503165 0)
(1.03134 0.00481526 0)
(1.0298 0.00457635 0)
(1.02831 0.00433008 0)
(1.02688 0.00405082 0)
(1.02552 0.00376095 0)
(1.02424 0.00343816 0)
(1.02306 0.00307931 0)
(1.02197 0.00273881 0)
(1.02102 0.00228522 0)
(1.02015 0.00205068 0)
(1.01952 0.00179321 0)
(1.0023 0.0217001 0)
(1.02634 0.027747 0)
(1.04096 0.0207002 0)
(1.04465 0.0178511 0)
(1.04606 0.0165874 0)
(1.04791 0.0151186 0)
(1.04966 0.0138914 0)
(1.051 0.0130353 0)
(1.05208 0.0123689 0)
(1.05303 0.0117946 0)
(1.05388 0.0112942 0)
(1.05464 0.010858 0)
(1.05531 0.010473 0)
(1.0559 0.0101276 0)
(1.05641 0.00981409 0)
(1.05684 0.00952671 0)
(1.05719 0.00926109 0)
(1.05745 0.00901372 0)
(1.05763 0.00878179 0)
(1.05772 0.00856306 0)
(1.05772 0.00835568 0)
(1.05765 0.00815814 0)
(1.05749 0.00796911 0)
(1.05725 0.00778739 0)
(1.05693 0.00761189 0)
(1.05654 0.00744154 0)
(1.05608 0.0072753 0)
(1.05556 0.00711214 0)
(1.05497 0.00695109 0)
(1.05432 0.0067911 0)
(1.05363 0.00663115 0)
(1.05289 0.00647021 0)
(1.0521 0.00630705 0)
(1.05129 0.00614073 0)
(1.05044 0.00596939 0)
(1.04958 0.00579263 0)
(1.0487 0.005607 0)
(1.04782 0.00541374 0)
(1.04693 0.00520594 0)
(1.04606 0.0049887 0)
(1.0452 0.00474883 0)
(1.04436 0.00449769 0)
(1.04356 0.00421535 0)
(1.04281 0.00391546 0)
(1.04211 0.00358643 0)
(1.04148 0.00321448 0)
(1.04093 0.00285802 0)
(1.04047 0.00240629 0)
(1.04009 0.00212935 0)
(1.03995 0.00189008 0)
(1.00203 0.0198886 0)
(1.02402 0.0266261 0)
(1.03823 0.0202149 0)
(1.04213 0.0174397 0)
(1.04356 0.0163208 0)
(1.04539 0.0149636 0)
(1.04713 0.0137639 0)
(1.04847 0.012918 0)
(1.04954 0.0122662 0)
(1.05047 0.0117044 0)
(1.05132 0.0112126 0)
(1.05208 0.0107832 0)
(1.05277 0.0104043 0)
(1.0534 0.0100647 0)
(1.05398 0.0097569 0)
(1.0545 0.00947528 0)
(1.05497 0.00921558 0)
(1.0554 0.00897435 0)
(1.05577 0.00874882 0)
(1.0561 0.00853672 0)
(1.05638 0.00833619 0)
(1.05661 0.00814568 0)
(1.05679 0.00796385 0)
(1.05693 0.00778946 0)
(1.05702 0.00762135 0)
(1.05706 0.00745841 0)
(1.05705 0.00729956 0)
(1.05701 0.00714369 0)
(1.05692 0.00698973 0)
(1.05679 0.00683662 0)
(1.05662 0.00668321 0)
(1.05641 0.00652845 0)
(1.05618 0.00637099 0)
(1.05591 0.00620986 0)
(1.05563 0.00604311 0)
(1.05532 0.00587022 0)
(1.055 0.00568778 0)
(1.05466 0.00549666 0)
(1.05433 0.00529045 0)
(1.05399 0.00507296 0)
(1.05367 0.00483296 0)
(1.05335 0.00457825 0)
(1.05307 0.00429391 0)
(1.05281 0.00398638 0)
(1.05259 0.00365197 0)
(1.05242 0.00327069 0)
(1.05231 0.00289944 0)
(1.05228 0.00244982 0)
(1.05233 0.0021343 0)
(1.05262 0.00188744 0)
(1.00179 0.0181865 0)
(1.02184 0.0254959 0)
(1.03559 0.0197421 0)
(1.03969 0.0170315 0)
(1.04116 0.0160402 0)
(1.04295 0.0148003 0)
(1.04469 0.0136338 0)
(1.04603 0.0127985 0)
(1.04709 0.0121613 0)
(1.04801 0.0116127 0)
(1.04884 0.0111298 0)
(1.04959 0.0107068 0)
(1.05027 0.0103332 0)
(1.0509 0.0099984 0)
(1.05149 0.00969471 0)
(1.05203 0.00941685 0)
(1.05254 0.00916069 0)
(1.05301 0.00892289 0)
(1.05345 0.00870074 0)
(1.05387 0.00849201 0)
(1.05426 0.00829492 0)
(1.05462 0.00810792 0)
(1.05495 0.0079297 0)
(1.05526 0.00775903 0)
(1.05555 0.00759477 0)
(1.05581 0.00743578 0)
(1.05604 0.00728095 0)
(1.05625 0.00712915 0)
(1.05644 0.00697926 0)
(1.0566 0.00683015 0)
(1.05674 0.00668064 0)
(1.05686 0.0065296 0)
(1.05695 0.00637562 0)
(1.05704 0.00621767 0)
(1.0571 0.00605373 0)
(1.05715 0.00588316 0)
(1.0572 0.00570263 0)
(1.05724 0.00551256 0)
(1.05727 0.00530712 0)
(1.05731 0.00508883 0)
(1.05736 0.0048483 0)
(1.05742 0.00459014 0)
(1.05749 0.00430359 0)
(1.0576 0.00398956 0)
(1.05773 0.00364952 0)
(1.05791 0.00326091 0)
(1.05814 0.00287528 0)
(1.05844 0.00242585 0)
(1.05882 0.00207397 0)
(1.05945 0.00179943 0)
(1.00157 0.0165937 0)
(1.01979 0.0243605 0)
(1.03305 0.0192775 0)
(1.03734 0.0166281 0)
(1.03885 0.0157469 0)
(1.0406 0.014628 0)
(1.04233 0.0135009 0)
(1.04368 0.0126767 0)
(1.04473 0.0120541 0)
(1.04564 0.0115193 0)
(1.04645 0.0110458 0)
(1.04719 0.0106295 0)
(1.04787 0.0102613 0)
(1.04848 0.0099309 0)
(1.04906 0.00963094 0)
(1.0496 0.0093562 0)
(1.0501 0.00910269 0)
(1.05058 0.00886719 0)
(1.05104 0.00864705 0)
(1.05148 0.00844014 0)
(1.0519 0.0082447 0)
(1.0523 0.00805927 0)
(1.05269 0.00788257 0)
(1.05307 0.00771343 0)
(1.05344 0.00755072 0)
(1.05379 0.00739333 0)
(1.05413 0.00724014 0)
(1.05446 0.00709003 0)
(1.05478 0.00694183 0)
(1.05508 0.0067944 0)
(1.05538 0.00664651 0)
(1.05567 0.00649699 0)
(1.05594 0.00634438 0)
(1.05621 0.0061876 0)
(1.05648 0.0060246 0)
(1.05674 0.00585459 0)
(1.057 0.00567435 0)
(1.05725 0.00548387 0)
(1.05752 0.00527789 0)
(1.05779 0.00505771 0)
(1.05807 0.00481559 0)
(1.05836 0.00455346 0)
(1.05867 0.00426375 0)
(1.05901 0.00394344 0)
(1.05938 0.00359687 0)
(1.05979 0.00320156 0)
(1.06025 0.00280142 0)
(1.06078 0.00234877 0)
(1.0614 0.00196131 0)
(1.06227 0.00164432 0)
(1.00137 0.015109 0)
(1.01788 0.0232238 0)
(1.03062 0.0188173 0)
(1.03507 0.016231 0)
(1.03663 0.0154422 0)
(1.03834 0.0144459 0)
(1.04006 0.0133648 0)
(1.04141 0.0125528 0)
(1.04246 0.0119445 0)
(1.04336 0.011424 0)
(1.04416 0.0109605 0)
(1.04489 0.0105512 0)
(1.04555 0.0101885 0)
(1.04616 0.00986271 0)
(1.04672 0.00956647 0)
(1.04724 0.00929474 0)
(1.04774 0.00904366 0)
(1.04821 0.0088101 0)
(1.04867 0.0085915 0)
(1.0491 0.00838577 0)
(1.04953 0.00819124 0)
(1.04994 0.00800649 0)
(1.05034 0.00783031 0)
(1.05074 0.00766158 0)
(1.05113 0.0074992 0)
(1.05151 0.00734209 0)
(1.05189 0.00718916 0)
(1.05226 0.00703927 0)
(1.05263 0.00689125 0)
(1.053 0.00674396 0)
(1.05337 0.00659612 0)
(1.05373 0.00644656 0)
(1.05409 0.00629376 0)
(1.05445 0.0061366 0)
(1.05481 0.00597303 0)
(1.05517 0.00580211 0)
(1.05554 0.00562076 0)
(1.05592 0.00542854 0)
(1.0563 0.00522073 0)
(1.05669 0.00499756 0)
(1.0571 0.00475265 0)
(1.05753 0.00448582 0)
(1.05798 0.00419178 0)
(1.05845 0.00386497 0)
(1.05896 0.00351074 0)
(1.0595 0.00310846 0)
(1.0601 0.00269337 0)
(1.06077 0.00223345 0)
(1.06154 0.00181019 0)
(1.06257 0.00144008 0)
(1.0012 0.0137311 0)
(1.01611 0.0220899 0)
(1.0283 0.0183578 0)
(1.0329 0.0158414 0)
(1.0345 0.0151279 0)
(1.03617 0.0142537 0)
(1.03788 0.0132251 0)
(1.03924 0.0124266 0)
(1.04028 0.0118324 0)
(1.04117 0.0113267 0)
(1.04196 0.0108739 0)
(1.04268 0.0104719 0)
(1.04333 0.0101149 0)
(1.04392 0.00979381 0)
(1.04447 0.00950142 0)
(1.04499 0.00923277 0)
(1.04547 0.00898412 0)
(1.04594 0.00875245 0)
(1.04638 0.00853526 0)
(1.04681 0.00833053 0)
(1.04722 0.00813664 0)
(1.04763 0.00795225 0)
(1.04803 0.00777618 0)
(1.04843 0.00760737 0)
(1.04882 0.00744477 0)
(1.0492 0.00728733 0)
(1.04959 0.00713396 0)
(1.04998 0.00698354 0)
(1.05036 0.0068349 0)
(1.05075 0.00668689 0)
(1.05113 0.0065382 0)
(1.05152 0.00638765 0)
(1.05191 0.0062337 0)
(1.05231 0.00607517 0)
(1.05271 0.00591003 0)
(1.05312 0.00573719 0)
(1.05353 0.00555373 0)
(1.05396 0.0053588 0)
(1.0544 0.00514817 0)
(1.05485 0.00492116 0)
(1.05532 0.00467247 0)
(1.05581 0.00440031 0)
(1.05632 0.00410088 0)
(1.05686 0.00376721 0)
(1.05744 0.00340434 0)
(1.05806 0.00299435 0)
(1.05872 0.00256383 0)
(1.05947 0.00209242 0)
(1.06033 0.00163315 0)
(1.06144 0.00120122 0)
(1.00104 0.0124575 0)
(1.01447 0.0209632 0)
(1.02609 0.0178956 0)
(1.0308 0.0154602 0)
(1.03247 0.014806 0)
(1.0341 0.0140508 0)
(1.03579 0.0130811 0)
(1.03715 0.0122984 0)
(1.0382 0.0117177 0)
(1.03907 0.0112272 0)
(1.03985 0.0107857 0)
(1.04056 0.0103914 0)
(1.0412 0.0100403 0)
(1.04178 0.00972415 0)
(1.04232 0.00943575 0)
(1.04283 0.00917027 0)
(1.0433 0.00892412 0)
(1.04375 0.00869437 0)
(1.04419 0.0084786 0)
(1.04461 0.00827484 0)
(1.04501 0.00808153 0)
(1.04541 0.00789739 0)
(1.0458 0.0077213 0)
(1.04619 0.00755224 0)
(1.04658 0.00738921 0)
(1.04696 0.00723118 0)
(1.04734 0.00707707 0)
(1.04772 0.00692579 0)
(1.04811 0.00677616 0)
(1.04849 0.006627 0)
(1.04888 0.00647702 0)
(1.04928 0.00632499 0)
(1.04967 0.00616937 0)
(1.05008 0.00600893 0)
(1.05049 0.00584165 0)
(1.05091 0.00566632 0)
(1.05134 0.00548014 0)
(1.05178 0.00528191 0)
(1.05224 0.00506782 0)
(1.05271 0.00483642 0)
(1.0532 0.00458325 0)
(1.05372 0.00430534 0)
(1.05425 0.00399974 0)
(1.05482 0.00365888 0)
(1.05543 0.00328665 0)
(1.05607 0.00286806 0)
(1.05677 0.00242172 0)
(1.05756 0.00193504 0)
(1.05845 0.00143895 0)
(1.0596 0.000941864 0)
(1.0009 0.0112854 0)
(1.01296 0.019848 0)
(1.02399 0.0174276 0)
(1.0288 0.0150876 0)
(1.03054 0.0144785 0)
(1.03212 0.0138371 0)
(1.03379 0.0129323 0)
(1.03515 0.012168 0)
(1.0362 0.0116006 0)
(1.03707 0.0111254 0)
(1.03784 0.0106959 0)
(1.03853 0.0103097 0)
(1.03916 0.00996478 0)
(1.03974 0.00965365 0)
(1.04027 0.00936937 0)
(1.04076 0.00910719 0)
(1.04123 0.00886363 0)
(1.04167 0.00863585 0)
(1.04209 0.00842153 0)
(1.0425 0.00821876 0)
(1.0429 0.00802603 0)
(1.04329 0.00784212 0)
(1.04367 0.00766597 0)
(1.04405 0.00749661 0)
(1.04443 0.00733306 0)
(1.0448 0.00717435 0)
(1.04518 0.0070194 0)
(1.04555 0.00686712 0)
(1.04593 0.00671634 0)
(1.04631 0.00656586 0)
(1.0467 0.00641437 0)
(1.04709 0.00626064 0)
(1.04748 0.00610311 0)
(1.04788 0.00594048 0)
(1.04829 0.00577079 0)
(1.04871 0.00559265 0)
(1.04914 0.00540343 0)
(1.04958 0.00520159 0)
(1.05004 0.00498367 0)
(1.05052 0.00474761 0)
(1.05101 0.00448952 0)
(1.05153 0.00420564 0)
(1.05207 0.00389338 0)
(1.05264 0.00354508 0)
(1.05325 0.00316308 0)
(1.0539 0.00273499 0)
(1.0546 0.0022725 0)
(1.0554 0.0017676 0)
(1.05631 0.00123349 0)
(1.05746 0.000670986 0)
(1.00078 0.0102113 0)
(1.01157 0.0187487 0)
(1.02201 0.016951 0)
(1.02688 0.014724 0)
(1.02869 0.0141474 0)
(1.03024 0.0136125 0)
(1.03188 0.0127782 0)
(1.03324 0.0120353 0)
(1.03429 0.011481 0)
(1.03515 0.0110212 0)
(1.03591 0.0106043 0)
(1.0366 0.0102267 0)
(1.03722 0.00988814 0)
(1.03779 0.00958222 0)
(1.03831 0.00930222 0)
(1.03879 0.00904346 0)
(1.03925 0.00880257 0)
(1.03968 0.00857684 0)
(1.04009 0.00836401 0)
(1.04049 0.00816225 0)
(1.04088 0.00797012 0)
(1.04126 0.00778644 0)
(1.04164 0.00761022 0)
(1.04201 0.00744054 0)
(1.04238 0.00727646 0)
(1.04274 0.00711703 0)
(1.04311 0.0069612 0)
(1.04348 0.00680787 0)
(1.04385 0.00665586 0)
(1.04422 0.00650398 0)
(1.0446 0.00635091 0)
(1.04498 0.00619537 0)
(1.04537 0.00603582 0)
(1.04576 0.00587088 0)
(1.04617 0.00569863 0)
(1.04658 0.00551756 0)
(1.04701 0.00532513 0)
(1.04744 0.00511954 0)
(1.04789 0.00489759 0)
(1.04836 0.00465675 0)
(1.04885 0.00439348 0)
(1.04936 0.00410355 0)
(1.0499 0.00378435 0)
(1.05047 0.00342844 0)
(1.05107 0.00303646 0)
(1.05171 0.00259812 0)
(1.05241 0.00211927 0)
(1.0532 0.00159367 0)
(1.0541 0.0010215 0)
(1.05524 0.000392261 0)
(1.00067 0.00923108 0)
(1.01031 0.0176698 0)
(1.02013 0.0164637 0)
(1.02505 0.0143688 0)
(1.02693 0.0138149 0)
(1.02845 0.0133773 0)
(1.03006 0.0126179 0)
(1.03142 0.0119003 0)
(1.03247 0.011359 0)
(1.03332 0.0109144 0)
(1.03408 0.0105107 0)
(1.03475 0.0101422 0)
(1.03537 0.00981032 0)
(1.03592 0.00950978 0)
(1.03644 0.00923422 0)
(1.03691 0.00897899 0)
(1.03736 0.00874087 0)
(1.03779 0.00851726 0)
(1.03819 0.00830597 0)
(1.03858 0.00810526 0)
(1.03896 0.00791374 0)
(1.03934 0.0077303 0)
(1.0397 0.00755402 0)
(1.04006 0.00738401 0)
(1.04043 0.00721939 0)
(1.04078 0.00705923 0)
(1.04114 0.00690248 0)
(1.04151 0.00674807 0)
(1.04187 0.00659482 0)
(1.04223 0.00644151 0)
(1.0426 0.0062868 0)
(1.04298 0.00612941 0)
(1.04336 0.00596778 0)
(1.04374 0.00580048 0)
(1.04414 0.0056256 0)
(1.04454 0.00544153 0)
(1.04496 0.00524581 0)
(1.04539 0.00503642 0)
(1.04583 0.00481033 0)
(1.04629 0.00456468 0)
(1.04677 0.00429611 0)
(1.04728 0.00400012 0)
(1.0478 0.00367384 0)
(1.04836 0.00331022 0)
(1.04895 0.0029082 0)
(1.04958 0.00245895 0)
(1.05027 0.00196365 0)
(1.05104 0.00141558 0)
(1.05193 0.000805997 0)
(1.05304 0.000109402 0)
(1.00058 0.00834017 0)
(1.00917 0.0166156 0)
(1.01838 0.015964 0)
(1.0233 0.0140217 0)
(1.02526 0.0134829 0)
(1.02675 0.0131322 0)
(1.02832 0.012451 0)
(1.02968 0.0117626 0)
(1.03073 0.0112346 0)
(1.03158 0.0108051 0)
(1.03233 0.010415 0)
(1.033 0.0100562 0)
(1.0336 0.00973123 0)
(1.03415 0.00943625 0)
(1.03466 0.00916527 0)
(1.03513 0.00891372 0)
(1.03557 0.00867846 0)
(1.03598 0.00845703 0)
(1.03638 0.00824735 0)
(1.03676 0.00804772 0)
(1.03714 0.00785683 0)
(1.0375 0.00767365 0)
(1.03786 0.0074973 0)
(1.03822 0.00732697 0)
(1.03857 0.0071618 0)
(1.03892 0.00700089 0)
(1.03927 0.00684323 0)
(1.03963 0.00668772 0)
(1.03998 0.0065332 0)
(1.04034 0.00637843 0)
(1.0407 0.00622207 0)
(1.04107 0.00606279 0)
(1.04144 0.00589905 0)
(1.04182 0.00572935 0)
(1.04221 0.00555182 0)
(1.04261 0.00536471 0)
(1.04301 0.00516566 0)
(1.04344 0.00495246 0)
(1.04387 0.00472217 0)
(1.04432 0.00447173 0)
(1.04479 0.00419779 0)
(1.04528 0.00389576 0)
(1.0458 0.00356239 0)
(1.04634 0.00319096 0)
(1.04691 0.00277896 0)
(1.04753 0.00231829 0)
(1.04821 0.00180651 0)
(1.04896 0.00123494 0)
(1.04983 0.000588398 0)
(1.0509 -0.000170311 0)
(1.0005 0.00753352 0)
(1.00814 0.0155903 0)
(1.01673 0.0154508 0)
(1.02163 0.0136815 0)
(1.02368 0.013153 0)
(1.02514 0.0128779 0)
(1.02667 0.0122768 0)
(1.02803 0.0116221 0)
(1.02908 0.0111078 0)
(1.02993 0.010693 0)
(1.03067 0.0103171 0)
(1.03133 0.00996852 0)
(1.03193 0.00965076 0)
(1.03247 0.00936152 0)
(1.03297 0.00909528 0)