/*--------------------------------*- C++ -*----------------------------------*\
  =========                 |
  \\      /  F ield         | OpenFOAM: The Open Source CFD Toolbox
   \\    /   O peration     | Website:  https://openfoam.org
    \\  /    A nd           | Version:  7
     \\/     M anipulation  |
\*---------------------------------------------------------------------------*/
FoamFile
{
    version     2.0;
    format      ascii;
    class       volVectorField;
    location    "0.25";
    object      U_0;
}
// * * * * * * * * * * * * * * * * * * * * * * * * * * * * * * * * * * * * * //

dimensions      [0 1 -1 0 0 0 0];

internalField   nonuniform List<vector> 
70000
(
(0.553391 0.016723 0)
(0.251266 0.00340093 0)
(0.16621 0.000321916 0)
(0.132467 5.41927e-05 0)
(0.117282 4.56255e-05 0)
(0.107366 5.37911e-05 0)
(0.0994277 4.61472e-05 0)
(0.0930003 3.6795e-05 0)
(0.0877711 3.04658e-05 0)
(0.0834201 2.61215e-05 0)
(0.0797188 2.2804e-05 0)
(0.0765191 2.0141e-05 0)
(0.0737196 1.79638e-05 0)
(0.0712458 1.61594e-05 0)
(0.0690416 1.46439e-05 0)
(0.0670634 1.33547e-05 0)
(0.0652771 1.22453e-05 0)
(0.0636552 1.12802e-05 0)
(0.0621757 1.04325e-05 0)
(0.0608207 9.68078e-06 0)
(0.0595752 9.00841e-06 0)
(0.0584268 8.40169e-06 0)
(0.0573651 7.84944e-06 0)
(0.0563814 7.34228e-06 0)
(0.0554683 6.87212e-06 0)
(0.0546194 6.43219e-06 0)
(0.0538296 6.01575e-06 0)
(0.0530941 5.61833e-06 0)
(0.0524093 5.23261e-06 0)
(0.0517717 4.85726e-06 0)
(0.051179 4.48157e-06 0)
(0.0506286 4.1103e-06 0)
(0.0501192 3.72365e-06 0)
(0.0496489 3.33912e-06 0)
(0.0492175 2.91845e-06 0)
(0.0488238 2.50152e-06 0)
(0.0484681 2.02384e-06 0)
(0.048151 1.54405e-06 0)
(0.0478711 1.00422e-06 0)
(0.0476354 3.8289e-07 0)
(0.0474315 -1.29565e-07 0)
(0.0472908 -1.14576e-06 0)
(0.0471563 -1.18794e-06 0)
(0.0471435 -3.4386e-06 0)
(0.0470431 -1.35783e-06 0)
(0.04724 -7.59263e-06 0)
(0.0470479 2.18077e-06 0)
(0.0476374 -1.693e-05 0)
(0.0471688 3.17199e-05 0)
(0.0447837 -0.00175342 0)
(0.8849 0.0431671 0)
(0.649722 0.0201937 0)
(0.494334 0.00659793 0)
(0.403687 0.00276714 0)
(0.354773 0.00155137 0)
(0.323487 0.00113074 0)
(0.299651 0.000909268 0)
(0.280484 0.00074506 0)
(0.264809 0.000621891 0)
(0.251733 0.000530819 0)
(0.240605 0.000461616 0)
(0.230983 0.000407107 0)
(0.222561 0.000363018 0)
(0.215115 0.000326688 0)
(0.208476 0.0002963 0)
(0.202514 0.000270552 0)
(0.197126 0.000248484 0)
(0.192231 0.000229373 0)
(0.187763 0.000212668 0)
(0.183666 0.00019794 0)
(0.179897 0.000184851 0)
(0.176418 0.000173129 0)
(0.173197 0.000162554 0)
(0.170209 0.000152943 0)
(0.167431 0.000144144 0)
(0.164843 0.000136026 0)
(0.16243 0.000128478 0)
(0.160177 0.000121404 0)
(0.158073 0.000114713 0)
(0.156107 0.000108334 0)
(0.154271 0.000102179 0)
(0.152557 9.62031e-05 0)
(0.150961 9.02982e-05 0)
(0.149475 8.44636e-05 0)
(0.148099 7.85205e-05 0)
(0.146827 7.25711e-05 0)
(0.14566 6.62688e-05 0)
(0.144597 5.99365e-05 0)
(0.143634 5.29062e-05 0)
(0.142788 4.58794e-05 0)
(0.142024 3.77611e-05 0)
(0.141425 2.95634e-05 0)
(0.14084 2.03773e-05 0)
(0.140572 9.89131e-06 0)
(0.140075 1.75563e-06 0)
(0.140352 -1.51362e-05 0)
(0.139645 -8.71035e-06 0)
(0.140929 -7.28776e-05 0)
(0.139625 0.000205087 0)
(0.138588 -0.00285498 0)
(0.991238 0.049901 0)
(0.890354 0.0307182 0)
(0.762699 0.0145971 0)
(0.656699 0.00797882 0)
(0.585388 0.00488359 0)
(0.536006 0.0034692 0)
(0.49817 0.00273291 0)
(0.467591 0.00223974 0)
(0.442328 0.00187568 0)
(0.42108 0.00160314 0)
(0.4029 0.00139479 0)
(0.387121 0.00123066 0)
(0.373266 0.00109801 0)
(0.360984 0.00098872 0)
(0.350008 0.000897297 0)
(0.340133 0.000819827 0)
(0.331193 0.00075343 0)
(0.323057 0.000695941 0)
(0.315619 0.000645708 0)
(0.308791 0.000601446 0)
(0.3025 0.00056214 0)
(0.296686 0.000526978 0)
(0.291297 0.000495298 0)
(0.286289 0.000466556 0)
(0.281627 0.000440297 0)
(0.277277 0.000416138 0)
(0.273214 0.000393748 0)
(0.269414 0.000372843 0)
(0.265857 0.000353167 0)
(0.262526 0.000334501 0)
(0.259406 0.000316621 0)
(0.256484 0.000299365 0)
(0.253751 0.000282482 0)
(0.251197 0.000265906 0)
(0.248817 0.000249246 0)
(0.246602 0.000232664 0)
(0.244552 0.000215368 0)
(0.242664 0.000198113 0)
(0.24093 0.000179128 0)
(0.239374 0.000160579 0)
(0.237944 0.000138532 0)
(0.236758 0.000118192 0)
(0.235597 9.15138e-05 0)
(0.234894 6.89321e-05 0)
(0.233873 3.77152e-05 0)
(0.233948 9.39236e-06 0)
(0.232677 -6.36487e-06 0)
(0.234135 -0.0001203 0)
(0.232043 0.000234601 0)
(0.233245 -0.00283778 0)
(1.0156 0.0489198 0)
(1.00596 0.0358741 0)
(0.935964 0.0207908 0)
(0.852144 0.0135032 0)
(0.782219 0.00920587 0)
(0.727043 0.00677801 0)
(0.681995 0.00537872 0)
(0.644284 0.00443784 0)
(0.612326 0.0037423 0)
(0.584931 0.00321463 0)
(0.561165 0.00280651 0)
(0.540319 0.00248283 0)
(0.521864 0.0022201 0)
(0.505394 0.00200288 0)
(0.490595 0.00182065 0)
(0.477217 0.00166584 0)
(0.465058 0.00153289 0)
(0.453954 0.00141759 0)
(0.443771 0.00131672 0)
(0.434397 0.00122775 0)
(0.42574 0.0011487 0)
(0.417719 0.00107795 0)
(0.410269 0.00101421 0)
(0.403333 0.000956396 0)
(0.396861 0.000903613 0)
(0.390812 0.000855099 0)
(0.385149 0.000810208 0)
(0.379843 0.000768375 0)
(0.374864 0.000729104 0)
(0.370191 0.000691958 0)
(0.365803 0.000656519 0)
(0.361683 0.00062245 0)
(0.357816 0.000589317 0)
(0.354189 0.000556933 0)
(0.350793 0.000524654 0)
(0.347619 0.000492673 0)
(0.344661 0.000459668 0)
(0.341916 0.000426903 0)
(0.339373 0.000391177 0)
(0.337057 0.000356672 0)
(0.33491 0.000315373 0)
(0.33306 0.000278871 0)
(0.331263 0.000227785 0)
(0.330003 0.000190486 0)
(0.328412 0.000125316 0)
(0.328054 8.6329e-05 0)
(0.326272 2.88308e-05 0)
(0.327426 -0.000116814 0)
(0.324843 0.00020435 0)
(0.326701 -0.00246123 0)
(1.01434 0.0460031 0)
(1.04754 0.0374874 0)
(1.02459 0.0241505 0)
(0.974774 0.0175576 0)
(0.923471 0.0131196 0)
(0.876718 0.0102013 0)
(0.834587 0.00833517 0)
(0.796886 0.00701121 0)
(0.763385 0.00599828 0)
(0.733649 0.00520753 0)
(0.707165 0.00458224 0)
(0.683462 0.00407838 0)
(0.662142 0.00366454 0)
(0.642869 0.00331925 0)
(0.625367 0.00302738 0)
(0.609403 0.0027779 0)
(0.594786 0.00256255 0)
(0.581351 0.00237498 0)
(0.56896 0.00221028 0)
(0.557499 0.00206459 0)
(0.546866 0.00193481 0)
(0.536976 0.00181843 0)
(0.527757 0.00171341 0)
(0.519145 0.00161804 0)
(0.511085 0.0015309 0)
(0.50353 0.00145078 0)
(0.496437 0.00137665 0)
(0.489772 0.0013076 0)
(0.483503 0.00124285 0)
(0.477602 0.00118169 0)
(0.472045 0.00112346 0)
(0.466812 0.00106762 0)
(0.461886 0.00101351 0)
(0.457249 0.000960788 0)
(0.452892 0.00090853 0)
(0.4488 0.000856923 0)
(0.444969 0.000804081 0)
(0.441392 0.000751779 0)
(0.438058 0.000695275 0)
(0.434988 0.000640926 0)
(0.432126 0.000576234 0)
(0.429594 0.000519804 0)
(0.427157 0.000439844 0)
(0.425278 0.00038401 0)
(0.423133 0.000280484 0)
(0.422189 0.000225451 0)
(0.419997 0.000122599 0)
(0.420487 -5.33768e-05 0)
(0.41779 0.000208355 0)
(0.418981 -0.00205075 0)
(1.00933 0.0429144 0)
(1.05528 0.0372624 0)
(1.05869 0.0252944 0)
(1.03638 0.0197569 0)
(1.00712 0.0158079 0)
(0.976083 0.0129298 0)
(0.944579 0.0109504 0)
(0.913748 0.00946437 0)
(0.884444 0.00826965 0)
(0.857054 0.0072972 0)
(0.831661 0.00650239 0)
(0.8082 0.00584531 0)
(0.78655 0.00529468 0)
(0.766569 0.00482776 0)
(0.748107 0.00442782 0)
(0.731023 0.00408218 0)
(0.715186 0.00378105 0)
(0.700476 0.00351671 0)
(0.686786 0.00328307 0)
(0.674019 0.0030752 0)
(0.662093 0.00288913 0)
(0.65093 0.00272159 0)
(0.640465 0.00256986 0)
(0.630638 0.00243166 0)
(0.621399 0.00230508 0)
(0.6127 0.00218846 0)
(0.604501 0.00208039 0)
(0.596767 0.00197962 0)
(0.589466 0.00188507 0)
(0.582568 0.00179576 0)
(0.576052 0.00171078 0)
(0.569893 0.00162934 0)
(0.564075 0.00155058 0)
(0.558579 0.00147395 0)
(0.553394 0.00139826 0)
(0.548506 0.00132365 0)
(0.543909 0.0012477 0)
(0.539594 0.0011726 0)
(0.535552 0.00109219 0)
(0.531796 0.00101472 0)
(0.528283 0.000923695 0)
(0.525112 0.000843767 0)
(0.522087 0.00073259 0)
(0.519595 0.000653315 0)
(0.51695 0.0005114 0)
(0.515366 0.000430959 0)
(0.512855 0.000288147 0)
(0.512523 6.75435e-05 0)
(0.509881 0.000278836 0)
(0.510047 -0.00161066 0)
(1.00625 0.0400328 0)
(1.05207 0.0363347 0)
(1.0661 0.0252232 0)
(1.05961 0.0205562 0)
(1.04689 0.0172341 0)
(1.03082 0.0146487 0)
(1.01194 0.0128084 0)
(0.991275 0.0113785 0)
(0.9699 0.0101763 0)
(0.948546 0.00915442 0)
(0.927661 0.00828767 0)
(0.907507 0.00754846 0)
(0.888233 0.00691257 0)
(0.869908 0.00636128 0)
(0.85255 0.00588014 0)
(0.836145 0.00545766 0)
(0.820661 0.00508453 0)
(0.806053 0.00475313 0)
(0.792273 0.00445723 0)
(0.77927 0.00419167 0)
(0.766994 0.00395212 0)
(0.755398 0.00373498 0)
(0.744435 0.00353718 0)
(0.734064 0.0033561 0)
(0.724246 0.0031895 0)
(0.714945 0.00303541 0)
(0.706128 0.00289214 0)
(0.697766 0.00275819 0)
(0.689832 0.00263222 0)
(0.682302 0.00251301 0)
(0.675156 0.00239945 0)
(0.668372 0.00229053 0)
(0.661937 0.00218518 0)
(0.655832 0.00208268 0)
(0.65005 0.00198159 0)
(0.644573 0.00188196 0)
(0.6394 0.00178093 0)
(0.634519 0.00168094 0)
(0.629926 0.00157471 0)
(0.625627 0.00147184 0)
(0.621593 0.00135286 0)
(0.617894 0.0012465 0)
(0.614387 0.00110352 0)
(0.611365 0.000995908 0)
(0.60831 0.000818024 0)
(0.606135 0.000702492 0)
(0.603375 0.00052704 0)
(0.602264 0.00025146 0)
(0.599659 0.000414796 0)
(0.59894 -0.00112714 0)
(1.00495 0.0373547 0)
(1.04727 0.0352523 0)
(1.06398 0.0246829 0)
(1.06427 0.0205821 0)
(1.0607 0.0177713 0)
(1.05477 0.0154907 0)
(1.04602 0.0138648 0)
(1.03485 0.0125991 0)
(1.02196 0.0115069 0)
(1.00796 0.0105469 0)
(0.993323 0.00970634 0)
(0.978399 0.00896803 0)
(0.963456 0.00831552 0)
(0.948688 0.00773588 0)
(0.934232 0.00721889 0)
(0.92018 0.00675612 0)
(0.90659 0.0063404 0)
(0.893496 0.00596563 0)
(0.880914 0.00562654 0)
(0.868846 0.00531862 0)
(0.857289 0.00503798 0)
(0.84623 0.00478123 0)
(0.835654 0.00454542 0)
(0.825545 0.00432794 0)
(0.815884 0.00412653 0)
(0.806653 0.00393916 0)
(0.797834 0.00376403 0)
(0.789409 0.00359952 0)
(0.781362 0.00344417 0)
(0.773677 0.00329662 0)
(0.76634 0.00315565 0)
(0.759337 0.00302007 0)
(0.752657 0.0028887 0)
(0.746289 0.00276063 0)
(0.740226 0.00263428 0)
(0.734456 0.00250955 0)
(0.728979 0.00238328 0)
(0.723783 0.00225798 0)
(0.718871 0.00212567 0)
(0.714243 0.00199657 0)
(0.709883 0.00184955 0)
(0.705839 0.00171512 0)
(0.702014 0.00154119 0)
(0.698615 0.00140173 0)
(0.695282 0.00119112 0)
(0.692655 0.00103394 0)
(0.689724 0.000829744 0)
(0.688 0.000502373 0)
(0.685394 0.000610493 0)
(0.684034 -0.000612054 0)
(1.0044 0.0348067 0)
(1.04324 0.0341788 0)
(1.05995 0.0240415 0)
(1.0623 0.0202878 0)
(1.06251 0.0178347 0)
(1.06183 0.0157713 0)
(1.05926 0.0143186 0)
(1.05472 0.0132179 0)
(1.04852 0.0122674 0)
(1.04097 0.0114187 0)
(1.03236 0.0106614 0)
(1.02294 0.00998248 0)
(1.01295 0.0093695 0)
(1.00259 0.00881318 0)
(0.99202 0.0083067 0)
(0.981371 0.00784452 0)
(0.970749 0.00742188 0)
(0.960235 0.00703458 0)
(0.949888 0.0066789 0)
(0.939753 0.0063515 0)
(0.929863 0.0060494 0)
(0.92024 0.00576991 0)
(0.910898 0.00551059 0)
(0.901846 0.0052692 0)
(0.893088 0.00504375 0)
(0.884625 0.00483238 0)
(0.876456 0.00463341 0)
(0.868578 0.00444528 0)
(0.860987 0.00426657 0)
(0.853679 0.00409592 0)
(0.846648 0.00393207 0)
(0.83989 0.00377379 0)
(0.833402 0.00361982 0)
(0.827176 0.00346917 0)
(0.821213 0.00332016 0)
(0.815505 0.00317259 0)
(0.810055 0.0030231 0)
(0.804857 0.00287415 0)
(0.799916 0.00271739 0)
(0.795231 0.00256313 0)
(0.790798 0.00238968 0)
(0.786647 0.00222739 0)
(0.78272 0.00202474 0)
(0.779157 0.00185213 0)
(0.77572 0.00161231 0)
(0.772842 0.00141095 0)
(0.769855 0.00117993 0)
(0.767741 0.000808032 0)
(0.76516 0.000854457 0)
(0.763407 -8.7702e-05 0)
(1.00402 0.0323664 0)
(1.03991 0.0331284 0)
(1.05617 0.023418 0)
(1.05894 0.0198991 0)
(1.06024 0.0177039 0)
(1.0616 0.0157751 0)
(1.06197 0.0144234 0)
(1.06109 0.0134374 0)
(1.05904 0.0126026 0)
(1.05592 0.0118592 0)
(1.05185 0.0111941 0)
(1.04693 0.0105941 0)
(1.04129 0.0100466 0)
(1.03506 0.00954309 0)
(1.02836 0.00907786 0)
(1.02131 0.00864678 0)
(1.01399 0.00824653 0)
(1.0065 0.00787426 0)
(0.998905 0.00752747 0)
(0.99127 0.00720393 0)
(0.983643 0.00690158 0)
(0.976064 0.00661853 0)
(0.968566 0.00635297 0)
(0.961176 0.00610323 0)
(0.953913 0.0058677 0)
(0.946795 0.00564487 0)
(0.939834 0.00543333 0)
(0.93304 0.00523172 0)
(0.926422 0.00503877 0)
(0.919984 0.00485322 0)
(0.913732 0.00467388 0)
(0.90767 0.00449957 0)
(0.9018 0.00432905 0)
(0.896125 0.00416131 0)
(0.890649 0.00399462 0)
(0.885371 0.00382872 0)
(0.880298 0.00366017 0)
(0.875428 0.00349132 0)
(0.870771 0.00331371 0)
(0.866327 0.00313729 0)
(0.862099 0.00294077 0)
(0.85811 0.00275282 0)
(0.854326 0.00252499 0)
(0.850843 0.00232039 0)
(0.847509 0.00205524 0)
(0.844611 0.00181096 0)
(0.841725 0.00155425 0)
(0.839463 0.00114716 0)
(0.836997 0.00112991 0)
(0.835097 0.000418345 0)
(1.00364 0.0300259 0)
(1.03692 0.0320806 0)
(1.05283 0.0228278 0)
(1.0557 0.0194934 0)
(1.05715 0.0175113 0)
(1.05905 0.0156745 0)
(1.0605 0.0143702 0)
(1.0612 0.0134472 0)
(1.06121 0.0126858 0)
(1.06057 0.0120165 0)
(1.05927 0.0114233 0)
(1.05733 0.0108916 0)
(1.05479 0.0104074 0)
(1.05171 0.00996102 0)
(1.04813 0.00954629 0)
(1.04413 0.00915901 0)
(1.03977 0.00879605 0)
(1.03511 0.00845498 0)
(1.03021 0.00813382 0)
(1.02511 0.00783089 0)
(1.01987 0.00754471 0)
(1.01452 0.00727392 0)
(1.00911 0.00701723 0)
(1.00366 0.0067734 0)
(0.998202 0.00654122 0)
(0.992757 0.00631951 0)
(0.987347 0.00610714 0)
(0.981989 0.00590296 0)
(0.976697 0.00570592 0)
(0.971485 0.0055149 0)
(0.966365 0.00532883 0)
(0.961345 0.00514663 0)
(0.956437 0.0049671 0)
(0.951646 0.00478929 0)
(0.946983 0.00461146 0)
(0.942451 0.00443333 0)
(0.938061 0.00425146 0)
(0.933816 0.00406801 0)
(0.929728 0.00387466 0)
(0.925801 0.00368072 0)
(0.922043 0.00346588 0)
(0.918472 0.00325617 0)
(0.91507 0.00300789 0)
(0.911906 0.00277459 0)
(0.908887 0.00248846 0)
(0.906198 0.00220551 0)
(0.903584 0.00192445 0)
(0.901409 0.00149223 0)
(0.899187 0.00141302 0)
(0.89737 0.000879792 0)
(1.00327 0.027786 0)
(1.03409 0.0310215 0)
(1.04971 0.022264 0)
(1.05274 0.0190856 0)
(1.05415 0.0172999 0)
(1.05611 0.0155447 0)
(1.05783 0.0142624 0)
(1.05905 0.0133697 0)
(1.05987 0.0126489 0)
(1.06033 0.0120229 0)
(1.06042 0.0114746 0)
(1.06012 0.0109891 0)
(1.05942 0.0105514 0)
(1.05832 0.0101505 0)
(1.05685 0.00977936 0)
(1.05503 0.00943297 0)
(1.05287 0.00910778 0)
(1.05042 0.00880109 0)
(1.04771 0.00851081 0)
(1.04476 0.0082353 0)
(1.04161 0.00797322 0)
(1.03829 0.00772336 0)
(1.03483 0.00748467 0)
(1.03126 0.00725612 0)
(1.02759 0.00703672 0)
(1.02385 0.00682548 0)
(1.02006 0.00662147 0)
(1.01623 0.0064237 0)
(1.0124 0.00623126 0)
(1.00856 0.00604314 0)
(1.00473 0.0058584 0)
(1.00094 0.00567602 0)
(0.997177 0.00549488 0)
(0.993467 0.00531406 0)
(0.989818 0.00513185 0)
(0.986238 0.00494797 0)
(0.982738 0.00475895 0)
(0.979326 0.00456683 0)
(0.976013 0.00436349 0)
(0.972809 0.00415743 0)
(0.96972 0.00392977 0)
(0.966767 0.00370324 0)
(0.963941 0.00343985 0)
(0.961291 0.00318257 0)
(0.958765 0.00288011 0)
(0.956478 0.00256472 0)
(0.954291 0.00226119 0)
(0.952406 0.00181368 0)
(0.950554 0.0016759 0)
(0.949017 0.00127373 0)
(1.00292 0.0256501 0)
(1.03138 0.0299468 0)
(1.04671 0.0217224 0)
(1.04995 0.0186757 0)
(1.05133 0.0170764 0)
(1.05325 0.0154077 0)
(1.05501 0.014141 0)
(1.05634 0.0132639 0)
(1.0574 0.0125663 0)
(1.05825 0.0119642 0)
(1.0589 0.0114404 0)
(1.05933 0.0109814 0)
(1.05953 0.010572 0)
(1.05949 0.0102007 0)
(1.05921 0.00985961 0)
(1.05869 0.00954329 0)
(1.05794 0.00924761 0)
(1.05696 0.00896942 0)
(1.05577 0.00870632 0)
(1.05437 0.00845641 0)
(1.0528 0.00821819 0)
(1.05105 0.0079904 0)
(1.04915 0.00777194 0)
(1.04712 0.00756179 0)
(1.04496 0.00735901 0)
(1.04271 0.00716265 0)
(1.04036 0.00697183 0)
(1.03794 0.00678561 0)
(1.03546 0.00660312 0)
(1.03293 0.00642341 0)
(1.03037 0.00624558 0)
(1.02778 0.00606865 0)
(1.02519 0.00589151 0)
(1.02259 0.00571327 0)
(1.02 0.0055322 0)
(1.01743 0.00534802 0)
(1.0149 0.00515727 0)
(1.0124 0.00496178 0)
(1.00996 0.00475376 0)
(1.00757 0.00454071 0)
(1.00526 0.00430549 0)
(1.00303 0.00406713 0)
(1.0009 0.00379381 0)
(0.998877 0.00351785 0)
(0.996957 0.00320341 0)
(0.995201 0.00286269 0)
(0.993544 0.00253897 0)
(0.992092 0.00208442 0)
(0.990706 0.0018934 0)
(0.989588 0.00157892 0)
(1.0026 0.0236209 0)
(1.0288 0.028855 0)
(1.04379 0.0212017 0)
(1.04726 0.0182638 0)
(1.04865 0.0168394 0)
(1.05053 0.0152663 0)
(1.05228 0.014017 0)
(1.05362 0.0131508 0)
(1.05471 0.0124696 0)
(1.05566 0.0118827 0)
(1.05648 0.0113727 0)
(1.05717 0.0109279 0)
(1.05773 0.010534 0)
(1.05816 0.0101795 0)
(1.05845 0.00985618 0)
(1.0586 0.00955846 0)
(1.0586 0.00928194 0)
(1.05846 0.00902317 0)
(1.05817 0.00877947 0)
(1.05774 0.0085487 0)
(1.05718 0.00832917 0)
(1.05649 0.00811944 0)
(1.05568 0.0079183 0)
(1.05475 0.00772464 0)
(1.05371 0.00753744 0)
(1.05258 0.00735571 0)
(1.05135 0.0071785 0)
(1.05005 0.00700485 0)
(1.04867 0.00683385 0)
(1.04723 0.00666454 0)
(1.04574 0.00649596 0)
(1.0442 0.00632713 0)
(1.04262 0.00615691 0)
(1.04102 0.00598439 0)
(1.0394 0.0058078 0)
(1.03777 0.00562681 0)
(1.03614 0.00543796 0)
(1.03451 0.00524284 0)
(1.03291 0.00503404 0)
(1.03133 0.00481792 0)
(1.02979 0.00457928 0)
(1.0283 0.00433327 0)
(1.02687 0.00405422 0)
(1.02551 0.00376446 0)
(1.02422 0.00344157 0)
(1.02304 0.00308226 0)
(1.02195 0.00274069 0)
(1.021 0.00228493 0)
(1.02012 0.00204645 0)
(1.01949 0.00178196 0)
(1.0023 0.0217001 0)
(1.02634 0.0277471 0)
(1.04096 0.0207002 0)
(1.04465 0.0178512 0)
(1.04606 0.0165875 0)
(1.04791 0.0151187 0)
(1.04966 0.0138915 0)
(1.051 0.0130354 0)
(1.05208 0.012369 0)
(1.05303 0.0117947 0)
(1.05388 0.0112942 0)
(1.05464 0.010858 0)
(1.05531 0.010473 0)
(1.0559 0.0101276 0)
(1.05641 0.00981407 0)
(1.05684 0.00952668 0)
(1.05719 0.00926106 0)
(1.05745 0.00901369 0)
(1.05762 0.00878178 0)
(1.05771 0.00856307 0)
(1.05772 0.00835572 0)
(1.05764 0.00815823 0)
(1.05748 0.00796926 0)
(1.05725 0.00778761 0)
(1.05693 0.00761219 0)
(1.05654 0.00744192 0)
(1.05608 0.00727577 0)
(1.05555 0.00711272 0)
(1.05497 0.00695176 0)
(1.05432 0.00679189 0)
(1.05362 0.00663206 0)
(1.05288 0.00647126 0)
(1.0521 0.00630825 0)
(1.05128 0.0061421 0)
(1.05044 0.00597095 0)
(1.04958 0.0057944 0)
(1.0487 0.005609 0)
(1.04781 0.005416 0)
(1.04692 0.00520847 0)
(1.04605 0.00499152 0)
(1.04519 0.00475195 0)
(1.04435 0.00450108 0)
(1.04355 0.00421897 0)
(1.0428 0.0039192 0)
(1.0421 0.00359008 0)
(1.04147 0.00321768 0)
(1.04091 0.00286015 0)
(1.04045 0.00240623 0)
(1.04007 0.0021254 0)
(1.03992 0.00187933 0)
(1.00203 0.0198886 0)
(1.02402 0.0266261 0)
(1.03823 0.020215 0)
(1.04213 0.0174398 0)
(1.04356 0.0163209 0)
(1.04539 0.0149638 0)
(1.04713 0.013764 0)
(1.04847 0.0129181 0)
(1.04954 0.0122663 0)
(1.05047 0.0117045 0)
(1.05131 0.0112127 0)
(1.05208 0.0107832 0)
(1.05277 0.0104043 0)
(1.0534 0.0100647 0)
(1.05397 0.00975689 0)
(1.0545 0.00947525 0)
(1.05497 0.00921555 0)
(1.05539 0.00897433 0)
(1.05577 0.0087488 0)
(1.0561 0.00853672 0)
(1.05638 0.00833622 0)
(1.05661 0.00814576 0)
(1.05679 0.00796399 0)
(1.05693 0.00778967 0)
(1.05701 0.00762165 0)
(1.05706 0.0074588 0)
(1.05705 0.00730004 0)
(1.057 0.00714427 0)
(1.05691 0.00699043 0)
(1.05678 0.00683744 0)
(1.05661 0.00668417 0)
(1.05641 0.00652955 0)
(1.05617 0.00637225 0)
(1.05591 0.0062113 0)
(1.05562 0.00604475 0)
(1.05532 0.00587208 0)
(1.05499 0.00568989 0)
(1.05466 0.00549903 0)
(1.05432 0.00529311 0)
(1.05399 0.00507593 0)
(1.05366 0.00483625 0)
(1.05334 0.00458183 0)
(1.05305 0.00429773 0)
(1.0528 0.00399034 0)
(1.05258 0.00365585 0)
(1.05241 0.00327412 0)
(1.05229 0.00290181 0)
(1.05226 0.00245004 0)
(1.05231 0.00213074 0)
(1.05259 0.00187738 0)
(1.00179 0.0181865 0)
(1.02184 0.0254959 0)
(1.03559 0.0197421 0)
(1.03969 0.0170316 0)
(1.04116 0.0160404 0)
(1.04295 0.0148005 0)
(1.04469 0.013634 0)
(1.04603 0.0127986 0)
(1.04709 0.0121614 0)
(1.04801 0.0116128 0)
(1.04884 0.0111298 0)
(1.04959 0.0107069 0)
(1.05027 0.0103333 0)
(1.0509 0.00999841 0)
(1.05148 0.00969471 0)
(1.05203 0.00941683 0)
(1.05253 0.00916067 0)
(1.05301 0.00892286 0)
(1.05345 0.00870071 0)
(1.05387 0.00849201 0)
(1.05425 0.00829494 0)
(1.05462 0.00810799 0)
(1.05495 0.00792983 0)
(1.05526 0.00775923 0)
(1.05555 0.00759506 0)
(1.05581 0.00743616 0)
(1.05604 0.00728144 0)
(1.05625 0.00712975 0)
(1.05644 0.00697998 0)
(1.0566 0.006831 0)
(1.05674 0.00668163 0)
(1.05685 0.00653075 0)
(1.05695 0.00637694 0)
(1.05703 0.00621917 0)
(1.0571 0.00605545 0)
(1.05715 0.00588511 0)
(1.05719 0.00570484 0)
(1.05723 0.00551505 0)
(1.05727 0.00530991 0)
(1.0573 0.00509194 0)
(1.05735 0.00485174 0)
(1.05741 0.0045939 0)
(1.05748 0.00430761 0)
(1.05759 0.00399372 0)
(1.05772 0.00365363 0)
(1.0579 0.00326459 0)
(1.05812 0.00287793 0)
(1.05842 0.00242641 0)
(1.0588 0.0020709 0)
(1.05943 0.00179023 0)
(1.00157 0.0165937 0)
(1.01979 0.0243605 0)
(1.03305 0.0192776 0)
(1.03734 0.0166282 0)
(1.03885 0.015747 0)
(1.0406 0.0146281 0)
(1.04233 0.0135011 0)
(1.04368 0.0126769 0)
(1.04473 0.0120543 0)
(1.04564 0.0115194 0)
(1.04645 0.0110459 0)
(1.04719 0.0106296 0)
(1.04786 0.0102613 0)
(1.04848 0.00993093 0)
(1.04906 0.00963095 0)
(1.04959 0.00935619 0)
(1.0501 0.00910267 0)
(1.05058 0.00886717 0)
(1.05104 0.00864703 0)
(1.05147 0.00844013 0)
(1.05189 0.00824472 0)
(1.0523 0.00805933 0)
(1.05269 0.00788269 0)
(1.05307 0.00771363 0)
(1.05343 0.00755101 0)
(1.05379 0.00739372 0)
(1.05413 0.00724064 0)
(1.05446 0.00709064 0)
(1.05477 0.00694257 0)
(1.05508 0.00679527 0)
(1.05538 0.00664753 0)
(1.05566 0.00649818 0)
(1.05594 0.00634575 0)
(1.05621 0.00618917 0)
(1.05647 0.00602639 0)
(1.05673 0.00585662 0)
(1.05699 0.00567665 0)
(1.05725 0.00548647 0)
(1.05751 0.00528081 0)
(1.05778 0.00506097 0)
(1.05806 0.00481918 0)
(1.05835 0.00455738 0)
(1.05866 0.00426795 0)
(1.059 0.00394781 0)
(1.05937 0.00360119 0)
(1.05978 0.00320548 0)
(1.06023 0.00280435 0)
(1.06076 0.0023497 0)
(1.06138 0.00195881 0)
(1.06224 0.00163614 0)
(1.00137 0.0151091 0)
(1.01788 0.0232238 0)
(1.03062 0.0188174 0)
(1.03507 0.0162312 0)
(1.03663 0.0154424 0)
(1.03834 0.0144461 0)
(1.04006 0.013365 0)
(1.04141 0.0125529 0)
(1.04246 0.0119447 0)
(1.04336 0.0114242 0)
(1.04416 0.0109606 0)
(1.04489 0.0105513 0)
(1.04555 0.0101886 0)
(1.04615 0.00986274 0)
(1.04672 0.00956649 0)
(1.04724 0.00929474 0)
(1.04774 0.00904365 0)
(1.04821 0.00881008 0)
(1.04866 0.00859147 0)
(1.0491 0.00838576 0)
(1.04952 0.00819125 0)
(1.04994 0.00800654 0)
(1.05034 0.00783042 0)
(1.05074 0.00766176 0)
(1.05113 0.00749948 0)
(1.05151 0.00734248 0)
(1.05189 0.00718966 0)
(1.05226 0.00703989 0)
(1.05263 0.00689201 0)
(1.053 0.00674486 0)
(1.05336 0.00659718 0)
(1.05373 0.00644779 0)
(1.05409 0.00629518 0)
(1.05445 0.00613823 0)
(1.05481 0.00597489 0)
(1.05517 0.00580423 0)
(1.05554 0.00562316 0)
(1.05591 0.00543125 0)
(1.05629 0.00522377 0)
(1.05669 0.00500095 0)
(1.05709 0.0047564 0)
(1.05752 0.00448991 0)
(1.05797 0.00419617 0)
(1.05844 0.00386954 0)
(1.05894 0.0035153 0)
(1.05949 0.00311265 0)
(1.06008 0.00269663 0)
(1.06075 0.00223481 0)
(1.06152 0.00180837 0)
(1.06254 0.00143305 0)
(1.0012 0.0137311 0)
(1.01611 0.02209 0)
(1.0283 0.0183579 0)
(1.0329 0.0158416 0)
(1.0345 0.0151281 0)
(1.03617 0.0142539 0)
(1.03788 0.0132252 0)
(1.03924 0.0124268 0)
(1.04028 0.0118325 0)
(1.04117 0.0113269 0)
(1.04196 0.010874 0)
(1.04268 0.010472 0)
(1.04333 0.010115 0)
(1.04392 0.00979386 0)
(1.04447 0.00950145 0)
(1.04499 0.00923277 0)
(1.04547 0.00898411 0)
(1.04593 0.00875242 0)
(1.04638 0.00853523 0)
(1.04681 0.00833051 0)
(1.04722 0.00813664 0)
(1.04763 0.00795229 0)
(1.04803 0.00777628 0)
(1.04842 0.00760755 0)
(1.04881 0.00744505 0)
(1.0492 0.00728772 0)
(1.04959 0.00713447 0)
(1.04997 0.00698418 0)
(1.05036 0.00683568 0)
(1.05075 0.00668782 0)
(1.05113 0.00653929 0)
(1.05152 0.00638892 0)
(1.05191 0.00623517 0)
(1.05231 0.00607686 0)
(1.05271 0.00591197 0)
(1.05311 0.0057394 0)
(1.05353 0.00555623 0)
(1.05395 0.00536162 0)
(1.05439 0.00515134 0)
(1.05484 0.0049247 0)
(1.05531 0.00467638 0)
(1.0558 0.00440458 0)
(1.05631 0.00410546 0)
(1.05685 0.003772 0)
(1.05743 0.00340914 0)
(1.05804 0.00299882 0)
(1.05871 0.00256745 0)
(1.05946 0.00209428 0)
(1.06031 0.00163209 0)
(1.06141 0.00119549 0)
(1.00104 0.0124575 0)
(1.01447 0.0209633 0)
(1.02609 0.0178957 0)
(1.0308 0.0154603 0)
(1.03247 0.0148062 0)
(1.0341 0.014051 0)
(1.03579 0.0130813 0)
(1.03715 0.0122986 0)
(1.03819 0.0117179 0)
(1.03907 0.0112274 0)
(1.03985 0.0107859 0)
(1.04056 0.0103915 0)
(1.0412 0.0100404 0)
(1.04178 0.00972421 0)
(1.04232 0.00943579 0)
(1.04283 0.00917029 0)
(1.0433 0.00892412 0)
(1.04375 0.00869435 0)
(1.04419 0.00847856 0)
(1.0446 0.00827481 0)
(1.04501 0.00808152 0)
(1.04541 0.00789742 0)
(1.0458 0.00772139 0)
(1.04619 0.00755241 0)
(1.04657 0.00738948 0)
(1.04696 0.00723156 0)
(1.04734 0.00707759 0)
(1.04772 0.00692644 0)
(1.04811 0.00677696 0)
(1.04849 0.00662796 0)
(1.04888 0.00647815 0)
(1.04927 0.00632631 0)
(1.04967 0.0061709 0)
(1.05008 0.00601068 0)
(1.05049 0.00584366 0)
(1.05091 0.00566861 0)
(1.05134 0.00548273 0)
(1.05178 0.00528484 0)
(1.05223 0.00507112 0)
(1.05271 0.0048401 0)
(1.0532 0.00458732 0)
(1.05371 0.00430979 0)
(1.05425 0.00400453 0)
(1.05481 0.0036639 0)
(1.05541 0.00329172 0)
(1.05606 0.00287284 0)
(1.05675 0.00242574 0)
(1.05754 0.00193747 0)
(1.05843 0.00143875 0)
(1.05957 0.000937534 0)
(1.0009 0.0112854 0)
(1.01296 0.0198481 0)
(1.02399 0.0174277 0)
(1.0288 0.0150878 0)
(1.03054 0.0144787 0)
(1.03212 0.0138373 0)
(1.03379 0.0129326 0)
(1.03515 0.0121682 0)
(1.0362 0.0116008 0)
(1.03706 0.0111256 0)
(1.03784 0.0106961 0)
(1.03853 0.0103098 0)
(1.03916 0.00996489 0)
(1.03974 0.00965372 0)
(1.04027 0.00936942 0)
(1.04076 0.00910721 0)
(1.04123 0.00886362 0)
(1.04167 0.00863583 0)
(1.04209 0.00842149 0)
(1.0425 0.00821872 0)
(1.0429 0.00802601 0)
(1.04329 0.00784214 0)
(1.04367 0.00766605 0)
(1.04405 0.00749677 0)
(1.04443 0.00733334 0)
(1.0448 0.00717474 0)
(1.04518 0.00701992 0)
(1.04555 0.00686779 0)
(1.04593 0.00671716 0)
(1.04631 0.00656685 0)
(1.04669 0.00641554 0)
(1.04708 0.00626201 0)
(1.04748 0.00610469 0)
(1.04788 0.0059423 0)
(1.04829 0.00577287 0)
(1.04871 0.00559503 0)
(1.04914 0.00540613 0)
(1.04958 0.00520464 0)
(1.05004 0.0049871 0)
(1.05051 0.00475144 0)
(1.051 0.00449375 0)
(1.05152 0.00421027 0)
(1.05206 0.00389837 0)
(1.05263 0.00355033 0)
(1.05324 0.00316842 0)
(1.05389 0.00274012 0)
(1.05459 0.00227696 0)
(1.05538 0.00177065 0)
(1.05629 0.00123424 0)
(1.05743 0.000668179 0)
(1.00078 0.0102113 0)
(1.01157 0.0187488 0)
(1.02201 0.0169512 0)
(1.02688 0.0147241 0)
(1.02869 0.0141476 0)
(1.03024 0.0136127 0)
(1.03188 0.0127784 0)
(1.03324 0.0120355 0)
(1.03429 0.0114812 0)
(1.03515 0.0110214 0)
(1.03591 0.0106045 0)
(1.0366 0.0102269 0)
(1.03722 0.00988826 0)
(1.03778 0.00958231 0)
(1.0383 0.00930229 0)
(1.03879 0.00904349 0)
(1.03925 0.00880257 0)
(1.03968 0.00857682 0)
(1.04009 0.00836397 0)
(1.04049 0.00816221 0)
(1.04088 0.00797009 0)
(1.04126 0.00778645 0)
(1.04164 0.00761029 0)
(1.04201 0.0074407 0)
(1.04238 0.00727673 0)
(1.04274 0.00711742 0)
(1.04311 0.00696173 0)
(1.04348 0.00680855 0)
(1.04385 0.0066567 0)
(1.04422 0.006505 0)
(1.0446 0.00635212 0)
(1.04498 0.00619679 0)
(1.04537 0.00603746 0)
(1.04576 0.00587277 0)
(1.04616 0.0057008 0)
(1.04658 0.00552003 0)
(1.047 0.00532793 0)
(1.04744 0.00512271 0)
(1.04789 0.00490115 0)
(1.04836 0.00466073 0)
(1.04885 0.00439788 0)
(1.04936 0.00410838 0)
(1.04989 0.00378956 0)
(1.05046 0.00343395 0)
(1.05105 0.00304211 0)
(1.0517 0.00260362 0)
(1.0524 0.00212422 0)
(1.05318 0.00159741 0)
(1.05408 0.00102329 0)
(1.05521 0.000391105 0)
(1.00067 0.00923111 0)
(1.01031 0.0176699 0)
(1.02013 0.0164639 0)
(1.02505 0.014369 0)
(1.02693 0.0138152 0)
(1.02845 0.0133776 0)
(1.03006 0.0126182 0)
(1.03142 0.0119005 0)
(1.03247 0.0113592 0)
(1.03332 0.0109147 0)
(1.03407 0.0105109 0)
(1.03475 0.0101424 0)
(1.03537 0.00981046 0)
(1.03592 0.00950989 0)
(1.03643 0.00923429 0)
(1.03691 0.00897903 0)
(1.03736 0.00874088 0)
(1.03778 0.00851723 0)
(1.03819 0.00830592 0)
(1.03858 0.0081052 0)
(1.03896 0.0079137 0)
(1.03933 0.0077303 0)
(1.0397 0.00755408 0)
(1.04006 0.00738416 0)
(1.04042 0.00721966 0)
(1.04078 0.00705962 0)
(1.04114 0.00690302 0)
(1.0415 0.00674877 0)
(1.04187 0.00659569 0)
(1.04223 0.00644256 0)
(1.0426 0.00628805 0)
(1.04297 0.00613087 0)
(1.04335 0.00596947 0)
(1.04374 0.00580244 0)
(1.04414 0.00562785 0)
(1.04454 0.00544409 0)
(1.04496 0.00524872 0)
(1.04539 0.00503971 0)
(1.04583 0.00481403 0)
(1.04629 0.00456881 0)
(1.04677 0.00430069 0)
(1.04727 0.00400514 0)
(1.04779 0.00367929 0)
(1.04835 0.00331599 0)
(1.04893 0.00291417 0)
(1.04957 0.00246485 0)
(1.05025 0.00196914 0)
(1.05102 0.00142009 0)
(1.05191 0.000808878 0)
(1.05301 0.000109886 0)
(1.00058 0.0083402 0)
(1.00917 0.0166157 0)
(1.01838 0.0159641 0)
(1.0233 0.0140219 0)
(1.02526 0.0134831 0)
(1.02675 0.0131325 0)
(1.02832 0.0124513 0)
(1.02968 0.0117629 0)
(1.03073 0.0112348 0)
(1.03158 0.0108053 0)
(1.03233 0.0104152 0)
(1.033 0.0100564 0)
(1.0336 0.00973138 0)
(1.03415 0.00943637 0)
(1.03466 0.00916535 0)
(1.03512 0.00891377 0)
(1.03556 0.00867847 0)
(1.03598 0.00845701 0)
(1.03638 0.00824729 0)
(1.03676 0.00804765 0)
(1.03714 0.00785677 0)
(1.0375 0.00767363 0)
(1.03786 0.00749735 0)
(1.03822 0.00732711 0)
(1.03857 0.00716206 0)
(1.03892 0.00700129 0)
(1.03927 0.00684377 0)
(1.03963 0.00668844 0)
(1.03998 0.00653409 0)
(1.04034 0.00637951 0)
(1.0407 0.00622336 0)
(1.04107 0.00606431 0)
(1.04144 0.0059008 0)
(1.04182 0.00573138 0)
(1.04221 0.00555414 0)
(1.0426 0.00536737 0)
(1.04301 0.00516868 0)
(1.04343 0.00495587 0)
(1.04386 0.00472601 0)
(1.04431 0.00447602 0)
(1.04478 0.00420255 0)
(1.04527 0.00390099 0)
(1.04579 0.00356807 0)
(1.04633 0.00319702 0)
(1.0469 0.00278527 0)
(1.04752 0.00232464 0)
(1.04819 0.00181257 0)
(1.04895 0.00124027 0)
(1.04981 0.000592475 0)
(1.05087 -0.000168068 0)
(1.0005 0.00753355 0)
(1.00814 0.0155904 0)
(1.01673 0.015451 0)
(1.02163 0.0136818 0)
(1.02368 0.0131533 0)
(1.02514 0.0128781 0)
(1.02667 0.0122771 0)
(1.02803 0.0116224 0)
(1.02908 0.0111081 0)
(1.02993 0.0106933 0)
(1.03066 0.0103173 0)
(1.03133 0.00996873 0)
(1.03193 0.00965094 0)
(1.03247 0.00936166 0)
(1.03297 0.00909537 0)