/*--------------------------------*- C++ -*----------------------------------*\
  =========                 |
  \\      /  F ield         | OpenFOAM: The Open Source CFD Toolbox
   \\    /   O peration     | Website:  https://openfoam.org
    \\  /    A nd           | Version:  7
     \\/     M anipulation  |
\*---------------------------------------------------------------------------*/
FoamFile
{
    version     2.0;
    format      ascii;
    class       volScalarField;
    location    "0.25";
    object      yPlus;
}
// * * * * * * * * * * * * * * * * * * * * * * * * * * * * * * * * * * * * * //

dimensions      [0 0 0 0 0 0 0];

internalField   uniform 0;

boundaryField
{
    velocityInlet
    {
        type            calculated;
        value           uniform 0;
    }
    pressureOutlet
    {
        type            calculated;
        value           uniform 0;
    }
    fixedWalls
    {
        type            calculated;
        value           nonuniform List<scalar> 
100
(
1.89468
1.44646
0.492765
0.675814
0.161524
0.517519
0.949359
1.11789
1.08669
0.286538
1.40068
1.96293
2.16404
2.06091
1.72267
1.22149
0.538513
0.685496
0.923091
0.999636
1.00923
0.988073
0.951976
0.908284
0.860883
0.811959
0.762693
0.713869
0.666687
0.623505
0.588142
0.565414
0.559547
0.571454
0.596638
0.625896
0.648274
0.653756
0.63503
0.589181
0.519543
0.437452
0.364243
0.330515
0.35457
0.419855
0.49873
0.573782
0.637253
0.687153
0.725181
0.75543
0.78305
0.812674
0.84601
0.878983
0.901359
0.899903
0.863031
0.783871
0.660869
0.500122
0.324189
0.213202
0.291615
0.444806
0.580933
0.681991
0.748536
0.787594
0.80826
0.819082
0.826616
0.835909
0.853409
0.885518
0.930125
0.979451
1.03684
1.11384
1.21194
1.32941
1.44676
1.49312
1.36695
0.936118
0.642757
1.18698
1.37163
1.3483
1.17614
0.888656
0.448374
0.525241
0.790225
0.916136
0.987382
1.02292
1.03926
1.05923
)
;
    }
    bottomWall
    {
        type            calculated;
        value           nonuniform List<scalar> 
800
(
2.94479
1.98391
1.61346
1.44037
1.35526
1.29666
1.24775
1.20667
1.17215
1.1426
1.11681
1.09399
1.07358
1.05519
1.03849
1.02323
1.00922
0.996294
0.98432
0.973184
0.962797
0.953078
0.94396
0.935387
0.927306
0.919674
0.912454
0.90561
0.899113
0.892937
0.887057
0.88145
0.876101
0.870988
0.866097
0.861414
0.856926
0.852619
0.848484
0.844511
0.84069
0.837012
0.833469
0.830055
0.826762
0.823584
0.820516
0.817552
0.814684
0.811915
0.809593
0.80767
0.805769
0.803893
0.802043
0.800217
0.798413
0.796634
0.794876
0.79314
0.791426
0.789733
0.78806
0.786408
0.784775
0.783162
0.781567
0.779992
0.778435
0.776895
0.775373
0.773869
0.772381
0.77091
0.769455
0.768016
0.766594
0.765186
0.763793
0.762415
0.761053
0.759704
0.758369
0.757049
0.755742
0.754449
0.753168
0.7519
0.750646
0.749403
0.748173
0.746955
0.745749
0.744555
0.743373
0.742202
0.741041
0.739893
0.738754
0.737626
0.736509
0.735402
0.734305
0.733219
0.732141
0.731074
0.730017
0.728968
0.727928
0.726899
0.725877
0.724865
0.723861
0.722866
0.721879
0.720901
0.71993
0.718968
0.718014
0.717068
0.716129
0.715198
0.714274
0.713357
0.712449
0.711547
0.710651
0.709764
0.708883
0.708007
0.707139
0.706278
0.705423
0.704575
0.703732
0.702896
0.702067
0.701243
0.700425
0.699613
0.698806
0.698006
0.697211
0.696421
0.695637
0.694859
0.694085
0.693318
0.692555
0.691798
0.691161
0.690642
0.690119
0.689597
0.689072
0.688547
0.68802
0.687493
0.686963
0.686434
0.685902
0.68537
0.684836
0.6843
0.683765
0.683227
0.682689
0.68215
0.681609
0.681068
0.680525
0.67998
0.679435
0.678889
0.678342
0.677793
0.677243
0.676692
0.67614
0.675587
0.675033
0.674477
0.67392
0.673362
0.672804
0.672244
0.671683
0.671121
0.670557
0.669993
0.669427
0.66886
0.668293
0.667724
0.667153
0.666583
0.66601
0.665436
0.664861
0.664286
0.663708
0.663131
0.662551
0.66197
0.661389
0.660806
0.660222
0.659637
0.65905
0.658463
0.657874
0.657284
0.656692
0.6561
0.655505
0.65491
0.654313
0.653716
0.653116
0.652515
0.651912
0.651309
0.650704
0.650097
0.649488
0.648878
0.648267
0.647653
0.647038
0.646422
0.645804
0.645183
0.644562
0.643935
0.643313
0.642679
0.642058
0.641409
0.640797
0.640123
0.639535
0.638813
0.638281
0.637465
0.637045
0.636064
0.635841
0.634605
0.634665
0.633097
2.94479
1.98393
1.6135
1.44044
1.35536
1.2968
1.24794
1.20693
1.17251
1.14308
1.11743
1.09478
1.07456
1.05638
1.03991
1.02491
1.01116
0.998523
0.986853
0.97604
0.965996
0.956641
0.94791
0.939749
0.93211
0.924952
0.918241
0.911948
0.90605
0.900523
0.895356
0.890531
0.886043
0.881879
0.878042
0.874527
0.871339
0.868488
0.865965
0.863835
0.861989
0.860714
0.859493
0.85938
0.858466
0.860259
0.858503
0.863854
0.859566
0.837839
0.459765
1.04536
1.40534
1.4766
1.29642
0.837721
0.815791
1.20152
1.44553
1.76755
2.35216
3.14317
3.66559
3.77976
3.69638
3.50905
3.22751
2.86452
2.41701
1.85328
1.11572
1.35054
2.01085
2.49855
2.88161
3.19654
3.46196
3.69038
3.88729
4.05791
4.20655
4.33657
4.4506
4.55074
4.63856
4.71528
4.78176
4.83863
4.88623
4.92467
4.95406
4.97398
4.98428
4.98415
4.97241
4.94843
4.91095
4.85804
4.78781
4.69862
4.58876
4.4568
4.30193
4.12423
3.92453
3.7042
3.4647
3.20747
2.93458
2.65066
2.364
2.0801
1.79343
1.49511
1.18248
0.880575
0.77337
0.903561
1.01629
1.06656
1.06976
1.05686
1.06836
1.13738
1.26139
1.41388
1.57313
1.72393
1.85594
1.9631
2.04245
2.09535
2.12555
2.13598
2.13724
2.12495
2.09342
2.04182
1.9699
1.87755
1.76428
1.62821
1.46536
1.27018
1.04548
0.888868
1.0483
1.346
1.63601
1.90307
2.14903
2.37373
2.57228
2.74095
2.87632
2.97585
3.03888
3.06526
3.05559
3.01513
2.94864
2.86045
2.75723
2.65356
2.57491
2.54459
2.56516
2.61725
2.66836
2.67367
2.59427
2.44292
2.25486
2.05245
1.84678
1.6372
1.43107
1.24373
1.10468
1.05231
1.08632
1.16295
1.2474
1.32531
1.39252
1.4485
1.49389
1.5296
1.55659
1.57569
1.58751
1.59258
1.5913
1.58407
1.57117
1.5527
1.52871
1.49918
1.46401
1.42325
1.3769
1.32437
1.2652
1.19872
1.12399
1.03975
0.944485
0.837217
0.721291
0.621701
0.612938
0.711037
0.839955
0.965532
1.08178
1.18899
1.28847
1.38443
1.47474
1.55981
1.64007
1.71582
1.78726
1.85448
1.91751
1.97632
2.03079
2.08078
2.12607
2.16641
2.20152
2.23106
2.25468
2.27201
2.28267
2.28632
2.2824
2.27073
2.25253
2.22598
2.19036
2.14531
2.09048
2.02577
1.95238
1.8767
1.80689
1.77657
1.8818
2.25906
0.406919
1.0475
1.33039
1.36149
1.17276
0.771574
1.09042
1.54463
1.85042
2.02463
2.08601
2.06709
2.00063
1.9105
1.83534
1.82696
1.89106
1.96642
1.98348
1.89308
1.67791
1.33803
0.882136
0.498283
0.734278
0.905421
0.786581
1.22998
1.32975
0.658567
1.79157
2.45322
2.2302
2.00321
3.37957
4.13032
4.48991
4.85394
5.22176
5.50401
5.78275
6.02938
6.24887
6.44431
6.60678
6.73953
6.83856
6.90473
6.93674
6.93302
6.89413
6.81901
6.7047
6.54879
6.3473
6.09621
5.79007
5.42208
4.98258
4.45687
3.8202
3.02835
2.06233
2.15483
3.15052
3.97059
4.65164
5.23354
5.73828
6.17851
6.56178
6.89141
7.1713
7.40204
7.58222
7.71645
7.79888
7.83725
7.82353
7.77228
7.66948
7.5129
7.3154
7.01554
6.69527
6.14583
5.57849
4.79874
2.94358
1.80807
1.85271
1.40147
1.21995
1.11025
0.920411
0.749927
0.730449
0.849181
0.903729
0.563021
0.636139
0.940139
1.12173
1.04951
0.641836
0.952114
1.48223
1.88242
2.20811
2.482
2.71641
2.91796
3.08915
3.22997
3.34074
3.42462
3.48786
3.5362
3.56231
3.55085
3.48324
3.34838
3.1451
2.87852
2.55614
2.18555
1.77391
1.34666
1.00199
1.07866
1.48269
1.93917
2.37227
2.70502
2.87121
2.84382
2.68717
2.31912
1.67138
0.508188
1.65477
2.05001
2.18039
2.01263
1.82806
2.4479
2.7775
2.71286
2.2626
1.83903
2.65992
3.0701
2.88398
2.7908
2.95327
3.24302
3.47663
3.61076
3.6597
3.7203
3.87423
4.16376
4.62396
5.19356
5.66756
5.91932
6.01854
6.06853
6.14458
6.20723
6.22914
6.23443
6.24297
6.24609
6.23738
6.22574
6.21689
6.2084
6.20102
6.19845
6.20148
6.20819
6.21898
6.23591
6.26523
6.30376
6.34903
6.39532
6.43466
6.46038
6.46983
6.46436
6.44827
6.42675
6.40249
6.37657
6.3498
6.32318
6.2979
6.27491
6.25476
6.23765
6.22349
6.21217
6.2028
6.19455
6.18686
6.17907
6.17042
6.16064
6.14993
6.1389
6.12861
6.12039
6.11584
6.11682
6.12528
6.14358
6.17353
6.21511
6.26483
6.3157
6.35973
6.39125
6.40812
6.411
6.40235
6.38541
6.36115
6.32962
6.29118
6.24656
6.1966
6.14192
6.08297
6.0201
5.95365
5.88396
5.8113
5.73591
5.65793
5.57754
5.49483
5.40989
5.32276
5.23347
5.14203
5.04841
4.95256
4.85439
4.75384
4.65077
4.54506
4.43654
4.32499
4.21022
4.09194
3.96988
3.84367
3.71295
3.57732
3.43629
3.28939
3.13608
2.97596
2.80889
2.63533
2.45663
2.28971
2.13462
2.00976
1.94914
1.98144
2.10197
2.27653
2.4744
2.67872
2.88249
3.08328
3.2811
3.48875
3.69503
3.89995
4.10422
4.30856
4.51366
4.72032
4.92926
5.14133
5.35717
5.57793
5.8037
6.03693
6.27522
6.52628
6.77734
7.05608
7.30941
7.63491
7.82814
)
;
    }
    frontAndBack
    {
        type            empty;
    }
}


// ************************************************************************* //
