/*--------------------------------*- C++ -*----------------------------------*\
  =========                 |
  \\      /  F ield         | OpenFOAM: The Open Source CFD Toolbox
   \\    /   O peration     | Website:  https://openfoam.org
    \\  /    A nd           | Version:  7
     \\/     M anipulation  |
\*---------------------------------------------------------------------------*/
FoamFile
{
    version     2.0;
    format      ascii;
    class       volScalarField;
    location    "0.29";
    object      nut;
}
// * * * * * * * * * * * * * * * * * * * * * * * * * * * * * * * * * * * * * //

dimensions      [0 2 -1 0 0 0 0];

internalField   nonuniform List<scalar> 
70000
(
9.96261e-12
6.87942e-14
2.5677e-16
8.64479e-17
4.77057e-17
7.85024e-17
2.7571e-17
1.2888e-17
8.7389e-18
6.38033e-18
4.6776e-18
3.49002e-18
2.66529e-18
2.07843e-18
1.64954e-18
1.32894e-18
1.08467e-18
8.95415e-19
7.46599e-19
6.28025e-19
5.32365e-19
4.54357e-19
3.90017e-19
3.36513e-19
2.91457e-19
2.53385e-19
2.2058e-19
1.92583e-19
1.67676e-19
1.465e-19
1.26614e-19
1.10277e-19
9.34432e-20
8.06351e-20
6.579e-20
5.51879e-20
4.28601e-20
3.19641e-20
2.58489e-20
1.06655e-20
1.82906e-20
2.78465e-23
3.78138e-20
8.47864e-20
4.64645e-19
4.26904e-18
9.43541e-18
7.92851e-17
9.05696e-15
1.22957e-13
1.04274e-10
5.98801e-12
6.44545e-14
2.14263e-14
2.89006e-16
1.69494e-17
2.51736e-17
2.11284e-17
1.22673e-17
7.29519e-18
4.77863e-18
3.33042e-18
2.41112e-18
1.79656e-18
1.37148e-18
1.06902e-18
8.48387e-19
6.83833e-19
5.58686e-19
4.61825e-19
3.85728e-19
3.25074e-19
2.76187e-19
2.36243e-19
2.03417e-19
1.75943e-19
1.5311e-19
1.33407e-19
1.17125e-19
1.02311e-19
9.06168e-20
7.87793e-20
7.05637e-20
6.05184e-20
5.48941e-20
4.6571e-20
4.169e-20
3.80332e-20
2.8125e-20
4.10194e-20
1.27303e-20
9.25391e-20
3.36645e-20
6.03272e-19
2.12216e-18
8.28006e-18
5.60536e-17
1.68677e-16
4.05132e-14
3.72696e-14
3.19152e-10
3.399e-12
1.91042e-13
1.99183e-14
7.69707e-16
5.8911e-17
7.41672e-18
4.2457e-18
2.164e-18
1.07602e-18
5.96813e-19
3.65324e-19
2.37615e-19
1.6098e-19
1.12693e-19
8.1177e-20
5.99791e-20
4.53266e-20
3.4946e-20
2.74263e-20
2.18771e-20
1.77072e-20
1.45364e-20
1.2084e-20
1.01897e-20
8.68903e-21
7.54598e-21
6.6157e-21
5.97808e-21
5.42995e-21
5.2221e-21
4.99775e-21
5.30456e-21
5.54622e-21
6.70243e-21
8.15227e-21
1.10347e-20
1.68281e-20
2.37718e-20
4.79987e-20
7.08761e-20
1.9496e-19
3.97362e-19
1.39863e-18
5.03108e-18
1.65995e-17
1.16845e-16
2.43074e-16
5.81832e-14
1.5894e-13
6.15339e-09
1.92843e-11
7.84929e-13
6.11714e-14
5.50548e-15
9.3355e-16
1.11729e-16
2.9968e-17
1.25732e-17
5.59858e-18
2.62641e-18
1.35333e-18
7.5979e-19
4.54038e-19
2.84397e-19
1.85242e-19
1.24878e-19
8.68236e-20
6.20882e-20
4.55739e-20
3.42917e-20
2.64329e-20
2.08744e-20
1.6902e-20
1.40555e-20
1.20341e-20
1.06432e-20
9.76777e-21
9.33878e-21
9.37018e-21
9.87063e-21
1.10596e-20
1.30208e-20
1.65509e-20
2.18061e-20
3.1597e-20
4.59575e-20
7.552e-20
1.1904e-19
2.205e-19
3.78513e-19
8.03567e-19
1.64018e-18
4.17651e-18
1.20061e-17
3.33888e-17
2.03511e-16
1.9746e-16
5.69381e-14
2.26144e-13
2.32027e-09
2.23456e-10
4.46124e-12
3.22264e-13
2.31138e-14
4.42835e-15
7.28559e-16
2.05539e-16
8.42857e-17
3.75471e-17
1.76254e-17
8.98333e-18
4.95909e-18
2.91285e-18
1.79574e-18
1.15271e-18
7.66524e-19
5.26013e-19
3.7137e-19
2.69115e-19
1.99832e-19
1.51892e-19
1.18135e-19
9.40475e-20
7.67226e-20
6.42675e-20
5.54315e-20
4.94393e-20
4.57677e-20
4.43045e-20
4.49024e-20
4.82834e-20
5.45505e-20
6.65277e-20
8.43581e-20
1.1806e-19
1.66278e-19
2.67434e-19
4.09155e-19
7.53785e-19
1.23833e-18
2.61059e-18
4.87805e-18
1.14822e-17
3.04241e-17
6.37285e-17
3.67549e-16
2.34988e-16
5.623e-14
2.07592e-13
3.00715e-09
5.28537e-09
4.36704e-11
1.94916e-12
1.08422e-13
1.81016e-14
3.27261e-15
9.57354e-16
3.90903e-16
1.75061e-16
8.2744e-17
4.21632e-17
2.31341e-17
1.34701e-17
8.22348e-18
5.22516e-18
3.43852e-18
2.33472e-18
1.63069e-18
1.1688e-18
8.58151e-19
6.44632e-19
4.95121e-19
3.8883e-19
3.12462e-19
2.57332e-19
2.17735e-19
1.89962e-19
1.71552e-19
1.61412e-19
1.58662e-19
1.64834e-19
1.79953e-19
2.11427e-19
2.59208e-19
3.50443e-19
4.79259e-19
7.51188e-19
1.12053e-18
2.03484e-18
3.25482e-18
6.77696e-18
1.21682e-17
2.73397e-17
6.8058e-17
1.23853e-16
6.95484e-16
4.82616e-16
5.56653e-14
1.86176e-13
1.07674e-09
4.76732e-09
3.72058e-09
1.85566e-11
6.74007e-13
9.22433e-14
1.53118e-14
4.18233e-15
1.61802e-15
7.05732e-16
3.29364e-16
1.66183e-16
9.02933e-17
5.20667e-17
3.14847e-17
1.98159e-17
1.29159e-17
8.68493e-18
6.00631e-18
4.26184e-18
3.09698e-18
2.30179e-18
1.74843e-18
1.35704e-18
1.07679e-18
8.74546e-19
7.28578e-19
6.24575e-19
5.52954e-19
5.08603e-19
4.87532e-19
4.92372e-19
5.21874e-19
5.93618e-19
7.0573e-19
9.23321e-19
1.22858e-18
1.87011e-18
2.73202e-18
4.84096e-18
7.63489e-18
1.54841e-17
2.74461e-17
5.89164e-17
1.42378e-16
2.44976e-16
1.28669e-15
1.181e-15
5.64612e-14
1.71119e-13
2.42933e-09
3.87193e-09
8.24065e-10
2.43317e-09
8.66224e-12
7.18089e-13
9.13477e-14
2.08845e-14
7.18083e-15
2.90323e-15
1.28725e-15
6.25592e-16
3.30292e-16
1.86205e-16
1.10545e-16
6.85e-17
4.40399e-17
2.92455e-17
1.99897e-17
1.40253e-17
1.00808e-17
7.41167e-18
5.56911e-18
4.27495e-18
3.3534e-18
2.69059e-18
2.21217e-18
1.86892e-18
1.62792e-18
1.46991e-18
1.3804e-18
1.36184e-18
1.40814e-18
1.55747e-18
1.80261e-18
2.28757e-18
2.96957e-18
4.38521e-18
6.29121e-18
1.08218e-17
1.69206e-17
3.31796e-17
5.86912e-17
1.20457e-16
2.86074e-16
4.82183e-16
2.3114e-15
2.78312e-15
5.98713e-14
1.62305e-13
3.37106e-09
4.37276e-09
5.92371e-10
3.00319e-10
5.49885e-10
1.87309e-11
9.68088e-13
1.47275e-13
4.02768e-14
1.40743e-14
5.62987e-15
2.5336e-15
1.26128e-15
6.79251e-16
3.88867e-16
2.33963e-16
1.46781e-16
9.54612e-17
6.40718e-17
4.42285e-17
3.13207e-17
2.27122e-17
1.6845e-17
1.27698e-17
9.89519e-18
7.84261e-18
6.36757e-18
5.30857e-18
4.5587e-18
4.05178e-18
3.7402e-18
3.6182e-18
3.66457e-18
3.95727e-18
4.47594e-18
5.52636e-18
7.01798e-18
1.00631e-17
1.42023e-17
2.36772e-17
3.67646e-17
6.95333e-17
1.2302e-16
2.4244e-16
5.66377e-16
9.60108e-16
4.13947e-15
6.1021e-15
6.7346e-14
1.63697e-13
3.41273e-09
4.60998e-09
6.7418e-10
1.93884e-10
4.72426e-11
6.72698e-11
3.18198e-10
2.86744e-12
3.98004e-13
9.96126e-14
3.23582e-14
1.25929e-14
5.63256e-15
2.79525e-15
1.50074e-15
8.57547e-16
5.15759e-16
3.23833e-16
2.10952e-16
1.41904e-16
9.82332e-17
6.98047e-17
5.08326e-17
3.78942e-17
2.89103e-17
2.25788e-17
1.80742e-17
1.48581e-17
1.25795e-17
1.10153e-17
1.00108e-17
9.51835e-18
9.46865e-18
1.00153e-17
1.11039e-17
1.33806e-17
1.66618e-17
2.32445e-17
3.23083e-17
5.22256e-17
8.05189e-17
1.46935e-16
2.59621e-16
4.9395e-16
1.13237e-15
1.95427e-15
7.51703e-15
1.26879e-14
8.25231e-14
1.82318e-13
3.21374e-09
4.39378e-09
7.75628e-10
2.02558e-10
3.66958e-11
2.18858e-11
1.35095e-11
2.10546e-11
1.63843e-10
2.31835e-12
3.67383e-13
9.9319e-14
3.53668e-14
1.49803e-14
7.15242e-15
3.73276e-15
2.08864e-15
1.23643e-15
7.66935e-16
4.94936e-16
3.30601e-16
2.27724e-16
1.61341e-16
1.17371e-16
8.75993e-17
6.70625e-17
5.27059e-17
4.25877e-17
3.5469e-17
3.05604e-17
2.7331e-17
2.55539e-17
2.49932e-17
2.59423e-17
2.82443e-17
3.32994e-17
4.07247e-17
5.53917e-17
7.58682e-17
1.19062e-16
1.82091e-16
3.21075e-16
5.64998e-16
1.04264e-15
2.33801e-15
4.11144e-15
1.41348e-14
2.59169e-14
1.13748e-13
2.29848e-13
3.01948e-09
3.97556e-09
8.48514e-10
2.13548e-10
3.90122e-11
2.02196e-11
8.68374e-12
4.64838e-12
4.24542e-12
6.90032e-12
7.9831e-11
5.26147e-12
5.91927e-13
1.52266e-13
5.42905e-14
2.32903e-14
1.13025e-14
6.00059e-15
3.41395e-15
2.05313e-15
1.29303e-15
8.47212e-16
5.74939e-16
4.02857e-16
2.90926e-16
2.16314e-16
1.65628e-16
1.30713e-16
1.06541e-16
8.99696e-17
7.89482e-17
7.24548e-17
6.95969e-17
7.0886e-17
7.57958e-17
8.75209e-17
1.05176e-16
1.39655e-16
1.88473e-16
2.8745e-16
4.35452e-16
7.42985e-16
1.29781e-15
2.33089e-15
5.09429e-15
9.09103e-15
2.80785e-14
5.41151e-14
1.77388e-13
3.32303e-13
2.84823e-09
3.51577e-09
9.10392e-10
2.11072e-10
4.2582e-11
2.17865e-11
9.11702e-12
3.9649e-12
2.50391e-12
1.94908e-12
1.77351e-12
2.0941e-12
4.28825e-12
8.3056e-11
2.99781e-12
4.33708e-13
1.27699e-13
5.02537e-14
2.3327e-14
1.20846e-14
6.78325e-15
4.05347e-15
2.55027e-15
1.6771e-15
1.14745e-15
8.14395e-16
5.98836e-16
4.56105e-16
3.60229e-16
2.95721e-16
2.52919e-16
2.26657e-16
2.12938e-16
2.12208e-16
2.22336e-16
2.51132e-16
2.96153e-16
3.83744e-16
5.09616e-16
7.55343e-16
1.13079e-15
1.86842e-15
3.22707e-15
5.65178e-15
1.1993e-14
2.15834e-14
6.03267e-14
1.18925e-13
3.14759e-13
5.57005e-13
2.67836e-09
3.06045e-09
9.79627e-10
2.00013e-10
4.58154e-11
2.32907e-11
1.03937e-11
4.28161e-12
2.45179e-12
1.64903e-12
1.17524e-12
9.04753e-13
7.81751e-13
7.81151e-13
9.53274e-13
1.64934e-12
7.51955e-12
1.39503e-11
7.99999e-13
1.99796e-13
7.50696e-14
3.45565e-14
1.80522e-14
1.0315e-14
6.31867e-15
4.10048e-15
2.79969e-15
2.00341e-15
1.50019e-15
1.17615e-15
9.66189e-16
8.35441e-16
7.60088e-16
7.35274e-16
7.49846e-16
8.24192e-16
9.49411e-16
1.19642e-15
1.55767e-15
2.23882e-15
3.29884e-15
5.27451e-15
8.9624e-15
1.53088e-14
3.14042e-14
5.65786e-14
1.44203e-13
2.85068e-13
6.47661e-13
1.09606e-12
2.50004e-09
2.62578e-09
1.05973e-09
1.86029e-10
4.91985e-11
2.42384e-11
1.18198e-11
4.81436e-12
2.67712e-12
1.74172e-12
1.16979e-12
8.12994e-13
6.00916e-13
4.75492e-13
4.02998e-13
3.68064e-13
3.67358e-13
4.11198e-13
5.437e-13
9.62776e-13
3.57585e-12
3.87359e-11
9.81103e-13
2.31896e-13
8.87901e-14
4.26547e-14
2.35633e-14
1.43912e-14
9.52462e-15
6.76252e-15
5.12024e-15
4.13457e-15
3.54829e-15
3.26144e-15
3.18107e-15
3.35361e-15
3.72753e-15
4.52271e-15
5.71968e-15
7.91749e-15
1.1391e-14
1.75534e-14
2.91187e-14
4.83832e-14
9.5413e-14
1.70654e-13
3.99351e-13
7.80883e-13
1.58852e-12
2.59181e-12
2.31384e-09
2.22575e-09
1.14537e-09
1.71752e-10
5.3203e-11
2.47635e-11
1.32985e-11
5.41696e-12
2.97108e-12
1.9294e-12
1.28686e-12
8.72021e-13
6.16464e-13
4.5697e-13
3.53504e-13
2.8472e-13
2.3892e-13
2.09287e-13
1.91976e-13
1.85395e-13
1.90251e-13
2.10763e-13
2.59128e-13
3.72877e-13
7.09955e-13
2.71353e-12
5.79774e-11
1.10996e-12
2.81966e-13
1.20271e-13
6.56991e-14
4.21464e-14
3.04504e-14
2.44587e-14
2.14091e-14
2.0601e-14
2.12365e-14
2.40349e-14
2.87485e-14
3.75354e-14
5.17111e-14
7.57761e-14
1.20893e-13
1.93617e-13
3.63564e-13
6.38425e-13
1.37822e-12
2.63691e-12
4.94201e-12
7.8171e-12
2.12205e-09
1.86661e-09
1.22923e-09
1.58227e-10
5.78736e-11
2.49954e-11
1.48564e-11
6.08891e-12
3.29547e-12
2.14868e-12
1.44485e-12
9.77966e-13
6.84407e-13
4.98461e-13
3.75479e-13
2.912e-13
2.32139e-13
1.90066e-13
1.59723e-13
1.37742e-13
1.21999e-13
1.11199e-13
1.04652e-13
1.02168e-13
1.04122e-13
1.11719e-13
1.27717e-13
1.58341e-13
2.18932e-13
3.55274e-13
7.53574e-13
2.91467e-12
3.64495e-10
3.35677e-12
9.55973e-13
5.13612e-13
3.65855e-13
3.17897e-13
3.1322e-13
3.48856e-13
4.25753e-13
5.60004e-13
8.19317e-13
1.22115e-12
2.12544e-12
3.57911e-12
7.10385e-12
1.31421e-11
2.31006e-11
3.55462e-11
1.92633e-09
1.54877e-09
1.30472e-09
1.46224e-10
6.29654e-11
2.50027e-11
1.64973e-11
6.8565e-12
3.65477e-12
2.39007e-12
1.62579e-12
1.10678e-12
7.74785e-13
5.62996e-13
4.21946e-13
3.24256e-13
2.54824e-13
2.04435e-13
1.67146e-13
1.39086e-13
1.17735e-13
1.0143e-13
8.9059e-14
7.98653e-14
7.33459e-14
6.92001e-14
6.7319e-14
6.78255e-14
7.11153e-14
7.81064e-14
9.03966e-14
1.11349e-13
1.46967e-13
2.11201e-13
3.32843e-13
5.92473e-13
1.21122e-12
3.04509e-12
1.03459e-11
5.58807e-11
2.56562e-10
7.38669e-11
4.72692e-11
4.30594e-11
5.4157e-11
7.44222e-11
1.24254e-10
2.11672e-10
3.40523e-10
4.96532e-10
1.72888e-09
1.27207e-09
1.36615e-09
1.36643e-10
6.80743e-11
2.48546e-11
1.81865e-11
7.74263e-12
4.05939e-12
2.65687e-12
1.8291e-12
1.25492e-12
8.81067e-13
6.41458e-13
4.81522e-13
3.70214e-13
2.90552e-13
2.32252e-13
1.88662e-13
1.55444e-13
1.29769e-13
1.09771e-13
9.41785e-14
8.20949e-14
7.28713e-14
6.6042e-14
6.12881e-14
5.84441e-14
5.74683e-14
5.85475e-14
6.20178e-14
6.87503e-14
7.99181e-14
9.82599e-14
1.27498e-13
1.76513e-13
2.58556e-13
4.05334e-13
6.72372e-13
1.18516e-12
2.21575e-12
4.30537e-12
8.91428e-12
1.84e-11
3.98221e-11
7.98335e-11
1.53208e-10
2.46096e-10
3.33093e-10
3.70843e-10
1.53248e-09
1.03619e-09
1.40865e-09
1.30435e-10
7.26783e-11
2.46513e-11
1.98638e-11
8.7658e-12
4.51883e-12
2.95356e-12
2.05775e-12
1.42451e-12
1.00386e-12
7.32916e-13
5.52008e-13
4.25814e-13
3.35129e-13
2.68433e-13
2.1827e-13
1.79764e-13
1.49751e-13
1.26154e-13
1.07561e-13
9.29708e-14
8.16423e-14
7.30272e-14
6.67227e-14
6.24804e-14
6.01616e-14
5.98329e-14
6.1661e-14
6.62303e-14
7.42723e-14
8.75857e-14
1.08401e-13
1.41938e-13
1.95311e-13
2.84258e-13
4.34237e-13
6.94791e-13
1.16755e-12
2.01337e-12
3.66225e-12
6.64626e-12
1.26775e-11
2.33469e-11
4.32328e-11
7.41459e-11
1.16725e-10
1.67092e-10
1.34006e-09
8.39943e-10
1.42819e-09
1.28509e-10
7.61788e-11
2.45234e-11
2.14532e-11
9.94196e-12
5.0427e-12
3.28428e-12
2.31469e-12
1.61878e-12
1.14573e-12
8.39016e-13
6.34275e-13
4.91286e-13
3.88215e-13
3.12133e-13
2.54666e-13
2.10328e-13
1.75566e-13
1.48067e-13
1.26267e-13
1.09058e-13
9.56118e-14
8.53086e-14
7.76815e-14
7.24335e-14
6.93831e-14
6.85703e-14
7.01383e-14
7.46524e-14
8.28291e-14
9.63915e-14
1.17507e-13
1.50949e-13
2.03375e-13
2.88266e-13
4.27988e-13
6.61852e-13
1.07169e-12
1.77573e-12
3.08484e-12
5.36684e-12
9.71866e-12
1.71986e-11
3.04132e-11
5.07327e-11
7.86172e-11
1.12218e-10
1.15457e-09
6.81033e-10
1.4219e-09
1.31672e-10
7.80153e-11
2.46159e-11
2.2872e-11
1.12832e-11
5.64194e-12
3.65351e-12
2.60258e-12
1.84102e-12
1.30975e-12
9.62169e-13
7.30201e-13
5.68098e-13
4.50921e-13
3.64126e-13
2.98317e-13
2.47317e-13
2.07134e-13
1.7519e-13
1.49758e-13
1.29611e-13
1.13832e-13
1.01727e-13
9.27662e-14
8.66137e-14
8.30643e-14
8.2166e-14
8.40948e-14
8.94952e-14
9.92221e-14
1.15201e-13
1.39978e-13
1.78749e-13
2.39128e-13
3.3532e-13
4.91788e-13
7.48592e-13
1.18964e-12
1.93197e-12
3.2689e-12
5.55318e-12
9.72002e-12
1.67226e-11
2.85334e-11
4.62987e-11
7.04413e-11
9.95831e-11
9.78932e-10
5.5613e-10
1.38838e-09
1.40611e-10
7.78067e-11
2.50634e-11
2.40426e-11
1.27946e-11
6.3294e-12
4.06649e-12
2.92408e-12
2.09455e-12
1.49927e-12
1.10514e-12
8.42067e-13
6.58208e-13
5.24945e-13
4.25871e-13
3.50455e-13
2.91748e-13
2.45272e-13
2.08155e-13
1.78493e-13
1.54938e-13
1.36474e-13
1.22329e-13
1.11909e-13
1.04842e-13
1.00908e-13
1.00186e-13
1.02925e-13
1.0991e-13
1.22245e-13
1.42227e-13
1.73072e-13
2.20878e-13
2.95027e-13
4.11907e-13
6.0052e-13
9.0633e-13
1.4235e-12
2.28269e-12
3.79035e-12
6.32756e-12
1.07869e-11
1.81206e-11
3.0018e-11
4.74883e-11
7.10155e-11
9.93441e-11
8.1583e-10
4.611e-10
1.328e-09
1.55857e-10
7.54221e-11
2.59679e-11
2.49049e-11
1.44699e-11
7.11994e-12
4.52943e-12
3.2819e-12
2.38268e-12
1.71794e-12
1.27106e-12
9.72474e-13
7.63899e-13
6.12338e-13
4.99212e-13
4.12728e-13
3.45088e-13
2.91272e-13
2.48091e-13
2.13455e-13
1.8589e-13
1.64277e-13
1.47761e-13
1.35681e-13
1.27628e-13
1.2338e-13
1.23063e-13
1.27037e-13
1.36288e-13
1.52268e-13
1.778e-13
2.17029e-13
2.77358e-13
3.706e-13
5.16434e-13
7.5013e-13
1.12567e-12
1.75208e-12
2.78193e-12
4.54792e-12
7.47734e-12
1.24623e-11
2.04807e-11
3.30678e-11
5.11086e-11
7.51979e-11
1.04078e-10
6.67571e-10
3.913e-10
1.24298e-09
1.77648e-10
7.10155e-11
2.73811e-11
2.54283e-11
1.62867e-11
8.0303e-12
5.04964e-12
3.679e-12
2.70868e-12
1.96973e-12
1.46341e-12
1.12437e-12
8.87777e-13
7.15479e-13
5.86327e-13
4.87124e-13
4.09142e-13
3.46767e-13
2.96473e-13
2.55975e-13
2.23674e-13
1.98347e-13
1.79051e-13
1.65055e-13
1.55915e-13
1.51417e-13
1.51756e-13
1.57445e-13
1.69734e-13
1.90534e-13
2.23359e-13
2.73549e-13
3.50226e-13
4.6828e-13
6.51728e-13
9.43592e-13
1.40897e-12
2.17494e-12
3.42153e-12
5.51394e-12
8.9322e-12
1.45829e-11
2.34657e-11
3.70165e-11
5.59844e-11
8.10883e-11
1.11002e-10
5.35877e-10
3.41912e-10
1.13735e-09
2.057e-10
6.50563e-11
2.92811e-11
2.56233e-11
1.82017e-11
9.07831e-12
5.63558e-12
4.11872e-12
3.07562e-12
2.25877e-12
1.68609e-12
1.30106e-12
1.0328e-12
8.37103e-13
6.89757e-13
5.75988e-13
4.86064e-13
4.13731e-13
3.55102e-13
3.07701e-13
2.69807e-13
2.40096e-13
2.17534e-13
2.01321e-13
1.90982e-13
1.86322e-13
1.87631e-13
1.95626e-13
2.11898e-13
2.38946e-13
2.81162e-13
3.45391e-13
4.4293e-13
5.92434e-13
8.23351e-13
1.18789e-12
1.76467e-12
2.70132e-12
4.20917e-12
6.68882e-12
1.06729e-11
1.7085e-11
2.69308e-11
4.15644e-11
6.15946e-11
8.78299e-11
1.1884e-10
4.2176e-10
3.08166e-10
1.01666e-09
2.3893e-10
5.83089e-11
3.15406e-11
2.55463e-11
2.01501e-11
1.02812e-11
6.29689e-12
4.60493e-12
3.4863e-12
2.58932e-12
1.94337e-12
1.50628e-12
1.2023e-12
9.80331e-13
8.12439e-13
6.82065e-13
5.784e-13
4.9451e-13
4.26137e-13
3.7062e-13
3.26132e-13
2.91252e-13
2.64861e-13
2.4609e-13
2.34436e-13
2.29745e-13
2.32436e-13
2.43489e-13
2.64932e-13
3.00004e-13
3.54206e-13
4.36239e-13
5.60109e-13
7.48996e-13
1.03897e-12
1.49289e-12
2.20518e-12
3.34617e-12
5.16094e-12
8.08646e-12
1.27031e-11
1.9948e-11
3.08105e-11
4.65698e-11
6.76834e-11
9.50012e-11
1.26993e-10
3.25445e-10
2.85522e-10
8.88243e-10
2.75107e-10
5.17722e-11
3.39178e-11
2.52957e-11
2.20484e-11
1.16534e-11
7.04447e-12
5.1422e-12
3.9432e-12
2.96553e-12
2.23986e-12
1.74412e-12
1.4e-12
1.14869e-12
9.57745e-13
8.08543e-13
6.89135e-13
5.91878e-13
5.12146e-13
4.47112e-13
3.94865e-13
3.53906e-13
3.23036e-13
3.01323e-13
2.88248e-13
2.8372e-13
2.88331e-13
3.03401e-13
3.31509e-13
3.76821e-13
4.46221e-13
5.50675e-13
7.07521e-13
9.45311e-13
1.30802e-12
1.87069e-12
2.74567e-12
4.12781e-12
6.29715e-12
9.72628e-12
1.50351e-11
2.31673e-11
3.50722e-11
5.19533e-11
7.40973e-11
1.02401e-10
1.3516e-10
2.4628e-10
2.70007e-10
7.60789e-10
3.10733e-10
4.65121e-11
3.60953e-11
2.49983e-11
2.38027e-11
1.32024e-11
7.89054e-12
5.73602e-12
4.44853e-12
3.39127e-12
2.58041e-12
2.01912e-12
1.63e-12
1.34612e-12
1.1295e-12
9.59095e-13
8.2174e-13
7.09088e-13
6.16159e-13
5.39999e-13
4.78649e-13
4.30559e-13
3.94466e-13
3.69386e-13
3.548e-13
3.50713e-13
3.57941e-13
3.7824e-13
4.14882e-13
4.73177e-13
5.61721e-13
6.94218e-13
8.92044e-13
1.19006e-12
1.64151e-12
2.33513e-12
3.40313e-12
5.06624e-12
7.63923e-12
1.16279e-11
1.7681e-11
2.67385e-11
3.96886e-11
5.76493e-11
8.07388e-11
1.09844e-10
1.43092e-10
1.82883e-10
2.58355e-10
6.41552e-10
3.41672e-10
4.3372e-11
3.77304e-11
2.47891e-11
2.53203e-11
1.49235e-11
8.84839e-12
6.39277e-12
5.0043e-12
3.8699e-12
2.96992e-12
2.3361e-12
1.89682e-12
1.57697e-12
1.33201e-12
1.13791e-12
9.80217e-13
8.49919e-13
7.41724e-13
6.52603e-13
5.80608e-13
5.24182e-13
4.82021e-13
4.53107e-13
4.36946e-13
4.3368e-13
4.44418e-13
4.71463e-13
5.18947e-13
5.93585e-13
7.06063e-13
8.73363e-13
1.12168e-12
1.4932e-12
2.05181e-12
2.9014e-12
4.19555e-12
6.1816e-12
9.20734e-12
1.38075e-11
2.06472e-11
3.06497e-11
4.46236e-11
6.35892e-11
8.75049e-11
1.17183e-10
1.50625e-10
1.33445e-10
2.4774e-10
5.34275e-10
3.64272e-10
4.28269e-11
3.85112e-11
2.47841e-11
2.65282e-11
1.67947e-11
9.93159e-12
7.11961e-12
5.61247e-12
4.404e-12
3.41318e-12
2.70021e-12
2.20528e-12
1.846e-12
1.57004e-12
1.34969e-12
1.16913e-12
1.01872e-12
8.92946e-13
7.88794e-13
7.04401e-13
6.38264e-13
5.89081e-13
5.55828e-13
5.38067e-13
5.36128e-13
5.51499e-13
5.87157e-13
6.483e-13
7.43339e-13
8.85486e-13
1.09559e-12
1.40553e-12
1.86583e-12
2.55235e-12
3.58546e-12
5.141e-12
7.49277e-12
1.10182e-11
1.62748e-11
2.39298e-11
3.48761e-11
4.9826e-11
6.96939e-11
9.42706e-11
1.2431e-10
1.57655e-10
9.58797e-11
2.35918e-10
4.40461e-10
3.7616e-10
4.50773e-11
3.82698e-11
2.50519e-11
2.73914e-11
1.8773e-11
1.11529e-11
7.92445e-12
6.27523e-12
4.99527e-12
3.91459e-12
3.1167e-12
2.56055e-12
2.1583e-12
1.84878e-12
1.59969e-12
1.39362e-12
1.22044e-12
1.07454e-12
9.53032e-13
8.54263e-13
7.76865e-13
7.1959e-13
6.81454e-13
6.62116e-13
6.62159e-13
6.83547e-13
7.30089e-13
8.08275e-13
9.28543e-13
1.10711e-12
1.36934e-12
1.75364e-12
2.31992e-12
3.15721e-12
4.40329e-12
6.25647e-12
9.0157e-12
1.30831e-11
1.90305e-11
2.75131e-11
3.9378e-11
5.5229e-11
7.58653e-11
1.0092e-10
1.31069e-10
1.6401e-10
6.7999e-11
2.21588e-10
3.60666e-10
3.76448e-10
5.01472e-11
3.70795e-11
2.55975e-11
2.79208e-11
2.0796e-11
1.25225e-11
8.81581e-12
6.99537e-12
5.64462e-12
4.47792e-12
3.59092e-12
2.96806e-12
2.51933e-12
2.17388e-12
1.89368e-12
1.65944e-12
1.46066e-12
1.29184e-12
1.15041e-12
1.03505e-12
9.44652e-13
8.78094e-13
8.34492e-13
8.13659e-13
8.16507e-13
8.45591e-13
9.05723e-13
1.00495e-12
1.15608e-12
1.37887e-12
1.70384e-12
2.17679e-12
2.86798e-12
3.88047e-12
5.36998e-12
7.55656e-12
1.07617e-11
1.54057e-11
2.20647e-11
3.13672e-11
4.40998e-11
6.07504e-11
8.19933e-11
1.07324e-10
1.37313e-10
1.69554e-10
4.77346e-11
2.04356e-10
2.94618e-10
3.6563e-10
5.78384e-11
3.52339e-11
2.63607e-11
2.81712e-11
2.27855e-11
1.40448e-11
9.80259e-12
7.77646e-12
6.35224e-12
5.10607e-12
4.12803e-12
3.43346e-12
2.93485e-12
2.55138e-12
2.23795e-12
1.97293e-12
1.74561e-12
1.55087e-12
1.38668e-12
1.25228e-12
1.14693e-12
1.06977e-12
1.02008e-12
9.97896e-13
1.00455e-12
1.04332e-12
1.12021e-12
1.24509e-12
1.43356e-12
1.70937e-12
2.10891e-12
2.68614e-12
3.52242e-12
4.73539e-12
6.49857e-12
9.05199e-12
1.27357e-11
1.79801e-11
2.53548e-11
3.54476e-11
4.89711e-11
6.62929e-11
8.7961e-11
1.13341e-10
1.42908e-10
1.7418e-10
3.327e-11
1.84549e-10
2.41256e-10
3.45354e-10
6.76206e-11
3.3159e-11
2.72267e-11
2.82312e-11
2.46571e-11
1.5715e-11
1.08936e-11
8.62287e-12
7.11793e-12
5.80081e-12
4.73282e-12
3.96252e-12
3.41087e-12
2.98764e-12
2.63925e-12
2.34103e-12
2.08217e-12
1.8583e-12
1.66827e-12
1.51211e-12
1.38966e-12
1.30044e-12
1.24399e-12
1.22066e-12
1.2323e-12
1.28305e-12
1.38032e-12
1.5361e-12
1.76912e-12
2.10769e-12
2.59462e-12
3.29268e-12
4.29486e-12
5.73344e-12
7.79878e-12
1.07481e-11
1.49347e-11
2.07901e-11
2.88654e-11
3.96955e-11
5.39082e-11
7.17501e-11
9.36438e-11
1.18843e-10
1.47724e-10
1.77769e-10
2.30956e-11
1.6304e-10
1.98943e-10
3.18063e-10
7.86015e-11
3.13204e-11
2.80496e-11
2.82048e-11
2.63334e-11
1.75147e-11
1.20968e-11
9.53974e-12
7.9415e-12
6.56277e-12
5.40943e-12
4.56102e-12
3.95365e-12
3.48936e-12
3.10479e-12
2.77122e-12
2.47783e-12
2.22147e-12
2.00228e-12
1.82138e-12
1.67946e-12
1.57656e-12
1.51261e-12
1.48838e-12
1.50635e-12
1.57168e-12
1.69337e-12
1.8858e-12
2.17125e-12
2.58301e-12
3.1708e-12
4.00666e-12
5.19536e-12
6.88323e-12
9.27577e-12
1.26434e-11
1.73462e-11
2.38075e-11
3.2548e-11
4.40395e-11
5.88167e-11
7.70098e-11
9.89185e-11
1.23705e-10
1.51631e-10
1.80239e-10
1.60106e-11
1.41066e-10
1.65755e-10
2.86526e-10
8.96152e-11
3.0145e-11
2.86949e-11
2.819e-11
2.77583e-11
1.94106e-11
1.34183e-11
1.05327e-11
8.82321e-12
7.39145e-12
6.16115e-12
5.23458e-12
4.56959e-12
4.06348e-12
3.64211e-12
3.2715e-12
2.94073e-12
2.64837e-12
2.39644e-12
2.18757e-12
2.02355e-12
1.90517e-12
1.8329e-12
1.80802e-12
1.83379e-12
1.91652e-12
2.06701e-12
2.30229e-12
2.64847e-12
3.14422e-12
3.84653e-12
4.83683e-12
6.23138e-12
8.18941e-12
1.09289e-11
1.47287e-11
1.99482e-11
2.6993e-11
3.63425e-11
4.8398e-11
6.35961e-11
8.19582e-11
1.03666e-10
1.27822e-10
1.54579e-10
1.81534e-10
1.11054e-11
1.19782e-10
1.39774e-10
2.53493e-10
9.94162e-11
2.99519e-11
2.90883e-11
2.82613e-11
2.89078e-11
2.13551e-11
1.48611e-11
1.1608e-11
9.7643e-12
8.28562e-12
6.99024e-12
5.98852e-12
5.26524e-12
4.71721e-12
4.25912e-12
3.85034e-12
3.47954e-12
3.14763e-12
2.85915e-12
2.61877e-12
2.42976e-12
2.29389e-12
2.21233e-12
2.18703e-12
2.22211e-12
2.32519e-12
2.50904e-12
2.79357e-12
3.20896e-12
3.79948e-12
4.62949e-12
5.78967e-12
7.407e-12
9.65171e-12
1.27508e-11
1.6986e-11
2.27082e-11
3.02963e-11
4.0179e-11
5.26824e-11
6.81435e-11
8.64849e-11
1.07782e-10
1.3109e-10
1.56507e-10
1.81601e-10
7.72327e-12
9.99128e-11
1.19262e-10
2.21313e-10
1.06955e-10
3.08914e-11
2.9235e-11
2.84561e-11
2.9793e-11
2.329e-11
1.64226e-11
1.27715e-11
1.07671e-11
9.24371e-12
7.89782e-12
6.8277e-12
6.04722e-12
5.458e-12
4.96404e-12
4.51662e-12
4.10349e-12
3.72843e-12
3.39935e-12
3.12363e-12
2.90642e-12
2.75077e-12
2.65876e-12
2.63312e-12
2.67898e-12
2.80538e-12
3.02717e-12
3.36727e-12
3.8601e-12
4.55557e-12
5.5253e-12
6.86865e-12
8.72199e-12
1.12641e-11
1.47267e-11
1.93887e-11
2.55844e-11
3.36582e-11
4.39806e-11
5.68006e-11
7.23576e-11
9.04876e-11
1.11171e-10
1.33434e-10
1.57311e-10
1.80431e-10
5.39388e-12
8.19276e-11
1.02746e-10
1.91517e-10
1.11592e-10
3.29371e-11
2.92179e-11
2.87715e-11
3.04554e-11
2.51541e-11
1.80925e-11
1.40281e-11
1.18348e-11
1.02643e-11
8.88389e-12
7.75625e-12
6.92208e-12
6.29346e-12
5.76532e-12
5.27957e-12
4.82223e-12
4.40046e-12
4.02652e-12
3.71126e-12
3.46229e-12
3.28424e-12
3.18031e-12
3.1542e-12
3.21211e-12
3.36456e-12
3.62861e-12
4.03022e-12
4.60801e-12
5.41741e-12
6.53687e-12
8.07346e-12
1.01712e-11
1.30142e-11
1.68345e-11
2.19018e-11
2.85268e-11
3.70125e-11
4.76664e-11
6.06611e-11
7.61431e-11
9.38765e-11
1.13753e-10
1.34809e-10
1.56975e-10
1.78024e-10
3.78449e-12
6.61809e-11
8.90878e-11
1.64862e-10
1.13156e-10
3.59141e-11
2.91785e-11
2.91768e-11
3.09564e-11
2.68932e-11
1.98514e-11
1.53813e-11
1.29715e-11
1.13465e-11
9.9475e-12
8.77737e-12
7.89612e-12
7.23134e-12
6.67161e-12
6.14864e-12
5.64576e-12
5.17382e-12
4.75051e-12
4.39114e-12
4.10639e-12
3.90289e-12
3.78519e-12
3.75807e-12
3.8289e-12
4.00974e-12
4.31979e-12
4.788e-12
5.45703e-12
6.38744e-12
7.66377e-12
9.39947e-12
1.17438e-11
1.48831e-11
1.90446e-11
2.4483e-11
3.14787e-11
4.02886e-11
5.11544e-11
6.41761e-11
7.94135e-11
9.65731e-11
1.15474e-10
1.35166e-10
1.55516e-10
1.74472e-10
2.66732e-12
5.2817e-11
7.74739e-11
1.41618e-10
1.11885e-10
3.95299e-11
2.92778e-11
2.96342e-11
3.13641e-11
2.84679e-11
2.16706e-11
1.68317e-11
1.41816e-11
1.24905e-11
1.10871e-11
9.89321e-12
8.97522e-12
8.27942e-12
7.69169e-12
7.13347e-12
6.58429e-12
6.05888e-12
5.58145e-12
5.17296e-12
4.84789e-12
4.61533e-12
4.48144e-12
4.45222e-12
4.53623e-12
4.74705e-12
5.10588e-12
5.64449e-12
6.40918e-12
7.46506e-12
8.90169e-12
1.08372e-11
1.34236e-11
1.68455e-11
2.13207e-11
2.70834e-11
3.43786e-11
4.34139e-11
5.43649e-11
6.72643e-11
8.20936e-11
9.85165e-11
1.16288e-10
1.34499e-10
1.52947e-10
1.69782e-10
1.88784e-12
4.17665e-11
6.73711e-11
1.21734e-10
1.08305e-10
4.34171e-11
2.96565e-11
3.01159e-11
3.17399e-11
2.98595e-11
2.35139e-11
1.83757e-11
1.54692e-11
1.36977e-11
1.23008e-11
1.11048e-11
1.01646e-11
9.44536e-12
8.83442e-12
8.24373e-12
7.64811e-12
7.06611e-12
6.52959e-12
6.06641e-12
5.69584e-12
5.42994e-12
5.27672e-12
5.24351e-12
5.34008e-12
5.58136e-12
5.99041e-12
6.60139e-12
7.46373e-12
8.64618e-12
1.0242e-11
1.23722e-11
1.51884e-11
1.887e-11
2.36207e-11
2.96497e-11
3.71626e-11
4.63166e-11
5.72227e-11
6.98534e-11
8.41211e-11
9.96603e-11
1.16175e-10
1.32804e-10
1.49297e-10
1.63944e-10
1.34111e-12
3.28171e-11
5.84549e-11
1.04942e-10
1.03065e-10
4.71968e-11
3.04067e-11
3.06149e-11
3.21307e-11
3.10708e-11
2.53417e-11
2.00051e-11
1.68375e-11
1.49704e-11
1.35874e-11
1.24123e-11
1.14687e-11
1.07366e-11
1.01086e-11
9.48908e-12
8.84745e-12
8.20592e-12
7.60505e-12
7.08103e-12
6.659e-12
6.35459e-12
6.17796e-12
6.13784e-12
6.24514e-12
6.51598e-12
6.97485e-12
7.65784e-12
8.61673e-12
9.92287e-12
1.16717e-11
1.39848e-11
1.70108e-11
2.092e-11
2.58981e-11
3.21257e-11
3.97666e-11
4.8928e-11
5.96596e-11
7.18817e-11
8.54473e-11
9.99744e-11
1.15125e-10
1.30101e-10
1.44606e-10
1.57126e-10
9.5578e-13
2.56844e-11
5.05418e-11
9.08544e-11
9.681e-11
5.05413e-11
3.15579e-11
3.11488e-11
3.25658e-11
3.21233e-11
2.71162e-11
2.17059e-11
1.82879e-11
1.63116e-11
1.49458e-11
1.38149e-11
1.28908e-11
1.21599e-11
1.1523e-11
1.0879e-11
1.01923e-11
9.48847e-12
8.81766e-12
8.22595e-12
7.74557e-12
7.39643e-12
7.19113e-12
7.13987e-12
7.25454e-12
7.55215e-12
8.0582e-12
8.80997e-12
9.86072e-12
1.12831e-11
1.31732e-11
1.56506e-11
1.88584e-11
2.29546e-11
2.81033e-11
3.44542e-11
4.21281e-11
5.11842e-11
6.16157e-11
7.3299e-11
8.60375e-11
9.94441e-11
1.13149e-10
1.26425e-10
1.38933e-10
1.4937e-10
6.83104e-13
2.00663e-11
4.35285e-11
7.90501e-11
9.00944e-11
5.32194e-11
3.3078e-11
3.17536e-11
3.30604e-11
3.30508e-11
2.88066e-11
2.34587e-11
1.98194e-11
1.77245e-11
1.63763e-11
1.53114e-11
1.44332e-11
1.37216e-11
1.30857e-11
1.24226e-11
1.16922e-11
1.09234e-11
1.01767e-11
9.50957e-12
8.96284e-12
8.56147e-12
8.32083e-12
8.25258e-12
8.3694e-12
8.6888e-12
9.23665e-12
1.00507e-11
1.11845e-11
1.27109e-11
1.47244e-11
1.73409e-11
2.06951e-11
2.49298e-11
3.01853e-11
3.65788e-11
4.41884e-11
5.30282e-11
6.3041e-11
7.40675e-11
8.5871e-11
9.80692e-11
1.10269e-10
1.21821e-10
1.32347e-10
1.40736e-10
4.89528e-13
1.56782e-11
3.73491e-11
6.91305e-11
8.33397e-11
5.51155e-11
3.48826e-11
3.24718e-11
3.36207e-11
3.38918e-11
3.03929e-11
2.52399e-11
2.14276e-11
1.92114e-11
1.78796e-11
1.69004e-11
1.60968e-11
1.54265e-11
1.48045e-11
1.41286e-11
1.3356e-11
1.25194e-11
1.16904e-11
1.09393e-11
1.03169e-11
9.85432e-12
9.56997e-12
9.47697e-12
9.58852e-12
9.92212e-12
1.05033e-11
1.13694e-11
1.25732e-11
1.41859e-11
1.62992e-11
1.90232e-11
2.24815e-11
2.67999e-11
3.20931e-11
3.84454e-11
4.58937e-11
5.44112e-11
6.3896e-11
7.41616e-11
8.49403e-11
9.5863e-11
1.06522e-10
1.16346e-10
1.24927e-10
1.31345e-10
3.51781e-13
1.22686e-11
3.19529e-11
6.07487e-11
7.68264e-11
5.62205e-11
3.68515e-11
3.33352e-11
3.42491e-11
3.46828e-11
3.18671e-11
2.70238e-11
2.31043e-11
2.07735e-11
1.94571e-11
1.85806e-11
1.78816e-11
1.72785e-11
1.6686e-11
1.60047e-11
1.51918e-11
1.42843e-11
1.33659e-11
1.25211e-11
1.18124e-11
1.12778e-11
1.09394e-11
1.08117e-11
1.09081e-11
1.12454e-11
1.18481e-11
1.2752e-11
1.4008e-11
1.56844e-11
1.78683e-11
2.0662e-11
2.41765e-11
2.8519e-11
3.37775e-11
4.0004e-11
4.7197e-11
5.52929e-11
6.41521e-11
7.35681e-11
8.32509e-11
9.28514e-11
1.01954e-10
1.1007e-10
1.16763e-10
1.21302e-10
2.53623e-13
9.62457e-12
2.72925e-11
5.36211e-11
7.07197e-11
5.66032e-11
3.8853e-11
3.43568e-11
3.49487e-11
3.54553e-11
3.32328e-11
2.87857e-11
2.48375e-11
2.241e-11
2.11101e-11
2.03509e-11
1.97863e-11
1.92797e-11
1.87354e-11
1.80577e-11
1.72062e-11
1.62244e-11
1.52087e-11
1.42594e-11
1.3452e-11
1.28327e-11
1.24277e-11
1.22529e-11
1.23213e-11
1.26486e-11
1.32574e-11
1.41809e-11
1.54667e-11
1.71792e-11
1.93993e-11
2.222e-11
2.57383e-11
3.00418e-11
3.5192e-11
4.12101e-11
4.80588e-11
5.5643e-11
6.37917e-11
7.22856e-11
8.08203e-11
8.90722e-11
9.66247e-11
1.0307e-10
1.07955e-10
1.10725e-10
1.83614e-13
7.57338e-12
2.33082e-11
4.75242e-11
6.51024e-11
5.6377e-11
4.07657e-11
3.55289e-11
3.57247e-11
3.62332e-11
3.45022e-11
3.05044e-11
2.66117e-11
2.41172e-11
2.28393e-11
2.22104e-11
2.18092e-11