/*--------------------------------*- C++ -*----------------------------------*\
  =========                 |
  \\      /  F ield         | OpenFOAM: The Open Source CFD Toolbox
   \\    /   O peration     | Website:  https://openfoam.org
    \\  /    A nd           | Version:  7
     \\/     M anipulation  |
\*---------------------------------------------------------------------------*/
FoamFile
{
    version     2.0;
    format      ascii;
    class       volScalarField;
    location    "0.29";
    object      p;
}
// * * * * * * * * * * * * * * * * * * * * * * * * * * * * * * * * * * * * * //

dimensions      [0 2 -2 0 0 0 0];

internalField   nonuniform List<scalar> 
70000
(
0.0984039
0.0209416
0.00840628
0.0108306
0.0109736
0.00988363
0.00890559
0.00815166
0.00751154
0.00693753
0.00641628
0.0059397
0.00550005
0.00509051
0.00470545
0.00434021
0.00399095
0.00365442
0.00332784
0.00300877
0.00269507
0.00238476
0.00207604
0.00176718
0.00145653
0.00114243
0.000823236
0.000497213
0.000162583
-0.000182599
-0.000540357
-0.000913013
-0.00130296
-0.00171311
-0.0021464
-0.00260659
-0.00309747
-0.00362385
-0.00419115
-0.00480485
-0.00547441
-0.00620336
-0.0070123
-0.00789317
-0.00889802
-0.00997796
-0.0112722
-0.0126085
-0.0143557
-0.0160918
0.094036
0.0213085
0.00860926
0.0109262
0.0110281
0.00991966
0.00893377
0.00817493
0.00753106
0.00695421
0.00643081
0.00595254
0.00551152
0.00510087
0.00471487
0.00434883
0.0039989
0.00366178
0.00333469
0.00301518
0.00270108
0.00239042
0.00208138
0.00177224
0.00146133
0.001147
0.000827592
0.000501372
0.00016656
-0.000178793
-0.00053671
-0.000909517
-0.00129961
-0.0017099
-0.00214333
-0.00260365
-0.00309468
-0.00362119
-0.00418864
-0.0048025
-0.00547225
-0.00620139
-0.00701059
-0.00789169
-0.00889686
-0.00997729
-0.0112719
-0.0126107
-0.0143543
-0.0160409
0.0904555
0.0222486
0.00894969
0.0110553
0.0111024
0.00996442
0.0089661
0.00820113
0.00755287
0.00697268
0.00644674
0.00596653
0.00552397
0.00511207
0.00472503
0.00435813
0.00400745
0.0036697
0.00334207
0.00302207
0.00270755
0.00239652
0.00208714
0.0017777
0.00146653
0.00115196
0.000832335
0.00050592
0.000170931
-0.000174582
-0.000532644
-0.000905582
-0.00129579
-0.00170619
-0.00213971
-0.00260013
-0.00309122
-0.0036178
-0.00418532
-0.00479922
-0.00546903
-0.00619817
-0.00700746
-0.00788851
-0.00889395
-0.00997401
-0.0112686
-0.0126091
-0.0143283
-0.0159784
0.0873616
0.0233506
0.0094194
0.0112294
0.0112034
0.0100221
0.00900435
0.00823113
0.00757753
0.00699324
0.00646424
0.00598172
0.00553739
0.00512406
0.00473586
0.004368
0.00401651
0.00367807
0.00334983
0.00302933
0.00271436
0.00240293
0.00209321
0.00178347
0.00147202
0.00115721
0.000837377
0.000510776
0.000175625
-0.000170028
-0.000528209
-0.000901246
-0.00129153
-0.00170199
-0.00213555
-0.00259597
-0.00308706
-0.00361359
-0.00418103
-0.0047948
-0.00546445
-0.00619336
-0.00700236
-0.00788301
-0.00888789
-0.0099679
-0.0112596
-0.0126024
-0.0142833
-0.015901
0.0844025
0.0244473
0.00998558
0.0114502
0.0113381
0.0101001
0.00905347
0.00826832
0.00760766
0.00701798
0.00648495
0.00599946
0.00555287
0.00513777
0.00474814
0.0043791
0.00402664
0.00368738
0.00335845
0.00303735
0.00272187
0.00240999
0.00209989
0.00178981
0.00147807
0.001163
0.000842949
0.000516162
0.000180855
-0.000164924
-0.000523201
-0.000896303
-0.00128662
-0.00169708
-0.0021306
-0.00259094
-0.0030819
-0.00360824
-0.00417542
-0.00478886
-0.00545806
-0.0061864
-0.00699463
-0.0078744
-0.00887775
-0.00995678
-0.0112433
-0.012588
-0.0142191
-0.0158012
0.0814937
0.0254866
0.0106011
0.0116975
0.0115006
0.0102001
0.00911608
0.00831489
0.00764519
0.00704863
0.00651036
0.00602101
0.0055715
0.00515413
0.00476268
0.00439217
0.00403848
0.00369821
0.00336842
0.00304659
0.00273049
0.00241808
0.00210751
0.00179703
0.00148496
0.0011696
0.000849306
0.00052232
0.000186854
-0.00015904
-0.000517393
-0.000890525
-0.00128083
-0.00169122
-0.00212462
-0.00258476
-0.00307545
-0.00360142
-0.00416813
-0.00478094
-0.00544935
-0.00617667
-0.00698352
-0.00786176
-0.00886234
-0.00993963
-0.0112175
-0.0125622
-0.0141361
-0.0156767
0.0786293
0.0264495
0.0112323
0.0119497
0.0116777
0.0103174
0.00919109
0.00837077
0.00769052
0.00708583
0.00654122
0.00604712
0.00559402
0.00517383
0.00478013
0.00440777
0.00405258
0.00371104
0.00338019
0.00305746
0.00274059
0.00242753
0.00211641
0.00180545
0.00149297
0.00117728
0.000856702
0.000529492
0.000193858
-0.000152151
-0.00051056
-0.000883689
-0.00127393
-0.00168417
-0.00211734
-0.00257716
-0.00306741
-0.00359279
-0.00415876
-0.0047706
-0.00543776
-0.00616353
-0.00696823
-0.00784411
-0.00884037
-0.00991478
-0.0111802
-0.0125215
-0.014034
-0.0155272
0.0758152
0.027328
0.0118631
0.0121951
0.0118584
0.0104455
0.0092751
0.00843388
0.00774243
0.00712898
0.00657733
0.00607783
0.00562059
0.00519714
0.00480079
0.00442626
0.00406926
0.00372622
0.0033941
0.00307029
0.0027525
0.00243866
0.00212687
0.00181534
0.00150238
0.00118629
0.00086538
0.000537914
0.000202095
-0.000144027
-0.000502477
-0.000875564
-0.00126568
-0.00167569
-0.00210852
-0.00256786
-0.00305748
-0.00358202
-0.00414692
-0.00475737
-0.00542277
-0.00614633
-0.00694796
-0.00782048
-0.00881059
-0.00988056
-0.0111293
-0.0124625
-0.0139126
-0.015353
0.0730573
0.0281193
0.0124885
0.0124295
0.0120367
0.0105796
0.00936478
0.00850163
0.00779891
0.00717665
0.00661768
0.00611248
0.0056508
0.0052238
0.00482454
0.00444761
0.00408859
0.00374384
0.00341027
0.00308523
0.00276639
0.00245164
0.00213907
0.00182689
0.00151337
0.00119681
0.000875534
0.000547782
0.000211761
-0.000134473
-0.000492944
-0.000865948
-0.00125587
-0.00166555
-0.00209792
-0.0025566
-0.00304537
-0.00356877
-0.00413225
-0.00474083
-0.00540387
-0.00612446
-0.00692197
-0.00778996
-0.00877187
-0.00983541
-0.0110633
-0.0123824
-0.0137715
-0.0151547
0.0703602
0.0288232
0.0131072
0.0126527
0.0122097
0.0107169
0.00945804
0.00857207
0.00785816
0.00722729
0.00666103
0.00615005
0.00568384
0.00525318
0.00485091
0.00447144
0.00411029
0.00376371
0.00342859
0.00310221
0.00278222
0.00246647
0.00215306
0.00184014
0.00152601
0.00120895
0.000887262
0.000559202
0.000222973
-0.000123363
-0.000481827
-0.000854697
-0.00124435
-0.0016536
-0.00208536
-0.00254318
-0.00303086
-0.0035528
-0.00411446
-0.00472066
-0.00538066
-0.00609747
-0.00688967
-0.00775184
-0.00872336
-0.00977801
-0.0109813
-0.0122795
-0.0136101
-0.0149335
0.0677272
0.0294401
0.0137184
0.0128654
0.0123758
0.0108559
0.00955389
0.00864408
0.00791899
0.00727976
0.00670631
0.00618958
0.00571886
0.00528455
0.00487925
0.00449723
0.0041339
0.00378547
0.00344874
0.00312098
0.00279978
0.00248301
0.0021687
0.00185502
0.00154024
0.00122265
0.000900543
0.000572172
0.000235744
-0.000110671
-0.000469085
-0.000841757
-0.00123106
-0.00163975
-0.00207074
-0.00252751
-0.00301383
-0.00353397
-0.00409337
-0.00469665
-0.00535289
-0.00606505
-0.0068507
-0.00770563
-0.00866455
-0.00970751
-0.0108827
-0.0121535
-0.0134283
-0.0146907
0.0651612
0.0299702
0.0143208
0.0130688
0.0125343
0.0109959
0.00965195
0.00871721
0.00798077
0.00733341
0.00675287
0.00623042
0.00575521
0.0053173
0.00490899
0.00452444
0.00415895
0.00380866
0.00347034
0.00314119
0.00281879
0.00250097
0.00218576
0.00187131
0.00155589
0.00123777
0.000915251
0.000586587
0.000249988
-9.64644e-05
-0.000454772
-0.000827171
-0.00121601
-0.00162402
-0.00205407
-0.00250957
-0.00299426
-0.00351226
-0.00406895
-0.00466875
-0.00532049
-0.00602713
-0.00680498
-0.00765118
-0.00859541
-0.00962363
-0.010768
-0.0120051
-0.013227
-0.0144285
0.0626648
0.0304142
0.0149124
0.013264
0.0126844
0.0111359
0.00975208
0.00879129
0.00804323
0.00738791
0.00680037
0.00627221
0.00579253
0.00535102
0.00493974
0.00455267
0.00418505
0.00383292
0.00349302
0.0031625
0.00283891
0.00252006
0.00220397
0.00188878
0.00157273
0.0012541
0.000931199
0.000602276
0.00026555
-8.08836e-05
-0.000439015
-0.000811051
-0.00119932
-0.0016065
-0.00203545
-0.00248944
-0.00297222
-0.00348773
-0.00404127
-0.00463705
-0.00528357
-0.00598382
-0.00675266
-0.00758866
-0.00851627
-0.00952673
-0.0106381
-0.0118363
-0.0130076
-0.0141493
0.0602405
0.0307729
0.0154907
0.0134524
0.0128256
0.0112752
0.00985416
0.00886631
0.00810622
0.00744312
0.00684866
0.00631477
0.0058306
0.0053855
0.00497126
0.0045817
0.00421194
0.00385801
0.00351653
0.00318466
0.00285991
0.00254006
0.0022231
0.00190719
0.00159054
0.00127144
0.000948196
0.00061906
0.00028226
-6.40911e-05
-0.000421968
-0.000793546
-0.00118113
-0.00158734
-0.00201499
-0.00246728
-0.00294788
-0.00346056
-0.00401051
-0.00460177
-0.00524237
-0.0059354
-0.00669413
-0.00751847
-0.00842782
-0.00941764
-0.0104944
-0.0116497
-0.0127719
-0.0138558
0.0578907
0.0310476
0.0160528
0.0136355
0.0129575
0.0114129
0.00995805
0.00894226
0.00816967
0.00749894
0.00689768
0.00635805
0.00586935
0.00542065
0.00500344
0.00461138
0.00423951
0.00388376
0.00354074
0.00320753
0.00288163
0.00256079
0.002243
0.00192638
0.00160917
0.00128964
0.000966087
0.000636785
0.000299969
-4.62329e-05
-0.000403776
-0.000774799
-0.00116158
-0.00156668
-0.00199287
-0.00244324
-0.00292138
-0.00343093
-0.00397689
-0.00456313
-0.00519717
-0.00588221
-0.00662986
-0.00744119
-0.0083309
-0.00929754
-0.0103386
-0.0114482
-0.0125224
-0.0135506
0.0556174
0.0312399
0.0165956
0.0138149
0.0130799
0.0115479
0.0100635
0.00901919
0.00823351
0.00755531
0.00694738
0.006402
0.00590875
0.00545643
0.00503624
0.00464168
0.00426769
0.00391013
0.00356556
0.00323102
0.00290398
0.00258217
0.00226356
0.00194627
0.00162852
0.00130859
0.00098477
0.00065535
0.000318572
-2.74134e-05
-0.000384542
-0.000754917
-0.00114079
-0.00154463
-0.00196919
-0.00241744
-0.00289289
-0.003399
-0.00394059
-0.00452136
-0.00514828
-0.00582462
-0.00656033
-0.00735741
-0.00822639
-0.0091677
-0.0101724
-0.0112348
-0.0122615
-0.0132356
0.0534222
0.0313519
0.0171159
0.0139919
0.0131927
0.0116794
0.0101704
0.00909709
0.00829767
0.00761216
0.00699773
0.00644661
0.00594877
0.00549282
0.00506965
0.00467258
0.00429646
0.00393709
0.00359097
0.00325511
0.00292694
0.00260417
0.00228476
0.00196681
0.00164855
0.00132824
0.00100419
0.0006747
0.000338015
-7.68961e-06
-0.000364328
-0.000733962
-0.0011188
-0.00152127
-0.00194404
-0.00238998
-0.00286249
-0.0033649
-0.00390176
-0.00447665
-0.00509592
-0.0057629
-0.00648594
-0.00726765
-0.00811503
-0.00902928
-0.0099973
-0.0110118
-0.0119911
-0.0129127
0.0513065
0.031386
0.0176109
0.0141677
0.0132961
0.0118063
0.0102782
0.00917601
0.00836211
0.00766939
0.00704869
0.00649186
0.00598942
0.00552982
0.00510366
0.00470408
0.00432583
0.00396464
0.00361697
0.00327978
0.00295048
0.00262677
0.00230657
0.00198799
0.00166923
0.00134858
0.00102434
0.000694821
0.000358282
1.29209e-05
-0.00034315
-0.000711953
-0.00109566
-0.00149662
-0.00191744
-0.00236088
-0.00283023
-0.00332866
-0.00386046
-0.00442909
-0.00504022
-0.00569724
-0.00640697
-0.00717233
-0.00799738
-0.00888326
-0.00981433
-0.010781
-0.0117129
-0.0125829
0.0492711
0.0313452
0.0180776
0.0143433
0.0133903
0.0119277
0.0103865
0.00925593
0.00842678
0.00772691
0.0071002
0.00653774
0.00603068
0.00556742
0.00513827
0.00473617
0.00435578
0.00399278
0.00364356
0.00330506
0.00297464
0.00264998
0.00232901
0.0020098
0.00169058
0.00136962
0.00104523
0.000715721
0.000379382
3.44287e-05
-0.000320998
-0.000688879
-0.00107134
-0.00147066
-0.00188938
-0.00233015
-0.00279611
-0.0032903
-0.00381673
-0.0043787
-0.00498126
-0.00562773
-0.00632357
-0.00707169
-0.00787381
-0.00873032
-0.00962432
-0.0105437
-0.011428
-0.012247
0.0473163
0.031233
0.0185132
0.0145191
0.0134758
0.0120426
0.0104948
0.00933684
0.00849164
0.00778464
0.00715221
0.00658422
0.00607253
0.0056056
0.00517347
0.00476886
0.00438634
0.00402152
0.00367075
0.00333093
0.0029994
0.00267382
0.00235209
0.00203229
0.00171262
0.00139138
0.00106687
0.000737425
0.000401341
5.68619e-05
-0.000297842
-0.000664708
-0.00104581
-0.00144336
-0.00185982
-0.00229773
-0.00276008
-0.00324977
-0.00377051
-0.00432545
-0.00491902
-0.00555438
-0.0062358
-0.00696588
-0.00774452
-0.00857094
-0.00942778
-0.0103004
-0.0111371
-0.0119053
0.0454421
0.0310534
0.0189151
0.0146955
0.0135531
0.0121502
0.0106025
0.00941869
0.00855667
0.00784248
0.00720464
0.00663128
0.00611497
0.00564437
0.00520926
0.00480215
0.0044175
0.00405087
0.00369856
0.00335743
0.0030248
0.0026983
0.00237583
0.00205545
0.00173538
0.00141388
0.0010893
0.000759965
0.000424193
8.0258e-05
-0.000273641
-0.000639393
-0.00101903
-0.00141467
-0.0018287
-0.00226356
-0.00272207
-0.003207
-0.00372175
-0.00426928
-0.00485343
-0.00547715
-0.00614362
-0.00685497
-0.00760962
-0.00840542
-0.00922503
-0.0100517
-0.0108406
-0.0115581
0.0436481
0.0308106
0.0192808
0.0148721
0.0136231
0.0122498
0.010709
0.00950137
0.00862187
0.00790033
0.00725741
0.00667886
0.00615796
0.0056837
0.00524563
0.00483603
0.00444927
0.00408083
0.00372699
0.00338457
0.00305085
0.00272345
0.00240026
0.00207933
0.00175887
0.00143717
0.00111255
0.000783375
0.000447979
0.00010466
-0.000248346
-0.000612884
-0.000990922
-0.00138452
-0.00179596
-0.00222757
-0.00268202
-0.00316191
-0.00367034
-0.00421009
-0.00478441
-0.00539596
-0.00604698
-0.00673894
-0.00746913
-0.00823393
-0.00901626
-0.00979778
-0.0105388
-0.0112055
0.0419335
0.0305095
0.019608
0.0150487
0.0136865
0.0123409
0.0108133
0.00958472
0.00868723
0.0079581
0.00731043
0.00672693
0.00620151
0.00572359
0.00528257
0.00487051
0.00448164
0.00411142
0.00375605
0.00341235
0.00307756
0.00274928
0.00242539
0.00210394
0.00178313
0.00146125
0.00113665
0.000807695
0.00047274
0.000130116
-0.000221907
-0.000585123
-0.000961442
-0.00135285
-0.00176153
-0.00218969
-0.00263983
-0.00311441
-0.00361621
-0.00414777
-0.00471186
-0.00531073
-0.0059458
-0.00661778
-0.00732306
-0.00805658
-0.00880162
-0.00953864
-0.010232
-0.0108478
0.0402971
0.0301551
0.0198948
0.0152241
0.0137443
0.0124232
0.0109147
0.00966853
0.00875275
0.00801571
0.0073636
0.00677544
0.00624556
0.00576401
0.00532007
0.00490558
0.00451463
0.00414263
0.00378576
0.0034408
0.00310495
0.00277582
0.00245125
0.00212931
0.00180819
0.00148618
0.00116165
0.000832964
0.00049852
0.000156672
-0.000194271
-0.000556053
-0.00093052
-0.00131958
-0.00172531
-0.00214981
-0.00259541
-0.00306439
-0.00355923
-0.00408224
-0.00463567
-0.00522135
-0.00583998
-0.00649146
-0.0071714
-0.00787346
-0.00858122
-0.00927438
-0.00992016
-0.0104853
0.0387372
0.0297526
0.0201396
0.0153972
0.0137974
0.0124964
0.0110124
0.00975248
0.00881844
0.00807308
0.00741681
0.00682432
0.00629011
0.00580495
0.00535813
0.00494123
0.00454823
0.00417448
0.00381613
0.00346991
0.00313304
0.00280308
0.00247787
0.00215547
0.00183407
0.00151198
0.00118756
0.000859224
0.000525365
0.00018438
-0.000165382
-0.000525612
-0.00089809
-0.00128465
-0.00168724
-0.00210787
-0.00254867
-0.00301175
-0.00349931
-0.00401338
-0.00455573
-0.00512775
-0.00572947
-0.00635996
-0.00701418
-0.00768465
-0.00835521
-0.00900511
-0.00960367
-0.0101183
0.0372519
0.0293076
0.020341
0.0155663
0.0138469
0.0125606
0.0111055
0.0098362
0.00888427
0.00813016
0.00746994
0.00687348
0.00633511
0.00584638
0.00539671
0.00497745
0.00458243
0.00420696
0.00384715
0.00349972
0.00316184
0.00283108
0.00250526
0.00218244
0.00186081
0.00153869
0.00121445
0.000886517
0.000553322
0.000213291
-0.000135182
-0.000493738
-0.000864082
-0.00124797
-0.00164724
-0.00206377
-0.00249952
-0.00295641
-0.00343635
-0.00394108
-0.00447195
-0.00502984
-0.00561418
-0.00622325
-0.00685142
-0.00749024
-0.00812371
-0.00873095
-0.00928276
-0.00974725
0.0358392
0.0288257
0.0204983
0.0157295
0.0138936
0.012616
0.0111932
0.00991922
0.0089502
0.00818689
0.00752289
0.00692286
0.00638051
0.00588829
0.0054358
0.00501423
0.00461724
0.00424008
0.00387884
0.00353022
0.00319138
0.00285984
0.00253345
0.00221025
0.00188843
0.00156633
0.00124234
0.000914886
0.00058244
0.000243459
-0.000103615
-0.000460365
-0.000828428
-0.00120947
-0.00160522
-0.00201742
-0.00244786
-0.00289826
-0.00337025
-0.00386527
-0.00438423
-0.00492755
-0.00549408
-0.00608134
-0.00668317
-0.00729032
-0.0078869
-0.00845206
-0.00895775
-0.00937278
0.0344966
0.0283126
0.0206111
0.0158844
0.0139383
0.0126629
0.0112747
0.010001
0.00901617
0.00824324
0.00757553
0.00697234
0.00642628
0.00593064
0.00547539
0.00505156
0.00465265
0.00427384
0.00391121
0.00356144
0.00322165
0.00288939
0.00256246
0.00223892
0.00191698
0.00159496
0.00127127
0.000944378
0.000612767
0.000274939
-7.06184e-05
-0.00042543
-0.000791055
-0.00116907
-0.0015611
-0.00196874
-0.0023936
-0.0028372
-0.00330091
-0.00378583
-0.0042925
-0.00482082
-0.00536912
-0.00593423
-0.00650949
-0.00708502
-0.00764498
-0.00816869
-0.00862898
-0.00899543
0.0332214
0.0277737
0.0206794
0.0160287
0.0139816
0.012702
0.0113494
0.0100809
0.00908206
0.00829918
0.00762776
0.00702182
0.00647235
0.00597339
0.00551544
0.00508942
0.00468865
0.00430824
0.00394426
0.00359337
0.00325269
0.00291974
0.00259232
0.0022685
0.00194648
0.0016246
0.00130129
0.000975037
0.000644355
0.000307786
-3.61324e-05
-0.000388864
-0.000751892
-0.0011267
-0.00151479
-0.00191763
-0.00233664
-0.00277315
-0.00322823
-0.00370269
-0.00419667
-0.00470959
-0.00523929
-0.00578196
-0.00633049
-0.00687448
-0.00739816
-0.00788111
-0.00829688
-0.00861584
0.0320108
0.0272145
0.020704
0.0161597
0.014024
0.0127339
0.0114167
0.0101584
0.00914767
0.00835469
0.00767949
0.00707119
0.00651864
0.00601652
0.00555594
0.00512779
0.00472522
0.00434327
0.00397799
0.00362603
0.0032845
0.00295091
0.00262306
0.002299
0.00197696
0.0016553
0.00133244
0.00100691
0.000677256
0.000342058
-9.44555e-08
-0.000350601
-0.000710866
-0.00108228
-0.00146622
-0.00186401
-0.00227691
-0.00270601
-0.00315213
-0.00361577
-0.00409668
-0.00459383
-0.0051046
-0.00562458
-0.00614627
-0.00665889
-0.00714672
-0.00758963
-0.00796192
-0.00823471
0.0308618
0.02664
0.0206861
0.0162751
0.0140654
0.0127594
0.0114763
0.0102326
0.00921278
0.00840975
0.00773061
0.00712032
0.00656508
0.00605999
0.00559684
0.00516664
0.00476236
0.00437894
0.00401241
0.00365943
0.0033171
0.00298291
0.00265468
0.00233046
0.00200847
0.00168708
0.00136476
0.00104005
0.000711522
0.000377811
3.75584e-05
-0.000310572
-0.000667902
-0.00103573
-0.0014153
-0.0018078
-0.0022143
-0.00263569
-0.00307254
-0.003525
-0.00399249
-0.00447352
-0.00496504
-0.00546215
-0.00595698
-0.00643846
-0.00689092
-0.00729465
-0.0076246
-0.00785275
0.0297716
0.026055
0.0206271
0.0163728
0.0141056
0.0127791
0.011528
0.010303
0.00927705
0.0084643
0.00778106
0.00716908
0.00661157
0.00610373
0.00563813
0.00520596
0.00480005
0.00441523
0.00404752
0.00369358
0.0033505
0.00301578
0.00268723
0.00236289
0.00204102
0.00171999
0.0013983
0.00107449
0.000747206
0.000415105
7.68897e-05
-0.000268709
-0.000622928
-0.000986963
-0.00136194
-0.00174891
-0.00214875
-0.00256213
-0.00298937
-0.00343031
-0.00388404
-0.00434866
-0.00482068
-0.00529479
-0.00576278
-0.0062134
-0.0066311
-0.00699656
-0.00728546
-0.00747067
0.0287369
0.0254638
0.0205294
0.016451
0.0141438
0.0127939
0.0115717
0.0103687
0.00934011
0.0085183
0.00783077
0.00721735
0.006658
0.00614769
0.00567977
0.00524571
0.00483826
0.00445213
0.00408331
0.00372847
0.00338471
0.00304952
0.00272071
0.00239634
0.00207466
0.00175407
0.00143309
0.0011103
0.000784363
0.000453999
0.000117963
-0.000224943
-0.000575871
-0.000935915
-0.00130608
-0.00168726
-0.00208016
-0.00248523
-0.00290256
-0.00333167
-0.00377133
-0.00421924
-0.00467157
-0.00512259
-0.00556386
-0.005984
-0.00636761
-0.00669583
-0.00694509
-0.00708925
0.0277548
0.0248702
0.0203954
0.016508
0.0141791
0.0128044
0.0116076
0.0104293
0.0094015
0.00857164
0.0078797
0.00726502
0.00670428
0.0061918
0.00572171
0.00528587
0.00487698
0.00448963
0.00411979
0.00376412
0.00341975
0.00308416
0.00275516
0.00243083
0.00210942
0.00178936
0.00146918
0.00114751
0.000823045
0.000494551
0.000160843
-0.000179205
-0.000526659
-0.000882507
-0.00124763
-0.00162277
-0.00200846
-0.00240495
-0.00281205
-0.00322904
-0.00365434
-0.00408531
-0.00451778
-0.00494571
-0.00536044
-0.00575055
-0.00610084
-0.00639295
-0.00660411
-0.00670924
0.0268222
0.0242775
0.0202279
0.0165428
0.0142104
0.0128111
0.011636
0.0104841
0.00946071
0.00862418
0.00792778
0.00731197
0.00675026
0.00623599
0.00576391
0.0053264
0.00491617
0.00452771
0.00415694
0.00380053
0.00345562
0.0031197
0.0027906
0.00246638
0.00214533
0.00182589
0.00150662
0.00118618
0.000863308
0.00053682
0.000205592
-0.000131429
-0.00047522
-0.000826665
-0.00118652
-0.00155538
-0.0019336
-0.00232121
-0.00271781
-0.00312239
-0.00353307
-0.00394692
-0.00435944
-0.00476432
-0.00515277
-0.00551337
-0.0058312
-0.00608843
-0.00626315
-0.00633141
0.0259362
0.0236888
0.0200303
0.0165543
0.0142361
0.0128144
0.0116573
0.0105328
0.00951722
0.00867573
0.00797498
0.00735811
0.00679584
0.00628016
0.00580632
0.00536727
0.00495582
0.00456636
0.00419475
0.00383769
0.00349233
0.00315617
0.00282704
0.00250302
0.00218243
0.0018637
0.00154545
0.00122635
0.000905205
0.000580864
0.000252273
-8.1548e-05
-0.000421487
-0.00076832
-0.00112268
-0.00148501
-0.00185549
-0.00223397
-0.0026198
-0.00301172
-0.00340757
-0.00380414
-0.00419666
-0.00457862
-0.00494112
-0.00527283
-0.00555914
-0.00578283
-0.00592289
-0.00595654
0.0250939
0.0231064
0.0198056
0.0165424
0.014255
0.0128145
0.0116719
0.010575
0.00957049
0.00872604
0.00802123
0.00740334
0.00684088
0.00632422
0.00584887
0.00540844
0.00499589
0.00460555
0.00423322
0.00387561
0.00352989
0.00319357
0.00286451
0.00254079
0.00222074
0.00190284
0.00158571
0.00126808
0.000948788
0.000626741
0.000300947
-2.9498e-05
-0.000365391
-0.000707404
-0.00105604
-0.00141161
-0.00177411
-0.00214319
-0.002518
-0.00289703
-0.00327787
-0.00365705
-0.00402959
-0.00438882
-0.00472579
-0.00502931
-0.00528515
-0.00547672
-0.005584
-0.00558548
0.0242926
0.0225324
0.0195574
0.0165068
0.0142654
0.0128115
0.0116804
0.0106105
0.00961997
0.00877481
0.00806646
0.00744759
0.00688527
0.00636805
0.00589151
0.00544986
0.00503635
0.00464526
0.00427234
0.00391428
0.0035683
0.00323193
0.00290302
0.0025797
0.0022603
0.00194333
0.00162744
0.00131141
0.00099411
0.000674507
0.000351674
2.47832e-05
-0.000306872
-0.000643856
-0.000986552
-0.00133511
-0.00168939
-0.00204885
-0.00241241
-0.00277835
-0.00314405
-0.00350579
-0.00385843
-0.00419518
-0.00450711
-0.00478322
-0.00500972
-0.00517069
-0.00524715
-0.00521888
0.0235297
0.0219685
0.0192889
0.016448
0.0142659
0.0128051
0.0116833
0.0106393
0.00966518
0.0088217
0.00811055
0.00749079
0.00692887
0.00641155
0.00593415
0.00549149
0.00507716
0.00468546
0.00431208
0.0039537
0.00360756
0.00327123
0.00294259
0.00261977
0.00230113
0.00198521
0.00167069
0.00135639
0.00104122
0.000724217
0.000404511
8.13546e-05
-0.000245868
-0.000577617
-0.000914152
-0.00125549
-0.00160132
-0.00195092
-0.00230303
-0.00265573
-0.00300618
-0.00335049
-0.00368336
-0.00399796
-0.00428544
-0.00453501
-0.00473337
-0.00486535
-0.004913
-0.00485748
0.0228027
0.0214159
0.0190033
0.0163668
0.0142554
0.0127948
0.0116809
0.0106615
0.00970567
0.00886633
0.00815337
0.00753286
0.0069716
0.00645459
0.0059767
0.00553327
0.00511829
0.00472613
0.00435242
0.00399385
0.00364768
0.00331151
0.00298325
0.00266104
0.00234327
0.00202852
0.0017155
0.00140306
0.00109017
0.000775922
0.000459513
0.000140272
-0.000182326
-0.000508636
-0.000838799
-0.00117269
-0.00150986
-0.00184941
-0.0021899
-0.00252923
-0.00286438
-0.00319131
-0.00350463
-0.00379748
-0.00406114
-0.00428512
-0.00445664
-0.0045613
-0.00458225
-0.00450202
0.0221094
0.0208757
0.0187037
0.0162641
0.0142328
0.0127802
0.0116737
0.0106772
0.00974109
0.00890828
0.00819475
0.00757375
0.00701334
0.00649706
0.00601908
0.00557514
0.00515969
0.00476722
0.00439335
0.00403472
0.00368865
0.00335276
0.00302499
0.00270352
0.00238675
0.00207329
0.0017619
0.00145146
0.00114101
0.000829673
0.00051673
0.000201586
-0.000116196
-0.000436867
-0.000760453
-0.0010867
-0.00141501
-0.00174433
-0.00207306
-0.00239893
-0.00271877
-0.00302844
-0.00332247
-0.00359405
-0.00383462
-0.00403404
-0.00418008
-0.00425916
-0.00425556
-0.00415317
0.0214475
0.0203484
0.0183928
0.0161414
0.0141973
0.0127606
0.0116619
0.0106867
0.00977115
0.00894716
0.00823447
0.00761335
0.00705401
0.00653883
0.00606119
0.00561703
0.00520131
0.00480871
0.00443483
0.00407631
0.00373046
0.00339499
0.00306784
0.00274723
0.00243159
0.00211956
0.00180993
0.00150164
0.00119377
0.000885515
0.000576211
0.000265344
-4.74333e-05
-0.000362273
-0.000679088
-0.0009975
-0.00131677
-0.00163571
-0.00195257
-0.00226493
-0.00256952
-0.00286209
-0.00313717
-0.00338802
-0.00360631
-0.00378225
-0.00390425
-0.00395955
-0.00393356
-0.00381156
0.0208152
0.0198346
0.0180734
0.016
0.0141485
0.0127352
0.0116456
0.0106903
0.00979569
0.00898258
0.00827228
0.00765159
0.00709351
0.0065798
0.0061029
0.00565887
0.00524311
0.00485056
0.00447683
0.00411858
0.00377312
0.00343819
0.0031118
0.00279218
0.0024778
0.00216734
0.00185962
0.00155364
0.00124851
0.000943491
0.000637998
0.000331587
2.39974e-05
-0.000284825
-0.000594684
-0.000905084
-0.00121516
-0.00152359
-0.0018285
-0.00212736
-0.00241678
-0.00269249
-0.00294902
-0.00317976
-0.00337663
-0.00353027
-0.00362971
-0.00366305
-0.00361686
-0.00347777
0.0202106
0.0193344
0.0177476
0.0158417
0.0140861
0.0127034
0.0116249
0.0106881
0.00981462
0.00901418
0.00830792
0.00768833
0.00713178
0.00661985
0.00614413
0.00570058
0.00528503
0.00489272
0.00451934
0.00416152
0.0038166
0.00348238
0.00315688
0.0028384
0.00252542
0.00221667
0.00191101
0.00160748
0.00130525
0.00100364
0.000702127
0.000400348
9.81255e-05
-0.000204501
-0.000507234
-0.000809465
-0.00111021
-0.00140804
-0.00170097
-0.00198635
-0.00226077
-0.00251989
-0.00275835
-0.00296965
-0.00314604
-0.00327859
-0.00335701
-0.00337026
-0.00330604
-0.00315232
0.0196319
0.0188481
0.0174176
0.0156683
0.0140101
0.0126643
0.0115996
0.0106806
0.00982794
0.00904165
0.0083411
0.00772344
0.00716872
0.00665888
0.00618475
0.00574207
0.00532701
0.00493515
0.00456231
0.0042051
0.0038609
0.00352754
0.00320309
0.00288589
0.00257447
0.00226757
0.00196412
0.0016632
0.00136403
0.00106599
0.000768632
0.000471656
0.000174971
-0.000121293
-0.000416741
-0.000710666
-0.00100198
-0.00128914
-0.00157008
-0.00184208
-0.00210168
-0.00234457
-0.00256547
-0.00275809
-0.00291499
-0.00302773
-0.00308671
-0.00308175
-0.00300166
-0.00283571
0.0190776
0.0183755
0.0170852
0.0154815
0.0139209
0.0126176
0.0115696
0.010668
0.00983572
0.00906475
0.00837151
0.00775676
0.00720425
0.00669681
0.00622466
0.00578324
0.00536898
0.00497781
0.0046057
0.0042493
0.003906
0.00357366
0.00325042
0.00293466
0.00262494
0.00232006
0.00201898
0.00172082
0.00142487
0.00113058
0.000837535
0.00054553
0.000254547
-3.51995e-05
-0.000323224
-0.000608724
-0.00089052
-0.00116699
-0.00143598
-0.00169473
-0.00193976
-0.00216683
-0.00237076
-0.0025455
-0.00268395
-0.0027782
-0.00281934
-0.00279804
-0.00270421
-0.00252837
0.0185462
0.0179166
0.016752
0.015283
0.013819
0.0125626
0.0115345
0.0106503
0.00983806
0.00908328
0.00839889
0.0077881
0.00723828
0.00673355
0.00626375
0.005824
0.00541087
0.00502064
0.00464948
0.00429409
0.00395188
0.00362074
0.00329888
0.00298471
0.00267686
0.00237416
0.0020756
0.00178037
0.00148781
0.00119742
0.000908855
0.00062198
0.000336853
5.37662e-05
-0.000226711
-0.000503693
-0.000775919
-0.0010417
-0.00129882
-0.00154449
-0.00177527
-0.00198697
-0.00217457
-0.00233228
-0.00245339
-0.00253051
-0.00255541
-0.00251963
-0.00241417
-0.00223068
0.0180364
0.0174712
0.0164192
0.0150747
0.013705
0.012499
0.0114942
0.0106278
0.00983512
0.00909714
0.00842296
0.00781726
0.0072707
0.006769
0.00630193
0.00586424
0.00545261
0.00506359
0.0046936
0.00433943
0.00399851
0.00366876
0.00334846
0.00303606
0.00273024
0.00242987
0.002134
0.00184187
0.00155285
0.00126652
0.0009826
0.000701009
0.000421879
0.00014558
-0.000127246
-0.000395639
-0.000658273
-0.000913396
-0.00115877
-0.0013916
-0.00160848
-0.00180531
-0.00197729
-0.00211887
-0.00222377
-0.00228513
-0.00229541
-0.00224701
-0.00213192
-0.00194293
0.0175471
0.017039
0.016088
0.0148581
0.0135797
0.0124268
0.0114483
0.0106005
0.00982704
0.00910626
0.00844351
0.00784405
0.00730138
0.00680308
0.0063391
0.00590388
0.0054941
0.0051066
0.00473803
0.00438529
0.00404586
0.00371771
0.00339914
0.00308869
0.00278507
0.0024872
0.00219419
0.00190531
0.00162001
0.0013379
0.00105877
0.000782606
0.000509606
0.000240204
-2.48877e-05
-0.000284649
-0.000537697
-0.000782243
-0.00101603
-0.00123629
-0.00143966
-0.0016222
-0.00177929
-0.0019057
-0.00199556
-0.00204254
-0.00203982
-0.00198059
-0.00185783
-0.00166538
0.017077
0.0166198
0.0157595
0.0146348
0.013444
0.0123459
0.0113965
0.0105684
0.00981398
0.00911064
0.00846034
0.00786824
0.00733021
0.00683572
0.00637518
0.00594282
0.00553527
0.0051496
0.0047827
0.00443163
0.00409391
0.00376756
0.00345092
0.00314259
0.00284135
0.00254616
0.00225618
0.00197072
0.00168928
0.00141155
0.00113736
0.000866754
0.000599999
0.000337588
8.02908e-05
-0.00017082
-0.000414322
-0.000648404
-0.00087081
-0.00107881
-0.00126913
-0.00143798
-0.00158097
-0.00169319
-0.00176919
-0.00180319
-0.00178906
-0.00172075
-0.00159218
-0.00139817
0.0166251
0.0162132
0.0154344
0.0144061
0.013299
0.0122565
0.0113387
0.0105314
0.00979608
0.00911031
0.00847331
0.00788966
0.00735704
0.00686681
0.00641008
0.00598096
0.00557603
0.00519252
0.00482758
0.00447841
0.00414263
0.00381828
0.00350378
0.00319777
0.00289908
0.00260675
0.00231995
0.00203807
0.00176067
0.00148745
0.00121834
0.00095342
0.000693012
0.000437667
0.000188202
-5.42703e-05
-0.000288299
-0.000512064
-0.000723334
-0.000919432
-0.0010972
-0.00125301
-0.00138272
-0.00148175
-0.00154509
-0.00156751
-0.00154351
-0.00146782
-0.00133521
-0.00114141
0.0161905
0.015819
0.0151135
0.0141733
0.0131456
0.0121589
0.0112747
0.0104896
0.00977345
0.00910533
0.00848233
0.00790812
0.00738172
0.00689628
0.00644371
0.00601823
0.0056163
0.0052353
0.00487259
0.00452559
0.00419197
0.00386985
0.00355769
0.00325419
0.00295825
0.00266894
0.0023855
0.00210737
0.00183415
0.0015656
0.00130169
0.00104256
0.000788588
0.000540362
0.000298741
6.4869e-05
-0.000159791
-0.000373427
-0.000573843
-0.000758441
-0.000924192
-0.00106765
-0.00118493
-0.0012718
-0.00132369
-0.00133588
-0.00130353
-0.00122207
-0.00108709
-0.000895117
0.0157723
0.0154369
0.0147972
0.0139377
0.0129848
0.0120535
0.0112045
0.0104429
0.00974619
0.00909581
0.00848734