/*--------------------------------*- C++ -*----------------------------------*\
  =========                 |
  \\      /  F ield         | OpenFOAM: The Open Source CFD Toolbox
   \\    /   O peration     | Website:  https://openfoam.org
    \\  /    A nd           | Version:  7
     \\/     M anipulation  |
\*---------------------------------------------------------------------------*/
FoamFile
{
    version     2.0;
    format      ascii;
    class       surfaceScalarField;
    location    "0.29";
    object      phi_0;
}
// * * * * * * * * * * * * * * * * * * * * * * * * * * * * * * * * * * * * * //

dimensions      [0 3 -1 0 0 0 0];

internalField   nonuniform List<scalar> 
139350
(
6.45133e-08
9.21182e-08
3.19677e-08
3.25456e-08
2.30643e-08
8.90338e-09
1.95812e-08
3.48314e-09
1.76306e-08
1.95058e-09
1.62015e-08
1.42915e-09
1.50693e-08
1.13216e-09
1.41575e-08
9.11831e-10
1.34073e-08
7.50173e-10
1.27755e-08
6.31845e-10
1.22331e-08
5.42317e-10
1.1761e-08
4.72122e-10
1.13454e-08
4.15658e-10
1.0976e-08
3.69393e-10
1.06451e-08
3.30916e-10
1.03466e-08
2.98501e-10
1.00757e-08
2.7088e-10
9.82857e-09
2.47104e-10
9.60212e-09
2.26452e-10
9.39375e-09
2.08367e-10
9.20134e-09
1.9241e-10
9.02311e-09
1.78234e-10
8.85755e-09
1.65557e-10
8.7034e-09
1.54149e-10
8.55958e-09
1.4382e-10
8.42517e-09
1.34411e-10
8.29939e-09
1.25785e-10
8.18156e-09
1.17827e-10
8.07113e-09
1.10429e-10
7.96762e-09
1.03507e-10
7.87066e-09
9.69594e-11
7.77993e-09
9.07328e-11
7.69523e-09
8.47046e-11
7.61636e-09
7.88648e-11
7.54333e-09
7.30267e-11
7.47608e-09
6.72556e-11
7.41484e-09
6.12395e-11
7.35969e-09
5.51477e-11
7.31118e-09
4.85142e-11
7.26968e-09
4.14992e-11
7.23592e-09
3.37621e-11
7.21128e-09
2.46317e-11
7.1958e-09
1.54868e-11
7.1944e-09
1.39911e-12
7.20275e-09
-8.35325e-12
7.23824e-09
-3.54836e-11
7.27618e-09
-3.79483e-11
7.39932e-09
-1.2314e-10
7.30696e-09
9.236e-11
-3.59656e-09
1.09035e-08
1.25945e-07
1.27617e-07
9.12954e-08
6.7195e-08
7.19475e-08
2.82513e-08
6.12364e-08
1.41942e-08
5.48036e-08
8.38336e-09
5.03114e-08
5.92133e-09
4.68289e-08
4.6147e-09
4.40168e-08
3.72391e-09
4.16945e-08
3.0725e-09
3.97364e-08
2.5899e-09
3.80554e-08
2.2233e-09
3.65915e-08
1.93606e-09
3.53019e-08
1.70522e-09
3.41552e-08
1.51614e-09
3.31272e-08
1.3589e-09
3.21993e-08
1.22642e-09
3.13566e-08
1.11355e-09
3.05873e-08
1.0164e-09
2.98817e-08
9.32038e-10
2.92319e-08
8.58187e-10
2.86313e-08
7.93063e-10
2.80742e-08
7.35247e-10
2.75562e-08
6.83595e-10
2.70732e-08
6.37175e-10
2.66218e-08
5.95215e-10
2.61991e-08
5.57073e-10
2.58027e-08
5.222e-10
2.54304e-08
4.9013e-10
2.50804e-08
4.60444e-10
2.47511e-08
4.32793e-10
2.44412e-08
4.06813e-10
2.41497e-08
3.8225e-10
2.38757e-08
3.5871e-10
2.36185e-08
3.36064e-10
2.33778e-08
3.13748e-10
2.31532e-08
2.9187e-10
2.2945e-08
2.69432e-10
2.27531e-08
2.47028e-10
2.25788e-08
2.22783e-10
2.24222e-08
1.98125e-10
2.22862e-08
1.69807e-10
2.21708e-08
1.40009e-10
2.20816e-08
1.0467e-10
2.20195e-08
6.3522e-11
2.19925e-08
1.86732e-11
2.20099e-08
-5.2866e-11
2.20634e-08
-9.15367e-11
2.22674e-08
-3.27135e-10
2.23086e-08
5.11466e-11
-4.73079e-09
2.34429e-08
1.58754e-07
1.35267e-07
1.36533e-07
8.94159e-08
1.17506e-07
4.72781e-08
1.03336e-07
2.83644e-08
9.33485e-08
1.83707e-08
8.60543e-08
1.32155e-08
8.03522e-08
1.03168e-08
7.57058e-08
8.37029e-09
7.18327e-08
6.94558e-09
6.85452e-08
5.87737e-09
6.57099e-08
5.05861e-09
6.32319e-08
4.41403e-09
6.10427e-08
3.89443e-09
5.90911e-08
3.46774e-09
5.73379e-08
3.11213e-09
5.57523e-08
2.812e-09
5.431e-08
2.55587e-09
5.29912e-08
2.33516e-09
5.17799e-08
2.14331e-09
5.06629e-08
1.97524e-09
4.9629e-08
1.82694e-09
4.8669e-08
1.69524e-09
4.77751e-08
1.57757e-09
4.69404e-08
1.47183e-09
4.61593e-08
1.3763e-09
4.54269e-08
1.28952e-09
4.47388e-08
1.21028e-09
4.40914e-08
1.13752e-09
4.34815e-08
1.07032e-09
4.29064e-08
1.00789e-09
4.23638e-08
9.4946e-10
4.18516e-08
8.94423e-10
4.13683e-08
8.42004e-10
4.09126e-08
7.91824e-10
4.04835e-08
7.42825e-10
4.00803e-08
6.95089e-10
3.9703e-08
6.46691e-10
3.93512e-08
5.98828e-10
3.90265e-08
5.47454e-10
3.87283e-08
4.96348e-10
3.84612e-08
4.36863e-10
3.82233e-08
3.78006e-10
3.80252e-08
3.02674e-10
3.78616e-08
2.27188e-10
3.77538e-08
1.26405e-10
3.76965e-08
4.48876e-12
3.77077e-08
-1.02779e-10
3.78739e-08
-4.93315e-10
3.80711e-08
-1.46007e-10
-4.93014e-09
3.82704e-08
1.75612e-07
1.3117e-07
1.65628e-07
9.93998e-08
1.52747e-07
6.01597e-08
1.40146e-07
4.09654e-08
1.29474e-07
2.90427e-08
1.20843e-07
2.18467e-08
1.13737e-07
1.74219e-08
1.07763e-07
1.43445e-08
1.02669e-07
1.20395e-08
9.82731e-08
1.02736e-08
9.44346e-08
8.89709e-09
9.10482e-08
7.80048e-09
8.80339e-08
6.90876e-09
8.53301e-08
6.17149e-09
8.28887e-08
5.55355e-09
8.06711e-08
5.02957e-09
7.86463e-08
4.58067e-09
7.67889e-08
4.19258e-09
7.50779e-08
3.85429e-09
7.34959e-08
3.55723e-09
7.20283e-08
3.29461e-09
7.06625e-08
3.06101e-09
6.93881e-08
2.85201e-09
6.81959e-08
2.66402e-09
6.70781e-08
2.49405e-09
6.6028e-08
2.33961e-09
6.50397e-08
2.19858e-09
6.41081e-08
2.06914e-09
6.32287e-08
1.94971e-09
6.23977e-08
1.83889e-09
6.16118e-08
1.7354e-09
6.0868e-08
1.63815e-09
6.01641e-08
1.54589e-09
5.94981e-08
1.4579e-09
5.88684e-08
1.37253e-09
5.82737e-08
1.28976e-09
5.77138e-08
1.2066e-09
5.71877e-08
1.12491e-09
5.66971e-08
1.03805e-09
5.62408e-08
9.52712e-10
5.58241e-08
8.53501e-10
5.54438e-08
7.58297e-10
5.51133e-08
6.33167e-10
5.4824e-08
5.16496e-10
5.46031e-08
3.47381e-10
5.44397e-08
1.67859e-10
5.43641e-08
-2.7237e-11
5.44339e-08
-5.63054e-10
5.46637e-08
-3.75835e-10
-4.86058e-09
5.45941e-08
1.84511e-07
1.23445e-07
1.82344e-07
1.01566e-07
1.7613e-07
6.63738e-08
1.67781e-07
4.93149e-08
1.5917e-07
3.76532e-08
1.51274e-07
2.97433e-08
1.4421e-07
2.44858e-08
1.37918e-07
2.06365e-08
1.32325e-07
1.76324e-08
1.27346e-07
1.52519e-08
1.22897e-07
1.33467e-08
1.18899e-07
1.1798e-08
1.15289e-07
1.05188e-08
1.12013e-07
9.44793e-09
1.09025e-07
8.5411e-09
1.06289e-07
7.76556e-09
1.03774e-07
7.09638e-09
1.01452e-07
6.51431e-09
9.93019e-08
6.00429e-09
9.73047e-08
5.55443e-09
9.54441e-08
5.15518e-09
9.37062e-08
4.79885e-09
9.20791e-08
4.47915e-09
9.05522e-08
4.19088e-09
8.91166e-08
3.92971e-09
8.77642e-08
3.692e-09
8.64881e-08
3.47466e-09
8.52823e-08
3.275e-09
8.41413e-08
3.0907e-09
8.30605e-08
2.9197e-09
8.20357e-08
2.76011e-09
8.10636e-08
2.61031e-09
8.0141e-08
2.46852e-09
7.92653e-08
2.33357e-09
7.84346e-08
2.20319e-09
7.76472e-08
2.07722e-09
7.69022e-08
1.95152e-09
7.61986e-08
1.82857e-09
7.55376e-08
1.69906e-09
7.49177e-08
1.57258e-09
7.43444e-08
1.42685e-09
7.38141e-08
1.28856e-09
7.33401e-08
1.10712e-09
7.29148e-08
9.41808e-10
7.25635e-08
6.98693e-10
7.22798e-08
4.51559e-10
7.20916e-08
1.60993e-10
7.2045e-08
-5.16477e-10
7.22046e-08
-5.35366e-10
-4.67508e-09
7.20191e-08
1.90343e-07
1.15319e-07
1.91862e-07
1.00047e-07
1.9027e-07
6.79658e-08
1.86172e-07
5.34131e-08
1.80741e-07
4.30835e-08
1.74999e-07
3.54858e-08
1.69311e-07
3.01732e-08
1.63836e-07
2.6112e-08
1.58669e-07
2.27992e-08
1.53853e-07
2.00683e-08
1.49389e-07
1.781e-08
1.45262e-07
1.59249e-08
1.41448e-07
1.43336e-08
1.37919e-07
1.2977e-08
1.34649e-07
1.18106e-08
1.31614e-07
1.08002e-08
1.28792e-07
9.91881e-09
1.26161e-07
9.14493e-09
1.23704e-07
8.46134e-09
1.21405e-07
7.85412e-09
1.19248e-07
7.3119e-09
1.17221e-07
6.82535e-09
1.15314e-07
6.38673e-09
1.13515e-07
5.98958e-09
1.11816e-07
5.62845e-09
1.1021e-07
5.29871e-09
1.08688e-07
4.99639e-09
1.07245e-07
4.71804e-09
1.05875e-07
4.46063e-09
1.04573e-07
4.22147e-09
1.03335e-07
3.99809e-09
1.02157e-07
3.78834e-09
1.01036e-07
3.58989e-09
9.99683e-08
3.40115e-09
9.89523e-08
3.21924e-09
9.79858e-08
3.04374e-09
9.70678e-08
2.86949e-09
9.6197e-08
2.69939e-09
9.53743e-08
2.52174e-09
9.45984e-08
2.34843e-09
9.3874e-08
2.15132e-09
9.31986e-08
1.96395e-09
9.25832e-08
1.72251e-09
9.2024e-08
1.50097e-09
9.15399e-08
1.18281e-09
9.11344e-08
8.57051e-10
9.0825e-08
4.70413e-10
9.06571e-08
-3.48626e-10
9.07058e-08
-5.84e-10
-4.37894e-09
9.04096e-08
1.95505e-07
1.07629e-07
1.98249e-07
9.73027e-08
1.98992e-07
6.72236e-08
1.97803e-07
5.46016e-08
1.95176e-07
4.57102e-08
1.91845e-07
3.88168e-08
1.88122e-07
3.38961e-08
1.8418e-07
3.00544e-08
1.80168e-07
2.6811e-08
1.76197e-07
2.40396e-08
1.72334e-07
2.16732e-08
1.68617e-07
1.96415e-08
1.65067e-07
1.78835e-08
1.61692e-07
1.63521e-08
1.58492e-07
1.50105e-08
1.55464e-07
1.38291e-08
1.52599e-07
1.27837e-08
1.49889e-07
1.18544e-08
1.47326e-07
1.10244e-08
1.449e-07
1.02801e-08
1.42602e-07
9.60967e-09
1.40424e-07
9.00354e-09
1.38357e-07
8.4534e-09
1.36395e-07
7.95225e-09
1.34529e-07
7.49409e-09
1.32754e-07
7.07372e-09
1.31064e-07
6.68664e-09
1.29453e-07
6.32889e-09
1.27917e-07
5.99696e-09
1.26451e-07
5.68767e-09
1.2505e-07
5.39814e-09
1.23713e-07
5.12574e-09
1.22435e-07
4.86774e-09
1.21214e-07
4.62214e-09
1.20048e-07
4.38554e-09
1.18934e-07
4.15724e-09
1.17873e-07
3.93125e-09
1.16861e-07
3.7106e-09
1.15901e-07
3.48174e-09
1.14992e-07
3.25797e-09
1.14136e-07
3.00691e-09
1.13334e-07
2.76613e-09
1.12593e-07
2.46351e-09
1.11915e-07
2.17944e-09
1.1131e-07
1.78797e-09
1.10792e-07
1.3746e-09
1.10369e-07
8.93669e-10
1.10083e-07
-6.24512e-11
1.10014e-07
-5.15224e-10
-3.97886e-09
1.09614e-07
2.0082e-07
1.00393e-07
2.03774e-07
9.43485e-08
2.05351e-07
6.56468e-08
2.05657e-07
5.42956e-08
2.04833e-07
4.65342e-08
2.03361e-07
4.02885e-08
2.01422e-07
3.58355e-08
1.99099e-07
3.23768e-08
1.96501e-07
2.94099e-08
1.93728e-07
2.68125e-08
1.90861e-07
2.45399e-08
1.8796e-07
2.2542e-08
1.8507e-07
2.07736e-08
1.82222e-07
1.92001e-08
1.79438e-07
1.77944e-08
1.76733e-07
1.65345e-08
1.74115e-07
1.54017e-08
1.71589e-07
1.438e-08
1.69158e-07
1.34557e-08
1.66821e-07
1.2617e-08
1.64577e-07
1.18537e-08
1.62424e-07
1.1157e-08
1.60358e-07
1.05192e-08
1.58377e-07
9.93366e-09
1.56476e-07
9.39456e-09
1.54653e-07
8.89675e-09
1.52904e-07
8.43567e-09
1.51226e-07
8.00726e-09
1.49615e-07
7.60786e-09
1.48068e-07
7.2341e-09
1.46584e-07
6.88288e-09
1.45158e-07
6.55133e-09
1.43789e-07
6.23646e-09
1.42476e-07
5.93597e-09
1.41215e-07
5.6461e-09
1.40006e-07
5.36592e-09
1.38849e-07
5.08878e-09
1.37742e-07
4.81768e-09
1.36686e-07
4.5378e-09
1.35681e-07
4.26293e-09
1.34729e-07
3.95823e-09
1.33833e-07
3.66232e-09
1.32997e-07
3.29992e-09
1.32226e-07
2.94986e-09
1.31526e-07
2.48859e-09
1.30917e-07
1.98309e-09
1.30401e-07
1.41004e-09
1.3001e-07
3.28198e-10
1.29832e-07
-3.36977e-10
-3.49685e-09
1.2935e-07
2.06423e-07
9.3502e-08
2.09334e-07
9.14378e-08
2.11062e-07
6.39187e-08
2.11947e-07
5.34104e-08
2.12016e-07
4.64652e-08
2.11638e-07
4.06665e-08
2.10917e-07
3.65573e-08
2.09853e-07
3.344e-08
2.08487e-07
3.07759e-08
2.06876e-07
2.84233e-08
2.05076e-07
2.63401e-08
2.03135e-07
2.44828e-08
2.01096e-07
2.28127e-08
1.98995e-07
2.13017e-08
1.9686e-07
1.99295e-08
1.94714e-07
1.86797e-08
1.92577e-07
1.75388e-08
1.90462e-07
1.6495e-08
1.8838e-07
1.55381e-08
1.86338e-07
1.46591e-08
1.84341e-07
1.385e-08
1.82395e-07
1.31037e-08
1.805e-07
1.24139e-08
1.78658e-07
1.1775e-08
1.76871e-07
1.11818e-08
1.75138e-07
1.06299e-08
1.73459e-07
1.0115e-08
1.71833e-07
9.63351e-09
1.70258e-07
9.18189e-09
1.68736e-07
8.75689e-09
1.67263e-07
8.35546e-09
1.6584e-07
7.97473e-09
1.64465e-07
7.61163e-09
1.63137e-07
7.26375e-09
1.61856e-07
6.92716e-09
1.60621e-07
6.60073e-09
1.59432e-07
6.27743e-09
1.5829e-07
5.96007e-09
1.57194e-07
5.63316e-09
1.56147e-07
5.31015e-09
1.5515e-07
4.95543e-09
1.54206e-07
4.6061e-09
1.53318e-07
4.18806e-09
1.52496e-07
3.77233e-09
1.51738e-07
3.24653e-09
1.51071e-07
2.64989e-09
1.50493e-07
1.98797e-09
1.50024e-07
7.97125e-10
1.49755e-07
-6.81699e-11
-2.96172e-09
1.4922e-07
2.1227e-07
8.68948e-08
2.15143e-07
8.85645e-08
2.16817e-07
6.22443e-08
2.17862e-07
5.23657e-08
2.18276e-07
4.60512e-08
2.184e-07
4.05429e-08
2.18331e-07
3.66259e-08
2.18038e-07
3.37327e-08
2.17515e-07
3.1299e-08
2.1678e-07
2.91583e-08
2.15857e-07
2.72632e-08
2.14771e-07
2.55691e-08
2.13547e-07
2.40366e-08
2.12211e-07
2.26382e-08
2.10785e-07
2.1355e-08
2.09292e-07
2.01731e-08
2.07749e-07
1.90816e-08
2.06173e-07
1.80713e-08
2.04576e-07
1.71345e-08
2.02971e-07
1.62643e-08
2.01366e-07
1.54548e-08
1.99769e-07
1.47006e-08
1.98187e-07
1.39967e-08
1.96623e-07
1.33388e-08
1.95082e-07
1.27228e-08
1.93567e-07
1.2145e-08
1.9208e-07
1.16018e-08
1.90623e-07
1.10901e-08
1.89198e-07
1.06069e-08
1.87806e-07
1.01492e-08
1.86447e-07
9.71424e-09
1.85123e-07
9.29933e-09
1.83833e-07
8.90152e-09
1.82578e-07
8.51843e-09
1.81359e-07
8.1461e-09
1.80177e-07
7.78331e-09
1.79031e-07
7.42288e-09
1.77924e-07
7.06736e-09
1.76856e-07
6.70102e-09
1.7583e-07
6.33648e-09
1.74846e-07
5.93859e-09
1.73911e-07
5.54113e-09
1.73025e-07
5.07435e-09
1.722e-07
4.59729e-09
1.71433e-07
4.01416e-09
1.7075e-07
3.33275e-09
1.7015e-07
2.58731e-09
1.69639e-07
1.30805e-09
1.69309e-07
2.61847e-10
-2.40607e-09
1.68754e-07
2.18315e-07
8.056e-08
2.21192e-07
8.56876e-08
2.2279e-07
6.06465e-08
2.23863e-07
5.12924e-08
2.24386e-07
4.55286e-08
2.24687e-07
4.02417e-08
2.24895e-07
3.64184e-08
2.2498e-07
3.36474e-08
2.24922e-07
3.13567e-08
2.24722e-07
2.93588e-08
2.24383e-07
2.76022e-08
2.23911e-07
2.60406e-08
2.23316e-07
2.46317e-08
2.22609e-07
2.33456e-08
2.21802e-07
2.21623e-08
2.20907e-07
2.10673e-08
2.19939e-07
2.00499e-08
2.18909e-07
1.91016e-08
2.17828e-07
1.82156e-08
2.16706e-07
1.73859e-08
2.15553e-07
1.66079e-08
2.14376e-07
1.58771e-08
2.13184e-07
1.51895e-08
2.11981e-07
1.45418e-08
2.10773e-07
1.39305e-08
2.09565e-07
1.33528e-08
2.08361e-07
1.28058e-08
2.07164e-07
1.22868e-08
2.05978e-07
1.17932e-08
2.04805e-07
1.13226e-08
2.03646e-07
1.08725e-08
2.02505e-07
1.04404e-08
2.01383e-07
1.00236e-08
2.00282e-07
9.6199e-09
1.99203e-07
9.2253e-09
1.98147e-07
8.83865e-09
1.97117e-07
8.45272e-09
1.96115e-07
8.06978e-09
1.95142e-07
7.67424e-09
1.94201e-07
7.27746e-09
1.93293e-07
6.84579e-09
1.92426e-07
6.40835e-09
1.91599e-07
5.90202e-09
1.90824e-07
5.37142e-09
1.90099e-07
4.73994e-09
1.89447e-07
3.98463e-09
1.8887e-07
3.16365e-09
1.8836e-07
1.8184e-09
1.88005e-07
6.16903e-10
-1.86484e-09
1.87464e-07
2.24549e-07
7.45042e-08
2.27452e-07
8.27844e-08
2.28986e-07
5.91125e-08
2.30067e-07
5.02118e-08
2.3063e-07
4.49653e-08
2.3098e-07
3.98919e-08
2.31277e-07
3.61212e-08
2.3151e-07
3.3414e-08
2.31661e-07
3.12059e-08
2.31728e-07
2.92922e-08
2.3171e-07
2.76205e-08
2.31605e-07
2.61457e-08
2.31412e-07
2.48241e-08
2.31134e-07
2.36236e-08
2.30774e-07
2.25222e-08
2.30337e-07
2.15043e-08
2.29829e-07
2.0558e-08
2.29256e-07
1.96745e-08
2.28625e-07
1.88464e-08
2.27943e-07
1.80683e-08
2.27216e-07
1.73352e-08
2.2645e-07
1.66432e-08
2.2565e-07
1.59888e-08
2.24823e-07
1.53688e-08
2.23973e-07
1.47804e-08
2.23105e-07
1.4221e-08
2.22223e-07
1.36881e-08
2.2133e-07
1.31794e-08
2.20431e-07
1.26927e-08
2.19528e-07
1.22258e-08
2.18624e-07
1.17765e-08
2.17722e-07
1.13425e-08
2.16824e-07
1.09213e-08
2.15933e-07
1.05108e-08
2.15051e-07
1.01072e-08
2.14181e-07
9.70925e-09
2.13323e-07
9.30982e-09
2.12482e-07
8.91084e-09
2.11659e-07
8.49712e-09
2.10858e-07
8.07848e-09
2.10081e-07
7.62347e-09
2.09333e-07
7.15571e-09
2.08615e-07
6.62011e-09
2.07941e-07
6.04598e-09
2.07305e-07
5.37611e-09
2.06729e-07
4.56076e-09
2.06218e-07
3.67454e-09
2.0575e-07
2.28578e-09
2.05409e-07
9.5853e-10
-1.37166e-09
2.04915e-07
2.30975e-07
6.8735e-08
2.33913e-07
7.98461e-08
2.3539e-07
5.76354e-08
2.36479e-07
4.91228e-08
2.37076e-07
4.43689e-08
2.37441e-07
3.9527e-08
2.3776e-07
3.58021e-08
2.38039e-07
3.31345e-08
2.38266e-07
3.09793e-08
2.38442e-07
2.91162e-08
2.38569e-07
2.74931e-08
2.38646e-07
2.60689e-08
2.3867e-07
2.48004e-08
2.38639e-07
2.36547e-08
2.38552e-07
2.26087e-08
2.3841e-07
2.16459e-08
2.38215e-07
2.07536e-08
2.37967e-07
1.99219e-08
2.3767e-07
1.91433e-08
2.37327e-07
1.84116e-08
2.3694e-07
1.77218e-08
2.36514e-07
1.70697e-08
2.36051e-07
1.64518e-08
2.35555e-07
1.58648e-08
2.3503e-07
1.5306e-08
2.34478e-07
1.47728e-08
2.33903e-07
1.4263e-08
2.33308e-07
1.37743e-08
2.32696e-07
1.33045e-08
2.3207e-07
1.28518e-08
2.31433e-07
1.24138e-08
2.30787e-07
1.19886e-08
2.30134e-07
1.15737e-08
2.29478e-07
1.1167e-08
2.2882e-07
1.07648e-08
2.28164e-07
1.03658e-08
2.27511e-07
9.96293e-09
2.26864e-07
9.55775e-09
2.26225e-07
9.13567e-09
2.25599e-07
8.70466e-09
2.24987e-07
8.23605e-09
2.24395e-07
7.74745e-09
2.23823e-07
7.1924e-09
2.23283e-07
6.58534e-09
2.22772e-07
5.88681e-09
2.22307e-07
5.02629e-09
2.21895e-07
4.08645e-09
2.21506e-07
2.67485e-09
2.21212e-07
1.25262e-09
-9.54434e-10
2.20795e-07
2.37601e-07
6.32584e-08
2.40579e-07
7.68686e-08
2.41999e-07
5.62153e-08
2.43095e-07
4.80263e-08
2.43729e-07
4.37357e-08
2.44107e-07
3.91489e-08
2.44432e-07
3.54772e-08
2.44724e-07
3.28423e-08
2.44973e-07
3.07298e-08
2.45186e-07
2.89035e-08
2.45368e-07
2.73113e-08
2.4552e-07
2.59168e-08
2.45641e-07
2.46793e-08
2.4573e-07
2.35658e-08
2.45785e-07
2.25533e-08
2.45806e-07
2.16248e-08
2.45793e-07
2.07674e-08
2.45744e-07
1.99709e-08
2.4566e-07
1.92272e-08
2.45542e-07
1.85297e-08
2.4539e-07
1.78733e-08
2.45207e-07
1.72534e-08
2.44992e-07
1.66662e-08
2.44748e-07
1.61085e-08
2.44477e-07
1.55773e-08
2.4418e-07
1.50699e-08
2.43859e-07
1.45839e-08
2.43517e-07
1.4117e-08
2.43154e-07
1.36672e-08
2.42773e-07
1.32322e-08
2.42377e-07
1.28101e-08
2.41967e-07
1.23987e-08
2.41545e-07
1.19954e-08
2.41114e-07
1.15984e-08
2.40675e-07
1.12037e-08
2.40231e-07
1.081e-08
2.39783e-07
1.04104e-08
2.39335e-07
1.00058e-08
2.38888e-07
9.58244e-09
2.38447e-07
9.14619e-09
2.38011e-07
8.67147e-09
2.37589e-07
8.16983e-09
2.37178e-07
7.60328e-09
2.36791e-07
6.97287e-09
2.36424e-07
6.25398e-09
2.36088e-07
5.36223e-09
2.35794e-07
4.38038e-09
2.35505e-07
2.96316e-09
2.35283e-07
1.47521e-09
-6.31084e-10
2.34959e-07
2.44437e-07
5.80781e-08
2.47453e-07
7.38525e-08
2.48818e-07
5.48505e-08
2.49917e-07
4.6927e-08
2.50589e-07
4.30639e-08
2.50984e-07
3.87541e-08
2.51313e-07
3.51476e-08
2.51611e-07
3.25443e-08
2.51869e-07
3.04724e-08
2.52092e-07
2.86797e-08
2.52291e-07
2.71121e-08
2.5247e-07
2.57387e-08
2.52628e-07
2.45213e-08
2.52766e-07
2.34277e-08
2.52884e-07
2.24352e-08
2.52981e-07
2.15272e-08
2.53058e-07
2.06907e-08
2.53113e-07
1.99156e-08
2.53147e-07
1.91935e-08
2.53159e-07
1.85181e-08
2.53148e-07
1.78837e-08
2.53116e-07
1.72859e-08
2.53061e-07
1.67206e-08
2.52985e-07
1.61844e-08
2.52888e-07
1.56742e-08
2.52771e-07
1.51872e-08
2.52634e-07
1.47208e-08
2.52479e-07
1.42726e-08
2.52305e-07
1.38403e-08
2.52116e-07
1.34218e-08
2.51911e-07
1.30149e-08
2.51692e-07
1.26174e-08
2.51461e-07
1.22267e-08
2.51219e-07
1.18407e-08
2.50967e-07
1.14554e-08
2.50708e-07
1.10695e-08
2.50442e-07
1.0676e-08
2.50173e-07
1.02752e-08
2.49901e-07
9.85424e-09
2.4963e-07
9.41683e-09
2.49361e-07
8.94056e-09
2.491e-07
8.43113e-09
2.48845e-07
7.85835e-09
2.48606e-07
7.21206e-09
2.48381e-07
6.4789e-09
2.48176e-07
5.56741e-09
2.48002e-07
4.554e-09
2.47821e-07
3.14394e-09
2.4768e-07
1.61592e-09
-4.07035e-10
2.47456e-07
2.51489e-07
5.31959e-08
2.54533e-07
7.0808e-08
2.55854e-07
5.35299e-08
2.56951e-07
4.58301e-08
2.5766e-07
4.23543e-08
2.58075e-07
3.83398e-08
2.5841e-07
3.4812e-08
2.58714e-07
3.22407e-08
2.58977e-07
3.02096e-08
2.59205e-07
2.84512e-08
2.5941e-07
2.69075e-08
2.59596e-07
2.55525e-08
2.59766e-07
2.43512e-08
2.59922e-07
2.32723e-08
2.60063e-07
2.22936e-08
2.60192e-07
2.13988e-08
2.60307e-07
2.05753e-08
2.6041e-07
1.9813e-08
2.60499e-07
1.91039e-08
2.60576e-07
1.84416e-08
2.60639e-07
1.78206e-08
2.60688e-07
1.72364e-08
2.60724e-07
1.66848e-08
2.60746e-07
1.61625e-08
2.60754e-07
1.56662e-08
2.60748e-07
1.5193e-08
2.60729e-07
1.47403e-08
2.60696e-07
1.43055e-08
2.6065e-07
1.38862e-08
2.60592e-07
1.34802e-08
2.60521e-07
1.30851e-08
2.6044e-07
1.26988e-08
2.60348e-07
1.23183e-08
2.60247e-07
1.19417e-08
2.60138e-07
1.15648e-08
2.60022e-07
1.11859e-08
2.59899e-07
1.07984e-08
2.59773e-07
1.04018e-08
2.59643e-07
9.98408e-09
2.59513e-07
9.54687e-09
2.59382e-07
9.07079e-09
2.59257e-07
8.55627e-09
2.59136e-07
7.97982e-09
2.59025e-07
7.32264e-09
2.58925e-07
6.57892e-09
2.58837e-07
5.6561e-09
2.58771e-07
4.6197e-09
2.5869e-07
3.22499e-09
2.58628e-07
1.67755e-09
-2.75394e-10
2.58497e-07
2.58767e-07
4.86122e-08
2.61829e-07
6.77457e-08
2.63116e-07
5.22426e-08
2.64206e-07
4.47408e-08
2.64951e-07
4.1609e-08
2.65387e-07
3.7904e-08
2.65729e-07
3.44694e-08
2.66039e-07
3.19312e-08
2.66307e-07
2.9941e-08
2.6654e-07
2.82186e-08
2.66748e-07
2.66996e-08
2.66937e-07
2.53629e-08
2.67112e-07
2.41769e-08
2.67273e-07
2.31113e-08
2.67422e-07
2.21442e-08
2.67561e-07
2.12596e-08
2.67691e-07
2.04455e-08
2.67812e-07
1.9692e-08
2.67925e-07
1.89913e-08
2.68029e-07
1.83371e-08
2.68126e-07
1.77241e-08
2.68214e-07
1.71479e-08
2.68294e-07
1.66046e-08
2.68366e-07
1.60906e-08
2.6843e-07
1.56027e-08
2.68485e-07
1.5138e-08
2.68532e-07
1.46937e-08
2.6857e-07
1.42673e-08
2.686e-07
1.38564e-08
2.68621e-07
1.34585e-08
2.68635e-07
1.30713e-08
2.68642e-07
1.26924e-08
2.68641e-07
1.23189e-08
2.68634e-07
1.19487e-08
2.68621e-07
1.15775e-08
2.68604e-07
1.12036e-08
2.68582e-07
1.08202e-08
2.68557e-07
1.04263e-08
2.6853e-07
1.00109e-08
2.68504e-07
9.57332e-09
2.68478e-07
9.09716e-09
2.68456e-07
8.57834e-09
2.68437e-07
7.99871e-09
2.68426e-07
7.33343e-09
2.68424e-07
6.58096e-09
2.68428e-07
5.65223e-09
2.68448e-07
4.59948e-09
2.68449e-07
3.22432e-09
2.68453e-07
1.67295e-09
-2.20401e-10
2.68398e-07
2.66279e-07
4.43258e-08
2.69348e-07
6.46761e-08
2.70613e-07
5.09779e-08
2.7169e-07
4.36632e-08
2.72468e-07
4.08313e-08
2.72927e-07
3.74451e-08
2.73278e-07
3.4119e-08
2.73593e-07
3.16156e-08
2.73868e-07
2.96663e-08
2.74105e-07
2.79815e-08
2.74316e-07
2.64886e-08
2.74508e-07
2.51709e-08
2.74684e-07
2.40004e-08
2.74848e-07
2.2948e-08
2.75e-07
2.1992e-08
2.75143e-07
2.11169e-08
2.75277e-07
2.03109e-08
2.75405e-07
1.95645e-08
2.75526e-07
1.88702e-08
2.75641e-07
1.82219e-08
2.75751e-07
1.76144e-08
2.75855e-07
1.70434e-08
2.75955e-07
1.65051e-08
2.76049e-07
1.59961e-08
2.76139e-07
1.55132e-08
2.76223e-07
1.50535e-08
2.76303e-07
1.46142e-08
2.76377e-07
1.41927e-08
2.76447e-07
1.37866e-08
2.76512e-07
1.33934e-08
2.76573e-07
1.30107e-08
2.76629e-07
1.2636e-08
2.76681e-07
1.22665e-08
2.7673e-07
1.18998e-08
2.76776e-07
1.15317e-08
2.7682e-07
1.11601e-08
2.76861e-07
1.07787e-08
2.76902e-07
1.03855e-08
2.76942e-07
9.97049e-09
2.76984e-07
9.5313e-09
2.77028e-07
9.0538e-09
2.77076e-07
8.53038e-09
2.77127e-07
7.94688e-09
2.77186e-07
7.27485e-09
2.77253e-07
6.51425e-09
2.77322e-07
5.58275e-09
2.77403e-07
4.51863e-09
2.77463e-07
3.1644e-09
2.77516e-07
1.61995e-09
-2.21803e-10
2.77517e-07
2.74033e-07
4.03336e-08
2.77099e-07
6.16103e-08
2.78352e-07
4.97255e-08
2.79414e-07
4.2601e-08
2.8022e-07
4.00248e-08
2.80704e-07
3.69614e-08
2.81063e-07
3.376e-08
2.81385e-07
3.1294e-08
2.81666e-07
2.93852e-08
2.81908e-07
2.77394e-08
2.82122e-07
2.62743e-08
2.82317e-07
2.49764e-08
2.82495e-07
2.38218e-08
2.8266e-07
2.27829e-08
2.82814e-07
2.18381e-08
2.82959e-07
2.09725e-08
2.83095e-07
2.01744e-08
2.83225e-07
1.94348e-08
2.83349e-07
1.87463e-08
2.83468e-07
1.8103e-08
2.83582e-07
1.74999e-08
2.83693e-07
1.69329e-08
2.83799e-07
1.63983e-08
2.83903e-07
1.58928e-08
2.84003e-07
1.54131e-08
2.841e-07
1.49565e-08
2.84194e-07
1.45202e-08
2.84285e-07
1.41016e-08
2.84373e-07
1.36981e-08
2.84459e-07
1.33075e-08
2.84543e-07
1.2927e-08
2.84625e-07
1.25544e-08
2.84704e-07
1.21866e-08
2.84783e-07
1.18212e-08
2.84861e-07
1.14541e-08
2.84938e-07
1.10828e-08
2.85015e-07
1.07014e-08
2.85094e-07
1.03071e-08
2.85173e-07
9.89087e-09
2.85256e-07
9.44866e-09
2.85341e-07
8.9684e-09
2.85432e-07
8.43979e-09
2.85527e-07
7.8514e-09
2.85629e-07
7.17319e-09
2.85739e-07
6.40468e-09
2.85849e-07
5.47206e-09
2.85967e-07
4.40047e-09
2.86065e-07
3.06689e-09
2.86148e-07
1.53662e-09
-2.59466e-10
2.86186e-07
2.8204e-07
3.66308e-08
2.85091e-07
5.85591e-08
2.86341e-07
4.8476e-08
2.87385e-07
4.15571e-08
2.88216e-07
3.91941e-08
2.88725e-07
3.64518e-08
2.89094e-07
3.33911e-08
2.89422e-07
3.09665e-08
2.89709e-07
2.90976e-08
2.89957e-07
2.7492e-08
2.90175e-07
2.60562e-08
2.90372e-07
2.4779e-08
2.90553e-07
2.36409e-08
2.9072e-07
2.26159e-08
2.90875e-07
2.16827e-08
2.91021e-07
2.08268e-08
2.91159e-07
2.00368e-08
2.91289e-07
1.9304e-08
2.91415e-07
1.86212e-08
2.91535e-07
1.79827e-08
2.91651e-07
1.73838e-08
2.91764e-07
1.68204e-08
2.91873e-07
1.62889e-08
2.9198e-07
1.57862e-08
2.92084e-07
1.53091e-08
2.92185e-07
1.48548e-08
2.92285e-07
1.44205e-08
2.92383e-07
1.40037e-08
2.92479e-07
1.36019e-08
2.92574e-07
1.32126e-08
2.92668e-07
1.28332e-08
2.92761e-07
1.24613e-08
2.92854e-07
1.20939e-08
2.92946e-07
1.17285e-08
2.93039e-07
1.1361e-08
2.93134e-07
1.09888e-08
2.93229e-07
1.0606e-08
2.93327e-07
1.02094e-08
2.93427e-07
9.79069e-09
2.93531e-07
9.34451e-09
2.93639e-07
8.86035e-09
2.93753e-07
8.32611e-09
2.93872e-07
7.73199e-09
2.93997e-07
7.04797e-09
2.9413e-07
6.27185e-09
2.94263e-07
5.33905e-09
2.944e-07
4.26328e-09
2.94518e-07
2.94942e-09
2.94616e-07
1.43812e-09
-3.16351e-10
2.94673e-07
2.90309e-07
3.3211e-08
2.93334e-07
5.55338e-08
2.9459e-07
4.72204e-08
2.95613e-07
4.05335e-08
2.96463e-07
3.8344e-08
2.97e-07
3.59152e-08
2.9738e-07
3.30111e-08
2.97713e-07
3.06332e-08
2.98007e-07
2.88035e-08
2.9826e-07
2.72389e-08
2.98482e-07
2.5834e-08
2.98683e-07
2.45785e-08
2.98866e-07
2.34576e-08
2.99035e-07
2.24468e-08
2.99192e-07
2.15257e-08
2.99339e-07
2.06797e-08
2.99478e-07
1.98981e-08
2.9961e-07
1.91722e-08
2.99736e-07
1.84952e-08
2.99857e-07
1.78615e-08
2.99974e-07
1.72667e-08
3.00088e-07
1.67069e-08
3.00198e-07
1.61785e-08
3.00306e-07
1.56784e-08
3.00411e-07
1.52036e-08
3.00515e-07
1.47513e-08
3.00617e-07
1.43187e-08
3.00717e-07
1.39034e-08
3.00816e-07
1.35027e-08
3.00915e-07
1.31142e-08
3.01013e-07
1.27353e-08
3.0111e-07
1.23635e-08
3.01208e-07
1.19959e-08
3.01307e-07
1.16298e-08
3.01407e-07
1.12613e-08
3.01508e-07
1.08873e-08
3.01612e-07
1.05025e-08
3.01719e-07
1.01029e-08
3.01828e-07
9.68092e-09
3.01943e-07
9.23027e-09
3.02061e-07
8.74153e-09
3.02186e-07
8.20154e-09
3.02317e-07
7.6013e-09
3.02453e-07
6.91188e-09
3.02596e-07
6.12881e-09
3.02738e-07
5.19652e-09
3.02882e-07
4.11953e-09
3.03007e-07
2.8245e-09
3.0311e-07
1.33544e-09
-3.79839e-10
3.03173e-07
2.98848e-07
3.0066e-08
3.01836e-07
5.25455e-08
3.03105e-07
4.59509e-08
3.04107e-07
3.95315e-08
3.04972e-07
3.74798e-08
3.05536e-07
3.5351e-08
3.05928e-07
3.26186e-08
3.06268e-07
3.0294e-08
3.06568e-07
2.85027e-08
3.06827e-07
2.69798e-08
3.07054e-07
2.56075e-08
3.07258e-07
2.43748e-08
3.07444e-07
2.32715e-08
3.07615e-07
2.22756e-08
3.07774e-07
2.13669e-08
3.07922e-07
2.05312e-08
3.08062e-07
1.97581e-08
3.08195e-07
1.90393e-08
3.08322e-07
1.83682e-08
3.08444e-07
1.77396e-08
3.08562e-07
1.71489e-08
3.08676e-07
1.65926e-08
3.08787e-07
1.60673e-08
3.08896e-07
1.55699e-08
3.09002e-07
1.50974e-08
3.09106e-07
1.4647e-08
3.09209e-07
1.4216e-08
3.0931e-07
1.3802e-08
3.09411e-07
1.34022e-08
3.0951e-07
1.30144e-08
3.0961e-07
1.26358e-08
3.09709e-07
1.22639e-08
3.0981e-07
1.18958e-08
3.09911e-07
1.15287e-08
3.10013e-07
1.11588e-08
3.10118e-07
1.07829e-08
3.10224e-07
1.03956e-08
3.10335e-07
9.99275e-09
3.10448e-07
9.56723e-09
3.10567e-07
9.11198e-09
3.1069e-07
8.61839e-09
3.10818e-07
8.07282e-09
3.10953e-07
7.46648e-09
3.11093e-07
6.77223e-09
3.11238e-07
5.98324e-09
3.11383e-07
5.05218e-09
3.11526e-07
3.97675e-09
3.1165e-07
2.70006e-09
3.1175e-07
1.23561e-09
-4.41567e-10
3.11812e-07
3.07667e-07
2.7186e-08
3.10607e-07
4.96056e-08
3.11898e-07
4.46606e-08
3.12877e-07
3.85516e-08
3.1375e-07
3.66067e-08
3.14342e-07
3.47592e-08
3.14749e-07
3.2212e-08
3.15094e-07
2.99487e-08
3.15401e-07
2.81955e-08
3.15667e-07
2.67144e-08
3.15898e-07
2.53763e-08
3.16105e-07
2.41676e-08
3.16294e-07
2.30826e-08
3.16468e-07
2.21019e-08
3.16629e-07
2.1206e-08
3.16779e-07
2.0381e-08
3.1692e-07
1.96167e-08
3.17054e-07
1.89052e-08
3.17182e-07
1.82402e-08
3.17305e-07
1.76167e-08
3.17424e-07
1.70303e-08
3.17539e-07
1.64777e-08
3.17651e-07
1.59555e-08
3.1776e-07
1.54608e-08
3.17867e-07
1.49906e-08
3.17971e-07
1.45421e-08
3.18075e-07
1.41128e-08
3.18177e-07
1.37e-08
3.18278e-07
1.33012e-08
3.18378e-07
1.2914e-08
3.18478e-07
1.25356e-08
3.18579e-07
1.21636e-08
3.1868e-07
1.17949e-08
3.18782e-07
1.14267e-08
3.18885e-07
1.10553e-08
3.18991e-07
1.06773e-08
3.19099e-07
1.02875e-08
3.1921e-07
9.88139e-09
3.19325e-07
9.45223e-09
3.19445e-07
8.99249e-09
3.19569e-07
8.49407e-09
3.19698e-07
7.94328e-09
3.19834e-07
7.33122e-09
3.19973e-07
6.63284e-09
3.20117e-07
5.83923e-09
3.20259e-07
4.91027e-09
3.20397e-07
3.83898e-09
3.20516e-07
2.58064e-09
3.20609e-07
1.14265e-09
-4.96414e-10
3.20664e-07
3.16777e-07
2.45598e-08
3.19658e-07
4.67249e-08
3.20975e-07
4.3344e-08
3.21933e-07
3.75934e-08
3.2281e-07
3.57299e-08
3.23428e-07
3.41407e-08
3.2385e-07
3.17898e-08
3.24202e-07
2.95968e-08
3.24516e-07
2.78818e-08
3.24788e-07
2.64425e-08
3.25024e-07
2.514e-08
3.25235e-07
2.39567e-08
3.25427e-07
2.28906e-08
3.25603e-07
2.19256e-08
3.25766e-07
2.10429e-08
3.25919e-07
2.02289e-08
3.26062e-07
1.94737e-08
3.26197e-07
1.87698e-08
3.26326e-07
1.8111e-08
3.2645e-07
1.74927e-08
3.2657e-07
1.69108e-08
3.26686e-07
1.63619e-08
3.26798e-07
1.58429e-08
3.26908e-07
1.53509e-08
3.27015e-07
1.48831e-08
3.27121e-07
1.44367e-08
3.27225e-07
1.4009e-08
3.27327e-07
1.35975e-08
3.27429e-07
1.31997e-08
3.2753e-07
1.28131e-08
3.2763e-07
1.24349e-08
3.27731e-07
1.20627e-08
3.27832e-07
1.16934e-08
3.27935e-07
1.13243e-08
3.28039e-07
1.09514e-08
3.28145e-07
1.05713e-08
3.28253e-07
1.0179e-08
3.28365e-07
9.76973e-09
3.2848e-07
9.337e-09
3.286e-07
8.87303e-09
3.28724e-07
8.36998e-09
3.28853e-07
7.81447e-09
3.28987e-07
7.19727e-09
3.29124e-07
6.49557e-09
3.29264e-07
5.69882e-09
3.29402e-07
4.77296e-09
3.29532e-07
3.70822e-09
3.29644e-07
2.46872e-09
3.29728e-07
1.05876e-09
-5.41402e-10
3.29773e-07
3.26188e-07
2.21748e-08
3.28998e-07
4.39146e-08
3.30345e-07
4.19969e-08
3.31283e-07
3.66556e-08
3.32159e-07
3.48539e-08
3.32803e-07
3.3497e-08
3.33242e-07
3.13505e-08
3.33601e-07
2.9238e-08
3.33921e-07
2.75617e-08
3.34199e-07
2.61638e-08
3.34441e-07
2.48982e-08
3.34656e-07
2.37416e-08
3.34852e-07
2.26953e-08
3.35031e-07
2.17464e-08
3.35196e-07
2.08774e-08
3.3535e-07
2.00748e-08
3.35495e-07
1.93289e-08
3.35632e-07
1.86327e-08
3.35763e-07
1.79805e-08
3.35888e-07
1.73676e-08
3.36008e-07
1.67902e-08
3.36125e-07
1.62452e-08
3.36239e-07
1.57295e-08
3.36349e-07
1.52403e-08
3.36458e-07
1.47749e-08
3.36564e-07
1.43305e-08
3.36668e-07
1.39046e-08
3.36771e-07
1.34945e-08
3.36873e-07
1.30977e-08
3.36975e-07
1.27116e-08
3.37076e-07
1.23338e-08
3.37177e-07