/*--------------------------------*- C++ -*----------------------------------*\
  =========                 |
  \\      /  F ield         | OpenFOAM: The Open Source CFD Toolbox
   \\    /   O peration     | Website:  https://openfoam.org
    \\  /    A nd           | Version:  7
     \\/     M anipulation  |
\*---------------------------------------------------------------------------*/
FoamFile
{
    version     2.0;
    format      ascii;
    class       volVectorField;
    location    "0.29";
    object      U;
}
// * * * * * * * * * * * * * * * * * * * * * * * * * * * * * * * * * * * * * //

dimensions      [0 1 -1 0 0 0 0];

internalField   nonuniform List<vector> 
70000
(
(0.553415 0.016978 0)
(0.251427 0.0034003 0)
(0.165946 0.000318856 0)
(0.132472 4.89306e-05 0)
(0.117377 4.39832e-05 0)
(0.107428 5.21479e-05 0)
(0.0994654 4.43458e-05 0)
(0.0930307 3.5265e-05 0)
(0.0877954 2.92218e-05 0)
(0.0834351 2.50775e-05 0)
(0.0797215 2.19084e-05 0)
(0.0765069 1.93663e-05 0)
(0.0736901 1.72918e-05 0)
(0.071197 1.55758e-05 0)
(0.0689714 1.41373e-05 0)
(0.0669699 1.29159e-05 0)
(0.0651585 1.1867e-05 0)
(0.06351 1.09566e-05 0)
(0.0620024 1.01587e-05 0)
(0.0606177 9.45303e-06 0)
(0.0593411 8.82348e-06 0)
(0.0581603 8.25702e-06 0)
(0.0570649 7.74283e-06 0)
(0.0560461 7.27208e-06 0)
(0.0550964 6.83681e-06 0)
(0.0542095 6.4308e-06 0)
(0.0533801 6.04727e-06 0)
(0.0526034 5.68207e-06 0)
(0.0518757 5.32777e-06 0)
(0.0511935 4.98277e-06 0)
(0.0505544 4.63618e-06 0)
(0.0499558 4.29136e-06 0)
(0.0493964 3.92863e-06 0)
(0.0488746 3.56122e-06 0)
(0.0483903 3.15345e-06 0)
(0.0479427 2.73227e-06 0)
(0.0475327 2.2455e-06 0)
(0.0471619 1.7145e-06 0)
(0.0468295 1.12251e-06 0)
(0.0465454 3.47715e-07 0)
(0.0462981 -3.08583e-07 0)
(0.0461241 -1.69552e-06 0)
(0.045971 -2.11369e-06 0)
(0.045959 -5.17628e-06 0)
(0.0459028 -4.28686e-06 0)
(0.0461663 -1.17395e-05 0)
(0.0461945 -5.8482e-06 0)
(0.046936 -2.55262e-05 0)
(0.047359 1.70313e-05 0)
(0.0446686 -0.00182519 0)
(0.884864 0.0434928 0)
(0.650163 0.020148 0)
(0.494017 0.00660367 0)
(0.403619 0.00275385 0)
(0.35493 0.00154713 0)
(0.323634 0.00113091 0)
(0.299753 0.00090854 0)
(0.280561 0.000743992 0)
(0.264863 0.000621337 0)
(0.251757 0.000530896 0)
(0.240591 0.000462251 0)
(0.230923 0.000408242 0)
(0.222447 0.000364614 0)
(0.21494 0.000328709 0)
(0.208235 0.000298719 0)
(0.202201 0.000273344 0)
(0.196736 0.000251628 0)
(0.191758 0.000232852 0)
(0.187203 0.000216471 0)
(0.183015 0.000202058 0)
(0.179151 0.000189281 0)
(0.175573 0.000177872 0)
(0.172249 0.000167616 0)
(0.169154 0.000158333 0)
(0.166265 0.000149875 0)
(0.163562 0.000142116 0)
(0.161028 0.000134947 0)
(0.158651 0.000128273 0)
(0.156416 0.000122003 0)
(0.154315 0.000116063 0)
(0.152338 0.000110364 0)
(0.150477 0.00010485 0)
(0.148728 9.94048e-05 0)
(0.147084 9.40072e-05 0)
(0.145543 8.84659e-05 0)
(0.144103 8.28301e-05 0)
(0.142763 7.675e-05 0)
(0.141526 7.04063e-05 0)
(0.140389 6.31851e-05 0)
(0.139373 5.54018e-05 0)
(0.138447 4.62265e-05 0)
(0.137704 3.56102e-05 0)
(0.137001 2.35524e-05 0)
(0.13665 6.88691e-06 0)
(0.136159 -7.99807e-06 0)
(0.136468 -4.05342e-05 0)
(0.136137 -5.16082e-05 0)
(0.137559 -0.0001603 0)
(0.138025 9.54651e-05 0)
(0.136449 -0.00325934 0)
(0.991208 0.0499546 0)
(0.890938 0.0305606 0)
(0.762534 0.0146081 0)
(0.65661 0.00796849 0)
(0.585534 0.0048776 0)
(0.536189 0.00347277 0)
(0.498317 0.00273678 0)
(0.467704 0.00224267 0)
(0.442405 0.00187912 0)
(0.421109 0.00160771 0)
(0.402869 0.00140053 0)
(0.387015 0.00123752 0)
(0.373073 0.00110594 0)
(0.360692 0.000997679 0)
(0.349608 0.000907238 0)
(0.339613 0.000830705 0)
(0.330545 0.000765206 0)
(0.322273 0.000708584 0)
(0.31469 0.000659195 0)
(0.307711 0.000615764 0)
(0.301262 0.000577288 0)
(0.295282 0.000542967 0)
(0.289721 0.000512154 0)
(0.284536 0.000484316 0)
(0.279688 0.000459013 0)
(0.275147 0.00043587 0)
(0.270885 0.000414567 0)
(0.266877 0.000394825 0)
(0.263104 0.000376389 0)
(0.259547 0.000359038 0)
(0.256192 0.000342537 0)
(0.253026 0.000326709 0)
(0.250038 0.00031128 0)
(0.247218 0.00029614 0)
(0.244562 0.000280856 0)
(0.242063 0.00026549 0)
(0.239719 0.000249203 0)
(0.237532 0.00023248 0)
(0.235494 0.000213578 0)
(0.233637 0.000193913 0)
(0.23191 0.000169973 0)
(0.230445 0.000144746 0)
(0.229034 0.000112137 0)
(0.228119 7.58788e-05 0)
(0.226995 3.07512e-05 0)
(0.226983 -3.36513e-05 0)
(0.226068 -8.21809e-05 0)
(0.227536 -0.000307546 0)
(0.227441 -1.67163e-05 0)
(0.228174 -0.00359266 0)
(1.01554 0.0489524 0)
(1.0065 0.035721 0)
(0.935923 0.020815 0)
(0.852084 0.0134943 0)
(0.782344 0.00919433 0)
(0.727227 0.00678026 0)
(0.682164 0.00538451 0)
(0.644423 0.00444364 0)
(0.612426 0.00374932 0)
(0.584977 0.00322381 0)
(0.561136 0.00281805 0)
(0.540197 0.00249667 0)
(0.521631 0.00223614 0)
(0.505034 0.00202105 0)
(0.490092 0.00184084 0)
(0.476556 0.00168798 0)
(0.464226 0.00155689 0)
(0.452939 0.00144338 0)
(0.442561 0.00134424 0)
(0.432983 0.00125697 0)
(0.42411 0.00117961 0)
(0.415865 0.00111057 0)
(0.408181 0.00104858 0)
(0.401002 0.000992596 0)
(0.394278 0.000941738 0)
(0.387966 0.000895276 0)
(0.382032 0.00085258 0)
(0.376441 0.000813102 0)
(0.371168 0.000776352 0)
(0.366187 0.000741894 0)
(0.361479 0.000709294 0)
(0.357023 0.000678196 0)
(0.352808 0.00064812 0)
(0.348817 0.00061882 0)
(0.345043 0.000589571 0)
(0.341477 0.000560417 0)
(0.338112 0.000529919 0)
(0.334951 0.000498957 0)
(0.331982 0.000464276 0)
(0.329238 0.000428949 0)
(0.326661 0.000385465 0)
(0.324399 0.00034196 0)
(0.322212 0.000282102 0)
(0.320601 0.000223 0)
(0.318767 0.000136171 0)
(0.318185 3.70224e-05 0)
(0.31663 -6.5262e-05 0)
(0.317689 -0.000398521 0)
(0.316882 -0.000191366 0)
(0.318622 -0.00356381 0)
(1.01435 0.0460966 0)
(1.04799 0.0373371 0)
(1.02459 0.0241809 0)
(0.974739 0.0175513 0)
(0.923579 0.0131033 0)
(0.876887 0.0102004 0)
(0.834757 0.00834101 0)
(0.79704 0.00701876 0)
(0.763509 0.00600837 0)
(0.733722 0.0052213 0)
(0.707164 0.00460001 0)
(0.683364 0.00410009 0)
(0.661923 0.00369009 0)
(0.642509 0.00334849 0)
(0.624844 0.00306017 0)
(0.6087 0.00281409 0)
(0.593883 0.00260199 0)
(0.580232 0.00241754 0)
(0.567611 0.00225586 0)
(0.555903 0.00211312 0)
(0.545011 0.00198625 0)
(0.53485 0.00187279 0)
(0.525347 0.00177075 0)
(0.516439 0.00167847 0)
(0.508072 0.00159457 0)
(0.500196 0.00151789 0)
(0.49277 0.00144743 0)
(0.485758 0.00138232 0)
(0.479128 0.00132179 0)
(0.47285 0.00126514 0)
(0.466901 0.0012117 0)
(0.461258 0.0011609 0)
(0.455904 0.00111201 0)
(0.450822 0.00106463 0)
(0.446 0.00101769 0)
(0.441426 0.000971209 0)
(0.437095 0.000923084 0)
(0.433003 0.000874607 0)
(0.429139 0.000820852 0)
(0.425533 0.000766752 0)
(0.422127 0.00070029 0)
(0.419066 0.000635469 0)
(0.416114 0.000544446 0)
(0.41376 0.000459214 0)
(0.411232 0.000326652 0)
(0.409945 0.000186603 0)
(0.4078 2.24726e-05 0)
(0.40815 -0.00040841 0)
(0.406804 -0.000343145 0)
(0.408263 -0.00345811 0)
(1.00941 0.0430461 0)
(1.05564 0.0370919 0)
(1.05869 0.025321 0)
(1.03635 0.0197543 0)
(1.00721 0.0157892 0)
(0.976228 0.012926 0)
(0.944738 0.0109554 0)
(0.913905 0.0094728 0)
(0.884586 0.0082821 0)
(0.857161 0.00731505 0)
(0.831706 0.00652617 0)
(0.808159 0.00587504 0)
(0.786397 0.00533026 0)
(0.766277 0.00486902 0)
(0.747652 0.00447456 0)
(0.730382 0.00413421 0)
(0.714336 0.00383815 0)
(0.699396 0.0035787 0)
(0.685457 0.00334977 0)
(0.672423 0.0031465 0)
(0.660211 0.00296495 0)
(0.648747 0.00280191 0)
(0.637965 0.00265474 0)
(0.627806 0.00252123 0)
(0.61822 0.00239954 0)
(0.609159 0.00228809 0)
(0.600583 0.00218552 0)
(0.592456 0.00209064 0)
(0.584744 0.00200238 0)
(0.577419 0.00191979 0)
(0.570456 0.00184196 0)
(0.563831 0.00176806 0)
(0.557527 0.00169716 0)
(0.551525 0.00162863 0)
(0.545812 0.0015611 0)
(0.540375 0.00149449 0)
(0.535207 0.00142608 0)
(0.530303 0.00135749 0)
(0.525653 0.00128219 0)
(0.521282 0.00120679 0)
(0.517139 0.00111508 0)
(0.51335 0.00102622 0)
(0.509711 0.000902192 0)
(0.506651 0.000787097 0)
(0.503505 0.000608343 0)
(0.501491 0.000421977 0)
(0.498849 0.000192855 0)
(0.498365 -0.000332932 0)
(0.496647 -0.000421205 0)
(0.497312 -0.00328374 0)
(1.00635 0.040178 0)
(1.05242 0.0361448 0)
(1.06607 0.0252435 0)
(1.05957 0.0205578 0)
(1.04696 0.0172143 0)
(1.03094 0.0146421 0)
(1.01208 0.012812 0)
(0.991427 0.0113869 0)
(0.970054 0.01019 0)
(0.948683 0.00917515 0)
(0.927759 0.00831631 0)
(0.907541 0.00758522 0)
(0.888176 0.00695741 0)
(0.869732 0.00641409 0)
(0.852229 0.00594073 0)
(0.835652 0.00552579 0)
(0.819969 0.00515995 0)
(0.805139 0.00483561 0)
(0.791112 0.00454655 0)
(0.77784 0.00428764 0)
(0.765275 0.00405462 0)
(0.753369 0.00384397 0)
(0.742077 0.00365269 0)
(0.731359 0.00347827 0)
(0.721175 0.00331857 0)
(0.71149 0.00317172 0)
(0.702272 0.00303612 0)
(0.69349 0.00291031 0)
(0.685118 0.00279303 0)
(0.67713 0.00268309 0)
(0.669505 0.00257937 0)
(0.662222 0.00248085 0)
(0.655264 0.00238638 0)
(0.648615 0.00229513 0)
(0.642265 0.00220545 0)
(0.636198 0.00211715 0)
(0.630411 0.00202694 0)
(0.624896 0.00193665 0)
(0.619647 0.00183843 0)
(0.614681 0.00174004 0)
(0.609962 0.00162198 0)
(0.605589 0.00150693 0)
(0.601406 0.00134969 0)
(0.597754 0.00120116 0)
(0.594115 0.000978117 0)
(0.591453 0.000739279 0)
(0.58842 0.000449114 0)
(0.587143 -0.0001704 0)
(0.585128 -0.000414777 0)
(0.584967 -0.00302974 0)
(1.00506 0.0375007 0)
(1.04763 0.0350461 0)
(1.06397 0.0246954 0)
(1.06421 0.0205878 0)
(1.06075 0.0177511 0)
(1.05487 0.0154812 0)
(1.04615 0.0138664 0)
(1.03499 0.0126064 0)
(1.02211 0.0115205 0)
(1.00812 0.010569 0)
(0.993467 0.00973804 0)
(0.978506 0.0090099 0)
(0.963501 0.00836774 0)
(0.948646 0.00779844 0)
(0.934076 0.00729169 0)
(0.919882 0.00683897 0)
(0.906122 0.00643307 0)
(0.892832 0.00606786 0)
(0.880027 0.00573808 0)
(0.867712 0.00543927 0)
(0.855881 0.00516757 0)
(0.844526 0.00491968 0)
(0.833632 0.00469274 0)
(0.823182 0.00448428 0)
(0.81316 0.00429214 0)
(0.803546 0.00411442 0)
(0.794324 0.00394943 0)
(0.785476 0.00379564 0)
(0.776984 0.00365168 0)
(0.768833 0.00351624 0)
(0.761008 0.00338809 0)
(0.753495 0.00326606 0)
(0.746281 0.00314884 0)
(0.739355 0.00303546 0)
(0.73271 0.00292406 0)
(0.726334 0.00281429 0)
(0.720226 0.00270244 0)
(0.71438 0.0025904 0)
(0.708793 0.00246932 0)
(0.703477 0.00234756 0)
(0.698411 0.00220345 0)
(0.693668 0.00206118 0)
(0.689138 0.00187187 0)
(0.68508 0.00168756 0)
(0.681117 0.00142324 0)
(0.67797 0.00112828 0)
(0.674674 0.000779935 0)
(0.67276 7.2021e-05 0)
(0.670501 -0.000326195 0)
(0.669646 -0.00270699 0)
(1.00451 0.0349647 0)
(1.0436 0.0339659 0)
(1.05995 0.024044 0)
(1.06226 0.0202976 0)
(1.06257 0.0178147 0)
(1.06192 0.0157591 0)
(1.05938 0.014318 0)
(1.05486 0.0132236 0)
(1.04868 0.0122799 0)
(1.04115 0.0114406 0)
(1.03254 0.0106942 0)
(1.02311 0.0100272 0)
(1.01309 0.00942658 0)
(1.00267 0.00888283 0)
(0.992024 0.00838899 0)
(0.981273 0.00793939 0)
(0.970522 0.00752917 0)
(0.959851 0.00715411 0)
(0.949322 0.00681044 0)
(0.938978 0.00649487 0)
(0.928852 0.00620444 0)
(0.918967 0.00593652 0)
(0.909338 0.00568877 0)
(0.899974 0.00545909 0)
(0.890881 0.00524561 0)
(0.88206 0.00504662 0)
(0.87351 0.00486059 0)
(0.865227 0.00468605 0)
(0.85721 0.0045217 0)
(0.849451 0.00436624 0)
(0.841947 0.00421842 0)
(0.834692 0.00407705 0)
(0.827681 0.00394073 0)
(0.82091 0.00380842 0)
(0.814375 0.00367809 0)
(0.808072 0.00354929 0)
(0.802002 0.00341803 0)
(0.796161 0.00328608 0)
(0.790555 0.00314402 0)
(0.78519 0.00300018 0)
(0.780058 0.0028319 0)
(0.775214 0.00266303 0)
(0.770585 0.00244418 0)
(0.766362 0.00222369 0)
(0.762286 0.00192177 0)
(0.758875 0.00157057 0)
(0.755475 0.00116602 0)
(0.753142 0.000380503 0)
(0.750729 -0.000165456 0)
(0.74936 -0.00233525 0)
(1.00412 0.0325339 0)
(1.04027 0.0329121 0)
(1.05618 0.0234089 0)
(1.0589 0.0199123 0)
(1.06029 0.0176846 0)
(1.06169 0.0157604 0)
(1.06209 0.0144204 0)
(1.06122 0.0134413 0)
(1.05919 0.0126135 0)
(1.0561 0.0118798 0)
(1.05205 0.0112266 0)
(1.04714 0.0106396 0)
(1.04149 0.010106 0)
(1.03524 0.0096169 0)
(1.0285 0.00916638 0)
(1.02138 0.00875017 0)
(1.01398 0.00836481 0)
(1.00638 0.00800737 0)
(0.998649 0.00767531 0)
(0.990854 0.0073664 0)
(0.98304 0.00707858 0)
(0.975249 0.00680999 0)
(0.967512 0.00655894 0)
(0.959857 0.00632384 0)
(0.952305 0.00610325 0)
(0.944872 0.0058958 0)
(0.937572 0.00570024 0)
(0.930415 0.00551533 0)
(0.923409 0.00533993 0)
(0.916559 0.00517285 0)
(0.909871 0.00501296 0)
(0.903347 0.00485907 0)
(0.896991 0.00470985 0)
(0.890805 0.0045642 0)
(0.884793 0.00442003 0)
(0.878954 0.00427682 0)
(0.873296 0.0041304 0)
(0.867819 0.00398238 0)
(0.862532 0.00382304 0)
(0.857443 0.00366029 0)
(0.852552 0.00347135 0)
(0.847901 0.00327836 0)
(0.843446 0.00303383 0)
(0.839327 0.00277904 0)
(0.835376 0.00244396 0)
(0.831953 0.0020397 0)
(0.828638 0.00158167 0)
(0.826128 0.000733426 0)
(0.823694 5.40644e-05 0)
(0.822019 -0.00193672 0)
(1.00374 0.0301995 0)
(1.03727 0.0318626 0)
(1.05285 0.0228048 0)
(1.05566 0.0195093 0)
(1.0572 0.0174932 0)
(1.05915 0.0156574 0)
(1.06062 0.014365 0)
(1.06133 0.0134492 0)
(1.06137 0.0126948 0)
(1.06075 0.0120352 0)
(1.05947 0.0114542 0)
(1.05756 0.0109363 0)
(1.05503 0.010467 0)
(1.05195 0.0100364 0)
(1.04836 0.00963797 0)
(1.04433 0.00926741 0)
(1.03993 0.00892142 0)
(1.0352 0.00859747 0)
(1.03021 0.00829351 0)
(1.025 0.00800784 0)
(1.01963 0.00773895 0)
(1.01412 0.0074855 0)
(1.00853 0.00724628 0)
(1.00287 0.00702011 0)
(0.997181 0.00680594 0)
(0.99148 0.00660273 0)
(0.985787 0.00640951 0)
(0.980122 0.00622527 0)
(0.974499 0.00604909 0)
(0.968931 0.00587994 0)
(0.963429 0.00571682 0)
(0.958005 0.00555865 0)
(0.952666 0.00540413 0)
(0.94742 0.0052522 0)
(0.942277 0.00510077 0)
(0.937241 0.00494926 0)
(0.932323 0.00479342 0)
(0.927529 0.00463463 0)
(0.922869 0.00446315 0)
(0.918355 0.00428613 0)
(0.913991 0.00408143 0)
(0.909814 0.0038684 0)
(0.905797 0.00360324 0)
(0.902045 0.00331808 0)
(0.898454 0.00295508 0)
(0.895268 0.00250377 0)
(0.892235 0.00199665 0)
(0.889791 0.00110082 0)
(0.887491 0.000307082 0)
(0.885723 -0.00153632 0)
(1.00337 0.0279638 0)
(1.03444 0.030805 0)
(1.04974 0.0222257 0)
(1.0527 0.0191036 0)
(1.0542 0.0172832 0)
(1.05621 0.0155253 0)
(1.05794 0.0142548 0)
(1.05918 0.0133697 0)
(1.06003 0.0126558 0)
(1.06052 0.0120394 0)
(1.06063 0.0115033 0)
(1.06035 0.011032 0)
(1.05967 0.0106097 0)
(1.0586 0.0102255 0)
(1.05713 0.00987174 0)
(1.0553 0.00954342 0)
(1.05313 0.00923678 0)
(1.05065 0.00894902 0)
(1.04789 0.00867798 0)
(1.04488 0.00842198 0)
(1.04165 0.00817963 0)
(1.03823 0.00794974 0)
(1.03464 0.00773127 0)
(1.03091 0.00752326 0)
(1.02707 0.00732483 0)
(1.02313 0.00713515 0)
(1.01912 0.00695341 0)
(1.01506 0.00677878 0)
(1.01096 0.00661048 0)
(1.00683 0.00644762 0)
(1.00269 0.00628928 0)
(0.998557 0.00613449 0)
(0.994437 0.00598201 0)
(0.990343 0.00583081 0)
(0.986285 0.0056788 0)
(0.982274 0.00552535 0)
(0.97832 0.00536618 0)
(0.974433 0.00520245 0)
(0.970624 0.00502451 0)
(0.966908 0.00483857 0)
(0.963292 0.00462363 0)
(0.959806 0.0043956 0)
(0.956441 0.00411552 0)
(0.953268 0.00380533 0)
(0.950234 0.00342012 0)
(0.947496 0.00292988 0)
(0.944917 0.00237945 0)
(0.94275 0.00145148 0)
(0.940735 0.000561774 0)
(0.939071 -0.00115992 0)
(1.00301 0.0258304 0)
(1.03171 0.0297352 0)
(1.04675 0.0216677 0)
(1.0499 0.0186949 0)
(1.05138 0.0170614 0)
(1.05335 0.0153861 0)
(1.05512 0.0141308 0)
(1.05648 0.0132618 0)
(1.05756 0.0125709 0)
(1.05843 0.0119782 0)
(1.05911 0.0114666 0)
(1.05957 0.0110218 0)
(1.05979 0.0106282 0)
(1.05978 0.010274 0)
(1.05952 0.00995102 0)
(1.05901 0.00965365 0)
(1.05826 0.00937761 0)
(1.05728 0.00911966 0)
(1.05607 0.00887733 0)
(1.05464 0.00864869 0)
(1.05302 0.00843219 0)
(1.05121 0.00822655 0)
(1.04923 0.00803068 0)
(1.0471 0.0078436 0)
(1.04483 0.00766446 0)
(1.04244 0.00749243 0)
(1.03993 0.00732676 0)
(1.03733 0.00716666 0)
(1.03465 0.00701138 0)
(1.0319 0.0068601 0)
(1.0291 0.00671193 0)
(1.02624 0.00656594 0)
(1.02336 0.00642089 0)
(1.02045 0.00627579 0)
(1.01754 0.0061285 0)
(1.01462 0.00597837 0)
(1.01171 0.00582105 0)
(1.00882 0.00565745 0)
(1.00597 0.00547818 0)
(1.00316 0.00528829 0)
(1.00041 0.00506833 0)
(0.997734 0.00483036 0)
(0.995142 0.0045408 0)
(0.992681 0.00421147 0)
(0.990328 0.00380964 0)
(0.988178 0.00328947 0)
(0.98617 0.0027025 0)
(0.984434 0.00175655 0)
(0.98282 0.000792785 0)
(0.981413 -0.000830259 0)
(1.00268 0.0238018 0)
(1.02912 0.0286516 0)
(1.04384 0.0211305 0)
(1.04721 0.0182831 0)
(1.04869 0.0168262 0)
(1.05063 0.0152425 0)
(1.05239 0.0140041 0)
(1.05376 0.0131465 0)
(1.05487 0.012472 0)
(1.05584 0.0118942 0)
(1.05669 0.0113962 0)
(1.05741 0.0109657 0)
(1.058 0.0105877 0)
(1.05846 0.0102504 0)
(1.05877 0.00994565 0)
(1.05894 0.00966742 0)
(1.05895 0.00941124 0)
(1.05882 0.00917359 0)
(1.05853 0.00895172 0)
(1.0581 0.0087435 0)
(1.05752 0.00854717 0)
(1.05679 0.00836129 0)
(1.05593 0.00818464 0)
(1.05495 0.00801613 0)
(1.05384 0.0078548 0)
(1.05261 0.00769976 0)
(1.05128 0.00755019 0)
(1.04985 0.00740525 0)
(1.04833 0.00726416 0)
(1.04673 0.00712606 0)
(1.04505 0.00699004 0)
(1.04331 0.00685515 0)
(1.04152 0.00672009 0)
(1.03968 0.00658386 0)
(1.03781 0.00644427 0)
(1.0359 0.00630055 0)
(1.03398 0.00614838 0)
(1.03205 0.0059883 0)
(1.03013 0.00581129 0)
(1.02821 0.0056211 0)
(1.02632 0.00540008 0)
(1.02447 0.00515629 0)
(1.02267 0.00486166 0)
(1.02096 0.00451861 0)
(1.01932 0.00410488 0)
(1.01781 0.00356342 0)
(1.01641 0.00294696 0)
(1.01519 0.00199502 0)
(1.01403 0.000978639 0)
(1.01298 -0.000564566 0)
(1.00238 0.0218797 0)
(1.02665 0.0275535 0)
(1.04101 0.0206137 0)
(1.0446 0.0178697 0)
(1.0461 0.0165762 0)
(1.04801 0.015093 0)
(1.04977 0.0138758 0)
(1.05113 0.0130287 0)
(1.05223 0.0123689 0)
(1.05321 0.0118035 0)
(1.05409 0.0113149 0)
(1.05488 0.010893 0)
(1.05558 0.0105238 0)
(1.0562 0.0101959 0)
(1.05673 0.0099011 0)
(1.05718 0.00963354 0)
(1.05755 0.00938871 0)
(1.05783 0.00916303 0)
(1.05801 0.00895367 0)
(1.05811 0.00875839 0)
(1.05811 0.00857533 0)
(1.05802 0.00840295 0)
(1.05784 0.00823991 0)
(1.05757 0.00808504 0)
(1.05721 0.00793726 0)
(1.05676 0.00779558 0)
(1.05623 0.00765909 0)
(1.05562 0.00752687 0)
(1.05493 0.00739806 0)
(1.05417 0.00727172 0)
(1.05335 0.00714688 0)
(1.05246 0.00702253 0)
(1.05152 0.00689729 0)
(1.05053 0.0067701 0)
(1.0495 0.00663867 0)
(1.04843 0.00650215 0)
(1.04733 0.00635619 0)
(1.04621 0.00620092 0)
(1.04508 0.00602779 0)
(1.04395 0.00583915 0)
(1.04282 0.00561927 0)
(1.04171 0.00537231 0)
(1.04063 0.00507538 0)
(1.0396 0.0047228 0)
(1.03862 0.00430057 0)
(1.03772 0.00374508 0)
(1.03691 0.00310564 0)
(1.03618 0.00215686 0)
(1.03549 0.00110644 0)
(1.03481 -0.000370322 0)
(1.0021 0.0200652 0)
(1.02431 0.0264426 0)
(1.03828 0.020115 0)
(1.04208 0.0174567 0)
(1.0436 0.0163115 0)
(1.04548 0.0149362 0)
(1.04724 0.0137454 0)
(1.0486 0.0129089 0)
(1.04969 0.0122637 0)
(1.05065 0.0117106 0)
(1.05152 0.0112305 0)
(1.05231 0.0108152 0)
(1.05304 0.0104522 0)
(1.05369 0.0101302 0)
(1.05429 0.00984124 0)
(1.05484 0.00957967 0)
(1.05534 0.00934107 0)
(1.05578 0.00912194 0)
(1.05617 0.00891948 0)
(1.05651 0.00873146 0)
(1.05679 0.00855604 0)
(1.05702 0.00839164 0)
(1.05719 0.00823691 0)
(1.05731 0.0080906 0)
(1.05737 0.00795159 0)
(1.05738 0.00781882 0)
(1.05732 0.0076913 0)
(1.05722 0.00756806 0)
(1.05706 0.00744813 0)
(1.05685 0.00733054 0)
(1.05659 0.00721419 0)
(1.05628 0.00709803 0)
(1.05593 0.0069806 0)
(1.05554 0.00686075 0)
(1.05511 0.00673612 0)
(1.05466 0.00660569 0)
(1.05417 0.00646517 0)
(1.05367 0.00631422 0)
(1.05315 0.00614481 0)
(1.05262 0.00595787 0)
(1.05209 0.00573961 0)
(1.05157 0.00549054 0)
(1.05107 0.00519237 0)
(1.0506 0.00483296 0)
(1.05017 0.00440411 0)
(1.04979 0.00383995 0)
(1.04946 0.00318301 0)
(1.04917 0.00224336 0)
(1.04888 0.00117432 0)
(1.04854 -0.000246579 0)
(1.00185 0.0183584 0)
(1.02211 0.025323 0)
(1.03565 0.0196308 0)
(1.03964 0.0170459 0)
(1.04119 0.0160328 0)
(1.04303 0.0147713 0)
(1.04479 0.0136123 0)
(1.04615 0.0127867 0)
(1.04724 0.0121563 0)
(1.04818 0.0116161 0)
(1.04904 0.0111447 0)
(1.04982 0.0107358 0)
(1.05054 0.0103782 0)
(1.05119 0.0100609 0)
(1.0518 0.00977626 0)
(1.05237 0.00951866 0)
(1.0529 0.00928385 0)
(1.05339 0.00906846 0)
(1.05385 0.00886979 0)
(1.05428 0.00868565 0)
(1.05467 0.00851428 0)
(1.05504 0.00835414 0)
(1.05537 0.0082039 0)
(1.05567 0.00806231 0)
(1.05594 0.00792824 0)
(1.05617 0.00780061 0)
(1.05637 0.00767838 0)
(1.05654 0.00756054 0)
(1.05667 0.00744608 0)
(1.05677 0.00733395 0)
(1.05685 0.00722302 0)
(1.05689 0.00711217 0)
(1.0569 0.00699984 0)
(1.05688 0.00688484 0)
(1.05684 0.00676474 0)
(1.05679 0.00663836 0)
(1.05671 0.00650148 0)
(1.05662 0.00635326 0)
(1.05652 0.00618626 0)
(1.05641 0.00600002 0)
(1.05631 0.00578256 0)
(1.05621 0.00553127 0)
(1.05613 0.00523159 0)
(1.05607 0.00486669 0)
(1.05605 0.00443189 0)
(1.05605 0.00386252 0)
(1.05608 0.00319235 0)
(1.05613 0.00226493 0)
(1.05615 0.00118942 0)
(1.05609 -0.00018464 0)
(1.00162 0.0167591 0)
(1.02005 0.0241991 0)
(1.03312 0.0191569 0)
(1.03729 0.0166388 0)
(1.03887 0.015741 0)
(1.04068 0.0145976 0)
(1.04244 0.0134764 0)
(1.0438 0.0126622 0)
(1.04487 0.0120464 0)
(1.04581 0.0115198 0)
(1.04666 0.0110576 0)
(1.04742 0.0106553 0)
(1.04812 0.0103031 0)
(1.04877 0.0099904 0)
(1.04937 0.00970962 0)
(1.04993 0.00945534 0)
(1.05046 0.00922343 0)
(1.05096 0.00901063 0)
(1.05143 0.00881434 0)
(1.05188 0.00863247 0)
(1.05231 0.0084633 0)
(1.05272 0.00830539 0)
(1.05311 0.00815743 0)
(1.05348 0.00801822 0)
(1.05383 0.00788664 0)
(1.05417 0.00776161 0)
(1.05448 0.00764208 0)
(1.05477 0.00752702 0)
(1.05505 0.00741538 0)
(1.05531 0.00730611 0)
(1.05555 0.007198 0)
(1.05577 0.00708991 0)
(1.05598 0.00698024 0)
(1.05617 0.00686771 0)
(1.05635 0.00674986 0)
(1.05653 0.00662534 0)
(1.05669 0.00649006 0)
(1.05685 0.00634269 0)
(1.057 0.00617636 0)
(1.05716 0.00598937 0)
(1.05732 0.00577132 0)
(1.0575 0.00551705 0)
(1.05769 0.00521486 0)
(1.0579 0.00484492 0)
(1.05813 0.00440407 0)
(1.05839 0.00383142 0)
(1.05867 0.0031513 0)
(1.05895 0.00223725 0)
(1.05918 0.00116351 0)
(1.05931 -0.000170521 0)
(1.00142 0.0152666 0)
(1.01812 0.0230748 0)
(1.03069 0.0186894 0)
(1.03503 0.016237 0)
(1.03664 0.0154375 0)
(1.03841 0.0144145 0)
(1.04016 0.0133372 0)
(1.04153 0.0125352 0)
(1.0426 0.011934 0)
(1.04353 0.0114215 0)
(1.04436 0.0109692 0)
(1.04512 0.0105738 0)
(1.0458 0.0102271 0)
(1.04644 0.00991911 0)
(1.04703 0.00964222 0)
(1.04758 0.00939115 0)
(1.0481 0.00916192 0)
(1.04859 0.00895137 0)
(1.04906 0.00875697 0)
(1.04951 0.00857673 0)
(1.04994 0.008409 0)
(1.05035 0.0082524 0)
(1.05076 0.00810568 0)
(1.05115 0.00796768 0)
(1.05152 0.00783729 0)
(1.05189 0.00771345 0)
(1.05224 0.00759511 0)
(1.05258 0.00748124 0)
(1.05292 0.00737078 0)
(1.05324 0.00726265 0)
(1.05356 0.00715562 0)
(1.05386 0.00704851 0)
(1.05416 0.00693969 0)
(1.05446 0.00682782 0)
(1.05475 0.00671044 0)
(1.05503 0.00658603 0)
(1.05532 0.00645065 0)
(1.05561 0.00630249 0)
(1.0559 0.00613526 0)
(1.0562 0.00594613 0)
(1.05651 0.00572609 0)
(1.05684 0.00546797 0)
(1.05719 0.00516213 0)
(1.05755 0.00478714 0)
(1.05794 0.00433997 0)
(1.05835 0.00376502 0)
(1.05877 0.00307748 0)
(1.05917 0.00217667 0)
(1.05952 0.00111032 0)
(1.05977 -0.000189274 0)
(1.00124 0.0138793 0)
(1.01633 0.0219542 0)
(1.02837 0.0182245 0)
(1.03286 0.0158416 0)
(1.03451 0.015124 0)
(1.03624 0.0142215 0)
(1.03798 0.0131944 0)
(1.03935 0.012406 0)
(1.04042 0.011819 0)
(1.04133 0.0113212 0)
(1.04216 0.0108793 0)
(1.0429 0.0104911 0)
(1.04358 0.0101502 0)
(1.0442 0.00984704 0)
(1.04478 0.00957416 0)
(1.04532 0.00932639 0)
(1.04582 0.00909985 0)
(1.04631 0.0088915 0)
(1.04676 0.00869889 0)
(1.0472 0.0085201 0)
(1.04763 0.00835357 0)
(1.04804 0.00819796 0)
(1.04844 0.00805207 0)
(1.04883 0.00791478 0)
(1.04921 0.00778501 0)
(1.04958 0.00766172 0)
(1.04994 0.00754384 0)
(1.05029 0.00743037 0)
(1.05064 0.0073202 0)
(1.05099 0.00721227 0)
(1.05132 0.00710532 0)
(1.05166 0.00699814 0)
(1.052 0.00688908 0)
(1.05233 0.00677674 0)
(1.05266 0.00665869 0)
(1.053 0.00653322 0)
(1.05334 0.00639656 0)
(1.05369 0.00624648 0)
(1.05404 0.00607718 0)
(1.05441 0.00588494 0)
(1.05479 0.00566179 0)
(1.05519 0.00539919 0)
(1.05561 0.00508878 0)
(1.05605 0.00470871 0)
(1.05651 0.00425509 0)
(1.05699 0.00367835 0)
(1.05747 0.00298559 0)
(1.05793 0.00209735 0)
(1.05834 0.0010421 0)
(1.05863 -0.000226879 0)
(1.00107 0.0125953 0)
(1.01467 0.0208413 0)
(1.02617 0.0177588 0)
(1.03077 0.0154535 0)
(1.03248 0.0148023 0)
(1.03417 0.0140181 0)
(1.03589 0.0130475 0)
(1.03726 0.0122745 0)
(1.03833 0.0117014 0)
(1.03923 0.0112185 0)
(1.04004 0.0107878 0)
(1.04078 0.0104072 0)
(1.04145 0.0100723 0)
(1.04206 0.00977413 0)
(1.04262 0.00950542 0)
(1.04315 0.00926105 0)
(1.04365 0.00903729 0)
(1.04412 0.00883119 0)
(1.04457 0.00864039 0)
(1.045 0.00846304 0)
(1.04541 0.00829766 0)
(1.04581 0.00814295 0)
(1.0462 0.00799778 0)
(1.04658 0.00786105 0)
(1.04696 0.0077317 0)
(1.04732 0.0076087 0)
(1.04768 0.007491 0)
(1.04803 0.00737757 0)
(1.04838 0.00726732 0)
(1.04872 0.00715915 0)
(1.04907 0.00705179 0)
(1.04941 0.00694402 0)
(1.04975 0.00683417 0)
(1.05009 0.00672076 0)
(1.05044 0.0066014 0)
(1.05079 0.00647422 0)
(1.05115 0.00633561 0)
(1.05152 0.00618296 0)
(1.05189 0.00601089 0)
(1.05228 0.00581497 0)
(1.05269 0.00558803 0)
(1.05312 0.00532064 0)
(1.05356 0.00500512 0)
(1.05402 0.00462007 0)
(1.05451 0.00416019 0)
(1.05501 0.00358206 0)
(1.05551 0.00288611 0)
(1.05598 0.00200974 0)
(1.05639 0.000968207 0)
(1.05669 -0.000272693 0)
(1.00093 0.011412 0)
(1.01314 0.0197402 0)
(1.02407 0.0172892 0)
(1.02877 0.0150733 0)
(1.03054 0.0144743 0)
(1.03219 0.0138041 0)
(1.03388 0.0128958 0)
(1.03526 0.0121406 0)
(1.03633 0.0115811 0)
(1.03722 0.0111135 0)
(1.03802 0.0106945 0)
(1.03875 0.010322 0)
(1.03941 0.00999326 0)
(1.04001 0.0097003 0)
(1.04056 0.00943591 0)
(1.04108 0.00919508 0)
(1.04157 0.00897419 0)
(1.04203 0.00877041 0)
(1.04247 0.00858147 0)
(1.04289 0.00840561 0)
(1.04329 0.00824139 0)
(1.04369 0.0080876 0)
(1.04407 0.00794313 0)
(1.04444 0.00780693 0)
(1.0448 0.00767795 0)
(1.04516 0.00755518 0)
(1.04551 0.00743756 0)
(1.04585 0.00732406 0)
(1.04619 0.00721357 0)
(1.04653 0.007105 0)
(1.04687 0.00699705 0)
(1.04721 0.00688846 0)
(1.04754 0.00677756 0)
(1.04789 0.00666282 0)
(1.04823 0.00654187 0)
(1.04858 0.00641268 0)
(1.04894 0.0062718 0)
(1.04931 0.00611627 0)
(1.04968 0.00594109 0)
(1.05008 0.00574128 0)
(1.05049 0.00551022 0)
(1.05091 0.00523801 0)
(1.05136 0.00491724 0)
(1.05182 0.00452748 0)
(1.0523 0.00406188 0)
(1.05279 0.0034828 0)
(1.05328 0.00278562 0)
(1.05373 0.0019207 0)
(1.05413 0.000894709 0)
(1.05441 -0.000319346 0)
(1.0008 0.010326 0)
(1.01174 0.018655 0)
(1.02209 0.0168131 0)
(1.02685 0.0147013 0)
(1.02869 0.0141421 0)
(1.0303 0.0135793 0)
(1.03197 0.0127388 0)
(1.03335 0.0120044 0)
(1.03441 0.0114581 0)
(1.0353 0.0110059 0)
(1.0361 0.0105993 0)
(1.03681 0.0102354 0)
(1.03746 0.00991305 0)
(1.03805 0.00962546 0)
(1.0386 0.00936555 0)
(1.03911 0.00912839 0)
(1.03958 0.00891049 0)
(1.04004 0.00870911 0)
(1.04046 0.0085221 0)
(1.04088 0.00834777 0)
(1.04127 0.00818476 0)
(1.04165 0.00803192 0)
(1.04203 0.00788817 0)
(1.04239 0.00775251 0)
(1.04274 0.00762391 0)
(1.04309 0.00750135 0)
(1.04343 0.00738379 0)
(1.04377 0.0072702 0)
(1.0441 0.00715944 0)
(1.04443 0.00705041 0)
(1.04476 0.00694181 0)
(1.04509 0.00683233 0)
(1.04542 0.00672031 0)
(1.04576 0.00660414 0)
(1.04609 0.00648148 0)
(1.04644 0.00635019 0)
(1.04679 0.0062069 0)
(1.04715 0.00604843 0)
(1.04752 0.00587002 0)
(1.0479 0.00566631 0)
(1.04831 0.00543106 0)
(1.04872 0.00515421 0)
(1.04916 0.00482833 0)
(1.04961 0.00443427 0)
(1.05007 0.00396377 0)
(1.05054 0.00338432 0)
(1.051 0.00268775 0)
(1.05143 0.00183424 0)
(1.05179 0.000825209 0)
(1.05204 -0.00036232 0)
(1.00069 0.00933366 0)
(1.01046 0.0175898 0)
(1.02021 0.016328 0)
(1.02502 0.0143374 0)
(1.02692 0.0138076 0)
(1.0285 0.013344 0)
(1.03014 0.0125758 0)
(1.03152 0.0118657 0)
(1.03259 0.0113326 0)
(1.03347 0.0108957 0)
(1.03426 0.0105021 0)
(1.03496 0.0101472 0)
(1.0356 0.00983158 0)
(1.03619 0.00954953 0)
(1.03673 0.00929427 0)
(1.03723 0.00906092 0)
(1.03769 0.0088461 0)
(1.03814 0.00864722 0)
(1.03856 0.00846221 0)
(1.03896 0.00828947 0)
(1.03935 0.00812771 0)
(1.03972 0.00797585 0)
(1.04008 0.00783286 0)
(1.04044 0.00769777 0)
(1.04078 0.00756956 0)
(1.04112 0.00744724 0)
(1.04146 0.00732976 0)
(1.04178 0.00721607 0)
(1.04211 0.00710505 0)
(1.04243 0.00699555 0)
(1.04275 0.00688628 0)
(1.04307 0.0067759 0)
(1.0434 0.00666274 0)
(1.04372 0.00654512 0)
(1.04405 0.00642075 0)
(1.04438 0.00628735 0)
(1.04473 0.00614165 0)
(1.04508 0.00598026 0)
(1.04544 0.00579862 0)
(1.04581 0.00559115 0)
(1.0462 0.00535179 0)
(1.0466 0.00507059 0)
(1.04702 0.00473993 0)
(1.04745 0.0043421 0)
(1.0479 0.00386767 0)
(1.04834 0.00328853 0)
(1.04877 0.00259435 0)
(1.04915 0.00175252 0)
(1.04948 0.000761725 0)
(1.04969 -0.000398994 0)
(1.0006 0.00843055 0)
(1.0093 0.0165487 0)
(1.01846 0.0158322 0)
(1.02328 0.0139814 0)
(1.02525 0.0134729 0)
(1.02679 0.0130986 0)
(1.0284 0.0124064 0)
(1.02978 0.0117242 0)
(1.03085 0.0112045 0)
(1.03173 0.0107827 0)
(1.0325 0.0104027 0)
(1.0332 0.0100573 0)
(1.03384 0.00974873 0)
(1.03441 0.0094724 0)
(1.03494 0.00922196 0)
(1.03544 0.00899258 0)
(1.0359 0.00878096 0)
(1.03633 0.00858466 0)
(1.03674 0.00840172 0)
(1.03714 0.00823063 0)
(1.03751 0.00807018 0)
(1.03788 0.00791934 0)
(1.03824 0.00777715 0)
(1.03858 0.00764265 0)
(1.03892 0.00751487 0)
(1.03925 0.0073928 0)
(1.03958 0.00727541 0)
(1.0399 0.00716165 0)
(1.04021 0.00705037 0)
(1.04053 0.00694044 0)
(1.04084 0.00683051 0)
(1.04115 0.00671924 0)
(1.04147 0.00660495 0)
(1.04179 0.00648591 0)
(1.04211 0.00635983 0)
(1.04243 0.00622435 0)
(1.04276 0.00607628 0)
(1.0431 0.00591206 0)
(1.04345 0.00572728 0)
(1.04382 0.00551622 0)
(1.04419 0.00527294 0)
(1.04458 0.00498773 0)
(1.04498 0.00465276 0)
(1.04539 0.00425175 0)
(1.04581 0.00377443 0)
(1.04622 0.0031964 0)
(1.04661 0.00250627 0)
(1.04697 0.00167668 0)
(1.04725 0.000705288 0)
(1.04742 -0.000427836 0)
(1.00051 0.00761193 0)
(1.00825 0.0155356 0)
(1.01681 0.0153244 0)
(1.02162 0.0136325 0)
(1.02366 0.0131395 0)
(1.02518 0.0128439 0)
(1.02675 0.0122298 0)
(1.02812 0.0115798 0)
(1.0292 0.011074 0)
(1.03007 0.010667 0)
(1.03084 0.0103009 0)
(1.03153 0.00996571 0)
(1.03216 0.0096644 0)