/*--------------------------------*- C++ -*----------------------------------*\
  =========                 |
  \\      /  F ield         | OpenFOAM: The Open Source CFD Toolbox
   \\    /   O peration     | Website:  https://openfoam.org
    \\  /    A nd           | Version:  7
     \\/     M anipulation  |
\*---------------------------------------------------------------------------*/
FoamFile
{
    version     2.0;
    format      ascii;
    class       volVectorField;
    location    "0.29";
    object      U_0;
}
// * * * * * * * * * * * * * * * * * * * * * * * * * * * * * * * * * * * * * //

dimensions      [0 1 -1 0 0 0 0];

internalField   nonuniform List<vector> 
70000
(
(0.553415 0.016978 0)
(0.251427 0.0034003 0)
(0.165946 0.000318856 0)
(0.132472 4.89306e-05 0)
(0.117377 4.39832e-05 0)
(0.107428 5.2148e-05 0)
(0.0994653 4.43458e-05 0)
(0.0930305 3.52651e-05 0)
(0.0877952 2.92219e-05 0)
(0.0834348 2.50776e-05 0)
(0.0797212 2.19085e-05 0)
(0.0765066 1.93664e-05 0)
(0.0736897 1.72919e-05 0)
(0.0711965 1.5576e-05 0)
(0.0689708 1.41375e-05 0)
(0.0669693 1.29162e-05 0)
(0.0651578 1.18673e-05 0)
(0.0635092 1.0957e-05 0)
(0.0620015 1.01591e-05 0)
(0.0606168 9.45354e-06 0)
(0.0593401 8.82406e-06 0)
(0.0581592 8.25769e-06 0)
(0.0570637 7.7436e-06 0)
(0.0560447 7.27296e-06 0)
(0.0550949 6.83782e-06 0)
(0.0542079 6.43195e-06 0)
(0.0533783 6.0486e-06 0)
(0.0526015 5.68358e-06 0)
(0.0518736 5.32951e-06 0)
(0.0511912 4.98476e-06 0)
(0.0505518 4.63847e-06 0)
(0.049953 4.29398e-06 0)
(0.0493933 3.93162e-06 0)
(0.0488712 3.56466e-06 0)
(0.0483865 3.15735e-06 0)
(0.0479386 2.73673e-06 0)
(0.0475281 2.25051e-06 0)
(0.0471568 1.72026e-06 0)
(0.0468239 1.12883e-06 0)
(0.0465391 3.55129e-07 0)
(0.0462912 -3.00846e-07 0)
(0.0461164 -1.68617e-06 0)
(0.0459623 -2.1045e-06 0)
(0.0459493 -5.16366e-06 0)
(0.0458921 -4.2744e-06 0)
(0.0461544 -1.1729e-05 0)
(0.0461812 -5.84695e-06 0)
(0.0469216 -2.55213e-05 0)
(0.0473429 1.69592e-05 0)
(0.0446537 -0.00182453 0)
(0.884864 0.0434928 0)
(0.650164 0.020148 0)
(0.494017 0.00660367 0)
(0.403619 0.00275386 0)
(0.354929 0.00154714 0)
(0.323634 0.00113092 0)
(0.299752 0.000908546 0)
(0.28056 0.000743998 0)
(0.264862 0.000621342 0)
(0.251756 0.000530902 0)
(0.24059 0.000462258 0)
(0.230921 0.00040825 0)
(0.222445 0.000364622 0)
(0.214939 0.000328718 0)
(0.208233 0.000298729 0)
(0.202199 0.000273355 0)
(0.196733 0.000251639 0)
(0.191756 0.000232864 0)
(0.1872 0.000216483 0)
(0.183012 0.000202072 0)
(0.179148 0.000189296 0)
(0.175569 0.000177889 0)
(0.172245 0.000167634 0)
(0.16915 0.000158353 0)
(0.16626 0.000149897 0)
(0.163557 0.000142141 0)
(0.161023 0.000134974 0)
(0.158645 0.000128303 0)
(0.15641 0.000122037 0)
(0.154308 0.000116101 0)
(0.15233 0.000110406 0)
(0.150469 0.000104898 0)
(0.148719 9.94593e-05 0)
(0.147074 9.4069e-05 0)
(0.145532 8.8536e-05 0)
(0.144091 8.29098e-05 0)
(0.14275 7.68406e-05 0)
(0.141512 7.05097e-05 0)
(0.140373 6.33026e-05 0)
(0.139355 5.55367e-05 0)
(0.138428 4.63788e-05 0)
(0.137682 3.57863e-05 0)
(0.136977 2.37482e-05 0)
(0.136623 7.11591e-06 0)
(0.136129 -7.76197e-06 0)
(0.136435 -4.02307e-05 0)
(0.136099 -5.13244e-05 0)
(0.137518 -0.000159922 0)
(0.137978 9.55748e-05 0)
(0.1364 -0.00325829 0)
(0.991208 0.0499546 0)
(0.890938 0.0305606 0)
(0.762534 0.0146081 0)
(0.65661 0.0079685 0)
(0.585534 0.00487761 0)
(0.536189 0.00347279 0)
(0.498316 0.0027368 0)
(0.467703 0.00224269 0)
(0.442403 0.00187914 0)
(0.421108 0.00160773 0)
(0.402867 0.00140055 0)
(0.387013 0.00123755 0)
(0.373071 0.00110597 0)
(0.36069 0.000997706 0)
(0.349605 0.000907267 0)
(0.33961 0.000830736 0)
(0.330541 0.00076524 0)
(0.322269 0.00070862 0)
(0.314686 0.000659233 0)
(0.307706 0.000615805 0)
(0.301256 0.000577333 0)
(0.295277 0.000543015 0)
(0.289715 0.000512206 0)
(0.284529 0.000484374 0)
(0.279681 0.000459076 0)
(0.275139 0.000435939 0)
(0.270876 0.000414644 0)
(0.266868 0.00039491 0)
(0.263094 0.000376484 0)
(0.259536 0.000359145 0)
(0.256181 0.000342656 0)
(0.253013 0.000326844 0)
(0.250024 0.000311431 0)
(0.247203 0.000296311 0)
(0.244546 0.00028105 0)
(0.242045 0.00026571 0)
(0.239699 0.000249453 0)
(0.237511 0.000232765 0)
(0.23547 0.000213904 0)
(0.23361 0.000194287 0)
(0.231881 0.000170397 0)
(0.230413 0.000145236 0)
(0.228998 0.000112689 0)
(0.228079 7.65235e-05 0)
(0.22695 3.14461e-05 0)
(0.226934 -3.2866e-05 0)
(0.226012 -8.13028e-05 0)
(0.227474 -0.000306408 0)
(0.22737 -1.58838e-05 0)
(0.228097 -0.00359129 0)
(1.01554 0.0489524 0)
(1.0065 0.035721 0)
(0.935923 0.020815 0)
(0.852084 0.0134943 0)
(0.782344 0.00919436 0)
(0.727227 0.00678029 0)
(0.682163 0.00538454 0)
(0.644422 0.00444367 0)
(0.612425 0.00374935 0)
(0.584975 0.00322385 0)
(0.561134 0.00281809 0)
(0.540195 0.00249671 0)
(0.521628 0.00223619 0)
(0.505031 0.0020211 0)
(0.490089 0.0018409 0)
(0.476552 0.00168804 0)
(0.464221 0.00155695 0)
(0.452934 0.00144345 0)
(0.442556 0.00134431 0)
(0.432977 0.00125705 0)
(0.424104 0.0011797 0)
(0.415858 0.00111066 0)
(0.408174 0.00104868 0)
(0.400994 0.000992705 0)
(0.394269 0.000941858 0)
(0.387957 0.000895407 0)
(0.382021 0.000852725 0)
(0.37643 0.000813263 0)
(0.371156 0.000776531 0)
(0.366174 0.000742093 0)
(0.361464 0.000709518 0)
(0.357008 0.000678447 0)
(0.352791 0.000648403 0)
(0.348798 0.000619139 0)
(0.345023 0.000589931 0)
(0.341454 0.000560825 0)
(0.338088 0.000530383 0)
(0.334925 0.000499486 0)
(0.331953 0.000464878 0)
(0.329206 0.000429639 0)
(0.326626 0.000386253 0)
(0.324359 0.000342869 0)
(0.322168 0.000283134 0)
(0.320552 0.000224206 0)
(0.318713 0.000137509 0)
(0.318125 3.85592e-05 0)
(0.316562 -6.35138e-05 0)
(0.317614 -0.000396388 0)
(0.316796 -0.000189485 0)
(0.318527 -0.0035617 0)
(1.01435 0.0460966 0)
(1.04799 0.0373371 0)
(1.02459 0.0241809 0)
(0.974739 0.0175513 0)
(0.923579 0.0131034 0)
(0.876886 0.0102005 0)
(0.834756 0.00834107 0)
(0.797039 0.00701882 0)
(0.763507 0.00600843 0)
(0.73372 0.00522136 0)
(0.707162 0.00460007 0)
(0.683362 0.00410016 0)
(0.66192 0.00369017 0)
(0.642506 0.00334858 0)
(0.624841 0.00306026 0)
(0.608696 0.00281419 0)
(0.593878 0.00260209 0)
(0.580227 0.00241765 0)
(0.567605 0.00225598 0)
(0.555897 0.00211324 0)
(0.545004 0.00198638 0)
(0.534843 0.00187294 0)
(0.525339 0.00177091 0)
(0.51643 0.00167864 0)
(0.508062 0.00159476 0)
(0.500185 0.00151809 0)
(0.492759 0.00144766 0)
(0.485746 0.00138257 0)
(0.479114 0.00132207 0)
(0.472835 0.00126545 0)
(0.466885 0.00121205 0)
(0.461241 0.00116128 0)
(0.455885 0.00111245 0)
(0.450801 0.00106512 0)
(0.445977 0.00101825 0)
(0.441402 0.000971837 0)
(0.437068 0.000923796 0)
(0.432974 0.000875418 0)
(0.429106 0.000821776 0)
(0.425497 0.00076781 0)
(0.422088 0.000701499 0)
(0.419022 0.000636863 0)
(0.416066 0.000546034 0)
(0.413707 0.000461071 0)
(0.411172 0.000328724 0)
(0.409879 0.000189099 0)
(0.407725 2.51777e-05 0)
(0.408067 -0.000405158 0)
(0.406711 -0.00033994 0)
(0.408158 -0.00345493 0)
(1.00941 0.0430461 0)
(1.05564 0.0370919 0)
(1.05869 0.025321 0)
(1.03635 0.0197544 0)
(1.00721 0.0157893 0)
(0.976228 0.012926 0)
(0.944737 0.0109555 0)
(0.913905 0.00947288 0)
(0.884585 0.00828218 0)
(0.857159 0.00731514 0)
(0.831705 0.00652626 0)
(0.808157 0.00587514 0)
(0.786394 0.00533037 0)
(0.766274 0.00486913 0)
(0.747649 0.00447469 0)
(0.730378 0.00413435 0)
(0.714332 0.0038383 0)
(0.699391 0.00357886 0)
(0.685451 0.00334994 0)
(0.672416 0.00314668 0)
(0.660204 0.00296514 0)
(0.648739 0.00280211 0)
(0.637956 0.00265496 0)
(0.627797 0.00252147 0)
(0.61821 0.00239981 0)
(0.609148 0.00228838 0)
(0.600571 0.00218584 0)
(0.592442 0.00209099 0)
(0.58473 0.00200277 0)
(0.577404 0.00192022 0)
(0.570439 0.00184244 0)
(0.563813 0.0017686 0)
(0.557508 0.00169777 0)
(0.551503 0.00162931 0)
(0.545789 0.00156187 0)
(0.540349 0.00149536 0)
(0.535179 0.00142706 0)
(0.530273 0.0013586 0)
(0.52562 0.00128347 0)
(0.521244 0.00120825 0)
(0.517098 0.00111674 0)
(0.513304 0.00102814 0)
(0.509661 0.000904383 0)
(0.506596 0.000789655 0)
(0.503444 0.000611215 0)
(0.501422 0.000425409 0)
(0.498772 0.000196561 0)
(0.498279 -0.000328464 0)
(0.496551 -0.000416579 0)
(0.497204 -0.00327925 0)
(1.00635 0.040178 0)
(1.05242 0.0361448 0)
(1.06607 0.0252435 0)
(1.05957 0.0205578 0)
(1.04696 0.0172144 0)
(1.03094 0.0146422 0)
(1.01208 0.0128121 0)
(0.991426 0.011387 0)
(0.970053 0.0101901 0)
(0.948682 0.00917527 0)
(0.927757 0.00831644 0)
(0.907539 0.00758535 0)
(0.888173 0.00695756 0)
(0.869729 0.00641424 0)
(0.852225 0.00594089 0)
(0.835648 0.00552597 0)
(0.819965 0.00516014 0)
(0.805134 0.00483582 0)
(0.791107 0.00454677 0)
(0.777834 0.00428787 0)
(0.765268 0.00405488 0)
(0.753361 0.00384424 0)
(0.742069 0.00365299 0)
(0.731349 0.00347859 0)
(0.721165 0.00331892 0)
(0.711479 0.0031721 0)
(0.70226 0.00303653 0)
(0.693477 0.00291077 0)
(0.685104 0.00279354 0)
(0.677114 0.00268365 0)
(0.669488 0.00258 0)
(0.662203 0.00248155 0)
(0.655244 0.00238716 0)
(0.648594 0.00229601 0)
(0.642241 0.00220644 0)
(0.636172 0.00211827 0)
(0.630382 0.00202821 0)
(0.624865 0.00193809 0)
(0.619613 0.00184007 0)
(0.614643 0.00174192 0)
(0.609921 0.00162413 0)
(0.605544 0.0015094 0)
(0.601355 0.0013525 0)
(0.597698 0.00120445 0)
(0.594053 0.000981823 0)
(0.591384 0.000743672 0)
(0.588343 0.000453955 0)
(0.587057 -0.000164649 0)
(0.585032 -0.000408724 0)
(0.584859 -0.00302378 0)
(1.00506 0.0375007 0)
(1.04763 0.0350461 0)
(1.06397 0.0246954 0)
(1.06421 0.0205879 0)
(1.06075 0.0177511 0)
(1.05487 0.0154813 0)
(1.04615 0.0138665 0)
(1.03499 0.0126066 0)
(1.02211 0.0115206 0)
(1.00812 0.0105691 0)
(0.993466 0.0097382 0)
(0.978504 0.00901007 0)
(0.963499 0.00836792 0)
(0.948643 0.00779863 0)
(0.934073 0.0072919 0)
(0.919878 0.00683919 0)
(0.906119 0.00643331 0)
(0.892828 0.00606811 0)
(0.880022 0.00573836 0)
(0.867706 0.00543957 0)
(0.855875 0.00516789 0)
(0.844519 0.00492002 0)
(0.833624 0.00469311 0)
(0.823173 0.00448468 0)
(0.81315 0.00429258 0)
(0.803536 0.00411489 0)
(0.794313 0.00394995 0)
(0.785464 0.00379621 0)
(0.776971 0.00365231 0)
(0.768818 0.00351694 0)
(0.760992 0.00338886 0)
(0.753477 0.00326692 0)
(0.746262 0.00314981 0)
(0.739334 0.00303655 0)
(0.732687 0.00292528 0)
(0.726309 0.00281566 0)
(0.720199 0.002704 0)
(0.714349 0.00259217 0)
(0.708759 0.00247134 0)
(0.70344 0.00234986 0)
(0.698371 0.00220608 0)
(0.693624 0.0020642 0)
(0.689089 0.00187533 0)
(0.685025 0.00169157 0)
(0.681057 0.00142779 0)
(0.677903 0.00113364 0)
(0.674599 0.000785914 0)
(0.672677 7.90049e-05 0)
(0.670408 -0.00031872 0)
(0.66954 -0.00269946 0)
(1.00451 0.0349647 0)
(1.0436 0.0339658 0)
(1.05995 0.024044 0)
(1.06226 0.0202976 0)
(1.06257 0.0178148 0)
(1.06192 0.0157592 0)
(1.05938 0.0143181 0)
(1.05486 0.0132238 0)
(1.04868 0.0122801 0)
(1.04114 0.0114407 0)
(1.03254 0.0106944 0)
(1.02311 0.0100274 0)
(1.01309 0.00942679 0)
(1.00267 0.00888306 0)
(0.992021 0.00838923 0)
(0.98127 0.00793965 0)
(0.970519 0.00752945 0)
(0.959847 0.00715441 0)
(0.949317 0.00681077 0)
(0.938973 0.00649522 0)
(0.928846 0.00620482 0)
(0.918961 0.00593693 0)
(0.909331 0.00568921 0)
(0.899967 0.00545957 0)
(0.890873 0.00524614 0)
(0.882051 0.00504719 0)
(0.873499 0.00486121 0)
(0.865216 0.00468674 0)
(0.857197 0.00452246 0)
(0.849437 0.00436707 0)
(0.841932 0.00421935 0)
(0.834675 0.00407808 0)
(0.827663 0.00394189 0)
(0.82089 0.00380971 0)
(0.814353 0.00367954 0)
(0.808048 0.00355093 0)
(0.801975 0.00341988 0)
(0.796133 0.00328818 0)
(0.790523 0.00314641 0)
(0.785155 0.00300291 0)
(0.78002 0.00283501 0)
(0.775172 0.00266661 0)
(0.770538 0.00244827 0)
(0.76631 0.00222843 0)
(0.762228 0.00192716 0)
(0.758811 0.00157688 0)
(0.755404 0.00117311 0)
(0.753062 0.000388653 0)
(0.75064 -0.00015664 0)
(0.74926 -0.00232607 0)
(1.00412 0.0325339 0)
(1.04027 0.0329121 0)
(1.05618 0.0234089 0)
(1.0589 0.0199124 0)
(1.06029 0.0176847 0)
(1.06169 0.0157605 0)
(1.06209 0.0144206 0)
(1.06122 0.0134415 0)
(1.05919 0.0126137 0)
(1.0561 0.01188 0)
(1.05205 0.0112268 0)
(1.04713 0.0106399 0)
(1.04149 0.0101063 0)
(1.03524 0.00961716 0)
(1.02849 0.00916666 0)
(1.02138 0.00875047 0)
(1.01397 0.00836513 0)
(1.00637 0.00800771 0)
(0.998646 0.00767569 0)
(0.99085 0.0073668 0)
(0.983036 0.00707901 0)
(0.975244 0.00681047 0)
(0.967506 0.00655946 0)
(0.959851 0.0063244 0)
(0.952298 0.00610386 0)
(0.944864 0.00589647 0)
(0.937563 0.00570097 0)
(0.930405 0.00551613 0)
(0.923397 0.00534081 0)
(0.916546 0.00517383 0)
(0.909857 0.00501404 0)
(0.903332 0.00486027 0)
(0.896975 0.00471119 0)
(0.890787 0.00456569 0)
(0.884773 0.00442172 0)
(0.878932 0.00427872 0)
(0.873272 0.00413254 0)
(0.867793 0.0039848 0)
(0.862502 0.00382579 0)
(0.857411 0.00366342 0)
(0.852516 0.00347493 0)
(0.847861 0.00328247 0)
(0.843402 0.00303853 0)
(0.839279 0.00278448 0)
(0.835322 0.00245016 0)
(0.831894 0.00204692 0)
(0.828572 0.00158982 0)
(0.826054 0.000742769 0)
(0.823612 6.43116e-05 0)
(0.821926 -0.00192592 0)
(1.00374 0.0301995 0)
(1.03727 0.0318626 0)
(1.05285 0.0228048 0)
(1.05566 0.0195094 0)
(1.0572 0.0174933 0)
(1.05915 0.0156575 0)
(1.06062 0.0143651 0)
(1.06133 0.0134493 0)
(1.06137 0.012695 0)
(1.06075 0.0120354 0)
(1.05947 0.0114544 0)
(1.05756 0.0109365 0)
(1.05503 0.0104673 0)
(1.05194 0.0100367 0)
(1.04836 0.00963828 0)
(1.04433 0.00926774 0)
(1.03992 0.00892177 0)
(1.0352 0.00859785 0)
(1.0302 0.00829393 0)
(1.025 0.00800829 0)
(1.01962 0.00773944 0)
(1.01412 0.00748604 0)
(1.00852 0.00724686 0)
(1.00287 0.00702075 0)
(0.997175 0.00680664 0)
(0.991472 0.00660349 0)
(0.985779 0.00641034 0)
(0.980113 0.00622619 0)
(0.974489 0.00605009 0)
(0.968919 0.00588105 0)
(0.963417 0.00571805 0)
(0.957991 0.00556001 0)
(0.952651 0.00540564 0)
(0.947404 0.00525389 0)
(0.942259 0.00510268 0)
(0.937221 0.0049514 0)
(0.932301 0.00479583 0)
(0.927505 0.00463736 0)
(0.922842 0.00446625 0)
(0.918326 0.00428966 0)
(0.913959 0.00408546 0)
(0.909778 0.00387302 0)
(0.905758 0.00360852 0)
(0.902001 0.00332418 0)
(0.898405 0.00296204 0)
(0.895214 0.00251186 0)
(0.892175 0.00200581 0)
(0.889723 0.0011113 0)
(0.887416 0.000318766 0)
(0.885639 -0.001524 0)
(1.00337 0.0279638 0)
(1.03444 0.030805 0)
(1.04974 0.0222257 0)
(1.0527 0.0191036 0)
(1.0542 0.0172833 0)
(1.05621 0.0155254 0)
(1.05794 0.0142549 0)
(1.05918 0.0133698 0)
(1.06003 0.012656 0)
(1.06052 0.0120396 0)
(1.06063 0.0115036 0)
(1.06035 0.0110322 0)
(1.05967 0.01061 0)
(1.05859 0.0102258 0)
(1.05713 0.00987208 0)
(1.0553 0.00954378 0)
(1.05313 0.00923717 0)
(1.05065 0.00894943 0)
(1.04789 0.00867843 0)
(1.04488 0.00842247 0)
(1.04165 0.00818017 0)
(1.03822 0.00795033 0)
(1.03463 0.00773191 0)
(1.03091 0.00752396 0)
(1.02706 0.0073256 0)
(1.02313 0.00713599 0)
(1.01912 0.00695433 0)
(1.01505 0.0067798 0)
(1.01095 0.0066116 0)
(1.00682 0.00644885 0)
(1.00268 0.00629065 0)
(0.998545 0.00613601 0)
(0.994424 0.0059837 0)
(0.990328 0.00583269 0)
(0.986269 0.00568091 0)
(0.982256 0.00552773 0)
(0.9783 0.00536886 0)
(0.974411 0.00520547 0)
(0.9706 0.00502794 0)
(0.966882 0.00484247 0)
(0.963263 0.00462808 0)
(0.959774 0.0044007 0)
(0.956405 0.00412134 0)
(0.953229 0.00381205 0)
(0.950191 0.00342778 0)
(0.947448 0.00293876 0)
(0.944863 0.00238953 0)
(0.942691 0.00146298 0)
(0.940669 0.000574644 0)
(0.938996 -0.00114613 0)
(1.00301 0.0258304 0)
(1.03171 0.0297352 0)
(1.04675 0.0216677 0)
(1.0499 0.0186949 0)
(1.05138 0.0170615 0)
(1.05335 0.0153862 0)
(1.05512 0.014131 0)
(1.05648 0.013262 0)
(1.05756 0.0125711 0)
(1.05843 0.0119784 0)
(1.05911 0.0114669 0)
(1.05957 0.0110221 0)
(1.05979 0.0106286 0)
(1.05978 0.0102743 0)
(1.05952 0.00995139 0)
(1.05901 0.00965404 0)
(1.05826 0.00937802 0)
(1.05728 0.00912011 0)
(1.05607 0.00887781 0)
(1.05464 0.00864921 0)
(1.05302 0.00843276 0)
(1.05121 0.00822718 0)
(1.04923 0.00803137 0)
(1.0471 0.00784436 0)
(1.04483 0.0076653 0)
(1.04243 0.00749335 0)
(1.03993 0.00732777 0)
(1.03733 0.00716777 0)
(1.03465 0.00701261 0)
(1.03189 0.00686145 0)
(1.02909 0.00671343 0)
(1.02623 0.0065676 0)
(1.02335 0.00642274 0)
(1.02044 0.00627785 0)
(1.01752 0.00613081 0)
(1.0146 0.00598096 0)
(1.01169 0.00582397 0)
(1.0088 0.00566075 0)
(1.00595 0.00548192 0)
(1.00314 0.00529253 0)
(1.00038 0.00507316 0)
(0.997706 0.00483588 0)
(0.995111 0.00454711 0)
(0.992647 0.00421874 0)
(0.99029 0.00381793 0)
(0.988136 0.00329905 0)
(0.986123 0.0027134 0)
(0.984383 0.00176896 0)
(0.982763 0.000806714 0)
(0.981348 -0.000815151 0)
(1.00268 0.0238018 0)
(1.02912 0.0286516 0)
(1.04384 0.0211305 0)
(1.04721 0.0182831 0)
(1.04869 0.0168262 0)
(1.05063 0.0152426 0)
(1.05239 0.0140042 0)
(1.05376 0.0131467 0)
(1.05487 0.0124722 0)
(1.05584 0.0118944 0)
(1.05669 0.0113965 0)
(1.05741 0.010966 0)
(1.058 0.010588 0)
(1.05846 0.0102508 0)
(1.05877 0.00994604 0)
(1.05893 0.00966784 0)
(1.05895 0.00941168 0)
(1.05882 0.00917405 0)
(1.05853 0.00895223 0)
(1.05809 0.00874405 0)
(1.05751 0.00854777 0)
(1.05679 0.00836195 0)
(1.05593 0.00818537 0)
(1.05494 0.00801694 0)
(1.05383 0.0078557 0)
(1.05261 0.00770075 0)
(1.05127 0.00755127 0)
(1.04984 0.00740645 0)
(1.04832 0.00726548 0)
(1.04672 0.00712752 0)
(1.04504 0.00699166 0)
(1.04331 0.00685694 0)
(1.04151 0.00672209 0)
(1.03967 0.00658609 0)
(1.0378 0.00644675 0)
(1.03589 0.00630334 0)
(1.03397 0.00615152 0)
(1.03204 0.00599184 0)
(1.03011 0.00581529 0)
(1.02819 0.00562564 0)
(1.0263 0.00540525 0)
(1.02445 0.0051622 0)
(1.02265 0.00486841 0)
(1.02093 0.00452636 0)
(1.01929 0.00411373 0)
(1.01777 0.00357361 0)
(1.01637 0.00295857 0)
(1.01514 0.00200822 0)
(1.01398 0.00099349 0)
(1.01292 -0.000548323 0)
(1.00238 0.0218797 0)
(1.02665 0.0275535 0)
(1.04101 0.0206137 0)
(1.04461 0.0178697 0)
(1.0461 0.0165763 0)
(1.04801 0.0150931 0)
(1.04977 0.013876 0)
(1.05113 0.0130289 0)
(1.05223 0.0123692 0)
(1.05321 0.0118038 0)
(1.05409 0.0113153 0)
(1.05488 0.0108933 0)
(1.05558 0.0105242 0)
(1.0562 0.0101963 0)
(1.05673 0.00990152 0)
(1.05718 0.00963398 0)
(1.05755 0.00938917 0)
(1.05782 0.00916352 0)
(1.05801 0.0089542 0)
(1.05811 0.00875896 0)
(1.05811 0.00857596 0)
(1.05802 0.00840364 0)
(1.05784 0.00824069 0)
(1.05757 0.00808589 0)
(1.0572 0.0079382 0)
(1.05676 0.00779662 0)
(1.05622 0.00766024 0)
(1.05561 0.00752814 0)
(1.05492 0.00739946 0)
(1.05417 0.00727328 0)
(1.05334 0.0071486 0)
(1.05245 0.00702444 0)
(1.05151 0.00689941 0)
(1.05052 0.00677247 0)
(1.04949 0.00664132 0)
(1.04842 0.00650511 0)
(1.04732 0.00635952 0)
(1.0462 0.00620468 0)
(1.04507 0.00603204 0)
(1.04393 0.00584396 0)
(1.0428 0.00562475 0)
(1.04169 0.00537856 0)
(1.04061 0.0050825 0)
(1.03957 0.00473098 0)
(1.03859 0.0043099 0)
(1.03769 0.0037558 0)
(1.03687 0.00311785 0)
(1.03614 0.00217073 0)
(1.03544 0.00112208 0)
(1.03476 -0.000353049 0)
(1.0021 0.0200652 0)
(1.02431 0.0264425 0)
(1.03828 0.020115 0)
(1.04208 0.0174567 0)
(1.0436 0.0163116 0)
(1.04548 0.0149363 0)
(1.04724 0.0137455 0)
(1.0486 0.0129091 0)
(1.04969 0.012264 0)
(1.05065 0.0117109 0)
(1.05152 0.0112308 0)
(1.05231 0.0108156 0)
(1.05303 0.0104526 0)
(1.05369 0.0101306 0)
(1.05429 0.00984169 0)
(1.05484 0.00958014 0)
(1.05533 0.00934156 0)
(1.05578 0.00912245 0)
(1.05617 0.00892003 0)
(1.0565 0.00873206 0)
(1.05679 0.00855669 0)
(1.05702 0.00839237 0)
(1.05719 0.00823771 0)
(1.05731 0.00809149 0)
(1.05737 0.00795258 0)
(1.05737 0.00781992 0)
(1.05732 0.00769252 0)
(1.05721 0.0075694 0)
(1.05705 0.00744962 0)
(1.05684 0.00733218 0)
(1.05658 0.00721601 0)
(1.05627 0.00710005 0)
(1.05592 0.00698284 0)
(1.05553 0.00686325 0)
(1.0551 0.00673891 0)
(1.05464 0.00660882 0)
(1.05416 0.00646869 0)
(1.05365 0.00631818 0)
(1.05313 0.00614928 0)
(1.0526 0.00596293 0)
(1.05207 0.00574535 0)
(1.05155 0.00549709 0)
(1.05105 0.00519983 0)
(1.05058 0.0048415 0)
(1.05014 0.00441385 0)
(1.04976 0.00385113 0)
(1.04943 0.00319573 0)
(1.04914 0.00225781 0)
(1.04884 0.00119062 0)
(1.0485 -0.000228395 0)
(1.00185 0.0183584 0)
(1.02211 0.025323 0)
(1.03565 0.0196308 0)
(1.03964 0.0170459 0)
(1.04119 0.0160328 0)
(1.04303 0.0147714 0)
(1.04479 0.0136125 0)
(1.04615 0.0127869 0)
(1.04724 0.0121566 0)
(1.04818 0.0116164 0)
(1.04904 0.011145 0)
(1.04982 0.0107362 0)
(1.05054 0.0103786 0)
(1.05119 0.0100614 0)
(1.0518 0.00977674 0)
(1.05237 0.00951915 0)
(1.0529 0.00928437 0)
(1.05339 0.009069 0)
(1.05385 0.00887036 0)
(1.05428 0.00868627 0)
(1.05467 0.00851496 0)
(1.05503 0.0083549 0)
(1.05537 0.00820473 0)
(1.05567 0.00806324 0)
(1.05593 0.00792928 0)
(1.05617 0.00780176 0)
(1.05637 0.00767965 0)
(1.05653 0.00756195 0)
(1.05667 0.00744764 0)
(1.05677 0.00733568 0)
(1.05684 0.00722493 0)
(1.05688 0.00711429 0)
(1.05689 0.0070022 0)
(1.05687 0.00688747 0)
(1.05684 0.00676767 0)
(1.05677 0.00664164 0)
(1.0567 0.00650516 0)
(1.0566 0.00635739 0)
(1.0565 0.00619092 0)
(1.0564 0.0060053 0)
(1.05629 0.00578854 0)
(1.05619 0.00553808 0)
(1.05611 0.00523934 0)
(1.05605 0.00487556 0)
(1.05602 0.00444199 0)
(1.05602 0.00387408 0)
(1.05606 0.00320551 0)
(1.0561 0.00227987 0)
(1.05612 0.0012063 0)
(1.05605 -0.000165697 0)
(1.00162 0.0167591 0)
(1.02005 0.0241991 0)
(1.03312 0.0191569 0)
(1.03729 0.0166389 0)
(1.03887 0.015741 0)
(1.04068 0.0145977 0)
(1.04244 0.0134766 0)
(1.0438 0.0126624 0)
(1.04487 0.0120467 0)
(1.04581 0.0115201 0)
(1.04665 0.011058 0)
(1.04742 0.0106557 0)
(1.04812 0.0103035 0)
(1.04877 0.00999088 0)
(1.04937 0.00971012 0)
(1.04993 0.00945586 0)
(1.05046 0.00922397 0)
(1.05096 0.00901119 0)
(1.05143 0.00881494 0)
(1.05188 0.00863311 0)
(1.05231 0.00846401 0)
(1.05272 0.00830617 0)
(1.05311 0.0081583 0)
(1.05348 0.00801919 0)
(1.05383 0.00788772 0)
(1.05416 0.00776281 0)
(1.05447 0.00764341 0)
(1.05477 0.00752849 0)
(1.05504 0.00741701 0)
(1.0553 0.00730791 0)
(1.05554 0.0072 0)
(1.05576 0.00709213 0)
(1.05597 0.00698271 0)
(1.05616 0.00687045 0)
(1.05635 0.00675292 0)
(1.05652 0.00662876 0)
(1.05668 0.00649389 0)
(1.05683 0.006347 0)
(1.05699 0.00618122 0)
(1.05714 0.00599485 0)
(1.05731 0.00577753 0)
(1.05748 0.0055241 0)
(1.05767 0.00522288 0)
(1.05788 0.00485406 0)
(1.05811 0.00441449 0)
(1.05837 0.00384332 0)
(1.05865 0.00316484 0)
(1.05892 0.00225261 0)
(1.05915 0.00118089 0)
(1.05928 -0.000150909 0)
(1.00142 0.0152665 0)
(1.01812 0.0230748 0)
(1.03069 0.0186894 0)
(1.03503 0.016237 0)
(1.03664 0.0154376 0)
(1.03842 0.0144146 0)
(1.04016 0.0133374 0)
(1.04153 0.0125355 0)
(1.0426 0.0119343 0)
(1.04353 0.0114219 0)
(1.04436 0.0109696 0)
(1.04512 0.0105742 0)
(1.0458 0.0102276 0)
(1.04644 0.00991961 0)
(1.04703 0.00964274 0)
(1.04758 0.00939169 0)
(1.04809 0.00916248 0)
(1.04859 0.00895195 0)
(1.04905 0.00875759 0)
(1.0495 0.00857739 0)
(1.04993 0.00840974 0)
(1.05035 0.00825322 0)
(1.05075 0.00810659 0)
(1.05114 0.00796868 0)
(1.05152 0.00783841 0)
(1.05188 0.0077147 0)
(1.05224 0.0075965 0)
(1.05258 0.00748278 0)
(1.05291 0.00737248 0)
(1.05324 0.00726453 0)
(1.05355 0.0071577 0)
(1.05386 0.00705082 0)
(1.05415 0.00694226 0)
(1.05445 0.00683068 0)
(1.05474 0.00671363 0)
(1.05502 0.00658959 0)
(1.05531 0.00645463 0)
(1.0556 0.00630696 0)
(1.05589 0.00614029 0)
(1.05619 0.00595181 0)
(1.0565 0.0057325 0)
(1.05682 0.00547525 0)
(1.05717 0.00517039 0)
(1.05753 0.00479656 0)
(1.05792 0.00435068 0)
(1.05832 0.00377723 0)
(1.05874 0.00309136 0)
(1.05914 0.00219242 0)
(1.05949 0.00112815 0)
(1.05974 -0.000169084 0)
(1.00124 0.0138793 0)
(1.01633 0.0219542 0)
(1.02837 0.0182245 0)
(1.03286 0.0158416 0)
(1.03451 0.0151241 0)
(1.03624 0.0142216 0)
(1.03798 0.0131946 0)
(1.03935 0.0124063 0)
(1.04042 0.0118193 0)
(1.04133 0.0113215 0)
(1.04216 0.0108797 0)
(1.0429 0.0104916 0)
(1.04358 0.0101507 0)
(1.0442 0.00984757 0)
(1.04478 0.00957472 0)
(1.04532 0.00932696 0)
(1.04582 0.00910044 0)
(1.0463 0.00889211 0)
(1.04676 0.00869953 0)
(1.0472 0.00852079 0)
(1.04763 0.00835433 0)
(1.04804 0.0081988 0)
(1.04844 0.00805301 0)
(1.04882 0.00791583 0)
(1.0492 0.00778618 0)
(1.04957 0.00766302 0)
(1.04993 0.00754529 0)
(1.05029 0.00743197 0)
(1.05064 0.00732198 0)
(1.05098 0.00721423 0)
(1.05132 0.00710749 0)
(1.05165 0.00700055 0)
(1.05199 0.00689176 0)
(1.05232 0.00677972 0)
(1.05265 0.006662 0)
(1.05299 0.00653692 0)
(1.05333 0.0064007 0)
(1.05368 0.00625111 0)
(1.05403 0.00608239 0)
(1.0544 0.00589081 0)
(1.05478 0.00566841 0)
(1.05517 0.00540669 0)
(1.05559 0.00509728 0)
(1.05603 0.00471838 0)
(1.05649 0.00426607 0)
(1.05697 0.00369084 0)
(1.05745 0.00299979 0)
(1.05791 0.00211345 0)
(1.05831 0.00106034 0)
(1.05861 -0.000206166 0)
(1.00107 0.0125953 0)
(1.01467 0.0208412 0)
(1.02617 0.0177588 0)
(1.03077 0.0154535 0)
(1.03248 0.0148023 0)
(1.03417 0.0140183 0)
(1.03589 0.0130477 0)
(1.03726 0.0122747 0)
(1.03833 0.0117017 0)
(1.03923 0.0112189 0)
(1.04004 0.0107882 0)
(1.04078 0.0104077 0)
(1.04145 0.0100728 0)
(1.04206 0.00977469 0)
(1.04262 0.009506 0)
(1.04315 0.00926165 0)
(1.04365 0.00903791 0)
(1.04412 0.00883182 0)
(1.04457 0.00864106 0)
(1.045 0.00846376 0)
(1.04541 0.00829844 0)
(1.04581 0.00814382 0)
(1.0462 0.00799875 0)
(1.04658 0.00786213 0)
(1.04695 0.00773292 0)
(1.04732 0.00761005 0)
(1.04767 0.00749251 0)
(1.04803 0.00737924 0)
(1.04837 0.00726917 0)
(1.04872 0.00716119 0)
(1.04906 0.00705406 0)
(1.0494 0.00694653 0)
(1.04974 0.00683695 0)
(1.05009 0.00672385 0)
(1.05043 0.00660484 0)
(1.05078 0.00647806 0)
(1.05114 0.0063399 0)
(1.0515 0.00618775 0)
(1.05188 0.00601627 0)
(1.05227 0.00582102 0)
(1.05268 0.00559485 0)
(1.0531 0.00532836 0)
(1.05354 0.00501386 0)
(1.05401 0.00462998 0)
(1.05449 0.00417143 0)
(1.05499 0.00359483 0)
(1.05548 0.00290061 0)
(1.05595 0.00202617 0)
(1.05637 0.000986835 0)
(1.05667 -0.000251503 0)
(1.00093 0.011412 0)
(1.01314 0.0197401 0)
(1.02407 0.0172892 0)
(1.02877 0.0150733 0)
(1.03054 0.0144743 0)
(1.03219 0.0138042 0)
(1.03388 0.012896 0)
(1.03526 0.0121409 0)
(1.03633 0.0115814 0)
(1.03722 0.0111139 0)
(1.03802 0.010695 0)
(1.03875 0.0103225 0)
(1.03941 0.00999381 0)
(1.04001 0.00970089 0)
(1.04056 0.00943652 0)
(1.04108 0.00919571 0)
(1.04157 0.00897483 0)
(1.04203 0.00877107 0)
(1.04247 0.00858217 0)
(1.04289 0.00840636 0)
(1.04329 0.00824221 0)
(1.04368 0.0080885 0)
(1.04406 0.00794414 0)
(1.04443 0.00780806 0)
(1.0448 0.00767922 0)
(1.04515 0.00755659 0)
(1.0455 0.00743912 0)
(1.04585 0.0073258 0)
(1.04619 0.0072155 0)
(1.04653 0.00710713 0)
(1.04686 0.00699941 0)
(1.0472 0.00689107 0)
(1.04754 0.00678046 0)
(1.04788 0.00666604 0)
(1.04822 0.00654544 0)
(1.04857 0.00641666 0)
(1.04893 0.00627623 0)
(1.04929 0.00612123 0)
(1.04967 0.00594665 0)
(1.05006 0.00574752 0)
(1.05047 0.00551724 0)
(1.0509 0.00524594 0)
(1.05134 0.0049262 0)
(1.0518 0.00453763 0)
(1.05228 0.00407339 0)
(1.05277 0.00349585 0)
(1.05326 0.00280041 0)
(1.05371 0.00193746 0)
(1.0541 0.000913714 0)
(1.05439 -0.000297705 0)
(1.0008 0.010326 0)
(1.01174 0.0186549 0)
(1.02209 0.016813 0)
(1.02685 0.0147013 0)
(1.02869 0.0141421 0)
(1.0303 0.0135794 0)
(1.03197 0.012739 0)
(1.03335 0.0120047 0)
(1.03441 0.0114585 0)
(1.0353 0.0110063 0)
(1.0361 0.0105998 0)
(1.03681 0.0102359 0)
(1.03746 0.00991364 0)
(1.03805 0.00962608 0)
(1.0386 0.0093662 0)
(1.03911 0.00912905 0)
(1.03958 0.00891116 0)
(1.04003 0.0087098 0)
(1.04046 0.00852282 0)
(1.04087 0.00834855 0)
(1.04127 0.00818561 0)
(1.04165 0.00803285 0)
(1.04202 0.00788922 0)
(1.04238 0.00775368 0)
(1.04274 0.00762522 0)
(1.04309 0.00750282 0)
(1.04343 0.00738543 0)
(1.04376 0.00727201 0)
(1.0441 0.00716145 0)
(1.04443 0.00705263 0)
(1.04476 0.00694426 0)
(1.04508 0.00683505 0)
(1.04541 0.00672332 0)
(1.04575 0.00660747 0)
(1.04608 0.00648519 0)
(1.04643 0.00635431 0)
(1.04678 0.00621149 0)
(1.04714 0.00605355 0)
(1.04751 0.00587576 0)
(1.04789 0.00567275 0)
(1.04829 0.00543829 0)
(1.04871 0.00516236 0)
(1.04914 0.00483752 0)
(1.04959 0.00444467 0)
(1.05005 0.00397553 0)
(1.05052 0.00339764 0)
(1.05098 0.00270284 0)
(1.0514 0.00185133 0)
(1.05176 0.000844579 0)
(1.05201 -0.000340249 0)
(1.00069 0.00933365 0)
(1.01046 0.0175898 0)
(1.02021 0.0163279 0)
(1.02502 0.0143374 0)
(1.02692 0.0138077 0)
(1.0285 0.0133441 0)
(1.03014 0.0125761 0)
(1.03152 0.011866 0)
(1.03259 0.011333 0)
(1.03347 0.0108961 0)
(1.03426 0.0105026 0)
(1.03496 0.0101478 0)
(1.0356 0.00983219 0)
(1.03619 0.00955018 0)
(1.03672 0.00929494 0)
(1.03722 0.00906161 0)
(1.03769 0.0088468 0)
(1.03813 0.00864793 0)
(1.03855 0.00846296 0)
(1.03896 0.00829027 0)
(1.03934 0.00812859 0)
(1.03972 0.00797682 0)
(1.04008 0.00783395 0)
(1.04043 0.00769898 0)
(1.04078 0.00757093 0)
(1.04112 0.00744876 0)
(1.04145 0.00733145 0)
(1.04178 0.00721795 0)
(1.0421 0.00710713 0)
(1.04243 0.00699786 0)
(1.04275 0.00688884 0)
(1.04307 0.00677873 0)
(1.04339 0.00666587 0)
(1.04371 0.00654859 0)
(1.04404 0.00642459 0)
(1.04437 0.00629161 0)
(1.04472 0.00614639 0)
(1.04507 0.00598555 0)
(1.04543 0.00580454 0)
(1.0458 0.00559777 0)
(1.04619 0.00535922 0)
(1.04659 0.00507895 0)
(1.04701 0.00474935 0)
(1.04744 0.00435274 0)
(1.04788 0.00387968 0)
(1.04832 0.00330212 0)
(1.04874 0.00260973 0)
(1.04913 0.00176993 0)
(1.04946 0.000781453 0)
(1.04967 -0.000376516 0)
(1.0006 0.00843054 0)
(1.0093 0.0165487 0)
(1.01846 0.0158321 0)
(1.02328 0.0139813 0)
(1.02525 0.0134729 0)
(1.02679 0.0130988 0)
(1.0284 0.0124066 0)
(1.02978 0.0117246 0)
(1.03085 0.011205 0)
(1.03173 0.0107832 0)
(1.0325 0.0104032 0)
(1.0332 0.010058 0)
(1.03384 0.00974938 0)
(1.03441 0.00947309 0)
(1.03494 0.00922267 0)
(1.03543 0.0089933 0)
(1.03589 0.00878169 0)
(1.03633 0.00858541 0)
(1.03674 0.0084025 0)
(1.03713 0.00823146 0)
(1.03751 0.00807108 0)
(1.03788 0.00792034 0)
(1.03823 0.00777827 0)
(1.03858 0.00764391 0)
(1.03892 0.00751628 0)
(1.03925 0.00739438 0)
(1.03957 0.00727718 0)
(1.03989 0.00716361 0)
(1.04021 0.00705254 0)
(1.04052 0.00694284 0)
(1.04084 0.00683316 0)
(1.04115 0.00672218 0)
(1.04146 0.00660819 0)
(1.04178 0.0064895 0)
(1.0421 0.00636381 0)
(1.04242 0.00622877 0)
(1.04275 0.00608118 0)
(1.04309 0.00591753 0)
(1.04344 0.00573338 0)
(1.0438 0.00552304 0)
(1.04418 0.00528058 0)
(1.04456 0.00499631 0)
(1.04496 0.00466242 0)
(1.04537 0.00426263 0)
(1.04579 0.00378671 0)
(1.0462 0.00321027 0)
(1.04659 0.00252193 0)
(1.04694 0.00169441 0)
(1.04723 0.000725365 0)
(1.0474 -0.000404974 0)
(1.00051 0.00761191 0)
(1.00825 0.0155355 0)
(1.01681 0.0153244 0)
(1.02162 0.0136324 0)
(1.02366 0.0131395 0)
(1.02518 0.012844 0)
(1.02675 0.01223 0)
(1.02812 0.0115802 0)
(1.0292 0.0110744 0)
(1.03007 0.0106675 0)
(1.03084 0.0103015 0)
(1.03153 0.00996634 0)
(1.03216 0.00966508 0)