/*--------------------------------*- C++ -*----------------------------------*\
  =========                 |
  \\      /  F ield         | OpenFOAM: The Open Source CFD Toolbox
   \\    /   O peration     | Website:  https://openfoam.org
    \\  /    A nd           | Version:  7
     \\/     M anipulation  |
\*---------------------------------------------------------------------------*/
FoamFile
{
    version     2.0;
    format      ascii;
    class       volVectorField;
    location    "0.29";
    object      vorticity;
}
// * * * * * * * * * * * * * * * * * * * * * * * * * * * * * * * * * * * * * //

dimensions      [0 0 -1 0 0 0 0];

internalField   nonuniform List<vector> 
70000
(
(0 -0 -45716.1)
(0 -0 -28618.4)
(0 -0 -20915.1)
(0 -0 -16982.7)
(0 -0 -14962.3)
(0 -0 -13656)
(0 -0 -12647.2)
(0 -0 -11835.3)
(0 -0 -11172.1)
(0 -0 -10618.8)
(0 -0 -10147.3)
(0 -0 -9739.22)
(0 -0 -9381.46)
(0 -0 -9064.67)
(0 -0 -8781.74)
(0 -0 -8527.18)
(0 -0 -8296.66)
(0 -0 -8086.76)
(0 -0 -7894.68)
(0 -0 -7718.16)
(0 -0 -7555.3)
(0 -0 -7404.54)
(0 -0 -7264.56)
(0 -0 -7134.23)
(0 -0 -7012.62)
(0 -0 -6898.9)
(0 -0 -6792.38)
(0 -0 -6692.45)
(0 -0 -6598.63)
(0 -0 -6510.45)
(0 -0 -6427.58)
(0 -0 -6349.68)
(0 -0 -6276.55)
(0 -0 -6207.96)
(0 -0 -6143.84)
(0 -0 -6084.06)
(0 -0 -6028.64)
(0 -0 -5977.75)
(0 -0 -5931.21)
(0 -0 -5890.07)
(0 -0 -5852.96)
(0 -0 -5823.95)
(0 -0 -5796.89)
(0 -0 -5785.45)
(0 -0 -5768.22)
(0 -0 -5786.47)
(0 -0 -5777.01)
(0 -0 -5845.61)
(0 -0 -5880.51)
(0 -0 -5731.84)
(0 -0 -13549.6)
(0 -0 -19947.4)
(0 -0 -18536.8)
(0 -0 -16250.8)
(0 -0 -14505.5)
(0 -0 -13281.9)
(0 -0 -12354.2)
(0 -0 -11604.6)
(0 -0 -10982.7)
(0 -0 -10457.8)
(0 -0 -10007.7)
(0 -0 -9616.04)
(0 -0 -9271.35)
(0 -0 -8965.04)
(0 -0 -8690.6)
(0 -0 -8442.99)
(0 -0 -8218.21)
(0 -0 -8013.04)
(0 -0 -7824.89)
(0 -0 -7651.6)
(0 -0 -7491.39)
(0 -0 -7342.77)
(0 -0 -7204.48)
(0 -0 -7075.44)
(0 -0 -6954.73)
(0 -0 -6841.55)
(0 -0 -6735.24)
(0 -0 -6635.18)
(0 -0 -6540.87)
(0 -0 -6451.86)
(0 -0 -6367.78)
(0 -0 -6288.27)
(0 -0 -6213.08)
(0 -0 -6141.94)
(0 -0 -6074.71)
(0 -0 -6011.21)
(0 -0 -5951.35)
(0 -0 -5895.15)
(0 -0 -5842.38)
(0 -0 -5793.71)
(0 -0 -5747.96)
(0 -0 -5708.05)
(0 -0 -5669.2)
(0 -0 -5641.34)
(0 -0 -5608.42)
(0 -0 -5600.06)
(0 -0 -5571.22)
(0 -0 -5593.07)
(0 -0 -5588.95)
(0 -0 -5688.54)
(0 -0 -3818.73)
(0 -0 -10828.6)
(0 -0 -13363.2)
(0 -0 -13519.6)
(0 -0 -12866.6)
(0 -0 -12140.9)
(0 -0 -11499.6)
(0 -0 -10939.6)
(0 -0 -10448.1)
(0 -0 -10015.9)
(0 -0 -9634.15)
(0 -0 -9294.85)
(0 -0 -8991.17)
(0 -0 -8717.65)
(0 -0 -8469.86)
(0 -0 -8244.2)
(0 -0 -8037.72)
(0 -0 -7847.97)
(0 -0 -7672.9)
(0 -0 -7510.81)
(0 -0 -7360.23)
(0 -0 -7219.93)
(0 -0 -7088.85)
(0 -0 -6966.07)
(0 -0 -6850.79)
(0 -0 -6742.34)
(0 -0 -6640.1)
(0 -0 -6543.55)
(0 -0 -6452.21)
(0 -0 -6365.67)
(0 -0 -6283.58)
(0 -0 -6205.62)
(0 -0 -6131.51)
(0 -0 -6060.99)
(0 -0 -5993.89)
(0 -0 -5930)
(0 -0 -5869.19)
(0 -0 -5811.39)
(0 -0 -5756.38)
(0 -0 -5704.49)
(0 -0 -5654.92)
(0 -0 -5609.34)
(0 -0 -5564.82)
(0 -0 -5527.06)
(0 -0 -5486.86)
(0 -0 -5460.19)
(0 -0 -5424.03)
(0 -0 -5412.12)
(0 -0 -5385.96)
(0 -0 -5485.17)
(0 -0 -533.086)
(0 -0 -4662.46)
(0 -0 -7718)
(0 -0 -9328)
(0 -0 -9891.93)
(0 -0 -9957.57)
(0 -0 -9826.22)
(0 -0 -9614.63)
(0 -0 -9371.59)
(0 -0 -9121.79)
(0 -0 -8877.66)
(0 -0 -8644.75)
(0 -0 -8425.17)
(0 -0 -8219.35)
(0 -0 -8026.91)
(0 -0 -7847.13)
(0 -0 -7679.12)
(0 -0 -7521.96)
(0 -0 -7374.76)
(0 -0 -7236.69)
(0 -0 -7106.96)
(0 -0 -6984.87)
(0 -0 -6869.79)
(0 -0 -6761.13)
(0 -0 -6658.38)
(0 -0 -6561.07)
(0 -0 -6468.77)
(0 -0 -6381.11)
(0 -0 -6297.74)
(0 -0 -6218.35)
(0 -0 -6142.66)
(0 -0 -6070.42)
(0 -0 -6001.4)
(0 -0 -5935.4)
(0 -0 -5872.24)
(0 -0 -5811.74)
(0 -0 -5753.79)
(0 -0 -5698.25)
(0 -0 -5645)
(0 -0 -5594.05)
(0 -0 -5545.13)
(0 -0 -5498.66)
(0 -0 -5453.78)
(0 -0 -5411.97)
(0 -0 -5371.16)
(0 -0 -5334.11)
(0 -0 -5299.05)
(0 -0 -5265.52)
(0 -0 -5239.89)
(0 -0 -5261.87)
(0 -0 322.395)
(0 -0 -1444.46)
(0 -0 -3532.21)
(0 -0 -5258.5)
(0 -0 -6398.42)
(0 -0 -7073.22)
(0 -0 -7450.84)
(0 -0 -7641.67)
(0 -0 -7713.95)
(0 -0 -7711.88)
(0 -0 -7664.04)
(0 -0 -7588.52)
(0 -0 -7496.72)
(0 -0 -7395.94)
(0 -0 -7290.84)
(0 -0 -7184.44)
(0 -0 -7078.69)
(0 -0 -6974.82)
(0 -0 -6873.58)
(0 -0 -6775.44)
(0 -0 -6680.63)
(0 -0 -6589.27)
(0 -0 -6501.37)
(0 -0 -6416.87)
(0 -0 -6335.7)
(0 -0 -6257.74)
(0 -0 -6182.88)
(0 -0 -6110.96)
(0 -0 -6041.86)
(0 -0 -5975.44)
(0 -0 -5911.57)
(0 -0 -5850.12)
(0 -0 -5790.97)
(0 -0 -5733.99)
(0 -0 -5679.09)
(0 -0 -5626.14)
(0 -0 -5575.08)
(0 -0 -5525.76)
(0 -0 -5478.2)
(0 -0 -5432.16)
(0 -0 -5387.87)
(0 -0 -5344.75)
(0 -0 -5303.73)
(0 -0 -5262.89)
(0 -0 -5225.93)
(0 -0 -5185.57)
(0 -0 -5155.78)
(0 -0 -5111.42)
(0 -0 -5095.26)
(0 -0 -5065.57)
(0 -0 364.666)
(0 -0 -158.561)
(0 -0 -1181.33)
(0 -0 -2361.51)
(0 -0 -3416.69)
(0 -0 -4255.09)
(0 -0 -4890.1)
(0 -0 -5355.62)
(0 -0 -5686.71)
(0 -0 -5915.37)
(0 -0 -6067.92)
(0 -0 -6164.45)
(0 -0 -6219.92)
(0 -0 -6245.28)
(0 -0 -6248.58)
(0 -0 -6235.76)
(0 -0 -6211.19)
(0 -0 -6178.11)
(0 -0 -6138.92)
(0 -0 -6095.45)
(0 -0 -6049.04)
(0 -0 -6000.72)
(0 -0 -5951.26)
(0 -0 -5901.24)
(0 -0 -5851.1)
(0 -0 -5801.19)
(0 -0 -5751.75)
(0 -0 -5702.96)
(0 -0 -5654.97)
(0 -0 -5607.86)
(0 -0 -5561.71)
(0 -0 -5516.56)
(0 -0 -5472.43)
(0 -0 -5429.33)
(0 -0 -5387.27)
(0 -0 -5346.21)
(0 -0 -5306.18)
(0 -0 -5267.07)
(0 -0 -5229.03)
(0 -0 -5191.7)
(0 -0 -5155.65)
(0 -0 -5119.72)
(0 -0 -5085.96)
(0 -0 -5050.48)
(0 -0 -5020.21)
(0 -0 -4982.62)
(0 -0 -4959.43)
(0 -0 -4914.29)
(0 -0 -4904.34)
(0 -0 -4860.72)
(0 -0 253.994)
(0 -0 185.265)
(0 -0 -173.236)
(0 -0 -764.396)
(0 -0 -1447.11)
(0 -0 -2114.56)
(0 -0 -2719.47)
(0 -0 -3242.38)
(0 -0 -3679.15)
(0 -0 -4035.57)
(0 -0 -4321.91)
(0 -0 -4549.28)
(0 -0 -4728.02)
(0 -0 -4867.11)
(0 -0 -4974.07)
(0 -0 -5055.07)
(0 -0 -5115.14)
(0 -0 -5158.32)
(0 -0 -5187.87)
(0 -0 -5206.4)
(0 -0 -5216.02)
(0 -0 -5218.43)
(0 -0 -5215)
(0 -0 -5206.85)
(0 -0 -5194.88)
(0 -0 -5179.84)
(0 -0 -5162.34)
(0 -0 -5142.88)
(0 -0 -5121.86)
(0 -0 -5099.64)
(0 -0 -5076.48)
(0 -0 -5052.62)
(0 -0 -5028.24)
(0 -0 -5003.51)
(0 -0 -4978.54)
(0 -0 -4953.43)
(0 -0 -4928.29)
(0 -0 -4903.11)
(0 -0 -4878.09)
(0 -0 -4852.94)
(0 -0 -4828.33)
(0 -0 -4802.99)
(0 -0 -4779.29)
(0 -0 -4752.87)
(0 -0 -4731.39)
(0 -0 -4701.41)
(0 -0 -4685.32)
(0 -0 -4647.06)
(0 -0 -4639.84)
(0 -0 -4600.47)
(0 -0 178.723)
(0 -0 204.467)
(0 -0 130.646)
(0 -0 -85.1149)
(0 -0 -417.588)
(0 -0 -814.334)
(0 -0 -1235.53)
(0 -0 -1652.32)
(0 -0 -2044.84)
(0 -0 -2402.12)
(0 -0 -2719.9)
(0 -0 -2998.11)
(0 -0 -3238.94)
(0 -0 -3445.7)
(0 -0 -3622.15)
(0 -0 -3772.01)
(0 -0 -3898.79)
(0 -0 -4005.67)
(0 -0 -4095.44)
(0 -0 -4170.54)
(0 -0 -4233.07)
(0 -0 -4284.83)
(0 -0 -4327.36)
(0 -0 -4361.97)
(0 -0 -4389.77)
(0 -0 -4411.74)
(0 -0 -4428.67)
(0 -0 -4441.28)
(0 -0 -4450.17)
(0 -0 -4455.84)
(0 -0 -4458.74)
(0 -0 -4459.25)
(0 -0 -4457.69)
(0 -0 -4454.33)
(0 -0 -4449.43)
(0 -0 -4443.17)
(0 -0 -4435.75)
(0 -0 -4427.25)
(0 -0 -4417.93)
(0 -0 -4407.6)
(0 -0 -4396.89)
(0 -0 -4384.77)
(0 -0 -4373.32)
(0 -0 -4358.74)
(0 -0 -4347.75)
(0 -0 -4328.66)
(0 -0 -4320.58)
(0 -0 -4293.41)
(0 -0 -4289.17)
(0 -0 -4259.38)
(0 -0 147.995)
(0 -0 164.578)
(0 -0 169.954)
(0 -0 120.977)
(0 -0 1.13702)
(0 -0 -180.468)
(0 -0 -408.474)
(0 -0 -666.551)
(0 -0 -938.879)
(0 -0 -1212.55)
(0 -0 -1478.34)
(0 -0 -1730.25)
(0 -0 -1964.77)
(0 -0 -2180.25)
(0 -0 -2376.29)
(0 -0 -2553.34)
(0 -0 -2712.39)
(0 -0 -2854.69)
(0 -0 -2981.62)
(0 -0 -3094.56)
(0 -0 -3194.89)
(0 -0 -3283.87)
(0 -0 -3362.69)
(0 -0 -3432.42)
(0 -0 -3494.02)
(0 -0 -3548.37)
(0 -0 -3596.26)
(0 -0 -3638.39)
(0 -0 -3675.36)
(0 -0 -3707.74)
(0 -0 -3736.02)
(0 -0 -3760.62)
(0 -0 -3781.93)
(0 -0 -3800.3)
(0 -0 -3816)
(0 -0 -3829.33)
(0 -0 -3840.48)
(0 -0 -3849.67)
(0 -0 -3857.08)
(0 -0 -3862.74)
(0 -0 -3867.09)
(0 -0 -3869.46)
(0 -0 -3871.44)
(0 -0 -3870.12)
(0 -0 -3870.76)
(0 -0 -3864.15)
(0 -0 -3865.15)
(0 -0 -3850.65)
(0 -0 -3851.26)
(0 -0 -3832.37)
(0 -0 136.8)
(0 -0 137.045)
(0 -0 148.705)
(0 -0 149.651)
(0 -0 122.196)
(0 -0 60.1933)
(0 -0 -36.1748)
(0 -0 -163.259)
(0 -0 -314.715)
(0 -0 -483.241)
(0 -0 -661.93)
(0 -0 -844.88)
(0 -0 -1027.36)
(0 -0 -1205.8)
(0 -0 -1377.64)
(0 -0 -1541.2)
(0 -0 -1695.46)
(0 -0 -1839.94)
(0 -0 -1974.52)
(0 -0 -2099.33)
(0 -0 -2214.72)
(0 -0 -2321.12)
(0 -0 -2419.02)
(0 -0 -2508.97)
(0 -0 -2591.51)
(0 -0 -2667.17)
(0 -0 -2736.48)
(0 -0 -2799.92)
(0 -0 -2857.97)
(0 -0 -2911.06)
(0 -0 -2959.59)
(0 -0 -3003.94)
(0 -0 -3044.43)
(0 -0 -3081.4)
(0 -0 -3115.1)
(0 -0 -3145.82)
(0 -0 -3173.74)
(0 -0 -3199.11)
(0 -0 -3222.07)
(0 -0 -3242.74)
(0 -0 -3261.41)
(0 -0 -3277.72)
(0 -0 -3292.75)
(0 -0 -3304.43)
(0 -0 -3316.65)
(0 -0 -3322.48)
(0 -0 -3332.91)
(0 -0 -3330.96)
(0 -0 -3337.83)
(0 -0 -3329.92)
(0 -0 129.918)
(0 -0 123.973)
(0 -0 129.155)
(0 -0 136.353)
(0 -0 136.448)
(0 -0 123.206)
(0 -0 92.985)
(0 -0 43.9332)
(0 -0 -23.7885)
(0 -0 -108.354)
(0 -0 -206.999)
(0 -0 -316.593)
(0 -0 -434.003)
(0 -0 -556.333)
(0 -0 -681.055)
(0 -0 -806.064)
(0 -0 -929.676)
(0 -0 -1050.59)
(0 -0 -1167.84)
(0 -0 -1280.75)
(0 -0 -1388.87)
(0 -0 -1491.92)
(0 -0 -1589.77)
(0 -0 -1682.4)
(0 -0 -1769.88)
(0 -0 -1852.32)
(0 -0 -1929.88)
(0 -0 -2002.75)
(0 -0 -2071.14)
(0 -0 -2135.27)
(0 -0 -2195.36)
(0 -0 -2251.63)
(0 -0 -2304.29)
(0 -0 -2353.56)
(0 -0 -2399.6)
(0 -0 -2442.64)
(0 -0 -2482.79)
(0 -0 -2520.27)
(0 -0 -2555.15)
(0 -0 -2587.57)
(0 -0 -2617.7)
(0 -0 -2645.32)
(0 -0 -2671.19)
(0 -0 -2693.79)
(0 -0 -2715.95)
(0 -0 -2732.54)
(0 -0 -2751.42)
(0 -0 -2760.52)
(0 -0 -2773.83)
(0 -0 -2775.95)
(0 -0 122.926)
(0 -0 116.619)
(0 -0 117.989)
(0 -0 122.463)
(0 -0 126.406)
(0 -0 126.88)
(0 -0 121.418)
(0 -0 107.719)
(0 -0 84.1409)
(0 -0 49.9735)
(0 -0 5.30542)
(0 -0 -49.1591)
(0 -0 -112.301)
(0 -0 -182.761)
(0 -0 -259.096)
(0 -0 -339.877)
(0 -0 -423.775)
(0 -0 -509.593)
(0 -0 -596.295)
(0 -0 -683)
(0 -0 -768.981)
(0 -0 -853.649)
(0 -0 -936.537)
(0 -0 -1017.28)
(0 -0 -1095.62)
(0 -0 -1171.35)
(0 -0 -1244.35)
(0 -0 -1314.53)
(0 -0 -1381.87)
(0 -0 -1446.37)
(0 -0 -1508.03)
(0 -0 -1566.93)
(0 -0 -1623.09)
(0 -0 -1676.62)
(0 -0 -1727.55)
(0 -0 -1776.01)
(0 -0 -1822.01)
(0 -0 -1865.68)
(0 -0 -1907.04)
(0 -0 -1946.17)
(0 -0 -1983.15)
(0 -0 -2017.79)
(0 -0 -2050.63)
(0 -0 -2080.5)
(0 -0 -2109.45)
(0 -0 -2133.71)
(0 -0 -2158.68)
(0 -0 -2176.11)
(0 -0 -2194.69)
(0 -0 -2204.83)
(0 -0 115.604)
(0 -0 110.386)
(0 -0 110.706)
(0 -0 113.145)
(0 -0 115.958)
(0 -0 118.217)
(0 -0 119.096)
(0 -0 117.392)
(0 -0 111.826)
(0 -0 101.342)
(0 -0 85.2149)
(0 -0 63.0689)
(0 -0 34.8434)
(0 -0 0.751826)
(0 -0 -38.7853)
(0 -0 -83.2061)
(0 -0 -131.867)
(0 -0 -184.09)
(0 -0 -239.203)
(0 -0 -296.562)
(0 -0 -355.57)
(0 -0 -415.683)
(0 -0 -476.417)
(0 -0 -537.348)
(0 -0 -598.109)
(0 -0 -658.388)
(0 -0 -717.92)
(0 -0 -776.49)
(0 -0 -833.918)
(0 -0 -890.065)
(0 -0 -944.815)
(0 -0 -998.09)
(0 -0 -1049.81)
(0 -0 -1099.96)
(0 -0 -1148.46)
(0 -0 -1195.34)
(0 -0 -1240.54)
(0 -0 -1284.09)
(0 -0 -1325.94)
(0 -0 -1366.1)
(0 -0 -1404.58)
(0 -0 -1441.19)
(0 -0 -1476.3)
(0 -0 -1508.98)
(0 -0 -1540.64)
(0 -0 -1568.61)
(0 -0 -1596.4)
(0 -0 -1618.58)
(0 -0 -1640.22)
(0 -0 -1655.57)
(0 -0 108.358)
(0 -0 104.167)
(0 -0 104.379)
(0 -0 106.089)
(0 -0 107.958)
(0 -0 109.668)
(0 -0 111.205)
(0 -0 112.221)
(0 -0 112.137)
(0 -0 110.322)
(0 -0 106.187)
(0 -0 99.2291)
(0 -0 89.0694)
(0 -0 75.4652)
(0 -0 58.3167)
(0 -0 37.6447)
(0 -0 13.5741)
(0 -0 -13.6897)
(0 -0 -43.885)
(0 -0 -76.7133)
(0 -0 -111.857)
(0 -0 -148.992)
(0 -0 -187.799)
(0 -0 -227.97)
(0 -0 -269.213)
(0 -0 -311.258)
(0 -0 -353.856)
(0 -0 -396.783)
(0 -0 -439.834)
(0 -0 -482.833)
(0 -0 -525.617)
(0 -0 -568.053)
(0 -0 -610.011)
(0 -0 -651.397)
(0 -0 -692.1)
(0 -0 -732.063)
(0 -0 -771.184)
(0 -0 -809.427)
(0 -0 -846.704)
(0 -0 -882.958)
(0 -0 -918.167)
(0 -0 -952.12)
(0 -0 -985.046)
(0 -0 -1016.24)
(0 -0 -1046.6)
(0 -0 -1074.31)
(0 -0 -1101.47)
(0 -0 -1124.71)
(0 -0 -1146.73)
(0 -0 -1164.2)
(0 -0 101.378)
(0 -0 97.974)
(0 -0 98.2009)
(0 -0 99.6768)
(0 -0 101.191)
(0 -0 102.464)
(0 -0 103.688)
(0 -0 104.874)
(0 -0 105.849)
(0 -0 106.366)
(0 -0 106.145)
(0 -0 104.888)
(0 -0 102.301)
(0 -0 98.1265)
(0 -0 92.1514)
(0 -0 84.2214)
(0 -0 74.2402)
(0 -0 62.1679)
(0 -0 48.0152)
(0 -0 31.8352)
(0 -0 13.7156)
(0 -0 -6.22857)
(0 -0 -27.863)
(0 -0 -51.04)
(0 -0 -75.6031)
(0 -0 -101.394)
(0 -0 -128.252)
(0 -0 -156.024)
(0 -0 -184.558)
(0 -0 -213.712)
(0 -0 -243.35)
(0 -0 -273.348)
(0 -0 -303.584)
(0 -0 -333.954)
(0 -0 -364.348)
(0 -0 -394.682)
(0 -0 -424.852)
(0 -0 -454.788)
(0 -0 -484.398)
(0 -0 -513.593)
(0 -0 -542.333)
(0 -0 -570.418)
(0 -0 -597.976)
(0 -0 -624.487)
(0 -0 -650.478)
(0 -0 -674.778)
(0 -0 -698.526)
(0 -0 -719.736)
(0 -0 -739.699)
(0 -0 -756.542)
(0 -0 94.7002)
(0 -0 91.9228)
(0 -0 92.1379)
(0 -0 93.4651)
(0 -0 94.8477)
(0 -0 95.9477)
(0 -0 96.9477)
(0 -0 97.9456)
(0 -0 98.9135)
(0 -0 99.7845)
(0 -0 100.469)
(0 -0 100.851)
(0 -0 100.791)
(0 -0 100.139)
(0 -0 98.7499)
(0 -0 96.4851)
(0 -0 93.2258)
(0 -0 88.8745)
(0 -0 83.3583)
(0 -0 76.6282)
(0 -0 68.6591)
(0 -0 59.4469)
(0 -0 49.008)
(0 -0 37.3742)
(0 -0 24.5922)
(0 -0 10.7196)
(0 -0 -4.17656)
(0 -0 -20.0236)
(0 -0 -36.7432)
(0 -0 -54.2564)
(0 -0 -72.4796)
(0 -0 -91.335)
(0 -0 -110.735)
(0 -0 -130.61)
(0 -0 -150.874)
(0 -0 -171.456)
(0 -0 -192.277)
(0 -0 -213.266)
(0 -0 -234.351)
(0 -0 -255.442)
(0 -0 -276.503)
(0 -0 -297.368)
(0 -0 -318.097)
(0 -0 -338.34)
(0 -0 -358.361)
(0 -0 -377.461)
(0 -0 -396.178)
(0 -0 -413.413)
(0 -0 -429.693)
(0 -0 -443.984)
(0 -0 88.3225)
(0 -0 86.0653)
(0 -0 86.262)
(0 -0 87.4397)
(0 -0 88.7243)
(0 -0 89.7454)
(0 -0 90.6394)
(0 -0 91.5095)
(0 -0 92.3594)
(0 -0 93.1749)
(0 -0 93.9402)
(0 -0 94.6266)
(0 -0 95.1889)
(0 -0 95.5681)
(0 -0 95.6959)
(0 -0 95.4991)
(0 -0 94.9033)
(0 -0 93.8369)
(0 -0 92.2335)
(0 -0 90.0346)
(0 -0 87.1906)
(0 -0 83.6621)
(0 -0 79.4193)
(0 -0 74.4436)
(0 -0 68.7257)
(0 -0 62.266)
(0 -0 55.0726)
(0 -0 47.1625)
(0 -0 38.5583)
(0 -0 29.2873)
(0 -0 19.3833)
(0 -0 8.8814)
(0 -0 -2.17729)
(0 -0 -13.7531)
(0 -0 -25.8001)
(0 -0 -38.2746)
(0 -0 -51.1285)
(0 -0 -64.3117)
(0 -0 -77.779)
(0 -0 -91.4636)
(0 -0 -105.336)
(0 -0 -119.284)
(0 -0 -133.328)
(0 -0 -147.252)
(0 -0 -161.168)
(0 -0 -174.69)
(0 -0 -188.026)
(0 -0 -200.608)
(0 -0 -212.598)
(0 -0 -223.433)
(0 -0 82.2438)
(0 -0 80.4195)
(0 -0 80.6064)
(0 -0 81.6395)
(0 -0 82.8209)
(0 -0 83.7769)
(0 -0 84.6032)
(0 -0 85.3962)
(0 -0 86.1636)
(0 -0 86.8987)
(0 -0 87.6034)
(0 -0 88.2772)
(0 -0 88.912)
(0 -0 89.4919)
(0 -0 89.9943)
(0 -0 90.3913)
(0 -0 90.6506)
(0 -0 90.737)
(0 -0 90.614)
(0 -0 90.2448)
(0 -0 89.5934)
(0 -0 88.6261)
(0 -0 87.312)
(0 -0 85.6239)
(0 -0 83.5389)
(0 -0 81.0385)
(0 -0 78.1094)
(0 -0 74.7421)
(0 -0 70.9325)
(0 -0 66.6803)
(0 -0 61.9891)
(0 -0 56.8672)
(0 -0 51.3222)
(0 -0 45.3724)
(0 -0 39.0323)
(0 -0 32.3212)
(0 -0 25.2599)
(0 -0 17.8752)
(0 -0 10.1893)
(0 -0 2.24149)
(0 -0 -5.95152)
(0 -0 -14.3243)
(0 -0 -22.8783)
(0 -0 -31.4983)
(0 -0 -40.2171)
(0 -0 -48.8414)
(0 -0 -57.429)
(0 -0 -65.7015)
(0 -0 -73.685)
(0 -0 -81.0702)
(0 -0 76.4644)
(0 -0 74.997)
(0 -0 75.1831)
(0 -0 76.0845)
(0 -0 77.1603)
(0 -0 78.0499)
(0 -0 78.815)
(0 -0 79.5457)
(0 -0 80.2515)
(0 -0 80.925)
(0 -0 81.5687)
(0 -0 82.1878)
(0 -0 82.784)
(0 -0 83.3556)
(0 -0 83.898)
(0 -0 84.4039)
(0 -0 84.8633)
(0 -0 85.264)
(0 -0 85.5916)
(0 -0 85.8298)
(0 -0 85.9611)
(0 -0 85.9668)
(0 -0 85.828)
(0 -0 85.5261)
(0 -0 85.0433)
(0 -0 84.3628)
(0 -0 83.4696)
(0 -0 82.3505)
(0 -0 80.9943)
(0 -0 79.3919)
(0 -0 77.5365)
(0 -0 75.4231)
(0 -0 73.05)
(0 -0 70.4151)
(0 -0 67.5208)
(0 -0 64.3713)
(0 -0 60.9712)
(0 -0 57.3305)
(0 -0 53.4556)
(0 -0 49.3653)
(0 -0 45.0643)
(0 -0 40.5864)
(0 -0 35.934)
(0 -0 31.1599)
(0 -0 26.2618)
(0 -0 21.3255)
(0 -0 16.3478)
(0 -0 11.457)
(0 -0 6.6592)
(0 -0 2.12853)
(0 -0 70.9842)
(0 -0 69.8081)
(0 -0 69.9992)
(0 -0 70.7831)
(0 -0 71.7553)
(0 -0 72.5784)
(0 -0 73.2839)
(0 -0 73.9555)
(0 -0 74.6057)
(0 -0 75.2263)
(0 -0 75.8183)
(0 -0 76.3866)
(0 -0 76.9346)
(0 -0 77.4635)
(0 -0 77.9736)
(0 -0 78.4644)
(0 -0 78.9343)
(0 -0 79.381)
(0 -0 79.8006)
(0 -0 80.1884)
(0 -0 80.5382)
(0 -0 80.8425)
(0 -0 81.0929)
(0 -0 81.2801)
(0 -0 81.3946)
(0 -0 81.4267)
(0 -0 81.3667)
(0 -0 81.2054)
(0 -0 80.9341)
(0 -0 80.5444)
(0 -0 80.0291)
(0 -0 79.3816)
(0 -0 78.5961)
(0 -0 77.6683)
(0 -0 76.5941)
(0 -0 75.3716)
(0 -0 73.9987)
(0 -0 72.4768)
(0 -0 70.8054)
(0 -0 68.9897)
(0 -0 67.0316)
(0 -0 64.9411)
(0 -0 62.7217)
(0 -0 60.3925)
(0 -0 57.9589)
(0 -0 55.4535)
(0 -0 52.8833)
(0 -0 50.307)
(0 -0 47.7229)
(0 -0 45.2393)
(0 -0 65.8017)
(0 -0 64.8611)
(0 -0 65.0602)
(0 -0 65.7405)
(0 -0 66.6128)
(0 -0 67.3708)
(0 -0 68.0189)
(0 -0 68.6335)
(0 -0 69.2301)
(0 -0 69.8008)
(0 -0 70.3452)
(0 -0 70.8675)
(0 -0 71.3707)
(0 -0 71.8564)
(0 -0 72.3257)
(0 -0 72.7793)
(0 -0 73.2182)
(0 -0 73.643)
(0 -0 74.0539)
(0 -0 74.4505)
(0 -0 74.8317)
(0 -0 75.1955)
(0 -0 75.5389)
(0 -0 75.8586)
(0 -0 76.1506)
(0 -0 76.4106)
(0 -0 76.6339)
(0 -0 76.816)
(0 -0 76.952)
(0 -0 77.0371)
(0 -0 77.0666)
(0 -0 77.0361)
(0 -0 76.9411)
(0 -0 76.7777)
(0 -0 76.542)
(0 -0 76.231)
(0 -0 75.8415)
(0 -0 75.3716)
(0 -0 74.8192)
(0 -0 74.184)
(0 -0 73.4654)
(0 -0 72.6648)
(0 -0 71.7837)
(0 -0 70.8264)
(0 -0 69.7967)
(0 -0 68.7053)
(0 -0 67.5543)
(0 -0 66.3737)
(0 -0 65.1471)
(0 -0 63.9515)
(0 -0 60.9141)
(0 -0 60.1626)
(0 -0 60.3704)
(0 -0 60.9597)
(0 -0 61.7369)
(0 -0 62.4316)
(0 -0 63.0253)
(0 -0 63.5855)
(0 -0 64.1305)
(0 -0 64.6533)
(0 -0 65.1523)
(0 -0 65.631)
(0 -0 66.0922)
(0 -0 66.5372)
(0 -0 66.9671)
(0 -0 67.3827)
(0 -0 67.7854)
(0 -0 68.1763)
(0 -0 68.5569)
(0 -0 68.9281)
(0 -0 69.2904)
(0 -0 69.6437)
(0 -0 69.9874)
(0 -0 70.3207)
(0 -0 70.642)
(0 -0 70.95)
(0 -0 71.2429)
(0 -0 71.5188)
(0 -0 71.7758)
(0 -0 72.0117)
(0 -0 72.2242)
(0 -0 72.4112)
(0 -0 72.5702)
(0 -0 72.699)
(0 -0 72.795)
(0 -0 72.8562)
(0 -0 72.8801)
(0 -0 72.8649)
(0 -0 72.8085)
(0 -0 72.7094)
(0 -0 72.5665)
(0 -0 72.3782)
(0 -0 72.1451)
(0 -0 71.8662)
(0 -0 71.5424)
(0 -0 71.1773)
(0 -0 70.7664)
(0 -0 70.3294)
(0 -0 69.8391)
(0 -0 69.3587)
(0 -0 56.3176)
(0 -0 55.7167)
(0 -0 55.9323)
(0 -0 56.442)
(0 -0 57.1299)
(0 -0 57.7633)
(0 -0 58.3057)
(0 -0 58.8145)
(0 -0 59.3102)
(0 -0 59.7871)
(0 -0 60.2428)
(0 -0 60.6799)
(0 -0 61.1011)
(0 -0 61.5075)
(0 -0 61.9)
(0 -0 62.2794)
(0 -0 62.6468)
(0 -0 63.0038)
(0 -0 63.3517)
(0 -0 63.692)
(0 -0 64.0253)
(0 -0 64.3523)
(0 -0 64.673)
(0 -0 64.9872)
(0 -0 65.2945)
(0 -0 65.5945)
(0 -0 65.8866)
(0 -0 66.1704)
(0 -0 66.4451)
(0 -0 66.71)
(0 -0 66.9643)
(0 -0 67.2071)
(0 -0 67.4373)
(0 -0 67.654)
(0 -0 67.856)
(0 -0 68.042)
(0 -0 68.2108)
(0 -0 68.3611)
(0 -0 68.4916)
(0 -0 68.6009)
(0 -0 68.6881)
(0 -0 68.7515)
(0 -0 68.7908)
(0 -0 68.8046)
(0 -0 68.7914)
(0 -0 68.7537)
(0 -0 68.6824)
(0 -0 68.5949)
(0 -0 68.4577)
(0 -0 68.3287)
(0 -0 52.0068)
(0 -0 51.5252)
(0 -0 51.7466)
(0 -0 52.187)
(0 -0 52.7919)
(0 -0 53.3664)
(0 -0 53.8604)
(0 -0 54.321)
(0 -0 54.7701)
(0 -0 55.2035)
(0 -0 55.618)
(0 -0 56.0156)
(0 -0 56.3987)
(0 -0 56.7685)
(0 -0 57.1254)
(0 -0 57.4702)
(0 -0 57.8042)
(0 -0 58.1287)
(0 -0 58.4452)
(0 -0 58.755)
(0 -0 59.059)
(0 -0 59.3578)
(0 -0 59.6515)
(0 -0 59.9402)
(0 -0 60.2236)
(0 -0 60.5016)
(0 -0 60.7741)
(0 -0 61.041)
(0 -0 61.3022)
(0 -0 61.5574)
(0 -0 61.8064)
(0 -0 62.049)
(0 -0 62.2848)
(0 -0 62.5135)
(0 -0 62.7346)
(0 -0 62.9474)
(0 -0 63.1513)
(0 -0 63.3457)
(0 -0 63.5298)
(0 -0 63.7025)
(0 -0 63.8635)
(0 -0 64.0114)
(0 -0 64.1455)
(0 -0 64.2653)
(0 -0 64.3676)
(0 -0 64.456)
(0 -0 64.5189)
(0 -0 64.5734)
(0 -0 64.5843)
(0 -0 64.6063)
(0 -0 47.9756)
(0 -0 47.588)
(0 -0 47.812)
(0 -0 48.1926)
(0 -0 48.7213)
(0 -0 49.2394)
(0 -0 49.6879)
(0 -0 50.1036)
(0 -0 50.5089)
(0 -0 50.9012)
(0 -0 51.2768)
(0 -0 51.6372)
(0 -0 51.9843)
(0 -0 52.3193)
(0 -0 52.6425)
(0 -0 52.9547)
(0 -0 53.2569)
(0 -0 53.5507)
(0 -0 53.8373)
(0 -0 54.1182)
(0 -0 54.3942)
(0 -0 54.6658)
(0 -0 54.9332)
(0 -0 55.1962)
(0 -0 55.4547)
(0 -0 55.7088)
(0 -0 55.9582)
(0 -0 56.203)
(0 -0 56.4432)
(0 -0 56.6788)
(0 -0 56.9098)
(0 -0 57.1361)
(0 -0 57.3577)
(0 -0 57.5744)
(0 -0 57.786)
(0 -0 57.9923)
(0 -0 58.1928)
(0 -0 58.3873)
(0 -0 58.5752)
(0 -0 58.7559)
(0 -0 58.9291)
(0 -0 59.0941)
(0 -0 59.2498)
(0 -0 59.3965)
(0 -0 59.5305)
(0 -0 59.6561)
(0 -0 59.7609)
(0 -0 59.8621)
(0 -0 59.9249)
(0 -0 60.0018)
(0 -0 44.2162)
(0 -0 43.9026)
(0 -0 44.1259)
(0 -0 44.4547)
(0 -0 44.9142)
(0 -0 45.3788)
(0 -0 45.7848)
(0 -0 46.1589)
(0 -0 46.5233)
(0 -0 46.877)
(0 -0 47.2162)
(0 -0 47.5416)
(0 -0 47.8549)
(0 -0 48.1572)
(0 -0 48.4487)
(0 -0 48.7301)
(0 -0 49.0024)
(0 -0 49.2671)
(0 -0 49.5256)
(0 -0 49.7793)
(0 -0 50.0288)
(0 -0 50.2747)
(0 -0 50.5171)
(0 -0 50.7557)
(0 -0 50.9905)
(0 -0 51.2213)
(0 -0 51.4481)
(0 -0 51.6708)
(0 -0 51.8894)
(0 -0 52.1041)
(0 -0 52.3147)
(0 -0 52.5215)
(0 -0 52.7242)
(0 -0 52.923)
(0 -0 53.1177)
(0 -0 53.3081)
(0 -0 53.494)
(0 -0 53.6752)
(0 -0 53.8512)
(0 -0 54.0218)
(0 -0 54.1864)
(0 -0 54.345)
(0 -0 54.4962)
(0 -0 54.6411)
(0 -0 54.7753)
(0 -0 54.904)
(0 -0 55.0146)
(0 -0 55.1244)
(0 -0 55.1995)
(0 -0 55.2906)
(0 -0 40.72)
(0 -0 40.4649)
(0 -0 40.6836)
(0 -0 40.9679)
(0 -0 41.3652)
(0 -0 41.7795)
(0 -0 42.1459)
(0 -0 42.4817)
(0 -0 42.8081)
(0 -0 43.1259)
(0 -0 43.431)
(0 -0 43.7238)
(0 -0 44.0056)
(0 -0 44.2773)
(0 -0 44.5391)
(0 -0 44.7916)
(0 -0 45.0359)
(0 -0 45.2733)
(0 -0 45.5055)
(0 -0 45.7335)
(0 -0 45.9583)
(0 -0 46.1802)
(0 -0 46.3991)
(0 -0 46.6149)
(0 -0 46.8273)
(0 -0 47.0362)
(0 -0 47.2415)
(0 -0 47.4432)
(0 -0 47.6413)
(0 -0 47.8357)
(0 -0 48.0266)
(0 -0 48.214)
(0 -0 48.3979)
(0 -0 48.5782)
(0 -0 48.755)
(0 -0 48.928)
(0 -0 49.097)
(0 -0 49.2618)
(0 -0 49.4222)
(0 -0 49.578)
(0 -0 49.7285)
(0 -0 49.8741)
(0 -0 50.0132)
(0 -0 50.1472)
(0 -0 50.2719)
(0 -0 50.3925)
(0 -0 50.4968)
(0 -0 50.6018)
(0 -0 50.6753)
(0 -0 50.7657)
(0 -0 37.4773)
(0 -0 37.2685)
(0 -0 37.479)
(0 -0 37.725)
(0 -0 38.0671)
(0 -0 38.4344)
(0 -0 38.764)
(0 -0 39.0648)
(0 -0 39.3563)
(0 -0 39.6407)
(0 -0 39.9143)
(0 -0 40.1768)
(0 -0 40.4293)
(0 -0 40.6726)
(0 -0 40.9068)
(0 -0 41.1324)
(0 -0 41.3505)
(0 -0 41.5626)
(0 -0 41.7701)
(0 -0 41.9744)
(0 -0 42.1761)
(0 -0 42.3755)
(0 -0 42.5726)
(0 -0 42.7671)
(0 -0 42.9587)
(0 -0 43.1472)
(0 -0 43.3325)
(0 -0 43.5145)
(0 -0 43.6933)
(0 -0 43.8688)
(0 -0 44.0411)
(0 -0 44.2102)
(0 -0 44.3762)
(0 -0 44.5389)
(0 -0 44.6984)
(0 -0 44.8545)
(0 -0 45.007)
(0 -0 45.1557)
(0 -0 45.3003)
(0 -0 45.4408)
(0 -0 45.5766)
(0 -0 45.708)
(0 -0 45.8335)
(0 -0 45.9549)
(0 -0 46.0677)
(0 -0 46.1774)
(0 -0 46.2724)
(0 -0 46.3688)
(0 -0 46.4366)
(0 -0 46.5213)
(0 -0 34.4774)
(0 -0 34.3061)
(0 -0 34.5045)
(0 -0 34.7175)
(0 -0 35.0111)
(0 -0 35.335)
(0 -0 35.6305)
(0 -0 35.8995)
(0 -0 36.1591)
(0 -0 36.4128)
(0 -0 36.6574)
(0 -0 36.892)
(0 -0 37.1176)
(0 -0 37.3345)
(0 -0 37.5432)
(0 -0 37.7439)
(0 -0 37.9378)
(0 -0 38.1264)
(0 -0 38.3111)
(0 -0 38.4933)
(0 -0 38.6737)
(0 -0 38.8524)
(0 -0 39.0292)
(0 -0 39.204)
(0 -0 39.3763)
(0 -0 39.5459)
(0 -0 39.7126)
(0 -0 39.8764)
(0 -0 40.0373)
(0 -0 40.1952)
(0 -0 40.3502)
(0 -0 40.5023)
(0 -0 40.6515)
(0 -0 40.7979)
(0 -0 40.9412)
(0 -0 41.0815)
(0 -0 41.2184)
(0 -0 41.3519)
(0 -0 41.4816)
(0 -0 41.6075)
(0 -0 41.7291)
(0 -0 41.8469)
(0 -0 41.9594)
(0 -0 42.0682)
(0 -0 42.1694)
(0 -0 42.268)
(0 -0 42.3534)
(0 -0 42.4407)
(0 -0 42.5021)
(0 -0 42.5799)
(0 -0 31.709)
(0 -0 31.5681)
(0 -0 31.7514)
(0 -0 31.9365)
(0 -0 32.1877)
(0 -0 32.4718)
(0 -0 32.736)
(0 -0 32.9761)
(0 -0 33.2068)
(0 -0 33.4324)
(0 -0 33.6504)
(0 -0 33.8595)
(0 -0 34.0602)
(0 -0 34.2531)
(0 -0 34.4382)
(0 -0 34.616)
(0 -0 34.7876)
(0 -0 34.9546)
(0 -0 35.1183)
(0 -0 35.2802)
(0 -0 35.4409)
(0 -0 35.6005)
(0 -0 35.7588)
(0 -0 35.9155)
(0 -0 36.07)
(0 -0 36.2222)
(0 -0 36.3718)
(0 -0 36.5188)
(0 -0 36.6631)
(0 -0 36.8048)
(0 -0 36.9438)
(0 -0 37.0802)
(0 -0 37.214)
(0 -0 37.3452)
(0 -0 37.4736)
(0 -0 37.5992)
(0 -0 37.7217)
(0 -0 37.841)
(0 -0 37.9568)
(0 -0 38.0692)
(0 -0 38.1777)
(0 -0 38.2827)
(0 -0 38.383)
(0 -0 38.4801)
(0 -0 38.5703)
(0 -0 38.6585)
(0 -0 38.7348)
(0 -0 38.8133)
(0 -0 38.8684)
(0 -0 38.9394)
(0 -0 29.1599)
(0 -0 29.0438)
(0 -0 29.2102)
(0 -0 29.3717)
(0 -0 29.5864)
(0 -0 29.8344)
(0 -0 30.0698)
(0 -0 30.2838)
(0 -0 30.4884)
(0 -0 30.6885)
(0 -0 30.8822)
(0 -0 31.0681)
(0 -0 31.2463)
(0 -0 31.4171)
(0 -0 31.5807)
(0 -0 31.7375)
(0 -0 31.8887)
(0 -0 32.0357)
(0 -0 32.1803)
(0 -0 32.3236)
(0 -0 32.4663)
(0 -0 32.6085)
(0 -0 32.7498)
(0 -0 32.8898)
(0 -0 33.0282)
(0 -0 33.1644)
(0 -0 33.2984)
(0 -0 33.43)
(0 -0 33.5592)
(0 -0 33.686)
(0 -0 33.8103)
(0 -0 33.9323)
(0 -0 34.0519)
(0 -0 34.1691)
(0 -0 34.2838)
(0 -0 34.3959)
(0 -0 34.5051)
(0 -0 34.6114)
(0 -0 34.7144)
(0 -0 34.8144)
(0 -0 34.9107)
(0 -0 35.004)
(0 -0 35.093)
(0 -0 35.1793)
(0 -0 35.2595)
(0 -0 35.338)
(0 -0 35.406)
(0 -0 35.4761)
(0 -0 35.5256)
(0 -0 35.5898)
(0 -0 26.8177)
(0 -0 26.7217)
(0 -0 26.8703)
(0 -0 27.0121)
(0 -0 27.1954)
(0 -0 27.4111)
(0 -0 27.6202)
(0 -0 27.8109)
(0 -0 27.9921)
(0 -0 28.1691)
(0 -0 28.3408)
(0 -0 28.5056)
(0 -0 28.6633)
(0 -0 28.8141)
(0 -0 28.9581)
(0 -0 29.0958)
(0 -0 29.2284)
(0 -0 29.3573)
(0 -0 29.4844)
(0 -0 29.6108)
(0 -0 29.7372)
(0 -0 29.8635)
(0 -0 29.9894)
(0 -0 30.1143)
(0 -0 30.2379)
(0 -0 30.3597)
(0 -0 30.4795)
(0 -0 30.5971)
(0 -0 30.7125)
(0 -0 30.8257)
(0 -0 30.9367)
(0 -0 31.0455)
(0 -0 31.1522)
(0 -0 31.2566)
(0 -0 31.3588)
(0 -0 31.4585)
(0 -0 31.5556)
(0 -0 31.6499)
(0 -0 31.7413)
(0 -0 31.8298)
(0 -0 31.915)
(0 -0 31.9976)
(0 -0 32.0763)
(0 -0 32.1526)
(0 -0 32.2237)
(0 -0 32.2933)
(0 -0 32.3537)
(0 -0 32.4162)
(0 -0 32.4605)
(0 -0 32.5182)
(0 -0 24.6695)
(0 -0 24.5899)
(0 -0 24.7207)
(0 -0 24.8455)
(0 -0 25.0023)
(0 -0 25.1893)
(0 -0 25.3746)
(0 -0 25.5443)
(0 -0 25.7047)
(0 -0 25.8612)
(0 -0 26.0131)
(0 -0 26.1589)
(0 -0 26.2981)
(0 -0 26.4309)
(0 -0 26.5572)
(0 -0 26.6776)
(0 -0 26.7932)
(0 -0 26.9058)
(0 -0 27.017)
(0 -0 27.1282)
(0 -0 27.2397)
(0 -0 27.3517)
(0 -0 27.4637)
(0 -0 27.5751)
(0 -0 27.6853)
(0 -0 27.794)
(0 -0 27.901)
(0 -0 28.0059)
(0 -0 28.1088)
(0 -0 28.2098)
(0 -0 28.3087)
(0 -0 28.4056)
(0 -0 28.5005)
(0 -0 28.5934)
(0 -0 28.6842)
(0 -0 28.7727)
(0 -0 28.8587)
(0 -0 28.9422)
(0 -0 29.0229)
(0 -0 29.101)
(0 -0 29.1762)
(0 -0 29.2489)
(0 -0 29.3183)
(0 -0 29.3856)
(0 -0 29.4484)
(0 -0 29.5099)
(0 -0 29.5634)
(0 -0 29.6189)
(0 -0 29.6584)
(0 -0 29.7101)
(0 -0 22.7024)
(0 -0 22.636)
(0 -0 22.7496)
(0 -0 22.8598)
(0 -0 22.9941)
(0 -0 23.156)
(0 -0 23.3199)
(0 -0 23.471)
(0 -0 23.613)
(0 -0 23.7511)
(0 -0 23.8853)
(0 -0 24.0141)
(0 -0 24.1369)
(0 -0 24.2534)
(0 -0 24.3638)
(0 -0 24.4686)
(0 -0 24.5691)
(0 -0 24.6669)
(0 -0 24.7638)
(0 -0 24.8612)
(0 -0 24.9595)
(0 -0 25.0586)
(0 -0 25.1581)
(0 -0 25.2574)
(0 -0 25.3557)
(0 -0 25.4527)
(0 -0 25.5481)
(0 -0 25.6417)
(0 -0 25.7334)
(0 -0 25.8233)
(0 -0 25.9113)
(0 -0 25.9975)
(0 -0 26.0818)
(0 -0 26.1643)
(0 -0 26.2448)
(0 -0 26.3232)
(0 -0 26.3992)
(0 -0 26.4729)
(0 -0 26.544)
(0 -0 26.6127)
(0 -0 26.6788)
(0 -0 26.7427)
(0 -0 26.8036)
(0 -0 26.8628)
(0 -0 26.918)
(0 -0 26.9721)
(0 -0 27.0195)
(0 -0 27.0685)
(0 -0 27.1037)
(0 -0 27.1498)
(0 -0 20.9034)
(0 -0 20.8475)
(0 -0 20.9451)
(0 -0 21.0426)
(0 -0 21.158)
(0 -0 21.2981)
(0 -0 21.4428)
(0 -0 21.5773)
(0 -0 21.7033)
(0 -0 21.8252)
(0 -0 21.9436)
(0 -0 22.0573)
(0 -0 22.1654)
(0 -0 22.2674)
(0 -0 22.3636)
(0 -0 22.4545)
(0 -0 22.5413)
(0 -0 22.6259)
(0 -0 22.7101)
(0 -0 22.7951)
(0 -0 22.8816)
(0 -0 22.9693)
(0 -0 23.0577)
(0 -0 23.1461)
(0 -0 23.2338)
(0 -0 23.3203)
(0 -0 23.4054)
(0 -0 23.4889)
(0 -0 23.5706)
(0 -0 23.6507)
(0 -0 23.729)
(0 -0 23.8056)
(0 -0 23.8804)
(0 -0 23.9536)
(0 -0 24.0249)
(0 -0 24.0942)
(0 -0 24.1613)
(0 -0 24.2262)
(0 -0 24.2886)
(0 -0 24.3489)
(0 -0 24.4068)
(0 -0 24.4626)
(0 -0 24.516)
(0 -0 24.5678)
(0 -0 24.6163)
(0 -0 24.6639)
(0 -0 24.7057)
(0 -0 24.7488)
(0 -0 24.7802)
(0 -0 24.8209)
(0 -0 19.2596)
(0 -0 19.2121)
(0 -0 19.2952)
(0 -0 19.3814)
(0 -0 19.481)
(0 -0 19.6023)
(0 -0 19.73)
(0 -0 19.85)
(0 -0 19.9618)
(0 -0 20.0695)
(0 -0 20.1741)
(0 -0 20.2744)
(0 -0 20.3694)
(0 -0 20.4587)
(0 -0 20.5422)
(0 -0 20.6206)
(0 -0 20.6952)
(0 -0 20.768)
(0 -0 20.8408)
(0 -0 20.915)
(0 -0 20.9909)
(0 -0 21.0685)
(0 -0 21.1471)
(0 -0 21.2259)
(0 -0 21.3042)
(0 -0 21.3815)
(0 -0 21.4575)
(0 -0 21.532)
(0 -0 21.6049)
(0 -0 21.6762)
(0 -0 21.7458)
(0 -0 21.8139)
(0 -0 21.8804)
(0 -0 21.9452)
(0 -0 22.0083)
(0 -0 22.0695)
(0 -0 22.1287)
(0 -0 22.1857)
(0 -0 22.2404)
(0 -0 22.2931)
(0 -0 22.3437)
(0 -0 22.3924)
(0 -0 22.4391)
(0 -0 22.4843)
(0 -0 22.5268)
(0 -0 22.5684)
(0 -0 22.6052)
(0 -0 22.643)
(0 -0 22.671)
(0 -0 22.7067)
(0 -0 17.7585)
(0 -0 17.7176)
(0 -0 17.7877)
(0 -0 17.864)
(0 -0 17.9504)
(0 -0 18.0557)
(0 -0 18.1684)
(0 -0 18.2755)
(0 -0 18.3752)
(0 -0 18.4705)
(0 -0 18.5629)
(0 -0 18.6514)
(0 -0 18.7349)
(0 -0 18.8129)
(0 -0 18.8852)
(0 -0 18.9525)
(0 -0 19.0163)
(0 -0 19.0786)
(0 -0 19.1414)
(0 -0 19.2059)
(0 -0 19.2725)
(0 -0 19.3412)
(0 -0 19.4111)
(0 -0 19.4815)
(0 -0 19.5516)
(0 -0 19.6208)
(0 -0 19.6888)
(0 -0 19.7554)
(0 -0 19.8205)
(0 -0 19.8841)
(0 -0 19.9461)
(0 -0 20.0067)
(0 -0 20.0657)
(0 -0 20.1233)
(0 -0 20.1791)
(0 -0 20.2331)
(0 -0 20.2852)
(0 -0 20.3352)
(0 -0 20.3831)
(0 -0 20.4291)
(0 -0 20.4731)
(0 -0 20.5155)
(0 -0 20.5562)
(0 -0 20.5955)
(0 -0 20.6327)
(0 -0 20.669)
(0 -0 20.7014)
(0 -0 20.7344)
(0 -0 20.7593)
(0 -0 20.7905)
(0 -0 16.3879)
(0 -0 16.3523)
(0 -0 16.4111)
(0 -0 16.4783)
(0 -0 16.5538)
(0 -0 16.6456)
(0 -0 16.7453)
(0 -0 16.8412)
(0 -0 16.9302)
(0 -0 17.0149)
(0 -0 17.0966)
(0 -0 17.1748)
(0 -0 17.2482)
(0 -0 17.3162)
(0 -0 17.3786)
(0 -0 17.4362)
(0 -0 17.4904)
(0 -0 17.5435)
(0 -0 17.5973)
(0 -0 17.6533)
(0 -0 17.7119)
(0 -0 17.7727)
(0 -0 17.8351)
(0 -0 17.8981)
(0 -0 17.961)
(0 -0 18.0232)
(0 -0 18.0842)
(0 -0 18.1439)
(0 -0 18.2022)
(0 -0 18.259)
(0 -0 18.3143)
(0 -0 18.3683)
(0 -0 18.4208)
(0 -0 18.4719)
(0 -0 18.5214)
(0 -0 18.5691)
(0 -0 18.6149)
(0 -0 18.6587)
(0 -0 18.7006)
(0 -0 18.7406)
(0 -0 18.7789)
(0 -0 18.8157)
(0 -0 18.851)
(0 -0 18.8852)
(0 -0 18.9176)
(0 -0 18.9492)
(0 -0 18.9777)
(0 -0 19.0064)
(0 -0 19.0286)
(0 -0 19.0556)
(0 -0 15.1363)
(0 -0 15.1048)
(0 -0 15.1538)
(0 -0 15.2131)
(0 -0 15.2796)
(0 -0 15.36)
(0 -0 15.4484)
(0 -0 15.5345)
(0 -0 15.6144)
(0 -0 15.6899)
(0 -0 15.7623)
(0 -0 15.8315)
(0 -0 15.8962)
(0 -0 15.9555)
(0 -0 16.0092)
(0 -0 16.0581)
(0 -0 16.1039)
(0 -0 16.1488)
(0 -0 16.1948)
(0 -0 16.2433)