/*--------------------------------*- C++ -*----------------------------------*\
  =========                 |
  \\      /  F ield         | OpenFOAM: The Open Source CFD Toolbox
   \\    /   O peration     | Website:  https://openfoam.org
    \\  /    A nd           | Version:  7
     \\/     M anipulation  |
\*---------------------------------------------------------------------------*/
FoamFile
{
    version     2.0;
    format      ascii;
    class       volVectorField;
    location    "0.29";
    object      wallShearStress;
}
// * * * * * * * * * * * * * * * * * * * * * * * * * * * * * * * * * * * * * //

dimensions      [0 2 -2 0 0 0 0];

internalField   uniform (0 0 0);

boundaryField
{
    velocityInlet
    {
        type            calculated;
        value           uniform (0 0 0);
    }
    pressureOutlet
    {
        type            calculated;
        value           uniform (0 0 0);
    }
    fixedWalls
    {
        type            calculated;
        value           nonuniform List<vector> 
100
(
(-0.0112442 -0.00209851 0)
(-0.0051126 -0.00048756 0)
(-0.00409333 -0.000105664 0)
(-0.00336226 -8.48911e-05 0)
(-0.00272407 -7.54233e-05 0)
(-0.00222069 -5.53137e-05 0)
(-0.00185664 -3.61062e-05 0)
(-0.00161935 -2.04295e-05 0)
(-0.00152629 -1.97533e-06 0)
(-0.00165324 3.60851e-05 0)
(-0.00214269 0.000101258 0)
(-0.00300232 0.000158884 0)
(-0.00377856 0.000144616 0)
(-0.00354394 -6.65908e-05 0)
(-0.00144079 -0.000403347 0)
(0.00188915 -0.000520983 0)
(0.00415303 -0.000301323 0)
(0.00391813 8.62982e-05 0)
(0.00184395 0.000314779 0)
(-0.00066585 0.000311542 0)
(-0.00259497 0.000213079 0)
(-0.00372971 0.000113093 0)
(-0.00424979 4.84118e-05 0)
(-0.00440742 1.51897e-05 0)
(-0.00438067 -1.81978e-06 0)
(-0.00426714 -1.00046e-05 0)
(-0.00411072 -1.49234e-05 0)
(-0.00393317 -1.80503e-05 0)
(-0.00375355 -1.91223e-05 0)
(-0.0035928 -1.75649e-05 0)
(-0.00348501 -9.46755e-06 0)
(-0.00346761 4.79916e-06 0)
(-0.0035047 9.22053e-06 0)
(-0.00345869 -1.03572e-05 0)
(-0.00333007 -2.45837e-05 0)
(-0.00350303 3.19529e-05 0)
(-0.00445153 0.000141003 0)
(-0.00609607 0.000217737 0)
(-0.00748481 0.000195794 0)
(-0.00694694 -8.93672e-05 0)
(-0.00316208 -0.000540009 0)
(0.00209293 -0.00063434 0)
(0.00559157 -0.000407042 0)
(0.00633691 -6.46862e-05 0)
(0.00502239 0.000161258 0)
(0.00290606 0.000222859 0)
(0.00087383 0.000191683 0)
(-0.000714028 0.000144397 0)
(-0.00181975 9.38932e-05 0)
(-0.00255745 5.98949e-05 0)
(-0.00303276 3.77968e-05 0)
(-0.00332947 2.39487e-05 0)
(-0.00350693 1.56992e-05 0)
(-0.00360726 1.11472e-05 0)
(-0.00365987 8.91397e-06 0)
(-0.00368339 7.76308e-06 0)
(-0.00368743 6.68809e-06 0)
(-0.00367434 5.19618e-06 0)
(-0.00363956 2.94746e-06 0)
(-0.00357124 -8.98842e-07 0)
(-0.00345364 -6.74848e-06 0)
(-0.00327574 -1.39223e-05 0)
(-0.00304147 -2.05955e-05 0)
(-0.00277459 -2.453e-05 0)
(-0.00251357 -2.41428e-05 0)
(-0.0022986 -1.93835e-05 0)
(-0.00215743 -1.18891e-05 0)
(-0.00209662 -4.26764e-06 0)
(-0.00210152 1.78754e-06 0)
(-0.00214469 5.08671e-06 0)
(-0.00219715 5.50718e-06 0)
(-0.00223705 3.92937e-06 0)
(-0.00225368 1.63848e-06 0)
(-0.00224696 -7.18803e-07 0)
(-0.00222448 -2.27267e-06 0)
(-0.00219777 -2.67694e-06 0)
(-0.00217867 -1.99578e-06 0)
(-0.00217587 -6.8541e-07 0)
(-0.00219329 9.39268e-07 0)
(-0.00223079 2.34529e-06 0)
(-0.00228879 3.77713e-06 0)
(-0.00237376 6.11227e-06 0)
(-0.00249965 1.01869e-05 0)
(-0.00268777 1.69936e-05 0)
(-0.0029725 2.80541e-05 0)
(-0.00338527 4.22851e-05 0)
(-0.00388234 5.07858e-05 0)
(-0.00425353 3.96397e-05 0)
(-0.004147 -5.62421e-06 0)
(-0.0032418 -7.76603e-05 0)
(-0.00155194 -0.000144288 0)
(0.00047823 -0.000163193 0)
(0.00209454 -0.000122598 0)
(0.00279257 -4.47324e-05 0)
(0.00246935 2.89302e-05 0)
(0.00155096 6.93545e-05 0)
(0.000375129 7.91123e-05 0)
(-0.000793092 7.45112e-05 0)
(-0.00165501 6.40766e-05 0)
(-0.0029268 5.09507e-05 0)
)
;
    }
    bottomWall
    {
        type            calculated;
        value           nonuniform List<vector> 
800
(
(-0.0353512 0.00216563 0)
(-0.0160361 0.000524978 0)
(-0.0105897 0.000100571 0)
(-0.00845452 3.46044e-05 0)
(-0.00749007 1.96981e-05 0)
(-0.006854 1.60268e-05 0)
(-0.00634483 1.32265e-05 0)
(-0.00593325 1.0777e-05 0)
(-0.0055983 8.97628e-06 0)
(-0.00531924 7.67653e-06 0)
(-0.00508151 6.69166e-06 0)
(-0.00487568 5.91346e-06 0)
(-0.00469528 5.283e-06 0)
(-0.00453558 4.76341e-06 0)
(-0.004393 4.32911e-06 0)
(-0.00426476 3.9616e-06 0)
(-0.00414867 3.64721e-06 0)
(-0.004043 3.37569e-06 0)
(-0.00394631 3.1392e-06 0)
(-0.00385745 2.93168e-06 0)
(-0.00377546 2.74836e-06 0)
(-0.00369954 2.58543e-06 0)
(-0.00362899 2.43983e-06 0)
(-0.00356325 2.30908e-06 0)
(-0.00350182 2.19111e-06 0)
(-0.00344426 2.08424e-06 0)
(-0.00339022 1.98703e-06 0)
(-0.00333936 1.8983e-06 0)
(-0.0032914 1.81702e-06 0)
(-0.0032461 1.74234e-06 0)
(-0.00320323 1.67352e-06 0)
(-0.0031626 1.60993e-06 0)
(-0.00312403 1.55102e-06 0)
(-0.00308736 1.49631e-06 0)
(-0.00305246 1.4454e-06 0)
(-0.0030192 1.39791e-06 0)
(-0.00298747 1.35354e-06 0)
(-0.00295715 1.31199e-06 0)
(-0.00292817 1.27301e-06 0)
(-0.00290042 1.2364e-06 0)
(-0.00287384 1.20195e-06 0)
(-0.00284835 1.16947e-06 0)
(-0.00282388 1.13884e-06 0)
(-0.00280038 1.10983e-06 0)
(-0.00277779 1.08252e-06 0)
(-0.00275607 1.05639e-06 0)
(-0.00273514 1.03208e-06 0)
(-0.002715 1.00816e-06 0)
(-0.00269556 9.86667e-07 0)
(-0.00267684 9.63734e-07 0)
(-0.00266117 9.44935e-07 0)
(-0.00264824 9.34258e-07 0)
(-0.00263547 9.20594e-07 0)
(-0.00262289 9.06029e-07 0)
(-0.0026105 8.92382e-07 0)
(-0.0025983 8.79399e-07 0)
(-0.00258628 8.66724e-07 0)
(-0.00257442 8.54319e-07 0)
(-0.00256274 8.42211e-07 0)
(-0.00255122 8.30394e-07 0)
(-0.00253986 8.18853e-07 0)
(-0.00252865 8.07573e-07 0)
(-0.0025176 7.96548e-07 0)
(-0.0025067 7.85769e-07 0)
(-0.00249595 7.75228e-07 0)
(-0.00248534 7.64919e-07 0)
(-0.00247487 7.54833e-07 0)
(-0.00246454 7.44965e-07 0)
(-0.00245435 7.35309e-07 0)
(-0.00244428 7.25857e-07 0)
(-0.00243434 7.16604e-07 0)
(-0.00242453 7.07544e-07 0)
(-0.00241484 6.98672e-07 0)
(-0.00240528 6.8998e-07 0)
(-0.00239583 6.81465e-07 0)
(-0.0023865 6.73121e-07 0)
(-0.00237728 6.64941e-07 0)
(-0.00236817 6.56922e-07 0)
(-0.00235917 6.49059e-07 0)
(-0.00235028 6.41346e-07 0)
(-0.0023415 6.3378e-07 0)
(-0.00233281 6.26358e-07 0)
(-0.00232423 6.19074e-07 0)
(-0.00231575 6.11927e-07 0)
(-0.00230736 6.04912e-07 0)
(-0.00229907 5.98026e-07 0)
(-0.00229088 5.91267e-07 0)
(-0.00228277 5.84632e-07 0)
(-0.00227476 5.78118e-07 0)
(-0.00226683 5.71722e-07 0)
(-0.002259 5.65442e-07 0)
(-0.00225124 5.59274e-07 0)
(-0.00224358 5.53218e-07 0)
(-0.00223599 5.47269e-07 0)
(-0.00222848 5.41427e-07 0)
(-0.00222106 5.35687e-07 0)
(-0.00221371 5.30047e-07 0)
(-0.00220644 5.24505e-07 0)
(-0.00219925 5.19058e-07 0)
(-0.00219213 5.13704e-07 0)
(-0.00218508 5.0844e-07 0)
(-0.0021781 5.03263e-07 0)
(-0.0021712 4.98172e-07 0)
(-0.00216436 4.93163e-07 0)
(-0.00215759 4.88234e-07 0)
(-0.00215089 4.83384e-07 0)
(-0.00214426 4.7861e-07 0)
(-0.00213769 4.7391e-07 0)
(-0.00213118 4.69282e-07 0)
(-0.00212474 4.64724e-07 0)
(-0.00211836 4.60235e-07 0)
(-0.00211204 4.55813e-07 0)
(-0.00210578 4.51456e-07 0)
(-0.00209958 4.47163e-07 0)
(-0.00209344 4.42932e-07 0)
(-0.00208736 4.38762e-07 0)
(-0.00208134 4.34652e-07 0)
(-0.00207537 4.306e-07 0)
(-0.00206945 4.26606e-07 0)
(-0.00206359 4.22668e-07 0)
(-0.00205778 4.18785e-07 0)
(-0.00205203 4.14955e-07 0)
(-0.00204633 4.11179e-07 0)
(-0.00204068 4.07455e-07 0)
(-0.00203508 4.03781e-07 0)
(-0.00202953 4.00158e-07 0)
(-0.00202403 3.96583e-07 0)
(-0.00201858 3.93057e-07 0)
(-0.00201318 3.89578e-07 0)
(-0.00200783 3.86145e-07 0)
(-0.00200252 3.82757e-07 0)
(-0.00199726 3.79414e-07 0)
(-0.00199204 3.76116e-07 0)
(-0.00198687 3.7286e-07 0)
(-0.00198174 3.69647e-07 0)
(-0.00197666 3.66475e-07 0)
(-0.00197162 3.63347e-07 0)
(-0.00196662 3.60258e-07 0)
(-0.00196167 3.57214e-07 0)
(-0.00195675 3.54203e-07 0)
(-0.00195188 3.51243e-07 0)
(-0.00194705 3.48305e-07 0)
(-0.00194226 3.45432e-07 0)
(-0.0019375 3.42556e-07 0)
(-0.00193279 3.39778e-07 0)
(-0.00192812 3.36946e-07 0)
(-0.00192348 3.34277e-07 0)
(-0.00191888 3.31453e-07 0)
(-0.00191432 3.28883e-07 0)
(-0.00190979 3.25979e-07 0)
(-0.001906 3.23395e-07 0)
(-0.00190289 3.22043e-07 0)
(-0.00189978 3.2041e-07 0)
(-0.00189667 3.18534e-07 0)
(-0.00189355 3.16675e-07 0)
(-0.00189043 3.14867e-07 0)
(-0.0018873 3.1308e-07 0)
(-0.00188417 3.11295e-07 0)
(-0.00188104 3.0951e-07 0)
(-0.0018779 3.07728e-07 0)
(-0.00187476 3.05951e-07 0)
(-0.00187162 3.04178e-07 0)
(-0.00186847 3.02409e-07 0)
(-0.00186531 3.00642e-07 0)
(-0.00186216 2.9888e-07 0)
(-0.001859 2.97118e-07 0)
(-0.00185583 2.95361e-07 0)
(-0.00185267 2.93607e-07 0)
(-0.0018495 2.91858e-07 0)
(-0.00184633 2.90112e-07 0)
(-0.00184315 2.8837e-07 0)
(-0.00183997 2.86632e-07 0)
(-0.00183679 2.84901e-07 0)
(-0.0018336 2.83173e-07 0)
(-0.00183042 2.81452e-07 0)
(-0.00182723 2.79734e-07 0)
(-0.00182403 2.78021e-07 0)
(-0.00182084 2.76314e-07 0)
(-0.00181764 2.74612e-07 0)
(-0.00181444 2.72915e-07 0)
(-0.00181123 2.71226e-07 0)
(-0.00180803 2.69541e-07 0)
(-0.00180482 2.67864e-07 0)
(-0.00180161 2.66191e-07 0)
(-0.00179839 2.64525e-07 0)
(-0.00179518 2.62865e-07 0)
(-0.00179196 2.61212e-07 0)
(-0.00178874 2.59565e-07 0)
(-0.00178552 2.57926e-07 0)
(-0.00178229 2.56294e-07 0)
(-0.00177907 2.54671e-07 0)
(-0.00177584 2.53054e-07 0)
(-0.00177261 2.51446e-07 0)
(-0.00176938 2.49846e-07 0)
(-0.00176615 2.48255e-07 0)
(-0.00176291 2.46673e-07 0)
(-0.00175967 2.45102e-07 0)
(-0.00175643 2.43537e-07 0)
(-0.00175319 2.41984e-07 0)
(-0.00174995 2.40443e-07 0)
(-0.0017467 2.38914e-07 0)
(-0.00174346 2.37394e-07 0)
(-0.00174021 2.35886e-07 0)
(-0.00173696 2.34388e-07 0)
(-0.00173371 2.32903e-07 0)
(-0.00173045 2.31429e-07 0)
(-0.0017272 2.29967e-07 0)
(-0.00172394 2.2852e-07 0)
(-0.00172068 2.27084e-07 0)
(-0.00171742 2.25663e-07 0)
(-0.00171416 2.24254e-07 0)
(-0.00171089 2.22857e-07 0)
(-0.00170762 2.21475e-07 0)
(-0.00170435 2.20102e-07 0)
(-0.00170108 2.18742e-07 0)
(-0.0016978 2.17406e-07 0)
(-0.00169453 2.1608e-07 0)
(-0.00169125 2.14766e-07 0)
(-0.00168797 2.13466e-07 0)
(-0.00168468 2.12188e-07 0)
(-0.00168139 2.10924e-07 0)
(-0.0016781 2.09677e-07 0)
(-0.00167481 2.08445e-07 0)
(-0.00167151 2.07236e-07 0)
(-0.00166821 2.0603e-07 0)
(-0.00166491 2.04879e-07 0)
(-0.0016616 2.037e-07 0)
(-0.00165829 2.02622e-07 0)
(-0.00165497 2.01439e-07 0)
(-0.00165165 2.0049e-07 0)
(-0.00164832 1.99237e-07 0)
(-0.00164499 1.98542e-07 0)
(-0.00164166 1.97015e-07 0)
(-0.0016383 1.96909e-07 0)
(-0.00163497 1.9467e-07 0)
(-0.00163158 1.9586e-07 0)
(-0.00162827 1.91806e-07 0)
(-0.00162481 1.9599e-07 0)
(-0.00162156 1.87605e-07 0)
(-0.00161798 1.98587e-07 0)
(-0.00161486 1.80291e-07 0)
(-0.00161102 2.06315e-07 0)
(-0.0016082 1.66264e-07 0)
(-0.00160389 2.24312e-07 0)
(-0.00160166 1.38786e-07 0)
(-0.00159648 2.61143e-07 0)
(-0.00159529 8.70266e-08 0)
(-0.00158878 3.26282e-07 0)
(-0.00158908 5.60696e-09 0)
(-0.00158082 3.58409e-07 0)
(-0.0353513 -0.00216561 0)
(-0.0160369 -0.000524944 0)
(-0.0105916 -0.000100533 0)
(-0.00845733 -3.457e-05 0)
(-0.00749381 -1.96653e-05 0)
(-0.00685862 -1.59953e-05 0)
(-0.00635027 -1.31965e-05 0)
(-0.00593945 -1.07479e-05 0)
(-0.00560521 -8.94783e-06 0)
(-0.00532683 -7.64849e-06 0)
(-0.00508974 -6.66393e-06 0)
(-0.00488451 -5.88602e-06 0)
(-0.00470468 -5.25586e-06 0)
(-0.00454551 -4.73652e-06 0)
(-0.00440341 -4.30229e-06 0)
(-0.00427563 -3.93456e-06 0)
(-0.00415999 -3.61955e-06 0)
(-0.00405474 -3.34689e-06 0)
(-0.00395848 -3.10869e-06 0)
(-0.00387008 -2.89879e-06 0)
(-0.00378858 -2.71235e-06 0)
(-0.00371319 -2.54548e-06 0)
(-0.00364326 -2.39499e-06 0)
(-0.00357821 -2.25829e-06 0)
(-0.00351758 -2.13314e-06 0)
(-0.00346096 -2.01769e-06 0)
(-0.003408 -1.91024e-06 0)
(-0.00335842 -1.8094e-06 0)
(-0.00331196 -1.71367e-06 0)
(-0.0032684 -1.62198e-06 0)
(-0.0032276 -1.5327e-06 0)
(-0.00318938 -1.44515e-06 0)
(-0.00315367 -1.35698e-06 0)
(-0.00312036 -1.26828e-06 0)
(-0.00308943 -1.17505e-06 0)
(-0.00306086 -1.07878e-06 0)
(-0.00303468 -9.72592e-07 0)
(-0.00301101 -8.5961e-07 0)
(-0.00298979 -7.30096e-07 0)
(-0.00297165 -5.84381e-07 0)
(-0.00295586 -4.1946e-07 0)
(-0.00294475 -2.07069e-07 0)
(-0.00293497 1.03264e-09 0)
(-0.00293421 3.64933e-07 0)
(-0.00293061 5.99887e-07 0)
(-0.00294744 1.32911e-06 0)
(-0.00294922 1.39126e-06 0)
(-0.00299663 3.53242e-06 0)
(-0.00302037 -4.16577e-06 0)
(-0.00285457 0.000214835 0)
(7.40018e-05 -1.67292e-05 0)
(5.64534e-05 -7.21547e-05 0)
(5.13486e-06 -5.45198e-05 0)
(-4.73229e-05 2.86681e-05 0)
(-8.91212e-05 0.000150719 0)
(-0.000139953 0.00031905 0)
(-0.000198359 0.000544735 0)
(-0.00024388 0.000819241 0)
(-0.00025684 0.00111035 0)
(-0.000233544 0.00137492 0)
(-0.000182733 0.00157961 0)
(-0.000116205 0.00170642 0)
(-4.21065e-05 0.00174858 0)
(3.31246e-05 0.00170488 0)
(0.000106233 0.00157944 0)
(0.00017391 0.00137754 0)
(0.00023217 0.00110962 0)
(0.000278175 0.000791802 0)
(0.000314638 0.000442314 0)
(0.000340247 5.61153e-05 0)
(0.000332002 -0.000339545 0)
(0.000309414 -0.000701915 0)
(0.000282886 -0.00104085 0)
(0.000251799 -0.00135157 0)
(0.000217577 -0.00162828 0)
(0.00018214 -0.00186857 0)
(0.000147159 -0.0020725 0)
(0.000113828 -0.00224177 0)
(8.25864e-05 -0.00237891 0)
(5.3579e-05 -0.00248659 0)
(2.66005e-05 -0.00256772 0)
(1.43331e-06 -0.00262425 0)
(-2.08423e-05 -0.00265882 0)
(-4.29044e-05 -0.00267544 0)
(-6.91206e-05 -0.00267103 0)
(-9.64241e-05 -0.00264413 0)
(-0.000121288 -0.00259803 0)
(-0.000150875 -0.00253451 0)
(-0.00019004 -0.00244556 0)
(-0.000224116 -0.00232831 0)
(-0.000253067 -0.00219606 0)
(-0.000311663 -0.00204372 0)
(-0.000396605 -0.00183281 0)
(-0.000429538 -0.00155384 0)
(-0.00035463 -0.00126439 0)
(-0.000203813 -0.00103184 0)
(-4.4962e-05 -0.000875157 0)
(7.70817e-05 -0.000780904 0)
(0.000152397 -0.000731408 0)
(0.000189014 -0.000713568 0)
(0.000196596 -0.000717492 0)
(0.00018281 -0.000731246 0)
(0.000158567 -0.000745649 0)
(0.000135547 -0.000762416 0)
(0.000119255 -0.000793688 0)
(0.000107965 -0.00084788 0)
(9.89079e-05 -0.00092272 0)
(9.21865e-05 -0.00101124 0)
(8.44921e-05 -0.00110477 0)
(7.14528e-05 -0.00119081 0)
(5.34565e-05 -0.0012562 0)
(3.40308e-05 -0.00129431 0)
(1.50631e-05 -0.00130615 0)
(-4.77443e-06 -0.00129592 0)
(-2.70984e-05 -0.00126679 0)
(-5.19669e-05 -0.00122035 0)
(-7.79061e-05 -0.00115832 0)
(-0.000103292 -0.00108293 0)
(-0.000127067 -0.00099653 0)
(-0.000148838 -0.000901061 0)
(-0.000168495 -0.000797941 0)
(-0.000185754 -0.000688184 0)
(-0.000199918 -0.000572689 0)
(-0.000210271 -0.000452775 0)
(-0.000216398 -0.000329879 0)
(-0.000217043 -0.000203829 0)
(-0.000207159 -7.49171e-05 0)
(-0.000180661 5.10811e-05 0)
(-0.000139477 0.000162541 0)
(-9.62214e-05 0.000251225 0)
(-6.52282e-05 0.000320346 0)
(-5.208e-05 0.000379879 0)
(-5.53129e-05 0.000436836 0)
(-7.11159e-05 0.000494461 0)
(-9.41013e-05 0.000554803 0)
(-0.000116869 0.000618006 0)
(-0.000132188 0.000680697 0)
(-0.000137227 0.000737267 0)
(-0.000135444 0.000784395 0)
(-0.000132755 0.000824469 0)
(-0.000131534 0.000863143 0)
(-0.000129547 0.000904016 0)
(-0.000123744 0.000946219 0)
(-0.000113557 0.000987164 0)
(-9.97554e-05 0.00102507 0)
(-8.315e-05 0.00105844 0)
(-6.53485e-05 0.00108563 0)
(-4.8973e-05 0.00110626 0)
(-3.5469e-05 0.00112189 0)
(-2.37141e-05 0.0011339 0)
(-1.18995e-05 0.00114169 0)
(5.62352e-07 0.0011438 0)
(1.33184e-05 0.00113939 0)
(2.59918e-05 0.00112832 0)
(3.81342e-05 0.00111074 0)
(4.91299e-05 0.00108728 0)
(5.85568e-05 0.00105915 0)
(6.64872e-05 0.00102761 0)
(7.3141e-05 0.000993516 0)
(7.84903e-05 0.000957522 0)
(8.23494e-05 0.000920383 0)
(8.4637e-05 0.000882993 0)
(8.55015e-05 0.0008462 0)
(8.52722e-05 0.000810611 0)
(8.42445e-05 0.000776546 0)
(8.25291e-05 0.000744211 0)
(8.01145e-05 0.000713906 0)
(7.70123e-05 0.000686033 0)
(7.32937e-05 0.000661002 0)
(6.9064e-05 0.000639202 0)
(6.44729e-05 0.000621004 0)
(5.97473e-05 0.00060666 0)
(5.50298e-05 0.000596154 0)
(5.01551e-05 0.000589258 0)
(4.46274e-05 0.000585692 0)
(3.75605e-05 0.000585279 0)
(2.78997e-05 0.000588273 0)
(1.48724e-05 0.000595247 0)
(-1.97231e-06 0.000606818 0)
(-2.27368e-05 0.000623701 0)
(-4.70278e-05 0.000646588 0)
(-7.39966e-05 0.000675934 0)
(-0.000102511 0.000711844 0)
(-0.000131352 0.000754066 0)
(-0.000159351 0.000802071 0)
(-0.000185443 0.000855135 0)
(-0.00020867 0.00091238 0)
(-0.000228189 0.000972792 0)
(-0.000243265 0.00103526 0)
(-0.00025325 0.00109862 0)
(-0.000257539 0.00116166 0)
(-0.00025557 0.00122307 0)
(-0.000246852 0.00128142 0)
(-0.000231018 0.00133515 0)
(-0.000207905 0.00138264 0)
(-0.000177723 0.00142218 0)
(-0.000141184 0.00145218 0)
(-9.91035e-05 0.00147133 0)
(-5.22435e-05 0.00147864 0)
(-2.28108e-06 0.00147323 0)
(4.94039e-05 0.00145563 0)
(0.000102384 0.0014258 0)
(0.00015563 0.00138384 0)
(0.000208269 0.00133013 0)
(0.000259496 0.00126518 0)
(0.000308534 0.00118965 0)
(0.000354661 0.0011043 0)
(0.000397192 0.00101 0)
(0.000435474 0.000907669 0)
(0.000468878 0.000798323 0)
(0.000496797 0.000683045 0)
(0.000518643 0.000563013 0)
(0.000533862 0.000439527 0)
(0.000541987 0.000314026 0)
(0.000542714 0.000188088 0)
(0.000535808 6.33767e-05 0)
(0.000521128 -5.8325e-05 0)
(0.000498935 -0.00017521 0)
(0.000469771 -0.000285613 0)
(0.000434285 -0.000387979 0)
(0.000393334 -0.000481062 0)
(0.000347928 -0.000563963 0)
(0.000299147 -0.000636076 0)
(0.000248076 -0.000697091 0)
(0.000195766 -0.000746951 0)
(0.000143203 -0.000785791 0)
(9.13155e-05 -0.000813888 0)
(4.0957e-05 -0.00083166 0)
(-6.92116e-06 -0.000839672 0)
(-5.20659e-05 -0.000838695 0)
(-9.39707e-05 -0.00082913 0)
(-0.000131707 -0.000811874 0)
(-0.000164896 -0.000787734 0)
(-0.000193279 -0.00075768 0)
(-0.000216722 -0.000722821 0)
(-0.000235262 -0.000684185 0)
(-0.000249006 -0.000642663 0)
(-0.000258124 -0.000599074 0)
(-0.000262857 -0.000554151 0)
(-0.00026349 -0.000508554 0)
(-0.000260344 -0.000462969 0)
(-0.000253837 -0.000418346 0)
(-0.0002447 -0.000376438 0)
(-0.000234529 -0.000340916 0)
(-0.000226937 -0.000319419 0)
(-0.000229841 -0.000326868 0)
(-0.000260078 -0.000389065 0)
(-0.000351114 -0.000541829 0)
(-0.000553953 -0.000817691 0)
(-0.000866891 -0.00119364 0)
(3.26e-05 -4.78758e-05 0)
(4.84183e-05 4.4705e-05 0)
(-5.89108e-05 0.00011376 0)
(-0.000194052 0.000134174 0)
(-0.000325866 0.000122693 0)
(-0.00043738 9.13793e-05 0)
(-0.000518525 4.73589e-05 0)
(-0.000562461 -4.98703e-06 0)
(-0.000565339 -6.37088e-05 0)
(-0.000520065 -0.000127238 0)
(-0.000417628 -0.000183735 0)
(-0.00026559 -0.000202534 0)
(-0.000103253 -0.000170298 0)
(3.09988e-05 -0.000116663 0)
(0.00012647 -7.26151e-05 0)
(0.000193429 -5.6059e-05 0)
(0.000268353 -6.79258e-05 0)
(0.000356698 -7.50228e-05 0)
(0.000427826 -4.7422e-05 0)
(0.000441818 2.00992e-05 0)
(0.000374399 0.000102545 0)
(0.000241566 0.000161876 0)
(7.0909e-05 0.00017506 0)
(-8.18775e-05 0.00013429 0)
(-0.000167373 6.32475e-05 0)
(-0.000188799 -1.80371e-05 0)
(-0.000152629 -0.000101095 0)
(-7.15835e-05 -0.000157616 0)
(1.73548e-05 -0.000162111 0)
(8.54002e-05 -0.000108119 0)
(0.000139992 2.78552e-05 0)
(0.000130163 0.000229595 0)
(5.25559e-05 0.000346095 0)
(7.81443e-06 0.000300242 0)
(7.02063e-05 0.000102361 0)
(0.000277891 -0.000189761 0)
(0.000636256 -0.00044248 0)
(0.00107059 -0.000580203 0)
(0.00150204 -0.000563145 0)
(0.0018282 -0.00044172 0)
(0.00205063 -0.000351144 0)
(0.00224181 -0.000292237 0)
(0.00239953 -0.000240781 0)
(0.00252552 -0.00019835 0)
(0.00262118 -0.000155162 0)
(0.00268095 -0.000103208 0)
(0.00269844 -4.34447e-05 0)
(0.00267078 1.22884e-05 0)
(0.00260771 5.63844e-05 0)
(0.00251721 9.38853e-05 0)
(0.00240046 0.000129381 0)
(0.00225765 0.000164776 0)
(0.00208677 0.000202618 0)
(0.00188423 0.000243188 0)
(0.00164833 0.000284606 0)
(0.00138024 0.000324726 0)
(0.00108394 0.000362044 0)
(0.000765473 0.000397164 0)
(0.000425565 0.00043359 0)
(4.76969e-05 0.000465522 0)
(-0.00035087 0.0004645 0)
(-0.000714448 0.000438199 0)
(-0.00105447 0.000410957 0)
(-0.00138218 0.000381751 0)
(-0.00168987 0.000346458 0)
(-0.00196844 0.000304702 0)
(-0.00221145 0.000257845 0)
(-0.00241496 0.000208146 0)
(-0.00257754 0.000158206 0)
(-0.00270009 0.000110412 0)
(-0.0027854 6.65627e-05 0)
(-0.00283753 2.78511e-05 0)
(-0.00286139 -5.09656e-06 0)
(-0.00286239 -3.22142e-05 0)
(-0.00284499 -5.27831e-05 0)
(-0.00281439 -6.7522e-05 0)
(-0.00277459 -7.74423e-05 0)
(-0.00272888 -8.38333e-05 0)
(-0.0026792 -8.79434e-05 0)
(-0.00262703 -9.09234e-05 0)
(-0.00257245 -9.36317e-05 0)
(-0.00251579 -9.73422e-05 0)
(-0.00245559 -0.000103134 0)
(-0.00239106 -0.000112395 0)
(-0.00231792 -0.000128065 0)
(-0.00223523 -0.000148089 0)
(-0.00213762 -0.000190543 0)
(-0.00200885 -0.000234435 0)
(-0.00186422 -0.000337703 0)
(-0.0016213 -0.000432222 0)
(-0.0014679 -0.000668622 0)
(-0.000716814 -0.00109199 0)
(0.000269986 -0.000427535 0)
(0.00033874 0.000333846 0)
(0.000278943 6.28124e-05 0)
(0.0004284 -0.00030482 0)
(0.000684424 -0.000216395 0)
(0.000750757 4.18095e-05 0)
(0.000554135 0.000295584 0)
(5.89345e-05 0.000379127 0)
(0.000418092 0.000145106 0)
(0.000431779 0.000870844 0)
(0.000215203 0.00131769 0)
(-0.000177878 0.00124857 0)
(-0.000498842 0.000779942 0)
(-0.000592351 -4.01624e-05 0)
(-0.000532869 -0.000797287 0)
(-0.000415302 -0.00142986 0)
(-0.00025885 -0.00189771 0)
(-8.85196e-05 -0.00216932 0)
(8.87178e-05 -0.0022521 0)
(0.00026502 -0.00213617 0)
(0.000421572 -0.0018445 0)
(0.00053396 -0.00139915 0)
(0.000590822 -0.000832537 0)
(0.000438098 -0.000143654 0)
(-8.34254e-05 0.000279006 0)
(-0.00028182 0.000285988 0)
(-0.0001246 0.000243748 0)
(-0.00010632 0.000145054 0)
(-0.000103514 4.77856e-05 0)
(5.28285e-05 6.51758e-05 0)
(0.000237593 0.000261354 0)
(0.000367564 0.000619691 0)
(0.000364678 0.000985115 0)
(0.000287385 0.00126708 0)
(0.000181182 0.00146194 0)
(3.07779e-05 0.00152968 0)
(-0.000132309 0.00143279 0)
(-0.000254759 0.00119296 0)
(-0.000294843 0.000876366 0)
(-0.000257995 0.000587063 0)
(-0.000189543 0.000378796 0)
(-0.000102216 0.000256181 0)
(-2.40672e-05 0.000205746 0)
(1.93956e-05 0.000200709 0)
(3.2263e-05 0.000202203 0)
(3.89668e-05 0.000208123 0)
(7.40758e-05 0.00018581 0)
(0.000168424 0.000212959 0)
(0.000227103 0.000331611 0)
(0.000197816 0.000480344 0)
(9.50209e-05 0.000624409 0)
(4.76143e-06 0.000713114 0)
(9.03086e-05 0.000806241 0)
(0.000192052 0.000751679 0)
(4.92634e-06 0.000688654 0)
(-0.000360192 0.000413422 0)
(-0.000684372 0.000274639 0)
(-0.00108568 0.000164266 0)
(-0.00119808 -0.000208844 0)
(-0.000986082 -0.000768303 0)
(0.000378793 -0.000234344 0)
(0.000886662 0.000439027 0)
(0.000784908 0.00117549 0)
(0.000510302 0.00146251 0)
(0.000522444 0.00168893 0)
(0.000442421 0.00198807 0)
(0.000390778 0.00218786 0)
(0.000354263 0.00239467 0)
(0.000306638 0.00256698 0)
(0.000277022 0.00271859 0)
(0.000242596 0.00285634 0)
(0.000216775 0.00297363 0)
(0.000191622 0.00308062 0)
(0.000169527 0.00317229 0)
(0.000148484 0.00325336 0)
(0.000126682 0.00332157 0)
(0.000102683 0.00337748 0)
(7.38815e-05 0.00342003 0)
(3.94522e-05 0.00344939 0)
(-5.69655e-07 0.00346759 0)
(-4.29259e-05 0.00347854 0)
(-8.24355e-05 0.00348842 0)
(-0.000113744 0.0035031 0)
(-0.000132529 0.00352518 0)
(-0.000134115 0.00355268 0)
(-0.000113068 0.0035828 0)
(-6.42698e-05 0.00361633 0)
(1.5087e-05 0.00365947 0)
(0.000122927 0.00372237 0)
(0.000249059 0.00381689 0)
(0.000369752 0.00395317 0)
(0.000447525 0.00413279 0)
(0.000445673 0.0043351 0)
(0.00035819 0.00451829 0)
(0.000228456 0.00464257 0)
(0.000127361 0.00470719 0)
(0.000101372 0.00475359 0)
(0.000145777 0.00482325 0)
(0.000228529 0.00493017 0)
(0.000328939 0.00506475 0)
(0.000445923 0.00522045 0)
(0.000574231 0.00540536 0)
(0.000686098 0.00562781 0)
(0.000743819 0.00587747 0)
(0.000726405 0.00612221 0)
(0.000641953 0.00632853 0)
(0.000517685 0.00647709 0)
(0.000381789 0.00656672 0)
(0.000251863 0.00660683 0)
(0.000135491 0.00660652 0)
(3.73518e-05 0.00657187 0)
(-3.84197e-05 0.00651327 0)
(-9.66813e-05 0.0064414 0)
(-0.000145748 0.00635966 0)
(-0.000189648 0.00626637 0)
(-0.000227486 0.00616108 0)
(-0.000257692 0.00604672 0)
(-0.000280826 0.00592709 0)
(-0.000298639 0.00580441 0)
(-0.000312312 0.00567962 0)
(-0.000322142 0.00555353 0)
(-0.00032818 0.00542739 0)
(-0.000330712 0.00530251 0)
(-0.000330238 0.00517997 0)
(-0.000327234 0.00506049 0)
(-0.000322048 0.00494465 0)
(-0.000314954 0.00483296 0)
(-0.000306232 0.00472591 0)
(-0.000296187 0.00462383 0)
(-0.000285128 0.00452698 0)
(-0.000273343 0.00443548 0)
(-0.000261097 0.00434937 0)
(-0.000248641 0.00426864 0)
(-0.000236223 0.00419318 0)
(-0.000224085 0.00412284 0)
(-0.000212457 0.00405738 0)
(-0.000201554 0.00399652 0)
(-0.000191579 0.00393992 0)
(-0.000182723 0.00388719 0)
(-0.000175159 0.00383791 0)
(-0.000169038 0.00379163 0)
(-0.000164486 0.00374786 0)
(-0.000161595 0.00370608 0)
(-0.000160421 0.00366576 0)
(-0.00016098 0.00362637 0)
(-0.000163242 0.00358738 0)
(-0.000167134 0.00354826 0)
(-0.000172541 0.00350851 0)
(-0.000179316 0.0034677 0)
(-0.000187286 0.00342542 0)
(-0.000196258 0.00338133 0)
(-0.000206032 0.00333516 0)
(-0.000216403 0.00328671 0)
(-0.00022717 0.00323586 0)
(-0.000238139 0.00318254 0)
(-0.000249129 0.00312676 0)
(-0.000259973 0.00306861 0)
(-0.000270522 0.00300821 0)
(-0.000280644 0.00294573 0)
(-0.000290232 0.00288138 0)
(-0.000299195 0.0028154 0)
(-0.000307467 0.00274804 0)
(-0.000315 0.00267957 0)
(-0.000321765 0.00261026 0)
(-0.000327752 0.00254038 0)
(-0.000332967 0.00247018 0)
(-0.000337433 0.00239992 0)
(-0.000341187 0.00232982 0)
(-0.00034428 0.00226011 0)
(-0.000346775 0.00219098 0)
(-0.000348751 0.00212262 0)
(-0.0003503 0.00205519 0)
(-0.00035153 0.00198881 0)
(-0.000352568 0.00192363 0)
(-0.000353568 0.00185971 0)
(-0.000354703 0.00179714 0)
(-0.000356179 0.00173595 0)
(-0.000358239 0.00167616 0)
(-0.000361172 0.00161777 0)
(-0.000365327 0.00156073 0)
(-0.000371122 0.00150499 0)
(-0.000379052 0.00145041 0)
(-0.000389688 0.00139684 0)
(-0.000403665 0.00134401 0)
(-0.000421644 0.00129151 0)
(-0.000444248 0.00123876 0)
(-0.000471959 0.00118493 0)
(-0.000504983 0.00112887 0)
(-0.000543097 0.00106917 0)
(-0.000585542 0.00100427 0)
(-0.000631011 0.000932823 0)
(-0.00067782 0.00085403 0)
(-0.000724306 0.000768105 0)
(-0.000769406 0.000676464 0)
(-0.000813296 0.000581588 0)
(-0.00085783 0.000486446 0)
(-0.000906571 0.000393596 0)
(-0.000964226 0.000304276 0)
(-0.00103569 0.000217839 0)
(-0.00112628 0.000131748 0)
(-0.00124055 4.14782e-05 0)
(-0.00138047 -5.79564e-05 0)
(-0.00154724 -0.000170502 0)
(-0.00174262 -0.000299181 0)
(-0.00196665 -0.000446505 0)
(-0.00222265 -0.000596075 0)
(-0.0024759 -0.000985327 0)
(-0.00251426 1.77747e-05 0)
)
;
    }
    frontAndBack
    {
        type            empty;
    }
}


// ************************************************************************* //
