/*--------------------------------*- C++ -*----------------------------------*\
  =========                 |
  \\      /  F ield         | OpenFOAM: The Open Source CFD Toolbox
   \\    /   O peration     | Website:  https://openfoam.org
    \\  /    A nd           | Version:  7
     \\/     M anipulation  |
\*---------------------------------------------------------------------------*/
FoamFile
{
    version     2.0;
    format      ascii;
    class       volVectorField;
    location    "0.39";
    object      ddt0(U);
}
// * * * * * * * * * * * * * * * * * * * * * * * * * * * * * * * * * * * * * //

dimensions      [0 1 -2 0 0 0 0];

internalField   nonuniform List<vector> 
70000
(
(0.00035039 -3.7843e-05 0)
(0.00370439 -7.31625e-05 0)
(0.0103322 -8.37386e-05 0)
(0.0188553 -6.38177e-05 0)
(0.0281282 -6.40213e-05 0)
(0.0378867 -6.63981e-05 0)
(0.0477727 -6.72773e-05 0)
(0.0575753 -6.83834e-05 0)
(0.0673471 -6.98231e-05 0)
(0.0772047 -7.15006e-05 0)
(0.0872552 -7.40431e-05 0)
(0.0975725 -7.78097e-05 0)
(0.108194 -8.23848e-05 0)
(0.119145 -8.76518e-05 0)
(0.130422 -9.31191e-05 0)
(0.142055 -9.92451e-05 0)
(0.154063 -0.000105537 0)
(0.166516 -0.000112525 0)
(0.179479 -0.000120266 0)
(0.193052 -0.000128923 0)
(0.207354 -0.000139192 0)
(0.222495 -0.000150762 0)
(0.238615 -0.000164184 0)
(0.255856 -0.000179843 0)
(0.274355 -0.000197007 0)
(0.294285 -0.000216789 0)
(0.315802 -0.000238647 0)
(0.339089 -0.000262871 0)
(0.364359 -0.000290413 0)
(0.391822 -0.000320783 0)
(0.421746 -0.000354961 0)
(0.454425 -0.00039342 0)
(0.490176 -0.000435829 0)
(0.529395 -0.000483782 0)
(0.572482 -0.000536663 0)
(0.619903 -0.000595011 0)
(0.672186 -0.000659423 0)
(0.729917 -0.000733756 0)
(0.793669 -0.00080704 0)
(0.86443 -0.000907809 0)
(0.942237 -0.000971591 0)
(1.02955 -0.0011221 0)
(1.12391 -0.00116734 0)
(1.23187 -0.00144564 0)
(1.34495 -0.000523386 0)
(1.47525 -0.0012622 0)
(1.61056 -0.000516004 0)
(1.73688 0.00017211 0)
(1.85091 0.00739312 0)
(1.75442 -0.0738141 0)
(-0.00014927 -0.000194975 0)
(0.0058129 -0.000582272 0)
(0.0220167 -0.000931155 0)
(0.0451461 -0.00111201 0)
(0.0708758 -0.00119911 0)
(0.0979003 -0.00124167 0)
(0.125296 -0.0012546 0)
(0.152426 -0.00126173 0)
(0.179349 -0.00128168 0)
(0.206417 -0.00131708 0)
(0.233956 -0.00136521 0)
(0.262164 -0.00142201 0)
(0.291127 -0.00148332 0)
(0.320866 -0.00154807 0)
(0.351367 -0.00161556 0)
(0.382664 -0.00168896 0)
(0.414824 -0.00176987 0)
(0.448002 -0.00186273 0)
(0.482399 -0.00197105 0)
(0.518285 -0.00209749 0)
(0.555971 -0.00224644 0)
(0.595775 -0.00241833 0)
(0.638051 -0.00261646 0)
(0.683165 -0.00284314 0)
(0.731484 -0.00309864 0)
(0.78343 -0.00338792 0)
(0.839424 -0.00371362 0)
(0.899956 -0.00407945 0)
(0.96557 -0.00449399 0)
(1.03687 -0.0049605 0)
(1.11454 -0.00548891 0)
(1.19938 -0.00608775 0)
(1.29225 -0.00676579 0)
(1.3942 -0.00753586 0)
(1.50634 -0.00841054 0)
(1.62995 -0.00940241 0)
(1.76652 -0.0105307 0)
(1.91769 -0.0118135 0)
(2.08526 -0.0132517 0)
(2.27193 -0.0149276 0)
(2.47848 -0.0167148 0)
(2.71164 -0.0189145 0)
(2.96625 -0.020968 0)
(3.26058 -0.0236984 0)
(3.57457 -0.0275091 0)
(3.94103 -0.0305693 0)
(4.33903 -0.0302186 0)
(4.73878 -0.0343161 0)
(5.21238 -0.00314262 0)
(5.51678 -0.093182 0)
(-0.000658392 -0.000345591 0)
(0.00380445 -0.00129814 0)
(0.0216978 -0.0023312 0)
(0.0523145 -0.00299148 0)
(0.089525 -0.00331515 0)
(0.129747 -0.00346791 0)
(0.17102 -0.00352003 0)
(0.212107 -0.00353786 0)
(0.252782 -0.00358296 0)
(0.293436 -0.00367336 0)
(0.334566 -0.00380124 0)
(0.376517 -0.00395241 0)
(0.419449 -0.00411388 0)
(0.463403 -0.00428113 0)
(0.508354 -0.0044536 0)
(0.554327 -0.00463898 0)
(0.601401 -0.00484479 0)
(0.649783 -0.00508217 0)
(0.699758 -0.00536255 0)
(0.751714 -0.00569295 0)
(0.806099 -0.00608387 0)
(0.863383 -0.00653764 0)
(0.924075 -0.00706148 0)
(0.988701 -0.00766067 0)
(1.05779 -0.00833882 0)
(1.13194 -0.0091062 0)
(1.21177 -0.00997298 0)
(1.29799 -0.0109493 0)
(1.39138 -0.0120564 0)
(1.49282 -0.0133066 0)
(1.60333 -0.0147252 0)
(1.72405 -0.0163352 0)
(1.85626 -0.0181638 0)
(2.00145 -0.0202431 0)
(2.16127 -0.0226114 0)
(2.33756 -0.0253059 0)
(2.53255 -0.0283823 0)
(2.74861 -0.0318913 0)
(2.98844 -0.0358754 0)
(3.25601 -0.0404764 0)
(3.55264 -0.0455918 0)
(3.88826 -0.0516478 0)
(4.25586 -0.057911 0)
(4.68163 -0.0657002 0)
(5.13984 -0.0745603 0)
(5.67506 -0.0877081 0)
(6.26685 -0.0896339 0)
(6.87527 -0.10422 0)
(7.59651 -0.0687558 0)
(8.33997 -0.109864 0)
(-0.000590045 -0.000403439 0)
(0.00123247 -0.00189521 0)
(0.0147982 -0.00382049 0)
(0.0438926 -0.00526361 0)
(0.084531 -0.00606731 0)
(0.131938 -0.00646864 0)
(0.18255 -0.00662776 0)
(0.233962 -0.00667974 0)
(0.285158 -0.00675147 0)
(0.336154 -0.006898 0)
(0.387394 -0.00711662 0)
(0.439314 -0.00738374 0)
(0.492187 -0.00767318 0)
(0.546129 -0.0079724 0)
(0.601156 -0.00827907 0)
(0.657301 -0.00860509 0)
(0.714645 -0.0089661 0)
(0.773409 -0.00938204 0)
(0.833908 -0.00987561 0)
(0.89658 -0.0104605 0)
(0.961948 -0.0111554 0)
(1.03057 -0.0119657 0)
(1.10304 -0.0129038 0)
(1.17998 -0.0139783 0)
(1.26204 -0.0151981 0)
(1.34991 -0.0165796 0)
(1.44435 -0.0181437 0)
(1.54618 -0.0199092 0)
(1.65637 -0.021914 0)
(1.77597 -0.024183 0)
(1.9062 -0.0267613 0)
(2.04844 -0.0296914 0)
(2.20425 -0.0330249 0)
(2.37539 -0.0368193 0)
(2.56388 -0.0411459 0)
(2.77189 -0.0460758 0)
(3.00215 -0.051714 0)
(3.25744 -0.0581614 0)
(3.54106 -0.0655307 0)
(3.85776 -0.0740097 0)
(4.20911 -0.083638 0)
(4.60706 -0.0948477 0)
(5.04359 -0.107147 0)
(5.54914 -0.122325 0)
(6.09561 -0.135397 0)
(6.7322 -0.155482 0)
(7.4408 -0.169758 0)
(8.18829 -0.195649 0)
(9.03522 -0.169444 0)
(10.0325 -0.162953 0)
(-0.000224969 -0.000401178 0)
(1.74398e-05 -0.00225306 0)
(0.00781455 -0.00500767 0)
(0.0295404 -0.00742345 0)
(0.0653531 -0.00900614 0)
(0.11205 -0.00991112 0)
(0.165695 -0.010342 0)
(0.222756 -0.0105133 0)
(0.280985 -0.0106385 0)
(0.339456 -0.0108383 0)
(0.398099 -0.0111388 0)
(0.457186 -0.0115188 0)
(0.517014 -0.0119419 0)
(0.577795 -0.0123858 0)
(0.639632 -0.0128435 0)
(0.702623 -0.0133284 0)
(0.766872 -0.0138636 0)
(0.83261 -0.0144777 0)
(0.900145 -0.0152061 0)
(0.969911 -0.0160708 0)
(1.04243 -0.0171005 0)
(1.11829 -0.0183051 0)
(1.1981 -0.0197031 0)
(1.28255 -0.0213074 0)
(1.37229 -0.0231334 0)
(1.46811 -0.0252042 0)
(1.57079 -0.0275538 0)
(1.68126 -0.0302112 0)
(1.80055 -0.0332337 0)
(1.92981 -0.0366618 0)
(2.0704 -0.0405637 0)
(2.22383 -0.0450047 0)
(2.3918 -0.0500647 0)
(2.57624 -0.0558324 0)
(2.77941 -0.0624157 0)
(3.00363 -0.0699284 0)
(3.25197 -0.0785279 0)
(3.52739 -0.0883704 0)
(3.83355 -0.0996564 0)
(4.17559 -0.112613 0)
(4.55523 -0.127463 0)
(4.98534 -0.144634 0)
(5.45782 -0.16383 0)
(6.004 -0.187186 0)
(6.59731 -0.209606 0)
(7.28583 -0.238298 0)
(8.04875 -0.266572 0)
(8.87974 -0.300009 0)
(9.78157 -0.287707 0)
(10.8829 -0.250154 0)
(2.64243e-05 -0.000398292 0)
(3.67022e-05 -0.00243072 0)
(0.00383674 -0.00576559 0)
(0.0174119 -0.00908862 0)
(0.0439969 -0.0116152 0)
(0.0833291 -0.0132971 0)
(0.13297 -0.0142652 0)
(0.189523 -0.0147544 0)
(0.249951 -0.0150473 0)
(0.312236 -0.0153458 0)
(0.375398 -0.0157335 0)
(0.439145 -0.0162173 0)
(0.503539 -0.0167663 0)
(0.568761 -0.0173551 0)
(0.634981 -0.0179723 0)
(0.702378 -0.0186304 0)
(0.771121 -0.0193573 0)
(0.841474 -0.0201876 0)
(0.913737 -0.0211685 0)
(0.988316 -0.0223296 0)
(1.06569 -0.0237105 0)
(1.1464 -0.0253269 0)
(1.23104 -0.0272045 0)
(1.32024 -0.0293615 0)
(1.41469 -0.0318212 0)
(1.51515 -0.0346141 0)
(1.62241 -0.0377886 0)
(1.73742 -0.0413853 0)
(1.86123 -0.0454823 0)
(1.99503 -0.0501382 0)
(2.14021 -0.0554462 0)
(2.29832 -0.0614977 0)
(2.47117 -0.0684029 0)
(2.66072 -0.0762856 0)
(2.86939 -0.0852928 0)
(3.09953 -0.0955856 0)
(3.35439 -0.107377 0)
(3.63702 -0.120881 0)
(3.95121 -0.136395 0)
(4.30232 -0.154185 0)
(4.69211 -0.17466 0)
(5.13365 -0.198277 0)
(5.61926 -0.224858 0)
(6.1797 -0.25712 0)
(6.78941 -0.288713 0)
(7.49769 -0.335461 0)
(8.27536 -0.367514 0)
(9.14506 -0.410889 0)
(10.065 -0.414695 0)
(11.1935 -0.361894 0)
(6.74384e-05 -0.000413496 0)
(0.000436075 -0.00252925 0)
(0.00258772 -0.00619634 0)
(0.0105463 -0.0102019 0)
(0.028241 -0.013612 0)
(0.0576778 -0.0161897 0)
(0.0986006 -0.0179242 0)
(0.14899 -0.0189799 0)
(0.206118 -0.0196443 0)
(0.26748 -0.0201735 0)
(0.331295 -0.0207152 0)
(0.396549 -0.0213273 0)
(0.46282 -0.0220072 0)
(0.530052 -0.0227425 0)
(0.598351 -0.0235258 0)
(0.667927 -0.0243712 0)
(0.739009 -0.0253103 0)
(0.811912 -0.0263813 0)
(0.88696 -0.0276393 0)
(0.964538 -0.0291192 0)
(1.04508 -0.0308699 0)
(1.12903 -0.0329129 0)
(1.21692 -0.0352817 0)
(1.30931 -0.038001 0)
(1.40681 -0.0411032 0)
(1.51014 -0.0446271 0)
(1.62005 -0.0486362 0)
(1.73744 -0.0531837 0)
(1.86333 -0.0583694 0)
(1.99887 -0.0642718 0)
(2.14543 -0.0710101 0)
(2.30454 -0.0787043 0)
(2.478 -0.0874962 0)
(2.66776 -0.0975483 0)
(2.87625 -0.109047 0)
(3.10584 -0.122206 0)
(3.35979 -0.137294 0)
(3.64118 -0.154584 0)
(3.95377 -0.174476 0)
(4.30303 -0.197276 0)
(4.69062 -0.223573 0)
(5.12954 -0.253877 0)
(5.61243 -0.288113 0)
(6.16928 -0.329445 0)
(6.77462 -0.371119 0)
(7.4804 -0.430373 0)
(8.249 -0.471495 0)
(9.11974 -0.524557 0)
(10.0366 -0.546102 0)
(11.1537 -0.491737 0)
(5.83866e-06 -0.00043894 0)
(0.000676576 -0.00261751 0)
(0.00267173 -0.0064688 0)
(0.00798757 -0.0109252 0)
(0.0198015 -0.0150288 0)
(0.0407861 -0.0184357 0)
(0.0722185 -0.0210091 0)
(0.113699 -0.0227994 0)
(0.163587 -0.0240335 0)
(0.219714 -0.0249686 0)
(0.280064 -0.0257908 0)
(0.343141 -0.0266086 0)
(0.408056 -0.0274618 0)
(0.47442 -0.0283674 0)
(0.542159 -0.029335 0)
(0.611416 -0.0303882 0)
(0.682432 -0.0315661 0)
(0.755566 -0.0329103 0)
(0.831184 -0.0344813 0)
(0.909683 -0.0363158 0)
(0.991465 -0.0384684 0)
(1.07692 -0.0409642 0)
(1.16647 -0.0438438 0)
(1.2606 -0.0471383 0)
(1.35979 -0.0508902 0)
(1.46468 -0.0551475 0)
(1.57594 -0.059989 0)
(1.69435 -0.0654815 0)
(1.82086 -0.071746 0)
(1.95653 -0.0788824 0)
(2.10265 -0.0870359 0)
(2.26063 -0.0963572 0)
(2.43221 -0.10702 0)
(2.61924 -0.119228 0)
(2.82408 -0.133208 0)
(3.04903 -0.149226 0)
(3.29724 -0.167614 0)
(3.57179 -0.188698 0)
(3.8762 -0.212986 0)
(4.21604 -0.240822 0)
(4.59265 -0.272971 0)
(5.0189 -0.310003 0)
(5.48755 -0.351948 0)
(6.02753 -0.402325 0)
(6.61407 -0.454172 0)
(7.29835 -0.524634 0)
(8.04291 -0.584279 0)
(8.88666 -0.640548 0)
(9.78137 -0.676448 0)
(10.8646 -0.633182 0)
(-5.36192e-05 -0.000466045 0)
(0.000700689 -0.00272057 0)
(0.00292885 -0.00670977 0)
(0.00762809 -0.011464 0)
(0.0166805 -0.0160677 0)
(0.0324038 -0.0201444 0)
(0.0565459 -0.0234859 0)
(0.0897135 -0.0260404 0)
(0.131377 -0.0279471 0)
(0.180124 -0.0294201 0)
(0.234229 -0.0306474 0)
(0.292139 -0.0317693 0)
(0.352741 -0.0328654 0)
(0.415411 -0.0339886 0)
(0.47989 -0.035175 0)
(0.546214 -0.0364663 0)
(0.614587 -0.0379151 0)
(0.685383 -0.03957 0)
(0.759013 -0.0414976 0)
(0.835919 -0.0437339 0)
(0.916521 -0.0463355 0)
(1.00119 -0.0493271 0)
(1.09028 -0.0527536 0)
(1.18418 -0.0566512 0)
(1.28328 -0.0610718 0)
(1.38809 -0.0660727 0)
(1.49914 -0.0717478 0)
(1.61713 -0.078178 0)
(1.74287 -0.0855044 0)
(1.87726 -0.0938487 0)
(2.02147 -0.103381 0)
(2.17675 -0.114284 0)
(2.3447 -0.126763 0)
(2.52699 -0.141062 0)
(2.72581 -0.157453 0)
(2.94334 -0.17625 0)
(3.18245 -0.197852 0)
(3.4462 -0.222634 0)
(3.7377 -0.25122 0)
(4.06252 -0.283984 0)
(4.42161 -0.321862 0)
(4.8274 -0.365489 0)
(5.27312 -0.414993 0)
(5.78535 -0.474174 0)
(6.34222 -0.535984 0)
(6.98914 -0.617677 0)
(7.69758 -0.691127 0)
(8.4937 -0.886993 0)
(9.34714 -0.810337 0)
(10.3791 -0.781479 0)
(-7.96455e-05 -0.000489627 0)
(0.000629064 -0.00283584 0)
(0.00301702 -0.00696184 0)
(0.00782111 -0.0119614 0)
(0.0161014 -0.0169423 0)
(0.0294636 -0.0215371 0)
(0.0493795 -0.0255182 0)
(0.0767769 -0.0287661 0)
(0.111734 -0.0313396 0)
(0.15349 -0.0333936 0)
(0.200801 -0.0350926 0)
(0.252337 -0.0365872 0)
(0.307024 -0.0379854 0)
(0.364176 -0.0393728 0)
(0.423448 -0.040814 0)
(0.4848 -0.0423731 0)
(0.548389 -0.0441216 0)
(0.614584 -0.04612 0)
(0.683837 -0.0484436 0)
(0.75665 -0.0511285 0)
(0.833505 -0.0542305 0)
(0.914805 -0.0577708 0)
(1.00091 -0.0617937 0)
(1.09214 -0.0663375 0)
(1.18882 -0.0714611 0)
(1.29134 -0.07723 0)
(1.40014 -0.0837524 0)
(1.51577 -0.0911221 0)
(1.6389 -0.0994991 0)
(1.77028 -0.109026 0)
(1.9109 -0.119896 0)
(2.06183 -0.132321 0)
(2.22443 -0.14654 0)
(2.4002 -0.162834 0)
(2.59104 -0.181522 0)
(2.79893 -0.202961 0)
(3.02639 -0.227623 0)
(3.27635 -0.255923 0)
(3.55139 -0.2886 0)
(3.8569 -0.326067 0)
(4.19355 -0.3694 0)
(4.57268 -0.41934 0)
(4.98876 -0.476056 0)
(5.4644 -0.543606 0)
(5.98271 -0.615041 0)
(6.58049 -0.707129 0)
(7.22192 -0.793035 0)
(7.9752 -1.00123 0)
(8.78771 -0.935276 0)
(9.73479 -0.932037 0)
(-8.45237e-05 -0.000509652 0)
(0.000553795 -0.00295567 0)
(0.00296823 -0.00723242 0)
(0.0079615 -0.0124735 0)
(0.0162624 -0.0177865 0)
(0.0289524 -0.0228101 0)
(0.047095 -0.0273207 0)
(0.0714203 -0.0311638 0)
(0.102136 -0.034338 0)
(0.138849 -0.0369431 0)
(0.180638 -0.0391121 0)
(0.22644 -0.0409936 0)
(0.275327 -0.0427138 0)
(0.32668 -0.0443847 0)
(0.380165 -0.0460968 0)
(0.43572 -0.0479365 0)
(0.493477 -0.0499963 0)
(0.553796 -0.0523525 0)
(0.617156 -0.0550925 0)
(0.684117 -0.0582555 0)
(0.755242 -0.0618966 0)
(0.831009 -0.0660308 0)
(0.911826 -0.070698 0)
(0.998027 -0.0759343 0)
(1.0899 -0.0818022 0)
(1.18778 -0.0883729 0)
(1.29202 -0.095766 0)
(1.40305 -0.104087 0)
(1.52143 -0.113512 0)
(1.64775 -0.124203 0)
(1.7828 -0.136373 0)
(1.92748 -0.150262 0)
(2.08291 -0.166137 0)
(2.25033 -0.184316 0)
(2.43134 -0.205162 0)
(2.62769 -0.229071 0)
(2.84143 -0.256585 0)
(3.07525 -0.288158 0)
(3.33125 -0.324635 0)
(3.61429 -0.366482 0)
(3.92498 -0.414864 0)
(4.27292 -0.470696 0)
(4.65442 -0.53409 0)
(5.08712 -0.609404 0)
(5.55985 -0.689893 0)
(6.09965 -0.791074 0)
(6.6829 -0.890109 0)
(7.36549 -0.98042 0)
(8.10243 -1.04473 0)
(8.96906 -1.07969 0)
(-8.44812e-05 -0.00052743 0)
(0.000499488 -0.0030767 0)
(0.00288001 -0.00751595 0)
(0.0079748 -0.0130134 0)
(0.0164481 -0.0186569 0)
(0.0291361 -0.0240777 0)
(0.0468036 -0.02906 0)
(0.0699215 -0.0334254 0)
(0.0985946 -0.0371281 0)
(0.132435 -0.040226 0)
(0.170679 -0.0428226 0)
(0.212406 -0.0450624 0)
(0.256818 -0.0470851 0)
(0.30338 -0.0490253 0)
(0.351804 -0.0509953 0)
(0.402039 -0.0531024 0)
(0.454209 -0.0554597 0)
(0.508661 -0.0581611 0)
(0.56588 -0.0613098 0)
(0.626467 -0.0649515 0)
(0.691051 -0.0691423 0)
(0.760197 -0.0738913 0)
(0.834388 -0.0792311 0)
(0.914009 -0.0851923 0)
(0.999367 -0.0918365 0)
(1.09078 -0.0992374 0)
(1.18855 -0.107523 0)
(1.29305 -0.116809 0)
(1.40472 -0.127283 0)
(1.52405 -0.139122 0)
(1.65167 -0.15256 0)
(1.7883 -0.167856 0)
(1.93481 -0.185305 0)
(2.09224 -0.205254 0)
(2.26183 -0.228109 0)
(2.44507 -0.254299 0)
(2.64359 -0.28443 0)
(2.85967 -0.318993 0)
(3.09501 -0.358918 0)
(3.35365 -0.404748 0)
(3.63635 -0.457676 0)
(3.95059 -0.518857 0)
(4.29453 -0.588258 0)
(4.6809 -0.670556 0)
(5.10352 -0.759244 0)
(5.58105 -0.868455 0)
(6.09934 -0.97694 0)
(6.70564 -1.08478 0)
(7.35753 -1.14462 0)
(8.13384 -1.2202 0)
(-8.60621e-05 -0.000543621 0)
(0.000458863 -0.00319902 0)
(0.00279917 -0.00780833 0)
(0.00793293 -0.0135782 0)
(0.0165355 -0.019567 0)
(0.0293628 -0.0253861 0)
(0.0470445 -0.0308231 0)
(0.0698793 -0.0356778 0)
(0.0978164 -0.0398655 0)
(0.130391 -0.0434068 0)
(0.166817 -0.0463833 0)
(0.206212 -0.0489378 0)
(0.247822 -0.0512241 0)
(0.291157 -0.0533978 0)
(0.335957 -0.0555922 0)
(0.382181 -0.0579331 0)
(0.429941 -0.060553 0)
(0.479564 -0.0635643 0)
(0.531518 -0.0670881 0)
(0.586409 -0.0711803 0)
(0.644904 -0.0759008 0)
(0.707629 -0.0812542 0)
(0.775134 -0.0872653 0)
(0.847863 -0.0939566 0)
(0.926165 -0.101386 0)
(1.01037 -0.109627 0)
(1.10077 -0.118812 0)
(1.1977 -0.129064 0)
(1.30154 -0.14058 0)
(1.41269 -0.153549 0)
(1.53168 -0.168218 0)
(1.65907 -0.184864 0)
(1.79554 -0.203805 0)
(1.94191 -0.225412 0)
(2.09914 -0.250126 0)
(2.26842 -0.278403 0)
(2.45101 -0.310905 0)
(2.64874 -0.348163 0)
(2.86296 -0.391155 0)
(3.09679 -0.440534 0)
(3.35115 -0.497458 0)
(3.63138 -0.563356 0)
(3.93717 -0.638021 0)
(4.27703 -0.726385 0)
(4.64833 -0.822266 0)
(5.06336 -0.938243 0)
(5.51425 -1.05709 0)
(6.04546 -1.17838 0)
(6.60874 -1.22325 0)
(7.28821 -1.35644 0)
(-8.93462e-05 -0.000558221 0)
(0.000422869 -0.00332354 0)
(0.00273117 -0.00810875 0)
(0.00788591 -0.0141646 0)
(0.0165716 -0.0205159 0)
(0.0295189 -0.0267465 0)
(0.0473166 -0.0326438 0)
(0.0701887 -0.0379836 0)
(0.097983 -0.0426405 0)
(0.13015 -0.0466003 0)
(0.165848 -0.0499252 0)
(0.204165 -0.0527591 0)
(0.244338 -0.0552722 0)
(0.285876 -0.057642 0)
(0.328519 -0.0600226 0)
(0.372215 -0.0625574 0)
(0.417057 -0.0653974 0)
(0.463332 -0.0686735 0)
(0.511479 -0.0725259 0)
(0.562082 -0.0770233 0)
(0.615801 -0.0822323 0)
(0.67329 -0.0881551 0)
(0.735127 -0.0948096 0)
(0.801801 -0.102209 0)
(0.873694 -0.110407 0)
(0.951151 -0.119472 0)
(1.03447 -0.129542 0)
(1.12397 -0.140741 0)
(1.22 -0.153276 0)
(1.32291 -0.167343 0)
(1.43313 -0.183199 0)
(1.55113 -0.201134 0)
(1.67743 -0.221484 0)
(1.81268 -0.244636 0)
(1.95761 -0.271063 0)
(2.11312 -0.301242 0)
(2.28018 -0.335875 0)
(2.46015 -0.375535 0)
(2.65416 -0.421221 0)
(2.86436 -0.473708 0)
(3.09181 -0.534076 0)
(3.34 -0.604031 0)
(3.60955 -0.6832 0)
(3.90578 -0.776662 0)
(4.22811 -0.87868 0)
(4.58444 -1.00037 0)
(4.97099 -1.12733 0)
(5.4341 -1.25885 0)
(5.90923 -1.57522 0)
(6.49148 -1.48977 0)
(-9.31323e-05 -0.000571125 0)
(0.000388396 -0.00345045 0)
(0.00267067 -0.00841816 0)
(0.00784651 -0.0147718 0)
(0.0165988 -0.0215018 0)
(0.0296369 -0.0281595 0)
(0.0475414 -0.0345303 0)
(0.0705134 -0.0403649 0)
(0.0983529 -0.045494 0)
(0.130459 -0.049867 0)
(0.165947 -0.0535276 0)
(0.20387 -0.0566221 0)
(0.243444 -0.0593387 0)
(0.284155 -0.061878 0)
(0.325725 -0.064415 0)
(0.368081 -0.0671107 0)
(0.411287 -0.0701341 0)
(0.455596 -0.0736344 0)
(0.501401 -0.077771 0)
(0.549246 -0.0826275 0)
(0.599773 -0.0882783 0)
(0.653596 -0.0947265 0)
(0.711328 -0.101983 0)
(0.773451 -0.110054 0)
(0.840359 -0.118984 0)
(0.912396 -0.12884 0)
(0.989875 -0.139759 0)
(1.07308 -0.151871 0)
(1.16234 -0.165385 0)
(1.25798 -0.180505 0)
(1.36038 -0.197494 0)
(1.4699 -0.216651 0)
(1.58701 -0.238325 0)
(1.71216 -0.262912 0)
(1.84592 -0.290913 0)
(1.98898 -0.322822 0)
(2.14206 -0.359363 0)
(2.30613 -0.401155 0)
(2.4821 -0.44919 0)
(2.67136 -0.504369 0)
(2.87497 -0.567672 0)
(3.09496 -0.641047 0)
(3.33243 -0.72401 0)
(3.59042 -0.821631 0)
(3.86931 -0.928801 0)
(4.17434 -1.05501 0)
(4.50353 -1.1883 0)
(4.86207 -1.33152 0)
(5.30215 -1.68301 0)
(5.84286 -1.59464 0)
(-9.67975e-05 -0.000582328 0)
(0.000355503 -0.00357921 0)
(0.0026143 -0.00873774 0)
(0.00781308 -0.0154006 0)
(0.0166303 -0.0225249 0)
(0.0297479 -0.029625 0)
(0.0477425 -0.0364842 0)
(0.0708096 -0.0428277 0)
(0.0987273 -0.0484399 0)
(0.13087 -0.0532317 0)
(0.166332 -0.0572279 0)
(0.204151 -0.0605779 0)
(0.243523 -0.0634883 0)
(0.283919 -0.0661835 0)
(0.325043 -0.06886 0)
(0.3668 -0.0716963 0)
(0.409229 -0.0748792 0)
(0.452551 -0.078576 0)
(0.497125 -0.0829651 0)
(0.543456 -0.0881455 0)
(0.592141 -0.0942007 0)
(0.643787 -0.101135 0)
(0.69895 -0.108954 0)
(0.758114 -0.117657 0)
(0.821656 -0.12728 0)
(0.889924 -0.137887 0)
(0.96317 -0.149616 0)
(1.04172 -0.162596 0)
(1.12586 -0.177043 0)
(1.21586 -0.193166 0)
(1.31209 -0.211228 0)
(1.41481 -0.231539 0)
(1.52451 -0.254454 0)
(1.64138 -0.280375 0)
(1.76594 -0.309822 0)
(1.8987 -0.343306 0)
(2.04024 -0.381562 0)
(2.19117 -0.425252 0)
(2.35227 -0.475339 0)
(2.52428 -0.532845 0)
(2.70824 -0.598646 0)
(2.90513 -0.674874 0)
(3.11617 -0.761004 0)
(3.34289 -0.861967 0)
(3.586 -0.973355 0)
(3.849 -1.10319 0)
(4.13067 -1.24221 0)
(4.43835 -1.39158 0)
(4.81621 -1.50754 0)
(5.28336 -1.68147 0)
(-0.000100218 -0.000591826 0)
(0.000324734 -0.00370962 0)
(0.00256131 -0.00906827 0)
(0.00778298 -0.0160517 0)
(0.0166662 -0.0235861 0)
(0.0298617 -0.0311445 0)
(0.0479394 -0.0385067 0)
(0.0710932 -0.0453741 0)
(0.0990862 -0.0514829 0)
(0.131279 -0.0567033 0)
(0.166761 -0.0610409 0)
(0.204564 -0.0646487 0)
(0.243882 -0.0677521 0)
(0.284178 -0.0705994 0)
(0.325144 -0.0734089 0)
(0.36667 -0.076377 0)
(0.408781 -0.0797079 0)
(0.451677 -0.0835871 0)
(0.495696 -0.088212 0)
(0.541313 -0.0936968 0)
(0.589093 -0.100134 0)
(0.639607 -0.10753 0)
(0.693388 -0.115886 0)
(0.750888 -0.12519 0)
(0.812462 -0.135476 0)
(0.87842 -0.146801 0)
(0.949033 -0.159302 0)
(1.02454 -0.173113 0)
(1.10524 -0.188451 0)
(1.19138 -0.205528 0)
(1.28323 -0.224613 0)
(1.38118 -0.246013 0)
(1.48519 -0.270097 0)
(1.59601 -0.29727 0)
(1.71378 -0.328058 0)
(1.83884 -0.36299 0)
(1.97165 -0.402799 0)
(2.11259 -0.448192 0)
(2.26233 -0.500093 0)
(2.42118 -0.559622 0)
(2.5901 -0.627576 0)
(2.76939 -0.706196 0)
(2.96015 -0.794985 0)
(3.16301 -0.898621 0)
(3.37868 -1.01348 0)
(3.60967 -1.14622 0)
(3.85541 -1.28942 0)
(4.12445 -1.44154 0)
(4.45323 -1.57517 0)
(4.8619 -1.7677 0)
(-0.000103411 -0.00059959 0)
(0.00029634 -0.00384176 0)
(0.00251182 -0.00941035 0)
(0.00775518 -0.016726 0)
(0.0167046 -0.0246865 0)
(0.0299783 -0.0327198 0)
(0.0481374 -0.0406 0)
(0.0713745 -0.0480064 0)
(0.0994389 -0.0546256 0)
(0.13168 -0.0602855 0)
(0.167185 -0.0649726 0)
(0.204991 -0.0688436 0)
(0.244294 -0.0721431 0)
(0.284557 -0.0751439 0)
(0.325467 -0.078086 0)
(0.366909 -0.0811842 0)
(0.4089 -0.0846603 0)
(0.451632 -0.0887183 0)
(0.495431 -0.0935741 0)
(0.540756 -0.0993575 0)
(0.588154 -0.10617 0)
(0.638168 -0.114018 0)
(0.691307 -0.122897 0)
(0.747992 -0.13279 0)
(0.808555 -0.143722 0)
(0.87328 -0.155745 0)
(0.942407 -0.168996 0)
(1.01617 -0.183612 0)
(1.09481 -0.199811 0)
(1.17857 -0.217808 0)
(1.2677 -0.237877 0)
(1.36241 -0.260321 0)
(1.46307 -0.285512 0)
(1.56973 -0.313873 0)
(1.68276 -0.345925 0)
(1.80244 -0.382208 0)
(1.92912 -0.423452 0)
(2.06305 -0.470402 0)
(2.2047 -0.523939 0)
(2.35426 -0.585266 0)
(2.51237 -0.655101 0)
(2.67899 -0.735754 0)
(2.85516 -0.826822 0)
(3.04097 -0.932643 0)
(3.23703 -1.05039 0)
(3.44514 -1.1855 0)
(3.66549 -1.33228 0)
(3.90708 -1.48902 0)
(4.19967 -1.63789 0)
(4.56322 -1.84487 0)
(-0.000106394 -0.000605638 0)
(0.000270378 -0.00397573 0)
(0.00246593 -0.00976456 0)
(0.00772938 -0.0174242 0)
(0.0167445 -0.0258272 0)
(0.0300963 -0.0343529 0)
(0.0483356 -0.0427666 0)
(0.0716548 -0.0507271 0)
(0.0997892 -0.0578709 0)
(0.132077 -0.0639817 0)
(0.167603 -0.0690267 0)
(0.20541 -0.073167 0)
(0.244703 -0.0766674 0)
(0.284946 -0.079825 0)
(0.325828 -0.0829021 0)
(0.367229 -0.0861322 0)
(0.409166 -0.0897551 0)
(0.45183 -0.093994 0)
(0.495543 -0.0990834 0)
(0.54076 -0.105168 0)
(0.588017 -0.112358 0)
(0.637841 -0.12066 0)
(0.690721 -0.130065 0)
(0.747058 -0.140546 0)
(0.80716 -0.15212 0)
(0.871293 -0.164836 0)
(0.939672 -0.178829 0)
(1.01251 -0.194239 0)
(1.09004 -0.211286 0)
(1.17245 -0.230186 0)
(1.25999 -0.251214 0)
(1.35285 -0.274678 0)
(1.45125 -0.30095 0)
(1.55537 -0.330451 0)
(1.66545 -0.363709 0)
(1.78168 -0.401279 0)
(1.90437 -0.443878 0)
(2.03363 -0.492283 0)
(2.16993 -0.547334 0)
(2.31317 -0.610299 0)
(2.46404 -0.681837 0)
(2.62223 -0.76427 0)
(2.78851 -0.857344 0)
(2.96274 -0.96502 0)
(3.14549 -1.08523 0)
(3.33819 -1.22244 0)
(3.54171 -1.37238 0)
(3.76515 -1.53408 0)
(4.03247 -1.69673 0)
(4.36314 -1.91674 0)
(-0.000109164 -0.000610004 0)
(0.000246832 -0.00411161 0)
(0.00242367 -0.0101315 0)
(0.00770542 -0.0181471 0)
(0.0167851 -0.0270091 0)
(0.0302145 -0.0360459 0)
(0.0485324 -0.045009 0)
(0.071932 -0.0535391 0)
(0.100136 -0.0612221 0)
(0.132468 -0.0677953 0)
(0.168013 -0.0732066 0)
(0.20582 -0.0776227 0)
(0.2451 -0.0813289 0)
(0.285322 -0.0846472 0)
(0.326177 -0.0878627 0)
(0.367544 -0.0912277 0)
(0.409442 -0.0950011 0)
(0.452061 -0.0994257 0)
(0.49573 -0.104755 0)
(0.540901 -0.111149 0)
(0.588106 -0.118725 0)
(0.637865 -0.127491 0)
(0.690651 -0.13743 0)
(0.74685 -0.148506 0)
(0.806755 -0.160729 0)
(0.870617 -0.174144 0)
(0.938635 -0.188884 0)
(1.01101 -0.20509 0)
(1.08795 -0.222984 0)
(1.16964 -0.242785 0)
(1.25628 -0.264767 0)
(1.34806 -0.28924 0)
(1.44515 -0.316576 0)
(1.54772 -0.347197 0)
(1.65597 -0.381636 0)
(1.77003 -0.420456 0)
(1.89017 -0.464363 0)
(2.01643 -0.514159 0)
(2.14921 -0.570653 0)
(2.28835 -0.635142 0)
(2.43436 -0.708282 0)
(2.58692 -0.792337 0)
(2.74661 -0.887233 0)
(2.91321 -0.996562 0)
(3.08725 -1.11895 0)
(3.2699 -1.25809 0)
(3.46266 -1.4111 0)
(3.67436 -1.57772 0)
(3.92423 -1.75356 0)
(4.2303 -1.98481 0)
(-0.000111718 -0.000612744 0)
(0.000225675 -0.00424945 0)
(0.002385 -0.0105116 0)
(0.00768311 -0.0188955 0)
(0.0168258 -0.0282332 0)
(0.0303319 -0.0378006 0)
(0.0487262 -0.0473299 0)
(0.0722038 -0.0564454 0)
(0.100475 -0.0646822 0)
(0.132851 -0.0717297 0)
(0.168413 -0.077516 0)
(0.206217 -0.0822143 0)
(0.245481 -0.0861315 0)
(0.285678 -0.0896146 0)
(0.326501 -0.0929717 0)
(0.367831 -0.0964751 0)
(0.409687 -0.100403 0)
(0.452264 -0.105019 0)
(0.495893 -0.110596 0)
(0.541032 -0.11731 0)
(0.58821 -0.125283 0)
(0.63794 -0.134526 0)
(0.690687 -0.145012 0)
(0.746825 -0.156697 0)
(0.806635 -0.169582 0)
(0.870357 -0.183708 0)
(0.938182 -0.199206 0)
(1.0103 -0.216219 0)
(1.0869 -0.23497 0)
(1.16816 -0.25568 0)
(1.25427 -0.278622 0)
(1.34539 -0.304106 0)
(1.44167 -0.332505 0)
(1.54325 -0.364244 0)
(1.6503 -0.399853 0)
(1.76294 -0.439907 0)
(1.88138 -0.485099 0)
(2.00564 -0.536251 0)
(2.13603 -0.594146 0)
(2.27237 -0.660098 0)
(2.41508 -0.734768 0)
(2.56379 -0.820343 0)
(2.71898 -0.916948 0)
(2.88039 -1.02783 0)
(3.04857 -1.1522 0)
(3.22456 -1.29328 0)
(3.41037 -1.44921 0)
(3.61414 -1.62097 0)
(3.85158 -1.80854 0)
(4.13858 -2.05003 0)
(-0.00011406 -0.000613911 0)
(0.000206848 -0.0043893 0)
(0.00234986 -0.0109056 0)
(0.00766225 -0.0196705 0)
(0.016866 -0.0295005 0)
(0.0304476 -0.039619 0)
(0.0489156 -0.0497321 0)
(0.072468 -0.0594489 0)
(0.100805 -0.0682547 0)
(0.133222 -0.0757886 0)
(0.168799 -0.0819587 0)
(0.206596 -0.0869457 0)
(0.24584 -0.0910788 0)
(0.286009 -0.0947307 0)
(0.326796 -0.098233 0)
(0.368082 -0.101878 0)
(0.40989 -0.105965 0)
(0.452419 -0.110779 0)
(0.496004 -0.116611 0)
(0.541108 -0.123656 0)
(0.588257 -0.13204 0)
(0.637964 -0.141773 0)
(0.690681 -0.152822 0)
(0.746776 -0.165131 0)
(0.806519 -0.178694 0)
(0.870141 -0.193546 0)
(0.937826 -0.209818 0)
(1.00976 -0.227654 0)
(1.08612 -0.247277 0)
(1.16708 -0.26891 0)
(1.25279 -0.292825 0)
(1.34343 -0.31933 0)
(1.43911 -0.348801 0)
(1.53996 -0.381663 0)
(1.64613 -0.418445 0)
(1.7577 -0.45973 0)
(1.87487 -0.5062 0)
(1.99762 -0.55869 0)
(2.12622 -0.617968 0)
(2.26046 -0.685344 0)
(2.40066 -0.761504 0)
(2.54649 -0.848542 0)
(2.69831 -0.946784 0)
(2.85588 -1.05916 0)
(3.01979 -1.18543 0)
(3.19098 -1.32845 0)
(3.37181 -1.4873 0)
(3.56964 -1.66425 0)
(3.79735 -1.86169 0)
(4.06815 -2.11333 0)
(-0.000116194 -0.000613584 0)
(0.000190275 -0.00453125 0)
(0.00231817 -0.011314 0)
(0.00764264 -0.0204728 0)
(0.0169048 -0.030812 0)
(0.0305604 -0.0415027 0)
(0.0490993 -0.052218 0)
(0.0727222 -0.0625524 0)
(0.101121 -0.0719427 0)
(0.133577 -0.0799756 0)
(0.169165 -0.0865385 0)
(0.206953 -0.0918207 0)
(0.246173 -0.0961748 0)
(0.286308 -0.0999995 0)
(0.327053 -0.10365 0)
(0.36829 -0.107441 0)
(0.410043 -0.111691 0)
(0.452516 -0.116709 0)
(0.496051 -0.122806 0)
(0.541111 -0.130192 0)
(0.588226 -0.139 0)
(0.637901 -0.149239 0)
(0.690584 -0.160866 0)
(0.74663 -0.173816 0)
(0.806304 -0.188073 0)
(0.869828 -0.20367 0)
(0.937381 -0.220732 0)
(1.00914 -0.23941 0)
(1.08528 -0.259922 0)
(1.16596 -0.282495 0)
(1.25133 -0.307398 0)
(1.34154 -0.33494 0)
(1.43669 -0.365495 0)
(1.5369 -0.399491 0)
(1.64229 -0.437453 0)
(1.75294 -0.479973 0)
(1.869 -0.527723 0)
(1.99045 -0.581544 0)
(2.11748 -0.642195 0)
(2.24991 -0.710971 0)
(2.38797 -0.788597 0)
(2.53133 -0.877062 0)
(2.68031 -0.976888 0)
(2.83464 -1.09075 0)
(2.995 -1.21883 0)
(3.1622 -1.36384 0)
(3.33888 -1.52563 0)
(3.53147 -1.70761 0)
(3.75038 -1.91368 0)
(4.0063 -2.17494 0)
(-0.00011813 -0.000611844 0)
(0.000175838 -0.00467536 0)
(0.00228983 -0.0117375 0)
(0.00762413 -0.0213034 0)
(0.0169416 -0.0321689 0)
(0.0306693 -0.0434533 0)
(0.0492757 -0.0547903 0)
(0.0729643 -0.0657591 0)
(0.101421 -0.0757493 0)
(0.133913 -0.0842941 0)
(0.169509 -0.0912592 0)
(0.207282 -0.0968431 0)
(0.246474 -0.101423 0)
(0.28657 -0.105425 0)
(0.327267 -0.109227 0)
(0.368448 -0.113167 0)
(0.41014 -0.117585 0)
(0.452549 -0.122813 0)
(0.496024 -0.129184 0)
(0.541033 -0.136922 0)
(0.588103 -0.146169 0)
(0.637737 -0.156929 0)
(0.690373 -0.16915 0)
(0.746359 -0.182758 0)
(0.805952 -0.197727 0)
(0.869365 -0.214085 0)
(0.936775 -0.231957 0)
(1.00835 -0.251494 0)
(1.08426 -0.272914 0)
(1.16466 -0.296445 0)
(1.24967 -0.322354 0)
(1.33944 -0.350949 0)
(1.43407 -0.382602 0)
(1.53364 -0.417743 0)
(1.63827 -0.456896 0)
(1.74801 -0.500658 0)
(1.863 -0.54969 0)
(1.98318 -0.604839 0)
(2.10871 -0.666856 0)
(2.2394 -0.737015 0)
(2.37541 -0.816085 0)
(2.51642 -0.905953 0)
(2.66271 -1.00732 0)
(2.81399 -1.12265 0)
(2.97101 -1.25249 0)
(3.13447 -1.39953 0)
(3.30708 -1.56422 0)
(3.49444 -1.75104 0)
(3.70464 -1.96503 0)
(3.94594 -2.23435 0)
(-0.00011988 -0.000608791 0)
(0.0001634 -0.00482172 0)
(0.00226472 -0.0121765 0)
(0.00760656 -0.0221631 0)
(0.0169757 -0.0335723 0)
(0.0307731 -0.0454723 0)
(0.0494434 -0.0574516 0)
(0.0731923 -0.069072 0)
(0.101701 -0.0796779 0)
(0.134225 -0.0887478 0)
(0.169824 -0.0961246 0)
(0.207579 -0.102017 0)
(0.246738 -0.106828 0)
(0.286789 -0.11101 0)
(0.327432 -0.114968 0)
(0.368549 -0.11906 0)
(0.410172 -0.123651 0)
(0.45251 -0.129095 0)
(0.495917 -0.135748 0)
(0.540864 -0.143852 0)
(0.587878 -0.153551 0)
(0.637459 -0.164848 0)
(0.690035 -0.17768 0)
(0.745947 -0.191962 0)
(0.805442 -0.207661 0)
(0.868728 -0.224799 0)
(0.935976 -0.243499 0)
(1.00735 -0.263914 0)
(1.08301 -0.286261 0)
(1.16309 -0.310767 0)
(1.24773 -0.337698 0)
(1.33704 -0.367361 0)
(1.43111 -0.400127 0)
(1.53002 -0.436426 0)
(1.63385 -0.47678 0)
(1.74265 -0.521789 0)
(1.85653 -0.572108 0)
(1.97541 -0.628579 0)
(2.09941 -0.691956 0)
(2.22833 -0.76348 0)
(2.36227 -0.843971 0)
(2.5009 -0.935219 0)
(2.64448 -1.03808 0)
(2.79269 -1.15487 0)
(2.94633 -1.28642 0)
(3.10596 -1.43549 0)
(3.27429 -1.60303 0)
(3.45592 -1.7944 0)
(3.65715 -2.01546 0)
(3.88386 -2.29153 0)
(-0.000121456 -0.000604522 0)
(0.000152784 -0.00497042 0)
(0.0022427 -0.0126315 0)
(0.00758979 -0.023053 0)
(0.0170064 -0.0350232 0)
(0.0308708 -0.0475613 0)
(0.0496012 -0.0602044 0)
(0.073404 -0.0724941 0)
(0.10196 -0.0837316 0)
(0.134509 -0.0933401 0)