/*--------------------------------*- C++ -*----------------------------------*\
  =========                 |
  \\      /  F ield         | OpenFOAM: The Open Source CFD Toolbox
   \\    /   O peration     | Website:  https://openfoam.org
    \\  /    A nd           | Version:  7
     \\/     M anipulation  |
\*---------------------------------------------------------------------------*/
FoamFile
{
    version     2.0;
    format      ascii;
    class       surfaceScalarField;
    location    "0.39";
    object      ddtCorrDdt0(phi);
}
// * * * * * * * * * * * * * * * * * * * * * * * * * * * * * * * * * * * * * //

dimensions      [0 3 -2 0 0 0 0];

internalField   nonuniform List<scalar> 
139350
(
3.26535e-10
-3.24303e-10
1.1023e-09
-7.71919e-10
2.28225e-09
-1.17463e-09
3.67516e-09
-1.389e-09
5.17137e-09
-1.49208e-09
6.71246e-09
-1.53748e-09
8.25522e-09
-1.53931e-09
9.78806e-09
-1.53068e-09
1.13268e-08
-1.53545e-09
1.2884e-08
-1.5567e-09
1.44795e-08
-1.59212e-09
1.61174e-08
-1.63731e-09
1.78069e-08
-1.68678e-09
1.95478e-08
-1.73892e-09
2.13405e-08
-1.79204e-09
2.31947e-08
-1.85016e-09
2.51067e-08
-1.91365e-09
2.71019e-08
-1.98786e-09
2.91756e-08
-2.07532e-09
3.13627e-08
-2.17856e-09
3.36655e-08
-2.30181e-09
3.61157e-08
-2.44416e-09
3.87257e-08
-2.60849e-09
4.1528e-08
-2.79646e-09
4.45325e-08
-3.00597e-09
4.77845e-08
-3.24219e-09
5.12874e-08
-3.50502e-09
5.50958e-08
-3.797e-09
5.92221e-08
-4.12503e-09
6.37199e-08
-4.48946e-09
6.86201e-08
-4.89785e-09
7.3984e-08
-5.35571e-09
7.98503e-08
-5.86695e-09
8.63048e-08
-6.44119e-09
9.33878e-08
-7.08427e-09
1.01206e-07
-7.80301e-09
1.09819e-07
-8.61043e-09
1.19349e-07
-9.51948e-09
1.29872e-07
-1.05166e-08
1.41562e-07
-1.16823e-08
1.54432e-07
-1.28661e-08
1.68826e-07
-1.43816e-08
1.84493e-07
-1.56664e-08
2.02174e-07
-1.76598e-08
2.20872e-07
-1.86949e-08
2.42439e-07
-2.15426e-08
2.62843e-07
-2.03956e-08
2.85225e-07
-2.23622e-08
2.81694e-07
3.52758e-09
-1.10687e-07
3.92381e-07
4.70061e-10
-7.91655e-10
2.26085e-09
-2.55852e-09
5.42501e-09
-4.33309e-09
9.36438e-09
-5.32412e-09
1.36324e-08
-5.75567e-09
1.80304e-08
-5.93164e-09
2.24327e-08
-5.93787e-09
2.67957e-08
-5.89141e-09
3.11554e-08
-5.89153e-09
3.55609e-08
-5.96174e-09
4.00609e-08
-6.08841e-09
4.46735e-08
-6.24923e-09
4.94119e-08
-6.42233e-09
5.42747e-08
-6.59949e-09
5.92617e-08
-6.77844e-09
6.43871e-08
-6.97104e-09
6.96577e-08
-7.18612e-09
7.51177e-08
-7.43979e-09
8.07867e-08
-7.74592e-09
8.67299e-08
-8.11267e-09
9.29821e-08
-8.55279e-09
9.96102e-08
-9.06576e-09
1.06662e-07
-9.65884e-09
1.14208e-07
-1.0336e-08
1.22297e-07
-1.10965e-08
1.31017e-07
-1.19515e-08
1.40418e-07
-1.29081e-08
1.50607e-07
-1.39744e-08
1.61657e-07
-1.51726e-08
1.73686e-07
-1.65103e-08
1.86803e-07
-1.80123e-08
2.01155e-07
-1.96986e-08
2.16878e-07
-2.15912e-08
2.34171e-07
-2.37189e-08
2.53198e-07
-2.61131e-08
2.74213e-07
-2.88013e-08
2.97441e-07
-3.18355e-08
3.23194e-07
-3.52606e-08
3.51775e-07
-3.90922e-08
3.83597e-07
-4.34948e-08
4.19007e-07
-4.82723e-08
4.58622e-07
-5.39831e-08
5.02661e-07
-5.97046e-08
5.52362e-07
-6.73376e-08
6.06734e-07
-7.30636e-08
6.69522e-07
-8.43034e-08
7.3381e-07
-8.46752e-08
8.08714e-07
-9.72458e-08
8.65158e-07
-5.29222e-08
-1.37475e-07
8.91946e-07
2.74557e-10
-1.06312e-09
2.14159e-09
-4.42109e-09
6.16746e-09
-8.35294e-09
1.18067e-08
-1.09588e-08
1.82599e-08
-1.22042e-08
2.50464e-08
-1.27141e-08
3.19e-08
-1.27874e-08
3.87023e-08
-1.26915e-08
4.54704e-08
-1.26557e-08
5.22724e-08
-1.27633e-08
5.91849e-08
-1.2997e-08
6.62451e-08
-1.33086e-08
7.34742e-08
-1.36485e-08
8.08715e-08
-1.39944e-08
8.84351e-08
-1.43415e-08
9.61801e-08
-1.47111e-08
1.04119e-07
-1.51268e-08
1.12308e-07
-1.56201e-08
1.20784e-07
-1.62241e-08
1.29637e-07
-1.69557e-08
1.38925e-07
-1.78399e-08
1.48744e-07
-1.88778e-08
1.59169e-07
-2.00821e-08
1.70299e-07
-2.1459e-08
1.82213e-07
-2.30125e-08
1.95033e-07
-2.47597e-08
2.08844e-07
-2.67211e-08
2.23795e-07
-2.89131e-08
2.40004e-07
-3.138e-08
2.57645e-07
-3.41421e-08
2.76884e-07
-3.72488e-08
2.97937e-07
-4.07417e-08
3.21016e-07
-4.46713e-08
3.46407e-07
-4.90942e-08
3.74373e-07
-5.408e-08
4.05281e-07
-5.96921e-08
4.39485e-07
-6.60368e-08
4.77445e-07
-7.32082e-08
5.19652e-07
-8.1293e-08
5.66683e-07
-9.05161e-08
6.19203e-07
-1.00788e-07
6.77974e-07
-1.1274e-07
7.43736e-07
-1.25465e-07
8.17811e-07
-1.41388e-07
9.00056e-07
-1.55305e-07
9.94785e-07
-1.79004e-07
1.09494e-06
-1.84825e-07
1.20889e-06
-2.11176e-07
1.32428e-06
-1.6831e-07
-1.83431e-07
1.37023e-06
6.70331e-11
-1.12678e-09
1.39299e-09
-5.74235e-09
5.04142e-09
-1.19951e-08
1.10212e-08
-1.69339e-08
1.8585e-08
-1.97631e-08
2.69982e-08
-2.1123e-08
3.57492e-08
-2.15342e-08
4.45484e-08
-2.14883e-08
5.33135e-08
-2.14169e-08
6.20783e-08
-2.15276e-08
7.0925e-08
-2.18396e-08
7.99094e-08
-2.22921e-08
8.90696e-08
-2.28057e-08
9.84149e-08
-2.33371e-08
1.07947e-07
-2.38735e-08
1.17683e-07
-2.44419e-08
1.27637e-07
-2.50826e-08
1.3787e-07
-2.58445e-08
1.48429e-07
-2.67843e-08
1.59415e-07
-2.79314e-08
1.70903e-07
-2.93262e-08
1.83005e-07
-3.09735e-08
1.95817e-07
-3.28926e-08
2.09458e-07
-3.50925e-08
2.24027e-07
-3.75839e-08
2.39671e-07
-4.03908e-08
2.56498e-07
-4.35509e-08
2.7469e-07
-4.70916e-08
2.94395e-07
-5.10837e-08
3.15828e-07
-5.5565e-08
3.39196e-07
-6.06147e-08
3.64766e-07
-6.63016e-08
3.92805e-07
-7.27107e-08
4.23661e-07
-7.99342e-08
4.57666e-07
-8.80865e-08
4.9527e-07
-9.72786e-08
5.36917e-07
-1.0768e-07
5.83166e-07
-1.19445e-07
6.3464e-07
-1.32761e-07
6.92027e-07
-1.47893e-07
7.56201e-07
-1.64959e-07
8.28041e-07
-1.84565e-07
9.08569e-07
-2.05992e-07
9.99396e-07
-2.3219e-07
1.10029e-06
-2.56195e-07
1.21674e-06
-2.95422e-07
1.34228e-06
-3.10363e-07
1.48074e-06
-3.49608e-07
1.63242e-06
-3.20002e-07
-2.78873e-07
1.72786e-06
-6.77694e-12
-1.11641e-09
7.06841e-10
-6.45109e-09
3.30418e-09
-1.45859e-08
8.3933e-09
-2.2018e-08
1.57031e-08
-2.70678e-08
2.45818e-08
-2.99974e-08
3.43704e-08
-3.13185e-08
4.45619e-08
-3.16774e-08
5.4879e-08
-3.17298e-08
6.52283e-08
-3.18763e-08
7.56345e-08
-3.22417e-08
8.61431e-08
-3.27997e-08
9.68038e-08
-3.34634e-08
1.07643e-07
-3.41732e-08
1.18675e-07
-3.49054e-08
1.29926e-07
-3.56872e-08
1.41412e-07
-3.65712e-08
1.53198e-07
-3.76213e-08
1.6533e-07
-3.89179e-08
1.77913e-07
-4.05038e-08
1.91026e-07
-4.24377e-08
2.0479e-07
-4.47299e-08
2.19307e-07
-4.74087e-08
2.34709e-07
-5.04871e-08
2.51108e-07
-5.39846e-08
2.68663e-07
-5.79332e-08
2.875e-07
-6.23901e-08
3.07818e-07
-6.73964e-08
3.29789e-07
-7.30521e-08
3.5365e-07
-7.94168e-08
3.79641e-07
-8.66028e-08
4.0806e-07
-9.47105e-08
4.39212e-07
-1.03864e-07
4.73491e-07
-1.14196e-07
5.11273e-07
-1.2587e-07
5.53064e-07
-1.39052e-07
5.99368e-07
-1.5398e-07
6.50811e-07
-1.70875e-07
7.081e-07
-1.90043e-07
7.71993e-07
-2.11777e-07
8.43483e-07
-2.36444e-07
9.23553e-07
-2.64619e-07
1.01332e-06
-2.95762e-07
1.11462e-06
-3.3346e-07
1.22761e-06
-3.69181e-07
1.35645e-06
-4.24229e-07
1.49891e-06
-4.52818e-07
1.65183e-06
-5.02509e-07
1.82257e-06
-4.90749e-07
-4.16511e-07
1.9602e-06
1.69769e-11
-1.12963e-09
3.65652e-10
-6.79472e-09
1.93187e-09
-1.61455e-08
5.59434e-09
-2.56754e-08
1.1619e-08
-3.30872e-08
1.97364e-08
-3.81103e-08
2.94165e-08
-4.09943e-08
4.00768e-08
-4.23352e-08
5.12599e-08
-4.29086e-08
6.26868e-08
-4.33027e-08
7.4249e-08
-4.37996e-08
8.5921e-08
-4.44707e-08
9.77299e-08
-4.52691e-08
1.09706e-07
-4.61462e-08
1.21878e-07
-4.70771e-08
1.34285e-07
-4.80888e-08
1.46954e-07
-4.92427e-08
1.59954e-07
-5.06111e-08
1.73328e-07
-5.22936e-08
1.87178e-07
-5.43434e-08
2.01578e-07
-5.68364e-08
2.16646e-07
-5.97902e-08
2.32482e-07
-6.32441e-08
2.4922e-07
-6.72171e-08
2.66974e-07
-7.17403e-08
2.85908e-07
-7.68548e-08
3.06156e-07
-8.26395e-08
3.27924e-07
-8.91509e-08
3.51394e-07
-9.65202e-08
3.76819e-07
-1.04832e-07
4.04454e-07
-1.14235e-07
4.34618e-07
-1.24864e-07
4.67637e-07
-1.36884e-07
5.03935e-07
-1.50477e-07
5.43918e-07
-1.65853e-07
5.88127e-07
-1.83243e-07
6.37105e-07
-2.02955e-07
6.91517e-07
-2.25275e-07
7.52124e-07
-2.50643e-07
8.19733e-07
-2.79375e-07
8.95385e-07
-3.12092e-07
9.80151e-07
-3.4937e-07
1.07519e-06
-3.90795e-07
1.18237e-06
-4.40619e-07
1.3022e-06
-4.89009e-07
1.43775e-06
-5.59751e-07
1.59025e-06
-6.0531e-07
1.75106e-06
-6.63291e-07
1.93166e-06
-6.71363e-07
-5.84264e-07
2.09941e-06
5.74519e-11
-1.18318e-09
2.9716e-10
-7.02923e-09
1.22599e-09
-1.70675e-08
3.6354e-09
-2.80796e-08
8.08146e-09
-3.75279e-08
1.47008e-08
-4.4725e-08
2.32822e-08
-4.95711e-08
3.33831e-08
-5.24336e-08
4.45148e-08
-5.40359e-08
5.62686e-08
-5.50559e-08
6.83895e-08
-5.59162e-08
8.07381e-08
-5.68182e-08
9.32747e-08
-5.78026e-08
1.06002e-07
-5.8871e-08
1.18948e-07
-6.00226e-08
1.32161e-07
-6.12958e-08
1.45679e-07
-6.27628e-08
1.59579e-07
-6.45015e-08
1.73907e-07
-6.66235e-08
1.88761e-07
-6.91867e-08
2.04205e-07
-7.22789e-08
2.20346e-07
-7.59234e-08
2.37274e-07
-8.01703e-08
2.55111e-07
-8.5047e-08
2.73967e-07
-9.05982e-08
2.94001e-07
-9.68762e-08
3.15343e-07
-1.03983e-07
3.38199e-07
-1.11993e-07
3.62749e-07
-1.21068e-07
3.89248e-07
-1.31322e-07
4.17955e-07
-1.42939e-07
4.49196e-07
-1.56095e-07
4.83306e-07
-1.70995e-07
5.20722e-07
-1.87875e-07
5.61865e-07
-2.06996e-07
6.07293e-07
-2.28654e-07
6.57574e-07
-2.53232e-07
7.13392e-07
-2.8108e-07
7.75536e-07
-3.1278e-07
8.44841e-07
-3.4867e-07
9.22366e-07
-3.89612e-07
1.00923e-06
-4.36213e-07
1.10661e-06
-4.88176e-07
1.21628e-06
-5.50268e-07
1.33922e-06
-6.11945e-07
1.47763e-06
-6.98131e-07
1.63444e-06
-7.62114e-07
1.79848e-06
-8.27308e-07
1.98371e-06
-8.5661e-07
-7.72828e-07
2.17227e-06
7.53878e-11
-1.25454e-09
3.37971e-10
-7.28648e-09
1.02256e-09
-1.7745e-08
2.67772e-09
-2.97294e-08
5.87236e-09
-4.07171e-08
1.09577e-08
-4.98056e-08
1.80218e-08
-5.66306e-08
2.6871e-08
-6.12803e-08
3.71386e-08
-6.4299e-08
4.84126e-08
-6.63293e-08
6.03606e-08
-6.78599e-08
7.27473e-08
-6.92037e-08
8.54542e-08
-7.05064e-08
9.84348e-08
-7.18488e-08
1.11694e-07
-7.32809e-08
1.25275e-07
-7.48715e-08
1.39224e-07
-7.67144e-08
1.53629e-07
-7.88963e-08
1.68542e-07
-8.15383e-08
1.84062e-07
-8.4696e-08
2.00247e-07
-8.8462e-08
2.1719e-07
-9.28593e-08
2.34967e-07
-9.79457e-08
2.53685e-07
-1.03756e-07
2.73435e-07
-1.1035e-07
2.94365e-07
-1.17793e-07
3.1659e-07
-1.26211e-07
3.40307e-07
-1.35696e-07
3.65684e-07
-1.46442e-07
3.92966e-07
-1.58594e-07
4.22402e-07
-1.72372e-07
4.54312e-07
-1.87994e-07
4.89024e-07
-2.05708e-07
5.26971e-07
-2.25805e-07
5.68575e-07
-2.48601e-07
6.14394e-07
-2.74456e-07
6.65001e-07
-3.03834e-07
7.21079e-07
-3.37146e-07
7.83427e-07
-3.75121e-07
8.52884e-07
-4.18116e-07
9.30504e-07
-4.67228e-07
1.01741e-06
-5.23105e-07
1.11481e-06
-5.85569e-07
1.22432e-06
-6.59756e-07
1.34726e-06
-7.34876e-07
1.48511e-06
-8.35958e-07
1.6424e-06
-9.19393e-07
1.80525e-06
-9.90139e-07
1.99131e-06
-1.04268e-06
-9.74681e-07
2.19315e-06
7.33805e-11
-1.32379e-09
3.76986e-10
-7.58462e-09
1.04165e-09
-1.84026e-08
2.40962e-09
-3.10919e-08
4.90143e-09
-4.32033e-08
8.88968e-09
-5.3789e-08
1.4613e-08
-6.23492e-08
2.2084e-08
-6.87487e-08
3.11108e-08
-7.33212e-08
4.13728e-08
-7.65906e-08
5.25501e-08
-7.90328e-08
6.43721e-08
-8.10246e-08
7.6671e-08
-8.2802e-08
8.93569e-08
-8.45319e-08
1.02406e-07
-8.63291e-08
1.15848e-07
-8.83083e-08
1.29729e-07
-9.05978e-08
1.44145e-07
-9.33022e-08
1.5916e-07
-9.65542e-08
1.7488e-07
-1.00406e-07
1.91366e-07
-1.04946e-07
2.08706e-07
-1.10192e-07
2.26961e-07
-1.16199e-07
2.46221e-07
-1.23008e-07
2.6656e-07
-1.30691e-07
2.88105e-07
-1.39325e-07
3.10952e-07
-1.49059e-07
3.35276e-07
-1.60007e-07
3.61228e-07
-1.72391e-07
3.8903e-07
-1.86387e-07
4.1891e-07
-2.02249e-07
4.51168e-07
-2.2024e-07
4.8611e-07
-2.40651e-07
5.24148e-07
-2.63827e-07
5.65689e-07
-2.90142e-07
6.11266e-07
-3.20015e-07
6.61442e-07
-3.54005e-07
7.16876e-07
-3.92568e-07
7.78351e-07
-4.3659e-07
8.46692e-07
-4.86447e-07
9.22914e-07
-5.43445e-07
1.00814e-06
-6.08313e-07
1.10351e-06
-6.80939e-07
1.21057e-06
-7.6679e-07
1.33072e-06
-8.55024e-07
1.46496e-06
-9.70172e-07
1.61956e-06
-1.07399e-06
1.77705e-06
-1.14762e-06
1.96026e-06
-1.22591e-06
-1.18311e-06
2.16867e-06
6.45954e-11
-1.38414e-09
3.91475e-10
-7.90589e-09
1.10163e-09
-1.91054e-08
2.44194e-09
-3.24266e-08
4.68826e-09
-4.5444e-08
8.1208e-09
-5.72166e-08
1.29905e-08
-6.7214e-08
1.9407e-08
-7.51626e-08
2.73024e-08
-8.1212e-08
3.64624e-08
-8.57499e-08
4.66293e-08
-8.91953e-08
5.75513e-08
-9.19453e-08
6.90525e-08
-9.43001e-08
8.10256e-08
-9.65021e-08
9.34286e-08
-9.87316e-08
1.06281e-07
-1.01155e-07
1.19624e-07
-1.03943e-07
1.33559e-07
-1.07228e-07
1.48164e-07
-1.11161e-07
1.63561e-07
-1.15792e-07
1.79823e-07
-1.21206e-07
1.97041e-07
-1.27403e-07
2.15276e-07
-1.34432e-07
2.34604e-07
-1.42329e-07
2.55084e-07
-1.51173e-07
2.76824e-07
-1.61052e-07
2.99899e-07
-1.72135e-07
3.2446e-07
-1.84554e-07
3.50631e-07
-1.9856e-07
3.78609e-07
-2.14355e-07
4.08589e-07
-2.32227e-07
4.4084e-07
-2.52479e-07
4.75635e-07
-2.75447e-07
5.13348e-07
-3.01523e-07
5.54353e-07
-3.31146e-07
5.99141e-07
-3.64786e-07
6.48239e-07
-4.03098e-07
7.02263e-07
-4.46579e-07
7.61949e-07
-4.96268e-07
8.28089e-07
-5.52577e-07
9.01611e-07
-6.16963e-07
9.83633e-07
-6.90318e-07
1.07517e-06
-7.72477e-07
1.17769e-06
-8.69286e-07
1.29267e-06
-9.69998e-07
1.42039e-06
-1.09786e-06
1.56161e-06
-1.21519e-06
1.72584e-06
-1.31183e-06
1.89437e-06
-1.39446e-06
-1.39188e-06
2.10313e-06
5.69776e-11
-1.43677e-09
3.91749e-10
-8.23492e-09
1.14571e-09
-1.98519e-08
2.54738e-09
-3.38225e-08
4.79435e-09
-4.76852e-08
8.07308e-09
-6.04903e-08
1.25773e-08
-7.17134e-08
1.84147e-08
-8.09973e-08
2.5568e-08
-8.83606e-08
3.38893e-08
-9.40705e-08
4.31753e-08
-9.84768e-08
5.32102e-08
-1.01979e-07
6.38355e-08
-1.04922e-07
7.49484e-08
-1.07612e-07
8.65046e-08
-1.10287e-07
9.8519e-08
-1.13163e-07
1.11031e-07
-1.16457e-07
1.24147e-07
-1.20334e-07
1.37956e-07
-1.24971e-07
1.52599e-07
-1.30424e-07
1.68166e-07
-1.36771e-07
1.84767e-07
-1.43996e-07
2.02468e-07
-1.52131e-07
2.21349e-07
-1.61201e-07
2.41457e-07
-1.71283e-07
2.62889e-07
-1.82471e-07
2.85702e-07
-1.94949e-07
3.10026e-07
-2.08865e-07
3.3596e-07
-2.24491e-07
3.63671e-07
-2.42055e-07
3.9332e-07
-2.61873e-07
4.25138e-07
-2.84286e-07
4.59356e-07
-3.09666e-07
4.96301e-07
-3.38452e-07
5.36298e-07
-3.71143e-07
5.79783e-07
-4.08254e-07
6.27224e-07
-4.50535e-07
6.79177e-07
-4.9852e-07
7.36295e-07
-5.53379e-07
7.99325e-07
-6.15597e-07
8.6906e-07
-6.86693e-07
9.46594e-07
-7.67837e-07
1.03278e-06
-8.58662e-07
1.12897e-06
-9.6545e-07
1.23661e-06
-1.07763e-06
1.35542e-06
-1.21665e-06
1.48803e-06
-1.3478e-06
1.64112e-06
-1.46491e-06
1.79842e-06
-1.55178e-06
-1.59544e-06
2.00196e-06
5.16333e-11
-1.48395e-09
3.8987e-10
-8.56727e-09
1.17342e-09
-2.06279e-08
2.64589e-09
-3.52892e-08
4.98147e-09
-5.00149e-08
8.30945e-09
-6.38131e-08
1.27672e-08
-7.61661e-08
1.84278e-08
-8.66551e-08
2.52631e-08
-9.51912e-08
3.31387e-08
-1.01945e-07
4.1877e-08
-1.07211e-07
5.12859e-08
-1.11386e-07
6.1225e-08
-1.14858e-07
7.16028e-08
-1.17987e-07
8.23797e-08
-1.21064e-07
9.35714e-08
-1.24349e-07
1.05216e-07
-1.28104e-07
1.17423e-07
-1.32531e-07
1.30289e-07
-1.37838e-07
1.4397e-07
-1.44095e-07
1.58578e-07
-1.51377e-07
1.74242e-07
-1.59652e-07
1.91044e-07
-1.68932e-07
2.09074e-07
-1.79222e-07
2.28382e-07
-1.90593e-07
2.49059e-07
-2.03135e-07
2.71153e-07
-2.17044e-07
2.94777e-07
-2.32476e-07
3.20012e-07
-2.49723e-07
3.46998e-07
-2.69031e-07
3.75866e-07
-2.90739e-07
4.06807e-07
-3.15215e-07
4.4001e-07
-3.42869e-07
4.7575e-07
-3.74175e-07
5.14296e-07
-4.09689e-07
5.56019e-07
-4.4996e-07
6.01314e-07
-4.95824e-07
6.50665e-07
-5.4786e-07
7.04615e-07
-6.07323e-07
7.63849e-07
-6.74821e-07
8.28998e-07
-7.51838e-07
9.01089e-07
-8.39912e-07
9.80811e-07
-9.38381e-07
1.06933e-06
-1.05394e-06
1.16804e-06
-1.17634e-06
1.27628e-06
-1.32487e-06
1.3978e-06
-1.46931e-06
1.53817e-06
-1.60528e-06
1.68058e-06
-1.69421e-06
-1.78936e-06
1.87447e-06
4.72496e-11
-1.52665e-09
3.90205e-10
-8.90421e-09
1.19652e-09
-2.14265e-08
2.73069e-09
-3.68173e-08
5.16923e-09
-5.24474e-08
8.61792e-09
-6.72566e-08
1.31817e-08
-8.07248e-08
1.89005e-08
-9.23712e-08
2.57199e-08
-1.02006e-07
3.34898e-08
-1.09714e-07
4.20289e-08
-1.15745e-07
5.11485e-08
-1.20505e-07
6.07137e-08
-1.2442e-07
7.06385e-08
-1.27909e-07
8.08864e-08
-1.31311e-07
9.14733e-08
-1.3493e-07
1.02436e-07
-1.39068e-07
1.1388e-07
-1.43965e-07
1.25907e-07
-1.49867e-07
1.38681e-07
-1.56858e-07
1.52329e-07
-1.65023e-07
1.66998e-07
-1.74313e-07
1.82787e-07
-1.8472e-07
1.998e-07
-1.96227e-07
2.18095e-07
-2.0889e-07
2.37765e-07
-2.22793e-07
2.58855e-07
-2.38134e-07
2.81471e-07
-2.55079e-07
3.05679e-07
-2.73928e-07
3.31601e-07
-2.94943e-07
3.59343e-07
-3.18478e-07
3.89063e-07
-3.44923e-07
4.2091e-07
-3.74717e-07
4.55109e-07
-4.08358e-07
4.91875e-07
-4.46454e-07
5.31513e-07
-4.89582e-07
5.74336e-07
-5.38643e-07
6.20756e-07
-5.94268e-07
6.71193e-07
-6.57752e-07
7.26249e-07
-7.29866e-07
7.86394e-07
-8.1198e-07
8.52534e-07
-9.06036e-07
9.25218e-07
-1.01106e-06
1.00535e-06
-1.13405e-06
1.09429e-06
-1.26527e-06
1.19107e-06
-1.42164e-06
1.29994e-06
-1.57817e-06
1.42784e-06
-1.73318e-06
1.55178e-06
-1.81817e-06
-1.97076e-06
1.73315e-06
4.28667e-11
-1.56487e-09
3.92672e-10
-9.24785e-09
1.22104e-09
-2.2247e-08
2.81167e-09
-3.84018e-08
5.34941e-09
-5.49791e-08
8.93302e-09
-7.08349e-08
1.36544e-08
-8.5441e-08
1.95359e-08
-9.82498e-08
2.65006e-08
-1.08966e-07
3.43774e-08
-1.1759e-07
4.29689e-08
-1.24333e-07
5.20764e-08
-1.29611e-07
6.15597e-08
-1.339e-07
7.13302e-08
-1.37676e-07
8.13491e-08
-1.41329e-07
9.16285e-08
-1.45204e-07
1.022e-07
-1.49642e-07
1.13165e-07
-1.54921e-07
1.24622e-07
-1.61324e-07
1.36735e-07
-1.68962e-07
1.49641e-07
-1.77926e-07
1.63494e-07
-1.88159e-07
1.78408e-07
-1.99632e-07
1.94496e-07
-2.12307e-07
2.11826e-07
-2.26222e-07
2.30496e-07
-2.41449e-07
2.5055e-07
-2.58188e-07
2.72091e-07
-2.76607e-07
2.95178e-07
-2.97012e-07
3.19921e-07
-3.19676e-07
3.46409e-07
-3.44963e-07
3.7477e-07
-3.73274e-07
4.05125e-07
-4.05072e-07
4.37655e-07
-4.40872e-07
4.72522e-07
-4.8132e-07
5.09976e-07
-5.27021e-07
5.50252e-07
-5.78914e-07
5.93688e-07
-6.37692e-07
6.40587e-07
-7.04645e-07
6.91456e-07
-7.80726e-07
7.46623e-07
-8.67142e-07
8.06828e-07
-9.66227e-07
8.72517e-07
-1.07675e-06
9.44299e-07
-1.20581e-06
1.02344e-06
-1.34441e-06
1.10895e-06
-1.50713e-06
1.2046e-06
-1.67381e-06
1.32195e-06
-1.85052e-06
1.42433e-06
-1.92058e-06
-2.13888e-06
1.59242e-06
3.82691e-11
-1.5984e-09
3.93496e-10
-9.59677e-09
1.24798e-09
-2.30936e-08
2.89499e-09
-4.00426e-08
5.52984e-09
-5.76077e-08
9.24909e-09
-7.45487e-08
1.414e-08
-9.03267e-08
2.02187e-08
-1.04326e-07
2.73953e-08
-1.16138e-07
3.54817e-08
-1.25676e-07
4.42647e-08
-1.33111e-07
5.3533e-08
-1.38877e-07
6.31367e-08
-1.43501e-07
7.29798e-08
-1.47516e-07
8.30177e-08
-1.51367e-07
9.32566e-08
-1.55437e-07
1.03722e-07
-1.60109e-07
1.14508e-07
-1.65697e-07
1.25706e-07
-1.72524e-07
1.3748e-07
-1.80725e-07
1.49961e-07
-1.90404e-07
1.63309e-07
-2.015e-07
1.77646e-07
-2.13966e-07
1.93087e-07
-2.2774e-07
2.09705e-07
-2.42841e-07
2.276e-07
-2.59332e-07
2.46817e-07
-2.77406e-07
2.67457e-07
-2.97234e-07
2.89575e-07
-3.19127e-07
3.13272e-07
-3.43363e-07
3.38623e-07
-3.70311e-07
3.65741e-07
-4.00381e-07
3.94719e-07
-4.34049e-07
4.25704e-07
-4.71842e-07
4.58816e-07
-5.14432e-07
4.94258e-07
-5.62447e-07
5.32196e-07
-6.16847e-07
5.72903e-07
-6.78387e-07
6.16582e-07
-7.48318e-07
6.63642e-07
-8.27776e-07
7.14294e-07
-9.1779e-07
7.691e-07
-1.02102e-06
8.28428e-07
-1.13608e-06
8.92593e-07
-1.26996e-06
9.62798e-07
-1.41461e-06
1.03808e-06
-1.58239e-06
1.12106e-06
-1.7568e-06
1.2082e-06
-1.93766e-06
1.33253e-06
-2.04493e-06
-2.27273e-06
1.46634e-06
3.35475e-11
-1.6271e-09
3.93698e-10
-9.95046e-09
1.27693e-09
-2.39687e-08
2.98227e-09
-4.17416e-08
5.71562e-09
-6.03348e-08
9.57227e-09
-7.83998e-08
1.46362e-08
-9.53853e-08
2.09222e-08
-1.10608e-07
2.8333e-08
-1.23544e-07
3.66694e-08
-1.34011e-07
4.57061e-08
-1.42144e-07
5.52213e-08
-1.48391e-07
6.50564e-08
-1.53333e-07
7.51079e-08
-1.57565e-07
8.53252e-08
-1.61583e-07
9.57084e-08
-1.65815e-07
1.06278e-07
-1.7068e-07
1.17121e-07
-1.76531e-07
1.28325e-07
-1.83728e-07
1.40046e-07
-1.92436e-07
1.52415e-07
-2.0277e-07
1.65587e-07
-2.14666e-07
1.79683e-07
-2.28059e-07
1.94818e-07
-2.42867e-07
2.11066e-07
-2.59091e-07
2.28523e-07
-2.76777e-07
2.47236e-07
-2.96119e-07
2.67303e-07
-3.17289e-07
2.88774e-07
-3.40594e-07
3.11742e-07
-3.66322e-07
3.36272e-07
-3.94838e-07
3.62471e-07
-4.26569e-07
3.90404e-07
-4.61983e-07
4.20184e-07
-5.01606e-07
4.5191e-07
-5.46157e-07
4.85747e-07
-5.96269e-07
5.21806e-07
-6.52901e-07
5.60305e-07
-7.16875e-07
6.01368e-07
-7.89375e-07
6.45312e-07
-8.7171e-07
6.92264e-07
-9.64738e-07
7.42614e-07
-1.07135e-06
7.96673e-07
-1.19013e-06
8.54505e-07
-1.32777e-06
9.1722e-07
-1.47732e-06
9.83843e-07
-1.649e-06
1.05647e-06
-1.82943e-06
1.13464e-06
-2.01583e-06
1.24411e-06
-2.15443e-06
-2.39319e-06
1.36454e-06
2.88055e-11
-1.65097e-09
3.93982e-10
-1.0309e-08
1.30758e-09
-2.4874e-08
3.07347e-09
-4.35009e-08
5.90809e-09
-6.3163e-08
9.90624e-09
-8.23923e-08
1.51477e-08
-1.00621e-07
2.16462e-08
-1.17104e-07
2.93003e-08
-1.31193e-07
3.7902e-08
-1.42612e-07
4.72168e-08
-1.51454e-07
5.70155e-08
-1.58189e-07
6.71329e-08
-1.63448e-07
7.74602e-08
-1.67889e-07
8.79419e-08
-1.72064e-07
9.85741e-08
-1.76442e-07
1.09374e-07
-1.81481e-07
1.20425e-07
-1.87573e-07
1.31812e-07
-1.95116e-07
1.43686e-07
-2.04301e-07
1.56177e-07
-2.15257e-07
1.69434e-07
-2.27917e-07
1.83575e-07
-2.42198e-07
1.98713e-07
-2.57996e-07
2.14917e-07
-2.75296e-07
2.32282e-07
-2.9413e-07
2.50849e-07
-3.14685e-07
2.70707e-07
-3.37136e-07
2.91909e-07
-3.61792e-07
3.14536e-07
-3.88939e-07
3.38655e-07
-4.18954e-07
3.64328e-07
-4.52231e-07
3.91629e-07
-4.89283e-07
4.20691e-07
-5.30654e-07
4.51549e-07
-5.77013e-07
4.84334e-07
-6.2904e-07
5.19123e-07
-6.87685e-07
5.56089e-07
-7.53831e-07
5.95303e-07
-8.28583e-07
6.37001e-07
-9.13398e-07
6.81261e-07
-1.00899e-06
7.28316e-07
-1.11839e-06
7.78438e-07
-1.24025e-06
8.31508e-07
-1.38082e-06
8.88524e-07
-1.53434e-06
9.48605e-07
-1.70906e-06
1.01358e-06
-1.89441e-06
1.08465e-06
-2.08691e-06
1.18229e-06
-2.2521e-06
-2.50304e-06
1.2921e-06
2.40994e-11
-1.67003e-09
3.94427e-10
-1.06726e-08
1.33993e-09
-2.58112e-08
3.1685e-09
-4.53229e-08
6.10729e-09
-6.60953e-08
1.0252e-08
-8.65313e-08
1.56767e-08
-1.06041e-07
2.2394e-08
-1.23818e-07
3.02984e-08
-1.39093e-07
3.9174e-08
-1.51486e-07
4.87784e-08
-1.61054e-07
5.88765e-08
-1.68285e-07
6.92984e-08
-1.73866e-07
7.99312e-08
-1.78519e-07
9.07167e-08
-1.82849e-07
1.01649e-07
-1.87369e-07
1.12743e-07
-1.92576e-07
1.24083e-07
-1.98905e-07
1.35753e-07
-2.06786e-07
1.47904e-07
-2.16443e-07
1.60662e-07
-2.28012e-07
1.74177e-07
-2.41425e-07
1.88561e-07
-2.5658e-07
2.03925e-07
-2.73352e-07
2.20333e-07
-2.91704e-07
2.37874e-07
-3.11659e-07
2.56587e-07
-3.33398e-07
2.76558e-07
-3.57095e-07
2.9783e-07
-3.8306e-07
3.20482e-07
-4.11583e-07
3.44564e-07
-4.43033e-07
3.70162e-07
-4.7782e-07
3.97316e-07
-5.16437e-07
4.26104e-07
-5.59428e-07
4.56585e-07
-6.07492e-07
4.8887e-07
-6.61311e-07
5.23006e-07
-7.21817e-07
5.59126e-07
-7.8994e-07
5.97272e-07
-8.66724e-07
6.37606e-07
-9.53723e-07
6.80162e-07
-1.05155e-06
7.25072e-07
-1.16329e-06
7.72595e-07
-1.28778e-06
8.22484e-07
-1.43069e-06
8.75612e-07
-1.58746e-06
9.31263e-07
-1.7647e-06
9.91073e-07
-1.95422e-06
1.05727e-06
-2.15312e-06
1.14611e-06
-2.34098e-06
-2.60475e-06
1.24778e-06
1.94659e-11
-1.68436e-09
3.95099e-10
-1.10413e-08
1.37406e-09
-2.67816e-08
3.26743e-09
-4.72095e-08
6.3131e-09
-6.91344e-08
1.06095e-08
-9.0822e-08
1.6224e-08
-1.11649e-07
2.31669e-08
-1.30758e-07
3.13291e-08
-1.4725e-07
4.04867e-08
-1.60643e-07
5.03894e-08
-1.70953e-07
6.07967e-08
-1.78691e-07
7.15346e-08
-1.84601e-07
8.24875e-08
-1.89469e-07
9.3595e-08
-1.93956e-07
1.0485e-07
-1.98618e-07
1.16268e-07
-2.03996e-07
1.27935e-07
-2.10563e-07
1.39938e-07
-2.18789e-07
1.52428e-07
-2.28924e-07
1.65534e-07
-2.41115e-07
1.79404e-07
-2.55288e-07
1.94148e-07
-2.71323e-07
2.09874e-07
-2.8907e-07
2.26644e-07
-3.08475e-07
2.44543e-07
-3.29547e-07
2.63606e-07
-3.52461e-07
2.83914e-07
-3.77392e-07
3.05507e-07
-4.0465e-07
3.28459e-07
-4.34526e-07
3.52815e-07
-4.67386e-07
3.78644e-07
-5.03639e-07
4.05985e-07
-5.43778e-07
4.34916e-07
-5.88346e-07
4.65468e-07
-6.38043e-07
4.97739e-07
-6.93569e-07
5.31757e-07
-7.5583e-07
5.67631e-07
-8.25804e-07
6.05377e-07
-9.04465e-07
6.4511e-07
-9.93447e-07
6.86868e-07
-1.0933e-06
7.30668e-07
-1.20708e-06
7.76748e-07
-1.33385e-06
8.24814e-07
-1.47874e-06
8.75623e-07
-1.63827e-06
9.28673e-07
-1.81774e-06
9.85498e-07
-2.01106e-06
1.04888e-06
-2.2165e-06
1.13168e-06
-2.42382e-06
-2.70087e-06
1.22776e-06
1.49389e-11
-1.69408e-09
3.96044e-10
-1.14154e-08
1.41005e-09
-2.7787e-08
3.3704e-09
-4.91629e-08
6.52548e-09
-7.22828e-08
1.09788e-08
-9.52694e-08
1.67896e-08
-1.17455e-07
2.39654e-08
-1.3793e-07
3.23933e-08
-1.55673e-07
4.18414e-08
-1.7009e-07
5.20509e-08
-1.81159e-07
6.27762e-08
-1.89415e-07
7.38392e-08
-1.95662e-07
8.51218e-08
-2.00749e-07
9.65621e-08
-2.05396e-07
1.08152e-07
-2.10204e-07
1.1991e-07
-2.15756e-07
1.31923e-07
-2.22568e-07
1.44282e-07
-2.31148e-07
1.57142e-07
-2.41775e-07
1.70634e-07
-2.54604e-07
1.84908e-07
-2.69555e-07
2.00073e-07
-2.86486e-07
2.16235e-07
-3.05225e-07
2.33455e-07
-3.25696e-07
2.51815e-07
-3.47896e-07
2.7135e-07
-3.71994e-07
2.92135e-07
-3.98166e-07
3.14209e-07
-4.2672e-07
3.3764e-07
-4.57948e-07
3.62469e-07
-4.92213e-07
3.8876e-07
-5.29919e-07
4.16543e-07
-5.71561e-07
4.45892e-07
-6.17681e-07
4.76826e-07
-6.68976e-07
5.09431e-07
-7.26161e-07
5.43723e-07
-7.90118e-07
5.79789e-07
-8.61861e-07
6.17638e-07
-9.4231e-07
6.57338e-07
-1.03314e-06
6.98924e-07
-1.13489e-06
7.42362e-07
-1.25051e-06
7.87869e-07
-1.37936e-06
8.35147e-07
-1.52601e-06
8.84839e-07
-1.68797e-06
9.36672e-07
-1.86957e-06
9.92099e-07
-2.0665e-06
1.05415e-06
-2.27857e-06
1.13298e-06
-2.50269e-06
-2.79302e-06
1.22509e-06
1.05556e-11
-1.69932e-09
3.97308e-10
-1.17949e-08
1.44794e-09
-2.8829e-08
3.47753e-09
-5.11855e-08
6.74445e-09
-7.55429e-08
1.13597e-08
-9.98788e-08
1.73736e-08
-1.23463e-07
2.47895e-08
-1.45343e-07
3.34911e-08
-1.6437e-07
4.32384e-08
-1.79836e-07
5.37637e-08
-1.91681e-07
6.48158e-08
-2.00465e-07
7.62127e-08
-2.07056e-07
8.78338e-08
-2.12368e-07
9.96158e-08
-2.17177e-07
1.1155e-07
-2.22133e-07
1.23658e-07
-2.27864e-07
1.36027e-07
-2.3493e-07
1.48756e-07
-2.43877e-07
1.62002e-07
-2.55013e-07
1.75901e-07
-2.685e-07
1.90603e-07
-2.8425e-07
2.0622e-07
-3.021e-07
2.22856e-07
-3.21854e-07
2.40572e-07
-3.43412e-07
2.59448e-07
-3.66762e-07
2.79518e-07
-3.92063e-07
3.00856e-07
-4.19494e-07
3.23499e-07
-4.4936e-07
3.47512e-07
-4.81952e-07
3.72932e-07
-5.17631e-07
3.99819e-07
-5.56796e-07
4.28197e-07
-5.99939e-07
4.58134e-07
-6.47606e-07
4.89645e-07
-7.00485e-07
5.22803e-07
-7.59307e-07
5.57618e-07
-8.2493e-07
5.9416e-07
-8.98393e-07
6.32433e-07
-9.80579e-07
6.72472e-07
-1.07317e-06
7.14313e-07
-1.17673e-06
7.57883e-07
-1.29406e-06
8.03384e-07
-1.42486e-06
8.50547e-07
-1.57316e-06
8.99914e-07
-1.73734e-06
9.51436e-07
-1.92109e-06
1.00648e-06
-2.12155e-06
1.06812e-06
-2.34023e-06
1.14445e-06
-2.57906e-06
-2.88208e-06
1.23347e-06
6.35207e-12
-1.70027e-09
3.98928e-10
-1.21802e-08
1.4878e-09
-2.9909e-08
3.5889e-09
-5.32795e-08
6.97029e-09
-7.89175e-08
1.17522e-08
-1.04655e-07
1.79758e-08
-1.29681e-07
2.56393e-08
-1.53003e-07
3.46225e-08
-1.73349e-07
4.46777e-08
-1.8989e-07
5.55279e-08
-2.02527e-07
6.69158e-08
-2.11852e-07
7.86555e-08
-2.18793e-07
9.06238e-08
-2.24334e-07
1.02756e-07
-2.29309e-07
1.15043e-07
-2.34417e-07
1.27509e-07
-2.40331e-07
1.40244e-07
-2.47659e-07
1.53353e-07
-2.56986e-07
1.66996e-07
-2.68648e-07
1.81315e-07
-2.82815e-07
1.96461e-07
-2.9939e-07
2.12547e-07
-3.18184e-07
2.29677e-07
-3.38977e-07
2.47913e-07
-3.61648e-07
2.67333e-07
-3.86172e-07
2.87972e-07
-4.12701e-07
3.09903e-07
-4.41414e-07
3.33161e-07
-4.72614e-07
3.57808e-07
-5.06592e-07
3.83881e-07
-5.43701e-07
4.11433e-07
-5.84339e-07
4.40488e-07
-6.28994e-07
4.71105e-07
-6.78211e-07
5.03297e-07
-7.32676e-07
5.37128e-07
-7.93127e-07
5.72604e-07
-8.60403e-07
6.09778e-07
-9.35558e-07
6.48653e-07
-1.01945e-06
6.89238e-07
-1.11375e-06
7.31569e-07
-1.21906e-06
7.75555e-07
-1.33804e-06
8.21373e-07
-1.47068e-06
8.688e-07
-1.62057e-06
9.18301e-07
-1.78684e-06
9.70007e-07
-1.97279e-06
1.02521e-06
-2.17677e-06
1.08691e-06
-2.40195e-06
1.16148e-06
-2.65367e-06
-2.96845e-06
1.2478e-06
2.36449e-12
-1.69714e-09
4.00947e-10
-1.25712e-08
1.52966e-09
-3.10288e-08
3.70462e-09
-5.54472e-08
7.20362e-09
-8.24096e-08
1.21561e-08
-1.09601e-07
1.85962e-08
-1.36115e-07
2.65146e-08
-1.60918e-07
3.57874e-08
-1.82617e-07
4.61593e-08
-2.00261e-07
5.73434e-08
-2.13708e-07
6.90762e-08
-2.23583e-07
8.11676e-08
-2.30882e-07
9.3492e-08
-2.36656e-07
1.05983e-07
-2.41799e-07
1.18632e-07
-2.47061e-07
1.31463e-07
-2.53163e-07
1.44574e-07
-2.60762e-07
1.58071e-07
-2.70483e-07
1.72122e-07
-2.82691e-07
1.8687e-07
-2.9756e-07
2.02471e-07
-3.14984e-07
2.19038e-07
-3.3475e-07
2.36677e-07
-3.56609e-07
2.55448e-07
-3.8042e-07
2.7543e-07
-4.06144e-07
2.96657e-07
-4.33927e-07
3.19201e-07
-4.63949e-07
3.43098e-07
-4.96508e-07
3.68407e-07
-5.31894e-07
3.95163e-07
-5.70454e-07
4.23415e-07
-6.12583e-07
4.53185e-07
-6.58763e-07
4.84527e-07
-7.09542e-07
5.17449e-07
-7.65598e-07
5.52009e-07
-8.27677e-07
5.88209e-07
-8.96601e-07
6.26088e-07
-9.73429e-07
6.65645e-07
-1.05901e-06
7.06872e-07
-1.15496e-06
7.49801e-07
-1.26199e-06
7.94331e-07
-1.38256e-06
8.40614e-07
-1.51696e-06
8.88481e-07
-1.66843e-06
9.38325e-07
-1.83669e-06
9.90426e-07
-2.02489e-06
1.046e-06
-2.23236e-06
1.10785e-06
-2.46382e-06
1.18092e-06
-2.72678e-06
-3.0522e-06
1.26463e-06
-1.37546e-12
-1.69019e-09
4.03403e-10
-1.29684e-08
1.57352e-09
-3.21899e-08
3.82472e-09
-5.76911e-08
7.44407e-09
-8.60221e-08
1.25714e-08
-1.14722e-07
1.92344e-08
-1.42773e-07
2.74154e-08
-1.69096e-07
3.69858e-08
-1.92183e-07
4.76828e-08
-2.10957e-07
5.921e-08
-2.25232e-07
7.1297e-08
-2.35669e-07
8.37491e-08
-2.43332e-07
9.64383e-08
-2.49343e-07
1.09297e-07
-2.54657e-07
1.22315e-07
-2.60076e-07
1.35522e-07
-2.66371e-07
1.49015e-07
-2.74249e-07
1.6291e-07
-2.84378e-07
1.77377e-07
-2.9715e-07
1.92565e-07
-3.12746e-07
2.08631e-07
-3.31045e-07
2.25691e-07
-3.51808e-07
2.4385e-07
-3.7476e-07
2.63168e-07
-3.99738e-07
2.83723e-07
-4.26689e-07
3.05551e-07
-4.55754e-07
3.28723e-07
-4.87112e-07
3.53273e-07
-5.21056e-07
3.7926e-07
-5.57873e-07
4.06714e-07
-5.97907e-07