/*--------------------------------*- C++ -*----------------------------------*\
  =========                 |
  \\      /  F ield         | OpenFOAM: The Open Source CFD Toolbox
   \\    /   O peration     | Website:  https://openfoam.org
    \\  /    A nd           | Version:  7
     \\/     M anipulation  |
\*---------------------------------------------------------------------------*/
FoamFile
{
    version     2.0;
    format      ascii;
    class       volScalarField;
    location    "0.39";
    object      p;
}
// * * * * * * * * * * * * * * * * * * * * * * * * * * * * * * * * * * * * * //

dimensions      [0 2 -2 0 0 0 0];

internalField   nonuniform List<scalar> 
70000
(
0.08484
0.00737493
-0.00516614
-0.00275053
-0.00261915
-0.00372363
-0.00471907
-0.00549322
-0.00615639
-0.00675624
-0.0073061
-0.00781403
-0.00828768
-0.00873381
-0.00915801
-0.00956485
-0.00995813
-0.010341
-0.0107163
-0.0110864
-0.0114534
-0.0118193
-0.0121861
-0.0125554
-0.0129289
-0.0133084
-0.0136957
-0.0140924
-0.0145004
-0.0149218
-0.0153587
-0.0158134
-0.0162885
-0.0167869
-0.0173119
-0.0178673
-0.0184571
-0.0190862
-0.0197606
-0.0204858
-0.0212718
-0.0221226
-0.0230593
-0.0240748
-0.0252224
-0.0264538
-0.0279142
-0.0294252
-0.0313876
-0.0333336
0.0804721
0.00774186
-0.00496314
-0.00265492
-0.00256457
-0.00368759
-0.00469088
-0.00546994
-0.00613684
-0.00673953
-0.00729155
-0.00780116
-0.00827618
-0.00872343
-0.00914857
-0.0095562
-0.00995016
-0.0103337
-0.0107094
-0.01108
-0.0114474
-0.0118137
-0.0121807
-0.0125503
-0.0129241
-0.0133039
-0.0136913
-0.0140882
-0.0144965
-0.014918
-0.0153551
-0.0158099
-0.0162851
-0.0167838
-0.0173089
-0.0178644
-0.0184543
-0.0190836
-0.0197582
-0.0204835
-0.0212698
-0.0221208
-0.0230577
-0.0240735
-0.0252215
-0.0264535
-0.0279144
-0.029428
-0.0313877
-0.0332792
0.0768917
0.00868196
-0.0046227
-0.00252579
-0.00249029
-0.00364281
-0.00465852
-0.00544371
-0.006115
-0.00672103
-0.00727558
-0.00778713
-0.00826369
-0.0087122
-0.00913837
-0.00954687
-0.00994156
-0.0103257
-0.010702
-0.011073
-0.0114409
-0.0118075
-0.0121749
-0.0125448
-0.0129189
-0.0132989
-0.0136865
-0.0140837
-0.0144921
-0.0149138
-0.015351
-0.015806
-0.0162813
-0.01678
-0.0173052
-0.0178608
-0.0184509
-0.0190802
-0.0197548
-0.0204803
-0.0212666
-0.0221176
-0.0230547
-0.0240705
-0.0252186
-0.0264504
-0.0279113
-0.0294266
-0.031361
-0.0332091
0.0737978
0.00978403
-0.00415296
-0.00235166
-0.00238926
-0.00358515
-0.00462025
-0.00541368
-0.00609031
-0.00670044
-0.00725804
-0.00777189
-0.00825022
-0.00870015
-0.00912748
-0.00953695
-0.00993245
-0.0103173
-0.0106942
-0.0110657
-0.011434
-0.0118011
-0.0121688
-0.012539
-0.0129133
-0.0132936
-0.0136814
-0.0140787
-0.0144873
-0.0149092
-0.0153465
-0.0158015
-0.016277
-0.0167757
-0.017301
-0.0178566
-0.0184466
-0.0190759
-0.0197504
-0.0204757
-0.0212619
-0.0221126
-0.0230494
-0.0240648
-0.0252123
-0.0264434
-0.0279019
-0.0294189
-0.0313127
-0.0331181
0.0708387
0.0108809
-0.00358673
-0.00213086
-0.00225456
-0.00350712
-0.00457111
-0.00537647
-0.00606015
-0.00667566
-0.00723729
-0.00775411
-0.00823469
-0.00868638
-0.00911514
-0.00952577
-0.00992224
-0.0103079
-0.0106855
-0.0110576
-0.0114264
-0.0117939
-0.012162
-0.0125325
-0.0129072
-0.0132877
-0.0136758
-0.0140732
-0.014482
-0.0149039
-0.0153413
-0.0157965
-0.0162719
-0.0167707
-0.0172959
-0.0178514
-0.0184412
-0.0190703
-0.0197446
-0.0204695
-0.0212551
-0.0221053
-0.0230412
-0.0240556
-0.0252014
-0.0264316
-0.0278839
-0.0294018
-0.0312416
-0.032997
0.06793
0.0119202
-0.00297113
-0.00188352
-0.00209204
-0.00340711
-0.00450849
-0.00532988
-0.0060226
-0.00664499
-0.00721185
-0.00773252
-0.008216
-0.00866995
-0.00910052
-0.00951262
-0.00991031
-0.010297
-0.0106754
-0.0110483
-0.0114177
-0.0117857
-0.0121543
-0.0125252
-0.0129001
-0.0132809
-0.0136692
-0.0140669
-0.0144758
-0.0148979
-0.0153353
-0.0157905
-0.0162659
-0.0167645
-0.0172896
-0.0178448
-0.0184344
-0.0190631
-0.0197368
-0.020461
-0.0212458
-0.0220948
-0.0230291
-0.0240417
-0.0251845
-0.0264124
-0.027855
-0.029371
-0.031147
-0.0328424
0.0650657
0.0128832
-0.00233991
-0.00163123
-0.00191495
-0.0032898
-0.00443347
-0.005274
-0.00597727
-0.00660777
-0.00718096
-0.00770636
-0.00819343
-0.00865018
-0.00908299
-0.00949691
-0.0098961
-0.010284
-0.0106635
-0.0110372
-0.0114074
-0.0117761
-0.0121452
-0.0125166
-0.0128919
-0.013273
-0.0136616
-0.0140595
-0.0144685
-0.0148907
-0.0153282
-0.0157833
-0.0162586
-0.0167571
-0.0172819
-0.0178368
-0.0184258
-0.0190538
-0.0197267
-0.0204498
-0.0212331
-0.0220804
-0.0230123
-0.0240221
-0.02516
-0.0263841
-0.0278127
-0.0293221
-0.0310275
-0.0326536
0.0622517
0.0137618
-0.00170898
-0.00138582
-0.00173417
-0.00316166
-0.00434945
-0.00521088
-0.00592535
-0.00656461
-0.00714483
-0.00767561
-0.0081668
-0.0086268
-0.00906223
-0.00947831
-0.00987928
-0.0102687
-0.0106495
-0.0110242
-0.0113953
-0.0117648
-0.0121345
-0.0125064
-0.0128823
-0.0132638
-0.0136527
-0.0140508
-0.0144599
-0.0148822
-0.0153197
-0.0157747
-0.0162499
-0.0167481
-0.0172724
-0.0178268
-0.0184151
-0.0190422
-0.0197138
-0.0204353
-0.0212166
-0.0220614
-0.0229898
-0.0239956
-0.0251264
-0.0263447
-0.0277543
-0.0292512
-0.030882
-0.0324305
0.059494
0.0145533
-0.00108352
-0.00115131
-0.0015558
-0.00302754
-0.00425974
-0.00514311
-0.00586885
-0.00651692
-0.00710445
-0.00764092
-0.00813653
-0.00860006
-0.00903837
-0.00945684
-0.0098598
-0.0102509
-0.0106331
-0.0110091
-0.0113812
-0.0117515
-0.012122
-0.0124946
-0.012871
-0.0132529
-0.0136421
-0.0140405
-0.0144498
-0.0148722
-0.0153096
-0.0157645
-0.0162394
-0.0167372
-0.017261
-0.0178146
-0.0184019
-0.0190277
-0.0196977
-0.0204171
-0.0211957
-0.022037
-0.0229606
-0.023961
-0.0250824
-0.0262923
-0.0276779
-0.0291551
-0.0307095
-0.0321741
0.0567971
0.0152573
-0.000464709
-0.000928032
-0.00138277
-0.00289017
-0.00416643
-0.00507264
-0.00580958
-0.00646625
-0.00706107
-0.0076033
-0.00810342
-0.00857058
-0.00901188
-0.00943285
-0.00983792
-0.0102308
-0.0106145
-0.0109918
-0.0113651
-0.0117364
-0.0121077
-0.012481
-0.0128579
-0.0132403
-0.0136299
-0.0140286
-0.0144381
-0.0148605
-0.0152978
-0.0157525
-0.0162271
-0.0167243
-0.0172474
-0.0178
-0.018386
-0.0190101
-0.019678
-0.0203947
-0.0211698
-0.0220067
-0.0229242
-0.0239177
-0.0250271
-0.0262255
-0.0275822
-0.0290318
-0.0305099
-0.0318866
0.0541642
0.0158743
0.000146702
-0.000715163
-0.00121651
-0.00275103
-0.00407052
-0.00500057
-0.0057487
-0.00641373
-0.00701573
-0.0075637
-0.00806831
-0.00853909
-0.00898339
-0.00940688
-0.0098141
-0.0102088
-0.0105941
-0.0109728
-0.0113472
-0.0117195
-0.0120917
-0.0124657
-0.0128432
-0.0132261
-0.0136161
-0.014015
-0.0144247
-0.0148471
-0.0152843
-0.0157387
-0.0162128
-0.0167094
-0.0172315
-0.0177829
-0.0183673
-0.0189894
-0.0196546
-0.020368
-0.0211387
-0.0219702
-0.0228802
-0.0238649
-0.0249597
-0.0261434
-0.0274667
-0.0288805
-0.0302837
-0.0315712
0.0515984
0.0164047
0.0007493
-0.000511638
-0.00105792
-0.00261098
-0.00397236
-0.00492736
-0.00568684
-0.00636001
-0.00696908
-0.00752276
-0.00803183
-0.0085062
-0.00895347
-0.00937946
-0.00978881
-0.0101853
-0.0105722
-0.0109522
-0.0113278
-0.0117011
-0.0120742
-0.0124489
-0.0128271
-0.0132105
-0.0136008
-0.0139999
-0.0144097
-0.014832
-0.0152691
-0.0157231
-0.0161966
-0.0166923
-0.0172134
-0.0177632
-0.0183458
-0.0189653
-0.0196275
-0.0203368
-0.0211024
-0.0219274
-0.0228284
-0.0238027
-0.0248803
-0.0260456
-0.0273319
-0.0287024
-0.0300325
-0.0312323
0.0491022
0.0168489
0.00134107
-0.000316265
-0.000907672
-0.00247081
-0.00387212
-0.00485317
-0.00562428
-0.0063054
-0.00692147
-0.00748084
-0.00799437
-0.0084723
-0.00892252
-0.00935099
-0.00976244
-0.0101607
-0.0105492
-0.0109305
-0.0113073
-0.0116816
-0.0120555
-0.0124309
-0.0128097
-0.0131935
-0.0135842
-0.0139835
-0.0143933
-0.0148155
-0.0152523
-0.0157058
-0.0161786
-0.0166733
-0.0171931
-0.0177411
-0.0183215
-0.0189382
-0.0195967
-0.0203014
-0.0210609
-0.0218785
-0.0227691
-0.0237312
-0.0247894
-0.0259328
-0.027179
-0.0284999
-0.0297595
-0.0308748
0.0466782
0.0172078
0.00191957
-0.000127672
-0.000766296
-0.00233135
-0.00376989
-0.00477802
-0.00556116
-0.00625006
-0.00687303
-0.00743811
-0.00795611
-0.0084376
-0.00889075
-0.00932169
-0.00973522
-0.0101353
-0.0105253
-0.0109079
-0.0112858
-0.0116611
-0.0120358
-0.0124119
-0.0127912
-0.0131754
-0.0135664
-0.0139658
-0.0143756
-0.0147977
-0.015234
-0.015687
-0.0161589
-0.0166525
-0.0171707
-0.0177168
-0.0182946
-0.0189081
-0.0195624
-0.0202619
-0.0210146
-0.0218238
-0.0227027
-0.0236509
-0.0246878
-0.025806
-0.0270101
-0.0282765
-0.0294683
-0.0305037
0.0443286
0.0174827
0.00248191
5.56607e-05
-0.000634176
-0.00219349
-0.00366582
-0.00470189
-0.00549754
-0.00619406
-0.00682383
-0.00739464
-0.00791713
-0.0084022
-0.00885828
-0.00929168
-0.00970729
-0.0101092
-0.0105006
-0.0108846
-0.0112635
-0.0116398
-0.0120153
-0.012392
-0.0127718
-0.0131564
-0.0135476
-0.0139471
-0.0143568
-0.0147786
-0.0152146
-0.0156668
-0.0161378
-0.01663
-0.0171465
-0.0176904
-0.0182654
-0.0188752
-0.019525
-0.0202187
-0.0209638
-0.0217638
-0.0226298
-0.0235627
-0.0245766
-0.0256667
-0.0268272
-0.0280362
-0.0291624
-0.0301231
0.0420556
0.0176753
0.00302496
0.000235276
-0.000511532
-0.00205819
-0.00356011
-0.00462477
-0.0054335
-0.00613748
-0.00677391
-0.00735045
-0.00787747
-0.00836612
-0.00882515
-0.00926101
-0.0096787
-0.0100823
-0.0104753
-0.0108605
-0.0112406
-0.0116177
-0.011994
-0.0123714
-0.0127517
-0.0131366
-0.013528
-0.0139275
-0.0143371
-0.0147586
-0.0151939
-0.0156454
-0.0161152
-0.016606
-0.0171206
-0.017662
-0.0182339
-0.0188398
-0.0194845
-0.0201719
-0.020909
-0.0216988
-0.0225511
-0.0234672
-0.0244568
-0.0255166
-0.0266327
-0.0277831
-0.0288451
-0.0297365
0.0398608
0.0177876
0.00354564
0.000412586
-0.000398422
-0.00192644
-0.00345304
-0.00454662
-0.0053691
-0.00608039
-0.0067233
-0.00730556
-0.00783713
-0.00832939
-0.00879136
-0.00922969
-0.00964947
-0.0100549
-0.0104493
-0.0108359
-0.011217
-0.0115951
-0.0119721
-0.0123501
-0.0127308
-0.013116
-0.0135075
-0.0139071
-0.0143164
-0.0147375
-0.0151722
-0.0156227
-0.0160913
-0.0165805
-0.017093
-0.0176317
-0.0182003
-0.0188019
-0.0194413
-0.020122
-0.0208502
-0.0216293
-0.022467
-0.0233652
-0.0243294
-0.025357
-0.0264284
-0.0275203
-0.0285199
-0.0293467
0.0377455
0.0178221
0.00404097
0.000588764
-0.000294735
-0.00179923
-0.00334496
-0.00446742
-0.00530437
-0.00602287
-0.00667204
-0.00725998
-0.00779613
-0.008292
-0.00875692
-0.00919772
-0.00961959
-0.0100268
-0.0104227
-0.0108105
-0.0111927
-0.0115717
-0.0119495
-0.012328
-0.0127091
-0.0130946
-0.0134862
-0.0138857
-0.0142948
-0.0147154
-0.0151494
-0.0155989
-0.0160661
-0.0165535
-0.0170638
-0.0175997
-0.0181646
-0.0187617
-0.0193953
-0.0200688
-0.0207878
-0.0215554
-0.0223779
-0.023257
-0.0241952
-0.0251892
-0.026216
-0.0272499
-0.0281894
-0.0289557
0.0357104
0.0177817
0.00450806
0.000764693
-0.000200187
-0.00167755
-0.0032363
-0.00438717
-0.00523938
-0.00596501
-0.00662017
-0.00721372
-0.00775447
-0.00825396
-0.00872183
-0.0091651
-0.00958905
-0.00999799
-0.0103955
-0.0107845
-0.0111678
-0.0115476
-0.0119261
-0.0123052
-0.0126867
-0.0130725
-0.0134641
-0.0138635
-0.0142722
-0.0146922
-0.0151254
-0.0155738
-0.0160396
-0.0165251
-0.0170329
-0.0175658
-0.0181268
-0.0187191
-0.0193466
-0.0200126
-0.0207218
-0.0214774
-0.0222839
-0.0231431
-0.0240546
-0.0250141
-0.0259965
-0.0269738
-0.0278551
-0.0285645
0.0337561
0.01767
0.00494412
0.00094094
-0.000114326
-0.00156229
-0.00312759
-0.00430588
-0.00517414
-0.00590689
-0.00656776
-0.00716681
-0.00771215
-0.00821527
-0.00868608
-0.00913182
-0.00955786
-0.00996855
-0.0103675
-0.0107578
-0.0111422
-0.0115229
-0.011902
-0.0122817
-0.0126635
-0.0130495
-0.0134411
-0.0138403
-0.0142487
-0.0146681
-0.0151004
-0.0155475
-0.0160117
-0.0164952
-0.0170004
-0.01753
-0.0180869
-0.0186741
-0.0192952
-0.0199532
-0.0206522
-0.0213951
-0.0221852
-0.0230237
-0.0239079
-0.0248324
-0.0257708
-0.0266929
-0.027518
-0.0281737
0.0318824
0.0174908
0.00534648
0.00111773
-3.65423e-05
-0.00145426
-0.00301944
-0.00422361
-0.00510867
-0.00584861
-0.00651487
-0.00711927
-0.00766919
-0.00817594
-0.00864969
-0.00909787
-0.00952599
-0.00993844
-0.0103389
-0.0107305
-0.0111158
-0.0114974
-0.0118772
-0.0122573
-0.0126395
-0.0130256
-0.0134172
-0.0138162
-0.0142241
-0.0146428
-0.0150741
-0.0155199
-0.0159824
-0.0164637
-0.0169661
-0.0174922
-0.0180448
-0.0186266
-0.0192409
-0.0198905
-0.020579
-0.0213086
-0.0220817
-0.0228988
-0.0237554
-0.0246444
-0.0255392
-0.026408
-0.0271788
-0.0277833
0.0300889
0.0172486
0.00571268
0.00129492
3.39089e-05
-0.00135415
-0.00291254
-0.00414045
-0.00504299
-0.00579027
-0.00646158
-0.00707113
-0.00762561
-0.00813598
-0.00861264
-0.00906325
-0.00949343
-0.00990763
-0.0103096
-0.0107023
-0.0110887
-0.0114711
-0.0118516
-0.0122322
-0.0126147
-0.0130009
-0.0133924
-0.013791
-0.0141984
-0.0146164
-0.0150466
-0.015491
-0.0159516
-0.0164305
-0.01693
-0.0174524
-0.0180004
-0.0185765
-0.0191838
-0.0198246
-0.020502
-0.0212179
-0.0219735
-0.0227685
-0.023597
-0.0244505
-0.0253022
-0.0261195
-0.0268377
-0.0273931
0.0283749
0.0169481
0.00604048
0.00147201
9.78767e-05
-0.00126249
-0.00280766
-0.00405656
-0.00497708
-0.00573193
-0.00640797
-0.00702245
-0.00758141
-0.00809539
-0.00857494
-0.00902797
-0.00946019
-0.00987612
-0.0102795
-0.0106735
-0.0110609
-0.0114441
-0.0118252
-0.0122062
-0.0125889
-0.0129752
-0.0133666
-0.0137649
-0.0141717
-0.0145887
-0.0150177
-0.0154606
-0.0159192
-0.0163956
-0.016892
-0.0174105
-0.0179536
-0.0185238
-0.0191236
-0.0197552
-0.0204211
-0.0211228
-0.0218604
-0.0226327
-0.023433
-0.0242508
-0.0250601
-0.0258276
-0.026495
-0.0270032
0.0267391
0.0165942
0.00632791
0.00164808
0.000156288
-0.00117963
-0.00270561
-0.00397215
-0.00491095
-0.0056737
-0.00635415
-0.00697325
-0.00753663
-0.00805419
-0.00853661
-0.00899201
-0.00942625
-0.00984389
-0.0102487
-0.0106439
-0.0110323
-0.0114162
-0.0117979
-0.0121793
-0.0125623
-0.0129485
-0.0133397
-0.0137376
-0.0141437
-0.0145598
-0.0149875
-0.0154287
-0.0158852
-0.0163589
-0.0168519
-0.0173663
-0.0179044
-0.0184682
-0.0190602
-0.0196823
-0.0203363
-0.0210232
-0.0217423
-0.0224916
-0.0232633
-0.0240456
-0.0248131
-0.0255324
-0.0261508
-0.0266135
0.0251799
0.0161925
0.00657336
0.00182186
0.000210109
-0.00110573
-0.00260724
-0.00388753
-0.00484459
-0.00561562
-0.00630021
-0.00692361
-0.00749127
-0.00801239
-0.00849764
-0.00895539
-0.00939161
-0.00981093
-0.0102171
-0.0106135
-0.0110028
-0.0113875
-0.0117698
-0.0121515
-0.0125346
-0.0129209
-0.0133118
-0.0137092
-0.0141145
-0.0145295
-0.0149559
-0.0153952
-0.0158494
-0.0163203
-0.0168098
-0.0173198
-0.0178525
-0.0184098
-0.0189937
-0.0196058
-0.0202474
-0.020919
-0.0216193
-0.0223451
-0.023088
-0.0238351
-0.0245614
-0.0252343
-0.0258054
-0.026224
0.0236954
0.0157483
0.00677555
0.00199172
0.000260305
-0.00104079
-0.00251341
-0.00380307
-0.004778
-0.00555777
-0.00624627
-0.0068736
-0.00744538
-0.00797001
-0.00845805
-0.00891809
-0.00935626
-0.00977723
-0.0101848
-0.0105823
-0.0109726
-0.011358
-0.0117407
-0.0121228
-0.012506
-0.0128921
-0.0132828
-0.0136795
-0.0140841
-0.0144979
-0.0149227
-0.0153601
-0.0158119
-0.0162797
-0.0167654
-0.0172709
-0.0177979
-0.0183483
-0.0189237
-0.0195255
-0.0201543
-0.0208103
-0.0214912
-0.0221932
-0.0229072
-0.0236193
-0.0243053
-0.0249333
-0.0254588
-0.0258349
0.0222835
0.0152672
0.00693367
0.00215569
0.00030779
-0.000984593
-0.00242492
-0.00371923
-0.00471123
-0.00550018
-0.00619243
-0.00682329
-0.00739899
-0.00792707
-0.00841786
-0.00888014
-0.00932021
-0.00974278
-0.0101517
-0.0105503
-0.0109414
-0.0113275
-0.0117107
-0.0120931
-0.0124763
-0.0128623
-0.0132525
-0.0136487
-0.0140522
-0.0144648
-0.014888
-0.0153233
-0.0157724
-0.016237
-0.0167188
-0.0172194
-0.0177405
-0.0182837
-0.0188503
-0.0194413
-0.020057
-0.0206968
-0.0213581
-0.022036
-0.022721
-0.0233986
-0.0240451
-0.0246297
-0.0251112
-0.0254465
0.0209418
0.0147549
0.00704733
0.00231152
0.000353375
-0.00093674
-0.00234252
-0.00363654
-0.00464434
-0.00544288
-0.0061388
-0.00677278
-0.00735214
-0.00788358
-0.00837706
-0.00884153
-0.00928344
-0.00970757
-0.0101178
-0.0105175
-0.0109094
-0.0112961
-0.0116797
-0.0120623
-0.0124456
-0.0128313
-0.0132211
-0.0136165
-0.014019
-0.0144302
-0.0148515
-0.0152846
-0.015731
-0.0161922
-0.0166698
-0.0171653
-0.0176803
-0.0182159
-0.0187733
-0.0193532
-0.0199553
-0.0205786
-0.0212198
-0.0218735
-0.0225295
-0.023173
-0.0237809
-0.0243236
-0.0247629
-0.0250589
0.0196676
0.014217
0.00711667
0.00245674
0.000397695
-0.000896674
-0.00226687
-0.00355561
-0.00457744
-0.0053859
-0.00608549
-0.00672216
-0.00730489
-0.00783957
-0.00833569
-0.00880227
-0.00924596
-0.0096716
-0.0100831
-0.0104838
-0.0108765
-0.0112638
-0.0116478
-0.0120305
-0.0124137
-0.0127991
-0.0131883
-0.0135829
-0.0139843
-0.0143939
-0.0148134
-0.0152441
-0.0156875
-0.0161451
-0.0166183
-0.0171085
-0.0176169
-0.0181447
-0.0186927
-0.019261
-0.0198492
-0.0204557
-0.0210765
-0.0217058
-0.0223329
-0.0229428
-0.0235131
-0.0240154
-0.0244142
-0.0246725
0.018458
0.0136588
0.00714236
0.00258882
0.000441124
-0.000863715
-0.00219848
-0.00347708
-0.00451071
-0.00532924
-0.00603258
-0.00667156
-0.0072573
-0.00779507
-0.00829375
-0.00876238
-0.00920777
-0.00963486
-0.0100476
-0.0104492
-0.0108427
-0.0112305
-0.0116148
-0.0119976
-0.0123806
-0.0127657
-0.0131542
-0.0135479
-0.013948
-0.014356
-0.0147735
-0.0152016
-0.0156419
-0.0160957
-0.0165642
-0.0170488
-0.0175505
-0.0180701
-0.0186082
-0.0191647
-0.0197387
-0.0203279
-0.0209282
-0.0215329
-0.0221313
-0.0227082
-0.0232419
-0.0237053
-0.0240653
-0.0242877
0.0173103
0.0130855
0.00712554
0.00270541
0.000483705
-0.000837113
-0.00213771
-0.00340165
-0.00444439
-0.00527293
-0.00598016
-0.00662108
-0.00720945
-0.00775012
-0.00825127
-0.00872187
-0.00916888
-0.00959734
-0.0100112
-0.0104137
-0.0108079
-0.0111961
-0.0115807
-0.0119635
-0.0123464
-0.0127309
-0.0131188
-0.0135114
-0.0139101
-0.0143164
-0.0147316
-0.0151571
-0.015594
-0.0160438
-0.0165075
-0.0169862
-0.0174808
-0.017992
-0.0185199
-0.0190642
-0.0196235
-0.0201953
-0.0207748
-0.021355
-0.021925
-0.0224695
-0.0229675
-0.0233936
-0.0237166
-0.0239049
0.0162213
0.0125018
0.00706786
0.00280439
0.000525123
-0.000816101
-0.00208476
-0.00333001
-0.00437878
-0.005217
-0.00592829
-0.00657084
-0.00716141
-0.00770476
-0.00820828
-0.00868075
-0.0091293
-0.00955905
-0.00997396
-0.0103773
-0.0107721
-0.0111608
-0.0115455
-0.0119282
-0.0123108
-0.0126948
-0.0130818
-0.0134733
-0.0138705
-0.014275
-0.0146878
-0.0151104
-0.0155438
-0.0159893
-0.0164479
-0.0169205
-0.0174078
-0.0179102
-0.0184277
-0.0189594
-0.0195038
-0.0200578
-0.0206165
-0.0211722
-0.021714
-0.0222268
-0.0226905
-0.0230806
-0.0233684
-0.0235244
0.0151879
0.0119119
0.00697146
0.00288392
0.000564721
-0.000799943
-0.00203964
-0.00326282
-0.00431427
-0.00516151
-0.00587703
-0.00652096
-0.00711329
-0.00765903
-0.00816479
-0.00863904
-0.00908902
-0.00951998
-0.00993587
-0.01034
-0.0107353
-0.0111243
-0.0115091
-0.0118918
-0.0122739
-0.0126573
-0.0130434
-0.0134336
-0.0138292
-0.0142316
-0.014642
-0.0150614
-0.0154912
-0.0159322
-0.0163855
-0.0168517
-0.0173314
-0.0178247
-0.0183314
-0.0188503
-0.0193795
-0.0199156
-0.0204532
-0.0209846
-0.0214986
-0.0219806
-0.0224109
-0.0227668
-0.0230211
-0.0231468
0.0142073
0.0113198
0.0068389
0.00294244
0.00060154
-0.000787975
-0.00200219
-0.00320071
-0.00425131
-0.00510655
-0.00582642
-0.00647154
-0.00706519
-0.00761301
-0.00812084
-0.00859677
-0.00904808
-0.00948013
-0.00989692
-0.0103018
-0.0106975
-0.0110868
-0.0114716
-0.011854
-0.0122357
-0.0126184
-0.0130034
-0.0133922
-0.0137861
-0.0141863
-0.014594
-0.0150102
-0.0154361
-0.0158724
-0.0163201
-0.0167797
-0.0172515
-0.0177354
-0.018231
-0.0187368
-0.0192506
-0.0197686
-0.0202852
-0.0207924
-0.0212791
-0.021731
-0.0221292
-0.0224523
-0.0226751
-0.0227725
0.0132763
0.0107287
0.00667306
0.00297877
0.000634385
-0.000779647
-0.00197214
-0.0031442
-0.00419037
-0.00505224
-0.0057765
-0.00642268
-0.00701722
-0.00756674
-0.00807646
-0.00855395
-0.00900648
-0.00943951
-0.0098571
-0.0102625
-0.0106587
-0.0110481
-0.0114328
-0.0118149
-0.0121961
-0.0125779
-0.0129618
-0.0133491
-0.0137411
-0.0141389
-0.0145438
-0.0149566
-0.0153783
-0.0158098
-0.0162517
-0.0167043
-0.0171679
-0.0176423
-0.0181265
-0.0186189
-0.0191171
-0.0196169
-0.0201125
-0.0205958
-0.0210557
-0.0214783
-0.0218458
-0.0221377
-0.0223308
-0.0224018
0.012392
0.0101417
0.0064771
0.00299208
0.000661892
-0.000774564
-0.00194907
-0.00309371
-0.00413199
-0.00499877
-0.00572732
-0.00637448
-0.00696949
-0.00752032
-0.0080317
-0.00851061
-0.00896423
-0.00939813
-0.0098164
-0.0102223
-0.0106188
-0.0110082
-0.0113928
-0.0117745
-0.012155
-0.0125359
-0.0129185
-0.0133041
-0.0136941
-0.0140895
-0.0144913
-0.0149005
-0.0153179
-0.0157443
-0.01618
-0.0166256
-0.0170808
-0.0175452
-0.0180177
-0.0184966
-0.018979
-0.0194605
-0.0199352
-0.0203949
-0.0208287
-0.021223
-0.0215609
-0.0218234
-0.0219886
-0.0220353
0.0115516
0.00956115
0.00625432
0.00298197
0.0006826
-0.000772518
-0.0019325
-0.00304956
-0.0040767
-0.00494638
-0.00567891
-0.00632702
-0.00692212
-0.00747384
-0.0079866
-0.00846677
-0.00892135
-0.00935598
-0.00977483
-0.0101812
-0.0105778
-0.0109672
-0.0113515
-0.0117327
-0.0121124
-0.0124922
-0.0128734
-0.0132573
-0.0136451
-0.0140378
-0.0144364
-0.0148418
-0.0152547
-0.0156757
-0.0161052
-0.0165433
-0.0169898
-0.0174441
-0.0179048
-0.0183699
-0.0188363
-0.0192996
-0.0197535
-0.0201899
-0.0205982
-0.0209652
-0.0212749
-0.0215096
-0.021649
-0.0216736
0.0107523
0.00898918
0.00600808
0.00294843
0.000695039
-0.000773503
-0.00192192
-0.0030119
-0.00402503
-0.00489535
-0.00563136
-0.00628035
-0.00687522
-0.00742738
-0.00794121
-0.00842247
-0.00887787
-0.0093131
-0.00973237
-0.010139
-0.0105357
-0.0109249
-0.0113089
-0.0116895
-0.0120683
-0.0124468
-0.0128265
-0.0132085
-0.0135939
-0.0139838
-0.0143791
-0.0147805
-0.0151886
-0.0156041
-0.016027
-0.0164575
-0.0168951
-0.0173389
-0.0177876
-0.0182387
-0.0186892
-0.0191342
-0.0195676
-0.0199812
-0.0203647
-0.0207054
-0.0209883
-0.0211968
-0.0213122
-0.0213168
0.0099915
0.00842741
0.00574173
0.00289184
0.000697803
-0.000777715
-0.00191682
-0.00298077
-0.00397745
-0.00484602
-0.00558475
-0.00623454
-0.00682889
-0.00738104
-0.00789561
-0.00837774
-0.0088338
-0.00926948
-0.00968904
-0.0100958
-0.0104924
-0.0108814
-0.0112649
-0.0116447
-0.0120225
-0.0123997
-0.0127777
-0.0131577
-0.0135406
-0.0139275
-0.0143192
-0.0147164
-0.0151196
-0.0155293
-0.0159455
-0.016368
-0.0167964
-0.0172297
-0.0176661
-0.0181032
-0.0185376
-0.0189645
-0.0193776
-0.0197689
-0.0201284
-0.0204439
-0.0207014
-0.0208853
-0.0209788
-0.0209655
0.00926684
0.00787715
0.00545847
0.00281295
0.000689658
-0.000785545
-0.00191673
-0.00295608
-0.00393439
-0.00479876
-0.0055392
-0.00618964
-0.00678324
-0.00733494
-0.00784986
-0.00833262
-0.00878917
-0.00922513
-0.00964483
-0.0100516
-0.0104481
-0.0108367
-0.0112195
-0.0115985
-0.0119751
-0.0123509
-0.012727
-0.0131048
-0.013485
-0.0138688
-0.0142567
-0.0146495
-0.0150476
-0.0154512
-0.0158604
-0.0162749
-0.0166939
-0.0171164
-0.0175404
-0.0179634
-0.0183817
-0.0187906
-0.0191837
-0.0195533
-0.0198896
-0.0201811
-0.0204146
-0.0205757
-0.020649
-0.0206199
0.008576
0.00733939
0.00516136
0.00271283
0.000669598
-0.00079754
-0.0019213
-0.00293766
-0.00389621
-0.00475396
-0.00549489
-0.00614571
-0.00673833
-0.00728918
-0.00780404
-0.00828715
-0.00874401
-0.00918009
-0.00959976
-0.0100063
-0.0104025
-0.0107906
-0.0111727
-0.0115506
-0.011926
-0.0123001
-0.0126743
-0.0130497
-0.0134271
-0.0138075
-0.0141916
-0.0145797
-0.0149725
-0.0153699
-0.0157719
-0.016178
-0.0165875
-0.0169989
-0.0174104
-0.0178192
-0.0182216
-0.0186127
-0.0189863
-0.0193347
-0.0196487
-0.0199173
-0.0201282
-0.0202683
-0.0203233
-0.0202803
0.00791685
0.0068148
0.00485324
0.00259278
0.000636873
-0.000814359
-0.00193025
-0.00292525
-0.00386316
-0.00471201
-0.005452
-0.00610283
-0.00669426
-0.00724386
-0.00775823
-0.00824139
-0.00869834
-0.00913436
-0.00955383
-0.00996008
-0.0103558
-0.0107432
-0.0111244
-0.0115012
-0.0118751
-0.0122475
-0.0126196
-0.0129924
-0.0133669
-0.0137437
-0.0141236
-0.014507
-0.0148942
-0.0152851
-0.0156797
-0.0160773
-0.016477
-0.0168774
-0.0172763
-0.0176709
-0.0180574
-0.0184309
-0.0187854
-0.0191134
-0.0194059
-0.0196529
-0.0198427
-0.0199634
-0.0200021
-0.0199472
0.00728742
0.00630386
0.00453669
0.00245435
0.000591007
-0.000836718
-0.00194345
-0.00291856
-0.0038354
-0.00467329
-0.00541077
-0.00606106
-0.00665108
-0.00719908
-0.00771254
-0.00819539
-0.00865219
-0.00908796
-0.00950705
-0.0099128
-0.0103079
-0.0106945
-0.0110747
-0.0114501
-0.0118225
-0.0121929
-0.0125627
-0.0129328
-0.0133041
-0.0136773
-0.0140528
-0.0144312
-0.0148126
-0.015197
-0.0155839
-0.0159728
-0.0163627
-0.0167518
-0.017138
-0.0175184
-0.0178892
-0.0182455
-0.0185813
-0.0188896
-0.0191617
-0.0193882
-0.0195584
-0.0196613
-0.0196855
-0.0196207
0.00668586
0.00580684
0.00421406
0.00229923
0.000531794
-0.000865336
-0.00196087
-0.00291729
-0.00381301
-0.00463813
-0.00537146
-0.00602052
-0.00660887
-0.00715492
-0.00766704
-0.00814922
-0.0086056
-0.00904091
-0.00945943
-0.0098645
-0.0102587
-0.0106444
-0.0110234
-0.0113974
-0.0117679
-0.0121363
-0.0125037
-0.0128709
-0.0132388
-0.0136081
-0.0139791
-0.0143524
-0.0147278
-0.0151053
-0.0154845
-0.0158645
-0.0162443
-0.0166221
-0.0169957
-0.017362
-0.0177172
-0.0180566
-0.0183744
-0.0186636
-0.0189163
-0.0191236
-0.0192757
-0.0193625
-0.019374
-0.019301
0.0061105
0.00532384
0.00388743
0.00212918
0.00045929
-0.000900877
-0.0019826
-0.00292116
-0.00379597
-0.00460683
-0.00533434
-0.00598132
-0.00656769
-0.00711148
-0.00762183
-0.00810294
-0.00855862
-0.00899325
-0.00941098
-0.00981517
-0.0102084
-0.0105929
-0.0109705
-0.0113429
-0.0117115
-0.0120777
-0.0124424
-0.0128066
-0.0131709
-0.0135361
-0.0139025
-0.0142703
-0.0146396
-0.0150101
-0.0153813
-0.0157524
-0.016122
-0.0164884
-0.0168493
-0.0172017
-0.0175416
-0.0178645
-0.0181648
-0.0184358
-0.0186701
-0.0188595
-0.0189948
-0.0190673
-0.0190677
-0.0189883
0.00555977
0.00485486
0.00355862
0.001946
0.000373794
-0.000943917
-0.00200883
-0.00292993
-0.0037842
-0.00457962
-0.00529968
-0.00594361
-0.00652761
-0.00706882
-0.007577
-0.00805664
-0.00851129
-0.00894498
-0.00936172
-0.00976482
-0.0101569
-0.01054
-0.0109161
-0.0112867
-0.0116532
-0.0120169
-0.0123788
-0.0127398
-0.0131004
-0.0134613
-0.0138228
-0.0141851
-0.014548
-0.0149113
-0.0152744
-0.0156364
-0.0159957
-0.0163508
-0.0166991
-0.0170376
-0.0173626
-0.0176694
-0.0179528
-0.0182065
-0.0184235
-0.0185961
-0.0187162
-0.0187759
-0.018767
-0.0186828
0.00503225
0.00439979
0.00322922
0.00175147
0.000275816
-0.000994901
-0.00203979
-0.00294339
-0.00377756
-0.00455666
-0.00526775
-0.00590756
-0.0064887
-0.00702702
-0.00753262
-0.00801038
-0.00846365
-0.00889615
-0.00931166
-0.00971346
-0.0101041
-0.0104857
-0.01086
-0.0112286
-0.0115929
-0.011954
-0.012313
-0.0126705
-0.0130272
-0.0133837
-0.0137401
-0.0140966
-0.014453
-0.014809
-0.0151638
-0.0155165
-0.0158656
-0.0162093
-0.0165451
-0.0168699
-0.0171802
-0.0174716
-0.0177388
-0.017976
-0.0181766
-0.0183338
-0.0184401
-0.0184885
-0.0184718
-0.0183845
0.00452661
0.00395848
0.0029006
0.00154734
0.000166044
-0.00105412
-0.00207574
-0.00296141
-0.00377589
-0.00453806
-0.00523879
-0.00587335
-0.00645105
-0.00698613
-0.00748879
-0.00796424
-0.00841577
-0.00884677
-0.00926082
-0.00966109
-0.0100501
-0.01043
-0.0108024
-0.0111688
-0.0115306
-0.011889
-0.0122447
-0.0125986
-0.0129512
-0.013303
-0.0136542
-0.0140048
-0.0143545
-0.014703
-0.0150495
-0.0153929
-0.0157317
-0.016064
-0.0163874
-0.0166989
-0.0169949
-0.0172712
-0.0175229
-0.0177445
-0.0179299
-0.0180729
-0.0181669
-0.0182054
-0.0181825
-0.0180934
0.00404167
0.0035307
0.00257392
0.00133523
4.53039e-05
-0.00112171
-0.00211695
-0.00298392
-0.00377902
-0.00452385
-0.005213
-0.00584115
-0.00641476
-0.00694622
-0.00744556
-0.00791829
-0.0083677
-0.0087969
-0.00920922
-0.00960772
-0.00999491
-0.0103728
-0.010743
-0.0111071
-0.0114663
-0.0118216
-0.012174
-0.0125241
-0.0128725
-0.0132195
-0.0135652
-0.0139097
-0.0142526
-0.0145935
-0.0149315
-0.0152655
-0.015594
-0.015915
-0.0162262
-0.0165246
-0.0168067
-0.0170685
-0.0173054
-0.0175124
-0.0176837
-0.0178137
-0.0178966
-0.0179268
-0.0178991
-0.0178096
0.0035763
0.00311621
0.00225017
0.00111669
-8.54722e-05
-0.00119764
-0.00216366
-0.00301087
-0.00378678
-0.00451403
-0.00519055
-0.00581115
-0.00637992
-0.00690736
-0.00740301
-0.00787261
-0.0083195
-0.00874657
-0.00915688
-0.00955337
-0.00993847
-0.0103142
-0.0106821
-0.0110436
-0.0113999
-0.011752
-0.0121009
-0.012447
-0.0127909
-0.0131329
-0.013473
-0.0138112
-0.0141472
-0.0144803
-0.0148098
-0.0151344
-0.0154526
-0.0157624
-0.0160616
-0.0163472
-0.0166159
-0.0168638
-0.0170867
-0.0172799
-0.0174382
-0.0175565
-0.0176296
-0.0176527
-0.0176216
-0.017533
0.0031295
0.00271473
0.0019302
0.000893159
-0.000225285
-0.00128172
-0.00221605
-0.00304228
-0.00379901
-0.00450852
-0.00517157
-0.00578353
-0.00634667
-0.00686959
-0.00736118
-0.00782726
-0.00827123
-0.00869581
-0.00910383
-0.00949804
-0.00988081
-0.0102541
-0.0106194
-0.0109781
-0.0113314
-0.0116802
-0.0120252
-0.0123672
-0.0127064
-0.0130432
-0.0133776
-0.0137094
-0.0140383
-0.0143636
-0.0146845
-0.0149996
-0.0153076
-0.0156064
-0.0158938
-0.0161669
-0.0164227
-0.0166574
-0.0168671
-0.0170473
-0.0171936
-0.0173014
-0.017366
-0.0173834
-0.01735
-0.0172634
0.00270032
0.00232599
0.00161471
0.000665934
-0.000373098
-0.00137365
-0.00227422
-0.00307817
-0.00381556
-0.00450725
-0.00515611
-0.00575842
-0.00631511
-0.006833
-0.00732014
-0.0077823
-0.00822294
-0.00864467
-0.00905008
-0.00944174
-0.00982194
-0.0101925
-0.010555
-0.0109108
-0.0112608
-0.011606
-0.0119471
-0.0122846
-0.0126191
-0.0129505
-0.013279
-0.0136043
-0.0139259
-0.0142433
-0.0145555
-0.0148613
-0.0151592
-0.0154471
-0.015723
-0.015984
-0.0162273
-0.0164494
-0.0166466
-0.016815
-0.0169503
-0.0170486
-0.0171059
-0.0171188
-0.0170844
-0.0170006
0.00228792
0.00194969
0.0013043
0.000436212
-0.000527861
-0.00147298
-0.0023382
-0.00311856
-0.00383631
-0.0045101
-0.00514422
-0.00573596
-0.00628536
-0.00679766
-0.00727994
-0.00773778
-0.0081747
-0.0085932
-0.00899568
-0.0093845