/*--------------------------------*- C++ -*----------------------------------*\
  =========                 |
  \\      /  F ield         | OpenFOAM: The Open Source CFD Toolbox
   \\    /   O peration     | Website:  https://openfoam.org
    \\  /    A nd           | Version:  7
     \\/     M anipulation  |
\*---------------------------------------------------------------------------*/
FoamFile
{
    version     2.0;
    format      ascii;
    class       surfaceScalarField;
    location    "0.39";
    object      phi;
}
// * * * * * * * * * * * * * * * * * * * * * * * * * * * * * * * * * * * * * //

dimensions      [0 3 -1 0 0 0 0];

internalField   nonuniform List<scalar> 
139350
(
6.45136e-08
9.21179e-08
3.19685e-08
3.25452e-08
2.30654e-08
8.90307e-09
1.95824e-08
3.48295e-09
1.76319e-08
1.9505e-09
1.62028e-08
1.42917e-09
1.50705e-08
1.13227e-09
1.41585e-08
9.12021e-10
1.3408e-08
7.5043e-10
1.27759e-08
6.32154e-10
1.22332e-08
5.42658e-10
1.17608e-08
4.72475e-10
1.13448e-08
4.16002e-10
1.0975e-08
3.69708e-10
1.06439e-08
3.31187e-10
1.03451e-08
2.98714e-10
1.00741e-08
2.71024e-10
9.82695e-09
2.47172e-10
9.60051e-09
2.26439e-10
9.39224e-09
2.08269e-10
9.20002e-09
1.92225e-10
9.02205e-09
1.77962e-10
8.85686e-09
1.65199e-10
8.70315e-09
1.53705e-10
8.55986e-09
1.4329e-10
8.42607e-09
1.33793e-10
8.30099e-09
1.25074e-10
8.18398e-09
1.17017e-10
8.07447e-09
1.09511e-10
7.972e-09
1.02469e-10
7.87621e-09
9.57872e-11
7.7868e-09
8.94068e-11
7.7036e-09
8.32059e-11
7.62644e-09
7.71614e-11
7.55534e-09
7.1094e-11
7.4903e-09
6.50401e-11
7.43159e-09
5.87087e-11
7.37938e-09
5.22112e-11
7.33426e-09
4.51248e-11
7.29675e-09
3.75087e-11
7.26767e-09
2.90816e-11
7.24864e-09
1.90265e-11
7.23988e-09
8.7583e-12
7.24677e-09
-6.88415e-12
7.26534e-09
-1.85798e-11
7.3141e-09
-4.87543e-11
7.36897e-09
-5.48733e-11
7.51674e-09
-1.47772e-10
7.45849e-09
5.82504e-11
-3.69551e-09
1.1154e-08
1.25945e-07
1.27616e-07
9.12966e-08
6.71938e-08
7.19492e-08
2.82505e-08
6.12382e-08
1.41939e-08
5.48052e-08
8.38353e-09
5.03124e-08
5.92193e-09
4.6829e-08
4.61568e-09
4.40158e-08
3.72524e-09
4.16921e-08
3.07413e-09
3.97325e-08
2.59176e-09
3.80498e-08
2.22531e-09
3.65842e-08
1.93815e-09
3.52929e-08
1.70729e-09
3.41445e-08
1.51811e-09
3.3115e-08
1.36069e-09
3.21857e-08
1.22799e-09
3.13419e-08
1.11485e-09
3.05717e-08
1.0174e-09
2.98654e-08
9.32723e-10
2.92151e-08
8.58545e-10
2.86142e-08
7.93093e-10
2.80572e-08
7.34952e-10
2.75395e-08
6.82982e-10
2.70569e-08
6.36247e-10
2.66062e-08
5.93972e-10
2.61845e-08
5.55509e-10
2.57893e-08
5.20299e-10
2.54184e-08
4.87869e-10
2.50702e-08
4.57792e-10
2.47429e-08
4.29707e-10
2.44355e-08
4.03242e-10
2.41467e-08
3.78129e-10
2.3876e-08
3.53965e-10
2.36226e-08
3.30592e-10
2.33862e-08
3.07443e-10
2.31667e-08
2.84563e-10
2.29644e-08
2.60971e-10
2.27795e-08
2.37128e-10
2.26134e-08
2.11219e-10
2.24665e-08
1.84405e-10
2.2342e-08
1.53578e-10
2.22406e-08
1.20419e-10
2.21683e-08
8.10475e-11
2.21271e-08
3.4363e-11
2.21262e-08
-1.76786e-11
2.21765e-08
-9.90576e-11
2.22741e-08
-1.52495e-10
2.25358e-08
-4.09471e-10
2.26708e-08
-7.67017e-11
-4.98228e-09
2.39575e-08
1.58754e-07
1.35266e-07
1.36534e-07
8.94139e-08
1.17508e-07
4.72766e-08
1.03338e-07
2.8364e-08
9.335e-08
1.83714e-08
8.60547e-08
1.32172e-08
8.03509e-08
1.03195e-08
7.57024e-08
8.37376e-09
7.18267e-08
6.94978e-09
6.85363e-08
5.88215e-09
6.56978e-08
5.06381e-09
6.32166e-08
4.41944e-09
6.1024e-08
3.89984e-09
5.90691e-08
3.47298e-09
5.73128e-08
3.11703e-09
5.57244e-08
2.81642e-09
5.42795e-08
2.55972e-09
5.29585e-08
2.33836e-09
5.17455e-08
2.14581e-09
5.0627e-08
1.97701e-09
4.95921e-08
1.82799e-09
4.86315e-08
1.69559e-09
4.77372e-08
1.57722e-09
4.69027e-08
1.4708e-09
4.6122e-08
1.37459e-09
4.53904e-08
1.28712e-09
4.47036e-08
1.20716e-09
4.40578e-08
1.13363e-09
4.345e-08
1.0656e-09
4.28774e-08
1.00226e-09
4.23379e-08
9.42802e-10
4.18294e-08
8.86614e-10
4.13505e-08
8.32886e-10
4.08999e-08
7.81202e-10
4.04768e-08
7.30462e-10
4.00807e-08
6.80667e-10
3.97119e-08
6.29858e-10
3.93699e-08
5.79043e-10
3.9057e-08
5.24197e-10
3.87727e-08
4.68663e-10
3.85223e-08
4.03967e-10
3.83046e-08
3.38178e-10
3.81311e-08
2.54517e-10
3.79977e-08
1.6776e-10
3.7928e-08
5.19798e-11
3.79179e-08
-8.89139e-11
3.79936e-08
-2.28191e-10
3.82392e-08
-6.55097e-10
3.85705e-08
-4.07983e-10
-5.37763e-09
3.89658e-08
1.75613e-07
1.31169e-07
1.6563e-07
9.93969e-08
1.52749e-07
6.01574e-08
1.40148e-07
4.09647e-08
1.29475e-07
2.90439e-08
1.20843e-07
2.18498e-08
1.13736e-07
1.74266e-08
1.07759e-07
1.43508e-08
1.02661e-07
1.20471e-08
9.82612e-08
1.02824e-08
9.44183e-08
8.90673e-09
9.10271e-08
7.81061e-09
8.80079e-08
6.91905e-09
8.52993e-08
6.18158e-09
8.28532e-08
5.56316e-09
8.06312e-08
5.03843e-09
7.86023e-08
4.58859e-09
7.67413e-08
4.1994e-09
7.50272e-08
3.85992e-09
7.34426e-08
3.56162e-09
7.19728e-08
3.29776e-09
7.06055e-08
3.06292e-09
6.933e-08
2.85272e-09
6.81372e-08
2.66354e-09
6.70194e-08
2.4924e-09
6.59698e-08
2.33676e-09
6.49825e-08
2.19449e-09
6.40524e-08
2.06372e-09
6.31751e-08
1.94286e-09
6.23469e-08
1.83049e-09
6.15644e-08
1.72526e-09
6.0825e-08
1.62608e-09
6.01262e-08
1.53163e-09
5.94663e-08
1.44114e-09
5.88439e-08
1.35288e-09
5.82578e-08
1.26673e-09
5.77081e-08
1.17958e-09
5.7194e-08
1.09307e-09
5.67177e-08
1.0005e-09
5.62785e-08
9.07951e-10
5.58822e-08
8.00193e-10
5.55267e-08
6.93731e-10
5.52262e-08
5.54948e-10
5.49738e-08
4.20215e-10
5.47994e-08
2.26421e-10
5.46931e-08
1.73636e-11
5.46956e-08
-2.30727e-10
5.48605e-08
-8.20036e-10
5.52442e-08
-7.91604e-10
-5.53525e-09
5.54018e-08
1.84511e-07
1.23443e-07
1.82345e-07
1.01563e-07
1.76132e-07
6.63705e-08
1.67783e-07
4.93137e-08
1.59173e-07
3.76546e-08
1.51275e-07
2.97473e-08
1.44209e-07
2.44925e-08
1.37914e-07
2.06457e-08
1.32317e-07
1.76438e-08
1.27335e-07
1.52652e-08
1.2288e-07
1.33615e-08
1.18877e-07
1.18138e-08
1.1526e-07
1.05351e-08
1.11978e-07
9.46415e-09
1.08984e-07
8.5568e-09
1.06242e-07
7.78032e-09
1.03721e-07
7.10986e-09
1.01394e-07
6.52623e-09
9.92397e-08
6.01448e-09
9.72386e-08
5.56278e-09
9.53746e-08
5.16167e-09
9.36341e-08
4.80347e-09
9.20049e-08
4.48193e-09
9.04766e-08
4.19184e-09
8.90401e-08
3.92886e-09
8.76876e-08
3.68932e-09
8.6412e-08
3.47007e-09
8.52073e-08
3.26839e-09
8.40682e-08
3.08193e-09
8.29901e-08
2.90858e-09
8.1969e-08
2.74639e-09
8.10014e-08
2.59371e-09
8.00844e-08
2.44866e-09
7.92155e-08
2.31004e-09
7.83929e-08
2.17541e-09
7.76151e-08
2.04451e-09
7.68817e-08
1.91301e-09
7.61917e-08
1.78311e-09
7.55468e-08
1.64534e-09
7.49463e-08
1.50852e-09
7.4396e-08
1.35047e-09
7.38936e-08
1.19615e-09
7.34535e-08
9.95032e-10
7.30694e-08
8.04291e-10
7.27702e-08
5.25643e-10
7.255e-08
2.37576e-10
7.24476e-08
-1.28377e-10
7.25081e-08
-8.80519e-10
7.28272e-08
-1.11065e-09
-5.59319e-09
7.28851e-08
1.90343e-07
1.15317e-07
1.91863e-07
1.00043e-07
1.90272e-07
6.79615e-08
1.86174e-07
5.3411e-08
1.80744e-07
4.30845e-08
1.75001e-07
3.54903e-08
1.69313e-07
3.01814e-08
1.63835e-07
2.61237e-08
1.58664e-07
2.28142e-08
1.53843e-07
2.00861e-08
1.49375e-07
1.78301e-08
1.45242e-07
1.59467e-08
1.41421e-07
1.43564e-08
1.37885e-07
1.3e-08
1.34608e-07
1.18333e-08
1.31567e-07
1.0822e-08
1.28737e-07
9.93908e-09
1.261e-07
9.16329e-09
1.23637e-07
8.47748e-09
1.21332e-07
7.86784e-09
1.19171e-07
7.3231e-09
1.1714e-07
6.83399e-09
1.15229e-07
6.39282e-09
1.13428e-07
5.99313e-09
1.11728e-07
5.62945e-09
1.1012e-07
5.29712e-09
1.08598e-07
4.99212e-09
1.07155e-07
4.71093e-09
1.05787e-07
4.45049e-09
1.04487e-07
4.20804e-09
1.03252e-07
3.98105e-09
1.02079e-07
3.76731e-09
1.00963e-07
3.56439e-09
9.99025e-08
3.37063e-09
9.8895e-08
3.18294e-09
9.79387e-08
3.0008e-09
9.7033e-08
2.81874e-09
9.61768e-08
2.63936e-09
9.53714e-08
2.45067e-09
9.46163e-08
2.26368e-09
9.39166e-08
2.05018e-09
9.32709e-08
1.84178e-09
9.26917e-08
1.57422e-09
9.21765e-08
1.31956e-09
9.17475e-08
9.54638e-10
9.14096e-08
5.75465e-10
9.1189e-08
9.21956e-11
9.11361e-08
-8.27568e-10
9.13431e-08
-1.3177e-09
-5.54067e-09
9.12906e-08
1.95505e-07
1.07626e-07
1.9825e-07
9.72977e-08
1.98994e-07
6.72183e-08
1.97806e-07
5.45985e-08
1.9518e-07
4.57106e-08
1.91849e-07
3.88212e-08
1.88126e-07
3.39049e-08
1.84182e-07
3.00677e-08
1.80167e-07
2.68286e-08
1.76192e-07
2.40611e-08
1.72324e-07
2.1698e-08
1.68602e-07
1.96689e-08
1.65046e-07
1.79126e-08
1.61664e-07
1.6382e-08
1.58457e-07
1.50404e-08
1.5542e-07
1.38583e-08
1.52548e-07
1.28115e-08
1.49831e-07
1.18801e-08
1.47261e-07
1.10477e-08
1.44828e-07
1.03004e-08
1.42525e-07
9.62694e-09
1.40341e-07
9.0176e-09
1.3827e-07
8.4642e-09
1.36303e-07
7.95976e-09
1.34434e-07
7.49827e-09
1.32657e-07
7.07448e-09
1.30965e-07
6.68385e-09
1.29354e-07
6.32236e-09
1.27818e-07
5.98642e-09
1.26353e-07
5.67281e-09
1.24955e-07
5.37853e-09
1.23622e-07
5.10093e-09
1.22349e-07
4.83711e-09
1.21135e-07
4.58501e-09
1.19977e-07
4.34096e-09
1.18873e-07
4.10416e-09
1.17824e-07
3.86819e-09
1.16827e-07
3.63579e-09
1.15885e-07
3.39296e-09
1.14997e-07
3.15204e-09
1.14167e-07
2.88036e-09
1.13395e-07
2.61341e-09
1.12691e-07
2.2781e-09
1.12058e-07
1.95304e-09
1.11508e-07
1.50379e-09
1.1106e-07
1.02364e-09
1.10726e-07
4.26737e-10
1.10557e-07
-6.59236e-10
1.10642e-07
-1.40255e-09
-5.37081e-09
1.10472e-07
2.0082e-07
1.00391e-07
2.03775e-07
9.43428e-08
2.05353e-07
6.56406e-08
2.0566e-07
5.42914e-08
2.04837e-07
4.65336e-08
2.03366e-07
4.02923e-08
2.01427e-07
3.58442e-08
1.99104e-07
3.23908e-08
1.96503e-07
2.94291e-08
1.93728e-07
2.68366e-08
1.90857e-07
2.45684e-08
1.87952e-07
2.2574e-08
1.85057e-07
2.08081e-08
1.82202e-07
1.92362e-08
1.79412e-07
1.78312e-08
1.76699e-07
1.6571e-08
1.74074e-07
1.54371e-08
1.7154e-07
1.44135e-08
1.69101e-07
1.34866e-08
1.66757e-07
1.26448e-08
1.64506e-07
1.18781e-08
1.62346e-07
1.11777e-08
1.60274e-07
1.05361e-08
1.58287e-07
9.94657e-09
1.56382e-07
9.40339e-09
1.54555e-07
8.90135e-09
1.52803e-07
8.43585e-09
1.51122e-07
8.00276e-09
1.49511e-07
7.59834e-09
1.47964e-07
7.21916e-09
1.46481e-07
6.86201e-09
1.45058e-07
6.52397e-09
1.43693e-07
6.20185e-09
1.42385e-07
5.8933e-09
1.41131e-07
5.59423e-09
1.39932e-07
5.30358e-09
1.38786e-07
5.01423e-09
1.37693e-07
4.7288e-09
1.36654e-07
4.43194e-09
1.3567e-07
4.13637e-09
1.34743e-07
3.80678e-09
1.33877e-07
3.47957e-09
1.33077e-07
3.07797e-09
1.32351e-07
2.67901e-09
1.31705e-07
2.1495e-09
1.31166e-07
1.56351e-09
1.30735e-07
8.57071e-10
1.3046e-07
-3.84416e-10
1.30427e-07
-1.36949e-09
-5.09554e-09
1.30152e-07
2.06424e-07
9.34992e-08
2.09335e-07
9.14314e-08
2.11064e-07
6.39114e-08
2.1195e-07
5.34051e-08
2.12021e-07
4.64635e-08
2.11644e-07
4.06693e-08
2.10922e-07
3.65655e-08
2.09859e-07
3.34539e-08
2.08493e-07
3.07957e-08
2.0688e-07
2.84489e-08
2.05078e-07
2.63709e-08
2.03134e-07
2.45179e-08
2.01091e-07
2.28513e-08
1.98984e-07
2.13428e-08
1.96843e-07
1.9972e-08
1.94692e-07
1.87226e-08
1.92548e-07
1.75812e-08
1.90425e-07
1.65359e-08
1.88335e-07
1.55768e-08
1.86285e-07
1.46948e-08
1.84281e-07
1.38822e-08
1.82327e-07
1.3132e-08
1.80425e-07
1.24379e-08
1.78577e-07
1.17945e-08
1.76784e-07
1.11967e-08
1.75045e-07
1.06398e-08
1.73361e-07
1.01198e-08
1.71731e-07
9.6327e-09
1.70154e-07
9.17509e-09
1.6863e-07
8.74361e-09
1.67157e-07
8.33509e-09
1.65734e-07
7.94658e-09
1.64361e-07
7.57481e-09
1.63037e-07
7.2173e-09
1.61762e-07
6.86974e-09
1.60535e-07
6.53087e-09
1.59356e-07
6.19311e-09
1.58226e-07
5.85885e-09
1.57146e-07
5.51195e-09
1.56117e-07
5.16473e-09
1.55143e-07
4.7809e-09
1.54227e-07
4.39526e-09
1.53374e-07
3.93175e-09
1.52593e-07
3.45943e-09
1.51887e-07
2.85566e-09
1.51285e-07
2.16509e-09
1.50788e-07
1.35416e-09
1.50429e-07
-2.45324e-11
1.50292e-07
-1.23315e-09
-4.73633e-09
1.49933e-07
2.1227e-07
8.68916e-08
2.15144e-07
8.85573e-08
2.16819e-07
6.22361e-08
2.17865e-07
5.23591e-08
2.1828e-07
4.60482e-08
2.18405e-07
4.05446e-08
2.18338e-07
3.66332e-08
2.18045e-07
3.3746e-08
2.17522e-07
3.13187e-08
2.16787e-07
2.91843e-08
2.15863e-07
2.72951e-08
2.14775e-07
2.56062e-08
2.13548e-07
2.40779e-08
2.12208e-07
2.26827e-08
2.10778e-07
2.14017e-08
2.0928e-07
2.0221e-08
2.07731e-07
1.91297e-08
2.06149e-07
1.81186e-08
2.04545e-07
1.71801e-08
2.02933e-07
1.63074e-08
2.0132e-07
1.54946e-08
1.99716e-07
1.47366e-08
1.98125e-07
1.40285e-08
1.96554e-07
1.33659e-08
1.95006e-07
1.27448e-08
1.93484e-07
1.21615e-08
1.91991e-07
1.16126e-08
1.90529e-07
1.10946e-08
1.891e-07
1.06046e-08
1.87704e-07
1.01395e-08
1.86343e-07
9.69636e-09
1.85017e-07
9.2725e-09
1.83727e-07
8.86469e-09
1.82474e-07
8.47048e-09
1.81258e-07
8.0855e-09
1.8008e-07
7.70838e-09
1.78942e-07
7.33134e-09
1.77845e-07
6.95643e-09
1.76789e-07
6.56724e-09
1.75779e-07
6.17512e-09
1.74816e-07
5.74413e-09
1.73905e-07
5.30559e-09
1.7305e-07
4.7875e-09
1.72262e-07
4.24661e-09
1.71541e-07
3.57668e-09
1.70918e-07
2.78876e-09
1.70391e-07
1.88081e-09
1.69979e-07
3.87977e-10
1.69764e-07
-1.0181e-09
-4.32056e-09
1.69348e-07
2.18316e-07
8.05566e-08
2.21193e-07
8.56797e-08
2.22792e-07
6.06372e-08
2.23867e-07
5.12846e-08
2.24391e-07
4.55244e-08
2.24693e-07
4.02422e-08
2.24902e-07
3.64246e-08
2.24988e-07
3.36598e-08
2.24931e-07
3.13759e-08
2.2473e-07
2.93847e-08
2.24391e-07
2.76344e-08
2.23919e-07
2.60785e-08
2.23322e-07
2.46745e-08
2.22612e-07
2.33923e-08
2.21802e-07
2.22118e-08
2.20905e-07
2.11187e-08
2.19932e-07
2.01023e-08
2.18897e-07
1.9154e-08
2.1781e-07
1.8267e-08
2.16681e-07
1.74355e-08
2.15521e-07
1.66548e-08
2.14337e-07
1.59205e-08
2.13137e-07
1.52289e-08
2.11926e-07
1.45765e-08
2.10711e-07
1.39602e-08
2.09496e-07
1.33768e-08
2.08285e-07
1.28236e-08
2.07081e-07
1.22979e-08
2.05889e-07
1.17969e-08
2.0471e-07
1.13182e-08
2.03547e-07
1.08591e-08
2.02403e-07
1.04171e-08
2.01278e-07
9.98913e-09
2.00176e-07
9.57296e-09
1.99097e-07
9.16424e-09
1.98044e-07
8.76155e-09
1.97018e-07
8.35705e-09
1.96022e-07
7.95246e-09
1.95058e-07
7.53145e-09
1.94129e-07
7.10402e-09
1.93238e-07
6.6356e-09
1.92391e-07
6.15275e-09
1.91588e-07
5.58983e-09
1.90846e-07
4.98885e-09
1.9016e-07
4.26288e-09
1.89559e-07
3.38977e-09
1.89045e-07
2.39505e-09
1.88618e-07
8.14661e-10
1.88357e-07
-7.57055e-10
-3.87993e-09
1.87916e-07
2.24549e-07
7.45004e-08
2.27453e-07
8.27757e-08
2.28988e-07
5.91021e-08
2.3007e-07
5.02028e-08
2.30635e-07
4.49598e-08
2.30986e-07
3.98912e-08
2.31284e-07
3.61262e-08
2.31518e-07
3.34255e-08
2.3167e-07
3.12242e-08
2.31737e-07
2.93175e-08
2.31719e-07
2.76525e-08
2.31614e-07
2.61839e-08
2.31421e-07
2.48676e-08
2.31142e-07
2.36714e-08
2.3078e-07
2.25734e-08
2.30341e-07
2.1558e-08
2.2983e-07
2.06134e-08
2.29253e-07
1.97306e-08
2.28618e-07
1.89024e-08
2.2793e-07
1.81232e-08
2.27197e-07
1.73881e-08
2.26424e-07
1.66933e-08
2.25617e-07
1.60353e-08
2.24783e-07
1.54111e-08
2.23925e-07
1.48177e-08
2.23049e-07
1.42527e-08
2.2216e-07
1.37136e-08
2.2126e-07
1.31979e-08
2.20353e-07
1.27035e-08
2.19443e-07
1.2228e-08
2.18533e-07
1.17691e-08
2.17626e-07
1.13244e-08
2.16724e-07
1.08912e-08
2.15829e-07
1.04673e-08
2.14945e-07
1.00483e-08
2.14074e-07
9.63294e-09
2.13218e-07
9.2133e-09
2.12379e-07
8.79072e-09
2.11562e-07
8.34929e-09
2.10768e-07
7.89732e-09
2.10001e-07
7.4024e-09
2.09269e-07
6.88548e-09
2.0857e-07
6.28875e-09
2.0792e-07
5.63859e-09
2.07315e-07
4.86784e-09
2.0678e-07
3.92507e-09
2.06318e-07
2.85643e-09
2.05917e-07
1.21583e-09
2.05646e-07
-4.85772e-10
-3.44729e-09
2.05213e-07
2.30975e-07
6.87309e-08
2.33914e-07
7.98366e-08
2.35393e-07
5.76239e-08
2.36483e-07
4.91125e-08
2.37081e-07
4.43622e-08
2.37447e-07
3.95251e-08
2.37767e-07
3.58059e-08
2.38048e-07
3.3145e-08
2.38275e-07
3.09968e-08
2.38452e-07
2.91408e-08
2.38579e-07
2.75248e-08
2.38656e-07
2.61069e-08
2.3868e-07
2.48441e-08
2.38648e-07
2.3703e-08
2.38561e-07
2.26608e-08
2.38418e-07
2.1701e-08
2.3822e-07
2.08109e-08
2.3797e-07
1.99807e-08
2.3767e-07
1.92027e-08
2.37322e-07
1.84707e-08
2.36931e-07
1.77797e-08
2.36499e-07
1.71255e-08
2.36029e-07
1.65046e-08
2.35526e-07
1.59139e-08
2.34994e-07
1.53506e-08
2.34434e-07
1.48121e-08
2.33852e-07
1.42961e-08
2.33249e-07
1.38005e-08
2.3263e-07
1.3323e-08
2.31996e-07
1.28614e-08
2.31352e-07
1.24136e-08
2.30699e-07
1.19773e-08
2.3004e-07
1.15498e-08
2.29379e-07
1.11289e-08
2.28717e-07
1.07105e-08
2.28057e-07
1.02929e-08
2.27401e-07
9.86861e-09
2.26754e-07
9.4383e-09
2.26116e-07
8.98669e-09
2.25493e-07
8.52019e-09
2.24887e-07
8.00907e-09
2.24304e-07
7.46826e-09
2.23744e-07
6.8484e-09
2.23222e-07
6.16069e-09
2.22734e-07
5.35633e-09
2.22298e-07
4.36068e-09
2.21922e-07
3.23246e-09
2.2158e-07
1.55755e-09
2.21332e-07
-2.3728e-10
-3.05219e-09
2.20937e-07
2.37602e-07
6.3254e-08
2.4058e-07
7.68582e-08
2.42001e-07
5.62026e-08
2.43099e-07
4.80148e-08
2.43734e-07
4.37276e-08
2.44113e-07
3.91457e-08
2.44439e-07
3.54799e-08
2.44732e-07
3.28517e-08
2.44983e-07
3.07463e-08
2.45196e-07
2.89274e-08
2.45379e-07
2.73424e-08
2.45531e-07
2.59546e-08
2.45652e-07
2.47229e-08
2.45741e-07
2.36143e-08
2.45796e-07
2.26059e-08
2.45816e-07
2.16808e-08
2.45801e-07
2.08261e-08
2.4575e-07
2.00316e-08
2.45664e-07
1.92891e-08
2.45542e-07
1.85921e-08
2.45387e-07
1.79352e-08
2.45198e-07
1.7314e-08
2.44978e-07
1.67246e-08
2.44728e-07
1.61638e-08
2.4445e-07
1.56285e-08
2.44146e-07
1.51162e-08
2.43818e-07
1.46244e-08
2.43468e-07
1.41509e-08
2.43097e-07
1.36934e-08
2.42709e-07
1.32497e-08
2.42305e-07
1.28176e-08
2.41887e-07
1.23949e-08
2.41458e-07
1.19788e-08
2.4102e-07
1.15672e-08
2.40574e-07
1.11557e-08
2.40125e-07
1.07428e-08
2.39672e-07
1.03208e-08
2.39221e-07
9.88998e-09
2.38772e-07
9.43573e-09
2.38329e-07
8.96238e-09
2.37895e-07
8.44319e-09
2.37477e-07
7.887e-09
2.37072e-07
7.25289e-09
2.36695e-07
6.53831e-09
2.36341e-07
5.7101e-09
2.36024e-07
4.67753e-09
2.35752e-07
3.50403e-09
2.35492e-07
1.81741e-09
2.35291e-07
-3.63096e-11
-2.71625e-09
2.34956e-07
2.44437e-07
5.80733e-08
2.47454e-07
7.38412e-08
2.4882e-07
5.48366e-08
2.49921e-07
4.6914e-08
2.50594e-07
4.30544e-08
2.5099e-07
3.87496e-08
2.51321e-07
3.51491e-08
2.5162e-07
3.25525e-08
2.51878e-07
3.0488e-08
2.52103e-07
2.87029e-08
2.52302e-07
2.71427e-08
2.52481e-07
2.57761e-08
2.52639e-07
2.45647e-08
2.52777e-07
2.34763e-08
2.52895e-07
2.24881e-08
2.52992e-07
2.15837e-08
2.53068e-07
2.07503e-08
2.53122e-07
1.99777e-08
2.53153e-07
1.92576e-08
2.53162e-07
1.85832e-08
2.53148e-07
1.79492e-08
2.53111e-07
1.73508e-08
2.53052e-07
1.67839e-08
2.5297e-07
1.62453e-08
2.52867e-07
1.57316e-08
2.52743e-07
1.52402e-08
2.52599e-07
1.47684e-08
2.52436e-07
1.43139e-08
2.52256e-07
1.38742e-08
2.52058e-07
1.34472e-08
2.51845e-07
1.30305e-08
2.51618e-07
1.26217e-08
2.51379e-07
1.22181e-08
2.51129e-07
1.18173e-08
2.5087e-07
1.1415e-08
2.50603e-07
1.10094e-08
2.50331e-07
1.0593e-08
2.50056e-07
1.01653e-08
2.49779e-07
9.71254e-09
2.49504e-07
9.23694e-09
2.49233e-07
8.71485e-09
2.48971e-07
8.14924e-09
2.48716e-07
7.50704e-09
2.48481e-07
6.77411e-09
2.48261e-07
5.92952e-09
2.48065e-07
4.87361e-09
2.47901e-07
3.6677e-09
2.47731e-07
1.9874e-09
2.47591e-07
1.04351e-10
-2.45014e-09
2.47325e-07
2.51489e-07
5.31907e-08
2.54535e-07
7.07959e-08
2.55856e-07
5.35147e-08
2.56955e-07
4.58158e-08
2.57666e-07
4.23434e-08
2.58081e-07
3.83339e-08
2.58418e-07
3.48122e-08
2.58723e-07
3.22478e-08
2.58987e-07
3.02242e-08
2.59216e-07
2.84736e-08
2.59421e-07
2.69375e-08
2.59608e-07
2.55895e-08
2.59778e-07
2.43944e-08
2.59934e-07
2.33209e-08
2.60075e-07
2.23467e-08
2.60203e-07
2.14558e-08
2.60318e-07
2.06357e-08
2.60419e-07
1.98764e-08
2.60507e-07
1.91698e-08
2.6058e-07
1.85093e-08
2.6064e-07
1.78893e-08
2.60686e-07
1.73051e-08
2.60717e-07
1.67527e-08
2.60734e-07
1.62286e-08
2.60736e-07
1.57294e-08
2.60724e-07
1.52524e-08
2.60698e-07
1.47947e-08
2.60658e-07
1.43539e-08
2.60604e-07
1.39276e-08
2.60538e-07
1.35134e-08
2.6046e-07
1.31087e-08
2.6037e-07
1.27113e-08
2.6027e-07
1.23181e-08
2.60161e-07
1.19267e-08
2.60043e-07
1.15327e-08
2.59919e-07
1.1134e-08
2.59788e-07
1.07233e-08
2.59654e-07
1.02994e-08
2.59517e-07
9.8494e-09
2.59381e-07
9.37333e-09
2.59245e-07
8.85061e-09
2.59115e-07
8.27892e-09
2.5899e-07
7.63198e-09
2.58878e-07
6.88667e-09
2.58777e-07
6.03064e-09
2.58689e-07
4.96172e-09
2.58622e-07
3.73411e-09
2.58537e-07
2.07275e-09
2.58456e-07
1.84913e-10
-2.25352e-09
2.5826e-07
2.58767e-07
4.86067e-08
2.6183e-07
6.77326e-08
2.63119e-07
5.22261e-08
2.6421e-07
4.47249e-08
2.64956e-07
4.15966e-08
2.65394e-07
3.78967e-08
2.65738e-07
3.44683e-08
2.66048e-07
3.19371e-08
2.66318e-07
2.99547e-08
2.66551e-07
2.82402e-08
2.6676e-07
2.67291e-08
2.66949e-07
2.53997e-08
2.67124e-07
2.42201e-08
2.67285e-07
2.316e-08
2.67434e-07
2.21975e-08
2.67573e-07
2.13171e-08
2.67702e-07
2.05067e-08
2.67821e-07
1.97567e-08
2.67932e-07
1.9059e-08
2.68034e-07
1.84072e-08
2.68128e-07
1.77959e-08
2.68212e-07
1.72205e-08
2.68288e-07
1.66769e-08
2.68355e-07
1.61616e-08
2.68413e-07
1.56715e-08
2.68462e-07
1.52034e-08
2.68502e-07
1.47547e-08
2.68533e-07
1.43228e-08
2.68556e-07
1.39052e-08
2.6857e-07
1.34994e-08
2.68575e-07
1.31029e-08
2.68573e-07
1.27132e-08
2.68564e-07
1.23272e-08
2.68549e-07
1.19423e-08
2.68527e-07
1.15542e-08
2.68501e-07
1.11605e-08
2.6847e-07
1.07539e-08
2.68437e-07
1.03325e-08
2.68402e-07
9.88456e-09
2.68367e-07
9.40786e-09
2.68333e-07
8.88466e-09
2.68304e-07
8.3082e-09
2.68278e-07
7.65764e-09
2.68261e-07
6.90362e-09
2.68253e-07
6.03896e-09
2.68251e-07
4.96415e-09
2.68262e-07
3.72322e-09
2.68246e-07
2.08871e-09
2.68216e-07
2.14609e-10
-2.11667e-09
2.68079e-07
2.66279e-07
4.43199e-08
2.6935e-07
6.46621e-08
2.70616e-07
5.09601e-08
2.71695e-07
4.36458e-08
2.72474e-07
4.08174e-08
2.72934e-07
3.74363e-08
2.73286e-07
3.41166e-08
2.73603e-07
3.16203e-08
2.73879e-07
2.9679e-08
2.74116e-07
2.80023e-08
2.74328e-07
2.65176e-08
2.7452e-07
2.52074e-08
2.74697e-07
2.40435e-08
2.7486e-07
2.29967e-08
2.75012e-07
2.20456e-08
2.75154e-07
2.11749e-08
2.75288e-07
2.0373e-08
2.75414e-07
1.96305e-08
2.75533e-07
1.89398e-08
2.75646e-07
1.82944e-08
2.75753e-07
1.76893e-08
2.75854e-07
1.71197e-08
2.75949e-07
1.65819e-08
2.76038e-07
1.60722e-08
2.76122e-07
1.55876e-08
2.762e-07
1.51251e-08
2.76273e-07
1.46818e-08
2.76341e-07
1.42553e-08
2.76403e-07
1.38429e-08
2.7646e-07
1.34421e-08
2.76513e-07
1.30504e-08
2.76561e-07
1.26653e-08
2.76604e-07
1.22834e-08
2.76644e-07
1.19023e-08
2.76681e-07
1.15175e-08
2.76715e-07
1.11262e-08
2.76748e-07
1.07217e-08
2.76779e-07
1.0301e-08
2.7681e-07
9.8535e-09
2.76843e-07
9.3751e-09
2.76877e-07
8.8505e-09
2.76916e-07
8.26933e-09
2.76959e-07
7.61499e-09
2.77008e-07
6.85426e-09
2.77065e-07
5.98242e-09
2.77122e-07
4.90628e-09
2.77187e-07
3.65851e-09
2.77221e-07
2.05509e-09
2.77228e-07
2.07899e-10
-2.02463e-09
2.77135e-07
2.74034e-07
4.03273e-08
2.77101e-07
6.15952e-08
2.78354e-07
4.97064e-08
2.79418e-07
4.25821e-08
2.80226e-07
4.00093e-08
2.80711e-07
3.69512e-08
2.81072e-07
3.37561e-08
2.81395e-07
3.12975e-08
2.81677e-07
2.93968e-08
2.8192e-07
2.77594e-08
2.82134e-07
2.63026e-08
2.82329e-07
2.50125e-08
2.82508e-07
2.38647e-08
2.82673e-07
2.28316e-08
2.82827e-07
2.1892e-08
2.82971e-07
2.10311e-08
2.83106e-07
2.02375e-08
2.83234e-07
1.95022e-08
2.83356e-07
1.88178e-08
2.83473e-07
1.81781e-08
2.83584e-07
1.7578e-08
2.8369e-07
1.70131e-08
2.83793e-07
1.64796e-08
2.83891e-07
1.59741e-08
2.83985e-07
1.54933e-08
2.84076e-07
1.50343e-08
2.84163e-07
1.45945e-08
2.84247e-07
1.41712e-08
2.84328e-07
1.37619e-08
2.84406e-07
1.33641e-08
2.84482e-07
1.2975e-08
2.84555e-07
1.25922e-08
2.84626e-07
1.22123e-08
2.84695e-07
1.18328e-08
2.84764e-07
1.14492e-08
2.84831e-07
1.10585e-08
2.84899e-07
1.06541e-08
2.84967e-07
1.02325e-08
2.85037e-07
9.78385e-09
2.8511e-07
9.30256e-09
2.85185e-07
8.77535e-09
2.85265e-07
8.1892e-09
2.85349e-07
7.53042e-09
2.8544e-07
6.76412e-09
2.85536e-07
5.88592e-09
2.85631e-07
4.81129e-09
2.85728e-07
3.56177e-09
2.85792e-07
1.99125e-09
2.8582e-07
1.79786e-10
-1.96149e-09
2.85757e-07
2.82041e-07
3.66241e-08
2.85093e-07
5.8543e-08
2.86344e-07
4.84554e-08
2.87389e-07
4.15366e-08
2.88222e-07
3.9177e-08
2.88733e-07
3.644e-08
2.89103e-07
3.33859e-08
2.89432e-07
3.09688e-08
2.89721e-07
2.91082e-08
2.89969e-07
2.75112e-08
2.90187e-07
2.6084e-08
2.90385e-07
2.48148e-08
2.90566e-07
2.36838e-08
2.90733e-07
2.26648e-08
2.90888e-07
2.1737e-08
2.91033e-07
2.0886e-08
2.9117e-07
2.01009e-08
2.91299e-07
1.93729e-08
2.91422e-07
1.86947e-08
2.9154e-07
1.80605e-08
2.91653e-07
1.74652e-08
2.91761e-07
1.69046e-08
2.91866e-07
1.63749e-08
2.91967e-07
1.58728e-08
2.92065e-07
1.53951e-08
2.9216e-07
1.4939e-08
2.92253e-07
1.45017e-08
2.92344e-07
1.40807e-08
2.92432e-07
1.36734e-08
2.92519e-07
1.32772e-08
2.92605e-07
1.28896e-08
2.92689e-07
1.25078e-08
2.92772e-07
1.21287e-08
2.92856e-07
1.17495e-08
2.92939e-07
1.13658e-08
2.93023e-07
1.09743e-08
2.93109e-07
1.05688e-08
2.93196e-07
1.01451e-08
2.93286e-07
9.69419e-09
2.93379e-07
9.20918e-09
2.93476e-07
8.67838e-09
2.93578e-07
8.08704e-09
2.93685e-07
7.42326e-09
2.93797e-07
6.6522e-09
2.93915e-07
5.76845e-09
2.94029e-07
4.69721e-09
2.9414e-07
3.45018e-09
2.94219e-07
1.91311e-09
2.94255e-07
1.43101e-10
-1.91328e-09
2.94207e-07
2.90309e-07
3.32039e-08
2.93335e-07
5.55166e-08
2.94593e-07
4.71983e-08
2.95618e-07
4.05113e-08
2.9647e-07
3.83252e-08
2.97008e-07
3.59019e-08
2.97389e-07
3.30045e-08
2.97724e-07
3.06343e-08
2.98019e-07
2.8813e-08
2.98273e-07
2.72573e-08
2.98496e-07
2.58613e-08
2.98696e-07
2.4614e-08
2.9888e-07
2.35003e-08
2.99049e-07
2.24959e-08
2.99205e-07
2.15804e-08
2.99352e-07
2.07397e-08
2.99489e-07
1.99632e-08
2.99619e-07
1.92426e-08
2.99743e-07
1.85709e-08
2.99862e-07
1.79422e-08
2.99975e-07
1.73517e-08
3.00084e-07
1.67953e-08
3.0019e-07
1.62694e-08
3.00292e-07
1.57705e-08
3.00392e-07
1.52957e-08
3.00489e-07
1.48421e-08
3.00583e-07
1.4407e-08
3.00676e-07
1.39879e-08
3.00767e-07
1.35821e-08
3.00857e-07
1.31872e-08
3.00947e-07
1.28004e-08
3.01035e-07
1.24191e-08
3.01124e-07
1.20401e-08
3.01213e-07
1.16605e-08
3.01303e-07
1.1276e-08
3.01394e-07
1.0883e-08
3.01487e-07
1.04757e-08
3.01583e-07
1.00493e-08
3.01682e-07
9.59546e-09
3.01785e-07
9.10632e-09
3.01892e-07
8.57138e-09
3.02004e-07
7.97489e-09
3.02121e-07
7.30595e-09
3.02242e-07
6.53092e-09
3.02368e-07
5.64269e-09
3.02489e-07
4.57633e-09
3.02604e-07
3.33553e-09
3.02685e-07
1.83203e-09
3.02721e-07
1.07129e-10
-1.86945e-09
3.02677e-07
2.98848e-07
3.00584e-08
3.01837e-07
5.25272e-08
3.03108e-07
4.59273e-08
3.04112e-07
3.95076e-08
3.04978e-07
3.74593e-08
3.05544e-07
3.5336e-08
3.05938e-07
3.26104e-08
3.06279e-07
3.02937e-08
3.0658e-07
2.85111e-08
3.0684e-07
2.69974e-08
3.07067e-07
2.56343e-08
3.07271e-07
2.44101e-08
3.07457e-07
2.33143e-08
3.07628e-07
2.23248e-08
3.07787e-07
2.1422e-08
3.07935e-07
2.05918e-08
3.08073e-07
1.98244e-08
3.08205e-07
1.91114e-08
3.08329e-07
1.84462e-08
3.08448e-07
1.78232e-08
3.08562e-07
1.72376e-08
3.08672e-07
1.66855e-08
3.08778e-07
1.61633e-08
3.08881e-07
1.56677e-08
3.08981e-07
1.51958e-08
3.09078e-07
1.47447e-08
3.09174e-07
1.43117e-08
3.09267e-07
1.38943e-08
3.09359e-07
1.34899e-08
3.09451e-07
1.3096e-08
3.09541e-07
1.27099e-08
3.09631e-07
1.23289e-08
3.09722e-07
1.19497e-08
3.09813e-07
1.15694e-08
3.09905e-07
1.11838e-08
3.09999e-07
1.07892e-08
3.10095e-07
1.03798e-08
3.10194e-07
9.95039e-09
3.10296e-07
9.49334e-09
3.10402e-07
9.00004e-09
3.10513e-07
8.4608e-09
3.10628e-07
7.85948e-09
3.10748e-07
7.18558e-09
3.10872e-07
6.40748e-09
3.10998e-07
5.51617e-09
3.11119e-07
4.45605e-09
3.11229e-07
3.22493e-09
3.11306e-07
1.75512e-09
3.11335e-07
7.76667e-11
-1.823e-09
3.11289e-07
3.07668e-07
2.7178e-08
3.10609e-07
4.95861e-08
3.11901e-07
4.46354e-08
3.12882e-07
3.85259e-08
3.13757e-07
3.65844e-08
3.14351e-07
3.47425e-08
3.14759e-07
3.22023e-08
3.15106e-07
2.9947e-08
3.15414e-07
2.82028e-08
3.1568e-07
2.67312e-08
3.15912e-07
2.54025e-08
3.16119e-07
2.42026e-08
3.16308e-07
2.31254e-08
3.16482e-07
2.21514e-08
3.16642e-07
2.12616e-08
3.16791e-07
2.04424e-08
3.16932e-07
1.96842e-08
3.17064e-07
1.89791e-08
3.1719e-07
1.83206e-08
3.17309e-07
1.77034e-08
3.17424e-07
1.71229e-08
3.17534e-07
1.65752e-08
3.17641e-07
1.60568e-08
3.17744e-07
1.55646e-08
3.17844e-07
1.50956e-08
3.17942e-07
1.4647e-08
3.18038e-07
1.42161e-08
3.18132e-07
1.38005e-08
3.18224e-07
1.33975e-08
3.18316e-07
1.30046e-08
3.18406e-07
1.2619e-08
3.18497e-07
1.22382e-08
3.18588e-07
1.18588e-08
3.1868e-07
1.14778e-08
3.18772e-07
1.10911e-08
3.18867e-07
1.06946e-08
3.18964e-07
1.02831e-08
3.19063e-07
9.85077e-09
3.19166e-07
9.39048e-09
3.19273e-07
8.8932e-09
3.19384e-07
8.34977e-09
3.19499e-07
7.74415e-09
3.19619e-07
7.06585e-09
3.19741e-07
6.28567e-09
3.19864e-07
5.39294e-09
3.1998e-07
4.34047e-09
3.20082e-07
3.12217e-09
3.20151e-07
1.68635e-09
3.20171e-07
5.78895e-11
-1.76971e-09
3.20118e-07
3.16778e-07
2.45513e-08
3.1966e-07
4.67042e-08
3.20978e-07
4.33172e-08
3.21938e-07
3.75659e-08
3.22817e-07
3.57057e-08
3.23437e-07
3.41223e-08
3.23861e-07
3.17785e-08
3.24214e-07
2.95938e-08
3.24529e-07
2.7888e-08
3.24801e-07
2.64585e-08
3.25038e-07
2.51657e-08
3.2525e-07
2.39914e-08
3.25442e-07
2.29334e-08
3.25618e-07
2.19753e-08
3.2578e-07
2.1099e-08
3.25931e-07
2.02912e-08
3.26073e-07
1.95425e-08
3.26207e-07
1.88455e-08
3.26333e-07
1.81939e-08
3.26454e-07
1.75827e-08
3.26569e-07
1.70074e-08
3.2668e-07
1.64642e-08
3.26788e-07
1.59497e-08
3.26891e-07
1.5461e-08
3.26992e-07
1.49949e-08
3.2709e-07
1.45489e-08
3.27186e-07
1.41203e-08
3.2728e-07
1.37064e-08
3.27372e-07
1.33048e-08
3.27464e-07
1.29129e-08
3.27555e-07
1.2528e-08
3.27646e-07
1.21474e-08
3.27737e-07
1.17679e-08
3.27829e-07
1.13862e-08
3.27921e-07
1.09983e-08
3.28016e-07
1.06002e-08
3.28112e-07
1.01865e-08
3.28212e-07
9.7514e-09
3.28314e-07
9.28799e-09
3.2842e-07
8.78706e-09
3.2853e-07
8.23976e-09
3.28644e-07
7.63047e-09
3.28761e-07
6.94853e-09
3.2888e-07
6.16738e-09
3.28998e-07
5.27502e-09
3.29106e-07
4.23166e-09
3.292e-07
3.02906e-09
3.29258e-07
1.62778e-09
3.29267e-07
4.93161e-11
-1.70726e-09
3.29204e-07
3.26188e-07
2.21658e-08
3.29e-07
4.38926e-08
3.30349e-07
4.19683e-08
3.31288e-07
3.66262e-08
3.32166e-07
3.48279e-08
3.32812e-07
3.34768e-08
3.33252e-07
3.13376e-08
3.33613e-07
2.92335e-08
3.33934e-07
2.75668e-08
3.34213e-07
2.61789e-08
3.34456e-07
2.49234e-08
3.34671e-07
2.37761e-08
3.34866e-07
2.27381e-08
3.35045e-07
2.17965e-08
3.3521e-07
2.09341e-08
3.35363e-07
2.0138e-08
3.35507e-07
1.93991e-08
3.35642e-07
1.87105e-08
3.3577e-07
1.8066e-08
3.35891e-07
1.74609e-08
3.36008e-07
1.6891e-08
3.3612e-07
1.63524e-08
3.36227e-07
1.5842e-08
3.36331e-07
1.53568e-08
3.36433e-07
1.48938e-08
3.36531e-07
1.44505e-08
3.36627e-07
1.4024e-08
3.36722e-07
1.36121e-08
3.36814e-07
1.32119e-08
3.36906e-07