/*--------------------------------*- C++ -*----------------------------------*\
  =========                 |
  \\      /  F ield         | OpenFOAM: The Open Source CFD Toolbox
   \\    /   O peration     | Website:  https://openfoam.org
    \\  /    A nd           | Version:  7
     \\/     M anipulation  |
\*---------------------------------------------------------------------------*/
FoamFile
{
    version     2.0;
    format      ascii;
    class       surfaceScalarField;
    location    "0.39";
    object      phi_0;
}
// * * * * * * * * * * * * * * * * * * * * * * * * * * * * * * * * * * * * * //

dimensions      [0 3 -1 0 0 0 0];

internalField   nonuniform List<scalar> 
139350
(
6.45136e-08
9.21179e-08
3.19684e-08
3.25452e-08
2.30654e-08
8.90308e-09
1.95824e-08
3.48296e-09
1.76319e-08
1.95051e-09
1.62027e-08
1.42919e-09
1.50704e-08
1.13229e-09
1.41584e-08
9.12037e-10
1.34079e-08
7.50445e-10
1.27758e-08
6.32169e-10
1.22331e-08
5.42674e-10
1.17606e-08
4.72492e-10
1.13446e-08
4.16019e-10
1.09749e-08
3.69726e-10
1.06436e-08
3.31205e-10
1.03449e-08
2.98732e-10
1.00739e-08
2.71044e-10
9.82668e-09
2.47192e-10
9.60022e-09
2.2646e-10
9.39193e-09
2.0829e-10
9.19968e-09
1.92248e-10
9.02169e-09
1.77987e-10
8.85647e-09
1.65225e-10
8.70274e-09
1.53733e-10
8.55942e-09
1.4332e-10
8.42559e-09
1.33825e-10
8.30048e-09
1.25109e-10
8.18343e-09
1.17055e-10
8.07387e-09
1.09552e-10
7.97136e-09
1.02514e-10
7.87552e-09
9.58361e-11
7.78606e-09
8.94603e-11
7.7028e-09
8.32644e-11
7.62557e-09
7.72256e-11
7.55441e-09
7.11647e-11
7.48929e-09
6.5118e-11
7.4305e-09
5.87947e-11
7.37819e-09
5.23061e-11
7.33296e-09
4.52296e-11
7.29534e-09
3.76251e-11
7.26613e-09
2.92098e-11
7.24696e-09
1.91696e-11
7.23804e-09
8.91407e-12
7.24475e-09
-6.7089e-12
7.26315e-09
-1.83951e-11
7.31169e-09
-4.85429e-11
7.36636e-09
-5.46758e-11
7.5139e-09
-1.47539e-10
7.45569e-09
5.8218e-11
-3.69442e-09
1.11501e-08
1.25945e-07
1.27616e-07
9.12966e-08
6.71939e-08
7.19491e-08
2.82505e-08
6.12381e-08
1.4194e-08
5.48051e-08
8.38359e-09
5.03123e-08
5.92198e-09
4.68288e-08
4.61574e-09
4.40155e-08
3.7253e-09
4.16918e-08
3.07419e-09
3.97321e-08
2.59182e-09
3.80494e-08
2.22537e-09
3.65837e-08
1.93821e-09
3.52924e-08
1.70735e-09
3.4144e-08
1.51817e-09
3.31144e-08
1.36076e-09
3.21851e-08
1.22806e-09
3.13412e-08
1.11492e-09
3.05709e-08
1.01748e-09
2.98646e-08
9.32801e-10
2.92142e-08
8.58626e-10
2.86133e-08
7.93178e-10
2.80562e-08
7.35043e-10
2.75384e-08
6.83078e-10
2.70558e-08
6.3635e-10
2.6605e-08
5.94083e-10
2.61832e-08
5.55628e-10
2.57879e-08
5.20428e-10
2.54169e-08
4.88009e-10
2.50685e-08
4.57943e-10
2.47412e-08
4.29872e-10
2.44336e-08
4.03422e-10
2.41447e-08
3.78326e-10
2.38738e-08
3.54181e-10
2.36202e-08
3.30829e-10
2.33837e-08
3.07704e-10
2.31639e-08
2.84851e-10
2.29614e-08
2.61289e-10
2.27763e-08
2.3748e-10
2.26099e-08
2.11609e-10
2.24627e-08
1.84839e-10
2.23378e-08
1.5406e-10
2.2236e-08
1.20957e-10
2.21633e-08
8.16422e-11
2.21216e-08
3.5033e-11
2.21201e-08
-1.69533e-11
2.21698e-08
-9.82239e-11
2.22668e-08
-1.51663e-10
2.25277e-08
-4.08483e-10
2.26621e-08
-7.61703e-11
-4.98093e-09
2.39486e-08
1.58754e-07
1.35266e-07
1.36534e-07
8.94139e-08
1.17508e-07
4.72767e-08
1.03338e-07
2.83641e-08
9.33498e-08
1.83716e-08
8.60544e-08
1.32174e-08
8.03506e-08
1.03196e-08
7.5702e-08
8.37389e-09
7.18263e-08
6.9499e-09
6.85358e-08
5.88228e-09
6.56973e-08
5.06394e-09
6.32159e-08
4.41957e-09
6.10233e-08
3.89998e-09
5.90683e-08
3.47312e-09
5.73119e-08
3.11717e-09
5.57234e-08
2.81657e-09
5.42785e-08
2.55987e-09
5.29574e-08
2.33851e-09
5.17442e-08
2.14597e-09
5.06257e-08
1.97718e-09
4.95907e-08
1.82817e-09
4.863e-08
1.69577e-09
4.77356e-08
1.57742e-09
4.6901e-08
1.47102e-09
4.61202e-08
1.37482e-09
4.53885e-08
1.28737e-09
4.47015e-08
1.20743e-09
4.40556e-08
1.13392e-09
4.34476e-08
1.06592e-09
4.28749e-08
1.0026e-09
4.23351e-08
9.43174e-10
4.18264e-08
8.87021e-10
4.13473e-08
8.33332e-10
4.08964e-08
7.81692e-10
4.04731e-08
7.31002e-10
4.00767e-08
6.81264e-10
3.97075e-08
6.30517e-10
3.93652e-08
5.79774e-10
3.90518e-08
5.25009e-10
3.8767e-08
4.69566e-10
3.85161e-08
4.04973e-10
3.82978e-08
3.39302e-10
3.81237e-08
2.55768e-10
3.79895e-08
1.69169e-10
3.7919e-08
5.35241e-11
3.7908e-08
-8.71389e-11
3.79827e-08
-2.26367e-10
3.82271e-08
-6.52963e-10
3.85573e-08
-4.063e-10
-5.37584e-09
3.89522e-08
1.75613e-07
1.31169e-07
1.6563e-07
9.93969e-08
1.52749e-07
6.01575e-08
1.40148e-07
4.09649e-08
1.29475e-07
2.90441e-08
1.20843e-07
2.185e-08
1.13735e-07
1.74268e-08
1.07758e-07
1.4351e-08
1.02661e-07
1.20473e-08
9.82606e-08
1.02826e-08
9.44176e-08
8.90695e-09
9.10263e-08
7.81084e-09
8.8007e-08
6.91927e-09
8.52984e-08
6.18181e-09
8.28521e-08
5.56339e-09
8.063e-08
5.03867e-09
7.86011e-08
4.58884e-09
7.67399e-08
4.19966e-09
7.50257e-08
3.86019e-09
7.3441e-08
3.5619e-09
7.19711e-08
3.29805e-09
7.06036e-08
3.06323e-09
6.9328e-08
2.85304e-09
6.81351e-08
2.66389e-09
6.70172e-08
2.49277e-09
6.59674e-08
2.33716e-09
6.49799e-08
2.19492e-09
6.40496e-08
2.0642e-09
6.31722e-08
1.94337e-09
6.23437e-08
1.83104e-09
6.1561e-08
1.72587e-09
6.08213e-08
1.62674e-09
6.01223e-08
1.53236e-09
5.9462e-08
1.44194e-09
5.88393e-08
1.35376e-09
5.82528e-08
1.2677e-09
5.77027e-08
1.18065e-09
5.71882e-08
1.09427e-09
5.67114e-08
1.00182e-09
5.62715e-08
9.09428e-10
5.58747e-08
8.0184e-10
5.55184e-08
6.95573e-10
5.52172e-08
5.57003e-10
5.49638e-08
4.22529e-10
5.47884e-08
2.28971e-10
5.46809e-08
2.02969e-11
5.46822e-08
-2.27658e-10
5.48458e-08
-8.1651e-10
5.52279e-08
-7.88407e-10
-5.53253e-09
5.53846e-08
1.84511e-07
1.23443e-07
1.82345e-07
1.01563e-07
1.76132e-07
6.63706e-08
1.67783e-07
4.93139e-08
1.59172e-07
3.76548e-08
1.51275e-07
2.97476e-08
1.44209e-07
2.44928e-08
1.37914e-07
2.0646e-08
1.32317e-07
1.76442e-08
1.27334e-07
1.52656e-08
1.22879e-07
1.33618e-08
1.18876e-07
1.18141e-08
1.1526e-07
1.05355e-08
1.11977e-07
9.4645e-09
1.08983e-07
8.55715e-09
1.06241e-07
7.78068e-09
1.0372e-07
7.11022e-09
1.01393e-07
6.52661e-09
9.92381e-08
6.01487e-09
9.72368e-08
5.56319e-09
9.53727e-08
5.16209e-09
9.3632e-08
4.80392e-09
9.20027e-08
4.4824e-09
9.04742e-08
4.19234e-09
8.90376e-08
3.9294e-09
8.76849e-08
3.6899e-09
8.64091e-08
3.47069e-09
8.52042e-08
3.26907e-09
8.40649e-08
3.08266e-09
8.29866e-08
2.90937e-09
8.19652e-08
2.74725e-09
8.09973e-08
2.59466e-09
8.008e-08
2.4497e-09
7.92107e-08
2.31118e-09
7.83878e-08
2.17667e-09
7.76096e-08
2.0459e-09
7.68757e-08
1.91455e-09
7.61852e-08
1.78482e-09
7.55398e-08
1.64723e-09
7.49386e-08
1.51064e-09
7.43876e-08
1.35284e-09
7.38843e-08
1.19879e-09
7.34434e-08
9.97983e-10
7.30583e-08
8.07616e-10
7.27579e-08
5.29319e-10
7.25364e-08
2.41791e-10
7.24327e-08
-1.23896e-10
7.24916e-08
-8.75455e-10
7.28089e-08
-1.10575e-09
-5.58911e-09
7.28655e-08
1.90343e-07
1.15317e-07
1.91863e-07
1.00043e-07
1.90272e-07
6.79617e-08
1.86174e-07
5.34113e-08
1.80744e-07
4.30849e-08
1.75001e-07
3.54907e-08
1.69312e-07
3.01818e-08
1.63834e-07
2.61241e-08
1.58664e-07
2.28146e-08
1.53843e-07
2.00865e-08
1.49374e-07
1.78306e-08
1.45241e-07
1.59472e-08
1.4142e-07
1.43568e-08
1.37884e-07
1.30005e-08
1.34607e-07
1.18338e-08
1.31565e-07
1.08224e-08
1.28736e-07
9.93957e-09
1.26099e-07
9.16379e-09
1.23636e-07
8.478e-09
1.2133e-07
7.86838e-09
1.19169e-07
7.32367e-09
1.17138e-07
6.83459e-09
1.15227e-07
6.39345e-09
1.13426e-07
5.9938e-09
1.11725e-07
5.63017e-09
1.10117e-07
5.29789e-09
1.08595e-07
4.99294e-09
1.07152e-07
4.71182e-09
1.05783e-07
4.45145e-09
1.04483e-07
4.20909e-09
1.03248e-07
3.98219e-09
1.02075e-07
3.76856e-09
1.00958e-07
3.56576e-09
9.98975e-08
3.37213e-09
9.88896e-08
3.1846e-09
9.79329e-08
3.00263e-09
9.70266e-08
2.82077e-09
9.61698e-08
2.64161e-09
9.53639e-08
2.45317e-09
9.46081e-08
2.26647e-09
9.39076e-08
2.0533e-09
9.32611e-08
1.84527e-09
9.2681e-08
1.57812e-09
9.21647e-08
1.32395e-09
9.17345e-08
9.59509e-10
9.13952e-08
5.8103e-10
9.11731e-08
9.81875e-11
9.11186e-08
-8.20882e-10
9.13238e-08
-1.311e-09
-5.53493e-09
9.12696e-08
1.95505e-07
1.07626e-07
1.9825e-07
9.72977e-08
1.98994e-07
6.72185e-08
1.97806e-07
5.45988e-08
1.9518e-07
4.5711e-08
1.91849e-07
3.88217e-08
1.88125e-07
3.39054e-08
1.84181e-07
3.00682e-08
1.80167e-07
2.68291e-08
1.76192e-07
2.40616e-08
1.72324e-07
2.16986e-08
1.68601e-07
1.96695e-08
1.65045e-07
1.79132e-08
1.61663e-07
1.63826e-08
1.58456e-07
1.5041e-08
1.55419e-07
1.38589e-08
1.52547e-07
1.28122e-08
1.4983e-07
1.18808e-08
1.47259e-07
1.10483e-08
1.44827e-07
1.03011e-08
1.42523e-07
9.62766e-09
1.40339e-07
9.01836e-09
1.38267e-07
8.46501e-09
1.363e-07
7.96061e-09
1.34431e-07
7.49917e-09
1.32654e-07
7.07545e-09
1.30962e-07
6.68489e-09
1.2935e-07
6.32348e-09
1.27814e-07
5.98763e-09
1.26349e-07
5.67412e-09
1.24951e-07
5.37996e-09
1.23617e-07
5.10249e-09
1.22344e-07
4.83882e-09
1.2113e-07
4.58689e-09
1.19971e-07
4.34303e-09
1.18867e-07
4.10645e-09
1.17817e-07
3.87073e-09
1.1682e-07
3.6386e-09
1.15877e-07
3.39608e-09
1.14988e-07
3.15552e-09
1.14157e-07
2.88425e-09
1.13385e-07
2.61777e-09
1.1268e-07
2.28297e-09
1.12045e-07
1.95853e-09
1.11495e-07
1.50988e-09
1.11046e-07
1.03058e-09
1.10709e-07
4.3428e-10
1.10539e-07
-6.50894e-10
1.10622e-07
-1.394e-09
-5.3632e-09
1.10451e-07
2.0082e-07
1.00391e-07
2.03775e-07
9.43428e-08
2.05353e-07
6.56407e-08
2.0566e-07
5.42917e-08
2.04837e-07
4.6534e-08
2.03366e-07
4.02928e-08
2.01426e-07
3.58448e-08
1.99103e-07
3.23914e-08
1.96503e-07
2.94297e-08
1.93727e-07
2.68373e-08
1.90857e-07
2.4569e-08
1.87951e-07
2.25747e-08
1.85056e-07
2.08089e-08
1.82201e-07
1.92369e-08
1.79411e-07
1.78319e-08
1.76698e-07
1.65718e-08
1.74072e-07
1.54378e-08
1.71539e-07
1.44143e-08
1.691e-07
1.34874e-08
1.66755e-07
1.26457e-08
1.64504e-07
1.1879e-08
1.62343e-07
1.11786e-08
1.60271e-07
1.0537e-08
1.58284e-07
9.94761e-09
1.56379e-07
9.40449e-09
1.54552e-07
8.90252e-09
1.528e-07
8.43711e-09
1.51119e-07
8.00411e-09
1.49507e-07
7.5998e-09
1.4796e-07
7.22075e-09
1.46477e-07
6.86374e-09
1.45053e-07
6.52585e-09
1.43688e-07
6.2039e-09
1.42379e-07
5.89555e-09
1.41126e-07
5.59671e-09
1.39926e-07
5.30633e-09
1.38779e-07
5.01727e-09
1.37686e-07
4.73217e-09
1.36646e-07
4.43569e-09
1.35661e-07
4.14055e-09
1.34734e-07
3.81144e-09
1.33867e-07
3.48479e-09
1.33066e-07
3.08381e-09
1.32339e-07
2.68559e-09
1.31692e-07
2.15682e-09
1.31151e-07
1.57183e-09
1.30719e-07
8.66165e-10
1.30442e-07
-3.74424e-10
1.30408e-07
-1.35908e-09
-5.08593e-09
1.3013e-07
2.06424e-07
9.34992e-08
2.09335e-07
9.14315e-08
2.11064e-07
6.39116e-08
2.1195e-07
5.34054e-08
2.12021e-07
4.64639e-08
2.11643e-07
4.06699e-08
2.10922e-07
3.65661e-08
2.09859e-07
3.34546e-08
2.08492e-07
3.07965e-08
2.0688e-07
2.84497e-08
2.05077e-07
2.63717e-08
2.03133e-07
2.45188e-08
2.0109e-07
2.28521e-08
1.98983e-07
2.13436e-08
1.96842e-07
1.99728e-08
1.94691e-07
1.87235e-08
1.92546e-07
1.75821e-08
1.90424e-07
1.65369e-08
1.88333e-07
1.55777e-08
1.86283e-07
1.46958e-08
1.84279e-07
1.38832e-08
1.82325e-07
1.31331e-08
1.80423e-07
1.24391e-08
1.78574e-07
1.17958e-08
1.76781e-07
1.1198e-08
1.75042e-07
1.06412e-08
1.73358e-07
1.01213e-08
1.71728e-07
9.6343e-09
1.70151e-07
9.17682e-09
1.68626e-07
8.74548e-09
1.67153e-07
8.33711e-09
1.6573e-07
7.94878e-09
1.64356e-07
7.57721e-09
1.63032e-07
7.21994e-09
1.61756e-07
6.87264e-09
1.60528e-07
6.53407e-09
1.59349e-07
6.19665e-09
1.58218e-07
5.86277e-09
1.57138e-07
5.51631e-09
1.56109e-07
5.16959e-09
1.55134e-07
4.78633e-09
1.54217e-07
4.40134e-09
1.53363e-07
3.93855e-09
1.52581e-07
3.46709e-09
1.51874e-07
2.86418e-09
1.51271e-07
2.17475e-09
1.50772e-07
1.36477e-09
1.50411e-07
-1.29372e-11
1.50273e-07
-1.22091e-09
-4.72465e-09
1.49911e-07
2.1227e-07
8.68916e-08
2.15144e-07
8.85574e-08
2.16819e-07
6.22363e-08
2.17865e-07
5.23595e-08
2.1828e-07
4.60487e-08
2.18405e-07
4.05451e-08
2.18337e-07
3.66338e-08
2.18045e-07
3.37467e-08
2.17522e-07
3.13195e-08
2.16787e-07
2.91852e-08
2.15862e-07
2.7296e-08
2.14774e-07
2.56071e-08
2.13547e-07
2.40789e-08
2.12207e-07
2.26836e-08
2.10777e-07
2.14027e-08
2.09279e-07
2.0222e-08
2.0773e-07
1.91307e-08
2.06147e-07
1.81197e-08
2.04544e-07
1.71812e-08
2.02931e-07
1.63085e-08
2.01318e-07
1.54958e-08
1.99714e-07
1.47379e-08
1.98123e-07
1.40298e-08
1.96551e-07
1.33673e-08
1.95003e-07
1.27463e-08
1.93481e-07
1.21631e-08
1.91988e-07
1.16143e-08
1.90526e-07
1.10964e-08
1.89096e-07
1.06065e-08
1.877e-07
1.01416e-08
1.86339e-07
9.69869e-09
1.85012e-07
9.27503e-09
1.83722e-07
8.86744e-09
1.82469e-07
8.47349e-09
1.81252e-07
8.08881e-09
1.80074e-07
7.71203e-09
1.78936e-07
7.33537e-09
1.77838e-07
6.96089e-09
1.76782e-07
6.5722e-09
1.75771e-07
6.18064e-09
1.74807e-07
5.75029e-09
1.73896e-07
5.31248e-09
1.73039e-07
4.79521e-09
1.72251e-07
4.25528e-09
1.71528e-07
3.58635e-09
1.70904e-07
2.79968e-09
1.70375e-07
1.89284e-09
1.69961e-07
4.01159e-10
1.69745e-07
-1.00413e-09
-4.30682e-09
1.69327e-07
2.18316e-07
8.05566e-08
2.21193e-07
8.56797e-08
2.22792e-07
6.06374e-08
2.23867e-07
5.1285e-08
2.24391e-07
4.55249e-08
2.24693e-07
4.02428e-08
2.24901e-07
3.64253e-08
2.24987e-07
3.36606e-08
2.2493e-07
3.13767e-08
2.2473e-07
2.93856e-08
2.2439e-07
2.76354e-08
2.23918e-07
2.60795e-08
2.23321e-07
2.46755e-08
2.22612e-07
2.33933e-08
2.21801e-07
2.22129e-08
2.20904e-07
2.11199e-08
2.19931e-07
2.01035e-08
2.18895e-07
1.91552e-08
2.17808e-07
1.82682e-08
2.1668e-07
1.74368e-08
2.1552e-07
1.66561e-08
2.14336e-07
1.59219e-08
2.13135e-07
1.52304e-08
2.11924e-07
1.45782e-08
2.10709e-07
1.39619e-08
2.09493e-07
1.33787e-08
2.08282e-07
1.28256e-08
2.07078e-07
1.23e-08
2.05886e-07
1.17992e-08
2.04707e-07
1.13206e-08
2.03544e-07
1.08617e-08
2.02399e-07
1.04199e-08
2.01274e-07
9.99222e-09
2.00171e-07
9.57635e-09
1.99092e-07
9.16795e-09
1.98038e-07
8.76563e-09
1.97012e-07
8.36156e-09
1.96016e-07
7.95744e-09
1.95051e-07
7.53698e-09
1.94121e-07
7.11017e-09
1.93229e-07
6.64246e-09
1.92381e-07
6.16042e-09
1.91578e-07
5.5984e-09
1.90835e-07
4.99849e-09
1.90147e-07
4.27363e-09
1.89545e-07
3.40188e-09
1.8903e-07
2.40842e-09
1.88602e-07
8.2932e-10
1.88339e-07
-7.41456e-10
-3.86417e-09
1.87896e-07
2.24549e-07
7.45004e-08
2.27453e-07
8.27758e-08
2.28988e-07
5.91023e-08
2.3007e-07
5.02032e-08
2.30635e-07
4.49603e-08
2.30986e-07
3.98919e-08
2.31284e-07
3.6127e-08
2.31518e-07
3.34263e-08
2.3167e-07
3.12251e-08
2.31737e-07
2.93185e-08
2.31719e-07
2.76536e-08
2.31613e-07
2.6185e-08
2.3142e-07
2.48687e-08
2.31141e-07
2.36726e-08
2.30779e-07
2.25746e-08
2.3034e-07
2.15592e-08
2.29829e-07
2.06147e-08
2.29252e-07
1.97319e-08
2.28616e-07
1.89038e-08
2.27929e-07
1.81246e-08
2.27195e-07
1.73896e-08
2.26422e-07
1.66949e-08
2.25616e-07
1.6037e-08
2.24781e-07
1.54129e-08
2.23923e-07
1.48196e-08
2.23047e-07
1.42547e-08
2.22157e-07
1.37157e-08
2.21257e-07
1.32002e-08
2.2035e-07
1.2706e-08
2.1944e-07
1.22307e-08
2.18529e-07
1.1772e-08
2.17622e-07
1.13276e-08
2.16719e-07
1.08947e-08
2.15825e-07
1.0471e-08
2.1494e-07
1.00524e-08
2.14068e-07
9.63744e-09
2.13212e-07
9.21826e-09
2.12373e-07
8.7962e-09
2.11554e-07
8.35536e-09
2.10761e-07
7.90406e-09
2.09993e-07
7.40991e-09
2.0926e-07
6.89387e-09
2.0856e-07
6.29812e-09
2.07909e-07
5.64911e-09
2.07303e-07
4.87957e-09
2.06767e-07
3.93826e-09
2.06304e-07
2.87102e-09
2.05902e-07
1.23184e-09
2.05629e-07
-4.68685e-10
-3.42962e-09
2.05195e-07
2.30975e-07
6.87309e-08
2.33914e-07
7.98367e-08
2.35393e-07
5.76241e-08
2.36483e-07
4.91129e-08
2.37081e-07
4.43627e-08
2.37447e-07
3.95257e-08
2.37767e-07
3.58067e-08
2.38047e-07
3.31459e-08
2.38275e-07
3.09978e-08
2.38451e-07
2.91419e-08
2.38579e-07
2.75259e-08
2.38656e-07
2.61082e-08
2.38679e-07
2.48453e-08
2.38648e-07
2.37043e-08
2.3856e-07
2.26622e-08
2.38417e-07
2.17024e-08
2.38219e-07
2.08123e-08
2.37969e-07
1.99822e-08
2.37669e-07
1.92042e-08
2.37321e-07
1.84723e-08
2.36929e-07
1.77814e-08
2.36497e-07
1.71273e-08
2.36027e-07
1.65065e-08
2.35524e-07
1.59158e-08
2.34991e-07
1.53526e-08
2.34432e-07
1.48143e-08
2.33849e-07
1.42985e-08
2.33246e-07
1.3803e-08
2.32627e-07
1.33257e-08
2.31993e-07
1.28644e-08
2.31348e-07
1.24168e-08
2.30695e-07
1.19807e-08
2.30036e-07
1.15535e-08
2.29374e-07
1.1133e-08
2.28712e-07
1.07149e-08
2.28051e-07
1.02978e-08
2.27396e-07
9.87399e-09
2.26747e-07
9.44423e-09
2.2611e-07
8.99326e-09
2.25486e-07
8.52748e-09
2.24879e-07
8.01719e-09
2.24295e-07
7.4773e-09
2.23735e-07
6.8585e-09
2.23212e-07
6.17201e-09
2.22723e-07
5.36895e-09
2.22286e-07
4.37483e-09
2.21909e-07
3.24814e-09
2.21566e-07
1.57478e-09
2.21316e-07
-2.18873e-10
-3.03274e-09
2.20919e-07
2.37602e-07
6.3254e-08
2.4058e-07
7.68583e-08
2.42001e-07
5.62029e-08
2.43099e-07
4.80151e-08
2.43734e-07
4.37282e-08
2.44113e-07
3.91464e-08
2.44439e-07
3.54808e-08
2.44732e-07
3.28526e-08
2.44983e-07
3.07474e-08
2.45196e-07
2.89286e-08
2.45378e-07
2.73436e-08
2.4553e-07
2.59559e-08
2.45652e-07
2.47242e-08
2.4574e-07
2.36157e-08
2.45795e-07
2.26073e-08
2.45815e-07
2.16822e-08
2.458e-07
2.08276e-08
2.45749e-07
2.00331e-08
2.45662e-07
1.92907e-08
2.45541e-07
1.85938e-08
2.45385e-07
1.7937e-08
2.45197e-07
1.73159e-08
2.44976e-07
1.67266e-08
2.44726e-07
1.61659e-08
2.44448e-07
1.56308e-08
2.44144e-07
1.51186e-08
2.43815e-07
1.4627e-08
2.43465e-07
1.41537e-08
2.43094e-07
1.36963e-08
2.42706e-07
1.32529e-08
2.42301e-07
1.28211e-08
2.41883e-07
1.23987e-08
2.41454e-07
1.19829e-08
2.41015e-07
1.15716e-08
2.4057e-07
1.11605e-08
2.4012e-07
1.07481e-08
2.39667e-07
1.03266e-08
2.39215e-07
9.89635e-09
2.38765e-07
9.44278e-09
2.38323e-07
8.97018e-09
2.37888e-07
8.45186e-09
2.37469e-07
7.89665e-09
2.37063e-07
7.26364e-09
2.36685e-07
6.55034e-09
2.36331e-07
5.7235e-09
2.36013e-07
4.69255e-09
2.3574e-07
3.52067e-09
2.35479e-07
1.83575e-09
2.35277e-07
-1.67747e-11
-2.69517e-09
2.3494e-07
2.44437e-07
5.80733e-08
2.47454e-07
7.38413e-08
2.4882e-07
5.48368e-08
2.49921e-07
4.69144e-08
2.50594e-07
4.3055e-08
2.5099e-07
3.87503e-08
2.51321e-07
3.515e-08
2.5162e-07
3.25536e-08
2.51878e-07
3.04891e-08
2.52102e-07
2.87041e-08
2.52302e-07
2.71441e-08
2.5248e-07
2.57775e-08
2.52638e-07
2.45661e-08
2.52776e-07
2.34777e-08
2.52894e-07
2.24896e-08
2.52991e-07
2.15853e-08
2.53067e-07
2.07519e-08
2.5312e-07
1.99793e-08
2.53152e-07
1.92593e-08
2.53161e-07
1.8585e-08
2.53147e-07
1.79511e-08
2.5311e-07
1.73528e-08
2.5305e-07
1.67861e-08
2.52969e-07
1.62475e-08
2.52865e-07
1.5734e-08
2.52741e-07
1.52428e-08
2.52597e-07
1.47712e-08
2.52434e-07
1.43168e-08
2.52253e-07
1.38774e-08
2.52055e-07
1.34506e-08
2.51842e-07
1.30342e-08
2.51615e-07
1.26257e-08
2.51375e-07
1.22224e-08
2.51125e-07
1.1822e-08
2.50865e-07
1.14202e-08
2.50598e-07
1.1015e-08
2.50326e-07
1.05992e-08
2.5005e-07
1.0172e-08
2.49773e-07
9.72002e-09
2.49498e-07
9.24521e-09
2.49226e-07
8.72402e-09
2.48963e-07
8.15944e-09
2.48708e-07
7.51838e-09
2.48472e-07
6.78678e-09
2.48252e-07
5.94362e-09
2.48055e-07
4.88938e-09
2.4789e-07
3.68518e-09
2.47719e-07
2.00664e-09
2.47578e-07
1.25031e-10
-2.42767e-09
2.4731e-07
2.51489e-07
5.31907e-08
2.54535e-07
7.0796e-08
2.55856e-07
5.3515e-08
2.56955e-07
4.58162e-08
2.57666e-07
4.2344e-08
2.58081e-07
3.83347e-08
2.58418e-07
3.48132e-08
2.58723e-07
3.22489e-08
2.58987e-07
3.02254e-08
2.59216e-07
2.8475e-08
2.59421e-07
2.69389e-08
2.59607e-07
2.5591e-08
2.59778e-07
2.4396e-08
2.59933e-07
2.33225e-08
2.60074e-07
2.23483e-08
2.60202e-07
2.14575e-08
2.60316e-07
2.06374e-08
2.60418e-07
1.98782e-08
2.60505e-07
1.91717e-08
2.60579e-07
1.85112e-08
2.60639e-07
1.78913e-08
2.60684e-07
1.73073e-08
2.60715e-07
1.6755e-08
2.60732e-07
1.6231e-08
2.60734e-07
1.5732e-08
2.60722e-07
1.52551e-08
2.60695e-07
1.47977e-08
2.60655e-07
1.43571e-08
2.60601e-07
1.3931e-08
2.60535e-07
1.35171e-08
2.60456e-07
1.31127e-08
2.60367e-07
1.27156e-08
2.60266e-07
1.23227e-08
2.60157e-07
1.19317e-08
2.60039e-07
1.15382e-08
2.59914e-07
1.114e-08
2.59783e-07
1.07299e-08
2.59648e-07
1.03065e-08
2.59511e-07
9.85729e-09
2.59374e-07
9.38204e-09
2.59238e-07
8.86024e-09
2.59108e-07
8.28962e-09
2.58982e-07
7.64386e-09
2.58869e-07
6.89992e-09
2.58768e-07
6.04537e-09
2.58679e-07
4.97815e-09
2.58612e-07
3.75231e-09
2.58526e-07
2.09279e-09
2.58444e-07
2.06609e-10
-2.22981e-09
2.58246e-07
2.58767e-07
4.86067e-08
2.6183e-07
6.77327e-08
2.63119e-07
5.22264e-08
2.6421e-07
4.47254e-08
2.64956e-07
4.15973e-08
2.65394e-07
3.78975e-08
2.65737e-07
3.44693e-08
2.66048e-07
3.19383e-08
2.66317e-07
2.9956e-08
2.66551e-07
2.82417e-08
2.66759e-07
2.67306e-08
2.66949e-07
2.54013e-08
2.67123e-07
2.42217e-08
2.67284e-07
2.31616e-08
2.67433e-07
2.21993e-08
2.67572e-07
2.13189e-08
2.677e-07
2.05086e-08
2.6782e-07
1.97585e-08
2.67931e-07
1.90609e-08
2.68033e-07
1.84092e-08
2.68126e-07
1.7798e-08
2.68211e-07
1.72227e-08
2.68286e-07
1.66793e-08
2.68353e-07
1.61642e-08
2.68411e-07
1.56742e-08
2.6846e-07
1.52063e-08
2.685e-07
1.47579e-08
2.6853e-07
1.43262e-08
2.68553e-07
1.39088e-08
2.68566e-07
1.35033e-08
2.68572e-07
1.31071e-08
2.6857e-07
1.27177e-08
2.6856e-07
1.23321e-08
2.68545e-07
1.19476e-08
2.68523e-07
1.156e-08
2.68496e-07
1.11667e-08
2.68465e-07
1.07608e-08
2.68431e-07
1.034e-08
2.68396e-07
9.89284e-09
2.68361e-07
9.41698e-09
2.68326e-07
8.89474e-09
2.68297e-07
8.31937e-09
2.68271e-07
7.67003e-09
2.68253e-07
6.9174e-09
2.68244e-07
6.05426e-09
2.68241e-07
4.98118e-09
2.68251e-07
3.74208e-09
2.68235e-07
2.10948e-09
2.68204e-07
2.37221e-10
-2.09183e-09
2.68066e-07
2.66279e-07
4.43199e-08
2.6935e-07
6.46622e-08
2.70616e-07
5.09603e-08
2.71695e-07
4.36463e-08
2.72474e-07
4.0818e-08
2.72934e-07
3.74372e-08
2.73286e-07
3.41176e-08
2.73603e-07
3.16216e-08
2.73878e-07
2.96804e-08
2.74116e-07
2.80038e-08
2.74327e-07
2.65192e-08
2.7452e-07
2.5209e-08
2.74696e-07
2.40452e-08
2.74859e-07
2.29985e-08
2.75011e-07
2.20474e-08
2.75153e-07
2.11768e-08
2.75287e-07
2.03749e-08
2.75413e-07
1.96325e-08
2.75532e-07
1.89418e-08
2.75645e-07
1.82966e-08
2.75751e-07
1.76915e-08
2.75852e-07
1.71221e-08
2.75947e-07
1.65844e-08
2.76036e-07
1.6075e-08
2.7612e-07
1.55905e-08
2.76198e-07
1.51282e-08
2.7627e-07
1.46851e-08
2.76338e-07
1.42588e-08
2.764e-07
1.38467e-08
2.76457e-07
1.34463e-08
2.76509e-07
1.30549e-08
2.76557e-07
1.267e-08
2.766e-07
1.22886e-08
2.7664e-07
1.19079e-08
2.76677e-07
1.15235e-08
2.76711e-07
1.11328e-08
2.76742e-07
1.07289e-08
2.76774e-07
1.03089e-08
2.76804e-07
9.86216e-09
2.76837e-07
9.38463e-09
2.7687e-07
8.861e-09
2.76909e-07
8.28095e-09
2.76951e-07
7.62784e-09
2.77e-07
6.86854e-09
2.77056e-07
5.99825e-09
2.77113e-07
4.92387e-09
2.77177e-07
3.67798e-09
2.7721e-07
2.07654e-09
2.77216e-07
2.31353e-10
-1.99875e-09
2.77123e-07
2.74034e-07
4.03273e-08
2.77101e-07
6.15953e-08
2.78354e-07
4.97066e-08
2.79418e-07
4.25826e-08
2.80226e-07
4.001e-08
2.80711e-07
3.69521e-08
2.81072e-07
3.37573e-08
2.81394e-07
3.12988e-08
2.81676e-07
2.93983e-08
2.81919e-07
2.7761e-08
2.82134e-07
2.63043e-08
2.82329e-07
2.50142e-08
2.82507e-07
2.38666e-08
2.82672e-07
2.28335e-08
2.82826e-07
2.1894e-08
2.82969e-07
2.10331e-08
2.83105e-07
2.02395e-08
2.83233e-07
1.95043e-08
2.83355e-07
1.882e-08
2.83471e-07
1.81804e-08
2.83582e-07
1.75804e-08
2.83689e-07
1.70157e-08
2.83791e-07
1.64823e-08
2.83889e-07
1.59769e-08
2.83983e-07
1.54963e-08
2.84073e-07
1.50376e-08
2.84161e-07
1.4598e-08
2.84244e-07
1.4175e-08
2.84325e-07
1.3766e-08
2.84403e-07
1.33684e-08
2.84478e-07
1.29797e-08
2.84551e-07
1.25972e-08
2.84622e-07
1.22178e-08
2.84691e-07
1.18387e-08
2.84759e-07
1.14556e-08
2.84826e-07
1.10654e-08
2.84894e-07
1.06616e-08
2.84962e-07
1.02407e-08
2.85031e-07
9.79288e-09
2.85103e-07
9.31249e-09
2.85178e-07
8.78627e-09
2.85258e-07
8.20126e-09
2.85342e-07
7.54373e-09
2.85431e-07
6.77888e-09
2.85527e-07
5.90226e-09
2.85622e-07
4.82941e-09
2.85718e-07
3.5818e-09
2.85781e-07
2.01334e-09
2.85809e-07
2.04033e-10
-1.93464e-09
2.85744e-07
2.82041e-07
3.66241e-08
2.85093e-07
5.85431e-08
2.86344e-07
4.84556e-08
2.87389e-07
4.15371e-08
2.88222e-07
3.91777e-08
2.88733e-07
3.6441e-08
2.89103e-07
3.3387e-08
2.89432e-07
3.09702e-08
2.8972e-07
2.91097e-08
2.89968e-07
2.75129e-08
2.90187e-07
2.60858e-08
2.90385e-07
2.48166e-08
2.90565e-07
2.36857e-08
2.90732e-07
2.26668e-08
2.90887e-07
2.17391e-08
2.91032e-07
2.08881e-08
2.91168e-07
2.01031e-08
2.91298e-07
1.93751e-08
2.91421e-07
1.86971e-08
2.91538e-07
1.80629e-08
2.91651e-07
1.74678e-08
2.91759e-07
1.69073e-08
2.91864e-07
1.63778e-08
2.91965e-07
1.58758e-08
2.92063e-07
1.53984e-08
2.92158e-07
1.49425e-08
2.92251e-07
1.45054e-08
2.92341e-07
1.40847e-08
2.92429e-07
1.36776e-08
2.92516e-07
1.32818e-08
2.92601e-07
1.28945e-08
2.92685e-07
1.25131e-08
2.92768e-07
1.21345e-08
2.92851e-07
1.17557e-08
2.92934e-07
1.13725e-08
2.93018e-07
1.09815e-08
2.93103e-07
1.05767e-08
2.9319e-07
1.01537e-08
2.9328e-07
9.7036e-09
2.93373e-07
9.2195e-09
2.93469e-07
8.68971e-09
2.93571e-07
8.09952e-09
2.93678e-07
7.43703e-09
2.93789e-07
6.66743e-09
2.93906e-07
5.78529e-09
2.9402e-07
4.71585e-09
2.94131e-07
3.47077e-09
2.94208e-07
1.93583e-09
2.94244e-07
1.6811e-10
-1.88549e-09
2.94195e-07
2.90309e-07
3.32039e-08
2.93335e-07
5.55167e-08
2.94593e-07
4.71986e-08
2.95618e-07
4.05118e-08
2.9647e-07
3.83259e-08
2.97008e-07
3.59028e-08
2.97389e-07
3.30057e-08
2.97724e-07
3.06357e-08
2.98019e-07
2.88146e-08
2.98272e-07
2.72591e-08
2.98495e-07
2.58632e-08
2.98696e-07
2.4616e-08
2.98879e-07
2.35024e-08
2.99048e-07
2.2498e-08
2.99204e-07
2.15825e-08
2.9935e-07
2.07419e-08
2.99488e-07
1.99655e-08
2.99618e-07
1.9245e-08
2.99742e-07
1.85733e-08
2.9986e-07
1.79447e-08
2.99973e-07
1.73544e-08
3.00083e-07
1.67982e-08
3.00188e-07
1.62724e-08
3.0029e-07
1.57737e-08
3.00389e-07
1.52991e-08
3.00486e-07
1.48458e-08
3.00581e-07
1.4411e-08
3.00673e-07
1.39921e-08
3.00764e-07
1.35866e-08
3.00854e-07
1.3192e-08
3.00943e-07
1.28055e-08
3.01031e-07
1.24247e-08
3.0112e-07
1.20461e-08
3.01209e-07
1.16669e-08
3.01298e-07
1.1283e-08
3.01389e-07
1.08906e-08
3.01482e-07
1.0484e-08
3.01577e-07
1.00583e-08
3.01675e-07
9.60525e-09
3.01778e-07
9.11704e-09
3.01884e-07
8.58314e-09
3.01996e-07
7.98781e-09
3.02113e-07
7.32017e-09
3.02234e-07
6.54661e-09
3.02359e-07
5.66002e-09
3.02479e-07
4.59548e-09
3.02594e-07
3.35668e-09
3.02674e-07
1.85537e-09
3.02709e-07
1.32883e-10
-1.84077e-09
3.02665e-07
2.98848e-07
3.00584e-08
3.01837e-07
5.25273e-08
3.03108e-07
4.59276e-08
3.04112e-07
3.95081e-08
3.04978e-07
3.746e-08
3.05544e-07
3.5337e-08
3.05938e-07
3.26117e-08
3.06278e-07
3.02952e-08
3.0658e-07
2.85129e-08
3.0684e-07
2.69993e-08
3.07067e-07
2.56363e-08
3.07271e-07
2.44122e-08
3.07457e-07
2.33165e-08
3.07627e-07
2.23271e-08
3.07786e-07
2.14242e-08
3.07933e-07
2.05942e-08
3.08072e-07
1.98268e-08
3.08203e-07
1.91139e-08
3.08328e-07
1.84488e-08
3.08447e-07
1.78259e-08
3.08561e-07
1.72405e-08
3.0867e-07
1.66885e-08
3.08776e-07
1.61665e-08
3.08879e-07
1.56711e-08
3.08978e-07
1.51994e-08
3.09076e-07
1.47486e-08
3.09171e-07
1.43159e-08
3.09264e-07
1.38988e-08
3.09356e-07
1.34947e-08
3.09447e-07
1.31011e-08
3.09537e-07
1.27153e-08
3.09627e-07
1.23347e-08
3.09717e-07
1.1956e-08
3.09808e-07
1.15762e-08
3.099e-07
1.11912e-08
3.09993e-07
1.07971e-08
3.10089e-07
1.03884e-08
3.10187e-07
9.95974e-09
3.10289e-07
9.50353e-09
3.10395e-07
9.01116e-09
3.10505e-07
8.47297e-09
3.1062e-07
7.87284e-09
3.1074e-07
7.20026e-09
3.10863e-07
6.42365e-09
3.10989e-07
5.53399e-09
3.11109e-07
4.47572e-09
3.11219e-07
3.24663e-09
3.11295e-07
1.77907e-09
3.11324e-07
1.04153e-10
-1.79344e-09
3.11277e-07
3.07668e-07
2.7178e-08
3.10609e-07
4.95862e-08
3.11901e-07
4.46357e-08
3.12882e-07
3.85265e-08
3.13757e-07
3.65853e-08
3.14351e-07
3.47436e-08
3.14759e-07
3.22037e-08
3.15105e-07
2.99486e-08
3.15414e-07
2.82046e-08
3.1568e-07
2.67332e-08
3.15911e-07
2.54046e-08
3.16119e-07
2.42049e-08
3.16307e-07
2.31277e-08
3.16481e-07
2.21537e-08
3.16641e-07
2.1264e-08
3.1679e-07
2.04449e-08
3.1693e-07
1.96867e-08
3.17062e-07
1.89817e-08
3.17188e-07
1.83233e-08
3.17308e-07
1.77062e-08
3.17422e-07
1.71259e-08
3.17532e-07
1.65783e-08
3.17639e-07
1.60601e-08
3.17742e-07
1.55681e-08
3.17842e-07
1.50994e-08
3.17939e-07
1.4651e-08
3.18035e-07
1.42205e-08
3.18128e-07
1.38051e-08
3.18221e-07
1.34024e-08
3.18312e-07
1.30099e-08
3.18402e-07
1.26247e-08
3.18493e-07
1.22443e-08
3.18583e-07
1.18654e-08
3.18675e-07
1.14849e-08
3.18767e-07
1.10987e-08
3.18861e-07
1.07029e-08
3.18958e-07
1.0292e-08
3.19057e-07
9.8605e-09
3.19159e-07
9.40106e-09
3.19266e-07
8.90474e-09
3.19376e-07
8.36238e-09
3.19491e-07
7.75796e-09
3.19611e-07
7.08099e-09
3.19732e-07
6.30232e-09
3.19855e-07
5.41126e-09
3.1997e-07
4.36066e-09
3.20072e-07
3.14443e-09
3.2014e-07
1.71092e-09
3.20159e-07
8.50962e-11
-1.73932e-09
3.20105e-07
3.16778e-07
2.45514e-08
3.1966e-07
4.67044e-08
3.20978e-07
4.33175e-08
3.21938e-07
3.75664e-08
3.22817e-07
3.57066e-08
3.23437e-07
3.41234e-08
3.23861e-07
3.17799e-08
3.24214e-07
2.95955e-08
3.24528e-07
2.78899e-08
3.24801e-07
2.64606e-08
3.25038e-07
2.51679e-08
3.25249e-07
2.39937e-08
3.25441e-07
2.29358e-08
3.25617e-07
2.19778e-08
3.25779e-07
2.11016e-08
3.2593e-07
2.02938e-08
3.26072e-07
1.95452e-08
3.26205e-07
1.88482e-08
3.26332e-07
1.81968e-08
3.26452e-07
1.75857e-08
3.26568e-07
1.70105e-08
3.26678e-07
1.64675e-08
3.26785e-07
1.59533e-08
3.26889e-07
1.54647e-08
3.26989e-07
1.49989e-08
3.27087e-07
1.45532e-08
3.27183e-07
1.41248e-08
3.27277e-07
1.37113e-08
3.27369e-07
1.331e-08
3.2746e-07
1.29185e-08
3.27551e-07
1.2534e-08
3.27642e-07
1.21538e-08
3.27732e-07
1.17747e-08
3.27824e-07
1.13936e-08
3.27916e-07
1.10063e-08
3.2801e-07
1.06088e-08
3.28106e-07
1.01958e-08
3.28205e-07
9.76151e-09
3.28307e-07
9.29897e-09
3.28413e-07
8.79902e-09
3.28523e-07
8.2528e-09
3.28636e-07
7.64472e-09
3.28753e-07
6.96414e-09
3.28871e-07
6.18451e-09
3.28988e-07
5.29384e-09
3.29096e-07
4.25238e-09
3.29189e-07
3.05188e-09
3.29247e-07
1.65297e-09
3.29255e-07
7.7231e-11
-1.67605e-09
3.29191e-07
3.26188e-07
2.21659e-08
3.29e-07
4.38927e-08
3.30349e-07
4.19686e-08
3.31288e-07
3.66268e-08
3.32166e-07
3.48288e-08
3.32811e-07
3.3478e-08
3.33252e-07
3.13391e-08
3.33612e-07
2.92353e-08
3.33934e-07
2.75688e-08
3.34213e-07
2.61812e-08
3.34455e-07
2.49258e-08
3.3467e-07
2.37786e-08
3.34866e-07
2.27407e-08
3.35044e-07
2.17991e-08
3.35209e-07
2.09368e-08
3.35362e-07
2.01408e-08
3.35505e-07
1.94019e-08
3.3564e-07
1.87133e-08
3.35768e-07
1.8069e-08
3.35889e-07
1.74641e-08
3.36006e-07
1.68942e-08
3.36117e-07
1.63559e-08
3.36225e-07
1.58457e-08
3.36329e-07
1.53607e-08
3.3643e-07
1.4898e-08
3.36528e-07
1.44549e-08
3.36624e-07
1.40288e-08
3.36718e-07
1.36172e-08
3.36811e-07
1.32174e-08
3.36902e-07
1.2827e-08
3.36993e-07
1.24432e-08