/*--------------------------------*- C++ -*----------------------------------*\
  =========                 |
  \\      /  F ield         | OpenFOAM: The Open Source CFD Toolbox
   \\    /   O peration     | Website:  https://openfoam.org
    \\  /    A nd           | Version:  7
     \\/     M anipulation  |
\*---------------------------------------------------------------------------*/
FoamFile
{
    version     2.0;
    format      ascii;
    class       volVectorField;
    location    "0.39";
    object      U;
}
// * * * * * * * * * * * * * * * * * * * * * * * * * * * * * * * * * * * * * //

dimensions      [0 1 -1 0 0 0 0];

internalField   nonuniform List<vector> 
70000
(
(0.553416 0.016978 0)
(0.25143 0.00340025 0)
(0.165952 0.000318811 0)
(0.13248 4.889e-05 0)
(0.117385 4.39458e-05 0)
(0.107436 5.21133e-05 0)
(0.0994734 4.43127e-05 0)
(0.0930376 3.52332e-05 0)
(0.0878008 2.91911e-05 0)
(0.0834386 2.50478e-05 0)
(0.0797229 2.18793e-05 0)
(0.076506 1.93372e-05 0)
(0.0736869 1.72619e-05 0)
(0.0711916 1.55444e-05 0)
(0.068964 1.41036e-05 0)
(0.0669609 1.28793e-05 0)
(0.0651483 1.18267e-05 0)
(0.063499 1.09119e-05 0)
(0.0619911 1.01088e-05 0)
(0.0606067 9.39729e-06 0)
(0.059331 8.76123e-06 0)
(0.0581515 8.18771e-06 0)
(0.057058 7.66603e-06 0)
(0.0560416 7.18741e-06 0)
(0.0550949 6.74398e-06 0)
(0.0542116 6.32936e-06 0)
(0.0533862 5.93676e-06 0)
(0.0526142 5.56163e-06 0)
(0.0518918 5.19659e-06 0)
(0.0512156 4.83933e-06 0)
(0.0505833 4.47937e-06 0)
(0.0499924 4.11843e-06 0)
(0.0494417 3.73876e-06 0)
(0.0489298 3.34934e-06 0)
(0.0484566 2.91999e-06 0)
(0.048022 2.4678e-06 0)
(0.0476264 1.9528e-06 0)
(0.0472726 1.37686e-06 0)
(0.0469595 7.436e-07 0)
(0.0466984 -9.63501e-08 0)
(0.0464777 -8.23281e-07 0)
(0.0463355 -2.30622e-06 0)
(0.0462205 -2.86661e-06 0)
(0.0462545 -6.07936e-06 0)
(0.0462558 -5.5161e-06 0)
(0.0465927 -1.32804e-05 0)
(0.0467081 -7.47641e-06 0)
(0.0475944 -2.89826e-05 0)
(0.0481479 1.69712e-05 0)
(0.04581 -0.00184765 0)
(0.884864 0.0434926 0)
(0.650169 0.0201478 0)
(0.494027 0.00660347 0)
(0.403631 0.00275376 0)
(0.354941 0.00154712 0)
(0.323643 0.00113098 0)
(0.299756 0.000908687 0)
(0.280558 0.000744206 0)
(0.264852 0.000621609 0)
(0.251737 0.000531216 0)
(0.24056 0.000462603 0)
(0.230881 0.000408609 0)
(0.222395 0.000364977 0)
(0.214877 0.000329051 0)
(0.208162 0.000299025 0)
(0.202119 0.000273601 0)
(0.196646 0.000251825 0)
(0.191661 0.000232981 0)
(0.187101 0.000216524 0)
(0.182909 0.000202032 0)
(0.179043 0.000189172 0)
(0.175463 0.000177679 0)
(0.172141 0.000167336 0)
(0.169047 0.000157966 0)
(0.166161 0.000149417 0)
(0.163463 0.000141564 0)
(0.160936 0.000134293 0)
(0.158566 0.000127508 0)
(0.156341 0.000121115 0)
(0.154251 0.000115036 0)
(0.152286 0.000109178 0)
(0.150441 0.00010348 0)
(0.148709 9.78243e-05 0)
(0.147086 9.2176e-05 0)
(0.14557 8.63455e-05 0)
(0.144158 8.03542e-05 0)
(0.14285 7.38634e-05 0)
(0.141652 6.69978e-05 0)
(0.140559 5.91727e-05 0)
(0.139597 5.05954e-05 0)
(0.138734 4.04868e-05 0)
(0.138067 2.86153e-05 0)
(0.137457 1.50356e-05 0)
(0.137217 -3.67047e-06 0)
(0.136867 -2.1365e-05 0)
(0.137356 -5.82552e-05 0)
(0.137237 -7.50762e-05 0)
(0.139012 -0.000193925 0)
(0.139771 4.87575e-05 0)
(0.139127 -0.00337924 0)
(0.991209 0.0499543 0)
(0.890943 0.0305601 0)
(0.762545 0.0146077 0)
(0.656623 0.00796839 0)
(0.585546 0.00487778 0)
(0.536195 0.00347322 0)
(0.498314 0.00273748 0)
(0.46769 0.00224359 0)
(0.442376 0.00188024 0)
(0.421064 0.00160899 0)
(0.402805 0.00140193 0)
(0.386931 0.00123899 0)
(0.372968 0.00110742 0)
(0.360568 0.000999108 0)
(0.349463 0.000908574 0)
(0.33945 0.000831909 0)
(0.330365 0.000766244 0)
(0.322078 0.00070943 0)
(0.314484 0.000659831 0)
(0.307494 0.000616179 0)
(0.301037 0.000577476 0)
(0.295052 0.000542925 0)
(0.289488 0.000511881 0)
(0.284302 0.00048381 0)
(0.279455 0.000458267 0)
(0.274917 0.000434873 0)
(0.27066 0.000413302 0)
(0.26666 0.000393267 0)
(0.262897 0.000374506 0)
(0.259354 0.000356788 0)
(0.256015 0.00033987 0)
(0.252868 0.000323562 0)
(0.249902 0.000307577 0)
(0.24711 0.000291784 0)
(0.244486 0.000275735 0)
(0.242025 0.000259444 0)
(0.239725 0.000242064 0)
(0.237591 0.000223978 0)
(0.235615 0.000203461 0)
(0.233832 0.000181705 0)
(0.232193 0.000155281 0)
(0.230835 0.000126715 0)
(0.229553 9.00886e-05 0)
(0.228796 4.83175e-05 0)
(0.227869 -3.94825e-06 0)
(0.228112 -7.97276e-05 0)
(0.227489 -0.000144082 0)
(0.229454 -0.000390295 0)
(0.229737 -0.00015091 0)
(0.231763 -0.00384331 0)
(1.01554 0.0489519 0)
(1.00651 0.0357201 0)
(0.935933 0.0208143 0)
(0.852097 0.0134941 0)
(0.782357 0.00919476 0)
(0.727234 0.00678122 0)
(0.682161 0.00538599 0)
(0.644406 0.0044456 0)
(0.61239 0.00375172 0)
(0.584918 0.00322658 0)
(0.561052 0.0028211 0)
(0.540086 0.00249989 0)
(0.521492 0.00223943 0)
(0.504866 0.00202429 0)
(0.489895 0.00184394 0)
(0.476332 0.00169085 0)
(0.463976 0.00155945 0)
(0.452666 0.00144559 0)
(0.442268 0.00134605 0)
(0.432673 0.00125836 0)
(0.423786 0.00118056 0)
(0.41553 0.00111109 0)
(0.407838 0.00104866 0)
(0.400653 0.000992226 0)
(0.393926 0.000940915 0)
(0.387615 0.000893979 0)
(0.381684 0.000850778 0)
(0.3761 0.000810751 0)
(0.370836 0.000773392 0)
(0.365869 0.000738251 0)
(0.361177 0.000704877 0)
(0.356743 0.000672894 0)
(0.352553 0.000641793 0)
(0.348594 0.000611302 0)
(0.344857 0.000580648 0)
(0.341335 0.000549818 0)
(0.338022 0.000517318 0)
(0.334924 0.000483891 0)
(0.332027 0.00044625 0)
(0.329372 0.000407128 0)
(0.326899 0.000359092 0)
(0.324764 0.000309507 0)
(0.32273 0.000242212 0)
(0.321307 0.000173092 0)
(0.319704 7.26554e-05 0)
(0.319425 -4.3561e-05 0)
(0.318209 -0.000178121 0)
(0.319851 -0.000543056 0)
(0.319483 -0.000430304 0)
(0.322621 -0.0039651 0)
(1.01435 0.046096 0)
(1.04799 0.0373359 0)
(1.0246 0.0241799 0)
(0.974753 0.017551 0)
(0.923594 0.0131039 0)
(0.876898 0.0102019 0)
(0.83476 0.00834334 0)
(0.797028 0.00702193 0)
(0.763478 0.0060123 0)
(0.733667 0.0052259 0)
(0.707081 0.00460515 0)
(0.68325 0.0041056 0)
(0.661775 0.00369579 0)
(0.642325 0.00335421 0)
(0.624626 0.00306573 0)
(0.608447 0.00281934 0)
(0.593597 0.00260679 0)
(0.579915 0.0024218 0)
(0.567265 0.00225951 0)
(0.555533 0.0021161 0)
(0.54462 0.00198853 0)
(0.534441 0.00187437 0)
(0.524924 0.00177162 0)
(0.516006 0.00167862 0)
(0.507631 0.001594 0)
(0.499751 0.00151656 0)
(0.492326 0.00144529 0)
(0.485318 0.0013793 0)
(0.478695 0.0013178 0)
(0.472429 0.00126007 0)
(0.466496 0.00120541 0)
(0.460875 0.00115322 0)
(0.455547 0.00110273 0)
(0.450498 0.0010535 0)
(0.445716 0.00100439 0)
(0.441191 0.000955336 0)
(0.436916 0.000904129 0)
(0.432893 0.000851894 0)
(0.429108 0.000793602 0)
(0.4256 0.000733737 0)
(0.422308 0.000660312 0)
(0.419386 0.00058628 0)
(0.416601 0.000483856 0)
(0.414454 0.000383569 0)
(0.412174 0.000229968 0)
(0.411218 6.60455e-05 0)
(0.409437 -0.000146163 0)
(0.410401 -0.000623494 0)
(0.409557 -0.000694278 0)
(0.41234 -0.00402951 0)
(1.00941 0.0430454 0)
(1.05564 0.0370904 0)
(1.0587 0.0253196 0)
(1.03636 0.0197537 0)
(1.00722 0.0157898 0)
(0.976245 0.0129278 0)
(0.944749 0.0109584 0)
(0.913906 0.00947709 0)
(0.88457 0.00828756 0)
(0.857122 0.00732158 0)
(0.831641 0.00653357 0)
(0.808062 0.00588311 0)
(0.786264 0.00533873 0)
(0.766107 0.00487765 0)
(0.747444 0.0044831 0)
(0.730134 0.00414243 0)
(0.71405 0.00384584 0)
(0.699073 0.00358569 0)
(0.685099 0.00335593 0)
(0.672033 0.00315174 0)
(0.659792 0.00296922 0)
(0.648304 0.00280517 0)
(0.637501 0.00265698 0)
(0.627325 0.00252244 0)
(0.617726 0.00239969 0)
(0.608656 0.00228713 0)
(0.600075 0.00218338 0)
(0.591947 0.00208722 0)
(0.584239 0.00199757 0)
(0.576923 0.00191342 0)
(0.569974 0.00183383 0)
(0.563369 0.00175797 0)
(0.557091 0.00168479 0)
(0.551121 0.00161366 0)
(0.545449 0.00154308 0)
(0.540061 0.00147288 0)
(0.534951 0.00140018 0)
(0.530119 0.00132639 0)
(0.525551 0.00124482 0)
(0.521281 0.00116151 0)
(0.517257 0.0010602 0)
(0.513613 0.000958792 0)
(0.510147 0.000819043 0)
(0.507301 0.000683614 0)
(0.504411 0.000475944 0)
(0.502736 0.000256121 0)
(0.500472 -3.40621e-05 0)
(0.500589 -0.000625469 0)
(0.49943 -0.000884578 0)
(0.501274 -0.00403145 0)
(1.00635 0.0401772 0)
(1.05242 0.036143 0)
(1.06608 0.0252418 0)
(1.05958 0.0205569 0)
(1.04697 0.0172147 0)
(1.03096 0.0146439 0)
(1.0121 0.0128155 0)
(0.99144 0.011392 0)
(0.970055 0.0101967 0)
(0.948668 0.00918342 0)
(0.92772 0.00832587 0)
(0.907474 0.00759581 0)
(0.888077 0.00696873 0)
(0.869598 0.0064258 0)
(0.852056 0.00595252 0)
(0.835439 0.00553735 0)
(0.819715 0.005171 0)
(0.804844 0.00484589 0)
(0.790779 0.00455585 0)
(0.77747 0.00429581 0)
(0.76487 0.00406156 0)
(0.752932 0.0038496 0)
(0.741612 0.00365698 0)
(0.73087 0.00348119 0)
(0.720666 0.00332005 0)
(0.710966 0.00317171 0)
(0.701736 0.00303451 0)
(0.692948 0.00290698 0)
(0.684574 0.00278781 0)
(0.676589 0.00267577 0)
(0.668973 0.00256971 0)
(0.661706 0.00246855 0)
(0.65477 0.00237106 0)
(0.648151 0.00227636 0)
(0.641837 0.00218266 0)
(0.635817 0.00208966 0)
(0.630086 0.00199385 0)
(0.624641 0.00189683 0)
(0.619474 0.00179048 0)
(0.614608 0.00168194 0)
(0.610007 0.0015515 0)
(0.60578 0.00142047 0)
(0.601767 0.00124301 0)
(0.598329 0.00106874 0)
(0.594944 0.000808809 0)
(0.592613 0.000527322 0)
(0.589963 0.000160644 0)
(0.58925 -0.000545077 0)
(0.587819 -0.000987197 0)
(0.588686 -0.0039476 0)
(1.00506 0.0374998 0)
(1.04763 0.0350441 0)
(1.06398 0.0246933 0)
(1.06423 0.0205865 0)
(1.06077 0.0177511 0)
(1.05489 0.0154829 0)
(1.04617 0.01387 0)
(1.03501 0.0126121 0)
(1.02213 0.0115282 0)
(1.00813 0.0105786 0)
(0.993457 0.00974939 0)
(0.978474 0.0090227 0)
(0.963443 0.00838165 0)
(0.948557 0.00781309 0)
(0.933953 0.00730669 0)
(0.919722 0.00685395 0)
(0.905924 0.00644767 0)
(0.892593 0.00608174 0)
(0.879747 0.00575096 0)
(0.867392 0.00545091 0)
(0.855523 0.0051778 0)
(0.844131 0.00492837 0)
(0.833203 0.0046998 0)
(0.822723 0.00448963 0)
(0.812673 0.0042957 0)
(0.803037 0.00411609 0)
(0.793797 0.00394907 0)
(0.784934 0.00379309 0)
(0.776433 0.00364672 0)
(0.768278 0.00350861 0)
(0.760455 0.00337747 0)
(0.75295 0.00325209 0)
(0.745752 0.00313105 0)
(0.738848 0.00301333 0)
(0.732234 0.00289687 0)
(0.725899 0.00278123 0)
(0.719841 0.0026624 0)
(0.714058 0.00254202 0)
(0.708547 0.00241089 0)
(0.703325 0.00227666 0)
(0.698371 0.00211733 0)
(0.693766 0.00195562 0)
(0.689399 0.00174161 0)
(0.685545 0.00152607 0)
(0.681826 0.00121731 0)
(0.678992 0.000869937 0)
(0.676066 0.000431336 0)
(0.67467 -0.000383426 0)
(0.672983 -0.00100205 0)
(0.673009 -0.0037808 0)
(1.00451 0.0349637 0)
(1.0436 0.0339636 0)
(1.05995 0.0240415 0)
(1.06227 0.0202958 0)
(1.06258 0.0178143 0)
(1.06195 0.0157605 0)
(1.05941 0.0143214 0)
(1.05489 0.0132294 0)
(1.04871 0.0122881 0)
(1.04117 0.011451 0)
(1.03255 0.0107068 0)
(1.02311 0.0100417 0)
(1.01307 0.00944258 0)
(1.00263 0.00889996 0)
(0.991955 0.00840682 0)
(0.981173 0.00795751 0)
(0.970388 0.00754718 0)
(0.959681 0.00717159 0)
(0.949112 0.00682704 0)
(0.938729 0.00651026 0)
(0.928563 0.00621837 0)
(0.918639 0.00594879 0)
(0.908973 0.00569922 0)
(0.899574 0.00546759 0)
(0.890448 0.00525202 0)
(0.881597 0.00505078 0)
(0.873021 0.00486232 0)
(0.864717 0.00468514 0)
(0.856681 0.00451787 0)
(0.84891 0.00435917 0)
(0.841399 0.00420772 0)
(0.834143 0.00406228 0)
(0.827139 0.00392133 0)
(0.82038 0.00378376 0)
(0.813866 0.00364731 0)
(0.807594 0.00351145 0)
(0.801564 0.00337181 0)
(0.795777 0.00322989 0)
(0.790235 0.00307585 0)
(0.784953 0.00291724 0)
(0.779921 0.00273093 0)
(0.775201 0.0025392 0)
(0.770721 0.00229128 0)
(0.766683 0.00203415 0)
(0.762832 0.00168075 0)
(0.759706 0.00126734 0)
(0.756649 0.000760983 0)
(0.754777 -0.000155095 0)
(0.752892 -0.000936446 0)
(0.752257 -0.00354502 0)
(1.00412 0.0325328 0)
(1.04027 0.0329096 0)
(1.05619 0.023406 0)
(1.05891 0.0199101 0)
(1.06031 0.0176838 0)
(1.06172 0.0157613 0)
(1.06212 0.0144236 0)
(1.06125 0.0134469 0)
(1.05923 0.0126217 0)
(1.05614 0.0118907 0)
(1.05208 0.0112399 0)
(1.04716 0.0106552 0)
(1.0415 0.0101235 0)
(1.03523 0.00963588 0)
(1.02847 0.00918645 0)
(1.02133 0.00877091 0)
(1.0139 0.00838577 0)
(1.00627 0.00802812 0)
(0.998513 0.00769544 0)
(0.990682 0.00738551 0)
(0.982831 0.00709634 0)
(0.975001 0.00682612 0)
(0.967226 0.0065732 0)
(0.959533 0.00633602 0)
(0.951944 0.00611315 0)
(0.944477 0.0059032 0)
(0.937145 0.00570489 0)
(0.929959 0.00551695 0)
(0.922928 0.00533818 0)
(0.916057 0.00516736 0)
(0.909353 0.00500325 0)
(0.902818 0.00484463 0)
(0.896458 0.00469 0)
(0.890274 0.0045382 0)
(0.88427 0.00438692 0)
(0.87845 0.00423548 0)
(0.872819 0.00407932 0)
(0.867381 0.00391975 0)
(0.862144 0.00374655 0)
(0.857121 0.00356679 0)
(0.852312 0.00335712 0)
(0.847765 0.00313797 0)
(0.843438 0.00286026 0)
(0.83948 0.00256368 0)
(0.835725 0.00217063 0)
(0.83255 0.00169494 0)
(0.829538 0.00112481 0)
(0.827424 0.000125457 0)
(0.825449 -0.000804575 0)
(0.824357 -0.00325843 0)
(1.00374 0.0301983 0)
(1.03728 0.0318598 0)
(1.05285 0.0228016 0)
(1.05567 0.0195067 0)
(1.05722 0.0174919 0)
(1.05918 0.0156579 0)
(1.06065 0.0143677 0)
(1.06137 0.0134545 0)
(1.06141 0.0127028 0)
(1.06079 0.0120461 0)
(1.05951 0.0114678 0)
(1.05759 0.0109525 0)
(1.05506 0.0104854 0)
(1.05197 0.0100566 0)
(1.04837 0.0096596 0)
(1.04433 0.00929007 0)
(1.0399 0.00894469 0)
(1.03515 0.00862091 0)
(1.03013 0.00831669 0)
(1.0249 0.00803032 0)
(1.01949 0.00776034 0)
(1.01395 0.00750545 0)
(1.00832 0.00726446 0)
(1.00263 0.00703624 0)
(0.9969 0.00681974 0)
(0.991162 0.00661391 0)
(0.985434 0.00641775 0)
(0.979735 0.00623023 0)
(0.974081 0.00605035 0)
(0.968485 0.00587705 0)
(0.96296 0.00570922 0)
(0.957515 0.00554574 0)
(0.952161 0.00538514 0)
(0.946906 0.00522629 0)
(0.941759 0.00506683 0)
(0.936728 0.00490603 0)
(0.931822 0.0047392 0)
(0.927051 0.0045674 0)
(0.922424 0.00438033 0)
(0.917956 0.00418423 0)
(0.913654 0.00395628 0)
(0.909557 0.00371407 0)
(0.905642 0.00341196 0)
(0.902019 0.00308027 0)
(0.898589 0.00265353 0)
(0.895607 0.00212237 0)
(0.892825 0.00149412 0)
(0.890704 0.000432728 0)
(0.888777 -0.000627871 0)
(0.887439 -0.00294311 0)
(1.00337 0.0279625 0)
(1.03444 0.0308019 0)
(1.04975 0.022222 0)
(1.05271 0.0191005 0)
(1.05422 0.0172814 0)
(1.05623 0.0155254 0)
(1.05797 0.0142571 0)
(1.05922 0.0133746 0)
(1.06007 0.0126636 0)
(1.06056 0.0120501 0)
(1.06068 0.011517 0)
(1.0604 0.0110483 0)
(1.05971 0.0106286 0)
(1.05863 0.0102464 0)
(1.05716 0.00989435 0)
(1.05532 0.00956738 0)
(1.05314 0.0092617 0)
(1.05065 0.0089745 0)
(1.04787 0.0087036 0)
(1.04483 0.0084473 0)
(1.04157 0.00820422 0)
(1.03812 0.00797319 0)
(1.0345 0.00775319 0)
(1.03074 0.0075433 0)
(1.02686 0.00734264 0)
(1.02289 0.00715036 0)
(1.01885 0.00696564 0)
(1.01475 0.00678762 0)
(1.01061 0.00661543 0)
(1.00645 0.00644816 0)
(1.00228 0.00628478 0)
(0.998118 0.00612426 0)
(0.993975 0.00596518 0)
(0.989861 0.00580643 0)
(0.985788 0.00564563 0)
(0.981768 0.00548199 0)
(0.977812 0.00531078 0)
(0.973931 0.00513275 0)
(0.970138 0.00493771 0)
(0.966448 0.00473086 0)
(0.962871 0.00449046 0)
(0.95944 0.00423059 0)
(0.956147 0.00391025 0)
(0.95307 0.00354935 0)
(0.950158 0.00309553 0)
(0.947576 0.00251802 0)
(0.945191 0.00183934 0)
(0.943269 0.000732193 0)
(0.941531 -0.000432797 0)
(0.940146 -0.00262342 0)
(1.00301 0.025829 0)
(1.03172 0.0297319 0)
(1.04675 0.0216637 0)
(1.04992 0.0186913 0)
(1.0514 0.0170591 0)
(1.05338 0.0153857 0)
(1.05515 0.0141327 0)
(1.05651 0.0132663 0)
(1.0576 0.0125784 0)
(1.05848 0.0119887 0)
(1.05916 0.0114802 0)
(1.05961 0.0110382 0)
(1.05984 0.0106472 0)
(1.05982 0.0102952 0)
(1.05956 0.00997418 0)
(1.05905 0.0096784 0)
(1.05829 0.00940363 0)
(1.0573 0.0091466 0)
(1.05607 0.00890479 0)
(1.05463 0.00867626 0)
(1.05299 0.00845943 0)
(1.05115 0.00825303 0)
(1.04915 0.00805597 0)
(1.04699 0.0078673 0)
(1.04468 0.00768615 0)
(1.04226 0.00751168 0)
(1.03972 0.00734312 0)
(1.03708 0.00717965 0)
(1.03437 0.00702046 0)
(1.03158 0.00686466 0)
(1.02874 0.00671128 0)
(1.02586 0.0065593 0)
(1.02295 0.00640731 0)
(1.02001 0.00625421 0)
(1.01707 0.00609759 0)
(1.01413 0.00593656 0)
(1.01121 0.00576638 0)
(1.00831 0.00558745 0)
(1.00546 0.00538984 0)
(1.00266 0.00517754 0)
(0.999921 0.00493028 0)
(0.997279 0.00465823 0)
(0.994731 0.00432569 0)
(0.992332 0.00394216 0)
(0.990062 0.00346782 0)
(0.988019 0.00285424 0)
(0.986147 0.00213384 0)
(0.984577 0.000999042 0)
(0.983143 -0.000245382 0)
(0.981875 -0.00232242 0)
(1.00268 0.0238002 0)
(1.02912 0.028648 0)
(1.04384 0.021126 0)
(1.04723 0.018279 0)
(1.04871 0.0168234 0)
(1.05065 0.0152416 0)
(1.05242 0.0140055 0)
(1.05379 0.0131506 0)
(1.05491 0.0124791 0)
(1.05589 0.0119044 0)
(1.05674 0.0114096 0)
(1.05746 0.010982 0)
(1.05805 0.0106067 0)
(1.0585 0.0102718 0)
(1.05881 0.0099691 0)
(1.05898 0.00969266 0)
(1.05899 0.00943798 0)
(1.05885 0.00920154 0)
(1.05855 0.00898056 0)
(1.0581 0.00877283 0)
(1.05751 0.00857658 0)
(1.05677 0.00839034 0)
(1.05588 0.00821289 0)
(1.05487 0.00804312 0)
(1.05373 0.00788008 0)
(1.05248 0.00772285 0)
(1.05111 0.00757058 0)
(1.04965 0.00742242 0)
(1.04809 0.00727751 0)
(1.04646 0.00713493 0)
(1.04475 0.00699367 0)
(1.04298 0.0068527 0)
(1.04115 0.00671055 0)
(1.03928 0.00656607 0)
(1.03738 0.00641679 0)
(1.03545 0.00626171 0)
(1.0335 0.0060961 0)
(1.03155 0.00591993 0)
(1.02961 0.00572366 0)
(1.02769 0.00550991 0)
(1.02579 0.00526018 0)
(1.02395 0.00498059 0)
(1.02217 0.00464088 0)
(1.02049 0.00424088 0)
(1.01889 0.00375178 0)
(1.01745 0.00311221 0)
(1.01613 0.00235911 0)
(1.015 0.00121202 0)
(1.01393 -8.62297e-05 0)
(1.01289 -0.00205798 0)
(1.00238 0.021878 0)
(1.02665 0.0275495 0)
(1.04102 0.0206087 0)
(1.04462 0.0178651 0)
(1.04612 0.0165729 0)
(1.04803 0.0150916 0)
(1.0498 0.0138768 0)
(1.05116 0.0130324 0)
(1.05227 0.0123757 0)
(1.05325 0.0118134 0)
(1.05413 0.0113281 0)
(1.05492 0.0109092 0)
(1.05563 0.0105428 0)
(1.05625 0.0102174 0)
(1.05678 0.00992473 0)
(1.05723 0.00965909 0)
(1.05759 0.00941595 0)
(1.05786 0.00919174 0)
(1.05804 0.00898357 0)
(1.05813 0.00878914 0)
(1.05812 0.00860655 0)
(1.05801 0.0084342 0)
(1.05781 0.00827075 0)
(1.05752 0.00811498 0)
(1.05713 0.00796582 0)
(1.05665 0.00782225 0)
(1.05609 0.00768332 0)
(1.05545 0.00754811 0)
(1.05473 0.00741565 0)
(1.05394 0.00728499 0)
(1.05308 0.00715501 0)
(1.05216 0.00702462 0)
(1.05119 0.00689227 0)
(1.05016 0.00675674 0)
(1.0491 0.00661549 0)
(1.048 0.00646734 0)
(1.04687 0.00630759 0)
(1.04572 0.00613575 0)
(1.04457 0.00594275 0)
(1.04341 0.00572977 0)
(1.04227 0.00548018 0)
(1.04115 0.0051962 0)
(1.04007 0.00485271 0)
(1.03904 0.0044412 0)
(1.03808 0.00394173 0)
(1.0372 0.00328495 0)
(1.03642 0.00250738 0)
(1.03572 0.00136098 0)
(1.03504 3.74615e-05 0)
(1.03427 -0.00184268 0)
(1.0021 0.0200634 0)
(1.02431 0.0264383 0)
(1.03829 0.0201096 0)
(1.04209 0.0174516 0)
(1.04362 0.0163077 0)
(1.0455 0.0149343 0)
(1.04727 0.0137459 0)
(1.04863 0.0129121 0)
(1.04973 0.0122701 0)
(1.05069 0.0117202 0)
(1.05157 0.0112434 0)
(1.05236 0.0108313 0)
(1.05308 0.0104711 0)
(1.05374 0.0101517 0)
(1.05434 0.009865 0)
(1.05489 0.00960548 0)
(1.05538 0.00936873 0)
(1.05582 0.00915128 0)
(1.0562 0.00895029 0)
(1.05653 0.00876345 0)
(1.0568 0.00858885 0)
(1.05701 0.00842487 0)
(1.05717 0.00827008 0)
(1.05727 0.00812324 0)
(1.05731 0.00798319 0)
(1.05729 0.00784885 0)
(1.05721 0.00771919 0)
(1.05707 0.00759321 0)
(1.05688 0.00746988 0)
(1.05664 0.00734816 0)
(1.05635 0.00722685 0)
(1.05601 0.0071048 0)
(1.05562 0.00698035 0)
(1.0552 0.00685222 0)
(1.05474 0.00671776 0)
(1.05424 0.00657563 0)
(1.05373 0.00642118 0)
(1.05319 0.00625341 0)
(1.05264 0.00606379 0)
(1.05208 0.00585204 0)
(1.05153 0.00560345 0)
(1.05099 0.0053166 0)
(1.05047 0.00497098 0)
(1.04998 0.00455139 0)
(1.04954 0.00404434 0)
(1.04915 0.00337713 0)
(1.04882 0.00258221 0)
(1.04851 0.00144634 0)
(1.04816 0.000117806 0)
(1.04766 -0.0016804 0)
(1.00185 0.0183565 0)
(1.02211 0.0253184 0)
(1.03566 0.0196249 0)
(1.03966 0.0170402 0)
(1.04121 0.0160284 0)
(1.04306 0.0147688 0)
(1.04482 0.0136123 0)
(1.04619 0.0127895 0)
(1.04728 0.0121623 0)
(1.04823 0.0116254 0)
(1.04909 0.0111574 0)
(1.04987 0.0107517 0)
(1.05058 0.0103971 0)
(1.05124 0.0100824 0)
(1.05185 0.00980015 0)
(1.05241 0.0095447 0)
(1.05294 0.00931191 0)
(1.05343 0.00909841 0)
(1.05388 0.00890146 0)
(1.0543 0.00871882 0)
(1.05469 0.00854861 0)
(1.05504 0.00838923 0)
(1.05535 0.00823929 0)
(1.05563 0.00809752 0)
(1.05588 0.00796275 0)
(1.05609 0.00783386 0)
(1.05626 0.00770979 0)
(1.0564 0.00758949 0)
(1.05651 0.00747188 0)
(1.05658 0.00735588 0)
(1.05662 0.00724021 0)
(1.05663 0.00712365 0)
(1.05661 0.0070045 0)
(1.05656 0.00688135 0)
(1.05648 0.00675153 0)
(1.05639 0.0066135 0)
(1.05627 0.00646268 0)
(1.05615 0.00629759 0)
(1.05601 0.00611024 0)
(1.05587 0.005899 0)
(1.05574 0.00565093 0)
(1.05561 0.00536146 0)
(1.0555 0.00501394 0)
(1.05541 0.00458825 0)
(1.05536 0.00407508 0)
(1.05533 0.00340216 0)
(1.05533 0.00259559 0)
(1.05532 0.00147617 0)
(1.05524 0.000153519 0)
(1.05495 -0.00156553 0)
(1.00162 0.0167571 0)
(1.02005 0.0241941 0)
(1.03312 0.0191505 0)
(1.03731 0.0166326 0)
(1.03889 0.015736 0)
(1.0407 0.0145946 0)
(1.04247 0.0134759 0)
(1.04383 0.0126645 0)
(1.04491 0.012052 0)
(1.04585 0.0115288 0)
(1.0467 0.0110701 0)
(1.04747 0.0106711 0)
(1.04817 0.0103219 0)
(1.04882 0.010012 0)
(1.04942 0.00973365 0)
(1.04998 0.00948163 0)
(1.0505 0.00925189 0)
(1.051 0.00904119 0)
(1.05146 0.00884688 0)
(1.05191 0.0086668 0)
(1.05232 0.00849913 0)
(1.05272 0.00834233 0)
(1.05309 0.00819503 0)
(1.05345 0.00805598 0)
(1.05378 0.00792402 0)
(1.05409 0.00779804 0)
(1.05437 0.00767696 0)
(1.05464 0.00755973 0)
(1.05489 0.00744522 0)
(1.05512 0.00733232 0)
(1.05533 0.00721972 0)
(1.05552 0.00710616 0)
(1.05569 0.00698988 0)
(1.05585 0.00686938 0)
(1.056 0.00674198 0)
(1.05614 0.00660595 0)
(1.05626 0.00645685 0)
(1.05638 0.00629267 0)
(1.0565 0.00610603 0)
(1.05662 0.00589402 0)
(1.05675 0.00564532 0)
(1.05689 0.0053528 0)
(1.05704 0.00500276 0)
(1.05721 0.00457193 0)
(1.05741 0.00405319 0)
(1.05762 0.00337763 0)
(1.05785 0.00256381 0)
(1.05803 0.00146421 0)
(1.05812 0.000157475 0)
(1.058 -0.00148815 0)
(1.00142 0.0152643 0)
(1.01812 0.0230695 0)
(1.0307 0.0186825 0)
(1.03505 0.0162302 0)
(1.03666 0.015432 0)
(1.03844 0.014411 0)
(1.04019 0.0133362 0)
(1.04157 0.0125371 0)
(1.04264 0.0119392 0)
(1.04357 0.0114303 0)
(1.0444 0.0109815 0)
(1.04516 0.0105895 0)
(1.04585 0.0102459 0)
(1.04648 0.00994075 0)
(1.04707 0.00966639 0)
(1.04762 0.00941771 0)
(1.04814 0.00919081 0)
(1.04862 0.00898257 0)
(1.04909 0.00879042 0)
(1.04953 0.00861227 0)
(1.04995 0.00844638 0)
(1.05035 0.00829124 0)
(1.05074 0.00814552 0)
(1.05111 0.00800801 0)
(1.05146 0.00787757 0)
(1.05181 0.00775309 0)
(1.05214 0.00763351 0)
(1.05245 0.00751775 0)
(1.05276 0.00740468 0)
(1.05305 0.00729318 0)
(1.05334 0.00718191 0)
(1.05361 0.00706958 0)
(1.05388 0.00695439 0)
(1.05414 0.00683478 0)
(1.05439 0.00670806 0)
(1.05465 0.00657233 0)
(1.0549 0.00642329 0)
(1.05515 0.00625848 0)
(1.0554 0.00607107 0)
(1.05567 0.00585706 0)
(1.05594 0.0056065 0)
(1.05622 0.00531028 0)
(1.05653 0.00495689 0)
(1.05685 0.00452135 0)
(1.05719 0.00399725 0)
(1.05754 0.00332092 0)
(1.05789 0.00250335 0)
(1.05819 0.00142516 0)
(1.05837 0.000141175 0)
(1.05834 -0.00143636 0)
(1.00124 0.0138769 0)
(1.01633 0.0219484 0)
(1.02838 0.0182171 0)
(1.03287 0.0158342 0)
(1.03453 0.0151178 0)
(1.03627 0.0142174 0)
(1.03801 0.0131928 0)
(1.03939 0.0124074 0)
(1.04046 0.0118238 0)
(1.04138 0.0113296 0)
(1.0422 0.0108914 0)
(1.04295 0.0105067 0)
(1.04363 0.010169 0)
(1.04425 0.00986876 0)
(1.04482 0.00959851 0)
(1.04536 0.00935324 0)
(1.04586 0.00912921 0)
(1.04634 0.00892338 0)
(1.04679 0.00873329 0)
(1.04723 0.00855691 0)
(1.04764 0.00839255 0)
(1.04804 0.00823875 0)
(1.04842 0.00809422 0)
(1.04879 0.00795777 0)
(1.04915 0.00782828 0)
(1.04949 0.00770466 0)
(1.04983 0.00758584 0)
(1.05016 0.00747075 0)
(1.05048 0.00735826 0)
(1.0508 0.00724722 0)
(1.05111 0.00713629 0)
(1.05141 0.00702414 0)
(1.05171 0.00690896 0)
(1.05201 0.00678913 0)
(1.05231 0.00666196 0)
(1.05261 0.00652539 0)
(1.05292 0.0063753 0)
(1.05323 0.00620877 0)
(1.05354 0.0060195 0)
(1.05387 0.0058026 0)
(1.05421 0.0055492 0)
(1.05457 0.00524882 0)
(1.05494 0.00489136 0)
(1.05533 0.00445143 0)
(1.05575 0.00392223 0)
(1.05616 0.00324638 0)
(1.05656 0.00242805 0)
(1.0569 0.00137183 0)
(1.05712 0.000115169 0)
(1.05713 -0.00139903 0)
(1.00107 0.0125928 0)
(1.01467 0.0208351 0)
(1.02617 0.0177509 0)
(1.03078 0.0154454 0)
(1.0325 0.0147955 0)
(1.03419 0.0140134 0)
(1.03592 0.0130453 0)
(1.0373 0.0122754 0)
(1.03837 0.0117057 0)
(1.03928 0.0112266 0)
(1.04009 0.0107997 0)
(1.04082 0.0104227 0)
(1.04149 0.0100911 0)
(1.0421 0.00979594 0)
(1.04267 0.00952996 0)
(1.04319 0.00928823 0)
(1.04369 0.00906714 0)
(1.04415 0.00886379 0)
(1.0446 0.00867579 0)
(1.04502 0.00850118 0)
(1.04542 0.00833831 0)
(1.04581 0.00818578 0)
(1.04618 0.00804233 0)
(1.04654 0.00790679 0)
(1.0469 0.00777805 0)
(1.04724 0.00765505 0)
(1.04757 0.0075367 0)
(1.0479 0.00742195 0)
(1.04822 0.00730965 0)
(1.04853 0.00719865 0)
(1.04885 0.00708758 0)
(1.04916 0.0069751 0)
(1.04947 0.00685938 0)
(1.04977 0.00673873 0)
(1.05009 0.00661051 0)
(1.0504 0.00647248 0)
(1.05072 0.00632067 0)
(1.05105 0.00615182 0)
(1.05139 0.00596004 0)
(1.05174 0.00573977 0)
(1.05211 0.00548293 0)
(1.05249 0.00517821 0)
(1.05289 0.00481632 0)
(1.0533 0.00437237 0)
(1.05373 0.00383858 0)
(1.05415 0.00316421 0)
(1.05456 0.00234779 0)
(1.0549 0.00131372 0)
(1.05513 8.74868e-05 0)
(1.05513 -0.00136748 0)
(1.00093 0.0114093 0)
(1.01315 0.0197336 0)
(1.02408 0.0172807 0)
(1.02878 0.0150646 0)
(1.03056 0.0144668 0)
(1.03221 0.0137987 0)
(1.03391 0.0128931 0)
(1.0353 0.012141 0)
(1.03637 0.011585 0)
(1.03727 0.0111213 0)
(1.03807 0.0107062 0)
(1.0388 0.0103374 0)
(1.03945 0.0100121 0)
(1.04005 0.00972221 0)
(1.04061 0.00946066 0)
(1.04112 0.0092226 0)
(1.04161 0.00900457 0)
(1.04206 0.00880378 0)
(1.04249 0.00861793 0)
(1.04291 0.00844514 0)
(1.0433 0.0082838 0)
(1.04368 0.00813256 0)
(1.04404 0.00799018 0)
(1.0444 0.00785553 0)
(1.04474 0.00772751 0)
(1.04507 0.00760505 0)
(1.0454 0.00748709 0)
(1.04572 0.00737257 0)
(1.04603 0.00726032 0)
(1.04634 0.0071492 0)
(1.04665 0.00703781 0)
(1.04695 0.00692479 0)
(1.04726 0.0068083 0)
(1.04756 0.00668658 0)
(1.04787 0.00655703 0)
(1.04819 0.00641725 0)
(1.04851 0.00626343 0)
(1.04884 0.00609199 0)
(1.04918 0.0058974 0)
(1.04953 0.00567359 0)
(1.04989 0.00541306 0)
(1.05027 0.00510409 0)
(1.05067 0.00473777 0)
(1.05108 0.00429031 0)
(1.0515 0.00375274 0)
(1.05192 0.00308082 0)
(1.05231 0.00226877 0)
(1.05262 0.00125703 0)
(1.05282 6.32613e-05 0)
(1.05281 -0.00133568 0)
(1.0008 0.0103232 0)
(1.01175 0.018648 0)
(1.02209 0.0168039 0)
(1.02687 0.014692 0)
(1.02871 0.014134 0)
(1.03032 0.0135733 0)
(1.032 0.0127355 0)
(1.03338 0.0120043 0)
(1.03445 0.0114617 0)
(1.03535 0.0110134 0)
(1.03614 0.0106108 0)
(1.03686 0.0102507 0)
(1.03751 0.00993192 0)
(1.0381 0.0096475 0)
(1.03864 0.00939054 0)
(1.03915 0.00915629 0)
(1.03962 0.00894143 0)
(1.04007 0.00874329 0)
(1.04049 0.00855968 0)
(1.04089 0.00838876 0)
(1.04128 0.008229 0)
(1.04165 0.00807909 0)
(1.042 0.00793782 0)
(1.04234 0.00780407 0)
(1.04268 0.00767678 0)
(1.043 0.00755488 0)
(1.04332 0.00743731 0)
(1.04363 0.00732299 0)
(1.04393 0.00721077 0)
(1.04424 0.00709948 0)
(1.04454 0.00698773 0)
(1.04483 0.0068741 0)
(1.04513 0.00675676 0)
(1.04543 0.00663389 0)
(1.04573 0.00650292 0)
(1.04604 0.00636131 0)
(1.04635 0.00620539 0)
(1.04667 0.00603131 0)
(1.04701 0.00583383 0)
(1.04735 0.00560654 0)
(1.04771 0.00534232 0)
(1.04808 0.00502937 0)
(1.04846 0.00465888 0)
(1.04885 0.00420855 0)
(1.04926 0.00366827 0)
(1.04964 0.00299979 0)
(1.05 0.00219442 0)
(1.05029 0.00120532 0)
(1.05045 4.53312e-05 0)
(1.05041 -0.00129993 0)
(1.00069 0.00933066 0)
(1.01047 0.0175824 0)
(1.02022 0.0163183 0)
(1.02504 0.0143274 0)
(1.02694 0.0137988 0)
(1.02852 0.0133373 0)
(1.03017 0.0125719 0)
(1.03156 0.011865 0)
(1.03263 0.0113357 0)
(1.03351 0.0109029 0)
(1.0343 0.0105134 0)
(1.03501 0.0101625 0)
(1.03565 0.00985047 0)
(1.03623 0.0095717 0)
(1.03677 0.00931951 0)
(1.03727 0.00908923 0)
(1.03773 0.00887765 0)
(1.03817 0.00868226 0)
(1.03858 0.00850096 0)
(1.03897 0.00833199 0)
(1.03935 0.00817387 0)
(1.03971 0.00802533 0)
(1.04006 0.00788521 0)
(1.04039 0.00775241 0)
(1.04072 0.00762588 0)
(1.04103 0.00750456 0)
(1.04134 0.00738739 0)
(1.04164 0.0072733 0)
(1.04194 0.00716112 0)
(1.04223 0.00704967 0)
(1.04252 0.00693755 0)
(1.04281 0.00682331 0)
(1.0431 0.00670513 0)
(1.04339 0.0065811 0)
(1.04368 0.00644871 0)
(1.04398 0.0063053 0)
(1.04429 0.00614727 0)
(1.0446 0.00597063 0)
(1.04492 0.00577031 0)
(1.04525 0.0055397 0)
(1.04559 0.00527195 0)
(1.04595 0.00495542 0)
(1.04632 0.00458122 0)
(1.04669 0.00412874 0)
(1.04706 0.00358696 0)
(1.04742 0.00292295 0)
(1.04774 0.00212641 0)
(1.04799 0.00116039 0)
(1.04811 3.51417e-05 0)
(1.04804 -0.00125815 0)
(1.0006 0.00842738 0)
(1.00931 0.0165409 0)
(1.01846 0.0158218 0)
(1.02329 0.0139706 0)
(1.02527 0.0134633 0)
(1.02682 0.0130913 0)
(1.02843 0.0124018 0)
(1.02982 0.0117231 0)
(1.03089 0.0112072 0)
(1.03177 0.0107896 0)
(1.03255 0.0104138 0)
(1.03325 0.0100726 0)
(1.03388 0.00976767 0)
(1.03446 0.00949474 0)
(1.03499 0.00924748 0)
(1.03548 0.00902132 0)
(1.03593 0.00881315 0)
(1.03636 0.00862062 0)
(1.03677 0.00844171 0)
(1.03715 0.00827475 0)
(1.03752 0.00811834 0)
(1.03787 0.00797123 0)
(1.03821 0.0078323 0)
(1.03853 0.0077005 0)
(1.03885 0.00757476 0)
(1.03916 0.00745406 0)
(1.03946 0.00733732 0)
(1.03975 0.00722348 0)
(1.04004 0.00711137 0)
(1.04033 0.00699978 0)
(1.04061 0.00688732 0)
(1.04089 0.0067725 0)
(1.04117 0.0066535 0)
(1.04145 0.00652836 0)
(1.04174 0.00639458 0)
(1.04202 0.00624941 0)
(1.04232 0.00608935 0)
(1.04262 0.00591026 0)
(1.04293 0.00570721 0)
(1.04325 0.00547355 0)
(1.04357 0.00520251 0)
(1.04391 0.00488284 0)
(1.04426 0.00450554 0)
(1.04461 0.00405167 0)
(1.04496 0.00350968 0)
(1.04528 0.00285125 0)
(1.04557 0.00206549 0)
(1.04577 0.00112313 0)
(1.04586 3.32868e-05 0)
(1.04575 -0.00120924 0)
(1.00051 0.00760857 0)
(1.00826 0.0155273 0)
(1.01682 0.0153134 0)
(1.02163 0.013621 0)
(1.02368 0.0131292 0)
(1.0252 0.0128359 0)
(1.02678 0.0122246 0)
(1.02816 0.0115781 0)
(1.02924 0.0110762 0)
(1.03011 0.0106735 0)
(1.03088 0.0103118 0)
(1.03158 0.00998085 0)