/*--------------------------------*- C++ -*----------------------------------*\
  =========                 |
  \\      /  F ield         | OpenFOAM: The Open Source CFD Toolbox
   \\    /   O peration     | Website:  https://openfoam.org
    \\  /    A nd           | Version:  7
     \\/     M anipulation  |
\*---------------------------------------------------------------------------*/
FoamFile
{
    version     2.0;
    format      ascii;
    class       volVectorField;
    location    "0.39";
    object      U_0;
}
// * * * * * * * * * * * * * * * * * * * * * * * * * * * * * * * * * * * * * //

dimensions      [0 1 -1 0 0 0 0];

internalField   nonuniform List<vector> 
70000
(
(0.553416 0.016978 0)
(0.25143 0.00340025 0)
(0.165951 0.000318811 0)
(0.13248 4.88906e-05 0)
(0.117385 4.39465e-05 0)
(0.107436 5.21139e-05 0)
(0.0994729 4.43133e-05 0)
(0.093037 3.52338e-05 0)
(0.0878002 2.91918e-05 0)
(0.0834379 2.50486e-05 0)
(0.079722 2.188e-05 0)
(0.076505 1.9338e-05 0)
(0.0736858 1.72627e-05 0)
(0.0711904 1.55453e-05 0)
(0.0689627 1.41045e-05 0)
(0.0669595 1.28803e-05 0)
(0.0651467 1.18277e-05 0)
(0.0634973 1.0913e-05 0)
(0.0619893 1.011e-05 0)
(0.0606048 9.39858e-06 0)
(0.0593289 8.76262e-06 0)
(0.0581493 8.18922e-06 0)
(0.0570556 7.66767e-06 0)
(0.0560391 7.18921e-06 0)
(0.0550922 6.74595e-06 0)
(0.0542086 6.33152e-06 0)
(0.053383 5.93914e-06 0)
(0.0526108 5.56426e-06 0)
(0.0518882 5.19949e-06 0)
(0.0512117 4.84253e-06 0)
(0.0505791 4.48291e-06 0)
(0.0499879 4.12235e-06 0)
(0.0494368 3.74311e-06 0)
(0.0489245 3.35416e-06 0)
(0.0484509 2.92534e-06 0)
(0.0480158 2.47372e-06 0)
(0.0476197 1.95936e-06 0)
(0.0472653 1.38416e-06 0)
(0.0469516 7.51616e-07 0)
(0.0466898 -8.73444e-08 0)
(0.0464683 -8.1366e-07 0)
(0.0463253 -2.29513e-06 0)
(0.0462093 -2.85512e-06 0)
(0.0462422 -6.06523e-06 0)
(0.0462424 -5.5114e-06 0)
(0.046578 -1.32689e-05 0)
(0.0466921 -7.4732e-06 0)
(0.0475772 -2.89806e-05 0)
(0.0481294 1.68991e-05 0)
(0.0457925 -0.00184691 0)
(0.884864 0.0434926 0)
(0.650169 0.0201478 0)
(0.494027 0.00660348 0)
(0.403631 0.00275377 0)
(0.35494 0.00154713 0)
(0.323642 0.001131 0)
(0.299755 0.000908699 0)
(0.280556 0.000744219 0)
(0.264851 0.000621622 0)
(0.251735 0.000531229 0)
(0.240558 0.000462617 0)
(0.230879 0.000408623 0)
(0.222392 0.000364991 0)
(0.214874 0.000329067 0)
(0.208158 0.000299041 0)
(0.202115 0.000273618 0)
(0.196641 0.000251843 0)
(0.191657 0.000233 0)
(0.187096 0.000216544 0)
(0.182904 0.000202053 0)
(0.179037 0.000189195 0)
(0.175458 0.000177703 0)
(0.172134 0.000167362 0)
(0.169041 0.000157994 0)
(0.166154 0.000149448 0)
(0.163455 0.000141598 0)
(0.160928 0.00013433 0)
(0.158557 0.000127549 0)
(0.156331 0.00012116 0)
(0.15424 0.000115085 0)
(0.152275 0.000109233 0)
(0.150429 0.000103541 0)
(0.148696 9.78919e-05 0)
(0.147072 9.22512e-05 0)
(0.145555 8.64295e-05 0)
(0.144142 8.0448e-05 0)
(0.142833 7.39685e-05 0)
(0.141633 6.71157e-05 0)
(0.140538 5.93049e-05 0)
(0.139575 5.07442e-05 0)
(0.13871 4.06534e-05 0)
(0.13804 2.88037e-05 0)
(0.137427 1.52442e-05 0)
(0.137185 -3.43506e-06 0)
(0.136831 -2.10927e-05 0)
(0.137317 -5.7954e-05 0)
(0.137194 -7.47814e-05 0)
(0.138964 -0.000193573 0)
(0.139719 4.87916e-05 0)
(0.139072 -0.00337833 0)
(0.991209 0.0499543 0)
(0.890943 0.0305601 0)
(0.762545 0.0146077 0)
(0.656622 0.00796842 0)
(0.585545 0.00487782 0)
(0.536194 0.00347326 0)
(0.498313 0.00273751 0)
(0.467688 0.00224363 0)
(0.442373 0.00188028 0)
(0.421061 0.00160903 0)
(0.402802 0.00140197 0)
(0.386927 0.00123903 0)
(0.372964 0.00110746 0)
(0.360563 0.000999151 0)
(0.349458 0.000908619 0)
(0.339445 0.000831955 0)
(0.330359 0.000766292 0)
(0.322072 0.000709481 0)
(0.314477 0.000659885 0)
(0.307487 0.000616236 0)
(0.301029 0.000577537 0)
(0.295044 0.000542991 0)
(0.289479 0.000511951 0)
(0.284292 0.000483886 0)
(0.279445 0.00045835 0)
(0.274906 0.000434964 0)
(0.270648 0.000413402 0)
(0.266647 0.000393377 0)
(0.262883 0.000374626 0)
(0.259339 0.000356921 0)
(0.255999 0.000340017 0)
(0.25285 0.000323725 0)
(0.249884 0.000307758 0)
(0.24709 0.000291986 0)
(0.244465 0.000275961 0)
(0.242002 0.000259697 0)
(0.2397 0.000242348 0)
(0.237564 0.000224297 0)
(0.235585 0.000203819 0)
(0.2338 0.000182109 0)
(0.232157 0.000155736 0)
(0.230796 0.00012723 0)
(0.229511 9.06657e-05 0)
(0.228749 4.89715e-05 0)
(0.227818 -3.20791e-06 0)
(0.228055 -7.88589e-05 0)
(0.227426 -0.000143199 0)
(0.229386 -0.00038924 0)
(0.229662 -0.000150221 0)
(0.23168 -0.00384224 0)
(1.01554 0.0489519 0)
(1.00651 0.0357201 0)
(0.935933 0.0208144 0)
(0.852097 0.0134942 0)
(0.782356 0.00919482 0)
(0.727233 0.00678128 0)
(0.682159 0.00538605 0)
(0.644404 0.00444567 0)
(0.612387 0.00375178 0)
(0.584915 0.00322665 0)
(0.561049 0.00282117 0)
(0.540082 0.00249997 0)
(0.521487 0.00223951 0)
(0.50486 0.00202437 0)
(0.489889 0.00184402 0)
(0.476325 0.00169093 0)
(0.463969 0.00155954 0)
(0.452658 0.00144568 0)
(0.44226 0.00134615 0)
(0.432664 0.00125847 0)
(0.423776 0.00118067 0)
(0.415519 0.00111121 0)
(0.407827 0.00104879 0)
(0.400641 0.000992365 0)
(0.393914 0.000941067 0)
(0.387602 0.000894145 0)
(0.38167 0.00085096 0)
(0.376085 0.00081095 0)
(0.37082 0.000773611 0)
(0.365851 0.000738493 0)
(0.361158 0.000705144 0)
(0.356723 0.00067319 0)
(0.352531 0.000642123 0)
(0.34857 0.000611669 0)
(0.344831 0.000581059 0)
(0.341307 0.000550278 0)
(0.337992 0.000517835 0)
(0.334892 0.000484472 0)
(0.331992 0.000446904 0)
(0.329334 0.000407867 0)
(0.326857 0.000359927 0)
(0.324718 0.000310453 0)
(0.32268 0.000243281 0)
(0.321251 0.000174311 0)
(0.319643 7.40021e-05 0)
(0.319358 -4.20219e-05 0)
(0.318135 -0.000176444 0)
(0.31977 -0.000541082 0)
(0.319393 -0.00042861 0)
(0.322521 -0.00396352 0)
(1.01435 0.046096 0)
(1.04799 0.037336 0)
(1.0246 0.0241799 0)
(0.974752 0.0175511 0)
(0.923594 0.013104 0)
(0.876897 0.010202 0)
(0.834758 0.00834344 0)
(0.797026 0.00702203 0)
(0.763475 0.00601241 0)
(0.733663 0.00522601 0)
(0.707077 0.00460526 0)
(0.683245 0.00410572 0)
(0.66177 0.00369591 0)
(0.64232 0.00335433 0)
(0.624619 0.00306586 0)
(0.60844 0.00281947 0)
(0.593589 0.00260693 0)
(0.579906 0.00242195 0)
(0.567256 0.00225966 0)
(0.555524 0.00211626 0)
(0.54461 0.0019887 0)
(0.53443 0.00187455 0)
(0.524912 0.00177182 0)
(0.515993 0.00167884 0)
(0.507617 0.00159423 0)
(0.499737 0.00151681 0)
(0.49231 0.00144556 0)
(0.485301 0.0013796 0)
(0.478677 0.00131813 0)
(0.472409 0.00126044 0)
(0.466475 0.00120581 0)
(0.460852 0.00115367 0)
(0.455524 0.00110323 0)
(0.450473 0.00105406 0)
(0.445689 0.00100502 0)
(0.441161 0.000956035 0)
(0.436884 0.000904913 0)
(0.432858 0.000852777 0)
(0.42907 0.000794597 0)
(0.425558 0.000734861 0)
(0.422262 0.000661584 0)
(0.419336 0.000587724 0)
(0.416546 0.00048549 0)
(0.414394 0.000385435 0)
(0.412108 0.000232055 0)
(0.411145 6.84088e-05 0)
(0.409356 -0.000143526 0)
(0.410312 -0.00062047 0)
(0.40946 -0.000691404 0)
(0.412231 -0.00402707 0)
(1.00941 0.0430454 0)
(1.05564 0.0370904 0)
(1.0587 0.0253197 0)
(1.03636 0.0197538 0)
(1.00722 0.0157899 0)
(0.976244 0.0129279 0)
(0.944748 0.0109586 0)
(0.913904 0.00947723 0)
(0.884567 0.00828771 0)
(0.857119 0.00732173 0)
(0.831637 0.00653373 0)
(0.808057 0.00588327 0)
(0.786259 0.0053389 0)
(0.766101 0.00487782 0)
(0.747437 0.00448328 0)
(0.730127 0.00414261 0)
(0.714042 0.00384603 0)
(0.699065 0.00358589 0)
(0.685089 0.00335615 0)
(0.672023 0.00315196 0)
(0.659782 0.00296945 0)
(0.648292 0.00280543 0)
(0.637488 0.00265725 0)
(0.627312 0.00252273 0)
(0.617712 0.00240001 0)
(0.608641 0.00228748 0)
(0.600059 0.00218376 0)
(0.59193 0.00208764 0)
(0.584221 0.00199802 0)
(0.576903 0.00191392 0)
(0.569953 0.00183439 0)
(0.563346 0.00175858 0)
(0.557066 0.00168548 0)
(0.551095 0.00161442 0)
(0.54542 0.00154393 0)
(0.54003 0.00147384 0)
(0.534918 0.00140125 0)
(0.530082 0.0013276 0)
(0.525512 0.00124618 0)
(0.521238 0.00116305 0)
(0.51721 0.00106194 0)
(0.513562 0.000960771 0)
(0.510091 0.000821287 0)
(0.50724 0.000686178 0)
(0.504343 0.00047882 0)
(0.502661 0.000259455 0)
(0.500389 -3.0426e-05 0)
(0.500498 -0.000621328 0)
(0.499329 -0.000880437 0)
(0.501162 -0.0040279 0)
(1.00635 0.0401772 0)
(1.05242 0.036143 0)
(1.06608 0.0252418 0)
(1.05958 0.020557 0)
(1.04697 0.0172148 0)
(1.03096 0.0146441 0)
(1.01209 0.0128157 0)
(0.991439 0.0113922 0)
(0.970053 0.0101969 0)
(0.948665 0.00918362 0)
(0.927717 0.00832608 0)
(0.90747 0.00759602 0)
(0.888072 0.00696895 0)
(0.869592 0.00642603 0)
(0.85205 0.00595276 0)
(0.835432 0.0055376 0)
(0.819708 0.00517125 0)
(0.804836 0.00484615 0)
(0.79077 0.00455613 0)
(0.77746 0.0042961 0)
(0.764859 0.00406187 0)
(0.75292 0.00384993 0)
(0.7416 0.00365734 0)
(0.730857 0.00348157 0)
(0.720652 0.00332047 0)
(0.710951 0.00317215 0)
(0.70172 0.00303499 0)
(0.69293 0.00290751 0)
(0.684555 0.00278839 0)
(0.676569 0.00267642 0)
(0.668952 0.00257042 0)
(0.661683 0.00246934 0)
(0.654745 0.00237193 0)
(0.648124 0.00227734 0)
(0.641808 0.00218375 0)
(0.635786 0.00209088 0)
(0.630053 0.00199522 0)
(0.624605 0.00189838 0)
(0.619434 0.00179222 0)
(0.614565 0.00168391 0)
(0.609961 0.00155373 0)
(0.605728 0.001423 0)
(0.601711 0.00124588 0)
(0.598267 0.00107202 0)
(0.594876 0.000812507 0)
(0.592539 0.000531602 0)
(0.58988 0.00016531 0)
(0.589159 -0.00053979 0)
(0.587719 -0.000981745 0)
(0.588575 -0.00394277 0)
(1.00506 0.0374998 0)
(1.04763 0.0350442 0)
(1.06398 0.0246934 0)
(1.06423 0.0205866 0)
(1.06077 0.0177512 0)
(1.05489 0.0154831 0)
(1.04617 0.0138702 0)
(1.03501 0.0126123 0)
(1.02213 0.0115284 0)
(1.00812 0.0105788 0)
(0.993454 0.00974965 0)
(0.978471 0.00902296 0)
(0.963439 0.00838192 0)
(0.948553 0.00781337 0)
(0.933948 0.00730699 0)
(0.919716 0.00685426 0)
(0.905917 0.00644799 0)
(0.892586 0.00608207 0)
(0.879739 0.00575131 0)
(0.867383 0.00545127 0)
(0.855513 0.00517818 0)
(0.84412 0.00492878 0)
(0.833191 0.00470024 0)
(0.82271 0.0044901 0)
(0.81266 0.00429621 0)
(0.803023 0.00411664 0)
(0.793781 0.00394967 0)
(0.784917 0.00379374 0)
(0.776415 0.00364743 0)
(0.768259 0.0035094 0)
(0.760434 0.00337834 0)
(0.752927 0.00325305 0)
(0.745727 0.00313212 0)
(0.738822 0.00301452 0)
(0.732206 0.0028982 0)
(0.725868 0.00278272 0)
(0.719808 0.00266408 0)
(0.714022 0.00254391 0)
(0.708508 0.00241302 0)
(0.703283 0.00227907 0)
(0.698325 0.00212006 0)
(0.693716 0.00195872 0)
(0.689344 0.00174512 0)
(0.685484 0.00153008 0)
(0.68176 0.00122183 0)
(0.678919 0.000875156 0)
(0.675986 0.000437119 0)
(0.674581 -0.000376965 0)
(0.672885 -0.000995295 0)
(0.6729 -0.00377456 0)
(1.00451 0.0349637 0)
(1.0436 0.0339636 0)
(1.05995 0.0240416 0)
(1.06227 0.0202959 0)
(1.06258 0.0178145 0)
(1.06195 0.0157607 0)
(1.05941 0.0143217 0)
(1.05489 0.0132297 0)
(1.04871 0.0122883 0)
(1.04117 0.0114513 0)
(1.03255 0.0107071 0)
(1.0231 0.010042 0)
(1.01307 0.00944291 0)
(1.00263 0.0089003 0)
(0.99195 0.00840718 0)
(0.981167 0.00795788 0)
(0.970382 0.00754756 0)
(0.959674 0.00717199 0)
(0.949105 0.00682745 0)
(0.93872 0.0065107 0)
(0.928554 0.00621883 0)
(0.918629 0.00594928 0)
(0.908962 0.00569975 0)
(0.899562 0.00546815 0)
(0.890435 0.00525263 0)
(0.881583 0.00505144 0)
(0.873006 0.00486303 0)
(0.8647 0.00468592 0)
(0.856664 0.00451872 0)
(0.848892 0.0043601 0)
(0.841379 0.00420876 0)
(0.834122 0.00406342 0)
(0.827115 0.0039226 0)
(0.820355 0.00378517 0)
(0.813839 0.00364889 0)
(0.807564 0.00351321 0)
(0.801532 0.00337379 0)
(0.795742 0.00323212 0)
(0.790198 0.00307836 0)
(0.784913 0.00292008 0)
(0.779877 0.00273414 0)
(0.775153 0.00254285 0)
(0.770668 0.00229542 0)
(0.766625 0.00203889 0)
(0.762768 0.00168609 0)
(0.759636 0.00127349 0)
(0.756573 0.000767815 0)
(0.754692 -0.000146942 0)
(0.752798 -0.000928351 0)
(0.752154 -0.00353731 0)
(1.00412 0.0325328 0)
(1.04027 0.0329096 0)
(1.05619 0.0234061 0)
(1.05891 0.0199102 0)
(1.06031 0.0176839 0)
(1.06172 0.0157616 0)
(1.06212 0.0144239 0)
(1.06125 0.0134472 0)
(1.05923 0.012622 0)
(1.05614 0.011891 0)
(1.05208 0.0112403 0)
(1.04716 0.0106556 0)
(1.0415 0.0101239 0)
(1.03523 0.00963627 0)
(1.02847 0.00918686 0)
(1.02133 0.00877133 0)
(1.0139 0.00838621 0)
(1.00627 0.00802858 0)
(0.998506 0.00769592 0)
(0.990674 0.00738602 0)
(0.982822 0.00709688 0)
(0.974992 0.0068267 0)
(0.967216 0.00657382 0)
(0.959522 0.00633669 0)
(0.951933 0.00611386 0)
(0.944464 0.00590397 0)
(0.937131 0.00570573 0)
(0.929944 0.00551787 0)
(0.922912 0.00533918 0)
(0.91604 0.00516845 0)
(0.909334 0.00500445 0)
(0.902798 0.00484595 0)
(0.896436 0.00469146 0)
(0.89025 0.00453983 0)
(0.884245 0.00438873 0)
(0.878422 0.0042375 0)
(0.872789 0.0040816 0)
(0.867348 0.0039223 0)
(0.862108 0.00374943 0)
(0.857083 0.00357005 0)
(0.85227 0.00336081 0)
(0.84772 0.00314216 0)
(0.843389 0.00286501 0)
(0.839425 0.00256911 0)
(0.835665 0.00217676 0)
(0.832484 0.00170198 0)
(0.829466 0.00113266 0)
(0.827345 0.000134736 0)
(0.825361 -0.000795214 0)
(0.82426 -0.00324923 0)
(1.00374 0.0301983 0)
(1.03728 0.0318598 0)
(1.05285 0.0228017 0)
(1.05567 0.0195068 0)
(1.05722 0.0174921 0)
(1.05918 0.0156582 0)
(1.06065 0.014368 0)
(1.06137 0.0134548 0)
(1.0614 0.0127032 0)
(1.06079 0.0120464 0)
(1.05951 0.0114682 0)
(1.05759 0.0109529 0)
(1.05506 0.0104858 0)
(1.05196 0.010057 0)
(1.04837 0.00966006 0)
(1.04432 0.00929055 0)
(1.0399 0.00894519 0)
(1.03515 0.00862144 0)
(1.03013 0.00831724 0)
(1.02489 0.0080309 0)
(1.01948 0.00776096 0)
(1.01395 0.00750611 0)
(1.00831 0.00726517 0)
(1.00262 0.007037 0)
(0.996889 0.00682056 0)
(0.99115 0.00661479 0)
(0.985421 0.0064187 0)
(0.979721 0.00623127 0)
(0.974066 0.00605148 0)
(0.968469 0.00587829 0)
(0.962942 0.00571059 0)
(0.957496 0.00554724 0)
(0.95214 0.0053868 0)
(0.946883 0.00522814 0)
(0.941735 0.00506888 0)
(0.936702 0.00490832 0)
(0.931794 0.00474177 0)
(0.92702 0.00457028 0)
(0.92239 0.00438357 0)
(0.91792 0.00418789 0)
(0.913615 0.00396042 0)
(0.909514 0.00371877 0)
(0.905596 0.00341729 0)
(0.901968 0.00308635 0)
(0.898533 0.00266041 0)
(0.895546 0.00213024 0)
(0.892759 0.00150295 0)
(0.890631 0.00044255 0)
(0.888696 -0.000617386 0)
(0.88735 -0.00293245 0)
(1.00337 0.0279625 0)
(1.03444 0.030802 0)
(1.04975 0.0222221 0)
(1.05271 0.0191006 0)
(1.05422 0.0172816 0)
(1.05623 0.0155256 0)
(1.05797 0.0142574 0)
(1.05922 0.0133749 0)
(1.06007 0.0126639 0)
(1.06056 0.0120505 0)
(1.06067 0.0115174 0)
(1.0604 0.0110488 0)
(1.05971 0.010629 0)
(1.05863 0.0102469 0)
(1.05716 0.00989486 0)
(1.05532 0.00956791 0)
(1.05314 0.00926226 0)
(1.05064 0.00897508 0)
(1.04786 0.00870422 0)
(1.04483 0.00844795 0)
(1.04157 0.00820491 0)
(1.03811 0.00797393 0)
(1.03449 0.00775399 0)
(1.03073 0.00754415 0)
(1.02685 0.00734356 0)
(1.02288 0.00715136 0)
(1.01883 0.00696672 0)
(1.01473 0.00678879 0)
(1.01059 0.00661671 0)
(1.00643 0.00644955 0)
(1.00226 0.00628631 0)
(0.9981 0.00612594 0)
(0.993955 0.00596703 0)
(0.98984 0.00580848 0)
(0.985766 0.00564791 0)
(0.981744 0.00548453 0)
(0.977786 0.00531363 0)
(0.973903 0.00513593 0)
(0.970107 0.0049413 0)
(0.966415 0.0047349 0)
(0.962835 0.00449503 0)
(0.9594 0.00423577 0)
(0.956104 0.00391612 0)
(0.953023 0.00355604 0)
(0.950107 0.0031031 0)
(0.94752 0.00252667 0)
(0.94513 0.00184904 0)
(0.943202 0.000743028 0)
(0.941457 -0.000421267 0)
(0.940065 -0.00261137 0)
(1.00301 0.025829 0)
(1.03172 0.0297319 0)
(1.04675 0.0216637 0)
(1.04992 0.0186914 0)
(1.0514 0.0170593 0)
(1.05338 0.015386 0)
(1.05515 0.014133 0)
(1.05651 0.0132667 0)
(1.05759 0.0125788 0)
(1.05848 0.0119891 0)
(1.05915 0.0114806 0)
(1.05961 0.0110387 0)
(1.05984 0.0106477 0)
(1.05982 0.0102958 0)
(1.05956 0.00997474 0)
(1.05904 0.00967898 0)
(1.05829 0.00940424 0)
(1.05729 0.00914723 0)
(1.05607 0.00890547 0)
(1.05462 0.00867697 0)
(1.05298 0.00846019 0)
(1.05115 0.00825384 0)
(1.04914 0.00805685 0)
(1.04698 0.00786824 0)
(1.04468 0.00768716 0)
(1.04225 0.00751278 0)
(1.03971 0.00734431 0)
(1.03707 0.00718094 0)
(1.03435 0.00702186 0)
(1.03157 0.00686619 0)
(1.02873 0.00671296 0)
(1.02584 0.00656115 0)
(1.02293 0.00640935 0)
(1.01999 0.00625647 0)
(1.01705 0.00610009 0)
(1.01411 0.00593934 0)
(1.01118 0.00576948 0)
(1.00829 0.00559092 0)
(1.00543 0.00539375 0)
(1.00263 0.00518194 0)
(0.999888 0.00493524 0)
(0.997243 0.00466386 0)
(0.994692 0.00433206 0)
(0.992289 0.00394941 0)
(0.990015 0.00347602 0)
(0.987968 0.00286358 0)
(0.986092 0.00214435 0)
(0.984517 0.00101078 0)
(0.983077 -0.000233022 0)
(0.981802 -0.00230904 0)
(1.00268 0.0238002 0)
(1.02912 0.028648 0)
(1.04384 0.0211261 0)
(1.04723 0.0182791 0)
(1.04871 0.0168236 0)
(1.05065 0.0152419 0)
(1.05242 0.0140059 0)
(1.05379 0.013151 0)
(1.05491 0.0124795 0)
(1.05588 0.0119049 0)
(1.05674 0.0114101 0)
(1.05746 0.0109825 0)
(1.05805 0.0106073 0)
(1.0585 0.0102724 0)
(1.05881 0.0099697 0)
(1.05897 0.00969329 0)
(1.05899 0.00943864 0)
(1.05884 0.00920223 0)
(1.05855 0.00898128 0)
(1.0581 0.0087736 0)
(1.0575 0.0085774 0)
(1.05676 0.00839123 0)
(1.05588 0.00821383 0)
(1.05486 0.00804414 0)
(1.05372 0.00788118 0)
(1.05247 0.00772405 0)
(1.0511 0.00757188 0)
(1.04964 0.00742383 0)
(1.04808 0.00727904 0)
(1.04644 0.00713661 0)
(1.04473 0.00699551 0)
(1.04296 0.00685471 0)
(1.04113 0.00671276 0)
(1.03926 0.00656852 0)
(1.03736 0.0064195 0)
(1.03542 0.00626473 0)
(1.03348 0.00609945 0)
(1.03153 0.00592368 0)
(1.02958 0.00572787 0)
(1.02766 0.00551464 0)
(1.02576 0.00526551 0)
(1.02392 0.00498663 0)
(1.02214 0.0046477 0)
(1.02045 0.00424863 0)
(1.01885 0.00376054 0)
(1.0174 0.00312218 0)
(1.01609 0.00237032 0)
(1.01494 0.00122451 0)
(1.01388 -7.17747e-05 0)
(1.01283 -0.00204329 0)
(1.00238 0.0218781 0)
(1.02665 0.0275495 0)
(1.04102 0.0206088 0)
(1.04462 0.0178652 0)
(1.04612 0.0165731 0)
(1.04803 0.0150919 0)
(1.0498 0.0138771 0)
(1.05116 0.0130328 0)
(1.05227 0.0123761 0)
(1.05325 0.0118139 0)
(1.05413 0.0113286 0)
(1.05492 0.0109097 0)
(1.05562 0.0105434 0)
(1.05624 0.010218 0)
(1.05678 0.00992537 0)
(1.05723 0.00965976 0)
(1.05759 0.00941666 0)
(1.05786 0.00919247 0)
(1.05804 0.00898435 0)
(1.05812 0.00878996 0)
(1.05811 0.00860743 0)
(1.058 0.00843515 0)
(1.0578 0.00827177 0)
(1.05751 0.00811608 0)
(1.05712 0.007967 0)
(1.05665 0.00782353 0)
(1.05608 0.00768472 0)
(1.05544 0.00754963 0)
(1.05472 0.00741731 0)
(1.05393 0.00728679 0)
(1.05307 0.00715698 0)
(1.05215 0.00702678 0)
(1.05117 0.00689465 0)
(1.05015 0.00675937 0)
(1.04908 0.00661839 0)
(1.04798 0.00647057 0)
(1.04685 0.00631118 0)
(1.0457 0.00613976 0)
(1.04454 0.00594724 0)
(1.04339 0.00573481 0)
(1.04224 0.00548585 0)
(1.04112 0.0052026 0)
(1.04003 0.00485994 0)
(1.039 0.0044494 0)
(1.03804 0.00395099 0)
(1.03716 0.00329546 0)
(1.03637 0.0025192 0)
(1.03567 0.00137418 0)
(1.03499 5.29733e-05 0)
(1.03421 -0.00182694 0)
(1.0021 0.0200634 0)
(1.02431 0.0264383 0)
(1.03829 0.0201097 0)
(1.04209 0.0174517 0)
(1.04362 0.0163079 0)
(1.0455 0.0149346 0)
(1.04727 0.0137462 0)
(1.04863 0.0129126 0)
(1.04973 0.0122706 0)
(1.05069 0.0117208 0)
(1.05157 0.011244 0)
(1.05236 0.0108319 0)
(1.05308 0.0104718 0)
(1.05374 0.0101523 0)
(1.05434 0.00986569 0)
(1.05488 0.00960619 0)
(1.05537 0.00936948 0)
(1.05581 0.00915207 0)
(1.05619 0.00895112 0)
(1.05652 0.00876433 0)
(1.05679 0.00858979 0)
(1.05701 0.00842588 0)
(1.05716 0.00827117 0)
(1.05726 0.00812441 0)
(1.0573 0.00798446 0)
(1.05728 0.00785022 0)
(1.0572 0.00772069 0)
(1.05706 0.00759484 0)
(1.05687 0.00747165 0)
(1.05663 0.00735009 0)
(1.05633 0.00722896 0)
(1.05599 0.00710711 0)
(1.05561 0.0069829 0)
(1.05518 0.00685502 0)
(1.05472 0.00672085 0)
(1.05422 0.00657907 0)
(1.0537 0.00642499 0)
(1.05317 0.00625766 0)
(1.05261 0.00606854 0)
(1.05206 0.00585736 0)
(1.0515 0.00560943 0)
(1.05096 0.00532334 0)
(1.05044 0.00497857 0)
(1.04995 0.00455999 0)
(1.04951 0.00405405 0)
(1.04911 0.00338812 0)
(1.04878 0.00259457 0)
(1.04846 0.00146018 0)
(1.04811 0.000132988 0)
(1.0476 -0.00166377 0)
(1.00185 0.0183565 0)
(1.02211 0.0253184 0)
(1.03566 0.019625 0)
(1.03966 0.0170404 0)
(1.04121 0.0160286 0)
(1.04306 0.0147691 0)
(1.04482 0.0136127 0)
(1.04619 0.01279 0)
(1.04727 0.0121628 0)
(1.04823 0.011626 0)
(1.04909 0.011158 0)
(1.04987 0.0107524 0)
(1.05058 0.0103977 0)
(1.05124 0.0100832 0)
(1.05185 0.00980088 0)
(1.05241 0.00954546 0)
(1.05294 0.00931271 0)
(1.05342 0.00909925 0)
(1.05388 0.00890234 0)
(1.0543 0.00871975 0)
(1.05468 0.00854961 0)
(1.05503 0.00839031 0)
(1.05534 0.00824045 0)
(1.05563 0.00809877 0)
(1.05587 0.0079641 0)
(1.05608 0.00783532 0)
(1.05625 0.00771138 0)
(1.05639 0.00759122 0)
(1.0565 0.00747377 0)
(1.05657 0.00735793 0)
(1.05661 0.00724245 0)
(1.05661 0.00712611 0)
(1.05659 0.0070072 0)
(1.05654 0.00688433 0)
(1.05647 0.00675481 0)
(1.05637 0.00661712 0)
(1.05626 0.00646671 0)
(1.05613 0.00630207 0)
(1.05599 0.00611524 0)
(1.05585 0.00590459 0)
(1.05571 0.00565719 0)
(1.05558 0.00536852 0)
(1.05547 0.00502188 0)
(1.05538 0.00459722 0)
(1.05533 0.00408519 0)
(1.0553 0.00341358 0)
(1.0553 0.00260843 0)
(1.05528 0.00149052 0)
(1.05519 0.000169358 0)
(1.05491 -0.00154801 0)
(1.00162 0.0167571 0)
(1.02005 0.0241941 0)
(1.03312 0.0191506 0)
(1.03731 0.0166328 0)
(1.03889 0.0157362 0)
(1.0407 0.0145949 0)
(1.04247 0.0134763 0)
(1.04383 0.012665 0)
(1.04491 0.0120526 0)
(1.04585 0.0115294 0)
(1.0467 0.0110708 0)
(1.04747 0.0106718 0)
(1.04817 0.0103227 0)
(1.04881 0.0100127 0)
(1.04941 0.00973443 0)
(1.04997 0.00948244 0)
(1.0505 0.00925274 0)
(1.05099 0.00904208 0)
(1.05146 0.00884782 0)
(1.0519 0.00866779 0)
(1.05232 0.00850019 0)
(1.05271 0.00834347 0)
(1.05309 0.00819626 0)
(1.05344 0.0080573 0)
(1.05377 0.00792545 0)
(1.05408 0.0077996 0)
(1.05437 0.00767865 0)
(1.05463 0.00756156 0)
(1.05488 0.00744721 0)
(1.05511 0.00733449 0)
(1.05532 0.0072221 0)
(1.05551 0.00710876 0)
(1.05568 0.00699273 0)
(1.05584 0.00687252 0)
(1.05598 0.00674544 0)
(1.05612 0.00660977 0)
(1.05624 0.00646108 0)
(1.05636 0.00629737 0)
(1.05648 0.00611126 0)
(1.0566 0.00589987 0)
(1.05673 0.00565187 0)
(1.05686 0.00536014 0)
(1.05701 0.00501102 0)
(1.05718 0.00458124 0)
(1.05738 0.00406367 0)
(1.05759 0.00338944 0)
(1.05781 0.00257707 0)
(1.058 0.00147903 0)
(1.05808 0.000173904 0)
(1.05795 -0.00146984 0)
(1.00142 0.0152643 0)
(1.01812 0.0230695 0)
(1.0307 0.0186826 0)
(1.03505 0.0162304 0)
(1.03666 0.0154322 0)
(1.03844 0.0144113 0)
(1.04019 0.0133366 0)
(1.04157 0.0125377 0)
(1.04264 0.0119398 0)
(1.04357 0.0114309 0)
(1.0444 0.0109822 0)
(1.04516 0.0105902 0)
(1.04585 0.0102467 0)
(1.04648 0.00994155 0)
(1.04707 0.00966722 0)
(1.04762 0.00941857 0)
(1.04813 0.00919171 0)
(1.04862 0.00898351 0)
(1.04908 0.00879141 0)
(1.04952 0.00861332 0)
(1.04994 0.0084475 0)
(1.05034 0.00829244 0)
(1.05073 0.00814682 0)
(1.0511 0.00800942 0)
(1.05146 0.00787909 0)
(1.0518 0.00775474 0)
(1.05213 0.0076353 0)
(1.05244 0.00751969 0)
(1.05275 0.00740679 0)
(1.05304 0.00729548 0)
(1.05333 0.00718442 0)
(1.0536 0.00707233 0)
(1.05387 0.00695739 0)
(1.05412 0.00683808 0)
(1.05438 0.00671169 0)
(1.05463 0.00657634 0)
(1.05488 0.00642773 0)
(1.05513 0.0062634 0)
(1.05538 0.00607654 0)
(1.05564 0.00586316 0)
(1.05591 0.00561331 0)
(1.0562 0.00531792 0)
(1.0565 0.00496544 0)
(1.05682 0.00453098 0)
(1.05716 0.00400807 0)
(1.05751 0.0033331 0)
(1.05785 0.00251702 0)
(1.05815 0.00144044 0)
(1.05833 0.000158162 0)
(1.05829 -0.00141732 0)
(1.00124 0.0138769 0)
(1.01633 0.0219485 0)
(1.02838 0.0182172 0)
(1.03287 0.0158343 0)
(1.03453 0.0151181 0)
(1.03627 0.0142177 0)
(1.03801 0.0131933 0)
(1.03939 0.012408 0)
(1.04046 0.0118244 0)
(1.04138 0.0113303 0)
(1.0422 0.0108921 0)
(1.04294 0.0105075 0)
(1.04362 0.0101698 0)
(1.04424 0.00986961 0)
(1.04482 0.00959939 0)
(1.04536 0.00935416 0)
(1.04586 0.00913016 0)
(1.04634 0.00892437 0)
(1.04679 0.00873434 0)
(1.04722 0.00855802 0)
(1.04763 0.00839374 0)
(1.04803 0.00824002 0)
(1.04841 0.00809559 0)
(1.04878 0.00795926 0)
(1.04914 0.00782989 0)
(1.04948 0.0077064 0)
(1.04982 0.00758773 0)
(1.05015 0.0074728 0)
(1.05047 0.00736049 0)
(1.05079 0.00724965 0)
(1.05109 0.00713894 0)
(1.0514 0.00702703 0)
(1.0517 0.00691213 0)
(1.052 0.0067926 0)
(1.05229 0.00666578 0)
(1.05259 0.0065296 0)
(1.0529 0.00637994 0)
(1.05321 0.00621391 0)
(1.05352 0.0060252 0)
(1.05385 0.00580895 0)
(1.05419 0.00555627 0)
(1.05454 0.00525673 0)
(1.05492 0.00490022 0)
(1.05531 0.00446137 0)
(1.05571 0.00393339 0)
(1.05612 0.00325892 0)
(1.05652 0.00244211 0)
(1.05686 0.00138755 0)
(1.05708 0.000132702 0)
(1.05708 -0.00137929 0)
(1.00107 0.0125928 0)
(1.01467 0.0208352 0)
(1.02617 0.017751 0)
(1.03078 0.0154456 0)
(1.0325 0.0147957 0)
(1.03419 0.0140138 0)
(1.03592 0.0130458 0)
(1.0373 0.012276 0)
(1.03837 0.0117064 0)
(1.03927 0.0112274 0)
(1.04009 0.0108004 0)
(1.04082 0.0104236 0)
(1.04149 0.010092 0)
(1.0421 0.00979684 0)
(1.04266 0.00953089 0)
(1.04319 0.00928919 0)
(1.04368 0.00906814 0)
(1.04415 0.00886484 0)
(1.04459 0.0086769 0)
(1.04501 0.00850235 0)
(1.04541 0.00833956 0)
(1.0458 0.00818713 0)
(1.04618 0.00804378 0)
(1.04654 0.00790836 0)
(1.04689 0.00777975 0)
(1.04723 0.00765688 0)
(1.04756 0.00753869 0)
(1.04789 0.00742411 0)
(1.04821 0.00731199 0)
(1.04852 0.0072012 0)
(1.04883 0.00709037 0)
(1.04914 0.00697814 0)
(1.04945 0.00686271 0)
(1.04976 0.00674237 0)
(1.05007 0.00661451 0)
(1.05038 0.00647688 0)
(1.0507 0.00632552 0)
(1.05103 0.00615718 0)
(1.05137 0.00596598 0)
(1.05172 0.00574636 0)
(1.05208 0.00549026 0)
(1.05246 0.0051864 0)
(1.05286 0.00482548 0)
(1.05327 0.00438263 0)
(1.0537 0.00385007 0)
(1.05412 0.00317711 0)
(1.05453 0.00236223 0)
(1.05487 0.00132988 0)
(1.05509 0.000105553 0)
(1.05509 -0.00134708 0)
(1.00093 0.0114093 0)
(1.01315 0.0197337 0)
(1.02408 0.0172808 0)
(1.02878 0.0150648 0)
(1.03056 0.0144671 0)
(1.03221 0.0137991 0)
(1.03391 0.0128936 0)
(1.0353 0.0121416 0)
(1.03637 0.0115857 0)
(1.03726 0.011122 0)
(1.03807 0.010707 0)
(1.03879 0.0103383 0)
(1.03945 0.010013 0)
(1.04005 0.00972316 0)
(1.04061 0.00946164 0)
(1.04112 0.00922362 0)
(1.0416 0.00900563 0)
(1.04206 0.00880489 0)
(1.04249 0.0086191 0)
(1.0429 0.00844637 0)
(1.04329 0.00828512 0)
(1.04367 0.00813397 0)
(1.04404 0.00799171 0)
(1.04439 0.00785718 0)
(1.04473 0.00772929 0)
(1.04506 0.00760699 0)
(1.04539 0.00748919 0)
(1.04571 0.00737484 0)
(1.04602 0.00726279 0)
(1.04633 0.00715188 0)
(1.04663 0.00704074 0)
(1.04694 0.00692798 0)
(1.04724 0.00681179 0)
(1.04755 0.00669039 0)
(1.04786 0.00656121 0)
(1.04817 0.00642184 0)
(1.04849 0.00626849 0)
(1.04882 0.00609757 0)
(1.04915 0.00590358 0)
(1.0495 0.00568043 0)
(1.04987 0.00542067 0)
(1.05025 0.00511256 0)
(1.05065 0.00474722 0)
(1.05105 0.00430087 0)
(1.05147 0.00376457 0)
(1.05188 0.00309407 0)
(1.05227 0.00228359 0)
(1.05259 0.00127363 0)
(1.05279 8.1846e-05 0)
(1.05277 -0.00131465 0)
(1.0008 0.0103232 0)
(1.01175 0.0186481 0)
(1.02209 0.0168041 0)
(1.02687 0.0146922 0)
(1.0287 0.0141343 0)
(1.03032 0.0135737 0)
(1.032 0.012736 0)
(1.03338 0.0120049 0)
(1.03445 0.0114624 0)
(1.03534 0.0110142 0)
(1.03614 0.0106117 0)
(1.03686 0.0102516 0)
(1.0375 0.00993288 0)
(1.03809 0.0096485 0)
(1.03864 0.00939158 0)
(1.03914 0.00915737 0)
(1.03962 0.00894255 0)
(1.04006 0.00874446 0)
(1.04049 0.00856091 0)
(1.04089 0.00839006 0)
(1.04127 0.00823039 0)
(1.04164 0.00808058 0)
(1.04199 0.00793942 0)
(1.04234 0.00780581 0)
(1.04267 0.00767866 0)
(1.04299 0.00755692 0)
(1.04331 0.00743951 0)
(1.04362 0.00732538 0)
(1.04392 0.00721337 0)
(1.04422 0.0071023 0)
(1.04452 0.0069908 0)
(1.04482 0.00687744 0)
(1.04512 0.00676041 0)
(1.04541 0.00663788 0)
(1.04572 0.00650729 0)
(1.04602 0.00636611 0)
(1.04633 0.00621066 0)
(1.04665 0.00603712 0)
(1.04698 0.00584025 0)
(1.04733 0.00561364 0)
(1.04768 0.00535019 0)
(1.04805 0.00503813 0)
(1.04843 0.00466863 0)
(1.04883 0.00421943 0)
(1.04923 0.00368043 0)
(1.04961 0.00301339 0)
(1.04997 0.00220962 0)
(1.05025 0.00122235 0)
(1.05041 6.44261e-05 0)
(1.05037 -0.00127827 0)
(1.00069 0.00933067 0)
(1.01047 0.0175825 0)
(1.02022 0.0163184 0)
(1.02504 0.0143276 0)
(1.02694 0.0137991 0)
(1.02852 0.0133378 0)
(1.03017 0.0125725 0)
(1.03156 0.0118657 0)
(1.03263 0.0113365 0)
(1.03351 0.0109037 0)
(1.0343 0.0105143 0)
(1.03501 0.0101634 0)
(1.03565 0.00985149 0)
(1.03623 0.00957276 0)
(1.03677 0.0093206 0)
(1.03726 0.00909036 0)
(1.03773 0.00887883 0)
(1.03816 0.00868349 0)
(1.03858 0.00850225 0)
(1.03897 0.00833335 0)
(1.03934 0.00817533 0)
(1.0397 0.0080269 0)
(1.04005 0.0078869 0)
(1.04038 0.00775424 0)
(1.04071 0.00762786 0)
(1.04102 0.0075067 0)
(1.04133 0.00738971 0)
(1.04163 0.00727581 0)
(1.04193 0.00716385 0)
(1.04222 0.00705263 0)
(1.04251 0.00694077 0)
(1.0428 0.00682682 0)
(1.04309 0.00670895 0)
(1.04338 0.00658528 0)
(1.04367 0.00645328 0)
(1.04396 0.0063103 0)
(1.04427 0.00615276 0)
(1.04458 0.00597667 0)
(1.0449 0.00577697 0)
(1.04523 0.00554706 0)
(1.04557 0.0052801 0)
(1.04592 0.00496446 0)
(1.04629 0.00459128 0)
(1.04666 0.00413994 0)
(1.04703 0.00359945 0)
(1.04739 0.00293691 0)
(1.04771 0.00214201 0)
(1.04795 0.00117785 0)
(1.04807 5.4743e-05 0)
(1.048 -0.00123589 0)
(1.0006 0.00842738 0)
(1.00931 0.0165409 0)
(1.01846 0.015822 0)
(1.02329 0.0139708 0)
(1.02527 0.0134637 0)
(1.02682 0.0130917 0)
(1.02843 0.0124024 0)
(1.02982 0.0117238 0)
(1.03089 0.011208 0)
(1.03177 0.0107905 0)
(1.03255 0.0104147 0)
(1.03325 0.0100736 0)
(1.03388 0.00976874 0)
(1.03446 0.00949585 0)
(1.03498 0.00924863 0)
(1.03547 0.00902251 0)
(1.03593 0.00881439 0)
(1.03636 0.00862191 0)
(1.03676 0.00844307 0)
(1.03714 0.00827619 0)
(1.03751 0.00811987 0)
(1.03786 0.00797287 0)
(1.0382 0.00783408 0)
(1.03853 0.00770242 0)
(1.03884 0.00757684 0)
(1.03915 0.0074563 0)
(1.03945 0.00733976 0)
(1.03974 0.00722612 0)
(1.04003 0.00711423 0)
(1.04032 0.00700289 0)
(1.0406 0.00689069 0)
(1.04088 0.00677617 0)
(1.04116 0.00665749 0)
(1.04144 0.00653272 0)
(1.04172 0.00639934 0)
(1.04201 0.00625463 0)
(1.0423 0.00609507 0)
(1.0426 0.00591654 0)
(1.04291 0.00571413 0)
(1.04322 0.00548117 0)
(1.04355 0.00521094 0)
(1.04389 0.00489218 0)
(1.04423 0.0045159 0)
(1.04458 0.00406319 0)
(1.04493 0.00352251 0)
(1.04525 0.00286556 0)
(1.04554 0.00208148 0)
(1.04574 0.00114102 0)
(1.04582 5.33879e-05 0)
(1.04571 -0.00118641 0)
(1.00051 0.00760858 0)
(1.00826 0.0155273 0)
(1.01682 0.0153136 0)
(1.02163 0.0136212 0)
(1.02368 0.0131296 0)
(1.0252 0.0128363 0)
(1.02678 0.0122252 0)
(1.02816 0.0115789 0)
(1.02924 0.011077 0)
(1.03011 0.0106744 0)
(1.03088 0.0103128 0)
(1.03157 0.00998192 0)
(1.0322 0.00968453 0)
(1.03277 0.00941768 0)