/*--------------------------------*- C++ -*----------------------------------*\
  =========                 |
  \\      /  F ield         | OpenFOAM: The Open Source CFD Toolbox
   \\    /   O peration     | Website:  https://openfoam.org
    \\  /    A nd           | Version:  7
     \\/     M anipulation  |
\*---------------------------------------------------------------------------*/
FoamFile
{
    version     2.0;
    format      ascii;
    class       volVectorField;
    location    "0.39";
    object      vorticity;
}
// * * * * * * * * * * * * * * * * * * * * * * * * * * * * * * * * * * * * * //

dimensions      [0 0 -1 0 0 0 0];

internalField   nonuniform List<vector> 
70000
(
(0 -0 -45716.2)
(0 -0 -28618.7)
(0 -0 -20915.6)
(0 -0 -16983.3)
(0 -0 -14962.9)
(0 -0 -13656.5)
(0 -0 -12647.5)
(0 -0 -11835.4)
(0 -0 -11171.9)
(0 -0 -10618.2)
(0 -0 -10146.4)
(0 -0 -9737.9)
(0 -0 -9379.72)
(0 -0 -9062.52)
(0 -0 -8779.21)
(0 -0 -8524.3)
(0 -0 -8293.5)
(0 -0 -8083.36)
(0 -0 -7891.1)
(0 -0 -7714.47)
(0 -0 -7551.56)
(0 -0 -7400.82)
(0 -0 -7260.92)
(0 -0 -7130.73)
(0 -0 -7009.32)
(0 -0 -6895.86)
(0 -0 -6789.67)
(0 -0 -6690.14)
(0 -0 -6596.78)
(0 -0 -6509.14)
(0 -0 -6426.9)
(0 -0 -6349.74)
(0 -0 -6277.45)
(0 -0 -6209.83)
(0 -0 -6146.82)
(0 -0 -6088.35)
(0 -0 -6034.42)
(0 -0 -5985.3)
(0 -0 -5940.78)
(0 -0 -5902.08)
(0 -0 -5867.8)
(0 -0 -5842.22)
(0 -0 -5819.31)
(0 -0 -5812.88)
(0 -0 -5801.93)
(0 -0 -5828.2)
(0 -0 -5828.24)
(0 -0 -5912.61)
(0 -0 -5961.03)
(0 -0 -5856.94)
(0 -0 -13549.6)
(0 -0 -19947.5)
(0 -0 -18536.9)
(0 -0 -16251)
(0 -0 -14505.5)
(0 -0 -13281.9)
(0 -0 -12353.9)
(0 -0 -11603.9)
(0 -0 -10981.6)
(0 -0 -10456.3)
(0 -0 -10005.6)
(0 -0 -9613.47)
(0 -0 -9268.22)
(0 -0 -8961.34)
(0 -0 -8686.36)
(0 -0 -8438.23)
(0 -0 -8212.97)
(0 -0 -8007.38)
(0 -0 -7818.85)
(0 -0 -7645.24)
(0 -0 -7484.76)
(0 -0 -7335.93)
(0 -0 -7197.48)
(0 -0 -7068.34)
(0 -0 -6947.57)
(0 -0 -6834.39)
(0 -0 -6728.12)
(0 -0 -6628.16)
(0 -0 -6534.01)
(0 -0 -6445.22)
(0 -0 -6361.41)
(0 -0 -6282.26)
(0 -0 -6207.51)
(0 -0 -6136.92)
(0 -0 -6070.34)
(0 -0 -6007.62)
(0 -0 -5948.67)
(0 -0 -5893.6)
(0 -0 -5842.12)
(0 -0 -5795.07)
(0 -0 -5751.21)
(0 -0 -5713.64)
(0 -0 -5677.62)
(0 -0 -5653.24)
(0 -0 -5624.67)
(0 -0 -5621.93)
(0 -0 -5599.49)
(0 -0 -5632.31)
(0 -0 -5636.14)
(0 -0 -5768.05)
(0 -0 -3818.71)
(0 -0 -10828.6)
(0 -0 -13363.2)
(0 -0 -13519.7)
(0 -0 -12866.7)
(0 -0 -12140.8)
(0 -0 -11499.4)
(0 -0 -10939.1)
(0 -0 -10447.3)
(0 -0 -10014.7)
(0 -0 -9632.55)
(0 -0 -9292.75)
(0 -0 -8988.54)
(0 -0 -8714.47)
(0 -0 -8466.13)
(0 -0 -8239.93)
(0 -0 -8032.92)
(0 -0 -7842.69)
(0 -0 -7667.17)
(0 -0 -7504.67)
(0 -0 -7353.74)
(0 -0 -7213.13)
(0 -0 -7081.78)
(0 -0 -6958.78)
(0 -0 -6843.34)
(0 -0 -6734.76)
(0 -0 -6632.43)
(0 -0 -6535.84)
(0 -0 -6444.51)
(0 -0 -6358.04)
(0 -0 -6276.07)
(0 -0 -6198.28)
(0 -0 -6124.41)
(0 -0 -6054.21)
(0 -0 -5987.5)
(0 -0 -5924.1)
(0 -0 -5863.88)
(0 -0 -5806.8)
(0 -0 -5752.64)
(0 -0 -5701.8)
(0 -0 -5653.47)
(0 -0 -5609.43)
(0 -0 -5566.75)
(0 -0 -5531.3)
(0 -0 -5493.84)
(0 -0 -5470.94)
(0 -0 -5438.63)
(0 -0 -5433.8)
(0 -0 -5412.37)
(0 -0 -5528.35)
(0 -0 -533.081)
(0 -0 -4662.41)
(0 -0 -7717.95)
(0 -0 -9328.02)
(0 -0 -9892.05)
(0 -0 -9957.73)
(0 -0 -9826.37)
(0 -0 -9614.7)
(0 -0 -9371.52)
(0 -0 -9121.51)
(0 -0 -8877.09)
(0 -0 -8643.85)
(0 -0 -8423.88)
(0 -0 -8217.63)
(0 -0 -8024.74)
(0 -0 -7844.48)
(0 -0 -7675.99)
(0 -0 -7518.36)
(0 -0 -7370.71)
(0 -0 -7232.21)
(0 -0 -7102.09)
(0 -0 -6979.64)
(0 -0 -6864.24)
(0 -0 -6755.3)
(0 -0 -6652.31)
(0 -0 -6554.8)
(0 -0 -6462.34)
(0 -0 -6374.56)
(0 -0 -6291.12)
(0 -0 -6211.7)
(0 -0 -6136.02)
(0 -0 -6063.85)
(0 -0 -5994.95)
(0 -0 -5929.12)
(0 -0 -5866.19)
(0 -0 -5806)
(0 -0 -5748.42)
(0 -0 -5693.34)
(0 -0 -5640.63)
(0 -0 -5590.35)
(0 -0 -5542.2)
(0 -0 -5496.69)
(0 -0 -5452.91)
(0 -0 -5412.54)
(0 -0 -5373.27)
(0 -0 -5338.52)
(0 -0 -5305.62)
(0 -0 -5275.73)
(0 -0 -5254.2)
(0 -0 -5279.9)
(0 -0 322.39)
(0 -0 -1444.43)
(0 -0 -3532.15)
(0 -0 -5258.5)
(0 -0 -6398.54)
(0 -0 -7073.49)
(0 -0 -7451.24)
(0 -0 -7642.18)
(0 -0 -7714.5)
(0 -0 -7712.43)
(0 -0 -7664.53)
(0 -0 -7588.89)
(0 -0 -7496.91)
(0 -0 -7395.88)
(0 -0 -7290.49)
(0 -0 -7183.76)
(0 -0 -7077.63)
(0 -0 -6973.36)
(0 -0 -6871.72)
(0 -0 -6773.16)
(0 -0 -6677.96)
(0 -0 -6586.21)
(0 -0 -6497.95)
(0 -0 -6413.13)
(0 -0 -6331.66)
(0 -0 -6253.44)
(0 -0 -6178.33)
(0 -0 -6106.22)
(0 -0 -6036.96)
(0 -0 -5970.42)
(0 -0 -5906.47)
(0 -0 -5844.98)
(0 -0 -5785.83)
(0 -0 -5728.9)
(0 -0 -5674.09)
(0 -0 -5621.27)
(0 -0 -5570.4)
(0 -0 -5521.33)
(0 -0 -5474.07)
(0 -0 -5428.4)
(0 -0 -5384.53)
(0 -0 -5341.94)
(0 -0 -5301.49)
(0 -0 -5261.44)
(0 -0 -5225.2)
(0 -0 -5185.95)
(0 -0 -5157.38)
(0 -0 -5113.85)
(0 -0 -5101.7)
(0 -0 -5068.58)
(0 -0 364.657)
(0 -0 -158.545)
(0 -0 -1181.29)
(0 -0 -2361.49)
(0 -0 -3416.77)
(0 -0 -4255.34)
(0 -0 -4890.55)
(0 -0 -5356.29)
(0 -0 -5687.59)
(0 -0 -5916.44)
(0 -0 -6069.13)
(0 -0 -6165.77)
(0 -0 -6221.27)
(0 -0 -6246.6)
(0 -0 -6249.83)
(0 -0 -6236.86)
(0 -0 -6212.07)
(0 -0 -6178.72)
(0 -0 -6139.23)
(0 -0 -6095.41)
(0 -0 -6048.64)
(0 -0 -5999.94)
(0 -0 -5950.1)
(0 -0 -5899.72)
(0 -0 -5849.24)
(0 -0 -5799)
(0 -0 -5749.25)
(0 -0 -5700.18)
(0 -0 -5651.93)
(0 -0 -5604.59)
(0 -0 -5558.25)
(0 -0 -5512.93)
(0 -0 -5468.66)
(0 -0 -5425.46)
(0 -0 -5383.33)
(0 -0 -5342.23)
(0 -0 -5302.21)
(0 -0 -5263.13)
(0 -0 -5225.16)
(0 -0 -5187.93)
(0 -0 -5152.01)
(0 -0 -5116.25)
(0 -0 -5082.65)
(0 -0 -5047.41)
(0 -0 -5017.34)
(0 -0 -4979.9)
(0 -0 -4957.31)
(0 -0 -4911.22)
(0 -0 -4904.3)
(0 -0 -4855.1)
(0 -0 253.986)
(0 -0 185.266)
(0 -0 -173.211)
(0 -0 -764.372)
(0 -0 -1447.14)
(0 -0 -2114.72)
(0 -0 -2719.83)
(0 -0 -3242.99)
(0 -0 -3680.05)
(0 -0 -4036.77)
(0 -0 -4323.39)
(0 -0 -4551.03)
(0 -0 -4730)
(0 -0 -4869.28)
(0 -0 -4976.36)
(0 -0 -5057.42)
(0 -0 -5117.47)
(0 -0 -5160.56)
(0 -0 -5189.95)
(0 -0 -5208.26)
(0 -0 -5217.61)
(0 -0 -5219.7)
(0 -0 -5215.93)
(0 -0 -5207.42)
(0 -0 -5195.08)
(0 -0 -5179.67)
(0 -0 -5161.8)
(0 -0 -5141.98)
(0 -0 -5120.62)
(0 -0 -5098.06)
(0 -0 -5074.58)
(0 -0 -5050.42)
(0 -0 -5025.76)
(0 -0 -5000.76)
(0 -0 -4975.55)
(0 -0 -4950.22)
(0 -0 -4924.88)
(0 -0 -4899.5)
(0 -0 -4874.32)
(0 -0 -4848.99)
(0 -0 -4824.22)
(0 -0 -4798.71)
(0 -0 -4774.82)
(0 -0 -4748.17)
(0 -0 -4726.44)
(0 -0 -4695.92)
(0 -0 -4679.77)
(0 -0 -4639.71)
(0 -0 -4633.81)
(0 -0 -4588.84)
(0 -0 178.716)
(0 -0 204.463)
(0 -0 130.654)
(0 -0 -85.0974)
(0 -0 -417.591)
(0 -0 -814.411)
(0 -0 -1235.75)
(0 -0 -1652.74)
(0 -0 -2045.53)
(0 -0 -2403.12)
(0 -0 -2721.25)
(0 -0 -2999.81)
(0 -0 -3240.99)
(0 -0 -3448.08)
(0 -0 -3624.82)
(0 -0 -3774.92)
(0 -0 -3901.88)
(0 -0 -4008.86)
(0 -0 -4098.65)
(0 -0 -4173.69)
(0 -0 -4236.09)
(0 -0 -4287.65)
(0 -0 -4329.93)
(0 -0 -4364.24)
(0 -0 -4391.71)
(0 -0 -4413.31)
(0 -0 -4429.87)
(0 -0 -4442.09)
(0 -0 -4450.57)
(0 -0 -4455.84)
(0 -0 -4458.33)
(0 -0 -4458.42)
(0 -0 -4456.44)
(0 -0 -4452.68)
(0 -0 -4447.36)
(0 -0 -4440.69)
(0 -0 -4432.86)
(0 -0 -4423.95)
(0 -0 -4414.21)
(0 -0 -4403.44)
(0 -0 -4392.29)
(0 -0 -4379.66)
(0 -0 -4367.68)
(0 -0 -4352.45)
(0 -0 -4340.79)
(0 -0 -4320.64)
(0 -0 -4311.77)
(0 -0 -4282.4)
(0 -0 -4277.77)
(0 -0 -4242.52)
(0 -0 147.989)
(0 -0 164.572)
(0 -0 169.953)
(0 -0 120.985)
(0 -0 1.14411)
(0 -0 -180.49)
(0 -0 -408.571)
(0 -0 -666.781)
(0 -0 -939.306)
(0 -0 -1213.23)
(0 -0 -1479.33)
(0 -0 -1731.58)
(0 -0 -1966.48)
(0 -0 -2182.34)
(0 -0 -2378.75)
(0 -0 -2556.17)
(0 -0 -2715.53)
(0 -0 -2858.09)
(0 -0 -2985.2)
(0 -0 -3098.26)
(0 -0 -3198.62)
(0 -0 -3287.56)
(0 -0 -3366.26)
(0 -0 -3435.8)
(0 -0 -3497.17)
(0 -0 -3551.24)
(0 -0 -3598.8)
(0 -0 -3640.56)
(0 -0 -3677.13)
(0 -0 -3709.09)
(0 -0 -3736.91)
(0 -0 -3761.04)
(0 -0 -3781.86)
(0 -0 -3799.71)
(0 -0 -3814.88)
(0 -0 -3827.65)
(0 -0 -3838.23)
(0 -0 -3846.8)
(0 -0 -3853.6)
(0 -0 -3858.57)
(0 -0 -3862.22)
(0 -0 -3863.8)
(0 -0 -3864.92)
(0 -0 -3862.6)
(0 -0 -3862.14)
(0 -0 -3854.08)
(0 -0 -3853.63)
(0 -0 -3836.59)
(0 -0 -3835.48)
(0 -0 -3811.03)
(0 -0 136.794)
(0 -0 137.04)
(0 -0 148.702)
(0 -0 149.654)
(0 -0 122.203)
(0 -0 60.1938)
(0 -0 -36.204)
(0 -0 -163.355)
(0 -0 -314.926)
(0 -0 -483.622)
(0 -0 -662.535)
(0 -0 -845.757)
(0 -0 -1028.55)
(0 -0 -1207.34)
(0 -0 -1379.55)
(0 -0 -1543.48)
(0 -0 -1698.12)
(0 -0 -1842.94)
(0 -0 -1977.82)
(0 -0 -2102.88)
(0 -0 -2218.44)
(0 -0 -2324.94)
(0 -0 -2422.88)
(0 -0 -2512.79)
(0 -0 -2595.22)
(0 -0 -2670.71)
(0 -0 -2739.8)
(0 -0 -2802.96)
(0 -0 -2860.69)
(0 -0 -2913.4)
(0 -0 -2961.51)
(0 -0 -3005.4)
(0 -0 -3045.39)
(0 -0 -3081.81)
(0 -0 -3114.92)
(0 -0 -3145.01)
(0 -0 -3172.26)
(0 -0 -3196.9)
(0 -0 -3219.09)
(0 -0 -3238.92)
(0 -0 -3256.7)
(0 -0 -3271.98)
(0 -0 -3285.92)
(0 -0 -3296.32)
(0 -0 -3307.1)
(0 -0 -3311.16)
(0 -0 -3319.64)
(0 -0 -3314.83)
(0 -0 -3319.07)
(0 -0 -3305.45)
(0 -0 129.91)
(0 -0 123.968)
(0 -0 129.153)
(0 -0 136.354)
(0 -0 136.452)
(0 -0 123.212)
(0 -0 92.9841)
(0 -0 43.9073)
(0 -0 -23.8681)
(0 -0 -108.524)
(0 -0 -207.302)
(0 -0 -317.074)
(0 -0 -434.705)
(0 -0 -557.296)
(0 -0 -682.315)
(0 -0 -807.649)
(0 -0 -931.602)
(0 -0 -1052.86)
(0 -0 -1170.44)
(0 -0 -1283.66)
(0 -0 -1392.03)
(0 -0 -1495.29)
(0 -0 -1593.29)
(0 -0 -1686.01)
(0 -0 -1773.52)
(0 -0 -1855.92)
(0 -0 -1933.38)
(0 -0 -2006.1)
(0 -0 -2074.27)
(0 -0 -2138.13)
(0 -0 -2197.89)
(0 -0 -2253.78)
(0 -0 -2305.99)
(0 -0 -2354.76)
(0 -0 -2400.25)
(0 -0 -2442.66)
(0 -0 -2482.14)
(0 -0 -2518.86)
(0 -0 -2552.93)
(0 -0 -2584.44)
(0 -0 -2613.58)
(0 -0 -2640.08)
(0 -0 -2664.71)
(0 -0 -2685.87)
(0 -0 -2706.4)
(0 -0 -2721.02)
(0 -0 -2737.67)
(0 -0 -2743.7)
(0 -0 -2753.85)
(0 -0 -2750.25)
(0 -0 122.918)
(0 -0 116.614)
(0 -0 117.986)
(0 -0 122.464)
(0 -0 126.408)
(0 -0 126.885)
(0 -0 121.424)
(0 -0 107.72)
(0 -0 84.1239)
(0 -0 49.9181)
(0 -0 5.18545)
(0 -0 -49.3745)
(0 -0 -112.646)
(0 -0 -183.271)
(0 -0 -259.805)
(0 -0 -340.82)
(0 -0 -424.979)
(0 -0 -511.079)
(0 -0 -598.072)
(0 -0 -685.065)
(0 -0 -771.319)
(0 -0 -856.233)
(0 -0 -939.331)
(0 -0 -1020.24)
(0 -0 -1098.7)
(0 -0 -1174.5)
(0 -0 -1247.52)
(0 -0 -1317.67)
(0 -0 -1384.91)
(0 -0 -1449.26)
(0 -0 -1510.72)
(0 -0 -1569.34)
(0 -0 -1625.18)
(0 -0 -1678.31)
(0 -0 -1728.78)
(0 -0 -1776.7)
(0 -0 -1822.1)
(0 -0 -1865.09)
(0 -0 -1905.68)
(0 -0 -1943.94)
(0 -0 -1979.94)
(0 -0 -2013.48)
(0 -0 -2045.07)
(0 -0 -2073.49)
(0 -0 -2100.77)
(0 -0 -2123.03)
(0 -0 -2145.71)
(0 -0 -2160.06)
(0 -0 -2175.31)
(0 -0 -2180)
(0 -0 115.595)
(0 -0 110.38)
(0 -0 110.704)
(0 -0 113.146)
(0 -0 115.96)
(0 -0 118.222)
(0 -0 119.103)
(0 -0 117.401)
(0 -0 111.831)
(0 -0 101.335)
(0 -0 85.1842)
(0 -0 62.9965)
(0 -0 34.7085)
(0 -0 0.530327)
(0 -0 -39.1199)
(0 -0 -83.6819)
(0 -0 -132.512)
(0 -0 -184.929)
(0 -0 -240.256)
(0 -0 -297.842)
(0 -0 -357.079)
(0 -0 -417.416)
(0 -0 -478.36)
(0 -0 -539.48)
(0 -0 -600.402)
(0 -0 -660.809)
(0 -0 -720.432)
(0 -0 -779.052)
(0 -0 -836.486)
(0 -0 -892.592)
(0 -0 -947.25)
(0 -0 -1000.38)
(0 -0 -1051.9)
(0 -0 -1101.77)
(0 -0 -1149.95)
(0 -0 -1196.43)
(0 -0 -1241.16)
(0 -0 -1284.15)
(0 -0 -1325.36)
(0 -0 -1364.77)
(0 -0 -1402.4)
(0 -0 -1438.03)
(0 -0 -1472)
(0 -0 -1503.35)
(0 -0 -1533.47)
(0 -0 -1559.58)
(0 -0 -1585.2)
(0 -0 -1604.54)
(0 -0 -1622.98)
(0 -0 -1633.45)
(0 -0 108.348)
(0 -0 104.161)
(0 -0 104.377)
(0 -0 106.09)
(0 -0 107.961)
(0 -0 109.673)
(0 -0 111.212)
(0 -0 112.231)
(0 -0 112.148)
(0 -0 110.332)
(0 -0 106.191)
(0 -0 99.2193)
(0 -0 89.0354)
(0 -0 75.394)
(0 -0 58.1926)
(0 -0 37.449)
(0 -0 13.2866)
(0 -0 -14.0901)
(0 -0 -44.4182)
(0 -0 -77.3962)
(0 -0 -112.702)
(0 -0 -150.005)
(0 -0 -188.982)
(0 -0 -229.317)
(0 -0 -270.714)
(0 -0 -312.897)
(0 -0 -355.612)
(0 -0 -398.631)
(0 -0 -441.746)
(0 -0 -484.776)
(0 -0 -527.554)
(0 -0 -569.941)
(0 -0 -611.806)
(0 -0 -653.046)
(0 -0 -693.552)
(0 -0 -733.254)
(0 -0 -772.052)
(0 -0 -809.894)
(0 -0 -846.696)
(0 -0 -882.376)
(0 -0 -916.916)
(0 -0 -950.07)
(0 -0 -982.065)
(0 -0 -1012.15)
(0 -0 -1041.21)
(0 -0 -1067.33)
(0 -0 -1092.63)
(0 -0 -1113.43)
(0 -0 -1132.65)
(0 -0 -1146.06)
(0 -0 101.368)
(0 -0 97.9673)
(0 -0 98.198)
(0 -0 99.6773)
(0 -0 101.194)
(0 -0 102.469)
(0 -0 103.695)
(0 -0 104.883)
(0 -0 105.86)
(0 -0 106.38)
(0 -0 106.16)
(0 -0 104.9)
(0 -0 102.307)
(0 -0 98.1202)
(0 -0 92.1256)
(0 -0 84.1664)
(0 -0 74.1443)
(0 -0 62.0176)
(0 -0 47.7958)
(0 -0 31.5323)
(0 -0 13.3163)
(0 -0 -6.73502)
(0 -0 -28.484)
(0 -0 -51.7793)
(0 -0 -76.4609)
(0 -0 -102.366)
(0 -0 -129.332)
(0 -0 -157.199)
(0 -0 -185.814)
(0 -0 -215.03)
(0 -0 -244.707)
(0 -0 -274.718)
(0 -0 -304.936)
(0 -0 -335.251)
(0 -0 -365.551)
(0 -0 -395.743)
(0 -0 -425.724)
(0 -0 -455.407)
(0 -0 -484.706)
(0 -0 -513.507)
(0 -0 -541.774)
(0 -0 -569.279)
(0 -0 -596.146)
(0 -0 -621.814)
(0 -0 -646.806)
(0 -0 -669.864)
(0 -0 -692.15)
(0 -0 -711.445)
(0 -0 -729.161)
(0 -0 -742.858)
(0 -0 94.6892)
(0 -0 91.9155)
(0 -0 92.1348)
(0 -0 93.4656)
(0 -0 94.8509)
(0 -0 95.953)
(0 -0 96.9549)
(0 -0 97.955)
(0 -0 98.9255)
(0 -0 99.799)
(0 -0 100.486)
(0 -0 100.869)
(0 -0 100.809)
(0 -0 100.156)
(0 -0 98.7621)
(0 -0 96.4892)
(0 -0 93.2165)
(0 -0 88.845)
(0 -0 83.2999)
(0 -0 76.5316)
(0 -0 68.5145)
(0 -0 59.2452)
(0 -0 48.7408)
(0 -0 37.0351)
(0 -0 24.1766)
(0 -0 10.2252)
(0 -0 -4.7497)
(0 -0 -20.6729)
(0 -0 -37.4636)
(0 -0 -55.0396)
(0 -0 -73.3151)
(0 -0 -92.2077)
(0 -0 -111.629)
(0 -0 -131.501)
(0 -0 -151.738)
(0 -0 -172.262)
(0 -0 -192.991)
(0 -0 -213.845)
(0 -0 -234.751)
(0 -0 -255.604)
(0 -0 -276.368)
(0 -0 -296.855)
(0 -0 -317.122)
(0 -0 -336.785)
(0 -0 -356.11)
(0 -0 -374.326)
(0 -0 -391.992)
(0 -0 -407.848)
(0 -0 -422.48)
(0 -0 -434.526)
(0 -0 88.3107)
(0 -0 86.0574)
(0 -0 86.2585)
(0 -0 87.4402)
(0 -0 88.7277)
(0 -0 89.751)
(0 -0 90.647)
(0 -0 91.5192)
(0 -0 92.3717)
(0 -0 93.1897)
(0 -0 93.9574)
(0 -0 94.646)
(0 -0 95.2101)
(0 -0 95.5909)
(0 -0 95.72)
(0 -0 95.5237)
(0 -0 94.9269)
(0 -0 93.8566)
(0 -0 92.2454)
(0 -0 90.0337)
(0 -0 87.1711)
(0 -0 83.6176)
(0 -0 79.3438)
(0 -0 74.3313)
(0 -0 68.5717)
(0 -0 62.0663)
(0 -0 54.8246)
(0 -0 46.8645)
(0 -0 38.2102)
(0 -0 28.8911)
(0 -0 18.9423)
(0 -0 8.40176)
(0 -0 -2.68787)
(0 -0 -14.2832)
(0 -0 -26.3366)
(0 -0 -38.7994)
(0 -0 -51.6218)
(0 -0 -64.7472)
(0 -0 -78.1281)
(0 -0 -91.6893)
(0 -0 -105.396)
(0 -0 -119.126)
(0 -0 -132.894)
(0 -0 -146.461)
(0 -0 -159.938)
(0 -0 -172.891)
(0 -0 -185.54)
(0 -0 -197.213)
(0 -0 -208.101)
(0 -0 -217.458)
(0 -0 82.231)
(0 -0 80.411)
(0 -0 80.6026)
(0 -0 81.64)
(0 -0 82.8245)
(0 -0 83.7828)
(0 -0 84.6112)
(0 -0 85.4064)
(0 -0 86.1762)
(0 -0 86.9139)
(0 -0 87.621)
(0 -0 88.297)
(0 -0 88.9339)
(0 -0 89.5161)
(0 -0 90.0214)
(0 -0 90.4217)
(0 -0 90.6844)
(0 -0 90.7737)
(0 -0 90.6521)
(0 -0 90.2819)
(0 -0 89.6265)
(0 -0 88.6517)
(0 -0 87.3263)
(0 -0 85.623)
(0 -0 83.5191)
(0 -0 80.9965)
(0 -0 78.0421)
(0 -0 74.6472)
(0 -0 70.8083)
(0 -0 66.5258)
(0 -0 61.8044)
(0 -0 56.6533)
(0 -0 51.0822)
(0 -0 45.1102)
(0 -0 38.7533)
(0 -0 32.0339)
(0 -0 24.9743)
(0 -0 17.6055)
(0 -0 9.95089)
(0 -0 2.05609)
(0 -0 -6.06019)
(0 -0 -14.3234)
(0 -0 -22.733)
(0 -0 -31.1581)
(0 -0 -39.6302)
(0 -0 -47.9275)
(0 -0 -56.1098)
(0 -0 -63.8431)
(0 -0 -71.1597)
(0 -0 -77.6642)
(0 -0 76.4507)
(0 -0 74.9879)
(0 -0 75.179)
(0 -0 76.0849)
(0 -0 77.164)
(0 -0 78.0561)
(0 -0 78.8233)
(0 -0 79.5563)
(0 -0 80.2646)
(0 -0 80.9407)
(0 -0 81.5867)
(0 -0 82.2078)
(0 -0 82.8061)
(0 -0 83.3801)
(0 -0 83.9256)
(0 -0 84.4355)
(0 -0 84.8997)
(0 -0 85.3055)
(0 -0 85.6379)
(0 -0 85.8799)
(0 -0 86.0133)
(0 -0 86.0193)
(0 -0 85.8787)
(0 -0 85.5726)
(0 -0 85.0833)
(0 -0 84.3941)
(0 -0 83.4901)
(0 -0 82.3583)
(0 -0 80.9876)
(0 -0 79.3693)
(0 -0 77.4967)
(0 -0 75.3656)
(0 -0 72.9745)
(0 -0 70.3228)
(0 -0 67.413)
(0 -0 64.2512)
(0 -0 60.8425)
(0 -0 57.1995)
(0 -0 53.3291)
(0 -0 49.2548)
(0 -0 44.9797)
(0 -0 40.5459)
(0 -0 35.957)
(0 -0 31.2737)
(0 -0 26.4961)
(0 -0 21.7238)
(0 -0 16.9572)
(0 -0 12.348)
(0 -0 7.90892)
(0 -0 3.84312)
(0 -0 70.9696)
(0 -0 69.7982)
(0 -0 69.9948)
(0 -0 70.7835)
(0 -0 71.7592)
(0 -0 72.5849)
(0 -0 73.2926)
(0 -0 73.9665)
(0 -0 74.6193)
(0 -0 75.2424)
(0 -0 75.8367)
(0 -0 76.407)
(0 -0 76.9569)
(0 -0 77.4881)
(0 -0 78.0014)
(0 -0 78.4963)
(0 -0 78.9714)
(0 -0 79.4238)
(0 -0 79.8493)
(0 -0 80.2424)
(0 -0 80.5966)
(0 -0 80.9041)
(0 -0 81.1563)
(0 -0 81.3441)
(0 -0 81.4578)
(0 -0 81.4878)
(0 -0 81.4244)
(0 -0 81.2585)
(0 -0 80.9813)
(0 -0 80.5846)
(0 -0 80.0611)
(0 -0 79.4045)
(0 -0 78.609)
(0 -0 77.6707)
(0 -0 76.5857)
(0 -0 75.3529)
(0 -0 73.9705)
(0 -0 72.4409)
(0 -0 70.7643)
(0 -0 68.9472)
(0 -0 66.9934)
(0 -0 64.9137)
(0 -0 62.714)
(0 -0 60.4166)
(0 -0 58.0302)
(0 -0 55.5916)
(0 -0 53.1147)
(0 -0 50.6625)
(0 -0 48.2472)
(0 -0 45.9766)
(0 -0 65.786)
(0 -0 64.8506)
(0 -0 65.0555)
(0 -0 65.7409)
(0 -0 66.6168)
(0 -0 67.3776)
(0 -0 68.028)
(0 -0 68.645)
(0 -0 69.2442)
(0 -0 69.8175)
(0 -0 70.3641)
(0 -0 70.8883)
(0 -0 71.3932)
(0 -0 71.8812)
(0 -0 72.3535)
(0 -0 72.8114)
(0 -0 73.2556)
(0 -0 73.6863)
(0 -0 74.1033)
(0 -0 74.5057)
(0 -0 74.8919)
(0 -0 75.2597)
(0 -0 75.6063)
(0 -0 75.9283)
(0 -0 76.2216)
(0 -0 76.4821)
(0 -0 76.7053)
(0 -0 76.8865)
(0 -0 77.0208)
(0 -0 77.1035)
(0 -0 77.1298)
(0 -0 77.0953)
(0 -0 76.9954)
(0 -0 76.8263)
(0 -0 76.5841)
(0 -0 76.266)
(0 -0 75.8689)
(0 -0 75.3915)
(0 -0 74.8317)
(0 -0 74.1898)
(0 -0 73.4658)
(0 -0 72.6616)
(0 -0 71.7803)
(0 -0 70.826)
(0 -0 69.8066)
(0 -0 68.7308)
(0 -0 67.6097)
(0 -0 66.4671)
(0 -0 65.3036)
(0 -0 64.1809)
(0 -0 60.8974)
(0 -0 60.1514)
(0 -0 60.3653)
(0 -0 60.96)
(0 -0 61.7412)
(0 -0 62.4387)
(0 -0 63.0348)
(0 -0 63.5975)
(0 -0 64.1451)
(0 -0 64.6705)
(0 -0 65.1717)
(0 -0 65.6521)
(0 -0 66.115)
(0 -0 66.5621)
(0 -0 66.995)
(0 -0 67.4149)
(0 -0 67.823)
(0 -0 68.22)
(0 -0 68.6068)
(0 -0 68.9838)
(0 -0 69.3513)
(0 -0 69.7088)
(0 -0 70.056)
(0 -0 70.3919)
(0 -0 70.7152)
(0 -0 71.0247)
(0 -0 71.3185)
(0 -0 71.595)
(0 -0 71.8521)
(0 -0 72.0876)
(0 -0 72.2993)
(0 -0 72.4848)
(0 -0 72.6416)
(0 -0 72.7674)
(0 -0 72.8596)
(0 -0 72.9162)
(0 -0 72.9347)
(0 -0 72.9133)
(0 -0 72.8501)
(0 -0 72.7434)
(0 -0 72.5927)
(0 -0 72.3958)
(0 -0 72.1547)
(0 -0 71.8667)
(0 -0 71.537)
(0 -0 71.1641)
(0 -0 70.753)
(0 -0 70.3125)
(0 -0 69.8336)
(0 -0 69.3571)
(0 -0 56.2998)
(0 -0 55.7047)
(0 -0 55.9269)
(0 -0 56.4423)
(0 -0 57.1343)
(0 -0 57.7707)
(0 -0 58.3156)
(0 -0 58.8269)
(0 -0 59.3253)
(0 -0 59.8049)
(0 -0 60.2627)
(0 -0 60.7014)
(0 -0 61.1241)
(0 -0 61.5326)
(0 -0 61.9281)
(0 -0 62.3117)
(0 -0 62.6846)
(0 -0 63.0478)
(0 -0 63.402)
(0 -0 63.7481)
(0 -0 64.0866)
(0 -0 64.4179)
(0 -0 64.7419)
(0 -0 65.0588)
(0 -0 65.3682)
(0 -0 65.6698)
(0 -0 65.9632)
(0 -0 66.248)
(0 -0 66.5234)
(0 -0 66.7888)
(0 -0 67.0431)
(0 -0 67.2855)
(0 -0 67.5148)
(0 -0 67.73)
(0 -0 67.9296)
(0 -0 68.1124)
(0 -0 68.2772)
(0 -0 68.4225)
(0 -0 68.5472)
(0 -0 68.6494)
(0 -0 68.7287)
(0 -0 68.7824)
(0 -0 68.8116)
(0 -0 68.8123)
(0 -0 68.7872)
(0 -0 68.7327)
(0 -0 68.6491)
(0 -0 68.5409)
(0 -0 68.3935)
(0 -0 68.2391)
(0 -0 51.988)
(0 -0 51.5125)
(0 -0 51.7407)
(0 -0 52.1873)
(0 -0 52.7966)
(0 -0 53.3742)
(0 -0 53.8707)
(0 -0 54.3339)
(0 -0 54.7858)
(0 -0 55.2218)
(0 -0 55.6383)
(0 -0 56.0375)
(0 -0 56.422)
(0 -0 56.7936)
(0 -0 57.1535)
(0 -0 57.5028)
(0 -0 57.8423)
(0 -0 58.1731)
(0 -0 58.4959)
(0 -0 58.8116)
(0 -0 59.1207)
(0 -0 59.4236)
(0 -0 59.7206)
(0 -0 60.0118)
(0 -0 60.2971)
(0 -0 60.5768)
(0 -0 60.8506)
(0 -0 61.1186)
(0 -0 61.3806)
(0 -0 61.6365)
(0 -0 61.8859)
(0 -0 62.1286)
(0 -0 62.364)
(0 -0 62.5917)
(0 -0 62.811)
(0 -0 63.0214)
(0 -0 63.2222)
(0 -0 63.4123)
(0 -0 63.5914)
(0 -0 63.7578)
(0 -0 63.9114)
(0 -0 64.0497)
(0 -0 64.1736)
(0 -0 64.2795)
(0 -0 64.3684)
(0 -0 64.4375)
(0 -0 64.4842)
(0 -0 64.5126)
(0 -0 64.506)
(0 -0 64.4929)
(0 -0 47.9556)
(0 -0 47.5745)
(0 -0 47.8058)
(0 -0 48.1928)
(0 -0 48.7261)
(0 -0 49.2475)
(0 -0 49.6987)
(0 -0 50.1171)
(0 -0 50.5251)
(0 -0 50.92)
(0 -0 51.2977)
(0 -0 51.6594)
(0 -0 52.0078)
(0 -0 52.3446)
(0 -0 52.6708)
(0 -0 52.9874)
(0 -0 53.2953)
(0 -0 53.5954)
(0 -0 53.8885)
(0 -0 54.1752)
(0 -0 54.4562)
(0 -0 54.7318)
(0 -0 55.0022)
(0 -0 55.2676)
(0 -0 55.528)
(0 -0 55.7834)
(0 -0 56.0341)
(0 -0 56.2799)
(0 -0 56.521)
(0 -0 56.7574)
(0 -0 56.9889)
(0 -0 57.2154)
(0 -0 57.4368)
(0 -0 57.6527)
(0 -0 57.8629)
(0 -0 58.0671)
(0 -0 58.2649)
(0 -0 58.4556)
(0 -0 58.639)
(0 -0 58.8139)
(0 -0 58.9802)
(0 -0 59.1361)
(0 -0 59.2819)
(0 -0 59.4151)
(0 -0 59.5357)
(0 -0 59.642)
(0 -0 59.7301)
(0 -0 59.8046)
(0 -0 59.8488)
(0 -0 59.8891)
(0 -0 44.1951)
(0 -0 43.8883)
(0 -0 44.1193)
(0 -0 44.4549)
(0 -0 44.9193)
(0 -0 45.3873)
(0 -0 45.796)
(0 -0 46.1729)
(0 -0 46.5402)
(0 -0 46.8965)
(0 -0 47.2376)
(0 -0 47.5642)
(0 -0 47.8787)
(0 -0 48.1827)
(0 -0 48.4772)
(0 -0 48.7631)
(0 -0 49.0411)
(0 -0 49.3123)
(0 -0 49.5772)
(0 -0 49.8367)
(0 -0 50.0911)
(0 -0 50.3408)
(0 -0 50.5861)
(0 -0 50.8269)
(0 -0 51.0633)
(0 -0 51.2954)
(0 -0 51.5232)
(0 -0 51.7468)
(0 -0 51.9662)
(0 -0 52.1816)
(0 -0 52.3928)
(0 -0 52.5998)
(0 -0 52.8024)
(0 -0 53.0006)
(0 -0 53.194)
(0 -0 53.3825)
(0 -0 53.5659)
(0 -0 53.7436)
(0 -0 53.9154)
(0 -0 54.0805)
(0 -0 54.2387)
(0 -0 54.3887)
(0 -0 54.5304)
(0 -0 54.6623)
(0 -0 54.7836)
(0 -0 54.8936)
(0 -0 54.9882)
(0 -0 55.0722)
(0 -0 55.1298)
(0 -0 55.186)
(0 -0 40.6976)
(0 -0 40.4497)
(0 -0 40.6766)
(0 -0 40.968)
(0 -0 41.3705)
(0 -0 41.7883)
(0 -0 42.1576)
(0 -0 42.4962)
(0 -0 42.8256)
(0 -0 43.1459)
(0 -0 43.453)
(0 -0 43.7469)
(0 -0 44.0297)
(0 -0 44.303)
(0 -0 44.5678)
(0 -0 44.8248)
(0 -0 45.075)
(0 -0 45.319)
(0 -0 45.5576)
(0 -0 45.7914)
(0 -0 46.0209)
(0 -0 46.2464)
(0 -0 46.468)
(0 -0 46.6857)
(0 -0 46.8995)
(0 -0 47.1095)
(0 -0 47.3157)
(0 -0 47.5181)
(0 -0 47.7169)
(0 -0 47.912)
(0 -0 48.1034)
(0 -0 48.291)
(0 -0 48.4748)
(0 -0 48.6545)
(0 -0 48.83)
(0 -0 49.0012)
(0 -0 49.1678)
(0 -0 49.3294)
(0 -0 49.4858)
(0 -0 49.6363)
(0 -0 49.7807)
(0 -0 49.918)
(0 -0 50.048)
(0 -0 50.1696)
(0 -0 50.2818)
(0 -0 50.3846)
(0 -0 50.4738)
(0 -0 50.5545)
(0 -0 50.6121)
(0 -0 50.67)
(0 -0 37.4537)
(0 -0 37.2525)
(0 -0 37.4716)
(0 -0 37.7251)
(0 -0 38.0726)
(0 -0 38.4436)
(0 -0 38.7761)
(0 -0 39.0799)
(0 -0 39.3744)
(0 -0 39.6614)
(0 -0 39.9368)
(0 -0 40.2004)
(0 -0 40.4537)
(0 -0 40.6985)
(0 -0 40.9357)
(0 -0 41.1659)
(0 -0 41.39)
(0 -0 41.6087)
(0 -0 41.8228)
(0 -0 42.0328)
(0 -0 42.2391)
(0 -0 42.4419)
(0 -0 42.6414)
(0 -0 42.8375)
(0 -0 43.0303)
(0 -0 43.2196)
(0 -0 43.4056)
(0 -0 43.5882)
(0 -0 43.7676)
(0 -0 43.9436)
(0 -0 44.1163)
(0 -0 44.2856)
(0 -0 44.4514)
(0 -0 44.6135)
(0 -0 44.7718)
(0 -0 44.9261)
(0 -0 45.0762)
(0 -0 45.2218)
(0 -0 45.3626)
(0 -0 45.498)
(0 -0 45.6278)
(0 -0 45.7512)
(0 -0 45.868)
(0 -0 45.9773)
(0 -0 46.0782)
(0 -0 46.1709)
(0 -0 46.2516)
(0 -0 46.3253)
(0 -0 46.3788)
(0 -0 46.4336)
(0 -0 34.4525)
(0 -0 34.2891)
(0 -0 34.4966)
(0 -0 34.7176)
(0 -0 35.0168)
(0 -0 35.3445)
(0 -0 35.6432)
(0 -0 35.9152)
(0 -0 36.1779)
(0 -0 36.4342)
(0 -0 36.6805)
(0 -0 36.9161)
(0 -0 37.1423)
(0 -0 37.3607)
(0 -0 37.5723)
(0 -0 37.7778)
(0 -0 37.9778)
(0 -0 38.1731)
(0 -0 38.3644)
(0 -0 38.5523)
(0 -0 38.737)
(0 -0 38.9189)
(0 -0 39.098)
(0 -0 39.2741)
(0 -0 39.4472)
(0 -0 39.6174)
(0 -0 39.7846)
(0 -0 39.9488)
(0 -0 40.1101)
(0 -0 40.2684)
(0 -0 40.4237)
(0 -0 40.5759)
(0 -0 40.7249)
(0 -0 40.8705)
(0 -0 41.0126)
(0 -0 41.1511)
(0 -0 41.2857)
(0 -0 41.416)
(0 -0 41.542)
(0 -0 41.663)
(0 -0 41.7788)
(0 -0 41.8888)
(0 -0 41.9926)
(0 -0 42.0898)
(0 -0 42.1794)
(0 -0 42.2618)
(0 -0 42.3337)
(0 -0 42.3996)
(0 -0 42.448)
(0 -0 42.4985)
(0 -0 31.6827)
(0 -0 31.5501)
(0 -0 31.743)
(0 -0 31.9364)
(0 -0 32.1936)
(0 -0 32.4818)
(0 -0 32.7491)
(0 -0 32.9924)
(0 -0 33.2262)
(0 -0 33.4545)
(0 -0 33.6741)
(0 -0 33.884)
(0 -0 34.0854)
(0 -0 34.2796)
(0 -0 34.4677)
(0 -0 34.6504)
(0 -0 34.8282)
(0 -0 35.002)
(0 -0 35.1723)
(0 -0 35.3398)
(0 -0 35.5047)
(0 -0 35.6673)
(0 -0 35.8275)
(0 -0 35.9852)
(0 -0 36.1403)
(0 -0 36.2928)
(0 -0 36.4426)
(0 -0 36.5898)
(0 -0 36.7344)
(0 -0 36.8763)
(0 -0 37.0155)
(0 -0 37.1519)
(0 -0 37.2853)
(0 -0 37.4156)
(0 -0 37.5427)
(0 -0 37.6665)
(0 -0 37.7866)
(0 -0 37.9028)
(0 -0 38.015)
(0 -0 38.1225)
(0 -0 38.2252)
(0 -0 38.3225)
(0 -0 38.4143)
(0 -0 38.5)
(0 -0 38.5789)
(0 -0 38.6515)
(0 -0 38.715)
(0 -0 38.7734)
(0 -0 38.8168)
(0 -0 38.8627)
(0 -0 29.1323)
(0 -0 29.0249)
(0 -0 29.2013)
(0 -0 29.3716)
(0 -0 29.5925)
(0 -0 29.8448)
(0 -0 30.0835)
(0 -0 30.3008)
(0 -0 30.5086)
(0 -0 30.7113)
(0 -0 30.9067)
(0 -0 31.0932)
(0 -0 31.2718)
(0 -0 31.4439)
(0 -0 31.6106)
(0 -0 31.7723)
(0 -0 31.9299)
(0 -0 32.0839)
(0 -0 32.2351)
(0 -0 32.3839)
(0 -0 32.5307)
(0 -0 32.6756)
(0 -0 32.8185)
(0 -0 32.9593)
(0 -0 33.0979)
(0 -0 33.2341)
(0 -0 33.368)
(0 -0 33.4996)
(0 -0 33.6289)
(0 -0 33.7558)
(0 -0 33.8801)
(0 -0 34.0019)
(0 -0 34.121)
(0 -0 34.2372)
(0 -0 34.3505)
(0 -0 34.4606)
(0 -0 34.5674)
(0 -0 34.6706)
(0 -0 34.77)
(0 -0 34.865)
(0 -0 34.9556)
(0 -0 35.0413)
(0 -0 35.1218)
(0 -0 35.1969)
(0 -0 35.266)
(0 -0 35.3294)
(0 -0 35.3851)
(0 -0 35.4364)
(0 -0 35.4751)
(0 -0 35.5162)
(0 -0 26.7886)
(0 -0 26.7018)
(0 -0 26.8609)
(0 -0 27.0119)
(0 -0 27.2018)
(0 -0 27.4219)
(0 -0 27.6344)
(0 -0 27.8284)
(0 -0 28.013)
(0 -0 28.1927)
(0 -0 28.366)
(0 -0 28.5312)
(0 -0 28.6893)
(0 -0 28.8413)
(0 -0 28.9884)
(0 -0 29.1312)
(0 -0 29.2703)
(0 -0 29.4063)
(0 -0 29.54)
(0 -0 29.6719)
(0 -0 29.8022)
(0 -0 29.931)
(0 -0 30.0582)
(0 -0 30.1836)
(0 -0 30.3071)
(0 -0 30.4286)
(0 -0 30.548)
(0 -0 30.6653)
(0 -0 30.7806)
(0 -0 30.8937)
(0 -0 31.0045)
(0 -0 31.113)
(0 -0 31.219)
(0 -0 31.3223)
(0 -0 31.4229)
(0 -0 31.5206)
(0 -0 31.6151)
(0 -0 31.7063)
(0 -0 31.7939)
(0 -0 31.8775)
(0 -0 31.9569)
(0 -0 32.0318)
(0 -0 32.102)
(0 -0 32.1673)
(0 -0 32.2273)
(0 -0 32.2824)
(0 -0 32.3308)
(0 -0 32.3755)
(0 -0 32.4098)
(0 -0 32.4464)
(0 -0 24.639)
(0 -0 24.569)
(0 -0 24.7108)
(0 -0 24.8453)
(0 -0 25.0089)
(0 -0 25.2005)
(0 -0 25.3894)
(0 -0 25.5626)
(0 -0 25.7264)
(0 -0 25.8856)
(0 -0 26.0389)
(0 -0 26.1851)
(0 -0 26.3246)
(0 -0 26.4586)
(0 -0 26.588)
(0 -0 26.7136)
(0 -0 26.8359)
(0 -0 26.9557)
(0 -0 27.0736)
(0 -0 27.1901)
(0 -0 27.3055)
(0 -0 27.4197)
(0 -0 27.5327)
(0 -0 27.6442)
(0 -0 27.7541)
(0 -0 27.8622)
(0 -0 27.9685)
(0 -0 28.0729)
(0 -0 28.1755)
(0 -0 28.2761)
(0 -0 28.3746)
(0 -0 28.471)
(0 -0 28.5651)
(0 -0 28.6567)
(0 -0 28.7457)
(0 -0 28.832)
(0 -0 28.9154)
(0 -0 28.9956)
(0 -0 29.0725)
(0 -0 29.1456)
(0 -0 29.2148)
(0 -0 29.2798)
(0 -0 29.3406)
(0 -0 29.3969)
(0 -0 29.4486)
(0 -0 29.4959)
(0 -0 29.5378)
(0 -0 29.5763)
(0 -0 29.6064)
(0 -0 29.639)
(0 -0 22.6703)
(0 -0 22.6139)
(0 -0 22.7392)
(0 -0 22.8595)
(0 -0 23.001)
(0 -0 23.1676)
(0 -0 23.3352)
(0 -0 23.4899)
(0 -0 23.6355)
(0 -0 23.7763)
(0 -0 23.912)
(0 -0 24.0411)
(0 -0 24.1639)
(0 -0 24.2816)
(0 -0 24.3952)
(0 -0 24.5053)
(0 -0 24.6126)
(0 -0 24.7178)
(0 -0 24.8215)
(0 -0 24.9242)
(0 -0 25.0262)
(0 -0 25.1273)
(0 -0 25.2275)
(0 -0 25.3265)
(0 -0 25.4241)
(0 -0 25.5202)
(0 -0 25.6147)
(0 -0 25.7075)
(0 -0 25.7986)
(0 -0 25.888)
(0 -0 25.9754)
(0 -0 26.0609)
(0 -0 26.1441)
(0 -0 26.2251)
(0 -0 26.3037)
(0 -0 26.3797)
(0 -0 26.453)
(0 -0 26.5233)
(0 -0 26.5904)
(0 -0 26.6539)
(0 -0 26.7139)
(0 -0 26.7699)
(0 -0 26.8221)
(0 -0 26.8702)
(0 -0 26.9144)
(0 -0 26.9546)
(0 -0 26.9904)
(0 -0 27.0233)
(0 -0 27.0496)
(0 -0 27.0779)
(0 -0 20.8697)
(0 -0 20.8244)
(0 -0 20.9341)
(0 -0 21.0422)
(0 -0 21.1651)
(0 -0 21.3101)
(0 -0 21.4587)
(0 -0 21.597)
(0 -0 21.7266)
(0 -0 21.8513)
(0 -0 21.9711)
(0 -0 22.085)
(0 -0 22.193)
(0 -0 22.2962)
(0 -0 22.3956)
(0 -0 22.4919)
(0 -0 22.5858)
(0 -0 22.6779)
(0 -0 22.769)
(0 -0 22.8593)
(0 -0 22.9493)
(0 -0 23.0387)
(0 -0 23.1275)
(0 -0 23.2154)
(0 -0 23.302)
(0 -0 23.3874)
(0 -0 23.4713)
(0 -0 23.5537)
(0 -0 23.6346)
(0 -0 23.7139)
(0 -0 23.7914)
(0 -0 23.867)
(0 -0 23.9406)
(0 -0 24.0121)
(0 -0 24.0813)
(0 -0 24.148)
(0 -0 24.2121)
(0 -0 24.2734)
(0 -0 24.3317)
(0 -0 24.3866)
(0 -0 24.4382)
(0 -0 24.4861)
(0 -0 24.5305)
(0 -0 24.5711)
(0 -0 24.6084)
(0 -0 24.6421)
(0 -0 24.6725)
(0 -0 24.7001)
(0 -0 24.7231)
(0 -0 24.7469)
(0 -0 19.2243)
(0 -0 19.1878)
(0 -0 19.2836)
(0 -0 19.3809)
(0 -0 19.4883)
(0 -0 19.6148)
(0 -0 19.7465)
(0 -0 19.8704)
(0 -0 19.986)
(0 -0 20.0965)
(0 -0 20.2024)
(0 -0 20.3028)
(0 -0 20.3976)
(0 -0 20.488)
(0 -0 20.5748)
(0 -0 20.6589)
(0 -0 20.7408)
(0 -0 20.8213)
(0 -0 20.9011)
(0 -0 20.9805)
(0 -0 21.0598)
(0 -0 21.1389)
(0 -0 21.2176)
(0 -0 21.2955)
(0 -0 21.3724)
(0 -0 21.4482)
(0 -0 21.5227)
(0 -0 21.5959)
(0 -0 21.6677)
(0 -0 21.738)
(0 -0 21.8067)
(0 -0 21.8736)
(0 -0 21.9386)
(0 -0 22.0015)
(0 -0 22.0623)
(0 -0 22.1207)
(0 -0 22.1767)
(0 -0 22.2299)
(0 -0 22.2802)
(0 -0 22.3274)
(0 -0 22.3714)
(0 -0 22.4119)
(0 -0 22.4493)
(0 -0 22.4832)
(0 -0 22.5143)
(0 -0 22.5421)
(0 -0 22.5675)
(0 -0 22.5904)
(0 -0 22.6101)
(0 -0 22.6302)
(0 -0 17.7215)
(0 -0 17.6921)
(0 -0 17.7756)
(0 -0 17.8634)
(0 -0 17.958)
(0 -0 18.0687)
(0 -0 18.1856)
(0 -0 18.2968)
(0 -0 18.4003)
(0 -0 18.4985)
(0 -0 18.5921)
(0 -0 18.6805)
(0 -0 18.7639)
(0 -0 18.8429)
(0 -0 18.9186)
(0 -0 18.9918)
(0 -0 19.0631)
(0 -0 19.1333)
(0 -0 19.2031)
(0 -0 19.2728)
(0 -0 19.3427)
(0 -0 19.4127)
(0 -0 19.4824)
(0 -0 19.5516)
(0 -0 19.62)
(0 -0 19.6874)
(0 -0 19.7536)
(0 -0 19.8187)
(0 -0 19.8824)
(0 -0 19.9448)
(0 -0 20.0056)
(0 -0 20.0647)
(0 -0 20.1221)
(0 -0 20.1774)
(0 -0 20.2307)
(0 -0 20.2817)
(0 -0 20.3304)
(0 -0 20.3764)
(0 -0 20.4197)
(0 -0 20.4599)
(0 -0 20.4971)
(0 -0 20.531)
(0 -0 20.562)
(0 -0 20.5898)
(0 -0 20.6153)
(0 -0 20.6379)
(0 -0 20.6587)
(0 -0 20.6773)
(0 -0 20.6941)
(0 -0 20.7105)
(0 -0 16.3492)
(0 -0 16.3256)
(0 -0 16.3983)
(0 -0 16.4776)
(0 -0 16.5617)
(0 -0 16.6591)
(0 -0 16.7631)
(0 -0 16.8632)
(0 -0 16.9562)
(0 -0 17.0438)
(0 -0 17.1268)
(0 -0 17.2048)
(0 -0 17.2779)
(0 -0 17.347)
(0 -0 17.4129)
(0 -0 17.4765)
(0 -0 17.5385)
(0 -0 17.5996)
(0 -0 17.6606)
(0 -0 17.7219)
(0 -0 17.7835)
(0 -0 17.8454)
(0 -0 17.9074)
(0 -0 17.9689)
(0 -0 18.0298)
(0 -0 18.0897)
(0 -0 18.1487)
(0 -0 18.2066)
(0 -0 18.2633)
(0 -0 18.3187)
(0 -0 18.3726)
(0 -0 18.4249)
(0 -0 18.4755)
(0 -0 18.5241)
(0 -0 18.5708)
(0 -0 18.6153)
(0 -0 18.6575)
(0 -0 18.6971)
(0 -0 18.734)
(0 -0 18.768)
(0 -0 18.7991)
(0 -0 18.8271)
(0 -0 18.8524)
(0 -0 18.8748)
(0 -0 18.8952)
(0 -0 18.9131)
(0 -0 18.9298)
(0 -0 18.9444)
(0 -0 18.9585)
(0 -0 18.9717)
(0 -0 15.0958)
(0 -0 15.0768)
(0 -0 15.1404)
(0 -0 15.2123)
(0 -0 15.2876)
(0 -0 15.374)
(0 -0 15.4669)
(0 -0 15.5573)
(0 -0 15.6414)
(0 -0 15.7198)
(0 -0 15.7935)
(0 -0 15.8624)
(0 -0 15.9267)
(0 -0 15.987)
(0 -0 16.0443)
(0 -0 16.0995)
(0 -0 16.1533)
(0 -0 16.2066)
(0 -0 16.2598)
(0 -0 16.3136)
(0 -0 16.3681)
(0 -0 16.423)