/*--------------------------------*- C++ -*----------------------------------*\
  =========                 |
  \\      /  F ield         | OpenFOAM: The Open Source CFD Toolbox
   \\    /   O peration     | Website:  https://openfoam.org
    \\  /    A nd           | Version:  7
     \\/     M anipulation  |
\*---------------------------------------------------------------------------*/
FoamFile
{
    version     2.0;
    format      ascii;
    class       volVectorField;
    location    "0.39";
    object      wallShearStress;
}
// * * * * * * * * * * * * * * * * * * * * * * * * * * * * * * * * * * * * * //

dimensions      [0 2 -2 0 0 0 0];

internalField   uniform (0 0 0);

boundaryField
{
    velocityInlet
    {
        type            calculated;
        value           uniform (0 0 0);
    }
    pressureOutlet
    {
        type            calculated;
        value           uniform (0 0 0);
    }
    fixedWalls
    {
        type            calculated;
        value           nonuniform List<vector> 
100
(
(-0.01153 -0.00025271 0)
(-0.0118416 -0.000458099 0)
(-0.0097926 -0.000310565 0)
(-0.00838974 -0.000125157 0)
(-0.00768794 -4.06005e-05 0)
(-0.00715337 -3.19192e-05 0)
(-0.00664071 -3.18732e-05 0)
(-0.00616864 -2.69229e-05 0)
(-0.00576835 -2.37988e-05 0)
(-0.00543246 -2.33857e-05 0)
(-0.00522183 -7.57268e-06 0)
(-0.00540987 7.65357e-05 0)
(-0.00630238 0.000197801 0)
(-0.00743848 0.000229011 0)
(-0.00723794 -7.80713e-05 0)
(-0.00394097 -0.000674116 0)
(0.00172777 -0.000919966 0)
(0.00582623 -0.000548814 0)
(0.00585033 9.40633e-05 0)
(0.00303647 0.000436109 0)
(-0.000294352 0.000429646 0)
(-0.00277221 0.000277974 0)
(-0.00412175 0.0001344 0)
(-0.00465392 4.67258e-05 0)
(-0.00472676 2.58022e-06 0)
(-0.00456819 -2.183e-05 0)
(-0.00430268 -3.35615e-05 0)
(-0.00400685 -3.75828e-05 0)
(-0.00374058 -3.3591e-05 0)
(-0.00359873 -1.20156e-05 0)
(-0.00370378 3.07947e-05 0)
(-0.00399381 5.61147e-05 0)
(-0.00405992 4.44319e-06 0)
(-0.00334583 -0.000132015 0)
(-0.00192044 -0.000210082 0)
(-0.00100269 -0.000105345 0)
(-0.00200091 0.000139368 0)
(-0.00452272 0.000291099 0)
(-0.00701237 0.000262365 0)
(-0.0088438 0.000224954 0)
(-0.0100394 0.000207054 0)
(-0.0102091 9.09471e-05 0)
(-0.00866852 -0.000167813 0)
(-0.00507665 -0.000475561 0)
(-0.000139993 -0.000653941 0)
(0.00447773 -0.000604397 0)
(0.0073464 -0.000359941 0)
(0.00788176 -4.91174e-05 0)
(0.00636936 0.000195829 0)
(0.00382366 0.000288724 0)
(0.00124219 0.000272739 0)
(-0.000853172 0.000211377 0)
(-0.00229082 0.000137214 0)
(-0.00317953 8.20382e-05 0)
(-0.00369652 4.81505e-05 0)
(-0.00399992 3.06446e-05 0)
(-0.00418789 2.20342e-05 0)
(-0.0043005 1.61001e-05 0)
(-0.00434277 1.06995e-05 0)
(-0.00431459 4.0533e-06 0)
(-0.00422852 2.94155e-07 0)
(-0.00410221 -5.99917e-07 0)
(-0.00392977 -2.43296e-06 0)
(-0.00365766 -1.22251e-05 0)
(-0.00318994 -3.56309e-05 0)
(-0.00243322 -7.16599e-05 0)
(-0.00137592 -0.000110026 0)
(-0.000132891 -0.000132377 0)
(0.00105075 -0.00012774 0)
(0.00187893 -8.91487e-05 0)
(0.00212481 -2.73114e-05 0)
(0.00172738 4.06545e-05 0)
(0.000854988 8.48237e-05 0)
(-0.00021081 9.57736e-05 0)
(-0.00120639 8.67731e-05 0)
(-0.00197656 6.3838e-05 0)
(-0.00248792 4.01615e-05 0)
(-0.00278594 2.18742e-05 0)
(-0.00294615 1.05944e-05 0)
(-0.00304229 5.44055e-06 0)
(-0.00314208 6.23252e-06 0)
(-0.00332177 1.51486e-05 0)
(-0.0036627 3.2469e-05 0)
(-0.00419546 5.19702e-05 0)
(-0.00481776 6.10903e-05 0)
(-0.00526314 4.81597e-05 0)
(-0.00515761 1.08529e-06 0)
(-0.00420672 -7.34026e-05 0)
(-0.0024492 -0.000143569 0)
(-0.000270276 -0.000183085 0)
(0.00171481 -0.000165272 0)
(0.00299044 -0.000105717 0)
(0.00329758 -2.44321e-05 0)
(0.00271314 4.76632e-05 0)
(0.00144152 9.73852e-05 0)
(3.54687e-05 0.000106122 0)
(-0.0014504 9.919e-05 0)
(-0.00244883 7.22569e-05 0)
(-0.00327798 5.32807e-05 0)
(-0.00411058 3.38727e-05 0)
)
;
    }
    bottomWall
    {
        type            calculated;
        value           nonuniform List<vector> 
800
(
(-0.0353511 0.00216564 0)
(-0.016036 0.000524983 0)
(-0.0105895 0.000100575 0)
(-0.00845422 3.46074e-05 0)
(-0.00748974 1.97004e-05 0)
(-0.00685366 1.60284e-05 0)
(-0.0063445 1.32277e-05 0)
(-0.00593296 1.07776e-05 0)
(-0.00559806 8.97644e-06 0)
(-0.00531907 7.67627e-06 0)
(-0.00508141 6.69105e-06 0)
(-0.00487567 5.91256e-06 0)
(-0.00469536 5.28188e-06 0)
(-0.00453576 4.76215e-06 0)
(-0.00439328 4.32778e-06 0)
(-0.00426514 3.96025e-06 0)
(-0.00414915 3.6459e-06 0)
(-0.00404357 3.37444e-06 0)
(-0.00394697 3.13805e-06 0)
(-0.0038582 2.93065e-06 0)
(-0.00377629 2.74745e-06 0)
(-0.00370044 2.58465e-06 0)
(-0.00362997 2.43915e-06 0)
(-0.0035643 2.30848e-06 0)
(-0.00350293 2.19056e-06 0)
(-0.00344544 2.08371e-06 0)
(-0.00339147 1.9865e-06 0)
(-0.00334067 1.89775e-06 0)
(-0.00329278 1.81646e-06 0)
(-0.00324755 1.74177e-06 0)
(-0.00320474 1.67295e-06 0)
(-0.00316417 1.60936e-06 0)
(-0.00312566 1.55048e-06 0)
(-0.00308906 1.49581e-06 0)
(-0.00305422 1.44494e-06 0)
(-0.00302101 1.3975e-06 0)
(-0.00298933 1.35319e-06 0)
(-0.00295907 1.31172e-06 0)
(-0.00293013 1.27282e-06 0)
(-0.00290243 1.2363e-06 0)
(-0.00287589 1.20194e-06 0)
(-0.00285044 1.16957e-06 0)
(-0.00282602 1.13905e-06 0)
(-0.00280255 1.11017e-06 0)
(-0.00277999 1.08298e-06 0)
(-0.0027583 1.05699e-06 0)
(-0.0027374 1.03281e-06 0)
(-0.00271728 1.00903e-06 0)
(-0.00269786 9.87652e-07 0)
(-0.00267915 9.64845e-07 0)
(-0.00266351 9.46151e-07 0)
(-0.00265058 9.3553e-07 0)
(-0.00263782 9.21923e-07 0)
(-0.00262525 9.0742e-07 0)
(-0.00261287 8.9383e-07 0)
(-0.00260068 8.80894e-07 0)
(-0.00258866 8.68261e-07 0)
(-0.00257681 8.5589e-07 0)
(-0.00256513 8.43809e-07 0)
(-0.00255362 8.32013e-07 0)
(-0.00254227 8.20486e-07 0)
(-0.00253107 8.09213e-07 0)
(-0.00252002 7.98188e-07 0)
(-0.00250913 7.87402e-07 0)
(-0.00249838 7.76847e-07 0)
(-0.00248778 7.66517e-07 0)
(-0.00247732 7.56404e-07 0)
(-0.00246699 7.46503e-07 0)
(-0.0024568 7.36808e-07 0)
(-0.00244674 7.27312e-07 0)
(-0.00243681 7.18011e-07 0)
(-0.00242701 7.08897e-07 0)
(-0.00241733 6.99967e-07 0)
(-0.00240777 6.91214e-07 0)
(-0.00239833 6.82635e-07 0)
(-0.00238901 6.74223e-07 0)
(-0.0023798 6.65974e-07 0)
(-0.00237071 6.57884e-07 0)
(-0.00236172 6.49948e-07 0)
(-0.00235284 6.42161e-07 0)
(-0.00234407 6.34521e-07 0)
(-0.00233541 6.27021e-07 0)
(-0.00232684 6.1966e-07 0)
(-0.00231838 6.12432e-07 0)
(-0.00231001 6.05335e-07 0)
(-0.00230174 5.98364e-07 0)
(-0.00229357 5.91517e-07 0)
(-0.00228548 5.84789e-07 0)
(-0.00227749 5.78178e-07 0)
(-0.00226959 5.71681e-07 0)
(-0.00226178 5.65296e-07 0)
(-0.00225406 5.59017e-07 0)
(-0.00224642 5.52845e-07 0)
(-0.00223886 5.46774e-07 0)
(-0.00223139 5.40805e-07 0)
(-0.002224 5.34931e-07 0)
(-0.00221669 5.29154e-07 0)
(-0.00220945 5.23468e-07 0)
(-0.0022023 5.17873e-07 0)
(-0.00219522 5.12365e-07 0)
(-0.00218822 5.06943e-07 0)
(-0.00218129 5.01605e-07 0)
(-0.00217443 4.96349e-07 0)
(-0.00216764 4.91172e-07 0)
(-0.00216093 4.86073e-07 0)
(-0.00215428 4.81049e-07 0)
(-0.0021477 4.76101e-07 0)
(-0.00214119 4.71225e-07 0)
(-0.00213474 4.66421e-07 0)
(-0.00212837 4.61687e-07 0)
(-0.00212205 4.57022e-07 0)
(-0.0021158 4.52423e-07 0)
(-0.00210961 4.47892e-07 0)
(-0.00210348 4.43425e-07 0)
(-0.00209741 4.39023e-07 0)
(-0.00209141 4.34683e-07 0)
(-0.00208546 4.30406e-07 0)
(-0.00207957 4.2619e-07 0)
(-0.00207373 4.22034e-07 0)
(-0.00206796 4.17936e-07 0)
(-0.00206223 4.13897e-07 0)
(-0.00205657 4.09914e-07 0)
(-0.00205095 4.05988e-07 0)
(-0.0020454 4.02116e-07 0)
(-0.00203989 3.98298e-07 0)
(-0.00203443 3.94533e-07 0)
(-0.00202903 3.90821e-07 0)
(-0.00202367 3.87159e-07 0)
(-0.00201837 3.83549e-07 0)
(-0.00201311 3.79988e-07 0)
(-0.00200791 3.76476e-07 0)
(-0.00200275 3.73013e-07 0)
(-0.00199763 3.69599e-07 0)
(-0.00199257 3.66231e-07 0)
(-0.00198755 3.6291e-07 0)
(-0.00198257 3.59634e-07 0)
(-0.00197764 3.56406e-07 0)
(-0.00197275 3.5322e-07 0)
(-0.00196791 3.50084e-07 0)
(-0.0019631 3.46985e-07 0)
(-0.00195834 3.4394e-07 0)
(-0.00195362 3.40922e-07 0)
(-0.00194895 3.37973e-07 0)
(-0.00194431 3.35025e-07 0)
(-0.00193971 3.32179e-07 0)
(-0.00193515 3.29284e-07 0)
(-0.00193063 3.26556e-07 0)
(-0.00192615 3.23678e-07 0)
(-0.0019217 3.21062e-07 0)
(-0.00191729 3.18117e-07 0)
(-0.00191359 3.15504e-07 0)
(-0.00191057 3.14126e-07 0)
(-0.00190755 3.12481e-07 0)
(-0.00190451 3.10586e-07 0)
(-0.00190148 3.08718e-07 0)
(-0.00189844 3.06893e-07 0)
(-0.0018954 3.05099e-07 0)
(-0.00189235 3.03305e-07 0)
(-0.00188931 3.01521e-07 0)
(-0.00188625 2.99738e-07 0)
(-0.0018832 2.97971e-07 0)
(-0.00188014 2.96205e-07 0)
(-0.00187708 2.94449e-07 0)
(-0.00187401 2.9269e-07 0)
(-0.00187094 2.90938e-07 0)
(-0.00186787 2.89193e-07 0)
(-0.0018648 2.87459e-07 0)
(-0.00186172 2.85725e-07 0)
(-0.00185864 2.83999e-07 0)
(-0.00185555 2.82275e-07 0)
(-0.00185247 2.80566e-07 0)
(-0.00184938 2.78858e-07 0)
(-0.00184628 2.77159e-07 0)
(-0.00184319 2.75463e-07 0)
(-0.00184009 2.73774e-07 0)
(-0.00183699 2.72091e-07 0)
(-0.00183389 2.7042e-07 0)
(-0.00183078 2.68749e-07 0)
(-0.00182767 2.67098e-07 0)
(-0.00182456 2.65446e-07 0)
(-0.00182144 2.63805e-07 0)
(-0.00181833 2.6217e-07 0)
(-0.00181521 2.6054e-07 0)
(-0.00181209 2.58922e-07 0)
(-0.00180896 2.57318e-07 0)
(-0.00180583 2.55715e-07 0)
(-0.0018027 2.54134e-07 0)
(-0.00179957 2.52552e-07 0)
(-0.00179644 2.50986e-07 0)
(-0.0017933 2.49424e-07 0)
(-0.00179016 2.47874e-07 0)
(-0.00178702 2.46333e-07 0)
(-0.00178387 2.44808e-07 0)
(-0.00178073 2.43293e-07 0)
(-0.00177758 2.41794e-07 0)
(-0.00177442 2.40297e-07 0)
(-0.00177127 2.38826e-07 0)
(-0.00176811 2.3736e-07 0)
(-0.00176495 2.3591e-07 0)
(-0.00176179 2.34468e-07 0)
(-0.00175862 2.33034e-07 0)
(-0.00175545 2.31618e-07 0)
(-0.00175228 2.30223e-07 0)
(-0.00174911 2.28832e-07 0)
(-0.00174593 2.27472e-07 0)
(-0.00174275 2.26112e-07 0)
(-0.00173956 2.24774e-07 0)
(-0.00173637 2.23445e-07 0)
(-0.00173318 2.2213e-07 0)
(-0.00172999 2.20828e-07 0)
(-0.00172679 2.19552e-07 0)
(-0.00172359 2.18279e-07 0)
(-0.00172039 2.17041e-07 0)
(-0.00171718 2.15813e-07 0)
(-0.00171396 2.1461e-07 0)
(-0.00171075 2.13401e-07 0)
(-0.00170752 2.12214e-07 0)
(-0.0017043 2.11048e-07 0)
(-0.00170107 2.0991e-07 0)
(-0.00169783 2.08773e-07 0)
(-0.00169459 2.0766e-07 0)
(-0.00169135 2.06557e-07 0)
(-0.0016881 2.0549e-07 0)
(-0.00168484 2.04439e-07 0)
(-0.00168158 2.03396e-07 0)
(-0.00167832 2.02384e-07 0)
(-0.00167505 2.01346e-07 0)
(-0.00167177 2.00402e-07 0)
(-0.00166848 1.99372e-07 0)
(-0.00166519 1.98549e-07 0)
(-0.0016619 1.97434e-07 0)
(-0.00165859 1.96881e-07 0)
(-0.00165528 1.95509e-07 0)
(-0.00165195 1.95498e-07 0)
(-0.00164864 1.93373e-07 0)
(-0.00164527 1.94656e-07 0)
(-0.00164198 1.90745e-07 0)
(-0.00163853 1.94993e-07 0)
(-0.00163529 1.86788e-07 0)
(-0.00163172 1.97778e-07 0)
(-0.00162861 1.79717e-07 0)
(-0.00162479 2.05621e-07 0)
(-0.00162198 1.65931e-07 0)
(-0.00161768 2.23628e-07 0)
(-0.00161545 1.38726e-07 0)
(-0.00161028 2.60375e-07 0)
(-0.00160909 8.73612e-08 0)
(-0.00160259 3.25349e-07 0)
(-0.00160289 6.31937e-09 0)
(-0.00159463 3.57793e-07 0)
(-0.0353513 -0.00216561 0)
(-0.0160371 -0.000524937 0)
(-0.0105919 -0.000100526 0)
(-0.00845781 -3.45651e-05 0)
(-0.00749434 -1.96615e-05 0)
(-0.00685916 -1.59926e-05 0)
(-0.00635077 -1.31946e-05 0)
(-0.00593989 -1.07469e-05 0)
(-0.00560556 -8.94749e-06 0)
(-0.00532706 -7.64871e-06 0)
(-0.00508983 -6.66453e-06 0)
(-0.00488445 -5.88678e-06 0)
(-0.00470447 -5.25653e-06 0)
(-0.00454516 -4.73684e-06 0)
(-0.00440294 -4.30205e-06 0)
(-0.00427506 -3.93356e-06 0)
(-0.00415933 -3.61761e-06 0)
(-0.00405404 -3.34387e-06 0)
(-0.00395777 -3.10443e-06 0)
(-0.00386938 -2.89319e-06 0)
(-0.00378793 -2.70532e-06 0)
(-0.00371263 -2.53693e-06 0)
(-0.00364282 -2.38489e-06 0)
(-0.00357793 -2.24657e-06 0)
(-0.00351748 -2.11975e-06 0)
(-0.00346109 -2.00254e-06 0)
(-0.00340839 -1.89323e-06 0)
(-0.00335911 -1.79034e-06 0)
(-0.00331298 -1.69236e-06 0)
(-0.00326982 -1.59814e-06 0)
(-0.00322944 -1.50601e-06 0)
(-0.00319172 -1.41514e-06 0)
(-0.00315656 -1.32324e-06 0)
(-0.00312388 -1.23005e-06 0)
(-0.00309367 -1.1318e-06 0)
(-0.00306592 -1.02926e-06 0)
(-0.00304066 -9.16102e-07 0)
(-0.00301808 -7.93998e-07 0)
(-0.00299809 -6.54272e-07 0)
(-0.00298142 -4.94833e-07 0)
(-0.00296732 -3.13767e-07 0)
(-0.00295825 -7.97905e-08 0)
(-0.0029509 1.56886e-07 0)
(-0.00295307 5.56252e-07 0)
(-0.00295315 8.51385e-07 0)
(-0.00297467 1.64306e-06 0)
(-0.00298201 1.79793e-06 0)
(-0.00303867 4.14841e-06 0)
(-0.0030707 -3.58585e-06 0)
(-0.00292549 0.000217631 0)
(5.15591e-06 -5.04329e-07 0)
(1.2913e-05 -2.08703e-05 0)
(1.75916e-05 -5.01556e-05 0)
(2.14832e-05 -8.54792e-05 0)
(1.8218e-05 -0.000126139 0)
(6.30571e-06 -0.00015257 0)
(9.55608e-06 -0.000152804 0)
(2.48784e-05 -0.000132695 0)
(1.13474e-05 -9.08959e-05 0)
(-3.41102e-05 -9.50173e-06 0)
(-8.99421e-05 0.000115735 0)
(-0.00012544 0.000269885 0)
(-0.000119066 0.000407892 0)
(-8.92134e-05 0.00049822 0)
(-5.86723e-05 0.000545507 0)
(-3.02565e-05 0.000556729 0)
(-4.53683e-06 0.000537937 0)
(1.6994e-05 0.000495311 0)
(3.35904e-05 0.000434303 0)
(4.62743e-05 0.000360163 0)
(5.65879e-05 0.000276547 0)
(6.52784e-05 0.000185516 0)
(7.11248e-05 8.51445e-05 0)
(7.5351e-05 -1.83679e-05 0)
(7.8742e-05 -0.000123796 0)
(8.14131e-05 -0.000230995 0)
(8.34662e-05 -0.000339245 0)
(8.48713e-05 -0.00044777 0)
(8.58452e-05 -0.000556222 0)
(8.65723e-05 -0.000664326 0)
(8.68983e-05 -0.00077153 0)
(8.67903e-05 -0.000877419 0)
(8.63003e-05 -0.000981708 0)
(8.5446e-05 -0.00108413 0)
(8.42058e-05 -0.00118444 0)
(8.25352e-05 -0.00128237 0)
(8.03725e-05 -0.00137763 0)
(7.76478e-05 -0.00146985 0)
(7.42907e-05 -0.00155866 0)
(7.02296e-05 -0.0016436 0)
(6.5387e-05 -0.0017242 0)
(5.968e-05 -0.00179993 0)
(5.30266e-05 -0.0018702 0)
(4.53511e-05 -0.00193441 0)
(3.65852e-05 -0.00199187 0)
(2.67056e-05 -0.00204192 0)
(1.56738e-05 -0.00208386 0)
(3.44701e-06 -0.00211698 0)
(-9.99392e-06 -0.00214062 0)
(-2.46934e-05 -0.00215409 0)
(-4.08843e-05 -0.0021569 0)
(-5.87154e-05 -0.00214806 0)
(-7.78269e-05 -0.00212714 0)
(-9.77963e-05 -0.00209396 0)
(-0.000118572 -0.00204847 0)
(-0.000140541 -0.00199046 0)
(-0.000164344 -0.00191961 0)
(-0.000190757 -0.00183546 0)
(-0.000220703 -0.00173748 0)
(-0.000256352 -0.00162506 0)
(-0.000301047 -0.00149592 0)
(-0.000357802 -0.00134946 0)
(-0.00044111 -0.00118667 0)
(-0.000574252 -0.000974593 0)
(-0.000697472 -0.000636957 0)
(-0.000647412 -0.000201 0)
(-0.000371287 0.00018473 0)
(3.35722e-06 0.000462116 0)
(0.000375022 0.000591033 0)
(0.000576932 0.000538019 0)
(0.000630662 0.000435908 0)
(0.000606545 0.000356414 0)
(0.000484898 0.000283817 0)
(0.000284426 0.00022522 0)
(7.93659e-05 0.000213335 0)
(-0.000106455 0.000258899 0)
(-0.000202042 0.000269726 0)
(-0.000217453 0.000265235 0)
(-0.000208582 0.000272197 0)
(-0.00017313 0.000281643 0)
(-0.000113959 0.000291597 0)
(-4.5484e-05 0.000293211 0)
(1.79758e-05 0.000281393 0)
(6.26553e-05 0.000256481 0)
(8.34513e-05 0.000229267 0)
(9.12284e-05 0.000208036 0)
(9.87927e-05 0.000186908 0)
(0.00010995 0.000155447 0)
(0.000119677 0.000109275 0)
(0.000121697 5.52763e-05 0)
(0.000117578 4.00164e-06 0)
(0.000113239 -4.18396e-05 0)
(0.000110064 -8.39669e-05 0)
(0.000106346 -0.000123197 0)
(0.000100299 -0.000158802 0)
(9.11185e-05 -0.000189647 0)
(7.88734e-05 -0.000214828 0)
(6.42623e-05 -0.000233841 0)
(4.84083e-05 -0.000246675 0)
(3.26009e-05 -0.000253856 0)
(1.80235e-05 -0.000256367 0)
(5.56363e-06 -0.000255465 0)
(-4.31657e-06 -0.000252484 0)
(-1.16877e-05 -0.00024864 0)
(-1.71257e-05 -0.000244776 0)
(-2.15818e-05 -0.000241132 0)
(-2.6184e-05 -0.000237384 0)
(-3.20111e-05 -0.000232586 0)
(-3.98203e-05 -0.000225393 0)
(-4.98868e-05 -0.000214334 0)
(-6.19235e-05 -0.000198016 0)
(-7.51742e-05 -0.0001755 0)
(-8.86583e-05 -0.000146347 0)
(-0.000101265 -0.000110764 0)
(-0.000111902 -6.9692e-05 0)
(-0.000119807 -2.45682e-05 0)
(-0.00012464 2.29256e-05 0)
(-0.00012653 7.11937e-05 0)
(-0.000125991 0.000118933 0)
(-0.000123804 0.000165305 0)
(-0.000120834 0.000209984 0)
(-0.000117867 0.000253065 0)
(-0.000115519 0.000294913 0)
(-0.0001142 0.000336 0)
(-0.000114112 0.000376764 0)
(-0.000115301 0.000417527 0)
(-0.000117702 0.000458481 0)
(-0.000121168 0.000499721 0)
(-0.000125467 0.000541284 0)
(-0.000130275 0.000583157 0)
(-0.000135183 0.000625259 0)
(-0.000139733 0.000667419 0)
(-0.000143472 0.000709358 0)
(-0.000146007 0.000750709 0)
(-0.000147034 0.000791043 0)
(-0.000146348 0.00082991 0)
(-0.000143833 0.000866869 0)
(-0.000139454 0.000901501 0)
(-0.000133243 0.000933431 0)
(-0.000125271 0.000962329 0)
(-0.000115627 0.00098791 0)
(-0.00010442 0.00100992 0)
(-9.17813e-05 0.00102813 0)
(-7.78795e-05 0.00104235 0)
(-6.29026e-05 0.00105243 0)
(-4.70039e-05 0.0010583 0)
(-3.03622e-05 0.00105986 0)
(-1.32931e-05 0.00105712 0)
(4.12283e-06 0.00105026 0)
(2.18513e-05 0.00103926 0)
(3.97089e-05 0.0010242 0)
(5.75849e-05 0.00100516 0)
(7.53512e-05 0.000982252 0)
(9.28799e-05 0.000955597 0)
(0.000110037 0.00092535 0)
(0.000126688 0.000891686 0)
(0.000142693 0.0008548 0)
(0.000157911 0.000814909 0)
(0.000172201 0.00077225 0)
(0.000185419 0.000727082 0)
(0.000197424 0.000679682 0)
(0.000208075 0.00063035 0)
(0.000217237 0.000579404 0)
(0.00022478 0.000527181 0)
(0.000230584 0.000474037 0)
(0.000234545 0.000420344 0)
(0.000236574 0.000366491 0)
(0.000236607 0.000312878 0)
(0.000234608 0.000259914 0)
(0.000230574 0.000208015 0)
(0.000224539 0.000157595 0)
(0.000216578 0.000109058 0)
(0.00020682 6.27933e-05 0)
(0.000195442 1.91624e-05 0)
(0.000182597 -2.15161e-05 0)
(0.000168516 -5.8943e-05 0)
(0.000153551 -9.2867e-05 0)
(0.000138031 -0.000123154 0)
(0.000122221 -0.000149737 0)
(0.000106447 -0.000172588 0)
(9.10369e-05 -0.000191762 0)
(7.62963e-05 -0.000207378 0)
(6.25074e-05 -0.000219611 0)
(4.99235e-05 -0.000228679 0)
(3.87655e-05 -0.000234839 0)
(2.92164e-05 -0.000238385 0)
(2.14094e-05 -0.000239657 0)
(1.54055e-05 -0.000239053 0)
(1.12051e-05 -0.000237038 0)
(8.7074e-06 -0.000234203 0)
(7.56276e-06 -0.000231374 0)
(6.99826e-06 -0.000229816 0)
(5.55656e-06 -0.000231637 0)
(5.51671e-07 -0.000240606 0)
(-1.29021e-05 -0.000263854 0)
(-4.37858e-05 -0.000313946 0)
(-0.000109157 -0.000412154 0)
(-0.000241739 -0.000591071 0)
(-0.000490844 -0.000881041 0)
(-0.000847922 -0.00125663 0)
(-1.99527e-07 -4.92477e-06 0)
(1.3833e-05 -7.99894e-06 0)
(2.27866e-05 6.07388e-07 0)
(1.54887e-05 1.51104e-05 0)
(-8.67135e-06 2.85172e-05 0)
(-4.3086e-05 3.59211e-05 0)
(-7.95913e-05 3.79361e-05 0)
(-0.000114287 3.71461e-05 0)
(-0.000146108 3.57913e-05 0)
(-0.000175994 3.5109e-05 0)
(-0.0002056 3.4966e-05 0)
(-0.000235906 3.42449e-05 0)
(-0.000266215 3.12248e-05 0)
(-0.000293467 2.43164e-05 0)
(-0.000312598 1.30285e-05 0)
(-0.000317756 -2.25159e-06 0)
(-0.000305236 -2.13142e-05 0)
(-0.000272873 -4.37833e-05 0)
(-0.000221126 -6.36219e-05 0)
(-0.000160941 -7.14764e-05 0)
(-0.000105736 -6.13269e-05 0)
(-7.96204e-05 -2.79021e-05 0)
(-9.12353e-05 1.01152e-05 0)
(-0.0001177 4.55684e-05 0)
(-0.000163774 6.78122e-05 0)
(-0.000227153 2.99621e-05 0)
(-0.000212562 -5.64211e-05 0)
(-0.00025763 -1.61834e-05 0)
(-0.000335147 -1.6769e-05 0)
(-0.000406639 0.000116534 0)
(-0.000274794 0.000324363 0)
(-0.000491666 0.000424093 0)
(-0.000652561 0.000147488 0)
(-0.000282389 -0.000275652 0)
(0.000101092 -0.000383632 0)
(0.000274433 -0.000202483 0)
(0.000367919 -0.000168821 0)
(0.000486428 -0.000154451 0)
(0.000598982 -0.000144285 0)
(0.000710081 -0.000138502 0)
(0.000814753 -0.000134098 0)
(0.000917028 -0.000129532 0)
(0.00101233 -0.000124213 0)
(0.00110268 -0.000118386 0)
(0.0011861 -0.000111709 0)
(0.00126325 -0.000104761 0)
(0.0013337 -9.73185e-05 0)
(0.00139758 -8.97518e-05 0)
(0.00145494 -8.17961e-05 0)
(0.00150555 -7.34726e-05 0)
(0.00154925 -6.44568e-05 0)
(0.00158541 -5.45087e-05 0)
(0.00161332 -4.34315e-05 0)
(0.00163197 -3.12338e-05 0)
(0.00164038 -1.82005e-05 0)
(0.00163749 -4.75299e-06 0)
(0.00162262 9.23152e-06 0)
(0.00159507 2.38804e-05 0)
(0.0015543 3.92201e-05 0)
(0.00149982 5.52764e-05 0)
(0.00143114 7.21243e-05 0)
(0.00134768 8.98797e-05 0)
(0.00124876 0.000108664 0)
(0.00113361 0.000128542 0)
(0.00100146 0.000149512 0)
(0.000851597 0.000171509 0)
(0.000683508 0.000194358 0)
(0.000497061 0.000217822 0)
(0.000292544 0.000242452 0)
(6.67651e-05 0.000269605 0)
(-0.000189667 0.000300937 0)
(-0.000466949 0.000322897 0)
(-0.000736065 0.000330653 0)
(-0.00100601 0.000334118 0)
(-0.00128461 0.000334324 0)
(-0.00156579 0.000330674 0)
(-0.00184444 0.000319079 0)
(-0.00210927 0.000302611 0)
(-0.00236283 0.000274857 0)
(-0.0025852 0.000232971 0)
(-0.00278236 0.000187778 0)
(-0.00293854 9.44044e-05 0)
(-0.00302156 6.56655e-06 0)
(-0.00307357 -0.000169433 0)
(-0.0029192 -0.000387796 0)
(-0.00276522 -0.000614688 0)
(-0.00218018 -0.00115133 0)
(-0.000977068 -0.000913045 0)
(-0.000447837 -0.000104513 0)
(-0.00044471 0.000218902 0)
(-0.000551701 0.000167145 0)
(-0.000542922 -4.15182e-05 0)
(-0.000333855 -0.00024684 0)
(-3.34443e-05 -0.000287096 0)
(0.000167049 -0.000167374 0)
(0.000209651 -7.99996e-06 0)
(0.000111374 0.000114144 0)
(-7.84754e-05 0.000132561 0)
(-0.000217803 -2.60568e-05 0)
(-6.5324e-05 -0.0001965 0)
(-0.000238364 -8.37937e-05 0)
(-0.000158451 -0.000322102 0)
(8.93811e-05 -0.000265562 0)
(0.000385189 0.000181197 0)
(0.000457729 0.000784515 0)
(0.000345858 0.00124726 0)
(0.000178959 0.00148571 0)
(2.82784e-05 0.00152551 0)
(-8.66357e-05 0.00142705 0)
(-0.000167815 0.00122582 0)
(-0.000214178 0.000961478 0)
(-0.000228528 0.000671157 0)
(-0.000207754 0.000391636 0)
(-0.000149581 0.000163111 0)
(-4.7537e-05 2.77059e-05 0)
(5.85749e-05 4.79214e-05 0)
(0.000122346 0.00018644 0)
(0.000145328 0.000358049 0)
(0.000140169 0.000528476 0)
(0.000102605 0.000660712 0)
(4.09045e-05 0.000721711 0)
(-2.36284e-05 0.000705465 0)
(-7.39324e-05 0.000635181 0)
(-0.000108691 0.000542668 0)
(-0.000139317 0.000433956 0)
(-0.000166152 0.000301435 0)
(-0.000191478 0.000137848 0)
(-0.000212871 -6.32348e-05 0)
(-0.000222151 -0.00028885 0)
(-0.000207919 -0.000520353 0)
(-0.000163017 -0.000721836 0)
(-0.000106903 -0.000859864 0)
(-5.31139e-05 -0.000926143 0)
(3.07028e-06 -0.000911647 0)
(4.89018e-05 -0.000816764 0)
(9.30841e-05 -0.000683952 0)
(0.000162506 -0.000539158 0)
(0.000237853 -0.000361603 0)
(0.000241856 -0.000193965 0)
(0.000187798 -0.000124282 0)
(0.000164994 -9.22451e-05 0)
(9.53005e-05 -1.20517e-05 0)
(-0.000144649 6.02314e-05 0)
(-0.000392001 -2.44883e-05 0)
(-0.000520869 -0.000219929 0)
(-0.000490165 -0.000389662 0)
(-0.000402261 -0.000493926 0)
(-0.000253904 -0.000474047 0)
(-0.000102028 -0.000361657 0)
(-2.3375e-05 -0.000181184 0)
(-4.82107e-05 -5.19913e-06 0)
(3.20789e-05 0.000112541 0)
(0.000323444 0.000295623 0)
(0.000623516 0.000657263 0)
(0.00067096 0.0011299 0)
(0.000468572 0.00146476 0)
(0.000329636 0.00161038 0)
(0.000314869 0.00174988 0)
(0.000263475 0.0019112 0)
(0.000189895 0.00202119 0)
(0.000154998 0.00209907 0)
(0.000124535 0.00217417 0)
(9.0397e-05 0.00223215 0)
(7.05607e-05 0.00227505 0)
(5.58682e-05 0.00231345 0)
(4.15296e-05 0.00234408 0)
(3.26403e-05 0.00236673 0)
(2.60692e-05 0.00238452 0)
(1.87156e-05 0.00239543 0)
(1.08486e-05 0.00239733 0)
(-2.77653e-07 0.0023888 0)
(-1.83507e-05 0.00236588 0)
(-4.58284e-05 0.00232283 0)
(-8.48483e-05 0.00225295 0)
(-0.000136076 0.00214832 0)
(-0.000196644 0.00200145 0)
(-0.000259284 0.00180791 0)
(-0.000312082 0.00156909 0)
(-0.000339987 0.00129484 0)
(-0.00032976 0.00100458 0)
(-0.000277257 0.000724852 0)
(-0.000194594 0.000481735 0)
(-0.000110712 0.000288331 0)
(-5.72991e-05 0.000139672 0)
(-3.88193e-05 2.36719e-05 0)
(-4.15097e-05 -2.96995e-05 0)
(-7.09739e-05 3.95852e-05 0)
(-0.000182033 0.00025494 0)
(-0.000377956 0.000549393 0)
(-0.000567094 0.000827812 0)
(-0.000612835 0.00102644 0)
(-0.000303151 0.00113697 0)
(0.00143119 0.00204275 0)
(0.00330147 0.00244614 0)
(0.00369219 0.00401794 0)
(0.00308185 0.00641722 0)
(0.00181792 0.0063945 0)
(0.00166888 0.00651339 0)
(0.00139571 0.00715341 0)
(0.00101342 0.00743633 0)
(0.000879872 0.0076456 0)
(0.000686442 0.00790999 0)
(0.000519742 0.00804886 0)
(0.000418139 0.00817045 0)
(0.000298899 0.008269 0)
(0.000211813 0.0083184 0)
(0.000136844 0.0083555 0)
(6.45006e-05 0.00836503 0)
(8.21825e-06 0.00835235 0)
(-4.41329e-05 0.00832659 0)
(-9.05533e-05 0.00828326 0)
(-0.000131145 0.00822721 0)
(-0.000168537 0.00815932 0)
(-0.000200977 0.00808013 0)
(-0.00022959 0.00799261 0)
(-0.000254276 0.00789725 0)
(-0.000274723 0.00779616 0)
(-0.000291381 0.00769073 0)
(-0.000304015 0.00758234 0)
(-0.000312896 0.0074725 0)
(-0.000318205 0.00736236 0)
(-0.000320144 0.00725308 0)
(-0.000319057 0.00714563 0)
(-0.000315211 0.00704079 0)
(-0.000308911 0.00693927 0)
(-0.000300438 0.00684159 0)
(-0.000290026 0.0067482 0)
(-0.0002779 0.0066595 0)
(-0.000264258 0.00657577 0)
(-0.000249287 0.00649726 0)
(-0.000233172 0.00642417 0)
(-0.000216097 0.00635663 0)
(-0.000198249 0.0062947 0)
(-0.000179816 0.00623842 0)
(-0.000160981 0.00618775 0)
(-0.000141921 0.00614261 0)
(-0.000122795 0.00610286 0)
(-0.000103742 0.00606836 0)
(-8.48853e-05 0.00603893 0)
(-6.6336e-05 0.00601437 0)
(-4.82205e-05 0.00599452 0)
(-3.07128e-05 0.00597918 0)
(-1.40724e-05 0.00596817 0)
(1.32583e-06 0.00596123 0)
(1.49732e-05 0.00595803 0)
(2.62579e-05 0.00595805 0)
(3.45786e-05 0.0059606 0)
(3.94972e-05 0.00596483 0)
(4.05853e-05 0.0059699 0)
(3.76242e-05 0.00597453 0)
(3.11987e-05 0.0059772 0)
(2.24749e-05 0.00597695 0)
(1.28075e-05 0.00597348 0)
(3.62151e-06 0.00596708 0)
(-3.94427e-06 0.00595861 0)
(-9.26671e-06 0.00594946 0)
(-1.25615e-05 0.00594137 0)
(-1.4943e-05 0.00593585 0)
(-1.82052e-05 0.00593383 0)
(-2.44956e-05 0.00593534 0)
(-3.58419e-05 0.00593939 0)
(-5.36913e-05 0.0059441 0)
(-7.85853e-05 0.005947 0)
(-0.000110014 0.00594554 0)
(-0.00014653 0.00593757 0)
(-0.000186067 0.00592173 0)
(-0.000226377 0.00589763 0)
(-0.000265448 0.00586576 0)
(-0.000301843 0.00582728 0)
(-0.00033486 0.00578364 0)
(-0.0003645 0.0057362 0)
(-0.000391274 0.00568596 0)
(-0.000415975 0.00563354 0)
(-0.000439481 0.0055792 0)
(-0.000462624 0.00552294 0)
(-0.000486133 0.00546463 0)
(-0.00051063 0.00540409 0)
(-0.000536672 0.00534121 0)
(-0.000564835 0.00527602 0)
(-0.000595815 0.00520875 0)
(-0.00063054 0.00513987 0)
(-0.000670285 0.00507007 0)
(-0.000716782 0.0050003 0)
(-0.000772302 0.00493163 0)
(-0.000839682 0.00486514 0)
(-0.000922226 0.00480162 0)
(-0.00102345 0.00474109 0)
(-0.00114669 0.00468224 0)
(-0.00129467 0.00462184 0)
(-0.00146901 0.00455466 0)
(-0.0016698 0.004474 0)
(-0.0018949 0.00437282 0)
(-0.00213936 0.00424531 0)
(-0.00239627 0.0040884 0)
(-0.00266143 0.00390273 0)
(-0.00294148 0.00369152 0)
(-0.00325573 0.00345772 0)
(-0.00360982 0.0032039 0)
(-0.003892 0.00292341 0)
(-0.00399365 0.00276134 0)
)
;
    }
    frontAndBack
    {
        type            empty;
    }
}


// ************************************************************************* //
