/*--------------------------------*- C++ -*----------------------------------*\
  =========                 |
  \\      /  F ield         | OpenFOAM: The Open Source CFD Toolbox
   \\    /   O peration     | Website:  https://openfoam.org
    \\  /    A nd           | Version:  7
     \\/     M anipulation  |
\*---------------------------------------------------------------------------*/
FoamFile
{
    version     2.0;
    format      ascii;
    class       volVectorField;
    location    "0.19";
    object      ddt0(U);
}
// * * * * * * * * * * * * * * * * * * * * * * * * * * * * * * * * * * * * * //

dimensions      [0 1 -2 0 0 0 0];

internalField   nonuniform List<vector> 
70000
(
(-0.00131282 9.18868e-05 0)
(-0.00817803 0.000126515 0)
(-0.0162683 0.000128523 0)
(-0.0236928 0.000111255 0)
(-0.0309049 0.000105914 0)
(-0.038449 0.000105546 0)
(-0.0463376 0.000108846 0)
(-0.0544648 0.000114176 0)
(-0.0627207 0.00011948 0)
(-0.0710334 0.000124228 0)
(-0.0794011 0.000128573 0)
(-0.0878842 0.000133549 0)
(-0.0965815 0.000139661 0)
(-0.105601 0.000147287 0)
(-0.115032 0.000156378 0)
(-0.12494 0.000166692 0)
(-0.135367 0.000178094 0)
(-0.146361 0.000190288 0)
(-0.15797 0.000203871 0)
(-0.170258 0.0002188 0)
(-0.183307 0.000235813 0)
(-0.197209 0.00025498 0)
(-0.212078 0.000276971 0)
(-0.228036 0.000301825 0)
(-0.245225 0.000330154 0)
(-0.26381 0.000362065 0)
(-0.283981 0.000398672 0)
(-0.305961 0.000440142 0)
(-0.330014 0.000488097 0)
(-0.356446 0.000543271 0)
(-0.385623 0.000607229 0)
(-0.417973 0.000681953 0)
(-0.454 0.000769661 0)
(-0.49434 0.000874015 0)
(-0.539705 0.000997268 0)
(-0.591085 0.00114842 0)
(-0.649496 0.00132794 0)
(-0.716647 0.00155722 0)
(-0.793933 0.00183088 0)
(-0.884552 0.00219495 0)
(-0.990522 0.0026387 0)
(-1.11776 0.00324477 0)
(-1.27026 0.00402002 0)
(-1.45805 0.00509881 0)
(-1.69278 0.00657934 0)
(-1.98685 0.00856854 0)
(-2.38947 0.0121803 0)
(-2.85846 0.0150665 0)
(-3.7881 0.0266315 0)
(-3.87722 0.15781 0)
(-0.000873952 0.000444252 0)
(-0.0127649 0.000808269 0)
(-0.0298359 0.000871972 0)
(-0.0456118 0.00084099 0)
(-0.0602963 0.000856568 0)
(-0.0757772 0.000907388 0)
(-0.0923424 0.000955804 0)
(-0.109545 0.000989883 0)
(-0.126922 0.00101192 0)
(-0.144208 0.00103009 0)
(-0.16139 0.00105278 0)
(-0.178646 0.00108721 0)
(-0.196243 0.00113645 0)
(-0.21445 0.00120029 0)
(-0.233473 0.00127625 0)
(-0.253449 0.00136111 0)
(-0.274467 0.00145435 0)
(-0.296626 0.00155593 0)
(-0.320037 0.00166826 0)
(-0.344833 0.00179362 0)
(-0.371187 0.00193504 0)
(-0.39928 0.0020949 0)
(-0.429335 0.0022768 0)
(-0.461595 0.00248312 0)
(-0.49635 0.0027186 0)
(-0.533943 0.00298749 0)
(-0.574781 0.00329646 0)
(-0.619344 0.00365214 0)
(-0.668207 0.00406399 0)
(-0.722029 0.00454206 0)
(-0.781604 0.00509893 0)
(-0.847852 0.00575009 0)
(-0.921842 0.0065147 0)
(-1.00491 0.00741921 0)
(-1.09853 0.00849087 0)
(-1.20479 0.0097802 0)
(-1.32568 0.011329 0)
(-1.46483 0.0132326 0)
(-1.62469 0.0155619 0)
(-1.81224 0.0185043 0)
(-2.03046 0.0221938 0)
(-2.29235 0.0270107 0)
(-2.60405 0.0332543 0)
(-2.98652 0.0417736 0)
(-3.46204 0.053238 0)
(-4.05263 0.0699343 0)
(-4.86419 0.0928594 0)
(-5.78582 0.136143 0)
(-7.66246 0.171927 0)
(-8.35137 0.493378 0)
(0.000109997 0.000847294 0)
(-0.0111822 0.00176341 0)
(-0.0312097 0.00201331 0)
(-0.0517668 0.00193108 0)
(-0.0707642 0.00194657 0)
(-0.0902526 0.0020892 0)
(-0.111236 0.00223221 0)
(-0.13334 0.00231941 0)
(-0.155815 0.00235912 0)
(-0.178118 0.00238138 0)
(-0.200099 0.00241442 0)
(-0.221946 0.0024794 0)
(-0.244019 0.00258353 0)
(-0.266692 0.00272456 0)
(-0.290255 0.00289466 0)
(-0.3149 0.00308571 0)
(-0.340762 0.0032965 0)
(-0.367981 0.0035273 0)
(-0.396724 0.00378404 0)
(-0.427174 0.00407072 0)
(-0.459556 0.00439415 0)
(-0.494092 0.00475883 0)
(-0.531049 0.00517268 0)
(-0.570709 0.00564175 0)
(-0.613425 0.00617806 0)
(-0.659617 0.00679208 0)
(-0.709805 0.00750131 0)
(-0.764605 0.00832135 0)
(-0.824768 0.00927545 0)
(-0.891159 0.0103872 0)
(-0.964813 0.0116867 0)
(-1.04694 0.0132091 0)
(-1.13892 0.0149999 0)
(-1.24249 0.0171161 0)
(-1.35953 0.0196273 0)
(-1.49275 0.022635 0)
(-1.64455 0.0262537 0)
(-1.81976 0.030664 0)
(-2.02099 0.0360727 0)
(-2.25757 0.0428289 0)
(-2.53224 0.0513077 0)
(-2.86204 0.0622831 0)
(-3.25323 0.0764311 0)
(-3.7319 0.0957518 0)
(-4.32539 0.121299 0)
(-5.05609 0.15959 0)
(-6.0646 0.208629 0)
(-7.18032 0.310395 0)
(-9.46685 0.405704 0)
(-10.5847 0.919938 0)
(0.000531021 0.00113781 0)
(-0.00796025 0.00269498 0)
(-0.0265978 0.00333241 0)
(-0.0486424 0.00328151 0)
(-0.0701056 0.00326886 0)
(-0.0917226 0.00348678 0)
(-0.114756 0.00375387 0)
(-0.139311 0.00393374 0)
(-0.164708 0.00401274 0)
(-0.190192 0.00403962 0)
(-0.215353 0.00407191 0)
(-0.240214 0.00415474 0)
(-0.265071 0.00430589 0)
(-0.290307 0.00452227 0)
(-0.316247 0.00479011 0)
(-0.34312 0.00509538 0)
(-0.371113 0.00543593 0)
(-0.400414 0.0058129 0)
(-0.431258 0.00623574 0)
(-0.463889 0.00671046 0)
(-0.498585 0.00724648 0)
(-0.53561 0.00785014 0)
(-0.575249 0.00853302 0)
(-0.617794 0.00930557 0)
(-0.663607 0.0101882 0)
(-0.713118 0.0112002 0)
(-0.766883 0.0123721 0)
(-0.825569 0.0137324 0)
(-0.890004 0.0153207 0)
(-0.961155 0.0171786 0)
(-1.04018 0.019357 0)
(-1.12844 0.0219155 0)
(-1.2275 0.0249312 0)
(-1.33931 0.0284968 0)
(-1.46595 0.0327348 0)
(-1.6105 0.0377997 0)
(-1.77548 0.0439048 0)
(-1.96646 0.051307 0)
(-2.18594 0.0604015 0)
(-2.44457 0.0716863 0)
(-2.74472 0.0858447 0)
(-3.10532 0.104088 0)
(-3.53269 0.12747 0)
(-4.05447 0.159471 0)
(-4.70091 0.201092 0)
(-5.49078 0.264847 0)
(-6.58543 0.343019 0)
(-7.77606 0.510986 0)
(-10.177 0.681854 0)
(-11.5842 1.38598 0)
(0.000378972 0.00132331 0)
(-0.00556223 0.00347239 0)
(-0.0209393 0.0046042 0)
(-0.041774 0.00473581 0)
(-0.0637157 0.00474337 0)
(-0.085977 0.00501972 0)
(-0.109426 0.00541199 0)
(-0.134616 0.0057201 0)
(-0.161283 0.00588159 0)
(-0.188722 0.00594107 0)
(-0.216291 0.00597969 0)
(-0.24371 0.00607188 0)
(-0.271032 0.00625384 0)
(-0.29849 0.00652752 0)
(-0.326338 0.00687625 0)
(-0.354784 0.00728183 0)
(-0.384032 0.00774228 0)
(-0.414311 0.00826094 0)
(-0.445922 0.00885179 0)
(-0.479195 0.00952303 0)
(-0.514492 0.0102856 0)
(-0.552148 0.0111463 0)
(-0.592497 0.0121184 0)
(-0.635851 0.0132157 0)
(-0.682572 0.0144664 0)
(-0.733072 0.0158994 0)
(-0.787885 0.0175597 0)
(-0.847669 0.0194909 0)
(-0.913245 0.0217516 0)
(-0.985603 0.024404 0)
(-1.06594 0.0275233 0)
(-1.15566 0.0311962 0)
(-1.25642 0.035536 0)
(-1.37028 0.0406725 0)
(-1.49935 0.0467905 0)
(-1.647 0.0540949 0)
(-1.81567 0.0629159 0)
(-2.01137 0.07358 0)
(-2.23646 0.0866971 0)
(-2.50212 0.102914 0)
(-2.81069 0.123241 0)
(-3.1814 0.149359 0)
(-3.62106 0.182697 0)
(-4.15683 0.228301 0)
(-4.82083 0.286998 0)
(-5.62771 0.377815 0)
(-6.74662 0.486487 0)
(-7.96415 0.721522 0)
(-10.3065 0.977189 0)
(-11.9785 1.97123 0)
(6.23061e-05 0.00147419 0)
(-0.00452312 0.00409657 0)
(-0.0168426 0.0057221 0)
(-0.0352395 0.00614361 0)
(-0.0560685 0.00625066 0)
(-0.0775816 0.00659471 0)
(-0.100013 0.00710662 0)
(-0.124159 0.00756955 0)
(-0.150337 0.00787001 0)
(-0.178205 0.0080227 0)
(-0.207118 0.00811118 0)
(-0.236528 0.00823194 0)
(-0.266151 0.00844279 0)
(-0.295922 0.00875757 0)
(-0.325882 0.00916286 0)
(-0.356104 0.00964093 0)
(-0.386715 0.0101936 0)
(-0.417918 0.0108297 0)
(-0.450041 0.0115709 0)
(-0.483484 0.0124296 0)
(-0.518713 0.0134188 0)
(-0.556178 0.014545 0)
(-0.596318 0.0158205 0)
(-0.639519 0.01726 0)
(-0.686181 0.0188967 0)
(-0.736714 0.0207675 0)
(-0.791619 0.0229309 0)
(-0.851501 0.0254465 0)
(-0.917123 0.028393 0)
(-0.989424 0.0318555 0)
(-1.06955 0.035936 0)
(-1.15892 0.0407505 0)
(-1.25912 0.0464527 0)
(-1.37229 0.0532099 0)
(-1.50049 0.0612759 0)
(-1.6472 0.0709039 0)
(-1.81478 0.0825505 0)
(-2.00941 0.0966121 0)
(-2.23337 0.113916 0)
(-2.49779 0.135274 0)
(-2.8053 0.162009 0)
(-3.17441 0.196311 0)
(-3.61269 0.239947 0)
(-4.14582 0.299627 0)
(-4.80661 0.375801 0)
(-5.60765 0.494319 0)
(-6.71088 0.634937 0)
(-7.93664 0.933121 0)
(-10.1051 1.2847 0)
(-11.9953 2.39864 0)
(-0.00016644 0.00162406 0)
(-0.00436458 0.0046246 0)
(-0.0147829 0.00669083 0)
(-0.030898 0.00744431 0)
(-0.0500048 0.00770046 0)
(-0.0699928 0.00811803 0)
(-0.0905074 0.00873547 0)
(-0.112374 0.00936276 0)
(-0.136452 0.00985298 0)
(-0.162985 0.0101764 0)
(-0.191623 0.0103929 0)
(-0.221781 0.0106018 0)
(-0.252923 0.0108754 0)
(-0.28467 0.0112409 0)
(-0.316768 0.0116928 0)
(-0.349042 0.0122192 0)
(-0.381422 0.0128305 0)
(-0.41397 0.0135465 0)
(-0.446928 0.0144016 0)
(-0.480696 0.0154185 0)
(-0.515798 0.0166159 0)
(-0.552808 0.0180018 0)
(-0.592311 0.0195874 0)
(-0.634834 0.0213853 0)
(-0.680889 0.0234296 0)
(-0.730947 0.0257611 0)
(-0.785511 0.028448 0)
(-0.845143 0.0315641 0)
(-0.910525 0.0352069 0)
(-0.982499 0.0394852 0)
(-1.0621 0.0445295 0)
(-1.15067 0.0504866 0)
(-1.24968 0.0575548 0)
(-1.36124 0.0659389 0)
(-1.4873 0.0759666 0)
(-1.63134 0.0879402 0)
(-1.79564 0.102443 0)
(-1.98624 0.119951 0)
(-2.20556 0.141493 0)
(-2.46414 0.168074 0)
(-2.76515 0.201298 0)
(-3.12577 0.243891 0)
(-3.55435 0.297936 0)
(-4.07462 0.371798 0)
(-4.71868 0.465626 0)
(-5.5003 0.611382 0)
(-6.56023 0.785916 0)
(-7.77726 1.14055 0)
(-9.7494 1.5938 0)
(-11.7171 2.67444 0)
(-0.000260364 0.00178252 0)
(-0.00452124 0.0051188 0)
(-0.0141133 0.00757264 0)
(-0.0287453 0.00865092 0)
(-0.0463788 0.0090701 0)
(-0.0648484 0.00954805 0)
(-0.0833575 0.0102367 0)
(-0.102576 0.0110082 0)
(-0.123706 0.0117095 0)
(-0.147571 0.012267 0)
(-0.174318 0.012698 0)
(-0.203592 0.0130816 0)
(-0.234838 0.0134886 0)
(-0.267505 0.0139529 0)
(-0.301102 0.014476 0)
(-0.335195 0.0150527 0)
(-0.369455 0.0157046 0)
(-0.403694 0.0164664 0)
(-0.437944 0.0173918 0)
(-0.472467 0.018521 0)
(-0.507746 0.019887 0)
(-0.544401 0.0215056 0)
(-0.583146 0.0233906 0)
(-0.624681 0.0255529 0)
(-0.669692 0.0280247 0)
(-0.718794 0.0308455 0)
(-0.77257 0.0340873 0)
(-0.831601 0.0378323 0)
(-0.896512 0.0421933 0)
(-0.968049 0.0472996 0)
(-1.04711 0.0533106 0)
(-1.13488 0.0604039 0)
(-1.23267 0.0688243 0)
(-1.34247 0.0788163 0)
(-1.46607 0.0907828 0)
(-1.60679 0.105079 0)
(-1.76684 0.122411 0)
(-1.95192 0.143346 0)
(-2.16462 0.169096 0)
(-2.41462 0.200879 0)
(-2.70568 0.240552 0)
(-3.05327 0.291385 0)
(-3.46645 0.355773 0)
(-3.96677 0.443601 0)
(-4.58414 0.55509 0)
(-5.33597 0.726799 0)
(-6.33432 0.936705 0)
(-7.51866 1.34149 0)
(-9.28816 1.88894 0)
(-11.2048 3.05514 0)
(-0.000274999 0.00195467 0)
(-0.00467888 0.00561946 0)
(-0.014061 0.00842977 0)
(-0.0280149 0.00980987 0)
(-0.0447338 0.0103838 0)
(-0.0621364 0.0108988 0)
(-0.0791396 0.0116129 0)
(-0.0961499 0.0124829 0)
(-0.114453 0.0133782 0)
(-0.135263 0.0141947 0)
(-0.159209 0.0149013 0)
(-0.186311 0.0155402 0)
(-0.216208 0.0161645 0)
(-0.248388 0.0168028 0)
(-0.28229 0.0174562 0)
(-0.317338 0.018122 0)
(-0.352989 0.0188294 0)
(-0.388793 0.0196273 0)
(-0.424501 0.0205912 0)
(-0.460122 0.0217862 0)
(-0.495956 0.0232683 0)
(-0.53255 0.0250719 0)
(-0.570646 0.0272219 0)
(-0.611075 0.0297334 0)
(-0.654701 0.0326377 0)
(-0.702338 0.0359709 0)
(-0.754731 0.0398024 0)
(-0.812563 0.0442158 0)
(-0.87648 0.0493314 0)
(-0.947174 0.0552934 0)
(-1.02541 0.0622862 0)
(-1.11223 0.0705154 0)
(-1.20873 0.0802726 0)
(-1.3167 0.0918428 0)
(-1.43771 0.105703 0)
(-1.57481 0.122268 0)
(-1.73011 0.142355 0)
(-1.90877 0.16664 0)
(-2.11357 0.196493 0)
(-2.35307 0.233366 0)
(-2.63162 0.279339 0)
(-2.96273 0.338211 0)
(-3.35593 0.412714 0)
(-3.83057 0.51401 0)
(-4.41325 0.642913 0)
(-5.12514 0.838839 0)
(-6.05013 1.08427 0)
(-7.17293 1.53341 0)
(-8.74137 2.16757 0)
(-10.5095 3.39927 0)
(-0.000264905 0.00213634 0)
(-0.00476239 0.00614025 0)
(-0.0141635 0.00929584 0)
(-0.0279001 0.010967 0)
(-0.0442006 0.0116824 0)
(-0.0610403 0.0122118 0)
(-0.0771772 0.0129098 0)
(-0.0927804 0.0138259 0)
(-0.109026 0.0148729 0)
(-0.127265 0.0159343 0)
(-0.148442 0.0169367 0)
(-0.172919 0.0178793 0)
(-0.20061 0.0187872 0)
(-0.231186 0.0196737 0)
(-0.264185 0.0205311 0)
(-0.29905 0.0213504 0)
(-0.335162 0.0221605 0)
(-0.371897 0.0230179 0)
(-0.408754 0.0240166 0)
(-0.445454 0.0252482 0)
(-0.48203 0.0267985 0)
(-0.518829 0.0287305 0)
(-0.556495 0.0310918 0)
(-0.595876 0.033912 0)
(-0.63795 0.0372289 0)
(-0.683713 0.0410775 0)
(-0.734106 0.0455222 0)
(-0.789986 0.0506416 0)
(-0.852103 0.0565558 0)
(-0.921179 0.0634141 0)
(-0.997911 0.071419 0)
(-1.0832 0.0807984 0)
(-1.17797 0.0918856 0)
(-1.28372 0.105006 0)
(-1.40183 0.120705 0)
(-1.53494 0.139465 0)
(-1.68502 0.1622 0)
(-1.85656 0.189709 0)
(-2.05242 0.223496 0)
(-2.27996 0.265262 0)
(-2.54388 0.317282 0)
(-2.85572 0.383848 0)
(-3.22509 0.468075 0)
(-3.669 0.582094 0)
(-4.21057 0.727828 0)
(-4.87241 0.945959 0)
(-5.71564 1.22562 0)
(-6.74976 1.7138 0)
(-8.11668 2.42137 0)
(-9.66883 3.69925 0)
(-0.000253854 0.00232439 0)
(-0.00479439 0.00668296 0)
(-0.0142524 0.0101873 0)
(-0.027964 0.0121454 0)
(-0.0441165 0.0129968 0)
(-0.0607207 0.0135268 0)
(-0.0764852 0.0141804 0)
(-0.0913965 0.0151008 0)
(-0.106465 0.0162545 0)
(-0.123021 0.017527 0)
(-0.142114 0.0188122 0)
(-0.164306 0.0200697 0)
(-0.189734 0.021294 0)
(-0.218279 0.0224786 0)
(-0.249656 0.023602 0)
(-0.283443 0.0246418 0)
(-0.319081 0.0256169 0)
(-0.355907 0.0265816 0)
(-0.393273 0.0276397 0)
(-0.430673 0.0289053 0)
(-0.467868 0.0304949 0)
(-0.504951 0.0325061 0)
(-0.542367 0.0350194 0)
(-0.580861 0.0380909 0)
(-0.621412 0.0417753 0)
(-0.66512 0.0461147 0)
(-0.71309 0.0511715 0)
(-0.766368 0.0570176 0)
(-0.825863 0.0637662 0)
(-0.892399 0.0715628 0)
(-0.966686 0.080618 0)
(-1.04955 0.0911739 0)
(-1.14177 0.103596 0)
(-1.2446 0.118249 0)
(-1.35918 0.135735 0)
(-1.48773 0.156608 0)
(-1.63202 0.181864 0)
(-1.79579 0.212437 0)
(-1.98187 0.249938 0)
(-2.19636 0.296322 0)
(-2.44407 0.354039 0)
(-2.73456 0.427824 0)
(-3.07716 0.521213 0)
(-3.48632 0.647016 0)
(-3.98201 0.808588 0)
(-4.58521 1.04676 0)
(-5.34046 1.35798 0)
(-6.26462 1.87972 0)
(-7.4285 2.64517 0)
(-8.72232 3.95093 0)
(-0.000246432 0.00251794 0)
(-0.00480607 0.00724678 0)
(-0.0143071 0.0111082 0)
(-0.0280422 0.0133571 0)
(-0.044151 0.0143434 0)
(-0.0606682 0.014868 0)
(-0.0763072 0.0154638 0)
(-0.0909678 0.016364 0)
(-0.105533 0.0175913 0)
(-0.121225 0.0190415 0)
(-0.13908 0.0205836 0)
(-0.15972 0.0221433 0)
(-0.183395 0.023687 0)
(-0.210129 0.0251899 0)
(-0.2398 0.0266155 0)
(-0.27215 0.0279252 0)
(-0.306748 0.0291213 0)
(-0.342997 0.0302466 0)
(-0.380221 0.0314046 0)
(-0.417791 0.0327235 0)
(-0.455271 0.0343464 0)
(-0.492519 0.036406 0)
(-0.52975 0.0390208 0)
(-0.567531 0.0422827 0)
(-0.60674 0.0462749 0)
(-0.648475 0.051057 0)
(-0.693925 0.0566976 0)
(-0.744282 0.0632642 0)
(-0.800616 0.0708615 0)
(-0.863887 0.079625 0)
(-0.934882 0.0897636 0)
(-1.01442 0.101524 0)
(-1.10319 0.115294 0)
(-1.20225 0.131469 0)
(-1.31256 0.150698 0)
(-1.43589 0.173603 0)
(-1.57379 0.20125 0)
(-1.7293 0.234705 0)
(-1.90502 0.275669 0)
(-2.10589 0.326341 0)
(-2.33651 0.389332 0)
(-2.60458 0.469753 0)
(-2.91885 0.571582 0)
(-3.29089 0.708075 0)
(-3.73806 0.884126 0)
(-4.27719 1.13999 0)
(-4.94102 1.47913 0)
(-5.74194 2.02848 0)
(-6.70445 2.83565 0)
(-7.72083 4.15054 0)
(-0.000241372 0.00271699 0)
(-0.00481325 0.00783143 0)
(-0.0143441 0.0120592 0)
(-0.0281049 0.0146055 0)
(-0.0441956 0.0157285 0)
(-0.0606701 0.0162459 0)
(-0.0762718 0.0167788 0)
(-0.0908766 0.0176488 0)
(-0.105293 0.0189336 0)
(-0.120658 0.0205401 0)
(-0.137942 0.0223171 0)
(-0.157748 0.0241599 0)
(-0.180346 0.0260115 0)
(-0.205824 0.0278315 0)
(-0.234152 0.0295715 0)
(-0.265198 0.0311773 0)
(-0.298655 0.0326317 0)
(-0.334035 0.0339602 0)
(-0.370705 0.035258 0)
(-0.408013 0.0366588 0)
(-0.445419 0.0383252 0)
(-0.482623 0.040421 0)
(-0.519641 0.0431031 0)
(-0.556847 0.0465043 0)
(-0.594967 0.0507437 0)
(-0.635013 0.0559094 0)
(-0.67817 0.062085 0)
(-0.725699 0.0693411 0)
(-0.778786 0.0777758 0)
(-0.838515 0.0875122 0)
(-0.905776 0.0987508 0)
(-0.981414 0.111736 0)
(-1.06611 0.126862 0)
(-1.16077 0.144552 0)
(-1.26621 0.165485 0)
(-1.38383 0.19035 0)
(-1.51497 0.220261 0)
(-1.662 0.256415 0)
(-1.82725 0.300582 0)
(-2.01455 0.355185 0)
(-2.22815 0.422983 0)
(-2.47396 0.509396 0)
(-2.75995 0.618833 0)
(-3.09471 0.764812 0)
(-3.49333 0.953719 0)
(-3.96705 1.22478 0)
(-4.53994 1.58752 0)
(-5.21334 2.15807 0)
(-5.98245 2.99125 0)
(-6.72409 4.29697 0)
(-0.000237272 0.00292166 0)
(-0.00482067 0.0084374 0)
(-0.0143754 0.0130407 0)
(-0.0281582 0.0158915 0)
(-0.0442336 0.0171543 0)
(-0.0606712 0.0176639 0)
(-0.076252 0.0181327 0)
(-0.0908577 0.0189704 0)
(-0.105265 0.0203081 0)
(-0.120561 0.0220627 0)
(-0.13766 0.0240633 0)
(-0.157121 0.0261764 0)
(-0.179196 0.0283236 0)
(-0.203973 0.0304524 0)
(-0.231461 0.0325054 0)
(-0.261586 0.0344151 0)
(-0.294129 0.0361457 0)
(-0.328683 0.0377034 0)
(-0.36469 0.03917 0)
(-0.401526 0.0406782 0)
(-0.438622 0.0424043 0)
(-0.475613 0.0445367 0)
(-0.512357 0.0472681 0)
(-0.549089 0.0507723 0)
(-0.58638 0.0552089 0)
(-0.625115 0.0607012 0)
(-0.666421 0.0673568 0)
(-0.711548 0.0752565 0)
(-0.761736 0.0844972 0)
(-0.818147 0.0951911 0)
(-0.881758 0.107526 0)
(-0.953457 0.121738 0)
(-1.03394 0.138221 0)
(-1.12402 0.157414 0)
(-1.22442 0.180016 0)
(-1.33626 0.206773 0)
(-1.46067 0.238833 0)
(-1.59946 0.277513 0)
(-1.75467 0.324635 0)
(-1.92919 0.382817 0)
(-2.12677 0.45495 0)
(-2.35174 0.546698 0)
(-2.61116 0.662867 0)
(-2.91074 0.817089 0)
(-3.26345 1.01709 0)
(-3.67453 1.30075 0)
(-4.16134 1.68244 0)
(-4.71164 2.26759 0)
(-5.30268 3.11228 0)
(-5.79074 4.39215 0)
(-0.000233497 0.00313213 0)
(-0.00482907 0.00906515 0)
(-0.0144056 0.0140537 0)
(-0.0282083 0.0172161 0)
(-0.0442684 0.0186217 0)
(-0.0606676 0.0191233 0)
(-0.0762248 0.0195276 0)
(-0.0908373 0.0203339 0)
(-0.105272 0.0217257 0)
(-0.120589 0.0236288 0)
(-0.137669 0.0258512 0)
(-0.157038 0.0282305 0)
(-0.17892 0.0306676 0)
(-0.203389 0.0330994 0)
(-0.230453 0.0354613 0)
(-0.260054 0.0376751 0)
(-0.292007 0.0396875 0)
(-0.32596 0.0414858 0)
(-0.361404 0.0431369 0)
(-0.397754 0.0447699 0)
(-0.434478 0.0465686 0)
(-0.471125 0.0487438 0)
(-0.507579 0.0515178 0)
(-0.543926 0.0551042 0)
(-0.580622 0.0597023 0)
(-0.61842 0.0654766 0)
(-0.658406 0.0725623 0)
(-0.701711 0.0810582 0)
(-0.749608 0.0910654 0)
(-0.803287 0.102688 0)
(-0.863776 0.116101 0)
(-0.931987 0.131528 0)
(-1.00864 0.149356 0)
(-1.09448 0.170034 0)
(-1.19018 0.194269 0)
(-1.29664 0.222857 0)
(-1.41483 0.256966 0)
(-1.54614 0.298016 0)
(-1.69231 0.347871 0)
(-1.85546 0.409307 0)
(-2.03881 0.485334 0)
(-2.24537 0.581794 0)
(-2.48121 0.703839 0)
(-2.74951 0.865097 0)
(-3.06112 1.07442 0)
(-3.41571 1.36813 0)
(-3.82501 1.76405 0)
(-4.26361 2.35737 0)
(-4.69808 3.2008 0)
(-4.96685 4.4407 0)
(-0.000229863 0.00334865 0)
(-0.00483836 0.00971492 0)
(-0.0144358 0.0150996 0)
(-0.0282573 0.0185802 0)
(-0.0443028 0.0201318 0)
(-0.0606624 0.020625 0)
(-0.076192 0.0209643 0)
(-0.090807 0.0217408 0)
(-0.10527 0.0231903 0)
(-0.120628 0.025246 0)
(-0.137741 0.027694 0)
(-0.157114 0.0303423 0)
(-0.178956 0.0330704 0)
(-0.203327 0.0358049 0)
(-0.230222 0.038475 0)
(-0.25958 0.0409925 0)
(-0.291219 0.0432878 0)
(-0.324805 0.0453304 0)
(-0.359856 0.0471723 0)
(-0.395826 0.0489382 0)
(-0.432187 0.0508181 0)
(-0.468554 0.0530398 0)
(-0.504702 0.0558561 0)
(-0.540724 0.0595143 0)
(-0.576971 0.064255 0)
(-0.614185 0.0702801 0)
(-0.653188 0.0777615 0)
(-0.695276 0.0868164 0)
(-0.741586 0.0975546 0)
(-0.793285 0.110076 0)
(-0.851413 0.124541 0)
(-0.916884 0.141165 0)
(-0.990433 0.160318 0)
(-1.07276 0.182458 0)
(-1.16449 0.208291 0)
(-1.26637 0.238654 0)
(-1.37925 0.274726 0)
(-1.50421 0.318016 0)
(-1.64271 0.370414 0)
(-1.7963 0.434825 0)
(-1.9677 0.514361 0)
(-2.15884 0.614976 0)
(-2.37482 0.742118 0)
(-2.61671 0.9093 0)
(-2.89328 1.12626 0)
(-3.19946 1.42761 0)
(-3.54208 1.8333 0)
(-3.88465 2.42875 0)
(-4.1875 3.26031 0)
(-4.27773 4.44889 0)
(-0.000226365 0.00357141 0)
(-0.0048484 0.0103872 0)
(-0.0144659 0.0161799 0)
(-0.0283051 0.019985 0)
(-0.044337 0.0216857 0)
(-0.0606567 0.02217 0)
(-0.0761563 0.0224437 0)
(-0.09077 0.0231921 0)
(-0.105258 0.0247032 0)
(-0.120656 0.0269171 0)
(-0.137811 0.029597 0)
(-0.157216 0.0325203 0)
(-0.17907 0.035545 0)
(-0.203426 0.038587 0)
(-0.230275 0.0415687 0)
(-0.259541 0.0443923 0)
(-0.291037 0.0469719 0)
(-0.324425 0.0492599 0)
(-0.359232 0.0512944 0)
(-0.394929 0.0531956 0)
(-0.43101 0.0551601 0)
(-0.467095 0.0574323 0)
(-0.502985 0.0602907 0)
(-0.538732 0.0640169 0)
(-0.574681 0.0688907 0)
(-0.611452 0.075153 0)
(-0.649983 0.0830066 0)
(-0.691287 0.0925984 0)
(-0.736558 0.104044 0)
(-0.786935 0.117442 0)
(-0.843441 0.132941 0)
(-0.906965 0.150742 0)
(-0.978237 0.171202 0)
(-1.0579 0.194781 0)
(-1.14655 0.222181 0)
(-1.24483 0.254272 0)
(-1.3535 0.292239 0)
(-1.47338 0.337661 0)
(-1.60573 0.392452 0)
(-1.75167 0.459608 0)
(-1.91344 0.542329 0)
(-2.09223 0.64663 0)
(-2.29211 0.778192 0)
(-2.51257 0.950321 0)
(-2.76033 1.17339 0)
(-3.02657 1.48018 0)
(-3.31378 1.89162 0)
(-3.57717 2.48379 0)
(-3.77359 3.29512 0)
(-3.72611 4.42381 0)
(-0.000223034 0.00380061 0)
(-0.00485907 0.0110827 0)
(-0.0144956 0.0172957 0)
(-0.0283513 0.0214316 0)
(-0.0443703 0.0232846 0)
(-0.06065 0.0237597 0)
(-0.0761177 0.0239668 0)
(-0.0907275 0.0246889 0)
(-0.105238 0.0262659 0)
(-0.120673 0.0286438 0)
(-0.137869 0.0315624 0)
(-0.157307 0.0347682 0)
(-0.179185 0.0380972 0)
(-0.203554 0.0414541 0)
(-0.230399 0.0447542 0)
(-0.259639 0.0478888 0)
(-0.291073 0.0507561 0)
(-0.324354 0.0532909 0)
(-0.359009 0.0555183 0)
(-0.394512 0.0575549 0)
(-0.430375 0.0596042 0)
(-0.466227 0.0619275 0)
(-0.501882 0.0648285 0)
(-0.537393 0.0686231 0)
(-0.573093 0.0736278 0)
(-0.609588 0.0801231 0)
(-0.647747 0.0883459 0)
(-0.688602 0.0984646 0)
(-0.733274 0.110607 0)
(-0.782859 0.12487 0)
(-0.838352 0.141391 0)
(-0.900608 0.160359 0)
(-0.970332 0.182113 0)
(-1.04813 0.207115 0)
(-1.13456 0.236059 0)
(-1.23016 0.269842 0)
(-1.33563 0.309653 0)
(-1.45161 0.357123 0)
(-1.5792 0.414189 0)
(-1.71917 0.483909 0)
(-1.87343 0.569556 0)
(-2.04239 0.677154 0)
(-2.22948 0.812567 0)
(-2.43286 0.988809 0)
(-2.65733 1.21666 0)
(-2.89126 1.52695 0)
(-3.13326 1.9406 0)
(-3.33309 2.52483 0)
(-3.44567 3.30955 0)
(-3.29671 4.37259 0)
(-0.000219904 0.00403646 0)
(-0.00487031 0.0118021 0)
(-0.0145246 0.0184484 0)
(-0.0283951 0.0229213 0)
(-0.044402 0.0249295 0)
(-0.0606415 0.0253951 0)
(-0.0760756 0.025535 0)
(-0.0906794 0.0262323 0)
(-0.10521 0.0278795 0)
(-0.12068 0.0304277 0)
(-0.137914 0.0335922 0)
(-0.157384 0.0370884 0)
(-0.179286 0.0407301 0)
(-0.203672 0.0444106 0)
(-0.230526 0.0480372 0)
(-0.259759 0.0514898 0)
(-0.291161 0.0546492 0)
(-0.324373 0.0574332 0)
(-0.358917 0.059854 0)
(-0.394269 0.0620253 0)
(-0.429949 0.0641583 0)
(-0.465595 0.0665319 0)
(-0.501033 0.0694758 0)
(-0.536326 0.0733399 0)
(-0.571806 0.0784778 0)
(-0.608081 0.0852092 0)
(-0.645994 0.0938037 0)
(-0.686562 0.104453 0)
(-0.730875 0.117295 0)
(-0.779991 0.132426 0)
(-0.83487 0.149969 0)
(-0.896326 0.170103 0)
(-0.965035 0.193147 0)
(-1.04155 0.219564 0)
(-1.1264 0.250037 0)
(-1.22006 0.285488 0)
(-1.32313 0.327105 0)
(-1.43616 0.376562 0)
(-1.56005 0.435815 0)
(-1.69539 0.507955 0)
(-1.84365 0.596324 0)
(-2.00496 0.7069 0)
(-2.18176 0.845688 0)
(-2.37138 1.02533 0)
(-2.5768 1.25679 0)
(-2.7844 1.56887 0)
(-2.98942 1.98173 0)
(-3.13841 2.55414 0)
(-3.18622 3.30764 0)
(-2.96449 4.30155 0)
(-0.000217002 0.0042792 0)
(-0.00488201 0.012546 0)
(-0.0145527 0.0196391 0)
(-0.0284361 0.0244551 0)
(-0.044431 0.0266215 0)
(-0.0606305 0.0270777 0)
(-0.0760295 0.0271493 0)
(-0.0906249 0.0278235 0)
(-0.105173 0.0295455 0)
(-0.120676 0.0322703 0)
(-0.137945 0.0356882 0)
(-0.157446 0.039483 0)
(-0.17937 0.0434463 0)
(-0.203772 0.0474595 0)
(-0.230635 0.0514215 0)
(-0.259865 0.0551995 0)
(-0.29124 0.0586565 0)
(-0.324394 0.0616926 0)
(-0.358841 0.0643076 0)
(-0.394058 0.0666128 0)
(-0.429568 0.0688279 0)
(-0.465019 0.0712503 0)
(-0.500246 0.0742368 0)
(-0.535323 0.0781719 0)
(-0.570591 0.0834472 0)
(-0.606661 0.0904213 0)
(-0.644374 0.0993964 0)
(-0.684734 0.110587 0)
(-0.728809 0.12414 0)
(-0.777625 0.14015 0)
(-0.83211 0.158726 0)
(-0.893039 0.180033 0)
(-0.96105 0.204373 0)
(-1.03666 0.232205 0)
(-1.12034 0.264203 0)
(-1.21253 0.301306 0)
(-1.31373 0.344705 0)
(-1.42442 0.396101 0)
(-1.54534 0.457473 0)
(-1.67689 0.53192 0)
(-1.82023 0.622837 0)
(-1.97512 0.736134 0)
(-2.14331 0.877888 0)
(-2.32142 1.06031 0)
(-2.51074 1.29435 0)
(-2.69629 1.60669 0)
(-2.87033 2.01623 0)
(-2.97833 2.57361 0)
(-2.97475 3.29264 0)
(-2.70246 4.21589 0)
(-0.000214352 0.00452908 0)
(-0.00489407 0.0133151 0)
(-0.0145797 0.0208693 0)
(-0.0284735 0.0260345 0)
(-0.0444566 0.0283619 0)
(-0.0606162 0.0288086 0)
(-0.0759785 0.0288109 0)
(-0.0905633 0.0294638 0)
(-0.105126 0.0312652 0)
(-0.12066 0.0341733 0)
(-0.137962 0.0378523 0)
(-0.157491 0.0419541 0)
(-0.179436 0.0462481 0)
(-0.203851 0.0506035 0)
(-0.230722 0.0549099 0)
(-0.259946 0.0590212 0)
(-0.291294 0.0627815 0)
(-0.324388 0.066073 0)
(-0.358739 0.0688829 0)
(-0.393822 0.0713212 0)
(-0.429164 0.0736165 0)
(-0.464419 0.0760858 0)
(-0.499432 0.0791141 0)
(-0.534287 0.0831216 0)
(-0.569337 0.0885391 0)
(-0.6052 0.0957644 0)
(-0.642721 0.105132 0)
(-0.682896 0.116879 0)
(-0.726776 0.131161 0)
(-0.775363 0.148066 0)
(-0.829551 0.167691 0)
(-0.890079 0.190185 0)
(-0.957549 0.215831 0)
(-1.03244 0.245084 0)
(-1.11517 0.278609 0)
(-1.20613 0.317357 0)
(-1.30577 0.362522 0)
(-1.41445 0.415821 0)
(-1.53279 0.479253 0)
(-1.66103 0.55591 0)
(-1.80003 0.649226 0)
(-1.94927 0.765007 0)
(-2.10979 0.909357 0)
(-2.27768 1.09399 0)
(-2.45271 1.32969 0)
(-2.61895 1.64092 0)
(-2.76621 2.04495 0)
(-2.84006 2.5847 0)
(-2.79613 3.267 0)
(-2.48844 4.11967 0)
(-0.00021197 0.00478638 0)
(-0.00490635 0.0141098 0)
(-0.0146053 0.0221402 0)
(-0.028507 0.0276607 0)
(-0.0444779 0.0301517 0)
(-0.0605977 0.0305891 0)
(-0.0759221 0.0305212 0)
(-0.0904939 0.0311543 0)
(-0.105069 0.0330401 0)
(-0.12063 0.0361383 0)
(-0.137963 0.0400863 0)
(-0.157517 0.0445039 0)
(-0.17948 0.0491379 0)
(-0.203907 0.0538453 0)
(-0.230782 0.0585054 0)
(-0.259997 0.0629579 0)
(-0.291314 0.0670272 0)
(-0.324345 0.0705771 0)
(-0.358596 0.0735829 0)
(-0.39354 0.076153 0)
(-0.428708 0.0785264 0)
(-0.463761 0.0810403 0)
(-0.498552 0.0841094 0)
(-0.533176 0.0881906 0)
(-0.567996 0.0937553 0)
(-0.603642 0.101241 0)
(-0.640962 0.111016 0)
(-0.680948 0.123337 0)
(-0.724639 0.138366 0)
(-0.773011 0.156187 0)
(-0.826929 0.17688 0)
(-0.887096 0.200578 0)
(-0.954077 0.227544 0)
(-1.02831 0.258228 0)
(-1.11018 0.293285 0)
(-1.20001 0.333674 0)
(-1.29819 0.38059 0)
(-1.40501 0.43576 0)
(-1.52092 0.501199 0)
(-1.64606 0.579974 0)
(-1.78096 0.675545 0)
(-1.92487 0.793587 0)
(-2.07817 0.940179 0)
(-2.23652 1.12648 0)
(-2.39827 1.36296 0)
(-2.5469 1.67182 0)
(-2.67019 2.06846 0)
(-2.71485 2.58847 0)
(-2.63808 3.23264 0)
(-2.30614 4.01576 0)
(-0.000209864 0.00505137 0)
(-0.00491869 0.0149309 0)
(-0.0146293 0.0234531 0)
(-0.028536 0.029335 0)
(-0.044494 0.0319923 0)
(-0.0605743 0.0324204 0)
(-0.0758594 0.0322813 0)
(-0.0904157 0.0328964 0)
(-0.105 0.0348715 0)
(-0.120585 0.038167 0)
(-0.137945 0.0423923 0)
(-0.157521 0.0471346 0)
(-0.1795 0.0521183 0)
(-0.203936 0.0571876 0)
(-0.230812 0.0622109 0)
(-0.260014 0.0670125 0)
(-0.291295 0.0713965 0)
(-0.324257 0.0752079 0)
(-0.358401 0.07841 0)
(-0.393201 0.0811107 0)
(-0.428189 0.0835595 0)
(-0.463031 0.0861154 0)
(-0.49759 0.0892237 0)
(-0.53197 0.0933798 0)
(-0.566548 0.0990967 0)
(-0.601962 0.106853 0)
(-0.639067 0.117048 0)
(-0.678851 0.129961 0)
(-0.722339 0.145759 0)
(-0.770485 0.164518 0)
(-0.824123 0.186299 0)
(-0.883923 0.211219 0)
(-0.950412 0.239522 0)
(-1.02399 0.271647 0)
(-1.105 0.308241 0)
(-1.19371 0.350266 0)
(-1.29044 0.39892 0)
(-1.3954 0.455928 0)
(-1.50891 0.523317 0)
(-1.63096 0.604118 0)
(-1.76182 0.701797 0)
(-1.90047 0.821876 0)
(-2.0467 0.970356 0)
(-2.19579 1.1578 0)
(-2.3448 1.39422 0)
(-2.4769 1.69953 0)
(-2.57825 2.0871 0)
(-2.59744 2.5857 0)
(-2.49365 3.1909 0)
(-2.1456 3.9063 0)
(-0.000208036 0.00532435 0)
(-0.00493093 0.0157788 0)
(-0.0146514 0.0248092 0)
(-0.02856 0.0310589 0)
(-0.0445042 0.0338849 0)
(-0.0605449 0.0343038 0)
(-0.0757896 0.0340928 0)
(-0.0903281 0.0346912 0)
(-0.104919 0.0367607 0)
(-0.120524 0.040261 0)
(-0.137907 0.0447721 0)
(-0.157503 0.0498484 0)
(-0.179493 0.0551915 0)
(-0.203934 0.0606329 0)
(-0.230807 0.066029 0)
(-0.259991 0.0711879 0)
(-0.29123 0.0758922 0)
(-0.324118 0.079968 0)
(-0.35815 0.0833668 0)
(-0.392797 0.0861962 0)
(-0.427596 0.0887175 0)
(-0.462219 0.0913123 0)
(-0.496535 0.0944579 0)
(-0.53066 0.0986897 0)
(-0.564981 0.104564 0)
(-0.600148 0.1126 0)
(-0.637021 0.123231 0)
(-0.676585 0.136755 0)
(-0.71985 0.153342 0)
(-0.767747 0.17306 0)
(-0.821081 0.195951 0)
(-0.880487 0.222112 0)
(-0.946455 0.251766 0)
(-1.01934 0.285341 0)
(-1.09945 0.323477 0)
(-1.18701 0.367132 0)
(-1.28225 0.417506 0)
(-1.3853 0.476316 0)
(-1.49635 0.545593 0)
(-1.61525 0.628321 0)
(-1.742 0.727952 0)
(-1.87535 0.849834 0)
(-2.0145 0.999841 0)
(-2.15441 1.18789 0)
(-2.29103 1.42343 0)
(-2.40739 1.72408 0)
(-2.48845 2.10112 0)
(-2.48519 2.57698 0)
(-2.35918 3.14287 0)
(-2.00137 3.7929 0)
(-0.000206479 0.00560562 0)
(-0.00494287 0.0166542 0)
(-0.0146714 0.0262097 0)
(-0.0285786 0.0328338 0)
(-0.0445075 0.0358308 0)
(-0.0605088 0.0362404 0)
(-0.075712 0.0359568 0)
(-0.0902299 0.0365402 0)
(-0.104824 0.0387092 0)
(-0.120445 0.0424219 0)
(-0.137848 0.0472276 0)
(-0.157458 0.0526473 0)
(-0.179456 0.05836 0)
(-0.203898 0.0641838 0)
(-0.230762 0.0699626 0)
(-0.259924 0.0754868 0)
(-0.291115 0.0805171 0)
(-0.323922 0.0848601 0)
(-0.357833 0.0884556 0)
(-0.392321 0.0914117 0)
(-0.426923 0.094002 0)
(-0.461317 0.0966322 0)
(-0.495379 0.0998129 0)
(-0.529237 0.104121 0)
(-0.563289 0.110157 0)
(-0.598194 0.118483 0)
(-0.634816 0.129565 0)
(-0.674138 0.143718 0)
(-0.717156 0.161116 0)
(-0.764778 0.181814 0)
(-0.817777 0.205835 0)
(-0.876752 0.233254 0)
(-0.942157 0.264273 0)
(-1.01431 0.299308 0)
(-1.09347 0.338986 0)
(-1.17981 0.384262 0)
(-1.27348 0.436335 0)
(-1.37454 0.496904 0)
(-1.48304 0.568 0)
(-1.59869 0.652547 0)
(-1.72122 0.753962 0)
(-1.84917 0.8774 0)
(-1.98119 1.02856 0)
(-2.11197 1.21668 0)
(-2.23646 1.45054 0)
(-2.33778 1.74548 0)
(-2.40006 2.1107 0)
(-2.37706 2.56282 0)
(-2.23303 3.08947 0)
(-1.87075 3.67688 0)
(-0.000205178 0.00589551 0)
(-0.00495432 0.0175576 0)