/*--------------------------------*- C++ -*----------------------------------*\
  =========                 |
  \\      /  F ield         | OpenFOAM: The Open Source CFD Toolbox
   \\    /   O peration     | Website:  https://openfoam.org
    \\  /    A nd           | Version:  7
     \\/     M anipulation  |
\*---------------------------------------------------------------------------*/
FoamFile
{
    version     2.0;
    format      ascii;
    class       surfaceScalarField;
    location    "0.19";
    object      ddtCorrDdt0(phi);
}
// * * * * * * * * * * * * * * * * * * * * * * * * * * * * * * * * * * * * * //

dimensions      [0 3 -2 0 0 0 0];

internalField   nonuniform List<scalar> 
139350
(
-7.47243e-10
7.48e-10
-1.9106e-09
1.16507e-09
-3.12307e-09
1.2143e-09
-4.27986e-09
1.15838e-09
-5.43699e-09
1.15866e-09
-6.64078e-09
1.20525e-09
-7.89203e-09
1.2527e-09
-9.17458e-09
1.28421e-09
-1.0473e-08
1.29999e-09
-1.17802e-08
1.30911e-09
-1.31002e-08
1.32155e-09
-1.4445e-08
1.34658e-09
-1.58315e-08
1.38798e-09
-1.72753e-08
1.44526e-09
-1.87889e-08
1.51514e-09
-2.0381e-08
1.59346e-09
-2.2058e-08
1.67901e-09
-2.3828e-08
1.77109e-09
-2.56982e-08
1.87232e-09
-2.76817e-08
1.98448e-09
-2.97908e-08
2.11073e-09
-3.20425e-08
2.25275e-09
-3.44549e-08
2.41385e-09
-3.70493e-08
2.59542e-09
-3.98485e-08
2.80127e-09
-4.28821e-08
3.03433e-09
-4.61801e-08
3.30015e-09
-4.97827e-08
3.60324e-09
-5.37324e-08
3.95147e-09
-5.80835e-08
4.35197e-09
-6.28962e-08
4.81418e-09
-6.82451e-08
5.34985e-09
-7.42162e-08
5.97304e-09
-8.09198e-08
6.70415e-09
-8.84793e-08
7.56151e-09
-9.70653e-08
8.5863e-09
-1.06867e-07
9.80326e-09
-1.1816e-07
1.12933e-08
-1.31251e-07
1.30924e-08
-1.46611e-07
1.53611e-08
-1.64775e-07
1.81653e-08
-1.86595e-07
2.18209e-08
-2.13085e-07
2.64917e-08
-2.45943e-07
3.28576e-08
-2.8723e-07
4.12887e-08
-3.40714e-07
5.34832e-08
-4.11142e-07
7.04296e-08
-5.10982e-07
9.98395e-08
-6.34032e-07
1.23053e-07
4.42505e-07
-1.07653e-06
-1.10574e-09
1.85466e-09
-3.44483e-09
3.50602e-09
-6.09013e-09
3.86157e-09
-8.55715e-09
3.62711e-09
-1.09934e-08
3.59654e-09
-1.3574e-08
3.78741e-09
-1.6296e-08
3.97629e-09
-1.90869e-08
4.077e-09
-2.18863e-08
4.101e-09
-2.46698e-08
4.09479e-09
-2.74499e-08
4.10332e-09
-3.02621e-08
4.16066e-09
-3.31506e-08
4.27813e-09
-3.61543e-08
4.45048e-09
-3.93012e-08
4.66381e-09
-4.26098e-08
4.90341e-09
-4.60945e-08
5.16596e-09
-4.97725e-08
5.45035e-09
-5.36624e-08
5.76439e-09
-5.77901e-08
6.11323e-09
-6.2183e-08
6.50539e-09
-6.68748e-08
6.94572e-09
-7.19028e-08
7.44346e-09
-7.73103e-08
8.00405e-09
-8.31476e-08
8.64076e-09
-8.94765e-08
9.36402e-09
-9.63666e-08
1.01926e-08
-1.03905e-07
1.11422e-08
-1.12189e-07
1.22373e-08
-1.21338e-07
1.35017e-08
-1.31487e-07
1.49653e-08
-1.428e-07
1.66634e-08
-1.55466e-07
1.86412e-08
-1.69718e-07
2.09571e-08
-1.85831e-07
2.36761e-08
-2.04151e-07
2.69073e-08
-2.25098e-07
3.07519e-08
-2.49213e-07
3.54089e-08
-2.77173e-07
4.10534e-08
-3.09885e-07
4.80739e-08
-3.48496e-07
5.67781e-08
-3.94678e-07
6.80032e-08
-4.50488e-07
8.23035e-08
-5.19392e-07
1.01762e-07
-6.05288e-07
1.27187e-07
-7.1676e-07
1.64955e-07
-8.59999e-07
2.13669e-07
-1.07088e-06
3.10725e-07
-1.34434e-06
3.96515e-07
9.61551e-07
-1.86338e-06
-9.24685e-10
2.78039e-09
-3.53876e-09
6.12208e-09
-6.90851e-09
7.2334e-09
-1.02054e-08
6.92578e-09
-1.34086e-08
6.80151e-09
-1.67699e-08
7.15038e-09
-2.03512e-08
7.55924e-09
-2.406e-08
7.78778e-09
-2.77868e-08
7.82964e-09
-3.14724e-08
7.78259e-09
-3.51191e-08
7.75182e-09
-3.87721e-08
7.81566e-09
-4.24934e-08
8.00111e-09
-4.63386e-08
8.29738e-09
-5.03485e-08
8.67551e-09
-5.45502e-08
9.10662e-09
-5.8966e-08
9.58417e-09
-6.36218e-08
1.01075e-08
-6.85454e-08
1.06903e-08
-7.37721e-08
1.1341e-08
-7.93378e-08
1.20729e-08
-8.52843e-08
1.28934e-08
-9.16568e-08
1.38178e-08
-9.85089e-08
1.48573e-08
-1.05904e-07
1.60378e-08
-1.13921e-07
1.73819e-08
-1.22653e-07
1.89269e-08
-1.32215e-07
2.07054e-08
-1.4274e-07
2.27643e-08
-1.54388e-07
2.51504e-08
-1.67342e-07
2.79214e-08
-1.81821e-07
3.11434e-08
-1.9808e-07
3.49025e-08
-2.16426e-07
3.93036e-08
-2.37227e-07
4.4479e-08
-2.60928e-07
5.06088e-08
-2.88093e-07
5.79181e-08
-3.19394e-07
6.67106e-08
-3.55738e-07
7.73985e-08
-3.98234e-07
9.05714e-08
-4.48383e-07
1.06928e-07
-5.08249e-07
1.27871e-07
-5.80401e-07
1.54457e-07
-6.69234e-07
1.90595e-07
-7.79263e-07
2.37217e-07
-9.22113e-07
3.07804e-07
-1.10258e-06
3.9414e-07
-1.36994e-06
5.78078e-07
-1.72586e-06
7.52442e-07
1.5855e-06
-2.3498e-06
-6.38995e-10
3.42053e-09
-2.97573e-09
8.46089e-09
-6.45835e-09
1.07182e-08
-1.01957e-08
1.0665e-08
-1.38915e-08
1.04991e-08
-1.77143e-08
1.0975e-08
-2.17917e-08
1.16384e-08
-2.60754e-08
1.20736e-08
-3.04404e-08
1.21965e-08
-3.47848e-08
1.21293e-08
-3.90746e-08
1.20435e-08
-4.33368e-08
1.20799e-08
-4.76308e-08
1.22969e-08
-5.20177e-08
1.26859e-08
-5.65455e-08
1.32053e-08
-6.12501e-08
1.38128e-08
-6.61629e-08
1.44994e-08
-7.13205e-08
1.52664e-08
-7.67623e-08
1.61347e-08
-8.25352e-08
1.71151e-08
-8.86839e-08
1.82235e-08
-9.52566e-08
1.94674e-08
-1.02302e-07
2.08654e-08
-1.09878e-07
2.2434e-08
-1.1805e-07
2.42125e-08
-1.26905e-07
2.62378e-08
-1.36545e-07
2.85696e-08
-1.47101e-07
3.12622e-08
-1.58724e-07
3.43894e-08
-1.71599e-07
3.80263e-08
-1.85939e-07
4.2263e-08
-2.01997e-07
4.72021e-08
-2.20069e-07
5.29776e-08
-2.40509e-07
5.97439e-08
-2.63744e-07
6.77163e-08
-2.90276e-07
7.71416e-08
-3.20759e-07
8.8403e-08
-3.55941e-07
1.01893e-07
-3.96858e-07
1.18317e-07
-4.44738e-07
1.38452e-07
-5.01257e-07
1.63448e-07
-5.68709e-07
1.95324e-07
-6.49879e-07
2.35629e-07
-7.49681e-07
2.90397e-07
-8.72711e-07
3.60249e-07
-1.0324e-06
4.67492e-07
-1.2325e-06
5.94238e-07
-1.52551e-06
8.71094e-07
-1.92664e-06
1.15358e-06
2.23085e-06
-2.57199e-06
-4.59134e-10
3.88088e-09
-2.35309e-09
1.0357e-08
-5.54816e-09
1.39155e-08
-9.33684e-09
1.44556e-08
-1.3246e-08
1.44102e-08
-1.728e-08
1.50108e-08
-2.15755e-08
1.59357e-08
-2.61596e-08
1.66598e-08
-3.09442e-08
1.6983e-08
-3.58079e-08
1.69955e-08
-4.06685e-08
1.69061e-08
-4.55056e-08
1.69192e-08
-5.03457e-08
1.71388e-08
-5.52322e-08
1.75742e-08
-6.02066e-08
1.81817e-08
-6.53055e-08
1.89133e-08
-7.05664e-08
1.97628e-08
-7.60365e-08
2.0738e-08
-8.17701e-08
2.18708e-08
-8.78301e-08
2.31763e-08
-9.42764e-08
2.46718e-08
-1.0117e-07
2.63619e-08
-1.08566e-07
2.82638e-08
-1.16526e-07
3.03954e-08
-1.25117e-07
3.28059e-08
-1.34424e-07
3.55459e-08
-1.4455e-07
3.86982e-08
-1.55629e-07
4.23412e-08
-1.67816e-07
4.65792e-08
-1.81309e-07
5.15199e-08
-1.96335e-07
5.72906e-08
-2.13165e-07
6.40337e-08
-2.32124e-07
7.19387e-08
-2.53589e-07
8.12093e-08
-2.78027e-07
9.21567e-08
-3.05974e-07
1.05089e-07
-3.38138e-07
1.20569e-07
-3.75313e-07
1.39069e-07
-4.18606e-07
1.61611e-07
-4.69323e-07
1.89171e-07
-5.29218e-07
2.23345e-07
-6.00724e-07
2.6683e-07
-6.86714e-07
3.21622e-07
-7.92376e-07
3.96058e-07
-9.22255e-07
4.9013e-07
-1.09054e-06
6.35776e-07
-1.30162e-06
8.05319e-07
-1.60305e-06
1.17252e-06
-2.03126e-06
1.58179e-06
2.84626e-06
-2.64666e-06
-4.06324e-10
4.28848e-09
-1.95578e-09
1.19087e-08
-4.74765e-09
1.67097e-08
-8.33025e-09
1.80402e-08
-1.21909e-08
1.82728e-08
-1.61878e-08
1.90096e-08
-2.04273e-08
2.01771e-08
-2.50129e-08
2.12476e-08
-2.99395e-08
2.19117e-08
-3.51148e-08
2.21732e-08
-4.04291e-08
2.22224e-08
-4.5806e-08
2.22983e-08
-5.1215e-08
2.25497e-08
-5.66547e-08
2.30157e-08
-6.2136e-08
2.3665e-08
-6.76772e-08
2.44562e-08
-7.33077e-08
2.5396e-08
-7.90765e-08
2.65083e-08
-8.50481e-08
2.78449e-08
-9.13035e-08
2.94329e-08
-9.79242e-08
3.12945e-08
-1.04993e-07
3.34317e-08
-1.12583e-07
3.58564e-08
-1.20769e-07
3.85822e-08
-1.29621e-07
4.16609e-08
-1.39226e-07
4.51514e-08
-1.4968e-07
4.91551e-08
-1.61112e-07
5.37737e-08
-1.73673e-07
5.91424e-08
-1.87556e-07
6.54041e-08
-2.02991e-07
7.27277e-08
-2.20255e-07
8.12987e-08
-2.39683e-07
9.13687e-08
-2.61664e-07
1.03191e-07
-2.86688e-07
1.17183e-07
-3.1531e-07
1.33712e-07
-3.48265e-07
1.53525e-07
-3.86382e-07
1.77187e-07
-4.30791e-07
2.06021e-07
-4.82856e-07
2.41237e-07
-5.44352e-07
2.84843e-07
-6.17783e-07
3.40262e-07
-7.06055e-07
4.09896e-07
-8.14439e-07
5.04442e-07
-9.47515e-07
6.23208e-07
-1.11911e-06
8.07372e-07
-1.33636e-06
1.02257e-06
-1.63632e-06
1.47248e-06
-2.06983e-06
2.0153e-06
3.43524e-06
-2.6588e-06
-4.23122e-10
4.71292e-09
-1.80723e-09
1.32951e-08
-4.29056e-09
1.91954e-08
-7.60706e-09
2.13588e-08
-1.12822e-08
2.19499e-08
-1.50786e-08
2.2808e-08
-1.9054e-08
2.41544e-08
-2.33692e-08
2.55651e-08
-2.81252e-08
2.66697e-08
-3.33089e-08
2.73594e-08
-3.88314e-08
2.7747e-08
-4.45869e-08
2.8056e-08
-5.04908e-08
2.84555e-08
-5.64841e-08
2.90108e-08
-6.2527e-08
2.97101e-08
-6.85972e-08
3.05281e-08
-7.46928e-08
3.14942e-08
-8.08432e-08
3.26602e-08
-8.71068e-08
3.41111e-08
-9.35726e-08
3.59e-08
-1.00342e-07
3.80658e-08
-1.07525e-07
4.0616e-08
-1.15225e-07
4.35587e-08
-1.23542e-07
4.68999e-08
-1.32564e-07
5.06863e-08
-1.42387e-07
5.49754e-08
-1.53107e-07
5.98777e-08
-1.64844e-07
6.55113e-08
-1.77738e-07
7.20382e-08
-1.91968e-07
7.9635e-08
-2.07753e-07
8.85146e-08
-2.2536e-07
9.89072e-08
-2.45122e-07
1.11133e-07
-2.67426e-07
1.25497e-07
-2.92767e-07
1.42526e-07
-3.21709e-07
1.62653e-07
-3.5499e-07
1.86808e-07
-3.93463e-07
2.15661e-07
-4.38253e-07
2.50812e-07
-4.90758e-07
2.93743e-07
-5.5274e-07
3.46827e-07
-6.2672e-07
4.14242e-07
-7.15599e-07
4.98778e-07
-8.24543e-07
6.13387e-07
-9.58372e-07
7.57039e-07
-1.12951e-06
9.78513e-07
-1.34889e-06
1.24195e-06
-1.64203e-06
1.76563e-06
-2.07081e-06
2.44408e-06
3.98379e-06
-2.61935e-06
-4.58466e-10
5.17274e-09
-1.81392e-09
1.46528e-08
-4.1483e-09
2.15322e-08
-7.27942e-09
2.4492e-08
-1.07785e-08
2.54511e-08
-1.43505e-08
2.63819e-08
-1.7997e-08
2.78029e-08
-2.19029e-08
2.94732e-08
-2.62615e-08
3.10304e-08
-3.11637e-08
3.22641e-08
-3.6588e-08
3.31735e-08
-4.24456e-08
3.39159e-08
-4.86305e-08
3.46424e-08
-5.50424e-08
3.54245e-08
-6.15925e-08
3.62624e-08
-6.82073e-08
3.71446e-08
-7.48354e-08
3.81251e-08
-8.14633e-08
3.92896e-08
-8.81171e-08
4.07676e-08
-9.48714e-08
4.26556e-08
-1.01831e-07
4.50274e-08
-1.09127e-07
4.7913e-08
-1.16894e-07
5.13284e-08
-1.2527e-07
5.52764e-08
-1.34376e-07
5.97953e-08
-1.44332e-07
6.49327e-08
-1.55247e-07
7.07953e-08
-1.67241e-07
7.75059e-08
-1.80443e-07
8.52423e-08
-1.95014e-07
9.42076e-08
-2.11154e-07
1.04656e-07
-2.29108e-07
1.16862e-07
-2.49188e-07
1.31216e-07
-2.71769e-07
1.48078e-07
-2.97328e-07
1.68088e-07
-3.26426e-07
1.91752e-07
-3.59784e-07
2.20168e-07
-3.98264e-07
2.54142e-07
-4.42961e-07
2.9551e-07
-4.95283e-07
3.46067e-07
-5.56954e-07
4.085e-07
-6.30453e-07
4.87742e-07
-7.18663e-07
5.86989e-07
-8.26451e-07
7.21175e-07
-9.59016e-07
8.89606e-07
-1.1268e-06
1.1463e-06
-1.34408e-06
1.45923e-06
-1.62688e-06
2.04843e-06
-2.03598e-06
2.85319e-06
4.48659e-06
-2.53877e-06
-4.88685e-10
5.66282e-09
-1.8815e-09
1.6048e-08
-4.1967e-09
2.38499e-08
-7.26425e-09
2.75617e-08
-1.06738e-08
2.88627e-08
-1.40988e-08
2.98089e-08
-1.74862e-08
3.11923e-08
-2.10092e-08
3.29986e-08
-2.49148e-08
3.49381e-08
-2.93834e-08
3.67354e-08
-3.44787e-08
3.82709e-08
-4.01656e-08
3.96051e-08
-4.6358e-08
4.08368e-08
-5.29493e-08
4.20177e-08
-5.98267e-08
4.3142e-08
-6.6879e-08
4.41987e-08
-7.40059e-08
4.52547e-08
-8.1139e-08
4.64242e-08
-8.82518e-08
4.78831e-08
-9.5378e-08
4.97831e-08
-1.026e-07
5.22517e-08
-1.10049e-07
5.5363e-08
-1.1788e-07
5.91615e-08
-1.26264e-07
6.36615e-08
-1.35365e-07
6.88997e-08
-1.45344e-07
7.49117e-08
-1.56336e-07
8.17909e-08
-1.6848e-07
8.96502e-08
-1.81904e-07
9.86688e-08
-1.96758e-07
1.09062e-07
-2.13216e-07
1.21117e-07
-2.31498e-07
1.35144e-07
-2.51882e-07
1.51603e-07
-2.74715e-07
1.70912e-07
-3.00441e-07
1.93816e-07
-3.29596e-07
2.20908e-07
-3.62866e-07
2.53439e-07
-4.01098e-07
2.92375e-07
-4.45336e-07
3.3975e-07
-4.96968e-07
3.977e-07
-5.57651e-07
4.69185e-07
-6.2977e-07
5.59862e-07
-7.16164e-07
6.73386e-07
-8.21256e-07
8.26267e-07
-9.50569e-07
1.01892e-06
-1.11251e-06
1.30824e-06
-1.3232e-06
1.66992e-06
-1.59174e-06
2.31696e-06
-1.97001e-06
3.23146e-06
4.93433e-06
-2.41774e-06
-5.10212e-10
6.17446e-09
-1.96016e-09
1.75004e-08
-4.32381e-09
2.62161e-08
-7.41913e-09
3.06592e-08
-1.08332e-08
3.22789e-08
-1.42167e-08
3.31944e-08
-1.74738e-08
3.44515e-08
-2.07482e-08
3.62754e-08
-2.42975e-08
3.84896e-08
-2.83541e-08
4.07947e-08
-3.30513e-08
4.29703e-08
-3.84164e-08
4.49726e-08
-4.44078e-08
4.68302e-08
-5.09443e-08
4.85562e-08
-5.79219e-08
5.01218e-08
-6.52199e-08
5.14985e-08
-7.27091e-08
5.27467e-08
-8.02754e-08
5.3992e-08
-8.78359e-08
5.54463e-08
-9.5368e-08
5.73166e-08
-1.02909e-07
5.97949e-08
-1.10563e-07
6.30181e-08
-1.18482e-07
6.70826e-08
-1.26856e-07
7.20365e-08
-1.35884e-07
7.79311e-08
-1.45771e-07
8.47988e-08
-1.56695e-07
9.27179e-08
-1.68826e-07
1.01782e-07
-1.82311e-07
1.12157e-07
-1.973e-07
1.24052e-07
-2.13953e-07
1.37772e-07
-2.3246e-07
1.53653e-07
-2.53065e-07
1.7221e-07
-2.76073e-07
1.93921e-07
-3.01879e-07
2.19624e-07
-3.30983e-07
2.50012e-07
-3.64006e-07
2.86464e-07
-4.0176e-07
3.30129e-07
-4.45213e-07
3.83204e-07
-4.95694e-07
4.48182e-07
-5.5477e-07
5.28263e-07
-6.24671e-07
6.29763e-07
-7.08148e-07
7.56864e-07
-8.09104e-07
9.27224e-07
-9.33155e-07
1.14297e-06
-1.08689e-06
1.46197e-06
-1.28662e-06
1.86966e-06
-1.53638e-06
2.56672e-06
-1.8753e-06
3.5704e-06
5.31794e-06
-2.2589e-06
-5.26904e-10
6.70283e-09
-2.03533e-09
1.90113e-08
-4.47305e-09
2.86563e-08
-7.6433e-09
3.38317e-08
-1.11225e-08
3.57602e-08
-1.45458e-08
3.66199e-08
-1.77898e-08
3.76975e-08
-2.09663e-08
3.94543e-08
-2.43211e-08
4.18466e-08
-2.81027e-08
4.4579e-08
-3.24809e-08
4.73507e-08
-3.75289e-08
5.00229e-08
-4.32493e-08
5.25528e-08
-4.95998e-08
5.49087e-08
-5.65059e-08
5.70303e-08
-6.38642e-08
5.88586e-08
-7.15431e-08
6.04285e-08
-7.94057e-08
6.18562e-08
-8.73267e-08
6.337e-08
-9.523e-08
6.52213e-08
-1.03098e-07
6.76653e-08
-1.1099e-07
7.09116e-08
-1.19032e-07
7.5126e-08
-1.27407e-07
8.0413e-08
-1.36333e-07
8.68603e-08
-1.46048e-07
9.45148e-08
-1.56775e-07
1.03448e-07
-1.68725e-07
1.13733e-07
-1.82078e-07
1.25512e-07
-1.96999e-07
1.38974e-07
-2.13647e-07
1.54422e-07
-2.32196e-07
1.72202e-07
-2.52854e-07
1.9287e-07
-2.75885e-07
2.16954e-07
-3.01628e-07
2.45369e-07
-3.30527e-07
2.78912e-07
-3.6313e-07
3.19069e-07
-4.00182e-07
3.67182e-07
-4.42556e-07
4.25579e-07
-4.91483e-07
4.97111e-07
-5.48409e-07
5.85191e-07
-6.15358e-07
6.96713e-07
-6.94923e-07
8.36432e-07
-7.9047e-07
1.02277e-06
-9.07407e-07
1.25991e-06
-1.05075e-06
1.60532e-06
-1.23563e-06
2.05454e-06
-1.46206e-06
2.79315e-06
-1.75539e-06
3.86374e-06
5.63064e-06
-2.06809e-06
-5.42176e-10
7.2465e-09
-2.10766e-09
2.05794e-08
-4.62549e-09
3.11768e-08
-7.88876e-09
3.70972e-08
-1.14614e-08
3.9335e-08
-1.49673e-08
4.0128e-08
-1.82696e-08
4.10019e-08
-2.1461e-08
4.26481e-08
-2.47693e-08
4.51572e-08
-2.84371e-08
4.82495e-08
-3.26446e-08
5.15605e-08
-3.74863e-08
5.4867e-08
-4.29931e-08
5.80616e-08
-4.91546e-08
6.10722e-08
-5.59298e-08
6.38078e-08
-6.32437e-08
6.61743e-08
-7.09823e-08
6.81699e-08
-7.90082e-08
6.98837e-08
-8.71757e-08
7.15403e-08
-9.53714e-08
7.34184e-08
-1.0353e-07
7.58264e-08
-1.11663e-07
7.90452e-08
-1.19852e-07
8.33179e-08
-1.2826e-07
8.88217e-08
-1.37098e-07
9.57011e-08
-1.4662e-07
1.04038e-07
-1.57082e-07
1.13913e-07
-1.68734e-07
1.25386e-07
-1.81796e-07
1.38575e-07
-1.96458e-07
1.53638e-07
-2.12895e-07
1.70861e-07
-2.31273e-07
1.90582e-07
-2.51778e-07
2.13377e-07
-2.74638e-07
2.39815e-07
-3.00135e-07
2.70868e-07
-3.28655e-07
3.07433e-07
-3.6066e-07
3.51076e-07
-3.96814e-07
4.03337e-07
-4.37877e-07
4.66643e-07
-4.8495e-07
5.44184e-07
-5.39327e-07
6.3957e-07
-6.02791e-07
7.60178e-07
-6.777e-07
9.11344e-07
-7.66879e-07
1.11195e-06
-8.75266e-07
1.3683e-06
-1.00649e-06
1.73655e-06
-1.17347e-06
2.22152e-06
-1.37294e-06
2.99262e-06
-1.61695e-06
4.10776e-06
5.86903e-06
-1.85534e-06
-5.57538e-10
7.80555e-09
-2.18037e-09
2.22048e-08
-4.77962e-09
3.37787e-08
-8.14146e-09
4.04613e-08
-1.18178e-08
4.30135e-08
-1.54233e-08
4.37357e-08
-1.88164e-08
4.43971e-08
-2.20824e-08
4.59167e-08
-2.54386e-08
4.85156e-08
-2.91178e-08
5.19315e-08
-3.32961e-08
5.57412e-08
-3.80711e-08
5.96445e-08
-4.34843e-08
6.34769e-08
-4.95424e-08
6.71324e-08
-5.62276e-08
7.04953e-08
-6.3491e-08
7.34397e-08
-7.12413e-08
7.5923e-08
-7.93535e-08
7.79977e-08
-8.76803e-08
7.98698e-08
-9.609e-08
8.18296e-08
-1.04486e-07
8.4225e-08
-1.12839e-07
8.73995e-08
-1.21192e-07
9.16724e-08
-1.2967e-07
9.7301e-08
-1.38466e-07
1.045e-07
-1.47831e-07
1.13405e-07
-1.58038e-07
1.24122e-07
-1.69364e-07
1.36713e-07
-1.82062e-07
1.51275e-07
-1.96356e-07
1.67933e-07
-2.12438e-07
1.86945e-07
-2.30483e-07
2.08629e-07
-2.50663e-07
2.3356e-07
-2.73182e-07
2.62334e-07
-2.98271e-07
2.9596e-07
-3.26263e-07
3.35425e-07
-3.57538e-07
3.82352e-07
-3.92667e-07
4.38467e-07
-4.32292e-07
5.0627e-07
-4.77365e-07
5.89258e-07
-5.2901e-07
6.91217e-07
-5.88741e-07
8.1991e-07
-6.58625e-07
9.8123e-07
-7.40949e-07
1.19427e-06
-8.3999e-07
1.46734e-06
-9.58114e-07
1.85467e-06
-1.10543e-06
2.36883e-06
-1.27581e-06
3.163e-06
-1.46955e-06
4.3015e-06
6.03388e-06
-1.63438e-06
-5.7338e-10
8.38048e-09
-2.25534e-09
2.38893e-08
-4.93741e-09
3.64634e-08
-8.40037e-09
4.39266e-08
-1.21843e-08
4.67997e-08
-1.58949e-08
4.74485e-08
-1.93897e-08
4.78941e-08
-2.2755e-08
4.92845e-08
-2.62051e-08
5.19681e-08
-2.99677e-08
5.56968e-08
-3.42127e-08
5.99886e-08
-3.90335e-08
6.44677e-08
-4.44707e-08
6.89163e-08
-5.0536e-08
7.31998e-08
-5.72221e-08
7.71838e-08
-6.44957e-08
8.07152e-08
-7.22819e-08
8.3712e-08
-8.04706e-08
8.61881e-08
-8.89217e-08
8.83237e-08
-9.74991e-08
9.04085e-08
-1.06093e-07
9.28208e-08
-1.14646e-07
9.59538e-08
-1.23168e-07
1.00196e-07
-1.31754e-07
1.05889e-07
-1.40572e-07
1.13321e-07
-1.49858e-07
1.22692e-07
-1.59884e-07
1.3415e-07
-1.70942e-07
1.47772e-07
-1.83308e-07
1.63643e-07
-1.97232e-07
1.81859e-07
-2.12928e-07
2.02642e-07
-2.30582e-07
2.26284e-07
-2.50362e-07
2.53342e-07
-2.72456e-07
2.84429e-07
-2.97061e-07
3.20567e-07
-3.24459e-07
3.62824e-07
-3.5496e-07
4.12855e-07
-3.89047e-07
4.72554e-07
-4.2725e-07
5.44474e-07
-4.70365e-07
6.32374e-07
-5.1934e-07
7.40194e-07
-5.75417e-07
8.75988e-07
-6.40339e-07
1.04615e-06
-7.15868e-07
1.2698e-06
-8.05506e-07
1.55698e-06
-9.10451e-07
1.95962e-06
-1.03776e-06
2.49614e-06
-1.17883e-06
3.30407e-06
-1.32418e-06
4.44686e-06
6.12995e-06
-1.42024e-06
-5.89748e-10
8.97181e-09
-2.33122e-09
2.56334e-08
-5.1002e-09
3.92351e-08
-8.6668e-09
4.74956e-08
-1.2561e-08
5.06962e-08
-1.63795e-08
5.12691e-08
-1.99796e-08
5.14964e-08
-2.34519e-08
5.27594e-08
-2.70138e-08
5.55323e-08
-3.08921e-08
5.9578e-08
-3.52541e-08
6.4353e-08
-4.01888e-08
6.94049e-08
-4.57331e-08
7.44628e-08
-5.18971e-08
7.9366e-08
-5.86751e-08
8.39642e-08
-6.60388e-08
8.80808e-08
-7.39216e-08
9.15977e-08
-8.22225e-08
9.44908e-08
-9.08078e-08
9.69117e-08
-9.9546e-08
9.91482e-08
-1.08318e-07
1.01595e-07
-1.17058e-07
1.04695e-07
-1.25761e-07
1.08901e-07
-1.34494e-07
1.14623e-07
-1.43399e-07
1.22228e-07
-1.527e-07
1.31993e-07
-1.62657e-07
1.44111e-07
-1.73563e-07
1.58679e-07
-1.85708e-07
1.7579e-07
-1.99359e-07
1.95512e-07
-2.14746e-07
2.1803e-07
-2.32066e-07
2.43606e-07
-2.51489e-07
2.72767e-07
-2.73193e-07
3.06134e-07
-2.97348e-07
3.44725e-07
-3.24201e-07
3.89677e-07
-3.54004e-07
4.4266e-07
-3.87161e-07
5.05712e-07
-4.24105e-07
5.8142e-07
-4.65485e-07
6.73755e-07
-5.12083e-07
7.86794e-07
-5.64881e-07
9.28787e-07
-6.25293e-07
1.10657e-06
-6.94587e-07
1.3391e-06
-7.75449e-07
1.63785e-06
-8.68001e-07
2.05217e-06
-9.76299e-07
2.60444e-06
-1.08957e-06
3.41735e-06
-1.19098e-06
4.54827e-06
6.1652e-06
-1.22622e-06
-6.06652e-10
9.58007e-09
-2.40899e-09
2.74385e-08
-5.26854e-09
4.20974e-08
-8.94161e-09
5.11711e-08
-1.2949e-08
5.47059e-08
-1.68779e-08
5.52003e-08
-2.05855e-08
5.52063e-08
-2.41681e-08
5.63446e-08
-2.78478e-08
5.92145e-08
-3.18543e-08
6.35873e-08
-3.63549e-08
6.8856e-08
-4.14367e-08
7.44893e-08
-4.71341e-08
8.01624e-08
-5.34544e-08
8.56885e-08
-6.03898e-08
9.0902e-08
-6.79109e-08
9.5604e-08
-7.59519e-08
9.96416e-08
-8.4414e-08
1.02955e-07
-9.31676e-08
1.05668e-07
-1.02083e-07
1.08065e-07
-1.11045e-07
1.10559e-07
-1.19981e-07
1.13632e-07
-1.28873e-07
1.17796e-07
-1.37779e-07
1.23531e-07
-1.4683e-07
1.31282e-07
-1.56223e-07
1.41388e-07
-1.66215e-07
1.54106e-07
-1.7711e-07
1.69574e-07
-1.89187e-07
1.87869e-07
-2.02723e-07
2.09048e-07
-2.17953e-07
2.33262e-07
-2.35085e-07
2.6074e-07
-2.54288e-07
2.91973e-07
-2.75736e-07
3.27582e-07
-2.99581e-07
3.68572e-07
-3.2604e-07
4.16137e-07
-3.55326e-07
4.71947e-07
-3.87773e-07
5.3816e-07
-4.2374e-07
6.17389e-07
-4.63744e-07
7.1376e-07
-5.08421e-07
8.31474e-07
-5.58519e-07
9.78885e-07
-6.15142e-07
1.16319e-06
-6.79104e-07
1.40306e-06
-7.52294e-07
1.71104e-06
-8.33853e-07
2.13373e-06
-9.25099e-07
2.69569e-06
-1.01341e-06
3.50567e-06
-1.07688e-06
4.61175e-06
6.14954e-06
-1.06122e-06
-6.24111e-10
1.02058e-08
-2.48911e-09
2.93062e-08
-5.44258e-09
4.50537e-08
-9.22515e-09
5.4956e-08
-1.33487e-08
5.88317e-08
-1.7391e-08
5.92449e-08
-2.12087e-08
5.90263e-08
-2.49039e-08
6.00424e-08
-2.87049e-08
6.30179e-08
-3.2845e-08
6.77303e-08
-3.7493e-08
7.35065e-08
-4.27363e-08
7.97352e-08
-4.86084e-08
8.60368e-08
-5.51153e-08
9.21974e-08
-6.22461e-08
9.80352e-08
-6.99684e-08
1.03328e-07
-7.82129e-08
1.07889e-07
-8.68785e-08
1.11622e-07
-9.58353e-08
1.14628e-07
-1.04954e-07
1.17185e-07
-1.1412e-07
1.19728e-07
-1.23262e-07
1.22776e-07
-1.32359e-07
1.26896e-07
-1.41466e-07
1.32638e-07
-1.50701e-07
1.4052e-07
-1.60266e-07
1.50954e-07
-1.70405e-07
1.64248e-07
-1.81402e-07
1.80572e-07
-1.93551e-07
2.0002e-07
-2.07128e-07
2.22627e-07
-2.22373e-07
2.48508e-07
-2.39494e-07
2.77862e-07
-2.5866e-07
3.1114e-07
-2.80037e-07
3.4896e-07
-3.03769e-07
3.92306e-07
-3.30047e-07
4.42417e-07
-3.59056e-07
5.00958e-07
-3.91075e-07
5.70179e-07
-4.26404e-07
6.52719e-07
-4.6545e-07
7.52807e-07
-5.0873e-07
8.74756e-07
-5.56785e-07
1.02694e-06
-6.10439e-07
1.21685e-06
-6.70103e-07
1.46273e-06
-7.36923e-07
1.77786e-06
-8.09158e-07
2.20597e-06
-8.85761e-07
2.7723e-06
-9.5259e-07
3.57251e-06
-9.84647e-07
4.64381e-06
6.09338e-06
-9.28473e-07
-6.42157e-10
1.08496e-08
-2.57157e-09
3.12383e-08
-5.62241e-09
4.81073e-08
-9.5176e-09
5.88537e-08
-1.37602e-08
6.30766e-08
-1.79191e-08
6.34061e-08
-2.18497e-08
6.29591e-08
-2.56604e-08
6.38558e-08
-2.95859e-08
6.69459e-08
-3.38633e-08
7.20106e-08
-3.86637e-08
7.83094e-08
-4.40757e-08
8.51497e-08
-5.01329e-08
9.20963e-08
-5.68409e-08
9.89076e-08
-6.41869e-08
1.05384e-07
-7.21348e-08
1.11278e-07
-8.06103e-08
1.16367e-07
-8.9508e-08
1.20522e-07
-9.86946e-08
1.23817e-07
-1.08039e-07
1.26531e-07
-1.17428e-07
1.29118e-07
-1.26789e-07
1.32138e-07
-1.36104e-07
1.36213e-07
-1.45427e-07
1.41962e-07
-1.54877e-07
1.49973e-07
-1.64651e-07
1.60729e-07
-1.74994e-07
1.74594e-07
-1.86192e-07
1.91771e-07
-1.98531e-07
2.12361e-07
-2.12289e-07
2.36386e-07
-2.27703e-07
2.63924e-07
-2.44982e-07
2.95143e-07
-2.6429e-07
3.30451e-07
-2.85788e-07
3.70459e-07
-3.09609e-07
4.16129e-07
-3.35927e-07
4.68735e-07
-3.64902e-07
5.29935e-07
-3.96774e-07
6.02052e-07
-4.31793e-07
6.8774e-07
-4.70284e-07
7.91298e-07
-5.12649e-07
9.17123e-07
-5.59258e-07
1.07355e-06
-6.10707e-07
1.2683e-06
-6.67043e-07
1.51906e-06
-7.28734e-07
1.83956e-06
-7.93251e-07
2.27048e-06
-8.57588e-07
2.83664e-06
-9.06384e-07
3.62131e-06
-9.13156e-07
4.65059e-06
6.00631e-06
-8.26071e-07
-6.60827e-10
1.15121e-08
-2.65638e-09
3.32367e-08
-5.80807e-09
5.12618e-08
-9.81908e-09
6.28672e-08
-1.41837e-08
6.74437e-08
-1.84625e-08
6.76872e-08
-2.25089e-08
6.70078e-08
-2.64381e-08
6.77876e-08
-3.04913e-08
7.10016e-08
-3.49101e-08
7.64323e-08
-3.98674e-08
8.32693e-08
-4.54532e-08
9.07381e-08
-5.1702e-08
9.83475e-08
-5.86195e-08
1.05827e-07
-6.61914e-08
1.12958e-07
-7.4378e-08
1.19467e-07
-8.31002e-08
1.25093e-07
-9.22468e-08
1.2967e-07
-1.0168e-07
1.33253e-07
-1.11267e-07
1.36119e-07
-1.20891e-07
1.38745e-07
-1.30483e-07
1.41731e-07
-1.40025e-07
1.45758e-07
-1.49575e-07
1.51513e-07
-1.59256e-07
1.59656e-07
-1.69267e-07
1.70741e-07
-1.79857e-07
1.85186e-07
-1.91311e-07
2.03227e-07
-2.03918e-07
2.2497e-07
-2.17952e-07
2.50421e-07
-2.33649e-07
2.79623e-07
-2.51214e-07
3.12709e-07
-2.70807e-07
3.50045e-07
-2.9258e-07
3.92234e-07
-3.16659e-07
4.4021e-07
-3.432e-07
4.95276e-07
-3.72349e-07
5.59086e-07
-4.04306e-07
6.34009e-07
-4.39288e-07
7.22724e-07
-4.7754e-07
8.29551e-07
-5.19389e-07
9.58973e-07
-5.65054e-07
1.11922e-06
-6.14896e-07
1.31815e-06
-6.68655e-07
1.57282e-06
-7.26197e-07
1.8971e-06
-7.84293e-07
2.32858e-06
-8.38349e-07
2.8907e-06
-8.72164e-07
3.65513e-06
-8.58812e-07
4.63725e-06
5.89628e-06
-7.48772e-07
-6.80161e-10
1.2194e-08
-2.74354e-09
3.53028e-08
-5.99959e-09
5.45207e-08
-1.01297e-08
6.69998e-08
-1.46194e-08
7.19357e-08
-1.90213e-08
7.20914e-08
-2.31866e-08
7.11755e-08
-2.72372e-08
7.1841e-08
-3.14217e-08
7.51887e-08
-3.59858e-08
8.09992e-08
-4.11045e-08
8.83906e-08
-4.68692e-08
9.65054e-08
-5.33154e-08
1.04796e-07
-6.04489e-08
1.12963e-07
-6.82542e-08
1.20766e-07
-7.66881e-08
1.27903e-07
-8.56664e-08
1.34074e-07
-9.50722e-08
1.39078e-07
-1.04763e-07
1.42947e-07
-1.14601e-07
1.45959e-07
-1.24471e-07
1.48616e-07
-1.343e-07
1.51562e-07
-1.44077e-07
1.55537e-07
-1.5386e-07
1.61298e-07
-1.63781e-07
1.69579e-07
-1.74043e-07
1.81004e-07
-1.84901e-07
1.96047e-07
-1.96645e-07
2.14973e-07
-2.09565e-07
2.37892e-07
-2.23934e-07
2.64791e-07
-2.39986e-07
2.95677e-07
-2.5792e-07
3.30644e-07
-2.77892e-07
3.70019e-07
-3.00047e-07
4.14389e-07
-3.24501e-07
4.64666e-07
-3.51395e-07
5.22171e-07
-3.8086e-07
5.88553e-07
-4.13064e-07
6.66214e-07
-4.48192e-07
7.57854e-07
-4.86426e-07
8.67786e-07
-5.28008e-07
1.00056e-06
-5.73032e-07
1.16424e-06
-6.21662e-07
1.36678e-06
-6.73346e-07
1.62451e-06
-7.27406e-07
1.95116e-06
-7.79983e-07
2.38116e-06
-8.2525e-07
2.93597e-06
-8.46339e-07
3.67622e-06
-8.16802e-07
4.60772e-06
5.76953e-06
-6.9005e-07
-7.00202e-10
1.28959e-08
-2.83307e-09
3.74385e-08
-6.19699e-09
5.78875e-08
-1.04497e-08
7.1255e-08
-1.50674e-08
7.65558e-08
-1.95957e-08
7.66221e-08
-2.3883e-08
7.54652e-08
-2.80583e-08
7.6019e-08
-3.23774e-08
7.95104e-08
-3.70907e-08
8.57155e-08
-4.23755e-08
9.3678e-08
-4.83242e-08
1.02457e-07
-5.49734e-08
1.11448e-07
-6.23292e-08
1.20321e-07
-7.03745e-08
1.28814e-07
-7.90627e-08
1.36593e-07
-8.83043e-08
1.43318e-07
-9.79766e-08
1.48752e-07
-1.07932e-07
1.52905e-07
-1.18029e-07
1.56058e-07
-1.28149e-07
1.58738e-07
-1.38222e-07
1.61637e-07
-1.48236e-07
1.65553e-07
-1.58257e-07
1.7132e-07
-1.68421e-07
1.79746e-07
-1.78942e-07
1.91526e-07
-1.9008e-07
2.07187e-07
-2.0213e-07
2.27025e-07
-2.15387e-07
2.5115e-07
-2.30122e-07
2.79528e-07
-2.46567e-07
3.12124e-07
-2.64918e-07
3.48996e-07
-2.85324e-07
3.90427e-07
-3.0792e-07
4.36987e-07
-3.32818e-07
4.89565e-07
-3.60139e-07
5.49493e-07
-3.90004e-07
6.18419e-07
-4.22546e-07
6.98757e-07
-4.57921e-07
7.9323e-07
-4.96251e-07
9.06117e-07
-5.37702e-07
1.04201e-06
-5.82249e-07
1.20879e-06
-6.29863e-07
1.4144e-06
-6.79725e-07
1.67437e-06
-7.3066e-07
2.0021e-06
-7.78252e-07
2.42875e-06
-8.15702e-07
2.97343e-06
-8.2584e-07
3.68636e-06
-7.83074e-07
4.56496e-06
5.63054e-06
-6.44069e-07
-7.20991e-10
1.36186e-08
-2.92497e-09
3.96453e-08
-6.40024e-09
6.13657e-08
-1.0779e-08
7.56362e-08
-1.55278e-08
8.13071e-08
-2.01857e-08
8.12825e-08
-2.45984e-08
7.98802e-08
-2.89014e-08
8.03247e-08
-3.33586e-08
8.39702e-08
-3.82252e-08
9.05851e-08
-4.36806e-08
9.9136e-08
-4.98185e-08
1.08597e-07
-5.66764e-08
1.18308e-07
-6.42605e-08
1.27907e-07
-7.25524e-08
1.37108e-07
-8.15014e-08
1.45544e-07
-9.10129e-08
1.52833e-07
-1.00958e-07
1.58699e-07
-1.11184e-07
1.63133e-07
-1.21545e-07
1.6642e-07
-1.3192e-07
1.69115e-07
-1.4224e-07
1.71958e-07
-1.52495e-07
1.75811e-07
-1.62755e-07
1.81582e-07
-1.73166e-07
1.90159e-07
-1.83947e-07
2.02309e-07
-1.9537e-07
2.18612e-07
-2.07736e-07
2.39391e-07
-2.2134e-07
2.64755e-07
-2.36456e-07
2.94646e-07
-2.53314e-07
3.28983e-07
-2.72103e-07
3.67787e-07
-2.92968e-07
4.11294e-07
-3.16036e-07
4.60055e-07
-3.41407e-07
5.14938e-07
-3.69189e-07
5.77276e-07
-3.99486e-07
6.48717e-07
-4.32402e-07
7.31674e-07
-4.68058e-07
8.28888e-07
-5.06522e-07
9.44582e-07
-5.47879e-07
1.08337e-06
-5.91989e-07
1.2529e-06
-6.38638e-07
1.46105e-06
-6.86746e-07
1.72248e-06
-7.34685e-07
2.05004e-06
-7.77549e-07
2.47162e-06
-8.07793e-07
3.00368e-06
-8.08176e-07
3.68675e-06
-7.54309e-07
4.51111e-06
5.48259e-06
-6.06353e-07
-7.42569e-10
1.43629e-08
-3.01924e-09
4.19248e-08
-6.60931e-09
6.49587e-08
-1.11177e-08
8.01471e-08
-1.60011e-08
8.61929e-08
-2.07917e-08
8.60754e-08
-2.5333e-08
8.4424e-08
-2.97668e-08
8.47612e-08
-3.43655e-08
8.85715e-08
-3.93894e-08
9.56119e-08
-4.50199e-08
1.04769e-07
-5.13521e-08
1.14932e-07
-5.84243e-08
1.25382e-07
-6.6243e-08
1.35728e-07
-7.47878e-08
1.45655e-07
-8.40041e-08
1.54763e-07
-9.37919e-08
1.62623e-07
-1.04016e-07
1.68925e-07
-1.14517e-07
1.73637e-07
-1.25147e-07
1.77051e-07
-1.35781e-07
1.79752e-07
-1.4635e-07
1.82528e-07
-1.56848e-07
1.8631e-07
-1.6735e-07
1.92085e-07
-1.78008e-07
2.00819e-07
-1.89053e-07
2.13355e-07
-2.00763e-07
2.30324e-07
-2.13447e-07
2.52076e-07
-2.27404e-07
2.78714e-07
-2.42908e-07
3.10151e-07
-2.60186e-07
3.46263e-07
-2.79423e-07
3.87024e-07
-3.00756e-07
4.32629e-07
-3.24302e-07
4.83603e-07
-3.50154e-07
5.40792e-07
-3.78402e-07
6.05525e-07
-4.09133e-07
6.79449e-07
-4.42421e-07
7.64963e-07
-4.78349e-07
8.64818e-07
-5.1693e-07
9.83164e-07
-5.58165e-07
1.1246e-06
-6.01801e-07
1.29654e-06
-6.47437e-07
1.50668e-06
-6.93743e-07
1.76879e-06
-7.38673e-07
2.09498e-06
-7.76897e-07
2.50985e-06
-8.00321e-07
3.0271e-06
-7.91861e-07
3.6783e-06
-7.28519e-07
4.44777e-06
5.32816e-06
-5.74077e-07
-7.64978e-10
1.51297e-08
-3.11589e-09
4.42786e-08
-6.82413e-09
6.86698e-08
-1.14658e-08
8.47913e-08
-1.64871e-08
9.12166e-08
-2.14135e-08
9.10043e-08
-2.60869e-08
8.90998e-08
-3.06548e-08
8.93318e-08
-3.53983e-08
9.33176e-08
-4.05833e-08
1.008e-07
-4.63935e-08
1.10582e-07
-5.29251e-08
1.21466e-07
-6.02172e-08
1.32677e-07
-6.82764e-08
1.4379e-07
-7.70804e-08
1.54462e-07
-8.65705e-08
1.64255e-07
-9.66406e-08
1.72696e-07
-1.07149e-07
1.79435e-07
-1.17931e-07
1.84422e-07
-1.28834e-07
1.87956e-07
-1.39731e-07
1.90651e-07
-1.50552e-07
1.9335e-07
-1.61294e-07
1.97054e-07
-1.72038e-07
2.0283e-07
-1.82945e-07
2.11728e-07
-1.94254e-07
2.24665e-07
-2.06253e-07
2.42325e-07
-2.19257e-07
2.65082e-07
-2.3357e-07
2.93028e-07
-2.49464e-07
3.26047e-07
-2.67164e-07
3.63965e-07
-2.86849e-07
4.0671e-07
-3.08649e-07