/*--------------------------------*- C++ -*----------------------------------*\
  =========                 |
  \\      /  F ield         | OpenFOAM: The Open Source CFD Toolbox
   \\    /   O peration     | Website:  https://openfoam.org
    \\  /    A nd           | Version:  7
     \\/     M anipulation  |
\*---------------------------------------------------------------------------*/
FoamFile
{
    version     2.0;
    format      ascii;
    class       volScalarField;
    location    "0.19";
    object      nut;
}
// * * * * * * * * * * * * * * * * * * * * * * * * * * * * * * * * * * * * * //

dimensions      [0 2 -1 0 0 0 0];

internalField   nonuniform List<scalar> 
70000
(
9.96285e-12
6.88056e-14
2.56464e-16
8.6294e-17
4.78096e-17
7.86001e-17
2.75917e-17
1.28854e-17
8.72588e-18
6.36116e-18
4.65483e-18
3.46536e-18
2.6395e-18
2.05196e-18
1.62271e-18
1.30201e-18
1.05805e-18
8.69207e-19
7.21164e-19
6.03413e-19
5.08769e-19
4.31824e-19
3.68668e-19
3.16338e-19
2.72641e-19
2.35877e-19
2.04612e-19
1.78166e-19
1.55027e-19
1.35747e-19
1.17986e-19
1.03954e-19
8.97248e-20
7.98545e-20
6.79438e-20
6.13119e-20
5.17241e-20
4.60299e-20
4.23207e-20
2.99416e-20
4.84823e-20
8.2539e-21
1.45113e-19
3.38025e-21
1.7039e-18
2.69521e-18
5.12987e-17
2.34431e-16
3.97147e-15
1.68782e-12
1.04278e-10
5.98739e-12
6.44468e-14
2.14328e-14
2.89314e-16
1.70139e-17
2.52709e-17
2.1218e-17
1.2328e-17
7.33555e-18
4.80705e-18
3.35064e-18
2.42507e-18
1.80576e-18
1.37701e-18
1.07176e-18
8.48836e-19
6.8266e-19
5.56201e-19
4.58455e-19
3.81726e-19
3.20699e-19
2.71602e-19
2.31668e-19
1.98892e-19
1.71678e-19
1.49109e-19
1.2981e-19
1.13979e-19
9.9679e-20
8.85844e-20
7.73945e-20
6.99104e-20
6.05054e-20
5.59157e-20
4.78197e-20
4.45977e-20
3.98883e-20
3.24326e-20
4.25502e-20
1.33978e-20
1.00037e-19
3.53413e-23
9.02393e-19
9.05248e-19
2.30183e-17
8.14984e-17
1.14092e-15
1.50418e-14
3.19931e-13
3.19187e-10
3.39786e-12
1.90935e-13
1.9914e-14
7.6994e-16
5.90858e-17
7.49157e-18
4.30666e-18
2.20906e-18
1.10752e-18
6.20015e-19
3.83461e-19
2.5236e-19
1.73198e-19
1.22933e-19
8.98371e-20
6.73397e-20
5.16566e-20
4.04222e-20
3.22237e-20
2.61186e-20
2.15006e-20
1.79612e-20
1.52143e-20
1.30652e-20
1.13623e-20
1.00359e-20
8.93891e-21
8.14689e-21
7.40264e-21
6.99974e-21
6.44188e-21
6.35964e-21
5.84769e-21
6.02737e-21
5.51084e-21
5.62738e-21
5.55947e-21
4.17377e-21
7.65884e-21
8.52652e-22
3.54637e-20
1.25036e-20
7.6777e-19
2.19772e-18
2.94044e-17
1.29586e-16
1.62519e-15
1.12047e-14
2.59419e-13
6.15364e-09
1.92767e-11
7.84335e-13
6.11372e-14
5.50842e-15
9.36463e-16
1.12771e-16
3.04912e-17
1.29045e-17
5.81227e-18
2.76905e-18
1.4549e-18
8.36165e-19
5.13438e-19
3.31556e-19
2.23224e-19
1.55862e-19
1.12426e-19
8.35239e-20
6.37675e-20
4.9943e-20
4.00759e-20
3.2921e-20
2.76641e-20
2.37785e-20
2.09034e-20
1.87942e-20
1.72845e-20
1.62476e-20
1.56121e-20
1.52882e-20
1.52872e-20
1.54284e-20
1.5927e-20
1.6199e-20
1.70929e-20
1.66973e-20
1.79143e-20
1.48576e-20
1.73533e-20
9.11683e-21
2.79657e-20
3.93921e-20
5.64447e-19
2.81671e-18
2.73022e-17
1.22763e-16
1.38311e-15
4.82975e-15
3.14264e-13
2.32218e-09
2.23367e-10
4.45713e-12
3.22053e-13
2.31241e-14
4.44232e-15
7.34939e-16
2.08912e-16
8.63981e-17
3.89074e-17
1.85285e-17
9.61732e-18
5.42755e-18
3.27128e-18
2.07637e-18
1.37616e-18
9.47128e-19
6.74115e-19
4.94613e-19
3.73202e-19
2.89025e-19
2.29409e-19
1.8644e-19
1.5501e-19
1.31824e-19
1.14655e-19
1.01988e-19
9.2823e-20
8.63562e-20
8.22155e-20
7.9781e-20
7.92566e-20
7.94867e-20
8.19383e-20
8.32497e-20
8.84229e-20
8.73151e-20
9.51078e-20
8.29008e-20
9.46781e-20
5.78166e-20
9.46219e-20
6.72269e-20
6.01745e-19
2.93084e-18
2.65897e-17
9.97652e-17
1.11171e-15
1.61336e-15
3.09151e-13
3.01116e-09
5.28652e-09
4.36214e-11
1.94755e-12
1.08444e-13
1.81562e-14
3.30009e-15
9.72366e-16
4.00307e-16
1.81137e-16
8.67833e-17
4.4983e-17
2.51969e-17
1.50309e-17
9.43257e-18
6.17869e-18
4.20267e-18
2.95666e-18
2.14479e-18
1.60041e-18
1.22602e-18
9.62813e-19
7.74272e-19
6.37035e-19
5.36079e-19
4.61326e-19
4.05992e-19
3.65515e-19
3.36451e-19
3.16915e-19
3.04542e-19
2.99627e-19
2.98325e-19
3.05239e-19
3.09444e-19
3.27423e-19
3.25755e-19
3.55327e-19
3.19082e-19
3.63944e-19
2.4123e-19
3.31316e-19
1.58753e-19
7.84552e-19
2.95082e-18
2.51843e-17
7.51119e-17
8.82117e-16
3.5572e-16
2.8357e-13
1.0768e-09
4.76569e-09
3.72165e-09
1.85337e-11
6.73853e-13
9.24881e-14
1.54341e-14
4.24584e-15
1.65602e-15
7.29626e-16
3.44954e-16
1.76881e-16
9.79898e-17
5.77995e-17
3.5863e-17
2.32258e-17
1.56186e-17
1.08634e-17
7.79148e-18
5.7488e-18
4.35526e-18
3.38285e-18
2.69095e-18
2.19017e-18
1.8232e-18
1.55189e-18
1.3507e-18
1.20236e-18
1.09424e-18
1.01889e-18
9.68251e-19
9.42006e-19
9.28886e-19
9.40891e-19
9.48185e-19
9.94941e-19
9.91878e-19
1.07426e-18
9.85264e-19
1.10827e-18
7.90307e-19
9.77028e-19
4.5118e-19
1.1548e-18
2.95131e-18
2.24547e-17
5.17507e-17
7.26275e-16
4.39547e-17
2.5851e-13
2.42832e-09
3.87013e-09
8.22919e-10
2.42758e-09
8.65248e-12
7.19525e-13
9.20211e-14
2.11909e-14
7.34686e-15
3.00056e-15
1.34751e-15
6.65223e-16
3.57801e-16
2.06083e-16
1.25342e-16
7.97749e-17
5.28123e-17
3.62052e-17
2.56155e-17
1.86557e-17
1.39578e-17
1.0711e-17
8.42069e-18
6.7753e-18
5.57654e-18
4.69342e-18
4.0389e-18
3.55414e-18
3.19713e-18
2.94167e-18
2.76279e-18
2.65551e-18
2.59007e-18
2.59264e-18
2.59146e-18
2.68842e-18
2.67568e-18
2.86281e-18
2.66336e-18
2.93485e-18
2.21731e-18
2.53186e-18
1.25851e-18
1.88154e-18
2.98736e-18
1.8676e-17
3.26273e-17
6.71268e-16
9.49798e-17
2.36811e-13
3.36993e-09
4.37079e-09
5.9134e-10
3.00051e-10
5.49233e-10
1.87416e-11
9.74349e-13
1.49338e-13
4.11933e-14
1.45448e-14
5.89387e-15
2.69427e-15
1.36598e-15
7.5106e-16
4.40023e-16
2.71528e-16
1.75106e-16
1.17344e-16
8.13637e-17
5.8186e-17
4.28112e-17
3.23464e-17
2.50623e-17
1.98899e-17
1.61575e-17
1.34277e-17
1.14132e-17
9.92073e-18
8.81587e-18
8.01124e-18
7.43232e-18
7.0532e-18
6.79872e-18
6.71795e-18
6.64932e-18
6.80748e-18
6.74363e-18
7.10829e-18
6.66775e-18
7.17791e-18
5.6597e-18
6.05701e-18
3.28074e-18
3.33271e-18
3.19425e-18
1.45763e-17
2.02184e-17
7.48494e-16
6.29254e-16
2.19472e-13
3.41149e-09
4.60792e-09
6.72899e-10
1.93589e-10
4.7206e-11
6.74278e-11
3.18912e-10
2.90498e-12
4.0691e-13
1.02951e-13
3.38924e-14
1.34025e-14
6.10588e-15
3.09304e-15
1.69843e-15
9.94416e-16
6.1397e-16
3.96578e-16
2.6641e-16
1.85313e-16
1.33033e-16
9.83157e-17
7.46618e-17
5.81739e-17
4.64622e-17
3.80056e-17
3.1825e-17
2.72696e-17
2.38992e-17
2.14218e-17
1.96091e-17
1.83555e-17
1.74663e-17
1.70201e-17
1.66547e-17
1.68058e-17
1.65245e-17
1.71334e-17
1.61158e-17
1.69342e-17
1.37518e-17
1.39319e-17
8.10528e-18
6.32304e-18
3.82282e-18
1.08616e-17
1.49105e-17
1.00703e-15
2.26647e-15
2.13848e-13
3.21238e-09
4.39155e-09
7.74076e-10
2.02178e-10
3.66339e-11
2.19044e-11
1.35813e-11
2.13179e-11
1.67291e-10
2.39846e-12
3.85343e-13
1.05902e-13
3.84247e-14
1.66156e-14
8.11227e-15
4.33548e-15
2.48796e-15
1.51323e-15
9.66483e-16
6.4388e-16
4.45238e-16
3.18391e-16
2.34825e-16
1.78243e-16
1.39039e-16
1.11319e-16
9.14e-17
7.68987e-17
6.62481e-17
5.84132e-17
5.26355e-17
4.85079e-17
4.54801e-17
4.364e-17
4.21328e-17
4.18467e-17
4.07238e-17
4.14809e-17
3.89289e-17
3.99085e-17
3.30123e-17
3.1862e-17
1.95547e-17
1.27365e-17
5.38001e-18
7.91609e-18
1.72122e-17
1.55876e-15
6.00445e-15
2.25585e-13
3.01803e-09
3.9731e-09
8.46732e-10
2.13074e-10
3.89193e-11
2.022e-11
8.7204e-12
4.70217e-12
4.33258e-12
7.10626e-12
8.13492e-11
5.66862e-12
6.47413e-13
1.69878e-13
6.19081e-14
2.71807e-14
1.35163e-14
7.3643e-15
4.30821e-15
2.67059e-15
1.73827e-15
1.18041e-15
8.32459e-16
6.07563e-16
4.57783e-16
3.55374e-16
2.83813e-16
2.32866e-16
1.9606e-16
1.69226e-16
1.49474e-16
1.35142e-16
1.24438e-16
1.17263e-16
1.11374e-16
1.08643e-16
1.04298e-16
1.04174e-16
9.70788e-17
9.6985e-17
8.0976e-17
7.46978e-17
4.75808e-17
2.72496e-17
9.05397e-18
5.88333e-18
3.30226e-17
2.67047e-15
1.38269e-14
2.63669e-13
2.84669e-09
3.51306e-09
9.08392e-10
2.10515e-10
4.24534e-11
2.17709e-11
9.1471e-12
4.00711e-12
2.55421e-12
2.00995e-12
1.85251e-12
2.21761e-12
4.58069e-12
8.60111e-11
3.53647e-12
5.1544e-13
1.54707e-13
6.22898e-14
2.966e-14
1.5804e-14
9.1501e-15
5.65596e-15
3.69096e-15
2.52344e-15
1.798e-15
1.32983e-15
1.01801e-15
8.04596e-16
6.55167e-16
5.4869e-16
4.71466e-16
4.15483e-16
3.73571e-16
3.44039e-16
3.19944e-16
3.05349e-16
2.87906e-16
2.81079e-16
2.58767e-16
2.51317e-16
2.10066e-16
1.85342e-16
1.20754e-16
6.27006e-17
1.79566e-17
4.85486e-18
8.51897e-17
5.00327e-15
3.03358e-14
3.46615e-13
2.67674e-09
3.05748e-09
9.77396e-10
1.99374e-10
4.56485e-11
2.32564e-11
1.04191e-11
4.32337e-12
2.49969e-12
1.7006e-12
1.229e-12
9.61791e-13
8.4596e-13
8.60353e-13
1.06576e-12
1.85404e-12
8.04188e-12
2.09274e-11
1.07417e-12
2.69491e-13
1.03383e-13
4.89306e-14
2.63987e-14
1.56283e-14
9.9401e-15
6.70386e-15
4.75295e-15
3.52041e-15
2.71096e-15
2.16255e-15
1.77987e-15
1.50909e-15
1.31017e-15
1.16799e-15
1.05448e-15
9.77438e-16
8.98786e-16
8.52687e-16
7.70281e-16
7.23944e-16
6.00584e-16
5.05998e-16
3.32454e-16
1.59323e-16
4.12703e-17
5.21955e-18
2.51729e-16
1.03522e-14
6.73979e-14
5.17816e-13
2.49833e-09
2.62253e-09
1.05725e-09
1.85304e-10
4.89893e-11
2.41821e-11
1.18386e-11
4.85704e-12
2.72792e-12
1.79605e-12
1.22397e-12
8.65573e-13
6.52278e-13
5.26671e-13
4.55437e-13
4.23978e-13
4.3056e-13
4.88984e-13
6.52346e-13
1.14734e-12
3.92181e-12
1.14002e-10
1.64691e-12
3.7657e-13
1.45922e-13
7.18558e-14
4.08502e-14
2.5652e-14
1.73639e-14
1.24829e-14
9.42566e-15
7.42924e-15
6.05634e-15
5.10735e-15
4.39031e-15
3.8882e-15
3.43693e-15
3.12994e-15
2.74198e-15
2.47094e-15
2.01056e-15
1.60919e-15
1.04926e-15
4.68547e-16
1.11068e-16
8.86564e-18
8.24165e-16
2.43005e-14
1.59654e-13
8.91894e-13
2.31204e-09
2.22222e-09
1.14261e-09
1.70932e-10
5.29453e-11
2.46816e-11
1.33078e-11
5.45995e-12
3.02574e-12
1.98943e-12
1.34708e-12
9.29514e-13
6.70558e-13
5.07755e-13
4.01267e-13
3.2997e-13
2.82462e-13
2.52243e-13
2.3583e-13
2.3216e-13
2.42833e-13
2.73863e-13
3.41341e-13
4.92356e-13
9.09824e-13
2.93891e-12
7.31105e-11
2.73072e-12
5.99505e-13
2.44058e-13
1.28911e-13
7.91382e-14
5.35274e-14
3.89941e-14
2.97834e-14
2.38745e-14
1.94225e-14
1.63887e-14
1.35086e-14
1.13928e-14
8.87589e-15
6.6459e-15
4.19801e-15
1.74613e-15
3.73888e-16
2.55159e-17
3.12667e-15
6.82092e-14
4.29025e-13
1.83077e-12
2.12017e-09
1.86281e-09
1.22618e-09
1.57298e-10
5.75604e-11
2.48841e-11
1.48528e-11
6.13117e-12
3.35403e-12
2.21536e-12
1.51317e-12
1.04363e-12
7.45886e-13
5.55328e-13
4.27612e-13
3.38755e-13
2.75593e-13
2.30144e-13
1.97287e-13
1.73713e-13
1.57315e-13
1.46826e-13
1.41652e-13
1.418e-13
1.48034e-13
1.62218e-13
1.88241e-13
2.34254e-13
3.18769e-13
4.91293e-13
9.20133e-13
2.53019e-12
2.27121e-11
1.42865e-11
1.98493e-12
7.51708e-13
3.89708e-13
2.4046e-13
1.57921e-13
1.10486e-13
7.49007e-14
4.89342e-14
2.80276e-14
1.04712e-14
1.93715e-15
1.25127e-16
1.59143e-14
2.59419e-13
1.46934e-12
4.8859e-12
1.92437e-09
1.54471e-09
1.30135e-09
1.45173e-10
6.2589e-11
2.48577e-11
1.64768e-11
6.89674e-12
3.71714e-12
2.46401e-12
1.7035e-12
1.18248e-12
8.46011e-13
6.28853e-13
4.81991e-13
3.78416e-13
3.0345e-13
2.48208e-13
2.06909e-13
1.75716e-13
1.5205e-13
1.34156e-13
1.20838e-13
1.11287e-13
1.04985e-13
1.01644e-13
1.01174e-13
1.03714e-13
1.09608e-13
1.1961e-13
1.34813e-13
1.57407e-13
1.90282e-13
2.39945e-13
3.15083e-13
4.38752e-13
6.47555e-13
1.06005e-12
1.98432e-12
5.0518e-12
2.74909e-11
3.64377e-11
2.90407e-12
4.56224e-13
4.70508e-14
2.03158e-15
2.04041e-13
2.153e-12
9.29331e-12
2.28459e-11
1.72686e-09
1.26777e-09
1.36246e-09
1.35449e-10
6.7627e-11
2.46714e-11
1.81439e-11
7.7791e-12
4.12546e-12
2.73871e-12
1.91751e-12
1.34237e-12
9.63983e-13
7.18406e-13
5.51732e-13
4.33391e-13
3.46952e-13
2.82566e-13
2.33815e-13
1.96407e-13
1.6744e-13
1.44914e-13
1.27431e-13
1.13991e-13
1.03877e-13
9.65741e-14
9.17054e-14
8.90261e-14
8.83496e-14
8.9641e-14
9.28274e-14
9.81331e-14
1.0549e-13
1.15543e-13
1.27924e-13
1.43962e-13
1.62152e-13
1.84604e-13
2.06865e-13
2.29889e-13
2.44419e-13
2.40166e-13
2.10131e-13
1.22951e-13
3.32507e-14
3.09325e-15
9.57925e-13
3.19924e-11
4.69565e-10
4.39206e-13
1.5304e-09
1.03168e-09
1.40461e-09
1.29074e-10
7.21519e-11
2.44249e-11
1.97934e-11
8.79618e-12
4.58836e-12
3.04401e-12
2.15833e-12
1.5257e-12
1.10061e-12
8.23111e-13
6.34499e-13
5.00056e-13
4.01274e-13
3.27211e-13
2.70728e-13
2.27031e-13
1.92872e-13
1.6601e-13
1.44869e-13
1.28312e-13
1.15504e-13
1.05824e-13
9.87875e-14
9.40352e-14
9.12514e-14
9.02552e-14
9.08034e-14
9.2895e-14
9.62378e-14
1.01058e-13
1.06758e-13
1.13825e-13
1.20843e-13
1.28359e-13
1.33497e-13
1.35663e-13
1.30997e-13
1.14685e-13
8.78172e-14
4.46692e-14
9.88302e-15
4.66696e-16
1.18739e-13
1.82366e-12
1.1887e-11
2.42061e-11
1.33795e-09
8.35246e-10
1.42378e-09
1.26946e-10
7.55653e-11
2.42481e-11
2.13482e-11
9.96314e-12
5.11525e-12
3.38407e-12
2.42912e-12
1.73601e-12
1.25884e-12
9.44982e-13
7.31457e-13
5.78824e-13
4.66131e-13
3.81201e-13
3.16093e-13
2.6545e-13
2.25629e-13
1.94118e-13
1.6915e-13
1.49447e-13
1.34062e-13
1.22284e-13
1.13539e-13
1.07392e-13
1.03442e-13
1.01429e-13
1.01023e-13
1.02133e-13
1.04384e-13
1.07871e-13
1.11952e-13
1.16868e-13
1.2134e-13
1.25454e-13
1.26993e-13
1.24858e-13
1.16696e-13
9.85334e-14
7.24796e-14
3.62726e-14
7.93772e-15
1.82346e-16
5.72882e-14
7.46832e-13
3.90761e-12
6.06493e-12
1.15245e-09
6.76179e-10
1.4171e-09
1.29862e-10
7.73059e-11
2.42848e-11
2.27249e-11
1.12911e-11
5.71678e-12
3.76336e-12
2.7327e-12
1.97697e-12
1.44223e-12
1.08692e-12
8.44948e-13
6.71573e-13
5.42962e-13
4.45546e-13
3.70515e-13
3.11884e-13
2.6557e-13
2.28758e-13
1.99467e-13
1.76267e-13
1.58089e-13
1.44127e-13
1.33721e-13
1.26358e-13
1.21556e-13
1.18983e-13
1.18234e-13
1.19144e-13
1.21273e-13
1.2462e-13
1.28506e-13
1.32992e-13
1.36846e-13
1.39799e-13
1.39898e-13
1.35544e-13
1.24934e-13
1.04147e-13
7.55192e-14
3.84456e-14
8.93673e-15
1.02255e-16
3.42634e-14
4.18479e-13
1.85078e-12
2.03709e-12
9.76817e-10
5.51144e-10
1.38317e-09
1.38499e-10
7.69918e-11
2.46681e-11
2.38451e-11
1.27839e-11
6.4054e-12
4.18708e-12
3.07189e-12
2.25229e-12
1.65467e-12
1.25228e-12
9.77826e-13
7.80792e-13
6.33931e-13
5.22095e-13
4.35537e-13
3.67589e-13
3.13682e-13
2.70664e-13
2.36321e-13
2.09053e-13
1.87664e-13
1.71241e-13
1.59029e-13
1.50431e-13
1.44879e-13
1.41961e-13
1.41188e-13
1.42321e-13
1.44849e-13
1.48671e-13
1.53063e-13
1.57901e-13
1.61948e-13
1.64572e-13
1.63903e-13
1.57813e-13
1.44646e-13
1.20359e-13
8.71916e-14
4.5925e-14
1.1887e-14
1.54185e-16
1.93702e-14
2.38828e-13
8.90356e-13
5.91044e-13
8.13753e-10
4.55994e-10
1.32235e-09
1.53378e-10
7.44909e-11
2.54981e-11
2.46481e-11
1.4434e-11
7.19544e-12
4.66138e-12
3.44958e-12
2.56573e-12
1.90045e-12
1.44487e-12
1.13336e-12
9.09394e-13
7.41656e-13
6.13181e-13
5.13217e-13
4.34367e-13
3.7153e-13
3.21186e-13
2.80864e-13
2.48785e-13
2.23611e-13
2.04316e-13
1.90039e-13
1.80085e-13
1.73788e-13
1.70641e-13
1.70065e-13
1.71724e-13
1.75031e-13
1.79769e-13
1.85153e-13
1.90854e-13
1.95591e-13
1.98342e-13
1.972e-13
1.89503e-13
1.73477e-13
1.44963e-13
1.0586e-13
5.83096e-14
1.73358e-14
5.58061e-16
8.54791e-15
1.18263e-13
3.59151e-13
9.11947e-14
6.65559e-10
3.86078e-10
1.23688e-09
1.7473e-10
6.99562e-11
2.68249e-11
2.5103e-11
1.62172e-11
8.10293e-12
5.19345e-12
3.86887e-12
2.921e-12
2.1842e-12
1.66896e-12
1.31529e-12
1.06073e-12
8.69185e-13
7.21562e-13
6.06033e-13
5.14434e-13
4.41089e-13
3.82081e-13
3.34664e-13
2.96867e-13
2.672e-13
2.44513e-13
2.2783e-13
2.16341e-13
2.09266e-13
2.05984e-13
2.05805e-13
2.0828e-13
2.12727e-13
2.1879e-13
2.25605e-13
2.32613e-13
2.38442e-13
2.41665e-13
2.40221e-13
2.30936e-13
2.11711e-13
1.7833e-13
1.32164e-13
7.6693e-14
2.66449e-14
2.12879e-15
2.18912e-15
4.19946e-14
9.35465e-14
1.06043e-15
5.33958e-10
3.36565e-10
1.13075e-09
2.02274e-10
6.38555e-11
2.86245e-11
2.52196e-11
1.80887e-11
9.14473e-12
5.79156e-12
4.33322e-12
3.32163e-12
2.51088e-12
1.92937e-12
1.52785e-12
1.23862e-12
1.02004e-12
8.50459e-13
7.16903e-13
6.10421e-13
5.24728e-13
4.55481e-13
3.99645e-13
3.55046e-13
3.20039e-13
2.9334e-13
2.73843e-13
2.60608e-13
2.52717e-13
2.49413e-13
2.49871e-13
2.535e-13
2.59503e-13
2.67356e-13
2.7609e-13
2.84885e-13
2.92229e-13
2.9627e-13
2.9469e-13
2.83821e-13
2.61079e-13
2.22256e-13
1.68079e-13
1.0328e-13
4.21744e-14
6.84923e-15
2.67927e-16
6.66973e-15
6.76937e-15
3.28224e-14
4.19961e-10
3.02678e-10
1.00955e-09
2.34931e-10
5.69514e-11
3.07684e-11
2.50541e-11
1.99817e-11
1.03369e-11
6.46508e-12
4.84661e-12
3.77089e-12
2.88556e-12
2.23141e-12
1.77582e-12
1.4474e-12
1.19825e-12
1.0036e-12
8.49239e-13
7.25423e-13
6.25247e-13
5.43918e-13
4.78103e-13
4.25424e-13
3.84077e-13
3.52637e-13
3.29856e-13
3.14642e-13
3.05918e-13
3.02754e-13
3.04167e-13
3.09386e-13
3.17472e-13
3.27696e-13
3.38952e-13
3.50129e-13
3.59512e-13
3.64806e-13
3.63328e-13
3.50947e-13
3.24464e-13
2.79733e-13
2.16814e-13
1.41546e-13
6.77432e-14
1.87493e-14
1.57469e-15
1.09991e-16
1.4037e-15
3.13323e-13
3.23788e-10
2.79879e-10
8.80624e-10
2.70481e-10
5.02382e-11
3.3014e-11
2.47042e-11
2.18111e-11
1.16923e-11
7.22452e-12
5.41372e-12
4.27172e-12
3.31333e-12
2.58086e-12
2.06452e-12
1.69196e-12
1.40839e-12
1.18527e-12
1.007e-12
8.63055e-13
7.45932e-13
6.50377e-13
5.72756e-13
5.10494e-13
4.61634e-13
4.24606e-13
3.98007e-13
3.80572e-13
3.71032e-13
3.68252e-13
3.71051e-13
3.78437e-13
3.89291e-13
4.02643e-13
4.17201e-13
4.3153e-13
4.43644e-13
4.50787e-13
4.49812e-13
4.3614e-13
4.0589e-13
3.55013e-13
2.82985e-13
1.96622e-13
1.09311e-13
4.51526e-14
1.36107e-14
8.28286e-15
5.94301e-14
1.09757e-12
2.44781e-10
2.64203e-10
7.52662e-10
3.0544e-10
4.47719e-11
3.50432e-11
2.42957e-11
2.34813e-11
1.32166e-11
8.08155e-12
6.04007e-12
4.82676e-12
3.79901e-12
2.98386e-12
2.39984e-12
1.97773e-12
1.65561e-12
1.40035e-12
1.19472e-12
1.0275e-12
8.90606e-13
7.78344e-13
6.86791e-13
6.13191e-13
5.55449e-13
5.11856e-13
4.80841e-13
4.60939e-13
4.50661e-13
4.48618e-13
4.53385e-13
4.63705e-13
4.78224e-13
4.9569e-13
5.14571e-13
5.33067e-13
5.4885e-13
5.58678e-13
5.58857e-13
5.44376e-13
5.1067e-13
4.53827e-13
3.72964e-13
2.75834e-13
1.75882e-13
9.82767e-14
5.70087e-14
7.03731e-14
3.17027e-13
2.58188e-12
1.81551e-10
2.52393e-10
6.32945e-10
3.35683e-10
4.13785e-11
3.65128e-11
2.39617e-11
2.48984e-11
1.4903e-11
9.04873e-12
6.73206e-12
5.43844e-12
4.34693e-12
3.44675e-12
2.78818e-12
2.3107e-12
1.94562e-12
1.65431e-12
1.41757e-12
1.22355e-12
1.06368e-12
9.31856e-13
8.2391e-13
7.36936e-13
6.68729e-13
6.1745e-13
5.81358e-13
5.5876e-13
5.47903e-13
5.47098e-13
5.54618e-13
5.68878e-13
5.88236e-13
6.11098e-13
6.35634e-13
6.59632e-13
6.80352e-13
6.94035e-13
6.9639e-13
6.81985e-13
6.45664e-13
5.83725e-13
4.95353e-13
3.89418e-13
2.8061e-13
1.97067e-13
1.65373e-13
2.60411e-13
9.30579e-13
4.89354e-12
1.32281e-10
2.4164e-10
5.25235e-10
3.57569e-10
4.05113e-11
3.71102e-11
2.3816e-11
2.59884e-11
1.6727e-11
1.01386e-11
7.49684e-12
6.10908e-12
4.9606e-12
3.97581e-12
3.23637e-12
2.69736e-12
2.28468e-12
1.95323e-12
1.68135e-12
1.45663e-12
1.27017e-12
1.11554e-12
9.88373e-13
8.85677e-13
8.05185e-13
7.44951e-13
7.03062e-13
6.77571e-13
6.66416e-13
6.67542e-13
6.78857e-13
6.98374e-13
7.24092e-13
7.54012e-13
7.85934e-13
8.17186e-13
8.44544e-13
8.63711e-13
8.69775e-13
8.56926e-13
8.19611e-13
7.5451e-13
6.61564e-13
5.51349e-13
4.4203e-13
3.69003e-13
3.8674e-13
6.70872e-13
2.04713e-12
8.08879e-12
9.48792e-11
2.29715e-10
4.31047e-10
3.6873e-10
4.23495e-11
3.66669e-11
2.39246e-11
2.67157e-11
1.86431e-11
1.13628e-11
8.34218e-12
6.84125e-12
5.64268e-12
4.577e-12
3.75154e-12
3.1447e-12
2.67956e-12
2.30376e-12
1.99251e-12
1.73285e-12
1.51575e-12
1.33464e-12
1.18503e-12
1.06393e-12
9.69073e-13
8.9846e-13
8.50007e-13
8.21485e-13
8.1047e-13
8.14474e-13
8.30952e-13
8.57433e-13
8.9147e-13
9.30586e-13
9.72132e-13
1.01292e-12
1.04918e-12
1.07607e-12
1.08808e-12
1.0791e-12
1.04352e-12
9.78741e-13
8.86473e-13
7.80226e-13
6.8529e-13
6.51516e-13
7.83491e-13
1.40554e-12
3.7892e-12
1.21564e-11
6.71504e-11
2.15329e-10
3.5095e-10
3.68283e-10
4.69015e-11
3.52545e-11
2.42897e-11
2.70909e-11
2.05864e-11
1.27298e-11
9.2764e-12
7.63807e-12
6.39491e-12
5.25569e-12
4.34101e-12
3.66016e-12
3.13754e-12
2.71312e-12
2.35811e-12
2.05894e-12
1.80676e-12
1.59504e-12
1.41934e-12
1.27678e-12
1.16522e-12
1.08265e-12
1.02683e-12
9.95234e-13
9.8501e-13
9.93156e-13
1.01657e-12
1.05221e-12
1.09707e-12
1.14811e-12
1.20215e-12
1.25542e-12
1.30358e-12
1.34121e-12
1.36232e-12
1.36067e-12
1.33107e-12
1.27222e-12
1.18909e-12
1.10012e-12
1.04308e-12
1.09253e-12
1.43008e-12
2.5697e-12
6.24205e-12
1.70281e-11
4.70232e-11
1.981e-10
2.84675e-10
3.5673e-10
5.39643e-11
3.31634e-11
2.48492e-11
2.71687e-11
2.24764e-11
1.42421e-11
1.03081e-11
8.50344e-12
7.2183e-12
6.01635e-12
5.01205e-12
4.25155e-12
3.66636e-12
3.18904e-12
2.78582e-12
2.44233e-12
2.1502e-12
1.90327e-12
1.69739e-12
1.52996e-12
1.39906e-12
1.30279e-12
1.2388e-12
1.20421e-12
1.1957e-12
1.20965e-12
1.2423e-12
1.28988e-12
1.34873e-12
1.41514e-12
1.48532e-12
1.55486e-12
1.61881e-12
1.67121e-12
1.70579e-12
1.7164e-12
1.69903e-12
1.65449e-12
1.59311e-12
1.54118e-12
1.55609e-12
1.74967e-12
2.40819e-12
4.25899e-12
9.44622e-12
2.259e-11
3.26791e-11
1.78361e-10
2.31158e-10
3.35729e-10
6.30159e-11
3.08141e-11
2.54868e-11
2.7037e-11
2.42267e-11
1.58926e-11
1.14456e-11
9.44212e-12
8.11343e-12
6.86229e-12
5.77161e-12
4.92696e-12
4.27415e-12
3.73971e-12
3.28386e-12
2.89105e-12
2.55372e-12
2.26654e-12
2.02592e-12
1.82977e-12
1.67662e-12
1.56477e-12
1.49179e-12
1.45449e-12
1.44896e-12
1.47087e-12
1.51564e-12
1.57867e-12
1.65549e-12
1.74161e-12
1.83252e-12
1.92311e-12
2.00787e-12
2.08033e-12
2.13424e-12
2.16394e-12
2.16753e-12
2.14922e-12
2.12731e-12
2.13985e-12
2.2725e-12
2.68777e-12
3.79999e-12
6.54826e-12
1.33961e-11
2.86964e-11
2.26081e-11
1.56989e-10
1.88752e-10
3.07735e-10
7.31823e-11
2.86638e-11
2.60558e-11
2.6799e-11
2.57585e-11
1.76606e-11
1.26961e-11
1.04596e-11
9.08085e-12
7.7956e-12
6.62606e-12
5.69459e-12
4.96942e-12
4.37375e-12
3.86097e-12
3.41373e-12
3.02563e-12
2.69267e-12
2.41226e-12
2.18315e-12
2.00453e-12
1.87507e-12
1.79237e-12
1.75286e-12
1.752e-12
1.78461e-12
1.84515e-12
1.92799e-12
2.02772e-12
2.13892e-12
2.25627e-12
2.37393e-12
2.48585e-12
2.5852e-12
2.66612e-12
2.72402e-12
2.76035e-12
2.78433e-12
2.82552e-12
2.93848e-12
3.24638e-12
3.97479e-12
5.67993e-12
9.4841e-12
1.80406e-11
3.51891e-11
1.56102e-11
1.35215e-10
1.55524e-10
2.75533e-10
8.3322e-11
2.71253e-11
2.64212e-11
2.65513e-11
2.70148e-11
1.951e-11
1.40649e-11
1.1562e-11
1.01216e-11
8.81713e-12
7.58085e-12
6.5626e-12
5.76098e-12
5.10013e-12
4.5263e-12
4.01955e-12
3.5748e-12
3.19008e-12
2.86436e-12
2.59762e-12
2.39002e-12
2.24081e-12
2.14772e-12
2.10681e-12
2.11283e-12
2.15958e-12
2.24039e-12
2.34843e-12
2.47713e-12
2.61999e-12
2.77083e-12
2.923e-12
3.07001e-12
3.20488e-12
3.32265e-12
3.42057e-12
3.50489e-12
3.59195e-12
3.72622e-12
3.98402e-12
4.53514e-12
5.67639e-12
8.10656e-12
1.30792e-11
2.32945e-11
4.19081e-11
1.07775e-11
1.14189e-10
1.29549e-10
2.41888e-10
9.22139e-11
2.64993e-11
2.6507e-11
2.63663e-11
2.79711e-11
2.13906e-11
1.55537e-11
1.27557e-11
1.12378e-11
9.927e-12
8.64043e-12
7.53897e-12
6.65791e-12
5.92819e-12
5.28942e-12
4.71817e-12
4.21071e-12
3.76781e-12
3.39075e-12
3.08126e-12
2.84087e-12
2.66968e-12
2.56565e-12
2.52452e-12
2.54023e-12
2.60541e-12
2.71203e-12
2.85181e-12
3.01683e-12
3.19937e-12
3.39225e-12
3.588e-12
3.77987e-12
3.96094e-12
4.12787e-12
4.28061e-12
4.43202e-12
4.60781e-12
4.87153e-12
5.32613e-12
6.19533e-12
7.84984e-12
1.11171e-11
1.73112e-11
2.90476e-11
4.87057e-11
7.455e-12
9.46253e-11
1.09081e-10
2.09167e-10
9.8831e-11
2.69185e-11
2.63157e-11
2.62795e-11
2.86385e-11
2.32416e-11
1.71584e-11
1.40471e-11
1.24328e-11
1.11249e-11
9.80802e-12
8.63124e-12
7.66948e-12
6.86761e-12
6.16027e-12
5.51968e-12
4.94331e-12
4.43542e-12
4.0005e-12
3.64271e-12
3.36543e-12
3.16993e-12
3.05461e-12
3.01489e-12
3.04381e-12
3.13263e-12
3.27174e-12
3.45114e-12
3.66133e-12
3.89314e-12
4.13834e-12
4.38861e-12
4.63711e-12
4.87737e-12
5.10838e-12
5.33395e-12
5.57544e-12
5.87044e-12
6.30539e-12
7.01427e-12
8.27869e-12
1.05384e-11
1.47221e-11
2.21282e-11
3.51775e-11
5.54519e-11
5.1744e-12
7.69878e-11
9.26512e-11
1.78912e-10
1.02554e-10
2.83455e-11
2.5926e-11
2.62859e-11
2.90588e-11
2.50001e-11
1.8867e-11
1.54414e-11
1.37109e-11
1.24109e-11
1.10857e-11
9.84624e-12
8.805e-12
7.92837e-12
7.1491e-12
6.43455e-12
5.78304e-12
5.203e-12
4.70319e-12
4.29109e-12
3.97252e-12
3.75033e-12
3.62358e-12
3.58743e-12
3.63388e-12
3.75267e-12
3.93226e-12
4.16066e-12
4.4265e-12
4.71896e-12
5.02862e-12
5.34636e-12
5.66546e-12
5.98031e-12
6.2931e-12
6.61269e-12
6.97086e-12
7.41964e-12
8.0716e-12
9.09424e-12
1.08273e-11
1.3767e-11
1.89059e-11
2.74539e-11
4.15588e-11
6.20485e-11
3.60482e-12
6.16181e-11
7.91224e-11
1.51886e-10
1.03225e-10
3.06056e-11
2.54729e-11
2.6353e-11
2.92934e-11
2.66101e-11
2.06578e-11
1.69419e-11
1.50776e-11
1.37855e-11
1.24744e-11
1.11899e-11
1.00737e-11
9.1207e-12
8.26643e-12
7.47355e-12
6.74066e-12
6.08102e-12
5.50882e-12
5.03594e-12
4.6714e-12
4.42012e-12
4.28207e-12
4.25222e-12
4.32147e-12
4.47773e-12
4.70725e-12
4.99569e-12
5.32947e-12
5.69586e-12
6.08417e-12
6.48447e-12
6.89041e-12
7.29768e-12
7.71259e-12
8.15024e-12
8.6548e-12
9.29466e-12
1.02109e-11
1.1605e-11
1.38698e-11
1.75394e-11
2.36276e-11
3.31982e-11
4.80746e-11
6.84189e-11
2.52011e-12
4.86458e-11
6.76873e-11
1.28361e-10
1.01099e-10
3.34163e-11
2.51096e-11
2.64414e-11
2.94101e-11
2.80314e-11
2.25002e-11
1.85492e-11
1.65385e-11
1.52507e-11
1.39747e-11
1.2667e-11
1.14842e-11
1.04549e-11
9.52302e-12
8.64762e-12
7.82721e-12
7.08027e-12
6.42772e-12
5.88713e-12
5.47165e-12
5.18888e-12
5.03998e-12
5.01985e-12
5.11815e-12
5.32071e-12
5.61121e-12
5.97249e-12
6.38842e-12
6.84408e-12
7.32734e-12
7.82746e-12
8.33871e-12
8.85854e-12
9.39826e-12
9.9803e-12
1.06629e-11
1.15321e-11
1.27585e-11
1.4575e-11
1.74186e-11
2.18383e-11
2.88274e-11
3.92597e-11
5.46259e-11
7.45217e-11
1.76713e-12
3.79879e-11
5.78153e-11
1.08283e-10
9.67107e-11
3.64282e-11
2.49681e-11
2.65212e-11
2.947e-11
2.92449e-11
2.43556e-11
2.02594e-11
1.80994e-11
1.68097e-11
1.55868e-11
1.42814e-11
1.3045e-11
1.19415e-11
1.09298e-11
9.96789e-12
9.05388e-12
8.21175e-12
7.47046e-12
6.85478e-12
6.38311e-12
6.06642e-12
5.9075e-12
5.90123e-12
6.03595e-12
6.29508e-12
6.65928e-12
7.10811e-12
7.62244e-12
8.18478e-12
8.78141e-12
9.40071e-12
1.00378e-11
1.06923e-11
1.13813e-11
1.21354e-11
1.3028e-11
1.41634e-11
1.5741e-11
1.80198e-11
2.14681e-11
2.66269e-11
3.44313e-11
4.55412e-11
6.11265e-11
8.03422e-11
1.24206e-12
2.94207e-11
4.91818e-11
9.13776e-11
9.07224e-11
3.92842e-11
2.51324e-11
2.65831e-11
2.95192e-11
3.02536e-11
2.61827e-11
2.20634e-11
1.97647e-11
1.84672e-11
1.73116e-11
1.60357e-11
1.47634e-11
1.35906e-11
1.24978e-11
1.14455e-11
1.04319e-11
9.48653e-12
8.64773e-12
7.9491e-12
7.4157e-12
7.0627e-12
6.89496e-12
6.9075e-12
7.08718e-12
7.41465e-12
7.86704e-12
8.42009e-12
9.0511e-12
9.73962e-12
1.04701e-11
1.12299e-11
1.20151e-11
1.28279e-11
1.36915e-11
1.46454e-11
1.57787e-11
1.72132e-11
1.91743e-11
2.19402e-11
2.59968e-11
3.18514e-11
4.03556e-11
5.19533e-11
6.75169e-11
8.58723e-11
8.74455e-13
2.26508e-11
4.16e-11
7.72504e-11
8.37851e-11
4.16788e-11
2.56273e-11
2.66412e-11
2.95861e-11
3.10798e-11
2.7942e-11
2.39463e-11
2.15373e-11
2.02286e-11
1.91509e-11
1.79319e-11
1.66457e-11
1.5412e-11
1.4238e-11
1.30918e-11
1.19724e-11
1.09156e-11
9.97015e-12
9.18029e-12
8.57929e-12
8.18761e-12
8.01269e-12
8.04981e-12
8.28419e-12
8.69333e-12
9.25024e-12
9.92612e-12
1.06941e-11
1.15303e-11
1.24168e-11
1.334e-11
1.4297e-11
1.52922e-11
1.63556e-11
1.75357e-11
1.89366e-11
2.06963e-11
2.30622e-11
2.63224e-11
3.09657e-11
3.74472e-11
4.65177e-11
5.8412e-11
7.3751e-11
9.11389e-11
6.16297e-13
1.73705e-11
3.49598e-11
6.54732e-11
7.64587e-11
4.3401e-11
2.64198e-11
2.67279e-11
2.96847e-11
3.17578e-11
2.96019e-11
2.58875e-11
2.34174e-11
2.20997e-11
2.11074e-11
1.99718e-11
1.86975e-11
1.74149e-11
1.61613e-11
1.49176e-11
1.36863e-11
1.25097e-11
1.14481e-11
1.05583e-11
9.88355e-12
9.45082e-12
9.27075e-12
9.33907e-12
9.63915e-12
1.01449e-11
1.08244e-11
1.16437e-11
1.25709e-11
1.3578e-11
1.46444e-11
1.5755e-11
1.69076e-11
1.81093e-11
1.93963e-11
2.08256e-11
2.25155e-11
2.46175e-11
2.73949e-11
3.11383e-11
3.63238e-11
4.33419e-11
5.28353e-11
6.48512e-11
7.98022e-11
9.61675e-11
4.34618e-13
1.32915e-11
2.91867e-11
5.56406e-11
6.91677e-11
4.43522e-11
2.74301e-11
2.68817e-11
2.98201e-11
3.23273e-11
3.11419e-11
2.78623e-11
2.54016e-11
2.40859e-11
2.31852e-11
2.21568e-11
2.09227e-11
1.96075e-11
1.8278e-11
1.69337e-11
1.55842e-11
1.42791e-11
1.30915e-11
1.20926e-11
1.13376e-11
1.08615e-11
1.06787e-11
1.07857e-11
1.11637e-11
1.17824e-11
1.26044e-11
1.35894e-11
1.46997e-11
1.59024e-11
1.71736e-11
1.84962e-11
1.98683e-11
2.12989e-11
2.28304e-11
2.4527e-11
2.65196e-11
2.89694e-11
3.21504e-11
3.63466e-11
4.20097e-11
4.94605e-11
5.92329e-11
7.12137e-11
8.56618e-11
1.00994e-10
3.06619e-13
1.01613e-11
2.42194e-11
4.73998e-11
6.21926e-11
4.45371e-11
2.85477e-11
2.71317e-11
2.99936e-11
3.28259e-11
3.25548e-11
2.98441e-11
2.74823e-11
2.6191e-11
2.53892e-11
2.44891e-11
2.33246e-11
2.19967e-11
2.05974e-11
1.91502e-11
1.76759e-11
1.62333e-11
1.49095e-11
1.37919e-11
1.29499e-11
1.24279e-11
1.22453e-11
1.23992e-11
1.28685e-11
1.36181e-11
1.4604e-11
1.57786e-11
1.70974e-11
1.85214e-11
2.00227e-11
2.15815e-11
2.31955e-11
2.48752e-11
2.66674e-11
2.86429e-11
3.09425e-11
3.37329e-11
3.72947e-11
4.18948e-11
4.79569e-11
5.57288e-11
6.56405e-11
7.74588e-11
9.1325e-11
1.05653e-10
2.1644e-13
7.76721e-12
1.9999e-11
4.04609e-11
5.56964e-11
4.40355e-11
2.96535e-11
2.74898e-11
3.02073e-11
3.32858e-11
3.38452e-11
3.18074e-11
2.96479e-11
2.8417e-11
2.77243e-11
2.69709e-11
2.59052e-11
2.45878e-11
2.31279e-11
2.15764e-11
1.99705e-11
1.83809e-11
1.69102e-11
1.56639e-11
1.47278e-11
1.41575e-11
1.39781e-11
1.41879e-11
1.4763e-11
1.56627e-11
1.68353e-11
1.82247e-11
1.97782e-11
2.14498e-11
2.32063e-11
2.50244e-11
2.69004e-11
2.88452e-11
3.0909e-11
3.3167e-11
3.57668e-11
3.88787e-11
4.27816e-11
4.77237e-11
5.4096e-11
6.20718e-11
7.20013e-11
8.35562e-11
9.67915e-11
1.10174e-10
1.52952e-13
5.93832e-12
1.64549e-11
3.45937e-11
4.97581e-11
4.29688e-11
3.06407e-11
2.79493e-11
3.04655e-11
3.37324e-11
3.50271e-11
3.3731e-11
3.18833e-11
3.07628e-11
3.01952e-11