/*--------------------------------*- C++ -*----------------------------------*\
  =========                 |
  \\      /  F ield         | OpenFOAM: The Open Source CFD Toolbox
   \\    /   O peration     | Website:  https://openfoam.org
    \\  /    A nd           | Version:  7
     \\/     M anipulation  |
\*---------------------------------------------------------------------------*/
FoamFile
{
    version     2.0;
    format      ascii;
    class       volScalarField;
    location    "0.19";
    object      p;
}
// * * * * * * * * * * * * * * * * * * * * * * * * * * * * * * * * * * * * * //

dimensions      [0 2 -2 0 0 0 0];

internalField   nonuniform List<scalar> 
70000
(
0.119678
0.0422228
0.0297019
0.0321472
0.0323182
0.0312634
0.0303276
0.029623
0.0290393
0.0285288
0.0280781
0.0276791
0.0273244
0.0270073
0.0267225
0.0264656
0.026233
0.0260219
0.0258299
0.025655
0.0254956
0.0253502
0.0252178
0.0250975
0.0249885
0.0248901
0.0248021
0.024724
0.0246557
0.0245972
0.0245486
0.0245101
0.0244825
0.0244661
0.0244623
0.024472
0.0244971
0.0245396
0.0246024
0.0246892
0.0248034
0.0249544
0.0251419
0.0253937
0.0256891
0.0261157
0.0265712
0.0273491
0.0280158
0.0297155
0.11531
0.0425897
0.0299049
0.0322428
0.0323728
0.0312994
0.0303558
0.0296463
0.0290588
0.0285454
0.0280926
0.0276919
0.0273358
0.0270176
0.0267318
0.0264741
0.0262409
0.0260292
0.0258366
0.0256613
0.0255014
0.0253557
0.025223
0.0251024
0.0249931
0.0248945
0.0248062
0.0247279
0.0246594
0.0246007
0.0245519
0.0245133
0.0244855
0.024469
0.024465
0.0244746
0.0244996
0.024542
0.0246046
0.0246913
0.0248053
0.0249562
0.0251435
0.0253952
0.0256904
0.0261169
0.0265722
0.027349
0.0280213
0.029734
0.11173
0.0435297
0.0302453
0.0323719
0.032447
0.0313441
0.0303881
0.0296724
0.0290806
0.0285638
0.0281084
0.0277058
0.0273482
0.0270287
0.0267419
0.0264833
0.0262493
0.0260369
0.0258438
0.025668
0.0255077
0.0253616
0.0252285
0.0251076
0.024998
0.0248991
0.0248106
0.0247321
0.0246634
0.0246045
0.0245555
0.0245167
0.0244887
0.024472
0.0244679
0.0244772
0.0245021
0.0245443
0.0246067
0.0246932
0.0248069
0.0249576
0.0251445
0.0253959
0.0256905
0.0261166
0.0265709
0.0273448
0.0280337
0.0297172
0.108635
0.0446315
0.0307148
0.032546
0.032548
0.0314017
0.0304262
0.0297024
0.0291052
0.0285843
0.0281258
0.0277209
0.0273615
0.0270406
0.0267526
0.026493
0.0262581
0.0260451
0.0258514
0.025675
0.0255142
0.0253677
0.0252342
0.025113
0.0250031
0.024904
0.0248152
0.0247364
0.0246675
0.0246083
0.0245592
0.0245202
0.024492
0.0244751
0.0244708
0.0244799
0.0245046
0.0245465
0.0246087
0.0246949
0.0248083
0.0249586
0.025145
0.0253957
0.0256894
0.0261139
0.0265672
0.0273338
0.028048
0.0296611
0.105676
0.045728
0.0312808
0.0327666
0.0326825
0.0314797
0.0304753
0.0297395
0.0291352
0.028609
0.0281464
0.0277386
0.0273769
0.0270542
0.0267647
0.0265039
0.0262681
0.0260542
0.0258598
0.0256827
0.0255214
0.0253744
0.0252405
0.0251189
0.0250086
0.0249092
0.0248201
0.0247411
0.0246719
0.0246126
0.0245632
0.024524
0.0244956
0.0244785
0.0244739
0.0244829
0.0245072
0.0245489
0.0246108
0.0246966
0.0248095
0.0249592
0.0251448
0.0253945
0.0256869
0.0261086
0.026561
0.027315
0.028057
0.0295725
0.102767
0.046767
0.0318961
0.0330137
0.0328449
0.0315796
0.0305379
0.029786
0.0291727
0.0286396
0.0281718
0.02776
0.0273954
0.0270704
0.0267791
0.0265169
0.0262798
0.0260648
0.0258695
0.0256917
0.0255298
0.0253822
0.0252478
0.0251257
0.025015
0.0249152
0.0248258
0.0247465
0.024677
0.0246174
0.0245677
0.0245283
0.0244997
0.0244824
0.0244775
0.0244862
0.0245103
0.0245517
0.0246131
0.0246985
0.0248108
0.0249597
0.0251443
0.0253923
0.025683
0.0261003
0.0265517
0.0272879
0.0280541
0.0294528
0.0999024
0.0477297
0.032527
0.0332658
0.0330218
0.0316968
0.0306128
0.0298418
0.029218
0.0286768
0.0282026
0.0277861
0.0274179
0.0270901
0.0267965
0.0265324
0.0262938
0.0260776
0.0258811
0.0257024
0.0255396
0.0253913
0.0252563
0.0251337
0.0250225
0.0249223
0.0248325
0.0247528
0.024683
0.0246231
0.0245732
0.0245335
0.0245046
0.024487
0.0244819
0.0244903
0.024514
0.024555
0.024616
0.0247008
0.0248123
0.0249602
0.0251435
0.0253893
0.0256777
0.0260889
0.0265387
0.027252
0.0280338
0.0293032
0.097088
0.0486078
0.0331575
0.0335109
0.0332024
0.0318247
0.0306967
0.0299049
0.0292699
0.0287199
0.0282387
0.0278168
0.0274445
0.0271134
0.0268172
0.0265509
0.0263104
0.0260927
0.025895
0.0257151
0.0255513
0.0254022
0.0252665
0.0251432
0.0250314
0.0249307
0.0248405
0.0247603
0.0246902
0.0246299
0.0245797
0.0245397
0.0245105
0.0244926
0.0244872
0.0244953
0.0245187
0.0245592
0.0246197
0.0247038
0.0248144
0.024961
0.0251426
0.0253856
0.0256712
0.0260744
0.0265216
0.027207
0.027992
0.029124
0.0943298
0.0493987
0.0337825
0.033745
0.0333805
0.0319586
0.0307862
0.0299726
0.0293263
0.0287675
0.0282791
0.0278515
0.0274747
0.0271401
0.026841
0.0265723
0.0263298
0.0261103
0.0259111
0.02573
0.0255651
0.025415
0.0252784
0.0251544
0.025042
0.0249407
0.0248499
0.0247693
0.0246988
0.0246381
0.0245875
0.0245472
0.0245177
0.0244995
0.0244938
0.0245015
0.0245245
0.0245646
0.0246244
0.0247077
0.0248172
0.0249623
0.0251419
0.0253813
0.0256634
0.0260567
0.0264995
0.0271526
0.0279257
0.0289171
0.0916323
0.0501022
0.0344008
0.0339678
0.0335531
0.0320957
0.0308793
0.0300428
0.0293855
0.0288181
0.0283224
0.0278891
0.0275078
0.0271696
0.0268674
0.0265962
0.0263515
0.0261302
0.0259294
0.0257469
0.0255809
0.0254297
0.0252922
0.0251673
0.0250542
0.0249523
0.0248609
0.0247798
0.0247088
0.0246477
0.0245968
0.0245561
0.0245262
0.0245078
0.0245017
0.024509
0.0245316
0.0245712
0.0246302
0.0247127
0.0248209
0.0249642
0.0251414
0.0253766
0.0256544
0.0260359
0.0264721
0.027089
0.0278339
0.0286849
0.0889988
0.0507186
0.0350116
0.0341802
0.0337189
0.0322345
0.0309749
0.0301147
0.0294461
0.0288705
0.0283676
0.0279286
0.0275428
0.0272009
0.0268958
0.026622
0.0263752
0.026152
0.0259496
0.0257657
0.0255984
0.0254461
0.0253076
0.0251819
0.025068
0.0249654
0.0248734
0.0247918
0.0247203
0.0246588
0.0246075
0.0245664
0.0245362
0.0245174
0.024511
0.024518
0.02454
0.024579
0.0246373
0.0247188
0.0248256
0.0249668
0.0251412
0.0253714
0.0256442
0.0260122
0.0264387
0.0270162
0.0277174
0.0284309
0.0864323
0.0512482
0.0356135
0.0343831
0.033877
0.0323741
0.0310727
0.0301875
0.0295077
0.0289239
0.028414
0.0279693
0.0275791
0.0272336
0.0269255
0.0266492
0.0264002
0.0261752
0.0259711
0.0257858
0.0256172
0.0254639
0.0253244
0.0251978
0.0250832
0.0249798
0.0248873
0.0248051
0.0247331
0.0246712
0.0246194
0.0245781
0.0245475
0.0245284
0.0245216
0.0245282
0.0245497
0.0245882
0.0246456
0.024726
0.0248312
0.02497
0.0251414
0.0253657
0.0256326
0.0259856
0.0263991
0.0269348
0.027579
0.0281595
0.0839353
0.0516916
0.0362045
0.0345778
0.0340266
0.0325137
0.0311725
0.0302613
0.0295699
0.0289782
0.0284613
0.0280109
0.0276162
0.0272672
0.0269562
0.0266773
0.0264262
0.0261993
0.0259937
0.0258069
0.0256371
0.0254827
0.0253422
0.0252148
0.0250994
0.0249954
0.0249022
0.0248195
0.024747
0.0246847
0.0246325
0.0245908
0.0245599
0.0245404
0.0245333
0.0245395
0.0245605
0.0245984
0.0246549
0.0247341
0.0248375
0.0249736
0.0251416
0.0253595
0.0256194
0.0259563
0.0263532
0.0268453
0.0274224
0.0278761
0.0815104
0.0520496
0.0367821
0.0347656
0.0341673
0.0326525
0.0312741
0.0303359
0.0296325
0.029033
0.0285093
0.0280532
0.0276541
0.0273015
0.0269875
0.0267061
0.0264529
0.0262241
0.0260169
0.0258288
0.0256577
0.0255022
0.0253608
0.0252325
0.0251163
0.0250117
0.0249179
0.0248347
0.0247617
0.024699
0.0246464
0.0246044
0.0245732
0.0245534
0.0245458
0.0245517
0.0245722
0.0246093
0.0246649
0.0247427
0.0248443
0.0249774
0.0251417
0.0253526
0.0256046
0.0259244
0.0263014
0.0267487
0.027252
0.0275863
0.0791598
0.0523236
0.0373435
0.0349481
0.0342986
0.0327896
0.0313775
0.0304114
0.0296955
0.0290884
0.0285579
0.0280961
0.0276925
0.0273363
0.0270193
0.0267355
0.0264801
0.0262495
0.0260407
0.0258512
0.0256789
0.0255223
0.0253799
0.0252508
0.0251339
0.0250285
0.0249342
0.0248504
0.024777
0.0247139
0.024661
0.0246186
0.024587
0.0245669
0.024559
0.0245644
0.0245844
0.0246209
0.0246754
0.0247518
0.0248514
0.0249812
0.0251413
0.0253447
0.0255879
0.0258898
0.026244
0.026646
0.0270725
0.0272957
0.0768857
0.0525151
0.0378855
0.0351267
0.0344203
0.032924
0.0314823
0.0304877
0.0297588
0.0291443
0.0286071
0.0281396
0.0277314
0.0273716
0.0270517
0.0267653
0.0265078
0.0262754
0.0260649
0.025874
0.0257005
0.0255428
0.0253995
0.0252695
0.0251519
0.0250459
0.0249509
0.0248667
0.0247928
0.0247292
0.024676
0.0246332
0.0246014
0.0245809
0.0245727
0.0245776
0.024597
0.0246327
0.0246862
0.0247609
0.0248583
0.0249847
0.0251403
0.0253358
0.0255691
0.0258527
0.0261816
0.0265383
0.026888
0.0270094
0.0746897
0.0526262
0.038405
0.0353029
0.0345324
0.0330548
0.0315885
0.030565
0.0298223
0.0292005
0.0286568
0.0281836
0.0277709
0.0274075
0.0270845
0.0267956
0.026536
0.0263017
0.0260896
0.0258973
0.0257225
0.0255637
0.0254195
0.0252886
0.0251702
0.0250635
0.024968
0.0248832
0.0248089
0.0247449
0.0246913
0.0246482
0.024616
0.0245952
0.0245865
0.024591
0.0246097
0.0246446
0.0246969
0.0247699
0.024865
0.0249876
0.0251383
0.0253256
0.0255482
0.0258131
0.0261149
0.0264267
0.0267021
0.0267316
0.072573
0.0526593
0.038899
0.0354778
0.0346349
0.0331808
0.0316955
0.0306431
0.029886
0.029257
0.0287071
0.0282281
0.0278108
0.0274437
0.0271178
0.0268264
0.0265645
0.0263284
0.0261147
0.0259209
0.0257449
0.025585
0.0254398
0.025308
0.0251889
0.0250815
0.0249854
0.0249001
0.0248253
0.0247609
0.0247068
0.0246634
0.0246308
0.0246096
0.0246005
0.0246045
0.0246225
0.0246564
0.0247075
0.0247786
0.0248711
0.0249898
0.0251354
0.025314
0.0255252
0.025771
0.0260447
0.0263126
0.0265177
0.0264654
0.0705365
0.0526175
0.0393646
0.0356524
0.0347281
0.0333013
0.0318029
0.0307222
0.0299498
0.0293137
0.0287578
0.0282732
0.0278512
0.0274805
0.0271515
0.0268576
0.0265935
0.0263554
0.0261401
0.0259449
0.0257676
0.0256066
0.0254604
0.0253278
0.0252078
0.0250998
0.025003
0.0249172
0.0248419
0.024777
0.0247226
0.0246787
0.0246458
0.0246242
0.0246146
0.024618
0.0246353
0.0246681
0.0247178
0.0247869
0.0248767
0.0249912
0.0251312
0.0253011
0.0255001
0.0257267
0.0259717
0.0261968
0.0263369
0.0262131
0.0685806
0.0525042
0.0397991
0.0358271
0.0348125
0.0334151
0.0319102
0.0308021
0.0300137
0.0293704
0.0288088
0.0283187
0.0278921
0.0275177
0.0271857
0.0268891
0.0266229
0.0263829
0.0261659
0.0259692
0.0257907
0.0256285
0.0254813
0.0253478
0.0252271
0.0251183
0.0250209
0.0249345
0.0248587
0.0247934
0.0247385
0.0246943
0.0246609
0.0246388
0.0246287
0.0246314
0.0246479
0.0246796
0.0247278
0.0247947
0.0248817
0.0249918
0.0251259
0.0252866
0.025473
0.0256803
0.0258965
0.0260806
0.0261615
0.0259763
0.0667052
0.0523233
0.0401997
0.0360022
0.0348887
0.0335215
0.0320168
0.0308828
0.0300776
0.0294272
0.0288601
0.0283646
0.0279334
0.0275553
0.0272202
0.0269211
0.0266527
0.0264108
0.0261921
0.0259939
0.0258141
0.0256508
0.0255025
0.0253681
0.0252466
0.0251371
0.0250391
0.0249521
0.0248757
0.0248099
0.0247546
0.0247099
0.024676
0.0246535
0.0246428
0.0246448
0.0246604
0.0246909
0.0247375
0.0248021
0.0248859
0.0249914
0.0251193
0.0252708
0.025444
0.025632
0.0258197
0.0259648
0.0259927
0.0257559
0.0649098
0.0520792
0.040564
0.0361775
0.0349573
0.0336198
0.0321219
0.0309642
0.0301415
0.0294838
0.0289116
0.0284109
0.027975
0.0275932
0.0272552
0.0269535
0.0266828
0.026439
0.0262186
0.026019
0.0258378
0.0256734
0.0255241
0.0253888
0.0252664
0.0251562
0.0250575
0.0249699
0.024893
0.0248267
0.0247708
0.0247256
0.0246913
0.0246682
0.0246569
0.0246581
0.0246727
0.0247019
0.0247467
0.0248088
0.0248894
0.0249901
0.0251114
0.0252534
0.0254133
0.0255821
0.0257421
0.0258503
0.0258315
0.0255526
0.0631937
0.0517766
0.0408897
0.0363525
0.0350193
0.0337095
0.0322248
0.0310462
0.0302055
0.0295401
0.0289632
0.0284575
0.0280171
0.0276315
0.0272905
0.0269863
0.0267134
0.0264676
0.0262455
0.0260444
0.0258619
0.0256963
0.0255459
0.0254097
0.0252865
0.0251755
0.0250761
0.0249879
0.0249104
0.0248436
0.0247872
0.0247415
0.0247066
0.0246829
0.0246709
0.0246713
0.0246848
0.0247126
0.0247555
0.0248151
0.0248921
0.0249879
0.0251024
0.0252347
0.025381
0.0255308
0.0256641
0.0257381
0.0256785
0.0253664
0.0615556
0.0514205
0.0411749
0.0365263
0.0350755
0.0337902
0.0323247
0.0311284
0.0302694
0.0295961
0.0290147
0.0285043
0.0280594
0.0276702
0.0273261
0.0270193
0.0267442
0.0264965
0.0262727
0.0260701
0.0258863
0.0257195
0.0255681
0.0254309
0.0253068
0.025195
0.025095
0.0250061
0.024928
0.0248606
0.0248037
0.0247575
0.024722
0.0246976
0.0246849
0.0246843
0.0246967
0.0247229
0.0247639
0.0248207
0.024894
0.0249846
0.0250922
0.0252147
0.0253473
0.0254785
0.0255863
0.0256289
0.0255345
0.0251974
0.0599939
0.0510163
0.0414178
0.0366977
0.0351269
0.0338617
0.0324207
0.0312106
0.0303334
0.0296517
0.0290661
0.0285513
0.028102
0.0277091
0.0273621
0.0270528
0.0267754
0.0265258
0.0263003
0.0260961
0.025911
0.025743
0.0255905
0.0254523
0.0253274
0.0252148
0.025114
0.0250245
0.0249458
0.0248778
0.0248203
0.0247735
0.0247374
0.0247123
0.0246987
0.0246972
0.0247083
0.0247329
0.0247717
0.0248256
0.0248951
0.0249805
0.0250808
0.0251934
0.0253125
0.0254255
0.0255093
0.0255233
0.0253997
0.0250453
0.0585068
0.0505694
0.0416173
0.0368648
0.0351745
0.033924
0.0325119
0.0312924
0.0303972
0.0297068
0.0291172
0.0285984
0.0281449
0.0277483
0.0273983
0.0270865
0.0268069
0.0265553
0.0263281
0.0261225
0.025936
0.0257668
0.0256132
0.0254741
0.0253482
0.0252349
0.0251333
0.0250431
0.0249638
0.0248951
0.024837
0.0247896
0.0247528
0.024727
0.0247125
0.0247099
0.0247197
0.0247425
0.0247791
0.02483
0.0248955
0.0249753
0.0250683
0.025171
0.0252767
0.0253721
0.0254336
0.0254221
0.0252746
0.0249097
0.0570919
0.0500854
0.0417725
0.0370259
0.0352191
0.0339773
0.0325974
0.0313733
0.030461
0.0297613
0.0291679
0.0286455
0.0281879
0.0277877
0.0274347
0.0271204
0.0268387
0.0265852
0.0263563
0.0261491
0.0259613
0.0257909
0.0256362
0.025496
0.0253693
0.0252551
0.0251528
0.0250619
0.0249819
0.0249126
0.0248539
0.0248057
0.0247682
0.0247416
0.0247262
0.0247224
0.0247307
0.0247518
0.0247859
0.0248337
0.024895
0.0249693
0.0250548
0.0251476
0.0252401
0.0253188
0.0253597
0.0253257
0.0251594
0.0247902
0.055747
0.0495699
0.041883
0.0371785
0.0352615
0.034022
0.0326766
0.0314527
0.0305246
0.0298153
0.0292181
0.0286924
0.0282309
0.0278272
0.0274713
0.0271546
0.0268708
0.0266153
0.0263847
0.026176
0.0259868
0.0258152
0.0256594
0.0255183
0.0253906
0.0252756
0.0251725
0.0250808
0.0250001
0.0249301
0.0248707
0.0248219
0.0247836
0.0247561
0.0247397
0.0247347
0.0247415
0.0247606
0.0247922
0.0248367
0.0248937
0.0249623
0.0250403
0.0251233
0.0252031
0.0252658
0.0252879
0.0252346
0.025054
0.024686
0.0544693
0.0490286
0.0419489
0.0373202
0.0353024
0.0340586
0.0327488
0.0315301
0.0305879
0.0298685
0.0292675
0.028739
0.028274
0.0278668
0.0275081
0.027189
0.026903
0.0266457
0.0264134
0.0262032
0.0260126
0.0258398
0.0256829
0.0255407
0.0254121
0.0252962
0.0251924
0.0250999
0.0250185
0.0249478
0.0248877
0.024838
0.0247989
0.0247705
0.024753
0.0247467
0.0247519
0.024769
0.024798
0.024839
0.0248916
0.0249545
0.025025
0.0250982
0.0251657
0.0252135
0.0252187
0.0251491
0.0249586
0.0245965
0.0532561
0.0484667
0.0419708
0.0374486
0.035342
0.0340878
0.0328134
0.0316048
0.0306507
0.0299211
0.0293162
0.0287852
0.0283171
0.0279065
0.027545
0.0272235
0.0269354
0.0266763
0.0264423
0.0262306
0.0260387
0.0258646
0.0257066
0.0255634
0.0254338
0.0253171
0.0252124
0.0251191
0.025037
0.0249655
0.0249046
0.0248542
0.0248142
0.0247848
0.0247662
0.0247585
0.024762
0.0247769
0.0248032
0.0248407
0.0248888
0.0249458
0.0250088
0.0250726
0.0251284
0.0251622
0.0251525
0.0250695
0.0248729
0.0245207
0.0521042
0.0478894
0.0419499
0.0375611
0.0353805
0.0341103
0.03287
0.0316759
0.0307126
0.029973
0.029364
0.0288309
0.0283599
0.0279462
0.0275819
0.027258
0.026968
0.026707
0.0264714
0.0262582
0.0260649
0.0258896
0.0257304
0.0255862
0.0254557
0.0253381
0.0252325
0.0251385
0.0250555
0.0249833
0.0249216
0.0248703
0.0248294
0.024799
0.0247791
0.02477
0.0247717
0.0247843
0.0248078
0.0248417
0.0248852
0.0249364
0.024992
0.0250465
0.0250912
0.0251123
0.0250895
0.0249959
0.0247967
0.0244578
0.0510108
0.0473013
0.0418879
0.0376556
0.0354175
0.0341269
0.0329184
0.031743
0.0307735
0.030024
0.0294109
0.0288759
0.0284024
0.0279858
0.0276187
0.0272927
0.0270007
0.0267379
0.0265006
0.0262859
0.0260913
0.0259147
0.0257545
0.0256092
0.0254778
0.0253592
0.0252528
0.0251579
0.0250742
0.0250011
0.0249386
0.0248864
0.0248446
0.024813
0.0247918
0.0247811
0.0247809
0.0247912
0.0248118
0.024842
0.0248809
0.0249262
0.0249745
0.0250202
0.0250544
0.0250639
0.02503
0.0249284
0.0247297
0.0244069
0.0499728
0.0467067
0.0417867
0.0377303
0.0354522
0.0341382
0.0329586
0.0318051
0.0308328
0.0300742
0.0294566
0.02892
0.0284445
0.0280252
0.0276555
0.0273273
0.0270334
0.0267688
0.02653
0.0263138
0.0261179
0.0259401
0.0257787
0.0256324
0.0254999
0.0253805
0.0252732
0.0251775
0.0250929
0.025019
0.0249556
0.0249024
0.0248595
0.0248268
0.0248043
0.024792
0.0247898
0.0247977
0.0248152
0.0248417
0.0248758
0.0249154
0.0249566
0.0249938
0.0250182
0.0250174
0.0249741
0.024867
0.0246715
0.0243668
0.048987
0.0461094
0.041649
0.0377837
0.0354838
0.0341448
0.0329906
0.0318617
0.0308902
0.0301233
0.0295012
0.0289632
0.0284861
0.0280643
0.0276922
0.0273618
0.0270661
0.0267998
0.0265594
0.0263418
0.0261446
0.0259656
0.0258031
0.0256557
0.0255222
0.0254018
0.0252936
0.025197
0.0251116
0.0250368
0.0249725
0.0249184
0.0248744
0.0248404
0.0248164
0.0248024
0.0247982
0.0248036
0.024818
0.0248407
0.0248702
0.024904
0.0249383
0.0249674
0.0249828
0.0249729
0.024922
0.0248116
0.0246215
0.0243365
0.0480505
0.0455128
0.0414776
0.0378144
0.035511
0.0341474
0.0330149
0.0319123
0.030945
0.0301713
0.0295446
0.0290052
0.0285269
0.028103
0.0277286
0.0273962
0.0270987
0.0268308
0.0265889
0.0263699
0.0261713
0.0259911
0.0258275
0.025679
0.0255446
0.0254233
0.0253141
0.0252167
0.0251303
0.0250546
0.0249893
0.0249341
0.024889
0.0248538
0.0248283
0.0248125
0.0248061
0.0248089
0.0248203
0.0248391
0.0248639
0.024892
0.0249197
0.0249412
0.0249485
0.0249306
0.0248737
0.024762
0.0245793
0.0243151
0.0471602
0.0449198
0.0412757
0.0378216
0.0355324
0.0341463
0.0330316
0.0319563
0.0309967
0.0302179
0.0295866
0.029046
0.0285668
0.0281413
0.0277647
0.0274303
0.0271311
0.0268618
0.0266184
0.026398
0.0261982
0.0260167
0.025852
0.0257025
0.0255671
0.0254447
0.0253347
0.0252363
0.0251489
0.0250723
0.025006
0.0249498
0.0249035
0.0248668
0.0248398
0.0248222
0.0248136
0.0248138
0.0248219
0.0248369
0.024857
0.0248797
0.0249009
0.0249153
0.0249152
0.0248906
0.0248293
0.024718
0.0245442
0.0243013
0.0463134
0.0443329
0.0410465
0.037805
0.0355465
0.0341417
0.0330414
0.0319934
0.0310448
0.0302629
0.0296273
0.0290854
0.0286057
0.0281789
0.0278004
0.0274642
0.0271634
0.0268925
0.0266478
0.0264261
0.026225
0.0260424
0.0258765
0.0257259
0.0255895
0.0254662
0.0253552
0.0252558
0.0251676
0.0250899
0.0250226
0.0249652
0.0249176
0.0248796
0.024851
0.0248314
0.0248206
0.024818
0.0248229
0.024834
0.0248496
0.0248669
0.0248821
0.0248899
0.0248832
0.024853
0.0247887
0.0246793
0.0245156
0.0242941
0.0455071
0.043754
0.0407933
0.0377644
0.0355518
0.0341334
0.0330446
0.0320235
0.0310887
0.0303058
0.0296665
0.0291233
0.0286435
0.0282157
0.0278356
0.0274977
0.0271954
0.0269231
0.026677
0.026454
0.0262517
0.026068
0.025901
0.0257494
0.025612
0.0254877
0.0253757
0.0252753
0.0251861
0.0251074
0.025039
0.0249805
0.0249316
0.0248921
0.0248617
0.0248402
0.024827
0.0248217
0.0248234
0.0248306
0.0248417
0.0248538
0.0248633
0.0248651
0.0248526
0.0248178
0.0247517
0.0246455
0.0244927
0.0242925
0.0447389
0.0431847
0.0405194
0.0377002
0.0355468
0.0341214
0.0330417
0.0320465
0.0311278
0.0303465
0.029704
0.0291597
0.0286799
0.0282516
0.0278702
0.0275308
0.027227
0.0269535
0.0267061
0.0264819
0.0262784
0.0260935
0.0259254
0.0257728
0.0256343
0.025509
0.0253961
0.0252948
0.0252045
0.0251248
0.0250552
0.0249954
0.0249452
0.0249042
0.024872
0.0248485
0.024833
0.0248249
0.0248232
0.0248267
0.0248333
0.0248405
0.0248446
0.0248409
0.0248234
0.024785
0.0247183
0.0246163
0.0244749
0.0242954
0.0440062
0.0426264
0.0402281
0.0376132
0.0355304
0.0341051
0.0330332
0.0320623
0.0311618
0.0303843
0.0297398
0.0291943
0.0287148
0.0282864
0.0279041
0.0275632
0.0272582
0.0269834
0.0267349
0.0265095
0.0263049
0.0261189
0.0259498
0.0257961
0.0256566
0.0255303
0.0254164
0.025314
0.0252227
0.0251419
0.0250712
0.0250101
0.0249585
0.0249159
0.0248819
0.0248563
0.0248383
0.0248274
0.0248225
0.0248222
0.0248246
0.024827
0.0248261
0.0248175
0.0247956
0.0247546
0.0246882
0.0245912
0.0244614
0.0243019
0.0433067
0.04208
0.0399223
0.0375042
0.0355014
0.0340841
0.0330193
0.0320712
0.0311901
0.0304189
0.0297735
0.0292272
0.0287482
0.02832
0.027937
0.0275951
0.0272888
0.027013
0.0267633
0.0265369
0.0263311
0.0261441
0.0259739
0.0258192
0.0256788
0.0255515
0.0254365
0.0253331
0.0252407
0.0251588
0.0250868
0.0250245
0.0249714
0.0249271
0.0248913
0.0248635
0.0248432
0.0248294
0.0248212
0.0248172
0.0248155
0.0248134
0.0248079
0.0247948
0.0247694
0.0247264
0.0246611
0.0245697
0.0244515
0.0243108
0.0426383
0.0415461
0.0396048
0.0373747
0.035459
0.0340574
0.0330004
0.0320734
0.0312126
0.0304499
0.029805
0.0292582
0.0287797
0.0283522
0.0279689
0.0276261
0.0273188
0.027042
0.0267914
0.0265639
0.0263571
0.026169
0.0259979
0.0258422
0.0257007
0.0255724
0.0254564
0.025352
0.0252585
0.0251754
0.0251022
0.0250385
0.0249839
0.0249379
0.0249002
0.0248703
0.0248474
0.0248308
0.0248194
0.0248118
0.024806
0.0247998
0.0247899
0.0247729
0.0247445
0.0247004
0.0246368
0.0245513
0.0244445
0.0243215
0.0419989
0.0410252
0.0392782
0.0372261
0.0354028
0.0340246
0.0329764
0.032069
0.0312289
0.0304767
0.0298339
0.0292871
0.0288094
0.0283828
0.0279996
0.0276562
0.0273481
0.0270704
0.0268189
0.0265905
0.0263828
0.0261937
0.0260216
0.0258649
0.0257224
0.0255931
0.0254761
0.0253706
0.025276
0.0251917
0.0251172
0.0250521
0.0249959
0.0249483
0.0249086
0.0248764
0.024851
0.0248316
0.024817
0.0248058
0.0247963
0.024786
0.0247723
0.0247518
0.024721
0.0246763
0.0246149
0.0245355
0.0244397
0.0243329
0.0413867
0.0405175
0.0389448
0.0370601
0.0353325
0.0339846
0.0329474
0.0320583
0.031239
0.0304992
0.0298599
0.0293138
0.0288371
0.0284117
0.028029
0.0276853
0.0273765
0.0270981
0.0268458
0.0266166
0.026408
0.026218
0.0260449
0.0258872
0.0257438
0.0256135
0.0254954
0.0253888
0.0252931
0.0252076
0.0251318
0.0250652
0.0250075
0.024958
0.0249164
0.024882
0.0248541
0.0248318
0.0248141
0.0247995
0.0247863
0.0247723
0.024755
0.0247315
0.0246988
0.024654
0.0245952
0.0245219
0.0244364
0.0243444
0.0407998
0.040023
0.0386065
0.0368783
0.0352481
0.0339369
0.0329132
0.0320417
0.0312428
0.0305168
0.0298828
0.0293381
0.0288627
0.0284387
0.0280569
0.0277133
0.027404
0.0271249
0.026872
0.0266421
0.0264326
0.0262418
0.0260678
0.0259092
0.0257648
0.0256335
0.0255144
0.0254067
0.0253098
0.025223
0.0251459
0.0250779
0.0250185
0.0249673
0.0249236
0.0248869
0.0248565
0.0248314
0.0248106
0.0247927
0.024776
0.0247585
0.024738
0.024712
0.0246778
0.0246333
0.0245773
0.0245099
0.024434
0.0243553
0.0402368
0.0395416
0.0382653
0.0366825
0.0351498
0.0338808
0.0328736
0.0320191
0.0312404
0.0305292
0.0299021
0.0293598
0.028886
0.0284637
0.0280831
0.0277399
0.0274304
0.0271509
0.0268974
0.0266669
0.0264567
0.0262651
0.0260902
0.0259307
0.0257854
0.0256531
0.0255329
0.0254241
0.0253261
0.025238
0.0251595
0.02509
0.025029
0.0249759
0.0249302
0.0248912
0.0248583
0.0248304
0.0248066
0.0247855
0.0247655
0.0247448
0.0247214
0.0246931
0.0246578
0.0246139
0.0245607
0.0244991
0.0244319
0.0243649
0.0396961
0.0390733
0.0379226
0.0364745
0.0350381
0.0338158
0.0328283
0.0319909
0.0312318
0.0305364
0.0299176
0.0293787
0.0289069
0.0284866
0.0281075
0.027765
0.0274556
0.0271758
0.026922
0.0266909
0.0264801
0.0262877
0.026112
0.0259517
0.0258054
0.0256721
0.025551
0.0254411
0.0253418
0.0252525
0.0251726
0.0251015
0.0250388
0.0249839
0.0249361
0.0248948
0.0248594
0.0248288
0.024802
0.0247778
0.0247547
0.024731
0.024705
0.0246747
0.0246387
0.0245956
0.0245453
0.0244889
0.0244296
0.0243727
0.0391763
0.0386178
0.0375796
0.0362559
0.0349136
0.0337415
0.0327769
0.0319571
0.0312171
0.030538
0.0299289
0.0293945
0.0289253
0.0285072
0.0281299
0.0277885
0.0274794
0.0271996
0.0269455
0.026714
0.0265027
0.0263096
0.0261332
0.0259721
0.0258249
0.0256907
0.0255684
0.0254574
0.025357
0.0252664
0.025185
0.0251124
0.025048
0.0249911
0.0249413
0.0248978
0.0248598
0.0248265
0.0247969
0.0247697
0.0247437
0.0247172
0.0246888
0.0246569
0.0246202
0.024578
0.0245305
0.0244789
0.0244265
0.0243782
0.0386762
0.0381748
0.0372376
0.0360283
0.0347771
0.0336578
0.0327192
0.0319176
0.0311964
0.030534
0.0299358
0.0294069
0.0289409
0.0285253
0.0281502
0.0278101
0.0275018
0.0272221
0.0269679
0.0267361
0.0265244
0.0263308
0.0261537
0.0259917
0.0258437
0.0257085
0.0255853
0.0254732
0.0253715
0.0252796
0.0251968
0.0251226
0.0250564
0.0249977
0.0249458
0.0249
0.0248595
0.0248236
0.0247912
0.0247612
0.0247324
0.0247034
0.0246728
0.0246394
0.0246023
0.0245611
0.024516
0.0244687
0.0244223
0.0243812
0.0381946
0.0377441
0.0368975
0.0357931
0.0346294
0.0335647
0.0326548
0.0318724
0.0311699
0.0305244
0.029938
0.0294157
0.0289535
0.0285409
0.0281682
0.0278299
0.0275225
0.0272432
0.026989
0.0267571
0.0265451
0.026351
0.0261733
0.0260106
0.0258618
0.0257257
0.0256014
0.0254882
0.0253853
0.0252921
0.0252078
0.0251321
0.0250641
0.0250035
0.0249494
0.0249014
0.0248585
0.02482
0.0247849
0.0247522
0.0247207
0.0246893
0.0246568
0.0246222
0.0245848
0.0245444
0.0245016
0.024458
0.0244166
0.0243812
0.0377305
0.0373252
0.03656
0.0355518
0.0344715
0.0334621
0.0325835
0.0318215
0.0311375
0.030509
0.0299353
0.0294207
0.0289631
0.0285537
0.0281838
0.0278475
0.0275413
0.0272627
0.0270088
0.0267769
0.0265646
0.0263702
0.026192
0.0260286
0.025879
0.025742
0.0256168
0.0255025
0.0253983
0.0253038
0.0252181
0.0251407
0.025071
0.0250084
0.0249523
0.024902
0.0248567
0.0248157
0.024778
0.0247427
0.0247088
0.0246751
0.0246408
0.024605
0.0245673
0.0245277
0.0244869
0.0244464
0.024409
0.0243782
0.0372827
0.0369178
0.0362257
0.0353056
0.0343044
0.0333504
0.0325051
0.0317648
0.0310994
0.030488
0.0299275
0.0294216
0.0289693
0.0285637
0.0281968
0.0278628
0.0275582
0.0272805
0.027027
0.0267953
0.026583
0.0263883
0.0262096
0.0260457
0.0258953
0.0257575
0.0256312
0.0255158
0.0254105
0.0253146
0.0252274
0.0251484
0.025077
0.0250125
0.0249543
0.0249018
0.0248541
0.0248107
0.0247705
0.0247327
0.0246963
0.0246606
0.0246246
0.0245878
0.0245498
0.0245108
0.0244716
0.0244337
0.0243994
0.0243718
0.0368505
0.0365216
0.0358952
0.0350556
0.034129
0.03323
0.0324195
0.0317022
0.0310557
0.0304613
0.0299146
0.0294182
0.0289719
0.0285706
0.0282071
0.0278757
0.027573
0.0272964
0.0270436
0.0268122
0.0266
0.0264051
0.0262261
0.0260616
0.0259106
0.0257719
0.0256448
0.0255283
0.0254218
0.0253245
0.0252359
0.0251553
0.0250821
0.0250157
0.0249554
0.0249007
0.0248507
0.0248048
0.0247622
0.024722
0.0246835
0.0246457
0.0246082
0.0245703
0.024532
0.0244934
0.0244555
0.0244194
0.0243875
0.0243621
0.0364329
0.0361363
0.035569
0.0348027
0.0339462
0.0331012
0.0323266
0.0316335
0.0310063
0.030429
0.0298964
0.0294103
0.0289709
0.0285743
0.0282144
0.027886
0.0275855
0.0273104
0.0270585
0.0268275
0.0266155
0.0264206
0.0262413
0.0260764
0.0259247
0.0257853
0.0256572
0.0255397
0.025432
0.0253334
0.0252433
0.0251611
0.0250861
0.0250178
0.0249555
0.0248986
0.0248464
0.0247982
0.0247532
0.0247107
0.02467
0.0246304
0.0245914
0.0245525
0.0245137
0.0244754
0.0244383
0.0244036
0.0243731
0.024349
0.0360292
0.0357613
0.0352472
0.034548
0.033757
0.0329646
0.0322267
0.0315587
0.0309512
0.0303911
0.029873
0.0293977
0.0289658
0.0285746
0.0282188
0.0278936
0.0275956
0.0273222
0.0270714
0.0268411
0.0266294
0.0264346
0.0262551
0.0260898
0.0259376
0.0257975
0.0256685
0.02555
0.0254411
0.0253412
0.0252497
0.0251658
0.0250891
0.0250189
0.0249546
0.0248956
0.0248412
0.0247907
0.0247434
0.0246987
0.024656
0.0246145
0.024574
0.0245341
0.0244948
0.0244565
0.0244198
0.0243859
0.0243562
0.0243325
0.0356386
0.0353964
0.0349303
0.0342921
0.0335624
0.0328207
0.0321197
0.0314777
0.0308905
0.0303477
0.0298443
0.0293804
0.0289567
0.0285713
0.02822
0.0278984
0.027603
0.0273316
0.0270822
0.0268528
0.0266416
0.0264469
0.0262674
0.0261019
0.0259492
0.0258084
0.0256786
0.0255591
0.025449
0.0253478
0.0252549
0.0251694
0.025091
0.0250189
0.0249527
0.0248915
0.0248349
0.0247822
0.0247327
0.0246859
0.0246412
0.024598
0.024556
0.024515
0.0244751
0.0244365
0.0243999
0.0243662
0.0243367
0.0243127
0.0352603
0.0350413
0.0346184
0.0340358
0.0333631
0.0326702
0.032006
0.0313907
0.0308241
0.0302988
0.0298102
0.0293582
0.0289433
0.0285643
0.0282178
0.0279001
0.0276078
0.0273386
0.0270908
0.0268624
0.0266519
0.0264576
0.0262782
0.0261124
0.0259593
0.0258179
0.0256873
0.0255668
0.0254557
0.0253532
0.0252588
0.0251718
0.0250917
0.0250178
0.0249495
0.0248863
0.0248276
0.0247727
0.0247211
0.0246723
0.0246256
0.0245807
0.0245372
0.0244951
0.0244543
0.0244153
0.0243784
0.0243445
0.0243146
0.0242897
0.0348938
0.0346956
0.0343116
0.0337797
0.0331599
0.0325136
0.0318858
0.0312977
0.0307521
0.0302444
0.0297709
0.029331
0.0289255
0.0285534
0.0282122
0.0278986
0.0276096
0.027343
0.027097
0.0268699
0.0266602
0.0264664
0.0262871
0.0261213
0.0259678
0.0258259
0.0256946
0.0255732
0.025461
0.0253573
0.0252614
0.0251729
0.0250911
0.0250154
0.0249452
0.02488
0.0248192
0.0247622
0.0247086
0.0246577
0.0246091
0.0245625
0.0245175
0.0244742
0.0244325
0.0243927
0.0243552
0.0243207
0.0242899
0.0242636
0.0345385
0.0343589
0.03401
0.0335244
0.0329536
0.0323516
0.0317596
0.0311988
0.0306746
0.0301847
0.0297263
0.0292989
0.0289031
0.0285385
0.028203
0.0278939
0.0276085
0.0273446
0.0271007
0.0268751
0.0266664
0.0264732
0.0262942
0.0261283
0.0259747
0.0258322
0.0257003
0.025578
0.0254647
0.0253598
0.0252627
0.0251726
0.0250892
0.0250117
0.0249396
0.0248724
0.0248096
0.0247506
0.0246949
0.024642
0.0245916
0.0245432
0.0244968
0.0244522
0.0244093
0.0243686
0.0243302
0.0242947
0.0242627
0.0242345
0.0341938
0.0340309
0.0337138
0.0332702
0.0327447
0.0321848
0.0316275
0.0310941
0.0305915
0.0301196
0.0296764
0.0292618
0.0288762
0.0285194
0.02819
0.0278857