/*--------------------------------*- C++ -*----------------------------------*\
  =========                 |
  \\      /  F ield         | OpenFOAM: The Open Source CFD Toolbox
   \\    /   O peration     | Website:  https://openfoam.org
    \\  /    A nd           | Version:  7
     \\/     M anipulation  |
\*---------------------------------------------------------------------------*/
FoamFile
{
    version     2.0;
    format      ascii;
    class       surfaceScalarField;
    location    "0.19";
    object      phi_0;
}
// * * * * * * * * * * * * * * * * * * * * * * * * * * * * * * * * * * * * * //

dimensions      [0 3 -1 0 0 0 0];

internalField   nonuniform List<scalar> 
139350
(
6.45123e-08
9.21192e-08
3.19653e-08
3.2547e-08
2.30604e-08
8.90486e-09
1.9576e-08
3.4844e-09
1.76244e-08
1.95159e-09
1.61945e-08
1.42989e-09
1.50619e-08
1.13263e-09
1.41499e-08
9.12051e-10
1.33997e-08
7.50164e-10
1.27681e-08
6.31629e-10
1.22262e-08
5.41905e-10
1.17546e-08
4.7152e-10
1.13398e-08
4.14866e-10
1.09714e-08
3.68411e-10
1.06416e-08
3.29747e-10
1.03445e-08
2.97151e-10
1.00751e-08
2.69362e-10
9.82968e-09
2.45433e-10
9.60503e-09
2.24649e-10
9.39858e-09
2.06451e-10
9.20817e-09
1.90405e-10
9.03201e-09
1.76163e-10
8.86856e-09
1.63446e-10
8.71653e-09
1.52028e-10
8.57481e-09
1.41722e-10
8.44244e-09
1.32374e-10
8.31858e-09
1.23856e-10
8.20252e-09
1.16063e-10
8.09362e-09
1.08898e-10
7.99133e-09
1.02295e-10
7.89515e-09
9.61737e-11
7.80465e-09
9.05073e-11
7.71944e-09
8.52084e-11
7.63912e-09
8.0314e-11
7.56344e-09
7.56864e-11
7.49195e-09
7.14847e-11
7.4245e-09
6.74471e-11
7.36055e-09
6.39522e-11
7.30002e-09
6.05329e-11
7.24216e-09
5.78606e-11
7.1868e-09
5.53567e-11
7.13314e-09
5.36588e-11
7.07994e-09
5.32035e-11
7.02767e-09
5.22704e-11
6.96991e-09
5.77575e-11
6.9147e-09
5.52088e-11
6.83264e-09
8.20658e-11
6.77899e-09
5.36428e-11
6.47637e-09
3.02627e-10
-2.75299e-09
9.22935e-09
1.25943e-07
1.27619e-07
9.12911e-08
6.71994e-08
7.194e-08
2.8256e-08
6.12263e-08
1.41981e-08
5.47917e-08
8.38614e-09
5.02986e-08
5.92298e-09
4.68161e-08
4.61519e-09
4.40048e-08
3.72331e-09
4.16841e-08
3.07092e-09
3.97283e-08
2.5874e-09
3.80503e-08
2.21993e-09
3.659e-08
1.93183e-09
3.53047e-08
1.70012e-09
3.4163e-08
1.51015e-09
3.31407e-08
1.35201e-09
3.22192e-08
1.21867e-09
3.13836e-08
1.10495e-09
3.0622e-08
1.00702e-09
2.99247e-08
9.21929e-10
2.92838e-08
8.4741e-10
2.86925e-08
7.81683e-10
2.81453e-08
7.23329e-10
2.76376e-08
6.71209e-10
2.71652e-08
6.24395e-10
2.67248e-08
5.82127e-10
2.63134e-08
5.43772e-10
2.59285e-08
5.08804e-10
2.55677e-08
4.76779e-10
2.52293e-08
4.47318e-10
2.49115e-08
4.20116e-10
2.46128e-08
3.94875e-10
2.43319e-08
3.71418e-10
2.40676e-08
3.49461e-10
2.38189e-08
3.29015e-10
2.35849e-08
3.09671e-10
2.33646e-08
2.91816e-10
2.31574e-08
2.74635e-10
2.29621e-08
2.59317e-10
2.27785e-08
2.44089e-10
2.26046e-08
2.31782e-10
2.24412e-08
2.1873e-10
2.22842e-08
2.10708e-10
2.21361e-08
2.01271e-10
2.19885e-08
1.99909e-10
2.18464e-08
1.99845e-10
2.16944e-08
2.07169e-10
2.153e-08
2.4645e-10
2.1374e-08
2.09665e-10
2.098e-08
6.96653e-10
-2.93219e-09
2.11592e-08
1.58753e-07
1.3527e-07
1.36528e-07
8.94235e-08
1.17498e-07
4.72869e-08
1.03324e-07
2.83718e-08
9.3334e-08
1.83759e-08
8.60389e-08
1.32181e-08
8.03374e-08
1.03167e-08
7.56931e-08
8.36761e-09
7.18235e-08
6.94053e-09
6.85408e-08
5.87014e-09
6.57114e-08
5.04929e-09
6.32406e-08
4.40263e-09
6.10598e-08
3.8809e-09
5.91179e-08
3.45206e-09
5.73757e-08
3.09428e-09
5.58023e-08
2.79199e-09
5.43735e-08
2.53378e-09
5.30694e-08
2.31108e-09
5.1874e-08
2.11733e-09
5.0774e-08
1.94747e-09
4.97581e-08
1.7975e-09
4.88172e-08
1.66424e-09
4.79433e-08
1.54513e-09
4.71296e-08
1.43807e-09
4.63704e-08
1.34134e-09
4.56607e-08
1.25352e-09
4.49961e-08
1.17341e-09
4.43728e-08
1.1e-09
4.37877e-08
1.03243e-09
4.32379e-08
9.6999e-10
4.27207e-08
9.12016e-10
4.22341e-08
8.58049e-10
4.1776e-08
8.07508e-10
4.13448e-08
7.60274e-10
4.09389e-08
7.15577e-10
4.05567e-08
6.74004e-10
4.01973e-08
6.33993e-10
3.98588e-08
5.978e-10
3.95413e-08
5.61672e-10
3.92412e-08
5.31821e-10
3.89608e-08
4.99123e-10
3.86927e-08
4.78864e-10
3.8444e-08
4.49903e-10
3.8197e-08
4.46917e-10
3.79712e-08
4.25714e-10
3.77253e-08
4.53043e-10
3.74946e-08
4.77183e-10
3.72359e-08
4.68302e-10
3.68874e-08
1.04513e-09
-2.09887e-09
3.60541e-08
1.75611e-07
1.31175e-07
1.65625e-07
9.94102e-08
1.52739e-07
6.01728e-08
1.40133e-07
4.09771e-08
1.29458e-07
2.9051e-08
1.20826e-07
2.18507e-08
1.13721e-07
1.74212e-08
1.0775e-07
1.43392e-08
1.0266e-07
1.20297e-08
9.82708e-08
1.02598e-08
9.44408e-08
8.87937e-09
9.10645e-08
7.77888e-09
8.80622e-08
6.88323e-09
8.53723e-08
6.14196e-09
8.29466e-08
5.51999e-09
8.07466e-08
4.99199e-09
7.87412e-08
4.53917e-09
7.6905e-08
4.14727e-09
7.5217e-08
3.80533e-09
7.36597e-08
3.50477e-09
7.22184e-08
3.23882e-09
7.08806e-08
3.00203e-09
6.96357e-08
2.79001e-09
6.84746e-08
2.59916e-09
6.73895e-08
2.4265e-09
6.63734e-08
2.26955e-09
6.54206e-08
2.12623e-09
6.45258e-08
1.99478e-09
6.36846e-08
1.87368e-09
6.28929e-08
1.76167e-09
6.21473e-08
1.65761e-09
6.14447e-08
1.56062e-09
6.07825e-08
1.46974e-09
6.01582e-08
1.38463e-09
5.95697e-08
1.30407e-09
5.90149e-08
1.22881e-09
5.84925e-08
1.15639e-09
5.8e-08
1.09026e-09
5.75374e-08
1.02429e-09
5.71005e-08
9.68686e-10
5.6692e-08
9.07647e-10
5.63028e-08
8.6808e-10
5.59422e-08
8.10426e-10
5.55884e-08
8.00765e-10
5.52663e-08
7.47781e-10
5.49263e-08
7.93051e-10
5.46146e-08
7.88859e-10
5.42647e-08
8.18296e-10
5.38988e-08
1.41102e-09
-1.04269e-09
5.28426e-08
1.8451e-07
1.2345e-07
1.82341e-07
1.01579e-07
1.76123e-07
6.63907e-08
1.67769e-07
4.93312e-08
1.59155e-07
3.76655e-08
1.51256e-07
2.97497e-08
1.44192e-07
2.44854e-08
1.37902e-07
2.0629e-08
1.32313e-07
1.7618e-08
1.27342e-07
1.5231e-08
1.22902e-07
1.33194e-08
1.18917e-07
1.17645e-08
1.15321e-07
1.0479e-08
1.12061e-07
9.40175e-09
1.09092e-07
8.48849e-09
1.06378e-07
7.70653e-09
1.03886e-07
7.03103e-09
1.01591e-07
6.44278e-09
9.94691e-08
5.92677e-09
9.75028e-08
5.47112e-09
9.56753e-08
5.06629e-09
9.39728e-08
4.70458e-09
9.23831e-08
4.37968e-09
9.08959e-08
4.08639e-09
8.95019e-08
3.82042e-09
8.81934e-08
3.57812e-09
8.69632e-08
3.35644e-09
8.58052e-08
3.15275e-09
8.4714e-08
2.96484e-09
8.3685e-08
2.79077e-09
8.27137e-08
2.62887e-09
8.17965e-08
2.47778e-09
8.09302e-08
2.33608e-09
8.01117e-08
2.20314e-09
7.93385e-08
2.07726e-09
7.8608e-08
1.95925e-09
7.79186e-08
1.8458e-09
7.72675e-08
1.74138e-09
7.66542e-08
1.6376e-09
7.60744e-08
1.54844e-09
7.55305e-08
1.45161e-09
7.50133e-08
1.38526e-09
7.45316e-08
1.29216e-09
7.40644e-08
1.26789e-09
7.36336e-08
1.17863e-09
7.31967e-08
1.22994e-09
7.27857e-08
1.19987e-09
7.23532e-08
1.25075e-09
7.19015e-08
1.8627e-09
3.77869e-11
7.08211e-08
1.90342e-07
1.15324e-07
1.91859e-07
1.00062e-07
1.90264e-07
6.7986e-08
1.86161e-07
5.34337e-08
1.80727e-07
4.31002e-08
1.74981e-07
3.54957e-08
1.69291e-07
3.01746e-08
1.63816e-07
2.6104e-08
1.58653e-07
2.27816e-08
1.53843e-07
2.00413e-08
1.49388e-07
1.77738e-08
1.45273e-07
1.58796e-08
1.41473e-07
1.42791e-08
1.37962e-07
1.29132e-08
1.34713e-07
1.17375e-08
1.31701e-07
1.07178e-08
1.28905e-07
9.82725e-09
1.26303e-07
9.04434e-09
1.23878e-07
8.35194e-09
1.21613e-07
7.73614e-09
1.19494e-07
7.18556e-09
1.17508e-07
6.69088e-09
1.15643e-07
6.24434e-09
1.1389e-07
5.83948e-09
1.12239e-07
5.47086e-09
1.10684e-07
5.13387e-09
1.09216e-07
4.82459e-09
1.07829e-07
4.5396e-09
1.06518e-07
4.27603e-09
1.05277e-07
4.03132e-09
1.04103e-07
3.80328e-09
1.0299e-07
3.59004e-09
1.01937e-07
3.38977e-09
1.00938e-07
3.2015e-09
9.99925e-08
3.02307e-09
9.90964e-08
2.85528e-09
9.82482e-08
2.69406e-09
9.74449e-08
2.54468e-09
9.66856e-08
2.39685e-09
9.59665e-08
2.26761e-09
9.52886e-08
2.12944e-09
9.46445e-08
2.02936e-09
9.40399e-08
1.89682e-09
9.3459e-08
1.84875e-09
9.29139e-08
1.72373e-09
9.23794e-08
1.76448e-09
9.18599e-08
1.71933e-09
9.13435e-08
1.76715e-09
9.07922e-08
2.41404e-09
1.14418e-09
8.96858e-08
1.95504e-07
1.07635e-07
1.98247e-07
9.7319e-08
1.98986e-07
6.72467e-08
1.97794e-07
5.46262e-08
1.95163e-07
4.57315e-08
1.91827e-07
3.88311e-08
1.88101e-07
3.39008e-08
1.84157e-07
3.00478e-08
1.80146e-07
2.67925e-08
1.76179e-07
2.40088e-08
1.72322e-07
2.16302e-08
1.68616e-07
1.95862e-08
1.65079e-07
1.78158e-08
1.6172e-07
1.62719e-08
1.5854e-07
1.49177e-08
1.55534e-07
1.37238e-08
1.52695e-07
1.2666e-08
1.50015e-07
1.17244e-08
1.47485e-07
1.08825e-08
1.45095e-07
1.01263e-08
1.42836e-07
9.44438e-09
1.407e-07
8.82693e-09
1.38678e-07
8.2657e-09
1.36764e-07
7.75367e-09
1.3495e-07
7.28485e-09
1.3323e-07
6.85406e-09
1.31598e-07
6.45688e-09
1.30048e-07
6.08939e-09
1.28576e-07
5.74823e-09
1.27177e-07
5.43041e-09
1.25847e-07
5.13334e-09
1.24582e-07
4.85477e-09
1.23379e-07
4.59252e-09
1.22235e-07
4.34533e-09
1.21148e-07
4.11069e-09
1.20114e-07
3.88933e-09
1.19131e-07
3.67661e-09
1.18198e-07
3.4783e-09
1.17312e-07
3.28281e-09
1.1647e-07
3.10918e-09
1.15673e-07
2.92663e-09
1.14915e-07
2.78754e-09
1.14197e-07
2.61417e-09
1.13512e-07
2.53411e-09
1.12859e-07
2.37649e-09
1.12232e-07
2.39147e-09
1.1161e-07
2.34136e-09
1.11006e-07
2.37082e-09
1.10368e-07
3.05225e-09
2.27807e-09
1.09234e-07
2.00819e-07
1.004e-07
2.03772e-07
9.43665e-08
2.05346e-07
6.56727e-08
2.05648e-07
5.43239e-08
2.0482e-07
4.656e-08
2.03343e-07
4.03076e-08
2.01399e-07
3.58446e-08
1.99074e-07
3.23736e-08
1.96473e-07
2.93929e-08
1.93701e-07
2.67809e-08
1.90838e-07
2.44933e-08
1.87944e-07
2.248e-08
1.85064e-07
2.06959e-08
1.8223e-07
1.91065e-08
1.79463e-07
1.76848e-08
1.76777e-07
1.64089e-08
1.74183e-07
1.52602e-08
1.71685e-07
1.42229e-08
1.69284e-07
1.32831e-08
1.66981e-07
1.24292e-08
1.64775e-07
1.16509e-08
1.62662e-07
1.09394e-08
1.60641e-07
1.0287e-08
1.58707e-07
9.68712e-09
1.56858e-07
9.13384e-09
1.5509e-07
8.62206e-09
1.534e-07
8.14734e-09
1.51784e-07
7.70566e-09
1.50238e-07
7.29356e-09
1.48761e-07
6.90787e-09
1.47348e-07
6.54584e-09
1.45998e-07
6.20504e-09
1.44708e-07
5.8831e-09
1.43474e-07
5.57859e-09
1.42296e-07
5.28882e-09
1.41171e-07
5.01442e-09
1.40097e-07
4.75046e-09
1.39073e-07
4.50292e-09
1.38096e-07
4.25962e-09
1.37165e-07
4.04047e-09
1.36278e-07
3.81345e-09
1.35432e-07
3.63288e-09
1.34627e-07
3.41979e-09
1.33858e-07
3.30242e-09
1.33119e-07
3.11633e-09
1.32415e-07
3.09556e-09
1.3171e-07
3.04625e-09
1.31026e-07
3.05398e-09
1.30322e-07
3.75702e-09
3.41673e-09
1.29183e-07
2.06423e-07
9.35096e-08
2.09332e-07
9.14576e-08
2.11057e-07
6.39473e-08
2.11939e-07
5.34424e-08
2.12003e-07
4.64954e-08
2.1162e-07
4.06905e-08
2.10893e-07
3.65715e-08
2.09825e-07
3.34414e-08
2.08456e-07
3.07625e-08
2.06843e-07
2.83936e-08
2.05043e-07
2.62931e-08
2.03106e-07
2.44177e-08
2.01073e-07
2.27289e-08
1.9898e-07
2.11989e-08
1.96858e-07
1.98073e-08
1.94728e-07
1.85382e-08
1.9261e-07
1.7378e-08
1.90518e-07
1.63151e-08
1.88462e-07
1.53393e-08
1.8645e-07
1.44416e-08
1.84486e-07
1.3614e-08
1.82576e-07
1.28494e-08
1.80722e-07
1.21414e-08
1.78925e-07
1.14844e-08
1.77185e-07
1.08733e-08
1.75504e-07
1.03036e-08
1.7388e-07
9.77135e-09
1.72313e-07
9.27279e-09
1.70802e-07
8.8047e-09
1.69345e-07
8.36409e-09
1.67943e-07
7.94829e-09
1.66593e-07
7.55494e-09
1.65294e-07
7.1817e-09
1.64046e-07
6.82713e-09
1.62846e-07
6.48851e-09
1.61694e-07
6.16647e-09
1.60589e-07
5.85604e-09
1.59528e-07
5.56324e-09
1.58512e-07
5.27584e-09
1.57539e-07
5.01381e-09
1.56607e-07
4.74556e-09
1.55715e-07
4.52455e-09
1.54859e-07
4.27534e-09
1.54043e-07
4.11928e-09
1.53249e-07
3.90945e-09
1.52496e-07
3.84909e-09
1.51739e-07
3.80281e-09
1.51e-07
3.79348e-09
1.50256e-07
4.50097e-09
4.52602e-09
1.49147e-07
2.12269e-07
8.69031e-08
2.1514e-07
8.85862e-08
2.16812e-07
6.22757e-08
2.17853e-07
5.24013e-08
2.18263e-07
4.60858e-08
2.18381e-07
4.05719e-08
2.18307e-07
3.66455e-08
2.18009e-07
3.37394e-08
2.17481e-07
3.12905e-08
2.16742e-07
2.91325e-08
2.15817e-07
2.72186e-08
2.1473e-07
2.55044e-08
2.13508e-07
2.39508e-08
2.12177e-07
2.25305e-08
2.10759e-07
2.12251e-08
2.09276e-07
2.00208e-08
2.07747e-07
1.89069e-08
2.06188e-07
1.78743e-08
2.04612e-07
1.69154e-08
2.0303e-07
1.60232e-08
2.01453e-07
1.51919e-08
1.99886e-07
1.44159e-08
1.98337e-07
1.36904e-08
1.96811e-07
1.30108e-08
1.95311e-07
1.23732e-08
1.9384e-07
1.17739e-08
1.92402e-07
1.12095e-08
1.90998e-07
1.06769e-08
1.89629e-07
1.01734e-08
1.88297e-07
9.69631e-09
1.87002e-07
9.24331e-09
1.85745e-07
8.81229e-09
1.84525e-07
8.40113e-09
1.83344e-07
8.00853e-09
1.82201e-07
7.63194e-09
1.81095e-07
7.27205e-09
1.80027e-07
6.92404e-09
1.78996e-07
6.59392e-09
1.78002e-07
6.26983e-09
1.77045e-07
5.97125e-09
1.76122e-07
5.66823e-09
1.75235e-07
5.4114e-09
1.74379e-07
5.13213e-09
1.73558e-07
4.93995e-09
1.72755e-07
4.712e-09
1.71991e-07
4.61365e-09
1.71223e-07
4.57096e-09
1.70463e-07
4.55335e-09
1.69715e-07
5.24888e-09
5.56708e-09
1.68674e-07
2.18315e-07
8.05691e-08
2.2119e-07
8.57112e-08
2.22785e-07
6.06808e-08
2.23854e-07
5.13318e-08
2.24372e-07
4.55677e-08
2.24668e-07
4.02758e-08
2.2487e-07
3.64435e-08
2.2495e-07
3.366e-08
2.24886e-07
3.13539e-08
2.24681e-07
2.93383e-08
2.24337e-07
2.75618e-08
2.23863e-07
2.59788e-08
2.23267e-07
2.4547e-08
2.2256e-07
2.3237e-08
2.21756e-07
2.20291e-08
2.20868e-07
2.09092e-08
2.19908e-07
1.98668e-08
2.18889e-07
1.88935e-08
2.17821e-07
1.79826e-08
2.16716e-07
1.71282e-08
2.15583e-07
1.63254e-08
2.14429e-07
1.55698e-08
2.13262e-07
1.48575e-08
2.12088e-07
1.41848e-08
2.10913e-07
1.35487e-08
2.0974e-07
1.29461e-08
2.08576e-07
1.23743e-08
2.07422e-07
1.18307e-08
2.06282e-07
1.13132e-08
2.05159e-07
1.08196e-08
2.04054e-07
1.03478e-08
2.0297e-07
9.89623e-09
2.01908e-07
9.46293e-09
2.0087e-07
9.04692e-09
1.99856e-07
8.64585e-09
1.98868e-07
8.26061e-09
1.97905e-07
7.88663e-09
1.96969e-07
7.52988e-09
1.9606e-07
7.17918e-09
1.95178e-07
6.85313e-09
1.94322e-07
6.52425e-09
1.93494e-07
6.23908e-09
1.92688e-07
5.93779e-09
1.91913e-07
5.71532e-09
1.91149e-07
5.47571e-09
1.90418e-07
5.34524e-09
1.89682e-07
5.3063e-09
1.88945e-07
5.29048e-09
1.88234e-07
5.9607e-09
6.50044e-09
1.873e-07
2.24548e-07
7.4514e-08
2.27449e-07
8.281e-08
2.2898e-07
5.91499e-08
2.30057e-07
5.02552e-08
2.30616e-07
4.5009e-08
2.3096e-07
3.99313e-08
2.31252e-07
3.6152e-08
2.31479e-07
3.34326e-08
2.31624e-07
3.12092e-08
2.31685e-07
2.92775e-08
2.31661e-07
2.75855e-08
2.31551e-07
2.60884e-08
2.31355e-07
2.47428e-08
2.31076e-07
2.35169e-08
2.30715e-07
2.23892e-08
2.3028e-07
2.13444e-08
2.29776e-07
2.03712e-08
2.29209e-07
1.94606e-08
2.28586e-07
1.86055e-08
2.27914e-07
1.78004e-08
2.27199e-07
1.70403e-08
2.26447e-07
1.63212e-08
2.25665e-07
1.56394e-08
2.24858e-07
1.49919e-08
2.24031e-07
1.43759e-08
2.23189e-07
1.37886e-08
2.22335e-07
1.32279e-08
2.21474e-07
1.26916e-08
2.20609e-07
1.21778e-08
2.19744e-07
1.16846e-08
2.18882e-07
1.12104e-08
2.18024e-07
1.07539e-08
2.17174e-07
1.03133e-08
2.16333e-07
9.88807e-09
2.15503e-07
9.47598e-09
2.14685e-07
9.07816e-09
2.13881e-07
8.69035e-09
2.13093e-07
8.31842e-09
2.1232e-07
7.95209e-09
2.11564e-07
7.60877e-09
2.10824e-07
7.264e-09
2.10104e-07
6.95941e-09
2.09397e-07
6.64509e-09
2.08712e-07
6.4002e-09
2.08032e-07
6.15567e-09
2.07376e-07
6.00161e-09
2.06715e-07
5.96664e-09
2.06044e-07
5.96185e-09
2.05407e-07
6.59735e-09
7.29126e-09
2.04616e-07
2.30974e-07
6.87457e-08
2.3391e-07
7.98739e-08
2.35384e-07
5.76759e-08
2.36469e-07
4.91702e-08
2.37061e-07
4.44174e-08
2.3742e-07
3.95717e-08
2.37734e-07
3.58388e-08
2.38007e-07
3.31594e-08
2.38227e-07
3.0989e-08
2.38397e-07
2.91079e-08
2.38518e-07
2.74642e-08
2.38589e-07
2.60171e-08
2.38608e-07
2.47238e-08
2.38574e-07
2.35516e-08
2.38485e-07
2.24782e-08
2.38342e-07
2.14872e-08
2.38147e-07
2.05664e-08
2.37901e-07
1.97063e-08
2.37607e-07
1.88992e-08
2.37269e-07
1.81389e-08
2.36889e-07
1.74205e-08
2.3647e-07
1.67396e-08
2.36017e-07
1.60925e-08
2.35533e-07
1.54762e-08
2.35021e-07
1.48877e-08
2.34485e-07
1.43246e-08
2.33928e-07
1.37847e-08
2.33354e-07
1.32659e-08
2.32765e-07
1.27666e-08
2.32165e-07
1.22849e-08
2.31556e-07
1.18196e-08
2.3094e-07
1.13694e-08
2.30321e-07
1.09328e-08
2.297e-07
1.05094e-08
2.29078e-07
1.00971e-08
2.28459e-07
9.69737e-09
2.27843e-07
9.30612e-09
2.27233e-07
8.92912e-09
2.26628e-07
8.55704e-09
2.26031e-07
8.2059e-09
2.2544e-07
7.85459e-09
2.2486e-07
7.53935e-09
2.24285e-07
7.22048e-09
2.23723e-07
6.96154e-09
2.23161e-07
6.71823e-09
2.22612e-07
6.54995e-09
2.2206e-07
6.51915e-09
2.21489e-07
6.53233e-09
2.2096e-07
7.12729e-09
7.91503e-09
2.20336e-07
2.37601e-07
6.32699e-08
2.40576e-07
7.68985e-08
2.41993e-07
5.62591e-08
2.43085e-07
4.8078e-08
2.43713e-07
4.37892e-08
2.44086e-07
3.91992e-08
2.44405e-07
3.552e-08
2.4469e-07
3.28735e-08
2.44933e-07
3.0746e-08
2.45139e-07
2.89017e-08
2.45315e-07
2.72887e-08
2.45461e-07
2.5871e-08
2.45577e-07
2.4608e-08
2.45661e-07
2.34674e-08
2.45713e-07
2.24265e-08
2.45731e-07
2.14689e-08
2.45716e-07
2.05821e-08
2.45666e-07
1.97561e-08
2.45582e-07
1.89829e-08
2.45465e-07
1.8256e-08
2.45315e-07
1.757e-08
2.45135e-07
1.69203e-08
2.44924e-07
1.6303e-08
2.44686e-07
1.57147e-08
2.44421e-07
1.51526e-08
2.44131e-07
1.46139e-08
2.4382e-07
1.40964e-08
2.43488e-07
1.35979e-08
2.43137e-07
1.31168e-08
2.42771e-07
1.26513e-08
2.42391e-07
1.22001e-08
2.41998e-07
1.17619e-08
2.41595e-07
1.13355e-08
2.41184e-07
1.09205e-08
2.40766e-07
1.05149e-08
2.40344e-07
1.01202e-08
2.39917e-07
9.73268e-09
2.39488e-07
9.35781e-09
2.39058e-07
8.98729e-09
2.38628e-07
8.63557e-09
2.38198e-07
8.28501e-09
2.37771e-07
7.96628e-09
2.37342e-07
7.64959e-09
2.3692e-07
7.38402e-09
2.36491e-07
7.14653e-09
2.36069e-07
6.9726e-09
2.35642e-07
6.94582e-09
2.35194e-07
6.98053e-09
2.34789e-07
7.53183e-09
8.36183e-09
2.34342e-07
2.44436e-07
5.80904e-08
2.4745e-07
7.38846e-08
2.48811e-07
5.48976e-08
2.49906e-07
4.6983e-08
2.50573e-07
4.31226e-08
2.50962e-07
3.88102e-08
2.51285e-07
3.51966e-08
2.51577e-07
3.25821e-08
2.51827e-07
3.04954e-08
2.52044e-07
2.86847e-08
2.52237e-07
2.70961e-08
2.52409e-07
2.5699e-08
2.52561e-07
2.44556e-08
2.52694e-07
2.33343e-08
2.52808e-07
2.23128e-08
2.52902e-07
2.1375e-08
2.52975e-07
2.05084e-08
2.53028e-07
1.97032e-08
2.5306e-07
1.89512e-08
2.5307e-07
1.82458e-08
2.53059e-07
1.75814e-08
2.53026e-07
1.69533e-08
2.52972e-07
1.63574e-08
2.52896e-07
1.57902e-08
2.528e-07
1.52485e-08
2.52685e-07
1.47296e-08
2.5255e-07
1.4231e-08
2.52397e-07
1.37504e-08
2.52228e-07
1.32861e-08
2.52043e-07
1.28362e-08
2.51844e-07
1.23993e-08
2.51632e-07
1.19743e-08
2.51408e-07
1.15597e-08
2.51173e-07
1.11552e-08
2.50929e-07
1.0759e-08
2.50676e-07
1.03725e-08
2.50417e-07
9.99227e-09
2.50151e-07
9.62336e-09
2.4988e-07
9.25857e-09
2.49605e-07
8.91059e-09
2.49325e-07
8.56528e-09
2.49043e-07
8.24786e-09
2.48755e-07
7.9376e-09
2.48468e-07
7.67095e-09
2.48173e-07
7.44183e-09
2.47877e-07
7.26879e-09
2.47577e-07
7.24515e-09
2.47256e-07
7.30135e-09
2.46981e-07
7.80747e-09
8.6375e-09
2.46705e-07
2.51488e-07
5.32091e-08
2.5453e-07
7.08425e-08
2.55847e-07
5.35805e-08
2.5694e-07
4.58906e-08
2.57644e-07
4.24182e-08
2.58052e-07
3.84018e-08
2.58381e-07
3.48675e-08
2.58678e-07
3.22853e-08
2.58934e-07
3.02396e-08
2.59156e-07
2.84631e-08
2.59354e-07
2.68982e-08
2.59533e-07
2.55191e-08
2.59698e-07
2.42914e-08
2.59848e-07
2.31842e-08
2.59985e-07
2.21759e-08
2.60109e-07
2.12507e-08
2.60221e-07
2.03966e-08
2.6032e-07
1.96038e-08
2.60407e-07
1.88645e-08
2.60481e-07
1.8172e-08
2.60541e-07
1.75208e-08
2.60588e-07
1.69062e-08
2.60622e-07
1.6324e-08
2.60641e-07
1.57707e-08
2.60647e-07
1.52429e-08
2.60639e-07
1.47378e-08
2.60617e-07
1.42529e-08
2.60581e-07
1.37856e-08
2.60533e-07
1.33342e-08
2.60473e-07
1.28967e-08
2.60401e-07
1.24716e-08
2.60317e-07
1.20576e-08
2.60224e-07
1.16535e-08
2.6012e-07
1.12587e-08
2.60007e-07
1.08716e-08
2.59887e-07
1.04934e-08
2.59758e-07
1.01211e-08
2.59622e-07
9.75905e-09
2.59479e-07
9.40135e-09
2.59331e-07
9.05879e-09
2.59176e-07
8.72058e-09
2.59017e-07
8.40689e-09
2.5885e-07
8.1048e-09
2.5868e-07
7.84045e-09
2.58502e-07
7.62019e-09
2.58318e-07
7.45205e-09
2.58134e-07
7.4299e-09
2.57931e-07
7.50425e-09
2.57774e-07
7.96434e-09
8.76137e-09
2.5765e-07
2.58766e-07
4.86263e-08
2.61826e-07
6.77825e-08
2.63109e-07
5.22968e-08
2.64194e-07
4.48059e-08
2.64934e-07
4.16785e-08
2.65363e-07
3.79722e-08
2.65699e-07
3.45315e-08
2.66002e-07
3.19828e-08
2.66263e-07
2.99782e-08
2.66489e-07
2.82377e-08
2.6669e-07
2.66972e-08
2.66873e-07
2.53362e-08
2.67041e-07
2.41232e-08
2.67196e-07
2.30287e-08
2.67341e-07
2.20313e-08
2.67476e-07
2.11158e-08
2.67602e-07
2.02706e-08
2.67719e-07
1.94863e-08
2.67829e-07
1.87551e-08
2.6793e-07
1.80707e-08
2.68023e-07
1.74276e-08
2.68108e-07
1.68213e-08
2.68184e-07
1.62475e-08
2.68252e-07
1.57028e-08
2.68312e-07
1.51838e-08
2.68362e-07
1.46875e-08
2.68403e-07
1.42114e-08
2.68436e-07
1.37531e-08
2.6846e-07
1.33104e-08
2.68475e-07
1.28815e-08
2.68482e-07
1.24647e-08
2.6848e-07
1.20589e-08
2.68471e-07
1.16625e-08
2.68455e-07
1.12753e-08
2.68431e-07
1.08954e-08
2.684e-07
1.0524e-08
2.68363e-07
1.01583e-08
2.6832e-07
9.80237e-09
2.6827e-07
9.45123e-09
2.68215e-07
9.11393e-09
2.68153e-07
8.78273e-09
2.68086e-07
8.47334e-09
2.68012e-07
8.17926e-09
2.67934e-07
7.9187e-09
2.67847e-07
7.70626e-09
2.67755e-07
7.54463e-09
2.67663e-07
7.5217e-09
2.67559e-07
7.60847e-09
2.67501e-07
8.0218e-09
8.76118e-09
2.67502e-07
2.66278e-07
4.43408e-08
2.69345e-07
6.47155e-08
2.70606e-07
5.10359e-08
2.71678e-07
4.37332e-08
2.7245e-07
4.09065e-08
2.72903e-07
3.75196e-08
2.73247e-07
3.4188e-08
2.73555e-07
3.16744e-08
2.73822e-07
2.97109e-08
2.74052e-07
2.80079e-08
2.74256e-07
2.64934e-08
2.74441e-07
2.51509e-08
2.74611e-07
2.39529e-08
2.74769e-07
2.2871e-08
2.74916e-07
2.18841e-08
2.75055e-07
2.09775e-08
2.75185e-07
2.014e-08
2.75309e-07
1.93625e-08
2.75427e-07
1.86376e-08
2.75538e-07
1.7959e-08
2.75644e-07
1.73216e-08
2.75745e-07
1.67207e-08
2.7584e-07
1.61524e-08
2.7593e-07
1.56132e-08
2.76014e-07
1.50997e-08
2.76092e-07
1.46091e-08
2.76165e-07
1.41386e-08
2.76232e-07
1.36859e-08
2.76294e-07
1.32488e-08
2.7635e-07
1.28255e-08
2.764e-07
1.24142e-08
2.76445e-07
1.20137e-08
2.76485e-07
1.16226e-08
2.7652e-07
1.12404e-08
2.7655e-07
1.08655e-08
2.76575e-07
1.04989e-08
2.76595e-07
1.01382e-08
2.76611e-07
9.78677e-09
2.76621e-07
9.44083e-09
2.76627e-07
9.10773e-09
2.76628e-07
8.78242e-09
2.76624e-07
8.47688e-09
2.76614e-07
8.18956e-09
2.766e-07
7.93298e-09
2.76579e-07
7.72644e-09
2.76553e-07
7.57112e-09
2.7653e-07
7.54486e-09
2.76501e-07
7.637e-09
2.7652e-07
8.00272e-09
8.66721e-09
2.76614e-07
2.74032e-07
4.03496e-08
2.77096e-07
6.16522e-08
2.78344e-07
4.97874e-08
2.79401e-07
4.2676e-08
2.80202e-07
4.01059e-08
2.80679e-07
3.70425e-08
2.81031e-07
3.3836e-08
2.81345e-07
3.13603e-08
2.81619e-07
2.94374e-08
2.81853e-07
2.77733e-08
2.8206e-07
2.62863e-08
2.82248e-07
2.49632e-08
2.8242e-07
2.37807e-08
2.82579e-07
2.27116e-08
2.82728e-07
2.17353e-08
2.82868e-07
2.08377e-08
2.83e-07
2.00077e-08
2.83126e-07
1.92366e-08
2.83247e-07
1.85173e-08
2.83362e-07
1.78438e-08
2.83472e-07
1.7211e-08
2.83579e-07
1.66145e-08
2.83681e-07
1.60503e-08
2.83779e-07
1.5515e-08
2.83873e-07
1.50055e-08
2.83964e-07
1.45187e-08
2.8405e-07
1.40521e-08
2.84133e-07
1.36031e-08
2.84212e-07
1.31697e-08
2.84287e-07
1.275e-08
2.8436e-07
1.23422e-08
2.84428e-07
1.19451e-08
2.84493e-07
1.15573e-08
2.84556e-07
1.11783e-08
2.84614e-07
1.08066e-08
2.8467e-07
1.04431e-08
2.84723e-07
1.00858e-08
2.84772e-07
9.73742e-09
2.84817e-07
9.39524e-09
2.8486e-07
9.06515e-09
2.84898e-07
8.74433e-09
2.84933e-07
8.44182e-09
2.84963e-07
8.15963e-09
2.8499e-07
7.90656e-09
2.85012e-07
7.70379e-09
2.8503e-07
7.5534e-09
2.85053e-07
7.52133e-09
2.85079e-07
7.61147e-09
2.85153e-07
7.92869e-09
8.5072e-09
2.85313e-07
2.82039e-07
3.66478e-08
2.85088e-07
5.86038e-08
2.86333e-07
4.85418e-08
2.87372e-07
4.16372e-08
2.88197e-07
3.92812e-08
2.887e-07
3.65397e-08
2.89061e-07
3.34745e-08
2.89381e-07
3.10405e-08
2.89661e-07
2.91576e-08
2.899e-07
2.75337e-08
2.90111e-07
2.60758e-08
2.90301e-07
2.47729e-08
2.90475e-07
2.36063e-08
2.90637e-07
2.25505e-08
2.90787e-07
2.15852e-08
2.90928e-07
2.06966e-08
2.91061e-07
1.98742e-08
2.91188e-07
1.91096e-08
2.9131e-07
1.83959e-08
2.91426e-07
1.77273e-08
2.91538e-07
1.70988e-08
2.91647e-07
1.65062e-08
2.91751e-07
1.59457e-08
2.91852e-07
1.54138e-08
2.9195e-07
1.49075e-08
2.92045e-07
1.44239e-08
2.92137e-07
1.39602e-08
2.92226e-07
1.35141e-08
2.92313e-07
1.30834e-08
2.92396e-07
1.26662e-08
2.92478e-07
1.22607e-08
2.92557e-07
1.18659e-08
2.92634e-07
1.14802e-08
2.92709e-07
1.11033e-08
2.92782e-07
1.07338e-08
2.92853e-07
1.03722e-08
2.92922e-07
1.00171e-08
2.92988e-07
9.67067e-09
2.93052e-07
9.33111e-09
2.93115e-07
9.00307e-09
2.93173e-07
8.68551e-09
2.9323e-07
8.38525e-09
2.93283e-07
8.10667e-09
2.93333e-07
7.85639e-09
2.93381e-07
7.65545e-09
2.93427e-07
7.50807e-09
2.9348e-07
7.46795e-09
2.93542e-07
7.54917e-09
2.93654e-07
7.81703e-09
8.30351e-09
2.93858e-07
2.90308e-07
3.3229e-08
2.9333e-07
5.55812e-08
2.94582e-07
4.72904e-08
2.956e-07
4.0619e-08
2.96444e-07
3.84374e-08
2.96973e-07
3.60101e-08
2.97346e-07
3.31021e-08
2.97671e-07
3.07152e-08
2.97957e-07
2.88715e-08
2.98202e-07
2.72887e-08
2.98417e-07
2.58614e-08
2.9861e-07
2.45798e-08
2.98786e-07
2.34297e-08
2.98949e-07
2.23874e-08
2.99101e-07
2.14335e-08
2.99243e-07
2.05543e-08
2.99378e-07
1.97397e-08
2.99506e-07
1.89817e-08
2.99628e-07
1.82737e-08
2.99745e-07
1.76099e-08
2.99858e-07
1.69858e-08
2.99968e-07
1.6397e-08
3.00073e-07
1.58401e-08
3.00175e-07
1.53115e-08
3.00275e-07
1.48082e-08
3.00371e-07
1.43274e-08
3.00465e-07
1.38664e-08
3.00556e-07
1.34227e-08
3.00646e-07
1.29942e-08
3.00733e-07
1.25791e-08
3.00818e-07
1.21756e-08
3.00901e-07
1.17824e-08
3.00983e-07
1.13983e-08
3.01064e-07
1.10229e-08
3.01143e-07
1.06547e-08
3.0122e-07
1.02945e-08
3.01297e-07
9.94086e-09
3.01371e-07
9.59576e-09
3.01445e-07
9.25805e-09
3.01516e-07
8.93144e-09
3.01585e-07
8.61621e-09
3.01653e-07
8.31763e-09
3.01718e-07
8.04146e-09
3.01781e-07
7.79321e-09
3.01844e-07
7.59251e-09
3.01906e-07
7.44603e-09
3.01978e-07
7.39595e-09
3.02065e-07
7.46223e-09
3.02202e-07
7.68005e-09
8.07234e-09
3.02434e-07
2.98847e-07
3.0085e-08
3.01832e-07
5.25958e-08
3.03097e-07
4.60252e-08
3.04094e-07
3.96226e-08
3.04951e-07
3.75797e-08
3.05508e-07
3.54532e-08
3.05893e-07
3.27174e-08
3.06224e-07
3.03841e-08
3.06516e-07
2.85792e-08
3.06767e-07
2.70378e-08
3.06986e-07
2.56428e-08
3.07182e-07
2.43836e-08
3.07361e-07
2.32505e-08
3.07526e-07
2.22224e-08
3.0768e-07
2.12801e-08
3.07823e-07
2.04106e-08
3.07959e-07
1.9604e-08
3.08088e-07
1.88528e-08
3.08211e-07
1.81505e-08
3.08329e-07
1.74918e-08
3.08443e-07
1.68721e-08
3.08553e-07
1.62873e-08
3.08659e-07
1.57339e-08
3.08762e-07
1.52085e-08
3.08862e-07
1.47083e-08
3.08959e-07
1.42302e-08
3.09054e-07
1.37718e-08
3.09146e-07
1.33304e-08
3.09236e-07
1.29041e-08
3.09324e-07
1.24908e-08
3.09411e-07
1.2089e-08
3.09496e-07
1.16973e-08
3.0958e-07
1.13145e-08
3.09662e-07
1.09402e-08
3.09744e-07
1.05732e-08
3.09825e-07
1.02139e-08
3.09904e-07
9.86141e-09
3.09983e-07
9.51726e-09
3.1006e-07
9.18094e-09
3.10136e-07
8.85538e-09
3.1021e-07
8.54185e-09
3.10283e-07
8.24456e-09
3.10355e-07
7.96988e-09
3.10425e-07
7.72295e-09
3.10496e-07
7.52126e-09
3.10569e-07
7.37356e-09
3.10653e-07
7.3119e-09
3.10757e-07
7.35829e-09
3.10911e-07
7.52568e-09
7.82451e-09
3.11159e-07
3.07666e-07
2.72061e-08
3.10603e-07
4.96588e-08
3.11889e-07
4.47395e-08
3.12863e-07
3.86484e-08
3.13729e-07
3.67135e-08
3.14314e-07
3.48689e-08
3.14712e-07
3.23188e-08
3.15049e-07
3.00472e-08
3.15348e-07
2.82805e-08
3.15605e-07
2.6781e-08
3.15828e-07
2.54198e-08
3.16027e-07
2.41841e-08
3.16209e-07
2.30686e-08
3.16376e-07
2.2055e-08
3.16532e-07
2.11249e-08
3.16677e-07
2.02652e-08
3.16814e-07
1.9467e-08
3.16944e-07
1.87227e-08
3.17068e-07
1.80264e-08
3.17187e-07
1.73728e-08
3.17302e-07
1.67576e-08
3.17412e-07
1.61768e-08
3.17519e-07
1.5627e-08
3.17622e-07
1.5105e-08
3.17723e-07
1.46078e-08
3.17821e-07
1.41326e-08
3.17916e-07
1.36767e-08
3.18008e-07
1.32377e-08
3.18099e-07
1.28134e-08
3.18188e-07
1.2402e-08
3.18275e-07
1.20017e-08
3.18361e-07
1.16114e-08
3.18446e-07
1.12298e-08
3.18529e-07
1.08565e-08
3.18612e-07
1.04905e-08
3.18694e-07
1.0132e-08
3.18775e-07
9.7805e-09
3.18855e-07
9.43712e-09
3.18934e-07
9.10189e-09
3.19012e-07
8.77721e-09
3.19089e-07
8.46493e-09
3.19165e-07
8.16863e-09
3.1924e-07
7.89476e-09
3.19315e-07
7.64846e-09
3.19391e-07
7.44477e-09
3.19471e-07
7.29388e-09
3.19564e-07
7.21921e-09
3.1968e-07
7.24184e-09
3.19847e-07
7.35877e-09
7.56697e-09
3.20105e-07
3.16776e-07
2.4581e-08
3.19654e-07
4.67813e-08
3.20966e-07
4.34275e-08
3.21918e-07
3.7696e-08
3.22788e-07
3.58435e-08
3.23399e-07
3.42582e-08
3.23813e-07
3.19049e-08
3.24156e-07
2.97041e-08
3.24461e-07
2.79757e-08
3.24724e-07
2.65178e-08
3.24952e-07
2.5192e-08
3.25155e-07
2.3981e-08
3.25339e-07
2.28839e-08
3.25509e-07
2.18852e-08
3.25667e-07
2.09675e-08
3.25814e-07
2.01182e-08
3.25952e-07
1.93284e-08
3.26084e-07
1.85914e-08
3.26209e-07
1.79011e-08
3.26329e-07
1.72528e-08
3.26444e-07
1.66422e-08
3.26555e-07
1.60656e-08
3.26663e-07
1.55195e-08
3.26767e-07
1.50009e-08
3.26868e-07
1.45068e-08
3.26966e-07
1.40344e-08
3.27062e-07
1.35811e-08
3.27155e-07
1.31444e-08
3.27246e-07
1.27222e-08
3.27336e-07
1.23126e-08
3.27423e-07
1.1914e-08
3.2751e-07
1.1525e-08
3.27595e-07
1.11446e-08
3.27679e-07
1.07723e-08
3.27762e-07
1.04072e-08
3.27845e-07
1.00494e-08
3.27927e-07
9.69874e-09
3.28008e-07
9.35604e-09
3.28088e-07
9.02172e-09
3.28168e-07
8.69777e-09
3.28246e-07
8.38642e-09
3.28324e-07
8.09086e-09
3.28401e-07
7.81725e-09
3.28479e-07
7.57089e-09
3.28559e-07
7.36437e-09
3.28645e-07
7.20844e-09
3.28744e-07
7.1195e-09
3.28871e-07
7.11549e-09
3.29047e-07
7.18233e-09
7.30418e-09
3.2931e-07
3.26186e-07
2.21972e-08
3.28994e-07
4.39741e-08
3.30336e-07
4.20851e-08
3.31268e-07
3.67644e-08
3.32136e-07
3.49748e-08
3.32772e-07
3.36225e-08
3.33203e-07
3.14743e-08
3.33553e-07
2.93542e-08
3.33864e-07
2.76648e-08
3.34133e-07
2.62482e-08
3.34366e-07
2.49589e-08
3.34573e-07
2.3774e-08
3.34761e-07
2.2696e-08
3.34934e-07
2.17127e-08
3.35093e-07
2.08078e-08
3.35242e-07
1.99692e-08
3.35383e-07
1.91882e-08
3.35515e-07
1.84585e-08
3.35642e-07
1.77746e-08
3.35763e-07
1.71317e-08
3.35879e-07
1.65258e-08
3.35992e-07
1.59534e-08
3.361e-07
1.54112e-08
3.36205e-07
1.4896e-08
3.36307e-07
1.44051e-08
3.36405e-07
1.39356e-08
3.36502e-07
1.34849e-08
3.36595e-07
1.30507e-08
3.36687e-07
1.26306e-08
3.36777e-07
1.22228e-08
3.36865e-07
1.18258e-08
3.36952e-07
1.14382e-08
3.37038e-07
1.10589e-08