/*--------------------------------*- C++ -*----------------------------------*\
  =========                 |
  \\      /  F ield         | OpenFOAM: The Open Source CFD Toolbox
   \\    /   O peration     | Website:  https://openfoam.org
    \\  /    A nd           | Version:  7
     \\/     M anipulation  |
\*---------------------------------------------------------------------------*/
FoamFile
{
    version     2.0;
    format      ascii;
    class       volVectorField;
    location    "0.19";
    object      U_0;
}
// * * * * * * * * * * * * * * * * * * * * * * * * * * * * * * * * * * * * * //

dimensions      [0 1 -1 0 0 0 0];

internalField   nonuniform List<vector> 
70000
(
(0.553413 0.0169782 0)
(0.251416 0.00340046 0)
(0.165925 0.000319014 0)
(0.132443 4.90652e-05 0)
(0.11734 4.41095e-05 0)
(0.107385 5.22673e-05 0)
(0.0994191 4.44595e-05 0)
(0.0929821 3.53734e-05 0)
(0.0877462 2.93252e-05 0)
(0.0833866 2.51775e-05 0)
(0.0796749 2.20063e-05 0)
(0.0764635 1.94634e-05 0)
(0.0736511 1.73889e-05 0)
(0.0711636 1.56736e-05 0)
(0.0689448 1.42364e-05 0)
(0.0669513 1.30174e-05 0)
(0.065149 1.19722e-05 0)
(0.0635105 1.10672e-05 0)
(0.0620139 1.02773e-05 0)
(0.0606411 9.58221e-06 0)
(0.059377 8.96674e-06 0)
(0.0582091 8.41804e-06 0)
(0.0571269 7.92617e-06 0)
(0.0561215 7.48276e-06 0)
(0.0551852 7.0814e-06 0)
(0.0543114 6.71624e-06 0)
(0.0534944 6.38314e-06 0)
(0.0527294 6.07869e-06 0)
(0.0520121 5.79873e-06 0)
(0.0513385 5.54396e-06 0)
(0.0507056 5.3072e-06 0)
(0.0501101 5.0963e-06 0)
(0.0495497 4.89737e-06 0)
(0.0490216 4.7309e-06 0)
(0.048524 4.56921e-06 0)
(0.0480545 4.45516e-06 0)
(0.0476111 4.34121e-06 0)
(0.0471925 4.29122e-06 0)
(0.0467939 4.27034e-06 0)
(0.0464197 4.27543e-06 0)
(0.0460518 4.5104e-06 0)
(0.0457178 4.43611e-06 0)
(0.0453521 5.49531e-06 0)
(0.0450636 4.68496e-06 0)
(0.0446281 8.5071e-06 0)
(0.0444261 4.41292e-06 0)
(0.0437178 1.77719e-05 0)
(0.04375 1.1661e-06 0)
(0.0422814 5.51108e-05 0)
(0.0398506 -0.00153717 0)
(0.884862 0.0434933 0)
(0.650148 0.020149 0)
(0.49398 0.00660472 0)
(0.403563 0.00275475 0)
(0.35486 0.00154783 0)
(0.323556 0.0011314 0)
(0.299672 0.000908807 0)
(0.280482 0.000744051 0)
(0.264792 0.000621203 0)
(0.251698 0.000530582 0)
(0.240547 0.000461761 0)
(0.230899 0.000407574 0)
(0.222448 0.000363763 0)
(0.21497 0.000327669 0)
(0.208298 0.000297487 0)
(0.202301 0.00027192 0)
(0.196877 0.000250017 0)
(0.191946 0.000231064 0)
(0.18744 0.000214518 0)
(0.183305 0.000199955 0)
(0.179497 0.000187043 0)
(0.175978 0.000175518 0)
(0.172716 0.000165166 0)
(0.169686 0.000155811 0)
(0.166863 0.000147312 0)
(0.164229 0.000139547 0)
(0.161765 0.000132416 0)
(0.159459 0.000125836 0)
(0.157296 0.000119731 0)
(0.155265 0.000114049 0)
(0.153357 0.000108725 0)
(0.151564 0.000103738 0)
(0.149877 9.90162e-05 0)
(0.148289 9.45981e-05 0)
(0.146795 9.03593e-05 0)
(0.145389 8.64663e-05 0)
(0.144065 8.2653e-05 0)
(0.142821 7.93533e-05 0)
(0.141644 7.60104e-05 0)
(0.140547 7.35403e-05 0)
(0.139484 7.09637e-05 0)
(0.13853 6.97784e-05 0)
(0.137516 6.90491e-05 0)
(0.136734 6.97218e-05 0)
(0.135603 7.4588e-05 0)
(0.135124 7.66736e-05 0)
(0.133412 0.000103117 0)
(0.133642 8.08806e-05 0)
(0.130336 0.000374525 0)
(0.128692 -0.00230966 0)
(0.991208 0.0499557 0)
(0.890924 0.0305628 0)
(0.762496 0.0146105 0)
(0.656546 0.00797055 0)
(0.585452 0.00487904 0)
(0.536097 0.00347355 0)
(0.498223 0.00273686 0)
(0.467618 0.00224208 0)
(0.442336 0.0018779 0)
(0.421065 0.00160589 0)
(0.402857 0.00139812 0)
(0.387042 0.00123452 0)
(0.373146 0.00110231 0)
(0.36082 0.000993391 0)
(0.349797 0.000902276 0)
(0.339871 0.000825063 0)
(0.33088 0.000758889 0)
(0.322692 0.000701605 0)
(0.315202 0.000651574 0)
(0.30832 0.000607525 0)
(0.301976 0.000568458 0)
(0.296108 0.000533574 0)
(0.290664 0.000502229 0)
(0.285601 0.000473897 0)
(0.280882 0.000448144 0)
(0.276474 0.000424605 0)
(0.27235 0.000402979 0)
(0.268484 0.000383005 0)
(0.264857 0.000364461 0)
(0.26145 0.000347167 0)
(0.258247 0.000330942 0)
(0.255233 0.000315685 0)
(0.252397 0.000301216 0)
(0.249726 0.000287559 0)
(0.247213 0.000274435 0)
(0.244846 0.000262161 0)
(0.242618 0.000250103 0)
(0.240525 0.000239293 0)
(0.238548 0.000228177 0)
(0.236708 0.000219439 0)
(0.234937 0.000209406 0)
(0.233345 0.000204342 0)
(0.231691 0.000196286 0)
(0.230395 0.000198385 0)
(0.228636 0.000196133 0)
(0.227833 0.000210989 0)
(0.225367 0.000238544 0)
(0.225609 0.000222838 0)
(0.221125 0.000640522 0)
(0.221359 -0.0019159 0)
(1.01554 0.0489539 0)
(1.00649 0.0357243 0)
(0.93589 0.0208191 0)
(0.852024 0.0134979 0)
(0.782261 0.00919685 0)
(0.72713 0.00678146 0)
(0.682063 0.00538429 0)
(0.644332 0.00444201 0)
(0.612356 0.00374636 0)
(0.584939 0.00321958 0)
(0.561142 0.00281256 0)
(0.540257 0.00248989 0)
(0.521755 0.00222803 0)
(0.505233 0.00201154 0)
(0.490377 0.00182988 0)
(0.476937 0.00167555 0)
(0.464714 0.00154298 0)
(0.453545 0.001428 0)
(0.443296 0.00132742 0)
(0.433856 0.00123873 0)
(0.425132 0.00115998 0)
(0.417045 0.00108958 0)
(0.409528 0.00102627 0)
(0.402525 0.00096899 0)
(0.395986 0.000916892 0)
(0.389868 0.000869245 0)
(0.384135 0.000825446 0)
(0.378755 0.000784971 0)
(0.373699 0.000747378 0)
(0.368943 0.000712289 0)
(0.364466 0.000679359 0)
(0.360247 0.000648341 0)
(0.356272 0.000618914 0)
(0.352523 0.000591041 0)
(0.34899 0.000564243 0)
(0.345658 0.000538982 0)
(0.342519 0.000514161 0)
(0.339565 0.000491533 0)
(0.336775 0.00046821 0)
(0.334169 0.000449255 0)
(0.331675 0.000427082 0)
(0.329413 0.000414976 0)
(0.327113 0.000393863 0)
(0.325247 0.000396373 0)
(0.322899 0.000378377 0)
(0.321644 0.000410149 0)
(0.318623 0.000423842 0)
(0.318531 0.000437568 0)
(0.313505 0.00087724 0)
(0.314168 -0.00114858 0)
(1.01435 0.0460983 0)
(1.04798 0.0373414 0)
(1.02457 0.0241865 0)
(0.974688 0.0175566 0)
(0.923502 0.0131073 0)
(0.87679 0.0102024 0)
(0.834652 0.00834073 0)
(0.796939 0.00701614 0)
(0.763427 0.00600345 0)
(0.733672 0.00521416 0)
(0.707161 0.00459069 0)
(0.683422 0.00408855 0)
(0.662054 0.00367624 0)
(0.642727 0.00333223 0)
(0.625163 0.00304142 0)
(0.609133 0.00279279 0)
(0.594443 0.00257811 0)
(0.580933 0.00239108 0)
(0.568466 0.00222684 0)
(0.556926 0.00208154 0)
(0.546215 0.00195215 0)
(0.536246 0.00183619 0)
(0.526949 0.00173167 0)
(0.518258 0.00163693 0)
(0.510119 0.00155062 0)
(0.502485 0.00147156 0)
(0.495312 0.0013988 0)
(0.488564 0.00133149 0)
(0.482209 0.00126892 0)
(0.476217 0.00121046 0)
(0.470564 0.00115556 0)
(0.465226 0.00110379 0)
(0.460186 0.00105466 0)
(0.455423 0.00100802 0)
(0.450924 0.00096318 0)
(0.446673 0.000920709 0)
(0.442659 0.000879012 0)
(0.438872 0.000840574 0)
(0.43529 0.000801064 0)
(0.431932 0.000768093 0)
(0.428725 0.000729769 0)
(0.425785 0.000707075 0)
(0.422851 0.00066864 0)
(0.420373 0.00066835 0)
(0.417478 0.000630232 0)
(0.41565 0.000674983 0)
(0.412233 0.000671807 0)
(0.411472 0.000712771 0)
(0.406456 0.00116022 0)
(0.406218 -0.000362479 0)
(1.00941 0.043048 0)
(1.05564 0.0370969 0)
(1.05867 0.025328 0)
(1.03631 0.0197614 0)
(1.00714 0.0157948 0)
(0.976137 0.0129292 0)
(0.94463 0.0109556 0)
(0.913793 0.00946964 0)
(0.884483 0.00827555 0)
(0.857083 0.00730515 0)
(0.831669 0.00651292 0)
(0.808178 0.00585839 0)
(0.786489 0.00531009 0)
(0.766457 0.0048452 0)
(0.747936 0.00444698 0)
(0.730786 0.00410276 0)
(0.714875 0.00380277 0)
(0.700086 0.00353936 0)
(0.686313 0.00330647 0)
(0.673461 0.00309923 0)
(0.661446 0.00291371 0)
(0.650194 0.00274671 0)
(0.63964 0.00259558 0)
(0.629723 0.00245812 0)
(0.620394 0.00233248 0)
(0.611604 0.0022171 0)
(0.603314 0.00211065 0)
(0.595487 0.00201196 0)
(0.588089 0.00192005 0)
(0.581092 0.00183404 0)
(0.57447 0.00175316 0)
(0.568199 0.00167678 0)
(0.56226 0.00160422 0)
(0.556631 0.00153522 0)
(0.5513 0.00146885 0)
(0.546247 0.00140577 0)
(0.541463 0.0013439 0)
(0.536934 0.00128637 0)
(0.532644 0.00122753 0)
(0.5286 0.00117726 0)
(0.524744 0.00111985 0)
(0.521167 0.00108302 0)
(0.51765 0.00102492 0)
(0.514568 0.001017 0)
(0.511188 0.000958865 0)
(0.50873 0.00100684 0)
(0.505036 0.000994124 0)
(0.50344 0.00104475 0)
(0.498664 0.00151671 0)
(0.497193 0.000424143 0)
(1.00635 0.0401801 0)
(1.05241 0.0361504 0)
(1.06605 0.0252516 0)
(1.05953 0.0205664 0)
(1.0469 0.0172217 0)
(1.03085 0.0146468 0)
(1.01197 0.0128133 0)
(0.991305 0.0113839 0)
(0.969929 0.0101826 0)
(0.948571 0.00916322 0)
(0.927673 0.00829973 0)
(0.9075 0.00756389 0)
(0.888196 0.00693118 0)
(0.86983 0.00638279 0)
(0.852422 0.00590419 0)
(0.835958 0.00548388 0)
(0.820406 0.00511257 0)
(0.805722 0.0047827 0)
(0.79186 0.00448806 0)
(0.77877 0.00422353 0)
(0.766403 0.00398487 0)
(0.754711 0.00376853 0)
(0.743652 0.00357154 0)
(0.733182 0.00339137 0)
(0.723264 0.00322589 0)
(0.713861 0.00307324 0)
(0.704942 0.00293184 0)
(0.696476 0.0028003 0)
(0.688436 0.0026774 0)
(0.680796 0.00256207 0)
(0.673535 0.00245336 0)
(0.66663 0.00235045 0)
(0.660064 0.00225251 0)
(0.653819 0.00215916 0)
(0.647882 0.00206929 0)
(0.642235 0.00198356 0)
(0.636868 0.00189955 0)
(0.631769 0.00182082 0)
(0.626924 0.00174076 0)
(0.622334 0.00167089 0)
(0.617955 0.00159279 0)
(0.613851 0.00153887 0)
(0.609858 0.00146055 0)
(0.60625 0.00143995 0)
(0.602475 0.00136458 0)
(0.599435 0.00140492 0)
(0.595538 0.00139213 0)
(0.593153 0.00143798 0)
(0.588599 0.00194011 0)
(0.58612 0.00123069 0)
(1.00506 0.037503 0)
(1.04762 0.0350524 0)
(1.06395 0.0247046 0)
(1.06418 0.0205979 0)
(1.06069 0.0177602 0)
(1.05479 0.0154878 0)
(1.04604 0.0138692 0)
(1.03486 0.0126045 0)
(1.02197 0.0115133 0)
(1.00798 0.0105561 0)
(0.993334 0.00971929 0)
(0.978399 0.00898502 0)
(0.963437 0.00833649 0)
(0.948642 0.00776059 0)
(0.934149 0.00724702 0)
(0.920051 0.0067873 0)
(0.906404 0.00637428 0)
(0.893245 0.00600183 0)
(0.880588 0.00566473 0)
(0.868439 0.00535851 0)
(0.856793 0.00507932 0)
(0.845639 0.00482386 0)
(0.834964 0.00458925 0)
(0.824752 0.00437303 0)
(0.814986 0.00417305 0)
(0.805647 0.00398741 0)
(0.796717 0.00381448 0)
(0.788179 0.00365275 0)
(0.780016 0.00350094 0)
(0.772211 0.00335787 0)
(0.764749 0.00322248 0)
(0.757615 0.00309388 0)
(0.750797 0.00297111 0)
(0.744279 0.00285372 0)
(0.738053 0.00274046 0)
(0.732105 0.00263201 0)
(0.726428 0.00252571 0)
(0.721008 0.00242537 0)
(0.715839 0.00232383 0)
(0.710916 0.00223353 0)
(0.706211 0.00213467 0)
(0.701761 0.00206197 0)
(0.697453 0.00196434 0)
(0.693474 0.00192725 0)
(0.689436 0.00183826 0)
(0.685955 0.00186294 0)
(0.681933 0.00185628 0)
(0.678942 0.00189262 0)
(0.674549 0.00241771 0)
(0.671399 0.00205474 0)
(1.00451 0.0349673 0)
(1.04359 0.0339728 0)
(1.05993 0.0240542 0)
(1.06222 0.020309 0)
(1.06251 0.0178255 0)
(1.06184 0.0157675 0)
(1.05927 0.0143227 0)
(1.05473 0.0132234 0)
(1.04853 0.0122738 0)
(1.04098 0.011428 0)
(1.03237 0.0106747 0)
(1.02295 0.0100003 0)
(1.01295 0.0093919 0)
(1.00257 0.00884004 0)
(0.991975 0.0083378 0)
(0.981294 0.00787956 0)
(0.970632 0.00746054 0)
(0.960066 0.00707651 0)
(0.949659 0.00672374 0)
(0.939454 0.00639893 0)
(0.929485 0.0060991 0)
(0.919775 0.00582164 0)
(0.910339 0.00556418 0)
(0.901186 0.00532463 0)
(0.892322 0.00510113 0)
(0.883749 0.00489197 0)
(0.875465 0.00469567 0)
(0.867468 0.00451082 0)
(0.859755 0.00433621 0)
(0.852319 0.00417068 0)
(0.845157 0.00401322 0)
(0.83826 0.00386289 0)
(0.831624 0.00371876 0)
(0.825241 0.00358032 0)
(0.819108 0.00344631 0)
(0.813214 0.00331739 0)
(0.807558 0.00319084 0)
(0.80213 0.00307054 0)
(0.796928 0.00294919 0)
(0.791944 0.00283949 0)
(0.787164 0.00272149 0)
(0.782608 0.00263013 0)
(0.778203 0.0025154 0)
(0.774067 0.00246016 0)
(0.769942 0.00236117 0)
(0.766228 0.00236629 0)
(0.762197 0.00236839 0)
(0.758844 0.00239766 0)
(0.754623 0.00293406 0)
(0.751124 0.00287123 0)
(1.00412 0.0325368 0)
(1.04026 0.0329197 0)
(1.05616 0.02342 0)
(1.05886 0.0199251 0)
(1.06024 0.0176971 0)
(1.06162 0.0157707 0)
(1.06199 0.0144272 0)
(1.06109 0.0134431 0)
(1.05904 0.0126092 0)
(1.05593 0.0118685 0)
(1.05185 0.0112076 0)
(1.04693 0.0106123 0)
(1.04129 0.0100697 0)
(1.03505 0.00957112 0)
(1.02834 0.00911077 0)
(1.02127 0.0086844 0)
(1.01393 0.00828864 0)
(1.0064 0.00792059 0)
(0.998766 0.00757773 0)
(0.991077 0.0072578 0)
(0.983385 0.00695876 0)
(0.975732 0.00667871 0)
(0.96815 0.00641595 0)
(0.960668 0.00616888 0)
(0.953305 0.00593609 0)
(0.94608 0.0057162 0)
(0.939006 0.00550802 0)
(0.932093 0.00531037 0)
(0.92535 0.00512223 0)
(0.918781 0.00494259 0)
(0.912393 0.00477054 0)
(0.906186 0.00460525 0)
(0.900164 0.00444585 0)
(0.894326 0.00429188 0)
(0.888674 0.00414214 0)
(0.883205 0.0039973 0)
(0.877921 0.00385468 0)
(0.872817 0.00371817 0)
(0.867896 0.0035806 0)
(0.863151 0.00345449 0)
(0.858578 0.00332064 0)
(0.854186 0.0032127 0)
(0.849931 0.00308428 0)
(0.845887 0.00301163 0)
(0.841884 0.00290631 0)
(0.838176 0.00289174 0)
(0.834296 0.00290324 0)
(0.830844 0.00293124 0)
(0.826878 0.00346802 0)
(0.82333 0.00365293 0)
(1.00374 0.0302026 0)
(1.03727 0.0318709 0)
(1.05283 0.0228171 0)
(1.05562 0.0195235 0)
(1.05715 0.0175073 0)
(1.05907 0.0156697 0)
(1.06051 0.0143739 0)
(1.0612 0.0134532 0)
(1.06121 0.0126926 0)
(1.06057 0.0120258 0)
(1.05927 0.0114367 0)
(1.05733 0.0109097 0)
(1.0548 0.0104306 0)
(1.05171 0.00998946 0)
(1.04813 0.00958004 0)
(1.04413 0.00919803 0)
(1.03975 0.00884027 0)
(1.03507 0.00850428 0)
(1.03014 0.00818802 0)
(1.025 0.00788977 0)
(1.01971 0.00760801 0)
(1.01431 0.00734137 0)
(1.00883 0.00708861 0)
(1.0033 0.00684855 0)
(0.997752 0.00662015 0)
(0.992209 0.00640237 0)
(0.986693 0.00619429 0)
(0.98122 0.005995 0)
(0.975806 0.00580369 0)
(0.970465 0.00561953 0)
(0.965208 0.0054418 0)
(0.960043 0.00526981 0)
(0.95498 0.00510279 0)
(0.950024 0.00494041 0)
(0.945182 0.00478154 0)
(0.940457 0.00462691 0)
(0.935854 0.00447398 0)
(0.931374 0.00432658 0)
(0.927021 0.00417788 0)
(0.922795 0.00403994 0)
(0.918694 0.00389492 0)
(0.914727 0.00377413 0)
(0.910864 0.00363648 0)
(0.907155 0.00354917 0)
(0.903491 0.00344139 0)
(0.900026 0.00340996 0)
(0.896474 0.00343062 0)
(0.893176 0.00346431 0)
(0.889589 0.00399226 0)
(0.88626 0.00437083 0)
(1.00337 0.0279672 0)
(1.03443 0.030814 0)
(1.04972 0.022239 0)
(1.05266 0.0191192 0)
(1.05414 0.0172991 0)
(1.05613 0.0155396 0)
(1.05784 0.0142659 0)
(1.05905 0.0133761 0)
(1.05987 0.0126561 0)
(1.06033 0.0120324 0)
(1.06042 0.0114879 0)
(1.06012 0.011007 0)
(1.05942 0.0105744 0)
(1.05833 0.0101789 0)
(1.05686 0.00981326 0)
(1.05503 0.00947251 0)
(1.05288 0.00915303 0)
(1.05042 0.00885209 0)
(1.04769 0.00856755 0)
(1.04472 0.00829771 0)
(1.04154 0.00804115 0)
(1.03818 0.00779663 0)
(1.03466 0.0075631 0)
(1.03102 0.00733958 0)
(1.02727 0.00712519 0)
(1.02345 0.00691909 0)
(1.01956 0.00672055 0)
(1.01563 0.00652882 0)
(1.01168 0.00634325 0)
(1.00772 0.00616317 0)
(1.00376 0.005988 0)
(0.999823 0.00581718 0)
(0.995912 0.00565008 0)
(0.992038 0.00548646 0)
(0.988212 0.0053253 0)
(0.984439 0.00516741 0)
(0.980727 0.0050104 0)
(0.977081 0.00485803 0)
(0.973507 0.00470394 0)
(0.970008 0.0045595 0)
(0.966584 0.00440865 0)
(0.963244 0.0042797 0)
(0.959971 0.00413783 0)
(0.956796 0.00403997 0)
(0.953654 0.00393361 0)
(0.950632 0.00389003 0)
(0.947567 0.00391938 0)
(0.944637 0.00396528 0)
(0.941556 0.00447739 0)
(0.938662 0.0049975 0)
(1.00301 0.0258341 0)
(1.03171 0.029745 0)
(1.04673 0.0216822 0)
(1.04987 0.018712 0)
(1.05133 0.0170791 0)
(1.05328 0.0154025 0)
(1.05502 0.0141442 0)
(1.05635 0.0132706 0)
(1.0574 0.0125737 0)
(1.05825 0.0119737 0)
(1.0589 0.0114536 0)
(1.05933 0.0109991 0)
(1.05953 0.0105947 0)
(1.0595 0.0102287 0)
(1.05922 0.00989324 0)
(1.05871 0.00958274 0)
(1.05796 0.0092931 0)
(1.05698 0.00902116 0)
(1.05578 0.00876447 0)
(1.05437 0.00852107 0)
(1.05277 0.00828939 0)
(1.05099 0.00806808 0)
(1.04906 0.00785602 0)
(1.04697 0.00765221 0)
(1.04476 0.00745578 0)
(1.04243 0.00726592 0)
(1.04 0.00708191 0)
(1.03748 0.00690306 0)
(1.0349 0.00672878 0)
(1.03225 0.00655849 0)
(1.02957 0.00639164 0)
(1.02684 0.00622779 0)
(1.0241 0.00606634 0)
(1.02134 0.00590719 0)
(1.01858 0.00574937 0)
(1.01583 0.00559377 0)
(1.01308 0.00543812 0)
(1.01036 0.0052861 0)
(1.00766 0.00513188 0)
(1.00499 0.00498599 0)
(1.00235 0.0048344 0)
(0.99975 0.00470201 0)
(0.997182 0.00456068 0)
(0.994663 0.00445685 0)
(0.992158 0.00435532 0)
(0.989711 0.0043051 0)
(0.98724 0.00434251 0)
(0.984829 0.00440551 0)
(0.982344 0.00489699 0)
(0.980031 0.005511 0)
(1.00268 0.0238058 0)
(1.02911 0.0286622 0)
(1.04382 0.0211461 0)
(1.04718 0.0183017 0)
(1.04864 0.0168457 0)
(1.05055 0.015261 0)
(1.05229 0.0140198 0)
(1.05363 0.0131578 0)
(1.05471 0.0124774 0)
(1.05566 0.0118924 0)
(1.05648 0.0113858 0)
(1.05717 0.0109454 0)
(1.05774 0.0105564 0)
(1.05817 0.010207 0)
(1.05846 0.00988933 0)
(1.05861 0.00959751 0)
(1.05862 0.00932722 0)
(1.05848 0.00907504 0)
(1.05819 0.00883827 0)
(1.05776 0.00861471 0)
(1.05718 0.00840258 0)
(1.05647 0.00820038 0)
(1.05563 0.00800682 0)
(1.05466 0.00782079 0)
(1.05357 0.0076413 0)
(1.05238 0.00746747 0)
(1.05108 0.00729851 0)
(1.04969 0.0071337 0)
(1.04822 0.00697238 0)
(1.04668 0.00681398 0)
(1.04506 0.00665795 0)
(1.0434 0.00650386 0)
(1.04168 0.00635113 0)
(1.03993 0.00619971 0)
(1.03814 0.00604866 0)
(1.03633 0.00589889 0)
(1.0345 0.00574829 0)
(1.03265 0.00560035 0)
(1.0308 0.00544985 0)
(1.02895 0.00530634 0)
(1.02709 0.00515794 0)
(1.02525 0.005026 0)
(1.0234 0.00488893 0)
(1.02157 0.00478326 0)
(1.01973 0.004689 0)
(1.01791 0.00463728 0)
(1.01607 0.0046819 0)
(1.01424 0.00476449 0)
(1.01239 0.00523221 0)
(1.01072 0.00589854 0)
(1.00238 0.021884 0)
(1.02664 0.0275648 0)
(1.04099 0.0206305 0)
(1.04457 0.01789 0)
(1.04605 0.0165977 0)
(1.04793 0.0151137 0)
(1.04967 0.013894 0)
(1.051 0.0130427 0)
(1.05207 0.0123771 0)
(1.05302 0.0118044 0)
(1.05387 0.0113072 0)
(1.05463 0.0108753 0)
(1.05531 0.0104949 0)
(1.05591 0.0101547 0)
(1.05642 0.00984664 0)
(1.05686 0.00956517 0)
(1.05721 0.0093059 0)
(1.05747 0.00906536 0)
(1.05765 0.00884078 0)
(1.05774 0.00862985 0)
(1.05774 0.00843068 0)
(1.05764 0.00824165 0)
(1.05746 0.00806135 0)
(1.05719 0.00788856 0)
(1.05683 0.00772217 0)
(1.05639 0.0075612 0)
(1.05587 0.00740476 0)
(1.05526 0.00725204 0)
(1.05459 0.00710231 0)
(1.05385 0.00695494 0)
(1.05305 0.00680932 0)
(1.05218 0.00666501 0)
(1.05127 0.00652139 0)
(1.05031 0.00637843 0)
(1.04931 0.00623518 0)
(1.04827 0.00609256 0)
(1.0472 0.00594857 0)
(1.0461 0.00580647 0)
(1.04498 0.00566168 0)
(1.04384 0.00552266 0)
(1.04267 0.00537975 0)
(1.0415 0.00525071 0)
(1.04031 0.00512011 0)
(1.03911 0.00501564 0)
(1.03789 0.00492975 0)
(1.03666 0.00488048 0)
(1.03541 0.00493098 0)
(1.03416 0.00503302 0)
(1.03291 0.00547476 0)
(1.03186 0.00615852 0)
(1.0021 0.0200698 0)
(1.0243 0.0264547 0)
(1.03826 0.0201331 0)
(1.04205 0.0174787 0)
(1.04354 0.016335 0)
(1.0454 0.0149592 0)
(1.04714 0.013766 0)
(1.04847 0.0129255 0)
(1.04953 0.0122747 0)
(1.05046 0.0117144 0)
(1.05131 0.0112256 0)
(1.05207 0.0108002 0)
(1.05277 0.0104258 0)
(1.0534 0.0100912 0)
(1.05398 0.00978883 0)
(1.05451 0.0095131 0)
(1.05499 0.00925983 0)
(1.05542 0.00902564 0)
(1.0558 0.00880779 0)
(1.05612 0.008604 0)
(1.0564 0.00841236 0)
(1.05661 0.00823122 0)
(1.05678 0.00805914 0)
(1.05689 0.00789482 0)
(1.05694 0.00773711 0)
(1.05693 0.00758493 0)
(1.05687 0.00743731 0)
(1.05675 0.00729338 0)
(1.05658 0.00715233 0)
(1.05636 0.00701346 0)
(1.05609 0.00687609 0)
(1.05578 0.00673977 0)
(1.05542 0.00660382 0)
(1.05502 0.0064682 0)
(1.05458 0.00633195 0)
(1.0541 0.00619594 0)
(1.0536 0.00605833 0)
(1.05306 0.00592208 0)
(1.0525 0.00578328 0)
(1.0519 0.00564923 0)
(1.05129 0.00551245 0)
(1.05065 0.0053873 0)
(1.04999 0.00526378 0)
(1.04931 0.00516221 0)
(1.0486 0.00508445 0)
(1.04787 0.00503996 0)
(1.04712 0.0050945 0)
(1.04638 0.00521336 0)
(1.04565 0.00562729 0)
(1.04514 0.0063003 0)
(1.00185 0.0183633 0)
(1.0221 0.025336 0)
(1.03563 0.0196502 0)
(1.03961 0.0170696 0)
(1.04113 0.0160583 0)
(1.04295 0.0147966 0)
(1.04469 0.0136356 0)
(1.04602 0.0128061 0)
(1.04708 0.0121701 0)
(1.048 0.0116227 0)
(1.04883 0.0111426 0)
(1.04958 0.0107235 0)
(1.05027 0.0103543 0)
(1.0509 0.0100243 0)
(1.05149 0.00972599 0)
(1.05204 0.00945401 0)
(1.05255 0.00920434 0)
(1.05303 0.00897375 0)
(1.05348 0.00875959 0)
(1.05389 0.00855966 0)
(1.05427 0.0083721 0)
(1.05462 0.00819528 0)
(1.05494 0.00802778 0)
(1.05523 0.00786831 0)
(1.05548 0.00771567 0)
(1.05569 0.00756877 0)
(1.05587 0.00742661 0)
(1.05602 0.00728824 0)
(1.05613 0.00715281 0)
(1.0562 0.00701958 0)
(1.05625 0.00688783 0)
(1.05626 0.00675706 0)
(1.05624 0.00662658 0)
(1.05619 0.0064963 0)
(1.05611 0.0063653 0)
(1.056 0.00623437 0)
(1.05587 0.00610184 0)
(1.05571 0.00597033 0)
(1.05552 0.00583663 0)
(1.05532 0.00570689 0)
(1.05509 0.00557564 0)
(1.05483 0.00545422 0)
(1.05456 0.00533718 0)
(1.05426 0.00523899 0)
(1.05393 0.0051681 0)
(1.05359 0.00512914 0)
(1.05322 0.00518546 0)
(1.05287 0.00531672 0)
(1.05255 0.00570102 0)
(1.05248 0.00634157 0)
(1.00162 0.0167644 0)
(1.02004 0.024213 0)
(1.0331 0.0191777 0)
(1.03726 0.0166643 0)
(1.03881 0.0157686 0)
(1.0406 0.0146254 0)
(1.04233 0.0135023 0)
(1.04367 0.0126844 0)
(1.04472 0.0120632 0)
(1.04562 0.0115294 0)
(1.04644 0.0110585 0)
(1.04718 0.0106458 0)
(1.04786 0.0102819 0)
(1.04848 0.00995625 0)
(1.04906 0.00966155 0)
(1.0496 0.00939267 0)
(1.05011 0.00914573 0)
(1.0506 0.00891761 0)
(1.05106 0.00870579 0)
(1.0515 0.00850813 0)
(1.05191 0.00832287 0)
(1.05231 0.00814842 0)
(1.05268 0.0079834 0)
(1.05303 0.00782655 0)
(1.05336 0.00767668 0)
(1.05367 0.0075327 0)
(1.05396 0.00739358 0)
(1.05423 0.00725837 0)
(1.05447 0.00712619 0)
(1.0547 0.00699626 0)
(1.0549 0.00686785 0)
(1.05508 0.00674043 0)
(1.05525 0.00661331 0)
(1.05539 0.00648639 0)
(1.05551 0.00635876 0)
(1.05562 0.00623114 0)
(1.0557 0.00610206 0)
(1.05577 0.00597381 0)
(1.05582 0.00584383 0)
(1.05585 0.00571722 0)
(1.05587 0.00559028 0)
(1.05586 0.00547181 0)
(1.05583 0.00535993 0)
(1.05579 0.00526484 0)
(1.05572 0.00519898 0)
(1.05564 0.00516511 0)
(1.05554 0.00522079 0)
(1.05547 0.00535895 0)
(1.05546 0.0057118 0)
(1.05569 0.00630406 0)
(1.00142 0.0152721 0)
(1.01811 0.0230897 0)
(1.03067 0.0187116 0)
(1.035 0.0162643 0)
(1.03659 0.0154674 0)
(1.03834 0.0144448 0)
(1.04006 0.0133659 0)
(1.0414 0.0125604 0)
(1.04244 0.0119539 0)
(1.04334 0.0114343 0)
(1.04414 0.0109731 0)
(1.04487 0.0105672 0)
(1.04554 0.0102086 0)
(1.04615 0.00988744 0)
(1.04672 0.0095964 0)
(1.04725 0.00933052 0)
(1.04775 0.00908607 0)
(1.04823 0.00886008 0)
(1.04868 0.00865011 0)
(1.04912 0.00845413 0)
(1.04954 0.00827042 0)
(1.04994 0.00809747 0)
(1.05032 0.00793394 0)
(1.05069 0.00777859 0)
(1.05105 0.00763027 0)
(1.05139 0.00748789 0)
(1.05172 0.00735042 0)
(1.05203 0.00721692 0)
(1.05233 0.00708647 0)
(1.05262 0.00695831 0)
(1.05289 0.00683167 0)
(1.05315 0.00670605 0)
(1.0534 0.00658073 0)
(1.05364 0.00645561 0)
(1.05386 0.00632985 0)
(1.05407 0.00620407 0)
(1.05427 0.00607703 0)
(1.05446 0.00595066 0)
(1.05464 0.00582307 0)
(1.0548 0.0056984 0)
(1.05495 0.00557446 0)
(1.05508 0.005458 0)
(1.0552 0.00534978 0)
(1.05531 0.00525711 0)
(1.0554 0.00519438 0)
(1.05548 0.00516439 0)
(1.05556 0.00521714 0)
(1.05567 0.00535643 0)
(1.05586 0.00567611 0)
(1.0563 0.00620932 0)
(1.00124 0.0138852 0)
(1.01632 0.02197 0)
(1.02835 0.0182482 0)
(1.03282 0.0158708 0)
(1.03446 0.0151562 0)
(1.03616 0.0142544 0)
(1.03788 0.0132259 0)
(1.03922 0.0124342 0)
(1.04026 0.011842 0)
(1.04115 0.0113371 0)
(1.04194 0.0108863 0)
(1.04266 0.0104875 0)
(1.04331 0.0101345 0)
(1.04391 0.00981793 0)
(1.04447 0.00953065 0)
(1.04499 0.00926783 0)
(1.04548 0.00902589 0)
(1.04595 0.00880199 0)
(1.04639 0.00859377 0)
(1.04682 0.00839929 0)
(1.04723 0.00821689 0)
(1.04762 0.00804512 0)
(1.04801 0.00788269 0)
(1.04838 0.00772839 0)
(1.04873 0.00758109 0)
(1.04908 0.00743971 0)
(1.04942 0.00730322 0)
(1.04974 0.00717068 0)
(1.05006 0.00704117 0)
(1.05036 0.00691393 0)
(1.05066 0.00678817 0)
(1.05095 0.0066634 0)
(1.05123 0.00653893 0)
(1.0515 0.00641463 0)
(1.05176 0.00628974 0)
(1.05202 0.00616479 0)
(1.05227 0.00603878 0)
(1.05252 0.00591331 0)
(1.05275 0.00578708 0)
(1.05298 0.00566342 0)
(1.0532 0.00554138 0)
(1.0534 0.00542612 0)
(1.0536 0.00532025 0)
(1.05379 0.00522926 0)
(1.05396 0.00516796 0)
(1.05414 0.00514032 0)
(1.05432 0.00518814 0)
(1.05454 0.00532309 0)
(1.05485 0.00560814 0)
(1.05542 0.0060757 0)
(1.00107 0.0126016 0)
(1.01466 0.0208581 0)
(1.02615 0.017784 0)
(1.03073 0.0154847 0)
(1.03242 0.0148368 0)
(1.03409 0.0140537 0)
(1.03578 0.0130819 0)
(1.03713 0.0123058 0)
(1.03817 0.0117276 0)
(1.03904 0.0112377 0)
(1.03983 0.010798 0)
(1.04054 0.0104067 0)
(1.04118 0.0100594 0)
(1.04177 0.00974763 0)
(1.04231 0.00946426 0)
(1.04282 0.00920461 0)
(1.0433 0.00896526 0)
(1.04376 0.00874348 0)
(1.0442 0.00853703 0)
(1.04461 0.00834403 0)
(1.04501 0.00816291 0)
(1.0454 0.00799225 0)
(1.04577 0.00783081 0)
(1.04614 0.00767741 0)
(1.04649 0.00753094 0)
(1.04683 0.00739033 0)
(1.04716 0.00725456 0)
(1.04748 0.00712267 0)
(1.0478 0.00699375 0)
(1.0481 0.00686702 0)
(1.0484 0.00674171 0)
(1.0487 0.00661733 0)
(1.04899 0.00649319 0)
(1.04927 0.00636918 0)
(1.04955 0.00624461 0)
(1.04982 0.00611991 0)
(1.05009 0.00599431 0)
(1.05035 0.00586914 0)
(1.05061 0.0057436 0)
(1.05086 0.00562035 0)
(1.05111 0.00549941 0)
(1.05135 0.00538479 0)
(1.05158 0.00528022 0)
(1.0518 0.00519024 0)
(1.05202 0.00512905 0)
(1.05225 0.00510215 0)
(1.05248 0.00514336 0)
(1.05277 0.00526919 0)
(1.05316 0.00551846 0)
(1.0538 0.00591715 0)
(1.00093 0.0114187 0)
(1.01314 0.019758 0)
(1.02405 0.017316 0)
(1.02873 0.0151065 0)
(1.03048 0.0145113 0)
(1.0321 0.0138424 0)
(1.03378 0.0129333 0)
(1.03513 0.0121752 0)
(1.03617 0.0116106 0)
(1.03703 0.011136 0)
(1.03781 0.010708 0)
(1.03851 0.0103246 0)
(1.03914 0.00998335 0)
(1.03972 0.00967647 0)
(1.04025 0.00939716 0)
(1.04075 0.00914079 0)
(1.04122 0.00890411 0)
(1.04167 0.00868453 0)
(1.0421 0.0084799 0)
(1.0425 0.00828844 0)
(1.0429 0.00810861 0)
(1.04327 0.00793907 0)
(1.04364 0.00777862 0)
(1.04399 0.00762609 0)
(1.04433 0.00748041 0)
(1.04467 0.00734051 0)
(1.04499 0.00720536 0)
(1.04531 0.00707401 0)
(1.04561 0.00694555 0)
(1.04592 0.00681918 0)
(1.04621 0.00669414 0)
(1.0465 0.00656993 0)
(1.04679 0.00644591 0)
(1.04707 0.00632193 0)
(1.04735 0.0061974 0)
(1.04762 0.00607266 0)
(1.04789 0.00594715 0)
(1.04816 0.00582195 0)
(1.04842 0.0056967 0)
(1.04868 0.00557352 0)
(1.04893 0.00545315 0)
(1.04918 0.0053388 0)
(1.04943 0.0052348 0)
(1.04967 0.00514526 0)
(1.04991 0.00508315 0)
(1.05016 0.00505544 0)
(1.05042 0.00508868 0)
(1.05075 0.0052014 0)
(1.05119 0.00541411 0)
(1.05186 0.00574325 0)
(1.0008 0.0103331 0)
(1.01174 0.0186739 0)
(1.02207 0.0168415 0)
(1.02682 0.0147367 0)
(1.02863 0.0141816 0)
(1.03022 0.0136205 0)
(1.03186 0.0127794 0)
(1.03322 0.0120423 0)
(1.03425 0.0114911 0)
(1.03511 0.0110319 0)
(1.03588 0.0106162 0)
(1.03657 0.0102412 0)
(1.03719 0.00990615 0)
(1.03776 0.00960437 0)
(1.03829 0.00932926 0)
(1.03878 0.00907631 0)
(1.03924 0.0088424 0)
(1.03968 0.00862509 0)
(1.04009 0.00842235 0)
(1.04049 0.00823246 0)
(1.04087 0.00805397 0)
(1.04124 0.00788558 0)
(1.0416 0.00772614 0)
(1.04194 0.00757451 0)
(1.04228 0.00742962 0)
(1.0426 0.00729042 0)
(1.04292 0.00715589 0)
(1.04323 0.00702507 0)
(1.04353 0.00689701 0)
(1.04382 0.00677095 0)
(1.04411 0.00664613 0)
(1.04439 0.00652201 0)
(1.04467 0.00639801 0)
(1.04495 0.00627395 0)
(1.04522 0.00614934 0)
(1.04549 0.00602442 0)
(1.04576 0.00589883 0)
(1.04602 0.00577345 0)
(1.04628 0.00564825 0)
(1.04654 0.00552497 0)
(1.0468 0.00540482 0)
(1.04705 0.0052905 0)
(1.0473 0.00518653 0)
(1.04754 0.00509693 0)
(1.04779 0.00503313 0)
(1.04805 0.00500315 0)
(1.04834 0.00502728 0)
(1.04869 0.00512373 0)
(1.04915 0.00529944 0)
(1.04984 0.00556022 0)
(1.00069 0.0093411 0)
(1.01046 0.0176098 0)
(1.02019 0.0163581 0)
(1.02499 0.014375 0)
(1.02687 0.0138498 0)
(1.02842 0.0133881 0)
(1.03004 0.0126197 0)
(1.03139 0.011907 0)
(1.03243 0.0113692 0)
(1.03328 0.0109252 0)
(1.03404 0.0105225 0)
(1.03472 0.0101564 0)
(1.03534 0.00982776 0)
(1.0359 0.00953125 0)
(1.03641 0.0092605 0)
(1.0369 0.00901108 0)
(1.03735 0.00878005 0)
(1.03778 0.0085651 0)
(1.03819 0.0083643 0)
(1.03858 0.00817604 0)
(1.03895 0.00799893 0)
(1.03931 0.00783174 0)
(1.03966 0.00767334 0)
(1.03999 0.00752263 0)
(1.04032 0.00737856 0)
(1.04064 0.00724009 0)
(1.04095 0.00710619 0)
(1.04125 0.00697588 0)
(1.04154 0.00684825 0)
(1.04183 0.00672249 0)
(1.04211 0.00659784 0)
(1.04238 0.0064738 0)
(1.04266 0.00634978 0)
(1.04293 0.0062256 0)
(1.04319 0.00610084 0)
(1.04346 0.00597569 0)
(1.04372 0.00584993 0)
(1.04398 0.00572428 0)
(1.04424 0.00559899 0)
(1.04449 0.00547551 0)
(1.04474 0.00535532 0)
(1.04499 0.00524085 0)
(1.04524 0.00513651 0)
(1.04549 0.00504638 0)
(1.04574 0.00498025 0)
(1.04601 0.00494668 0)
(1.0463 0.00496067 0)
(1.04667 0.00503844 0)
(1.04714 0.00517707 0)
(1.04783 0.00537199 0)
(1.0006 0.0084384 0)
(1.0093 0.0165699 0)
(1.01844 0.015864 0)
(1.02324 0.0140212 0)
(1.02519 0.0135177 0)
(1.02671 0.0131458 0)
(1.0283 0.0124535 0)
(1.02965 0.0117691 0)
(1.03069 0.0112447 0)
(1.03154 0.0108159 0)
(1.03229 0.0104266 0)
(1.03296 0.0100699 0)
(1.03357 0.00974808 0)
(1.03412 0.009457 0)
(1.03463 0.00919076 0)
(1.03511 0.00894503 0)
(1.03555 0.00871698 0)
(1.03597 0.00850447 0)
(1.03637 0.00830569 0)
(1.03675 0.00811912 0)
(1.03712 0.00794344 0)
(1.03747 0.00777749 0)
(1.03781 0.00762017 0)
(1.03814 0.00747041 0)
(1.03846 0.00732719 0)
(1.03877 0.00718947 0)
(1.03907 0.00705622 0)
(1.03936 0.00692645 0)
(1.03965 0.00679924 0)
(1.03993 0.00667377 0)
(1.0402 0.00654931 0)
(1.04047 0.00642532 0)
(1.04074 0.00630127 0)
(1.041 0.00617695 0)
(1.04126 0.00605201 0)
(1.04152 0.00592659 0)
(1.04178 0.0058006 0)
(1.04203 0.00567464 0)
(1.04228 0.00554915 0)
(1.04253 0.00542538 0)
(1.04278 0.00530498 0)
(1.04303 0.00519018 0)
(1.04327 0.00508514 0)
(1.04352 0.00499399 0)
(1.04377 0.00492498 0)
(1.04405 0.0048866 0)
(1.04435 0.00488954 0)
(1.04473 0.00494689 0)
(1.04521 0.00504873 0)
(1.0459 0.00518115 0)
(1.00051 0.00762019 0)
(1.00825 0.0155579 0)
(1.01679 0.0153581 0)
(1.02158 0.0136746 0)
(1.0236 0.0131871 0)
(1.0251 0.0128943 0)
(1.02664 0.0122804 0)
(1.02799 0.0116284 0)
(1.02903 0.0111179 0)
(1.02988 0.0107039 0)
(1.03062 0.0103285 0)
(1.03129 0.0099818 0)
(1.03189 0.009667 0)
(1.03244 0.00938155 0)
(1.03294 0.00911998 0)
(1.03341 0.00887806 0)
(1.03384 0.00865311 0)