/*--------------------------------*- C++ -*----------------------------------*\
  =========                 |
  \\      /  F ield         | OpenFOAM: The Open Source CFD Toolbox
   \\    /   O peration     | Website:  https://openfoam.org
    \\  /    A nd           | Version:  7
     \\/     M anipulation  |
\*---------------------------------------------------------------------------*/
FoamFile
{
    version     2.0;
    format      ascii;
    class       volVectorField;
    location    "0.19";
    object      vorticity;
}
// * * * * * * * * * * * * * * * * * * * * * * * * * * * * * * * * * * * * * //

dimensions      [0 0 -1 0 0 0 0];

internalField   nonuniform List<vector> 
70000
(
(0 -0 -45716)
(0 -0 -28617.6)
(0 -0 -20913.3)
(0 -0 -16980)
(0 -0 -14958.9)
(0 -0 -13652.1)
(0 -0 -12643.1)
(0 -0 -11831.2)
(0 -0 -11168.2)
(0 -0 -10615.2)
(0 -0 -10144.4)
(0 -0 -9737)
(0 -0 -9380.14)
(0 -0 -9064.43)
(0 -0 -8782.74)
(0 -0 -8529.6)
(0 -0 -8300.68)
(0 -0 -8092.52)
(0 -0 -7902.35)
(0 -0 -7727.85)
(0 -0 -7567.16)
(0 -0 -7418.66)
(0 -0 -7281.05)
(0 -0 -7153.17)
(0 -0 -7034.07)
(0 -0 -6922.91)
(0 -0 -6818.97)
(0 -0 -6721.64)
(0 -0 -6630.37)
(0 -0 -6544.68)
(0 -0 -6464.17)
(0 -0 -6388.44)
(0 -0 -6317.21)
(0 -0 -6250.14)
(0 -0 -6187.01)
(0 -0 -6127.53)
(0 -0 -6071.49)
(0 -0 -6018.74)
(0 -0 -5968.74)
(0 -0 -5922.04)
(0 -0 -5876.6)
(0 -0 -5835.67)
(0 -0 -5791.79)
(0 -0 -5757.66)
(0 -0 -5707.76)
(0 -0 -5685.85)
(0 -0 -5608.74)
(0 -0 -5616.43)
(0 -0 -5469.65)
(0 -0 -5297.97)
(0 -0 -13549.7)
(0 -0 -19947.3)
(0 -0 -18536.2)
(0 -0 -16249.8)
(0 -0 -14504)
(0 -0 -13280.4)
(0 -0 -12352.7)
(0 -0 -11603.4)
(0 -0 -10982)
(0 -0 -10457.9)
(0 -0 -10008.7)
(0 -0 -9618.15)
(0 -0 -9274.77)
(0 -0 -8969.95)
(0 -0 -8697.21)
(0 -0 -8451.49)
(0 -0 -8228.81)
(0 -0 -8025.93)
(0 -0 -7840.27)
(0 -0 -7669.65)
(0 -0 -7512.3)
(0 -0 -7366.71)
(0 -0 -7231.62)
(0 -0 -7105.96)
(0 -0 -6988.79)
(0 -0 -6879.33)
(0 -0 -6776.88)
(0 -0 -6680.86)
(0 -0 -6590.75)
(0 -0 -6506.08)
(0 -0 -6426.47)
(0 -0 -6351.56)
(0 -0 -6281.08)
(0 -0 -6214.71)
(0 -0 -6152.26)
(0 -0 -6093.49)
(0 -0 -6038.21)
(0 -0 -5986.32)
(0 -0 -5937.42)
(0 -0 -5891.96)
(0 -0 -5848.45)
(0 -0 -5809.44)
(0 -0 -5769.46)
(0 -0 -5738.14)
(0 -0 -5697.01)
(0 -0 -5678.2)
(0 -0 -5623.56)
(0 -0 -5628.99)
(0 -0 -5544.39)
(0 -0 -5596.25)
(0 -0 -3818.77)
(0 -0 -10828.8)
(0 -0 -13363.3)
(0 -0 -13519.5)
(0 -0 -12866.2)
(0 -0 -12140.3)
(0 -0 -11499)
(0 -0 -10939.2)
(0 -0 -10448.1)
(0 -0 -10016.5)
(0 -0 -9635.64)
(0 -0 -9297.35)
(0 -0 -8994.87)
(0 -0 -8722.73)
(0 -0 -8476.52)
(0 -0 -8252.65)
(0 -0 -8048.14)
(0 -0 -7860.57)
(0 -0 -7687.88)
(0 -0 -7528.35)
(0 -0 -7380.54)
(0 -0 -7243.2)
(0 -0 -7115.28)
(0 -0 -6995.85)
(0 -0 -6884.13)
(0 -0 -6779.43)
(0 -0 -6681.15)
(0 -0 -6588.77)
(0 -0 -6501.82)
(0 -0 -6419.9)
(0 -0 -6342.67)
(0 -0 -6269.79)
(0 -0 -6201.01)
(0 -0 -6136.06)
(0 -0 -6074.77)
(0 -0 -6016.91)
(0 -0 -5962.35)
(0 -0 -5910.95)
(0 -0 -5862.47)
(0 -0 -5817.13)
(0 -0 -5774.08)
(0 -0 -5734.75)
(0 -0 -5696.05)
(0 -0 -5663.47)
(0 -0 -5626.8)
(0 -0 -5603.37)
(0 -0 -5563.94)
(0 -0 -5552.95)
(0 -0 -5509.93)
(0 -0 -5555.83)
(0 -0 -533.085)
(0 -0 -4662.65)
(0 -0 -7718.38)
(0 -0 -9328.36)
(0 -0 -9892.09)
(0 -0 -9957.46)
(0 -0 -9825.88)
(0 -0 -9614.19)
(0 -0 -9371.21)
(0 -0 -9121.66)
(0 -0 -8877.96)
(0 -0 -8645.67)
(0 -0 -8426.88)
(0 -0 -8222.02)
(0 -0 -8030.71)
(0 -0 -7852.23)
(0 -0 -7685.7)
(0 -0 -7530.2)
(0 -0 -7384.84)
(0 -0 -7248.78)
(0 -0 -7121.26)
(0 -0 -7001.55)
(0 -0 -6889.04)
(0 -0 -6783.14)
(0 -0 -6683.34)
(0 -0 -6589.17)
(0 -0 -6500.22)
(0 -0 -6416.11)
(0 -0 -6336.5)
(0 -0 -6261.1)
(0 -0 -6189.63)
(0 -0 -6121.84)
(0 -0 -6057.54)
(0 -0 -5996.51)
(0 -0 -5938.61)
(0 -0 -5883.65)
(0 -0 -5831.54)
(0 -0 -5782.13)
(0 -0 -5735.33)
(0 -0 -5691.08)
(0 -0 -5649.18)
(0 -0 -5609.86)
(0 -0 -5572.46)
(0 -0 -5538.03)
(0 -0 -5504.77)
(0 -0 -5474.8)
(0 -0 -5447.03)
(0 -0 -5416.39)
(0 -0 -5407.91)
(0 -0 -5373.98)
(0 -0 322.422)
(0 -0 -1444.57)
(0 -0 -3532.55)
(0 -0 -5258.99)
(0 -0 -6398.84)
(0 -0 -7073.38)
(0 -0 -7450.63)
(0 -0 -7641.08)
(0 -0 -7713.02)
(0 -0 -7710.75)
(0 -0 -7662.84)
(0 -0 -7587.39)
(0 -0 -7495.83)
(0 -0 -7395.42)
(0 -0 -7290.84)
(0 -0 -7185.1)
(0 -0 -7080.15)
(0 -0 -6977.21)
(0 -0 -6877.06)
(0 -0 -6780.15)
(0 -0 -6686.74)
(0 -0 -6596.92)
(0 -0 -6510.72)
(0 -0 -6428.1)
(0 -0 -6348.97)
(0 -0 -6273.22)
(0 -0 -6200.73)
(0 -0 -6131.37)
(0 -0 -6065.01)
(0 -0 -6001.51)
(0 -0 -5940.75)
(0 -0 -5882.62)
(0 -0 -5826.99)
(0 -0 -5773.75)
(0 -0 -5722.83)
(0 -0 -5674.09)
(0 -0 -5627.52)
(0 -0 -5582.94)
(0 -0 -5540.45)
(0 -0 -5499.73)
(0 -0 -5461.16)
(0 -0 -5423.96)
(0 -0 -5389.44)
(0 -0 -5355.04)
(0 -0 -5325.66)
(0 -0 -5291.55)
(0 -0 -5272.46)
(0 -0 -5228.41)
(0 -0 -5241)
(0 -0 -5162.25)
(0 -0 364.694)
(0 -0 -158.581)
(0 -0 -1181.53)
(0 -0 -2361.9)
(0 -0 -3417.14)
(0 -0 -4255.39)
(0 -0 -4890.04)
(0 -0 -5355.06)
(0 -0 -5685.57)
(0 -0 -5913.66)
(0 -0 -6065.67)
(0 -0 -6161.77)
(0 -0 -6216.89)
(0 -0 -6242.02)
(0 -0 -6245.2)
(0 -0 -6232.35)
(0 -0 -6207.85)
(0 -0 -6174.94)
(0 -0 -6136.04)
(0 -0 -6092.95)
(0 -0 -6047.04)
(0 -0 -5999.34)
(0 -0 -5950.62)
(0 -0 -5901.47)
(0 -0 -5852.35)
(0 -0 -5803.58)
(0 -0 -5755.42)
(0 -0 -5708.05)
(0 -0 -5661.62)
(0 -0 -5616.23)
(0 -0 -5571.93)
(0 -0 -5528.79)
(0 -0 -5486.82)
(0 -0 -5446.03)
(0 -0 -5406.45)
(0 -0 -5368.04)
(0 -0 -5330.86)
(0 -0 -5294.79)
(0 -0 -5260.02)
(0 -0 -5226.16)
(0 -0 -5193.93)
(0 -0 -5161.96)
(0 -0 -5132.75)
(0 -0 -5101.71)
(0 -0 -5077.35)
(0 -0 -5043.96)
(0 -0 -5030.72)
(0 -0 -4984.43)
(0 -0 -5001.27)
(0 -0 -4923.34)
(0 -0 254.015)
(0 -0 185.282)
(0 -0 -173.305)
(0 -0 -764.617)
(0 -0 -1447.44)
(0 -0 -2114.86)
(0 -0 -2719.54)
(0 -0 -3242.01)
(0 -0 -3678.17)
(0 -0 -4033.85)
(0 -0 -4319.38)
(0 -0 -4545.95)
(0 -0 -4723.91)
(0 -0 -4862.25)
(0 -0 -4968.51)
(0 -0 -5048.87)
(0 -0 -5108.35)
(0 -0 -5151)
(0 -0 -5180.08)
(0 -0 -5198.2)
(0 -0 -5207.47)
(0 -0 -5209.6)
(0 -0 -5205.98)
(0 -0 -5197.72)
(0 -0 -5185.73)
(0 -0 -5170.77)
(0 -0 -5153.45)
(0 -0 -5134.27)
(0 -0 -5113.65)
(0 -0 -5091.92)
(0 -0 -5069.36)
(0 -0 -5046.2)
(0 -0 -5022.64)
(0 -0 -4998.81)
(0 -0 -4974.86)
(0 -0 -4950.88)
(0 -0 -4926.99)
(0 -0 -4903.16)
(0 -0 -4879.67)
(0 -0 -4856.17)
(0 -0 -4833.46)
(0 -0 -4810.14)
(0 -0 -4788.94)
(0 -0 -4764.98)
(0 -0 -4747.22)
(0 -0 -4719.73)
(0 -0 -4710.98)
(0 -0 -4671.93)
(0 -0 -4684.95)
(0 -0 -4626.04)
(0 -0 178.739)
(0 -0 204.491)
(0 -0 130.643)
(0 -0 -85.1999)
(0 -0 -417.77)
(0 -0 -814.553)
(0 -0 -1235.65)
(0 -0 -1652.15)
(0 -0 -2044.18)
(0 -0 -2400.78)
(0 -0 -2717.74)
(0 -0 -2995.01)
(0 -0 -3234.83)
(0 -0 -3440.54)
(0 -0 -3615.92)
(0 -0 -3764.69)
(0 -0 -3890.39)
(0 -0 -3996.18)
(0 -0 -4084.87)
(0 -0 -4158.9)
(0 -0 -4220.38)
(0 -0 -4271.1)
(0 -0 -4312.62)
(0 -0 -4346.25)
(0 -0 -4373.12)
(0 -0 -4394.2)
(0 -0 -4410.31)
(0 -0 -4422.16)
(0 -0 -4430.34)
(0 -0 -4435.37)
(0 -0 -4437.7)
(0 -0 -4437.7)
(0 -0 -4435.69)
(0 -0 -4431.96)
(0 -0 -4426.73)
(0 -0 -4420.21)
(0 -0 -4412.59)
(0 -0 -4403.97)
(0 -0 -4394.61)
(0 -0 -4384.34)
(0 -0 -4373.84)
(0 -0 -4362.07)
(0 -0 -4351.28)
(0 -0 -4337.54)
(0 -0 -4328.21)
(0 -0 -4310.45)
(0 -0 -4306.94)
(0 -0 -4279.98)
(0 -0 -4290.11)
(0 -0 -4251.74)
(0 -0 148.011)
(0 -0 164.598)
(0 -0 169.972)
(0 -0 120.964)
(0 -0 1.06643)
(0 -0 -180.587)
(0 -0 -408.578)
(0 -0 -666.517)
(0 -0 -938.541)
(0 -0 -1211.72)
(0 -0 -1476.83)
(0 -0 -1727.9)
(0 -0 -1961.45)
(0 -0 -2175.82)
(0 -0 -2370.66)
(0 -0 -2546.44)
(0 -0 -2704.15)
(0 -0 -2845.05)
(0 -0 -2970.51)
(0 -0 -3081.96)
(0 -0 -3180.74)
(0 -0 -3268.15)
(0 -0 -3345.35)
(0 -0 -3413.44)
(0 -0 -3473.4)
(0 -0 -3526.1)
(0 -0 -3572.33)
(0 -0 -3612.81)
(0 -0 -3648.15)
(0 -0 -3678.92)
(0 -0 -3705.61)
(0 -0 -3728.65)
(0 -0 -3748.42)
(0 -0 -3765.27)
(0 -0 -3779.48)
(0 -0 -3791.34)
(0 -0 -3801.06)
(0 -0 -3808.84)
(0 -0 -3814.9)
(0 -0 -3819.28)
(0 -0 -3822.43)
(0 -0 -3823.8)
(0 -0 -3824.92)
(0 -0 -3823.17)
(0 -0 -3823.79)
(0 -0 -3817.68)
(0 -0 -3821.13)
(0 -0 -3807.61)
(0 -0 -3818.68)
(0 -0 -3798.66)
(0 -0 136.818)
(0 -0 137.062)
(0 -0 148.724)
(0 -0 149.663)
(0 -0 122.184)
(0 -0 60.1467)
(0 -0 -36.2376)
(0 -0 -163.279)
(0 -0 -314.589)
(0 -0 -482.831)
(0 -0 -661.075)
(0 -0 -843.41)
(0 -0 -1025.11)
(0 -0 -1202.6)
(0 -0 -1373.36)
(0 -0 -1535.7)
(0 -0 -1688.63)
(0 -0 -1831.67)
(0 -0 -1964.69)
(0 -0 -2087.86)
(0 -0 -2201.49)
(0 -0 -2306.05)
(0 -0 -2402.02)
(0 -0 -2489.96)
(0 -0 -2570.42)
(0 -0 -2643.93)
(0 -0 -2711.04)
(0 -0 -2772.22)
(0 -0 -2827.97)
(0 -0 -2878.73)
(0 -0 -2924.9)
(0 -0 -2966.86)
(0 -0 -3004.95)
(0 -0 -3039.5)
(0 -0 -3070.77)
(0 -0 -3099.05)
(0 -0 -3124.53)
(0 -0 -3147.46)
(0 -0 -3168)
(0 -0 -3186.33)
(0 -0 -3202.68)
(0 -0 -3216.9)
(0 -0 -3229.91)
(0 -0 -3240.14)
(0 -0 -3251.11)
(0 -0 -3256.71)
(0 -0 -3268.17)
(0 -0 -3267.58)
(0 -0 -3282.46)
(0 -0 -3278.24)
(0 -0 129.938)
(0 -0 123.99)
(0 -0 129.171)
(0 -0 136.369)
(0 -0 136.456)
(0 -0 123.197)
(0 -0 92.9584)
(0 -0 43.9078)
(0 -0 -23.7645)
(0 -0 -108.2)
(0 -0 -206.606)
(0 -0 -315.829)
(0 -0 -432.721)
(0 -0 -554.381)
(0 -0 -678.279)
(0 -0 -802.315)
(0 -0 -924.808)
(0 -0 -1044.46)
(0 -0 -1160.31)
(0 -0 -1271.69)
(0 -0 -1378.13)
(0 -0 -1479.37)
(0 -0 -1575.29)
(0 -0 -1665.86)
(0 -0 -1751.14)
(0 -0 -1831.27)
(0 -0 -1906.41)
(0 -0 -1976.75)
(0 -0 -2042.51)
(0 -0 -2103.92)
(0 -0 -2161.2)
(0 -0 -2214.6)
(0 -0 -2264.3)
(0 -0 -2310.56)
(0 -0 -2353.54)
(0 -0 -2393.47)
(0 -0 -2430.48)
(0 -0 -2464.79)
(0 -0 -2496.49)
(0 -0 -2525.79)
(0 -0 -2552.8)
(0 -0 -2577.53)
(0 -0 -2600.54)
(0 -0 -2620.9)
(0 -0 -2640.97)
(0 -0 -2656.67)
(0 -0 -2675.64)
(0 -0 -2686.14)
(0 -0 -2705.78)
(0 -0 -2714.31)
(0 -0 122.948)
(0 -0 116.638)
(0 -0 118.004)
(0 -0 122.477)
(0 -0 126.417)
(0 -0 126.884)
(0 -0 121.411)
(0 -0 107.703)
(0 -0 84.1321)
(0 -0 50.0072)
(0 -0 5.44055)
(0 -0 -48.8409)
(0 -0 -111.698)
(0 -0 -181.757)
(0 -0 -257.561)
(0 -0 -337.679)
(0 -0 -420.773)
(0 -0 -505.648)
(0 -0 -591.262)
(0 -0 -676.732)
(0 -0 -761.328)
(0 -0 -844.459)
(0 -0 -925.655)
(0 -0 -1004.56)
(0 -0 -1080.89)
(0 -0 -1154.47)
(0 -0 -1225.16)
(0 -0 -1292.89)
(0 -0 -1357.62)
(0 -0 -1419.37)
(0 -0 -1478.16)
(0 -0 -1534.06)
(0 -0 -1587.11)
(0 -0 -1637.41)
(0 -0 -1685.02)
(0 -0 -1730.07)
(0 -0 -1772.59)
(0 -0 -1812.73)
(0 -0 -1850.5)
(0 -0 -1886.08)
(0 -0 -1919.48)
(0 -0 -1950.76)
(0 -0 -1980.25)
(0 -0 -2007.36)
(0 -0 -2033.68)
(0 -0 -2056.52)
(0 -0 -2080.91)
(0 -0 -2099.51)
(0 -0 -2123.04)
(0 -0 -2140.58)
(0 -0 115.629)
(0 -0 110.406)
(0 -0 110.722)
(0 -0 113.159)
(0 -0 115.968)
(0 -0 118.224)
(0 -0 119.097)
(0 -0 117.385)
(0 -0 111.813)
(0 -0 101.334)
(0 -0 85.2369)
(0 -0 63.1611)
(0 -0 35.0631)
(0 -0 1.17191)
(0 -0 -38.0777)
(0 -0 -82.1123)
(0 -0 -130.279)
(0 -0 -181.892)
(0 -0 -236.272)
(0 -0 -292.767)
(0 -0 -350.773)
(0 -0 -409.742)
(0 -0 -469.181)
(0 -0 -528.662)
(0 -0 -587.813)
(0 -0 -646.319)
(0 -0 -703.911)
(0 -0 -760.373)
(0 -0 -815.525)
(0 -0 -869.23)
(0 -0 -921.374)
(0 -0 -971.884)
(0 -0 -1020.69)
(0 -0 -1067.77)
(0 -0 -1113.09)
(0 -0 -1156.65)
(0 -0 -1198.42)
(0 -0 -1238.46)
(0 -0 -1276.71)
(0 -0 -1313.26)
(0 -0 -1348.09)
(0 -0 -1381.21)
(0 -0 -1412.82)
(0 -0 -1442.51)
(0 -0 -1471.33)
(0 -0 -1497.51)
(0 -0 -1524.26)
(0 -0 -1547.22)
(0 -0 -1572.55)
(0 -0 -1594.96)
(0 -0 108.384)
(0 -0 104.189)
(0 -0 104.397)
(0 -0 106.103)
(0 -0 107.968)
(0 -0 109.675)
(0 -0 111.207)
(0 -0 112.218)
(0 -0 112.126)
(0 -0 110.305)
(0 -0 106.171)
(0 -0 99.23)
(0 -0 89.1127)
(0 -0 75.5884)
(0 -0 58.5688)
(0 -0 38.0857)
(0 -0 14.2743)
(0 -0 -12.6507)
(0 -0 -42.4185)
(0 -0 -74.7211)
(0 -0 -109.233)
(0 -0 -145.619)
(0 -0 -183.554)
(0 -0 -222.721)
(0 -0 -262.82)
(0 -0 -303.573)
(0 -0 -344.725)
(0 -0 -386.046)
(0 -0 -427.327)
(0 -0 -468.388)
(0 -0 -509.065)
(0 -0 -549.226)
(0 -0 -588.744)
(0 -0 -627.528)
(0 -0 -665.476)
(0 -0 -702.54)
(0 -0 -738.625)
(0 -0 -773.721)
(0 -0 -807.74)
(0 -0 -840.693)
(0 -0 -872.526)
(0 -0 -903.2)
(0 -0 -932.833)
(0 -0 -961.102)
(0 -0 -988.68)
(0 -0 -1014.46)
(0 -0 -1040.33)
(0 -0 -1063.9)
(0 -0 -1088.43)
(0 -0 -1111.78)
(0 -0 101.406)
(0 -0 97.998)
(0 -0 98.2202)
(0 -0 99.6918)
(0 -0 101.202)
(0 -0 102.471)
(0 -0 103.691)
(0 -0 104.871)
(0 -0 105.839)
(0 -0 106.349)
(0 -0 106.121)
(0 -0 104.86)
(0 -0 102.279)
(0 -0 98.1258)
(0 -0 92.1948)
(0 -0 84.3393)
(0 -0 74.4711)
(0 -0 62.5579)
(0 -0 48.6186)
(0 -0 32.7144)
(0 -0 14.9414)
(0 -0 -4.57662)
(0 -0 -25.6965)
(0 -0 -48.2619)
(0 -0 -72.1073)
(0 -0 -97.0659)
(0 -0 -122.968)
(0 -0 -149.653)
(0 -0 -176.96)
(0 -0 -204.744)
(0 -0 -232.86)
(0 -0 -261.183)
(0 -0 -289.589)
(0 -0 -317.975)
(0 -0 -346.232)
(0 -0 -374.284)
(0 -0 -402.029)
(0 -0 -429.418)
(0 -0 -456.358)
(0 -0 -482.812)
(0 -0 -508.721)
(0 -0 -534.01)
(0 -0 -558.741)
(0 -0 -582.67)
(0 -0 -606.185)
(0 -0 -628.635)
(0 -0 -651.028)
(0 -0 -672.19)
(0 -0 -693.659)
(0 -0 -714.841)
(0 -0 94.7307)
(0 -0 91.9485)
(0 -0 92.1588)
(0 -0 93.4813)
(0 -0 94.8595)
(0 -0 95.9551)
(0 -0 96.9505)
(0 -0 97.943)
(0 -0 98.9045)
(0 -0 99.7676)
(0 -0 100.444)
(0 -0 100.817)
(0 -0 100.75)
(0 -0 100.097)
(0 -0 98.7144)
(0 -0 96.4695)
(0 -0 93.2477)
(0 -0 88.9567)
(0 -0 83.5287)
(0 -0 76.9204)
(0 -0 69.1138)
(0 -0 60.1097)
(0 -0 49.9336)
(0 -0 38.6244)
(0 -0 26.2362)
(0 -0 12.8347)
(0 -0 -1.50472)
(0 -0 -16.7012)
(0 -0 -32.6683)
(0 -0 -49.3193)
(0 -0 -66.5644)
(0 -0 -84.3187)
(0 -0 -102.494)
(0 -0 -121.011)
(0 -0 -139.788)
(0 -0 -158.754)
(0 -0 -177.829)
(0 -0 -196.957)
(0 -0 -216.063)
(0 -0 -235.093)
(0 -0 -253.999)
(0 -0 -272.7)
(0 -0 -291.22)
(0 -0 -309.391)
(0 -0 -327.406)
(0 -0 -344.914)
(0 -0 -362.388)
(0 -0 -379.324)
(0 -0 -396.345)
(0 -0 -413.479)
(0 -0 88.3552)
(0 -0 86.0929)
(0 -0 86.2844)
(0 -0 87.4571)
(0 -0 88.737)
(0 -0 89.7534)
(0 -0 90.6424)
(0 -0 91.5069)
(0 -0 92.3502)
(0 -0 93.1579)
(0 -0 93.9143)
(0 -0 94.5911)
(0 -0 95.1437)
(0 -0 95.5142)
(0 -0 95.6361)
(0 -0 95.4379)
(0 -0 94.8476)
(0 -0 93.7959)
(0 -0 92.2194)
(0 -0 90.0627)
(0 -0 87.2799)
(0 -0 83.8362)
(0 -0 79.7061)
(0 -0 74.8764)
(0 -0 69.3432)
(0 -0 63.1137)
(0 -0 56.2015)
(0 -0 48.6308)
(0 -0 40.431)
(0 -0 31.6366)
(0 -0 22.2878)
(0 -0 12.4261)
(0 -0 2.09785)
(0 -0 -8.65226)
(0 -0 -19.7748)
(0 -0 -31.2249)
(0 -0 -42.9523)
(0 -0 -54.9128)
(0 -0 -67.0592)
(0 -0 -79.3444)
(0 -0 -91.7342)
(0 -0 -104.167)
(0 -0 -116.643)
(0 -0 -129.062)
(0 -0 -141.5)
(0 -0 -153.79)
(0 -0 -166.11)
(0 -0 -178.294)
(0 -0 -190.524)
(0 -0 -203.003)
(0 -0 82.2787)
(0 -0 80.4491)
(0 -0 80.6304)
(0 -0 81.6581)
(0 -0 82.8345)
(0 -0 83.7855)
(0 -0 84.6065)
(0 -0 85.3936)
(0 -0 86.1541)
(0 -0 86.8813)
(0 -0 87.577)
(0 -0 88.2411)
(0 -0 88.8658)
(0 -0 89.4355)
(0 -0 89.9285)
(0 -0 90.3175)
(0 -0 90.5712)
(0 -0 90.6553)
(0 -0 90.5342)
(0 -0 90.1724)
(0 -0 89.5358)
(0 -0 88.5927)
(0 -0 87.3149)
(0 -0 85.6781)
(0 -0 83.6628)
(0 -0 81.2542)
(0 -0 78.4434)
(0 -0 75.2252)
(0 -0 71.6002)
(0 -0 67.5735)
(0 -0 63.1541)
(0 -0 58.3547)
(0 -0 53.1912)
(0 -0 47.6817)
(0 -0 41.8475)
(0 -0 35.7104)
(0 -0 29.2947)
(0 -0 22.6256)
(0 -0 15.7279)
(0 -0 8.63093)
(0 -0 1.35514)
(0 -0 -6.06179)
(0 -0 -13.613)
(0 -0 -21.2458)
(0 -0 -28.9789)
(0 -0 -36.7463)
(0 -0 -44.5908)
(0 -0 -52.485)
(0 -0 -60.4404)
(0 -0 -68.6459)
(0 -0 76.5016)
(0 -0 75.0286)
(0 -0 75.2088)
(0 -0 76.1043)
(0 -0 77.1747)
(0 -0 78.0591)
(0 -0 78.8186)
(0 -0 79.543)
(0 -0 80.2417)
(0 -0 80.907)
(0 -0 81.5417)
(0 -0 82.1509)
(0 -0 82.7369)
(0 -0 83.2982)
(0 -0 83.8307)
(0 -0 84.3273)
(0 -0 84.7783)
(0 -0 85.1717)
(0 -0 85.4931)
(0 -0 85.7264)
(0 -0 85.8546)
(0 -0 85.8598)
(0 -0 85.7243)
(0 -0 85.4308)
(0 -0 84.9632)
(0 -0 84.3065)
(0 -0 83.4481)
(0 -0 82.3771)
(0 -0 81.0854)
(0 -0 79.5669)
(0 -0 77.8184)
(0 -0 75.8387)
(0 -0 73.6292)
(0 -0 71.193)
(0 -0 68.5351)
(0 -0 65.6626)
(0 -0 62.5835)
(0 -0 59.3081)
(0 -0 55.8464)
(0 -0 52.2121)
(0 -0 48.4152)
(0 -0 44.4732)
(0 -0 40.394)
(0 -0 36.1986)
(0 -0 31.8911)
(0 -0 27.4888)
(0 -0 22.998)
(0 -0 18.4026)
(0 -0 13.736)
(0 -0 8.87418)
(0 -0 71.0239)
(0 -0 69.8417)
(0 -0 70.0266)
(0 -0 70.8043)
(0 -0 71.7706)
(0 -0 72.5881)
(0 -0 73.2877)
(0 -0 73.9528)
(0 -0 74.5955)
(0 -0 75.2077)
(0 -0 75.7904)
(0 -0 76.3488)
(0 -0 76.8865)
(0 -0 77.4052)
(0 -0 77.9056)
(0 -0 78.3871)
(0 -0 78.8485)
(0 -0 79.2871)
(0 -0 79.6988)
(0 -0 80.0785)
(0 -0 80.4199)
(0 -0 80.7155)
(0 -0 80.9573)
(0 -0 81.1367)
(0 -0 81.2445)
(0 -0 81.2719)
(0 -0 81.2101)
(0 -0 81.0509)
(0 -0 80.787)
(0 -0 80.412)
(0 -0 79.9203)
(0 -0 79.3077)
(0 -0 78.571)
(0 -0 77.7082)
(0 -0 76.7179)
(0 -0 75.6005)
(0 -0 74.3564)
(0 -0 72.9881)
(0 -0 71.4978)
(0 -0 69.8899)
(0 -0 68.168)
(0 -0 66.3378)
(0 -0 64.4048)
(0 -0 62.3735)
(0 -0 60.2531)
(0 -0 58.0419)
(0 -0 55.7557)
(0 -0 53.3747)
(0 -0 50.9284)
(0 -0 48.3537)
(0 -0 65.8438)
(0 -0 64.8969)
(0 -0 65.0894)
(0 -0 65.763)
(0 -0 66.629)
(0 -0 67.381)
(0 -0 68.023)
(0 -0 68.6308)
(0 -0 69.2195)
(0 -0 69.7816)
(0 -0 70.3164)
(0 -0 70.8286)
(0 -0 71.3215)
(0 -0 71.7971)
(0 -0 72.2568)
(0 -0 72.7016)
(0 -0 73.1325)
(0 -0 73.5496)
(0 -0 73.9528)
(0 -0 74.3411)
(0 -0 74.713)
(0 -0 75.0663)
(0 -0 75.3982)
(0 -0 75.7051)
(0 -0 75.9834)
(0 -0 76.2288)
(0 -0 76.4369)
(0 -0 76.6033)
(0 -0 76.7237)
(0 -0 76.7942)
(0 -0 76.811)
(0 -0 76.7709)
(0 -0 76.6709)
(0 -0 76.5086)
(0 -0 76.2818)
(0 -0 75.9889)
(0 -0 75.6285)
(0 -0 75.2)
(0 -0 74.703)
(0 -0 74.1376)
(0 -0 73.5048)
(0 -0 72.8046)
(0 -0 72.0406)
(0 -0 71.2108)
(0 -0 70.3224)
(0 -0 69.3699)
(0 -0 68.3641)
(0 -0 67.294)
(0 -0 66.1738)
(0 -0 64.9811)
(0 -0 60.9588)
(0 -0 60.2006)
(0 -0 60.4014)
(0 -0 60.9835)
(0 -0 61.754)
(0 -0 62.4424)
(0 -0 63.0297)
(0 -0 63.5827)
(0 -0 64.1195)
(0 -0 64.6333)
(0 -0 65.1225)
(0 -0 65.5909)
(0 -0 66.0417)
(0 -0 66.4768)
(0 -0 66.8973)
(0 -0 67.3046)
(0 -0 67.6997)
(0 -0 68.0837)
(0 -0 68.4573)
(0 -0 68.8208)
(0 -0 69.1743)
(0 -0 69.5174)
(0 -0 69.8494)
(0 -0 70.1692)
(0 -0 70.4754)
(0 -0 70.7664)
(0 -0 71.0402)
(0 -0 71.295)
(0 -0 71.5288)
(0 -0 71.7398)
(0 -0 71.9262)
(0 -0 72.0865)
(0 -0 72.2191)
(0 -0 72.3227)
(0 -0 72.3956)
(0 -0 72.4368)
(0 -0 72.4451)
(0 -0 72.4193)
(0 -0 72.3588)
(0 -0 72.2626)
(0 -0 72.1309)
(0 -0 71.962)
(0 -0 71.758)
(0 -0 71.516)
(0 -0 71.2397)
(0 -0 70.9256)
(0 -0 70.5772)
(0 -0 70.1934)
(0 -0 69.7727)
(0 -0 69.3217)
(0 -0 56.3649)
(0 -0 55.7569)
(0 -0 55.9651)
(0 -0 56.4672)
(0 -0 57.148)
(0 -0 57.7747)
(0 -0 58.3102)
(0 -0 58.8115)
(0 -0 59.2987)
(0 -0 59.7664)
(0 -0 60.212)
(0 -0 60.6386)
(0 -0 61.0493)
(0 -0 61.4459)
(0 -0 61.8293)
(0 -0 62.2007)
(0 -0 62.5613)
(0 -0 62.912)
(0 -0 63.2537)
(0 -0 63.5871)
(0 -0 63.9125)
(0 -0 64.2301)
(0 -0 64.5396)
(0 -0 64.841)
(0 -0 65.1335)
(0 -0 65.4165)
(0 -0 65.6892)
(0 -0 65.9509)
(0 -0 66.2007)
(0 -0 66.4381)
(0 -0 66.6625)
(0 -0 66.8735)
(0 -0 67.0705)
(0 -0 67.2531)
(0 -0 67.4208)
(0 -0 67.573)
(0 -0 67.7091)
(0 -0 67.8285)
(0 -0 67.9308)
(0 -0 68.0151)
(0 -0 68.0816)
(0 -0 68.1288)
(0 -0 68.1577)
(0 -0 68.1663)
(0 -0 68.1557)
(0 -0 68.1254)
(0 -0 68.073)
(0 -0 68.0056)
(0 -0 67.9097)
(0 -0 67.8102)
(0 -0 52.0569)
(0 -0 51.5678)
(0 -0 51.7813)
(0 -0 52.2137)
(0 -0 52.811)
(0 -0 53.3784)
(0 -0 53.8651)
(0 -0 54.3178)
(0 -0 54.7581)
(0 -0 55.1818)
(0 -0 55.586)
(0 -0 55.973)
(0 -0 56.3456)
(0 -0 56.7054)
(0 -0 57.0536)
(0 -0 57.391)
(0 -0 57.7188)
(0 -0 58.0378)
(0 -0 58.3488)
(0 -0 58.6526)
(0 -0 58.9495)
(0 -0 59.2397)
(0 -0 59.5232)
(0 -0 59.7998)
(0 -0 60.0692)
(0 -0 60.331)
(0 -0 60.5847)
(0 -0 60.83)
(0 -0 61.0665)
(0 -0 61.2942)
(0 -0 61.513)
(0 -0 61.7231)
(0 -0 61.9244)
(0 -0 62.1172)
(0 -0 62.3012)
(0 -0 62.4766)
(0 -0 62.6431)
(0 -0 62.8006)
(0 -0 62.9489)
(0 -0 63.0876)
(0 -0 63.2168)
(0 -0 63.3357)
(0 -0 63.4445)
(0 -0 63.5426)
(0 -0 63.6291)
(0 -0 63.7064)
(0 -0 63.7678)
(0 -0 63.826)
(0 -0 63.8596)
(0 -0 63.9051)
(0 -0 48.0285)
(0 -0 47.633)
(0 -0 47.8488)
(0 -0 48.2208)
(0 -0 48.7414)
(0 -0 49.252)
(0 -0 49.6929)
(0 -0 50.1003)
(0 -0 50.4964)
(0 -0 50.8786)
(0 -0 51.2436)
(0 -0 51.5931)
(0 -0 51.9297)
(0 -0 52.2549)
(0 -0 52.5696)
(0 -0 52.8749)
(0 -0 53.1715)
(0 -0 53.4605)
(0 -0 53.7426)
(0 -0 54.0183)
(0 -0 54.288)
(0 -0 54.5519)
(0 -0 54.8098)
(0 -0 55.0617)
(0 -0 55.3071)
(0 -0 55.5458)
(0 -0 55.7772)
(0 -0 56.0012)
(0 -0 56.2175)
(0 -0 56.4264)
(0 -0 56.6278)
(0 -0 56.8223)
(0 -0 57.01)
(0 -0 57.1912)
(0 -0 57.3663)
(0 -0 57.5353)
(0 -0 57.6983)
(0 -0 57.8554)
(0 -0 58.0067)
(0 -0 58.1519)
(0 -0 58.2912)
(0 -0 58.4243)
(0 -0 58.5508)
(0 -0 58.6714)
(0 -0 58.7835)
(0 -0 58.8916)
(0 -0 58.9865)
(0 -0 59.0844)
(0 -0 59.1585)
(0 -0 59.2531)
(0 -0 44.272)
(0 -0 43.9502)
(0 -0 44.1647)
(0 -0 44.4845)
(0 -0 44.9354)
(0 -0 45.392)
(0 -0 45.79)
(0 -0 46.1554)
(0 -0 46.5102)
(0 -0 46.8535)
(0 -0 47.1817)
(0 -0 47.496)
(0 -0 47.7987)
(0 -0 48.0913)
(0 -0 48.3746)
(0 -0 48.6496)
(0 -0 48.917)
(0 -0 49.1777)
(0 -0 49.4324)
(0 -0 49.6817)
(0 -0 49.9259)
(0 -0 50.1649)
(0 -0 50.3987)
(0 -0 50.627)
(0 -0 50.8495)
(0 -0 51.0658)
(0 -0 51.2754)
(0 -0 51.478)
(0 -0 51.6737)
(0 -0 51.8624)
(0 -0 52.0445)
(0 -0 52.2204)
(0 -0 52.3904)
(0 -0 52.555)
(0 -0 52.7144)
(0 -0 52.8689)
(0 -0 53.0188)
(0 -0 53.164)
(0 -0 53.3049)
(0 -0 53.4412)
(0 -0 53.5732)
(0 -0 53.7008)
(0 -0 53.8233)
(0 -0 53.942)
(0 -0 54.0535)
(0 -0 54.1635)
(0 -0 54.2612)
(0 -0 54.3649)
(0 -0 54.4443)
(0 -0 54.5488)
(0 -0 40.7789)
(0 -0 40.515)
(0 -0 40.7245)
(0 -0 40.9993)
(0 -0 41.3876)
(0 -0 41.7934)
(0 -0 42.1513)
(0 -0 42.478)
(0 -0 42.7944)
(0 -0 43.1013)
(0 -0 43.3952)
(0 -0 43.6766)
(0 -0 43.9476)
(0 -0 44.2097)
(0 -0 44.4637)
(0 -0 44.7102)
(0 -0 44.9503)
(0 -0 45.1846)
(0 -0 45.4138)
(0 -0 45.6383)
(0 -0 45.8585)
(0 -0 46.0742)
(0 -0 46.2854)
(0 -0 46.4917)
(0 -0 46.6927)
(0 -0 46.8879)
(0 -0 47.0768)
(0 -0 47.2592)
(0 -0 47.4351)
(0 -0 47.6045)
(0 -0 47.7677)
(0 -0 47.9253)
(0 -0 48.0776)
(0 -0 48.2251)
(0 -0 48.3681)
(0 -0 48.5069)
(0 -0 48.6418)
(0 -0 48.7728)
(0 -0 48.9001)
(0 -0 49.0238)
(0 -0 49.1439)
(0 -0 49.2605)
(0 -0 49.3728)
(0 -0 49.4823)
(0 -0 49.5853)
(0 -0 49.6879)
(0 -0 49.7785)
(0 -0 49.8764)
(0 -0 49.9494)
(0 -0 50.0499)
(0 -0 37.5393)
(0 -0 37.3214)
(0 -0 37.5221)
(0 -0 37.7581)
(0 -0 38.0906)
(0 -0 38.449)
(0 -0 38.7696)
(0 -0 39.0608)
(0 -0 39.3419)
(0 -0 39.615)
(0 -0 39.877)
(0 -0 40.1279)
(0 -0 40.3696)
(0 -0 40.6033)
(0 -0 40.8299)
(0 -0 41.0501)
(0 -0 41.2647)
(0 -0 41.4744)
(0 -0 41.6798)
(0 -0 41.8814)
(0 -0 42.0792)
(0 -0 42.2734)
(0 -0 42.4635)
(0 -0 42.6493)
(0 -0 42.8302)
(0 -0 43.0058)
(0 -0 43.1754)
(0 -0 43.3389)
(0 -0 43.4961)
(0 -0 43.6474)
(0 -0 43.7929)
(0 -0 43.9333)
(0 -0 44.0688)
(0 -0 44.2001)
(0 -0 44.3274)
(0 -0 44.451)
(0 -0 44.5713)
(0 -0 44.6882)
(0 -0 44.8021)
(0 -0 44.913)
(0 -0 45.0207)
(0 -0 45.1256)
(0 -0 45.2267)
(0 -0 45.3256)
(0 -0 45.4183)
(0 -0 45.5112)
(0 -0 45.5924)
(0 -0 45.6814)
(0 -0 45.7452)
(0 -0 45.8375)
(0 -0 34.5426)
(0 -0 34.3617)
(0 -0 34.5499)
(0 -0 34.7523)
(0 -0 35.0358)
(0 -0 35.3502)
(0 -0 35.6364)
(0 -0 35.8953)
(0 -0 36.144)
(0 -0 36.386)
(0 -0 36.6186)
(0 -0 36.8413)
(0 -0 37.0559)
(0 -0 37.2634)
(0 -0 37.4648)
(0 -0 37.6606)
(0 -0 37.8516)
(0 -0 38.0386)
(0 -0 38.222)
(0 -0 38.4023)
(0 -0 38.5796)
(0 -0 38.7538)
(0 -0 38.9245)
(0 -0 39.0913)
(0 -0 39.2537)
(0 -0 39.411)
(0 -0 39.5627)
(0 -0 39.7086)
(0 -0 39.8486)
(0 -0 39.983)
(0 -0 40.112)
(0 -0 40.2363)
(0 -0 40.3563)
(0 -0 40.4724)
(0 -0 40.5851)
(0 -0 40.6946)
(0 -0 40.8012)
(0 -0 40.905)
(0 -0 41.0062)
(0 -0 41.105)
(0 -0 41.201)
(0 -0 41.2949)
(0 -0 41.3852)
(0 -0 41.4737)
(0 -0 41.5565)
(0 -0 41.6397)
(0 -0 41.7115)
(0 -0 41.7913)
(0 -0 41.8459)
(0 -0 41.9292)
(0 -0 31.7775)
(0 -0 31.6266)
(0 -0 31.7991)
(0 -0 31.973)
(0 -0 32.2136)
(0 -0 32.4878)
(0 -0 32.7421)
(0 -0 32.9717)
(0 -0 33.191)
(0 -0 33.4044)
(0 -0 33.61)
(0 -0 33.8069)
(0 -0 33.9965)
(0 -0 34.18)
(0 -0 34.3581)
(0 -0 34.5316)
(0 -0 34.7009)
(0 -0 34.867)
(0 -0 35.0303)
(0 -0 35.1911)
(0 -0 35.3495)
(0 -0 35.5053)
(0 -0 35.6582)
(0 -0 35.8076)
(0 -0 35.9528)
(0 -0 36.0933)
(0 -0 36.2286)
(0 -0 36.3583)
(0 -0 36.4824)
(0 -0 36.6011)
(0 -0 36.7149)
(0 -0 36.8244)
(0 -0 36.9299)
(0 -0 37.0321)
(0 -0 37.1313)
(0 -0 37.2278)
(0 -0 37.3218)
(0 -0 37.4135)
(0 -0 37.5031)
(0 -0 37.5907)
(0 -0 37.676)
(0 -0 37.7595)
(0 -0 37.8399)
(0 -0 37.9189)
(0 -0 37.9925)
(0 -0 38.0666)
(0 -0 38.1298)
(0 -0 38.2008)
(0 -0 38.2469)
(0 -0 38.3214)
(0 -0 29.2318)
(0 -0 29.1053)
(0 -0 29.2603)
(0 -0 29.4102)
(0 -0 29.6136)
(0 -0 29.8512)
(0 -0 30.0762)
(0 -0 30.2792)
(0 -0 30.4719)
(0 -0 30.6593)
(0 -0 30.8402)
(0 -0 31.0135)
(0 -0 31.1804)
(0 -0 31.3419)
(0 -0 31.4988)
(0 -0 31.6517)
(0 -0 31.8013)
(0 -0 31.9483)
(0 -0 32.0931)
(0 -0 32.2362)
(0 -0 32.3773)
(0 -0 32.5164)
(0 -0 32.653)
(0 -0 32.7864)
(0 -0 32.9161)
(0 -0 33.0412)
(0 -0 33.1614)
(0 -0 33.2762)
(0 -0 33.3856)
(0 -0 33.49)
(0 -0 33.5899)
(0 -0 33.6857)
(0 -0 33.778)
(0 -0 33.8674)
(0 -0 33.9542)
(0 -0 34.0387)
(0 -0 34.1212)
(0 -0 34.202)
(0 -0 34.2809)
(0 -0 34.3583)
(0 -0 34.4339)
(0 -0 34.5081)
(0 -0 34.5794)
(0 -0 34.6497)
(0 -0 34.7149)
(0 -0 34.7807)
(0 -0 34.836)
(0 -0 34.8989)
(0 -0 34.9376)
(0 -0 35.0038)
(0 -0 26.8932)
(0 -0 26.7863)
(0 -0 26.9229)
(0 -0 27.0524)
(0 -0 27.224)
(0 -0 27.4288)
(0 -0 27.627)
(0 -0 27.8061)
(0 -0 27.9748)
(0 -0 28.1387)
(0 -0 28.2971)
(0 -0 28.449)
(0 -0 28.5952)
(0 -0 28.7367)
(0 -0 28.8743)
(0 -0 29.0085)
(0 -0 29.1402)
(0 -0 29.2698)
(0 -0 29.3979)
(0 -0 29.5248)
(0 -0 29.6503)
(0 -0 29.7742)
(0 -0 29.896)
(0 -0 30.015)
(0 -0 30.1305)
(0 -0 30.2417)
(0 -0 30.3481)
(0 -0 30.4493)
(0 -0 30.5454)
(0 -0 30.6367)
(0 -0 30.7237)
(0 -0 30.8071)
(0 -0 30.8874)
(0 -0 30.9651)
(0 -0 31.0406)
(0 -0 31.1143)
(0 -0 31.1863)
(0 -0 31.2571)
(0 -0 31.3264)
(0 -0 31.3946)
(0 -0 31.4613)
(0 -0 31.5271)
(0 -0 31.5903)
(0 -0 31.6527)
(0 -0 31.7104)
(0 -0 31.7687)
(0 -0 31.817)
(0 -0 31.8723)
(0 -0 31.9045)
(0 -0 31.9631)
(0 -0 24.7486)
(0 -0 24.6577)
(0 -0 24.7759)
(0 -0 24.8879)
(0 -0 25.0323)
(0 -0 25.2078)
(0 -0 25.3817)
(0 -0 25.5393)
(0 -0 25.6867)
(0 -0 25.8294)
(0 -0 25.9675)
(0 -0 26.1001)
(0 -0 26.2276)
(0 -0 26.3511)
(0 -0 26.4712)
(0 -0 26.5886)
(0 -0 26.704)
(0 -0 26.818)
(0 -0 26.9311)
(0 -0 27.0434)
(0 -0 27.1548)
(0 -0 27.265)
(0 -0 27.3735)
(0 -0 27.4795)
(0 -0 27.5822)
(0 -0 27.6807)
(0 -0 27.7746)
(0 -0 27.8636)
(0 -0 27.9476)
(0 -0 28.027)
(0 -0 28.1024)
(0 -0 28.1745)
(0 -0 28.2438)
(0 -0 28.3109)
(0 -0 28.3762)
(0 -0 28.4401)
(0 -0 28.5027)
(0 -0 28.5644)
(0 -0 28.625)
(0 -0 28.685)
(0 -0 28.7438)
(0 -0 28.802)
(0 -0 28.858)
(0 -0 28.9133)
(0 -0 28.9642)
(0 -0 29.0158)
(0 -0 29.0578)
(0 -0 29.1064)
(0 -0 29.133)
(0 -0 29.1845)
(0 -0 22.7853)
(0 -0 22.707)
(0 -0 22.8075)
(0 -0 22.9043)
(0 -0 23.0256)
(0 -0 23.1755)
(0 -0 23.3273)
(0 -0 23.4658)
(0 -0 23.5943)
(0 -0 23.7181)
(0 -0 23.8379)
(0 -0 23.9531)
(0 -0 24.0639)
(0 -0 24.1711)
(0 -0 24.2756)
(0 -0 24.3779)
(0 -0 24.4787)
(0 -0 24.5786)
(0 -0 24.6781)
(0 -0 24.7774)
(0 -0 24.8762)
(0 -0 24.9743)
(0 -0 25.0708)
(0 -0 25.1652)
(0 -0 25.2564)
(0 -0 25.3436)
(0 -0 25.4263)
(0 -0 25.5041)
(0 -0 25.5772)
(0 -0 25.6459)
(0 -0 25.7108)
(0 -0 25.7726)
(0 -0 25.832)
(0 -0 25.8896)
(0 -0 25.9457)
(0 -0 26.0007)
(0 -0 26.0549)
(0 -0 26.1085)
(0 -0 26.1614)
(0 -0 26.2141)
(0 -0 26.2658)
(0 -0 26.3172)
(0 -0 26.3668)
(0 -0 26.4158)
(0 -0 26.4608)
(0 -0 26.5063)
(0 -0 26.5429)
(0 -0 26.5854)
(0 -0 26.6071)
(0 -0 26.6521)
(0 -0 20.9902)
(0 -0 20.9219)
(0 -0 21.0058)
(0 -0 21.0892)
(0 -0 21.1911)
(0 -0 21.3185)
(0 -0 21.4506)
(0 -0 21.572)
(0 -0 21.6837)
(0 -0 21.7908)
(0 -0 21.8943)
(0 -0 21.994)
(0 -0 22.0898)
(0 -0 22.1825)
(0 -0 22.2729)
(0 -0 22.3617)
(0 -0 22.4495)
(0 -0 22.5369)
(0 -0 22.6244)
(0 -0 22.7121)
(0 -0 22.7997)
(0 -0 22.8869)
(0 -0 22.9729)
(0 -0 23.0568)
(0 -0 23.1378)
(0 -0 23.215)
(0 -0 23.2876)
(0 -0 23.3555)
(0 -0 23.4188)
(0 -0 23.4778)
(0 -0 23.5333)
(0 -0 23.586)
(0 -0 23.6365)
(0 -0 23.6855)
(0 -0 23.7334)
(0 -0 23.7805)
(0 -0 23.8271)
(0 -0 23.8735)
(0 -0 23.9196)
(0 -0 23.9657)
(0 -0 24.0113)
(0 -0 24.0567)
(0 -0 24.1006)
(0 -0 24.1441)
(0 -0 24.1838)
(0 -0 24.224)
(0 -0 24.2558)
(0 -0 24.2928)
(0 -0 24.3105)
(0 -0 24.3494)
(0 -0 19.3504)
(0 -0 19.29)
(0 -0 19.3588)
(0 -0 19.4302)
(0 -0 19.5157)
(0 -0 19.6237)
(0 -0 19.7383)
(0 -0 19.8444)
(0 -0 19.9415)
(0 -0 20.0337)
(0 -0 20.1228)
(0 -0 20.2086)
(0 -0 20.2911)
(0 -0 20.3709)
(0 -0 20.4489)
(0 -0 20.5257)
(0 -0 20.6019)
(0 -0 20.6782)
(0 -0 20.755)
(0 -0 20.8324)
(0 -0 20.9101)
(0 -0 20.9877)
(0 -0 21.0644)
(0 -0 21.1392)
(0 -0 21.2112)
(0 -0 21.2793)
(0 -0 21.3431)
(0 -0 21.4021)
(0 -0 21.4566)
(0 -0 21.507)
(0 -0 21.5541)
(0 -0 21.5986)
(0 -0 21.6412)
(0 -0 21.6825)
(0 -0 21.7231)
(0 -0 21.7632)
(0 -0 21.8031)
(0 -0 21.8431)
(0 -0 21.8832)
(0 -0 21.9235)
(0 -0 21.9637)
(0 -0 22.0039)
(0 -0 22.0428)
(0 -0 22.0815)
(0 -0 22.1167)
(0 -0 22.1521)
(0 -0 22.1797)
(0 -0 22.2119)
(0 -0 22.2261)
(0 -0 22.2597)
(0 -0 17.8534)
(0 -0 17.7992)
(0 -0 17.8543)
(0 -0 17.9151)
(0 -0 17.9868)
(0 -0 18.0782)
(0 -0 18.1772)
(0 -0 18.2699)
(0 -0 18.3541)
(0 -0 18.4333)
(0 -0 18.5096)
(0 -0 18.5831)
(0 -0 18.6538)
(0 -0 18.7222)
(0 -0 18.7892)
(0 -0 18.8553)
(0 -0 18.9213)
(0 -0 18.9878)
(0 -0 19.0552)
(0 -0 19.1235)
(0 -0 19.1926)
(0 -0 19.2618)
(0 -0 19.3303)
(0 -0 19.3971)
(0 -0 19.4611)
(0 -0 19.5214)
(0 -0 19.5772)
(0 -0 19.6284)
(0 -0 19.6751)
(0 -0 19.7179)
(0 -0 19.7574)
(0 -0 19.7946)
(0 -0 19.8302)
(0 -0 19.8647)
(0 -0 19.8988)
(0 -0 19.9327)
(0 -0 19.9667)
(0 -0 20.0011)
(0 -0 20.0359)
(0 -0 20.0712)
(0 -0 20.1066)
(0 -0 20.1423)
(0 -0 20.177)
(0 -0 20.2114)
(0 -0 20.2427)
(0 -0 20.274)
(0 -0 20.298)
(0 -0 20.3259)
(0 -0 20.3372)
(0 -0 20.3659)
(0 -0 16.487)
(0 -0 16.4375)
(0 -0 16.4807)
(0 -0 16.5319)
(0 -0 16.592)
(0 -0 16.6693)
(0 -0 16.7546)
(0 -0 16.8354)
(0 -0 16.9083)
(0 -0 16.9762)
(0 -0 17.0413)
(0 -0 17.1039)
(0 -0 17.1642)
(0 -0 17.2226)
(0 -0 17.2797)
(0 -0 17.3364)
(0 -0 17.3934)
(0 -0 17.4513)
(0 -0 17.5105)
(0 -0 17.571)
(0 -0 17.6325)
(0 -0 17.6944)
(0 -0 17.7558)
(0 -0 17.8156)
(0 -0 17.8726)
(0 -0 17.926)
(0 -0 17.9749)
(0 -0 18.0192)
(0 -0 18.059)
(0 -0 18.095)
(0 -0 18.1278)
(0 -0 18.1585)
(0 -0 18.1878)
(0 -0 18.2164)
(0 -0 18.2447)
(0 -0 18.2732)
(0 -0 18.302)
(0 -0 18.3315)
(0 -0 18.3617)
(0 -0 18.3927)
(0 -0 18.424)
(0 -0 18.4558)
(0 -0 18.4868)
(0 -0 18.5176)
(0 -0 18.5455)
(0 -0 18.5733)
(0 -0 18.5942)
(0 -0 18.6184)
(0 -0 18.6272)
(0 -0 18.6515)
(0 -0 15.2398)
(0 -0 15.1939)
(0 -0 15.2266)
(0 -0 15.2691)
(0 -0 15.3195)
(0 -0 15.3849)
(0 -0 15.4583)
(0 -0 15.5286)
(0 -0 15.5918)
(0 -0 15.6497)
(0 -0 15.7049)
(0 -0 15.758)
(0 -0 15.8091)
(0 -0 15.8586)
(0 -0 15.9072)
(0 -0 15.9557)
(0 -0 16.0048)
(0 -0 16.0552)
(0 -0 16.1072)
(0 -0 16.1608)
(0 -0 16.2158)