/*--------------------------------*- C++ -*----------------------------------*\
  =========                 |
  \\      /  F ield         | OpenFOAM: The Open Source CFD Toolbox
   \\    /   O peration     | Website:  https://openfoam.org
    \\  /    A nd           | Version:  7
     \\/     M anipulation  |
\*---------------------------------------------------------------------------*/
FoamFile
{
    version     2.0;
    format      ascii;
    class       volVectorField;
    location    "0.19";
    object      wallShearStress;
}
// * * * * * * * * * * * * * * * * * * * * * * * * * * * * * * * * * * * * * //

dimensions      [0 2 -2 0 0 0 0];

internalField   uniform (0 0 0);

boundaryField
{
    velocityInlet
    {
        type            calculated;
        value           uniform (0 0 0);
    }
    pressureOutlet
    {
        type            calculated;
        value           uniform (0 0 0);
    }
    fixedWalls
    {
        type            calculated;
        value           nonuniform List<vector> 
100
(
(-0.00951295 -0.00429629 0)
(0.00358226 -0.000545644 0)
(-0.00126442 0.000401465 0)
(-0.000510261 -3.98697e-05 0)
(-0.000211729 -7.18096e-05 0)
(0.000644713 -0.000132811 0)
(0.0014289 -0.000123902 0)
(0.00202506 -9.07815e-05 0)
(0.00236292 -5.03714e-05 0)
(0.00244234 -1.25306e-05 0)
(0.00230096 2.09011e-05 0)
(0.00199445 4.39347e-05 0)
(0.00158107 5.87201e-05 0)
(0.00111825 6.29655e-05 0)
(0.000650347 6.23457e-05 0)
(0.000205127 5.86837e-05 0)
(-0.000203443 5.37997e-05 0)
(-0.000571416 4.88278e-05 0)
(-0.000902769 4.46576e-05 0)
(-0.00120906 4.22416e-05 0)
(-0.00151163 4.34536e-05 0)
(-0.00184239 5.02447e-05 0)
(-0.00222956 6.14088e-05 0)
(-0.00264505 6.72229e-05 0)
(-0.00294524 5.22518e-05 0)
(-0.00288391 -3.01453e-06 0)
(-0.00226906 -8.43425e-05 0)
(-0.00122386 -0.000139199 0)
(-0.000186503 -0.000130468 0)
(0.000433965 -7.21495e-05 0)
(0.000539087 -1.01249e-05 0)
(0.000307498 2.5216e-05 0)
(-4.53704e-05 3.52641e-05 0)
(-0.000393477 3.34268e-05 0)
(-0.000695003 2.82229e-05 0)
(-0.000955254 2.47153e-05 0)
(-0.00119053 2.3295e-05 0)
(-0.00141206 2.29162e-05 0)
(-0.00162285 2.25499e-05 0)
(-0.00182 2.15902e-05 0)
(-0.00199816 1.98575e-05 0)
(-0.00215219 1.74677e-05 0)
(-0.00227857 1.46608e-05 0)
(-0.00237601 1.17078e-05 0)
(-0.00244518 8.8709e-06 0)
(-0.00248859 6.45345e-06 0)
(-0.00250962 4.76685e-06 0)
(-0.0025111 3.55381e-06 0)
(-0.00249335 2.50194e-06 0)
(-0.00245221 1.10783e-06 0)
(-0.00237738 -1.58204e-06 0)
(-0.00225166 -6.72732e-06 0)
(-0.0020525 -1.5304e-05 0)
(-0.001757 -2.7609e-05 0)
(-0.0013505 -4.28483e-05 0)
(-0.000837542 -5.86903e-05 0)
(-0.000255001 -6.93171e-05 0)
(0.000315023 -6.88283e-05 0)
(0.000745861 -5.29707e-05 0)
(0.00090135 -2.07849e-05 0)
(0.00071028 2.03844e-05 0)
(0.000218582 5.04211e-05 0)
(-0.000437686 6.57482e-05 0)
(-0.00109907 6.52611e-05 0)
(-0.00164725 5.20162e-05 0)
(-0.00202589 3.43894e-05 0)
(-0.00223427 1.7717e-05 0)
(-0.00230804 5.4825e-06 0)
(-0.00229778 -2.11949e-06 0)
(-0.00225249 -4.82414e-06 0)
(-0.00220938 -3.96387e-06 0)
(-0.00218992 -1.4166e-06 0)
(-0.00220099 1.90941e-06 0)
(-0.00223855 4.77389e-06 0)
(-0.00229081 6.53705e-06 0)
(-0.00233896 6.51855e-06 0)
(-0.00235735 4.38601e-06 0)
(-0.00231669 -1.18318e-06 0)
(-0.00219406 -8.97355e-06 0)
(-0.00198618 -1.70056e-05 0)
(-0.00171992 -2.24494e-05 0)
(-0.00144742 -2.30228e-05 0)
(-0.00122906 -1.80511e-05 0)
(-0.00110753 -9.62338e-06 0)
(-0.00109744 -9.27763e-07 0)
(-0.00118017 6.31572e-06 0)
(-0.00132492 1.06477e-05 0)
(-0.00149423 1.21163e-05 0)
(-0.00167005 1.22754e-05 0)
(-0.00183302 1.08556e-05 0)
(-0.00198058 9.30764e-06 0)
(-0.00210867 6.3691e-06 0)
(-0.00226842 1.16586e-05 0)
(-0.00254861 2.01052e-05 0)
(-0.00287646 2.84314e-05 0)
(-0.00323026 1.34418e-05 0)
(-0.00325012 -2.6697e-06 0)
(-0.00347921 9.90021e-06 0)
(-0.0045576 8.82018e-05 0)
(-0.00592182 5.41441e-05 0)
)
;
    }
    bottomWall
    {
        type            calculated;
        value           nonuniform List<vector> 
800
(
(-0.0353512 0.00216562 0)
(-0.0160365 0.000524964 0)
(-0.0105905 0.000100555 0)
(-0.0084557 3.45897e-05 0)
(-0.00749164 1.96839e-05 0)
(-0.00685596 1.60131e-05 0)
(-0.00634714 1.32135e-05 0)
(-0.00593588 1.07646e-05 0)
(-0.00560123 8.96452e-06 0)
(-0.00532245 7.66527e-06 0)
(-0.00508498 6.68082e-06 0)
(-0.00487939 5.90297e-06 0)
(-0.00469921 5.27286e-06 0)
(-0.00453972 4.75364e-06 0)
(-0.00439733 4.31971e-06 0)
(-0.00426927 3.95256e-06 0)
(-0.00415334 3.63849e-06 0)
(-0.00404782 3.36723e-06 0)
(-0.00395127 3.13091e-06 0)
(-0.00386255 2.92347e-06 0)
(-0.0037807 2.74013e-06 0)
(-0.0037049 2.5771e-06 0)
(-0.00363449 2.43133e-06 0)
(-0.00356889 2.30031e-06 0)
(-0.0035076 2.18202e-06 0)
(-0.00345021 2.07477e-06 0)
(-0.00339633 1.97712e-06 0)
(-0.00334564 1.88789e-06 0)
(-0.00329787 1.80608e-06 0)
(-0.00325277 1.73086e-06 0)
(-0.00321011 1.66147e-06 0)
(-0.0031697 1.5973e-06 0)
(-0.00313136 1.53781e-06 0)
(-0.00309494 1.48252e-06 0)
(-0.0030603 1.43103e-06 0)
(-0.0030273 1.38298e-06 0)
(-0.00299584 1.33803e-06 0)
(-0.00296581 1.29592e-06 0)
(-0.00293712 1.25641e-06 0)
(-0.00290967 1.21927e-06 0)
(-0.0028834 1.18429e-06 0)
(-0.00285822 1.1513e-06 0)
(-0.00283407 1.12019e-06 0)
(-0.0028109 1.0907e-06 0)
(-0.00278864 1.06294e-06 0)
(-0.00276725 1.03636e-06 0)
(-0.00274666 1.01164e-06 0)
(-0.00272686 9.87332e-07 0)
(-0.00270777 9.65479e-07 0)
(-0.00268939 9.42161e-07 0)
(-0.00267403 9.23043e-07 0)
(-0.00266136 9.12218e-07 0)
(-0.00264884 8.98354e-07 0)
(-0.00263653 8.83553e-07 0)
(-0.00262441 8.69685e-07 0)
(-0.00261248 8.565e-07 0)
(-0.00260072 8.4363e-07 0)
(-0.00258914 8.31033e-07 0)
(-0.00257773 8.18737e-07 0)
(-0.00256649 8.06737e-07 0)
(-0.00255542 7.95017e-07 0)
(-0.0025445 7.83564e-07 0)
(-0.00253374 7.72369e-07 0)
(-0.00252313 7.61422e-07 0)
(-0.00251267 7.50716e-07 0)
(-0.00250235 7.40243e-07 0)
(-0.00249218 7.29995e-07 0)
(-0.00248215 7.19966e-07 0)
(-0.00247226 7.10148e-07 0)
(-0.0024625 7.00536e-07 0)
(-0.00245287 6.91122e-07 0)
(-0.00244337 6.81903e-07 0)
(-0.00243399 6.72873e-07 0)
(-0.00242474 6.64025e-07 0)
(-0.00241561 6.55355e-07 0)
(-0.00240659 6.46859e-07 0)
(-0.0023977 6.38532e-07 0)
(-0.00238891 6.30369e-07 0)
(-0.00238024 6.22366e-07 0)
(-0.00237168 6.1452e-07 0)
(-0.00236322 6.06826e-07 0)
(-0.00235487 5.99281e-07 0)
(-0.00234662 5.91881e-07 0)
(-0.00233848 5.84624e-07 0)
(-0.00233043 5.77504e-07 0)
(-0.00232248 5.70518e-07 0)
(-0.00231462 5.63664e-07 0)
(-0.00230686 5.56939e-07 0)
(-0.00229919 5.50338e-07 0)
(-0.00229161 5.43859e-07 0)
(-0.00228412 5.37498e-07 0)
(-0.00227672 5.31255e-07 0)
(-0.0022694 5.25124e-07 0)
(-0.00226217 5.19103e-07 0)
(-0.00225502 5.1319e-07 0)
(-0.00224795 5.07383e-07 0)
(-0.00224096 5.01678e-07 0)
(-0.00223404 4.96074e-07 0)
(-0.00222721 4.90567e-07 0)
(-0.00222045 4.85157e-07 0)
(-0.00221376 4.7984e-07 0)
(-0.00220715 4.74614e-07 0)
(-0.0022006 4.69478e-07 0)
(-0.00219413 4.6443e-07 0)
(-0.00218773 4.59467e-07 0)
(-0.0021814 4.54587e-07 0)
(-0.00217513 4.49787e-07 0)
(-0.00216893 4.45068e-07 0)
(-0.00216279 4.40427e-07 0)
(-0.00215672 4.3586e-07 0)
(-0.00215071 4.31368e-07 0)
(-0.00214477 4.26948e-07 0)
(-0.00213888 4.22599e-07 0)
(-0.00213305 4.18319e-07 0)
(-0.00212729 4.14106e-07 0)
(-0.00212158 4.0996e-07 0)
(-0.00211592 4.05878e-07 0)
(-0.00211033 4.0186e-07 0)
(-0.00210479 3.97904e-07 0)
(-0.0020993 3.9401e-07 0)
(-0.00209387 3.90175e-07 0)
(-0.00208849 3.86399e-07 0)
(-0.00208316 3.82681e-07 0)
(-0.00207789 3.7902e-07 0)
(-0.00207266 3.75415e-07 0)
(-0.00206748 3.71866e-07 0)
(-0.00206236 3.68369e-07 0)
(-0.00205728 3.64925e-07 0)
(-0.00205225 3.61532e-07 0)
(-0.00204726 3.58193e-07 0)
(-0.00204233 3.549e-07 0)
(-0.00203743 3.51654e-07 0)
(-0.00203259 3.48454e-07 0)
(-0.00202778 3.45306e-07 0)
(-0.00202302 3.42203e-07 0)
(-0.00201831 3.39145e-07 0)
(-0.00201363 3.36132e-07 0)
(-0.002009 3.3316e-07 0)
(-0.00200441 3.30235e-07 0)
(-0.00199986 3.27347e-07 0)
(-0.00199535 3.24512e-07 0)
(-0.00199088 3.21701e-07 0)
(-0.00198644 3.18957e-07 0)
(-0.00198205 3.16213e-07 0)
(-0.00197769 3.13568e-07 0)
(-0.00197337 3.10874e-07 0)
(-0.00196909 3.08343e-07 0)
(-0.00196484 3.05664e-07 0)
(-0.00196063 3.03234e-07 0)
(-0.00195646 3.00485e-07 0)
(-0.00195295 2.98051e-07 0)
(-0.00195009 2.96808e-07 0)
(-0.00194723 2.95278e-07 0)
(-0.00194435 2.93524e-07 0)
(-0.00194148 2.91757e-07 0)
(-0.0019386 2.90099e-07 0)
(-0.00193572 2.88428e-07 0)
(-0.00193284 2.86785e-07 0)
(-0.00192995 2.85139e-07 0)
(-0.00192706 2.83499e-07 0)
(-0.00192416 2.81861e-07 0)
(-0.00192126 2.80231e-07 0)
(-0.00191836 2.78589e-07 0)
(-0.00191546 2.76995e-07 0)
(-0.00191255 2.75383e-07 0)
(-0.00190964 2.73785e-07 0)
(-0.00190673 2.72187e-07 0)
(-0.00190381 2.70607e-07 0)
(-0.00190089 2.69032e-07 0)
(-0.00189797 2.67459e-07 0)
(-0.00189504 2.65893e-07 0)
(-0.00189211 2.64331e-07 0)
(-0.00188918 2.62768e-07 0)
(-0.00188625 2.61241e-07 0)
(-0.00188331 2.59701e-07 0)
(-0.00188037 2.58185e-07 0)
(-0.00187743 2.56677e-07 0)
(-0.00187448 2.55172e-07 0)
(-0.00187153 2.53677e-07 0)
(-0.00186857 2.52184e-07 0)
(-0.00186562 2.50693e-07 0)
(-0.00186266 2.49235e-07 0)
(-0.0018597 2.47776e-07 0)
(-0.00185673 2.46331e-07 0)
(-0.00185376 2.44894e-07 0)
(-0.00185079 2.43459e-07 0)
(-0.00184782 2.42042e-07 0)
(-0.00184484 2.40635e-07 0)
(-0.00184186 2.39221e-07 0)
(-0.00183887 2.37858e-07 0)
(-0.00183589 2.36471e-07 0)
(-0.0018329 2.35124e-07 0)
(-0.0018299 2.33784e-07 0)
(-0.0018269 2.32446e-07 0)
(-0.0018239 2.31118e-07 0)
(-0.0018209 2.29802e-07 0)
(-0.00181789 2.28512e-07 0)
(-0.00181488 2.27213e-07 0)
(-0.00181186 2.25909e-07 0)
(-0.00180884 2.24666e-07 0)
(-0.00180582 2.23407e-07 0)
(-0.00180279 2.22172e-07 0)
(-0.00179976 2.20947e-07 0)
(-0.00179672 2.19717e-07 0)
(-0.00179368 2.18513e-07 0)
(-0.00179064 2.17308e-07 0)
(-0.00178759 2.16098e-07 0)
(-0.00178453 2.14945e-07 0)
(-0.00178148 2.1376e-07 0)
(-0.00177841 2.1263e-07 0)
(-0.00177535 2.11508e-07 0)
(-0.00177228 2.10385e-07 0)
(-0.0017692 2.09296e-07 0)
(-0.00176612 2.08175e-07 0)
(-0.00176303 2.07042e-07 0)
(-0.00175994 2.06029e-07 0)
(-0.00175684 2.0497e-07 0)
(-0.00175373 2.03957e-07 0)
(-0.00175062 2.02933e-07 0)
(-0.0017475 2.01953e-07 0)
(-0.00174438 2.00988e-07 0)
(-0.00174125 2.00022e-07 0)
(-0.00173811 1.99097e-07 0)
(-0.00173497 1.98153e-07 0)
(-0.00173182 1.97198e-07 0)
(-0.00172866 1.96379e-07 0)
(-0.00172549 1.95479e-07 0)
(-0.00172231 1.94727e-07 0)
(-0.00171913 1.93848e-07 0)
(-0.00171593 1.93186e-07 0)
(-0.00171273 1.92277e-07 0)
(-0.00170951 1.91833e-07 0)
(-0.0017063 1.90536e-07 0)
(-0.00170305 1.9076e-07 0)
(-0.00169982 1.88819e-07 0)
(-0.00169653 1.90297e-07 0)
(-0.00169331 1.86564e-07 0)
(-0.00168995 1.90936e-07 0)
(-0.00168678 1.82887e-07 0)
(-0.00168327 1.93959e-07 0)
(-0.00168023 1.76014e-07 0)
(-0.00167647 2.02017e-07 0)
(-0.00167372 1.62462e-07 0)
(-0.00166947 2.20212e-07 0)
(-0.0016673 1.3555e-07 0)
(-0.00166219 2.57021e-07 0)
(-0.00166105 8.42244e-08 0)
(-0.0016546 3.21822e-07 0)
(-0.00165495 2.8651e-09 0)
(-0.00164677 3.54696e-07 0)
(-0.0353512 -0.00216563 0)
(-0.0160363 -0.000524969 0)
(-0.0105902 -0.000100558 0)
(-0.00845543 -3.45918e-05 0)
(-0.00749145 -1.96844e-05 0)
(-0.00685589 -1.60119e-05 0)
(-0.00634728 -1.32104e-05 0)
(-0.00593631 -1.07593e-05 0)
(-0.00560203 -8.95684e-06 0)
(-0.00532369 -7.6554e-06 0)
(-0.00508672 -6.66893e-06 0)
(-0.00488168 -5.88921e-06 0)
(-0.00470212 -5.25726e-06 0)
(-0.0045433 -4.73613e-06 0)
(-0.00440164 -4.30016e-06 0)
(-0.00427436 -3.93078e-06 0)
(-0.00415929 -3.61432e-06 0)
(-0.00405468 -3.34046e-06 0)
(-0.00395912 -3.10143e-06 0)
(-0.00387147 -2.8911e-06 0)
(-0.00379075 -2.70472e-06 0)
(-0.00371618 -2.53844e-06 0)
(-0.00364708 -2.3892e-06 0)
(-0.00358288 -2.25447e-06 0)
(-0.00352309 -2.13221e-06 0)
(-0.00346729 -2.02069e-06 0)
(-0.00341512 -1.91853e-06 0)
(-0.00336627 -1.82453e-06 0)
(-0.00332045 -1.73766e-06 0)
(-0.00327743 -1.65727e-06 0)
(-0.00323701 -1.58235e-06 0)
(-0.00319897 -1.51298e-06 0)
(-0.00316316 -1.44783e-06 0)
(-0.00312942 -1.38822e-06 0)
(-0.00309763 -1.33171e-06 0)
(-0.00306762 -1.28221e-06 0)
(-0.00303927 -1.23467e-06 0)
(-0.00301251 -1.19769e-06 0)
(-0.00298701 -1.16254e-06 0)
(-0.00296306 -1.14295e-06 0)
(-0.00293951 -1.13202e-06 0)
(-0.0029181 -1.13554e-06 0)
(-0.00289465 -1.18724e-06 0)
(-0.00287612 -1.20918e-06 0)
(-0.00284816 -1.44857e-06 0)
(-0.00283509 -1.43007e-06 0)
(-0.00278959 -2.30694e-06 0)
(-0.00279142 -1.82094e-06 0)
(-0.00269424 -9.35987e-06 0)
(-0.00255948 0.000177066 0)
(-9.73169e-07 4.30334e-06 0)
(7.44735e-07 1.7535e-05 0)
(5.70127e-06 3.12998e-05 0)
(1.36488e-05 4.31327e-05 0)
(1.48932e-05 5.50646e-05 0)
(-3.05012e-06 8.97077e-05 0)
(-4.37447e-05 0.000166414 0)
(-7.86138e-05 0.000277113 0)
(-7.71708e-05 0.000380666 0)
(-5.18279e-05 0.000445898 0)
(-2.7895e-05 0.000478899 0)
(-9.97353e-06 0.000492838 0)
(3.37013e-06 0.000495145 0)
(1.27651e-05 0.000491976 0)
(1.95649e-05 0.00048774 0)
(2.30227e-05 0.000486826 0)
(1.9253e-05 0.000497084 0)
(-8.39329e-07 0.000532983 0)
(-5.41299e-05 0.000618962 0)
(-0.000163511 0.000791868 0)
(-0.00033015 0.00109796 0)
(-0.000491254 0.00155623 0)
(-0.000556022 0.0020919 0)
(-0.000500678 0.00257173 0)
(-0.000379822 0.00292157 0)
(-0.000244732 0.00313183 0)
(-0.000118484 0.00321752 0)
(-6.83365e-06 0.00319701 0)
(8.5811e-05 0.00309116 0)
(0.000161414 0.00291906 0)
(0.000221749 0.00269037 0)
(0.000266613 0.00242188 0)
(0.000299046 0.0021237 0)
(0.000320547 0.0018073 0)
(0.000333774 0.00148189 0)
(0.000340957 0.0011572 0)
(0.00034631 0.000839437 0)
(0.000349373 0.000520918 0)
(0.000340873 0.000190142 0)
(0.000325265 -0.000124782 0)
(0.000309523 -0.0004162 0)
(0.000294676 -0.000692484 0)
(0.000279179 -0.000954323 0)
(0.000262977 -0.00120111 0)
(0.000246209 -0.00143238 0)
(0.000229027 -0.00164796 0)
(0.000211538 -0.00184782 0)
(0.000193797 -0.00203209 0)
(0.000175819 -0.00220093 0)
(0.000157538 -0.00235449 0)
(0.000138891 -0.00249288 0)
(0.000119789 -0.0026162 0)
(0.000100097 -0.00272439 0)
(7.97512e-05 -0.00281744 0)
(5.85614e-05 -0.00289521 0)
(3.63143e-05 -0.0029574 0)
(1.30057e-05 -0.00300386 0)
(-1.16324e-05 -0.00303426 0)
(-3.86121e-05 -0.00304858 0)
(-6.78212e-05 -0.00304516 0)
(-9.96518e-05 -0.00302447 0)
(-0.000135028 -0.00298439 0)
(-0.000169191 -0.0029261 0)
(-0.000207882 -0.00285205 0)
(-0.000254907 -0.00275184 0)
(-0.000291915 -0.00263463 0)
(-0.000350095 -0.00250897 0)
(-0.000434575 -0.00232702 0)
(-0.000462547 -0.00213732 0)
(-0.000581816 -0.00202821 0)
(-0.000938964 -0.00175068 0)
(-0.00107884 -0.00110378 0)
(-0.000757386 -0.000523488 0)
(-0.000171965 -0.000230324 0)
(0.000415937 -0.000100777 0)
(0.000644074 -0.000109977 0)
(0.000722892 -0.000177561 0)
(0.000655601 -0.000250998 0)
(0.000467057 -0.000288765 0)
(0.000224737 -0.000265301 0)
(1.33793e-05 -0.000204823 0)
(-0.000131887 -0.000148274 0)
(-0.000219399 -0.000111217 0)
(-0.000261671 -8.60681e-05 0)
(-0.000266441 -6.37722e-05 0)
(-0.00025354 -4.55519e-05 0)
(-0.000183321 -2.74764e-05 0)
(-8.08085e-05 -2.89682e-05 0)
(1.76218e-05 -6.36536e-05 0)
(8.64338e-05 -0.000125046 0)
(0.000128351 -0.000194359 0)
(0.000151794 -0.000263455 0)
(0.000166149 -0.000333223 0)
(0.000175141 -0.000407729 0)
(0.000178016 -0.000486857 0)
(0.000174836 -0.000566499 0)
(0.000167565 -0.000643132 0)
(0.000157747 -0.000715161 0)
(0.000146165 -0.000781709 0)
(0.000133387 -0.000842006 0)
(0.000120077 -0.000895496 0)
(0.000106909 -0.000941992 0)
(9.43986e-05 -0.000981665 0)
(8.28398e-05 -0.00101497 0)
(7.23082e-05 -0.00104253 0)
(6.27135e-05 -0.00106504 0)
(5.38883e-05 -0.00108311 0)
(4.56689e-05 -0.00109731 0)
(3.79313e-05 -0.0011081 0)
(3.05944e-05 -0.00111592 0)
(2.36079e-05 -0.0011211 0)
(1.69123e-05 -0.00112391 0)
(1.04601e-05 -0.00112447 0)
(4.24915e-06 -0.00112269 0)
(-1.66859e-06 -0.0011183 0)
(-7.12396e-06 -0.00111076 0)
(-1.18327e-05 -0.00109938 0)
(-1.54434e-05 -0.00108349 0)
(-1.78261e-05 -0.00106288 0)
(-1.95869e-05 -0.0010381 0)
(-2.26983e-05 -0.00101038 0)
(-3.06658e-05 -0.000980742 0)
(-4.76351e-05 -0.000948968 0)
(-7.63819e-05 -0.000912467 0)
(-0.000115951 -0.000866113 0)
(-0.000160722 -0.000805147 0)
(-0.000202648 -0.000729473 0)
(-0.000235524 -0.000644174 0)
(-0.000257497 -0.000555873 0)
(-0.000270203 -0.000469129 0)
(-0.000276426 -0.000385645 0)
(-0.000278407 -0.000305446 0)
(-0.000277558 -0.000228283 0)
(-0.000274641 -0.000154065 0)
(-0.000270166 -8.29491e-05 0)
(-0.000264389 -1.50412e-05 0)
(-0.00025736 4.95143e-05 0)
(-0.000249188 0.000110487 0)
(-0.000240007 0.000167861 0)
(-0.000229753 0.000221537 0)
(-0.000218417 0.000271395 0)
(-0.000205999 0.0003173 0)
(-0.000192519 0.000359114 0)
(-0.00017801 0.000396706 0)
(-0.000162521 0.000429955 0)
(-0.000146115 0.00045876 0)
(-0.000128873 0.000483036 0)
(-0.000110895 0.000502721 0)
(-9.22984e-05 0.000517776 0)
(-7.32068e-05 0.000528193 0)
(-5.37176e-05 0.000533995 0)
(-3.39514e-05 0.000535172 0)
(-1.40899e-05 0.000531795 0)
(5.73373e-06 0.000523998 0)
(2.54046e-05 0.000511906 0)
(4.48094e-05 0.000495647 0)
(6.38265e-05 0.000475372 0)
(8.23248e-05 0.000451254 0)
(0.000100165 0.000423486 0)
(0.000117203 0.000392286 0)
(0.000133287 0.000357893 0)
(0.000148262 0.000320563 0)
(0.00016197 0.000280574 0)
(0.000174247 0.000238224 0)
(0.000184929 0.000193833 0)
(0.00019385 0.000147751 0)
(0.00020085 0.000100361 0)
(0.000205781 5.2084e-05 0)
(0.00020852 3.37835e-06 0)
(0.000208967 -4.52705e-05 0)
(0.000207064 -9.33644e-05 0)
(0.000202795 -0.000140403 0)
(0.000196194 -0.000185894 0)
(0.000187342 -0.000229387 0)
(0.000176345 -0.000270479 0)
(0.000163347 -0.000308789 0)
(0.000148524 -0.00034398 0)
(0.000132083 -0.000375753 0)
(0.00011426 -0.000403856 0)
(9.53098e-05 -0.000428082 0)
(7.55109e-05 -0.000448276 0)
(5.51515e-05 -0.00046434 0)
(3.45239e-05 -0.000476232 0)
(1.39163e-05 -0.000483964 0)
(-6.37855e-06 -0.000487602 0)
(-2.61121e-05 -0.000487244 0)
(-4.4916e-05 -0.000482986 0)
(-6.24973e-05 -0.000475093 0)
(-7.8727e-05 -0.000463813 0)
(-9.3412e-05 -0.000449467 0)
(-0.000106418 -0.0004325 0)
(-0.000117757 -0.000413624 0)
(-0.000127756 -0.000394162 0)
(-0.000137443 -0.000376794 0)
(-0.000149348 -0.000367045 0)
(-0.000169223 -0.000375909 0)
(-0.000209923 -0.000423233 0)
(-0.000297877 -0.000539112 0)
(-0.000466912 -0.000755103 0)
(-0.000729949 -0.00107711 0)
(5.03265e-06 6.33636e-06 0)
(-1.01359e-05 2.30006e-05 0)
(-4.19032e-05 3.29451e-05 0)
(-7.77221e-05 3.77051e-05 0)
(-0.000117508 4.10722e-05 0)
(-0.000160444 4.41321e-05 0)
(-0.000206713 4.68549e-05 0)
(-0.000255524 4.80301e-05 0)
(-0.000304953 4.66624e-05 0)
(-0.000352477 4.2613e-05 0)
(-0.00039582 3.64792e-05 0)
(-0.00043353 2.91213e-05 0)
(-0.000465001 2.12914e-05 0)
(-0.00049026 1.31937e-05 0)
(-0.000509294 4.15865e-06 0)
(-0.00052123 -6.76303e-06 0)
(-0.000524593 -2.06075e-05 0)
(-0.00051677 -3.8141e-05 0)
(-0.000494888 -5.96642e-05 0)
(-0.000455833 -8.50975e-05 0)
(-0.000395805 -0.000112823 0)
(-0.000310797 -0.000139036 0)
(-0.000199001 -0.000156748 0)
(-6.53658e-05 -0.000153089 0)
(7.0927e-05 -0.000119687 0)
(0.000184975 -7.13591e-05 0)
(0.00026177 -2.63961e-05 0)
(0.000302354 1.72787e-05 0)
(0.00029469 8.31141e-05 0)
(0.000214117 0.000158083 0)
(7.26976e-05 0.000192467 0)
(-6.88389e-05 0.0001798 0)
(-0.000175791 0.000144155 0)
(-0.000239323 0.000101021 0)
(-0.00025017 5.48588e-05 0)
(-0.000211725 2.66544e-05 0)
(-0.000151206 4.48964e-06 0)
(-8.05174e-05 -3.98808e-05 0)
(3.11338e-05 -0.000120897 0)
(0.000213134 -0.000218581 0)
(0.00044324 -0.000225953 0)
(0.000619781 -0.000140277 0)
(0.000741261 -0.000151594 0)
(0.000919249 -0.000259915 0)
(0.0011382 -0.000304223 0)
(0.00129668 -0.00023956 0)
(0.00133479 -9.7583e-05 0)
(0.0012361 5.92273e-05 0)
(0.00104524 0.000166775 0)
(0.000821958 0.000219198 0)
(0.000596359 0.000237462 0)
(0.000380145 0.000235139 0)
(0.000178818 0.000218681 0)
(-4.19086e-06 0.00019024 0)
(-0.000160136 0.00015062 0)
(-0.000276922 9.81629e-05 0)
(-0.000347442 3.78665e-05 0)
(-0.000371732 -2.96258e-05 0)
(-0.000346047 -0.000100793 0)
(-0.000264421 -0.000173747 0)
(-0.000120118 -0.000238221 0)
(7.70844e-05 -0.000284056 0)
(0.000304994 -0.000305409 0)
(0.000545538 -0.000300023 0)
(0.000780888 -0.000268056 0)
(0.000990697 -0.000210958 0)
(0.00115338 -0.00013087 0)
(0.00124332 -3.53698e-05 0)
(0.00124474 5.43188e-05 0)
(0.00117144 0.000111291 0)
(0.00106896 0.000126661 0)
(0.00097021 0.000122423 0)
(0.000876075 0.000122207 0)
(0.000773034 0.000131898 0)
(0.000654091 0.000146036 0)
(0.000521021 0.000159611 0)
(0.000377721 0.000170709 0)
(0.000227433 0.000179602 0)
(6.96118e-05 0.000185744 0)
(-9.33373e-05 0.000183881 0)
(-0.000247747 0.000173093 0)
(-0.000390619 0.000157625 0)
(-0.000520618 0.000136831 0)
(-0.000631898 0.000109859 0)
(-0.00071857 7.76957e-05 0)
(-0.000776561 4.25068e-05 0)
(-0.00080418 7.54642e-06 0)
(-0.000803135 -2.43497e-05 0)
(-0.000776131 -5.04724e-05 0)
(-0.000729584 -6.90258e-05 0)
(-0.000670162 -8.00025e-05 0)
(-0.000603868 -8.49831e-05 0)
(-0.000534923 -8.63415e-05 0)
(-0.000465352 -8.63412e-05 0)
(-0.000395403 -8.63454e-05 0)
(-0.000324437 -8.66704e-05 0)
(-0.000251762 -8.67752e-05 0)
(-0.00017775 -8.66386e-05 0)
(-9.96658e-05 -8.44516e-05 0)
(-3.65833e-06 -7.12704e-05 0)
(-7.29623e-05 -2.70678e-05 0)
(-9.09336e-05 -0.000168132 0)
(-8.54399e-05 -0.000306685 0)
(-7.12544e-05 -0.000424089 0)
(-5.45108e-05 -0.000519194 0)
(-3.5114e-05 -0.000589083 0)
(-1.26794e-05 -0.00062984 0)
(1.52635e-05 -0.000634342 0)
(5.68226e-05 -0.000591964 0)
(0.000104759 -0.000481449 0)
(0.000119742 -0.000327862 0)
(8.43098e-05 -0.000206958 0)
(2.86289e-05 -0.000161624 0)
(-1.92102e-05 -0.000186237 0)
(-4.44254e-05 -0.000257122 0)
(-4.55142e-05 -0.000343388 0)
(-2.62979e-05 -0.000420287 0)
(7.53086e-06 -0.000469037 0)
(5.11408e-05 -0.000476736 0)
(0.000100725 -0.000434494 0)
(0.000137098 -0.000335427 0)
(0.000133559 -0.000196196 0)
(9.77996e-05 -5.11953e-05 0)
(6.55702e-05 7.65501e-05 0)
(5.30217e-05 0.000184981 0)
(5.00616e-05 0.000272133 0)
(4.51943e-05 0.000337419 0)
(3.54031e-05 0.000386916 0)
(2.33379e-05 0.000421154 0)
(4.75852e-06 0.000442866 0)
(-2.66508e-05 0.00044792 0)
(-6.94732e-05 0.000423189 0)
(-0.000119413 0.000355713 0)
(-0.000180474 0.000232772 0)
(-0.000246367 3.46629e-05 0)
(-0.000286791 -0.000228923 0)
(-0.000271511 -0.000505783 0)
(-0.000208652 -0.000729374 0)
(-0.000134557 -0.000880628 0)
(-4.81402e-05 -0.000955324 0)
(4.16579e-05 -0.000956928 0)
(0.000141291 -0.000914468 0)
(0.000280777 -0.000821957 0)
(0.000409062 -0.000638543 0)
(0.000432422 -0.000385426 0)
(0.000309424 -0.000171614 0)
(0.000105346 -5.26957e-05 0)
(-9.73813e-05 1.97107e-05 0)
(-0.000271334 7.34278e-05 0)
(-0.000339502 8.44851e-05 0)
(-0.000288711 8.4864e-05 0)
(-0.000122557 0.000128216 0)
(0.000159273 0.000251087 0)
(0.000418894 0.000488747 0)
(0.000402344 0.000852438 0)
(4.04166e-05 0.00110456 0)
(-0.000210679 0.00111839 0)
(-0.000145366 0.00114199 0)
(0.000122641 0.00127731 0)
(0.000576465 0.00147791 0)
(0.000922588 0.00187553 0)
(0.000837302 0.00247929 0)
(0.000339824 0.00277464 0)
(5.89544e-06 0.00263389 0)
(6.4404e-05 0.00254351 0)
(0.000163331 0.00263646 0)
(8.72392e-05 0.00273498 0)
(-4.40928e-06 0.00271809 0)
(1.21586e-05 0.00268377 0)
(4.32315e-05 0.00270369 0)
(1.71629e-05 0.00272311 0)
(-1.18789e-05 0.00270384 0)
(-7.90554e-06 0.00268004 0)
(-3.00904e-06 0.00267091 0)
(-1.52569e-05 0.00265783 0)
(-2.70701e-05 0.00263131 0)
(-2.91193e-05 0.00260225 0)
(-3.1122e-05 0.00257612 0)
(-3.79253e-05 0.00254732 0)
(-4.41736e-05 0.00251333 0)
(-4.73034e-05 0.00247771 0)
(-5.01945e-05 0.00244222 0)
(-5.42271e-05 0.00240532 0)
(-5.79001e-05 0.00236638 0)
(-6.04833e-05 0.00232655 0)
(-6.27941e-05 0.00228646 0)
(-6.52908e-05 0.00224576 0)
(-6.76128e-05 0.0022043 0)
(-6.95486e-05 0.00216242 0)
(-7.13169e-05 0.00212037 0)
(-7.30846e-05 0.00207809 0)
(-7.47907e-05 0.00203555 0)
(-7.63776e-05 0.00199283 0)
(-7.78965e-05 0.00195003 0)
(-7.94028e-05 0.00190715 0)
(-8.08937e-05 0.00186418 0)
(-8.23544e-05 0.00182115 0)
(-8.37935e-05 0.00177809 0)
(-8.52252e-05 0.001735 0)
(-8.6652e-05 0.0016919 0)
(-8.80707e-05 0.00164879 0)
(-8.94831e-05 0.00160568 0)
(-9.08939e-05 0.00156259 0)
(-9.23072e-05 0.0015195 0)
(-9.37258e-05 0.00147643 0)
(-9.51542e-05 0.00143337 0)
(-9.65989e-05 0.00139033 0)
(-9.8067e-05 0.0013473 0)
(-9.9566e-05 0.00130426 0)
(-0.000101104 0.00126122 0)
(-0.000102688 0.00121816 0)
(-0.000104327 0.00117507 0)
(-0.000106028 0.00113192 0)
(-0.000107794 0.00108871 0)
(-0.000109628 0.00104542 0)
(-0.000111532 0.00100203 0)
(-0.000113501 0.000958524 0)
(-0.000115529 0.000914904 0)
(-0.000117608 0.000871159 0)
(-0.000119724 0.000827291 0)
(-0.000121864 0.000783307 0)
(-0.00012401 0.000739219 0)
(-0.000126145 0.000695047 0)
(-0.000128251 0.000650818 0)
(-0.000130309 0.000606564 0)
(-0.000132302 0.000562324 0)
(-0.000134212 0.00051814 0)
(-0.000136025 0.000474063 0)
(-0.000137723 0.000430145 0)
(-0.000139294 0.000386443 0)
(-0.000140725 0.000343019 0)
(-0.000142006 0.000299938 0)
(-0.000143127 0.000257265 0)
(-0.00014408 0.000215068 0)
(-0.000144861 0.000173417 0)
(-0.000145465 0.00013238 0)
(-0.000145885 9.20232e-05 0)
(-0.000146109 5.24142e-05 0)
(-0.000146151 1.36277e-05 0)
(-0.000146 -2.42935e-05 0)
(-0.000145603 -6.12708e-05 0)
(-0.000144928 -9.71903e-05 0)
(-0.00014395 -0.000131954 0)
(-0.000142612 -0.00016545 0)
(-0.000140857 -0.000197571 0)
(-0.000138622 -0.000228232 0)
(-0.000135839 -0.000257371 0)
(-0.00013242 -0.000284945 0)
(-0.000128254 -0.000310908 0)
(-0.000123195 -0.00033523 0)
(-0.000117038 -0.000357849 0)
(-0.000109567 -0.000378703 0)
(-0.000100487 -0.000397778 0)
(-8.94137e-05 -0.000415082 0)
(-7.58765e-05 -0.000430651 0)
(-5.92891e-05 -0.000444549 0)
(-3.88757e-05 -0.000456867 0)
(-1.36509e-05 -0.000467522 0)
(1.72574e-05 -0.000475941 0)
(5.42354e-05 -0.00048066 0)
(9.65802e-05 -0.000478931 0)
(0.000141643 -0.000467121 0)
(0.000184499 -0.000442448 0)
(0.000219025 -0.00040529 0)
(0.000240189 -0.000360183 0)
(0.000246156 -0.000314003 0)
(0.000238089 -0.000272258 0)
(0.000218488 -0.000237373 0)
(0.000191114 -0.00021156 0)
(0.000154642 -0.000193936 0)
(0.000105286 -0.000181241 0)
(4.54566e-05 -0.000174872 0)
(-2.14922e-05 -0.000176243 0)
(-9.18828e-05 -0.000185846 0)
(-0.000163015 -0.000205308 0)
(-0.000235487 -0.00023649 0)
(-0.000310235 -0.000278877 0)
(-0.000387254 -0.000331222 0)
(-0.000466351 -0.000392866 0)
(-0.000547432 -0.000463528 0)
(-0.000630636 -0.000543113 0)
(-0.000716373 -0.000631649 0)
(-0.000805124 -0.000729199 0)
(-0.000897363 -0.000835823 0)
(-0.000993664 -0.000951577 0)
(-0.00109471 -0.00107657 0)
(-0.00120116 -0.00121094 0)
(-0.00131374 -0.00135484 0)
(-0.00143326 -0.00150843 0)
(-0.00156069 -0.00167188 0)
(-0.00169709 -0.0018456 0)
(-0.00184372 -0.00202921 0)
(-0.00200187 -0.0022256 0)
(-0.00217248 -0.00242761 0)
(-0.00235934 -0.00265658 0)
(-0.00255576 -0.00286087 0)
(-0.00278382 -0.00316345 0)
(-0.00298244 -0.00328973 0)
(-0.00326296 -0.00382402 0)
(-0.00324688 -0.00348054 0)
)
;
    }
    frontAndBack
    {
        type            empty;
    }
}


// ************************************************************************* //
