/*--------------------------------*- C++ -*----------------------------------*\
  =========                 |
  \\      /  F ield         | OpenFOAM: The Open Source CFD Toolbox
   \\    /   O peration     | Website:  https://openfoam.org
    \\  /    A nd           | Version:  7
     \\/     M anipulation  |
\*---------------------------------------------------------------------------*/
FoamFile
{
    version     2.0;
    format      ascii;
    class       volScalarField;
    location    "0.38";
    object      k;
}
// * * * * * * * * * * * * * * * * * * * * * * * * * * * * * * * * * * * * * //

dimensions      [0 2 -2 0 0 0 0];

internalField   nonuniform List<scalar> 
70000
(
1.08549e-05
4.21883e-06
2.82446e-06
2.31696e-06
1.99773e-06
1.7575e-06
1.56561e-06
1.40886e-06
1.27812e-06
1.16756e-06
1.07261e-06
9.90751e-07
9.19131e-07
8.56632e-07
8.0113e-07
7.52251e-07
7.08248e-07
6.6919e-07
6.33601e-07
6.0184e-07
5.7258e-07
5.46409e-07
5.2199e-07
5.00199e-07
4.79519e-07
4.61232e-07
4.4347e-07
4.28034e-07
4.12576e-07
3.9948e-07
3.85894e-07
3.74719e-07
3.62716e-07
3.53109e-07
3.42475e-07
3.34278e-07
3.25188e-07
3.18448e-07
3.10506e-07
3.05275e-07
2.97873e-07
2.94882e-07
2.87855e-07
2.87126e-07
2.80402e-07
2.85346e-07
2.7405e-07
3.06434e-07
2.81305e-07
3.69744e-07
1.72795e-05
1.13674e-05
8.52081e-06
7.01083e-06
6.03783e-06
5.31186e-06
4.73265e-06
4.25929e-06
3.86437e-06
3.53049e-06
3.24372e-06
2.99653e-06
2.78021e-06
2.59143e-06
2.42378e-06
2.27609e-06
2.14315e-06
2.02511e-06
1.91756e-06
1.82156e-06
1.73311e-06
1.65401e-06
1.58015e-06
1.51431e-06
1.45172e-06
1.39648e-06
1.3427e-06
1.29608e-06
1.24927e-06
1.20969e-06
1.16858e-06
1.13477e-06
1.0985e-06
1.06937e-06
1.03729e-06
1.01229e-06
9.84548e-07
9.63631e-07
9.39206e-07
9.22754e-07
8.99914e-07
8.89676e-07
8.67888e-07
8.63112e-07
8.43713e-07
8.50792e-07
8.2668e-07
8.90866e-07
8.48202e-07
9.16744e-07
1.93701e-05
1.61298e-05
1.32913e-05
1.12901e-05
9.82927e-06
8.69723e-06
7.77985e-06
7.02277e-06
6.38641e-06
5.84581e-06
5.37972e-06
4.97685e-06
4.62333e-06
4.31419e-06
4.03909e-06
3.79629e-06
3.57741e-06
3.38273e-06
3.20515e-06
3.04649e-06
2.90005e-06
2.76915e-06
2.64655e-06
2.53748e-06
2.43334e-06
2.34176e-06
2.25211e-06
2.17472e-06
2.09664e-06
2.03079e-06
1.96229e-06
1.90582e-06
1.8455e-06
1.79665e-06
1.74343e-06
1.701e-06
1.65451e-06
1.61847e-06
1.57722e-06
1.54833e-06
1.50975e-06
1.49058e-06
1.45306e-06
1.44173e-06
1.40841e-06
1.4108e-06
1.37964e-06
1.44495e-06
1.40927e-06
1.43283e-06
1.9861e-05
1.826e-05
1.60858e-05
1.42006e-05
1.26407e-05
1.13497e-05
1.0262e-05
9.34058e-06
8.54918e-06
7.86693e-06
7.27202e-06
6.75346e-06
6.29483e-06
5.89133e-06
5.53016e-06
5.20974e-06
4.91954e-06
4.6604e-06
4.42309e-06
4.2106e-06
4.01361e-06
3.83749e-06
3.67158e-06
3.52429e-06
3.38261e-06
3.25854e-06
3.13607e-06
3.0308e-06
2.92394e-06
2.83389e-06
2.74018e-06
2.66243e-06
2.58005e-06
2.51231e-06
2.4398e-06
2.3804e-06
2.31651e-06
2.26497e-06
2.20786e-06
2.16553e-06
2.1125e-06
2.08235e-06
2.03028e-06
2.01092e-06
1.96287e-06
1.95735e-06
1.91894e-06
1.96707e-06
1.94948e-06
1.94144e-06
1.99707e-05
1.78457e-05
1.60748e-05
1.47665e-05
1.36026e-05
1.25379e-05
1.15696e-05
1.07027e-05
9.92149e-06
9.227e-06
8.60645e-06
8.05498e-06
7.5587e-06
7.11609e-06
6.71466e-06
6.35452e-06
6.02494e-06
5.72833e-06
5.45438e-06
5.20801e-06
4.97752e-06
4.77123e-06
4.5748e-06
4.4008e-06
4.2314e-06
4.08367e-06
3.93615e-06
3.8097e-06
3.68049e-06
3.57126e-06
3.45782e-06
3.3625e-06
3.26281e-06
3.17888e-06
3.09122e-06
3.01683e-06
2.93958e-06
2.87399e-06
2.80495e-06
2.74918e-06
2.68504e-06
2.64201e-06
2.57903e-06
2.5511e-06
2.48979e-06
2.47552e-06
2.42654e-06
2.45132e-06
2.43799e-06
2.40855e-06
2.00095e-05
1.47039e-05
1.37474e-05
1.32104e-05
1.25907e-05
1.19266e-05
1.1277e-05
1.06572e-05
1.00793e-05
9.54612e-06
9.04474e-06
8.57953e-06
8.14524e-06
7.74663e-06
7.37468e-06
7.03345e-06
6.71471e-06
6.42383e-06
6.15067e-06
5.90305e-06
5.66735e-06
5.45576e-06
5.25052e-06
5.06898e-06
4.88893e-06
4.73233e-06
4.57349e-06
4.43729e-06
4.29715e-06
4.17761e-06
4.05408e-06
3.94809e-06
3.83926e-06
3.74448e-06
3.6487e-06
3.56341e-06
3.47899e-06
3.40246e-06
3.32723e-06
3.26027e-06
3.19082e-06
3.13643e-06
3.06786e-06
3.03072e-06
2.96019e-06
2.93817e-06
2.87856e-06
2.88054e-06
2.8621e-06
2.81807e-06
2.01331e-05
1.54693e-05
9.63475e-06
9.39722e-06
9.49149e-06
9.49056e-06
9.43156e-06
9.29294e-06
9.05163e-06
8.77854e-06
8.48265e-06
8.1861e-06
7.89345e-06
7.61118e-06
7.33376e-06
7.07407e-06
6.82592e-06
6.59382e-06
6.36864e-06
6.16113e-06
5.95695e-06
5.77219e-06
5.58721e-06
5.42349e-06
5.2562e-06
5.11061e-06
4.95973e-06
4.82973e-06
4.6949e-06
4.57787e-06
4.45784e-06
4.35156e-06
4.24502e-06
4.14785e-06
4.05361e-06
3.9643e-06
3.881e-06
3.79908e-06
3.72487e-06
3.65112e-06
3.58287e-06
3.52043e-06
3.45267e-06
3.40737e-06
3.33571e-06
3.30698e-06
3.24462e-06
3.22652e-06
3.19939e-06
3.14218e-06
2.01712e-05
1.86769e-05
8.69688e-06
5.54035e-06
5.6299e-06
5.9329e-06
6.29001e-06
6.57491e-06
6.75282e-06
6.86123e-06
6.87916e-06
6.85951e-06
6.80641e-06
6.71817e-06
6.60642e-06
6.48568e-06
6.34715e-06
6.20712e-06
6.06245e-06
5.9243e-06
5.78028e-06
5.64803e-06
5.50909e-06
5.3857e-06
5.25346e-06
5.13995e-06
5.01893e-06
4.91349e-06
4.80261e-06
4.70349e-06
4.60255e-06
4.50903e-06
4.41787e-06
4.32941e-06
4.24775e-06
4.16396e-06
4.09104e-06
4.012e-06
3.94655e-06
3.87314e-06
3.81274e-06
3.74789e-06
3.68807e-06
3.63649e-06
3.57409e-06
3.53384e-06
3.48142e-06
3.4389e-06
3.40974e-06
3.35269e-06
2.01671e-05
1.97241e-05
1.61702e-05
4.86566e-06
3.04272e-06
3.10522e-06
3.37274e-06
3.80206e-06
4.1661e-06
4.48306e-06
4.7285e-06
4.91708e-06
5.05586e-06
5.15549e-06
5.21254e-06
5.2483e-06
5.25067e-06
5.24215e-06
5.21867e-06
5.18278e-06
5.13154e-06
5.08e-06
5.01587e-06
4.95552e-06
4.8839e-06
4.8189e-06
4.74263e-06
4.67397e-06
4.59924e-06
4.52943e-06
4.45837e-06
4.38853e-06
4.32232e-06
4.25295e-06
4.19225e-06
4.12386e-06
4.06858e-06
4.00178e-06
3.95136e-06
3.88755e-06
3.8408e-06
3.78157e-06
3.73558e-06
3.68293e-06
3.63736e-06
3.58786e-06
3.54971e-06
3.49675e-06
3.46169e-06
3.42188e-06
2.01476e-05
1.99343e-05
1.90665e-05
1.45033e-05
5.25105e-06
2.15608e-06
1.91448e-06
1.99297e-06
2.20484e-06
2.50236e-06
2.77636e-06
3.0281e-06
3.25067e-06
3.44627e-06
3.60764e-06
3.74543e-06
3.85446e-06
3.9434e-06
4.01162e-06
4.06591e-06
4.10161e-06
4.12741e-06
4.14067e-06
4.14406e-06
4.14051e-06
4.13261e-06
4.11588e-06
4.09771e-06
4.07302e-06
4.0462e-06
4.01705e-06
3.98389e-06
3.95247e-06
3.91422e-06
3.88262e-06
3.8406e-06
3.80939e-06
3.76487e-06
3.7341e-06
3.68811e-06
3.65708e-06
3.61081e-06
3.57929e-06
3.53369e-06
3.50238e-06
3.45632e-06
3.42501e-06
3.38426e-06
3.34033e-06
3.3153e-06
2.01215e-05
1.99661e-05
1.96428e-05
1.8548e-05
1.52184e-05
8.3729e-06
3.11492e-06
1.63461e-06
1.44247e-06
1.44869e-06
1.52435e-06
1.68343e-06
1.86364e-06
2.0394e-06
2.20681e-06
2.36534e-06
2.5094e-06
2.64059e-06
2.75551e-06
2.85972e-06
2.94842e-06
3.02732e-06
3.0932e-06
3.15064e-06
3.19655e-06
3.23691e-06
3.26777e-06
3.29332e-06
3.31246e-06
3.32621e-06
3.33552e-06
3.34045e-06
3.34083e-06
3.33876e-06
3.3347e-06
3.32509e-06
3.31771e-06
3.30209e-06
3.29192e-06
3.27137e-06
3.25873e-06
3.23404e-06
3.21864e-06
3.19027e-06
3.17203e-06
3.14123e-06
3.1155e-06
3.09052e-06
3.05074e-06
3.03033e-06
2.00981e-05
1.99328e-05
1.97576e-05
1.93534e-05
1.85084e-05
1.65423e-05
1.23426e-05
6.88063e-06
3.00251e-06
1.4972e-06
1.2438e-06
1.14724e-06
1.15045e-06
1.19151e-06
1.28162e-06
1.38752e-06
1.4975e-06
1.60681e-06
1.71373e-06
1.81857e-06
1.91563e-06
2.00853e-06
2.09267e-06
2.17178e-06
2.24286e-06
2.30811e-06
2.36729e-06
2.4196e-06
2.4676e-06
2.50884e-06
2.54683e-06
2.57822e-06
2.60762e-06
2.62996e-06
2.65245e-06
2.66702e-06
2.6829e-06
2.69143e-06
2.70074e-06
2.7042e-06
2.70684e-06
2.70566e-06
2.70292e-06
2.69595e-06
2.68904e-06
2.67599e-06
2.65985e-06
2.64695e-06
2.61997e-06
2.60484e-06
2.00781e-05
1.98876e-05
1.97572e-05
1.94619e-05
1.91471e-05
1.86433e-05
1.7561e-05
1.54364e-05
1.17649e-05
7.47889e-06
4.01268e-06
1.93211e-06
1.213e-06
1.05799e-06
9.82982e-07
9.41081e-07
9.51143e-07
9.83423e-07
1.04355e-06
1.10684e-06
1.17363e-06
1.24291e-06
1.31139e-06
1.38021e-06
1.44758e-06
1.51126e-06
1.57387e-06
1.63101e-06
1.68718e-06
1.73759e-06
1.78724e-06
1.83052e-06
1.87371e-06
1.90994e-06
1.94678e-06
1.97662e-06
2.00659e-06
2.03126e-06
2.05449e-06
2.0733e-06
2.09069e-06
2.10351e-06
2.11469e-06
2.1212e-06
2.12589e-06
2.12529e-06
2.12247e-06
2.11672e-06
2.10406e-06
2.09512e-06
2.00613e-05
1.9854e-05
1.97347e-05
1.94721e-05
1.92564e-05
1.90482e-05
1.87379e-05
1.81947e-05
1.71062e-05
1.52495e-05
1.26006e-05
9.28484e-06
6.02941e-06
3.52718e-06
1.91374e-06
1.18005e-06
9.67379e-07
8.92236e-07
8.38053e-07
7.9528e-07
7.95882e-07
8.07844e-07
8.3546e-07
8.72822e-07
9.12221e-07
9.52378e-07
9.96256e-07
1.03833e-06
1.0834e-06
1.1258e-06
1.16989e-06
1.20983e-06
1.25123e-06
1.2877e-06
1.3258e-06
1.35865e-06
1.39203e-06
1.42184e-06
1.45038e-06
1.4754e-06
1.49932e-06
1.51967e-06
1.53782e-06
1.55227e-06
1.5647e-06
1.57266e-06
1.57806e-06
1.57787e-06
1.57587e-06
1.57191e-06
2.00474e-05
1.98304e-05
1.97081e-05
1.94499e-05
1.92733e-05
1.91161e-05
1.89666e-05
1.87523e-05
1.84654e-05
1.7919e-05
1.70892e-05
1.57256e-05
1.3921e-05
1.15941e-05
8.93464e-06
6.33585e-06
4.15597e-06
2.56891e-06
1.54763e-06
1.04911e-06
8.68717e-07
8.02072e-07
7.5411e-07
7.12977e-07
6.82357e-07
6.75816e-07
6.80721e-07
6.92787e-07
7.14139e-07
7.35719e-07
7.6033e-07
7.83515e-07
8.10206e-07
8.35063e-07
8.63047e-07
8.88258e-07
9.1528e-07
9.40385e-07
9.65298e-07
9.87999e-07
1.00983e-06
1.03034e-06
1.04817e-06
1.06405e-06
1.07826e-06
1.08946e-06
1.09736e-06
1.10323e-06
1.10415e-06
1.10351e-06
2.00362e-05
1.98126e-05
1.96856e-05
1.94198e-05
1.92593e-05
1.91098e-05
1.90014e-05
1.88508e-05
1.87139e-05
1.85038e-05
1.82527e-05
1.78413e-05
1.72475e-05
1.63862e-05
1.52037e-05
1.36847e-05
1.19024e-05
9.84262e-06
7.71407e-06
5.72119e-06
4.02853e-06
2.73269e-06
1.79435e-06
1.20368e-06
9.02829e-07
7.74305e-07
7.16857e-07
6.79128e-07
6.44496e-07
6.13063e-07
5.91781e-07
5.79955e-07
5.80749e-07
5.84749e-07
5.93867e-07
6.04584e-07
6.17764e-07
6.30226e-07
6.43518e-07
6.56172e-07
6.68884e-07
6.82455e-07
6.94224e-07
7.06041e-07
7.16786e-07
7.26801e-07
7.33226e-07
7.38809e-07
7.41864e-07
7.42452e-07
2.00271e-05
1.97987e-05
1.96665e-05
1.93979e-05
1.92336e-05
1.90824e-05
1.89834e-05
1.88541e-05
1.87382e-05
1.85985e-05
1.84637e-05
1.82937e-05
1.80886e-05
1.78042e-05
1.74256e-05
1.68887e-05
1.6194e-05
1.52875e-05
1.41689e-05
1.28456e-05
1.1374e-05
9.73893e-06
8.05035e-06
6.42211e-06
4.94054e-06
3.68551e-06
2.68672e-06
1.91441e-06
1.35758e-06
1.00133e-06
8.03253e-07
7.02801e-07
6.5156e-07
6.18533e-07
5.92425e-07
5.66499e-07
5.43408e-07
5.23994e-07
5.10952e-07
5.02571e-07
4.99987e-07
5.0078e-07
5.02962e-07
5.07356e-07
5.12006e-07
5.1755e-07
5.22775e-07
5.29167e-07
5.3749e-07
5.46858e-07
2.002e-05
1.97902e-05
1.96463e-05
1.93816e-05
1.92097e-05
1.90534e-05
1.89455e-05
1.88278e-05
1.87167e-05
1.85918e-05
1.84753e-05
1.83494e-05
1.82266e-05
1.80843e-05
1.79305e-05
1.77331e-05
1.74938e-05
1.71798e-05
1.6784e-05
1.62724e-05
1.565e-05
1.48909e-05
1.39949e-05
1.29674e-05
1.1837e-05
1.06205e-05
9.32122e-06
8.00257e-06
6.71492e-06
5.51433e-06
4.43045e-06
3.49984e-06
2.73188e-06
2.10654e-06
1.61112e-06
1.23909e-06
9.77739e-07
8.08468e-07
7.04899e-07
6.43488e-07
6.06853e-07
5.83011e-07
5.66248e-07
5.53248e-07
5.43253e-07
5.36917e-07
5.37783e-07
5.44129e-07
5.60323e-07
5.95202e-07
2.00144e-05
1.97902e-05
1.96201e-05
1.93683e-05
1.91893e-05
1.90268e-05
1.89097e-05
1.87917e-05
1.86767e-05
1.85564e-05
1.84448e-05
1.83283e-05
1.82168e-05
1.80996e-05
1.79871e-05
1.78661e-05
1.77428e-05
1.76023e-05
1.7445e-05
1.72544e-05
1.7028e-05
1.67526e-05
1.64167e-05
1.60127e-05
1.55326e-05
1.49734e-05
1.43299e-05
1.3601e-05
1.27949e-05
1.19211e-05
1.09996e-05
1.00388e-05
9.04197e-06
8.04377e-06
7.06741e-06
6.14217e-06
5.28102e-06
4.50917e-06
3.82287e-06
3.2389e-06
2.75023e-06
2.3459e-06
2.02021e-06
1.76008e-06
1.56876e-06
1.43137e-06
1.34185e-06
1.33332e-06
1.36997e-06
1.48215e-06
2.00102e-05
1.97943e-05
1.95933e-05
1.93546e-05
1.91707e-05
1.90016e-05
1.88762e-05
1.87562e-05
1.86368e-05
1.85141e-05
1.83991e-05
1.82831e-05
1.8172e-05
1.80622e-05
1.79551e-05
1.78472e-05
1.77402e-05
1.76332e-05
1.75259e-05
1.74145e-05
1.72981e-05
1.71743e-05
1.70316e-05
1.6874e-05
1.66908e-05
1.64789e-05
1.62306e-05
1.59477e-05
1.56144e-05
1.52419e-05
1.48149e-05
1.43433e-05
1.38221e-05
1.32559e-05
1.26461e-05
1.20055e-05
1.13348e-05
1.06548e-05
9.96996e-06
9.28816e-06
8.62373e-06
7.98614e-06
7.40215e-06
6.85224e-06
6.40849e-06
5.99666e-06
5.67969e-06
5.43411e-06
5.28277e-06
5.29571e-06
2.0007e-05
1.98019e-05
1.95685e-05
1.93415e-05
1.91531e-05
1.89781e-05
1.88442e-05
1.87221e-05
1.8598e-05
1.84729e-05
1.8353e-05
1.82357e-05
1.81199e-05
1.80092e-05
1.78996e-05
1.77923e-05
1.76879e-05
1.75877e-05
1.74865e-05
1.73879e-05
1.72882e-05
1.7194e-05
1.7091e-05
1.69954e-05
1.68926e-05
1.67887e-05
1.66706e-05
1.6555e-05
1.64115e-05
1.62696e-05
1.60976e-05
1.59115e-05
1.5702e-05
1.54724e-05
1.52122e-05
1.49357e-05
1.46198e-05
1.42974e-05
1.39415e-05
1.35709e-05
1.31874e-05
1.28003e-05
1.24052e-05
1.20005e-05
1.1658e-05
1.12947e-05
1.09845e-05
1.07009e-05
1.05066e-05
1.0322e-05
2.00046e-05
1.98107e-05
1.95452e-05
1.93286e-05
1.9136e-05
1.89562e-05
1.88134e-05
1.86894e-05
1.85608e-05
1.84332e-05
1.83087e-05
1.81892e-05
1.80688e-05
1.79564e-05
1.7843e-05
1.77338e-05
1.76247e-05
1.75235e-05
1.74192e-05
1.73202e-05
1.72218e-05
1.71339e-05
1.70348e-05
1.69494e-05
1.68586e-05
1.67753e-05
1.66789e-05
1.66038e-05
1.65046e-05
1.64291e-05
1.63332e-05
1.62415e-05
1.61441e-05
1.60445e-05
1.59313e-05
1.58206e-05
1.56833e-05
1.55581e-05
1.54082e-05
1.52508e-05
1.50862e-05
1.49239e-05
1.47353e-05
1.45416e-05
1.43799e-05
1.4193e-05
1.40077e-05
1.38248e-05
1.36959e-05
1.3534e-05
2.00029e-05
1.982e-05
1.95236e-05
1.93153e-05
1.91189e-05
1.89359e-05
1.87839e-05
1.86576e-05
1.85253e-05
1.83951e-05
1.82668e-05
1.81447e-05
1.80199e-05
1.79054e-05
1.77887e-05
1.76767e-05
1.75639e-05
1.7461e-05
1.73526e-05
1.72511e-05
1.71488e-05
1.70584e-05
1.69551e-05
1.68684e-05
1.67759e-05
1.66953e-05
1.66007e-05
1.65334e-05
1.6439e-05
1.63753e-05
1.62921e-05
1.62179e-05
1.61432e-05
1.60725e-05
1.59977e-05
1.59312e-05
1.58493e-05
1.57868e-05
1.57093e-05
1.56317e-05
1.55554e-05
1.54872e-05
1.53945e-05
1.53092e-05
1.52378e-05
1.51597e-05
1.5062e-05
1.49641e-05
1.48927e-05
1.47961e-05
2.00017e-05
1.98287e-05
1.95038e-05
1.93011e-05
1.91016e-05
1.89171e-05
1.8756e-05
1.86271e-05
1.84919e-05
1.8359e-05
1.82277e-05
1.81026e-05
1.79743e-05
1.78573e-05
1.7738e-05
1.76226e-05
1.7507e-05
1.74019e-05
1.72899e-05
1.71858e-05
1.70807e-05
1.69874e-05
1.68808e-05
1.67905e-05
1.66952e-05
1.66118e-05
1.65115e-05
1.64419e-05
1.63449e-05
1.62791e-05
1.61952e-05
1.61212e-05
1.605e-05
1.59844e-05
1.59158e-05
1.58551e-05
1.5784e-05
1.57322e-05
1.56692e-05
1.56098e-05
1.55537e-05
1.55079e-05
1.5444e-05
1.53922e-05
1.5348e-05
1.53073e-05
1.52493e-05
1.51889e-05
1.51402e-05
1.50882e-05
2.00009e-05
1.98307e-05
1.94877e-05
1.92866e-05
1.90844e-05
1.89001e-05
1.87303e-05
1.85983e-05
1.84608e-05
1.83255e-05
1.81917e-05
1.80638e-05
1.79325e-05
1.78129e-05
1.76917e-05
1.75728e-05
1.74549e-05
1.73475e-05
1.72322e-05
1.7126e-05
1.70182e-05
1.69221e-05
1.68133e-05
1.67193e-05
1.66221e-05
1.65359e-05
1.64325e-05
1.63589e-05
1.62608e-05
1.61905e-05
1.61033e-05
1.60277e-05
1.59502e-05
1.58833e-05
1.58118e-05
1.57481e-05
1.5677e-05
1.56235e-05
1.55602e-05
1.55043e-05
1.54504e-05
1.5407e-05
1.53492e-05
1.53033e-05
1.5262e-05
1.52283e-05
1.51827e-05
1.51339e-05
1.50874e-05
1.50468e-05
2.00003e-05
1.9829e-05
1.94742e-05
1.92711e-05
1.90669e-05
1.88849e-05
1.87071e-05
1.85715e-05
1.84323e-05
1.82951e-05
1.81592e-05
1.80288e-05
1.78949e-05
1.77732e-05
1.76502e-05
1.75284e-05
1.74086e-05
1.72989e-05
1.71807e-05
1.70727e-05
1.69624e-05
1.68635e-05
1.67532e-05
1.6656e-05
1.6557e-05
1.64683e-05
1.6363e-05
1.62857e-05
1.61874e-05
1.61136e-05
1.60225e-05
1.59484e-05
1.58638e-05
1.57977e-05
1.57221e-05
1.56564e-05
1.5583e-05
1.55273e-05
1.54595e-05
1.54048e-05
1.53466e-05
1.53008e-05
1.52429e-05
1.51967e-05
1.51526e-05
1.51195e-05
1.50742e-05
1.50281e-05
1.49762e-05
1.49324e-05
2e-05
1.98272e-05
1.94628e-05
1.92541e-05
1.90487e-05
1.8871e-05
1.86863e-05
1.85469e-05
1.84063e-05
1.8268e-05
1.81302e-05
1.79981e-05
1.7862e-05
1.77389e-05
1.7614e-05
1.74904e-05
1.73687e-05
1.7257e-05
1.71364e-05
1.70272e-05
1.69146e-05
1.68127e-05
1.67016e-05
1.66018e-05
1.65008e-05
1.64102e-05
1.63033e-05
1.62232e-05
1.61243e-05
1.6048e-05
1.59534e-05
1.58818e-05
1.57908e-05
1.57262e-05
1.56472e-05
1.55803e-05
1.55063e-05
1.54482e-05
1.5377e-05
1.53243e-05
1.52619e-05
1.52151e-05
1.5156e-05
1.51083e-05
1.50616e-05
1.50286e-05
1.49782e-05
1.49358e-05
1.48752e-05
1.48217e-05
1.99999e-05
1.9826e-05
1.94544e-05
1.92367e-05
1.90306e-05
1.88589e-05
1.86686e-05
1.85251e-05
1.83831e-05
1.82447e-05
1.81053e-05
1.79723e-05
1.78344e-05
1.77107e-05
1.75838e-05
1.74597e-05
1.7336e-05
1.72228e-05
1.71004e-05
1.69902e-05
1.68761e-05
1.67711e-05
1.66598e-05
1.65581e-05
1.64546e-05
1.63628e-05
1.62546e-05
1.61725e-05
1.60724e-05
1.59943e-05
1.58972e-05
1.58276e-05
1.57313e-05
1.56687e-05
1.55861e-05
1.55195e-05
1.54456e-05
1.53845e-05
1.53124e-05
1.52606e-05
1.51955e-05
1.51491e-05
1.50883e-05
1.5039e-05
1.4992e-05
1.49574e-05
1.49044e-05
1.4858e-05
1.47962e-05
1.47378e-05
1.99999e-05
1.98252e-05
1.94488e-05
1.92202e-05
1.90133e-05
1.88487e-05
1.86548e-05
1.85068e-05
1.83637e-05
1.82259e-05
1.80853e-05
1.79518e-05
1.7813e-05
1.7689e-05
1.75607e-05
1.74368e-05
1.73117e-05
1.71971e-05
1.7074e-05
1.69628e-05
1.68477e-05
1.67399e-05
1.66287e-05
1.6526e-05
1.64199e-05
1.63272e-05
1.62183e-05
1.61349e-05
1.60332e-05
1.59535e-05
1.58553e-05
1.57869e-05
1.56865e-05
1.56259e-05
1.55394e-05
1.54751e-05
1.53998e-05
1.53373e-05
1.52653e-05
1.52124e-05
1.51471e-05
1.51015e-05
1.50374e-05
1.49882e-05
1.49418e-05
1.49044e-05
1.48478e-05
1.47987e-05
1.47356e-05
1.46762e-05
1.99999e-05
1.98248e-05
1.94457e-05
1.92053e-05
1.89975e-05
1.88405e-05
1.86452e-05
1.84927e-05
1.83484e-05
1.8212e-05
1.80707e-05
1.79374e-05
1.77985e-05
1.76746e-05
1.75453e-05
1.74223e-05
1.72966e-05
1.71806e-05
1.70578e-05
1.69458e-05
1.68303e-05
1.67206e-05
1.66092e-05
1.65066e-05
1.63981e-05
1.63047e-05
1.61959e-05
1.61111e-05
1.60081e-05
1.59271e-05
1.5829e-05
1.5761e-05
1.56578e-05
1.5599e-05
1.55089e-05
1.54482e-05
1.53697e-05
1.53082e-05
1.52358e-05
1.51811e-05
1.51178e-05
1.50712e-05
1.5004e-05
1.4957e-05
1.49098e-05
1.48678e-05
1.48084e-05
1.47584e-05
1.4693e-05
1.46295e-05
1.99999e-05
1.98249e-05
1.94451e-05
1.91929e-05
1.89836e-05
1.88341e-05
1.86398e-05
1.84829e-05
1.83378e-05
1.82032e-05
1.80619e-05
1.79293e-05
1.77911e-05
1.76679e-05
1.75384e-05
1.74166e-05
1.72913e-05
1.71745e-05
1.70523e-05
1.69406e-05
1.68245e-05
1.67142e-05
1.66026e-05
1.65005e-05
1.63904e-05
1.62962e-05
1.61887e-05
1.61021e-05
1.59983e-05
1.59169e-05
1.58189e-05
1.57514e-05
1.56465e-05
1.55888e-05
1.54965e-05
1.54392e-05
1.53568e-05
1.52985e-05
1.5224e-05
1.51689e-05
1.51077e-05
1.5058e-05
1.49902e-05
1.4946e-05
1.48948e-05
1.48489e-05
1.47893e-05
1.47375e-05
1.46671e-05
1.45967e-05
1.99999e-05
1.98254e-05
1.94468e-05
1.91834e-05
1.8972e-05
1.88292e-05
1.86383e-05
1.84778e-05
1.83319e-05
1.81994e-05
1.80591e-05
1.79278e-05
1.77913e-05
1.76692e-05
1.75402e-05
1.74199e-05
1.72953e-05
1.71786e-05
1.7057e-05
1.69461e-05
1.68299e-05
1.67199e-05
1.66083e-05
1.65067e-05
1.63963e-05
1.63014e-05
1.61954e-05
1.61076e-05
1.60036e-05
1.59227e-05
1.58246e-05
1.57577e-05
1.56523e-05
1.5595e-05
1.55023e-05
1.54473e-05
1.53619e-05
1.53071e-05
1.52302e-05
1.51767e-05
1.51156e-05
1.50627e-05
1.49968e-05
1.49538e-05
1.48967e-05
1.48486e-05
1.47887e-05
1.4733e-05
1.46567e-05
1.45812e-05
1.99999e-05
1.98264e-05
1.94508e-05
1.91774e-05
1.89629e-05
1.88261e-05
1.86402e-05
1.84775e-05
1.8331e-05
1.82007e-05
1.80621e-05
1.79326e-05
1.77976e-05
1.76772e-05
1.7549e-05
1.74312e-05
1.7308e-05
1.71924e-05
1.70717e-05
1.69627e-05
1.68464e-05
1.67377e-05
1.66266e-05
1.65255e-05
1.6416e-05
1.63202e-05
1.62165e-05
1.61274e-05
1.60235e-05
1.59441e-05
1.58457e-05
1.57793e-05
1.56749e-05
1.5617e-05
1.55255e-05
1.54722e-05
1.5384e-05
1.53334e-05
1.52539e-05
1.5203e-05
1.51401e-05
1.50856e-05
1.50224e-05
1.49781e-05
1.49154e-05
1.48672e-05
1.48054e-05
1.4744e-05
1.46618e-05
1.45835e-05
1.99999e-05
1.98279e-05
1.94568e-05
1.9175e-05
1.89565e-05
1.88245e-05
1.86455e-05
1.84816e-05
1.83344e-05
1.8206e-05
1.807e-05
1.79435e-05
1.78109e-05
1.7693e-05
1.75667e-05
1.74515e-05
1.73304e-05
1.72169e-05
1.70975e-05
1.69907e-05
1.68755e-05
1.67685e-05
1.66585e-05
1.65582e-05
1.64504e-05
1.63547e-05
1.62527e-05
1.61636e-05
1.60604e-05
1.59831e-05
1.58846e-05
1.58182e-05
1.57172e-05
1.56574e-05
1.55686e-05
1.55161e-05
1.54263e-05
1.53793e-05
1.52981e-05
1.52501e-05
1.51833e-05
1.51297e-05
1.50682e-05
1.502e-05
1.49543e-05
1.49057e-05
1.4839e-05
1.47722e-05
1.46862e-05
1.46077e-05
1.99999e-05
1.98298e-05
1.94647e-05
1.91762e-05
1.89528e-05
1.88245e-05
1.8653e-05
1.84905e-05
1.83426e-05
1.82161e-05
1.80833e-05
1.79603e-05
1.78302e-05
1.77153e-05
1.75914e-05
1.74794e-05
1.73608e-05
1.72502e-05
1.71327e-05
1.70283e-05
1.6915e-05
1.68103e-05
1.67016e-05
1.6603e-05
1.64968e-05
1.64026e-05
1.63014e-05
1.62138e-05
1.61118e-05
1.60364e-05
1.59389e-05
1.58719e-05
1.57752e-05
1.57145e-05
1.56282e-05
1.55756e-05
1.54868e-05
1.54416e-05
1.53595e-05
1.53152e-05
1.52432e-05
1.51924e-05
1.51308e-05
1.5078e-05
1.50121e-05
1.49614e-05
1.48875e-05
1.48169e-05
1.47297e-05
1.46518e-05
1.99999e-05
1.98322e-05
1.94743e-05
1.91808e-05
1.89524e-05
1.88258e-05
1.86626e-05
1.85032e-05
1.83547e-05
1.82298e-05
1.81009e-05
1.79819e-05
1.78545e-05
1.77431e-05
1.76223e-05
1.75138e-05
1.73983e-05
1.7291e-05
1.71761e-05
1.70745e-05
1.69636e-05
1.68617e-05
1.67548e-05
1.66585e-05
1.65542e-05
1.64622e-05
1.63619e-05
1.62763e-05
1.61766e-05
1.61022e-05
1.60067e-05
1.59401e-05
1.58465e-05
1.57874e-05
1.57022e-05
1.56485e-05
1.55655e-05
1.55165e-05
1.54381e-05
1.53956e-05
1.53175e-05
1.52725e-05
1.52075e-05
1.51505e-05
1.5086e-05
1.50314e-05
1.49498e-05
1.48771e-05
1.47896e-05
1.47106e-05
1.99999e-05
1.9835e-05
1.94849e-05
1.91889e-05
1.8955e-05
1.88289e-05
1.86738e-05
1.85195e-05
1.83701e-05
1.8247e-05
1.8122e-05
1.80073e-05
1.78831e-05
1.77755e-05
1.76582e-05
1.75538e-05
1.74417e-05
1.73382e-05
1.72264e-05
1.71281e-05
1.702e-05
1.69212e-05
1.68167e-05
1.67232e-05
1.66209e-05
1.65312e-05
1.6433e-05
1.63494e-05
1.62526e-05
1.61792e-05
1.60857e-05
1.60213e-05
1.59288e-05
1.58736e-05
1.57882e-05
1.57347e-05
1.56573e-05
1.56044e-05
1.55309e-05
1.54873e-05
1.5407e-05
1.53657e-05
1.52951e-05
1.52376e-05
1.5173e-05
1.5112e-05
1.5025e-05
1.49521e-05
1.48626e-05
1.47778e-05
1.99999e-05
1.98382e-05
1.94965e-05
1.91997e-05
1.89609e-05
1.88339e-05
1.86863e-05
1.85388e-05
1.83886e-05
1.82674e-05
1.81462e-05
1.80357e-05
1.79152e-05
1.78117e-05
1.7698e-05
1.75982e-05
1.749e-05
1.73904e-05
1.72822e-05
1.71877e-05
1.70825e-05
1.69872e-05
1.68858e-05
1.67951e-05
1.66953e-05
1.66082e-05
1.65127e-05
1.64315e-05
1.63371e-05
1.62657e-05
1.61739e-05
1.6113e-05
1.60212e-05
1.59698e-05
1.58841e-05
1.58335e-05
1.57575e-05
1.57053e-05
1.56341e-05
1.55881e-05
1.55096e-05
1.54688e-05
1.5392e-05
1.53376e-05
1.52691e-05
1.52009e-05
1.51122e-05
1.50389e-05
1.49438e-05
1.48497e-05
1.99999e-05
1.98416e-05
1.95085e-05
1.9213e-05
1.89697e-05
1.8841e-05
1.86996e-05
1.85603e-05
1.84098e-05
1.82903e-05
1.81725e-05
1.80664e-05
1.79498e-05
1.78507e-05
1.77409e-05
1.7646e-05
1.75418e-05
1.74463e-05
1.73422e-05
1.72519e-05
1.71498e-05
1.70583e-05
1.69602e-05
1.68727e-05
1.67755e-05
1.66914e-05
1.65991e-05
1.65202e-05
1.64285e-05
1.63593e-05
1.62702e-05
1.62118e-05
1.61216e-05
1.60737e-05
1.59874e-05
1.59423e-05
1.58636e-05
1.58163e-05
1.57443e-05
1.56968e-05
1.5622e-05
1.55778e-05
1.54976e-05
1.54467e-05
1.53709e-05
1.52974e-05
1.52095e-05
1.51334e-05
1.50293e-05
1.49258e-05
1.99999e-05
1.98451e-05
1.95205e-05
1.92284e-05
1.89812e-05
1.88503e-05
1.87135e-05
1.85831e-05
1.84332e-05
1.83154e-05
1.82004e-05
1.80985e-05
1.79863e-05
1.78917e-05
1.77858e-05
1.76961e-05
1.7596e-05
1.75049e-05
1.74052e-05
1.73192e-05
1.72205e-05
1.71329e-05
1.70384e-05
1.69542e-05
1.68599e-05
1.67793e-05
1.66901e-05
1.66135e-05
1.65247e-05
1.6458e-05
1.63723e-05
1.63155e-05
1.62278e-05
1.61825e-05
1.60974e-05
1.6056e-05
1.59759e-05
1.59342e-05
1.58579e-05
1.58131e-05
1.57397e-05
1.56905e-05
1.56109e-05
1.55605e-05
1.54759e-05
1.5401e-05
1.53131e-05
1.52309e-05
1.51175e-05
1.5008e-05
1.99999e-05
1.98488e-05
1.95325e-05
1.92456e-05
1.89953e-05
1.88618e-05
1.8728e-05
1.86065e-05
1.84585e-05
1.83421e-05
1.82292e-05
1.81316e-05
1.80238e-05
1.79337e-05
1.78322e-05
1.77476e-05
1.76515e-05
1.75652e-05
1.747e-05
1.73884e-05
1.72931e-05
1.72099e-05
1.71189e-05
1.7038e-05
1.69471e-05
1.68702e-05
1.67839e-05
1.67096e-05
1.66242e-05
1.65601e-05
1.64778e-05
1.64222e-05
1.63376e-05
1.62945e-05
1.62121e-05
1.6172e-05
1.60931e-05
1.60537e-05
1.59754e-05
1.59343e-05
1.58581e-05
1.58071e-05
1.57295e-05
1.56749e-05
1.55828e-05
1.55106e-05
1.54193e-05
1.53281e-05
1.52076e-05
1.50976e-05
1.99999e-05
1.98525e-05
1.95442e-05
1.92641e-05
1.90114e-05
1.88756e-05
1.87431e-05
1.86302e-05
1.8485e-05
1.83698e-05
1.82584e-05
1.81652e-05
1.80616e-05
1.79761e-05
1.7879e-05
1.77994e-05
1.77074e-05
1.76261e-05
1.75356e-05
1.74582e-05
1.73666e-05
1.72879e-05
1.72003e-05
1.7123e-05
1.70358e-05
1.69625e-05
1.68788e-05
1.6807e-05
1.67255e-05
1.6664e-05
1.65848e-05
1.65301e-05
1.64494e-05
1.64081e-05
1.63284e-05
1.62893e-05
1.62122e-05
1.61733e-05
1.60959e-05
1.60555e-05
1.59771e-05
1.59268e-05
1.58485e-05
1.57879e-05
1.56924e-05
1.56229e-05
1.5524e-05
1.54239e-05
1.53e-05
1.51935e-05
1.99999e-05
1.98562e-05
1.95558e-05
1.92833e-05
1.90294e-05
1.88913e-05
1.87587e-05
1.86536e-05
1.85119e-05
1.8398e-05
1.82877e-05
1.81988e-05
1.80991e-05
1.80184e-05
1.79257e-05
1.78509e-05
1.77631e-05
1.76869e-05
1.76009e-05
1.75278e-05
1.744e-05
1.73659e-05
1.72816e-05
1.72079e-05
1.71246e-05
1.70547e-05
1.69735e-05
1.69046e-05
1.68271e-05
1.67678e-05
1.66913e-05
1.66377e-05
1.65614e-05
1.65216e-05
1.64444e-05
1.64062e-05
1.63308e-05
1.62923e-05
1.6216e-05
1.61756e-05
1.60958e-05
1.60461e-05
1.59652e-05
1.58999e-05
1.58035e-05
1.57336e-05
1.56252e-05
1.55194e-05
1.53947e-05
1.52909e-05
1.99999e-05
1.98598e-05
1.95673e-05
1.93025e-05
1.90489e-05
1.89087e-05
1.87749e-05
1.86768e-05
1.85386e-05
1.84265e-05
1.8317e-05
1.82317e-05
1.81359e-05
1.806e-05
1.79715e-05
1.79013e-05
1.78178e-05
1.77469e-05
1.76651e-05
1.75962e-05
1.75123e-05
1.74427e-05
1.73618e-05
1.72919e-05
1.72123e-05
1.71457e-05
1.7067e-05
1.70014e-05
1.69276e-05
1.68701e-05
1.67962e-05
1.67441e-05
1.66725e-05
1.66333e-05
1.65583e-05
1.65211e-05
1.64474e-05
1.64095e-05
1.63341e-05
1.62936e-05
1.62124e-05
1.61632e-05
1.60784e-05
1.60101e-05
1.59139e-05
1.58404e-05
1.57218e-05
1.56146e-05
1.54903e-05
1.53845e-05
1.99999e-05
1.98633e-05
1.95788e-05
1.93213e-05
1.90695e-05
1.89274e-05
1.87918e-05
1.86993e-05
1.85644e-05
1.84548e-05
1.8346e-05
1.82636e-05
1.81716e-05
1.81003e-05
1.80158e-05
1.79503e-05
1.78709e-05
1.78053e-05
1.77277e-05
1.76628e-05
1.75829e-05
1.75178e-05
1.74403e-05
1.73743e-05
1.7298e-05
1.72345e-05
1.71586e-05
1.70966e-05
1.70258e-05
1.69696e-05
1.68985e-05
1.68484e-05
1.67811e-05
1.67417e-05
1.6669e-05
1.66328e-05
1.6561e-05
1.65235e-05
1.64491e-05
1.64082e-05
1.63256e-05
1.62766e-05
1.61877e-05
1.61174e-05
1.60213e-05
1.59417e-05
1.58143e-05
1.57088e-05
1.55837e-05
1.5469e-05
1.99999e-05
1.98668e-05
1.95901e-05
1.93396e-05
1.90908e-05
1.8947e-05
1.88094e-05
1.87213e-05
1.85891e-05
1.84827e-05
1.83744e-05
1.82943e-05
1.82058e-05
1.81391e-05
1.80584e-05
1.79974e-05
1.79222e-05
1.78617e-05
1.77882e-05
1.77273e-05
1.76513e-05
1.75907e-05
1.75166e-05
1.74542e-05
1.7381e-05
1.73205e-05
1.72479e-05
1.71892e-05
1.71207e-05
1.70656e-05
1.69976e-05
1.69498e-05
1.68859e-05
1.68459e-05
1.67758e-05
1.67406e-05
1.66707e-05
1.66336e-05
1.65597e-05
1.65184e-05
1.64345e-05
1.63853e-05
1.62924e-05
1.62215e-05
1.61238e-05
1.60372e-05
1.59037e-05
1.57997e-05
1.56702e-05
1.55414e-05
1.99999e-05
1.987e-05
1.96011e-05
1.93571e-05
1.91125e-05
1.8967e-05
1.88278e-05
1.87425e-05
1.86126e-05
1.85101e-05
1.84018e-05
1.83234e-05
1.82381e-05
1.81758e-05
1.80989e-05
1.80424e-05
1.79711e-05
1.79158e-05
1.78463e-05
1.77893e-05
1.77172e-05
1.76608e-05
1.759e-05
1.75313e-05
1.74608e-05
1.74034e-05
1.73342e-05
1.72784e-05
1.72117e-05
1.71579e-05
1.70932e-05
1.70475e-05
1.6986e-05
1.69453e-05
1.68781e-05
1.68439e-05
1.67758e-05
1.67389e-05
1.66653e-05
1.66235e-05
1.65385e-05
1.64888e-05
1.63918e-05
1.63219e-05
1.62202e-05
1.61262e-05
1.59903e-05
1.58866e-05
1.57477e-05
1.56025e-05
1.99999e-05
1.98732e-05
1.96117e-05
1.93741e-05
1.91341e-05
1.89874e-05
1.88471e-05
1.87628e-05
1.86349e-05
1.85366e-05
1.84278e-05
1.83511e-05
1.82684e-05
1.82103e-05
1.81372e-05
1.80852e-05
1.80175e-05
1.79674e-05
1.79017e-05
1.78487e-05
1.77803e-05
1.77279e-05
1.76604e-05
1.76052e-05
1.75373e-05
1.74831e-05
1.7417e-05
1.73637e-05
1.72984e-05
1.72464e-05
1.71847e-05
1.71406e-05
1.70807e-05
1.70398e-05
1.69758e-05
1.69425e-05
1.68756e-05
1.68388e-05
1.67654e-05
1.67232e-05
1.66373e-05
1.65867e-05
1.64863e-05
1.64172e-05
1.63099e-05
1.62093e-05
1.60724e-05
1.59687e-05
1.5816e-05
1.56539e-05
1.99999e-05
1.98762e-05
1.96216e-05
1.93904e-05
1.91551e-05
1.90083e-05
1.8867e-05
1.87821e-05
1.86561e-05
1.85619e-05
1.8452e-05
1.83772e-05
1.82966e-05
1.82424e-05
1.81734e-05
1.81254e-05
1.80612e-05
1.80163e-05
1.79542e-05
1.7905e-05
1.78403e-05
1.77919e-05
1.77274e-05
1.76756e-05
1.76104e-05
1.75593e-05
1.74959e-05
1.74446e-05
1.73807e-05
1.73308e-05
1.72716e-05
1.72284e-05
1.71697e-05
1.71296e-05
1.70686e-05
1.70359e-05
1.69696e-05
1.69329e-05
1.68598e-05
1.68172e-05
1.67307e-05
1.66791e-05
1.65755e-05
1.6507e-05
1.63927e-05
1.62874e-05
1.61503e-05
1.60424e-05
1.58729e-05
1.56984e-05
1.99999e-05
1.9879e-05
1.96308e-05
1.9406e-05
1.91754e-05
1.90298e-05
1.88871e-05
1.88002e-05
1.86764e-05
1.85855e-05
1.8474e-05
1.84016e-05
1.83228e-05
1.8272e-05
1.82069e-05
1.81629e-05