/*--------------------------------*- C++ -*----------------------------------*\
  =========                 |
  \\      /  F ield         | OpenFOAM: The Open Source CFD Toolbox
   \\    /   O peration     | Website:  https://openfoam.org
    \\  /    A nd           | Version:  7
     \\/     M anipulation  |
\*---------------------------------------------------------------------------*/
FoamFile
{
    version     2.0;
    format      ascii;
    class       volScalarField;
    location    "0.38";
    object      k_0;
}
// * * * * * * * * * * * * * * * * * * * * * * * * * * * * * * * * * * * * * //

dimensions      [0 2 -2 0 0 0 0];

internalField   nonuniform List<scalar> 
70000
(
1.08549e-05
4.21883e-06
2.82446e-06
2.31696e-06
1.99773e-06
1.7575e-06
1.56561e-06
1.40886e-06
1.27812e-06
1.16756e-06
1.07261e-06
9.9075e-07
9.19131e-07
8.56631e-07
8.01129e-07
7.5225e-07
7.08247e-07
6.69188e-07
6.33599e-07
6.01838e-07
5.72578e-07
5.46407e-07
5.21987e-07
5.00195e-07
4.79516e-07
4.61228e-07
4.43468e-07
4.2803e-07
4.12572e-07
3.99475e-07
3.85889e-07
3.74715e-07
3.62709e-07
3.53104e-07
3.42467e-07
3.34269e-07
3.25174e-07
3.18435e-07
3.10488e-07
3.05256e-07
2.97852e-07
2.9486e-07
2.8783e-07
2.87104e-07
2.80385e-07
2.85334e-07
2.74066e-07
3.06481e-07
2.81289e-07
3.69742e-07
1.72795e-05
1.13674e-05
8.52081e-06
7.01082e-06
6.03783e-06
5.31186e-06
4.73265e-06
4.25929e-06
3.86437e-06
3.53049e-06
3.24372e-06
2.99653e-06
2.78021e-06
2.59143e-06
2.42377e-06
2.27609e-06
2.14315e-06
2.0251e-06
1.91755e-06
1.82156e-06
1.7331e-06
1.65401e-06
1.58014e-06
1.5143e-06
1.45171e-06
1.39647e-06
1.34269e-06
1.29606e-06
1.24925e-06
1.20968e-06
1.16857e-06
1.13475e-06
1.09848e-06
1.06935e-06
1.03726e-06
1.01227e-06
9.84508e-07
9.63592e-07
9.39154e-07
9.22698e-07
8.99851e-07
8.89606e-07
8.67808e-07
8.63031e-07
8.43635e-07
8.50717e-07
8.26654e-07
8.90876e-07
8.4817e-07
9.16735e-07
1.93701e-05
1.61298e-05
1.32913e-05
1.12901e-05
9.82927e-06
8.69723e-06
7.77985e-06
7.02277e-06
6.38641e-06
5.84581e-06
5.37972e-06
4.97685e-06
4.62333e-06
4.31419e-06
4.03908e-06
3.79629e-06
3.5774e-06
3.38273e-06
3.20514e-06
3.04648e-06
2.90005e-06
2.76914e-06
2.64654e-06
2.53746e-06
2.43333e-06
2.34175e-06
2.2521e-06
2.1747e-06
2.09662e-06
2.03077e-06
1.96227e-06
1.9058e-06
1.84547e-06
1.79662e-06
1.74339e-06
1.70097e-06
1.65445e-06
1.61842e-06
1.57715e-06
1.54824e-06
1.50966e-06
1.49047e-06
1.45294e-06
1.4416e-06
1.40826e-06
1.41065e-06
1.37951e-06
1.44486e-06
1.40925e-06
1.43285e-06
1.9861e-05
1.826e-05
1.60858e-05
1.42006e-05
1.26407e-05
1.13497e-05
1.0262e-05
9.34058e-06
8.54918e-06
7.86693e-06
7.27202e-06
6.75345e-06
6.29483e-06
5.89133e-06
5.53016e-06
5.20974e-06
4.91953e-06
4.66039e-06
4.42308e-06
4.21059e-06
4.0136e-06
3.83748e-06
3.67157e-06
3.52427e-06
3.38259e-06
3.25852e-06
3.13605e-06
3.03078e-06
2.92392e-06
2.83387e-06
2.74014e-06
2.66241e-06
2.58001e-06
2.51228e-06
2.43975e-06
2.38036e-06
2.31645e-06
2.26491e-06
2.20778e-06
2.16543e-06
2.1124e-06
2.08221e-06
2.03015e-06
2.01077e-06
1.96269e-06
1.95716e-06
1.91875e-06
1.96689e-06
1.9494e-06
1.94145e-06
1.99707e-05
1.78457e-05
1.60748e-05
1.47665e-05
1.36026e-05
1.25379e-05
1.15696e-05
1.07027e-05
9.92149e-06
9.227e-06
8.60645e-06
8.05498e-06
7.5587e-06
7.11609e-06
6.71466e-06
6.35452e-06
6.02494e-06
5.72833e-06
5.45437e-06
5.208e-06
4.97751e-06
4.77122e-06
4.57479e-06
4.40078e-06
4.23139e-06
4.08365e-06
3.93613e-06
3.80968e-06
3.68045e-06
3.57124e-06
3.45777e-06
3.36248e-06
3.26276e-06
3.17885e-06
3.09116e-06
3.01679e-06
2.93951e-06
2.87393e-06
2.80488e-06
2.74908e-06
2.68496e-06
2.64187e-06
2.57893e-06
2.55096e-06
2.48961e-06
2.47534e-06
2.42636e-06
2.45112e-06
2.43782e-06
2.40852e-06
2.00095e-05
1.47039e-05
1.37474e-05
1.32104e-05
1.25907e-05
1.19266e-05
1.1277e-05
1.06572e-05
1.00793e-05
9.54612e-06
9.04473e-06
8.57952e-06
8.14523e-06
7.74663e-06
7.37467e-06
7.03345e-06
6.71471e-06
6.42383e-06
6.15067e-06
5.90304e-06
5.66735e-06
5.45575e-06
5.25052e-06
5.06897e-06
4.88892e-06
4.73232e-06
4.57347e-06
4.43729e-06
4.29712e-06
4.17761e-06
4.05404e-06
3.94808e-06
3.83921e-06
3.74447e-06
3.64864e-06
3.56338e-06
3.47893e-06
3.40241e-06
3.32717e-06
3.26018e-06
3.19078e-06
3.13628e-06
3.06783e-06
3.03056e-06
2.96007e-06
2.93804e-06
2.87841e-06
2.88037e-06
2.86193e-06
2.81803e-06
2.01331e-05
1.54692e-05
9.63475e-06
9.39723e-06
9.49149e-06
9.49057e-06
9.43156e-06
9.29294e-06
9.05163e-06
8.77854e-06
8.48265e-06
8.18609e-06
7.89344e-06
7.61118e-06
7.33376e-06
7.07407e-06
6.82593e-06
6.59382e-06
6.36866e-06
6.16113e-06
5.95696e-06
5.77219e-06
5.58722e-06
5.4235e-06
5.2562e-06
5.11063e-06
4.95972e-06
4.82975e-06
4.69488e-06
4.57788e-06
4.45781e-06
4.35157e-06
4.24499e-06
4.14786e-06
4.05358e-06
3.96429e-06
3.88096e-06
3.79905e-06
3.72484e-06
3.65105e-06
3.58287e-06
3.52029e-06
3.45269e-06
3.40722e-06
3.33565e-06
3.30691e-06
3.24453e-06
3.22638e-06
3.1993e-06
3.14217e-06
2.01712e-05
1.86769e-05
8.69686e-06
5.54035e-06
5.6299e-06
5.93291e-06
6.29002e-06
6.57491e-06
6.75282e-06
6.86123e-06
6.87915e-06
6.8595e-06
6.8064e-06
6.71817e-06
6.60642e-06
6.48568e-06
6.34717e-06
6.20713e-06
6.06247e-06
5.92431e-06
5.7803e-06
5.64805e-06
5.50911e-06
5.38572e-06
5.25347e-06
5.13998e-06
5.01893e-06
4.91353e-06
4.8026e-06
4.70353e-06
4.60255e-06
4.50906e-06
4.41787e-06
4.32944e-06
4.24775e-06
4.16398e-06
4.09104e-06
4.012e-06
3.94656e-06
3.87311e-06
3.81278e-06
3.74779e-06
3.68815e-06
3.63638e-06
3.57409e-06
3.53381e-06
3.48138e-06
3.43879e-06
3.40971e-06
3.35255e-06
2.01671e-05
1.97241e-05
1.61702e-05
4.86564e-06
3.04272e-06
3.10522e-06
3.37275e-06
3.80206e-06
4.1661e-06
4.48306e-06
4.72849e-06
4.91707e-06
5.05585e-06
5.15548e-06
5.21254e-06
5.2483e-06
5.25069e-06
5.24217e-06
5.21869e-06
5.1828e-06
5.13157e-06
5.08003e-06
5.0159e-06
4.95557e-06
4.88393e-06
4.81895e-06
4.74265e-06
4.67403e-06
4.59926e-06
4.52949e-06
4.4584e-06
4.38859e-06
4.32235e-06
4.25301e-06
4.19229e-06
4.12391e-06
4.06862e-06
4.00182e-06
3.95142e-06
3.88757e-06
3.84089e-06
3.78156e-06
3.7357e-06
3.68292e-06
3.63743e-06
3.58787e-06
3.54978e-06
3.49661e-06
3.46192e-06
3.42164e-06
2.01476e-05
1.99343e-05
1.90665e-05
1.45033e-05
5.25102e-06
2.15607e-06
1.91448e-06
1.99296e-06
2.20483e-06
2.50236e-06
2.77636e-06
3.02809e-06
3.25067e-06
3.44627e-06
3.60764e-06
3.74543e-06
3.85447e-06
3.94341e-06
4.01165e-06
4.06594e-06
4.10165e-06
4.12745e-06
4.14072e-06
4.14412e-06
4.14056e-06
4.13267e-06
4.11593e-06
4.09779e-06
4.07307e-06
4.04628e-06
4.01711e-06
3.98398e-06
3.95254e-06
3.91432e-06
3.88271e-06
3.8407e-06
3.80949e-06
3.76497e-06
3.73421e-06
3.6882e-06
3.65721e-06
3.6109e-06
3.57944e-06
3.53378e-06
3.50253e-06
3.45636e-06
3.42526e-06
3.38413e-06
3.3405e-06
3.3154e-06
2.01215e-05
1.99661e-05
1.96428e-05
1.85479e-05
1.52183e-05
8.37285e-06
3.11489e-06
1.63461e-06
1.44246e-06
1.44869e-06
1.52434e-06
1.68343e-06
1.86363e-06
2.0394e-06
2.20682e-06
2.36534e-06
2.50941e-06
2.64061e-06
2.75553e-06
2.85974e-06
2.94845e-06
3.02737e-06
3.09324e-06
3.1507e-06
3.1966e-06
3.23698e-06
3.26782e-06
3.2934e-06
3.31254e-06
3.3263e-06
3.3356e-06
3.34055e-06
3.34093e-06
3.33887e-06
3.33482e-06
3.32522e-06
3.31785e-06
3.30223e-06
3.29207e-06
3.27153e-06
3.2589e-06
3.23421e-06
3.21884e-06
3.19044e-06
3.17226e-06
3.14131e-06
3.11582e-06
3.09054e-06
3.05081e-06
3.03037e-06
2.00981e-05
1.99328e-05
1.97576e-05
1.93534e-05
1.85084e-05
1.65423e-05
1.23425e-05
6.88059e-06
3.00249e-06
1.4972e-06
1.2438e-06
1.14724e-06
1.15045e-06
1.1915e-06
1.28162e-06
1.38752e-06
1.49751e-06
1.60682e-06
1.71374e-06
1.8186e-06
1.91565e-06
2.00857e-06
2.09271e-06
2.17184e-06
2.24291e-06
2.30817e-06
2.36735e-06
2.41967e-06
2.46768e-06
2.50893e-06
2.54692e-06
2.57832e-06
2.60772e-06
2.63008e-06
2.65257e-06
2.66715e-06
2.68306e-06
2.69159e-06
2.70092e-06
2.70438e-06
2.70705e-06
2.70587e-06
2.70314e-06
2.69617e-06
2.68928e-06
2.67615e-06
2.66014e-06
2.64715e-06
2.62e-06
2.6048e-06
2.00781e-05
1.98876e-05
1.97572e-05
1.94619e-05
1.91471e-05
1.86433e-05
1.7561e-05
1.54363e-05
1.17649e-05
7.47887e-06
4.01267e-06
1.9321e-06
1.213e-06
1.05799e-06
9.82982e-07
9.41082e-07
9.51145e-07
9.83428e-07
1.04355e-06
1.10686e-06
1.17364e-06
1.24293e-06
1.31141e-06
1.38025e-06
1.44761e-06
1.51131e-06
1.57393e-06
1.63106e-06
1.68725e-06
1.73767e-06
1.78732e-06
1.83061e-06
1.8738e-06
1.91005e-06
1.9469e-06
1.97674e-06
2.00675e-06
2.03142e-06
2.05466e-06
2.07349e-06
2.0909e-06
2.10373e-06
2.11492e-06
2.12144e-06
2.12613e-06
2.12552e-06
2.12269e-06
2.1169e-06
2.10415e-06
2.09509e-06
2.00613e-05
1.9854e-05
1.97347e-05
1.94721e-05
1.92563e-05
1.90482e-05
1.87379e-05
1.81946e-05
1.71062e-05
1.52495e-05
1.26006e-05
9.28484e-06
6.02941e-06
3.52718e-06
1.91373e-06
1.18004e-06
9.67378e-07
8.92236e-07
8.3805e-07
7.95283e-07
7.95887e-07
8.07853e-07
8.35471e-07
8.72844e-07
9.12241e-07
9.52407e-07
9.96292e-07
1.03837e-06
1.08345e-06
1.12586e-06
1.16995e-06
1.2099e-06
1.25131e-06
1.28779e-06
1.32591e-06
1.35875e-06
1.39217e-06
1.42198e-06
1.45052e-06
1.47556e-06
1.49951e-06
1.51986e-06
1.53802e-06
1.55249e-06
1.56493e-06
1.57288e-06
1.57824e-06
1.57803e-06
1.57596e-06
1.57188e-06
2.00474e-05
1.98304e-05
1.97081e-05
1.94499e-05
1.92733e-05
1.91161e-05
1.89666e-05
1.87523e-05
1.84654e-05
1.7919e-05
1.70892e-05
1.57256e-05
1.3921e-05
1.15941e-05
8.93464e-06
6.33583e-06
4.15593e-06
2.56885e-06
1.54758e-06
1.04908e-06
8.68708e-07
8.02068e-07
7.54102e-07
7.12974e-07
6.82355e-07
6.75825e-07
6.80734e-07
6.92804e-07
7.14163e-07
7.35749e-07
7.60362e-07
7.83557e-07
8.1025e-07
8.3512e-07
8.6312e-07
8.88316e-07
9.15379e-07
9.40483e-07
9.65406e-07
9.88109e-07
1.00999e-06
1.0305e-06
1.04831e-06
1.06423e-06
1.07845e-06
1.08962e-06
1.09752e-06
1.10336e-06
1.10417e-06
1.10347e-06
2.00362e-05
1.98126e-05
1.96856e-05
1.94198e-05
1.92593e-05
1.91098e-05
1.90014e-05
1.88508e-05
1.87139e-05
1.85038e-05
1.82527e-05
1.78413e-05
1.72475e-05
1.63863e-05
1.52037e-05
1.36847e-05
1.19023e-05
9.84255e-06
7.71394e-06
5.72102e-06
4.02835e-06
2.73251e-06
1.79419e-06
1.20358e-06
9.02771e-07
7.74279e-07
7.16843e-07
6.79113e-07
6.44479e-07
6.13052e-07
5.91771e-07
5.79962e-07
5.8076e-07
5.84766e-07
5.93899e-07
6.04606e-07
6.17813e-07
6.30273e-07
6.43575e-07
6.56222e-07
6.68972e-07
6.82546e-07
6.94299e-07
7.06147e-07
7.16913e-07
7.26893e-07
7.33293e-07
7.38892e-07
7.41835e-07
7.42304e-07
2.00271e-05
1.97987e-05
1.96665e-05
1.93979e-05
1.92336e-05
1.90824e-05
1.89834e-05
1.88541e-05
1.87382e-05
1.85985e-05
1.84637e-05
1.82937e-05
1.80886e-05
1.78042e-05
1.74256e-05
1.68887e-05
1.6194e-05
1.52875e-05
1.41688e-05
1.28455e-05
1.13738e-05
9.73868e-06
8.05001e-06
6.42172e-06
4.94011e-06
3.68509e-06
2.68632e-06
1.91405e-06
1.3573e-06
1.00114e-06
8.03133e-07
7.02732e-07
6.51514e-07
6.18495e-07
5.92385e-07
5.6645e-07
5.43368e-07
5.23955e-07
5.10925e-07
5.02548e-07
4.99988e-07
5.00786e-07
5.02971e-07
5.07375e-07
5.12031e-07
5.1758e-07
5.22776e-07
5.29232e-07
5.37579e-07
5.46748e-07
2.002e-05
1.97902e-05
1.96463e-05
1.93816e-05
1.92097e-05
1.90534e-05
1.89455e-05
1.88278e-05
1.87167e-05
1.85918e-05
1.84753e-05
1.83494e-05
1.82267e-05
1.80844e-05
1.79305e-05
1.77331e-05
1.74939e-05
1.71798e-05
1.6784e-05
1.62723e-05
1.56499e-05
1.48908e-05
1.39947e-05
1.29672e-05
1.18367e-05
1.06201e-05
9.32066e-06
8.0019e-06
6.71415e-06
5.51351e-06
4.42958e-06
3.499e-06
2.73109e-06
2.1058e-06
1.61047e-06
1.23854e-06
9.77313e-07
8.08164e-07
7.04681e-07
6.43334e-07
6.0674e-07
5.82916e-07
5.66165e-07
5.53188e-07
5.43204e-07
5.36947e-07
5.37879e-07
5.44347e-07
5.6074e-07
5.95486e-07
2.00144e-05
1.97902e-05
1.96201e-05
1.93683e-05
1.91893e-05
1.90268e-05
1.89097e-05
1.87917e-05
1.86767e-05
1.85564e-05
1.84448e-05
1.83283e-05
1.82168e-05
1.80996e-05
1.79871e-05
1.78661e-05
1.77429e-05
1.76023e-05
1.7445e-05
1.72543e-05
1.7028e-05
1.67525e-05
1.64167e-05
1.60126e-05
1.55325e-05
1.49732e-05
1.43296e-05
1.36006e-05
1.27944e-05
1.19205e-05
1.09988e-05
1.00379e-05
9.04091e-06
8.04253e-06
7.06601e-06
6.14063e-06
5.27937e-06
4.50751e-06
3.82115e-06
3.23731e-06
2.74879e-06
2.3447e-06
2.01926e-06
1.75959e-06
1.5689e-06
1.43197e-06
1.34367e-06
1.33633e-06
1.37339e-06
1.48551e-06
2.00102e-05
1.97943e-05
1.95933e-05
1.93546e-05
1.91706e-05
1.90016e-05
1.88762e-05
1.87562e-05
1.86368e-05
1.85141e-05
1.83991e-05
1.82831e-05
1.8172e-05
1.80623e-05
1.79552e-05
1.78472e-05
1.77402e-05
1.76332e-05
1.75259e-05
1.74145e-05
1.72982e-05
1.71742e-05
1.70316e-05
1.6874e-05
1.66907e-05
1.64787e-05
1.62305e-05
1.59475e-05
1.56142e-05
1.52417e-05
1.48145e-05
1.43429e-05
1.38216e-05
1.32552e-05
1.26453e-05
1.20044e-05
1.13336e-05
1.06534e-05
9.9682e-06
9.28629e-06
8.62164e-06
7.98398e-06
7.39962e-06
6.85027e-06
6.40705e-06
5.99513e-06
5.67982e-06
5.43545e-06
5.28677e-06
5.30041e-06
2.0007e-05
1.98019e-05
1.95685e-05
1.93415e-05
1.91531e-05
1.8978e-05
1.88442e-05
1.87221e-05
1.85979e-05
1.84729e-05
1.8353e-05
1.82358e-05
1.81199e-05
1.80093e-05
1.78996e-05
1.77923e-05
1.76879e-05
1.75877e-05
1.74864e-05
1.73878e-05
1.72882e-05
1.7194e-05
1.70909e-05
1.69954e-05
1.68925e-05
1.67886e-05
1.66706e-05
1.65549e-05
1.64114e-05
1.62696e-05
1.60973e-05
1.59114e-05
1.57018e-05
1.54721e-05
1.52119e-05
1.49352e-05
1.46192e-05
1.42969e-05
1.39405e-05
1.35699e-05
1.31864e-05
1.2799e-05
1.2403e-05
1.19992e-05
1.16567e-05
1.12924e-05
1.09828e-05
1.07009e-05
1.05076e-05
1.03229e-05
2.00046e-05
1.98107e-05
1.95452e-05
1.93287e-05
1.91359e-05
1.89562e-05
1.88133e-05
1.86894e-05
1.85607e-05
1.84332e-05
1.83088e-05
1.81892e-05
1.80688e-05
1.79564e-05
1.7843e-05
1.77338e-05
1.76247e-05
1.75235e-05
1.74191e-05
1.73201e-05
1.72219e-05
1.71338e-05
1.70347e-05
1.69494e-05
1.68586e-05
1.67751e-05
1.66789e-05
1.66037e-05
1.65045e-05
1.64292e-05
1.6333e-05
1.62415e-05
1.61441e-05
1.60444e-05
1.59312e-05
1.58203e-05
1.56831e-05
1.5558e-05
1.54077e-05
1.52504e-05
1.5086e-05
1.49233e-05
1.47339e-05
1.45413e-05
1.43796e-05
1.41914e-05
1.40058e-05
1.38244e-05
1.36962e-05
1.35339e-05
2.00029e-05
1.982e-05
1.95236e-05
1.93153e-05
1.91189e-05
1.89359e-05
1.87839e-05
1.86576e-05
1.85253e-05
1.83952e-05
1.82669e-05
1.81446e-05
1.802e-05
1.79055e-05
1.77887e-05
1.76767e-05
1.7564e-05
1.7461e-05
1.73525e-05
1.72511e-05
1.71489e-05
1.70583e-05
1.6955e-05
1.68684e-05
1.67759e-05
1.66951e-05
1.66007e-05
1.65333e-05
1.64389e-05
1.63755e-05
1.62919e-05
1.62179e-05
1.61432e-05
1.60725e-05
1.59976e-05
1.5931e-05
1.58492e-05
1.57869e-05
1.5709e-05
1.56314e-05
1.55555e-05
1.54869e-05
1.53936e-05
1.53092e-05
1.52379e-05
1.51588e-05
1.50604e-05
1.49637e-05
1.48931e-05
1.47957e-05
2.00017e-05
1.98287e-05
1.95038e-05
1.93011e-05
1.91016e-05
1.8917e-05
1.8756e-05
1.86271e-05
1.84918e-05
1.83591e-05
1.82278e-05
1.81026e-05
1.79744e-05
1.78574e-05
1.7738e-05
1.76226e-05
1.7507e-05
1.7402e-05
1.72898e-05
1.71858e-05
1.70808e-05
1.69873e-05
1.68807e-05
1.67905e-05
1.66953e-05
1.66115e-05
1.65115e-05
1.64419e-05
1.63448e-05
1.62792e-05
1.61949e-05
1.61211e-05
1.60499e-05
1.59843e-05
1.59157e-05
1.58548e-05
1.57839e-05
1.57322e-05
1.56688e-05
1.56096e-05
1.55538e-05
1.55076e-05
1.54433e-05
1.53921e-05
1.53481e-05
1.53068e-05
1.52481e-05
1.51881e-05
1.51406e-05
1.50877e-05
2.00009e-05
1.98307e-05
1.94877e-05
1.92866e-05
1.90844e-05
1.89e-05
1.87303e-05
1.85983e-05
1.84608e-05
1.83256e-05
1.81918e-05
1.80638e-05
1.79325e-05
1.78131e-05
1.76917e-05
1.75727e-05
1.7455e-05
1.73475e-05
1.72321e-05
1.71259e-05
1.70182e-05
1.6922e-05
1.68131e-05
1.67193e-05
1.66222e-05
1.65356e-05
1.64324e-05
1.63589e-05
1.62607e-05
1.61906e-05
1.6103e-05
1.60276e-05
1.59501e-05
1.58832e-05
1.58117e-05
1.57478e-05
1.56769e-05
1.56234e-05
1.55599e-05
1.55041e-05
1.54504e-05
1.54067e-05
1.53486e-05
1.53031e-05
1.5262e-05
1.52278e-05
1.51816e-05
1.51329e-05
1.50874e-05
1.50465e-05
2.00003e-05
1.9829e-05
1.94742e-05
1.92711e-05
1.90669e-05
1.88848e-05
1.8707e-05
1.85715e-05
1.84323e-05
1.82952e-05
1.81593e-05
1.80288e-05
1.78949e-05
1.77734e-05
1.76502e-05
1.75283e-05
1.74087e-05
1.72989e-05
1.71806e-05
1.70727e-05
1.69624e-05
1.68634e-05
1.6753e-05
1.6656e-05
1.65571e-05
1.64681e-05
1.63629e-05
1.62856e-05
1.61873e-05
1.61135e-05
1.60223e-05
1.59482e-05
1.58637e-05
1.57977e-05
1.57219e-05
1.56561e-05
1.55829e-05
1.55272e-05
1.54592e-05
1.54046e-05
1.53464e-05
1.53005e-05
1.52423e-05
1.51964e-05
1.51524e-05
1.51191e-05
1.50731e-05
1.50269e-05
1.49757e-05
1.49321e-05
2e-05
1.98272e-05
1.94628e-05
1.92541e-05
1.90487e-05
1.8871e-05
1.86862e-05
1.85469e-05
1.84062e-05
1.8268e-05
1.81303e-05
1.79981e-05
1.7862e-05
1.77391e-05
1.7614e-05
1.74904e-05
1.73688e-05
1.7257e-05
1.71363e-05
1.70272e-05
1.69146e-05
1.68126e-05
1.67015e-05
1.66017e-05
1.65008e-05
1.641e-05
1.63032e-05
1.62231e-05
1.61242e-05
1.60479e-05
1.59532e-05
1.58816e-05
1.57906e-05
1.57262e-05
1.5647e-05
1.55801e-05
1.55062e-05
1.54479e-05
1.53767e-05
1.53241e-05
1.52617e-05
1.52148e-05
1.51554e-05
1.51079e-05
1.50614e-05
1.5028e-05
1.49771e-05
1.49346e-05
1.48741e-05
1.48216e-05
1.99999e-05
1.9826e-05
1.94544e-05
1.92367e-05
1.90305e-05
1.88588e-05
1.86686e-05
1.85251e-05
1.83831e-05
1.82447e-05
1.81054e-05
1.79723e-05
1.78344e-05
1.77108e-05
1.75839e-05
1.74597e-05
1.73361e-05
1.72228e-05
1.71004e-05
1.69902e-05
1.68761e-05
1.6771e-05
1.66596e-05
1.6558e-05
1.64546e-05
1.63625e-05
1.62544e-05
1.61725e-05
1.60723e-05
1.59941e-05
1.58971e-05
1.58274e-05
1.57311e-05
1.56687e-05
1.55859e-05
1.55193e-05
1.54454e-05
1.53842e-05
1.53121e-05
1.52603e-05
1.51952e-05
1.51487e-05
1.50876e-05
1.50384e-05
1.49917e-05
1.49566e-05
1.49032e-05
1.48565e-05
1.4795e-05
1.47374e-05
1.99999e-05
1.98252e-05
1.94488e-05
1.92202e-05
1.90132e-05
1.88487e-05
1.86548e-05
1.85068e-05
1.83636e-05
1.82259e-05
1.80854e-05
1.79518e-05
1.7813e-05
1.76892e-05
1.75607e-05
1.74368e-05
1.73118e-05
1.71971e-05
1.70739e-05
1.69627e-05
1.68477e-05
1.67398e-05
1.66285e-05
1.65259e-05
1.64199e-05
1.6327e-05
1.62182e-05
1.61347e-05
1.6033e-05
1.59532e-05
1.58553e-05
1.57866e-05
1.56863e-05
1.56259e-05
1.55391e-05
1.5475e-05
1.53995e-05
1.53369e-05
1.5265e-05
1.52121e-05
1.51468e-05
1.51009e-05
1.50365e-05
1.49877e-05
1.49414e-05
1.49034e-05
1.48463e-05
1.47972e-05
1.47344e-05
1.46753e-05
1.99999e-05
1.98248e-05
1.94457e-05
1.92053e-05
1.89974e-05
1.88405e-05
1.86452e-05
1.84926e-05
1.83484e-05
1.8212e-05
1.80708e-05
1.79374e-05
1.77985e-05
1.76748e-05
1.75454e-05
1.74223e-05
1.72967e-05
1.71806e-05
1.70577e-05
1.69458e-05
1.68302e-05
1.67205e-05
1.66091e-05
1.65064e-05
1.6398e-05
1.63044e-05
1.61958e-05
1.61109e-05
1.60079e-05
1.59269e-05
1.58289e-05
1.57606e-05
1.56576e-05
1.55989e-05
1.55086e-05
1.5448e-05
1.53693e-05
1.53078e-05
1.52353e-05
1.51807e-05
1.51174e-05
1.50704e-05
1.5003e-05
1.49565e-05
1.49092e-05
1.48666e-05
1.48069e-05
1.47569e-05
1.46916e-05
1.46279e-05
1.99999e-05
1.98249e-05
1.94451e-05
1.91929e-05
1.89836e-05
1.88341e-05
1.86397e-05
1.84829e-05
1.83377e-05
1.82032e-05
1.8062e-05
1.79293e-05
1.77912e-05
1.7668e-05
1.75384e-05
1.74167e-05
1.72913e-05
1.71744e-05
1.70523e-05
1.69405e-05
1.68244e-05
1.67141e-05
1.66025e-05
1.65004e-05
1.63902e-05
1.6296e-05
1.61885e-05
1.61019e-05
1.59981e-05
1.59167e-05
1.58189e-05
1.5751e-05
1.56461e-05
1.55886e-05
1.54961e-05
1.5439e-05
1.53564e-05
1.52981e-05
1.52234e-05
1.51686e-05
1.51073e-05
1.50571e-05
1.49892e-05
1.49454e-05
1.48939e-05
1.48476e-05
1.47878e-05
1.47359e-05
1.46653e-05
1.45946e-05
1.99999e-05
1.98254e-05
1.94468e-05
1.91834e-05
1.89719e-05
1.88292e-05
1.86382e-05
1.84778e-05
1.83319e-05
1.81994e-05
1.80592e-05
1.79279e-05
1.77914e-05
1.76694e-05
1.75402e-05
1.742e-05
1.72953e-05
1.71786e-05
1.7057e-05
1.69461e-05
1.68297e-05
1.67198e-05
1.66082e-05
1.65065e-05
1.63962e-05
1.63012e-05
1.61952e-05
1.61073e-05
1.60034e-05
1.59225e-05
1.58246e-05
1.57573e-05
1.56519e-05
1.55949e-05
1.5502e-05
1.5447e-05
1.53614e-05
1.53067e-05
1.52295e-05
1.51763e-05
1.5115e-05
1.50618e-05
1.49959e-05
1.4953e-05
1.48956e-05
1.48473e-05
1.47871e-05
1.47311e-05
1.46546e-05
1.45789e-05
1.99999e-05
1.98264e-05
1.94508e-05
1.91774e-05
1.89628e-05
1.88261e-05
1.86401e-05
1.84775e-05
1.8331e-05
1.82007e-05
1.80622e-05
1.79327e-05
1.77977e-05
1.76773e-05
1.75491e-05
1.74313e-05
1.7308e-05
1.71923e-05
1.70717e-05
1.69627e-05
1.68463e-05
1.67376e-05
1.66265e-05
1.65253e-05
1.64158e-05
1.632e-05
1.62163e-05
1.6127e-05
1.60233e-05
1.59438e-05
1.58456e-05
1.57789e-05
1.56745e-05
1.56168e-05
1.55252e-05
1.54718e-05
1.53835e-05
1.53329e-05
1.52532e-05
1.52026e-05
1.51393e-05
1.50846e-05
1.50215e-05
1.4977e-05
1.49141e-05
1.48658e-05
1.48037e-05
1.47419e-05
1.46595e-05
1.45813e-05
1.99999e-05
1.98279e-05
1.94568e-05
1.9175e-05
1.89564e-05
1.88245e-05
1.86453e-05
1.84816e-05
1.83343e-05
1.8206e-05
1.80701e-05
1.79436e-05
1.7811e-05
1.76932e-05
1.75668e-05
1.74516e-05
1.73304e-05
1.72168e-05
1.70975e-05
1.69906e-05
1.68753e-05
1.67684e-05
1.66583e-05
1.6558e-05
1.64502e-05
1.63545e-05
1.62524e-05
1.61632e-05
1.60602e-05
1.59828e-05
1.58845e-05
1.58177e-05
1.57168e-05
1.56571e-05
1.55684e-05
1.55156e-05
1.54257e-05
1.53788e-05
1.52973e-05
1.52495e-05
1.51824e-05
1.51287e-05
1.50672e-05
1.50187e-05
1.49529e-05
1.49042e-05
1.48371e-05
1.47699e-05
1.46838e-05
1.46057e-05
1.99999e-05
1.98298e-05
1.94647e-05
1.91762e-05
1.89528e-05
1.88245e-05
1.86529e-05
1.84905e-05
1.83426e-05
1.82161e-05
1.80834e-05
1.79604e-05
1.78303e-05
1.77154e-05
1.75915e-05
1.74795e-05
1.73609e-05
1.72501e-05
1.71327e-05
1.70282e-05
1.69148e-05
1.68101e-05
1.67015e-05
1.66027e-05
1.64966e-05
1.64024e-05
1.63011e-05
1.62134e-05
1.61115e-05
1.60361e-05
1.59386e-05
1.58715e-05
1.57748e-05
1.57142e-05
1.56279e-05
1.5575e-05
1.54863e-05
1.5441e-05
1.53588e-05
1.53146e-05
1.52421e-05
1.51915e-05
1.51297e-05
1.50765e-05
1.50106e-05
1.49597e-05
1.48853e-05
1.48145e-05
1.47274e-05
1.46498e-05
1.99999e-05
1.98322e-05
1.94743e-05
1.91808e-05
1.89523e-05
1.88258e-05
1.86625e-05
1.85032e-05
1.83547e-05
1.82298e-05
1.8101e-05
1.7982e-05
1.78546e-05
1.77432e-05
1.76224e-05
1.7514e-05
1.73984e-05
1.7291e-05
1.71761e-05
1.70744e-05
1.69635e-05
1.68616e-05
1.67547e-05
1.66583e-05
1.65539e-05
1.64618e-05
1.63616e-05
1.62759e-05
1.61763e-05
1.61019e-05
1.60064e-05
1.59396e-05
1.58461e-05
1.5787e-05
1.57018e-05
1.5648e-05
1.55649e-05
1.55159e-05
1.54374e-05
1.53948e-05
1.53164e-05
1.52716e-05
1.52061e-05
1.5149e-05
1.50845e-05
1.50294e-05
1.49474e-05
1.48749e-05
1.47874e-05
1.47082e-05
1.99999e-05
1.9835e-05
1.94849e-05
1.91889e-05
1.89549e-05
1.88289e-05
1.86736e-05
1.85195e-05
1.83701e-05
1.8247e-05
1.81221e-05
1.80074e-05
1.78832e-05
1.77757e-05
1.76583e-05
1.75539e-05
1.74418e-05
1.73381e-05
1.72264e-05
1.7128e-05
1.70198e-05
1.6921e-05
1.68166e-05
1.67229e-05
1.66206e-05
1.65309e-05
1.64327e-05
1.6349e-05
1.62523e-05
1.61788e-05
1.60853e-05
1.60209e-05
1.59284e-05
1.58732e-05
1.57877e-05
1.57342e-05
1.56567e-05
1.56037e-05
1.55303e-05
1.54862e-05
1.54059e-05
1.53648e-05
1.52935e-05
1.52362e-05
1.51714e-05
1.51098e-05
1.50225e-05
1.49499e-05
1.48602e-05
1.47747e-05
1.99999e-05
1.98382e-05
1.94965e-05
1.91997e-05
1.89608e-05
1.88339e-05
1.86861e-05
1.85389e-05
1.83885e-05
1.82674e-05
1.81463e-05
1.80359e-05
1.79153e-05
1.78119e-05
1.76982e-05
1.75983e-05
1.74901e-05
1.73903e-05
1.72822e-05
1.71877e-05
1.70824e-05
1.6987e-05
1.68856e-05
1.67948e-05
1.6695e-05
1.66078e-05
1.65124e-05
1.6431e-05
1.63368e-05
1.62653e-05
1.61736e-05
1.61125e-05
1.60207e-05
1.59694e-05
1.58835e-05
1.5833e-05
1.57568e-05
1.57045e-05
1.56334e-05
1.5587e-05
1.55085e-05
1.54677e-05
1.53903e-05
1.53362e-05
1.52673e-05
1.51986e-05
1.51099e-05
1.50367e-05
1.49411e-05
1.4846e-05
1.99999e-05
1.98416e-05
1.95085e-05
1.9213e-05
1.89696e-05
1.88409e-05
1.86994e-05
1.85603e-05
1.84097e-05
1.82904e-05
1.81726e-05
1.80665e-05
1.795e-05
1.78509e-05
1.7741e-05
1.76462e-05
1.75419e-05
1.74463e-05
1.73422e-05
1.72519e-05
1.71497e-05
1.70581e-05
1.696e-05
1.68724e-05
1.67751e-05
1.6691e-05
1.65987e-05
1.65197e-05
1.64281e-05
1.63588e-05
1.62699e-05
1.62112e-05
1.61212e-05
1.60732e-05
1.59868e-05
1.59418e-05
1.58629e-05
1.58156e-05
1.57434e-05
1.56957e-05
1.56209e-05
1.55764e-05
1.5496e-05
1.54453e-05
1.53688e-05
1.5295e-05
1.52073e-05
1.51309e-05
1.50261e-05
1.49218e-05
1.99999e-05
1.98451e-05
1.95206e-05
1.92284e-05
1.89812e-05
1.88502e-05
1.87133e-05
1.85831e-05
1.84331e-05
1.83154e-05
1.82005e-05
1.80986e-05
1.79865e-05
1.78919e-05
1.7786e-05
1.76963e-05
1.75961e-05
1.75049e-05
1.74052e-05
1.73192e-05
1.72203e-05
1.71327e-05
1.70382e-05
1.69538e-05
1.68596e-05
1.67789e-05
1.66897e-05
1.6613e-05
1.65243e-05
1.64575e-05
1.63719e-05
1.63149e-05
1.62274e-05
1.6182e-05
1.60969e-05
1.60555e-05
1.59751e-05
1.59334e-05
1.58569e-05
1.58121e-05
1.57385e-05
1.56891e-05
1.56093e-05
1.55589e-05
1.54736e-05
1.53988e-05
1.53109e-05
1.5228e-05
1.51139e-05
1.50043e-05
1.99999e-05
1.98488e-05
1.95325e-05
1.92457e-05
1.89952e-05
1.88618e-05
1.87278e-05
1.86065e-05
1.84583e-05
1.83421e-05
1.82293e-05
1.81317e-05
1.8024e-05
1.79339e-05
1.78324e-05
1.77478e-05
1.76516e-05
1.75652e-05
1.74701e-05
1.73884e-05
1.72929e-05
1.72097e-05
1.71187e-05
1.70377e-05
1.69468e-05
1.68698e-05
1.67834e-05
1.6709e-05
1.66238e-05
1.65596e-05
1.64774e-05
1.64216e-05
1.63372e-05
1.6294e-05
1.62115e-05
1.61714e-05
1.60924e-05
1.60528e-05
1.59744e-05
1.59333e-05
1.58567e-05
1.58057e-05
1.5728e-05
1.5673e-05
1.55805e-05
1.55085e-05
1.54168e-05
1.53249e-05
1.5204e-05
1.50944e-05
1.99999e-05
1.98525e-05
1.95443e-05
1.92642e-05
1.90114e-05
1.88755e-05
1.87429e-05
1.86301e-05
1.84848e-05
1.83698e-05
1.82584e-05
1.81653e-05
1.80618e-05
1.79763e-05
1.78793e-05
1.77997e-05
1.77075e-05
1.76262e-05
1.75356e-05
1.74582e-05
1.73664e-05
1.72877e-05
1.72001e-05
1.71226e-05
1.70354e-05
1.69621e-05
1.68783e-05
1.68064e-05
1.6725e-05
1.66635e-05
1.65843e-05
1.65294e-05
1.6449e-05
1.64076e-05
1.63278e-05
1.62887e-05
1.62115e-05
1.61724e-05
1.60949e-05
1.60544e-05
1.59757e-05
1.59254e-05
1.58469e-05
1.57858e-05
1.56902e-05
1.56209e-05
1.55212e-05
1.54205e-05
1.52966e-05
1.51908e-05
1.99999e-05
1.98562e-05
1.95559e-05
1.92833e-05
1.90293e-05
1.88913e-05
1.87585e-05
1.86536e-05
1.85117e-05
1.8398e-05
1.82878e-05
1.81989e-05
1.80993e-05
1.80186e-05
1.7926e-05
1.78511e-05
1.77632e-05
1.7687e-05
1.7601e-05
1.75277e-05
1.74398e-05
1.73657e-05
1.72813e-05
1.72075e-05
1.71242e-05
1.70543e-05
1.69729e-05
1.6904e-05
1.68266e-05
1.67673e-05
1.66908e-05
1.66371e-05
1.65611e-05
1.65211e-05
1.64437e-05
1.64055e-05
1.633e-05
1.62915e-05
1.6215e-05
1.61746e-05
1.60944e-05
1.60448e-05
1.59634e-05
1.58978e-05
1.58015e-05
1.57315e-05
1.56221e-05
1.55161e-05
1.53916e-05
1.52881e-05
1.99999e-05
1.98598e-05
1.95674e-05
1.93025e-05
1.90488e-05
1.89087e-05
1.87747e-05
1.86767e-05
1.85384e-05
1.84264e-05
1.8317e-05
1.82318e-05
1.81362e-05
1.80602e-05
1.79718e-05
1.79016e-05
1.78179e-05
1.7747e-05
1.76652e-05
1.75961e-05
1.75121e-05
1.74425e-05
1.73615e-05
1.72916e-05
1.72119e-05
1.71452e-05
1.70664e-05
1.70008e-05
1.69271e-05
1.68695e-05
1.67957e-05
1.67435e-05
1.66721e-05
1.66327e-05
1.65577e-05
1.65204e-05
1.64467e-05
1.64086e-05
1.63332e-05
1.62925e-05
1.6211e-05
1.61619e-05
1.60766e-05
1.60081e-05
1.5912e-05
1.5838e-05
1.57185e-05
1.56115e-05
1.54875e-05
1.53812e-05
1.99999e-05
1.98634e-05
1.95789e-05
1.93213e-05
1.90694e-05
1.89274e-05
1.87916e-05
1.86993e-05
1.85642e-05
1.84547e-05
1.8346e-05
1.82638e-05
1.81719e-05
1.81006e-05
1.80161e-05
1.79506e-05
1.78711e-05
1.78054e-05
1.77278e-05
1.76628e-05
1.75828e-05
1.75177e-05
1.744e-05
1.73739e-05
1.72975e-05
1.7234e-05
1.71581e-05
1.7096e-05
1.70253e-05
1.69689e-05
1.68979e-05
1.68478e-05
1.67807e-05
1.67411e-05
1.66684e-05
1.66321e-05
1.65603e-05
1.65227e-05
1.64481e-05
1.64072e-05
1.63243e-05
1.62753e-05
1.61858e-05
1.61156e-05
1.60194e-05
1.59391e-05
1.58111e-05
1.5706e-05
1.55808e-05
1.54647e-05
1.99999e-05
1.98668e-05
1.95902e-05
1.93396e-05
1.90908e-05
1.89469e-05
1.88092e-05
1.87212e-05
1.85888e-05
1.84827e-05
1.83744e-05
1.82944e-05
1.82061e-05
1.81394e-05
1.80587e-05
1.79977e-05
1.79224e-05
1.78619e-05
1.77883e-05
1.77273e-05
1.76512e-05
1.75905e-05
1.75163e-05
1.74539e-05
1.73805e-05
1.732e-05
1.72473e-05
1.71886e-05
1.71201e-05
1.7065e-05
1.69971e-05
1.69493e-05
1.68855e-05
1.68452e-05
1.67752e-05
1.674e-05
1.667e-05
1.66329e-05
1.65588e-05
1.65174e-05
1.64332e-05
1.6384e-05
1.62905e-05
1.62197e-05
1.61218e-05
1.60344e-05
1.59007e-05
1.57971e-05
1.56669e-05
1.5536e-05
1.99999e-05
1.98701e-05
1.96012e-05
1.93571e-05
1.91125e-05
1.8967e-05
1.88276e-05
1.87423e-05
1.86122e-05
1.851e-05
1.84018e-05
1.83235e-05
1.82384e-05
1.81762e-05
1.80992e-05
1.80428e-05
1.79714e-05
1.7916e-05
1.78464e-05
1.77893e-05
1.77171e-05
1.76606e-05
1.75897e-05
1.75309e-05
1.74604e-05
1.74029e-05
1.73336e-05
1.72778e-05
1.7211e-05
1.71573e-05
1.70926e-05
1.7047e-05
1.69856e-05
1.69446e-05
1.68776e-05
1.68434e-05
1.67751e-05
1.67382e-05
1.66645e-05
1.66225e-05
1.65372e-05
1.64875e-05
1.639e-05
1.63203e-05
1.62181e-05
1.61233e-05
1.59875e-05
1.5884e-05
1.57438e-05
1.55964e-05
1.99999e-05
1.98732e-05
1.96118e-05
1.93741e-05
1.91341e-05
1.89873e-05
1.8847e-05
1.87626e-05
1.86345e-05
1.85365e-05
1.84277e-05
1.83512e-05
1.82687e-05
1.82107e-05
1.81377e-05
1.80856e-05
1.80179e-05
1.79676e-05
1.79018e-05
1.78486e-05
1.77802e-05
1.77278e-05
1.76601e-05
1.76048e-05
1.75369e-05
1.74826e-05
1.74164e-05
1.7363e-05
1.72977e-05
1.72457e-05
1.71842e-05
1.71401e-05
1.70802e-05
1.70391e-05
1.69753e-05
1.6942e-05
1.6875e-05
1.68382e-05
1.67646e-05
1.67222e-05
1.66361e-05
1.65854e-05
1.64847e-05
1.64157e-05
1.63076e-05
1.62065e-05
1.60699e-05
1.5966e-05
1.58114e-05
1.56476e-05
1.99999e-05
1.98762e-05
1.96218e-05
1.93904e-05
1.91552e-05
1.90083e-05
1.88669e-05
1.87818e-05
1.86557e-05
1.85617e-05
1.84518e-05
1.83773e-05
1.82969e-05
1.82428e-05
1.81738e-05
1.81259e-05
1.80616e-05
1.80166e-05
1.79544e-05
1.7905e-05
1.78403e-05
1.77918e-05
1.77271e-05
1.76752e-05
1.76099e-05
1.75589e-05
1.74953e-05
1.74439e-05
1.738e-05
1.73302e-05
1.72711e-05
1.72278e-05
1.71693e-05
1.7129e-05
1.70683e-05
1.70355e-05
1.6969e-05
1.69323e-05
1.68591e-05
1.68163e-05
1.67295e-05
1.66779e-05
1.65739e-05
1.65055e-05
1.63904e-05
1.62847e-05
1.6148e-05
1.60393e-05
1.58677e-05
1.56925e-05
1.99999e-05
1.9879e-05
1.9631e-05
1.9406e-05
1.91755e-05
1.90299e-05
1.8887e-05
1.87999e-05
1.8676e-05
1.85853e-05
1.84738e-05
1.84017e-05
1.83232e-05
1.82725e-05
1.82074e-05