/*--------------------------------*- C++ -*----------------------------------*\
  =========                 |
  \\      /  F ield         | OpenFOAM: The Open Source CFD Toolbox
   \\    /   O peration     | Website:  https://openfoam.org
    \\  /    A nd           | Version:  7
     \\/     M anipulation  |
\*---------------------------------------------------------------------------*/
FoamFile
{
    version     2.0;
    format      ascii;
    class       volScalarField;
    location    "0.38";
    object      p;
}
// * * * * * * * * * * * * * * * * * * * * * * * * * * * * * * * * * * * * * //

dimensions      [0 2 -2 0 0 0 0];

internalField   nonuniform List<scalar> 
70000
(
0.109404
0.0325109
0.0193566
0.0217963
0.0220404
0.0209725
0.0199876
0.0192274
0.018583
0.0180043
0.0174774
0.0169939
0.0165459
0.0161264
0.0157297
0.0153507
0.0149853
0.01463
0.0142815
0.013937
0.013594
0.01325
0.0129026
0.0125495
0.0121886
0.0118175
0.0114339
0.0110352
0.0106189
0.0101821
0.00972193
0.00923512
0.00871831
0.0081677
0.00757951
0.00694937
0.00627324
0.00554647
0.004765
0.0039251
0.00302288
0.00205951
0.00102925
-4.65869e-05
-0.00119225
-0.00230758
-0.003513
-0.0044195
-0.00554475
-0.00541243
0.105104
0.0328729
0.0195592
0.0218909
0.0220948
0.0210082
0.0200154
0.0192504
0.0186022
0.0180208
0.0174917
0.0170065
0.0165572
0.0161366
0.0157389
0.0153591
0.0149931
0.0146372
0.0142882
0.0139433
0.0135998
0.0132554
0.0129077
0.0125544
0.0121932
0.0118218
0.0114379
0.011039
0.0106225
0.0101855
0.00972513
0.00923811
0.00872108
0.00817025
0.00758182
0.00695143
0.00627502
0.00554794
0.00476612
0.00392581
0.00302317
0.00205918
0.00102818
-4.8448e-05
-0.00119525
-0.00231165
-0.00351875
-0.00442797
-0.00554908
-0.00540562
0.101499
0.0337954
0.0199038
0.0220196
0.0221695
0.0210532
0.0200478
0.0192766
0.0186241
0.0180393
0.0175076
0.0170205
0.0165696
0.0161478
0.015749
0.0153684
0.0150016
0.014645
0.0142955
0.0139501
0.0136062
0.0132614
0.0129134
0.0125597
0.0121983
0.0118267
0.0114425
0.0110434
0.0106267
0.0101895
0.00972894
0.00924174
0.00872454
0.00817353
0.00758493
0.00695435
0.00627773
0.00555041
0.0047683
0.00392763
0.00302449
0.0020601
0.00102832
-4.91521e-05
-0.00119744
-0.00231534
-0.00352528
-0.00444023
-0.00553956
-0.00544447
0.0983943
0.0348947
0.0203804
0.0221923
0.0222708
0.0211113
0.0200861
0.0193066
0.0186488
0.0180599
0.0175252
0.0170357
0.016583
0.0161598
0.0157599
0.0153782
0.0150106
0.0146534
0.0143032
0.0139573
0.013613
0.0132678
0.0129194
0.0125655
0.0122038
0.0118319
0.0114476
0.0110483
0.0106314
0.010194
0.00973337
0.00924606
0.00872878
0.00817768
0.00758901
0.00695836
0.00628167
0.00555427
0.00477204
0.00393122
0.00302783
0.00206307
0.00103076
-4.76645e-05
-0.00119742
-0.0023179
-0.00353057
-0.00445756
-0.00552872
-0.00553738
0.0954382
0.0359886
0.0209541
0.0224107
0.0224056
0.02119
0.0201354
0.0193438
0.018679
0.0180847
0.017546
0.0170535
0.0165986
0.0161736
0.0157722
0.0153894
0.0150208
0.0146628
0.0143119
0.0139655
0.0136206
0.013275
0.0129262
0.012572
0.01221
0.0118379
0.0114534
0.0110539
0.0106369
0.0101995
0.00973877
0.00925145
0.00873417
0.00818312
0.00759452
0.00696399
0.00628742
0.00556017
0.0047781
0.0039374
0.00303407
0.00206919
0.00103672
-4.25829e-05
-0.0011937
-0.00231786
-0.00353301
-0.00447933
-0.00552351
-0.00568014
0.0925312
0.037021
0.0215783
0.0226554
0.0225681
0.0212908
0.0201983
0.0193904
0.0187166
0.0181155
0.0175716
0.0170752
0.0166174
0.0161901
0.015787
0.0154027
0.0150329
0.0146738
0.0143222
0.013975
0.0136296
0.0132834
0.0129342
0.0125796
0.0122173
0.011845
0.0114603
0.0110607
0.0106437
0.0102062
0.00974554
0.0092583
0.00874118
0.00819034
0.00760201
0.00697182
0.00629566
0.00556888
0.00478732
0.00394717
0.00304435
0.00207985
0.00104734
-3.21613e-05
-0.00118436
-0.00231315
-0.00353056
-0.0045035
-0.00553027
-0.00587223
0.089666
0.0379745
0.0222195
0.0229053
0.0227448
0.0214091
0.0202737
0.0194465
0.0187622
0.018153
0.0176027
0.0171017
0.0166402
0.0162101
0.0158048
0.0154187
0.0150474
0.0146871
0.0143344
0.0139863
0.0136402
0.0132935
0.0129438
0.0125888
0.0122262
0.0118536
0.0114688
0.0110691
0.010652
0.0102146
0.00975406
0.00926705
0.00875025
0.00819983
0.00761203
0.00698248
0.00630708
0.00558121
0.00480064
0.0039616
0.00305992
0.0020965
0.00106485
-1.45807e-05
-0.00116723
-0.00230146
-0.00352093
-0.00452769
-0.0055531
-0.00611236
0.0868519
0.0388427
0.0228616
0.0231484
0.022925
0.0215382
0.0203583
0.0195099
0.0188144
0.0181966
0.0176393
0.0171328
0.0166673
0.0162339
0.0158259
0.0154377
0.0150646
0.0147029
0.0143489
0.0139999
0.0136529
0.0133055
0.0129552
0.0125998
0.0122368
0.011864
0.011479
0.0110793
0.0106622
0.010225
0.00976473
0.00927811
0.00876183
0.00821208
0.00762511
0.00699658
0.00632238
0.00559793
0.00481897
0.00398177
0.00308199
0.00212057
0.00109066
1.20847e-05
-0.0011401
-0.00228041
-0.00350193
-0.00454919
-0.00559429
-0.00639605
0.0840953
0.0396231
0.0234991
0.0233811
0.0231023
0.0216733
0.0204486
0.0195779
0.0188713
0.0182447
0.0176802
0.017168
0.0166981
0.0162612
0.0158504
0.0154598
0.0150847
0.0147213
0.014366
0.0140158
0.0136678
0.0133196
0.0129687
0.0126128
0.0122495
0.0118764
0.0114913
0.0110916
0.0106747
0.0102377
0.00977785
0.00929182
0.00877629
0.00822752
0.00764173
0.00701466
0.00634216
0.00561976
0.00484311
0.00400858
0.00311165
0.00215331
0.00112628
4.96068e-05
-0.00110105
-0.00224777
-0.00347173
-0.00456518
-0.00565377
-0.00671545
0.0813996
0.0403149
0.0241306
0.0236032
0.023274
0.0218116
0.0205426
0.0196487
0.0189309
0.0182959
0.0177241
0.0172063
0.0167318
0.0162914
0.0158775
0.0154845
0.0151074
0.0147422
0.0143854
0.014034
0.013685
0.013336
0.0129844
0.0126279
0.0122642
0.011891
0.0115058
0.0111061
0.0106894
0.0102529
0.00979363
0.00930839
0.00879389
0.00824642
0.00766221
0.00703707
0.00636685
0.00564717
0.00487363
0.00404273
0.00314971
0.00219562
0.00117282
9.92067e-05
-0.00104857
-0.00220179
-0.00342907
-0.00457305
-0.00572889
-0.00705958
0.0787681
0.0409183
0.0247551
0.0238155
0.0234385
0.0219515
0.0206393
0.0197211
0.0189922
0.0183489
0.01777
0.0172465
0.0167676
0.0163236
0.0159068
0.0155112
0.015132
0.0147651
0.0144069
0.0140542
0.0137042
0.0133543
0.0130021
0.0126451
0.0122811
0.0119076
0.0115224
0.0111229
0.0107066
0.0102706
0.00981209
0.00932789
0.0088147
0.00826887
0.00768666
0.00706396
0.00639663
0.0056804
0.00491081
0.00408452
0.00319657
0.00224801
0.00123088
0.000161614
-0.000981827
-0.00214127
-0.00337328
-0.0045707
-0.0058147
-0.00741464
0.0762037
0.0414339
0.0253711
0.0240195
0.0235951
0.0220921
0.0207383
0.0197947
0.0190544
0.0184031
0.0178173
0.0172881
0.0168047
0.0163572
0.0159375
0.0155395
0.0151583
0.0147896
0.0144299
0.014076
0.013725
0.0133743
0.0130214
0.012664
0.0122997
0.0119261
0.011541
0.0111418
0.0107259
0.0102906
0.00983312
0.0093502
0.00883861
0.00829478
0.007715
0.00709526
0.00643142
0.00571937
0.00495459
0.00413391
0.00325219
0.00231041
0.00130046
0.00023686
-0.000900806
-0.00206574
-0.00330435
-0.00455654
-0.00590459
-0.00776468
0.0737094
0.0418624
0.0259763
0.0242164
0.0237431
0.0222327
0.0208394
0.0198693
0.0191173
0.0184582
0.0178655
0.0173306
0.0168429
0.0163918
0.0159693
0.0155689
0.0151856
0.0148153
0.0144541
0.014099
0.0137471
0.0133956
0.0130421
0.0126843
0.0123198
0.0119462
0.0115613
0.0111625
0.0107472
0.0103128
0.00985648
0.00937508
0.00886539
0.00832391
0.00774697
0.00713068
0.00647092
0.00576374
0.00500461
0.00419048
0.00331612
0.00238232
0.00138096
0.00032433
-0.000806221
-0.00197555
-0.0032228
-0.00452952
-0.0059911
-0.00809393
0.0712877
0.0422045
0.026568
0.0244077
0.0238819
0.0223723
0.0209426
0.0199449
0.0191807
0.018514
0.0179145
0.017374
0.0168819
0.0164273
0.0160019
0.0155991
0.0152139
0.0148418
0.0144793
0.0141231
0.0137702
0.013418
0.013064
0.0127059
0.0123412
0.0119677
0.011583
0.0111847
0.0107702
0.0103369
0.00988191
0.00940225
0.00889474
0.00835593
0.00778222
0.00716984
0.00651472
0.00581304
0.00506031
0.00425359
0.00338762
0.00246289
0.00147141
0.00042296
-0.000699342
-0.00187174
-0.00312944
-0.004489
-0.00606687
-0.00838883
0.0689408
0.0424618
0.027143
0.024595
0.0240113
0.0225101
0.0210476
0.0200215
0.0192446
0.0185705
0.0179643
0.0174181
0.0169216
0.0164635
0.0160352
0.0156301
0.0152429
0.0148692
0.0145053
0.0141479
0.0137941
0.0134413
0.0130868
0.0127284
0.0123637
0.0119903
0.011606
0.0112083
0.0107947
0.0103626
0.00990915
0.00943145
0.00892636
0.00839052
0.0078204
0.00721233
0.00656234
0.00586674
0.00512108
0.00432253
0.00346584
0.00255113
0.00157064
0.000531482
-0.000581708
-0.00175581
-0.00302506
-0.00443446
-0.00612511
-0.00863753
0.0666707
0.042636
0.0276982
0.0247797
0.024131
0.022645
0.0211543
0.0200992
0.019309
0.0186275
0.0180147
0.017463
0.0169619
0.0165004
0.0160692
0.0156617
0.0152725
0.0148972
0.014532
0.0141735
0.0138189
0.0134654
0.0131105
0.0127518
0.0123871
0.0120139
0.0116301
0.0112331
0.0108205
0.0103897
0.00993802
0.00946248
0.00896004
0.00842744
0.00786121
0.00725783
0.00661339
0.00592436
0.00518637
0.00439663
0.00355001
0.00264613
0.00167753
0.000648675
-0.000454763
-0.00162923
-0.00291021
-0.0043653
-0.00615978
-0.00883009
0.0644792
0.0427292
0.0282305
0.0249632
0.0242413
0.0227761
0.0212624
0.020178
0.0193737
0.018685
0.0180659
0.0175085
0.017003
0.0165379
0.0161039
0.015694
0.0153028
0.0149259
0.0145593
0.0141998
0.0138443
0.0134902
0.0131349
0.0127761
0.0124114
0.0120385
0.0116552
0.011259
0.0108476
0.0104183
0.00996842
0.00949521
0.00899562
0.0084665
0.00790447
0.0073061
0.00666761
0.00598557
0.00525577
0.00447541
0.00363951
0.00274716
0.00179122
0.000773557
-0.000319597
-0.00149299
-0.00278504
-0.00428058
-0.00616576
-0.00895927
0.0623674
0.0427443
0.0287367
0.0251465
0.0243421
0.0229023
0.0213714
0.0202578
0.0194387
0.0187429
0.0181177
0.0175547
0.0170447
0.016576
0.0161392
0.0157269
0.0153338
0.0149553
0.0145874
0.0142268
0.0138705
0.0135158
0.0131602
0.0128012
0.0124366
0.0120641
0.0116814
0.0112861
0.0108759
0.0104481
0.0100003
0.0095296
0.00903307
0.00850765
0.00795007
0.00735701
0.00672482
0.00605019
0.00532902
0.00455854
0.00373394
0.00285376
0.00191111
0.000905489
-0.000176844
-0.00134759
-0.00264923
-0.00417898
-0.00613879
-0.00902008
0.0603361
0.0426842
0.0292138
0.0253304
0.0244339
0.0230227
0.021481
0.0203388
0.019504
0.0188011
0.0181701
0.0176016
0.017087
0.0166149
0.0161751
0.0157606
0.0153655
0.0149853
0.0146161
0.0142545
0.0138974
0.0135422
0.0131862
0.0128272
0.0124627
0.0120906
0.0117086
0.0113143
0.0109054
0.0104794
0.0100337
0.00956565
0.00907237
0.00855088
0.007998
0.00741055
0.00678499
0.00611813
0.00540604
0.00464591
0.00383313
0.00296571
0.00203693
0.00104417
-2.66995e-05
-0.0011931
-0.00250203
-0.00405883
-0.00607532
-0.00900929
0.0583856
0.0425529
0.0296589
0.0255154
0.0245174
0.0231363
0.0215905
0.0204208
0.0195696
0.0188595
0.018223
0.0176491
0.01713
0.0166543
0.0162118
0.0157948
0.0153978
0.015016
0.0146456
0.0142829
0.0139251
0.0135693
0.0132131
0.012854
0.0124898
0.0121181
0.0117368
0.0113436
0.0109362
0.010512
0.0100686
0.00960342
0.00911358
0.00859624
0.00804831
0.00746675
0.00684815
0.00618943
0.00548682
0.0047375
0.00393705
0.00308296
0.00216863
0.0011896
0.000130988
-0.00102919
-0.00234228
-0.00391814
-0.00597237
-0.00892496
0.0565158
0.0423544
0.0300692
0.0257016
0.0245931
0.0232425
0.0216993
0.0205038
0.0196354
0.0189181
0.0182763
0.0176972
0.0171737
0.0166944
0.016249
0.0158298
0.0154308
0.0150475
0.0146757
0.0143121
0.0139535
0.0135973
0.0132408
0.0128817
0.0125178
0.0121467
0.0117663
0.0113742
0.0109683
0.0105461
0.0101052
0.00964297
0.00915676
0.00864379
0.00810109
0.0075257
0.0069144
0.00626418
0.00557147
0.00483342
0.0040458
0.00320564
0.00230637
0.00134194
0.000296605
-0.00085521
-0.00216858
-0.0037548
-0.00582745
-0.00876627
0.0547263
0.0420932
0.030442
0.0258885
0.024662
0.0233405
0.0218066
0.0205878
0.0197014
0.0189767
0.0183301
0.0177459
0.0172179
0.0167351
0.016287
0.0158654
0.0154646
0.0150797
0.0147067
0.0143421
0.0139828
0.0136261
0.0132694
0.0129104
0.0125468
0.0121763
0.0117968
0.0114061
0.0110018
0.0105817
0.0101434
0.00968438
0.00920201
0.00869364
0.00815642
0.00758752
0.00698384
0.0063425
0.00566012
0.00493382
0.00415953
0.00333393
0.00245038
0.00150154
0.000470709
-0.000670335
-0.0019794
-0.00356671
-0.00563858
-0.00853329
0.0530162
0.0417744
0.0307751
0.0260756
0.024725
0.0234299
0.0219118
0.0206725
0.0197677
0.0190353
0.0183841
0.0177952
0.0172628
0.0167765
0.0163255
0.0159017
0.015499
0.0151126
0.0147383
0.0143728
0.0140129
0.0136558
0.013299
0.0129401
0.0125769
0.0122071
0.0118286
0.0114393
0.0110368
0.0106189
0.0101834
0.00972773
0.00924942
0.00874589
0.00821442
0.00765231
0.00705661
0.00642455
0.00575292
0.00503887
0.00427847
0.00346807
0.00260098
0.00166879
0.000653957
-0.000473614
-0.00177324
-0.00335189
-0.00540427
-0.00822695
0.0513842
0.0414031
0.0310664
0.0262616
0.0247831
0.0235103
0.0220138
0.0207578
0.0198342
0.0190938
0.0184383
0.0178449
0.0173082
0.0168184
0.0163647
0.0159387
0.0155341
0.0151462
0.0147708
0.0144044
0.0140438
0.0136864
0.0133295
0.0129708
0.012608
0.0122391
0.0118617
0.0114738
0.0110733
0.0106578
0.0102252
0.00977311
0.00929907
0.00880064
0.00827522
0.00772022
0.00713286
0.00651048
0.00585006
0.00514877
0.00440283
0.00360834
0.00275852
0.00184415
0.000847036
-0.000264055
-0.00154863
-0.00310859
-0.0051236
-0.007849
0.0498287
0.0409849
0.0313143
0.0264453
0.0248373
0.0235817
0.0221119
0.0208431
0.019901
0.019152
0.0184925
0.017895
0.0173542
0.0168609
0.0164046
0.0159763
0.01557
0.0151806
0.014804
0.0144368
0.0140756
0.0137179
0.013361
0.0130025
0.0126403
0.0122722
0.0118961
0.0115099
0.0111114
0.0106985
0.010269
0.00982061
0.00935109
0.00885801
0.00833893
0.00779137
0.00721273
0.00660045
0.00595172
0.00526372
0.00453284
0.00375501
0.00292338
0.00202813
0.00105063
-4.06788e-05
-0.00130424
-0.0028354
-0.00479619
-0.00740193
0.0483477
0.0405253
0.0315174
0.0266246
0.0248887
0.0236441
0.0222052
0.0209283
0.019968
0.0192101
0.0185467
0.0179455
0.0174006
0.016904
0.016445
0.0160146
0.0156065
0.0152157
0.0148381
0.01447
0.0141084
0.0137504
0.0133935
0.0130354
0.0126738
0.0123067
0.0119319
0.0115474
0.0111511
0.0107409
0.0103147
0.00987034
0.00940556
0.00891811
0.00840567
0.0078659
0.00729636
0.00669463
0.00605806
0.00538394
0.00466877
0.00390837
0.00309594
0.00222122
0.00126544
0.000197453
-0.00103892
-0.00253124
-0.00442222
-0.00688891
0.0469391
0.04003
0.0316752
0.0267975
0.0249382
0.0236979
0.0222929
0.0210128
0.0200353
0.0192678
0.0186008
0.0179962
0.0174476
0.0169477
0.016486
0.0160536
0.0156438
0.0152517
0.014873
0.0145041
0.014142
0.0137839
0.0134271
0.0130694
0.0127085
0.0123425
0.0119691
0.0115865
0.0111926
0.0107853
0.0103626
0.00992238
0.00946259
0.00898106
0.00847558
0.00794396
0.00738392
0.00679319
0.00616929
0.00550962
0.00481084
0.00406872
0.00327656
0.00242389
0.00149217
0.000451239
-0.000751678
-0.00219541
-0.00400243
-0.00631373
0.0456003
0.0395048
0.0317871
0.0269615
0.0249864
0.0237436
0.0223742
0.0210959
0.0201026
0.0193253
0.0186546
0.0180471
0.017495
0.0169918
0.0165277
0.0160932
0.0156818
0.0152884
0.0149087
0.0145391
0.0141766
0.0138184
0.0134618
0.0131046
0.0127445
0.0123797
0.0120079
0.0116273
0.0112358
0.0108316
0.0104126
0.00997683
0.0095223
0.00904697
0.00854878
0.00802568
0.00747556
0.00689629
0.00628559
0.00564098
0.0049593
0.00423636
0.00346559
0.00263662
0.00173146
0.000721454
-0.000441792
-0.00182763
-0.0035381
-0.00568073
0.0443287
0.0389552
0.0318537
0.027114
0.025034
0.0237816
0.0224485
0.0211772
0.02017
0.0193824
0.0187081
0.018098
0.0175427
0.0170365
0.0165698
0.0161335
0.0157206
0.0153259
0.0149452
0.0145751
0.0142122
0.0138539
0.0134976
0.013141
0.0127819
0.0124183
0.0120482
0.0116698
0.011281
0.01088
0.0104649
0.0100338
0.00958479
0.00911597
0.00862541
0.0081112
0.00757142
0.00700409
0.00640715
0.00577823
0.00511439
0.00441155
0.00366341
0.00285988
0.00198386
0.00100872
-0.000108765
-0.00142802
-0.00303102
-0.00499469
0.0431214
0.0383866
0.0318756
0.0272525
0.0250812
0.0238129
0.0225154
0.0212559
0.0202372
0.0194392
0.018761
0.0181489
0.0175908
0.0170816
0.0166126
0.0161744
0.01576
0.0153641
0.0149826
0.0146119
0.0142488
0.0138906
0.0135346
0.0131786
0.0128206
0.0124584
0.0120902
0.011714
0.0113281
0.0109305
0.0105196
0.0100934
0.00965018
0.00918817
0.00870558
0.00820066
0.00767165
0.00711677
0.00653413
0.00592157
0.00527635
0.00459459
0.00387036
0.00309407
0.00224983
0.00131353
0.00024764
-0.000997117
-0.00248346
-0.0042608
0.0419755
0.037804
0.0318542
0.0273746
0.0251278
0.0238381
0.0225745
0.0213312
0.0203039
0.0194957
0.0188135
0.0181996
0.017639
0.0171271
0.0166558
0.0162159
0.0158001
0.0154032
0.0150209
0.0146497
0.0142865
0.0139283
0.0135728
0.0132176
0.0128607
0.0125001
0.0121338
0.0117601
0.0113772
0.0109833
0.0105767
0.0101557
0.00971856
0.00926369
0.00878943
0.0082942
0.00777642
0.00723449
0.00666673
0.00607119
0.00544541
0.00478574
0.00408673
0.00333953
0.00252977
0.00163621
0.000627372
-0.00053585
-0.00189811
-0.00348452
0.0408879
0.0372121
0.0317914
0.0274781
0.0251734
0.0238582
0.0226256
0.0214025
0.0203699
0.0195517
0.0188654
0.01825
0.0176874
0.017173
0.0166995
0.016258
0.0158409
0.015443
0.0150601
0.0146885
0.0143251
0.0139672
0.0136122
0.013258
0.0129023
0.0125434
0.0121792
0.0118082
0.0114285
0.0110384
0.0106364
0.0102208
0.00979006
0.00934265
0.00887709
0.00839196
0.00788586
0.00735739
0.00680511
0.00622728
0.00562175
0.00498524
0.00431285
0.00359654
0.00282394
0.00197686
0.0010301
-4.55362e-05
-0.00127808
-0.00267156
0.0398556
0.036615
0.0316894
0.0275612
0.0252172
0.0238737
0.0226688
0.0214692
0.0204346
0.0196073
0.0189166
0.0182999
0.0177359
0.0172193
0.0167437
0.0163006
0.0158824
0.0154837
0.0151002
0.0147283
0.0143649
0.0140073
0.013653
0.0132997
0.0129454
0.0125883
0.0122265
0.0118582
0.0114819
0.0110959
0.0106987
0.0102888
0.00986478
0.00942516
0.00896868
0.00849406
0.00800011
0.00748563
0.00694942
0.00639001
0.00580558
0.00519329
0.00454887
0.00386535
0.00313248
0.00233542
0.0014552
0.000472148
-0.000626783
-0.00182777
0.0388756
0.0360164
0.0315511
0.0276223
0.025258
0.0238855
0.0227044
0.0215305
0.0204976
0.0196623
0.0189671
0.0183494
0.0177842
0.0172658
0.0167883
0.0163438
0.0159246
0.0155251
0.0151411
0.014769
0.0144058
0.0140486
0.013695
0.0133429
0.0129902
0.012635
0.0122756
0.0119103
0.0115376
0.0111559
0.0107638
0.0103599
0.00994283
0.00951135
0.00906432
0.00860064
0.00811931
0.00761935
0.00709982
0.00655954
0.00599706
0.00541003
0.00479498
0.0041461
0.00345541
0.00271158
0.00190177
0.00101519
5.20293e-05
-0.000959125
0.0379447
0.0354197
0.0313795
0.0276603
0.0252945
0.0238939
0.0227326
0.021586
0.0205585
0.0197167
0.0190169
0.0183981
0.0178323
0.0173124
0.0168333
0.0163875
0.0159674
0.0155673
0.0151829
0.0148108
0.0144477
0.0140911
0.0137384
0.0133875
0.0130365
0.0126834
0.0123267
0.0119646
0.0115957
0.0112185
0.0108318
0.0104341
0.0100243
0.00960132
0.00916413
0.00871181
0.00824357
0.00775868
0.00725644
0.00673599
0.0061963
0.0056356
0.00505127
0.00443882
0.00379259
0.00310485
0.00236862
0.00158127
0.00075439
-7.15598e-05
0.0370602
0.0348276
0.0311778
0.0276744
0.0253253
0.0238993
0.0227539
0.0216353
0.0206166
0.0197701
0.0190659
0.0184462
0.0178801
0.0173592
0.0168787
0.0164317
0.0160108
0.0156102
0.0152257
0.0148535
0.0144908
0.0141349
0.0137832
0.0134337
0.0130845
0.0127337
0.0123797
0.012021
0.0116562
0.0112838
0.0109026
0.0105115
0.0101093
0.00969518
0.0092682
0.00882768
0.00837302
0.00790372
0.00741938
0.00691947
0.00640342
0.00587008
0.00531778
0.00474342
0.0041437
0.00351449
0.00285429
0.00216778
0.00147616
0.000829027
0.0362191
0.0342426
0.0309495
0.0276643
0.0253488
0.0239019
0.0227689
0.021678
0.0206715
0.0198223
0.0191141
0.0184934
0.0179275
0.0174059
0.0169243
0.0164763
0.0160548
0.0156539
0.0152693
0.0148973
0.0145351
0.0141799
0.0138294
0.0134815
0.0131342
0.0127859
0.0124349
0.0120798
0.0117192
0.0113518
0.0109765
0.0105922
0.010198
0.00979302
0.00937666
0.00894835
0.00850775
0.00805457
0.00758872
0.00711005
0.00661845
0.00611347
0.00559444
0.00505968
0.00450828
0.00393956
0.00335707
0.0027719
0.00221308
0.00173685
0.0354187
0.0336665
0.0306979
0.02763
0.0253635
0.0239016
0.0227779
0.0217141
0.0207225
0.0198731
0.0191613
0.0185398
0.0179743
0.0174525
0.0169701
0.0165214
0.0160994
0.0156984
0.0153138
0.0149421
0.0145805
0.0142263
0.0138771
0.0135309
0.0131858
0.01284
0.0124922
0.0121409
0.0117847
0.0114226
0.0110534
0.0106763
0.0102903
0.00989493
0.00948957
0.00907392
0.00864783
0.0082113
0.00776454
0.00730778
0.00684141
0.00636574
0.00588109
0.00538725
0.00488567
0.00437892
0.00387505
0.0033906
0.00296081
0.00264628
0.0346565
0.033101
0.0304265
0.0275721
0.0253678
0.023898
0.0227816
0.0217436
0.0207692
0.019922
0.0192075
0.0185852
0.0180204
0.0174989
0.0170161
0.0165668
0.0161446
0.0157435
0.0153591
0.014988
0.0146272
0.014274
0.0139263
0.0135819
0.0132391
0.0128962
0.0125517
0.0122044
0.0118529
0.0114963
0.0111336
0.0107638
0.0103865
0.010001
0.00960703
0.00920445
0.00879334
0.00837397
0.00794686
0.00751265
0.00707226
0.00662678
0.00617741
0.00572567
0.00527507
0.0048312
0.00440608
0.00402075
0.00371501
0.00355189
0.0339301
0.0325472
0.0301385
0.0274914
0.0253607
0.0238908
0.0227804
0.0217665
0.0208111
0.0199687
0.0192526
0.0186297
0.0180657
0.017545
0.0170622
0.0166126
0.0161902
0.0157893
0.0154054
0.0150349
0.014675
0.0143231
0.0139769
0.0136346
0.0132943
0.0129544
0.0126135
0.0122703
0.0119238
0.011573
0.0112169
0.0108549
0.0104865
0.0101113
0.00972909
0.00934
0.00894432
0.00854258
0.00813566
0.00772461
0.00731092
0.00689627
0.00648303
0.0060743
0.00567549
0.00529487
0.00494786
0.00465908
0.00447139
0.00444859
0.0332371
0.0320059
0.0298368
0.027389
0.0253411
0.0238792
0.0227746
0.0217831
0.020848
0.0200127
0.0192963
0.018673
0.0181102
0.0175906
0.0171082
0.0166586
0.0162363
0.0158358
0.0154525
0.0150828
0.014724
0.0143735
0.0140292
0.013689
0.0133513
0.0130146
0.0126775
0.0123388
0.0119975
0.0116527
0.0113036
0.0109497
0.0105905
0.0102259
0.00985581
0.0094806
0.00910077
0.00871714
0.00833091
0.00794356
0.00755714
0.00717398
0.00679756
0.00643244
0.00608579
0.00576823
0.00549795
0.00530224
0.00522575
0.00533155
0.0325756
0.0314779
0.0295243
0.0272663
0.0253082
0.0238625
0.0227645
0.0217936
0.0208795
0.0200537
0.0193384
0.0187152
0.0181537
0.0176357
0.017154
0.0167048
0.0162829
0.0158829
0.0155004
0.0151317
0.0147742
0.0144253
0.0140829
0.0137452
0.0134104
0.013077
0.0127439
0.0124099
0.012074
0.0117355
0.0113937
0.0110481
0.0106984
0.0103448
0.00998721
0.00962627
0.0092627
0.0088976
0.00853251
0.00816935
0.00781066
0.00745955
0.00712046
0.00679922
0.00650469
0.00624945
0.00605382
0.00594689
0.005974
0.0061963
0.0319434
0.0309636
0.0292035
0.027125
0.0252617
0.02384
0.02275
0.0217983
0.0209055
0.0200912
0.0193787
0.0187561
0.0181962
0.0176801
0.0171997
0.0167512
0.0163299
0.0159307
0.0155491
0.0151817
0.0148256
0.0144785
0.0141383
0.0138031
0.0134713
0.0131416
0.0128127
0.0124836
0.0121534
0.0118214
0.0114871
0.0111502
0.0108104
0.010468
0.0101233
0.00977699
0.00943005
0.00908388
0.00874033
0.00840175
0.0080712
0.0077525
0.00745098
0.00717363
0.00693076
0.00673655
0.00661285
0.00658976
0.00671229
0.00703874
0.0313389
0.0304631
0.0288767
0.0269667
0.0252013
0.0238108
0.0227313
0.0217975
0.020926
0.0201249
0.0194169
0.0187957
0.0182376
0.0177237
0.017245
0.0167976
0.0163771
0.015979
0.0155986
0.0152326
0.0148782
0.0145331
0.0141952
0.0138628
0.0135343
0.0132084
0.012884
0.01256
0.0122357
0.0119105
0.011584
0.011256
0.0109264
0.0105956
0.0102641
0.00993272
0.00960276
0.00927585
0.00895418
0.00864049
0.00833837
0.00805227
0.00778831
0.00755457
0.00736251
0.0072275
0.00717238
0.0072276
0.00743697
0.00785522
0.0307603
0.0299765
0.028546
0.0267933
0.0251271
0.0237743
0.0227081
0.0217915
0.0209409
0.0201546
0.0194527
0.0188337
0.0182778
0.0177664
0.0172899
0.0168439
0.0164247
0.0160278
0.0156489
0.0152845
0.014932
0.014589
0.0142537
0.0139243
0.0135993
0.0132775
0.0129577
0.0126391
0.012321
0.0120029
0.0116844
0.0113656
0.0110465
0.0107276
0.0104095
0.0100934
0.00978071
0.00947334
0.00917381
0.00888523
0.00861167
0.00835818
0.00813159
0.00794084
0.00779828
0.00772016
0.00772978
0.00785729
0.00814464
0.0086425
0.030206
0.0295037
0.0282131
0.0266065
0.0250394
0.02373
0.0226802
0.0217805
0.0209504
0.0201799
0.0194858
0.0188701
0.0183167
0.0178082
0.0173342
0.0168902
0.0164725
0.0160771
0.0156998
0.0153374
0.0149869
0.0146464
0.0143139
0.0139877
0.0136664
0.0133488
0.0130339
0.0127209
0.0124092
0.0120984
0.0117883
0.0114789
0.0111706
0.0108638
0.0105595
0.0102589
0.00996374
0.00967615
0.00939894
0.00913558
0.00889057
0.0086695
0.00847981
0.00833109
0.00823636
0.00821239
0.00828246
0.00847588
0.00883219
0.00939769
0.0296747
0.0290447
0.0278795
0.0264083
0.0249389
0.0236772
0.0226474
0.0217647
0.0209545
0.0202006
0.0195159
0.0189046
0.0183543
0.0178489
0.0173779
0.0169362
0.0165204
0.0161268
0.0157515
0.0153911
0.0150431
0.0147052
0.0143756
0.0140528
0.0137355
0.0134223
0.0131126
0.0128054
0.0125004
0.0121972
0.0118957
0.011596
0.0112987
0.0110043
0.010714
0.0104291
0.0101517
0.00988401
0.00962919
0.00939105
0.00917444
0.0089854
0.00883188
0.00872393
0.00867499
0.00870201
0.00882787
0.00908059
0.00949689
0.0101185
0.029165
0.0285992
0.0275466
0.0262002
0.0248262
0.0236158
0.0226092
0.0217441
0.0209535
0.0202168
0.0195428
0.018937
0.0183904
0.0178885
0.0174208
0.0169819
0.0165684
0.0161769
0.0158038
0.0154458
0.0151003
0.0147653
0.014439
0.0141198
0.0138066
0.0134982
0.0131938
0.0128927
0.0125946
0.0122992
0.0120065
0.0117168
0.0114307
0.0111489
0.0108728
0.0106039
0.0103443
0.0100966
0.00986417
0.0096511
0.00946258
0.00930499
0.00918663
0.00911791
0.00911239
0.00918691
0.00936358
0.00966881
0.0101362
0.010803
0.0286757
0.0281671
0.0272155
0.0259839
0.0247021
0.0235456
0.0225655
0.0217188
0.0209474
0.0202282
0.0195662
0.0189671
0.0184249
0.0179269
0.0174629
0.0170272
0.0166164
0.0162274
0.0158567
0.0155013
0.0151587
0.0148268
0.0145039
0.0141886
0.0138798
0.0135763
0.0132775
0.0129827
0.0126917
0.0124043
0.0121207
0.0118412
0.0115665
0.0112976
0.0110358
0.010783
0.0105413
0.0103136
0.0101034
0.00991514
0.00975421
0.00962727
0.00954287
0.00951153
0.00954677
0.00966502
0.00988734
0.0102382
0.0107481
0.0114495
0.0282057
0.0277479
0.0268871
0.0257609
0.0245675
0.0234666
0.0225159
0.0216888
0.0209365
0.020235
0.019586
0.0189948
0.0184576
0.017964
0.0175041
0.017072
0.0166643
0.016278
0.0159102
0.0155577
0.0152182
0.0148896
0.0145704
0.0142593
0.013955
0.0136567
0.0133637
0.0130754
0.0127918
0.0125127
0.0122383
0.0119692
0.0117061
0.0114502
0.0112029
0.0109661
0.0107423
0.0105345
0.0103464
0.0101825
0.0100485
0.00995123
0.00989932
0.00990326
0.00997634
0.0101344
0.010397
0.0107868
0.0113308
0.0120571
0.0277539
0.0273415
0.0265622
0.0255327
0.0244236
0.023379
0.0224602
0.021654
0.0209208
0.0202372
0.0196019
0.0190197
0.0184885
0.0179997
0.0175443
0.0171162
0.016712
0.0163289
0.0159641
0.0156148
0.0152786
0.0149537
0.0146385
0.0143316
0.0140322
0.0137393
0.0134523
0.0131708
0.0128947
0.0126241
0.0123592
0.0121006
0.0118493
0.0116064
0.0113736
0.011153
0.010947
0.0107589
0.0105925
0.0104524
0.0103446
0.0102758
0.0102547
0.0102916
0.0103994
0.010593
0.0108906
0.0113126
0.0118828
0.0126252
0.0273194
0.0269475
0.0262415
0.0253005
0.0242713
0.0232831
0.0223984
0.0216144
0.0209005
0.0202348
0.019614
0.0190418
0.0185173
0.0180339
0.0175834
0.0171597
0.0167594
0.0163799
0.0160185
0.0156726
0.0153401
0.0150191
0.014708
0.0144058
0.0141114
0.0138241
0.0135434
0.0132689
0.0130005
0.0127385
0.0124832
0.0122353
0.0119959
0.0117662
0.0115479
0.0113433
0.011155
0.0109863
0.0108411
0.0107242
0.0106415
0.0105998
0.0106077
0.010675
0.0108142
0.0110391
0.0113665
0.0118142
0.0124032
0.0131533
0.0269014
0.0265656
0.0259256
0.0250654
0.0241116
0.0231793
0.0223302
0.0215699
0.0208756
0.020228
0.0196222
0.0190608
0.018544
0.0180665
0.0176213
0.0172025
0.0168065
0.0164309
0.0160732
0.0157311
0.0154025
0.0150856
0.014779
0.0144816
0.0141925
0.013911
0.0136368
0.0133694
0.013109
0.0128558
0.0126103
0.0123732
0.0121457
0.0119292
0.0117254
0.0115367
0.0113658
0.011216
0.0110915
0.010997
0.0109383
0.0109222
0.0109569
0.0110521
0.0112192
0.0114712
0.011823
0.0122904
0.0128912
0.0136416
0.0264989
0.0261955
0.0256149
0.0248286
0.0239456
0.0230682
0.0222559
0.0215204
0.0208462
0.0202167
0.0196264
0.0190767
0.0185683
0.0180974
0.0176579
0.0172443
0.0168531
0.0164818
0.0161282
0.0157902
0.0154658
0.0151533
0.0148514
0.0145591
0.0142755
0.0140001
0.0137324
0.0134725
0.0132202
0.0129759
0.0127403
0.0125141
0.0122985
0.0120951
0.0119057
0.0117327
0.0115789
0.0114476
0.011343
0.0112699
0.0112339
0.0112417
0.0113012
0.0114215
0.0116131
0.0118878
0.012259
0.0127402
0.0133464
0.0140904
0.0261113
0.0258369
0.0253097
0.024591
0.0237743
0.0229502
0.0221755
0.0214661
0.0208124
0.0202012
0.0196266
0.0190894
0.0185902
0.0181265
0.0176932
0.0172852
0.0168991
0.0165325
0.0161834
0.0158498
0.0155299
0.0152221
0.0149251
0.0146381
0.0143602
0.0140911
0.0138303
0.0135778
0.0133338
0.0130986
0.0128729
0.0126577
0.012454
0.0122637
0.0120885
0.0119309
0.0117937
0.0116804
0.0115949
0.0115421
0.0115275
0.0115574
0.0116393
0.0117817
0.0119943
0.0122876
0.0126733
0.013163
0.0137686
0.0145005
0.0257379
0.0254894
0.0250105
0.0243533
0.0235985
0.0228262
0.0220893
0.0214068
0.0207743
0.0201815
0.019623
0.0190987
0.0186096
0.0181537
0.017727
0.0173251
0.0169446
0.0165831
0.0162387
0.0159098
0.0155947
0.0152918
0.0150001
0.0147186
0.0144467
0.014184
0.0139303
0.0136855
0.0134498
0.0132238
0.0130081
0.0128037
0.012612
0.0124345
0.0122733
0.0121308
0.0120097
0.0119136
0.0118464
0.0118127
0.0118178
0.011868
0.0119699
0.0121315
0.0123616
0.0126695
0.0130651
0.0135582
0.0141584
0.0148731
0.0253781
0.0251528
0.0247174
0.0241164
0.0234193
0.0226966
0.0219975
0.0213427
0.0207319
0.0201577
0.0196155
0.0191047
0.0186262
0.0181789
0.0177594
0.0173639
0.0169892
0.0166332
0.0162941
0.0159702
0.0156601
0.0153625
0.0150762
0.0148005
0.0145348
0.0142787
0.0140322
0.0137952
0.013568
0.0133512
0.0131455
0.012952
0.0127721
0.0126073
0.0124597
0.0123318
0.0122263
0.0121466
0.0120966
0.0120807
0.012104
0.0121723
0.0122919
0.0124699
0.0127141
0.0130327
0.013434
0.0139258
0.0145158
0.0152093
0.0250312