/*--------------------------------*- C++ -*----------------------------------*\
  =========                 |
  \\      /  F ield         | OpenFOAM: The Open Source CFD Toolbox
   \\    /   O peration     | Website:  https://openfoam.org
    \\  /    A nd           | Version:  7
     \\/     M anipulation  |
\*---------------------------------------------------------------------------*/
FoamFile
{
    version     2.0;
    format      ascii;
    class       volVectorField;
    location    "0.38";
    object      U;
}
// * * * * * * * * * * * * * * * * * * * * * * * * * * * * * * * * * * * * * //

dimensions      [0 1 -1 0 0 0 0];

internalField   nonuniform List<vector> 
70000
(
(0.553392 0.0167229 0)
(0.25127 0.00340086 0)
(0.166219 0.000321839 0)
(0.132482 5.41304e-05 0)
(0.117303 4.55654e-05 0)
(0.107393 5.37309e-05 0)
(0.0994613 4.6086e-05 0)
(0.0930399 3.6732e-05 0)
(0.087816 3.04018e-05 0)
(0.0834693 2.60582e-05 0)
(0.0797713 2.27419e-05 0)
(0.0765739 2.00809e-05 0)
(0.0737755 1.79046e-05 0)
(0.0713023 1.60997e-05 0)
(0.0690981 1.45813e-05 0)
(0.0671196 1.32868e-05 0)
(0.0653329 1.21701e-05 0)
(0.063711 1.11939e-05 0)
(0.0622319 1.03332e-05 0)
(0.060878 9.56387e-06 0)
(0.0596347 8.87056e-06 0)
(0.0584899 8.2376e-06 0)
(0.0574336 7.65364e-06 0)
(0.0564574 7.10769e-06 0)
(0.0555545 6.5918e-06 0)
(0.054719 6.09542e-06 0)
(0.0539463 5.61377e-06 0)
(0.0532326 5.13716e-06 0)
(0.0525747 4.65925e-06 0)
(0.0519705 4.17461e-06 0)
(0.0514185 3.67065e-06 0)
(0.0509176 3.14773e-06 0)
(0.050468 2.58583e-06 0)
(0.0500698 1.99107e-06 0)
(0.0497248 1.33189e-06 0)
(0.0494345 6.26886e-07 0)
(0.049202 -1.73627e-07 0)
(0.0490318 -1.03976e-06 0)
(0.0489258 -2.03435e-06 0)
(0.0488964 -3.05025e-06 0)
(0.0489351 -4.24665e-06 0)
(0.0490794 -5.55992e-06 0)
(0.0492763 -6.0934e-06 0)
(0.0496499 -8.54531e-06 0)
(0.0499734 -6.08305e-06 0)
(0.0506929 -1.27779e-05 0)
(0.0509178 2.57369e-06 0)
(0.052268 -1.94536e-05 0)
(0.0516325 6.18207e-05 0)
(0.0503144 -0.00192721 0)
(0.8849 0.0431669 0)
(0.649728 0.0201932 0)
(0.494351 0.0065973 0)
(0.403718 0.00276642 0)
(0.354819 0.0015506 0)
(0.32355 0.00112995 0)
(0.29973 0.000908496 0)
(0.280579 0.000744359 0)
(0.264917 0.000621298 0)
(0.25185 0.000530362 0)
(0.240728 0.000461304 0)
(0.231108 0.000406932 0)
(0.222685 0.000362962 0)
(0.215235 0.000326724 0)
(0.20859 0.000296396 0)
(0.202621 0.000270675 0)
(0.197224 0.0002486 0)
(0.192321 0.000229445 0)
(0.187844 0.000212655 0)
(0.18374 0.000197796 0)
(0.179966 0.000184524 0)
(0.176484 0.00017256 0)
(0.173266 0.000161675 0)
(0.170284 0.000151675 0)
(0.167518 0.000142398 0)
(0.164949 0.000133695 0)
(0.162564 0.000125439 0)
(0.16035 0.000117508 0)
(0.158296 0.000109786 0)
(0.156395 0.000102166 0)
(0.154642 9.45217e-05 0)
(0.153032 8.67506e-05 0)
(0.151563 7.86954e-05 0)
(0.150235 7.02691e-05 0)
(0.149051 6.1231e-05 0)
(0.148013 5.15558e-05 0)
(0.147129 4.08177e-05 0)
(0.146409 2.9182e-05 0)
(0.145858 1.58523e-05 0)
(0.145508 1.63447e-06 0)
(0.145338 -1.51734e-05 0)
(0.145449 -3.36559e-05 0)
(0.145706 -5.51059e-05 0)
(0.146443 -7.7632e-05 0)
(0.147082 -0.00010084 0)
(0.148805 -0.000127841 0)
(0.149364 -0.000133943 0)
(0.152924 -0.000184409 0)
(0.151894 0.000133202 0)
(0.154684 -0.00292696 0)
(0.991238 0.0499006 0)
(0.890359 0.0307172 0)
(0.762716 0.0145956 0)
(0.656735 0.00797701 0)
(0.585445 0.00488159 0)
(0.536086 0.00346709 0)
(0.498274 0.00273085 0)
(0.467719 0.00223789 0)
(0.442474 0.00187418 0)
(0.42124 0.00160209 0)
(0.403069 0.00139423 0)
(0.387291 0.00123057 0)
(0.373431 0.00109834 0)
(0.361139 0.000989406 0)
(0.350149 0.000898253 0)
(0.340256 0.00082096 0)
(0.331295 0.000754651 0)
(0.323138 0.000697147 0)
(0.315677 0.000646793 0)
(0.308827 0.000602286 0)
(0.302516 0.000562601 0)
(0.296684 0.000526906 0)
(0.291282 0.000494521 0)
(0.286268 0.000464874 0)
(0.281605 0.000437487 0)
(0.277265 0.000411927 0)
(0.273222 0.000387831 0)
(0.269456 0.000364846 0)
(0.265949 0.000342652 0)
(0.262686 0.000320938 0)
(0.259658 0.000299376 0)
(0.256855 0.000277659 0)
(0.254274 0.000255396 0)
(0.25191 0.0002323 0)
(0.249768 0.000207783 0)
(0.247847 0.000181692 0)
(0.246157 0.000152948 0)
(0.244711 0.000121909 0)
(0.243514 8.63851e-05 0)
(0.242612 4.82676e-05 0)
(0.241973 2.90338e-06 0)
(0.241742 -4.53917e-05 0)
(0.241726 -0.000106884 0)
(0.242408 -0.000164822 0)
(0.24297 -0.000243569 0)
(0.245094 -0.000303893 0)
(0.245675 -0.000380635 0)
(0.250422 -0.000467446 0)
(0.249285 -0.000108518 0)
(0.255698 -0.00291661 0)
(1.0156 0.0489193 0)
(1.00597 0.0358726 0)
(0.935977 0.0207884 0)
(0.852175 0.0135 0)
(0.782273 0.0092023 0)
(0.727124 0.00677418 0)
(0.682105 0.0053749 0)
(0.644423 0.00443437 0)
(0.612489 0.00373949 0)
(0.585114 0.0032127 0)
(0.561359 0.00280558 0)
(0.540516 0.00248292 0)
(0.522055 0.00222113 0)
(0.505572 0.00200474 0)
(0.490753 0.00182318 0)
(0.477348 0.00166889 0)
(0.465157 0.00153628 0)
(0.454018 0.00142114 0)
(0.443797 0.00132022 0)
(0.434386 0.00123099 0)
(0.42569 0.00115142 0)
(0.417634 0.00107988 0)
(0.410152 0.00101504 0)
(0.403189 0.000955768 0)
(0.396698 0.000901136 0)
(0.39064 0.0008503 0)
(0.38498 0.000802551 0)
(0.379689 0.000757209 0)
(0.374745 0.000713668 0)
(0.370126 0.000671324 0)
(0.365818 0.000629582 0)
(0.361808 0.000587847 0)
(0.358087 0.000545425 0)
(0.354649 0.000501745 0)
(0.351496 0.000455772 0)
(0.348626 0.000407157 0)
(0.346048 0.000353972 0)
(0.343775 0.000296782 0)
(0.341812 0.000231462 0)
(0.340209 0.000161506 0)
(0.33893 7.72453e-05 0)
(0.33814 -8.86104e-06 0)
(0.337621 -0.000123596 0)
(0.337919 -0.000226715 0)
(0.338125 -0.000382967 0)
(0.340106 -0.000483971 0)
(0.340514 -0.000667831 0)
(0.345358 -0.000791436 0)
(0.344513 -0.000475865 0)
(0.351537 -0.00272498 0)
(1.01434 0.0460025 0)
(1.04754 0.0374855 0)
(1.0246 0.0241472 0)
(0.974797 0.0175532 0)
(0.923516 0.0131143 0)
(0.876789 0.0101955 0)
(0.834688 0.00832928 0)
(0.797018 0.00700572 0)
(0.763546 0.00599371 0)
(0.733835 0.00520431 0)
(0.707368 0.00458063 0)
(0.683674 0.00407846 0)
(0.662351 0.00366627 0)
(0.643066 0.00332249 0)
(0.625543 0.00303193 0)
(0.60955 0.00278353 0)
(0.594894 0.00256899 0)
(0.581416 0.00238195 0)
(0.568977 0.00221747 0)
(0.557464 0.00207164 0)
(0.546779 0.00194135 0)
(0.536837 0.00182403 0)
(0.527569 0.0017176 0)
(0.518911 0.0016203 0)
(0.510812 0.00153063 0)
(0.503227 0.00144728 0)
(0.496116 0.00136913 0)
(0.489446 0.0012951 0)
(0.483189 0.00122424 0)
(0.477321 0.00115562 0)
(0.471823 0.0010883 0)
(0.466679 0.00102137 0)
(0.461879 0.000953761 0)
(0.457413 0.000884581 0)
(0.45328 0.000812291 0)
(0.449478 0.000736294 0)
(0.446014 0.000653729 0)
(0.4429 0.000565339 0)
(0.44014 0.000464904 0)
(0.437783 0.000357636 0)
(0.435797 0.000228447 0)
(0.434341 9.70098e-05 0)
(0.43321 -7.69194e-05 0)
(0.43293 -0.000233522 0)
(0.432646 -0.00047717 0)
(0.434107 -0.000632086 0)
(0.434286 -0.000928144 0)
(0.438432 -0.00111705 0)
(0.43815 -0.000854559 0)
(0.444044 -0.00260937 0)
(1.00933 0.0429138 0)
(1.05528 0.0372603 0)
(1.0587 0.0252905 0)
(1.0364 0.0197515 0)
(1.00715 0.0158012 0)
(0.976138 0.0129222 0)
(0.944662 0.0109423 0)
(0.913862 0.00945662 0)
(0.884589 0.00826295 0)
(0.857228 0.0072922 0)
(0.831858 0.00649956 0)
(0.808412 0.00584488 0)
(0.786769 0.0052967 0)
(0.766783 0.00483212 0)
(0.748306 0.00443431 0)
(0.731197 0.00409052 0)
(0.715324 0.00379091 0)
(0.70057 0.00352771 0)
(0.686829 0.00329476 0)
(0.674006 0.00308712 0)
(0.662018 0.00290074 0)
(0.650793 0.00273229 0)
(0.640266 0.002579 0)
(0.630381 0.00243852 0)
(0.621087 0.00230884 0)
(0.612341 0.00218818 0)
(0.604105 0.002075 0)
(0.596346 0.00196784 0)
(0.589036 0.0018654 0)
(0.582151 0.00176637 0)
(0.575671 0.0016695 0)
(0.569578 0.0015735 0)
(0.563862 0.00147696 0)
(0.558513 0.0013786 0)
(0.553527 0.00127638 0)
(0.548903 0.0011694 0)
(0.544646 0.00105389 0)
(0.540766 0.000930647 0)
(0.537271 0.000791482 0)
(0.534201 0.000642969 0)
(0.531535 0.000465216 0)
(0.529409 0.000283111 0)
(0.527662 4.53814e-05 0)
(0.526735 -0.000170617 0)
(0.525939 -0.000502193 0)
(0.526692 -0.000728368 0)
(0.526634 -0.00112384 0)
(0.529742 -0.00141249 0)
(0.529917 -0.00119026 0)
(0.534449 -0.00251019 0)
(1.00625 0.0400322 0)
(1.05207 0.0363323 0)
(1.0661 0.0252189 0)
(1.05963 0.0205499 0)
(1.04692 0.0172261 0)
(1.03086 0.0146394 0)
(1.012 0.0127984 0)
(0.991367 0.0113685 0)
(0.970022 0.0101673 0)
(0.948699 0.00914727 0)
(0.927841 0.00828306 0)
(0.90771 0.00754682 0)
(0.888452 0.00691411 0)
(0.870134 0.006366 0)
(0.852772 0.0058879 0)
(0.836353 0.00546818 0)
(0.820843 0.00509746 0)
(0.8062 0.00476802 0)
(0.792375 0.00447355 0)
(0.779319 0.00420879 0)
(0.766985 0.00396937 0)
(0.755325 0.00375158 0)
(0.744297 0.00355228 0)
(0.733861 0.00336876 0)
(0.72398 0.00319866 0)
(0.714622 0.00303988 0)
(0.705756 0.00289055 0)
(0.697356 0.00274891 0)
(0.689399 0.00261336 0)
(0.681864 0.00248228 0)
(0.674735 0.00235411 0)
(0.667998 0.00222723 0)
(0.661643 0.00209987 0)
(0.655662 0.00197042 0)
(0.650052 0.00183633 0)
(0.644812 0.00169636 0)
(0.639948 0.00154592 0)
(0.635469 0.00138569 0)
(0.631386 0.00120584 0)
(0.627731 0.00101369 0)
(0.624498 0.000785574 0)
(0.621791 0.000550155 0)
(0.619507 0.000245992 0)
(0.617976 -3.45973e-05 0)
(0.616711 -0.000449575 0)
(0.616748 -0.000762435 0)
(0.616431 -0.00124361 0)
(0.618517 -0.00164902 0)
(0.61888 -0.0014762 0)
(0.622314 -0.00240066 0)
(1.00495 0.037354 0)
(1.04728 0.0352498 0)
(1.06399 0.0246782 0)
(1.06428 0.0205752 0)
(1.06072 0.0177625 0)
(1.0548 0.0154801 0)
(1.04607 0.0138531 0)
(1.03492 0.0125871 0)
(1.02206 0.0114956 0)
(1.00809 0.0105374 0)
(0.993481 0.0096995 0)
(0.978586 0.00896449 0)
(0.963667 0.00831568 0)
(0.948918 0.0077399 0)
(0.934472 0.00722677 0)
(0.920422 0.00676768 0)
(0.906823 0.00635535 0)
(0.893709 0.00598348 0)
(0.881096 0.00564672 0)
(0.868989 0.00534042 0)
(0.857383 0.00506057 0)
(0.84627 0.00480366 0)
(0.835635 0.00456664 0)
(0.825464 0.00434679 0)
(0.815743 0.00414171 0)
(0.806454 0.00394918 0)
(0.797582 0.00376723 0)
(0.789114 0.00359391 0)
(0.781036 0.00342746 0)
(0.773336 0.00326604 0)
(0.766005 0.00310789 0)
(0.759034 0.00295111 0)
(0.752419 0.00279364 0)
(0.746154 0.00263355 0)
(0.740242 0.00246787 0)
(0.734682 0.002295 0)
(0.729484 0.00210967 0)
(0.724656 0.00191223 0)
(0.720214 0.00169168 0)
(0.716181 0.00145533 0)
(0.712569 0.00117723 0)
(0.709451 0.000887081 0)
(0.706776 0.000519163 0)
(0.704773 0.000168366 0)
(0.703136 -0.00032392 0)
(0.702571 -0.000732344 0)
(0.701993 -0.00129081 0)
(0.703229 -0.00181339 0)
(0.703586 -0.0017095 0)
(0.706198 -0.00229623 0)
(1.0044 0.0348058 0)
(1.04324 0.0341761 0)
(1.05995 0.0240364 0)
(1.06231 0.0202804 0)
(1.06253 0.0178251 0)
(1.06185 0.0157597 0)
(1.05931 0.0143056 0)
(1.05479 0.0132042 0)
(1.0486 0.0122541 0)
(1.04108 0.0114069 0)
(1.0325 0.0106521 0)
(1.02311 0.00997653 0)
(1.01315 0.00936747 0)
(1.00282 0.00881543 0)
(0.99227 0.0083134 0)
(0.981639 0.00785566 0)
(0.971026 0.00743727 0)
(0.960511 0.00705384 0)
(0.950153 0.00670145 0)
(0.939999 0.0063766 0)
(0.93008 0.00607612 0)
(0.920419 0.00579717 0)
(0.911033 0.00553715 0)
(0.901933 0.00529368 0)
(0.893125 0.0050646 0)
(0.884613 0.00484784 0)
(0.876398 0.0046415 0)
(0.86848 0.00444367 0)
(0.86086 0.00425255 0)
(0.853535 0.00406624 0)
(0.846507 0.00388285 0)
(0.839774 0.00370033 0)
(0.833339 0.00351642 0)
(0.827203 0.00332892 0)
(0.821373 0.00313454 0)
(0.815853 0.00293134 0)
(0.810656 0.00271351 0)
(0.805791 0.00248095 0)
(0.801278 0.00222189 0)
(0.797139 0.001943 0)
(0.793393 0.00161739 0)
(0.790094 0.00127351 0)
(0.787228 0.000845995 0)
(0.784951 0.000423661 0)
(0.783086 -0.000139948 0)
(0.782103 -0.000645718 0)
(0.781319 -0.00127673 0)
(0.781921 -0.00190809 0)
(0.782207 -0.00189288 0)
(0.784235 -0.00221797 0)
(1.00402 0.0323655 0)
(1.03991 0.0331255 0)
(1.05618 0.0234126 0)
(1.05895 0.0198912 0)
(1.06026 0.0176936 0)
(1.06162 0.0157626 0)
(1.06201 0.0144092 0)
(1.06114 0.0134223 0)
(1.05911 0.0125875 0)
(1.05602 0.0118452 0)
(1.05197 0.0111824 0)
(1.04708 0.0105855 0)
(1.04148 0.0100418 0)
(1.03528 0.00954267 0)
(1.02861 0.00908217 0)
(1.02159 0.00865599 0)
(1.0143 0.00826064 0)
(1.00683 0.00789301 0)
(0.999244 0.00755041 0)
(0.991611 0.00723033 0)
(0.983977 0.0069305 0)
(0.976383 0.00664879 0)
(0.968863 0.0063832 0)
(0.961445 0.00613184 0)
(0.954151 0.00589294 0)
(0.946999 0.00566471 0)
(0.940007 0.00544548 0)
(0.933185 0.00523349 0)
(0.926546 0.00502705 0)
(0.920099 0.0048243 0)
(0.913853 0.00462333 0)
(0.907816 0.00442203 0)
(0.901997 0.00421802 0)
(0.896404 0.00400894 0)
(0.89105 0.00379124 0)
(0.885942 0.00356267 0)
(0.881098 0.00331706 0)
(0.87653 0.00305376 0)
(0.872261 0.00276058 0)
(0.868311 0.00244314 0)
(0.864706 0.00207454 0)
(0.861488 0.00168065 0)
(0.858665 0.00119876 0)
(0.856346 0.000708771 0)
(0.854436 7.97627e-05 0)
(0.853251 -0.000519938 0)
(0.852372 -0.00121955 0)
(0.852564 -0.00194733 0)
(0.852805 -0.00203724 0)
(0.854482 -0.00218441 0)
(1.00364 0.0300249 0)
(1.03693 0.0320774 0)
(1.05283 0.022822 0)
(1.05571 0.019485 0)
(1.05716 0.0175004 0)
(1.05908 0.0156612 0)
(1.06054 0.014355 0)
(1.06125 0.0134307 0)
(1.06128 0.0126691 0)
(1.06065 0.0120005 0)
(1.05938 0.0114091 0)
(1.05747 0.0108802 0)
(1.05497 0.0103995 0)
(1.05192 0.00995733 0)
(1.04838 0.00954729 0)
(1.04442 0.00916504 0)
(1.0401 0.0088073 0)
(1.03548 0.00847139 0)
(1.0306 0.00815507 0)
(1.02553 0.00785637 0)
(1.0203 0.00757351 0)
(1.01496 0.00730486 0)
(1.00955 0.00704885 0)
(1.0041 0.00680398 0)
(0.998629 0.0065688 0)
(0.993173 0.00634184 0)
(0.987751 0.00612163 0)
(0.982383 0.00590663 0)
(0.977087 0.00569525 0)
(0.971878 0.00548573 0)
(0.966774 0.00527621 0)
(0.961787 0.00506459 0)
(0.956933 0.00484839 0)
(0.952223 0.00462516 0)
(0.947675 0.00439116 0)
(0.943302 0.0041439 0)
(0.939122 0.00387694 0)
(0.935151 0.00358908 0)
(0.931413 0.00326792 0)
(0.92793 0.00291786 0)
(0.924728 0.00251261 0)
(0.921845 0.00207454 0)
(0.919296 0.0015454 0)
(0.917167 0.000993802 0)
(0.915408 0.000307536 0)
(0.914235 -0.000378858 0)
(0.913408 -0.00114243 0)
(0.913409 -0.00195297 0)
(0.91368 -0.00216053 0)
(0.915226 -0.00221258 0)
(1.00327 0.027785 0)
(1.0341 0.0310182 0)
(1.04972 0.0222579 0)
(1.05275 0.0190767 0)
(1.05416 0.0172883 0)
(1.05613 0.0155305 0)
(1.05787 0.0142462 0)
(1.0591 0.013352 0)
(1.05994 0.0126307 0)
(1.06042 0.0120051 0)
(1.06053 0.0114581 0)
(1.06025 0.0109749 0)
(1.05958 0.0105403 0)
(1.05853 0.0101432 0)
(1.0571 0.00977645 0)
(1.05532 0.00943493 0)
(1.05321 0.00911496 0)
(1.05081 0.00881361 0)
(1.04813 0.00852854 0)
(1.04523 0.00825778 0)
(1.04211 0.00799963 0)
(1.03882 0.00775257 0)
(1.03539 0.00751519 0)
(1.03183 0.00728615 0)
(1.02817 0.00706416 0)
(1.02444 0.00684789 0)
(1.02066 0.00663602 0)
(1.01685 0.00642711 0)
(1.01303 0.00621966 0)
(1.00921 0.00601199 0)
(1.00542 0.00580224 0)
(1.00166 0.00558832 0)
(0.997966 0.0053677 0)
(0.994342 0.00513783 0)
(0.990807 0.00489484 0)
(0.987378 0.00463601 0)
(0.984074 0.00435469 0)
(0.980912 0.00404918 0)
(0.977916 0.00370704 0)
(0.975108 0.0033313 0)
(0.972513 0.00289677 0)
(0.970166 0.00242179 0)
(0.968085 0.00185375 0)
(0.966338 0.00124841 0)
(0.964905 0.00051447 0)
(0.963933 -0.000248515 0)
(0.963299 -0.00107049 0)
(0.963311 -0.00195037 0)
(0.963705 -0.00228413 0)
(0.965304 -0.00232181 0)
(1.00292 0.025649 0)
(1.03139 0.0299431 0)
(1.04672 0.0217159 0)
(1.04996 0.0186663 0)
(1.05135 0.0170641 0)
(1.05328 0.0153928 0)
(1.05505 0.0141237 0)
(1.0564 0.0132449 0)
(1.05746 0.0125465 0)
(1.05833 0.0119445 0)
(1.059 0.0114217 0)
(1.05946 0.0109644 0)
(1.05969 0.0105576 0)
(1.05969 0.0101896 0)
(1.05946 0.00985244 0)
(1.05898 0.00954061 0)
(1.05828 0.00924989 0)
(1.05735 0.00897696 0)
(1.05621 0.00871914 0)
(1.05487 0.00847422 0)
(1.05334 0.0082403 0)
(1.05164 0.00801574 0)
(1.04978 0.00779906 0)
(1.04778 0.00758886 0)
(1.04566 0.00738383 0)
(1.04344 0.00718263 0)
(1.04112 0.00698394 0)
(1.03873 0.00678633 0)
(1.03629 0.00658828 0)
(1.0338 0.00638811 0)
(1.03128 0.00618392 0)
(1.02875 0.00597359 0)
(1.02623 0.00575449 0)
(1.02372 0.005524 0)
(1.02125 0.00527808 0)
(1.01883 0.00501382 0)
(1.01648 0.00472439 0)
(1.01422 0.00440759 0)
(1.01206 0.00405109 0)
(1.01004 0.00365649 0)
(1.00816 0.00319997 0)
(1.00646 0.00269572 0)
(1.00497 0.00209708 0)
(1.00373 0.00144722 0)
(1.00274 0.000674503 0)
(1.00211 -0.000152949 0)
(1.00177 -0.00102749 0)
(1.00195 -0.00196457 0)
(1.00256 -0.00242928 0)
(1.00434 -0.00252545 0)
(1.0026 0.0236197 0)
(1.0288 0.0288511 0)
(1.0438 0.0211948 0)
(1.04727 0.0182538 0)
(1.04867 0.0168263 0)
(1.05056 0.0152504 0)
(1.05232 0.0139986 0)
(1.05368 0.0131306 0)
(1.05478 0.0124483 0)
(1.05574 0.0118611 0)
(1.05659 0.0113516 0)
(1.05731 0.0109082 0)
(1.0579 0.0105163 0)
(1.05836 0.0101645 0)
(1.05869 0.00984456 0)
(1.05889 0.00955082 0)
(1.05894 0.00927884 0)
(1.05885 0.00902502 0)
(1.05862 0.00878645 0)
(1.05825 0.00856066 0)
(1.05775 0.00834554 0)
(1.05711 0.00813926 0)
(1.05635 0.00794017 0)
(1.05547 0.00774672 0)
(1.05448 0.00755748 0)
(1.0534 0.00737099 0)
(1.05222 0.00718586 0)
(1.05096 0.00700054 0)
(1.04963 0.00681345 0)
(1.04825 0.00662283 0)
(1.04682 0.00642667 0)
(1.04535 0.00622278 0)
(1.04386 0.00600839 0)
(1.04236 0.00578079 0)
(1.04086 0.00553574 0)
(1.03938 0.00527015 0)
(1.03792 0.00497705 0)
(1.03652 0.00465372 0)
(1.03518 0.00428803 0)
(1.03393 0.00388018 0)
(1.03277 0.00340784 0)
(1.03175 0.0028811 0)
(1.03087 0.0022593 0)
(1.03018 0.00157367 0)
(1.02968 0.000770117 0)
(1.02945 -0.000108931 0)
(1.02947 -0.00103094 0)
(1.02992 -0.00201612 0)
(1.03079 -0.00261329 0)
(1.03282 -0.00282701 0)
(1.0023 0.0216988 0)
(1.02634 0.027743 0)
(1.04097 0.020693 0)
(1.04466 0.0178406 0)
(1.04608 0.0165738 0)
(1.04794 0.0151019 0)
(1.0497 0.013872 0)
(1.05105 0.0130138 0)
(1.05215 0.012346 0)
(1.05311 0.0117711 0)
(1.05399 0.0112708 0)
(1.05477 0.0108355 0)
(1.05548 0.0104519 0)
(1.0561 0.0101086 0)
(1.05665 0.00979786 0)
(1.05713 0.00951388 0)
(1.05753 0.00925228 0)
(1.05784 0.00900943 0)
(1.05808 0.00878234 0)
(1.05823 0.00856841 0)
(1.0583 0.00836543 0)
(1.05828 0.00817141 0)
(1.05818 0.00798456 0)
(1.058 0.00780321 0)
(1.05774 0.00762579 0)
(1.05741 0.00745073 0)
(1.05701 0.00727647 0)
(1.05654 0.0071014 0)
(1.05602 0.00692378 0)
(1.05544 0.00674175 0)
(1.05482 0.00655318 0)
(1.05416 0.00635575 0)
(1.05347 0.00614656 0)
(1.05276 0.00592274 0)
(1.05205 0.00567992 0)
(1.05133 0.00541476 0)
(1.05063 0.0051202 0)
(1.04995 0.00479301 0)
(1.04932 0.00442132 0)
(1.04873 0.00400395 0)
(1.04822 0.00352017 0)
(1.0478 0.00297608 0)
(1.04748 0.00233682 0)
(1.0473 0.0016228 0)
(1.04727 0.000794615 0)
(1.04744 -0.000124519 0)
(1.04782 -0.00108996 0)
(1.04857 -0.00211817 0)
(1.04973 -0.00284709 0)
(1.05202 -0.00322717 0)
(1.00203 0.0198872 0)
(1.02402 0.0266217 0)
(1.03823 0.0202073 0)
(1.04214 0.0174286 0)
(1.04358 0.0163064 0)
(1.04541 0.014946 0)
(1.04717 0.0137434 0)
(1.04852 0.0128951 0)
(1.04961 0.0122417 0)
(1.05056 0.0116789 0)
(1.05142 0.0111868 0)
(1.05221 0.0107578 0)
(1.05293 0.0103797 0)
(1.0536 0.0100417 0)
(1.05422 0.00973598 0)
(1.05479 0.00945713 0)
(1.05531 0.00920088 0)
(1.05579 0.00896369 0)
(1.05623 0.00874259 0)
(1.05661 0.008535 0)
(1.05696 0.00833868 0)
(1.05725 0.00815159 0)
(1.0575 0.00797188 0)
(1.05769 0.0077978 0)
(1.05785 0.00762768 0)
(1.05795 0.00745987 0)
(1.05801 0.00729271 0)
(1.05803 0.00712447 0)
(1.05801 0.00695332 0)
(1.05796 0.00677727 0)
(1.05787 0.00659408 0)
(1.05776 0.00640132 0)
(1.05762 0.00619591 0)
(1.05747 0.00597488 0)
(1.05732 0.0057337 0)
(1.05716 0.00546879 0)
(1.05701 0.00517306 0)
(1.05688 0.00484275 0)
(1.05678 0.00446634 0)
(1.05672 0.00404129 0)
(1.05671 0.0035485 0)
(1.05677 0.00299035 0)
(1.0569 0.00233724 0)
(1.05715 0.00160035 0)
(1.0575 0.000751661 0)
(1.05802 -0.000199075 0)
(1.05871 -0.00120492 0)
(1.05973 -0.00227504 0)
(1.06116 -0.00313467 0)
(1.06368 -0.00371767 0)
(1.00179 0.0181851 0)
(1.02184 0.0254913 0)
(1.03559 0.019734 0)
(1.0397 0.0170198 0)
(1.04118 0.016025 0)
(1.04297 0.0147817 0)
(1.04473 0.0136121 0)
(1.04608 0.0127742 0)
(1.04716 0.0121351 0)
(1.0481 0.0115852 0)
(1.04895 0.0111015 0)
(1.04972 0.0106784 0)
(1.05044 0.0103051 0)
(1.0511 0.00997116 0)
(1.05173 0.00966896 0)
(1.05232 0.00939324 0)
(1.05288 0.00913994 0)
(1.0534 0.00890565 0)
(1.05391 0.00868748 0)
(1.05438 0.00848294 0)
(1.05483 0.00828979 0)
(1.05526 0.00810603 0)
(1.05566 0.00792978 0)
(1.05604 0.00775928 0)
(1.05639 0.00759282 0)
(1.05671 0.00742868 0)
(1.05702 0.00726517 0)
(1.0573 0.00710046 0)
(1.05756 0.00693265 0)
(1.0578 0.00675967 0)
(1.05802 0.00657916 0)
(1.05824 0.0063886 0)
(1.05844 0.00618479 0)
(1.05864 0.00596464 0)
(1.05884 0.00572348 0)
(1.05904 0.00545754 0)
(1.05926 0.00515972 0)
(1.05949 0.00482573 0)
(1.05975 0.00444448 0)
(1.06005 0.00401213 0)
(1.06039 0.00351118 0)
(1.06079 0.00294065 0)
(1.06125 0.00227547 0)
(1.0618 0.0015193 0)
(1.06244 0.000652323 0)
(1.06322 -0.00032491 0)
(1.06415 -0.00136922 0)
(1.0654 -0.00248341 0)
(1.06704 -0.00347312 0)
(1.06974 -0.00428271 0)
(1.00157 0.0165921 0)
(1.01979 0.0243556 0)
(1.03306 0.019269 0)
(1.03735 0.0166158 0)
(1.03886 0.0157308 0)
(1.04062 0.0146083 0)
(1.04237 0.013478 0)
(1.04373 0.0126509 0)
(1.0448 0.0120261 0)
(1.04572 0.0114896 0)
(1.04656 0.0110149 0)
(1.04733 0.0105979 0)
(1.04803 0.0102294 0)
(1.04869 0.00989934 0)
(1.0493 0.00960022 0)
(1.04988 0.00932698 0)
(1.05044 0.00907573 0)
(1.05098 0.00884319 0)
(1.05149 0.00862659 0)
(1.05199 0.00842349 0)
(1.05248 0.00823172 0)
(1.05294 0.0080493 0)
(1.0534 0.00787439 0)
(1.05384 0.00770521 0)
(1.05427 0.00754005 0)
(1.05469 0.00737719 0)
(1.0551 0.00721486 0)
(1.05551 0.00705124 0)
(1.0559 0.00688433 0)
(1.05629 0.00671203 0)
(1.05667 0.00653188 0)
(1.05706 0.0063413 0)
(1.05744 0.00613699 0)
(1.05783 0.00591574 0)
(1.05823 0.00567283 0)
(1.05864 0.00540425 0)
(1.05907 0.00510296 0)
(1.05952 0.0047642 0)
(1.06 0.0043773 0)
(1.06051 0.00393723 0)
(1.06107 0.00342796 0)
(1.06168 0.00284563 0)
(1.06235 0.00216887 0)
(1.0631 0.00139543 0)
(1.06392 0.000510888 0)
(1.06488 -0.000490367 0)
(1.06597 -0.00157236 0)
(1.06736 -0.00273494 0)
(1.06915 -0.00385452 0)
(1.07196 -0.004904 0)
(1.00137 0.0151074 0)
(1.01788 0.0232187 0)
(1.03063 0.0188084 0)
(1.03508 0.0162181 0)
(1.03665 0.0154253 0)
(1.03837 0.0144253 0)
(1.0401 0.0133406 0)
(1.04147 0.0125254 0)
(1.04253 0.0119146 0)
(1.04344 0.0113921 0)
(1.04427 0.010927 0)
(1.04502 0.0105164 0)
(1.04572 0.0101529 0)
(1.04636 0.00982668 0)
(1.04696 0.00953062 0)
(1.04753 0.00925975 0)
(1.04808 0.00901031 0)
(1.04861 0.00877917 0)
(1.04912 0.00856364 0)
(1.04962 0.00836135 0)
(1.0501 0.0081702 0)
(1.05058 0.00798823 0)
(1.05105 0.00781363 0)
(1.05151 0.00764464 0)
(1.05196 0.00747954 0)
(1.05241 0.00731659 0)
(1.05286 0.00715403 0)
(1.05331 0.00698998 0)
(1.05376 0.00682244 0)
(1.05421 0.00664923 0)
(1.05466 0.00646784 0)
(1.05512 0.00627564 0)
(1.05558 0.00606927 0)
(1.05606 0.00584539 0)
(1.05656 0.00559927 0)
(1.05707 0.00532667 0)
(1.0576 0.00502067 0)
(1.05816 0.00467603 0)
(1.05876 0.00428252 0)
(1.05939 0.00383407 0)
(1.06006 0.00331594 0)
(1.06079 0.00272184 0)
(1.06157 0.00203327 0)
(1.06242 0.00124356 0)
(1.06335 0.000341266 0)
(1.0644 -0.000683353 0)
(1.06559 -0.00180328 0)
(1.06707 -0.00301944 0)
(1.06895 -0.00426882 0)
(1.07179 -0.00556304 0)
(1.0012 0.0137294 0)
(1.01611 0.0220845 0)
(1.02831 0.0183484 0)
(1.03291 0.0158278 0)
(1.03452 0.0151101 0)
(1.0362 0.0142319 0)
(1.03792 0.0131995 0)
(1.03929 0.0123977 0)
(1.04035 0.0118006 0)
(1.04126 0.0112925 0)
(1.04207 0.0108375 0)
(1.04281 0.0104337 0)
(1.04349 0.0100753 0)
(1.04413 0.00975318 0)
(1.04472 0.0094603 0)
(1.04528 0.00919183 0)
(1.04582 0.0089442 0)
(1.04633 0.00871439 0)
(1.04683 0.00849981 0)
(1.04732 0.00829815 0)
(1.0478 0.00810736 0)
(1.04827 0.00792551 0)
(1.04873 0.00775081 0)
(1.04919 0.00758152 0)
(1.04965 0.00741591 0)
(1.0501 0.00725225 0)
(1.05056 0.00708875 0)
(1.05102 0.00692351 0)
(1.05148 0.00675449 0)
(1.05194 0.00657949 0)
(1.05242 0.00639595 0)
(1.0529 0.00620118 0)
(1.0534 0.00599176 0)
(1.05391 0.00576428 0)
(1.05444 0.00551397 0)
(1.055 0.00523641 0)
(1.05557 0.00492479 0)
(1.05618 0.00457345 0)
(1.05682 0.00417259 0)
(1.0575 0.0037152 0)
(1.05823 0.00318763 0)
(1.059 0.00258163 0)
(1.05983 0.00188083 0)
(1.06073 0.00107523 0)
(1.0617 0.000154722 0)
(1.0628 -0.000893514 0)
(1.06402 -0.00205228 0)
(1.06554 -0.00332733 0)
(1.06745 -0.00470577 0)
(1.07027 -0.0062428 0)
(1.00104 0.0124557 0)
(1.01447 0.0209575 0)
(1.0261 0.0178857 0)
(1.03082 0.0154459 0)
(1.03249 0.0147873 0)
(1.03413 0.0140279 0)
(1.03583 0.0130542 0)
(1.03721 0.0122678 0)
(1.03826 0.011684 0)
(1.03916 0.0111906 0)
(1.03996 0.0107465 0)
(1.0407 0.0103498 0)
(1.04137 0.00999667 0)
(1.04199 0.00967878 0)
(1.04257 0.00938918 0)
(1.04312 0.00912322 0)
(1.04365 0.00887745 0)
(1.04415 0.00864901 0)
(1.04464 0.00843538 0)
(1.04512 0.00823432 0)
(1.04559 0.00804382 0)
(1.04605 0.007862 0)
(1.0465 0.00768707 0)
(1.04696 0.0075173 0)
(1.04741 0.00735098 0)
(1.04785 0.00718634 0)
(1.0483 0.00702159 0)
(1.04876 0.00685482 0)
(1.04922 0.00668394 0)
(1.04968 0.00650673 0)
(1.05016 0.00632058 0)
(1.05065 0.00612274 0)
(1.05115 0.00590977 0)
(1.05167 0.00567813 0)
(1.0522 0.0054231 0)
(1.05277 0.00514004 0)
(1.05336 0.00482228 0)
(1.05397 0.00446376 0)
(1.05463 0.00405507 0)
(1.05532 0.0035884 0)
(1.05606 0.00305101 0)
(1.05684 0.00243305 0)
(1.05768 0.00171967 0)
(1.05859 0.000898266 0)
(1.05957 -4.08574e-05 0)
(1.06066 -0.00111345 0)
(1.0619 -0.00231208 0)
(1.06341 -0.00365052 0)
(1.06531 -0.00515607 0)
(1.06806 -0.00692832 0)
(1.0009 0.0112835 0)
(1.01296 0.019842 0)
(1.024 0.0174172 0)
(1.02881 0.0150726 0)
(1.03056 0.0144588 0)
(1.03215 0.013813 0)
(1.03383 0.012904 0)
(1.03521 0.0121357 0)
(1.03627 0.0115648 0)
(1.03715 0.0110863 0)
(1.03795 0.0106537 0)
(1.03867 0.0102646 0)
(1.03933 0.00991692 0)
(1.03994 0.00960338 0)
(1.04051 0.00931721 0)
(1.04105 0.00905385 0)
(1.04157 0.00881002 0)
(1.04207 0.008583 0)
(1.04255 0.00837035 0)
(1.04302 0.00816991 0)
(1.04347 0.00797971 0)
(1.04393 0.0077979 0)
(1.04437 0.00762271 0)
(1.04481 0.00745242 0)
(1.04525 0.0072853 0)
(1.04569 0.0071196 0)
(1.04614 0.0069535 0)
(1.04658 0.00678505 0)
(1.04703 0.00661216 0)
(1.04749 0.00643255 0)
(1.04796 0.00624359 0)
(1.04844 0.00604245 0)
(1.04894 0.00582569 0)
(1.04945 0.00558966 0)
(1.04998 0.00532964 0)
(1.05054 0.00504084 0)
(1.05113 0.00471668 0)
(1.05174 0.00435077 0)
(1.05239 0.00393402 0)
(1.05307 0.00345797 0)
(1.0538 0.00291055 0)
(1.05458 0.0022807 0)
(1.05541 0.00155452 0)
(1.0563 0.000717482 0)
(1.05727 -0.000240672 0)
(1.05835 -0.00133851 0)
(1.05956 -0.00257775 0)
(1.06105 -0.00398274 0)
(1.06291 -0.00561185 0)
(1.06554 -0.00760674 0)
(1.00078 0.0102093 0)
(1.01158 0.0187424 0)
(1.02201 0.0169401 0)
(1.02689 0.0147082 0)
(1.02871 0.0141268 0)
(1.03027 0.0135872 0)
(1.03192 0.0127483 0)
(1.0333 0.0120013 0)
(1.03436 0.011443 0)
(1.03524 0.0109795 0)
(1.03602 0.010559 0)
(1.03674 0.0101779 0)
(1.03739 0.00983593 0)
(1.03799 0.0095269 0)
(1.03855 0.00924429 0)
(1.03908 0.00898364 0)
(1.03959 0.00874184 0)
(1.04008 0.00851628 0)
(1.04055 0.00830466 0)
(1.04101 0.00810488 0)
(1.04146 0.007915 0)
(1.0419 0.00773321 0)
(1.04234 0.00755776 0)
(1.04277 0.00738693 0)
(1.0432 0.00721901 0)
(1.04363 0.00705222 0)
(1.04406 0.00688472 0)
(1.0445 0.00671455 0)
(1.04494 0.00653959 0)
(1.04539 0.0063575 0)
(1.04585 0.00616564 0)
(1.04632 0.00596113 0)
(1.04681 0.00574048 0)
(1.04731 0.00549995 0)
(1.04784 0.00523485 0)
(1.04839 0.00494021 0)
(1.04896 0.00460957 0)
(1.04956 0.00423623 0)
(1.0502 0.00381137 0)
(1.05087 0.003326 0)
(1.05158 0.00276855 0)
(1.05234 0.00212697 0)
(1.05315 0.00138797 0)
(1.05402 0.000535474 0)
(1.05496 -0.000441933 0)
(1.05601 -0.00156566 0)
(1.05719 -0.00284579 0)
(1.05864 -0.00431894 0)
(1.06043 -0.00606633 0)
(1.06291 -0.00826704 0)
(1.00067 0.00922903 0)
(1.01032 0.0176632 0)
(1.02014 0.0164523 0)
(1.02506 0.0143523 0)
(1.02695 0.0137933 0)
(1.02848 0.0133508 0)
(1.0301 0.0125866 0)
(1.03147 0.0118644 0)
(1.03254 0.0113188 0)
(1.03341 0.0108701 0)
(1.03419 0.0104622 0)
(1.03489 0.0100896 0)
(1.03554 0.00975363 0)
(1.03613 0.00944926 0)
(1.03668 0.00917034 0)
(1.03721 0.00891252 0)
(1.03771 0.00867282 0)
(1.03818 0.00844881 0)
(1.03865 0.00823826 0)
(1.0391 0.00803917 0)
(1.03954 0.00784963 0)
(1.03997 0.00766788 0)
(1.0404 0.00749218 0)
(1.04082 0.00732083 0)
(1.04124 0.0071521 0)
(1.04167 0.00698421 0)
(1.04209 0.0068153 0)
(1.04252 0.00664339 0)
(1.04295 0.00646632 0)
(1.04339 0.00628174 0)
(1.04384 0.00608696 0)
(1.0443 0.00587903 0)
(1.04478 0.00565446 0)
(1.04527 0.00540942 0)
(1.04579 0.00513921 0)
(1.04632 0.00483874 0)
(1.04688 0.00450162 0)
(1.04747 0.00412091 0)
(1.04809 0.003688 0)
(1.04874 0.00319346 0)
(1.04944 0.00262608 0)
(1.05017 0.00197308 0)
(1.05095 0.00122134 0)
(1.0518 0.000353573 0)
(1.05271 -0.000642891 0)
(1.05372 -0.00179285 0)
(1.05486 -0.00311364 0)
(1.05625 -0.00465472 0)
(1.05796 -0.0065133 0)
(1.06026 -0.00889954 0)
(1.00058 0.00833802 0)
(1.00917 0.0166087 0)
(1.01838 0.015952 0)
(1.02331 0.0140044 0)
(1.02528 0.0134602 0)
(1.02678 0.0131043 0)
(1.02836 0.0124181 0)
(1.02974 0.0117249 0)
(1.0308 0.0111921 0)
(1.03167 0.010758 0)
(1.03244 0.0103632 0)
(1.03314 0.00999968 0)
(1.03377 0.00966991 0)
(1.03436 0.00937036 0)
(1.03491 0.00909527 0)
(1.03542 0.00884039 0)
(1.03591 0.00860289 0)
(1.03638 0.00838048 0)
(1.03684 0.00817107 0)
(1.03728 0.0079727 0)
(1.03771 0.00778355 0)
(1.03814 0.00760186 0)
(1.03855 0.00742593 0)
(1.03897 0.00725405 0)
(1.03938 0.00708451 0)
(1.0398 0.00691552 0)
(1.04021 0.0067452 0)
(1.04063 0.00657155 0)
(1.04106 0.00639237 0)
(1.04149 0.00620529 0)
(1.04193 0.00600757 0)
(1.04238 0.00579623 0)
(1.04285 0.00556773 0)
(1.04333 0.00531819 0)
(1.04383 0.0050429 0)
(1.04435 0.00473665 0)
(1.0449 0.0043931 0)
(1.04547 0.00400515 0)
(1.04607 0.00356431 0)
(1.04671 0.00306083 0)
(1.04738 0.00248375 0)
(1.04809 0.00181963 0)
(1.04885 0.00105561 0)
(1.04966 0.000172582 0)
(1.05054 -0.000842667 0)
(1.05151 -0.00201865 0)
(1.0526 -0.00337912 0)
(1.05392 -0.0049861 0)
(1.05552 -0.00694704 0)
(1.05764 -0.00949577 0)
(1.0005 0.00753127 0)
(1.00814 0.0155831 0)
(1.01674 0.0154382 0)
(1.02164 0.0136634 0)
(1.02369 0.0131293 0)
(1.02517 0.0128486 0)
(1.02671 0.0122423 0)
(1.02808 0.0115824 0)
(1.02915 0.0110629 0)