/*--------------------------------*- C++ -*----------------------------------*\
  =========                 |
  \\      /  F ield         | OpenFOAM: The Open Source CFD Toolbox
   \\    /   O peration     | Website:  https://openfoam.org
    \\  /    A nd           | Version:  7
     \\/     M anipulation  |
\*---------------------------------------------------------------------------*/
FoamFile
{
    version     2.0;
    format      ascii;
    class       volVectorField;
    location    "0.38";
    object      U_0;
}
// * * * * * * * * * * * * * * * * * * * * * * * * * * * * * * * * * * * * * //

dimensions      [0 1 -1 0 0 0 0];

internalField   nonuniform List<vector> 
70000
(
(0.553392 0.0167229 0)
(0.251269 0.00340086 0)
(0.166219 0.00032184 0)
(0.132482 5.41309e-05 0)
(0.117303 4.55658e-05 0)
(0.107393 5.37312e-05 0)
(0.0994611 4.60863e-05 0)
(0.0930397 3.67323e-05 0)
(0.0878158 3.04021e-05 0)
(0.0834691 2.60586e-05 0)
(0.079771 2.27423e-05 0)
(0.0765735 2.00814e-05 0)
(0.0737751 1.79051e-05 0)
(0.0713018 1.61003e-05 0)
(0.0690975 1.45818e-05 0)
(0.067119 1.32873e-05 0)
(0.0653323 1.21707e-05 0)
(0.0637102 1.11945e-05 0)
(0.0622311 1.03338e-05 0)
(0.0608771 9.56449e-06 0)
(0.0596337 8.87116e-06 0)
(0.0584887 8.23816e-06 0)
(0.0574323 7.65414e-06 0)
(0.0564561 7.1081e-06 0)
(0.055553 6.59207e-06 0)
(0.0547174 6.0955e-06 0)
(0.0539446 5.6136e-06 0)
(0.0532307 5.13664e-06 0)
(0.0525728 4.65826e-06 0)
(0.0519684 4.17301e-06 0)
(0.0514163 3.66823e-06 0)
(0.0509153 3.14422e-06 0)
(0.0504656 2.58088e-06 0)
(0.0500673 1.98424e-06 0)
(0.0497223 1.32259e-06 0)
(0.049432 6.14256e-07 0)
(0.0491997 -1.90463e-07 0)
(0.0490298 -1.06253e-06 0)
(0.0489243 -2.06434e-06 0)
(0.0488955 -3.0952e-06 0)
(0.0489354 -4.29964e-06 0)
(0.0490812 -5.63225e-06 0)
(0.0492803 -6.18903e-06 0)
(0.049657 -8.67131e-06 0)
(0.0499851 -6.25565e-06 0)
(0.0507104 -1.30019e-05 0)
(0.0509444 2.27141e-06 0)
(0.052306 -1.98677e-05 0)
(0.0516868 6.13473e-05 0)
(0.0503866 -0.00193063 0)
(0.8849 0.0431669 0)
(0.649728 0.0201932 0)
(0.494351 0.0065973 0)
(0.403718 0.00276642 0)
(0.354819 0.00155061 0)
(0.323549 0.00112995 0)
(0.29973 0.000908499 0)
(0.280579 0.000744361 0)
(0.264916 0.000621302 0)
(0.25185 0.000530367 0)
(0.240727 0.000461309 0)
(0.231108 0.000406939 0)
(0.222684 0.00036297 0)
(0.215234 0.000326732 0)
(0.208589 0.000296406 0)
(0.202619 0.000270685 0)
(0.197223 0.000248612 0)
(0.192319 0.000229457 0)
(0.187842 0.000212668 0)
(0.183738 0.00019781 0)
(0.179963 0.00018454 0)
(0.176482 0.000172577 0)
(0.173262 0.000161693 0)
(0.17028 0.000151695 0)
(0.167514 0.000142419 0)
(0.164945 0.000133717 0)
(0.162559 0.000125462 0)
(0.160344 0.000117532 0)
(0.15829 0.000109811 0)
(0.156389 0.000102191 0)
(0.154635 9.45466e-05 0)
(0.153024 8.67741e-05 0)
(0.151555 7.87161e-05 0)
(0.150227 7.02848e-05 0)
(0.149042 6.12388e-05 0)
(0.148004 5.15511e-05 0)
(0.147119 4.0795e-05 0)
(0.146399 2.91321e-05 0)
(0.145848 1.57651e-05 0)
(0.145498 1.48757e-06 0)
(0.145329 -1.53978e-05 0)
(0.145442 -3.39915e-05 0)
(0.145701 -5.55914e-05 0)
(0.146443 -7.83443e-05 0)
(0.14709 -0.000101857 0)
(0.148821 -0.000129312 0)
(0.149396 -0.000136017 0)
(0.152976 -0.00018745 0)
(0.151978 0.000129496 0)
(0.154813 -0.00293475 0)
(0.991238 0.0499006 0)
(0.890359 0.0307172 0)
(0.762716 0.0145956 0)
(0.656734 0.00797702 0)
(0.585445 0.00488159 0)
(0.536086 0.0034671 0)
(0.498274 0.00273086 0)
(0.467718 0.00223789 0)
(0.442474 0.00187419 0)
(0.421239 0.00160211 0)
(0.403068 0.00139424 0)
(0.38729 0.00123059 0)
(0.37343 0.00109836 0)
(0.361138 0.00098943 0)
(0.350148 0.000898279 0)
(0.340254 0.000820989 0)
(0.331293 0.000754683 0)
(0.323135 0.000697183 0)
(0.315674 0.000646831 0)
(0.308824 0.000602328 0)
(0.302512 0.000562647 0)
(0.29668 0.000526956 0)
(0.291278 0.000494575 0)
(0.286263 0.000464932 0)
(0.2816 0.00043755 0)
(0.277259 0.000411995 0)
(0.273216 0.000387905 0)
(0.269448 0.000364925 0)
(0.26594 0.000342737 0)
(0.262677 0.000321027 0)
(0.259648 0.00029947 0)
(0.256844 0.000277756 0)
(0.254262 0.000255494 0)
(0.251897 0.000232396 0)
(0.249753 0.000207872 0)
(0.247832 0.000181765 0)
(0.246141 0.000152995 0)
(0.244694 0.000121912 0)
(0.243496 8.63238e-05 0)
(0.242594 4.81048e-05 0)
(0.241954 2.59252e-06 0)
(0.241724 -4.59304e-05 0)
(0.241711 -0.000107719 0)
(0.242396 -0.00016614 0)
(0.242965 -0.000245513 0)
(0.245098 -0.000306845 0)
(0.245697 -0.000384916 0)
(0.250465 -0.000473806 0)
(0.249363 -0.000117065 0)
(0.255832 -0.00293041 0)
(1.0156 0.0489193 0)
(1.00597 0.0358726 0)
(0.935977 0.0207884 0)
(0.852175 0.0135001 0)
(0.782273 0.00920231 0)
(0.727124 0.00677419 0)
(0.682105 0.00537491 0)
(0.644422 0.00443438 0)
(0.612489 0.0037395 0)
(0.585113 0.00321272 0)
(0.561358 0.0028056 0)
(0.540515 0.00248295 0)
(0.522054 0.00222116 0)
(0.505571 0.00200478 0)
(0.490751 0.00182323 0)
(0.477346 0.00166894 0)
(0.465154 0.00153634 0)
(0.454015 0.00142121 0)
(0.443794 0.0013203 0)
(0.434382 0.00123107 0)
(0.425686 0.0011515 0)
(0.417629 0.00107997 0)
(0.410147 0.00101514 0)
(0.403183 0.00095588 0)
(0.396692 0.000901257 0)
(0.390632 0.000850433 0)
(0.384972 0.000802695 0)
(0.37968 0.000757365 0)
(0.374735 0.000713836 0)
(0.370115 0.000671506 0)
(0.365806 0.000629777 0)
(0.361794 0.000588054 0)
(0.358072 0.000545641 0)
(0.354633 0.000501967 0)
(0.351478 0.000455993 0)
(0.348607 0.000407367 0)
(0.346027 0.000354154 0)
(0.343753 0.000296912 0)
(0.341788 0.000231507 0)
(0.340184 0.000161409 0)
(0.338905 7.69453e-05 0)
(0.338114 -9.49877e-06 0)
(0.337597 -0.000124682 0)
(0.337898 -0.000228554 0)
(0.338109 -0.000385764 0)
(0.340099 -0.000488369 0)
(0.340522 -0.000674389 0)
(0.345388 -0.00080115 0)
(0.344577 -0.000489949 0)
(0.351657 -0.00274569 0)
(1.01434 0.0460025 0)
(1.04754 0.0374856 0)
(1.0246 0.0241473 0)
(0.974797 0.0175533 0)
(0.923515 0.0131144 0)
(0.876788 0.0101955 0)
(0.834687 0.00832929 0)
(0.797017 0.00700573 0)
(0.763546 0.00599373 0)
(0.733834 0.00520433 0)
(0.707367 0.00458066 0)
(0.683673 0.0040785 0)
(0.66235 0.00366633 0)
(0.643065 0.00332255 0)
(0.625541 0.00303201 0)
(0.609548 0.00278361 0)
(0.594892 0.00256908 0)
(0.581413 0.00238205 0)
(0.568974 0.00221758 0)
(0.557461 0.00207177 0)
(0.546775 0.00194148 0)
(0.536833 0.00182418 0)
(0.527563 0.00171777 0)
(0.518905 0.00162047 0)
(0.510805 0.00153082 0)
(0.503219 0.00144749 0)
(0.496107 0.00136936 0)
(0.489436 0.00129535 0)
(0.483178 0.00122451 0)
(0.477309 0.00115591 0)
(0.47181 0.00108862 0)
(0.466664 0.00102171 0)
(0.461862 0.000954123 0)
(0.457395 0.00088496 0)
(0.45326 0.00081268 0)
(0.449457 0.000736679 0)
(0.445991 0.000654091 0)
(0.442875 0.000565646 0)
(0.440113 0.000465114 0)
(0.437755 0.000357672 0)
(0.435768 0.000228225 0)
(0.434311 9.63537e-05 0)
(0.433181 -7.81878e-05 0)
(0.432903 -0.000235784 0)
(0.432624 -0.000480726 0)
(0.434091 -0.00063781 0)
(0.434285 -0.000936904 0)
(0.438453 -0.0011301 0)
(0.438202 -0.000873939 0)
(0.444149 -0.00263753 0)
(1.00933 0.0429138 0)
(1.05528 0.0372603 0)
(1.0587 0.0252906 0)
(1.0364 0.0197515 0)
(1.00715 0.0158012 0)
(0.976138 0.0129222 0)
(0.944662 0.0109423 0)
(0.913861 0.00945663 0)
(0.884588 0.00826296 0)
(0.857228 0.00729223 0)
(0.831857 0.0064996 0)
(0.808411 0.00584493 0)
(0.786768 0.00529677 0)
(0.766782 0.0048322 0)
(0.748304 0.0044344 0)
(0.731195 0.00409063 0)
(0.715322 0.00379103 0)
(0.700568 0.00352785 0)
(0.686826 0.00329492 0)
(0.674002 0.00308729 0)
(0.662014 0.00290093 0)
(0.650789 0.0027325 0)
(0.640261 0.00257923 0)
(0.630374 0.00243877 0)
(0.621079 0.00230911 0)
(0.612333 0.00218847 0)
(0.604096 0.00207532 0)
(0.596336 0.00196819 0)
(0.589025 0.00186578 0)
(0.582139 0.00176678 0)
(0.575657 0.00166995 0)
(0.569563 0.00157399 0)
(0.563845 0.00147748 0)
(0.558494 0.00137916 0)
(0.553507 0.00127696 0)
(0.548881 0.00116999 0)
(0.544622 0.00105446 0)
(0.54074 0.000931163 0)
(0.537243 0.000791891 0)
(0.534171 0.000643178 0)
(0.531504 0.000465117 0)
(0.529377 0.000282478 0)
(0.52763 4.40059e-05 0)
(0.526705 -0.000173239 0)
(0.525913 -0.000506456 0)
(0.526674 -0.00073533 0)
(0.526628 -0.00113471 0)
(0.529757 -0.00142882 0)
(0.529963 -0.00121476 0)
(0.534545 -0.00254603 0)
(1.00625 0.0400322 0)
(1.05207 0.0363324 0)
(1.0661 0.0252189 0)
(1.05963 0.02055 0)
(1.04692 0.0172262 0)
(1.03086 0.0146395 0)
(1.012 0.0127984 0)
(0.991366 0.0113686 0)
(0.970021 0.0101673 0)
(0.948698 0.0091473 0)
(0.92784 0.0082831 0)
(0.907709 0.00754688 0)
(0.888451 0.00691418 0)
(0.870133 0.0063661 0)
(0.852771 0.00588802 0)
(0.836352 0.00546832 0)
(0.820842 0.00509761 0)
(0.806198 0.0047682 0)
(0.792372 0.00447375 0)
(0.779316 0.00420901 0)
(0.766981 0.00396961 0)
(0.75532 0.00375185 0)
(0.744292 0.00355257 0)
(0.733855 0.00336908 0)
(0.723973 0.00319901 0)
(0.714614 0.00304026 0)
(0.705747 0.00289097 0)
(0.697346 0.00274937 0)
(0.689388 0.00261386 0)
(0.681852 0.00248283 0)
(0.674722 0.0023547 0)
(0.667983 0.00222788 0)
(0.661627 0.00210057 0)
(0.655643 0.00197116 0)
(0.650032 0.0018371 0)
(0.64479 0.00169716 0)
(0.639924 0.00154671 0)
(0.635443 0.00138643 0)
(0.631358 0.00120646 0)
(0.627701 0.00101408 0)
(0.624467 0.000785616 0)
(0.621759 0.000549573 0)
(0.619475 0.00024455 0)
(0.617945 -3.75209e-05 0)
(0.616685 -0.000454518 0)
(0.616729 -0.000770592 0)
(0.616424 -0.00125652 0)
(0.618528 -0.00166861 0)
(0.618922 -0.00150568 0)
(0.622403 -0.00244425 0)
(1.00495 0.037354 0)
(1.04728 0.0352498 0)
(1.06399 0.0246782 0)
(1.06428 0.0205752 0)
(1.06072 0.0177625 0)
(1.0548 0.0154802 0)
(1.04607 0.0138531 0)
(1.03492 0.0125871 0)
(1.02205 0.0114956 0)
(1.00809 0.0105375 0)
(0.993481 0.00969955 0)
(0.978585 0.00896455 0)
(0.963666 0.00831576 0)
(0.948916 0.00774001 0)
(0.934471 0.00722691 0)
(0.92042 0.00676784 0)
(0.906821 0.00635553 0)
(0.893707 0.0059837 0)
(0.881094 0.00564696 0)
(0.868986 0.00534069 0)
(0.85738 0.00506087 0)
(0.846266 0.00480399 0)
(0.83563 0.004567 0)
(0.825459 0.00434719 0)
(0.815736 0.00414214 0)
(0.806447 0.00394966 0)
(0.797574 0.00376775 0)
(0.789105 0.00359448 0)
(0.781026 0.00342808 0)
(0.773325 0.00326673 0)
(0.765993 0.00310863 0)
(0.75902 0.00295192 0)
(0.752403 0.00279451 0)
(0.746137 0.00263448 0)
(0.740223 0.00246885 0)
(0.734661 0.00229601 0)
(0.729461 0.00211068 0)
(0.724631 0.0019132 0)
(0.720187 0.00169252 0)
(0.716153 0.00145592 0)
(0.71254 0.00117742 0)
(0.709421 0.000886557 0)
(0.706745 0.000517635 0)
(0.704744 0.000165144 0)
(0.70311 -0.000329523 0)
(0.702552 -0.000741675 0)
(0.701985 -0.00130569 0)
(0.70324 -0.00183615 0)
(0.703626 -0.00174392 0)
(0.706282 -0.00234759 0)
(1.0044 0.0348058 0)
(1.04324 0.0341761 0)
(1.05995 0.0240365 0)
(1.06231 0.0202804 0)
(1.06253 0.0178252 0)
(1.06185 0.0157598 0)
(1.05931 0.0143056 0)
(1.05478 0.0132042 0)
(1.0486 0.0122541 0)
(1.04108 0.0114069 0)
(1.0325 0.0106521 0)
(1.02311 0.0099766 0)
(1.01315 0.00936756 0)
(1.00282 0.00881555 0)
(0.992269 0.00831355 0)
(0.981637 0.00785584 0)
(0.971024 0.00743748 0)
(0.960509 0.00705408 0)
(0.950152 0.00670173 0)
(0.939996 0.00637691 0)
(0.930077 0.00607647 0)
(0.920416 0.00579756 0)
(0.911029 0.00553757 0)
(0.901929 0.00529415 0)
(0.89312 0.00506512 0)
(0.884607 0.00484841 0)
(0.876391 0.00464213 0)
(0.868472 0.00444435 0)
(0.86085 0.0042533 0)
(0.853525 0.00406705 0)
(0.846495 0.00388374 0)
(0.839761 0.0037013 0)
(0.833325 0.00351746 0)
(0.827187 0.00333004 0)
(0.821356 0.00313572 0)
(0.815834 0.00293256 0)
(0.810635 0.00271474 0)
(0.805768 0.00248214 0)
(0.801254 0.00222294 0)
(0.797113 0.00194378 0)
(0.793366 0.00161771 0)
(0.790066 0.00127304 0)
(0.7872 0.00084438 0)
(0.784924 0.000420117 0)
(0.783063 -0.000146198 0)
(0.782087 -0.000656194 0)
(0.781313 -0.0012935 0)
(0.781932 -0.00193389 0)
(0.782245 -0.00193212 0)
(0.784315 -0.00227696 0)
(1.00402 0.0323655 0)
(1.03991 0.0331255 0)
(1.05618 0.0234126 0)
(1.05895 0.0198913 0)
(1.06026 0.0176937 0)
(1.06162 0.0157627 0)
(1.06201 0.0144093 0)
(1.06114 0.0134223 0)
(1.05911 0.0125875 0)
(1.05602 0.0118453 0)
(1.05197 0.0111825 0)
(1.04708 0.0105856 0)
(1.04148 0.0100419 0)
(1.03528 0.00954279 0)
(1.02861 0.00908232 0)
(1.02159 0.00865618 0)
(1.0143 0.00826086 0)
(1.00682 0.00789328 0)
(0.999242 0.00755072 0)
(0.991609 0.00723068 0)
(0.983975 0.00693089 0)
(0.976381 0.00664923 0)
(0.96886 0.00638369 0)
(0.961441 0.00613238 0)
(0.954146 0.00589353 0)
(0.946994 0.00566536 0)
(0.940001 0.0054462 0)
(0.933178 0.00523428 0)
(0.926538 0.00502792 0)
(0.92009 0.00482524 0)
(0.913843 0.00462435 0)
(0.907805 0.00442315 0)
(0.901985 0.00421923 0)
(0.896391 0.00401024 0)
(0.891034 0.00379261 0)
(0.885925 0.00356409 0)
(0.88108 0.0033185 0)
(0.87651 0.00305515 0)
(0.87224 0.00276182 0)
(0.868289 0.00244409 0)
(0.864682 0.00207499 0)
(0.861464 0.00168022 0)
(0.85864 0.00119704 0)
(0.856323 0.000704921 0)
(0.854417 7.2858e-05 0)
(0.853237 -0.000531527 0)
(0.852368 -0.00123815 0)
(0.852576 -0.00197602 0)
(0.852841 -0.00208104 0)
(0.854556 -0.00225063 0)
(1.00364 0.0300249 0)
(1.03693 0.0320774 0)
(1.05283 0.0228221 0)
(1.05571 0.0194851 0)
(1.05716 0.0175004 0)
(1.05908 0.0156612 0)
(1.06054 0.0143551 0)
(1.06125 0.0134308 0)
(1.06128 0.0126691 0)
(1.06065 0.0120006 0)
(1.05938 0.0114092 0)
(1.05747 0.0108803 0)
(1.05497 0.0103996 0)
(1.05192 0.00995745 0)
(1.04838 0.00954744 0)
(1.04442 0.00916523 0)
(1.0401 0.00880754 0)
(1.03547 0.00847167 0)
(1.0306 0.0081554 0)
(1.02552 0.00785675 0)
(1.0203 0.00757394 0)
(1.01496 0.00730534 0)
(1.00955 0.00704939 0)
(1.00409 0.00680458 0)
(0.998626 0.00656947 0)
(0.993169 0.00634257 0)
(0.987746 0.00612244 0)
(0.982377 0.00590751 0)
(0.97708 0.00569621 0)
(0.971871 0.00548679 0)
(0.966766 0.00527737 0)
(0.961778 0.00506584 0)
(0.956922 0.00484975 0)
(0.952211 0.00462661 0)
(0.947662 0.0043927 0)
(0.943287 0.00414551 0)
(0.939106 0.00387856 0)
(0.935134 0.00359065 0)
(0.931395 0.00326934 0)
(0.927911 0.00291895 0)
(0.924708 0.00251315 0)
(0.921824 0.00207412 0)
(0.919276 0.00154357 0)
(0.917148 0.000989641 0)
(0.915393 0.000299993 0)
(0.914226 -0.000391504 0)
(0.913407 -0.00116275 0)
(0.913423 -0.00198438 0)
(0.913715 -0.00220848 0)
(0.915294 -0.00228543 0)
(1.00327 0.027785 0)
(1.0341 0.0310182 0)
(1.04972 0.022258 0)
(1.05275 0.0190768 0)
(1.05416 0.0172884 0)
(1.05613 0.0155306 0)
(1.05787 0.0142463 0)
(1.0591 0.013352 0)
(1.05994 0.0126307 0)
(1.06042 0.0120051 0)
(1.06053 0.0114582 0)
(1.06025 0.010975 0)
(1.05958 0.0105404 0)
(1.05853 0.0101434 0)
(1.0571 0.0097766 0)
(1.05532 0.00943512 0)
(1.05321 0.0091152 0)
(1.0508 0.0088139 0)
(1.04813 0.00852889 0)
(1.04523 0.00825818 0)
(1.04211 0.00800009 0)
(1.03882 0.00775309 0)
(1.03538 0.00751578 0)
(1.03182 0.0072868 0)
(1.02817 0.00706488 0)
(1.02444 0.00684869 0)
(1.02066 0.0066369 0)
(1.01684 0.00642807 0)
(1.01302 0.00622072 0)
(1.0092 0.00601315 0)
(1.00541 0.00580351 0)
(1.00165 0.0055897 0)
(0.997957 0.00536918 0)
(0.994332 0.00513943 0)
(0.990796 0.00489653 0)
(0.987366 0.00463777 0)
(0.984061 0.00435647 0)
(0.980898 0.0040509 0)
(0.977901 0.0037086 0)
(0.975092 0.00333251 0)
(0.972497 0.00289737 0)
(0.97015 0.00242135 0)
(0.96807 0.00185177 0)
(0.966324 0.00124393 0)
(0.964894 0.000506325 0)
(0.963928 -0.000262142 0)
(0.963302 -0.00109239 0)
(0.963326 -0.0019843 0)
(0.963739 -0.00233582 0)
(0.965365 -0.00240079 0)
(1.00292 0.025649 0)
(1.03139 0.0299432 0)
(1.04672 0.021716 0)
(1.04996 0.0186664 0)
(1.05135 0.0170642 0)
(1.05328 0.0153928 0)
(1.05504 0.0141238 0)
(1.0564 0.013245 0)
(1.05746 0.0125466 0)
(1.05833 0.0119445 0)
(1.059 0.0114217 0)
(1.05946 0.0109645 0)
(1.05969 0.0105577 0)
(1.05969 0.0101897 0)
(1.05946 0.00985259 0)
(1.05898 0.0095408 0)
(1.05828 0.00925014 0)
(1.05735 0.00897726 0)
(1.05621 0.0087195 0)
(1.05487 0.00847463 0)
(1.05334 0.00824078 0)
(1.05164 0.00801629 0)
(1.04978 0.00779968 0)
(1.04778 0.00758955 0)
(1.04566 0.0073846 0)
(1.04344 0.00718348 0)
(1.04112 0.00698489 0)
(1.03873 0.00678736 0)
(1.03628 0.00658942 0)
(1.03379 0.00638936 0)
(1.03128 0.00618528 0)
(1.02875 0.00597507 0)
(1.02622 0.00575608 0)
(1.02372 0.00552571 0)
(1.02125 0.00527989 0)
(1.01883 0.0050157 0)
(1.01647 0.00472629 0)
(1.01421 0.00440943 0)
(1.01205 0.00405275 0)
(1.01002 0.00365777 0)
(1.00815 0.0032006 0)
(1.00645 0.00269523 0)
(1.00496 0.00209493 0)
(1.00372 0.00144241 0)
(1.00273 0.000665766 0)
(1.0021 -0.000167497 0)
(1.00178 -0.00105082 0)
(1.00197 -0.00200075 0)
(1.00259 -0.00248432 0)
(1.00439 -0.00260953 0)
(1.0026 0.0236197 0)
(1.0288 0.0288512 0)
(1.0438 0.0211949 0)
(1.04727 0.0182538 0)
(1.04867 0.0168264 0)
(1.05056 0.0152505 0)
(1.05232 0.0139987 0)
(1.05368 0.0131307 0)
(1.05478 0.0124484 0)
(1.05574 0.0118612 0)
(1.05659 0.0113517 0)
(1.0573 0.0109083 0)
(1.0579 0.0105164 0)
(1.05836 0.0101646 0)
(1.05869 0.00984471 0)
(1.05889 0.00955101 0)
(1.05894 0.00927908 0)
(1.05885 0.00902532 0)
(1.05862 0.00878681 0)
(1.05825 0.00856108 0)
(1.05774 0.00834604 0)
(1.05711 0.00813983 0)
(1.05635 0.00794081 0)
(1.05547 0.00774744 0)
(1.05448 0.00755829 0)
(1.05339 0.00737189 0)
(1.05222 0.00718685 0)
(1.05096 0.00700163 0)
(1.04963 0.00681466 0)
(1.04825 0.00662414 0)
(1.04681 0.00642811 0)
(1.04534 0.00622434 0)
(1.04385 0.00601008 0)
(1.04235 0.00578259 0)
(1.04085 0.00553765 0)
(1.03937 0.00527212 0)
(1.03792 0.00497905 0)
(1.03651 0.00465565 0)
(1.03517 0.00428976 0)
(1.03392 0.00388149 0)
(1.03276 0.00340846 0)
(1.03174 0.00288053 0)
(1.03086 0.00225696 0)
(1.03017 0.00156852 0)
(1.02968 0.000760809 0)
(1.02945 -0.000124347 0)
(1.02948 -0.00105555 0)
(1.02994 -0.00205425 0)
(1.03082 -0.00267121 0)
(1.03287 -0.00291514 0)
(1.0023 0.0216988 0)
(1.02634 0.027743 0)
(1.04097 0.020693 0)
(1.04466 0.0178407 0)
(1.04608 0.0165739 0)
(1.04794 0.0151021 0)
(1.0497 0.0138721 0)
(1.05105 0.0130139 0)
(1.05215 0.0123461 0)
(1.05311 0.0117712 0)
(1.05398 0.0112709 0)
(1.05477 0.0108356 0)
(1.05547 0.010452 0)
(1.0561 0.0101088 0)
(1.05665 0.00979801 0)
(1.05713 0.00951407 0)
(1.05753 0.00925252 0)
(1.05784 0.00900973 0)
(1.05808 0.0087827 0)
(1.05823 0.00856884 0)
(1.0583 0.00836593 0)
(1.05828 0.00817199 0)
(1.05818 0.00798523 0)
(1.058 0.00780396 0)
(1.05774 0.00762663 0)
(1.05741 0.00745166 0)
(1.05701 0.00727751 0)
(1.05654 0.00710254 0)
(1.05601 0.00692504 0)
(1.05544 0.00674313 0)
(1.05481 0.00655468 0)
(1.05415 0.00635738 0)
(1.05346 0.00614831 0)
(1.05276 0.00592462 0)
(1.05204 0.0056819 0)
(1.05133 0.0054168 0)
(1.05062 0.00512226 0)
(1.04995 0.00479499 0)
(1.04931 0.00442308 0)
(1.04873 0.00400526 0)
(1.04821 0.00352074 0)
(1.04779 0.00297539 0)
(1.04748 0.00233425 0)
(1.0473 0.0016173 0)
(1.04727 0.000784763 0)
(1.04744 -0.000140765 0)
(1.04783 -0.00111571 0)
(1.04858 -0.00215795 0)
(1.04975 -0.0029074 0)
(1.05206 -0.00331868 0)
(1.00203 0.0198872 0)
(1.02402 0.0266218 0)
(1.03823 0.0202074 0)
(1.04214 0.0174287 0)
(1.04358 0.0163065 0)
(1.04541 0.0149461 0)
(1.04717 0.0137435 0)
(1.04852 0.0128952 0)
(1.0496 0.0122418 0)
(1.05056 0.0116791 0)
(1.05142 0.0111869 0)
(1.05221 0.0107579 0)
(1.05293 0.0103798 0)
(1.0536 0.0100418 0)
(1.05422 0.00973612 0)
(1.05479 0.00945732 0)
(1.05531 0.00920112 0)
(1.05579 0.00896399 0)
(1.05622 0.00874295 0)
(1.05661 0.00853544 0)
(1.05695 0.00833919 0)
(1.05725 0.00815219 0)
(1.05749 0.00797256 0)
(1.05769 0.00779857 0)
(1.05784 0.00762855 0)
(1.05795 0.00746083 0)
(1.05801 0.00729378 0)
(1.05803 0.00712565 0)
(1.05801 0.00695462 0)
(1.05795 0.0067787 0)
(1.05787 0.00659563 0)
(1.05775 0.006403 0)
(1.05762 0.00619772 0)
(1.05747 0.00597681 0)
(1.05731 0.00573572 0)
(1.05716 0.00547088 0)
(1.05701 0.00517516 0)
(1.05688 0.00484475 0)
(1.05678 0.00446809 0)
(1.05671 0.00404256 0)
(1.0567 0.00354898 0)
(1.05676 0.00298952 0)
(1.0569 0.00233443 0)
(1.05715 0.0015945 0)
(1.0575 0.000741295 0)
(1.05803 -0.000216089 0)
(1.05872 -0.00123168 0)
(1.05975 -0.0023162 0)
(1.06118 -0.0031969 0)
(1.06371 -0.00381168 0)
(1.00179 0.0181851 0)
(1.02184 0.0254914 0)
(1.03559 0.0197341 0)
(1.0397 0.0170199 0)
(1.04118 0.0160251 0)
(1.04297 0.0147818 0)
(1.04473 0.0136123 0)
(1.04608 0.0127743 0)
(1.04716 0.0121352 0)
(1.04809 0.0115853 0)
(1.04895 0.0111016 0)
(1.04972 0.0106785 0)
(1.05044 0.0103052 0)
(1.0511 0.00997128 0)
(1.05173 0.0096691 0)
(1.05232 0.00939343 0)
(1.05287 0.00914018 0)
(1.0534 0.00890594 0)
(1.05391 0.00868785 0)
(1.05438 0.00848338 0)
(1.05483 0.00829031 0)
(1.05526 0.00810663 0)
(1.05566 0.00793048 0)
(1.05603 0.00776007 0)
(1.05638 0.00759371 0)
(1.05671 0.00742968 0)
(1.05701 0.00726627 0)
(1.05729 0.00710168 0)
(1.05755 0.00693399 0)
(1.05779 0.00676114 0)
(1.05802 0.00658075 0)
(1.05823 0.00639032 0)
(1.05844 0.00618665 0)
(1.05863 0.00596661 0)
(1.05883 0.00572555 0)
(1.05904 0.00545966 0)
(1.05925 0.00516183 0)
(1.05949 0.00482773 0)
(1.05975 0.00444621 0)
(1.06005 0.00401335 0)
(1.06039 0.00351156 0)
(1.06079 0.00293966 0)
(1.06125 0.00227242 0)
(1.0618 0.00151309 0)
(1.06245 0.000641473 0)
(1.06323 -0.0003426 0)
(1.06416 -0.00139684 0)
(1.06541 -0.00252567 0)
(1.06706 -0.00353675 0)
(1.06976 -0.00437839 0)
(1.00157 0.0165921 0)
(1.01979 0.0243557 0)
(1.03306 0.0192691 0)
(1.03735 0.0166159 0)
(1.03886 0.0157309 0)
(1.04062 0.0146085 0)
(1.04237 0.0134782 0)
(1.04373 0.0126511 0)
(1.0448 0.0120263 0)
(1.04572 0.0114897 0)
(1.04656 0.011015 0)
(1.04733 0.010598 0)
(1.04803 0.0102295 0)
(1.04868 0.00989945 0)
(1.0493 0.00960036 0)
(1.04988 0.00932716 0)
(1.05044 0.00907596 0)
(1.05098 0.00884349 0)
(1.05149 0.00862695 0)
(1.05199 0.00842393 0)
(1.05247 0.00823225 0)
(1.05294 0.00804992 0)
(1.0534 0.0078751 0)
(1.05384 0.00770602 0)
(1.05427 0.00754097 0)
(1.05469 0.00737821 0)
(1.0551 0.007216 0)
(1.0555 0.00705249 0)
(1.0559 0.00688571 0)
(1.05629 0.00671353 0)
(1.05667 0.00653351 0)
(1.05705 0.00634306 0)
(1.05744 0.00613888 0)
(1.05783 0.00591775 0)
(1.05822 0.00567493 0)
(1.05863 0.00540639 0)
(1.05906 0.00510509 0)
(1.05951 0.00476619 0)
(1.05999 0.004379 0)
(1.06051 0.00393839 0)
(1.06107 0.00342823 0)
(1.06168 0.00284447 0)
(1.06235 0.00216558 0)
(1.0631 0.00138889 0)
(1.06393 0.000499596 0)
(1.06488 -0.000508636 0)
(1.06598 -0.00160069 0)
(1.06737 -0.00277805 0)
(1.06917 -0.00391908 0)
(1.07198 -0.00500053 0)
(1.00137 0.0151074 0)
(1.01788 0.0232187 0)
(1.03063 0.0188084 0)
(1.03508 0.0162182 0)
(1.03665 0.0154254 0)
(1.03837 0.0144254 0)
(1.0401 0.0133408 0)
(1.04147 0.0125256 0)
(1.04253 0.0119148 0)
(1.04344 0.0113922 0)
(1.04427 0.0109271 0)
(1.04502 0.0105165 0)
(1.04572 0.010153 0)
(1.04636 0.00982679 0)
(1.04696 0.00953076 0)
(1.04753 0.00925993 0)
(1.04808 0.00901054 0)
(1.04861 0.00877946 0)
(1.04912 0.008564 0)
(1.04962 0.0083618 0)
(1.0501 0.00817074 0)
(1.05058 0.00798886 0)
(1.05105 0.00781436 0)
(1.05151 0.00764547 0)
(1.05196 0.00748048 0)
(1.05241 0.00731764 0)
(1.05286 0.0071552 0)
(1.05331 0.00699127 0)
(1.05375 0.00682385 0)
(1.0542 0.00665077 0)
(1.05465 0.00646952 0)
(1.05511 0.00627745 0)
(1.05558 0.0060712 0)
(1.05606 0.00584743 0)
(1.05655 0.00560139 0)
(1.05706 0.00532883 0)
(1.0576 0.0050228 0)
(1.05816 0.004678 0)
(1.05875 0.00428419 0)
(1.05939 0.00383516 0)
(1.06006 0.0033161 0)
(1.06079 0.00272052 0)
(1.06157 0.00202974 0)
(1.06242 0.00123672 0)
(1.06336 0.000329577 0)
(1.06441 -0.00070211 0)
(1.06559 -0.00183217 0)
(1.06708 -0.00306316 0)
(1.06896 -0.00433385 0)
(1.0718 -0.00565963 0)
(1.0012 0.0137294 0)
(1.01611 0.0220846 0)
(1.02831 0.0183485 0)
(1.03291 0.0158279 0)
(1.03452 0.0151103 0)
(1.0362 0.0142321 0)
(1.03792 0.0131997 0)
(1.03929 0.0123979 0)
(1.04035 0.0118008 0)
(1.04126 0.0112926 0)
(1.04207 0.0108377 0)
(1.04281 0.0104339 0)
(1.04349 0.0100754 0)
(1.04412 0.0097533 0)
(1.04472 0.00946043 0)
(1.04528 0.00919201 0)
(1.04582 0.00894443 0)
(1.04633 0.00871469 0)
(1.04683 0.00850018 0)
(1.04732 0.00829861 0)
(1.0478 0.0081079 0)
(1.04827 0.00792615 0)
(1.04873 0.00775156 0)
(1.04919 0.00758237 0)
(1.04965 0.00741688 0)
(1.0501 0.00725333 0)
(1.05056 0.00708994 0)
(1.05101 0.00692483 0)
(1.05148 0.00675594 0)
(1.05194 0.00658107 0)
(1.05242 0.00639766 0)
(1.0529 0.00620302 0)
(1.0534 0.00599373 0)
(1.05391 0.00576634 0)
(1.05444 0.00551611 0)
(1.05499 0.00523858 0)
(1.05557 0.00492692 0)
(1.05618 0.00457541 0)
(1.05682 0.00417421 0)
(1.0575 0.00371621 0)
(1.05823 0.00318768 0)
(1.059 0.00258016 0)
(1.05983 0.00187709 0)
(1.06073 0.00106812 0)
(1.06171 0.000142701 0)
(1.0628 -0.000912661 0)
(1.06403 -0.00208157 0)
(1.06554 -0.00337139 0)
(1.06745 -0.00477084 0)
(1.07027 -0.0063387 0)
(1.00104 0.0124557 0)
(1.01447 0.0209576 0)
(1.0261 0.0178858 0)
(1.03082 0.015446 0)
(1.03249 0.0147875 0)
(1.03413 0.0140281 0)
(1.03583 0.0130544 0)
(1.0372 0.012268 0)
(1.03826 0.0116841 0)
(1.03916 0.0111907 0)
(1.03996 0.0107466 0)
(1.0407 0.0103499 0)
(1.04137 0.00999678 0)
(1.04199 0.00967889 0)
(1.04257 0.00938932 0)
(1.04312 0.00912339 0)
(1.04364 0.00887768 0)
(1.04415 0.0086493 0)
(1.04464 0.00843575 0)
(1.04512 0.00823478 0)
(1.04559 0.00804438 0)
(1.04605 0.00786265 0)
(1.0465 0.00768783 0)
(1.04695 0.00751818 0)
(1.0474 0.00735196 0)
(1.04785 0.00718745 0)
(1.0483 0.00702282 0)
(1.04876 0.00685618 0)
(1.04922 0.00668543 0)
(1.04968 0.00650835 0)
(1.05016 0.00632233 0)
(1.05064 0.00612462 0)
(1.05114 0.00591177 0)
(1.05166 0.00568023 0)
(1.0522 0.00542527 0)
(1.05276 0.00514223 0)
(1.05335 0.00482441 0)
(1.05397 0.00446571 0)
(1.05462 0.00405666 0)
(1.05532 0.00358936 0)
(1.05605 0.00305096 0)
(1.05684 0.00243144 0)
(1.05768 0.00171575 0)
(1.05859 0.000890925 0)
(1.05957 -5.31387e-05 0)
(1.06067 -0.00113288 0)
(1.0619 -0.00234161 0)
(1.06341 -0.00369466 0)
(1.06531 -0.00522077 0)
(1.06805 -0.00702281 0)
(1.0009 0.0112835 0)
(1.01296 0.0198421 0)
(1.024 0.0174173 0)
(1.02881 0.0150728 0)
(1.03056 0.014459 0)
(1.03215 0.0138132 0)
(1.03383 0.0129042 0)
(1.03521 0.0121359 0)
(1.03627 0.011565 0)
(1.03715 0.0110865 0)
(1.03795 0.0106538 0)
(1.03867 0.0102647 0)
(1.03933 0.00991703 0)
(1.03994 0.00960349 0)
(1.04051 0.00931734 0)
(1.04105 0.00905402 0)
(1.04157 0.00881025 0)
(1.04207 0.00858329 0)
(1.04255 0.00837072 0)
(1.04302 0.00817037 0)
(1.04347 0.00798027 0)
(1.04392 0.00779857 0)
(1.04437 0.00762349 0)
(1.04481 0.00745331 0)
(1.04525 0.00728631 0)
(1.04569 0.00712074 0)
(1.04613 0.00695476 0)
(1.04658 0.00678645 0)
(1.04703 0.00661369 0)
(1.04749 0.00643421 0)
(1.04796 0.00624538 0)
(1.04844 0.00604437 0)
(1.04893 0.00582773 0)
(1.04945 0.00559179 0)
(1.04998 0.00533184 0)
(1.05054 0.00504305 0)
(1.05112 0.00471881 0)
(1.05174 0.00435271 0)
(1.05238 0.00393558 0)
(1.05307 0.00345887 0)
(1.0538 0.00291043 0)
(1.05458 0.00227898 0)
(1.05541 0.00155046 0)
(1.0563 0.000709966 0)
(1.05727 -0.000253141 0)
(1.05835 -0.00135811 0)
(1.05956 -0.00260734 0)
(1.06105 -0.00402669 0)
(1.0629 -0.00567575 0)
(1.06552 -0.00769915 0)
(1.00078 0.0102093 0)
(1.01158 0.0187425 0)
(1.02201 0.0169402 0)
(1.02689 0.0147083 0)
(1.02871 0.014127 0)
(1.03027 0.0135874 0)
(1.03192 0.0127486 0)
(1.0333 0.0120015 0)
(1.03436 0.0114432 0)
(1.03524 0.0109797 0)
(1.03602 0.0105591 0)
(1.03674 0.010178 0)
(1.03739 0.00983604 0)
(1.03799 0.00952702 0)
(1.03855 0.00924442 0)
(1.03908 0.00898381 0)
(1.03959 0.00874206 0)
(1.04008 0.00851658 0)
(1.04055 0.00830504 0)
(1.04101 0.00810535 0)
(1.04146 0.00791557 0)
(1.0419 0.00773389 0)
(1.04233 0.00755856 0)
(1.04277 0.00738785 0)
(1.0432 0.00722005 0)
(1.04363 0.00705339 0)
(1.04406 0.00688602 0)
(1.0445 0.00671599 0)
(1.04494 0.00654115 0)
(1.04539 0.0063592 0)
(1.04585 0.00616748 0)
(1.04632 0.00596309 0)
(1.04681 0.00574255 0)
(1.04731 0.00550213 0)
(1.04783 0.00523708 0)
(1.04838 0.00494245 0)
(1.04895 0.00461172 0)
(1.04956 0.00423817 0)
(1.05019 0.00381291 0)
(1.05086 0.00332686 0)
(1.05158 0.00276836 0)
(1.05234 0.00212517 0)
(1.05315 0.00138379 0)
(1.05402 0.000527836 0)
(1.05496 -0.000454509 0)
(1.05601 -0.0015853 0)
(1.05719 -0.00287526 0)
(1.05863 -0.00436242 0)
(1.06042 -0.00612901 0)
(1.06289 -0.00835675 0)
(1.00067 0.00922904 0)
(1.01032 0.0176632 0)
(1.02014 0.0164524 0)
(1.02506 0.0143525 0)
(1.02695 0.0137935 0)
(1.02848 0.013351 0)
(1.0301 0.0125868 0)
(1.03147 0.0118646 0)
(1.03254 0.011319 0)
(1.03341 0.0108703 0)
(1.03419 0.0104624 0)
(1.03489 0.0100898 0)
(1.03554 0.00975374 0)
(1.03613 0.00944937 0)
(1.03668 0.00917047 0)
(1.03721 0.00891268 0)
(1.0377 0.00867304 0)
(1.03818 0.0084491 0)
(1.03865 0.00823864 0)
(1.0391 0.00803964 0)
(1.03954 0.00785022 0)
(1.03997 0.00766858 0)
(1.0404 0.007493 0)
(1.04082 0.00732177 0)
(1.04124 0.00715316 0)
(1.04166 0.0069854 0)
(1.04209 0.00681663 0)
(1.04252 0.00664486 0)
(1.04295 0.00646793 0)
(1.04339 0.00628349 0)
(1.04384 0.00608884 0)
(1.0443 0.00588104 0)
(1.04478 0.00565658 0)
(1.04527 0.00541163 0)
(1.04578 0.00514148 0)
(1.04632 0.004841 0)
(1.04688 0.00450379 0)
(1.04746 0.00412286 0)
(1.04808 0.00368953 0)
(1.04874 0.0031943 0)
(1.04943 0.00262585 0)
(1.05017 0.00197122 0)
(1.05095 0.0012171 0)
(1.05179 0.000345878 0)
(1.0527 -0.000655484 0)
(1.05372 -0.00181241 0)
(1.05486 -0.0031428 0)
(1.05624 -0.00469742 0)
(1.05794 -0.00657434 0)
(1.06023 -0.00898593 0)
(1.00058 0.00833804 0)
(1.00917 0.0166087 0)
(1.01838 0.0159521 0)
(1.02331 0.0140045 0)
(1.02528 0.0134604 0)
(1.02678 0.0131045 0)
(1.02836 0.0124183 0)
(1.02974 0.0117251 0)
(1.0308 0.0111923 0)
(1.03167 0.0107582 0)
(1.03244 0.0103634 0)
(1.03314 0.00999982 0)
(1.03377 0.00967003 0)
(1.03436 0.00937047 0)
(1.03491 0.00909539 0)
(1.03542 0.00884054 0)
(1.03591 0.0086031 0)
(1.03638 0.00838077 0)
(1.03684 0.00817145 0)
(1.03728 0.00797318 0)
(1.03771 0.00778414 0)
(1.03813 0.00760257 0)
(1.03855 0.00742676 0)
(1.03897 0.00725502 0)
(1.03938 0.00708561 0)
(1.0398 0.00691676 0)
(1.04021 0.00674657 0)
(1.04063 0.00657306 0)
(1.04106 0.00639402 0)
(1.04149 0.00620708 0)
(1.04193 0.00600949 0)
(1.04238 0.00579828 0)
(1.04284 0.0055699 0)
(1.04333 0.00532044 0)
(1.04383 0.0050452 0)
(1.04435 0.00473894 0)
(1.04489 0.00439529 0)
(1.04547 0.00400711 0)
(1.04607 0.00356585 0)
(1.0467 0.00306167 0)
(1.04738 0.0024835 0)
(1.04809 0.00181774 0)
(1.04884 0.00105134 0)
(1.04965 0.00016488 0)
(1.05053 -0.000855185 0)
(1.0515 -0.00203798 0)
(1.05259 -0.00340777 0)
(1.0539 -0.00502774 0)
(1.0555 -0.00700602 0)
(1.0576 -0.00957827 0)
(1.0005 0.00753128 0)
(1.00814 0.0155831 0)
(1.01674 0.0154383 0)
(1.02164 0.0136636 0)
(1.02369 0.0131295 0)
(1.02517 0.0128489 0)
(1.02671 0.0122425 0)
(1.02808 0.0115826 0)