/*--------------------------------*- C++ -*----------------------------------*\
  =========                 |
  \\      /  F ield         | OpenFOAM: The Open Source CFD Toolbox
   \\    /   O peration     | Website:  https://openfoam.org
    \\  /    A nd           | Version:  7
     \\/     M anipulation  |
\*---------------------------------------------------------------------------*/
FoamFile
{
    version     2.0;
    format      ascii;
    class       volVectorField;
    location    "0.38";
    object      wallShearStress;
}
// * * * * * * * * * * * * * * * * * * * * * * * * * * * * * * * * * * * * * //

dimensions      [0 2 -2 0 0 0 0];

internalField   uniform (0 0 0);

boundaryField
{
    velocityInlet
    {
        type            calculated;
        value           uniform (0 0 0);
    }
    pressureOutlet
    {
        type            calculated;
        value           uniform (0 0 0);
    }
    fixedWalls
    {
        type            calculated;
        value           nonuniform List<vector> 
100
(
(-0.0167289 -0.00805578 0)
(0.00930707 -0.00121768 0)
(-0.00143026 0.000931882 0)
(5.78998e-05 2.22997e-05 0)
(0.000781671 -0.000388225 0)
(0.00550948 -0.000792743 0)
(0.00911693 -0.000670292 0)
(0.0105527 -0.000170127 0)
(0.00904409 0.000282885 0)
(0.0061641 0.000474264 0)
(0.00306187 0.000445808 0)
(0.000574668 0.000330274 0)
(-0.00110033 0.000219056 0)
(-0.00207624 0.000121206 0)
(-0.0025187 5.12417e-05 0)
(-0.00258455 3.10938e-06 0)
(-0.00240238 -3.02006e-05 0)
(-0.00207173 -5.01555e-05 0)
(-0.00166805 -6.01738e-05 0)
(-0.00124555 -6.3121e-05 0)
(-0.000846227 -6.02476e-05 0)
(-0.000510766 -5.12973e-05 0)
(-0.000279202 -3.72503e-05 0)
(-0.000183761 -2.07946e-05 0)
(-0.000241817 1.37638e-06 0)
(-0.000455768 2.49142e-05 0)
(-0.000813912 4.85387e-05 0)
(-0.00125917 6.37675e-05 0)
(-0.00161725 5.37308e-05 0)
(-0.00158506 -7.51624e-06 0)
(-0.000928443 -0.00010184 0)
(0.000124985 -0.000138578 0)
(0.000884632 -8.93942e-05 0)
(0.000818287 1.98691e-05 0)
(-1.15337e-05 9.50639e-05 0)
(-0.00115213 0.000121271 0)
(-0.00218877 0.00010065 0)
(-0.00293652 6.72319e-05 0)
(-0.00338315 3.90349e-05 0)
(-0.00359932 1.98609e-05 0)
(-0.00366393 9.12557e-06 0)
(-0.00364057 1.99346e-06 0)
(-0.00357345 -1.2307e-06 0)
(-0.00348652 -2.58537e-06 0)
(-0.00338444 -4.31974e-06 0)
(-0.00325574 -8.25029e-06 0)
(-0.00308371 -1.4672e-05 0)
(-0.00286192 -2.18524e-05 0)
(-0.00260514 -2.69979e-05 0)
(-0.00234723 -2.80036e-05 0)
(-0.00213052 -2.39238e-05 0)
(-0.00199802 -1.51314e-05 0)
(-0.00198213 -3.1622e-06 0)
(-0.00208375 8.76323e-06 0)
(-0.00226222 1.33091e-05 0)
(-0.00247506 1.27737e-05 0)
(-0.00275832 2.13988e-05 0)
(-0.00323451 4.84692e-05 0)
(-0.00397745 8.21774e-05 0)
(-0.00489692 0.000103415 0)
(-0.00579421 0.00010503 0)
(-0.00644309 8.77304e-05 0)
(-0.00658056 4.27238e-05 0)
(-0.00591269 -4.80017e-05 0)
(-0.00424848 -0.000169824 0)
(-0.00162476 -0.000302691 0)
(0.00143438 -0.000327155 0)
(0.00394266 -0.000270152 0)
(0.00514029 -0.000121872 0)
(0.00478914 4.54248e-05 0)
(0.00331159 0.000149844 0)
(0.00140712 0.000177092 0)
(-0.000364017 0.000156311 0)
(-0.0017111 0.000112002 0)
(-0.00259117 6.96564e-05 0)
(-0.00309566 3.83014e-05 0)
(-0.00335428 1.91199e-05 0)
(-0.00348153 9.89707e-06 0)
(-0.00355884 7.4768e-06 0)
(-0.00363098 8.51647e-06 0)
(-0.00370668 9.49484e-06 0)
(-0.00376495 7.91804e-06 0)
(-0.00377566 3.71812e-06 0)
(-0.00372638 -1.0953e-06 0)
(-0.00363111 -3.44945e-06 0)
(-0.00351169 -3.36493e-06 0)
(-0.00337431 -2.76959e-06 0)
(-0.00320314 -3.87877e-06 0)
(-0.0029482 -1.04775e-05 0)
(-0.00252843 -2.68657e-05 0)
(-0.0018448 -5.38157e-05 0)
(-0.000880257 -8.3953e-05 0)
(0.000259645 -9.66238e-05 0)
(0.00131251 -9.10185e-05 0)
(0.00202836 -6.07644e-05 0)
(0.00223948 -2.01338e-05 0)
(0.0019469 2.26399e-05 0)
(0.00120095 5.64057e-05 0)
(0.00032135 7.77994e-05 0)
(-0.00109959 5.80274e-05 0)
)
;
    }
    bottomWall
    {
        type            calculated;
        value           nonuniform List<vector> 
800
(
(-0.0353488 0.00214398 0)
(-0.0160265 0.000524833 0)
(-0.0106077 0.000100716 0)
(-0.0084559 3.52587e-05 0)
(-0.00748623 1.98589e-05 0)
(-0.00685258 1.61209e-05 0)
(-0.00634503 1.33562e-05 0)
(-0.00593378 1.09011e-05 0)
(-0.00559888 9.08063e-06 0)
(-0.00531987 7.76534e-06 0)
(-0.00508218 6.7695e-06 0)
(-0.00487639 5.98276e-06 0)
(-0.00469602 5.3452e-06 0)
(-0.00453634 4.81963e-06 0)
(-0.00439378 4.38024e-06 0)
(-0.00426556 4.00821e-06 0)
(-0.0041495 3.68989e-06 0)
(-0.00404384 3.41488e-06 0)
(-0.00394719 3.17526e-06 0)
(-0.00385837 2.96488e-06 0)
(-0.00377643 2.77879e-06 0)
(-0.00370057 2.61333e-06 0)
(-0.00363011 2.46546e-06 0)
(-0.00356445 2.33248e-06 0)
(-0.00350313 2.21244e-06 0)
(-0.0034457 2.10361e-06 0)
(-0.00339179 2.00457e-06 0)
(-0.00334108 1.9142e-06 0)
(-0.00329329 1.83124e-06 0)
(-0.00324816 1.75516e-06 0)
(-0.00320547 1.68502e-06 0)
(-0.00316503 1.62017e-06 0)
(-0.00312666 1.56027e-06 0)
(-0.00309019 1.50459e-06 0)
(-0.00305549 1.45267e-06 0)
(-0.00302244 1.40426e-06 0)
(-0.00299091 1.35921e-06 0)
(-0.0029608 1.31702e-06 0)
(-0.00293202 1.27733e-06 0)
(-0.00290449 1.24018e-06 0)
(-0.00287811 1.20517e-06 0)
(-0.00285282 1.17222e-06 0)
(-0.00282856 1.14119e-06 0)
(-0.00280526 1.11176e-06 0)
(-0.00278286 1.08414e-06 0)
(-0.00276133 1.05768e-06 0)
(-0.00274059 1.03307e-06 0)
(-0.00272063 1.0089e-06 0)
(-0.00270138 9.8719e-07 0)
(-0.00268283 9.63976e-07 0)
(-0.00266732 9.45047e-07 0)
(-0.00265451 9.34321e-07 0)
(-0.00264186 9.20322e-07 0)
(-0.00262941 9.05663e-07 0)
(-0.00261715 8.91992e-07 0)
(-0.00260507 8.78726e-07 0)
(-0.00259317 8.6601e-07 0)
(-0.00258143 8.53532e-07 0)
(-0.00256987 8.41317e-07 0)
(-0.00255847 8.29525e-07 0)
(-0.00254723 8.17814e-07 0)
(-0.00253614 8.06347e-07 0)
(-0.00252521 7.95289e-07 0)
(-0.00251443 7.8447e-07 0)
(-0.00250379 7.73889e-07 0)
(-0.0024933 7.63376e-07 0)
(-0.00248295 7.53262e-07 0)
(-0.00247273 7.43379e-07 0)
(-0.00246265 7.33557e-07 0)
(-0.00245269 7.24129e-07 0)
(-0.00244287 7.14759e-07 0)
(-0.00243317 7.05611e-07 0)
(-0.00242359 6.96853e-07 0)
(-0.00241413 6.8798e-07 0)
(-0.0024048 6.79327e-07 0)
(-0.00239557 6.71056e-07 0)
(-0.00238646 6.62668e-07 0)
(-0.00237747 6.54662e-07 0)
(-0.00236857 6.46868e-07 0)
(-0.00235979 6.38953e-07 0)
(-0.00235111 6.31416e-07 0)
(-0.00234253 6.23923e-07 0)
(-0.00233406 6.16471e-07 0)
(-0.00232568 6.09562e-07 0)
(-0.00231739 6.02526e-07 0)
(-0.00230921 5.9553e-07 0)
(-0.00230111 5.88741e-07 0)
(-0.00229311 5.81988e-07 0)
(-0.0022852 5.75606e-07 0)
(-0.00227738 5.6926e-07 0)
(-0.00226964 5.6295e-07 0)
(-0.00226198 5.5684e-07 0)
(-0.00225441 5.50763e-07 0)
(-0.00224692 5.44719e-07 0)
(-0.00223952 5.38873e-07 0)
(-0.00223219 5.3339e-07 0)
(-0.00222493 5.27771e-07 0)
(-0.00221775 5.22013e-07 0)
(-0.00221065 5.16618e-07 0)
(-0.00220362 5.11416e-07 0)
(-0.00219667 5.06073e-07 0)
(-0.00218978 5.00923e-07 0)
(-0.00218296 4.95797e-07 0)
(-0.00217622 4.90863e-07 0)
(-0.00216954 4.8612e-07 0)
(-0.00216292 4.81065e-07 0)
(-0.00215638 4.76368e-07 0)
(-0.00214989 4.71693e-07 0)
(-0.00214348 4.6704e-07 0)
(-0.00213712 4.62742e-07 0)
(-0.00213082 4.58132e-07 0)
(-0.00212459 4.53709e-07 0)
(-0.00211841 4.4964e-07 0)
(-0.00211228 4.45258e-07 0)
(-0.00210622 4.41062e-07 0)
(-0.00210022 4.37053e-07 0)
(-0.00209427 4.32896e-07 0)
(-0.00208837 4.28924e-07 0)
(-0.00208253 4.25139e-07 0)
(-0.00207674 4.21204e-07 0)
(-0.00207101 4.17455e-07 0)
(-0.00206532 4.13722e-07 0)
(-0.00205969 4.10008e-07 0)
(-0.0020541 4.06477e-07 0)
(-0.00204857 4.02962e-07 0)
(-0.00204308 3.99463e-07 0)
(-0.00203764 3.95979e-07 0)
(-0.00203224 3.9251e-07 0)
(-0.0020269 3.89057e-07 0)
(-0.0020216 3.85952e-07 0)
(-0.00201634 3.82695e-07 0)
(-0.00201113 3.79451e-07 0)
(-0.00200596 3.76389e-07 0)
(-0.00200083 3.73175e-07 0)
(-0.00199575 3.70143e-07 0)
(-0.0019907 3.67125e-07 0)
(-0.00198571 3.64121e-07 0)
(-0.00198074 3.61292e-07 0)
(-0.00197582 3.58315e-07 0)
(-0.00197094 3.55509e-07 0)
(-0.0019661 3.52894e-07 0)
(-0.00196129 3.49938e-07 0)
(-0.00195653 3.47192e-07 0)
(-0.0019518 3.44576e-07 0)
(-0.00194711 3.41874e-07 0)
(-0.00194245 3.39248e-07 0)
(-0.00193783 3.3677e-07 0)
(-0.00193324 3.34109e-07 0)
(-0.00192869 3.31685e-07 0)
(-0.00192418 3.28965e-07 0)
(-0.00192039 3.26453e-07 0)
(-0.00191729 3.25243e-07 0)
(-0.00191418 3.23891e-07 0)
(-0.00191107 3.21968e-07 0)
(-0.00190795 3.2009e-07 0)
(-0.00190483 3.18493e-07 0)
(-0.0019017 3.16665e-07 0)
(-0.00189857 3.15083e-07 0)
(-0.00189543 3.13508e-07 0)
(-0.00189229 3.11708e-07 0)
(-0.00188914 3.10149e-07 0)
(-0.00188599 3.08593e-07 0)
(-0.00188283 3.06808e-07 0)
(-0.00187967 3.05049e-07 0)
(-0.0018765 3.03498e-07 0)
(-0.00187333 3.01969e-07 0)
(-0.00187015 3.00229e-07 0)
(-0.00186697 2.98709e-07 0)
(-0.00186378 2.97196e-07 0)
(-0.00186058 2.95265e-07 0)
(-0.00185739 2.93767e-07 0)
(-0.00185419 2.92277e-07 0)
(-0.00185098 2.9057e-07 0)
(-0.00184777 2.88895e-07 0)
(-0.00184456 2.87412e-07 0)
(-0.00184133 2.85952e-07 0)
(-0.00183811 2.84097e-07 0)
(-0.00183489 2.82645e-07 0)
(-0.00183165 2.8121e-07 0)
(-0.00182841 2.79384e-07 0)
(-0.00182518 2.77944e-07 0)
(-0.00182193 2.76536e-07 0)
(-0.00181868 2.74918e-07 0)
(-0.00181542 2.73327e-07 0)
(-0.00181216 2.71739e-07 0)
(-0.0018089 2.70344e-07 0)
(-0.00180563 2.68775e-07 0)
(-0.00180236 2.67212e-07 0)
(-0.00179909 2.65831e-07 0)
(-0.00179581 2.64293e-07 0)
(-0.00179253 2.62739e-07 0)
(-0.00178924 2.61213e-07 0)
(-0.00178595 2.5969e-07 0)
(-0.00178266 2.58173e-07 0)
(-0.00177936 2.56837e-07 0)
(-0.00177605 2.5533e-07 0)
(-0.00177275 2.53664e-07 0)
(-0.00176945 2.52347e-07 0)
(-0.00176613 2.50851e-07 0)
(-0.00176282 2.49385e-07 0)
(-0.0017595 2.47905e-07 0)
(-0.00175618 2.46449e-07 0)
(-0.00175285 2.44995e-07 0)
(-0.00174953 2.43542e-07 0)
(-0.00174619 2.42106e-07 0)
(-0.00174286 2.40669e-07 0)
(-0.00173952 2.39235e-07 0)
(-0.00173618 2.37824e-07 0)
(-0.00173284 2.36401e-07 0)
(-0.00172949 2.34848e-07 0)
(-0.00172615 2.33454e-07 0)
(-0.0017228 2.32227e-07 0)
(-0.00171944 2.30854e-07 0)
(-0.00171608 2.29326e-07 0)
(-0.00171272 2.27945e-07 0)
(-0.00170936 2.2661e-07 0)
(-0.00170599 2.25265e-07 0)
(-0.00170262 2.23939e-07 0)
(-0.00169925 2.22609e-07 0)
(-0.00169587 2.21306e-07 0)
(-0.00169249 2.20002e-07 0)
(-0.00168911 2.18715e-07 0)
(-0.00168573 2.17428e-07 0)
(-0.00168234 2.16163e-07 0)
(-0.00167895 2.14865e-07 0)
(-0.00167555 2.1365e-07 0)
(-0.00167215 2.12501e-07 0)
(-0.00166874 2.11353e-07 0)
(-0.00166534 2.10012e-07 0)
(-0.00166193 2.08994e-07 0)
(-0.00165852 2.07647e-07 0)
(-0.00165509 2.06925e-07 0)
(-0.00165167 2.05257e-07 0)
(-0.00164823 2.05139e-07 0)
(-0.00164481 2.02733e-07 0)
(-0.00164133 2.03741e-07 0)
(-0.00163794 1.99521e-07 0)
(-0.0016344 2.03838e-07 0)
(-0.00163106 1.95094e-07 0)
(-0.00162739 2.06184e-07 0)
(-0.00162419 1.874e-07 0)
(-0.00162028 2.1379e-07 0)
(-0.00161739 1.72864e-07 0)
(-0.00161299 2.32014e-07 0)
(-0.0016107 1.4446e-07 0)
(-0.00160544 2.69494e-07 0)
(-0.00160419 9.12984e-08 0)
(-0.00159758 3.36169e-07 0)
(-0.00159785 7.0737e-09 0)
(-0.00158947 3.69746e-07 0)
(-0.0353489 -0.00214396 0)
(-0.0160272 -0.000524809 0)
(-0.010609 -0.000100687 0)
(-0.00845794 -3.52296e-05 0)
(-0.00748911 -1.98275e-05 0)
(-0.00685641 -1.60853e-05 0)
(-0.00635 -1.3316e-05 0)
(-0.00594003 -1.08564e-05 0)
(-0.00560652 -9.03145e-06 0)
(-0.00532902 -7.71196e-06 0)
(-0.00509292 -6.71216e-06 0)
(-0.00488879 -5.92186e-06 0)
(-0.00471013 -5.28069e-06 0)
(-0.00455223 -4.75121e-06 0)
(-0.0044115 -4.30754e-06 0)
(-0.00428519 -3.93066e-06 0)
(-0.00417112 -3.60661e-06 0)
(-0.00406757 -3.32489e-06 0)
(-0.00397314 -3.07752e-06 0)
(-0.0038867 -2.85782e-06 0)
(-0.00380732 -2.66106e-06 0)
(-0.00373423 -2.48297e-06 0)
(-0.0036668 -2.32023e-06 0)
(-0.00360447 -2.1698e-06 0)
(-0.00354683 -2.02934e-06 0)
(-0.00349349 -1.89647e-06 0)
(-0.00344415 -1.76927e-06 0)
(-0.00339859 -1.64593e-06 0)
(-0.00335658 -1.52459e-06 0)
(-0.00331801 -1.40339e-06 0)
(-0.00328277 -1.28043e-06 0)
(-0.00325079 -1.15419e-06 0)
(-0.00322208 -1.02182e-06 0)
(-0.00319666 -8.82238e-07 0)
(-0.00317463 -7.31263e-07 0)
(-0.0031561 -5.68987e-07 0)
(-0.00314126 -3.87924e-07 0)
(-0.00313039 -1.91474e-07 0)
(-0.00312362 3.42935e-08 0)
(-0.00312174 2.69871e-07 0)
(-0.00312422 5.56157e-07 0)
(-0.00313343 8.40303e-07 0)
(-0.003146 1.14179e-06 0)
(-0.00316986 1.49755e-06 0)
(-0.0031905 1.69023e-06 0)
(-0.00323646 2.15756e-06 0)
(-0.00325079 1.60654e-06 0)
(-0.00333712 2.47553e-06 0)
(-0.00329301 -7.58584e-06 0)
(-0.00323132 0.000222591 0)
(-3.14009e-05 1.58905e-05 0)
(-3.00669e-05 5.47192e-05 0)
(-3.62167e-05 8.98961e-05 0)
(-3.93907e-05 0.000139415 0)
(-3.42705e-05 0.000187438 0)
(-2.22258e-05 0.000222374 0)
(-4.48749e-06 0.000234927 0)
(1.78577e-05 0.00021906 0)
(4.38644e-05 0.000170488 0)
(7.23879e-05 8.66209e-05 0)
(9.91421e-05 -3.43465e-05 0)
(0.000122945 -0.000187507 0)
(0.000141041 -0.000364405 0)
(0.000152925 -0.000557615 0)
(0.000158373 -0.000759411 0)
(0.00015785 -0.000962983 0)
(0.000152282 -0.00116204 0)
(0.000142831 -0.0013515 0)
(0.000130628 -0.00152783 0)
(0.00011661 -0.00168879 0)
(0.000101517 -0.00183306 0)
(8.59251e-05 -0.00196003 0)
(7.0269e-05 -0.00206967 0)
(5.48595e-05 -0.00216227 0)
(3.99449e-05 -0.00223837 0)
(2.57183e-05 -0.00229875 0)
(1.23057e-05 -0.00234429 0)
(-2.62072e-07 -0.00237595 0)
(-1.17769e-05 -0.00239463 0)
(-2.26215e-05 -0.0024019 0)
(-3.28879e-05 -0.00239768 0)
(-4.18625e-05 -0.00238325 0)
(-4.93109e-05 -0.00236001 0)
(-5.56447e-05 -0.00232943 0)
(-6.26661e-05 -0.00229276 0)
(-7.29437e-05 -0.00224991 0)
(-8.80626e-05 -0.00219914 0)
(-0.000106683 -0.00213764 0)
(-0.000123679 -0.00206324 0)
(-0.00013156 -0.00197652 0)
(-0.000124231 -0.00188197 0)
(-0.000100655 -0.00178682 0)
(-6.58307e-05 -0.00169873 0)
(-2.87732e-05 -0.00162395 0)
(1.23588e-06 -0.00156613 0)
(1.68719e-05 -0.00152483 0)
(1.2997e-05 -0.0014943 0)
(-1.28745e-05 -0.00145621 0)
(-5.8737e-05 -0.00139245 0)
(-0.000117551 -0.00128981 0)
(-0.000178531 -0.00114418 0)
(-0.000230261 -0.000961997 0)
(-0.000264453 -0.000757082 0)
(-0.000278223 -0.000545624 0)
(-0.00027448 -0.000343192 0)
(-0.000257664 -0.000157903 0)
(-0.000234863 5.48801e-06 0)
(-0.000213672 0.000152271 0)
(-0.000187427 0.000283717 0)
(-0.000151304 0.000381153 0)
(-0.000112184 0.000436939 0)
(-7.7322e-05 0.000461088 0)
(-4.93628e-05 0.000463971 0)
(-2.98978e-05 0.000468468 0)
(-1.61433e-05 0.000460912 0)
(-8.36074e-06 0.00044472 0)
(-6.86004e-06 0.000423007 0)
(-1.27682e-05 0.000399181 0)
(-2.64049e-05 0.000378183 0)
(-4.41664e-05 0.000366081 0)
(-5.69399e-05 0.000365987 0)
(-5.55414e-05 0.000374667 0)
(-3.83346e-05 0.000385412 0)
(-9.9387e-06 0.000392687 0)
(2.24897e-05 0.000394353 0)
(5.32484e-05 0.000390901 0)
(7.89267e-05 0.000383676 0)
(9.78892e-05 0.000373719 0)
(0.000108945 0.000361932 0)
(0.00011162 0.000349501 0)
(0.000106107 0.000337757 0)
(9.32665e-05 0.000328089 0)
(7.54084e-05 0.000325021 0)
(5.35478e-05 0.000327934 0)
(2.96088e-05 0.000334073 0)
(6.68585e-06 0.000341981 0)
(-1.25888e-05 0.000349872 0)
(-2.65757e-05 0.000355942 0)
(-3.48516e-05 0.000359282 0)
(-3.75972e-05 0.000359587 0)
(-3.61167e-05 0.000360943 0)
(-3.0771e-05 0.000360388 0)
(-2.16214e-05 0.00035586 0)
(-9.21765e-06 0.000346501 0)
(5.72321e-06 0.000331649 0)
(2.26476e-05 0.000310857 0)
(4.11775e-05 0.000283679 0)
(6.09055e-05 0.000249594 0)
(8.11962e-05 0.000208143 0)
(0.000101164 0.000159003 0)
(0.000119602 0.000102181 0)
(0.000135108 3.81384e-05 0)
(0.000147717 -3.25155e-05 0)
(0.000152557 -0.000108094 0)
(0.000148844 -0.000184481 0)
(0.000136746 -0.000258015 0)
(0.00011772 -0.000325708 0)
(9.397e-05 -0.000384919 0)
(6.79641e-05 -0.000433066 0)
(4.23595e-05 -0.00046976 0)
(1.90631e-05 -0.000495763 0)
(-1.02433e-06 -0.000512388 0)
(-1.7777e-05 -0.000520878 0)
(-3.14439e-05 -0.000522217 0)
(-4.22427e-05 -0.000517211 0)
(-5.03854e-05 -0.000506537 0)
(-5.56709e-05 -0.000490669 0)
(-5.73415e-05 -0.0004703 0)
(-5.41137e-05 -0.000446428 0)
(-4.44164e-05 -0.00042059 0)
(-2.74047e-05 -0.000395638 0)
(-3.83335e-06 -0.0003747 0)
(2.50189e-05 -0.00035956 0)
(5.98109e-05 -0.00035109 0)
(0.000101428 -0.000352253 0)
(0.000146165 -0.000365699 0)
(0.000186871 -0.000389709 0)
(0.000214311 -0.000429523 0)
(0.000203792 -0.000492958 0)
(0.000126083 -0.00055236 0)
(-1.13288e-05 -0.000544976 0)
(-0.000151548 -0.000451892 0)
(-0.000246151 -0.000314325 0)
(-0.000294894 -0.000182469 0)
(-0.000320068 -7.05906e-05 0)
(-0.000336141 2.90665e-05 0)
(-0.000347908 0.000123717 0)
(-0.000357552 0.00021661 0)
(-0.000364406 0.000308321 0)
(-0.000367695 0.000398062 0)
(-0.000367452 0.000485195 0)
(-0.000363679 0.000569119 0)
(-0.000356373 0.000649183 0)
(-0.000345653 0.000724741 0)
(-0.000331703 0.000795208 0)
(-0.000314764 0.000860088 0)
(-0.000295103 0.000919007 0)
(-0.000272983 0.00097167 0)
(-0.00024866 0.00101783 0)
(-0.000222414 0.00105729 0)
(-0.000194522 0.00108989 0)
(-0.000165279 0.00111554 0)
(-0.000134929 0.00113424 0)
(-0.00010365 0.00114597 0)
(-7.17221e-05 0.00115076 0)
(-3.96768e-05 0.00114861 0)
(-7.57722e-06 0.00114006 0)
(2.47657e-05 0.0011251 0)
(5.70564e-05 0.00110387 0)
(8.91552e-05 0.00107647 0)
(0.000120904 0.00104309 0)
(0.000152132 0.00100389 0)
(0.000182627 0.000959066 0)
(0.000212161 0.000908871 0)
(0.00024051 0.00085365 0)
(0.000267442 0.000793748 0)
(0.000292731 0.000729538 0)
(0.000316217 0.000661368 0)
(0.000337591 0.000589279 0)
(0.000358487 0.000517101 0)
(0.000377433 0.000442655 0)
(0.000394024 0.000365565 0)
(0.000407742 0.000285774 0)
(0.000417945 0.000203518 0)
(0.000423927 0.000119426 0)
(0.000424978 3.45623e-05 0)
(0.000420658 -4.96169e-05 0)
(0.000410979 -0.000131573 0)
(0.00039624 -0.000210005 0)
(0.000376847 -0.000283975 0)
(0.000353285 -0.000352975 0)
(0.000325939 -0.000416891 0)
(0.000295017 -0.000475875 0)
(0.000260445 -0.000530032 0)
(0.000223181 -0.000581614 0)
(0.000181409 -0.00062665 0)
(0.000135149 -0.000664785 0)
(8.43924e-05 -0.000695333 0)
(2.93569e-05 -0.000717498 0)
(-2.97996e-05 -0.000730205 0)
(-9.18537e-05 -0.000732137 0)
(-0.000155467 -0.000722781 0)
(-0.000219811 -0.000701351 0)
(-0.000283301 -0.000667507 0)
(-0.00034405 -0.00062306 0)
(-0.00040137 -0.000576598 0)
(-0.000461155 -0.00055359 0)
(-0.000549109 -0.000609097 0)
(-0.000709164 -0.000818496 0)
(-0.00097415 -0.00121551 0)
(-1.32786e-06 3.31792e-05 0)
(-3.45782e-05 3.40224e-05 0)
(-6.00467e-05 3.80646e-05 0)
(-9.68367e-05 4.59737e-05 0)
(-0.000142265 4.86016e-05 0)
(-0.000185864 4.43547e-05 0)
(-0.000222727 3.81444e-05 0)
(-0.000254273 3.23911e-05 0)
(-0.000281231 2.50383e-05 0)
(-0.00030038 1.33666e-05 0)
(-0.000307014 -3.12952e-06 0)
(-0.000298733 -2.26672e-05 0)
(-0.000273433 -4.32596e-05 0)
(-0.00023126 -6.22816e-05 0)
(-0.000173784 -7.57915e-05 0)
(-0.000106403 -7.99091e-05 0)
(-3.76195e-05 -7.27405e-05 0)
(2.23475e-05 -5.56027e-05 0)
(6.62627e-05 -3.10654e-05 0)
(8.95981e-05 -1.27285e-06 0)
(8.79034e-05 3.04016e-05 0)
(5.83291e-05 5.42461e-05 0)
(3.63875e-06 5.96036e-05 0)
(-6.57118e-05 5.0424e-05 0)
(-0.000144619 6.03265e-05 0)
(-0.000220578 0.000100595 0)
(-0.000274605 0.000170623 0)
(-0.000322807 0.000275605 0)
(-0.000384592 0.000334137 0)
(-0.000433174 0.000283946 0)
(-0.000428851 0.000126102 0)
(-0.000313195 -0.0001272 0)
(-6.38651e-05 -0.000364713 0)
(0.000236271 -0.000469918 0)
(0.000512338 -0.000439822 0)
(0.000695154 -0.000289441 0)
(0.000754524 -0.000141214 0)
(0.000769663 -8.04037e-05 0)
(0.000789972 -6.19138e-05 0)
(0.000809321 -5.11354e-05 0)
(0.000825427 -4.25174e-05 0)
(0.00083735 -3.47481e-05 0)
(0.00084589 -2.96387e-05 0)
(0.000852681 -2.5776e-05 0)
(0.000857225 -2.17941e-05 0)
(0.000858928 -1.73081e-05 0)
(0.000856893 -1.2103e-05 0)
(0.000850146 -6.0704e-06 0)
(0.000837875 9.68126e-07 0)
(0.000819155 9.24643e-06 0)
(0.000793017 1.88681e-05 0)
(0.000758518 2.98317e-05 0)
(0.000714726 4.2134e-05 0)
(0.000660699 5.57515e-05 0)
(0.000595482 7.05944e-05 0)
(0.000519319 8.65688e-05 0)
(0.000430533 0.000103247 0)
(0.000327976 0.000120271 0)
(0.000210169 0.000136604 0)
(7.9802e-05 0.0001514 0)
(-6.20039e-05 0.000165219 0)
(-0.000215374 0.000177594 0)
(-0.000376876 0.00018625 0)
(-0.000543969 0.000191353 0)
(-0.000713945 0.000192865 0)
(-0.000883957 0.00019098 0)
(-0.00105159 0.000186971 0)
(-0.00121563 0.000182053 0)
(-0.0013757 0.000177629 0)
(-0.00153261 0.000175381 0)
(-0.0016886 0.000176361 0)
(-0.00184633 0.000181277 0)
(-0.00200936 0.000190113 0)
(-0.00218037 0.000201097 0)
(-0.00236099 0.000211318 0)
(-0.00254942 0.000215481 0)
(-0.00274114 0.000207876 0)
(-0.00292517 0.000179418 0)
(-0.00308629 0.000122081 0)
(-0.00319858 2.74718e-05 0)
(-0.00324098 -0.00010937 0)
(-0.00316644 -0.000292611 0)
(-0.00295557 -0.000505171 0)
(-0.0025645 -0.000751133 0)
(-0.00199076 -0.00095047 0)
(-0.00113927 -0.0011337 0)
(-6.06748e-05 -0.000623146 0)
(0.000153634 0.000361644 0)
(-6.15853e-05 0.000311891 0)
(-0.000131806 -1.78512e-06 0)
(6.89538e-05 -0.00022944 0)
(0.000380359 -0.000356551 0)
(0.000738313 -0.00043567 0)
(0.00110966 -0.000424667 0)
(0.0013442 -0.000213931 0)
(0.00135896 4.5816e-05 0)
(0.00116893 0.000282575 0)
(0.000812951 0.000453584 0)
(0.000309993 0.000463932 0)
(-6.78035e-05 0.000142132 0)
(0.000107714 9.00159e-06 0)
(0.000459183 0.000472444 0)
(0.000535942 0.00129805 0)
(0.00023626 0.0016892 0)
(3.11443e-05 0.00168599 0)
(-3.69365e-05 0.00163158 0)
(-0.000118329 0.00149832 0)
(-0.000181955 0.0012746 0)
(-0.000204233 0.00101686 0)
(-0.000213847 0.000775105 0)
(-0.000207599 0.000563462 0)
(-0.00018196 0.000382916 0)
(-0.000134628 0.000237378 0)
(-7.75959e-05 0.000131205 0)
(-3.6981e-05 7.26531e-05 0)
(-3.6994e-05 3.18456e-05 0)
(-6.9515e-05 -3.35854e-05 0)
(-0.000121742 -0.000152211 0)
(-0.000188546 -0.000348079 0)
(-0.000248629 -0.000626897 0)
(-0.000275958 -0.000959298 0)
(-0.000261451 -0.00130061 0)
(-0.000205978 -0.00160613 0)
(-0.000116782 -0.00183542 0)
(-3.64994e-06 -0.00196097 0)
(0.000127161 -0.00196828 0)
(0.000263436 -0.00184468 0)
(0.000384116 -0.00159042 0)
(0.000459456 -0.00122505 0)
(0.000456746 -0.000797064 0)
(0.000344245 -0.000380317 0)
(0.000130035 -7.98424e-05 0)
(-9.59318e-05 1.59694e-05 0)
(-0.000245985 -6.33732e-05 0)
(-0.000331101 -0.00025238 0)
(-0.000384496 -0.000527459 0)
(-0.000390938 -0.000877428 0)
(-0.000289846 -0.00118916 0)
(-0.000174022 -0.00137603 0)
(-6.92172e-05 -0.00148671 0)
(0.000110844 -0.00152264 0)
(0.000324608 -0.00142882 0)
(0.00048406 -0.00124587 0)
(0.000610638 -0.00105502 0)
(0.000796794 -0.000802144 0)
(0.000877056 -0.0003447 0)
(0.00054802 0.000147023 0)
(-4.5589e-05 0.000339129 0)
(-0.000516231 0.000226857 0)
(-0.000713402 5.94667e-07 0)
(-0.000705515 -0.000185583 0)
(-0.000555069 -0.000278937 0)
(-0.000326313 -0.000266672 0)
(-3.29446e-05 -0.000173464 0)
(0.000215778 0.000121379 0)
(0.00027845 0.000610855 0)
(0.000232416 0.0010479 0)
(0.000437754 0.00133913 0)
(0.00110005 0.00178419 0)
(0.00165708 0.00274602 0)
(0.00124508 0.00376261 0)
(0.000452357 0.00402937 0)
(0.000369199 0.00397275 0)
(0.00049098 0.00422182 0)
(0.000260399 0.00445164 0)
(0.000131984 0.00444969 0)
(0.000191109 0.0045024 0)
(0.000127356 0.0046028 0)
(4.78214e-05 0.00460615 0)
(6.03759e-05 0.00460164 0)
(4.2041e-05 0.00462668 0)
(6.65095e-07 0.0046158 0)
(-2.27971e-06 0.00459108 0)
(-7.9978e-06 0.00457987 0)
(-2.74735e-05 0.0045573 0)
(-3.27677e-05 0.0045249 0)
(-3.40413e-05 0.00449786 0)
(-4.14328e-05 0.00446873 0)
(-4.48207e-05 0.00443468 0)
(-4.49409e-05 0.00440208 0)
(-4.75072e-05 0.00436961 0)
(-5.00163e-05 0.00433461 0)
(-5.13208e-05 0.00429889 0)
(-5.37627e-05 0.00426265 0)
(-5.71391e-05 0.00422439 0)
(-6.04068e-05 0.00418431 0)
(-6.40555e-05 0.0041429 0)
(-6.81506e-05 0.00409975 0)
(-7.20455e-05 0.00405499 0)
(-7.55692e-05 0.00400917 0)
(-7.87149e-05 0.00396259 0)
(-8.12321e-05 0.00391557 0)
(-8.29909e-05 0.00386864 0)
(-8.4074e-05 0.00382221 0)
(-8.4554e-05 0.00377653 0)
(-8.45026e-05 0.00373184 0)
(-8.40906e-05 0.00368832 0)
(-8.35148e-05 0.00364597 0)
(-8.29184e-05 0.00360474 0)
(-8.2446e-05 0.00356453 0)
(-8.22293e-05 0.00352519 0)
(-8.23692e-05 0.00348655 0)
(-8.29304e-05 0.00344841 0)
(-8.3953e-05 0.00341061 0)
(-8.54812e-05 0.00337297 0)
(-8.7519e-05 0.00333532 0)
(-9.00622e-05 0.00329756 0)
(-9.31087e-05 0.00325956 0)
(-9.66409e-05 0.00322124 0)
(-0.000100639 0.00318253 0)
(-0.000105066 0.00314339 0)
(-0.000109866 0.0031038 0)
(-0.000114974 0.00306378 0)
(-0.00012031 0.00302337 0)
(-0.000125742 0.00298264 0)
(-0.000131133 0.00294174 0)
(-0.000136337 0.0029008 0)
(-0.00014121 0.00286004 0)
(-0.000145698 0.00281964 0)
(-0.000149878 0.00277976 0)
(-0.000154089 0.00274044 0)
(-0.000159032 0.00270148 0)
(-0.000165853 0.00266236 0)
(-0.000176148 0.00262207 0)
(-0.000191705 0.00257904 0)
(-0.000213968 0.00253116 0)
(-0.000243147 0.00247593 0)
(-0.000277176 0.00241117 0)
(-0.000311501 0.00233823 0)
(-0.000339534 0.00226132 0)
(-0.000354184 0.00218386 0)
(-0.000351943 0.00211555 0)
(-0.000333789 0.00206623 0)
(-0.000303456 0.00204243 0)
(-0.000264425 0.0020451 0)
(-0.000215033 0.00207027 0)
(-0.000147123 0.00210858 0)
(-3.82303e-05 0.0021408 0)
(0.000159089 0.00214977 0)
(0.0005026 0.00215981 0)
(0.000974278 0.00229203 0)
(0.00138913 0.00270683 0)
(0.00151202 0.00334682 0)
(0.00131807 0.00387348 0)
(0.00105154 0.00408695 0)
(0.00089438 0.0041801 0)
(0.000767424 0.00433369 0)
(0.000591291 0.00446322 0)
(0.000414905 0.00449803 0)
(0.000263386 0.0044945 0)
(0.000118387 0.00451592 0)
(-1.70312e-05 0.00449833 0)
(-0.000132108 0.00445471 0)
(-0.000235477 0.00439852 0)
(-0.000330868 0.00432464 0)
(-0.000415446 0.00423481 0)
(-0.00049099 0.00413389 0)
(-0.000559062 0.00402246 0)
(-0.000619898 0.0039017 0)
(-0.000674486 0.00377365 0)
(-0.000723886 0.00363939 0)
(-0.000768827 0.00349982 0)
(-0.000810108 0.00335592 0)
(-0.000848503 0.00320838 0)
(-0.000884702 0.00305778 0)
(-0.000919366 0.00290455 0)
(-0.000953081 0.00274901 0)
(-0.0009864 0.0025914 0)
(-0.00101982 0.00243185 0)
(-0.00105381 0.00227045 0)
(-0.0010888 0.00210719 0)
(-0.00112523 0.00194206 0)
(-0.0011635 0.00177496 0)
(-0.001204 0.00160576 0)
(-0.00124696 0.00143427 0)
(-0.00129272 0.00126027 0)
(-0.00134239 0.00108314 0)
(-0.00139587 0.00090098 0)
(-0.00148871 0.000733126 0)
(-0.00159338 0.000556412 0)
(-0.00170196 0.000365701 0)
(-0.00180887 0.000160818 0)
(-0.00190902 -5.50042e-05 0)
(-0.00200061 -0.000276617 0)
(-0.00208594 -0.000499346 0)
(-0.00216917 -0.00072038 0)
(-0.00225536 -0.000938969 0)
(-0.00234886 -0.00115579 0)
(-0.00245376 -0.0013737 0)
(-0.00258965 -0.0016058 0)
(-0.00277272 -0.00186787 0)
(-0.00297457 -0.002137 0)
(-0.00320095 -0.0024278 0)
(-0.00344847 -0.00271309 0)
(-0.00373345 -0.00305443 0)
(-0.00402941 -0.00332981 0)
(-0.00439693 -0.00378582 0)
(-0.00470706 -0.0039428 0)
(-0.00515955 -0.00470436 0)
(-0.00515075 -0.00429115 0)
)
;
    }
    frontAndBack
    {
        type            empty;
    }
}


// ************************************************************************* //
