/*--------------------------------*- C++ -*----------------------------------*\
  =========                 |
  \\      /  F ield         | OpenFOAM: The Open Source CFD Toolbox
   \\    /   O peration     | Website:  https://openfoam.org
    \\  /    A nd           | Version:  7
     \\/     M anipulation  |
\*---------------------------------------------------------------------------*/
FoamFile
{
    version     2.0;
    format      ascii;
    class       volScalarField;
    location    "0.38";
    object      yPlus;
}
// * * * * * * * * * * * * * * * * * * * * * * * * * * * * * * * * * * * * * //

dimensions      [0 0 0 0 0 0 0];

internalField   uniform 0;

boundaryField
{
    velocityInlet
    {
        type            calculated;
        value           uniform 0;
    }
    pressureOutlet
    {
        type            calculated;
        value           uniform 0;
    }
    fixedWalls
    {
        type            calculated;
        value           nonuniform List<scalar> 
100
(
2.1785
1.48532
0.610692
0.168226
0.448075
1.16521
1.49511
1.60718
1.48817
1.22957
0.867953
0.382343
0.519505
0.713204
0.785709
0.796016
0.767521
0.712815
0.639672
0.552826
0.455789
0.354315
0.262281
0.213068
0.244076
0.334798
0.447217
0.556035
0.62979
0.622964
0.476594
0.185628
0.465575
0.44709
0.0868121
0.531929
0.732704
0.84866
0.910958
0.939652
0.948067
0.945049
0.93631
0.924854
0.911207
0.8937
0.869754
0.83789
0.799429
0.758849
0.722999
0.700181
0.697408
0.715036
0.744976
0.779235
0.822699
0.89096
0.987985
1.09618
1.19233
1.25725
1.27046
1.20406
1.0204
0.631601
0.594855
0.983489
1.12251
1.08343
0.9011
0.587837
0.300804
0.647805
0.797178
0.871384
0.907097
0.924176
0.934401
0.943833
0.953616
0.961073
0.96243
0.956132
0.943841
0.928198
0.909863
0.886476
0.850437
0.787514
0.672609
0.46467
0.254012
0.567553
0.705339
0.741075
0.690936
0.542682
0.281174
0.519434
)
;
    }
    bottomWall
    {
        type            calculated;
        value           nonuniform List<scalar> 
800
(
2.94479
1.98391
1.61344
1.44034
1.35522
1.2966
1.24766
1.20655
1.17201
1.14243
1.11662
1.09378
1.07336
1.05495
1.03824
1.02298
1.00897
0.996039
0.984063
0.972929
0.962542
0.952826
0.94371
0.935138
0.927059
0.919428
0.912208
0.905363
0.898864
0.892685
0.886799
0.881187
0.875829
0.870706
0.865804
0.861108
0.856606
0.852283
0.848131
0.844139
0.840296
0.836597
0.833032
0.829594
0.826276
0.823073
0.819976
0.816985
0.814089
0.811289
0.808941
0.806996
0.805071
0.803172
0.801297
0.799445
0.797617
0.795811
0.794026
0.792263
0.79052
0.788798
0.787097
0.785414
0.783752
0.782107
0.780482
0.778874
0.777285
0.775712
0.774157
0.772619
0.771097
0.76959
0.768101
0.766626
0.765167
0.763724
0.762294
0.760879
0.759479
0.758092
0.75672
0.75536
0.754013
0.752681
0.75136
0.750053
0.748758
0.747475
0.746204
0.744944
0.743697
0.74246
0.741236
0.740022
0.738818
0.737625
0.736444
0.735272
0.73411
0.732959
0.731817
0.730686
0.729563
0.72845
0.727347
0.726252
0.725168
0.724091
0.723023
0.721965
0.720914
0.719872
0.718839
0.717813
0.716795
0.715786
0.714784
0.71379
0.712804
0.711824
0.710853
0.709888
0.708931
0.707981
0.707037
0.706101
0.705172
0.70425
0.703333
0.702423
0.70152
0.700623
0.699732
0.698848
0.69797
0.697097
0.69623
0.695371
0.694515
0.693666
0.692823
0.691985
0.691152
0.690326
0.689504
0.688688
0.687877
0.687071
0.686394
0.68584
0.685284
0.684726
0.684168
0.683608
0.683046
0.682484
0.681919
0.681354
0.680787
0.680219
0.679648
0.679078
0.678506
0.677932
0.677356
0.67678
0.676201
0.675622
0.675042
0.674459
0.673876
0.673291
0.672706
0.672118
0.671529
0.67094
0.670348
0.669755
0.669162
0.668566
0.66797
0.667372
0.666773
0.666172
0.66557
0.664967
0.664363
0.663757
0.66315
0.662542
0.661933
0.661322
0.66071
0.660096
0.659482
0.658867
0.65825
0.657632
0.657013
0.656392
0.65577
0.655148
0.654524
0.653899
0.653272
0.652645
0.652016
0.651386
0.650756
0.650124
0.64949
0.648855
0.64822
0.647583
0.646945
0.646306
0.645666
0.645024
0.644381
0.643737
0.643092
0.642445
0.641797
0.641147
0.640497
0.639844
0.639191
0.638535
0.63788
0.63722
0.636563
0.635898
0.635239
0.634566
0.633911
0.633225
0.632578
0.631866
0.631245
0.630484
0.629921
0.629064
0.628617
0.62759
0.627346
0.626053
0.626105
0.62446
2.9448
1.98395
1.61354
1.44052
1.35548
1.29696
1.24815
1.20719
1.17281
1.14341
1.1178
1.09517
1.07497
1.0568
1.04033
1.02533
1.01159
0.998957
0.987293
0.976494
0.966472
0.95715
0.948468
0.940373
0.932823
0.925782
0.919222
0.913121
0.907461
0.902232
0.897427
0.893045
0.889094
0.885579
0.882523
0.879943
0.877871
0.876352
0.875404
0.875141
0.875487
0.876777
0.878534
0.881859
0.884727
0.891073
0.893047
0.904812
0.899293
0.888065
0.522147
0.758032
0.962511
1.1856
1.36613
1.48291
1.52025
1.46415
1.28844
0.933435
0.770742
1.41384
1.93192
2.37444
2.76269
3.10608
3.40906
3.67467
3.906
4.10603
4.27757
4.42319
4.54529
4.64603
4.72731
4.7909
4.8384
4.87126
4.89064
4.89825
4.89422
4.87992
4.8565
4.82496
4.78597
4.73937
4.68393
4.61777
4.53934
4.44865
4.34834
4.24345
4.14055
4.0468
3.96847
3.90748
3.85847
3.79914
3.70647
3.56178
3.35443
3.0828
2.75086
2.36381
1.92816
1.44929
1.09518
1.33645
1.69638
1.9404
2.07104
2.12733
2.13678
2.1513
2.13878
2.10671
2.06215
2.0129
1.96842
1.93804
1.92443
1.92243
1.92578
1.9301
1.9333
1.93412
1.9315
1.92445
1.91246
1.89609
1.87728
1.85916
1.8548
1.86302
1.87664
1.89238
1.90605
1.91363
1.9134
1.90523
1.90042
1.89094
1.87137
1.83971
1.79376
1.73104
1.6485
1.54226
1.40739
1.23774
1.02966
0.825021
0.873347
1.12903
1.37836
1.59175
1.7717
1.92077
2.03894
2.12905
2.19436
2.2382
2.26345
2.27247
2.26677
2.24794
2.21803
2.17938
2.13452
2.08685
2.0415
2.00283
1.97505
1.96688
1.99266
2.05777
2.14185
2.20584
2.21418
2.14133
1.98338
1.78747
1.58222
1.38635
1.26941
1.32272
1.50117
1.71431
1.92264
2.11489
2.28978
2.44803
2.59058
2.71838
2.83231
2.93318
3.02167
3.09836
3.16373
3.21819
3.26212
3.29579
3.31949
3.33336
3.33746
3.33199
3.31765
3.29411
3.26142
3.21951
3.16837
3.10791
3.03806
2.95872
2.86973
2.77095
2.6622
2.54332
2.41399
2.28158
2.1406
1.98983
1.8309
1.67002
1.52444
1.42944
1.42397
1.50513
1.63145
1.76784
1.89771
2.01527
2.11923
2.21039
2.29472
2.36463
2.42026
2.46162
2.48861
2.50119
2.49883
2.48213
2.45099
2.40503
2.34415
2.26951
2.18727
2.12043
2.1436
2.42074
0.462131
0.799194
1.02129
1.28007
1.53069
1.73839
1.90068
2.02987
2.13114
2.19701
2.21639
2.18364
2.08973
1.92883
1.69042
1.36431
0.942697
0.701242
0.977888
1.13745
1.15248
1.0172
0.669215
1.01603
1.60187
2.0404
2.35166
2.60118
2.7503
2.71618
2.4459
1.8481
1.79975
2.48999
3.00089
3.28725
3.42322
3.50986
3.57816
3.62534
3.66176
3.68939
3.70984
3.72521
3.73492
3.73825
3.73334
3.71796
3.69013
3.64757
3.58769
3.50753
3.40347
3.27104
3.10438
2.89874
2.64042
2.30945
1.86978
1.29641
1.28587
1.95314
2.51805
3.00029
3.42433
3.80295
4.14389
4.45349
4.7373
5.0009
5.25051
5.49172
5.73003
5.96871
6.20893
6.44755
6.67825
6.88841
7.06236
7.17494
7.20717
7.11307
6.86626
6.41581
5.70313
4.69721
2.71534
2.33748
1.95608
0.680374
1.62322
2.7086
3.59251
4.2455
4.55506
4.55904
4.25014
3.64539
2.64946
0.695884
0.786257
2.38814
3.62494
4.05213
4.06922
4.0194
3.85112
3.55989
3.18801
2.79327
2.40236
2.01232
1.61861
1.22317
0.892539
0.560771
0.720748
1.31799
1.92963
2.5438
3.11221
3.60095
3.98744
4.25418
4.39202
4.39822
4.26227
3.97364
3.5243
2.9185
2.15505
1.24344
0.940726
1.33505
1.80085
2.38465
2.97295
3.4122
3.66868
3.79442
3.81127
3.70479
3.50293
3.2622
3.0003
2.59547
1.82103
1.10356
1.91999
2.22862
2.29775
2.15015
1.74947
1.00639
1.30458
2.43606
3.29266
3.96401
4.67829
5.44726
5.95457
6.18578
6.32672
6.48815
6.60395
6.6619
6.71384
6.75695
6.77538
6.78479
6.79045
6.78549
6.77505
6.76259
6.74574
6.72582
6.705
6.68263
6.65889
6.63457
6.60947
6.58334
6.55622
6.52802
6.49845
6.46746
6.43508
6.40131
6.36631
6.33029
6.29354
6.25635
6.21904
6.18189
6.14512
6.1089
6.07334
6.03847
6.00424
5.9706
5.93742
5.90459
5.87196
5.83939
5.80675
5.77391
5.74076
5.70721
5.67317
5.63859
5.60341
5.56764
5.53129
5.49441
5.45707
5.41943
5.38164
5.34389
5.30633
5.26902
5.23184
5.19429
5.15542
5.11369
5.06709
5.01345
4.95115
4.8799
4.80359
4.72827
4.65679
4.59646
4.55503
4.53876
4.55204
4.59732
4.67703
4.79481
4.95758
5.16544
5.40088
5.64187
5.86612
6.05883
6.22566
6.36557
6.47002
6.53726
6.57133
6.57898
6.59628
6.59284
6.57265
6.5389
6.49197
6.43313
6.36363
6.28435
6.19617
6.09989
5.99614
5.88546
5.76829
5.64494
5.51564
5.38051
5.23959
5.09283
4.94014
4.78136
4.61632
4.44494
4.26719
4.0834
3.89449
3.70265
3.51184
3.32826
3.20486
3.12304
3.09762
3.14606
3.27011
3.45313
3.67188
3.9081
4.15168
4.39827
4.64684
4.91467
5.21634
5.52145
5.83327
6.14744
6.47582
6.79787
7.1563
7.47101
7.88633
8.11399
)
;
    }
    frontAndBack
    {
        type            empty;
    }
}


// ************************************************************************* //
