/*--------------------------------*- C++ -*----------------------------------*\
  =========                 |
  \\      /  F ield         | OpenFOAM: The Open Source CFD Toolbox
   \\    /   O peration     | Website:  https://openfoam.org
    \\  /    A nd           | Version:  7
     \\/     M anipulation  |
\*---------------------------------------------------------------------------*/
FoamFile
{
    version     2.0;
    format      ascii;
    class       volScalarField;
    location    "0.2";
    object      k;
}
// * * * * * * * * * * * * * * * * * * * * * * * * * * * * * * * * * * * * * //

dimensions      [0 2 -2 0 0 0 0];

internalField   nonuniform List<scalar> 
70000
(
1.08549e-05
4.21872e-06
2.82427e-06
2.31664e-06
1.99733e-06
1.75699e-06
1.56502e-06
1.40818e-06
1.27736e-06
1.16671e-06
1.07166e-06
9.89723e-07
9.17977e-07
8.55427e-07
7.99762e-07
7.50881e-07
7.06665e-07
6.67654e-07
6.31808e-07
6.00127e-07
5.70592e-07
5.44483e-07
5.19821e-07
4.98011e-07
4.77173e-07
4.58725e-07
4.40931e-07
4.25141e-07
4.09799e-07
3.96139e-07
3.82797e-07
3.7087e-07
3.59179e-07
3.48676e-07
3.38356e-07
3.29046e-07
3.19852e-07
3.11595e-07
3.03257e-07
2.96061e-07
2.88186e-07
2.82286e-07
2.74338e-07
2.70043e-07
2.61695e-07
2.59836e-07
2.51414e-07
2.61434e-07
2.51556e-07
2.66238e-07
1.72795e-05
1.13672e-05
8.52032e-06
7.00996e-06
6.0367e-06
5.3104e-06
4.73096e-06
4.25732e-06
3.86215e-06
3.52801e-06
3.24094e-06
2.99352e-06
2.7768e-06
2.5879e-06
2.41971e-06
2.27205e-06
2.13843e-06
2.02055e-06
1.91222e-06
1.81645e-06
1.72719e-06
1.64823e-06
1.5737e-06
1.50771e-06
1.44475e-06
1.38891e-06
1.33515e-06
1.28733e-06
1.24099e-06
1.19961e-06
1.15932e-06
1.12318e-06
1.08789e-06
1.05604e-06
1.0249e-06
9.9667e-07
9.68923e-07
9.43906e-07
9.18689e-07
8.96974e-07
8.73039e-07
8.55364e-07
8.3114e-07
8.18267e-07
7.93034e-07
7.85832e-07
7.61526e-07
7.80877e-07
7.6289e-07
7.83114e-07
1.937e-05
1.61296e-05
1.32909e-05
1.12891e-05
9.82783e-06
8.69527e-06
7.77749e-06
7.01997e-06
6.38319e-06
5.84219e-06
5.37556e-06
4.97238e-06
4.61814e-06
4.30886e-06
4.03279e-06
3.79012e-06
3.57003e-06
3.37567e-06
3.19676e-06
3.03843e-06
2.89075e-06
2.7599e-06
2.63642e-06
2.52682e-06
2.42238e-06
2.32945e-06
2.2402e-06
2.16048e-06
2.08349e-06
2.01439e-06
1.94745e-06
1.88699e-06
1.82837e-06
1.77501e-06
1.7233e-06
1.67594e-06
1.62982e-06
1.58791e-06
1.54581e-06
1.50965e-06
1.46939e-06
1.4402e-06
1.3994e-06
1.37792e-06
1.33615e-06
1.3219e-06
1.28186e-06
1.29819e-06
1.28865e-06
1.29472e-06
1.9861e-05
1.826e-05
1.60857e-05
1.42e-05
1.26397e-05
1.13481e-05
1.026e-05
9.33804e-06
8.54607e-06
7.86337e-06
7.26768e-06
6.74882e-06
6.28911e-06
5.88559e-06
5.52296e-06
5.20286e-06
4.91088e-06
4.65222e-06
4.41313e-06
4.20095e-06
4.00253e-06
3.8261e-06
3.65946e-06
3.51089e-06
3.36943e-06
3.24286e-06
3.12159e-06
3.01256e-06
2.90772e-06
2.81286e-06
2.72158e-06
2.63826e-06
2.55828e-06
2.4845e-06
2.41389e-06
2.34826e-06
2.28514e-06
2.22712e-06
2.16915e-06
2.11937e-06
2.06346e-06
2.02345e-06
1.96694e-06
1.93681e-06
1.88009e-06
1.85776e-06
1.80292e-06
1.80599e-06
1.80875e-06
1.79607e-06
1.99706e-05
1.78458e-05
1.6075e-05
1.47667e-05
1.36027e-05
1.25378e-05
1.15691e-05
1.07019e-05
9.92009e-06
9.22523e-06
8.60376e-06
8.05216e-06
7.55446e-06
7.1121e-06
6.70875e-06
6.34919e-06
6.0174e-06
5.72138e-06
5.44546e-06
5.19914e-06
4.96745e-06
4.76014e-06
4.56364e-06
4.38723e-06
4.21907e-06
4.06738e-06
3.92224e-06
3.7905e-06
3.66439e-06
3.54894e-06
3.43877e-06
3.33668e-06
3.23992e-06
3.14896e-06
3.06333e-06
2.98209e-06
2.90519e-06
2.83336e-06
2.76215e-06
2.7007e-06
2.63158e-06
2.58193e-06
2.51254e-06
2.47391e-06
2.4053e-06
2.37519e-06
2.31113e-06
2.29198e-06
2.29532e-06
2.26993e-06
2.00095e-05
1.47037e-05
1.37483e-05
1.32118e-05
1.25924e-05
1.19284e-05
1.12787e-05
1.06588e-05
1.00809e-05
9.54777e-06
9.04557e-06
8.5806e-06
8.14473e-06
7.7468e-06
7.37271e-06
7.0323e-06
6.71126e-06
6.42098e-06
6.14615e-06
5.89807e-06
5.66192e-06
5.44834e-06
5.24419e-06
5.05892e-06
4.88149e-06
4.71948e-06
4.56433e-06
4.42162e-06
4.28557e-06
4.15893e-06
4.03927e-06
3.926e-06
3.82032e-06
3.7184e-06
3.62435e-06
3.5327e-06
3.44758e-06
3.36629e-06
3.28674e-06
3.21694e-06
3.13946e-06
3.08207e-06
3.00514e-06
2.95846e-06
2.88366e-06
2.84497e-06
2.77997e-06
2.73764e-06
2.73392e-06
2.69646e-06
2.01332e-05
1.5467e-05
9.63468e-06
9.39954e-06
9.4948e-06
9.49448e-06
9.43627e-06
9.29885e-06
9.05734e-06
8.78442e-06
8.4881e-06
8.19198e-06
7.89797e-06
7.61673e-06
7.33726e-06
7.07901e-06
6.82918e-06
6.5976e-06
6.37159e-06
6.16306e-06
5.9596e-06
5.77199e-06
5.58953e-06
5.42101e-06
5.25775e-06
5.10578e-06
4.95978e-06
4.8228e-06
4.69269e-06
4.56858e-06
4.45263e-06
4.33953e-06
4.23597e-06
4.13264e-06
4.03945e-06
3.94545e-06
3.86012e-06
3.77599e-06
3.69538e-06
3.62218e-06
3.54371e-06
3.48155e-06
3.40505e-06
3.35109e-06
3.27953e-06
3.22891e-06
3.17236e-06
3.1131e-06
3.10172e-06
3.05401e-06
2.01713e-05
1.86756e-05
8.68993e-06
5.54087e-06
5.63177e-06
5.93687e-06
6.29561e-06
6.58193e-06
6.76137e-06
6.87087e-06
6.88977e-06
6.87056e-06
6.81754e-06
6.73069e-06
6.61833e-06
6.49812e-06
6.35867e-06
6.21891e-06
6.07431e-06
5.93487e-06
5.79259e-06
5.65725e-06
5.52177e-06
5.39324e-06
5.26642e-06
5.14688e-06
5.03156e-06
4.91977e-06
4.81379e-06
4.70866e-06
4.61167e-06
4.51281e-06
4.42422e-06
4.33159e-06
4.25025e-06
4.16428e-06
4.08843e-06
4.00996e-06
3.93729e-06
3.86736e-06
3.79685e-06
3.73471e-06
3.6676e-06
3.60958e-06
3.54986e-06
3.49063e-06
3.44598e-06
3.37918e-06
3.3633e-06
3.3192e-06
2.01672e-05
1.97238e-05
1.61659e-05
4.8589e-06
3.04277e-06
3.10676e-06
3.3768e-06
3.80784e-06
4.17373e-06
4.49272e-06
4.73946e-06
4.93003e-06
5.06942e-06
5.17104e-06
5.22872e-06
5.26588e-06
5.26976e-06
5.26171e-06
5.23965e-06
5.20316e-06
5.15477e-06
5.10139e-06
5.04099e-06
4.97773e-06
4.91084e-06
4.84063e-06
4.76983e-06
4.69615e-06
4.62606e-06
4.55196e-06
4.48456e-06
4.41138e-06
4.34732e-06
4.27611e-06
4.2153e-06
4.1471e-06
4.08871e-06
4.0251e-06
3.96937e-06
3.91084e-06
3.85683e-06
3.80185e-06
3.7515e-06
3.69669e-06
3.65356e-06
3.59529e-06
3.56296e-06
3.49953e-06
3.48274e-06
3.44948e-06
2.01477e-05
1.99342e-05
1.90651e-05
1.44955e-05
5.2374e-06
2.15404e-06
1.91494e-06
1.99492e-06
2.20928e-06
2.5091e-06
2.78455e-06
3.03904e-06
3.26302e-06
3.461e-06
3.62411e-06
3.76367e-06
3.87507e-06
3.96527e-06
4.03628e-06
4.091e-06
4.12991e-06
4.15608e-06
4.17199e-06
4.17701e-06
4.17476e-06
4.1678e-06
4.15573e-06
4.13542e-06
4.11556e-06
4.08725e-06
4.06216e-06
4.02843e-06
3.99994e-06
3.96283e-06
3.9322e-06
3.89301e-06
3.86151e-06
3.82127e-06
3.78761e-06
3.74717e-06
3.71334e-06
3.67263e-06
3.64083e-06
3.59814e-06
3.57057e-06
3.52481e-06
3.50139e-06
3.45287e-06
3.43592e-06
3.41286e-06
2.01216e-05
1.99661e-05
1.96421e-05
1.8545e-05
1.52073e-05
8.34721e-06
3.09755e-06
1.63219e-06
1.44239e-06
1.45004e-06
1.52778e-06
1.69012e-06
1.8719e-06
2.04994e-06
2.21967e-06
2.38028e-06
2.52734e-06
2.6601e-06
2.77874e-06
2.88405e-06
2.9768e-06
3.05682e-06
3.12676e-06
3.18533e-06
3.23584e-06
3.27647e-06
3.3128e-06
3.33881e-06
3.36284e-06
3.37743e-06
3.39154e-06
3.39745e-06
3.40325e-06
3.40289e-06
3.4015e-06
3.39675e-06
3.39196e-06
3.38168e-06
3.37469e-06
3.36053e-06
3.35169e-06
3.33416e-06
3.32404e-06
3.30382e-06
3.29275e-06
3.27033e-06
3.25822e-06
3.2317e-06
3.2223e-06
3.20705e-06
2.00982e-05
1.99328e-05
1.97572e-05
1.93517e-05
1.85041e-05
1.65313e-05
1.23144e-05
6.84196e-06
2.97468e-06
1.49043e-06
1.24247e-06
1.14767e-06
1.15239e-06
1.19573e-06
1.28891e-06
1.39681e-06
1.50963e-06
1.62056e-06
1.73142e-06
1.83753e-06
1.93909e-06
2.0333e-06
2.12227e-06
2.20285e-06
2.27907e-06
2.3461e-06
2.41018e-06
2.46515e-06
2.51786e-06
2.5622e-06
2.60495e-06
2.63998e-06
2.67409e-06
2.70139e-06
2.72797e-06
2.74836e-06
2.76955e-06
2.78379e-06
2.80027e-06
2.80984e-06
2.82215e-06
2.82766e-06
2.83639e-06
2.83886e-06
2.84379e-06
2.84401e-06
2.84429e-06
2.84102e-06
2.84124e-06
2.83751e-06
2.00782e-05
1.98876e-05
1.97568e-05
1.94603e-05
1.91445e-05
1.86386e-05
1.75501e-05
1.54168e-05
1.17216e-05
7.42133e-06
3.96205e-06
1.90303e-06
1.20597e-06
1.05653e-06
9.81122e-07
9.43308e-07
9.55089e-07
9.90286e-07
1.05324e-06
1.11809e-06
1.18874e-06
1.25956e-06
1.33244e-06
1.40351e-06
1.47512e-06
1.54177e-06
1.60849e-06
1.66946e-06
1.72992e-06
1.78469e-06
1.83901e-06
1.88711e-06
1.93531e-06
1.97755e-06
2.01936e-06
2.05614e-06
2.09279e-06
2.12413e-06
2.15591e-06
2.18304e-06
2.21033e-06
2.23308e-06
2.25677e-06
2.27585e-06
2.29584e-06
2.31077e-06
2.32807e-06
2.33795e-06
2.35136e-06
2.36052e-06
2.00614e-05
1.98539e-05
1.97342e-05
1.94706e-05
1.92538e-05
1.90451e-05
1.87329e-05
1.81863e-05
1.70888e-05
1.52204e-05
1.2545e-05
9.20606e-06
5.94207e-06
3.45373e-06
1.86526e-06
1.16187e-06
9.63306e-07
8.90244e-07
8.35465e-07
7.97382e-07
8.00055e-07
8.1484e-07
8.46676e-07
8.86248e-07
9.28214e-07
9.71892e-07
1.019e-06
1.06521e-06
1.11385e-06
1.16075e-06
1.20901e-06
1.25379e-06
1.29999e-06
1.34285e-06
1.38546e-06
1.42599e-06
1.46587e-06
1.5031e-06
1.53969e-06
1.57448e-06
1.60789e-06
1.63912e-06
1.67001e-06
1.69844e-06
1.72622e-06
1.75094e-06
1.77633e-06
1.79723e-06
1.81786e-06
1.83668e-06
2.00475e-05
1.98304e-05
1.97076e-05
1.94484e-05
1.92707e-05
1.91131e-05
1.89625e-05
1.87472e-05
1.8458e-05
1.79066e-05
1.70694e-05
1.56864e-05
1.38646e-05
1.15045e-05
8.81802e-06
6.20479e-06
4.03772e-06
2.47142e-06
1.48438e-06
1.02154e-06
8.59986e-07
7.97768e-07
7.49617e-07
7.10323e-07
6.82588e-07
6.82871e-07
6.89922e-07
7.06324e-07
7.2991e-07
7.55423e-07
7.82796e-07
8.10739e-07
8.41617e-07
8.72422e-07
9.04059e-07
9.36647e-07
9.69026e-07
1.00124e-06
1.03266e-06
1.06479e-06
1.09523e-06
1.12559e-06
1.15523e-06
1.18456e-06
1.2125e-06
1.23939e-06
1.26618e-06
1.2904e-06
1.31392e-06
1.3358e-06
2.00362e-05
1.98126e-05
1.96851e-05
1.94181e-05
1.92565e-05
1.91067e-05
1.89974e-05
1.88461e-05
1.87083e-05
1.84966e-05
1.82434e-05
1.78271e-05
1.7224e-05
1.63512e-05
1.51433e-05
1.3602e-05
1.17803e-05
9.68168e-06
7.52667e-06
5.51984e-06
3.8444e-06
2.57265e-06
1.6694e-06
1.12636e-06
8.6527e-07
7.58981e-07
7.08892e-07
6.7186e-07
6.35979e-07
6.09033e-07
5.90566e-07
5.88743e-07
5.92235e-07
6.00733e-07
6.14138e-07
6.30063e-07
6.46662e-07
6.64587e-07
6.82738e-07
7.03471e-07
7.23599e-07
7.45274e-07
7.66867e-07
7.89657e-07
8.11488e-07
8.3352e-07
8.55694e-07
8.76579e-07
8.97207e-07
9.17081e-07
2.00272e-05
1.97987e-05
1.96659e-05
1.93961e-05
1.92305e-05
1.90791e-05
1.89791e-05
1.88495e-05
1.87322e-05
1.85926e-05
1.84557e-05
1.82862e-05
1.80768e-05
1.7791e-05
1.74025e-05
1.68569e-05
1.61429e-05
1.52143e-05
1.40592e-05
1.27051e-05
1.11818e-05
9.49768e-06
7.76633e-06
6.115e-06
4.62194e-06
3.39219e-06
2.42314e-06
1.69163e-06
1.18952e-06
8.94943e-07
7.43861e-07
6.72265e-07
6.32319e-07
6.03008e-07
5.74977e-07
5.49255e-07
5.29521e-07
5.16636e-07
5.11984e-07
5.13287e-07
5.16984e-07
5.24399e-07
5.33016e-07
5.43771e-07
5.54127e-07
5.65719e-07
5.77721e-07
5.9006e-07
6.02581e-07
6.16178e-07
2.002e-05
1.97901e-05
1.96458e-05
1.93796e-05
1.92063e-05
1.90498e-05
1.89407e-05
1.88227e-05
1.87102e-05
1.85856e-05
1.84675e-05
1.83419e-05
1.8218e-05
1.80752e-05
1.7919e-05
1.7719e-05
1.74745e-05
1.71519e-05
1.67441e-05
1.62133e-05
1.55697e-05
1.47727e-05
1.38415e-05
1.27581e-05
1.15846e-05
1.02963e-05
8.9293e-06
7.54991e-06
6.21515e-06
4.98982e-06
3.89536e-06
2.99463e-06
2.26032e-06
1.67733e-06
1.24127e-06
9.44072e-07
7.62756e-07
6.61005e-07
6.05204e-07
5.71846e-07
5.46227e-07
5.25014e-07
5.03503e-07
4.84771e-07
4.68333e-07
4.5763e-07
4.50178e-07
4.47971e-07
4.486e-07
4.51673e-07
2.00145e-05
1.979e-05
1.96197e-05
1.93661e-05
1.91857e-05
1.90226e-05
1.89046e-05
1.87857e-05
1.86699e-05
1.8549e-05
1.84369e-05
1.83196e-05
1.82089e-05
1.80898e-05
1.79781e-05
1.78547e-05
1.77324e-05
1.75867e-05
1.74292e-05
1.72298e-05
1.69995e-05
1.6707e-05
1.63602e-05
1.59287e-05
1.54229e-05
1.48237e-05
1.41356e-05
1.33446e-05
1.24772e-05
1.15214e-05
1.05289e-05
9.462e-06
8.36081e-06
7.26227e-06
6.19539e-06
5.19348e-06
4.27654e-06
3.46506e-06
2.77874e-06
2.20256e-06
1.72499e-06
1.34194e-06
1.05008e-06
8.42732e-07
7.04908e-07
6.19235e-07
5.6521e-07
5.34945e-07
5.10679e-07
5.0238e-07
2.00102e-05
1.97939e-05
1.95932e-05
1.9352e-05
1.9167e-05
1.89966e-05
1.8871e-05
1.87489e-05
1.86296e-05
1.85053e-05
1.83907e-05
1.82727e-05
1.81639e-05
1.80513e-05
1.7946e-05
1.78356e-05
1.77306e-05
1.76194e-05
1.75142e-05
1.73989e-05
1.72834e-05
1.71514e-05
1.70091e-05
1.68408e-05
1.66496e-05
1.64217e-05
1.61592e-05
1.58466e-05
1.54877e-05
1.50697e-05
1.45971e-05
1.4066e-05
1.347e-05
1.28165e-05
1.2105e-05
1.13484e-05
1.05502e-05
9.72713e-06
8.863e-06
7.986e-06
7.11076e-06
6.25948e-06
5.44446e-06
4.68556e-06
3.99113e-06
3.37415e-06
2.84413e-06
2.40878e-06
2.03121e-06
1.74039e-06
2.0007e-05
1.98011e-05
1.95688e-05
1.93383e-05
1.91494e-05
1.89724e-05
1.88387e-05
1.87138e-05
1.85901e-05
1.8463e-05
1.83434e-05
1.82238e-05
1.81109e-05
1.79968e-05
1.7889e-05
1.77796e-05
1.76775e-05
1.75732e-05
1.74743e-05
1.73732e-05
1.72749e-05
1.71741e-05
1.70755e-05
1.69742e-05
1.68694e-05
1.67597e-05
1.66404e-05
1.65107e-05
1.63641e-05
1.62018e-05
1.60145e-05
1.58068e-05
1.55657e-05
1.52989e-05
1.49919e-05
1.46546e-05
1.42731e-05
1.38601e-05
1.34014e-05
1.29091e-05
1.23716e-05
1.18068e-05
1.12023e-05
1.05842e-05
9.93555e-06
9.29546e-06
8.62533e-06
7.98161e-06
7.33393e-06
6.73723e-06
2.00047e-05
1.98096e-05
1.95459e-05
1.9325e-05
1.9132e-05
1.89499e-05
1.88074e-05
1.86801e-05
1.85518e-05
1.84225e-05
1.82975e-05
1.81759e-05
1.80583e-05
1.79426e-05
1.78303e-05
1.77197e-05
1.76125e-05
1.75068e-05
1.74049e-05
1.73041e-05
1.72074e-05
1.71125e-05
1.70193e-05
1.69292e-05
1.68371e-05
1.67495e-05
1.66567e-05
1.65696e-05
1.64772e-05
1.63873e-05
1.62899e-05
1.61928e-05
1.6083e-05
1.59717e-05
1.58426e-05
1.57084e-05
1.55528e-05
1.53877e-05
1.51979e-05
1.49959e-05
1.47646e-05
1.45192e-05
1.42404e-05
1.39482e-05
1.36212e-05
1.32824e-05
1.2911e-05
1.25333e-05
1.2127e-05
1.17187e-05
2.0003e-05
1.98186e-05
1.95245e-05
1.93114e-05
1.91145e-05
1.89291e-05
1.87771e-05
1.86475e-05
1.85149e-05
1.83836e-05
1.82536e-05
1.813e-05
1.80077e-05
1.78903e-05
1.77733e-05
1.76612e-05
1.75496e-05
1.74418e-05
1.73361e-05
1.72327e-05
1.71316e-05
1.70336e-05
1.69368e-05
1.68454e-05
1.67509e-05
1.66671e-05
1.6578e-05
1.64977e-05
1.64133e-05
1.63348e-05
1.62541e-05
1.61772e-05
1.60949e-05
1.60198e-05
1.59377e-05
1.58622e-05
1.57777e-05
1.56965e-05
1.56065e-05
1.55163e-05
1.54158e-05
1.53132e-05
1.51952e-05
1.50759e-05
1.49399e-05
1.47966e-05
1.46383e-05
1.44729e-05
1.4288e-05
1.40969e-05
2.00018e-05
1.98273e-05
1.95049e-05
1.92969e-05
1.90967e-05
1.89098e-05
1.87482e-05
1.86159e-05
1.84796e-05
1.83466e-05
1.8212e-05
1.80863e-05
1.796e-05
1.78408e-05
1.77195e-05
1.76058e-05
1.74901e-05
1.738e-05
1.72709e-05
1.71647e-05
1.70605e-05
1.6959e-05
1.6859e-05
1.67642e-05
1.66657e-05
1.65783e-05
1.6484e-05
1.64004e-05
1.63133e-05
1.62317e-05
1.61516e-05
1.60754e-05
1.59991e-05
1.59295e-05
1.58548e-05
1.57892e-05
1.57176e-05
1.56517e-05
1.5583e-05
1.55149e-05
1.54465e-05
1.53812e-05
1.53085e-05
1.52447e-05
1.51712e-05
1.50985e-05
1.50221e-05
1.49429e-05
1.48539e-05
1.47656e-05
2.00009e-05
1.98305e-05
1.94886e-05
1.92819e-05
1.9079e-05
1.88922e-05
1.87214e-05
1.85859e-05
1.84466e-05
1.83118e-05
1.81735e-05
1.80455e-05
1.79157e-05
1.77948e-05
1.76698e-05
1.75543e-05
1.74349e-05
1.73227e-05
1.72105e-05
1.71016e-05
1.69945e-05
1.68899e-05
1.67874e-05
1.66893e-05
1.65874e-05
1.64974e-05
1.63986e-05
1.63122e-05
1.6221e-05
1.61355e-05
1.60521e-05
1.59707e-05
1.58896e-05
1.58166e-05
1.57372e-05
1.56704e-05
1.55955e-05
1.55297e-05
1.54623e-05
1.53988e-05
1.53365e-05
1.52776e-05
1.52119e-05
1.51593e-05
1.50957e-05
1.50384e-05
1.49783e-05
1.49175e-05
1.48504e-05
1.47874e-05
2.00003e-05
1.98289e-05
1.94754e-05
1.92662e-05
1.90614e-05
1.88763e-05
1.86972e-05
1.85577e-05
1.84161e-05
1.82798e-05
1.81384e-05
1.80083e-05
1.78756e-05
1.77531e-05
1.76247e-05
1.75079e-05
1.7385e-05
1.72711e-05
1.71558e-05
1.70448e-05
1.69346e-05
1.68276e-05
1.67224e-05
1.66214e-05
1.65167e-05
1.64242e-05
1.6322e-05
1.62333e-05
1.61383e-05
1.60503e-05
1.59634e-05
1.58787e-05
1.57938e-05
1.57178e-05
1.56339e-05
1.55636e-05
1.54846e-05
1.54151e-05
1.53422e-05
1.52745e-05
1.52071e-05
1.51441e-05
1.50749e-05
1.50202e-05
1.49525e-05
1.48954e-05
1.48352e-05
1.47753e-05
1.47131e-05
1.46545e-05
2e-05
1.98272e-05
1.94642e-05
1.92488e-05
1.90433e-05
1.88617e-05
1.86754e-05
1.85315e-05
1.83883e-05
1.82507e-05
1.8107e-05
1.7975e-05
1.78401e-05
1.77162e-05
1.75852e-05
1.74671e-05
1.73414e-05
1.7226e-05
1.71077e-05
1.69952e-05
1.68819e-05
1.67734e-05
1.66652e-05
1.65617e-05
1.64547e-05
1.63595e-05
1.62547e-05
1.61636e-05
1.60654e-05
1.59757e-05
1.5885e-05
1.57987e-05
1.57102e-05
1.5632e-05
1.55451e-05
1.54714e-05
1.53898e-05
1.53172e-05
1.52397e-05
1.517e-05
1.50975e-05
1.50307e-05
1.49582e-05
1.48983e-05
1.4826e-05
1.47658e-05
1.46989e-05
1.46345e-05
1.4567e-05
1.45025e-05
1.99999e-05
1.9826e-05
1.9456e-05
1.9231e-05
1.90252e-05
1.88487e-05
1.86567e-05
1.85081e-05
1.83634e-05
1.82251e-05
1.80798e-05
1.79463e-05
1.78096e-05
1.76848e-05
1.75519e-05
1.74328e-05
1.73048e-05
1.71884e-05
1.70674e-05
1.6954e-05
1.68376e-05
1.67283e-05
1.66169e-05
1.65116e-05
1.64025e-05
1.63045e-05
1.61978e-05
1.61042e-05
1.60032e-05
1.59124e-05
1.58177e-05
1.57304e-05
1.56388e-05
1.55584e-05
1.54696e-05
1.53925e-05
1.53091e-05
1.5234e-05
1.51531e-05
1.5082e-05
1.50051e-05
1.49362e-05
1.4861e-05
1.47964e-05
1.47211e-05
1.46581e-05
1.45851e-05
1.45183e-05
1.44459e-05
1.43766e-05
1.99999e-05
1.98254e-05
1.94509e-05
1.92139e-05
1.9008e-05
1.88377e-05
1.86417e-05
1.84882e-05
1.83423e-05
1.82037e-05
1.80574e-05
1.7923e-05
1.77851e-05
1.76596e-05
1.75257e-05
1.74056e-05
1.72762e-05
1.71591e-05
1.70359e-05
1.69219e-05
1.6803e-05
1.66931e-05
1.65788e-05
1.64721e-05
1.63611e-05
1.62607e-05
1.61524e-05
1.60564e-05
1.59531e-05
1.58611e-05
1.57628e-05
1.56746e-05
1.55805e-05
1.5498e-05
1.54075e-05
1.53277e-05
1.52424e-05
1.51653e-05
1.50817e-05
1.5009e-05
1.49285e-05
1.48581e-05
1.47806e-05
1.4712e-05
1.46346e-05
1.45689e-05
1.44909e-05
1.44227e-05
1.43458e-05
1.42731e-05
1.99999e-05
1.98251e-05
1.94486e-05
1.91986e-05
1.89924e-05
1.88286e-05
1.86308e-05
1.84727e-05
1.83253e-05
1.81871e-05
1.80403e-05
1.79057e-05
1.7767e-05
1.76413e-05
1.75072e-05
1.73863e-05
1.72564e-05
1.71389e-05
1.70141e-05
1.68997e-05
1.6779e-05
1.66688e-05
1.65519e-05
1.64444e-05
1.63316e-05
1.62294e-05
1.61196e-05
1.60216e-05
1.59163e-05
1.5823e-05
1.5722e-05
1.56325e-05
1.55365e-05
1.54519e-05
1.53598e-05
1.5278e-05
1.51904e-05
1.51119e-05
1.50259e-05
1.49514e-05
1.48683e-05
1.4796e-05
1.47165e-05
1.46446e-05
1.45649e-05
1.44968e-05
1.44149e-05
1.4345e-05
1.42639e-05
1.41886e-05
1.99999e-05
1.98253e-05
1.94488e-05
1.91857e-05
1.89787e-05
1.88214e-05
1.86242e-05
1.84617e-05
1.83127e-05
1.81754e-05
1.8029e-05
1.78946e-05
1.77557e-05
1.76304e-05
1.74968e-05
1.73757e-05
1.72459e-05
1.71283e-05
1.70027e-05
1.68882e-05
1.67666e-05
1.6656e-05
1.65373e-05
1.64292e-05
1.63151e-05
1.62116e-05
1.61004e-05
1.60008e-05
1.5894e-05
1.57992e-05
1.56963e-05
1.56055e-05
1.5508e-05
1.54215e-05
1.53277e-05
1.52445e-05
1.51546e-05
1.5075e-05
1.49868e-05
1.49105e-05
1.48252e-05
1.47508e-05
1.46695e-05
1.45948e-05
1.45125e-05
1.44419e-05
1.43571e-05
1.4285e-05
1.41997e-05
1.41226e-05
1.99999e-05
1.9826e-05
1.94515e-05
1.91757e-05
1.89673e-05
1.88156e-05
1.86218e-05
1.84556e-05
1.83049e-05
1.81687e-05
1.80234e-05
1.78899e-05
1.77515e-05
1.76272e-05
1.74947e-05
1.73742e-05
1.72452e-05
1.71282e-05
1.70024e-05
1.68882e-05
1.67665e-05
1.66557e-05
1.65359e-05
1.64276e-05
1.63125e-05
1.62082e-05
1.60958e-05
1.5995e-05
1.58871e-05
1.57909e-05
1.56865e-05
1.55947e-05
1.54958e-05
1.54078e-05
1.53124e-05
1.52281e-05
1.51361e-05
1.50554e-05
1.49653e-05
1.48873e-05
1.48e-05
1.47238e-05
1.46403e-05
1.45634e-05
1.44787e-05
1.4405e-05
1.43181e-05
1.42435e-05
1.41539e-05
1.40755e-05
1.99999e-05
1.98272e-05
1.94567e-05
1.91694e-05
1.89586e-05
1.88115e-05
1.86232e-05
1.84545e-05
1.83019e-05
1.81671e-05
1.80236e-05
1.78917e-05
1.77542e-05
1.76313e-05
1.75e-05
1.73805e-05
1.72525e-05
1.71363e-05
1.70108e-05
1.68973e-05
1.67758e-05
1.66651e-05
1.65448e-05
1.64368e-05
1.63212e-05
1.62166e-05
1.61033e-05
1.60021e-05
1.58934e-05
1.57964e-05
1.56911e-05
1.55987e-05
1.54989e-05
1.541e-05
1.53134e-05
1.52284e-05
1.51351e-05
1.50534e-05
1.49619e-05
1.48825e-05
1.47935e-05
1.47158e-05
1.46297e-05
1.45511e-05
1.4464e-05
1.43871e-05
1.42985e-05
1.42209e-05
1.41274e-05
1.40477e-05
1.99999e-05
1.98288e-05
1.9464e-05
1.91668e-05
1.89528e-05
1.88088e-05
1.86284e-05
1.84579e-05
1.83034e-05
1.81701e-05
1.80287e-05
1.78989e-05
1.77628e-05
1.76422e-05
1.7513e-05
1.73955e-05
1.72693e-05
1.71548e-05
1.70302e-05
1.69184e-05
1.67977e-05
1.66875e-05
1.65672e-05
1.64598e-05
1.6344e-05
1.62394e-05
1.61253e-05
1.60239e-05
1.59145e-05
1.58167e-05
1.57106e-05
1.56177e-05
1.55167e-05
1.54269e-05
1.53292e-05
1.52433e-05
1.51488e-05
1.50661e-05
1.49734e-05
1.48928e-05
1.48023e-05
1.47237e-05
1.46351e-05
1.45553e-05
1.44662e-05
1.43869e-05
1.4297e-05
1.42163e-05
1.412e-05
1.40386e-05
1.99999e-05
1.9831e-05
1.94732e-05
1.9168e-05
1.89501e-05
1.88077e-05
1.86364e-05
1.84662e-05
1.83095e-05
1.81775e-05
1.80389e-05
1.7912e-05
1.77779e-05
1.76602e-05
1.75333e-05
1.74185e-05
1.72944e-05
1.71821e-05
1.70591e-05
1.69493e-05
1.68299e-05
1.67208e-05
1.66012e-05
1.64951e-05
1.63797e-05
1.62756e-05
1.61612e-05
1.60603e-05
1.59507e-05
1.58526e-05
1.57463e-05
1.56535e-05
1.55517e-05
1.54618e-05
1.53633e-05
1.52769e-05
1.51816e-05
1.50981e-05
1.50041e-05
1.49221e-05
1.483e-05
1.47503e-05
1.46585e-05
1.45773e-05
1.44856e-05
1.44039e-05
1.43117e-05
1.42275e-05
1.41293e-05
1.40452e-05
1.99999e-05
1.98337e-05
1.94841e-05
1.9173e-05
1.89505e-05
1.88084e-05
1.86468e-05
1.84786e-05
1.83201e-05
1.81892e-05
1.80535e-05
1.79298e-05
1.77982e-05
1.76838e-05
1.75597e-05
1.74479e-05
1.73263e-05
1.72168e-05
1.7096e-05
1.69888e-05
1.68709e-05
1.67633e-05
1.66451e-05
1.65406e-05
1.64261e-05
1.63227e-05
1.62084e-05
1.61088e-05
1.59989e-05
1.59012e-05
1.57952e-05
1.57024e-05
1.56002e-05
1.55106e-05
1.54116e-05
1.5325e-05
1.52297e-05
1.51457e-05
1.50508e-05
1.49682e-05
1.48751e-05
1.47947e-05
1.47002e-05
1.46183e-05
1.45241e-05
1.44411e-05
1.43465e-05
1.42585e-05
1.41591e-05
1.40708e-05
1.99999e-05
1.98368e-05
1.94959e-05
1.9182e-05
1.89542e-05
1.88112e-05
1.86591e-05
1.84946e-05
1.83344e-05
1.82045e-05
1.80717e-05
1.79516e-05
1.7823e-05
1.77121e-05
1.75911e-05
1.74828e-05
1.73642e-05
1.72579e-05
1.71397e-05
1.70356e-05
1.69196e-05
1.6814e-05
1.66977e-05
1.65951e-05
1.64819e-05
1.63794e-05
1.62659e-05
1.61679e-05
1.60578e-05
1.59611e-05
1.58554e-05
1.5763e-05
1.56609e-05
1.55719e-05
1.54724e-05
1.53861e-05
1.5291e-05
1.52066e-05
1.51111e-05
1.5028e-05
1.49343e-05
1.48528e-05
1.4756e-05
1.4674e-05
1.45768e-05
1.44936e-05
1.43955e-05
1.43053e-05
1.42052e-05
1.41125e-05
1.99999e-05
1.98403e-05
1.95087e-05
1.9194e-05
1.89613e-05
1.88165e-05
1.86729e-05
1.85138e-05
1.83525e-05
1.82231e-05
1.80929e-05
1.79767e-05
1.78514e-05
1.77445e-05
1.76267e-05
1.75223e-05
1.74069e-05
1.73042e-05
1.71891e-05
1.70883e-05
1.69744e-05
1.68713e-05
1.67575e-05
1.66569e-05
1.65454e-05
1.6444e-05
1.6332e-05
1.62355e-05
1.61256e-05
1.60307e-05
1.59252e-05
1.58336e-05
1.5732e-05
1.56435e-05
1.5544e-05
1.54586e-05
1.53635e-05
1.52788e-05
1.51834e-05
1.50998e-05
1.50057e-05
1.49226e-05
1.48247e-05
1.47423e-05
1.46423e-05
1.45594e-05
1.44566e-05
1.43666e-05
1.42635e-05
1.4168e-05
1.99999e-05
1.98441e-05
1.9522e-05
1.92087e-05
1.89716e-05
1.88243e-05
1.86879e-05
1.85354e-05
1.83737e-05
1.82446e-05
1.81167e-05
1.80043e-05
1.78828e-05
1.77797e-05
1.76655e-05
1.75652e-05
1.74532e-05
1.73546e-05
1.7243e-05
1.71455e-05
1.70341e-05
1.69342e-05
1.68228e-05
1.67246e-05
1.6615e-05
1.6515e-05
1.64053e-05
1.63096e-05
1.62012e-05
1.61079e-05
1.60024e-05
1.59124e-05
1.58112e-05
1.57237e-05
1.56244e-05
1.55402e-05
1.5445e-05
1.53608e-05
1.52656e-05
1.51813e-05
1.50872e-05
1.50022e-05
1.49046e-05
1.48203e-05
1.4719e-05
1.46355e-05
1.45282e-05
1.44402e-05
1.43313e-05
1.42371e-05
1.99999e-05
1.98481e-05
1.95355e-05
1.92258e-05
1.89852e-05
1.88348e-05
1.87039e-05
1.85587e-05
1.83976e-05
1.82685e-05
1.81423e-05
1.8034e-05
1.79163e-05
1.78171e-05
1.77067e-05
1.76105e-05
1.7502e-05
1.74079e-05
1.73e-05
1.7206e-05
1.70973e-05
1.70011e-05
1.6892e-05
1.67968e-05
1.6689e-05
1.65912e-05
1.64834e-05
1.63889e-05
1.62829e-05
1.61903e-05
1.60858e-05
1.59973e-05
1.58967e-05
1.58105e-05
1.57115e-05
1.56288e-05
1.55333e-05
1.54506e-05
1.53549e-05
1.52705e-05
1.51763e-05
1.50896e-05
1.49933e-05
1.49055e-05
1.48051e-05
1.47186e-05
1.46098e-05
1.45219e-05
1.44077e-05
1.43165e-05
1.99999e-05
1.98522e-05
1.95489e-05
1.92448e-05
1.90017e-05
1.8848e-05
1.87208e-05
1.85832e-05
1.84239e-05
1.82944e-05
1.81695e-05
1.80651e-05
1.7951e-05
1.78559e-05
1.77496e-05
1.76573e-05
1.75526e-05
1.74633e-05
1.73589e-05
1.72685e-05
1.71631e-05
1.70706e-05
1.69638e-05
1.68723e-05
1.67659e-05
1.6671e-05
1.65643e-05
1.64725e-05
1.63685e-05
1.62764e-05
1.61736e-05
1.60862e-05
1.59871e-05
1.59016e-05
1.58033e-05
1.57225e-05
1.56268e-05
1.5546e-05
1.54487e-05
1.53659e-05
1.52703e-05
1.51838e-05
1.50872e-05
1.49966e-05
1.4898e-05
1.48068e-05
1.46998e-05
1.46077e-05
1.4493e-05
1.44012e-05
1.99999e-05
1.98564e-05
1.95623e-05
1.92651e-05
1.90208e-05
1.88638e-05
1.87385e-05
1.86085e-05
1.84519e-05
1.83218e-05
1.8198e-05
1.80969e-05
1.79864e-05
1.78956e-05
1.7793e-05
1.77048e-05
1.76044e-05
1.75195e-05
1.74186e-05
1.73325e-05
1.72305e-05
1.71413e-05
1.70372e-05
1.69496e-05
1.68447e-05
1.67529e-05
1.66473e-05
1.65592e-05
1.64555e-05
1.63654e-05
1.6264e-05
1.61779e-05
1.60806e-05
1.59949e-05
1.58991e-05
1.5819e-05
1.57241e-05
1.56444e-05
1.55459e-05
1.54657e-05
1.53671e-05
1.52831e-05
1.5183e-05
1.50934e-05
1.49936e-05
1.49001e-05
1.47941e-05
1.46966e-05
1.45848e-05
1.44888e-05
1.99999e-05
1.98606e-05
1.95756e-05
1.92864e-05
1.90424e-05
1.8882e-05
1.87572e-05
1.86342e-05
1.84809e-05
1.83506e-05
1.82272e-05
1.81289e-05
1.80222e-05
1.79355e-05
1.78364e-05
1.77526e-05
1.76564e-05
1.75756e-05
1.74787e-05
1.7397e-05
1.72981e-05
1.72123e-05
1.71116e-05
1.70273e-05
1.69241e-05
1.68354e-05
1.67317e-05
1.66468e-05
1.65431e-05
1.64564e-05
1.63551e-05
1.62716e-05
1.61745e-05
1.60901e-05
1.59972e-05
1.59163e-05
1.58239e-05
1.57432e-05
1.56462e-05
1.55669e-05
1.54663e-05
1.53844e-05
1.52799e-05
1.51943e-05
1.50897e-05
1.49979e-05
1.48884e-05
1.47899e-05
1.46785e-05
1.45799e-05
1.99999e-05
1.98647e-05
1.95885e-05
1.93082e-05
1.90658e-05
1.89023e-05
1.87773e-05
1.86597e-05
1.85106e-05
1.83804e-05
1.82567e-05
1.81608e-05
1.8058e-05
1.79748e-05
1.78794e-05
1.78003e-05
1.77077e-05
1.76311e-05
1.75385e-05
1.7461e-05
1.73651e-05
1.72832e-05
1.7186e-05
1.71044e-05
1.70037e-05
1.69179e-05
1.68168e-05
1.67333e-05
1.66314e-05
1.65474e-05
1.64466e-05
1.63655e-05
1.62675e-05
1.61871e-05
1.60945e-05
1.60142e-05
1.59241e-05
1.58415e-05
1.57489e-05
1.56666e-05
1.55677e-05
1.54842e-05
1.53795e-05
1.52949e-05
1.51867e-05
1.50965e-05
1.49825e-05
1.4886e-05
1.47721e-05
1.46736e-05
1.99999e-05
1.98689e-05
1.96012e-05
1.93303e-05
1.90904e-05
1.89247e-05
1.87985e-05
1.86851e-05
1.85408e-05
1.84107e-05
1.82863e-05
1.81926e-05
1.8093e-05
1.80132e-05
1.79218e-05
1.7847e-05
1.7758e-05
1.76858e-05
1.75973e-05
1.75236e-05
1.74313e-05
1.73536e-05
1.72592e-05
1.71803e-05
1.70828e-05
1.69999e-05
1.6901e-05
1.68186e-05
1.672e-05
1.66369e-05
1.65381e-05
1.64574e-05
1.63606e-05
1.62841e-05
1.61896e-05
1.61131e-05
1.60218e-05
1.59409e-05
1.58504e-05
1.57649e-05
1.56696e-05
1.55821e-05
1.5481e-05
1.53925e-05
1.52852e-05
1.51925e-05
1.50783e-05
1.49818e-05
1.48655e-05
1.47675e-05
1.99999e-05
1.98729e-05
1.9614e-05
1.93521e-05
1.91159e-05
1.89491e-05
1.88207e-05
1.87105e-05
1.85709e-05
1.8441e-05
1.83161e-05
1.82237e-05
1.8127e-05
1.8051e-05
1.79632e-05
1.78921e-05
1.78072e-05
1.77394e-05
1.76544e-05
1.75848e-05
1.74964e-05
1.74225e-05
1.73306e-05
1.72551e-05
1.71607e-05
1.70805e-05
1.69834e-05
1.69032e-05
1.68071e-05
1.67249e-05
1.66283e-05
1.65475e-05
1.64539e-05
1.63778e-05
1.6284e-05
1.62109e-05
1.6117e-05
1.60413e-05
1.59473e-05
1.5864e-05
1.57687e-05
1.56803e-05
1.55803e-05
1.54886e-05
1.53825e-05
1.52869e-05
1.51742e-05
1.50759e-05
1.49583e-05
1.48603e-05
1.99999e-05
1.98768e-05
1.96265e-05
1.93734e-05
1.9142e-05
1.89746e-05
1.88444e-05
1.87363e-05
1.86003e-05
1.84714e-05
1.83458e-05
1.82537e-05
1.816e-05
1.80877e-05
1.80029e-05
1.79358e-05
1.78552e-05
1.77913e-05
1.77099e-05
1.76447e-05
1.75598e-05
1.74896e-05
1.74007e-05
1.73285e-05
1.72365e-05
1.71594e-05
1.70643e-05
1.69867e-05
1.68915e-05
1.68117e-05
1.67161e-05
1.66368e-05
1.65451e-05
1.64682e-05
1.63785e-05
1.63047e-05
1.62123e-05
1.61388e-05
1.60412e-05
1.59633e-05
1.58641e-05
1.57786e-05
1.56755e-05
1.55844e-05
1.54764e-05
1.53813e-05
1.52677e-05
1.51683e-05
1.50499e-05
1.49519e-05
1.99999e-05
1.98806e-05
1.96385e-05
1.93947e-05
1.91682e-05
1.90011e-05
1.88696e-05
1.87621e-05
1.86293e-05
1.85017e-05
1.8375e-05
1.8283e-05
1.81919e-05
1.81226e-05
1.80412e-05
1.79782e-05
1.79011e-05
1.78413e-05
1.77641e-05
1.77027e-05
1.7621e-05
1.7555e-05
1.74693e-05
1.73999e-05
1.73103e-05
1.72366e-05
1.71438e-05
1.70682e-05
1.69739e-05
1.68968e-05
1.68017e-05
1.67248e-05
1.66326e-05
1.6558e-05
1.64705e-05
1.63954e-05
1.63075e-05
1.62308e-05
1.61361e-05
1.60589e-05
1.5958e-05
1.58738e-05
1.57689e-05
1.56784e-05
1.55685e-05
1.54739e-05
1.53587e-05
1.52593e-05
1.51405e-05
1.50425e-05
1.99999e-05
1.98844e-05
1.96501e-05
1.94156e-05
1.91941e-05
1.90285e-05
1.88959e-05
1.87883e-05
1.86581e-05
1.85313e-05
1.84038e-05
1.83117e-05
1.82222e-05
1.81559e-05
1.80782e-05
1.80188e-05
1.79452e-05
1.78898e-05
1.78165e-05
1.77586e-05
1.76804e-05
1.76187e-05
1.75359e-05
1.74693e-05
1.73824e-05
1.73119e-05
1.72212e-05
1.71474e-05
1.7055e-05
1.69793e-05
1.68854e-05
1.681e-05
1.67183e-05
1.66467e-05
1.65579e-05
1.6486e-05
1.63986e-05
1.63208e-05
1.62308e-05
1.61497e-05
1.60511e-05
1.5966e-05
1.58614e-05
1.57695e-05
1.56595e-05
1.55637e-05
1.54481e-05
1.53491e-05
1.52303e-05
1.51321e-05
1.99999e-05
1.98879e-05
1.96615e-05
1.94357e-05
1.922e-05
1.90565e-05
1.89228e-05
1.88151e-05
1.86863e-05
1.856e-05
1.84322e-05
1.83394e-05
1.82512e-05
1.81877e-05
1.81134e-05
1.80574e-05
1.79877e-05