/*--------------------------------*- C++ -*----------------------------------*\
  =========                 |
  \\      /  F ield         | OpenFOAM: The Open Source CFD Toolbox
   \\    /   O peration     | Website:  https://openfoam.org
    \\  /    A nd           | Version:  7
     \\/     M anipulation  |
\*---------------------------------------------------------------------------*/
FoamFile
{
    version     2.0;
    format      ascii;
    class       volScalarField;
    location    "0.2";
    object      k_0;
}
// * * * * * * * * * * * * * * * * * * * * * * * * * * * * * * * * * * * * * //

dimensions      [0 2 -2 0 0 0 0];

internalField   nonuniform List<scalar> 
70000
(
1.08549e-05
4.21872e-06
2.82427e-06
2.31664e-06
1.99733e-06
1.75699e-06
1.56502e-06
1.40818e-06
1.27736e-06
1.16671e-06
1.07166e-06
9.89722e-07
9.17977e-07
8.55427e-07
7.99761e-07
7.5088e-07
7.06664e-07
6.67653e-07
6.31807e-07
6.00126e-07
5.70591e-07
5.44482e-07
5.19819e-07
4.9801e-07
4.77171e-07
4.58725e-07
4.40929e-07
4.2514e-07
4.09796e-07
3.96138e-07
3.82794e-07
3.70868e-07
3.59176e-07
3.48674e-07
3.38352e-07
3.29044e-07
3.19848e-07
3.11591e-07
3.03253e-07
2.96055e-07
2.88183e-07
2.82279e-07
2.74333e-07
2.70036e-07
2.61688e-07
2.5982e-07
2.51405e-07
2.61414e-07
2.51527e-07
2.66206e-07
1.72795e-05
1.13672e-05
8.52032e-06
7.00996e-06
6.0367e-06
5.3104e-06
4.73096e-06
4.25732e-06
3.86215e-06
3.52801e-06
3.24094e-06
2.99352e-06
2.7768e-06
2.58789e-06
2.41971e-06
2.27205e-06
2.13843e-06
2.02055e-06
1.91221e-06
1.81645e-06
1.72718e-06
1.64823e-06
1.57369e-06
1.50771e-06
1.44474e-06
1.38891e-06
1.33514e-06
1.28733e-06
1.24098e-06
1.19961e-06
1.15931e-06
1.12317e-06
1.08788e-06
1.05604e-06
1.02489e-06
9.96663e-07
9.68911e-07
9.43895e-07
9.18678e-07
8.96957e-07
8.73029e-07
8.55342e-07
8.31127e-07
8.18246e-07
7.93011e-07
7.85794e-07
7.61495e-07
7.80837e-07
7.62797e-07
7.83e-07
1.937e-05
1.61296e-05
1.32909e-05
1.12891e-05
9.82783e-06
8.69527e-06
7.7775e-06
7.01997e-06
6.3832e-06
5.84219e-06
5.37556e-06
4.97238e-06
4.61814e-06
4.30886e-06
4.03279e-06
3.79012e-06
3.57002e-06
3.37567e-06
3.19675e-06
3.03843e-06
2.89075e-06
2.7599e-06
2.63641e-06
2.52681e-06
2.42237e-06
2.32944e-06
2.24019e-06
2.16047e-06
2.08348e-06
2.01439e-06
1.94744e-06
1.88698e-06
1.82835e-06
1.775e-06
1.72328e-06
1.67593e-06
1.6298e-06
1.58789e-06
1.5458e-06
1.50962e-06
1.46937e-06
1.44016e-06
1.39938e-06
1.37789e-06
1.33611e-06
1.32185e-06
1.28181e-06
1.29814e-06
1.28846e-06
1.29452e-06
1.9861e-05
1.826e-05
1.60857e-05
1.42e-05
1.26397e-05
1.13481e-05
1.026e-05
9.33804e-06
8.54608e-06
7.86336e-06
7.26768e-06
6.74882e-06
6.2891e-06
5.88558e-06
5.52296e-06
5.20285e-06
4.91088e-06
4.65222e-06
4.41313e-06
4.20095e-06
4.00252e-06
3.8261e-06
3.65945e-06
3.51089e-06
3.36942e-06
3.24286e-06
3.12158e-06
3.01256e-06
2.90771e-06
2.81285e-06
2.72156e-06
2.63826e-06
2.55826e-06
2.48449e-06
2.41387e-06
2.34825e-06
2.28512e-06
2.22709e-06
2.16913e-06
2.11932e-06
2.06345e-06
2.0234e-06
1.96691e-06
1.93677e-06
1.88003e-06
1.8577e-06
1.80285e-06
1.80596e-06
1.80854e-06
1.7958e-06
1.99706e-05
1.78458e-05
1.6075e-05
1.47667e-05
1.36027e-05
1.25378e-05
1.15691e-05
1.07019e-05
9.92009e-06
9.22522e-06
8.60375e-06
8.05216e-06
7.55445e-06
7.11209e-06
6.70875e-06
6.34919e-06
6.01739e-06
5.72138e-06
5.44546e-06
5.19915e-06
4.96744e-06
4.76015e-06
4.56364e-06
4.38724e-06
4.21906e-06
4.06739e-06
3.92223e-06
3.7905e-06
3.66438e-06
3.54894e-06
3.43875e-06
3.33668e-06
3.2399e-06
3.14895e-06
3.06331e-06
2.98207e-06
2.90518e-06
2.83332e-06
2.76215e-06
2.70064e-06
2.63157e-06
2.58188e-06
2.5125e-06
2.47387e-06
2.40523e-06
2.37513e-06
2.31102e-06
2.29196e-06
2.29516e-06
2.26966e-06
2.00095e-05
1.47037e-05
1.37483e-05
1.32118e-05
1.25924e-05
1.19284e-05
1.12787e-05
1.06588e-05
1.00809e-05
9.54776e-06
9.04557e-06
8.58059e-06
8.14472e-06
7.74679e-06
7.3727e-06
7.03231e-06
6.71126e-06
6.42099e-06
6.14615e-06
5.89808e-06
5.66192e-06
5.44835e-06
5.24419e-06
5.05894e-06
4.88148e-06
4.71949e-06
4.56433e-06
4.42163e-06
4.28556e-06
4.15894e-06
4.03926e-06
3.926e-06
3.8203e-06
3.7184e-06
3.62434e-06
3.53268e-06
3.44758e-06
3.36625e-06
3.28675e-06
3.21688e-06
3.13946e-06
3.08201e-06
3.00511e-06
2.95843e-06
2.88357e-06
2.84496e-06
2.77982e-06
2.73765e-06
2.73381e-06
2.69618e-06
2.01332e-05
1.54669e-05
9.63468e-06
9.39954e-06
9.49481e-06
9.49448e-06
9.43627e-06
9.29885e-06
9.05733e-06
8.78441e-06
8.48809e-06
8.19197e-06
7.89795e-06
7.61672e-06
7.33726e-06
7.07901e-06
6.82917e-06
6.59762e-06
6.37159e-06
6.16308e-06
5.95961e-06
5.77201e-06
5.58953e-06
5.42103e-06
5.25775e-06
5.1058e-06
4.95978e-06
4.82282e-06
4.69269e-06
4.5686e-06
4.45263e-06
4.33954e-06
4.23597e-06
4.13264e-06
4.03946e-06
3.94544e-06
3.86013e-06
3.77595e-06
3.6954e-06
3.62213e-06
3.54372e-06
3.48151e-06
3.40501e-06
3.35108e-06
3.27944e-06
3.22893e-06
3.17222e-06
3.11311e-06
3.10165e-06
3.05371e-06
2.01713e-05
1.86756e-05
8.68991e-06
5.54088e-06
5.63177e-06
5.93688e-06
6.29562e-06
6.58192e-06
6.76137e-06
6.87086e-06
6.88976e-06
6.87054e-06
6.81753e-06
6.73068e-06
6.61832e-06
6.49812e-06
6.35867e-06
6.21893e-06
6.07432e-06
5.93489e-06
5.7926e-06
5.65728e-06
5.52179e-06
5.39328e-06
5.26644e-06
5.14691e-06
5.03158e-06
4.9198e-06
4.8138e-06
4.70869e-06
4.61168e-06
4.51283e-06
4.42424e-06
4.3316e-06
4.25028e-06
4.16428e-06
4.08846e-06
4.00994e-06
3.93733e-06
3.86733e-06
3.79687e-06
3.73469e-06
3.66757e-06
3.6096e-06
3.54978e-06
3.49067e-06
3.44589e-06
3.37919e-06
3.36326e-06
3.31892e-06
2.01672e-05
1.97238e-05
1.61659e-05
4.85889e-06
3.04277e-06
3.10676e-06
3.3768e-06
3.80784e-06
4.17373e-06
4.49271e-06
4.73945e-06
4.93001e-06
5.0694e-06
5.17102e-06
5.22871e-06
5.26588e-06
5.26976e-06
5.26172e-06
5.23966e-06
5.20318e-06
5.15479e-06
5.10143e-06
5.04102e-06
4.97777e-06
4.91087e-06
4.84068e-06
4.76985e-06
4.69619e-06
4.62609e-06
4.55201e-06
4.48459e-06
4.41141e-06
4.34736e-06
4.27613e-06
4.21534e-06
4.14711e-06
4.08876e-06
4.02509e-06
3.96942e-06
3.91084e-06
3.85686e-06
3.80186e-06
3.7515e-06
3.69673e-06
3.65352e-06
3.59533e-06
3.56293e-06
3.49957e-06
3.48275e-06
3.44933e-06
2.01477e-05
1.99342e-05
1.90651e-05
1.44955e-05
5.23737e-06
2.15404e-06
1.91494e-06
1.99492e-06
2.20928e-06
2.50909e-06
2.78453e-06
3.03903e-06
3.263e-06
3.46099e-06
3.6241e-06
3.76367e-06
3.87507e-06
3.96528e-06
4.03629e-06
4.09102e-06
4.12994e-06
4.15612e-06
4.17202e-06
4.17705e-06
4.17481e-06
4.16786e-06
4.15577e-06
4.13547e-06
4.1156e-06
4.0873e-06
4.06221e-06
4.02847e-06
3.99999e-06
3.96287e-06
3.93225e-06
3.89304e-06
3.86158e-06
3.8213e-06
3.78767e-06
3.7472e-06
3.71339e-06
3.67268e-06
3.64086e-06
3.5982e-06
3.57059e-06
3.52486e-06
3.50143e-06
3.45292e-06
3.43599e-06
3.4129e-06
2.01216e-05
1.99661e-05
1.96421e-05
1.8545e-05
1.52073e-05
8.34716e-06
3.09752e-06
1.63219e-06
1.44239e-06
1.45003e-06
1.52777e-06
1.69012e-06
1.87189e-06
2.04993e-06
2.21966e-06
2.38028e-06
2.52734e-06
2.6601e-06
2.77875e-06
2.88407e-06
2.97682e-06
3.05685e-06
3.12679e-06
3.18537e-06
3.23588e-06
3.27652e-06
3.31284e-06
3.33886e-06
3.36289e-06
3.37749e-06
3.39159e-06
3.39751e-06
3.40331e-06
3.40295e-06
3.40156e-06
3.3968e-06
3.39202e-06
3.38174e-06
3.37475e-06
3.36059e-06
3.35176e-06
3.33423e-06
3.32411e-06
3.3039e-06
3.29283e-06
3.27041e-06
3.25831e-06
3.2318e-06
3.22242e-06
3.20719e-06
2.00982e-05
1.99328e-05
1.97572e-05
1.93517e-05
1.85041e-05
1.65313e-05
1.23144e-05
6.84191e-06
2.97466e-06
1.49043e-06
1.24247e-06
1.14767e-06
1.15239e-06
1.19572e-06
1.2889e-06
1.39681e-06
1.50963e-06
1.62056e-06
1.73143e-06
1.83754e-06
1.93911e-06
2.03332e-06
2.12229e-06
2.20288e-06
2.2791e-06
2.34615e-06
2.41023e-06
2.4652e-06
2.51791e-06
2.56226e-06
2.605e-06
2.64004e-06
2.67416e-06
2.70145e-06
2.72804e-06
2.74843e-06
2.76962e-06
2.78386e-06
2.80034e-06
2.80992e-06
2.82222e-06
2.82774e-06
2.83648e-06
2.83896e-06
2.84389e-06
2.84412e-06
2.84442e-06
2.84117e-06
2.8414e-06
2.8377e-06
2.00782e-05
1.98876e-05
1.97568e-05
1.94603e-05
1.91445e-05
1.86386e-05
1.75501e-05
1.54168e-05
1.17216e-05
7.42132e-06
3.96206e-06
1.90304e-06
1.20597e-06
1.05653e-06
9.81121e-07
9.43308e-07
9.55089e-07
9.90289e-07
1.05324e-06
1.1181e-06
1.18875e-06
1.25958e-06
1.33246e-06
1.40353e-06
1.47515e-06
1.54181e-06
1.60853e-06
1.6695e-06
1.72996e-06
1.78474e-06
1.83905e-06
1.88716e-06
1.93538e-06
1.9776e-06
2.01942e-06
2.05621e-06
2.09285e-06
2.12419e-06
2.15599e-06
2.18312e-06
2.2104e-06
2.23317e-06
2.25687e-06
2.27595e-06
2.29595e-06
2.31091e-06
2.32821e-06
2.33811e-06
2.35155e-06
2.36075e-06
2.00614e-05
1.98539e-05
1.97342e-05
1.94706e-05
1.92538e-05
1.90451e-05
1.87328e-05
1.81863e-05
1.70888e-05
1.52204e-05
1.2545e-05
9.20611e-06
5.94213e-06
3.45378e-06
1.86529e-06
1.16187e-06
9.63308e-07
8.90247e-07
8.35466e-07
7.97386e-07
8.00059e-07
8.14847e-07
8.46686e-07
8.86261e-07
9.28232e-07
9.71911e-07
1.01903e-06
1.06523e-06
1.11388e-06
1.16079e-06
1.20904e-06
1.25383e-06
1.30005e-06
1.34288e-06
1.38551e-06
1.42605e-06
1.46592e-06
1.50315e-06
1.53977e-06
1.57456e-06
1.60795e-06
1.63921e-06
1.67011e-06
1.69855e-06
1.72631e-06
1.75108e-06
1.77646e-06
1.7974e-06
1.81806e-06
1.83692e-06
2.00475e-05
1.98304e-05
1.97076e-05
1.94484e-05
1.92707e-05
1.91131e-05
1.89625e-05
1.87472e-05
1.8458e-05
1.79066e-05
1.70695e-05
1.56864e-05
1.38647e-05
1.15045e-05
8.8181e-06
6.20485e-06
4.03776e-06
2.47143e-06
1.48438e-06
1.02153e-06
8.59985e-07
7.97769e-07
7.49618e-07
7.10324e-07
6.82594e-07
6.82879e-07
6.89933e-07
7.06338e-07
7.29927e-07
7.55448e-07
7.82815e-07
8.1076e-07
8.41658e-07
8.72442e-07
9.04092e-07
9.36697e-07
9.69065e-07
1.00127e-06
1.03272e-06
1.06486e-06
1.09527e-06
1.12565e-06
1.15531e-06
1.18465e-06
1.21257e-06
1.23951e-06
1.2663e-06
1.29055e-06
1.31411e-06
1.33601e-06
2.00362e-05
1.98126e-05
1.96851e-05
1.94181e-05
1.92565e-05
1.91067e-05
1.89974e-05
1.88461e-05
1.87083e-05
1.84966e-05
1.82434e-05
1.78272e-05
1.7224e-05
1.63513e-05
1.51433e-05
1.3602e-05
1.17804e-05
9.68171e-06
7.52668e-06
5.5198e-06
3.84434e-06
2.57258e-06
1.66933e-06
1.12632e-06
8.6525e-07
7.58975e-07
7.08891e-07
6.71857e-07
6.35977e-07
6.09037e-07
5.9057e-07
5.88754e-07
5.9225e-07
6.00745e-07
6.14158e-07
6.30094e-07
6.46687e-07
6.64605e-07
6.82774e-07
7.03517e-07
7.23628e-07
7.4532e-07
7.66929e-07
7.89724e-07
8.11539e-07
8.33612e-07
8.55787e-07
8.76692e-07
8.97367e-07
9.17244e-07
2.00272e-05
1.97987e-05
1.96659e-05
1.93961e-05
1.92305e-05
1.90791e-05
1.89791e-05
1.88494e-05
1.87321e-05
1.85926e-05
1.84557e-05
1.82862e-05
1.80768e-05
1.7791e-05
1.74025e-05
1.6857e-05
1.6143e-05
1.52143e-05
1.40592e-05
1.27051e-05
1.11818e-05
9.49758e-06
7.76617e-06
6.1148e-06
4.62172e-06
3.39198e-06
2.42294e-06
1.69146e-06
1.18941e-06
8.94878e-07
7.43831e-07
6.72254e-07
6.32315e-07
6.03002e-07
5.74973e-07
5.49255e-07
5.29522e-07
5.16638e-07
5.12e-07
5.13306e-07
5.17005e-07
5.24426e-07
5.33051e-07
5.4381e-07
5.54155e-07
5.65777e-07
5.77782e-07
5.90134e-07
6.02698e-07
6.16301e-07
2.002e-05
1.97901e-05
1.96458e-05
1.93796e-05
1.92062e-05
1.90498e-05
1.89406e-05
1.88227e-05
1.87102e-05
1.85856e-05
1.84675e-05
1.83419e-05
1.8218e-05
1.80752e-05
1.79191e-05
1.7719e-05
1.74746e-05
1.7152e-05
1.67441e-05
1.62133e-05
1.55697e-05
1.47727e-05
1.38414e-05
1.2758e-05
1.15845e-05
1.0296e-05
8.92899e-06
7.54955e-06
6.21476e-06
4.98941e-06
3.89497e-06
2.99428e-06
2.26e-06
1.67706e-06
1.24106e-06
9.43926e-07
7.62668e-07
6.60959e-07
6.05183e-07
5.71836e-07
5.46218e-07
5.25008e-07
5.03495e-07
4.84767e-07
4.68327e-07
4.57646e-07
4.50201e-07
4.48019e-07
4.48656e-07
4.51751e-07
2.00145e-05
1.979e-05
1.96197e-05
1.93661e-05
1.91857e-05
1.90226e-05
1.89046e-05
1.87857e-05
1.86699e-05
1.8549e-05
1.84369e-05
1.83196e-05
1.8209e-05
1.80898e-05
1.79781e-05
1.78548e-05
1.77324e-05
1.75867e-05
1.74292e-05
1.72298e-05
1.69995e-05
1.6707e-05
1.63601e-05
1.59287e-05
1.54228e-05
1.48236e-05
1.41354e-05
1.33444e-05
1.24769e-05
1.15211e-05
1.05285e-05
9.46154e-06
8.36029e-06
7.2617e-06
6.19478e-06
5.19285e-06
4.27589e-06
3.46443e-06
2.77814e-06
2.20198e-06
1.72444e-06
1.34144e-06
1.04964e-06
8.42387e-07
7.04647e-07
6.19054e-07
5.65082e-07
5.34844e-07
5.1058e-07
5.02254e-07
2.00102e-05
1.97939e-05
1.95932e-05
1.9352e-05
1.9167e-05
1.89966e-05
1.8871e-05
1.87489e-05
1.86296e-05
1.85053e-05
1.83907e-05
1.82727e-05
1.8164e-05
1.80513e-05
1.7946e-05
1.78357e-05
1.77306e-05
1.76194e-05
1.75142e-05
1.73989e-05
1.72834e-05
1.71514e-05
1.70091e-05
1.68408e-05
1.66495e-05
1.64216e-05
1.61591e-05
1.58465e-05
1.54876e-05
1.50696e-05
1.45969e-05
1.40658e-05
1.34697e-05
1.28161e-05
1.21046e-05
1.13479e-05
1.05497e-05
9.72648e-06
8.86223e-06
7.98512e-06
7.10974e-06
6.25833e-06
5.44315e-06
4.68411e-06
3.98949e-06
3.37235e-06
2.84213e-06
2.40649e-06
2.02856e-06
1.73729e-06
2.0007e-05
1.98011e-05
1.95688e-05
1.93383e-05
1.91494e-05
1.89723e-05
1.88387e-05
1.87137e-05
1.85901e-05
1.8463e-05
1.83434e-05
1.82239e-05
1.81109e-05
1.79969e-05
1.7889e-05
1.77796e-05
1.76775e-05
1.75732e-05
1.74743e-05
1.73732e-05
1.72749e-05
1.71741e-05
1.70754e-05
1.69742e-05
1.68693e-05
1.67597e-05
1.66404e-05
1.65106e-05
1.63641e-05
1.62017e-05
1.60144e-05
1.58067e-05
1.55656e-05
1.52987e-05
1.49917e-05
1.46544e-05
1.42728e-05
1.38598e-05
1.3401e-05
1.29087e-05
1.2371e-05
1.18061e-05
1.12015e-05
1.05832e-05
9.93428e-06
9.29381e-06
8.62325e-06
7.97894e-06
7.33046e-06
6.73278e-06
2.00047e-05
1.98096e-05
1.95459e-05
1.9325e-05
1.9132e-05
1.89499e-05
1.88073e-05
1.868e-05
1.85518e-05
1.84225e-05
1.82975e-05
1.8176e-05
1.80584e-05
1.79426e-05
1.78303e-05
1.77198e-05
1.76125e-05
1.75068e-05
1.7405e-05
1.73041e-05
1.72073e-05
1.71125e-05
1.70193e-05
1.69291e-05
1.6837e-05
1.67495e-05
1.66567e-05
1.65695e-05
1.64771e-05
1.63872e-05
1.62899e-05
1.61927e-05
1.6083e-05
1.59716e-05
1.58426e-05
1.57084e-05
1.55527e-05
1.53876e-05
1.51978e-05
1.49957e-05
1.47644e-05
1.45189e-05
1.424e-05
1.39477e-05
1.36207e-05
1.32817e-05
1.29101e-05
1.25321e-05
1.21253e-05
1.17165e-05
2.0003e-05
1.98186e-05
1.95245e-05
1.93114e-05
1.91145e-05
1.89291e-05
1.8777e-05
1.86474e-05
1.85148e-05
1.83836e-05
1.82536e-05
1.813e-05
1.80078e-05
1.78904e-05
1.77734e-05
1.76613e-05
1.75496e-05
1.74418e-05
1.73361e-05
1.72327e-05
1.71316e-05
1.70335e-05
1.69368e-05
1.68454e-05
1.67508e-05
1.6667e-05
1.65779e-05
1.64976e-05
1.64132e-05
1.63348e-05
1.62541e-05
1.61771e-05
1.60949e-05
1.60198e-05
1.59377e-05
1.58622e-05
1.57777e-05
1.56964e-05
1.56064e-05
1.55162e-05
1.54158e-05
1.5313e-05
1.5195e-05
1.50757e-05
1.49397e-05
1.47963e-05
1.4638e-05
1.44725e-05
1.42874e-05
1.40962e-05
2.00018e-05
1.98273e-05
1.95049e-05
1.92969e-05
1.90967e-05
1.89098e-05
1.87482e-05
1.86159e-05
1.84796e-05
1.83466e-05
1.82121e-05
1.80864e-05
1.796e-05
1.78409e-05
1.77196e-05
1.76058e-05
1.74901e-05
1.738e-05
1.72709e-05
1.71647e-05
1.70604e-05
1.69589e-05
1.6859e-05
1.67642e-05
1.66656e-05
1.65783e-05
1.64839e-05
1.64004e-05
1.63132e-05
1.62316e-05
1.61516e-05
1.60753e-05
1.59991e-05
1.59295e-05
1.58548e-05
1.57892e-05
1.57176e-05
1.56517e-05
1.5583e-05
1.55148e-05
1.54465e-05
1.5381e-05
1.53084e-05
1.52446e-05
1.5171e-05
1.50984e-05
1.50221e-05
1.49427e-05
1.48538e-05
1.47654e-05
2.00009e-05
1.98305e-05
1.94886e-05
1.92819e-05
1.9079e-05
1.88922e-05
1.87214e-05
1.85859e-05
1.84466e-05
1.83119e-05
1.81735e-05
1.80456e-05
1.79158e-05
1.77949e-05
1.76698e-05
1.75544e-05
1.74349e-05
1.73227e-05
1.72105e-05
1.71016e-05
1.69945e-05
1.68899e-05
1.67874e-05
1.66891e-05
1.65873e-05
1.64973e-05
1.63985e-05
1.63122e-05
1.62208e-05
1.61355e-05
1.60521e-05
1.59705e-05
1.58896e-05
1.58165e-05
1.57371e-05
1.56704e-05
1.55954e-05
1.55297e-05
1.54622e-05
1.53988e-05
1.53365e-05
1.52774e-05
1.52118e-05
1.51592e-05
1.50955e-05
1.50383e-05
1.49782e-05
1.49173e-05
1.48504e-05
1.47873e-05
2.00003e-05
1.98289e-05
1.94754e-05
1.92662e-05
1.90614e-05
1.88763e-05
1.86971e-05
1.85577e-05
1.84161e-05
1.82798e-05
1.81385e-05
1.80083e-05
1.78757e-05
1.77532e-05
1.76248e-05
1.7508e-05
1.73851e-05
1.72711e-05
1.71558e-05
1.70448e-05
1.69346e-05
1.68276e-05
1.67224e-05
1.66212e-05
1.65167e-05
1.64241e-05
1.63219e-05
1.62333e-05
1.61382e-05
1.60502e-05
1.59633e-05
1.58786e-05
1.57938e-05
1.57177e-05
1.56338e-05
1.55636e-05
1.54845e-05
1.54151e-05
1.53421e-05
1.52745e-05
1.5207e-05
1.51439e-05
1.50749e-05
1.50201e-05
1.49523e-05
1.48954e-05
1.4835e-05
1.47751e-05
1.47132e-05
1.46543e-05
2e-05
1.98272e-05
1.94642e-05
1.92488e-05
1.90433e-05
1.88617e-05
1.86753e-05
1.85315e-05
1.83883e-05
1.82507e-05
1.81071e-05
1.79751e-05
1.78402e-05
1.77163e-05
1.75853e-05
1.74672e-05
1.73414e-05
1.72261e-05
1.71077e-05
1.69953e-05
1.68819e-05
1.67734e-05
1.66652e-05
1.65616e-05
1.64547e-05
1.63594e-05
1.62546e-05
1.61636e-05
1.60653e-05
1.59757e-05
1.58849e-05
1.57985e-05
1.57102e-05
1.56319e-05
1.5545e-05
1.54714e-05
1.53897e-05
1.53171e-05
1.52396e-05
1.51699e-05
1.50974e-05
1.50305e-05
1.49581e-05
1.48982e-05
1.48258e-05
1.47658e-05
1.46987e-05
1.46344e-05
1.4567e-05
1.45023e-05
1.99999e-05
1.9826e-05
1.9456e-05
1.9231e-05
1.90252e-05
1.88486e-05
1.86566e-05
1.8508e-05
1.83634e-05
1.82251e-05
1.80799e-05
1.79464e-05
1.78098e-05
1.76849e-05
1.7552e-05
1.74329e-05
1.73048e-05
1.71885e-05
1.70674e-05
1.6954e-05
1.68376e-05
1.67282e-05
1.66169e-05
1.65114e-05
1.64024e-05
1.63044e-05
1.61977e-05
1.61041e-05
1.60031e-05
1.59123e-05
1.58176e-05
1.57302e-05
1.56387e-05
1.55584e-05
1.54695e-05
1.53925e-05
1.5309e-05
1.52339e-05
1.5153e-05
1.50819e-05
1.5005e-05
1.49361e-05
1.48609e-05
1.47962e-05
1.4721e-05
1.46579e-05
1.45849e-05
1.45182e-05
1.44458e-05
1.43764e-05
1.99999e-05
1.98254e-05
1.94509e-05
1.92139e-05
1.9008e-05
1.88376e-05
1.86416e-05
1.84882e-05
1.83422e-05
1.82037e-05
1.80575e-05
1.79231e-05
1.77852e-05
1.76597e-05
1.75258e-05
1.74057e-05
1.72763e-05
1.71592e-05
1.70359e-05
1.69219e-05
1.6803e-05
1.66931e-05
1.65787e-05
1.6472e-05
1.6361e-05
1.62606e-05
1.61523e-05
1.60563e-05
1.5953e-05
1.5861e-05
1.57627e-05
1.56745e-05
1.55804e-05
1.54979e-05
1.54074e-05
1.53276e-05
1.52423e-05
1.51652e-05
1.50816e-05
1.50089e-05
1.49284e-05
1.4858e-05
1.47804e-05
1.47117e-05
1.46344e-05
1.45687e-05
1.44907e-05
1.44227e-05
1.43457e-05
1.42729e-05
1.99999e-05
1.98251e-05
1.94485e-05
1.91986e-05
1.89924e-05
1.88286e-05
1.86308e-05
1.84726e-05
1.83252e-05
1.81871e-05
1.80404e-05
1.79058e-05
1.77672e-05
1.76414e-05
1.75074e-05
1.73865e-05
1.72565e-05
1.7139e-05
1.70142e-05
1.68997e-05
1.6779e-05
1.66687e-05
1.65518e-05
1.64443e-05
1.63315e-05
1.62293e-05
1.61195e-05
1.60214e-05
1.59162e-05
1.58229e-05
1.57219e-05
1.56324e-05
1.55364e-05
1.54518e-05
1.53597e-05
1.52779e-05
1.51903e-05
1.51118e-05
1.50258e-05
1.49513e-05
1.48681e-05
1.47959e-05
1.47163e-05
1.46443e-05
1.45647e-05
1.44965e-05
1.44147e-05
1.43449e-05
1.42638e-05
1.41885e-05
1.99999e-05
1.98253e-05
1.94488e-05
1.91857e-05
1.89787e-05
1.88213e-05
1.86242e-05
1.84617e-05
1.83127e-05
1.81754e-05
1.80291e-05
1.78947e-05
1.77559e-05
1.76305e-05
1.74969e-05
1.73758e-05
1.7246e-05
1.71284e-05
1.70028e-05
1.68882e-05
1.67666e-05
1.6656e-05
1.65372e-05
1.64291e-05
1.6315e-05
1.62115e-05
1.61003e-05
1.60006e-05
1.58939e-05
1.57991e-05
1.56961e-05
1.56054e-05
1.55079e-05
1.54214e-05
1.53276e-05
1.52444e-05
1.51545e-05
1.50749e-05
1.49866e-05
1.49103e-05
1.4825e-05
1.47506e-05
1.46693e-05
1.45945e-05
1.45123e-05
1.44416e-05
1.43568e-05
1.42849e-05
1.41995e-05
1.41225e-05
1.99999e-05
1.9826e-05
1.94515e-05
1.91757e-05
1.89673e-05
1.88155e-05
1.86217e-05
1.84556e-05
1.83048e-05
1.81687e-05
1.80234e-05
1.78901e-05
1.77517e-05
1.76274e-05
1.74949e-05
1.73744e-05
1.72454e-05
1.71283e-05
1.70024e-05
1.68883e-05
1.67665e-05
1.66556e-05
1.65358e-05
1.64275e-05
1.63124e-05
1.62081e-05
1.60956e-05
1.59948e-05
1.58869e-05
1.57907e-05
1.56863e-05
1.55945e-05
1.54957e-05
1.54076e-05
1.53123e-05
1.52279e-05
1.51359e-05
1.50552e-05
1.49651e-05
1.48871e-05
1.47998e-05
1.47236e-05
1.464e-05
1.45631e-05
1.44785e-05
1.44047e-05
1.43179e-05
1.42433e-05
1.41537e-05
1.40755e-05
1.99999e-05
1.98272e-05
1.94567e-05
1.91694e-05
1.89586e-05
1.88114e-05
1.86232e-05
1.84545e-05
1.83018e-05
1.81671e-05
1.80237e-05
1.78919e-05
1.77544e-05
1.76315e-05
1.75002e-05
1.73807e-05
1.72527e-05
1.71364e-05
1.70108e-05
1.68974e-05
1.67758e-05
1.66651e-05
1.65447e-05
1.64367e-05
1.63211e-05
1.62164e-05
1.61031e-05
1.60019e-05
1.58932e-05
1.57962e-05
1.56909e-05
1.55986e-05
1.54987e-05
1.54098e-05
1.53133e-05
1.52283e-05
1.5135e-05
1.50532e-05
1.49617e-05
1.48823e-05
1.47932e-05
1.47156e-05
1.46294e-05
1.45507e-05
1.44637e-05
1.43868e-05
1.42983e-05
1.42207e-05
1.41273e-05
1.40477e-05
1.99999e-05
1.98288e-05
1.9464e-05
1.91667e-05
1.89528e-05
1.88087e-05
1.86283e-05
1.84578e-05
1.83034e-05
1.81701e-05
1.80288e-05
1.78991e-05
1.7763e-05
1.76425e-05
1.75132e-05
1.73957e-05
1.72695e-05
1.71549e-05
1.70303e-05
1.69184e-05
1.67977e-05
1.66874e-05
1.6567e-05
1.64597e-05
1.63439e-05
1.62392e-05
1.61251e-05
1.60237e-05
1.59143e-05
1.58164e-05
1.57103e-05
1.56176e-05
1.55165e-05
1.54267e-05
1.5329e-05
1.52432e-05
1.51487e-05
1.50659e-05
1.49732e-05
1.48925e-05
1.4802e-05
1.47234e-05
1.46347e-05
1.45549e-05
1.44658e-05
1.43867e-05
1.42968e-05
1.4216e-05
1.41199e-05
1.40386e-05
1.99999e-05
1.9831e-05
1.94732e-05
1.9168e-05
1.89501e-05
1.88076e-05
1.86364e-05
1.84662e-05
1.83094e-05
1.81775e-05
1.8039e-05
1.79121e-05
1.77781e-05
1.76605e-05
1.75335e-05
1.74187e-05
1.72945e-05
1.71822e-05
1.70592e-05
1.69494e-05
1.68299e-05
1.67207e-05
1.66011e-05
1.6495e-05
1.63795e-05
1.62753e-05
1.61609e-05
1.60601e-05
1.59504e-05
1.58523e-05
1.57461e-05
1.56533e-05
1.55515e-05
1.54616e-05
1.53631e-05
1.52767e-05
1.51814e-05
1.50978e-05
1.50038e-05
1.49218e-05
1.48297e-05
1.475e-05
1.46581e-05
1.45769e-05
1.44852e-05
1.44036e-05
1.43115e-05
1.42272e-05
1.41292e-05
1.40452e-05
1.99999e-05
1.98337e-05
1.94841e-05
1.9173e-05
1.89505e-05
1.88084e-05
1.86468e-05
1.84785e-05
1.832e-05
1.81892e-05
1.80536e-05
1.793e-05
1.77985e-05
1.76841e-05
1.75599e-05
1.74481e-05
1.73266e-05
1.7217e-05
1.70961e-05
1.69889e-05
1.68709e-05
1.67632e-05
1.6645e-05
1.65405e-05
1.64259e-05
1.63225e-05
1.62082e-05
1.61086e-05
1.59986e-05
1.59009e-05
1.57949e-05
1.57022e-05
1.56e-05
1.55104e-05
1.54114e-05
1.53248e-05
1.52294e-05
1.51454e-05
1.50504e-05
1.49678e-05
1.48748e-05
1.47943e-05
1.46997e-05
1.46179e-05
1.45237e-05
1.44408e-05
1.43462e-05
1.42582e-05
1.4159e-05
1.40708e-05
1.99999e-05
1.98369e-05
1.94959e-05
1.9182e-05
1.89542e-05
1.88111e-05
1.8659e-05
1.84945e-05
1.83343e-05
1.82045e-05
1.80718e-05
1.79518e-05
1.78233e-05
1.77125e-05
1.75914e-05
1.74831e-05
1.73644e-05
1.72581e-05
1.71399e-05
1.70357e-05
1.69196e-05
1.68139e-05
1.66976e-05
1.65949e-05
1.64816e-05
1.63791e-05
1.62656e-05
1.61676e-05
1.60574e-05
1.59608e-05
1.58552e-05
1.57628e-05
1.56607e-05
1.55716e-05
1.54722e-05
1.53859e-05
1.52907e-05
1.52062e-05
1.51107e-05
1.50276e-05
1.4934e-05
1.48523e-05
1.47555e-05
1.46735e-05
1.45764e-05
1.44933e-05
1.43952e-05
1.43051e-05
1.42051e-05
1.41125e-05
1.99999e-05
1.98404e-05
1.95088e-05
1.9194e-05
1.89613e-05
1.88165e-05
1.86729e-05
1.85137e-05
1.83523e-05
1.82231e-05
1.80931e-05
1.79769e-05
1.78518e-05
1.77448e-05
1.7627e-05
1.75225e-05
1.74071e-05
1.73044e-05
1.71893e-05
1.70884e-05
1.69744e-05
1.68712e-05
1.67574e-05
1.66568e-05
1.65452e-05
1.64437e-05
1.63317e-05
1.62352e-05
1.61253e-05
1.60304e-05
1.59249e-05
1.58333e-05
1.57317e-05
1.56432e-05
1.55437e-05
1.54584e-05
1.53632e-05
1.52785e-05
1.51831e-05
1.50994e-05
1.50053e-05
1.49221e-05
1.48242e-05
1.47418e-05
1.46419e-05
1.4559e-05
1.44562e-05
1.43664e-05
1.42633e-05
1.41682e-05
1.99999e-05
1.98441e-05
1.9522e-05
1.92087e-05
1.89716e-05
1.88243e-05
1.86879e-05
1.85353e-05
1.83735e-05
1.82446e-05
1.81168e-05
1.80045e-05
1.78832e-05
1.77801e-05
1.76658e-05
1.75655e-05
1.74534e-05
1.73548e-05
1.72432e-05
1.71457e-05
1.7034e-05
1.69341e-05
1.68227e-05
1.67245e-05
1.66148e-05
1.65147e-05
1.6405e-05
1.63093e-05
1.62008e-05
1.61075e-05
1.60021e-05
1.59121e-05
1.58109e-05
1.57234e-05
1.56241e-05
1.554e-05
1.54446e-05
1.53604e-05
1.52652e-05
1.51809e-05
1.50868e-05
1.50016e-05
1.49041e-05
1.48198e-05
1.47186e-05
1.46351e-05
1.45278e-05
1.444e-05
1.43311e-05
1.42374e-05
1.99999e-05
1.98481e-05
1.95355e-05
1.92258e-05
1.89852e-05
1.88347e-05
1.87038e-05
1.85586e-05
1.83974e-05
1.82685e-05
1.81424e-05
1.80342e-05
1.79167e-05
1.78175e-05
1.77071e-05
1.76108e-05
1.75023e-05
1.74082e-05
1.73002e-05
1.72061e-05
1.70973e-05
1.7001e-05
1.68919e-05
1.67967e-05
1.66887e-05
1.65908e-05
1.6483e-05
1.63885e-05
1.62825e-05
1.61899e-05
1.60854e-05
1.5997e-05
1.58963e-05
1.58101e-05
1.57111e-05
1.56286e-05
1.5533e-05
1.54502e-05
1.53544e-05
1.527e-05
1.51758e-05
1.5089e-05
1.49928e-05
1.49049e-05
1.48047e-05
1.47181e-05
1.46095e-05
1.45217e-05
1.44076e-05
1.43168e-05
1.99999e-05
1.98522e-05
1.9549e-05
1.92447e-05
1.90017e-05
1.88479e-05
1.87207e-05
1.8583e-05
1.84237e-05
1.82943e-05
1.81696e-05
1.80654e-05
1.79514e-05
1.78564e-05
1.775e-05
1.76576e-05
1.7553e-05
1.74636e-05
1.73591e-05
1.72687e-05
1.71632e-05
1.70705e-05
1.69636e-05
1.68721e-05
1.67656e-05
1.66706e-05
1.6564e-05
1.64721e-05
1.6368e-05
1.62759e-05
1.61732e-05
1.60858e-05
1.59867e-05
1.59012e-05
1.5803e-05
1.57222e-05
1.56265e-05
1.55456e-05
1.54482e-05
1.53654e-05
1.52697e-05
1.51833e-05
1.50866e-05
1.4996e-05
1.48975e-05
1.48063e-05
1.46995e-05
1.46074e-05
1.4493e-05
1.44015e-05
1.99999e-05
1.98564e-05
1.95624e-05
1.92651e-05
1.90208e-05
1.88638e-05
1.87384e-05
1.86083e-05
1.84516e-05
1.83217e-05
1.8198e-05
1.80972e-05
1.79868e-05
1.78961e-05
1.77935e-05
1.77052e-05
1.76047e-05
1.75198e-05
1.74189e-05
1.73326e-05
1.72305e-05
1.71412e-05
1.70371e-05
1.69494e-05
1.68443e-05
1.67525e-05
1.66469e-05
1.65588e-05
1.6455e-05
1.63649e-05
1.62635e-05
1.61775e-05
1.60801e-05
1.59945e-05
1.58988e-05
1.58187e-05
1.57237e-05
1.56439e-05
1.55453e-05
1.54652e-05
1.53665e-05
1.52825e-05
1.51823e-05
1.50929e-05
1.49931e-05
1.48996e-05
1.47938e-05
1.46963e-05
1.45848e-05
1.44891e-05
1.99999e-05
1.98606e-05
1.95756e-05
1.92864e-05
1.90424e-05
1.88819e-05
1.87572e-05
1.86339e-05
1.84806e-05
1.83504e-05
1.82273e-05
1.81291e-05
1.80226e-05
1.7936e-05
1.78368e-05
1.77531e-05
1.76568e-05
1.75759e-05
1.74789e-05
1.73972e-05
1.72981e-05
1.72122e-05
1.71115e-05
1.70272e-05
1.69238e-05
1.6835e-05
1.67314e-05
1.66464e-05
1.65426e-05
1.64559e-05
1.63546e-05
1.62712e-05
1.6174e-05
1.60896e-05
1.59968e-05
1.59159e-05
1.58235e-05
1.57426e-05
1.56457e-05
1.55663e-05
1.54657e-05
1.53837e-05
1.52792e-05
1.51937e-05
1.50891e-05
1.49974e-05
1.4888e-05
1.47897e-05
1.46786e-05
1.45802e-05
1.99999e-05
1.98648e-05
1.95886e-05
1.93082e-05
1.90658e-05
1.89022e-05
1.87772e-05
1.86595e-05
1.85103e-05
1.83802e-05
1.82568e-05
1.81611e-05
1.80584e-05
1.79753e-05
1.78799e-05
1.78008e-05
1.77082e-05
1.76314e-05
1.75388e-05
1.74612e-05
1.73651e-05
1.72832e-05
1.71859e-05
1.71042e-05
1.70034e-05
1.69175e-05
1.68164e-05
1.67329e-05
1.66309e-05
1.65468e-05
1.64461e-05
1.6365e-05
1.6267e-05
1.61868e-05
1.60941e-05
1.60139e-05
1.59236e-05
1.5841e-05
1.57484e-05
1.5666e-05
1.5567e-05
1.54834e-05
1.53789e-05
1.52943e-05
1.51861e-05
1.5096e-05
1.49821e-05
1.48859e-05
1.47722e-05
1.46739e-05
1.99999e-05
1.98689e-05
1.96013e-05
1.93304e-05
1.90904e-05
1.89247e-05
1.87984e-05
1.86848e-05
1.85404e-05
1.84104e-05
1.82863e-05
1.81928e-05
1.80935e-05
1.80138e-05
1.79224e-05
1.78475e-05
1.77585e-05
1.76862e-05
1.75976e-05
1.75238e-05
1.74313e-05
1.73536e-05
1.72591e-05
1.71801e-05
1.70825e-05
1.69995e-05
1.69006e-05
1.68181e-05
1.67195e-05
1.66363e-05
1.65375e-05
1.64569e-05
1.63601e-05
1.62837e-05
1.61892e-05
1.61127e-05
1.60213e-05
1.59404e-05
1.58499e-05
1.57642e-05
1.56689e-05
1.55814e-05
1.54803e-05
1.53919e-05
1.52846e-05
1.51919e-05
1.50779e-05
1.49817e-05
1.48657e-05
1.47679e-05
1.99999e-05
1.98729e-05
1.9614e-05
1.93521e-05
1.91159e-05
1.89491e-05
1.88206e-05
1.87102e-05
1.85704e-05
1.84406e-05
1.8316e-05
1.82239e-05
1.81274e-05
1.80516e-05
1.79637e-05
1.78926e-05
1.78078e-05
1.77399e-05
1.76548e-05
1.75851e-05
1.74965e-05
1.74225e-05
1.73306e-05
1.72549e-05
1.71604e-05
1.70801e-05
1.69829e-05
1.69027e-05
1.68065e-05
1.67243e-05
1.66277e-05
1.65469e-05
1.64535e-05
1.63773e-05
1.62835e-05
1.62105e-05
1.61165e-05
1.60408e-05
1.59466e-05
1.58633e-05
1.57679e-05
1.56796e-05
1.55796e-05
1.54878e-05
1.53819e-05
1.52864e-05
1.51739e-05
1.50757e-05
1.49585e-05
1.48607e-05
1.99999e-05
1.98769e-05
1.96266e-05
1.93734e-05
1.9142e-05
1.89746e-05
1.88443e-05
1.8736e-05
1.85998e-05
1.8471e-05
1.83457e-05
1.82539e-05
1.81604e-05
1.80883e-05
1.80035e-05
1.79364e-05
1.78558e-05
1.77918e-05
1.77103e-05
1.7645e-05
1.75599e-05
1.74896e-05
1.74006e-05
1.73284e-05
1.72362e-05
1.7159e-05
1.70638e-05
1.69862e-05
1.68909e-05
1.68111e-05
1.67154e-05
1.66362e-05
1.65446e-05
1.64677e-05
1.63781e-05
1.63043e-05
1.62118e-05
1.61383e-05
1.60405e-05
1.59626e-05
1.58633e-05
1.57778e-05
1.56747e-05
1.55837e-05
1.54758e-05
1.53808e-05
1.52674e-05
1.51681e-05
1.50501e-05
1.49523e-05
1.99999e-05
1.98807e-05
1.96385e-05
1.93947e-05
1.91682e-05
1.90011e-05
1.88695e-05
1.87617e-05
1.86287e-05
1.85012e-05
1.83749e-05
1.82832e-05
1.81924e-05
1.81232e-05
1.80418e-05
1.79788e-05
1.79018e-05
1.78419e-05
1.77646e-05
1.77031e-05
1.76212e-05
1.75551e-05
1.74693e-05
1.73998e-05
1.731e-05
1.72362e-05
1.71433e-05
1.70676e-05
1.69733e-05
1.68961e-05
1.6801e-05
1.67242e-05
1.6632e-05
1.65575e-05
1.647e-05
1.6395e-05
1.6307e-05
1.62301e-05
1.61355e-05
1.60582e-05
1.59572e-05
1.5873e-05
1.57681e-05
1.56776e-05
1.55679e-05
1.54734e-05
1.53583e-05
1.52591e-05
1.51407e-05
1.50429e-05
1.99999e-05
1.98844e-05
1.96502e-05
1.94156e-05
1.91942e-05
1.90286e-05
1.88958e-05
1.87878e-05
1.86575e-05
1.85307e-05
1.84036e-05
1.83119e-05
1.82227e-05
1.81565e-05
1.80789e-05
1.80194e-05
1.79459e-05
1.78905e-05
1.7817e-05
1.7759e-05
1.76807e-05
1.76188e-05
1.75359e-05
1.74692e-05
1.73822e-05
1.73115e-05
1.72207e-05
1.71469e-05
1.70544e-05
1.69786e-05
1.68847e-05
1.68093e-05
1.67177e-05
1.66462e-05
1.65574e-05
1.64856e-05
1.6398e-05
1.63202e-05
1.62301e-05
1.61489e-05
1.60503e-05
1.59652e-05
1.58605e-05
1.57687e-05
1.56588e-05
1.55632e-05
1.54477e-05
1.5349e-05
1.52305e-05
1.51325e-05
1.99999e-05
1.9888e-05
1.96616e-05
1.94357e-05
1.92201e-05
1.90566e-05
1.89228e-05
1.88147e-05
1.86856e-05
1.85593e-05
1.84319e-05
1.83395e-05
1.82517e-05
1.81884e-05
1.81141e-05