/*--------------------------------*- C++ -*----------------------------------*\
  =========                 |
  \\      /  F ield         | OpenFOAM: The Open Source CFD Toolbox
   \\    /   O peration     | Website:  https://openfoam.org
    \\  /    A nd           | Version:  7
     \\/     M anipulation  |
\*---------------------------------------------------------------------------*/
FoamFile
{
    version     2.0;
    format      ascii;
    class       volScalarField;
    location    "0.2";
    object      nut;
}
// * * * * * * * * * * * * * * * * * * * * * * * * * * * * * * * * * * * * * //

dimensions      [0 2 -1 0 0 0 0];

internalField   nonuniform List<scalar> 
70000
(
0
0
0
0
0
0
0
0
0
0
0
0
0
0
0
0
0
0
0
0
0
0
0
0
0
0
0
0
0
0
0
0
0
0
0
0
0
0
0
0
0
0
0
0
0
1.69681e-13
0
1.01688e-12
0
0
0
0
0
0
0
0
0
0
0
0
0
0
0
0
0
0
0
0
0
0
0
0
0
0
0
0
0
0
0
0
0
0
0
0
0
0
0
0
0
0
0
0
0
0
0
3.32886e-13
0
2.07058e-12
0
0
0
0
0
0
0
0
0
0
0
0
0
0
0
0
0
0
0
0
0
0
0
0
0
0
0
0
0
0
0
0
0
0
0
0
0
0
0
0
0
0
0
0
0
0
0
4.56399e-13
0
2.86901e-12
1.99078e-12
0
0
0
0
0
0
0
0
0
0
0
0
0
0
0
0
0
0
0
0
0
0
0
0
0
0
0
0
0
0
0
0
0
0
0
0
0
0
0
0
0
0
0
0
0
0
4.62302e-13
0
3.10635e-12
4.60602e-12
0
0
0
0
0
0
0
0
0
0
0
0
0
0
0
0
0
0
0
0
0
0
0
0
0
0
0
0
0
0
0
0
0
0
0
0
0
0
0
0
0
0
0
0
0
0
4.45861e-13
0
3.0194e-12
5.61466e-12
0
9.44321e-10
0
0
0
0
0
0
0
0
0
0
0
0
0
0
0
0
0
0
0
0
0
0
0
0
0
0
0
0
0
0
0
0
0
0
0
0
0
0
0
0
0
0
0
0
4.54392e-13
0
2.8193e-12
5.78706e-12
0
1.31914e-08
0
0
0
0
0
0
0
0
0
0
0
0
0
0
0
0
0
0
0
0
0
0
0
0
0
0
0
0
0
0
0
0
0
0
0
0
0
0
0
0
0
0
0
0
4.24286e-13
0
2.41966e-12
5.90382e-12
0
1.2085e-08
0
0
0
0
0
0
0
0
0
0
0
0
0
0
0
0
0
0
0
0
0
0
0
0
0
0
0
0
0
0
0
0
0
0
0
0
0
0
0
0
0
0
0
0
3.09383e-13
0
1.77618e-12
6.07407e-12
0
1.10655e-08
0
0
0
0
0
0
0
0
0
0
0
0
0
0
0
0
0
0
0
0
0
0
0
0
0
0
0
0
0
0
0
0
0
0
0
0
0
0
0
0
0
0
0
0
1.00192e-13
0
9.58722e-13
6.14646e-12
0
1.02171e-08
0
0
0
0
0
0
0
0
0
0
0
0
0
0
0
0
0
0
0
0
0
0
0
0
0
0
0
0
0
0
0
0
0
0
0
0
0
0
0
0
0
0
0
0
0
0
6.39228e-14
6.04151e-12
0
9.50673e-09
0
0
0
0
0
0
0
0
0
0
0
0
0
0
0
0
0
0
0
0
0
0
0
0
0
0
0
0
0
0
0
0
0
0
0
0
0
0
0
0
0
0
0
0
0
0
0
5.7701e-12
0
8.86373e-09
0
0
0
0
0
0
0
0
0
0
0
0
0
0
0
0
0
0
0
0
0
0
0
0
0
0
0
0
0
0
0
0
0
0
0
0
0
0
0
0
0
0
0
0
0
0
0
5.33311e-12
0
8.22225e-09
0
0
0
0
0
0
0
0
0
0
0
0
0
0
0
0
0
0
0
0
0
0
0
0
0
0
0
0
0
0
0
0
0
0
0
0
0
0
0
0
0
0
0
0
0
0
0
4.7535e-12
0
7.56244e-09
0
0
0
0
0
0
0
0
0
0
0
0
3.03918e-11
8.9193e-12
0
0
0
0
0
0
0
0
0
0
0
0
0
0
0
0
0
0
0
0
0
0
0
0
0
0
0
0
0
0
0
0
0
4.01562e-12
0
6.89047e-09
0
0
0
0
0
0
0
0
0
0
0
0
0
0
2.55522e-11
5.9942e-11
5.19785e-11
1.98067e-11
2.55608e-12
0
0
0
0
0
0
0
0
0
0
0
0
0
0
0
0
0
0
0
0
0
0
0
0
0
0
0
0
3.06507e-12
0
6.21741e-09
0
0
0
0
0
0
0
0
0
0
0
0
0
0
0
0
0
1.92211e-11
5.14325e-11
7.61484e-11
7.78577e-11
4.99981e-11
2.17414e-11
7.24926e-12
9.81458e-13
0
0
0
0
0
0
0
0
0
0
0
0
0
0
0
0
0
0
0
0
0
0
1.76937e-12
0
5.55179e-09
0
0
0
8.25769e-11
0
0
0
0
0
0
0
0
0
0
0
0
0
0
0
0
6.06583e-12
2.65551e-11
4.97453e-11
7.3244e-11
9.26457e-11
9.85024e-11
7.96911e-11
4.85791e-11
2.54437e-11
1.26276e-11
6.00493e-12
2.58968e-12
8.05089e-13
0
0
0
0
0
0
0
0
0
0
0
0
0
0
0
0
4.8999e-09
0
0
0
1.66594e-10
0
0
0
0
0
0
0
0
0
0
0
0
0
0
0
0
0
0
0
8.92853e-13
1.12539e-11
2.38057e-11
3.92364e-11
5.73362e-11
7.73601e-11
9.7708e-11
1.16245e-10
1.2624e-10
1.16571e-10
8.77093e-11
5.69461e-11
3.45264e-11
2.11166e-11
1.25571e-11
8.29586e-12
4.36202e-12
3.48501e-12
6.26179e-13
1.02791e-12
0
0
1.532e-12
0
0
0
4.26726e-09
0
0
0
2.22504e-10
0
0
0
0
0
0
0
0
0
0
0
0
0
0
0
0
0
0
0
0
0
0
1.4154e-12
7.86329e-12
1.45107e-11
2.16965e-11
2.99976e-11
4.01048e-11
5.26868e-11
6.72273e-11
8.4129e-11
1.01642e-10
1.208e-10
1.38081e-10
1.53154e-10
1.53289e-10
1.37979e-10
1.06156e-10
7.8167e-11
5.58337e-11
3.97853e-11
3.95027e-11
1.78786e-11
2.48782e-11
0
3.65898e-09
0
0
0
2.35241e-10
0
0
0
0
0
0
0
0
0
0
0
0
0
0
0
0
0
0
0
0
0
0
0
0
0
3.00467e-12
7.51361e-12
1.18633e-11
1.6428e-11
2.06208e-11
2.56062e-11
2.97249e-11
3.60765e-11
4.08398e-11
5.05576e-11
5.7908e-11
7.23878e-11
8.60355e-11
1.06043e-10
1.40375e-10
1.79637e-10
2.80609e-10
4.0415e-10
6.51388e-10
8.9203e-10
3.07934e-09
0
0
0
1.8745e-10
0
0
0
0
0
0
0
0
0
0
0
0
0
0
0
0
0
0
0
0
0
0
0
0
0
0
0
1.13189e-12
4.38856e-12
7.04378e-12
1.03396e-11
1.23224e-11
1.60796e-11
1.71237e-11
2.1918e-11
2.24317e-11
2.87338e-11
3.30582e-11
4.15661e-11
6.66246e-11
8.5278e-11
1.716e-10
2.38664e-10
4.25453e-10
5.39079e-10
2.53129e-09
0
0
0
6.00753e-11
0
0
0
0
0
0
0
0
0
0
0
0
0
0
0
0
0
0
0
0
0
0
0
0
0
0
0
0
0
5.36917e-13
3.0476e-12
4.20585e-12
6.93651e-12
7.14283e-12
1.05299e-11
1.04159e-11
1.46853e-11
1.87886e-11
2.42868e-11
4.84094e-11
6.07959e-11
1.36627e-10
1.77893e-10
3.10913e-10
3.31551e-10
2.01614e-09
0
0
0
0
0
0
0
0
0
0
0
0
0
0
0
0
0
0
0
0
0
0
0
0
0
0
0
0
0
0
0
0
0
0
0
3.9814e-13
2.52229e-12
2.49106e-12
4.93713e-12
4.96919e-12
7.86747e-12
1.25951e-11
1.65499e-11
3.99595e-11
5.04973e-11
1.15937e-10
1.4728e-10
2.43525e-10
2.27633e-10
1.53347e-09
0
0
0
0
0
0
0
0
0
0
0
0
0
0
0
0
0
0
0
0
0
0
0
0
0
0
0
0
0
0
0
0
0
0
0
0
5.61329e-13
5.7703e-13
2.39288e-12
2.84816e-12
4.91409e-12
1.04387e-11
1.39467e-11
3.67299e-11
4.77433e-11
1.04564e-10
1.32141e-10
2.0227e-10
1.65915e-10
1.08128e-09
0
0
0
0
0
0
0
0
0
0
0
0
0
0
0
0
0
0
0
0
0
0
0
0
0
0
0
0
0
0
0
0
0
0
0
0
0
9.8246e-14
1.50949e-12
2.4724e-12
4.13502e-12
1.04126e-11
1.42438e-11
3.64606e-11
4.90539e-11
9.90668e-11
1.24865e-10
1.75715e-10
1.24069e-10
6.5637e-10
0
0
0
0
0
0
0
0
0
0
0
0
0
0
0
0
0
0
0
0
0
0
0
0
0
0
0
0
0
0
0
0
0
0
0
0
0
3.54037e-13
1.52872e-12
2.98738e-12
4.56763e-12
1.14547e-11
1.60668e-11
3.76458e-11
5.20338e-11
9.62886e-11
1.19976e-10
1.54761e-10
8.84818e-11
2.54967e-10
0
0
0
0
0
0
0
0
0
0
0
0
0
0
0
0
0
0
0
0
0
0
0
0
0
0
0
0
0
0
0
0
0
0
0
0
2.62161e-13
9.796e-13
2.03883e-12
3.92357e-12
5.63658e-12
1.29435e-11
1.85156e-11
3.92833e-11
5.50548e-11
9.38707e-11
1.13839e-10
1.33179e-10
5.10053e-11
0
0
0
0
0
0
0
0
0
0
0
0
0
0
0
0
0
0
0
0
0
0
0
0
0
0
0
0
0
0
0
0
0
0
0
0
0
8.59987e-13
1.80939e-12
2.83211e-12
5.036e-12
6.99053e-12
1.44932e-11
2.09533e-11
4.06157e-11
5.68995e-11
8.99716e-11
1.0393e-10
1.06804e-10
6.64603e-12
0
0
0
0
0
0
0
0
0
0
0
0
0
0
0
0
0
0
0
0
0
0
0
0
0
0
0
0
0
0
0
0
0
0
0
0
2.93277e-13
1.65254e-12
2.78421e-12
3.80953e-12
6.20084e-12
8.40166e-12
1.58412e-11
2.28956e-11
4.10205e-11
5.65995e-11
8.30754e-11
8.8308e-11
7.25488e-11
0
0
0
0
0
0
0
0
0
0
0
0
0
0
0
0
0
0
0
0
0
0
0
0
0
0
0
0
0
0
0
0
0
0
0
0
0
1.26003e-12
2.64466e-12
3.89324e-12
4.91884e-12
7.34326e-12
9.69103e-12
1.67591e-11
2.39119e-11
3.98947e-11
5.32688e-11
7.17875e-11
6.52589e-11
2.78653e-11
0
0
0
0
0
0
0
0
0
0
0
0
0
0
0
0
0
0
0
0
0
0
0
0
0
0
0
0
0
0
0
0
0
0
0
0
5.39191e-13
2.45053e-12
3.8587e-12
5.1442e-12
6.12142e-12
8.39531e-12
1.06823e-11
1.6995e-11
2.35553e-11
3.65734e-11
4.59761e-11
5.46697e-11
3.30296e-11
0
0
0
0
0
0
0
0
0
0
0
0
0
0
0
0
0
0
0
0
0
0
0
0
0
0
0
0
0
0
0
0
0
0
0
0
0
1.85908e-12
3.91665e-12
5.32689e-12
6.5514e-12
7.37834e-12
9.2752e-12
1.11779e-11
1.62432e-11
2.1319e-11
3.0283e-11
3.36686e-11
3.01515e-11
0
0
0
0
8.66976e-10
0
0
0
0
0
0
0
0
0
0
0
0
0
0
0
0
0
0
0
0
0
0
0
0
0
0
0
0
0
0
0
0
5.02097e-13
3.55493e-12
5.72428e-12
7.0913e-12
8.13248e-12
8.64656e-12
9.87925e-12
1.09489e-11
1.41308e-11
1.6615e-11
2.01243e-11
1.51376e-11
0
0
0
0
0
1.79355e-09
0
0
0
0
0
0
0
0
0
0
0
0
0
0
0
0
0
0
0
0
0
0
0
0
0
0
0
0
0
0
0
0
2.43832e-12
5.7201e-12
7.95581e-12
9.20584e-12
9.90862e-12
9.87865e-12
1.00804e-11
9.73071e-12
1.02159e-11
8.76532e-12
5.07246e-12
0
0
0
0
0
0
2.59444e-09
0
0
0
0
0
0
0
0
0
0
0
0
0
0
0
0
0
0
0
0
0
0
0
0
0
0
0
0
0
0
0
0
4.96574e-12
8.47395e-12
1.07175e-11
1.17441e-11
1.19126e-11
1.10306e-11
9.73678e-12
7.23012e-12
3.99843e-12
0
0
0
0
0
0
0
0
3.27164e-09
0
0
0
0
0
0
0
0
0
0
0
0
0
0
0
0
0
0
0
0
0
0
0
0
0
0
0
0
0
0
0
2.74094e-12
8.24534e-12
1.19664e-11
1.41426e-11
1.48029e-11
1.41918e-11
1.2066e-11
8.69759e-12
3.13198e-12
0
0
0
0
0
0
0
0
0
3.83032e-09
0
0
0
0
0
0
0
0
0
0
0
0
0
0
0
0
0
0
0
0
0
0
0
0
0
0
0
0
0
0
0
6.45581e-12
1.24782e-11
1.6388e-11
1.84019e-11
1.85143e-11
1.68216e-11
1.29708e-11
6.8206e-12
0
0
0
0
0
0
0
0
0
0
4.27805e-09
0
0
0
0
0
0
0
0
0
0
0
0
0
0
0
0
0
0
0
0
0
0
0
0
0
0
0
0
0
0
2.02172e-12
1.13468e-11
1.79155e-11
2.19799e-11
2.37155e-11
2.30594e-11
1.99222e-11
1.37725e-11
3.99844e-12
0
0
0
0
0
0
0
0
0
0
4.62319e-09
0
0
0
0
0
0
0
0
0
0
0
0
0
0
0
0
0
0
0
0
0
0
0
0
0
0
0
0
0
0
7.34445e-12
1.77246e-11
2.48701e-11
2.90463e-11
3.03678e-11
2.86848e-11
2.368e-11
1.45659e-11
1.93123e-13
0
0
0
0
0
0
0
0
0
0
4.87465e-09
0
0
0
0
0
0
0
0
0
0
0
0
0
0
0
0
0
0
0
0
0
0
0
0
0
0
0
0
0
0
1.44217e-11
2.59719e-11
3.37303e-11
3.79716e-11
3.87277e-11
3.57278e-11
2.8376e-11
1.55499e-11
0
0
0
0
0
0
0
0
0
0
0
5.04254e-09
0
0
0
0
0
0
0
0
0
0
0
0
0
0
0
0
0
0
0
0
0
0
0
0
0
0
0
0
0
5.92362e-12
2.37028e-11
3.65563e-11
4.49762e-11
4.92401e-11
4.9272e-11
4.46443e-11
3.4424e-11
1.70756e-11
0
0
0
0
0
0
0
0
0
0
0
5.13803e-09
0
0
0
0
0
0
0
0
0
0
0
0
0
0
0
0
0
0
0
0
0
0
0
0
0
0
0
0
0
1.57183e-11
3.57306e-11
5.0047e-11
5.92006e-11
6.34578e-11
6.26156e-11
5.6045e-11
4.24183e-11
1.97046e-11
0
0
0
0
0
0
0
0
0
0
0
5.17227e-09
0
0
0
0
0
0
0
0
0
0
0
0
0
0
0
0
0
0
0
0
0
0
0
0
0
0
0
0
0
2.86115e-11
5.11544e-11
6.71356e-11
7.71307e-11
8.13817e-11
7.95471e-11
7.074e-11
5.31935e-11
2.42847e-11
0
0
0
0
0
0
0
0
0
0
0
5.15556e-09
0
0
0
0
0
0
0
0
0
0
0
0
0
0
0
0
0
0
0
0
0
0
0
0
0
0
0
0
1.13704e-11
4.53185e-11
7.07464e-11
8.86569e-11
9.96481e-11
1.03956e-10
1.01068e-10
8.97963e-11
6.78916e-11
3.20396e-11
0
0
0
0
0
0
0
0
0
0
0
5.09692e-09
0
0
0
0
0
0
0
0
0
0
0
0
0
0
0
0
0
0
0
0
0
0
0
0
0
0
0
0
2.81877e-11
6.66758e-11
9.54246e-11
1.15603e-10
1.27822e-10
1.3235e-10
1.28436e-10
1.14607e-10
8.80393e-11
4.46785e-11
0
0
0
0
0
0
0
0
0
0
0
5.00402e-09
0
0
0
0
0
0
0
0
0
0
0
0
0
0
0
0
0
0
0
0
0
0
0
0
0
0
0
0
4.99679e-11
9.36544e-11
1.26267e-10
1.49141e-10
1.62948e-10
1.67985e-10
1.63231e-10
1.46954e-10
1.15642e-10
6.45262e-11
0
0
0
0
0
0
0
0
0
0
0
4.8833e-09
0
0
0
0
0
0
0
0
0
0
0
0
0
0
0
0
0
0
0
0
0
0
0
0
0
0
0
1.39472e-11
7.76955e-11
1.27372e-10
1.64511e-10
1.90651e-10
2.06579e-10
2.12574e-10
2.07424e-10
1.89072e-10
1.53308e-10
9.46674e-11
4.58015e-12
0
0
0
0
0
0
0
0
0
0
4.74008e-09
0
0
0
0
0
0
0
0
0
0
0
0
0
0
0
0
0
0
0
0
0
0
0
0
0
0
0
4.00175e-11
1.12475e-10
1.6909e-10
2.1157e-10
2.41752e-10
2.60516e-10
2.68188e-10
2.63411e-10
2.43735e-10
2.04378e-10
1.39089e-10
3.81634e-11
0
0
0
0
0
0
0
0
0
0
4.57882e-09
0
0
0
0
0
0
0
0
0
0
0
0
0
0
0
0
0
0
0
0
0
0
0
0
0
0
0
7.30852e-11
1.55523e-10
2.20206e-10
2.69059e-10
3.04283e-10
3.26848e-10
3.37297e-10
3.34041e-10
3.14384e-10
2.72998e-10
2.02857e-10
9.33232e-11
0
0
0
0
0
0
0
0
0
0
4.4033e-09
0
0
0
0
0
0
0
0
0
0
0
0
0
0
0
0
0
0
0
0
0
0
0
0
0
0
0
1.14243e-10
2.08143e-10
2.82255e-10
3.38771e-10
3.80289e-10
4.0801e-10
4.22741e-10
4.22697e-10
4.05181e-10
3.64205e-10
2.92305e-10
1.78047e-10
7.70364e-12
0
0
0
0
0
0
0
0
0
4.21684e-09
0
0
0
0
0
0
0
0
0
0
0
0
0
0
0
0
0
0
0
0
0
0
0
0
0
0
3.29721e-11
1.64614e-10
2.71701e-10
3.56868e-10
4.22611e-10
4.72053e-10
5.06717e-10
5.27724e-10
5.33359e-10
5.20945e-10
4.84062e-10
4.1515e-10
3.02175e-10
1.31414e-10
0
0
0
0
0
0
0
0
0
4.02237e-09
0
0
0
0
0
0
0
0
0
0
0
0
0
0
0
0
0
0
0
0
0
0
0
0
0
0
7.59042e-11
2.25298e-10
3.47561e-10
4.45705e-10
5.22598e-10
5.82009e-10
6.25862e-10
6.55844e-10
6.70451e-10
6.672e-10
6.39687e-10
5.8046e-10
4.77517e-10
3.18048e-10
8.36231e-11
0
0
0
0
0
0
0
0
3.82239e-09
0
0
0
0
0
0
0
0
0
0
0
0
0
0
0
0
0
0
0
0
0
0
0
0
0
0
1.27762e-10
2.97288e-10
4.37018e-10
5.50402e-10
6.40746e-10
7.12616e-10
7.68504e-10
8.1093e-10
8.38752e-10
8.50142e-10
8.38994e-10
7.98594e-10
7.17843e-10
5.85963e-10
3.87619e-10
1.10455e-10
0
0
0
0
0
0
0
3.61914e-09
0
0
0
0
0
0
0
0
0
0
0
0
0
0
0
0
0
0
0
0
0
0
0
0
0
0
1.89081e-10
3.81395e-10
5.41189e-10
6.7241e-10
7.78928e-10
8.66258e-10
9.37684e-10
9.96818e-10
1.04323e-09
1.07622e-09
1.09049e-09
1.08094e-09
1.03837e-09
9.5577e-10
8.2353e-10
6.39729e-10
4.05996e-10
1.52736e-10
0
0
6.96107e-10
2.62378e-09
0
3.4147e-09
9.60738e-11
0
0
0
0
0
0
0
0
0
0
0
0
0
0
0
0
0
0
0
0
0
0
0
0
4.86642e-12
2.60102e-10
4.78105e-10
6.60844e-10
8.12857e-10
9.38693e-10
1.04499e-09
1.13608e-09
1.21705e-09
1.28862e-09
1.35175e-09
1.40269e-09
1.43898e-09
1.45475e-09
1.44909e-09
1.42138e-09
1.3857e-09
1.37047e-09
1.45474e-09
1.79849e-09
2.77875e-09
5.0478e-09
8.79449e-09
0
3.21107e-09
3.26815e-10
0
0
0
0
0
0
0
0
0
0
0
0
0
0
0
0
0
0
0
0
0
0
0
0
5.37893e-11
3.40614e-10
5.87419e-10
7.96234e-10
9.72312e-10
1.12095e-09
1.25014e-09
1.36565e-09
1.47442e-09
1.57875e-09
1.68206e-09
1.78301e-09
1.88301e-09
1.9813e-09
2.08575e-09
2.20876e-09
2.38694e-09
2.68614e-09
3.25162e-09
4.36346e-09
6.60467e-09
1.07896e-08
1.60136e-08
0
3.01004e-09
5.16232e-10
0
0
0
0
0
0
0
0
0
0
0
0
0
0
0
0
0
0
0
0
0
0
0
0
1.08234e-10
4.29812e-10
7.08641e-10
9.46828e-10
1.15043e-09
1.32558e-09
1.48198e-09
1.62715e-09
1.77017e-09
1.91568e-09
2.07042e-09
2.23629e-09
2.41985e-09
2.62762e-09
2.87919e-09
3.20378e-09
3.66647e-09
4.37932e-09
5.56353e-09
7.61903e-09
1.12652e-08
1.70841e-08
2.20861e-08
0
2.81304e-09
6.68731e-10
0
0
0
0
0
0
0
0
0
0
0
0
0
0
0
0
0
0
0
0
0
0
0
0
1.66679e-10
5.26111e-10
8.40136e-10
1.11101e-09
1.34566e-09
1.55115e-09
1.73912e-09
1.91913e-09
2.10313e-09
2.29874e-09
2.51635e-09
2.7621e-09
3.04971e-09
3.39465e-09
3.82955e-09
4.40311e-09
5.21252e-09
6.41564e-09
8.29355e-09
1.12981e-08
1.60471e-08
2.22649e-08
2.47975e-08
0
2.62126e-09
7.88494e-10
0
0
0
0
0
0
0
0
0
0
0
0
0
0
0
0
0
0
0
0
0
0
0
0
2.26843e-10
6.26914e-10
9.79117e-10
1.28593e-09
1.55482e-09
1.79402e-09
2.01768e-09
2.23765e-09
2.46886e-09
2.72236e-09
3.01318e-09
3.35293e-09
3.76289e-09
4.26748e-09
4.91308e-09
5.76816e-09
6.95625e-09
8.65974e-09
1.11622e-08
1.48196e-08
1.98203e-08
2.47606e-08
2.38719e-08
0
2.43559e-09
8.79472e-10
0
0
0
0
0
0
0
0
0
0
0
0
0
0
0
0
0
0
0
0
0
0
0
0
2.85512e-10
7.28576e-10
1.12158e-09
1.46681e-09
1.77242e-09
2.04838e-09
2.3111e-09
2.57469e-09
2.85764e-09
3.17513e-09
3.54708e-09
3.99042e-09
4.53341e-09
5.20884e-09
6.07479e-09
7.21175e-09
8.74894e-09
1.08495e-08
1.37096e-08
1.74241e-08
2.16097e-08
2.42566e-08
2.07133e-08
0
2.25673e-09
9.45304e-10
0
0
0
0
0
0
0
0
0
0
0
0
0
0
0
0
0
0
0
0
0
0
0
0
3.38581e-10
8.26283e-10
1.26168e-09
1.64682e-09
1.99095e-09
2.30549e-09
2.60868e-09
2.91748e-09
3.25446e-09
3.63853e-09
4.09372e-09
4.64181e-09
5.31669e-09
6.1561e-09
7.22182e-09
8.58966e-09
1.03632e-08
1.26326e-08
1.5427e-08
1.85271e-08
2.12026e-08
2.16537e-08
1.68321e-08
0
2.08516e-09
9.893e-10
0
0
0
0
0
0
0
0
0
0
0
0
0
0
0
0
0
0
0
0
0
0
0
0
3.81019e-10
9.13775e-10
1.39189e-09
1.81737e-09
2.2002e-09
2.55286e-09
2.89568e-09
3.24874e-09
3.6379e-09
4.08494e-09
4.61746e-09
5.26056e-09
6.04954e-09
7.02017e-09
8.22588e-09
9.71723e-09
1.15404e-08
1.36755e-08
1.59744e-08
1.80296e-08
1.91489e-08
1.81341e-08
1.31094e-08
0
1.92117e-09
1.01451e-09
0
0
0
0
0
0
0
0
0
0
0
0
0
0
0
0
0
0
0
0
0
0
0
0
4.06933e-10
9.83693e-10
1.50334e-09
1.96769e-09
2.38711e-09
2.77503e-09
3.15375e-09
3.54593e-09
3.97976e-09
4.47924e-09
5.07376e-09
5.78805e-09
6.65326e-09
7.69547e-09
8.94655e-09
1.04136e-08
1.20698e-08
1.37935e-08
1.53382e-08
1.63041e-08
1.62575e-08
1.45291e-08
9.89073e-09
0
1.76493e-09
1.0237e-09
0
0
0
0
0
0
0
0
0
0
0
0
0
0
0
0
0
0
0
0
0
0
0
0
4.09914e-10
1.02785e-09
1.58582e-09
2.08532e-09
2.53669e-09
2.95402e-09
3.36109e-09
3.78256e-09
4.2478e-09
4.78156e-09
5.41223e-09
6.16023e-09
7.04715e-09
8.08176e-09
9.26482e-09
1.05556e-08
1.18675e-08
1.30278e-08
1.37966e-08
1.39041e-08
1.31768e-08
1.12559e-08
7.24841e-09
0
1.61647e-09
1.01943e-09
0
0
0
0
0
0
0
0
0
0
0
0
0
0
0
0
0
0
0
0
0
0
0
0
3.83442e-10
1.03769e-09
1.62859e-09
2.15701e-09
2.63277e-09
3.07041e-09
3.49474e-09
3.93126e-09
4.409e-09
4.95188e-09
5.58462e-09
6.31988e-09
7.16538e-09
8.10876e-09
9.11981e-09
1.01227e-08
1.10044e-08
1.16002e-08
1.17435e-08
1.13099e-08
1.02883e-08
8.46492e-09
5.14581e-09
0
1.47579e-09
1.00393e-09
0
0
0
0
0
0
0
0
0
0
0
0
0
0
0
0
0
0
0
0
0
0
0
0
3.21523e-10
1.00518e-09
1.62135e-09
2.16987e-09
2.65978e-09
3.1059e-09
3.53322e-09
3.96692e-09
4.43444e-09
4.95754e-09
5.55497e-09
6.22941e-09
6.97394e-09
7.75775e-09
8.52948e-09
9.20016e-09
9.6644e-09
9.80232e-09
9.53337e-09
8.83445e-09
7.76513e-09
6.17291e-09
3.51416e-09
0
1.34275e-09
9.79246e-10
0
0
0
0
0
0
0
0
0
0
0
0
0
0
0
0
0
0
0
0
0
0
0
0
2.19496e-10
9.23742e-10
1.55537e-09
2.11307e-09
2.60505e-09
3.04595e-09
3.45997e-09
3.87128e-09
4.30527e-09
4.78031e-09
5.30797e-09
5.88141e-09
6.48234e-09
7.06897e-09
7.58275e-09
7.94198e-09
8.06973e-09
7.89873e-09
7.41336e-09
6.6409e-09
5.65736e-09
4.34172e-09
2.28271e-09
0
1.21721e-09
9.47053e-10
0
0
0
0
0
0
0
0
0
0
0
0
0
0
0
0
0
0
0
0
0
0
0
0
7.48497e-11
7.89324e-10
1.42514e-09
1.97995e-09
2.46095e-09
2.88224e-09
3.26681e-09
3.63769e-09
4.01773e-09
4.42154e-09
4.85432e-09
5.30283e-09
5.74259e-09
6.12933e-09
6.40943e-09
6.52081e-09
6.41972e-09
6.08043e-09
5.52353e-09
4.79179e-09
3.95506e-09
2.91702e-09
1.38885e-09
0
1.09884e-09
9.08964e-10
0
0
0
0
0
0
0
0
0
0
0
0
0
0
0
0
0
0
0
0
0
0
0
0
0
6.01575e-10
1.22978e-09
1.76952e-09
2.2269e-09
2.61553e-09
2.95702e-09
3.27348e-09
3.58517e-09
3.90382e-09
4.23063e-09
4.54983e-09
4.83559e-09
5.04813e-09
5.14607e-09
5.08952e-09
4.86161e-09
4.46197e-09
3.92565e-09
3.2936e-09
2.62357e-09
1.84411e-09
7.7985e-10
0
9.87388e-10
8.66332e-10
0
0
0
0
0
0
0
0
0
0
0
0
0
0
0
0
0
0
0
0
0
0
0
0
0
3.64804e-10
9.73999e-10
1.4874e-09
1.91038e-09
2.2565e-09
2.5461e-09
2.80058e-09
3.0383e-09
3.26934e-09
3.49335e-09
3.69547e-09
3.85276e-09
3.9335e-09
3.91011e-09
3.76108e-09
3.48666e-09
3.09865e-09
2.63421e-09
2.12616e-09
1.62089e-09
1.07314e-09
4.1185e-10
0
8.82597e-10
8.20255e-10
0
0
0
0
0
0
0
0
0
0
0
0
0
0
0
0
0
0
0
0
0
0
0
0
0
8.80555e-11
6.68584e-10
1.14671e-09
1.52784e-09
1.82576e-09
2.06033e-09
2.25254e-09
2.41996e-09
2.5719e-09
2.70818e-09
2.81711e-09
2.88064e-09
2.87658e-09
2.78837e-09
2.60685e-09
2.34127e-09
2.00727e-09
1.63844e-09
1.25862e-09
9.05425e-10
5.6075e-10
2.48595e-10
0
7.84144e-10
7.71721e-10
0
0
0
0
0
0
0
0
0
0
0
0
0
0
0
0
0
0
0
0
0
0
0
0
0
0
3.29923e-10
7.67193e-10
1.10314e-09
1.3522e-09
1.53445e-09
1.6709e-09
1.77891e-09
1.86816e-09
1.93944e-09
1.98461e-09
1.99092e-09
1.94397e-09
1.83568e-09
1.66422e-09
1.44135e-09
1.18235e-09
9.1566e-10
6.57391e-10
4.39176e-10
2.70105e-10
2.60121e-10
0
6.91667e-10
7.21615e-10
0
0
0
0
0
0
0
0
0
0
0
0
0
0
0
0
0
0
0
0
0
0
0
0
0
0
0
3.73521e-10
6.65282e-10
8.69693e-10
1.00742e-09
1.09975e-09
1.16423e-09
1.21105e-09
1.24248e-09
1.25328e-09
1.23511e-09
1.17898e-09
1.08203e-09
9.45986e-10
7.83373e-10
6.06646e-10
4.38789e-10
2.90191e-10
1.88756e-10
1.70161e-10
4.2151e-10
0
6.04823e-10
6.7067e-10
0
0
0
0
0
0
0
0
0
0
0
0
0
0
0
0
0
0
0
0
0
0
0
0
0
0
0
0
2.45532e-10
4.13369e-10
5.18013e-10
5.80935e-10
6.19744e-10
6.45013e-10
6.60084e-10
6.61809e-10
6.44824e-10
6.03559e-10
5.37936e-10
4.50975e-10
3.54335e-10
2.57963e-10
1.8038e-10
1.27536e-10
1.25321e-10
2.34804e-10
7.11996e-10
0
5.2327e-10
6.19512e-10
0
0
0
0
0
0
0
0
0
0
0
0
0
0
0
0
0
0
0
0
0
0
0
0
0
0
0
0
0
1.62672e-11
1.01028e-10
1.50141e-10
1.8081e-10
2.03428e-10
2.21744e-10
2.33781e-10
2.35938e-10
2.24537e-10
2.00737e-10
1.67823e-10
1.36164e-10
1.13484e-10
1.14926e-10
1.43612e-10
2.24313e-10
4.42007e-10
1.11408e-09
0
4.46661e-10
5.68667e-10
0
0
0
0
0
0
0
0
0
0
0
0
0
0
0
0
0
0
0
0
0
0
0
0
0
0
0
0
0
0
0
0
0
0
0
0
1.27885e-11
3.89159e-11
6.05356e-11
8.08063e-11
1.08886e-10
1.50898e-10
2.19455e-10
3.15917e-10
4.64733e-10
7.73118e-10
1.61299e-09
0
3.74653e-10
5.18585e-10
0
0
0
0
0
0
0
0
0
0
0
0
0
0
0
0
0
0
0
0
0
0
0
0
0
0
0
0
0
0
0
0
0
0
0
0
0
3.79081e-11
1.03848e-10
1.72819e-10
2.53078e-10
3.49749e-10
4.7363e-10
6.25068e-10
8.28706e-10
1.21243e-09
2.19646e-09
0
3.06909e-10
4.69646e-10
0
0
0
0
0
0
0
0
0
0
0
0
0
0
0
0
0
0
0
0
0
0
0
0
0
0
0
0
0
0
0
0
0
0
0
8.9116e-13
1.05384e-10
2.09717e-10
3.15882e-10
4.27002e-10
5.50809e-10
6.91949e-10
8.59969e-10
1.05474e-09
1.30136e-09
1.74685e-09
2.85428e-09
0
2.43098e-10
4.22178e-10
0
0
0
0
0
0
0
0
0
0
0
0
0
0
0
0
0
0
0
0
0
0
0
0
0
0
0
0
0
0
0
0
0
0
1.24562e-10
2.62967e-10
4.02455e-10
5.41341e-10
6.81916e-10
8.27637e-10
9.8608e-10
1.16183e-09
1.36363e-09
1.59124e-09
1.8704e-09
2.36575e-09
3.57865e-09
0
1.82891e-10
3.76468e-10
0
0
0
0
0
0
0
0
0
0
0
0
0
0
0
0
0
0
0
0
0
0
0
0
0
0
0
0
0
0
0
1.58103e-11
1.73057e-10
3.37925e-10
5.08553e-10
6.80821e-10
8.51713e-10
1.01993e-09
1.18825e-09
1.36071e-09
1.54507e-09
1.74617e-09
1.97227e-09
2.22329e-09
2.52574e-09
3.06058e-09
4.36336e-09
0
1.25971e-10
3.3278e-10
0
0
0
0
0
0
0
0
0
0
0
0
0
0
0
0
0
0
0
0
0
0
0
0
0
0
0
0
0
6.63684e-11
2.51211e-10
4.39443e-10
6.34861e-10
8.36762e-10
1.04166e-09
1.24446e-09
1.44205e-09
1.63366e-09
1.82275e-09
2.0142e-09
2.21618e-09
2.43407e-09
2.67588e-09
2.94187e-09
3.25949e-09
3.82483e-09
5.20419e-09
0
7.20295e-11
2.91369e-10
0
0
0
0
0
0
0
0
0
0
0
0
0
0
0
0
0
0
0
0
0
0
0
0
0
0
0
1.1885e-10
3.45679e-10
5.63793e-10
7.83067e-10
1.00886e-09
1.24187e-09
1.47904e-09
1.71516e-09
1.94425e-09
2.16326e-09
2.37209e-09
2.57505e-09
2.77806e-09
2.98995e-09
3.21684e-09
3.46667e-09
3.74014e-09
4.06574e-09
4.65379e-09
6.09848e-09
0
2.07765e-11
2.52518e-10
0
0
0
0
0
0
0
0
0
0
0
0
0
0
0
0
0
0
0
0
0
0
0
0
0
1.65389e-10
4.47855e-10
7.06368e-10
9.54016e-10
1.20156e-09
1.45577e-09
1.7186e-09
1.98758e-09
2.2574e-09
2.52093e-09
2.77159e-09
3.0065e-09
3.2264e-09
3.43662e-09
3.64427e-09
3.85903e-09
4.0879e-09
4.33893e-09
4.61332e-09
4.94067e-09
5.54474e-09
7.04545e-09
0
0
2.16553e-10
0
0
0
0
0
0
0
0
0
0
0
0
0
0
0
0
0
0
0
0
0
0
0
2.19536e-10
5.67581e-10
8.76224e-10
1.15883e-09
1.42895e-09
1.69851e-09
1.97587e-09
2.26456e-09
2.56304e-09
2.86573e-09
3.16504e-09
3.45185e-09
3.71924e-09
3.96463e-09
4.18971e-09
4.40101e-09
4.60696e-09
4.81825e-09
5.04284e-09
5.28906e-09
5.55867e-09
5.88242e-09
6.49696e-09
8.04628e-09
0
0
1.83895e-10
0
0
0
0
0
0
0
0
0
0
0
0
0
0
0
0
0
0
0
0
0
2.94102e-10
7.20097e-10
1.09128e-09
1.4193e-09
1.71796e-09
2.00179e-09
2.28431e-09
2.57606e-09
2.88284e-09
3.20485e-09
3.53702e-09
3.87084e-09
4.19607e-09
4.50198e-09
4.78137e-09
5.03211e-09
5.25697e-09
5.46374e-09
5.66232e-09
5.86451e-09
6.07936e-09
6.31558e-09
6.57552e-09
6.89118e-09
7.51167e-09
9.10402e-09
0
0
1.55119e-10
0
0
0
0
0
0
0
0
0
0
0
0
0
0
0
0
0
0
0
3.81155e-10
9.00421e-10
1.35408e-09
1.74742e-09
2.09134e-09
2.4001e-09
2.68948e-09
2.97502e-09
3.27006e-09
3.58363e-09
3.91887e-09
4.2726e-09
4.6363e-09
4.99856e-09
5.34607e-09
5.66697e-09
5.95387e-09
6.2052e-09
6.42489e-09
6.62214e-09
6.80837e-09
6.99661e-09
7.19707e-09
7.41893e-09
7.66516e-09
7.96908e-09
8.59209e-09
1.02237e-08
0
0
1.31103e-10
0
0
0
0
0
0
0
0
0
0
0
0
0
0
0
0
0
4.67017e-10
1.07982e-09
1.63372e-09
2.1202e-09
2.53995e-09
2.90158e-09
3.21902e-09
3.50913e-09
3.78958e-09
4.07689e-09
4.38411e-09
4.7187e-09
5.08109e-09
5.46479e-09
5.85789e-09
6.24564e-09
6.61193e-09
6.94402e-09
7.23437e-09
7.48204e-09
7.69222e-09
7.87557e-09
8.04515e-09
8.21532e-09
8.39748e-09
8.60142e-09
8.8307e-09
9.12007e-09
9.74322e-09
1.14121e-08
0
0
1.13107e-10
0
0
0
0
0
0
0
0
0
0
0
0
0
0
0
5.56948e-10
1.23523e-09
1.88177e-09
2.47681e-09
3.00552e-09
3.46191e-09
3.84986e-09
4.1813e-09
4.47329e-09
4.74535e-09
5.01714e-09
5.30611e-09
5.62496e-09
5.97948e-09
6.36756e-09
6.77969e-09
7.20015e-09
7.61023e-09
7.99202e-09
8.33175e-09
8.62185e-09
8.86214e-09
9.05912e-09
9.225e-09
9.37449e-09
9.52332e-09
9.68418e-09
9.86747e-09
1.00774e-08
1.03502e-08
1.09721e-08
1.26779e-08
0
0
1.02836e-10
0
0
0
0
0
0
0
0
0
0
0
0
7.3212e-12
6.63076e-10
1.35945e-09
2.06437e-09
2.75041e-09
3.39564e-09
3.97995e-09
4.48954e-09
4.92078e-09
5.28061e-09
5.58441e-09
5.8527e-09
6.1079e-09
6.37156e-09
6.66192e-09
6.99159e-09
7.36519e-09
7.77806e-09
8.21682e-09
8.66193e-09
9.09161e-09
9.48594e-09
9.83023e-09
1.0117e-08
1.03468e-08
1.05275e-08
1.0673e-08
1.07996e-08
1.09247e-08
1.1062e-08
1.12229e-08
1.14119e-08
1.16671e-08
1.22875e-08
1.40319e-08
0
0
1.03226e-10
0
0
0
0
0
0
0
1.3912e-10
1.94863e-10
2.57027e-10
4.81622e-10
9.19749e-10
1.50762e-09
2.17016e-09
2.88757e-09
3.62275e-09
4.33087e-09
4.98842e-09
5.57433e-09
6.0752e-09
6.48942e-09
6.82734e-09
7.10816e-09
7.35593e-09
7.59595e-09
7.8521e-09
8.14405e-09
8.4845e-09
8.87659e-09
9.31283e-09
9.77625e-09
1.02437e-08
1.06904e-08
1.10945e-08
1.14407e-08
1.17214e-08
1.19383e-08
1.21006e-08
1.22236e-08
1.23257e-08
1.24254e-08
1.2538e-08
1.26754e-08
1.28428e-08
1.308e-08
1.36997e-08
1.54856e-08
0
0
1.19416e-10
0
0
0
0
0
3.15677e-10
7.9769e-10
1.18678e-09
1.4351e-09
1.6358e-09
1.93805e-09
2.40701e-09
2.99683e-09
3.65314e-09
4.38823e-09
5.17966e-09
5.93553e-09
6.62869e-09
7.23631e-09
7.74514e-09
8.15586e-09
8.48236e-09
8.74779e-09
8.98004e-09
9.20797e-09
9.4584e-09
9.75284e-09
1.01042e-08
1.05143e-08
1.09728e-08
1.14592e-08
1.19468e-08
1.24081e-08
1.28196e-08
1.31652e-08
1.34379e-08
1.36401e-08
1.37825e-08
1.38821e-08
1.39587e-08
1.40326e-08
1.41201e-08
1.4234e-08
1.43799e-08
1.45999e-08
1.52206e-08
1.70527e-08
0
0
1.58346e-10
0
0
0
0
3.88363e-10
1.03319e-09
1.75011e-09
2.36005e-09
2.76034e-09
3.04102e-09
3.36666e-09
3.82838e-09
4.39674e-09
5.02977e-09
5.77069e-09
6.65671e-09
7.50207e-09
8.26828e-09
8.92991e-09
9.47324e-09
9.90149e-09
1.0233e-08
1.04955e-08
1.07209e-08
1.0942e-08
1.11895e-08
1.14879e-08
1.1851e-08
1.22793e-08
1.27594e-08
1.32674e-08
1.37731e-08
1.42466e-08
1.4663e-08
1.50061e-08
1.52692e-08
1.54558e-08
1.55779e-08
1.5654e-08
1.57055e-08
1.5754e-08
1.58172e-08
1.59084e-08
1.6034e-08
1.6238e-08
1.68625e-08
1.8747e-08
0
0
2.31838e-10
1.47269e-11
0
0
3.99191e-10
1.05778e-09
1.89585e-09
2.85288e-09
3.64798e-09
4.12559e-09
4.39949e-09
4.67771e-09
5.08759e-09
5.61183e-09
6.20361e-09
6.92901e-09
7.93852e-09
8.9427e-09
9.83912e-09
1.06035e-08
1.12222e-08
1.17006e-08
1.20614e-08
1.23386e-08
1.25701e-08
1.27938e-08
1.30445e-08
1.33495e-08
1.37246e-08
1.41704e-08
1.46719e-08
1.52015e-08
1.57251e-08
1.62096e-08
1.66286e-08
1.69659e-08
1.72171e-08
1.73882e-08
1.74908e-08
1.75447e-08
1.75727e-08
1.75975e-08
1.76383e-08
1.77088e-08
1.7816e-08
1.80065e-08
1.86385e-08
2.05825e-08
0
0
3.60181e-10
2.57005e-10
2.36697e-10
4.85247e-10
1.05098e-09
1.88515e-09
2.94136e-09
4.14306e-09
5.05898e-09
5.51365e-09
5.67044e-09
5.81375e-09
6.11889e-09
6.57597e-09
7.11533e-09
7.80055e-09
8.89564e-09
1.01502e-08
1.12544e-08
1.21887e-08
1.29396e-08
1.35142e-08
1.39405e-08
1.42591e-08
1.45155e-08
1.47547e-08
1.50171e-08
1.53344e-08
1.57245e-08
1.61885e-08
1.671e-08
1.7259e-08
1.77989e-08
1.82941e-08
1.87165e-08
1.90491e-08
1.92869e-08
1.94382e-08
1.95235e-08
1.95583e-08
1.95658e-08
1.95703e-08
1.95916e-08
1.96446e-08
1.97364e-08
1.99165e-08
2.05606e-08
2.25723e-08
0
0
5.74848e-10
6.15885e-10
7.43811e-10
1.14825e-09
1.87789e-09
2.89801e-09
4.18096e-09
5.60128e-09
6.53649e-09
6.89108e-09
6.86914e-09
6.83614e-09
7.00799e-09
7.38066e-09
7.86219e-09
8.4749e-09
9.48187e-09
1.10213e-08
1.2416e-08
1.36006e-08
1.45561e-08
1.52888e-08
1.58302e-08
1.62281e-08
1.65371e-08
1.68109e-08
1.70978e-08
1.74352e-08
1.78447e-08
1.83287e-08
1.88702e-08
1.94375e-08
1.99919e-08
2.04961e-08
2.0921e-08
2.12493e-08
2.14763e-08
2.16102e-08
2.16765e-08
2.16967e-08
2.16886e-08
2.16773e-08
2.16837e-08
2.17234e-08
2.18038e-08
2.19776e-08
2.26388e-08
2.47269e-08
0
0
9.32534e-10
1.14885e-09
1.44741e-09
2.02744e-09
2.93491e-09
4.14808e-09
5.64755e-09
7.18553e-09
8.00218e-09
8.21229e-09
8.05423e-09
7.92635e-09
8.0294e-09
8.34941e-09
8.79491e-09
9.33285e-09
1.00851e-08
1.14501e-08
1.32024e-08
1.47245e-08
1.59748e-08
1.69473e-08
1.76714e-08
1.82013e-08
1.86016e-08
1.89377e-08
1.92677e-08
1.96373e-08
2.00732e-08
2.05805e-08
2.11427e-08
2.17275e-08
2.22948e-08
2.28066e-08
2.32334e-08
2.35579e-08
2.37759e-08
2.38965e-08
2.39472e-08
2.39583e-08
2.39409e-08
2.392e-08
2.39175e-08
2.39492e-08
2.40232e-08
2.41953e-08
2.48795e-08
2.70524e-08
0
2.90793e-10
1.52951e-09
1.94777e-09
2.42959e-09
3.19207e-09
4.27697e-09
5.677e-09
7.35395e-09
8.8094e-09
9.4311e-09
9.55951e-09
9.44281e-09
9.39925e-09
9.56154e-09
9.90659e-09
1.03676e-08
1.09088e-08
1.15251e-08
1.22573e-08
1.33247e-08
1.51732e-08
1.69285e-08
1.83125e-08
1.93468e-08
2.00986e-08
2.06525e-08
2.10929e-08
2.1494e-08
2.19136e-08
2.23867e-08
2.29229e-08
2.3508e-08
2.411e-08
2.4689e-08
2.52071e-08
2.56352e-08
2.59567e-08
2.61684e-08
2.62805e-08
2.63236e-08
2.63338e-08
2.63155e-08
2.62934e-08
2.62894e-08
2.632e-08
2.63934e-08
2.65694e-08
2.72822e-08
2.95479e-08
0
1.07162e-09
2.52739e-09
3.13894e-09
3.79665e-09
4.72708e-09
5.96281e-09
7.51331e-09
9.27e-09
1.04029e-08
1.08492e-08
1.10609e-08
1.11729e-08
1.13157e-08
1.1581e-08
1.20003e-08
1.24871e-08
1.29689e-08
1.34711e-08
1.40396e-08
1.46172e-08
1.54104e-08
1.70949e-08
1.91768e-08
2.07098e-08
2.18105e-08
2.26052e-08
2.32094e-08
2.37213e-08
2.42162e-08
2.47417e-08
2.53152e-08
2.59267e-08
2.65467e-08
2.71366e-08
2.76599e-08
2.8089e-08
2.84091e-08
2.86184e-08
2.8729e-08
2.87787e-08
2.88002e-08
2.87923e-08
2.87794e-08
2.87835e-08
2.88215e-08
2.89016e-08
2.90876e-08
2.98352e-08
3.21999e-08
0
2.66528e-09
4.13048e-09
4.82114e-09
5.59817e-09
6.64705e-09
7.9683e-09
9.58146e-09
1.12186e-08
1.18644e-08
1.22762e-08
1.27019e-08
1.30112e-08
1.33256e-08
1.40721e-08
1.46475e-08
1.51883e-08
1.55679e-08
1.55284e-08
1.57894e-08
1.62826e-08
1.68063e-08
1.7554e-08
1.93361e-08
2.15428e-08
2.31281e-08
2.42646e-08
2.51073e-08
2.57839e-08
2.63916e-08
2.69936e-08
2.76181e-08
2.82624e-08
2.89021e-08
2.95027e-08
3.0031e-08
3.04624e-08
3.07849e-08
3.09996e-08
3.11225e-08
3.12034e-08
3.1253e-08
3.12713e-08
3.12827e-08
3.13085e-08
3.13658e-08
3.14625e-08
3.16669e-08
3.24556e-08
3.49245e-08
1.23554e-09
5.48538e-09
6.25452e-09
6.7261e-09
7.49523e-09
8.5627e-09
9.85269e-09
1.13825e-08
1.2608e-08
1.28726e-08
1.33541e-08
1.39347e-08
1.42738e-08
1.51607e-08
1.63632e-08
1.70995e-08
1.77268e-08
1.81703e-08
1.77074e-08
1.73888e-08
1.7563e-08
1.80117e-08
1.84982e-08
1.93002e-08
2.13169e-08
2.35152e-08
2.50888e-08
2.62443e-08
2.71421e-08
2.79045e-08
2.86135e-08
2.93096e-08
2.99986e-08
3.06634e-08
3.12763e-08
3.18105e-08
3.22481e-08
3.25828e-08
3.28205e-08
3.29904e-08
3.31394e-08
3.32419e-08
3.33125e-08
3.3373e-08
3.34426e-08
3.35384e-08
3.36682e-08
3.39045e-08
3.47453e-08
3.7325e-08
0
0
5.64185e-13
7.31498e-12
4.96269e-12
3.9066e-12
2.28702e-12
1.7272e-12
1.42994e-12
1.72221e-12
1.75551e-12
1.45281e-12
0
0
0
0
0
0
0
0
0
0
0
0
0
0
0
0
0
0
0
0
0
0
0
0
0
2.04679e-10
4.04795e-10
5.53292e-10
1.39152e-09
3.37911e-09
5.6217e-09
7.13768e-09
7.63713e-09