/*--------------------------------*- C++ -*----------------------------------*\
  =========                 |
  \\      /  F ield         | OpenFOAM: The Open Source CFD Toolbox
   \\    /   O peration     | Website:  https://openfoam.org
    \\  /    A nd           | Version:  7
     \\/     M anipulation  |
\*---------------------------------------------------------------------------*/
FoamFile
{
    version     2.0;
    format      ascii;
    class       volScalarField;
    location    "0.2";
    object      p;
}
// * * * * * * * * * * * * * * * * * * * * * * * * * * * * * * * * * * * * * //

dimensions      [0 2 -2 0 0 0 0];

internalField   nonuniform List<scalar> 
70000
(
0.104185
0.0272996
0.0141609
0.0166222
0.0168941
0.0158605
0.0149164
0.0142036
0.0136132
0.0130955
0.0126365
0.0122281
0.0118629
0.0115339
0.0112359
0.0109644
0.0107158
0.010487
0.0102758
0.0100801
0.00989808
0.00972841
0.00956984
0.00942129
0.00928183
0.00915064
0.00902693
0.00890999
0.00879912
0.0086936
0.00859272
0.00849565
0.00840162
0.00830953
0.00821844
0.00812682
0.00803339
0.00793597
0.00783247
0.00772014
0.00759435
0.00745354
0.00728456
0.00709516
0.00684381
0.00657704
0.00616327
0.00577965
0.0050317
0.00441712
0.099885
0.0276616
0.0143635
0.0167168
0.0169485
0.0158963
0.0149444
0.0142267
0.0136326
0.0131121
0.0126509
0.0122409
0.0118743
0.0115443
0.0112454
0.0109731
0.0107237
0.0104945
0.0102827
0.0100866
0.00990419
0.00973418
0.00957531
0.00942649
0.0092868
0.00915539
0.0090315
0.00891438
0.00880336
0.00869769
0.00859669
0.0084995
0.00840537
0.00831319
0.00822202
0.00813032
0.00803682
0.00793935
0.00783579
0.00772342
0.00759757
0.00745673
0.00728768
0.00709828
0.00684678
0.00658001
0.00616607
0.00578137
0.0050372
0.00446633
0.0962796
0.0285839
0.014708
0.0168454
0.0170232
0.0159413
0.0149767
0.0142529
0.0136545
0.0131306
0.0126669
0.012255
0.0118868
0.0115555
0.0112556
0.0109824
0.0107324
0.0105024
0.0102902
0.0100935
0.00991074
0.00974037
0.00958117
0.00943206
0.00929211
0.00916047
0.00903636
0.00891906
0.00880787
0.00870205
0.00860091
0.00850361
0.00840937
0.00831709
0.00822584
0.00813408
0.00804053
0.00794302
0.00783943
0.00772706
0.00760122
0.00746044
0.00729141
0.00710221
0.00685075
0.00658442
0.00617075
0.00578566
0.00506006
0.00452624
0.0931748
0.0296829
0.0151843
0.0170179
0.0171244
0.0159992
0.0150149
0.0142828
0.0136791
0.0131511
0.0126844
0.0122701
0.0119002
0.0115675
0.0112664
0.0109922
0.0107414
0.0105108
0.0102979
0.0101007
0.0099175
0.00974673
0.00958718
0.00943776
0.00929753
0.00916564
0.00904131
0.00892381
0.00881244
0.00870646
0.00860518
0.00850776
0.00841341
0.00832104
0.00822972
0.00813791
0.00804432
0.0079468
0.00784323
0.00773091
0.00760517
0.00746456
0.00729575
0.00710692
0.00685596
0.00659031
0.00617862
0.0057929
0.00510028
0.00459942
0.0902184
0.0307765
0.0157576
0.017236
0.0172588
0.0160776
0.0150639
0.0143198
0.013709
0.0131757
0.0127049
0.0122877
0.0119155
0.011581
0.0112785
0.0110032
0.0107513
0.0105199
0.0103063
0.0101085
0.00992477
0.00975354
0.00959358
0.00944381
0.00930326
0.00917108
0.0090465
0.00892877
0.00881719
0.00871103
0.0086096
0.00851203
0.00841757
0.00832511
0.00823371
0.00814185
0.00804825
0.00795075
0.00784724
0.00773505
0.0076095
0.00746919
0.00730084
0.00711262
0.00686279
0.00659811
0.00619076
0.0058047
0.00515717
0.0046938
0.0873111
0.0318085
0.0163813
0.0174803
0.0174208
0.0161779
0.0151264
0.014366
0.0137463
0.0132061
0.0127301
0.0123089
0.0119338
0.0115971
0.0112927
0.0110159
0.0107628
0.0105303
0.0103159
0.0101173
0.00993292
0.00976112
0.00960066
0.00945045
0.00930951
0.00917698
0.00905209
0.00893408
0.00882226
0.00871588
0.00861425
0.00851652
0.00842191
0.00832934
0.00823786
0.00814596
0.00805235
0.0079549
0.0078515
0.00773951
0.00761428
0.00747443
0.00730682
0.00711954
0.00687159
0.00660833
0.00620818
0.00582315
0.00523003
0.00481171
0.0844456
0.0327615
0.017022
0.0177295
0.017597
0.0162956
0.0152012
0.0144214
0.0137912
0.0132429
0.0127605
0.0123346
0.0119559
0.0116163
0.0113096
0.0110309
0.0107763
0.0105425
0.010327
0.0101275
0.00994227
0.00976976
0.00960868
0.00945792
0.00931649
0.00918353
0.00905825
0.0089399
0.00882777
0.00872111
0.00861924
0.0085213
0.00842651
0.0083338
0.00824221
0.00815025
0.00805664
0.00795926
0.00785602
0.00774432
0.00761953
0.00748036
0.00731381
0.00712786
0.00688271
0.00662151
0.00623179
0.00585031
0.00531819
0.00495274
0.0816311
0.0336293
0.0176635
0.0179721
0.0177765
0.016424
0.015285
0.0144839
0.0138425
0.0132855
0.0127961
0.0123648
0.0119818
0.0116389
0.0113296
0.0110487
0.0107922
0.0105568
0.01034
0.0101393
0.0099531
0.00977972
0.00961788
0.00946644
0.00932441
0.00919092
0.00906515
0.00894637
0.00883384
0.00872684
0.00862466
0.00852644
0.00843142
0.00833853
0.0082468
0.00815477
0.00806114
0.00796387
0.00786082
0.00774952
0.0076253
0.00748705
0.00732193
0.00713778
0.00689648
0.00663821
0.0062623
0.00588801
0.00542078
0.00511527
0.078874
0.0344091
0.0183004
0.0182041
0.0179531
0.0165583
0.0153744
0.0145511
0.0138984
0.0133326
0.0128358
0.0123987
0.0120113
0.0116648
0.0113524
0.011069
0.0108104
0.0105733
0.0103549
0.0101529
0.00996555
0.00979115
0.00962841
0.00947616
0.00933341
0.00919927
0.00907292
0.00895361
0.00884061
0.00873317
0.0086306
0.00853205
0.00843673
0.0083436
0.00825168
0.00815955
0.0080659
0.00796875
0.00786593
0.00775512
0.00763164
0.00749456
0.00733129
0.00714945
0.0069132
0.00665894
0.00630021
0.00593765
0.00553653
0.00529909
0.0761778
0.0351003
0.0189312
0.0184254
0.018124
0.0166957
0.0154675
0.0146208
0.0139569
0.0133826
0.0128784
0.0124355
0.0120434
0.0116932
0.0113777
0.0110917
0.0108309
0.0105918
0.0103717
0.0101683
0.00997961
0.00980407
0.0096403
0.00948713
0.00934356
0.00920867
0.00908163
0.0089617
0.00884813
0.00874018
0.00863714
0.00853817
0.00844249
0.00834906
0.00825691
0.00816466
0.00807095
0.00797394
0.00787139
0.00776118
0.0076386
0.00750294
0.007342
0.00716302
0.00693308
0.00668417
0.00634566
0.00599996
0.00566374
0.00549589
0.0735457
0.0357031
0.019555
0.018637
0.0182877
0.0168347
0.0155632
0.0146922
0.0140169
0.0134342
0.0129229
0.0124741
0.0120774
0.0117234
0.0114049
0.0111162
0.010853
0.010612
0.0103901
0.0101852
0.00999509
0.00981832
0.00965344
0.00949928
0.00935479
0.00921907
0.00909127
0.00897064
0.00885642
0.00874789
0.00864431
0.00854486
0.00844875
0.00835497
0.00826253
0.00817011
0.00807635
0.00797947
0.00787726
0.00776774
0.00764624
0.00751226
0.00735413
0.00717858
0.0069562
0.0067142
0.00639846
0.00607482
0.00580064
0.00570356
0.0709808
0.036218
0.0201702
0.0188402
0.0184433
0.0169743
0.0156611
0.0147646
0.0140778
0.013487
0.0129686
0.012514
0.0121127
0.011755
0.0114333
0.0111419
0.0108765
0.0106334
0.0104097
0.0102032
0.0100117
0.00983367
0.00966764
0.00951242
0.00936697
0.00923036
0.00910175
0.00898035
0.00886544
0.00875625
0.00865207
0.00855208
0.00845549
0.00836131
0.00826855
0.00817594
0.0080821
0.00798539
0.00788354
0.00777482
0.00765459
0.00752254
0.00736773
0.00719617
0.00698253
0.00674914
0.0064581
0.00616128
0.00594538
0.00591742
0.0684858
0.0366457
0.0207745
0.0190361
0.0185903
0.0171138
0.015761
0.0148379
0.0141394
0.0135406
0.0130151
0.0125547
0.0121488
0.0117874
0.0114625
0.0111685
0.0109008
0.0106557
0.0104303
0.0102221
0.0100292
0.00984986
0.00968265
0.00952636
0.00937992
0.00924239
0.00911292
0.00899072
0.00887506
0.00876519
0.00866037
0.0085598
0.00846269
0.00836807
0.00827496
0.00818214
0.00808823
0.00799169
0.00789028
0.00778244
0.00766367
0.00753379
0.00738277
0.00721581
0.00701191
0.00678887
0.00652377
0.00625771
0.00609583
0.00613295
0.0660633
0.0369871
0.0213653
0.0192265
0.0187281
0.0172523
0.0158629
0.0149121
0.0142013
0.0135948
0.0130623
0.0125961
0.0121856
0.0118204
0.0114925
0.0111958
0.0109257
0.0106786
0.0104514
0.0102417
0.0100473
0.00986668
0.00969829
0.0095409
0.00939345
0.00925498
0.00912463
0.00900162
0.00888519
0.00877459
0.00866911
0.00856794
0.00847028
0.00837521
0.00828173
0.00818869
0.00809471
0.00799839
0.00789748
0.0077906
0.00767349
0.007546
0.00739922
0.00723742
0.00704408
0.00683306
0.00659449
0.006362
0.00624975
0.00634619
0.0637156
0.0372435
0.0219393
0.0194127
0.0188563
0.0173888
0.0159666
0.0149873
0.0142636
0.0136495
0.0131101
0.012638
0.0122229
0.011854
0.0115229
0.0112236
0.0109512
0.010702
0.010473
0.0102617
0.0100659
0.00988398
0.00971439
0.0095559
0.00940742
0.009268
0.00913677
0.00901292
0.00889571
0.00878438
0.00867821
0.00857642
0.00847821
0.00838267
0.00828882
0.00819557
0.00810155
0.00800546
0.00790513
0.00779931
0.00768403
0.00755916
0.00741699
0.00726092
0.00707874
0.0068812
0.00666922
0.00647189
0.006405
0.00655401
0.0614447
0.0374167
0.0224934
0.0195962
0.0189749
0.0175224
0.0160719
0.0150634
0.0143263
0.0137046
0.0131586
0.0126806
0.0122608
0.0118881
0.0115539
0.0112518
0.0109771
0.0107259
0.0104951
0.0102822
0.0100849
0.00990166
0.00973087
0.00957126
0.00942176
0.00928138
0.00914924
0.00902455
0.00890654
0.00879447
0.00868761
0.00858519
0.00848642
0.00839041
0.0082962
0.00820275
0.00810871
0.0080129
0.00791322
0.00780856
0.00769529
0.00757323
0.00743599
0.00728617
0.00711557
0.00693272
0.00674697
0.00658522
0.00655968
0.00675423
0.0592522
0.0375089
0.0230245
0.0197785
0.0190838
0.0176521
0.0161784
0.0151405
0.0143892
0.0137601
0.0132075
0.0127237
0.0122992
0.0119227
0.0115853
0.0112805
0.0110035
0.0107502
0.0105176
0.010303
0.0101043
0.00991969
0.00974768
0.00958695
0.0094364
0.00929505
0.009162
0.00903645
0.00891764
0.00880482
0.00869727
0.00859421
0.00849487
0.0083984
0.00830384
0.0082102
0.0081162
0.0080207
0.00792175
0.00781834
0.00770723
0.0075882
0.00745614
0.00731305
0.00715428
0.00698704
0.00682683
0.00670014
0.0067122
0.00694548
0.0571393
0.0375228
0.0235295
0.0199605
0.0191833
0.0177768
0.0162858
0.0152185
0.0144522
0.0138159
0.013257
0.0127674
0.012338
0.0119577
0.0116171
0.0113096
0.0110302
0.0107749
0.0105404
0.0103242
0.010124
0.00993805
0.00976479
0.00960293
0.00945132
0.00930898
0.00917502
0.0090486
0.00892898
0.0088154
0.00870715
0.00860346
0.00850356
0.00840663
0.00831173
0.00821793
0.00812398
0.00802885
0.00793072
0.00782865
0.00771984
0.00760403
0.00747737
0.00734143
0.00719461
0.00704358
0.00690807
0.00681515
0.00686139
0.00712713
0.0551068
0.0374615
0.0240053
0.020143
0.0192736
0.0178955
0.0163936
0.0152975
0.0145155
0.0138718
0.0133069
0.0128115
0.0123774
0.0119932
0.0116494
0.0113392
0.0110574
0.0107999
0.0105636
0.0103457
0.010144
0.00995671
0.00978221
0.00961919
0.00946652
0.00932318
0.00918828
0.00906099
0.00894054
0.00882621
0.00871724
0.00861292
0.00851246
0.00841508
0.00831987
0.00822593
0.00813208
0.00803736
0.00794011
0.00783948
0.00773311
0.00762071
0.00749961
0.00737119
0.00723635
0.00710187
0.0069901
0.00692916
0.0070064
0.00729906
0.0531551
0.0373289
0.0244489
0.0203265
0.0193554
0.0180075
0.0165012
0.0153775
0.0145788
0.0139278
0.0133571
0.0128561
0.0124171
0.0120291
0.0116821
0.0113691
0.0110849
0.0108254
0.0105872
0.0103676
0.0101644
0.00997569
0.00979992
0.00963574
0.00948197
0.00933763
0.00920178
0.0090736
0.00895233
0.00883722
0.00872755
0.00862259
0.00852158
0.00842376
0.00832824
0.00823418
0.00814048
0.00804622
0.00794994
0.00785084
0.00774702
0.00763822
0.00752281
0.0074022
0.00727933
0.00716147
0.00707241
0.00704137
0.00714663
0.0074614
0.0512839
0.0371289
0.0248577
0.0205109
0.0194294
0.0181118
0.0166079
0.0154584
0.0146422
0.0139838
0.0134076
0.0129011
0.0124573
0.0120654
0.0117152
0.0113995
0.0111129
0.0108512
0.0106111
0.0103898
0.0101851
0.00999498
0.00981793
0.00965256
0.0094977
0.00935232
0.00921552
0.00908644
0.00896433
0.00884845
0.00873806
0.00863246
0.00853091
0.00843266
0.00833686
0.00824271
0.00814918
0.00805544
0.0079602
0.00786273
0.00776157
0.00765653
0.00754693
0.00743437
0.00732336
0.00722199
0.00715458
0.00715119
0.00728168
0.00761438
0.0494929
0.0368662
0.0252289
0.0206961
0.0194965
0.0182078
0.0167131
0.01554
0.0147057
0.0140396
0.0134583
0.0129465
0.0124979
0.0121021
0.0117487
0.0114302
0.0111412
0.0108773
0.0106353
0.0104124
0.0102061
0.0100146
0.00983622
0.00966965
0.00951368
0.00936727
0.00922949
0.00909951
0.00897655
0.00885988
0.00874878
0.00864255
0.00854045
0.00844178
0.00834571
0.0082515
0.00815819
0.00806503
0.00797088
0.00787514
0.00777673
0.00767562
0.00757191
0.00746757
0.0073683
0.00728311
0.00723625
0.00725821
0.00741123
0.00775825
0.0477812
0.0365458
0.0255602
0.0208813
0.0195575
0.018295
0.016816
0.0156222
0.0147692
0.0140953
0.0135091
0.0129922
0.0125389
0.0121392
0.0117826
0.0114613
0.0111698
0.0109039
0.01066
0.0104352
0.0102274
0.0100345
0.0098548
0.00968702
0.00952993
0.00938247
0.00924371
0.00911281
0.00898899
0.00887153
0.00875971
0.00865284
0.00855021
0.00845112
0.00835481
0.00826057
0.00816752
0.00807497
0.00798199
0.00788807
0.0077925
0.00769545
0.0075977
0.00750166
0.00741396
0.0073445
0.00731706
0.00736207
0.00753504
0.00789322
0.0461474
0.0361727
0.0258495
0.0210653
0.0196134
0.0183732
0.0169155
0.0157048
0.0148329
0.0141506
0.0135598
0.0130381
0.0125802
0.0121766
0.0118168
0.0114928
0.0111989
0.0109307
0.0106849
0.0104584
0.010249
0.0100547
0.00987367
0.00970467
0.00954643
0.00939791
0.00925815
0.00912633
0.00900165
0.00888339
0.00877085
0.00866334
0.00856018
0.00846069
0.00836415
0.0082699
0.00817715
0.00808527
0.00799352
0.0079015
0.00780886
0.00771597
0.00762423
0.00753653
0.00746017
0.00740586
0.00739666
0.00746248
0.00765289
0.00801942
0.04459
0.0357525
0.0260953
0.0212468
0.0196654
0.0184421
0.017011
0.0157873
0.0148966
0.0142055
0.0136104
0.0130842
0.0126217
0.0122142
0.0118513
0.0115245
0.0112282
0.0109579
0.0107101
0.010482
0.010271
0.0100751
0.00989282
0.00972258
0.00956319
0.00941359
0.00927284
0.00914008
0.00901453
0.00889546
0.00878219
0.00867405
0.00857036
0.00847049
0.00837374
0.0082795
0.00818708
0.00809593
0.00800546
0.00791542
0.00782576
0.00773713
0.00765142
0.00757202
0.00750673
0.00746689
0.00747471
0.00755916
0.00776456
0.00813692
0.043107
0.0352908
0.0262963
0.0214238
0.0197143
0.018502
0.0171015
0.0158694
0.0149603
0.0142599
0.0136607
0.0131304
0.0126635
0.0122522
0.011886
0.0115566
0.0112579
0.0109854
0.0107357
0.0105058
0.0102932
0.0100959
0.00991224
0.00974075
0.0095802
0.00942952
0.00928775
0.00915404
0.00902761
0.00890775
0.00879375
0.00868497
0.00858076
0.00848051
0.00838357
0.00828938
0.00819732
0.00810694
0.0080178
0.00792981
0.00784319
0.00775887
0.00767918
0.00760798
0.00755342
0.0075273
0.00755087
0.00765184
0.00786989
0.00824574
0.0416962
0.0347934
0.0264517
0.0215941
0.0197611
0.018553
0.0171862
0.0159506
0.015024
0.0143139
0.0137106
0.0131766
0.0127055
0.0122903
0.011921
0.0115889
0.0112878
0.0110132
0.0107616
0.0105299
0.0103157
0.0101169
0.00993193
0.00975918
0.00959747
0.00944569
0.00930289
0.00916823
0.00904092
0.00892023
0.00880551
0.00869609
0.00859137
0.00849075
0.00839364
0.00829951
0.00820785
0.00811828
0.00803053
0.00794464
0.00786111
0.00778113
0.0077074
0.00764426
0.00760003
0.0075868
0.00762481
0.00774027
0.00796869
0.00834589
0.040355
0.0342657
0.0265611
0.0217554
0.0198065
0.0185956
0.0172643
0.0160303
0.0150876
0.0143673
0.01376
0.0132226
0.0127476
0.0123286
0.0119562
0.0116214
0.011318
0.0110413
0.0107877
0.0105543
0.0103385
0.0101383
0.00995188
0.00977787
0.00961497
0.00946209
0.00931826
0.00918263
0.00905443
0.00893293
0.00881747
0.00870742
0.00860219
0.00850121
0.00840394
0.00830991
0.00821867
0.00812995
0.00804361
0.00795987
0.00787945
0.00780382
0.00773599
0.00768066
0.00764631
0.0076451
0.00769622
0.0078242
0.0080608
0.00843734
0.0390809
0.0337136
0.026625
0.0219051
0.0198511
0.0186305
0.0173352
0.0161079
0.015151
0.0144201
0.0138087
0.0132684
0.0127897
0.0123671
0.0119916
0.0116542
0.0113484
0.0110696
0.0108141
0.0105789
0.0103615
0.0101598
0.00997208
0.00979679
0.0096327
0.00947871
0.00933384
0.00919725
0.00906814
0.00894582
0.00882962
0.00871895
0.00861321
0.00851189
0.00841447
0.00832055
0.00822976
0.00814192
0.00805703
0.00797546
0.00789816
0.00782685
0.00776479
0.00771702
0.00769204
0.00770192
0.00776479
0.00790339
0.00814607
0.00852008
0.0378708
0.0331422
0.026644
0.0220405
0.019895
0.0186584
0.0173984
0.0161826
0.0152139
0.0144722
0.0138567
0.0133138
0.0128317
0.0124056
0.012027
0.0116871
0.011379
0.0110981
0.0108407
0.0106038
0.0103848
0.0101816
0.00999251
0.00981595
0.00965066
0.00949555
0.00934964
0.00921206
0.00908205
0.00895891
0.00884198
0.00873067
0.00862443
0.00852277
0.00842522
0.00833143
0.00824111
0.00815417
0.00807076
0.00799138
0.00791718
0.00785013
0.00779369
0.00775314
0.00773695
0.00775697
0.00783021
0.00797761
0.00822438
0.00859406
0.036722
0.0325567
0.0266195
0.0221593
0.0199382
0.01868
0.0174536
0.0162537
0.0152761
0.0145238
0.0139038
0.0133586
0.0128736
0.0124441
0.0120626
0.0117201
0.0114098
0.0111269
0.0108676
0.0106289
0.0104083
0.0102037
0.0100132
0.00983532
0.00966884
0.0095126
0.00936563
0.00922707
0.00909615
0.00897218
0.00885451
0.00874258
0.00863585
0.00853385
0.00843618
0.00834253
0.0082527
0.00816669
0.00808475
0.00800756
0.00793643
0.00787354
0.00782253
0.00778883
0.00778081
0.00780997
0.0078922
0.00804663
0.00829559
0.00865929
0.0356312
0.0319615
0.0265533
0.0222593
0.0199801
0.0186961
0.0175005
0.0163206
0.0153372
0.0145746
0.01395
0.0134028
0.0129152
0.0124826
0.0120981
0.0117532
0.0114407
0.0111557
0.0108946
0.0106542
0.010432
0.0102259
0.010034
0.00985491
0.00968722
0.00952985
0.00938182
0.00924227
0.00911044
0.00898563
0.00886723
0.00875466
0.00864744
0.00854512
0.00844734
0.00835384
0.00826451
0.00817942
0.00809897
0.00802395
0.00795583
0.00789697
0.00785115
0.00782388
0.00782337
0.00786065
0.00795049
0.00811025
0.0083596
0.00871576
0.0345955
0.0313609
0.0264478
0.0223386
0.02002
0.0187075
0.0175394
0.0163825
0.0153968
0.0146246
0.0139951
0.0134461
0.0129564
0.0125209
0.0121336
0.0117862
0.0114716
0.0111847
0.0109217
0.0106797
0.0104559
0.0102483
0.0100551
0.00987468
0.00970578
0.00954728
0.00939819
0.00925765
0.0091249
0.00899925
0.00888011
0.00876691
0.0086592
0.00855656
0.00845867
0.00836533
0.0082765
0.00819235
0.00811336
0.00804047
0.00797528
0.0079203
0.00787938
0.00785809
0.00786436
0.00790873
0.00800482
0.00816828
0.00841631
0.00876347
0.0336118
0.0307587
0.0263057
0.0223958
0.0200566
0.0187148
0.0175702
0.0164387
0.0154543
0.0146737
0.0140392
0.0134885
0.012997
0.012559
0.012169
0.0118193
0.0115026
0.0112138
0.010949
0.0107053
0.01048
0.0102709
0.0100763
0.00989463
0.00972452
0.00956488
0.00941472
0.00927319
0.00913952
0.00901303
0.00889314
0.00877932
0.00867111
0.00856815
0.00847016
0.00837699
0.00828866
0.00820543
0.00812788
0.00805706
0.00799469
0.00794339
0.00790707
0.00789123
0.00790356
0.00795396
0.00805495
0.00822054
0.00846565
0.00880248
0.0326771
0.030158
0.02613
0.0224295
0.0200886
0.0187185
0.0175934
0.0164888
0.0155094
0.0147217
0.0140821
0.0135299
0.013037
0.0125967
0.0122042
0.0118522
0.0115335
0.0112429
0.0109764
0.010731
0.0105041
0.0102937
0.0100977
0.00991473
0.00974342
0.00958264
0.00943141
0.00928888
0.00915428
0.00902696
0.00890632
0.00879187
0.00868317
0.00857989
0.00848179
0.00838878
0.00830094
0.0082186
0.00814245
0.00807362
0.00801394
0.0079661
0.00793401
0.0079231
0.0079407
0.00799609
0.00810066
0.00826687
0.00850757
0.00883282
0.0317883
0.0295617
0.025924
0.022439
0.0201146
0.0187189
0.0176093
0.0165323
0.0155613
0.0147684
0.0141239
0.01357
0.0130761
0.012634
0.0122392
0.011885
0.0115644
0.011272
0.0110038
0.0107568
0.0105284
0.0103165
0.0101192
0.00993496
0.00976245
0.00960054
0.00944824
0.0093047
0.00916918
0.00904101
0.00891962
0.00880454
0.00869534
0.00859174
0.00849353
0.00840066
0.0083133
0.00823183
0.00815701
0.00809008
0.00803292
0.00798828
0.00796005
0.00795349
0.00797555
0.00803487
0.00814175
0.00830715
0.00854204
0.00885457
0.0309427
0.0289721
0.025691
0.0224241
0.0201329
0.0187161
0.0176186
0.0165689
0.0156095
0.0148135
0.0141643
0.0136088
0.0131143
0.0126707
0.0122738
0.0119175
0.0115951
0.011301
0.0110311
0.0107826
0.0105527
0.0103394
0.0101408
0.0099553
0.00978159
0.00961855
0.00946518
0.00932064
0.00918419
0.00905517
0.00893303
0.00881731
0.00870762
0.00860368
0.00850535
0.00841262
0.00832569
0.00824504
0.00817149
0.00810633
0.00805151
0.00800979
0.00798498
0.00798217
0.0080079
0.0080701
0.00817804
0.00834127
0.00856904
0.00886784
0.0301376
0.0283912
0.0254345
0.0223846
0.0201421
0.01871
0.0176215
0.0165985
0.0156535
0.0148566
0.0142033
0.0136462
0.0131513
0.0127066
0.0123079
0.0119497
0.0116255
0.0113298
0.0110584
0.0108084
0.0105771
0.0103624
0.0101625
0.00997572
0.00980082
0.00963665
0.00948222
0.00933668
0.00919929
0.00906942
0.00894653
0.00883016
0.00871996
0.00861569
0.00851721
0.00842459
0.00833807
0.00825818
0.0081858
0.00812227
0.00806958
0.00803045
0.00800863
0.00800894
0.0080375
0.00810156
0.00820935
0.00836913
0.00858861
0.00887275
0.0293702
0.0278205
0.0251578
0.0223212
0.0201407
0.0187003
0.0176187
0.016621
0.0156927
0.0148975
0.0142408
0.0136822
0.0131871
0.0127417
0.0123415
0.0119815
0.0116557
0.0113585
0.0110856
0.0108341
0.0106014
0.0103854
0.0101842
0.00999618
0.00982011
0.00965482
0.00949932
0.00935278
0.00921447
0.00908374
0.00896009
0.00884307
0.00873236
0.00862772
0.00852909
0.00843655
0.00835039
0.00827118
0.00819986
0.0081378
0.00808699
0.00805013
0.0080308
0.0080336
0.00806417
0.00812907
0.00823556
0.00839069
0.00860077
0.00886945
0.0286383
0.0272611
0.024864
0.0222346
0.0201274
0.0186865
0.0176106
0.0166366
0.0157267
0.0149356
0.0142765
0.0137165
0.0132215
0.0127758
0.0123744
0.0120129
0.0116855
0.0113868
0.0111126
0.0108597
0.0106257
0.0104083
0.0102059
0.0100167
0.00983943
0.00967303
0.00951647
0.00936894
0.00922969
0.00909811
0.00897369
0.00885601
0.00874477
0.00863976
0.00854094
0.00844843
0.00836257
0.00828397
0.00821358
0.00815281
0.00810362
0.00806865
0.00805133
0.00805595
0.0080877
0.00815246
0.00825655
0.00840592
0.0086056
0.00885812
0.0279395
0.026714
0.0245563
0.0221259
0.0201011
0.0186679
0.0175974
0.0166453
0.0157552
0.0149705
0.0143104
0.0137491
0.0132543
0.0128087
0.0124065
0.0120436
0.0117149
0.0114149
0.0111393
0.0108851
0.0106498
0.0104312
0.0102275
0.0100371
0.00985875
0.00969124
0.00953364
0.00938511
0.00924492
0.00911249
0.0089873
0.00886895
0.00875716
0.00865175
0.00855272
0.0084602
0.00837456
0.00829646
0.00822686
0.00816717
0.00811932
0.00808586
0.00807002
0.00807581
0.00810792
0.00817158
0.00827223
0.0084148
0.00860321
0.00883898
0.0272717
0.0261797
0.0242373
0.0219965
0.0200613
0.0186439
0.0175794
0.0166475
0.0157777
0.0150018
0.014342
0.01378
0.0132855
0.0128403
0.0124376
0.0120737
0.0117437
0.0114425
0.0111657
0.0109103
0.0106738
0.010454
0.0102491
0.0100575
0.00987802
0.00970943
0.00955079
0.00940126
0.00926015
0.00912685
0.00900088
0.00888185
0.00876949
0.00866366
0.00856437
0.00847178
0.00838629
0.00830857
0.0082396
0.00818077
0.00813396
0.00810159
0.00808672
0.008093
0.00812467
0.00818632
0.00828255
0.00841738
0.00859372
0.00881225
0.0266329
0.0256585
0.0239097
0.021848
0.0200072
0.0186134
0.0175567
0.0166433
0.0157942
0.0150291
0.0143713
0.0138089
0.0133149
0.0128704
0.0124677
0.012103
0.0117719
0.0114696
0.0111918
0.0109352
0.0106975
0.0104765
0.0102705
0.0100778
0.00989721
0.00972756
0.00956788
0.00941737
0.00927533
0.00914117
0.00901441
0.00889468
0.00878173
0.00867545
0.00857584
0.00848312
0.00839768
0.00832022
0.0082517
0.00819349
0.00814739
0.0081157
0.00810125
0.00810737
0.00813782
0.00819657
0.00828747
0.0084137
0.00857729
0.00877819
0.0260212
0.0251508
0.0235755
0.0216821
0.0199389
0.0185759
0.0175291
0.0166331
0.0158046
0.0150519
0.0143977
0.0138357
0.0133424
0.0128989
0.0124965
0.0121313
0.0117994
0.0114961
0.0112173
0.0109597
0.0107209
0.0104989
0.0102917
0.0100979
0.00991628
0.00974558
0.00958489
0.0094334
0.00929043
0.0091554
0.00902783
0.00890739
0.00879383
0.00868705
0.00858708
0.00849415
0.00840866
0.00833131
0.00826305
0.00820521
0.00815949
0.00812804
0.00811347
0.00811876
0.00814724
0.00820226
0.008287
0.00840386
0.00855412
0.0087371
0.025435
0.0246566
0.023237
0.0215006
0.0198562
0.0185306
0.0174965
0.0166171
0.0158088
0.01507
0.0144211
0.0138603
0.013368
0.0129257
0.012524
0.0121586
0.0118261
0.011522
0.0112423
0.0109838
0.010744
0.0105209
0.0103127
0.0101179
0.00993517
0.00976345
0.00960176
0.0094493
0.00930541
0.0091695
0.00904113
0.00891995
0.00880574
0.00869842
0.00859803
0.0085048
0.00841915
0.00834175
0.00827355
0.0082158
0.0081701
0.00813846
0.00812323
0.00812707
0.00815283
0.00820336
0.00828116
0.00838798
0.00852442
0.0086893
0.0248727
0.0241757
0.0228957
0.0213053
0.0197596
0.0184767
0.0174586
0.0165955
0.0158069
0.0150831
0.014441
0.0138824
0.0133914
0.0129506
0.0125499
0.0121847
0.0118518
0.011547
0.0112666
0.0110073
0.0107667
0.0105426
0.0103334
0.0101376
0.00995385
0.00978112
0.00961845
0.00946504
0.00932022
0.00918343
0.00905423
0.0089323
0.00881741
0.0087095
0.00860862
0.00851499
0.00842906
0.00835146
0.00828309
0.00822514
0.00817912
0.00814684
0.00813041
0.00813217
0.00815454
0.00819985
0.00827002
0.00836621
0.00848844
0.00863512
0.0243327
0.023708
0.0225533
0.0210979
0.0196495
0.0184139
0.0174152
0.0165684
0.015799
0.015091
0.0144571
0.0139018
0.0134126
0.0129735
0.0125741
0.0122095
0.0118764
0.0115712
0.0112903
0.0110303
0.0107888
0.0105638
0.0103537
0.0101569
0.00997225
0.00979855
0.00963492
0.00948056
0.00933482
0.00919715
0.00906711
0.00894439
0.00882879
0.00872023
0.00861878
0.00852467
0.00843831
0.00836032
0.00829155
0.00823313
0.00818641
0.00815305
0.0081349
0.00813398
0.00815231
0.00819174
0.00825367
0.00833873
0.00844646
0.00857495
0.0238139
0.0232532
0.022211
0.02088
0.0195266
0.0183419
0.0173658
0.0165358
0.0157853
0.0150934
0.0144693
0.0139182
0.0134314
0.0129943
0.0125965
0.0122328
0.0118999
0.0115945
0.011313
0.0110525
0.0108103
0.0105846
0.0103736
0.0101759
0.00999032
0.00981568
0.00965111
0.00949582
0.00934916
0.0092106
0.00907971
0.00895618
0.00883982
0.00873055
0.00862845
0.00853374
0.00844681
0.00836825
0.00829885
0.00823965
0.00819187
0.00815699
0.00813661
0.00813244
0.00814613
0.00817908
0.00823223
0.00830575
0.00839879
0.00850917
0.0233148
0.0228112
0.0218698
0.0206534
0.0193918
0.0182604
0.0173101
0.0164979
0.0157657
0.0150904
0.0144771
0.0139315
0.0134476
0.0130128
0.012617
0.0122545
0.0119221
0.0116166
0.0113349
0.0110739
0.0108312
0.0106047
0.010393
0.0101945
0.010008
0.00983246
0.00966697
0.00951076
0.00936319
0.00922373
0.00909197
0.0089676
0.00885043
0.00874039
0.00863756
0.00854213
0.00845448
0.00837515
0.00830488
0.00824459
0.00819539
0.00815856
0.00813547
0.00812752
0.00813601
0.00816195
0.00820585
0.00826752
0.00834575
0.0084382
0.0228345
0.0223816
0.0215307
0.0204195
0.0192458
0.0181694
0.0172479
0.0164545
0.0157405
0.0150819
0.0144803
0.0139413
0.013461
0.0130289
0.0126354
0.0122744
0.0119428
0.0116375
0.0113557
0.0110944
0.0108513
0.0106243
0.0104118
0.0102125
0.0100252
0.00984881
0.00968243
0.00952532
0.00937684
0.00923648
0.00910383
0.00897859
0.00886056
0.00874969
0.00864602
0.00854975
0.00846122
0.00838093
0.00830954
0.00824787
0.00819689
0.00815769
0.00813142
0.0081192
0.00812198
0.00814044
0.00817473
0.00822431
0.00828772
0.00836247
0.0223717
0.0219641
0.0211945
0.0201796
0.0190898
0.0180691
0.0171789
0.0164055
0.0157096
0.0150679
0.0144789
0.0139475
0.0134715
0.0130426
0.0126515
0.0122924
0.0119619
0.0116571
0.0113754
0.011114
0.0108705
0.010643
0.01043
0.01023
0.0100419
0.00986468
0.00969744
0.00953945
0.00939007
0.00924881
0.00911524
0.00898909
0.00887016
0.00875837
0.00865378
0.00855654
0.00846697
0.00838551
0.00831275
0.00824939
0.00819629
0.00815433
0.00812444
0.00810748
0.00810412
0.0081147
0.00813907
0.00817641
0.00822506
0.00828246
0.0219256
0.0215584
0.0208618
0.019935
0.0189247
0.0179598
0.0171028
0.0163509
0.0156733
0.0150484
0.0144726
0.0139497
0.0134789
0.0130535
0.0126653
0.0123084
0.0119793
0.0116753
0.0113939
0.0111325
0.0108888
0.010661
0.0104474
0.0102468
0.010058
0.00987999
0.00971193
0.00955308
0.00940281
0.00926063
0.00912614
0.00899904
0.00887915
0.00876637
0.00866075
0.00856241
0.00847164
0.0083888
0.00831442
0.00824909
0.00819352
0.00814842
0.00811452
0.00809242
0.00808252
0.00808489
0.00809911
0.00812415
0.00815819
0.00819862
0.0214951
0.021164
0.0205332
0.0196869
0.0187514
0.0178418
0.0170197
0.0162905
0.0156316
0.0150235
0.0144614
0.0139478
0.013483
0.0130617
0.0126766
0.0123222
0.0119948
0.0116918
0.0114109
0.0111498
0.010906
0.010678
0.010464
0.0102628
0.0100734
0.00989469
0.00972584
0.00956614
0.00941499
0.00927189
0.00913645
0.00900837
0.00888746
0.00877362
0.00866686
0.00856729
0.00847514
0.00839073
0.00831449
0.00824691
0.00818854
0.00813996
0.00810167
0.00807407
0.0080573
0.00805121
0.00805514
0.00806789
0.00808753
0.00811146
0.0210796
0.0207806
0.020209
0.0194362
0.018571
0.0177156
0.0169296
0.0162243
0.0155844
0.0149932
0.0144451
0.0139417
0.0134836
0.0130669
0.0126854
0.0123337
0.0120083
0.0117067
0.0114265
0.0111657
0.0109221
0.0106939
0.0104797
0.0102781
0.0100881
0.00990868
0.00973908
0.00957857
0.00942655
0.00928253
0.00914612
0.00901702
0.00889503
0.00878004
0.00867204
0.00857111
0.00847742
0.00839124
0.00831289
0.00824279
0.00818134
0.00812895
0.00808594
0.00805252
0.00802862
0.00801387
0.00800744
0.00800798
0.00801352
0.00802148
0.0206781
0.020408
0.0198896
0.0191838
0.0183844
0.0175818
0.0168324
0.0161523
0.0155318
0.0149576
0.0144238
0.0139312
0.0134805
0.0130689
0.0126913
0.0123428
0.0120197
0.0117197
0.0114405
0.0111803
0.010937
0.0107088
0.0104944
0.0102924
0.0101019
0.0099219
0.0097516
0.0095903
0.00943742
0.00929247
0.00915507
0.00902491
0.00890178
0.00878557
0.00867622
0.00857379
0.0084784
0.00839025
0.00830959
0.0082367
0.00817189
0.0081154
0.0080674
0.0080279
0.00799666
0.00797313
0.00795633
0.00794484
0.00793663
0.00792919
0.02029
0.0200457
0.0195752
0.0189307
0.0181926
0.0174409
0.0167285
0.0160743
0.0154739
0.0149168
0.0143975
0.0139162
0.0134736
0.0130677
0.0126945
0.0123493
0.0120288
0.0117307
0.0114528
0.0111934
0.0109505
0.0107225
0.0105079
0.0103057
0.0101148
0.00993427
0.0097633
0.00960125
0.00944752
0.00930164
0.00916323
0.00903198
0.00890766
0.00879014
0.00867934
0.00857528
0.00847804
0.00838773
0.00830454
0.00822864
0.00816021
0.00809938
0.00804614
0.00800035
0.00796162
0.00792925
0.00790216
0.00787886
0.00785732
0.00783511
0.0199146
0.0196934
0.0192662
0.0186773
0.0179964
0.0172936