/*--------------------------------*- C++ -*----------------------------------*\
  =========                 |
  \\      /  F ield         | OpenFOAM: The Open Source CFD Toolbox
   \\    /   O peration     | Website:  https://openfoam.org
    \\  /    A nd           | Version:  7
     \\/     M anipulation  |
\*---------------------------------------------------------------------------*/
FoamFile
{
    version     2.0;
    format      ascii;
    class       surfaceScalarField;
    location    "0.2";
    object      phi;
}
// * * * * * * * * * * * * * * * * * * * * * * * * * * * * * * * * * * * * * //

dimensions      [0 3 -1 0 0 0 0];

internalField   nonuniform List<scalar> 
139350
(
6.45921e-08
9.20394e-08
3.19499e-08
3.26422e-08
2.30578e-08
8.89206e-09
1.95625e-08
3.49532e-09
1.76098e-08
1.95273e-09
1.61813e-08
1.42847e-09
1.50475e-08
1.13384e-09
1.41327e-08
9.14753e-10
1.33794e-08
7.53289e-10
1.27444e-08
6.35031e-10
1.21987e-08
5.45664e-10
1.1723e-08
4.75696e-10
1.13036e-08
4.19494e-10
1.093e-08
3.7352e-10
1.05947e-08
3.35358e-10
1.02914e-08
3.03282e-10
1.00154e-08
2.76025e-10
9.76272e-09
2.5264e-10
9.53032e-09
2.32408e-10
9.31555e-09
2.14772e-10
9.11625e-09
1.99297e-10
8.93061e-09
1.85639e-10
8.75709e-09
1.73521e-10
8.59437e-09
1.62717e-10
8.44133e-09
1.53043e-10
8.29698e-09
1.44349e-10
8.16047e-09
1.36506e-10
8.03106e-09
1.29409e-10
7.9081e-09
1.22964e-10
7.791e-09
1.17099e-10
7.67927e-09
1.11731e-10
7.57245e-09
1.06824e-10
7.47017e-09
1.02281e-10
7.37205e-09
9.81154e-11
7.27788e-09
9.4172e-11
7.18732e-09
9.05555e-11
7.10034e-09
8.69789e-11
7.01664e-09
8.37074e-11
6.93642e-09
8.02208e-11
6.85943e-09
7.69842e-11
6.78616e-09
7.32717e-11
6.71681e-09
6.93545e-11
6.65156e-09
6.52423e-11
6.59303e-09
5.85346e-11
6.53821e-09
5.48168e-11
6.49976e-09
3.84562e-11
6.45845e-09
4.13105e-11
6.48053e-09
-2.20891e-11
6.34034e-09
1.40193e-10
-3.01956e-09
9.3599e-09
1.26025e-07
1.27458e-07
9.12609e-08
6.74064e-08
7.19373e-08
2.82157e-08
6.12073e-08
1.42253e-08
5.47581e-08
8.40194e-09
5.02614e-08
5.92512e-09
4.67746e-08
4.62071e-09
4.39559e-08
3.73337e-09
4.16262e-08
3.08304e-09
3.96604e-08
2.60083e-09
3.79713e-08
2.2348e-09
3.64986e-08
1.94837e-09
3.51996e-08
1.71849e-09
3.40426e-08
1.53046e-09
3.30036e-08
1.37437e-09
3.20638e-08
1.24313e-09
3.12082e-08
1.13157e-09
3.0425e-08
1.03584e-09
2.97045e-08
9.52977e-10
2.90385e-08
8.8073e-10
2.84205e-08
8.17316e-10
2.78448e-08
7.61326e-10
2.73067e-08
7.11631e-10
2.68021e-08
6.67315e-10
2.63275e-08
6.27627e-10
2.58799e-08
5.91951e-10
2.54567e-08
5.59768e-10
2.50554e-08
5.30651e-10
2.46742e-08
5.04223e-10
2.43111e-08
4.80183e-10
2.39646e-08
4.58226e-10
2.36332e-08
4.38165e-10
2.33158e-08
4.19685e-10
2.30112e-08
4.02744e-10
2.27185e-08
3.86882e-10
2.24367e-08
3.72337e-10
2.21655e-08
3.58228e-10
2.19038e-08
3.45397e-10
2.1652e-08
3.31984e-10
2.14089e-08
3.20062e-10
2.11764e-08
3.05849e-10
2.09523e-08
2.93448e-10
2.07413e-08
2.76222e-10
2.05401e-08
2.59764e-10
2.03581e-08
2.36798e-10
2.01931e-08
2.03433e-10
2.00527e-08
1.81703e-10
2.00014e-08
2.9247e-11
1.98361e-08
3.05422e-10
-3.82264e-09
2.06392e-08
1.58807e-07
1.35055e-07
1.36492e-07
8.9721e-08
1.17487e-07
4.72205e-08
1.03305e-07
2.84075e-08
9.32936e-08
1.84135e-08
8.5987e-08
1.32317e-08
8.02765e-08
1.03312e-08
7.56207e-08
8.38917e-09
7.17372e-08
6.96656e-09
6.84388e-08
5.89926e-09
6.55919e-08
5.08162e-09
6.31017e-08
4.43863e-09
6.08992e-08
3.92096e-09
5.89332e-08
3.49647e-09
5.71643e-08
3.14325e-09
5.55618e-08
2.84568e-09
5.4101e-08
2.59232e-09
5.27623e-08
2.37455e-09
5.15295e-08
2.18582e-09
5.03891e-08
2.02107e-09
4.93302e-08
1.87629e-09
4.83431e-08
1.74834e-09
4.74201e-08
1.63467e-09
4.65542e-08
1.53321e-09
4.57396e-08
1.44227e-09
4.4971e-08
1.36047e-09
4.42442e-08
1.28664e-09
4.3555e-08
1.21979e-09
4.29001e-08
1.15911e-09
4.22764e-08
1.10389e-09
4.16812e-08
1.05348e-09
4.1112e-08
1.0074e-09
4.05666e-08
9.65045e-10
4.00431e-08
9.26204e-10
3.954e-08
8.90023e-10
3.90555e-08
8.56838e-10
3.85887e-08
8.24982e-10
3.81381e-08
7.96062e-10
3.77038e-08
7.66257e-10
3.72836e-08
7.40237e-10
3.68804e-08
7.09039e-10
3.64896e-08
6.84241e-10
3.61203e-08
6.45578e-10
3.57615e-08
6.18576e-10
3.54365e-08
5.618e-10
3.51227e-08
5.17166e-10
3.48619e-08
4.42582e-10
3.46758e-08
2.15286e-10
3.45305e-08
4.50727e-10
-3.68334e-09
3.43912e-08
1.75664e-07
1.30907e-07
1.65593e-07
9.97918e-08
1.52719e-07
6.00949e-08
1.40114e-07
4.10115e-08
1.29419e-07
2.91087e-08
1.2077e-07
2.18809e-08
1.13652e-07
1.74492e-08
1.07665e-07
1.4376e-08
1.02558e-07
1.20735e-08
9.81485e-08
1.03089e-08
9.42961e-08
8.93404e-09
9.08949e-08
7.8398e-09
8.78648e-08
6.95111e-09
8.51439e-08
6.21735e-09
8.26838e-08
5.60332e-09
8.04459e-08
5.08358e-09
7.8399e-08
4.63925e-09
7.65175e-08
4.25603e-09
7.47804e-08
3.92291e-09
7.31702e-08
3.63134e-09
7.16719e-08
3.37453e-09
7.02732e-08
3.14707e-09
6.89632e-08
2.94461e-09
6.77329e-08
2.76359e-09
6.6574e-08
2.60109e-09
6.54798e-08
2.45469e-09
6.44441e-08
2.32238e-09
6.34614e-08
2.20245e-09
6.25271e-08
2.09345e-09
6.16368e-08
1.99416e-09
6.07868e-08
1.90347e-09
5.99737e-08
1.82052e-09
5.91944e-08
1.74429e-09
5.84463e-08
1.67434e-09
5.7727e-08
1.60935e-09
5.70341e-08
1.54968e-09
5.63663e-08
1.49279e-09
5.57213e-08
1.4411e-09
5.5099e-08
1.38851e-09
5.44965e-08
1.34276e-09
5.3917e-08
1.28859e-09
5.33543e-08
1.24694e-09
5.28195e-08
1.18034e-09
5.22981e-08
1.14003e-09
5.18189e-08
1.04092e-09
5.13522e-08
9.83873e-10
5.09512e-08
8.43651e-10
5.06162e-08
5.5024e-10
5.04141e-08
6.52801e-10
-3.22267e-09
4.99535e-08
1.8456e-07
1.23132e-07
1.8232e-07
1.02032e-07
1.76099e-07
6.6316e-08
1.67751e-07
4.93592e-08
1.59122e-07
3.77381e-08
1.51205e-07
2.97975e-08
1.44125e-07
2.45297e-08
1.37817e-07
2.06836e-08
1.32208e-07
1.76823e-08
1.27214e-07
1.53031e-08
1.22749e-07
1.33997e-08
1.18734e-07
1.18539e-08
1.15107e-07
1.05788e-08
1.11811e-07
9.51274e-09
1.08803e-07
8.61143e-09
1.06045e-07
7.84199e-09
1.03505e-07
7.17941e-09
1.01156e-07
6.60442e-09
9.89772e-08
6.10194e-09
9.69484e-08
5.66007e-09
9.50537e-08
5.26929e-09
9.32788e-08
4.92191e-09
9.16118e-08
4.61168e-09
9.00419e-08
4.33348e-09
8.85599e-08
4.08306e-09
8.71577e-08
3.8569e-09
8.58281e-08
3.65203e-09
8.45646e-08
3.46594e-09
8.33615e-08
3.29651e-09
8.22138e-08
3.14189e-09
8.11168e-08
3.00046e-09
8.00664e-08
2.8709e-09
7.9059e-08
2.75175e-09
7.8091e-08
2.64228e-09
7.71597e-08
2.54064e-09
7.62622e-08
2.44721e-09
7.53965e-08
2.3585e-09
7.45599e-08
2.27771e-09
7.3752e-08
2.19642e-09
7.29693e-08
2.12541e-09
7.22148e-08
2.04307e-09
7.14822e-08
1.97961e-09
7.0782e-08
1.88055e-09
7.01002e-08
1.82184e-09
6.94635e-08
1.67758e-09
6.88476e-08
1.59975e-09
6.82963e-08
1.39499e-09
6.78183e-08
1.02818e-09
6.74893e-08
9.81784e-10
-2.60738e-09
6.68741e-08
1.90388e-07
1.14961e-07
1.91851e-07
1.00569e-07
1.90241e-07
6.79261e-08
1.86146e-07
5.34537e-08
1.80701e-07
4.31827e-08
1.74939e-07
3.55596e-08
1.69234e-07
3.02351e-08
1.63741e-07
2.61768e-08
1.58556e-07
2.28671e-08
1.53722e-07
2.01375e-08
1.4924e-07
1.78811e-08
1.45095e-07
1.59993e-08
1.41261e-07
1.44127e-08
1.37712e-07
1.3062e-08
1.3442e-07
1.19027e-08
1.31362e-07
1.09002e-08
1.28514e-07
1.00276e-08
1.25855e-07
9.26313e-09
1.23368e-07
8.58966e-09
1.21035e-07
7.99319e-09
1.18841e-07
7.46235e-09
1.16776e-07
6.98783e-09
1.14825e-07
6.56195e-09
1.1298e-07
6.17829e-09
1.11232e-07
5.83154e-09
1.09572e-07
5.5172e-09
1.07992e-07
5.23148e-09
1.06487e-07
4.97113e-09
1.0505e-07
4.73339e-09
1.03676e-07
4.51586e-09
1.0236e-07
4.31641e-09
1.01098e-07
4.13328e-09
9.9885e-08
3.96459e-09
9.8718e-08
3.80927e-09
9.75937e-08
3.66502e-09
9.65088e-08
3.53212e-09
9.5461e-08
3.40625e-09
9.44475e-08
3.2912e-09
9.34674e-08
3.17654e-09
9.25173e-08
3.07547e-09
9.15993e-08
2.9611e-09
9.07079e-08
2.87097e-09
8.98515e-08
2.73704e-09
8.90199e-08
2.65343e-09
8.82318e-08
2.46566e-09
8.74769e-08
2.3546e-09
8.67777e-08
2.09423e-09
8.61649e-08
1.64101e-09
8.56902e-08
1.45642e-09
-1.84744e-09
8.49303e-08
1.9554e-07
1.07235e-07
1.98246e-07
9.78634e-08
1.98966e-07
6.72066e-08
1.97782e-07
5.46375e-08
1.95145e-07
4.582e-08
1.91796e-07
3.89085e-08
1.88055e-07
3.39757e-08
1.84095e-07
3.01372e-08
1.80064e-07
2.68978e-08
1.76073e-07
2.41282e-08
1.72191e-07
2.17639e-08
1.68454e-07
1.97356e-08
1.64884e-07
1.79828e-08
1.61488e-07
1.64582e-08
1.58266e-07
1.51249e-08
1.55213e-07
1.39532e-08
1.52321e-07
1.29187e-08
1.49583e-07
1.20012e-08
1.46989e-07
1.1184e-08
1.44529e-07
1.04532e-08
1.42194e-07
9.79731e-09
1.39976e-07
9.20649e-09
1.37865e-07
8.67256e-09
1.35855e-07
8.18859e-09
1.33937e-07
7.74869e-09
1.32107e-07
7.34784e-09
1.30357e-07
6.98176e-09
1.28681e-07
6.64673e-09
1.27075e-07
6.33958e-09
1.25533e-07
6.05748e-09
1.24052e-07
5.79797e-09
1.22626e-07
5.55892e-09
1.21252e-07
5.33813e-09
1.19927e-07
5.13426e-09
1.18648e-07
4.94462e-09
1.17411e-07
4.76939e-09
1.16213e-07
4.60361e-09
1.15053e-07
4.45137e-09
1.13929e-07
4.30079e-09
1.12838e-07
4.16659e-09
1.1178e-07
4.01823e-09
1.10754e-07
3.89769e-09
1.09762e-07
3.72862e-09
1.08802e-07
3.61402e-09
1.0788e-07
3.38681e-09
1.07004e-07
3.23103e-09
1.06174e-07
2.92446e-09
1.05436e-07
2.37914e-09
1.04826e-07
2.06627e-09
-9.50081e-10
1.03928e-07
2.00848e-07
9.99719e-08
2.03775e-07
9.49364e-08
2.05324e-07
6.56568e-08
2.05638e-07
5.43244e-08
2.04807e-07
4.66508e-08
2.03319e-07
4.03958e-08
2.01364e-07
3.59313e-08
1.99024e-07
3.24767e-08
1.96407e-07
2.95152e-08
1.93614e-07
2.69208e-08
1.90727e-07
2.46508e-08
1.87806e-07
2.26567e-08
1.84895e-07
2.08939e-08
1.82026e-07
1.93278e-08
1.79219e-07
1.79315e-08
1.7649e-07
1.66827e-08
1.73846e-07
1.55625e-08
1.71292e-07
1.45549e-08
1.6883e-07
1.3646e-08
1.6646e-07
1.28238e-08
1.64179e-07
1.20781e-08
1.61985e-07
1.14001e-08
1.59876e-07
1.07821e-08
1.57847e-07
1.02176e-08
1.55895e-07
9.70081e-09
1.54016e-07
9.22683e-09
1.52206e-07
8.79135e-09
1.50462e-07
8.3906e-09
1.4878e-07
8.0213e-09
1.47157e-07
7.68051e-09
1.4559e-07
7.36561e-09
1.44074e-07
7.07436e-09
1.42608e-07
6.80437e-09
1.41188e-07
6.55415e-09
1.39812e-07
6.3208e-09
1.38477e-07
6.10438e-09
1.37181e-07
5.89954e-09
1.35922e-07
5.71046e-09
1.34698e-07
5.52441e-09
1.33508e-07
5.3567e-09
1.32351e-07
5.17494e-09
1.31227e-07
5.02251e-09
1.30135e-07
4.82014e-09
1.29078e-07
4.67076e-09
1.28056e-07
4.40915e-09
1.27085e-07
4.20178e-09
1.26154e-07
3.85573e-09
1.2531e-07
3.22326e-09
1.24586e-07
2.79014e-09
5.70534e-11
1.23579e-07
2.06447e-07
9.30573e-08
2.09338e-07
9.20447e-08
2.11034e-07
6.39609e-08
2.11926e-07
5.34328e-08
2.11991e-07
4.65853e-08
2.116e-07
4.07871e-08
2.10864e-07
3.66675e-08
2.09785e-07
3.35552e-08
2.08402e-07
3.08986e-08
2.06772e-07
2.85505e-08
2.04952e-07
2.64708e-08
2.02991e-07
2.46178e-08
2.00931e-07
2.29537e-08
1.98808e-07
2.14508e-08
1.96651e-07
2.00887e-08
1.94482e-07
1.88513e-08
1.9232e-07
1.77246e-08
1.90178e-07
1.6697e-08
1.88066e-07
1.57579e-08
1.85992e-07
1.48982e-08
1.8396e-07
1.41097e-08
1.81975e-07
1.33855e-08
1.80038e-07
1.27191e-08
1.7815e-07
1.2105e-08
1.76313e-07
1.15382e-08
1.74525e-07
1.10145e-08
1.72787e-07
1.053e-08
1.71096e-07
1.00812e-08
1.69452e-07
9.66509e-09
1.67854e-07
9.27895e-09
1.66299e-07
8.92028e-09
1.64787e-07
8.58688e-09
1.63315e-07
8.27644e-09
1.61881e-07
7.98746e-09
1.60485e-07
7.71701e-09
1.59124e-07
7.46509e-09
1.57798e-07
7.22624e-09
1.56504e-07
7.00454e-09
1.55241e-07
6.78701e-09
1.54009e-07
6.58875e-09
1.52807e-07
6.37712e-09
1.51635e-07
6.19436e-09
1.50492e-07
5.96276e-09
1.49385e-07
5.7783e-09
1.48306e-07
5.48798e-09
1.4728e-07
5.22783e-09
1.46288e-07
4.84732e-09
1.45371e-07
4.14075e-09
1.44563e-07
3.59798e-09
1.13487e-09
1.43485e-07
2.12289e-07
8.64311e-08
2.15151e-07
8.91822e-08
2.16788e-07
6.23236e-08
2.17838e-07
5.23831e-08
2.1825e-07
4.61732e-08
2.18362e-07
4.06754e-08
2.1828e-07
3.67492e-08
2.17974e-07
3.38617e-08
2.17435e-07
3.14374e-08
2.16682e-07
2.9303e-08
2.1574e-07
2.74127e-08
2.14634e-07
2.57238e-08
2.1339e-07
2.41979e-08
2.12033e-07
2.28079e-08
2.10586e-07
2.15355e-08
2.09071e-07
2.03669e-08
2.07505e-07
1.9291e-08
2.05903e-07
1.82986e-08
2.04279e-07
1.73817e-08
2.02644e-07
1.65333e-08
2.01006e-07
1.57474e-08
1.99373e-07
1.50184e-08
1.97751e-07
1.43414e-08
1.96144e-07
1.37121e-08
1.94556e-07
1.31266e-08
1.92989e-07
1.25813e-08
1.91446e-07
1.20731e-08
1.89928e-07
1.15992e-08
1.88436e-07
1.11569e-08
1.86971e-07
1.07439e-08
1.85533e-07
1.03581e-08
1.84122e-07
9.99758e-09
1.82739e-07
9.66014e-09
1.81382e-07
9.34449e-09
1.80051e-07
9.04781e-09
1.78746e-07
8.77017e-09
1.77466e-07
8.50615e-09
1.76211e-07
8.25971e-09
1.7498e-07
8.01803e-09
1.73773e-07
7.7955e-09
1.7259e-07
7.56039e-09
1.71432e-07
7.35209e-09
1.70297e-07
7.09752e-09
1.69194e-07
6.88131e-09
1.68113e-07
6.56898e-09
1.67081e-07
6.26009e-09
1.66078e-07
5.85015e-09
1.65131e-07
5.08759e-09
1.64279e-07
4.44996e-09
2.23892e-09
1.63175e-07
2.1833e-07
8.00821e-08
2.21205e-07
8.63071e-08
2.22761e-07
6.07673e-08
2.23838e-07
5.13067e-08
2.24359e-07
4.56518e-08
2.24649e-07
4.03857e-08
2.24843e-07
3.65543e-08
2.24916e-07
3.37894e-08
2.24843e-07
3.15098e-08
2.24626e-07
2.95201e-08
2.24269e-07
2.77695e-08
2.23779e-07
2.6214e-08
2.23165e-07
2.48123e-08
2.22438e-07
2.35351e-08
2.2161e-07
2.2363e-08
2.20695e-07
2.12819e-08
2.19705e-07
2.02812e-08
2.18651e-07
1.93522e-08
2.17545e-07
1.84879e-08
2.16396e-07
1.76823e-08
2.15213e-07
1.69304e-08
2.14004e-07
1.62277e-08
2.12775e-07
1.55703e-08
2.11532e-07
1.49547e-08
2.10281e-07
1.43778e-08
2.09026e-07
1.38368e-08
2.0777e-07
1.33292e-08
2.06516e-07
1.28528e-08
2.05267e-07
1.24055e-08
2.04026e-07
1.19854e-08
2.02794e-07
1.15906e-08
2.01571e-07
1.12197e-08
2.00361e-07
1.08708e-08
1.99162e-07
1.05428e-08
1.97977e-07
1.0233e-08
1.96806e-07
9.9418e-09
1.95648e-07
9.66383e-09
1.94505e-07
9.40293e-09
1.93376e-07
9.14671e-09
1.92263e-07
8.9086e-09
1.91165e-07
8.65855e-09
1.90085e-07
8.43197e-09
1.8902e-07
8.16246e-09
1.87981e-07
7.92075e-09
1.86955e-07
7.59411e-09
1.85971e-07
7.24466e-09
1.8501e-07
6.81129e-09
1.84084e-07
6.01351e-09
1.83234e-07
5.29995e-09
3.32096e-09
1.82152e-07
2.24558e-07
7.40169e-08
2.27469e-07
8.33966e-08
2.28958e-07
5.92784e-08
2.30039e-07
5.02251e-08
2.30602e-07
4.50892e-08
2.3094e-07
4.00474e-08
2.31225e-07
3.62699e-08
2.31445e-07
3.35689e-08
2.31582e-07
3.13733e-08
2.31632e-07
2.94694e-08
2.31597e-07
2.7805e-08
2.31474e-07
2.63372e-08
2.31263e-07
2.50233e-08
2.30966e-07
2.38321e-08
2.30586e-07
2.27422e-08
2.3013e-07
2.17385e-08
2.29601e-07
2.08097e-08
2.29007e-07
1.99465e-08
2.28353e-07
1.91417e-08
2.27646e-07
1.83894e-08
2.26892e-07
1.76847e-08
2.26096e-07
1.70234e-08
2.25264e-07
1.6402e-08
2.24402e-07
1.58174e-08
2.23513e-07
1.52668e-08
2.22601e-07
1.4748e-08
2.21672e-07
1.42587e-08
2.20728e-07
1.37972e-08
2.19771e-07
1.33617e-08
2.18806e-07
1.29507e-08
2.17834e-07
1.25626e-08
2.16857e-07
1.21963e-08
2.15878e-07
1.18501e-08
2.14898e-07
1.15232e-08
2.13918e-07
1.12131e-08
2.12939e-07
1.09203e-08
2.11963e-07
1.06397e-08
2.10991e-07
1.0375e-08
2.10023e-07
1.01144e-08
2.09062e-07
9.87016e-09
2.08106e-07
9.61441e-09
2.0716e-07
9.3779e-09
2.0622e-07
9.10219e-09
2.05298e-07
8.84293e-09
2.04382e-07
8.51002e-09
2.03496e-07
8.1308e-09
2.02626e-07
7.68094e-09
2.01771e-07
6.86911e-09
2.00969e-07
6.10143e-09
4.33426e-09
1.99956e-07
2.30979e-07
6.82437e-08
2.33933e-07
8.04423e-08
2.35363e-07
5.78489e-08
2.36451e-07
4.91375e-08
2.37047e-07
4.44932e-08
2.374e-07
3.9694e-08
2.37706e-07
3.59641e-08
2.37972e-07
3.33026e-08
2.38184e-07
3.11611e-08
2.38344e-07
2.93093e-08
2.38455e-07
2.76948e-08
2.38514e-07
2.62782e-08
2.38519e-07
2.50179e-08
2.38469e-07
2.38817e-08
2.38364e-07
2.28474e-08
2.38204e-07
2.18991e-08
2.37989e-07
2.10245e-08
2.37721e-07
2.0214e-08
2.37403e-07
1.94598e-08
2.37037e-07
1.87554e-08
2.36626e-07
1.80958e-08
2.36173e-07
1.74766e-08
2.35681e-07
1.68941e-08
2.35153e-07
1.63453e-08
2.34592e-07
1.58274e-08
2.34002e-07
1.53383e-08
2.33385e-07
1.4876e-08
2.32743e-07
1.44386e-08
2.3208e-07
1.40246e-08
2.31398e-07
1.36327e-08
2.30699e-07
1.32615e-08
2.29986e-07
1.29099e-08
2.29259e-07
1.25765e-08
2.28522e-07
1.22607e-08
2.27775e-07
1.19601e-08
2.2702e-07
1.16752e-08
2.26259e-07
1.14012e-08
2.25492e-07
1.11417e-08
2.24721e-07
1.08854e-08
2.23948e-07
1.06432e-08
2.23172e-07
1.03901e-08
2.22399e-07
1.01514e-08
2.21623e-07
9.87748e-09
2.20857e-07
9.60882e-09
2.20091e-07
9.27691e-09
2.19342e-07
8.8795e-09
2.18602e-07
8.42039e-09
2.17858e-07
7.61399e-09
2.17144e-07
6.81487e-09
5.23998e-09
2.16238e-07
2.376e-07
6.27682e-08
2.40601e-07
7.74416e-08
2.41973e-07
5.64766e-08
2.43066e-07
4.8045e-08
2.43699e-07
4.38601e-08
2.44066e-07
3.93273e-08
2.44376e-07
3.56532e-08
2.44655e-07
3.30241e-08
2.4489e-07
3.09263e-08
2.45086e-07
2.91129e-08
2.45251e-07
2.75302e-08
2.45385e-07
2.61442e-08
2.45488e-07
2.49151e-08
2.45558e-07
2.38112e-08
2.45595e-07
2.28104e-08
2.45598e-07
2.18965e-08
2.45565e-07
2.10572e-08
2.45497e-07
2.02823e-08
2.45393e-07
1.95638e-08
2.45253e-07
1.88948e-08
2.45079e-07
1.82701e-08
2.44871e-07
1.76848e-08
2.4463e-07
1.71352e-08
2.44357e-07
1.66181e-08
2.44054e-07
1.61305e-08
2.43722e-07
1.56702e-08
2.43363e-07
1.5235e-08
2.42978e-07
1.48232e-08
2.4257e-07
1.44332e-08
2.42139e-07
1.40636e-08
2.41687e-07
1.37131e-08
2.41216e-07
1.33808e-08
2.40728e-07
1.30651e-08
2.40223e-07
1.27655e-08
2.39703e-07
1.24797e-08
2.3917e-07
1.22083e-08
2.38625e-07
1.19467e-08
2.38069e-07
1.16979e-08
2.37502e-07
1.14517e-08
2.36928e-07
1.12175e-08
2.36345e-07
1.09728e-08
2.35759e-07
1.0738e-08
2.35164e-07
1.04717e-08
2.34573e-07
1.02005e-08
2.33975e-07
9.87508e-09
2.33384e-07
9.47013e-09
2.32796e-07
9.0084e-09
2.32187e-07
8.22341e-09
2.31587e-07
7.41433e-09
6.01306e-09
2.30814e-07
2.4443e-07
5.75942e-08
2.47471e-07
7.44013e-08
2.48794e-07
5.51533e-08
2.49887e-07
4.69523e-08
2.50558e-07
4.31885e-08
2.50942e-07
3.89436e-08
2.51257e-07
3.5338e-08
2.51541e-07
3.27403e-08
2.51783e-07
3.06842e-08
2.5199e-07
2.89058e-08
2.52171e-07
2.73489e-08
2.52331e-07
2.59845e-08
2.52471e-07
2.47758e-08
2.5259e-07
2.36918e-08
2.52689e-07
2.2711e-08
2.52768e-07
2.18175e-08
2.52826e-07
2.09992e-08
2.52863e-07
2.0246e-08
2.52877e-07
1.95499e-08
2.52868e-07
1.89039e-08
2.52835e-07
1.83024e-08
2.52779e-07
1.77407e-08
2.527e-07
1.72148e-08
2.52596e-07
1.67213e-08
2.5247e-07
1.62571e-08
2.5232e-07
1.58197e-08
2.52148e-07
1.54071e-08
2.51954e-07
1.50172e-08
2.51739e-07
1.46484e-08
2.51503e-07
1.42993e-08
2.51248e-07
1.39684e-08
2.50974e-07
1.36548e-08
2.50682e-07
1.3357e-08
2.50373e-07
1.30743e-08
2.50049e-07
1.28046e-08
2.49709e-07
1.25482e-08
2.49355e-07
1.23007e-08
2.48988e-07
1.2065e-08
2.48608e-07
1.18314e-08
2.48218e-07
1.16078e-08
2.47816e-07
1.13745e-08
2.47407e-07
1.11467e-08
2.46987e-07
1.08913e-08
2.46566e-07
1.06224e-08
2.46134e-07
1.03067e-08
2.45701e-07
9.90263e-09
2.45266e-07
9.44361e-09
2.44798e-07
8.69156e-09
2.44321e-07
7.89097e-09
6.64557e-09
2.43689e-07
2.51478e-07
5.27233e-08
2.54548e-07
7.13309e-08
2.55833e-07
5.38686e-08
2.5692e-07
4.5865e-08
2.57629e-07
4.24793e-08
2.58033e-07
3.85401e-08
2.58354e-07
3.50172e-08
2.58642e-07
3.24516e-08
2.58889e-07
3.04371e-08
2.59101e-07
2.86944e-08
2.59287e-07
2.71625e-08
2.59454e-07
2.58171e-08
2.59605e-07
2.46248e-08
2.59742e-07
2.35556e-08
2.59864e-07
2.25884e-08
2.59974e-07
2.1708e-08
2.6007e-07
2.09027e-08
2.60154e-07
2.01627e-08
2.60223e-07
1.948e-08
2.60279e-07
1.8848e-08
2.60321e-07
1.8261e-08
2.60347e-07
1.77142e-08
2.60358e-07
1.72036e-08
2.60354e-07
1.67257e-08
2.60334e-07
1.62775e-08
2.60297e-07
1.58563e-08
2.60244e-07
1.546e-08
2.60175e-07
1.50864e-08
2.60089e-07
1.47338e-08
2.59988e-07
1.44007e-08
2.59871e-07
1.40857e-08
2.59738e-07
1.37876e-08
2.5959e-07
1.35048e-08
2.59428e-07
1.32368e-08
2.59251e-07
1.29813e-08
2.5906e-07
1.27385e-08
2.58857e-07
1.25043e-08
2.58641e-07
1.22809e-08
2.58413e-07
1.20597e-08
2.58174e-07
1.18466e-08
2.57923e-07
1.1625e-08
2.57665e-07
1.14052e-08
2.57395e-07
1.11613e-08
2.5712e-07
1.08973e-08
2.56835e-07
1.05921e-08
2.56543e-07
1.01947e-08
2.56244e-07
9.74218e-09
2.55905e-07
9.03005e-09
2.55544e-07
8.25241e-09
7.14609e-09
2.55043e-07
2.58751e-07
4.81557e-08
2.61841e-07
6.82402e-08
2.63098e-07
5.26119e-08
2.64175e-07
4.47882e-08
2.64919e-07
4.1735e-08
2.65344e-07
3.81146e-08
2.65672e-07
3.46898e-08
2.65966e-07
3.21576e-08
2.66218e-07
3.01848e-08
2.66433e-07
2.84795e-08
2.66622e-07
2.69734e-08
2.66792e-07
2.5647e-08
2.66947e-07
2.44703e-08
2.67088e-07
2.34143e-08
2.67218e-07
2.24585e-08
2.67338e-07
2.15883e-08
2.67448e-07
2.07923e-08
2.6755e-07
2.00613e-08
2.67642e-07
1.93875e-08
2.67726e-07
1.87643e-08
2.678e-07
1.81863e-08
2.67866e-07
1.76489e-08
2.67921e-07
1.71479e-08
2.67967e-07
1.668e-08
2.68003e-07
1.62421e-08
2.68027e-07
1.58315e-08
2.68041e-07
1.5446e-08
2.68044e-07
1.50835e-08
2.68036e-07
1.47422e-08
2.68016e-07
1.44206e-08
2.67985e-07
1.4117e-08
2.67942e-07
1.38303e-08
2.67888e-07
1.35589e-08
2.67823e-07
1.33021e-08
2.67746e-07
1.30577e-08
2.67659e-07
1.28257e-08
2.67561e-07
1.26023e-08
2.67453e-07
1.23889e-08
2.67335e-07
1.2178e-08
2.67207e-07
1.19739e-08
2.6707e-07
1.17625e-08
2.66925e-07
1.155e-08
2.6677e-07
1.13165e-08
2.66609e-07
1.10581e-08
2.66439e-07
1.07626e-08
2.66258e-07
1.03754e-08
2.66068e-07
9.93172e-09
2.65836e-07
9.26259e-09
2.6557e-07
8.51829e-09
7.53546e-09
2.65181e-07
2.66258e-07
4.38897e-08
2.69358e-07
6.51399e-08
2.70598e-07
5.13729e-08
2.7166e-07
4.37261e-08
2.72435e-07
4.09592e-08
2.72885e-07
3.76655e-08
2.73219e-07
3.4355e-08
2.73519e-07
3.18581e-08
2.73777e-07
2.99269e-08
2.73996e-07
2.82606e-08
2.74187e-07
2.67819e-08
2.74359e-07
2.5475e-08
2.74516e-07
2.4314e-08
2.74659e-07
2.32712e-08
2.74791e-07
2.23263e-08
2.74914e-07
2.14654e-08
2.75028e-07
2.06776e-08
2.75136e-07
1.9954e-08
2.75236e-07
1.92871e-08
2.7533e-07
1.86705e-08
2.75417e-07
1.80989e-08
2.75498e-07
1.75678e-08
2.75573e-07
1.70734e-08
2.75641e-07
1.66121e-08
2.75702e-07
1.6181e-08
2.75756e-07
1.57775e-08
2.75803e-07
1.53992e-08
2.75842e-07
1.50442e-08
2.75874e-07
1.47105e-08
2.75898e-07
1.43966e-08
2.75914e-07
1.41009e-08
2.75922e-07
1.38222e-08
2.75922e-07
1.35588e-08
2.75914e-07
1.33101e-08
2.75898e-07
1.30736e-08
2.75874e-07
1.28495e-08
2.75843e-07
1.2634e-08
2.75803e-07
1.24281e-08
2.75756e-07
1.22251e-08
2.75703e-07
1.20277e-08
2.75641e-07
1.18244e-08
2.75573e-07
1.16176e-08
2.75497e-07
1.13925e-08
2.75416e-07
1.11396e-08
2.75326e-07
1.08524e-08
2.75224e-07
1.04769e-08
2.75112e-07
1.00437e-08
2.74957e-07
9.41797e-09
2.74761e-07
8.71386e-09
7.84053e-09
2.74456e-07
2.74009e-07
3.99219e-08
2.77108e-07
6.2041e-08
2.7834e-07
5.01412e-08
2.79383e-07
4.26824e-08
2.80187e-07
4.01558e-08
2.80661e-07
3.71912e-08
2.81004e-07
3.40117e-08
2.81309e-07
3.15533e-08
2.81573e-07
2.96631e-08
2.81796e-07
2.80372e-08
2.81991e-07
2.65874e-08
2.82165e-07
2.5301e-08
2.82322e-07
2.41562e-08
2.82467e-07
2.31268e-08
2.826e-07
2.21931e-08
2.82724e-07
2.13415e-08
2.8284e-07
2.05617e-08
2.82949e-07
1.98451e-08
2.83052e-07
1.91844e-08
2.83148e-07
1.85735e-08
2.8324e-07
1.80074e-08
2.83326e-07
1.74815e-08
2.83408e-07
1.69921e-08
2.83484e-07
1.65359e-08
2.83555e-07
1.61098e-08
2.83621e-07
1.57115e-08
2.83682e-07
1.53384e-08
2.83737e-07
1.49887e-08
2.83787e-07
1.46605e-08
2.83832e-07
1.43521e-08
2.83871e-07
1.4062e-08
2.83904e-07
1.37889e-08
2.83932e-07
1.35312e-08
2.83954e-07
1.3288e-08
2.8397e-07
1.30573e-08
2.83981e-07
1.28387e-08
2.83986e-07
1.26289e-08
2.83986e-07
1.24282e-08
2.8398e-07
1.2231e-08
2.83969e-07
1.20384e-08
2.83952e-07
1.18411e-08
2.83932e-07
1.16386e-08
2.83904e-07
1.14199e-08
2.83872e-07
1.1172e-08
2.83832e-07
1.08917e-08
2.83781e-07
1.05287e-08
2.83717e-07
1.01072e-08
2.83611e-07
9.52372e-09
2.83461e-07
8.86398e-09
8.08804e-09
2.83214e-07
2.82012e-07
3.62469e-08
2.85099e-07
5.8955e-08
2.86332e-07
4.89073e-08
2.87355e-07
4.16598e-08
2.88181e-07
3.93295e-08
2.88682e-07
3.66904e-08
2.89035e-07
3.36588e-08
2.89345e-07
3.12433e-08
2.89615e-07
2.93934e-08
2.89843e-07
2.7809e-08
2.9004e-07
2.63898e-08
2.90217e-07
2.51248e-08
2.90376e-07
2.39968e-08
2.90522e-07
2.29812e-08
2.90656e-07
2.20589e-08
2.90781e-07
2.12169e-08
2.90897e-07
2.04452e-08
2.91007e-07
1.97355e-08
2.9111e-07
1.90811e-08
2.91208e-07
1.84758e-08
2.913e-07
1.79148e-08
2.91388e-07
1.73937e-08
2.91471e-07
1.69089e-08
2.9155e-07
1.64572e-08
2.91624e-07
1.60355e-08
2.91694e-07
1.56415e-08
2.9176e-07
1.52728e-08
2.91821e-07
1.49274e-08
2.91878e-07
1.46034e-08
2.91931e-07
1.42993e-08
2.91979e-07
1.40135e-08
2.92024e-07
1.37448e-08
2.92063e-07
1.34914e-08
2.92099e-07
1.32524e-08
2.9213e-07
1.3026e-08
2.92158e-07
1.28114e-08
2.92181e-07
1.26058e-08
2.922e-07
1.2409e-08
2.92215e-07
1.2216e-08
2.92227e-07
1.20268e-08
2.92234e-07
1.1834e-08
2.92237e-07
1.16348e-08
2.92236e-07
1.1421e-08
2.9223e-07
1.11778e-08
2.92219e-07
1.09035e-08
2.92194e-07
1.05533e-08
2.92156e-07
1.0145e-08
2.92078e-07
9.60204e-09
2.91953e-07
8.989e-09
8.30039e-09
2.9174e-07
2.90278e-07
3.28577e-08
2.93339e-07
5.58936e-08
2.94584e-07
4.76624e-08
2.95584e-07
4.066e-08
2.96428e-07
3.84856e-08
2.96956e-07
3.61621e-08
2.9732e-07
3.32949e-08
2.97635e-07
3.09281e-08
2.97911e-07
2.91178e-08
2.98144e-07
2.75757e-08
2.98345e-07
2.61887e-08
2.98524e-07
2.49462e-08
2.98685e-07
2.38354e-08
2.98832e-07
2.28341e-08
2.98968e-07
2.19237e-08
2.99093e-07
2.10915e-08
2.9921e-07
2.03281e-08
2.9932e-07
1.96256e-08
2.99424e-07
1.89775e-08
2.99522e-07
1.83779e-08
2.99614e-07
1.7822e-08
2.99702e-07
1.73058e-08
2.99786e-07
1.68255e-08
2.99865e-07
1.6378e-08
2.9994e-07
1.59605e-08
3.00011e-07
1.55706e-08
3.00078e-07
1.52059e-08
3.00141e-07
1.48644e-08
3.002e-07
1.45443e-08
3.00255e-07
1.42441e-08
3.00306e-07
1.39621e-08
3.00354e-07
1.3697e-08
3.00398e-07
1.34472e-08
3.00439e-07
1.32118e-08
3.00476e-07
1.29889e-08
3.0051e-07
1.27776e-08
3.0054e-07
1.25753e-08
3.00568e-07
1.23815e-08
3.00592e-07
1.21919e-08
3.00613e-07
1.20055e-08
3.00631e-07
1.18163e-08
3.00646e-07
1.162e-08
3.00656e-07
1.14102e-08
3.00663e-07
1.11718e-08
3.00663e-07
1.09032e-08
3.0065e-07
1.05661e-08
3.00623e-07
1.01726e-08
3.00556e-07
9.66845e-09
3.00442e-07
9.10321e-09
8.49374e-09
3.00249e-07
2.98815e-07
2.97453e-08
3.0184e-07
5.28688e-08
3.03104e-07
4.63984e-08
3.0408e-07
3.96841e-08
3.04936e-07
3.76295e-08
3.05492e-07
3.56061e-08
3.05868e-07
3.29184e-08
3.06189e-07
3.06076e-08
3.0647e-07
2.88363e-08
3.06709e-07
2.7337e-08
3.06914e-07
2.59839e-08
3.07095e-07
2.47649e-08
3.07258e-07
2.3672e-08
3.07407e-07
2.26854e-08
3.07544e-07
2.17872e-08
3.0767e-07
2.09652e-08
3.07788e-07
2.02103e-08
3.07898e-07
1.95153e-08
3.08002e-07
1.88736e-08
3.081e-07
1.82798e-08
3.08193e-07
1.77292e-08
3.08281e-07
1.72178e-08
3.08364e-07
1.67421e-08
3.08443e-07
1.6299e-08
3.08518e-07
1.58857e-08
3.08589e-07
1.54998e-08
3.08656e-07
1.5139e-08
3.08719e-07
1.48014e-08
3.08778e-07
1.44851e-08
3.08833e-07
1.41886e-08
3.08885e-07
1.39102e-08
3.08934e-07
1.36486e-08
3.08979e-07
1.34022e-08
3.0902e-07
1.31701e-08
3.09059e-07
1.29503e-08
3.09095e-07
1.2742e-08
3.09127e-07
1.25428e-08
3.09157e-07
1.23517e-08
3.09184e-07
1.21651e-08
3.09208e-07
1.19812e-08
3.09229e-07
1.17951e-08
3.09248e-07
1.16016e-08
3.09263e-07
1.13955e-08
3.09272e-07
1.11622e-08
3.09276e-07
1.08996e-08
3.09266e-07
1.05761e-08
3.09239e-07
1.01992e-08
3.09175e-07
9.73245e-09
3.09063e-07
9.21529e-09
8.67839e-09
3.08878e-07
3.07633e-07
2.68992e-08
3.10609e-07
4.98928e-08
3.11899e-07
4.51088e-08
3.12851e-07
3.8732e-08
3.13714e-07
3.67666e-08
3.14298e-07
3.50225e-08
3.14688e-07
3.25279e-08
3.15014e-07
3.02816e-08
3.15302e-07
2.8549e-08
3.15546e-07
2.70927e-08
3.15755e-07
2.5775e-08
3.15939e-07
2.45808e-08
3.16105e-07
2.35063e-08
3.16255e-07
2.25349e-08
3.16393e-07
2.16493e-08
3.16521e-07
2.08378e-08
3.16639e-07
2.00918e-08
3.1675e-07
1.94043e-08
3.16854e-07
1.87693e-08
3.16953e-07
1.81815e-08
3.17046e-07
1.76363e-08
3.17134e-07
1.71299e-08
3.17217e-07
1.66588e-08
3.17296e-07
1.62202e-08
3.1737e-07
1.58111e-08
3.17441e-07
1.54294e-08
3.17507e-07
1.50726e-08
3.1757e-07
1.47389e-08
3.17628e-07
1.44264e-08
3.17683e-07
1.41335e-08
3.17735e-07
1.38587e-08
3.17783e-07
1.36006e-08
3.17827e-07
1.33576e-08
3.17869e-07
1.31287e-08
3.17907e-07
1.2912e-08
3.17942e-07
1.27067e-08
3.17975e-07
1.25103e-08
3.18005e-07
1.23219e-08
3.18032e-07
1.21381e-08
3.18056e-07
1.19568e-08
3.18077e-07
1.17738e-08
3.18096e-07
1.15833e-08
3.1811e-07
1.1381e-08
3.18119e-07
1.11533e-08
3.18121e-07
1.08975e-08
3.18109e-07
1.05882e-08
3.18079e-07
1.02295e-08
3.18012e-07
9.79912e-09
3.17897e-07
9.32974e-09
8.86003e-09
3.17716e-07
3.16743e-07
2.43075e-08
3.19658e-07
4.69774e-08
3.20979e-07
4.37881e-08
3.21908e-07
3.78024e-08
3.22773e-07
3.5902e-08
3.23383e-07
3.44124e-08
3.23789e-07
3.21217e-08
3.24121e-07
2.99497e-08
3.24414e-07
2.82559e-08
3.24665e-07
2.68424e-08
3.24878e-07
2.55615e-08
3.25065e-07
2.43934e-08
3.25233e-07
2.33382e-08
3.25386e-07
2.23824e-08
3.25525e-07
2.15098e-08
3.25654e-07
2.07091e-08
3.25774e-07
1.99722e-08
3.25885e-07
1.92926e-08
3.2599e-07
1.86645e-08
3.26089e-07
1.80828e-08
3.26182e-07
1.75431e-08
3.2627e-07
1.70418e-08
3.26353e-07
1.65756e-08
3.26432e-07
1.61415e-08
3.26506e-07
1.57368e-08
3.26576e-07
1.53593e-08
3.26642e-07
1.50066e-08
3.26704e-07
1.46769e-08
3.26763e-07
1.43682e-08
3.26817e-07
1.40791e-08
3.26868e-07
1.3808e-08
3.26915e-07
1.35534e-08
3.26959e-07
1.33138e-08
3.26999e-07
1.30881e-08
3.27037e-07
1.28746e-08
3.27071e-07
1.26722e-08
3.27103e-07
1.24789e-08
3.27131e-07
1.22932e-08
3.27157e-07
1.21123e-08
3.2718e-07
1.19338e-08
3.272e-07
1.17538e-08
3.27217e-07
1.15668e-08
3.27229e-07
1.13686e-08
3.27235e-07
1.11471e-08
3.27234e-07
1.0899e-08
3.27218e-07
1.06045e-08
3.27181e-07
1.02656e-08
3.2711e-07
9.87072e-09
3.26991e-07
9.44836e-09
9.0413e-09
3.2681e-07
3.26153e-07
2.19567e-08
3.28996e-07
4.41346e-08
3.30352e-07
4.24326e-08
3.31261e-07
3.68936e-08
3.32122e-07
3.50406e-08
3.32757e-07
3.37776e-08
3.3318e-07
3.16983e-08
3.33519e-07
2.96113e-08
3.33817e-07
2.79572e-08
3.34074e-07
2.65859e-08
3.34292e-07
2.53433e-08
3.34483e-07
2.42026e-08
3.34654e-07
2.31674e-08
3.34808e-07
2.22277e-08
3.3495e-07
2.13685e-08
3.3508e-07
2.0579e-08
3.352e-07
1.98516e-08
3.35313e-07
1.918e-08
3.35418e-07
1.8559e-08
3.35518e-07
1.79835e-08
3.35611e-07
1.74496e-08
3.35699e-07
1.69536e-08
3.35783e-07
1.64923e-08
3.35861e-07
1.60628e-08
3.35936e-07
1.56627e-08
3.36005e-07
1.52894e-08
3.36071e-07
1.49409e-08
3.36133e-07
1.46153e-08
3.3619e-07
1.43106e-08
3.36244e-07
1.40254e-08
3.36294e-07
1.37579e-08
3.36341e-07
1.35069e-08