/*--------------------------------*- C++ -*----------------------------------*\
  =========                 |
  \\      /  F ield         | OpenFOAM: The Open Source CFD Toolbox
   \\    /   O peration     | Website:  https://openfoam.org
    \\  /    A nd           | Version:  7
     \\/     M anipulation  |
\*---------------------------------------------------------------------------*/
FoamFile
{
    version     2.0;
    format      ascii;
    class       surfaceScalarField;
    location    "0.2";
    object      phi_0;
}
// * * * * * * * * * * * * * * * * * * * * * * * * * * * * * * * * * * * * * //

dimensions      [0 3 -1 0 0 0 0];

internalField   nonuniform List<scalar> 
139350
(
6.45921e-08
9.20394e-08
3.19499e-08
3.26422e-08
2.30578e-08
8.89207e-09
1.95625e-08
3.49533e-09
1.76098e-08
1.95274e-09
1.61813e-08
1.42848e-09
1.50474e-08
1.13385e-09
1.41327e-08
9.14757e-10
1.33794e-08
7.53293e-10
1.27444e-08
6.35036e-10
1.21987e-08
5.45671e-10
1.1723e-08
4.75704e-10
1.13035e-08
4.19504e-10
1.09299e-08
3.7353e-10
1.05946e-08
3.35369e-10
1.02913e-08
3.03294e-10
1.00152e-08
2.76037e-10
9.76259e-09
2.52653e-10
9.53017e-09
2.32421e-10
9.31539e-09
2.14785e-10
9.11608e-09
1.99312e-10
8.93042e-09
1.85654e-10
8.75688e-09
1.73536e-10
8.59415e-09
1.62733e-10
8.44109e-09
1.53061e-10
8.29672e-09
1.44368e-10
8.1602e-09
1.36526e-10
8.03077e-09
1.29431e-10
7.90778e-09
1.22987e-10
7.79066e-09
1.17124e-10
7.6789e-09
1.11759e-10
7.57204e-09
1.06856e-10
7.46972e-09
1.02316e-10
7.37157e-09
9.81549e-11
7.27735e-09
9.42169e-11
7.18675e-09
9.06067e-11
7.09971e-09
8.70379e-11
7.01593e-09
8.37755e-11
6.93563e-09
8.03007e-11
6.85855e-09
7.70781e-11
6.78517e-09
7.33833e-11
6.71568e-09
6.94888e-11
6.65028e-09
6.54032e-11
6.59154e-09
5.87344e-11
6.53649e-09
5.50575e-11
6.49772e-09
3.87654e-11
6.45604e-09
4.16824e-11
6.47761e-09
-2.15704e-11
6.33698e-09
1.40634e-10
-3.01704e-09
9.35402e-09
1.26025e-07
1.27458e-07
9.12609e-08
6.74064e-08
7.19372e-08
2.82158e-08
6.12072e-08
1.42253e-08
5.4758e-08
8.40195e-09
5.02613e-08
5.92513e-09
4.67745e-08
4.62071e-09
4.39559e-08
3.73337e-09
4.16261e-08
3.08305e-09
3.96603e-08
2.60085e-09
3.79711e-08
2.23482e-09
3.64985e-08
1.9484e-09
3.51994e-08
1.71852e-09
3.40425e-08
1.5305e-09
3.30034e-08
1.3744e-09
3.20636e-08
1.24317e-09
3.1208e-08
1.13161e-09
3.04248e-08
1.03588e-09
2.97042e-08
9.53022e-10
2.90382e-08
8.80776e-10
2.84201e-08
8.17363e-10
2.78444e-08
7.61375e-10
2.73063e-08
7.11682e-10
2.68016e-08
6.67368e-10
2.6327e-08
6.27682e-10
2.58794e-08
5.9201e-10
2.54561e-08
5.59831e-10
2.50548e-08
5.30719e-10
2.46735e-08
5.04296e-10
2.43103e-08
4.80262e-10
2.39638e-08
4.58314e-10
2.36324e-08
4.38263e-10
2.33149e-08
4.19794e-10
2.30102e-08
4.02866e-10
2.27174e-08
3.8702e-10
2.24355e-08
3.72494e-10
2.21641e-08
3.5841e-10
2.19023e-08
3.45607e-10
2.16503e-08
3.32229e-10
2.14071e-08
3.2035e-10
2.11743e-08
3.06192e-10
2.09499e-08
2.9386e-10
2.07386e-08
2.7672e-10
2.05369e-08
2.60381e-10
2.03544e-08
2.37549e-10
2.01888e-08
2.04407e-10
2.00476e-08
1.82862e-10
1.99951e-08
3.0949e-11
1.98287e-08
3.0706e-10
-3.81798e-09
2.06296e-08
1.58807e-07
1.35055e-07
1.36492e-07
8.97211e-08
1.17487e-07
4.72205e-08
1.03305e-07
2.84076e-08
9.32935e-08
1.84135e-08
8.59869e-08
1.32317e-08
8.02764e-08
1.03312e-08
7.56206e-08
8.38918e-09
7.17371e-08
6.96658e-09
6.84387e-08
5.89928e-09
6.55918e-08
5.08166e-09
6.31015e-08
4.43868e-09
6.0899e-08
3.92102e-09
5.8933e-08
3.49653e-09
5.71641e-08
3.14332e-09
5.55615e-08
2.84576e-09
5.41007e-08
2.5924e-09
5.2762e-08
2.37463e-09
5.15291e-08
2.18591e-09
5.03887e-08
2.02116e-09
4.93297e-08
1.87639e-09
4.83426e-08
1.74844e-09
4.74195e-08
1.63477e-09
4.65536e-08
1.53331e-09
4.57389e-08
1.44238e-09
4.49703e-08
1.36058e-09
4.42434e-08
1.28676e-09
4.35542e-08
1.21992e-09
4.28992e-08
1.15925e-09
4.22754e-08
1.10404e-09
4.16801e-08
1.05364e-09
4.11108e-08
1.00759e-09
4.05653e-08
9.65248e-10
4.00418e-08
9.26432e-10
3.95385e-08
8.90281e-10
3.90539e-08
8.57131e-10
3.8587e-08
8.25318e-10
3.81361e-08
7.96451e-10
3.77016e-08
7.66711e-10
3.72812e-08
7.40771e-10
3.68777e-08
7.09673e-10
3.64866e-08
6.85003e-10
3.61168e-08
6.46501e-10
3.57575e-08
6.19718e-10
3.54318e-08
5.63194e-10
3.51172e-08
5.18989e-10
3.48554e-08
4.4473e-10
3.46678e-08
2.18502e-10
3.45208e-08
4.54082e-10
-3.67636e-09
3.43792e-08
1.75664e-07
1.30907e-07
1.65593e-07
9.97918e-08
1.52718e-07
6.0095e-08
1.40114e-07
4.10116e-08
1.29419e-07
2.91088e-08
1.2077e-07
2.18809e-08
1.13652e-07
1.74493e-08
1.07665e-07
1.4376e-08
1.02558e-07
1.20736e-08
9.81484e-08
1.0309e-08
9.4296e-08
8.93409e-09
9.08948e-08
7.83987e-09
8.78646e-08
6.9512e-09
8.51437e-08
6.21745e-09
8.26836e-08
5.60343e-09
8.04456e-08
5.08371e-09
7.83987e-08
4.63938e-09
7.65171e-08
4.25616e-09
7.478e-08
3.92305e-09
7.31697e-08
3.63148e-09
7.16714e-08
3.37468e-09
7.02726e-08
3.14723e-09
6.89626e-08
2.94477e-09
6.77321e-08
2.76376e-09
6.65732e-08
2.60126e-09
6.5479e-08
2.45487e-09
6.44432e-08
2.32256e-09
6.34604e-08
2.20264e-09
6.2526e-08
2.09366e-09
6.16357e-08
1.99439e-09
6.07856e-08
1.90373e-09
5.99724e-08
1.8208e-09
5.9193e-08
1.7446e-09
5.84447e-08
1.67469e-09
5.77253e-08
1.60974e-09
5.70323e-08
1.55013e-09
5.63643e-08
1.4933e-09
5.57191e-08
1.44169e-09
5.50966e-08
1.38919e-09
5.44938e-08
1.34357e-09
5.39139e-08
1.28955e-09
5.33508e-08
1.24809e-09
5.28156e-08
1.18173e-09
5.22936e-08
1.14175e-09
5.18137e-08
1.04302e-09
5.13461e-08
9.86634e-10
5.09439e-08
8.46897e-10
5.06073e-08
5.55081e-10
5.04032e-08
6.58206e-10
-3.21319e-09
4.99401e-08
1.8456e-07
1.23132e-07
1.8232e-07
1.02032e-07
1.76099e-07
6.63161e-08
1.67751e-07
4.93593e-08
1.59122e-07
3.77381e-08
1.51205e-07
2.97975e-08
1.44125e-07
2.45297e-08
1.37817e-07
2.06837e-08
1.32208e-07
1.76823e-08
1.27214e-07
1.53031e-08
1.22748e-07
1.33997e-08
1.18734e-07
1.1854e-08
1.15107e-07
1.05789e-08
1.11811e-07
9.51288e-09
1.08803e-07
8.61159e-09
1.06044e-07
7.84216e-09
1.03504e-07
7.17959e-09
1.01156e-07
6.60461e-09
9.89767e-08
6.10215e-09
9.69479e-08
5.66028e-09
9.50531e-08
5.26951e-09
9.32782e-08
4.92213e-09
9.16111e-08
4.61191e-09
9.00411e-08
4.33371e-09
8.85591e-08
4.08331e-09
8.71568e-08
3.85715e-09
8.5827e-08
3.65229e-09
8.45635e-08
3.46622e-09
8.33603e-08
3.29681e-09
8.22125e-08
3.14221e-09
8.11154e-08
3.00081e-09
8.0065e-08
2.87128e-09
7.90574e-08
2.75218e-09
7.80893e-08
2.64276e-09
7.71579e-08
2.54118e-09
7.62602e-08
2.44783e-09
7.53943e-08
2.3592e-09
7.45574e-08
2.27852e-09
7.37493e-08
2.19736e-09
7.29663e-08
2.12651e-09
7.22115e-08
2.04438e-09
7.14784e-08
1.98117e-09
7.07777e-08
1.88244e-09
7.00953e-08
1.82417e-09
6.94579e-08
1.68043e-09
6.8841e-08
1.60349e-09
6.82885e-08
1.39941e-09
6.78089e-08
1.03466e-09
6.74777e-08
9.89431e-10
-2.59525e-09
6.68598e-08
1.90388e-07
1.14961e-07
1.91851e-07
1.00569e-07
1.90241e-07
6.79262e-08
1.86146e-07
5.34538e-08
1.80701e-07
4.31828e-08
1.74939e-07
3.55596e-08
1.69234e-07
3.02351e-08
1.63741e-07
2.61769e-08
1.58556e-07
2.28671e-08
1.53721e-07
2.01375e-08
1.4924e-07
1.78811e-08
1.45095e-07
1.59994e-08
1.41261e-07
1.44128e-08
1.37712e-07
1.30622e-08
1.3442e-07
1.19029e-08
1.31362e-07
1.09004e-08
1.28514e-07
1.00278e-08
1.25855e-07
9.26339e-09
1.23367e-07
8.58993e-09
1.21034e-07
7.99347e-09
1.18841e-07
7.46264e-09
1.16775e-07
6.98813e-09
1.14825e-07
6.56225e-09
1.1298e-07
6.1786e-09
1.11231e-07
5.83186e-09
1.09571e-07
5.51753e-09
1.07991e-07
5.23183e-09
1.06486e-07
4.9715e-09
1.05049e-07
4.73378e-09
1.03675e-07
4.51628e-09
1.02359e-07
4.31687e-09
1.01096e-07
4.13379e-09
9.98833e-08
3.96515e-09
9.87162e-08
3.8099e-09
9.75917e-08
3.66572e-09
9.65066e-08
3.53291e-09
9.54586e-08
3.40715e-09
9.44449e-08
3.29224e-09
9.34645e-08
3.17774e-09
9.25141e-08
3.07688e-09
9.15958e-08
2.96276e-09
9.0704e-08
2.87296e-09
8.9847e-08
2.73945e-09
8.90147e-08
2.6564e-09
8.82259e-08
2.46928e-09
8.747e-08
2.35934e-09
8.67695e-08
2.0999e-09
8.61551e-08
1.64912e-09
8.56781e-08
1.46639e-09
-1.83252e-09
8.49154e-08
1.9554e-07
1.07235e-07
1.98246e-07
9.78635e-08
1.98966e-07
6.72067e-08
1.97782e-07
5.46376e-08
1.95145e-07
4.58201e-08
1.91796e-07
3.89086e-08
1.88055e-07
3.39757e-08
1.84095e-07
3.01373e-08
1.80064e-07
2.68978e-08
1.76073e-07
2.41282e-08
1.7219e-07
2.17639e-08
1.68454e-07
1.97357e-08
1.64884e-07
1.7983e-08
1.61488e-07
1.64584e-08
1.58265e-07
1.51252e-08
1.55212e-07
1.39535e-08
1.52321e-07
1.2919e-08
1.49583e-07
1.20015e-08
1.46989e-07
1.11843e-08
1.44529e-07
1.04536e-08
1.42194e-07
9.79768e-09
1.39975e-07
9.20687e-09
1.37864e-07
8.67295e-09
1.35854e-07
8.18899e-09
1.33937e-07
7.7491e-09
1.32106e-07
7.34827e-09
1.30355e-07
6.98221e-09
1.2868e-07
6.6472e-09
1.27073e-07
6.34008e-09
1.25532e-07
6.05802e-09
1.2405e-07
5.79855e-09
1.22624e-07
5.55955e-09
1.21251e-07
5.33883e-09
1.19925e-07
5.13503e-09
1.18646e-07
4.94549e-09
1.17408e-07
4.77037e-09
1.16211e-07
4.60472e-09
1.1505e-07
4.45265e-09
1.13926e-07
4.30227e-09
1.12834e-07
4.16833e-09
1.11777e-07
4.02027e-09
1.1075e-07
3.90014e-09
1.09757e-07
3.73157e-09
1.08796e-07
3.61764e-09
1.07874e-07
3.39123e-09
1.06997e-07
3.23679e-09
1.06165e-07
2.93142e-09
1.05426e-07
2.38887e-09
1.04813e-07
2.07858e-09
-9.32329e-10
1.03913e-07
2.00848e-07
9.99719e-08
2.03775e-07
9.49365e-08
2.05324e-07
6.5657e-08
2.05637e-07
5.43246e-08
2.04807e-07
4.66509e-08
2.03319e-07
4.03959e-08
2.01364e-07
3.59314e-08
1.99024e-07
3.24768e-08
1.96407e-07
2.95153e-08
1.93614e-07
2.69208e-08
1.90727e-07
2.46508e-08
1.87806e-07
2.26568e-08
1.84895e-07
2.0894e-08
1.82026e-07
1.9328e-08
1.79219e-07
1.79317e-08
1.7649e-07
1.66829e-08
1.73846e-07
1.55629e-08
1.71292e-07
1.45553e-08
1.6883e-07
1.36464e-08
1.66459e-07
1.28242e-08
1.64178e-07
1.20785e-08
1.61985e-07
1.14005e-08
1.59875e-07
1.07826e-08
1.57846e-07
1.02181e-08
1.55894e-07
9.70132e-09
1.54015e-07
9.22735e-09
1.52205e-07
8.7919e-09
1.50461e-07
8.39118e-09
1.48779e-07
8.02191e-09
1.47156e-07
7.68116e-09
1.45588e-07
7.36632e-09
1.44073e-07
7.07513e-09
1.42606e-07
6.80521e-09
1.41186e-07
6.55509e-09
1.3981e-07
6.32185e-09
1.38475e-07
6.10556e-09
1.37178e-07
5.90088e-09
1.35919e-07
5.71199e-09
1.34695e-07
5.52618e-09
1.33505e-07
5.35877e-09
1.32348e-07
5.17738e-09
1.31222e-07
5.02541e-09
1.3013e-07
4.82363e-09
1.29073e-07
4.67506e-09
1.2805e-07
4.41437e-09
1.27078e-07
4.20854e-09
1.26145e-07
3.86399e-09
1.253e-07
3.2346e-09
1.24574e-07
2.80475e-09
7.76006e-11
1.23564e-07
2.06447e-07
9.30573e-08
2.09338e-07
9.20448e-08
2.11034e-07
6.39611e-08
2.11926e-07
5.3433e-08
2.11991e-07
4.65855e-08
2.116e-07
4.07873e-08
2.10864e-07
3.66676e-08
2.09785e-07
3.35553e-08
2.08402e-07
3.08986e-08
2.06772e-07
2.85506e-08
2.04952e-07
2.64708e-08
2.02991e-07
2.46179e-08
2.00931e-07
2.29539e-08
1.98808e-07
2.1451e-08
1.96651e-07
2.0089e-08
1.94482e-07
1.88515e-08
1.9232e-07
1.7725e-08
1.90178e-07
1.66974e-08
1.88066e-07
1.57583e-08
1.85992e-07
1.48986e-08
1.8396e-07
1.41102e-08
1.81974e-07
1.3386e-08
1.80037e-07
1.27196e-08
1.7815e-07
1.21056e-08
1.76312e-07
1.15389e-08
1.74524e-07
1.10152e-08
1.72786e-07
1.05307e-08
1.71095e-07
1.00819e-08
1.69451e-07
9.66583e-09
1.67853e-07
9.27973e-09
1.66298e-07
8.92112e-09
1.64785e-07
8.58779e-09
1.63313e-07
8.27744e-09
1.61879e-07
7.98857e-09
1.60483e-07
7.71824e-09
1.59122e-07
7.46648e-09
1.57795e-07
7.22781e-09
1.56501e-07
7.00633e-09
1.55238e-07
6.78908e-09
1.54006e-07
6.59115e-09
1.52803e-07
6.37995e-09
1.51631e-07
6.19772e-09
1.50487e-07
5.9668e-09
1.49379e-07
5.78326e-09
1.483e-07
5.49401e-09
1.47273e-07
5.23559e-09
1.4628e-07
4.85686e-09
1.45361e-07
4.15366e-09
1.44551e-07
3.61477e-09
1.15815e-09
1.4347e-07
2.12289e-07
8.64311e-08
2.15151e-07
8.91823e-08
2.16788e-07
6.23237e-08
2.17838e-07
5.23833e-08
2.1825e-07
4.61734e-08
2.18362e-07
4.06756e-08
2.1828e-07
3.67493e-08
2.17974e-07
3.38619e-08
2.17435e-07
3.14375e-08
2.16682e-07
2.93031e-08
2.1574e-07
2.74128e-08
2.14634e-07
2.57239e-08
2.1339e-07
2.4198e-08
2.12033e-07
2.28081e-08
2.10586e-07
2.15357e-08
2.09071e-07
2.03671e-08
2.07504e-07
1.92913e-08
2.05903e-07
1.8299e-08
2.04279e-07
1.73821e-08
2.02644e-07
1.65338e-08
2.01006e-07
1.57479e-08
1.99373e-07
1.5019e-08
1.97751e-07
1.4342e-08
1.96143e-07
1.37128e-08
1.94555e-07
1.31273e-08
1.92988e-07
1.2582e-08
1.91445e-07
1.20739e-08
1.89927e-07
1.16e-08
1.88435e-07
1.11577e-08
1.8697e-07
1.07448e-08
1.85532e-07
1.03591e-08
1.84121e-07
9.99864e-09
1.82737e-07
9.6613e-09
1.8138e-07
9.34577e-09
1.80049e-07
9.04924e-09
1.78744e-07
8.77176e-09
1.77463e-07
8.50795e-09
1.76208e-07
8.26177e-09
1.74977e-07
8.02039e-09
1.7377e-07
7.79824e-09
1.72586e-07
7.56362e-09
1.71428e-07
7.35591e-09
1.70292e-07
7.1021e-09
1.69189e-07
6.88691e-09
1.68107e-07
6.57581e-09
1.67074e-07
6.26881e-09
1.6607e-07
5.86095e-09
1.65121e-07
5.10201e-09
1.64267e-07
4.4688e-09
2.26473e-09
1.63161e-07
2.1833e-07
8.00821e-08
2.21205e-07
8.63072e-08
2.22761e-07
6.07674e-08
2.23837e-07
5.13069e-08
2.24359e-07
4.5652e-08
2.24648e-07
4.0386e-08
2.24843e-07
3.65545e-08
2.24916e-07
3.37896e-08
2.24843e-07
3.151e-08
2.24626e-07
2.95202e-08
2.24269e-07
2.77696e-08
2.23779e-07
2.62141e-08
2.23165e-07
2.48124e-08
2.22437e-07
2.35353e-08
2.2161e-07
2.23632e-08
2.20695e-07
2.12822e-08
2.19705e-07
2.02815e-08
2.18651e-07
1.93526e-08
2.17545e-07
1.84883e-08
2.16396e-07
1.76828e-08
2.15213e-07
1.6931e-08
2.14004e-07
1.62283e-08
2.12775e-07
1.5571e-08
2.11532e-07
1.49554e-08
2.10281e-07
1.43786e-08
2.09025e-07
1.38376e-08
2.07769e-07
1.33301e-08
2.06515e-07
1.28537e-08
2.05267e-07
1.24065e-08
2.04025e-07
1.19864e-08
2.02792e-07
1.15917e-08
2.0157e-07
1.12209e-08
2.00359e-07
1.08721e-08
1.99161e-07
1.05442e-08
1.97975e-07
1.02347e-08
1.96804e-07
9.9436e-09
1.95646e-07
9.66586e-09
1.94502e-07
9.40524e-09
1.93373e-07
9.14937e-09
1.9226e-07
8.91167e-09
1.91161e-07
8.66215e-09
1.90081e-07
8.43623e-09
1.89015e-07
8.16757e-09
1.87975e-07
7.92698e-09
1.86949e-07
7.6017e-09
1.85964e-07
7.2543e-09
1.85002e-07
6.82327e-09
1.84074e-07
6.02934e-09
1.83222e-07
5.32066e-09
3.34906e-09
1.82138e-07
2.24558e-07
7.4017e-08
2.27469e-07
8.33967e-08
2.28958e-07
5.92786e-08
2.30039e-07
5.02253e-08
2.30602e-07
4.50895e-08
2.3094e-07
4.00477e-08
2.31224e-07
3.62702e-08
2.31445e-07
3.35691e-08
2.31581e-07
3.13734e-08
2.31632e-07
2.94695e-08
2.31597e-07
2.78052e-08
2.31473e-07
2.63373e-08
2.31262e-07
2.50234e-08
2.30965e-07
2.38322e-08
2.30586e-07
2.27424e-08
2.3013e-07
2.17388e-08
2.29601e-07
2.081e-08
2.29007e-07
1.99469e-08
2.28353e-07
1.91422e-08
2.27646e-07
1.83899e-08
2.26892e-07
1.76853e-08
2.26096e-07
1.70241e-08
2.25264e-07
1.64027e-08
2.24401e-07
1.58181e-08
2.23512e-07
1.52677e-08
2.22601e-07
1.47489e-08
2.21671e-07
1.42597e-08
2.20727e-07
1.37982e-08
2.19771e-07
1.33628e-08
2.18805e-07
1.29518e-08
2.17833e-07
1.25639e-08
2.16856e-07
1.21976e-08
2.15877e-07
1.18516e-08
2.14896e-07
1.15248e-08
2.13916e-07
1.12149e-08
2.12937e-07
1.09223e-08
2.11961e-07
1.0642e-08
2.10989e-07
1.03776e-08
2.10021e-07
1.01174e-08
2.09059e-07
9.87355e-09
2.08103e-07
9.61838e-09
2.07156e-07
9.3826e-09
2.06216e-07
9.10779e-09
2.05293e-07
8.84976e-09
2.04377e-07
8.51833e-09
2.0349e-07
8.14129e-09
2.02619e-07
7.69401e-09
2.01762e-07
6.88623e-09
2.00959e-07
6.1238e-09
4.36434e-09
1.99944e-07
2.30979e-07
6.82437e-08
2.33933e-07
8.04424e-08
2.35363e-07
5.78491e-08
2.36451e-07
4.91377e-08
2.37047e-07
4.44934e-08
2.374e-07
3.96943e-08
2.37706e-07
3.59644e-08
2.37972e-07
3.33029e-08
2.38184e-07
3.11613e-08
2.38344e-07
2.93095e-08
2.38454e-07
2.76949e-08
2.38513e-07
2.62784e-08
2.38519e-07
2.5018e-08
2.38469e-07
2.38818e-08
2.38364e-07
2.28475e-08
2.38203e-07
2.18993e-08
2.37989e-07
2.10248e-08
2.37721e-07
2.02144e-08
2.37403e-07
1.94602e-08
2.37037e-07
1.8756e-08
2.36626e-07
1.80964e-08
2.36173e-07
1.74773e-08
2.3568e-07
1.68949e-08
2.35152e-07
1.63461e-08
2.34592e-07
1.58284e-08
2.34001e-07
1.53393e-08
2.33384e-07
1.4877e-08
2.32743e-07
1.44397e-08
2.3208e-07
1.40258e-08
2.31398e-07
1.36339e-08
2.30699e-07
1.32628e-08
2.29985e-07
1.29114e-08
2.29258e-07
1.25781e-08
2.28521e-07
1.22625e-08
2.27773e-07
1.19621e-08
2.27018e-07
1.16774e-08
2.26257e-07
1.14037e-08
2.2549e-07
1.11445e-08
2.24719e-07
1.08886e-08
2.23945e-07
1.06469e-08
2.23169e-07
1.03944e-08
2.22395e-07
1.01565e-08
2.21619e-07
9.88355e-09
2.20853e-07
9.6162e-09
2.20085e-07
9.28588e-09
2.19336e-07
8.89078e-09
2.18596e-07
8.43445e-09
2.17849e-07
7.63225e-09
2.17135e-07
6.83867e-09
5.2717e-09
2.16227e-07
2.376e-07
6.27683e-08
2.40601e-07
7.74417e-08
2.41973e-07
5.64768e-08
2.43066e-07
4.80453e-08
2.43699e-07
4.38604e-08
2.44065e-07
3.93276e-08
2.44376e-07
3.56535e-08
2.44655e-07
3.30244e-08
2.4489e-07
3.09266e-08
2.45086e-07
2.91131e-08
2.45251e-07
2.75304e-08
2.45385e-07
2.61443e-08
2.45487e-07
2.49152e-08
2.45558e-07
2.38114e-08
2.45595e-07
2.28105e-08
2.45597e-07
2.18967e-08
2.45565e-07
2.10575e-08
2.45496e-07
2.02827e-08
2.45392e-07
1.95642e-08
2.45253e-07
1.88954e-08
2.45079e-07
1.82707e-08
2.44871e-07
1.76855e-08
2.44629e-07
1.7136e-08
2.44357e-07
1.6619e-08
2.44053e-07
1.61315e-08
2.43722e-07
1.56712e-08
2.43362e-07
1.52361e-08
2.42978e-07
1.48244e-08
2.42569e-07
1.44345e-08
2.42138e-07
1.4065e-08
2.41686e-07
1.37146e-08
2.41215e-07
1.33824e-08
2.40727e-07
1.30668e-08
2.40222e-07
1.27674e-08
2.39702e-07
1.24818e-08
2.39169e-07
1.22107e-08
2.38623e-07
1.19493e-08
2.38067e-07
1.17009e-08
2.375e-07
1.14552e-08
2.36925e-07
1.12215e-08
2.36342e-07
1.09774e-08
2.35755e-07
1.07434e-08
2.35161e-07
1.04782e-08
2.34569e-07
1.02084e-08
2.3397e-07
9.88466e-09
2.33379e-07
9.48211e-09
2.3279e-07
9.02334e-09
2.32179e-07
8.24267e-09
2.31579e-07
7.43931e-09
6.04609e-09
2.30804e-07
2.4443e-07
5.75942e-08
2.47471e-07
7.44014e-08
2.48794e-07
5.51535e-08
2.49887e-07
4.69526e-08
2.50558e-07
4.31888e-08
2.50942e-07
3.8944e-08
2.51257e-07
3.53383e-08
2.51541e-07
3.27407e-08
2.51783e-07
3.06845e-08
2.5199e-07
2.8906e-08
2.52171e-07
2.73491e-08
2.52331e-07
2.59846e-08
2.5247e-07
2.47759e-08
2.5259e-07
2.36919e-08
2.52689e-07
2.27111e-08
2.52768e-07
2.18177e-08
2.52826e-07
2.09994e-08
2.52862e-07
2.02464e-08
2.52876e-07
1.95503e-08
2.52867e-07
1.89044e-08
2.52835e-07
1.8303e-08
2.52779e-07
1.77415e-08
2.52699e-07
1.72156e-08
2.52596e-07
1.67222e-08
2.5247e-07
1.62581e-08
2.5232e-07
1.58208e-08
2.52148e-07
1.54082e-08
2.51954e-07
1.50184e-08
2.51739e-07
1.46497e-08
2.51503e-07
1.43007e-08
2.51247e-07
1.397e-08
2.50973e-07
1.36565e-08
2.50681e-07
1.33588e-08
2.50372e-07
1.30763e-08
2.50047e-07
1.28068e-08
2.49707e-07
1.25507e-08
2.49353e-07
1.23036e-08
2.48986e-07
1.20682e-08
2.48606e-07
1.18351e-08
2.48215e-07
1.1612e-08
2.47813e-07
1.13794e-08
2.47404e-07
1.11526e-08
2.46984e-07
1.08982e-08
2.46562e-07
1.06308e-08
2.4613e-07
1.03168e-08
2.45696e-07
9.91524e-09
2.4526e-07
9.45931e-09
2.44791e-07
8.71167e-09
2.44314e-07
7.91691e-09
6.67959e-09
2.4368e-07
2.51478e-07
5.27233e-08
2.54548e-07
7.1331e-08
2.55833e-07
5.38688e-08
2.5692e-07
4.58653e-08
2.57629e-07
4.24796e-08
2.58033e-07
3.85404e-08
2.58353e-07
3.50176e-08
2.58642e-07
3.2452e-08
2.58889e-07
3.04374e-08
2.591e-07
2.86947e-08
2.59287e-07
2.71627e-08
2.59454e-07
2.58172e-08
2.59605e-07
2.46249e-08
2.59741e-07
2.35557e-08
2.59864e-07
2.25885e-08
2.59973e-07
2.17082e-08
2.6007e-07
2.09029e-08
2.60153e-07
2.0163e-08
2.60223e-07
1.94805e-08
2.60279e-07
1.88485e-08
2.60321e-07
1.82616e-08
2.60347e-07
1.77149e-08
2.60358e-07
1.72044e-08
2.60354e-07
1.67266e-08
2.60333e-07
1.62785e-08
2.60297e-07
1.58575e-08
2.60244e-07
1.54612e-08
2.60174e-07
1.50877e-08
2.60089e-07
1.47352e-08
2.59987e-07
1.44023e-08
2.5987e-07
1.40874e-08
2.59737e-07
1.37894e-08
2.59589e-07
1.35068e-08
2.59427e-07
1.3239e-08
2.5925e-07
1.29837e-08
2.59059e-07
1.27412e-08
2.58855e-07
1.25073e-08
2.58639e-07
1.22843e-08
2.58411e-07
1.20636e-08
2.58172e-07
1.18511e-08
2.57921e-07
1.16302e-08
2.57662e-07
1.14114e-08
2.57392e-07
1.11686e-08
2.57116e-07
1.09061e-08
2.56831e-07
1.06027e-08
2.56538e-07
1.02079e-08
2.56239e-07
9.75855e-09
2.55899e-07
9.05088e-09
2.55537e-07
8.27911e-09
7.1808e-09
2.55036e-07
2.58751e-07
4.81557e-08
2.61841e-07
6.82404e-08
2.63098e-07
5.26122e-08
2.64175e-07
4.47885e-08
2.64919e-07
4.17354e-08
2.65344e-07
3.8115e-08
2.65672e-07
3.46902e-08
2.65966e-07
3.2158e-08
2.66218e-07
3.01852e-08
2.66433e-07
2.84798e-08
2.66622e-07
2.69737e-08
2.66792e-07
2.56472e-08
2.66946e-07
2.44704e-08
2.67088e-07
2.34144e-08
2.67218e-07
2.24586e-08
2.67337e-07
2.15884e-08
2.67448e-07
2.07925e-08
2.67549e-07
2.00616e-08
2.67642e-07
1.93879e-08
2.67726e-07
1.87648e-08
2.678e-07
1.81869e-08
2.67866e-07
1.76496e-08
2.67921e-07
1.71487e-08
2.67967e-07
1.66809e-08
2.68002e-07
1.62431e-08
2.68027e-07
1.58327e-08
2.68041e-07
1.54473e-08
2.68044e-07
1.50849e-08
2.68035e-07
1.47437e-08
2.68015e-07
1.44222e-08
2.67984e-07
1.41187e-08
2.67941e-07
1.38322e-08
2.67887e-07
1.3561e-08
2.67822e-07
1.33044e-08
2.67745e-07
1.30603e-08
2.67658e-07
1.28286e-08
2.6756e-07
1.26054e-08
2.67451e-07
1.23925e-08
2.67333e-07
1.21821e-08
2.67205e-07
1.19786e-08
2.67067e-07
1.1768e-08
2.66922e-07
1.15564e-08
2.66767e-07
1.13241e-08
2.66606e-07
1.10673e-08
2.66435e-07
1.07737e-08
2.66254e-07
1.03891e-08
2.66063e-07
9.94866e-09
2.6583e-07
9.28401e-09
2.65564e-07
8.54557e-09
7.57062e-09
2.65174e-07
2.66258e-07
4.38898e-08
2.69358e-07
6.51401e-08
2.70597e-07
5.13732e-08
2.7166e-07
4.37264e-08
2.72435e-07
4.09596e-08
2.72884e-07
3.76659e-08
2.73219e-07
3.43554e-08
2.73519e-07
3.18586e-08
2.73777e-07
2.99273e-08
2.73995e-07
2.82609e-08
2.74187e-07
2.67821e-08
2.74359e-07
2.54752e-08
2.74515e-07
2.43141e-08
2.74658e-07
2.32712e-08
2.74791e-07
2.23264e-08
2.74913e-07
2.14655e-08
2.75028e-07
2.06778e-08
2.75135e-07
1.99543e-08
2.75236e-07
1.92875e-08
2.7533e-07
1.8671e-08
2.75417e-07
1.80995e-08
2.75498e-07
1.75686e-08
2.75573e-07
1.70742e-08
2.75641e-07
1.6613e-08
2.75702e-07
1.61821e-08
2.75756e-07
1.57787e-08
2.75802e-07
1.54005e-08
2.75842e-07
1.50456e-08
2.75873e-07
1.47121e-08
2.75897e-07
1.43983e-08
2.75913e-07
1.41028e-08
2.75921e-07
1.38242e-08
2.75921e-07
1.3561e-08
2.75913e-07
1.33125e-08
2.75897e-07
1.30763e-08
2.75873e-07
1.28525e-08
2.75841e-07
1.26373e-08
2.75802e-07
1.24319e-08
2.75755e-07
1.22294e-08
2.75701e-07
1.20326e-08
2.75638e-07
1.18302e-08
2.7557e-07
1.16243e-08
2.75494e-07
1.14004e-08
2.75412e-07
1.11491e-08
2.75322e-07
1.08639e-08
2.7522e-07
1.04911e-08
2.75108e-07
1.00612e-08
2.74952e-07
9.43989e-09
2.74756e-07
8.74158e-09
7.87593e-09
2.7445e-07
2.74009e-07
3.9922e-08
2.77108e-07
6.20412e-08
2.7834e-07
5.01415e-08
2.79383e-07
4.26828e-08
2.80187e-07
4.01562e-08
2.80661e-07
3.71916e-08
2.81004e-07
3.40122e-08
2.81309e-07
3.15538e-08
2.81573e-07
2.96636e-08
2.81796e-07
2.80376e-08
2.8199e-07
2.65877e-08
2.82164e-07
2.53012e-08
2.82322e-07
2.41563e-08
2.82466e-07
2.31269e-08
2.826e-07
2.21931e-08
2.82724e-07
2.13416e-08
2.8284e-07
2.05619e-08
2.82949e-07
1.98453e-08
2.83051e-07
1.91847e-08
2.83148e-07
1.8574e-08
2.8324e-07
1.8008e-08
2.83326e-07
1.74822e-08
2.83407e-07
1.6993e-08
2.83484e-07
1.65369e-08
2.83555e-07
1.6111e-08
2.83621e-07
1.57127e-08
2.83681e-07
1.53398e-08
2.83737e-07
1.49902e-08
2.83787e-07
1.46621e-08
2.83831e-07
1.43539e-08
2.8387e-07
1.40639e-08
2.83903e-07
1.3791e-08
2.83931e-07
1.35335e-08
2.83953e-07
1.32906e-08
2.83969e-07
1.30601e-08
2.8398e-07
1.28418e-08
2.83985e-07
1.26323e-08
2.83984e-07
1.24322e-08
2.83978e-07
1.22355e-08
2.83967e-07
1.20436e-08
2.8395e-07
1.18471e-08
2.83929e-07
1.16456e-08
2.83901e-07
1.14281e-08
2.83868e-07
1.11819e-08
2.83829e-07
1.09036e-08
2.83777e-07
1.05432e-08
2.83713e-07
1.01251e-08
2.83607e-07
9.54606e-09
2.83456e-07
8.89202e-09
8.12352e-09
2.83209e-07
2.82012e-07
3.6247e-08
2.85099e-07
5.89552e-08
2.86332e-07
4.89076e-08
2.87355e-07
4.16602e-08
2.88181e-07
3.933e-08
2.88682e-07
3.66909e-08
2.89035e-07
3.36593e-08
2.89345e-07
3.12439e-08
2.89614e-07
2.93939e-08
2.89843e-07
2.78095e-08
2.9004e-07
2.63901e-08
2.90216e-07
2.5125e-08
2.90376e-07
2.39969e-08
2.90521e-07
2.29812e-08
2.90656e-07
2.20589e-08
2.9078e-07
2.12169e-08
2.90897e-07
2.04453e-08
2.91006e-07
1.97358e-08
2.9111e-07
1.90814e-08
2.91207e-07
1.84763e-08
2.913e-07
1.79154e-08
2.91388e-07
1.73945e-08
2.91471e-07
1.69098e-08
2.9155e-07
1.64582e-08
2.91624e-07
1.60367e-08
2.91694e-07
1.56428e-08
2.91759e-07
1.52742e-08
2.91821e-07
1.49289e-08
2.91878e-07
1.46051e-08
2.9193e-07
1.43012e-08
2.91979e-07
1.40156e-08
2.92023e-07
1.3747e-08
2.92062e-07
1.34938e-08
2.92098e-07
1.32551e-08
2.92129e-07
1.30289e-08
2.92156e-07
1.28147e-08
2.92179e-07
1.26094e-08
2.92198e-07
1.24131e-08
2.92213e-07
1.22207e-08
2.92224e-07
1.20322e-08
2.92231e-07
1.18403e-08
2.92235e-07
1.16421e-08
2.92233e-07
1.14296e-08
2.92227e-07
1.1188e-08
2.92215e-07
1.09158e-08
2.9219e-07
1.05682e-08
2.92152e-07
1.01633e-08
2.92073e-07
9.62472e-09
2.91948e-07
9.01726e-09
8.33582e-09
2.91736e-07
2.90278e-07
3.28577e-08
2.93339e-07
5.58938e-08
2.94584e-07
4.76627e-08
2.95584e-07
4.06605e-08
2.96428e-07
3.84861e-08
2.96956e-07
3.61627e-08
2.9732e-07
3.32954e-08
2.97635e-07
3.09287e-08
2.97911e-07
2.91184e-08
2.98144e-07
2.75762e-08
2.98345e-07
2.61891e-08
2.98524e-07
2.49464e-08
2.98685e-07
2.38355e-08
2.98832e-07
2.28341e-08
2.98967e-07
2.19237e-08
2.99093e-07
2.10915e-08
2.9921e-07
2.03282e-08
2.9932e-07
1.96259e-08
2.99423e-07
1.89778e-08
2.99521e-07
1.83784e-08
2.99614e-07
1.78226e-08
2.99702e-07
1.73065e-08
2.99786e-07
1.68264e-08
2.99865e-07
1.63791e-08
2.9994e-07
1.59617e-08
3.0001e-07
1.55719e-08
3.00077e-07
1.52074e-08
3.0014e-07
1.4866e-08
3.00199e-07
1.45461e-08
3.00254e-07
1.42461e-08
3.00306e-07
1.39642e-08
3.00353e-07
1.36993e-08
3.00397e-07
1.34498e-08
3.00438e-07
1.32146e-08
3.00475e-07
1.29919e-08
3.00509e-07
1.2781e-08
3.00539e-07
1.25791e-08
3.00566e-07
1.23858e-08
3.0059e-07
1.21968e-08
3.00611e-07
1.20111e-08
3.00628e-07
1.18228e-08
3.00643e-07
1.16275e-08
3.00654e-07
1.1419e-08
3.00659e-07
1.11823e-08
3.00659e-07
1.09157e-08
3.00646e-07
1.05813e-08
3.00618e-07
1.01912e-08
3.00552e-07
9.69141e-09
3.00437e-07
9.1316e-09
8.52902e-09
3.00244e-07
2.98815e-07
2.97453e-08
3.0184e-07
5.2869e-08
3.03104e-07
4.63988e-08
3.0408e-07
3.96846e-08
3.04936e-07
3.76301e-08
3.05492e-07
3.56067e-08
3.05868e-07
3.29191e-08
3.06188e-07
3.06083e-08
3.0647e-07
2.88369e-08
3.06709e-07
2.73376e-08
3.06913e-07
2.59843e-08
3.07095e-07
2.47652e-08
3.07258e-07
2.36721e-08
3.07407e-07
2.26854e-08
3.07543e-07
2.17872e-08
3.0767e-07
2.09652e-08
3.07787e-07
2.02104e-08
3.07898e-07
1.95155e-08
3.08002e-07
1.88739e-08
3.081e-07
1.82803e-08
3.08193e-07
1.77298e-08
3.08281e-07
1.72186e-08
3.08364e-07
1.6743e-08
3.08443e-07
1.63001e-08
3.08518e-07
1.58869e-08
3.08588e-07
1.55012e-08
3.08655e-07
1.51406e-08
3.08718e-07
1.48031e-08
3.08777e-07
1.4487e-08
3.08833e-07
1.41906e-08
3.08884e-07
1.39124e-08
3.08933e-07
1.3651e-08
3.08978e-07
1.34049e-08
3.09019e-07
1.3173e-08
3.09058e-07
1.29535e-08
3.09093e-07
1.27456e-08
3.09126e-07
1.25467e-08
3.09155e-07
1.23561e-08
3.09182e-07
1.21701e-08
3.09206e-07
1.1987e-08
3.09227e-07
1.18018e-08
3.09245e-07
1.16093e-08
3.0926e-07
1.14046e-08
3.09269e-07
1.1173e-08
3.09272e-07
1.09125e-08
3.09262e-07
1.05917e-08
3.09235e-07
1.02181e-08
3.09171e-07
9.75564e-09
3.09059e-07
9.24374e-09
8.71342e-09
3.08874e-07
3.07633e-07
2.68993e-08
3.10609e-07
4.9893e-08
3.11899e-07
4.51091e-08
3.12851e-07
3.87324e-08
3.13714e-07
3.67672e-08
3.14298e-07
3.50231e-08
3.14688e-07
3.25286e-08
3.15014e-07
3.02823e-08
3.15301e-07
2.85496e-08
3.15546e-07
2.70932e-08
3.15755e-07
2.57754e-08
3.15939e-07
2.4581e-08
3.16104e-07
2.35064e-08
3.16255e-07
2.25349e-08
3.16393e-07
2.16493e-08
3.1652e-07
2.08378e-08
3.16639e-07
2.00918e-08
3.1675e-07
1.94045e-08
3.16854e-07
1.87696e-08
3.16952e-07
1.81819e-08
3.17045e-07
1.76369e-08
3.17133e-07
1.71306e-08
3.17217e-07
1.66597e-08
3.17295e-07
1.62213e-08
3.1737e-07
1.58124e-08
3.1744e-07
1.54308e-08
3.17507e-07
1.50742e-08
3.17569e-07
1.47407e-08
3.17628e-07
1.44284e-08
3.17683e-07
1.41357e-08
3.17734e-07
1.3861e-08
3.17782e-07
1.36031e-08
3.17826e-07
1.33604e-08
3.17868e-07
1.31317e-08
3.17906e-07
1.29153e-08
3.17941e-07
1.27104e-08
3.17973e-07
1.25145e-08
3.18003e-07
1.23265e-08
3.1803e-07
1.21434e-08
3.18054e-07
1.19628e-08
3.18075e-07
1.17807e-08
3.18093e-07
1.15914e-08
3.18107e-07
1.13904e-08
3.18116e-07
1.11644e-08
3.18117e-07
1.09107e-08
3.18105e-07
1.06041e-08
3.18074e-07
1.02487e-08
3.18008e-07
9.82248e-09
3.17893e-07
9.35818e-09
8.89473e-09
3.17712e-07
3.16743e-07
2.43076e-08
3.19658e-07
4.69777e-08
3.20979e-07
4.37885e-08
3.21908e-07
3.7803e-08
3.22773e-07
3.59026e-08
3.23383e-07
3.44131e-08
3.23789e-07
3.21224e-08
3.24121e-07
2.99505e-08
3.24414e-07
2.82566e-08
3.24664e-07
2.6843e-08
3.24878e-07
2.5562e-08
3.25065e-07
2.43937e-08
3.25233e-07
2.33383e-08
3.25386e-07
2.23824e-08
3.25525e-07
2.15098e-08
3.25654e-07
2.07091e-08
3.25773e-07
1.99723e-08
3.25885e-07
1.92928e-08
3.2599e-07
1.86648e-08
3.26089e-07
1.80832e-08
3.26182e-07
1.75437e-08
3.2627e-07
1.70426e-08
3.26353e-07
1.65765e-08
3.26432e-07
1.61426e-08
3.26506e-07
1.57381e-08
3.26576e-07
1.53608e-08
3.26642e-07
1.50083e-08
3.26704e-07
1.46787e-08
3.26762e-07
1.43703e-08
3.26816e-07
1.40814e-08
3.26867e-07
1.38104e-08
3.26914e-07
1.3556e-08
3.26958e-07
1.33167e-08
3.26998e-07
1.30913e-08
3.27035e-07
1.28781e-08
3.2707e-07
1.26761e-08
3.27101e-07
1.24832e-08
3.2713e-07
1.2298e-08
3.27155e-07
1.21178e-08
3.27178e-07
1.194e-08
3.27198e-07
1.1761e-08
3.27214e-07
1.15751e-08
3.27226e-07
1.13783e-08
3.27232e-07
1.11585e-08
3.2723e-07
1.09125e-08
3.27214e-07
1.06207e-08
3.27177e-07
1.0285e-08
3.27106e-07
9.89419e-09
3.26987e-07
9.47672e-09
9.07558e-09
3.26806e-07
3.26153e-07
2.19568e-08
3.28996e-07
4.41348e-08
3.30352e-07
4.2433e-08
3.3126e-07
3.68942e-08
3.32122e-07
3.50412e-08
3.32757e-07
3.37783e-08
3.3318e-07
3.16991e-08
3.33518e-07
2.9612e-08
3.33817e-07
2.7958e-08
3.34073e-07
2.65866e-08
3.34292e-07
2.53437e-08
3.34482e-07
2.42029e-08
3.34653e-07
2.31675e-08
3.34808e-07
2.22276e-08
3.34949e-07
2.13685e-08
3.35079e-07
2.0579e-08
3.352e-07
1.98516e-08
3.35313e-07
1.91802e-08
3.35418e-07
1.85592e-08
3.35517e-07
1.79839e-08
3.35611e-07
1.74502e-08
3.35699e-07
1.69543e-08
3.35783e-07
1.64932e-08
3.35861e-07
1.6064e-08
3.35935e-07
1.5664e-08
3.36005e-07
1.5291e-08
3.36071e-07
1.49427e-08
3.36132e-07
1.46172e-08
3.3619e-07
1.43128e-08
3.36243e-07
1.40277e-08
3.36293e-07
1.37605e-08
3.3634e-07
1.35097e-08
3.36382e-07