/*--------------------------------*- C++ -*----------------------------------*\
  =========                 |
  \\      /  F ield         | OpenFOAM: The Open Source CFD Toolbox
   \\    /   O peration     | Website:  https://openfoam.org
    \\  /    A nd           | Version:  7
     \\/     M anipulation  |
\*---------------------------------------------------------------------------*/
FoamFile
{
    version     2.0;
    format      ascii;
    class       volVectorField;
    location    "0.2";
    object      U;
}
// * * * * * * * * * * * * * * * * * * * * * * * * * * * * * * * * * * * * * //

dimensions      [0 1 -1 0 0 0 0];

internalField   nonuniform List<vector> 
70000
(
(0.55339 0.0167231 0)
(0.251255 0.00340112 0)
(0.166187 0.000322122 0)
(0.132429 5.437e-05 0)
(0.117228 4.58077e-05 0)
(0.107293 5.39861e-05 0)
(0.0993336 4.63564e-05 0)
(0.0928829 3.70228e-05 0)
(0.0876275 3.0716e-05 0)
(0.0832469 2.63978e-05 0)
(0.0795125 2.31107e-05 0)
(0.0762759 2.04816e-05 0)
(0.0734354 1.83412e-05 0)
(0.0709169 1.65761e-05 0)
(0.0686639 1.51023e-05 0)
(0.0666329 1.38573e-05 0)
(0.0647898 1.27948e-05 0)
(0.0631071 1.188e-05 0)
(0.0615628 1.1086e-05 0)
(0.0601386 1.03922e-05 0)
(0.0588196 9.78219e-06 0)
(0.0575931 9.243e-06 0)
(0.0564486 8.76391e-06 0)
(0.0553769 8.33646e-06 0)
(0.0543704 7.95311e-06 0)
(0.0534223 7.60853e-06 0)
(0.0525269 7.29653e-06 0)
(0.0516789 7.01428e-06 0)
(0.0508742 6.75556e-06 0)
(0.0501086 6.52028e-06 0)
(0.0493788 6.29992e-06 0)
(0.0486816 6.09954e-06 0)
(0.0480147 5.90305e-06 0)
(0.0473754 5.72615e-06 0)
(0.046762 5.53724e-06 0)
(0.0461726 5.36935e-06 0)
(0.045606 5.16848e-06 0)
(0.0450618 4.98128e-06 0)
(0.0445373 4.75232e-06 0)
(0.0440384 4.46547e-06 0)
(0.0435527 4.24336e-06 0)
(0.0431085 3.58334e-06 0)
(0.0426565 3.65394e-06 0)
(0.0423007 1.67727e-06 0)
(0.0418632 3.26277e-06 0)
(0.0416946 -3.10141e-06 0)
(0.0412074 3.99953e-06 0)
(0.0414709 -1.58422e-05 0)
(0.0410145 1.34899e-05 0)
(0.0389672 -0.00153758 0)
(0.884899 0.0431677 0)
(0.649707 0.0201949 0)
(0.49429 0.00659957 0)
(0.403607 0.00276904 0)
(0.354653 0.00155354 0)
(0.323321 0.0011332 0)
(0.299432 0.000912062 0)
(0.280206 0.000748237 0)
(0.264463 0.000625515 0)
(0.25131 0.000534952 0)
(0.240094 0.000466303 0)
(0.230374 0.000412382 0)
(0.221842 0.000368907 0)
(0.214274 0.000333206 0)
(0.207503 0.000303465 0)
(0.201398 0.000278381 0)
(0.195856 0.000256998 0)
(0.190796 0.000238597 0)
(0.18615 0.000222634 0)
(0.181866 0.000208686 0)
(0.177898 0.000196421 0)
(0.174208 0.000185578 0)
(0.170765 0.000175944 0)
(0.16754 0.000167348 0)
(0.164512 0.000159649 0)
(0.16166 0.000152733 0)
(0.158966 0.000146501 0)
(0.156415 0.000140872 0)
(0.153994 0.000135774 0)
(0.151691 0.000131152 0)
(0.149496 0.00012694 0)
(0.147398 0.000123111 0)
(0.145391 0.000119582 0)
(0.143465 0.00011637 0)
(0.141617 0.000113329 0)
(0.139838 0.000110568 0)
(0.138126 0.000107785 0)
(0.136478 0.00010528 0)
(0.134884 0.000102429 0)
(0.13336 9.98694e-05 0)
(0.13187 9.64707e-05 0)
(0.130487 9.31408e-05 0)
(0.129078 8.85701e-05 0)
(0.127911 8.23756e-05 0)
(0.126516 7.62745e-05 0)
(0.125798 6.016e-05 0)
(0.124224 5.68981e-05 0)
(0.124516 -1.65571e-05 0)
(0.122834 0.00017021 0)
(0.121417 -0.00270807 0)
(0.991238 0.0499021 0)
(0.890341 0.0307208 0)
(0.762654 0.0146009 0)
(0.656608 0.00798355 0)
(0.585243 0.00488909 0)
(0.535796 0.00347556 0)
(0.497886 0.00274025 0)
(0.467223 0.00224818 0)
(0.441862 0.00188542 0)
(0.420502 0.00161437 0)
(0.402194 0.00140763 0)
(0.386269 0.00124522 0)
(0.37225 0.00111434 0)
(0.359786 0.00100687 0)
(0.348611 0.000917305 0)
(0.338518 0.000841726 0)
(0.329343 0.000777263 0)
(0.320956 0.000721766 0)
(0.313248 0.000673594 0)
(0.306134 0.00063148 0)
(0.299539 0.00059443 0)
(0.293403 0.000561654 0)
(0.287673 0.000532518 0)
(0.282306 0.000506508 0)
(0.277264 0.000483203 0)
(0.272513 0.000462256 0)
(0.268025 0.000443377 0)
(0.263775 0.000426324 0)
(0.259741 0.000410886 0)
(0.255902 0.000396893 0)
(0.252243 0.000384169 0)
(0.248747 0.000372612 0)
(0.245401 0.000362025 0)
(0.242191 0.000352401 0)
(0.239109 0.000343419 0)
(0.236143 0.000335283 0)
(0.233285 0.000327299 0)
(0.230532 0.000320195 0)
(0.227869 0.00031234 0)
(0.225314 0.000305694 0)
(0.222816 0.000296512 0)
(0.220476 0.000289319 0)
(0.218102 0.000276169 0)
(0.216075 0.000265877 0)
(0.213719 0.000244134 0)
(0.212312 0.000220768 0)
(0.209695 0.000192004 0)
(0.209629 5.87286e-05 0)
(0.206695 0.000273244 0)
(0.206764 -0.00282239 0)
(1.0156 0.0489211 0)
(1.00596 0.035878 0)
(0.935929 0.0207971 0)
(0.852065 0.0135113 0)
(0.78208 0.00921551 0)
(0.726832 0.00678929 0)
(0.681699 0.00539184 0)
(0.643889 0.00445309 0)
(0.611816 0.00376004 0)
(0.584288 0.00323521 0)
(0.560368 0.00283024 0)
(0.539346 0.00250993 0)
(0.520691 0.00225069 0)
(0.503998 0.00203706 0)
(0.488951 0.00185848 0)
(0.475301 0.00170739 0)
(0.462847 0.00157822 0)
(0.451425 0.00146679 0)
(0.440901 0.0013699 0)
(0.431163 0.00128506 0)
(0.422119 0.0012103 0)
(0.413688 0.00114408 0)
(0.405805 0.00108514 0)
(0.39841 0.00103245 0)
(0.391454 0.000985193 0)
(0.384894 0.000942667 0)
(0.378692 0.000904302 0)
(0.372815 0.000869614 0)
(0.367232 0.000838191 0)
(0.361918 0.000809686 0)
(0.356849 0.000783773 0)
(0.352004 0.000760221 0)
(0.347366 0.000738693 0)
(0.342916 0.000719117 0)
(0.338642 0.000700964 0)
(0.334527 0.000684523 0)
(0.330562 0.000668625 0)
(0.326739 0.000654527 0)
(0.32304 0.000639284 0)
(0.319484 0.000626692 0)
(0.316011 0.000609295 0)
(0.312734 0.000597168 0)
(0.309432 0.000572015 0)
(0.306537 0.00055824 0)
(0.30328 0.000514303 0)
(0.301094 0.000487406 0)
(0.297585 0.000419662 0)
(0.296845 0.000240652 0)
(0.292957 0.000380601 0)
(0.293336 -0.00252825 0)
(1.01434 0.0460047 0)
(1.04753 0.0374922 0)
(1.02456 0.0241589 0)
(0.974713 0.017569 0)
(0.923358 0.0131335 0)
(0.876535 0.0102179 0)
(0.834319 0.00835475 0)
(0.796515 0.00703413 0)
(0.762894 0.00602509 0)
(0.733017 0.00523883 0)
(0.706369 0.00461855 0)
(0.682477 0.00412009 0)
(0.660939 0.00371193 0)
(0.641421 0.00337249 0)
(0.623645 0.00308661 0)
(0.607379 0.00284323 0)
(0.592429 0.00263407 0)
(0.578633 0.00245283 0)
(0.565854 0.00229461 0)
(0.553975 0.00215559 0)
(0.542897 0.00203273 0)
(0.532534 0.0019236 0)
(0.522813 0.00182621 0)
(0.51367 0.00173897 0)
(0.505049 0.00166054 0)
(0.496901 0.00158982 0)
(0.489183 0.00152591 0)
(0.481856 0.00146802 0)
(0.474886 0.00141551 0)
(0.468243 0.00136779 0)
(0.4619 0.00132437 0)
(0.455831 0.00128486 0)
(0.450015 0.00124875 0)
(0.444431 0.00121587 0)
(0.439064 0.00118548 0)
(0.433894 0.00115792 0)
(0.428909 0.00113153 0)
(0.424099 0.00110809 0)
(0.419444 0.00108325 0)
(0.414959 0.00106281 0)
(0.410586 0.00103519 0)
(0.406432 0.0010167 0)
(0.40228 0.000977405 0)
(0.398549 0.000959237 0)
(0.394494 0.000890653 0)
(0.391489 0.000858766 0)
(0.38728 0.000749597 0)
(0.385636 0.000528031 0)
(0.381226 0.000562823 0)
(0.38076 -0.00212073 0)
(1.00933 0.0429161 0)
(1.05527 0.0372679 0)
(1.05868 0.0253043 0)
(1.03634 0.019771 0)
(1.00703 0.0158258 0)
(0.975939 0.0129516 0)
(0.944359 0.0109764 0)
(0.913433 0.0094951 0)
(0.884014 0.00830582 0)
(0.856489 0.00733965 0)
(0.830936 0.00655189 0)
(0.807288 0.00590248 0)
(0.785424 0.00536001 0)
(0.765196 0.00490159 0)
(0.746456 0.0045104 0)
(0.729062 0.00417373 0)
(0.71288 0.00388173 0)
(0.697792 0.00362671 0)
(0.683691 0.00340259 0)
(0.670481 0.0032045 0)
(0.658077 0.00302854 0)
(0.646405 0.0028715 0)
(0.635397 0.0027308 0)
(0.624994 0.00260427 0)
(0.615144 0.00249014 0)
(0.605799 0.00238691 0)
(0.596918 0.00229334 0)
(0.588461 0.00220836 0)
(0.580394 0.00213107 0)
(0.572687 0.00206069 0)
(0.565311 0.00199652 0)
(0.558241 0.00193799 0)
(0.551453 0.00188445 0)
(0.544927 0.00183562 0)
(0.538643 0.00179053 0)
(0.532584 0.00174955 0)
(0.526735 0.00171055 0)
(0.521082 0.00167579 0)
(0.51561 0.00163958 0)
(0.510325 0.00160953 0)
(0.505178 0.00157029 0)
(0.500257 0.00154372 0)
(0.495377 0.00148953 0)
(0.490894 0.00146446 0)
(0.486178 0.00137264 0)
(0.482383 0.00132943 0)
(0.477657 0.00118534 0)
(0.475036 0.000913317 0)
(0.470381 0.000850775 0)
(0.468699 -0.00162128 0)
(1.00625 0.0400347 0)
(1.05206 0.0363407 0)
(1.06608 0.0252342 0)
(1.05958 0.0205722 0)
(1.04683 0.0172551 0)
(1.03071 0.0146749 0)
(1.01176 0.0128402 0)
(0.991023 0.0114165 0)
(0.96955 0.0102213 0)
(0.948076 0.00920758 0)
(0.927047 0.00834996 0)
(0.906724 0.00762076 0)
(0.887253 0.00699562 0)
(0.868699 0.00645566 0)
(0.85108 0.00598632 0)
(0.834379 0.00557601 0)
(0.818562 0.00521535 0)
(0.803586 0.00489672 0)
(0.7894 0.00461389 0)
(0.775954 0.00436171 0)
(0.763198 0.00413597 0)
(0.751085 0.00393314 0)
(0.739568 0.00375028 0)
(0.728605 0.00358494 0)
(0.718157 0.00343505 0)
(0.708187 0.00329886 0)
(0.69866 0.0031749 0)
(0.689545 0.00306188 0)
(0.680814 0.00295872 0)
(0.672439 0.00286447 0)
(0.664395 0.00277829 0)
(0.65666 0.00269947 0)
(0.649212 0.00262721 0)
(0.642031 0.00256113 0)
(0.635101 0.00250009 0)
(0.628403 0.00244446 0)
(0.621925 0.00239172 0)
(0.615651 0.00234446 0)
(0.609569 0.00229596 0)
(0.60368 0.00225511 0)
(0.597946 0.0022037 0)
(0.592431 0.00216751 0)
(0.586995 0.00209896 0)
(0.581909 0.00206385 0)
(0.576696 0.00195251 0)
(0.572231 0.0018903 0)
(0.567146 0.00172022 0)
(0.563653 0.00139154 0)
(0.558845 0.00124146 0)
(0.556081 -0.00101898 0)
(1.00495 0.0373568 0)
(1.04727 0.0352589 0)
(1.06397 0.0246948 0)
(1.06424 0.0205996 0)
(1.06064 0.0177947 0)
(1.05468 0.0155203 0)
(1.04589 0.0139013 0)
(1.03465 0.0126432 0)
(1.02168 0.0115596 0)
(1.00758 0.0106096 0)
(0.992828 0.0097801 0)
(0.977761 0.00905406 0)
(0.96265 0.00841484 0)
(0.947685 0.00784934 0)
(0.933001 0.00734724 0)
(0.918686 0.00689999 0)
(0.904798 0.00650032 0)
(0.891368 0.00614207 0)
(0.878411 0.00581994 0)
(0.865928 0.00552946 0)
(0.853916 0.00526676 0)
(0.842361 0.00502858 0)
(0.83125 0.0048121 0)
(0.820564 0.00461492 0)
(0.810284 0.00443496 0)
(0.800393 0.00427046 0)
(0.790869 0.00411989 0)
(0.781695 0.0039819 0)
(0.77285 0.00385537 0)
(0.764318 0.00373927 0)
(0.75608 0.00363268 0)
(0.74812 0.00353484 0)
(0.740422 0.00344487 0)
(0.73297 0.00336234 0)
(0.725751 0.00328596 0)
(0.71875 0.00321613 0)
(0.711958 0.00315004 0)
(0.70536 0.00309046 0)
(0.698949 0.00303001 0)
(0.692719 0.00297825 0)
(0.686649 0.00291528 0)
(0.680777 0.00286872 0)
(0.675011 0.00278746 0)
(0.669537 0.00273986 0)
(0.664026 0.00261342 0)
(0.659094 0.00252673 0)
(0.653803 0.00233735 0)
(0.649666 0.00195384 0)
(0.644752 0.00172172 0)
(0.641184 -0.000327443 0)
(1.0044 0.034809 0)
(1.04323 0.0341859 0)
(1.05993 0.0240543 0)
(1.06227 0.0203067 0)
(1.06247 0.01786 0)
(1.06175 0.0158036 0)
(1.05915 0.0143588 0)
(1.05456 0.0132669 0)
(1.0483 0.0123264 0)
(1.04067 0.0114892 0)
(1.03197 0.0107447 0)
(1.02244 0.0100801 0)
(1.01231 0.00948272 0)
(1.00179 0.00894315 0)
(0.991032 0.00845448 0)
(0.980167 0.00801106 0)
(0.969295 0.00760802 0)
(0.958495 0.00724107 0)
(0.947823 0.00690642 0)
(0.937325 0.00660072 0)
(0.927029 0.00632101 0)
(0.916959 0.00606469 0)
(0.907127 0.00582946 0)
(0.897542 0.0056133 0)
(0.888207 0.00541443 0)
(0.879123 0.00523128 0)
(0.870286 0.00506251 0)
(0.861694 0.00490688 0)
(0.853339 0.00476336 0)
(0.845215 0.00463096 0)
(0.837316 0.00450884 0)
(0.829631 0.00439624 0)
(0.822154 0.00429229 0)
(0.814874 0.00419658 0)
(0.807786 0.00410777 0)
(0.800878 0.00402627 0)
(0.794146 0.00394914 0)
(0.787579 0.00387918 0)
(0.781174 0.00380872 0)
(0.774924 0.00374744 0)
(0.76882 0.00367485 0)
(0.762883 0.00361855 0)
(0.757057 0.00352722 0)
(0.751465 0.00346639 0)
(0.745893 0.00332918 0)
(0.740757 0.00321617 0)
(0.735441 0.00301169 0)
(0.730943 0.00258169 0)
(0.726018 0.00227315 0)
(0.721939 0.000435058 0)
(1.00402 0.0323689 0)
(1.03991 0.0331361 0)
(1.05616 0.0234317 0)
(1.05891 0.0199193 0)
(1.06019 0.0177309 0)
(1.06152 0.0158097 0)
(1.06187 0.0144666 0)
(1.06095 0.0134903 0)
(1.05884 0.0126666 0)
(1.05567 0.0119359 0)
(1.05153 0.0112852 0)
(1.04652 0.0107011 0)
(1.04078 0.010171 0)
(1.03442 0.00968642 0)
(1.02758 0.00924152 0)
(1.02036 0.0088321 0)
(1.01284 0.00845471 0)
(1.00513 0.00810642 0)
(0.997271 0.00778462 0)
(0.989336 0.00748703 0)
(0.981369 0.00721158 0)
(0.97341 0.00695643 0)
(0.96549 0.00671991 0)
(0.957633 0.00650054 0)
(0.94986 0.00629696 0)
(0.942186 0.00610797 0)
(0.934623 0.00593252 0)
(0.927179 0.00576963 0)
(0.91986 0.00561846 0)
(0.91267 0.00547819 0)
(0.905613 0.00534812 0)
(0.898687 0.0052276 0)
(0.891893 0.00511587 0)
(0.88523 0.00501255 0)
(0.878696 0.00491638 0)
(0.872287 0.00482777 0)
(0.866004 0.00474381 0)
(0.85984 0.00466722 0)
(0.853797 0.00459035 0)
(0.84787 0.00452257 0)
(0.842058 0.00444368 0)
(0.836372 0.00437987 0)
(0.830782 0.00428206 0)
(0.82537 0.00420927 0)
(0.819999 0.00406565 0)
(0.814946 0.00392788 0)
(0.809822 0.00371159 0)
(0.805257 0.0032467 0)
(0.800474 0.00287137 0)
(0.796176 0.00123622 0)
(1.00364 0.0300286 0)
(1.03692 0.0320888 0)
(1.05281 0.0228424 0)
(1.05567 0.0195149 0)
(1.0571 0.01754 0)
(1.05898 0.0157112 0)
(1.0604 0.0144161 0)
(1.06106 0.0135034 0)
(1.06103 0.012754 0)
(1.06034 0.0120982 0)
(1.05898 0.0115204 0)
(1.05698 0.0110059 0)
(1.05436 0.0105405 0)
(1.05118 0.0101147 0)
(1.0475 0.00972229 0)
(1.04338 0.009359 0)
(1.03887 0.00902166 0)
(1.03404 0.00870772 0)
(1.02893 0.00841511 0)
(1.0236 0.00814207 0)
(1.01809 0.00788706 0)
(1.01244 0.00764876 0)
(1.00669 0.00742598 0)
(1.00085 0.00721764 0)
(0.994963 0.0070228 0)
(0.989046 0.00684059 0)
(0.983118 0.00667025 0)
(0.977195 0.00651107 0)
(0.97129 0.00636245 0)
(0.965414 0.00622379 0)
(0.959577 0.00609454 0)
(0.953785 0.00597422 0)
(0.948046 0.0058622 0)
(0.942363 0.00575821 0)
(0.93674 0.0056611 0)
(0.93118 0.0055713 0)
(0.925686 0.00548602 0)
(0.920257 0.00540787 0)
(0.914899 0.00532939 0)
(0.90961 0.00525942 0)
(0.904393 0.00517862 0)
(0.899258 0.00511087 0)
(0.894189 0.00501097 0)
(0.889241 0.00492921 0)
(0.884332 0.00478371 0)
(0.87964 0.00462543 0)
(0.874933 0.00440059 0)
(0.870584 0.00391441 0)
(0.866124 0.00348545 0)
(0.861888 0.00203367 0)
(1.00327 0.0277889 0)
(1.03409 0.0310304 0)
(1.0497 0.0222797 0)
(1.05271 0.0191084 0)
(1.0541 0.0173303 0)
(1.05603 0.0155835 0)
(1.05773 0.0143109 0)
(1.05892 0.013429 0)
(1.0597 0.0127208 0)
(1.06012 0.0121091 0)
(1.06016 0.0115768 0)
(1.0598 0.0111093 0)
(1.05903 0.0106914 0)
(1.05787 0.0103122 0)
(1.05631 0.00996475 0)
(1.0544 0.00964408 0)
(1.05214 0.0093466 0)
(1.04956 0.00906956 0)
(1.0467 0.00881079 0)
(1.04358 0.00856854 0)
(1.04023 0.0083414 0)
(1.03668 0.00812819 0)
(1.03295 0.00792789 0)
(1.02906 0.00773964 0)
(1.02505 0.0075627 0)
(1.02093 0.00739639 0)
(1.01671 0.00724016 0)
(1.01242 0.00709348 0)
(1.00807 0.00695592 0)
(1.00367 0.00682704 0)
(0.99923 0.00670645 0)
(0.994768 0.00659382 0)
(0.990291 0.00648862 0)
(0.985804 0.00639072 0)
(0.981317 0.00629905 0)
(0.976833 0.00621411 0)
(0.97236 0.00613322 0)
(0.9679 0.00605888 0)
(0.963461 0.00598396 0)
(0.959045 0.00591658 0)
(0.954656 0.00583866 0)
(0.950304 0.00577121 0)
(0.945982 0.0056739 0)
(0.941729 0.00558721 0)
(0.937499 0.00544431 0)
(0.933399 0.00527152 0)
(0.929303 0.00504168 0)
(0.925412 0.0045483 0)
(0.921447 0.00408041 0)
(0.917517 0.0027954 0)
(1.00292 0.0256533 0)
(1.03138 0.0299562 0)
(1.0467 0.021739 0)
(1.04992 0.0187 0)
(1.05128 0.0171086 0)
(1.05318 0.0154488 0)
(1.05491 0.0141921 0)
(1.05621 0.0133263 0)
(1.05723 0.0126417 0)
(1.05804 0.0120544 0)
(1.05864 0.0115473 0)
(1.05902 0.0111067 0)
(1.05917 0.0107177 0)
(1.05907 0.0103688 0)
(1.05873 0.0100524 0)
(1.05814 0.0097629 0)
(1.0573 0.00949641 0)
(1.05623 0.00924973 0)
(1.05493 0.0090204 0)
(1.05341 0.00880644 0)
(1.05168 0.00860628 0)
(1.04976 0.00841864 0)
(1.04765 0.00824247 0)
(1.04539 0.00807688 0)
(1.04297 0.00792116 0)
(1.04041 0.00777466 0)
(1.03772 0.0076369 0)
(1.03493 0.0075074 0)
(1.03203 0.00738581 0)
(1.02904 0.00727177 0)
(1.02597 0.00716497 0)
(1.02284 0.00706515 0)
(1.01964 0.00697187 0)
(1.01638 0.00688506 0)
(1.01309 0.00680374 0)
(1.00975 0.00672845 0)
(1.00638 0.0066566 0)
(1.00299 0.00659059 0)
(0.999575 0.00652363 0)
(0.996146 0.00646302 0)
(0.992706 0.00639224 0)
(0.989266 0.00632904 0)
(0.985823 0.00623853 0)
(0.982404 0.00615112 0)
(0.978987 0.00601474 0)
(0.975631 0.00583408 0)
(0.972277 0.00560297 0)
(0.969009 0.00511532 0)
(0.965667 0.00462431 0)
(0.962227 0.00349024 0)
(1.0026 0.0236243 0)
(1.02879 0.0288651 0)
(1.04378 0.0212193 0)
(1.04723 0.0182894 0)
(1.0486 0.0168735 0)
(1.05046 0.0153096 0)
(1.05218 0.0140707 0)
(1.05349 0.0132164 0)
(1.05455 0.0125486 0)
(1.05545 0.011977 0)
(1.05623 0.011484 0)
(1.05687 0.0110581 0)
(1.05738 0.010685 0)
(1.05776 0.0103533 0)
(1.05799 0.0100552 0)
(1.05807 0.00978502 0)
(1.05801 0.00953865 0)
(1.05779 0.00931268 0)
(1.05742 0.00910439 0)
(1.0569 0.0089116 0)
(1.05622 0.00873255 0)
(1.0554 0.0085658 0)
(1.05443 0.00841015 0)
(1.05332 0.00826463 0)
(1.05208 0.00812842 0)
(1.05071 0.00800082 0)
(1.04922 0.0078813 0)
(1.04762 0.00776936 0)
(1.04591 0.00766461 0)
(1.0441 0.00756672 0)
(1.0422 0.00747536 0)
(1.04021 0.00739031 0)
(1.03814 0.00731111 0)
(1.036 0.00723776 0)
(1.03379 0.00716927 0)
(1.03152 0.00710621 0)
(1.0292 0.00704606 0)
(1.02682 0.00699104 0)
(1.02441 0.00693481 0)
(1.02195 0.00688371 0)
(1.01945 0.00682292 0)
(1.01693 0.00676682 0)
(1.01439 0.00668608 0)
(1.01183 0.00660146 0)
(1.00926 0.00647434 0)
(1.0067 0.006292 0)
(1.00413 0.00606301 0)
(1.00157 0.00559185 0)
(0.998903 0.005093 0)
(0.996054 0.00409497 0)
(1.0023 0.0217037 0)
(1.02634 0.0277579 0)
(1.04095 0.0207189 0)
(1.04462 0.0178783 0)
(1.04601 0.0166235 0)
(1.04784 0.0151644 0)
(1.04956 0.013948 0)
(1.05087 0.0131042 0)
(1.05191 0.0124517 0)
(1.05282 0.011893 0)
(1.05362 0.01141 0)
(1.05434 0.0109931 0)
(1.05496 0.0106291 0)
(1.0555 0.0103068 0)
(1.05596 0.0100188 0)
(1.05633 0.00975942 0)
(1.05662 0.00952459 0)
(1.05682 0.00931091 0)
(1.05692 0.00911559 0)
(1.05693 0.00893637 0)
(1.05685 0.00877138 0)
(1.05666 0.00861908 0)
(1.05638 0.00847817 0)
(1.056 0.00834757 0)
(1.05552 0.00822638 0)
(1.05494 0.00811382 0)
(1.05427 0.00800926 0)
(1.0535 0.00791216 0)
(1.05265 0.00782207 0)
(1.05171 0.0077386 0)
(1.05068 0.00766137 0)
(1.04957 0.00759016 0)
(1.04839 0.00752447 0)
(1.04713 0.00746428 0)
(1.04581 0.00740861 0)
(1.04442 0.00735796 0)
(1.04297 0.00730992 0)
(1.04146 0.00726645 0)
(1.0399 0.00722169 0)
(1.03829 0.00718095 0)
(1.03663 0.00713123 0)
(1.03494 0.00708346 0)
(1.03321 0.00701375 0)
(1.03144 0.00693417 0)
(1.02966 0.00681752 0)
(1.02785 0.00663839 0)
(1.02601 0.00641418 0)
(1.02413 0.00596736 0)
(1.02213 0.00547404 0)
(1.01989 0.00459815 0)
(1.00203 0.0198924 0)
(1.02401 0.0266376 0)
(1.03821 0.0202348 0)
(1.0421 0.0174685 0)
(1.04352 0.0163589 0)
(1.04531 0.0150118 0)
(1.04703 0.0138233 0)
(1.04834 0.0129902 0)
(1.04937 0.0123527 0)
(1.05026 0.0118071 0)
(1.05106 0.0113331 0)
(1.05178 0.0109232 0)
(1.05242 0.0105655 0)
(1.053 0.0102494 0)
(1.05352 0.00996722 0)
(1.05399 0.00971393 0)
(1.05441 0.00948549 0)
(1.05478 0.00927861 0)
(1.05509 0.00909058 0)
(1.05534 0.00891916 0)
(1.05554 0.00876249 0)
(1.05568 0.00861901 0)
(1.05576 0.00848738 0)
(1.05577 0.00836648 0)
(1.05572 0.00825536 0)
(1.05561 0.0081532 0)
(1.05542 0.0080593 0)
(1.05518 0.00797305 0)
(1.05486 0.00789396 0)
(1.05449 0.0078216 0)
(1.05404 0.00775552 0)
(1.05353 0.00769547 0)
(1.05297 0.0076409 0)
(1.05234 0.00759175 0)
(1.05165 0.00754703 0)
(1.0509 0.00750716 0)
(1.0501 0.00746984 0)
(1.04925 0.00743671 0)
(1.04835 0.00740244 0)
(1.04741 0.00737125 0)
(1.04641 0.00733195 0)
(1.04538 0.00729225 0)
(1.04431 0.00723319 0)
(1.0432 0.00715948 0)
(1.04206 0.00705303 0)
(1.04089 0.00688032 0)
(1.03968 0.00666263 0)
(1.03839 0.00624494 0)
(1.03696 0.00576774 0)
(1.03526 0.00500107 0)
(1.00179 0.0181906 0)
(1.02183 0.0255081 0)
(1.03557 0.019763 0)
(1.03966 0.0170618 0)
(1.04111 0.0160804 0)
(1.04287 0.014851 0)
(1.04459 0.0136962 0)
(1.0459 0.0128741 0)
(1.04692 0.0122518 0)
(1.0478 0.0117197 0)
(1.04859 0.011255 0)
(1.04929 0.0108519 0)
(1.04993 0.0104998 0)
(1.05051 0.0101885 0)
(1.05104 0.00991074 0)
(1.05153 0.00966149 0)
(1.05198 0.00943697 0)
(1.05239 0.00923407 0)
(1.05278 0.00905018 0)
(1.05312 0.00888314 0)
(1.05343 0.00873115 0)
(1.05371 0.00859269 0)
(1.05395 0.00846645 0)
(1.05415 0.00835131 0)
(1.05431 0.00824632 0)
(1.05443 0.00815064 0)
(1.0545 0.00806355 0)
(1.05454 0.00798443 0)
(1.05453 0.00791273 0)
(1.05447 0.00784799 0)
(1.05437 0.00778974 0)
(1.05423 0.00773768 0)
(1.05404 0.00769123 0)
(1.0538 0.00765029 0)
(1.05352 0.00761385 0)
(1.0532 0.00758226 0)
(1.05284 0.00755331 0)
(1.05243 0.00752832 0)
(1.05199 0.00750252 0)
(1.0515 0.00747903 0)
(1.05098 0.00744842 0)
(1.05042 0.00741546 0)
(1.04984 0.00736549 0)
(1.04921 0.00729739 0)
(1.04856 0.00719981 0)
(1.04786 0.00703521 0)
(1.04713 0.00682496 0)
(1.0463 0.0064385 0)
(1.04532 0.00598514 0)
(1.04407 0.00531559 0)
(1.00157 0.016598 0)
(1.01978 0.0243734 0)
(1.03304 0.0192996 0)
(1.03731 0.01666 0)
(1.0388 0.0157891 0)
(1.04052 0.0146812 0)
(1.04223 0.0135664 0)
(1.04355 0.0127559 0)
(1.04456 0.0121486 0)
(1.04543 0.0116308 0)
(1.0462 0.0111759 0)
(1.04689 0.0107797 0)
(1.04752 0.0104333 0)
(1.04809 0.0101267 0)
(1.04861 0.00985284 0)
(1.04909 0.00960697 0)
(1.04955 0.00938547 0)
(1.04997 0.00918539 0)
(1.05036 0.00900423 0)
(1.05074 0.00883994 0)
(1.05108 0.00869077 0)
(1.0514 0.00855526 0)
(1.0517 0.00843217 0)
(1.05197 0.00832041 0)
(1.05222 0.00821904 0)
(1.05244 0.00812724 0)
(1.05263 0.00804428 0)
(1.0528 0.00796955 0)
(1.05293 0.00790248 0)
(1.05304 0.00784261 0)
(1.05311 0.00778944 0)
(1.05316 0.00774265 0)
(1.05318 0.00770163 0)
(1.05316 0.00766627 0)
(1.05312 0.00763555 0)
(1.05304 0.00760971 0)
(1.05293 0.0075867 0)
(1.0528 0.0075675 0)
(1.05263 0.00754788 0)
(1.05244 0.00752995 0)
(1.05222 0.00750591 0)
(1.05197 0.00747797 0)
(1.0517 0.00743504 0)
(1.0514 0.00737172 0)
(1.05107 0.00728123 0)
(1.0507 0.00712532 0)
(1.05029 0.00692299 0)
(1.04978 0.00656795 0)
(1.04912 0.00614353 0)
(1.04819 0.00556005 0)
(1.00137 0.0151137 0)
(1.01787 0.0232374 0)
(1.03061 0.0188406 0)
(1.03504 0.0162646 0)
(1.03658 0.0154866 0)
(1.03827 0.0145018 0)
(1.03996 0.0134334 0)
(1.04128 0.0126355 0)
(1.04229 0.0120431 0)
(1.04315 0.0115401 0)
(1.04391 0.0110957 0)
(1.04459 0.0107068 0)
(1.0452 0.0103662 0)
(1.04576 0.0100643 0)
(1.04627 0.00979441 0)
(1.04674 0.00955182 0)
(1.04719 0.00933314 0)
(1.0476 0.00913553 0)
(1.04799 0.00895662 0)
(1.04836 0.00879444 0)
(1.04871 0.00864733 0)
(1.04904 0.00851387 0)
(1.04935 0.00839288 0)
(1.04964 0.00828331 0)
(1.04992 0.00818424 0)
(1.05017 0.00809488 0)
(1.0504 0.00801453 0)
(1.05062 0.00794256 0)
(1.05082 0.00787841 0)
(1.05099 0.00782162 0)
(1.05115 0.00777169 0)
(1.05128 0.00772827 0)
(1.05139 0.00769077 0)
(1.05148 0.00765903 0)
(1.05156 0.00763206 0)
(1.05161 0.00760999 0)
(1.05164 0.00759096 0)
(1.05164 0.00757558 0)
(1.05163 0.0075602 0)
(1.0516 0.00754598 0)
(1.05155 0.00752655 0)
(1.05148 0.00750208 0)
(1.05139 0.00746425 0)
(1.05128 0.0074048 0)
(1.05115 0.00731976 0)
(1.05097 0.00717261 0)
(1.05076 0.00697859 0)
(1.05044 0.00665405 0)
(1.04999 0.0062617 0)
(1.04927 0.00575455 0)
(1.0012 0.0137359 0)
(1.0161 0.0221044 0)
(1.02829 0.0183823 0)
(1.03287 0.0158767 0)
(1.03446 0.0151745 0)
(1.0361 0.0143122 0)
(1.03778 0.0132968 0)
(1.03911 0.0125131 0)
(1.04012 0.0119353 0)
(1.04096 0.0114476 0)
(1.04171 0.0110142 0)
(1.04238 0.010633 0)
(1.04298 0.0102983 0)
(1.04353 0.0100014 0)
(1.04403 0.00973559 0)
(1.04449 0.00949636 0)
(1.04492 0.0092805 0)
(1.04533 0.00908533 0)
(1.04571 0.00890858 0)
(1.04607 0.00874836 0)
(1.04641 0.00860306 0)
(1.04673 0.00847134 0)
(1.04704 0.00835205 0)
(1.04733 0.00824419 0)
(1.04761 0.00814687 0)
(1.04786 0.00805931 0)
(1.04811 0.00798083 0)
(1.04834 0.00791081 0)
(1.04855 0.0078487 0)
(1.04875 0.00779404 0)
(1.04893 0.00774631 0)
(1.04909 0.00770518 0)
(1.04925 0.00767005 0)
(1.04938 0.00764072 0)
(1.0495 0.00761626 0)
(1.04961 0.00759669 0)
(1.0497 0.00758031 0)
(1.04977 0.00756743 0)
(1.04984 0.0075549 0)
(1.04988 0.00754309 0)
(1.04992 0.00752683 0)
(1.04994 0.00750473 0)
(1.04994 0.00747051 0)
(1.04993 0.00741431 0)
(1.04989 0.00733357 0)
(1.04983 0.00719511 0)
(1.04971 0.00701002 0)
(1.0495 0.00671465 0)
(1.04916 0.00635611 0)
(1.04857 0.00591707 0)
(1.00104 0.0124626 0)
(1.01446 0.0209784 0)
(1.02608 0.0179214 0)
(1.03078 0.0154972 0)
(1.03243 0.0148549 0)
(1.03403 0.0141122 0)
(1.0357 0.0131561 0)
(1.03702 0.0123887 0)
(1.03803 0.011825 0)
(1.03887 0.011353 0)
(1.0396 0.0109313 0)
(1.04026 0.0105582 0)
(1.04085 0.0102297 0)
(1.04139 0.00993795 0)
(1.04188 0.00967633 0)
(1.04233 0.00944058 0)
(1.04275 0.00922764 0)
(1.04314 0.00903497 0)
(1.04352 0.00886041 0)
(1.04387 0.00870214 0)
(1.0442 0.00855863 0)
(1.04451 0.00842859 0)
(1.04481 0.00831091 0)
(1.0451 0.00820462 0)
(1.04536 0.00810887 0)
(1.04562 0.00802289 0)
(1.04586 0.007946 0)
(1.04608 0.00787761 0)
(1.0463 0.00781716 0)
(1.0465 0.0077642 0)
(1.04668 0.00771821 0)
(1.04686 0.00767885 0)
(1.04702 0.00764551 0)
(1.04716 0.00761798 0)
(1.0473 0.00759537 0)
(1.04742 0.00757759 0)
(1.04753 0.00756313 0)
(1.04764 0.00755199 0)
(1.04772 0.0075415 0)
(1.0478 0.00753136 0)
(1.04787 0.00751739 0)
(1.04793 0.00749707 0)
(1.04797 0.00746554 0)
(1.048 0.00741235 0)
(1.04801 0.00733537 0)
(1.04799 0.00720565 0)
(1.04792 0.00703039 0)
(1.04775 0.00676292 0)
(1.04746 0.00643907 0)
(1.04694 0.00606144 0)
(1.0009 0.0112908 0)
(1.01295 0.019864 0)
(1.02398 0.0174546 0)
(1.02877 0.0151265 0)
(1.03049 0.0145297 0)
(1.03205 0.0139013 0)
(1.03369 0.0130108 0)
(1.03502 0.0122622 0)
(1.03603 0.0117123 0)
(1.03686 0.0112562 0)
(1.03759 0.010847 0)
(1.03824 0.0104823 0)
(1.03882 0.0101603 0)
(1.03934 0.00987381 0)
(1.03982 0.00961656 0)
(1.04027 0.00938443 0)
(1.04068 0.0091745 0)
(1.04106 0.00898442 0)
(1.04142 0.00881212 0)
(1.04176 0.00865586 0)
(1.04209 0.00851418 0)
(1.04239 0.00838585 0)
(1.04268 0.00826979 0)
(1.04295 0.00816507 0)
(1.04322 0.00807086 0)
(1.04346 0.00798641 0)
(1.04369 0.00791106 0)
(1.04391 0.00784421 0)
(1.04412 0.00778531 0)
(1.04431 0.00773391 0)
(1.0445 0.00768949 0)
(1.04466 0.00765169 0)
(1.04482 0.00761993 0)
(1.04497 0.00759394 0)
(1.04511 0.0075729 0)
(1.04523 0.00755661 0)
(1.04535 0.00754372 0)
(1.04545 0.00753399 0)
(1.04555 0.00752515 0)
(1.04563 0.00751637 0)
(1.04571 0.00750425 0)
(1.04578 0.00748552 0)
(1.04583 0.00745628 0)
(1.04587 0.00740617 0)
(1.04589 0.00733295 0)
(1.04588 0.00721221 0)
(1.04582 0.0070479 0)
(1.04567 0.00680728 0)
(1.04539 0.00651845 0)
(1.0449 0.0061969 0)
(1.00078 0.010217 0)
(1.01157 0.0187655 0)
(1.02199 0.0169794 0)
(1.02685 0.0147646 0)
(1.02864 0.014201 0)
(1.03017 0.0136796 0)
(1.03178 0.0128601 0)
(1.03312 0.0121336 0)
(1.03412 0.0115974 0)
(1.03494 0.0111571 0)
(1.03566 0.010761 0)
(1.0363 0.0104053 0)
(1.03688 0.0100899 0)
(1.03739 0.00980892 0)
(1.03786 0.00955621 0)
(1.0383 0.00932783 0)
(1.0387 0.00912104 0)
(1.03907 0.00893363 0)
(1.03943 0.00876367 0)
(1.03976 0.00860949 0)
(1.04007 0.00846971 0)
(1.04037 0.00834313 0)
(1.04065 0.00822874 0)
(1.04091 0.00812564 0)
(1.04116 0.008033 0)
(1.0414 0.00795011 0)
(1.04163 0.0078763 0)
(1.04184 0.007811 0)
(1.04204 0.00775366 0)
(1.04222 0.0077038 0)
(1.0424 0.00766092 0)
(1.04256 0.00762464 0)
(1.04271 0.0075944 0)
(1.04285 0.00756989 0)
(1.04299 0.00755033 0)
(1.04311 0.00753544 0)
(1.04322 0.00752401 0)
(1.04332 0.00751561 0)
(1.04341 0.00750828 0)
(1.0435 0.00750083 0)
(1.04357 0.0074904 0)
(1.04364 0.00747336 0)
(1.04369 0.00744634 0)
(1.04373 0.0073996 0)
(1.04374 0.00733053 0)
(1.04373 0.00721915 0)
(1.04366 0.007067 0)
(1.0435 0.00685246 0)
(1.04322 0.00659856 0)
(1.04275 0.00632879 0)
(1.00067 0.00923704 0)
(1.01031 0.0176874 0)
(1.02012 0.0164934 0)
(1.02502 0.0144114 0)
(1.02689 0.013871 0)
(1.02838 0.0134475 0)
(1.02996 0.0127034 0)
(1.03129 0.0120027 0)
(1.0323 0.0114801 0)
(1.03312 0.0110556 0)
(1.03383 0.0106731 0)
(1.03446 0.010327 0)
(1.03503 0.0100186 0)
(1.03553 0.0097432 0)
(1.03599 0.0094952 0)
(1.03642 0.00927071 0)
(1.03681 0.00906717 0)
(1.03718 0.00888254 0)
(1.03752 0.008715 0)
(1.03785 0.00856298 0)
(1.03815 0.00842515 0)
(1.03844 0.0083004 0)
(1.03871 0.00818773 0)
(1.03897 0.00808629 0)
(1.03921 0.00799528 0)
(1.03944 0.00791399 0)
(1.03966 0.00784178 0)
(1.03986 0.00777807 0)
(1.04005 0.00772231 0)
(1.04023 0.00767403 0)
(1.0404 0.00763272 0)
(1.04056 0.00759799 0)
(1.0407 0.00756929 0)
(1.04084 0.00754626 0)
(1.04096 0.0075282 0)
(1.04107 0.00751472 0)
(1.04118 0.00750476 0)
(1.04127 0.00749772 0)
(1.04136 0.0074919 0)
(1.04144 0.00748587 0)
(1.04151 0.00747716 0)
(1.04157 0.00746203 0)
(1.04161 0.00743739 0)
(1.04164 0.00739442 0)
(1.04165 0.00733011 0)
(1.04162 0.00722855 0)
(1.04154 0.00708975 0)
(1.04137 0.00690072 0)
(1.04108 0.00668136 0)
(1.04061 0.0064598 0)
(1.00058 0.00834641 0)
(1.00916 0.0166341 0)
(1.01836 0.0159951 0)
(1.02327 0.0140662 0)
(1.02522 0.0135414 0)
(1.02668 0.0132054 0)
(1.02823 0.0125401 0)
(1.02956 0.0118694 0)
(1.03057 0.0113605 0)
(1.03138 0.0109517 0)
(1.03208 0.0105834 0)
(1.03271 0.0102473 0)
(1.03326 0.0099461 0)
(1.03376 0.00967657 0)
(1.03422 0.00943345 0)
(1.03463 0.00921299 0)
(1.03502 0.00901283 0)
(1.03538 0.00883107 0)
(1.03572 0.00866604 0)
(1.03603 0.00851625 0)
(1.03633 0.00838046 0)
(1.03661 0.00825759 0)
(1.03687 0.00814671 0)
(1.03712 0.00804699 0)
(1.03736 0.00795766 0)
(1.03758 0.00787803 0)
(1.03779 0.00780747 0)
(1.03799 0.0077454 0)
(1.03817 0.00769127 0)
(1.03834 0.00764462 0)
(1.0385 0.00760493 0)
(1.03865 0.00757179 0)
(1.03879 0.00754467 0)
(1.03892 0.00752319 0)
(1.03903 0.00750666 0)
(1.03914 0.00749466 0)
(1.03924 0.00748622 0)
(1.03933 0.00748062 0)
(1.03941 0.00747638 0)
(1.03948 0.00747192 0)
(1.03954 0.00746505 0)
(1.03959 0.00745209 0)
(1.03963 0.00743013 0)
(1.03964 0.00739138 0)
(1.03964 0.00733253 0)
(1.0396 0.00724129 0)
(1.0395 0.00711688 0)
(1.03932 0.00695291 0)
(1.03902 0.00676744 0)
(1.03856 0.00659103 0)
(1.0005 0.00754005 0)
(1.00813 0.0156097 0)
(1.01672 0.0154833 0)
(1.0216 0.0137281 0)
(1.02363 0.0132142 0)
(1.02507 0.0129543 0)
(1.02658 0.0123698 0)
(1.0279 0.0117332 0)
(1.02892 0.0112387 0)
(1.02972 0.0108452 0)
(1.03042 0.0104915 0)
(1.03104 0.0101661 0)
(1.03159 0.00987245 0)
(1.03208 0.00960894 0)
(1.03253 0.00937085 0)
(1.03294 0.00915459 0)
(1.03332 0.00895793 0)
(1.03367 0.00877916 0)