/*--------------------------------*- C++ -*----------------------------------*\
  =========                 |
  \\      /  F ield         | OpenFOAM: The Open Source CFD Toolbox
   \\    /   O peration     | Website:  https://openfoam.org
    \\  /    A nd           | Version:  7
     \\/     M anipulation  |
\*---------------------------------------------------------------------------*/
FoamFile
{
    version     2.0;
    format      ascii;
    class       volVectorField;
    location    "0.2";
    object      U_0;
}
// * * * * * * * * * * * * * * * * * * * * * * * * * * * * * * * * * * * * * //

dimensions      [0 1 -1 0 0 0 0];

internalField   nonuniform List<vector> 
70000
(
(0.55339 0.0167231 0)
(0.251255 0.00340112 0)
(0.166187 0.000322122 0)
(0.132429 5.43705e-05 0)
(0.117227 4.58082e-05 0)
(0.107293 5.39866e-05 0)
(0.0993334 4.63569e-05 0)
(0.0928826 3.70233e-05 0)
(0.0876272 3.07165e-05 0)
(0.0832466 2.63983e-05 0)
(0.0795122 2.31112e-05 0)
(0.0762755 2.04822e-05 0)
(0.073435 1.83419e-05 0)
(0.0709164 1.65769e-05 0)
(0.0686633 1.51032e-05 0)
(0.0666323 1.38583e-05 0)
(0.0647891 1.27959e-05 0)
(0.0631063 1.18811e-05 0)
(0.0615619 1.10872e-05 0)
(0.0601377 1.03935e-05 0)
(0.0588185 9.78359e-06 0)
(0.057592 9.24451e-06 0)
(0.0564473 8.76555e-06 0)
(0.0553756 8.33825e-06 0)
(0.0543689 7.95506e-06 0)
(0.0534207 7.61066e-06 0)
(0.0525252 7.29887e-06 0)
(0.0516771 7.01687e-06 0)
(0.0508722 6.75844e-06 0)
(0.0501064 6.52349e-06 0)
(0.0493765 6.30353e-06 0)
(0.0486791 6.10363e-06 0)
(0.048012 5.90772e-06 0)
(0.0473724 5.73149e-06 0)
(0.0467588 5.54343e-06 0)
(0.0461691 5.3765e-06 0)
(0.0456021 5.1769e-06 0)
(0.0450576 4.99112e-06 0)
(0.0445326 4.76407e-06 0)
(0.0440331 4.4794e-06 0)
(0.0435468 4.26008e-06 0)
(0.0431018 3.6038e-06 0)
(0.0426488 3.67811e-06 0)
(0.0422919 1.7082e-06 0)
(0.041853 3.2989e-06 0)
(0.0416827 -3.05523e-06 0)
(0.0411933 4.05971e-06 0)
(0.0414544 -1.57742e-05 0)
(0.0409933 1.35372e-05 0)
(0.038947 -0.00153653 0)
(0.884899 0.0431677 0)
(0.649707 0.0201949 0)
(0.49429 0.00659958 0)
(0.403607 0.00276904 0)
(0.354653 0.00155354 0)
(0.32332 0.00113321 0)
(0.299432 0.000912064 0)
(0.280206 0.000748239 0)
(0.264463 0.000625519 0)
(0.251309 0.000534956 0)
(0.240094 0.000466309 0)
(0.230373 0.000412389 0)
(0.221841 0.000368915 0)
(0.214273 0.000333215 0)
(0.207502 0.000303474 0)
(0.201397 0.000278391 0)
(0.195854 0.000257008 0)
(0.190794 0.000238609 0)
(0.186149 0.000222646 0)
(0.181864 0.000208698 0)
(0.177896 0.000196434 0)
(0.174206 0.000185592 0)
(0.170762 0.000175959 0)
(0.167537 0.000167364 0)
(0.164509 0.000159667 0)
(0.161656 0.000152752 0)
(0.158962 0.000146521 0)
(0.156411 0.000140894 0)
(0.15399 0.000135798 0)
(0.151687 0.000131178 0)
(0.149491 0.00012697 0)
(0.147393 0.000123145 0)
(0.145385 0.00011962 0)
(0.143459 0.000116414 0)
(0.14161 0.00011338 0)
(0.139831 0.000110626 0)
(0.138118 0.000107853 0)
(0.136469 0.00010536 0)
(0.134874 0.000102524 0)
(0.133349 9.99826e-05 0)
(0.131858 9.66073e-05 0)
(0.130473 9.33076e-05 0)
(0.129062 8.87738e-05 0)
(0.127893 8.26316e-05 0)
(0.126495 7.65896e-05 0)
(0.125773 6.0571e-05 0)
(0.124194 5.73949e-05 0)
(0.124482 -1.58268e-05 0)
(0.122789 0.000170823 0)
(0.121372 -0.00270547 0)
(0.991238 0.0499021 0)
(0.890341 0.0307208 0)
(0.762654 0.014601 0)
(0.656608 0.00798356 0)
(0.585242 0.0048891 0)
(0.535796 0.00347557 0)
(0.497886 0.00274025 0)
(0.467223 0.00224819 0)
(0.441862 0.00188543 0)
(0.420501 0.00161438 0)
(0.402194 0.00140764 0)
(0.386268 0.00124523 0)
(0.372249 0.00111436 0)
(0.359785 0.00100689 0)
(0.34861 0.000917329 0)
(0.338517 0.000841752 0)
(0.329342 0.00077729 0)
(0.320954 0.000721794 0)
(0.313246 0.000673623 0)
(0.306131 0.000631511 0)
(0.299536 0.000594462 0)
(0.2934 0.000561688 0)
(0.28767 0.000532554 0)
(0.282302 0.000506546 0)
(0.27726 0.000483243 0)
(0.272508 0.000462299 0)
(0.26802 0.000443424 0)
(0.26377 0.000426375 0)
(0.259735 0.000410942 0)
(0.255897 0.000396954 0)
(0.252237 0.000384238 0)
(0.24874 0.000372689 0)
(0.245393 0.000362113 0)
(0.242183 0.0003525 0)
(0.2391 0.000343533 0)
(0.236134 0.000335414 0)
(0.233275 0.000327453 0)
(0.230521 0.000320375 0)
(0.227856 0.000312554 0)
(0.2253 0.000305949 0)
(0.2228 0.00029682 0)
(0.220459 0.000289695 0)
(0.218082 0.000276631 0)
(0.216053 0.000266457 0)
(0.213693 0.000244852 0)
(0.212282 0.000221715 0)
(0.209659 0.000193136 0)
(0.209587 6.04389e-05 0)
(0.20664 0.000274974 0)
(0.206705 -0.00281815 0)
(1.0156 0.0489211 0)
(1.00596 0.035878 0)
(0.935929 0.0207971 0)
(0.852064 0.0135113 0)
(0.78208 0.00921552 0)
(0.726832 0.0067893 0)
(0.681699 0.00539185 0)
(0.643889 0.0044531 0)
(0.611815 0.00376004 0)
(0.584288 0.00323522 0)
(0.560367 0.00283026 0)
(0.539345 0.00250995 0)
(0.52069 0.00225072 0)
(0.503996 0.0020371 0)
(0.48895 0.00185852 0)
(0.475299 0.00170743 0)
(0.462845 0.00157827 0)
(0.451423 0.00146684 0)
(0.440898 0.00136995 0)
(0.431161 0.00128511 0)
(0.422116 0.00121036 0)
(0.413685 0.00114414 0)
(0.405801 0.0010852 0)
(0.398406 0.00103252 0)
(0.39145 0.000985262 0)
(0.38489 0.000942741 0)
(0.378687 0.000904381 0)
(0.372809 0.0008697 0)
(0.367226 0.000838284 0)
(0.361911 0.000809789 0)
(0.356842 0.000783888 0)
(0.351997 0.00076035 0)
(0.347358 0.000738839 0)
(0.342908 0.000719282 0)
(0.338632 0.000701153 0)
(0.334517 0.000684742 0)
(0.330551 0.000668879 0)
(0.326727 0.000654824 0)
(0.323026 0.000639636 0)
(0.319469 0.000627111 0)
(0.315994 0.000609801 0)
(0.312715 0.000597784 0)
(0.309411 0.000572774 0)
(0.306512 0.000559191 0)
(0.303252 0.000515482 0)
(0.301062 0.000488974 0)
(0.297546 0.000421532 0)
(0.296799 0.000243487 0)
(0.292898 0.000383715 0)
(0.29327 -0.00252229 0)
(1.01434 0.0460047 0)
(1.04753 0.0374923 0)
(1.02456 0.0241589 0)
(0.974713 0.017569 0)
(0.923357 0.0131336 0)
(0.876535 0.0102179 0)
(0.834318 0.00835475 0)
(0.796514 0.00703413 0)
(0.762893 0.0060251 0)
(0.733016 0.00523884 0)
(0.706368 0.00461858 0)
(0.682476 0.00412012 0)
(0.660938 0.00371197 0)
(0.64142 0.00337255 0)
(0.623644 0.00308667 0)
(0.607377 0.0028433 0)
(0.592427 0.00263415 0)
(0.578631 0.0024529 0)
(0.565852 0.00229469 0)
(0.553972 0.00215568 0)
(0.542894 0.00203282 0)
(0.532531 0.00192369 0)
(0.522809 0.0018263 0)
(0.513666 0.00173906 0)
(0.505045 0.00166064 0)
(0.496896 0.00158993 0)
(0.489177 0.00152603 0)
(0.48185 0.00146815 0)
(0.47488 0.00141564 0)
(0.468236 0.00136794 0)
(0.461892 0.00132454 0)
(0.455823 0.00128504 0)
(0.450006 0.00124896 0)
(0.444422 0.00121611 0)
(0.439053 0.00118575 0)
(0.433883 0.00115824 0)
(0.428897 0.00113189 0)
(0.424086 0.00110852 0)
(0.419429 0.00108376 0)
(0.414943 0.00106341 0)
(0.410568 0.00103591 0)
(0.406412 0.00101757 0)
(0.402257 0.00097848 0)
(0.398523 0.000960586 0)
(0.394465 0.000892322 0)
(0.391455 0.000860995 0)
(0.387239 0.000752259 0)
(0.385589 0.000532028 0)
(0.381166 0.000567487 0)
(0.380691 -0.00211291 0)
(1.00933 0.0429161 0)
(1.05527 0.0372679 0)
(1.05868 0.0253043 0)
(1.03634 0.019771 0)
(1.00703 0.0158258 0)
(0.975938 0.0129516 0)
(0.944358 0.0109764 0)
(0.913432 0.0094951 0)
(0.884014 0.00830583 0)
(0.856489 0.00733966 0)
(0.830935 0.00655191 0)
(0.807288 0.00590252 0)
(0.785423 0.00536006 0)
(0.765195 0.00490165 0)
(0.746455 0.00451048 0)
(0.72906 0.00417381 0)
(0.712879 0.00388182 0)
(0.697791 0.00362681 0)
(0.683689 0.0034027 0)
(0.670478 0.00320462 0)
(0.658074 0.00302866 0)
(0.646401 0.00287163 0)
(0.635393 0.00273093 0)
(0.62499 0.00260441 0)
(0.61514 0.00249028 0)
(0.605794 0.00238706 0)
(0.596912 0.0022935 0)
(0.588454 0.00220853 0)
(0.580388 0.00213126 0)
(0.57268 0.00206089 0)
(0.565303 0.00199674 0)
(0.558232 0.00193824 0)
(0.551445 0.00188473 0)
(0.544917 0.00183594 0)
(0.538633 0.00179089 0)
(0.532572 0.00174997 0)
(0.526722 0.00171103 0)
(0.521069 0.00167635 0)
(0.515595 0.00164025 0)
(0.510308 0.00161032 0)
(0.50516 0.00157123 0)
(0.500236 0.00154487 0)
(0.495354 0.00149094 0)
(0.490868 0.00146623 0)
(0.486148 0.00137482 0)
(0.482348 0.00133234 0)
(0.477616 0.00118884 0)
(0.474988 0.000918464 0)
(0.470321 0.000857079 0)
(0.468628 -0.00161153 0)
(1.00625 0.0400347 0)
(1.05206 0.0363407 0)
(1.06608 0.0252343 0)
(1.05958 0.0205723 0)
(1.04683 0.0172551 0)
(1.03071 0.0146749 0)
(1.01176 0.0128402 0)
(0.991023 0.0114165 0)
(0.969549 0.0102213 0)
(0.948075 0.00920759 0)
(0.927046 0.00834998 0)
(0.906723 0.0076208 0)
(0.887252 0.00699567 0)
(0.868698 0.00645574 0)
(0.851079 0.00598641 0)
(0.834378 0.00557611 0)
(0.818561 0.00521547 0)
(0.803584 0.00489685 0)
(0.789398 0.00461403 0)
(0.775952 0.00436186 0)
(0.763196 0.00413613 0)
(0.751082 0.0039333 0)
(0.739565 0.00375045 0)
(0.728601 0.00358512 0)
(0.718153 0.00343524 0)
(0.708182 0.00329906 0)
(0.698654 0.0031751 0)
(0.689539 0.0030621 0)
(0.680807 0.00295896 0)
(0.672432 0.00286473 0)
(0.664388 0.00277857 0)
(0.656651 0.00269979 0)
(0.649203 0.00262756 0)
(0.642021 0.00256153 0)
(0.635091 0.00250054 0)
(0.628392 0.00244499 0)
(0.621912 0.00239233 0)
(0.615638 0.00234516 0)
(0.609554 0.00229679 0)
(0.603663 0.0022561 0)
(0.597928 0.00220488 0)
(0.59241 0.00216894 0)
(0.586972 0.00210072 0)
(0.581883 0.00206604 0)
(0.576666 0.00195522 0)
(0.572196 0.0018939 0)
(0.567104 0.0017246 0)
(0.563604 0.00139782 0)
(0.558786 0.00124945 0)
(0.55601 -0.00100724 0)
(1.00495 0.0373568 0)
(1.04727 0.0352589 0)
(1.06397 0.0246949 0)
(1.06424 0.0205997 0)
(1.06064 0.0177948 0)
(1.05468 0.0155203 0)
(1.04589 0.0139013 0)
(1.03465 0.0126432 0)
(1.02168 0.0115596 0)
(1.00758 0.0106096 0)
(0.992827 0.00978012 0)
(0.977761 0.0090541 0)
(0.962649 0.00841489 0)
(0.947684 0.00784942 0)
(0.933 0.00734734 0)
(0.918685 0.00690011 0)
(0.904797 0.00650046 0)
(0.891367 0.00614222 0)
(0.878409 0.00582011 0)
(0.865927 0.00552964 0)
(0.853914 0.00526696 0)
(0.842359 0.00502879 0)
(0.831247 0.00481232 0)
(0.82056 0.00461514 0)
(0.81028 0.0044352 0)
(0.800388 0.0042707 0)
(0.790864 0.00412014 0)
(0.781689 0.00398218 0)
(0.772844 0.00385567 0)
(0.764311 0.00373959 0)
(0.756073 0.00363304 0)
(0.748112 0.00353524 0)
(0.740413 0.00344531 0)
(0.73296 0.00336283 0)
(0.725741 0.00328652 0)
(0.718739 0.00321677 0)
(0.711946 0.00315078 0)
(0.705347 0.00309132 0)
(0.698934 0.00303101 0)
(0.692702 0.00297944 0)
(0.686631 0.0029167 0)
(0.680756 0.00287044 0)
(0.674987 0.00278957 0)
(0.66951 0.00274249 0)
(0.663996 0.00261666 0)
(0.659059 0.00253101 0)
(0.653762 0.00234262 0)
(0.649618 0.00196125 0)
(0.644694 0.00173134 0)
(0.641114 -0.000313247 0)
(1.0044 0.034809 0)
(1.04323 0.034186 0)
(1.05993 0.0240543 0)
(1.06227 0.0203067 0)
(1.06246 0.0178601 0)
(1.06175 0.0158037 0)
(1.05915 0.0143588 0)
(1.05456 0.0132669 0)
(1.0483 0.0123264 0)
(1.04067 0.0114892 0)
(1.03196 0.0107448 0)
(1.02243 0.0100802 0)
(1.01231 0.00948277 0)
(1.00179 0.00894322 0)
(0.991031 0.00845458 0)
(0.980166 0.00801119 0)
(0.969294 0.00760817 0)
(0.958493 0.00724124 0)
(0.947822 0.00690661 0)
(0.937323 0.00660093 0)
(0.927027 0.00632124 0)
(0.916957 0.00606494 0)
(0.907124 0.00582972 0)
(0.897539 0.00561357 0)
(0.888203 0.00541471 0)
(0.879119 0.00523158 0)
(0.870282 0.00506282 0)
(0.861689 0.00490722 0)
(0.853333 0.00476372 0)
(0.845209 0.00463135 0)
(0.837309 0.00450927 0)
(0.829623 0.00439671 0)
(0.822145 0.00429282 0)
(0.814865 0.00419716 0)
(0.807776 0.00410844 0)
(0.800867 0.00402703 0)
(0.794134 0.00395001 0)
(0.787566 0.00388019 0)
(0.781159 0.0038099 0)
(0.774908 0.00374884 0)
(0.768802 0.00367653 0)
(0.762863 0.00362057 0)
(0.757034 0.00352968 0)
(0.751439 0.00346946 0)
(0.745864 0.00333297 0)
(0.740723 0.00322113 0)
(0.735402 0.00301786 0)
(0.730896 0.00259021 0)
(0.725962 0.00228434 0)
(0.721872 0.000451309 0)
(1.00402 0.0323689 0)
(1.03991 0.0331361 0)
(1.05616 0.0234317 0)
(1.05891 0.0199194 0)
(1.06019 0.017731 0)
(1.06152 0.0158097 0)
(1.06187 0.0144666 0)
(1.06094 0.0134904 0)
(1.05884 0.0126666 0)
(1.05567 0.0119359 0)
(1.05153 0.0112852 0)
(1.04652 0.0107011 0)
(1.04078 0.0101711 0)
(1.03442 0.0096865 0)
(1.02758 0.00924162 0)
(1.02036 0.00883222 0)
(1.01284 0.00845487 0)
(1.00513 0.0081066 0)
(0.99727 0.00778483 0)
(0.989335 0.00748726 0)
(0.981368 0.00721183 0)
(0.973408 0.00695671 0)
(0.965487 0.00672021 0)
(0.95763 0.00650085 0)
(0.949857 0.00629729 0)
(0.942183 0.00610832 0)
(0.934619 0.0059329 0)
(0.927174 0.00577003 0)
(0.919855 0.00561888 0)
(0.912665 0.00547865 0)
(0.905606 0.00534862 0)
(0.89868 0.00522816 0)
(0.891886 0.00511648 0)
(0.885221 0.00501324 0)
(0.878687 0.00491716 0)
(0.872277 0.00482866 0)
(0.865993 0.00474482 0)
(0.859827 0.0046684 0)
(0.853783 0.00459172 0)
(0.847855 0.00452419 0)
(0.84204 0.00444561 0)
(0.836352 0.00438218 0)
(0.83076 0.00428488 0)
(0.825345 0.00421277 0)
(0.819971 0.00406998 0)
(0.814914 0.0039335 0)
(0.809785 0.00371864 0)
(0.805213 0.0032563 0)
(0.800422 0.00288408 0)
(0.796114 0.00125398 0)
(1.00364 0.0300286 0)
(1.03692 0.0320889 0)
(1.05281 0.0228425 0)
(1.05567 0.0195149 0)
(1.0571 0.0175401 0)
(1.05898 0.0157113 0)
(1.0604 0.0144161 0)
(1.06106 0.0135035 0)
(1.06103 0.012754 0)
(1.06034 0.0120983 0)
(1.05898 0.0115205 0)
(1.05698 0.0110059 0)
(1.05436 0.0105406 0)
(1.05118 0.0101148 0)
(1.0475 0.00972238 0)
(1.04338 0.00935912 0)
(1.03887 0.00902181 0)
(1.03404 0.00870791 0)
(1.02893 0.00841533 0)
(1.0236 0.00814232 0)
(1.01809 0.00788734 0)
(1.01244 0.00764907 0)
(1.00668 0.00742631 0)
(1.00085 0.00721799 0)
(0.994961 0.00702317 0)
(0.989043 0.00684099 0)
(0.983115 0.00667067 0)
(0.977191 0.00651153 0)
(0.971285 0.00636294 0)
(0.965409 0.00622432 0)
(0.959571 0.00609511 0)
(0.953779 0.00597485 0)
(0.948039 0.0058629 0)
(0.942355 0.005759 0)
(0.936732 0.00566198 0)
(0.93117 0.00557231 0)
(0.925676 0.00548717 0)
(0.920246 0.0054092 0)
(0.914886 0.00533094 0)
(0.909596 0.00526125 0)
(0.904377 0.00518079 0)
(0.89924 0.00511348 0)
(0.894169 0.00501414 0)
(0.889218 0.00493314 0)
(0.884306 0.00478856 0)
(0.87961 0.00463169 0)
(0.874898 0.00440847 0)
(0.870543 0.00392503 0)
(0.866076 0.00349954 0)
(0.861831 0.00205315 0)
(1.00327 0.027789 0)
(1.03409 0.0310305 0)
(1.0497 0.0222797 0)
(1.05271 0.0191085 0)
(1.0541 0.0173304 0)
(1.05603 0.0155836 0)
(1.05773 0.0143109 0)
(1.05892 0.0134291 0)
(1.0597 0.0127209 0)
(1.06012 0.0121091 0)
(1.06016 0.0115769 0)
(1.0598 0.0111093 0)
(1.05903 0.0106914 0)
(1.05787 0.0103123 0)
(1.05631 0.00996484 0)
(1.0544 0.00964419 0)
(1.05214 0.00934675 0)
(1.04956 0.00906975 0)
(1.0467 0.00881101 0)
(1.04358 0.0085688 0)
(1.04023 0.0083417 0)
(1.03667 0.00812851 0)
(1.03294 0.00792825 0)
(1.02906 0.00774003 0)
(1.02505 0.00756311 0)
(1.02092 0.00739683 0)
(1.01671 0.00724063 0)
(1.01242 0.00709399 0)
(1.00806 0.00695647 0)
(1.00366 0.00682763 0)
(0.999225 0.0067071 0)
(0.994763 0.00659453 0)
(0.990285 0.00648941 0)
(0.985798 0.0063916 0)
(0.98131 0.00630004 0)
(0.976825 0.00621524 0)
(0.972351 0.00613451 0)
(0.96789 0.00606037 0)
(0.96345 0.00598569 0)
(0.959032 0.00591861 0)
(0.954641 0.00584107 0)
(0.950288 0.0057741 0)
(0.945964 0.0056774 0)
(0.941708 0.00559154 0)
(0.937475 0.00544966 0)
(0.933372 0.00527839 0)
(0.929272 0.00505034 0)
(0.925375 0.00455985 0)
(0.921403 0.00409574 0)
(0.917466 0.00281639 0)
(1.00292 0.0256533 0)
(1.03138 0.0299563 0)
(1.0467 0.0217391 0)
(1.04992 0.0187001 0)
(1.05128 0.0171087 0)
(1.05318 0.0154489 0)
(1.05491 0.0141922 0)
(1.05621 0.0133264 0)
(1.05723 0.0126418 0)
(1.05804 0.0120545 0)
(1.05864 0.0115473 0)
(1.05902 0.0111068 0)
(1.05916 0.0107178 0)
(1.05907 0.0103689 0)
(1.05872 0.0100524 0)
(1.05814 0.00976301 0)
(1.0573 0.00949655 0)
(1.05623 0.00924991 0)
(1.05493 0.00902062 0)
(1.0534 0.0088067 0)
(1.05168 0.00860658 0)
(1.04975 0.00841898 0)
(1.04765 0.00824284 0)
(1.04539 0.00807729 0)
(1.04297 0.0079216 0)
(1.04041 0.00777515 0)
(1.03772 0.00763742 0)
(1.03493 0.00750797 0)
(1.03203 0.00738642 0)
(1.02904 0.00727243 0)
(1.02597 0.00716569 0)
(1.02283 0.00706594 0)
(1.01963 0.00697274 0)
(1.01638 0.00688604 0)
(1.01308 0.00680484 0)
(1.00974 0.00672969 0)
(1.00638 0.00665802 0)
(1.00298 0.00659222 0)
(0.999565 0.00652552 0)
(0.996134 0.00646525 0)
(0.992693 0.00639487 0)
(0.989251 0.0063322 0)
(0.985807 0.00624236 0)
(0.982385 0.00615584 0)
(0.978965 0.00602055 0)
(0.975606 0.00584151 0)
(0.972248 0.00561235 0)
(0.968976 0.00512773 0)
(0.965629 0.00464073 0)
(0.962182 0.00351253 0)
(1.0026 0.0236243 0)
(1.02879 0.0288652 0)
(1.04378 0.0212194 0)
(1.04723 0.0182895 0)
(1.0486 0.0168736 0)
(1.05046 0.0153097 0)
(1.05218 0.0140708 0)
(1.05349 0.0132165 0)
(1.05454 0.0125487 0)
(1.05545 0.011977 0)
(1.05622 0.0114841 0)
(1.05687 0.0110582 0)
(1.05738 0.0106851 0)
(1.05775 0.0103534 0)
(1.05799 0.0100552 0)
(1.05807 0.00978511 0)
(1.05801 0.00953878 0)
(1.05779 0.00931285 0)
(1.05742 0.0091046 0)
(1.0569 0.00891186 0)
(1.05622 0.00873285 0)
(1.0554 0.00856614 0)
(1.05443 0.00841054 0)
(1.05332 0.00826506 0)
(1.05208 0.00812889 0)
(1.05071 0.00800134 0)
(1.04922 0.00788186 0)
(1.04762 0.00776997 0)
(1.04591 0.00766527 0)
(1.0441 0.00756744 0)
(1.04219 0.00747614 0)
(1.0402 0.00739117 0)
(1.03814 0.00731207 0)
(1.03599 0.00723882 0)
(1.03379 0.00717047 0)
(1.03152 0.00710755 0)
(1.02919 0.0070476 0)
(1.02682 0.00699281 0)
(1.0244 0.00693686 0)
(1.02194 0.00688612 0)
(1.01944 0.00682577 0)
(1.01692 0.00677023 0)
(1.01437 0.0066902 0)
(1.01182 0.00660653 0)
(1.00924 0.00648058 0)
(1.00668 0.00629993 0)
(1.00411 0.00607304 0)
(1.00154 0.00560501 0)
(0.99887 0.00511035 0)
(0.996016 0.00411833 0)
(1.0023 0.0217037 0)
(1.02634 0.0277579 0)
(1.04095 0.020719 0)
(1.04462 0.0178784 0)
(1.04601 0.0166237 0)
(1.04784 0.0151645 0)
(1.04956 0.0139481 0)
(1.05087 0.0131043 0)
(1.05191 0.0124518 0)
(1.05282 0.0118931 0)
(1.05362 0.0114101 0)
(1.05434 0.0109931 0)
(1.05496 0.0106291 0)
(1.0555 0.0103069 0)
(1.05596 0.0100188 0)
(1.05633 0.0097595 0)
(1.05662 0.00952472 0)
(1.05682 0.00931107 0)
(1.05692 0.0091158 0)
(1.05693 0.00893662 0)
(1.05685 0.00877168 0)
(1.05666 0.00861942 0)
(1.05638 0.00847856 0)
(1.056 0.00834801 0)
(1.05552 0.00822687 0)
(1.05494 0.00811436 0)
(1.05427 0.00800986 0)
(1.0535 0.00791281 0)
(1.05265 0.00782277 0)
(1.0517 0.00773937 0)
(1.05068 0.00766222 0)
(1.04957 0.00759109 0)
(1.04839 0.0075255 0)
(1.04713 0.00746543 0)
(1.0458 0.00740989 0)
(1.04441 0.0073594 0)
(1.04296 0.00731157 0)
(1.04145 0.00726835 0)
(1.03989 0.00722389 0)
(1.03828 0.00718353 0)
(1.03662 0.00713427 0)
(1.03493 0.0070871 0)
(1.03319 0.00701814 0)
(1.03143 0.00693956 0)
(1.02964 0.00682415 0)
(1.02783 0.00664677 0)
(1.02599 0.00642478 0)
(1.02411 0.00598117 0)
(1.0221 0.00549215 0)
(1.01985 0.00462234 0)
(1.00203 0.0198925 0)
(1.02401 0.0266376 0)
(1.03821 0.0202349 0)
(1.0421 0.0174686 0)
(1.04352 0.016359 0)
(1.04531 0.015012 0)
(1.04703 0.0138235 0)
(1.04834 0.0129903 0)
(1.04937 0.0123529 0)
(1.05026 0.0118072 0)
(1.05106 0.0113332 0)
(1.05178 0.0109233 0)
(1.05242 0.0105656 0)
(1.053 0.0102494 0)
(1.05352 0.00996727 0)
(1.05399 0.00971401 0)
(1.05441 0.0094856 0)
(1.05478 0.00927876 0)
(1.05509 0.00909078 0)
(1.05534 0.00891941 0)
(1.05554 0.00876279 0)
(1.05568 0.00861936 0)
(1.05576 0.00848778 0)
(1.05577 0.00836694 0)
(1.05572 0.00825588 0)
(1.0556 0.00815377 0)
(1.05542 0.00805992 0)
(1.05518 0.00797374 0)
(1.05486 0.00789471 0)
(1.05448 0.00782242 0)
(1.05404 0.00775642 0)
(1.05353 0.00769646 0)
(1.05296 0.00764199 0)
(1.05233 0.00759297 0)
(1.05164 0.0075484 0)
(1.0509 0.00750871 0)
(1.0501 0.0074716 0)
(1.04925 0.00743873 0)
(1.04835 0.00740478 0)
(1.0474 0.00737399 0)
(1.0464 0.00733519 0)
(1.04537 0.00729611 0)
(1.0443 0.00723783 0)
(1.04319 0.00716516 0)
(1.04205 0.00706001 0)
(1.04087 0.00688912 0)
(1.03966 0.00667372 0)
(1.03836 0.0062593 0)
(1.03693 0.00578647 0)
(1.03524 0.00502587 0)
(1.00179 0.0181907 0)
(1.02183 0.0255082 0)
(1.03557 0.0197631 0)
(1.03966 0.0170619 0)
(1.04111 0.0160805 0)
(1.04287 0.0148511 0)
(1.04459 0.0136964 0)
(1.0459 0.0128742 0)
(1.04692 0.0122519 0)
(1.0478 0.0117199 0)
(1.04858 0.0112551 0)
(1.04929 0.0108519 0)
(1.04992 0.0104999 0)
(1.0505 0.0101886 0)
(1.05104 0.00991078 0)
(1.05153 0.00966156 0)
(1.05198 0.00943707 0)
(1.05239 0.00923421 0)
(1.05278 0.00905037 0)
(1.05312 0.00888338 0)
(1.05343 0.00873145 0)
(1.05371 0.00859304 0)
(1.05395 0.00846686 0)
(1.05415 0.00835178 0)
(1.05431 0.00824685 0)
(1.05443 0.00815123 0)
(1.0545 0.00806421 0)
(1.05454 0.00798515 0)
(1.05453 0.00791352 0)
(1.05447 0.00784886 0)
(1.05437 0.00779069 0)
(1.05422 0.00773873 0)
(1.05403 0.00769239 0)
(1.0538 0.00765158 0)
(1.05352 0.0076153 0)
(1.0532 0.00758389 0)
(1.05283 0.00755517 0)
(1.05242 0.00753046 0)
(1.05198 0.00750499 0)
(1.05149 0.00748191 0)
(1.05097 0.00745183 0)
(1.05041 0.00741952 0)
(1.04982 0.00737037 0)
(1.0492 0.00730335 0)
(1.04854 0.00720711 0)
(1.04785 0.00704436 0)
(1.04711 0.00683648 0)
(1.04628 0.00645333 0)
(1.0453 0.00600435 0)
(1.04405 0.00534082 0)
(1.00157 0.016598 0)
(1.01978 0.0243735 0)
(1.03304 0.0192997 0)
(1.03731 0.0166602 0)
(1.0388 0.0157892 0)
(1.04052 0.0146813 0)
(1.04223 0.0135665 0)
(1.04355 0.012756 0)
(1.04456 0.0121488 0)
(1.04543 0.011631 0)
(1.0462 0.011176 0)
(1.04689 0.0107798 0)
(1.04752 0.0104334 0)
(1.04808 0.0101267 0)
(1.04861 0.00985287 0)
(1.04909 0.00960702 0)
(1.04954 0.00938556 0)
(1.04997 0.00918552 0)
(1.05036 0.00900442 0)
(1.05073 0.00884017 0)
(1.05108 0.00869106 0)
(1.0514 0.00855562 0)
(1.0517 0.00843259 0)
(1.05197 0.00832089 0)
(1.05222 0.00821959 0)
(1.05244 0.00812785 0)
(1.05263 0.00804496 0)
(1.05279 0.0079703 0)
(1.05293 0.00790331 0)
(1.05304 0.00784352 0)
(1.05311 0.00779044 0)
(1.05316 0.00774375 0)
(1.05317 0.00770286 0)
(1.05316 0.00766763 0)
(1.05311 0.00763707 0)
(1.05304 0.00761143 0)
(1.05293 0.00758866 0)
(1.05279 0.00756974 0)
(1.05263 0.00755048 0)
(1.05243 0.00753298 0)
(1.05221 0.00750947 0)
(1.05196 0.00748221 0)
(1.05169 0.00744014 0)
(1.05138 0.00737792 0)
(1.05106 0.00728882 0)
(1.05068 0.00713481 0)
(1.05027 0.00693489 0)
(1.04976 0.00658317 0)
(1.0491 0.00616311 0)
(1.04817 0.00558553 0)
(1.00137 0.0151137 0)
(1.01787 0.0232375 0)
(1.03061 0.0188407 0)
(1.03504 0.0162648 0)
(1.03658 0.0154867 0)
(1.03827 0.014502 0)
(1.03996 0.0134335 0)
(1.04128 0.0126357 0)
(1.04229 0.0120433 0)
(1.04315 0.0115403 0)
(1.04391 0.0110958 0)
(1.04459 0.0107069 0)
(1.0452 0.0103662 0)
(1.04576 0.0100644 0)
(1.04627 0.00979444 0)
(1.04674 0.00955187 0)
(1.04719 0.00933322 0)
(1.0476 0.00913565 0)
(1.04799 0.0089568 0)
(1.04836 0.00879467 0)
(1.04871 0.00864762 0)
(1.04904 0.00851423 0)
(1.04935 0.0083933 0)
(1.04964 0.0082838 0)
(1.04991 0.0081848 0)
(1.05017 0.00809552 0)
(1.0504 0.00801524 0)
(1.05062 0.00794334 0)
(1.05081 0.00787928 0)
(1.05099 0.00782258 0)
(1.05114 0.00777274 0)
(1.05128 0.00772943 0)
(1.05139 0.00769206 0)
(1.05148 0.00766045 0)
(1.05155 0.00763366 0)
(1.0516 0.0076118 0)
(1.05163 0.00759301 0)
(1.05164 0.00757793 0)
(1.05163 0.00756292 0)
(1.0516 0.00754914 0)
(1.05154 0.00753027 0)
(1.05147 0.0075065 0)
(1.05138 0.00746955 0)
(1.05127 0.00741124 0)
(1.05113 0.00732762 0)
(1.05096 0.00718238 0)
(1.05074 0.00699082 0)
(1.05043 0.00666959 0)
(1.04997 0.00628155 0)
(1.04925 0.00578016 0)
(1.0012 0.013736 0)
(1.0161 0.0221044 0)
(1.02829 0.0183824 0)
(1.03287 0.0158769 0)
(1.03446 0.0151747 0)
(1.0361 0.0143124 0)
(1.03778 0.013297 0)
(1.03911 0.0125133 0)
(1.04012 0.0119355 0)
(1.04096 0.0114477 0)
(1.04171 0.0110143 0)
(1.04238 0.0106331 0)
(1.04298 0.0102984 0)
(1.04352 0.0100015 0)
(1.04402 0.00973561 0)
(1.04449 0.0094964 0)
(1.04492 0.00928057 0)
(1.04532 0.00908545 0)
(1.04571 0.00890875 0)
(1.04607 0.00874858 0)
(1.04641 0.00860335 0)
(1.04673 0.0084717 0)
(1.04704 0.00835248 0)
(1.04733 0.0082447 0)
(1.0476 0.00814745 0)
(1.04786 0.00805997 0)
(1.04811 0.00798157 0)
(1.04834 0.00791163 0)
(1.04855 0.00784961 0)
(1.04874 0.00779504 0)
(1.04893 0.00774741 0)
(1.04909 0.0077064 0)
(1.04924 0.0076714 0)
(1.04938 0.00764222 0)
(1.0495 0.00761794 0)
(1.0496 0.00759858 0)
(1.04969 0.00758245 0)
(1.04977 0.00756988 0)
(1.04983 0.00755773 0)
(1.04988 0.00754638 0)
(1.04991 0.00753071 0)
(1.04993 0.00750933 0)
(1.04993 0.007476 0)
(1.04992 0.00742097 0)
(1.04988 0.00734169 0)
(1.04981 0.00720515 0)
(1.0497 0.00702253 0)
(1.04949 0.00673045 0)
(1.04914 0.00637616 0)
(1.04855 0.00594269 0)
(1.00104 0.0124626 0)
(1.01446 0.0209785 0)
(1.02608 0.0179215 0)
(1.03078 0.0154974 0)
(1.03243 0.014855 0)
(1.03403 0.0141124 0)
(1.03569 0.0131564 0)
(1.03702 0.0123889 0)
(1.03803 0.0118252 0)
(1.03886 0.0113531 0)
(1.0396 0.0109315 0)
(1.04026 0.0105583 0)
(1.04085 0.0102298 0)
(1.04139 0.00993797 0)
(1.04188 0.00967634 0)
(1.04233 0.00944061 0)
(1.04275 0.0092277 0)
(1.04314 0.00903507 0)
(1.04352 0.00886057 0)
(1.04387 0.00870236 0)
(1.0442 0.00855892 0)
(1.04451 0.00842895 0)
(1.04481 0.00831135 0)
(1.04509 0.00820514 0)
(1.04536 0.00810947 0)
(1.04562 0.00802357 0)
(1.04586 0.00794677 0)
(1.04608 0.00787847 0)
(1.0463 0.00781811 0)
(1.04649 0.00776525 0)
(1.04668 0.00771937 0)
(1.04685 0.00768012 0)
(1.04701 0.00764692 0)
(1.04716 0.00761955 0)
(1.04729 0.00759712 0)
(1.04742 0.00757956 0)
(1.04753 0.00756536 0)
(1.04763 0.00755454 0)
(1.04772 0.00754445 0)
(1.0478 0.00753479 0)
(1.04786 0.00752142 0)
(1.04792 0.00750184 0)
(1.04796 0.00747123 0)
(1.04799 0.00741923 0)
(1.048 0.00734373 0)
(1.04797 0.00721595 0)
(1.0479 0.00704315 0)
(1.04774 0.00677894 0)
(1.04744 0.00645924 0)
(1.04692 0.00608699 0)
(1.0009 0.0112908 0)
(1.01295 0.0198641 0)
(1.02398 0.0174547 0)
(1.02877 0.0151267 0)
(1.03049 0.0145299 0)
(1.03205 0.0139015 0)
(1.03369 0.013011 0)
(1.03502 0.0122625 0)
(1.03603 0.0117126 0)
(1.03686 0.0112564 0)
(1.03759 0.0108471 0)
(1.03824 0.0104824 0)
(1.03882 0.0101603 0)
(1.03934 0.00987381 0)
(1.03982 0.00961656 0)
(1.04026 0.00938444 0)
(1.04068 0.00917455 0)
(1.04106 0.00898451 0)
(1.04142 0.00881227 0)
(1.04176 0.00865608 0)
(1.04209 0.00851447 0)
(1.04239 0.00838621 0)
(1.04268 0.00827024 0)
(1.04295 0.0081656 0)
(1.04321 0.00807148 0)
(1.04346 0.00798712 0)
(1.04369 0.00791186 0)
(1.04391 0.0078451 0)
(1.04412 0.0077863 0)
(1.04431 0.00773501 0)
(1.04449 0.0076907 0)
(1.04466 0.00765303 0)
(1.04482 0.00762141 0)
(1.04497 0.00759558 0)
(1.0451 0.00757473 0)
(1.04523 0.00755866 0)
(1.04534 0.00754605 0)
(1.04545 0.00753665 0)
(1.04554 0.00752822 0)
(1.04563 0.00751994 0)
(1.0457 0.00750842 0)
(1.04577 0.00749046 0)
(1.04582 0.00746216 0)
(1.04586 0.00741325 0)
(1.04588 0.00734153 0)
(1.04587 0.00722274 0)
(1.04581 0.00706089 0)
(1.04565 0.00682348 0)
(1.04537 0.00653869 0)
(1.04489 0.0062223 0)
(1.00078 0.010217 0)
(1.01157 0.0187656 0)
(1.02199 0.0169795 0)
(1.02685 0.0147648 0)
(1.02864 0.0142012 0)
(1.03017 0.0136799 0)
(1.03178 0.0128603 0)
(1.03311 0.0121339 0)
(1.03412 0.0115976 0)
(1.03494 0.0111573 0)
(1.03566 0.0107611 0)
(1.0363 0.0104054 0)
(1.03688 0.01009 0)
(1.03739 0.00980892 0)
(1.03786 0.0095562 0)
(1.03829 0.00932783 0)
(1.0387 0.00912108 0)
(1.03907 0.00893371 0)
(1.03942 0.00876381 0)
(1.03976 0.0086097 0)
(1.04007 0.00846999 0)
(1.04037 0.0083435 0)
(1.04065 0.0082292 0)
(1.04091 0.00812618 0)
(1.04116 0.00803363 0)
(1.0414 0.00795084 0)
(1.04163 0.00787713 0)
(1.04184 0.00781193 0)
(1.04204 0.00775469 0)
(1.04222 0.00770494 0)
(1.0424 0.00766218 0)
(1.04256 0.00762604 0)
(1.04271 0.00759595 0)
(1.04285 0.0075716 0)
(1.04298 0.00755224 0)
(1.0431 0.00753758 0)
(1.04321 0.00752644 0)
(1.04331 0.00751838 0)
(1.04341 0.00751146 0)
(1.04349 0.00750453 0)
(1.04356 0.00749472 0)
(1.04363 0.00747846 0)
(1.04368 0.0074524 0)
(1.04372 0.00740687 0)
(1.04373 0.00733932 0)
(1.04371 0.00722988 0)
(1.04364 0.00708019 0)
(1.04349 0.0068688 0)
(1.04321 0.00661882 0)
(1.04273 0.00635398 0)
(1.00067 0.00923706 0)
(1.01031 0.0176875 0)
(1.02012 0.0164936 0)
(1.02502 0.0144116 0)
(1.02689 0.0138712 0)
(1.02838 0.0134477 0)
(1.02996 0.0127037 0)
(1.03129 0.012003 0)
(1.0323 0.0114803 0)
(1.03312 0.0110559 0)
(1.03383 0.0106733 0)
(1.03446 0.0103271 0)
(1.03502 0.0100186 0)
(1.03553 0.0097432 0)
(1.03599 0.00949518 0)
(1.03642 0.0092707 0)
(1.03681 0.0090672 0)
(1.03718 0.00888261 0)
(1.03752 0.00871513 0)
(1.03785 0.00856318 0)
(1.03815 0.00842544 0)
(1.03844 0.00830077 0)
(1.03871 0.00818819 0)
(1.03897 0.00808685 0)
(1.03921 0.00799593 0)
(1.03944 0.00791475 0)
(1.03966 0.00784264 0)
(1.03986 0.00777904 0)
(1.04005 0.00772339 0)
(1.04023 0.00767522 0)
(1.0404 0.00763404 0)
(1.04055 0.00759945 0)
(1.0407 0.0075709 0)
(1.04083 0.00754805 0)
(1.04096 0.00753019 0)
(1.04107 0.00751696 0)
(1.04117 0.00750729 0)
(1.04127 0.0075006 0)
(1.04136 0.00749521 0)
(1.04143 0.0074897 0)
(1.0415 0.00748163 0)
(1.04156 0.00746729 0)
(1.0416 0.00744363 0)
(1.04163 0.00740189 0)
(1.04164 0.0073391 0)
(1.04161 0.00723948 0)
(1.04152 0.00710311 0)
(1.04135 0.00691716 0)
(1.04107 0.00670159 0)
(1.0406 0.00648472 0)
(1.00058 0.00834644 0)
(1.00916 0.0166342 0)
(1.01836 0.0159952 0)
(1.02327 0.0140664 0)
(1.02522 0.0135417 0)
(1.02668 0.0132057 0)
(1.02823 0.0125404 0)
(1.02955 0.0118697 0)
(1.03057 0.0113608 0)
(1.03138 0.0109519 0)
(1.03208 0.0105836 0)
(1.0327 0.0102474 0)
(1.03326 0.00994614 0)
(1.03376 0.00967656 0)
(1.03422 0.00943342 0)
(1.03463 0.00921297 0)
(1.03502 0.00901284 0)
(1.03538 0.00883114 0)
(1.03571 0.00866616 0)
(1.03603 0.00851645 0)
(1.03633 0.00838074 0)
(1.03661 0.00825796 0)
(1.03687 0.00814718 0)
(1.03712 0.00804756 0)
(1.03736 0.00795834 0)
(1.03758 0.00787882 0)
(1.03779 0.00780836 0)
(1.03799 0.00774641 0)
(1.03817 0.00769239 0)
(1.03834 0.00764586 0)
(1.0385 0.0076063 0)
(1.03865 0.00757331 0)
(1.03879 0.00754635 0)
(1.03891 0.00752505 0)
(1.03903 0.00750873 0)
(1.03914 0.00749698 0)
(1.03924 0.00748884 0)
(1.03932 0.0074836 0)
(1.0394 0.0074798 0)
(1.03947 0.00747588 0)
(1.03953 0.00746967 0)
(1.03958 0.00745752 0)
(1.03962 0.00743654 0)
(1.03963 0.00739903 0)
(1.03963 0.00734171 0)
(1.03958 0.00725239 0)
(1.03949 0.00713038 0)
(1.03931 0.00696941 0)
(1.03901 0.00678759 0)
(1.03855 0.00661563 0)
(1.0005 0.00754007 0)
(1.00813 0.0156098 0)
(1.01672 0.0154835 0)
(1.0216 0.0137283 0)
(1.02363 0.0132144 0)
(1.02507 0.0129546 0)
(1.02658 0.0123701 0)
(1.0279 0.0117335 0)
(1.02892 0.0112391 0)
(1.02972 0.0108455 0)
(1.03042 0.0104917 0)
(1.03104 0.0101662 0)
(1.03159 0.00987248 0)
(1.03208 0.00960892 0)
(1.03253 0.00937081 0)
(1.03294 0.00915456 0)
(1.03332 0.00895793 0)
(1.03367 0.00877921 0)