/*--------------------------------*- C++ -*----------------------------------*\
  =========                 |
  \\      /  F ield         | OpenFOAM: The Open Source CFD Toolbox
   \\    /   O peration     | Website:  https://openfoam.org
    \\  /    A nd           | Version:  7
     \\/     M anipulation  |
\*---------------------------------------------------------------------------*/
FoamFile
{
    version     2.0;
    format      ascii;
    class       volVectorField;
    location    "0.2";
    object      wallShearStress;
}
// * * * * * * * * * * * * * * * * * * * * * * * * * * * * * * * * * * * * * //

dimensions      [0 2 -2 0 0 0 0];

internalField   uniform (0 0 0);

boundaryField
{
    velocityInlet
    {
        type            calculated;
        value           uniform (0 0 0);
    }
    pressureOutlet
    {
        type            calculated;
        value           uniform (0 0 0);
    }
    fixedWalls
    {
        type            calculated;
        value           nonuniform List<vector> 
100
(
(-0.016738 -0.00466356 0)
(-0.00141954 -0.00097407 0)
(-0.00216925 0.000195737 0)
(-0.00161167 -1.87066e-07 0)
(-0.00180856 2.22542e-05 0)
(-0.00232922 0.000145785 0)
(-0.00399339 0.00031506 0)
(-0.00592671 0.0003408 0)
(-0.00666714 8.71763e-05 0)
(-0.00407785 -0.000688913 0)
(0.00266513 -0.00118594 0)
(0.00933239 -0.00109773 0)
(0.011741 -0.000315262 0)
(0.00948934 0.000444905 0)
(0.00493039 0.0006798 0)
(0.000542742 0.000553047 0)
(-0.00248224 0.000336909 0)
(-0.00410461 0.000155819 0)
(-0.00477961 5.29763e-05 0)
(-0.00493576 6.31905e-06 0)
(-0.00484753 -1.54263e-05 0)
(-0.00465774 -2.2029e-05 0)
(-0.00442901 -2.31989e-05 0)
(-0.00418227 -2.37234e-05 0)
(-0.00391871 -2.56591e-05 0)
(-0.0036368 -2.88507e-05 0)
(-0.00334491 -3.12277e-05 0)
(-0.00306512 -3.00372e-05 0)
(-0.00281827 -2.52321e-05 0)
(-0.00257847 -2.39854e-05 0)
(-0.00223425 -4.11247e-05 0)
(-0.00162803 -8.24625e-05 0)
(-0.00072691 -0.000122533 0)
(0.000219078 -0.000118215 0)
(0.000802079 -6.52441e-05 0)
(0.000783531 9.80361e-06 0)
(0.000268496 6.16581e-05 0)
(-0.000453097 7.86442e-05 0)
(-0.0011275 7.00802e-05 0)
(-0.00162796 4.93834e-05 0)
(-0.00193615 2.8998e-05 0)
(-0.00208947 1.33e-05 0)
(-0.0021401 3.2854e-06 0)
(-0.00213823 -1.70746e-06 0)
(-0.00212779 -2.48244e-06 0)
(-0.00214295 9.14697e-07 0)
(-0.00220344 6.01306e-06 0)
(-0.00231356 1.1e-05 0)
(-0.00247399 1.65243e-05 0)
(-0.00270248 2.6454e-05 0)
(-0.00302502 4.13323e-05 0)
(-0.00340959 5.10953e-05 0)
(-0.00370262 3.9138e-05 0)
(-0.00365564 -9.59108e-06 0)
(-0.00310035 -7.61035e-05 0)
(-0.00219346 -0.000114071 0)
(-0.00141271 -9.11948e-05 0)
(-0.00127037 -1.34616e-05 0)
(-0.001972 7.65543e-05 0)
(-0.00326349 0.000132182 0)
(-0.00469492 0.000138251 0)
(-0.00599853 0.000128502 0)
(-0.00715931 0.000129797 0)
(-0.00815168 0.00012855 0)
(-0.00866794 0.000101659 0)
(-0.00818405 -1.2057e-05 0)
(-0.0061187 -0.000205261 0)
(-0.00218041 -0.000462525 0)
(0.00268775 -0.00052141 0)
(0.00666714 -0.000433053 0)
(0.00864859 -0.000201683 0)
(0.0082674 5.20826e-05 0)
(0.00608747 0.000224085 0)
(0.00319364 0.000265796 0)
(0.000517135 0.000230157 0)
(-0.00150326 0.000163666 0)
(-0.00280393 9.8662e-05 0)
(-0.00354639 5.28536e-05 0)
(-0.00395461 2.80242e-05 0)
(-0.00422559 2.06245e-05 0)
(-0.00448724 2.36478e-05 0)
(-0.00477839 2.82226e-05 0)
(-0.00506423 2.83332e-05 0)
(-0.00528037 2.31971e-05 0)
(-0.00538261 1.71013e-05 0)
(-0.00535518 9.98269e-06 0)
(-0.00518653 1.4556e-06 0)
(-0.00482542 -1.40621e-05 0)
(-0.00417349 -4.15201e-05 0)
(-0.00315383 -7.79712e-05 0)
(-0.00178815 -0.000114231 0)
(-0.000203902 -0.000137306 0)
(0.00129977 -0.000130903 0)
(0.00248061 -0.000103686 0)
(0.00300748 -4.69399e-05 0)
(0.00293303 2.95472e-06 0)
(0.00220722 5.60196e-05 0)
(0.00112176 8.23363e-05 0)
(-6.47026e-05 9.78631e-05 0)
(-0.00174094 6.96983e-05 0)
)
;
    }
    bottomWall
    {
        type            calculated;
        value           nonuniform List<vector> 
800
(
(-0.0353488 0.00214397 0)
(-0.0160266 0.000524832 0)
(-0.0106079 0.000100711 0)
(-0.00845621 3.52533e-05 0)
(-0.00748674 1.98534e-05 0)
(-0.00685328 1.6114e-05 0)
(-0.00634602 1.3348e-05 0)
(-0.00593507 1.08924e-05 0)
(-0.00560048 9.07144e-06 0)
(-0.00532179 7.75575e-06 0)
(-0.00508444 6.75961e-06 0)
(-0.00487898 5.97258e-06 0)
(-0.00469895 5.33473e-06 0)
(-0.00453962 4.8088e-06 0)
(-0.00439742 4.36903e-06 0)
(-0.00426956 3.99685e-06 0)
(-0.00415386 3.67822e-06 0)
(-0.00404858 3.40299e-06 0)
(-0.0039523 3.16314e-06 0)
(-0.00386386 2.95261e-06 0)
(-0.0037823 2.76655e-06 0)
(-0.00370681 2.60115e-06 0)
(-0.0036367 2.45334e-06 0)
(-0.00357141 2.32045e-06 0)
(-0.00351043 2.20062e-06 0)
(-0.00345333 2.09219e-06 0)
(-0.00339974 1.99349e-06 0)
(-0.00334934 1.90338e-06 0)
(-0.00330184 1.82099e-06 0)
(-0.00325699 1.74523e-06 0)
(-0.00321458 1.67559e-06 0)
(-0.00317438 1.61126e-06 0)
(-0.00313625 1.55161e-06 0)
(-0.00310001 1.49638e-06 0)
(-0.00306553 1.44501e-06 0)
(-0.00303267 1.39707e-06 0)
(-0.00300134 1.35227e-06 0)
(-0.00297141 1.31046e-06 0)
(-0.0029428 1.27124e-06 0)
(-0.00291543 1.23434e-06 0)
(-0.00288921 1.1997e-06 0)
(-0.00286407 1.167e-06 0)
(-0.00283995 1.13624e-06 0)
(-0.00281678 1.10717e-06 0)
(-0.00279451 1.0796e-06 0)
(-0.0027731 1.0534e-06 0)
(-0.00275248 1.02916e-06 0)
(-0.00273263 1.00516e-06 0)
(-0.00271348 9.83587e-07 0)
(-0.00269504 9.60647e-07 0)
(-0.00267961 9.41697e-07 0)
(-0.00266688 9.31007e-07 0)
(-0.0026543 9.17413e-07 0)
(-0.00264191 9.02805e-07 0)
(-0.00262972 8.89182e-07 0)
(-0.0026177 8.76135e-07 0)
(-0.00260587 8.63468e-07 0)
(-0.0025942 8.51036e-07 0)
(-0.0025827 8.38862e-07 0)
(-0.00257136 8.27107e-07 0)
(-0.00256018 8.15432e-07 0)
(-0.00254916 8.03998e-07 0)
(-0.0025383 7.92969e-07 0)
(-0.00252758 7.82344e-07 0)
(-0.002517 7.71788e-07 0)
(-0.00250656 7.61297e-07 0)
(-0.00249627 7.51204e-07 0)
(-0.00248612 7.41173e-07 0)
(-0.0024761 7.31535e-07 0)
(-0.0024662 7.22122e-07 0)
(-0.00245644 7.12598e-07 0)
(-0.00244681 7.0363e-07 0)
(-0.00243729 6.94716e-07 0)
(-0.0024279 6.85854e-07 0)
(-0.00241862 6.77376e-07 0)
(-0.00240946 6.68947e-07 0)
(-0.00240041 6.60735e-07 0)
(-0.00239147 6.52737e-07 0)
(-0.00238264 6.44785e-07 0)
(-0.00237392 6.37045e-07 0)
(-0.0023653 6.29517e-07 0)
(-0.00235679 6.22032e-07 0)
(-0.00234837 6.14589e-07 0)
(-0.00234006 6.07354e-07 0)
(-0.00233184 6.00493e-07 0)
(-0.00232372 5.93669e-07 0)
(-0.00231568 5.86884e-07 0)
(-0.00230774 5.80136e-07 0)
(-0.00229989 5.7359e-07 0)
(-0.00229213 5.67245e-07 0)
(-0.00228446 5.60932e-07 0)
(-0.00227687 5.54819e-07 0)
(-0.00226936 5.48737e-07 0)
(-0.00226193 5.42685e-07 0)
(-0.00225459 5.3683e-07 0)
(-0.00224733 5.31169e-07 0)
(-0.00224014 5.25535e-07 0)
(-0.00223302 5.19928e-07 0)
(-0.00222599 5.14347e-07 0)
(-0.00221903 5.08958e-07 0)
(-0.00221214 5.03759e-07 0)
(-0.00220532 4.98418e-07 0)
(-0.00219858 4.93266e-07 0)
(-0.0021919 4.88304e-07 0)
(-0.00218529 4.83197e-07 0)
(-0.00217876 4.78278e-07 0)
(-0.00217228 4.73548e-07 0)
(-0.00216587 4.68838e-07 0)
(-0.00215953 4.64149e-07 0)
(-0.00215324 4.59479e-07 0)
(-0.00214703 4.54829e-07 0)
(-0.00214087 4.50365e-07 0)
(-0.00213477 4.46086e-07 0)
(-0.00212874 4.41659e-07 0)
(-0.00212276 4.3725e-07 0)
(-0.00211684 4.33192e-07 0)
(-0.00211097 4.28985e-07 0)
(-0.00210517 4.24796e-07 0)
(-0.00209942 4.20789e-07 0)
(-0.00209372 4.16799e-07 0)
(-0.00208808 4.12993e-07 0)
(-0.00208249 4.09035e-07 0)
(-0.00207695 4.05259e-07 0)
(-0.00207146 4.01499e-07 0)
(-0.00206603 3.97587e-07 0)
(-0.00206065 3.94023e-07 0)
(-0.00205531 3.90474e-07 0)
(-0.00205002 3.86939e-07 0)
(-0.00204478 3.8342e-07 0)
(-0.00203959 3.79915e-07 0)
(-0.00203444 3.76591e-07 0)
(-0.00202934 3.73113e-07 0)
(-0.00202429 3.69815e-07 0)
(-0.00201928 3.66531e-07 0)
(-0.00201432 3.63261e-07 0)
(-0.0020094 3.60168e-07 0)
(-0.00200452 3.57092e-07 0)
(-0.00199968 3.54023e-07 0)
(-0.00199489 3.50807e-07 0)
(-0.00199014 3.47761e-07 0)
(-0.00198542 3.44909e-07 0)
(-0.00198075 3.42048e-07 0)
(-0.00197612 3.39232e-07 0)
(-0.00197152 3.36213e-07 0)
(-0.00196697 3.33443e-07 0)
(-0.00196245 3.30748e-07 0)
(-0.00195796 3.28042e-07 0)
(-0.00195352 3.25148e-07 0)
(-0.00194912 3.2267e-07 0)
(-0.00194474 3.19975e-07 0)
(-0.00194107 3.1725e-07 0)
(-0.00193808 3.15946e-07 0)
(-0.00193507 3.14375e-07 0)
(-0.00193206 3.12465e-07 0)
(-0.00192905 3.10614e-07 0)
(-0.00192604 3.08798e-07 0)
(-0.00192302 3.07234e-07 0)
(-0.00191999 3.0544e-07 0)
(-0.00191696 3.03654e-07 0)
(-0.00191393 3.01874e-07 0)
(-0.0019109 3.00107e-07 0)
(-0.00190786 2.98567e-07 0)
(-0.00190481 2.96816e-07 0)
(-0.00190177 2.95072e-07 0)
(-0.00189872 2.93343e-07 0)
(-0.00189567 2.91617e-07 0)
(-0.00189261 2.89902e-07 0)
(-0.00188955 2.88194e-07 0)
(-0.00188649 2.86708e-07 0)
(-0.00188341 2.85015e-07 0)
(-0.00188034 2.83126e-07 0)
(-0.00187727 2.81655e-07 0)
(-0.00187419 2.7999e-07 0)
(-0.00187111 2.78124e-07 0)
(-0.00186803 2.76679e-07 0)
(-0.00186494 2.75037e-07 0)
(-0.00186185 2.73404e-07 0)
(-0.00185875 2.71776e-07 0)
(-0.00185565 2.70161e-07 0)
(-0.00185255 2.68549e-07 0)
(-0.00184945 2.66947e-07 0)
(-0.00184634 2.65355e-07 0)
(-0.00184323 2.6377e-07 0)
(-0.00184012 2.62196e-07 0)
(-0.001837 2.60632e-07 0)
(-0.00183388 2.59076e-07 0)
(-0.00183076 2.57342e-07 0)
(-0.00182763 2.55801e-07 0)
(-0.00182451 2.54458e-07 0)
(-0.00182137 2.52937e-07 0)
(-0.00181824 2.51428e-07 0)
(-0.00181509 2.49927e-07 0)
(-0.00181195 2.48257e-07 0)
(-0.00180881 2.46771e-07 0)
(-0.00180566 2.45475e-07 0)
(-0.00180251 2.4401e-07 0)
(-0.00179936 2.42381e-07 0)
(-0.0017962 2.40932e-07 0)
(-0.00179304 2.39668e-07 0)
(-0.00178988 2.3824e-07 0)
(-0.00178671 2.36826e-07 0)
(-0.00178354 2.35417e-07 0)
(-0.00178036 2.34018e-07 0)
(-0.00177718 2.3263e-07 0)
(-0.001774 2.31244e-07 0)
(-0.00177082 2.29873e-07 0)
(-0.00176763 2.2851e-07 0)
(-0.00176444 2.27315e-07 0)
(-0.00176124 2.25978e-07 0)
(-0.00175804 2.24483e-07 0)
(-0.00175484 2.23316e-07 0)
(-0.00175163 2.22163e-07 0)
(-0.00174842 2.20689e-07 0)
(-0.00174521 2.19549e-07 0)
(-0.00174199 2.18413e-07 0)
(-0.00173876 2.1698e-07 0)
(-0.00173554 2.1588e-07 0)
(-0.0017323 2.14764e-07 0)
(-0.00172906 2.13511e-07 0)
(-0.00172582 2.12272e-07 0)
(-0.00172258 2.11191e-07 0)
(-0.00171932 2.10126e-07 0)
(-0.00171607 2.08897e-07 0)
(-0.0017128 2.0786e-07 0)
(-0.00170953 2.06797e-07 0)
(-0.00170626 2.05639e-07 0)
(-0.00170298 2.04593e-07 0)
(-0.0016997 2.03778e-07 0)
(-0.0016964 2.02666e-07 0)
(-0.0016931 2.0172e-07 0)
(-0.0016898 2.00574e-07 0)
(-0.00168648 2.0006e-07 0)
(-0.00168317 1.98663e-07 0)
(-0.00167982 1.98556e-07 0)
(-0.00167651 1.96455e-07 0)
(-0.00167312 1.97687e-07 0)
(-0.00166982 1.93691e-07 0)
(-0.00166638 1.98015e-07 0)
(-0.00166312 1.89752e-07 0)
(-0.00165954 2.00505e-07 0)
(-0.00165643 1.82517e-07 0)
(-0.0016526 2.08376e-07 0)
(-0.00164978 1.68567e-07 0)
(-0.00164547 2.26407e-07 0)
(-0.00164323 1.41033e-07 0)
(-0.00163806 2.63378e-07 0)
(-0.00163687 8.87072e-08 0)
(-0.00163036 3.29105e-07 0)
(-0.00163066 5.32784e-09 0)
(-0.00162243 3.62864e-07 0)
(-0.0353488 -0.00214399 0)
(-0.0160262 -0.000524849 0)
(-0.010607 -0.000100735 0)
(-0.00845455 -3.5277e-05 0)
(-0.00748432 -1.98781e-05 0)
(-0.00685003 -1.6141e-05 0)
(-0.00634185 -1.33763e-05 0)
(-0.00593001 -1.09215e-05 0)
(-0.00559449 -9.10227e-06 0)
(-0.00531482 -7.78892e-06 0)
(-0.0050764 -6.79596e-06 0)
(-0.00486976 -6.01313e-06 0)
(-0.00468841 -5.38018e-06 0)
(-0.00452762 -4.85982e-06 0)
(-0.00438378 -4.4262e-06 0)
(-0.00425412 -4.06025e-06 0)
(-0.00413645 -3.74823e-06 0)
(-0.00402902 -3.47972e-06 0)
(-0.00393042 -3.24679e-06 0)
(-0.00383949 -3.04328e-06 0)
(-0.00375528 -2.86435e-06 0)
(-0.00367698 -2.70616e-06 0)
(-0.00360391 -2.56565e-06 0)
(-0.00353549 -2.44028e-06 0)
(-0.00347123 -2.32793e-06 0)
(-0.0034107 -2.22695e-06 0)
(-0.00335353 -2.13593e-06 0)
(-0.00329939 -2.05357e-06 0)
(-0.00324802 -1.97865e-06 0)
(-0.00319914 -1.91073e-06 0)
(-0.00315255 -1.8484e-06 0)
(-0.00310803 -1.79138e-06 0)
(-0.00306546 -1.73802e-06 0)
(-0.00302464 -1.68924e-06 0)
(-0.00298548 -1.64174e-06 0)
(-0.00294785 -1.59793e-06 0)
(-0.00291167 -1.55184e-06 0)
(-0.00287693 -1.50902e-06 0)
(-0.00284344 -1.45829e-06 0)
(-0.00281159 -1.40845e-06 0)
(-0.00278058 -1.34603e-06 0)
(-0.00275222 -1.26804e-06 0)
(-0.00272336 -1.19063e-06 0)
(-0.00270065 -1.02026e-06 0)
(-0.00267271 -9.55086e-07 0)
(-0.00266196 -4.84217e-07 0)
(-0.00263083 -5.92316e-07 0)
(-0.0026477 1.117e-06 0)
(-0.00261581 -4.13187e-06 0)
(-0.00248994 0.000180159 0)
(2.31358e-05 -4.78837e-06 0)
(4.12231e-05 -6.60262e-05 0)
(4.69744e-05 -0.000142719 0)
(5.27057e-05 -0.000218327 0)
(6.46093e-05 -0.000302869 0)
(8.10663e-05 -0.000406772 0)
(9.4873e-05 -0.000532618 0)
(9.56064e-05 -0.000671833 0)
(7.75366e-05 -0.000806355 0)
(5.0552e-05 -0.000914036 0)
(3.21229e-05 -0.00098906 0)
(1.97319e-05 -0.00103329 0)
(2.56843e-06 -0.00104654 0)
(-3.15207e-05 -0.00102443 0)
(-0.000107842 -0.00092582 0)
(-0.000218312 -0.000696261 0)
(-0.000286142 -0.000363284 0)
(-0.000273006 -4.91496e-05 0)
(-0.000212181 0.000181508 0)
(-0.000131702 0.000308498 0)
(-5.98031e-05 0.000339591 0)
(-1.06355e-05 0.000334553 0)
(2.34818e-05 0.000293974 0)
(4.35003e-05 0.000231288 0)
(5.36553e-05 0.000157615 0)
(5.68685e-05 8.00883e-05 0)
(5.48444e-05 4.12456e-06 0)
(4.90965e-05 -6.64575e-05 0)
(4.0577e-05 -0.000128876 0)
(2.98675e-05 -0.000181347 0)
(1.76489e-05 -0.000222023 0)
(4.74431e-06 -0.000249949 0)
(-7.67217e-06 -0.000265176 0)
(-1.86039e-05 -0.000268904 0)
(-2.67662e-05 -0.000263533 0)
(-3.06486e-05 -0.000252806 0)
(-2.92694e-05 -0.000241456 0)
(-2.16321e-05 -0.000235538 0)
(-7.30406e-06 -0.000240863 0)
(1.32031e-05 -0.000262541 0)
(3.87977e-05 -0.000304964 0)
(6.76921e-05 -0.000371257 0)
(9.785e-05 -0.000462638 0)
(0.000127185 -0.00057831 0)
(0.000153746 -0.000715806 0)
(0.000175971 -0.000871587 0)
(0.000193012 -0.00104134 0)
(0.000203909 -0.00122031 0)
(0.000207862 -0.00140339 0)
(0.000204583 -0.00158572 0)
(0.000194052 -0.00176261 0)
(0.000176271 -0.00192983 0)
(0.000151037 -0.0020834 0)
(0.000117966 -0.0022193 0)
(7.76488e-05 -0.00233347 0)
(3.11978e-05 -0.00242458 0)
(-2.45318e-05 -0.00249007 0)
(-9.41907e-05 -0.00252267 0)
(-0.000174464 -0.00251321 0)
(-0.000254311 -0.00245916 0)
(-0.000326762 -0.00235984 0)
(-0.000385695 -0.00221632 0)
(-0.000424233 -0.00203301 0)
(-0.000439312 -0.00182283 0)
(-0.000440516 -0.00159345 0)
(-0.000427975 -0.00135277 0)
(-0.000415897 -0.001126 0)
(-0.00044932 -0.000885753 0)
(-0.000460473 -0.000574187 0)
(-0.000320453 -0.000241863 0)
(-6.44384e-05 -2.23918e-06 0)
(0.000195727 0.000119157 0)
(0.000395337 0.000145152 0)
(0.000503552 0.000109007 0)
(0.000498577 4.19731e-05 0)
(0.000395438 -1.83971e-05 0)
(0.000226081 -4.65979e-05 0)
(4.56782e-05 -3.03186e-05 0)
(-9.04712e-05 1.45261e-05 0)
(-0.000160519 5.65333e-05 0)
(-0.000180612 7.6379e-05 0)
(-0.000178062 8.27262e-05 0)
(-0.000155582 9.44735e-05 0)
(-0.00010797 0.000112598 0)
(-4.12485e-05 0.000123328 0)
(2.48963e-05 0.000114627 0)
(6.95546e-05 8.98986e-05 0)
(8.81958e-05 6.30427e-05 0)
(8.80068e-05 4.24615e-05 0)
(7.96964e-05 2.73018e-05 0)
(6.83236e-05 1.31326e-05 0)
(5.45285e-05 -5.8144e-07 0)
(3.92712e-05 -1.09224e-05 0)
(2.43246e-05 -1.60765e-05 0)
(9.69804e-06 -1.50019e-05 0)
(-4.88245e-06 -7.35888e-06 0)
(-1.96039e-05 6.08695e-06 0)
(-3.4888e-05 2.5335e-05 0)
(-5.05708e-05 5.04456e-05 0)
(-6.61504e-05 8.11694e-05 0)
(-8.11509e-05 0.000117041 0)
(-9.51767e-05 0.000157482 0)
(-0.000107961 0.000201932 0)
(-0.000119172 0.000249566 0)
(-0.000128578 0.000299594 0)
(-0.000136008 0.000351233 0)
(-0.000141359 0.000403693 0)
(-0.000144599 0.00045623 0)
(-0.000145765 0.000508189 0)
(-0.000144897 0.000558803 0)
(-0.000142099 0.000607439 0)
(-0.000137513 0.000653527 0)
(-0.000131305 0.000696573 0)
(-0.000123657 0.000736164 0)
(-0.000114756 0.000771964 0)
(-0.000104797 0.000803712 0)
(-9.39717e-05 0.000831217 0)
(-8.2469e-05 0.000854355 0)
(-7.04831e-05 0.000873116 0)
(-5.81999e-05 0.000887589 0)
(-4.57698e-05 0.000897722 0)
(-3.33433e-05 0.000903593 0)
(-2.11051e-05 0.000905298 0)
(-9.29215e-06 0.00090305 0)
(1.96858e-06 0.000897169 0)
(1.25828e-05 0.000887908 0)
(2.24074e-05 0.000875565 0)
(3.13114e-05 0.000860478 0)
(3.91619e-05 0.000843021 0)
(4.58336e-05 0.00082361 0)
(5.12215e-05 0.000802701 0)
(5.52506e-05 0.000780779 0)
(5.7889e-05 0.000758352 0)
(5.91609e-05 0.00073593 0)
(5.91511e-05 0.000714008 0)
(5.80074e-05 0.000693038 0)
(5.59319e-05 0.000673404 0)
(5.31673e-05 0.000655402 0)
(4.99752e-05 0.000639216 0)
(4.66048e-05 0.000624913 0)
(4.32694e-05 0.000612455 0)
(4.01226e-05 0.00060171 0)
(3.72486e-05 0.000592488 0)
(3.46679e-05 0.000584574 0)
(3.23519e-05 0.000577758 0)
(3.02506e-05 0.000571856 0)
(2.83198e-05 0.000566714 0)
(2.654e-05 0.000562204 0)
(2.4925e-05 0.000558212 0)
(2.35254e-05 0.000554625 0)
(2.24188e-05 0.000551317 0)
(2.16932e-05 0.000548143 0)
(2.14347e-05 0.000544943 0)
(2.17104e-05 0.000541545 0)
(2.25628e-05 0.00053778 0)
(2.40125e-05 0.000533487 0)
(2.60524e-05 0.000528519 0)
(2.86512e-05 0.000522751 0)
(3.17609e-05 0.00051608 0)
(3.53204e-05 0.000508433 0)
(3.92607e-05 0.00049976 0)
(4.35105e-05 0.000490036 0)
(4.80022e-05 0.000479259 0)
(5.26688e-05 0.000467438 0)
(5.74524e-05 0.000454604 0)
(6.23017e-05 0.000440794 0)
(6.71715e-05 0.000426058 0)
(7.20296e-05 0.000410448 0)
(7.68495e-05 0.000394022 0)
(8.16128e-05 0.000376836 0)
(8.63042e-05 0.000358941 0)
(9.09122e-05 0.000340392 0)
(9.54298e-05 0.000321241 0)
(9.9855e-05 0.000301544 0)
(0.000104186 0.000281348 0)
(0.000108424 0.000260702 0)
(0.000112576 0.000239647 0)
(0.000116643 0.000218224 0)
(0.000120633 0.000196459 0)
(0.000124601 0.000174476 0)
(0.000128586 0.000152355 0)
(0.000132483 0.000129966 0)
(0.000136262 0.000107311 0)
(0.00013986 8.43888e-05 0)
(0.000143191 6.12129e-05 0)
(0.000146132 3.78144e-05 0)
(0.000148528 1.42348e-05 0)
(0.000150179 -9.48673e-06 0)
(0.000150828 -3.3339e-05 0)
(0.000150116 -5.73887e-05 0)
(0.000147517 -8.18621e-05 0)
(0.000142208 -0.000107306 0)
(0.000132844 -0.000134911 0)
(0.000117186 -0.000167172 0)
(9.12425e-05 -0.000208938 0)
(4.77898e-05 -0.000269267 0)
(-2.66621e-05 -0.00036443 0)
(-0.000157592 -0.000519213 0)
(-0.000380144 -0.000758303 0)
(-0.000688911 -0.0010736 0)
(1.32149e-06 -2.06954e-05 0)
(3.86767e-05 -2.92966e-05 0)
(7.30718e-05 -2.82467e-05 0)
(0.000101151 -2.27925e-05 0)
(0.000122199 -1.40899e-05 0)
(0.000133937 -2.34595e-06 0)
(0.00013426 1.18618e-05 0)
(0.000121481 2.79144e-05 0)
(9.45184e-05 4.53094e-05 0)
(5.26531e-05 6.37523e-05 0)
(-5.04698e-06 8.34059e-05 0)
(-8.06718e-05 0.000103854 0)
(-0.00017646 0.000124046 0)
(-0.000291617 0.00013936 0)
(-0.000420213 0.00014521 0)
(-0.000550647 0.000138856 0)
(-0.000665927 0.000117151 0)
(-0.000742702 8.07073e-05 0)
(-0.000768684 3.5809e-05 0)
(-0.000748313 -1.99326e-05 0)
(-0.000689625 -9.00438e-05 0)
(-0.000596482 -0.000173077 0)
(-0.000485626 -0.000254106 0)
(-0.000352171 -0.000300004 0)
(-0.000233611 -0.000269946 0)
(-0.000113741 -0.000139407 0)
(-4.25942e-05 0.000193191 0)
(-0.000123213 0.000497893 0)
(-0.000257411 0.000525128 0)
(-0.000326784 0.000260413 0)
(-0.000173725 -0.000229614 0)
(0.000319985 -0.000557035 0)
(0.000703791 -0.000426529 0)
(0.000915915 -0.000353736 0)
(0.00114186 -0.000317714 0)
(0.00134157 -0.000281499 0)
(0.00152867 -0.000254642 0)
(0.00169491 -0.00023102 0)
(0.00185102 -0.000216882 0)
(0.00199748 -0.000207499 0)
(0.00213695 -0.000204482 0)
(0.00227051 -0.000203123 0)
(0.00239679 -0.000201935 0)
(0.0025147 -0.0001972 0)
(0.00262035 -0.000187047 0)
(0.00271036 -0.000169627 0)
(0.00278004 -0.000144521 0)
(0.00282583 -0.000112081 0)
(0.0028434 -7.33394e-05 0)
(0.00282818 -2.99524e-05 0)
(0.00277992 1.88243e-05 0)
(0.00269253 7.56423e-05 0)
(0.00255941 0.000140318 0)
(0.00237466 0.000213139 0)
(0.0021313 0.000293204 0)
(0.0018245 0.000377968 0)
(0.00145159 0.000463694 0)
(0.00101342 0.000544831 0)
(0.000515606 0.000614997 0)
(-3.10663e-05 0.000667369 0)
(-0.000612847 0.000696631 0)
(-0.00120837 0.000698013 0)
(-0.00179483 0.000669943 0)
(-0.00235087 0.000611017 0)
(-0.00285168 0.000520182 0)
(-0.00327241 0.000400843 0)
(-0.00359291 0.000255981 0)
(-0.00379341 9.11078e-05 0)
(-0.00386535 -9.5555e-05 0)
(-0.00377949 -0.000298103 0)
(-0.00355324 -0.000501456 0)
(-0.00316024 -0.000687546 0)
(-0.00260828 -0.000829679 0)
(-0.00194055 -0.000901864 0)
(-0.00122772 -0.000892279 0)
(-0.00054581 -0.000809348 0)
(7.21193e-05 -0.000685794 0)
(0.000672873 -0.000541744 0)
(0.00126403 -0.000362472 0)
(0.00163332 -0.000175048 0)
(0.0016461 -2.79324e-05 0)
(0.00153063 7.48403e-05 0)
(0.00135331 9.40025e-05 0)
(0.00125827 -7.386e-06 0)
(0.00132887 -0.000171614 0)
(0.00153369 -0.000278687 0)
(0.00175296 -0.000278353 0)
(0.00189296 -0.000184925 0)
(0.00192517 -3.5872e-05 0)
(0.0018506 9.50335e-05 0)
(0.00171081 0.000177619 0)
(0.00152324 0.000255373 0)
(0.00127082 0.000339619 0)
(0.000957335 0.000401589 0)
(0.000609959 0.000425871 0)
(0.000255245 0.000406877 0)
(-8.32506e-05 0.000312772 0)
(-0.000312006 0.000101524 0)
(-0.000293213 -0.000137931 0)
(-1.33472e-05 -0.00021493 0)
(-0.000187799 -0.000117935 0)
(-6.17373e-05 -0.00037244 0)
(3.23864e-05 -0.000400046 0)
(1.81705e-05 -0.000254169 0)
(8.10543e-05 -7.12081e-05 0)
(0.000284063 0.000253431 0)
(0.000334159 0.000689393 0)
(0.000182328 0.000948678 0)
(-1.39562e-05 0.000960081 0)
(-0.000249195 0.000692685 0)
(-0.000453466 0.000131785 0)
(-0.000524259 -0.000594367 0)
(-0.000450968 -0.00127745 0)
(-0.000299602 -0.00178643 0)
(-0.000132722 -0.00208638 0)
(5.70068e-06 -0.00219644 0)
(9.72668e-05 -0.00216673 0)
(0.000141779 -0.0020579 0)
(0.000155026 -0.00192458 0)
(0.000159407 -0.00178915 0)
(0.000173772 -0.00165364 0)
(0.000210343 -0.00150249 0)
(0.000271504 -0.00131122 0)
(0.000351315 -0.00104795 0)
(0.000420469 -0.000697785 0)
(0.000438266 -0.000269811 0)
(0.000293177 0.00017877 0)
(4.66041e-06 0.000429901 0)
(-0.000107981 0.000478948 0)
(-7.88066e-05 0.000413651 0)
(-6.97263e-05 0.000314306 0)
(-0.000102566 0.00022162 0)
(-9.69664e-05 0.000139566 0)
(-0.000113123 9.9015e-05 0)
(-7.73952e-05 5.73684e-05 0)
(3.50125e-05 2.36265e-05 0)
(0.000160041 2.6373e-05 0)
(0.000164008 1.40048e-05 0)
(6.67482e-05 -2.56748e-05 0)
(-0.00013424 -2.22814e-05 0)
(-0.000438929 -5.48076e-05 0)
(-0.000622585 -0.000191787 0)
(-0.000591536 -0.000355699 0)
(-0.000366373 -0.000455558 0)
(-4.37619e-05 -0.000422932 0)
(0.000281879 -0.000248573 0)
(0.000361823 6.50001e-05 0)
(0.000144618 0.00022204 0)
(1.15185e-05 0.000202434 0)
(-4.21738e-05 0.000150233 0)
(-0.000110701 4.94146e-05 0)
(-0.000172387 -0.000133913 0)
(-0.000231544 -0.000381156 0)
(-0.000274418 -0.000688354 0)
(-0.000280365 -0.00102201 0)
(-0.000232004 -0.00134009 0)
(-0.000125232 -0.00159319 0)
(3.58582e-05 -0.0017374 0)
(0.000244154 -0.00177233 0)
(0.000509332 -0.00172085 0)
(0.000753484 -0.00138335 0)
(0.000891082 -0.000801074 0)
(0.000906202 -0.000150458 0)
(0.000889811 0.000468984 0)
(0.000833432 0.00105213 0)
(0.000767973 0.00157042 0)
(0.00071633 0.00201772 0)
(0.000578183 0.00240048 0)
(0.000147512 0.00270032 0)
(-0.000612343 0.00288354 0)
(-0.00141577 0.00281087 0)
(-0.00153091 0.00240001 0)
(-0.000355004 0.00207037 0)
(0.00170852 0.00266653 0)
(0.00296965 0.00454555 0)
(0.00217299 0.00629545 0)
(0.000976425 0.00663076 0)
(0.000834243 0.00661483 0)
(0.000663446 0.00697922 0)
(0.000211856 0.00707457 0)
(7.69564e-05 0.00695657 0)
(-1.67965e-05 0.0069331 0)
(-0.000173962 0.00683134 0)
(-0.000221621 0.00667527 0)
(-0.000263937 0.00654867 0)
(-0.000312935 0.00639318 0)
(-0.000321508 0.00623188 0)
(-0.000331561 0.00608468 0)
(-0.000338164 0.00593242 0)
(-0.000331074 0.00578728 0)
(-0.0003253 0.00565248 0)
(-0.000316811 0.00552222 0)
(-0.00030437 0.00540111 0)
(-0.000292273 0.00528881 0)
(-0.000278455 0.00518377 0)
(-0.000262884 0.00508724 0)
(-0.000245903 0.00499868 0)
(-0.000226056 0.00491796 0)
(-0.000202691 0.00484568 0)
(-0.000174679 0.0047821 0)
(-0.000140575 0.00472815 0)
(-9.93254e-05 0.00468516 0)
(-4.97604e-05 0.00465475 0)
(8.15699e-06 0.00463925 0)
(7.38058e-05 0.00464059 0)
(0.00014501 0.00466208 0)
(0.000214871 0.00470769 0)
(0.000272802 0.00477663 0)
(0.000310201 0.00486111 0)
(0.000326273 0.00494939 0)
(0.000328199 0.00503284 0)
(0.000324188 0.0051111 0)
(0.00031531 0.00518894 0)
(0.000294953 0.00526751 0)
(0.000256987 0.00533957 0)
(0.000203415 0.00539431 0)
(0.000143571 0.00542591 0)
(8.6754e-05 0.00543668 0)
(3.66277e-05 0.00543221 0)
(-6.58903e-06 0.00541617 0)
(-4.41532e-05 0.00539152 0)
(-7.82204e-05 0.0053588 0)
(-0.000108877 0.00531772 0)
(-0.000135348 0.00526929 0)
(-0.000157779 0.00521548 0)
(-0.000177063 0.00515743 0)
(-0.000193661 0.00509548 0)
(-0.000207482 0.00503022 0)
(-0.000218613 0.00496272 0)
(-0.000227414 0.00489379 0)
(-0.000234155 0.00482396 0)
(-0.000239008 0.00475374 0)
(-0.00024215 0.00468366 0)
(-0.000243792 0.00461418 0)
(-0.000244133 0.00454568 0)
(-0.00024335 0.00447845 0)
(-0.000241621 0.00441278 0)
(-0.000239112 0.00434887 0)
(-0.000235973 0.00428689 0)
(-0.000232362 0.00422697 0)
(-0.00022841 0.00416918 0)
(-0.000224243 0.0041136 0)
(-0.000219999 0.00406023 0)
(-0.000215784 0.00400906 0)
(-0.000211703 0.00396006 0)
(-0.000207859 0.00391317 0)
(-0.000204344 0.00386832 0)
(-0.000201237 0.0038254 0)
(-0.000198617 0.00378432 0)
(-0.000196578 0.00374495 0)
(-0.000195187 0.00370715 0)
(-0.000194494 0.00367078 0)
(-0.000194577 0.0036357 0)
(-0.000195519 0.00360174 0)
(-0.00019737 0.00356871 0)
(-0.000200197 0.00353646 0)
(-0.000204053 0.00350477 0)
(-0.000208995 0.00347346 0)
(-0.000215098 0.00344233 0)
(-0.000222405 0.00341115 0)
(-0.000230964 0.0033797 0)
(-0.000240831 0.00334777 0)
(-0.000252045 0.00331512 0)
(-0.000264686 0.00328153 0)
(-0.000278811 0.00324676 0)
(-0.000294476 0.0032106 0)
(-0.000311795 0.00317284 0)
(-0.000330881 0.00313323 0)
(-0.000351879 0.00309157 0)
(-0.000374956 0.0030476 0)
(-0.000400288 0.00300107 0)
(-0.00042809 0.00295172 0)
(-0.000458563 0.00289924 0)
(-0.000491938 0.0028434 0)
(-0.000528495 0.00278388 0)
(-0.000568518 0.0027204 0)
(-0.0006123 0.00265266 0)
(-0.000660228 0.00258037 0)
(-0.000712722 0.0025032 0)
(-0.00077025 0.00242081 0)
(-0.000833334 0.00233277 0)
(-0.000902516 0.00223863 0)
(-0.000982655 0.0021474 0)
(-0.00107266 0.00205169 0)
(-0.00117403 0.00195031 0)
(-0.0012884 0.00184195 0)
(-0.00141741 0.00172496 0)
(-0.00156233 0.00159711 0)
(-0.001724 0.00145596 0)
(-0.00190225 0.00129926 0)
(-0.00209587 0.00112577 0)
(-0.0023026 0.000935586 0)
(-0.00253344 0.000731085 0)
(-0.00279316 0.000508611 0)
(-0.0030694 0.000266228 0)
(-0.00336932 2.27104e-05 0)
(-0.00370373 -0.000306116 0)
(-0.00404245 -0.000496988 0)
(-0.00444906 -0.00126814 0)
(-0.00443026 -0.000655772 0)
)
;
    }
    frontAndBack
    {
        type            empty;
    }
}


// ************************************************************************* //
