/*--------------------------------*- C++ -*----------------------------------*\
  =========                 |
  \\      /  F ield         | OpenFOAM: The Open Source CFD Toolbox
   \\    /   O peration     | Website:  https://openfoam.org
    \\  /    A nd           | Version:  7
     \\/     M anipulation  |
\*---------------------------------------------------------------------------*/
FoamFile
{
    version     2.0;
    format      ascii;
    class       volScalarField;
    location    "0.02";
    object      k_0;
}
// * * * * * * * * * * * * * * * * * * * * * * * * * * * * * * * * * * * * * //

dimensions      [0 2 -2 0 0 0 0];

internalField   nonuniform List<scalar> 
70000
(
1.08548e-05
4.21832e-06
2.82348e-06
2.31548e-06
1.99575e-06
1.755e-06
1.5626e-06
1.40539e-06
1.27419e-06
1.16325e-06
1.06786e-06
9.85754e-07
9.13706e-07
8.51101e-07
7.95124e-07
7.46337e-07
7.01766e-07
6.63009e-07
6.26755e-07
5.95516e-07
5.65504e-07
5.40039e-07
5.14827e-07
4.93864e-07
4.72414e-07
4.54999e-07
4.36539e-07
4.21945e-07
4.05888e-07
3.93567e-07
3.79456e-07
3.68989e-07
3.5644e-07
3.47474e-07
3.36122e-07
3.28307e-07
3.17744e-07
3.10737e-07
3.00519e-07
2.93948e-07
2.83668e-07
2.77305e-07
2.66616e-07
2.60382e-07
2.48554e-07
2.42339e-07
2.28298e-07
2.37977e-07
2.22915e-07
4.18151e-07
1.72794e-05
1.13664e-05
8.51834e-06
7.00681e-06
6.03229e-06
5.30479e-06
4.72404e-06
4.24929e-06
3.85295e-06
3.51792e-06
3.22979e-06
2.98184e-06
2.76414e-06
2.57507e-06
2.40586e-06
2.25849e-06
2.12369e-06
2.00658e-06
1.89689e-06
1.80246e-06
1.71163e-06
1.63461e-06
1.55829e-06
1.49483e-06
1.42988e-06
1.37712e-06
1.32121e-06
1.27695e-06
1.22831e-06
1.1909e-06
1.14814e-06
1.11633e-06
1.07828e-06
1.05103e-06
1.01662e-06
9.92902e-07
9.60947e-07
9.39776e-07
9.08962e-07
8.89236e-07
8.5832e-07
8.39339e-07
8.07295e-07
7.88803e-07
7.5343e-07
7.35078e-07
6.93065e-07
7.15871e-07
6.75109e-07
9.19267e-07
1.937e-05
1.61291e-05
1.32888e-05
1.12853e-05
9.82218e-06
8.6878e-06
7.76797e-06
7.00869e-06
6.36992e-06
5.82749e-06
5.35897e-06
4.95493e-06
4.59884e-06
4.28933e-06
4.01128e-06
3.76911e-06
3.54671e-06
3.35365e-06
3.1721e-06
3.016e-06
2.8653e-06
2.73765e-06
2.61077e-06
2.50531e-06
2.39716e-06
2.30922e-06
2.21599e-06
2.14201e-06
2.06077e-06
1.9981e-06
1.92656e-06
1.87315e-06
1.80941e-06
1.76358e-06
1.70592e-06
1.66611e-06
1.61265e-06
1.57736e-06
1.52605e-06
1.49354e-06
1.44231e-06
1.41143e-06
1.35871e-06
1.3289e-06
1.27096e-06
1.24224e-06
1.17389e-06
1.20059e-06
1.14124e-06
1.28743e-06
1.9861e-05
1.826e-05
1.60848e-05
1.41978e-05
1.26357e-05
1.13423e-05
1.02518e-05
9.32788e-06
8.53332e-06
7.84885e-06
7.2505e-06
6.73062e-06
6.26806e-06
5.86431e-06
5.49849e-06
5.1791e-06
4.88334e-06
4.62647e-06
4.38306e-06
4.17391e-06
3.97057e-06
3.79847e-06
3.62636e-06
3.48333e-06
3.33598e-06
3.21603e-06
3.08848e-06
2.98707e-06
2.87553e-06
2.78925e-06
2.69068e-06
2.61687e-06
2.52878e-06
2.46524e-06
2.38541e-06
2.33023e-06
2.25626e-06
2.20767e-06
2.13695e-06
2.09288e-06
2.02263e-06
1.98161e-06
1.91008e-06
1.87087e-06
1.79287e-06
1.75833e-06
1.66722e-06
1.68889e-06
1.61917e-06
1.6608e-06
1.99706e-05
1.78463e-05
1.60754e-05
1.47677e-05
1.3603e-05
1.25374e-05
1.15672e-05
1.06986e-05
9.91419e-06
9.2179e-06
8.59342e-06
8.04111e-06
7.53966e-06
7.09734e-06
6.68955e-06
6.33093e-06
5.99366e-06
5.69991e-06
5.41769e-06
5.17504e-06
4.93619e-06
4.73406e-06
4.52965e-06
4.35982e-06
4.18317e-06
4.0393e-06
3.88512e-06
3.76246e-06
3.62667e-06
3.52159e-06
3.40084e-06
3.31037e-06
3.20187e-06
3.12357e-06
3.02481e-06
2.95667e-06
2.86501e-06
2.80524e-06
2.71771e-06
2.66441e-06
2.57789e-06
2.52973e-06
2.44271e-06
2.39721e-06
2.30398e-06
2.26735e-06
2.16011e-06
2.17254e-06
2.10466e-06
2.06574e-06
2.00096e-05
1.47034e-05
1.37513e-05
1.32172e-05
1.25982e-05
1.19352e-05
1.12853e-05
1.06649e-05
1.0087e-05
9.55399e-06
9.04963e-06
8.58499e-06
8.14517e-06
7.74813e-06
7.36878e-06
7.02962e-06
6.70182e-06
6.41435e-06
6.13137e-06
5.88745e-06
5.64196e-06
5.43404e-06
5.21954e-06
5.04142e-06
4.85271e-06
4.69917e-06
4.53202e-06
4.39933e-06
4.2503e-06
4.13532e-06
4.0014e-06
3.90141e-06
3.77995e-06
3.69267e-06
3.58127e-06
3.50484e-06
3.40095e-06
3.33386e-06
3.23443e-06
3.17564e-06
3.07784e-06
3.02727e-06
2.92958e-06
2.88339e-06
2.78125e-06
2.7447e-06
2.62904e-06
2.63281e-06
2.57869e-06
2.47176e-06
2.01335e-05
1.5458e-05
9.63428e-06
9.40837e-06
9.50569e-06
9.51095e-06
9.4547e-06
9.32116e-06
9.07932e-06
8.8072e-06
8.51049e-06
8.21552e-06
7.91837e-06
7.63914e-06
7.35417e-06
7.09976e-06
6.84364e-06
6.61556e-06
6.38049e-06
6.17656e-06
5.96245e-06
5.78057e-06
5.58611e-06
5.42471e-06
5.24772e-06
5.10441e-06
4.94377e-06
4.81723e-06
4.671e-06
4.55925e-06
4.42551e-06
4.32669e-06
4.20355e-06
4.11608e-06
4.00171e-06
3.92424e-06
3.81659e-06
3.74794e-06
3.64474e-06
3.58596e-06
3.48571e-06
3.43599e-06
3.33738e-06
3.29253e-06
3.19024e-06
3.1561e-06
3.04159e-06
3.03969e-06
2.99009e-06
2.86237e-06
2.01718e-05
1.86705e-05
8.66289e-06
5.54283e-06
5.63858e-06
5.95197e-06
6.31707e-06
6.60884e-06
6.79465e-06
6.90852e-06
6.93266e-06
6.91527e-06
6.86383e-06
6.78089e-06
6.66707e-06
6.54758e-06
6.4025e-06
6.26542e-06
6.11243e-06
5.97773e-06
5.8249e-06
5.69473e-06
5.54724e-06
5.42439e-06
5.2852e-06
5.17434e-06
5.04311e-06
4.94155e-06
4.81744e-06
4.72454e-06
4.60746e-06
4.5228e-06
4.4122e-06
4.33542e-06
4.23056e-06
4.16117e-06
4.06061e-06
3.99817e-06
3.90145e-06
3.84843e-06
3.75529e-06
3.71038e-06
3.62056e-06
3.58104e-06
3.48983e-06
3.46092e-06
3.35851e-06
3.35509e-06
3.31103e-06
3.18931e-06
2.01676e-05
1.97224e-05
1.61489e-05
4.83343e-06
3.04302e-06
3.11265e-06
3.39224e-06
3.83003e-06
4.20355e-06
4.53048e-06
4.78371e-06
4.98207e-06
5.12516e-06
5.23421e-06
5.29351e-06
5.33654e-06
5.34209e-06
5.33517e-06
5.31122e-06
5.28015e-06
5.22413e-06
5.1757e-06
5.10587e-06
5.04809e-06
4.96771e-06
4.9025e-06
4.81634e-06
4.75121e-06
4.66322e-06
4.59986e-06
4.51246e-06
4.45159e-06
4.36566e-06
4.30816e-06
4.22399e-06
4.17054e-06
4.08895e-06
4.04079e-06
3.96189e-06
3.92062e-06
3.84522e-06
3.80987e-06
3.73853e-06
3.70864e-06
3.63821e-06
3.61847e-06
3.54045e-06
3.53978e-06
3.50858e-06
3.41257e-06
2.01481e-05
1.99337e-05
1.90595e-05
1.44657e-05
5.18624e-06
2.14691e-06
1.91717e-06
2.00283e-06
2.22689e-06
2.53561e-06
2.81785e-06
3.08312e-06
3.31357e-06
3.52145e-06
3.68971e-06
3.83777e-06
3.95312e-06
4.05062e-06
4.12167e-06
4.18357e-06
4.22045e-06
4.25122e-06
4.26459e-06
4.27059e-06
4.26719e-06
4.25996e-06
4.24123e-06
4.22604e-06
4.19378e-06
4.17332e-06
4.13273e-06
4.10757e-06
4.06239e-06
4.03449e-06
3.98623e-06
3.95761e-06
3.90541e-06
3.87655e-06
3.82371e-06
3.79798e-06
3.74719e-06
3.72448e-06
3.67731e-06
3.65915e-06
3.61367e-06
3.60425e-06
3.55877e-06
3.56319e-06
3.55165e-06
3.49572e-06
2.0122e-05
1.99658e-05
1.96394e-05
1.85338e-05
1.51655e-05
8.25097e-06
3.03452e-06
1.62441e-06
1.44341e-06
1.45664e-06
1.54258e-06
1.71775e-06
1.90632e-06
2.09414e-06
2.27109e-06
2.4424e-06
2.59534e-06
2.73832e-06
2.86074e-06
2.9751e-06
3.07004e-06
3.15721e-06
3.22777e-06
3.29193e-06
3.34061e-06
3.38719e-06
3.41789e-06
3.45047e-06
3.46684e-06
3.48691e-06
3.49339e-06
3.5024e-06
3.50206e-06
3.50133e-06
3.49608e-06
3.49227e-06
3.48152e-06
3.47592e-06
3.46224e-06
3.4567e-06
3.44313e-06
3.43931e-06
3.42805e-06
3.4285e-06
3.42279e-06
3.43226e-06
3.42514e-06
3.43717e-06
3.45818e-06
3.4367e-06
2.00986e-05
1.99327e-05
1.97552e-05
1.93454e-05
1.84882e-05
1.649e-05
1.22091e-05
6.7e-06
2.87584e-06
1.4695e-06
1.23969e-06
1.15242e-06
1.16303e-06
1.21518e-06
1.31928e-06
1.43762e-06
1.55655e-06
1.67849e-06
1.79491e-06
1.91144e-06
2.01749e-06
2.12144e-06
2.21316e-06
2.30301e-06
2.37975e-06
2.45534e-06
2.51801e-06
2.58055e-06
2.63066e-06
2.68101e-06
2.72062e-06
2.76061e-06
2.79092e-06
2.82256e-06
2.84465e-06
2.87073e-06
2.88659e-06
2.90894e-06
2.92109e-06
2.94189e-06
2.95277e-06
2.97458e-06
2.98662e-06
3.01263e-06
3.02752e-06
3.06094e-06
3.08782e-06
3.1189e-06
3.18672e-06
3.20352e-06
2.00785e-05
1.98876e-05
1.9755e-05
1.94541e-05
1.91349e-05
1.86212e-05
1.75092e-05
1.53442e-05
1.15613e-05
7.21169e-06
3.78108e-06
1.80577e-06
1.18724e-06
1.05534e-06
9.78575e-07
9.57699e-07
9.7542e-07
1.02259e-06
1.09009e-06
1.16555e-06
1.24185e-06
1.32275e-06
1.40056e-06
1.48183e-06
1.5566e-06
1.63289e-06
1.70165e-06
1.77141e-06
1.83303e-06
1.89554e-06
1.94992e-06
2.00563e-06
2.05274e-06
2.10225e-06
2.14285e-06
2.18724e-06
2.22268e-06
2.26362e-06
2.29564e-06
2.3349e-06
2.3655e-06
2.40555e-06
2.43742e-06
2.48008e-06
2.5185e-06
2.56261e-06
2.61829e-06
2.65968e-06
2.74974e-06
2.78949e-06
2.00617e-05
1.98538e-05
1.97324e-05
1.94648e-05
1.92443e-05
1.90338e-05
1.87143e-05
1.81557e-05
1.70245e-05
1.51134e-05
1.2338e-05
8.91466e-06
5.62571e-06
3.19595e-06
1.70901e-06
1.11445e-06
9.57e-07
8.90094e-07
8.34414e-07
8.14657e-07
8.23226e-07
8.47749e-07
8.8824e-07
9.34921e-07
9.82498e-07
1.03533e-06
1.08669e-06
1.14195e-06
1.19463e-06
1.24962e-06
1.30088e-06
1.354e-06
1.40279e-06
1.45318e-06
1.49946e-06
1.54717e-06
1.59147e-06
1.63693e-06
1.68062e-06
1.72439e-06
1.76937e-06
1.81299e-06
1.86203e-06
1.90635e-06
1.9649e-06
2.00975e-06
2.08441e-06
2.132e-06
2.23244e-06
2.28594e-06
2.00479e-05
1.98301e-05
1.97056e-05
1.94424e-05
1.9261e-05
1.91021e-05
1.89481e-05
1.87294e-05
1.84317e-05
1.7862e-05
1.69968e-05
1.55382e-05
1.36505e-05
1.11655e-05
8.3877e-06
5.74057e-06
3.64017e-06
2.16707e-06
1.3151e-06
9.65239e-07
8.51481e-07
7.96255e-07
7.50683e-07
7.15821e-07
7.07596e-07
7.13582e-07
7.28672e-07
7.54675e-07
7.83714e-07
8.15145e-07
8.48621e-07
8.84234e-07
9.21044e-07
9.5825e-07
9.97781e-07
1.03553e-06
1.07717e-06
1.11459e-06
1.15925e-06
1.19595e-06
1.24459e-06
1.28218e-06
1.33612e-06
1.37547e-06
1.4393e-06
1.48066e-06
1.55857e-06
1.60629e-06
1.70043e-06
1.76849e-06
2.00366e-05
1.98123e-05
1.96829e-05
1.94114e-05
1.92465e-05
1.90952e-05
1.89834e-05
1.88298e-05
1.86898e-05
1.84717e-05
1.82109e-05
1.77748e-05
1.71337e-05
1.6215e-05
1.49086e-05
1.32863e-05
1.13254e-05
9.10554e-06
6.89113e-06
4.88086e-06
3.30313e-06
2.14306e-06
1.38452e-06
9.89189e-07
8.23746e-07
7.54888e-07
7.14226e-07
6.76992e-07
6.49326e-07
6.30483e-07
6.3073e-07
6.35496e-07
6.47029e-07
6.62573e-07
6.84497e-07
7.04258e-07
7.31692e-07
7.54151e-07
7.87753e-07
8.11793e-07
8.51006e-07
8.78827e-07
9.22717e-07
9.55114e-07
1.00753e-06
1.04472e-06
1.10691e-06
1.15587e-06
1.22707e-06
1.29746e-06
2.00275e-05
1.97984e-05
1.96634e-05
1.93889e-05
1.92194e-05
1.9067e-05
1.89634e-05
1.88341e-05
1.87118e-05
1.85738e-05
1.84281e-05
1.82606e-05
1.80312e-05
1.77401e-05
1.73103e-05
1.67312e-05
1.59423e-05
1.49336e-05
1.36525e-05
1.22044e-05
1.05287e-05
8.72051e-06
6.92106e-06
5.26041e-06
3.84036e-06
2.73301e-06
1.89763e-06
1.3217e-06
9.84524e-07
8.12491e-07
7.32309e-07
6.88442e-07
6.58238e-07
6.31513e-07
6.11356e-07
5.96689e-07
5.93345e-07
5.95554e-07
6.03299e-07
6.12406e-07
6.3102e-07
6.44977e-07
6.69376e-07
6.90725e-07
7.23278e-07
7.50824e-07
7.90498e-07
8.30589e-07
8.77714e-07
9.32351e-07
2.00203e-05
1.97896e-05
1.96433e-05
1.93725e-05
1.91932e-05
1.90373e-05
1.89221e-05
1.88067e-05
1.86878e-05
1.85669e-05
1.84399e-05
1.83182e-05
1.81832e-05
1.80426e-05
1.78718e-05
1.76651e-05
1.73933e-05
1.70457e-05
1.65827e-05
1.59954e-05
1.52675e-05
1.43684e-05
1.3314e-05
1.21109e-05
1.08059e-05
9.37309e-06
7.90222e-06
6.46207e-06
5.14131e-06
3.95948e-06
3.00861e-06
2.25145e-06
1.67073e-06
1.2581e-06
9.97671e-07
8.46409e-07
7.6458e-07
7.17378e-07
6.8835e-07
6.64754e-07
6.51359e-07
6.41821e-07
6.40739e-07
6.42925e-07
6.49502e-07
6.60673e-07
6.76234e-07
6.97242e-07
7.19484e-07
7.46976e-07
2.00147e-05
1.97897e-05
1.96163e-05
1.93589e-05
1.9171e-05
1.9009e-05
1.88837e-05
1.87676e-05
1.86452e-05
1.85277e-05
1.84085e-05
1.82931e-05
1.81755e-05
1.80567e-05
1.79396e-05
1.78145e-05
1.76849e-05
1.75321e-05
1.73594e-05
1.71424e-05
1.68824e-05
1.6553e-05
1.61485e-05
1.56519e-05
1.50575e-05
1.43641e-05
1.35483e-05
1.26449e-05
1.16288e-05
1.05751e-05
9.42392e-06
8.22931e-06
7.04217e-06
5.89772e-06
4.84869e-06
3.89337e-06
3.10406e-06
2.45929e-06
1.94738e-06
1.55773e-06
1.28234e-06
1.10087e-06
9.85939e-07
9.14121e-07
8.66734e-07
8.35242e-07
8.11186e-07
7.99104e-07
7.89424e-07
7.88907e-07
2.00105e-05
1.9794e-05
1.95891e-05
1.93444e-05
1.91512e-05
1.8981e-05
1.88482e-05
1.87276e-05
1.8603e-05
1.84797e-05
1.83603e-05
1.8241e-05
1.81282e-05
1.80147e-05
1.79067e-05
1.77946e-05
1.7687e-05
1.75725e-05
1.74632e-05
1.73458e-05
1.7222e-05
1.70834e-05
1.69217e-05
1.6736e-05
1.65089e-05
1.62484e-05
1.59291e-05
1.55592e-05
1.51182e-05
1.46129e-05
1.40367e-05
1.3384e-05
1.26535e-05
1.18631e-05
1.10026e-05
1.01172e-05
9.15999e-06
8.16223e-06
7.15422e-06
6.17003e-06
5.22616e-06
4.36576e-06
3.58442e-06
2.94735e-06
2.43513e-06
2.03987e-06
1.73605e-06
1.52051e-06
1.35064e-06
1.22348e-06
2.00073e-05
1.98016e-05
1.95646e-05
1.93299e-05
1.91328e-05
1.89542e-05
1.88141e-05
1.86889e-05
1.8561e-05
1.84331e-05
1.83099e-05
1.81872e-05
1.80707e-05
1.79546e-05
1.78447e-05
1.77332e-05
1.76303e-05
1.7524e-05
1.74228e-05
1.73235e-05
1.72208e-05
1.71217e-05
1.70172e-05
1.69146e-05
1.68001e-05
1.66835e-05
1.65505e-05
1.64014e-05
1.6231e-05
1.60316e-05
1.58033e-05
1.55411e-05
1.52336e-05
1.48876e-05
1.44892e-05
1.40445e-05
1.35395e-05
1.29788e-05
1.23535e-05
1.16665e-05
1.09297e-05
1.01296e-05
9.29717e-06
8.39102e-06
7.43786e-06
6.48073e-06
5.53061e-06
4.65899e-06
3.81605e-06
3.13991e-06
2.00049e-05
1.98101e-05
1.95419e-05
1.93153e-05
1.91148e-05
1.89291e-05
1.87807e-05
1.86516e-05
1.85198e-05
1.83881e-05
1.82601e-05
1.81339e-05
1.80128e-05
1.78943e-05
1.77796e-05
1.76667e-05
1.75577e-05
1.74503e-05
1.7346e-05
1.7248e-05
1.71503e-05
1.70587e-05
1.6963e-05
1.68744e-05
1.67798e-05
1.66901e-05
1.65983e-05
1.65069e-05
1.64118e-05
1.63126e-05
1.6205e-05
1.60932e-05
1.59626e-05
1.58229e-05
1.56643e-05
1.54873e-05
1.52757e-05
1.5046e-05
1.47705e-05
1.44636e-05
1.41085e-05
1.37105e-05
1.32477e-05
1.27409e-05
1.21427e-05
1.14791e-05
1.0728e-05
9.89141e-06
8.99968e-06
8.00279e-06
2.00032e-05
1.98192e-05
1.95209e-05
1.93005e-05
1.90967e-05
1.89054e-05
1.87481e-05
1.86151e-05
1.84794e-05
1.83444e-05
1.82116e-05
1.80819e-05
1.79564e-05
1.7835e-05
1.77155e-05
1.76003e-05
1.74864e-05
1.73766e-05
1.72682e-05
1.71676e-05
1.70642e-05
1.69703e-05
1.68708e-05
1.67823e-05
1.66885e-05
1.66062e-05
1.65221e-05
1.64409e-05
1.63587e-05
1.62789e-05
1.6194e-05
1.61153e-05
1.60286e-05
1.59477e-05
1.58637e-05
1.57793e-05
1.56768e-05
1.55837e-05
1.54604e-05
1.53398e-05
1.51907e-05
1.50344e-05
1.48376e-05
1.46316e-05
1.43639e-05
1.40639e-05
1.36937e-05
1.32586e-05
1.27373e-05
1.21378e-05
2.00019e-05
1.98279e-05
1.95015e-05
1.92848e-05
1.90779e-05
1.8883e-05
1.87166e-05
1.85795e-05
1.84403e-05
1.83019e-05
1.81648e-05
1.80314e-05
1.79021e-05
1.77772e-05
1.76537e-05
1.75354e-05
1.74173e-05
1.73049e-05
1.71927e-05
1.70892e-05
1.69815e-05
1.68851e-05
1.67801e-05
1.66903e-05
1.6591e-05
1.65047e-05
1.64163e-05
1.63326e-05
1.6248e-05
1.6169e-05
1.60897e-05
1.60191e-05
1.59422e-05
1.5873e-05
1.58039e-05
1.57387e-05
1.56579e-05
1.55971e-05
1.55098e-05
1.54467e-05
1.53634e-05
1.52933e-05
1.52049e-05
1.51245e-05
1.5017e-05
1.49009e-05
1.47504e-05
1.45861e-05
1.43578e-05
1.41127e-05
2.00011e-05
1.98302e-05
1.94857e-05
1.9269e-05
1.90594e-05
1.88625e-05
1.8687e-05
1.8545e-05
1.84027e-05
1.82611e-05
1.81201e-05
1.7983e-05
1.78504e-05
1.77217e-05
1.75948e-05
1.7473e-05
1.73515e-05
1.7236e-05
1.71207e-05
1.70136e-05
1.69025e-05
1.68034e-05
1.66941e-05
1.66025e-05
1.64991e-05
1.64098e-05
1.63177e-05
1.62292e-05
1.61418e-05
1.60577e-05
1.59745e-05
1.58985e-05
1.58183e-05
1.57479e-05
1.56759e-05
1.56126e-05
1.55367e-05
1.54865e-05
1.54108e-05
1.53616e-05
1.52956e-05
1.52452e-05
1.51833e-05
1.51296e-05
1.50673e-05
1.50063e-05
1.49361e-05
1.48743e-05
1.47856e-05
1.47043e-05
2.00005e-05
1.98287e-05
1.94727e-05
1.92523e-05
1.90405e-05
1.88438e-05
1.86597e-05
1.85121e-05
1.83672e-05
1.82224e-05
1.8078e-05
1.79374e-05
1.78018e-05
1.76694e-05
1.75394e-05
1.74141e-05
1.72896e-05
1.71709e-05
1.70531e-05
1.6942e-05
1.68284e-05
1.67256e-05
1.66135e-05
1.65196e-05
1.64129e-05
1.63211e-05
1.62256e-05
1.61335e-05
1.60433e-05
1.59555e-05
1.58698e-05
1.57893e-05
1.5707e-05
1.56318e-05
1.55572e-05
1.54866e-05
1.54098e-05
1.53498e-05
1.52743e-05
1.5222e-05
1.51557e-05
1.51092e-05
1.50555e-05
1.50162e-05
1.49725e-05
1.49279e-05
1.48842e-05
1.48435e-05
1.47991e-05
1.4751e-05
2e-05
1.98271e-05
1.94618e-05
1.92342e-05
1.90208e-05
1.88263e-05
1.86345e-05
1.84809e-05
1.83338e-05
1.81862e-05
1.80388e-05
1.7895e-05
1.77566e-05
1.76208e-05
1.74879e-05
1.73594e-05
1.72323e-05
1.71106e-05
1.69906e-05
1.68753e-05
1.676e-05
1.6653e-05
1.65393e-05
1.64421e-05
1.63333e-05
1.62387e-05
1.61402e-05
1.6045e-05
1.5952e-05
1.58619e-05
1.57735e-05
1.56904e-05
1.56062e-05
1.55276e-05
1.54507e-05
1.5374e-05
1.52989e-05
1.52296e-05
1.51571e-05
1.50971e-05
1.50332e-05
1.4979e-05
1.49262e-05
1.48763e-05
1.48335e-05
1.47846e-05
1.47484e-05
1.47148e-05
1.4695e-05
1.46744e-05
1.99999e-05
1.98262e-05
1.94541e-05
1.92159e-05
1.9001e-05
1.88105e-05
1.86122e-05
1.84521e-05
1.83029e-05
1.81531e-05
1.80031e-05
1.78566e-05
1.77154e-05
1.75767e-05
1.74412e-05
1.73098e-05
1.71803e-05
1.7056e-05
1.69338e-05
1.68148e-05
1.66979e-05
1.65868e-05
1.64723e-05
1.63715e-05
1.62613e-05
1.61635e-05
1.60626e-05
1.59644e-05
1.5869e-05
1.5777e-05
1.56858e-05
1.56015e-05
1.55146e-05
1.54346e-05
1.53544e-05
1.52744e-05
1.51995e-05
1.5125e-05
1.50542e-05
1.49903e-05
1.49271e-05
1.48695e-05
1.48164e-05
1.47627e-05
1.47164e-05
1.46666e-05
1.46269e-05
1.45913e-05
1.45657e-05
1.45461e-05
1.99999e-05
1.98259e-05
1.94497e-05
1.91985e-05
1.89823e-05
1.87968e-05
1.85937e-05
1.84268e-05
1.82753e-05
1.81237e-05
1.79717e-05
1.78227e-05
1.7679e-05
1.7538e-05
1.74e-05
1.72663e-05
1.71347e-05
1.70081e-05
1.68837e-05
1.67617e-05
1.66431e-05
1.65285e-05
1.64132e-05
1.6309e-05
1.61978e-05
1.60969e-05
1.59939e-05
1.58928e-05
1.57955e-05
1.57016e-05
1.56081e-05
1.55229e-05
1.54333e-05
1.53523e-05
1.52688e-05
1.51875e-05
1.51109e-05
1.50349e-05
1.4964e-05
1.4899e-05
1.48357e-05
1.47777e-05
1.4723e-05
1.46692e-05
1.46193e-05
1.4571e-05
1.45288e-05
1.44942e-05
1.44651e-05
1.44473e-05
1.99999e-05
1.98261e-05
1.94485e-05
1.91831e-05
1.89653e-05
1.87853e-05
1.85793e-05
1.84056e-05
1.82516e-05
1.80988e-05
1.79452e-05
1.77942e-05
1.76482e-05
1.75052e-05
1.73652e-05
1.72295e-05
1.70962e-05
1.69676e-05
1.68412e-05
1.67169e-05
1.65963e-05
1.64792e-05
1.6363e-05
1.62558e-05
1.61438e-05
1.604e-05
1.5935e-05
1.58313e-05
1.57327e-05
1.56367e-05
1.55417e-05
1.54554e-05
1.53638e-05
1.52814e-05
1.51956e-05
1.51134e-05
1.50348e-05
1.49589e-05
1.48875e-05
1.48225e-05
1.47593e-05
1.47019e-05
1.46458e-05
1.45929e-05
1.4541e-05
1.44942e-05
1.44513e-05
1.44185e-05
1.43876e-05
1.43721e-05
1.99999e-05
1.98268e-05
1.94501e-05
1.91703e-05
1.89504e-05
1.87756e-05
1.85692e-05
1.83889e-05
1.82322e-05
1.80785e-05
1.79239e-05
1.77713e-05
1.76234e-05
1.74787e-05
1.73372e-05
1.71998e-05
1.70653e-05
1.69349e-05
1.68068e-05
1.66807e-05
1.65583e-05
1.64394e-05
1.63223e-05
1.62128e-05
1.60999e-05
1.59937e-05
1.58869e-05
1.57812e-05
1.56813e-05
1.55834e-05
1.54876e-05
1.54001e-05
1.53071e-05
1.52231e-05
1.5136e-05
1.50528e-05
1.49729e-05
1.48974e-05
1.4826e-05
1.47615e-05
1.46985e-05
1.46423e-05
1.45855e-05
1.45335e-05
1.44812e-05
1.44353e-05
1.43931e-05
1.43617e-05
1.43317e-05
1.43164e-05
1.99999e-05
1.98281e-05
1.94546e-05
1.9161e-05
1.89382e-05
1.87679e-05
1.85637e-05
1.83773e-05
1.82174e-05
1.80631e-05
1.7908e-05
1.77542e-05
1.76049e-05
1.74588e-05
1.73163e-05
1.71776e-05
1.70423e-05
1.69105e-05
1.6781e-05
1.66535e-05
1.65296e-05
1.64094e-05
1.62916e-05
1.61802e-05
1.60667e-05
1.59585e-05
1.58501e-05
1.57429e-05
1.56418e-05
1.55426e-05
1.54463e-05
1.53576e-05
1.52639e-05
1.51784e-05
1.50906e-05
1.50066e-05
1.49262e-05
1.48512e-05
1.47802e-05
1.47169e-05
1.46544e-05
1.45997e-05
1.45429e-05
1.44918e-05
1.44399e-05
1.43948e-05
1.43537e-05
1.43237e-05
1.42955e-05
1.42803e-05
1.99999e-05
1.983e-05
1.94621e-05
1.91556e-05
1.89292e-05
1.87619e-05
1.85626e-05
1.83709e-05
1.82075e-05
1.80527e-05
1.78976e-05
1.77431e-05
1.75926e-05
1.74455e-05
1.73023e-05
1.71627e-05
1.7027e-05
1.68941e-05
1.67637e-05
1.66352e-05
1.65101e-05
1.6389e-05
1.62708e-05
1.61579e-05
1.60441e-05
1.59343e-05
1.58245e-05
1.57164e-05
1.56143e-05
1.55143e-05
1.54179e-05
1.53282e-05
1.52344e-05
1.51479e-05
1.50596e-05
1.49753e-05
1.48951e-05
1.48205e-05
1.47509e-05
1.46891e-05
1.46274e-05
1.45745e-05
1.45185e-05
1.44682e-05
1.44174e-05
1.43731e-05
1.4333e-05
1.43043e-05
1.42785e-05
1.42646e-05
1.99999e-05
1.98324e-05
1.94719e-05
1.91549e-05
1.89236e-05
1.87582e-05
1.85652e-05
1.83697e-05
1.82026e-05
1.80472e-05
1.78924e-05
1.77376e-05
1.75863e-05
1.74385e-05
1.72949e-05
1.71549e-05
1.70189e-05
1.68855e-05
1.67545e-05
1.66252e-05
1.64994e-05
1.63777e-05
1.62595e-05
1.61456e-05
1.60318e-05
1.59207e-05
1.58101e-05
1.57015e-05
1.55984e-05
1.54984e-05
1.54021e-05
1.53118e-05
1.52184e-05
1.51315e-05
1.5043e-05
1.49589e-05
1.48795e-05
1.48056e-05
1.4738e-05
1.46784e-05
1.46184e-05
1.45676e-05
1.45135e-05
1.44643e-05
1.44147e-05
1.43719e-05
1.43336e-05
1.43063e-05
1.42819e-05
1.42687e-05
1.99999e-05
1.98356e-05
1.94845e-05
1.91582e-05
1.89219e-05
1.87562e-05
1.85717e-05
1.83734e-05
1.82025e-05
1.80463e-05
1.78921e-05
1.77375e-05
1.75857e-05
1.74375e-05
1.72936e-05
1.71536e-05
1.70177e-05
1.68842e-05
1.67528e-05
1.66232e-05
1.64971e-05
1.63751e-05
1.62572e-05
1.61429e-05
1.60294e-05
1.59174e-05
1.58064e-05
1.56976e-05
1.5594e-05
1.54944e-05
1.53986e-05
1.53084e-05
1.52159e-05
1.51292e-05
1.50409e-05
1.49577e-05
1.48799e-05
1.48072e-05
1.47415e-05
1.46838e-05
1.46255e-05
1.45762e-05
1.45232e-05
1.44749e-05
1.44262e-05
1.43837e-05
1.43459e-05
1.43197e-05
1.4297e-05
1.42849e-05
1.99999e-05
1.98393e-05
1.94987e-05
1.91666e-05
1.89241e-05
1.87569e-05
1.8581e-05
1.83826e-05
1.82072e-05
1.80497e-05
1.7896e-05
1.77417e-05
1.75895e-05
1.7441e-05
1.72971e-05
1.71572e-05
1.70214e-05
1.6888e-05
1.67566e-05
1.66269e-05
1.65008e-05
1.63788e-05
1.62611e-05
1.61468e-05
1.60337e-05
1.59215e-05
1.58104e-05
1.57017e-05
1.55981e-05
1.5499e-05
1.54039e-05
1.53142e-05
1.52227e-05
1.51364e-05
1.50491e-05
1.49666e-05
1.48902e-05
1.48188e-05
1.47559e-05
1.47006e-05
1.46451e-05
1.45983e-05
1.45473e-05
1.45006e-05
1.44536e-05
1.4412e-05
1.43753e-05
1.43502e-05
1.43298e-05
1.43196e-05
1.99999e-05
1.98436e-05
1.95144e-05
1.91796e-05
1.89309e-05
1.87604e-05
1.85931e-05
1.83962e-05
1.82173e-05
1.8058e-05
1.79047e-05
1.77511e-05
1.75988e-05
1.745e-05
1.7306e-05
1.71664e-05
1.70309e-05
1.68978e-05
1.67665e-05
1.66369e-05
1.65108e-05
1.6389e-05
1.6272e-05
1.6158e-05
1.60455e-05
1.59333e-05
1.58224e-05
1.57139e-05
1.56105e-05
1.55124e-05
1.54188e-05
1.53297e-05
1.52404e-05
1.51546e-05
1.50689e-05
1.49879e-05
1.49134e-05
1.48444e-05
1.47845e-05
1.47319e-05
1.46801e-05
1.46354e-05
1.45863e-05
1.45414e-05
1.44953e-05
1.44545e-05
1.44194e-05
1.43956e-05
1.4377e-05
1.43679e-05
1.99999e-05
1.98483e-05
1.95311e-05
1.91966e-05
1.89419e-05
1.87676e-05
1.86077e-05
1.84144e-05
1.82321e-05
1.80707e-05
1.79176e-05
1.77647e-05
1.76125e-05
1.74635e-05
1.73194e-05
1.71802e-05
1.70452e-05
1.69126e-05
1.67815e-05
1.66521e-05
1.65262e-05
1.64048e-05
1.62885e-05
1.61753e-05
1.60637e-05
1.59519e-05
1.58415e-05
1.57334e-05
1.56308e-05
1.55338e-05
1.5442e-05
1.53542e-05
1.52672e-05
1.51824e-05
1.50988e-05
1.50194e-05
1.49468e-05
1.48807e-05
1.48238e-05
1.4774e-05
1.47258e-05
1.46832e-05
1.4636e-05
1.45929e-05
1.45474e-05
1.45073e-05
1.4474e-05
1.44512e-05
1.44346e-05
1.44268e-05
1.99999e-05
1.98534e-05
1.95486e-05
1.92173e-05
1.89574e-05
1.87784e-05
1.86243e-05
1.84363e-05
1.82515e-05
1.80874e-05
1.7934e-05
1.77819e-05
1.76297e-05
1.74804e-05
1.73362e-05
1.71972e-05
1.70626e-05
1.69306e-05
1.67999e-05
1.66706e-05
1.65449e-05
1.64241e-05
1.63087e-05
1.61965e-05
1.60858e-05
1.59748e-05
1.58648e-05
1.57575e-05
1.56559e-05
1.55603e-05
1.54706e-05
1.53846e-05
1.53e-05
1.52166e-05
1.51352e-05
1.50577e-05
1.49873e-05
1.49244e-05
1.48706e-05
1.48238e-05
1.4779e-05
1.47388e-05
1.46936e-05
1.46519e-05
1.46071e-05
1.45678e-05
1.45362e-05
1.45143e-05
1.44998e-05
1.44933e-05
1.99999e-05
1.98589e-05
1.95666e-05
1.92411e-05
1.89774e-05
1.87932e-05
1.86431e-05
1.84615e-05
1.8275e-05
1.8108e-05
1.79537e-05
1.7802e-05
1.765e-05
1.75002e-05
1.73555e-05
1.72166e-05
1.70825e-05
1.69509e-05
1.68204e-05
1.66913e-05
1.65658e-05
1.64455e-05
1.6331e-05
1.62199e-05
1.61103e-05
1.60002e-05
1.58909e-05
1.57845e-05
1.56841e-05
1.55902e-05
1.55027e-05
1.54188e-05
1.53366e-05
1.52553e-05
1.51761e-05
1.51007e-05
1.50327e-05
1.49731e-05
1.49224e-05
1.48785e-05
1.48371e-05
1.47994e-05
1.47561e-05
1.47152e-05
1.46716e-05
1.46328e-05
1.46029e-05
1.45817e-05
1.45692e-05
1.45643e-05
1.99999e-05
1.98645e-05
1.95849e-05
1.92675e-05
1.90018e-05
1.88121e-05
1.86642e-05
1.84894e-05
1.83025e-05
1.81323e-05
1.79766e-05
1.7825e-05
1.76729e-05
1.75224e-05
1.7377e-05
1.72379e-05
1.7104e-05
1.69727e-05
1.68424e-05
1.67133e-05
1.65878e-05
1.64679e-05
1.63543e-05
1.62444e-05
1.61359e-05
1.60268e-05
1.59183e-05
1.58129e-05
1.57138e-05
1.56218e-05
1.55366e-05
1.54551e-05
1.53755e-05
1.52965e-05
1.52195e-05
1.51464e-05
1.5081e-05
1.50242e-05
1.49766e-05
1.49359e-05
1.48979e-05
1.48623e-05
1.48208e-05
1.47805e-05
1.47382e-05
1.46997e-05
1.46705e-05
1.46505e-05
1.46403e-05
1.46367e-05
1.99999e-05
1.98703e-05
1.96033e-05
1.9296e-05
1.90301e-05
1.88354e-05
1.86878e-05
1.85196e-05
1.83337e-05
1.81605e-05
1.80028e-05
1.78507e-05
1.76983e-05
1.75469e-05
1.74004e-05
1.72607e-05
1.71267e-05
1.69956e-05
1.68653e-05
1.6736e-05
1.66104e-05
1.64907e-05
1.63777e-05
1.62689e-05
1.61615e-05
1.60534e-05
1.59458e-05
1.58415e-05
1.57436e-05
1.56536e-05
1.55707e-05
1.54919e-05
1.54149e-05
1.53383e-05
1.52637e-05
1.51929e-05
1.51299e-05
1.50757e-05
1.50312e-05
1.49937e-05
1.49592e-05
1.49248e-05
1.48858e-05
1.48455e-05
1.48042e-05
1.47659e-05
1.47365e-05
1.47181e-05
1.47104e-05
1.47078e-05
1.99999e-05
1.98762e-05
1.96217e-05
1.93262e-05
1.9062e-05
1.88629e-05
1.8714e-05
1.8552e-05
1.83683e-05
1.81923e-05
1.8032e-05
1.78788e-05
1.77259e-05
1.75734e-05
1.74255e-05
1.72846e-05
1.71501e-05
1.70188e-05
1.68883e-05
1.67587e-05
1.66327e-05
1.6513e-05
1.64003e-05
1.62924e-05
1.61861e-05
1.60792e-05
1.59726e-05
1.58693e-05
1.57728e-05
1.56845e-05
1.56039e-05
1.55278e-05
1.54536e-05
1.53797e-05
1.53072e-05
1.52384e-05
1.51775e-05
1.51258e-05
1.50843e-05
1.50501e-05
1.50186e-05
1.49856e-05
1.4949e-05
1.49089e-05
1.48672e-05
1.48283e-05
1.47993e-05
1.47828e-05
1.47769e-05
1.47753e-05
1.99999e-05
1.98821e-05
1.964e-05
1.93575e-05
1.90969e-05
1.88944e-05
1.87431e-05
1.85865e-05
1.84058e-05
1.82277e-05
1.80642e-05
1.79093e-05
1.77555e-05
1.76017e-05
1.74519e-05
1.73094e-05
1.71737e-05
1.70418e-05
1.69109e-05
1.67808e-05
1.66541e-05
1.65339e-05
1.64213e-05
1.63141e-05
1.62089e-05
1.61032e-05
1.59978e-05
1.58955e-05
1.58001e-05
1.57136e-05
1.56352e-05
1.55619e-05
1.54907e-05
1.54192e-05
1.53487e-05
1.52818e-05
1.52224e-05
1.51732e-05
1.51346e-05
1.51031e-05
1.50743e-05
1.50439e-05
1.50091e-05
1.49685e-05
1.49252e-05
1.48856e-05
1.48575e-05
1.48427e-05
1.48382e-05
1.48372e-05
1.99999e-05
1.98881e-05
1.96582e-05
1.93895e-05
1.91344e-05
1.89297e-05
1.87753e-05
1.86229e-05
1.84461e-05
1.82665e-05
1.80996e-05
1.79424e-05
1.77873e-05
1.76319e-05
1.748e-05
1.73352e-05
1.71979e-05
1.70649e-05
1.69333e-05
1.68024e-05
1.66748e-05
1.65537e-05
1.64407e-05
1.63338e-05
1.62296e-05
1.61251e-05
1.60207e-05
1.59193e-05
1.5825e-05
1.574e-05
1.56639e-05
1.55935e-05
1.55251e-05
1.54562e-05
1.53875e-05
1.53218e-05
1.52639e-05
1.52167e-05
1.51803e-05
1.51514e-05
1.51261e-05
1.50987e-05
1.50647e-05
1.50225e-05
1.49772e-05
1.49371e-05
1.49098e-05
1.48963e-05
1.48929e-05
1.48924e-05
1.99999e-05
1.9894e-05
1.96763e-05
1.94217e-05
1.91738e-05
1.89683e-05
1.88109e-05
1.86613e-05
1.84889e-05
1.83087e-05
1.81385e-05
1.79785e-05
1.78216e-05
1.76644e-05
1.751e-05
1.73627e-05
1.72231e-05
1.70886e-05
1.69559e-05
1.68239e-05
1.6695e-05
1.65728e-05
1.6459e-05
1.63522e-05
1.62486e-05
1.61452e-05
1.60417e-05
1.59409e-05
1.58475e-05
1.57639e-05
1.569e-05
1.56224e-05
1.55568e-05
1.54901e-05
1.54227e-05
1.53581e-05
1.53012e-05
1.52551e-05
1.52206e-05
1.51951e-05
1.51736e-05
1.51487e-05
1.51144e-05
1.50701e-05
1.5023e-05
1.49822e-05
1.49553e-05
1.4943e-05
1.49403e-05
1.49403e-05
1.99999e-05
1.98998e-05
1.96939e-05
1.94537e-05
1.92146e-05
1.90101e-05
1.88499e-05
1.87019e-05
1.85341e-05
1.83543e-05
1.81811e-05
1.80179e-05
1.78586e-05
1.76995e-05
1.75424e-05
1.7392e-05
1.72497e-05
1.71132e-05
1.6979e-05
1.68457e-05
1.67153e-05
1.65915e-05
1.64767e-05
1.63697e-05
1.62666e-05
1.61641e-05
1.60612e-05
1.59611e-05
1.58682e-05
1.5786e-05
1.57142e-05
1.56494e-05
1.55862e-05
1.55212e-05
1.54548e-05
1.53906e-05
1.53339e-05
1.52883e-05
1.52559e-05
1.5234e-05
1.52162e-05
1.51929e-05
1.51576e-05
1.51114e-05
1.50625e-05
1.50208e-05
1.4994e-05
1.49822e-05
1.49798e-05
1.49803e-05
1.99999e-05
1.99056e-05
1.97113e-05
1.94855e-05
1.92564e-05
1.90546e-05
1.88923e-05
1.87452e-05
1.85818e-05
1.84034e-05
1.82277e-05
1.8061e-05
1.7899e-05
1.77375e-05
1.75775e-05
1.74239e-05
1.72784e-05
1.71394e-05
1.70033e-05
1.68681e-05
1.67359e-05
1.66105e-05
1.64944e-05
1.63871e-05
1.62844e-05
1.61823e-05
1.60798e-05
1.59802e-05
1.5888e-05
1.58069e-05
1.57373e-05
1.5675e-05
1.56141e-05
1.55504e-05
1.54844e-05
1.54198e-05
1.53623e-05
1.5317e-05
1.52867e-05
1.52684e-05
1.52536e-05
1.5231e-05
1.51948e-05
1.51467e-05
1.5096e-05
1.50531e-05
1.50259e-05
1.50139e-05
1.50115e-05
1.50121e-05
1.99999e-05
1.99112e-05
1.97285e-05
1.9517e-05
1.92989e-05
1.91015e-05
1.89381e-05
1.87913e-05
1.86319e-05
1.84559e-05
1.82786e-05
1.81086e-05
1.79435e-05
1.77792e-05
1.76161e-05
1.7459e-05
1.73101e-05
1.71683e-05
1.70297e-05
1.68923e-05
1.6758e-05
1.66305e-05
1.65133e-05
1.64054e-05
1.63027e-05
1.62009e-05
1.60988e-05
1.59992e-05
1.59073e-05
1.58278e-05
1.57603e-05
1.57003e-05
1.56411e-05
1.55786e-05
1.55125e-05
1.54467e-05
1.53877e-05
1.53426e-05
1.53143e-05
1.52989e-05
1.52862e-05
1.52641e-05
1.52267e-05
1.51769e-05
1.51242e-05
1.50798e-05
1.50512e-05
1.50382e-05
1.50353e-05
1.50358e-05
1.99999e-05
1.99168e-05
1.97454e-05
1.95481e-05
1.93416e-05
1.91504e-05
1.8987e-05
1.88405e-05
1.86847e-05
1.85118e-05
1.83339e-05
1.81611e-05
1.79926e-05