/*--------------------------------*- C++ -*----------------------------------*\
  =========                 |
  \\      /  F ield         | OpenFOAM: The Open Source CFD Toolbox
   \\    /   O peration     | Website:  https://openfoam.org
    \\  /    A nd           | Version:  7
     \\/     M anipulation  |
\*---------------------------------------------------------------------------*/
FoamFile
{
    version     2.0;
    format      ascii;
    class       volScalarField;
    location    "0.02";
    object      nut;
}
// * * * * * * * * * * * * * * * * * * * * * * * * * * * * * * * * * * * * * //

dimensions      [0 2 -1 0 0 0 0];

internalField   nonuniform List<scalar> 
70000
(
0
0
0
0
0
0
0
0
0
0
0
0
0
0
0
0
0
0
0
0
0
0
0
0
0
0
0
0
0
0
0
0
0
0
0
0
0
0
0
0
0
0
0
0
0
0
0
1.68967e-12
0
0
0
0
0
0
0
0
0
0
0
0
0
0
0
0
0
0
0
0
0
0
0
0
0
0
0
0
0
0
0
0
0
0
0
0
0
0
0
0
0
0
0
0
0
0
0
0
0
3.51549e-12
0
0
0
0
0
0
0
0
0
0
0
0
0
0
0
0
0
0
0
0
0
0
0
0
0
0
0
0
0
0
0
0
0
0
0
0
0
0
0
0
0
0
0
0
0
0
0
5.29254e-14
0
5.33049e-12
0
0
0
0
0
0
0
0
0
0
0
0
0
0
0
0
0
0
0
0
0
0
0
0
0
0
0
0
0
0
0
0
0
0
0
0
0
0
0
0
0
0
0
0
0
0
0
7.30056e-13
0
6.96846e-12
0
0
0
0
0
0
0
0
0
0
0
0
0
0
0
0
0
0
0
0
0
0
0
0
0
0
0
0
0
0
0
0
0
0
0
0
0
0
0
0
0
0
0
0
0
5.18915e-14
0
1.7927e-12
0
8.71155e-12
0
0
9.44934e-10
0
0
0
0
0
0
0
0
0
0
0
0
0
0
0
0
0
0
0
0
0
0
0
0
0
0
0
0
0
0
0
0
0
0
0
0
0
0
0
3.12008e-15
1.81183e-13
3.73656e-14
9.23406e-13
0
3.20363e-12
0
1.06957e-11
0
0
1.32317e-08
0
0
0
0
0
0
0
0
0
0
0
0
0
0
0
0
0
0
0
0
0
0
0
0
0
0
0
0
0
0
0
0
0
0
0
0
0
1.20522e-13
2.48648e-13
4.42704e-13
7.83128e-13
6.7912e-13
1.90817e-12
3.06227e-13
4.84187e-12
0
1.27578e-11
0
0
1.21259e-08
0
0
0
0
0
0
0
0
0
0
0
0
0
0
0
0
0
0
0
0
0
0
0
0
0
0
0
0
0
0
0
0
0
0
0
0
3.86131e-14
3.2644e-13
5.69867e-13
8.49419e-13
1.39282e-12
1.32031e-12
2.97206e-12
1.17993e-12
6.62477e-12
0
1.46628e-11
0
0
1.11033e-08
0
0
0
0
0
0
0
0
0
0
0
0
0
0
0
0
0
0
0
0
0
0
0
0
0
0
0
0
0
0
0
0
0
0
0
0
1.27751e-13
5.02759e-13
8.79055e-13
1.24561e-12
2.02798e-12
1.9832e-12
4.11636e-12
2.15463e-12
8.49222e-12
3.42444e-13
1.62817e-11
9.29703e-13
0
1.02537e-08
0
0
0
0
0
0
0
0
0
0
0
0
0
0
0
0
0
0
0
0
0
0
0
0
0
0
0
0
0
0
0
0
0
0
0
0
2.35837e-13
7.02269e-13
1.22943e-12
1.6862e-12
2.7412e-12
2.72766e-12
5.38186e-12
3.306e-12
1.04406e-11
2.45808e-12
1.76979e-11
6.63007e-12
0
9.54483e-09
0
0
0
0
0
0
0
0
0
0
0
0
0
0
0
0
0
0
0
0
0
0
0
0
0
0
0
0
0
0
0
0
0
0
0
0
4.36044e-13
1.00021e-12
1.69865e-12
2.2553e-12
3.61866e-12
3.65577e-12
6.86478e-12
4.76688e-12
1.26007e-11
5.16748e-12
1.92537e-11
1.29629e-11
0
8.90484e-09
0
0
0
0
0
0
0
0
0
0
0
0
0
0
0
0
0
0
0
0
0
0
0
0
0
0
0
0
0
0
0
0
0
0
0
2.56335e-13
8.33039e-13
1.50828e-12
2.41076e-12
3.08245e-12
4.80239e-12
4.91681e-12
8.713e-12
6.69792e-12
1.50865e-11
8.6011e-12
2.12087e-11
1.98334e-11
1.09936e-12
8.26706e-09
0
0
0
0
0
0
0
0
3.80133e-11
8.87136e-11
1.77739e-11
0
0
0
0
0
0
0
0
0
0
0
0
0
0
0
0
0
0
0
0
0
0
0
1.8672e-13
8.54819e-13
1.59068e-12
2.4104e-12
3.57322e-12
4.40084e-12
6.5522e-12
6.80347e-12
1.12424e-11
9.45881e-12
1.83035e-11
1.31013e-11
2.41082e-11
2.73713e-11
7.21123e-12
7.61139e-09
0
0
0
0
0
0
0
0
0
0
6.79302e-11
1.89658e-10
1.85637e-10
7.08278e-11
1.70615e-11
9.84909e-13
0
0
0
0
0
0
0
0
0
0
0
0
0
0
0
0
0
5.37301e-13
1.22256e-12
2.06205e-12
3.02995e-12
4.06675e-12
5.58681e-12
6.65953e-12
9.35763e-12
9.86558e-12
1.50345e-11
1.36895e-11
2.29446e-11
1.93401e-11
2.87911e-11
3.62422e-11
1.5528e-11
6.94406e-09
0
0
0
1.31313e-11
0
0
0
0
0
0
0
0
6.19006e-11
1.50284e-10
2.58032e-10
3.15761e-10
2.23548e-10
9.60632e-11
3.69469e-11
1.44678e-11
5.68664e-12
1.92773e-12
8.31398e-14
0
0
0
0
0
0
0
4.32489e-13
1.05909e-12
1.74203e-12
2.59408e-12
3.52819e-12
4.6539e-12
5.98474e-12
7.38544e-12
9.42993e-12
1.09211e-11
1.43621e-11
1.53256e-11
2.13985e-11
2.07486e-11
3.04583e-11
2.87232e-11
3.67363e-11
4.77224e-11
2.69115e-11
6.27628e-09
0
0
0
1.31268e-10
0
0
0
0
0
0
0
0
0
2.32322e-11
5.72683e-11
9.92481e-11
1.63144e-10
2.55957e-10
3.64203e-10
4.38313e-10
3.78999e-10
2.20153e-10
1.09551e-10
5.68899e-11
3.26211e-11
2.08529e-11
1.44746e-11
1.07899e-11
8.61137e-12
7.56144e-12
7.20628e-12
7.44208e-12
8.00928e-12
8.96443e-12
1.01275e-11
1.16217e-11
1.34485e-11
1.54139e-11
1.82243e-11
2.03892e-11
2.4897e-11
2.65571e-11
3.38612e-11
3.41152e-11
4.44654e-11
4.46251e-11
5.13721e-11
6.4873e-11
4.3497e-11
5.6167e-09
0
0
0
2.46373e-10
0
0
0
0
0
0
0
0
0
0
1.23318e-11
3.35996e-11
5.54307e-11
7.905e-11
1.07174e-10
1.46083e-10
2.07237e-10
2.97573e-10
4.15744e-10
5.46684e-10
6.39692e-10
5.86248e-10
4.046e-10
2.46114e-10
1.53076e-10
1.03653e-10
7.67555e-11
6.14529e-11
5.20329e-11
4.63917e-11
4.31666e-11
4.19707e-11
4.24229e-11
4.36092e-11
4.65661e-11
4.88456e-11
5.43117e-11
5.62382e-11
6.48817e-11
6.55058e-11
7.63563e-11
7.75138e-11
8.22252e-11
9.64391e-11
7.13708e-11
4.9717e-09
0
0
0
3.48815e-10
0
0
0
0
0
0
0
0
0
0
0
9.21478e-12
2.27597e-11
3.59407e-11
4.949e-11
6.40575e-11
8.02313e-11
9.89094e-11
1.2166e-10
1.52576e-10
1.99416e-10
2.72447e-10
3.78473e-10
5.23555e-10
7.07397e-10
9.1691e-10
1.06104e-09
1.00384e-09
7.84959e-10
5.67908e-10
4.17614e-10
3.25393e-10
2.69483e-10
2.33888e-10
2.11839e-10
1.95354e-10
1.88524e-10
1.79041e-10
1.81197e-10
1.73152e-10
1.78455e-10
1.72995e-10
1.68124e-10
1.75929e-10
1.33947e-10
4.34687e-09
0
0
0
4.26735e-10
0
0
0
0
0
0
0
0
0
0
0
4.32208e-14
9.70457e-12
1.78161e-11
2.49989e-11
3.17406e-11
3.83764e-11
4.52012e-11
5.23654e-11
6.00821e-11
6.84205e-11
7.7677e-11
8.82878e-11
1.01712e-10
1.21228e-10
1.53653e-10
2.09267e-10
3.00559e-10
4.43412e-10
6.60318e-10
9.8067e-10
1.4151e-09
1.87122e-09
2.08925e-09
1.95004e-09
1.61792e-09
1.30893e-09
1.05951e-09
8.94786e-10
7.55029e-10
6.64088e-10
5.76454e-10
4.98173e-10
4.49645e-10
3.32027e-10
3.74738e-09
0
0
0
4.65867e-10
0
0
0
0
0
0
0
0
0
0
0
0
5.58428e-12
1.12085e-11
1.50631e-11
1.75818e-11
1.90211e-11
1.95357e-11
1.90938e-11
1.76297e-11
1.48111e-11
1.03479e-11
3.51613e-12
0
0
0
0
0
0
0
0
0
0
0
0
2.04632e-10
8.69709e-10
1.90146e-09
3.08688e-09
3.70093e-09
3.53324e-09
2.92714e-09
2.26258e-09
1.7499e-09
1.19486e-09
3.17757e-09
0
0
0
4.49794e-10
0
0
0
0
0
0
0
0
0
0
0
0
5.23763e-12
9.63168e-12
1.1637e-11
1.16664e-11
9.93762e-12
6.53864e-12
1.34704e-12
0
0
0
0
0
0
0
0
0
0
0
0
0
0
0
0
0
0
0
0
0
0
0
1.10876e-09
3.37989e-09
3.93031e-09
2.64041e-09
0
0
0
3.60567e-10
0
0
0
0
0
0
0
0
0
0
0
0
6.25776e-12
9.91923e-12
1.06839e-11
8.95958e-12
4.93289e-12
0
0
0
0
0
0
0
0
0
0
0
0
0
0
0
0
0
0
0
0
0
0
0
0
0
0
0
0
2.13721e-09
0
0
0
1.79511e-10
0
0
0
0
0
0
0
0
0
0
0
6.32897e-13
7.63666e-12
1.06349e-11
1.02564e-11
6.9159e-12
7.8328e-13
0
0
0
0
0
0
0
0
0
0
0
0
0
0
0
0
0
0
0
0
0
0
0
0
0
0
0
0
1.66747e-09
0
0
0
0
0
0
0
0
0
0
0
0
0
0
0
2.26276e-12
8.97703e-12
1.11522e-11
9.43942e-12
4.27104e-12
0
0
0
0
0
0
0
0
0
0
0
0
0
0
0
0
0
0
0
0
0
0
0
0
0
0
0
0
0
1.22908e-09
0
0
0
0
0
0
0
0
0
0
0
0
0
0
0
3.8821e-12
1.00753e-11
1.11335e-11
7.72526e-12
3.04172e-13
0
0
0
0
0
0
0
0
0
0
0
0
0
0
0
0
0
0
0
0
0
0
0
0
0
0
0
0
0
8.18741e-10
0
0
0
0
0
0
0
0
0
0
0
0
0
0
0
5.39955e-12
1.07436e-11
1.02807e-11
4.68484e-12
0
0
0
0
0
0
0
0
0
0
0
0
0
0
0
0
0
0
0
0
0
0
0
0
0
0
0
0
0
0
4.32575e-10
0
0
0
0
0
0
0
0
0
0
0
0
0
0
0
6.69384e-12
1.07467e-11
8.23482e-12
0
0
0
0
0
0
0
0
0
0
0
0
0
0
0
0
0
0
0
0
0
0
0
0
0
0
0
0
0
0
0
6.67797e-11
0
0
0
0
2.05259e-10
0
0
0
0
0
0
0
0
0
0
7.59918e-12
9.77503e-12
4.53259e-12
0
0
0
0
0
0
0
0
0
0
0
0
0
0
0
0
0
0
0
0
0
0
0
0
0
0
0
0
0
0
0
0
0
0
0
0
3.70997e-10
0
0
0
0
0
0
0
0
0
0
7.89342e-12
7.42654e-12
0
0
0
0
0
0
0
0
0
0
0
0
0
0
0
0
0
0
0
0
0
0
0
0
0
0
0
0
0
0
0
0
0
0
0
0
0
4.73684e-10
0
0
0
0
0
0
0
0
0
0
7.28567e-12
3.18639e-12
0
0
0
0
0
0
0
0
0
0
0
0
0
0
0
0
0
0
0
0
0
0
0
0
0
0
0
0
0
0
0
0
0
0
0
0
0
4.91007e-10
0
0
0
0
0
0
0
0
0
8.59745e-13
5.39936e-12
0
0
0
0
0
0
0
0
0
0
0
0
0
0
0
0
0
0
0
0
0
0
0
0
0
0
0
0
0
0
0
0
0
0
8.68636e-10
0
0
0
4.02948e-10
0
0
0
0
0
0
0
0
0
1.29988e-12
1.74869e-12
0
0
0
0
0
0
0
0
0
0
0
0
0
0
0
0
0
0
0
0
0
0
0
0
0
0
0
0
0
0
0
0
0
0
2.01769e-09
0
0
0
1.95168e-10
0
0
0
0
0
0
0
0
0
8.06723e-13
0
0
0
0
0
0
0
0
0
0
0
0
0
0
0
0
0
0
0
0
0
0
0
0
0
0
0
0
0
0
0
0
0
0
0
3.0434e-09
0
0
0
0
0
0
0
0
0
0
0
0
0
0
0
0
0
0
0
0
0
0
0
0
0
0
0
0
0
0
0
0
0
0
0
0
0
0
0
0
0
0
0
0
0
0
0
0
0
3.94186e-09
0
0
0
0
0
0
0
0
0
0
0
0
0
0
0
0
0
0
0
0
0
0
0
0
0
0
0
0
0
0
0
0
0
0
0
0
0
0
0
0
0
0
0
0
0
0
0
0
0
4.71251e-09
0
0
0
0
1.35824e-10
0
0
0
0
0
0
0
0
0
0
0
0
0
0
0
0
0
0
0
0
0
0
0
0
0
0
0
0
0
0
0
0
0
0
0
0
0
0
0
0
0
0
0
0
5.35864e-09
0
0
0
0
4.4127e-10
0
0
0
0
0
0
0
0
0
0
0
0
0
0
0
0
0
0
0
0
0
0
0
0
0
0
0
0
0
0
0
0
0
0
0
0
0
0
0
0
0
0
1.68377e-10
0
5.88603e-09
0
0
0
0
7.0194e-10
0
0
0
0
0
1.66568e-11
0
0
0
0
0
0
0
0
0
0
0
0
0
0
0
0
0
0
0
0
0
0
0
0
0
0
0
0
0
0
0
0
0
0
0
8.32027e-10
1.60431e-09
0
6.30121e-09
0
0
0
0
9.10833e-10
0
0
0
0
6.98267e-11
1.05497e-10
4.76067e-11
1.19514e-11
0
0
0
0
0
0
0
0
0
0
0
0
0
0
0
0
0
0
0
0
0
0
0
0
0
0
0
0
0
0
0
6.70213e-10
1.57924e-09
2.20025e-09
2.58502e-09
0
6.61139e-09
0
0
0
0
1.06888e-09
0
0
0
0
1.69371e-10
2.18533e-10
1.20754e-10
3.69205e-11
0
0
0
0
0
0
0
0
0
0
0
0
0
0
0
0
0
0
0
0
0
0
0
0
0
0
0
0
0
3.32969e-10
1.39691e-09
2.21821e-09
2.82904e-09
3.14236e-09
3.20896e-09
0
6.82528e-09
0
0
0
0
1.18598e-09
4.30467e-10
0
0
0
2.95882e-10
3.5998e-10
2.18212e-10
7.38156e-11
0
0
0
0
0
0
0
0
0
0
0
0
0
0
0
0
0
0
0
0
0
0
0
0
0
0
0
0
9.70062e-10
1.99332e-09
2.81344e-09
3.3609e-09
3.69414e-09
3.74358e-09
3.55885e-09
0
6.95297e-09
0
0
0
0
1.281e-09
1.10875e-09
0
0
0
4.59425e-10
5.35432e-10
3.44984e-10
1.26415e-10
0
0
0
0
0
0
0
0
0
0
0
0
0
0
0
0
0
0
0
0
0
0
0
0
0
0
2.55437e-10
1.46722e-09
2.50583e-09
3.30079e-09
3.8653e-09
4.15479e-09
4.24553e-09
4.07787e-09
3.70076e-09
0
7.00491e-09
0
0
0
0
1.38064e-09
1.83033e-09
4.57728e-11
0
6.95649e-11
6.73611e-10
7.52412e-10
5.0698e-10
1.99202e-10
0
0
0
0
0
0
0
0
0
0
0
0
0
0
0
0
0
0
0
0
0
0
0
0
0
6.0305e-10
1.85225e-09
2.89981e-09
3.72253e-09
4.27665e-09
4.59806e-09
4.65948e-09
4.54678e-09
4.20513e-09
3.68522e-09
0
6.99095e-09
0
0
0
0
1.51747e-09
2.59619e-09
9.03192e-10
2.98899e-11
4.10191e-10
9.56167e-10
1.02119e-09
7.11469e-10
2.97501e-10
0
0
0
0
0
0
0
0
0
0
0
0
0
0
0
0
0
0
0
0
0
0
0
0
8.15767e-10
2.10617e-09
3.19909e-09
4.04153e-09
4.63511e-09
4.95807e-09
5.06188e-09
4.92937e-09
4.65025e-09
4.17214e-09
3.55065e-09
0
6.91996e-09
0
0
0
0
1.72729e-09
3.41316e-09
1.89959e-09
7.74119e-10
8.89294e-10
1.3296e-09
1.35587e-09
9.67886e-10
4.27878e-10
0
0
0
0
0
0
0
0
0
0
0
0
0
0
0
0
0
0
0
0
0
0
0
8.80975e-10
2.24064e-09
3.38226e-09
4.27906e-09
4.90228e-09
5.27381e-09
5.38738e-09
5.30361e-09
5.01039e-09
4.59797e-09
4.01562e-09
3.32694e-09
0
6.79982e-09
8.22545e-11
0
0
0
2.04594e-09
4.29434e-09
3.03908e-09
1.71088e-09
1.53659e-09
1.82131e-09
1.77521e-09
1.28863e-09
5.98588e-10
0
0
0
0
0
0
0
0
0
0
0
0
0
0
0
0
0
0
0
0
0
0
8.0018e-10
2.24121e-09
3.459e-09
4.41225e-09
5.09773e-09
5.5064e-09
5.67436e-09
5.60518e-09
5.36398e-09
4.94068e-09
4.42404e-09
3.76479e-09
3.03764e-09
0
6.63757e-09
1.08296e-09
0
0
0
2.50624e-09
5.25835e-09
4.32818e-09
2.85834e-09
2.38374e-09
2.46381e-09
2.30365e-09
1.69023e-09
8.20278e-10
0
0
0
0
0
0
0
0
0
0
0
0
0
0
0
0
0
0
0
0
0
5.58372e-10
2.10817e-09
3.41398e-09
4.44966e-09
5.19787e-09
5.6743e-09
5.88401e-09
5.87216e-09
5.648e-09
5.27797e-09
4.75196e-09
4.15608e-09
3.44295e-09
2.70128e-09
0
6.43957e-09
1.96032e-09
0
0
0
3.135e-09
6.32754e-09
5.77664e-09
4.23545e-09
3.4647e-09
3.29535e-09
2.97271e-09
2.19492e-09
1.10719e-09
0
0
0
0
0
0
0
0
0
0
0
0
0
0
0
0
0
0
0
0
1.45312e-10
1.82556e-09
3.24688e-09
4.37581e-09
5.21074e-09
5.75382e-09
6.03416e-09
6.06624e-09
5.90026e-09
5.54807e-09
5.07523e-09
4.47037e-09
3.81641e-09
3.06872e-09
2.33266e-09
0
6.21142e-09
2.71469e-09
0
0
0
3.95014e-09
7.52527e-09
7.39741e-09
5.86265e-09
4.81628e-09
4.36062e-09
3.82253e-09
2.83274e-09
1.47881e-09
0
0
0
0
0
0
0
0
0
0
0
0
0
0
0
0
0
0
0
0
1.38232e-09
2.94151e-09
4.19027e-09
5.12121e-09
5.7529e-09
6.10148e-09
6.20487e-09
6.08318e-09
5.78856e-09
5.33327e-09
4.78059e-09
4.11733e-09
3.42317e-09
2.65717e-09
1.94385e-09
0
5.95819e-09
3.34732e-09
0
0
0
4.95844e-09
8.87259e-09
9.20585e-09
7.76239e-09
6.47887e-09
5.7118e-09
4.90377e-09
3.64404e-09
1.96223e-09
5.54785e-11
0
0
0
0
0
0
0
0
0
0
0
0
0
0
0
0
0
0
7.56625e-10
2.48685e-09
3.87738e-09
4.92925e-09
5.65703e-09
6.09384e-09
6.26512e-09
6.21385e-09
5.96261e-09
5.56334e-09
5.02728e-09
4.41473e-09
3.71055e-09
2.99134e-09
2.22083e-09
1.54494e-09
0
5.68456e-09
3.86048e-09
0
0
4.4186e-10
6.15369e-09
1.03845e-08
1.12176e-08
9.95888e-09
8.49701e-09
7.40988e-09
6.28007e-09
4.68301e-09
2.59553e-09
2.08361e-10
0
0
0
0
0
0
0
0
0
0
0
0
0
0
0
0
0
0
1.86145e-09
3.42686e-09
4.62046e-09
5.46723e-09
5.99786e-09
6.25512e-09
6.2698e-09
6.08712e-09
5.7295e-09
5.2473e-09
4.65013e-09
3.995e-09
3.26487e-09
2.53348e-09
1.77023e-09
1.1445e-09
0
5.39493e-09
4.25779e-09
3.2115e-10
0
1.91532e-09
7.51523e-09
1.20654e-08
1.3445e-08
1.24767e-08
1.09197e-08
9.52641e-09
8.03161e-09
6.02265e-09
3.43289e-09
4.45639e-10
0
0
0
0
0
0
0
0
0
0
0
0
0
0
0
0
0
1.04485e-09
2.81828e-09
4.18565e-09
5.1706e-09
5.81581e-09
6.16286e-09
6.25989e-09
6.14003e-09
5.84837e-09
5.40575e-09
4.86003e-09
4.21885e-09
3.53604e-09
2.79282e-09
2.06026e-09
1.31441e-09
7.49916e-10
0
5.09355e-09
4.54475e-09
1.41028e-09
4.35992e-10
3.43425e-09
9.00708e-09
1.39051e-08
1.58922e-08
1.5338e-08
1.37997e-08
1.21458e-08
1.02602e-08
7.76224e-09
4.55247e-09
8.09207e-10
0
0
0
0
0
0
0
0
0
0
0
0
0
0
0
0
9.45866e-12
2.03262e-09
3.60575e-09
4.75914e-09
5.53631e-09
5.99178e-09
6.17335e-09
6.13123e-09
5.89858e-09
5.51875e-09
5.01044e-09
4.41827e-09
3.74804e-09
3.05039e-09
2.3051e-09
1.58086e-09
8.61149e-10
3.67628e-10
0
4.78454e-09
4.72889e-09
2.33874e-09
1.83585e-09
4.94067e-09
1.05773e-08
1.58737e-08
1.85484e-08
1.85567e-08
1.71918e-08
1.53675e-08
1.30965e-08
1.00388e-08
6.06912e-09
1.36497e-09
0
0
0
0
0
0
0
0
0
0
0
0
0
0
0
0
1.04511e-09
2.86377e-09
4.21532e-09
5.15251e-09
5.73186e-09
6.0146e-09
6.05106e-09
5.89103e-09
5.56614e-09
5.11703e-09
4.56011e-09
3.93647e-09
3.25017e-09
2.54882e-09
1.811e-09
1.10319e-09
4.17224e-10
3.41682e-12
0
4.47178e-09
4.81928e-09
3.10135e-09
3.08255e-09
6.37282e-09
1.21579e-08
1.79169e-08
2.13789e-08
2.21293e-08
2.11453e-08
1.93057e-08
1.67087e-08
1.3044e-08
8.15544e-09
2.21933e-09
0
0
0
0
0
0
0
0
0
0
0
0
0
0
0
0
1.9384e-09
3.52442e-09
4.64839e-09
5.3774e-09
5.77496e-09
5.9048e-09
5.81707e-09
5.55952e-09
5.16129e-09
4.65985e-09
4.06924e-09
3.42725e-09
2.73615e-09
2.04074e-09
1.31861e-09
6.34213e-10
0
0
0
4.15897e-09
4.82597e-09
3.69746e-09
4.14626e-09
7.6684e-09
1.36679e-08
1.99536e-08
2.43147e-08
2.60197e-08
2.56916e-08
2.40844e-08
2.13122e-08
1.70511e-08
1.10784e-08
3.55023e-09
0
0
0
0
0
0
0
0
0
0
0
0
0
0
0
8.09139e-10
2.66921e-09
4.01164e-09
4.91364e-09
5.44939e-09
5.68467e-09
5.68253e-09
5.49105e-09
5.155e-09
4.70056e-09
4.16187e-09
3.55067e-09
2.9017e-09
2.21554e-09
1.53445e-09
8.35067e-10
1.80248e-10
0
0
0
3.84947e-09
4.75959e-09
4.13134e-09
5.00488e-09
8.76946e-09
1.50176e-08
2.18755e-08
2.72436e-08
3.01405e-08
3.08194e-08
2.98209e-08
2.71756e-08
2.24532e-08
1.52652e-08
5.66912e-09
0
0
0
0
0
0
0
0
0
0
0
0
0
0
0
1.63524e-09
3.22923e-09
4.33072e-09
5.02453e-09
5.38621e-09
5.48022e-09
5.36682e-09
5.0909e-09
4.69374e-09
4.19845e-09
3.63587e-09
3.0156e-09
2.36954e-09
1.69681e-09
1.03726e-09
3.66817e-10
0
0
0
0
3.54628e-09
4.63113e-09
4.41205e-09
5.64608e-09
9.62755e-09
1.61166e-08
2.35521e-08
3.00032e-08
3.43283e-08
3.64353e-08
3.65848e-08
3.46096e-08
2.9815e-08
2.14233e-08
9.15428e-09
0
0
0
0
0
0
0
0
0
0
0
0
0
0
4.05505e-10
2.29288e-09
3.6197e-09
4.49272e-09
4.99727e-09
5.20616e-09
5.18015e-09
4.97535e-09
4.63288e-09
4.19032e-09
3.66781e-09
3.09309e-09
2.47381e-09
1.83929e-09
1.18741e-09
5.55699e-10
0
0
0
0
0
3.25195e-09
4.4517e-09
4.55267e-09
6.06801e-09
1.02081e-08
1.68834e-08
2.48418e-08
3.23835e-08
3.83226e-08
4.23061e-08
4.43142e-08
4.3903e-08
3.99163e-08
3.07605e-08
1.51628e-08
0
0
0
0
0
0
0
0
0
0
0
0
0
0
1.19402e-09
2.77796e-09
3.84879e-09
4.51229e-09
4.84933e-09
4.92735e-09
4.80195e-09
4.5243e-09
4.13144e-09
3.65746e-09
3.11978e-09
2.54336e-09
1.93407e-09
1.31872e-09
6.93926e-10
9.5705e-11
0
0
0
0
0
2.96863e-09
4.23216e-09
4.5694e-09
6.27899e-09
1.0494e-08
1.72557e-08
2.56116e-08
3.41456e-08
4.17597e-08
4.79945e-08
5.26688e-08
5.51353e-08
5.36938e-08
4.53444e-08
2.62192e-08
0
0
0
0
0
0
0
0
0
0
0
0
0
0
1.80439e-09
3.09487e-09
3.92914e-09
4.40587e-09
4.59833e-09
4.56701e-09
4.36159e-09
4.02812e-09
3.59965e-09
3.10686e-09
2.56469e-09
1.99561e-09
1.40384e-09
8.14379e-10
2.22605e-10
0
0
0
0
0
0
2.69804e-09
3.98287e-09
4.48055e-09
6.29673e-09
1.04879e-08
1.72011e-08
2.57588e-08
3.5059e-08
4.42055e-08
5.28294e-08
6.08373e-08
6.77511e-08
7.17679e-08
6.84181e-08
4.83008e-08
0
0
0
0
0
0
0
0
0
0
0
0
0
7.04659e-10
2.23672e-09
3.25449e-09
3.8765e-09
4.19074e-09
4.2613e-09
4.14109e-09
3.87363e-09
3.49991e-09
3.04916e-09
2.54888e-09
2.01178e-09
1.45805e-09
8.90554e-10
3.32726e-10
0
0
0
0
0
0
0
2.44153e-09
3.71349e-09
4.30566e-09
6.1467e-09
1.02117e-08
1.67239e-08
2.52349e-08
3.4954e-08
4.52384e-08
5.59782e-08
6.74252e-08
7.99078e-08
9.28725e-08
1.03061e-07
9.55766e-08
2.04434e-08
0
0
0
0
0
0
0
0
0
0
0
0
1.28663e-09
2.49885e-09
3.27162e-09
3.70823e-09
3.88439e-09
3.85469e-09
3.6645e-09
3.35142e-09
2.95156e-09
2.49053e-09
1.99291e-09
1.46943e-09
9.38273e-10
4.01143e-10
0
0
0
0
0
0
0
0
2.2001e-09
3.43288e-09
4.06432e-09
5.85999e-09
9.70339e-09
1.58661e-08
2.40606e-08
3.37754e-08
4.45791e-08
5.66766e-08
7.07037e-08
8.81652e-08
1.11091e-07
1.43259e-07
1.85202e-07
1.34185e-07
0
0
0
0
0
0
0
0
0
0
0
2.67025e-10
1.67733e-09
2.60361e-09
3.1629e-09
3.44171e-09
3.50348e-09
3.39383e-09
3.15114e-09
2.80745e-09
2.39425e-09
1.93381e-09
1.448e-09
9.45812e-10
4.43668e-10
0
0
0
0
0
0
0
0
0
1.97414e-09
3.14866e-09
3.77613e-09
5.46881e-09
9.01555e-09
1.46962e-08
2.23326e-08
3.15999e-08
4.223e-08
5.45524e-08
6.94017e-08
8.88364e-08
1.16326e-07
1.60055e-07
2.35735e-07
2.46215e-07
0
0
0
0
0
0
0
0
0
0
0
8.15658e-10
1.88941e-09
2.56849e-09
2.94695e-09
3.09502e-09
3.06476e-09
2.89384e-09
2.61446e-09
2.25365e-09
1.83864e-09
1.38859e-09
9.22868e-10
4.48945e-10
0
0
0
0
0
0
0
0
0
0
1.76447e-09
2.86678e-09
3.45891e-09
5.00557e-09
8.20256e-09
1.33057e-08
2.01983e-08
2.86474e-08
3.84584e-08
4.98942e-08
6.36042e-08
8.10569e-08
1.04153e-07
1.34513e-07
1.6022e-07
1.05238e-07
0
0
0
0
0
0
0
0
0
0
0
1.15979e-09
1.94605e-09
2.41711e-09
2.64601e-09
2.68832e-09
2.58619e-09
2.37052e-09
2.06824e-09
1.70202e-09
1.29528e-09
8.64296e-10
4.26118e-10
0
0
0
0
0
0
0
0
0
0
0
1.571e-09
2.59272e-09
3.12799e-09
4.50168e-09
7.31878e-09
1.17905e-08
1.78265e-08
2.52193e-08
3.37668e-08
4.35271e-08
5.47672e-08
6.78279e-08
8.22647e-08
9.43486e-08
9.06104e-08
5.29281e-08
3.83895e-09
0
0
0
0
0
0
0
0
0
4.65632e-10
1.32637e-09
1.87328e-09
2.17346e-09
2.28184e-09
2.24139e-09
2.08577e-09
1.84015e-09
1.527e-09
1.16531e-09
7.75208e-10
3.70537e-10
0
0
0
0
0
0
0
0
0
0
0
0
1.39354e-09
2.33074e-09
2.79585e-09
3.98384e-09
6.41258e-09
1.02425e-08
1.53845e-08
2.16188e-08
2.87057e-08
3.65005e-08
4.48751e-08
5.33986e-08
6.05988e-08
6.27668e-08
5.38656e-08
3.21391e-08
8.29165e-09
0
0
0
0
0
0
0
0
0
7.51099e-10
1.34025e-09
1.69323e-09
1.85702e-09
1.87161e-09
1.76946e-09
1.57718e-09
1.31519e-09
1.00224e-09
6.5422e-10
2.88465e-10
0
0
0
0
0
0
0
0
0
0
0
0
0
1.2316e-09
2.0841e-09
2.47235e-09
3.47364e-09
5.525e-09
8.73701e-09
1.30075e-08
1.81066e-08
2.37534e-08
2.96695e-08
3.55008e-08
4.05625e-08
4.34829e-08
4.20898e-08
3.4475e-08
2.1692e-08
8.58219e-09
0
0
0
0
0
0
0
0
2.72005e-10
8.54124e-10
1.22868e-09
1.42911e-09
1.48745e-09
1.43229e-09
1.28759e-09
1.07396e-09
8.07829e-10
5.05019e-10
1.79039e-10
0
0
0
0
0
0
0
0
0
0
0
0
0
0
1.08455e-09
1.85478e-09
2.16549e-09
2.98728e-09
4.68555e-09
7.32899e-09
1.07987e-08
1.48638e-08
1.92294e-08
2.35618e-08
2.7451e-08
3.02735e-08
3.11015e-08
2.89253e-08
2.33741e-08
1.5547e-08
7.76032e-09
1.95353e-09
0
0
0
0
0
0
0
4.54431e-10
8.1064e-10
1.0213e-09
1.10624e-09
1.08668e-09
9.82808e-10
8.12159e-10
5.90567e-10
3.31197e-10
4.74813e-11
0
0
0
0
0
0
0
0
0
0
0
0
0
0
0
9.5174e-10
1.64391e-09
1.88029e-09
2.53616e-09
3.91516e-09
6.05267e-09
8.82006e-09
1.19937e-08
1.5293e-08
1.83948e-08
2.09275e-08
2.24325e-08
2.23775e-08
2.03657e-08
1.64901e-08
1.15258e-08
6.65717e-09
2.84667e-09
4.318e-10
0
0
0
0
0
1.77199e-10
4.68039e-10
6.57552e-10
7.47505e-10
7.48907e-10
6.75467e-10
5.41314e-10
3.5924e-10
1.41431e-10
0
0
0
0
0
0
0
0
0
0
0
0
0
0
0
1.31491e-10
0
8.32363e-10
1.45193e-09
1.61984e-09
2.1272e-09
3.22564e-09
4.92567e-09
7.09772e-09
9.53376e-09
1.19862e-08
1.41772e-08
1.58111e-08
1.65842e-08
1.62229e-08
1.461e-08
1.19324e-08
8.69335e-09
5.53715e-09
2.97728e-09
1.22733e-09
2.3243e-10
0
0
0
4.32978e-11
2.24313e-10
3.58895e-10
4.29885e-10
4.34976e-10
3.79841e-10
2.7314e-10
1.24712e-10
0
0
0
0
0
0
0
0
0
0
0
0
0
0
0
0
0
7.20368e-10
0
7.25468e-10
1.27879e-09
1.38562e-09
1.76338e-09
2.62145e-09
3.95228e-09
5.63198e-09
7.47667e-09
9.27711e-09
1.08123e-08
1.18658e-08
1.22471e-08
1.18283e-08
1.06073e-08
8.75566e-09
6.59414e-09
4.4911e-09
2.73604e-09
1.46346e-09
6.62479e-10
2.37618e-10
6.85098e-11
4.61841e-11
8.81093e-11
1.3949e-10
1.68258e-10
1.59369e-10
1.08995e-10
1.97964e-11
0
0
0
0
0
0
0
0
0
0
0
0
0
0
0
0
0
0
0
1.39785e-09
0
6.30099e-10
1.12384e-09
1.1778e-09
1.44509e-09
2.10118e-09
3.1268e-09
4.40777e-09
5.78748e-09
7.09613e-09
8.1663e-09
8.84698e-09
9.02306e-09
8.6419e-09
7.74005e-09
6.45148e-09
4.98118e-09
3.54767e-09
2.3212e-09
1.38733e-09
7.49954e-10
3.60398e-10
1.4908e-10
4.77839e-11
1.25339e-12
0
0
0
0
0
0
0
0
0
0
0
0
0
0
0
0
0
0
0
0
0
0
0
1.23538e-10
2.16357e-09
0
5.45274e-10
9.8615e-10
9.9548e-10
1.17063e-09
1.65987e-09
2.43729e-09
3.40054e-09
4.41956e-09
5.36148e-09
6.10326e-09
6.54262e-09
6.61218e-09
6.295e-09
5.63422e-09
4.72838e-09
3.70989e-09
2.71209e-09
1.83838e-09
1.14409e-09
6.37321e-10
2.93431e-10
7.23004e-11
0
0
0
0
0
0
0
0
0
0
0
0
0
0
0
0
0
0
0
0
0
0
0
0
9.45665e-11
8.37801e-10
3.01617e-09
0
4.70008e-10
8.64536e-10
8.37095e-10
9.36854e-10
1.2904e-09
1.86863e-09
2.58167e-09
3.32366e-09
3.99323e-09
4.5023e-09
4.78292e-09
4.79635e-09
4.54115e-09
4.05556e-09
3.40989e-09
2.69049e-09
1.981e-09
1.34607e-09
8.21986e-10
4.17171e-10
1.19652e-10
0
0
0
0
0
0
0
0
0
0
0
0
0
0
0
0
0
0
0
0
0
0
0
1.0036e-10
4.19836e-10
8.2208e-10
1.64203e-09
3.95322e-09
0
4.03342e-10
7.57696e-10
7.00639e-10
7.39803e-10
9.84495e-10
1.40462e-09
1.92237e-09
2.45282e-09
2.92025e-09
3.26296e-09
3.43653e-09
3.41887e-09
3.21422e-09
2.85283e-09
2.38397e-09
1.8647e-09
1.34877e-09
8.77675e-10
4.75736e-10
1.50486e-10
0
0
0
0
0
0
0
0
0
0
0
0
0
0
0
0
0
0
0
0
0
0
1.39626e-10
4.53574e-10
8.07225e-10
1.18292e-09
1.64049e-09
2.5338e-09
4.97144e-09
0
3.44349e-10
6.64262e-10
5.83885e-10
5.7518e-10
7.33619e-10
1.02942e-09
1.39576e-09
1.76523e-09
2.08231e-09
2.30475e-09
2.40398e-09
2.36743e-09
2.20055e-09
1.92576e-09
1.57728e-09
1.19335e-09
8.09354e-10
4.52657e-10
1.40044e-10
0
0
0
0
0
0
0
0
0
0
0
0
0
0
0
0
0
0
0
0
0
1.77624e-10
4.85205e-10
8.28836e-10
1.20001e-09
1.60842e-09
2.03732e-09
2.54713e-09
3.50998e-09
6.06693e-09
0
2.9216e-10
5.82874e-10
4.84551e-10
4.38672e-10
5.29546e-10
7.28388e-10
9.77965e-10
1.22519e-09
1.4301e-09
1.56461e-09
1.61077e-09
1.56138e-09
1.42126e-09
1.20639e-09
9.40437e-10
6.49394e-10
3.57182e-10
8.24979e-11
0
0
0
0
0
0
0
0
0
0
0
0
0
0
0
0
0
0
0
0
2.12738e-10
5.14204e-10
8.50187e-10
1.2161e-09
1.61594e-09
2.04136e-09
2.50129e-09
2.98004e-09
3.53867e-09
4.56679e-09
7.23523e-09
0
2.45962e-10
5.1222e-10
4.0042e-10
3.26175e-10
3.64723e-10
4.88522e-10
6.48513e-10
8.0309e-10
9.24162e-10
9.93873e-10
1.00138e-09
9.42576e-10
8.21045e-10
6.47889e-10
4.39453e-10
2.13778e-10
0
0
0
0
0
0
0
0
0
0
0
0
0
0
0
0
0
0
0
0
2.46199e-10
5.40613e-10
8.69344e-10
1.23006e-09
1.62362e-09
2.04517e-09
2.49819e-09
2.97455e-09
3.4825e-09
4.0074e-09
4.6111e-09
5.69978e-09
8.47129e-09
0
2.05012e-10
4.51075e-10
3.29427e-10
2.33952e-10
2.32464e-10
2.98674e-10
3.90337e-10
4.74968e-10
5.33467e-10
5.55364e-10
5.34633e-10
4.68954e-10
3.60726e-10
2.17488e-10
5.06499e-11
0
0
0
0
0
0
0
0
0
0
0
0
0
0
0
0
0
0
2.57878e-11
2.80001e-10
5.67199e-10
8.88133e-10
1.24196e-09
1.62893e-09
2.04655e-09
2.49501e-09
2.9692e-09
3.47209e-09
3.9958e-09
4.54798e-09
5.11505e-09
5.75976e-09
6.90395e-09
9.76967e-09
0
1.68635e-10
3.98316e-10
2.69707e-10
1.58703e-10
1.27026e-10
1.49512e-10
1.89522e-10
2.2176e-10
2.33947e-10
2.20949e-10
1.80067e-10
1.10075e-10
1.24435e-11
0
0
0
0
0
0
0
0
0
0
0
0
0
0
0
0
0
0
6.23915e-11
3.12356e-10
5.93763e-10
9.07882e-10
1.25473e-09
1.6344e-09
2.04572e-09
2.48855e-09
2.96033e-09
3.4607e-09
3.98425e-09
4.5334e-09
5.10056e-09
5.6929e-09
6.29791e-09
6.97931e-09
8.17372e-09
1.11245e-08
0
1.36229e-10
3.52945e-10
2.19626e-10
9.76008e-11
4.36e-11
3.34029e-11
3.49269e-11
2.85464e-11
7.16541e-12
0
0
0
0
0
0
0
0
0
0
0
0
0
0
0
0
0
0
0
0
9.24869e-11
3.40125e-10
6.17498e-10
9.26073e-10
1.26677e-09
1.6401e-09
2.04535e-09
2.48197e-09
2.9485e-09
3.44449e-09
3.96732e-09
4.51621e-09
5.08558e-09
5.67714e-09
6.28367e-09
6.91197e-09
7.55054e-09
8.26423e-09
9.50342e-09
1.25299e-08
0
1.07261e-10
3.14083e-10
1.77787e-10
4.82994e-11
0
0
0
0
0
0
0
0
0
0
0
0
0
0
0
0
0
0
0
0
0
0
0
1.18154e-10
3.63098e-10
6.3726e-10
9.41274e-10
1.27617e-09
1.6431e-09
2.04241e-09
2.47378e-09
2.93578e-09
3.42719e-09
3.94625e-09
4.49232e-09
5.06279e-09
5.6565e-09
6.2678e-09
6.89777e-09
7.53949e-09
8.1994e-09
8.86709e-09
9.60862e-09
1.08871e-08
1.39799e-08
0
8.12706e-11
2.80984e-10
1.43036e-10
8.91636e-12
0
0
0
0
0
0
0
0
0
0
0
0
0
0
0
0
0
0
0
0
0
1.44048e-10
3.84409e-10
6.54595e-10
9.54421e-10
1.28408e-09
1.64437e-09
2.03635e-09
2.46085e-09
2.91762e-09
3.40548e-09
3.92216e-09
4.4658e-09
5.03439e-09
5.62714e-09
6.24153e-09
6.87613e-09
7.52527e-09
8.18945e-09
8.86204e-09
9.54913e-09
1.02414e-08
1.10063e-08
1.23185e-08
1.54684e-08
0
5.78625e-11
2.53021e-10
1.14454e-10
0
0
0
0
0
0
0
0
0
0
0
0
0
0
0
0
0
0
0
0
1.69922e-10
4.05369e-10
6.71008e-10
9.66626e-10
1.29189e-09
1.64669e-09
2.03151e-09
2.44741e-09
2.89551e-09
3.37633e-09
3.88894e-09
4.43123e-09
5.00011e-09
5.59306e-09
6.20784e-09
6.84358e-09
7.49797e-09
8.16935e-09
8.85213e-09
9.54621e-09
1.02452e-08
1.0955e-08
1.16674e-08
1.24512e-08
1.37918e-08
1.69896e-08
0
3.67064e-11
2.29693e-10
9.13408e-11
0
0
0
0
0
0
0
0
0
0
0
0
0
0
0
0
0
0
1.90065e-10
4.21215e-10
6.83144e-10
9.75441e-10
1.29761e-09
1.64909e-09
2.02944e-09
2.43873e-09
2.8778e-09
3.34809e-09
3.8508e-09
4.38614e-09
4.95246e-09
5.54671e-09
6.16494e-09
6.80394e-09
7.46129e-09
8.13611e-09
8.82634e-09
9.53028e-09
1.02424e-08
1.0962e-08
1.16831e-08
1.24112e-08
1.31392e-08
1.39375e-08
1.53013e-08
1.85384e-08
0
1.75205e-11
2.10599e-10
7.31891e-11
0
0
0
0
0
0
0
0
0
0
0
0
0
0
0
1.05664e-11
2.0181e-10
4.26588e-10
6.84253e-10
9.73859e-10
1.29441e-09
1.64489e-09
2.02426e-09
2.43161e-09
2.86645e-09
3.32913e-09
3.82097e-09
4.34385e-09
4.89914e-09
5.48671e-09
6.10418e-09
6.74752e-09
7.41186e-09
8.09339e-09
8.78946e-09
9.49925e-09
1.02211e-08
1.09532e-08
1.16904e-08
1.24312e-08
1.31699e-08
1.39118e-08
1.46512e-08
1.546e-08
1.68419e-08
2.01103e-08
0
6.52249e-14
1.95431e-10
5.96722e-11
0
0
0
0
0
0
0
0
0
0
0
0
0
2.97957e-11
2.08363e-10
4.22314e-10
6.71845e-10
9.56269e-10
1.27434e-09
1.62451e-09
2.00515e-09
2.41461e-09
2.85129e-09
3.31394e-09
3.80207e-09
4.31644e-09
4.85898e-09
5.43212e-09
6.03744e-09
6.6745e-09
7.34014e-09
8.02932e-09
8.73626e-09
9.45653e-09
1.01873e-08
1.09278e-08
1.16768e-08
1.24327e-08
1.31907e-08
1.39483e-08
1.47004e-08
1.5452e-08
1.61986e-08
1.70139e-08
1.84095e-08
2.17015e-08
0
0
1.83959e-10
5.06437e-11
0
0
0
0
0
0
0
0
0
0
0
4.76033e-11
2.1229e-10
4.12225e-10
6.4915e-10
9.23589e-10
1.23501e-09
1.58207e-09
1.96288e-09
2.37528e-09
2.81697e-09
3.28565e-09
3.77913e-09
4.29587e-09
4.83551e-09
5.3993e-09
5.98994e-09
6.61052e-09
7.26287e-09
7.94626e-09
8.65673e-09
9.38817e-09
1.01339e-08
1.08889e-08
1.16502e-08
1.24172e-08
1.31889e-08
1.39643e-08
1.47385e-08
1.55089e-08
1.62702e-08
1.70275e-08
1.77774e-08
1.85957e-08
2.00006e-08
2.33095e-08
0
0
1.76093e-10
4.62081e-11
0
0
0
0
0
0
0
0
0
5.82631e-11
2.10523e-10
3.96574e-10
6.1887e-10
8.79497e-10
1.17944e-09
1.5184e-09
1.89509e-09
2.30743e-09
2.75289e-09
3.22866e-09
3.7318e-09
4.2593e-09
4.80846e-09
5.37749e-09
5.96626e-09
6.57669e-09
7.21233e-09
7.87706e-09
8.57304e-09
9.29923e-09
1.00508e-08
1.08207e-08
1.16013e-08
1.23869e-08
1.31744e-08
1.39635e-08
1.47536e-08
1.55439e-08
1.63302e-08
1.71093e-08
1.7876e-08
1.86351e-08
1.93848e-08
2.02027e-08
2.16131e-08
2.49329e-08
0
0
1.7197e-10
4.68036e-11
0
0
0
0
0
0
0
6.09553e-11
1.97385e-10
3.69911e-10
5.78578e-10
8.2476e-10
1.11041e-09
1.43691e-09
1.8044e-09
2.2117e-09
2.65666e-09
3.13648e-09
3.64797e-09
4.18769e-09
4.75201e-09
5.33732e-09
5.94042e-09
6.55937e-09
7.19437e-09
7.84813e-09
8.52525e-09
9.23043e-09
9.96624e-09
1.07314e-08
1.15202e-08
1.23245e-08
1.31356e-08
1.39475e-08
1.4757e-08
1.55639e-08
1.63681e-08
1.71691e-08
1.79631e-08
1.87469e-08
1.95157e-08
2.0273e-08
2.10192e-08
2.18337e-08
2.32463e-08
2.65718e-08
0
0
1.72008e-10
5.31909e-11
0
0
0
0
0
6.85623e-11
1.79043e-10
3.30168e-10
5.22292e-10
7.54418e-10
1.02631e-09
1.33895e-09
1.6937e-09
2.09114e-09
2.53047e-09
3.00954e-09
3.52532e-09
4.07425e-09
4.65253e-09
5.25609e-09
5.8807e-09
6.52215e-09
7.17683e-09
7.84275e-09
8.52058e-09
9.21395e-09
9.92857e-09
1.06702e-08
1.14417e-08
1.22416e-08
1.30635e-08
1.38979e-08
1.47354e-08
1.55692e-08
1.63963e-08
1.72166e-08
1.80308e-08
1.88384e-08
1.96362e-08
2.04208e-08
2.11884e-08
2.19408e-08
2.26807e-08
2.34892e-08
2.49009e-08
2.82281e-08
0
0
1.76779e-10
6.63935e-11
0
0
7.49809e-12
7.22003e-11
1.63205e-10
2.87937e-10
4.54065e-10
6.65143e-10
9.21e-10
1.22026e-09
1.56235e-09
1.94779e-09
2.37727e-09
2.85046e-09
3.36552e-09
3.91928e-09
4.5078e-09
5.12682e-09
5.77193e-09
6.43855e-09
7.12186e-09
7.81712e-09
8.5204e-09
9.2298e-09
9.94658e-09
1.06754e-08
1.14232e-08
1.21968e-08
1.29997e-08
1.383e-08
1.46805e-08
1.55407e-08
1.64002e-08
1.72516e-08
1.8092e-08
1.89217e-08
1.97417e-08
2.05521e-08
2.13498e-08
2.21317e-08
2.28943e-08
2.364e-08
2.43711e-08
2.51708e-08
2.65793e-08
2.99053e-08
0
0
1.87026e-10
8.7841e-11
2.34861e-11
4.36106e-11
1.20343e-10
2.33252e-10
3.79189e-10
5.64533e-10
7.95938e-10
1.07608e-09
1.40414e-09
1.77831e-09
2.19763e-09
2.6621e-09
3.17164e-09
3.72494e-09
4.31905e-09
4.94976e-09
5.61224e-09
6.30155e-09
7.01277e-09
7.74085e-09
8.48054e-09
9.22664e-09
9.97498e-09
1.07238e-08
1.14751e-08