/*--------------------------------*- C++ -*----------------------------------*\
  =========                 |
  \\      /  F ield         | OpenFOAM: The Open Source CFD Toolbox
   \\    /   O peration     | Website:  https://openfoam.org
    \\  /    A nd           | Version:  7
     \\/     M anipulation  |
\*---------------------------------------------------------------------------*/
FoamFile
{
    version     2.0;
    format      ascii;
    class       volScalarField;
    location    "0.02";
    object      p;
}
// * * * * * * * * * * * * * * * * * * * * * * * * * * * * * * * * * * * * * //

dimensions      [0 2 -2 0 0 0 0];

internalField   nonuniform List<scalar> 
70000
(
0.136815
0.059961
0.0468861
0.0494368
0.0498233
0.0489301
0.0481512
0.0476271
0.0472486
0.0469659
0.0467656
0.0466398
0.0465816
0.0465849
0.0466452
0.0467589
0.0469235
0.0471374
0.0473995
0.0477095
0.0480675
0.048474
0.0489301
0.0494372
0.0499972
0.0506122
0.0512847
0.0520174
0.0528137
0.0536767
0.0546101
0.0556177
0.0567036
0.0578713
0.0591258
0.0604697
0.0619086
0.063444
0.0650814
0.0668206
0.0686647
0.0706151
0.072661
0.0748229
0.0770386
0.0794135
0.0817068
0.0843481
0.0864426
0.089647
0.132514
0.0603228
0.0470887
0.0495316
0.049878
0.0489662
0.0481795
0.0476505
0.0472684
0.046983
0.0467805
0.046653
0.0465935
0.0465958
0.0466551
0.0467681
0.046932
0.0471454
0.047407
0.0477166
0.0480742
0.0484804
0.0489362
0.0494431
0.0500029
0.0506177
0.05129
0.0520227
0.0528189
0.0536818
0.0546152
0.0556228
0.0567087
0.0578766
0.0591312
0.0604753
0.0619144
0.0634501
0.0650878
0.0668275
0.0686721
0.0706231
0.0726696
0.0748323
0.0770488
0.0794248
0.0817189
0.0843612
0.0864589
0.0896638
0.128908
0.0612445
0.0474328
0.04966
0.0499526
0.0490112
0.0482119
0.0476769
0.0472904
0.0470017
0.0467967
0.0466673
0.0466063
0.0466073
0.0466657
0.0467777
0.046941
0.0471537
0.0474148
0.0477239
0.0480811
0.0484869
0.0489424
0.049449
0.0500085
0.0506231
0.0512952
0.0520277
0.0528237
0.0536865
0.0546199
0.0556273
0.0567132
0.0578811
0.0591357
0.0604799
0.0619192
0.063455
0.065093
0.066833
0.068678
0.0706295
0.0726765
0.0748402
0.0770571
0.0794348
0.0817291
0.0843732
0.0864785
0.0896596
0.125802
0.0623424
0.0479081
0.0498317
0.0500531
0.0490686
0.0482498
0.0477065
0.0473148
0.047022
0.046814
0.0466824
0.0466196
0.0466192
0.0466764
0.0467875
0.0469499
0.0471619
0.0474224
0.047731
0.0480877
0.0484931
0.0489482
0.0494544
0.0500136
0.0506279
0.0512997
0.0520319
0.0528277
0.0536902
0.0546233
0.0556306
0.0567163
0.0578839
0.0591384
0.0604825
0.0619217
0.0634574
0.0650954
0.0668355
0.0686806
0.0706324
0.0726797
0.0748439
0.0770614
0.0794399
0.0817354
0.0843785
0.0865006
0.0896211
0.122845
0.0634346
0.0484799
0.0500484
0.0501863
0.0491458
0.0482977
0.0477425
0.0473438
0.0470458
0.0468338
0.0466992
0.0466342
0.0466321
0.0466878
0.0467978
0.0469592
0.0471704
0.0474301
0.047738
0.0480941
0.048499
0.0489536
0.0494594
0.0500181
0.050632
0.0513034
0.0520352
0.0528305
0.0536927
0.0546254
0.0556322
0.0567175
0.0578847
0.0591388
0.0604824
0.0619211
0.0634565
0.065094
0.0668338
0.0686785
0.07063
0.0726771
0.0748412
0.0770589
0.0794372
0.0817346
0.0843724
0.0865206
0.0895444
0.119936
0.064465
0.0491017
0.0502908
0.0503464
0.0492443
0.0483583
0.0477869
0.0473794
0.0470745
0.0468574
0.046719
0.0466511
0.0466467
0.0467007
0.0468091
0.0469693
0.0471794
0.0474382
0.0477453
0.0481007
0.0485048
0.0489588
0.049464
0.0500221
0.0506354
0.0513062
0.0520374
0.0528322
0.0536937
0.0546257
0.0556318
0.0567164
0.0578828
0.059136
0.0604787
0.0619165
0.0634508
0.0650873
0.066826
0.0686695
0.0706199
0.072666
0.0748288
0.0770459
0.0794223
0.0817221
0.0843489
0.0865299
0.0894268
0.117069
0.0654162
0.0497403
0.0505379
0.0505203
0.0493596
0.0484307
0.0478399
0.0474218
0.047109
0.0468855
0.0467424
0.0466709
0.0466637
0.0467153
0.0468219
0.0469805
0.0471892
0.0474469
0.0477529
0.0481074
0.0485107
0.0489638
0.0494682
0.0500256
0.050638
0.0513081
0.0520385
0.0528323
0.0536929
0.0546239
0.055629
0.0567123
0.0578775
0.0591292
0.0604704
0.0619065
0.0634391
0.0650736
0.0668101
0.0686514
0.0705994
0.072643
0.0748031
0.0770181
0.0793902
0.081692
0.0843011
0.0865175
0.0892672
0.114253
0.066282
0.0503796
0.0507781
0.0506972
0.0494853
0.0485115
0.0478994
0.0474701
0.0471485
0.0469179
0.0467694
0.0466937
0.0466831
0.0467321
0.0468364
0.0469931
0.0472002
0.0474564
0.0477611
0.0481144
0.0485166
0.0489687
0.0494721
0.0500285
0.0506399
0.0513089
0.0520382
0.0528308
0.0536901
0.0546197
0.0556232
0.0567048
0.0578681
0.0591177
0.0604566
0.0618901
0.0634199
0.0650511
0.0667843
0.0686217
0.0705657
0.0726048
0.0747601
0.0769709
0.0793354
0.0816382
0.0842218
0.0864717
0.0890659
0.111494
0.0670597
0.051014
0.0510075
0.050871
0.0496164
0.0485977
0.0479631
0.0475223
0.0471918
0.0469538
0.0467994
0.0467192
0.0467049
0.0467508
0.0468526
0.0470071
0.0472122
0.0474668
0.04777
0.0481218
0.0485228
0.0489736
0.0494757
0.0500308
0.050641
0.0513086
0.0520364
0.0528275
0.0536851
0.0546128
0.0556142
0.0566935
0.0578542
0.0591008
0.0604365
0.0618662
0.0633919
0.0650185
0.0667467
0.0685783
0.0705163
0.0725486
0.0746962
0.0769001
0.0792529
0.0815545
0.0841046
0.0863815
0.0888237
0.108796
0.0677485
0.0516421
0.051226
0.0510388
0.0497504
0.0486871
0.048029
0.0475768
0.0472375
0.046992
0.0468317
0.0467466
0.0467286
0.0467712
0.0468702
0.0470223
0.0472253
0.0474779
0.0477794
0.0481297
0.048529
0.0489784
0.0494791
0.0500327
0.0506412
0.0513072
0.0520332
0.0528224
0.0536778
0.0546031
0.0556018
0.0566781
0.0578353
0.0590781
0.0604094
0.0618342
0.0633544
0.0649747
0.0666961
0.0685197
0.0704492
0.0724718
0.0746087
0.0768023
0.0791386
0.0814358
0.0839445
0.0862379
0.0885415
0.106162
0.0683488
0.052263
0.0514345
0.0511992
0.0498858
0.0487788
0.0480961
0.0476324
0.0472846
0.0470317
0.0468653
0.0467754
0.0467534
0.0467927
0.0468888
0.0470384
0.0472391
0.0474897
0.0477893
0.0481377
0.0485354
0.0489831
0.049482
0.0500339
0.0506406
0.0513046
0.0520285
0.0528153
0.0536681
0.0545905
0.0555859
0.0566584
0.0578114
0.0590493
0.0603752
0.0617936
0.0633069
0.064919
0.0666315
0.0684448
0.0703631
0.0723731
0.0744954
0.0766753
0.0789897
0.081278
0.0837387
0.0860351
0.0882195
0.103595
0.0688609
0.0528751
0.0516343
0.0513513
0.0500215
0.0488725
0.048164
0.0476886
0.0473324
0.0470721
0.0468996
0.046805
0.0467789
0.0468149
0.046908
0.0470549
0.0472534
0.0475018
0.0477993
0.0481459
0.0485417
0.0489875
0.0494845
0.0500344
0.0506391
0.0513009
0.0520223
0.0528063
0.0536561
0.054575
0.0555665
0.0566345
0.0577824
0.0590144
0.0603337
0.0617445
0.0632493
0.0648514
0.066553
0.0683535
0.0702579
0.072252
0.074356
0.0765182
0.0788054
0.0810792
0.0834866
0.0857712
0.0878581
0.101097
0.0692856
0.053476
0.0518267
0.0514944
0.0501568
0.048968
0.0482326
0.047745
0.0473806
0.047113
0.0469344
0.0468349
0.0468048
0.0468373
0.0469275
0.0470717
0.0472677
0.0475139
0.0478094
0.0481539
0.0485476
0.0489914
0.0494864
0.0500342
0.0506365
0.0512958
0.0520145
0.0527954
0.0536417
0.0545567
0.0555437
0.0566065
0.0577485
0.0589738
0.0602854
0.0616873
0.063182
0.0647724
0.066461
0.0682465
0.070134
0.0721094
0.074191
0.0763317
0.0785865
0.0808397
0.08319
0.0854485
0.0874581
0.0986712
0.0696236
0.054063
0.0520131
0.0516281
0.0502908
0.0490651
0.0483017
0.0478016
0.047429
0.0471542
0.0469695
0.046865
0.0468309
0.0468599
0.046947
0.0470885
0.047282
0.0475259
0.0478192
0.0481615
0.0485532
0.0489949
0.0494877
0.0500331
0.0506329
0.0512894
0.0520051
0.0527826
0.053625
0.0545356
0.0555176
0.0565747
0.0577101
0.0589277
0.0602306
0.0616224
0.0631057
0.0646829
0.0663566
0.0681249
0.0699929
0.0719467
0.0740025
0.0761179
0.0783357
0.0805617
0.0828529
0.0850728
0.0870219
0.0963202
0.0698764
0.054633
0.0521951
0.0517519
0.0504225
0.0491636
0.0483714
0.0478581
0.0474776
0.0471956
0.0470047
0.0468952
0.046857
0.0468825
0.0469665
0.0471052
0.0472962
0.0475376
0.0478286
0.0481688
0.0485582
0.0489976
0.0494881
0.050031
0.0506282
0.0512817
0.0519941
0.0527679
0.0536061
0.0545119
0.0554885
0.0565392
0.0576674
0.0588767
0.06017
0.0615506
0.0630213
0.0645839
0.066241
0.0679902
0.0698364
0.0717661
0.0737929
0.0758795
0.0780567
0.0802494
0.0824805
0.0846522
0.0865528
0.0940457
0.0700457
0.0551829
0.0523742
0.0518657
0.050551
0.0492633
0.0484416
0.0479146
0.0475263
0.0472371
0.04704
0.0469255
0.0468831
0.046905
0.0469858
0.0471217
0.04731
0.047549
0.0478376
0.0481755
0.0485626
0.0489996
0.0494876
0.0500279
0.0506222
0.0512726
0.0519814
0.0527513
0.0535851
0.0544857
0.0554563
0.0565003
0.0576207
0.0588209
0.0601039
0.0614726
0.0629296
0.0644763
0.0661154
0.067844
0.0696665
0.07157
0.0735652
0.0756198
0.0777537
0.0799075
0.0820786
0.0841955
0.0860554
0.0918492
0.0701337
0.0557093
0.0525515
0.0519695
0.0506751
0.0493639
0.0485124
0.0479709
0.0475748
0.0472788
0.0470754
0.0469557
0.0469091
0.0469274
0.0470049
0.0471379
0.0473235
0.04756
0.0478461
0.0481816
0.0485663
0.0490008
0.0494862
0.0500237
0.0506149
0.051262
0.0519671
0.0527328
0.0535618
0.054457
0.0554213
0.0564581
0.0575702
0.0587608
0.0600328
0.0613887
0.0628311
0.064361
0.0659809
0.0676875
0.0694847
0.0713603
0.0733218
0.0753419
0.0774305
0.079541
0.0816527
0.083711
0.0855345
0.089732
0.070143
0.0562093
0.0527283
0.0520634
0.0507939
0.049465
0.0485838
0.0480269
0.0476231
0.0473204
0.0471108
0.0469859
0.046935
0.0469496
0.0470238
0.0471538
0.0473366
0.0475705
0.0478541
0.048187
0.0485692
0.0490011
0.0494837
0.0500183
0.0506063
0.0512499
0.0519511
0.0527123
0.0535362
0.0544256
0.0553834
0.0564125
0.0575158
0.0586964
0.0599567
0.0612993
0.0627264
0.0642386
0.0658382
0.0675218
0.0692923
0.0711386
0.073065
0.0750482
0.0770903
0.0791541
0.0812075
0.0832058
0.0849946
0.0876947
0.0700768
0.0566797
0.0529051
0.0521479
0.0509063
0.049566
0.0486557
0.0480826
0.0476711
0.0473619
0.0471461
0.0470159
0.0469607
0.0469715
0.0470424
0.0471693
0.0473493
0.0475804
0.0478614
0.0481917
0.0485712
0.0490004
0.0494801
0.0500116
0.0505963
0.0512361
0.0519331
0.0526897
0.0535083
0.0543916
0.0553424
0.0563635
0.0574577
0.0586276
0.0598759
0.0612044
0.0626154
0.0641093
0.0656877
0.0673475
0.0690902
0.0709058
0.0727959
0.0747406
0.0767356
0.0787501
0.0807464
0.0826849
0.0844392
0.0857377
0.0699388
0.0571175
0.0530825
0.0522233
0.0510115
0.0496663
0.048728
0.0481379
0.0477187
0.0474032
0.0471813
0.0470458
0.0469861
0.0469931
0.0470606
0.0471844
0.0473614
0.0475897
0.047868
0.0481956
0.0485723
0.0489987
0.0494754
0.0500036
0.0505847
0.0512206
0.0519132
0.0526649
0.0534779
0.0543548
0.0552983
0.056311
0.0573956
0.0585545
0.05979
0.061104
0.0624984
0.0639731
0.0655296
0.0671646
0.0688786
0.0706626
0.0725155
0.0744202
0.0763676
0.0783313
0.0802716
0.0821516
0.0838707
0.083861
0.0697331
0.05752
0.0532603
0.0522905
0.0511086
0.0497654
0.0488007
0.0481927
0.0477656
0.0474442
0.0472162
0.0470754
0.0470112
0.0470144
0.0470784
0.0471989
0.047373
0.0475984
0.0478738
0.0481985
0.0485724
0.0489958
0.0494693
0.049994
0.0505715
0.0512032
0.0518913
0.0526377
0.0534448
0.0543151
0.0552509
0.0562549
0.0573294
0.0584768
0.0596991
0.060998
0.062375
0.0638299
0.0653638
0.0669732
0.0686577
0.0704092
0.0722241
0.0740876
0.075987
0.0778991
0.0797842
0.0816074
0.0832901
0.0820639
0.0694641
0.0578845
0.0534384
0.0523502
0.0511968
0.0498623
0.0488736
0.048247
0.0478118
0.0474847
0.0472509
0.0471046
0.0470359
0.0470352
0.0470957
0.0472129
0.0473839
0.0476063
0.0478788
0.0482006
0.0485714
0.0489916
0.0494618
0.049983
0.0505565
0.0511839
0.0518671
0.052608
0.053409
0.0542722
0.0552
0.0561949
0.0572589
0.0583943
0.0596029
0.060886
0.0622451
0.0636796
0.0651901
0.0667732
0.0684275
0.0701454
0.0719217
0.0737429
0.0755943
0.0774542
0.0792849
0.0810531
0.082698
0.0803455
0.0691369
0.0582085
0.053616
0.0524033
0.0512758
0.0499563
0.0489465
0.0483007
0.0478571
0.0475246
0.0472851
0.0471335
0.0470602
0.0470555
0.0471124
0.0472263
0.047394
0.0476134
0.0478828
0.0482015
0.0485692
0.0489861
0.0494528
0.0499702
0.0505395
0.0511624
0.0518405
0.0525757
0.0533702
0.054226
0.0551455
0.0561307
0.0571839
0.0583067
0.0595011
0.0607679
0.0621084
0.0635219
0.0650082
0.0665642
0.0681876
0.0698711
0.0716082
0.0733863
0.0751894
0.0769969
0.0787738
0.0804883
0.082094
0.0787046
0.0687565
0.0584902
0.0537919
0.0524509
0.0513451
0.0500465
0.0490191
0.0483539
0.0479014
0.0475637
0.0473188
0.0471618
0.0470839
0.0470752
0.0471284
0.0472389
0.0474034
0.0476195
0.0478858
0.0482013
0.0485657
0.0489792
0.0494422
0.0499556
0.0505206
0.0511386
0.0518114
0.0525406
0.0533282
0.0541764
0.0550871
0.0560623
0.0571041
0.0582139
0.0593934
0.0606434
0.0619646
0.0633563
0.0648179
0.066346
0.0679377
0.0695859
0.0712833
0.0730175
0.0747722
0.0765271
0.0782506
0.0799126
0.0814777
0.0771394
0.0683285
0.0587276
0.0539645
0.0524937
0.0514046
0.0501319
0.0490909
0.0484064
0.0479445
0.0476019
0.0473518
0.0471896
0.047107
0.0470942
0.0471437
0.0472507
0.0474118
0.0476247
0.0478877
0.0481999
0.0485609
0.0489707
0.0494298
0.0499391
0.0504995
0.0511125
0.0517796
0.0525024
0.053283
0.054123
0.0550246
0.0559894
0.0570192
0.0581155
0.0592797
0.0605122
0.0618135
0.0631827
0.0646187
0.0661182
0.0676775
0.0692897
0.0709466
0.0726363
0.0743422
0.0760446
0.0777149
0.0793253
0.0808482
0.075648
0.0678583
0.0589197
0.0541321
0.0525329
0.0514543
0.0502116
0.0491617
0.0484582
0.0479864
0.047639
0.0473841
0.0472166
0.0471293
0.0471124
0.0471582
0.0472616
0.0474193
0.0476287
0.0478883
0.0481971
0.0485545
0.0489605
0.0494156
0.0499204
0.0504761
0.0510837
0.0517449
0.0524611
0.0532342
0.0540658
0.0549577
0.0559116
0.0569291
0.0580113
0.0591595
0.0603739
0.0616546
0.0630006
0.0644104
0.0658805
0.0674066
0.068982
0.0705979
0.0722423
0.0738992
0.0755492
0.0771663
0.0787254
0.0802046
0.0742281
0.0673516
0.0590655
0.0542924
0.0525693
0.0514944
0.0502848
0.0492308
0.0485092
0.048027
0.0476748
0.0474154
0.0472429
0.0471508
0.0471297
0.0471717
0.0472715
0.0474256
0.0476316
0.0478877
0.0481928
0.0485464
0.0489485
0.0493993
0.0498996
0.0504501
0.0510522
0.0517072
0.0524164
0.0531816
0.0540044
0.0548863
0.0558288
0.0568334
0.057901
0.0590326
0.0602282
0.0614877
0.0628098
0.0641926
0.0656324
0.0671247
0.0686625
0.0702367
0.0718354
0.0734429
0.0750404
0.0766045
0.0781122
0.0795462
0.0728772
0.0668141
0.0591646
0.0544429
0.0526035
0.0515255
0.0503507
0.0492975
0.0485592
0.0480661
0.0477091
0.0474455
0.0472681
0.0471713
0.047146
0.0471842
0.0472803
0.0474308
0.0476331
0.0478855
0.0481869
0.0485366
0.0489345
0.0493809
0.0498763
0.0504216
0.0510178
0.0516662
0.0523682
0.0531251
0.0539386
0.05481
0.0557407
0.0567318
0.0577843
0.0588986
0.0600749
0.0613124
0.0626099
0.0639649
0.0653738
0.0668314
0.0683308
0.0698627
0.0714152
0.0729729
0.0745179
0.0760288
0.077485
0.078872
0.0715925
0.0662514
0.0592174
0.054581
0.0526361
0.0515479
0.0504085
0.0493613
0.0486081
0.0481036
0.0477418
0.0474743
0.0472923
0.0471908
0.0471613
0.0471955
0.0472878
0.0474346
0.0476332
0.0478819
0.0481793
0.0485249
0.0489185
0.0493602
0.0498505
0.0503902
0.0509803
0.0516218
0.0523161
0.0530644
0.0538682
0.0547287
0.055647
0.0566241
0.0576608
0.0587573
0.0599135
0.0611284
0.0624004
0.063727
0.0651041
0.0665264
0.0679867
0.0694756
0.0709813
0.072489
0.0739813
0.0754388
0.0768429
0.0781815
0.0703711
0.0656686
0.0592246
0.054704
0.0526672
0.0515625
0.0504578
0.0494212
0.0486555
0.0481395
0.0477727
0.0475016
0.0473152
0.0472091
0.0471752
0.0472055
0.047294
0.047437
0.0476317
0.0478764
0.0481698
0.0485112
0.0489002
0.049337
0.049822
0.0503558
0.0509394
0.0515738
0.05226
0.0529993
0.0537929
0.054642
0.0555474
0.05651
0.0575303
0.0586083
0.0597437
0.0609353
0.0621812
0.0634785
0.064823
0.0662092
0.0676297
0.069075
0.0705335
0.0719907
0.0734301
0.074834
0.0761855
0.0774738
0.06921
0.0650707
0.0591874
0.0548095
0.0526966
0.0515698
0.050498
0.0494767
0.0487011
0.0481737
0.0478015
0.0475272
0.0473367
0.047226
0.0471878
0.0472141
0.0472987
0.0474377
0.0476285
0.0478692
0.0481584
0.0484952
0.0488795
0.0493112
0.0497906
0.0503183
0.0508951
0.0515219
0.0521997
0.0529295
0.0537126
0.0545497
0.0554416
0.0563891
0.0573924
0.0584513
0.0595652
0.0607327
0.0619517
0.063219
0.0645302
0.0658795
0.0672595
0.0686607
0.0700714
0.0714778
0.0728641
0.074214
0.0755121
0.0767486
0.0681061
0.0644623
0.0591076
0.0548953
0.0527238
0.0515707
0.0505291
0.0495268
0.0487446
0.048206
0.0478282
0.0475508
0.0473565
0.0472414
0.0471989
0.047221
0.0473017
0.0474368
0.0476235
0.0478599
0.0481447
0.0484769
0.0488562
0.0492825
0.049756
0.0502773
0.050847
0.0514658
0.0521348
0.0528548
0.0536268
0.0544514
0.0553294
0.0562612
0.0572468
0.0582859
0.0593776
0.0605203
0.0617116
0.0629481
0.0642253
0.065537
0.0668758
0.0682322
0.0695947
0.0709499
0.0722828
0.0735783
0.0748221
0.0760052
0.0670563
0.0638475
0.0589876
0.0549595
0.0527478
0.0515658
0.0505509
0.0495708
0.0487853
0.0482362
0.0478526
0.0475722
0.0473745
0.0472551
0.0472082
0.0472263
0.0473029
0.0474339
0.0476165
0.0478485
0.0481287
0.0484561
0.0488302
0.0492508
0.0497182
0.0502327
0.0507949
0.0514055
0.0520653
0.0527749
0.0535353
0.054347
0.0552104
0.0561259
0.0570932
0.0581118
0.0591806
0.0602977
0.0614606
0.0626656
0.0639079
0.0651814
0.0664783
0.0677893
0.069103
0.0704067
0.0716859
0.0729264
0.0741152
0.0752433
0.0660574
0.0632299
0.0588298
0.0550004
0.0527676
0.0515557
0.0505636
0.0496079
0.0488228
0.0482643
0.0478745
0.0475913
0.0473905
0.0472669
0.0472157
0.0472296
0.0473022
0.047429
0.0476072
0.0478348
0.0481102
0.0484326
0.0488012
0.049216
0.0496769
0.0501843
0.0507387
0.0513406
0.0519907
0.0526895
0.0534378
0.054236
0.0550843
0.0559828
0.0569312
0.0579286
0.0589738
0.0600646
0.0611983
0.062371
0.0635777
0.0648122
0.0660666
0.0673316
0.0685962
0.0698478
0.071073
0.0722581
0.0733909
0.0744627
0.0651064
0.0626129
0.0586374
0.0550168
0.0527816
0.0515407
0.0505674
0.0496377
0.0488565
0.0482898
0.0478938
0.0476077
0.0474041
0.0472767
0.0472212
0.0472309
0.0472993
0.0474219
0.0475956
0.0478185
0.048089
0.0484061
0.0487691
0.0491776
0.0496318
0.0501318
0.050678
0.0512708
0.0519108
0.0525984
0.0533341
0.0541182
0.0549508
0.0558317
0.0567605
0.057736
0.0587568
0.0598206
0.0609243
0.062064
0.0632343
0.0644291
0.0656404
0.0668589
0.0680738
0.0692731
0.0704438
0.071573
0.072649
0.0736631
0.0642002
0.061999
0.0584135
0.0550078
0.0527883
0.0515212
0.0505627
0.0496596
0.0488856
0.0483125
0.0479103
0.0476212
0.0474151
0.0472842
0.0472245
0.0472299
0.0472941
0.0474123
0.0475815
0.0477996
0.048065
0.0483765
0.0487335
0.0491357
0.0495828
0.0500751
0.0506127
0.051196
0.0518254
0.0525012
0.0532238
0.0539932
0.0548095
0.0556722
0.0565807
0.0575336
0.0585293
0.0595653
0.0606383
0.0617441
0.0628775
0.0640318
0.0651993
0.0663708
0.0675357
0.0686822
0.069798
0.0708707
0.0718892
0.0728444
0.0633359
0.0613906
0.0581613
0.054973
0.0527861
0.0514971
0.0505498
0.0496731
0.0489096
0.0483321
0.0479239
0.0476318
0.0474234
0.0472891
0.0472254
0.0472265
0.0472864
0.0474002
0.0475647
0.0477778
0.0480378
0.0483436
0.0486945
0.0490898
0.0495296
0.0500137
0.0505424
0.0511157
0.0517341
0.0523977
0.0531066
0.0538608
0.0546601
0.055504
0.0563914
0.0573211
0.0582909
0.0592984
0.0603399
0.0614112
0.0625068
0.0636201
0.0647433
0.0658672
0.0669815
0.0680748
0.0691353
0.0701512
0.0711113
0.0720067
0.0625106
0.0607895
0.0578842
0.0549124
0.0527734
0.0514683
0.0505292
0.0496781
0.0489277
0.0483481
0.0479343
0.047639
0.0474285
0.0472913
0.0472236
0.0472204
0.0472759
0.0473852
0.0475449
0.0477528
0.0480073
0.0483072
0.0486515
0.0490399
0.0494719
0.0499476
0.0504668
0.0510298
0.0516367
0.0522874
0.0529821
0.0537206
0.0545023
0.0553266
0.0561924
0.057098
0.0580413
0.0590195
0.0600288
0.0610648
0.062122
0.0631936
0.0642718
0.0653477
0.066411
0.0674509
0.0684557
0.0694141
0.0703153
0.07115
0.0617218
0.0601971
0.0575856
0.0548264
0.0527485
0.0514343
0.0505013
0.0496744
0.0489394
0.04836
0.0479413
0.0476429
0.0474303
0.0472904
0.0472189
0.0472115
0.0472625
0.0473671
0.0475219
0.0477245
0.0479733
0.0482669
0.0486046
0.0489856
0.0494095
0.0498763
0.0503858
0.0509379
0.0515328
0.0521702
0.0528502
0.0535722
0.0543357
0.0551398
0.0559831
0.056864
0.0577801
0.0587282
0.0597046
0.0607047
0.0617227
0.062752
0.0637848
0.0648122
0.0658242
0.0668102
0.067759
0.0686596
0.0695012
0.0702744
0.0609669
0.0596146
0.0572683
0.0547156
0.0527102
0.0513947
0.0504663
0.049662
0.0489441
0.0483673
0.0479446
0.047643
0.0474286
0.0472861
0.047211
0.0471994
0.047246
0.0473458
0.0474955
0.0476926
0.0479355
0.0482227
0.0485533
0.0489266
0.0493422
0.0497997
0.0502989
0.0508398
0.0514221
0.0520457
0.0527103
0.0534153
0.0541599
0.0549431
0.0557634
0.0566189
0.0575069
0.0584243
0.0593671
0.0603305
0.0613088
0.0622952
0.063282
0.0642604
0.0652207
0.0661525
0.067045
0.0678874
0.0686691
0.0693803
0.0602435
0.0590427
0.0569354
0.0545811
0.0526573
0.0513485
0.0504246
0.0496409
0.0489413
0.0483694
0.047944
0.0476393
0.0474229
0.0472782
0.0471998
0.047184
0.047226
0.047321
0.0474655
0.047657
0.0478936
0.0481741
0.0484974
0.0488627
0.0492695
0.0497173
0.0502059
0.050735
0.0513044
0.0519136
0.0525622
0.0532495
0.0539746
0.0547363
0.0555329
0.0563621
0.0572214
0.0581074
0.0590158
0.059942
0.0608799
0.0618229
0.0627632
0.0636923
0.0646006
0.0654779
0.0663138
0.0670977
0.0678191
0.068468
0.0595493
0.0584819
0.0565896
0.0544242
0.052589
0.051295
0.0503761
0.0496113
0.0489306
0.0483658
0.0479389
0.0476314
0.0474132
0.0472664
0.0471848
0.0471649
0.0472023
0.0472924
0.0474316
0.0476172
0.0478475
0.048121
0.0484367
0.0487937
0.0491913
0.0496291
0.0501066
0.0506234
0.0511792
0.0517734
0.0524055
0.0530746
0.0537795
0.054519
0.0552911
0.0560935
0.0569233
0.0577771
0.0586506
0.0595388
0.0604358
0.0613349
0.0622283
0.0631077
0.0639637
0.0647864
0.0655654
0.0662906
0.0669514
0.0675379
0.0588824
0.0579325
0.0562333
0.0542464
0.0525047
0.0512332
0.0503208
0.0495733
0.0489117
0.0483559
0.047929
0.0476191
0.0473991
0.0472504
0.0471658
0.0471419
0.0471747
0.0472598
0.0473935
0.0475731
0.0477968
0.0480631
0.0483709
0.0487192
0.0491072
0.0495345
0.0500004
0.0505045
0.0510463
0.051625
0.0522399
0.0528901
0.0535743
0.0542908
0.0550378
0.0558126
0.0566124
0.0574333
0.0582712
0.0591208
0.0599764
0.060831
0.0616772
0.0625066
0.06331
0.0640778
0.0648
0.0654663
0.0660665
0.0665905
0.0582407
0.0573945
0.0558685
0.0540491
0.052404
0.0511622
0.0502586
0.0495271
0.0488845
0.0483392
0.0479139
0.0476021
0.0473803
0.0472299
0.0471426
0.0471148
0.0471429
0.0472229
0.0473509
0.0475243
0.0477412
0.048
0.0482996
0.0486389
0.049017
0.0494334
0.0498873
0.0503781
0.0509052
0.0514679
0.0520651
0.0526957
0.0533585
0.0540514
0.0547726
0.0555192
0.0562881
0.0570757
0.0578773
0.0586878
0.0595014
0.0603112
0.0611098
0.0618889
0.0626396
0.0633524
0.0640176
0.0646251
0.0651648
0.0656265
0.0576223
0.056868
0.0554972
0.0538342
0.0522869
0.0510813
0.0501891
0.0494727
0.0488486
0.0483153
0.047893
0.0475801
0.0473566
0.0472045
0.0471146
0.0470831
0.0471066
0.0471813
0.0473036
0.0474707
0.0476805
0.0479315
0.0482226
0.0485524
0.0489203
0.0493253
0.0497667
0.0502438
0.0507558
0.0513017
0.0518806
0.0524912
0.0531318
0.0538005
0.0544952
0.0552129
0.0559505
0.0567039
0.0574687
0.0582396
0.0590108
0.0597754
0.0605261
0.0612547
0.0619525
0.0626103
0.0632186
0.0637675
0.0642468
0.0646466
0.0570257
0.0563526
0.0551211
0.0536032
0.0521537
0.0509896
0.0501119
0.0494103
0.0488041
0.0482837
0.047866
0.0475526
0.0473278
0.0471741
0.0470817
0.0470466
0.0470655
0.0471349
0.0472512
0.0474117
0.0476143
0.0478573
0.0481395
0.0484596
0.0488168
0.04921
0.0496384
0.0501012
0.0505975
0.0511263
0.0516862
0.052276
0.0528939
0.0535378
0.0542053
0.0548935
0.055599
0.0563178
0.0570452
0.0577761
0.0585044
0.0592235
0.059926
0.060604
0.0612489
0.0618519
0.0624033
0.0628937
0.0633131
0.0636515
0.0564493
0.0558481
0.0547414
0.0533578
0.0520045
0.0508864
0.0500266
0.0493397
0.0487509
0.048244
0.0478322
0.0475194
0.0472934
0.0471381
0.0470435
0.0470049
0.0470192
0.0470832
0.0471935
0.0473473
0.0475423
0.0477771
0.04805
0.0483601
0.0487061
0.0490871
0.0495021
0.0499501
0.0504302
0.0509411
0.0514816
0.05205
0.0526445
0.0532629
0.0539027
0.0545608
0.0552336
0.0559172
0.0566068
0.0572971
0.0579822
0.0586555
0.0593097
0.0599371
0.0605291
0.0610773
0.0615721
0.0620045
0.0623644
0.0626422
0.0558914
0.0553542
0.0543593
0.0530995
0.0518401
0.0507714
0.0499328
0.049261
0.0486889
0.048196
0.0477913
0.04748
0.0472532
0.0470965
0.0469997
0.0469576
0.0469674
0.047026
0.0471301
0.047277
0.0474643
0.0476904
0.0479539
0.0482534
0.0485879
0.0489562
0.0493573
0.0497901
0.0502534
0.050746
0.0512663
0.0518127
0.0523833
0.0529756
0.053587
0.0542144
0.054854
0.0555019
0.0561532
0.0568026
0.0574442
0.0580715
0.0586773
0.059254
0.0597934
0.0602869
0.0607256
0.0611004
0.0614015
0.0616195
0.0553508
0.0548704
0.0539759
0.0528297
0.0516609
0.0506442
0.0498298
0.0491739
0.0486182
0.0481394
0.0477428
0.047434
0.0472068
0.0470488
0.0469498
0.0469045
0.0469099
0.0469629
0.0470607
0.0472004
0.0473798
0.047597
0.0478506
0.0481394
0.0484619
0.0488171
0.0492038
0.0496208
0.0500668
0.0505404
0.0510401
0.051564
0.0521099
0.0526756
0.053258
0.0538541
0.0544601
0.0550718
0.0556844
0.0562926
0.0568905
0.0574717
0.058029
0.0585552
0.0590421
0.0594814
0.0598644
0.0601822
0.0604254
0.0605846
0.0548262
0.0543963
0.0535917
0.0525499
0.0514679
0.0505047
0.0497173
0.0490783
0.0485385
0.048074
0.0476863
0.0473809
0.0471538
0.0469947
0.0468937
0.0468452
0.0468461
0.0468936
0.046985
0.0471173
0.0472885
0.0474965
0.04774
0.0480175
0.0483277
0.0486694
0.0490412
0.0494419
0.04987
0.0503242
0.0508026
0.0513034
0.0518242
0.0523626
0.0529156
0.0534799
0.0540518
0.0546268
0.0552004
0.0557671
0.0563211
0.0568561
0.0573651
0.0578409
0.0582756
0.0586612
0.0589891
0.0592507
0.0594368
0.0595386
0.0543163
0.0539314
0.0532075
0.0522611
0.0512618
0.0503528
0.0495949
0.0489738
0.0484499
0.0479996
0.0476215
0.0473203
0.047094
0.0469338
0.0468309
0.0467793
0.0467758
0.0468177
0.0469025
0.0470273
0.04719
0.0473887
0.0476217
0.0478876
0.048185
0.0485127
0.0488691
0.049253
0.0496628
0.050097
0.0505536
0.0510307
0.0515258
0.0520364
0.0525595
0.0530915
0.0536288
0.0541669
0.0547012
0.0552262
0.0557363
0.0562251
0.0566859
0.0571116
0.0574945
0.0578269
0.0581004
0.0583067
0.058437
0.0584826
0.05382
0.0534751
0.0528238
0.0519645
0.0510434
0.0501886
0.0494621
0.0488603
0.0483523
0.047916
0.0475479
0.0472518
0.0470267
0.0468659
0.046761
0.0467064
0.0466985
0.0467349
0.0468129
0.04693
0.0470841
0.047273
0.0474952
0.0477492
0.0480335
0.0483466
0.0486873
0.0490539
0.0494449
0.0498585
0.0502928
0.0507456
0.0512146
0.0516969
0.0521895
0.0526889
0.0531912
0.0536921
0.0541868
0.05467
0.0551361
0.0555789
0.0559917
0.0563677
0.0566994
0.0569793
0.0571993
0.0573514
0.057427
0.0574179
0.0533362
0.0530271
0.0524408
0.0516611
0.0508135
0.0500123
0.0493187
0.0487374
0.0482454
0.047823
0.0474654
0.0471749
0.0469517
0.0467904
0.0466838
0.0466262
0.0466139
0.0466446
0.0467159
0.0468251
0.0469702
0.0471492
0.0473602
0.0476019
0.0478727
0.048171
0.0484954
0.0488442
0.0492158
0.0496084
0.0500199
0.050448
0.0508903
0.0513438
0.0518056
0.0522719
0.052739
0.0532024
0.0536574
0.0540988
0.054521
0.0549179
0.0552831
0.0556099
0.055891
0.0561191
0.0562866
0.0563856
0.0564081
0.056346
0.0528639
0.0525866
0.0520589
0.0513516
0.0505729
0.0498242
0.0491646
0.0486049
0.0481292
0.0477207
0.0473735
0.0470894
0.0468686
0.0467072
0.0465989
0.0465382
0.0465217
0.0465467
0.046611
0.0467122
0.0468482
0.0470168
0.0472165
0.0474455
0.0477023
0.0479853
0.048293
0.0486236
0.0489754
0.0493464
0.0497346
0.0501376
0.0505527
0.0509771
0.0514076
0.0518406
0.0522722
0.0526979
0.0531132
0.0535128
0.0538912
0.0542426
0.0545606
0.0548387
0.05507
0.0552473
0.0553634
0.0554107
0.0553814
0.0552681
0.0524021
0.0521533
0.0516781
0.0510368
0.0503225
0.0496247
0.0489996
0.0484625
0.0480034
0.0476086
0.0472722
0.0469948
0.0467769
0.0466157
0.0465058
0.0464422
0.0464214
0.0464407
0.0464979
0.0465909
0.0467175
0.0468756
0.0470635
0.0472795
0.047522
0.0477893
0.0480799
0.0483918
0.0487233
0.0490724
0.0494368
0.0498141
0.0502017
0.0505966
0.0509956
0.051395
0.0517908
0.0521788
0.0525543
0.0529123
0.0532472
0.0535534
0.0538248
0.0540549
0.0542372
0.0543648
0.0544307
0.0544277
0.0543484
0.0541857
0.0519499
0.0517266
0.0512985
0.0507173
0.0500628
0.0494141
0.0488237
0.0483099
0.0478679
0.0474869
0.0471612
0.0468908
0.0466763
0.0465156
0.0464042
0.0463378
0.0463126
0.0463261
0.0463763
0.0464609
0.0465779
0.0467252
0.046901
0.0471037
0.0473315
0.0475827
0.0478557
0.0481485
0.0484593
0.048786
0.0491262
0.0494776
0.0498373
0.0502023
0.0505695
0.050935
0.0512951
0.0516454
0.0519812
0.0522977
0.0525895
0.052851
0.0530763
0.0532594
0.0533936
0.0534727
0.0534897
0.053438
0.0533105
0.0531005
0.0515064
0.0513058
0.0509203
0.0503936
0.0497946
0.0491929
0.048637
0.0481471
0.0477224
0.0473551
0.0470402
0.0467771
0.0465663
0.0464064
0.0462938
0.0462245
0.0461949
0.0462027
0.0462456
0.0463217
0.0464289
0.0465651
0.0467286
0.0469176
0.0471303
0.0473651
0.0476202
0.0478935
0.0481832
0.0484871
0.0488028
0.0491278
0.0494593
0.0497942
0.0501293
0.050461
0.0507852
0.0510978
0.0513941
0.0516695
0.0519186
0.052136
0.0523161
0.0524529
0.0525403
0.052572
0.0525417
0.052443
0.0522691
0.052014
0.0510708
0.0508906
0.0505432
0.0500661
0.0495185
0.0489614
0.0484395
0.0479738
0.0475668
0.0472132
0.0469091
0.0466534
0.0464467
0.0462879
0.0461742
0.046102
0.0460681
0.04607
0.0461056
0.046173
0.0462701
0.0463951
0.0465459
0.0467209
0.0469183
0.0471363
0.047373
0.0476265
0.0478948
0.0481755
0.0484663
0.0487646
0.0490677
0.0493723
0.0496753
0.0499729
0.0502613
0.0505364
0.0507936
0.0510281
0.0512351
0.0514091
0.0515448
0.0516364
0.0516781
0.051664
0.051588
0.051444
0.0512259
0.0509277
0.0506423
0.0504804
0.0501673
0.0497352
0.049235
0.0487202
0.0482315
0.04779
0.0474008
0.0470611
0.0467676
0.0465195
0.0463171
0.0461596
0.046045
0.04597
0.0459317
0.0459276
0.0459559
0.0460144
0.0461014
0.0462147
0.0463527
0.0465134
0.0466952
0.046896
0.0471141
0.0473474
0.0475938
0.047851
0.0481167
0.0483881
0.0486625
0.0489367
0.0492074
0.0494711
0.0497239
0.0499616
0.05018
0.0503743
0.0505397
0.0506712
0.0507634
0.050811
0.0508084
0.0507499
0.0506298
0.0504426
0.0501823
0.0498435
0.0502202
0.0500746
0.0497924
0.049401
0.0489445
0.0484695
0.048013
0.0475957
0.0472245
0.0468985
0.0466156
0.0463751
0.0461771
0.0460212
0.0459058
0.045828