/*--------------------------------*- C++ -*----------------------------------*\
  =========                 |
  \\      /  F ield         | OpenFOAM: The Open Source CFD Toolbox
   \\    /   O peration     | Website:  https://openfoam.org
    \\  /    A nd           | Version:  7
     \\/     M anipulation  |
\*---------------------------------------------------------------------------*/
FoamFile
{
    version     2.0;
    format      ascii;
    class       surfaceScalarField;
    location    "0.02";
    object      phi;
}
// * * * * * * * * * * * * * * * * * * * * * * * * * * * * * * * * * * * * * //

dimensions      [0 3 -1 0 0 0 0];

internalField   nonuniform List<scalar> 
139350
(
6.45869e-08
9.20446e-08
3.19356e-08
3.26513e-08
2.30319e-08
8.90361e-09
1.95236e-08
3.50831e-09
1.75565e-08
1.96708e-09
1.61123e-08
1.44426e-09
1.49614e-08
1.15092e-09
1.40284e-08
9.32999e-10
1.32558e-08
7.72615e-10
1.26004e-08
6.55335e-10
1.20336e-08
5.66844e-10
1.15359e-08
4.97668e-10
1.10937e-08
4.422e-10
1.06968e-08
3.96921e-10
1.03374e-08
3.59435e-10
1.00093e-08
3.28033e-10
9.70785e-09
3.01468e-10
9.42904e-09
2.78808e-10
9.16969e-09
2.59352e-10
8.92713e-09
2.42566e-10
8.69909e-09
2.28037e-10
8.48364e-09
2.15446e-10
8.2791e-09
2.04545e-10
8.08396e-09
1.95141e-10
7.89687e-09
1.87088e-10
7.7166e-09
1.80275e-10
7.54198e-09
1.74618e-10
7.37191e-09
1.70066e-10
7.20534e-09
1.66572e-10
7.0412e-09
1.64141e-10
6.87847e-09
1.62727e-10
6.71605e-09
1.62419e-10
6.55295e-09
1.63105e-10
6.3879e-09
1.65043e-10
6.22e-09
1.67905e-10
6.0477e-09
1.72303e-10
5.87031e-09
1.77391e-10
5.68582e-09
1.8449e-10
5.49405e-09
1.91764e-10
5.29234e-09
2.01709e-10
5.08122e-09
2.11119e-10
4.85766e-09
2.23564e-10
4.62203e-09
2.35625e-10
4.37365e-09
2.48387e-10
4.10761e-09
2.66036e-10
3.83601e-09
2.71606e-10
3.53118e-09
3.04824e-10
3.25391e-09
2.77271e-10
2.79977e-09
4.54141e-10
-1.75185e-09
4.55162e-09
1.26018e-07
1.27471e-07
9.12345e-08
6.74346e-08
7.18833e-08
2.82548e-08
6.11209e-08
1.42707e-08
5.46352e-08
8.45278e-09
5.00977e-08
5.9818e-09
4.65657e-08
4.68283e-09
4.36984e-08
3.80031e-09
4.13168e-08
3.15429e-09
3.92962e-08
2.67592e-09
3.75497e-08
2.31327e-09
3.60176e-08
2.02982e-09
3.46572e-08
1.80261e-09
3.34371e-08
1.61704e-09
3.23332e-08
1.46325e-09
3.1327e-08
1.33425e-09
3.04036e-08
1.22491e-09
2.95509e-08
1.13145e-09
2.87593e-08
1.05098e-09
2.80206e-08
9.81318e-10
2.73278e-08
9.20767e-10
2.66753e-08
8.68013e-10
2.60578e-08
8.22034e-10
2.54709e-08
7.82035e-10
2.49106e-08
7.47408e-10
2.43732e-08
7.17684e-10
2.38552e-08
6.92528e-10
2.33536e-08
6.71699e-10
2.28651e-08
6.55042e-10
2.23868e-08
6.42505e-10
2.19155e-08
6.34027e-10
2.14481e-08
6.29776e-10
2.09816e-08
6.29627e-10
2.05125e-08
6.34151e-10
2.00376e-08
6.4278e-10
1.9553e-08
6.56965e-10
1.90555e-08
6.74831e-10
1.85401e-08
6.99861e-10
1.80048e-08
7.27086e-10
1.74422e-08
7.64381e-10
1.68528e-08
8.00467e-10
1.6225e-08
8.51409e-10
1.55654e-08
8.95165e-10
1.48541e-08
9.59686e-10
1.41101e-08
1.01003e-09
1.32989e-08
1.08285e-09
1.24597e-08
1.14401e-09
1.1556e-08
1.18098e-09
1.04616e-08
1.5485e-09
-1.57406e-09
1.02838e-08
1.58801e-07
1.35073e-07
1.36466e-07
8.97695e-08
1.17427e-07
4.7294e-08
1.032e-07
2.84975e-08
9.31362e-08
1.85165e-08
8.57702e-08
1.33479e-08
7.99932e-08
1.04598e-08
7.52644e-08
8.52907e-09
7.13023e-08
7.11642e-09
6.79203e-08
6.05789e-09
6.49857e-08
5.24791e-09
6.24039e-08
4.61157e-09
6.01068e-08
4.09976e-09
5.80433e-08
3.6805e-09
5.61745e-08
3.33207e-09
5.44697e-08
3.03899e-09
5.29047e-08
2.78995e-09
5.14597e-08
2.57647e-09
5.01185e-08
2.39216e-09
4.88677e-08
2.23208e-09
4.76961e-08
2.09244e-09
4.65938e-08
1.97027e-09
4.55526e-08
1.86325e-09
4.4565e-08
1.76958e-09
4.36246e-08
1.68786e-09
4.27253e-08
1.61702e-09
4.18615e-08
1.5563e-09
4.10281e-08
1.50511e-09
4.022e-08
1.46313e-09
3.94323e-08
1.43017e-09
3.86602e-08
1.4062e-09
3.78985e-08
1.39142e-09
3.71423e-08
1.38587e-09
3.63861e-08
1.39036e-09
3.56244e-08
1.40439e-09
3.48512e-08
1.43019e-09
3.40609e-08
1.46517e-09
3.32455e-08
1.51525e-09
3.24006e-08
1.57198e-09
3.15145e-08
1.65047e-09
3.0587e-08
1.72797e-09
2.95976e-08
1.84085e-09
2.85586e-08
1.93413e-09
2.74286e-08
2.08967e-09
2.62529e-08
2.18578e-09
2.49409e-08
2.3948e-09
2.36101e-08
2.47479e-09
2.20976e-08
2.69348e-09
2.04833e-08
3.16289e-09
1.82495e-10
1.87267e-08
1.7566e-07
1.30929e-07
1.65573e-07
9.98569e-08
1.52665e-07
6.02012e-08
1.40014e-07
4.11489e-08
1.29259e-07
2.9271e-08
1.2054e-07
2.20672e-08
1.13342e-07
1.76583e-08
1.07265e-07
1.46057e-08
1.0206e-07
1.23215e-08
9.75448e-08
1.0573e-08
9.35805e-08
9.21222e-09
9.00619e-08
8.13015e-09
8.69097e-08
7.25203e-09
8.40626e-08
6.52755e-09
8.14729e-08
5.92178e-09
7.91023e-08
5.40956e-09
7.692e-08
4.97224e-09
7.49008e-08
4.59575e-09
7.30236e-08
4.26935e-09
7.12709e-08
3.98471e-09
6.9628e-08
3.73537e-09
6.80821e-08
3.51623e-09
6.6622e-08
3.32333e-09
6.52381e-08
3.15351e-09
6.39216e-08
3.00436e-09
6.26646e-08
2.87401e-09
6.14598e-08
2.7611e-09
6.03003e-08
2.6646e-09
5.91794e-08
2.58396e-09
5.80908e-08
2.51879e-09
5.70279e-08
2.46912e-09
5.59842e-08
2.43515e-09
5.49528e-08
2.41721e-09
5.39268e-08
2.41636e-09
5.28988e-08
2.43239e-09
5.18607e-08
2.46833e-09
5.08047e-08
2.52117e-09
4.97205e-08
2.59946e-09
4.86012e-08
2.69128e-09
4.74315e-08
2.82016e-09
4.62093e-08
2.95014e-09
4.49077e-08
3.14249e-09
4.35402e-08
3.30163e-09
4.20515e-08
3.57835e-09
4.04979e-08
3.73933e-09
3.87583e-08
4.13447e-09
3.69817e-08
4.25133e-09
3.49439e-08
4.73128e-09
3.28426e-08
5.26426e-09
2.95972e-09
3.00653e-08
1.84557e-07
1.23157e-07
1.82305e-07
1.02109e-07
1.76058e-07
6.64484e-08
1.67668e-07
4.95386e-08
1.58982e-07
3.79576e-08
1.50994e-07
3.00552e-08
1.43828e-07
2.48237e-08
1.37423e-07
2.10107e-08
1.31706e-07
1.80391e-08
1.26592e-07
1.56863e-08
1.21999e-07
1.3806e-08
1.17848e-07
1.22803e-08
1.14078e-07
1.10225e-08
1.10634e-07
9.97149e-09
1.07472e-07
9.08337e-09
1.04556e-07
8.32564e-09
1.01855e-07
7.67368e-09
9.93421e-08
7.10856e-09
9.69959e-08
6.61557e-09
9.47974e-08
6.18319e-09
9.27304e-08
5.80234e-09
9.07808e-08
5.46581e-09
8.89363e-08
5.1679e-09
8.71857e-08
4.90409e-09
8.55192e-08
4.67088e-09
8.39277e-08
4.46551e-09
8.24028e-08
4.28602e-09
8.09365e-08
4.13088e-09
7.95211e-08
3.99929e-09
7.81493e-08
3.89066e-09
7.68133e-08
3.80511e-09
7.55056e-08
3.74287e-09
7.42181e-08
3.70466e-09
7.29427e-08
3.69178e-09
7.16705e-08
3.70453e-09
7.03921e-08
3.7468e-09
6.90979e-08
3.81539e-09
6.77757e-08
3.92161e-09
6.64166e-08
4.05043e-09
6.50027e-08
4.23401e-09
6.35293e-08
4.42349e-09
6.19661e-08
4.70577e-09
6.03234e-08
4.94429e-09
5.85411e-08
5.36061e-09
5.66713e-08
5.60921e-09
5.4589e-08
6.21678e-09
5.24286e-08
6.41173e-09
4.99782e-08
7.18167e-09
4.74076e-08
7.83486e-09
6.29153e-09
4.40758e-08
1.90385e-07
1.14988e-07
1.91839e-07
1.00656e-07
1.9021e-07
6.80778e-08
1.86082e-07
5.36662e-08
1.80589e-07
4.34506e-08
1.74763e-07
3.58813e-08
1.68978e-07
3.06088e-08
1.6339e-07
2.65989e-08
1.58096e-07
2.33332e-08
1.53139e-07
2.06433e-08
1.48522e-07
1.84221e-08
1.44232e-07
1.65711e-08
1.40243e-07
1.50112e-08
1.36531e-07
1.36838e-08
1.33069e-07
1.25447e-08
1.29835e-07
1.156e-08
1.26806e-07
1.07031e-08
1.23961e-07
9.95291e-09
1.21284e-07
9.2927e-09
1.18758e-07
8.70904e-09
1.16369e-07
8.19115e-09
1.14105e-07
7.73036e-09
1.11953e-07
7.31973e-09
1.09903e-07
6.95366e-09
1.07946e-07
6.62783e-09
1.06073e-07
6.33878e-09
1.04275e-07
6.08406e-09
1.02544e-07
5.86174e-09
1.00873e-07
5.67088e-09
9.92526e-08
5.51075e-09
9.76761e-08
5.38167e-09
9.6135e-08
5.28394e-09
9.46209e-08
5.21875e-09
9.31249e-08
5.18778e-09
9.16375e-08
5.19194e-09
9.01483e-08
5.236e-09
8.86468e-08
5.31695e-09
8.71197e-08
5.4487e-09
8.55562e-08
5.61387e-09
8.39377e-08
5.85253e-09
8.22562e-08
6.10498e-09
8.04811e-08
6.48091e-09
7.86163e-08
6.80911e-09
7.66053e-08
7.37157e-09
7.44831e-08
7.73138e-09
7.21452e-08
8.5547e-09
6.96734e-08
8.88352e-09
6.69296e-08
9.92554e-09
6.39497e-08
1.08147e-08
9.93531e-09
6.0306e-08
1.95538e-07
1.07265e-07
1.98235e-07
9.79576e-08
1.9894e-07
6.73733e-08
1.97731e-07
5.48752e-08
1.95056e-07
4.61256e-08
1.91655e-07
3.92823e-08
1.87847e-07
3.4417e-08
1.83802e-07
3.06431e-08
1.79672e-07
2.74639e-08
1.75565e-07
2.47496e-08
1.71552e-07
2.24352e-08
1.67672e-07
2.04515e-08
1.63945e-07
1.8738e-08
1.60381e-07
1.72477e-08
1.56982e-07
1.59445e-08
1.53742e-07
1.4799e-08
1.50658e-07
1.37877e-08
1.4772e-07
1.28908e-08
1.4492e-07
1.20924e-08
1.4225e-07
1.13793e-08
1.39701e-07
1.07406e-08
1.37264e-07
1.01674e-08
1.34931e-07
9.65241e-09
1.32695e-07
9.18981e-09
1.30548e-07
8.77494e-09
1.28483e-07
8.40408e-09
1.26492e-07
8.07466e-09
1.24569e-07
7.78463e-09
1.22707e-07
7.53313e-09
1.20898e-07
7.31947e-09
1.19135e-07
7.14431e-09
1.17411e-07
7.00818e-09
1.15717e-07
6.91289e-09
1.14044e-07
6.86055e-09
1.12383e-07
6.85289e-09
1.10724e-07
6.89556e-09
1.09055e-07
6.98611e-09
1.07363e-07
7.1407e-09
1.05636e-07
7.34073e-09
1.03856e-07
7.63261e-09
1.02011e-07
7.94925e-09
1.00075e-07
8.41755e-09
9.80413e-08
8.84258e-09
9.58646e-08
9.54821e-09
9.35553e-08
1.00407e-08
9.10438e-08
1.10661e-08
8.83418e-08
1.15855e-08
8.54078e-08
1.28595e-08
8.21365e-08
1.4086e-08
1.37866e-08
7.82852e-08
2.00845e-07
1.00005e-07
2.03764e-07
9.50387e-08
2.053e-07
6.58369e-08
2.05593e-07
5.45826e-08
2.04732e-07
4.69861e-08
2.03204e-07
4.08105e-08
2.01194e-07
3.64267e-08
1.98786e-07
3.30513e-08
1.96084e-07
3.01656e-08
1.93191e-07
2.76426e-08
1.90188e-07
2.54387e-08
1.87134e-07
2.35049e-08
1.84076e-07
2.17963e-08
1.81045e-07
2.02786e-08
1.78065e-07
1.89251e-08
1.7515e-07
1.7714e-08
1.7231e-07
1.66273e-08
1.69551e-07
1.56494e-08
1.66876e-07
1.47673e-08
1.64286e-07
1.39698e-08
1.61779e-07
1.32476e-08
1.59353e-07
1.25929e-08
1.57006e-07
1.19993e-08
1.54735e-07
1.14613e-08
1.52535e-07
1.09748e-08
1.50403e-07
1.05365e-08
1.48333e-07
1.0144e-08
1.46322e-07
9.79576e-09
1.44364e-07
9.49118e-09
1.42454e-07
9.22996e-09
1.40585e-07
9.01328e-09
1.38751e-07
8.84213e-09
1.36945e-07
8.71908e-09
1.35158e-07
8.64683e-09
1.33383e-07
8.62806e-09
1.31609e-07
8.66937e-09
1.29826e-07
8.76919e-09
1.28021e-07
8.94559e-09
1.26182e-07
9.17985e-09
1.24292e-07
9.52286e-09
1.22337e-07
9.90412e-09
1.20294e-07
1.04609e-08
1.18149e-07
1.09874e-08
1.1587e-07
1.18275e-08
1.13441e-07
1.24695e-08
1.10832e-07
1.36753e-08
1.07988e-07
1.4429e-08
1.04949e-07
1.58985e-08
1.01528e-07
1.75073e-08
1.77556e-08
9.7559e-08
2.06443e-07
9.30941e-08
2.09327e-07
9.21554e-08
2.11009e-07
6.41542e-08
2.11882e-07
5.37097e-08
2.11923e-07
4.69458e-08
2.11498e-07
4.1235e-08
2.10719e-07
3.7206e-08
2.09585e-07
3.41845e-08
2.08134e-07
3.16169e-08
2.06422e-07
2.93548e-08
2.04504e-07
2.73567e-08
2.02429e-07
2.558e-08
2.00239e-07
2.39862e-08
1.97971e-07
2.25472e-08
1.95653e-07
2.12429e-08
1.9331e-07
2.00572e-08
1.9096e-07
1.89769e-08
1.88619e-07
1.79909e-08
1.86296e-07
1.70894e-08
1.84002e-07
1.62642e-08
1.81741e-07
1.55082e-08
1.79519e-07
1.48155e-08
1.77337e-07
1.41811e-08
1.75197e-07
1.36009e-08
1.73101e-07
1.30716e-08
1.71046e-07
1.2591e-08
1.69033e-07
1.21574e-08
1.67059e-07
1.17699e-08
1.65121e-07
1.14286e-08
1.63217e-07
1.11339e-08
1.61343e-07
1.08878e-08
1.59493e-07
1.06919e-08
1.57662e-07
1.05496e-08
1.55845e-07
1.04645e-08
1.54033e-07
1.04403e-08
1.52217e-07
1.04846e-08
1.5039e-07
1.0597e-08
1.48538e-07
1.0797e-08
1.46651e-07
1.1067e-08
1.44713e-07
1.14605e-08
1.4271e-07
1.19072e-08
1.40623e-07
1.25483e-08
1.38431e-07
1.31789e-08
1.36116e-07
1.41431e-08
1.3364e-07
1.49447e-08
1.31007e-07
1.63091e-08
1.28115e-07
1.7321e-08
1.25049e-07
1.89639e-08
1.2161e-07
2.09466e-08
2.17293e-08
1.17636e-07
2.12285e-07
8.64711e-08
2.15139e-07
8.93017e-08
2.16763e-07
6.25305e-08
2.17794e-07
5.26786e-08
2.18182e-07
4.65575e-08
2.18264e-07
4.11529e-08
2.18146e-07
3.73242e-08
2.17794e-07
3.45361e-08
2.172e-07
3.22108e-08
2.16381e-07
3.0174e-08
2.15359e-07
2.83784e-08
2.14159e-07
2.67801e-08
2.12806e-07
2.53397e-08
2.11324e-07
2.40293e-08
2.09736e-07
2.28302e-08
2.08065e-07
2.17286e-08
2.06328e-07
2.07138e-08
2.04542e-07
1.9777e-08
2.0272e-07
1.89109e-08
2.00875e-07
1.81095e-08
1.99016e-07
1.73676e-08
1.9715e-07
1.66811e-08
1.95285e-07
1.60464e-08
1.93425e-07
1.54609e-08
1.91574e-07
1.49226e-08
1.89734e-07
1.44301e-08
1.87909e-07
1.3983e-08
1.86098e-07
1.3581e-08
1.84301e-07
1.32254e-08
1.82517e-07
1.29173e-08
1.80746e-07
1.26595e-08
1.78983e-07
1.24545e-08
1.77226e-07
1.23069e-08
1.75469e-07
1.22208e-08
1.73708e-07
1.22013e-08
1.71936e-07
1.2257e-08
1.70144e-07
1.23888e-08
1.68323e-07
1.26177e-08
1.66463e-07
1.29274e-08
1.64551e-07
1.33728e-08
1.62571e-07
1.38866e-08
1.60511e-07
1.4609e-08
1.58345e-07
1.53448e-08
1.56065e-07
1.64231e-08
1.53621e-07
1.73884e-08
1.51037e-07
1.88929e-08
1.4819e-07
2.01678e-08
1.4518e-07
2.19739e-08
1.41837e-07
2.42903e-08
2.55864e-08
1.37979e-07
2.18326e-07
8.01255e-08
2.21192e-07
8.64357e-08
2.22734e-07
6.09883e-08
2.23792e-07
5.16214e-08
2.24289e-07
4.606e-08
2.2455e-07
4.08919e-08
2.24711e-07
3.71633e-08
2.24743e-07
3.45039e-08
2.24623e-07
3.23307e-08
2.2435e-07
3.04471e-08
2.23927e-07
2.88015e-08
2.23359e-07
2.73482e-08
2.22654e-07
2.60449e-08
2.21822e-07
2.48613e-08
2.20875e-07
2.37771e-08
2.19826e-07
2.27781e-08
2.18686e-07
2.18534e-08
2.17468e-07
2.09948e-08
2.16183e-07
2.01958e-08
2.14841e-07
1.94513e-08
2.13452e-07
1.8757e-08
2.12023e-07
1.81098e-08
2.10562e-07
1.75074e-08
2.09075e-07
1.69479e-08
2.07568e-07
1.64305e-08
2.06043e-07
1.59545e-08
2.04506e-07
1.55205e-08
2.02958e-07
1.51291e-08
2.01401e-07
1.47824e-08
1.99836e-07
1.44823e-08
1.98263e-07
1.42325e-08
1.96681e-07
1.40365e-08
1.95088e-07
1.38996e-08
1.93482e-07
1.38271e-08
1.91858e-07
1.3825e-08
1.90212e-07
1.39031e-08
1.88537e-07
1.40636e-08
1.86827e-07
1.43284e-08
1.85071e-07
1.46835e-08
1.83259e-07
1.5184e-08
1.81379e-07
1.57674e-08
1.79419e-07
1.65689e-08
1.77353e-07
1.741e-08
1.75183e-07
1.85937e-08
1.7285e-07
1.97208e-08
1.70392e-07
2.1351e-08
1.67681e-07
2.2879e-08
1.64811e-07
2.48442e-08
1.61661e-07
2.74398e-08
2.92137e-08
1.58034e-07
2.24555e-07
7.40637e-08
2.27456e-07
8.35346e-08
2.2893e-07
5.95141e-08
2.29992e-07
5.05597e-08
2.3053e-07
4.55221e-08
2.30839e-07
4.05828e-08
2.3109e-07
3.69127e-08
2.31272e-07
3.4322e-08
2.31364e-07
3.22382e-08
2.31364e-07
3.0447e-08
2.3127e-07
2.88952e-08
2.3108e-07
2.75386e-08
2.30791e-07
2.63336e-08
2.30405e-07
2.52475e-08
2.29924e-07
2.42582e-08
2.29352e-07
2.335e-08
2.28694e-07
2.25111e-08
2.27957e-07
2.17326e-08
2.27145e-07
2.10075e-08
2.26266e-07
2.03306e-08
2.25325e-07
1.96979e-08
2.24328e-07
1.91064e-08
2.23282e-07
1.85542e-08
2.2219e-07
1.80397e-08
2.21058e-07
1.75627e-08
2.19889e-07
1.7123e-08
2.18688e-07
1.67218e-08
2.17456e-07
1.63604e-08
2.16197e-07
1.60414e-08
2.14912e-07
1.57675e-08
2.13601e-07
1.5543e-08
2.12266e-07
1.53722e-08
2.10904e-07
1.5261e-08
2.09515e-07
1.5216e-08
2.08097e-07
1.52437e-08
2.06645e-07
1.53551e-08
2.05155e-07
1.55534e-08
2.03622e-07
1.58618e-08
2.02037e-07
1.62681e-08
2.00394e-07
1.6827e-08
1.98679e-07
1.7482e-08
1.96887e-07
1.8361e-08
1.94992e-07
1.93055e-08
1.92999e-07
2.05867e-08
1.9085e-07
2.18691e-08
1.88589e-07
2.36128e-08
1.86094e-07
2.53734e-08
1.83444e-07
2.74942e-08
1.80573e-07
3.0311e-08
3.25132e-08
1.77274e-07
2.30976e-07
6.8294e-08
2.3392e-07
8.059e-08
2.35335e-07
5.80996e-08
2.36402e-07
4.94925e-08
2.36972e-07
4.49515e-08
2.37296e-07
4.02593e-08
2.37567e-07
3.66413e-08
2.37795e-07
3.40947e-08
2.37963e-07
3.20698e-08
2.38074e-07
3.03359e-08
2.38129e-07
2.884e-08
2.38126e-07
2.75418e-08
2.38061e-07
2.63985e-08
2.37932e-07
2.53768e-08
2.37737e-07
2.44535e-08
2.37475e-07
2.3612e-08
2.37146e-07
2.28396e-08
2.36752e-07
2.21265e-08
2.36294e-07
2.14653e-08
2.35775e-07
2.085e-08
2.35197e-07
2.02764e-08
2.34562e-07
1.97412e-08
2.33874e-07
1.92424e-08
2.33135e-07
1.87784e-08
2.32348e-07
1.83491e-08
2.31517e-07
1.79545e-08
2.30643e-07
1.7596e-08
2.29728e-07
1.72752e-08
2.28774e-07
1.6995e-08
2.27783e-07
1.67586e-08
2.26756e-07
1.65707e-08
2.25692e-07
1.64362e-08
2.24591e-07
1.63616e-08
2.23453e-07
1.63541e-08
2.22276e-07
1.64209e-08
2.21057e-07
1.65739e-08
2.19793e-07
1.68172e-08
2.1848e-07
1.71748e-08
2.17112e-07
1.76364e-08
2.15683e-07
1.82557e-08
2.14183e-07
1.89828e-08
2.12607e-07
1.99363e-08
2.10933e-07
2.09802e-08
2.09169e-07
2.23504e-08
2.07261e-07
2.3777e-08
2.05251e-07
2.56229e-08
2.03036e-07
2.75882e-08
2.00672e-07
2.98583e-08
1.98142e-07
3.28411e-08
3.54105e-08
1.95244e-07
2.37597e-07
6.28221e-08
2.40587e-07
7.75993e-08
2.41944e-07
5.67427e-08
2.43016e-07
4.84211e-08
2.43622e-07
4.43448e-08
2.43958e-07
3.99236e-08
2.44234e-07
3.6366e-08
2.44472e-07
3.38562e-08
2.44662e-07
3.18796e-08
2.44809e-07
3.01888e-08
2.44919e-07
2.87301e-08
2.44992e-07
2.74684e-08
2.45028e-07
2.63633e-08
2.45023e-07
2.53818e-08
2.44975e-07
2.45008e-08
2.44884e-07
2.37033e-08
2.44747e-07
2.29764e-08
2.44564e-07
2.23101e-08
2.44333e-07
2.16962e-08
2.44054e-07
2.11287e-08
2.43728e-07
2.06028e-08
2.43354e-07
2.01151e-08
2.42933e-07
1.9663e-08
2.42466e-07
1.92452e-08
2.41954e-07
1.8861e-08
2.41398e-07
1.85107e-08
2.40799e-07
1.81956e-08
2.40156e-07
1.79173e-08
2.39472e-07
1.7679e-08
2.38747e-07
1.74839e-08
2.37981e-07
1.73372e-08
2.37173e-07
1.72438e-08
2.36324e-07
1.72107e-08
2.35432e-07
1.72457e-08
2.34497e-07
1.73561e-08
2.33516e-07
1.75549e-08
2.32487e-07
1.78464e-08
2.31406e-07
1.82555e-08
2.30269e-07
1.87735e-08
2.29072e-07
1.94525e-08
2.27806e-07
2.02496e-08
2.26469e-07
2.12728e-08
2.2504e-07
2.24093e-08
2.23532e-07
2.38589e-08
2.21894e-07
2.54146e-08
2.20166e-07
2.73511e-08
2.18266e-07
2.94882e-08
2.16228e-07
3.18962e-08
2.14074e-07
3.49955e-08
3.78638e-08
2.1162e-07
2.44427e-07
5.76516e-08
2.47457e-07
7.45692e-08
2.48764e-07
5.54353e-08
2.49835e-07
4.73502e-08
2.5048e-07
4.37003e-08
2.50831e-07
3.9572e-08
2.5111e-07
3.60875e-08
2.51352e-07
3.36138e-08
2.51548e-07
3.16834e-08
2.51705e-07
3.00324e-08
2.5183e-07
2.86045e-08
2.51928e-07
2.73702e-08
2.52e-07
2.62918e-08
2.52044e-07
2.53373e-08
2.52061e-07
2.4484e-08
2.52049e-07
2.37154e-08
2.52007e-07
2.30186e-08
2.51933e-07
2.23836e-08
2.51827e-07
2.18025e-08
2.51687e-07
2.12689e-08
2.51512e-07
2.0778e-08
2.51301e-07
2.0326e-08
2.51053e-07
1.99105e-08
2.50769e-07
1.95298e-08
2.50446e-07
1.91832e-08
2.50086e-07
1.8871e-08
2.49688e-07
1.85941e-08
2.49251e-07
1.83545e-08
2.48774e-07
1.81551e-08
2.48259e-07
1.79994e-08
2.47704e-07
1.78925e-08
2.47108e-07
1.78397e-08
2.46471e-07
1.78478e-08
2.45791e-07
1.79252e-08
2.45068e-07
1.80793e-08
2.44299e-07
1.83237e-08
2.43483e-07
1.8663e-08
2.42616e-07
1.91222e-08
2.41695e-07
1.96944e-08
2.40718e-07
2.04295e-08
2.39676e-07
2.12917e-08
2.38571e-07
2.23776e-08
2.37383e-07
2.35972e-08
2.36127e-07
2.51154e-08
2.34759e-07
2.6782e-08
2.33314e-07
2.87964e-08
2.31731e-07
3.10707e-08
2.30028e-07
3.35996e-08
2.2825e-07
3.67729e-08
3.98695e-08
2.26245e-07
2.51474e-07
5.27844e-08
2.54534e-07
7.15093e-08
2.55802e-07
5.4167e-08
2.56867e-07
4.62852e-08
2.57548e-07
4.30191e-08
2.57919e-07
3.92015e-08
2.58202e-07
3.58046e-08
2.58448e-07
3.33679e-08
2.58647e-07
3.14838e-08
2.58806e-07
2.98735e-08
2.58935e-07
2.84757e-08
2.59039e-07
2.7266e-08
2.59121e-07
2.62103e-08
2.59181e-07
2.52773e-08
2.5922e-07
2.4445e-08
2.59238e-07
2.36973e-08
2.59234e-07
2.3022e-08
2.59209e-07
2.24091e-08
2.59161e-07
2.18509e-08
2.59088e-07
2.13412e-08
2.58991e-07
2.08753e-08
2.58867e-07
2.04495e-08
2.58717e-07
2.00612e-08
2.58538e-07
1.97087e-08
2.58329e-07
1.93915e-08
2.58091e-07
1.91096e-08
2.57821e-07
1.88641e-08
2.57519e-07
1.86568e-08
2.57183e-07
1.84907e-08
2.56813e-07
1.83694e-08
2.56407e-07
1.82979e-08
2.55965e-07
1.82817e-08
2.55486e-07
1.83275e-08
2.54967e-07
1.84441e-08
2.54408e-07
1.86387e-08
2.53806e-07
1.89253e-08
2.5316e-07
1.93088e-08
2.52468e-07
1.98141e-08
2.51727e-07
2.04361e-08
2.50935e-07
2.12215e-08
2.50084e-07
2.21419e-08
2.4918e-07
2.3282e-08
2.48204e-07
2.45733e-08
2.4717e-07
2.61488e-08
2.46046e-07
2.79068e-08
2.44856e-07
2.99858e-08
2.43564e-07
3.23634e-08
2.42171e-07
3.49922e-08
2.4074e-07
3.82043e-08
4.14616e-08
2.39148e-07
2.58747e-07
4.82206e-08
2.61827e-07
6.84295e-08
2.63066e-07
5.29272e-08
2.6412e-07
4.52313e-08
2.64836e-07
4.23037e-08
2.65227e-07
3.88101e-08
2.65515e-07
3.55163e-08
2.65765e-07
3.31179e-08
2.65968e-07
3.12806e-08
2.66129e-07
2.97127e-08
2.66259e-07
2.83462e-08
2.66364e-07
2.71613e-08
2.66446e-07
2.61274e-08
2.66509e-07
2.52145e-08
2.66553e-07
2.44009e-08
2.6658e-07
2.36711e-08
2.66588e-07
2.30133e-08
2.66579e-07
2.2418e-08
2.66553e-07
2.18777e-08
2.66507e-07
2.13864e-08
2.66443e-07
2.09395e-08
2.66359e-07
2.05336e-08
2.66254e-07
2.01661e-08
2.66127e-07
1.98355e-08
2.65978e-07
1.95412e-08
2.65804e-07
1.92833e-08
2.65605e-07
1.9063e-08
2.6538e-07
1.88822e-08
2.65127e-07
1.87438e-08
2.64845e-07
1.86515e-08
2.64532e-07
1.86102e-08
2.64188e-07
1.86257e-08
2.63811e-07
1.87045e-08
2.634e-07
1.88556e-08
2.62952e-07
1.90862e-08
2.62467e-07
1.94105e-08
2.61943e-07
1.98334e-08
2.61377e-07
2.03795e-08
2.60768e-07
2.10455e-08
2.60115e-07
2.18746e-08
2.59411e-07
2.28455e-08
2.58662e-07
2.40312e-08
2.57853e-07
2.53827e-08
2.56997e-07
2.70046e-08
2.56069e-07
2.88347e-08
2.55089e-07
3.09654e-08
2.54037e-07
3.34156e-08
2.52908e-07
3.61214e-08
2.51767e-07
3.93453e-08
4.27032e-08
2.50525e-07
2.66254e-07
4.39585e-08
2.69343e-07
6.53404e-08
2.70565e-07
5.17055e-08
2.71604e-07
4.41929e-08
2.7235e-07
4.15576e-08
2.72764e-07
3.83962e-08
2.73058e-07
3.52218e-08
2.73312e-07
3.28639e-08
2.73519e-07
3.10733e-08
2.73682e-07
2.95497e-08
2.73812e-07
2.82161e-08
2.73917e-07
2.70568e-08
2.73999e-07
2.60452e-08
2.74061e-07
2.51525e-08
2.74105e-07
2.43573e-08
2.74131e-07
2.36447e-08
2.74141e-07
2.30033e-08
2.74135e-07
2.2424e-08
2.74113e-07
2.18995e-08
2.74076e-07
2.14241e-08
2.74022e-07
2.09935e-08
2.73951e-07
2.06042e-08
2.73863e-07
2.02541e-08
2.73757e-07
1.99416e-08
2.73632e-07
1.96663e-08
2.73487e-07
1.94284e-08
2.7332e-07
1.92292e-08
2.73132e-07
1.90706e-08
2.7292e-07
1.89557e-08
2.72683e-07
1.88882e-08
2.7242e-07
1.8873e-08
2.7213e-07
1.8916e-08
2.71811e-07
1.90236e-08
2.71462e-07
1.9205e-08
2.7108e-07
1.94673e-08
2.70666e-07
1.98247e-08
2.70217e-07
2.02825e-08
2.69732e-07
2.08643e-08
2.69209e-07
2.15688e-08
2.68648e-07
2.24354e-08
2.68044e-07
2.34496e-08
2.67402e-07
2.46733e-08
2.6671e-07
2.60742e-08
2.65982e-07
2.77334e-08
2.65198e-07
2.96184e-08
2.64374e-07
3.17892e-08
2.63503e-07
3.42868e-08
2.62577e-07
3.70475e-08
2.61659e-07
4.02636e-08
4.36731e-08
2.60689e-07
2.74005e-07
3.99946e-08
2.77093e-07
6.22529e-08
2.78306e-07
5.04918e-08
2.79326e-07
4.31735e-08
2.80098e-07
4.07848e-08
2.80536e-07
3.79581e-08
2.80838e-07
3.49202e-08
2.81096e-07
3.26061e-08
2.81307e-07
3.08619e-08
2.81473e-07
2.93841e-08
2.81604e-07
2.80852e-08
2.81708e-07
2.69526e-08
2.81789e-07
2.5964e-08
2.8185e-07
2.5092e-08
2.81891e-07
2.43157e-08
2.81916e-07
2.36205e-08
2.81924e-07
2.29955e-08
2.81916e-07
2.24319e-08
2.81893e-07
2.19227e-08
2.81854e-07
2.14625e-08
2.818e-07
2.10472e-08
2.81731e-07
2.06734e-08
2.81646e-07
2.03392e-08
2.81545e-07
2.00432e-08
2.81426e-07
1.9785e-08
2.81289e-07
1.95651e-08
2.81134e-07
1.93847e-08
2.80958e-07
1.9246e-08
2.80762e-07
1.91521e-08
2.80543e-07
1.91067e-08
2.80302e-07
1.91148e-08
2.80035e-07
1.91825e-08
2.79743e-07
1.9316e-08
2.79423e-07
1.95247e-08
2.79075e-07
1.98155e-08
2.78697e-07
2.02026e-08
2.78288e-07
2.06917e-08
2.77847e-07
2.13051e-08
2.77372e-07
2.20438e-08
2.76864e-07
2.29431e-08
2.76319e-07
2.39946e-08
2.75742e-07
2.52504e-08
2.75124e-07
2.66919e-08
2.74476e-07
2.83812e-08
2.73787e-07
3.03076e-08
2.73068e-07
3.25088e-08
2.7232e-07
3.50346e-08
2.71536e-07
3.78309e-08
2.70773e-07
4.10266e-08
4.44511e-08
2.69995e-07
2.82008e-07
3.63236e-08
2.85083e-07
5.91786e-08
2.86298e-07
4.92764e-08
2.87296e-07
4.21759e-08
2.8809e-07
3.99901e-08
2.88554e-07
3.74948e-08
2.88864e-07
3.46102e-08
2.89125e-07
3.23446e-08
2.89341e-07
3.06463e-08
2.89509e-07
2.92156e-08
2.89641e-07
2.79533e-08
2.89745e-07
2.68486e-08
2.89826e-07
2.58837e-08
2.89885e-07
2.5033e-08
2.89924e-07
2.42761e-08
2.89946e-07
2.35988e-08
2.89951e-07
2.29906e-08
2.8994e-07
2.2443e-08
2.89913e-07
2.19494e-08
2.89871e-07
2.15045e-08
2.89814e-07
2.11043e-08
2.89741e-07
2.07459e-08
2.89653e-07
2.04272e-08
2.89549e-07
2.01472e-08
2.89429e-07
1.99056e-08
2.89291e-07
1.97028e-08
2.89135e-07
1.95405e-08
2.88961e-07
1.94206e-08
2.88766e-07
1.93465e-08
2.88551e-07
1.9322e-08
2.88314e-07
1.9352e-08
2.88054e-07
1.94428e-08
2.87769e-07
1.96006e-08
2.87459e-07
1.98347e-08
2.87122e-07
2.01521e-08
2.86758e-07
2.05667e-08
2.86365e-07
2.10847e-08
2.85943e-07
2.17272e-08
2.8549e-07
2.2497e-08
2.85007e-07
2.34257e-08
2.84492e-07
2.45103e-08
2.83948e-07
2.57942e-08
2.8337e-07
2.72698e-08
2.82767e-07
2.89845e-08
2.82133e-07
3.09419e-08
2.81475e-07
3.31665e-08
2.80802e-07
3.57072e-08
2.80109e-07
3.85238e-08
2.79444e-07
4.16924e-08
4.51072e-08
2.78788e-07
2.90274e-07
3.29385e-08
2.93323e-07
5.61293e-08
2.94549e-07
4.80504e-08
2.95523e-07
4.12019e-08
2.96335e-07
3.91787e-08
2.96824e-07
3.70051e-08
2.97144e-07
3.42906e-08
2.97409e-07
3.20794e-08
2.97629e-07
3.04264e-08
2.978e-07
2.9044e-08
2.97934e-07
2.78201e-08
2.98038e-07
2.67445e-08
2.98117e-07
2.58041e-08
2.98175e-07
2.49755e-08
2.98212e-07
2.42387e-08
2.98231e-07
2.35799e-08
2.98233e-07
2.29889e-08
2.98218e-07
2.24578e-08
2.98187e-07
2.198e-08
2.98141e-07
2.15507e-08
2.98079e-07
2.1166e-08
2.98002e-07
2.08231e-08
2.97909e-07
2.05202e-08
2.978e-07
2.02562e-08
2.97675e-07
2.00312e-08
2.97532e-07
1.98456e-08
2.97371e-07
1.9701e-08
2.97192e-07
1.95998e-08
2.96993e-07
1.95452e-08
2.96774e-07
1.95412e-08
2.96533e-07
1.95928e-08
2.9627e-07
1.97061e-08
2.95983e-07
1.98874e-08
2.95672e-07
2.01461e-08
2.95335e-07
2.04891e-08
2.94971e-07
2.09301e-08
2.9458e-07
2.14757e-08
2.94162e-07
2.21457e-08
2.93714e-07
2.29448e-08
2.93239e-07
2.3901e-08
2.92733e-07
2.50158e-08
2.92202e-07
2.63254e-08
2.91641e-07
2.78304e-08
2.91058e-07
2.95676e-08
2.90451e-07
3.1549e-08
2.89825e-07
3.37922e-08
2.89193e-07
3.63395e-08
2.88552e-07
3.91651e-08
2.8794e-07
4.23044e-08
4.56952e-08
2.87352e-07
2.98811e-07
2.98303e-08
3.01823e-07
5.3117e-08
3.03067e-07
4.68061e-08
3.04017e-07
4.02525e-08
3.0484e-07
3.83561e-08
3.05356e-07
3.64889e-08
3.05687e-07
3.39599e-08
3.05955e-07
3.18105e-08
3.06179e-07
3.02025e-08
3.06354e-07
2.88689e-08
3.06489e-07
2.76853e-08
3.06593e-07
2.66403e-08
3.06672e-07
2.57253e-08
3.06728e-07
2.49194e-08
3.06764e-07
2.42033e-08
3.0678e-07
2.35636e-08
3.06779e-07
2.29904e-08
3.0676e-07
2.24762e-08
3.06725e-07
2.20148e-08
3.06675e-07
2.16015e-08
3.06608e-07
2.12326e-08
3.06525e-07
2.09056e-08
3.06427e-07
2.06188e-08
3.06312e-07
2.03712e-08
3.0618e-07
2.0163e-08
3.06031e-07
1.99948e-08
3.05864e-07
1.98683e-08
3.05678e-07
1.97859e-08
3.05472e-07
1.97509e-08
3.05246e-07
1.97675e-08
3.04998e-07
1.98405e-08
3.04728e-07
1.99762e-08
3.04434e-07
2.0181e-08
3.04116e-07
2.0464e-08
3.03773e-07
2.08325e-08
3.03404e-07
2.12993e-08
3.03008e-07
2.1872e-08
3.02584e-07
2.25688e-08
3.02133e-07
2.33962e-08
3.01655e-07
2.43789e-08
3.01149e-07
2.55221e-08
3.00618e-07
2.68562e-08
3.00061e-07
2.83876e-08
2.99483e-07
3.01455e-08
2.98885e-07
3.21465e-08
2.98273e-07
3.44046e-08
2.97659e-07
3.69538e-08
2.97043e-07
3.97807e-08
2.96456e-07
4.28911e-08
4.62512e-08
2.959e-07
3.07629e-07
2.69885e-08
3.10592e-07
5.01537e-08
3.11862e-07
4.55367e-08
3.12787e-07
3.93276e-08
3.13615e-07
3.75276e-08
3.14158e-07
3.59463e-08
3.14501e-07
3.36165e-08
3.14774e-07
3.15378e-08
3.15002e-07
2.99746e-08
3.1518e-07
2.86903e-08
3.15317e-07
2.75488e-08
3.15422e-07
2.65357e-08
3.155e-07
2.5647e-08
3.15555e-07
2.48646e-08
3.15588e-07
2.41699e-08
3.15602e-07
2.35498e-08
3.15597e-07
2.2995e-08
3.15575e-07
2.24982e-08
3.15536e-07
2.20536e-08
3.15481e-07
2.16568e-08
3.15409e-07
2.13042e-08
3.15322e-07
2.09935e-08
3.15217e-07
2.07231e-08
3.15096e-07
2.04924e-08
3.14958e-07
2.03013e-08
3.14802e-07
2.01508e-08
3.14627e-07
2.00427e-08
3.14434e-07
1.99795e-08
3.1422e-07
1.99644e-08
3.13986e-07
2.00018e-08
3.1373e-07
2.00965e-08
3.13451e-07
2.02549e-08
3.13149e-07
2.04833e-08
3.12822e-07
2.07907e-08
3.1247e-07
2.11845e-08
3.12092e-07
2.16773e-08
3.11687e-07
2.22769e-08
3.11256e-07
2.30002e-08
3.10797e-07
2.38553e-08
3.10312e-07
2.4864e-08
3.09799e-07
2.60346e-08
3.09263e-07
2.73925e-08
3.08702e-07
2.89484e-08
3.08121e-07
3.07262e-08
3.07524e-07
3.27437e-08
3.06914e-07
3.50144e-08
3.06305e-07
3.7563e-08
3.057e-07
4.03862e-08
3.05121e-07
4.34698e-08
4.67974e-08
3.04575e-07
3.16739e-07
2.44012e-08
3.19641e-07
4.72514e-08
3.20941e-07
4.42368e-08
3.21842e-07
3.84262e-08
3.22671e-07
3.66983e-08
3.23239e-07
3.53785e-08
3.23597e-07
3.32589e-08
3.23874e-07
3.12607e-08
3.24105e-07
2.97428e-08
3.24288e-07
2.85078e-08
3.24426e-07
2.74101e-08
3.24532e-07
2.64306e-08
3.24609e-07
2.55692e-08
3.24663e-07
2.48109e-08
3.24695e-07
2.41383e-08
3.24706e-07
2.35385e-08
3.24698e-07
2.30026e-08
3.24673e-07
2.25238e-08
3.2463e-07
2.20966e-08
3.2457e-07
2.17167e-08
3.24493e-07
2.13808e-08
3.244e-07
2.10869e-08
3.2429e-07
2.08334e-08
3.24162e-07
2.06198e-08
3.24017e-07
2.04463e-08
3.23854e-07
2.0314e-08
3.23672e-07
2.02246e-08
3.23471e-07
2.01808e-08
3.23249e-07
2.0186e-08
3.23006e-07
2.02446e-08
3.22742e-07
2.03614e-08
3.22454e-07
2.05427e-08
3.22142e-07
2.0795e-08
3.21806e-07
2.1127e-08
3.21444e-07
2.15463e-08
3.21056e-07
2.2065e-08
3.20642e-07
2.26914e-08
3.20201e-07
2.34413e-08
3.19732e-07
2.43238e-08
3.19238e-07
2.53584e-08
3.18717e-07
2.65555e-08
3.18172e-07
2.79371e-08
3.17605e-07
2.9516e-08
3.17018e-07
3.13128e-08
3.16417e-07
3.33451e-08
3.15805e-07
3.56266e-08
3.15194e-07
3.81735e-08
3.14591e-07
4.09898e-08
3.14012e-07
4.40489e-08
4.73452e-08
3.13464e-07
3.26149e-07
2.2055e-08
3.28978e-07
4.4422e-08
3.30312e-07
4.29028e-08
3.31192e-07
3.75463e-08
3.32017e-07
3.58733e-08
3.32608e-07
3.47873e-08
3.32982e-07
3.28857e-08
3.33264e-07
3.09789e-08
3.33499e-07
2.95073e-08
3.33685e-07
2.83214e-08
3.33826e-07
2.7269e-08
3.33932e-07
2.63247e-08
3.3401e-07
2.54916e-08
3.34063e-07
2.47583e-08
3.34092e-07
2.41085e-08
3.34101e-07
2.35297e-08
3.34091e-07
2.30133e-08
3.34061e-07
2.2553e-08
3.34014e-07
2.21436e-08
3.3395e-07
2.1781e-08
3.33868e-07
2.14624e-08
3.3377e-07
2.11856e-08
3.33654e-07
2.09494e-08
3.3352e-07
2.07534e-08
3.33368e-07
2.0598e-08
3.33198e-07
2.04842e-08
3.33009e-07
2.0414e-08
3.328e-07
2.03901e-08
3.3257e-07
2.04159e-08
3.32318e-07
2.0496e-08
3.32044e-07
2.06351e-08
3.31747e-07
2.08397e-08