/*--------------------------------*- C++ -*----------------------------------*\
  =========                 |
  \\      /  F ield         | OpenFOAM: The Open Source CFD Toolbox
   \\    /   O peration     | Website:  https://openfoam.org
    \\  /    A nd           | Version:  7
     \\/     M anipulation  |
\*---------------------------------------------------------------------------*/
FoamFile
{
    version     2.0;
    format      ascii;
    class       surfaceScalarField;
    location    "0.02";
    object      phi_0;
}
// * * * * * * * * * * * * * * * * * * * * * * * * * * * * * * * * * * * * * //

dimensions      [0 3 -1 0 0 0 0];

internalField   nonuniform List<scalar> 
139350
(
6.45869e-08
9.20446e-08
3.19355e-08
3.26514e-08
2.30319e-08
8.90362e-09
1.95236e-08
3.50832e-09
1.75565e-08
1.96709e-09
1.61123e-08
1.44426e-09
1.49613e-08
1.15092e-09
1.40283e-08
9.33002e-10
1.32557e-08
7.72616e-10
1.26004e-08
6.55335e-10
1.20335e-08
5.66842e-10
1.15359e-08
4.97665e-10
1.10937e-08
4.42195e-10
1.06968e-08
3.96914e-10
1.03373e-08
3.59426e-10
1.00093e-08
3.28022e-10
9.70786e-09
3.01454e-10
9.42907e-09
2.78792e-10
9.16974e-09
2.59334e-10
8.92719e-09
2.42545e-10
8.69918e-09
2.28013e-10
8.48376e-09
2.15419e-10
8.27925e-09
2.04515e-10
8.08414e-09
1.95109e-10
7.89708e-09
1.87054e-10
7.71685e-09
1.80238e-10
7.54227e-09
1.7458e-10
7.37224e-09
1.70027e-10
7.20571e-09
1.66532e-10
7.04161e-09
1.641e-10
6.87892e-09
1.62687e-10
6.71654e-09
1.6238e-10
6.55347e-09
1.63069e-10
6.38846e-09
1.65012e-10
6.22058e-09
1.67879e-10
6.0483e-09
1.72284e-10
5.87091e-09
1.77382e-10
5.68642e-09
1.84492e-10
5.49464e-09
1.91779e-10
5.2929e-09
2.01741e-10
5.08173e-09
2.1117e-10
4.85809e-09
2.23641e-10
4.62236e-09
2.35728e-10
4.37384e-09
2.48524e-10
4.10763e-09
2.66208e-10
3.83581e-09
2.71819e-10
3.53074e-09
3.05074e-10
3.25318e-09
2.77563e-10
2.7987e-09
4.54481e-10
-1.75126e-09
4.54995e-09
1.26018e-07
1.27471e-07
9.12345e-08
6.74346e-08
7.18833e-08
2.82548e-08
6.11209e-08
1.42707e-08
5.46351e-08
8.4528e-09
5.00976e-08
5.98182e-09
4.65657e-08
4.68284e-09
4.36984e-08
3.80032e-09
4.13167e-08
3.1543e-09
3.92961e-08
2.67592e-09
3.75497e-08
2.31326e-09
3.60175e-08
2.0298e-09
3.46571e-08
1.80258e-09
3.34371e-08
1.61701e-09
3.23333e-08
1.46321e-09
3.13271e-08
1.3342e-09
3.04037e-08
1.22485e-09
2.95511e-08
1.13138e-09
2.87595e-08
1.0509e-09
2.80209e-08
9.81222e-10
2.73282e-08
9.20659e-10
2.66758e-08
8.67892e-10
2.60584e-08
8.21901e-10
2.54716e-08
7.81888e-10
2.49114e-08
7.47249e-10
2.43741e-08
7.17514e-10
2.38563e-08
6.92348e-10
2.33549e-08
6.7151e-10
2.28666e-08
6.54846e-10
2.23883e-08
6.42304e-10
2.19172e-08
6.33824e-10
2.145e-08
6.29575e-10
2.09837e-08
6.29433e-10
2.05147e-08
6.33968e-10
2.004e-08
6.42614e-10
1.95554e-08
6.56823e-10
1.90581e-08
6.74719e-10
1.85428e-08
6.9979e-10
1.80075e-08
7.27063e-10
1.74448e-08
7.64421e-10
1.68554e-08
8.00578e-10
1.62274e-08
8.51619e-10
1.55677e-08
8.95474e-10
1.48561e-08
9.60135e-10
1.41117e-08
1.0106e-09
1.32999e-08
1.08361e-09
1.24601e-08
1.14488e-09
1.15556e-08
1.18208e-09
1.04603e-08
1.54975e-09
-1.57283e-09
1.02819e-08
1.58801e-07
1.35073e-07
1.36466e-07
8.97696e-08
1.17427e-07
4.72941e-08
1.032e-07
2.84975e-08
9.31362e-08
1.85165e-08
8.57701e-08
1.33479e-08
7.99931e-08
1.04599e-08
7.52643e-08
8.52909e-09
7.13022e-08
7.11642e-09
6.79202e-08
6.05788e-09
6.49856e-08
5.24788e-09
6.24039e-08
4.61153e-09
6.01067e-08
4.0997e-09
5.80433e-08
3.68043e-09
5.61746e-08
3.33198e-09
5.44699e-08
3.03887e-09
5.29049e-08
2.7898e-09
5.146e-08
2.5763e-09
5.01189e-08
2.39196e-09
4.88683e-08
2.23186e-09
4.76968e-08
2.09219e-09
4.65947e-08
1.96999e-09
4.55537e-08
1.86294e-09
4.45663e-08
1.76923e-09
4.36261e-08
1.68748e-09
4.2727e-08
1.61661e-09
4.18635e-08
1.55586e-09
4.10303e-08
1.50464e-09
4.02225e-08
1.46264e-09
3.94352e-08
1.42967e-09
3.86633e-08
1.40569e-09
3.7902e-08
1.39091e-09
3.71461e-08
1.38536e-09
3.63902e-08
1.38986e-09
3.56289e-08
1.40392e-09
3.48559e-08
1.42977e-09
3.40658e-08
1.46481e-09
3.32506e-08
1.51497e-09
3.24059e-08
1.57179e-09
3.15199e-08
1.65042e-09
3.05924e-08
1.72807e-09
2.96029e-08
1.84115e-09
2.85637e-08
1.93465e-09
2.74334e-08
2.09049e-09
2.62571e-08
2.18686e-09
2.49444e-08
2.39631e-09
2.36128e-08
2.47653e-09
2.20991e-08
2.69575e-09
2.04834e-08
3.16546e-09
1.85025e-10
1.87255e-08
1.7566e-07
1.30929e-07
1.65573e-07
9.9857e-08
1.52665e-07
6.02013e-08
1.40014e-07
4.11489e-08
1.29259e-07
2.92711e-08
1.2054e-07
2.20673e-08
1.13342e-07
1.76583e-08
1.07265e-07
1.46057e-08
1.0206e-07
1.23215e-08
9.75447e-08
1.0573e-08
9.35804e-08
9.21218e-09
9.00619e-08
8.13008e-09
8.69096e-08
7.25193e-09
8.40626e-08
6.52741e-09
8.1473e-08
5.92161e-09
7.91025e-08
5.40935e-09
7.69204e-08
4.97198e-09
7.49012e-08
4.59545e-09
7.30242e-08
4.26899e-09
7.12717e-08
3.9843e-09
6.9629e-08
3.73491e-09
6.80833e-08
3.51571e-09
6.66235e-08
3.32275e-09
6.52398e-08
3.15287e-09
6.39236e-08
3.00367e-09
6.2667e-08
2.87325e-09
6.14626e-08
2.76029e-09
6.03035e-08
2.66374e-09
5.91831e-08
2.58305e-09
5.80949e-08
2.51784e-09
5.70324e-08
2.46814e-09
5.59892e-08
2.43416e-09
5.49583e-08
2.41622e-09
5.39328e-08
2.41538e-09
5.29053e-08
2.43144e-09
5.18676e-08
2.46745e-09
5.0812e-08
2.52038e-09
4.97282e-08
2.59879e-09
4.86092e-08
2.69077e-09
4.74398e-08
2.81986e-09
4.62178e-08
2.9501e-09
4.49161e-08
3.14279e-09
4.35485e-08
3.30228e-09
4.20595e-08
3.57952e-09
4.05054e-08
3.74092e-09
3.87649e-08
4.13678e-09
3.69874e-08
4.25404e-09
3.49483e-08
4.73491e-09
3.28453e-08
5.26844e-09
2.96417e-09
3.00661e-08
1.84557e-07
1.23157e-07
1.82305e-07
1.02109e-07
1.76058e-07
6.64484e-08
1.67668e-07
4.95386e-08
1.58982e-07
3.79576e-08
1.50994e-07
3.00553e-08
1.43828e-07
2.48237e-08
1.37423e-07
2.10108e-08
1.31705e-07
1.80391e-08
1.26592e-07
1.56863e-08
1.21998e-07
1.38059e-08
1.17848e-07
1.22802e-08
1.14078e-07
1.10224e-08
1.10634e-07
9.97129e-09
1.07473e-07
9.08312e-09
1.04557e-07
8.32532e-09
1.01855e-07
7.67329e-09
9.93426e-08
7.1081e-09
9.69966e-08
6.61503e-09
9.47983e-08
6.18257e-09
9.27316e-08
5.80163e-09
9.07823e-08
5.46501e-09
8.8938e-08
5.167e-09
8.71878e-08
4.9031e-09
8.55217e-08
4.66979e-09
8.39306e-08
4.46433e-09
8.24061e-08
4.28474e-09
8.09404e-08
4.12951e-09
7.95256e-08
3.99784e-09
7.81543e-08
3.88914e-09
7.68189e-08
3.80354e-09
7.55118e-08
3.74126e-09
7.4225e-08
3.70302e-09
7.29502e-08
3.69016e-09
7.16787e-08
3.70295e-09
7.04009e-08
3.74528e-09
6.91073e-08
3.81399e-09
6.77857e-08
3.92038e-09
6.6427e-08
4.04941e-09
6.50136e-08
4.2333e-09
6.35406e-08
4.42313e-09
6.19775e-08
4.7059e-09
6.03348e-08
4.94493e-09
5.85523e-08
5.362e-09
5.6682e-08
5.61121e-09
5.4599e-08
6.21982e-09
5.24376e-08
6.4154e-09
4.99859e-08
7.18666e-09
4.74136e-08
7.84075e-09
6.29818e-09
4.40796e-08
1.90385e-07
1.14988e-07
1.91839e-07
1.00656e-07
1.9021e-07
6.80779e-08
1.86082e-07
5.36663e-08
1.80589e-07
4.34507e-08
1.74763e-07
3.58814e-08
1.68978e-07
3.06088e-08
1.6339e-07
2.65989e-08
1.58095e-07
2.33332e-08
1.53138e-07
2.06433e-08
1.48522e-07
1.8422e-08
1.44232e-07
1.65709e-08
1.40243e-07
1.50111e-08
1.36531e-07
1.36836e-08
1.33069e-07
1.25444e-08
1.29835e-07
1.15596e-08
1.26806e-07
1.07026e-08
1.23962e-07
9.95229e-09
1.21285e-07
9.29197e-09
1.18759e-07
8.70819e-09
1.16371e-07
8.19017e-09
1.14106e-07
7.72925e-09
1.11955e-07
7.31848e-09
1.09906e-07
6.95228e-09
1.07949e-07
6.62631e-09
1.06076e-07
6.33711e-09
1.04279e-07
6.08225e-09
1.02549e-07
5.8598e-09
1.00878e-07
5.66881e-09
9.92582e-08
5.50857e-09
9.76823e-08
5.3794e-09
9.6142e-08
5.28159e-09
9.46287e-08
5.21636e-09
9.31334e-08
5.18537e-09
9.16468e-08
5.18956e-09
9.01584e-08
5.2337e-09
8.86576e-08
5.31478e-09
8.71313e-08
5.44673e-09
8.55685e-08
5.61217e-09
8.39506e-08
5.85122e-09
8.22696e-08
6.10413e-09
8.04948e-08
6.4807e-09
7.86302e-08
6.80956e-09
7.66192e-08
7.37299e-09
7.44967e-08
7.73363e-09
7.21583e-08
8.55832e-09
6.96856e-08
8.88806e-09
6.69405e-08
9.93177e-09
6.3959e-08
1.08222e-08
9.94411e-09
6.03131e-08
1.95538e-07
1.07265e-07
1.98235e-07
9.79577e-08
1.9894e-07
6.73733e-08
1.97731e-07
5.48753e-08
1.95056e-07
4.61257e-08
1.91655e-07
3.92825e-08
1.87847e-07
3.44171e-08
1.83802e-07
3.06432e-08
1.79672e-07
2.74639e-08
1.75565e-07
2.47496e-08
1.71552e-07
2.24351e-08
1.67672e-07
2.04514e-08
1.63945e-07
1.87377e-08
1.60381e-07
1.72474e-08
1.56982e-07
1.59441e-08
1.53743e-07
1.47985e-08
1.50658e-07
1.3787e-08
1.4772e-07
1.289e-08
1.44921e-07
1.20915e-08
1.42251e-07
1.13782e-08
1.39702e-07
1.07393e-08
1.37265e-07
1.01659e-08
1.34933e-07
9.65081e-09
1.32697e-07
9.18802e-09
1.3055e-07
8.77296e-09
1.28486e-07
8.40191e-09
1.26496e-07
8.07229e-09
1.24573e-07
7.78208e-09
1.22712e-07
7.5304e-09
1.20904e-07
7.31658e-09
1.19142e-07
7.14128e-09
1.17418e-07
7.00503e-09
1.15725e-07
6.90966e-09
1.14053e-07
6.85728e-09
1.12393e-07
6.84963e-09
1.10734e-07
6.89237e-09
1.09066e-07
6.98306e-09
1.07375e-07
7.13788e-09
1.05649e-07
7.33822e-09
1.0387e-07
7.63056e-09
1.02026e-07
7.94776e-09
1.0009e-07
8.41683e-09
9.80567e-08
8.84268e-09
9.58802e-08
9.54949e-09
9.35708e-08
1.00431e-08
9.1059e-08
1.10701e-08
8.83563e-08
1.15908e-08
8.54213e-08
1.28667e-08
8.21485e-08
1.40951e-08
1.37973e-08
7.82953e-08
2.00845e-07
1.00005e-07
2.03764e-07
9.50387e-08
2.053e-07
6.5837e-08
2.05593e-07
5.45827e-08
2.04732e-07
4.69862e-08
2.03204e-07
4.08106e-08
2.01194e-07
3.64268e-08
1.98786e-07
3.30514e-08
1.96084e-07
3.01657e-08
1.93191e-07
2.76426e-08
1.90188e-07
2.54386e-08
1.87134e-07
2.35048e-08
1.84076e-07
2.17961e-08
1.81045e-07
2.02783e-08
1.78065e-07
1.89246e-08
1.7515e-07
1.77134e-08
1.7231e-07
1.66266e-08
1.69552e-07
1.56485e-08
1.66877e-07
1.47662e-08
1.64287e-07
1.39685e-08
1.6178e-07
1.32461e-08
1.59354e-07
1.25912e-08
1.57008e-07
1.19973e-08
1.54737e-07
1.14591e-08
1.52537e-07
1.09724e-08
1.50406e-07
1.05338e-08
1.48337e-07
1.01411e-08
1.46326e-07
9.79261e-09
1.44369e-07
9.4878e-09
1.42459e-07
9.22636e-09
1.40591e-07
9.00949e-09
1.38758e-07
8.83817e-09
1.36952e-07
8.71499e-09
1.35167e-07
8.64267e-09
1.33393e-07
8.62388e-09
1.3162e-07
8.66525e-09
1.29838e-07
8.76521e-09
1.28034e-07
8.94184e-09
1.26196e-07
9.17645e-09
1.24306e-07
9.51997e-09
1.22352e-07
9.90186e-09
1.20309e-07
1.04596e-08
1.18165e-07
1.0987e-08
1.15886e-07
1.18285e-08
1.13457e-07
1.24717e-08
1.10848e-07
1.36794e-08
1.08004e-07
1.44347e-08
1.04964e-07
1.59065e-08
1.01542e-07
1.75176e-08
1.77679e-08
9.75712e-08
2.06443e-07
9.30941e-08
2.09327e-07
9.21555e-08
2.11009e-07
6.41543e-08
2.11882e-07
5.37098e-08
2.11923e-07
4.69459e-08
2.11498e-07
4.12352e-08
2.10719e-07
3.72061e-08
2.09585e-07
3.41846e-08
2.08134e-07
3.1617e-08
2.06422e-07
2.93548e-08
2.04504e-07
2.73566e-08
2.02429e-07
2.55798e-08
2.00239e-07
2.39859e-08
1.9797e-07
2.25469e-08
1.95653e-07
2.12424e-08
1.9331e-07
2.00565e-08
1.9096e-07
1.89761e-08
1.88619e-07
1.79898e-08
1.86297e-07
1.70881e-08
1.84002e-07
1.62627e-08
1.81742e-07
1.55065e-08
1.7952e-07
1.48136e-08
1.77338e-07
1.41789e-08
1.75199e-07
1.35983e-08
1.73102e-07
1.30688e-08
1.71048e-07
1.25879e-08
1.69036e-07
1.2154e-08
1.67062e-07
1.17662e-08
1.65125e-07
1.14246e-08
1.63222e-07
1.11297e-08
1.61348e-07
1.08833e-08
1.59499e-07
1.06871e-08
1.57669e-07
1.05447e-08
1.55853e-07
1.04595e-08
1.54041e-07
1.04352e-08
1.52227e-07
1.04795e-08
1.504e-07
1.0592e-08
1.4855e-07
1.07924e-08
1.46663e-07
1.10627e-08
1.44726e-07
1.14568e-08
1.42724e-07
1.19041e-08
1.40637e-07
1.25463e-08
1.38447e-07
1.31779e-08
1.36131e-07
1.41436e-08
1.33657e-07
1.49467e-08
1.31023e-07
1.63132e-08
1.28131e-07
1.7327e-08
1.25065e-07
1.89724e-08
1.21624e-07
2.09578e-08
2.17428e-08
1.1765e-07
2.12285e-07
8.64711e-08
2.15139e-07
8.93018e-08
2.16763e-07
6.25306e-08
2.17794e-07
5.26788e-08
2.18182e-07
4.65577e-08
2.18264e-07
4.11531e-08
2.18146e-07
3.73244e-08
2.17794e-07
3.45362e-08
2.172e-07
3.2211e-08
2.16381e-07
3.01741e-08
2.15359e-07
2.83784e-08
2.14159e-07
2.678e-08
2.12806e-07
2.53394e-08
2.11323e-07
2.40289e-08
2.09736e-07
2.28297e-08
2.08065e-07
2.17279e-08
2.06328e-07
2.07129e-08
2.04542e-07
1.97759e-08
2.0272e-07
1.89096e-08
2.00875e-07
1.81079e-08
1.99016e-07
1.73658e-08
1.9715e-07
1.6679e-08
1.95285e-07
1.6044e-08
1.93426e-07
1.54582e-08
1.91575e-07
1.49195e-08
1.89736e-07
1.44267e-08
1.87911e-07
1.39792e-08
1.861e-07
1.35769e-08
1.84304e-07
1.32209e-08
1.82521e-07
1.29125e-08
1.8075e-07
1.26544e-08
1.78988e-07
1.24491e-08
1.77231e-07
1.23012e-08
1.75476e-07
1.2215e-08
1.73716e-07
1.21954e-08
1.71944e-07
1.22511e-08
1.70153e-07
1.23831e-08
1.68333e-07
1.26121e-08
1.66474e-07
1.29222e-08
1.64562e-07
1.33682e-08
1.62584e-07
1.38828e-08
1.60524e-07
1.46062e-08
1.58358e-07
1.53432e-08
1.56079e-07
1.64231e-08
1.53636e-07
1.739e-08
1.51052e-07
1.88968e-08
1.48205e-07
2.01739e-08
1.45195e-07
2.19827e-08
1.4185e-07
2.43023e-08
2.56009e-08
1.37992e-07
2.18326e-07
8.01255e-08
2.21192e-07
8.64358e-08
2.22734e-07
6.09884e-08
2.23792e-07
5.16215e-08
2.24289e-07
4.60602e-08
2.2455e-07
4.08921e-08
2.24711e-07
3.71635e-08
2.24743e-07
3.45041e-08
2.24623e-07
3.23308e-08
2.2435e-07
3.04472e-08
2.23927e-07
2.88015e-08
2.23359e-07
2.73481e-08
2.22654e-07
2.60447e-08
2.21822e-07
2.4861e-08
2.20875e-07
2.37766e-08
2.19825e-07
2.27774e-08
2.18686e-07
2.18525e-08
2.17468e-07
2.09937e-08
2.16183e-07
2.01945e-08
2.14841e-07
1.94496e-08
2.13452e-07
1.8755e-08
2.12024e-07
1.81076e-08
2.10563e-07
1.75048e-08
2.09076e-07
1.6945e-08
2.07568e-07
1.64271e-08
2.06044e-07
1.59508e-08
2.04507e-07
1.55163e-08
2.02959e-07
1.51246e-08
2.01403e-07
1.47774e-08
1.99838e-07
1.4477e-08
1.98266e-07
1.42269e-08
1.96685e-07
1.40305e-08
1.95092e-07
1.38933e-08
1.93487e-07
1.38207e-08
1.91864e-07
1.38185e-08
1.90218e-07
1.38965e-08
1.88544e-07
1.40571e-08
1.86834e-07
1.43221e-08
1.85079e-07
1.46776e-08
1.83269e-07
1.51786e-08
1.81388e-07
1.57628e-08
1.79429e-07
1.65655e-08
1.77365e-07
1.74078e-08
1.75195e-07
1.85932e-08
1.72862e-07
1.97221e-08
1.70405e-07
2.13546e-08
1.67694e-07
2.2885e-08
1.64823e-07
2.48531e-08
1.61673e-07
2.74521e-08
2.92288e-08
1.58045e-07
2.24555e-07
7.40638e-08
2.27456e-07
8.35347e-08
2.2893e-07
5.95142e-08
2.29992e-07
5.05598e-08
2.3053e-07
4.55223e-08
2.30839e-07
4.0583e-08
2.3109e-07
3.69129e-08
2.31272e-07
3.43222e-08
2.31364e-07
3.22384e-08
2.31364e-07
3.04471e-08
2.3127e-07
2.88953e-08
2.3108e-07
2.75386e-08
2.30791e-07
2.63334e-08
2.30405e-07
2.52472e-08
2.29924e-07
2.42577e-08
2.29352e-07
2.33493e-08
2.28694e-07
2.25102e-08
2.27956e-07
2.17314e-08
2.27145e-07
2.10061e-08
2.26266e-07
2.03289e-08
2.25325e-07
1.96959e-08
2.24328e-07
1.91041e-08
2.23281e-07
1.85515e-08
2.2219e-07
1.80366e-08
2.21058e-07
1.75592e-08
2.19889e-07
1.71191e-08
2.18688e-07
1.67175e-08
2.17457e-07
1.63557e-08
2.16198e-07
1.60362e-08
2.14913e-07
1.57619e-08
2.13603e-07
1.5537e-08
2.12268e-07
1.53658e-08
2.10907e-07
1.52544e-08
2.09519e-07
1.5209e-08
2.081e-07
1.52366e-08
2.06649e-07
1.5348e-08
2.0516e-07
1.55463e-08
2.03627e-07
1.5855e-08
2.02043e-07
1.62616e-08
2.004e-07
1.68211e-08
1.98686e-07
1.74769e-08
1.96895e-07
1.8357e-08
1.95e-07
1.93028e-08
1.93007e-07
2.05857e-08
1.90859e-07
2.187e-08
1.88598e-07
2.36161e-08
1.86104e-07
2.53793e-08
1.83454e-07
2.75031e-08
1.80582e-07
3.03235e-08
3.25287e-08
1.77282e-07
2.30976e-07
6.8294e-08
2.3392e-07
8.05901e-08
2.35335e-07
5.80998e-08
2.36402e-07
4.94927e-08
2.36972e-07
4.49517e-08
2.37296e-07
4.02596e-08
2.37567e-07
3.66416e-08
2.37794e-07
3.40949e-08
2.37963e-07
3.207e-08
2.38074e-07
3.0336e-08
2.38129e-07
2.884e-08
2.38126e-07
2.75417e-08
2.38061e-07
2.63983e-08
2.37932e-07
2.53765e-08
2.37736e-07
2.44531e-08
2.37474e-07
2.36114e-08
2.37146e-07
2.28388e-08
2.36752e-07
2.21254e-08
2.36294e-07
2.14639e-08
2.35775e-07
2.08483e-08
2.35196e-07
2.02744e-08
2.34561e-07
1.97389e-08
2.33873e-07
1.92396e-08
2.33135e-07
1.87753e-08
2.32348e-07
1.83455e-08
2.31517e-07
1.79505e-08
2.30643e-07
1.75916e-08
2.29728e-07
1.72703e-08
2.28775e-07
1.69897e-08
2.27784e-07
1.67528e-08
2.26756e-07
1.65645e-08
2.25692e-07
1.64296e-08
2.24592e-07
1.63547e-08
2.23454e-07
1.63469e-08
2.22277e-07
1.64134e-08
2.21059e-07
1.65664e-08
2.19796e-07
1.68097e-08
2.18483e-07
1.71675e-08
2.17115e-07
1.76294e-08
2.15687e-07
1.82493e-08
2.14187e-07
1.89772e-08
2.12612e-07
1.99319e-08
2.10938e-07
2.09771e-08
2.09174e-07
2.23491e-08
2.07267e-07
2.37776e-08
2.05257e-07
2.5626e-08
2.03042e-07
2.7594e-08
2.00678e-07
2.98671e-08
1.98148e-07
3.28537e-08
3.54264e-08
1.9525e-07
2.37597e-07
6.28221e-08
2.40587e-07
7.75994e-08
2.41944e-07
5.67429e-08
2.43016e-07
4.84213e-08
2.43622e-07
4.4345e-08
2.43958e-07
3.99239e-08
2.44233e-07
3.63662e-08
2.44472e-07
3.38565e-08
2.44662e-07
3.18798e-08
2.44809e-07
3.0189e-08
2.44919e-07
2.87302e-08
2.44992e-07
2.74684e-08
2.45027e-07
2.63632e-08
2.45022e-07
2.53816e-08
2.44975e-07
2.45004e-08
2.44884e-07
2.37027e-08
2.44747e-07
2.29756e-08
2.44563e-07
2.2309e-08
2.44332e-07
2.16949e-08
2.44053e-07
2.11271e-08
2.43727e-07
2.06009e-08
2.43353e-07
2.01127e-08
2.42932e-07
1.96603e-08
2.42466e-07
1.9242e-08
2.41954e-07
1.88575e-08
2.41398e-07
1.85067e-08
2.40798e-07
1.81911e-08
2.40156e-07
1.79124e-08
2.39472e-07
1.76736e-08
2.38747e-07
1.74781e-08
2.3798e-07
1.73308e-08
2.37173e-07
1.72371e-08
2.36324e-07
1.72036e-08
2.35433e-07
1.72383e-08
2.34498e-07
1.73485e-08
2.33517e-07
1.75472e-08
2.32488e-07
1.78388e-08
2.31407e-07
1.8248e-08
2.3027e-07
1.87663e-08
2.29074e-07
1.94459e-08
2.27807e-07
2.02438e-08
2.26471e-07
2.12682e-08
2.25042e-07
2.2406e-08
2.23534e-07
2.38573e-08
2.21896e-07
2.54151e-08
2.20168e-07
2.7354e-08
2.18268e-07
2.9494e-08
2.1623e-07
3.19051e-08
2.14076e-07
3.50081e-08
3.788e-08
2.11622e-07
2.44427e-07
5.76516e-08
2.47457e-07
7.45693e-08
2.48764e-07
5.54354e-08
2.49835e-07
4.73504e-08
2.5048e-07
4.37005e-08
2.50831e-07
3.95723e-08
2.5111e-07
3.60878e-08
2.51352e-07
3.36141e-08
2.51548e-07
3.16836e-08
2.51704e-07
3.00326e-08
2.5183e-07
2.86047e-08
2.51928e-07
2.73702e-08
2.52e-07
2.62917e-08
2.52044e-07
2.53371e-08
2.52061e-07
2.44837e-08
2.52049e-07
2.37148e-08
2.52007e-07
2.30178e-08
2.51933e-07
2.23826e-08
2.51827e-07
2.18012e-08
2.51686e-07
2.12673e-08
2.51511e-07
2.0776e-08
2.513e-07
2.03237e-08
2.51053e-07
1.99078e-08
2.50768e-07
1.95267e-08
2.50446e-07
1.91797e-08
2.50085e-07
1.8867e-08
2.49687e-07
1.85897e-08
2.4925e-07
1.83496e-08
2.48774e-07
1.81497e-08
2.48258e-07
1.79936e-08
2.47703e-07
1.78862e-08
2.47107e-07
1.7833e-08
2.4647e-07
1.78407e-08
2.4579e-07
1.79179e-08
2.45067e-07
1.80717e-08
2.44298e-07
1.8316e-08
2.43482e-07
1.86553e-08
2.42615e-07
1.91146e-08
2.41694e-07
1.96872e-08
2.40717e-07
2.04229e-08
2.39675e-07
2.12859e-08
2.3857e-07
2.23729e-08
2.37382e-07
2.35938e-08
2.36126e-07
2.51138e-08
2.34759e-07
2.67825e-08
2.33313e-07
2.87994e-08
2.31731e-07
3.10765e-08
2.30027e-07
3.36087e-08
2.28249e-07
3.67857e-08
3.9886e-08
2.26243e-07
2.51474e-07
5.27844e-08
2.54534e-07
7.15094e-08
2.55802e-07
5.41671e-08
2.56867e-07
4.62854e-08
2.57548e-07
4.30193e-08
2.57919e-07
3.92018e-08
2.58202e-07
3.58049e-08
2.58448e-07
3.33681e-08
2.58647e-07
3.14841e-08
2.58806e-07
2.98737e-08
2.58935e-07
2.84758e-08
2.59039e-07
2.72661e-08
2.5912e-07
2.62102e-08
2.5918e-07
2.52772e-08
2.59219e-07
2.44447e-08
2.59237e-07
2.36968e-08
2.59234e-07
2.30212e-08
2.59208e-07
2.24081e-08
2.5916e-07
2.18497e-08
2.59088e-07
2.13397e-08
2.5899e-07
2.08735e-08
2.58867e-07
2.04473e-08
2.58716e-07
2.00586e-08
2.58537e-07
1.97057e-08
2.58329e-07
1.93881e-08
2.5809e-07
1.91057e-08
2.5782e-07
1.88597e-08
2.57517e-07
1.8652e-08
2.57182e-07
1.84854e-08
2.56812e-07
1.83637e-08
2.56406e-07
1.82917e-08
2.55964e-07
1.82751e-08
2.55484e-07
1.83205e-08
2.54965e-07
1.84368e-08
2.54406e-07
1.86312e-08
2.53804e-07
1.89177e-08
2.53158e-07
1.93012e-08
2.52466e-07
1.98067e-08
2.51724e-07
2.0429e-08
2.50932e-07
2.1215e-08
2.50082e-07
2.21362e-08
2.49177e-07
2.32774e-08
2.48201e-07
2.45702e-08
2.47167e-07
2.61474e-08
2.46043e-07
2.79074e-08
2.44853e-07
2.9989e-08
2.4356e-07
3.23694e-08
2.42167e-07
3.50014e-08
2.40736e-07
3.82174e-08
4.14785e-08
2.39143e-07
2.58747e-07
4.82206e-08
2.61827e-07
6.84296e-08
2.63066e-07
5.29274e-08
2.6412e-07
4.52315e-08
2.64836e-07
4.2304e-08
2.65227e-07
3.88104e-08
2.65515e-07
3.55166e-08
2.65765e-07
3.31182e-08
2.65968e-07
3.12809e-08
2.66129e-07
2.97129e-08
2.66259e-07
2.83463e-08
2.66363e-07
2.71614e-08
2.66446e-07
2.61274e-08
2.66509e-07
2.52144e-08
2.66553e-07
2.44007e-08
2.66579e-07
2.36707e-08
2.66588e-07
2.30127e-08
2.66579e-07
2.24171e-08
2.66552e-07
2.18765e-08
2.66507e-07
2.13849e-08
2.66443e-07
2.09377e-08
2.66358e-07
2.05314e-08
2.66253e-07
2.01635e-08
2.66127e-07
1.98325e-08
2.65977e-07
1.95378e-08
2.65803e-07
1.92795e-08
2.65604e-07
1.90587e-08
2.65379e-07
1.88774e-08
2.65125e-07
1.87386e-08
2.64843e-07
1.86458e-08
2.64531e-07
1.86041e-08
2.64187e-07
1.86192e-08
2.63809e-07
1.86977e-08
2.63398e-07
1.88485e-08
2.6295e-07
1.90789e-08
2.62465e-07
1.94031e-08
2.6194e-07
1.98261e-08
2.61374e-07
2.03723e-08
2.60765e-07
2.10386e-08
2.60111e-07
2.18683e-08
2.59407e-07
2.284e-08
2.58658e-07
2.40269e-08
2.57848e-07
2.53798e-08
2.56992e-07
2.70035e-08
2.56064e-07
2.88356e-08
2.55084e-07
3.09688e-08
2.54032e-07
3.34219e-08
2.52902e-07
3.6131e-08
2.51761e-07
3.93587e-08
4.27205e-08
2.50519e-07
2.66254e-07
4.39585e-08
2.69343e-07
6.53405e-08
2.70565e-07
5.17057e-08
2.71604e-07
4.41931e-08
2.7235e-07
4.15579e-08
2.72764e-07
3.83965e-08
2.73058e-07
3.52222e-08
2.73312e-07
3.28643e-08
2.73519e-07
3.10737e-08
2.73682e-07
2.95499e-08
2.73812e-07
2.82163e-08
2.73917e-07
2.7057e-08
2.73999e-07
2.60453e-08
2.74061e-07
2.51524e-08
2.74104e-07
2.43571e-08
2.74131e-07
2.36443e-08
2.74141e-07
2.30027e-08
2.74135e-07
2.24231e-08
2.74113e-07
2.18984e-08
2.74075e-07
2.14227e-08
2.74021e-07
2.09917e-08
2.7395e-07
2.06021e-08
2.73862e-07
2.02516e-08
2.73756e-07
1.99388e-08
2.73631e-07
1.9663e-08
2.73485e-07
1.94247e-08
2.73319e-07
1.92251e-08
2.7313e-07
1.90661e-08
2.72918e-07
1.89507e-08
2.72681e-07
1.88827e-08
2.72419e-07
1.88671e-08
2.72128e-07
1.89097e-08
2.71809e-07
1.9017e-08
2.71459e-07
1.91982e-08
2.71078e-07
1.94602e-08
2.70663e-07
1.98176e-08
2.70214e-07
2.02754e-08
2.69729e-07
2.08574e-08
2.69205e-07
2.15623e-08
2.68644e-07
2.24295e-08
2.68039e-07
2.34445e-08
2.67397e-07
2.46693e-08
2.66705e-07
2.60717e-08
2.65976e-07
2.77326e-08
2.65192e-07
2.96198e-08
2.64368e-07
3.1793e-08
2.63496e-07
3.42935e-08
2.62569e-07
3.70575e-08
2.61651e-07
4.02773e-08
4.36909e-08
2.6068e-07
2.74005e-07
3.99946e-08
2.77093e-07
6.2253e-08
2.78306e-07
5.0492e-08
2.79326e-07
4.31737e-08
2.80098e-07
4.07851e-08
2.80536e-07
3.79585e-08
2.80838e-07
3.49205e-08
2.81096e-07
3.26065e-08
2.81307e-07
3.08623e-08
2.81473e-07
2.93844e-08
2.81604e-07
2.80854e-08
2.81708e-07
2.69528e-08
2.81789e-07
2.59641e-08
2.81849e-07
2.50919e-08
2.81891e-07
2.43155e-08
2.81915e-07
2.36201e-08
2.81923e-07
2.29949e-08
2.81915e-07
2.24311e-08
2.81892e-07
2.19216e-08
2.81853e-07
2.14612e-08
2.818e-07
2.10455e-08
2.8173e-07
2.06714e-08
2.81645e-07
2.03368e-08
2.81544e-07
2.00404e-08
2.81425e-07
1.97818e-08
2.81288e-07
1.95615e-08
2.81132e-07
1.93807e-08
2.80957e-07
1.92416e-08
2.8076e-07
1.91472e-08
2.80542e-07
1.91014e-08
2.803e-07
1.91091e-08
2.80033e-07
1.91764e-08
2.7974e-07
1.93096e-08
2.7942e-07
1.95181e-08
2.79072e-07
1.98087e-08
2.78694e-07
2.01957e-08
2.78284e-07
2.06849e-08
2.77843e-07
2.12986e-08
2.77368e-07
2.20377e-08
2.76859e-07
2.29376e-08
2.76314e-07
2.399e-08
2.75736e-07
2.52469e-08
2.75118e-07
2.66898e-08
2.7447e-07
2.8381e-08
2.7378e-07
3.03094e-08
2.7306e-07
3.25132e-08
2.72312e-07
3.50419e-08
2.71528e-07
3.78415e-08
2.70764e-07
4.10409e-08
4.44696e-08
2.69986e-07
2.82008e-07
3.63236e-08
2.85083e-07
5.91788e-08
2.86298e-07
4.92766e-08
2.87296e-07
4.21762e-08
2.8809e-07
3.99905e-08
2.88554e-07
3.74951e-08
2.88864e-07
3.46106e-08
2.89125e-07
3.2345e-08
2.89341e-07
3.06466e-08
2.89509e-07
2.92159e-08
2.89641e-07
2.79536e-08
2.89745e-07
2.68488e-08
2.89825e-07
2.58838e-08
2.89884e-07
2.5033e-08
2.89924e-07
2.4276e-08
2.89945e-07
2.35985e-08
2.8995e-07
2.29901e-08
2.89939e-07
2.24423e-08
2.89912e-07
2.19484e-08
2.8987e-07
2.15032e-08
2.89813e-07
2.11027e-08
2.89741e-07
2.07439e-08
2.89653e-07
2.04249e-08
2.89548e-07
2.01445e-08
2.89428e-07
1.99025e-08
2.8929e-07
1.96993e-08
2.89134e-07
1.95366e-08
2.88959e-07
1.94163e-08
2.88765e-07
1.93417e-08
2.88549e-07
1.93169e-08
2.88312e-07
1.93466e-08
2.88051e-07
1.9437e-08
2.87766e-07
1.95945e-08
2.87456e-07
1.98284e-08
2.87119e-07
2.01456e-08
2.86755e-07
2.05602e-08
2.86361e-07
2.10783e-08
2.85939e-07
2.1721e-08
2.85485e-07
2.24913e-08
2.85002e-07
2.34206e-08
2.84486e-07
2.45061e-08
2.83942e-07
2.57911e-08
2.83364e-07
2.72682e-08
2.8276e-07
2.89847e-08
2.82125e-07
3.09443e-08
2.81467e-07
3.31714e-08
2.80794e-07
3.57151e-08
2.801e-07
3.8535e-08
2.79434e-07
4.17073e-08
4.51264e-08
2.78777e-07
2.90274e-07
3.29385e-08
2.93323e-07
5.61295e-08
2.94549e-07
4.80506e-08
2.95523e-07
4.12022e-08
2.96335e-07
3.91791e-08
2.96824e-07
3.70055e-08
2.97144e-07
3.4291e-08
2.97409e-07
3.20798e-08
2.97629e-07
3.04268e-08
2.978e-07
2.90444e-08
2.97933e-07
2.78204e-08
2.98037e-07
2.67448e-08
2.98117e-07
2.58043e-08
2.98174e-07
2.49756e-08
2.98212e-07
2.42386e-08
2.98231e-07
2.35796e-08
2.98232e-07
2.29884e-08
2.98217e-07
2.24571e-08
2.98187e-07
2.19791e-08
2.9814e-07
2.15495e-08
2.98079e-07
2.11645e-08
2.98001e-07
2.08212e-08
2.97908e-07
2.0518e-08
2.97799e-07
2.02537e-08
2.97673e-07
2.00282e-08
2.97531e-07
1.98422e-08
2.9737e-07
1.96973e-08
2.9719e-07
1.95957e-08
2.96992e-07
1.95406e-08
2.96772e-07
1.95363e-08
2.96531e-07
1.95875e-08
2.96268e-07
1.97005e-08
2.95981e-07
1.98816e-08
2.95669e-07
2.014e-08
2.95332e-07
2.0483e-08
2.94968e-07
2.09239e-08
2.94576e-07
2.14697e-08
2.94158e-07
2.21399e-08
2.93709e-07
2.29395e-08
2.93234e-07
2.38964e-08
2.92728e-07
2.50121e-08
2.92196e-07
2.63228e-08
2.91635e-07
2.78294e-08
2.91051e-07
2.95684e-08
2.90443e-07
3.1552e-08
2.89817e-07
3.37977e-08
2.89184e-07
3.63479e-08
2.88542e-07
3.91769e-08
2.8793e-07
4.232e-08
4.57151e-08
2.87341e-07
2.98811e-07
2.98303e-08
3.01823e-07
5.31171e-08
3.03067e-07
4.68063e-08
3.04017e-07
4.02528e-08
3.04839e-07
3.83564e-08
3.05356e-07
3.64893e-08
3.05686e-07
3.39603e-08
3.05955e-07
3.1811e-08
3.06179e-07
3.02029e-08
3.06354e-07
2.88694e-08
3.06489e-07
2.76857e-08
3.06593e-07
2.66406e-08
3.06672e-07
2.57255e-08
3.06728e-07
2.49195e-08
3.06763e-07
2.42033e-08
3.06779e-07
2.35634e-08
3.06778e-07
2.299e-08
3.0676e-07
2.24755e-08
3.06725e-07
2.20139e-08
3.06674e-07
2.16003e-08
3.06607e-07
2.12312e-08
3.06525e-07
2.09038e-08
3.06426e-07
2.06166e-08
3.06311e-07
2.03687e-08
3.06179e-07
2.01601e-08
3.0603e-07
1.99915e-08
3.05862e-07
1.98646e-08
3.05676e-07
1.97819e-08
3.0547e-07
1.97465e-08
3.05244e-07
1.97627e-08
3.04996e-07
1.98354e-08
3.04726e-07
1.99709e-08
3.04432e-07
2.01754e-08
3.04113e-07
2.04583e-08
3.0377e-07
2.08266e-08
3.034e-07
2.12935e-08
3.03003e-07
2.18664e-08
3.0258e-07
2.25635e-08
3.02128e-07
2.33913e-08
3.0165e-07
2.43747e-08
3.01143e-07
2.55189e-08
3.00612e-07
2.68542e-08
3.00054e-07
2.83872e-08
2.99475e-07
3.01469e-08
2.98877e-07
3.215e-08
2.98264e-07
3.44107e-08
2.97649e-07
3.69628e-08
2.97033e-07
3.97932e-08
2.96446e-07
4.29074e-08
4.62719e-08
2.95889e-07
3.07629e-07
2.69886e-08
3.10592e-07
5.01538e-08
3.11862e-07
4.55369e-08
3.12787e-07
3.93279e-08
3.13615e-07
3.75279e-08
3.14158e-07
3.59467e-08
3.14501e-07
3.36169e-08
3.14774e-07
3.15383e-08
3.15002e-07
2.9975e-08
3.1518e-07
2.86908e-08
3.15317e-07
2.75492e-08
3.15421e-07
2.65361e-08
3.155e-07
2.56473e-08
3.15554e-07
2.48648e-08
3.15588e-07
2.41699e-08
3.15601e-07
2.35497e-08
3.15597e-07
2.29946e-08
3.15575e-07
2.24976e-08
3.15536e-07
2.20528e-08
3.1548e-07
2.16557e-08
3.15409e-07
2.13028e-08
3.15321e-07
2.09918e-08
3.15216e-07
2.07211e-08
3.15095e-07
2.049e-08
3.14956e-07
2.02985e-08
3.148e-07
2.01477e-08
3.14626e-07
2.00392e-08
3.14432e-07
1.99756e-08
3.14218e-07
1.99602e-08
3.13984e-07
1.99972e-08
3.13727e-07
2.00917e-08
3.13449e-07
2.02498e-08
3.13146e-07
2.0478e-08
3.12819e-07
2.07853e-08
3.12467e-07
2.1179e-08
3.12088e-07
2.16718e-08
3.11683e-07
2.22716e-08
3.11251e-07
2.29953e-08
3.10792e-07
2.38509e-08
3.10306e-07
2.48603e-08
3.09793e-07
2.60319e-08
3.09256e-07
2.73911e-08
3.08695e-07
2.89485e-08
3.08114e-07
3.07281e-08
3.07516e-07
3.27478e-08
3.06905e-07
3.50211e-08
3.06296e-07
3.75727e-08
3.05689e-07
4.03993e-08
3.0511e-07
4.34867e-08
4.68188e-08
3.04563e-07
3.16739e-07
2.44013e-08
3.19641e-07
4.72516e-08
3.20941e-07
4.42371e-08
3.21842e-07
3.84265e-08
3.22671e-07
3.66987e-08
3.23239e-07
3.5379e-08
3.23596e-07
3.32594e-08
3.23873e-07
3.12612e-08
3.24105e-07
2.97433e-08
3.24288e-07
2.85083e-08
3.24426e-07
2.74106e-08
3.24531e-07
2.6431e-08
3.24609e-07
2.55695e-08
3.24663e-07
2.48112e-08
3.24694e-07
2.41384e-08
3.24705e-07
2.35385e-08
3.24698e-07
2.30024e-08
3.24672e-07
2.25233e-08
3.24629e-07
2.20958e-08
3.24569e-07
2.17156e-08
3.24492e-07
2.13795e-08
3.24399e-07
2.10852e-08
3.24289e-07
2.08314e-08
3.24161e-07
2.06175e-08
3.24016e-07
2.04436e-08
3.23853e-07
2.0311e-08
3.23671e-07
2.02212e-08
3.23469e-07
2.01771e-08
3.23247e-07
2.0182e-08
3.23004e-07
2.02403e-08
3.22739e-07
2.03567e-08
3.22451e-07
2.05378e-08
3.22139e-07
2.07899e-08
3.21803e-07
2.11218e-08
3.21441e-07
2.15412e-08
3.21053e-07
2.20599e-08
3.20638e-07
2.26865e-08
3.20196e-07
2.34368e-08
3.19727e-07
2.43198e-08
3.19232e-07
2.53552e-08
3.18711e-07
2.65532e-08
3.18166e-07
2.79361e-08
3.17598e-07
2.95166e-08
3.17011e-07
3.13153e-08
3.16409e-07
3.33499e-08
3.15796e-07
3.56339e-08
3.15185e-07
3.81838e-08
3.14581e-07
4.10035e-08
3.14001e-07
4.40665e-08
4.73673e-08
3.13452e-07
3.26149e-07
2.2055e-08
3.28978e-07
4.44222e-08
3.30312e-07
4.29031e-08
3.31192e-07
3.75467e-08
3.32017e-07
3.58737e-08
3.32608e-07
3.47878e-08
3.32982e-07
3.28862e-08
3.33263e-07
3.09794e-08
3.33499e-07
2.95079e-08
3.33685e-07
2.8322e-08
3.33826e-07
2.72695e-08
3.33932e-07
2.63252e-08
3.3401e-07
2.54919e-08
3.34062e-07
2.47586e-08
3.34092e-07
2.41087e-08
3.34101e-07
2.35296e-08
3.3409e-07
2.30131e-08
3.34061e-07
2.25525e-08
3.34014e-07
2.21429e-08
3.33949e-07
2.17801e-08
3.33868e-07
2.14612e-08
3.33769e-07
2.11841e-08
3.33653e-07
2.09476e-08
3.33519e-07
2.07512e-08
3.33367e-07
2.05954e-08
3.33197e-07
2.04813e-08
3.33007e-07
2.04107e-08
3.32798e-07
2.03865e-08
3.32568e-07
2.04121e-08
3.32316e-07
2.04919e-08
3.32042e-07
2.06307e-08
3.31745e-07
2.08351e-08
3.31423e-07