/*--------------------------------*- C++ -*----------------------------------*\
  =========                 |
  \\      /  F ield         | OpenFOAM: The Open Source CFD Toolbox
   \\    /   O peration     | Website:  https://openfoam.org
    \\  /    A nd           | Version:  7
     \\/     M anipulation  |
\*---------------------------------------------------------------------------*/
FoamFile
{
    version     2.0;
    format      ascii;
    class       volVectorField;
    location    "0.02";
    object      U;
}
// * * * * * * * * * * * * * * * * * * * * * * * * * * * * * * * * * * * * * //

dimensions      [0 1 -1 0 0 0 0];

internalField   nonuniform List<vector> 
70000
(
(0.553381 0.0167238 0)
(0.251198 0.00340213 0)
(0.166061 0.000323226 0)
(0.132224 5.53041e-05 0)
(0.116936 4.67399e-05 0)
(0.106905 5.4954e-05 0)
(0.0988407 4.73653e-05 0)
(0.0922769 3.80917e-05 0)
(0.0869014 3.18537e-05 0)
(0.0823942 2.76069e-05 0)
(0.0785272 2.43913e-05 0)
(0.0751527 2.18349e-05 0)
(0.0721695 1.9769e-05 0)
(0.0695037 1.80812e-05 0)
(0.0670991 1.66887e-05 0)
(0.0649123 1.55305e-05 0)
(0.0629089 1.45617e-05 0)
(0.0610615 1.37486e-05 0)
(0.0593477 1.30666e-05 0)
(0.0577489 1.24963e-05 0)
(0.0562495 1.20239e-05 0)
(0.0548363 1.16383e-05 0)
(0.0534978 1.13317e-05 0)
(0.0522238 1.10985e-05 0)
(0.0510055 1.09347e-05 0)
(0.0498344 1.08383e-05 0)
(0.0487031 1.08071e-05 0)
(0.0476042 1.08439e-05 0)
(0.0465312 1.09439e-05 0)
(0.0454768 1.11195e-05 0)
(0.0444352 1.13539e-05 0)
(0.0433985 1.16818e-05 0)
(0.0423615 1.20546e-05 0)
(0.0413151 1.25576e-05 0)
(0.0402551 1.30687e-05 0)
(0.0391698 1.37768e-05 0)
(0.038057 1.44175e-05 0)
(0.0369027 1.53459e-05 0)
(0.0357045 1.6112e-05 0)
(0.0344527 1.71845e-05 0)
(0.0331302 1.81907e-05 0)
(0.0317636 1.89842e-05 0)
(0.03026 2.09211e-05 0)
(0.0287988 1.98247e-05 0)
(0.0270012 2.54026e-05 0)
(0.0255829 1.71598e-05 0)
(0.0231943 3.4886e-05 0)
(0.0223181 4.84071e-06 0)
(0.0185705 6.61758e-05 0)
(0.0178432 -0.000941906 0)
(0.884894 0.0431708 0)
(0.64962 0.0202014 0)
(0.494051 0.00660833 0)
(0.403178 0.00277908 0)
(0.354012 0.0015648 0)
(0.322441 0.00114574 0)
(0.298285 0.000925812 0)
(0.278768 0.000763117 0)
(0.262713 0.000641471 0)
(0.249229 0.000551919 0)
(0.237665 0.00048422 0)
(0.227583 0.000431202 0)
(0.218676 0.0003886 0)
(0.210722 0.00035376 0)
(0.203555 0.000324882 0)
(0.197043 0.000300678 0)
(0.191085 0.000280209 0)
(0.185599 0.000262773 0)
(0.180519 0.000247844 0)
(0.17579 0.00023502 0)
(0.171365 0.000223996 0)
(0.167206 0.000214539 0)
(0.163279 0.000206473 0)
(0.159554 0.000199664 0)
(0.156007 0.000194022 0)
(0.152612 0.00018948 0)
(0.149348 0.000186004 0)
(0.146195 0.000183583 0)
(0.143133 0.000182219 0)
(0.140142 0.000181956 0)
(0.137206 0.000182808 0)
(0.134303 0.0001849 0)
(0.131417 0.000188202 0)
(0.128522 0.000192998 0)
(0.125607 0.000199072 0)
(0.122637 0.000207061 0)
(0.119606 0.000216235 0)
(0.116472 0.000228001 0)
(0.113227 0.000240499 0)
(0.109839 0.000256642 0)
(0.106258 0.00027256 0)
(0.102549 0.000293406 0)
(0.0984575 0.000313017 0)
(0.0944461 0.000337496 0)
(0.0895129 0.000362505 0)
(0.0855105 0.000385252 0)
(0.0789348 0.000422134 0)
(0.0761147 0.000419118 0)
(0.0659741 0.000622293 0)
(0.0647332 -0.00149123 0)
(0.99124 0.0499077 0)
(0.89027 0.0307349 0)
(0.762412 0.0146216 0)
(0.656122 0.00800853 0)
(0.584466 0.00491784 0)
(0.534684 0.00350826 0)
(0.496395 0.00277674 0)
(0.465311 0.00228813 0)
(0.439494 0.00192856 0)
(0.417646 0.00166045 0)
(0.398822 0.00145643 0)
(0.382357 0.00129655 0)
(0.367778 0.00116807 0)
(0.354737 0.00106289 0)
(0.342968 0.000975573 0)
(0.332267 0.000902233 0)
(0.322472 0.000840042 0)
(0.313451 0.000786893 0)
(0.305099 0.000741195 0)
(0.297327 0.000701737 0)
(0.290062 0.000667592 0)
(0.283241 0.000638046 0)
(0.276811 0.000612558 0)
(0.270724 0.000590718 0)
(0.264939 0.000572236 0)
(0.259419 0.000556902 0)
(0.254128 0.000544603 0)
(0.249035 0.000535284 0)
(0.24411 0.00052896 0)
(0.239322 0.000525715 0)
(0.234642 0.000525658 0)
(0.23004 0.000529035 0)
(0.225488 0.000535958 0)
(0.220949 0.000546974 0)
(0.216401 0.000561923 0)
(0.211793 0.000582043 0)
(0.207111 0.000606192 0)
(0.202291 0.000637321 0)
(0.197316 0.000671651 0)
(0.192136 0.000716221 0)
(0.186669 0.000761079 0)
(0.181 0.000822115 0)
(0.174755 0.000876519 0)
(0.168583 0.000957195 0)
(0.161037 0.00101789 0)
(0.154746 0.00112013 0)
(0.144716 0.0011832 0)
(0.139821 0.00127735 0)
(0.124617 0.00160498 0)
(0.122819 -0.000722567 0)
(1.0156 0.0489286 0)
(1.00591 0.035899 0)
(0.93574 0.0208307 0)
(0.851636 0.013554 0)
(0.781338 0.00926595 0)
(0.725713 0.00684751 0)
(0.68014 0.00545773 0)
(0.641833 0.00452609 0)
(0.60921 0.00383957 0)
(0.581088 0.00332077 0)
(0.556532 0.00292131 0)
(0.534841 0.00260606 0)
(0.515486 0.00235152 0)
(0.498068 0.00214232 0)
(0.482276 0.00196798 0)
(0.46786 0.00182101 0)
(0.454624 0.00169595 0)
(0.442406 0.00158867 0)
(0.431071 0.00149606 0)
(0.42051 0.00141573 0)
(0.410629 0.00134586 0)
(0.401348 0.00128501 0)
(0.392598 0.00123211 0)
(0.384319 0.00118631 0)
(0.376457 0.00114704 0)
(0.368965 0.00111384 0)
(0.361797 0.00108649 0)
(0.354913 0.00106484 0)
(0.348275 0.00104892 0)
(0.341841 0.00103885 0)
(0.335579 0.00103489 0)
(0.329445 0.00103744 0)
(0.323408 0.00104686 0)
(0.317418 0.00106398 0)
(0.311446 0.00108892 0)
(0.305428 0.00112355 0)
(0.299344 0.00116657 0)
(0.293112 0.00122267 0)
(0.286707 0.00128614 0)
(0.280059 0.00136919 0)
(0.273071 0.00145418 0)
(0.26582 0.00157208 0)
(0.25787 0.00167583 0)
(0.249947 0.00184034 0)
(0.240373 0.00195102 0)
(0.232132 0.00218028 0)
(0.219523 0.00227542 0)
(0.212512 0.00254711 0)
(0.193818 0.00294588 0)
(0.190441 0.00101746 0)
(1.01434 0.0460132 0)
(1.0475 0.0375185 0)
(1.02443 0.0242036 0)
(0.974386 0.0176291 0)
(0.922749 0.0132068 0)
(0.875562 0.0103041 0)
(0.832902 0.00845361 0)
(0.794582 0.00714498 0)
(0.760376 0.00614709 0)
(0.729852 0.00537111 0)
(0.702503 0.00476025 0)
(0.677863 0.00427039 0)
(0.655535 0.00387014 0)
(0.635192 0.00353805 0)
(0.616561 0.00325909 0)
(0.599413 0.00302231 0)
(0.583561 0.00281958 0)
(0.568843 0.00264469 0)
(0.555126 0.0024929 0)
(0.542293 0.00236054 0)
(0.530248 0.00224474 0)
(0.518904 0.00214328 0)
(0.508187 0.00205444 0)
(0.498032 0.00197689 0)
(0.488379 0.00190967 0)
(0.479175 0.00185208 0)
(0.470371 0.00180371 0)
(0.46192 0.00176432 0)
(0.45378 0.00173396 0)
(0.445906 0.00171278 0)
(0.438258 0.00170124 0)
(0.430789 0.00169988 0)
(0.423463 0.00170945 0)
(0.416222 0.0017311 0)
(0.409035 0.00176534 0)
(0.401828 0.00181477 0)
(0.394575 0.00187812 0)
(0.387184 0.001962 0)
(0.379623 0.0020589 0)
(0.371807 0.00218677 0)
(0.363631 0.00231983 0)
(0.355151 0.00250606 0)
(0.345923 0.00267144 0)
(0.336642 0.00293903 0)
(0.325622 0.0031167 0)
(0.315791 0.00350328 0)
(0.301501 0.0036544 0)
(0.292434 0.00414862 0)
(0.271923 0.00462324 0)
(0.265651 0.00328347 0)
(1.00933 0.0429255 0)
(1.05525 0.0372979 0)
(1.05858 0.0253574 0)
(1.0361 0.0198454 0)
(1.00657 0.0159196 0)
(0.975169 0.0130645 0)
(0.943195 0.0111082 0)
(0.911789 0.00964492 0)
(0.881809 0.00847259 0)
(0.853646 0.00752219 0)
(0.827385 0.00674897 0)
(0.802967 0.00611289 0)
(0.780277 0.00558263 0)
(0.759175 0.00513548 0)
(0.739519 0.00475478 0)
(0.721173 0.00442797 0)
(0.70401 0.00414539 0)
(0.687915 0.00389952 0)
(0.672783 0.00368445 0)
(0.658524 0.00349554 0)
(0.645054 0.00332912 0)
(0.632299 0.00318229 0)
(0.620193 0.00305277 0)
(0.608676 0.00293882 0)
(0.597693 0.00283915 0)
(0.587193 0.0027528 0)
(0.577129 0.00267923 0)
(0.567455 0.00261812 0)
(0.558128 0.00256957 0)
(0.549105 0.00253377 0)
(0.540344 0.00251143 0)
(0.531798 0.00250329 0)
(0.523429 0.00251051 0)
(0.515177 0.0025346 0)
(0.50701 0.00257665 0)
(0.498849 0.00263996 0)
(0.490667 0.00272355 0)
(0.482365 0.00283595 0)
(0.473912 0.00296823 0)
(0.465205 0.003144 0)
(0.45615 0.00333013 0)
(0.446762 0.00359102 0)
(0.436643 0.00382774 0)
(0.426368 0.00420864 0)
(0.414434 0.00447146 0)
(0.403377 0.00502745 0)
(0.388222 0.00527267 0)
(0.377288 0.00599324 0)
(0.356425 0.00661927 0)
(0.346603 0.00582095 0)
(1.00625 0.0400451 0)
(1.05203 0.0363738 0)
(1.066 0.0252935 0)
(1.05939 0.0206575 0)
(1.04647 0.0173653 0)
(1.03012 0.0148105 0)
(1.01086 0.0130013 0)
(0.989712 0.0116025 0)
(0.967749 0.0104311 0)
(0.945701 0.00943968 0)
(0.924017 0.00860295 0)
(0.902962 0.00789307 0)
(0.882688 0.00728572 0)
(0.86327 0.00676218 0)
(0.84473 0.00630803 0)
(0.82706 0.00591189 0)
(0.810232 0.0055646 0)
(0.794207 0.00525875 0)
(0.778941 0.00498834 0)
(0.764388 0.00474851 0)
(0.750502 0.00453534 0)
(0.737235 0.00434568 0)
(0.724546 0.00417702 0)
(0.712391 0.00402742 0)
(0.70073 0.00389542 0)
(0.689523 0.00377997 0)
(0.678734 0.00368051 0)
(0.668323 0.0035967 0)
(0.658254 0.00352875 0)
(0.648489 0.003477 0)
(0.638992 0.00344243 0)
(0.629717 0.00342603 0)
(0.62063 0.00342946 0)
(0.611674 0.00345465 0)
(0.602817 0.00350329 0)
(0.593985 0.00357949 0)
(0.585148 0.00368272 0)
(0.576207 0.00382332 0)
(0.567135 0.00399155 0)
(0.557818 0.00421594 0)
(0.548182 0.00445788 0)
(0.538192 0.00479539 0)
(0.527536 0.00511055 0)
(0.516613 0.005607 0)
(0.504221 0.00597222 0)
(0.492316 0.00669432 0)
(0.47695 0.00707736 0)
(0.464511 0.00799978 0)
(0.444271 0.00886834 0)
(0.431316 0.00853758 0)
(1.00495 0.0373684 0)
(1.04724 0.0352948 0)
(1.06388 0.0247593 0)
(1.06407 0.0206933 0)
(1.06035 0.0179176 0)
(1.05421 0.0156738 0)
(1.04517 0.0140863 0)
(1.03362 0.0128597 0)
(1.02025 0.0118069 0)
(1.00568 0.0108865 0)
(0.990365 0.0100851 0)
(0.974654 0.00938544 0)
(0.958819 0.00877082 0)
(0.943056 0.00822817 0)
(0.927504 0.00774728 0)
(0.912259 0.00731978 0)
(0.897385 0.00693865 0)
(0.882918 0.00659794 0)
(0.868881 0.00629268 0)
(0.85528 0.00601867 0)
(0.842114 0.00577247 0)
(0.829375 0.00555123 0)
(0.817051 0.00535266 0)
(0.805126 0.00517497 0)
(0.79358 0.00501685 0)
(0.782395 0.00487738 0)
(0.771547 0.00475612 0)
(0.761013 0.00465292 0)
(0.750767 0.0045682 0)
(0.740781 0.00450253 0)
(0.731028 0.00445727 0)
(0.72147 0.00443374 0)
(0.712079 0.00443412 0)
(0.702807 0.00446085 0)
(0.693625 0.00451633 0)
(0.684465 0.00460542 0)
(0.675302 0.00472828 0)
(0.666041 0.00489684 0)
(0.65666 0.00510125 0)
(0.64704 0.00537384 0)
(0.637133 0.00567296 0)
(0.626858 0.00608609 0)
(0.615998 0.0064845 0)
(0.604774 0.00709299 0)
(0.592316 0.00757496 0)
(0.579966 0.0084504 0)
(0.564869 0.00900934 0)
(0.551459 0.0101042 0)
(0.53232 0.0112692 0)
(0.51732 0.0113801 0)
(1.0044 0.0348216 0)
(1.0432 0.0342249 0)
(1.05985 0.0241236 0)
(1.0621 0.0204075 0)
(1.06219 0.0179932 0)
(1.06133 0.0159712 0)
(1.05854 0.0145627 0)
(1.05371 0.0135078 0)
(1.04714 0.0126044 0)
(1.03914 0.0118036 0)
(1.02999 0.0110946 0)
(1.01993 0.0104639 0)
(1.00919 0.00989858 0)
(0.997978 0.00938926 0)
(0.986452 0.00892896 0)
(0.974746 0.00851214 0)
(0.962966 0.00813409 0)
(0.951195 0.00779077 0)
(0.939496 0.0074787 0)
(0.927918 0.00719487 0)
(0.916496 0.00693677 0)
(0.905257 0.00670228 0)
(0.894217 0.00648973 0)
(0.883386 0.00629781 0)
(0.872769 0.00612562 0)
(0.862366 0.0059726 0)
(0.852174 0.00583868 0)
(0.842183 0.005724 0)
(0.832385 0.00562938 0)
(0.822762 0.00555573 0)
(0.813299 0.00550487 0)
(0.803971 0.00547852 0)
(0.794758 0.0054795 0)
(0.785621 0.00551076 0)
(0.776539 0.00557548 0)
(0.767454 0.00567931 0)
(0.758347 0.00582324 0)
(0.749132 0.00602053 0)
(0.739794 0.0062619 0)
(0.730216 0.00658226 0)
(0.720372 0.00693942 0)
(0.710154 0.00742586 0)
(0.699424 0.00791035 0)
(0.688262 0.00862443 0)
(0.676085 0.00923295 0)
(0.663719 0.0102462 0)
(0.649243 0.011005 0)
(0.635485 0.0122526 0)
(0.61766 0.0137212 0)
(0.601789 0.0142719 0)
(1.00401 0.0323828 0)
(1.03988 0.0331783 0)
(1.05607 0.023506 0)
(1.05874 0.0200271 0)
(1.05992 0.0178732 0)
(1.06113 0.0159892 0)
(1.06132 0.0146858 0)
(1.06019 0.0137508 0)
(1.05785 0.0129691 0)
(1.05439 0.0122806 0)
(1.04989 0.0116718 0)
(1.04446 0.0111286 0)
(1.03822 0.0106382 0)
(1.0313 0.0101915 0)
(1.02381 0.00978265 0)
(1.01586 0.00940746 0)
(1.00756 0.00906252 0)
(0.998976 0.00874507 0)
(0.99019 0.00845279 0)
(0.981262 0.00818374 0)
(0.972245 0.00793632 0)
(0.96318 0.00770921 0)
(0.954102 0.00750145 0)
(0.945039 0.00731231 0)
(0.936013 0.00714148 0)
(0.927038 0.00698887 0)
(0.918127 0.00685487 0)
(0.909284 0.00674008 0)
(0.900513 0.00664578 0)
(0.891809 0.00657331 0)
(0.883169 0.006525 0)
(0.874579 0.00650309 0)
(0.866028 0.00651101 0)
(0.857489 0.00655232 0)
(0.848949 0.00663098 0)
(0.840362 0.00675341 0)
(0.831715 0.00692157 0)
(0.822935 0.00714979 0)
(0.814014 0.00742991 0)
(0.804846 0.00779833 0)
(0.795417 0.00821439 0)
(0.785613 0.00877167 0)
(0.775351 0.00934349 0)
(0.764623 0.0101561 0)
(0.753056 0.0108957 0)
(0.741106 0.0120325 0)
(0.727545 0.0129997 0)
(0.714047 0.0143911 0)
(0.697693 0.0161399 0)
(0.681933 0.0171215 0)
(1.00364 0.0300437 0)
(1.03689 0.0321343 0)
(1.05272 0.0229219 0)
(1.0555 0.0196298 0)
(1.05683 0.0176914 0)
(1.05859 0.0159018 0)
(1.05986 0.0146489 0)
(1.06035 0.0137805 0)
(1.06012 0.0130767 0)
(1.05918 0.0124677 0)
(1.05754 0.0119369 0)
(1.0552 0.0114692 0)
(1.05218 0.0110501 0)
(1.04855 0.0106693 0)
(1.04434 0.0103205 0)
(1.03961 0.00999915 0)
(1.03444 0.00970206 0)
(1.02886 0.00942678 0)
(1.02295 0.00917142 0)
(1.01674 0.00893454 0)
(1.01029 0.00871507 0)
(1.00364 0.0085122 0)
(0.996812 0.00832548 0)
(0.989853 0.00815468 0)
(0.982783 0.00799995 0)
(0.975627 0.00786165 0)
(0.968401 0.00774064 0)
(0.961121 0.00763793 0)
(0.953796 0.00755528 0)
(0.946431 0.00749446 0)
(0.939031 0.00745834 0)
(0.93159 0.00744966 0)
(0.924106 0.00747245 0)
(0.916563 0.00753089 0)
(0.908953 0.00762969 0)
(0.901242 0.00777604 0)
(0.893425 0.00797283 0)
(0.885441 0.00823534 0)
(0.877287 0.0085568 0)
(0.868875 0.00897429 0)
(0.860197 0.00945014 0)
(0.851149 0.0100761 0)
(0.841678 0.0107351 0)
(0.831735 0.0116394 0)
(0.821084 0.01251 0)
(0.80995 0.0137587 0)
(0.797573 0.01493 0)
(0.784868 0.0164615 0)
(0.770152 0.0184534 0)
(0.755265 0.0198409 0)
(1.00327 0.0278052 0)
(1.03406 0.0310792 0)
(1.04961 0.0223645 0)
(1.05254 0.0192307 0)
(1.05383 0.017491 0)
(1.05564 0.0157853 0)
(1.05719 0.0145568 0)
(1.05822 0.0137216 0)
(1.05881 0.0130618 0)
(1.05901 0.0124999 0)
(1.05881 0.0120187 0)
(1.05816 0.0116027 0)
(1.05707 0.0112364 0)
(1.05552 0.0109084 0)
(1.05353 0.0106111 0)
(1.05112 0.0103395 0)
(1.0483 0.0100897 0)
(1.0451 0.00985904 0)
(1.04155 0.00964538 0)
(1.03767 0.00944729 0)
(1.0335 0.00926374 0)
(1.02906 0.00909408 0)
(1.02438 0.00893804 0)
(1.01948 0.00879563 0)
(1.01439 0.00866724 0)
(1.00912 0.00855353 0)
(1.00369 0.00845567 0)
(0.998122 0.00837501 0)
(0.992422 0.00831364 0)
(0.986598 0.00827375 0)
(0.980658 0.00825861 0)
(0.974602 0.00827143 0)
(0.968433 0.00831675 0)
(0.962139 0.00839934 0)
(0.955721 0.00852452 0)
(0.949153 0.00870026 0)
(0.942433 0.00893026 0)
(0.935516 0.00923063 0)
(0.928399 0.00959603 0)
(0.921015 0.0100637 0)
(0.913356 0.0105998 0)
(0.905339 0.0112923 0)
(0.896925 0.0120368 0)
(0.888056 0.0130262 0)
(0.878579 0.0140235 0)
(0.868584 0.0153742 0)
(0.857621 0.0167366 0)
(0.84613 0.0184053 0)
(0.833211 0.0205985 0)
(0.819759 0.0223531 0)
(1.00292 0.0256708 0)
(1.03135 0.0300086 0)
(1.04661 0.0218293 0)
(1.04975 0.0188298 0)
(1.05101 0.0172789 0)
(1.05279 0.015662 0)
(1.05437 0.0144514 0)
(1.05552 0.0136342 0)
(1.05635 0.0130002 0)
(1.05695 0.0124654 0)
(1.05733 0.0120123 0)
(1.05745 0.011627 0)
(1.0573 0.0112939 0)
(1.05687 0.0110011 0)
(1.05615 0.0107404 0)
(1.05514 0.0105061 0)
(1.05383 0.0102939 0)
(1.05222 0.0101006 0)
(1.05033 0.00992377 0)
(1.04816 0.00976168 0)
(1.04572 0.0096131 0)
(1.04302 0.00947727 0)
(1.04008 0.00935386 0)
(1.03691 0.00924287 0)
(1.03352 0.00914476 0)
(1.02993 0.00906029 0)
(1.02614 0.00899075 0)
(1.02217 0.00893769 0)
(1.01802 0.00890341 0)
(1.0137 0.00889037 0)
(1.00922 0.00890211 0)
(1.00457 0.00894222 0)
(0.999769 0.00901561 0)
(0.994799 0.00912757 0)
(0.989663 0.00928385 0)
(0.984345 0.00949314 0)
(0.978841 0.00975976 0)
(0.973122 0.0101006 0)
(0.967183 0.0105115 0)
(0.960977 0.0110297 0)
(0.954492 0.0116254 0)
(0.947669 0.0123815 0)
(0.940475 0.013208 0)
(0.932859 0.0142755 0)
(0.924722 0.0153917 0)
(0.916078 0.0168349 0)
(0.906677 0.0183688 0)
(0.896683 0.0201697 0)
(0.885666 0.0225224 0)
(0.87401 0.0245954 0)
(1.0026 0.0236431 0)
(1.02876 0.028921 0)
(1.04369 0.0213153 0)
(1.04706 0.0184271 0)
(1.04833 0.0170536 0)
(1.05007 0.0155346 0)
(1.05165 0.0143438 0)
(1.0528 0.01354 0)
(1.05367 0.012925 0)
(1.05437 0.012408 0)
(1.05492 0.0119716 0)
(1.05532 0.011604 0)
(1.05555 0.0112903 0)
(1.05562 0.0110187 0)
(1.05551 0.010781 0)
(1.05521 0.0105712 0)
(1.05472 0.0103848 0)
(1.05404 0.0102183 0)
(1.05314 0.0100692 0)
(1.05205 0.00993531 0)
(1.05074 0.0098153 0)
(1.04923 0.00970823 0)
(1.04752 0.00961362 0)
(1.04561 0.00953138 0)
(1.0435 0.00946191 0)
(1.0412 0.00940595 0)
(1.03871 0.00936482 0)
(1.03604 0.00934012 0)
(1.03318 0.00933425 0)
(1.03014 0.00934982 0)
(1.02693 0.00939052 0)
(1.02354 0.00946023 0)
(1.01997 0.00956403 0)
(1.01623 0.00970768 0)
(1.01229 0.00989715 0)
(1.00817 0.0101418 0)
(1.00384 0.0104463 0)
(0.999302 0.0108281 0)
(0.994534 0.0112845 0)
(0.989511 0.0118517 0)
(0.984218 0.0125047 0)
(0.978616 0.01332 0)
(0.972677 0.014223 0)
(0.966361 0.0153608 0)
(0.959604 0.0165846 0)
(0.952384 0.0181106 0)
(0.944577 0.0197922 0)
(0.936201 0.0217164 0)
(0.927089 0.0241896 0)
(0.917386 0.0265261 0)
(1.0023 0.0217238 0)
(1.02631 0.0278175 0)
(1.04086 0.0208207 0)
(1.04445 0.0180241 0)
(1.04575 0.0168139 0)
(1.04745 0.0154016 0)
(1.04902 0.0142353 0)
(1.05017 0.0134441 0)
(1.05103 0.0128463 0)
(1.05174 0.0123445 0)
(1.05232 0.0119205 0)
(1.05279 0.0115646 0)
(1.05314 0.0112631 0)
(1.05339 0.0110046 0)
(1.05351 0.010781 0)
(1.05353 0.0105864 0)
(1.05341 0.0104165 0)
(1.05317 0.0102677 0)
(1.0528 0.0101373 0)
(1.05229 0.0100233 0)
(1.05163 0.00992413 0)
(1.05082 0.00983874 0)
(1.04987 0.00976659 0)
(1.04875 0.00970751 0)
(1.04749 0.00966184 0)
(1.04606 0.00963027 0)
(1.04448 0.00961411 0)
(1.04273 0.00961498 0)
(1.04082 0.0096353 0)
(1.03875 0.00967777 0)
(1.03651 0.00974613 0)
(1.03411 0.00984445 0)
(1.03154 0.0099779 0)
(1.02879 0.0101526 0)
(1.02586 0.0103746 0)
(1.02274 0.0106537 0)
(1.01943 0.0109949 0)
(1.01592 0.0114161 0)
(1.01219 0.0119156 0)
(1.00822 0.0125286 0)
(1.00401 0.0132346 0)
(0.999533 0.0141033 0)
(0.994756 0.0150753 0)
(0.989654 0.0162745 0)
(0.98419 0.0175922 0)
(0.978328 0.0191905 0)
(0.972018 0.0209936 0)
(0.965219 0.0230277 0)
(0.957896 0.0255865 0)
(0.950107 0.0281296 0)
(1.00203 0.0199138 0)
(1.02399 0.026701 0)
(1.03813 0.0203425 0)
(1.04193 0.0176225 0)
(1.04325 0.0165598 0)
(1.04493 0.0152617 0)
(1.0465 0.0141253 0)
(1.04764 0.0133468 0)
(1.04849 0.0127662 0)
(1.04918 0.0122797 0)
(1.04976 0.0118672 0)
(1.05023 0.0115209 0)
(1.0506 0.0112289 0)
(1.05089 0.0109798 0)
(1.05109 0.0107659 0)
(1.0512 0.0105815 0)
(1.05123 0.0104224 0)
(1.05118 0.0102852 0)
(1.05103 0.0101674 0)
(1.05078 0.0100669 0)
(1.05044 0.00998215 0)
(1.05 0.0099122 0)
(1.04944 0.00985645 0)
(1.04877 0.00981475 0)
(1.04799 0.00978741 0)
(1.04708 0.00977513 0)
(1.04605 0.0097792 0)
(1.0449 0.00980128 0)
(1.0436 0.00984379 0)
(1.04217 0.0099095 0)
(1.0406 0.0100022 0)
(1.03889 0.010126 0)
(1.03702 0.0102863 0)
(1.035 0.0104892 0)
(1.03281 0.010741 0)
(1.03046 0.0110517 0)
(1.02794 0.0114267 0)
(1.02523 0.0118837 0)
(1.02232 0.0124224 0)
(1.01922 0.0130763 0)
(1.0159 0.0138298 0)
(1.01234 0.0147449 0)
(1.00854 0.015777 0)
(1.00447 0.0170281 0)
(1.00011 0.0184246 0)
(0.995427 0.0200839 0)
(0.990412 0.0219821 0)
(0.985014 0.0241092 0)
(0.979254 0.0267238 0)
(0.973175 0.0294184 0)
(1.00179 0.0182134 0)
(1.0218 0.0255754 0)
(1.03549 0.0198769 0)
(1.03949 0.0172244 0)
(1.04084 0.0162921 0)
(1.04249 0.0151138 0)
(1.04406 0.0140133 0)
(1.0452 0.013248 0)
(1.04604 0.0126848 0)
(1.04672 0.0122142 0)
(1.04728 0.0118134 0)
(1.04774 0.0114767 0)
(1.04811 0.0111933 0)
(1.04839 0.0109525 0)
(1.0486 0.0107466 0)
(1.04874 0.0105702 0)
(1.0488 0.0104193 0)
(1.0488 0.0102908 0)
(1.04873 0.0101821 0)
(1.04859 0.0100913 0)
(1.04838 0.010017 0)
(1.04809 0.00995821 0)
(1.04772 0.00991452 0)
(1.04726 0.00988578 0)
(1.04672 0.00987235 0)
(1.04609 0.00987497 0)
(1.04535 0.00989498 0)
(1.04452 0.00993407 0)
(1.04358 0.0099947 0)
(1.04253 0.0100797 0)
(1.04136 0.0101929 0)
(1.04007 0.0103386 0)
(1.03866 0.010522 0)
(1.03711 0.0107496 0)
(1.03542 0.0110275 0)
(1.03359 0.0113662 0)
(1.0316 0.0117709 0)
(1.02946 0.0122594 0)
(1.02715 0.0128326 0)
(1.02467 0.013522 0)
(1.02201 0.0143166 0)
(1.01915 0.0152709 0)
(1.0161 0.0163538 0)
(1.01282 0.0176476 0)
(1.00933 0.0191077 0)
(1.00558 0.0208168 0)
(1.0016 0.0227857 0)
(0.997338 0.024987 0)
(0.992843 0.0276327 0)
(0.988169 0.0304293 0)
(1.00157 0.0166221 0)
(1.01976 0.0244448 0)
(1.03295 0.0194199 0)
(1.03714 0.0168314 0)
(1.03853 0.016012 0)
(1.04014 0.0149574 0)
(1.0417 0.0138991 0)
(1.04285 0.0131476 0)
(1.04368 0.0126018 0)
(1.04435 0.0121478 0)
(1.04489 0.0117595 0)
(1.04534 0.0114326 0)
(1.04569 0.011158 0)
(1.04597 0.0109253 0)
(1.04617 0.010727 0)
(1.0463 0.010558 0)
(1.04637 0.0104145 0)
(1.04637 0.0102934 0)
(1.04632 0.0101922 0)
(1.04621 0.0101094 0)
(1.04603 0.0100435 0)
(1.0458 0.0099937 0)
(1.04549 0.0099596 0)
(1.04512 0.00994116 0)
(1.04468 0.00993882 0)
(1.04417 0.0099534 0)
(1.04358 0.0099863 0)
(1.0429 0.0100393 0)
(1.04214 0.0101149 0)
(1.04128 0.0102161 0)
(1.04033 0.0103465 0)
(1.03928 0.0105109 0)
(1.03812 0.0107141 0)
(1.03684 0.010963 0)
(1.03545 0.0112637 0)
(1.03393 0.0116266 0)
(1.03229 0.0120574 0)
(1.03051 0.0125733 0)
(1.02859 0.0131766 0)
(1.02652 0.0138963 0)
(1.0243 0.014726 0)
(1.02192 0.0157131 0)
(1.01938 0.016838 0)
(1.01667 0.0181664 0)
(1.0138 0.0196764 0)
(1.01073 0.021425 0)
(1.0075 0.0234434 0)
(1.0041 0.0257003 0)
(1.00055 0.0283583 0)
(0.996936 0.0312154 0)
(1.00137 0.0151392 0)
(1.01785 0.0233129 0)
(1.03053 0.0189674 0)
(1.03488 0.016445 0)
(1.03631 0.015721 0)
(1.03788 0.0147919 0)
(1.03943 0.0137822 0)
(1.04059 0.0130457 0)
(1.04141 0.0125171 0)
(1.04207 0.0120805 0)
(1.0426 0.0117052 0)
(1.04304 0.0113886 0)
(1.04338 0.011123 0)
(1.04364 0.0108987 0)
(1.04382 0.0107082 0)
(1.04394 0.0105466 0)
(1.044 0.0104103 0)
(1.044 0.0102963 0)
(1.04394 0.0102024 0)
(1.04383 0.0101269 0)
(1.04366 0.0100686 0)
(1.04343 0.0100268 0)
(1.04315 0.0100012 0)
(1.0428 0.0099918 0)
(1.04239 0.00999914 0)
(1.04192 0.0100241 0)
(1.04138 0.0100682 0)
(1.04077 0.0101333 0)
(1.04008 0.0102219 0)
(1.03932 0.0103372 0)
(1.03847 0.0104828 0)
(1.03753 0.0106634 0)
(1.03649 0.0108842 0)
(1.03536 0.0111519 0)
(1.03413 0.0114727 0)
(1.03278 0.011857 0)
(1.03133 0.0123108 0)
(1.02976 0.0128508 0)
(1.02806 0.0134803 0)
(1.02624 0.0142262 0)
(1.0243 0.0150861 0)
(1.02222 0.0161009 0)
(1.02001 0.0172606 0)
(1.01767 0.0186175 0)
(1.0152 0.020166 0)
(1.01259 0.0219458 0)
(1.00988 0.0239973 0)
(1.00706 0.0262934 0)
(1.00417 0.0289502 0)
(1.00129 0.0318358 0)
(1.00119 0.0137629 0)
(1.01607 0.0221841 0)
(1.0282 0.0185159 0)
(1.0327 0.0160664 0)
(1.03419 0.0154208 0)
(1.03571 0.0146166 0)
(1.03725 0.0136622 0)
(1.03841 0.0129424 0)
(1.03924 0.0124308 0)
(1.03988 0.012012 0)
(1.0404 0.0116506 0)
(1.04082 0.0113447 0)
(1.04115 0.0110885 0)
(1.0414 0.0108728 0)
(1.04157 0.0106904 0)
(1.04168 0.0105364 0)
(1.04173 0.0104074 0)
(1.04172 0.0103006 0)
(1.04165 0.0102139 0)
(1.04153 0.0101457 0)
(1.04135 0.0100949 0)
(1.04112 0.0100609 0)
(1.04083 0.0100435 0)
(1.04048 0.0100427 0)
(1.04008 0.0100592 0)
(1.03962 0.0100939 0)
(1.03909 0.0101485 0)
(1.0385 0.0102248 0)
(1.03784 0.0103256 0)
(1.0371 0.0104539 0)
(1.03629 0.0106135 0)
(1.0354 0.0108092 0)
(1.03442 0.0110461 0)
(1.03335 0.0113312 0)
(1.03219 0.0116704 0)
(1.03093 0.0120744 0)
(1.02958 0.0125492 0)
(1.02811 0.0131108 0)
(1.02654 0.013764 0)
(1.02486 0.0145333 0)
(1.02307 0.0154198 0)
(1.02117 0.0164584 0)
(1.01916 0.0176474 0)
(1.01703 0.0190281 0)
(1.01482 0.0206063 0)
(1.0125 0.0224107 0)
(1.01011 0.0244834 0)
(1.00766 0.0268053 0)
(1.0052 0.0294531 0)
(1.00279 0.032345 0)
(1.00104 0.012491 0)
(1.01443 0.0210625 0)
(1.02599 0.0180619 0)
(1.03061 0.0156965 0)
(1.03216 0.0151134 0)
(1.03364 0.0144313 0)
(1.03516 0.0135387 0)
(1.03633 0.0128376 0)
(1.03715 0.0123427 0)
(1.03778 0.0119422 0)
(1.03829 0.0115955 0)
(1.0387 0.0113009 0)
(1.03902 0.0110543 0)
(1.03926 0.0108475 0)
(1.03942 0.0106734 0)
(1.03952 0.0105274 0)
(1.03955 0.0104059 0)
(1.03953 0.0103065 0)
(1.03945 0.0102272 0)
(1.03932 0.0101665 0)
(1.03913 0.0101234 0)
(1.03889 0.0100972 0)
(1.03859 0.010088 0)
(1.03824 0.0100958 0)
(1.03783 0.0101214 0)
(1.03736 0.0101658 0)
(1.03683 0.0102306 0)
(1.03624 0.010318 0)
(1.03558 0.0104305 0)
(1.03486 0.0105715 0)
(1.03406 0.0107447 0)
(1.03318 0.010955 0)
(1.03222 0.0112074 0)
(1.03118 0.0115091 0)
(1.03005 0.011866 0)
(1.02883 0.0122886 0)
(1.02752 0.0127833 0)
(1.02611 0.0133655 0)
(1.0246 0.0140409 0)
(1.02299 0.0148318 0)
(1.02128 0.0157426 0)
(1.01948 0.016803 0)
(1.01758 0.0180174 0)
(1.01558 0.019419 0)
(1.01351 0.0210208 0)
(1.01136 0.0228452 0)
(1.00917 0.0249312 0)
(1.00695 0.027269 0)
(1.00475 0.0299034 0)
(1.00262 0.0327876 0)
(1.0009 0.0113207 0)
(1.01292 0.0199526 0)
(1.02389 0.0176024 0)
(1.02861 0.0153356 0)
(1.03022 0.0148008 0)
(1.03167 0.0142356 0)
(1.03316 0.013411 0)
(1.03433 0.0127313 0)
(1.03515 0.0122529 0)
(1.03577 0.0118712 0)
(1.03628 0.0115398 0)
(1.03668 0.011257 0)
(1.03699 0.0110205 0)
(1.03721 0.0108229 0)
(1.03736 0.0106574 0)
(1.03745 0.0105195 0)
(1.03747 0.0104059 0)
(1.03744 0.0103142 0)
(1.03735 0.0102425 0)
(1.0372 0.0101894 0)
(1.03701 0.0101541 0)
(1.03675 0.010136 0)
(1.03645 0.0101351 0)
(1.03609 0.0101517 0)
(1.03567 0.0101866 0)
(1.03519 0.0102408 0)
(1.03466 0.010316 0)
(1.03406 0.0104145 0)
(1.0334 0.0105388 0)
(1.03267 0.0106924 0)
(1.03187 0.0108792 0)
(1.031 0.0111039 0)
(1.03005 0.0113718 0)
(1.02901 0.0116898 0)
(1.0279 0.0120642 0)
(1.02669 0.012505 0)
(1.0254 0.0130192 0)
(1.02401 0.0136211 0)
(1.02254 0.0143179 0)
(1.02097 0.0151296 0)
(1.0193 0.0160631 0)
(1.01755 0.0171442 0)
(1.01571 0.0183817 0)
(1.01379 0.0198028 0)
(1.0118 0.0214246 0)
(1.00976 0.0232662 0)
(1.00768 0.0253611 0)
(1.0056 0.0277078 0)
(1.00355 0.0303277 0)
(1.00159 0.0331967 0)
(1.00078 0.0102484 0)
(1.01154 0.0188587 0)
(1.02191 0.0171345 0)
(1.02669 0.0149838 0)
(1.02838 0.0144851 0)
(1.02978 0.0140296 0)
(1.03125 0.0132785 0)
(1.03242 0.0126236 0)
(1.03324 0.0121616 0)
(1.03386 0.0117986 0)
(1.03435 0.0114835 0)
(1.03474 0.011213 0)
(1.03504 0.0109869 0)
(1.03526 0.0107989 0)
(1.0354 0.0106423 0)
(1.03548 0.0105128 0)
(1.03549 0.0104073 0)
(1.03545 0.0103235 0)
(1.03534 0.0102596 0)
(1.03519 0.0102145 0)
(1.03498 0.0101872 0)
(1.03472 0.0101774 0)
(1.0344 0.0101852 0)
(1.03403 0.0102107 0)
(1.03361 0.010255 0)
(1.03313 0.0103192 0)
(1.03259 0.0104051 0)
(1.03198 0.0105148 0)
(1.03132 0.0106512 0)
(1.03058 0.0108177 0)
(1.02978 0.0110181 0)
(1.0289 0.0112574 0)
(1.02795 0.0115408 0)
(1.02692 0.0118752 0)
(1.02581 0.012267 0)
(1.02461 0.012726 0)
(1.02333 0.0132595 0)
(1.02196 0.0138811 0)
(1.0205 0.0145988 0)
(1.01895 0.0154309 0)
(1.01731 0.0163864 0)
(1.01559 0.0174877 0)
(1.01379 0.0187465 0)
(1.01192 0.0201863 0)
(1.00999 0.0218256 0)
(1.00801 0.0236821 0)
(1.006 0.0257834 0)
(1.00401 0.0281348 0)
(1.00205 0.0307409 0)
(1.00018 0.0335926 0)
(1.00067 0.00927007 0)
(1.01028 0.0177854 0)
(1.02004 0.0166562 0)
(1.02486 0.014641 0)
(1.02662 0.0141684 0)
(1.02799 0.0138136 0)
(1.02943 0.0131407 0)
(1.0306 0.0125143 0)
(1.03142 0.0120687 0)
(1.03203 0.0117245 0)
(1.03252 0.0114263 0)
(1.0329 0.0111688 0)
(1.03319 0.0109535 0)
(1.0334 0.0107753 0)
(1.03353 0.010628 0)
(1.0336 0.0105072 0)
(1.0336 0.0104101 0)
(1.03355 0.0103344 0)
(1.03344 0.0102787 0)
(1.03327 0.0102417 0)
(1.03306 0.0102227 0)
(1.03279 0.0102215 0)
(1.03246 0.010238 0)
(1.03208 0.0102729 0)
(1.03165 0.0103268 0)
(1.03116 0.0104013 0)
(1.03061 0.010498 0)
(1.03 0.0106193 0)
(1.02933 0.0107679 0)
(1.02859 0.0109475 0)
(1.02778 0.0111618 0)
(1.02691 0.0114159 0)
(1.02595 0.011715 0)
(1.02492 0.012066 0)
(1.02381 0.0124754 0)
(1.02262 0.0129527 0)
(1.02134 0.0135056 0)
(1.01998 0.0141468 0)
(1.01854 0.0148853 0)
(1.017 0.0157378 0)
(1.01539 0.0167147 0)
(1.01369 0.017836 0)
(1.01192 0.0191152 0)
(1.01009 0.0205731 0)
(1.0082 0.0222284 0)
(1.00626 0.0240985 0)
(1.00431 0.026205 0)
(1.00238 0.0285582 0)
(1.00048 0.031152 0)
(0.998664 0.0339862 0)
(1.00058 0.00838106 0)
(1.00914 0.0167369 0)
(1.01828 0.0161657 0)
(1.02311 0.0143066 0)
(1.02495 0.0138526 0)
(1.02629 0.0135882 0)
(1.0277 0.0129968 0)
(1.02886 0.0124031 0)
(1.02969 0.0119743 0)
(1.03029 0.0116488 0)
(1.03077 0.0113681 0)
(1.03114 0.0111243 0)
(1.03143 0.0109203 0)
(1.03163 0.0107523 0)
(1.03175 0.0106146 0)
(1.03181 0.0105028 0)
(1.0318 0.0104142 0)
(1.03174 0.010347 0)
(1.03162 0.0102996 0)
(1.03145 0.0102711 0)
(1.03123 0.0102606 0)
(1.03095 0.0102682 0)
(1.03062 0.0102938 0)
(1.03023 0.0103381 0)
(1.02979 0.010402 0)
(1.02929 0.010487 0)
(1.02874 0.0105948 0)
(1.02812 0.0107279 0)
(1.02745 0.0108891 0)
(1.0267 0.0110819 0)
(1.02589 0.0113104 0)
(1.02501 0.0115796 0)
(1.02406 0.0118946 0)
(1.02303 0.0122625 0)
(1.02192 0.0126896 0)
(1.02074 0.0131853 0)
(1.01947 0.0137576 0)
(1.01811 0.0144186 0)
(1.01668 0.0151778 0)
(1.01516 0.0160507 0)
(1.01357 0.0170486 0)
(1.01189 0.0181899 0)
(1.01015 0.0194888 0)
(1.00835 0.0209645 0)
(1.00649 0.0226349 0)
(1.0046 0.0245175 0)
(1.0027 0.0266286 0)
(1.00081 0.0289821 0)
(0.998957 0.0315653 0)
(0.997182 0.0343836 0)
(1.0005 0.00757635 0)
(1.0081 0.0157175 0)
(1.01664 0.0156621 0)
(1.02144 0.0139795 0)
(1.02337 0.0135394 0)
(1.02468 0.0133542 0)
(1.02605 0.0128465 0)
(1.02721 0.0122899 0)
(1.02804 0.0118785 0)
(1.02864 0.0115715 0)
(1.02911 0.0113088 0)
(1.02948 0.0110795 0)
(1.02975 0.0108872 0)
(1.02994 0.0107297 0)
(1.03006 0.0106018 0)
(1.03011 0.0104993 0)
(1.0301 0.0104197 0)
(1.03003 0.0103612 0)
(1.0299 0.0103225 0)
(1.02972 0.0103025 0)
(1.02949 0.0103009 0)
(1.0292 0.0103175 0)
(1.02886 0.0103525 0)
(1.02847 0.0104065 0)
(1.02803 0.0104806 0)
(1.02752 0.0105763 0)
(1.02696 0.0106955 0)
(1.02634 0.0108406 0)
(1.02566 0.0110146 0)
(1.02492 0.0112211 0)
(1.0241 0.011464 0)
(1.02322 0.0117484 0)
(1.02227 0.0120797 0)
(1.02124 0.0124645 0)
(1.02014 0.0129096 0)
(1.01896 0.013424 0)
(1.0177 0.0140158 0)
(1.01635 0.0146967 0)