/*--------------------------------*- C++ -*----------------------------------*\
  =========                 |
  \\      /  F ield         | OpenFOAM: The Open Source CFD Toolbox
   \\    /   O peration     | Website:  https://openfoam.org
    \\  /    A nd           | Version:  7
     \\/     M anipulation  |
\*---------------------------------------------------------------------------*/
FoamFile
{
    version     2.0;
    format      ascii;
    class       volScalarField;
    location    "0.02";
    object      yPlus;
}
// * * * * * * * * * * * * * * * * * * * * * * * * * * * * * * * * * * * * * //

dimensions      [0 0 0 0 0 0 0];

internalField   uniform 0;

boundaryField
{
    velocityInlet
    {
        type            calculated;
        value           uniform 0;
    }
    pressureOutlet
    {
        type            calculated;
        value           uniform 0;
    }
    fixedWalls
    {
        type            calculated;
        value           nonuniform List<scalar> 
100
(
1.85199
1.64448
0.651606
0.653036
0.493275
0.591933
0.89194
0.920845
0.727405
0.708342
1.40819
1.81472
1.91922
1.64026
0.446634
1.33622
1.49827
1.3878
1.25989
1.26317
1.41994
1.62271
1.76953
1.75791
1.43155
0.391884
1.54185
2.04952
2.30191
2.37166
2.28776
2.07072
1.74172
1.3204
0.818399
0.26835
0.722991
0.93081
1.12598
1.30264
1.40066
1.39667
1.26277
0.993089
0.831095
1.0735
1.39336
1.5934
1.71268
1.76521
1.67901
1.39333
0.827292
0.726609
1.19298
1.39449
1.45356
1.41664
1.3144
1.16741
0.979034
0.704633
0.330975
0.952133
1.30909
1.49162
1.52117
1.44924
1.32096
1.15795
1.07975
1.23308
1.44531
1.52939
1.53088
1.573
1.64199
1.63876
1.50318
1.19976
0.57669
0.922443
1.37523
1.61936
1.71633
1.6914
1.56643
1.36034
1.08546
0.730457
0.167263
0.684399
0.896583
1.02471
1.10488
1.1596
1.19415
1.2215
1.23751
1.2577
)
;
    }
    bottomWall
    {
        type            calculated;
        value           nonuniform List<scalar> 
800
(
2.9448
1.98399
1.61369
1.4408
1.35592
1.29758
1.24897
1.20824
1.17411
1.14499
1.11968
1.09737
1.07752
1.05973
1.04367
1.0291
1.01583
1.00369
0.992546
0.982299
0.972854
0.964137
0.956083
0.948636
0.94175
0.935383
0.929499
0.924066
0.919057
0.914444
0.910206
0.906318
0.902764
0.899523
0.896576
0.893906
0.891496
0.88933
0.88739
0.885662
0.884128
0.882773
0.881582
0.880535
0.879615
0.878804
0.878083
0.877436
0.876846
0.876304
0.875865
0.87551
0.875161
0.87482
0.874488
0.874166
0.873851
0.873546
0.87325
0.872963
0.872685
0.872418
0.87216
0.871912
0.871674
0.871445
0.871224
0.871011
0.870805
0.870606
0.870413
0.870225
0.870041
0.869862
0.869687
0.869515
0.869348
0.869183
0.869022
0.868863
0.868708
0.868555
0.868404
0.868256
0.868109
0.867965
0.867822
0.867682
0.867542
0.867403
0.867267
0.867131
0.866997
0.866864
0.866733
0.866603
0.866476
0.86635
0.866226
0.866104
0.865983
0.865863
0.865743
0.865625
0.865507
0.86539
0.865275
0.86516
0.865047
0.864937
0.864829
0.864725
0.864624
0.864527
0.864433
0.864343
0.864255
0.86417
0.864085
0.864001
0.863918
0.863833
0.863749
0.863666
0.863582
0.863502
0.863424
0.86335
0.863282
0.863218
0.863162
0.863111
0.863063
0.863021
0.862979
0.862937
0.862892
0.862842
0.862784
0.862716
0.862638
0.862549
0.862449
0.862342
0.862228
0.862112
0.861996
0.861883
0.861775
0.861675
0.861595
0.861535
0.861477
0.861421
0.861369
0.861318
0.861269
0.861222
0.861175
0.861127
0.86108
0.861033
0.860986
0.860936
0.860887
0.860837
0.860785
0.860733
0.860679
0.860623
0.860566
0.860507
0.860447
0.860384
0.86032
0.860254
0.860186
0.860116
0.860043
0.859969
0.859892
0.859814
0.859733
0.859651
0.859566
0.85948
0.859391
0.859301
0.859209
0.859115
0.859019
0.858922
0.858823
0.858721
0.858618
0.858514
0.858408
0.8583
0.85819
0.85808
0.857968
0.857854
0.857739
0.857623
0.857506
0.857387
0.857267
0.857147
0.857024
0.856902
0.856778
0.856654
0.85653
0.856404
0.856279
0.856153
0.856027
0.8559
0.855774
0.855648
0.855522
0.855397
0.855272
0.855148
0.855024
0.854902
0.854782
0.854662
0.854543
0.854426
0.854311
0.854198
0.854087
0.853978
0.853871
0.853768
0.853667
0.853569
0.853474
0.85338
0.853293
0.853205
0.853126
0.853042
0.852974
0.852889
0.852839
0.852745
0.85272
0.852599
2.94477
1.98366
1.61278
1.43911
1.35336
1.29401
1.24425
1.20223
1.16668
1.13602
1.10905
1.08496
1.0632
1.04338
1.02517
1.00833
0.992649
0.977965
0.964143
0.951068
0.93864
0.926774
0.915393
0.904428
0.893816
0.883495
0.873409
0.8635
0.853713
0.843985
0.834263
0.824474
0.814564
0.804441
0.794054
0.783277
0.77207
0.760271
0.747827
0.7346
0.720363
0.70535
0.688453
0.671625
0.650326
0.633016
0.602741
0.591247
0.539328
0.529027
0.181938
0.418323
0.594895
0.726359
0.836513
0.932943
1.01968
1.0991
1.17274
1.24169
1.30671
1.36841
1.42725
1.48359
1.53772
1.5899
1.6403
1.68911
1.73646
1.78247
1.82724
1.87086
1.91339
1.9549
1.99546
2.03508
2.07383
2.11173
2.14881
2.18508
2.22057
2.2553
2.28927
2.3225
2.35498
2.38672
2.41773
2.448
2.47752
2.5063
2.53432
2.56159
2.58808
2.6138
2.63872
2.66285
2.68615
2.70863
2.73027
2.75104
2.77094
2.78995
2.80805
2.82522
2.84145
2.85672
2.871
2.88427
2.89652
2.90773
2.91787
2.92692
2.93486
2.94167
2.94731
2.95177
2.95501
2.95702
2.95776
2.95719
2.95529
2.95201
2.94733
2.94122
2.93363
2.92453
2.91385
2.90157
2.88762
2.87196
2.85454
2.83529
2.81415
2.79105
2.76591
2.73864
2.70916
2.67737
2.64314
2.60637
2.5669
2.52458
2.47925
2.43071
2.37874
2.3231
2.26349
2.19958
2.131
2.05728
1.97789
1.89218
1.79936
1.69845
1.58822
1.46716
1.3335
1.18569
1.02514
0.870151
0.80025
0.895274
1.06734
1.24587
1.41566
1.57622
1.72995
1.87907
2.02543
2.16979
2.31142
2.44812
2.57683
2.69474
2.79999
2.89163
2.9691
3.03195
3.0798
3.11222
3.12857
3.12778
3.10729
3.06499
3.00576
2.93327
2.8506
2.76199
2.67235
2.5861
2.51022
2.45611
2.43438
2.44953
2.50091
2.58552
2.69707
2.82739
2.96826
3.11269
3.2556
3.39358
3.52439
3.64657
3.75912
3.86134
3.95277
4.03313
4.10225
4.16011
4.20679
4.24382
4.27435
4.29456
4.30453
4.30458
4.29544
4.27787
4.25163
4.21697
4.17394
4.1227
4.06336
3.996
3.92072
3.83756
3.74658
3.64777
3.54113
3.42665
3.30432
3.17407
3.0357
2.89912
2.75494
2.60199
2.44012
2.26998
2.09347
1.91526
1.74411
1.59464
1.48565
1.42982
1.42654
1.46827
1.52954
1.6012
1.68293
1.80691
0.161026
0.427648
0.60213
0.736109
0.850247
0.951242
1.04274
1.12697
1.20539
1.27904
1.34866
1.41484
1.47801
1.53853
1.59665
1.65262
1.70661
1.75879
1.80925
1.85812
1.90548
1.9514
1.99594
2.03914
2.08104
2.12167
2.16106
2.19922
2.23617
2.2719
2.30643
2.33976
2.37188
2.40278
2.43245
2.46089
2.48809
2.51402
2.53867
2.56202
2.58406
2.60476
2.62411
2.64209
2.65867
2.67385
2.6876
2.69989
2.71071
2.72003
2.72784
2.73411
2.73882
2.74196
2.7435
2.74342
2.74175
2.73846
2.73355
2.727
2.71879
2.7089
2.69732
2.68403
2.66901
2.65225
2.63373
2.61342
2.5913
2.56734
2.54154
2.51385
2.48424
2.45269
2.41914
2.38357
2.34593
2.30616
2.26419
2.21997
2.1734
2.12441
2.07287
2.01867
1.96165
1.90164
1.83842
1.77174
1.70129
1.62667
1.54738
1.46278
1.37203
1.27394
1.16683
1.04809
0.913277
0.754316
0.550017
0.242857
0.274396
0.511382
0.681596
0.816693
0.932372
1.03516
1.12854
1.21477
1.29536
1.3714
1.44367
1.51281
1.57929
1.6435
1.70576
1.76632
1.82542
1.88322
1.93989
1.99556
2.05036
2.10437
2.15771
2.21043
2.26261
2.31431
2.36559
2.41649
2.46705
2.51732
2.56731
2.61707
2.66662
2.71597
2.76516
2.81419
2.86307
2.91183
2.96046
3.00897
3.05738
3.10567
3.15385
3.20192
3.24987
3.2977
3.3454
3.39294
3.44035
3.4876
3.53466
3.58151
3.62816
3.67457
3.72073
3.76661
3.81219
3.85745
3.90234
3.94687
3.99098
4.03465
4.07787
4.12059
4.16278
4.20441
4.24546
4.28588
4.32564
4.36472
4.40308
4.4407
4.47752
4.51353
4.54869
4.58297
4.61634
4.64876
4.6802
4.71064
4.74002
4.76836
4.7956
4.82171
4.84666
4.87046
4.89304
4.9144
4.93451
4.95335
4.9709
4.98714
5.00204
5.01559
5.02778
5.03858
5.04799
5.05596
5.06253
5.06763
5.07128
5.07347
5.07417
5.0734
5.07119
5.0675
5.06236
5.05571
5.04759
5.03798
5.02686
5.01423
5.00008
4.98439
4.96717
4.94838
4.92802
4.90607
4.88254
4.85736
4.83058
4.80211
4.77198
4.74014
4.70658
4.67125
4.63414
4.59519
4.55438
4.51168
4.46701
4.42034
4.37162
4.32077
4.26773
4.21242
4.15476
4.09467
4.03201
3.96669
3.89859
3.82754
3.7534
3.67598
3.59508
3.51043
3.42182
3.3289
3.23133
3.12872
3.02059
2.9064
2.78555
2.65731
2.52089
2.37541
2.22018
2.05813
1.88817
1.71499
1.55692
1.45745
1.47198
1.59902
1.78406
1.98633
2.18884
2.3862
2.57728
2.76435
2.94698
3.12497
3.29909
3.47002
3.63848
3.80502
3.97023
4.13464
4.29873
4.463
4.6279
4.79391
4.9615
5.13111
5.30326
5.47842
5.65713
5.83988
6.02734
6.21986
6.41856
6.62312
6.8362
7.05469
7.28674
7.51899
7.77823
8.01495
8.31527
8.50364
)
;
    }
    frontAndBack
    {
        type            empty;
    }
}


// ************************************************************************* //
