/*--------------------------------*- C++ -*----------------------------------*\
  =========                 |
  \\      /  F ield         | OpenFOAM: The Open Source CFD Toolbox
   \\    /   O peration     | Website:  https://openfoam.org
    \\  /    A nd           | Version:  7
     \\/     M anipulation  |
\*---------------------------------------------------------------------------*/
FoamFile
{
    version     2.0;
    format      ascii;
    class       volVectorField;
    location    "0.45";
    object      ddtCorrDdt0(U);
}
// * * * * * * * * * * * * * * * * * * * * * * * * * * * * * * * * * * * * * //

dimensions      [0 1 -2 0 0 0 0];

internalField   nonuniform List<vector> 
70000
(
(-0.000807277 4.67757e-05 0)
(-0.00389979 4.83114e-05 0)
(-0.00570536 4.10198e-05 0)
(-0.00529268 4.235e-05 0)
(-0.00364218 3.79661e-05 0)
(-0.00152075 3.40095e-05 0)
(0.000476681 3.30885e-05 0)
(0.00191118 3.4674e-05 0)
(0.00265448 3.83328e-05 0)
(0.00279713 4.32679e-05 0)
(0.0025536 4.82992e-05 0)
(0.00218693 5.24378e-05 0)
(0.00195226 5.50607e-05 0)
(0.0020481 5.64332e-05 0)
(0.00259785 5.68825e-05 0)
(0.00366323 5.67963e-05 0)
(0.00526819 5.70528e-05 0)
(0.00739649 5.7159e-05 0)
(0.010038 5.85614e-05 0)
(0.0131862 6.04255e-05 0)
(0.0168357 6.34891e-05 0)
(0.0210186 6.79488e-05 0)
(0.0257454 7.36135e-05 0)
(0.0310671 8.09782e-05 0)
(0.0370449 9.05947e-05 0)
(0.0437069 0.000103488 0)
(0.0510899 0.000120569 0)
(0.0592155 0.000143506 0)
(0.0680417 0.000174681 0)
(0.0775259 0.000216138 0)
(0.0874829 0.000273715 0)
(0.0977049 0.000349906 0)
(0.107617 0.000455594 0)
(0.116766 0.000596088 0)
(0.123794 0.000786543 0)
(0.127706 0.00105392 0)
(0.125737 0.00138573 0)
(0.115151 0.00191307 0)
(0.091863 0.0024631 0)
(0.0471956 0.00374708 0)
(-0.0224357 0.00465631 0)
(-0.139377 0.0065234 0)
(-0.312502 0.00892919 0)
(-0.566616 0.0114073 0)
(-0.982368 0.0179139 0)
(-1.48928 0.0215317 0)
(-2.44095 0.0331913 0)
(-3.531 0.047269 0)
(-5.59551 0.0319709 0)
(-6.90636 0.371525 0)
(-0.000788996 0.000215094 0)
(-0.00599109 0.000230595 0)
(-0.00830759 1.20633e-05 0)
(-0.00375142 -0.000197405 0)
(0.00527606 -0.000304641 0)
(0.0159607 -0.000320544 0)
(0.0262834 -0.000271985 0)
(0.0348419 -0.000190129 0)
(0.041182 -0.000107255 0)
(0.045607 -4.48812e-05 0)
(0.0488464 -1.47979e-05 0)
(0.0517625 -2.02328e-05 0)
(0.0551563 -5.73177e-05 0)
(0.0596393 -0.000117362 0)
(0.0655876 -0.00019172 0)
(0.0731902 -0.00027449 0)
(0.0825222 -0.00035932 0)
(0.0935716 -0.000445993 0)
(0.10633 -0.000533689 0)
(0.120825 -0.000624594 0)
(0.137099 -0.000721281 0)
(0.155296 -0.000825086 0)
(0.17555 -0.000939169 0)
(0.198093 -0.00106791 0)
(0.223223 -0.00121033 0)
(0.251214 -0.00136671 0)
(0.28239 -0.00153691 0)
(0.317109 -0.00171767 0)
(0.355654 -0.00190303 0)
(0.398395 -0.00208781 0)
(0.445487 -0.00225237 0)
(0.497229 -0.00237663 0)
(0.553154 -0.00242305 0)
(0.613532 -0.00234661 0)
(0.676413 -0.00208517 0)
(0.74181 -0.00148269 0)
(0.804919 -0.00051523 0)
(0.863304 0.00132914 0)
(0.910133 0.00376337 0)
(0.930475 0.00852832 0)
(0.923061 0.0140994 0)
(0.838513 0.0243783 0)
(0.677343 0.0379667 0)
(0.377156 0.0585892 0)
(-0.223023 0.0916694 0)
(-0.909534 0.136267 0)
(-2.59251 0.207829 0)
(-4.29115 0.33235 0)
(-8.19471 0.373695 0)
(-11.7627 1.04426 0)
(-0.000361441 0.000425235 0)
(-0.00607697 0.000489098 0)
(-0.00972259 -8.61326e-05 0)
(-0.00386447 -0.000781728 0)
(0.0104593 -0.00119541 0)
(0.0290479 -0.00129614 0)
(0.0481797 -0.00117188 0)
(0.0651212 -0.00092539 0)
(0.0786151 -0.000664578 0)
(0.0887664 -0.000466365 0)
(0.0965607 -0.000371048 0)
(0.10334 -0.000387206 0)
(0.110422 -0.000501793 0)
(0.118864 -0.000687983 0)
(0.129363 -0.000919101 0)
(0.142307 -0.00117612 0)
(0.157875 -0.00144241 0)
(0.176113 -0.00171667 0)
(0.19703 -0.00199711 0)
(0.220686 -0.00229149 0)
(0.247164 -0.0026074 0)
(0.276674 -0.00295179 0)
(0.30945 -0.00333487 0)
(0.345855 -0.00377048 0)
(0.386348 -0.00426172 0)
(0.43142 -0.00481534 0)
(0.481631 -0.00543671 0)
(0.537639 -0.00612763 0)
(0.600062 -0.00688487 0)
(0.669692 -0.00770698 0)
(0.747092 -0.00857045 0)
(0.833219 -0.00944138 0)
(0.927981 -0.0102706 0)
(1.03273 -0.0109647 0)
(1.1456 -0.0114365 0)
(1.26835 -0.0113654 0)
(1.39572 -0.0106997 0)
(1.52708 -0.00849398 0)
(1.65604 -0.00502067 0)
(1.76495 0.00228208 0)
(1.8604 0.0122612 0)
(1.87492 0.0311301 0)
(1.82771 0.0566761 0)
(1.63574 0.100829 0)
(1.09526 0.163169 0)
(0.539236 0.265478 0)
(-1.27774 0.41452 0)
(-2.96087 0.680019 0)
(-7.30009 0.917802 0)
(-11.8827 1.95136 0)
(-5.86642e-06 0.000608819 0)
(-0.00524519 0.000813316 0)
(-0.0108384 -8.61531e-05 0)
(-0.0078025 -0.00141229 0)
(0.00627904 -0.00237512 0)
(0.0282792 -0.00275429 0)
(0.0535928 -0.00264141 0)
(0.0780419 -0.0022195 0)
(0.0990269 -0.0017055 0)
(0.115761 -0.00127425 0)
(0.128869 -0.0010283 0)
(0.139744 -0.00100029 0)
(0.149996 -0.00117339 0)
(0.161067 -0.00149946 0)
(0.174029 -0.0019262 0)
(0.189575 -0.00241358 0)
(0.2081 -0.00292848 0)
(0.229813 -0.00346389 0)
(0.254816 -0.00401566 0)
(0.283235 -0.00459603 0)
(0.3152 -0.005219 0)
(0.350957 -0.00589872 0)
(0.390795 -0.00665478 0)
(0.435124 -0.00751299 0)
(0.48447 -0.00848422 0)
(0.539428 -0.00958522 0)
(0.60067 -0.0108312 0)
(0.669013 -0.0122337 0)
(0.745262 -0.0137992 0)
(0.830473 -0.015534 0)
(0.925443 -0.0174233 0)
(1.03161 -0.0194233 0)
(1.14913 -0.0214971 0)
(1.28021 -0.0234941 0)
(1.42308 -0.0253397 0)
(1.5809 -0.0265359 0)
(1.74862 -0.0270141 0)
(1.92665 -0.0254581 0)
(2.11097 -0.0219126 0)
(2.2807 -0.0131029 0)
(2.45267 0.000408187 0)
(2.54545 0.0268186 0)
(2.59698 0.0629405 0)
(2.5131 0.132023 0)
(2.07617 0.221493 0)
(1.66833 0.386993 0)
(-0.0438558 0.618722 0)
(-1.59417 1.03006 0)
(-5.81216 1.50448 0)
(-10.7394 2.92117 0)
(8.51947e-05 0.000750191 0)
(-0.00416022 0.00117609 0)
(-0.0110232 0.000103106 0)
(-0.0126885 -0.00182676 0)
(-0.00381325 -0.00350157 0)
(0.015529 -0.0044056 0)
(0.0418772 -0.0045149 0)
(0.0705973 -0.0040359 0)
(0.0978154 -0.00328691 0)
(0.121352 -0.00256616 0)
(0.140747 -0.00207563 0)
(0.156755 -0.00190459 0)
(0.170771 -0.00205381 0)
(0.184321 -0.00246463 0)
(0.198745 -0.00306107 0)
(0.215065 -0.00377869 0)
(0.233996 -0.0045632 0)
(0.256033 -0.00539646 0)
(0.281498 -0.00626768 0)
(0.310683 -0.00719005 0)
(0.343836 -0.00818214 0)
(0.381272 -0.00926404 0)
(0.423332 -0.0104646 0)
(0.470447 -0.0118215 0)
(0.523142 -0.013355 0)
(0.582033 -0.0150934 0)
(0.647796 -0.0170646 0)
(0.72128 -0.019292 0)
(0.803322 -0.0217973 0)
(0.895077 -0.0245964 0)
(0.997374 -0.0276944 0)
(1.11192 -0.0310352 0)
(1.23888 -0.0346135 0)
(1.38097 -0.0382164 0)
(1.53644 -0.0418059 0)
(1.70907 -0.0447187 0)
(1.89448 -0.0468447 0)
(2.0926 -0.0466274 0)
(2.30305 -0.0436681 0)
(2.5 -0.0343497 0)
(2.71114 -0.018411 0)
(2.84283 0.0149951 0)
(2.9497 0.0600191 0)
(2.926 0.153165 0)
(2.57056 0.26909 0)
(2.23823 0.495654 0)
(0.67371 0.811111 0)
(-0.771308 1.37035 0)
(-4.71215 2.08037 0)
(-9.96364 3.87027 0)
(-2.55835e-05 0.000865684 0)
(-0.00336097 0.00153279 0)
(-0.0103409 0.000472223 0)
(-0.0159324 -0.0018742 0)
(-0.0139794 -0.00425282 0)
(-0.00160488 -0.0058581 0)
(0.0203223 -0.00645254 0)
(0.0483622 -0.00616326 0)
(0.078422 -0.00534345 0)
(0.107227 -0.00439391 0)
(0.132945 -0.00363011 0)
(0.15512 -0.00322864 0)
(0.174293 -0.00324058 0)
(0.191551 -0.00362337 0)
(0.208142 -0.00429456 0)
(0.225233 -0.00517323 0)
(0.243809 -0.00618613 0)
(0.264696 -0.0073021 0)
(0.28854 -0.00849981 0)
(0.315917 -0.00978891 0)
(0.347308 -0.0111879 0)
(0.383196 -0.0127192 0)
(0.424042 -0.0144176 0)
(0.470339 -0.0163294 0)
(0.522623 -0.0184832 0)
(0.581506 -0.0209181 0)
(0.647624 -0.0236743 0)
(0.721784 -0.0267877 0)
(0.804755 -0.0302976 0)
(0.897675 -0.0342289 0)
(1.00127 -0.0386137 0)
(1.11732 -0.0433823 0)
(1.24587 -0.0485698 0)
(1.3898 -0.0539027 0)
(1.5474 -0.0593782 0)
(1.72229 -0.0642079 0)
(1.9112 -0.0681643 0)
(2.1122 -0.0696256 0)
(2.32936 -0.0674799 0)
(2.5307 -0.0582402 0)
(2.75409 -0.0401002 0)
(2.89549 -0.000724739 0)
(3.02322 0.053153 0)
(3.01966 0.169022 0)
(2.71295 0.31183 0)
(2.40539 0.596586 0)
(0.959029 0.994476 0)
(-0.435746 1.69636 0)
(-3.99263 2.66207 0)
(-9.64811 4.76231 0)
(-0.000190147 0.00097065 0)
(-0.00303231 0.00186115 0)
(-0.00948589 0.000942348 0)
(-0.017074 -0.00158523 0)
(-0.0207358 -0.0045032 0)
(-0.0161609 -0.00682449 0)
(-0.00175377 -0.0080867 0)
(0.0212021 -0.008257 0)
(0.0496879 -0.00763281 0)
(0.0803468 -0.006651 0)
(0.110462 -0.00571109 0)
(0.138355 -0.00508018 0)
(0.163378 -0.00488239 0)
(0.185695 -0.00512154 0)
(0.205985 -0.00573669 0)
(0.225174 -0.00665172 0)
(0.244262 -0.00778836 0)
(0.264265 -0.00910932 0)
(0.286118 -0.010585 0)
(0.310717 -0.0122198 0)
(0.338863 -0.0140287 0)
(0.371311 -0.0160316 0)
(0.408751 -0.0182643 0)
(0.451831 -0.020776 0)
(0.501179 -0.0235999 0)
(0.557448 -0.0267819 0)
(0.621259 -0.0303722 0)
(0.693371 -0.0344159 0)
(0.774454 -0.0389708 0)
(0.865571 -0.0440674 0)
(0.967274 -0.0497686 0)
(1.08129 -0.0559892 0)
(1.20751 -0.0628066 0)
(1.34865 -0.0698951 0)
(1.50317 -0.0772638 0)
(1.67392 -0.0840623 0)
(1.85915 -0.0898343 0)
(2.05417 -0.0930817 0)
(2.26763 -0.0917358 0)
(2.46179 -0.0827176 0)
(2.68191 -0.0624946 0)
(2.81883 -0.0176154 0)
(2.946 0.045548 0)
(2.94544 0.183915 0)
(2.66016 0.352943 0)
(2.3608 0.69355 0)
(1.02005 1.17475 0)
(-0.388706 2.00233 0)
(-3.47866 3.24919 0)
(-9.32034 5.64149 0)
(-0.000299654 0.00107806 0)
(-0.00305494 0.00216829 0)
(-0.00891869 0.00144394 0)
(-0.0169963 -0.0010884 0)
(-0.023808 -0.0043343 0)
(-0.0251765 -0.00724946 0)
(-0.0182015 -0.00921119 0)
(-0.00223757 -0.0100139 0)
(0.0213673 -0.00983768 0)
(0.0501333 -0.0090808 0)
(0.0813486 -0.00816771 0)
(0.112686 -0.00742417 0)
(0.142515 -0.00704244 0)
(0.169975 -0.00708681 0)
(0.19488 -0.00754159 0)
(0.217544 -0.00836053 0)
(0.238624 -0.00948252 0)
(0.259028 -0.0108809 0)
(0.279773 -0.0125289 0)
(0.30196 -0.0144317 0)
(0.326669 -0.0166026 0)
(0.354957 -0.0190576 0)
(0.387812 -0.0218295 0)
(0.426132 -0.024965 0)
(0.470733 -0.0284963 0)
(0.522406 -0.0324702 0)
(0.581831 -0.0369416 0)
(0.649778 -0.0419597 0)
(0.726845 -0.0475976 0)
(0.814021 -0.053887 0)
(0.911684 -0.0609198 0)
(1.02141 -0.0685964 0)
(1.14296 -0.0770276 0)
(1.27866 -0.0858549 0)
(1.4273 -0.0950562 0)
(1.59049 -0.103799 0)
(1.76823 -0.111274 0)
(1.95291 -0.116278 0)
(2.15686 -0.115613 0)
(2.33899 -0.10672 0)
(2.54657 -0.0845135 0)
(2.67479 -0.0336135 0)
(2.78812 0.0378016 0)
(2.78744 0.197083 0)
(2.51072 0.394084 0)
(2.21201 0.786307 0)
(0.997194 1.35457 0)
(-0.452846 2.28832 0)
(-3.08737 3.81987 0)
(-8.68841 6.52544 0)
(-0.000338585 0.00119648 0)
(-0.00319469 0.00247272 0)
(-0.00877175 0.00194313 0)
(-0.0166375 -0.000503531 0)
(-0.0245881 -0.00391263 0)
(-0.0292521 -0.00725815 0)
(-0.0275715 -0.00983664 0)
(-0.0178839 -0.0113096 0)
(-0.000129387 -0.0117298 0)
(0.0244217 -0.0114118 0)
(0.0537312 -0.0107491 0)
(0.0855407 -0.0100785 0)
(0.117797 -0.00963099 0)
(0.148928 -0.00952184 0)
(0.177951 -0.00978648 0)
(0.20444 -0.0104239 0)
(0.228467 -0.0114097 0)
(0.250541 -0.0127468 0)
(0.271479 -0.0144293 0)
(0.292348 -0.0164757 0)
(0.314337 -0.018907 0)
(0.338708 -0.0217408 0)
(0.366706 -0.0250078 0)
(0.399501 -0.02875 0)
(0.438159 -0.0329947 0)
(0.483686 -0.0377835 0)
(0.536911 -0.0431705 0)
(0.598699 -0.0492009 0)
(0.669655 -0.0559579 0)
(0.750727 -0.0634675 0)
(0.842181 -0.0718448 0)
(0.945388 -0.080977 0)
(1.06006 -0.0909918 0)
(1.18795 -0.101523 0)
(1.32829 -0.112465 0)
(1.48131 -0.12308 0)
(1.64849 -0.132113 0)
(1.82009 -0.13874 0)
(2.01002 -0.138633 0)
(2.17787 -0.129621 0)
(2.36628 -0.105409 0)
(2.48448 -0.0484344 0)
(2.57675 0.0310745 0)
(2.57455 0.209632 0)
(2.30718 0.436439 0)
(2.00178 0.8738 0)
(0.938503 1.53177 0)
(-0.520984 2.55946 0)
(-2.78804 4.33383 0)
(-7.77016 7.36237 0)
(-0.000338375 0.00132492 0)
(-0.00331413 0.00278754 0)
(-0.00885546 0.00244266 0)
(-0.0164692 0.000104901 0)
(-0.0245279 -0.00338186 0)
(-0.0304338 -0.00703036 0)
(-0.0315693 -0.01011 0)
(-0.0260579 -0.0121995 0)
(-0.0131256 -0.0132495 0)
(0.00689739 -0.0134849 0)
(0.0328097 -0.0132379 0)
(0.0628567 -0.0128178 0)
(0.0950926 -0.0124586 0)
(0.127709 -0.0123021 0)
(0.159254 -0.012423 0)
(0.18872 -0.012865 0)
(0.215591 -0.0136482 0)
(0.239853 -0.0148177 0)
(0.261917 -0.0164037 0)
(0.282589 -0.0184538 0)
(0.30294 -0.0210103 0)
(0.324245 -0.0241032 0)
(0.34787 -0.0277687 0)
(0.375172 -0.0320473 0)
(0.407438 -0.036962 0)
(0.445904 -0.0425463 0)
(0.491595 -0.0488491 0)
(0.545538 -0.0559047 0)
(0.608424 -0.0637986 0)
(0.68122 -0.0725448 0)
(0.764169 -0.0822699 0)
(0.858431 -0.0928508 0)
(0.963749 -0.104408 0)
(1.08127 -0.116593 0)
(1.21061 -0.12917 0)
(1.35082 -0.141544 0)
(1.5042 -0.151987 0)
(1.66027 -0.160012 0)
(1.83194 -0.160382 0)
(1.9834 -0.150873 0)
(2.14789 -0.124744 0)
(2.25373 -0.061711 0)
(2.32227 0.0265412 0)
(2.3152 0.223195 0)
(2.06327 0.477474 0)
(1.74633 0.954938 0)
(0.84634 1.70187 0)
(-0.545699 2.81978 0)
(-2.55126 4.77224 0)
(-6.29862 8.15148 0)
(-0.000328674 0.0014604 0)
(-0.00338434 0.00311817 0)
(-0.008995 0.00295281 0)
(-0.0164988 0.000720033 0)
(-0.0243844 -0.00281912 0)
(-0.0304902 -0.00670603 0)
(-0.0326491 -0.0101986 0)
(-0.0292256 -0.0128276 0)
(-0.0193056 -0.0144732 0)
(-0.00273235 -0.015286 0)
(0.0198824 -0.0155345 0)
(0.0473357 -0.0154823 0)
(0.0780451 -0.0153415 0)
(0.110325 -0.0152555 0)
(0.142614 -0.015319 0)
(0.173616 -0.015608 0)
(0.202413 -0.0161824 0)
(0.228534 -0.0171313 0)
(0.251952 -0.0185287 0)
(0.273092 -0.0204617 0)
(0.292744 -0.0230066 0)
(0.312011 -0.0262185 0)
(0.332202 -0.0301498 0)
(0.354712 -0.034848 0)
(0.380938 -0.0403372 0)
(0.412279 -0.0466448 0)
(0.449934 -0.0538132 0)
(0.495097 -0.0618621 0)
(0.548594 -0.0708728 0)
(0.611448 -0.0808414 0)
(0.683965 -0.0918923 0)
(0.767126 -0.103894 0)
(0.860766 -0.116935 0)
(0.965485 -0.1307 0)
(1.08116 -0.144795 0)
(1.20611 -0.158771 0)
(1.34257 -0.170477 0)
(1.48074 -0.179615 0)
(1.63067 -0.18036 0)
(1.76322 -0.169998 0)
(1.90076 -0.141992 0)
(1.99123 -0.0727648 0)
(2.03538 0.0238855 0)
(2.01852 0.236529 0)
(1.79036 0.524064 0)
(1.46226 1.0297 0)
(0.711537 1.85584 0)
(-0.510616 3.06887 0)
(-2.30832 5.15137 0)
(-5.28753 8.79691 0)
(-0.000322109 0.00160136 0)
(-0.00342483 0.00346509 0)
(-0.00911545 0.00348053 0)
(-0.0166126 0.00134526 0)
(-0.0243504 -0.00224964 0)
(-0.0303217 -0.00635762 0)
(-0.0326367 -0.0102221 0)
(-0.0299312 -0.0133357 0)
(-0.0214072 -0.0155276 0)
(-0.00683792 -0.0168954 0)
(0.0134543 -0.0176535 0)
(0.038626 -0.0180197 0)
(0.0674487 -0.0181745 0)
(0.0984891 -0.0182476 0)
(0.130303 -0.0183369 0)
(0.161554 -0.0185361 0)
(0.191154 -0.0189336 0)
(0.218353 -0.0196558 0)
(0.242787 -0.0208188 0)
(0.264522 -0.0225529 0)
(0.284019 -0.024975 0)
(0.302107 -0.0281752 0)
(0.319905 -0.0322323 0)
(0.3387 -0.0372101 0)
(0.359864 -0.0431424 0)
(0.384842 -0.050056 0)
(0.414922 -0.0579902 0)
(0.451411 -0.0669502 0)
(0.495258 -0.0770081 0)
(0.547543 -0.0881406 0)
(0.60868 -0.100456 0)
(0.679515 -0.113815 0)
(0.759993 -0.128253 0)
(0.850333 -0.143491 0)
(0.95046 -0.158974 0)
(1.05845 -0.174352 0)
(1.17583 -0.187159 0)
(1.29435 -0.1971 0)
(1.42046 -0.198072 0)
(1.53212 -0.186542 0)
(1.64124 -0.156581 0)
(1.71389 -0.0813705 0)
(1.73519 0.0237389 0)
(1.70355 0.249695 0)
(1.50522 0.570151 0)
(1.17708 1.09934 0)
(0.537936 1.98788 0)
(-0.43385 3.29891 0)
(-2.00202 5.47486 0)
(-4.36195 9.24262 0)
(-0.000319541 0.00174759 0)
(-0.00345636 0.00382746 0)
(-0.00921059 0.00402822 0)
(-0.0167346 0.00198614 0)
(-0.0243907 -0.00167485 0)
(-0.0301997 -0.00600962 0)
(-0.0323895 -0.0102382 0)
(-0.0297634 -0.0138141 0)
(-0.0216814 -0.0165219 0)
(-0.00798248 -0.0184161 0)
(0.011053 -0.0196694 0)
(0.0347411 -0.0204608 0)
(0.062061 -0.0209401 0)
(0.0917984 -0.0212188 0)
(0.122673 -0.0213894 0)
(0.153442 -0.0215521 0)
(0.183011 -0.0218135 0)
(0.210526 -0.0223271 0)
(0.235434 -0.023245 0)
(0.257552 -0.0247372 0)
(0.277062 -0.0269623 0)
(0.294523 -0.0300494 0)
(0.310811 -0.03411 0)
(0.327021 -0.0392319 0)
(0.344399 -0.0454668 0)
(0.364317 -0.0528477 0)
(0.388057 -0.0614154 0)
(0.416946 -0.0711651 0)
(0.452004 -0.0821577 0)
(0.494327 -0.0943514 0)
(0.544431 -0.107828 0)
(0.603061 -0.122441 0)
(0.670245 -0.138159 0)
(0.745997 -0.154727 0)
(0.830117 -0.171445 0)
(0.920801 -0.188002 0)
(1.01859 -0.201724 0)
(1.11705 -0.212153 0)
(1.21909 -0.213183 0)
(1.30949 -0.200173 0)
(1.3907 -0.168136 0)
(1.44415 -0.0875507 0)
(1.44702 0.0269789 0)
(1.39622 0.262729 0)
(1.22785 0.608569 0)
(0.923605 1.16596 0)
(0.359962 2.09732 0)
(-0.349637 3.49654 0)
(-1.61421 5.75334 0)
(-3.41207 9.57722 0)
(-0.000318649 0.00189937 0)
(-0.0034876 0.00420502 0)
(-0.0092931 0.00459611 0)
(-0.0168439 0.00264548 0)
(-0.02445 -0.00109121 0)
(-0.0301329 -0.00566499 0)
(-0.0321627 -0.0102662 0)
(-0.029418 -0.0143048 0)
(-0.0213592 -0.0175199 0)
(-0.00790998 -0.0199257 0)
(0.0106121 -0.0216593 0)
(0.0335461 -0.0228675 0)
(0.0599548 -0.0236737 0)
(0.0887383 -0.0241726 0)
(0.118748 -0.0244496 0)
(0.148843 -0.0246069 0)
(0.177994 -0.024762 0)
(0.205344 -0.025088 0)
(0.23028 -0.0257659 0)
(0.252487 -0.0269996 0)
(0.271967 -0.0289864 0)
(0.289081 -0.0318932 0)
(0.304476 -0.0358666 0)
(0.319052 -0.0410222 0)
(0.333884 -0.0474346 0)
(0.350208 -0.0551488 0)
(0.369221 -0.0642121 0)
(0.392184 -0.0746147 0)
(0.420125 -0.0864069 0)
(0.454096 -0.0995307 0)
(0.494673 -0.114036 0)
(0.542519 -0.129767 0)
(0.597692 -0.146622 0)
(0.660128 -0.164351 0)
(0.729415 -0.182134 0)
(0.804053 -0.199635 0)
(0.883575 -0.214074 0)
(0.963362 -0.224683 0)
(1.0431 -0.225591 0)
(1.11371 -0.210855 0)
(1.17014 -0.176561 0)
(1.20442 -0.0912184 0)
(1.19427 0.0329153 0)
(1.12705 0.275934 0)
(0.980671 0.645338 0)
(0.721175 1.22967 0)
(0.229087 2.18596 0)
(-0.276841 3.65373 0)
(-1.16611 5.97846 0)
(-2.3776 9.80396 0)
(-0.000317954 0.00205696 0)
(-0.00351943 0.00459826 0)
(-0.00937124 0.00518416 0)
(-0.016943 0.00332405 0)
(-0.0245053 -0.000496526 0)
(-0.0300844 -0.00532193 0)
(-0.0319744 -0.0103088 0)
(-0.0290853 -0.0148212 0)
(-0.0209272 -0.0185492 0)
(-0.00747784 -0.0214665 0)
(0.0109033 -0.0236756 0)
(0.0335366 -0.025294 0)
(0.059498 -0.0264223 0)
(0.0877298 -0.0271413 0)
(0.117145 -0.0275302 0)
(0.146676 -0.0276927 0)
(0.175354 -0.0277554 0)
(0.202361 -0.0279063 0)
(0.227084 -0.0283507 0)
(0.249161 -0.0293214 0)
(0.268524 -0.0310491 0)
(0.285369 -0.0337376 0)
(0.300247 -0.0375654 0)
(0.31387 -0.0426772 0)
(0.32716 -0.0491722 0)
(0.341195 -0.0571103 0)
(0.35706 -0.0665493 0)
(0.375908 -0.077478 0)
(0.398715 -0.0899371 0)
(0.426445 -0.103856 0)
(0.459685 -0.119251 0)
(0.499017 -0.135952 0)
(0.544485 -0.153793 0)
(0.596009 -0.172507 0)
(0.652947 -0.191181 0)
(0.714158 -0.209397 0)
(0.778277 -0.224361 0)
(0.842353 -0.23487 0)
(0.903399 -0.235472 0)
(0.957217 -0.218891 0)
(0.994159 -0.182014 0)
(1.01176 -0.0928154 0)
(0.992828 0.0409259 0)
(0.918831 0.290222 0)
(0.784976 0.67738 0)
(0.579185 1.28662 0)
(0.178763 2.25928 0)
(-0.198727 3.77008 0)
(-0.681022 6.13608 0)
(-1.33184 9.93638 0)
(-0.000317102 0.00222053 0)
(-0.00355089 0.00500796 0)
(-0.00944716 0.00579266 0)
(-0.0170368 0.00402206 0)
(-0.0245542 0.000109912 0)
(-0.0300356 -0.00497935 0)
(-0.0317999 -0.0103657 0)
(-0.0287776 -0.0153657 0)
(-0.0205046 -0.0196187 0)
(-0.0069874 -0.0230557 0)
(0.0113898 -0.0257443 0)
(0.0339296 -0.0277732 0)
(0.0597007 -0.0292215 0)
(0.0876533 -0.0301573 0)
(0.116721 -0.0306557 0)
(0.145869 -0.0308232 0)
(0.174167 -0.0307949 0)
(0.200831 -0.0307735 0)
(0.225268 -0.0309855 0)
(0.247122 -0.0316904 0)
(0.26628 -0.0331494 0)
(0.282926 -0.0355979 0)
(0.297468 -0.0392472 0)
(0.310553 -0.044268 0)
(0.32297 -0.0507835 0)
(0.33569 -0.0588702 0)
(0.349684 -0.0685953 0)
(0.365971 -0.0799504 0)
(0.385471 -0.0929672 0)
(0.409043 -0.107564 0)
(0.437246 -0.123725 0)
(0.470581 -0.141264 0)
(0.509045 -0.159951 0)
(0.552574 -0.179489 0)
(0.600303 -0.198896 0)
(0.651441 -0.217625 0)
(0.703907 -0.232943 0)
(0.756126 -0.243135 0)
(0.803256 -0.24325 0)
(0.844328 -0.224819 0)
(0.867981 -0.185122 0)
(0.873854 -0.0926899 0)
(0.84948 0.0498551 0)
(0.779947 0.304963 0)
(0.655309 0.705012 0)
(0.502957 1.33405 0)
(0.205977 2.31951 0)
(-0.0643797 3.84727 0)
(-0.207687 6.22215 0)
(-0.321355 9.97847 0)
(-0.000316153 0.00239024 0)
(-0.00358133 0.00543473 0)
(-0.00952049 0.0064222 0)
(-0.0171269 0.00473984 0)
(-0.0245985 0.000728327 0)
(-0.0299827 -0.00463722 0)
(-0.0316262 -0.0104367 0)
(-0.0284788 -0.0159386 0)
(-0.0200965 -0.0207305 0)
(-0.00650336 -0.024699 0)
(0.0119039 -0.0278759 0)
(0.0344193 -0.0303206 0)
(0.0601064 -0.0320907 0)
(0.0879142 -0.0332422 0)
(0.116781 -0.033847 0)
(0.145682 -0.0340149 0)
(0.173704 -0.0338913 0)
(0.200085 -0.0336931 0)
(0.224249 -0.0336687 0)
(0.245854 -0.0341028 0)
(0.264791 -0.0352858 0)
(0.281215 -0.0374839 0)
(0.295522 -0.0409369 0)
(0.308283 -0.0458415 0)
(0.32024 -0.0523421 0)
(0.332259 -0.0605329 0)
(0.345247 -0.0704885 0)
(0.360127 -0.0822044 0)
(0.377746 -0.0957027 0)
(0.398863 -0.110894 0)
(0.423999 -0.127727 0)
(0.453571 -0.145999 0)
(0.487545 -0.165424 0)
(0.525827 -0.185656 0)
(0.567445 -0.205673 0)
(0.611875 -0.224761 0)
(0.656558 -0.240299 0)
(0.700886 -0.250039 0)
(0.739081 -0.249507 0)
(0.771903 -0.229333 0)
(0.78815 -0.186709 0)
(0.78846 -0.091462 0)
(0.762688 0.0585739 0)
(0.704966 0.319129 0)
(0.595905 0.728311 0)
(0.489414 1.37079 0)
(0.297815 2.36475 0)
(0.151066 3.89138 0)
(0.233096 6.2424 0)
(0.668465 9.91717 0)
(-0.000315205 0.00256626 0)
(-0.00361058 0.00587905 0)
(-0.00959069 0.00707346 0)
(-0.0172132 0.00547787 0)
(-0.0246394 0.00135898 0)
(-0.0299267 -0.0042958 0)
(-0.0314506 -0.0105224 0)
(-0.0281812 -0.0165407 0)
(-0.0196934 -0.0218857 0)
(-0.00602681 -0.0263985 0)
(0.0124141 -0.0300742 0)
(0.0349206 -0.0329426 0)
(0.0605555 -0.0350389 0)
(0.0882681 -0.0364072 0)
(0.116997 -0.0371162 0)
(0.145722 -0.0372797 0)
(0.173534 -0.0370543 0)
(0.199682 -0.0366719 0)
(0.223604 -0.0364035 0)
(0.244967 -0.0365595 0)
(0.263678 -0.0374593 0)
(0.279887 -0.0393992 0)
(0.293987 -0.0426467 0)
(0.306526 -0.0474228 0)
(0.318217 -0.0538931 0)
(0.329879 -0.0621659 0)
(0.34237 -0.0723244 0)
(0.356544 -0.084367 0)
(0.373208 -0.0983051 0)
(0.393043 -0.11404 0)
(0.416534 -0.131489 0)
(0.444038 -0.150426 0)
(0.475471 -0.170517 0)
(0.510782 -0.191357 0)
(0.548865 -0.211902 0)
(0.589416 -0.231255 0)
(0.629663 -0.246922 0)
(0.669552 -0.256163 0)
(0.703184 -0.254886 0)
(0.731966 -0.233125 0)
(0.745852 -0.187665 0)
(0.746249 -0.089987 0)
(0.724011 0.0662679 0)
(0.682262 0.331563 0)
(0.59926 0.746509 0)
(0.534405 1.39588 0)
(0.443696 2.39088 0)
(0.435985 3.9076 0)
(0.687738 6.19854 0)
(1.57577 9.75662 0)
(-0.000314294 0.00274877 0)
(-0.00363859 0.00634137 0)
(-0.00965745 0.00774714 0)
(-0.0172953 0.00623662 0)
(-0.0246768 0.0020022 0)
(-0.0298682 -0.00395541 0)
(-0.0312741 -0.0106235 0)
(-0.0278842 -0.017173 0)
(-0.0192924 -0.0230858 0)
(-0.00555375 -0.028156 0)
(0.0129199 -0.0323416 0)
(0.0354188 -0.035642 0)
(0.0610075 -0.0380703 0)
(0.0886374 -0.0396576 0)
(0.117248 -0.0404696 0)
(0.145823 -0.0406245 0)
(0.173454 -0.0402901 0)
(0.199395 -0.039715 0)
(0.223093 -0.0391933 0)
(0.244226 -0.0390623 0)
(0.262709 -0.0396708 0)
(0.278704 -0.0413457 0)
(0.292604 -0.0443819 0)
(0.304957 -0.0490245 0)
(0.316464 -0.0554588 0)
(0.327923 -0.0638072 0)
(0.340173 -0.0741593 0)
(0.354023 -0.0865167 0)
(0.370257 -0.100879 0)
(0.389505 -0.117136 0)
(0.412232 -0.135176 0)
(0.438753 -0.154746 0)
(0.468972 -0.17547 0)
(0.502829 -0.196877 0)
(0.539227 -0.217911 0)
(0.577966 -0.23749 0)
(0.616275 -0.253246 0)
(0.654433 -0.262014 0)
(0.68671 -0.259977 0)
(0.715059 -0.236824 0)
(0.73028 -0.188809 0)
(0.735399 -0.0889991 0)
(0.721458 0.0719918 0)
(0.697868 0.340361 0)
(0.645743 0.761485 0)
(0.624776 1.41038 0)
(0.620147 2.39705 0)
(0.756888 3.89394 0)
(1.16107 6.10112 0)
(2.3822 9.50452 0)
(-0.000313447 0.00293792 0)
(-0.00366533 0.00682212 0)
(-0.0097206 0.00844394 0)
(-0.0173727 0.0070166 0)
(-0.0247106 0.0026584 0)
(-0.0298075 -0.00361625 0)
(-0.0310974 -0.0107408 0)
(-0.027589 -0.0178367 0)
(-0.0188944 -0.0243322 0)
(-0.00508441 -0.0299733 0)
(0.0134213 -0.03468 0)
(0.035912 -0.0384213 0)
(0.0614542 -0.0411873 0)
(0.0890026 -0.0429962 0)
(0.117499 -0.0439104 0)
(0.145928 -0.0440523 0)
(0.173385 -0.0436021 0)
(0.199126 -0.0428252 0)
(0.222606 -0.0420402 0)
(0.24351 -0.0416124 0)
(0.261765 -0.041921 0)
(0.277541 -0.043324 0)
(0.291239 -0.0461442 0)
(0.30341 -0.0506512 0)
(0.314758 -0.057049 0)
(0.326073 -0.0654746 0)
(0.338185 -0.0760225 0)
(0.351886 -0.0886966 0)
(0.367945 -0.103483 0)
(0.386965 -0.120264 0)
(0.409406 -0.138892 0)
(0.435555 -0.159091 0)
(0.465332 -0.180444 0)
(0.498669 -0.202411 0)
(0.534532 -0.223931 0)
(0.572773 -0.243745 0)
(0.610791 -0.259602 0)
(0.648997 -0.267979 0)
(0.682185 -0.265242 0)
(0.712477 -0.240976 0)
(0.731951 -0.190707 0)
(0.744636 -0.0893901 0)
(0.742733 0.0752384 0)
(0.74055 0.345313 0)
(0.722674 0.767625 0)
(0.750767 1.41365 0)
(0.824523 2.38373 0)
(1.10124 3.84978 0)
(1.66595 5.95998 0)
(3.12256 9.16186 0)
(-0.00031267 0.0031339 0)
(-0.00369073 0.00732177 0)
(-0.00978 0.00916458 0)
(-0.0174452 0.0078183 0)
(-0.0247406 0.00332801 0)
(-0.0297447 -0.00327849 0)
(-0.030921 -0.0108751 0)
(-0.0272971 -0.0185328 0)
(-0.0185015 -0.0256264 0)
(-0.00462119 -0.0318524 0)
(0.0139157 -0.0370917 0)
(0.0363973 -0.0412826 0)
(0.061892 -0.0443922 0)
(0.0893573 -0.0464253 0)
(0.117737 -0.0474406 0)
(0.146018 -0.0475652 0)
(0.173299 -0.0469919 0)
(0.198839 -0.0460039 0)
(0.222098 -0.0449451 0)
(0.242769 -0.0442101 0)
(0.26079 -0.0442096 0)
(0.27634 -0.0453335 0)
(0.289828 -0.0479334 0)
(0.301813 -0.0523036 0)
(0.313003 -0.0586669 0)
(0.324185 -0.0671749 0)
(0.336193 -0.0779263 0)
(0.349808 -0.0909269 0)
(0.365797 -0.10615 0)
(0.384747 -0.123465 0)
(0.407124 -0.142697 0)
(0.433201 -0.163538 0)
(0.46293 -0.185535 0)
(0.496244 -0.208081 0)
(0.532206 -0.230112 0)
(0.570698 -0.250209 0)
(0.609388 -0.266213 0)
(0.648719 -0.274332 0)
(0.68419 -0.271021 0)
(0.71797 -0.245943 0)
(0.743497 -0.193875 0)
(0.765719 -0.0916947 0)
(0.77842 0.0754584 0)
(0.799043 0.345558 0)
(0.816531 0.763635 0)
(0.897845 1.40451 0)
(1.04716 2.35079 0)
(1.44823 3.77268 0)
(2.18047 5.77461 0)
(3.82043 8.74429 0)
(-0.000311986 0.00333687 0)
(-0.00371475 0.00784074 0)
(-0.00983551 0.00990976 0)
(-0.0175125 0.00864224 0)
(-0.0247665 0.00401146 0)
(-0.0296799 -0.00294215 0)
(-0.0307455 -0.011027 0)
(-0.0270095 -0.0192625 0)
(-0.0181157 -0.02697 0)
(-0.00416698 -0.0337952 0)
(0.0143997 -0.0395787 0)
(0.0368706 -0.0442283 0)
(0.0623162 -0.0476874 0)
(0.0896963 -0.049947 0)
(0.117957 -0.0510621 0)
(0.146087 -0.0511648 0)
(0.173187 -0.0504605 0)
(0.19852 -0.0492515 0)
(0.221552 -0.047908 0)
(0.241984 -0.0468549 0)
(0.259764 -0.0465358 0)
(0.275079 -0.0473732 0)
(0.288348 -0.0497484 0)
(0.300136 -0.0539808 0)
(0.311159 -0.0603127 0)
(0.322206 -0.0689097 0)
(0.334112 -0.0798749 0)
(0.347656 -0.0932157 0)
(0.363605 -0.108892 0)
(0.382543 -0.126762 0)
(0.404943 -0.146617 0)
(0.431077 -0.168125 0)
(0.460935 -0.190795 0)
(0.494458 -0.213957 0)
(0.530836 -0.236542 0)
(0.569962 -0.256994 0)
(0.609834 -0.27322 0)
(0.650892 -0.28125 0)
(0.689411 -0.277542 0)
(0.727573 -0.251997 0)
(0.760257 -0.198685 0)
(0.793174 -0.0962005 0)
(0.821808 0.0717944 0)
(0.866774 0.340105 0)
(0.920397 0.753553 0)
(1.05503 1.38286 0)
(1.28018 2.29789 0)
(1.79137 3.66187 0)
(2.68464 5.54629 0)
(4.48759 8.26399 0)
(-0.000311396 0.00354704 0)
(-0.00373731 0.00837945 0)
(-0.009887 0.0106802 0)
(-0.0175744 0.00948895 0)
(-0.0247884 0.00470906 0)
(-0.0296132 -0.00260714 0)
(-0.0305713 -0.0111973 0)
(-0.0267274 -0.0200268 0)
(-0.017739 -0.0283644 0)
(-0.00372466 -0.0358034 0)
(0.0148694 -0.0421434 0)
(0.0373275 -0.0472606 0)
(0.0627215 -0.051075 0)
(0.0900137 -0.0535634 0)
(0.118152 -0.0547769 0)
(0.146127 -0.0548523 0)
(0.173041 -0.0540089 0)
(0.198162 -0.0525686 0)
(0.22096 -0.0509287 0)
(0.241146 -0.0495463 0)
(0.258676 -0.0488984 0)
(0.273747 -0.0494416 0)
(0.286786 -0.0515875 0)
(0.298368 -0.0556814 0)
(0.309213 -0.061985 0)
(0.320115 -0.0706786 0)
(0.331911 -0.0818693 0)
(0.34538 -0.0955659 0)
(0.361294 -0.111715 0)
(0.380231 -0.130161 0)
(0.402681 -0.150668 0)
(0.428916 -0.172872 0)
(0.458974 -0.196253 0)
(0.492806 -0.220077 0)
(0.529743 -0.24327 0)
(0.569686 -0.264167 0)
(0.610996 -0.280713 0)
(0.654099 -0.288845 0)
(0.69607 -0.284957 0)
(0.739126 -0.259346 0)
(0.77956 -0.205336 0)
(0.823841 -0.103399 0)
(0.869205 0.0640683 0)
(0.939111 0.329177 0)
(1.02925 0.734046 0)
(1.21593 1.34658 0)
(1.5164 2.22534 0)
(2.12753 3.51894 0)
(3.16409 5.27454 0)
(5.11771 7.72904 0)
(-0.000310915 0.00376457 0)
(-0.00375836 0.00893833 0)
(-0.00993437 0.0114765 0)
(-0.0176307 0.0103591 0)
(-0.0248061 0.00542112 0)
(-0.0295449 -0.00227327 0)
(-0.030399 -0.0113864 0)
(-0.026452 -0.0208268 0)
(-0.0173735 -0.0298109 0)
(-0.00329709 -0.0378789 0)
(0.0153211 -0.0447877 0)
(0.0377631 -0.0503817 0)
(0.0631026 -0.0545572 0)
(0.0903036 -0.0572765 0)
(0.118315 -0.0585865 0)
(0.146131 -0.0586293 0)
(0.172855 -0.0576381 0)
(0.197757 -0.0559553 0)
(0.220316 -0.0540072 0)
(0.240248 -0.0522834 0)
(0.25752 -0.0512963 0)
(0.272339 -0.0515373 0)
(0.28514 -0.0534491 0)
(0.296505 -0.0574036 0)
(0.307161 -0.0636824 0)
(0.317906 -0.0724803 0)
(0.329581 -0.083909 0)
(0.342966 -0.097978 0)
(0.358834 -0.114621 0)
(0.377768 -0.133668 0)
(0.400269 -0.154856 0)
(0.426616 -0.177792 0)
(0.456897 -0.201923 0)
(0.491076 -0.226463 0)
(0.528636 -0.250329 0)
(0.569486 -0.271772 0)
(0.612358 -0.288755 0)
(0.657679 -0.297195 0)
(0.703313 -0.29339 0)
(0.751554 -0.268113 0)
(0.800056 -0.214082 0)
(0.856044 -0.113461 0)
(0.91855 0.0519579 0)
(1.01337 0.311772 0)
(1.14007 0.705068 0)
(1.37691 1.29591 0)
(1.74993 2.13238 0)
(2.45332 3.34476 0)
(3.61228 4.96014 0)
(5.69701 7.14615 0)
(-0.000310532 0.00398966 0)
(-0.00377786 0.00951777 0)
(-0.00997754 0.0122994 0)
(-0.0176812 0.0112531 0)
(-0.0248196 0.00614808 0)
(-0.0294752 -0.00194032 0)
(-0.0302292 -0.0115949 0)
(-0.0261843 -0.0216634 0)
(-0.0170211 -0.0313107 0)
(-0.00288709 -0.0400233 0)
(0.0157511 -0.0475136 0)
(0.038173 -0.0535938 0)
(0.0634539 -0.0581362 0)
(0.0905597 -0.0610883 0)
(0.118441 -0.0624928 0)
(0.146092 -0.062497 0)
(0.17262 -0.0613487 0)
(0.197299 -0.0594121 0)
(0.219612 -0.057143 0)
(0.239285 -0.0550655 0)
(0.256292 -0.0537282 0)
(0.270851 -0.0536585 0)
(0.283404 -0.0553312 0)
(0.294543 -0.0591453 0)
(0.305 -0.0654029 0)