/*--------------------------------*- C++ -*----------------------------------*\
  =========                 |
  \\      /  F ield         | OpenFOAM: The Open Source CFD Toolbox
   \\    /   O peration     | Website:  https://openfoam.org
    \\  /    A nd           | Version:  7
     \\/     M anipulation  |
\*---------------------------------------------------------------------------*/
FoamFile
{
    version     2.0;
    format      ascii;
    class       volScalarField;
    location    "0.45";
    object      nut;
}
// * * * * * * * * * * * * * * * * * * * * * * * * * * * * * * * * * * * * * //

dimensions      [0 2 -1 0 0 0 0];

internalField   nonuniform List<scalar> 
70000
(
9.96263e-12
6.87941e-14
2.5678e-16
8.6462e-17
4.76862e-17
7.84576e-17
2.7536e-17
1.28561e-17
8.70334e-18
6.34068e-18
4.63496e-18
3.44539e-18
2.61942e-18
2.03198e-18
1.60296e-18
1.28252e-18
1.03873e-18
8.49769e-19
7.01345e-19
5.82929e-19
4.8729e-19
4.09198e-19
3.44555e-19
2.90582e-19
2.4501e-19
2.06239e-19
1.72721e-19
1.43936e-19
1.18318e-19
9.63526e-20
7.6208e-20
5.93248e-20
4.35675e-20
3.08509e-20
1.96607e-20
1.09664e-20
5.16493e-21
1.18536e-21
1.73777e-22
8.49084e-23
4.65663e-22
2.75071e-20
7.0345e-21
8.14842e-19
3.35874e-20
3.03593e-17
4.14087e-17
1.09172e-15
5.94299e-15
3.64195e-12
1.04274e-10
5.98802e-12
6.44554e-14
2.14264e-14
2.8905e-16
1.69597e-17
2.51921e-17
2.11543e-17
1.22905e-17
7.31281e-18
4.791e-18
3.33767e-18
2.41346e-18
1.79479e-18
1.36656e-18
1.06178e-18
8.39307e-19
6.73559e-19
5.47445e-19
4.499e-19
3.73282e-19
3.12123e-19
2.62858e-19
2.22571e-19
1.89348e-19
1.6155e-19
1.38391e-19
1.18377e-19
1.01864e-19
8.69532e-20
7.51226e-20
6.37098e-20
5.53017e-20
4.67774e-20
4.05483e-20
3.56489e-20
3.01764e-20
3.11276e-20
2.53371e-20
3.55532e-20
4.72811e-20
7.92878e-20
1.84551e-19
4.56894e-19
4.8515e-18
3.36865e-17
3.23546e-16
2.63532e-15
2.0767e-14
1.10531e-12
3.19153e-10
3.39901e-12
1.91051e-13
1.99199e-14
7.70108e-16
5.90152e-17
7.45617e-18
4.28192e-18
2.19673e-18
1.10279e-18
6.18491e-19
3.83123e-19
2.52342e-19
1.73178e-19
1.22873e-19
8.97955e-20
6.73947e-20
5.18801e-20
4.08567e-20
3.28967e-20
2.70596e-20
2.27191e-20
1.95083e-20
1.71311e-20
1.54298e-20
1.4277e-20
1.36782e-20
1.35308e-20
1.40785e-20
1.52095e-20
1.7561e-20
2.11025e-20
2.72966e-20
3.68559e-20
5.25372e-20
7.90898e-20
1.20018e-19
1.97159e-19
3.0588e-19
5.32121e-19
8.45725e-19
1.57809e-18
2.45315e-18
5.8147e-18
1.1814e-17
9.09728e-17
4.18158e-16
4.33624e-15
1.52522e-14
1.10926e-12
6.15337e-09
1.92844e-11
7.84982e-13
6.11812e-14
5.50851e-15
9.34785e-16
1.12214e-16
3.02774e-17
1.28208e-17
5.78984e-18
2.76957e-18
1.46161e-18
8.43276e-19
5.19495e-19
3.36675e-19
2.2794e-19
1.60681e-19
1.17707e-19
8.94936e-20
7.05898e-20
5.77579e-20
4.90499e-20
4.32843e-20
3.97319e-20
3.80017e-20
3.79386e-20
3.96035e-20
4.32835e-20
4.95825e-20
5.95598e-20
7.49033e-20
9.8742e-20
1.35535e-19
1.94865e-19
2.88098e-19
4.47287e-19
6.99041e-19
1.15974e-18
1.86702e-18
3.28279e-18
5.21231e-18
9.90132e-18
1.52333e-17
3.22539e-17
4.59204e-17
1.85753e-16
5.48088e-16
3.3947e-15
8.6841e-15
1.47334e-12
2.32041e-09
2.23456e-10
4.4616e-12
3.22324e-13
2.3128e-14
4.43431e-15
7.31324e-16
2.07354e-16
8.57204e-17
3.86612e-17
1.84635e-17
9.61446e-18
5.4408e-18
3.28615e-18
2.09036e-18
1.39048e-18
9.63498e-19
6.93763e-19
5.18248e-19
4.01293e-19
3.21965e-19
2.67738e-19
2.30967e-19
2.06908e-19
1.92811e-19
1.87251e-19
1.89894e-19
2.01461e-19
2.23901e-19
2.61058e-19
3.18881e-19
4.09107e-19
5.47346e-19
7.69711e-19
1.11542e-18
1.70514e-18
2.63128e-18
4.32735e-18
6.94704e-18
1.21713e-17
1.94591e-17
3.67471e-17
5.61497e-17
1.18259e-16
1.58732e-16
4.27817e-16
9.58919e-16
2.18666e-15
5.20053e-15
1.53636e-12
3.0075e-09
5.2854e-09
4.36745e-11
1.94958e-12
1.08497e-13
1.81285e-14
3.28481e-15
9.65205e-16
3.96969e-16
1.79754e-16
8.62857e-17
4.48316e-17
2.51647e-17
1.50358e-17
9.45149e-18
6.20896e-18
4.24659e-18
3.01627e-18
2.22098e-18
1.69364e-18
1.33679e-18
1.09225e-18
9.2453e-19
8.11481e-19
7.39822e-19
7.01909e-19
6.94525e-19
7.18164e-19
7.77467e-19
8.82726e-19
1.05046e-18
1.31395e-18
1.71635e-18
2.36095e-18
3.35408e-18
5.03899e-18
7.66735e-18
1.24509e-17
1.98656e-17
3.44971e-17
5.5679e-17
1.03415e-16
1.57324e-16
3.29276e-16
4.49185e-16
9.65905e-16
1.88155e-15
1.37089e-15
3.3882e-15
1.44506e-12
1.07675e-09
4.76733e-09
3.72151e-09
1.85613e-11
6.74541e-13
9.23953e-14
1.53706e-14
4.21604e-15
1.64206e-15
7.23519e-16
3.42463e-16
1.75898e-16
9.75993e-17
5.76464e-17
3.58242e-17
2.32649e-17
1.57259e-17
1.10343e-17
8.02154e-18
6.03439e-18
4.69435e-18
3.77635e-18
3.1433e-18
2.70962e-18
2.42301e-18
2.25183e-18
2.17994e-18
2.20305e-18
2.3291e-18
2.58133e-18
2.99859e-18
3.66281e-18
4.67689e-18
6.29573e-18
8.77146e-18
1.29368e-17
1.94029e-17
3.1031e-17
4.913e-17
8.42978e-17
1.36108e-16
2.50754e-16
3.83698e-16
7.76691e-16
1.1056e-15
2.05852e-15
3.75982e-15
1.0822e-15
2.48513e-15
1.26642e-12
2.42922e-09
3.87188e-09
8.24094e-10
2.43427e-09
8.67053e-12
7.19417e-13
9.17191e-14
2.10558e-14
7.28649e-15
2.97428e-15
1.33628e-15
6.60319e-16
3.55539e-16
2.05001e-16
1.24877e-16
7.97111e-17
5.30518e-17
3.66897e-17
2.63015e-17
1.95121e-17
1.4965e-17
1.18621e-17
9.72118e-18
8.24289e-18
7.24284e-18
6.60675e-18
6.27084e-18
6.2073e-18
6.42267e-18
6.96263e-18
7.91004e-18
9.45013e-18
1.18104e-17
1.5569e-17
2.12865e-17
3.08093e-17
4.55447e-17
7.16305e-17
1.12448e-16
1.9005e-16
3.06633e-16
5.56959e-16
8.65516e-16
1.6837e-15
2.48632e-15
4.22406e-15
7.45113e-15
1.63735e-15
2.30963e-15
1.04532e-12
3.37094e-09
4.37267e-09
5.92386e-10
3.00377e-10
5.5004e-10
1.87738e-11
9.72388e-13
1.48536e-13
4.08776e-14
1.44162e-14
5.83978e-15
2.67006e-15
1.3543e-15
7.45158e-16
4.37212e-16
2.70633e-16
1.75529e-16
1.18718e-16
8.34371e-17
6.07873e-17
4.58311e-17
3.57303e-17
2.8802e-17
2.40164e-17
2.0742e-17
1.85849e-17
1.73144e-17
1.681e-17
1.70483e-17
1.81054e-17
2.01463e-17
2.35717e-17
2.88674e-17
3.72943e-17
5.00698e-17
7.11182e-17
1.03614e-16
1.60145e-16
2.49018e-16
4.1399e-16
6.66284e-16
1.1879e-15
1.87368e-15
3.51748e-15
5.33526e-15
8.56543e-15
1.46822e-14
4.10035e-15
2.97128e-15
8.11875e-13
3.41261e-09
4.60987e-09
6.74186e-10
1.93926e-10
4.72844e-11
6.73656e-11
3.20616e-10
2.89479e-12
4.04208e-13
1.02064e-13
3.35599e-14
1.32619e-14
6.03989e-15
3.06021e-15
1.68256e-15
9.88331e-16
6.13989e-16
4.00553e-16
2.72979e-16
1.93608e-16
1.4252e-16
1.08707e-16
8.58524e-17
7.01973e-17
5.94754e-17
5.22835e-17
4.77838e-17
4.54987e-17
4.52419e-17
4.70959e-17
5.13628e-17
5.88962e-17
7.07261e-17
8.95896e-17
1.18143e-16
1.64684e-16
2.36384e-16
3.58923e-16
5.52081e-16
9.02513e-16
1.4447e-15
2.52929e-15
4.01729e-15
7.33294e-15
1.13484e-14
1.75547e-14
2.92429e-14
1.14563e-14
5.3935e-15
5.61024e-13
3.21361e-09
4.39366e-09
7.75628e-10
2.02602e-10
3.67326e-11
2.19279e-11
1.35627e-11
2.11957e-11
1.68069e-10
2.38038e-12
3.81399e-13
1.04629e-13
3.79161e-14
1.63882e-14
8.0089e-15
4.29441e-15
2.48079e-15
1.52524e-15
9.89452e-16
6.73068e-16
4.77954e-16
3.5322e-16
2.71179e-16
2.16075e-16
1.78719e-16
1.53563e-16
1.37291e-16
1.27948e-16
1.24562e-16
1.26982e-16
1.35652e-16
1.5239e-16
1.79396e-16
2.22761e-16
2.88436e-16
3.94441e-16
5.5732e-16
8.3096e-16
1.2623e-15
2.02805e-15
3.22118e-15
5.53697e-15
8.8115e-15
1.57097e-14
2.47034e-14
3.70756e-14
6.0161e-14
3.15707e-14
1.30261e-14
3.49043e-13
3.01935e-09
3.97543e-09
8.4851e-10
2.13596e-10
3.9054e-11
2.02627e-11
8.72161e-12
4.68729e-12
4.30363e-12
7.0381e-12
8.06238e-11
5.58644e-12
6.36575e-13
1.66854e-13
6.08456e-14
2.68046e-14
1.34251e-14
7.40146e-15
4.40445e-15
2.79302e-15
1.87094e-15
1.31593e-15
9.68031e-16
7.42904e-16
5.94173e-16
4.95175e-16
4.30371e-16
3.90596e-16
3.70804e-16
3.69001e-16
3.85139e-16
4.2301e-16
4.8732e-16
5.92319e-16
7.51954e-16
1.00761e-15
1.39912e-15
2.04621e-15
3.0634e-15
4.83193e-15
7.5959e-15
1.2804e-14
2.03558e-14
3.53735e-14
5.6294e-14
8.2852e-14
1.30933e-13
8.69118e-14
3.85949e-14
2.10022e-13
2.84809e-09
3.51563e-09
9.10386e-10
2.11124e-10
4.26302e-11
2.1837e-11
9.15893e-12
3.99992e-12
2.54042e-12
1.99267e-12
1.83152e-12
2.18836e-12
4.52571e-12
8.5016e-11
3.42409e-12
5.035e-13
1.52555e-13
6.22746e-14
3.02293e-14
1.65202e-14
9.87223e-15
6.34034e-15
4.32952e-15
3.12162e-15
2.36681e-15
1.88275e-15
1.57015e-15
1.37304e-15
1.25993e-15
1.21507e-15
1.2316e-15
1.31584e-15
1.47705e-15
1.75085e-15
2.17192e-15
2.84361e-15
3.86876e-15
5.53699e-15
8.14502e-15
1.25886e-14
1.95229e-14
3.22187e-14
5.1004e-14
8.62109e-14
1.37961e-13
2.01392e-13
3.09604e-13
2.48286e-13
1.3217e-13
1.55955e-13
2.67821e-09
3.06029e-09
9.79618e-10
2.00069e-10
4.58697e-11
2.33495e-11
1.04436e-11
4.32085e-12
2.48856e-12
1.68667e-12
1.21454e-12
9.4734e-13
8.31244e-13
8.44969e-13
1.04996e-12
1.84531e-12
8.2842e-12
1.94508e-11
1.0746e-12
2.79589e-13
1.11425e-13
5.50846e-14
3.12473e-14
1.9595e-14
1.33142e-14
9.68946e-15
7.50272e-15
6.15893e-15
5.34944e-15
4.9149e-15
4.77014e-15
4.89964e-15
5.30604e-15
6.0825e-15
7.31885e-15
9.30413e-15
1.2331e-14
1.71877e-14
2.47215e-14
3.73002e-14
5.6819e-14
9.15571e-14
1.43621e-13
2.3631e-13
3.77777e-13
5.49267e-13
8.23974e-13
7.70069e-13
5.08448e-13
3.5078e-13
2.49988e-09
2.62559e-09
1.05972e-09
1.86089e-10
4.9259e-11
2.43054e-11
1.18789e-11
4.85993e-12
2.71816e-12
1.78184e-12
1.20896e-12
8.51285e-13
6.39205e-13
5.15086e-13
4.45756e-13
4.16997e-13
4.27926e-13
4.94525e-13
6.76886e-13
1.23428e-12
4.46272e-12
1.1571e-10
1.94066e-12
4.77807e-13
1.99403e-13
1.06537e-13
6.64165e-14
4.63577e-14
3.54633e-14
2.93992e-14
2.61943e-14
2.5017e-14
2.54424e-14
2.759e-14
3.16163e-14
3.84337e-14
4.8972e-14
6.57578e-14
9.15759e-14
1.33829e-13
1.98767e-13
3.10981e-13
4.80489e-13
7.68592e-13
1.2183e-12
1.76712e-12
2.60336e-12
2.74663e-12
2.22589e-12
2.07299e-12
2.31367e-09
2.22555e-09
1.14535e-09
1.71816e-10
5.32702e-11
2.48387e-11
1.33678e-11
5.46986e-12
3.01757e-12
1.97414e-12
1.32978e-12
9.12781e-13
6.55477e-13
4.94889e-13
3.91074e-13
3.22929e-13
2.79155e-13
2.5346e-13
2.4276e-13
2.46764e-13
2.68614e-13
3.17669e-13
4.18198e-13
6.41366e-13
1.26661e-12
4.35556e-12
4.50722e-10
5.36563e-12
1.3054e-12
6.09174e-13
3.7865e-13
2.81268e-13
2.37217e-13
2.22237e-13
2.26461e-13
2.49659e-13
2.93257e-13
3.66887e-13
4.81362e-13
6.66682e-13
9.48042e-13
1.42051e-12
2.13468e-12
3.29931e-12
5.13688e-12
7.4136e-12
1.07653e-11
1.24295e-11
1.18266e-11
1.47518e-11
2.12187e-09
1.86638e-09
1.22921e-09
1.58296e-10
5.79483e-11
2.50791e-11
1.49372e-11
6.15018e-12
3.3481e-12
2.19883e-12
1.4928e-12
1.02321e-12
7.27259e-13
5.39445e-13
4.15119e-13
3.30148e-13
2.71277e-13
2.30481e-13
2.02655e-13
1.84592e-13
1.74407e-13
1.71239e-13
1.75189e-13
1.87438e-13
2.10837e-13
2.51105e-13
3.19897e-13
4.42121e-13
6.77105e-13
1.19122e-12
2.57255e-12
8.01325e-12
5.38672e-11
1.03595e-10
1.79676e-11
9.10045e-12
6.75073e-12
6.19212e-12
6.49774e-12
7.5927e-12
9.48896e-12
1.27938e-11
1.78271e-11
2.57719e-11
3.84164e-11
5.41232e-11
7.62605e-11
9.18137e-11
8.91329e-11
1.0451e-10
1.92613e-09
1.54851e-09
1.30469e-09
1.46298e-10
6.30482e-11
2.50952e-11
1.65911e-11
6.9275e-12
3.71431e-12
2.44622e-12
1.67943e-12
1.15741e-12
8.227e-13
6.08764e-13
4.66066e-13
3.6731e-13
2.97607e-13
2.47908e-13
2.12323e-13
1.86973e-13
1.69317e-13
1.57742e-13
1.51322e-13
1.49669e-13
1.52924e-13
1.61826e-13
1.77884e-13
2.03891e-13
2.44564e-13
3.08437e-13
4.10294e-13
5.78834e-13
8.67626e-13
1.39011e-12
2.38211e-12
4.3935e-12
8.72316e-12
1.87192e-11
4.29008e-11
1.00368e-10
1.86745e-10
5.92046e-11
1.88766e-10
1.03781e-09
1.53134e-09
1.73172e-09
1.65785e-09
1.09708e-09
1.16299e-10
5.06243e-12
1.72868e-09
1.27179e-09
1.36612e-09
1.36722e-10
6.81658e-11
2.49562e-11
1.82948e-11
7.82498e-12
4.12684e-12
2.7197e-12
1.8891e-12
1.31161e-12
9.34825e-13
6.92954e-13
5.31322e-13
4.18932e-13
3.39032e-13
2.81517e-13
2.39774e-13
2.09389e-13
1.87423e-13
1.71942e-13
1.61734e-13
1.56104e-13
1.54814e-13
1.58063e-13
1.66506e-13
1.8149e-13
2.05208e-13
2.41476e-13
2.96171e-13
3.79773e-13
5.08753e-13
7.1337e-13
1.04355e-12
1.59223e-12
2.52006e-12
4.12572e-12
6.92571e-12
1.18821e-11
2.04872e-11
3.54547e-11
6.01648e-11
9.9168e-11
1.57699e-10
2.34481e-10
3.39141e-10
4.71746e-10
6.86121e-10
1.09483e-09
1.53227e-09
1.03589e-09
1.40861e-09
1.3052e-10
7.27789e-11
2.47623e-11
1.99881e-11
8.86141e-12
4.59535e-12
3.02384e-12
2.12481e-12
1.48802e-12
1.06422e-12
7.90956e-13
6.08412e-13
4.81287e-13
3.90638e-13
3.2517e-13
2.77473e-13
2.42562e-13
2.17098e-13
1.98866e-13
1.86453e-13
1.79017e-13
1.76197e-13
1.78075e-13
1.85164e-13
1.98604e-13
2.20235e-13
2.53242e-13
3.02358e-13
3.758e-13
4.85922e-13
6.54424e-13
9.15386e-13
1.3285e-12
1.99152e-12
3.07388e-12
4.85202e-12
7.80998e-12
1.26654e-11
2.06777e-11
3.35152e-11
5.34597e-11
8.41204e-11
1.27066e-10
1.91276e-10
2.88651e-10
4.69198e-10
8.80088e-10
1.33984e-09
8.39625e-10
1.42814e-09
1.28601e-10
7.62892e-11
2.46443e-11
2.1595e-11
1.0053e-11
5.12963e-12
3.3629e-12
2.38959e-12
1.68991e-12
1.21353e-12
9.04475e-13
6.98235e-13
5.54581e-13
4.51991e-13
3.77826e-13
3.23788e-13
2.84257e-13
2.55449e-13
2.3485e-13
2.20856e-13
2.1251e-13
2.09397e-13
2.11602e-13
2.19683e-13
2.34885e-13
2.59196e-13
2.9601e-13
3.50332e-13
4.30638e-13
5.49577e-13
7.28639e-13
1.00129e-12
1.42388e-12
2.08757e-12
3.14408e-12
4.83733e-12
7.57706e-12
1.1971e-11
1.90274e-11
3.0171e-11
4.71938e-11
7.33648e-11
1.10944e-10
1.68494e-10
2.61783e-10
4.39266e-10
8.38646e-10
1.15436e-09
6.80696e-10
1.42183e-09
1.31773e-10
7.81358e-11
2.47473e-11
2.30325e-11
1.1412e-11
5.74084e-12
3.74142e-12
2.68615e-12
1.92063e-12
1.3859e-12
1.03602e-12
8.02771e-13
6.40395e-13
5.24321e-13
4.40383e-13
3.79307e-13
3.34765e-13
3.02472e-13
2.79585e-13
2.64298e-13
2.55549e-13
2.52903e-13
2.5651e-13
2.67077e-13
2.86113e-13
3.16011e-13
3.60777e-13
4.26333e-13
5.22465e-13
6.63865e-13
8.74776e-13
1.19309e-12
1.68071e-12
2.43757e-12
3.62517e-12
5.50184e-12
8.48689e-12
1.32077e-11
2.06535e-11
3.22812e-11
4.98487e-11
7.67907e-11
1.16031e-10
1.76969e-10
2.7854e-10
4.70903e-10
8.77601e-10
9.78714e-10
5.55777e-10
1.3883e-09
1.40722e-10
7.79377e-11
2.52062e-11
2.42228e-11
1.29437e-11
6.44203e-12
4.16473e-12
3.01714e-12
2.18355e-12
1.58475e-12
1.18844e-12
9.2442e-13
7.40839e-13
6.09519e-13
5.1455e-13
4.4558e-13
3.95498e-13
3.5946e-13
3.34253e-13
3.17852e-13
3.09095e-13
3.07552e-13
3.13487e-13
3.27841e-13
3.52517e-13
3.90516e-13
4.46759e-13
5.28566e-13
6.4777e-13
8.22285e-13
1.08097e-12
1.46917e-12
2.05927e-12
2.96791e-12
4.37963e-12
6.58809e-12
1.00567e-11
1.54853e-11
2.39245e-11
3.69824e-11
5.65482e-11
8.63993e-11
1.30278e-10
1.98985e-10
3.13975e-10
5.27161e-10
9.45558e-10
8.15614e-10
4.60729e-10
1.32789e-09
1.5598e-10
7.55639e-11
2.61233e-11
2.51054e-11
1.4642e-11
7.24831e-12
4.63914e-12
3.38529e-12
2.48198e-12
1.81381e-12
1.36495e-12
1.0659e-12
8.58352e-13
7.09859e-13
6.02475e-13
5.24672e-13
4.68475e-13
4.28412e-13
4.00858e-13
3.83548e-13
3.75222e-13
3.7548e-13
3.84753e-13
4.043e-13
4.36549e-13
4.85313e-13
5.56723e-13
6.59955e-13
8.09555e-13
1.02772e-12
1.34949e-12
1.83011e-12
2.55621e-12
3.66687e-12
5.37832e-12
8.03277e-12
1.21567e-11
1.85509e-11
2.83668e-11
4.34207e-11
6.5803e-11
9.97518e-11
1.49871e-10
2.28529e-10
3.58784e-10
5.9294e-10
1.01998e-09
6.6736e-10
3.90913e-10
1.24286e-09
1.77783e-10
7.11686e-11
2.75506e-11
2.56495e-11
1.64844e-11
8.17664e-12
5.17203e-12
3.79355e-12
2.81918e-12
2.07702e-12
1.56911e-12
1.23025e-12
9.95697e-13
8.27952e-13
7.0668e-13
6.19059e-13
5.56172e-13
5.11849e-13
4.82001e-13
4.64102e-13
4.56798e-13
4.59748e-13
4.73609e-13
5.00059e-13
5.42197e-13
6.04879e-13
6.95766e-13
8.26389e-13
1.01471e-12
1.2883e-12
1.68993e-12
2.28709e-12
3.18403e-12
4.54712e-12
6.63119e-12
9.8367e-12
1.4765e-11
2.2336e-11
3.38216e-11
5.12711e-11
7.70152e-11
1.15807e-10
1.73046e-10
2.62595e-10
4.08004e-10
6.60319e-10
1.09028e-09
5.35673e-10
3.41508e-10
1.1372e-09
2.05848e-10
6.52209e-11
2.94662e-11
2.58651e-11
1.84277e-11
9.24504e-12
5.77195e-12
4.24519e-12
3.19812e-12
2.37854e-12
1.80483e-12
1.42087e-12
1.15597e-12
9.66775e-13
8.30085e-13
7.31649e-13
6.61538e-13
6.12812e-13
5.80866e-13
5.62886e-13
5.57432e-13
5.64259e-13
5.84324e-13
6.19844e-13
6.74768e-13
7.5526e-13
8.70893e-13
1.03612e-12
1.27313e-12
1.61602e-12
2.11701e-12
2.85821e-12
3.96491e-12
5.63524e-12
8.16878e-12
1.20315e-11
1.79087e-11
2.68487e-11
4.02574e-11
6.04167e-11
8.9923e-11
1.34023e-10
1.98806e-10
2.99349e-10
4.58567e-10
7.24873e-10
1.15179e-09
4.21566e-10
3.07743e-10
1.01648e-09
2.3909e-10
5.84854e-11
3.17429e-11
2.58086e-11
2.04064e-11
1.0471e-11
6.44858e-12
4.74398e-12
3.62147e-12
2.72251e-12
2.07639e-12
1.64152e-12
1.34264e-12
1.12968e-12
9.76029e-13
8.65817e-13
7.88039e-13
7.34918e-13
7.01275e-13
6.83986e-13
6.81533e-13
6.9382e-13
7.22192e-13
7.6955e-13
8.40909e-13
9.44063e-13
1.09095e-12
1.29959e-12
1.59735e-12
2.02616e-12
2.64959e-12
3.56683e-12
4.92776e-12
6.96663e-12
1.00331e-11
1.46651e-11
2.16367e-11
3.21305e-11
4.76825e-11
7.08754e-11
1.04395e-10
1.53978e-10
2.26426e-10
3.37466e-10
5.08407e-10
7.84141e-10
1.20288e-09
3.25264e-10
2.85078e-10
8.8803e-10
2.75277e-10
5.19611e-11
3.41385e-11
2.55781e-11
2.23367e-11
1.18687e-11
7.21282e-12
5.29435e-12
4.09149e-12
3.11294e-12
2.3883e-12
1.89631e-12
1.55948e-12
1.32042e-12
1.14831e-12
1.02545e-12
9.39721e-13
8.82433e-13
8.47781e-13
8.32308e-13
8.34435e-13
8.54272e-13
8.93668e-13
9.56384e-13
1.04876e-12
1.1806e-12
1.36673e-12
1.62953e-12
2.00257e-12
2.53713e-12
3.31014e-12
4.44054e-12
6.10639e-12
8.5821e-12
1.22721e-11
1.77911e-11
2.60041e-11
3.82304e-11
5.61247e-11
8.25276e-11
1.20246e-10
1.75486e-10
2.55328e-10
3.7588e-10
5.56075e-10
8.36763e-10
1.24321e-09
2.46114e-10
2.69541e-10
7.60538e-10
3.10911e-10
4.67148e-11
3.63354e-11
2.53007e-11
2.4124e-11
1.34458e-11
8.07685e-12
5.90159e-12
4.61009e-12
3.55342e-12
2.74522e-12
2.18965e-12
1.81064e-12
1.5431e-12
1.35116e-12
1.21499e-12
1.12126e-12
1.06034e-12
1.02576e-12
1.01369e-12
1.02252e-12
1.05264e-12
1.10654e-12
1.18905e-12
1.30813e-12
1.47606e-12
1.71117e-12
2.04107e-12
2.50673e-12
3.17037e-12
4.1245e-12
5.51051e-12
7.53805e-12
1.05254e-11
1.49357e-11
2.14619e-11
3.10627e-11
4.51806e-11
6.56004e-11
9.52805e-11
1.37331e-10
1.98245e-10
2.8493e-10
4.13637e-10
6.00437e-10
8.81947e-10
1.27298e-09
1.82734e-10
2.57868e-10
6.41261e-10
3.41852e-10
4.35913e-11
3.79908e-11
2.51115e-11
2.56747e-11
1.51973e-11
9.0538e-12
6.57178e-12
5.17884e-12
4.0469e-12
3.15179e-12
2.52621e-12
2.10052e-12
1.80218e-12
1.58929e-12
1.43942e-12
1.33798e-12
1.27441e-12
1.24149e-12
1.23501e-12
1.25336e-12
1.2973e-12
1.3701e-12
1.47793e-12
1.63073e-12
1.84375e-12
2.13954e-12
2.55189e-12
3.13052e-12
3.95027e-12
5.12149e-12
6.81062e-12
9.26205e-12
1.28409e-11
1.80708e-11
2.57248e-11
3.68463e-11
5.30002e-11
7.60604e-11
1.09135e-10
1.55522e-10
2.2174e-10
3.14527e-10
4.49751e-10
6.40522e-10
9.19323e-10
1.29276e-09
1.33313e-10
2.47233e-10
5.33942e-10
3.64451e-10
4.30669e-11
3.87922e-11
2.5127e-11
2.69151e-11
1.71003e-11
1.01569e-11
7.31171e-12
5.79918e-12
4.5954e-12
3.61232e-12
2.91075e-12
2.43375e-12
2.1024e-12
1.86779e-12
1.70426e-12
1.59592e-12
1.53123e-12
1.50222e-12
1.50428e-12
1.53582e-12
1.59807e-12
1.6953e-12
1.83525e-12
2.03029e-12
2.29918e-12
2.66951e-12
3.18226e-12
3.89732e-12
4.90387e-12
6.33229e-12
8.37641e-12
1.1318e-11
1.55705e-11
2.17191e-11
3.06119e-11
4.33729e-11
6.16679e-11
8.74387e-11
1.23906e-10
1.74419e-10
2.45489e-10
3.43483e-10
4.83481e-10
6.75703e-10
9.48768e-10
1.30314e-09
9.57651e-11
2.35393e-10
4.40085e-10
3.7633e-10
4.53429e-11
3.85715e-11
2.54161e-11
2.7809e-11
1.91112e-11
1.13986e-11
8.12874e-12
6.47264e-12
5.19989e-12
4.13056e-12
3.34805e-12
2.81513e-12
2.44873e-12
2.19209e-12
2.01557e-12
1.90177e-12
1.83823e-12
1.81621e-12
1.83069e-12
1.88013e-12
1.96637e-12
2.09483e-12
2.2752e-12
2.52266e-12
2.86015e-12
3.32112e-12
3.95486e-12
4.83283e-12
6.0602e-12
7.78939e-12
1.02435e-11
1.37432e-11
1.87507e-11
2.59107e-11
3.61387e-11
5.06349e-11
7.11162e-11
9.96267e-11
1.39372e-10
1.93645e-10
2.6897e-10
3.71157e-10
5.14114e-10
7.05471e-10
9.70378e-10
1.30486e-09
6.79004e-11
2.21047e-10
3.60247e-10
3.76601e-10
5.0443e-11
3.74018e-11
2.59838e-11
2.83667e-11
2.11662e-11
1.27881e-11
9.03072e-12
7.20117e-12
5.86034e-12
4.7094e-12
3.84267e-12
3.2495e-12
2.84627e-12
2.56792e-12
2.37986e-12
2.26289e-12
2.20369e-12
2.19277e-12
2.2247e-12
2.29801e-12
2.41525e-12
2.58325e-12
2.81393e-12
3.12582e-12
3.54667e-12
4.11667e-12
4.89449e-12
5.96454e-12
7.44943e-12
9.52525e-12
1.24455e-11
1.65703e-11
2.24089e-11
3.06606e-11
4.23011e-11
5.85795e-11
8.12731e-11
1.12425e-10
1.55208e-10
2.12951e-10
2.91773e-10
3.96842e-10
5.40948e-10
7.29485e-10
9.84391e-10
1.29871e-09
4.76507e-11
2.03805e-10
2.94158e-10
3.6576e-10
5.81674e-11
3.55769e-11
2.67699e-11
2.86425e-11
2.3186e-11
1.43291e-11
1.00256e-11
7.98734e-12
6.57578e-12
5.35059e-12
4.39879e-12
3.74166e-12
3.30021e-12
3.00119e-12
2.804e-12
2.68723e-12
2.6367e-12
2.64224e-12
2.69799e-12
2.8026e-12
2.95942e-12
3.1769e-12
3.46956e-12
3.85977e-12
4.38075e-12
5.08027e-12
6.02742e-12
7.32075e-12
9.10151e-12
1.15704e-11
1.50117e-11
1.98238e-11
2.65593e-11
3.59658e-11
4.90631e-11
6.71382e-11
9.19847e-11
1.2562e-10
1.71175e-10
2.3181e-10
3.1321e-10
4.20011e-10
5.63698e-10
7.47716e-10
9.91161e-10
1.28536e-09
3.31992e-11
1.83992e-10
2.40757e-10
3.45453e-10
6.79832e-11
3.35226e-11
2.76591e-11
2.87245e-11
2.50845e-11
1.60151e-11
1.11212e-11
8.83435e-12
7.34468e-12
6.0545e-12
5.01986e-12
4.29624e-12
3.81567e-12
3.49789e-12
3.29518e-12
3.18327e-12
3.14711e-12
3.17593e-12
3.26346e-12
3.40844e-12
3.61516e-12
3.89386e-12
4.26202e-12
4.74628e-12
5.386e-12
6.23731e-12
7.38061e-12
8.92952e-12
1.10446e-11
1.39516e-11
1.79643e-11
2.35173e-11
3.12003e-11
4.18e-11
5.63629e-11
7.62009e-11
1.03067e-10
1.38984e-10
1.86899e-10
2.49741e-10
3.32884e-10
4.40322e-10
5.82034e-10
7.60093e-10
9.91151e-10
1.26556e-09
2.30363e-11
1.62484e-10
1.98405e-10
3.18121e-10
7.89945e-11
3.17055e-11
2.85048e-11
2.87167e-11
2.67826e-11
1.78265e-11
1.23238e-11
9.74591e-12
8.16523e-12
6.82001e-12
5.70836e-12
4.9175e-12
4.39767e-12
4.06396e-12
3.86071e-12
3.75989e-12
3.74541e-12
3.80604e-12
3.93509e-12
4.13141e-12
4.40021e-12
4.75375e-12
5.21271e-12
5.80849e-12
6.58708e-12
7.61367e-12
8.9806e-12
1.08171e-11
1.33033e-11
1.66892e-11
2.13162e-11
2.76504e-11
3.63112e-11
4.81128e-11
6.41118e-11
8.56167e-11
1.14335e-10
1.5222e-10
2.01995e-10
2.66466e-10
3.50466e-10
4.57312e-10
5.9569e-10
7.66736e-10
9.84856e-10
1.2401e-09
1.59611e-11
1.40516e-10
1.65181e-10
2.86536e-10
9.00323e-11
3.05532e-11
2.91721e-11
2.87168e-11
2.82228e-11
1.97278e-11
1.3638e-11
1.0726e-11
9.03589e-12
7.64458e-12
6.46548e-12
5.60911e-12
5.05094e-12
4.70522e-12
4.50793e-12
4.42621e-12
4.44262e-12
4.54551e-12
4.72782e-12
4.98843e-12
5.33351e-12
5.77737e-12
6.34415e-12
7.07031e-12
8.00892e-12
9.23468e-12
1.08522e-11
1.30066e-11
1.58967e-11
1.97952e-11
2.5068e-11
3.22068e-11
4.1851e-11
5.483e-11
7.21904e-11
9.52227e-11
1.25547e-10
1.65034e-10
2.16187e-10
2.81585e-10
3.65482e-10
4.70693e-10
6.04697e-10
7.67917e-10
9.72742e-10
1.20967e-09
1.10642e-11
1.19244e-10
1.39166e-10
2.53446e-10
9.98478e-11
3.03854e-11
2.95858e-11
2.87993e-11
2.93798e-11
2.16693e-11
1.50646e-11
1.17788e-11
9.9558e-12
8.52464e-12
7.29103e-12
6.37402e-12
5.7799e-12
5.42724e-12
5.24406e-12
5.19147e-12
5.2501e-12
5.40785e-12
5.65732e-12
5.99735e-12
6.4349e-12
6.98635e-12
7.67939e-12
8.55576e-12
9.67584e-12
1.1124e-11
1.30173e-11
1.55159e-11
1.88363e-11
2.32716e-11
2.92068e-11
3.71529e-11
4.77582e-11
6.18542e-11
8.04598e-11
1.04826e-10
1.36469e-10
1.77153e-10
2.2913e-10
2.94749e-10
3.77698e-10
4.80417e-10
6.09136e-10
7.63872e-10
9.55268e-10
1.17458e-09
7.68894e-12
9.93907e-11
1.18621e-10
2.21203e-10
1.07389e-10
3.13526e-11
2.97508e-11
2.90014e-11
3.02634e-11
2.35905e-11
1.65986e-11
1.2908e-11
1.09249e-11
9.45595e-12
8.18322e-12
7.21416e-12
6.58847e-12
6.23526e-12
6.07605e-12
6.06482e-12
6.17935e-12
6.40692e-12
6.73977e-12
7.1765e-12
7.72468e-12
8.40258e-12
9.24139e-12
1.02881e-11
1.16105e-11
1.33026e-11
1.54931e-11
1.83565e-11
2.2125e-11
2.71081e-11
3.3705e-11
4.24375e-11
5.3952e-11
6.90688e-11
8.87613e-11
1.1423e-10
1.46856e-10
1.88307e-10
2.40544e-10
3.05707e-10
3.86943e-10
4.86344e-10
6.09065e-10
7.54981e-10
9.33183e-10
1.13563e-09
5.36527e-12
8.14265e-11
1.02075e-10
1.91339e-10
1.12016e-10
3.34269e-11
2.97496e-11
2.93195e-11
3.09142e-11
2.54281e-11
1.8227e-11
1.41158e-11
1.19438e-11
1.04341e-11
9.1387e-12
8.1302e-12
7.47988e-12
7.13408e-12
7.01049e-12
7.05514e-12
7.2418e-12
7.55667e-12
7.99149e-12
8.5444e-12
9.22317e-12
1.00476e-11
1.10523e-11
1.22891e-11
1.3833e-11
1.5787e-11
1.8291e-11
2.1532e-11
2.57551e-11
3.12821e-11
3.852e-11
4.7993e-11
6.03347e-11
7.63415e-11
9.69287e-11
1.23227e-10
1.56487e-10
1.98238e-10
2.50191e-10
3.14284e-10
3.93101e-10
4.88508e-10
6.04641e-10
7.4146e-10
9.06737e-10
1.09351e-09
3.76063e-12
6.57047e-11
8.83887e-11
1.64611e-10
1.13554e-10
3.64306e-11
2.9723e-11
2.97221e-11
3.13927e-11
2.71256e-11
1.99275e-11
1.54025e-11
1.30136e-11
1.1455e-11
1.01528e-11
9.12131e-12
8.45646e-12
8.12788e-12
8.05336e-12
8.17079e-12
8.44848e-12
8.87076e-12
9.42855e-12
1.01191e-11
1.095e-11
1.1942e-11
1.31323e-11
1.45776e-11
1.63593e-11
1.85887e-11
2.14154e-11
2.50369e-11
2.9708e-11
3.57579e-11
4.35949e-11
5.37371e-11
6.67953e-11
8.35306e-11
1.0479e-10
1.31623e-10
1.65144e-10
2.06738e-10
2.57878e-10
3.20318e-10
3.96115e-10
4.86979e-10
5.96242e-10
7.23841e-10
8.76252e-10
1.04801e-09
2.64738e-12
5.23684e-11
7.675e-11
1.41292e-10
1.12243e-10
4.00674e-11
2.98319e-11
3.01705e-11
3.1766e-11
2.86418e-11
2.16682e-11
1.67654e-11
1.41352e-11
1.25152e-11
1.12197e-11
1.0185e-11
9.51939e-12
9.22006e-12
9.20993e-12
9.41936e-12
9.8097e-12
1.03622e-11
1.10663e-11
1.1918e-11
1.29237e-11
1.41044e-11
1.54993e-11
1.7169e-11
1.92005e-11
2.17124e-11
2.48624e-11
2.88558e-11
3.39534e-11
4.04871e-11
4.88597e-11
5.95754e-11
7.32129e-11
9.04898e-11
1.12173e-10
1.39236e-10
1.72628e-10
2.13645e-10
2.63466e-10
3.2368e-10
3.96014e-10
4.81836e-10
5.83949e-10
7.02635e-10
8.4277e-10
1.00021e-09
1.87115e-12
4.13471e-11
6.66262e-11
1.21331e-10
1.08608e-10
4.3966e-11
3.02158e-11
3.06355e-11
3.20947e-11
2.99559e-11
2.341e-11
1.81973e-11
1.53089e-11
1.3612e-11
1.2333e-11
1.13172e-11
1.06684e-11
1.04131e-11
1.04846e-11
1.08075e-11
1.13348e-11
1.20429e-11
1.29189e-11
1.39567e-11
1.51606e-11
1.65508e-11
1.81675e-11
2.0074e-11
2.2362e-11
2.51559e-11
2.86194e-11
3.29632e-11
3.84504e-11
4.541e-11
5.42338e-11
6.54045e-11
7.9462e-11
9.70721e-11
1.18921e-10
1.45888e-10
1.78798e-10
2.18785e-10
2.66869e-10
3.24433e-10
3.92731e-10
4.73246e-10
5.6792e-10
6.77615e-10
8.062e-10
9.50505e-10
1.32711e-12
3.24276e-11
5.76932e-11
1.04461e-10
1.03299e-10
4.77439e-11
3.09652e-11
3.11092e-11
3.24245e-11
3.10692e-11
2.51103e-11
1.96861e-11
1.65339e-11
1.47434e-11
1.34865e-11
1.25121e-11
1.19018e-11
1.17081e-11
1.18806e-11
1.23406e-11
1.30316e-11
1.39233e-11
1.49989e-11
1.62488e-11
1.76744e-11
1.92938e-11
2.11465e-11
2.32976e-11
2.58421e-11
2.89086e-11
3.26648e-11
3.73239e-11
4.31474e-11
5.04572e-11
5.96283e-11
7.11159e-11
8.54159e-11
1.03137e-10
1.24883e-10
1.5144e-10
1.83506e-10
2.22078e-10
2.68003e-10
3.2255e-10
3.86452e-10
4.61454e-10
5.48784e-10
6.49299e-10
7.66537e-10
8.9827e-10
9.44018e-13
2.53243e-11
4.97678e-11
9.02958e-11
9.69625e-11
5.10703e-11
3.21078e-11
3.16072e-11
3.27835e-11
3.20017e-11
2.67285e-11
2.12135e-11
1.7807e-11
1.59077e-11
1.46738e-11
1.37627e-11
1.32157e-11
1.3105e-11
1.34001e-11
1.40226e-11
1.49064e-11
1.60119e-11
1.73163e-11
1.88052e-11
2.04756e-11
2.23416e-11
2.4441e-11
2.68389e-11
2.96322e-11
3.2952e-11
3.6968e-11
4.18931e-11
4.7984e-11
5.55512e-11
6.49486e-11
7.65993e-11
9.09511e-11
1.08553e-10
1.29925e-10
1.55771e-10
1.86638e-10
2.23479e-10
2.66816e-10
3.1796e-10
3.77501e-10
4.46661e-10
5.26624e-10
6.18529e-10
7.24869e-10
8.44925e-10
6.73206e-13
1.97347e-11
4.27466e-11
7.84146e-11
9.01534e-11
5.37121e-11
3.36084e-11
3.21641e-11
3.3185e-11
3.27853e-11
2.82313e-11
2.27563e-11
1.91223e-11
1.71028e-11
1.58894e-11
1.50611e-11
1.46047e-11
1.46016e-11
1.50434e-11
1.58558e-11
1.69633e-11
1.83148e-11
1.98786e-11
2.16335e-11
2.35703e-11
2.56977e-11
2.80498e-11
3.06902e-11
3.3716e-11
3.72593e-11
4.149e-11
4.6618e-11
5.28927e-11
6.06096e-11
7.00982e-11
8.17457e-11
9.59507e-11
1.132e-10
1.33936e-10
1.58769e-10
1.88155e-10
2.22866e-10
2.63446e-10
3.10767e-10
3.65497e-10
4.29018e-10
5.01661e-10
5.85314e-10
6.81415e-10
7.90669e-10
4.81184e-13
1.53735e-11
3.65635e-11
6.84193e-11
8.32949e-11
5.55524e-11
3.53794e-11
3.28201e-11
3.36335e-11
3.34568e-11
2.95963e-11
2.42871e-11
2.04705e-11
1.83257e-11
1.71279e-11
1.63985e-11
1.60614e-11
1.6194e-11
1.68092e-11
1.78405e-11
1.92042e-11
2.08351e-11
2.26896e-11
2.47373e-11
2.69603e-11
2.93602e-11
3.19654e-11
3.48367e-11
3.80696e-11
4.17959e-11
4.6184e-11
5.1439e-11
5.78006e-11
6.55467e-11
7.49804e-11
8.64509e-11
1.00307e-10
1.16975e-10
1.3682e-10
1.60371e-10
1.87974e-10
2.20329e-10
2.57712e-10
3.01284e-10
3.50924e-10
4.0847e-10
4.74101e-10
5.49565e-10
6.35822e-10
7.34398e-10
3.44732e-13
1.19891e-11
3.11673e-11
5.99635e-11
7.66689e-11
5.65817e-11
3.72977e-11
3.36047e-11
3.41293e-11
3.4051e-11
3.08134e-11
2.57766e-11
2.18385e-11
1.95717e-11
1.83842e-11
1.77661e-11
1.75765e-11
1.78758e-11
1.86938e-11
1.99748e-11
2.1628e-11
2.35726e-11
2.57495e-11
2.81154e-11
3.06419e-11
3.3321e-11
3.61739e-11
3.92564e-11
4.26619e-11
4.65201e-11
5.09968e-11
5.62911e-11
6.26314e-11
7.02767e-11
7.95019e-11
9.0618e-11
1.03925e-10
1.19788e-10
1.38503e-10
1.60524e-10
1.86087e-10
2.15851e-10
2.4984e-10
2.89414e-10
3.34268e-10
3.85587e-10
4.44148e-10
5.11859e-10
5.89314e-10
6.78438e-10
2.47654e-13
9.36817e-12
2.65102e-11
5.27637e-11
7.04418e-11
5.6869e-11
3.92285e-11
3.45283e-11
3.46731e-11
3.45969e-11
3.1884e-11
2.71969e-11
2.32091e-11
2.08339e-11
1.96527e-11
1.91547e-11
1.91395e-11
1.96382e-11
2.06911e-11
2.2254e-11
2.4231e-11
2.65238e-11
2.9054e-11
3.17622e-11
3.46061e-11
3.75661e-11
4.06545e-11
4.39209e-11
4.74549e-11
5.13839e-11
5.58702e-11
6.11061e-11
6.73081e-11
7.47153e-11
8.35748e-11
9.41592e-11
1.06721e-10
1.2157e-10
1.38934e-10
1.59194e-10
1.82521e-10
2.09427e-10
2.40062e-10
2.74938e-10
3.14953e-10
3.61082e-10
4.12503e-10
4.72463e-10
5.41042e-10
6.21733e-10
1.78544e-13
7.33815e-12
2.25315e-11
4.65966e-11
6.46975e-11
5.65282e-11
4.1048e-11
3.55802e-11
3.52677e-11
3.51166e-11
3.28183e-11
2.85239e-11
2.45625e-11
2.21028e-11
2.09273e-11
2.05551e-11
2.07383e-11