/*--------------------------------*- C++ -*----------------------------------*\
  =========                 |
  \\      /  F ield         | OpenFOAM: The Open Source CFD Toolbox
   \\    /   O peration     | Website:  https://openfoam.org
    \\  /    A nd           | Version:  7
     \\/     M anipulation  |
\*---------------------------------------------------------------------------*/
FoamFile
{
    version     2.0;
    format      ascii;
    class       volScalarField;
    location    "0.45";
    object      p;
}
// * * * * * * * * * * * * * * * * * * * * * * * * * * * * * * * * * * * * * //

dimensions      [0 2 -2 0 0 0 0];

internalField   nonuniform List<scalar> 
70000
(
0.10638
0.028919
0.0163856
0.0188126
0.0189591
0.0178732
0.0168997
0.0161506
0.0155156
0.0149471
0.0144319
0.0139618
0.0135292
0.0131271
0.0127497
0.0123921
0.0120503
0.0117207
0.0114003
0.0110862
0.0107761
0.0104676
0.0101585
0.00984655
0.00952964
0.00920552
0.00887187
0.00852625
0.00816605
0.0077884
0.00739026
0.00696816
0.00651846
0.00603692
0.00551909
0.00495986
0.00435375
0.00369498
0.0029769
0.00219371
0.00133787
0.000405823
-0.000611445
-0.00170274
-0.002896
-0.00409865
-0.00545832
-0.00653987
-0.00798551
-0.00798756
0.102013
0.0292859
0.0165885
0.0189082
0.0190137
0.0179093
0.0169279
0.0161738
0.0155351
0.0149638
0.0144464
0.0139746
0.0135406
0.0131374
0.012759
0.0124007
0.0120582
0.011728
0.011407
0.0110925
0.010782
0.0104731
0.0101637
0.00985143
0.00953424
0.00920986
0.00887598
0.00853013
0.00816971
0.00779185
0.0073935
0.0069712
0.00652129
0.00603953
0.00552147
0.00496199
0.00435562
0.00369654
0.00297812
0.00219453
0.00133825
0.00040556
-0.000612493
-0.00170465
-0.00289922
-0.00410312
-0.0054649
-0.00654991
-0.00799036
-0.00800762
0.0984321
0.030226
0.016929
0.0190373
0.0190879
0.017954
0.0169602
0.0162
0.0155569
0.0149822
0.0144623
0.0139886
0.013553
0.0131485
0.0127692
0.0124099
0.0120666
0.0117358
0.0114143
0.0110993
0.0107884
0.0104791
0.0101693
0.00985675
0.00953928
0.00921465
0.00888053
0.00853447
0.00817385
0.00779581
0.00739728
0.00697482
0.00652474
0.00604283
0.00552461
0.00496497
0.00435841
0.00369913
0.00298046
0.00219656
0.00133987
0.000406818
-0.000611924
-0.00170486
-0.0029009
-0.00410623
-0.00547121
-0.00656285
-0.00798189
-0.00809376
0.0953382
0.031328
0.0173987
0.0192114
0.0191889
0.0180117
0.0169984
0.01623
0.0155816
0.0150028
0.0144798
0.0140038
0.0135665
0.0131605
0.01278
0.0124197
0.0120757
0.0117441
0.011422
0.0111065
0.0107951
0.0104855
0.0101753
0.00986246
0.00954471
0.00921984
0.00888551
0.00853926
0.00817848
0.0078003
0.00740165
0.00697909
0.00652894
0.00604697
0.0055287
0.00496903
0.00436245
0.00370316
0.00298446
0.00220052
0.00134375
0.000410536
-0.000608515
-0.00170212
-0.00289933
-0.00410685
-0.00547447
-0.00657955
-0.007973
-0.00825411
0.092379
0.0324247
0.0179648
0.0194322
0.0193236
0.0180897
0.0170476
0.0162673
0.0156118
0.0150276
0.0145006
0.0140216
0.013582
0.0131743
0.0127923
0.0124309
0.0120858
0.0117535
0.0114307
0.0111146
0.0108027
0.0104926
0.0101821
0.00986888
0.00955086
0.00922575
0.00889123
0.00854482
0.00818392
0.00780565
0.00740695
0.00698438
0.00653425
0.00605235
0.0055342
0.00497469
0.00436833
0.00370929
0.0029909
0.00220728
0.00135084
0.000417822
-0.000600899
-0.00169476
-0.00289266
-0.00410293
-0.00547232
-0.00659847
-0.00796985
-0.0084766
0.0894702
0.033464
0.0185804
0.0196795
0.0194861
0.0181897
0.0171102
0.0163139
0.0156494
0.0150584
0.0145261
0.0140432
0.0136008
0.0131908
0.012807
0.0124441
0.0120978
0.0117645
0.0114408
0.011124
0.0108115
0.0105009
0.01019
0.00987641
0.0095581
0.00923275
0.00889804
0.00855149
0.00819051
0.00781222
0.00741356
0.00699108
0.00654112
0.00605946
0.00554163
0.00498254
0.00437669
0.00371829
0.00300064
0.00221786
0.00136237
0.000430298
-0.000587559
-0.00168074
-0.00287855
-0.00409179
-0.00546183
-0.00661653
-0.00797674
-0.00875258
0.0866057
0.0344269
0.0192115
0.0199317
0.0196632
0.018307
0.0171853
0.0163699
0.0156948
0.0150957
0.0145571
0.0140696
0.0136235
0.0132107
0.0128247
0.01246
0.0121122
0.0117776
0.011453
0.0111353
0.0108221
0.0105108
0.0101994
0.00988543
0.00956678
0.00924117
0.00890629
0.00855964
0.00819863
0.00782039
0.00742187
0.00699962
0.00654999
0.00606879
0.00555154
0.0049932
0.00438826
0.00373096
0.00301463
0.0022334
0.00137965
0.000449477
-0.000566453
-0.00165789
-0.00285435
-0.00407046
-0.00543981
-0.00663006
-0.00799572
-0.0090717
0.0837916
0.0353054
0.0198423
0.0201771
0.0198439
0.0184352
0.0172694
0.0164331
0.0157469
0.0151391
0.0145935
0.0141006
0.0136504
0.0132344
0.0128458
0.0124789
0.0121294
0.0117933
0.0114674
0.0111487
0.0108346
0.0105227
0.0102107
0.00989625
0.00957724
0.00925137
0.00891631
0.0085696
0.00820862
0.00783052
0.00743225
0.0070104
0.00656131
0.00608082
0.00556448
0.00500727
0.00440372
0.00374812
0.00303381
0.00225497
0.00140398
0.000476922
-0.00053574
-0.0016242
-0.00281747
-0.00403595
-0.00540317
-0.00663499
-0.0080263
-0.00941995
0.0810337
0.0360966
0.0204677
0.0204115
0.0200223
0.0185693
0.0173591
0.0165009
0.0158035
0.015187
0.0146342
0.0141356
0.0136811
0.0132616
0.01287
0.0125009
0.0121494
0.0118117
0.0114844
0.0111645
0.0108495
0.0105367
0.010224
0.00990911
0.00958971
0.00926357
0.00892836
0.00858162
0.00822075
0.0078429
0.00744504
0.00702376
0.00657545
0.00609597
0.0055809
0.00502529
0.00442368
0.00377047
0.003059
0.00228355
0.0014365
0.000513971
-0.000493813
-0.00157742
-0.00276562
-0.00398556
-0.00534933
-0.00662713
-0.00806535
-0.00978019
0.0783366
0.0368005
0.0210863
0.0206346
0.0201952
0.0187066
0.0174524
0.0165715
0.015863
0.0152379
0.0146778
0.0141736
0.0137146
0.0132915
0.012897
0.0125254
0.0121718
0.0118324
0.0115036
0.0111826
0.0108665
0.0105529
0.0102395
0.00992406
0.00960426
0.00927787
0.00894256
0.00859586
0.00823518
0.0078577
0.0074604
0.00703992
0.00659265
0.00611451
0.00560112
0.00504761
0.00444856
0.00379848
0.00309076
0.00231983
0.00147802
0.000561604
-0.000439461
-0.00151628
-0.00269714
-0.0039172
-0.00527647
-0.00660264
-0.00810731
-0.0101317
0.0757035
0.0374173
0.0216976
0.0208474
0.0203614
0.0188457
0.0175483
0.0166436
0.015924
0.0152906
0.0147235
0.0142136
0.0137501
0.0133235
0.0129261
0.012552
0.0121963
0.0118551
0.0115249
0.0112026
0.0108855
0.010571
0.010257
0.00994098
0.00962081
0.00929421
0.00895885
0.00861227
0.0082519
0.00787494
0.00747839
0.00705892
0.00661297
0.00613654
0.00562525
0.00507438
0.00447854
0.00383239
0.0031294
0.00236413
0.00152898
0.000620332
-0.00037204
-0.00143995
-0.0026108
-0.00382958
-0.00518361
-0.00655839
-0.00814466
-0.0104524
0.0731375
0.0379474
0.0222999
0.0210507
0.0205198
0.0189856
0.0176464
0.0167168
0.0159859
0.0153445
0.0147704
0.0142549
0.013787
0.0133569
0.0129566
0.01258
0.0122223
0.0118794
0.0115477
0.0112242
0.010906
0.0105908
0.0102761
0.0099596
0.00963912
0.00931238
0.00897704
0.00863069
0.00827075
0.00789446
0.00749886
0.00708065
0.00663632
0.00616194
0.00565321
0.00510551
0.00451354
0.00387212
0.00317482
0.00241639
0.00158932
0.000690096
-0.000291587
-0.00134844
-0.00250683
-0.00372233
-0.00507074
-0.00649207
-0.00816906
-0.0107247
0.070641
0.0383914
0.0228915
0.0212459
0.0206699
0.0191257
0.0177466
0.016791
0.0160486
0.0153993
0.0148183
0.0142971
0.0138249
0.0133913
0.0129881
0.0126091
0.0122494
0.0119048
0.0115717
0.011247
0.0109279
0.0106119
0.0102965
0.00997964
0.00965891
0.0093321
0.00899689
0.00865087
0.0082915
0.00791605
0.00752158
0.00710486
0.00666244
0.00619047
0.00568472
0.00514071
0.00455325
0.00391732
0.00322666
0.00247619
0.00165854
0.000770318
-0.000198748
-0.00124255
-0.00238617
-0.003596
-0.00493861
-0.00640234
-0.00817235
-0.0109345
0.0682167
0.03875
0.0234697
0.0214343
0.0208111
0.019265
0.0178488
0.0168662
0.0161118
0.0154548
0.0148669
0.0143402
0.0138636
0.0134264
0.0130204
0.0126391
0.0122774
0.0119311
0.0115966
0.0112707
0.0109507
0.0106339
0.0103181
0.0100008
0.00967991
0.00935311
0.00901812
0.00867254
0.00831388
0.00793941
0.00754627
0.00713128
0.00669104
0.00622181
0.00571945
0.00517961
0.00459724
0.00396751
0.00328434
0.00254285
0.00173587
0.00086007
-9.46293e-05
-0.00112358
-0.00225028
-0.00345196
-0.0047885
-0.00628869
-0.00814701
-0.0110694
0.0658667
0.0390246
0.0240317
0.0216173
0.020943
0.0194027
0.0179527
0.0169422
0.0161754
0.0155109
0.0149163
0.0143839
0.0139029
0.0134623
0.0130534
0.0126697
0.012306
0.0119581
0.0116222
0.0112953
0.0109743
0.0106569
0.0103405
0.0100229
0.00970191
0.0093752
0.00904052
0.0086955
0.00833765
0.00796433
0.00757269
0.00715963
0.00672182
0.00625563
0.00575702
0.00522179
0.00464505
0.00402215
0.00334724
0.00261563
0.00182042
0.000958284
1.94695e-05
-0.000992995
-0.00210099
-0.00329206
-0.00462183
-0.00615113
-0.00808667
-0.0111213
0.0635933
0.0392168
0.0245744
0.0217966
0.0210653
0.0195377
0.0180582
0.0170193
0.0162394
0.0155675
0.0149664
0.0144283
0.0139429
0.0134988
0.013087
0.012701
0.0123353
0.0119858
0.0116485
0.0113205
0.0109987
0.0106805
0.0103637
0.0100459
0.0097248
0.00939824
0.00906395
0.00871958
0.00836267
0.00799062
0.00760064
0.00718971
0.00675456
0.00629168
0.00579715
0.00526692
0.00469628
0.00408077
0.0034148
0.00269385
0.00191135
0.00106396
0.000142317
-0.000852222
-0.00194006
-0.00311805
-0.00443974
-0.00598977
-0.00798647
-0.011086
0.0613981
0.0393287
0.0250947
0.0219736
0.0211781
0.0196692
0.0181651
0.0170973
0.0163038
0.0156247
0.0150171
0.0144734
0.0139835
0.0135359
0.0131213
0.0127328
0.0123652
0.012014
0.0116755
0.0113463
0.0110237
0.0107049
0.0103876
0.0100696
0.00974851
0.00942217
0.00908834
0.0087447
0.00838884
0.00801819
0.00763002
0.00722139
0.00678912
0.0063298
0.00583965
0.00531477
0.00475065
0.00414302
0.00348658
0.00277698
0.00200803
0.0011763
0.000272924
-0.000702417
-0.00176886
-0.00293134
-0.00424289
-0.00580456
-0.00784297
-0.0109624
0.0592823
0.0393626
0.0255896
0.0221493
0.0212814
0.0197961
0.0182729
0.0171763
0.0163684
0.0156822
0.0150685
0.0145192
0.0140248
0.0135736
0.0131561
0.0127654
0.0123958
0.012043
0.0117031
0.0113728
0.0110493
0.01073
0.0104123
0.0100941
0.00977303
0.00944697
0.00911367
0.00877085
0.00841613
0.008047
0.00766078
0.00725462
0.00682542
0.00636991
0.00588441
0.00536521
0.00480801
0.0042087
0.00356233
0.0028647
0.00211002
0.00129478
0.00041062
-0.000544351
-0.0015883
-0.00273277
-0.0040314
-0.0055951
-0.00765382
-0.0107514
0.0572467
0.0393218
0.0260562
0.0223248
0.0213756
0.0199174
0.0183813
0.0172563
0.0164332
0.01574
0.0151204
0.0145656
0.0140667
0.0136119
0.0131916
0.0127985
0.0124269
0.0120725
0.0117313
0.0114
0.0110757
0.0107557
0.0104377
0.0101193
0.00979837
0.00947265
0.00913995
0.00879804
0.00844456
0.00807706
0.00769294
0.00728941
0.00686348
0.00641199
0.00593142
0.00541822
0.00486829
0.00427775
0.00364194
0.00295686
0.0022171
0.00141912
0.000555039
-0.000378424
-0.00139875
-0.00252271
-0.00380487
-0.00536058
-0.00741752
-0.0104551
0.0552917
0.0392094
0.0264917
0.0225005
0.021461
0.0200323
0.0184896
0.0173373
0.0164983
0.015798
0.0151728
0.0146126
0.0141091
0.0136509
0.0132277
0.0128322
0.0124587
0.0121027
0.0117601
0.0114278
0.0111027
0.0107822
0.0104639
0.0101454
0.00982456
0.00949923
0.00916721
0.00882628
0.00847415
0.00810841
0.00772652
0.00732579
0.00690332
0.00645608
0.00598072
0.00547381
0.00493154
0.00435018
0.00372542
0.00305344
0.00232924
0.00154925
0.000706069
-0.000204745
-0.0012002
-0.00230106
-0.00356253
-0.00509998
-0.00713313
-0.0100762
0.0534174
0.0390297
0.0268934
0.0226768
0.0215382
0.0201398
0.0185974
0.0174192
0.0165635
0.0158561
0.0152256
0.0146601
0.0141522
0.0136904
0.0132644
0.0128666
0.0124912
0.0121335
0.0117897
0.0114563
0.0111305
0.0108094
0.0104908
0.0101722
0.00985162
0.00952675
0.00919548
0.00885563
0.00850494
0.00814108
0.00776158
0.00736382
0.00694502
0.00650226
0.00603236
0.00553208
0.00499781
0.00442605
0.00381282
0.0031545
0.0024465
0.00168524
0.000863787
-2.32372e-05
-0.00099246
-0.00206737
-0.00330334
-0.00481213
-0.00680029
-0.00961859
0.0516233
0.0387867
0.027259
0.0228533
0.0216081
0.0202394
0.0187038
0.017502
0.0166288
0.0159142
0.0152787
0.0147082
0.0141958
0.0137305
0.0133018
0.0129016
0.0125242
0.012165
0.0118199
0.0114855
0.0111589
0.0108374
0.0105185
0.0102
0.00987959
0.00955524
0.0092248
0.00888612
0.008537
0.00817515
0.00779817
0.00740356
0.00698863
0.00655061
0.00608645
0.00559311
0.00506722
0.00450549
0.00390427
0.00326017
0.002569
0.00182722
0.00102836
0.000166318
-0.000775104
-0.00182106
-0.00302622
-0.00449591
-0.00641918
-0.00908625
0.0499085
0.0384854
0.027586
0.0230297
0.0216714
0.0203304
0.0188081
0.0175854
0.0166944
0.0159722
0.0153321
0.0147568
0.01424
0.0137712
0.0133397
0.0129372
0.012558
0.0121971
0.0118508
0.0115155
0.0111882
0.0108662
0.0105471
0.0102286
0.00990849
0.00958474
0.00925522
0.00891781
0.00857036
0.00821066
0.00783638
0.0074451
0.00703426
0.0066012
0.00614308
0.00565701
0.00513988
0.00458862
0.00399991
0.0033706
0.00269689
0.00197538
0.00120002
0.000364231
-0.000547644
-0.00156149
-0.00273017
-0.00415047
-0.00599057
-0.008484
0.0482718
0.0381308
0.0278726
0.023205
0.0217291
0.0204126
0.0189095
0.0176693
0.01676
0.0160301
0.0153857
0.0148058
0.0142848
0.0138125
0.0133781
0.0129734
0.0125923
0.01223
0.0118824
0.0115461
0.0112181
0.0108957
0.0105765
0.0102581
0.00993837
0.0096153
0.00928678
0.00895074
0.0086051
0.00824768
0.00787626
0.0074885
0.00708197
0.00665414
0.00620235
0.00572389
0.00521591
0.00467556
0.00409986
0.00348593
0.00283037
0.00212991
0.00137899
0.00057083
-0.000309607
-0.00128803
-0.00241433
-0.00377525
-0.0055158
-0.0078172
0.0467117
0.0377281
0.0281172
0.0233779
0.0217821
0.0204857
0.0190072
0.0177533
0.0168259
0.0160877
0.0154393
0.0148552
0.01433
0.0138542
0.0134172
0.0130103
0.0126273
0.0122635
0.0119147
0.0115776
0.0112489
0.0109261
0.0106068
0.0102885
0.00996926
0.00964694
0.00931952
0.00898497
0.00864125
0.00828628
0.00791788
0.00753384
0.00713185
0.00670952
0.00626437
0.00579387
0.00529543
0.00476645
0.00420429
0.00360633
0.00296959
0.00229102
0.00156555
0.00078643
-6.05334e-05
-0.00100007
-0.00207806
-0.00337009
-0.00499677
-0.0070917
0.0452262
0.0372829
0.0283184
0.0235468
0.0218314
0.0205498
0.0191003
0.017837
0.0168918
0.0161451
0.0154928
0.0149049
0.0143756
0.0138965
0.0134568
0.0130477
0.012663
0.0122977
0.0119478
0.0116097
0.0112805
0.0109574
0.010638
0.0103199
0.0100012
0.00967973
0.0093535
0.00902055
0.00867889
0.00832651
0.00796132
0.00758121
0.00718399
0.00676743
0.00632923
0.00586705
0.00537856
0.00486142
0.00431332
0.00373195
0.00311474
0.00245891
0.00175992
0.00101132
0.000199991
-0.000697158
-0.00172098
-0.00293527
-0.00443596
-0.00631379
0.0438132
0.0368008
0.0284754
0.0237098
0.0218779
0.0206051
0.0191879
0.0179201
0.0169579
0.016202
0.0155461
0.0149548
0.0144217
0.0139392
0.0134969
0.0130857
0.0126993
0.0123326
0.0119815
0.0116427
0.0113129
0.0109895
0.0106701
0.0103524
0.0100342
0.00971368
0.00938876
0.00905754
0.00871808
0.00836844
0.00800665
0.00763068
0.00723849
0.00682798
0.00639704
0.00594355
0.00546543
0.0049606
0.00442709
0.00386293
0.00326596
0.00263375
0.00196235
0.00124576
0.00047225
-0.000378944
-0.00134299
-0.00247154
-0.00383631
-0.00549012
0.0424703
0.0362873
0.0285879
0.0238644
0.0219224
0.0206519
0.0192693
0.0180019
0.017024
0.0162586
0.0155991
0.0150048
0.0144682
0.0139825
0.0135375
0.0131244
0.0127362
0.0123681
0.0120161
0.0116764
0.0113462
0.0110226
0.0107032
0.0103858
0.0100684
0.00974886
0.00942535
0.00909597
0.00875886
0.00841215
0.00805394
0.00768233
0.00729541
0.00689124
0.0064679
0.00602348
0.00555614
0.00506411
0.00454574
0.00399941
0.00342341
0.0028157
0.00217306
0.00149
0.000756478
-4.52608e-05
-0.000944275
-0.00198005
-0.00320123
-0.00462756
0.0411948
0.0357481
0.028656
0.0240084
0.0219655
0.0206908
0.0193439
0.0180818
0.0170899
0.0163148
0.0156517
0.0150548
0.0145149
0.0140261
0.0135787
0.0131635
0.0127738
0.0124044
0.0120513
0.011711
0.0113803
0.0110565
0.0107373
0.0104204
0.0101037
0.0097853
0.00946332
0.00913592
0.00880131
0.00845769
0.00810327
0.00773625
0.00735487
0.00695733
0.00654192
0.00610694
0.00565082
0.00517207
0.00466939
0.00414152
0.00358722
0.0030049
0.00239213
0.00174417
0.00105291
0.000303908
-0.000525304
-0.00146235
-0.00253449
-0.00373315
0.0399838
0.0351885
0.0286803
0.0241391
0.0220076
0.0207225
0.019411
0.0181592
0.0171556
0.0163705
0.0157038
0.0151047
0.0145619
0.0140701
0.0136203
0.0132032
0.0128119
0.0124414
0.0120873
0.0117463
0.0114153
0.0110914
0.0107724
0.010456
0.0101402
0.00982304
0.00950271
0.00917744
0.00884548
0.00850513
0.0081547
0.00779252
0.00741693
0.00702633
0.00661919
0.00619403
0.00574956
0.00528458
0.00479814
0.00428936
0.0037575
0.00320148
0.00261966
0.0020084
0.0013616
0.000668364
-8.6868e-05
-0.000920418
-0.00184021
-0.00281396
0.0388345
0.0346137
0.028662
0.0242543
0.0220487
0.0207477
0.0194705
0.0182334
0.0172208
0.0164257
0.0157553
0.0151543
0.014609
0.0141144
0.0136623
0.0132434
0.0128507
0.012479
0.0121241
0.0117825
0.0114511
0.0111273
0.0108086
0.0104928
0.0101779
0.00986214
0.00954359
0.00922057
0.00889144
0.00855455
0.00820832
0.0078512
0.00748168
0.00709833
0.0066998
0.00628486
0.00585247
0.00540174
0.00493209
0.00444303
0.00393433
0.00340548
0.00285573
0.00228269
0.00168239
0.0010477
0.00036995
-0.000356583
-0.00112278
-0.00187702
0.0377438
0.0340283
0.0286027
0.0243516
0.0220886
0.0207672
0.019522
0.0183036
0.0172851
0.0164805
0.015806
0.0152036
0.0146562
0.0141591
0.0137047
0.0132841
0.0128901
0.0125173
0.0121616
0.0118195
0.0114879
0.0111642
0.0108458
0.0105308
0.010217
0.00990262
0.00958598
0.00926539
0.00893924
0.00860601
0.0082642
0.00791238
0.00754921
0.00717341
0.00678384
0.0063795
0.00595963
0.00552365
0.00507132
0.0046026
0.00411777
0.00361697
0.00310036
0.00256692
0.00201503
0.00144133
0.000843826
0.000226534
-0.000386762
-0.000929286
0.0367087
0.0334367
0.0285045
0.0244294
0.0221265
0.0207817
0.0195655
0.0183693
0.0173482
0.0165346
0.0158561
0.0152523
0.0147033
0.0142039
0.0137475
0.0133253
0.01293
0.0125563
0.0121999
0.0118573
0.0115256
0.011202
0.0108842
0.0105699
0.0102573
0.00994455
0.00962995
0.00931193
0.00898895
0.00865956
0.0083224
0.00797614
0.0076196
0.00725166
0.0068714
0.00647805
0.00607112
0.00565035
0.00521589
0.00476811
0.00430785
0.00383591
0.00335346
0.00286094
0.0023591
0.0018484
0.00133312
0.000826021
0.000363119
2.25292e-05
0.0357261
0.0328426
0.02837
0.024486
0.0221614
0.0207919
0.0196012
0.0184298
0.0174096
0.0165881
0.0159053
0.0153005
0.0147503
0.0142489
0.0137905
0.0133669
0.0129705
0.0125959
0.0122389
0.011896
0.0115643
0.0112409
0.0109236
0.0106103
0.010299
0.00998794
0.00967555
0.00936025
0.00904062
0.00871528
0.00838299
0.00804254
0.0076929
0.00733314
0.00696254
0.00658057
0.00618701
0.00578192
0.00536584
0.00493958
0.00450455
0.00406225
0.00361489
0.00316446
0.00271406
0.00226785
0.00183596
0.00143876
0.00112207
0.000971932
0.0347929
0.0322494
0.0282021
0.0245203
0.0221923
0.0207982
0.0196294
0.0184844
0.0174688
0.0166408
0.0159537
0.0153479
0.0147969
0.014294
0.0138339
0.0134088
0.0130115
0.0126361
0.0122786
0.0119355
0.0116038
0.0112808
0.0109642
0.0106519
0.010342
0.0100329
0.0097228
0.00941041
0.0090943
0.00877323
0.00844603
0.00811165
0.00776921
0.00741794
0.00705734
0.00668712
0.00630734
0.00591839
0.00552118
0.00511699
0.0047078
0.00429585
0.00388442
0.00347704
0.00307915
0.00269845
0.00235029
0.00206144
0.00188528
0.00191272
0.0339064
0.0316601
0.0280038
0.0245313
0.0222176
0.0208012
0.0196503
0.0185329
0.0175252
0.0166924
0.0160011
0.0153945
0.0148432
0.0143391
0.0138775
0.0134512
0.0130529
0.012677
0.0123191
0.0119759
0.0116443
0.0113218
0.011006
0.0106949
0.0103865
0.0100793
0.00977177
0.00946245
0.00915006
0.00883346
0.00851159
0.00818354
0.00784856
0.0075061
0.00715584
0.00679774
0.00643214
0.00605977
0.0056819
0.00530029
0.00491749
0.00453653
0.00416172
0.00379813
0.00345351
0.00313878
0.0028738
0.00269062
0.00264803
0.00283906
0.0330634
0.0310771
0.0277786
0.0245188
0.0222359
0.0208009
0.0196646
0.0185748
0.0175784
0.0167428
0.0160476
0.0154401
0.0148888
0.0143841
0.0139212
0.0134938
0.0130948
0.0127184
0.0123603
0.0120171
0.0116858
0.0113639
0.011049
0.0107391
0.0104324
0.0101274
0.0098225
0.00951641
0.00920794
0.00889602
0.00857972
0.00825825
0.00793103
0.00759768
0.00725809
0.00691247
0.00656143
0.00620603
0.00584794
0.00548937
0.00513346
0.00478401
0.00444637
0.00412711
0.00383611
0.0035872
0.00340403
0.00332278
0.0034057
0.0037456
0.0322614
0.0305024
0.0275297
0.0244826
0.0222457
0.0207974
0.0196727
0.0186101
0.0176277
0.0167916
0.016093
0.0154848
0.0149339
0.0144288
0.013965
0.0135368
0.0131372
0.0127604
0.0124022
0.0120591
0.0117282
0.011407
0.0110931
0.0107847
0.0104798
0.0101771
0.00987501
0.00957235
0.00926799
0.00896097
0.00865046
0.00833583
0.00801665
0.0076927
0.00736411
0.00703131
0.0066952
0.00635716
0.00601923
0.00568409
0.00535548
0.00503795
0.00473786
0.00446318
0.00422575
0.00404192
0.00393843
0.0039544
0.00415377
0.00462733
0.0314978
0.0299378
0.0272605
0.0244232
0.0222457
0.0207904
0.0196751
0.0186386
0.0176728
0.0168385
0.0161373
0.0155284
0.0149781
0.0144732
0.0140088
0.0135799
0.0131799
0.012803
0.0124448
0.012102
0.0117716
0.0114512
0.0111385
0.0108316
0.0105287
0.0102284
0.00992935
0.0096303
0.00933025
0.00902834
0.00872387
0.00841633
0.00810545
0.00779121
0.00747392
0.00715426
0.00683341
0.00651305
0.00619563
0.00588427
0.00558327
0.00529793
0.00503556
0.00480542
0.0046211
0.00450106
0.00447433
0.00458195
0.00488803
0.00547972
0.03077
0.0293844
0.0269741
0.0243412
0.0222345
0.0207796
0.0196723
0.0186604
0.0177131
0.016883
0.0161803
0.0155708
0.0150214
0.0145171
0.0140526
0.0136232
0.0132229
0.012846
0.0124881
0.0121456
0.0118159
0.0114965
0.0111851
0.0108799
0.0105792
0.0102815
0.00998555
0.00969029
0.00939475
0.00909817
0.00879997
0.00849977
0.00819746
0.0078932
0.0075875
0.00728128
0.00697599
0.00667363
0.00637699
0.00608966
0.00581647
0.00556344
0.00533876
0.00515283
0.00502071
0.00496257
0.00500902
0.00520199
0.00560452
0.00629882
0.0300758
0.0288433
0.0266737
0.0242378
0.0222112
0.0207643
0.0196645
0.0186757
0.0177482
0.0169249
0.0162217
0.015612
0.0150637
0.0145604
0.0140961
0.0136666
0.0132663
0.0128895
0.0125319
0.0121901
0.0118612
0.0115429
0.011233
0.0109296
0.0106311
0.0103362
0.0100436
0.00975236
0.00946153
0.00917049
0.00887879
0.00858617
0.00829269
0.00799867
0.00770483
0.00741233
0.00712285
0.00683873
0.00656309
0.00629997
0.00605468
0.0058339
0.00564664
0.00550426
0.00542303
0.00542438
0.00553978
0.00581118
0.00629949
0.00708113
0.029413
0.0283151
0.026362
0.0241142
0.0221749
0.020744
0.0196521
0.0186847
0.0177779
0.0169636
0.0162615
0.0156519
0.0151049
0.014603
0.0141394
0.01371
0.0133098
0.0129335
0.0125764
0.0122353
0.0119074
0.0115903
0.011282
0.0109807
0.0106847
0.0103927
0.0101036
0.00981652
0.00953061
0.00924533
0.00896034
0.00867554
0.00839112
0.00810759
0.00782586
0.00754731
0.00727388
0.00700818
0.00675369
0.00651483
0.00629739
0.00610865
0.00595827
0.00585849
0.00582643
0.00588432
0.00606395
0.00640646
0.00696962
0.00782361
0.0287796
0.0278002
0.0260415
0.0239719
0.0221252
0.0207179
0.0196352
0.0186878
0.0178021
0.0169988
0.0162993
0.0156903
0.0151449
0.0146447
0.0141822
0.0137534
0.0133536
0.0129778
0.0126215
0.0122813
0.0119545
0.0116389
0.0113323
0.0110331
0.0107397
0.0104509
0.0101655
0.0098828
0.009602
0.00932268
0.00904463
0.00876787
0.00849274
0.00821993
0.00795052
0.00768612
0.0074289
0.00718176
0.00694847
0.00673383
0.00654405
0.00638692
0.00627267
0.00621419
0.00622918
0.00634023
0.00657885
0.00698483
0.00761202
0.00852393
0.0281739
0.027299
0.0257147
0.0238126
0.0220618
0.0206851
0.0196137
0.018685
0.0178206
0.0170301
0.0163349
0.0157273
0.0151836
0.0146855
0.0142245
0.0137966
0.0133974
0.0130224
0.012667
0.012328
0.0120025
0.0116885
0.0113839
0.011087
0.0107964
0.0105109
0.0102294
0.0099512
0.0096757
0.00940256
0.00913165
0.00886314
0.00859751
0.00833561
0.00807872
0.00782862
0.00758774
0.0073592
0.00714709
0.0069565
0.00679404
0.00666791
0.00658879
0.00657002
0.00662952
0.00678995
0.007082
0.00754346
0.00822397
0.0091801
0.027594
0.0268115
0.0253836
0.023638
0.0219849
0.0206452
0.0195876
0.0186768
0.0178333
0.0170573
0.0163679
0.0157625
0.0152209
0.0147252
0.0142662
0.0138395
0.0134414
0.0130673
0.0127131
0.0123753
0.0120514
0.0117392
0.0114367
0.0111423
0.0108547
0.0105726
0.0102952
0.0100217
0.00975172
0.00948494
0.00922137
0.0089613
0.00870536
0.00845455
0.00821031
0.00797464
0.00775014
0.0075402
0.00734913
0.00718233
0.00704668
0.00695073
0.00690547
0.00692452
0.00702572
0.00723141
0.00757104
0.0080799
0.00880326
0.0097907
0.0270384
0.0263376
0.0250499
0.02345
0.0218945
0.0205973
0.0195566
0.0186634
0.0178405
0.0170799
0.0163981
0.0157958
0.0152568
0.0147638
0.0143071
0.0138821
0.0134852
0.0131124
0.0127595
0.0124233
0.0121011
0.0117908
0.0114907
0.011199
0.0109145
0.010636
0.0103629
0.0100943
0.00983003
0.0095698
0.00931375
0.00906231
0.00881622
0.00857663
0.00834516
0.00812396
0.00791585
0.0077244
0.00755414
0.00741071
0.00730122
0.00723444
0.00722154
0.0072762
0.00741603
0.00766258
0.00804371
0.00859206
0.00934814
0.0103548
0.0265056
0.0258773
0.0247153
0.0232503
0.0217914
0.0205412
0.0195206
0.0186449
0.0178421
0.017098
0.0164252
0.0158271
0.0152911
0.0148011
0.0143472
0.0139243
0.013529
0.0131576
0.0128064
0.0124719
0.0121516
0.0118435
0.0115458
0.011257
0.0109758
0.0107012
0.0104325
0.0101691
0.00991061
0.0096571
0.00940875
0.00916607
0.00892997
0.00870171
0.00848307
0.00827636
0.00808456
0.00791141
0.00776162
0.00764102
0.00755686
0.00751805
0.00753578
0.00762362
0.00779866
0.00808149
0.00849805
0.00907806
0.00985718
0.010872
0.0259943
0.0254304
0.024381
0.0230405
0.021676
0.0204764
0.0194791
0.0186214
0.0178384
0.0171112
0.0164489
0.0158562
0.0153237
0.0148371
0.0143862
0.0139658
0.0135725
0.013203
0.0128535
0.012521
0.0122029
0.0118972
0.0116021
0.0113164
0.0110387
0.0107681
0.010504
0.0102458
0.00999342
0.00974679
0.00950628
0.00927251
0.00904649
0.00882964
0.00862384
0.00843156
0.00825591
0.00810078
0.00797103
0.00787257
0.00781276
0.00780052
0.00784691
0.00796534
0.00817204
0.00848625
0.00893223
0.00953632
0.0103294
0.0113424
0.0255033
0.0249965
0.0240483
0.0228224
0.0215493
0.0204028
0.0194319
0.0185929
0.0178294
0.0171196
0.016469
0.0158827
0.0153544
0.0148716
0.0144242
0.0140067
0.0136158
0.0132483
0.012901
0.0125706
0.0122549
0.0119517
0.0116596
0.011377
0.011103
0.0108367
0.0105773
0.0103246
0.0100784
0.0098388
0.00960625
0.00938149
0.00916563
0.0089602
0.00876722
0.00858924
0.00842952
0.00829205
0.00818176
0.00810464
0.00806804
0.0080808
0.00815372
0.00829978
0.00853456
0.00887542
0.00934465
0.00996548
0.0107643
0.0117663
0.0250314
0.0245755
0.0237181
0.0225974
0.021412
0.0203205
0.0193788
0.0185596
0.0178153
0.0171231
0.0164852
0.0159066
0.0153832
0.0149046
0.014461
0.0140468
0.0136587
0.0132936
0.0129486
0.0126207
0.0123075
0.0120072
0.0117181
0.011439
0.0111689
0.0109069
0.0106525
0.0104053
0.0101655
0.00993302
0.00970855
0.00949288
0.00928721
0.00909319
0.00891292
0.00874908
0.00860497
0.00848468
0.00839318
0.00833647
0.0083218
0.00835782
0.00845498
0.00862554
0.00888473
0.00924751
0.00973407
0.0103646
0.0111614
0.0121445
0.0245776
0.0241671
0.0233911
0.0223669
0.0212652
0.0202294
0.0193195
0.0185213
0.0177962
0.0171218
0.0164974
0.0159276
0.0154099
0.0149359
0.0144965
0.014086
0.013701
0.0133387
0.0129963
0.0126711
0.0123608
0.0120634
0.0117776
0.0115022
0.0112361
0.0109786
0.0107293
0.0104879
0.0102545
0.0100294
0.00981305
0.0096065
0.00941103
0.00922835
0.00906065
0.00891067
0.0087818
0.00867813
0.00860464
0.00856726
0.0085731
0.00863052
0.00874947
0.00894145
0.00921988
0.0096008
0.0100994
0.0107333
0.0115211
0.0124783
0.024141
0.0237708
0.0230681
0.0221322
0.0211099
0.02013
0.0192538
0.018478
0.0177722
0.0171157
0.0165056
0.0159454
0.0154343
0.0149654
0.0145306
0.0141242
0.0137427
0.0133835
0.0130441
0.0127218
0.0124145
0.0121204
0.0118381
0.0115665
0.0113046
0.0110519
0.0108078
0.0105723
0.0103455
0.0101277
0.00991958
0.00972218
0.00953686
0.0093654
0.00921006
0.00907363
0.00895951
0.00887181
0.00881544
0.00879622
0.00882101
0.00889785
0.00903609
0.00924642
0.00954106
0.00993419
0.0104396
0.011071
0.0118437
0.0127695
0.0237205
0.0233865
0.0227497
0.0218944
0.0209471
0.0200227
0.0191818
0.0184296
0.0177435
0.0171049
0.0165096
0.01596
0.0154563
0.014993
0.0145633
0.0141613
0.0137837
0.013428
0.0130918
0.0127727
0.0124687
0.0121781
0.0118995
0.0116319
0.0113744
0.0111265
0.0108879
0.0106584
0.0104382
0.0102279
0.010028
0.0098397
0.00966443
0.00950403
0.00936078
0.0092375
0.00913759
0.00906511
0.00902487
0.0090225
0.00906461
0.00915878
0.00931373
0.00953925
0.0098463
0.0102469
0.0107532
0.0113773
0.01213
0.0130194
0.0233155
0.0230137
0.0224362
0.0216546
0.0207778
0.0199078
0.0191035
0.018376
0.01771
0.0170895
0.0165093
0.0159712
0.0154756
0.0150187
0.0145943
0.0141972
0.0138239
0.013472
0.0131394
0.0128238
0.0125233
0.0122364
0.0119617
0.0116983
0.0114454
0.0112025
0.0109694
0.010746
0.0105326
0.0103297
0.0101381
0.00995882
0.00979347
0.0096439
0.00951241
0.00940182
0.00931548
0.00925739
0.00923219
0.00924532
0.009303
0.00941235
0.00958138
0.00981895
0.0101347
0.0105389
0.0110418
0.0116528
0.0123804
0.0132292
0.0229251
0.0226523
0.0221281
0.0214138
0.020603
0.019786
0.0190189
0.0183174
0.0176719
0.0170695
0.0165049
0.0159789
0.0154923
0.0150422
0.0146236
0.0142318
0.0138632
0.0135155
0.0131867
0.0128749
0.0125782
0.0122952
0.0120246
0.0117656
0.0115174
0.0112797
0.0110522
0.0108351
0.0106285
0.010433
0.0102496
0.0100793
0.00992368
0.00978466
0.00966454
0.0095661
0.00949263
0.009448
0.00943669
0.00946384
0.0095353
0.00965763
0.00983812
0.0100846
0.0104056
0.0108096
0.0113049
0.0118988
0.0125971
0.0134019
0.0225487
0.0223017
0.0218257
0.0211727
0.0204236
0.0196579
0.0189283
0.0182536
0.0176292
0.0170451
0.0164963
0.015983
0.015506
0.0150635
0.0146512
0.014265
0.0139014
0.0135582
0.0132336
0.0129259
0.0126333
0.0123544
0.0120881
0.0118336
0.0115904
0.011358
0.0111363
0.0109254
0.0107256
0.0105376
0.0103623
0.0102008
0.0100547
0.00992592
0.00981671
0.00972983
0.00966845
0.00963631
0.00963764
0.0096773
0.00976068
0.00989378
0.0100831
0.0103356
0.0106584
0.0110586
0.0115426
0.0121158
0.0127817
0.0135405
0.0221855
0.0219618
0.0215292
0.0209322
0.0202404
0.0195241