/*--------------------------------*- C++ -*----------------------------------*\
  =========                 |
  \\      /  F ield         | OpenFOAM: The Open Source CFD Toolbox
   \\    /   O peration     | Website:  https://openfoam.org
    \\  /    A nd           | Version:  7
     \\/     M anipulation  |
\*---------------------------------------------------------------------------*/
FoamFile
{
    version     2.0;
    format      ascii;
    class       surfaceScalarField;
    location    "0.45";
    object      phi;
}
// * * * * * * * * * * * * * * * * * * * * * * * * * * * * * * * * * * * * * //

dimensions      [0 3 -1 0 0 0 0];

internalField   nonuniform List<scalar> 
139350
(
6.45132e-08
9.21183e-08
3.19676e-08
3.25456e-08
2.30642e-08
8.90339e-09
1.95811e-08
3.48309e-09
1.76306e-08
1.95049e-09
1.62016e-08
1.42899e-09
1.50697e-08
1.13191e-09
1.41583e-08
9.11431e-10
1.34087e-08
7.49576e-10
1.27777e-08
6.31001e-10
1.22365e-08
5.41185e-10
1.17658e-08
4.70676e-10
1.1352e-08
4.13881e-10
1.09847e-08
3.67281e-10
1.06562e-08
3.2847e-10
1.03605e-08
2.95721e-10
1.00927e-08
2.67763e-10
9.84909e-09
2.4364e-10
9.62647e-09
2.22622e-10
9.42233e-09
2.04144e-10
9.23457e-09
1.87759e-10
9.06146e-09
1.73111e-10
8.90155e-09
1.59909e-10
8.75363e-09
1.47913e-10
8.61671e-09
1.36924e-10
8.48994e-09
1.2677e-10
8.37264e-09
1.17299e-10
8.26426e-09
1.08381e-10
8.16437e-09
9.98865e-11
8.07267e-09
9.17067e-11
7.98895e-09
8.37154e-11
7.91313e-09
7.58181e-11
7.84527e-09
6.78648e-11
7.7855e-09
5.9772e-11
7.73416e-09
5.13415e-11
7.69165e-09
4.25036e-11
7.65868e-09
3.29749e-11
7.63596e-09
2.27168e-11
7.62467e-09
1.12859e-11
7.62588e-09
-1.20247e-12
7.64147e-09
-1.55889e-11
7.67269e-09
-3.1228e-11
7.72206e-09
-4.93617e-11
7.79193e-09
-6.98765e-11
7.88066e-09
-8.8727e-11
8.00035e-09
-1.19694e-10
8.11902e-09
-1.18664e-10
8.30328e-09
-1.84263e-10
8.18782e-09
1.1546e-10
-3.49393e-09
1.16817e-08
1.25945e-07
1.27617e-07
9.12952e-08
6.71951e-08
7.19473e-08
2.82513e-08
6.12365e-08
1.4194e-08
5.4804e-08
8.38295e-09
5.03123e-08
5.92071e-09
4.68305e-08
4.61372e-09
4.40195e-08
3.72237e-09
4.16989e-08
3.07019e-09
3.97433e-08
2.58659e-09
3.80657e-08
2.21883e-09
3.6606e-08
1.93033e-09
3.53217e-08
1.69818e-09
3.41813e-08
1.50778e-09
3.31605e-08
1.34922e-09
3.22408e-08
1.21546e-09
3.14072e-08
1.10129e-09
3.06481e-08
1.00282e-09
2.99536e-08
9.17072e-10
2.9316e-08
8.41748e-10
2.87287e-08
7.75028e-10
2.81864e-08
7.15465e-10
2.76844e-08
6.61881e-10
2.7219e-08
6.13307e-10
2.6787e-08
5.68939e-10
2.63857e-08
5.28087e-10
2.60128e-08
4.90155e-10
2.56666e-08
4.54617e-10
2.53455e-08
4.20984e-10
2.50484e-08
3.88816e-10
2.47744e-08
3.57661e-10
2.45231e-08
3.27122e-10
2.42943e-08
2.96694e-10
2.40881e-08
2.66009e-10
2.3905e-08
2.34385e-10
2.3746e-08
2.01549e-10
2.36126e-08
1.66379e-10
2.35064e-08
1.2894e-10
2.34306e-08
8.70821e-11
2.33873e-08
4.20348e-11
2.33827e-08
-1.09398e-11
2.34185e-08
-6.70283e-11
2.35056e-08
-1.36537e-10
2.3643e-08
-2.07207e-10
2.38504e-08
-2.96165e-10
2.41146e-08
-3.83905e-10
2.44638e-08
-4.67864e-10
2.48942e-08
-6.14609e-10
2.51604e-08
-1.50793e-10
-4.11262e-09
2.57791e-08
1.58754e-07
1.35267e-07
1.36533e-07
8.94161e-08
1.17506e-07
4.7278e-08
1.03336e-07
2.83638e-08
9.33492e-08
1.83698e-08
8.60557e-08
1.32142e-08
8.03546e-08
1.03148e-08
7.57098e-08
8.36713e-09
7.18393e-08
6.94076e-09
6.85555e-08
5.87039e-09
6.57252e-08
5.04909e-09
6.32538e-08
4.40171e-09
6.10728e-08
3.87917e-09
5.91311e-08
3.44955e-09
5.73893e-08
3.09103e-09
5.58167e-08
2.78802e-09
5.43889e-08
2.52903e-09
5.30863e-08
2.30542e-09
5.18929e-08
2.11055e-09
5.07953e-08
1.93929e-09
4.97828e-08
1.78756e-09
4.88461e-08
1.65213e-09
4.79776e-08
1.53037e-09
4.71709e-08
1.42009e-09
4.64203e-08
1.3195e-09
4.57213e-08
1.22705e-09
4.50701e-08
1.14144e-09
4.44632e-08
1.06147e-09
4.38981e-08
9.86098e-10
4.33726e-08
9.14341e-10
4.2885e-08
8.45251e-10
4.24342e-08
7.77941e-10
4.20195e-08
7.11393e-10
4.16407e-08
6.44785e-10
4.12983e-08
5.76732e-10
4.09932e-08
5.06671e-10
4.07274e-08
4.32172e-10
4.05027e-08
3.53643e-10
4.03238e-08
2.66044e-10
4.01929e-08
1.72849e-10
4.01194e-08
6.26275e-11
4.01047e-08
-5.23513e-11
4.0167e-08
-1.98787e-10
4.02998e-08
-3.40033e-10
4.05449e-08
-5.41321e-10
4.08605e-08
-6.99476e-10
4.13405e-08
-9.4784e-10
4.18925e-08
-1.16659e-09
4.25045e-08
-7.62782e-10
-4.03077e-09
4.24226e-08
1.75612e-07
1.31171e-07
1.65628e-07
9.94001e-08
1.52747e-07
6.01596e-08
1.40146e-07
4.09645e-08
1.29474e-07
2.90412e-08
1.20844e-07
2.18446e-08
1.1374e-07
1.74187e-08
1.07768e-07
1.43395e-08
1.02677e-07
1.20318e-08
9.82848e-08
1.02623e-08
9.44523e-08
8.88156e-09
9.10739e-08
7.78014e-09
8.80697e-08
6.88336e-09
8.53783e-08
6.14093e-09
8.29515e-08
5.51788e-09
8.07507e-08
4.98884e-09
7.87448e-08
4.5349e-09
7.69085e-08
4.14171e-09
7.52209e-08
3.79817e-09
7.36646e-08
3.4956e-09
7.2225e-08
3.22711e-09
7.089e-08
2.98715e-09
6.96491e-08
2.77122e-09
6.84936e-08
2.57559e-09
6.7416e-08
2.39717e-09
6.64097e-08
2.23328e-09
6.54695e-08
2.08168e-09
6.45906e-08
1.94032e-09
6.37693e-08
1.80741e-09
6.30024e-08
1.68127e-09
6.22874e-08
1.56031e-09
6.16223e-08
1.44301e-09
6.10059e-08
1.32772e-09
6.04377e-08
1.21305e-09
5.99177e-08
1.09673e-09
5.94465e-08
9.77863e-10
5.90263e-08
8.52402e-10
5.86587e-08
7.21224e-10
5.8349e-08
5.75729e-10
5.80997e-08
4.22152e-10
5.79213e-08
2.41009e-10
5.78155e-08
5.34354e-11
5.7804e-08
-1.8723e-10
5.78782e-08
-4.1421e-10
5.80899e-08
-7.53082e-10
5.83895e-08
-9.99023e-10
5.88869e-08
-1.44528e-09
5.94839e-08
-1.76362e-09
6.02099e-08
-1.48873e-09
-4.0274e-09
6.02065e-08
1.84511e-07
1.23446e-07
1.82344e-07
1.01567e-07
1.7613e-07
6.63736e-08
1.6778e-07
4.93138e-08
1.59171e-07
3.76512e-08
1.51275e-07
2.97403e-08
1.44212e-07
2.44814e-08
1.37922e-07
2.06296e-08
1.32332e-07
1.76219e-08
1.27358e-07
1.52364e-08
1.22914e-07
1.3325e-08
1.18925e-07
1.17693e-08
1.15326e-07
1.04826e-08
1.12063e-07
9.40387e-09
1.09092e-07
8.48923e-09
1.06375e-07
7.70589e-09
1.03881e-07
7.02892e-09
1.01584e-07
6.43896e-09
9.94609e-08
5.92085e-09
9.74939e-08
5.46255e-09
9.56667e-08
5.05436e-09
9.39653e-08
4.68846e-09
9.23782e-08
4.35837e-09
9.08951e-08
4.05873e-09
8.95072e-08
3.78505e-09
8.8207e-08
3.53344e-09
8.69881e-08
3.3006e-09
8.58449e-08
3.08354e-09
8.47726e-08
2.87964e-09
8.37675e-08
2.6864e-09
8.28263e-08
2.50155e-09
8.19464e-08
2.32284e-09
8.11263e-08
2.1479e-09
8.03646e-08
1.97468e-09
7.96614e-08
1.79996e-09
7.90168e-08
1.62247e-09
7.84328e-08
1.43638e-09
7.7911e-08
1.243e-09
7.74567e-08
1.03008e-09
7.70725e-08
8.06349e-10
7.6769e-08
5.44486e-10
7.65487e-08
2.73773e-10
7.64333e-08
-7.18498e-11
7.64164e-08
-3.97305e-10
7.65472e-08
-8.83955e-10
7.67894e-08
-1.24119e-09
7.72264e-08
-1.88225e-09
7.78115e-08
-2.34875e-09
7.8516e-08
-2.19325e-09
-4.14289e-09
7.86315e-08
1.90343e-07
1.15319e-07
1.91862e-07
1.00048e-07
1.90269e-07
6.79658e-08
1.86171e-07
5.3412e-08
1.80741e-07
4.30811e-08
1.75e-07
3.54821e-08
1.69313e-07
3.01676e-08
1.63839e-07
2.61034e-08
1.58675e-07
2.27861e-08
1.53863e-07
2.00489e-08
1.49405e-07
1.77827e-08
1.45286e-07
1.58884e-08
1.41481e-07
1.4287e-08
1.37966e-07
1.29197e-08
1.34712e-07
1.17425e-08
1.31697e-07
1.07212e-08
1.28897e-07
9.82882e-09
1.26292e-07
9.04375e-09
1.23864e-07
8.34868e-09
1.21597e-07
7.72951e-09
1.19477e-07
7.17471e-09
1.17491e-07
6.67476e-09
1.15627e-07
6.22172e-09
1.13877e-07
5.8089e-09
1.12232e-07
5.43062e-09
1.10683e-07
5.08195e-09
1.09225e-07
4.75862e-09
1.07852e-07
4.45677e-09
1.06559e-07
4.17299e-09
1.05341e-07
3.90402e-09
1.04196e-07
3.64686e-09
1.0312e-07
3.39855e-09
1.02112e-07
3.15599e-09
1.0117e-07
2.91649e-09
1.00294e-07
2.67583e-09
9.94844e-08
2.43231e-09
9.87424e-08
2.17838e-09
9.80698e-08
1.91556e-09
9.74716e-08
1.62834e-09
9.69509e-08
1.32702e-09
9.65174e-08
9.77969e-10
9.61753e-08
6.15869e-10
9.59435e-08
1.59948e-10
9.58217e-08
-2.75494e-10
9.58475e-08
-9.09703e-10
9.60093e-08
-1.40306e-09
9.63486e-08
-2.22151e-09
9.68746e-08
-2.87471e-09
9.7515e-08
-2.83373e-09
-4.3177e-09
9.76898e-08
1.95505e-07
1.07629e-07
1.98249e-07
9.73036e-08
1.98991e-07
6.72238e-08
1.97803e-07
5.46005e-08
1.95176e-07
4.57077e-08
1.91846e-07
3.88126e-08
1.88124e-07
3.38896e-08
1.84183e-07
3.00443e-08
1.80173e-07
2.67957e-08
1.76205e-07
2.4017e-08
1.72346e-07
2.16413e-08
1.68636e-07
1.95984e-08
1.65095e-07
1.7828e-08
1.61732e-07
1.62832e-08
1.58547e-07
1.49278e-08
1.55536e-07
1.37322e-08
1.52692e-07
1.26724e-08
1.50008e-07
1.17282e-08
1.47473e-07
1.0883e-08
1.4508e-07
1.01227e-08
1.42819e-07
9.43559e-09
1.40682e-07
8.81171e-09
1.38661e-07
8.24259e-09
1.36749e-07
7.72094e-09
1.34939e-07
7.24047e-09
1.33226e-07
6.79563e-09
1.31603e-07
6.38154e-09
1.30066e-07
5.99372e-09
1.28611e-07
5.62818e-09
1.27234e-07
5.28104e-09
1.25932e-07
4.94871e-09
1.24703e-07
4.62765e-09
1.23545e-07
4.31405e-09
1.22457e-07
4.00466e-09
1.21438e-07
3.69433e-09
1.20489e-07
3.3809e-09
1.19613e-07
3.05532e-09
1.18809e-07
2.71894e-09
1.18084e-07
2.35374e-09
1.1744e-07
1.97033e-09
1.16887e-07
1.531e-09
1.16431e-07
1.07212e-09
1.16086e-07
5.04672e-10
1.1586e-07
-4.94263e-11
1.15777e-07
-8.25944e-10
1.15848e-07
-1.47427e-09
1.1608e-07
-2.45343e-09
1.16517e-07
-3.31198e-09
1.17081e-07
-3.39742e-09
-4.53502e-09
1.17298e-07
2.0082e-07
1.00394e-07
2.03774e-07
9.43496e-08
2.05351e-07
6.56473e-08
2.05656e-07
5.42947e-08
2.04832e-07
4.65316e-08
2.03361e-07
4.02839e-08
2.01422e-07
3.58282e-08
1.99101e-07
3.23656e-08
1.96504e-07
2.93929e-08
1.93733e-07
2.67875e-08
1.9087e-07
2.45045e-08
1.87975e-07
2.2494e-08
1.85091e-07
2.07112e-08
1.82253e-07
1.9122e-08
1.79481e-07
1.76998e-08
1.7679e-07
1.64226e-08
1.74191e-07
1.5272e-08
1.71687e-07
1.42318e-08
1.69282e-07
1.32882e-08
1.66975e-07
1.24294e-08
1.64766e-07
1.16449e-08
1.62652e-07
1.09257e-08
1.60631e-07
1.02639e-08
1.58699e-07
9.65264e-09
1.56854e-07
9.08567e-09
1.55092e-07
8.55744e-09
1.53411e-07
8.06297e-09
1.51807e-07
7.59758e-09
1.50278e-07
7.15701e-09
1.48822e-07
6.73707e-09
1.47437e-07
6.3338e-09
1.46121e-07
5.94323e-09
1.44874e-07
5.56105e-09
1.43695e-07
5.18357e-09
1.42585e-07
4.80484e-09
1.41543e-07
4.42226e-09
1.40573e-07
4.02556e-09
1.39676e-07
3.6156e-09
1.38857e-07
3.17273e-09
1.38121e-07
2.70655e-09
1.37475e-07
2.1776e-09
1.36926e-07
1.62043e-09
1.36487e-07
9.43751e-10
1.36171e-07
2.6726e-10
1.35989e-07
-6.44103e-10
1.35971e-07
-1.4569e-09
1.36101e-07
-2.58332e-09
1.3644e-07
-3.65052e-09
1.36927e-07
-3.88485e-09
-4.79247e-09
1.37185e-07
2.06423e-07
9.35028e-08
2.09334e-07
9.14391e-08
2.11062e-07
6.39193e-08
2.11947e-07
5.34097e-08
2.12016e-07
4.64626e-08
2.11638e-07
4.06616e-08
2.10917e-07
3.65495e-08
2.09854e-07
3.34279e-08
2.0849e-07
3.07577e-08
2.0688e-07
2.83966e-08
2.05083e-07
2.63023e-08
2.03145e-07
2.44314e-08
2.01111e-07
2.27455e-08
1.99016e-07
2.12171e-08
1.9689e-07
1.98262e-08
1.94756e-07
1.85565e-08
1.92633e-07
1.73948e-08
1.90535e-07
1.63291e-08
1.88474e-07
1.53492e-08
1.86458e-07
1.44459e-08
1.84492e-07
1.36111e-08
1.8258e-07
1.28374e-08
1.80725e-07
1.21185e-08
1.7893e-07
1.14483e-08
1.77194e-07
1.08214e-08
1.75519e-07
1.02328e-08
1.73904e-07
9.67798e-09
1.72349e-07
9.15237e-09
1.70854e-07
8.65186e-09
1.69419e-07
8.17224e-09
1.68043e-07
7.70946e-09
1.66727e-07
7.25938e-09
1.65471e-07
6.81736e-09
1.64275e-07
6.37944e-09
1.63141e-07
5.93907e-09
1.6207e-07
5.49328e-09
1.61064e-07
5.03092e-09
1.60128e-07
4.55205e-09
1.59264e-07
4.03625e-09
1.5848e-07
3.49113e-09
1.5778e-07
2.87731e-09
1.57175e-07
2.22506e-09
1.56674e-07
1.44513e-09
1.56293e-07
6.48173e-10
1.56037e-07
-3.88169e-10
1.55946e-07
-1.36587e-09
1.5599e-07
-2.6272e-09
1.56235e-07
-3.89532e-09
1.56657e-07
-4.30721e-09
-5.09546e-09
1.5696e-07
2.12269e-07
8.68956e-08
2.15143e-07
8.85659e-08
2.16817e-07
6.22452e-08
2.17861e-07
5.23651e-08
2.18275e-07
4.60487e-08
2.18399e-07
4.05378e-08
2.18331e-07
3.66177e-08
2.18039e-07
3.37199e-08
2.17517e-07
3.12798e-08
2.16783e-07
2.91303e-08
2.15862e-07
2.72238e-08
2.14777e-07
2.55156e-08
2.13556e-07
2.39665e-08
2.12224e-07
2.25495e-08
2.10804e-07
2.1246e-08
2.09318e-07
2.00424e-08
2.07785e-07
1.89277e-08
2.06222e-07
1.78927e-08
2.04642e-07
1.69296e-08
2.03056e-07
1.60314e-08
2.01475e-07
1.51919e-08
1.99907e-07
1.44057e-08
1.98358e-07
1.36677e-08
1.96833e-07
1.2973e-08
1.95337e-07
1.23175e-08
1.93873e-07
1.16967e-08
1.92444e-07
1.11069e-08
1.91052e-07
1.0544e-08
1.897e-07
1.00042e-08
1.88389e-07
9.48357e-09
1.8712e-07
8.97813e-09
1.85896e-07
8.4838e-09
1.84717e-07
7.99581e-09
1.83587e-07
7.51008e-09
1.82506e-07
7.01968e-09
1.81478e-07
6.52128e-09
1.80506e-07
6.00323e-09
1.79593e-07
5.46462e-09
1.78744e-07
4.8849e-09
1.77966e-07
4.26914e-09
1.77265e-07
3.5792e-09
1.7665e-07
2.83982e-09
1.76129e-07
1.96636e-09
1.7572e-07
1.05648e-09
1.75424e-07
-9.20638e-11
1.75285e-07
-1.22707e-09
1.75269e-07
-2.61058e-09
1.75437e-07
-4.06352e-09
1.75812e-07
-4.68258e-09
-5.45788e-09
1.76175e-07
2.18315e-07
8.0561e-08
2.21192e-07
8.56892e-08
2.2279e-07
6.06476e-08
2.23863e-07
5.1292e-08
2.24385e-07
4.55261e-08
2.24687e-07
4.02365e-08
2.24895e-07
3.64098e-08
2.2498e-07
3.3634e-08
2.24923e-07
3.13368e-08
2.24724e-07
2.93299e-08
2.24386e-07
2.75617e-08
2.23916e-07
2.59858e-08
2.23322e-07
2.456e-08
2.22617e-07
2.32548e-08
2.21813e-07
2.20503e-08
2.20923e-07
2.09323e-08
2.1996e-07
1.98901e-08
2.18938e-07
1.8915e-08
2.17868e-07
1.80001e-08
2.16759e-07
1.71394e-08
2.15624e-07
1.63279e-08
2.14468e-07
1.55609e-08
2.13301e-07
1.48346e-08
2.12129e-07
1.4145e-08
2.10958e-07
1.34887e-08
2.09793e-07
1.28621e-08
2.08638e-07
1.2262e-08
2.07497e-07
1.16849e-08
2.06374e-07
1.11274e-08
2.05271e-07
1.05859e-08
2.04193e-07
1.00565e-08
2.03141e-07
9.53546e-09
2.02119e-07
9.01785e-09
2.0113e-07
8.49963e-09
2.00176e-07
7.97361e-09
1.99261e-07
7.43618e-09
1.98389e-07
6.87544e-09
1.97564e-07
6.28944e-09
1.96791e-07
5.65792e-09
1.96077e-07
4.98325e-09
1.95427e-07
4.22918e-09
1.94852e-07
3.41446e-09
1.94358e-07
2.46047e-09
1.93965e-07
1.44987e-09
1.93668e-07
2.04573e-10
1.93514e-07
-1.07335e-09
1.9347e-07
-2.56598e-09
1.93587e-07
-4.18092e-09
1.93937e-07
-5.03298e-09
-5.89383e-09
1.94373e-07
2.24549e-07
7.45052e-08
2.27452e-07
8.27862e-08
2.28986e-07
5.91138e-08
2.30066e-07
5.02116e-08
2.30629e-07
4.49629e-08
2.30979e-07
3.98866e-08
2.31277e-07
3.61122e-08
2.31511e-07
3.34001e-08
2.31662e-07
3.11852e-08
2.3173e-07
2.92625e-08
2.31712e-07
2.75793e-08
2.31608e-07
2.60902e-08
2.31416e-07
2.47517e-08
2.31139e-07
2.35319e-08
2.3078e-07
2.2409e-08
2.30345e-07
2.13674e-08
2.2984e-07
2.03954e-08
2.29271e-07
1.94837e-08
2.28646e-07
1.86251e-08
2.27972e-07
1.78136e-08
2.27256e-07
1.70443e-08
2.26504e-07
1.63129e-08
2.25722e-07
1.56157e-08
2.24918e-07
1.49495e-08
2.24096e-07
1.43111e-08
2.2326e-07
1.36974e-08
2.22417e-07
1.31055e-08
2.21569e-07
1.25324e-08
2.20722e-07
1.19749e-08
2.19878e-07
1.14296e-08
2.19042e-07
1.0893e-08
2.18216e-07
1.03612e-08
2.17404e-07
9.82947e-09
2.1661e-07
9.29367e-09
2.15837e-07
8.74649e-09
2.15089e-07
8.18402e-09
2.14371e-07
7.5943e-09
2.13686e-07
6.9743e-09
2.13039e-07
6.30433e-09
2.12438e-07
5.58409e-09
2.11888e-07
4.77949e-09
2.11399e-07
3.90338e-09
2.10976e-07
2.88381e-09
2.10638e-07
1.78768e-09
2.1038e-07
4.62752e-10
2.10245e-07
-9.38851e-10
2.10207e-07
-2.52793e-09
2.10305e-07
-4.27839e-09
2.10653e-07
-5.3812e-09
-6.41638e-09
2.11176e-07
2.30975e-07
6.87361e-08
2.33913e-07
7.98481e-08
2.3539e-07
5.7637e-08
2.36479e-07
4.91228e-08
2.37075e-07
4.43666e-08
2.3744e-07
3.95216e-08
2.37759e-07
3.57927e-08
2.38039e-07
3.31201e-08
2.38267e-07
3.0958e-08
2.38443e-07
2.90859e-08
2.38571e-07
2.74514e-08
2.38648e-07
2.6013e-08
2.38672e-07
2.47278e-08
2.38642e-07
2.35628e-08
2.38555e-07
2.24953e-08
2.38414e-07
2.15086e-08
2.38219e-07
2.05901e-08
2.37973e-07
1.97298e-08
2.37679e-07
1.89196e-08
2.37339e-07
1.81531e-08
2.36958e-07
1.7425e-08
2.3654e-07
1.6731e-08
2.36089e-07
1.60672e-08
2.35608e-07
1.54304e-08
2.35102e-07
1.48174e-08
2.34574e-07
1.42254e-08
2.34028e-07
1.36515e-08
2.33467e-07
1.30927e-08
2.32896e-07
1.2546e-08
2.32318e-07
1.20083e-08
2.31735e-07
1.14758e-08
2.31151e-07
1.0945e-08
2.3057e-07
1.04108e-08
2.29994e-07
9.86922e-09
2.29428e-07
9.31273e-09
2.28875e-07
8.73708e-09
2.28339e-07
8.13037e-09
2.27824e-07
7.4885e-09
2.27336e-07
6.79249e-09
2.26881e-07
6.03948e-09
2.26463e-07
5.19758e-09
2.26092e-07
4.27417e-09
2.25772e-07
3.20408e-09
2.25521e-07
2.03839e-09
2.25333e-07
6.51106e-10
2.25247e-07
-8.52752e-10
2.25245e-07
-2.52647e-09
2.25354e-07
-4.38728e-09
2.2572e-07
-5.7474e-09
-7.0292e-09
2.26333e-07
2.37601e-07
6.32597e-08
2.40579e-07
7.68708e-08
2.41998e-07
5.62172e-08
2.43095e-07
4.80266e-08
2.43728e-07
4.37335e-08
2.44106e-07
3.91434e-08
2.44431e-07
3.54676e-08
2.44724e-07
3.28273e-08
2.44974e-07
3.07078e-08
2.45187e-07
2.88725e-08
2.4537e-07
2.7269e-08
2.45522e-07
2.58606e-08
2.45643e-07
2.46066e-08
2.45732e-07
2.34742e-08
2.45787e-07
2.24403e-08
2.45808e-07
2.14881e-08
2.45793e-07
2.06045e-08
2.45744e-07
1.9779e-08
2.45661e-07
1.90031e-08
2.45544e-07
1.827e-08
2.45395e-07
1.7574e-08
2.45215e-07
1.69105e-08
2.45007e-07
1.62753e-08
2.44773e-07
1.56649e-08
2.44514e-07
1.50762e-08
2.44233e-07
1.4506e-08
2.43933e-07
1.39517e-08
2.43616e-07
1.341e-08
2.43284e-07
1.2878e-08
2.4294e-07
1.23524e-08
2.42586e-07
1.18296e-08
2.42225e-07
1.13057e-08
2.4186e-07
1.07758e-08
2.41494e-07
1.02355e-08
2.41129e-07
9.67738e-09
2.4077e-07
9.09668e-09
2.40418e-07
8.48161e-09
2.4008e-07
7.82701e-09
2.39758e-07
7.11464e-09
2.39458e-07
6.33932e-09
2.39184e-07
5.47126e-09
2.38945e-07
4.51284e-09
2.38744e-07
3.40559e-09
2.38597e-07
2.18527e-09
2.38497e-07
7.50847e-10
2.38479e-07
-8.34117e-10
2.38534e-07
-2.58169e-09
2.38681e-07
-4.53389e-09
2.39079e-07
-6.14563e-09
-7.72807e-09
2.39778e-07
2.44436e-07
5.80794e-08
2.47452e-07
7.38549e-08
2.48817e-07
5.48525e-08
2.49916e-07
4.69275e-08
2.50588e-07
4.30618e-08
2.50983e-07
3.87485e-08
2.51313e-07
3.51376e-08
2.51611e-07
3.25287e-08
2.51869e-07
3.04498e-08
2.52094e-07
2.86481e-08
2.52293e-07
2.70693e-08
2.52472e-07
2.56823e-08
2.5263e-07
2.44486e-08
2.52767e-07
2.33364e-08
2.52885e-07
2.23229e-08
2.52981e-07
2.13914e-08
2.53057e-07
2.05289e-08
2.53111e-07
1.97248e-08
2.53144e-07
1.89705e-08
2.53155e-07
1.82589e-08
2.53145e-07
1.75842e-08
2.53114e-07
1.69415e-08
2.53062e-07
1.63265e-08
2.52992e-07
1.57356e-08
2.52903e-07
1.51653e-08
2.52796e-07
1.46124e-08
2.52674e-07
1.40741e-08
2.52537e-07
1.35472e-08
2.52386e-07
1.30284e-08
2.52224e-07
1.25145e-08
2.52052e-07
1.20016e-08
2.51872e-07
1.14859e-08
2.51685e-07
1.09622e-08
2.51495e-07
1.0426e-08
2.51303e-07
9.86957e-09
2.51112e-07
9.28788e-09
2.50924e-07
8.66923e-09
2.50744e-07
8.00741e-09
2.50573e-07
7.28493e-09
2.50418e-07
6.49451e-09
2.50281e-07
5.60832e-09
2.5017e-07
4.62421e-09
2.50085e-07
3.49018e-09
2.50043e-07
2.22776e-09
2.50036e-07
7.57839e-10
2.50091e-07
-8.89546e-10
2.50211e-07
-2.70182e-09
2.50411e-07
-4.73398e-09
2.50849e-07
-6.58315e-09
-8.50308e-09
2.51624e-07
2.51489e-07
5.31973e-08
2.54533e-07
7.08106e-08
2.55853e-07
5.35322e-08
2.5695e-07
4.58308e-08
2.5766e-07
4.23522e-08
2.58074e-07
3.83341e-08
2.5841e-07
3.48017e-08
2.58714e-07
3.22246e-08
2.58977e-07
3.01863e-08
2.59207e-07
2.8419e-08
2.59412e-07
2.68642e-08
2.59598e-07
2.54958e-08
2.59768e-07
2.42786e-08
2.59923e-07
2.31815e-08
2.60064e-07
2.21821e-08
2.60191e-07
2.12641e-08
2.60305e-07
2.04148e-08
2.60406e-07
1.96238e-08
2.60494e-07
1.88825e-08
2.60569e-07
1.81839e-08
2.60632e-07
1.7522e-08
2.60681e-07
1.6892e-08
2.60718e-07
1.62896e-08
2.60743e-07
1.57108e-08
2.60756e-07
1.51523e-08
2.60757e-07
1.46108e-08
2.60748e-07
1.40833e-08
2.60729e-07
1.35664e-08
2.607e-07
1.3057e-08
2.60663e-07
1.25516e-08
2.60619e-07
1.20462e-08
2.60568e-07
1.15368e-08
2.60512e-07
1.10181e-08
2.60453e-07
1.04853e-08
2.60391e-07
9.93087e-09
2.6033e-07
9.34902e-09
2.60271e-07
8.72834e-09
2.60217e-07
8.0616e-09
2.6017e-07
7.33206e-09
2.60134e-07
6.53056e-09
2.60111e-07
5.63108e-09
2.60108e-07
4.62741e-09
2.60124e-07
3.47357e-09
2.60174e-07
2.17855e-09
2.60251e-07
6.809e-10
2.60375e-07
-1.01431e-09
2.60558e-07
-2.88438e-09
2.60815e-07
-4.99066e-09
2.61293e-07
-7.06196e-09
-9.33586e-09
2.62126e-07
2.58767e-07
4.86138e-08
2.61829e-07
6.77485e-08
2.63116e-07
5.22452e-08
2.64205e-07
4.47417e-08
2.6495e-07
4.16071e-08
2.65386e-07
3.78982e-08
2.65729e-07
3.44587e-08
2.66039e-07
3.19146e-08
2.66308e-07
2.99172e-08
2.66541e-07
2.81858e-08
2.6675e-07
2.66559e-08
2.66939e-07
2.53061e-08
2.67113e-07
2.41045e-08
2.67274e-07
2.3021e-08
2.67422e-07
2.20335e-08
2.6756e-07
2.11262e-08
2.67689e-07
2.02866e-08
2.67808e-07
1.95045e-08
2.67919e-07
1.87717e-08
2.68021e-07
1.80811e-08
2.68116e-07
1.7427e-08
2.68204e-07
1.68044e-08
2.68285e-07
1.62091e-08
2.68358e-07
1.56372e-08
2.68425e-07
1.50853e-08
2.68486e-07
1.45502e-08
2.6854e-07
1.40286e-08
2.68589e-07
1.35174e-08
2.68633e-07
1.30132e-08
2.68672e-07
1.25125e-08
2.68707e-07
1.20111e-08
2.68739e-07
1.15051e-08
2.68768e-07
1.09889e-08
2.68796e-07
1.04576e-08
2.68823e-07
9.90353e-09
2.68852e-07
9.3205e-09
2.68883e-07
8.69732e-09
2.68919e-07
8.02581e-09
2.68961e-07
7.28998e-09
2.69012e-07
6.479e-09
2.69075e-07
5.56855e-09
2.69153e-07
4.54877e-09
2.69248e-07
3.37907e-09
2.69369e-07
2.05794e-09
2.69512e-07
5.37182e-10
2.69694e-07
-1.19608e-09
2.69929e-07
-3.11892e-09
2.70236e-07
-5.29773e-09
2.70751e-07
-7.57722e-09
-1.02031e-08
2.71618e-07
2.66278e-07
4.43275e-08
2.69348e-07
6.46793e-08
2.70612e-07
5.09808e-08
2.7169e-07
4.36644e-08
2.72467e-07
4.08294e-08
2.72926e-07
3.74391e-08
2.73277e-07
3.4108e-08
2.73593e-07
3.15984e-08
2.73868e-07
2.96418e-08
2.74106e-07
2.79481e-08
2.74317e-07
2.64445e-08
2.7451e-07
2.51139e-08
2.74686e-07
2.39282e-08
2.74849e-07
2.28582e-08
2.75e-07
2.18822e-08
2.75142e-07
2.09847e-08
2.75275e-07
2.01536e-08
2.754e-07
1.9379e-08
2.75519e-07
1.86527e-08
2.75632e-07
1.79679e-08
2.7574e-07
1.7319e-08
2.75844e-07
1.6701e-08
2.75943e-07
1.61098e-08
2.76039e-07
1.55416e-08
2.76131e-07
1.49931e-08
2.7622e-07
1.4461e-08
2.76306e-07
1.39422e-08
2.7639e-07
1.34334e-08
2.76472e-07
1.29312e-08
2.76553e-07
1.24321e-08
2.76632e-07
1.19319e-08
2.76711e-07
1.14265e-08
2.76789e-07
1.09103e-08
2.76869e-07
1.03782e-08
2.7695e-07
9.82251e-09
2.77034e-07
9.23665e-09
2.77121e-07
8.60968e-09
2.77214e-07
7.93258e-09
2.77314e-07
7.19004e-09
2.77424e-07
6.3698e-09
2.77543e-07
5.44909e-09
2.77677e-07
4.41487e-09
2.77825e-07
3.23119e-09
2.77995e-07
1.88806e-09
2.78185e-07
3.4666e-10
2.78408e-07
-1.41896e-09
2.78681e-07
-3.39132e-09
2.79026e-07
-5.64367e-09
2.79567e-07
-8.1182e-09
-1.10831e-08
2.80447e-07
2.74033e-07
4.03354e-08
2.77099e-07
6.16137e-08
2.78351e-07
4.97288e-08
2.79413e-07
4.26025e-08
2.80219e-07
4.00231e-08
2.80703e-07
3.69554e-08
2.81062e-07
3.37486e-08
2.81384e-07
3.12764e-08
2.81666e-07
2.93601e-08
2.81909e-07
2.77054e-08
2.82124e-07
2.62297e-08
2.82318e-07
2.49192e-08
2.82497e-07
2.37498e-08
2.82661e-07
2.26937e-08
2.82814e-07
2.17294e-08
2.82957e-07
2.08417e-08
2.83092e-07
2.00189e-08
2.8322e-07
1.92513e-08
2.83341e-07
1.85309e-08
2.83458e-07
1.78511e-08
2.83571e-07
1.72063e-08
2.8368e-07
1.65917e-08
2.83786e-07
1.60033e-08
2.83891e-07
1.54374e-08
2.83993e-07
1.48906e-08
2.84095e-07
1.43597e-08
2.84195e-07
1.38417e-08
2.84295e-07
1.33333e-08
2.84395e-07
1.28312e-08
2.84496e-07
1.23317e-08
2.84597e-07
1.18307e-08
2.84699e-07
1.13239e-08
2.84804e-07
1.08059e-08
2.84911e-07
1.02713e-08
2.85021e-07
9.71235e-09
2.85135e-07
9.12219e-09
2.85255e-07
8.49017e-09
2.85381e-07
7.8065e-09
2.85514e-07
7.0565e-09
2.85657e-07
6.22671e-09
2.85811e-07
5.2957e-09
2.85978e-07
4.24784e-09
2.86158e-07
3.05085e-09
2.86358e-07
1.68807e-09
2.86578e-07
1.27169e-10
2.86827e-07
-1.66781e-09
2.87123e-07
-3.68789e-09
2.87495e-07
-6.01525e-09
2.88048e-07
-8.67163e-09
-1.19547e-08
2.8892e-07
2.8204e-07
3.66327e-08
2.85091e-07
5.85628e-08
2.8634e-07
4.84795e-08
2.87384e-07
4.15588e-08
2.88215e-07
3.91925e-08
2.88724e-07
3.64457e-08
2.89093e-07
3.33795e-08
2.89421e-07
3.09484e-08
2.8971e-07
2.90719e-08
2.89958e-07
2.74574e-08
2.90176e-07
2.60112e-08
2.90374e-07
2.47217e-08
2.90554e-07
2.35692e-08
2.90721e-07
2.25273e-08
2.90875e-07
2.1575e-08
2.91019e-07
2.06974e-08
2.91155e-07
1.9883e-08
2.91284e-07
1.91225e-08
2.91407e-07
1.8408e-08
2.91525e-07
1.7733e-08
2.91639e-07
1.7092e-08
2.9175e-07
1.64805e-08
2.91859e-07
1.58943e-08
2.91967e-07
1.53299e-08
2.92073e-07
1.47841e-08
2.92179e-07
1.42537e-08
2.92285e-07
1.37356e-08
2.92392e-07
1.32267e-08
2.925e-07
1.27235e-08
2.92609e-07
1.22226e-08
2.9272e-07
1.17196e-08
2.92833e-07
1.12105e-08
2.9295e-07
1.06894e-08
2.9307e-07
1.01511e-08
2.93194e-07
9.58796e-09
2.93324e-07
8.99255e-09
2.9346e-07
8.35457e-09
2.93602e-07
7.66363e-09
2.93753e-07
6.90557e-09
2.93914e-07
6.06598e-09
2.94085e-07
5.12453e-09
2.9427e-07
4.06347e-09
2.94467e-07
2.85349e-09
2.94682e-07
1.47267e-09
2.94917e-07
-1.07334e-10
2.95179e-07
-1.92992e-09
2.95488e-07
-3.99672e-09
2.95873e-07
-6.39992e-09
2.96425e-07
-9.22388e-09
-1.2798e-08
2.97268e-07
2.90308e-07
3.3213e-08
2.93334e-07
5.55377e-08
2.94589e-07
4.72243e-08
2.95612e-07
4.05355e-08
2.96462e-07
3.83425e-08
2.96999e-07
3.5909e-08
2.97379e-07
3.29992e-08
2.97713e-07
3.06146e-08
2.98008e-07
2.87772e-08
2.98261e-07
2.72038e-08
2.98484e-07
2.57887e-08
2.98684e-07
2.45212e-08
2.98867e-07
2.33861e-08
2.99036e-07
2.2359e-08
2.99191e-07
2.14191e-08
2.99337e-07
2.05519e-08
2.99474e-07
1.97462e-08
2.99604e-07
1.89928e-08
2.99727e-07
1.82843e-08
2.99846e-07
1.76141e-08
2.99961e-07
1.6977e-08
3.00073e-07
1.63683e-08
3.00183e-07
1.57842e-08
3.00292e-07
1.52212e-08
3.004e-07
1.46761e-08
3.00508e-07
1.41458e-08
3.00616e-07
1.36273e-08
3.00726e-07
1.31174e-08
3.00836e-07
1.26128e-08
3.00949e-07
1.21099e-08
3.01064e-07
1.16045e-08
3.01182e-07
1.10923e-08
3.01304e-07
1.05678e-08
3.0143e-07
1.00253e-08
3.01561e-07
9.45726e-09
3.01697e-07
8.85611e-09
3.0184e-07
8.21171e-09
3.0199e-07
7.51318e-09
3.02149e-07
6.74678e-09
3.02318e-07
5.89736e-09
3.02497e-07
4.94548e-09
3.02688e-07
3.87171e-09
3.02893e-07
2.64906e-09
3.03114e-07
1.25141e-09
3.03354e-07
-3.47229e-10
3.0362e-07
-2.1963e-09
3.03932e-07
-4.30853e-09
3.04319e-07
-6.7871e-09
3.04858e-07
-9.76237e-09
-1.3595e-08
3.05655e-07
2.98847e-07
3.00681e-08
3.01835e-07
5.25498e-08
3.03105e-07
4.59552e-08
3.04106e-07
3.95339e-08
3.0497e-07
3.74785e-08
3.05535e-07
3.53447e-08
3.05927e-07
3.26064e-08
3.06267e-07
3.02749e-08
3.06568e-07
2.84759e-08
3.06828e-07
2.69442e-08
3.07055e-07
2.55619e-08
3.07258e-07
2.43175e-08
3.07444e-07
2.32004e-08
3.07615e-07
2.21885e-08
3.07772e-07
2.12614e-08
3.07919e-07
2.04049e-08
3.08057e-07
1.96081e-08
3.08188e-07
1.88622e-08
3.08313e-07
1.81597e-08
3.08432e-07
1.74945e-08
3.08548e-07
1.68612e-08
3.08661e-07
1.62555e-08
3.08771e-07
1.56735e-08
3.08881e-07
1.51119e-08
3.0899e-07
1.45674e-08
3.09098e-07
1.40371e-08
3.09208e-07
1.35179e-08
3.09318e-07
1.30069e-08
3.0943e-07
1.25007e-08
3.09544e-07
1.19956e-08
3.09661e-07
1.14876e-08
3.09781e-07
1.09722e-08
3.09905e-07
1.04439e-08
3.10034e-07
9.89697e-09
3.10167e-07
9.32396e-09
3.10306e-07
8.71691e-09
3.10452e-07
8.06597e-09
3.10605e-07
7.35983e-09
3.10767e-07
6.5851e-09
3.10938e-07
5.72608e-09
3.1112e-07
4.76403e-09
3.11313e-07
3.67821e-09
3.11519e-07
2.44338e-09
3.1174e-07
1.03013e-09
3.11979e-07
-5.8648e-10
3.12244e-07
-2.46089e-09
3.12552e-07
-4.61647e-09
3.12933e-07
-7.16799e-09
3.13447e-07
-1.02763e-08
-1.43297e-08
3.14181e-07
3.07667e-07
2.71883e-08
3.10607e-07
4.96101e-08
3.11897e-07
4.46653e-08
3.12876e-07
3.85543e-08
3.13749e-07
3.66056e-08
3.14341e-07
3.47529e-08
3.14748e-07
3.21995e-08
3.15094e-07
2.99291e-08
3.15401e-07
2.81681e-08
3.15667e-07
2.66784e-08
3.15899e-07
2.53304e-08
3.16106e-07
2.41103e-08
3.16294e-07
2.30119e-08
3.16467e-07
2.20156e-08
3.16627e-07
2.11018e-08
3.16775e-07
2.02564e-08
3.16915e-07
1.94687e-08
3.17047e-07
1.87305e-08
3.17172e-07
1.80342e-08
3.17293e-07
1.7374e-08
3.17409e-07
1.67447e-08
3.17522e-07
1.6142e-08
3.17634e-07
1.55622e-08
3.17744e-07
1.50018e-08
3.17853e-07
1.4458e-08
3.17963e-07
1.39276e-08
3.18073e-07
1.34079e-08
3.18184e-07
1.28957e-08
3.18297e-07
1.23878e-08
3.18412e-07
1.18805e-08
3.1853e-07
1.13698e-08
3.18651e-07
1.08511e-08
3.18776e-07
1.03191e-08
3.18905e-07
9.76764e-09
3.19039e-07
9.18959e-09
3.1918e-07
8.57672e-09
3.19326e-07
7.91929e-09
3.1948e-07
7.20573e-09
3.19643e-07
6.42291e-09
3.19814e-07
5.55472e-09
3.19995e-07
4.58299e-09
3.20187e-07
3.48593e-09
3.20391e-07
2.23966e-09
3.20609e-07
8.12189e-10
3.20844e-07
-8.21377e-10
3.21103e-07
-2.71961e-09
3.21401e-07
-4.91539e-09
3.21769e-07
-7.53507e-09
3.22249e-07
-1.07566e-08
-1.49887e-08
3.22908e-07
3.16777e-07
2.45623e-08
3.19658e-07
4.67298e-08
3.20974e-07
4.33491e-08
3.21932e-07
3.75964e-08
3.22808e-07
3.57289e-08
3.23427e-07
3.41344e-08
3.23849e-07
3.1777e-08
3.24202e-07
2.95769e-08
3.24516e-07
2.78539e-08
3.24788e-07
2.6406e-08
3.25025e-07
2.50938e-08
3.25236e-07
2.38994e-08
3.25427e-07
2.28204e-08
3.25603e-07
2.18402e-08
3.25764e-07
2.09401e-08
3.25915e-07
2.0106e-08
3.26055e-07
1.93279e-08
3.26188e-07
1.85975e-08
3.26315e-07
1.79077e-08
3.26436e-07
1.72526e-08
3.26554e-07
1.66274e-08
3.26668e-07
1.60278e-08
3.2678e-07
1.54501e-08
3.26891e-07
1.48911e-08
3.27001e-07
1.43479e-08
3.27111e-07
1.38175e-08
3.27222e-07
1.32972e-08
3.27334e-07
1.27838e-08
3.27447e-07
1.22742e-08
3.27563e-07
1.17647e-08
3.27681e-07
1.12513e-08
3.27803e-07
1.07294e-08
3.27929e-07
1.01936e-08
3.28059e-07
9.63776e-09
3.28193e-07
9.05477e-09
3.28334e-07
8.43622e-09
3.28481e-07
7.7725e-09
3.28635e-07
7.05186e-09
3.28796e-07
6.26133e-09
3.28966e-07
5.38455e-09
3.29146e-07
4.40378e-09
3.29335e-07
3.29648e-09
3.29535e-07
2.03974e-09
3.29747e-07
5.99607e-10
3.29976e-07
-1.04946e-09
3.30225e-07
-2.96942e-09
3.30511e-07
-5.20116e-09
3.30858e-07
-7.88162e-09
3.31296e-07
-1.11952e-08
-1.55614e-08
3.31869e-07
3.26187e-07
2.21774e-08
3.28997e-07
4.39198e-08
3.30344e-07
4.20023e-08
3.31282e-07
3.6659e-08
3.32157e-07
3.48532e-08
3.32801e-07
3.34907e-08
3.33241e-07
3.13375e-08
3.336e-07
2.92176e-08
3.3392e-07
2.75334e-08
3.342e-07
2.61269e-08
3.34442e-07
2.48518e-08
3.34656e-07
2.36844e-08
3.34851e-07
2.26256e-08
3.35029e-07
2.1662e-08
3.35194e-07
2.0776e-08
3.35346e-07
1.99538e-08
3.35488e-07
1.91854e-08
3.35623e-07
1.8463e-08
3.3575e-07
1.77799e-08
3.35873e-07
1.71302e-08
3.35991e-07
1.65091e-08
3.36106e-07
1.59126e-08
3.36219e-07
1.53372e-08
3.36331e-07
1.47796e-08
3.36442e-07
1.4237e-08
3.36553e-07