/*--------------------------------*- C++ -*----------------------------------*\
  =========                 |
  \\      /  F ield         | OpenFOAM: The Open Source CFD Toolbox
   \\    /   O peration     | Website:  https://openfoam.org
    \\  /    A nd           | Version:  7
     \\/     M anipulation  |
\*---------------------------------------------------------------------------*/
FoamFile
{
    version     2.0;
    format      ascii;
    class       surfaceScalarField;
    location    "0.45";
    object      phi_0;
}
// * * * * * * * * * * * * * * * * * * * * * * * * * * * * * * * * * * * * * //

dimensions      [0 3 -1 0 0 0 0];

internalField   nonuniform List<scalar> 
139350
(
6.45132e-08
9.21183e-08
3.19676e-08
3.25456e-08
2.30642e-08
8.90339e-09
1.95811e-08
3.4831e-09
1.76306e-08
1.95049e-09
1.62016e-08
1.429e-09
1.50697e-08
1.13191e-09
1.41583e-08
9.11433e-10
1.34087e-08
7.49576e-10
1.27777e-08
6.31001e-10
1.22365e-08
5.41185e-10
1.17658e-08
4.70675e-10
1.1352e-08
4.13881e-10
1.09847e-08
3.67282e-10
1.06562e-08
3.28471e-10
1.03605e-08
2.95723e-10
1.00927e-08
2.67766e-10
9.84908e-09
2.43643e-10
9.62645e-09
2.22627e-10
9.4223e-09
2.04149e-10
9.23454e-09
1.87765e-10
9.06142e-09
1.73118e-10
8.9015e-09
1.59917e-10
8.75358e-09
1.47922e-10
8.61665e-09
1.36934e-10
8.48987e-09
1.26781e-10
8.37256e-09
1.17311e-10
8.26416e-09
1.08394e-10
8.16426e-09
9.99009e-11
8.07254e-09
9.1722e-11
7.98881e-09
8.37312e-11
7.91297e-09
7.5834e-11
7.84509e-09
6.78798e-11
7.78531e-09
5.97848e-11
7.73396e-09
5.13503e-11
7.69145e-09
4.2505e-11
7.65849e-09
3.2966e-11
7.6358e-09
2.26894e-11
7.62456e-09
1.12357e-11
7.62586e-09
-1.29479e-12
7.64159e-09
-1.57294e-11
7.67304e-09
-3.1455e-11
7.72274e-09
-4.97006e-11
7.79311e-09
-7.03722e-11
7.8826e-09
-8.94905e-11
8.00338e-09
-1.20775e-10
8.12366e-09
-1.20281e-10
8.31043e-09
-1.86769e-10
8.19785e-09
1.12583e-10
-3.50306e-09
1.17009e-08
1.25945e-07
1.27617e-07
9.12952e-08
6.71951e-08
7.19474e-08
2.82513e-08
6.12365e-08
1.4194e-08
5.4804e-08
8.38297e-09
5.03123e-08
5.92073e-09
4.68304e-08
4.61374e-09
4.40195e-08
3.72238e-09
4.16989e-08
3.07019e-09
3.97433e-08
2.58659e-09
3.80656e-08
2.21883e-09
3.6606e-08
1.93034e-09
3.53217e-08
1.69818e-09
3.41812e-08
1.50779e-09
3.31604e-08
1.34924e-09
3.22406e-08
1.21547e-09
3.14071e-08
1.10131e-09
3.06479e-08
1.00284e-09
2.99534e-08
9.17099e-10
2.93158e-08
8.41778e-10
2.87285e-08
7.75062e-10
2.81861e-08
7.15503e-10
2.76841e-08
6.61923e-10
2.72187e-08
6.13354e-10
2.67866e-08
5.68991e-10
2.63853e-08
5.28146e-10
2.60123e-08
4.90221e-10
2.56661e-08
4.54689e-10
2.53449e-08
4.21064e-10
2.50477e-08
3.88904e-10
2.47737e-08
3.57756e-10
2.45223e-08
3.27225e-10
2.42934e-08
2.96802e-10
2.4087e-08
2.66121e-10
2.39039e-08
2.34497e-10
2.37447e-08
2.01653e-10
2.36112e-08
1.66468e-10
2.35049e-08
1.28995e-10
2.34291e-08
8.70891e-11
2.33858e-08
4.19467e-11
2.33813e-08
-1.11479e-11
2.34173e-08
-6.7458e-11
2.35048e-08
-1.37255e-10
2.36428e-08
-2.08393e-10
2.38514e-08
-2.98035e-10
2.41174e-08
-3.86796e-10
2.44694e-08
-4.72279e-10
2.49043e-08
-6.21644e-10
2.51769e-08
-1.6001e-10
-4.13268e-09
2.58065e-08
1.58754e-07
1.35267e-07
1.36533e-07
8.94161e-08
1.17506e-07
4.7278e-08
1.03336e-07
2.83638e-08
9.33491e-08
1.83699e-08
8.60556e-08
1.32143e-08
8.03545e-08
1.03148e-08
7.57097e-08
8.36716e-09
7.18391e-08
6.94078e-09
6.85553e-08
5.87041e-09
6.5725e-08
5.04911e-09
6.32536e-08
4.40172e-09
6.10726e-08
3.87919e-09
5.91308e-08
3.44957e-09
5.7389e-08
3.09106e-09
5.58164e-08
2.78806e-09
5.43887e-08
2.52908e-09
5.3086e-08
2.30547e-09
5.18925e-08
2.11061e-09
5.07949e-08
1.93936e-09
4.97824e-08
1.78764e-09
4.88456e-08
1.65222e-09
4.79771e-08
1.53047e-09
4.71703e-08
1.4202e-09
4.64196e-08
1.31962e-09
4.57206e-08
1.22719e-09
4.50692e-08
1.14159e-09
4.44623e-08
1.06164e-09
4.3897e-08
9.86287e-10
4.33714e-08
9.1455e-10
4.28837e-08
8.45482e-10
4.24327e-08
7.78194e-10
4.20178e-08
7.11667e-10
4.16389e-08
6.45077e-10
4.12963e-08
5.77039e-10
4.0991e-08
5.06982e-10
4.0725e-08
4.32477e-10
4.05001e-08
3.53912e-10
4.03209e-08
2.66251e-10
4.01899e-08
1.72924e-10
4.01163e-08
6.2517e-11
4.01016e-08
-5.28146e-11
4.01641e-08
-1.99713e-10
4.02975e-08
-3.41793e-10
4.05436e-08
-5.44179e-10
4.08611e-08
-7.04233e-10
4.1344e-08
-9.55245e-10
4.1901e-08
-1.17864e-09
4.25207e-08
-7.79647e-10
-4.0638e-09
4.24518e-08
1.75612e-07
1.31171e-07
1.65628e-07
9.94001e-08
1.52747e-07
6.01596e-08
1.40146e-07
4.09645e-08
1.29474e-07
2.90413e-08
1.20844e-07
2.18447e-08
1.1374e-07
1.74187e-08
1.07768e-07
1.43396e-08
1.02677e-07
1.20318e-08
9.82846e-08
1.02624e-08
9.44521e-08
8.88159e-09
9.10737e-08
7.78018e-09
8.80695e-08
6.88339e-09
8.5378e-08
6.14098e-09
8.29512e-08
5.51794e-09
8.07503e-08
4.9889e-09
7.87444e-08
4.53499e-09
7.69081e-08
4.14181e-09
7.52204e-08
3.79828e-09
7.3664e-08
3.49573e-09
7.22244e-08
3.22724e-09
7.08894e-08
2.9873e-09
6.96484e-08
2.77139e-09
6.84929e-08
2.57578e-09
6.74151e-08
2.39738e-09
6.64088e-08
2.23352e-09
6.54684e-08
2.08194e-09
6.45894e-08
1.94061e-09
6.3768e-08
1.80774e-09
6.30009e-08
1.68163e-09
6.22857e-08
1.56071e-09
6.16204e-08
1.44346e-09
6.10039e-08
1.32821e-09
6.04354e-08
1.21357e-09
5.99151e-08
1.09729e-09
5.94437e-08
9.78453e-10
5.90231e-08
8.53003e-10
5.86552e-08
7.218e-10
5.83452e-08
5.76243e-10
5.80957e-08
4.22512e-10
5.7917e-08
2.41131e-10
5.78111e-08
5.30894e-11
5.77996e-08
-1.88195e-10
5.78742e-08
-4.1638e-10
5.80868e-08
-7.56744e-10
5.8388e-08
-1.00549e-09
5.88883e-08
-1.45556e-09
5.94903e-08
-1.78062e-09
6.02242e-08
-1.51356e-09
-4.07376e-09
6.02342e-08
1.84511e-07
1.23446e-07
1.82344e-07
1.01567e-07
1.7613e-07
6.63736e-08
1.6778e-07
4.93139e-08
1.5917e-07
3.76513e-08
1.51275e-07
2.97404e-08
1.44212e-07
2.44815e-08
1.37922e-07
2.06297e-08
1.32332e-07
1.7622e-08
1.27358e-07
1.52364e-08
1.22914e-07
1.3325e-08
1.18925e-07
1.17693e-08
1.15326e-07
1.04826e-08
1.12063e-07
9.40394e-09
1.09091e-07
8.48931e-09
1.06374e-07
7.70599e-09
1.0388e-07
7.02904e-09
1.01583e-07
6.4391e-09
9.94603e-08
5.92101e-09
9.74933e-08
5.46272e-09
9.5666e-08
5.05457e-09
9.39646e-08
4.68868e-09
9.23774e-08
4.35862e-09
9.08942e-08
4.05901e-09
8.95062e-08
3.78536e-09
8.82059e-08
3.53379e-09
8.69869e-08
3.30099e-09
8.58435e-08
3.08397e-09
8.47711e-08
2.88012e-09
8.37658e-08
2.68694e-09
8.28244e-08
2.50215e-09
8.19444e-08
2.3235e-09
8.11239e-08
2.14862e-09
8.03621e-08
1.97546e-09
7.96585e-08
1.80082e-09
7.90136e-08
1.62337e-09
7.84293e-08
1.43732e-09
7.79072e-08
1.24394e-09
7.74524e-08
1.03096e-09
7.70679e-08
8.07062e-10
7.67641e-08
5.44917e-10
7.65436e-08
2.73632e-10
7.64281e-08
-7.27528e-11
7.64115e-08
-3.99771e-10
7.65431e-08
-8.8831e-10
7.67868e-08
-1.24922e-09
7.72265e-08
-1.89528e-09
7.78164e-08
-2.37052e-09
7.85291e-08
-2.22622e-09
-4.20193e-09
7.86573e-08
1.90343e-07
1.15319e-07
1.91862e-07
1.00048e-07
1.90269e-07
6.79658e-08
1.86171e-07
5.3412e-08
1.80741e-07
4.30812e-08
1.75e-07
3.54822e-08
1.69313e-07
3.01678e-08
1.63839e-07
2.61036e-08
1.58675e-07
2.27863e-08
1.53862e-07
2.0049e-08
1.49405e-07
1.77828e-08
1.45286e-07
1.58885e-08
1.41481e-07
1.42871e-08
1.37965e-07
1.29198e-08
1.34712e-07
1.17426e-08
1.31697e-07
1.07214e-08
1.28897e-07
9.82897e-09
1.26292e-07
9.04393e-09
1.23864e-07
8.34888e-09
1.21597e-07
7.72974e-09
1.19476e-07
7.17497e-09
1.1749e-07
6.67506e-09
1.15627e-07
6.22205e-09
1.13876e-07
5.80927e-09
1.12231e-07
5.43103e-09
1.10682e-07
5.08241e-09
1.09224e-07
4.75913e-09
1.07851e-07
4.45734e-09
1.06557e-07
4.17363e-09
1.05339e-07
3.90473e-09
1.04194e-07
3.64765e-09
1.03118e-07
3.39943e-09
1.0211e-07
3.15696e-09
1.01167e-07
2.91755e-09
1.00291e-07
2.67698e-09
9.94811e-08
2.43354e-09
9.87387e-08
2.17968e-09
9.80658e-08
1.91688e-09
9.74672e-08
1.6296e-09
9.69461e-08
1.32811e-09
9.65123e-08
9.78739e-10
9.617e-08
6.15967e-10
9.59381e-08
1.59146e-10
9.58165e-08
-2.782e-10
9.58429e-08
-9.14704e-10
9.60062e-08
-1.41257e-09
9.63482e-08
-2.23721e-09
9.68787e-08
-2.90102e-09
9.75274e-08
-2.875e-09
-4.38886e-09
9.77144e-08
1.95505e-07
1.07629e-07
1.98249e-07
9.73036e-08
1.98991e-07
6.72238e-08
1.97803e-07
5.46006e-08
1.95176e-07
4.57078e-08
1.91846e-07
3.88128e-08
1.88124e-07
3.38898e-08
1.84183e-07
3.00446e-08
1.80173e-07
2.67959e-08
1.76205e-07
2.40172e-08
1.72346e-07
2.16414e-08
1.68636e-07
1.95986e-08
1.65095e-07
1.78281e-08
1.61732e-07
1.62834e-08
1.58546e-07
1.49279e-08
1.55535e-07
1.37324e-08
1.52692e-07
1.26726e-08
1.50007e-07
1.17285e-08
1.47473e-07
1.08832e-08
1.45079e-07
1.0123e-08
1.42819e-07
9.43591e-09
1.40682e-07
8.81207e-09
1.38661e-07
8.24299e-09
1.36748e-07
7.72139e-09
1.34938e-07
7.24098e-09
1.33225e-07
6.7962e-09
1.31602e-07
6.38218e-09
1.30065e-07
5.99444e-09
1.28609e-07
5.62898e-09
1.27232e-07
5.28193e-09
1.2593e-07
4.94971e-09
1.24701e-07
4.62875e-09
1.23542e-07
4.31527e-09
1.22454e-07
4.006e-09
1.21435e-07
3.69579e-09
1.20486e-07
3.38247e-09
1.19609e-07
3.05697e-09
1.18805e-07
2.72063e-09
1.18079e-07
2.35539e-09
1.17436e-07
1.9718e-09
1.16882e-07
1.53211e-09
1.16426e-07
1.07246e-09
1.16081e-07
5.03974e-10
1.15855e-07
-5.23567e-11
1.15772e-07
-8.31583e-10
1.15845e-07
-1.4852e-09
1.16079e-07
-2.47178e-09
1.16521e-07
-3.34259e-09
1.17093e-07
-3.44689e-09
-4.61819e-09
1.17322e-07
2.0082e-07
1.00394e-07
2.03774e-07
9.43495e-08
2.05351e-07
6.56472e-08
2.05656e-07
5.42947e-08
2.04833e-07
4.65317e-08
2.03361e-07
4.02841e-08
2.01422e-07
3.58285e-08
1.99101e-07
3.23659e-08
1.96504e-07
2.93932e-08
1.93733e-07
2.67878e-08
1.9087e-07
2.45047e-08
1.87974e-07
2.24942e-08
1.85091e-07
2.07114e-08
1.82252e-07
1.91222e-08
1.7948e-07
1.77e-08
1.7679e-07
1.64228e-08
1.7419e-07
1.52722e-08
1.71687e-07
1.4232e-08
1.69281e-07
1.32885e-08
1.66975e-07
1.24297e-08
1.64765e-07
1.16452e-08
1.62651e-07
1.09261e-08
1.6063e-07
1.02644e-08
1.58698e-07
9.65318e-09
1.56853e-07
9.08628e-09
1.55091e-07
8.55812e-09
1.53409e-07
8.06374e-09
1.51805e-07
7.59844e-09
1.50276e-07
7.15797e-09
1.4882e-07
6.73814e-09
1.47435e-07
6.33499e-09
1.46119e-07
5.94456e-09
1.44872e-07
5.56252e-09
1.43693e-07
5.18519e-09
1.42582e-07
4.8066e-09
1.4154e-07
4.42416e-09
1.4057e-07
4.02757e-09
1.39672e-07
3.61766e-09
1.38853e-07
3.17475e-09
1.38117e-07
2.70839e-09
1.3747e-07
2.17904e-09
1.36921e-07
1.62101e-09
1.36482e-07
9.43145e-10
1.36165e-07
2.64107e-10
1.35984e-07
-6.50386e-10
1.35968e-07
-1.46919e-09
1.36101e-07
-2.60432e-09
1.36443e-07
-3.68519e-09
1.36939e-07
-3.94203e-09
-4.88771e-09
1.37208e-07
2.06423e-07
9.35028e-08
2.09334e-07
9.1439e-08
2.11062e-07
6.39193e-08
2.11947e-07
5.34097e-08
2.12016e-07
4.64627e-08
2.11638e-07
4.06618e-08
2.10917e-07
3.65498e-08
2.09854e-07
3.34282e-08
2.0849e-07
3.0758e-08
2.0688e-07
2.83969e-08
2.05083e-07
2.63026e-08
2.03145e-07
2.44316e-08
2.01111e-07
2.27458e-08
1.99016e-07
2.12174e-08
1.96889e-07
1.98264e-08
1.94755e-07
1.85568e-08
1.92632e-07
1.73951e-08
1.90535e-07
1.63294e-08
1.88474e-07
1.53495e-08
1.86457e-07
1.44463e-08
1.84491e-07
1.36115e-08
1.82579e-07
1.28379e-08
1.80725e-07
1.2119e-08
1.78929e-07
1.14489e-08
1.77193e-07
1.08221e-08
1.75518e-07
1.02336e-08
1.73902e-07
9.67886e-09
1.72348e-07
9.15336e-09
1.70853e-07
8.65297e-09
1.69417e-07
8.17349e-09
1.68041e-07
7.71085e-09
1.66725e-07
7.26092e-09
1.65468e-07
6.81907e-09
1.64272e-07
6.38132e-09
1.63138e-07
5.94112e-09
1.62066e-07
5.49549e-09
1.61061e-07
5.03326e-09
1.60124e-07
4.55447e-09
1.5926e-07
4.03863e-09
1.58475e-07
3.49333e-09
1.57775e-07
2.87907e-09
1.5717e-07
2.22584e-09
1.56669e-07
1.4446e-09
1.56288e-07
6.44798e-10
1.56033e-07
-3.95109e-10
1.55943e-07
-1.37945e-09
1.5599e-07
-2.65076e-09
1.56238e-07
-3.93388e-09
1.56667e-07
-4.37127e-09
-5.20252e-09
1.56982e-07
2.12269e-07
8.68956e-08
2.15143e-07
8.85658e-08
2.16817e-07
6.22451e-08
2.17861e-07
5.23651e-08
2.18275e-07
4.60487e-08
2.18399e-07
4.0538e-08
2.18331e-07
3.66179e-08
2.18039e-07
3.37202e-08
2.17517e-07
3.12802e-08
2.16783e-07
2.91307e-08
2.15862e-07
2.72241e-08
2.14777e-07
2.55159e-08
2.13556e-07
2.39669e-08
2.12224e-07
2.25498e-08
2.10804e-07
2.12463e-08
2.09318e-07
2.00427e-08
2.07785e-07
1.8928e-08
2.06221e-07
1.78931e-08
2.04641e-07
1.69299e-08
2.03055e-07
1.60318e-08
2.01475e-07
1.51924e-08
1.99906e-07
1.44062e-08
1.98357e-07
1.36682e-08
1.96832e-07
1.29737e-08
1.95336e-07
1.23182e-08
1.93872e-07
1.16976e-08
1.92443e-07
1.11079e-08
1.91051e-07
1.05451e-08
1.89699e-07
1.00055e-08
1.88387e-07
9.48498e-09
1.87118e-07
8.9797e-09
1.85894e-07
8.48555e-09
1.84715e-07
7.99775e-09
1.83584e-07
7.51222e-09
1.82503e-07
7.02201e-09
1.81475e-07
6.52379e-09
1.80502e-07
6.00589e-09
1.79589e-07
5.46738e-09
1.78741e-07
4.88762e-09
1.77962e-07
4.27165e-09
1.7726e-07
3.58123e-09
1.76645e-07
2.84078e-09
1.76124e-07
1.96587e-09
1.75716e-07
1.05289e-09
1.7542e-07
-9.96711e-11
1.75283e-07
-1.24182e-09
1.75268e-07
-2.63654e-09
1.7544e-07
-4.10581e-09
1.75822e-07
-4.75256e-09
-5.57488e-09
1.76194e-07
2.18315e-07
8.05609e-08
2.21192e-07
8.56891e-08
2.2279e-07
6.06475e-08
2.23863e-07
5.1292e-08
2.24385e-07
4.55262e-08
2.24687e-07
4.02367e-08
2.24895e-07
3.641e-08
2.2498e-07
3.36343e-08
2.24923e-07
3.13372e-08
2.24724e-07
2.93303e-08
2.24386e-07
2.75621e-08
2.23916e-07
2.59862e-08
2.23322e-07
2.45604e-08
2.22617e-07
2.32552e-08
2.21812e-07
2.20506e-08
2.20922e-07
2.09327e-08
2.1996e-07
1.98905e-08
2.18938e-07
1.89154e-08
2.17867e-07
1.80005e-08
2.16759e-07
1.71399e-08
2.15623e-07
1.63284e-08
2.14468e-07
1.55615e-08
2.13301e-07
1.48352e-08
2.12129e-07
1.41457e-08
2.10957e-07
1.34895e-08
2.09792e-07
1.28631e-08
2.08637e-07
1.22631e-08
2.07496e-07
1.16861e-08
2.06372e-07
1.11288e-08
2.0527e-07
1.05874e-08
2.04191e-07
1.00583e-08
2.0314e-07
9.5374e-09
2.02117e-07
9.02e-09
2.01128e-07
8.502e-09
2.00173e-07
7.9762e-09
1.99258e-07
7.43897e-09
1.98386e-07
6.87839e-09
1.97561e-07
6.2925e-09
1.96787e-07
5.66094e-09
1.96073e-07
4.98604e-09
1.95423e-07
4.23146e-09
1.94848e-07
3.41556e-09
1.94354e-07
2.45999e-09
1.93961e-07
1.44606e-09
1.93665e-07
1.96302e-10
1.93512e-07
-1.0892e-09
1.93469e-07
-2.59406e-09
1.9359e-07
-4.2267e-09
1.93946e-07
-5.10805e-09
-6.01892e-09
1.9439e-07
2.24549e-07
7.45051e-08
2.27452e-07
8.27861e-08
2.28986e-07
5.91137e-08
2.30066e-07
5.02116e-08
2.30629e-07
4.4963e-08
2.30979e-07
3.98868e-08
2.31277e-07
3.61125e-08
2.31511e-07
3.34004e-08
2.31662e-07
3.11856e-08
2.3173e-07
2.9263e-08
2.31712e-07
2.75797e-08
2.31608e-07
2.60907e-08
2.31416e-07
2.47522e-08
2.31139e-07
2.35324e-08
2.3078e-07
2.24094e-08
2.30345e-07
2.13678e-08
2.29839e-07
2.03958e-08
2.29271e-07
1.94842e-08
2.28646e-07
1.86256e-08
2.27971e-07
1.78141e-08
2.27255e-07
1.70448e-08
2.26503e-07
1.63135e-08
2.25722e-07
1.56164e-08
2.24917e-07
1.49503e-08
2.24095e-07
1.43119e-08
2.23259e-07
1.36984e-08
2.22416e-07
1.31067e-08
2.21568e-07
1.25337e-08
2.20721e-07
1.19764e-08
2.19877e-07
1.14313e-08
2.1904e-07
1.08949e-08
2.18214e-07
1.03633e-08
2.17402e-07
9.8318e-09
2.16608e-07
9.29625e-09
2.15835e-07
8.74931e-09
2.15087e-07
8.18706e-09
2.14368e-07
7.59751e-09
2.13683e-07
6.97762e-09
2.13036e-07
6.30762e-09
2.12435e-07
5.58712e-09
2.11885e-07
4.78196e-09
2.11395e-07
3.90459e-09
2.10972e-07
2.8833e-09
2.10635e-07
1.78366e-09
2.10377e-07
4.53837e-10
2.10244e-07
-9.55727e-10
2.10207e-07
-2.55779e-09
2.10308e-07
-4.32725e-09
2.1066e-07
-5.46065e-09
-6.54744e-09
2.11189e-07
2.30975e-07
6.87361e-08
2.33913e-07
7.9848e-08
2.3539e-07
5.76369e-08
2.36479e-07
4.91228e-08
2.37075e-07
4.43666e-08
2.3744e-07
3.95218e-08
2.3776e-07
3.5793e-08
2.3804e-07
3.31204e-08
2.38267e-07
3.09584e-08
2.38443e-07
2.90863e-08
2.38571e-07
2.74519e-08
2.38648e-07
2.60135e-08
2.38672e-07
2.47283e-08
2.38641e-07
2.35634e-08
2.38555e-07
2.24958e-08
2.38413e-07
2.15092e-08
2.38219e-07
2.05907e-08
2.37973e-07
1.97303e-08
2.37678e-07
1.89201e-08
2.37339e-07
1.81536e-08
2.36958e-07
1.74256e-08
2.3654e-07
1.67316e-08
2.36088e-07
1.60679e-08
2.35607e-07
1.54312e-08
2.35101e-07
1.48183e-08
2.34573e-07
1.42264e-08
2.34027e-07
1.36527e-08
2.33466e-07
1.3094e-08
2.32895e-07
1.25476e-08
2.32316e-07
1.20101e-08
2.31733e-07
1.14778e-08
2.3115e-07
1.09472e-08
2.30568e-07
1.04133e-08
2.29992e-07
9.87198e-09
2.29426e-07
9.31574e-09
2.28873e-07
8.74033e-09
2.28336e-07
8.1338e-09
2.27822e-07
7.49205e-09
2.27333e-07
6.79599e-09
2.26878e-07
6.04269e-09
2.2646e-07
5.20021e-09
2.26089e-07
4.27545e-09
2.25769e-07
3.20348e-09
2.25518e-07
2.03416e-09
2.2533e-07
6.41597e-10
2.25245e-07
-8.70603e-10
2.25245e-07
-2.55778e-09
2.25357e-07
-4.43869e-09
2.25726e-07
-5.83048e-09
-7.16434e-09
2.26343e-07
2.37601e-07
6.32596e-08
2.40579e-07
7.68706e-08
2.41998e-07
5.6217e-08
2.43095e-07
4.80265e-08
2.43728e-07
4.37335e-08
2.44106e-07
3.91435e-08
2.44431e-07
3.54678e-08
2.44724e-07
3.28277e-08
2.44974e-07
3.07082e-08
2.45187e-07
2.8873e-08
2.4537e-07
2.72695e-08
2.45522e-07
2.58612e-08
2.45643e-07
2.46072e-08
2.45732e-07
2.34748e-08
2.45787e-07
2.24409e-08
2.45807e-07
2.14887e-08
2.45793e-07
2.06051e-08
2.45744e-07
1.97796e-08
2.4566e-07
1.90037e-08
2.45543e-07
1.82706e-08
2.45394e-07
1.75747e-08
2.45214e-07
1.69111e-08
2.45006e-07
1.6276e-08
2.44772e-07
1.56657e-08
2.44513e-07
1.50771e-08
2.44232e-07
1.45071e-08
2.43932e-07
1.39529e-08
2.43615e-07
1.34114e-08
2.43283e-07
1.28796e-08
2.42938e-07
1.23543e-08
2.42585e-07
1.18317e-08
2.42224e-07
1.13081e-08
2.41859e-07
1.07784e-08
2.41492e-07
1.02384e-08
2.41127e-07
9.68055e-09
2.40768e-07
9.10011e-09
2.40416e-07
8.48523e-09
2.40078e-07
7.83074e-09
2.39755e-07
7.11832e-09
2.39455e-07
6.34268e-09
2.39181e-07
5.474e-09
2.38943e-07
4.51416e-09
2.38741e-07
3.40489e-09
2.38595e-07
2.18082e-09
2.38495e-07
7.40813e-10
2.38478e-07
-8.52862e-10
2.38534e-07
-2.6142e-09
2.38683e-07
-4.58727e-09
2.39084e-07
-6.23141e-09
-7.86578e-09
2.39785e-07
2.44436e-07
5.80793e-08
2.47452e-07
7.38548e-08
2.48817e-07
5.48524e-08
2.49916e-07
4.69274e-08
2.50588e-07
4.30618e-08
2.50983e-07
3.87486e-08
2.51313e-07
3.51379e-08
2.51611e-07
3.25291e-08
2.51869e-07
3.04502e-08
2.52094e-07
2.86487e-08
2.52293e-07
2.70699e-08
2.52472e-07
2.56829e-08
2.52629e-07
2.44493e-08
2.52767e-07
2.33371e-08
2.52884e-07
2.23236e-08
2.52981e-07
2.13921e-08
2.53057e-07
2.05295e-08
2.53111e-07
1.97254e-08
2.53143e-07
1.89711e-08
2.53154e-07
1.82596e-08
2.53144e-07
1.75849e-08
2.53113e-07
1.69422e-08
2.53062e-07
1.63273e-08
2.52991e-07
1.57364e-08
2.52902e-07
1.51662e-08
2.52795e-07
1.46136e-08
2.52673e-07
1.40754e-08
2.52536e-07
1.35486e-08
2.52385e-07
1.30301e-08
2.52223e-07
1.25165e-08
2.52051e-07
1.20038e-08
2.51871e-07
1.14884e-08
2.51684e-07
1.09649e-08
2.51494e-07
1.0429e-08
2.51301e-07
9.87289e-09
2.5111e-07
9.29145e-09
2.50922e-07
8.673e-09
2.50742e-07
8.01129e-09
2.50571e-07
7.28875e-09
2.50416e-07
6.49798e-09
2.50279e-07
5.61112e-09
2.50167e-07
4.62554e-09
2.50083e-07
3.48934e-09
2.50041e-07
2.22308e-09
2.50034e-07
7.47349e-10
2.5009e-07
-9.09058e-10
2.50211e-07
-2.7353e-09
2.50413e-07
-4.78874e-09
2.50852e-07
-6.67062e-09
-8.64203e-09
2.51628e-07
2.51489e-07
5.31972e-08
2.54533e-07
7.08105e-08
2.55853e-07
5.35321e-08
2.5695e-07
4.58307e-08
2.5766e-07
4.23522e-08
2.58074e-07
3.83342e-08
2.5841e-07
3.4802e-08
2.58714e-07
3.2225e-08
2.58977e-07
3.01868e-08
2.59207e-07
2.84196e-08
2.59412e-07
2.68648e-08
2.59598e-07
2.54965e-08
2.59768e-07
2.42793e-08
2.59923e-07
2.31822e-08
2.60064e-07
2.21828e-08
2.60191e-07
2.12648e-08
2.60305e-07
2.04155e-08
2.60406e-07
1.96245e-08
2.60494e-07
1.88832e-08
2.60569e-07
1.81846e-08
2.60631e-07
1.75228e-08
2.6068e-07
1.68928e-08
2.60717e-07
1.62904e-08
2.60742e-07
1.57117e-08
2.60755e-07
1.51533e-08
2.60757e-07
1.4612e-08
2.60747e-07
1.40846e-08
2.60728e-07
1.3568e-08
2.60699e-07
1.30588e-08
2.60662e-07
1.25536e-08
2.60618e-07
1.20484e-08
2.60567e-07
1.15393e-08
2.60511e-07
1.10209e-08
2.60451e-07
1.04885e-08
2.6039e-07
9.93431e-09
2.60329e-07
9.35272e-09
2.60269e-07
8.73224e-09
2.60215e-07
8.06559e-09
2.60168e-07
7.33599e-09
2.60132e-07
6.5341e-09
2.60109e-07
5.63391e-09
2.60106e-07
4.62871e-09
2.60122e-07
3.47258e-09
2.60172e-07
2.17365e-09
2.60249e-07
6.70023e-10
2.60375e-07
-1.03444e-09
2.60558e-07
-2.91863e-09
2.60815e-07
-5.04629e-09
2.61295e-07
-7.15015e-09
-9.47465e-09
2.62128e-07
2.58767e-07
4.86137e-08
2.61829e-07
6.77484e-08
2.63116e-07
5.2245e-08
2.64205e-07
4.47416e-08
2.6495e-07
4.1607e-08
2.65386e-07
3.78983e-08
2.65729e-07
3.4459e-08
2.66039e-07
3.1915e-08
2.66308e-07
2.99177e-08
2.66541e-07
2.81864e-08
2.66749e-07
2.66566e-08
2.66939e-07
2.53068e-08
2.67113e-07
2.41053e-08
2.67274e-07
2.30218e-08
2.67422e-07
2.20343e-08
2.6756e-07
2.1127e-08
2.67688e-07
2.02873e-08
2.67807e-07
1.95053e-08
2.67918e-07
1.87724e-08
2.68021e-07
1.80819e-08
2.68116e-07
1.74278e-08
2.68203e-07
1.68052e-08
2.68284e-07
1.62099e-08
2.68357e-07
1.56381e-08
2.68424e-07
1.50863e-08
2.68485e-07
1.45514e-08
2.6854e-07
1.403e-08
2.68588e-07
1.3519e-08
2.68632e-07
1.3015e-08
2.68671e-07
1.25145e-08
2.68706e-07
1.20135e-08
2.68738e-07
1.15077e-08
2.68767e-07
1.09918e-08
2.68795e-07
1.04609e-08
2.68822e-07
9.90708e-09
2.6885e-07
9.32431e-09
2.68881e-07
8.70133e-09
2.68917e-07
8.02991e-09
2.68959e-07
7.294e-09
2.6901e-07
6.4826e-09
2.69073e-07
5.57139e-09
2.69151e-07
4.55004e-09
2.69246e-07
3.37796e-09
2.69367e-07
2.05283e-09
2.69511e-07
5.25986e-10
2.69693e-07
-1.21666e-09
2.69928e-07
-3.15368e-09
2.70236e-07
-5.35379e-09
2.70751e-07
-7.66522e-09
-1.03404e-08
2.71616e-07
2.66279e-07
4.43274e-08
2.69348e-07
6.46791e-08
2.70612e-07
5.09806e-08
2.7169e-07
4.36642e-08
2.72467e-07
4.08294e-08
2.72926e-07
3.74392e-08
2.73277e-07
3.41083e-08
2.73593e-07
3.15989e-08
2.73868e-07
2.96424e-08
2.74106e-07
2.79487e-08
2.74317e-07
2.64452e-08
2.7451e-07
2.51147e-08
2.74686e-07
2.39291e-08
2.74849e-07
2.28591e-08
2.75e-07
2.18831e-08
2.75141e-07
2.09856e-08
2.75274e-07
2.01544e-08
2.754e-07
1.93798e-08
2.75518e-07
1.86535e-08
2.75632e-07
1.79687e-08
2.7574e-07
1.73198e-08
2.75843e-07
1.67018e-08
2.75942e-07
1.61107e-08
2.76038e-07
1.55426e-08
2.7613e-07
1.49942e-08
2.76219e-07
1.44623e-08
2.76305e-07
1.39436e-08
2.76389e-07
1.3435e-08
2.76471e-07
1.2933e-08
2.76552e-07
1.24342e-08
2.76631e-07
1.19343e-08
2.76709e-07
1.14292e-08
2.76788e-07
1.09133e-08
2.76867e-07
1.03815e-08
2.76948e-07
9.82616e-09
2.77032e-07
9.24057e-09
2.7712e-07
8.6138e-09
2.77213e-07
7.93678e-09
2.77313e-07
7.19414e-09
2.77422e-07
6.37346e-09
2.77541e-07
5.45194e-09
2.77675e-07
4.41612e-09
2.77823e-07
3.22996e-09
2.77993e-07
1.88279e-09
2.78184e-07
3.35224e-10
2.78407e-07
-1.43984e-09
2.7868e-07
-3.42632e-09
2.79026e-07
-5.69975e-09
2.79566e-07
-8.2052e-09
-1.12175e-08
2.80443e-07
2.74033e-07
4.03353e-08
2.77099e-07
6.16135e-08
2.78351e-07
4.97286e-08
2.79413e-07
4.26023e-08
2.80219e-07
4.0023e-08
2.80703e-07
3.69555e-08
2.81062e-07
3.37489e-08
2.81384e-07
3.12768e-08
2.81666e-07
2.93607e-08
2.81909e-07
2.77061e-08
2.82123e-07
2.62305e-08
2.82318e-07
2.49201e-08
2.82496e-07
2.37507e-08
2.82661e-07
2.26946e-08
2.82814e-07
2.17303e-08
2.82957e-07
2.08426e-08
2.83091e-07
2.00198e-08
2.83219e-07
1.92522e-08
2.83341e-07
1.85318e-08
2.83457e-07
1.7852e-08
2.8357e-07
1.72072e-08
2.83679e-07
1.65926e-08
2.83786e-07
1.60042e-08
2.8389e-07
1.54384e-08
2.83992e-07
1.48917e-08
2.84094e-07
1.4361e-08
2.84194e-07
1.38431e-08
2.84294e-07
1.3335e-08
2.84394e-07
1.28331e-08
2.84494e-07
1.23338e-08
2.84596e-07
1.18331e-08
2.84698e-07
1.13267e-08
2.84802e-07
1.0809e-08
2.84909e-07
1.02747e-08
2.85019e-07
9.7161e-09
2.85134e-07
9.12622e-09
2.85253e-07
8.49439e-09
2.85379e-07
7.81079e-09
2.85512e-07
7.06068e-09
2.85655e-07
6.23043e-09
2.85809e-07
5.29858e-09
2.85976e-07
4.24908e-09
2.86156e-07
3.04955e-09
2.86356e-07
1.68269e-09
2.86576e-07
1.15587e-10
2.86825e-07
-1.68882e-09
2.87122e-07
-3.72285e-09
2.87493e-07
-6.07092e-09
2.88044e-07
-8.75696e-09
-1.20848e-08
2.88912e-07
2.8204e-07
3.66326e-08
2.85091e-07
5.85626e-08
2.8634e-07
4.84793e-08
2.87384e-07
4.15586e-08
2.88215e-07
3.91924e-08
2.88724e-07
3.64458e-08
2.89093e-07
3.33797e-08
2.89421e-07
3.09489e-08
2.8971e-07
2.90725e-08
2.89958e-07
2.74582e-08
2.90176e-07
2.60121e-08
2.90373e-07
2.47226e-08
2.90554e-07
2.35702e-08
2.9072e-07
2.25283e-08
2.90875e-07
2.15761e-08
2.91019e-07
2.06984e-08
2.91154e-07
1.9884e-08
2.91283e-07
1.91235e-08
2.91406e-07
1.84089e-08
2.91524e-07
1.77339e-08
2.91638e-07
1.70929e-08
2.91749e-07
1.64814e-08
2.91858e-07
1.58952e-08
2.91966e-07
1.5331e-08
2.92072e-07
1.47852e-08
2.92178e-07
1.4255e-08
2.92284e-07
1.37371e-08
2.92391e-07
1.32284e-08
2.92499e-07
1.27254e-08
2.92608e-07
1.22248e-08
2.92719e-07
1.17222e-08
2.92832e-07
1.12133e-08
2.92948e-07
1.06926e-08
2.93068e-07
1.01547e-08
2.93193e-07
9.59181e-09
2.93322e-07
8.99667e-09
2.93458e-07
8.35889e-09
2.93601e-07
7.66802e-09
2.93751e-07
6.90984e-09
2.93912e-07
6.06977e-09
2.94083e-07
5.12744e-09
2.94268e-07
4.06473e-09
2.94465e-07
2.85216e-09
2.9468e-07
1.46725e-09
2.94915e-07
-1.18957e-10
2.95177e-07
-1.9509e-09
2.95486e-07
-4.03135e-09
2.95869e-07
-6.45474e-09
2.96419e-07
-9.30692e-09
-1.29228e-08
2.97257e-07
2.90308e-07
3.32129e-08
2.93334e-07
5.55375e-08
2.94589e-07
4.72241e-08
2.95612e-07
4.05353e-08
2.96462e-07
3.83424e-08
2.96999e-07
3.59091e-08
2.97379e-07
3.29995e-08
2.97713e-07
3.06151e-08
2.98008e-07
2.87778e-08
2.98261e-07
2.72046e-08
2.98484e-07
2.57896e-08
2.98684e-07
2.45222e-08
2.98867e-07
2.33872e-08
2.99035e-07
2.23601e-08
2.99191e-07
2.14202e-08
2.99337e-07
2.0553e-08
2.99473e-07
1.97472e-08
2.99603e-07
1.89939e-08
2.99727e-07
1.82853e-08
2.99845e-07
1.76151e-08
2.9996e-07
1.69779e-08
3.00073e-07
1.63693e-08
3.00183e-07
1.57852e-08
3.00291e-07
1.52223e-08
3.00399e-07
1.46773e-08
3.00507e-07
1.41471e-08
3.00615e-07
1.36288e-08
3.00725e-07
1.31191e-08
3.00835e-07
1.26148e-08
3.00948e-07
1.21122e-08
3.01063e-07
1.16071e-08
3.01181e-07
1.10953e-08
3.01303e-07
1.05711e-08
3.01428e-07
1.00289e-08
3.01559e-07
9.46122e-09
3.01695e-07
8.86034e-09
3.01838e-07
8.21615e-09
3.01988e-07
7.51767e-09
3.02147e-07
6.75114e-09
3.02316e-07
5.90123e-09
3.02495e-07
4.94845e-09
3.02686e-07
3.87302e-09
3.02891e-07
2.64776e-09
3.03112e-07
1.24602e-09
3.03352e-07
-3.58769e-10
3.03618e-07
-2.21706e-09
3.03929e-07
-4.34254e-09
3.04315e-07
-6.84058e-09
3.04851e-07
-9.84251e-09
-1.37135e-08
3.05641e-07
2.98847e-07
3.0068e-08
3.01835e-07
5.25496e-08
3.03105e-07
4.59549e-08
3.04106e-07
3.95336e-08
3.0497e-07
3.74784e-08
3.05535e-07
3.53448e-08
3.05927e-07
3.26067e-08
3.06267e-07
3.02754e-08
3.06568e-07
2.84766e-08
3.06828e-07
2.69451e-08
3.07055e-07
2.55628e-08
3.07258e-07
2.43185e-08
3.07444e-07
2.32016e-08
3.07614e-07
2.21897e-08
3.07772e-07
2.12626e-08
3.07919e-07
2.04061e-08
3.08057e-07
1.96093e-08
3.08187e-07
1.88633e-08
3.08312e-07
1.81608e-08
3.08431e-07
1.74955e-08
3.08547e-07
1.68622e-08
3.0866e-07
1.62565e-08
3.08771e-07
1.56745e-08
3.0888e-07
1.51129e-08
3.08989e-07
1.45686e-08
3.09097e-07
1.40384e-08
3.09207e-07
1.35195e-08
3.09317e-07
1.30087e-08
3.09429e-07
1.25027e-08
3.09543e-07
1.1998e-08
3.0966e-07
1.14903e-08
3.0978e-07
1.09752e-08
3.09904e-07
1.04473e-08
3.10032e-07
9.90071e-09
3.10165e-07
9.32803e-09
3.10304e-07
8.72127e-09
3.1045e-07
8.07052e-09
3.10603e-07
7.36444e-09
3.10765e-07
6.58957e-09
3.10936e-07
5.73006e-09
3.11117e-07
4.76709e-09
3.11311e-07
3.6796e-09
3.11516e-07
2.44215e-09
3.11738e-07
1.02485e-09
3.11977e-07
-5.97807e-10
3.12241e-07
-2.48123e-09
3.12548e-07
-4.64958e-09
3.12927e-07
-7.21967e-09
3.13437e-07
-1.0353e-08
-1.44412e-08
3.14165e-07
3.07667e-07
2.71882e-08
3.10607e-07
4.96099e-08
3.11897e-07
4.4665e-08
3.12876e-07
3.8554e-08
3.13749e-07
3.66055e-08
3.14341e-07
3.4753e-08
3.14748e-07
3.21998e-08
3.15094e-07
2.99296e-08
3.15401e-07
2.81688e-08
3.15667e-07
2.66792e-08
3.15899e-07
2.53314e-08
3.16106e-07
2.41114e-08
3.16294e-07
2.30131e-08
3.16467e-07
2.20169e-08
3.16627e-07
2.11031e-08
3.16775e-07
2.02576e-08
3.16914e-07
1.947e-08
3.17046e-07
1.87316e-08
3.17171e-07
1.80354e-08
3.17292e-07
1.73751e-08
3.17408e-07
1.67458e-08
3.17522e-07
1.61431e-08
3.17633e-07
1.55632e-08
3.17743e-07
1.5003e-08
3.17852e-07
1.44592e-08
3.17962e-07
1.3929e-08
3.18072e-07
1.34095e-08
3.18183e-07
1.28975e-08
3.18296e-07
1.23899e-08
3.18411e-07
1.18829e-08
3.18528e-07
1.13726e-08
3.18649e-07
1.08542e-08
3.18774e-07
1.03225e-08
3.18903e-07
9.77148e-09
3.19038e-07
9.19378e-09
3.19178e-07
8.58119e-09
3.19324e-07
7.92397e-09
3.19478e-07
7.21047e-09
3.1964e-07
6.42751e-09
3.19812e-07
5.55882e-09
3.19993e-07
4.58616e-09
3.20185e-07
3.48746e-09
3.20388e-07
2.23858e-09
3.20606e-07
8.07121e-10
3.20841e-07
-8.32355e-10
3.21099e-07
-2.73932e-09
3.21396e-07
-4.94731e-09
3.21761e-07
-7.58449e-09
3.22237e-07
-1.08291e-08
-1.50925e-08
3.22889e-07
3.16777e-07
2.45622e-08
3.19658e-07
4.67295e-08
3.20974e-07
4.33487e-08
3.21932e-07
3.75961e-08
3.22808e-07
3.57288e-08
3.23427e-07
3.41345e-08
3.23849e-07
3.17773e-08
3.24202e-07
2.95774e-08
3.24516e-07
2.78547e-08
3.24788e-07
2.64069e-08
3.25025e-07
2.50949e-08
3.25235e-07
2.39006e-08
3.25427e-07
2.28217e-08
3.25602e-07
2.18416e-08
3.25764e-07
2.09415e-08
3.25914e-07
2.01074e-08
3.26055e-07
1.93292e-08
3.26188e-07
1.85987e-08
3.26314e-07
1.79089e-08
3.26436e-07
1.72538e-08
3.26553e-07
1.66285e-08
3.26667e-07
1.60288e-08
3.26779e-07
1.54512e-08
3.2689e-07
1.48923e-08
3.27e-07
1.43491e-08
3.2711e-07
1.3819e-08
3.27221e-07
1.32988e-08
3.27332e-07
1.27857e-08
3.27446e-07
1.22764e-08
3.27562e-07
1.17672e-08
3.2768e-07
1.12541e-08
3.27802e-07
1.07326e-08
3.27927e-07
1.01971e-08
3.28057e-07
9.64171e-09
3.28192e-07
9.05907e-09
3.28332e-07
8.44082e-09
3.28479e-07
7.77732e-09
3.28632e-07
7.05674e-09
3.28794e-07
6.26606e-09
3.28964e-07
5.3888e-09
3.29143e-07
4.4071e-09
3.29332e-07
3.29818e-09
3.29532e-07
2.03887e-09
3.29744e-07
5.94848e-10
3.29972e-07
-1.05995e-09
3.30221e-07
-2.9883e-09
3.30505e-07
-5.23159e-09
3.30849e-07
-7.92836e-09
3.31283e-07
-1.1263e-08
-1.56568e-08
3.31847e-07
3.26187e-07
2.21773e-08
3.28998e-07
4.39195e-08
3.30344e-07
4.2002e-08
3.31282e-07
3.66587e-08
3.32157e-07
3.4853e-08
3.32801e-07
3.34907e-08
3.33241e-07
3.13378e-08
3.336e-07
2.92181e-08
3.3392e-07
2.75342e-08
3.342e-07
2.61279e-08
3.34441e-07
2.4853e-08
3.34656e-07
2.36857e-08
3.34851e-07
2.26269e-08
3.35029e-07
2.16635e-08
3.35193e-07
2.07775e-08
3.35345e-07
1.99552e-08
3.35488e-07
1.91868e-08
3.35622e-07
1.84644e-08
3.3575e-07
1.77811e-08
3.35872e-07
1.71314e-08
3.3599e-07
1.65103e-08
3.36106e-07
1.59137e-08
3.36218e-07
1.53383e-08
3.3633e-07
1.47808e-08
3.36441e-07
1.42383e-08