/*--------------------------------*- C++ -*----------------------------------*\
  =========                 |
  \\      /  F ield         | OpenFOAM: The Open Source CFD Toolbox
   \\    /   O peration     | Website:  https://openfoam.org
    \\  /    A nd           | Version:  7
     \\/     M anipulation  |
\*---------------------------------------------------------------------------*/
FoamFile
{
    version     2.0;
    format      ascii;
    class       volVectorField;
    location    "0.45";
    object      U;
}
// * * * * * * * * * * * * * * * * * * * * * * * * * * * * * * * * * * * * * //

dimensions      [0 1 -1 0 0 0 0];

internalField   nonuniform List<vector> 
70000
(
(0.553415 0.0169781 0)
(0.251426 0.00340031 0)
(0.165945 0.000318862 0)
(0.132472 4.89351e-05 0)
(0.117376 4.39839e-05 0)
(0.107428 5.21445e-05 0)
(0.0994669 4.4338e-05 0)
(0.093034 3.52522e-05 0)
(0.0878019 2.92026e-05 0)
(0.083446 2.50501e-05 0)
(0.0797386 2.18702e-05 0)
(0.0765322 1.93146e-05 0)
(0.0737256 1.7224e-05 0)
(0.0712449 1.54902e-05 0)
(0.0690337 1.40323e-05 0)
(0.0670489 1.27904e-05 0)
(0.0652562 1.17199e-05 0)
(0.0636286 1.07858e-05 0)
(0.0621442 9.9625e-06 0)
(0.0607851 9.22829e-06 0)
(0.0595367 8.56683e-06 0)
(0.0583869 7.96425e-06 0)
(0.0573257 7.40868e-06 0)
(0.0563446 6.89037e-06 0)
(0.0554366 6.40068e-06 0)
(0.0545958 5.93165e-06 0)
(0.0538176 5.47555e-06 0)
(0.0530978 5.02613e-06 0)
(0.0524335 4.574e-06 0)
(0.0518222 4.11501e-06 0)
(0.0512624 3.63596e-06 0)
(0.0507531 3.13572e-06 0)
(0.0502944 2.59341e-06 0)
(0.0498865 2.01043e-06 0)
(0.0495313 1.3606e-06 0)
(0.049231 6.39738e-07 0)
(0.0489887 -1.69999e-07 0)
(0.0488105 -1.10982e-06 0)
(0.0486979 -2.15576e-06 0)
(0.0486677 -3.36206e-06 0)
(0.0487107 -4.7717e-06 0)
(0.0488705 -6.28909e-06 0)
(0.049099 -7.41187e-06 0)
(0.0495198 -1.01905e-05 0)
(0.0499332 -8.62972e-06 0)
(0.0507705 -1.68202e-05 0)
(0.0511691 -9.75696e-07 0)
(0.0528287 -2.74439e-05 0)
(0.0523624 6.57241e-05 0)
(0.0517882 -0.00198161 0)
(0.884863 0.0434928 0)
(0.650162 0.0201481 0)
(0.494016 0.00660366 0)
(0.403619 0.00275381 0)
(0.354931 0.00154705 0)
(0.323638 0.00113078 0)
(0.299759 0.000908329 0)
(0.280573 0.000743655 0)
(0.264884 0.000620826 0)
(0.25179 0.000530166 0)
(0.240641 0.000461261 0)
(0.230997 0.000406964 0)
(0.22255 0.000363029 0)
(0.215079 0.000326807 0)
(0.208415 0.000296493 0)
(0.202429 0.000270785 0)
(0.197017 0.000248725 0)
(0.192099 0.000229587 0)
(0.187609 0.000212816 0)
(0.183494 0.000197978 0)
(0.179708 0.000184731 0)
(0.176216 0.000172796 0)
(0.172987 0.000161948 0)
(0.169996 0.000151995 0)
(0.167221 0.000142775 0)
(0.164643 0.000134147 0)
(0.162248 0.000125982 0)
(0.160023 0.000118162 0)
(0.157958 0.000110569 0)
(0.156044 0.000103095 0)
(0.154277 9.5613e-05 0)
(0.15265 8.80136e-05 0)
(0.151163 8.01345e-05 0)
(0.149815 7.18615e-05 0)
(0.148608 6.29593e-05 0)
(0.147547 5.33183e-05 0)
(0.146638 4.25623e-05 0)
(0.145895 3.06383e-05 0)
(0.14532 1.68778e-05 0)
(0.144958 1.64933e-06 0)
(0.14478 -1.66307e-05 0)
(0.144906 -3.73917e-05 0)
(0.145207 -6.25577e-05 0)
(0.146014 -9.01109e-05 0)
(0.146824 -0.000120875 0)
(0.148754 -0.000159586 0)
(0.149668 -0.000178152 0)
(0.153881 -0.000250258 0)
(0.153248 7.93501e-05 0)
(0.157829 -0.00295087 0)
(0.991208 0.0499547 0)
(0.890937 0.0305607 0)
(0.762533 0.0146081 0)
(0.65661 0.00796835 0)
(0.585537 0.00487737 0)
(0.536194 0.00347242 0)
(0.498327 0.00273621 0)
(0.467721 0.00224175 0)
(0.442434 0.0018777 0)
(0.421156 0.00160565 0)
(0.402942 0.0013977 0)
(0.387123 0.00123384 0)
(0.373225 0.00110136 0)
(0.360898 0.000992172 0)
(0.349877 0.000900789 0)
(0.339955 0.0008233 0)
(0.330969 0.000756819 0)
(0.322789 0.000699169 0)
(0.315308 0.000648686 0)
(0.30844 0.000604069 0)
(0.302113 0.000564291 0)
(0.296267 0.000528524 0)
(0.290853 0.000496094 0)
(0.285826 0.000466434 0)
(0.281154 0.00043907 0)
(0.276803 0.000413585 0)
(0.272751 0.000389611 0)
(0.268974 0.000366808 0)
(0.265456 0.000344853 0)
(0.26218 0.000323434 0)
(0.259138 0.000302222 0)
(0.256319 0.000280901 0)
(0.253719 0.000259066 0)
(0.251334 0.000236387 0)
(0.249166 0.000212264 0)
(0.247218 0.00018641 0)
(0.245498 0.000157766 0)
(0.244024 0.000126351 0)
(0.242795 9.00335e-05 0)
(0.241874 5.00411e-05 0)
(0.241217 1.72707e-06 0)
(0.240996 -5.17749e-05 0)
(0.241023 -0.000120853 0)
(0.241772 -0.00019099 0)
(0.242533 -0.000286864 0)
(0.244891 -0.000373343 0)
(0.245889 -0.000485841 0)
(0.251455 -0.000618536 0)
(0.250802 -0.000278792 0)
(0.25954 -0.00298983 0)
(1.01554 0.0489526 0)
(1.0065 0.0357211 0)
(0.935921 0.020815 0)
(0.852083 0.013494 0)
(0.782346 0.00919391 0)
(0.727233 0.00677962 0)
(0.682174 0.00538351 0)
(0.644442 0.00444202 0)
(0.612458 0.0037468 0)
(0.585028 0.00322008 0)
(0.561217 0.00281285 0)
(0.540318 0.00248982 0)
(0.521804 0.00222752 0)
(0.505273 0.0020106 0)
(0.490409 0.00182853 0)
(0.476963 0.00167378 0)
(0.464737 0.00154076 0)
(0.453566 0.00142524 0)
(0.443318 0.00132398 0)
(0.433881 0.00123444 0)
(0.425165 0.00115458 0)
(0.417091 0.0010828 0)
(0.409593 0.00101777 0)
(0.402618 0.000958361 0)
(0.396116 0.000903658 0)
(0.390048 0.000852842 0)
(0.38438 0.000805201 0)
(0.379082 0.000760076 0)
(0.37413 0.000716859 0)
(0.369503 0.000674949 0)
(0.365185 0.000633751 0)
(0.361163 0.000592657 0)
(0.357429 0.000550955 0)
(0.353975 0.000508016 0)
(0.350801 0.000462769 0)
(0.34791 0.000414709 0)
(0.345306 0.000361836 0)
(0.34301 0.000304352 0)
(0.341017 0.000237966 0)
(0.339399 0.000165372 0)
(0.338104 7.67468e-05 0)
(0.337325 -1.75811e-05 0)
(0.336853 -0.000143893 0)
(0.337217 -0.000267354 0)
(0.33763 -0.000451566 0)
(0.339859 -0.000593923 0)
(0.340688 -0.000842933 0)
(0.346421 -0.00103775 0)
(0.346089 -0.000792756 0)
(0.355623 -0.00291551 0)
(1.01435 0.0460968 0)
(1.04799 0.0373373 0)
(1.02459 0.0241809 0)
(0.974737 0.017551 0)
(0.92358 0.0131027 0)
(0.87689 0.0101995 0)
(0.834766 0.00833956 0)
(0.797057 0.00701644 0)
(0.763538 0.00600472 0)
(0.73377 0.00521582 0)
(0.707241 0.00459226 0)
(0.683482 0.00408974 0)
(0.662094 0.0036769 0)
(0.642748 0.00333232 0)
(0.625167 0.00304096 0)
(0.609122 0.00279178 0)
(0.594419 0.0025765 0)
(0.580898 0.00238876 0)
(0.568422 0.00222363 0)
(0.556877 0.00207718 0)
(0.546164 0.00194631 0)
(0.5362 0.00182847 0)
(0.526912 0.00172159 0)
(0.51824 0.00162392 0)
(0.510129 0.00153398 0)
(0.502535 0.0014505 0)
(0.495417 0.00137234 0)
(0.488742 0.00129847 0)
(0.482481 0.00122794 0)
(0.47661 0.0011598 0)
(0.471108 0.00109315 0)
(0.465959 0.00102704 0)
(0.461153 0.000960383 0)
(0.456678 0.000892227 0)
(0.452535 0.000820956 0)
(0.448721 0.000745827 0)
(0.445241 0.000663763 0)
(0.442114 0.000575194 0)
(0.439335 0.000473432 0)
(0.436974 0.00036276 0)
(0.434982 0.000227896 0)
(0.433546 8.50718e-05 0)
(0.432472 -0.000104729 0)
(0.432267 -0.000289572 0)
(0.432193 -0.000572846 0)
(0.433918 -0.000784052 0)
(0.43451 -0.00117639 0)
(0.43957 -0.00146325 0)
(0.439811 -0.00132083 0)
(0.448249 -0.00297034 0)
(1.00941 0.0430463 0)
(1.05564 0.0370921 0)
(1.05869 0.025321 0)
(1.03635 0.0197539 0)
(1.0072 0.0157884 0)
(0.97623 0.0129247 0)
(0.944744 0.0109535 0)
(0.913919 0.0094698 0)
(0.88461 0.00827739 0)
(0.857202 0.00730794 0)
(0.831772 0.006516 0)
(0.80826 0.00586127 0)
(0.786547 0.00531249 0)
(0.766491 0.004847 0)
(0.747946 0.00444813 0)
(0.730773 0.00410324 0)
(0.714841 0.00380251 0)
(0.700033 0.00353821 0)
(0.686244 0.00330419 0)
(0.673379 0.0030955 0)
(0.661356 0.00290812 0)
(0.650101 0.00273875 0)
(0.639549 0.00258462 0)
(0.629644 0.00244342 0)
(0.620335 0.00231315 0)
(0.611579 0.00219208 0)
(0.603336 0.00207867 0)
(0.595572 0.00197149 0)
(0.58826 0.00186926 0)
(0.581374 0.00177066 0)
(0.574894 0.00167446 0)
(0.568801 0.00157936 0)
(0.563085 0.00148389 0)
(0.557734 0.00138673 0)
(0.552746 0.00128571 0)
(0.548119 0.00117983 0)
(0.543855 0.0010649 0)
(0.539974 0.000941509 0)
(0.53647 0.000800683 0)
(0.533408 0.000647901 0)
(0.530749 0.000463125 0)
(0.528655 0.000266192 0)
(0.526976 8.82409e-06 0)
(0.526138 -0.000243477 0)
(0.525552 -0.00062702 0)
(0.526587 -0.000924021 0)
(0.526928 -0.00144721 0)
(0.530952 -0.00186041 0)
(0.531674 -0.00180944 0)
(0.538637 -0.00308528 0)
(1.00635 0.0401782 0)
(1.05241 0.0361451 0)
(1.06607 0.0252436 0)
(1.05956 0.0205574 0)
(1.04695 0.0172134 0)
(1.03094 0.0146406 0)
(1.01208 0.0128097 0)
(0.991436 0.0113833 0)
(0.970071 0.0101843 0)
(0.948714 0.00916665 0)
(0.927809 0.00830406 0)
(0.90762 0.00756846 0)
(0.888295 0.00693555 0)
(0.869905 0.00638668 0)
(0.852471 0.00590748 0)
(0.835979 0.00548645 0)
(0.820401 0.00511429 0)
(0.805692 0.00478334 0)
(0.791808 0.00448732 0)
(0.778699 0.00422101 0)
(0.766318 0.00398007 0)
(0.754619 0.00376083 0)
(0.743558 0.00356019 0)
(0.733095 0.00337547 0)
(0.723193 0.00320435 0)
(0.713819 0.00304476 0)
(0.704941 0.00289487 0)
(0.696533 0.00275293 0)
(0.688572 0.00261736 0)
(0.681035 0.00248655 0)
(0.673906 0.00235894 0)
(0.667169 0.00223291 0)
(0.660815 0.00210663 0)
(0.654835 0.00197845 0)
(0.649226 0.0018456 0)
(0.643988 0.00170684 0)
(0.639123 0.00155694 0)
(0.634648 0.00139646 0)
(0.630565 0.00121453 0)
(0.626924 0.0010171 0)
(0.623708 0.000780538 0)
(0.62104 0.000526911 0)
(0.618831 0.000199224 0)
(0.617396 -0.000125265 0)
(0.616338 -0.000605139 0)
(0.616664 -0.00100284 0)
(0.616728 -0.00164254 0)
(0.619697 -0.0022008 0)
(0.62067 -0.00224435 0)
(0.626284 -0.00323184 0)
(1.00506 0.0375009 0)
(1.04763 0.0350465 0)
(1.06397 0.0246956 0)
(1.06421 0.0205875 0)
(1.06074 0.0177502 0)
(1.05487 0.0154795 0)
(1.04615 0.0138638 0)
(1.03499 0.0126023 0)
(1.02212 0.0115141 0)
(1.00814 0.0105593 0)
(0.993503 0.00972414 0)
(0.978563 0.00899076 0)
(0.963587 0.00834254 0)
(0.948773 0.00776655 0)
(0.934256 0.00725261 0)
(0.920131 0.00679228 0)
(0.906457 0.00637837 0)
(0.89327 0.00600471 0)
(0.880588 0.005666 0)
(0.868417 0.00535765 0)
(0.856754 0.00507572 0)
(0.845589 0.00481678 0)
(0.83491 0.00457782 0)
(0.824702 0.00435621 0)
(0.81495 0.00414957 0)
(0.805636 0.00395576 0)
(0.796745 0.0037728 0)
(0.788262 0.00359881 0)
(0.780172 0.00343203 0)
(0.772464 0.00327063 0)
(0.765127 0.00311285 0)
(0.758152 0.00295679 0)
(0.751534 0.00280031 0)
(0.745267 0.00264147 0)
(0.739352 0.00247699 0)
(0.733792 0.00230533 0)
(0.728592 0.0021204 0)
(0.723768 0.00192251 0)
(0.719325 0.00169938 0)
(0.715307 0.00145663 0)
(0.711713 0.00116861 0)
(0.708632 0.000857014 0)
(0.70603 0.000460868 0)
(0.704122 5.95705e-05 0)
(0.702677 -0.000510456 0)
(0.702393 -0.0010173 0)
(0.702172 -0.00176241 0)
(0.704216 -0.00247076 0)
(0.705258 -0.00262129 0)
(0.709763 -0.00340649 0)
(1.00451 0.0349649 0)
(1.0436 0.0339663 0)
(1.05994 0.0240442 0)
(1.06225 0.0202973 0)
(1.06256 0.0178138 0)
(1.06192 0.0157573 0)
(1.05938 0.0143151 0)
(1.05486 0.0132192 0)
(1.04869 0.012273 0)
(1.04116 0.0114301 0)
(1.03256 0.0106791 0)
(1.02315 0.0100064 0)
(1.01315 0.00939895 0)
(1.00276 0.00884758 0)
(0.992146 0.00834541 0)
(0.981444 0.00788685 0)
(0.970756 0.00746709 0)
(0.960165 0.00708182 0)
(0.949732 0.00672726 0)
(0.939505 0.00639998 0)
(0.929518 0.00609695 0)
(0.919795 0.0058154 0)
(0.910354 0.00555286 0)
(0.901204 0.00530702 0)
(0.892353 0.0050758 0)
(0.883804 0.0048572 0)
(0.875558 0.00464937 0)
(0.867615 0.00445043 0)
(0.859972 0.00425861 0)
(0.852629 0.00407202 0)
(0.845585 0.00388876 0)
(0.838839 0.0037068 0)
(0.832391 0.00352375 0)
(0.826245 0.00333744 0)
(0.820403 0.00314417 0)
(0.814874 0.00294213 0)
(0.809667 0.00272454 0)
(0.804797 0.00249123 0)
(0.800277 0.00222911 0)
(0.796143 0.00194266 0)
(0.792407 0.00160565 0)
(0.789134 0.00123729 0)
(0.786329 0.000776886 0)
(0.784135 0.000297819 0)
(0.782434 -0.000355644 0)
(0.781707 -0.000973332 0)
(0.781246 -0.00181475 0)
(0.782549 -0.00266926 0)
(0.783558 -0.00294447 0)
(0.787233 -0.00360365 0)
(1.00412 0.0325342 0)
(1.04027 0.0329126 0)
(1.05618 0.0234092 0)
(1.05889 0.0199121 0)
(1.06029 0.0176837 0)
(1.06169 0.0157585 0)
(1.06209 0.0144174 0)
(1.06122 0.0134365 0)
(1.0592 0.0126061 0)
(1.05611 0.0118688 0)
(1.05206 0.0112107 0)
(1.04716 0.0106177 0)
(1.04153 0.0100768 0)
(1.03529 0.00957942 0)
(1.02857 0.00911973 0)
(1.02148 0.00869351 0)
(1.01412 0.00829731 0)
(1.00658 0.00792815 0)
(0.99892 0.00758344 0)
(0.99121 0.00726081 0)
(0.983501 0.00695812 0)
(0.975836 0.00667339 0)
(0.96825 0.00640477 0)
(0.960771 0.00615049 0)
(0.953421 0.00590888 0)
(0.946221 0.00567826 0)
(0.939184 0.00545703 0)
(0.932324 0.00524349 0)
(0.92565 0.00503597 0)
(0.919172 0.00483263 0)
(0.912897 0.00463155 0)
(0.906833 0.00443065 0)
(0.900989 0.00422737 0)
(0.895372 0.00401942 0)
(0.889993 0.00380277 0)
(0.884863 0.00357531 0)
(0.879995 0.00332982 0)
(0.875407 0.00306546 0)
(0.871118 0.00276881 0)
(0.867156 0.00244272 0)
(0.863546 0.00206129 0)
(0.860336 0.00164026 0)
(0.857551 0.00112095 0)
(0.855293 0.00056858 0)
(0.85351 -0.000161608 0)
(0.852537 -0.000886273 0)
(0.851938 -0.0018153 0)
(0.852705 -0.0028054 0)
(0.853651 -0.00322387 0)
(0.856769 -0.00383179 0)
(1.00374 0.0301998 0)
(1.03727 0.0318631 0)
(1.05285 0.0228052 0)
(1.05566 0.0195092 0)
(1.0572 0.0174923 0)
(1.05915 0.0156555 0)
(1.06061 0.0143618 0)
(1.06133 0.0134441 0)
(1.06137 0.012687 0)
(1.06076 0.0120237 0)
(1.05949 0.0114378 0)
(1.05757 0.0109137 0)
(1.05505 0.0104369 0)
(1.05198 0.00999761 0)
(1.0484 0.0095895 0)
(1.04439 0.0092082 0)
(1.04001 0.00885044 0)
(1.03531 0.00851361 0)
(1.03036 0.00819557 0)
(1.02521 0.00789448 0)
(1.01991 0.00760873 0)
(1.0145 0.00733685 0)
(1.00901 0.00707747 0)
(1.00349 0.00682926 0)
(0.997956 0.00659091 0)
(0.992439 0.00636108 0)
(0.98696 0.00613842 0)
(0.98154 0.00592145 0)
(0.976196 0.00570864 0)
(0.970943 0.00549826 0)
(0.965796 0.00528844 0)
(0.960768 0.00507708 0)
(0.955873 0.00486155 0)
(0.951125 0.00463945 0)
(0.946537 0.00440651 0)
(0.942124 0.00416038 0)
(0.937904 0.00389352 0)
(0.933896 0.00360436 0)
(0.93012 0.00327946 0)
(0.926604 0.00291982 0)
(0.923377 0.00250045 0)
(0.920478 0.00203306 0)
(0.917939 0.00146221 0)
(0.915842 0.000843687 0)
(0.914166 4.52724e-05 0)
(0.913151 -0.000778471 0)
(0.912548 -0.0017856 0)
(0.912998 -0.00289604 0)
(0.913894 -0.00347499 0)
(0.91669 -0.00410768 0)
(1.00337 0.0279642 0)
(1.03444 0.0308056 0)
(1.04974 0.0222262 0)
(1.05269 0.0191035 0)
(1.0542 0.0172824 0)
(1.0562 0.0155234 0)
(1.05794 0.0142514 0)
(1.05918 0.0133644 0)
(1.06003 0.0126478 0)
(1.06052 0.0120276 0)
(1.06064 0.0114866 0)
(1.06037 0.011009 0)
(1.05969 0.0105792 0)
(1.05861 0.0101861 0)
(1.05715 0.00982241 0)
(1.05533 0.00948294 0)
(1.05317 0.00916394 0)
(1.05071 0.00886251 0)
(1.04797 0.00857636 0)
(1.04499 0.00830365 0)
(1.0418 0.00804284 0)
(1.03843 0.00779261 0)
(1.03492 0.00755176 0)
(1.03128 0.00731915 0)
(1.02755 0.00709369 0)
(1.02376 0.00687421 0)
(1.01991 0.00665953 0)
(1.01604 0.00644833 0)
(1.01215 0.00623919 0)
(1.00828 0.00603045 0)
(1.00443 0.00582027 0)
(1.00062 0.00560658 0)
(0.996871 0.00538664 0)
(0.993193 0.005158 0)
(0.989603 0.0049162 0)
(0.986118 0.00465861 0)
(0.982757 0.00437754 0)
(0.979539 0.00407064 0)
(0.976486 0.00372465 0)
(0.973625 0.0033387 0)
(0.970981 0.00288896 0)
(0.968594 0.00238304 0)
(0.966492 0.00176952 0)
(0.964743 0.00109347 0)
(0.963346 0.000239129 0)
(0.962472 -0.000673284 0)
(0.962 -0.0017497 0)
(0.962341 -0.00296259 0)
(0.963238 -0.00371538 0)
(0.965899 -0.00443851 0)
(1.00301 0.0258308 0)
(1.03171 0.0297359 0)
(1.04674 0.0216683 0)
(1.0499 0.0186949 0)
(1.05138 0.0170606 0)
(1.05335 0.0153842 0)
(1.05512 0.0141274 0)
(1.05648 0.0132563 0)
(1.05756 0.0125626 0)
(1.05844 0.0119661 0)
(1.05912 0.0114497 0)
(1.05958 0.0109986 0)
(1.05981 0.0105975 0)
(1.05979 0.0102345 0)
(1.05953 0.00990145 0)
(1.05903 0.00959276 0)
(1.05828 0.00930407 0)
(1.0573 0.00903201 0)
(1.05609 0.00877392 0)
(1.05468 0.00852768 0)
(1.05308 0.00829156 0)
(1.0513 0.00806412 0)
(1.04937 0.00784408 0)
(1.0473 0.0076303 0)
(1.0451 0.00742169 0)
(1.0428 0.00721711 0)
(1.04041 0.00701541 0)
(1.03795 0.00681532 0)
(1.03544 0.00661541 0)
(1.03288 0.00641409 0)
(1.0303 0.00620943 0)
(1.02771 0.00599939 0)
(1.02511 0.00578112 0)
(1.02254 0.00555206 0)
(1.02 0.00530761 0)
(1.01751 0.00504485 0)
(1.01509 0.00475598 0)
(1.01276 0.00443792 0)
(1.01052 0.00407765 0)
(1.00842 0.00367256 0)
(1.00648 0.00320002 0)
(1.00472 0.0026638 0)
(1.00317 0.0020167 0)
(1.0019 0.00129273 0)
(1.0009 0.000394786 0)
(1.0003 -0.000593281 0)
(1.00007 -0.00173127 0)
(1.00047 -0.00302804 0)
(1.00144 -0.00396131 0)
(1.00408 -0.00483381 0)
(1.00268 0.0238022 0)
(1.02911 0.0286524 0)
(1.04383 0.0211311 0)
(1.04721 0.0182831 0)
(1.04869 0.0168253 0)
(1.05063 0.0152405 0)
(1.05239 0.0140005 0)
(1.05376 0.0131408 0)
(1.05487 0.0124634 0)
(1.05585 0.0118819 0)
(1.0567 0.011379 0)
(1.05742 0.0109424 0)
(1.05801 0.010557 0)
(1.05847 0.010211 0)
(1.05878 0.00989619 0)
(1.05894 0.00960665 0)
(1.05895 0.00933773 0)
(1.05882 0.00908577 0)
(1.05853 0.00884781 0)
(1.0581 0.00862145 0)
(1.05752 0.00840474 0)
(1.05682 0.00819602 0)
(1.05598 0.00799387 0)
(1.05502 0.00779701 0)
(1.05396 0.00760424 0)
(1.0528 0.00741437 0)
(1.05154 0.00722618 0)
(1.05021 0.00703833 0)
(1.04881 0.00684936 0)
(1.04735 0.0066576 0)
(1.04584 0.00646107 0)
(1.0443 0.00625765 0)
(1.04274 0.00604435 0)
(1.04116 0.00581851 0)
(1.03958 0.00557536 0)
(1.03802 0.00531168 0)
(1.03648 0.00501964 0)
(1.03499 0.00469539 0)
(1.03357 0.00432626 0)
(1.03222 0.00390797 0)
(1.03098 0.00341914 0)
(1.02987 0.00286 0)
(1.02891 0.0021875 0)
(1.02815 0.00142534 0)
(1.02761 0.000493373 0)
(1.02736 -0.000556027 0)
(1.02742 -0.00174831 0)
(1.02799 -0.00311351 0)
(1.0291 -0.00422636 0)
(1.03177 -0.00529759 0)
(1.00238 0.0218802 0)
(1.02665 0.0275543 0)
(1.04101 0.0206144 0)
(1.0446 0.0178698 0)
(1.0461 0.0165754 0)
(1.04801 0.0150909 0)
(1.04977 0.0138721 0)
(1.05113 0.0130228 0)
(1.05224 0.0123602 0)
(1.05321 0.011791 0)
(1.0541 0.0112976 0)
(1.05489 0.0108696 0)
(1.05559 0.0104931 0)
(1.0562 0.0101566 0)
(1.05674 0.00985192 0)
(1.05719 0.00957314 0)
(1.05755 0.00931562 0)
(1.05782 0.00907561 0)
(1.058 0.00885002 0)
(1.05809 0.00863633 0)
(1.05809 0.00843242 0)
(1.05801 0.00823649 0)
(1.05783 0.008047 0)
(1.05758 0.00786253 0)
(1.05724 0.00768179 0)
(1.05683 0.00750345 0)
(1.05636 0.00732623 0)
(1.05581 0.0071487 0)
(1.05521 0.00696929 0)
(1.05456 0.00678626 0)
(1.05386 0.00659753 0)
(1.05312 0.00640085 0)
(1.05235 0.00619313 0)
(1.05156 0.00597154 0)
(1.05076 0.00573117 0)
(1.04995 0.00546849 0)
(1.04916 0.00517566 0)
(1.04839 0.00484809 0)
(1.04765 0.0044735 0)
(1.04697 0.00404612 0)
(1.04635 0.0035457 0)
(1.04583 0.00296931 0)
(1.04541 0.00227803 0)
(1.04514 0.00148566 0)
(1.04503 0.000527648 0)
(1.04514 -0.000569626 0)
(1.04549 -0.00181006 0)
(1.04628 -0.00323419 0)
(1.04757 -0.00451937 0)
(1.05026 -0.00582508 0)
(1.0021 0.0200657 0)
(1.02431 0.0264435 0)
(1.03828 0.0201158 0)
(1.04208 0.017457 0)
(1.04359 0.0163108 0)
(1.04547 0.0149341 0)
(1.04724 0.0137415 0)
(1.04859 0.0129028 0)
(1.04969 0.0122547 0)
(1.05065 0.0116978 0)
(1.05153 0.0112129 0)
(1.05232 0.0107917 0)
(1.05304 0.0104215 0)
(1.0537 0.0100911 0)
(1.0543 0.00979243 0)
(1.05484 0.00951977 0)
(1.05533 0.00926859 0)
(1.05577 0.00903519 0)
(1.05615 0.0088165 0)
(1.05648 0.00860995 0)
(1.05676 0.00841339 0)
(1.05698 0.00822498 0)
(1.05716 0.00804309 0)
(1.05729 0.00786625 0)
(1.05736 0.00769308 0)
(1.05739 0.00752222 0)
(1.05737 0.00735226 0)
(1.05732 0.00718173 0)
(1.05722 0.00700897 0)
(1.05709 0.00683217 0)
(1.05692 0.00664911 0)
(1.05673 0.00645747 0)
(1.05651 0.00625402 0)
(1.05627 0.00603578 0)
(1.05603 0.00579773 0)
(1.05578 0.005536 0)
(1.05553 0.00524282 0)
(1.0553 0.00491288 0)
(1.05509 0.00453429 0)
(1.05492 0.00409996 0)
(1.0548 0.00359073 0)
(1.05474 0.00300081 0)
(1.05476 0.00229522 0)
(1.05489 0.00147887 0)
(1.05514 0.000500253 0)
(1.05556 -0.000634081 0)
(1.05618 -0.00191786 0)
(1.05717 -0.00339641 0)
(1.05863 -0.00484324 0)
(1.06136 -0.00640607 0)
(1.00185 0.0183589 0)
(1.02211 0.025324 0)
(1.03565 0.0196317 0)
(1.03964 0.0170462 0)
(1.04118 0.016032 0)
(1.04303 0.0147691 0)
(1.04479 0.0136084 0)
(1.04615 0.0127804 0)
(1.04724 0.0121471 0)
(1.04819 0.0116031 0)
(1.04905 0.0111269 0)
(1.04983 0.0107122 0)
(1.05054 0.0103476 0)
(1.0512 0.0100221 0)
(1.0518 0.00972784 0)
(1.05237 0.00945931 0)
(1.05289 0.00921208 0)
(1.05338 0.00898253 0)
(1.05383 0.00876766 0)
(1.05425 0.00856495 0)
(1.05464 0.00837227 0)
(1.055 0.00818777 0)
(1.05533 0.00800983 0)
(1.05563 0.00783697 0)
(1.05591 0.00766777 0)
(1.05616 0.00750085 0)
(1.05638 0.00733477 0)
(1.05659 0.00716799 0)
(1.05677 0.00699882 0)
(1.05693 0.00682538 0)
(1.05708 0.00664537 0)
(1.05721 0.00645639 0)
(1.05733 0.0062551 0)
(1.05744 0.00603837 0)
(1.05755 0.00580112 0)
(1.05765 0.00553917 0)
(1.05777 0.00524482 0)
(1.0579 0.00491213 0)
(1.05805 0.00452959 0)
(1.05823 0.00408897 0)
(1.05846 0.00357209 0)
(1.05873 0.00297067 0)
(1.05907 0.00225329 0)
(1.05949 0.00141728 0)
(1.06001 0.000421198 0)
(1.06066 -0.000742672 0)
(1.06147 -0.00206644 0)
(1.06262 -0.00359776 0)
(1.06421 -0.00519733 0)
(1.06695 -0.00702348 0)
(1.00162 0.0167597 0)
(1.02005 0.0242002 0)
(1.03312 0.0191579 0)
(1.03729 0.0166393 0)
(1.03886 0.0157403 0)
(1.04067 0.0145954 0)
(1.04243 0.0134723 0)
(1.0438 0.0126557 0)
(1.04488 0.012037 0)
(1.04581 0.0115066 0)
(1.04666 0.0110397 0)
(1.04743 0.0106317 0)
(1.04813 0.0102726 0)
(1.04877 0.00995181 0)
(1.04937 0.00966163 0)
(1.04993 0.00939658 0)
(1.05045 0.0091524 0)
(1.05094 0.00892557 0)
(1.05141 0.00871315 0)
(1.05185 0.00851269 0)
(1.05227 0.00832209 0)
(1.05268 0.00813953 0)
(1.05306 0.00796342 0)
(1.05343 0.00779229 0)
(1.05379 0.00762473 0)
(1.05414 0.00745936 0)
(1.05447 0.00729473 0)
(1.0548 0.00712929 0)
(1.05512 0.00696131 0)
(1.05543 0.00678887 0)
(1.05573 0.00660964 0)
(1.05603 0.00642114 0)
(1.05633 0.00621997 0)
(1.05663 0.00600284 0)
(1.05694 0.00576469 0)
(1.05725 0.00550099 0)
(1.05758 0.0052042 0)
(1.05792 0.0048678 0)
(1.05829 0.00448064 0)
(1.05869 0.0040335 0)
(1.05912 0.00350917 0)
(1.0596 0.0028971 0)
(1.06014 0.00216907 0)
(1.06074 0.00131608 0)
(1.06143 0.000304169 0)
(1.06223 -0.000884685 0)
(1.06318 -0.00224576 0)
(1.06442 -0.00383042 0)
(1.06608 -0.00557521 0)
(1.06878 -0.00765754 0)
(1.00142 0.0152672 0)
(1.01812 0.023076 0)
(1.03069 0.0186905 0)
(1.03503 0.0162375 0)
(1.03664 0.0154369 0)
(1.03841 0.0144123 0)
(1.04016 0.013333 0)
(1.04153 0.0125286 0)
(1.0426 0.0119243 0)
(1.04353 0.0114081 0)
(1.04436 0.0109511 0)
(1.04512 0.0105501 0)
(1.04581 0.0101967 0)
(1.04644 0.00988079 0)
(1.04703 0.00959467 0)
(1.04757 0.00933301 0)
(1.04809 0.00909167 0)
(1.04857 0.00886721 0)
(1.04903 0.00865678 0)
(1.04947 0.00845794 0)
(1.0499 0.00826866 0)
(1.05031 0.00808715 0)
(1.05071 0.00791185 0)
(1.0511 0.00774131 0)
(1.05148 0.00757414 0)
(1.05185 0.00740898 0)
(1.05223 0.00724437 0)
(1.0526 0.00707879 0)
(1.05297 0.00691047 0)
(1.05334 0.00673749 0)
(1.05371 0.00655747 0)
(1.05409 0.00636788 0)
(1.05447 0.0061653 0)
(1.05486 0.0059463 0)
(1.05527 0.00570583 0)
(1.05568 0.00543909 0)
(1.05611 0.00513868 0)
(1.05657 0.00479757 0)
(1.05705 0.00440499 0)
(1.05756 0.00395084 0)
(1.05811 0.00341876 0)
(1.0587 0.00279637 0)
(1.05934 0.00205793 0)
(1.06004 0.00118987 0)
(1.06082 0.00016236 0)
(1.0617 -0.00104926 0)
(1.06271 -0.00244581 0)
(1.064 -0.00408542 0)
(1.06567 -0.00596638 0)
(1.06828 -0.00829431 0)
(1.00124 0.01388 0)
(1.01633 0.0219554 0)
(1.02837 0.0182257 0)
(1.03285 0.0158422 0)
(1.03451 0.0151234 0)
(1.03624 0.0142193 0)
(1.03798 0.0131901 0)
(1.03935 0.0123991 0)
(1.04042 0.0118091 0)
(1.04134 0.0113075 0)
(1.04216 0.0108611 0)
(1.04291 0.0104674 0)
(1.04358 0.0101199 0)
(1.0442 0.00980902 0)
(1.04478 0.00952709 0)
(1.04531 0.0092689 0)
(1.04581 0.00903041 0)
(1.04629 0.0088083 0)
(1.04674 0.00859974 0)
(1.04717 0.00840235 0)
(1.04759 0.00821414 0)
(1.04799 0.00803336 0)
(1.04839 0.00785846 0)
(1.04877 0.00768802 0)
(1.04916 0.00752068 0)
(1.04954 0.00735509 0)
(1.04992 0.00718982 0)
(1.0503 0.00702332 0)
(1.05069 0.00685385 0)
(1.05108 0.00667945 0)
(1.05147 0.00649775 0)
(1.05187 0.00630614 0)
(1.05229 0.00610121 0)
(1.05271 0.00587939 0)
(1.05315 0.00563568 0)
(1.05361 0.00536502 0)
(1.05408 0.00506015 0)
(1.05458 0.00471362 0)
(1.05511 0.00431496 0)
(1.05567 0.00385341 0)
(1.05626 0.00331328 0)
(1.0569 0.00268069 0)
(1.05759 0.00193196 0)
(1.05833 0.00104965 0)
(1.05914 7.15938e-06 0)
(1.06004 -0.0012261 0)
(1.06107 -0.00265764 0)
(1.06235 -0.00435317 0)
(1.06399 -0.00636198 0)
(1.06645 -0.0089177 0)
(1.00107 0.012596 0)
(1.01467 0.0208426 0)
(1.02616 0.0177602 0)
(1.03077 0.0154542 0)
(1.03247 0.0148017 0)
(1.03416 0.0140159 0)
(1.03588 0.013043 0)
(1.03726 0.0122674 0)
(1.03833 0.0116912 0)
(1.03923 0.0112046 0)
(1.04005 0.0107694 0)
(1.04078 0.0103835 0)
(1.04145 0.0100422 0)
(1.04206 0.00973642 0)
(1.04262 0.00945884 0)
(1.04315 0.00920424 0)
(1.04364 0.0089687 0)
(1.0441 0.00874898 0)
(1.04454 0.00854231 0)
(1.04496 0.00834637 0)
(1.04537 0.00815918 0)
(1.04576 0.00797902 0)
(1.04615 0.0078044 0)
(1.04653 0.00763389 0)
(1.04691 0.00746618 0)
(1.04728 0.00729991 0)
(1.04766 0.00713366 0)
(1.04804 0.00696592 0)
(1.04842 0.00679491 0)
(1.04881 0.00661869 0)
(1.04921 0.00643485 0)
(1.04961 0.00624076 0)
(1.05003 0.00603299 0)
(1.05046 0.00580786 0)
(1.05091 0.0055604 0)
(1.05137 0.00528534 0)
(1.05186 0.00497556 0)
(1.05237 0.00462323 0)
(1.05291 0.00421815 0)
(1.05348 0.003749 0)
(1.05409 0.00320069 0)
(1.05473 0.00255809 0)
(1.05542 0.0017992 0)
(1.05616 0.00090324 0)
(1.05697 -0.000153483 0)
(1.05786 -0.00140763 0)
(1.05887 -0.00287354 0)
(1.06011 -0.00462539 0)
(1.06168 -0.00675166 0)
(1.06395 -0.00951341 0)
(1.00093 0.0114127 0)
(1.01314 0.0197416 0)
(1.02407 0.0172907 0)
(1.02876 0.0150741 0)
(1.03053 0.0144738 0)
(1.03218 0.0138018 0)
(1.03388 0.0128913 0)
(1.03526 0.0121334 0)
(1.03633 0.0115707 0)
(1.03722 0.0110994 0)
(1.03803 0.010676 0)
(1.03875 0.0102983 0)
(1.03941 0.00996331 0)
(1.04001 0.00966293 0)
(1.04056 0.00938986 0)
(1.04107 0.00913899 0)
(1.04155 0.0089065 0)
(1.04201 0.00868924 0)
(1.04244 0.00848452 0)
(1.04285 0.00829005 0)
(1.04325 0.0081039 0)
(1.04363 0.00792437 0)
(1.04401 0.00774999 0)
(1.04438 0.00757937 0)
(1.04475 0.00741121 0)
(1.04512 0.00724417 0)
(1.04549 0.00707685 0)
(1.04586 0.00690772 0)
(1.04623 0.00673503 0)
(1.04662 0.00655681 0)
(1.04701 0.00637066 0)
(1.04741 0.00617389 0)
(1.04782 0.00596306 0)
(1.04824 0.0057344 0)
(1.04869 0.00548299 0)
(1.04915 0.00520334 0)
(1.04963 0.00488845 0)
(1.05013 0.00453021 0)
(1.05067 0.00411861 0)
(1.05123 0.00364191 0)
(1.05182 0.00308549 0)
(1.05246 0.00243324 0)
(1.05313 0.00166435 0)
(1.05385 0.000755789 0)
(1.05463 -0.000315255 0)
(1.05549 -0.00158963 0)
(1.05646 -0.00308865 0)
(1.05764 -0.00489576 0)
(1.05911 -0.00712732 0)
(1.06115 -0.0100696 0)
(1.0008 0.0103268 0)
(1.01174 0.0186565 0)
(1.02208 0.0168147 0)
(1.02685 0.0147022 0)
(1.02868 0.0141417 0)
(1.03029 0.013577 0)
(1.03196 0.0127342 0)
(1.03335 0.011997 0)
(1.03441 0.0114475 0)
(1.0353 0.0109916 0)
(1.0361 0.0105808 0)
(1.03681 0.0102117 0)
(1.03746 0.0098833 0)
(1.03805 0.00958847 0)
(1.03859 0.00932007 0)
(1.0391 0.00907306 0)
(1.03957 0.00884372 0)
(1.04001 0.00862902 0)
(1.04043 0.00842631 0)
(1.04084 0.00823337 0)
(1.04122 0.00804829 0)
(1.0416 0.00786941 0)
(1.04197 0.00769528 0)
(1.04233 0.00752455 0)
(1.04269 0.00735592 0)
(1.04305 0.00718808 0)
(1.04341 0.00701964 0)
(1.04377 0.00684909 0)
(1.04414 0.00667467 0)
(1.04451 0.00649439 0)
(1.04489 0.00630586 0)
(1.04529 0.00610633 0)
(1.04569 0.00589239 0)
(1.0461 0.00566015 0)
(1.04654 0.00540472 0)
(1.04699 0.00512047 0)
(1.04746 0.00480046 0)
(1.04795 0.00443637 0)
(1.04847 0.00401833 0)
(1.04901 0.0035343 0)
(1.04959 0.00297 0)
(1.0502 0.00230857 0)
(1.05085 0.00153017 0)
(1.05155 0.000609781 0)
(1.05229 -0.000475065 0)
(1.05311 -0.00176849 0)
(1.05402 -0.00329882 0)
(1.05511 -0.00515872 0)
(1.05646 -0.00748212 0)
(1.05826 -0.0105756 0)
(1.00069 0.00933451 0)
(1.01046 0.0175915 0)
(1.02021 0.0163297 0)
(1.02502 0.0143385 0)
(1.02692 0.0138073 0)
(1.0285 0.0133417 0)
(1.03014 0.0125711 0)
(1.03152 0.0118581 0)
(1.03259 0.0113218 0)
(1.03347 0.0108813 0)
(1.03426 0.0104835 0)
(1.03497 0.0101236 0)
(1.03561 0.00980204 0)
(1.03619 0.00951293 0)
(1.03672 0.00924939 0)
(1.03721 0.00900638 0)
(1.03768 0.00878032 0)
(1.03811 0.00856826 0)
(1.03852 0.00836764 0)
(1.03892 0.00817628 0)
(1.0393 0.00799231 0)
(1.03966 0.0078141 0)
(1.04002 0.00764024 0)
(1.04038 0.0074694 0)
(1.04073 0.0073003 0)
(1.04108 0.00713166 0)
(1.04143 0.0069621 0)
(1.04178 0.0067901 0)
(1.04214 0.00661393 0)
(1.04251 0.00643158 0)
(1.04288 0.00624065 0)
(1.04326 0.00603837 0)
(1.04365 0.00582131 0)
(1.04406 0.0055855 0)
(1.04448 0.00532609 0)
(1.04492 0.00503731 0)
(1.04538 0.00471226 0)
(1.04585 0.00434249 0)
(1.04636 0.00391822 0)
(1.04688 0.00342719 0)
(1.04744 0.00285539 0)
(1.04802 0.00218539 0)
(1.04864 0.00139807 0)
(1.0493 0.000466818 0)
(1.05 -0.000630888 0)
(1.05077 -0.00194207 0)
(1.05162 -0.00350113 0)
(1.05262 -0.00540947 0)
(1.05383 -0.00781007 0)
(1.05537 -0.0110227 0)
(1.0006 0.00843145 0)
(1.0093 0.0165505 0)
(1.01845 0.0158341 0)
(1.02328 0.0139825 0)
(1.02525 0.0134726 0)
(1.02679 0.0130963 0)
(1.0284 0.0124015 0)
(1.02978 0.0117165 0)
(1.03085 0.0111936 0)
(1.03173 0.0107681 0)
(1.03251 0.010384 0)
(1.03321 0.0100338 0)
(1.03384 0.00971943 0)
(1.03441 0.00943625 0)
(1.03494 0.00917772 0)
(1.03542 0.00893888 0)
(1.03588 0.00871622 0)
(1.0363 0.00850689 0)
(1.03671 0.00830844 0)
(1.03709 0.00811871 0)
(1.03746 0.00793589 0)
(1.03782 0.00775839 0)
(1.03817 0.00758482 0)
(1.03852 0.00741388 0)
(1.03886 0.00724432 0)
(1.0392 0.00707488 0)
(1.03955 0.00690418 0)
(1.03989 0.00673075 0)
(1.04024 0.00655282 0)
(1.0406 0.00636841 0)
(1.04096 0.00617509 0)
(1.04134 0.00597007 0)
(1.04172 0.00574993 0)
(1.04211 0.00551061 0)
(1.04252 0.00524729 0)
(1.04295 0.00495409 0)
(1.04339 0.00462417 0)
(1.04385 0.00424894 0)
(1.04434 0.00381871 0)
(1.04484 0.00332109 0)
(1.04538 0.00274229 0)
(1.04593 0.00206443 0)
(1.04652 0.0012689 0)
(1.04714 0.00032797 0)
(1.0478 -0.000781392 0)
(1.04851 -0.00210863 0)
(1.04929 -0.00369305 0)
(1.05018 -0.00564367 0)
(1.05124 -0.00810579 0)
(1.05252 -0.0114044 0)
(1.00051 0.00761288 0)
(1.00825 0.0155375 0)
(1.01681 0.0153265 0)
(1.02161 0.0136338 0)
(1.02366 0.0131393 0)
(1.02517 0.0128416 0)
(1.02675 0.0122249 0)
(1.02812 0.011572 0)