/*--------------------------------*- C++ -*----------------------------------*\
  =========                 |
  \\      /  F ield         | OpenFOAM: The Open Source CFD Toolbox
   \\    /   O peration     | Website:  https://openfoam.org
    \\  /    A nd           | Version:  7
     \\/     M anipulation  |
\*---------------------------------------------------------------------------*/
FoamFile
{
    version     2.0;
    format      ascii;
    class       volVectorField;
    location    "0.45";
    object      vorticity;
}
// * * * * * * * * * * * * * * * * * * * * * * * * * * * * * * * * * * * * * //

dimensions      [0 0 -1 0 0 0 0];

internalField   nonuniform List<vector> 
70000
(
(0 -0 -45716.1)
(0 -0 -28618.3)
(0 -0 -20915)
(0 -0 -16982.7)
(0 -0 -14962.3)
(0 -0 -13656.1)
(0 -0 -12647.4)
(0 -0 -11835.8)
(0 -0 -11173)
(0 -0 -10620.1)
(0 -0 -10149.5)
(0 -0 -9742.37)
(0 -0 -9385.87)
(0 -0 -9070.59)
(0 -0 -8789.44)
(0 -0 -8536.91)
(0 -0 -8308.68)
(0 -0 -8101.32)
(0 -0 -7912.05)
(0 -0 -7738.62)
(0 -0 -7579.15)
(0 -0 -7432.11)
(0 -0 -7296.21)
(0 -0 -7170.38)
(0 -0 -7053.69)
(0 -0 -6945.41)
(0 -0 -6844.89)
(0 -0 -6751.62)
(0 -0 -6665.17)
(0 -0 -6585.2)
(0 -0 -6511.48)
(0 -0 -6443.84)
(0 -0 -6382.23)
(0 -0 -6326.62)
(0 -0 -6277.18)
(0 -0 -6234.08)
(0 -0 -6197.64)
(0 -0 -6168.51)
(0 -0 -6146.8)
(0 -0 -6134.43)
(0 -0 -6130.23)
(0 -0 -6139.37)
(0 -0 -6156.25)
(0 -0 -6195.26)
(0 -0 -6234.11)
(0 -0 -6321.9)
(0 -0 -6363.61)
(0 -0 -6549.57)
(0 -0 -6521.8)
(0 -0 -6585.21)
(0 -0 -13549.6)
(0 -0 -19947.4)
(0 -0 -18536.8)
(0 -0 -16250.9)
(0 -0 -14505.5)
(0 -0 -13282.1)
(0 -0 -12354.5)
(0 -0 -11605)
(0 -0 -10983.4)
(0 -0 -10458.9)
(0 -0 -10009.4)
(0 -0 -9618.59)
(0 -0 -9274.95)
(0 -0 -8969.93)
(0 -0 -8697.02)
(0 -0 -8451.16)
(0 -0 -8228.35)
(0 -0 -8025.39)
(0 -0 -7839.67)
(0 -0 -7669.04)
(0 -0 -7511.75)
(0 -0 -7366.31)
(0 -0 -7231.48)
(0 -0 -7106.21)
(0 -0 -6989.62)
(0 -0 -6880.95)
(0 -0 -6779.56)
(0 -0 -6684.9)
(0 -0 -6596.53)
(0 -0 -6514.06)
(0 -0 -6437.2)
(0 -0 -6365.7)
(0 -0 -6299.43)
(0 -0 -6238.24)
(0 -0 -6182.15)
(0 -0 -6131.2)
(0 -0 -6085.5)
(0 -0 -6045.45)
(0 -0 -6010.99)
(0 -0 -5983.53)
(0 -0 -5961.99)
(0 -0 -5950.35)
(0 -0 -5944.31)
(0 -0 -5954.69)
(0 -0 -5965.7)
(0 -0 -6013.08)
(0 -0 -6031.95)
(0 -0 -6152.29)
(0 -0 -6157.04)
(0 -0 -6400.29)
(0 -0 -3818.73)
(0 -0 -10828.6)
(0 -0 -13363.2)
(0 -0 -13519.6)
(0 -0 -12866.7)
(0 -0 -12140.9)
(0 -0 -11499.7)
(0 -0 -10939.8)
(0 -0 -10448.4)
(0 -0 -10016.4)
(0 -0 -9635.07)
(0 -0 -9296.28)
(0 -0 -8993.29)
(0 -0 -8720.66)
(0 -0 -8473.97)
(0 -0 -8249.62)
(0 -0 -8044.65)
(0 -0 -7856.61)
(0 -0 -7683.46)
(0 -0 -7523.48)
(0 -0 -7375.23)
(0 -0 -7237.47)
(0 -0 -7109.16)
(0 -0 -6989.39)
(0 -0 -6877.39)
(0 -0 -6772.49)
(0 -0 -6674.11)
(0 -0 -6581.76)
(0 -0 -6495)
(0 -0 -6413.46)
(0 -0 -6336.84)
(0 -0 -6264.87)
(0 -0 -6197.36)
(0 -0 -6134.11)
(0 -0 -6075.05)
(0 -0 -6020.1)
(0 -0 -5969.22)
(0 -0 -5922.61)
(0 -0 -5880.09)
(0 -0 -5842.47)
(0 -0 -5809.02)
(0 -0 -5781.97)
(0 -0 -5758.9)
(0 -0 -5745.85)
(0 -0 -5734.12)
(0 -0 -5743.41)
(0 -0 -5741.14)
(0 -0 -5785.78)
(0 -0 -5803.93)
(0 -0 -5914.26)
(0 -0 -533.088)
(0 -0 -4662.47)
(0 -0 -7717.99)
(0 -0 -9327.95)
(0 -0 -9891.88)
(0 -0 -9957.53)
(0 -0 -9826.19)
(0 -0 -9614.62)
(0 -0 -9371.6)
(0 -0 -9121.85)
(0 -0 -8877.8)
(0 -0 -8645.06)
(0 -0 -8425.76)
(0 -0 -8220.36)
(0 -0 -8028.51)
(0 -0 -7849.48)
(0 -0 -7682.4)
(0 -0 -7526.36)
(0 -0 -7380.46)
(0 -0 -7243.86)
(0 -0 -7115.79)
(0 -0 -6995.55)
(0 -0 -6882.5)
(0 -0 -6776.07)
(0 -0 -6675.75)
(0 -0 -6581.07)
(0 -0 -6491.64)
(0 -0 -6407.08)
(0 -0 -6327.07)
(0 -0 -6251.32)
(0 -0 -6179.59)
(0 -0 -6111.64)
(0 -0 -6047.3)
(0 -0 -5986.4)
(0 -0 -5928.8)
(0 -0 -5874.42)
(0 -0 -5823.14)
(0 -0 -5775.01)
(0 -0 -5729.88)
(0 -0 -5688.01)
(0 -0 -5649.19)
(0 -0 -5613.94)
(0 -0 -5581.99)
(0 -0 -5554.48)
(0 -0 -5530.28)
(0 -0 -5512.23)
(0 -0 -5500.61)
(0 -0 -5484.51)
(0 -0 -5517.4)
(0 -0 -5472.11)
(0 -0 322.394)
(0 -0 -1444.47)
(0 -0 -3532.21)
(0 -0 -5258.46)
(0 -0 -6398.33)
(0 -0 -7073.11)
(0 -0 -7450.71)
(0 -0 -7641.52)
(0 -0 -7713.74)
(0 -0 -7711.58)
(0 -0 -7663.63)
(0 -0 -7587.98)
(0 -0 -7496.09)
(0 -0 -7395.27)
(0 -0 -7290.23)
(0 -0 -7184)
(0 -0 -7078.56)
(0 -0 -6975.13)
(0 -0 -6874.5)
(0 -0 -6777.13)
(0 -0 -6683.25)
(0 -0 -6592.98)
(0 -0 -6506.33)
(0 -0 -6423.24)
(0 -0 -6343.64)
(0 -0 -6267.41)
(0 -0 -6194.43)
(0 -0 -6124.57)
(0 -0 -6057.7)
(0 -0 -5993.7)
(0 -0 -5932.44)
(0 -0 -5873.8)
(0 -0 -5817.69)
(0 -0 -5764.01)
(0 -0 -5712.65)
(0 -0 -5663.55)
(0 -0 -5616.63)
(0 -0 -5571.83)
(0 -0 -5529.15)
(0 -0 -5488.39)
(0 -0 -5449.92)
(0 -0 -5412.92)
(0 -0 -5378.96)
(0 -0 -5345.28)
(0 -0 -5317.17)
(0 -0 -5283.87)
(0 -0 -5270.36)
(0 -0 -5220.3)
(0 -0 -5255.07)
(0 -0 -5147.73)
(0 -0 364.667)
(0 -0 -158.566)
(0 -0 -1181.33)
(0 -0 -2361.48)
(0 -0 -3416.61)
(0 -0 -4254.97)
(0 -0 -4889.93)
(0 -0 -5355.4)
(0 -0 -5686.39)
(0 -0 -5914.9)
(0 -0 -6067.21)
(0 -0 -6163.43)
(0 -0 -6218.52)
(0 -0 -6243.48)
(0 -0 -6246.39)
(0 -0 -6233.22)
(0 -0 -6208.35)
(0 -0 -6175.07)
(0 -0 -6135.8)
(0 -0 -6092.35)
(0 -0 -6046.1)
(0 -0 -5998.07)
(0 -0 -5949.04)
(0 -0 -5899.58)
(0 -0 -5850.13)
(0 -0 -5801.03)
(0 -0 -5752.51)
(0 -0 -5704.76)
(0 -0 -5657.9)
(0 -0 -5612.05)
(0 -0 -5567.26)
(0 -0 -5523.57)
(0 -0 -5481.02)
(0 -0 -5439.61)
(0 -0 -5399.34)
(0 -0 -5360.21)
(0 -0 -5322.21)
(0 -0 -5285.25)
(0 -0 -5249.49)
(0 -0 -5214.47)
(0 -0 -5180.98)
(0 -0 -5147.41)
(0 -0 -5116.44)
(0 -0 -5083.12)
(0 -0 -5056.28)
(0 -0 -5018.41)
(0 -0 -5004.38)
(0 -0 -4945.01)
(0 -0 -4968.32)
(0 -0 -4859.29)
(0 -0 253.995)
(0 -0 185.262)
(0 -0 -173.241)
(0 -0 -764.386)
(0 -0 -1447.06)
(0 -0 -2114.46)
(0 -0 -2719.32)
(0 -0 -3242.16)
(0 -0 -3678.84)
(0 -0 -4035.08)
(0 -0 -4321.14)
(0 -0 -4548.11)
(0 -0 -4726.34)
(0 -0 -4864.81)
(0 -0 -4971.07)
(0 -0 -5051.33)
(0 -0 -5110.64)
(0 -0 -5153.07)
(0 -0 -5181.91)
(0 -0 -5199.79)
(0 -0 -5208.83)
(0 -0 -5210.76)
(0 -0 -5206.94)
(0 -0 -5198.49)
(0 -0 -5186.33)
(0 -0 -5171.18)
(0 -0 -5153.65)
(0 -0 -5134.22)
(0 -0 -5113.3)
(0 -0 -5091.22)
(0 -0 -5068.24)
(0 -0 -5044.59)
(0 -0 -5020.44)
(0 -0 -4995.94)
(0 -0 -4971.19)
(0 -0 -4946.3)
(0 -0 -4921.33)
(0 -0 -4896.24)
(0 -0 -4871.28)
(0 -0 -4845.94)
(0 -0 -4821.16)
(0 -0 -4795.15)
(0 -0 -4770.77)
(0 -0 -4742.8)
(0 -0 -4720.15)
(0 -0 -4685.61)
(0 -0 -4671.24)
(0 -0 -4616.46)
(0 -0 -4626.62)
(0 -0 -4533.35)
(0 -0 178.724)
(0 -0 204.467)
(0 -0 130.641)
(0 -0 -85.1148)
(0 -0 -417.568)
(0 -0 -814.28)
(0 -0 -1235.43)
(0 -0 -1652.16)
(0 -0 -2044.59)
(0 -0 -2401.71)
(0 -0 -2719.24)
(0 -0 -2997.07)
(0 -0 -3237.37)
(0 -0 -3443.45)
(0 -0 -3619.08)
(0 -0 -3768)
(0 -0 -3893.75)
(0 -0 -3999.51)
(0 -0 -4088.12)
(0 -0 -4162.05)
(0 -0 -4223.4)
(0 -0 -4274.02)
(0 -0 -4315.43)
(0 -0 -4348.98)
(0 -0 -4375.78)
(0 -0 -4396.78)
(0 -0 -4412.79)
(0 -0 -4424.5)
(0 -0 -4432.51)
(0 -0 -4437.3)
(0 -0 -4439.29)
(0 -0 -4438.86)
(0 -0 -4436.3)
(0 -0 -4431.87)
(0 -0 -4425.78)
(0 -0 -4418.21)
(0 -0 -4409.32)
(0 -0 -4399.12)
(0 -0 -4387.91)
(0 -0 -4375.26)
(0 -0 -4362)
(0 -0 -4346.68)
(0 -0 -4331.52)
(0 -0 -4312.46)
(0 -0 -4296.2)
(0 -0 -4269.59)
(0 -0 -4256.76)
(0 -0 -4211.63)
(0 -0 -4212.97)
(0 -0 -4138.99)
(0 -0 147.996)
(0 -0 164.579)
(0 -0 169.952)
(0 -0 120.974)
(0 -0 1.14141)
(0 -0 -180.445)
(0 -0 -408.421)
(0 -0 -666.454)
(0 -0 -938.714)
(0 -0 -1212.27)
(0 -0 -1477.86)
(0 -0 -1729.46)
(0 -0 -1963.54)
(0 -0 -2178.41)
(0 -0 -2373.68)
(0 -0 -2549.79)
(0 -0 -2707.75)
(0 -0 -2848.81)
(0 -0 -2974.37)
(0 -0 -3085.86)
(0 -0 -3184.64)
(0 -0 -3272.03)
(0 -0 -3349.22)
(0 -0 -3417.3)
(0 -0 -3477.24)
(0 -0 -3529.93)
(0 -0 -3576.15)
(0 -0 -3616.58)
(0 -0 -3651.84)
(0 -0 -3682.45)
(0 -0 -3708.89)
(0 -0 -3731.57)
(0 -0 -3750.83)
(0 -0 -3767.01)
(0 -0 -3780.34)
(0 -0 -3791.06)
(0 -0 -3799.37)
(0 -0 -3805.34)
(0 -0 -3809.24)
(0 -0 -3810.8)
(0 -0 -3810.6)
(0 -0 -3807.7)
(0 -0 -3803.42)
(0 -0 -3795.25)
(0 -0 -3787.24)
(0 -0 -3770.6)
(0 -0 -3761.98)
(0 -0 -3727.97)
(0 -0 -3724.97)
(0 -0 -3670.39)
(0 -0 136.801)
(0 -0 137.046)
(0 -0 148.704)
(0 -0 149.648)
(0 -0 122.195)
(0 -0 60.1991)
(0 -0 -36.1532)
(0 -0 -163.211)
(0 -0 -314.625)
(0 -0 -483.079)
(0 -0 -661.642)
(0 -0 -844.382)
(0 -0 -1026.54)
(0 -0 -1204.51)
(0 -0 -1375.73)
(0 -0 -1538.5)
(0 -0 -1691.8)
(0 -0 -1835.13)
(0 -0 -1968.39)
(0 -0 -2091.73)
(0 -0 -2205.48)
(0 -0 -2310.12)
(0 -0 -2406.16)
(0 -0 -2494.15)
(0 -0 -2574.65)
(0 -0 -2648.2)
(0 -0 -2715.34)
(0 -0 -2776.54)
(0 -0 -2832.26)
(0 -0 -2882.93)
(0 -0 -2928.93)
(0 -0 -2970.61)
(0 -0 -3008.26)
(0 -0 -3042.19)
(0 -0 -3072.61)
(0 -0 -3099.74)
(0 -0 -3123.76)
(0 -0 -3144.78)
(0 -0 -3162.97)
(0 -0 -3178.22)
(0 -0 -3190.81)
(0 -0 -3200.29)
(0 -0 -3207.17)
(0 -0 -3210.16)
(0 -0 -3211.34)
(0 -0 -3205.02)
(0 -0 -3202.52)
(0 -0 -3179.99)
(0 -0 -3175.97)
(0 -0 -3139.02)
(0 -0 129.919)
(0 -0 123.974)
(0 -0 129.155)
(0 -0 136.352)
(0 -0 136.445)
(0 -0 123.205)
(0 -0 92.9901)
(0 -0 43.9507)
(0 -0 -23.7495)
(0 -0 -108.277)
(0 -0 -206.851)
(0 -0 -316.324)
(0 -0 -433.535)
(0 -0 -555.563)
(0 -0 -679.857)
(0 -0 -804.294)
(0 -0 -927.17)
(0 -0 -1047.17)
(0 -0 -1163.33)
(0 -0 -1274.96)
(0 -0 -1381.61)
(0 -0 -1483.01)
(0 -0 -1579.05)
(0 -0 -1669.73)
(0 -0 -1755.1)
(0 -0 -1835.3)
(0 -0 -1910.51)
(0 -0 -1980.9)
(0 -0 -2046.67)
(0 -0 -2108.05)
(0 -0 -2165.23)
(0 -0 -2218.41)
(0 -0 -2267.77)
(0 -0 -2313.49)
(0 -0 -2355.71)
(0 -0 -2394.57)
(0 -0 -2430.18)
(0 -0 -2462.62)
(0 -0 -2491.96)
(0 -0 -2518.16)
(0 -0 -2541.27)
(0 -0 -2561.12)
(0 -0 -2577.7)
(0 -0 -2590.45)
(0 -0 -2600.26)
(0 -0 -2603.3)
(0 -0 -2607.35)
(0 -0 -2595.81)
(0 -0 -2593.05)
(0 -0 -2570.68)
(0 -0 122.928)
(0 -0 116.62)
(0 -0 117.988)
(0 -0 122.462)
(0 -0 126.403)
(0 -0 126.877)
(0 -0 121.416)
(0 -0 107.722)
(0 -0 84.1536)
(0 -0 50.0033)
(0 -0 5.36774)
(0 -0 -49.0366)
(0 -0 -112.074)
(0 -0 -182.366)
(0 -0 -258.447)
(0 -0 -338.87)
(0 -0 -422.284)
(0 -0 -507.475)
(0 -0 -593.387)
(0 -0 -679.129)
(0 -0 -763.962)
(0 -0 -847.295)
(0 -0 -928.659)
(0 -0 -1007.7)
(0 -0 -1084.15)
(0 -0 -1157.83)
(0 -0 -1228.6)
(0 -0 -1296.4)
(0 -0 -1361.18)
(0 -0 -1422.94)
(0 -0 -1481.67)
(0 -0 -1537.43)
(0 -0 -1590.21)
(0 -0 -1640.09)
(0 -0 -1687.07)
(0 -0 -1731.2)
(0 -0 -1772.48)
(0 -0 -1810.92)
(0 -0 -1846.51)
(0 -0 -1879.2)
(0 -0 -1908.87)
(0 -0 -1935.48)
(0 -0 -1958.75)
(0 -0 -1978.4)
(0 -0 -1994.79)
(0 -0 -2005.1)
(0 -0 -2014.63)
(0 -0 -2012.45)
(0 -0 -2012.42)
(0 -0 -2000.81)
(0 -0 115.606)
(0 -0 110.386)
(0 -0 110.706)
(0 -0 113.144)
(0 -0 115.956)
(0 -0 118.214)
(0 -0 119.093)
(0 -0 117.391)
(0 -0 111.828)
(0 -0 101.35)
(0 -0 85.2358)
(0 -0 63.1145)
(0 -0 34.9353)
(0 -0 0.923575)
(0 -0 -38.4853)
(0 -0 -82.7134)
(0 -0 -131.099)
(0 -0 -182.948)
(0 -0 -237.567)
(0 -0 -294.295)
(0 -0 -352.519)
(0 -0 -411.683)
(0 -0 -471.294)
(0 -0 -530.924)
(0 -0 -590.202)
(0 -0 -648.816)
(0 -0 -706.502)
(0 -0 -763.041)
(0 -0 -818.249)
(0 -0 -871.98)
(0 -0 -924.106)
(0 -0 -974.53)
(0 -0 -1023.16)
(0 -0 -1069.92)
(0 -0 -1114.75)
(0 -0 -1157.58)
(0 -0 -1198.34)
(0 -0 -1236.96)
(0 -0 -1273.34)
(0 -0 -1307.4)
(0 -0 -1338.96)
(0 -0 -1367.94)
(0 -0 -1394)
(0 -0 -1416.89)
(0 -0 -1436.8)
(0 -0 -1451.53)
(0 -0 -1464.47)
(0 -0 -1468.93)
(0 -0 -1472.29)
(0 -0 -1467.38)
(0 -0 108.36)
(0 -0 104.168)
(0 -0 104.379)
(0 -0 106.088)
(0 -0 107.956)
(0 -0 109.666)
(0 -0 111.202)
(0 -0 112.219)
(0 -0 112.136)
(0 -0 110.323)
(0 -0 106.192)
(0 -0 99.242)
(0 -0 89.0987)
(0 -0 75.5257)
(0 -0 58.4314)
(0 -0 37.847)
(0 -0 13.9094)
(0 -0 -13.1621)
(0 -0 -43.0903)
(0 -0 -75.56)
(0 -0 -110.238)
(0 -0 -146.783)
(0 -0 -184.864)
(0 -0 -224.162)
(0 -0 -264.377)
(0 -0 -305.231)
(0 -0 -346.472)
(0 -0 -387.865)
(0 -0 -429.203)
(0 -0 -470.299)
(0 -0 -510.981)
(0 -0 -551.097)
(0 -0 -590.503)
(0 -0 -629.071)
(0 -0 -666.676)
(0 -0 -703.201)
(0 -0 -738.526)
(0 -0 -772.53)
(0 -0 -805.082)
(0 -0 -836.05)
(0 -0 -865.23)
(0 -0 -892.516)
(0 -0 -917.579)
(0 -0 -940.135)
(0 -0 -960.271)
(0 -0 -976.45)
(0 -0 -990.369)
(0 -0 -998.445)
(0 -0 -1004.5)
(0 -0 -1003.32)
(0 -0 101.38)
(0 -0 97.9748)
(0 -0 98.2005)
(0 -0 99.6753)
(0 -0 101.189)
(0 -0 102.461)
(0 -0 103.685)
(0 -0 104.871)
(0 -0 105.847)
(0 -0 106.365)
(0 -0 106.146)
(0 -0 104.889)
(0 -0 102.307)
(0 -0 98.1415)
(0 -0 92.1843)
(0 -0 84.2863)
(0 -0 74.3582)
(0 -0 62.3682)
(0 -0 48.3376)
(0 -0 32.3313)
(0 -0 14.4501)
(0 -0 -5.17755)
(0 -0 -26.4039)
(0 -0 -49.0696)
(0 -0 -73.0059)
(0 -0 -98.0472)
(0 -0 -124.019)
(0 -0 -150.765)
(0 -0 -178.123)
(0 -0 -205.941)
(0 -0 -234.071)
(0 -0 -262.376)
(0 -0 -290.719)
(0 -0 -318.97)
(0 -0 -347.004)
(0 -0 -374.692)
(0 -0 -401.913)
(0 -0 -428.529)
(0 -0 -454.411)
(0 -0 -479.412)
(0 -0 -503.349)
(0 -0 -526.077)
(0 -0 -547.356)
(0 -0 -566.864)
(0 -0 -584.608)
(0 -0 -599.679)
(0 -0 -612.526)
(0 -0 -621.594)
(0 -0 -628.585)
(0 -0 -629.955)
(0 -0 94.7027)
(0 -0 91.9237)
(0 -0 92.1375)
(0 -0 93.4636)
(0 -0 94.8453)
(0 -0 95.9448)
(0 -0 96.9448)
(0 -0 97.943)
(0 -0 98.9116)
(0 -0 99.7833)
(0 -0 100.468)
(0 -0 100.85)
(0 -0 100.79)
(0 -0 100.14)
(0 -0 98.7534)
(0 -0 96.4962)
(0 -0 93.2521)
(0 -0 88.9278)
(0 -0 83.4557)
(0 -0 76.7936)
(0 -0 68.9256)
(0 -0 59.8554)
(0 -0 49.6115)
(0 -0 38.2353)
(0 -0 25.7838)
(0 -0 12.3238)
(0 -0 -2.06777)
(0 -0 -17.3096)
(0 -0 -33.3147)
(0 -0 -49.9936)
(0 -0 -67.2543)
(0 -0 -85.0033)
(0 -0 -103.147)
(0 -0 -121.587)
(0 -0 -140.231)
(0 -0 -158.972)
(0 -0 -177.717)
(0 -0 -196.345)
(0 -0 -214.754)
(0 -0 -232.809)
(0 -0 -250.378)
(0 -0 -267.298)
(0 -0 -283.431)
(0 -0 -298.468)
(0 -0 -312.37)
(0 -0 -324.631)
(0 -0 -335.207)
(0 -0 -343.294)
(0 -0 -349.757)
(0 -0 -352.704)
(0 -0 88.3253)
(0 -0 86.0663)
(0 -0 86.2616)
(0 -0 87.4381)
(0 -0 88.7217)
(0 -0 89.7423)
(0 -0 90.6363)
(0 -0 91.5069)
(0 -0 92.3576)
(0 -0 93.1739)
(0 -0 93.9397)
(0 -0 94.6261)
(0 -0 95.1875)
(0 -0 95.5652)
(0 -0 95.6914)
(0 -0 95.4936)
(0 -0 94.8983)
(0 -0 93.8353)
(0 -0 92.2407)
(0 -0 90.059)
(0 -0 87.245)
(0 -0 83.7653)
(0 -0 79.5958)
(0 -0 74.7257)
(0 -0 69.1521)
(0 -0 62.8858)
(0 -0 55.9363)
(0 -0 48.3354)
(0 -0 40.1103)
(0 -0 31.2968)
(0 -0 21.9357)
(0 -0 12.0739)
(0 -0 1.75955)
(0 -0 -8.94983)
(0 -0 -20.001)
(0 -0 -31.3244)
(0 -0 -42.8619)
(0 -0 -54.5286)
(0 -0 -66.2581)
(0 -0 -77.9469)
(0 -0 -89.5146)
(0 -0 -100.819)
(0 -0 -111.79)
(0 -0 -122.183)
(0 -0 -131.942)
(0 -0 -140.76)
(0 -0 -148.615)
(0 -0 -154.726)
(0 -0 -159.944)
(0 -0 -163.087)
(0 -0 82.2467)
(0 -0 80.4207)
(0 -0 80.606)
(0 -0 81.6378)
(0 -0 82.8182)
(0 -0 83.7736)
(0 -0 84.6)
(0 -0 85.3935)
(0 -0 86.1618)
(0 -0 86.898)
(0 -0 87.6034)
(0 -0 88.2772)
(0 -0 88.9112)
(0 -0 89.4892)
(0 -0 89.989)
(0 -0 90.3825)
(0 -0 90.6377)
(0 -0 90.7196)
(0 -0 90.592)
(0 -0 90.2193)
(0 -0 89.5673)
(0 -0 88.6051)
(0 -0 87.3051)
(0 -0 85.6445)
(0 -0 83.6049)
(0 -0 81.1724)
(0 -0 78.3407)
(0 -0 75.1029)
(0 -0 71.4615)
(0 -0 67.4224)
(0 -0 62.9949)
(0 -0 58.194)
(0 -0 53.0363)
(0 -0 47.5462)
(0 -0 41.7471)
(0 -0 35.6749)
(0 -0 29.3568)
(0 -0 22.8439)
(0 -0 16.1683)
(0 -0 9.40081)
(0 -0 2.57735)
(0 -0 -4.19494)
(0 -0 -10.8888)
(0 -0 -17.339)
(0 -0 -23.5128)
(0 -0 -29.1765)
(0 -0 -34.4383)
(0 -0 -38.5616)
(0 -0 -42.222)
(0 -0 -44.8329)
(0 -0 76.4676)
(0 -0 74.9983)
(0 -0 75.1827)
(0 -0 76.0827)
(0 -0 77.1574)
(0 -0 78.0465)
(0 -0 78.8116)
(0 -0 79.5429)
(0 -0 80.2498)
(0 -0 80.9245)
(0 -0 81.5692)
(0 -0 82.1885)
(0 -0 82.784)
(0 -0 83.3539)
(0 -0 83.8936)
(0 -0 84.3958)
(0 -0 84.8501)
(0 -0 85.2442)
(0 -0 85.5632)
(0 -0 85.791)
(0 -0 85.9105)
(0 -0 85.9042)
(0 -0 85.755)
(0 -0 85.4463)
(0 -0 84.963)
(0 -0 84.2908)
(0 -0 83.4184)
(0 -0 82.3353)
(0 -0 81.0337)
(0 -0 79.5081)
(0 -0 77.7552)
(0 -0 75.7748)
(0 -0 73.5681)
(0 -0 71.1415)
(0 -0 68.4994)
(0 -0 65.6569)
(0 -0 62.6216)
(0 -0 59.42)
(0 -0 56.0607)
(0 -0 52.5877)
(0 -0 49.0069)
(0 -0 45.3917)
(0 -0 41.7394)
(0 -0 38.1625)
(0 -0 34.6397)
(0 -0 31.3875)
(0 -0 28.2098)
(0 -0 25.6794)
(0 -0 23.4199)
(0 -0 21.5735)
(0 -0 70.9877)
(0 -0 69.8095)
(0 -0 69.9988)
(0 -0 70.7812)
(0 -0 71.7522)
(0 -0 72.5748)
(0 -0 73.2804)
(0 -0 73.9527)
(0 -0 74.6041)
(0 -0 75.2261)
(0 -0 75.8192)
(0 -0 76.388)
(0 -0 76.9355)
(0 -0 77.4629)
(0 -0 77.9706)
(0 -0 78.4578)
(0 -0 78.9228)
(0 -0 79.3625)
(0 -0 79.7727)
(0 -0 80.1483)
(0 -0 80.483)
(0 -0 80.7698)
(0 -0 81.0011)
(0 -0 81.1688)
(0 -0 81.2648)
(0 -0 81.2807)
(0 -0 81.2086)
(0 -0 81.041)
(0 -0 80.7708)
(0 -0 80.3917)
(0 -0 79.8982)
(0 -0 79.2861)
(0 -0 78.5516)
(0 -0 77.694)
(0 -0 76.7108)
(0 -0 75.6061)
(0 -0 74.3786)
(0 -0 73.0399)
(0 -0 71.5876)
(0 -0 70.0461)
(0 -0 68.4072)
(0 -0 66.7187)
(0 -0 64.9553)
(0 -0 63.2096)
(0 -0 61.4142)
(0 -0 59.7629)
(0 -0 58.0432)
(0 -0 56.6506)
(0 -0 55.3505)
(0 -0 54.3069)
(0 -0 65.8054)
(0 -0 64.8627)
(0 -0 65.0599)
(0 -0 65.7385)
(0 -0 66.6095)
(0 -0 67.367)
(0 -0 68.0153)
(0 -0 68.6306)
(0 -0 69.2286)
(0 -0 69.8009)
(0 -0 70.3466)
(0 -0 70.8695)
(0 -0 71.3724)
(0 -0 71.8569)
(0 -0 72.324)
(0 -0 72.7744)
(0 -0 73.2086)
(0 -0 73.6267)
(0 -0 74.0282)
(0 -0 74.4123)
(0 -0 74.7777)
(0 -0 75.1225)
(0 -0 75.4444)
(0 -0 75.7407)
(0 -0 76.0083)
(0 -0 76.2436)
(0 -0 76.443)
(0 -0 76.6026)
(0 -0 76.7185)
(0 -0 76.7866)
(0 -0 76.8032)
(0 -0 76.7646)
(0 -0 76.6673)
(0 -0 76.5088)
(0 -0 76.2859)
(0 -0 75.9984)
(0 -0 75.6425)
(0 -0 75.2229)
(0 -0 74.7328)
(0 -0 74.1867)
(0 -0 73.5691)
(0 -0 72.9148)
(0 -0 72.1864)
(0 -0 71.4604)
(0 -0 70.6482)
(0 -0 69.9158)
(0 -0 69.0662)
(0 -0 68.3937)
(0 -0 67.6317)
(0 -0 67.203)
(0 -0 60.9181)
(0 -0 60.1643)
(0 -0 60.3701)
(0 -0 60.9576)
(0 -0 61.7335)
(0 -0 62.4276)
(0 -0 63.0215)
(0 -0 63.5826)
(0 -0 64.1291)
(0 -0 64.6536)
(0 -0 65.1542)
(0 -0 65.6337)
(0 -0 66.0948)
(0 -0 66.5388)
(0 -0 66.9667)
(0 -0 67.3794)
(0 -0 67.7776)
(0 -0 68.1621)
(0 -0 68.5335)
(0 -0 68.8922)
(0 -0 69.2386)
(0 -0 69.5727)
(0 -0 69.8945)
(0 -0 70.2034)
(0 -0 70.499)
(0 -0 70.7801)
(0 -0 71.0458)
(0 -0 71.2945)
(0 -0 71.5245)
(0 -0 71.7341)
(0 -0 71.9214)
(0 -0 72.0841)
(0 -0 72.2201)
(0 -0 72.3275)
(0 -0 72.4038)
(0 -0 72.4479)
(0 -0 72.4564)
(0 -0 72.4313)
(0 -0 72.3652)
(0 -0 72.2678)
(0 -0 72.1221)
(0 -0 71.9549)
(0 -0 71.7259)
(0 -0 71.4997)
(0 -0 71.1855)
(0 -0 70.9226)
(0 -0 70.5246)
(0 -0 70.2621)
(0 -0 69.7687)
(0 -0 69.6777)
(0 -0 56.3218)
(0 -0 55.7185)
(0 -0 55.932)
(0 -0 56.4398)
(0 -0 57.1263)
(0 -0 57.7591)
(0 -0 58.3017)
(0 -0 58.8115)
(0 -0 59.3089)
(0 -0 59.7878)
(0 -0 60.2452)
(0 -0 60.6833)
(0 -0 61.1046)
(0 -0 61.5102)
(0 -0 61.9009)
(0 -0 62.2775)
(0 -0 62.6408)
(0 -0 62.9915)
(0 -0 63.3305)
(0 -0 63.6583)
(0 -0 63.9758)
(0 -0 64.2837)
(0 -0 64.5823)
(0 -0 64.8722)
(0 -0 65.1537)
(0 -0 65.4268)
(0 -0 65.6914)
(0 -0 65.9472)
(0 -0 66.1938)
(0 -0 66.4305)
(0 -0 66.6565)
(0 -0 66.8706)
(0 -0 67.0719)
(0 -0 67.259)
(0 -0 67.4305)
(0 -0 67.5853)
(0 -0 67.7211)
(0 -0 67.8385)
(0 -0 67.9317)
(0 -0 68.0074)
(0 -0 68.05)
(0 -0 68.0813)
(0 -0 68.0631)
(0 -0 68.0504)
(0 -0 67.9575)
(0 -0 67.9074)
(0 -0 67.7151)
(0 -0 67.6566)
(0 -0 67.3004)
(0 -0 67.3399)
(0 -0 52.0114)
(0 -0 51.5272)
(0 -0 51.7463)
(0 -0 52.1847)
(0 -0 52.7882)
(0 -0 53.362)
(0 -0 53.8562)
(0 -0 54.318)
(0 -0 54.7689)
(0 -0 55.2045)
(0 -0 55.6209)
(0 -0 56.0197)
(0 -0 56.4031)
(0 -0 56.7722)
(0 -0 57.1276)
(0 -0 57.4699)
(0 -0 57.8)
(0 -0 58.1184)
(0 -0 58.4259)
(0 -0 58.7234)
(0 -0 59.0116)
(0 -0 59.2912)
(0 -0 59.563)
(0 -0 59.8275)
(0 -0 60.0854)
(0 -0 60.3369)
(0 -0 60.5825)
(0 -0 60.8221)
(0 -0 61.0558)
(0 -0 61.2834)
(0 -0 61.5045)
(0 -0 61.7185)
(0 -0 61.9251)
(0 -0 62.1231)
(0 -0 62.3119)
(0 -0 62.4905)
(0 -0 62.6574)
(0 -0 62.8128)
(0 -0 62.9522)
(0 -0 63.0804)
(0 -0 63.1843)
(0 -0 63.2818)
(0 -0 63.3389)
(0 -0 63.4031)
(0 -0 63.3955)
(0 -0 63.4288)
(0 -0 63.3211)
(0 -0 63.347)
(0 -0 63.0673)
(0 -0 63.139)
(0 -0 47.9805)
(0 -0 47.5901)
(0 -0 47.8118)
(0 -0 48.1902)
(0 -0 48.7173)
(0 -0 49.2348)
(0 -0 49.6836)
(0 -0 50.1006)
(0 -0 50.5079)
(0 -0 50.9025)
(0 -0 51.2803)
(0 -0 51.642)
(0 -0 51.9896)
(0 -0 52.3241)
(0 -0 52.646)
(0 -0 52.9559)
(0 -0 53.2544)
(0 -0 53.5421)
(0 -0 53.8199)
(0 -0 54.0885)
(0 -0 54.3485)
(0 -0 54.6009)
(0 -0 54.8463)
(0 -0 55.0854)
(0 -0 55.3188)
(0 -0 55.547)
(0 -0 55.7702)
(0 -0 55.9888)
(0 -0 56.2028)
(0 -0 56.4121)
(0 -0 56.6166)
(0 -0 56.8159)
(0 -0 57.0097)
(0 -0 57.1972)
(0 -0 57.378)
(0 -0 57.5512)
(0 -0 57.7158)
(0 -0 57.8716)
(0 -0 58.0153)
(0 -0 58.1504)
(0 -0 58.2663)
(0 -0 58.3773)
(0 -0 58.4544)
(0 -0 58.5384)
(0 -0 58.5584)
(0 -0 58.6175)
(0 -0 58.5431)
(0 -0 58.5959)
(0 -0 58.3606)
(0 -0 58.4383)
(0 -0 44.2214)
(0 -0 43.905)
(0 -0 44.1257)
(0 -0 44.4522)
(0 -0 44.9101)
(0 -0 45.374)
(0 -0 45.7804)
(0 -0 46.1559)
(0 -0 46.5225)
(0 -0 46.8788)
(0 -0 47.2203)
(0 -0 47.5472)
(0 -0 47.8611)
(0 -0 48.163)
(0 -0 48.4534)
(0 -0 48.7327)
(0 -0 49.0014)
(0 -0 49.2603)
(0 -0 49.5099)
(0 -0 49.7511)
(0 -0 49.9846)
(0 -0 50.2112)
(0 -0 50.4316)
(0 -0 50.6465)
(0 -0 50.8565)
(0 -0 51.062)
(0 -0 51.2634)
(0 -0 51.4609)
(0 -0 51.6547)
(0 -0 51.8446)
(0 -0 52.0306)
(0 -0 52.2122)
(0 -0 52.3893)
(0 -0 52.5611)
(0 -0 52.7274)
(0 -0 52.8871)
(0 -0 53.0398)
(0 -0 53.1849)
(0 -0 53.3199)
(0 -0 53.4473)
(0 -0 53.5585)
(0 -0 53.6651)
(0 -0 53.7427)
(0 -0 53.826)
(0 -0 53.8524)
(0 -0 53.9148)
(0 -0 53.8548)
(0 -0 53.912)
(0 -0 53.7037)
(0 -0 53.7849)
(0 -0 40.7256)
(0 -0 40.4674)
(0 -0 40.6834)
(0 -0 40.9653)
(0 -0 41.361)
(0 -0 41.7745)
(0 -0 42.1413)
(0 -0 42.4787)
(0 -0 42.8075)
(0 -0 43.128)
(0 -0 43.4357)
(0 -0 43.7302)
(0 -0 44.0127)
(0 -0 44.2842)
(0 -0 44.545)
(0 -0 44.7956)
(0 -0 45.0364)
(0 -0 45.2681)
(0 -0 45.4913)
(0 -0 45.7067)
(0 -0 45.9153)
(0 -0 46.1177)
(0 -0 46.3146)
(0 -0 46.5068)
(0 -0 46.6947)
(0 -0 46.879)
(0 -0 47.0598)
(0 -0 47.2374)
(0 -0 47.4119)
(0 -0 47.5832)
(0 -0 47.7512)
(0 -0 47.9155)
(0 -0 48.0759)
(0 -0 48.2317)
(0 -0 48.3827)
(0 -0 48.5277)
(0 -0 48.6667)
(0 -0 48.7986)
(0 -0 48.9219)
(0 -0 49.0379)
(0 -0 49.1402)
(0 -0 49.2375)
(0 -0 49.3099)
(0 -0 49.3862)
(0 -0 49.4125)
(0 -0 49.4708)
(0 -0 49.4188)
(0 -0 49.4733)
(0 -0 49.2846)
(0 -0 49.368)
(0 -0 37.4832)
(0 -0 37.2712)
(0 -0 37.4789)
(0 -0 37.7224)
(0 -0 38.0627)
(0 -0 38.4292)
(0 -0 38.7593)
(0 -0 39.0617)
(0 -0 39.3558)
(0 -0 39.6432)
(0 -0 39.9196)
(0 -0 40.184)
(0 -0 40.4373)
(0 -0 40.6805)
(0 -0 40.9139)
(0 -0 41.1377)
(0 -0 41.3525)
(0 -0 41.5588)
(0 -0 41.7573)
(0 -0 41.9488)
(0 -0 42.134)
(0 -0 42.3138)
(0 -0 42.4888)
(0 -0 42.6597)
(0 -0 42.8271)
(0 -0 42.9915)
(0 -0 43.1531)
(0 -0 43.3121)
(0 -0 43.4687)
(0 -0 43.6227)
(0 -0 43.7739)
(0 -0 43.9219)
(0 -0 44.0667)
(0 -0 44.2073)
(0 -0 44.3437)
(0 -0 44.4747)
(0 -0 44.6003)
(0 -0 44.7193)
(0 -0 44.8309)
(0 -0 44.9353)
(0 -0 45.0281)
(0 -0 45.1153)
(0 -0 45.1814)
(0 -0 45.2496)
(0 -0 45.2744)
(0 -0 45.3265)
(0 -0 45.2808)
(0 -0 45.3306)
(0 -0 45.1596)
(0 -0 45.2423)
(0 -0 34.4837)
(0 -0 34.309)
(0 -0 34.5044)
(0 -0 34.7148)
(0 -0 35.0065)
(0 -0 35.3296)
(0 -0 35.6257)
(0 -0 35.8964)
(0 -0 36.1588)
(0 -0 36.4157)
(0 -0 36.6633)
(0 -0 36.9)
(0 -0 37.1265)
(0 -0 37.3436)
(0 -0 37.5515)
(0 -0 37.7505)
(0 -0 37.9412)
(0 -0 38.124)
(0 -0 38.2995)
(0 -0 38.4687)
(0 -0 38.6323)
(0 -0 38.791)
(0 -0 38.9457)
(0 -0 39.0969)
(0 -0 39.2453)
(0 -0 39.3912)
(0 -0 39.5351)
(0 -0 39.677)
(0 -0 39.817)
(0 -0 39.9549)
(0 -0 40.0906)
(0 -0 40.2237)
(0 -0 40.3539)
(0 -0 40.4804)
(0 -0 40.6033)
(0 -0 40.7212)
(0 -0 40.8344)
(0 -0 40.9414)
(0 -0 41.042)
(0 -0 41.1356)
(0 -0 41.2193)
(0 -0 41.2971)
(0 -0 41.357)
(0 -0 41.4174)
(0 -0 41.4405)
(0 -0 41.4863)
(0 -0 41.4466)
(0 -0 41.4912)
(0 -0 41.3376)
(0 -0 41.4174)
(0 -0 31.7157)
(0 -0 31.5712)
(0 -0 31.7514)
(0 -0 31.9336)
(0 -0 32.1828)
(0 -0 32.4662)
(0 -0 32.731)
(0 -0 32.973)
(0 -0 33.2067)
(0 -0 33.4358)
(0 -0 33.6569)
(0 -0 33.8683)
(0 -0 34.0701)
(0 -0 34.2632)
(0 -0 34.4477)
(0 -0 34.624)
(0 -0 34.7924)
(0 -0 34.9534)
(0 -0 35.1078)
(0 -0 35.2564)
(0 -0 35.4)
(0 -0 35.5393)
(0 -0 35.6752)
(0 -0 35.8082)
(0 -0 35.9391)
(0 -0 36.0681)
(0 -0 36.1956)
(0 -0 36.3217)
(0 -0 36.4465)
(0 -0 36.5697)
(0 -0 36.6912)
(0 -0 36.8105)
(0 -0 36.9275)
(0 -0 37.0412)
(0 -0 37.1516)
(0 -0 37.2576)
(0 -0 37.3594)
(0 -0 37.4553)
(0 -0 37.5458)
(0 -0 37.6294)
(0 -0 37.7048)
(0 -0 37.7739)
(0 -0 37.8282)
(0 -0 37.8814)
(0 -0 37.9031)
(0 -0 37.9429)
(0 -0 37.9091)
(0 -0 37.9485)
(0 -0 37.8124)
(0 -0 37.8876)
(0 -0 29.167)
(0 -0 29.0471)
(0 -0 29.2102)
(0 -0 29.3688)
(0 -0 29.5814)
(0 -0 29.8286)
(0 -0 30.0647)
(0 -0 30.2808)
(0 -0 30.4886)
(0 -0 30.6924)
(0 -0 30.8894)
(0 -0 31.0777)
(0 -0 31.2571)
(0 -0 31.4282)
(0 -0 31.5914)
(0 -0 31.7467)
(0 -0 31.8947)
(0 -0 32.0358)
(0 -0 32.1708)
(0 -0 32.3004)
(0 -0 32.4256)
(0 -0 32.5471)
(0 -0 32.6657)
(0 -0 32.7821)
(0 -0 32.8968)
(0 -0 33.0103)
(0 -0 33.1229)
(0 -0 33.2346)
(0 -0 33.3455)
(0 -0 33.4554)
(0 -0 33.564)
(0 -0 33.6708)
(0 -0 33.7756)
(0 -0 33.8776)
(0 -0 33.9768)
(0 -0 34.0718)
(0 -0 34.1633)
(0 -0 34.2492)
(0 -0 34.3304)
(0 -0 34.4051)
(0 -0 34.4729)
(0 -0 34.5342)
(0 -0 34.5833)
(0 -0 34.6299)
(0 -0 34.6506)
(0 -0 34.685)
(0 -0 34.657)
(0 -0 34.6911)
(0 -0 34.5722)
(0 -0 34.642)
(0 -0 26.8252)
(0 -0 26.7253)
(0 -0 26.8704)
(0 -0 27.0091)
(0 -0 27.1902)
(0 -0 27.4051)
(0 -0 27.6149)
(0 -0 27.8078)
(0 -0 27.9924)
(0 -0 28.1734)
(0 -0 28.3487)
(0 -0 28.516)
(0 -0 28.6751)
(0 -0 28.8263)
(0 -0 28.97)
(0 -0 29.1063)
(0 -0 29.2357)
(0 -0 29.3586)
(0 -0 29.4758)
(0 -0 29.5881)
(0 -0 29.6964)
(0 -0 29.8016)
(0 -0 29.9044)
(0 -0 30.0056)
(0 -0 30.1057)
(0 -0 30.2051)
(0 -0 30.3041)
(0 -0 30.4028)
(0 -0 30.5011)
(0 -0 30.5988)
(0 -0 30.6957)
(0 -0 30.7912)
(0 -0 30.8852)
(0 -0 30.9766)
(0 -0 31.0656)
(0 -0 31.1508)
(0 -0 31.2329)
(0 -0 31.3098)
(0 -0 31.3827)
(0 -0 31.4492)
(0 -0 31.5102)
(0 -0 31.5644)
(0 -0 31.609)
(0 -0 31.6497)
(0 -0 31.6695)
(0 -0 31.6989)
(0 -0 31.6765)
(0 -0 31.7057)
(0 -0 31.6035)
(0 -0 31.667)
(0 -0 24.6775)
(0 -0 24.5938)
(0 -0 24.7209)
(0 -0 24.8425)
(0 -0 24.9969)
(0 -0 25.1831)
(0 -0 25.3692)
(0 -0 25.5413)
(0 -0 25.7054)
(0 -0 25.866)
(0 -0 26.0217)
(0 -0 26.1702)
(0 -0 26.3109)
(0 -0 26.4442)
(0 -0 26.5703)
(0 -0 26.6893)
(0 -0 26.8018)
(0 -0 26.9081)
(0 -0 27.0091)
(0 -0 27.1057)
(0 -0 27.1987)
(0 -0 27.2891)
(0 -0 27.3776)
(0 -0 27.465)
(0 -0 27.5518)
(0 -0 27.6385)
(0 -0 27.7252)
(0 -0 27.8121)
(0 -0 27.8991)
(0 -0 27.9859)
(0 -0 28.0723)
(0 -0 28.1577)
(0 -0 28.2418)
(0 -0 28.3238)
(0 -0 28.4036)
(0 -0 28.4801)
(0 -0 28.5537)
(0 -0 28.6226)
(0 -0 28.6879)
(0 -0 28.7473)
(0 -0 28.8021)
(0 -0 28.85)
(0 -0 28.8905)
(0 -0 28.926)
(0 -0 28.9451)
(0 -0 28.97)
(0 -0 28.9529)
(0 -0 28.9774)
(0 -0 28.891)
(0 -0 28.9478)
(0 -0 22.7108)
(0 -0 22.6401)
(0 -0 22.7499)
(0 -0 22.8567)
(0 -0 22.9886)
(0 -0 23.1496)
(0 -0 23.3143)
(0 -0 23.468)
(0 -0 23.6139)
(0 -0 23.7564)
(0 -0 23.8946)
(0 -0 24.0263)
(0 -0 24.1507)
(0 -0 24.2679)
(0 -0 24.3781)
(0 -0 24.4816)
(0 -0 24.5788)
(0 -0 24.6702)
(0 -0 24.7566)
(0 -0 24.8389)
(0 -0 24.9181)
(0 -0 24.9951)
(0 -0 25.0707)
(0 -0 25.1456)
(0 -0 25.2204)
(0 -0 25.2956)
(0 -0 25.3714)
(0 -0 25.4477)
(0 -0 25.5246)
(0 -0 25.6016)
(0 -0 25.6787)
(0 -0 25.755)
(0 -0 25.8304)
(0 -0 25.904)
(0 -0 25.9757)
(0 -0 26.0443)
(0 -0 26.1105)
(0 -0 26.1721)
(0 -0 26.2309)
(0 -0 26.2838)
(0 -0 26.3331)
(0 -0 26.3755)
(0 -0 26.4123)
(0 -0 26.4432)
(0 -0 26.4617)
(0 -0 26.4826)
(0 -0 26.4705)
(0 -0 26.4906)
(0 -0 26.4189)
(0 -0 26.4686)
(0 -0 20.9123)
(0 -0 20.8519)
(0 -0 20.9455)
(0 -0 21.0394)
(0 -0 21.1523)
(0 -0 21.2914)
(0 -0 21.437)
(0 -0 21.5743)
(0 -0 21.7044)
(0 -0 21.831)
(0 -0 21.9537)
(0 -0 22.0704)
(0 -0 22.1802)
(0 -0 22.283)
(0 -0 22.3791)
(0 -0 22.4687)
(0 -0 22.5522)
(0 -0 22.6302)
(0 -0 22.7034)
(0 -0 22.7729)
(0 -0 22.8396)
(0 -0 22.9045)
(0 -0 22.9685)
(0 -0 23.0322)
(0 -0 23.0963)
(0 -0 23.1613)
(0 -0 23.2272)
(0 -0 23.2941)
(0 -0 23.362)
(0 -0 23.4305)
(0 -0 23.4992)
(0 -0 23.5676)
(0 -0 23.6353)
(0 -0 23.7014)
(0 -0 23.766)
(0 -0 23.8277)
(0 -0 23.8872)
(0 -0 23.9426)
(0 -0 23.9954)
(0 -0 24.0426)
(0 -0 24.0871)
(0 -0 24.1246)
(0 -0 24.1582)
(0 -0 24.1851)
(0 -0 24.2031)
(0 -0 24.2205)
(0 -0 24.2128)
(0 -0 24.2288)
(0 -0 24.1707)
(0 -0 24.2129)
(0 -0 19.269)
(0 -0 19.2168)
(0 -0 19.2957)
(0 -0 19.3782)
(0 -0 19.4751)
(0 -0 19.5954)
(0 -0 19.7241)
(0 -0 19.847)
(0 -0 19.9632)
(0 -0 20.0759)
(0 -0 20.1849)
(0 -0 20.2884)
(0 -0 20.3853)
(0 -0 20.4754)
(0 -0 20.5589)
(0 -0 20.6361)
(0 -0 20.7073)
(0 -0 20.7733)
(0 -0 20.8347)
(0 -0 20.8927)
(0 -0 20.9482)
(0 -0 21.0023)
(0 -0 21.0558)
(0 -0 21.1096)
(0 -0 21.1641)
(0 -0 21.2199)
(0 -0 21.2772)
(0 -0 21.3358)
(0 -0 21.3957)
(0 -0 21.4566)
(0 -0 21.5181)
(0 -0 21.5795)
(0 -0 21.6404)
(0 -0 21.7001)
(0 -0 21.7583)
(0 -0 21.814)
(0 -0 21.8677)
(0 -0 21.9175)
(0 -0 21.9652)
(0 -0 22.0075)
(0 -0 22.0476)
(0 -0 22.081)
(0 -0 22.1116)
(0 -0 22.135)
(0 -0 22.1526)
(0 -0 22.1669)
(0 -0 22.1632)
(0 -0 22.1753)
(0 -0 22.1299)
(0 -0 22.1647)
(0 -0 17.7684)
(0 -0 17.7227)
(0 -0 17.7884)
(0 -0 17.8607)
(0 -0 17.9443)
(0 -0 18.0486)
(0 -0 18.1624)
(0 -0 18.2726)
(0 -0 18.3769)
(0 -0 18.4774)
(0 -0 18.5745)
(0 -0 18.6664)
(0 -0 18.7519)
(0 -0 18.8308)
(0 -0 18.9032)
(0 -0 18.9693)
(0 -0 19.0297)
(0 -0 19.0848)
(0 -0 19.1357)
(0 -0 19.1834)
(0 -0 19.2289)
(0 -0 19.2734)
(0 -0 19.3176)
(0 -0 19.3625)
(0 -0 19.4086)
(0 -0 19.4563)
(0 -0 19.5058)
(0 -0 19.5572)
(0 -0 19.6101)
(0 -0 19.6644)
(0 -0 19.7195)
(0 -0 19.7748)
(0 -0 19.8299)
(0 -0 19.8839)
(0 -0 19.9367)
(0 -0 19.9872)
(0 -0 20.0358)
(0 -0 20.0808)
(0 -0 20.1239)
(0 -0 20.162)
(0 -0 20.1983)
(0 -0 20.2281)
(0 -0 20.2562)
(0 -0 20.2765)
(0 -0 20.2938)
(0 -0 20.3053)
(0 -0 20.3052)
(0 -0 20.3139)
(0 -0 20.2796)
(0 -0 20.3072)
(0 -0 16.3984)
(0 -0 16.3577)
(0 -0 16.4118)
(0 -0 16.475)
(0 -0 16.5476)
(0 -0 16.6384)
(0 -0 16.7392)
(0 -0 16.8383)
(0 -0 16.9322)
(0 -0 17.0223)
(0 -0 17.109)
(0 -0 17.1907)
(0 -0 17.2663)
(0 -0 17.3353)
(0 -0 17.3979)
(0 -0 17.4543)
(0 -0 17.505)
(0 -0 17.5506)
(0 -0 17.5921)
(0 -0 17.6306)
(0 -0 17.6672)
(0 -0 17.703)
(0 -0 17.739)
(0 -0 17.776)
(0 -0 17.8146)
(0 -0 17.8552)
(0 -0 17.898)
(0 -0 17.9429)
(0 -0 17.9899)
(0 -0 18.0384)
(0 -0 18.088)
(0 -0 18.1381)
(0 -0 18.1881)
(0 -0 18.2373)
(0 -0 18.2854)
(0 -0 18.3313)
(0 -0 18.3756)
(0 -0 18.4165)
(0 -0 18.4557)
(0 -0 18.4901)
(0 -0 18.5232)
(0 -0 18.5497)
(0 -0 18.5757)
(0 -0 18.5934)
(0 -0 18.6103)
(0 -0 18.6195)
(0 -0 18.6224)
(0 -0 18.6281)
(0 -0 18.6036)
(0 -0 18.6243)
(0 -0 15.1474)
(0 -0 15.1105)
(0 -0 15.1547)
(0 -0 15.2097)
(0 -0 15.2732)
(0 -0 15.3526)
(0 -0 15.4422)
(0 -0 15.5317)
(0 -0 15.6167)
(0 -0 15.6979)
(0 -0 15.7756)
(0 -0 15.8485)
(0 -0 15.9154)
(0 -0 15.9758)
(0 -0 16.0298)
(0 -0 16.0776)
(0 -0 16.1197)
(0 -0 16.1569)
(0 -0 16.19)
(0 -0 16.2204)
(0 -0 16.249)