/*--------------------------------*- C++ -*----------------------------------*\
  =========                 |
  \\      /  F ield         | OpenFOAM: The Open Source CFD Toolbox
   \\    /   O peration     | Website:  https://openfoam.org
    \\  /    A nd           | Version:  7
     \\/     M anipulation  |
\*---------------------------------------------------------------------------*/
FoamFile
{
    version     2.0;
    format      ascii;
    class       volScalarField;
    location    "0.04";
    object      p;
}
// * * * * * * * * * * * * * * * * * * * * * * * * * * * * * * * * * * * * * //

dimensions      [0 2 -2 0 0 0 0];

internalField   nonuniform List<scalar> 
70000
(
0.125736
0.0482839
0.0357687
0.038222
0.0384032
0.0373609
0.0364397
0.0357516
0.0351863
0.0346961
0.0342677
0.0338933
0.0335652
0.033277
0.0330232
0.0327994
0.0326021
0.0324284
0.0322759
0.0321424
0.0320264
0.0319263
0.0318409
0.0317693
0.0317106
0.0316641
0.0316291
0.0316053
0.0315922
0.0315895
0.0315971
0.0316149
0.0316429
0.0316811
0.0317299
0.0317893
0.03186
0.0319425
0.0320376
0.0321467
0.0322696
0.0324118
0.0325669
0.0327551
0.032946
0.0332085
0.0334295
0.0338409
0.0340402
0.0348293
0.121368
0.0486508
0.0359717
0.0383176
0.0384578
0.0373969
0.0364679
0.0357749
0.0352058
0.0347128
0.0342823
0.0339061
0.0335767
0.0332873
0.0330326
0.032808
0.0326101
0.0324358
0.0322827
0.0321488
0.0320324
0.0319319
0.0318463
0.0317744
0.0317155
0.0316687
0.0316335
0.0316095
0.0315962
0.0315934
0.0316009
0.0316185
0.0316464
0.0316845
0.0317332
0.0317924
0.0318631
0.0319455
0.0320405
0.0321495
0.0322723
0.0324144
0.0325694
0.0327575
0.0329482
0.0332106
0.0334315
0.0338416
0.0340459
0.0348626
0.117788
0.0495907
0.036312
0.0384467
0.038532
0.0374417
0.0365002
0.035801
0.0352276
0.0347312
0.0342982
0.0339201
0.0335891
0.0332985
0.0330427
0.0328172
0.0326185
0.0324436
0.03229
0.0321556
0.0320388
0.0319379
0.031852
0.0317798
0.0317205
0.0316735
0.0316381
0.0316139
0.0316004
0.0315975
0.0316048
0.0316223
0.0316501
0.031688
0.0317365
0.0317957
0.0318662
0.0319485
0.0320434
0.0321523
0.0322749
0.032417
0.0325718
0.0327598
0.0329502
0.0332125
0.0334331
0.0338414
0.0340631
0.0348847
0.114694
0.0506924
0.0367815
0.0386207
0.0386329
0.0374992
0.0365383
0.035831
0.0352522
0.0347517
0.0343156
0.0339352
0.0336024
0.0333103
0.0330534
0.0328269
0.0326274
0.0324518
0.0322976
0.0321627
0.0320453
0.0319441
0.0318578
0.0317853
0.0317257
0.0316785
0.0316428
0.0316184
0.0316047
0.0316015
0.0316087
0.0316261
0.0316537
0.0316915
0.0317399
0.0317989
0.0318693
0.0319515
0.0320462
0.032155
0.0322775
0.0324194
0.0325739
0.0327618
0.0329519
0.0332138
0.0334348
0.0338392
0.03409
0.0348961
0.111734
0.0517888
0.0373474
0.0388412
0.0387674
0.037577
0.0365873
0.035868
0.0352821
0.0347763
0.0343361
0.0339527
0.0336177
0.0333238
0.0330654
0.0328378
0.0326373
0.0324608
0.0323059
0.0321704
0.0320525
0.0319508
0.031864
0.0317911
0.0317313
0.0316837
0.0316478
0.0316231
0.0316092
0.0316058
0.0316128
0.0316299
0.0316574
0.031695
0.0317432
0.0318021
0.0318724
0.0319544
0.032049
0.0321576
0.0322799
0.0324216
0.032576
0.0327635
0.0329535
0.0332143
0.0334372
0.0338354
0.0341231
0.0349053
0.108825
0.0528277
0.0379625
0.0390881
0.0389296
0.0376767
0.0366496
0.0359143
0.0353194
0.0348067
0.0343613
0.033974
0.0336361
0.0333399
0.0330797
0.0328506
0.0326488
0.0324713
0.0323154
0.0321791
0.0320606
0.0319583
0.031871
0.0317977
0.0317374
0.0316894
0.0316532
0.0316282
0.031614
0.0316104
0.0316171
0.0316341
0.0316613
0.0316987
0.0317468
0.0318055
0.0318756
0.0319574
0.0320518
0.0321602
0.0322823
0.0324238
0.0325779
0.032765
0.0329551
0.0332143
0.0334404
0.0338308
0.0341591
0.0349145
0.10596
0.0537901
0.0385932
0.0393399
0.0391062
0.0377937
0.0367243
0.0359699
0.0353645
0.0348436
0.0343918
0.0339998
0.0336583
0.0333593
0.0330967
0.0328658
0.0326624
0.0324836
0.0323266
0.0321894
0.03207
0.031967
0.0318791
0.0318051
0.0317444
0.0316959
0.0316593
0.0316339
0.0316194
0.0316155
0.0316219
0.0316386
0.0316656
0.0317028
0.0317506
0.0318091
0.0318789
0.0319605
0.0320547
0.0321629
0.0322848
0.032426
0.0325799
0.0327664
0.0329567
0.0332139
0.0334446
0.0338263
0.0341951
0.0349235
0.103146
0.0546681
0.0392235
0.0395848
0.0392865
0.0379213
0.0368079
0.0360326
0.035416
0.0348863
0.0344276
0.0340302
0.0336844
0.0333822
0.0331169
0.0328837
0.0326786
0.0324981
0.0323398
0.0322014
0.032081
0.0319771
0.0318884
0.0318138
0.0317524
0.0317034
0.0316663
0.0316404
0.0316255
0.0316212
0.0316272
0.0316436
0.0316702
0.0317072
0.0317547
0.0318129
0.0318825
0.0319639
0.0320578
0.0321658
0.0322873
0.0324282
0.032582
0.0327678
0.0329586
0.0332133
0.0334499
0.0338227
0.0342285
0.0349314
0.100387
0.0554588
0.0398482
0.0398187
0.0394643
0.0380549
0.0368971
0.0360999
0.035472
0.0349335
0.0344675
0.0340643
0.0337142
0.0334083
0.0331402
0.0329045
0.0326972
0.032515
0.0323551
0.0322154
0.0320938
0.0319889
0.0318992
0.0318238
0.0317617
0.031712
0.0316742
0.0316478
0.0316324
0.0316276
0.0316333
0.0316492
0.0316755
0.0317121
0.0317593
0.0318172
0.0318865
0.0319676
0.0320611
0.0321688
0.0322901
0.0324306
0.0325841
0.0327692
0.0329608
0.0332126
0.033456
0.0338205
0.0342573
0.0349369
0.0976895
0.0561621
0.0404662
0.0400412
0.0396367
0.0381916
0.0369898
0.0361697
0.0355307
0.0349836
0.0345103
0.0341014
0.0337466
0.0334371
0.0331659
0.0329276
0.0327181
0.032534
0.0323724
0.0322312
0.0321083
0.0320022
0.0319116
0.0318352
0.0317722
0.0317218
0.0316833
0.0316563
0.0316403
0.0316349
0.0316401
0.0316556
0.0316814
0.0317176
0.0317643
0.0318219
0.0318908
0.0319716
0.0320648
0.0321722
0.0322931
0.0324332
0.0325865
0.0327707
0.0329632
0.033212
0.0334627
0.0338198
0.0342798
0.0349383
0.0950558
0.0567782
0.0410768
0.0402533
0.0398022
0.03833
0.0370849
0.0362411
0.0355909
0.0350355
0.0345549
0.0341402
0.033781
0.0334678
0.0331934
0.0329525
0.0327408
0.0325547
0.0323914
0.0322486
0.0321244
0.0320171
0.0319253
0.0318479
0.031784
0.0317327
0.0316935
0.0316657
0.031649
0.0316431
0.0316477
0.0316626
0.0316879
0.0317236
0.03177
0.0318271
0.0318956
0.031976
0.0320688
0.0321758
0.0322963
0.032436
0.0325892
0.0327723
0.032966
0.0332117
0.0334695
0.0338206
0.0342954
0.0349342
0.092489
0.0573076
0.0416784
0.0404559
0.0399599
0.0384692
0.0371823
0.0363135
0.0356519
0.0350884
0.0346007
0.0341803
0.0338165
0.0334997
0.0332223
0.0329787
0.0327647
0.0325766
0.0324116
0.0322673
0.0321416
0.032033
0.0319401
0.0318617
0.0317968
0.0317446
0.0317046
0.0316761
0.0316587
0.031652
0.031656
0.0316704
0.0316951
0.0317303
0.0317761
0.0318328
0.0319008
0.0319808
0.0320731
0.0321797
0.0322998
0.0324389
0.032592
0.0327739
0.032969
0.0332116
0.033476
0.0338224
0.0343036
0.0349231
0.0899918
0.0577507
0.0422691
0.0406502
0.0401091
0.0386084
0.0372815
0.0363867
0.0357135
0.035142
0.0346473
0.0342212
0.0338529
0.0335324
0.033252
0.0330058
0.0327895
0.0325995
0.0324327
0.0322868
0.0321598
0.0320499
0.0319558
0.0318763
0.0318104
0.0317574
0.0317164
0.0316871
0.031669
0.0316617
0.0316649
0.0316787
0.0317028
0.0317374
0.0317827
0.0318389
0.0319064
0.0319858
0.0320777
0.0321838
0.0323035
0.032442
0.0325949
0.0327756
0.0329719
0.0332119
0.0334816
0.0338242
0.0343046
0.0349042
0.0875666
0.0581084
0.0428463
0.0408377
0.0402494
0.0387468
0.0373827
0.0364608
0.0357756
0.0351963
0.0346946
0.0342628
0.0338899
0.0335658
0.0332823
0.0330335
0.032815
0.032623
0.0324544
0.032307
0.0321785
0.0320673
0.0319721
0.0318915
0.0318246
0.0317706
0.0317288
0.0316987
0.0316798
0.0316717
0.0316743
0.0316874
0.031711
0.031745
0.0317896
0.0318453
0.0319122
0.0319912
0.0320825
0.032188
0.0323072
0.032445
0.0325979
0.0327772
0.0329746
0.0332121
0.0334858
0.0338254
0.0342989
0.0348773
0.0852158
0.058382
0.0434073
0.0410197
0.0403803
0.0388834
0.0374855
0.0365357
0.035838
0.035251
0.0347426
0.0343049
0.0339275
0.0335996
0.0333131
0.0330617
0.0328409
0.0326469
0.0324766
0.0323276
0.0321977
0.0320853
0.0319888
0.0319071
0.0318393
0.0317843
0.0317417
0.0317107
0.031691
0.0316822
0.0316841
0.0316965
0.0317194
0.0317527
0.0317968
0.0318518
0.0319182
0.0319966
0.0320873
0.0321923
0.032311
0.032448
0.0326006
0.0327787
0.0329768
0.0332122
0.0334882
0.0338249
0.0342871
0.0348426
0.0829413
0.0585732
0.0439489
0.0411979
0.0405015
0.0390173
0.0375899
0.0366114
0.0359006
0.0353062
0.034791
0.0343475
0.0339655
0.033634
0.0333443
0.0330904
0.0328673
0.0326712
0.0324992
0.0323486
0.0322173
0.0321035
0.0320059
0.0319231
0.0318542
0.0317983
0.0317547
0.0317229
0.0317024
0.0316929
0.031694
0.0317057
0.0317279
0.0317607
0.0318041
0.0318585
0.0319242
0.032002
0.0320921
0.0321965
0.0323146
0.0324507
0.0326031
0.0327797
0.0329783
0.0332117
0.0334885
0.033822
0.0342699
0.0348009
0.080745
0.0586839
0.044468
0.0413737
0.0406131
0.0391475
0.0376954
0.036688
0.0359634
0.0353616
0.03484
0.0343907
0.034004
0.0336688
0.033376
0.0331194
0.032894
0.0326959
0.0325221
0.0323699
0.0322371
0.0321221
0.0320232
0.0319393
0.0318694
0.0318125
0.031768
0.0317354
0.031714
0.0317037
0.0317041
0.0317151
0.0317366
0.0317686
0.0318114
0.0318652
0.0319302
0.0320074
0.0320968
0.0322004
0.032318
0.0324532
0.0326051
0.0327803
0.0329788
0.0332104
0.0334865
0.0338161
0.0342477
0.0347532
0.0786279
0.0587166
0.0449615
0.0415481
0.0407151
0.039273
0.0378017
0.0367655
0.0360264
0.0354174
0.0348893
0.0344343
0.034043
0.0337039
0.0334081
0.0331488
0.032921
0.032721
0.0325453
0.0323915
0.0322573
0.0321409
0.0320408
0.0319557
0.0318847
0.0318269
0.0317815
0.0317479
0.0317258
0.0317146
0.0317143
0.0317245
0.0317453
0.0317766
0.0318187
0.0318718
0.0319361
0.0320125
0.0321013
0.0322041
0.032321
0.0324552
0.0326065
0.0327803
0.0329783
0.0332079
0.033482
0.0338069
0.0342211
0.0347004
0.076591
0.0586744
0.0454267
0.0417221
0.0408077
0.0393928
0.0379085
0.0368438
0.0360894
0.0354732
0.0349391
0.0344784
0.0340823
0.0337395
0.0334405
0.0331785
0.0329485
0.0327463
0.0325688
0.0324134
0.0322776
0.0321599
0.0320586
0.0319724
0.0319003
0.0318415
0.0317951
0.0317606
0.0317376
0.0317256
0.0317245
0.0317339
0.0317539
0.0317846
0.0318259
0.0318782
0.0319418
0.0320175
0.0321056
0.0322075
0.0323236
0.0324566
0.0326072
0.0327795
0.0329765
0.0332041
0.0334751
0.0337942
0.0341907
0.0346437
0.0746346
0.0585605
0.0458606
0.0418963
0.0408915
0.039506
0.0380151
0.036923
0.0361525
0.0355291
0.0349892
0.0345229
0.0341221
0.0337755
0.0334733
0.0332086
0.0329762
0.032772
0.0325927
0.0324355
0.0322983
0.0321792
0.0320766
0.0319892
0.031916
0.0318561
0.0318088
0.0317734
0.0317495
0.0317367
0.0317347
0.0317434
0.0317626
0.0317924
0.031833
0.0318845
0.0319474
0.0320222
0.0321095
0.0322105
0.0323257
0.0324576
0.0326071
0.0327778
0.0329735
0.0331987
0.0334656
0.033778
0.0341567
0.0345837
0.0727586
0.0583791
0.0462607
0.0420707
0.040967
0.0396117
0.0381209
0.0370029
0.0362155
0.0355849
0.0350395
0.0345677
0.0341622
0.0338118
0.0335065
0.0332391
0.0330043
0.032798
0.0326168
0.0324579
0.0323192
0.0321986
0.0320948
0.0320062
0.0319319
0.031871
0.0318226
0.0317863
0.0317615
0.0317478
0.0317449
0.0317528
0.0317712
0.0318002
0.0318399
0.0318907
0.0319527
0.0320267
0.032113
0.032213
0.0323272
0.0324578
0.0326062
0.0327752
0.032969
0.0331915
0.0334535
0.0337582
0.0341194
0.0345212
0.0709627
0.0581344
0.0466243
0.0422454
0.041035
0.0397093
0.0382252
0.0370834
0.0362786
0.0356405
0.03509
0.0346129
0.0342026
0.0338484
0.0335399
0.0332698
0.0330326
0.0328242
0.0326411
0.0324806
0.0323403
0.0322183
0.0321131
0.0320234
0.0319479
0.0318859
0.0318366
0.0317993
0.0317735
0.0317589
0.0317552
0.0317621
0.0317797
0.0318079
0.0318467
0.0318966
0.0319578
0.0320308
0.0321162
0.032215
0.0323282
0.0324574
0.0326043
0.0327715
0.032963
0.0331824
0.0334389
0.033735
0.0340791
0.0344566
0.069246
0.0578312
0.0469494
0.0424197
0.0410962
0.0397982
0.0383273
0.0371645
0.0363415
0.0356958
0.0351404
0.0346582
0.0342433
0.0338853
0.0335737
0.0333008
0.0330613
0.0328507
0.0326657
0.0325035
0.0323616
0.0322382
0.0321317
0.0320407
0.0319641
0.031901
0.0318506
0.0318123
0.0317855
0.03177
0.0317653
0.0317714
0.0317881
0.0318154
0.0318533
0.0319023
0.0319625
0.0320345
0.0321189
0.0322166
0.0323285
0.0324562
0.0326015
0.0327666
0.0329555
0.0331714
0.0334217
0.0337086
0.034036
0.0343902
0.0676073
0.0574745
0.0472338
0.0425928
0.0411517
0.0398781
0.0384263
0.0372457
0.0364044
0.0357507
0.0351908
0.0347038
0.0342843
0.0339224
0.0336077
0.0333321
0.0330902
0.0328775
0.0326906
0.0325266
0.0323832
0.0322583
0.0321504
0.0320582
0.0319804
0.0319161
0.0318646
0.0318253
0.0317976
0.0317811
0.0317755
0.0317806
0.0317964
0.0318227
0.0318597
0.0319077
0.0319669
0.0320379
0.0321211
0.0322175
0.0323281
0.0324542
0.0325977
0.0327605
0.0329464
0.0331583
0.0334019
0.0336791
0.0339902
0.0343225
0.0660449
0.0570696
0.0474761
0.0427633
0.0412022
0.0399487
0.0385213
0.0373269
0.0364673
0.0358051
0.0352409
0.0347495
0.0343254
0.0339597
0.0336419
0.0333636
0.0331193
0.0329045
0.0327156
0.0325499
0.0324049
0.0322786
0.0321693
0.0320757
0.0319967
0.0319314
0.0318788
0.0318384
0.0318096
0.0317921
0.0317856
0.0317897
0.0318045
0.0318299
0.0318659
0.0319129
0.031971
0.0320408
0.0321228
0.0322179
0.032327
0.0324513
0.0325928
0.0327531
0.0329357
0.033143
0.0333797
0.0336466
0.033942
0.0342534
0.064557
0.0566219
0.0476747
0.0429296
0.0412489
0.04001
0.0386115
0.0374076
0.03653
0.035859
0.0352907
0.0347951
0.0343667
0.0339972
0.0336762
0.0333953
0.0331486
0.0329317
0.0327409
0.0325734
0.0324268
0.032299
0.0321883
0.0320934
0.0320132
0.0319466
0.031893
0.0318515
0.0318217
0.0318031
0.0317955
0.0317987
0.0318124
0.0318368
0.0318718
0.0319177
0.0319746
0.0320432
0.0321239
0.0322175
0.032325
0.0324475
0.0325867
0.0327443
0.0329232
0.0331256
0.0333549
0.0336112
0.0338913
0.0341831
0.0631414
0.0561371
0.0478291
0.0430898
0.0412925
0.0400623
0.038696
0.0374874
0.0365926
0.0359122
0.03534
0.0348407
0.0344081
0.0340349
0.0337108
0.0334272
0.0331781
0.032959
0.0327663
0.0325971
0.0324488
0.0323195
0.0322074
0.0321112
0.0320298
0.031962
0.0319071
0.0318645
0.0318337
0.0318141
0.0318054
0.0318075
0.0318202
0.0318435
0.0318774
0.0319221
0.0319779
0.0320452
0.0321245
0.0322165
0.0323222
0.0324426
0.0325793
0.0327339
0.0329088
0.033106
0.0333276
0.0335732
0.0338383
0.0341116
0.0617956
0.0556207
0.0479386
0.0432414
0.0413339
0.0401059
0.038774
0.0375656
0.0366548
0.0359647
0.0353886
0.034886
0.0344495
0.0340725
0.0337454
0.0334592
0.0332078
0.0329865
0.0327919
0.0326209
0.032471
0.0323401
0.0322266
0.0321291
0.0320463
0.0319774
0.0319213
0.0318776
0.0318456
0.0318249
0.0318151
0.0318161
0.0318277
0.0318499
0.0318826
0.0319261
0.0319806
0.0320465
0.0321243
0.0322147
0.0323185
0.0324367
0.0325707
0.0327221
0.0328927
0.0330842
0.0332978
0.0335325
0.0337832
0.0340391
0.0605169
0.0550784
0.0480035
0.0433821
0.0413737
0.0401414
0.0388449
0.0376416
0.0367167
0.0360165
0.0354366
0.0349309
0.0344907
0.0341102
0.03378
0.0334912
0.0332375
0.0330142
0.0328176
0.0326448
0.0324932
0.0323609
0.0322459
0.032147
0.032063
0.0319927
0.0319355
0.0318906
0.0318574
0.0318356
0.0318247
0.0318246
0.031835
0.031856
0.0318875
0.0319297
0.0319829
0.0320473
0.0321235
0.032212
0.0323137
0.0324296
0.0325608
0.0327086
0.0328746
0.0330601
0.0332655
0.0334893
0.0337261
0.0339654
0.0593026
0.0545156
0.0480244
0.0435093
0.0414122
0.0401693
0.0389082
0.0377149
0.036778
0.0360676
0.0354836
0.0349754
0.0345318
0.0341478
0.0338146
0.0335233
0.0332673
0.0330418
0.0328434
0.0326688
0.0325156
0.0323816
0.0322653
0.032165
0.0320796
0.0320081
0.0319496
0.0319035
0.0318691
0.0318461
0.0318341
0.0318328
0.031842
0.0318617
0.031892
0.0319328
0.0319845
0.0320474
0.0321218
0.0322085
0.032308
0.0324213
0.0325494
0.0326934
0.0328546
0.0330337
0.0332308
0.0334438
0.0336669
0.0338906
0.0581497
0.0539371
0.0480024
0.0436206
0.0414494
0.0401905
0.0389634
0.0377846
0.0368384
0.0361177
0.0355296
0.0350191
0.0345726
0.0341853
0.0338491
0.0335553
0.0332971
0.0330696
0.0328692
0.0326928
0.0325379
0.0324025
0.0322846
0.0321829
0.0320962
0.0320234
0.0319636
0.0319163
0.0318807
0.0318565
0.0318433
0.0318407
0.0318487
0.0318671
0.031896
0.0319354
0.0319856
0.0320468
0.0321194
0.032204
0.0323012
0.0324117
0.0325365
0.0326765
0.0328325
0.0330052
0.0331937
0.0333959
0.0336059
0.0338147
0.0570552
0.0533479
0.0479391
0.0437139
0.041485
0.0402057
0.0390104
0.0378501
0.0368976
0.036167
0.0355746
0.0350621
0.034613
0.0342226
0.0338835
0.0335872
0.0333268
0.0330973
0.032895
0.0327168
0.0325603
0.0324233
0.0323039
0.0322008
0.0321127
0.0320386
0.0319776
0.031929
0.0318921
0.0318667
0.0318522
0.0318483
0.031855
0.0318721
0.0318995
0.0319374
0.031986
0.0320454
0.0321161
0.0321985
0.0322932
0.0324008
0.0325221
0.0326578
0.0328085
0.0329743
0.0331543
0.0333457
0.033543
0.0337377
0.0560159
0.052752
0.0478366
0.0437872
0.0415184
0.0402155
0.039049
0.0379105
0.0369552
0.0362153
0.0356183
0.0351041
0.0346528
0.0342595
0.0339177
0.033619
0.0333564
0.0331249
0.0329207
0.0327408
0.0325827
0.0324441
0.0323232
0.0322187
0.0321292
0.0320537
0.0319914
0.0319415
0.0319034
0.0318766
0.0318608
0.0318556
0.0318609
0.0318766
0.0319025
0.0319389
0.0319857
0.0320433
0.0321119
0.032192
0.032284
0.0323884
0.032506
0.0326372
0.0327824
0.0329413
0.0331126
0.0332934
0.0334783
0.0336596
0.0550287
0.0521534
0.0476975
0.0438391
0.0415484
0.0402206
0.0390794
0.0379654
0.0370107
0.0362625
0.0356608
0.0351451
0.034692
0.0342961
0.0339516
0.0336506
0.0333859
0.0331524
0.0329464
0.0327648
0.0326049
0.0324648
0.0323424
0.0322364
0.0321455
0.0320687
0.032005
0.0319538
0.0319143
0.0318862
0.031869
0.0318625
0.0318664
0.0318805
0.0319049
0.0319396
0.0319846
0.0320403
0.0321067
0.0321843
0.0322735
0.0323747
0.0324883
0.0326148
0.0327542
0.032906
0.0330685
0.0332389
0.0334118
0.0335803
0.0540908
0.0515553
0.0475247
0.0438683
0.041574
0.0402215
0.0391019
0.0380141
0.0370635
0.0363084
0.035702
0.0351847
0.0347303
0.0343321
0.0339851
0.0336818
0.0334151
0.0331798
0.0329719
0.0327886
0.0326271
0.0324853
0.0323615
0.0322541
0.0321617
0.0320835
0.0320184
0.0319658
0.031925
0.0318955
0.031877
0.031869
0.0318714
0.031884
0.0319067
0.0319396
0.0319828
0.0320363
0.0321004
0.0321754
0.0322616
0.0323593
0.0324689
0.0325905
0.0327239
0.0328684
0.0330222
0.0331823
0.0333437
0.0334998
0.053199
0.0509608
0.0473211
0.0438739
0.0415936
0.0402186
0.0391168
0.0380561
0.0371132
0.0363528
0.0357417
0.035223
0.0347676
0.0343675
0.0340181
0.0337127
0.033444
0.0332068
0.0329973
0.0328122
0.0326491
0.0325058
0.0323804
0.0322715
0.0321777
0.0320981
0.0320316
0.0319776
0.0319354
0.0319045
0.0318844
0.031875
0.0318758
0.0318868
0.0319078
0.0319389
0.0319801
0.0320314
0.0320931
0.0321653
0.0322484
0.0323425
0.0324477
0.0325642
0.0326915
0.0328287
0.0329738
0.0331237
0.0332738
0.0334182
0.0523505
0.0503721
0.0470902
0.0438555
0.0416059
0.040212
0.0391245
0.0380912
0.037159
0.0363954
0.0357799
0.0352597
0.0348037
0.0344021
0.0340506
0.033743
0.0334725
0.0332336
0.0330223
0.0328356
0.0326708
0.032526
0.0323991
0.0322887
0.0321935
0.0321124
0.0320445
0.031989
0.0319454
0.031913
0.0318915
0.0318805
0.0318797
0.031889
0.0319082
0.0319374
0.0319764
0.0320254
0.0320846
0.0321539
0.0322337
0.0323239
0.0324248
0.032536
0.032657
0.0327867
0.0329231
0.0330632
0.0332024
0.0333354
0.0515425
0.0497915
0.0468352
0.043813
0.0416092
0.0402017
0.0391256
0.038119
0.0372005
0.0364359
0.0358164
0.0352949
0.0348384
0.0344357
0.0340824
0.0337729
0.0335006
0.03326
0.033047
0.0328586
0.0326923
0.0325459
0.0324175
0.0323056
0.0322089
0.0321264
0.032057
0.0320001
0.031955
0.0319211
0.031898
0.0318854
0.0318829
0.0318905
0.0319078
0.0319349
0.0319718
0.0320184
0.0320748
0.0321411
0.0322174
0.0323037
0.0323999
0.0325057
0.0326203
0.0327426
0.0328704
0.0330007
0.0331293
0.0332514
0.0507723
0.0492203
0.0465594
0.0437468
0.0416022
0.0401875
0.0391204
0.0381396
0.0372372
0.0364738
0.0358512
0.0353283
0.0348717
0.0344682
0.0341134
0.0338021
0.033528
0.0332858
0.0330713
0.0328813
0.0327135
0.0325655
0.0324356
0.0323222
0.032224
0.03214
0.0320692
0.0320107
0.0319641
0.0319287
0.031904
0.0318897
0.0318855
0.0318912
0.0319066
0.0319316
0.0319661
0.0320102
0.0320638
0.0321269
0.0321996
0.0322818
0.0323732
0.0324734
0.0325816
0.0326963
0.0328155
0.0329363
0.0330547
0.0331662
0.0500376
0.04866
0.046266
0.0436576
0.0415835
0.040169
0.0391095
0.038153
0.0372685
0.0365089
0.035884
0.0353598
0.0349033
0.0344995
0.0341434
0.0338305
0.0335549
0.0333111
0.0330951
0.0329036
0.0327342
0.0325847
0.0324533
0.0323384
0.0322388
0.0321532
0.0320809
0.0320209
0.0319727
0.0319357
0.0319093
0.0318933
0.0318873
0.0318911
0.0319044
0.0319272
0.0319593
0.0320007
0.0320514
0.0321112
0.0321802
0.0322581
0.0323446
0.0324391
0.0325407
0.0326479
0.0327586
0.0328701
0.0329785
0.0330799
0.049336
0.0481114
0.0459579
0.0435464
0.0415522
0.0401454
0.0390931
0.0381592
0.037294
0.0365405
0.0359145
0.0353894
0.0349331
0.0345293
0.0341723
0.033858
0.0335809
0.0333357
0.0331183
0.0329253
0.0327544
0.0326034
0.0324705
0.0323542
0.032253
0.0321659
0.0320921
0.0320305
0.0319807
0.031942
0.031914
0.0318962
0.0318883
0.0318901
0.0319013
0.0319217
0.0319513
0.03199
0.0320376
0.032094
0.0321591
0.0322325
0.0323139
0.0324027
0.0324976
0.0325974
0.0326997
0.032802
0.0329008
0.0329924
0.0486653
0.0475752
0.0456381
0.0434145
0.0415073
0.0401162
0.0390714
0.0381585
0.0373135
0.0365683
0.0359427
0.0354168
0.0349609
0.0345575
0.0342
0.0338845
0.0336061
0.0333596
0.0331408
0.0329464
0.0327741
0.0326216
0.0324873
0.0323694
0.0322667
0.0321781
0.0321027
0.0320396
0.0319881
0.0319477
0.0319179
0.0318983
0.0318884
0.0318881
0.0318971
0.0319152
0.0319422
0.0319779
0.0320223
0.0320752
0.0321362
0.0322051
0.0322814
0.0323642
0.0324525
0.0325448
0.0326389
0.0327322
0.0328217
0.0329038
0.0480234
0.0470518
0.045309
0.0432633
0.0414484
0.0400805
0.0390446
0.0381511
0.0373267
0.0365919
0.0359681
0.035442
0.0349867
0.034584
0.0342263
0.0339099
0.0336303
0.0333826
0.0331625
0.0329668
0.0327931
0.0326392
0.0325034
0.032384
0.0322798
0.0321897
0.0321127
0.032048
0.0319948
0.0319527
0.0319211
0.0318995
0.0318876
0.0318852
0.0318918
0.0319074
0.0319317
0.0319644
0.0320055
0.0320547
0.0321116
0.0321758
0.0322468
0.0323237
0.0324053
0.0324901
0.0325761
0.0326607
0.0327411
0.0328141
0.0474085
0.0465414
0.0449729
0.0430945
0.0413753
0.0400376
0.0390125
0.0381372
0.0373334
0.0366108
0.0359905
0.0354648
0.0350103
0.0346084
0.034251
0.0339341
0.0336535
0.0334046
0.0331834
0.0329864
0.0328114
0.0326561
0.0325188
0.032398
0.0322923
0.0322006
0.032122
0.0320556
0.0320008
0.0319568
0.0319233
0.0318998
0.0318858
0.0318811
0.0318854
0.0318984
0.0319198
0.0319495
0.0319871
0.0320324
0.0320851
0.0321445
0.0322102
0.032281
0.032356
0.0324334
0.0325114
0.0325876
0.0326591
0.0327233
0.0468188
0.046044
0.0446318
0.0429098
0.0412878
0.0399868
0.0389751
0.0381172
0.0373337
0.0366247
0.0360094
0.035485
0.0350315
0.0346308
0.034274
0.0339567
0.0336753
0.0334255
0.0332032
0.0330051
0.0328288
0.0326722
0.0325335
0.0324112
0.032304
0.0322108
0.0321305
0.0320624
0.0320058
0.0319601
0.0319247
0.0318991
0.031883
0.031876
0.0318777
0.031888
0.0319065
0.031933
0.0319671
0.0320085
0.0320567
0.0321113
0.0321715
0.0322364
0.0323046
0.0323748
0.0324449
0.0325128
0.0325758
0.0326314
0.0462528
0.0455597
0.0442875
0.0427109
0.0411863
0.0399273
0.038932
0.0380911
0.0373275
0.0366332
0.0360246
0.0355023
0.0350502
0.034651
0.034295
0.0339778
0.0336959
0.0334452
0.033222
0.0330228
0.0328453
0.0326874
0.0325473
0.0324236
0.0323149
0.0322201
0.0321382
0.0320684
0.03201
0.0319624
0.031925
0.0318973
0.031879
0.0318696
0.0318688
0.0318762
0.0318917
0.0319149
0.0319453
0.0319827
0.0320265
0.0320761
0.0321308
0.0321896
0.0322512
0.0323142
0.0323766
0.0324364
0.0324912
0.0325386
0.0457089
0.0450882
0.0439415
0.0424995
0.0410712
0.0398588
0.038883
0.038059
0.0373149
0.0366362
0.0360357
0.0355166
0.0350662
0.0346687
0.0343139
0.0339971
0.0337149
0.0334636
0.0332395
0.0330394
0.0328608
0.0327016
0.0325602
0.032435
0.0323248
0.0322284
0.0321449
0.0320734
0.0320132
0.0319636
0.0319242
0.0318944
0.0318737
0.0318618
0.0318584
0.031863
0.0318754
0.0318951
0.0319218
0.031955
0.0319943
0.0320389
0.0320881
0.0321408
0.0321958
0.0322516
0.0323065
0.0323585
0.0324053
0.0324447
0.0451857
0.0446292
0.0435951
0.0422774
0.040943
0.0397808
0.0388278
0.0380211
0.037296
0.0366334
0.0360424
0.0355275
0.0350794
0.0346838
0.0343306
0.0340145
0.0337322
0.0334805
0.0332557
0.0330547
0.032875
0.0327147
0.032572
0.0324455
0.0323338
0.0322358
0.0321506
0.0320773
0.0320153
0.0319638
0.0319222
0.0318902
0.0318672
0.0318528
0.0318466
0.0318482
0.0318574
0.0318736
0.0318964
0.0319255
0.0319601
0.0319996
0.0320432
0.0320899
0.0321384
0.0321872
0.0322347
0.0322791
0.0323182
0.03235
0.044682
0.0441826
0.0432494
0.042046
0.0408027
0.0396931
0.0387659
0.0379773
0.0372708
0.0366247
0.0360443
0.0355347
0.0350895
0.0346962
0.0343448
0.0340297
0.0337477
0.0334957
0.0332704
0.0330686
0.032888
0.0327266
0.0325827
0.0324548
0.0323416
0.032242
0.0321552
0.0320801
0.0320162
0.0319627
0.031919
0.0318847
0.0318592
0.0318422
0.0318332
0.0318318
0.0318377
0.0318503
0.0318692
0.031894
0.0319239
0.0319583
0.0319963
0.032037
0.032079
0.0321209
0.0321613
0.0321982
0.0322299
0.0322544
0.0441965
0.043748
0.0429053
0.0418069
0.0406509
0.0395957
0.0386971
0.0379276
0.0372396
0.0366101
0.0360413
0.0355381
0.0350965
0.0347057
0.0343564
0.0340427
0.0337612
0.0335092
0.0332834
0.0330811
0.0328996
0.0327372
0.0325921
0.0324628
0.0323482
0.0322471
0.0321585
0.0320817
0.0320158
0.0319603
0.0319144
0.0318778
0.0318499
0.0318302
0.0318183
0.0318138
0.0318162
0.0318251
0.0318401
0.0318605
0.0318857
0.0319149
0.0319474
0.031982
0.0320176
0.0320528
0.0320862
0.032116
0.0321405
0.032158
0.0437283
0.0433249
0.0425636
0.0415613
0.0404886
0.0394887
0.0386212
0.0378719
0.0372022
0.0365896
0.0360331
0.0355374
0.0350999
0.0347122
0.0343652
0.0340532
0.0337726
0.0335207
0.0332947
0.0330919
0.0329097
0.0327463
0.0326001
0.0324695
0.0323535
0.0322508
0.0321606
0.0320819
0.0320141
0.0319565
0.0319084
0.0318694
0.0318389
0.0318165
0.0318016
0.0317939
0.0317929
0.0317981
0.031809
0.0318249
0.0318454
0.0318695
0.0318964
0.031925
0.0319544
0.031983
0.0320095
0.0320324
0.03205
0.0320607
0.0432762
0.0429132
0.0422249
0.0413105
0.0403169
0.0393722
0.0385378
0.0378101
0.0371588
0.036563
0.0360196
0.0355322
0.0350998
0.0347154
0.0343711
0.034061
0.0337815
0.0335301
0.0333041
0.0331009
0.0329181
0.0327539
0.0326065
0.0324748
0.0323573
0.0322531
0.0321612
0.0320807
0.032011
0.0319512
0.0319009
0.0318594
0.0318263
0.0318011
0.0317832
0.0317722
0.0317677
0.0317691
0.0317758
0.0317874
0.031803
0.0318219
0.0318433
0.0318661
0.0318892
0.0319114
0.0319313
0.0319475
0.0319585
0.0319628
0.0428393
0.0425123
0.0418897
0.0410557
0.0401365
0.0392467
0.038447
0.037742
0.0371095
0.0365304
0.0360005
0.0355223
0.0350957
0.0347153
0.0343739
0.034066
0.033788
0.0335373
0.0333114
0.033108
0.0329247
0.0327597
0.0326114
0.0324784
0.0323596
0.0322539
0.0321603
0.032078
0.0320062
0.0319444
0.0318917
0.0318478
0.031812
0.0317839
0.031763
0.0317487
0.0317405
0.0317381
0.0317406
0.0317477
0.0317585
0.0317723
0.0317881
0.0318052
0.0318222
0.0318381
0.0318516
0.0318614
0.031866
0.0318642
0.0424168
0.042122
0.0415584
0.0407978
0.0399485
0.0391126
0.0383486
0.0376676
0.0370541
0.0364919
0.0359759
0.0355077
0.0350875
0.0347115
0.0343735
0.0340681
0.0337918
0.033542
0.0333165
0.033113
0.0329293
0.0327637
0.0326145
0.0324804
0.0323602
0.032253
0.0321577
0.0320736
0.0319999
0.0319358
0.0318809
0.0318344
0.0317959
0.0317649
0.0317408
0.0317231
0.0317114
0.031705
0.0317034
0.0317059
0.0317119
0.0317205
0.031731
0.0317423
0.0317534
0.0317632
0.0317705
0.0317741
0.0317726
0.0317649
0.0420078
0.0417418
0.0412314
0.0405376
0.0397539
0.0389703
0.0382428
0.0375868
0.0369927
0.0364475
0.0359457
0.035488
0.035075
0.0347039
0.0343696
0.034067
0.0337927
0.0335441
0.0333192
0.0331158
0.0329319
0.0327657
0.0326156
0.0324805
0.032359
0.0322503
0.0321534
0.0320674
0.0319917
0.0319255
0.0318681
0.0318191
0.0317779
0.0317439
0.0317166
0.0316955
0.0316801
0.0316698
0.0316639
0.0316619
0.0316631
0.0316666
0.0316717
0.0316774
0.0316828
0.0316867
0.031688
0.0316856
0.0316783
0.031665
0.0416116
0.0413713
0.0409088
0.040276
0.0395533
0.0388204
0.0381296
0.0374995
0.0369254
0.0363972
0.0359097
0.0354631
0.035058
0.0346924
0.0343621
0.0340626
0.0337905
0.0335435
0.0333193
0.0331162
0.0329322
0.0327655
0.0326147
0.0324786
0.0323559
0.0322458
0.0321472
0.0320594
0.0319816
0.0319132
0.0318535
0.0318019
0.0317579
0.0317209
0.0316904
0.0316658
0.0316467
0.0316324
0.0316223
0.0316158
0.0316122
0.0316107
0.0316105
0.0316107
0.0316104
0.0316085
0.0316041
0.0315959
0.0315831
0.0315646
0.0412275
0.0410102
0.0405908
0.0400136
0.0393478
0.0386635
0.0380094
0.0374057
0.036852
0.036341
0.0358681
0.035433
0.0350363
0.0346767
0.0343508
0.0340547
0.0337852
0.0335398
0.0333167
0.0331141
0.0329301
0.032763
0.0326116
0.0324745
0.0323507
0.0322392
0.032139
0.0320494
0.0319696
0.0318989
0.0318368
0.0317826
0.0317358
0.0316958
0.031662
0.0316339
0.0316111
0.0315928
0.0315784
0.0315674
0.0315591
0.0315526
0.0315472
0.0315421
0.0315363
0.0315288
0.0315188
0.0315052
0.0314871
0.0314635
0.0408547
0.0406582
0.0402777
0.039751
0.039138
0.0385002
0.0378823
0.0373055
0.0367726
0.0362789
0.0358208
0.0353975
0.0350098
0.0346567
0.0343356
0.0340432
0.0337765
0.0335331
0.0333112
0.0331092
0.0329254
0.0327582
0.0326062
0.0324683
0.0323433
0.0322304
0.0321286
0.0320372
0.0319554
0.0318826
0.031818
0.0317612
0.0317115
0.0316684
0.0316314
0.0315998
0.0315732
0.0315509
0.0315323
0.0315169
0.0315038
0.0314924
0.0314819
0.0314716
0.0314604
0.0314476
0.0314322
0.0314134
0.0313903
0.031362
0.0404928
0.0403148
0.0399694
0.0394888
0.0389247
0.038331
0.0377486
0.0371989
0.0366872
0.0362111
0.0357677
0.0353566
0.0349782
0.0346321
0.0343163
0.0340279
0.0337642
0.033523
0.0333027
0.0331015
0.032918
0.0327507
0.0325983
0.0324596
0.0323336
0.0322193
0.032116
0.0320228
0.031939
0.0318639
0.031797
0.0317375
0.031685
0.0316388
0.0315984
0.0315633
0.031533
0.0315067
0.0314839
0.031464
0.0314463
0.0314301
0.0314147
0.0313992
0.0313829
0.0313649
0.0313444
0.0313206
0.0312927
0.0312599
0.040141
0.0399798
0.039666
0.0392274
0.0387085
0.0381566
0.0376089
0.0370863
0.0365959
0.0361374
0.035709
0.0353102
0.0349416
0.034603
0.0342928