/*--------------------------------*- C++ -*----------------------------------*\
  =========                 |
  \\      /  F ield         | OpenFOAM: The Open Source CFD Toolbox
   \\    /   O peration     | Website:  https://openfoam.org
    \\  /    A nd           | Version:  7
     \\/     M anipulation  |
\*---------------------------------------------------------------------------*/
FoamFile
{
    version     2.0;
    format      ascii;
    class       surfaceScalarField;
    location    "0.04";
    object      phi;
}
// * * * * * * * * * * * * * * * * * * * * * * * * * * * * * * * * * * * * * //

dimensions      [0 3 -1 0 0 0 0];

internalField   nonuniform List<scalar> 
139350
(
6.45118e-08
9.21197e-08
3.19639e-08
3.25479e-08
2.30579e-08
8.906e-09
1.95722e-08
3.48571e-09
1.76191e-08
1.95306e-09
1.61876e-08
1.43156e-09
1.50531e-08
1.13449e-09
1.4139e-08
9.14088e-10
1.33866e-08
7.52369e-10
1.27526e-08
6.33989e-10
1.22082e-08
5.44412e-10
1.1734e-08
4.74176e-10
1.13164e-08
4.17682e-10
1.0945e-08
3.71409e-10
1.0612e-08
3.32952e-10
1.03114e-08
3.00592e-10
1.00383e-08
2.73068e-10
9.78891e-09
2.49434e-10
9.55994e-09
2.28972e-10
9.34881e-09
2.11126e-10
9.15335e-09
1.95461e-10
8.97173e-09
1.81628e-10
8.80238e-09
1.69349e-10
8.64398e-09
1.58396e-10
8.4954e-09
1.48582e-10
8.35565e-09
1.39754e-10
8.22387e-09
1.31779e-10
8.09931e-09
1.24554e-10
7.98133e-09
1.1798e-10
7.86934e-09
1.1199e-10
7.76284e-09
1.06499e-10
7.66137e-09
1.01478e-10
7.56453e-09
9.68326e-11
7.47194e-09
9.25893e-11
7.38334e-09
8.86019e-11
7.29834e-09
8.50003e-11
7.21682e-09
8.15181e-11
7.13837e-09
7.84575e-11
7.06299e-09
7.53717e-11
6.99026e-09
7.27342e-11
6.92019e-09
7.0068e-11
6.85267e-09
6.75179e-11
6.78688e-09
6.57916e-11
6.72481e-09
6.20697e-11
6.66121e-09
6.36061e-11
6.60737e-09
5.38417e-11
6.53808e-09
6.92852e-11
6.51694e-09
2.11357e-11
6.28909e-09
2.27859e-10
-2.86785e-09
9.15694e-09
1.25943e-07
1.27621e-07
9.12885e-08
6.72021e-08
7.19346e-08
2.82599e-08
6.12177e-08
1.42027e-08
5.47794e-08
8.39139e-09
5.02819e-08
5.92901e-09
4.67944e-08
4.62203e-09
4.39776e-08
3.73089e-09
4.16508e-08
3.07916e-09
3.96885e-08
2.59625e-09
3.80036e-08
2.22934e-09
3.6536e-08
1.94182e-09
3.52429e-08
1.71072e-09
3.40929e-08
1.52146e-09
3.30617e-08
1.36413e-09
3.21306e-08
1.23171e-09
3.12846e-08
1.11904e-09
3.05118e-08
1.02227e-09
2.98023e-08
9.38458e-10
2.91481e-08
8.65341e-10
2.85424e-08
8.01136e-10
2.79796e-08
7.44423e-10
2.74549e-08
6.94062e-10
2.69642e-08
6.49122e-10
2.65039e-08
6.0884e-10
2.60711e-08
5.72584e-10
2.5663e-08
5.39823e-10
2.52775e-08
5.10117e-10
2.49124e-08
4.83082e-10
2.4566e-08
4.58413e-10
2.42366e-08
4.35804e-10
2.39231e-08
4.15071e-10
2.3624e-08
3.95912e-10
2.33383e-08
3.78307e-10
2.3065e-08
3.61828e-10
2.28033e-08
3.46768e-10
2.25525e-08
3.32309e-10
2.23115e-08
3.19405e-10
2.20805e-08
3.06348e-10
2.18579e-08
2.95372e-10
2.16449e-08
2.8312e-10
2.14385e-08
2.73834e-10
2.12422e-08
2.62091e-10
2.10509e-08
2.53369e-10
2.08707e-08
2.43861e-10
2.06959e-08
2.28631e-10
2.05249e-08
2.40317e-10
2.04106e-08
1.35405e-10
2.01171e-08
5.21329e-10
-3.37442e-09
2.06237e-08
1.58752e-07
1.35272e-07
1.36526e-07
8.94282e-08
1.17492e-07
4.72942e-08
1.03313e-07
2.83809e-08
9.33182e-08
1.83865e-08
8.60168e-08
1.32305e-08
8.03079e-08
1.03309e-08
7.56553e-08
8.38349e-09
7.17765e-08
6.95796e-09
6.84838e-08
5.88893e-09
6.56438e-08
5.06935e-09
6.31617e-08
4.42395e-09
6.09688e-08
3.90359e-09
5.9014e-08
3.47628e-09
5.72579e-08
3.12025e-09
5.56696e-08
2.81998e-09
5.42246e-08
2.56404e-09
5.2903e-08
2.34388e-09
5.16885e-08
2.15295e-09
5.05677e-08
1.98618e-09
4.95292e-08
1.83958e-09
4.85637e-08
1.70997e-09
4.7663e-08
1.59476e-09
4.68202e-08
1.49188e-09
4.60295e-08
1.39959e-09
4.52856e-08
1.31646e-09
4.45841e-08
1.2413e-09
4.39211e-08
1.1731e-09
4.32932e-08
1.111e-09
4.26973e-08
1.05429e-09
4.21308e-08
1.00231e-09
4.15913e-08
9.54569e-10
4.10768e-08
9.10475e-10
4.05852e-08
8.69846e-10
4.01152e-08
8.31885e-10
3.96649e-08
7.97008e-10
3.92336e-08
7.63659e-10
3.88193e-08
7.33652e-10
3.84223e-08
7.03368e-10
3.80398e-08
6.7792e-10
3.76741e-08
6.48763e-10
3.73197e-08
6.28306e-10
3.69842e-08
5.97533e-10
3.66546e-08
5.82977e-10
3.63505e-08
5.4795e-10
3.6045e-08
5.34177e-10
3.577e-08
5.15251e-10
3.55291e-08
3.76359e-10
3.5265e-08
7.85448e-10
-2.90204e-09
3.47926e-08
1.75611e-07
1.31177e-07
1.65623e-07
9.94166e-08
1.52734e-07
6.01833e-08
1.40124e-07
4.09909e-08
1.29442e-07
2.90677e-08
1.20802e-07
2.18705e-08
1.13689e-07
1.74441e-08
1.07707e-07
1.43652e-08
1.02607e-07
1.20585e-08
9.82046e-08
1.02911e-08
9.43609e-08
8.913e-09
9.09701e-08
7.81475e-09
8.79523e-08
6.92148e-09
8.52457e-08
6.18284e-09
8.28021e-08
5.56387e-09
8.05828e-08
5.03928e-09
7.85565e-08
4.59032e-09
7.66976e-08
4.20275e-09
7.49849e-08
3.86563e-09
7.34007e-08
3.57038e-09
7.19301e-08
3.31023e-09
7.05603e-08
3.07973e-09
6.92806e-08
2.87449e-09
6.80816e-08
2.69089e-09
6.69552e-08
2.52594e-09
6.58945e-08
2.37718e-09
6.48933e-08
2.24251e-09
6.39462e-08
2.12017e-09
6.30486e-08
2.00867e-09
6.21961e-08
1.90674e-09
6.13852e-08
1.81324e-09
6.06125e-08
1.72728e-09
5.98751e-08
1.64787e-09
5.91704e-08
1.57456e-09
5.84961e-08
1.50614e-09
5.78501e-08
1.44306e-09
5.72308e-08
1.38292e-09
5.6636e-08
1.32847e-09
5.60655e-08
1.27382e-09
5.55159e-08
1.22754e-09
5.499e-08
1.17464e-09
5.44806e-08
1.13778e-09
5.39975e-08
1.08064e-09
5.35237e-08
1.05674e-09
5.30846e-08
9.87063e-10
5.26453e-08
9.73478e-10
5.22503e-08
9.1028e-10
5.18771e-08
7.49507e-10
5.15723e-08
1.09029e-09
-2.14551e-09
5.08157e-08
1.8451e-07
1.23453e-07
1.8234e-07
1.01587e-07
1.76119e-07
6.64038e-08
1.67761e-07
4.93491e-08
1.59141e-07
3.76879e-08
1.51234e-07
2.97769e-08
1.44161e-07
2.45175e-08
1.3786e-07
2.06659e-08
1.3226e-07
1.76593e-08
1.27274e-07
1.52763e-08
1.22819e-07
1.33685e-08
1.18817e-07
1.18171e-08
1.15203e-07
1.05354e-08
1.11924e-07
9.46208e-09
1.08934e-07
8.55331e-09
1.06197e-07
7.77643e-09
1.03681e-07
7.10664e-09
1.01359e-07
6.5248e-09
9.92083e-08
6.01594e-09
9.72105e-08
5.56818e-09
9.53487e-08
5.17201e-09
9.36087e-08
4.81972e-09
9.19782e-08
4.50501e-09
9.04464e-08
4.22265e-09
8.9004e-08
3.96833e-09
8.76428e-08
3.73842e-09
8.63554e-08
3.52985e-09
8.51356e-08
3.34002e-09
8.39775e-08
3.16672e-09
8.28762e-08
3.00803e-09
8.18272e-08
2.86228e-09
8.08264e-08
2.72808e-09
7.98703e-08
2.604e-09
7.89555e-08
2.48928e-09
7.80795e-08
2.3822e-09
7.72393e-08
2.28322e-09
7.64332e-08
2.18906e-09
7.56583e-08
2.10335e-09
7.49142e-08
2.01788e-09
7.41972e-08
1.94461e-09
7.35097e-08
1.86214e-09
7.28442e-08
1.80322e-09
7.22104e-08
1.71452e-09
7.15917e-08
1.6754e-09
7.10112e-08
1.56754e-09
7.04392e-08
1.54547e-09
6.99115e-08
1.43798e-09
6.94135e-08
1.24757e-09
6.89952e-08
1.50851e-09
-1.28947e-09
6.81392e-08
1.90342e-07
1.15327e-07
1.91858e-07
1.0007e-07
1.90261e-07
6.8001e-08
1.86155e-07
5.3455e-08
1.80716e-07
4.31275e-08
1.74963e-07
3.55294e-08
1.69265e-07
3.02151e-08
1.6378e-07
2.61512e-08
1.58604e-07
2.28352e-08
1.5378e-07
2.01007e-08
1.49309e-07
1.78388e-08
1.45177e-07
1.59499e-08
1.41357e-07
1.43548e-08
1.37825e-07
1.29946e-08
1.34553e-07
1.18252e-08
1.31517e-07
1.08125e-08
1.28694e-07
9.92967e-09
1.26063e-07
9.15545e-09
1.23606e-07
8.47272e-09
1.21307e-07
7.86761e-09
1.1915e-07
7.32881e-09
1.17123e-07
6.84698e-09
1.15213e-07
6.41437e-09
1.13412e-07
6.0245e-09
1.11708e-07
5.67193e-09
1.10094e-07
5.35203e-09
1.08563e-07
5.06089e-09
1.07108e-07
4.79511e-09
1.05723e-07
4.55183e-09
1.04403e-07
4.32851e-09
1.03142e-07
4.12295e-09
1.01937e-07
3.93329e-09
1.00783e-07
3.75765e-09
9.96775e-08
3.59493e-09
9.86168e-08
3.44293e-09
9.7598e-08
3.30206e-09
9.66188e-08
3.16822e-09
9.56764e-08
3.04573e-09
9.47699e-08
2.92438e-09
9.38956e-08
2.81892e-09
9.30552e-08
2.70258e-09
9.22422e-08
2.61618e-09
9.14636e-08
2.49308e-09
9.07074e-08
2.43165e-09
8.99884e-08
2.28655e-09
8.92906e-08
2.24325e-09
8.86288e-08
2.09979e-09
8.80124e-08
1.86399e-09
8.74625e-08
2.05842e-09
-3.39323e-10
8.65123e-08
1.95504e-07
1.07638e-07
1.98246e-07
9.73282e-08
1.98984e-07
6.72632e-08
1.97789e-07
5.465e-08
1.95154e-07
4.57626e-08
1.91813e-07
3.88701e-08
1.8808e-07
3.39482e-08
1.84127e-07
3.01038e-08
1.80106e-07
2.68569e-08
1.76125e-07
2.40813e-08
1.72254e-07
2.17103e-08
1.6853e-07
1.96737e-08
1.64974e-07
1.79107e-08
1.61594e-07
1.63746e-08
1.5839e-07
1.50287e-08
1.55359e-07
1.38439e-08
1.52492e-07
1.27962e-08
1.49782e-07
1.18658e-08
1.47219e-07
1.10361e-08
1.44793e-07
1.02936e-08
1.42495e-07
9.62663e-09
1.40316e-07
9.02556e-09
1.38248e-07
8.48215e-09
1.36284e-07
7.98936e-09
1.34414e-07
7.54119e-09
1.32634e-07
7.13248e-09
1.30936e-07
6.75878e-09
1.29315e-07
6.4162e-09
1.27765e-07
6.10141e-09
1.26282e-07
5.81143e-09
1.24862e-07
5.54368e-09
1.23499e-07
5.2959e-09
1.22191e-07
5.06587e-09
1.20934e-07
4.85217e-09
1.19724e-07
4.65225e-09
1.1856e-07
4.46638e-09
1.17438e-07
4.28986e-09
1.16357e-07
4.12741e-09
1.15314e-07
3.96739e-09
1.14306e-07
3.82637e-09
1.13335e-07
3.67395e-09
1.12395e-07
3.55596e-09
1.1149e-07
3.39788e-09
1.10614e-07
3.30763e-09
1.09772e-07
3.1288e-09
1.08963e-07
3.05229e-09
1.08181e-07
2.8821e-09
1.07453e-07
2.5917e-09
1.06784e-07
2.7271e-09
7.02694e-10
1.05742e-07
2.00819e-07
1.00403e-07
2.03771e-07
9.43765e-08
2.05344e-07
6.56905e-08
2.05644e-07
5.43497e-08
2.04812e-07
4.6594e-08
2.03332e-07
4.03506e-08
2.01383e-07
3.58974e-08
1.9905e-07
3.24366e-08
1.96441e-07
2.94661e-08
1.93658e-07
2.68643e-08
1.90781e-07
2.45865e-08
1.87872e-07
2.25829e-08
1.84974e-07
2.08085e-08
1.8212e-07
1.92292e-08
1.7933e-07
1.78182e-08
1.7662e-07
1.65539e-08
1.73999e-07
1.54177e-08
1.71471e-07
1.43941e-08
1.69037e-07
1.34694e-08
1.66699e-07
1.2632e-08
1.64454e-07
1.18719e-08
1.62299e-07
1.11803e-08
1.60231e-07
1.05496e-08
1.58248e-07
9.97313e-09
1.56344e-07
9.44511e-09
1.54516e-07
8.96041e-09
1.5276e-07
8.51458e-09
1.51073e-07
8.10363e-09
1.4945e-07
7.72412e-09
1.47888e-07
7.3729e-09
1.46385e-07
7.04724e-09
1.44936e-07
6.74467e-09
1.43539e-07
6.4628e-09
1.42191e-07
6.20002e-09
1.4089e-07
5.95357e-09
1.39633e-07
5.72359e-09
1.38418e-07
5.50503e-09
1.37242e-07
5.30277e-09
1.36105e-07
5.10434e-09
1.35004e-07
4.92715e-09
1.33939e-07
4.73908e-09
1.32908e-07
4.58773e-09
1.31909e-07
4.39629e-09
1.30944e-07
4.27313e-09
1.30007e-07
4.06517e-09
1.29112e-07
3.94785e-09
1.28236e-07
3.75737e-09
1.27414e-07
3.41371e-09
1.26651e-07
3.49103e-09
1.81101e-09
1.25542e-07
2.06422e-07
9.35131e-08
2.0933e-07
9.14684e-08
2.11055e-07
6.39664e-08
2.11934e-07
5.34701e-08
2.11996e-07
4.65319e-08
2.1161e-07
4.07368e-08
2.10879e-07
3.66285e-08
2.09806e-07
3.35098e-08
2.08429e-07
3.08426e-08
2.06808e-07
2.84856e-08
2.04998e-07
2.6397e-08
2.03047e-07
2.45334e-08
2.00999e-07
2.28567e-08
1.98889e-07
2.13392e-08
1.96746e-07
1.99609e-08
1.94594e-07
1.87059e-08
1.92451e-07
1.75608e-08
1.90331e-07
1.65144e-08
1.88244e-07
1.55564e-08
1.86198e-07
1.46782e-08
1.84198e-07
1.38719e-08
1.82247e-07
1.31305e-08
1.80349e-07
1.24478e-08
1.78504e-07
1.18183e-08
1.76712e-07
1.12369e-08
1.74974e-07
1.06991e-08
1.73287e-07
1.02009e-08
1.71652e-07
9.73878e-09
1.70067e-07
9.30939e-09
1.6853e-07
8.90978e-09
1.6704e-07
8.53732e-09
1.65595e-07
8.18959e-09
1.64194e-07
7.86424e-09
1.62834e-07
7.55961e-09
1.61515e-07
7.27291e-09
1.60234e-07
7.00426e-09
1.58991e-07
6.74845e-09
1.57783e-07
6.51038e-09
1.5661e-07
6.27733e-09
1.5547e-07
6.06675e-09
1.54363e-07
5.84641e-09
1.53288e-07
5.66307e-09
1.52242e-07
5.44214e-09
1.5123e-07
5.28542e-09
1.50241e-07
5.05364e-09
1.49295e-07
4.89344e-09
1.48366e-07
4.68679e-09
1.47481e-07
4.29918e-09
1.46653e-07
4.31855e-09
2.94794e-09
1.45516e-07
2.12269e-07
8.69069e-08
2.15139e-07
8.85977e-08
2.16809e-07
6.22962e-08
2.17849e-07
5.24308e-08
2.18256e-07
4.61247e-08
2.18372e-07
4.0621e-08
2.18294e-07
3.6706e-08
2.17992e-07
3.38121e-08
2.17458e-07
3.1376e-08
2.16713e-07
2.92312e-08
2.15779e-07
2.73307e-08
2.14682e-07
2.56303e-08
2.13448e-07
2.40909e-08
2.12102e-07
2.26855e-08
2.10667e-07
2.13957e-08
2.09165e-07
2.02081e-08
2.07614e-07
1.9112e-08
2.06029e-07
1.80986e-08
2.04426e-07
1.71602e-08
2.02813e-07
1.62904e-08
2.01202e-07
1.54833e-08
1.99599e-07
1.47337e-08
1.9801e-07
1.40369e-08
1.96439e-07
1.33885e-08
1.94892e-07
1.27846e-08
1.93369e-07
1.22216e-08
1.91874e-07
1.16962e-08
1.90407e-07
1.12053e-08
1.88971e-07
1.07462e-08
1.87564e-07
1.03162e-08
1.86188e-07
9.91319e-09
1.84843e-07
9.53484e-09
1.83528e-07
9.17905e-09
1.82244e-07
8.8443e-09
1.80989e-07
8.52789e-09
1.79763e-07
8.23003e-09
1.78566e-07
7.94555e-09
1.77397e-07
7.67933e-09
1.76255e-07
7.4188e-09
1.75141e-07
7.18092e-09
1.74053e-07
6.93457e-09
1.72992e-07
6.72377e-09
1.71955e-07
6.47946e-09
1.70948e-07
6.29209e-09
1.69959e-07
6.04269e-09
1.6901e-07
5.84266e-09
1.68074e-07
5.62322e-09
1.67167e-07
5.20563e-09
1.66316e-07
5.16963e-09
4.06971e-09
1.65194e-07
2.18314e-07
8.05732e-08
2.21188e-07
8.57237e-08
2.22782e-07
6.07026e-08
2.2385e-07
5.13632e-08
2.24365e-07
4.56089e-08
2.24659e-07
4.03278e-08
2.24857e-07
3.65073e-08
2.24933e-07
3.37364e-08
2.24865e-07
3.14438e-08
2.24654e-07
2.94423e-08
2.24304e-07
2.76806e-08
2.23822e-07
2.61128e-08
2.23216e-07
2.4697e-08
2.22497e-07
2.34038e-08
2.21679e-07
2.22137e-08
2.20775e-07
2.11129e-08
2.19796e-07
2.00908e-08
2.18755e-07
1.91392e-08
2.17664e-07
1.82514e-08
2.16532e-07
1.7422e-08
2.1537e-07
1.66462e-08
2.14184e-07
1.59198e-08
2.12981e-07
1.52392e-08
2.11769e-07
1.4601e-08
2.10551e-07
1.40021e-08
2.09333e-07
1.34396e-08
2.08118e-07
1.29111e-08
2.0691e-07
1.24139e-08
2.0571e-07
1.19459e-08
2.04521e-07
1.1505e-08
2.03345e-07
1.10892e-08
2.02183e-07
1.06967e-08
2.01037e-07
1.03256e-08
1.99906e-07
9.97475e-09
1.98793e-07
9.64152e-09
1.97696e-07
9.32632e-09
1.96618e-07
9.02415e-09
1.95557e-07
8.73985e-09
1.94515e-07
8.46132e-09
1.93491e-07
8.20461e-09
1.92485e-07
7.94067e-09
1.91499e-07
7.70943e-09
1.90529e-07
7.44953e-09
1.89584e-07
7.23738e-09
1.88649e-07
6.97735e-09
1.87747e-07
6.74456e-09
1.86855e-07
6.51596e-09
1.85976e-07
6.08441e-09
1.85146e-07
5.99902e-09
5.13027e-09
1.84086e-07
2.24548e-07
7.45184e-08
2.27448e-07
8.28234e-08
2.28978e-07
5.91731e-08
2.30053e-07
5.02885e-08
2.30609e-07
4.50527e-08
2.3095e-07
3.99861e-08
2.31239e-07
3.62189e-08
2.31463e-07
3.35126e-08
2.31603e-07
3.13031e-08
2.31659e-07
2.93863e-08
2.3163e-07
2.77099e-08
2.31514e-07
2.62292e-08
2.3131e-07
2.49009e-08
2.3102e-07
2.36934e-08
2.30648e-07
2.25854e-08
2.302e-07
2.15617e-08
2.2968e-07
2.06108e-08
2.29095e-07
1.97242e-08
2.28451e-07
1.88947e-08
2.27756e-07
1.81168e-08
2.27017e-07
1.73861e-08
2.26238e-07
1.66987e-08
2.25426e-07
1.60512e-08
2.24586e-07
1.54408e-08
2.23723e-07
1.4865e-08
2.22841e-07
1.43211e-08
2.21945e-07
1.38072e-08
2.21038e-07
1.33212e-08
2.20123e-07
1.28612e-08
2.19202e-07
1.24255e-08
2.18279e-07
1.20125e-08
2.17355e-07
1.16206e-08
2.16432e-07
1.12483e-08
2.15512e-07
1.08946e-08
2.14597e-07
1.05571e-08
2.13687e-07
1.02364e-08
2.12783e-07
9.92776e-09
2.11887e-07
9.63591e-09
2.10999e-07
9.34944e-09
2.1012e-07
9.08321e-09
2.0925e-07
8.81083e-09
2.08392e-07
8.56734e-09
2.07542e-07
8.30032e-09
2.06708e-07
8.07096e-09
2.05878e-07
7.80748e-09
2.05071e-07
7.55147e-09
2.04269e-07
7.31778e-09
2.03465e-07
6.8881e-09
2.02702e-07
6.76236e-09
6.08675e-09
2.01746e-07
2.30974e-07
6.87504e-08
2.33909e-07
7.98881e-08
2.35382e-07
5.77006e-08
2.36465e-07
4.92056e-08
2.37054e-07
4.44636e-08
2.3741e-07
3.96294e-08
2.3772e-07
3.59089e-08
2.3799e-07
3.3243e-08
2.38206e-07
3.10869e-08
2.38371e-07
2.92211e-08
2.38487e-07
2.75937e-08
2.38553e-07
2.61639e-08
2.38565e-07
2.4889e-08
2.38522e-07
2.37366e-08
2.38423e-07
2.26842e-08
2.38268e-07
2.17159e-08
2.3806e-07
2.08194e-08
2.37799e-07
1.99852e-08
2.37488e-07
1.92056e-08
2.3713e-07
1.84747e-08
2.36729e-07
1.77876e-08
2.36287e-07
1.71404e-08
2.35808e-07
1.65297e-08
2.35297e-07
1.59526e-08
2.34755e-07
1.54066e-08
2.34187e-07
1.48894e-08
2.33595e-07
1.43991e-08
2.32982e-07
1.39337e-08
2.32352e-07
1.34917e-08
2.31706e-07
1.30713e-08
2.31047e-07
1.26713e-08
2.30377e-07
1.22904e-08
2.29699e-07
1.1927e-08
2.29013e-07
1.15804e-08
2.28322e-07
1.12485e-08
2.27626e-07
1.09318e-08
2.26928e-07
1.0626e-08
2.26228e-07
1.03355e-08
2.25528e-07
1.00499e-08
2.24829e-07
9.78244e-09
2.2413e-07
9.5099e-09
2.23435e-07
9.2619e-09
2.2274e-07
8.9955e-09
2.22054e-07
8.75676e-09
2.21365e-07
8.49621e-09
2.20689e-07
8.22722e-09
2.20015e-07
7.99256e-09
2.19324e-07
7.57851e-09
2.18663e-07
7.42324e-09
6.90569e-09
2.17844e-07
2.376e-07
6.32749e-08
2.40575e-07
7.69137e-08
2.4199e-07
5.62853e-08
2.4308e-07
4.81154e-08
2.43706e-07
4.3838e-08
2.44075e-07
3.92599e-08
2.44391e-07
3.55935e-08
2.44673e-07
3.29608e-08
2.44912e-07
3.0848e-08
2.45113e-07
2.90194e-08
2.45284e-07
2.74233e-08
2.45424e-07
2.60236e-08
2.45533e-07
2.47799e-08
2.4561e-07
2.36601e-08
2.45652e-07
2.26416e-08
2.4566e-07
2.17081e-08
2.45633e-07
2.08471e-08
2.45569e-07
2.00486e-08
2.4547e-07
1.93045e-08
2.45336e-07
1.86086e-08
2.45168e-07
1.79556e-08
2.44968e-07
1.73411e-08
2.44735e-07
1.67617e-08
2.44474e-07
1.62144e-08
2.44184e-07
1.56964e-08
2.43868e-07
1.52055e-08
2.43527e-07
1.47396e-08
2.43164e-07
1.42969e-08
2.4278e-07
1.38756e-08
2.42377e-07
1.34743e-08
2.41957e-07
1.30916e-08
2.41521e-07
1.27262e-08
2.41071e-07
1.23769e-08
2.40609e-07
1.20429e-08
2.40135e-07
1.17221e-08
2.39652e-07
1.14153e-08
2.3916e-07
1.11181e-08
2.3866e-07
1.0835e-08
2.38154e-07
1.05562e-08
2.37643e-07
1.02934e-08
2.37126e-07
1.00268e-08
2.36608e-07
9.78027e-09
2.36083e-07
9.52026e-09
2.35561e-07
9.27885e-09
2.35031e-07
9.02591e-09
2.34505e-07
8.75322e-09
2.33976e-07
8.52112e-09
2.33422e-07
8.133e-09
2.32886e-07
7.95926e-09
7.56838e-09
2.32223e-07
2.44435e-07
5.80957e-08
2.47448e-07
7.39008e-08
2.48808e-07
5.49253e-08
2.49901e-07
4.70225e-08
2.50565e-07
4.3174e-08
2.50951e-07
3.8874e-08
2.51271e-07
3.52736e-08
2.51559e-07
3.26732e-08
2.51805e-07
3.06015e-08
2.52017e-07
2.8807e-08
2.52205e-07
2.72359e-08
2.52371e-07
2.58576e-08
2.52516e-07
2.46343e-08
2.52642e-07
2.35347e-08
2.52747e-07
2.25367e-08
2.52831e-07
2.16242e-08
2.52893e-07
2.07847e-08
2.52933e-07
2.00083e-08
2.52951e-07
1.92869e-08
2.52946e-07
1.86138e-08
2.52918e-07
1.79837e-08
2.52867e-07
1.73921e-08
2.52793e-07
1.68353e-08
2.52697e-07
1.63102e-08
2.5258e-07
1.58139e-08
2.52441e-07
1.5344e-08
2.52283e-07
1.48984e-08
2.52104e-07
1.44751e-08
2.51908e-07
1.40724e-08
2.51693e-07
1.36887e-08
2.51462e-07
1.33226e-08
2.51215e-07
1.29729e-08
2.50954e-07
1.26382e-08
2.50679e-07
1.23178e-08
2.50392e-07
1.20097e-08
2.50092e-07
1.17147e-08
2.49782e-07
1.14285e-08
2.49461e-07
1.11552e-08
2.49132e-07
1.08861e-08
2.48794e-07
1.06311e-08
2.48447e-07
1.03735e-08
2.48095e-07
1.01321e-08
2.47734e-07
9.8817e-09
2.4737e-07
9.64234e-09
2.46997e-07
9.39949e-09
2.4662e-07
9.13025e-09
2.46238e-07
8.90315e-09
2.45824e-07
8.54712e-09
2.45418e-07
8.3648e-09
8.07313e-09
2.44913e-07
2.51488e-07
5.32148e-08
2.54529e-07
7.08597e-08
2.55844e-07
5.36098e-08
2.56934e-07
4.59324e-08
2.57636e-07
4.24724e-08
2.58041e-07
3.84688e-08
2.58367e-07
3.4948e-08
2.5866e-07
3.23803e-08
2.58911e-07
3.035e-08
2.59128e-07
2.85902e-08
2.59321e-07
2.70433e-08
2.59494e-07
2.56837e-08
2.59652e-07
2.4477e-08
2.59794e-07
2.33925e-08
2.59922e-07
2.24086e-08
2.60036e-07
2.15098e-08
2.60137e-07
2.0684e-08
2.60224e-07
1.99213e-08
2.60297e-07
1.92138e-08
2.60356e-07
1.85548e-08
2.60401e-07
1.7939e-08
2.60431e-07
1.73619e-08
2.60447e-07
1.68198e-08
2.60447e-07
1.63093e-08
2.60433e-07
1.58278e-08
2.60405e-07
1.53725e-08
2.60362e-07
1.49415e-08
2.60305e-07
1.45325e-08
2.60233e-07
1.41438e-08
2.60148e-07
1.37738e-08
2.6005e-07
1.3421e-08
2.59938e-07
1.30841e-08
2.59815e-07
1.27617e-08
2.5968e-07
1.24532e-08
2.59533e-07
1.21565e-08
2.59375e-07
1.18722e-08
2.59207e-07
1.15966e-08
2.5903e-07
1.13328e-08
2.58842e-07
1.10735e-08
2.58647e-07
1.08267e-08
2.58441e-07
1.05789e-08
2.5823e-07
1.03438e-08
2.58007e-07
1.01038e-08
2.57781e-07
9.86904e-09
2.57544e-07
9.63667e-09
2.57298e-07
9.37546e-09
2.57047e-07
9.15459e-09
2.56761e-07
8.83283e-09
2.56476e-07
8.64972e-09
8.43378e-09
2.56116e-07
2.58765e-07
4.86324e-08
2.61824e-07
6.78008e-08
2.63106e-07
5.23277e-08
2.64189e-07
4.48499e-08
2.64926e-07
4.17355e-08
2.65352e-07
3.80425e-08
2.65684e-07
3.46158e-08
2.65983e-07
3.20818e-08
2.6624e-07
3.00931e-08
2.6646e-07
2.83697e-08
2.66656e-07
2.68479e-08
2.66832e-07
2.5507e-08
2.66994e-07
2.43159e-08
2.67141e-07
2.3245e-08
2.67277e-07
2.22731e-08
2.67401e-07
2.13852e-08
2.67516e-07
2.05694e-08
2.67621e-07
1.98163e-08
2.67716e-07
1.91181e-08
2.67803e-07
1.84683e-08
2.6788e-07
1.78616e-08
2.67949e-07
1.72936e-08
2.68008e-07
1.67606e-08
2.68058e-07
1.62593e-08
2.68099e-07
1.5787e-08
2.6813e-07
1.53412e-08
2.68152e-07
1.49196e-08
2.68164e-07
1.45201e-08
2.68167e-07
1.41409e-08
2.68161e-07
1.37803e-08
2.68145e-07
1.34368e-08
2.6812e-07
1.31091e-08
2.68086e-07
1.27957e-08
2.68043e-07
1.2496e-08
2.67991e-07
1.2208e-08
2.67932e-07
1.19321e-08
2.67863e-07
1.16649e-08
2.67787e-07
1.1409e-08
2.67703e-07
1.1158e-08
2.67611e-07
1.09181e-08
2.67511e-07
1.0679e-08
2.67405e-07
1.04498e-08
2.6729e-07
1.02192e-08
2.67169e-07
9.98993e-09
2.67039e-07
9.76695e-09
2.66898e-07
9.516e-09
2.66751e-07
9.30161e-09
2.66571e-07
9.01312e-09
2.66386e-07
8.83464e-09
8.67488e-09
2.66145e-07
2.66277e-07
4.43472e-08
2.69343e-07
6.47348e-08
2.70603e-07
5.10684e-08
2.71673e-07
4.37795e-08
2.72442e-07
4.09664e-08
2.72891e-07
3.75933e-08
2.73231e-07
3.4276e-08
2.73535e-07
3.17776e-08
2.73798e-07
2.98304e-08
2.74023e-07
2.8145e-08
2.74221e-07
2.66498e-08
2.744e-07
2.53282e-08
2.74563e-07
2.41529e-08
2.74712e-07
2.30955e-08
2.7485e-07
2.21352e-08
2.74978e-07
2.12573e-08
2.75097e-07
2.04504e-08
2.75208e-07
1.97054e-08
2.75311e-07
1.90146e-08
2.75408e-07
1.83717e-08
2.75498e-07
1.77715e-08
2.75582e-07
1.72097e-08
2.7566e-07
1.66828e-08
2.75731e-07
1.61875e-08
2.75797e-07
1.57212e-08
2.75857e-07
1.52814e-08
2.75911e-07
1.48657e-08
2.75959e-07
1.44723e-08
2.76001e-07
1.40991e-08
2.76036e-07
1.37445e-08
2.76066e-07
1.3407e-08
2.7609e-07
1.30854e-08
2.76108e-07
1.2778e-08
2.76119e-07
1.24842e-08
2.76125e-07
1.22021e-08
2.76125e-07
1.1932e-08
2.7612e-07
1.16708e-08
2.76108e-07
1.14204e-08
2.7609e-07
1.11757e-08
2.76068e-07
1.0941e-08
2.76038e-07
1.07087e-08
2.76003e-07
1.04842e-08
2.75961e-07
1.02612e-08
2.75914e-07
1.00372e-08
2.75859e-07
9.8218e-09
2.75794e-07
9.58169e-09
2.75722e-07
9.37347e-09
2.7562e-07
9.1152e-09
2.7551e-07
8.94468e-09
8.82534e-09
2.75359e-07
2.74032e-07
4.03563e-08
2.77094e-07
6.16726e-08
2.78341e-07
4.98217e-08
2.79396e-07
4.27247e-08
2.80193e-07
4.01688e-08
2.80667e-07
3.71197e-08
2.81015e-07
3.3928e-08
2.81325e-07
3.14678e-08
2.81594e-07
2.95616e-08
2.81823e-07
2.79157e-08
2.82024e-07
2.64486e-08
2.82205e-07
2.51472e-08
2.8237e-07
2.39882e-08
2.82521e-07
2.29447e-08
2.8266e-07
2.19961e-08
2.82789e-07
2.11282e-08
2.82909e-07
2.03301e-08
2.83022e-07
1.95927e-08
2.83128e-07
1.89087e-08
2.83228e-07
1.82719e-08
2.83322e-07
1.76772e-08
2.83411e-07
1.71205e-08
2.83496e-07
1.65983e-08
2.83576e-07
1.61075e-08
2.83651e-07
1.56454e-08
2.83723e-07
1.52097e-08
2.83791e-07
1.47981e-08
2.83854e-07
1.44087e-08
2.83914e-07
1.40394e-08
2.8397e-07
1.36888e-08
2.84022e-07
1.33551e-08
2.8407e-07
1.30373e-08
2.84114e-07
1.27337e-08
2.84154e-07
1.24437e-08
2.84191e-07
1.21654e-08
2.84224e-07
1.18991e-08
2.84253e-07
1.16418e-08
2.84278e-07
1.13951e-08
2.84299e-07
1.11546e-08
2.84317e-07
1.09235e-08
2.8433e-07
1.06961e-08
2.84339e-07
1.04751e-08
2.84342e-07
1.02577e-08
2.84341e-07
1.00385e-08
2.84334e-07
9.82881e-09
2.84316e-07
9.59914e-09
2.84293e-07
9.39669e-09
2.84244e-07
9.16465e-09
2.84185e-07
9.00383e-09
8.91269e-09
2.84097e-07
2.82039e-07
3.66549e-08
2.85086e-07
5.86252e-08
2.8633e-07
4.85779e-08
2.87366e-07
4.16883e-08
2.88188e-07
3.93472e-08
2.88687e-07
3.66205e-08
2.89045e-07
3.35705e-08
2.8936e-07
3.11525e-08
2.89635e-07
2.92867e-08
2.89869e-07
2.76815e-08
2.90074e-07
2.62441e-08
2.90257e-07
2.49638e-08
2.90424e-07
2.38217e-08
2.90576e-07
2.27924e-08
2.90716e-07
2.18559e-08
2.90846e-07
2.09983e-08
2.90967e-07
2.0209e-08
2.9108e-07
1.94793e-08
2.91187e-07
1.8802e-08
2.91288e-07
1.81712e-08
2.91383e-07
1.75818e-08
2.91474e-07
1.70298e-08
2.91561e-07
1.65117e-08
2.91643e-07
1.60248e-08
2.91722e-07
1.55663e-08
2.91798e-07
1.51339e-08
2.91871e-07
1.47255e-08
2.9194e-07
1.4339e-08
2.92007e-07
1.39727e-08
2.92071e-07
1.36248e-08
2.92132e-07
1.32938e-08
2.92191e-07
1.29785e-08
2.92247e-07
1.26775e-08
2.92301e-07
1.23899e-08
2.92352e-07
1.21142e-08
2.92401e-07
1.18502e-08
2.92448e-07
1.15955e-08
2.92492e-07
1.13511e-08
2.92533e-07
1.11136e-08
2.92571e-07
1.08847e-08
2.92607e-07
1.06608e-08
2.92639e-07
1.04424e-08
2.92668e-07
1.02291e-08
2.92693e-07
1.0014e-08
2.92713e-07
9.80867e-09
2.92723e-07
9.58865e-09
2.92728e-07
9.39175e-09
2.92711e-07
9.18184e-09
2.92683e-07
9.03136e-09
8.95933e-09
2.92637e-07
2.90307e-07
3.32364e-08
2.93329e-07
5.56038e-08
2.94578e-07
4.73284e-08
2.95594e-07
4.06726e-08
2.96435e-07
3.85065e-08
2.96961e-07
3.60946e-08
2.97329e-07
3.32022e-08
2.9765e-07
3.08317e-08
2.97931e-07
2.90057e-08
2.9817e-07
2.74421e-08
2.98378e-07
2.60361e-08
2.98564e-07
2.47778e-08
2.98733e-07
2.36531e-08
2.98887e-07
2.26385e-08
2.99028e-07
2.17145e-08
2.99159e-07
2.08675e-08
2.99281e-07
2.00872e-08
2.99395e-07
1.93654e-08
2.99502e-07
1.8695e-08
2.99603e-07
1.80701e-08
2.99698e-07
1.7486e-08
2.9979e-07
1.69386e-08
2.99877e-07
1.64247e-08
2.9996e-07
1.59415e-08
3.0004e-07
1.54863e-08
3.00117e-07
1.5057e-08
3.00191e-07
1.46514e-08
3.00262e-07
1.42675e-08
3.00331e-07
1.39036e-08
3.00398e-07
1.3558e-08
3.00463e-07
1.32291e-08
3.00526e-07
1.29158e-08
3.00587e-07
1.26166e-08
3.00646e-07
1.23309e-08
3.00703e-07
1.20569e-08
3.00759e-07
1.17945e-08
3.00812e-07
1.15416e-08
3.00865e-07
1.12988e-08
3.00915e-07
1.10634e-08
3.00963e-07
1.08362e-08
3.0101e-07
1.06148e-08
3.01054e-07
1.03984e-08
3.01095e-07
1.01881e-08
3.01132e-07
9.97668e-09
3.01166e-07
9.77489e-09
3.01191e-07
9.56368e-09
3.0121e-07
9.37235e-09
3.01211e-07
9.18086e-09
3.01202e-07
9.0407e-09
8.9813e-09
3.0118e-07
2.98846e-07
3.00928e-08
3.0183e-07
5.26196e-08
3.03094e-07
4.6065e-08
3.04088e-07
3.96787e-08
3.04942e-07
3.76521e-08
3.05495e-07
3.55414e-08
3.05876e-07
3.28218e-08
3.06202e-07
3.05054e-08
3.06489e-07
2.87185e-08
3.06734e-07
2.71971e-08
3.06946e-07
2.5824e-08
3.07135e-07
2.45889e-08
3.07306e-07
2.34822e-08
3.07462e-07
2.24828e-08
3.07604e-07
2.15717e-08
3.07736e-07
2.07356e-08
3.07859e-07
1.99647e-08
3.07973e-07
1.9251e-08
3.08081e-07
1.85876e-08
3.08182e-07
1.79688e-08
3.08278e-07
1.739e-08
3.08369e-07
1.68473e-08
3.08456e-07
1.63376e-08
3.0854e-07
1.5858e-08
3.0862e-07
1.54062e-08
3.08697e-07
1.49799e-08
3.08771e-07
1.4577e-08
3.08843e-07
1.41957e-08
3.08913e-07
1.3834e-08
3.0898e-07
1.34905e-08
3.09046e-07
1.31635e-08
3.0911e-07
1.28519e-08
3.09172e-07
1.25544e-08
3.09233e-07
1.22701e-08
3.09292e-07
1.19975e-08
3.0935e-07
1.17364e-08
3.09407e-07
1.1485e-08
3.09462e-07
1.12434e-08
3.09516e-07
1.10096e-08
3.09569e-07
1.07837e-08
3.09619e-07
1.05642e-08
3.09668e-07
1.03497e-08
3.09714e-07
1.01418e-08
3.09757e-07
9.93391e-09
3.09796e-07
9.73525e-09
3.09828e-07
9.53208e-09
3.09854e-07
9.34651e-09
3.09864e-07
9.17033e-09
3.09865e-07
9.04002e-09
8.98879e-09
3.09858e-07
3.07666e-07
2.72144e-08
3.10602e-07
4.96838e-08
3.11885e-07
4.47812e-08
3.12857e-07
3.87072e-08
3.1372e-07
3.67891e-08
3.143e-07
3.49611e-08
3.14694e-07
3.24276e-08
3.15027e-07
3.01733e-08
3.1532e-07
2.84252e-08
3.15571e-07
2.69462e-08
3.15787e-07
2.56077e-08
3.15979e-07
2.4397e-08
3.16152e-07
2.3309e-08
3.1631e-07
2.23252e-08
3.16454e-07
2.14273e-08
3.16587e-07
2.06025e-08
3.16711e-07
1.98412e-08
3.16826e-07
1.91358e-08
3.16934e-07
1.84796e-08
3.17036e-07
1.78671e-08
3.17132e-07
1.72938e-08
3.17223e-07
1.67559e-08
3.1731e-07
1.62504e-08
3.17394e-07
1.57746e-08
3.17474e-07
1.53261e-08
3.17551e-07
1.49029e-08
3.17625e-07
1.45027e-08
3.17697e-07
1.41239e-08
3.17767e-07
1.37645e-08
3.17834e-07
1.34229e-08
3.179e-07
1.30978e-08
3.17964e-07
1.27879e-08
3.18026e-07
1.24919e-08
3.18088e-07
1.22089e-08
3.18147e-07
1.19377e-08
3.18206e-07
1.16778e-08
3.18263e-07
1.14276e-08
3.1832e-07
1.11871e-08
3.18375e-07
1.09547e-08
3.18428e-07
1.073e-08
3.1848e-07
1.05122e-08
3.1853e-07
1.02995e-08
3.18579e-07
1.00937e-08
3.18623e-07
9.88924e-09
3.18665e-07
9.69364e-09
3.18699e-07
9.49785e-09
3.18727e-07
9.31827e-09
3.18743e-07
9.15486e-09
3.18749e-07
9.03367e-09
8.98761e-09
3.1875e-07
3.16776e-07
2.45897e-08
3.19652e-07
4.68075e-08
3.20962e-07
4.34712e-08
3.21912e-07
3.77576e-08
3.22778e-07
3.59227e-08
3.23385e-07
3.43544e-08
3.23794e-07
3.20183e-08
3.24132e-07
2.98352e-08
3.24432e-07
2.81259e-08
3.24689e-07
2.66892e-08
3.2491e-07
2.53868e-08
3.25105e-07
2.42018e-08
3.25281e-07
2.31331e-08
3.25441e-07
2.21654e-08
3.25587e-07
2.12812e-08
3.25721e-07
2.0468e-08
3.25846e-07
1.97167e-08
3.25962e-07
1.90198e-08
3.2607e-07
1.8371e-08
3.26173e-07
1.77649e-08
3.26269e-07
1.71972e-08
3.26361e-07
1.66642e-08
3.26448e-07
1.6163e-08
3.26532e-07
1.56911e-08
3.26612e-07
1.5246e-08
3.26689e-07
1.48259e-08
3.26763e-07
1.44285e-08
3.26835e-07
1.40522e-08
3.26904e-07
1.3695e-08
3.26972e-07
1.33556e-08
3.27037e-07
1.30323e-08
3.27101e-07
1.2724e-08
3.27163e-07
1.24294e-08
3.27225e-07
1.21478e-08
3.27284e-07
1.18779e-08
3.27343e-07
1.16191e-08
3.274e-07
1.13702e-08
3.27457e-07
1.11308e-08
3.27512e-07
1.08997e-08
3.27566e-07
1.06762e-08
3.27618e-07
1.04599e-08
3.27668e-07
1.0249e-08
3.27717e-07
1.00452e-08
3.27762e-07
9.8442e-09
3.27804e-07
9.65175e-09
3.27839e-07
9.46277e-09
3.27868e-07
9.28933e-09
3.27886e-07
9.13666e-09
3.27896e-07
9.02368e-09
8.98077e-09
3.27903e-07
3.26186e-07
2.22062e-08
3.28992e-07
4.40016e-08
3.30332e-07
4.21309e-08
3.31261e-07
3.68287e-08
3.32126e-07
3.50574e-08
3.32758e-07
3.37228e-08
3.33184e-07
3.15922e-08
3.33529e-07
2.94905e-08
3.33834e-07
2.78207e-08
3.34097e-07
2.64259e-08
3.34323e-07
2.51608e-08
3.34522e-07
2.40029e-08
3.34701e-07
2.29543e-08
3.34863e-07
2.20032e-08
3.35011e-07
2.11332e-08
3.35147e-07
2.0332e-08
3.35273e-07
1.95909e-08
3.3539e-07
1.89028e-08
3.35499e-07
1.82616e-08
3.35602e-07
1.76621e-08
3.35699e-07
1.71001e-08
3.35791e-07
1.65722e-08
3.35879e-07
1.60754e-08
3.35963e-07
1.56073e-08
3.36043e-07
1.51658e-08
3.3612e-07
1.47488e-08
3.36194e-07
1.43543e-08
3.36266e-07
1.39805e-08
3.36335e-07
1.36257e-08
3.36402e-07
1.32883e-08
3.36468e-07
1.29668e-08
3.36532e-07
1.26602e-08