/*--------------------------------*- C++ -*----------------------------------*\
  =========                 |
  \\      /  F ield         | OpenFOAM: The Open Source CFD Toolbox
   \\    /   O peration     | Website:  https://openfoam.org
    \\  /    A nd           | Version:  7
     \\/     M anipulation  |
\*---------------------------------------------------------------------------*/
FoamFile
{
    version     2.0;
    format      ascii;
    class       surfaceScalarField;
    location    "0.04";
    object      phi_0;
}
// * * * * * * * * * * * * * * * * * * * * * * * * * * * * * * * * * * * * * //

dimensions      [0 3 -1 0 0 0 0];

internalField   nonuniform List<scalar> 
139350
(
6.45118e-08
9.21197e-08
3.19639e-08
3.25479e-08
2.30579e-08
8.90599e-09
1.95722e-08
3.4857e-09
1.76192e-08
1.95305e-09
1.61876e-08
1.43155e-09
1.50532e-08
1.13448e-09
1.41391e-08
9.14077e-10
1.33867e-08
7.52358e-10
1.27527e-08
6.33978e-10
1.22083e-08
5.44401e-10
1.17342e-08
4.74164e-10
1.13165e-08
4.1767e-10
1.09451e-08
3.71397e-10
1.06122e-08
3.32939e-10
1.03116e-08
3.0058e-10
1.00385e-08
2.73056e-10
9.78911e-09
2.49422e-10
9.56015e-09
2.28959e-10
9.34904e-09
2.11113e-10
9.15359e-09
1.95447e-10
8.97198e-09
1.81614e-10
8.80264e-09
1.69335e-10
8.64426e-09
1.58381e-10
8.49569e-09
1.48567e-10
8.35596e-09
1.39737e-10
8.22419e-09
1.31762e-10
8.09966e-09
1.24535e-10
7.9817e-09
1.1796e-10
7.86973e-09
1.11968e-10
7.76325e-09
1.06475e-10
7.6618e-09
1.01452e-10
7.565e-09
9.68038e-11
7.47244e-09
9.25574e-11
7.38387e-09
8.85661e-11
7.29891e-09
8.496e-11
7.21744e-09
8.14723e-11
7.13904e-09
7.84053e-11
7.06373e-09
7.53116e-11
6.99106e-09
7.26645e-11
6.92107e-09
6.99863e-11
6.85365e-09
6.74215e-11
6.78798e-09
6.56757e-11
6.72605e-09
6.19296e-11
6.66262e-09
6.34321e-11
6.60899e-09
5.36243e-11
6.53999e-09
6.90023e-11
6.51924e-09
2.07536e-11
6.29182e-09
2.27415e-10
-2.86987e-09
9.16169e-09
1.25943e-07
1.27621e-07
9.12886e-08
6.72021e-08
7.19347e-08
2.82598e-08
6.12178e-08
1.42026e-08
5.47795e-08
8.39135e-09
5.0282e-08
5.92898e-09
4.67945e-08
4.622e-09
4.39778e-08
3.73085e-09
4.1651e-08
3.07913e-09
3.96888e-08
2.59621e-09
3.80038e-08
2.22931e-09
3.65362e-08
1.94178e-09
3.52432e-08
1.71069e-09
3.40932e-08
1.52142e-09
3.3062e-08
1.36409e-09
3.21309e-08
1.23167e-09
3.1285e-08
1.119e-09
3.05122e-08
1.02223e-09
2.98027e-08
9.38421e-10
2.91485e-08
8.65304e-10
2.85429e-08
8.01099e-10
2.79801e-08
7.44385e-10
2.74554e-08
6.94023e-10
2.69647e-08
6.49082e-10
2.65045e-08
6.08799e-10
2.60717e-08
5.7254e-10
2.56637e-08
5.39777e-10
2.52781e-08
5.10068e-10
2.49131e-08
4.83029e-10
2.45667e-08
4.58355e-10
2.42374e-08
4.35741e-10
2.39239e-08
4.15001e-10
2.36248e-08
3.95834e-10
2.33392e-08
3.7822e-10
2.3066e-08
3.61729e-10
2.28043e-08
3.46656e-10
2.25536e-08
3.32181e-10
2.23128e-08
3.19257e-10
2.20819e-08
3.06177e-10
2.18594e-08
2.95172e-10
2.16465e-08
2.82885e-10
2.14404e-08
2.73555e-10
2.12443e-08
2.61755e-10
2.10532e-08
2.52961e-10
2.08733e-08
2.43353e-10
2.0699e-08
2.2799e-10
2.05285e-08
2.3949e-10
2.0415e-08
1.3424e-10
2.01225e-08
5.19921e-10
-3.37851e-09
2.06311e-08
1.58752e-07
1.35272e-07
1.36526e-07
8.94282e-08
1.17492e-07
4.72941e-08
1.03313e-07
2.83808e-08
9.33183e-08
1.83864e-08
8.60169e-08
1.32304e-08
8.03081e-08
1.03308e-08
7.56555e-08
8.38343e-09
7.17768e-08
6.95789e-09
6.84841e-08
5.88887e-09
6.56441e-08
5.06929e-09
6.3162e-08
4.42389e-09
6.09692e-08
3.90352e-09
5.90144e-08
3.47621e-09
5.72583e-08
3.12018e-09
5.56701e-08
2.81991e-09
5.42251e-08
2.56397e-09
5.29035e-08
2.34381e-09
5.1689e-08
2.15288e-09
5.05682e-08
1.98612e-09
4.95298e-08
1.83952e-09
4.85643e-08
1.7099e-09
4.76636e-08
1.5947e-09
4.68209e-08
1.49181e-09
4.60302e-08
1.39952e-09
4.52863e-08
1.31639e-09
4.45849e-08
1.24122e-09
4.39219e-08
1.17302e-09
4.3294e-08
1.11092e-09
4.26982e-08
1.0542e-09
4.21317e-08
1.0022e-09
4.15923e-08
9.54454e-10
4.10778e-08
9.10346e-10
4.05863e-08
8.69701e-10
4.01163e-08
8.3172e-10
3.96661e-08
7.96819e-10
3.92349e-08
7.63441e-10
3.88207e-08
7.334e-10
3.84238e-08
7.03074e-10
3.80414e-08
6.77574e-10
3.7676e-08
6.48353e-10
3.73217e-08
6.27816e-10
3.69865e-08
5.96939e-10
3.66572e-08
5.82253e-10
3.63535e-08
5.47046e-10
3.60485e-08
5.33029e-10
3.57742e-08
5.13781e-10
3.55342e-08
3.74238e-10
3.52713e-08
7.82827e-10
-2.90845e-09
3.48012e-08
1.75611e-07
1.31177e-07
1.65623e-07
9.94165e-08
1.52734e-07
6.01832e-08
1.40124e-07
4.09908e-08
1.29442e-07
2.90676e-08
1.20802e-07
2.18704e-08
1.13689e-07
1.7444e-08
1.07708e-07
1.43651e-08
1.02607e-07
1.20585e-08
9.82049e-08
1.0291e-08
9.43613e-08
8.91289e-09
9.09705e-08
7.81465e-09
8.79526e-08
6.92137e-09
8.52461e-08
6.18274e-09
8.28025e-08
5.56376e-09
8.05833e-08
5.03918e-09
7.8557e-08
4.59022e-09
7.66982e-08
4.20265e-09
7.49855e-08
3.86553e-09
7.34014e-08
3.57028e-09
7.19308e-08
3.31014e-09
7.0561e-08
3.07964e-09
6.92813e-08
2.8744e-09
6.80823e-08
2.6908e-09
6.6956e-08
2.52585e-09
6.58953e-08
2.37708e-09
6.48941e-08
2.24241e-09
6.39471e-08
2.12006e-09
6.30494e-08
2.00856e-09
6.2197e-08
1.90662e-09
6.13861e-08
1.81311e-09
6.06134e-08
1.72713e-09
5.98761e-08
1.6477e-09
5.91714e-08
1.57437e-09
5.84972e-08
1.50591e-09
5.78512e-08
1.4428e-09
5.72321e-08
1.38262e-09
5.66373e-08
1.32812e-09
5.6067e-08
1.27341e-09
5.55175e-08
1.22705e-09
5.49918e-08
1.17405e-09
5.44826e-08
1.13708e-09
5.39997e-08
1.07978e-09
5.35263e-08
1.05569e-09
5.30876e-08
9.85747e-10
5.26488e-08
9.71796e-10
5.22545e-08
9.08136e-10
5.18823e-08
7.46375e-10
5.15788e-08
1.08633e-09
-2.15421e-09
5.08246e-08
1.8451e-07
1.23453e-07
1.8234e-07
1.01586e-07
1.76119e-07
6.64037e-08
1.67761e-07
4.9349e-08
1.59141e-07
3.76878e-08
1.51235e-07
2.97767e-08
1.44161e-07
2.45174e-08
1.37861e-07
2.06657e-08
1.3226e-07
1.76592e-08
1.27275e-07
1.52762e-08
1.22819e-07
1.33683e-08
1.18817e-07
1.1817e-08
1.15203e-07
1.05352e-08
1.11924e-07
9.46193e-09
1.08935e-07
8.55316e-09
1.06197e-07
7.77628e-09
1.03681e-07
7.1065e-09
1.01359e-07
6.52467e-09
9.92089e-08
6.01581e-09
9.72111e-08
5.56806e-09
9.53494e-08
5.17189e-09
9.36094e-08
4.81961e-09
9.19789e-08
4.50489e-09
9.04472e-08
4.22254e-09
8.90048e-08
3.96822e-09
8.76436e-08
3.7383e-09
8.63563e-08
3.52973e-09
8.51364e-08
3.3399e-09
8.39784e-08
3.16659e-09
8.28771e-08
3.00789e-09
8.18281e-08
2.86212e-09
8.08273e-08
2.7279e-09
7.98712e-08
2.6038e-09
7.89566e-08
2.48905e-09
7.80805e-08
2.38193e-09
7.72404e-08
2.28291e-09
7.64344e-08
2.18869e-09
7.56596e-08
2.10291e-09
7.49156e-08
2.01735e-09
7.41987e-08
1.94398e-09
7.35114e-08
1.86139e-09
7.28461e-08
1.80231e-09
7.22125e-08
1.7134e-09
7.15942e-08
1.67403e-09
7.10141e-08
1.56582e-09
7.04427e-08
1.54325e-09
6.99156e-08
1.43515e-09
6.94186e-08
1.24343e-09
6.90018e-08
1.50316e-09
-1.30023e-09
6.81478e-08
1.90342e-07
1.15327e-07
1.91858e-07
1.0007e-07
1.90261e-07
6.80009e-08
1.86155e-07
5.34548e-08
1.80716e-07
4.31273e-08
1.74963e-07
3.55293e-08
1.69266e-07
3.02149e-08
1.6378e-07
2.6151e-08
1.58605e-07
2.2835e-08
1.5378e-07
2.01006e-08
1.4931e-07
1.78386e-08
1.45177e-07
1.59497e-08
1.41358e-07
1.43546e-08
1.37825e-07
1.29944e-08
1.34553e-07
1.1825e-08
1.31517e-07
1.08123e-08
1.28694e-07
9.92949e-09
1.26064e-07
9.15528e-09
1.23607e-07
8.47255e-09
1.21308e-07
7.86746e-09
1.19151e-07
7.32866e-09
1.17124e-07
6.84683e-09
1.15214e-07
6.41423e-09
1.13412e-07
6.02437e-09
1.11709e-07
5.6718e-09
1.10095e-07
5.3519e-09
1.08564e-07
5.06075e-09
1.07109e-07
4.79497e-09
1.05724e-07
4.55168e-09
1.04404e-07
4.32834e-09
1.03143e-07
4.12277e-09
1.01938e-07
3.93308e-09
1.00784e-07
3.75742e-09
9.96785e-08
3.59466e-09
9.86179e-08
3.44262e-09
9.75991e-08
3.30169e-09
9.662e-08
3.16778e-09
9.56777e-08
3.04521e-09
9.47713e-08
2.92376e-09
9.38971e-08
2.81817e-09
9.30568e-08
2.70167e-09
9.2244e-08
2.61508e-09
9.14657e-08
2.49172e-09
9.07098e-08
2.42996e-09
8.99912e-08
2.28442e-09
8.92939e-08
2.24049e-09
8.86328e-08
2.09629e-09
8.80174e-08
1.85887e-09
8.74689e-08
2.05162e-09
-3.51926e-10
8.65206e-08
1.95504e-07
1.07638e-07
1.98246e-07
9.73281e-08
1.98984e-07
6.7263e-08
1.97789e-07
5.46498e-08
1.95154e-07
4.57624e-08
1.91813e-07
3.88699e-08
1.8808e-07
3.3948e-08
1.84128e-07
3.01036e-08
1.80106e-07
2.68567e-08
1.76125e-07
2.40811e-08
1.72254e-07
2.17101e-08
1.6853e-07
1.96735e-08
1.64974e-07
1.79105e-08
1.61594e-07
1.63743e-08
1.58391e-07
1.50285e-08
1.55359e-07
1.38437e-08
1.52493e-07
1.2796e-08
1.49783e-07
1.18656e-08
1.47219e-07
1.10359e-08
1.44793e-07
1.02934e-08
1.42496e-07
9.62644e-09
1.40317e-07
9.02539e-09
1.38249e-07
8.48198e-09
1.36284e-07
7.9892e-09
1.34415e-07
7.54104e-09
1.32635e-07
7.13232e-09
1.30937e-07
6.75862e-09
1.29316e-07
6.41604e-09
1.27766e-07
6.10124e-09
1.26283e-07
5.81125e-09
1.24863e-07
5.54348e-09
1.235e-07
5.29567e-09
1.22192e-07
5.06561e-09
1.20935e-07
4.85187e-09
1.19725e-07
4.6519e-09
1.18561e-07
4.46596e-09
1.17439e-07
4.28936e-09
1.16358e-07
4.12682e-09
1.15315e-07
3.96668e-09
1.14308e-07
3.8255e-09
1.13336e-07
3.6729e-09
1.12397e-07
3.55466e-09
1.11492e-07
3.39627e-09
1.10617e-07
3.30563e-09
1.09775e-07
3.12628e-09
1.08966e-07
3.04901e-09
1.08185e-07
2.87791e-09
1.07458e-07
2.58563e-09
1.06791e-07
2.71887e-09
6.88421e-10
1.0575e-07
2.00819e-07
1.00403e-07
2.03771e-07
9.43764e-08
2.05344e-07
6.56903e-08
2.05644e-07
5.43495e-08
2.04812e-07
4.65938e-08
2.03332e-07
4.03504e-08
2.01383e-07
3.58972e-08
1.9905e-07
3.24363e-08
1.96441e-07
2.94659e-08
1.93658e-07
2.68641e-08
1.90782e-07
2.45863e-08
1.87873e-07
2.25826e-08
1.84975e-07
2.08083e-08
1.8212e-07
1.92289e-08
1.79331e-07
1.78179e-08
1.76621e-07
1.65536e-08
1.73999e-07
1.54175e-08
1.71471e-07
1.43938e-08
1.69038e-07
1.34691e-08
1.667e-07
1.26318e-08
1.64454e-07
1.18717e-08
1.623e-07
1.11801e-08
1.60232e-07
1.05494e-08
1.58249e-07
9.97293e-09
1.56345e-07
9.44492e-09
1.54517e-07
8.96022e-09
1.52761e-07
8.51439e-09
1.51074e-07
8.10344e-09
1.49451e-07
7.72393e-09
1.47889e-07
7.3727e-09
1.46386e-07
7.04701e-09
1.44937e-07
6.74441e-09
1.4354e-07
6.46251e-09
1.42192e-07
6.19969e-09
1.40891e-07
5.95318e-09
1.39634e-07
5.72313e-09
1.38419e-07
5.50448e-09
1.37244e-07
5.3021e-09
1.36107e-07
5.10353e-09
1.35006e-07
4.92617e-09
1.33941e-07
4.73787e-09
1.3291e-07
4.58625e-09
1.31911e-07
4.39445e-09
1.30946e-07
4.27083e-09
1.3001e-07
4.06226e-09
1.29115e-07
3.94407e-09
1.2824e-07
3.75251e-09
1.27419e-07
3.40673e-09
1.26657e-07
3.48143e-09
1.79523e-09
1.2555e-07
2.06422e-07
9.3513e-08
2.0933e-07
9.14682e-08
2.11055e-07
6.39662e-08
2.11934e-07
5.34698e-08
2.11996e-07
4.65317e-08
2.1161e-07
4.07365e-08
2.10879e-07
3.66282e-08
2.09806e-07
3.35095e-08
2.0843e-07
3.08424e-08
2.06808e-07
2.84854e-08
2.04998e-07
2.63967e-08
2.03047e-07
2.45331e-08
2.00999e-07
2.28564e-08
1.98889e-07
2.13389e-08
1.96747e-07
1.99606e-08
1.94595e-07
1.87055e-08
1.92452e-07
1.75605e-08
1.90331e-07
1.65141e-08
1.88244e-07
1.55561e-08
1.86198e-07
1.46779e-08
1.84198e-07
1.38716e-08
1.82248e-07
1.31302e-08
1.8035e-07
1.24476e-08
1.78505e-07
1.1818e-08
1.76713e-07
1.12366e-08
1.74975e-07
1.06989e-08
1.73288e-07
1.02007e-08
1.71653e-07
9.73856e-09
1.70068e-07
9.30916e-09
1.68531e-07
8.90954e-09
1.67041e-07
8.53706e-09
1.65596e-07
8.1893e-09
1.64195e-07
7.86391e-09
1.62835e-07
7.55924e-09
1.61516e-07
7.27248e-09
1.60235e-07
7.00374e-09
1.58992e-07
6.74783e-09
1.57784e-07
6.50963e-09
1.56612e-07
6.27642e-09
1.55472e-07
6.06565e-09
1.54365e-07
5.84506e-09
1.5329e-07
5.6614e-09
1.52244e-07
5.44007e-09
1.51232e-07
5.28282e-09
1.50244e-07
5.05036e-09
1.49299e-07
4.88916e-09
1.4837e-07
4.68127e-09
1.47486e-07
4.29135e-09
1.46659e-07
4.30769e-09
2.93082e-09
1.45524e-07
2.12269e-07
8.69068e-08
2.15139e-07
8.85976e-08
2.16809e-07
6.22959e-08
2.17849e-07
5.24305e-08
2.18256e-07
4.61244e-08
2.18372e-07
4.06207e-08
2.18294e-07
3.67057e-08
2.17992e-07
3.38118e-08
2.17459e-07
3.13757e-08
2.16713e-07
2.92309e-08
2.15779e-07
2.73304e-08
2.14683e-07
2.563e-08
2.13448e-07
2.40906e-08
2.12102e-07
2.26851e-08
2.10667e-07
2.13953e-08
2.09165e-07
2.02077e-08
2.07614e-07
1.91116e-08
2.0603e-07
1.80982e-08
2.04426e-07
1.71598e-08
2.02814e-07
1.629e-08
2.01203e-07
1.5483e-08
1.996e-07
1.47334e-08
1.98011e-07
1.40366e-08
1.9644e-07
1.33882e-08
1.94893e-07
1.27843e-08
1.9337e-07
1.22213e-08
1.91875e-07
1.16959e-08
1.90409e-07
1.1205e-08
1.88972e-07
1.07459e-08
1.87565e-07
1.03159e-08
1.8619e-07
9.91287e-09
1.84844e-07
9.53451e-09
1.8353e-07
9.17867e-09
1.82245e-07
8.84387e-09
1.8099e-07
8.52739e-09
1.79764e-07
8.22944e-09
1.78567e-07
7.94485e-09
1.77399e-07
7.67849e-09
1.76257e-07
7.41779e-09
1.75143e-07
7.17968e-09
1.74055e-07
6.93306e-09
1.72995e-07
6.72191e-09
1.71958e-07
6.47715e-09
1.70951e-07
6.28919e-09
1.69962e-07
6.03903e-09
1.69014e-07
5.8379e-09
1.68078e-07
5.61706e-09
1.67172e-07
5.19699e-09
1.66322e-07
5.15762e-09
4.05144e-09
1.65202e-07
2.18314e-07
8.05731e-08
2.21188e-07
8.57235e-08
2.22782e-07
6.07024e-08
2.2385e-07
5.13629e-08
2.24365e-07
4.56086e-08
2.24659e-07
4.03274e-08
2.24858e-07
3.65069e-08
2.24933e-07
3.37361e-08
2.24865e-07
3.14435e-08
2.24654e-07
2.94419e-08
2.24305e-07
2.76802e-08
2.23822e-07
2.61124e-08
2.23216e-07
2.46966e-08
2.22498e-07
2.34034e-08
2.2168e-07
2.22133e-08
2.20775e-07
2.11125e-08
2.19796e-07
2.00903e-08
2.18756e-07
1.91387e-08
2.17665e-07
1.8251e-08
2.16533e-07
1.74216e-08
2.1537e-07
1.66458e-08
2.14184e-07
1.59194e-08
2.12982e-07
1.52388e-08
2.1177e-07
1.46006e-08
2.10552e-07
1.40017e-08
2.09334e-07
1.34393e-08
2.08119e-07
1.29107e-08
2.06911e-07
1.24136e-08
2.05711e-07
1.19456e-08
2.04523e-07
1.15046e-08
2.03347e-07
1.10888e-08
2.02185e-07
1.06963e-08
2.01038e-07
1.03252e-08
1.99908e-07
9.97425e-09
1.98794e-07
9.64095e-09
1.97698e-07
9.32565e-09
1.9662e-07
9.02336e-09
1.95559e-07
8.7389e-09
1.94517e-07
8.46018e-09
1.93493e-07
8.20324e-09
1.92487e-07
7.93899e-09
1.91502e-07
7.70737e-09
1.90532e-07
7.44698e-09
1.89587e-07
7.23418e-09
1.88653e-07
6.97331e-09
1.87751e-07
6.73933e-09
1.86859e-07
6.50918e-09
1.85981e-07
6.07501e-09
1.85153e-07
5.98601e-09
5.11104e-09
1.84093e-07
2.24548e-07
7.45183e-08
2.27448e-07
8.28232e-08
2.28978e-07
5.91728e-08
2.30053e-07
5.02882e-08
2.30609e-07
4.50523e-08
2.30951e-07
3.99857e-08
2.31239e-07
3.62186e-08
2.31463e-07
3.35123e-08
2.31603e-07
3.13028e-08
2.3166e-07
2.93859e-08
2.3163e-07
2.77095e-08
2.31514e-07
2.62288e-08
2.3131e-07
2.49005e-08
2.31021e-07
2.3693e-08
2.30649e-07
2.25849e-08
2.302e-07
2.15612e-08
2.2968e-07
2.06104e-08
2.29095e-07
1.97237e-08
2.28452e-07
1.88942e-08
2.27757e-07
1.81164e-08
2.27017e-07
1.73857e-08
2.26239e-07
1.66982e-08
2.25427e-07
1.60508e-08
2.24587e-07
1.54404e-08
2.23724e-07
1.48645e-08
2.22842e-07
1.43207e-08
2.21946e-07
1.38068e-08
2.21039e-07
1.33208e-08
2.20124e-07
1.28608e-08
2.19203e-07
1.24251e-08
2.1828e-07
1.2012e-08
2.17356e-07
1.16201e-08
2.16434e-07
1.12478e-08
2.15514e-07
1.0894e-08
2.14599e-07
1.05564e-08
2.13689e-07
1.02356e-08
2.12785e-07
9.92685e-09
2.11889e-07
9.63484e-09
2.11001e-07
9.34816e-09
2.10123e-07
9.08168e-09
2.09253e-07
8.80897e-09
2.08395e-07
8.56506e-09
2.07545e-07
8.29751e-09
2.06711e-07
8.06746e-09
2.05882e-07
7.80307e-09
2.05075e-07
7.54577e-09
2.04274e-07
7.31041e-09
2.03471e-07
6.878e-09
2.02709e-07
6.74847e-09
6.06676e-09
2.01753e-07
2.30974e-07
6.87503e-08
2.33909e-07
7.98879e-08
2.35382e-07
5.77003e-08
2.36465e-07
4.92052e-08
2.37054e-07
4.44632e-08
2.3741e-07
3.9629e-08
2.3772e-07
3.59085e-08
2.3799e-07
3.32426e-08
2.38206e-07
3.10865e-08
2.38372e-07
2.92207e-08
2.38488e-07
2.75933e-08
2.38553e-07
2.61634e-08
2.38565e-07
2.48885e-08
2.38522e-07
2.37361e-08
2.38423e-07
2.26838e-08
2.38269e-07
2.17155e-08
2.3806e-07
2.08189e-08
2.37799e-07
1.99847e-08
2.37489e-07
1.92051e-08
2.37131e-07
1.84742e-08
2.36729e-07
1.77871e-08
2.36288e-07
1.71399e-08
2.35809e-07
1.65292e-08
2.35298e-07
1.59521e-08
2.34756e-07
1.54061e-08
2.34188e-07
1.48889e-08
2.33596e-07
1.43986e-08
2.32984e-07
1.39332e-08
2.32353e-07
1.34912e-08
2.31708e-07
1.30708e-08
2.31049e-07
1.26708e-08
2.30379e-07
1.22898e-08
2.29701e-07
1.19264e-08
2.29015e-07
1.15797e-08
2.28324e-07
1.12477e-08
2.27628e-07
1.09309e-08
2.2693e-07
1.0625e-08
2.26231e-07
1.03343e-08
2.2553e-07
1.00484e-08
2.24831e-07
9.78073e-09
2.24132e-07
9.50783e-09
2.23438e-07
9.2594e-09
2.22743e-07
8.99242e-09
2.22058e-07
8.75294e-09
2.21369e-07
8.49142e-09
2.20694e-07
8.22108e-09
2.2002e-07
7.98463e-09
2.1933e-07
7.56777e-09
2.1867e-07
7.40862e-09
6.88514e-09
2.17852e-07
2.376e-07
6.32749e-08
2.40575e-07
7.69135e-08
2.4199e-07
5.62849e-08
2.4308e-07
4.8115e-08
2.43706e-07
4.38375e-08
2.44075e-07
3.92595e-08
2.44391e-07
3.55931e-08
2.44673e-07
3.29604e-08
2.44912e-07
3.08476e-08
2.45114e-07
2.9019e-08
2.45284e-07
2.74228e-08
2.45425e-07
2.60231e-08
2.45534e-07
2.47795e-08
2.4561e-07
2.36596e-08
2.45653e-07
2.26411e-08
2.45661e-07
2.17076e-08
2.45633e-07
2.08466e-08
2.4557e-07
2.0048e-08
2.45471e-07
1.9304e-08
2.45337e-07
1.8608e-08
2.45169e-07
1.7955e-08
2.44968e-07
1.73405e-08
2.44736e-07
1.67612e-08
2.44475e-07
1.62138e-08
2.44185e-07
1.56959e-08
2.43869e-07
1.5205e-08
2.43528e-07
1.47391e-08
2.43165e-07
1.42963e-08
2.42781e-07
1.3875e-08
2.42379e-07
1.34737e-08
2.41958e-07
1.30909e-08
2.41523e-07
1.27255e-08
2.41073e-07
1.23761e-08
2.40611e-07
1.2042e-08
2.40137e-07
1.17211e-08
2.39654e-07
1.14142e-08
2.39162e-07
1.11169e-08
2.38663e-07
1.08336e-08
2.38157e-07
1.05545e-08
2.37646e-07
1.02915e-08
2.37129e-07
1.00245e-08
2.36611e-07
9.77751e-09
2.36086e-07
9.5169e-09
2.35565e-07
9.27471e-09
2.35035e-07
9.02074e-09
2.3451e-07
8.74664e-09
2.33982e-07
8.51265e-09
2.33428e-07
8.12168e-09
2.32892e-07
7.94403e-09
7.54743e-09
2.3223e-07
2.44435e-07
5.80957e-08
2.47448e-07
7.39006e-08
2.48808e-07
5.49249e-08
2.49901e-07
4.70221e-08
2.50565e-07
4.31735e-08
2.50951e-07
3.88735e-08
2.51271e-07
3.52732e-08
2.51559e-07
3.26727e-08
2.51805e-07
3.06011e-08
2.52018e-07
2.88065e-08
2.52205e-07
2.72354e-08
2.52371e-07
2.58571e-08
2.52517e-07
2.46338e-08
2.52642e-07
2.35342e-08
2.52747e-07
2.25361e-08
2.52831e-07
2.16236e-08
2.52894e-07
2.07841e-08
2.52934e-07
2.00077e-08
2.52952e-07
1.92862e-08
2.52947e-07
1.86131e-08
2.52919e-07
1.7983e-08
2.52868e-07
1.73914e-08
2.52794e-07
1.68347e-08
2.52698e-07
1.63095e-08
2.52581e-07
1.58132e-08
2.52443e-07
1.53434e-08
2.52284e-07
1.48978e-08
2.52106e-07
1.44745e-08
2.51909e-07
1.40717e-08
2.51695e-07
1.3688e-08
2.51464e-07
1.33218e-08
2.51217e-07
1.29721e-08
2.50956e-07
1.26373e-08
2.50681e-07
1.23169e-08
2.50394e-07
1.20087e-08
2.50095e-07
1.17135e-08
2.49784e-07
1.14272e-08
2.49464e-07
1.11537e-08
2.49134e-07
1.08843e-08
2.48797e-07
1.06289e-08
2.48451e-07
1.0371e-08
2.48099e-07
1.01291e-08
2.47738e-07
9.87804e-09
2.47375e-07
9.63786e-09
2.47001e-07
9.39394e-09
2.46625e-07
9.12323e-09
2.46243e-07
8.89418e-09
2.4583e-07
8.53527e-09
2.45425e-07
8.34907e-09
8.05192e-09
2.4492e-07
2.51488e-07
5.32147e-08
2.54529e-07
7.08594e-08
2.55844e-07
5.36094e-08
2.56935e-07
4.59319e-08
2.57636e-07
4.24719e-08
2.58041e-07
3.84683e-08
2.58367e-07
3.49475e-08
2.5866e-07
3.23798e-08
2.58912e-07
3.03495e-08
2.59128e-07
2.85897e-08
2.59321e-07
2.70428e-08
2.59495e-07
2.56832e-08
2.59652e-07
2.44764e-08
2.59795e-07
2.33919e-08
2.59923e-07
2.2408e-08
2.60037e-07
2.15092e-08
2.60138e-07
2.06834e-08
2.60225e-07
1.99207e-08
2.60298e-07
1.92131e-08
2.60357e-07
1.85541e-08
2.60402e-07
1.79383e-08
2.60432e-07
1.73612e-08
2.60447e-07
1.68191e-08
2.60448e-07
1.63086e-08
2.60435e-07
1.5827e-08
2.60406e-07
1.53718e-08
2.60363e-07
1.49407e-08
2.60306e-07
1.45317e-08
2.60235e-07
1.4143e-08
2.6015e-07
1.3773e-08
2.60051e-07
1.34201e-08
2.5994e-07
1.30832e-08
2.59817e-07
1.27607e-08
2.59682e-07
1.24521e-08
2.59535e-07
1.21552e-08
2.59378e-07
1.18708e-08
2.5921e-07
1.1595e-08
2.59032e-07
1.13311e-08
2.58845e-07
1.10715e-08
2.5865e-07
1.08243e-08
2.58445e-07
1.05761e-08
2.58233e-07
1.03405e-08
2.58012e-07
1.00998e-08
2.57785e-07
9.86422e-09
2.57548e-07
9.63075e-09
2.57304e-07
9.36802e-09
2.57053e-07
9.14515e-09
2.56767e-07
8.82052e-09
2.56483e-07
8.63359e-09
8.41244e-09
2.56122e-07
2.58765e-07
4.86323e-08
2.61824e-07
6.78005e-08
2.63106e-07
5.23273e-08
2.64189e-07
4.48494e-08
2.64926e-07
4.17349e-08
2.65352e-07
3.80419e-08
2.65685e-07
3.46152e-08
2.65983e-07
3.20813e-08
2.6624e-07
3.00925e-08
2.66461e-07
2.83691e-08
2.66656e-07
2.68473e-08
2.66833e-07
2.55064e-08
2.66994e-07
2.43153e-08
2.67141e-07
2.32444e-08
2.67277e-07
2.22725e-08
2.67402e-07
2.13845e-08
2.67516e-07
2.05687e-08
2.67621e-07
1.98156e-08
2.67717e-07
1.91174e-08
2.67804e-07
1.84676e-08
2.67881e-07
1.78608e-08
2.6795e-07
1.72928e-08
2.68009e-07
1.67598e-08
2.68059e-07
1.62585e-08
2.681e-07
1.57862e-08
2.68131e-07
1.53404e-08
2.68153e-07
1.49188e-08
2.68166e-07
1.45192e-08
2.68169e-07
1.414e-08
2.68162e-07
1.37794e-08
2.68147e-07
1.34358e-08
2.68122e-07
1.3108e-08
2.68088e-07
1.27946e-08
2.68045e-07
1.24948e-08
2.67994e-07
1.22066e-08
2.67934e-07
1.19306e-08
2.67866e-07
1.16631e-08
2.6779e-07
1.1407e-08
2.67706e-07
1.11557e-08
2.67615e-07
1.09155e-08
2.67515e-07
1.0676e-08
2.67409e-07
1.04462e-08
2.67294e-07
1.02149e-08
2.67173e-07
9.98477e-09
2.67044e-07
9.76064e-09
2.66903e-07
9.50815e-09
2.66757e-07
9.29172e-09
2.66577e-07
9.00038e-09
2.66392e-07
8.81818e-09
8.65349e-09
2.66151e-07
2.66277e-07
4.43471e-08
2.69343e-07
6.47345e-08
2.70603e-07
5.1068e-08
2.71673e-07
4.37789e-08
2.72442e-07
4.09657e-08
2.72892e-07
3.75926e-08
2.73231e-07
3.42754e-08
2.73536e-07
3.1777e-08
2.73798e-07
2.98298e-08
2.74023e-07
2.81444e-08
2.74221e-07
2.66492e-08
2.744e-07
2.53276e-08
2.74563e-07
2.41523e-08
2.74713e-07
2.30949e-08
2.74851e-07
2.21345e-08
2.74978e-07
2.12566e-08
2.75097e-07
2.04497e-08
2.75208e-07
1.97047e-08
2.75312e-07
1.90138e-08
2.75409e-07
1.83709e-08
2.75499e-07
1.77707e-08
2.75583e-07
1.72089e-08
2.75661e-07
1.66819e-08
2.75733e-07
1.61867e-08
2.75798e-07
1.57203e-08
2.75858e-07
1.52805e-08
2.75912e-07
1.48648e-08
2.7596e-07
1.44713e-08
2.76002e-07
1.40981e-08
2.76038e-07
1.37435e-08
2.76068e-07
1.34059e-08
2.76092e-07
1.30841e-08
2.7611e-07
1.27766e-08
2.76122e-07
1.24828e-08
2.76128e-07
1.22006e-08
2.76128e-07
1.19303e-08
2.76122e-07
1.16688e-08
2.76111e-07
1.14183e-08
2.76094e-07
1.11732e-08
2.76071e-07
1.09382e-08
2.76042e-07
1.07054e-08
2.76007e-07
1.04803e-08
2.75966e-07
1.02566e-08
2.75919e-07
1.00317e-08
2.75864e-07
9.81511e-09
2.75799e-07
9.57343e-09
2.75728e-07
9.36316e-09
2.75626e-07
9.10208e-09
2.75516e-07
8.92795e-09
8.80397e-09
2.75366e-07
2.74032e-07
4.03562e-08
2.77094e-07
6.16723e-08
2.78341e-07
4.98212e-08
2.79396e-07
4.27241e-08
2.80194e-07
4.01681e-08
2.80667e-07
3.7119e-08
2.81015e-07
3.39273e-08
2.81325e-07
3.14672e-08
2.81594e-07
2.9561e-08
2.81823e-07
2.79151e-08
2.82024e-07
2.6448e-08
2.82205e-07
2.51465e-08
2.8237e-07
2.39876e-08
2.82521e-07
2.2944e-08
2.8266e-07
2.19954e-08
2.82789e-07
2.11275e-08
2.8291e-07
2.03293e-08
2.83023e-07
1.95919e-08
2.83128e-07
1.89078e-08
2.83228e-07
1.8271e-08
2.83323e-07
1.76763e-08
2.83412e-07
1.71196e-08
2.83497e-07
1.65973e-08
2.83577e-07
1.61065e-08
2.83653e-07
1.56445e-08
2.83724e-07
1.52087e-08
2.83792e-07
1.47971e-08
2.83856e-07
1.44076e-08
2.83916e-07
1.40383e-08
2.83971e-07
1.36876e-08
2.84024e-07
1.33538e-08
2.84072e-07
1.30359e-08
2.84116e-07
1.27322e-08
2.84157e-07
1.24421e-08
2.84194e-07
1.21637e-08
2.84227e-07
1.18972e-08
2.84256e-07
1.16396e-08
2.84282e-07
1.13927e-08
2.84303e-07
1.11519e-08
2.84321e-07
1.09204e-08
2.84333e-07
1.06925e-08
2.84343e-07
1.0471e-08
2.84347e-07
1.02528e-08
2.84346e-07
1.00326e-08
2.84339e-07
9.82175e-09
2.84322e-07
9.59049e-09
2.84299e-07
9.38599e-09
2.8425e-07
9.15118e-09
2.84191e-07
8.98688e-09
8.89138e-09
2.84104e-07
2.82039e-07
3.66548e-08
2.85086e-07
5.86249e-08
2.8633e-07
4.85774e-08
2.87366e-07
4.16877e-08
2.88188e-07
3.93465e-08
2.88687e-07
3.66198e-08
2.89045e-07
3.35698e-08
2.8936e-07
3.11518e-08
2.89635e-07
2.92861e-08
2.89869e-07
2.76809e-08
2.90074e-07
2.62435e-08
2.90257e-07
2.49631e-08
2.90424e-07
2.3821e-08
2.90576e-07
2.27916e-08
2.90717e-07
2.18551e-08
2.90847e-07
2.09975e-08
2.90968e-07
2.02082e-08
2.91081e-07
1.94784e-08
2.91188e-07
1.88011e-08
2.91289e-07
1.81702e-08
2.91384e-07
1.75808e-08
2.91475e-07
1.70287e-08
2.91562e-07
1.65107e-08
2.91644e-07
1.60237e-08
2.91724e-07
1.55652e-08
2.91799e-07
1.51328e-08
2.91872e-07
1.47244e-08
2.91942e-07
1.43379e-08
2.92009e-07
1.39714e-08
2.92073e-07
1.36235e-08
2.92134e-07
1.32924e-08
2.92193e-07
1.2977e-08
2.9225e-07
1.26759e-08
2.92304e-07
1.23882e-08
2.92355e-07
1.21122e-08
2.92404e-07
1.1848e-08
2.92451e-07
1.15931e-08
2.92495e-07
1.13485e-08
2.92536e-07
1.11106e-08
2.92575e-07
1.08814e-08
2.92611e-07
1.0657e-08
2.92644e-07
1.0438e-08
2.92673e-07
1.02239e-08
2.92697e-07
1.00078e-08
2.92718e-07
9.80124e-09
2.92729e-07
9.57962e-09
2.92734e-07
9.38067e-09
2.92717e-07
9.16805e-09
2.9269e-07
9.01423e-09
8.93812e-09
2.92643e-07
2.90307e-07
3.32363e-08
2.93329e-07
5.56035e-08
2.94578e-07
4.73278e-08
2.95594e-07
4.06719e-08
2.96435e-07
3.85058e-08
2.96961e-07
3.60938e-08
2.97329e-07
3.32015e-08
2.9765e-07
3.0831e-08
2.97931e-07
2.9005e-08
2.9817e-07
2.74414e-08
2.98379e-07
2.60353e-08
2.98565e-07
2.4777e-08
2.98733e-07
2.36523e-08
2.98887e-07
2.26377e-08
2.99029e-07
2.17137e-08
2.9916e-07
2.08666e-08
2.99281e-07
2.00864e-08
2.99395e-07
1.93645e-08
2.99502e-07
1.8694e-08
2.99603e-07
1.80691e-08
2.99699e-07
1.74849e-08
2.99791e-07
1.69375e-08
2.99878e-07
1.64236e-08
2.99961e-07
1.59403e-08
3.00041e-07
1.54851e-08
3.00118e-07
1.50558e-08
3.00192e-07
1.46502e-08
3.00264e-07
1.42663e-08
3.00333e-07
1.39022e-08
3.004e-07
1.35565e-08
3.00465e-07
1.32276e-08
3.00528e-07
1.29142e-08
3.00589e-07
1.26149e-08
3.00648e-07
1.23289e-08
3.00706e-07
1.20548e-08
3.00761e-07
1.17922e-08
3.00815e-07
1.15391e-08
3.00868e-07
1.1296e-08
3.00918e-07
1.10602e-08
3.00967e-07
1.08325e-08
3.01014e-07
1.06106e-08
3.01058e-07
1.03937e-08
3.01099e-07
1.01826e-08
3.01137e-07
9.97013e-09
3.01171e-07
9.7671e-09
3.01196e-07
9.55427e-09
3.01216e-07
9.36091e-09
3.01217e-07
9.16678e-09
3.01208e-07
9.02342e-09
8.96022e-09
3.01186e-07
2.98846e-07
3.00927e-08
3.0183e-07
5.26193e-08
3.03094e-07
4.60645e-08
3.04088e-07
3.9678e-08
3.04942e-07
3.76513e-08
3.05495e-07
3.55406e-08
3.05876e-07
3.2821e-08
3.06202e-07
3.05046e-08
3.06489e-07
2.87178e-08
3.06735e-07
2.71963e-08
3.06947e-07
2.58233e-08
3.07135e-07
2.45881e-08
3.07306e-07
2.34814e-08
3.07462e-07
2.2482e-08
3.07605e-07
2.15708e-08
3.07737e-07
2.07347e-08
3.07859e-07
1.99638e-08
3.07974e-07
1.925e-08
3.08082e-07
1.85865e-08
3.08183e-07
1.79677e-08
3.08279e-07
1.73889e-08
3.0837e-07
1.68462e-08
3.08457e-07
1.63364e-08
3.08541e-07
1.58568e-08
3.08621e-07
1.54049e-08
3.08698e-07
1.49786e-08
3.08773e-07
1.45757e-08
3.08845e-07
1.41943e-08
3.08915e-07
1.38325e-08
3.08982e-07
1.34889e-08
3.09048e-07
1.31618e-08
3.09112e-07
1.28501e-08
3.09174e-07
1.25524e-08
3.09235e-07
1.2268e-08
3.09295e-07
1.19952e-08
3.09353e-07
1.17339e-08
3.0941e-07
1.14822e-08
3.09466e-07
1.12403e-08
3.0952e-07
1.10062e-08
3.09572e-07
1.07798e-08
3.09623e-07
1.05598e-08
3.09672e-07
1.03446e-08
3.09719e-07
1.01359e-08
3.09762e-07
9.92702e-09
3.09802e-07
9.72709e-09
3.09834e-07
9.52231e-09
3.0986e-07
9.33472e-09
3.09871e-07
9.15598e-09
3.09872e-07
9.02261e-09
8.96783e-09
3.09864e-07
3.07666e-07
2.72142e-08
3.10602e-07
4.96834e-08
3.11886e-07
4.47806e-08
3.12857e-07
3.87064e-08
3.1372e-07
3.67883e-08
3.14301e-07
3.49602e-08
3.14695e-07
3.24268e-08
3.15027e-07
3.01725e-08
3.1532e-07
2.84244e-08
3.15571e-07
2.69454e-08
3.15787e-07
2.56069e-08
3.15979e-07
2.43962e-08
3.16153e-07
2.33081e-08
3.1631e-07
2.23243e-08
3.16455e-07
2.14264e-08
3.16588e-07
2.06015e-08
3.16711e-07
1.98402e-08
3.16827e-07
1.91348e-08
3.16935e-07
1.84785e-08
3.17036e-07
1.7866e-08
3.17133e-07
1.72926e-08
3.17224e-07
1.67547e-08
3.17312e-07
1.62491e-08
3.17395e-07
1.57732e-08
3.17475e-07
1.53248e-08
3.17552e-07
1.49015e-08
3.17627e-07
1.45013e-08
3.17699e-07
1.41224e-08
3.17768e-07
1.37629e-08
3.17836e-07
1.34212e-08
3.17902e-07
1.3096e-08
3.17966e-07
1.2786e-08
3.18029e-07
1.24898e-08
3.1809e-07
1.22066e-08
3.1815e-07
1.19352e-08
3.18209e-07
1.1675e-08
3.18267e-07
1.14246e-08
3.18323e-07
1.11838e-08
3.18378e-07
1.0951e-08
3.18432e-07
1.07259e-08
3.18485e-07
1.05075e-08
3.18535e-07
1.02941e-08
3.18584e-07
1.00875e-08
3.18629e-07
9.88201e-09
3.1867e-07
9.68512e-09
3.18705e-07
9.48773e-09
3.18734e-07
9.30615e-09
3.18749e-07
9.14027e-09
3.18756e-07
9.01616e-09
8.96679e-09
3.18757e-07
3.16776e-07
2.45896e-08
3.19652e-07
4.68071e-08
3.20962e-07
4.34706e-08
3.21912e-07
3.77568e-08
3.22778e-07
3.59218e-08
3.23385e-07
3.43535e-08
3.23795e-07
3.20174e-08
3.24133e-07
2.98343e-08
3.24432e-07
2.81251e-08
3.24689e-07
2.66883e-08
3.2491e-07
2.53859e-08
3.25105e-07
2.42009e-08
3.25281e-07
2.31321e-08
3.25441e-07
2.21644e-08
3.25587e-07
2.12803e-08
3.25722e-07
2.0467e-08
3.25847e-07
1.97156e-08
3.25963e-07
1.90187e-08
3.26071e-07
1.83698e-08
3.26174e-07
1.77637e-08
3.2627e-07
1.71959e-08
3.26362e-07
1.66629e-08
3.26449e-07
1.61616e-08
3.26533e-07
1.56896e-08
3.26613e-07
1.52446e-08
3.2669e-07
1.48243e-08
3.26765e-07
1.44269e-08
3.26837e-07
1.40505e-08
3.26906e-07
1.36933e-08
3.26974e-07
1.33537e-08
3.27039e-07
1.30303e-08
3.27103e-07
1.27219e-08
3.27166e-07
1.24272e-08
3.27227e-07
1.21454e-08
3.27287e-07
1.18752e-08
3.27346e-07
1.16162e-08
3.27404e-07
1.1367e-08
3.2746e-07
1.11272e-08
3.27516e-07
1.08957e-08
3.2757e-07
1.06718e-08
3.27622e-07
1.0455e-08
3.27673e-07
1.02434e-08
3.27722e-07
1.00387e-08
3.27767e-07
9.83662e-09
3.27809e-07
9.64289e-09
3.27845e-07
9.45231e-09
3.27874e-07
9.27691e-09
3.27893e-07
9.12185e-09
3.27903e-07
9.0061e-09
8.9601e-09
3.27909e-07
3.26186e-07
2.22061e-08
3.28992e-07
4.40011e-08
3.30332e-07
4.21302e-08
3.31261e-07
3.68279e-08
3.32127e-07
3.50565e-08
3.32758e-07
3.37219e-08
3.33184e-07
3.15913e-08
3.33529e-07
2.94895e-08
3.33834e-07
2.78198e-08
3.34098e-07
2.6425e-08
3.34324e-07
2.51599e-08
3.34523e-07
2.40019e-08
3.34701e-07
2.29533e-08
3.34864e-07
2.20022e-08
3.35012e-07
2.11322e-08
3.35148e-07
2.03309e-08
3.35274e-07
1.95898e-08
3.35391e-07
1.89016e-08
3.355e-07
1.82604e-08
3.35603e-07
1.76608e-08
3.357e-07
1.70988e-08
3.35792e-07
1.65708e-08
3.3588e-07
1.60739e-08
3.35964e-07
1.56058e-08
3.36044e-07
1.51642e-08
3.36122e-07
1.47471e-08
3.36196e-07
1.43526e-08
3.36268e-07
1.39787e-08
3.36337e-07
1.36238e-08
3.36405e-07
1.32863e-08
3.3647e-07
1.29647e-08
3.36534e-07