/*--------------------------------*- C++ -*----------------------------------*\
  =========                 |
  \\      /  F ield         | OpenFOAM: The Open Source CFD Toolbox
   \\    /   O peration     | Website:  https://openfoam.org
    \\  /    A nd           | Version:  7
     \\/     M anipulation  |
\*---------------------------------------------------------------------------*/
FoamFile
{
    version     2.0;
    format      ascii;
    class       volVectorField;
    location    "0.04";
    object      U;
}
// * * * * * * * * * * * * * * * * * * * * * * * * * * * * * * * * * * * * * //

dimensions      [0 1 -1 0 0 0 0];

internalField   nonuniform List<vector> 
70000
(
(0.553412 0.0169782 0)
(0.251411 0.00340055 0)
(0.165913 0.000319117 0)
(0.132423 4.91537e-05 0)
(0.117311 4.41984e-05 0)
(0.107346 5.23605e-05 0)
(0.099369 4.45582e-05 0)
(0.0929195 3.54804e-05 0)
(0.0876701 2.94421e-05 0)
(0.0832958 2.53041e-05 0)
(0.0795686 2.21426e-05 0)
(0.0763408 1.96095e-05 0)
(0.0735109 1.75451e-05 0)
(0.0710049 1.58408e-05 0)
(0.0687663 1.44159e-05 0)
(0.0667517 1.32106e-05 0)
(0.0649266 1.21806e-05 0)
(0.0632636 1.12925e-05 0)
(0.0617405 1.05208e-05 0)
(0.060339 9.84564e-06 0)
(0.0590439 9.2516e-06 0)
(0.0578425 8.72617e-06 0)
(0.0567241 8.25934e-06 0)
(0.0556795 7.84293e-06 0)
(0.054701 7.47012e-06 0)
(0.0537818 7.13545e-06 0)
(0.0529161 6.83383e-06 0)
(0.0520988 6.56227e-06 0)
(0.0513254 6.31571e-06 0)
(0.050592 6.09472e-06 0)
(0.0498952 5.89151e-06 0)
(0.0492317 5.71309e-06 0)
(0.0485993 5.54435e-06 0)
(0.0479949 5.40442e-06 0)
(0.047417 5.26325e-06 0)
(0.0468631 5.15997e-06 0)
(0.0463317 5.04501e-06 0)
(0.0458217 4.97024e-06 0)
(0.0453295 4.90428e-06 0)
(0.0448599 4.8091e-06 0)
(0.0443979 4.90842e-06 0)
(0.0439712 4.58009e-06 0)
(0.043522 5.2896e-06 0)
(0.0431574 3.94199e-06 0)
(0.0426773 6.79647e-06 0)
(0.0424411 1.73672e-06 0)
(0.0418089 1.1875e-05 0)
(0.0418837 -5.99147e-06 0)
(0.040943 3.4799e-05 0)
(0.0386176 -0.00152359 0)
(0.884862 0.0434936 0)
(0.650139 0.0201497 0)
(0.493956 0.00660558 0)
(0.403521 0.00275575 0)
(0.354796 0.00154898 0)
(0.323467 0.00113272 0)
(0.299554 0.000910305 0)
(0.280332 0.000745716 0)
(0.264605 0.000623027 0)
(0.251472 0.000532559 0)
(0.24028 0.000463888 0)
(0.230588 0.000409858 0)
(0.22209 0.000366218 0)
(0.214563 0.00033032 0)
(0.207837 0.000300362 0)
(0.201783 0.000275053 0)
(0.196298 0.000253442 0)
(0.191299 0.000234816 0)
(0.186721 0.000218632 0)
(0.182507 0.00020447 0)
(0.178614 0.000191999 0)
(0.175002 0.000180954 0)
(0.17164 0.000171125 0)
(0.1685 0.000162335 0)
(0.165559 0.000154444 0)
(0.162797 0.000147332 0)
(0.160196 0.000140898 0)
(0.157741 0.000135062 0)
(0.155419 0.000129747 0)
(0.153217 0.000124901 0)
(0.151126 0.000120457 0)
(0.149137 0.000116394 0)
(0.147241 0.000112633 0)
(0.145431 0.000109202 0)
(0.143701 0.000105969 0)
(0.142045 0.000103067 0)
(0.140458 0.000100223 0)
(0.138937 9.77836e-05 0)
(0.137472 9.52055e-05 0)
(0.136077 9.31704e-05 0)
(0.13471 9.07971e-05 0)
(0.133446 8.89733e-05 0)
(0.132133 8.70806e-05 0)
(0.131054 8.45492e-05 0)
(0.129685 8.4859e-05 0)
(0.128965 7.73878e-05 0)
(0.127247 9.00704e-05 0)
(0.127335 3.87415e-05 0)
(0.124914 0.000280158 0)
(0.123137 -0.00250335 0)
(0.991208 0.0499563 0)
(0.890917 0.0305642 0)
(0.762472 0.0146126 0)
(0.656498 0.00797305 0)
(0.585375 0.00488201 0)
(0.535984 0.00347704 0)
(0.49807 0.00274089 0)
(0.467418 0.00224661 0)
(0.442082 0.00188291 0)
(0.420754 0.00161134 0)
(0.402484 0.001404 0)
(0.386603 0.00124084 0)
(0.372637 0.00110912 0)
(0.360235 0.00100076 0)
(0.349132 0.000910284 0)
(0.339121 0.000833807 0)
(0.330036 0.00076847 0)
(0.321747 0.000712129 0)
(0.314147 0.000663152 0)
(0.307146 0.000620271 0)
(0.300672 0.000582491 0)
(0.294662 0.000549016 0)
(0.289064 0.000519206 0)
(0.283833 0.000492537 0)
(0.278932 0.000468578 0)
(0.274327 0.000446969 0)
(0.26999 0.000427411 0)
(0.265894 0.000409651 0)
(0.26202 0.000393471 0)
(0.258346 0.000378692 0)
(0.254857 0.000365138 0)
(0.251536 0.000352703 0)
(0.248371 0.000341203 0)
(0.24535 0.000330639 0)
(0.242463 0.000320719 0)
(0.239699 0.000311689 0)
(0.237051 0.000302911 0)
(0.234514 0.000295213 0)
(0.232071 0.000287091 0)
(0.229742 0.000280693 0)
(0.227468 0.000272591 0)
(0.225356 0.000267628 0)
(0.223187 0.000258742 0)
(0.221364 0.00025513 0)
(0.219145 0.000245316 0)
(0.217856 0.000238988 0)
(0.215196 0.000241736 0)
(0.215036 0.00015652 0)
(0.211383 0.000476637 0)
(0.211253 -0.00237766 0)
(1.01554 0.0489546 0)
(1.00649 0.0357264 0)
(0.935872 0.0208224 0)
(0.851982 0.0135022 0)
(0.782187 0.00920204 0)
(0.727017 0.00678765 0)
(0.681903 0.00539156 0)
(0.644117 0.00445031 0)
(0.612078 0.00375562 0)
(0.584591 0.00322973 0)
(0.560718 0.00282357 0)
(0.539751 0.00250178 0)
(0.521162 0.00224086 0)
(0.504546 0.00202543 0)
(0.489589 0.001845 0)
(0.476041 0.00169207 0)
(0.463701 0.0015611 0)
(0.452406 0.00144794 0)
(0.442019 0.00134939 0)
(0.432429 0.00126296 0)
(0.423541 0.00118671 0)
(0.415276 0.00111906 0)
(0.407565 0.00105874 0)
(0.400349 0.00100472 0)
(0.39358 0.000956137 0)
(0.387212 0.00091228 0)
(0.381209 0.000872551 0)
(0.375535 0.000836443 0)
(0.370163 0.000803523 0)
(0.365066 0.000773425 0)
(0.360221 0.000745811 0)
(0.355608 0.000720438 0)
(0.351209 0.000696978 0)
(0.347008 0.000675364 0)
(0.342991 0.000655107 0)
(0.339144 0.000636551 0)
(0.335456 0.000618608 0)
(0.331921 0.000602697 0)
(0.328519 0.000586022 0)
(0.325269 0.000572782 0)
(0.322105 0.000555796 0)
(0.319146 0.000546006 0)
(0.316142 0.000525967 0)
(0.313553 0.000521364 0)
(0.310537 0.000494399 0)
(0.308579 0.000492928 0)
(0.305138 0.000471999 0)
(0.30443 0.000371566 0)
(0.299938 0.000661648 0)
(0.300219 -0.00184989 0)
(1.01435 0.0460991 0)
(1.04798 0.037344 0)
(1.02455 0.024191 0)
(0.974655 0.0175627 0)
(0.923442 0.0131148 0)
(0.876693 0.0102115 0)
(0.834508 0.00835156 0)
(0.796738 0.00702868 0)
(0.76316 0.00601762 0)
(0.733331 0.00522985 0)
(0.706736 0.00460782 0)
(0.682906 0.00410713 0)
(0.66144 0.00369636 0)
(0.642007 0.00335406 0)
(0.624329 0.00306519 0)
(0.608175 0.00281878 0)
(0.593353 0.00260663 0)
(0.579699 0.00242247 0)
(0.567076 0.00226145 0)
(0.555366 0.00211975 0)
(0.544469 0.00199435 0)
(0.534298 0.00188279 0)
(0.524779 0.00178308 0)
(0.515848 0.00169359 0)
(0.507446 0.00161295 0)
(0.499526 0.00154003 0)
(0.492043 0.00147386 0)
(0.484959 0.00141364 0)
(0.47824 0.00135867 0)
(0.471856 0.00130834 0)
(0.465779 0.00126213 0)
(0.459986 0.0012196 0)
(0.454455 0.00118028 0)
(0.449167 0.00114397 0)
(0.444106 0.00110998 0)
(0.439254 0.00107872 0)
(0.4346 0.00104862 0)
(0.430132 0.0010217 0)
(0.425832 0.000993758 0)
(0.421714 0.000971229 0)
(0.417714 0.000942741 0)
(0.413945 0.000926066 0)
(0.410163 0.000892084 0)
(0.406814 0.000884864 0)
(0.403083 0.000837646 0)
(0.400392 0.000839163 0)
(0.396344 0.000790849 0)
(0.394833 0.000679244 0)
(0.38997 0.00091105 0)
(0.38941 -0.0012511 0)
(1.00941 0.0430489 0)
(1.05563 0.0370999 0)
(1.05866 0.0253332 0)
(1.03628 0.0197688 0)
(1.00709 0.0158044 0)
(0.97606 0.012941 0)
(0.944513 0.0109699 0)
(0.913625 0.00948646 0)
(0.884253 0.0082948 0)
(0.85678 0.0073267 0)
(0.831284 0.00653667 0)
(0.8077 0.00588433 0)
(0.785909 0.00533831 0)
(0.765766 0.00487592 0)
(0.747125 0.00448048 0)
(0.729844 0.00413941 0)
(0.713793 0.003843 0)
(0.698851 0.00358363 0)
(0.684912 0.00335529 0)
(0.671879 0.00315314 0)
(0.659667 0.00297329 0)
(0.648201 0.00281256 0)
(0.637411 0.00266831 0)
(0.627239 0.00253835 0)
(0.61763 0.00242087 0)
(0.608537 0.00231432 0)
(0.599916 0.00221738 0)
(0.591729 0.00212893 0)
(0.583942 0.00204802 0)
(0.576523 0.00197381 0)
(0.569446 0.00190554 0)
(0.562684 0.00184262 0)
(0.556216 0.00178436 0)
(0.550019 0.00173048 0)
(0.544079 0.00168004 0)
(0.538375 0.0016335 0)
(0.532895 0.00158883 0)
(0.527625 0.00154858 0)
(0.522549 0.00150723 0)
(0.517676 0.00147325 0)
(0.512947 0.00143143 0)
(0.508459 0.00140563 0)
(0.504002 0.00135648 0)
(0.499954 0.00134352 0)
(0.495621 0.00127683 0)
(0.492202 0.00127465 0)
(0.487709 0.00120456 0)
(0.48529 0.00107204 0)
(0.480337 0.00125659 0)
(0.478544 -0.00059827 0)
(1.00635 0.0401811 0)
(1.05241 0.0361537 0)
(1.06604 0.0252575 0)
(1.05951 0.0205749 0)
(1.04686 0.0172329 0)
(1.0308 0.014661 0)
(1.01188 0.0128306 0)
(0.991173 0.0114046 0)
(0.969745 0.0102066 0)
(0.948323 0.00919041 0)
(0.92735 0.00833004 0)
(0.907091 0.00759729 0)
(0.88769 0.00696777 0)
(0.869217 0.00642279 0)
(0.85169 0.00594796 0)
(0.835096 0.00553185 0)
(0.819402 0.00516526 0)
(0.804564 0.00484069 0)
(0.790534 0.004552 0)
(0.777261 0.00429413 0)
(0.764695 0.00406291 0)
(0.752787 0.00385481 0)
(0.741492 0.00366689 0)
(0.730764 0.00349665 0)
(0.720564 0.00334199 0)
(0.710855 0.00320108 0)
(0.701602 0.00307238 0)
(0.692772 0.00295451 0)
(0.684336 0.00284634 0)
(0.676268 0.00274681 0)
(0.668542 0.00265503 0)
(0.661136 0.0025702 0)
(0.65403 0.00249153 0)
(0.647203 0.00241858 0)
(0.64064 0.00235025 0)
(0.634323 0.00228699 0)
(0.62824 0.00222639 0)
(0.622377 0.0021714 0)
(0.61672 0.00211546 0)
(0.61127 0.00206854 0)
(0.605986 0.00201257 0)
(0.600935 0.00197572 0)
(0.595956 0.00191162 0)
(0.591339 0.00188936 0)
(0.58655 0.00180636 0)
(0.582501 0.00179243 0)
(0.577703 0.00170908 0)
(0.574455 0.00154674 0)
(0.569491 0.00169363 0)
(0.566626 0.00012459 0)
(1.00506 0.0375041 0)
(1.04762 0.0350559 0)
(1.06394 0.0247109 0)
(1.06416 0.0206072 0)
(1.06066 0.0177726 0)
(1.05474 0.0155037 0)
(1.04597 0.013889 0)
(1.03476 0.0126284 0)
(1.02183 0.0115413 0)
(1.00778 0.0105883 0)
(0.993078 0.00975555 0)
(0.978069 0.00902538 0)
(0.963022 0.00838108 0)
(0.948129 0.00780967 0)
(0.933527 0.00730097 0)
(0.919307 0.00684662 0)
(0.905526 0.00643954 0)
(0.892219 0.00607372 0)
(0.879402 0.00574402 0)
(0.867077 0.00544607 0)
(0.855239 0.00517609 0)
(0.843876 0.00493084 0)
(0.832974 0.00470752 0)
(0.822514 0.0045037 0)
(0.812476 0.00431726 0)
(0.802841 0.00414635 0)
(0.793588 0.00398938 0)
(0.784698 0.0038449 0)
(0.776152 0.00371168 0)
(0.767931 0.0035886 0)
(0.760018 0.00347467 0)
(0.752395 0.003369 0)
(0.745048 0.00327071 0)
(0.73796 0.00317928 0)
(0.731121 0.00309348 0)
(0.724514 0.00301376 0)
(0.718131 0.00293745 0)
(0.711958 0.00286772 0)
(0.705986 0.00279734 0)
(0.700212 0.00273717 0)
(0.694607 0.00266746 0)
(0.689216 0.00261856 0)
(0.683925 0.00254092 0)
(0.678939 0.00250662 0)
(0.673877 0.0024113 0)
(0.669384 0.00237964 0)
(0.66442 0.00228948 0)
(0.660555 0.0020964 0)
(0.655606 0.00220711 0)
(0.65198 0.000908436 0)
(1.00451 0.0349685 0)
(1.04359 0.0339766 0)
(1.05992 0.024061 0)
(1.06221 0.0203191 0)
(1.06248 0.017839 0)
(1.0618 0.0157849 0)
(1.05922 0.0143443 0)
(1.05465 0.0132497 0)
(1.04841 0.012305 0)
(1.04083 0.0114641 0)
(1.03217 0.0107159 0)
(1.02269 0.0100467 0)
(1.01262 0.00944359 0)
(1.00216 0.00889738 0)
(0.99147 0.00840121 0)
(0.980683 0.00794959 0)
(0.9699 0.00753783 0)
(0.959201 0.00716181 0)
(0.948646 0.00681791 0)
(0.93828 0.00650295 0)
(0.928134 0.00621408 0)
(0.918232 0.00594876 0)
(0.908585 0.00570474 0)
(0.899203 0.00547997 0)
(0.890088 0.00527265 0)
(0.881241 0.00508116 0)
(0.872659 0.00490404 0)
(0.864336 0.00473997 0)
(0.856267 0.00458781 0)
(0.848445 0.00444647 0)
(0.840861 0.00431499 0)
(0.833507 0.0041925 0)
(0.826376 0.00407809 0)
(0.819458 0.00397124 0)
(0.812747 0.00387068 0)
(0.806232 0.00377685 0)
(0.799909 0.00368696 0)
(0.793767 0.00360428 0)
(0.787803 0.00352128 0)
(0.78201 0.00344908 0)
(0.776374 0.00336745 0)
(0.77092 0.00330693 0)
(0.765574 0.00321823 0)
(0.760473 0.00317088 0)
(0.755359 0.00306727 0)
(0.750669 0.00301539 0)
(0.745707 0.00292215 0)
(0.741499 0.00270398 0)
(0.736637 0.00277807 0)
(0.732569 0.00172759 0)
(1.00412 0.0325381 0)
(1.04026 0.0329238 0)
(1.05616 0.0234274 0)
(1.05885 0.0199359 0)
(1.06021 0.0177115 0)
(1.06158 0.0157893 0)
(1.06193 0.0144503 0)
(1.06102 0.0134713 0)
(1.05894 0.0126428 0)
(1.0558 0.0119078 0)
(1.05169 0.0112527 0)
(1.04673 0.0106634 0)
(1.04103 0.0101273 0)
(1.03473 0.00963547 0)
(1.02794 0.00918241 0)
(1.02078 0.00876394 0)
(1.01334 0.00837678 0)
(1.0057 0.00801814 0)
(0.99793 0.00768563 0)
(0.990099 0.00737712 0)
(0.982252 0.00709069 0)
(0.974428 0.00682461 0)
(0.966661 0.00657729 0)
(0.958975 0.00634723 0)
(0.95139 0.00613309 0)
(0.943922 0.00593362 0)
(0.936583 0.00574766 0)
(0.929381 0.00557415 0)
(0.922321 0.00541214 0)
(0.915407 0.0052607 0)
(0.908642 0.00511901 0)
(0.902026 0.00498629 0)
(0.895559 0.00486171 0)
(0.889239 0.00474481 0)
(0.883065 0.00463436 0)
(0.877033 0.00453081 0)
(0.871144 0.00443139 0)
(0.865391 0.00433936 0)
(0.859775 0.0042472 0)
(0.854291 0.00416587 0)
(0.848934 0.00407554 0)
(0.843718 0.00400547 0)
(0.838598 0.00390916 0)
(0.833664 0.00384978 0)
(0.828747 0.00374191 0)
(0.824134 0.0036707 0)
(0.819376 0.00357673 0)
(0.815112 0.00334245 0)
(0.81047 0.00338154 0)
(0.806269 0.00255081 0)
(1.00374 0.0302041 0)
(1.03727 0.0318753 0)
(1.05282 0.0228249 0)
(1.05561 0.019535 0)
(1.05712 0.0175226 0)
(1.05904 0.0156893 0)
(1.06046 0.0143983 0)
(1.06114 0.0134829 0)
(1.06112 0.0127281 0)
(1.06046 0.0120675 0)
(1.05913 0.0114848 0)
(1.05716 0.0109647 0)
(1.05458 0.0104929 0)
(1.05144 0.0100595 0)
(1.04781 0.0096585 0)
(1.04373 0.0092856 0)
(1.03927 0.00893773 0)
(1.0345 0.00861251 0)
(1.02946 0.00830801 0)
(1.0242 0.00802265 0)
(1.01878 0.00775508 0)
(1.01323 0.00750408 0)
(1.00759 0.00726856 0)
(1.00189 0.00704751 0)
(0.996152 0.00683998 0)
(0.990403 0.00664507 0)
(0.98466 0.00646197 0)
(0.97894 0.00628986 0)
(0.973257 0.00612804 0)
(0.96762 0.00597578 0)
(0.96204 0.00583245 0)
(0.956524 0.00569741 0)
(0.951078 0.00556998 0)
(0.945705 0.00544978 0)
(0.940412 0.00533567 0)
(0.935198 0.00522819 0)
(0.930068 0.00512461 0)
(0.925021 0.00502817 0)
(0.92006 0.00493157 0)
(0.915186 0.00484529 0)
(0.910396 0.00475058 0)
(0.905703 0.0046744 0)
(0.901077 0.00457475 0)
(0.896581 0.00450607 0)
(0.892105 0.00439807 0)
(0.887832 0.00431108 0)
(0.883488 0.00421823 0)
(0.879444 0.00397841 0)
(0.875184 0.00398644 0)
(0.871135 0.00334497 0)
(1.00337 0.0279688 0)
(1.03443 0.0308187 0)
(1.04971 0.0222474 0)
(1.05265 0.0191314 0)
(1.05412 0.0173153 0)
(1.05609 0.0155603 0)
(1.05779 0.0142916 0)
(1.05899 0.0134072 0)
(1.05979 0.0126933 0)
(1.06023 0.012076 0)
(1.06029 0.0115385 0)
(1.05996 0.0110651 0)
(1.05923 0.0106404 0)
(1.0581 0.0102536 0)
(1.05658 0.00989727 0)
(1.0547 0.00956669 0)
(1.05248 0.00925826 0)
(1.04994 0.00896932 0)
(1.04712 0.00869783 0)
(1.04405 0.00844222 0)
(1.04076 0.00820124 0)
(1.03728 0.00797384 0)
(1.03363 0.00775914 0)
(1.02985 0.00755634 0)
(1.02595 0.00736472 0)
(1.02195 0.00718361 0)
(1.01788 0.00701239 0)
(1.01375 0.00685046 0)
(1.00957 0.00669731 0)
(1.00537 0.00655236 0)
(1.00115 0.00641516 0)
(0.996919 0.0062852 0)
(0.992691 0.00616191 0)
(0.988473 0.00604506 0)
(0.984272 0.0059336 0)
(0.980092 0.00582812 0)
(0.975941 0.00572603 0)
(0.971821 0.0056305 0)
(0.967737 0.00553457 0)
(0.963693 0.00544807 0)
(0.959689 0.00535374 0)
(0.955737 0.00527558 0)
(0.951819 0.00517715 0)
(0.947976 0.00510299 0)
(0.944144 0.00499886 0)
(0.94043 0.00490134 0)
(0.936679 0.00481142 0)
(0.933087 0.00457665 0)
(0.929362 0.00455958 0)
(0.925704 0.00407747 0)
(1.00301 0.0258357 0)
(1.03171 0.0297501 0)
(1.04672 0.0216911 0)
(1.04985 0.0187249 0)
(1.0513 0.0170962 0)
(1.05324 0.0154243 0)
(1.05497 0.0141712 0)
(1.05628 0.0133032 0)
(1.05731 0.0126125 0)
(1.05815 0.0120192 0)
(1.05877 0.0115064 0)
(1.05918 0.0110598 0)
(1.05935 0.0106639 0)
(1.05929 0.0103072 0)
(1.05897 0.00998188 0)
(1.05841 0.00968244 0)
(1.0576 0.00940483 0)
(1.05656 0.00914595 0)
(1.05529 0.00890342 0)
(1.0538 0.00867542 0)
(1.05211 0.00846051 0)
(1.05023 0.00825756 0)
(1.04819 0.00806564 0)
(1.04599 0.00788397 0)
(1.04364 0.00771186 0)
(1.04118 0.00754868 0)
(1.0386 0.00739391 0)
(1.03592 0.00724702 0)
(1.03316 0.00710756 0)
(1.03032 0.00697508 0)
(1.02742 0.00684917 0)
(1.02447 0.00672946 0)
(1.02148 0.00661544 0)
(1.01844 0.00650697 0)
(1.01539 0.00640307 0)
(1.0123 0.00630442 0)
(1.00921 0.0062085 0)
(1.0061 0.0061184 0)
(1.003 0.00602762 0)
(0.999886 0.0059451 0)
(0.99678 0.00585545 0)
(0.993687 0.00577926 0)
(0.990596 0.00568618 0)
(0.987535 0.00561061 0)
(0.98447 0.00551372 0)
(0.981456 0.00541153 0)
(0.978415 0.00532629 0)
(0.975434 0.00510578 0)
(0.972355 0.00507091 0)
(0.969256 0.00472031 0)
(1.00268 0.0238075 0)
(1.02911 0.0286676 0)
(1.04381 0.0211556 0)
(1.04716 0.0183154 0)
(1.04861 0.0168638 0)
(1.05051 0.015284 0)
(1.05224 0.0140481 0)
(1.05356 0.0131919 0)
(1.05463 0.0125178 0)
(1.05555 0.0119397 0)
(1.05635 0.0114407 0)
(1.05703 0.0110085 0)
(1.05756 0.0106285 0)
(1.05796 0.010289 0)
(1.05822 0.00998207 0)
(1.05833 0.00970204 0)
(1.05829 0.00944459 0)
(1.0581 0.00920636 0)
(1.05775 0.00898468 0)
(1.05724 0.00877748 0)
(1.05659 0.00858312 0)
(1.0558 0.00840028 0)
(1.05486 0.00822791 0)
(1.0538 0.00806511 0)
(1.05261 0.00791113 0)
(1.0513 0.00776531 0)
(1.04989 0.00762706 0)
(1.04837 0.00749584 0)
(1.04676 0.00737121 0)
(1.04506 0.00725272 0)
(1.04329 0.00713998 0)
(1.04144 0.00703265 0)
(1.03953 0.00693024 0)
(1.03756 0.00683267 0)
(1.03555 0.00673897 0)
(1.03348 0.00664985 0)
(1.03138 0.00656293 0)
(1.02924 0.00648109 0)
(1.02708 0.00639837 0)
(1.02489 0.00632272 0)
(1.02267 0.00624075 0)
(1.02044 0.00616947 0)
(1.01819 0.00608467 0)
(1.01594 0.00601113 0)
(1.01366 0.00592378 0)
(1.0114 0.00582227 0)
(1.0091 0.00574311 0)
(1.0068 0.00554375 0)
(1.00441 0.00549859 0)
(1.00195 0.00525442 0)
(1.00238 0.0218859 0)
(1.02664 0.0275706 0)
(1.04098 0.0206405 0)
(1.04455 0.0179045 0)
(1.04602 0.0166168 0)
(1.04789 0.0151378 0)
(1.04962 0.0139236 0)
(1.05093 0.0130782 0)
(1.05199 0.0124192 0)
(1.05292 0.0118537 0)
(1.05375 0.0113643 0)
(1.05449 0.0109409 0)
(1.05514 0.0105699 0)
(1.05571 0.01024 0)
(1.05619 0.00994326 0)
(1.05658 0.00967419 0)
(1.05689 0.00942846 0)
(1.0571 0.00920262 0)
(1.05723 0.00899392 0)
(1.05725 0.00880015 0)
(1.05718 0.00861955 0)
(1.05702 0.00845068 0)
(1.05676 0.00829237 0)
(1.0564 0.00814364 0)
(1.05596 0.00800364 0)
(1.05542 0.00787163 0)
(1.0548 0.00774696 0)
(1.0541 0.00762904 0)
(1.05331 0.00751736 0)
(1.05245 0.00741144 0)
(1.05152 0.00731086 0)
(1.05052 0.00721526 0)
(1.04946 0.00712415 0)
(1.04834 0.00703745 0)
(1.04716 0.00695419 0)
(1.04593 0.00687507 0)
(1.04466 0.00679781 0)
(1.04334 0.00672506 0)
(1.04198 0.00665142 0)
(1.04058 0.00658375 0)
(1.03915 0.00651075 0)
(1.03769 0.00644585 0)
(1.0362 0.00637067 0)
(1.03468 0.00630143 0)
(1.03314 0.00622445 0)
(1.03157 0.00612772 0)
(1.02997 0.00605539 0)
(1.02833 0.00588127 0)
(1.0266 0.00583247 0)
(1.02478 0.00567265 0)
(1.0021 0.0200718 0)
(1.0243 0.0264608 0)
(1.03825 0.0201437 0)
(1.04203 0.017494 0)
(1.04352 0.0163552 0)
(1.04536 0.0149845 0)
(1.04708 0.013797 0)
(1.0484 0.0129626 0)
(1.04945 0.0123185 0)
(1.05036 0.0117655 0)
(1.05118 0.0112848 0)
(1.05193 0.0108683 0)
(1.0526 0.0105037 0)
(1.0532 0.0101799 0)
(1.05375 0.00988931 0)
(1.05424 0.00962655 0)
(1.05468 0.00938743 0)
(1.05506 0.0091686 0)
(1.05538 0.00896732 0)
(1.05565 0.00878137 0)
(1.05586 0.00860897 0)
(1.05601 0.00844864 0)
(1.0561 0.00829916 0)
(1.05614 0.00815952 0)
(1.05611 0.00802883 0)
(1.05603 0.00790628 0)
(1.05588 0.00779117 0)
(1.05568 0.00768287 0)
(1.05542 0.0075808 0)
(1.0551 0.00748446 0)
(1.05473 0.00739336 0)
(1.0543 0.00730714 0)
(1.05382 0.00722525 0)
(1.0533 0.00714762 0)
(1.05273 0.00707327 0)
(1.05211 0.00700284 0)
(1.05145 0.00693419 0)
(1.05075 0.00686964 0)
(1.05001 0.00680445 0)
(1.04923 0.00674427 0)
(1.04842 0.00667992 0)
(1.04757 0.00662144 0)
(1.04669 0.00655563 0)
(1.04578 0.00649164 0)
(1.04484 0.00642449 0)
(1.04386 0.00633502 0)
(1.04284 0.00626953 0)
(1.04177 0.00612195 0)
(1.04061 0.0060747 0)
(1.03935 0.00598012 0)
(1.00185 0.0183654 0)
(1.0221 0.0253425 0)
(1.03562 0.0196614 0)
(1.03959 0.0170857 0)
(1.04111 0.0160795 0)
(1.04292 0.0148232 0)
(1.04464 0.013668 0)
(1.04596 0.0128448 0)
(1.04699 0.0122157 0)
(1.0479 0.0116759 0)
(1.0487 0.0112041 0)
(1.04944 0.0107942 0)
(1.0501 0.0104352 0)
(1.0507 0.0101164 0)
(1.05126 0.0098304 0)
(1.05177 0.00957194 0)
(1.05224 0.00933702 0)
(1.05267 0.00912241 0)
(1.05306 0.00892546 0)
(1.05342 0.00874399 0)
(1.05374 0.00857624 0)
(1.05403 0.00842078 0)
(1.05428 0.00827639 0)
(1.0545 0.00814207 0)
(1.05468 0.00801691 0)
(1.05482 0.00790011 0)
(1.05492 0.00779095 0)
(1.05499 0.00768877 0)
(1.05502 0.00759295 0)
(1.05501 0.00750298 0)
(1.05497 0.00741832 0)
(1.05489 0.0073386 0)
(1.05477 0.00726323 0)
(1.05462 0.00719214 0)
(1.05444 0.00712435 0)
(1.05422 0.00706043 0)
(1.05396 0.00699838 0)
(1.05368 0.00694019 0)
(1.05336 0.00688177 0)
(1.05302 0.00682761 0)
(1.05264 0.00677048 0)
(1.05223 0.00671743 0)
(1.0518 0.00665963 0)
(1.05133 0.00660074 0)
(1.05084 0.00654191 0)
(1.0503 0.00646069 0)
(1.04973 0.00640144 0)
(1.0491 0.00627945 0)
(1.04839 0.00623721 0)
(1.04759 0.00619171 0)
(1.00162 0.0167666 0)
(1.02004 0.0242199 0)
(1.03309 0.0191895 0)
(1.03724 0.0166813 0)
(1.03879 0.015791 0)
(1.04056 0.0146532 0)
(1.04228 0.0135362 0)
(1.0436 0.0127247 0)
(1.04463 0.0121106 0)
(1.04552 0.0115846 0)
(1.04632 0.0111223 0)
(1.04703 0.0107193 0)
(1.04768 0.0103658 0)
(1.04828 0.0100519 0)
(1.04882 0.00977001 0)
(1.04933 0.0095152 0)
(1.0498 0.0092836 0)
(1.05024 0.00907208 0)
(1.05065 0.00887807 0)
(1.05103 0.00869947 0)
(1.05138 0.00853457 0)
(1.05172 0.00838197 0)
(1.05202 0.0082405 0)
(1.05231 0.00810919 0)
(1.05257 0.00798716 0)
(1.05281 0.00787363 0)
(1.05303 0.00776788 0)
(1.05322 0.00766924 0)
(1.05339 0.00757709 0)
(1.05354 0.00749091 0)
(1.05367 0.00741014 0)
(1.05377 0.00733442 0)
(1.05385 0.00726313 0)
(1.05391 0.00719619 0)
(1.05394 0.00713265 0)
(1.05395 0.00707299 0)
(1.05394 0.0070154 0)
(1.05391 0.0069615 0)
(1.05385 0.00690789 0)
(1.05377 0.00685793 0)
(1.05367 0.00680617 0)
(1.05355 0.00675713 0)
(1.0534 0.00670547 0)
(1.05323 0.00665093 0)
(1.05304 0.0065985 0)
(1.05281 0.00652542 0)
(1.05254 0.00647154 0)
(1.05222 0.00637268 0)
(1.05182 0.00633742 0)
(1.05135 0.00632772 0)
(1.00142 0.0152745 0)
(1.01811 0.0230969 0)
(1.03066 0.018724 0)
(1.03498 0.0162822 0)
(1.03656 0.0154909 0)
(1.0383 0.014474 0)
(1.04001 0.0134013 0)
(1.04133 0.0126024 0)
(1.04236 0.0120031 0)
(1.04324 0.0114916 0)
(1.04402 0.0110393 0)
(1.04473 0.0106434 0)
(1.04536 0.0102958 0)
(1.04595 0.00998672 0)
(1.04648 0.00970902 0)
(1.04698 0.00945778 0)
(1.04744 0.00922929 0)
(1.04787 0.00902052 0)
(1.04827 0.00882899 0)
(1.04865 0.00865265 0)
(1.04901 0.00848983 0)
(1.04935 0.0083392 0)
(1.04967 0.00819963 0)
(1.04997 0.00807018 0)
(1.05026 0.00795001 0)
(1.05054 0.00783837 0)
(1.05079 0.00773455 0)
(1.05104 0.0076379 0)
(1.05127 0.00754781 0)
(1.05148 0.00746374 0)
(1.05168 0.00738515 0)
(1.05186 0.00731166 0)
(1.05203 0.00724268 0)
(1.05219 0.0071781 0)
(1.05233 0.00711703 0)
(1.05246 0.00705984 0)
(1.05258 0.00700495 0)
(1.05268 0.00695362 0)
(1.05276 0.00690307 0)
(1.05284 0.00685569 0)
(1.05289 0.00680756 0)
(1.05293 0.00676117 0)
(1.05296 0.00671383 0)
(1.05296 0.00666272 0)
(1.05294 0.00661485 0)
(1.0529 0.00654928 0)
(1.05282 0.00649992 0)
(1.05269 0.00642106 0)
(1.0525 0.00639363 0)
(1.05225 0.00640923 0)
(1.00124 0.0138877 0)
(1.01632 0.0219777 0)
(1.02835 0.0182613 0)
(1.03281 0.0158896 0)
(1.03443 0.0151808 0)
(1.03613 0.014285 0)
(1.03782 0.0132629 0)
(1.03915 0.012478 0)
(1.04018 0.0118932 0)
(1.04104 0.0113966 0)
(1.04182 0.010955 0)
(1.04251 0.0105666 0)
(1.04314 0.0102249 0)
(1.04371 0.00992098 0)
(1.04423 0.00964758 0)
(1.04471 0.00939998 0)
(1.04516 0.00917462 0)
(1.04558 0.00896858 0)
(1.04598 0.00877943 0)
(1.04635 0.00860518 0)
(1.0467 0.00844422 0)
(1.04704 0.00829524 0)
(1.04735 0.00815717 0)
(1.04766 0.00802911 0)
(1.04795 0.00791026 0)
(1.04823 0.00779988 0)
(1.04849 0.00769729 0)
(1.04875 0.00760185 0)
(1.04899 0.00751296 0)
(1.04923 0.00743009 0)
(1.04945 0.00735269 0)
(1.04967 0.00728042 0)
(1.04988 0.00721267 0)
(1.05007 0.00714933 0)
(1.05026 0.00708958 0)
(1.05044 0.00703369 0)
(1.05061 0.0069803 0)
(1.05077 0.00693033 0)
(1.05093 0.00688158 0)
(1.05107 0.00683564 0)
(1.0512 0.0067898 0)
(1.05133 0.00674505 0)
(1.05144 0.00670054 0)
(1.05153 0.00665213 0)
(1.05161 0.00660741 0)
(1.05167 0.0065485 0)
(1.05169 0.00650312 0)
(1.05168 0.00644103 0)
(1.05161 0.0064216 0)
(1.05149 0.00645455 0)
(1.00107 0.0126043 0)
(1.01466 0.0208662 0)
(1.02614 0.0177978 0)
(1.03072 0.0155044 0)
(1.0324 0.0148626 0)
(1.03405 0.0140857 0)
(1.03573 0.0131205 0)
(1.03706 0.0123513 0)
(1.03808 0.0117808 0)
(1.03894 0.0112994 0)
(1.03971 0.0108693 0)
(1.04039 0.0104887 0)
(1.04101 0.0101533 0)
(1.04157 0.00985457 0)
(1.04208 0.00958563 0)
(1.04255 0.00934181 0)
(1.04299 0.00911967 0)
(1.0434 0.00891641 0)
(1.04378 0.00872967 0)
(1.04414 0.00855752 0)
(1.04449 0.00839838 0)
(1.04481 0.00825099 0)
(1.04512 0.00811432 0)
(1.04542 0.00798751 0)
(1.0457 0.00786977 0)
(1.04598 0.00776042 0)
(1.04624 0.00765878 0)
(1.04649 0.00756423 0)
(1.04674 0.00747616 0)
(1.04697 0.00739407 0)
(1.0472 0.00731741 0)
(1.04743 0.00724584 0)
(1.04764 0.00717877 0)
(1.04785 0.00711609 0)
(1.04805 0.00705703 0)
(1.04825 0.00700178 0)
(1.04844 0.0069492 0)
(1.04862 0.00689988 0)
(1.0488 0.00685217 0)
(1.04898 0.00680696 0)
(1.04914 0.00676253 0)
(1.0493 0.00671883 0)
(1.04945 0.00667616 0)
(1.04958 0.00662996 0)
(1.04971 0.00658747 0)
(1.04981 0.00653447 0)
(1.04989 0.0064928 0)
(1.04993 0.0064446 0)
(1.04992 0.00643292 0)
(1.04988 0.00647746 0)
(1.00093 0.0114214 0)
(1.01313 0.0197665 0)
(1.02404 0.0173304 0)
(1.02872 0.0151272 0)
(1.03045 0.0145383 0)
(1.03207 0.0138759 0)
(1.03373 0.0129735 0)
(1.03506 0.0122226 0)
(1.03608 0.0116659 0)
(1.03693 0.0112001 0)
(1.03769 0.010782 0)
(1.03836 0.0104097 0)
(1.03897 0.0100807 0)
(1.03952 0.00978743 0)
(1.04002 0.00952312 0)
(1.04048 0.0092832 0)
(1.04091 0.00906439 0)
(1.04131 0.008864 0)
(1.04168 0.00867975 0)
(1.04204 0.00850975 0)
(1.04237 0.00835246 0)
(1.04268 0.00820668 0)
(1.04299 0.00807141 0)
(1.04327 0.00794581 0)
(1.04355 0.00782916 0)
(1.04382 0.00772077 0)
(1.04407 0.00762 0)
(1.04432 0.00752622 0)
(1.04456 0.00743885 0)
(1.04479 0.00735739 0)
(1.04501 0.00728128 0)
(1.04523 0.00721019 0)
(1.04545 0.00714357 0)
(1.04565 0.00708128 0)
(1.04586 0.00702262 0)
(1.04606 0.0069677 0)
(1.04625 0.00691557 0)
(1.04644 0.00686657 0)
(1.04662 0.00681947 0)
(1.0468 0.00677467 0)
(1.04698 0.00673114 0)
(1.04714 0.0066882 0)
(1.04731 0.00664679 0)
(1.04746 0.00660253 0)
(1.04759 0.00656183 0)
(1.04772 0.00651412 0)
(1.04781 0.00647614 0)
(1.04788 0.00643941 0)
(1.04791 0.00643504 0)
(1.0479 0.00648713 0)
(1.0008 0.010336 0)
(1.01173 0.0186828 0)
(1.02206 0.0168566 0)
(1.0268 0.0147583 0)
(1.0286 0.0142099 0)
(1.03018 0.0136554 0)
(1.03181 0.0128213 0)
(1.03315 0.0120916 0)
(1.03417 0.0115485 0)
(1.03501 0.0110984 0)
(1.03576 0.0106929 0)
(1.03642 0.0103294 0)
(1.03702 0.0100071 0)
(1.03756 0.00971947 0)
(1.03805 0.00945995 0)
(1.03851 0.00922409 0)
(1.03893 0.00900873 0)
(1.03932 0.00881131 0)
(1.03968 0.00862962 0)
(1.04002 0.00846182 0)
(1.04035 0.00830645 0)
(1.04066 0.00816231 0)
(1.04095 0.00802847 0)
(1.04123 0.00790412 0)
(1.0415 0.00778856 0)
(1.04175 0.00768115 0)
(1.042 0.00758123 0)
(1.04224 0.00748821 0)
(1.04247 0.00740151 0)
(1.0427 0.00732062 0)
(1.04291 0.00724501 0)
(1.04313 0.00717433 0)
(1.04333 0.00710808 0)
(1.04354 0.00704607 0)
(1.04374 0.00698771 0)
(1.04393 0.006933 0)
(1.04412 0.00688116 0)
(1.04431 0.00683235 0)
(1.04449 0.00678567 0)
(1.04467 0.00674115 0)
(1.04484 0.00669826 0)
(1.04501 0.00665599 0)
(1.04517 0.00661556 0)
(1.04532 0.00657314 0)
(1.04546 0.00653407 0)
(1.04559 0.00649114 0)
(1.04569 0.00645698 0)
(1.04577 0.00642975 0)
(1.04581 0.0064321 0)
(1.04583 0.006489 0)
(1.00069 0.00934415 0)
(1.01046 0.0176192 0)
(1.02019 0.0163739 0)
(1.02497 0.0143976 0)
(1.02684 0.0138794 0)
(1.02838 0.0134246 0)
(1.02998 0.0126633 0)
(1.03132 0.0119582 0)
(1.03235 0.0114288 0)
(1.03318 0.0109942 0)
(1.03392 0.010602 0)
(1.03457 0.0102478 0)
(1.03516 0.00993245 0)
(1.0357 0.00965062 0)
(1.03618 0.00939607 0)
(1.03662 0.0091644 0)
(1.03704 0.00895262 0)
(1.03742 0.00875826 0)
(1.03777 0.00857921 0)
(1.03811 0.0084137 0)
(1.03842 0.00826029 0)
(1.03872 0.00811785 0)
(1.03901 0.00798547 0)
(1.03928 0.00786241 0)
(1.03954 0.00774798 0)
(1.03979 0.00764155 0)
(1.04003 0.00754251 0)
(1.04026 0.00745027 0)
(1.04049 0.00736423 0)
(1.0407 0.00728392 0)
(1.04091 0.0072088 0)
(1.04112 0.00713852 0)
(1.04132 0.00707261 0)
(1.04152 0.00701086 0)
(1.04171 0.00695276 0)
(1.0419 0.00689822 0)
(1.04208 0.00684663 0)
(1.04226 0.00679798 0)
(1.04244 0.00675163 0)
(1.04261 0.00670738 0)
(1.04278 0.00666501 0)
(1.04295 0.00662342 0)
(1.0431 0.00658385 0)
(1.04325 0.00654323 0)
(1.04339 0.00650583 0)
(1.04351 0.00646727 0)
(1.04362 0.00643704 0)
(1.0437 0.00641775 0)
(1.04375 0.00642614 0)
(1.04378 0.00648599 0)
(1.0006 0.00844159 0)
(1.00929 0.0165797 0)
(1.01843 0.0158806 0)
(1.02323 0.0140449 0)
(1.02517 0.0135486 0)
(1.02668 0.0131839 0)
(1.02825 0.012499 0)
(1.02958 0.0118224 0)
(1.03061 0.0113066 0)
(1.03144 0.0108875 0)
(1.03216 0.0105091 0)
(1.03282 0.0101647 0)
(1.0334 0.00985662 0)
(1.03392 0.00958079 0)
(1.0344 0.00933137 0)
(1.03483 0.00910406 0)
(1.03524 0.00889598 0)
(1.03561 0.00870479 0)
(1.03596 0.00852847 0)
(1.03629 0.00836531 0)
(1.03659 0.00821392 0)
(1.03689 0.00807323 0)
(1.03716 0.00794237 0)
(1.03743 0.00782063 0)
(1.03768 0.00770736 0)
(1.03792 0.00760196 0)
(1.03816 0.00750382 0)
(1.03838 0.00741237 0)
(1.0386 0.00732702 0)
(1.03881 0.00724729 0)
(1.03901 0.00717267 0)
(1.03921 0.0071028 0)
(1.03941 0.00703723 0)
(1.0396 0.00697575 0)
(1.03978 0.00691789 0)
(1.03997 0.00686353 0)
(1.04014 0.00681217 0)
(1.04032 0.00676369 0)
(1.04049 0.00671764 0)
(1.04066 0.00667368 0)
(1.04082 0.00663179 0)
(1.04098 0.00659092 0)
(1.04113 0.00655219 0)
(1.04128 0.00651334 0)
(1.04141 0.0064777 0)
(1.04153 0.00644318 0)
(1.04163 0.00641693 0)
(1.04171 0.00640431 0)
(1.04177 0.00641801 0)
(1.04181 0.00647956 0)
(1.00051 0.00762354 0)
(1.00825 0.0155682 0)
(1.01678 0.0153755 0)
(1.02157 0.0136994 0)
(1.02358 0.0132194 0)
(1.02506 0.012934 0)
(1.02659 0.0123277 0)
(1.02792 0.0116837 0)
(1.02895 0.0111821 0)
(1.02978 0.0107781 0)
(1.0305 0.010414 0)
(1.03114 0.0100801 0)
(1.03172 0.00977951 0)
(1.03224 0.00950987 0)
(1.0327 0.00926576 0)
(1.03313 0.00904298 0)