/*--------------------------------*- C++ -*----------------------------------*\
  =========                 |
  \\      /  F ield         | OpenFOAM: The Open Source CFD Toolbox
   \\    /   O peration     | Website:  https://openfoam.org
    \\  /    A nd           | Version:  7
     \\/     M anipulation  |
\*---------------------------------------------------------------------------*/
FoamFile
{
    version     2.0;
    format      ascii;
    class       volVectorField;
    location    "0.04";
    object      vorticity;
}
// * * * * * * * * * * * * * * * * * * * * * * * * * * * * * * * * * * * * * //

dimensions      [0 0 -1 0 0 0 0];

internalField   nonuniform List<vector> 
70000
(
(0 -0 -45716)
(0 -0 -28617.1)
(0 -0 -20912.1)
(0 -0 -16978)
(0 -0 -14955.9)
(0 -0 -13648.1)
(0 -0 -12637.8)
(0 -0 -11824.5)
(0 -0 -11159.9)
(0 -0 -10605.3)
(0 -0 -10132.6)
(0 -0 -9723.33)
(0 -0 -9364.45)
(0 -0 -9046.58)
(0 -0 -8762.59)
(0 -0 -8506.97)
(0 -0 -8275.38)
(0 -0 -8064.34)
(0 -0 -7871.04)
(0 -0 -7693.16)
(0 -0 -7528.78)
(0 -0 -7376.3)
(0 -0 -7234.35)
(0 -0 -7101.79)
(0 -0 -6977.62)
(0 -0 -6861)
(0 -0 -6751.17)
(0 -0 -6647.5)
(0 -0 -6549.42)
(0 -0 -6456.44)
(0 -0 -6368.13)
(0 -0 -6284.08)
(0 -0 -6203.98)
(0 -0 -6127.49)
(0 -0 -6054.38)
(0 -0 -5984.36)
(0 -0 -5917.25)
(0 -0 -5852.92)
(0 -0 -5790.91)
(0 -0 -5731.81)
(0 -0 -5673.87)
(0 -0 -5620.31)
(0 -0 -5564.48)
(0 -0 -5518.72)
(0 -0 -5460.13)
(0 -0 -5429.82)
(0 -0 -5355.39)
(0 -0 -5360.47)
(0 -0 -5259.4)
(0 -0 -5103.58)
(0 -0 -13549.7)
(0 -0 -19947.3)
(0 -0 -18535.8)
(0 -0 -16248.9)
(0 -0 -14502.5)
(0 -0 -13278.1)
(0 -0 -12349.5)
(0 -0 -11599.1)
(0 -0 -10976.5)
(0 -0 -10451.1)
(0 -0 -10000.4)
(0 -0 -9608.37)
(0 -0 -9263.35)
(0 -0 -8956.79)
(0 -0 -8682.17)
(0 -0 -8434.44)
(0 -0 -8209.58)
(0 -0 -8004.34)
(0 -0 -7816.09)
(0 -0 -7642.66)
(0 -0 -7482.24)
(0 -0 -7333.3)
(0 -0 -7194.56)
(0 -0 -7064.92)
(0 -0 -6943.43)
(0 -0 -6829.27)
(0 -0 -6721.75)
(0 -0 -6620.23)
(0 -0 -6524.18)
(0 -0 -6433.11)
(0 -0 -6346.63)
(0 -0 -6264.33)
(0 -0 -6185.91)
(0 -0 -6111.06)
(0 -0 -6039.54)
(0 -0 -5971.1)
(0 -0 -5905.55)
(0 -0 -5842.75)
(0 -0 -5782.36)
(0 -0 -5724.78)
(0 -0 -5668.67)
(0 -0 -5616.47)
(0 -0 -5563.19)
(0 -0 -5518.05)
(0 -0 -5464.18)
(0 -0 -5431.58)
(0 -0 -5368.85)
(0 -0 -5360.91)
(0 -0 -5286.57)
(0 -0 -5337.67)
(0 -0 -3818.79)
(0 -0 -10828.9)
(0 -0 -13363.5)
(0 -0 -13519.5)
(0 -0 -12865.9)
(0 -0 -12139.5)
(0 -0 -11497.7)
(0 -0 -10937.3)
(0 -0 -10445.4)
(0 -0 -10012.8)
(0 -0 -9630.9)
(0 -0 -9291.47)
(0 -0 -8987.76)
(0 -0 -8714.3)
(0 -0 -8466.67)
(0 -0 -8241.26)
(0 -0 -8035.1)
(0 -0 -7845.72)
(0 -0 -7671.07)
(0 -0 -7509.4)
(0 -0 -7359.24)
(0 -0 -7219.33)
(0 -0 -7088.58)
(0 -0 -6966.07)
(0 -0 -6850.98)
(0 -0 -6742.6)
(0 -0 -6640.31)
(0 -0 -6543.57)
(0 -0 -6451.9)
(0 -0 -6364.86)
(0 -0 -6282.09)
(0 -0 -6203.23)
(0 -0 -6128.01)
(0 -0 -6056.14)
(0 -0 -5987.4)
(0 -0 -5921.55)
(0 -0 -5858.43)
(0 -0 -5797.89)
(0 -0 -5739.67)
(0 -0 -5683.96)
(0 -0 -5629.93)
(0 -0 -5579)
(0 -0 -5528.18)
(0 -0 -5482.82)
(0 -0 -5433.31)
(0 -0 -5396.14)
(0 -0 -5344.55)
(0 -0 -5319.64)
(0 -0 -5267.15)
(0 -0 -5318.13)
(0 -0 -533.078)
(0 -0 -4662.76)
(0 -0 -7718.69)
(0 -0 -9328.81)
(0 -0 -9892.58)
(0 -0 -9957.88)
(0 -0 -9826.14)
(0 -0 -9614.17)
(0 -0 -9370.81)
(0 -0 -9120.75)
(0 -0 -8876.43)
(0 -0 -8643.41)
(0 -0 -8423.79)
(0 -0 -8218.02)
(0 -0 -8025.73)
(0 -0 -7846.18)
(0 -0 -7678.5)
(0 -0 -7521.75)
(0 -0 -7375.03)
(0 -0 -7237.49)
(0 -0 -7108.34)
(0 -0 -6986.86)
(0 -0 -6872.39)
(0 -0 -6764.35)
(0 -0 -6662.18)
(0 -0 -6565.43)
(0 -0 -6473.64)
(0 -0 -6386.42)
(0 -0 -6303.42)
(0 -0 -6224.32)
(0 -0 -6148.84)
(0 -0 -6076.69)
(0 -0 -6007.67)
(0 -0 -5941.53)
(0 -0 -5878.1)
(0 -0 -5817.19)
(0 -0 -5758.67)
(0 -0 -5702.38)
(0 -0 -5648.18)
(0 -0 -5596.03)
(0 -0 -5545.66)
(0 -0 -5497.36)
(0 -0 -5450.32)
(0 -0 -5405.82)
(0 -0 -5361.72)
(0 -0 -5320.84)
(0 -0 -5280.67)
(0 -0 -5240.29)
(0 -0 -5213.46)
(0 -0 -5192.61)
(0 -0 322.44)
(0 -0 -1444.61)
(0 -0 -3532.8)
(0 -0 -5259.51)
(0 -0 -6399.62)
(0 -0 -7074.39)
(0 -0 -7451.82)
(0 -0 -7642.38)
(0 -0 -7714.35)
(0 -0 -7712)
(0 -0 -7663.9)
(0 -0 -7588.16)
(0 -0 -7496.2)
(0 -0 -7395.3)
(0 -0 -7290.16)
(0 -0 -7183.79)
(0 -0 -7078.15)
(0 -0 -6974.46)
(0 -0 -6873.5)
(0 -0 -6775.72)
(0 -0 -6681.35)
(0 -0 -6590.5)
(0 -0 -6503.16)
(0 -0 -6419.28)
(0 -0 -6338.75)
(0 -0 -6261.46)
(0 -0 -6187.27)
(0 -0 -6116.03)
(0 -0 -6047.59)
(0 -0 -5981.81)
(0 -0 -5918.54)
(0 -0 -5857.66)
(0 -0 -5799.03)
(0 -0 -5742.52)
(0 -0 -5688.03)
(0 -0 -5635.43)
(0 -0 -5584.66)
(0 -0 -5535.56)
(0 -0 -5488.15)
(0 -0 -5442.17)
(0 -0 -5397.88)
(0 -0 -5354.62)
(0 -0 -5313.43)
(0 -0 -5272.19)
(0 -0 -5234.88)
(0 -0 -5193.53)
(0 -0 -5164.12)
(0 -0 -5114.79)
(0 -0 -5109)
(0 -0 -5043.03)
(0 -0 364.71)
(0 -0 -158.581)
(0 -0 -1181.65)
(0 -0 -2362.26)
(0 -0 -3417.83)
(0 -0 -4256.45)
(0 -0 -4891.5)
(0 -0 -5356.91)
(0 -0 -5687.8)
(0 -0 -5916.2)
(0 -0 -6068.44)
(0 -0 -6164.68)
(0 -0 -6219.84)
(0 -0 -6244.9)
(0 -0 -6247.95)
(0 -0 -6234.9)
(0 -0 -6210.15)
(0 -0 -6176.95)
(0 -0 -6137.73)
(0 -0 -6094.3)
(0 -0 -6048.03)
(0 -0 -5999.93)
(0 -0 -5950.78)
(0 -0 -5901.16)
(0 -0 -5851.51)
(0 -0 -5802.14)
(0 -0 -5753.3)
(0 -0 -5705.17)
(0 -0 -5657.86)
(0 -0 -5611.47)
(0 -0 -5566.06)
(0 -0 -5521.65)
(0 -0 -5478.27)
(0 -0 -5435.92)
(0 -0 -5394.59)
(0 -0 -5354.27)
(0 -0 -5314.96)
(0 -0 -5276.57)
(0 -0 -5239.24)
(0 -0 -5202.61)
(0 -0 -5167.29)
(0 -0 -5132.06)
(0 -0 -5099.1)
(0 -0 -5064.33)
(0 -0 -5035.2)
(0 -0 -4997.93)
(0 -0 -4977.72)
(0 -0 -4929.15)
(0 -0 -4932.55)
(0 -0 -4862.96)
(0 -0 254.025)
(0 -0 185.298)
(0 -0 -173.336)
(0 -0 -764.797)
(0 -0 -1447.87)
(0 -0 -2115.64)
(0 -0 -2720.76)
(0 -0 -3243.75)
(0 -0 -3680.47)
(0 -0 -4036.73)
(0 -0 -4322.81)
(0 -0 -4549.88)
(0 -0 -4728.26)
(0 -0 -4866.96)
(0 -0 -4973.5)
(0 -0 -5054.09)
(0 -0 -5113.74)
(0 -0 -5156.53)
(0 -0 -5185.73)
(0 -0 -5203.98)
(0 -0 -5213.39)
(0 -0 -5215.68)
(0 -0 -5212.23)
(0 -0 -5204.15)
(0 -0 -5192.37)
(0 -0 -5177.61)
(0 -0 -5160.49)
(0 -0 -5141.49)
(0 -0 -5121.03)
(0 -0 -5099.43)
(0 -0 -5076.96)
(0 -0 -5053.84)
(0 -0 -5030.26)
(0 -0 -5006.37)
(0 -0 -4982.28)
(0 -0 -4958.09)
(0 -0 -4933.91)
(0 -0 -4909.72)
(0 -0 -4885.74)
(0 -0 -4861.67)
(0 -0 -4838.23)
(0 -0 -4814.12)
(0 -0 -4791.81)
(0 -0 -4766.82)
(0 -0 -4747.29)
(0 -0 -4718.67)
(0 -0 -4706.56)
(0 -0 -4667.2)
(0 -0 -4672.34)
(0 -0 -4618.37)
(0 -0 178.747)
(0 -0 204.507)
(0 -0 130.651)
(0 -0 -85.2545)
(0 -0 -417.969)
(0 -0 -814.994)
(0 -0 -1236.44)
(0 -0 -1653.41)
(0 -0 -2046.01)
(0 -0 -2403.25)
(0 -0 -2720.91)
(0 -0 -2998.89)
(0 -0 -3239.4)
(0 -0 -3445.78)
(0 -0 -3621.77)
(0 -0 -3771.14)
(0 -0 -3897.38)
(0 -0 -4003.71)
(0 -0 -4092.92)
(0 -0 -4167.48)
(0 -0 -4229.51)
(0 -0 -4280.84)
(0 -0 -4323.02)
(0 -0 -4357.38)
(0 -0 -4385.04)
(0 -0 -4406.97)
(0 -0 -4423.99)
(0 -0 -4436.79)
(0 -0 -4445.98)
(0 -0 -4452.07)
(0 -0 -4455.49)
(0 -0 -4456.61)
(0 -0 -4455.76)
(0 -0 -4453.22)
(0 -0 -4449.2)
(0 -0 -4443.92)
(0 -0 -4437.55)
(0 -0 -4430.21)
(0 -0 -4422.13)
(0 -0 -4413.15)
(0 -0 -4403.92)
(0 -0 -4393.43)
(0 -0 -4383.81)
(0 -0 -4371.27)
(0 -0 -4362.79)
(0 -0 -4346.13)
(0 -0 -4342.41)
(0 -0 -4316.77)
(0 -0 -4323.37)
(0 -0 -4288.28)
(0 -0 148.019)
(0 -0 164.61)
(0 -0 169.987)
(0 -0 120.965)
(0 -0 1.00736)
(0 -0 -180.773)
(0 -0 -408.979)
(0 -0 -667.241)
(0 -0 -939.706)
(0 -0 -1213.44)
(0 -0 -1479.2)
(0 -0 -1731)
(0 -0 -1965.31)
(0 -0 -2180.49)
(0 -0 -2376.14)
(0 -0 -2552.74)
(0 -0 -2711.26)
(0 -0 -2852.97)
(0 -0 -2979.26)
(0 -0 -3091.55)
(0 -0 -3191.22)
(0 -0 -3279.58)
(0 -0 -3357.81)
(0 -0 -3427.02)
(0 -0 -3488.19)
(0 -0 -3542.22)
(0 -0 -3589.89)
(0 -0 -3631.91)
(0 -0 -3668.91)
(0 -0 -3701.44)
(0 -0 -3729.98)
(0 -0 -3754.99)
(0 -0 -3776.84)
(0 -0 -3795.86)
(0 -0 -3812.36)
(0 -0 -3826.6)
(0 -0 -3838.81)
(0 -0 -3849.18)
(0 -0 -3857.94)
(0 -0 -3865.11)
(0 -0 -3871.15)
(0 -0 -3875.46)
(0 -0 -3879.59)
(0 -0 -3880.86)
(0 -0 -3884.43)
(0 -0 -3881.26)
(0 -0 -3886.96)
(0 -0 -3876.25)
(0 -0 -3886.91)
(0 -0 -3869.43)
(0 -0 136.827)
(0 -0 137.072)
(0 -0 148.737)
(0 -0 149.678)
(0 -0 122.183)
(0 -0 60.0974)
(0 -0 -36.3888)
(0 -0 -163.607)
(0 -0 -315.19)
(0 -0 -483.811)
(0 -0 -662.543)
(0 -0 -845.468)
(0 -0 -1027.85)
(0 -0 -1206.1)
(0 -0 -1377.67)
(0 -0 -1540.88)
(0 -0 -1694.71)
(0 -0 -1838.68)
(0 -0 -1972.68)
(0 -0 -2096.86)
(0 -0 -2211.57)
(0 -0 -2317.27)
(0 -0 -2414.49)
(0 -0 -2503.78)
(0 -0 -2585.72)
(0 -0 -2660.84)
(0 -0 -2729.7)
(0 -0 -2792.8)
(0 -0 -2850.61)
(0 -0 -2903.58)
(0 -0 -2952.13)
(0 -0 -2996.63)
(0 -0 -3037.42)
(0 -0 -3074.84)
(0 -0 -3109.14)
(0 -0 -3140.63)
(0 -0 -3169.48)
(0 -0 -3195.97)
(0 -0 -3220.24)
(0 -0 -3242.46)
(0 -0 -3262.9)
(0 -0 -3281.32)
(0 -0 -3298.71)
(0 -0 -3313.35)
(0 -0 -3328.83)
(0 -0 -3338.82)
(0 -0 -3354.33)
(0 -0 -3357.78)
(0 -0 -3374.5)
(0 -0 -3372.62)
(0 -0 129.948)
(0 -0 124)
(0 -0 129.183)
(0 -0 136.383)
(0 -0 136.47)
(0 -0 123.2)
(0 -0 92.9263)
(0 -0 43.8002)
(0 -0 -24.0066)
(0 -0 -108.653)
(0 -0 -207.357)
(0 -0 -316.974)
(0 -0 -434.357)
(0 -0 -556.6)
(0 -0 -681.169)
(0 -0 -805.955)
(0 -0 -929.271)
(0 -0 -1049.81)
(0 -0 -1166.62)
(0 -0 -1279.01)
(0 -0 -1386.54)
(0 -0 -1488.96)
(0 -0 -1586.16)
(0 -0 -1678.13)
(0 -0 -1764.95)
(0 -0 -1846.77)
(0 -0 -1923.76)
(0 -0 -1996.13)
(0 -0 -2064.11)
(0 -0 -2127.92)
(0 -0 -2187.81)
(0 -0 -2244.01)
(0 -0 -2296.72)
(0 -0 -2346.21)
(0 -0 -2392.62)
(0 -0 -2436.22)
(0 -0 -2477.11)
(0 -0 -2515.54)
(0 -0 -2551.58)
(0 -0 -2585.46)
(0 -0 -2617.28)
(0 -0 -2647.02)
(0 -0 -2675.28)
(0 -0 -2700.97)
(0 -0 -2726.56)
(0 -0 -2747.66)
(0 -0 -2771.88)
(0 -0 -2787.31)
(0 -0 -2810.35)
(0 -0 -2821.36)
(0 -0 122.959)
(0 -0 116.649)
(0 -0 118.016)
(0 -0 122.491)
(0 -0 126.433)
(0 -0 126.9)
(0 -0 121.42)
(0 -0 107.689)
(0 -0 84.0677)
(0 -0 49.8499)
(0 -0 5.13418)
(0 -0 -49.3641)
(0 -0 -112.515)
(0 -0 -182.949)
(0 -0 -259.215)
(0 -0 -339.88)
(0 -0 -423.606)
(0 -0 -509.193)
(0 -0 -595.597)
(0 -0 -681.938)
(0 -0 -767.49)
(0 -0 -851.67)
(0 -0 -934.023)
(0 -0 -1014.2)
(0 -0 -1091.95)
(0 -0 -1167.1)
(0 -0 -1239.52)
(0 -0 -1309.17)
(0 -0 -1376.02)
(0 -0 -1440.1)
(0 -0 -1501.43)
(0 -0 -1560.08)
(0 -0 -1616.12)
(0 -0 -1669.66)
(0 -0 -1720.75)
(0 -0 -1769.53)
(0 -0 -1816.04)
(0 -0 -1860.44)
(0 -0 -1902.74)
(0 -0 -1943.11)
(0 -0 -1981.58)
(0 -0 -2018.17)
(0 -0 -2053.26)
(0 -0 -2086.1)
(0 -0 -2118.4)
(0 -0 -2147.13)
(0 -0 -2177.41)
(0 -0 -2201.43)
(0 -0 -2229.33)
(0 -0 -2249.67)
(0 -0 115.64)
(0 -0 110.418)
(0 -0 110.735)
(0 -0 113.172)
(0 -0 115.983)
(0 -0 118.241)
(0 -0 119.115)
(0 -0 117.401)
(0 -0 111.816)
(0 -0 101.307)
(0 -0 85.1518)
(0 -0 62.9797)
(0 -0 34.7371)
(0 -0 0.644125)
(0 -0 -38.8722)
(0 -0 -83.2443)
(0 -0 -131.822)
(0 -0 -183.924)
(0 -0 -238.868)
(0 -0 -296.008)
(0 -0 -354.741)
(0 -0 -414.527)
(0 -0 -474.884)
(0 -0 -535.396)
(0 -0 -595.704)
(0 -0 -655.509)
(0 -0 -714.558)
(0 -0 -772.648)
(0 -0 -829.615)
(0 -0 -885.335)
(0 -0 -939.707)
(0 -0 -992.669)
(0 -0 -1044.16)
(0 -0 -1094.18)
(0 -0 -1142.68)
(0 -0 -1189.69)
(0 -0 -1235.18)
(0 -0 -1279.21)
(0 -0 -1321.75)
(0 -0 -1362.87)
(0 -0 -1402.58)
(0 -0 -1440.82)
(0 -0 -1477.88)
(0 -0 -1513.17)
(0 -0 -1547.88)
(0 -0 -1579.93)
(0 -0 -1612.63)
(0 -0 -1641.08)
(0 -0 -1671.19)
(0 -0 -1696.72)
(0 -0 108.397)
(0 -0 104.202)
(0 -0 104.411)
(0 -0 106.117)
(0 -0 107.983)
(0 -0 109.692)
(0 -0 111.226)
(0 -0 112.239)
(0 -0 112.148)
(0 -0 110.323)
(0 -0 106.174)
(0 -0 99.2007)
(0 -0 89.0274)
(0 -0 75.415)
(0 -0 58.2676)
(0 -0 37.6099)
(0 -0 13.5709)
(0 -0 -13.6396)
(0 -0 -43.7545)
(0 -0 -76.4698)
(0 -0 -111.463)
(0 -0 -148.408)
(0 -0 -186.985)
(0 -0 -226.887)
(0 -0 -267.826)
(0 -0 -309.538)
(0 -0 -351.782)
(0 -0 -394.342)
(0 -0 -437.024)
(0 -0 -479.661)
(0 -0 -522.105)
(0 -0 -564.235)
(0 -0 -605.937)
(0 -0 -647.134)
(0 -0 -687.733)
(0 -0 -727.695)
(0 -0 -766.94)
(0 -0 -805.463)
(0 -0 -843.189)
(0 -0 -880.124)
(0 -0 -916.239)
(0 -0 -951.454)
(0 -0 -985.939)
(0 -0 -1019.25)
(0 -0 -1052.17)
(0 -0 -1083.31)
(0 -0 -1114.69)
(0 -0 -1143.4)
(0 -0 -1172.63)
(0 -0 -1199.25)
(0 -0 101.42)
(0 -0 98.0119)
(0 -0 98.2346)
(0 -0 99.7066)
(0 -0 101.217)
(0 -0 102.488)
(0 -0 103.709)
(0 -0 104.893)
(0 -0 105.864)
(0 -0 106.377)
(0 -0 106.15)
(0 -0 104.885)
(0 -0 102.29)
(0 -0 98.1084)
(0 -0 92.1294)
(0 -0 84.2005)
(0 -0 74.2276)
(0 -0 62.1735)
(0 -0 48.0521)
(0 -0 31.9202)
(0 -0 13.8698)
(0 -0 -5.98067)
(0 -0 -27.4943)
(0 -0 -50.5223)
(0 -0 -74.9088)
(0 -0 -100.497)
(0 -0 -127.13)
(0 -0 -154.658)
(0 -0 -182.935)
(0 -0 -211.827)
(0 -0 -241.204)
(0 -0 -270.955)
(0 -0 -300.967)
(0 -0 -331.15)
(0 -0 -361.409)
(0 -0 -391.676)
(0 -0 -421.865)
(0 -0 -451.932)
(0 -0 -481.8)
(0 -0 -511.429)
(0 -0 -540.783)
(0 -0 -569.76)
(0 -0 -598.462)
(0 -0 -626.562)
(0 -0 -654.522)
(0 -0 -681.487)
(0 -0 -708.57)
(0 -0 -734.177)
(0 -0 -759.856)
(0 -0 -784.196)
(0 -0 94.7451)
(0 -0 91.9633)
(0 -0 92.1741)
(0 -0 93.4971)
(0 -0 94.876)
(0 -0 95.9726)
(0 -0 96.9695)
(0 -0 97.9647)
(0 -0 98.93)
(0 -0 99.798)
(0 -0 100.479)
(0 -0 100.856)
(0 -0 100.791)
(0 -0 100.136)
(0 -0 98.7423)
(0 -0 96.4754)
(0 -0 93.2165)
(0 -0 88.8692)
(0 -0 83.3616)
(0 -0 76.6472)
(0 -0 68.7033)
(0 -0 59.5287)
(0 -0 49.1421)
(0 -0 37.5777)
(0 -0 24.8831)
(0 -0 11.1163)
(0 -0 -3.65613)
(0 -0 -19.363)
(0 -0 -35.9284)
(0 -0 -53.2767)
(0 -0 -71.3294)
(0 -0 -90.0131)
(0 -0 -109.252)
(0 -0 -128.978)
(0 -0 -149.12)
(0 -0 -169.62)
(0 -0 -190.41)
(0 -0 -211.44)
(0 -0 -232.651)
(0 -0 -253.99)
(0 -0 -275.427)
(0 -0 -296.867)
(0 -0 -318.365)
(0 -0 -339.696)
(0 -0 -361.108)
(0 -0 -382.112)
(0 -0 -403.253)
(0 -0 -423.734)
(0 -0 -444.203)
(0 -0 -464.12)
(0 -0 88.3705)
(0 -0 86.1086)
(0 -0 86.3006)
(0 -0 87.4739)
(0 -0 88.7544)
(0 -0 89.7717)
(0 -0 90.6621)
(0 -0 91.529)
(0 -0 92.376)
(0 -0 93.1887)
(0 -0 93.951)
(0 -0 94.6343)
(0 -0 95.1931)
(0 -0 95.5691)
(0 -0 95.6943)
(0 -0 95.4955)
(0 -0 94.8986)
(0 -0 93.8318)
(0 -0 92.229)
(0 -0 90.0324)
(0 -0 87.1937)
(0 -0 83.675)
(0 -0 79.4488)
(0 -0 74.4978)
(0 -0 68.8145)
(0 -0 62.4)
(0 -0 55.2637)
(0 -0 47.4215)
(0 -0 38.8959)
(0 -0 29.7134)
(0 -0 19.9054)
(0 -0 9.50446)
(0 -0 -1.45257)
(0 -0 -12.9306)
(0 -0 -24.8903)
(0 -0 -37.296)
(0 -0 -50.108)
(0 -0 -63.2901)
(0 -0 -76.807)
(0 -0 -90.6153)
(0 -0 -104.696)
(0 -0 -118.98)
(0 -0 -133.492)
(0 -0 -148.097)
(0 -0 -162.909)
(0 -0 -177.676)
(0 -0 -192.622)
(0 -0 -207.4)
(0 -0 -222.212)
(0 -0 -236.914)
(0 -0 82.2948)
(0 -0 80.4658)
(0 -0 80.6476)
(0 -0 81.6758)
(0 -0 82.8528)
(0 -0 83.8046)
(0 -0 84.627)
(0 -0 85.4163)
(0 -0 86.1805)
(0 -0 86.9126)
(0 -0 87.6143)
(0 -0 88.2851)
(0 -0 88.917)
(0 -0 89.4942)
(0 -0 89.9946)
(0 -0 90.3903)
(0 -0 90.6487)
(0 -0 90.7342)
(0 -0 90.6098)
(0 -0 90.2385)
(0 -0 89.585)
(0 -0 88.6164)
(0 -0 87.3028)
(0 -0 85.6184)
(0 -0 83.5414)
(0 -0 81.0542)
(0 -0 78.144)
(0 -0 74.8022)
(0 -0 71.0247)
(0 -0 66.8109)
(0 -0 62.1645)
(0 -0 57.0915)
(0 -0 51.6014)
(0 -0 45.7052)
(0 -0 39.4165)
(0 -0 32.7502)
(0 -0 25.7224)
(0 -0 18.3515)
(0 -0 10.6532)
(0 -0 2.65254)
(0 -0 -5.64135)
(0 -0 -14.1893)
(0 -0 -22.9994)
(0 -0 -32.0046)
(0 -0 -41.2435)
(0 -0 -50.6089)
(0 -0 -60.1649)
(0 -0 -69.7907)
(0 -0 -79.5046)
(0 -0 -89.3165)
(0 -0 76.5187)
(0 -0 75.0462)
(0 -0 75.227)
(0 -0 76.123)
(0 -0 77.1939)
(0 -0 78.079)
(0 -0 78.8398)
(0 -0 79.5665)
(0 -0 80.2688)
(0 -0 80.939)
(0 -0 81.5796)
(0 -0 82.1955)
(0 -0 82.7888)
(0 -0 83.358)
(0 -0 83.8988)
(0 -0 84.4038)
(0 -0 84.8629)
(0 -0 85.263)
(0 -0 85.589)
(0 -0 85.8244)
(0 -0 85.9515)
(0 -0 85.9521)
(0 -0 85.808)
(0 -0 85.5014)
(0 -0 85.0152)
(0 -0 84.3332)
(0 -0 83.4411)
(0 -0 82.326)
(0 -0 80.977)
(0 -0 79.3853)
(0 -0 77.5443)
(0 -0 75.4489)
(0 -0 73.0962)
(0 -0 70.485)
(0 -0 67.6153)
(0 -0 64.4893)
(0 -0 61.1093)
(0 -0 57.4809)
(0 -0 53.6076)
(0 -0 49.4992)
(0 -0 45.1582)
(0 -0 40.6008)
(0 -0 35.8259)
(0 -0 30.8585)
(0 -0 25.6933)
(0 -0 20.3624)
(0 -0 14.8664)
(0 -0 9.22534)
(0 -0 3.47971)
(0 -0 -2.42709)
(0 -0 71.0419)
(0 -0 69.8603)
(0 -0 70.0457)
(0 -0 70.8239)
(0 -0 71.7907)
(0 -0 72.6089)
(0 -0 73.3097)
(0 -0 73.977)
(0 -0 74.6233)
(0 -0 75.2404)
(0 -0 75.829)
(0 -0 76.3941)
(0 -0 76.9391)
(0 -0 77.4657)
(0 -0 77.9744)
(0 -0 78.4648)
(0 -0 78.9347)
(0 -0 79.3812)
(0 -0 79.7996)
(0 -0 80.1847)
(0 -0 80.5299)
(0 -0 80.8282)
(0 -0 81.0715)
(0 -0 81.2512)
(0 -0 81.3583)
(0 -0 81.3833)
(0 -0 81.3171)
(0 -0 81.1505)
(0 -0 80.875)
(0 -0 80.4827)
(0 -0 79.9666)
(0 -0 79.3202)
(0 -0 78.538)
(0 -0 77.6155)
(0 -0 76.5485)
(0 -0 75.3342)
(0 -0 73.9699)
(0 -0 72.4548)
(0 -0 70.7872)
(0 -0 68.9684)
(0 -0 66.9979)
(0 -0 64.8784)
(0 -0 62.6118)
(0 -0 60.2008)
(0 -0 57.6522)
(0 -0 54.9645)
(0 -0 52.1575)
(0 -0 49.2142)
(0 -0 46.1825)
(0 -0 43.0011)
(0 -0 65.8628)
(0 -0 64.9165)
(0 -0 65.1095)
(0 -0 65.7836)
(0 -0 66.65)
(0 -0 67.4026)
(0 -0 68.0457)
(0 -0 68.6556)
(0 -0 69.2479)
(0 -0 69.8149)
(0 -0 70.3558)
(0 -0 70.8747)
(0 -0 71.3749)
(0 -0 71.8583)
(0 -0 72.3263)
(0 -0 72.7798)
(0 -0 73.2192)
(0 -0 73.6442)
(0 -0 74.0542)
(0 -0 74.4483)
(0 -0 74.825)
(0 -0 75.1825)
(0 -0 75.5185)
(0 -0 75.83)
(0 -0 76.1134)
(0 -0 76.3646)
(0 -0 76.5791)
(0 -0 76.7524)
(0 -0 76.8798)
(0 -0 76.9568)
(0 -0 76.9788)
(0 -0 76.9418)
(0 -0 76.8415)
(0 -0 76.6744)
(0 -0 76.4365)
(0 -0 76.125)
(0 -0 75.7364)
(0 -0 75.2684)
(0 -0 74.7185)
(0 -0 74.0847)
(0 -0 73.366)
(0 -0 72.5598)
(0 -0 71.6685)
(0 -0 70.6865)
(0 -0 69.6229)
(0 -0 68.4651)
(0 -0 67.2341)
(0 -0 65.9042)
(0 -0 64.5155)
(0 -0 63.0155)
(0 -0 60.9788)
(0 -0 60.2212)
(0 -0 60.4226)
(0 -0 61.0052)
(0 -0 61.776)
(0 -0 62.4648)
(0 -0 63.053)
(0 -0 63.6081)
(0 -0 64.1486)
(0 -0 64.6674)
(0 -0 65.1627)
(0 -0 65.6378)
(0 -0 66.0959)
(0 -0 66.5387)
(0 -0 66.9675)
(0 -0 67.3833)
(0 -0 67.7868)
(0 -0 68.1783)
(0 -0 68.5583)
(0 -0 68.9271)
(0 -0 69.2849)
(0 -0 69.6321)
(0 -0 69.9683)
(0 -0 70.2932)
(0 -0 70.6057)
(0 -0 70.9044)
(0 -0 71.1878)
(0 -0 71.4539)
(0 -0 71.7008)
(0 -0 71.9265)
(0 -0 72.129)
(0 -0 72.3064)
(0 -0 72.4565)
(0 -0 72.5774)
(0 -0 72.667)
(0 -0 72.7232)
(0 -0 72.744)
(0 -0 72.7273)
(0 -0 72.6717)
(0 -0 72.5744)
(0 -0 72.4355)
(0 -0 72.2509)
(0 -0 72.0235)
(0 -0 71.7458)
(0 -0 71.4263)
(0 -0 71.0512)
(0 -0 70.6376)
(0 -0 70.1621)
(0 -0 69.6553)
(0 -0 69.0748)
(0 -0 56.3859)
(0 -0 55.7786)
(0 -0 55.9874)
(0 -0 56.4899)
(0 -0 57.1709)
(0 -0 57.7979)
(0 -0 58.3343)
(0 -0 58.8376)
(0 -0 59.3285)
(0 -0 59.8011)
(0 -0 60.2528)
(0 -0 60.6862)
(0 -0 61.1042)
(0 -0 61.5085)
(0 -0 61.9001)
(0 -0 62.2799)
(0 -0 62.6485)
(0 -0 63.0064)
(0 -0 63.354)
(0 -0 63.6919)
(0 -0 64.021)
(0 -0 64.3418)
(0 -0 64.655)
(0 -0 64.9608)
(0 -0 65.2592)
(0 -0 65.5499)
(0 -0 65.8323)
(0 -0 66.106)
(0 -0 66.3701)
(0 -0 66.6242)
(0 -0 66.8676)
(0 -0 67.0997)
(0 -0 67.3197)
(0 -0 67.5269)
(0 -0 67.7206)
(0 -0 67.8997)
(0 -0 68.0633)
(0 -0 68.2103)
(0 -0 68.3401)
(0 -0 68.4507)
(0 -0 68.5426)
(0 -0 68.6124)
(0 -0 68.6631)
(0 -0 68.6879)
(0 -0 68.6941)
(0 -0 68.67)
(0 -0 68.6288)
(0 -0 68.5517)
(0 -0 68.4621)
(0 -0 68.3263)
(0 -0 52.079)
(0 -0 51.5906)
(0 -0 51.8046)
(0 -0 52.2375)
(0 -0 52.8349)
(0 -0 53.4025)
(0 -0 53.8899)
(0 -0 54.3446)
(0 -0 54.7885)
(0 -0 55.2173)
(0 -0 55.6276)
(0 -0 56.0214)
(0 -0 56.4012)
(0 -0 56.7688)
(0 -0 57.1251)
(0 -0 57.4707)
(0 -0 57.8062)
(0 -0 58.1319)
(0 -0 58.4482)
(0 -0 58.7559)
(0 -0 59.0556)
(0 -0 59.3481)
(0 -0 59.6343)
(0 -0 59.9146)
(0 -0 60.189)
(0 -0 60.4578)
(0 -0 60.7206)
(0 -0 60.9773)
(0 -0 61.2277)
(0 -0 61.4719)
(0 -0 61.7097)
(0 -0 61.9412)
(0 -0 62.1663)
(0 -0 62.3849)
(0 -0 62.5969)
(0 -0 62.8019)
(0 -0 62.9998)
(0 -0 63.1899)
(0 -0 63.3724)
(0 -0 63.5457)
(0 -0 63.7111)
(0 -0 63.8656)
(0 -0 64.0122)
(0 -0 64.1457)
(0 -0 64.2717)
(0 -0 64.3815)
(0 -0 64.4853)
(0 -0 64.5681)
(0 -0 64.649)
(0 -0 64.7004)
(0 -0 48.0517)
(0 -0 47.657)
(0 -0 47.8732)
(0 -0 48.2456)
(0 -0 48.7663)
(0 -0 49.2769)
(0 -0 49.7184)
(0 -0 50.1278)
(0 -0 50.5275)
(0 -0 50.9149)
(0 -0 51.286)
(0 -0 51.6423)
(0 -0 51.9861)
(0 -0 52.319)
(0 -0 52.6418)
(0 -0 52.955)
(0 -0 53.2591)
(0 -0 53.5543)
(0 -0 53.841)
(0 -0 54.1198)
(0 -0 54.3914)
(0 -0 54.6568)
(0 -0 54.9165)
(0 -0 55.171)
(0 -0 55.4207)
(0 -0 55.6654)
(0 -0 55.9051)
(0 -0 56.1397)
(0 -0 56.3692)
(0 -0 56.5936)
(0 -0 56.8133)
(0 -0 57.0283)
(0 -0 57.2389)
(0 -0 57.4452)
(0 -0 57.6475)
(0 -0 57.8456)
(0 -0 58.0397)
(0 -0 58.2294)
(0 -0 58.415)
(0 -0 58.5958)
(0 -0 58.7727)
(0 -0 58.9437)
(0 -0 59.1113)
(0 -0 59.2717)
(0 -0 59.4294)
(0 -0 59.5776)
(0 -0 59.7246)
(0 -0 59.8584)
(0 -0 59.9949)
(0 -0 60.1111)
(0 -0 44.2963)
(0 -0 43.9753)
(0 -0 44.1903)
(0 -0 44.5103)
(0 -0 44.9613)
(0 -0 45.4179)
(0 -0 45.8163)
(0 -0 46.1836)
(0 -0 46.542)
(0 -0 46.8905)
(0 -0 47.225)
(0 -0 47.546)
(0 -0 47.8559)
(0 -0 48.1561)
(0 -0 48.4474)
(0 -0 48.7302)
(0 -0 49.0047)
(0 -0 49.2712)
(0 -0 49.5299)
(0 -0 49.7814)
(0 -0 50.0265)
(0 -0 50.2661)
(0 -0 50.5007)
(0 -0 50.7308)
(0 -0 50.9567)
(0 -0 51.1781)
(0 -0 51.3951)
(0 -0 51.6075)
(0 -0 51.8154)
(0 -0 52.0188)
(0 -0 52.2181)
(0 -0 52.4134)
(0 -0 52.6051)
(0 -0 52.7934)
(0 -0 52.9786)
(0 -0 53.1607)
(0 -0 53.3399)
(0 -0 53.516)
(0 -0 53.6894)
(0 -0 53.8594)
(0 -0 54.0272)
(0 -0 54.1911)
(0 -0 54.3532)
(0 -0 54.5106)
(0 -0 54.667)
(0 -0 54.8171)
(0 -0 54.9677)
(0 -0 55.1089)
(0 -0 55.2544)
(0 -0 55.3845)
(0 -0 40.8042)
(0 -0 40.5413)
(0 -0 40.7513)
(0 -0 41.0263)
(0 -0 41.4145)
(0 -0 41.8201)
(0 -0 42.1784)
(0 -0 42.5069)
(0 -0 42.827)
(0 -0 43.1391)
(0 -0 43.4393)
(0 -0 43.7275)
(0 -0 44.0057)
(0 -0 44.2754)
(0 -0 44.5372)
(0 -0 44.7914)
(0 -0 45.0382)
(0 -0 45.2777)
(0 -0 45.5102)
(0 -0 45.7361)
(0 -0 45.9564)
(0 -0 46.1717)
(0 -0 46.3828)
(0 -0 46.5899)
(0 -0 46.7933)
(0 -0 46.9929)
(0 -0 47.1883)
(0 -0 47.3797)
(0 -0 47.5669)
(0 -0 47.7501)
(0 -0 47.9295)
(0 -0 48.1054)
(0 -0 48.2782)
(0 -0 48.448)
(0 -0 48.6151)
(0 -0 48.7797)
(0 -0 48.9419)
(0 -0 49.1015)
(0 -0 49.259)
(0 -0 49.4138)
(0 -0 49.5669)
(0 -0 49.7171)
(0 -0 49.866)
(0 -0 50.0114)
(0 -0 50.1563)
(0 -0 50.2964)
(0 -0 50.4374)
(0 -0 50.571)
(0 -0 50.7091)
(0 -0 50.8347)
(0 -0 37.5658)
(0 -0 37.3489)
(0 -0 37.5501)
(0 -0 37.7862)
(0 -0 38.1186)
(0 -0 38.4766)
(0 -0 38.7975)
(0 -0 39.0905)
(0 -0 39.3752)
(0 -0 39.6537)
(0 -0 39.922)
(0 -0 40.1798)
(0 -0 40.4286)
(0 -0 40.6699)
(0 -0 40.9043)
(0 -0 41.1319)
(0 -0 41.3529)
(0 -0 41.5673)
(0 -0 41.7752)
(0 -0 41.9773)
(0 -0 42.1743)
(0 -0 42.3671)
(0 -0 42.5561)
(0 -0 42.7419)
(0 -0 42.9244)
(0 -0 43.1034)
(0 -0 43.2788)
(0 -0 43.4504)
(0 -0 43.6183)
(0 -0 43.7824)
(0 -0 43.9432)
(0 -0 44.1008)
(0 -0 44.2556)
(0 -0 44.4078)
(0 -0 44.5577)
(0 -0 44.7053)
(0 -0 44.8508)
(0 -0 44.9942)
(0 -0 45.1358)
(0 -0 45.2751)
(0 -0 45.4128)
(0 -0 45.5482)
(0 -0 45.6826)
(0 -0 45.8141)
(0 -0 45.9453)
(0 -0 46.0725)
(0 -0 46.2006)
(0 -0 46.3226)
(0 -0 46.4488)
(0 -0 46.5643)
(0 -0 34.5703)
(0 -0 34.3904)
(0 -0 34.579)
(0 -0 34.7817)
(0 -0 35.0648)
(0 -0 35.3788)
(0 -0 35.6651)
(0 -0 35.9257)
(0 -0 36.1782)
(0 -0 36.4255)
(0 -0 36.6645)
(0 -0 36.8942)
(0 -0 37.1159)
(0 -0 37.331)
(0 -0 37.54)
(0 -0 37.7431)
(0 -0 37.9402)
(0 -0 38.1312)
(0 -0 38.3165)
(0 -0 38.4965)
(0 -0 38.672)
(0 -0 38.8438)
(0 -0 39.0124)
(0 -0 39.1783)
(0 -0 39.3414)
(0 -0 39.5014)
(0 -0 39.6581)
(0 -0 39.8115)
(0 -0 39.9613)
(0 -0 40.1078)
(0 -0 40.2512)
(0 -0 40.3917)
(0 -0 40.5298)
(0 -0 40.6656)
(0 -0 40.7993)
(0 -0 40.9311)
(0 -0 41.0611)
(0 -0 41.1892)
(0 -0 41.3157)
(0 -0 41.4403)
(0 -0 41.5635)
(0 -0 41.6847)
(0 -0 41.8051)
(0 -0 41.923)
(0 -0 42.0406)
(0 -0 42.1549)
(0 -0 42.2701)
(0 -0 42.3799)
(0 -0 42.4937)
(0 -0 42.5981)
(0 -0 31.8064)
(0 -0 31.6565)
(0 -0 31.8295)
(0 -0 32.0036)
(0 -0 32.2438)
(0 -0 32.5173)
(0 -0 32.7717)
(0 -0 33.0029)
(0 -0 33.2259)
(0 -0 33.4449)
(0 -0 33.6569)
(0 -0 33.8609)
(0 -0 34.0577)
(0 -0 34.2487)
(0 -0 34.4344)
(0 -0 34.6149)
(0 -0 34.79)
(0 -0 34.9596)
(0 -0 35.1239)
(0 -0 35.2835)
(0 -0 35.4391)
(0 -0 35.5916)
(0 -0 35.7415)
(0 -0 35.8891)
(0 -0 36.0342)
(0 -0 36.1767)
(0 -0 36.3162)
(0 -0 36.4527)
(0 -0 36.5859)
(0 -0 36.716)
(0 -0 36.8434)
(0 -0 36.9682)
(0 -0 37.0908)
(0 -0 37.2114)
(0 -0 37.3302)
(0 -0 37.4474)
(0 -0 37.563)
(0 -0 37.677)
(0 -0 37.7895)
(0 -0 37.9005)
(0 -0 38.0102)
(0 -0 38.1183)
(0 -0 38.2256)
(0 -0 38.3308)
(0 -0 38.4359)
(0 -0 38.538)
(0 -0 38.641)
(0 -0 38.7393)
(0 -0 38.8412)
(0 -0 38.9348)
(0 -0 29.262)
(0 -0 29.1365)
(0 -0 29.292)
(0 -0 29.442)
(0 -0 29.6449)
(0 -0 29.8817)
(0 -0 30.1066)
(0 -0 30.3113)
(0 -0 30.5078)
(0 -0 30.7008)
(0 -0 30.8882)
(0 -0 31.0686)
(0 -0 31.2427)
(0 -0 31.4117)
(0 -0 31.5761)
(0 -0 31.736)
(0 -0 31.8909)
(0 -0 32.0409)
(0 -0 32.1861)
(0 -0 32.327)
(0 -0 32.4644)
(0 -0 32.5991)
(0 -0 32.7318)
(0 -0 32.8626)
(0 -0 32.9913)
(0 -0 33.1177)
(0 -0 33.2415)
(0 -0 33.3624)
(0 -0 33.4804)
(0 -0 33.5955)
(0 -0 33.7081)
(0 -0 33.8185)
(0 -0 33.9269)
(0 -0 34.0336)
(0 -0 34.1387)
(0 -0 34.2425)
(0 -0 34.3449)
(0 -0 34.4459)
(0 -0 34.5457)
(0 -0 34.6441)
(0 -0 34.7415)
(0 -0 34.8374)
(0 -0 34.9328)
(0 -0 35.0264)
(0 -0 35.1199)
(0 -0 35.2108)
(0 -0 35.3026)
(0 -0 35.3902)
(0 -0 35.4811)
(0 -0 35.5647)
(0 -0 26.9246)
(0 -0 26.8189)
(0 -0 26.956)
(0 -0 27.0855)
(0 -0 27.2565)
(0 -0 27.4603)
(0 -0 27.6583)
(0 -0 27.839)
(0 -0 28.0116)
(0 -0 28.1812)
(0 -0 28.3462)
(0 -0 28.5053)
(0 -0 28.6588)
(0 -0 28.8078)
(0 -0 28.9529)
(0 -0 29.0939)
(0 -0 29.2305)
(0 -0 29.3626)
(0 -0 29.4903)
(0 -0 29.6141)
(0 -0 29.735)
(0 -0 29.8536)
(0 -0 29.9706)
(0 -0 30.086)
(0 -0 30.1998)
(0 -0 30.3116)
(0 -0 30.421)
(0 -0 30.5277)
(0 -0 30.6317)
(0 -0 30.7332)
(0 -0 30.8324)
(0 -0 30.9295)
(0 -0 31.025)
(0 -0 31.119)
(0 -0 31.2117)
(0 -0 31.3032)
(0 -0 31.3936)
(0 -0 31.4827)
(0 -0 31.5709)
(0 -0 31.6579)
(0 -0 31.744)
(0 -0 31.829)
(0 -0 31.9134)
(0 -0 31.9964)
(0 -0 32.0794)
(0 -0 32.1601)
(0 -0 32.2417)
(0 -0 32.3195)
(0 -0 32.4003)
(0 -0 32.4747)
(0 -0 24.7814)
(0 -0 24.6916)
(0 -0 24.8103)
(0 -0 24.9222)
(0 -0 25.0659)
(0 -0 25.2404)
(0 -0 25.4139)
(0 -0 25.5732)
(0 -0 25.7245)
(0 -0 25.873)
(0 -0 26.0179)
(0 -0 26.1577)
(0 -0 26.2926)
(0 -0 26.4236)
(0 -0 26.5512)
(0 -0 26.6752)
(0 -0 26.7953)
(0 -0 26.9112)
(0 -0 27.023)
(0 -0 27.1314)
(0 -0 27.2372)
(0 -0 27.3412)
(0 -0 27.4439)
(0 -0 27.5455)
(0 -0 27.6458)
(0 -0 27.7443)
(0 -0 27.8406)
(0 -0 27.9345)
(0 -0 28.026)
(0 -0 28.115)
(0 -0 28.202)
(0 -0 28.2871)
(0 -0 28.3709)
(0 -0 28.4533)
(0 -0 28.5348)
(0 -0 28.6152)
(0 -0 28.6946)
(0 -0 28.7731)
(0 -0 28.8507)
(0 -0 28.9274)
(0 -0 29.0033)
(0 -0 29.0783)
(0 -0 29.153)
(0 -0 29.2264)
(0 -0 29.2998)
(0 -0 29.3713)
(0 -0 29.4436)
(0 -0 29.5125)
(0 -0 29.5843)
(0 -0 29.6502)
(0 -0 22.8194)
(0 -0 22.7423)
(0 -0 22.8433)
(0 -0 22.94)
(0 -0 23.0605)
(0 -0 23.2091)
(0 -0 23.3605)
(0 -0 23.5006)
(0 -0 23.633)
(0 -0 23.7628)
(0 -0 23.8896)
(0 -0 24.0122)
(0 -0 24.1304)
(0 -0 24.2452)
(0 -0 24.3571)
(0 -0 24.4658)
(0 -0 24.571)
(0 -0 24.6723)
(0 -0 24.7699)
(0 -0 24.8644)
(0 -0 24.9566)
(0 -0 25.0474)
(0 -0 25.1374)
(0 -0 25.2265)
(0 -0 25.3146)
(0 -0 25.4011)
(0 -0 25.4857)
(0 -0 25.5681)
(0 -0 25.6481)
(0 -0 25.7259)
(0 -0 25.8019)
(0 -0 25.8763)
(0 -0 25.9494)
(0 -0 26.0215)
(0 -0 26.0927)
(0 -0 26.1632)
(0 -0 26.2328)
(0 -0 26.3017)
(0 -0 26.3698)
(0 -0 26.4372)
(0 -0 26.504)
(0 -0 26.57)
(0 -0 26.6358)
(0 -0 26.7006)
(0 -0 26.7655)
(0 -0 26.8286)
(0 -0 26.8926)
(0 -0 26.9536)
(0 -0 27.0172)
(0 -0 27.0755)
(0 -0 21.0256)
(0 -0 20.9586)
(0 -0 21.043)
(0 -0 21.1262)
(0 -0 21.2272)
(0 -0 21.3532)
(0 -0 21.4848)
(0 -0 21.6077)
(0 -0 21.7236)
(0 -0 21.8367)
(0 -0 21.9474)
(0 -0 22.0545)
(0 -0 22.1579)
(0 -0 22.2584)
(0 -0 22.3562)
(0 -0 22.4513)
(0 -0 22.5431)
(0 -0 22.6314)
(0 -0 22.7162)
(0 -0 22.7982)
(0 -0 22.8783)
(0 -0 22.9573)
(0 -0 23.0358)
(0 -0 23.1138)
(0 -0 23.1909)
(0 -0 23.2668)
(0 -0 23.3409)
(0 -0 23.4129)
(0 -0 23.4827)
(0 -0 23.5505)
(0 -0 23.6166)
(0 -0 23.6813)
(0 -0 23.7449)
(0 -0 23.8077)
(0 -0 23.8699)
(0 -0 23.9313)
(0 -0 23.9922)
(0 -0 24.0524)
(0 -0 24.1121)
(0 -0 24.1712)
(0 -0 24.2298)
(0 -0 24.2879)
(0 -0 24.3458)
(0 -0 24.4029)
(0 -0 24.4601)
(0 -0 24.5159)
(0 -0 24.5724)
(0 -0 24.6262)
(0 -0 24.6825)
(0 -0 24.734)
(0 -0 19.3873)
(0 -0 19.3282)
(0 -0 19.3974)
(0 -0 19.4687)
(0 -0 19.5531)
(0 -0 19.6596)
(0 -0 19.7735)
(0 -0 19.8812)
(0 -0 19.9824)
(0 -0 20.0809)
(0 -0 20.1774)
(0 -0 20.2708)
(0 -0 20.361)
(0 -0 20.4486)
(0 -0 20.534)
(0 -0 20.617)
(0 -0 20.697)
(0 -0 20.7736)
(0 -0 20.847)
(0 -0 20.9179)
(0 -0 20.9872)
(0 -0 21.0557)
(0 -0 21.124)
(0 -0 21.192)
(0 -0 21.2595)
(0 -0 21.3259)
(0 -0 21.3906)
(0 -0 21.4533)
(0 -0 21.5141)
(0 -0 21.5729)
(0 -0 21.6302)
(0 -0 21.6863)
(0 -0 21.7415)
(0 -0 21.796)
(0 -0 21.85)
(0 -0 21.9035)
(0 -0 21.9566)
(0 -0 22.0092)
(0 -0 22.0613)
(0 -0 22.113)
(0 -0 22.1644)
(0 -0 22.2154)
(0 -0 22.2663)
(0 -0 22.3165)
(0 -0 22.367)
(0 -0 22.4162)
(0 -0 22.4662)
(0 -0 22.5137)
(0 -0 22.5634)
(0 -0 22.6088)
(0 -0 17.8917)
(0 -0 17.8388)
(0 -0 17.8944)
(0 -0 17.955)
(0 -0 18.0255)
(0 -0 18.1152)
(0 -0 18.2135)
(0 -0 18.3077)
(0 -0 18.3962)
(0 -0 18.4819)
(0 -0 18.5657)
(0 -0 18.647)
(0 -0 18.7256)
(0 -0 18.8019)
(0 -0 18.8763)
(0 -0 18.9486)
(0 -0 19.018)
(0 -0 19.0844)
(0 -0 19.1477)
(0 -0 19.2087)
(0 -0 19.2683)
(0 -0 19.3275)
(0 -0 19.3868)
(0 -0 19.446)
(0 -0 19.505)
(0 -0 19.5629)
(0 -0 19.6193)
(0 -0 19.6739)
(0 -0 19.7266)
(0 -0 19.7775)
(0 -0 19.827)
(0 -0 19.8754)
(0 -0 19.9231)
(0 -0 19.9703)
(0 -0 20.0171)
(0 -0 20.0636)
(0 -0 20.1098)
(0 -0 20.1556)
(0 -0 20.2011)
(0 -0 20.2462)
(0 -0 20.2912)
(0 -0 20.336)
(0 -0 20.3807)
(0 -0 20.425)
(0 -0 20.4695)
(0 -0 20.5129)
(0 -0 20.557)
(0 -0 20.599)
(0 -0 20.643)
(0 -0 20.683)
(0 -0 16.5268)
(0 -0 16.4787)
(0 -0 16.5223)
(0 -0 16.5732)
(0 -0 16.632)
(0 -0 16.7075)
(0 -0 16.792)
(0 -0 16.8743)
(0 -0 16.9517)
(0 -0 17.0262)
(0 -0 17.099)
(0 -0 17.1696)
(0 -0 17.238)
(0 -0 17.3044)
(0 -0 17.3691)
(0 -0 17.4319)
(0 -0 17.4921)
(0 -0 17.5493)
(0 -0 17.6037)
(0 -0 17.656)
(0 -0 17.7072)
(0 -0 17.7581)
(0 -0 17.8094)
(0 -0 17.861)
(0 -0 17.9123)
(0 -0 17.9629)
(0 -0 18.012)
(0 -0 18.0593)
(0 -0 18.1049)
(0 -0 18.1488)
(0 -0 18.1914)
(0 -0 18.233)
(0 -0 18.2741)
(0 -0 18.3149)
(0 -0 18.3554)
(0 -0 18.3957)
(0 -0 18.4358)
(0 -0 18.4756)
(0 -0 18.5153)
(0 -0 18.5547)
(0 -0 18.5941)
(0 -0 18.6334)
(0 -0 18.6728)
(0 -0 18.7118)
(0 -0 18.7511)
(0 -0 18.7894)
(0 -0 18.8284)
(0 -0 18.8655)
(0 -0 18.9044)
(0 -0 18.9398)
(0 -0 15.2811)
(0 -0 15.2366)
(0 -0 15.2698)
(0 -0 15.312)
(0 -0 15.361)
(0 -0 15.4244)
(0 -0 15.4968)
(0 -0 15.5687)
(0 -0 15.6364)
(0 -0 15.7012)
(0 -0 15.7643)
(0 -0 15.8257)
(0 -0 15.885)
(0 -0 15.9427)
(0 -0 15.999)
(0 -0 16.0535)
(0 -0 16.1056)
(0 -0 16.1548)
(0 -0 16.2013)
(0 -0 16.2459)
(0 -0 16.2896)
(0 -0 16.3334)
(0 -0 16.3776)