/*--------------------------------*- C++ -*----------------------------------*\
  =========                 |
  \\      /  F ield         | OpenFOAM: The Open Source CFD Toolbox
   \\    /   O peration     | Website:  https://openfoam.org
    \\  /    A nd           | Version:  7
     \\/     M anipulation  |
\*---------------------------------------------------------------------------*/
FoamFile
{
    version     2.0;
    format      ascii;
    class       volVectorField;
    location    "0.04";
    object      wallShearStress;
}
// * * * * * * * * * * * * * * * * * * * * * * * * * * * * * * * * * * * * * //

dimensions      [0 2 -2 0 0 0 0];

internalField   uniform (0 0 0);

boundaryField
{
    velocityInlet
    {
        type            calculated;
        value           uniform (0 0 0);
    }
    pressureOutlet
    {
        type            calculated;
        value           uniform (0 0 0);
    }
    fixedWalls
    {
        type            calculated;
        value           nonuniform List<vector> 
100
(
(-0.0112859 -0.00622672 0)
(0.00861309 -0.00069024 0)
(1.55901e-05 0.000327957 0)
(0.00396651 -0.000185108 0)
(0.00328832 -9.21678e-05 0)
(0.00415144 -2.23192e-06 0)
(0.00350116 5.30634e-05 0)
(0.00313873 8.01494e-05 0)
(0.00251518 6.49658e-05 0)
(0.00219369 2.47519e-05 0)
(0.0021433 -3.96914e-05 0)
(0.00243293 -6.45166e-05 0)
(0.00208655 0.000117038 0)
(-0.000567342 0.000401217 0)
(-0.00427046 0.000394522 0)
(-0.0068358 0.000268037 0)
(-0.00883313 0.000362836 0)
(-0.00842306 -5.95411e-05 0)
(-0.00211075 -0.00110787 0)
(0.00792329 -0.00159068 0)
(0.0154814 -0.00120582 0)
(0.0180556 -0.000398382 0)
(0.0158671 0.000356983 0)
(0.0105709 0.000749097 0)
(0.00440192 0.000740251 0)
(-0.000799843 0.000544165 0)
(-0.00422064 0.000302765 0)
(-0.00597819 0.000122721 0)
(-0.00656726 2.36867e-05 0)
(-0.00650062 -2.42245e-05 0)
(-0.00613271 -4.19101e-05 0)
(-0.00566734 -4.44482e-05 0)
(-0.00520897 -4.00024e-05 0)
(-0.00480286 -3.32062e-05 0)
(-0.00445437 -2.75742e-05 0)
(-0.00414387 -2.54019e-05 0)
(-0.0038447 -2.67867e-05 0)
(-0.00354139 -2.96383e-05 0)
(-0.00323928 -3.10516e-05 0)
(-0.00296024 -2.90732e-05 0)
(-0.00272965 -2.36483e-05 0)
(-0.00256462 -1.61058e-05 0)
(-0.00246998 -7.94076e-06 0)
(-0.00244149 -2.1442e-07 0)
(-0.00246885 7.24769e-06 0)
(-0.00253418 1.25474e-05 0)
(-0.00260868 1.39615e-05 0)
(-0.00265508 1.08786e-05 0)
(-0.00263939 2.71503e-06 0)
(-0.00254486 -7.1514e-06 0)
(-0.00237724 -1.59282e-05 0)
(-0.00215813 -2.20131e-05 0)
(-0.00191348 -2.52077e-05 0)
(-0.00166544 -2.60869e-05 0)
(-0.00143038 -2.52373e-05 0)
(-0.0012206 -2.29509e-05 0)
(-0.00104627 -1.93661e-05 0)
(-0.000915633 -1.46993e-05 0)
(-0.000833851 -9.42445e-06 0)
(-0.000801449 -4.36546e-06 0)
(-0.000814131 6.61342e-07 0)
(-0.000863837 4.58826e-06 0)
(-0.000940425 7.32454e-06 0)
(-0.00103384 8.92354e-06 0)
(-0.00113565 9.61179e-06 0)
(-0.00123978 9.67788e-06 0)
(-0.0013424 9.3843e-06 0)
(-0.00144142 8.91871e-06 0)
(-0.00153591 8.39325e-06 0)
(-0.00162564 7.87924e-06 0)
(-0.00171101 7.44331e-06 0)
(-0.00179286 7.1427e-06 0)
(-0.00187208 6.98561e-06 0)
(-0.0019487 6.87938e-06 0)
(-0.00202112 6.65077e-06 0)
(-0.00208595 6.09953e-06 0)
(-0.00213841 5.04242e-06 0)
(-0.00217311 3.34268e-06 0)
(-0.00218535 1.10397e-06 0)
(-0.00217381 -1.7206e-06 0)
(-0.00214325 -4.29314e-06 0)
(-0.00210587 -5.96493e-06 0)
(-0.00208338 -6.11443e-06 0)
(-0.00210592 -2.45959e-06 0)
(-0.00220487 4.51069e-06 0)
(-0.00239663 1.32232e-05 0)
(-0.00268112 2.22476e-05 0)
(-0.00304622 3.10448e-05 0)
(-0.0034719 3.87801e-05 0)
(-0.00389239 4.13094e-05 0)
(-0.00419435 3.51635e-05 0)
(-0.00416579 1.21921e-05 0)
(-0.00361099 -3.3361e-05 0)
(-0.00231321 -0.000101025 0)
(-0.000302364 -0.00016479 0)
(0.00193446 -0.000190629 0)
(0.00395022 -0.000151231 0)
(0.00420016 -4.09409e-05 0)
(0.00455148 4.00589e-05 0)
(0.000814471 0.000179854 0)
)
;
    }
    bottomWall
    {
        type            calculated;
        value           nonuniform List<vector> 
800
(
(-0.0353512 0.00216562 0)
(-0.0160366 0.000524958 0)
(-0.0105908 0.000100548 0)
(-0.00845617 3.45835e-05 0)
(-0.00749229 1.96774e-05 0)
(-0.0068568 1.6006e-05 0)
(-0.0063482 1.32058e-05 0)
(-0.00593719 1.07561e-05 0)
(-0.00560281 8.95518e-06 0)
(-0.00532432 7.65519e-06 0)
(-0.00508716 6.67012e-06 0)
(-0.00488188 5.89173e-06 0)
(-0.00470204 5.26111e-06 0)
(-0.00454289 4.74135e-06 0)
(-0.00440086 4.30685e-06 0)
(-0.00427316 3.93905e-06 0)
(-0.00415762 3.62425e-06 0)
(-0.00405249 3.35216e-06 0)
(-0.00395637 3.11493e-06 0)
(-0.00386809 2.90648e-06 0)
(-0.00378671 2.72203e-06 0)
(-0.00371141 2.55778e-06 0)
(-0.00364153 2.41069e-06 0)
(-0.00357649 2.27827e-06 0)
(-0.00351579 2.15849e-06 0)
(-0.00345901 2.04968e-06 0)
(-0.00340579 1.95043e-06 0)
(-0.0033558 1.85955e-06 0)
(-0.00330875 1.77606e-06 0)
(-0.00326441 1.69911e-06 0)
(-0.00322254 1.62796e-06 0)
(-0.00318295 1.56197e-06 0)
(-0.00314547 1.50061e-06 0)
(-0.00310995 1.4434e-06 0)
(-0.00307623 1.38993e-06 0)
(-0.0030442 1.33984e-06 0)
(-0.00301373 1.29281e-06 0)
(-0.00298474 1.24858e-06 0)
(-0.00295711 1.2069e-06 0)
(-0.00293076 1.16756e-06 0)
(-0.00290562 1.13035e-06 0)
(-0.00288161 1.0951e-06 0)
(-0.00285866 1.06171e-06 0)
(-0.00283672 1.02989e-06 0)
(-0.00281572 9.998e-07 0)
(-0.00279563 9.70775e-07 0)
(-0.00277636 9.43691e-07 0)
(-0.00275792 9.16798e-07 0)
(-0.00274021 8.92524e-07 0)
(-0.00272326 8.66359e-07 0)
(-0.00270916 8.44786e-07 0)
(-0.00269756 8.32581e-07 0)
(-0.00268616 8.16852e-07 0)
(-0.00267498 7.99888e-07 0)
(-0.00266402 7.83862e-07 0)
(-0.00265328 7.68542e-07 0)
(-0.00264276 7.53508e-07 0)
(-0.00263243 7.38703e-07 0)
(-0.00262231 7.24158e-07 0)
(-0.00261239 7.09871e-07 0)
(-0.00260267 6.95827e-07 0)
(-0.00259313 6.8201e-07 0)
(-0.00258379 6.68413e-07 0)
(-0.00257464 6.55028e-07 0)
(-0.00256566 6.41846e-07 0)
(-0.00255687 6.28861e-07 0)
(-0.00254826 6.16066e-07 0)
(-0.00253983 6.03456e-07 0)
(-0.00253156 5.91024e-07 0)
(-0.00252347 5.78764e-07 0)
(-0.00251555 5.66671e-07 0)
(-0.0025078 5.54741e-07 0)
(-0.00250021 5.42969e-07 0)
(-0.00249278 5.31349e-07 0)
(-0.00248551 5.19877e-07 0)
(-0.0024784 5.08548e-07 0)
(-0.00247145 4.9736e-07 0)
(-0.00246465 4.86306e-07 0)
(-0.00245801 4.75383e-07 0)
(-0.00245152 4.64589e-07 0)
(-0.00244517 4.53921e-07 0)
(-0.00243898 4.43373e-07 0)
(-0.00243293 4.32945e-07 0)
(-0.00242702 4.22633e-07 0)
(-0.00242126 4.12435e-07 0)
(-0.00241564 4.02349e-07 0)
(-0.00241016 3.92372e-07 0)
(-0.00240481 3.82505e-07 0)
(-0.00239961 3.72745e-07 0)
(-0.00239454 3.63091e-07 0)
(-0.0023896 3.53543e-07 0)
(-0.00238479 3.44101e-07 0)
(-0.00238012 3.34766e-07 0)
(-0.00237557 3.25537e-07 0)
(-0.00237116 3.16414e-07 0)
(-0.00236686 3.074e-07 0)
(-0.0023627 2.98494e-07 0)
(-0.00235865 2.89698e-07 0)
(-0.00235473 2.81012e-07 0)
(-0.00235093 2.72438e-07 0)
(-0.00234724 2.63977e-07 0)
(-0.00234367 2.5563e-07 0)
(-0.00234022 2.474e-07 0)
(-0.00233687 2.39287e-07 0)
(-0.00233364 2.31295e-07 0)
(-0.00233052 2.23425e-07 0)
(-0.0023275 2.1568e-07 0)
(-0.00232459 2.08064e-07 0)
(-0.00232179 2.00579e-07 0)
(-0.00231908 1.93231e-07 0)
(-0.00231648 1.86022e-07 0)
(-0.00231397 1.78958e-07 0)
(-0.00231156 1.72042e-07 0)
(-0.00230924 1.6528e-07 0)
(-0.00230701 1.58675e-07 0)
(-0.00230486 1.52234e-07 0)
(-0.00230281 1.45958e-07 0)
(-0.00230083 1.39851e-07 0)
(-0.00229894 1.33917e-07 0)
(-0.00229713 1.28159e-07 0)
(-0.00229539 1.22578e-07 0)
(-0.00229373 1.17174e-07 0)
(-0.00229213 1.1195e-07 0)
(-0.00229061 1.06905e-07 0)
(-0.00228915 1.02041e-07 0)
(-0.00228776 9.7357e-08 0)
(-0.00228642 9.28537e-08 0)
(-0.00228515 8.85319e-08 0)
(-0.00228393 8.43933e-08 0)
(-0.00228276 8.04434e-08 0)
(-0.00228164 7.66803e-08 0)
(-0.00228058 7.31076e-08 0)
(-0.00227956 6.9728e-08 0)
(-0.00227858 6.65501e-08 0)
(-0.00227764 6.35707e-08 0)
(-0.00227674 6.07865e-08 0)
(-0.00227588 5.81962e-08 0)
(-0.00227506 5.57868e-08 0)
(-0.00227426 5.3557e-08 0)
(-0.0022735 5.14752e-08 0)
(-0.00227276 4.95463e-08 0)
(-0.00227205 4.77072e-08 0)
(-0.00227137 4.59894e-08 0)
(-0.00227072 4.42791e-08 0)
(-0.00227009 4.26718e-08 0)
(-0.00226949 4.09595e-08 0)
(-0.00226891 3.93647e-08 0)
(-0.00226836 3.75181e-08 0)
(-0.00226784 3.58225e-08 0)
(-0.00226735 3.36819e-08 0)
(-0.00226696 3.18043e-08 0)
(-0.00226665 3.09354e-08 0)
(-0.00226635 2.9718e-08 0)
(-0.00226606 2.81942e-08 0)
(-0.00226579 2.65783e-08 0)
(-0.00226553 2.50145e-08 0)
(-0.00226529 2.34268e-08 0)
(-0.00226506 2.18345e-08 0)
(-0.00226484 2.02191e-08 0)
(-0.00226464 1.86053e-08 0)
(-0.00226445 1.69873e-08 0)
(-0.00226428 1.53876e-08 0)
(-0.00226412 1.38046e-08 0)
(-0.00226398 1.228e-08 0)
(-0.00226385 1.079e-08 0)
(-0.00226373 9.34041e-09 0)
(-0.00226363 7.92994e-09 0)
(-0.00226354 6.58663e-09 0)
(-0.00226347 5.29558e-09 0)
(-0.00226341 4.06005e-09 0)
(-0.00226336 2.86417e-09 0)
(-0.00226332 1.70644e-09 0)
(-0.0022633 5.83115e-10 0)
(-0.00226328 -4.1074e-10 0)
(-0.00226328 -1.3867e-09 0)
(-0.00226329 -2.35242e-09 0)
(-0.00226331 -3.23145e-09 0)
(-0.00226335 -4.12592e-09 0)
(-0.00226339 -5.02152e-09 0)
(-0.00226345 -5.91381e-09 0)
(-0.00226351 -6.78238e-09 0)
(-0.00226359 -7.67575e-09 0)
(-0.00226368 -8.51073e-09 0)
(-0.00226378 -9.38329e-09 0)
(-0.00226389 -1.02833e-08 0)
(-0.00226402 -1.11276e-08 0)
(-0.00226416 -1.20133e-08 0)
(-0.0022643 -1.29052e-08 0)
(-0.00226447 -1.37625e-08 0)
(-0.00226464 -1.4613e-08 0)
(-0.00226483 -1.54745e-08 0)
(-0.00226502 -1.62994e-08 0)
(-0.00226523 -1.71231e-08 0)
(-0.00226546 -1.79377e-08 0)
(-0.00226569 -1.87426e-08 0)
(-0.00226594 -1.95023e-08 0)
(-0.00226619 -2.0261e-08 0)
(-0.00226646 -2.10051e-08 0)
(-0.00226674 -2.17289e-08 0)
(-0.00226704 -2.24093e-08 0)
(-0.00226734 -2.30679e-08 0)
(-0.00226766 -2.37079e-08 0)
(-0.00226798 -2.43374e-08 0)
(-0.00226832 -2.49408e-08 0)
(-0.00226867 -2.55423e-08 0)
(-0.00226902 -2.61047e-08 0)
(-0.00226939 -2.66635e-08 0)
(-0.00226977 -2.71773e-08 0)
(-0.00227016 -2.76892e-08 0)
(-0.00227056 -2.81607e-08 0)
(-0.00227097 -2.86279e-08 0)
(-0.00227138 -2.90633e-08 0)
(-0.00227181 -2.94937e-08 0)
(-0.00227224 -2.99208e-08 0)
(-0.00227269 -3.03612e-08 0)
(-0.00227314 -3.06918e-08 0)
(-0.0022736 -3.10342e-08 0)
(-0.00227407 -3.13537e-08 0)
(-0.00227455 -3.16826e-08 0)
(-0.00227503 -3.19417e-08 0)
(-0.00227553 -3.21866e-08 0)
(-0.00227602 -3.24059e-08 0)
(-0.00227653 -3.26189e-08 0)
(-0.00227704 -3.28223e-08 0)
(-0.00227755 -3.30129e-08 0)
(-0.00227808 -3.31257e-08 0)
(-0.0022786 -3.32213e-08 0)
(-0.00227913 -3.32995e-08 0)
(-0.00227967 -3.33427e-08 0)
(-0.00228021 -3.34044e-08 0)
(-0.00228075 -3.33221e-08 0)
(-0.00228129 -3.34221e-08 0)
(-0.00228184 -3.3307e-08 0)
(-0.00228239 -3.33882e-08 0)
(-0.00228294 -3.29801e-08 0)
(-0.00228349 -3.32572e-08 0)
(-0.00228404 -3.25264e-08 0)
(-0.0022846 -3.3205e-08 0)
(-0.00228514 -3.18454e-08 0)
(-0.00228571 -3.33441e-08 0)
(-0.00228623 -3.0766e-08 0)
(-0.00228682 -3.38702e-08 0)
(-0.0022873 -2.89305e-08 0)
(-0.00228793 -3.52286e-08 0)
(-0.00228836 -2.57409e-08 0)
(-0.00228905 -3.82561e-08 0)
(-0.00228937 -2.04256e-08 0)
(-0.00229021 -4.43076e-08 0)
(-0.00229033 -1.22905e-08 0)
(-0.00229145 -4.76453e-08 0)
(-0.0353511 -0.00216564 0)
(-0.0160359 -0.000524984 0)
(-0.0105895 -0.000100576 0)
(-0.00845417 -3.46095e-05 0)
(-0.00748963 -1.97038e-05 0)
(-0.00685344 -1.60334e-05 0)
(-0.00634411 -1.32341e-05 0)
(-0.00593235 -1.07855e-05 0)
(-0.00559721 -8.98555e-06 0)
(-0.00531794 -7.68655e-06 0)
(-0.00507998 -6.70249e-06 0)
(-0.00487391 -5.92523e-06 0)
(-0.00469324 -5.29594e-06 0)
(-0.00453324 -4.77778e-06 0)
(-0.00439032 -4.34517e-06 0)
(-0.0042617 -3.97962e-06 0)
(-0.00414518 -3.66745e-06 0)
(-0.00403901 -3.39839e-06 0)
(-0.00394177 -3.16464e-06 0)
(-0.00385229 -2.96012e-06 0)
(-0.0037696 -2.78008e-06 0)
(-0.0036929 -2.62072e-06 0)
(-0.0036215 -2.47896e-06 0)
(-0.00355481 -2.35232e-06 0)
(-0.00349234 -2.23872e-06 0)
(-0.00343365 -2.13646e-06 0)
(-0.00337838 -2.0441e-06 0)
(-0.0033262 -1.96046e-06 0)
(-0.00327682 -1.88445e-06 0)
(-0.00323 -1.8154e-06 0)
(-0.00318551 -1.75221e-06 0)
(-0.00314316 -1.69487e-06 0)
(-0.00310278 -1.64187e-06 0)
(-0.00306419 -1.59429e-06 0)
(-0.0030273 -1.54935e-06 0)
(-0.00299193 -1.51033e-06 0)
(-0.00295801 -1.47179e-06 0)
(-0.00292545 -1.44052e-06 0)
(-0.00289402 -1.40779e-06 0)
(-0.00286404 -1.38246e-06 0)
(-0.00283454 -1.35909e-06 0)
(-0.0028073 -1.33118e-06 0)
(-0.00277862 -1.33654e-06 0)
(-0.00275535 -1.27013e-06 0)
(-0.00272469 -1.37961e-06 0)
(-0.00270962 -1.13841e-06 0)
(-0.00266924 -1.6479e-06 0)
(-0.00267407 -5.11197e-07 0)
(-0.00261125 -6.84847e-06 0)
(-0.00247508 0.000177111 0)
(2.92793e-06 -3.82481e-07 0)
(6.01401e-06 -8.55171e-06 0)
(8.22944e-06 -2.22358e-05 0)
(9.22726e-06 -3.80031e-05 0)
(9.53981e-06 -5.45527e-05 0)
(9.56346e-06 -7.09902e-05 0)
(9.51317e-06 -8.71592e-05 0)
(9.44925e-06 -0.000103033 0)
(9.38366e-06 -0.000118618 0)
(9.31458e-06 -0.000133919 0)
(9.2382e-06 -0.000148936 0)
(9.15171e-06 -0.000163662 0)
(9.05326e-06 -0.000178087 0)
(8.9416e-06 -0.000192198 0)
(8.81574e-06 -0.000205985 0)
(8.67483e-06 -0.000219434 0)
(8.51809e-06 -0.000232532 0)
(8.34481e-06 -0.000245264 0)
(8.15437e-06 -0.000257617 0)
(7.9462e-06 -0.000269576 0)
(7.71986e-06 -0.000281128 0)
(7.47499e-06 -0.000292258 0)
(7.21133e-06 -0.000302952 0)
(6.92873e-06 -0.000313196 0)
(6.62717e-06 -0.000322978 0)
(6.30669e-06 -0.000332284 0)
(5.96748e-06 -0.000341103 0)
(5.60979e-06 -0.000349423 0)
(5.23399e-06 -0.000357233 0)
(4.84051e-06 -0.000364524 0)
(4.42988e-06 -0.000371287 0)
(4.00268e-06 -0.000377513 0)
(3.55954e-06 -0.000383196 0)
(3.10112e-06 -0.000388329 0)
(2.62806e-06 -0.000392908 0)
(2.14102e-06 -0.000396928 0)
(1.64072e-06 -0.000400387 0)
(1.12785e-06 -0.000403283 0)
(6.06168e-07 -0.000405615 0)
(7.79669e-08 -0.000407383 0)
(-4.58751e-07 -0.000408585 0)
(-1.0068e-06 -0.000409222 0)
(-1.56384e-06 -0.000409289 0)
(-2.12346e-06 -0.000408797 0)
(-2.68112e-06 -0.000407756 0)
(-3.2395e-06 -0.00040617 0)
(-3.80073e-06 -0.000404047 0)
(-4.36445e-06 -0.00040139 0)
(-4.92904e-06 -0.000398207 0)
(-5.49239e-06 -0.000394503 0)
(-6.05327e-06 -0.000390288 0)
(-6.61098e-06 -0.000385568 0)
(-7.1647e-06 -0.000380354 0)
(-7.7134e-06 -0.000374652 0)
(-8.25588e-06 -0.000368474 0)
(-8.79087e-06 -0.000361827 0)
(-9.31696e-06 -0.000354721 0)
(-9.83255e-06 -0.000347168 0)
(-1.03358e-05 -0.000339176 0)
(-1.08247e-05 -0.000330757 0)
(-1.12969e-05 -0.000321922 0)
(-1.17495e-05 -0.000312683 0)
(-1.21794e-05 -0.000303053 0)
(-1.25829e-05 -0.000293046 0)
(-1.29558e-05 -0.000282676 0)
(-1.32932e-05 -0.000271959 0)
(-1.35894e-05 -0.000260913 0)
(-1.3838e-05 -0.000249557 0)
(-1.40317e-05 -0.000237912 0)
(-1.41622e-05 -0.000226003 0)
(-1.42203e-05 -0.000213857 0)
(-1.41957e-05 -0.000201503 0)
(-1.40768e-05 -0.000188976 0)
(-1.38512e-05 -0.000176312 0)
(-1.35057e-05 -0.000163556 0)
(-1.30258e-05 -0.000150754 0)
(-1.23981e-05 -0.00013796 0)
(-1.16089e-05 -0.000125234 0)
(-1.0648e-05 -0.000112638 0)
(-9.50779e-06 -0.000100245 0)
(-8.18185e-06 -8.81261e-05 0)
(-6.66483e-06 -7.63577e-05 0)
(-4.9553e-06 -6.50253e-05 0)
(-3.05825e-06 -5.42158e-05 0)
(-9.93874e-07 -4.40244e-05 0)
(1.19975e-06 -3.45454e-05 0)
(3.47984e-06 -2.58575e-05 0)
(5.77018e-06 -1.80679e-05 0)
(7.98311e-06 -1.12372e-05 0)
(9.99784e-06 -5.40137e-06 0)
(1.16475e-05 -6.14269e-07 0)
(1.25723e-05 3.20666e-06 0)
(1.23823e-05 6.30563e-06 0)
(1.04622e-05 9.12366e-06 0)
(6.09017e-06 1.24208e-05 0)
(-1.37097e-06 1.72214e-05 0)
(-1.2222e-05 2.46257e-05 0)
(-2.61184e-05 3.56315e-05 0)
(-4.16764e-05 5.09216e-05 0)
(-5.62107e-05 7.05725e-05 0)
(-6.57264e-05 9.35275e-05 0)
(-6.56508e-05 0.000116803 0)
(-5.26071e-05 0.000135378 0)
(-2.59711e-05 0.000143232 0)
(1.14759e-05 0.000134672 0)
(5.38618e-05 0.000106475 0)
(9.49916e-05 5.8866e-05 0)
(0.000128748 -5.91472e-06 0)
(0.000149785 -8.2719e-05 0)
(0.00015493 -0.000164222 0)
(0.000143774 -0.000241937 0)
(0.000120199 -0.000308639 0)
(8.89571e-05 -0.000361396 0)
(5.34309e-05 -0.000398844 0)
(1.72938e-05 -0.00042004 0)
(-1.62132e-05 -0.000425079 0)
(-4.38565e-05 -0.000414446 0)
(-6.28507e-05 -0.000389132 0)
(-7.09071e-05 -0.000350977 0)
(-6.7362e-05 -0.000302537 0)
(-5.25877e-05 -0.000249824 0)
(-3.44744e-05 -0.00020291 0)
(-3.17949e-05 -0.000171758 0)
(-6.99479e-05 -0.000154099 0)
(-0.000162441 -0.000120568 0)
(-0.00028356 -2.89023e-05 0)
(-0.000377849 0.000120929 0)
(-0.000418165 0.000283447 0)
(-0.000417816 0.000423563 0)
(-0.000397803 0.000538742 0)
(-0.00036867 0.000636596 0)
(-0.00033454 0.000720646 0)
(-0.000297722 0.000792009 0)
(-0.000259769 0.000851392 0)
(-0.000221788 0.000899449 0)
(-0.0001846 0.00093686 0)
(-0.00014884 0.000964348 0)
(-0.000114998 0.000982703 0)
(-8.33956e-05 0.00099279 0)
(-5.41601e-05 0.000995437 0)
(-2.76292e-05 0.000991344 0)
(-3.87645e-06 0.000981661 0)
(1.73933e-05 0.000967113 0)
(3.62386e-05 0.000948374 0)
(5.27728e-05 0.000926076 0)
(6.71292e-05 0.00090081 0)
(7.94536e-05 0.000873121 0)
(8.98989e-05 0.000843504 0)
(9.86209e-05 0.000812404 0)
(0.000105775 0.000780219 0)
(0.000111516 0.000747298 0)
(0.000115994 0.000713946 0)
(0.000119354 0.000680426 0)
(0.000121735 0.00064696 0)
(0.00012327 0.000613734 0)
(0.000124082 0.000580902 0)
(0.000124286 0.000548585 0)
(0.000123989 0.000516879 0)
(0.000123288 0.000485855 0)
(0.000122274 0.000455564 0)
(0.000121028 0.000426037 0)
(0.000119622 0.000397289 0)
(0.000118123 0.000369322 0)
(0.000116589 0.000342123 0)
(0.00011507 0.000315673 0)
(0.00011361 0.000289942 0)
(0.000112246 0.000264893 0)
(0.000111007 0.000240484 0)
(0.000109916 0.000216667 0)
(0.000108989 0.000193393 0)
(0.000108234 0.000170609 0)
(0.000107649 0.000148262 0)
(0.000107227 0.000126299 0)
(0.000106948 0.000104671 0)
(0.000106785 8.33313e-05 0)
(0.0001067 6.22429e-05 0)
(0.000106645 4.13765e-05 0)
(0.000106561 2.07147e-05 0)
(0.000106382 2.53141e-07 0)
(0.000106029 -1.99978e-05 0)
(0.00010542 -4.00111e-05 0)
(0.000104461 -5.97402e-05 0)
(0.000103061 -7.91175e-05 0)
(0.000101126 -9.80521e-05 0)
(9.857e-05 -0.000116429 0)
(9.53146e-05 -0.000134112 0)
(9.12962e-05 -0.000150946 0)
(8.6465e-05 -0.000166772 0)
(8.07773e-05 -0.000181452 0)
(7.41724e-05 -0.000194923 0)
(6.65167e-05 -0.000207286 0)
(5.74856e-05 -0.000219001 0)
(4.63256e-05 -0.000231246 0)
(3.14166e-05 -0.00024661 0)
(9.48302e-06 -0.000270348 0)
(-2.58539e-05 -0.000312308 0)
(-8.78394e-05 -0.000389803 0)
(-0.000202497 -0.000529261 0)
(-0.000403481 -0.000757159 0)
(-0.000694111 -0.00106989 0)
(2.99642e-07 -2.44538e-06 0)
(5.04762e-06 -3.69179e-06 0)
(1.08678e-05 -4.33551e-06 0)
(1.71021e-05 -4.50069e-06 0)
(2.33858e-05 -4.50383e-06 0)
(2.96556e-05 -4.49047e-06 0)
(3.59365e-05 -4.49434e-06 0)
(4.22475e-05 -4.51385e-06 0)
(4.86003e-05 -4.54457e-06 0)
(5.50033e-05 -4.58353e-06 0)
(6.1464e-05 -4.62896e-06 0)
(6.79889e-05 -4.67978e-06 0)
(7.45838e-05 -4.73523e-06 0)
(8.12539e-05 -4.79472e-06 0)
(8.8004e-05 -4.85772e-06 0)
(9.48384e-05 -4.92369e-06 0)
(0.00010176 -4.99212e-06 0)
(0.000108773 -5.06245e-06 0)
(0.000115879 -5.13407e-06 0)
(0.000123078 -5.20628e-06 0)
(0.000130373 -5.27831e-06 0)
(0.000137761 -5.34929e-06 0)
(0.000145242 -5.41828e-06 0)
(0.000152813 -5.48422e-06 0)
(0.000160469 -5.54594e-06 0)
(0.000168204 -5.60214e-06 0)
(0.000176012 -5.65135e-06 0)
(0.000183882 -5.69197e-06 0)
(0.000191803 -5.72217e-06 0)
(0.000199762 -5.73996e-06 0)
(0.000207743 -5.74317e-06 0)
(0.000215725 -5.72941e-06 0)
(0.000223689 -5.69608e-06 0)
(0.000231609 -5.64032e-06 0)
(0.000239456 -5.55894e-06 0)
(0.000247198 -5.44835e-06 0)
(0.000254801 -5.30468e-06 0)
(0.000262224 -5.12389e-06 0)
(0.000269424 -4.90168e-06 0)
(0.000276351 -4.6335e-06 0)
(0.000282953 -4.31453e-06 0)
(0.000289172 -3.93975e-06 0)
(0.000294946 -3.504e-06 0)
(0.000300207 -3.00205e-06 0)
(0.000304883 -2.42852e-06 0)
(0.0003089 -1.77798e-06 0)
(0.000312177 -1.04481e-06 0)
(0.000314631 -2.235e-07 0)
(0.000316177 6.89271e-07 0)
(0.000316732 1.69787e-06 0)
(0.000316199 2.78083e-06 0)
(0.000314492 3.92927e-06 0)
(0.000311533 5.15634e-06 0)
(0.000307242 6.46592e-06 0)
(0.000301546 7.85318e-06 0)
(0.00029438 9.30845e-06 0)
(0.000285691 1.08202e-05 0)
(0.000275441 1.23729e-05 0)
(0.000263607 1.39493e-05 0)
(0.000250185 1.55266e-05 0)
(0.000235193 1.70821e-05 0)
(0.000218669 1.85916e-05 0)
(0.000200677 2.00284e-05 0)
(0.000181306 2.13634e-05 0)
(0.000160671 2.25592e-05 0)
(0.000138919 2.35724e-05 0)
(0.000116229 2.43621e-05 0)
(9.28066e-05 2.49013e-05 0)
(6.88766e-05 2.51745e-05 0)
(4.46712e-05 2.51652e-05 0)
(2.04345e-05 2.48663e-05 0)
(-3.61469e-06 2.42627e-05 0)
(-2.72046e-05 2.33653e-05 0)
(-5.00264e-05 2.2188e-05 0)
(-7.19702e-05 2.074e-05 0)
(-9.2697e-05 1.89978e-05 0)
(-0.000111509 1.69257e-05 0)
(-0.000128641 1.46562e-05 0)
(-0.000144095 1.22418e-05 0)
(-0.000157569 9.64451e-06 0)
(-0.000168936 6.86025e-06 0)
(-0.00017802 4.0958e-06 0)
(-0.000184842 1.32057e-06 0)
(-0.000189431 -1.49397e-06 0)
(-0.000191749 -4.22973e-06 0)
(-0.000191886 -6.844e-06 0)
(-0.000189895 -9.44947e-06 0)
(-0.000185849 -1.18408e-05 0)
(-0.000179897 -1.40642e-05 0)
(-0.000172194 -1.61177e-05 0)
(-0.000162939 -1.79217e-05 0)
(-0.0001523 -1.95322e-05 0)
(-0.000140431 -2.0895e-05 0)
(-0.000127566 -2.20469e-05 0)
(-0.000113866 -2.31358e-05 0)
(-9.9317e-05 -2.43911e-05 0)
(-8.36843e-05 -2.63295e-05 0)
(-6.56549e-05 -2.9653e-05 0)
(-4.28409e-05 -3.43467e-05 0)
(-2.71285e-06 -3.58248e-05 0)
(-3.58266e-05 -1.57737e-05 0)
(-3.59125e-05 -6.77905e-05 0)
(-3.57997e-05 -0.000111261 0)
(-3.63354e-05 -0.000154705 0)
(-3.70513e-05 -0.000198702 0)
(-3.78986e-05 -0.000243424 0)
(-3.88038e-05 -0.000289023 0)
(-3.97778e-05 -0.000335593 0)
(-4.07741e-05 -0.000383237 0)
(-4.17034e-05 -0.000431944 0)
(-4.25508e-05 -0.000481651 0)
(-4.32156e-05 -0.000532233 0)
(-4.36167e-05 -0.000583486 0)
(-4.3661e-05 -0.000635082 0)
(-4.32586e-05 -0.000686623 0)
(-4.22758e-05 -0.000737593 0)
(-4.05842e-05 -0.000787346 0)
(-3.80694e-05 -0.000835142 0)
(-3.4579e-05 -0.000880108 0)
(-2.99401e-05 -0.000921229 0)
(-2.407e-05 -0.000957387 0)
(-1.67719e-05 -0.000987393 0)
(-7.9635e-06 -0.00100992 0)
(2.47151e-06 -0.00102363 0)
(1.46811e-05 -0.00102721 0)
(2.8453e-05 -0.0010191 0)
(4.37652e-05 -0.000997835 0)
(6.045e-05 -0.000962364 0)
(7.83329e-05 -0.000911774 0)
(9.70212e-05 -0.000845431 0)
(0.000116067 -0.000763149 0)
(0.000135029 -0.000665168 0)
(0.000153477 -0.000552086 0)
(0.000171068 -0.000424818 0)
(0.000187671 -0.000284524 0)
(0.000203758 -0.000132082 0)
(0.000219061 3.39802e-05 0)
(0.000230668 0.000211331 0)
(0.000235361 0.000390393 0)
(0.000233478 0.000570402 0)
(0.000224594 0.000751767 0)
(0.000203063 0.000930079 0)
(0.00016467 0.0010956 0)
(0.000110304 0.00123397 0)
(4.63504e-05 0.00133122 0)
(-2.18527e-05 0.00137604 0)
(-9.69188e-05 0.00135901 0)
(-0.000174684 0.00127274 0)
(-0.000237327 0.00111944 0)
(-0.000263105 0.000928083 0)
(-0.000231492 0.000684296 0)
(-2.66099e-05 0.000430115 0)
(0.00019574 0.00036698 0)
(-2.27536e-05 0.000247752 0)
(-0.00028987 8.45223e-05 0)
(-0.000784766 0.000188031 0)
(-0.00137374 0.000194292 0)
(-0.00150076 -0.00016421 0)
(-0.00141587 -0.000827513 0)
(0.00129995 9.3481e-05 0)
(0.00195183 0.00138388 0)
(0.00157482 0.00285388 0)
(0.00113396 0.00326373 0)
(0.00115657 0.00379711 0)
(0.000940786 0.00436856 0)
(0.000857991 0.00474471 0)
(0.000759276 0.0051567 0)
(0.000664305 0.00546987 0)
(0.000599033 0.00575872 0)
(0.000523782 0.00600526 0)
(0.000469277 0.0062135 0)
(0.000412085 0.00639654 0)
(0.000364201 0.00654653 0)
(0.000318177 0.0066753 0)
(0.000275801 0.00677857 0)
(0.000236185 0.00686232 0)
(0.000198354 0.00692582 0)
(0.000163195 0.00697154 0)
(0.00012985 0.0070007 0)
(9.86403e-05 0.00701454 0)
(6.94269e-05 0.00701411 0)
(4.30682e-05 0.00700074 0)
(1.83779e-05 0.00697717 0)
(-5.29888e-06 0.00694282 0)
(-2.76697e-05 0.00689879 0)
(-4.9264e-05 0.00684573 0)
(-7.00688e-05 0.00678395 0)
(-9.0171e-05 0.00671415 0)
(-0.000109686 0.00663668 0)
(-0.000128584 0.006552 0)
(-0.000146901 0.00646056 0)
(-0.000164613 0.00636273 0)
(-0.000181685 0.00625894 0)
(-0.000198079 0.0061496 0)
(-0.000213734 0.00603515 0)
(-0.000228595 0.00591602 0)
(-0.000242595 0.00579265 0)
(-0.00025567 0.00566553 0)
(-0.00026776 0.00553512 0)
(-0.000278811 0.00540192 0)
(-0.000288776 0.00526642 0)
(-0.00029762 0.00512913 0)
(-0.000305322 0.00499053 0)
(-0.000311874 0.00485111 0)
(-0.000317282 0.00471134 0)
(-0.000321567 0.00457167 0)
(-0.000324764 0.00443253 0)
(-0.000326922 0.00429431 0)
(-0.000328101 0.00415737 0)
(-0.000328371 0.00402203 0)
(-0.00032781 0.00388858 0)
(-0.000326502 0.00375725 0)
(-0.000324535 0.00362826 0)
(-0.000321997 0.00350177 0)
(-0.000318977 0.0033779 0)
(-0.000315563 0.00325675 0)
(-0.000311839 0.00313837 0)
(-0.000307884 0.0030228 0)
(-0.000303772 0.00291002 0)
(-0.000299573 0.00280002 0)
(-0.000295347 0.00269275 0)
(-0.000291152 0.00258815 0)
(-0.000287037 0.00248615 0)
(-0.000283047 0.00238665 0)
(-0.00027922 0.00228955 0)
(-0.00027559 0.00219475 0)
(-0.000272186 0.00210214 0)
(-0.000269032 0.00201161 0)
(-0.00026615 0.00192302 0)
(-0.000263558 0.00183627 0)
(-0.000261273 0.00175123 0)
(-0.000259307 0.00166779 0)
(-0.000257672 0.00158582 0)
(-0.000256377 0.00150521 0)
(-0.000255433 0.00142585 0)
(-0.000254846 0.00134761 0)
(-0.000254623 0.0012704 0)
(-0.000254771 0.0011941 0)
(-0.000255296 0.00111861 0)
(-0.000256204 0.00104383 0)
(-0.000257501 0.000969667 0)
(-0.000259193 0.000896024 0)
(-0.00026129 0.000822813 0)
(-0.000263801 0.000749949 0)
(-0.000266738 0.000677346 0)
(-0.000270115 0.000604916 0)
(-0.000273947 0.00053256 0)
(-0.000278248 0.000460166 0)
(-0.000283023 0.000387599 0)
(-0.000288261 0.000314708 0)
(-0.000293929 0.000241337 0)
(-0.000299961 0.000167365 0)
(-0.000306267 9.27465e-05 0)
(-0.000312833 1.75284e-05 0)
(-0.000319685 -5.8244e-05 0)
(-0.000326784 -0.000134507 0)
(-0.000334152 -0.00021118 0)
(-0.000341905 -0.000288271 0)
(-0.000350144 -0.000365867 0)
(-0.000358934 -0.000444087 0)
(-0.000368319 -0.000523047 0)
(-0.000378337 -0.000602857 0)
(-0.00038903 -0.000683612 0)
(-0.00040044 -0.000765398 0)
(-0.000412615 -0.00084829 0)
(-0.000425616 -0.000932361 0)
(-0.000439512 -0.00101768 0)
(-0.000454388 -0.00110433 0)
(-0.00047034 -0.00119238 0)
(-0.000487482 -0.00128192 0)
(-0.000505946 -0.00137303 0)
(-0.000525881 -0.00146582 0)
(-0.000547461 -0.0015604 0)
(-0.000570883 -0.00165688 0)
(-0.00059637 -0.00175539 0)
(-0.000624177 -0.00185608 0)
(-0.000654591 -0.00195911 0)
(-0.000687937 -0.00206464 0)
(-0.000724582 -0.00217288 0)
(-0.000764938 -0.00228403 0)
(-0.000809468 -0.00239834 0)
(-0.000858689 -0.00251606 0)
(-0.000913182 -0.00263748 0)
(-0.000973591 -0.00276294 0)
(-0.00104064 -0.00289279 0)
(-0.00111512 -0.00302741 0)
(-0.00119794 -0.00316734 0)
(-0.00129004 -0.00331285 0)
(-0.00139261 -0.00346501 0)
(-0.00150663 -0.00362331 0)
(-0.00163397 -0.00379092 0)
(-0.00177491 -0.00396338 0)
(-0.00193371 -0.00415244 0)
(-0.00210654 -0.00433683 0)
(-0.00230674 -0.00456217 0)
(-0.00251245 -0.00474146 0)
(-0.00276978 -0.00504653 0)
(-0.00298346 -0.00514956 0)
(-0.0033026 -0.00566694 0)
(-0.00336043 -0.00543444 0)
)
;
    }
    frontAndBack
    {
        type            empty;
    }
}


// ************************************************************************* //
