/*--------------------------------*- C++ -*----------------------------------*\
  =========                 |
  \\      /  F ield         | OpenFOAM: The Open Source CFD Toolbox
   \\    /   O peration     | Website:  https://openfoam.org
    \\  /    A nd           | Version:  7
     \\/     M anipulation  |
\*---------------------------------------------------------------------------*/
FoamFile
{
    version     2.0;
    format      ascii;
    class       volScalarField;
    location    "0.26";
    object      nut;
}
// * * * * * * * * * * * * * * * * * * * * * * * * * * * * * * * * * * * * * //

dimensions      [0 2 -1 0 0 0 0];

internalField   nonuniform List<scalar> 
70000
(
0
0
0
0
0
0
0
0
0
0
0
0
0
0
0
0
0
0
0
0
0
0
0
0
0
0
0
0
0
0
0
0
0
0
0
0
0
0
0
0
0
0
0
4.96338e-14
0
2.43118e-13
0
9.19293e-13
5.82741e-15
0
0
0
0
0
0
0
0
0
0
0
0
0
0
0
0
0
0
0
0
0
0
0
0
0
0
0
0
0
0
0
0
0
0
0
0
0
0
0
0
0
0
0
0
1.19995e-13
0
4.57887e-13
0
1.79961e-12
2.66614e-12
0
0
0
0
0
0
0
0
0
0
0
0
0
0
0
0
0
0
0
0
0
0
0
0
0
0
0
0
0
0
0
0
0
0
0
0
0
0
0
0
0
0
4.09188e-14
0
1.94461e-13
0
6.23618e-13
0
2.33069e-12
7.7437e-12
0
0
0
0
0
0
0
0
0
0
0
0
0
0
0
0
0
0
0
0
0
0
0
0
0
0
0
0
0
0
0
0
0
0
0
0
0
0
0
0
0
0
1.57471e-15
0
1.9393e-13
0
7.12863e-13
0
2.34706e-12
1.23721e-11
0
0
0
0
0
0
0
0
0
0
0
0
0
0
0
0
0
0
0
0
0
0
0
0
0
0
0
0
0
0
0
0
0
0
0
0
0
0
0
0
0
0
0
0
1.1757e-13
0
7.23379e-13
0
2.0939e-12
1.51603e-11
0
9.45229e-10
0
0
0
0
0
0
0
0
0
0
0
0
0
0
0
0
0
0
0
0
0
0
0
0
0
0
0
0
0
0
0
0
0
0
0
0
0
0
0
0
0
0
0
0
6.3231e-13
0
1.75586e-12
1.65727e-11
0
1.31908e-08
0
0
0
0
0
0
0
0
0
0
0
0
0
0
0
0
0
0
0
0
0
0
0
0
0
0
0
0
0
0
0
0
0
0
0
0
0
0
0
0
0
0
0
0
4.09387e-13
0
1.29324e-12
1.72207e-11
0
1.20845e-08
0
0
0
0
0
0
0
0
0
0
0
0
0
0
0
0
0
0
0
0
0
0
0
0
0
0
0
0
0
0
0
0
0
0
0
0
0
0
0
0
0
0
0
0
6.85334e-14
0
6.94776e-13
1.73469e-11
0
1.10655e-08
0
0
0
0
0
0
0
0
0
0
0
0
0
0
0
0
0
0
0
0
0
0
0
0
0
0
0
0
0
0
0
0
0
0
0
0
0
0
0
0
0
0
0
0
0
0
3.01299e-14
1.70301e-11
0
1.02176e-08
0
0
0
0
0
0
0
0
0
0
0
0
0
0
0
0
0
0
0
0
0
0
0
0
0
0
0
0
0
0
0
0
0
0
0
0
0
0
0
0
0
0
0
0
0
0
0
1.62358e-11
0
9.50748e-09
0
0
0
0
0
0
0
0
0
0
0
0
0
0
0
0
0
0
0
0
0
0
0
0
0
0
0
0
0
0
0
0
0
0
0
0
0
0
0
0
0
0
0
0
0
0
0
1.49414e-11
0
8.86466e-09
0
0
0
0
0
0
0
0
0
0
0
0
0
0
0
0
0
0
0
0
0
0
0
0
0
0
0
0
0
0
0
0
0
0
0
0
0
0
0
0
0
0
0
0
0
1.86557e-13
0
1.33615e-11
0
8.22336e-09
0
0
0
0
0
0
0
0
0
0
0
0
0
0
0
0
0
0
0
0
0
0
0
0
0
0
0
0
0
0
0
0
0
0
0
0
0
0
0
0
0
0
0
0
0
7.89952e-13
0
1.17723e-11
0
7.56375e-09
0
0
0
0
0
0
0
0
0
0
0
0
0
0
0
0
0
0
0
0
0
0
0
0
0
0
0
0
0
0
0
0
0
0
0
0
0
0
0
0
0
0
0
0
0
1.48937e-12
0
1.0079e-11
0
6.89198e-09
0
0
0
0
0
0
0
0
0
0
0
0
0
0
0
0
0
0
0
0
0
0
0
0
0
0
0
0
0
0
0
0
0
0
0
0
0
0
0
0
0
0
0
0
0
2.26276e-12
0
7.69632e-12
0
6.21914e-09
0
0
0
0
0
0
0
0
0
0
0
0
0
0
0
0
0
0
0
0
7.48468e-12
4.90588e-12
0
0
0
0
0
0
0
0
0
0
0
0
0
0
0
0
0
0
0
0
0
0
0
3.09802e-12
0
3.59427e-12
0
5.55375e-09
0
0
0
4.7912e-11
0
0
0
0
0
0
0
0
0
0
0
0
0
0
0
0
0
0
0
0
3.14333e-12
9.65984e-12
9.55803e-12
4.25291e-12
0
0
0
0
0
0
0
0
0
0
0
0
0
0
0
0
0
4.11108e-12
0
0
0
4.90209e-09
0
0
0
1.27185e-10
0
0
0
0
0
0
0
0
0
0
0
0
0
0
0
0
0
0
0
0
0
0
0
0
0
0
0
0
0
0
0
0
0
0
0
0
0
0
0
0
0
7.38755e-12
0
0
0
4.26966e-09
0
0
0
1.77416e-10
0
0
0
0
0
0
0
0
0
0
0
0
0
0
0
0
0
0
0
0
0
0
0
0
0
0
0
0
0
0
0
0
0
0
0
0
0
0
0
0
2.49126e-11
9.77111e-11
1.30578e-10
2.26498e-10
3.02302e-10
3.66159e-09
0
0
0
1.83352e-10
0
0
0
0
0
0
0
0
0
0
0
0
0
0
0
0
0
0
0
0
0
0
0
0
0
0
0
0
0
0
0
0
0
0
0
0
0
0
0
0
3.49435e-11
2.49332e-10
5.69083e-10
1.26006e-09
1.98985e-09
3.08216e-09
0
0
0
1.27417e-10
0
0
0
0
0
0
0
0
0
0
0
0
0
0
0
0
0
0
0
0
0
0
0
0
0
0
0
0
0
0
0
0
0
0
0
0
0
0
0
0
2.62509e-11
2.39871e-10
5.0182e-10
1.07674e-09
1.44466e-09
2.5343e-09
0
0
0
0
0
0
0
0
0
0
0
0
0
0
0
0
0
0
0
0
0
0
0
0
0
0
0
0
0
0
0
0
0
0
0
0
0
0
0
0
0
0
0
0
2.8945e-11
2.29386e-10
4.51602e-10
9.04797e-10
1.03849e-09
2.01934e-09
0
0
0
0
0
0
0
0
0
0
0
0
0
0
0
0
0
0
0
0
0
0
0
0
0
0
0
0
0
0
0
0
0
0
0
0
0
0
0
0
0
0
0
0
3.49037e-11
2.18959e-10
4.1083e-10
7.54993e-10
7.20732e-10
1.53685e-09
0
0
0
0
0
0
0
0
0
0
0
0
0
0
0
0
0
0
0
0
0
0
0
0
0
0
0
0
0
0
0
0
0
0
0
0
0
0
0
0
0
0
0
0
4.24359e-11
2.12379e-10
3.80237e-10
6.30829e-10
4.58061e-10
1.08485e-09
0
0
0
0
0
0
0
0
0
0
0
0
0
0
0
0
0
0
0
0
0
0
0
0
0
0
0
0
0
0
0
0
0
0
0
0
0
0
0
0
0
0
0
0
5.01279e-11
2.0776e-10
3.52746e-10
5.17136e-10
2.14106e-10
6.60127e-10
0
0
0
0
0
0
0
0
0
0
0
0
0
0
0
0
0
0
0
0
0
0
0
0
0
0
0
0
0
0
0
0
0
0
0
0
0
0
0
0
0
0
0
0
5.66011e-11
2.0197e-10
3.21338e-10
3.99689e-10
0
2.58907e-10
0
0
0
0
0
0
0
0
0
0
0
0
0
0
0
0
0
0
0
0
0
0
0
0
0
0
0
0
0
0
0
0
0
0
0
0
0
0
0
0
0
0
0
0
6.06557e-11
1.92595e-10
2.81766e-10
2.70661e-10
0
0
0
0
0
0
0
0
0
0
0
0
0
0
0
0
0
0
0
0
0
0
0
0
0
0
0
0
0
0
0
0
0
0
0
0
0
0
0
0
0
0
0
0
0
0
6.13355e-11
1.77945e-10
2.321e-10
1.27734e-10
0
0
0
0
0
0
0
0
0
0
0
0
0
0
0
0
0
0
0
0
0
0
0
0
0
0
0
0
0
0
0
0
0
0
0
0
0
0
0
0
0
0
0
0
0
0
5.79598e-11
1.57089e-10
1.7232e-10
0
0
0
0
0
0
0
0
0
0
0
0
0
0
0
0
0
0
0
0
0
0
0
0
0
0
0
0
0
0
0
0
0
0
0
0
0
0
0
0
0
0
0
0
0
0
0
5.00157e-11
1.29789e-10
1.03969e-10
0
0
0
0
0
0
0
0
0
0
0
0
0
0
0
0
0
0
0
0
0
0
0
0
0
0
0
0
0
0
0
0
0
0
0
0
0
0
0
0
0
0
0
0
0
0
0
3.71046e-11
9.64202e-11
3.00771e-11
0
0
0
0
0
0
0
0
0
0
0
0
0
0
0
0
0
0
0
0
0
0
0
0
0
0
0
0
0
0
0
0
0
0
0
0
0
0
0
0
0
0
0
0
0
0
0
1.89905e-11
5.79055e-11
0
0
0
0
7.96453e-10
0
0
0
0
0
0
0
0
0
0
0
0
0
0
0
0
0
0
0
0
0
0
0
0
0
0
0
0
0
0
0
0
0
0
0
0
0
0
0
0
0
0
0
0
1.56555e-11
0
0
0
0
1.71846e-09
0
0
0
0
0
0
0
0
0
0
0
0
0
0
0
0
0
0
0
0
0
0
0
0
0
0
0
0
0
0
0
0
0
0
0
0
0
0
0
0
0
0
0
0
0
0
0
0
0
2.51491e-09
0
0
0
0
0
0
0
0
0
0
0
0
0
0
0
0
0
0
0
0
0
0
0
0
0
0
0
0
0
0
0
0
0
0
0
0
0
0
0
0
0
0
0
0
0
0
0
0
0
3.18813e-09
0
0
0
0
0
0
0
0
0
0
0
0
0
0
0
0
0
0
0
0
0
0
0
0
0
0
0
0
0
0
0
0
0
0
0
0
0
0
0
0
0
0
0
0
0
0
0
0
0
3.7436e-09
0
0
0
0
0
0
0
0
0
0
0
0
0
0
0
0
0
0
0
0
0
0
0
0
0
0
0
0
0
0
0
0
0
0
0
0
0
0
0
0
0
0
0
0
0
0
0
0
0
4.18896e-09
0
0
0
0
0
0
0
0
0
0
0
0
0
0
0
0
0
0
0
0
0
0
0
0
0
0
0
0
0
0
0
0
0
0
0
0
0
0
0
0
0
0
0
0
0
0
0
6.3291e-10
0
4.53265e-09
0
0
0
0
0
0
0
0
0
0
0
0
0
0
0
0
0
0
0
0
0
0
0
0
0
0
0
0
0
0
0
0
0
0
0
0
0
0
0
0
0
0
0
0
0
0
1.51698e-10
1.25006e-09
0
4.78368e-09
0
0
0
0
0
0
0
0
0
0
0
0
0
0
0
0
0
0
0
0
0
0
0
0
0
0
0
0
0
0
0
0
0
0
0
0
0
0
0
0
0
0
0
0
0
0
3.46663e-10
1.61385e-09
0
4.95225e-09
0
0
0
0
0
0
0
0
0
0
0
0
0
0
0
0
0
0
0
0
0
0
0
0
0
0
0
0
0
0
0
0
0
0
0
0
0
0
0
0
0
0
0
0
0
0
4.20516e-10
1.62901e-09
0
5.04962e-09
0
0
0
0
0
0
0
0
0
0
0
0
0
0
0
0
0
0
0
0
0
0
0
0
0
0
0
0
0
0
0
0
0
0
0
0
0
0
0
0
0
0
0
0
0
0
3.2413e-10
1.29369e-09
0
5.087e-09
0
0
0
0
0
0
0
0
0
0
0
0
0
0
0
0
0
0
0
0
0
0
0
0
0
0
0
0
0
0
0
0
0
0
0
0
0
0
0
0
0
0
0
0
0
0
4.16134e-11
6.84448e-10
0
5.07472e-09
0
0
0
0
0
0
0
0
0
0
0
0
0
0
0
0
0
0
0
0
0
0
0
0
0
0
0
0
0
0
0
0
0
0
0
0
0
0
0
0
0
0
0
0
0
0
0
0
0
5.02182e-09
0
0
0
0
0
0
0
0
0
0
0
0
0
0
0
0
0
0
0
0
0
0
0
0
0
0
0
0
0
0
0
0
0
0
0
0
0
0
0
0
0
0
0
0
0
0
0
0
0
4.93597e-09
0
0
0
0
0
0
0
0
0
0
0
0
0
0
0
0
0
0
0
0
0
0
0
0
0
0
0
0
0
0
0
0
0
0
0
0
0
0
0
0
0
0
0
0
0
0
0
0
0
4.8236e-09
0
0
0
0
0
0
0
0
0
0
0
0
0
0
0
0
0
0
0
0
0
0
0
0
0
0
0
0
0
0
0
0
0
0
0
0
0
0
0
0
0
0
0
0
0
0
0
0
0
4.69001e-09
0
0
0
0
0
0
0
0
0
0
0
0
0
0
0
0
0
0
0
0
0
0
0
0
0
0
0
0
0
0
0
0
0
0
0
0
0
0
0
0
0
0
0
0
0
0
0
0
0
4.53962e-09
0
0
0
0
0
0
0
0
0
0
0
0
0
0
0
0
0
0
0
0
0
0
0
0
0
0
0
0
0
0
0
0
0
0
0
0
0
0
0
0
0
0
0
0
0
0
0
0
0
4.37617e-09
0
0
0
0
0
0
0
0
0
0
0
0
0
0
0
0
0
0
0
0
0
0
0
0
0
0
0
0
0
0
0
0
0
0
0
0
0
0
0
0
0
0
0
0
0
0
0
0
0
4.20296e-09
0
0
0
0
0
0
0
0
0
0
0
0
0
0
0
0
0
0
0
0
0
0
0
0
0
0
0
0
0
0
0
0
0
0
0
0
0
0
0
0
0
0
0
0
0
0
0
0
0
4.02285e-09
0
0
0
0
0
0
0
0
0
0
0
0
0
0
0
0
0
0
0
0
0
0
0
0
0
0
0
0
0
0
0
0
0
0
0
0
0
0
0
0
0
0
0
0
0
0
0
0
0
3.8383e-09
0
0
0
0
0
0
0
0
0
0
0
0
0
0
0
0
0
0
0
0
0
0
0
0
0
0
0
0
0
0
0
0
0
0
0
0
0
0
0
0
0
0
0
0
0
0
0
0
0
3.65153e-09
0
0
0
0
0
0
0
0
0
0
0
0
0
0
0
0
0
0
0
0
0
0
0
0
0
0
0
0
0
0
0
0
0
0
0
0
0
0
0
0
0
0
0
0
0
0
0
0
0
3.46459e-09
0
0
0
0
0
0
0
0
0
0
0
0
0
0
0
0
0
0
0
0
0
0
0
0
0
0
0
0
0
0
0
0
0
0
0
0
0
0
0
0
0
0
0
0
0
0
0
0
0
3.2794e-09
0
0
0
0
0
0
0
0
0
0
0
0
0
0
0
0
0
0
0
0
0
0
0
0
0
0
0
0
0
0
0
0
0
0
0
0
0
0
0
0
0
0
0
0
0
0
0
0
0
3.09769e-09
0
0
0
0
0
0
0
0
0
0
0
0
0
0
0
0
0
0
0
0
0
0
0
0
0
0
0
0
0
0
0
0
0
0
0
0
0
0
0
0
0
0
0
0
0
0
0
0
0
2.92089e-09
0
0
0
0
0
0
0
0
0
0
0
0
0
0
0
0
0
0
0
0
0
0
0
0
0
0
0
0
0
0
0
0
0
0
0
0
0
0
0
0
0
0
0
0
0
0
0
0
0
2.75019e-09
5.69092e-11
0
0
0
0
0
0
0
0
0
0
0
0
0
0
0
0
0
0
0
0
0
0
0
0
0
0
0
0
0
0
0
0
0
0
0
0
0
0
0
0
0
0
0
0
0
0
0
0
2.58651e-09
1.74167e-10
0
0
0
0
0
0
0
0
0
0
0
0
0
0
0
0
0
0
0
0
0
0
0
0
0
0
0
0
0
0
0
0
0
0
0
0
0
0
0
0
0
0
0
0
0
0
0
0
2.43053e-09
2.70178e-10
0
0
0
0
0
0
0
0
0
0
0
0
0
0
0
0
0
0
0
0
0
0
0
0
0
0
0
0
0
0
0
0
0
0
0
0
0
0
0
0
0
0
0
0
0
0
0
0
2.28274e-09
3.48016e-10
0
0
0
0
0
0
0
0
0
0
0
0
0
0
0
0
0
0
0
0
0
0
0
0
0
0
0
0
0
0
0
0
0
0
0
0
0
0
0
0
0
0
0
0
0
0
0
0
2.14346e-09
4.10488e-10
0
0
0
0
0
0
0
0
0
0
0
0
0
0
0
0
0
0
0
0
0
0
0
0
0
0
0
0
0
0
0
0
0
0
0
0
0
0
0
0
0
0
0
0
0
0
0
0
2.01289e-09
4.60163e-10
0
0
0
0
0
0
0
0
0
0
0
0
0
0
0
0
0
0
0
0
0
0
0
0
0
0
0
0
0
0
0
0
0
0
0
0
0
0
0
0
0
0
0
0
0
0
0
0
1.89114e-09
4.99374e-10
0
0
0
0
0
0
0
0
0
0
0
0
0
0
0
0
0
0
0
0
0
0
0
0
0
0
0
0
0
0
0
0
0
0
0
0
0
0
0
0
0
0
0
0
0
0
0
0
1.77825e-09
5.30214e-10
0
0
0
0
0
0
0
0
0
0
0
0
0
0
0
0
0
0
0
0
0
0
0
0
0
0
0
0
0
0
0
0
0
0
0
0
0
0
0
0
0
0
0
0
0
9.04767e-12
3.21151e-11
0
1.67417e-09
5.54539e-10
0
0
0
0
0
0
0
0
0
0
0
0
0
0
0
0
0
0
0
0
0
0
0
0
0
0
0
0
0
0
0
0
0
0
0
0
0
0
0
0
0
0
0
0
0
1.49721e-10
7.80699e-11
0
1.57882e-09
5.73991e-10
0
0
0
0
0
0
0
0
0
0
0
0
0
0
0
0
0
0
0
0
0
0
0
0
0
0
0
0
0
0
0
0
0
0
0
0
0
0
0
0
0
0
0
0
1.09036e-10
2.40772e-10
7.34599e-11
0
1.49208e-09
5.9005e-10
0
0
0
0
0
0
0
0
0
0
0
0
0
0
0
0
0
0
0
0
0
0
0
0
0
0
0
0
0
0
0
0
0
0
0
0
0
0
0
0
0
0
0
3.63674e-11
1.96605e-10
2.81658e-10
1.72542e-11
0
1.41382e-09
6.04058e-10
0
0
0
0
0
0
0
0
0
0
0
0
0
0
0
0
0
0
0
0
0
0
0
0
0
0
0
0
0
0
0
0
0
0
0
0
0
0
0
0
0
0
0
1.1434e-10
2.39609e-10
2.72788e-10
0
0
1.34391e-09
6.17209e-10
0
0
0
0
0
0
0
0
0
0
0
0
0
0
0
0
0
0
0
0
0
0
0
0
0
0
0
0
0
0
0
0
0
0
0
0
0
0
0
0
0
0
2.28041e-11
1.53474e-10
2.38933e-10
2.16921e-10
0
0
1.28223e-09
6.3071e-10
0
0
0
0
0
0
0
0
0
0
0
0
0
0
0
0
0
0
0
0
0
0
0
0
0
0
0
0
0
0
0
0
0
0
0
0
0
0
0
0
0
0
6.28745e-11
1.5492e-10
1.96777e-10
1.17988e-10
0
0
1.22872e-09
6.4573e-10
0
0
0
0
0
0
0
0
0
0
0
0
0
0
0
0
0
0
0
0
0
0
0
0
0
0
0
0
0
0
0
0
0
0
0
0
0
0
0
0
0
0
7.16938e-11
1.2141e-10
1.17083e-10
0
0
0
1.18336e-09
6.63344e-10
0
0
0
0
0
0
0
0
0
0
0
0
0
0
0
0
0
0
0
0
0
0
0
0
0
0
0
0
0
0
0
0
0
0
0
0
0
0
0
0
0
2.03104e-11
5.24809e-11
5.72044e-11
5.1291e-12
0
0
0
1.14621e-09
6.84638e-10
0
0
0
0
0
0
0
0
0
0
0
0
0
0
0
0
0
0
0
0
0
0
0
0
0
0
0
0
0
0
0
0
0
0
0
0
0
0
0
0
0
2.08457e-11
9.9182e-12
0
0
0
0
0
1.11741e-09
7.10853e-10
0
0
0
0
0
0
0
0
0
0
0
0
0
0
0
0
0
0
0
0
0
0
0
0
0
0
0
0
0
0
0
0
0
0
0
0
0
0
0
0
1.93048e-11
6.01223e-12
0
0
0
0
0
0
1.09724e-09
7.43415e-10
0
0
0
0
0
0
0
0
0
0
0
0
0
0
0
0
0
0
0
0
0
0
0
0
0
0
0
0
0
0
0
0
0
0
0
0
0
0
4.27299e-11
6.04627e-11
4.0124e-11
0
0
0
0
0
0
0
1.08613e-09
7.84019e-10
0
0
0
0
0
0
0
0
0
0
0
0
0
0
0
0
0
0
0
0
0
0
0
0
0
0
0
0
0
0
0
0
0
0
0
3.73807e-12
8.20972e-11
1.31152e-10
1.46194e-10
1.24641e-10
6.22885e-11
0
0
0
0
0
0
0
1.08474e-09
8.34804e-10
0
0
0
0
0
0
0
0
0
0
0
0
0
0
0
0
0
0
0
0
0
0
0
0
0
0
0
0
0
0
0
0
0
3.71741e-11
1.38458e-10
2.17443e-10
2.67654e-10
2.83855e-10
2.62556e-10
2.008e-10
9.59335e-11
0
0
0
0
0
0
0
1.094e-09
8.9848e-10
0
0
0
0
0
0
0
0
0
0
0
0
0
0
0
0
0
0
0
0
0
0
0
0
0
0
0
0
0
0
0
9.42132e-11
2.09627e-10
3.14173e-10
3.98448e-10
4.5451e-10
4.7682e-10
4.6034e-10
4.0246e-10
3.00314e-10
1.53374e-10
0
0
0
0
0
0
0
1.11526e-09
9.78554e-10
0
0
0
0
0
0
0
0
0
0
0
0
0
0
0
0
0
0
0
0
0
0
0
0
0
0
0
0
6.39398e-11
1.65139e-10
2.82601e-10
4.05344e-10
5.21074e-10
6.18654e-10
6.89007e-10
7.24567e-10
7.20192e-10
6.72094e-10
5.78766e-10
4.37244e-10
2.49285e-10
1.64944e-11
0
0
0
0
0
0
1.15038e-09
1.07973e-09
0
0
0
0
0
0
0
0
0
0
0
0
0
0
0
0
0
0
0
0
0
0
0
0
0
6.88477e-11
1.37921e-10
2.20444e-10
3.27222e-10
4.56381e-10
5.97691e-10
7.37216e-10
8.61194e-10
9.58538e-10
1.02006e-09
1.03874e-09
1.011e-09
9.34171e-10
8.0699e-10
6.27938e-10
4.0097e-10
1.2785e-10
0
0
0
0
0
0
1.20198e-09
1.20839e-09
0
0
0
0
0
0
0
0
0
0
0
0
0
0
0
0
0
0
0
0
0
0
0
4.90123e-11
1.48377e-10
2.26582e-10
3.13585e-10
4.28483e-10
5.75696e-10
7.46653e-10
9.25294e-10
1.09403e-09
1.23721e-09
1.34312e-09
1.40317e-09
1.41155e-09
1.36571e-09
1.26396e-09
1.10619e-09
8.92812e-10
6.29217e-10
3.1749e-10
0
0
0
0
0
0
1.27377e-09
1.37333e-09
0
0
0
0
0
0
0
0
0
0
0
0
0
0
0
0
0
0
0
0
0
0
7.88743e-11
1.849e-10
2.60154e-10
3.38638e-10
4.49461e-10
6.0712e-10
8.08659e-10
1.03716e-09
1.26923e-09
1.48235e-09
1.65855e-09
1.78501e-09
1.85403e-09
1.86096e-09
1.80377e-09
1.68293e-09
1.49998e-09
1.25626e-09
9.58048e-10
6.08562e-10
2.2363e-10
0
0
0
0
0
1.371e-09
1.58684e-09
0
0
0
0
0
0
0
0
0
0
0
0
0
0
0
0
0
0
0
0
0
1.34689e-10
2.30118e-10
2.83772e-10
3.3208e-10
4.11965e-10
5.52033e-10
7.62531e-10
1.03235e-09
1.33497e-09
1.63836e-09
1.91365e-09
2.13917e-09
2.30135e-09
2.39237e-09
2.40933e-09
2.35074e-09
2.21914e-09
2.01784e-09
1.74833e-09
1.41708e-09
1.02873e-09
6.03103e-10
1.58481e-10
0
0
0
0
1.50128e-09
1.86627e-09
0
0
0
0
0
0
0
0
0
0
0
0
0
0
0
0
0
0
0
1.25552e-10
2.75954e-10
3.48521e-10
3.66395e-10
3.64184e-10
3.84237e-10
4.67374e-10
6.41745e-10
9.14011e-10
1.2651e-09
1.65822e-09
2.05115e-09
2.40729e-09
2.7007e-09
2.91615e-09
3.04544e-09
3.08629e-09
3.03918e-09
2.90819e-09
2.69665e-09
2.40746e-09
2.04538e-09
1.61427e-09
1.13568e-09
6.22639e-10
1.2497e-10
0
0
0
1.67571e-09
2.23619e-09
0
0
0
0
0
0
0
0
0
0
0
0
0
0
0
0
0
1.94769e-10
4.22084e-10
5.53206e-10
5.98336e-10
5.75966e-10
5.15804e-10
4.58938e-10
4.53303e-10
5.43765e-10
7.58108e-10
1.10009e-09
1.54336e-09
2.04102e-09
2.54031e-09
2.9958e-09
3.37615e-09
3.66361e-09
3.84957e-09
3.9319e-09
3.91256e-09
3.79642e-09
3.58688e-09
3.28627e-09
2.89698e-09
2.41847e-09
1.86581e-09
1.23968e-09
5.87416e-10
0
0
0
1.91076e-09
2.72993e-09
0
0
0
0
0
0
0
0
0
0
0
0
0
0
0
3.41375e-10
6.69814e-10
8.88341e-10
1.00318e-09
1.02361e-09
9.64783e-10
8.51386e-10
7.19501e-10
6.15963e-10
5.9329e-10
6.99548e-10
9.62098e-10
1.38129e-09
1.92534e-09
2.53828e-09
3.15737e-09
3.7281e-09
4.21289e-09
4.59121e-09
4.85367e-09
4.99791e-09
5.02623e-09
4.94392e-09
4.75456e-09
4.4583e-09
4.05224e-09
3.52716e-09
2.88177e-09
2.09125e-09
1.16963e-09
7.07252e-11
0
0
2.2325e-09
3.39167e-09
0
0
0
0
0
0
0
0
0
0
0
0
0
5.2884e-10
9.84553e-10
1.32164e-09
1.54064e-09
1.64768e-09
1.65195e-09
1.56658e-09
1.41198e-09
1.2191e-09
1.03e-09
8.96052e-10
8.7276e-10
1.00974e-09
1.33318e-09
1.83809e-09
2.48986e-09
3.22494e-09
3.97232e-09
4.66972e-09
5.27319e-09
5.75874e-09
6.11672e-09
6.34517e-09
6.44561e-09
6.42271e-09
6.28007e-09
6.01616e-09
5.62123e-09
5.07402e-09
4.35016e-09
3.38887e-09
2.14412e-09
4.34503e-10
0
0
2.68272e-09
4.28097e-09
5.97136e-11
0
0
0
0
0
0
0
0
0
6.88102e-11
7.31507e-10
1.31682e-09
1.79674e-09
2.15475e-09
2.38677e-09
2.49785e-09
2.49775e-09
2.39906e-09
2.21912e-09
1.98384e-09
1.73033e-09
1.50619e-09
1.36597e-09
1.36629e-09
1.55622e-09
1.95932e-09
2.56103e-09
3.32656e-09
4.18736e-09
5.06581e-09
5.89405e-09
6.62413e-09
7.22886e-09
7.69789e-09
8.03054e-09
8.22974e-09
8.29891e-09
8.24054e-09
8.05234e-09
7.72237e-09
7.22118e-09
6.50501e-09
5.4909e-09
4.0936e-09
2.0888e-09
0
0
3.3237e-09
5.45187e-09
1.00459e-09
0
0
0
0
0
0
0
2.12119e-10
9.1603e-10
1.60539e-09
2.23277e-09
2.75935e-09
3.15946e-09
3.42338e-09
3.55467e-09
3.56455e-09
3.46733e-09
3.27952e-09
3.02281e-09
2.72847e-09
2.43931e-09
2.20779e-09
2.09065e-09
2.14391e-09
2.41413e-09
2.9209e-09
3.63369e-09
4.51819e-09
5.50396e-09
6.50953e-09
7.46387e-09
8.31717e-09
9.04231e-09
9.62988e-09
1.00801e-08
1.03987e-08
1.05904e-08
1.06587e-08
1.06011e-08
1.04083e-08
1.00551e-08
9.4986e-09
8.66723e-09
7.49214e-09
5.89302e-09
4.06057e-09
0
4.2625e-09
6.93211e-09
2.04944e-09
0
0
0
0
0
3.79688e-10
1.01183e-09
1.7353e-09
2.48216e-09
3.1881e-09
3.80326e-09
4.28949e-09
4.624e-09
4.80502e-09
4.84632e-09
4.76745e-09
4.58845e-09
4.33038e-09
4.01943e-09
3.69186e-09
3.39549e-09
3.18674e-09
3.1238e-09
3.26071e-09
3.63979e-09
4.27485e-09
5.11641e-09
6.12052e-09
7.22379e-09
8.34207e-09
9.40383e-09
1.0361e-08
1.11895e-08
1.18834e-08
1.24469e-08
1.28889e-08
1.32161e-08
1.34365e-08
1.3549e-08
1.35521e-08
1.34295e-08
1.31584e-08
1.26973e-08
1.20186e-08
1.1245e-08
1.09486e-08
0
5.66211e-09
8.67514e-09
3.05601e-09
2.52053e-10
0
1.21323e-10
5.71816e-10
1.07604e-09
1.6188e-09
2.2411e-09
3.07344e-09
3.9621e-09
4.7625e-09
5.41775e-09
5.8969e-09
6.1902e-09
6.30928e-09
6.28023e-09
6.13256e-09
5.89327e-09
5.58847e-09
5.24881e-09
4.91499e-09
4.63911e-09
4.48078e-09
4.49959e-09
4.74688e-09
5.2595e-09
6.04377e-09
7.03131e-09
8.14778e-09
9.34858e-09
1.05486e-08
1.16783e-08
1.26948e-08
1.35815e-08
1.43399e-08
1.49805e-08
1.55167e-08
1.59592e-08
1.63173e-08
1.65947e-08
1.67943e-08
1.69105e-08
1.69369e-08
1.68546e-08
1.66746e-08
1.66492e-08
1.75528e-08
0
7.74656e-09
1.05916e-08
3.9906e-09
1.30873e-09
1.01737e-09
1.34472e-09
1.80698e-09
2.30659e-09
2.84555e-09
3.41099e-09
4.09115e-09
5.13434e-09
6.19229e-09
7.00324e-09
7.55084e-09
7.85098e-09
7.94222e-09
7.87128e-09
7.68156e-09
7.40875e-09
7.08411e-09
6.74243e-09
6.42845e-09
6.19764e-09
6.11201e-09
6.23246e-09
6.60807e-09
7.26948e-09
8.21423e-09
9.3595e-09
1.05692e-08
1.18279e-08
1.30542e-08
1.4183e-08
1.51808e-08
1.60432e-08
1.6784e-08
1.74243e-08
1.79836e-08
1.84764e-08
1.8912e-08
1.92952e-08
1.96285e-08
1.9913e-08
2.01483e-08
2.0326e-08
2.04515e-08
2.0866e-08
2.26613e-08
0
1.08782e-08
1.27919e-08
4.94108e-09
2.48934e-09
2.4227e-09
2.85348e-09
3.35562e-09
3.70521e-09
4.16096e-09
4.72162e-09
5.3092e-09
6.08095e-09
7.36867e-09
8.48043e-09
9.19717e-09
9.57872e-09
9.69681e-09
9.62506e-09
9.42725e-09
9.15218e-09
8.8368e-09
8.51891e-09
8.2468e-09
8.07939e-09
8.0809e-09
8.31335e-09
8.82445e-09
9.63794e-09
1.07412e-08
1.20422e-08
1.33168e-08
1.45652e-08
1.57317e-08
1.67575e-08
1.76225e-08
1.83402e-08
1.89429e-08
1.94668e-08
1.99409e-08
2.03836e-08
2.0803e-08
2.12003e-08
2.15742e-08
2.19234e-08
2.22414e-08
2.2504e-08
2.27452e-08
2.34979e-08
2.58799e-08
3.81594e-10
1.58323e-08
1.46683e-08
5.66961e-09
3.83247e-09
4.00993e-09
4.58433e-09
5.21614e-09
5.44642e-09
5.64213e-09
6.07328e-09
6.64516e-09
7.24987e-09
8.21305e-09
9.72631e-09
1.07606e-08
1.13297e-08
1.15511e-08
1.15359e-08
1.13737e-08
1.11298e-08
1.08518e-08
1.05822e-08
1.03705e-08
1.02779e-08
1.03714e-08
1.07146e-08
1.13554e-08
1.231e-08
1.35536e-08
1.49791e-08
1.62852e-08
1.74201e-08
1.84103e-08
1.92044e-08
1.98e-08
2.02331e-08
2.05596e-08
2.08351e-08
2.11017e-08
2.13832e-08
2.16865e-08
2.20067e-08
2.23337e-08
2.26554e-08
2.29518e-08
2.31925e-08
2.34677e-08
2.44004e-08
2.71407e-08
3.10948e-09
2.31412e-08
1.49148e-08
6.18716e-09
5.07389e-09
5.49705e-09
6.28427e-09
7.13977e-09
7.51644e-09
7.39997e-09
7.5371e-09
7.98818e-09
8.56371e-09
9.22168e-09
1.05477e-08
1.21101e-08
1.30151e-08
1.34449e-08
1.35659e-08
1.35004e-08
1.33305e-08
1.31173e-08
1.29146e-08
1.27766e-08
1.27652e-08
1.2949e-08
1.33929e-08
1.41456e-08
1.52167e-08
1.65652e-08
1.80563e-08
1.93045e-08
2.0201e-08
2.08864e-08
2.13254e-08
2.1536e-08
2.15778e-08
2.15288e-08
2.14629e-08
2.14348e-08
2.14745e-08
2.15884e-08
2.17657e-08
2.19864e-08
2.22256e-08
2.24522e-08
2.26356e-08
2.28653e-08
2.37103e-08
2.6566e-08
9.68915e-09
3.07208e-08
1.32027e-08
6.65724e-09
6.07579e-09
6.69055e-09
7.66184e-09
8.76001e-09
9.55482e-09
9.3821e-09
9.22365e-09
9.41055e-09
9.92125e-09
1.04823e-08
1.12967e-08
1.30547e-08
1.45051e-08
1.52809e-08
1.56345e-08
1.57361e-08
1.56964e-08
1.55893e-08
1.54758e-08
1.54189e-08
1.54872e-08
1.57517e-08
1.62779e-08
1.71149e-08
1.82651e-08
1.96647e-08
2.1126e-08
2.21286e-08
2.26501e-08
2.29288e-08
2.29519e-08
2.27601e-08
2.24287e-08
2.20442e-08
2.16831e-08
2.13992e-08
2.12204e-08
2.11506e-08
2.11765e-08
2.12737e-08
2.14128e-08
2.15614e-08
2.16837e-08
2.18221e-08
2.24058e-08
2.45578e-08
2.62988e-08
3.09378e-08
1.08059e-08
6.88295e-09
6.66427e-09
7.41289e-09
8.54977e-09
9.89685e-09
1.11425e-08
1.13836e-08
1.10616e-08
1.09535e-08
1.12549e-08
1.17984e-08
1.23526e-08
1.3512e-08
1.55424e-08
1.68248e-08
1.75336e-08
1.78928e-08
1.80501e-08
1.80989e-08
1.81099e-08
1.81516e-08
1.82984e-08
1.86274e-08
1.92086e-08
2.00927e-08
2.12699e-08
2.26363e-08
2.38825e-08
2.43388e-08
2.44237e-08
2.43073e-08
2.40104e-08
2.35888e-08
2.31124e-08
2.26467e-08
2.22401e-08
2.19209e-08
2.16988e-08
2.15704e-08
2.1523e-08
2.15388e-08
2.15965e-08
2.16737e-08
2.1747e-08
2.18339e-08
2.22507e-08
2.37861e-08
5.66603e-08
2.18617e-08
8.62216e-09
6.50553e-09
6.57442e-09
7.42775e-09
8.69649e-09
1.02363e-08
1.18318e-08
1.27661e-08
1.26056e-08
1.23348e-08
1.23578e-08
1.27677e-08
1.32726e-08
1.38914e-08
1.5534e-08
1.74888e-08
1.86826e-08
1.9404e-08
1.9842e-08
2.01114e-08
2.02921e-08
2.04582e-08
2.06893e-08
2.10681e-08
2.1672e-08
2.25564e-08
2.36906e-08
2.48985e-08
2.56088e-08
2.54162e-08
2.50639e-08
2.46385e-08
2.42261e-08
2.39107e-08
2.37325e-08
2.36731e-08
2.3676e-08
2.36798e-08
2.36438e-08
2.35565e-08
2.34299e-08
2.3288e-08
2.31556e-08
2.30503e-08
2.29785e-08
2.29783e-08
2.33612e-08
2.48456e-08
0
1.05322e-11
0
2.64283e-11
1.25155e-11
0
0
0
0
0
0
2.70613e-10
0
0
0
0
3.69379e-09
2.08703e-08
3.34626e-08
3.89996e-08
1.63602e-08
2.18863e-08
2.36465e-08
2.86855e-08
2.18892e-08
1.97165e-09
6.15431e-09
8.35646e-09
1.01658e-08
9.16557e-09
7.20241e-09
7.37791e-09
5.45879e-09
0
0
3.95867e-09
1.09776e-08
1.46654e-08
7.86606e-09
0
0
0
0
0
0
0
0
0
1.43018e-09
4.87335e-09
4.75749e-09
3.32533e-09
1.80961e-09
0
0
0
0
0
0
0
0
0
0
0
0
0
0
0
0
0
0
0
0
0
1.67082e-10
6.27076e-11
1.52485e-10
7.57646e-10
1.53503e-09
2.35951e-09
2.7458e-09
2.10998e-09
1.12107e-09
1.37325e-09
3.85724e-09
9.97861e-09
1.16989e-08
9.28124e-09
9.55594e-09
1.56207e-08
3.064e-08
3.94864e-08
4.14841e-08
3.30234e-08
5.47206e-09
0
0
0
2.7281e-08
0
0
1.01325e-11
0
0
0
0
0
6.19278e-12
0
0
0
0
0
0
0
0
4.61795e-09
1.8861e-08
3.10519e-08
3.49585e-08
1.21642e-08
2.00424e-08
2.13211e-08
2.6424e-08
1.69745e-08
1.77874e-09
6.77034e-09
8.92766e-09
1.07811e-08
9.72599e-09
7.45688e-09
7.37124e-09
6.19739e-09
5.9719e-12
0
2.45945e-09
9.97496e-09
1.43132e-08
9.83335e-09
0
0
0
0
0
0
0
0
0
0
3.42352e-09
3.12022e-09
1.67448e-09
1.55376e-09
5.1403e-09
0
0
0
0
0
0
0
0
0
0
0
0
0
0
0
0
0
0
0
0
4.27256e-10
3.22838e-10
2.85641e-10
7.70283e-10
1.5135e-09
2.35726e-09
2.78983e-09
2.17848e-09
1.09761e-09
1.15871e-09
3.34623e-09
9.19564e-09
1.1308e-08
8.82796e-09
8.72159e-09
1.39416e-08
2.79717e-08
3.68768e-08
3.90535e-08
3.08211e-08
2.96097e-09
0
0
0
1.28363e-08
4.40711e-11
0
1.31748e-11
0
0
0
0
0
3.75531e-11
0
0
0
0
0
0
0
0
5.14979e-09
1.69247e-08
2.91071e-08
3.10194e-08
1.11694e-08
1.81471e-08
1.95703e-08
2.42524e-08
1.22144e-08
2.33492e-09
7.42075e-09
9.74081e-09
1.14012e-08
1.03466e-08
7.78967e-09
7.3627e-09
6.87265e-09
7.48126e-10
0
9.64415e-10
8.95575e-09
1.38032e-08
1.15553e-08
0
0
0
0
0
0
0
0
0
0
1.9509e-09
1.51861e-09
6.26445e-11
1.31887e-09
1.05596e-08
8.39104e-09
0
0
0
0
0
0
0
0
0
0
0
0
0
0
0
0
0
0
3.22681e-11
6.94444e-10
6.06213e-10
4.47959e-10
7.98304e-10
1.49537e-09
2.35261e-09
2.84685e-09
2.27405e-09
1.09613e-09
9.54447e-10
2.85942e-09
8.44243e-09
1.09763e-08
8.43125e-09
7.92747e-09
1.23233e-08
2.53203e-08
3.42855e-08
3.66891e-08
2.88066e-08
6.57252e-10
0
0
0
0
1.34468e-08
0
1.75642e-11
0
0
0
0
0
5.37879e-11
9.18526e-11
0
0
0
0
0
0
0
5.2414e-09
1.52559e-08
2.77656e-08
2.71525e-08
1.28519e-08
1.62394e-08
1.8191e-08
2.17839e-08
7.17807e-09
3.45205e-09
8.0668e-09
1.06463e-08
1.19785e-08
1.09586e-08
8.17675e-09
7.33371e-09
7.41039e-09
1.708e-09
0
0
7.77571e-09
1.30855e-08
1.28374e-08
0
0
0
0
0
0
0
0
0
0
4.14152e-10
0
0
1.0591e-09
1.59526e-08
2.41767e-08
0
0
0
0
0
0
0
0
0
0
0
0
0
0
0
0
0
0
2.98469e-10
9.63639e-10
9.088e-10
6.41065e-10
8.42802e-10
1.47499e-09
2.33389e-09
2.8999e-09
2.38567e-09
1.11686e-09
7.58829e-10
2.38333e-09
7.66226e-09
1.06289e-08
8.05627e-09
7.14732e-09
1.07196e-08
2.25576e-08
3.15114e-08
3.419e-08
2.67606e-08
0
0
0
0
0
1.45402e-08
0
2.21415e-11
0
0
0
0
5.2571e-13
6.93682e-11
1.48211e-10
3.33729e-11
0
0
0
0
0
0
5.07068e-09
1.41142e-08
2.72995e-08
2.38298e-08
1.36414e-08
1.454e-08
1.70867e-08
1.89774e-08
2.54946e-09
4.74474e-09
8.79811e-09
1.15977e-08
1.25026e-08
1.15135e-08
8.6001e-09
7.29155e-09
7.7596e-09
2.82282e-09
0
0
6.35225e-09
1.21493e-08
1.35924e-08
1.00655e-09
0
0
0
0
0
0
0
0
0
0
0
0
7.22031e-10
2.09518e-08
4.01954e-08
0
0
0
0
0
0
0
0
0
0
0
0
1.65693e-09
0
0
0
0
7.08717e-11
5.88736e-10
1.22989e-09
1.22101e-09
8.62361e-10
9.05981e-10
1.45154e-09
2.29579e-09
2.9378e-09
2.50447e-09
1.1595e-09
5.74405e-10
1.91636e-09
6.84355e-09
1.02338e-08
7.69003e-09
6.37343e-09
9.12297e-09
1.96638e-08
2.849e-08
3.14719e-08
2.46415e-08
0
0
0
0
0
9.81462e-09
0
2.49869e-11
0
0
0
0
1.30276e-11
8.63122e-11
1.85478e-10
1.91542e-10
0
0
0
0
0
0
4.85475e-09
1.37449e-08
2.86281e-08
2.03311e-08
1.2805e-08
1.31668e-08
1.6092e-08
1.55056e-08
0
5.88499e-09
9.6975e-09
1.25192e-08
1.29528e-08
1.19972e-08
9.05639e-09
7.2558e-09
7.9152e-09
4.00732e-09
0
0
4.65394e-09
1.1022e-08
1.38432e-08
3.80289e-09
0
0
0
0
0
0
0
0
0
0
0
0
2.7435e-10
2.53404e-08
5.6003e-08
0
0
0
0
0
0
0
0
0
0
0
0
3.49887e-09
1.6337e-09
3.27726e-10
2.26821e-10
4.87181e-10
5.72716e-10
9.07708e-10
1.49415e-09
1.53816e-09
1.11135e-09
9.91644e-10
1.42761e-09
2.23839e-09
2.95462e-09
2.62495e-09
1.22597e-09
4.04176e-10
1.45843e-09
5.98693e-09
9.77595e-09
7.33099e-09
5.60831e-09
7.54125e-09
1.66629e-08
2.52102e-08
2.84976e-08
2.24301e-08
0
0
0
0
0
3.77975e-09
0
2.49896e-11
4.14257e-12
0
0
0
2.62091e-11
1.04786e-10
2.15316e-10
2.69918e-10
1.02792e-10
0
0
0
0
0
4.45544e-09
1.40549e-08
3.27954e-08
1.53997e-08
1.13983e-08
1.21142e-08
1.48859e-08
1.13922e-08
0
6.80829e-09
1.0821e-08
1.33004e-08
1.33553e-08
1.24139e-08
9.5404e-09
7.24784e-09
7.88913e-09
5.1553e-09
0
0
2.73074e-09
9.80883e-09
1.35894e-08
6.48346e-09
0
0
0
0
0
0
0
0
0
0
0
0
0
2.88819e-08
7.10722e-08
2.71121e-08
0
0
0
0
0
0
0
0
0
0
2.51566e-10
5.32161e-09
3.53053e-09
1.67474e-09
1.13617e-09
1.17812e-09
1.11611e-09
1.25934e-09
1.75858e-09
1.85508e-09
1.38635e-09
1.10363e-09
1.40732e-09
2.16423e-09
2.94512e-09
2.74139e-09
1.31759e-09
2.51877e-10
1.01253e-09
5.10171e-09
9.24565e-09
6.98032e-09
4.85941e-09
5.99181e-09
1.3602e-08
2.16859e-08
2.52685e-08
2.01204e-08
0
0
0
0
0
0
0
2.26344e-11
7.59324e-12
0
0
0
3.93434e-11
1.22669e-10
2.36757e-10
3.14721e-10
2.37971e-10
0
0
0
0
0
3.71335e-09
1.44368e-08
2.38676e-08
1.15767e-08
1.01187e-08
1.13564e-08
1.30577e-08
6.50319e-09
1.85904e-09
7.55958e-09
1.19946e-08
1.40468e-08
1.37061e-08
1.27243e-08
1.00219e-08
7.28906e-09
7.7074e-09
6.15876e-09
0
0
7.35833e-10
8.47158e-09
1.29121e-08
8.73148e-09
0
0
0
0
0
0
0
0
0
0
0
0
0
3.13422e-08
8.47609e-08
6.20767e-08
0
0
0
0
0
0
0
0
0
0
7.12557e-10
7.10615e-09
5.54995e-09
3.13548e-09
2.11979e-09
1.90887e-09
1.6993e-09
1.64713e-09
2.02666e-09
2.1668e-09
1.68416e-09
1.24531e-09
1.39566e-09
2.07964e-09
2.90167e-09
2.84641e-09
1.43446e-09
1.21904e-10
5.82163e-10
4.19968e-09
8.63167e-09
6.63691e-09
4.13552e-09
4.49199e-09
1.0538e-08
1.79376e-08
2.17762e-08
1.76989e-08
0
0
0
0
0
0
0
1.89478e-11
1.01101e-11
0
0
4.76777e-12
5.27453e-11
1.4026e-10
2.50007e-10
3.32251e-10
2.94208e-10
7.52945e-11
0
0
0
0
2.95901e-09
1.13844e-08
1.20474e-08
9.18127e-09
9.12434e-09
1.06416e-08
1.08718e-08
3.73375e-10
3.89203e-09
8.4202e-09
1.31805e-08
1.47109e-08
1.40023e-08
1.29492e-08
1.04772e-08
7.39178e-09
7.41709e-09
6.93218e-09
1.24829e-11
0
0
6.89703e-09
1.19094e-08
1.03393e-08
0
0
0
0
0
0
0
0
0
0
0
0
0
3.25205e-08
9.632e-08
9.91386e-08
0
0
0
0
0
0
0
0
0
0
1.26345e-09
8.84221e-09
7.67129e-09
4.70763e-09
3.18035e-09
2.67941e-09
2.31936e-09
2.07345e-09
2.30287e-09
2.46899e-09
2.00001e-09
1.41916e-09
1.3983e-09
1.98754e-09
2.82256e-09
2.9313e-09
1.57521e-09
1.93944e-11
1.70834e-10
3.29628e-09
7.91794e-09
6.29645e-09
3.44644e-09
3.0586e-09
7.53353e-09
1.4004e-08
1.80199e-08
1.51328e-08
0
0
0
0
0
0
0
1.45381e-11
1.19274e-11
0
0
1.26344e-11
6.74066e-11
1.58089e-10
2.56534e-10
3.30899e-10
3.0752e-10
1.50459e-10
0
0
0
0
2.34982e-09
6.38835e-09
7.58541e-09
7.72919e-09
8.37914e-09
9.61471e-09
8.41637e-09
0
5.27594e-09
9.46357e-09
1.42908e-08
1.52703e-08
1.42474e-08
1.30997e-08
1.09038e-08
7.56943e-09
7.06438e-09
7.41908e-09
1.23859e-09
0
0
4.99284e-09
1.06464e-08
1.12428e-08
0
0
0
0
0
0
0
0
0
0
0
0
0
3.22825e-08
1.04924e-07
1.36964e-07
0
0
0
0
0
0
0
0
0
0
1.94388e-09
1.05367e-08
9.86297e-09
6.38345e-09
4.3179e-09
3.48927e-09
2.97213e-09
2.53932e-09
2.5925e-09
2.75861e-09
2.3275e-09
1.62663e-09
1.42115e-09
1.89062e-09
2.70928e-09
2.98659e-09
1.73643e-09
0
0
2.40149e-09
7.09961e-09
5.95115e-09
2.80146e-09
1.70689e-09
4.66304e-09
9.93487e-09
1.39971e-08
1.24021e-08
0
0
0
0
0
0
0
9.70016e-12
1.30852e-11
0
0
2.21843e-11
8.46873e-11
1.74994e-10
2.58277e-10
3.10882e-10
2.91244e-10
1.65212e-10
0
0
0
3.05332e-11
1.67892e-09
3.91449e-09
5.82071e-09
6.75256e-09
7.78426e-09
8.27905e-09
4.91871e-09
9.89898e-10
6.31381e-09
1.09277e-08
1.51308e-08
1.57026e-08
1.44375e-08
1.31764e-08
1.127e-08
7.8312e-09
6.70226e-09
7.59901e-09
2.64032e-09
0
0
2.74458e-09
9.17675e-09
1.14786e-08
0
0
0
0
0
0
0
0
0
0
0
0
0
3.06017e-08
1.0979e-07
1.73043e-07
0
0
0
0
0
0
0
0
0
0
2.79162e-09
1.22144e-08
1.20942e-08
8.14919e-09
5.53034e-09
4.33831e-09
3.65278e-09
3.04425e-09
2.90119e-09
3.03427e-09
2.65888e-09
1.86762e-09
1.47009e-09
1.79312e-09
2.56481e-09
3.00275e-09
1.91171e-09
0
0
1.52529e-09
6.17751e-09
5.58948e-09
2.2085e-09
4.49903e-10
2.00147e-09
5.80561e-09
9.71712e-09
9.45678e-09
0
0
0
0
0
0
0
4.55531e-12
1.36911e-11
0
0
3.49396e-11
1.05548e-10
1.89946e-10
2.56821e-10
2.77276e-10
2.46895e-10
1.4153e-10
0
0
0
2.29969e-10
1.28258e-09
3.07187e-09
4.9622e-09
6.13745e-09
7.23187e-09
6.99414e-09
0
3.27495e-09
7.37058e-09
1.2511e-08
1.57433e-08
1.60149e-08
1.45932e-08
1.31904e-08
1.15509e-08
8.17321e-09
6.38087e-09
7.48579e-09
4.04099e-09
0
0
2.9406e-10
7.60209e-09
1.10781e-08
2.3404e-09
0
0
0
0
0
0
0
0
0
0
0
0
2.75781e-08
1.10321e-07
2.03614e-07
4.91509e-08
0
0
0
0
0
0
0
0
0
3.84286e-09
1.39067e-08
1.43415e-08
9.98787e-09
6.81221e-09
5.22547e-09
4.35574e-09
3.58576e-09
3.23435e-09
3.29678e-09
2.98555e-09
2.13975e-09
1.55099e-09
1.70066e-09
2.394e-09
2.97079e-09
2.09096e-09
0
0
6.78834e-10
5.15741e-09
5.19437e-09
1.6748e-09
0
0
1.70666e-09
5.21298e-09
6.2661e-09
0
0
0
0
0
0
0
0