/*--------------------------------*- C++ -*----------------------------------*\
  =========                 |
  \\      /  F ield         | OpenFOAM: The Open Source CFD Toolbox
   \\    /   O peration     | Website:  https://openfoam.org
    \\  /    A nd           | Version:  7
     \\/     M anipulation  |
\*---------------------------------------------------------------------------*/
FoamFile
{
    version     2.0;
    format      ascii;
    class       volScalarField;
    location    "0.26";
    object      p;
}
// * * * * * * * * * * * * * * * * * * * * * * * * * * * * * * * * * * * * * //

dimensions      [0 2 -2 0 0 0 0];

internalField   nonuniform List<scalar> 
70000
(
0.115431
0.0385447
0.025405
0.0278667
0.0281406
0.0271098
0.0261691
0.0254597
0.0248727
0.0243579
0.0239013
0.0234949
0.0231313
0.022804
0.0225076
0.0222379
0.0219914
0.0217654
0.0215575
0.0213657
0.0211883
0.021024
0.0208715
0.0207298
0.0205981
0.0204757
0.020362
0.0202563
0.0201582
0.0200673
0.0199832
0.0199054
0.0198335
0.0197669
0.019705
0.0196466
0.0195908
0.0195355
0.0194781
0.0194155
0.0193404
0.0192495
0.0191214
0.0189597
0.0187024
0.0183805
0.0178306
0.0171414
0.0159775
0.0141744
0.111131
0.0389066
0.0256075
0.0279612
0.0281949
0.0271455
0.0261969
0.0254827
0.024892
0.0243744
0.0239156
0.0235076
0.0231426
0.0228141
0.0225168
0.0222463
0.0219992
0.0217726
0.0215642
0.0213719
0.0211941
0.0210294
0.0208766
0.0207346
0.0206027
0.02048
0.020366
0.0202601
0.0201619
0.0200708
0.0199865
0.0199086
0.0198365
0.0197697
0.0197076
0.0196491
0.0195932
0.0195378
0.0194803
0.0194176
0.0193423
0.0192514
0.0191232
0.0189615
0.0187042
0.0183824
0.0178328
0.0171416
0.0159794
0.0142656
0.107526
0.0398291
0.0259521
0.0280899
0.0282696
0.0271904
0.0262292
0.0255089
0.0249138
0.0243928
0.0239315
0.0235215
0.023155
0.0228253
0.0225269
0.0222555
0.0220077
0.0217804
0.0215714
0.0213786
0.0212004
0.0210353
0.0208821
0.0207398
0.0206076
0.0204847
0.0203704
0.0202643
0.0201659
0.0200746
0.0199901
0.019912
0.0198397
0.0197728
0.0197106
0.0196519
0.0195959
0.0195403
0.0194828
0.01942
0.0193448
0.0192539
0.0191259
0.0189646
0.0187077
0.0183869
0.017839
0.0171483
0.0160161
0.0144054
0.104421
0.0409282
0.0264286
0.0282625
0.0283708
0.0272484
0.0262675
0.0255388
0.0249384
0.0244133
0.023949
0.0235367
0.0231684
0.0228372
0.0225376
0.0222653
0.0220166
0.0217886
0.021579
0.0213857
0.021207
0.0210415
0.0208879
0.0207453
0.0206127
0.0204895
0.020375
0.0202687
0.02017
0.0200785
0.0199938
0.0199155
0.0198431
0.019776
0.0197137
0.0196549
0.0195988
0.0195432
0.0194856
0.0194229
0.0193478
0.0192572
0.0191297
0.0189693
0.0187137
0.0183949
0.0178515
0.0171644
0.0160811
0.014601
0.101465
0.042022
0.0270022
0.0284808
0.0285055
0.0273269
0.0263166
0.0255758
0.0249684
0.024438
0.0239696
0.0235543
0.0231837
0.0228508
0.0225498
0.0222762
0.0220266
0.0217978
0.0215874
0.0213935
0.0212142
0.0210482
0.0208943
0.0207513
0.0206184
0.0204949
0.0203801
0.0202735
0.0201746
0.0200829
0.019998
0.0199195
0.019847
0.0197797
0.0197172
0.0196584
0.0196022
0.0195466
0.0194891
0.0194265
0.0193517
0.0192617
0.0191351
0.0189761
0.018723
0.0184074
0.0178732
0.0171934
0.0161796
0.0148611
0.0985576
0.0430542
0.0276261
0.0287254
0.0286677
0.0274276
0.0263792
0.0256223
0.0250058
0.0244685
0.0239949
0.0235758
0.0232023
0.022867
0.0225642
0.0222892
0.0220383
0.0218085
0.0215972
0.0214025
0.0212226
0.0210561
0.0209016
0.0207581
0.0206249
0.020501
0.0203859
0.020279
0.0201799
0.0200879
0.0200029
0.0199242
0.0198515
0.0197841
0.0197215
0.0196626
0.0196064
0.0195508
0.0194935
0.0194312
0.019357
0.0192678
0.0191426
0.0189857
0.0187367
0.0184256
0.0179058
0.0172398
0.0163134
0.0151854
0.0956922
0.0440075
0.0282672
0.0289751
0.0288443
0.0275456
0.0264544
0.025678
0.025051
0.0245056
0.0240257
0.0236018
0.0232247
0.0228867
0.0225816
0.0223047
0.0220523
0.0218212
0.0216089
0.0214133
0.0212326
0.0210653
0.0209103
0.0207663
0.0206326
0.0205083
0.0203928
0.0202856
0.0201862
0.020094
0.0200087
0.0199299
0.019857
0.0197895
0.0197269
0.019668
0.0196118
0.0195564
0.0194993
0.0194375
0.019364
0.0192761
0.0191529
0.0189988
0.0187557
0.0184509
0.0179515
0.0173076
0.0164836
0.0155683
0.0928778
0.0448754
0.028909
0.0292181
0.0290242
0.0276745
0.0265386
0.0257409
0.0251028
0.0245487
0.0240617
0.0236324
0.0232512
0.0229099
0.0226022
0.0223232
0.022069
0.0218364
0.0216228
0.0214261
0.0212444
0.0210764
0.0209206
0.020776
0.0206417
0.020517
0.0204011
0.0202936
0.0201938
0.0201014
0.0200159
0.0199368
0.0198639
0.0197963
0.0197336
0.0196747
0.0196186
0.0195635
0.0195068
0.0194457
0.0193733
0.019287
0.0191666
0.0190162
0.018781
0.0184847
0.0180119
0.0174006
0.0166905
0.0160025
0.0901208
0.0456554
0.0295463
0.0294505
0.0292013
0.0278093
0.0266285
0.0258085
0.0251591
0.0245963
0.024102
0.023667
0.0232814
0.0229365
0.022626
0.0223446
0.0220883
0.021854
0.021639
0.0214411
0.0212584
0.0210894
0.0209328
0.0207875
0.0206526
0.0205274
0.0204111
0.0203031
0.020203
0.0201103
0.0200246
0.0199454
0.0198723
0.0198046
0.0197419
0.0196832
0.0196273
0.0195725
0.0195164
0.0194563
0.0193852
0.019301
0.0191842
0.0190385
0.0188134
0.0185282
0.0180883
0.0175211
0.016933
0.0164792
0.0874248
0.0463469
0.0301774
0.0296722
0.0293726
0.0279471
0.0267221
0.0258788
0.0252181
0.0246467
0.0241452
0.0237044
0.0233143
0.0229659
0.0226523
0.0223684
0.0221101
0.021874
0.0216574
0.0214581
0.0212743
0.0211043
0.0209468
0.0208008
0.0206653
0.0205395
0.0204226
0.0203143
0.0202138
0.0201209
0.0200349
0.0199556
0.0198824
0.0198147
0.0197521
0.0196935
0.019638
0.0195838
0.0195284
0.0194694
0.0194002
0.0193186
0.0192062
0.0190663
0.0188535
0.0185826
0.0181812
0.0176699
0.0172087
0.0169884
0.0847928
0.0469499
0.0308016
0.0298842
0.0295368
0.0280865
0.0268182
0.0259506
0.0252787
0.024699
0.0241903
0.0237438
0.0233492
0.0229972
0.0226806
0.0223942
0.0221337
0.0218958
0.0216776
0.021477
0.021292
0.0211209
0.0209626
0.0208158
0.0206796
0.0205532
0.0204359
0.0203271
0.0202263
0.0201331
0.0200469
0.0199674
0.0198942
0.0198266
0.0197642
0.0197059
0.0196507
0.0195972
0.0195428
0.0194853
0.0194183
0.0193398
0.0192328
0.0190997
0.0189015
0.0186483
0.0182906
0.0178459
0.0175139
0.0175192
0.082228
0.0474651
0.0314171
0.0300877
0.0296929
0.0282267
0.0269166
0.0260235
0.0253401
0.0247524
0.0242367
0.0237845
0.0233854
0.0230298
0.0227103
0.0224213
0.0221587
0.021919
0.0216993
0.0214973
0.021311
0.021139
0.0209797
0.0208321
0.0206953
0.0205683
0.0204505
0.0203413
0.0202402
0.0201467
0.0200605
0.0199809
0.0199077
0.0198402
0.019778
0.0197201
0.0196655
0.0196129
0.0195596
0.0195039
0.0194395
0.0193647
0.019264
0.019139
0.0189573
0.0187254
0.0184155
0.0180461
0.0178479
0.0180608
0.0797332
0.047893
0.0320218
0.0302841
0.0298403
0.0283666
0.0270171
0.0260973
0.0254022
0.0248066
0.0242839
0.023826
0.0234224
0.0230633
0.0227408
0.0224494
0.0221847
0.0219432
0.0217219
0.0215186
0.0213312
0.0211581
0.0209979
0.0208496
0.0207121
0.0205845
0.0204663
0.0203567
0.0202554
0.0201617
0.0200753
0.0199957
0.0199226
0.0198553
0.0197934
0.019736
0.0196821
0.0196305
0.0195787
0.019525
0.0194636
0.019393
0.0192994
0.0191837
0.0190204
0.0188132
0.0185541
0.0182662
0.0181957
0.0186028
0.0773108
0.0482346
0.0326129
0.0304748
0.0299785
0.0285056
0.0271195
0.0261721
0.0254647
0.0248614
0.0243318
0.0238682
0.0234602
0.0230974
0.0227721
0.0224782
0.0222114
0.0219681
0.0217453
0.0215406
0.021352
0.0211779
0.0210169
0.0208679
0.0207297
0.0206016
0.020483
0.0203731
0.0202714
0.0201776
0.0200911
0.0200116
0.0199386
0.0198716
0.0198101
0.0197533
0.0197002
0.0196498
0.0195996
0.0195482
0.0194902
0.0194243
0.0193387
0.0192335
0.01909
0.0189105
0.0187044
0.0185017
0.0185538
0.0191357
0.0749633
0.0484912
0.0331872
0.0306615
0.0301072
0.0286426
0.0272237
0.0262478
0.0255276
0.0249167
0.0243804
0.023911
0.0234985
0.0231322
0.0228039
0.0225076
0.0222387
0.0219936
0.0217692
0.0215632
0.0213735
0.0211984
0.0210366
0.0208867
0.020748
0.0206194
0.0205003
0.0203901
0.0202882
0.0201943
0.0201078
0.0200283
0.0199555
0.0198888
0.0198277
0.0197717
0.0197196
0.0196704
0.0196221
0.0195733
0.0195191
0.0194583
0.0193813
0.0192876
0.0191651
0.0190161
0.0188638
0.0187474
0.0189158
0.0196516
0.0726925
0.0486647
0.0337417
0.0308454
0.0302262
0.0287767
0.0273295
0.0263244
0.0255908
0.0249725
0.0244295
0.0239545
0.0235374
0.0231675
0.0228362
0.0225375
0.0222665
0.0220195
0.0217936
0.0215863
0.0213954
0.0212193
0.0210566
0.0209061
0.0207667
0.0206376
0.0205181
0.0204076
0.0203056
0.0202115
0.020125
0.0200456
0.019973
0.0199067
0.0198462
0.0197909
0.0197398
0.0196922
0.0196458
0.0195998
0.0195497
0.0194945
0.0194267
0.0193456
0.0192449
0.0191282
0.0190299
0.0189987
0.0192758
0.0201449
0.0705002
0.0487571
0.0342732
0.0310281
0.0303356
0.0289068
0.0274365
0.0264021
0.0256543
0.0250286
0.0244793
0.0239985
0.0235768
0.0232033
0.0228691
0.0225678
0.0222947
0.0220459
0.0218185
0.0216098
0.0214178
0.0212407
0.0210771
0.0209259
0.0207859
0.0206563
0.0205364
0.0204256
0.0203233
0.0202292
0.0201427
0.0200634
0.0199911
0.0199252
0.0198653
0.0198108
0.0197609
0.0197148
0.0196706
0.0196275
0.0195818
0.0195326
0.0194744
0.0194067
0.0193286
0.0192455
0.0192006
0.0192518
0.0196289
0.0206112
0.0683875
0.0487712
0.0347785
0.0312105
0.0304354
0.029032
0.0275444
0.0264807
0.025718
0.0250851
0.0245295
0.024043
0.0236167
0.0232396
0.0229024
0.0225986
0.0223233
0.0220728
0.0218437
0.0216337
0.0214405
0.0212624
0.021098
0.020946
0.0208054
0.0206753
0.020555
0.0204439
0.0203415
0.0202472
0.0201608
0.0200817
0.0200096
0.0199442
0.0198849
0.0198313
0.0197826
0.0197381
0.0196962
0.0196562
0.0196152
0.0195723
0.0195241
0.0194706
0.0194152
0.0193667
0.0193738
0.0195033
0.0199715
0.0210477
0.0663552
0.0487102
0.0352546
0.0313935
0.0305262
0.0291512
0.0276527
0.0265603
0.0257818
0.0251417
0.0245802
0.0240881
0.0236572
0.0232763
0.0229361
0.0226298
0.0223524
0.0221
0.0218694
0.021658
0.0214636
0.0212845
0.0211192
0.0209665
0.0208252
0.0206947
0.020574
0.0204626
0.02036
0.0202656
0.0201792
0.0201003
0.0200285
0.0199635
0.0199049
0.0198522
0.0198048
0.019762
0.0197225
0.0196858
0.0196496
0.0196134
0.0195755
0.0195368
0.0195043
0.0194904
0.0195481
0.0197506
0.0203007
0.0214541
0.0644036
0.0485778
0.0356986
0.0315773
0.0306085
0.0292636
0.0277608
0.0266408
0.0258457
0.0251984
0.0246312
0.0241336
0.023698
0.0233135
0.0229703
0.0226615
0.0223819
0.0221277
0.0218955
0.0216827
0.0214871
0.021307
0.0211408
0.0209873
0.0208455
0.0207144
0.0205933
0.0204816
0.0203788
0.0202843
0.0201979
0.0201192
0.0200477
0.0199832
0.0199253
0.0198736
0.0198274
0.0197864
0.0197495
0.0197162
0.0196851
0.0196558
0.0196284
0.0196048
0.0195954
0.0196158
0.0197218
0.0199917
0.0206145
0.0218294
0.0625326
0.048378
0.0361076
0.0317622
0.0306829
0.0293684
0.0278681
0.0267222
0.0259098
0.0252551
0.0246825
0.0241795
0.0237394
0.0233511
0.0230049
0.0226936
0.0224119
0.0221557
0.0219219
0.0217078
0.021511
0.0213299
0.0211628
0.0210085
0.020866
0.0207344
0.0206129
0.0205009
0.0203979
0.0203034
0.020217
0.0201384
0.0200673
0.0200033
0.0199461
0.0198953
0.0198506
0.0198114
0.0197771
0.0197474
0.0197214
0.0196994
0.0196826
0.0196745
0.0196879
0.0197419
0.0198938
0.0202252
0.0209111
0.0221733
0.0607418
0.0481156
0.0364791
0.0319477
0.0307504
0.0294649
0.0279738
0.0268044
0.0259739
0.0253117
0.0247341
0.0242259
0.0237811
0.0233892
0.02304
0.0227261
0.0224422
0.0221842
0.0219488
0.0217332
0.0215353
0.0213531
0.0211851
0.0210301
0.0208869
0.0207548
0.0206329
0.0205206
0.0204173
0.0203228
0.0202364
0.020158
0.0200872
0.0200237
0.0199672
0.0199175
0.0198741
0.0198369
0.0198053
0.0197793
0.0197585
0.0197439
0.019738
0.0197455
0.0197814
0.019868
0.0200629
0.0204495
0.0211893
0.0224856
0.0590302
0.0477953
0.0368107
0.0321333
0.0308118
0.0295526
0.0280772
0.0268872
0.0260381
0.025368
0.0247857
0.0242726
0.0238232
0.0234276
0.0230754
0.022759
0.0224729
0.0222131
0.021976
0.0217591
0.0215599
0.0213766
0.0212078
0.021052
0.0209082
0.0207755
0.0206531
0.0205405
0.0204371
0.0203424
0.0202561
0.0201779
0.0201074
0.0200444
0.0199887
0.01994
0.0198981
0.0198629
0.0198341
0.0198118
0.0197965
0.0197894
0.0197943
0.0198174
0.0198753
0.019993
0.0202281
0.0206635
0.0214481
0.022766
0.0573966
0.0474225
0.0371004
0.0323177
0.0308682
0.0296312
0.0281773
0.0269703
0.0261024
0.025424
0.0248373
0.0243195
0.0238656
0.0234663
0.0231112
0.0227923
0.0225041
0.0222423
0.0220037
0.0217853
0.0215849
0.0214006
0.0212308
0.0210742
0.0209297
0.0207965
0.0206737
0.0205608
0.0204572
0.0203624
0.0202761
0.0201981
0.0201279
0.0200654
0.0200105
0.0199629
0.0199225
0.0198893
0.0198633
0.0198449
0.0198351
0.0198357
0.0198514
0.01989
0.0199692
0.0201164
0.0203882
0.0208661
0.0216865
0.0230147
0.0558394
0.0470025
0.0373465
0.0324996
0.0309205
0.0297006
0.0282733
0.0270535
0.0261667
0.0254797
0.0248887
0.0243666
0.0239084
0.0235054
0.0231473
0.0228259
0.0225355
0.0222719
0.0220316
0.0218119
0.0216102
0.0214248
0.0212541
0.0210968
0.0209516
0.0208179
0.0206947
0.0205814
0.0204776
0.0203827
0.0202965
0.0202186
0.0201487
0.0200868
0.0200326
0.0199862
0.0199473
0.0199162
0.0198931
0.0198786
0.0198743
0.0198826
0.0199091
0.0199628
0.0200625
0.0202373
0.0205424
0.0210564
0.0219039
0.0232315
0.0543566
0.046541
0.0375478
0.0326769
0.0309699
0.0297609
0.0283642
0.0271361
0.0262311
0.0255349
0.0249399
0.0244139
0.0239514
0.0235447
0.0231837
0.0228598
0.0225673
0.0223019
0.02206
0.0218388
0.0216359
0.0214495
0.0212778
0.0211197
0.0209739
0.0208395
0.0207159
0.0206023
0.0204983
0.0204033
0.0203171
0.0202394
0.0201699
0.0201085
0.0200551
0.0200098
0.0199724
0.0199434
0.0199232
0.0199128
0.019914
0.01993
0.0199671
0.0200355
0.0201547
0.0203549
0.0206895
0.0212335
0.0220995
0.0234167
0.0529459
0.0460437
0.0377034
0.0328477
0.0310171
0.0298123
0.0284494
0.0272179
0.0262955
0.0255896
0.0249907
0.0244611
0.0239946
0.0235843
0.0232203
0.0228941
0.0225995
0.0223322
0.0220886
0.021866
0.0216619
0.0214744
0.0213018
0.0211429
0.0209964
0.0208615
0.0207374
0.0206235
0.0205192
0.0204242
0.020338
0.0202604
0.0201913
0.0201305
0.0200779
0.0200337
0.0199979
0.019971
0.0199538
0.0199474
0.0199541
0.0199777
0.0200252
0.0201077
0.0202452
0.0204685
0.0208287
0.0213964
0.022273
0.0235706
0.0516049
0.0455163
0.0378131
0.0330093
0.0310629
0.0298554
0.028528
0.0272982
0.0263597
0.0256437
0.0250409
0.0245081
0.0240379
0.0236241
0.0232572
0.0229285
0.0226319
0.0223628
0.0221176
0.0218936
0.0216883
0.0214997
0.0213262
0.0211664
0.0210193
0.0208838
0.0207593
0.020645
0.0205405
0.0204453
0.0203592
0.0202818
0.020213
0.0201527
0.020101
0.0200579
0.0200237
0.019999
0.0199846
0.0199822
0.0199944
0.0200255
0.0200831
0.0201789
0.0203334
0.0205772
0.0209591
0.0215447
0.0224241
0.0236937
0.0503309
0.0449643
0.0378772
0.0331593
0.0311078
0.0298907
0.0285994
0.0273763
0.0264238
0.0256972
0.0250905
0.024555
0.0240812
0.023664
0.0232943
0.0229633
0.0226646
0.0223936
0.0221469
0.0219215
0.0217149
0.0215253
0.0213508
0.0211903
0.0210424
0.0209064
0.0207814
0.0206668
0.0205621
0.0204668
0.0203807
0.0203034
0.020235
0.0201752
0.0201243
0.0200823
0.0200497
0.0200272
0.0200158
0.0200173
0.0200349
0.0200732
0.0201404
0.0202487
0.0204187
0.0206805
0.02108
0.0216775
0.0225526
0.0237867
0.049121
0.0443931
0.0378964
0.033295
0.0311522
0.0299189
0.028663
0.0274516
0.0264873
0.0257502
0.0251394
0.0246014
0.0241245
0.023704
0.0233315
0.0229981
0.0226975
0.0224247
0.0221765
0.0219497
0.0217419
0.0215511
0.0213758
0.0212144
0.0210659
0.0209293
0.0208038
0.0206889
0.0205839
0.0204885
0.0204024
0.0203253
0.0202572
0.020198
0.0201478
0.020107
0.020076
0.0200556
0.0200471
0.0200525
0.0200753
0.0201206
0.0201968
0.0203167
0.0205006
0.0207776
0.0211906
0.0217945
0.0226585
0.0238504
0.0479723
0.0438077
0.0378721
0.0334141
0.0311957
0.0299409
0.0287186
0.0275233
0.0265501
0.0258024
0.0251874
0.0246473
0.0241676
0.023744
0.0233687
0.0230332
0.0227305
0.0224561
0.0222063
0.0219781
0.0217691
0.0215773
0.021401
0.0212388
0.0210896
0.0209524
0.0208265
0.0207112
0.020606
0.0205104
0.0204243
0.0203474
0.0202796
0.0202209
0.0201716
0.0201319
0.0201024
0.0200841
0.0200784
0.0200877
0.0201155
0.0201674
0.0202521
0.0203825
0.0205784
0.0208678
0.0212904
0.0218953
0.022742
0.0238857
0.0468816
0.0432127
0.0378062
0.0335144
0.0312379
0.0299574
0.0287661
0.0275906
0.0266119
0.025854
0.0252345
0.0246926
0.0242105
0.023784
0.023406
0.0230683
0.0227637
0.0224876
0.0222363
0.0220067
0.0217966
0.0216037
0.0214265
0.0212635
0.0211136
0.0209758
0.0208494
0.0207337
0.0206283
0.0205326
0.0204465
0.0203697
0.0203022
0.0202441
0.0201955
0.0201569
0.0201289
0.0201127
0.0201098
0.0201227
0.0201553
0.0202134
0.0203058
0.0204455
0.0206516
0.0209506
0.0213788
0.0219796
0.0228034
0.023894
0.045846
0.0426122
0.0377009
0.033594
0.0312781
0.0299692
0.0288053
0.027653
0.0266721
0.0259048
0.0252805
0.024737
0.024253
0.0238238
0.0234433
0.0231034
0.0227971
0.0225193
0.0222664
0.0220356
0.0218242
0.0216303
0.0214522
0.0212884
0.0211378
0.0209995
0.0208726
0.0207565
0.0206508
0.020555
0.0204689
0.0203922
0.020325
0.0202674
0.0202196
0.020182
0.0201555
0.0201412
0.020141
0.0201574
0.0201945
0.0202583
0.0203576
0.0205053
0.0207196
0.0210255
0.0214554
0.0220474
0.0228433
0.0238765
0.0448624
0.0420101
0.0375589
0.0336513
0.031315
0.0299768
0.0288365
0.0277098
0.0267303
0.0259546
0.0253255
0.0247805
0.0242949
0.0238634
0.0234805
0.0231385
0.0228304
0.0225511
0.0222968
0.0220646
0.0218521
0.0216572
0.0214781
0.0213136
0.0211623
0.0210233
0.020896
0.0207795
0.0206735
0.0205776
0.0204914
0.0204149
0.0203479
0.0202908
0.0202437
0.0202072
0.0201821
0.0201697
0.0201719
0.0201916
0.0202328
0.0203017
0.0204071
0.0205615
0.0207821
0.0210919
0.0215199
0.0220988
0.0228623
0.0238347
0.0439278
0.0414095
0.0373833
0.0336853
0.0313473
0.0299808
0.0288601
0.0277603
0.0267859
0.0260034
0.0253693
0.0248228
0.0243362
0.0239026
0.0235175
0.0231735
0.0228637
0.0225829
0.0223272
0.0220938
0.0218801
0.0216842
0.0215043
0.0213389
0.0211869
0.0210474
0.0209195
0.0208027
0.0206964
0.0206003
0.0205141
0.0204376
0.020371
0.0203143
0.0202678
0.0202323
0.0202085
0.0201979
0.0202025
0.0202251
0.0202701
0.0203436
0.0204541
0.0206136
0.0208385
0.0211495
0.0215721
0.0221338
0.0228612
0.0237703
0.0430391
0.0408133
0.0371774
0.033695
0.0313736
0.0299815
0.0288764
0.0278043
0.0268384
0.0260508
0.0254119
0.024864
0.0243766
0.0239414
0.0235542
0.0232084
0.022897
0.0226147
0.0223577
0.022123
0.0219083
0.0217114
0.0215305
0.0213644
0.0212117
0.0210716
0.0209433
0.0208261
0.0207195
0.0206232
0.0205369
0.0204605
0.0203941
0.0203377
0.0202919
0.0202573
0.0202348
0.0202258
0.0202325
0.0202579
0.0203061
0.0203834
0.020498
0.0206614
0.0208885
0.021198
0.021612
0.0221529
0.022841
0.023685
0.0421935
0.0402238
0.0369445
0.0336802
0.0313921
0.029979
0.0288859
0.0278413
0.0268872
0.0260966
0.0254532
0.0249039
0.0244161
0.0239796
0.0235906
0.023243
0.0229301
0.0226464
0.0223882
0.0221523
0.0219365
0.0217386
0.0215569
0.02139
0.0212367
0.021096
0.0209671
0.0208495
0.0207426
0.0206461
0.0205597
0.0204834
0.0204172
0.0203612
0.020316
0.0202821
0.0202607
0.0202533
0.0202619
0.0202896
0.0203407
0.020421
0.0205387
0.0207044
0.0209317
0.0212372
0.0216394
0.0221566
0.0228027
0.0235807
0.0413883
0.0396429
0.036688
0.0336409
0.0314015
0.0299732
0.0288892
0.0278713
0.0269317
0.0261404
0.025493
0.0249424
0.0244544
0.0240171
0.0236265
0.0232773
0.0229629
0.022678
0.0224186
0.0221816
0.0219648
0.021766
0.0215834
0.0214157
0.0212617
0.0211205
0.0209911
0.0208731
0.0207659
0.0206691
0.0205826
0.0205063
0.0204402
0.0203846
0.0203398
0.0203067
0.0202863
0.0202802
0.0202904
0.0203201
0.0203734
0.0204561
0.0205758
0.0207423
0.0209678
0.0212669
0.0216547
0.0221453
0.0227476
0.0234593
0.040621
0.0390721
0.0364113
0.0335775
0.0314003
0.0299637
0.0288867
0.0278942
0.0269715
0.026182
0.0255313
0.0249793
0.0244914
0.0240537
0.0236619
0.0233112
0.0229955
0.0227094
0.0224489
0.0222109
0.0219931
0.0217933
0.0216099
0.0214415
0.0212869
0.021145
0.0210152
0.0208967
0.0207892
0.0206922
0.0206056
0.0205292
0.0204632
0.0204078
0.0203635
0.020331
0.0203114
0.0203064
0.020318
0.0203492
0.0204042
0.0204885
0.020609
0.0207748
0.0209967
0.021287
0.021658
0.0221199
0.022677
0.0233228
0.039889
0.0385127
0.0361176
0.0334909
0.0313871
0.0299501
0.0288788
0.0279101
0.027006
0.0262207
0.0255679
0.0250147
0.024527
0.0240893
0.0236966
0.0233446
0.0230278
0.0227406
0.022479
0.02224
0.0220212
0.0218206
0.0216365
0.0214673
0.021312
0.0211696
0.0210392
0.0209203
0.0208124
0.0207152
0.0206284
0.020552
0.020486
0.0204308
0.0203868
0.0203548
0.020336
0.0203317
0.0203444
0.0203768
0.0204328
0.0205178
0.020638
0.0208017
0.0210182
0.0212977
0.0216497
0.0220811
0.0225922
0.0231732
0.0391901
0.0379655
0.0358098
0.0333822
0.0313609
0.0299317
0.0288659
0.0279192
0.0270348
0.0262563
0.0256026
0.0250483
0.0245611
0.0241237
0.0237305
0.0233775
0.0230595
0.0227714
0.0225089
0.022269
0.0220493
0.0218479
0.0216629
0.0214931
0.0213371
0.0211941
0.0210633
0.0209439
0.0208357
0.0207382
0.0206512
0.0205746
0.0205087
0.0204535
0.0204098
0.0203781
0.0203598
0.0203562
0.0203695
0.0204025
0.020459
0.0205438
0.0206627
0.0208229
0.0210323
0.0212991
0.0216304
0.0220298
0.0224948
0.0230126
0.0385222
0.037431
0.0354907
0.0332528
0.0313211
0.0299077
0.0288481
0.0279216
0.0270578
0.0262882
0.025635
0.0250802
0.0245935
0.0241568
0.0237634
0.0234096
0.0230907
0.0228017
0.0225384
0.0222977
0.0220772
0.021875
0.0216893
0.0215188
0.0213622
0.0212186
0.0210872
0.0209675
0.0208588
0.020761
0.0206737
0.020597
0.020531
0.0204759
0.0204322
0.0204008
0.0203827
0.0203795
0.0203931
0.0204263
0.0204826
0.0205664
0.0206828
0.0208381
0.0210389
0.0212915
0.0216005
0.0219672
0.0223862
0.022843
0.0378832
0.0369098
0.0351629
0.0331042
0.031267
0.0298774
0.0288255
0.0279177
0.0270747
0.026316
0.025665
0.02511
0.0246241
0.0241883
0.0237952
0.0234409
0.0231213
0.0228316
0.0225675
0.0223261
0.0221048
0.0219019
0.0217155
0.0215443
0.0213871
0.021243
0.0211111
0.0209909
0.0208818
0.0207837
0.0206961
0.0206192
0.020553
0.0204978
0.0204541
0.0204228
0.0204047
0.0204015
0.0204151
0.020448
0.0205034
0.0205853
0.0206982
0.0208474
0.0210381
0.021275
0.0215607
0.0218941
0.0222679
0.0226663
0.0372713
0.0364018
0.0348286
0.0329382
0.0311986
0.0298399
0.028798
0.0279077
0.0270854
0.0263393
0.0256921
0.0251378
0.0246528
0.0242183
0.0238257
0.0234713
0.0231511
0.0228608
0.0225961
0.022354
0.0221321
0.0219285
0.0217415
0.0215697
0.0214119
0.0212672
0.0211348
0.0210141
0.0209046
0.0208061
0.0207182
0.020641
0.0205746
0.0205192
0.0204754
0.0204438
0.0204256
0.0204222
0.0204353
0.0204674
0.0205212
0.0206004
0.0207088
0.0208507
0.0210301
0.0212502
0.0215117
0.0218119
0.0221416
0.0224844
0.0366848
0.0359073
0.0344898
0.0327565
0.0311158
0.0297945
0.0287655
0.0278918
0.0270899
0.0263579
0.0257162
0.0251632
0.0246794
0.0242464
0.0238548
0.0235006
0.0231801
0.0228893
0.0226241
0.0223815
0.0221591
0.0219548
0.0217672
0.0215948
0.0214364
0.0212912
0.0211583
0.0210371
0.0209272
0.0208282
0.0207399
0.0206624
0.0205956
0.0205399
0.0204958
0.020464
0.0204454
0.0204413
0.0204536
0.0204843
0.0205359
0.0206115
0.0207145
0.0208481
0.0210152
0.0212176
0.0214544
0.0217215
0.0220087
0.0222991
0.0361221
0.0354261
0.0341483
0.0325609
0.031019
0.0297406
0.0287276
0.0278703
0.0270882
0.0263714
0.0257367
0.0251861
0.0247039
0.0242726
0.0238824
0.0235286
0.0232081
0.022917
0.0226515
0.0224084
0.0221855
0.0219807
0.0217925
0.0216195
0.0214606
0.0213149
0.0211814
0.0210598
0.0209494
0.0208499
0.0207612
0.0206833
0.0206161
0.02056
0.0205154
0.020483
0.0204637
0.0204588
0.0204698
0.0204985
0.0205473
0.0206187
0.0207153
0.0208396
0.0209935
0.0211775
0.0213896
0.0216242
0.0218706
0.0221122
0.0355818
0.034958
0.0338055
0.0323532
0.0309087
0.0296776
0.0286841
0.0278432
0.0270805
0.0263796
0.0257534
0.0252063
0.0247261
0.0242968
0.0239082
0.0235553
0.023235
0.0229437
0.022678
0.0224346
0.0222113
0.0220061
0.0218174
0.0216439
0.0214845
0.0213382
0.0212042
0.0210821
0.0209712
0.0208712
0.020782
0.0207036
0.0206359
0.0205792
0.020534
0.0205009
0.0204807
0.0204745
0.0204838
0.0205101
0.0205554
0.0206218
0.0207113
0.0208256
0.0209656
0.0211308
0.0213181
0.0215212
0.021729
0.0219252
0.0350625
0.0345028
0.0334627
0.0321349
0.0307855
0.0296053
0.0286345
0.0278107
0.0270668
0.0263823
0.025766
0.0252234
0.0247458
0.0243188
0.0239321
0.0235804
0.0232606
0.0229694
0.0227036
0.0224601
0.0222365
0.0220308
0.0218417
0.0216678
0.0215079
0.0213611
0.0212266
0.0211039
0.0209925
0.020892
0.0208023
0.0207232
0.0206549
0.0205975
0.0205515
0.0205174
0.020496
0.0204883
0.0204954
0.0205188
0.0205601
0.0206208
0.0207025
0.0208061
0.0209317
0.0210779
0.0212408
0.0214136
0.021585
0.0217396
0.0345629
0.0340603
0.033121
0.0319079
0.0306502
0.0295235
0.0285787
0.0277726
0.0270473
0.0263795
0.0257742
0.0252373
0.0247628
0.0243385
0.023954
0.0236038
0.0232848
0.022994
0.0227283
0.0224847
0.0222608
0.0220549
0.0218655
0.0216911
0.0215307
0.0213834
0.0212484
0.0211252
0.0210132
0.0209121
0.0208218
0.0207421
0.020673
0.0206148
0.0205679
0.0205326
0.0205097
0.0205
0.0205046
0.0205247
0.0205613
0.0206158
0.0206891
0.0207815
0.0208923
0.0210195
0.0211586
0.0213025
0.02144
0.0215567
0.0340819
0.0336301
0.0327814
0.0316734
0.0305038
0.0294321
0.0285162
0.027729
0.027022
0.0263711
0.0257778
0.0252477
0.0247771
0.0243556
0.0239737
0.0236254
0.0233075
0.0230172
0.0227518
0.0225082
0.0222844
0.0220783
0.0218885
0.0217137
0.0215529
0.0214051
0.0212697
0.0211459
0.0210333
0.0209316
0.0208406
0.0207601
0.0206902
0.020631
0.0205829
0.0205462
0.0205216
0.0205097
0.0205113
0.0205275
0.0205591
0.0206069
0.0206712
0.020752
0.020848
0.0209564
0.0210725
0.021189
0.0212952
0.0213776
0.0336184
0.0332119
0.0324445
0.0314329
0.0303472
0.0293313
0.0284467
0.0276797
0.026991
0.0263571
0.0257766
0.0252543
0.0247883
0.0243702
0.0239911
0.0236449
0.0233284
0.023039
0.022774
0.0225307
0.0223069
0.0221007
0.0219107
0.0217356
0.0215744
0.0214262
0.0212902
0.0211659
0.0210527
0.0209503
0.0208585
0.0207772
0.0207063
0.020646
0.0205965
0.0205582
0.0205315
0.0205171
0.0205155
0.0205274
0.0205534
0.020594
0.0206491
0.0207181
0.0207992
0.0208893
0.0209833
0.0210742
0.0211516
0.0212034
0.0331715
0.0328053
0.032111
0.0311875
0.0301814
0.0292214
0.0283702
0.0276248
0.0269545
0.0263375
0.0257704
0.0252569
0.0247963
0.024382
0.024006
0.0236623
0.0233476
0.0230593
0.0227949
0.022552
0.0223283
0.0221221
0.021932
0.0217566
0.0215951
0.0214464
0.02131
0.021185
0.0210712
0.0209681
0.0208755
0.0207932
0.0207213
0.0206597
0.0206087
0.0205685
0.0205395
0.0205222
0.020517
0.0205243
0.0205444
0.0205775
0.020623
0.02068
0.0207464
0.0208187
0.0208919
0.0209589
0.0210102
0.0210347
0.0327401
0.03241
0.0317815
0.0309386
0.0300073
0.0291027
0.0282865
0.0275639
0.0269124
0.0263124
0.0257592
0.0252552
0.0248009
0.0243909
0.0240183
0.0236774
0.0233647
0.0230777
0.0228142
0.0225719
0.0223485
0.0221424
0.0219522
0.0217767
0.0216149
0.0214658
0.0213288
0.0212033
0.0210888
0.0209849
0.0208914
0.0208081
0.0207349
0.0206719
0.0206192
0.020577
0.0205455
0.020525
0.0205158
0.0205181
0.0205321
0.0205573
0.0205932
0.0206383
0.0206902
0.0207455
0.020799
0.020844
0.0208719
0.0208725
0.0323235
0.0320256
0.0314563
0.0306869
0.029826
0.0289757
0.0281956
0.0274971
0.0268647
0.0262818
0.0257428
0.0252492
0.0248018
0.0243967
0.0240279
0.0236901
0.0233797
0.0230944
0.0228319
0.0225903
0.0223674
0.0221615
0.0219714
0.0217957
0.0216336
0.0214842
0.0213467
0.0212206
0.0211054
0.0210007
0.0209062
0.0208218
0.0207473
0.0206827
0.0206281
0.0205836
0.0205493
0.0205254
0.020512
0.0205091
0.0205165
0.0205338
0.0205599
0.0205932
0.0206312
0.0206703
0.0207054
0.0207304
0.0207372
0.0207172
0.0319209
0.0316518
0.0311357
0.0304335
0.0296384
0.0288409
0.0280976
0.0274243
0.0268116
0.0262458
0.0257213
0.0252387
0.0247989
0.0243992
0.0240346
0.0237002
0.0233924
0.023109
0.0228478
0.0226071
0.0223848
0.0221793
0.0219893
0.0218136
0.0216512
0.0215015
0.0213635
0.0212368
0.0211208
0.0210152
0.0209197
0.0208341
0.0207581
0.0206918
0.0206352
0.0205882
0.0205509
0.0205234
0.0205055
0.0204971
0.0204979
0.0205071
0.0205235
0.0205453
0.0205699
0.0205936
0.0206118
0.0206186
0.0206069
0.020569
0.0315315
0.0312882
0.0308201
0.030179
0.0294454
0.0286989
0.0279927
0.0273455
0.0267529
0.0262044
0.0256946
0.0252235
0.024792
0.0243983
0.0240383
0.0237075
0.0234027
0.0231214
0.0228618
0.0226221
0.0224006
0.0221956
0.0220058
0.0218301
0.0216676
0.0215175
0.0213791
0.0212518
0.021135
0.0210285
0.0209319
0.0208449
0.0207675
0.0206993
0.0206405
0.0205908
0.0205503
0.0205189
0.0204964
0.0204824
0.0204764
0.0204775
0.0204844
0.020495
0.0205068
0.0205162
0.0205188
0.0205093
0.0204813
0.0204284
0.0311546
0.0309345
0.0305097
0.0299243
0.0292478
0.0285504
0.0278811
0.0272607
0.0266886
0.0261576
0.0256627
0.0252036
0.024781
0.0243938
0.0240387
0.023712
0.0234103
0.0231315
0.0228737
0.0226353
0.0224147
0.0222102
0.0220208
0.0218452
0.0216826
0.0215323
0.0213934
0.0212654
0.0211479
0.0210404
0.0209427
0.0208543
0.0207751
0.020705
0.0206438
0.0205914
0.0205475
0.0205121
0.0204848
0.020465
0.0204522
0.0204453
0.0204428
0.0204427
0.0204423
0.0204384
0.0204269
0.0204029
0.0203609
0.0202953
0.0307897
0.0305904
0.0302045
0.02967
0.0290465
0.0283959
0.0277632
0.0271699
0.0266189
0.0261055
0.0256257
0.0251789
0.0247657
0.0243856
0.0240359
0.0237134
0.0234152
0.0231391
0.0228834
0.0226465
0.0224269
0.0222232
0.0220342
0.0218588
0.0216962
0.0215456
0.0214063
0.0212777
0.0211594
0.0210509
0.0209518
0.020862
0.0207811
0.0207089
0.0206452
0.0205898
0.0205425
0.0205029
0.0204706
0.0204451
0.0204255
0.0204106
0.0203991
0.0203887
0.020377
0.0203609
0.0203366
0.0202998
0.0202457
0.0201697
0.030436
0.0302554
0.0299047
0.0294164
0.0288422
0.028236
0.0276392
0.0270733
0.0265438
0.0260482
0.0255835
0.0251493
0.024746
0.0243734
0.0240296
0.0237118
0.0234173
0.0231442
0.0228907
0.0226555
0.0224371
0.0222343
0.0220458
0.0218707
0.0217081
0.0215573
0.0214176
0.0212884
0.0211692
0.0210597
0.0209594
0.020868
0.0207852
0.0207108
0.0206446
0.0205861
0.0205351
0.0204913
0.020454
0.0204227
0.0203964
0.0203738
0.0203535
0.0203335
0.0203113
0.020284
0.0202483
0.0202003
0.0201361
0.0200516
0.0300932
0.0299293
0.0296104
0.0291643
0.0286355
0.0280715
0.0275096
0.0269712
0.0264633
0.0259856
0.0255363