/*--------------------------------*- C++ -*----------------------------------*\
  =========                 |
  \\      /  F ield         | OpenFOAM: The Open Source CFD Toolbox
   \\    /   O peration     | Website:  https://openfoam.org
    \\  /    A nd           | Version:  7
     \\/     M anipulation  |
\*---------------------------------------------------------------------------*/
FoamFile
{
    version     2.0;
    format      ascii;
    class       surfaceScalarField;
    location    "0.26";
    object      phi_0;
}
// * * * * * * * * * * * * * * * * * * * * * * * * * * * * * * * * * * * * * //

dimensions      [0 3 -1 0 0 0 0];

internalField   nonuniform List<scalar> 
139350
(
6.45927e-08
9.20388e-08
3.19519e-08
3.26407e-08
2.30621e-08
8.88978e-09
1.95697e-08
3.49248e-09
1.76201e-08
1.94951e-09
1.61952e-08
1.425e-09
1.50649e-08
1.13024e-09
1.41538e-08
9.1108e-10
1.34043e-08
7.49547e-10
1.27731e-08
6.3118e-10
1.22315e-08
5.41642e-10
1.176e-08
4.71429e-10
1.13451e-08
4.14908e-10
1.09766e-08
3.68542e-10
1.06467e-08
3.29923e-10
1.03493e-08
2.97336e-10
1.00798e-08
2.69522e-10
9.83426e-09
2.45541e-10
9.60958e-09
2.2468e-10
9.4032e-09
2.06387e-10
9.21297e-09
1.9023e-10
9.0371e-09
1.75862e-10
8.8741e-09
1.63007e-10
8.72266e-09
1.51437e-10
8.5817e-09
1.40964e-10
8.45026e-09
1.31436e-10
8.32754e-09
1.2272e-10
8.21283e-09
1.1471e-10
8.10552e-09
1.07308e-10
8.00508e-09
1.00445e-10
7.91104e-09
9.40342e-11
7.823e-09
8.80445e-11
7.74062e-09
8.23758e-11
7.66357e-09
7.70515e-11
7.59166e-09
7.19114e-11
7.52458e-09
6.70761e-11
7.46234e-09
6.22449e-11
7.40464e-09
5.76947e-11
7.35175e-09
5.28913e-11
7.30353e-09
4.8226e-11
7.26047e-09
4.30596e-11
7.22332e-09
3.71499e-11
7.19221e-09
3.11105e-11
7.17171e-09
2.04925e-11
7.15871e-09
1.30057e-11
7.17196e-09
-1.3253e-11
7.19266e-09
-2.07023e-11
7.31066e-09
-1.17993e-10
7.25464e-09
5.60152e-11
-3.76374e-09
1.10184e-08
1.26026e-07
1.27456e-07
9.12651e-08
6.74017e-08
7.19475e-08
2.82073e-08
6.12256e-08
1.42144e-08
5.47857e-08
8.38941e-09
5.02992e-08
5.91154e-09
4.68228e-08
4.6066e-09
4.40148e-08
3.71903e-09
4.16959e-08
3.0685e-09
3.97412e-08
2.58592e-09
3.80635e-08
2.21925e-09
3.66031e-08
1.93187e-09
3.53173e-08
1.70071e-09
3.41747e-08
1.51111e-09
3.31515e-08
1.35317e-09
3.2229e-08
1.21987e-09
3.13924e-08
1.10607e-09
3.063e-08
1.00793e-09
2.99322e-08
9.22536e-10
2.92909e-08
8.47642e-10
2.86997e-08
7.81474e-10
2.81529e-08
7.22621e-10
2.7646e-08
6.69948e-10
2.71749e-08
6.22526e-10
2.67363e-08
5.79593e-10
2.63272e-08
5.40515e-10
2.59451e-08
5.04761e-10
2.5588e-08
4.7189e-10
2.52537e-08
4.41511e-10
2.49409e-08
4.1332e-10
2.46479e-08
3.87001e-10
2.43736e-08
3.62376e-10
2.41168e-08
3.39118e-10
2.38767e-08
3.17221e-10
2.36524e-08
2.962e-10
2.34431e-08
2.76372e-10
2.32485e-08
2.56794e-10
2.30678e-08
2.38435e-10
2.29014e-08
2.19305e-10
2.2748e-08
2.01564e-10
2.26098e-08
1.81296e-10
2.24849e-08
1.6206e-10
2.23782e-08
1.37755e-10
2.22886e-08
1.10106e-10
2.22249e-08
7.6707e-11
2.21979e-08
1.3743e-11
2.22013e-08
-2.40496e-11
2.23864e-08
-3.03074e-10
2.24305e-08
1.19274e-11
-5.28767e-09
2.39544e-08
1.58807e-07
1.35053e-07
1.36496e-07
8.97129e-08
1.17499e-07
4.72044e-08
1.03328e-07
2.83851e-08
9.33306e-08
1.8387e-08
8.60396e-08
1.32026e-08
8.03455e-08
1.03006e-08
7.57065e-08
8.35805e-09
7.184e-08
6.93502e-09
6.85589e-08
5.86701e-09
6.57301e-08
5.04809e-09
6.32588e-08
4.40311e-09
6.10768e-08
3.88273e-09
5.91331e-08
3.45483e-09
5.73887e-08
3.09759e-09
5.58131e-08
2.79548e-09
5.4382e-08
2.53713e-09
5.30759e-08
2.31402e-09
5.18788e-08
2.11966e-09
5.07774e-08
1.949e-09
4.97608e-08
1.79807e-09
4.88197e-08
1.66372e-09
4.79463e-08
1.54338e-09
4.71339e-08
1.43496e-09
4.63767e-08
1.33675e-09
4.56699e-08
1.24731e-09
4.50092e-08
1.16544e-09
4.4391e-08
1.09013e-09
4.3812e-08
1.02052e-09
4.32694e-08
9.55884e-10
4.27609e-08
8.95542e-10
4.22842e-08
8.39036e-10
4.18376e-08
7.85703e-10
4.14194e-08
7.35416e-10
4.10284e-08
6.87251e-10
4.0663e-08
6.41717e-10
4.03228e-08
5.96998e-10
4.00062e-08
5.55034e-10
3.97139e-08
5.11655e-10
3.94434e-08
4.72024e-10
3.91982e-08
4.26512e-10
3.89735e-08
3.86735e-10
3.87791e-08
3.32218e-10
3.86058e-08
2.83388e-10
3.8475e-08
2.07526e-10
3.83827e-08
1.06039e-10
3.8341e-08
1.76461e-11
3.84943e-08
-4.56424e-10
3.86866e-08
-1.80381e-10
-5.89058e-09
3.92895e-08
1.75664e-07
1.30905e-07
1.65595e-07
9.97813e-08
1.52728e-07
6.0072e-08
1.40136e-07
4.09772e-08
1.29457e-07
2.90661e-08
1.20826e-07
2.18328e-08
1.13729e-07
1.7398e-08
1.07764e-07
1.43232e-08
1.02679e-07
1.20199e-08
9.82919e-08
1.02541e-08
9.44628e-08
8.87723e-09
9.1086e-08
7.77986e-09
8.8082e-08
6.88678e-09
8.53894e-08
6.14739e-09
8.29604e-08
5.52661e-09
8.07567e-08
4.99916e-09
7.87476e-08
4.5463e-09
7.69077e-08
4.15387e-09
7.52164e-08
3.81099e-09
7.36562e-08
3.50916e-09
7.22126e-08
3.24164e-09
7.08733e-08
3.00302e-09
6.96278e-08
2.78892e-09
6.8467e-08
2.59574e-09
6.73833e-08
2.42051e-09
6.63699e-08
2.26074e-09
6.5421e-08
2.11435e-09
6.45315e-08
1.97958e-09
6.36971e-08
1.8549e-09
6.29139e-08
1.73906e-09
6.21786e-08
1.63088e-09
6.14881e-08
1.5295e-09
6.084e-08
1.43381e-09
6.0232e-08
1.3435e-09
5.96621e-08
1.25709e-09
5.91286e-08
1.17525e-09
5.86304e-08
1.09515e-09
5.81657e-08
1.0198e-09
5.77348e-08
9.42469e-10
5.7335e-08
8.71909e-10
5.69699e-08
7.91558e-10
5.66335e-08
7.23134e-10
5.63374e-08
6.2832e-10
5.60694e-08
5.51388e-10
5.58545e-08
4.22433e-10
5.56854e-08
2.75141e-10
5.55797e-08
1.23313e-10
5.56567e-08
-5.33397e-10
5.59189e-08
-4.42622e-10
-6.14474e-09
5.61731e-08
1.8456e-07
1.2313e-07
1.82321e-07
1.0202e-07
1.76105e-07
6.62883e-08
1.67767e-07
4.9315e-08
1.59153e-07
3.76804e-08
1.51255e-07
2.973e-08
1.44198e-07
2.44558e-08
1.37915e-07
2.06062e-08
1.32332e-07
1.76028e-08
1.27364e-07
1.52216e-08
1.22926e-07
1.33154e-08
1.1894e-07
1.17653e-08
1.15343e-07
1.04841e-08
1.1208e-07
9.41009e-09
1.09108e-07
8.49909e-09
1.06389e-07
7.7184e-09
1.03892e-07
7.04326e-09
1.01591e-07
6.4546e-09
9.94645e-08
5.9375e-09
9.74935e-08
5.48019e-09
9.56619e-08
5.07321e-09
9.3956e-08
4.70891e-09
9.23639e-08
4.381e-09
9.08754e-08
4.08431e-09
8.94813e-08
3.81452e-09
8.81741e-08
3.568e-09
8.69467e-08
3.3417e-09
8.57933e-08
3.13301e-09
8.47085e-08
2.93968e-09
8.36878e-08
2.75981e-09
8.2727e-08
2.59167e-09
8.18225e-08
2.43393e-09
8.09714e-08
2.28499e-09
8.01706e-08
2.14424e-09
7.94181e-08
2.00965e-09
7.87114e-08
1.88195e-09
7.80493e-08
1.75727e-09
7.74295e-08
1.6396e-09
7.68523e-08
1.51967e-09
7.63145e-08
1.4097e-09
7.58197e-08
1.2863e-09
7.5362e-08
1.1809e-09
7.49521e-08
1.03824e-09
7.45794e-08
9.24087e-10
7.42651e-08
7.36664e-10
7.40083e-08
5.32005e-10
7.38229e-08
3.08724e-10
7.38052e-08
-5.15763e-10
7.40453e-08
-6.82691e-10
-6.20577e-09
7.41063e-08
1.90388e-07
1.14959e-07
1.91851e-07
1.00557e-07
1.90244e-07
6.78956e-08
1.86156e-07
5.34026e-08
1.80724e-07
4.31132e-08
1.74979e-07
3.5475e-08
1.69295e-07
3.01397e-08
1.63826e-07
2.60745e-08
1.58669e-07
2.27603e-08
1.53863e-07
2.0027e-08
1.49412e-07
1.77665e-08
1.45299e-07
1.5879e-08
1.41498e-07
1.42846e-08
1.37985e-07
1.29237e-08
1.34732e-07
1.17518e-08
1.31716e-07
1.07346e-08
1.28914e-07
9.84518e-09
1.26306e-07
9.06235e-09
1.23875e-07
8.36903e-09
1.21603e-07
7.75144e-09
1.19478e-07
7.19834e-09
1.17487e-07
6.70044e-09
1.15618e-07
6.25006e-09
1.13861e-07
5.84074e-09
1.12209e-07
5.46706e-09
1.10652e-07
5.1244e-09
1.09185e-07
4.80885e-09
1.07801e-07
4.51703e-09
1.06495e-07
4.24603e-09
1.05261e-07
3.99335e-09
1.04096e-07
3.7567e-09
1.02996e-07
3.53429e-09
1.01957e-07
3.32405e-09
1.00976e-07
3.12503e-09
1.00051e-07
2.93469e-09
9.91791e-08
2.75372e-09
9.8359e-08
2.57734e-09
9.75883e-08
2.41025e-09
9.6867e-08
2.24105e-09
9.6192e-08
2.08465e-09
9.55662e-08
1.91212e-09
9.49848e-08
1.76226e-09
9.4456e-08
1.56709e-09
9.39738e-08
1.40632e-09
9.35515e-08
1.15893e-09
9.31983e-08
8.85166e-10
9.29218e-08
5.85244e-10
9.27986e-08
-3.92547e-10
9.2958e-08
-8.42093e-10
-6.09835e-09
9.28506e-08
1.9554e-07
1.07233e-07
1.98247e-07
9.78508e-08
1.98968e-07
6.71745e-08
1.97788e-07
5.45821e-08
1.9516e-07
4.57421e-08
1.91824e-07
3.88107e-08
1.88101e-07
3.38621e-08
1.84164e-07
3.00123e-08
1.80159e-07
2.67648e-08
1.76197e-07
2.39888e-08
1.72346e-07
2.16182e-08
1.68642e-07
1.95824e-08
1.65107e-07
1.78199e-08
1.61748e-07
1.62828e-08
1.58565e-07
1.49342e-08
1.55556e-07
1.37443e-08
1.52712e-07
1.2689e-08
1.50026e-07
1.17485e-08
1.47488e-07
1.09062e-08
1.45091e-07
1.01486e-08
1.42826e-07
9.46412e-09
1.40683e-07
8.84314e-09
1.38655e-07
8.27748e-09
1.36736e-07
7.76014e-09
1.34918e-07
7.28515e-09
1.33195e-07
6.84736e-09
1.31562e-07
6.44233e-09
1.30012e-07
6.0662e-09
1.28543e-07
5.71559e-09
1.27149e-07
5.38757e-09
1.25826e-07
5.07945e-09
1.24571e-07
4.78906e-09
1.23381e-07
4.51396e-09
1.22253e-07
4.25293e-09
1.21185e-07
4.00299e-09
1.20174e-07
3.76472e-09
1.19219e-07
3.53269e-09
1.18317e-07
3.31197e-09
1.17468e-07
3.08965e-09
1.16671e-07
2.88225e-09
1.15925e-07
2.65727e-09
1.1523e-07
2.45748e-09
1.14589e-07
2.20795e-09
1.14003e-07
1.99307e-09
1.13475e-07
1.68651e-09
1.13025e-07
1.33546e-09
1.12655e-07
9.5511e-10
1.12421e-07
-1.58759e-10
1.12468e-07
-8.88749e-10
-5.83078e-09
1.122e-07
2.00848e-07
9.99697e-08
2.03775e-07
9.49233e-08
2.05326e-07
6.56237e-08
2.05642e-07
5.42663e-08
2.04817e-07
4.65672e-08
2.03339e-07
4.02885e-08
2.01398e-07
3.58037e-08
1.99077e-07
3.2333e-08
1.96482e-07
2.93591e-08
1.93717e-07
2.67547e-08
1.9086e-07
2.44753e-08
1.87971e-07
2.24711e-08
1.85094e-07
2.06963e-08
1.82262e-07
1.91154e-08
1.79495e-07
1.77011e-08
1.76808e-07
1.64311e-08
1.74211e-07
1.52866e-08
1.71707e-07
1.42516e-08
1.69301e-07
1.33127e-08
1.66992e-07
1.2458e-08
1.64778e-07
1.16776e-08
1.62658e-07
1.09627e-08
1.6063e-07
1.03057e-08
1.5869e-07
9.70001e-09
1.56836e-07
9.13977e-09
1.55063e-07
8.61992e-09
1.53369e-07
8.13602e-09
1.51752e-07
7.6841e-09
1.50206e-07
7.26069e-09
1.48731e-07
6.86269e-09
1.47324e-07
6.48724e-09
1.45981e-07
6.13202e-09
1.447e-07
5.79438e-09
1.4348e-07
5.47291e-09
1.42319e-07
5.16441e-09
1.41214e-07
4.86933e-09
1.40165e-07
4.58185e-09
1.3917e-07
4.30713e-09
1.38228e-07
4.03144e-09
1.37338e-07
3.77187e-09
1.36501e-07
3.49428e-09
1.35717e-07
3.24226e-09
1.34985e-07
2.93923e-09
1.34312e-07
2.66627e-09
1.33696e-07
2.30291e-09
1.3316e-07
1.87166e-09
1.32706e-07
1.40895e-09
1.32367e-07
1.79818e-10
1.32288e-07
-8.09786e-10
-5.41622e-09
1.31874e-07
2.06447e-07
9.3055e-08
2.09339e-07
9.20311e-08
2.11036e-07
6.39267e-08
2.1193e-07
5.33725e-08
2.11999e-07
4.64975e-08
2.11615e-07
4.06728e-08
2.1089e-07
3.65292e-08
2.09826e-07
3.33966e-08
2.08462e-07
3.07232e-08
2.06856e-07
2.83611e-08
2.05062e-07
2.62685e-08
2.03131e-07
2.44024e-08
2.01104e-07
2.27236e-08
1.99016e-07
2.12034e-08
1.96896e-07
1.98208e-08
1.94768e-07
1.85592e-08
1.9265e-07
1.74049e-08
1.90555e-07
1.63461e-08
1.88495e-07
1.53725e-08
1.86478e-07
1.44753e-08
1.84509e-07
1.36465e-08
1.82593e-07
1.28791e-08
1.80732e-07
1.21667e-08
1.78928e-07
1.15038e-08
1.77182e-07
1.08855e-08
1.75495e-07
1.03071e-08
1.73867e-07
9.76469e-09
1.72296e-07
9.25464e-09
1.70783e-07
8.77372e-09
1.69327e-07
8.31897e-09
1.67926e-07
7.88767e-09
1.66581e-07
7.47752e-09
1.65289e-07
7.08592e-09
1.64051e-07
6.71142e-09
1.62864e-07
6.35079e-09
1.61729e-07
6.00441e-09
1.60645e-07
5.66635e-09
1.5961e-07
5.34167e-09
1.58625e-07
5.01644e-09
1.5769e-07
4.70748e-09
1.56803e-07
4.38066e-09
1.55968e-07
4.07785e-09
1.55182e-07
3.72506e-09
1.54454e-07
3.39424e-09
1.53779e-07
2.97827e-09
1.53181e-07
2.46923e-09
1.52665e-07
1.9254e-09
1.52239e-07
6.04863e-10
1.52039e-07
-6.09781e-10
-4.87543e-09
1.51499e-07
2.12289e-07
8.64287e-08
2.15152e-07
8.9168e-08
2.1679e-07
6.22882e-08
2.17842e-07
5.23206e-08
2.18258e-07
4.60818e-08
2.18375e-07
4.05552e-08
2.18302e-07
3.66022e-08
2.18008e-07
3.3691e-08
2.17485e-07
3.12461e-08
2.16752e-07
2.90938e-08
2.15834e-07
2.7187e-08
2.14754e-07
2.54817e-08
2.1354e-07
2.39383e-08
2.12215e-07
2.25285e-08
2.10802e-07
2.1233e-08
2.09324e-07
2.00377e-08
2.07798e-07
1.89312e-08
2.06239e-07
1.79044e-08
2.04662e-07
1.69493e-08
2.03079e-07
1.60591e-08
2.01497e-07
1.52279e-08
1.99926e-07
1.44501e-08
1.98372e-07
1.37209e-08
1.9684e-07
1.3036e-08
1.95334e-07
1.23912e-08
1.93858e-07
1.1783e-08
1.92415e-07
1.1208e-08
1.91006e-07
1.06632e-08
1.89634e-07
1.01457e-08
1.883e-07
9.65314e-09
1.87005e-07
9.18297e-09
1.85749e-07
8.73317e-09
1.84534e-07
8.30135e-09
1.83359e-07
7.8862e-09
1.82225e-07
7.48462e-09
1.81133e-07
7.097e-09
1.80081e-07
6.71754e-09
1.79072e-07
6.35111e-09
1.78104e-07
5.98404e-09
1.77179e-07
5.63235e-09
1.76297e-07
5.26311e-09
1.7546e-07
4.91474e-09
1.74666e-07
4.51879e-09
1.73926e-07
4.13442e-09
1.73232e-07
3.6722e-09
1.72609e-07
3.09269e-09
1.72061e-07
2.47284e-09
1.71579e-07
1.08711e-09
1.71278e-07
-3.08739e-10
-4.23722e-09
1.7064e-07
2.1833e-07
8.00796e-08
2.21205e-07
8.62924e-08
2.22763e-07
6.07307e-08
2.23842e-07
5.12419e-08
2.24367e-07
4.55567e-08
2.24662e-07
4.02602e-08
2.24864e-07
3.63996e-08
2.24947e-07
3.36081e-08
2.24889e-07
3.13047e-08
2.24689e-07
2.92936e-08
2.24353e-07
2.75232e-08
2.23886e-07
2.59483e-08
2.23298e-07
2.45264e-08
2.226e-07
2.3227e-08
2.21803e-07
2.20296e-08
2.20921e-07
2.09195e-08
2.19967e-07
1.98858e-08
2.18951e-07
1.89198e-08
2.17887e-07
1.80142e-08
2.16782e-07
1.71633e-08
2.15648e-07
1.6362e-08
2.14492e-07
1.56059e-08
2.13322e-07
1.4891e-08
2.12145e-07
1.42138e-08
2.10965e-07
1.3571e-08
2.09788e-07
1.29598e-08
2.08619e-07
1.23774e-08
2.0746e-07
1.18214e-08
2.06317e-07
1.12894e-08
2.0519e-07
1.07794e-08
2.04084e-07
1.02894e-08
2.03e-07
9.8175e-09
2.01939e-07
9.36176e-09
2.00904e-07
8.92106e-09
1.99897e-07
8.4925e-09
1.98917e-07
8.07661e-09
1.97967e-07
7.6678e-09
1.97047e-07
7.27076e-09
1.96159e-07
6.87239e-09
1.95303e-07
6.48755e-09
1.94481e-07
6.0854e-09
1.93696e-07
5.69973e-09
1.92945e-07
5.2696e-09
1.9224e-07
4.83943e-09
1.91573e-07
4.33925e-09
1.90965e-07
3.70063e-09
1.90425e-07
3.01366e-09
1.89921e-07
1.59026e-09
1.89551e-07
6.20845e-11
-3.53676e-09
1.8885e-07
2.24558e-07
7.40144e-08
2.2747e-07
8.33814e-08
2.2896e-07
5.92406e-08
2.30044e-07
5.01579e-08
2.3061e-07
4.49903e-08
2.30954e-07
3.99164e-08
2.31246e-07
3.61076e-08
2.31476e-07
3.33775e-08
2.31626e-07
3.11552e-08
2.31692e-07
2.92269e-08
2.31676e-07
2.75399e-08
2.31574e-07
2.605e-08
2.31387e-07
2.47135e-08
2.31116e-07
2.34979e-08
2.30765e-07
2.23808e-08
2.30338e-07
2.13464e-08
2.29841e-07
2.03827e-08
2.2928e-07
1.94804e-08
2.28662e-07
1.86321e-08
2.27994e-07
1.78318e-08
2.27281e-07
1.70747e-08
2.26531e-07
1.63564e-08
2.25748e-07
1.56733e-08
2.2494e-07
1.50223e-08
2.2411e-07
1.44005e-08
2.23265e-07
1.38053e-08
2.22408e-07
1.32344e-08
2.21544e-07
1.26858e-08
2.20676e-07
1.21574e-08
2.19807e-07
1.16476e-08
2.18942e-07
1.11545e-08
2.18083e-07
1.06768e-08
2.17232e-07
1.02126e-08
2.16392e-07
9.76111e-09
2.15565e-07
9.31963e-09
2.14753e-07
8.8888e-09
2.13957e-07
8.46336e-09
2.1318e-07
8.04777e-09
2.12423e-07
7.6297e-09
2.11688e-07
7.22258e-09
2.10975e-07
6.7983e-09
2.10289e-07
6.38522e-09
2.09628e-07
5.93113e-09
2.09002e-07
5.46511e-09
2.08405e-07
4.93643e-09
2.07853e-07
4.25275e-09
2.07356e-07
3.51064e-09
2.0687e-07
2.07654e-09
2.06465e-07
4.66738e-10
-2.81215e-09
2.0574e-07
2.30979e-07
6.82411e-08
2.33934e-07
8.04265e-08
2.35365e-07
5.78098e-08
2.36455e-07
4.90678e-08
2.37055e-07
4.43903e-08
2.37414e-07
3.95572e-08
2.37728e-07
3.5794e-08
2.38004e-07
3.3101e-08
2.38229e-07
3.09302e-08
2.38405e-07
2.90514e-08
2.38533e-07
2.74115e-08
2.38612e-07
2.59705e-08
2.3864e-07
2.46855e-08
2.38615e-07
2.35231e-08
2.38536e-07
2.24601e-08
2.38403e-07
2.14797e-08
2.38216e-07
2.0569e-08
2.37979e-07
1.9718e-08
2.37692e-07
1.89186e-08
2.3736e-07
1.81645e-08
2.36984e-07
1.74502e-08
2.36569e-07
1.67714e-08
2.36118e-07
1.61242e-08
2.35635e-07
1.55055e-08
2.35123e-07
1.49123e-08
2.34586e-07
1.43421e-08
2.34028e-07
1.37928e-08
2.33451e-07
1.32622e-08
2.3286e-07
1.27487e-08
2.32257e-07
1.22505e-08
2.31646e-07
1.17662e-08
2.31028e-07
1.12944e-08
2.30407e-07
1.08336e-08
2.29785e-07
1.03829e-08
2.29165e-07
9.93997e-09
2.28548e-07
9.5055e-09
2.27937e-07
9.07448e-09
2.27334e-07
8.65113e-09
2.2674e-07
8.22398e-09
2.26157e-07
7.80482e-09
2.25587e-07
7.36867e-09
2.25034e-07
6.93809e-09
2.24495e-07
6.46997e-09
2.23982e-07
5.97874e-09
2.23487e-07
5.43098e-09
2.23023e-07
4.71722e-09
2.22599e-07
3.93373e-09
2.22162e-07
2.51375e-09
2.21758e-07
8.70719e-10
-2.09879e-09
2.21045e-07
2.376e-07
6.27656e-08
2.40602e-07
7.74253e-08
2.41975e-07
5.64362e-08
2.4307e-07
4.79728e-08
2.43707e-07
4.37531e-08
2.4408e-07
3.91845e-08
2.44399e-07
3.5475e-08
2.44688e-07
3.2812e-08
2.44936e-07
3.06824e-08
2.45148e-07
2.88393e-08
2.45331e-07
2.72289e-08
2.45485e-07
2.58162e-08
2.4561e-07
2.45606e-08
2.45704e-07
2.34291e-08
2.45766e-07
2.23984e-08
2.45794e-07
2.14513e-08
2.45788e-07
2.05749e-08
2.45748e-07
1.97586e-08
2.45672e-07
1.89939e-08
2.45563e-07
1.82741e-08
2.4542e-07
1.75933e-08
2.45244e-07
1.69468e-08
2.45038e-07
1.63305e-08
2.44803e-07
1.5741e-08
2.4454e-07
1.51751e-08
2.44252e-07
1.46303e-08
2.4394e-07
1.41042e-08
2.43608e-07
1.35947e-08
2.43256e-07
1.31e-08
2.42888e-07
1.26185e-08
2.42506e-07
1.21485e-08
2.42112e-07
1.16889e-08
2.41707e-07
1.1238e-08
2.41295e-07
1.07953e-08
2.40876e-07
1.03583e-08
2.40454e-07
9.92778e-09
2.4003e-07
9.49901e-09
2.39605e-07
9.07577e-09
2.39181e-07
8.64761e-09
2.38762e-07
8.22448e-09
2.38346e-07
7.78472e-09
2.37939e-07
7.34501e-09
2.37537e-07
6.87114e-09
2.37152e-07
6.36447e-09
2.36777e-07
5.80591e-09
2.36418e-07
5.0762e-09
2.36086e-07
4.26541e-09
2.35719e-07
2.88066e-09
2.35343e-07
1.2474e-09
-1.42418e-09
2.34668e-07
2.4443e-07
5.75914e-08
2.47471e-07
7.43845e-08
2.48796e-07
5.51115e-08
2.49891e-07
4.68775e-08
2.50567e-07
4.30772e-08
2.50957e-07
3.87946e-08
2.5128e-07
3.51514e-08
2.51575e-07
3.25174e-08
2.51831e-07
3.04268e-08
2.52054e-07
2.86161e-08
2.52254e-07
2.7029e-08
2.52434e-07
2.56358e-08
2.52596e-07
2.43989e-08
2.52739e-07
2.32861e-08
2.52863e-07
2.22743e-08
2.52967e-07
2.13469e-08
2.53051e-07
2.04908e-08
2.53114e-07
1.96957e-08
2.53155e-07
1.89528e-08
2.53174e-07
1.82553e-08
2.5317e-07
1.75971e-08
2.53144e-07
1.69732e-08
2.53095e-07
1.63793e-08
2.53024e-07
1.58119e-08
2.52932e-07
1.52675e-08
2.52819e-07
1.47434e-08
2.52686e-07
1.42371e-08
2.52534e-07
1.37463e-08
2.52365e-07
1.32691e-08
2.5218e-07
1.28038e-08
2.5198e-07
1.23487e-08
2.51766e-07
1.19026e-08
2.5154e-07
1.14637e-08
2.51304e-07
1.10315e-08
2.51059e-07
1.06036e-08
2.50806e-07
1.01807e-08
2.50546e-07
9.75829e-09
2.50283e-07
9.33962e-09
2.50015e-07
8.91531e-09
2.49746e-07
8.49333e-09
2.49475e-07
8.0554e-09
2.49208e-07
7.61258e-09
2.4894e-07
7.13874e-09
2.4868e-07
6.62448e-09
2.48425e-07
6.06146e-09
2.48173e-07
5.32777e-09
2.47936e-07
4.50279e-09
2.47647e-07
3.16975e-09
2.47312e-07
1.58177e-09
-8.04328e-10
2.46692e-07
2.51478e-07
5.27205e-08
2.54549e-07
7.13135e-08
2.55835e-07
5.38255e-08
2.56925e-07
4.57875e-08
2.57638e-07
4.23635e-08
2.58048e-07
3.83847e-08
2.58378e-07
3.48219e-08
2.58678e-07
3.22174e-08
2.58939e-07
3.01658e-08
2.59167e-07
2.83882e-08
2.59372e-07
2.68236e-08
2.59561e-07
2.54474e-08
2.59734e-07
2.42252e-08
2.59895e-07
2.31258e-08
2.60042e-07
2.21268e-08
2.60177e-07
2.12118e-08
2.603e-07
2.03683e-08
2.60409e-07
1.95859e-08
2.60506e-07
1.88563e-08
2.60589e-07
1.81724e-08
2.60658e-07
1.75282e-08
2.60712e-07
1.69187e-08
2.60752e-07
1.63395e-08
2.60777e-07
1.57868e-08
2.60787e-07
1.52573e-08
2.60783e-07
1.47479e-08
2.60764e-07
1.42561e-08
2.6073e-07
1.37795e-08
2.60684e-07
1.3316e-08
2.60624e-07
1.28638e-08
2.60551e-07
1.24211e-08
2.60467e-07
1.19866e-08
2.60372e-07
1.15586e-08
2.60267e-07
1.11364e-08
2.60153e-07
1.07176e-08
2.60031e-07
1.03028e-08
2.59902e-07
9.88777e-09
2.59766e-07
9.47513e-09
2.59625e-07
9.0566e-09
2.5948e-07
8.63816e-09
2.59331e-07
8.20473e-09
2.59181e-07
7.76233e-09
2.59028e-07
7.29173e-09
2.58877e-07
6.77543e-09
2.58726e-07
6.21222e-09
2.5857e-07
5.4837e-09
2.58417e-07
4.6559e-09
2.58201e-07
3.38624e-09
2.57912e-07
1.87075e-09
-2.4342e-10
2.57351e-07
2.58751e-07
4.81529e-08
2.61842e-07
6.82223e-08
2.631e-07
5.25674e-08
2.64179e-07
4.47078e-08
2.64928e-07
4.16147e-08
2.6536e-07
3.79525e-08
2.65697e-07
3.44855e-08
2.66003e-07
3.19117e-08
2.66269e-07
2.98991e-08
2.66501e-07
2.81562e-08
2.6671e-07
2.6615e-08
2.66902e-07
2.52556e-08
2.6708e-07
2.40473e-08
2.67246e-07
2.29599e-08
2.67401e-07
2.19713e-08
2.67547e-07
2.10659e-08
2.67684e-07
2.02314e-08
2.67812e-07
1.94578e-08
2.67931e-07
1.87369e-08
2.68042e-07
1.80617e-08
2.68144e-07
1.74264e-08
2.68237e-07
1.6826e-08
2.6832e-07
1.62561e-08
2.68394e-07
1.57128e-08
2.68459e-07
1.51929e-08
2.68513e-07
1.46932e-08
2.68558e-07
1.42112e-08
2.68594e-07
1.37442e-08
2.68619e-07
1.32903e-08
2.68636e-07
1.28474e-08
2.68643e-07
1.24138e-08
2.68641e-07
1.19881e-08
2.68632e-07
1.15684e-08
2.68614e-07
1.11541e-08
2.68589e-07
1.07428e-08
2.68557e-07
1.03348e-08
2.68518e-07
9.92625e-09
2.68474e-07
9.51918e-09
2.68425e-07
9.10636e-09
2.68371e-07
8.69186e-09
2.68312e-07
8.26353e-09
2.68251e-07
7.82313e-09
2.68186e-07
7.35693e-09
2.68119e-07
6.84207e-09
2.6805e-07
6.28123e-09
2.6797e-07
5.56431e-09
2.67883e-07
4.74314e-09
2.67725e-07
3.54424e-09
2.67475e-07
2.12057e-09
2.64201e-10
2.66967e-07
2.66258e-07
4.3887e-08
2.69359e-07
6.51214e-08
2.706e-07
5.13269e-08
2.71664e-07
4.36429e-08
2.72445e-07
4.0834e-08
2.72901e-07
3.74965e-08
2.73245e-07
3.41413e-08
2.73557e-07
3.16002e-08
2.7383e-07
2.96263e-08
2.74066e-07
2.79196e-08
2.74278e-07
2.64032e-08
2.74472e-07
2.50612e-08
2.74653e-07
2.38669e-08
2.74821e-07
2.27914e-08
2.7498e-07
2.18129e-08
2.75129e-07
2.09163e-08
2.75271e-07
2.00896e-08
2.75406e-07
1.93232e-08
2.75534e-07
1.8609e-08
2.75655e-07
1.79403e-08
2.7577e-07
1.73114e-08
2.75878e-07
1.67173e-08
2.75981e-07
1.61537e-08
2.76077e-07
1.56168e-08
2.76166e-07
1.51033e-08
2.7625e-07
1.46101e-08
2.76326e-07
1.41344e-08
2.76397e-07
1.3674e-08
2.7646e-07
1.32264e-08
2.76518e-07
1.27899e-08
2.76569e-07
1.23624e-08
2.76615e-07
1.19427e-08
2.76654e-07
1.15288e-08
2.76688e-07
1.11201e-08
2.76717e-07
1.07142e-08
2.7674e-07
1.03112e-08
2.76759e-07
9.90765e-09
2.76773e-07
9.50488e-09
2.76783e-07
9.09672e-09
2.76789e-07
8.68556e-09
2.76791e-07
8.26178e-09
2.7679e-07
7.82376e-09
2.76785e-07
7.36191e-09
2.76777e-07
6.8505e-09
2.76765e-07
6.29352e-09
2.76737e-07
5.59248e-09
2.76694e-07
4.78562e-09
2.76577e-07
3.66163e-09
2.76355e-07
2.3425e-09
7.28714e-10
2.7589e-07
2.74009e-07
3.99192e-08
2.77108e-07
6.2022e-08
2.78342e-07
5.00938e-08
2.79388e-07
4.25962e-08
2.80197e-07
4.00257e-08
2.80678e-07
3.7015e-08
2.81031e-07
3.37884e-08
2.81348e-07
3.1283e-08
2.81627e-07
2.93472e-08
2.81869e-07
2.7678e-08
2.82084e-07
2.61879e-08
2.82281e-07
2.48642e-08
2.82464e-07
2.36844e-08
2.82634e-07
2.26209e-08
2.82795e-07
2.16528e-08
2.82946e-07
2.07648e-08
2.8309e-07
1.99458e-08
2.83227e-07
1.91861e-08
2.83358e-07
1.84782e-08
2.83483e-07
1.78152e-08
2.83603e-07
1.71917e-08
2.83717e-07
1.66028e-08
2.83827e-07
1.60442e-08
2.83931e-07
1.55121e-08
2.84031e-07
1.50033e-08
2.84127e-07
1.45148e-08
2.84217e-07
1.40438e-08
2.84303e-07
1.35879e-08
2.84385e-07
1.31448e-08
2.84462e-07
1.27126e-08
2.84535e-07
1.22894e-08
2.84604e-07
1.18737e-08
2.84669e-07
1.14638e-08
2.8473e-07
1.10588e-08
2.84788e-07
1.06566e-08
2.84842e-07
1.02571e-08
2.84893e-07
9.85702e-09
2.8494e-07
9.45723e-09
2.84985e-07
9.05254e-09
2.85026e-07
8.64388e-09
2.85064e-07
8.22371e-09
2.851e-07
7.78799e-09
2.85132e-07
7.32995e-09
2.85159e-07
6.82317e-09
2.85182e-07
6.27112e-09
2.85185e-07
5.58881e-09
2.85168e-07
4.80263e-09
2.85075e-07
3.75543e-09
2.84869e-07
2.54839e-09
1.16188e-09
2.84436e-07
2.82012e-07
3.62442e-08
2.85099e-07
5.89354e-08
2.86334e-07
4.88583e-08
2.8736e-07
4.15705e-08
2.88192e-07
3.91943e-08
2.887e-07
3.65068e-08
2.89063e-07
3.34255e-08
2.89386e-07
3.09601e-08
2.89671e-07
2.90616e-08
2.89918e-07
2.7431e-08
2.90137e-07
2.59688e-08
2.90337e-07
2.46642e-08
2.90522e-07
2.34994e-08
2.90695e-07
2.24485e-08
2.90857e-07
2.14909e-08
2.91009e-07
2.06119e-08
2.91155e-07
1.98006e-08
2.91293e-07
1.90478e-08
2.91425e-07
1.83459e-08
2.91552e-07
1.76886e-08
2.91673e-07
1.70702e-08
2.9179e-07
1.64861e-08
2.91902e-07
1.5932e-08
2.9201e-07
1.54043e-08
2.92114e-07
1.48996e-08
2.92214e-07
1.4415e-08
2.9231e-07
1.39477e-08
2.92402e-07
1.34954e-08
2.92491e-07
1.30558e-08
2.92577e-07
1.26269e-08
2.92659e-07
1.22069e-08
2.92739e-07
1.17942e-08
2.92816e-07
1.13871e-08
2.9289e-07
1.09848e-08
2.92961e-07
1.05851e-08
2.9303e-07
1.01879e-08
2.93097e-07
9.7903e-09
2.93162e-07
9.39256e-09
2.93224e-07
8.99037e-09
2.93284e-07
8.58354e-09
2.93342e-07
8.16616e-09
2.93397e-07
7.73262e-09
2.93449e-07
7.27794e-09
2.93496e-07
6.77661e-09
2.93536e-07
6.23058e-09
2.93556e-07
5.56899e-09
2.9355e-07
4.80885e-09
2.93466e-07
3.83901e-09
2.93267e-07
2.74769e-09
1.57343e-09
2.92855e-07
2.90278e-07
3.2855e-08
2.9334e-07
5.58735e-08
2.94587e-07
4.76118e-08
2.95589e-07
4.05676e-08
2.96439e-07
3.83451e-08
2.96975e-07
3.59708e-08
2.97349e-07
3.30512e-08
2.97677e-07
3.06316e-08
2.97969e-07
2.87696e-08
2.98222e-07
2.71783e-08
2.98445e-07
2.57456e-08
2.98648e-07
2.44611e-08
2.98836e-07
2.33118e-08
2.99011e-07
2.22738e-08
2.99174e-07
2.13271e-08
2.99329e-07
2.04574e-08
2.99475e-07
1.9654e-08
2.99615e-07
1.89082e-08
2.99748e-07
1.82126e-08
2.99876e-07
1.75609e-08
2.99998e-07
1.69478e-08
3.00116e-07
1.63684e-08
3.00229e-07
1.58187e-08
3.00339e-07
1.52952e-08
3.00444e-07
1.47944e-08
3.00545e-07
1.43135e-08
3.00643e-07
1.38497e-08
3.00738e-07
1.34007e-08
3.0083e-07
1.29641e-08
3.00918e-07
1.25381e-08
3.01005e-07
1.21207e-08
3.01088e-07
1.17104e-08
3.0117e-07
1.13056e-08
3.01249e-07
1.09053e-08
3.01327e-07
1.05077e-08
3.01403e-07
1.01122e-08
3.01477e-07
9.71638e-09
3.01549e-07
9.32013e-09
3.01619e-07
8.91984e-09
3.01689e-07
8.51446e-09
3.01755e-07
8.09935e-09
3.0182e-07
7.66802e-09
3.01881e-07
7.21651e-09
3.01937e-07
6.72139e-09
3.01985e-07
6.18267e-09
3.0201e-07
5.54339e-09
3.02005e-07
4.81384e-09
3.01923e-07
3.92109e-09
3.01725e-07
2.9462e-09
1.96951e-09
3.01328e-07
2.98815e-07
2.97426e-08
3.0184e-07
5.28481e-08
3.03106e-07
4.63462e-08
3.04085e-07
3.95884e-08
3.04947e-07
3.74835e-08
3.05511e-07
3.54068e-08
3.05898e-07
3.2664e-08
3.06232e-07
3.02974e-08
3.06531e-07
2.84711e-08
3.06789e-07
2.69196e-08
3.07017e-07
2.55179e-08
3.07223e-07
2.42547e-08
3.07414e-07
2.31213e-08
3.07591e-07
2.20967e-08
3.07757e-07
2.11613e-08
3.07913e-07
2.03011e-08
3.08061e-07
1.9506e-08
3.08202e-07
1.87674e-08
3.08336e-07
1.80782e-08
3.08465e-07
1.74323e-08
3.08588e-07
1.68244e-08
3.08707e-07
1.62499e-08
3.08821e-07
1.57047e-08
3.0893e-07
1.51854e-08
3.09036e-07
1.46885e-08
3.09139e-07
1.42113e-08
3.09237e-07
1.37509e-08
3.09333e-07
1.33051e-08
3.09426e-07
1.28714e-08
3.09516e-07
1.24481e-08
3.09603e-07
1.20332e-08
3.09688e-07
1.16251e-08
3.09772e-07
1.12224e-08
3.09853e-07
1.08239e-08
3.09933e-07
1.04279e-08
3.10011e-07
1.00338e-08
3.10088e-07
9.63955e-09
3.10164e-07
9.24456e-09
3.10238e-07
8.84586e-09
3.1031e-07
8.44183e-09
3.10381e-07
8.02872e-09
3.10449e-07
7.59982e-09
3.10514e-07
7.15159e-09
3.10572e-07
6.66344e-09
3.10621e-07
6.13355e-09
3.10647e-07
5.51792e-09
3.10638e-07
4.8228e-09
3.10552e-07
4.00638e-09
3.10352e-07
3.1465e-09
2.35297e-09
3.09969e-07
3.07633e-07
2.68966e-08
3.1061e-07
4.98716e-08
3.11901e-07
4.50549e-08
3.12857e-07
3.86329e-08
3.13725e-07
3.6615e-08
3.14317e-07
3.48149e-08
3.14719e-07
3.22624e-08
3.15059e-07
2.99571e-08
3.15364e-07
2.81663e-08
3.15629e-07
2.66545e-08
3.15862e-07
2.52854e-08
3.16072e-07
2.40446e-08
3.16265e-07
2.29278e-08
3.16445e-07
2.1917e-08
3.16613e-07
2.09933e-08
3.16771e-07
2.0143e-08
3.16921e-07
1.93563e-08
3.17063e-07
1.86251e-08
3.17199e-07
1.79426e-08
3.17328e-07
1.73026e-08
3.17452e-07
1.67001e-08
3.17572e-07
1.61306e-08
3.17687e-07
1.559e-08
3.17797e-07
1.50749e-08
3.17903e-07
1.45821e-08
3.18006e-07
1.41085e-08
3.18105e-07
1.36516e-08
3.18202e-07
1.3209e-08
3.18295e-07
1.27783e-08
3.18385e-07
1.23576e-08
3.18473e-07
1.19451e-08
3.18559e-07
1.15392e-08
3.18643e-07
1.11384e-08
3.18725e-07
1.07416e-08
3.18806e-07
1.03472e-08
3.18885e-07
9.95453e-09
3.18963e-07
9.56165e-09
3.1904e-07
9.16784e-09
3.19115e-07
8.77061e-09
3.19189e-07
8.36798e-09
3.19261e-07
7.95684e-09
3.1933e-07
7.53068e-09
3.19395e-07
7.0861e-09
3.19453e-07
6.60569e-09
3.195e-07
6.08625e-09
3.19523e-07
5.49546e-09
3.19508e-07
4.83784e-09
3.19418e-07
4.09657e-09
3.19216e-07
3.34859e-09
2.72393e-09
3.18845e-07
3.16743e-07
2.4305e-08
3.19659e-07
4.69557e-08
3.20981e-07
4.37324e-08
3.21914e-07
3.76998e-08
3.22785e-07
3.57445e-08
3.23403e-07
3.41963e-08
3.23821e-07
3.18446e-08
3.24168e-07
2.96105e-08
3.24479e-07
2.78551e-08
3.2475e-07
2.63828e-08
3.24988e-07
2.50477e-08
3.25202e-07
2.38305e-08
3.25399e-07
2.27311e-08
3.25581e-07
2.17345e-08
3.25752e-07
2.08228e-08
3.25912e-07
1.99828e-08
3.26064e-07
1.92048e-08
3.26207e-07
1.84813e-08
3.26344e-07
1.78056e-08
3.26475e-07
1.71717e-08
3.26601e-07
1.65748e-08
3.26721e-07
1.60103e-08
3.26836e-07
1.54745e-08
3.26948e-07
1.49638e-08
3.27055e-07
1.4475e-08
3.27158e-07
1.40053e-08
3.27258e-07
1.35519e-08
3.27354e-07
1.31125e-08
3.27448e-07
1.26848e-08
3.27538e-07
1.22668e-08
3.27627e-07
1.18567e-08
3.27713e-07
1.1453e-08
3.27797e-07
1.10541e-08
3.2788e-07
1.0659e-08
3.27961e-07
1.02662e-08
3.28041e-07
9.87484e-09
3.28119e-07
9.48332e-09
3.28196e-07
9.09073e-09
3.28272e-07
8.69495e-09
3.28346e-07
8.29386e-09
3.28418e-07
7.88478e-09
3.28487e-07
7.46171e-09
3.28552e-07
7.0213e-09
3.28608e-07
6.54938e-09
3.28652e-07
6.042e-09
3.28671e-07
5.47706e-09
3.28649e-07
4.85925e-09
3.28554e-07
4.19148e-09
3.28352e-07
3.55094e-09
3.0808e-09
3.27995e-07
3.26153e-07
2.19542e-08
3.28997e-07
4.41123e-08
3.30354e-07
4.23751e-08
3.31266e-07
3.67874e-08
3.32134e-07
3.4877e-08
3.32778e-07
3.35526e-08
3.33213e-07
3.14094e-08
3.33567e-07
2.92568e-08
3.33884e-07
2.75378e-08
3.34162e-07
2.61044e-08
3.34406e-07
2.48044e-08
3.34624e-07
2.36122e-08
3.34824e-07
2.25309e-08
3.3501e-07
2.1549e-08
3.35183e-07
2.06497e-08
3.35345e-07
1.98203e-08
3.35499e-07
1.90514e-08
3.35644e-07
1.83357e-08
3.35783e-07
1.7667e-08
3.35915e-07
1.70394e-08
3.36042e-07
1.64482e-08
3.36163e-07
1.58891e-08
3.36279e-07
1.53581e-08
3.36391e-07
1.48518e-08
3.36499e-07
1.43672e-08
3.36603e-07
1.39014e-08
3.36703e-07
1.34516e-08
3.368e-07
1.30155e-08
3.36894e-07
1.25908e-08
3.36985e-07
1.21756e-08
3.37074e-07
1.1768e-08
3.37161e-07
1.13665e-08