/*--------------------------------*- C++ -*----------------------------------*\
  =========                 |
  \\      /  F ield         | OpenFOAM: The Open Source CFD Toolbox
   \\    /   O peration     | Website:  https://openfoam.org
    \\  /    A nd           | Version:  7
     \\/     M anipulation  |
\*---------------------------------------------------------------------------*/
FoamFile
{
    version     2.0;
    format      ascii;
    class       volVectorField;
    location    "0.26";
    object      U;
}
// * * * * * * * * * * * * * * * * * * * * * * * * * * * * * * * * * * * * * //

dimensions      [0 1 -1 0 0 0 0];

internalField   nonuniform List<vector> 
70000
(
(0.55339 0.016723 0)
(0.251262 0.00340097 0)
(0.166206 0.000321949 0)
(0.132465 5.42377e-05 0)
(0.117282 4.56727e-05 0)
(0.107369 5.38411e-05 0)
(0.0994327 4.62034e-05 0)
(0.0930051 3.68609e-05 0)
(0.0877732 3.05456e-05 0)
(0.0834167 2.62193e-05 0)
(0.0797073 2.29227e-05 0)
(0.0764969 2.02819e-05 0)
(0.0736845 1.81269e-05 0)
(0.0711963 1.63439e-05 0)
(0.0689763 1.48486e-05 0)
(0.0669815 1.35788e-05 0)
(0.065178 1.24882e-05 0)
(0.0635386 1.15422e-05 0)
(0.0620414 1.07145e-05 0)
(0.0606685 9.9843e-06 0)
(0.0594049 9.33577e-06 0)
(0.0582384 8.75588e-06 0)
(0.0571584 8.23408e-06 0)
(0.0561561 7.76189e-06 0)
(0.0552239 7.33191e-06 0)
(0.0543553 6.93845e-06 0)
(0.0535449 6.5758e-06 0)
(0.0527876 6.24065e-06 0)
(0.0520794 5.9273e-06 0)
(0.0514166 5.63553e-06 0)
(0.0507962 5.35711e-06 0)
(0.0502152 5.09718e-06 0)
(0.0496714 4.83998e-06 0)
(0.0491627 4.60083e-06 0)
(0.0486873 4.34837e-06 0)
(0.0482438 4.11337e-06 0)
(0.0478308 3.84244e-06 0)
(0.047449 3.57002e-06 0)
(0.0470944 3.2533e-06 0)
(0.0467756 2.81309e-06 0)
(0.0464774 2.4604e-06 0)
(0.0462357 1.42414e-06 0)
(0.0459929 1.23978e-06 0)
(0.0458744 -1.6979e-06 0)
(0.0456881 -9.85054e-07 0)
(0.0458174 -9.24722e-06 0)
(0.0457312 -7.04143e-06 0)
(0.046328 -2.62766e-05 0)
(0.0471608 -4.10121e-06 0)
(0.0437136 -0.00180045 0)
(0.884898 0.0431674 0)
(0.649717 0.0201938 0)
(0.49433 0.00659775 0)
(0.403693 0.00276674 0)
(0.354793 0.00155092 0)
(0.323521 0.00113037 0)
(0.299697 0.0009091 0)
(0.280537 0.000745192 0)
(0.26486 0.000622378 0)
(0.251774 0.000531681 0)
(0.240627 0.000462839 0)
(0.23098 0.000408654 0)
(0.222526 0.000364839 0)
(0.215044 0.000328727 0)
(0.208365 0.000298504 0)
(0.202362 0.000272877 0)
(0.196932 0.000250893 0)
(0.191995 0.00023184 0)
(0.187484 0.000215176 0)
(0.183346 0.000200482 0)
(0.179537 0.000187425 0)
(0.176019 0.000175742 0)
(0.172761 0.000165217 0)
(0.169736 0.000155676 0)
(0.166923 0.000146973 0)
(0.1643 0.000138986 0)
(0.161853 0.000131612 0)
(0.159566 0.000124767 0)
(0.157426 0.00011837 0)
(0.155423 0.000112365 0)
(0.153548 0.000106682 0)
(0.151792 0.000101293 0)
(0.150148 9.61102e-05 0)
(0.148609 9.11592e-05 0)
(0.147171 8.62845e-05 0)
(0.145829 8.16131e-05 0)
(0.144577 7.68227e-05 0)
(0.143417 7.2237e-05 0)
(0.142337 6.71947e-05 0)
(0.141357 6.22948e-05 0)
(0.140434 5.6415e-05 0)
(0.139658 5.00316e-05 0)
(0.138871 4.22421e-05 0)
(0.13839 3.05976e-05 0)
(0.137695 1.89812e-05 0)
(0.137764 -1.09796e-05 0)
(0.137173 -2.51217e-05 0)
(0.138181 -0.000154899 0)
(0.139269 6.13711e-05 0)
(0.135899 -0.00351007 0)
(0.991237 0.0499015 0)
(0.890348 0.0307184 0)
(0.762693 0.0145965 0)
(0.656707 0.00797742 0)
(0.585419 0.00488187 0)
(0.536062 0.0034676 0)
(0.498249 0.00273185 0)
(0.467686 0.00223954 0)
(0.442427 0.00187655 0)
(0.421169 0.00160514 0)
(0.402967 0.00139788 0)
(0.387152 0.00123472 0)
(0.373251 0.00110287 0)
(0.360915 0.000994202 0)
(0.349879 0.000903227 0)
(0.33994 0.000826052 0)
(0.330935 0.000759824 0)
(0.322734 0.000702407 0)
(0.315231 0.000652174 0)
(0.308341 0.000607863 0)
(0.30199 0.000568479 0)
(0.296118 0.000533227 0)
(0.290675 0.000501462 0)
(0.285617 0.000472657 0)
(0.280907 0.000446373 0)
(0.276513 0.000422246 0)
(0.272409 0.000399965 0)
(0.268569 0.000379271 0)
(0.264975 0.000359932 0)
(0.261607 0.000341764 0)
(0.258451 0.000324574 0)
(0.255492 0.000308253 0)
(0.252719 0.000292584 0)
(0.250121 0.000277579 0)
(0.24769 0.000262882 0)
(0.245418 0.000248758 0)
(0.243297 0.000234444 0)
(0.241327 0.000220787 0)
(0.239489 0.000206009 0)
(0.237813 0.000192207 0)
(0.236234 0.000175396 0)
(0.234878 0.000159857 0)
(0.233516 0.000137722 0)
(0.232593 0.000114806 0)
(0.231366 8.09458e-05 0)
(0.231187 2.59983e-05 0)
(0.230067 -1.50199e-05 0)
(0.231047 -0.000287516 0)
(0.23169 -4.73941e-05 0)
(0.23039 -0.00415875 0)
(1.0156 0.0489204 0)
(1.00596 0.0358746 0)
(0.935955 0.0207898 0)
(0.852146 0.0135006 0)
(0.782244 0.0092024 0)
(0.7271 0.00677451 0)
(0.682084 0.00537602 0)
(0.644399 0.00443668 0)
(0.612453 0.00374316 0)
(0.585055 0.00321772 0)
(0.561268 0.00281181 0)
(0.540384 0.00249014 0)
(0.521875 0.00222909 0)
(0.50534 0.0020132 0)
(0.490466 0.00183193 0)
(0.477005 0.00167776 0)
(0.46476 0.00154517 0)
(0.453569 0.00143 0)
(0.443299 0.00132908 0)
(0.43384 0.00123993 0)
(0.4251 0.0011606 0)
(0.417002 0.00108951 0)
(0.409478 0.0010254 0)
(0.402473 0.000967215 0)
(0.395939 0.00091409 0)
(0.389832 0.000865295 0)
(0.384117 0.000820217 0)
(0.378763 0.000778332 0)
(0.373742 0.000739183 0)
(0.36903 0.000702393 0)
(0.364606 0.000667586 0)
(0.360452 0.000634519 0)
(0.356551 0.000602799 0)
(0.35289 0.000572383 0)
(0.349457 0.000542662 0)
(0.346242 0.000514037 0)
(0.343233 0.000485191 0)
(0.340429 0.000457627 0)
(0.33781 0.000428089 0)
(0.335405 0.000400796 0)
(0.333141 0.00036765 0)
(0.331159 0.000338938 0)
(0.329199 0.000295893 0)
(0.327758 0.000259002 0)
(0.326004 0.00019403 0)
(0.325417 0.000112057 0)
(0.323843 3.03488e-05 0)
(0.324508 -0.00037675 0)
(0.324521 -0.000227792 0)
(0.324612 -0.0043859 0)
(1.01434 0.046004 0)
(1.04753 0.0374882 0)
(1.02458 0.0241494 0)
(0.974767 0.0175541 0)
(0.923482 0.0131143 0)
(0.876758 0.0101955 0)
(0.834662 0.00833024 0)
(0.796993 0.00700834 0)
(0.763515 0.00599841 0)
(0.733786 0.00521117 0)
(0.707291 0.0045895 0)
(0.683557 0.00408903 0)
(0.662185 0.00367816 0)
(0.642845 0.00333527 0)
(0.625261 0.00304522 0)
(0.609205 0.00279702 0)
(0.594488 0.00258244 0)
(0.580948 0.00239522 0)
(0.568451 0.00223054 0)
(0.556883 0.00208459 0)
(0.546146 0.00195434 0)
(0.536156 0.00183733 0)
(0.526842 0.00173158 0)
(0.51814 0.00163541 0)
(0.509996 0.00154747 0)
(0.502364 0.00146658 0)
(0.495202 0.00139177 0)
(0.488475 0.00132218 0)
(0.482149 0.0012571 0)
(0.476198 0.00119589 0)
(0.470597 0.00113796 0)
(0.465324 0.0010829 0)
(0.460361 0.00103009 0)
(0.455691 0.000979403 0)
(0.451299 0.000929947 0)
(0.447172 0.000882223 0)
(0.4433 0.000834323 0)
(0.439678 0.000788412 0)
(0.436284 0.000739635 0)
(0.433147 0.000694503 0)
(0.430194 0.000640399 0)
(0.42756 0.000594261 0)
(0.424994 0.0005254 0)
(0.422973 0.000470131 0)
(0.420707 0.000369572 0)
(0.419579 0.00025455 0)
(0.417618 0.000127224 0)
(0.417748 -0.000401313 0)
(0.417219 -0.000421702 0)
(0.417635 -0.00447918 0)
(1.00933 0.0429154 0)
(1.05527 0.0372636 0)
(1.05868 0.0252935 0)
(1.03637 0.0197529 0)
(1.00711 0.0158013 0)
(0.976099 0.012922 0)
(0.944625 0.010943 0)
(0.913828 0.00945923 0)
(0.884554 0.00826822 0)
(0.857184 0.00730045 0)
(0.831793 0.00651073 0)
(0.808315 0.00585864 0)
(0.786628 0.00531255 0)
(0.766589 0.00484949 0)
(0.748052 0.00445262 0)
(0.730877 0.00410928 0)
(0.714937 0.0038097 0)
(0.700115 0.00354627 0)
(0.686307 0.00331297 0)
(0.67342 0.00310498 0)
(0.661372 0.0029184 0)
(0.650089 0.00275003 0)
(0.639507 0.00259724 0)
(0.629569 0.00245783 0)
(0.620223 0.00232993 0)
(0.611426 0.00221197 0)
(0.603136 0.00210262 0)
(0.595318 0.00200069 0)
(0.58794 0.0019052 0)
(0.580975 0.00181525 0)
(0.574397 0.00173003 0)
(0.568183 0.00164892 0)
(0.562315 0.00157111 0)
(0.556774 0.00149633 0)
(0.551546 0.00142341 0)
(0.546616 0.00135292 0)
(0.541974 0.00128238 0)
(0.537611 0.00121451 0)
(0.533511 0.001143 0)
(0.529692 0.00107635 0)
(0.526096 0.000997913 0)
(0.522833 0.000930302 0)
(0.519693 0.000832787 0)
(0.517078 0.000753767 0)
(0.51433 0.000616735 0)
(0.512597 0.000461004 0)
(0.510282 0.000285375 0)
(0.509757 -0.00035376 0)
(0.508766 -0.000573224 0)
(0.508885 -0.00446447 0)
(1.00625 0.040034 0)
(1.05206 0.0363362 0)
(1.06609 0.0252227 0)
(1.0596 0.0205522 0)
(1.04688 0.0172268 0)
(1.03081 0.0146393 0)
(1.01195 0.0127989 0)
(0.991322 0.011371 0)
(0.969979 0.0101727 0)
(0.948653 0.0091563 0)
(0.927784 0.00829586 0)
(0.907632 0.00756316 0)
(0.888341 0.00693347 0)
(0.869978 0.00638771 0)
(0.852563 0.00591123 0)
(0.836082 0.00549246 0)
(0.820506 0.00512209 0)
(0.805792 0.00479257 0)
(0.791895 0.00449775 0)
(0.778768 0.00423255 0)
(0.766363 0.00399277 0)
(0.754635 0.00377487 0)
(0.743541 0.0035759 0)
(0.733041 0.00339333 0)
(0.723097 0.00322501 0)
(0.713675 0.00306908 0)
(0.704745 0.00292394 0)
(0.696276 0.00278818 0)
(0.688244 0.00266059 0)
(0.680623 0.00254008 0)
(0.673393 0.00242564 0)
(0.666533 0.00231648 0)
(0.660027 0.0022116 0)
(0.653857 0.00211061 0)
(0.648012 0.00201211 0)
(0.642477 0.00191665 0)
(0.637242 0.00182132 0)
(0.632299 0.00172919 0)
(0.627636 0.00163284 0)
(0.623261 0.00154215 0)
(0.619135 0.00143752 0)
(0.615337 0.00134526 0)
(0.61171 0.00121816 0)
(0.608561 0.00111055 0)
(0.605394 0.000938206 0)
(0.603085 0.000735632 0)
(0.600445 0.000509924 0)
(0.599263 -0.000228019 0)
(0.597834 -0.000652983 0)
(0.5974 -0.00433308 0)
(1.00495 0.0373561 0)
(1.04727 0.0352542 0)
(1.06397 0.0246828 0)
(1.06425 0.0205783 0)
(1.06067 0.0177638 0)
(1.05475 0.0154804 0)
(1.04602 0.0138537 0)
(1.03486 0.0125894 0)
(1.022 0.0115009 0)
(1.00804 0.0105467 0)
(0.993427 0.00971315 0)
(0.978521 0.00898251 0)
(0.963582 0.00833767 0)
(0.948802 0.00776519 0)
(0.934314 0.00725457 0)
(0.920212 0.00679718 0)
(0.906553 0.0063858 0)
(0.893372 0.0060143 0)
(0.880689 0.00567747 0)
(0.868507 0.00537088 0)
(0.856825 0.00509072 0)
(0.845634 0.0048337 0)
(0.834923 0.00459697 0)
(0.824676 0.00437806 0)
(0.814878 0.0041748 0)
(0.805511 0.00398529 0)
(0.796561 0.00380786 0)
(0.788009 0.00364103 0)
(0.779842 0.00348348 0)
(0.772042 0.00333402 0)
(0.764598 0.00319155 0)
(0.757494 0.00305516 0)
(0.750719 0.00292374 0)
(0.744261 0.00279681 0)
(0.738111 0.0026728 0)
(0.732258 0.00255224 0)
(0.726695 0.0024319 0)
(0.721415 0.00231504 0)
(0.71641 0.00219351 0)
(0.711684 0.00207787 0)
(0.707211 0.0019469 0)
(0.703046 0.00182833 0)
(0.699082 0.00167235 0)
(0.695538 0.00153314 0)
(0.692063 0.00132758 0)
(0.689295 0.00107549 0)
(0.686393 0.000798134 0)
(0.684645 -2.37142e-05 0)
(0.682815 -0.000644933 0)
(0.681762 -0.00409006 0)
(1.0044 0.0348082 0)
(1.04324 0.0341811 0)
(1.05994 0.0240419 0)
(1.06228 0.0202845 0)
(1.06249 0.0178274 0)
(1.0618 0.0157607 0)
(1.05924 0.0143064 0)
(1.05472 0.0132064 0)
(1.04854 0.0122591 0)
(1.04102 0.011416 0)
(1.03244 0.0106659 0)
(1.02306 0.00999533 0)
(1.01309 0.00939104 0)
(1.00274 0.00884324 0)
(0.99216 0.00834468 0)
(0.98149 0.00788958 0)
(0.970829 0.00747299 0)
(0.960256 0.00709064 0)
(0.949834 0.00673879 0)
(0.939607 0.00641413 0)
(0.929611 0.00611371 0)
(0.91987 0.00583492 0)
(0.910401 0.00557542 0)
(0.901214 0.0053331 0)
(0.892318 0.00510608 0)
(0.883714 0.00489265 0)
(0.875404 0.0046913 0)
(0.867386 0.00450062 0)
(0.859658 0.00431937 0)
(0.852217 0.00414639 0)
(0.845058 0.00398059 0)
(0.838176 0.00382105 0)
(0.831568 0.00366664 0)
(0.825227 0.00351683 0)
(0.81915 0.00337001 0)
(0.813331 0.00322663 0)
(0.807769 0.00308337 0)
(0.802458 0.00294345 0)
(0.797396 0.00279845 0)
(0.792584 0.00265897 0)
(0.788011 0.00250333 0)
(0.78371 0.0023588 0)
(0.779614 0.00217612 0)
(0.775877 0.00200478 0)
(0.77226 0.00176884 0)
(0.769213 0.00146814 0)
(0.766164 0.00113904 0)
(0.764004 0.000250471 0)
(0.761858 -0.000546854 0)
(0.760236 -0.00374817 0)
(1.00402 0.0323681 0)
(1.03991 0.0331311 0)
(1.05616 0.0234189 0)
(1.05892 0.0198963 0)
(1.06022 0.0176968 0)
(1.06157 0.0157644 0)
(1.06195 0.0144105 0)
(1.06108 0.0134246 0)
(1.05904 0.0125923 0)
(1.05596 0.011854 0)
(1.05192 0.0111959 0)
(1.04703 0.0106043 0)
(1.04142 0.010066 0)
(1.03522 0.00957188 0)
(1.02854 0.00911576 0)
(1.02149 0.00869321 0)
(1.01416 0.00830064 0)
(1.00665 0.00793505 0)
(0.99901 0.00759385 0)
(0.991314 0.00727475 0)
(0.983608 0.00697568 0)
(0.975935 0.00669476 0)
(0.968329 0.00643025 0)
(0.96082 0.00618058 0)
(0.953429 0.00594427 0)
(0.946175 0.00571996 0)
(0.939074 0.00550641 0)
(0.932137 0.00530245 0)
(0.925374 0.005107 0)
(0.918793 0.00491906 0)
(0.912398 0.00473764 0)
(0.906193 0.00456191 0)
(0.900184 0.00439079 0)
(0.894371 0.00422379 0)
(0.888757 0.00405933 0)
(0.883341 0.00389784 0)
(0.878128 0.00373599 0)
(0.873116 0.0035769 0)
(0.868308 0.00341217 0)
(0.863706 0.00325202 0)
(0.859307 0.00307521 0)
(0.855135 0.00290718 0)
(0.851149 0.00270149 0)
(0.847456 0.00249994 0)
(0.843901 0.00223744 0)
(0.840791 0.00189221 0)
(0.837757 0.00151367 0)
(0.835377 0.000576485 0)
(0.833046 -0.000368597 0)
(0.83098 -0.00332545 0)
(1.00364 0.0300278 0)
(1.03692 0.0320837 0)
(1.05282 0.0228292 0)
(1.05568 0.0194911 0)
(1.05712 0.0175046 0)
(1.05903 0.0156638 0)
(1.06048 0.0143569 0)
(1.06118 0.0134333 0)
(1.06121 0.0126738 0)
(1.06059 0.0120088 0)
(1.05932 0.0114221 0)
(1.05742 0.0108986 0)
(1.05492 0.0104236 0)
(1.05187 0.009987 0)
(1.04833 0.00958212 0)
(1.04436 0.0092044 0)
(1.04002 0.00885045 0)
(1.03536 0.00851762 0)
(1.03044 0.00820376 0)
(1.02531 0.00790706 0)
(1.02002 0.00762595 0)
(1.01461 0.00735903 0)
(1.00912 0.00710501 0)
(1.00357 0.00686271 0)
(0.998004 0.00663102 0)
(0.99244 0.00640891 0)
(0.986901 0.0061954 0)
(0.981406 0.00598958 0)
(0.975972 0.00579058 0)
(0.970614 0.00559757 0)
(0.965345 0.00540972 0)
(0.960174 0.00522633 0)
(0.955112 0.00504644 0)
(0.950167 0.00486963 0)
(0.945346 0.00469439 0)
(0.940655 0.00452118 0)
(0.936101 0.00434675 0)
(0.931687 0.00417407 0)
(0.927421 0.00399499 0)
(0.923306 0.00381906 0)
(0.919346 0.00362609 0)
(0.915559 0.0034388 0)
(0.911922 0.00321511 0)
(0.90851 0.00298739 0)
(0.905228 0.00270317 0)
(0.902277 0.00232007 0)
(0.899433 0.00189685 0)
(0.897038 0.000929416 0)
(0.89468 -0.000124967 0)
(0.892341 -0.00284433 0)
(1.00327 0.0277881 0)
(1.03409 0.031025 0)
(1.0497 0.022266 0)
(1.05272 0.0190838 0)
(1.05412 0.0172935 0)
(1.05608 0.015534 0)
(1.0578 0.0142488 0)
(1.05903 0.0133549 0)
(1.05987 0.0126354 0)
(1.06035 0.012013 0)
(1.06047 0.0114705 0)
(1.0602 0.0109926 0)
(1.05954 0.0105638 0)
(1.05849 0.0101727 0)
(1.05706 0.0098117 0)
(1.05528 0.00947549 0)
(1.05315 0.00916024 0)
(1.05073 0.00886301 0)
(1.04802 0.00858151 0)
(1.04507 0.0083139 0)
(1.04191 0.00805867 0)
(1.03855 0.00781452 0)
(1.03504 0.00758032 0)
(1.03139 0.00735506 0)
(1.02764 0.00713779 0)
(1.0238 0.00692765 0)
(1.0199 0.00672385 0)
(1.01595 0.00652562 0)
(1.01198 0.00633226 0)
(1.00801 0.00614306 0)
(1.00404 0.00595733 0)
(1.00009 0.00577449 0)
(0.99617 0.00559368 0)
(0.992297 0.00541458 0)
(0.988478 0.00523575 0)
(0.984723 0.00505769 0)
(0.981042 0.00487725 0)
(0.97744 0.00469727 0)
(0.973927 0.00450996 0)
(0.970509 0.00432399 0)
(0.967192 0.00412072 0)
(0.963993 0.00391949 0)
(0.960902 0.00368358 0)
(0.957967 0.00343521 0)
(0.955141 0.00313479 0)
(0.95254 0.0027223 0)
(0.950046 0.00226129 0)
(0.947825 0.00128226 0)
(0.945594 0.000159074 0)
(0.943164 -0.0023326 0)
(1.00292 0.0256524 0)
(1.03138 0.0299507 0)
(1.0467 0.0217249 0)
(1.04993 0.0186744 0)
(1.05131 0.0170704 0)
(1.05323 0.0153971 0)
(1.05498 0.014127 0)
(1.05633 0.0132482 0)
(1.05739 0.0125512 0)
(1.05827 0.011952 0)
(1.05894 0.0114333 0)
(1.05941 0.0109813 0)
(1.05965 0.0105804 0)
(1.05966 0.0102185 0)
(1.05943 0.00988759 0)
(1.05895 0.00958171 0)
(1.05824 0.00929653 0)
(1.0573 0.00902869 0)
(1.05613 0.00877552 0)
(1.05476 0.00853493 0)
(1.05318 0.00830519 0)
(1.05142 0.00808486 0)
(1.0495 0.00787274 0)
(1.04742 0.00766775 0)
(1.0452 0.00746894 0)
(1.04287 0.00727546 0)
(1.04044 0.00708653 0)
(1.03791 0.00690142 0)
(1.03532 0.00671947 0)
(1.03266 0.00654005 0)
(1.02996 0.0063625 0)
(1.02723 0.00618631 0)
(1.02448 0.00601068 0)
(1.02172 0.00583535 0)
(1.01895 0.00565894 0)
(1.01621 0.00548195 0)
(1.01348 0.00530137 0)
(1.01078 0.00511983 0)
(1.00812 0.00493001 0)
(1.0055 0.00473957 0)
(1.00294 0.00453169 0)
(1.00045 0.00432198 0)
(0.998017 0.00407957 0)
(0.995684 0.00381663 0)
(0.99343 0.00350557 0)
(0.991311 0.00307298 0)
(0.989277 0.00258254 0)
(0.987372 0.00160942 0)
(0.985391 0.000451675 0)
(0.983034 -0.00181725 0)
(1.0026 0.0236234 0)
(1.02879 0.0288594 0)
(1.04378 0.0212047 0)
(1.04724 0.018263 0)
(1.04862 0.0168336 0)
(1.05051 0.0152557 0)
(1.05226 0.0140025 0)
(1.05361 0.0131342 0)
(1.05471 0.0124529 0)
(1.05568 0.0118682 0)
(1.05653 0.0113626 0)
(1.05725 0.0109242 0)
(1.05786 0.0105382 0)
(1.05833 0.0101927 0)
(1.05866 0.00987935 0)
(1.05886 0.0095921 0)
(1.05891 0.00932637 0)
(1.05881 0.00907852 0)
(1.05856 0.00884562 0)
(1.05816 0.00862532 0)
(1.05762 0.00841565 0)
(1.05693 0.00821497 0)
(1.05611 0.00802191 0)
(1.05515 0.00783523 0)
(1.05408 0.00765389 0)
(1.05289 0.00747691 0)
(1.05159 0.00730346 0)
(1.0502 0.00713274 0)
(1.04873 0.00696404 0)
(1.04718 0.00679671 0)
(1.04556 0.00663007 0)
(1.04388 0.00646361 0)
(1.04216 0.00629651 0)
(1.0404 0.00612853 0)
(1.03861 0.00595833 0)
(1.03679 0.00578636 0)
(1.03497 0.00560974 0)
(1.03313 0.00543083 0)
(1.03131 0.00524286 0)
(1.02949 0.00505232 0)
(1.02768 0.00484442 0)
(1.02591 0.00463094 0)
(1.02417 0.0043868 0)
(1.02247 0.00411505 0)
(1.02083 0.00379824 0)
(1.01924 0.00335451 0)
(1.01771 0.00284356 0)
(1.0162 0.00189123 0)
(1.01454 0.000729727 0)
(1.01238 -0.00132052 0)
(1.0023 0.0217028 0)
(1.02634 0.0277519 0)
(1.04095 0.0207039 0)
(1.04463 0.0178509 0)
(1.04604 0.0165821 0)
(1.04789 0.0151082 0)
(1.04964 0.0138766 0)
(1.05098 0.0130178 0)
(1.05208 0.0123506 0)
(1.05305 0.0117779 0)
(1.05392 0.0112811 0)
(1.05472 0.0108506 0)
(1.05543 0.0104728 0)
(1.05607 0.0101361 0)
(1.05663 0.00983217 0)
(1.0571 0.00955516 0)
(1.0575 0.00930047 0)
(1.05781 0.00906441 0)
(1.05802 0.00884396 0)
(1.05815 0.00863663 0)
(1.05818 0.00844033 0)
(1.05812 0.00825328 0)
(1.05796 0.00807396 0)
(1.05771 0.00790102 0)
(1.05737 0.00773326 0)
(1.05694 0.00756963 0)
(1.05642 0.00740914 0)
(1.05583 0.00725094 0)
(1.05516 0.0070942 0)
(1.05442 0.00693822 0)
(1.05361 0.00678224 0)
(1.05274 0.0066257 0)
(1.05182 0.00646777 0)
(1.05085 0.00630815 0)
(1.04985 0.00614549 0)
(1.0488 0.00598019 0)
(1.04773 0.00580947 0)
(1.04664 0.00563538 0)
(1.04552 0.00545172 0)
(1.0444 0.00526376 0)
(1.04327 0.00505878 0)
(1.04214 0.00484482 0)
(1.04103 0.00460224 0)
(1.03992 0.00432631 0)
(1.03884 0.00400749 0)
(1.03777 0.00356036 0)
(1.03672 0.0030375 0)
(1.03561 0.00211795 0)
(1.03429 0.000979923 0)
(1.03237 -0.000858086 0)
(1.00203 0.0198915 0)
(1.02402 0.0266314 0)
(1.03821 0.0202192 0)
(1.04211 0.0174401 0)
(1.04354 0.0163158 0)
(1.04536 0.0149532 0)
(1.04711 0.0137486 0)
(1.04845 0.0128994 0)
(1.04954 0.0122462 0)
(1.05049 0.0116853 0)
(1.05136 0.0111964 0)
(1.05216 0.010772 0)
(1.05289 0.0103997 0)
(1.05357 0.0100683 0)
(1.05419 0.00976978 0)
(1.05476 0.00949837 0)
(1.05528 0.00924966 0)
(1.05576 0.00902003 0)
(1.05617 0.00880651 0)
(1.05654 0.00860659 0)
(1.05685 0.00841817 0)
(1.0571 0.00823942 0)
(1.05729 0.00806874 0)
(1.05742 0.00790471 0)
(1.05749 0.00774607 0)
(1.0575 0.00759166 0)
(1.05745 0.00744044 0)
(1.05735 0.00729145 0)
(1.05718 0.0071438 0)
(1.05697 0.0069967 0)
(1.0567 0.00684931 0)
(1.05638 0.00670104 0)
(1.05602 0.00655098 0)
(1.05561 0.00639878 0)
(1.05517 0.0062431 0)
(1.05469 0.0060842 0)
(1.05417 0.00591947 0)
(1.05364 0.00575054 0)
(1.05307 0.00557189 0)
(1.05249 0.00538748 0)
(1.05189 0.00518666 0)
(1.05129 0.004974 0)
(1.05067 0.00473465 0)
(1.05005 0.00445779 0)
(1.04944 0.00413936 0)
(1.04881 0.00369485 0)
(1.04816 0.00316775 0)
(1.0474 0.00228985 0)
(1.04638 0.00119691 0)
(1.04472 -0.000435648 0)
(1.00179 0.0181897 0)
(1.02183 0.0255018 0)
(1.03558 0.019747 0)
(1.03967 0.0170324 0)
(1.04114 0.0160356 0)
(1.04292 0.0147898 0)
(1.04467 0.0136181 0)
(1.04602 0.0127788 0)
(1.04709 0.0121396 0)
(1.04803 0.011591 0)
(1.04889 0.0111103 0)
(1.04967 0.0106917 0)
(1.0504 0.0103242 0)
(1.05107 0.00999699 0)
(1.0517 0.00970224 0)
(1.05229 0.00943444 0)
(1.05285 0.0091893 0)
(1.05337 0.00896335 0)
(1.05386 0.00875369 0)
(1.05431 0.00855789 0)
(1.05473 0.00837385 0)
(1.05511 0.00819977 0)
(1.05546 0.00803405 0)
(1.05577 0.00787526 0)
(1.05604 0.0077221 0)
(1.05627 0.00757339 0)
(1.05647 0.00742803 0)
(1.05663 0.00728502 0)
(1.05675 0.0071434 0)
(1.05683 0.00700234 0)
(1.05688 0.00686094 0)
(1.05689 0.00671857 0)
(1.05686 0.00657426 0)
(1.05681 0.00642762 0)
(1.05672 0.0062773 0)
(1.05661 0.00612347 0)
(1.05647 0.00596363 0)
(1.05631 0.00579905 0)
(1.05612 0.00562484 0)
(1.05592 0.00544373 0)
(1.0557 0.00524698 0)
(1.05546 0.00503619 0)
(1.05521 0.00480039 0)
(1.05495 0.00452454 0)
(1.05468 0.00420783 0)
(1.05438 0.0037702 0)
(1.05404 0.00324536 0)
(1.05354 0.00241507 0)
(1.05276 0.00138337 0)
(1.05132 -5.49517e-05 0)
(1.00157 0.0165971 0)
(1.01978 0.0243669 0)
(1.03304 0.019283 0)
(1.03732 0.0166295 0)
(1.03882 0.0157425 0)
(1.04057 0.0146174 0)
(1.04231 0.0134846 0)
(1.04366 0.0126559 0)
(1.04473 0.0120305 0)
(1.04566 0.011495 0)
(1.0465 0.011023 0)
(1.04728 0.0106103 0)
(1.04799 0.0102476 0)
(1.04865 0.00992435 0)
(1.04927 0.00963299 0)
(1.04986 0.00936815 0)
(1.05042 0.0091257 0)
(1.05094 0.0089023 0)
(1.05144 0.00869514 0)
(1.05192 0.00850186 0)
(1.05237 0.00832042 0)
(1.05279 0.00814905 0)
(1.0532 0.00798617 0)
(1.05358 0.00783038 0)
(1.05393 0.00768037 0)
(1.05426 0.00753496 0)
(1.05456 0.00739304 0)
(1.05484 0.00725359 0)
(1.0551 0.00711561 0)
(1.05533 0.00697825 0)
(1.05554 0.00684059 0)
(1.05572 0.00670194 0)
(1.05589 0.00656132 0)
(1.05603 0.00641832 0)
(1.05614 0.00627158 0)
(1.05624 0.00612115 0)
(1.05632 0.00596475 0)
(1.05639 0.00580322 0)
(1.05643 0.00563231 0)
(1.05646 0.00545365 0)
(1.05648 0.00526017 0)
(1.05648 0.00505107 0)
(1.05647 0.00481838 0)
(1.05644 0.00454455 0)
(1.0564 0.00423017 0)
(1.05631 0.00380228 0)
(1.05617 0.00328511 0)
(1.05585 0.00250602 0)
(1.05523 0.00154671 0)
(1.05396 0.000290815 0)
(1.00137 0.0151127 0)
(1.01788 0.0232307 0)
(1.03061 0.0188235 0)
(1.03505 0.0162331 0)
(1.03661 0.0154382 0)
(1.03831 0.0144353 0)
(1.04004 0.0133479 0)
(1.0414 0.0125307 0)
(1.04246 0.011919 0)
(1.04338 0.011397 0)
(1.04421 0.0109343 0)
(1.04498 0.0105278 0)
(1.04568 0.01017 0)
(1.04633 0.00985086 0)
(1.04694 0.0095629 0)
(1.04751 0.00930091 0)
(1.04806 0.00906094 0)
(1.04858 0.00883975 0)
(1.04907 0.00863462 0)
(1.04954 0.00844326 0)
(1.05 0.00826367 0)
(1.05043 0.00809414 0)
(1.05084 0.0079331 0)
(1.05124 0.00777919 0)
(1.05162 0.00763111 0)
(1.05198 0.00748768 0)
(1.05232 0.0073478 0)
(1.05265 0.00721044 0)
(1.05296 0.0070746 0)
(1.05326 0.00693939 0)
(1.05353 0.0068039 0)
(1.0538 0.00666742 0)
(1.05404 0.00652897 0)
(1.05428 0.00638808 0)
(1.0545 0.00624347 0)
(1.0547 0.00609505 0)
(1.0549 0.00594075 0)
(1.05508 0.00578103 0)
(1.05525 0.00561228 0)
(1.05541 0.00543513 0)
(1.05555 0.00524394 0)
(1.05569 0.00503611 0)
(1.05582 0.00480583 0)
(1.05592 0.00453454 0)
(1.05601 0.00422288 0)
(1.05605 0.00380662 0)
(1.05602 0.00330165 0)
(1.0558 0.00257573 0)
(1.05529 0.00169562 0)
(1.05414 0.000612798 0)
(1.00119 0.013735 0)
(1.0161 0.0220975 0)
(1.02829 0.0183647 0)
(1.03288 0.0158441 0)
(1.03448 0.0151242 0)
(1.03615 0.014243 0)
(1.03786 0.0132075 0)
(1.03923 0.0124033 0)
(1.04029 0.0118048 0)
(1.04119 0.0112969 0)
(1.04202 0.010844 0)
(1.04277 0.0104442 0)
(1.04345 0.0100914 0)
(1.04409 0.00977653 0)
(1.04469 0.00949208 0)
(1.04526 0.00923302 0)
(1.04579 0.00899553 0)
(1.0463 0.00877651 0)
(1.04678 0.00857332 0)
(1.04725 0.00838372 0)
(1.04769 0.00820576 0)
(1.04812 0.00803775 0)
(1.04853 0.00787819 0)
(1.04893 0.00772569 0)
(1.04931 0.00757901 0)
(1.04967 0.00743697 0)
(1.05002 0.00729846 0)
(1.05036 0.00716245 0)
(1.05069 0.00702794 0)
(1.051 0.00689406 0)
(1.0513 0.00675985 0)
(1.05159 0.00662461 0)
(1.05187 0.00648738 0)
(1.05214 0.00634764 0)
(1.0524 0.00620419 0)
(1.05266 0.00605683 0)
(1.0529 0.00590368 0)
(1.05313 0.00574489 0)
(1.05336 0.00557739 0)
(1.05358 0.00540102 0)
(1.05379 0.00521131 0)
(1.054 0.00500442 0)
(1.05419 0.00477594 0)
(1.05436 0.00450754 0)
(1.05452 0.00419908 0)
(1.05462 0.00379582 0)
(1.05464 0.00330694 0)
(1.05447 0.00263508 0)
(1.054 0.00183797 0)
(1.05293 0.000917079 0)
(1.00104 0.0124617 0)
(1.01446 0.0209713 0)
(1.02608 0.0179032 0)
(1.03079 0.0154634 0)
(1.03245 0.0148026 0)
(1.03408 0.01404 0)
(1.03577 0.0130629 0)
(1.03714 0.0122737 0)
(1.0382 0.0116881 0)
(1.0391 0.0111945 0)
(1.03991 0.0107521 0)
(1.04065 0.0103592 0)
(1.04133 0.0100118 0)
(1.04196 0.00970128 0)
(1.04254 0.00942049 0)
(1.0431 0.00916446 0)
(1.04362 0.00892954 0)
(1.04412 0.00871275 0)
(1.04459 0.00851152 0)
(1.04505 0.00832368 0)
(1.04548 0.00814732 0)
(1.0459 0.00798078 0)
(1.0463 0.00782258 0)
(1.04669 0.00767138 0)
(1.04706 0.00752592 0)
(1.04742 0.00738504 0)
(1.04777 0.00724763 0)
(1.0481 0.00711268 0)
(1.04843 0.00697916 0)
(1.04874 0.0068462 0)
(1.04905 0.00671285 0)
(1.04934 0.0065784 0)
(1.04963 0.00644189 0)
(1.04991 0.00630279 0)
(1.05018 0.00615997 0)
(1.05045 0.00601311 0)
(1.05071 0.00586056 0)
(1.05096 0.00570216 0)
(1.05121 0.00553535 0)
(1.05146 0.00535935 0)
(1.05169 0.00517057 0)
(1.05192 0.00496447 0)
(1.05214 0.00473746 0)
(1.05234 0.00447234 0)
(1.05252 0.00416778 0)
(1.05264 0.00377865 0)
(1.05268 0.00330925 0)
(1.05252 0.0026917 0)
(1.05206 0.00197903 0)
(1.05105 0.00120945 0)
(1.0009 0.0112899 0)
(1.01295 0.0198567 0)
(1.02398 0.0174358 0)
(1.02878 0.0150915 0)
(1.03051 0.0144754 0)
(1.0321 0.0138261 0)
(1.03377 0.0129134 0)
(1.03514 0.0121418 0)
(1.0362 0.0115687 0)
(1.03709 0.0110897 0)
(1.03789 0.0106585 0)
(1.03862 0.0102729 0)
(1.03929 0.00993098 0)
(1.03991 0.00962503 0)
(1.04049 0.00934803 0)
(1.04103 0.00909516 0)
(1.04154 0.00886292 0)
(1.04203 0.00864843 0)
(1.0425 0.00844923 0)
(1.04294 0.00826319 0)
(1.04337 0.00808847 0)
(1.04377 0.00792342 0)
(1.04417 0.0077666 0)
(1.04454 0.00761668 0)
(1.04491 0.00747241 0)
(1.04526 0.00733264 0)
(1.0456 0.00719627 0)
(1.04593 0.00706227 0)
(1.04625 0.00692963 0)
(1.04656 0.00679744 0)
(1.04685 0.00666479 0)
(1.04715 0.00653093 0)
(1.04743 0.00639493 0)
(1.04771 0.00625624 0)
(1.04798 0.00611378 0)
(1.04825 0.00596717 0)
(1.04851 0.00581493 0)
(1.04877 0.00565669 0)
(1.04902 0.00549025 0)
(1.04927 0.00531446 0)
(1.04951 0.00512633 0)
(1.04974 0.00492106 0)
(1.04997 0.00469548 0)
(1.05017 0.00443409 0)
(1.05035 0.00413438 0)
(1.05047 0.00376036 0)
(1.0505 0.00331338 0)
(1.05033 0.00274996 0)
(1.04989 0.00212144 0)
(1.04892 0.00149285 0)
(1.00078 0.0102161 0)
(1.01157 0.0187581 0)
(1.02199 0.01696 0)
(1.02686 0.0147284 0)
(1.02867 0.0141446 0)
(1.03022 0.0136013 0)
(1.03186 0.0127585 0)
(1.03323 0.0120077 0)
(1.03429 0.0114468 0)
(1.03518 0.0109823 0)
(1.03597 0.0105628 0)
(1.03669 0.0101852 0)
(1.03735 0.00984894 0)
(1.03796 0.00954769 0)
(1.03853 0.00927465 0)
(1.03906 0.00902506 0)
(1.03957 0.00879559 0)
(1.04004 0.0085835 0)
(1.0405 0.0083864 0)
(1.04093 0.00820223 0)
(1.04135 0.0080292 0)
(1.04175 0.00786569 0)
(1.04213 0.00771028 0)
(1.0425 0.00756167 0)
(1.04286 0.00741861 0)
(1.0432 0.00727997 0)
(1.04353 0.00714464 0)
(1.04385 0.00701159 0)
(1.04416 0.00687979 0)
(1.04446 0.00674835 0)
(1.04475 0.00661634 0)
(1.04504 0.00648301 0)
(1.04532 0.00634745 0)
(1.04559 0.00620908 0)
(1.04585 0.00606689 0)
(1.04612 0.00592043 0)
(1.04637 0.00576838 0)
(1.04663 0.0056102 0)
(1.04688 0.00544402 0)
(1.04712 0.00526841 0)
(1.04736 0.00508085 0)
(1.04759 0.00487657 0)
(1.04781 0.00465259 0)
(1.04801 0.00439544 0)
(1.04818 0.00410166 0)
(1.04829 0.00374369 0)
(1.0483 0.00332159 0)
(1.04812 0.0028118 0)
(1.04768 0.00226583 0)
(1.04675 0.00176791 0)
(1.00067 0.00923617 0)
(1.01031 0.0176798 0)
(1.02012 0.0164734 0)
(1.02503 0.0143739 0)
(1.02691 0.0138124 0)
(1.02843 0.013366 0)
(1.03004 0.0125974 0)
(1.03141 0.0118711 0)
(1.03247 0.0113223 0)
(1.03335 0.0108722 0)
(1.03413 0.0104651 0)
(1.03485 0.0100958 0)
(1.0355 0.00976555 0)
(1.0361 0.00946918 0)
(1.03666 0.00920023 0)
(1.03719 0.00895407 0)
(1.03768 0.00872749 0)
(1.03815 0.00851788 0)
(1.03859 0.00832296 0)
(1.03902 0.00814074 0)
(1.03943 0.00796945 0)
(1.03982 0.00780754 0)
(1.04019 0.00765359 0)
(1.04055 0.00750633 0)
(1.0409 0.00736453 0)
(1.04123 0.00722705 0)
(1.04156 0.00709278 0)
(1.04187 0.00696069 0)
(1.04217 0.00682976 0)
(1.04246 0.00669907 0)
(1.04275 0.0065677 0)
(1.04303 0.00643489 0)
(1.0433 0.00629975 0)
(1.04356 0.00616167 0)
(1.04382 0.00601973 0)
(1.04408 0.00587339 0)
(1.04433 0.00572149 0)
(1.04457 0.00556336 0)
(1.04482 0.00539741 0)
(1.04506 0.00522205 0)
(1.04529 0.00503509 0)
(1.04551 0.00483204 0)
(1.04572 0.00460996 0)
(1.04591 0.00435757 0)
(1.04607 0.00407086 0)
(1.04617 0.00372976 0)
(1.04616 0.00333448 0)
(1.04598 0.00287752 0)
(1.04553 0.00241148 0)
(1.04466 0.00203392 0)
(1.00058 0.00834558 0)
(1.00916 0.0166263 0)
(1.01837 0.0159744 0)
(1.02328 0.0140273 0)
(1.02524 0.0134806 0)
(1.02673 0.0131206 0)
(1.02831 0.0124296 0)
(1.02968 0.0117318 0)
(1.03074 0.0111954 0)
(1.03161 0.0107594 0)
(1.03239 0.0103652 0)
(1.03309 0.0100047 0)
(1.03374 0.00968072 0)
(1.03433 0.00938939 0)
(1.03488 0.0091247 0)
(1.0354 0.00888211 0)
(1.03589 0.00865852 0)
(1.03635 0.00845149 0)
(1.03678 0.00825884 0)
(1.0372 0.00807863 0)
(1.0376 0.00790916 0)
(1.03798 0.0077489 0)
(1.03835 0.00759648 0)
(1.0387 0.00745061 0)
(1.03904 0.00731011 0)
(1.03937 0.00717383 0)
(1.03968 0.00704066 0)
(1.03999 0.00690957 0)
(1.04028 0.00677953 0)
(1.04057 0.00664961 0)
(1.04084 0.0065189 0)
(1.04111 0.00638661 0)
(1.04138 0.00625189 0)
(1.04164 0.00611412 0)
(1.04189 0.00597241 0)
(1.04214 0.0058262 0)
(1.04238 0.00567446 0)
(1.04262 0.00551642 0)
(1.04286 0.0053507 0)
(1.04309 0.00517568 0)
(1.04331 0.00498942 0)
(1.04353 0.00478783 0)
(1.04373 0.00456804 0)
(1.04391 0.00432093 0)
(1.04406 0.00404238 0)
(1.04414 0.00371887 0)
(1.04412 0.00335178 0)
(1.04392 0.00294646 0)
(1.04349 0.00255688 0)
(1.04266 0.0022893 0)
(1.0005 0.00753924 0)
(1.00813 0.0156017 0)
(1.01672 0.015462 0)
(1.02161 0.0136878 0)
(1.02365 0.0131511 0)
(1.02512 0.012866 0)
(1.02666 0.0122545 0)
(1.02802 0.0115895 0)
(1.02909 0.011066 0)
(1.02996 0.0106438 0)
(1.03073 0.0102628 0)
(1.03143 0.00991179 0)
(1.03207 0.00959434 0)
(1.03265 0.00930824 0)