/*--------------------------------*- C++ -*----------------------------------*\
  =========                 |
  \\      /  F ield         | OpenFOAM: The Open Source CFD Toolbox
   \\    /   O peration     | Website:  https://openfoam.org
    \\  /    A nd           | Version:  7
     \\/     M anipulation  |
\*---------------------------------------------------------------------------*/
FoamFile
{
    version     2.0;
    format      ascii;
    class       volVectorField;
    location    "0.26";
    object      U_0;
}
// * * * * * * * * * * * * * * * * * * * * * * * * * * * * * * * * * * * * * //

dimensions      [0 1 -1 0 0 0 0];

internalField   nonuniform List<vector> 
70000
(
(0.55339 0.016723 0)
(0.251262 0.00340097 0)
(0.166206 0.000321948 0)
(0.132465 5.42362e-05 0)
(0.117283 4.56713e-05 0)
(0.10737 5.38397e-05 0)
(0.0994333 4.6202e-05 0)
(0.0930058 3.68596e-05 0)
(0.087774 3.05443e-05 0)
(0.0834176 2.62179e-05 0)
(0.0797082 2.29213e-05 0)
(0.0764979 2.02806e-05 0)
(0.0736855 1.81255e-05 0)
(0.0711974 1.63424e-05 0)
(0.0689775 1.48471e-05 0)
(0.0669828 1.35771e-05 0)
(0.0651794 1.24865e-05 0)
(0.0635401 1.15404e-05 0)
(0.062043 1.07125e-05 0)
(0.0606702 9.9823e-06 0)
(0.0594068 9.33369e-06 0)
(0.0582404 8.75373e-06 0)
(0.0571606 8.23188e-06 0)
(0.0561584 7.75964e-06 0)
(0.0552264 7.32963e-06 0)
(0.054358 6.93618e-06 0)
(0.0535477 6.57355e-06 0)
(0.0527906 6.23849e-06 0)
(0.0520826 5.92528e-06 0)
(0.05142 5.63374e-06 0)
(0.0507998 5.35569e-06 0)
(0.050219 5.09628e-06 0)
(0.0496754 4.83985e-06 0)
(0.0491668 4.60174e-06 0)
(0.0486915 4.35077e-06 0)
(0.0482482 4.11773e-06 0)
(0.0478352 3.84955e-06 0)
(0.0474533 3.58078e-06 0)
(0.0470986 3.26893e-06 0)
(0.0467795 2.83559e-06 0)
(0.0464807 2.4911e-06 0)
(0.0462381 1.46795e-06 0)
(0.0459939 1.29711e-06 0)
(0.0458734 -1.6167e-06 0)
(0.0456842 -8.78554e-07 0)
(0.0458096 -9.10291e-06 0)
(0.045717 -6.83931e-06 0)
(0.0463077 -2.60442e-05 0)
(0.0471254 -4.19961e-06 0)
(0.0436786 -0.00179803 0)
(0.884898 0.0431674 0)
(0.649717 0.0201938 0)
(0.49433 0.00659774 0)
(0.403693 0.00276673 0)
(0.354794 0.00155091 0)
(0.323522 0.00113036 0)
(0.299698 0.000909091 0)
(0.280538 0.000745184 0)
(0.264861 0.00062237 0)
(0.251775 0.000531673 0)
(0.240629 0.000462831 0)
(0.230982 0.000408645 0)
(0.222528 0.00036483 0)
(0.215046 0.000328716 0)
(0.208368 0.000298492 0)
(0.202364 0.000272863 0)
(0.196935 0.000250878 0)
(0.191997 0.000231824 0)
(0.187487 0.000215159 0)
(0.183349 0.000200463 0)
(0.17954 0.000187405 0)
(0.176023 0.00017572 0)
(0.172765 0.000165194 0)
(0.169741 0.000155652 0)
(0.166928 0.000146947 0)
(0.164306 0.000138959 0)
(0.161859 0.000131583 0)
(0.159572 0.000124736 0)
(0.157433 0.000118338 0)
(0.155431 0.000112332 0)
(0.153556 0.000106647 0)
(0.1518 0.000101258 0)
(0.150157 9.60764e-05 0)
(0.148619 9.11274e-05 0)
(0.147181 8.62568e-05 0)
(0.145839 8.15924e-05 0)
(0.144588 7.68131e-05 0)
(0.143429 7.22445e-05 0)
(0.142349 6.72273e-05 0)
(0.141369 6.23653e-05 0)
(0.140445 5.65371e-05 0)
(0.139668 5.02347e-05 0)
(0.138879 4.25459e-05 0)
(0.138395 3.10714e-05 0)
(0.137696 1.96412e-05 0)
(0.137758 -9.97054e-06 0)
(0.137155 -2.36879e-05 0)
(0.138153 -0.000152689 0)
(0.139208 6.3445e-05 0)
(0.135831 -0.00350338 0)
(0.991237 0.0499015 0)
(0.890348 0.0307184 0)
(0.762694 0.0145964 0)
(0.656708 0.00797739 0)
(0.58542 0.00488184 0)
(0.536063 0.00346758 0)
(0.498251 0.00273184 0)
(0.467688 0.00223953 0)
(0.442428 0.00187653 0)
(0.421171 0.00160513 0)
(0.402969 0.00139787 0)
(0.387154 0.0012347 0)
(0.373253 0.00110285 0)
(0.360917 0.00099418 0)
(0.349882 0.000903202 0)
(0.339943 0.000826024 0)
(0.330938 0.000759792 0)
(0.322737 0.000702371 0)
(0.315235 0.000652135 0)
(0.308344 0.00060782 0)
(0.301994 0.000568432 0)
(0.296122 0.000533176 0)
(0.290679 0.000501407 0)
(0.285622 0.000472598 0)
(0.280912 0.000446309 0)
(0.276519 0.000422177 0)
(0.272415 0.000399891 0)
(0.268577 0.000379191 0)
(0.264983 0.000359847 0)
(0.261616 0.000341674 0)
(0.25846 0.000324479 0)
(0.255502 0.000308154 0)
(0.25273 0.000292482 0)
(0.250133 0.000277476 0)
(0.247703 0.000262782 0)
(0.245432 0.000248666 0)
(0.243311 0.000234367 0)
(0.241342 0.000220737 0)
(0.239505 0.000206002 0)
(0.23783 0.000192269 0)
(0.236251 0.000175557 0)
(0.234894 0.000160177 0)
(0.23353 0.000138248 0)
(0.232605 0.000115691 0)
(0.231374 8.2225e-05 0)
(0.231188 2.80957e-05 0)
(0.230055 -1.22495e-05 0)
(0.231024 -0.000282631 0)
(0.231629 -4.18489e-05 0)
(0.230312 -0.00414755 0)
(1.0156 0.0489204 0)
(1.00596 0.0358745 0)
(0.935955 0.0207898 0)
(0.852147 0.0135005 0)
(0.782246 0.00920235 0)
(0.727101 0.00677447 0)
(0.682086 0.00537599 0)
(0.6444 0.00443666 0)
(0.612455 0.00374314 0)
(0.585057 0.0032177 0)
(0.56127 0.00281179 0)
(0.540386 0.00249012 0)
(0.521877 0.00222907 0)
(0.505342 0.00201317 0)
(0.490468 0.00183189 0)
(0.477008 0.00167772 0)
(0.464763 0.00154512 0)
(0.453572 0.00142994 0)
(0.443302 0.00132902 0)
(0.433844 0.00123986 0)
(0.425104 0.00116052 0)
(0.417006 0.00108943 0)
(0.409483 0.00102531 0)
(0.402478 0.000967116 0)
(0.395944 0.000913982 0)
(0.389838 0.000865178 0)
(0.384124 0.000820089 0)
(0.37877 0.000778194 0)
(0.37375 0.000739034 0)
(0.369038 0.000702233 0)
(0.364615 0.000667415 0)
(0.360462 0.000634337 0)
(0.356563 0.000602609 0)
(0.352903 0.000572186 0)
(0.34947 0.000542463 0)
(0.346256 0.000513842 0)
(0.343248 0.000485011 0)
(0.340446 0.000457479 0)
(0.337827 0.000427997 0)
(0.335423 0.000400798 0)
(0.33316 0.000367793 0)
(0.331178 0.000339316 0)
(0.329217 0.000296582 0)
(0.327774 0.000260247 0)
(0.326016 0.000195887 0)
(0.325423 0.000115271 0)
(0.323837 3.44805e-05 0)
(0.324491 -0.000369073 0)
(0.324468 -0.00021885 0)
(0.324533 -0.00437006 0)
(1.01434 0.046004 0)
(1.04753 0.0374881 0)
(1.02458 0.0241493 0)
(0.974767 0.017554 0)
(0.923483 0.0131143 0)
(0.876759 0.0101955 0)
(0.834663 0.00833019 0)
(0.796995 0.00700831 0)
(0.763517 0.00599838 0)
(0.733788 0.00521115 0)
(0.707293 0.00458948 0)
(0.683559 0.00408901 0)
(0.662187 0.00367814 0)
(0.642847 0.00333524 0)
(0.625263 0.00304518 0)
(0.609208 0.00279696 0)
(0.59449 0.00258237 0)
(0.580951 0.00239515 0)
(0.568454 0.00223046 0)
(0.556886 0.0020845 0)
(0.546149 0.00195423 0)
(0.53616 0.00183722 0)
(0.526846 0.00173145 0)
(0.518144 0.00163527 0)
(0.510001 0.00154732 0)
(0.50237 0.00146641 0)
(0.495208 0.00139158 0)
(0.488481 0.00132198 0)
(0.482157 0.00125688 0)
(0.476206 0.00119565 0)
(0.470606 0.00113771 0)
(0.465334 0.00108262 0)
(0.460372 0.0010298 0)
(0.455702 0.0009791 0)
(0.451312 0.000929635 0)
(0.447187 0.000881911 0)
(0.443315 0.000834022 0)
(0.439694 0.000788145 0)
(0.436302 0.000739432 0)
(0.433165 0.000694416 0)
(0.430213 0.00064049 0)
(0.42758 0.000594656 0)
(0.425013 0.000526204 0)
(0.422991 0.000471689 0)
(0.420721 0.000371949 0)
(0.419588 0.000258808 0)
(0.417614 0.0001329 0)
(0.417733 -0.000391051 0)
(0.417174 -0.000408611 0)
(0.417557 -0.00445812 0)
(1.00933 0.0429154 0)
(1.05527 0.0372635 0)
(1.05868 0.0252934 0)
(1.03637 0.0197528 0)
(1.00711 0.0158012 0)
(0.9761 0.0129219 0)
(0.944627 0.0109429 0)
(0.91383 0.00945918 0)
(0.884556 0.00826818 0)
(0.857186 0.00730043 0)
(0.831795 0.00651071 0)
(0.808318 0.00585862 0)
(0.786631 0.00531253 0)
(0.766591 0.00484945 0)
(0.748054 0.00445258 0)
(0.73088 0.00410922 0)
(0.71494 0.00380963 0)
(0.700118 0.00354618 0)
(0.68631 0.00331287 0)
(0.673423 0.00310486 0)
(0.661375 0.00291827 0)
(0.650092 0.00274989 0)
(0.639511 0.00259708 0)
(0.629573 0.00245765 0)
(0.620228 0.00232973 0)
(0.611431 0.00221176 0)
(0.603141 0.00210238 0)
(0.595324 0.00200043 0)
(0.587947 0.00190491 0)
(0.580983 0.00181494 0)
(0.574405 0.00172969 0)
(0.568192 0.00164856 0)
(0.562325 0.00157072 0)
(0.556785 0.00149591 0)
(0.551558 0.00142298 0)
(0.54663 0.00135248 0)
(0.541988 0.00128195 0)
(0.537627 0.00121412 0)
(0.533528 0.00114267 0)
(0.52971 0.00107616 0)
(0.526114 0.000997938 0)
(0.522852 0.000930699 0)
(0.519712 0.000833687 0)
(0.517095 0.000755608 0)
(0.514344 0.000619612 0)
(0.512606 0.000466232 0)
(0.51028 0.000292585 0)
(0.509743 -0.000341097 0)
(0.508725 -0.000555932 0)
(0.508809 -0.00443758 0)
(1.00625 0.040034 0)
(1.05206 0.0363362 0)
(1.06609 0.0252226 0)
(1.0596 0.0205521 0)
(1.04688 0.0172266 0)
(1.03082 0.0146392 0)
(1.01195 0.0127988 0)
(0.991323 0.0113709 0)
(0.969981 0.0101727 0)
(0.948655 0.00915626 0)
(0.927786 0.00829583 0)
(0.907634 0.00756313 0)
(0.888343 0.00693344 0)
(0.869981 0.00638767 0)
(0.852565 0.00591118 0)
(0.836085 0.0054924 0)
(0.820508 0.00512201 0)
(0.805795 0.00479248 0)
(0.791898 0.00449764 0)
(0.778771 0.00423242 0)
(0.766366 0.00399262 0)
(0.754638 0.0037747 0)
(0.743544 0.00357571 0)
(0.733044 0.00339312 0)
(0.723101 0.00322477 0)
(0.71368 0.00306881 0)
(0.70475 0.00292364 0)
(0.696282 0.00278786 0)
(0.68825 0.00266024 0)
(0.68063 0.00253969 0)
(0.673401 0.00242522 0)
(0.666542 0.00231602 0)
(0.660036 0.0022111 0)
(0.653868 0.00211008 0)
(0.648024 0.00201156 0)
(0.642489 0.00191609 0)
(0.637256 0.00182076 0)
(0.632314 0.00172867 0)
(0.627652 0.00163239 0)
(0.623278 0.00154186 0)
(0.619152 0.00143748 0)
(0.615355 0.00134565 0)
(0.611728 0.00121916 0)
(0.608577 0.00111266 0)
(0.605407 0.000941589 0)
(0.603093 0.000741777 0)
(0.600444 0.000518682 0)
(0.599248 -0.000213071 0)
(0.597796 -0.000631633 0)
(0.597327 -0.00430007 0)
(1.00495 0.037356 0)
(1.04727 0.0352542 0)
(1.06397 0.0246827 0)
(1.06425 0.0205782 0)
(1.06068 0.0177637 0)
(1.05475 0.0154803 0)
(1.04602 0.0138535 0)
(1.03486 0.0125893 0)
(1.022 0.0115008 0)
(1.00804 0.0105466 0)
(0.99343 0.00971311 0)
(0.978524 0.00898248 0)
(0.963585 0.00833764 0)
(0.948804 0.00776516 0)
(0.934317 0.00725452 0)
(0.920215 0.00679712 0)
(0.906556 0.00638572 0)
(0.893375 0.0060142 0)
(0.880691 0.00567735 0)
(0.86851 0.00537074 0)
(0.856828 0.00509056 0)
(0.845638 0.00483351 0)
(0.834926 0.00459676 0)
(0.82468 0.00437781 0)
(0.814882 0.00417452 0)
(0.805516 0.00398498 0)
(0.796566 0.00380751 0)
(0.788015 0.00364065 0)
(0.779848 0.00348306 0)
(0.772049 0.00333356 0)
(0.764605 0.00319104 0)
(0.757502 0.00305461 0)
(0.750728 0.00292315 0)
(0.744271 0.00279618 0)
(0.738122 0.00267214 0)
(0.73227 0.00255155 0)
(0.726708 0.00243122 0)
(0.721429 0.00231439 0)
(0.716425 0.00219294 0)
(0.7117 0.00207748 0)
(0.707228 0.0019468 0)
(0.703063 0.00182873 0)
(0.699099 0.00167344 0)
(0.695553 0.00153552 0)
(0.692076 0.00133148 0)
(0.689303 0.00108251 0)
(0.686392 0.000808428 0)
(0.68463 -6.48346e-06 0)
(0.682779 -0.000619697 0)
(0.681694 -0.00405092 0)
(1.0044 0.0348081 0)
(1.04324 0.0341811 0)
(1.05994 0.0240418 0)
(1.06228 0.0202843 0)
(1.06249 0.0178272 0)
(1.0618 0.0157605 0)
(1.05925 0.0143063 0)
(1.05472 0.0132063 0)
(1.04854 0.012259 0)
(1.04103 0.0114159 0)
(1.03245 0.0106659 0)
(1.02306 0.00999529 0)
(1.01309 0.009391 0)
(1.00274 0.0088432 0)
(0.992163 0.00834463 0)
(0.981493 0.00788951 0)
(0.970832 0.00747291 0)
(0.960259 0.00709054 0)
(0.949837 0.00673867 0)
(0.939611 0.00641398 0)
(0.929615 0.00611353 0)
(0.919874 0.00583472 0)
(0.910405 0.00557518 0)
(0.901218 0.00533283 0)
(0.892322 0.00510577 0)
(0.883718 0.0048923 0)
(0.875408 0.0046909 0)
(0.867391 0.00450018 0)
(0.859664 0.00431888 0)
(0.852223 0.00414586 0)
(0.845065 0.00398 0)
(0.838184 0.00382041 0)
(0.831577 0.00366595 0)
(0.825236 0.00351609 0)
(0.819161 0.00336923 0)
(0.813343 0.00322583 0)
(0.807782 0.00308257 0)
(0.802471 0.00294268 0)
(0.79741 0.00279777 0)
(0.792599 0.00265849 0)
(0.788026 0.00250317 0)
(0.783726 0.0023592 0)
(0.77963 0.00217732 0)
(0.775891 0.00200741 0)
(0.772272 0.00177325 0)
(0.76922 0.00147601 0)
(0.766163 0.00115083 0)
(0.763991 0.000269937 0)
(0.761825 -0.000517993 0)
(0.760173 -0.00370312 0)
(1.00402 0.0323681 0)
(1.03991 0.033131 0)
(1.05616 0.0234188 0)
(1.05892 0.0198962 0)
(1.06022 0.0176966 0)
(1.06157 0.0157642 0)
(1.06195 0.0144104 0)
(1.06108 0.0134245 0)
(1.05904 0.0125922 0)
(1.05596 0.0118539 0)
(1.05192 0.0111959 0)
(1.04703 0.0106043 0)
(1.04143 0.010066 0)
(1.03523 0.00957182 0)
(1.02854 0.0091157 0)
(1.02149 0.00869313 0)
(1.01417 0.00830055 0)
(1.00665 0.00793495 0)
(0.999014 0.00759373 0)
(0.991318 0.0072746 0)
(0.983612 0.0069755 0)
(0.975939 0.00669454 0)
(0.968334 0.00643 0)
(0.960824 0.00618029 0)
(0.953433 0.00594393 0)
(0.94618 0.00571958 0)
(0.939079 0.00550597 0)
(0.932143 0.00530196 0)
(0.92538 0.00510646 0)
(0.918799 0.00491846 0)
(0.912405 0.00473698 0)
(0.906201 0.00456118 0)
(0.900192 0.00439001 0)
(0.89438 0.00422295 0)
(0.888767 0.00405844 0)
(0.883352 0.00389692 0)
(0.87814 0.00373506 0)
(0.873129 0.00357601 0)
(0.868322 0.00341138 0)
(0.863721 0.00325145 0)
(0.859322 0.00307499 0)
(0.85515 0.00290758 0)
(0.851164 0.00270279 0)
(0.84747 0.00250282 0)
(0.843912 0.00224234 0)
(0.840798 0.00190088 0)
(0.837756 0.00152689 0)
(0.835364 0.000598001 0)
(0.833017 -0.000336403 0)
(0.830924 -0.00327486 0)
(1.00364 0.0300277 0)
(1.03692 0.0320836 0)
(1.05282 0.0228291 0)
(1.05568 0.0194909 0)
(1.05712 0.0175044 0)
(1.05903 0.0156636 0)
(1.06048 0.0143567 0)
(1.06118 0.0134331 0)
(1.06121 0.0126737 0)
(1.06059 0.0120087 0)
(1.05932 0.011422 0)
(1.05742 0.0108985 0)
(1.05493 0.0104235 0)
(1.05188 0.00998692 0)
(1.04834 0.00958204 0)
(1.04437 0.00920431 0)
(1.04002 0.00885035 0)
(1.03536 0.00851751 0)
(1.03044 0.00820363 0)
(1.02532 0.0079069 0)
(1.02003 0.00762576 0)
(1.01462 0.00735881 0)
(1.00912 0.00710475 0)
(1.00358 0.0068624 0)
(0.998009 0.00663067 0)
(0.992445 0.0064085 0)
(0.986906 0.00619494 0)
(0.981412 0.00598905 0)
(0.975978 0.00578998 0)
(0.970621 0.0055969 0)
(0.965351 0.00540899 0)
(0.960181 0.00522552 0)
(0.95512 0.00504556 0)
(0.950175 0.00486869 0)
(0.945356 0.0046934 0)
(0.940665 0.00452015 0)
(0.936112 0.00434571 0)
(0.931699 0.00417307 0)
(0.927434 0.0039941 0)
(0.92332 0.0038184 0)
(0.91936 0.00362583 0)
(0.915573 0.00343921 0)
(0.911936 0.00321651 0)
(0.908522 0.00299051 0)
(0.905239 0.00270855 0)
(0.902283 0.00232949 0)
(0.899433 0.0019114 0)
(0.897028 0.000952852 0)
(0.894655 -8.86842e-05 0)
(0.892293 -0.00278881 0)
(1.00327 0.027788 0)
(1.03409 0.0310249 0)
(1.0497 0.0222658 0)
(1.05272 0.0190836 0)
(1.05412 0.0172933 0)
(1.05608 0.0155338 0)
(1.0578 0.0142485 0)
(1.05903 0.0133547 0)
(1.05987 0.0126352 0)
(1.06035 0.0120128 0)
(1.06047 0.0114703 0)
(1.0602 0.0109925 0)
(1.05954 0.0105637 0)
(1.05849 0.0101726 0)
(1.05706 0.00981159 0)
(1.05528 0.00947538 0)
(1.05316 0.00916013 0)
(1.05073 0.00886288 0)
(1.04803 0.00858136 0)
(1.04508 0.00831373 0)
(1.04191 0.00805847 0)
(1.03856 0.00781429 0)
(1.03504 0.00758006 0)
(1.0314 0.00735474 0)
(1.02764 0.00713742 0)
(1.0238 0.00692722 0)
(1.0199 0.00672336 0)
(1.01596 0.00652506 0)
(1.01199 0.00633162 0)
(1.00801 0.00614235 0)
(1.00404 0.00595654 0)
(1.00009 0.00577362 0)
(0.996178 0.00559273 0)
(0.992305 0.00541355 0)
(0.988488 0.00523467 0)
(0.984733 0.00505656 0)
(0.981053 0.00487611 0)
(0.977451 0.00469617 0)
(0.973939 0.00450898 0)
(0.970522 0.00432326 0)
(0.967205 0.00412042 0)
(0.964006 0.00391991 0)
(0.960915 0.00368509 0)
(0.957979 0.00343856 0)
(0.955151 0.00314061 0)
(0.952546 0.00273241 0)
(0.950046 0.00227703 0)
(0.947817 0.00130746 0)
(0.945573 0.000198417 0)
(0.943125 -0.00227295 0)
(1.00292 0.0256523 0)
(1.03138 0.0299506 0)
(1.0467 0.0217247 0)
(1.04993 0.0186742 0)
(1.05131 0.0170701 0)
(1.05323 0.0153969 0)
(1.05498 0.0141267 0)
(1.05633 0.013248 0)
(1.0574 0.0125509 0)
(1.05827 0.0119518 0)
(1.05895 0.0114332 0)
(1.05941 0.0109812 0)
(1.05965 0.0105802 0)
(1.05966 0.0102184 0)
(1.05943 0.00988746 0)
(1.05896 0.00958158 0)
(1.05825 0.0092964 0)
(1.0573 0.00902854 0)
(1.05614 0.00877536 0)
(1.05476 0.00853475 0)
(1.05319 0.00830498 0)
(1.05143 0.00808463 0)
(1.0495 0.00787246 0)
(1.04742 0.00766742 0)
(1.04521 0.00746856 0)
(1.04288 0.00727501 0)
(1.04044 0.00708601 0)
(1.03792 0.00690083 0)
(1.03532 0.0067188 0)
(1.03267 0.00653929 0)
(1.02997 0.00636165 0)
(1.02724 0.00618538 0)
(1.02449 0.00600966 0)
(1.02172 0.00583424 0)
(1.01896 0.00565776 0)
(1.01621 0.00548072 0)
(1.01349 0.00530014 0)
(1.01079 0.00511864 0)
(1.00813 0.00492895 0)
(1.00551 0.00473877 0)
(1.00295 0.00453135 0)
(1.00046 0.00432243 0)
(0.998029 0.00408117 0)
(0.995695 0.0038202 0)
(0.993439 0.0035118 0)
(0.991317 0.00308371 0)
(0.989278 0.00259933 0)
(0.987366 0.00163612 0)
(0.985374 0.000492563 0)
(0.983004 -0.00175425 0)
(1.0026 0.0236233 0)
(1.02879 0.0288593 0)
(1.04378 0.0212045 0)
(1.04724 0.0182627 0)
(1.04863 0.0168334 0)
(1.05051 0.0152554 0)
(1.05226 0.0140023 0)
(1.05361 0.0131339 0)
(1.05471 0.0124527 0)
(1.05568 0.011868 0)
(1.05653 0.0113624 0)
(1.05726 0.010924 0)
(1.05786 0.010538 0)
(1.05833 0.0101926 0)
(1.05867 0.00987919 0)
(1.05886 0.00959194 0)
(1.05891 0.00932621 0)
(1.05881 0.00907835 0)
(1.05856 0.00884545 0)
(1.05817 0.00862512 0)
(1.05762 0.00841543 0)
(1.05693 0.00821472 0)
(1.05611 0.00802162 0)
(1.05516 0.00783489 0)
(1.05408 0.00765349 0)
(1.05289 0.00747645 0)
(1.0516 0.00730293 0)
(1.05021 0.00713213 0)
(1.04874 0.00696334 0)
(1.04718 0.00679592 0)
(1.04557 0.00662918 0)
(1.04389 0.00646261 0)
(1.04217 0.00629542 0)
(1.04041 0.00612735 0)
(1.03861 0.00595707 0)
(1.0368 0.00578505 0)
(1.03498 0.00560842 0)
(1.03315 0.00542956 0)
(1.03132 0.00524172 0)
(1.0295 0.00505147 0)
(1.0277 0.00484406 0)
(1.02592 0.00463141 0)
(1.02418 0.00438851 0)
(1.02248 0.00411881 0)
(1.02083 0.00380483 0)
(1.01925 0.00336579 0)
(1.01772 0.00286126 0)
(1.0162 0.00191916 0)
(1.01453 0.000772354 0)
(1.01235 -0.00125493 0)
(1.0023 0.0217028 0)
(1.02634 0.0277518 0)
(1.04095 0.0207037 0)
(1.04463 0.0178506 0)
(1.04604 0.0165818 0)
(1.04789 0.0151079 0)
(1.04964 0.0138763 0)
(1.05098 0.0130175 0)
(1.05208 0.0123504 0)
(1.05305 0.0117776 0)
(1.05393 0.0112808 0)
(1.05472 0.0108504 0)
(1.05544 0.0104726 0)
(1.05607 0.0101359 0)
(1.05663 0.00983198 0)
(1.05711 0.00955498 0)
(1.0575 0.00930029 0)
(1.05781 0.00906422 0)
(1.05803 0.00884376 0)
(1.05816 0.00863641 0)
(1.05819 0.00844009 0)
(1.05812 0.00825302 0)
(1.05797 0.00807366 0)
(1.05772 0.00790067 0)
(1.05738 0.00773286 0)
(1.05695 0.00756915 0)
(1.05643 0.00740859 0)
(1.05584 0.0072503 0)
(1.05516 0.00709347 0)
(1.05442 0.00693739 0)
(1.05361 0.0067813 0)
(1.05275 0.00662466 0)
(1.05183 0.00646662 0)
(1.05086 0.00630691 0)
(1.04985 0.00614417 0)
(1.04881 0.00597881 0)
(1.04774 0.00580808 0)
(1.04665 0.00563403 0)
(1.04553 0.00545053 0)
(1.04441 0.00526286 0)
(1.04328 0.00505841 0)
(1.04216 0.00484532 0)
(1.04104 0.00460405 0)
(1.03993 0.00433026 0)
(1.03885 0.00401441 0)
(1.03778 0.00357211 0)
(1.03673 0.00305595 0)
(1.03561 0.00214689 0)
(1.03428 0.00102391 0)
(1.03236 -0.000790669 0)
(1.00203 0.0198915 0)
(1.02402 0.0266313 0)
(1.03822 0.020219 0)
(1.04211 0.0174398 0)
(1.04354 0.0163155 0)
(1.04536 0.0149529 0)
(1.04711 0.0137483 0)
(1.04846 0.0128991 0)
(1.04954 0.0122459 0)
(1.05049 0.011685 0)
(1.05137 0.0111961 0)
(1.05216 0.0107717 0)
(1.0529 0.0103995 0)
(1.05357 0.0100681 0)
(1.05419 0.00976955 0)
(1.05477 0.00949815 0)
(1.05529 0.00924944 0)
(1.05576 0.00901981 0)
(1.05618 0.00880629 0)
(1.05654 0.00860636 0)
(1.05685 0.00841792 0)
(1.0571 0.00823914 0)
(1.05729 0.00806841 0)
(1.05743 0.00790434 0)
(1.0575 0.00774564 0)
(1.05751 0.00759117 0)
(1.05746 0.00743987 0)
(1.05735 0.0072908 0)
(1.05719 0.00714305 0)
(1.05697 0.00699583 0)
(1.05671 0.00684834 0)
(1.05639 0.00669996 0)
(1.05602 0.00654978 0)
(1.05562 0.00639748 0)
(1.05517 0.00624171 0)
(1.05469 0.00608276 0)
(1.05418 0.00591801 0)
(1.05364 0.00574914 0)
(1.05308 0.00557064 0)
(1.0525 0.00538655 0)
(1.05191 0.00518627 0)
(1.0513 0.00497453 0)
(1.05068 0.00473654 0)
(1.05006 0.00446189 0)
(1.04945 0.00414657 0)
(1.04881 0.00370699 0)
(1.04817 0.00318681 0)
(1.0474 0.00231956 0)
(1.04638 0.00124188 0)
(1.04471 -0.00036725 0)
(1.00179 0.0181897 0)
(1.02183 0.0255016 0)
(1.03558 0.0197467 0)
(1.03967 0.0170321 0)
(1.04114 0.0160353 0)
(1.04292 0.0147895 0)
(1.04467 0.0136177 0)
(1.04602 0.0127784 0)
(1.04709 0.0121392 0)
(1.04803 0.0115907 0)
(1.04889 0.01111 0)
(1.04968 0.0106914 0)
(1.0504 0.0103239 0)
(1.05107 0.00999672 0)
(1.05171 0.00970199 0)
(1.0523 0.00943419 0)
(1.05285 0.00918906 0)
(1.05337 0.00896311 0)
(1.05386 0.00875345 0)
(1.05431 0.00855763 0)
(1.05473 0.00837358 0)
(1.05512 0.00819947 0)
(1.05546 0.00803372 0)
(1.05577 0.00787488 0)
(1.05604 0.00772166 0)
(1.05628 0.00757288 0)
(1.05648 0.00742744 0)
(1.05663 0.00728434 0)
(1.05675 0.00714262 0)
(1.05684 0.00700144 0)
(1.05688 0.00685993 0)
(1.05689 0.00671744 0)
(1.05687 0.00657301 0)
(1.05682 0.00642627 0)
(1.05673 0.00627586 0)
(1.05662 0.00612196 0)
(1.05648 0.00596211 0)
(1.05632 0.00579759 0)
(1.05613 0.00562355 0)
(1.05593 0.00544277 0)
(1.05571 0.00524659 0)
(1.05547 0.00503675 0)
(1.05522 0.00480237 0)
(1.05496 0.00452879 0)
(1.05469 0.00421528 0)
(1.05438 0.00378266 0)
(1.05404 0.00326489 0)
(1.05354 0.00244533 0)
(1.05276 0.00142893 0)
(1.05132 1.36525e-05 0)
(1.00157 0.016597 0)
(1.01978 0.0243667 0)
(1.03304 0.0192828 0)
(1.03732 0.0166292 0)
(1.03882 0.0157422 0)
(1.04057 0.014617 0)
(1.04231 0.0134843 0)
(1.04367 0.0126555 0)
(1.04473 0.0120302 0)
(1.04566 0.0114947 0)
(1.04651 0.0110226 0)
(1.04728 0.0106099 0)
(1.04799 0.0102472 0)
(1.04866 0.00992404 0)
(1.04928 0.0096327 0)
(1.04986 0.00936786 0)
(1.05042 0.00912543 0)
(1.05095 0.00890203 0)
(1.05145 0.00869487 0)
(1.05192 0.00850158 0)
(1.05237 0.00832012 0)
(1.0528 0.00814873 0)
(1.0532 0.00798581 0)
(1.05358 0.00782997 0)
(1.05394 0.00767991 0)
(1.05427 0.00753444 0)
(1.05457 0.00739244 0)
(1.05485 0.00725289 0)
(1.05511 0.0071148 0)
(1.05534 0.00697733 0)
(1.05555 0.00683954 0)
(1.05573 0.00670077 0)
(1.05589 0.00656003 0)
(1.05603 0.00641691 0)
(1.05615 0.00627008 0)
(1.05625 0.00611959 0)
(1.05633 0.00596317 0)
(1.05639 0.00580169 0)
(1.05644 0.00563097 0)
(1.05647 0.00545266 0)
(1.05649 0.00525977 0)
(1.05649 0.00505165 0)
(1.05648 0.00482042 0)
(1.05645 0.00454891 0)
(1.05641 0.00423782 0)
(1.05632 0.00381499 0)
(1.05617 0.00330497 0)
(1.05585 0.0025366 0)
(1.05524 0.00159248 0)
(1.05397 0.00035917 0)
(1.00137 0.0151127 0)
(1.01788 0.0232306 0)
(1.03061 0.0188232 0)
(1.03505 0.0162327 0)
(1.03661 0.0154378 0)
(1.03831 0.0144349 0)
(1.04004 0.0133475 0)
(1.0414 0.0125303 0)
(1.04247 0.0119185 0)
(1.04338 0.0113966 0)
(1.04422 0.0109339 0)
(1.04498 0.0105274 0)
(1.04568 0.0101696 0)
(1.04633 0.00985052 0)
(1.04694 0.00956258 0)
(1.04751 0.0093006 0)
(1.04806 0.00906063 0)
(1.04858 0.00883945 0)
(1.04908 0.00863432 0)
(1.04955 0.00844295 0)
(1.05 0.00826335 0)
(1.05044 0.00809379 0)
(1.05085 0.00793273 0)
(1.05125 0.00777877 0)
(1.05163 0.00763063 0)
(1.05199 0.00748714 0)
(1.05233 0.00734717 0)
(1.05266 0.00720971 0)
(1.05297 0.00707376 0)
(1.05326 0.00693844 0)
(1.05354 0.00680282 0)
(1.0538 0.00666621 0)
(1.05405 0.00652763 0)
(1.05429 0.00638662 0)
(1.05451 0.00624191 0)
(1.05471 0.00609342 0)
(1.05491 0.0059391 0)
(1.05509 0.00577945 0)
(1.05526 0.00561088 0)
(1.05542 0.0054341 0)
(1.05556 0.00524352 0)
(1.0557 0.0050367 0)
(1.05583 0.00480792 0)
(1.05593 0.00453898 0)
(1.05602 0.00423067 0)
(1.05606 0.0038195 0)
(1.05603 0.00332171 0)
(1.05581 0.00260644 0)
(1.0553 0.00174131 0)
(1.05415 0.000680435 0)
(1.00119 0.0137349 0)
(1.0161 0.0220973 0)
(1.02829 0.0183644 0)
(1.03288 0.0158437 0)
(1.03448 0.0151238 0)
(1.03615 0.0142426 0)
(1.03786 0.0132071 0)
(1.03923 0.0124028 0)
(1.04029 0.0118043 0)
(1.0412 0.0112965 0)
(1.04202 0.0108436 0)
(1.04277 0.0104437 0)
(1.04346 0.010091 0)
(1.0441 0.00977615 0)
(1.0447 0.00949172 0)
(1.04526 0.00923267 0)
(1.04579 0.0089952 0)
(1.0463 0.00877619 0)
(1.04679 0.008573 0)
(1.04725 0.00838339 0)
(1.0477 0.00820542 0)
(1.04813 0.00803739 0)
(1.04854 0.00787779 0)
(1.04893 0.00772526 0)
(1.04931 0.00757852 0)
(1.04968 0.0074364 0)
(1.05003 0.00729781 0)
(1.05037 0.0071617 0)
(1.05069 0.00702708 0)
(1.05101 0.00689307 0)
(1.05131 0.00675873 0)
(1.0516 0.00662336 0)
(1.05188 0.00648598 0)
(1.05215 0.00634613 0)
(1.05241 0.00620257 0)
(1.05266 0.00605513 0)
(1.05291 0.00590197 0)
(1.05314 0.00574325 0)
(1.05337 0.00557594 0)
(1.05359 0.00539995 0)
(1.0538 0.00521086 0)
(1.05401 0.00500501 0)
(1.0542 0.00477806 0)
(1.05437 0.00451204 0)
(1.05453 0.00420697 0)
(1.05463 0.00380879 0)
(1.05465 0.00332707 0)
(1.05448 0.00266572 0)
(1.05401 0.00188324 0)
(1.05295 0.000983473 0)
(1.00104 0.0124616 0)
(1.01446 0.0209711 0)
(1.02608 0.0179029 0)
(1.03079 0.015463 0)
(1.03245 0.0148022 0)
(1.03408 0.0140395 0)
(1.03577 0.0130624 0)
(1.03714 0.0122732 0)
(1.0382 0.0116876 0)
(1.0391 0.011194 0)
(1.03991 0.0107517 0)
(1.04065 0.0103588 0)
(1.04133 0.0100113 0)
(1.04196 0.00970086 0)
(1.04255 0.00942009 0)
(1.0431 0.00916407 0)
(1.04362 0.00892918 0)
(1.04412 0.0087124 0)
(1.0446 0.00851117 0)
(1.04505 0.00832332 0)
(1.04549 0.00814695 0)
(1.0459 0.0079804 0)
(1.04631 0.00782217 0)
(1.04669 0.00767092 0)
(1.04707 0.0075254 0)
(1.04743 0.00738445 0)
(1.04777 0.00724696 0)
(1.04811 0.0071119 0)
(1.04843 0.00697827 0)
(1.04875 0.00684518 0)
(1.04905 0.00671169 0)
(1.04935 0.0065771 0)
(1.04964 0.00644044 0)
(1.04992 0.00630122 0)
(1.05019 0.00615828 0)
(1.05046 0.00601135 0)
(1.05072 0.00585878 0)
(1.05097 0.00570046 0)
(1.05122 0.00553384 0)
(1.05147 0.00535823 0)
(1.0517 0.00517009 0)
(1.05193 0.00496504 0)
(1.05215 0.00473959 0)
(1.05235 0.00447686 0)
(1.05253 0.00417571 0)
(1.05265 0.00379163 0)
(1.05269 0.00332932 0)
(1.05253 0.00272206 0)
(1.05208 0.00202358 0)
(1.05107 0.00127418 0)
(1.0009 0.0112898 0)
(1.01295 0.0198565 0)
(1.02398 0.0174355 0)
(1.02878 0.0150911 0)
(1.03051 0.0144749 0)
(1.0321 0.0138256 0)
(1.03377 0.0129129 0)
(1.03515 0.0121413 0)
(1.0362 0.0115682 0)
(1.03709 0.0110891 0)
(1.0379 0.0106579 0)
(1.03863 0.0102724 0)
(1.0393 0.0099305 0)
(1.03992 0.00962457 0)
(1.04049 0.0093476 0)
(1.04104 0.00909475 0)
(1.04155 0.00886252 0)
(1.04204 0.00864805 0)
(1.0425 0.00844885 0)
(1.04295 0.00826282 0)
(1.04337 0.00808808 0)
(1.04378 0.00792302 0)
(1.04417 0.00776617 0)
(1.04455 0.0076162 0)
(1.04491 0.00747187 0)
(1.04527 0.00733203 0)
(1.04561 0.00719557 0)
(1.04593 0.00706147 0)
(1.04625 0.0069287 0)
(1.04656 0.00679639 0)
(1.04686 0.00666359 0)
(1.04715 0.00652958 0)
(1.04744 0.00639343 0)
(1.04772 0.0062546 0)
(1.04799 0.00611203 0)
(1.04826 0.00596535 0)
(1.04852 0.00581309 0)
(1.04878 0.00565491 0)
(1.04903 0.00548868 0)
(1.04928 0.00531327 0)
(1.04952 0.0051258 0)
(1.04975 0.00492159 0)
(1.04998 0.00469758 0)
(1.05018 0.00443858 0)
(1.05036 0.00414228 0)
(1.05048 0.00377326 0)
(1.05051 0.00333326 0)
(1.05035 0.00277986 0)
(1.04991 0.00216499 0)
(1.04895 0.0015555 0)
(1.00078 0.010216 0)
(1.01157 0.0187579 0)
(1.02199 0.0169597 0)
(1.02686 0.014728 0)
(1.02867 0.0141442 0)
(1.03022 0.0136008 0)
(1.03186 0.0127579 0)
(1.03324 0.0120071 0)
(1.0343 0.0114462 0)
(1.03518 0.0109817 0)
(1.03597 0.0105623 0)
(1.03669 0.0101846 0)
(1.03736 0.00984841 0)
(1.03797 0.00954719 0)
(1.03853 0.00927417 0)
(1.03907 0.00902461 0)
(1.03957 0.00879516 0)
(1.04005 0.00858308 0)
(1.0405 0.00838599 0)
(1.04094 0.00820183 0)
(1.04135 0.00802879 0)
(1.04175 0.00786526 0)
(1.04214 0.00770983 0)
(1.04251 0.00756117 0)
(1.04286 0.00741806 0)
(1.0432 0.00727934 0)
(1.04354 0.00714392 0)
(1.04386 0.00701076 0)
(1.04417 0.00687884 0)
(1.04447 0.00674726 0)
(1.04476 0.0066151 0)
(1.04504 0.00648161 0)
(1.04532 0.00634589 0)
(1.0456 0.00620738 0)
(1.04586 0.00606507 0)
(1.04612 0.00591853 0)
(1.04638 0.00576646 0)
(1.04664 0.00560834 0)
(1.04689 0.00544236 0)
(1.04713 0.00526715 0)
(1.04737 0.00508026 0)
(1.0476 0.00487704 0)
(1.04782 0.00465463 0)
(1.04802 0.00439986 0)
(1.04819 0.00410947 0)
(1.0483 0.00375642 0)
(1.04832 0.00334114 0)
(1.04814 0.00284103 0)
(1.0477 0.0023081 0)
(1.04679 0.00182811 0)
(1.00067 0.0092361 0)
(1.01031 0.0176796 0)
(1.02012 0.0164731 0)
(1.02503 0.0143734 0)
(1.02691 0.0138119 0)
(1.02843 0.0133654 0)
(1.03004 0.0125968 0)
(1.03141 0.0118705 0)
(1.03248 0.0113217 0)
(1.03335 0.0108716 0)
(1.03414 0.0104645 0)
(1.03485 0.0100952 0)
(1.0355 0.00976498 0)
(1.03611 0.00946864 0)
(1.03667 0.00919972 0)
(1.03719 0.00895358 0)
(1.03768 0.00872702 0)
(1.03815 0.00851743 0)
(1.0386 0.00832252 0)
(1.03903 0.0081403 0)
(1.03943 0.00796901 0)
(1.03982 0.00780709 0)
(1.0402 0.00765312 0)
(1.04056 0.00750581 0)
(1.04091 0.00736395 0)
(1.04124 0.00722639 0)
(1.04156 0.00709204 0)
(1.04188 0.00695983 0)
(1.04218 0.00682877 0)
(1.04247 0.00669794 0)
(1.04276 0.00656641 0)
(1.04303 0.00643343 0)
(1.0433 0.00629813 0)
(1.04357 0.00615991 0)
(1.04383 0.00601783 0)
(1.04409 0.00587141 0)
(1.04434 0.00571949 0)
(1.04458 0.00556142 0)
(1.04483 0.00539567 0)
(1.04507 0.0052207 0)
(1.0453 0.00503441 0)
(1.04552 0.00483242 0)
(1.04573 0.00461191 0)
(1.04593 0.00436188 0)
(1.04608 0.00407852 0)
(1.04618 0.00374222 0)
(1.04618 0.00335356 0)
(1.046 0.00290588 0)
(1.04556 0.00245218 0)
(1.04469 0.00209129 0)
(1.00058 0.0083455 0)
(1.00916 0.016626 0)
(1.01837 0.0159741 0)
(1.02328 0.0140269 0)
(1.02524 0.0134801 0)
(1.02673 0.01312 0)
(1.02831 0.0124289 0)
(1.02968 0.0117311 0)
(1.03074 0.0111947 0)
(1.03162 0.0107588 0)
(1.03239 0.0103645 0)
(1.0331 0.0100041 0)
(1.03374 0.00968011 0)
(1.03434 0.00938881 0)
(1.03489 0.00912415 0)
(1.0354 0.00888158 0)
(1.03589 0.00865802 0)
(1.03635 0.00845101 0)
(1.03679 0.00825837 0)
(1.03721 0.00807817 0)
(1.03761 0.0079087 0)
(1.03799 0.00774843 0)
(1.03836 0.00759598 0)
(1.03871 0.00745007 0)
(1.03905 0.00730951 0)
(1.03937 0.00717315 0)
(1.03969 0.00703989 0)
(1.03999 0.00690868 0)
(1.04029 0.00677851 0)
(1.04057 0.00664844 0)
(1.04085 0.00651756 0)
(1.04112 0.0063851 0)
(1.04138 0.00625022 0)
(1.04164 0.00611228 0)
(1.0419 0.00597044 0)
(1.04215 0.00582414 0)
(1.04239 0.00567236 0)
(1.04263 0.00551438 0)
(1.04287 0.00534886 0)
(1.0431 0.00517424 0)
(1.04332 0.00498864 0)
(1.04354 0.0047881 0)
(1.04374 0.00456987 0)
(1.04392 0.00432508 0)
(1.04407 0.0040498 0)
(1.04415 0.00373096 0)
(1.04414 0.00337026 0)
(1.04395 0.00297375 0)
(1.04352 0.00259576 0)
(1.0427 0.00234351 0)
(1.0005 0.00753917 0)
(1.00813 0.0156015 0)
(1.01672 0.0154617 0)
(1.02161 0.0136873 0)
(1.02365 0.0131505 0)
(1.02512 0.0128653 0)
(1.02666 0.0122538 0)
(1.02802 0.0115888 0)
(1.02909 0.0110653 0)
(1.02996 0.0106431 0)
(1.03073 0.0102621 0)
(1.03143 0.00991111 0)
(1.03207 0.00959369 0)