/*--------------------------------*- C++ -*----------------------------------*\
  =========                 |
  \\      /  F ield         | OpenFOAM: The Open Source CFD Toolbox
   \\    /   O peration     | Website:  https://openfoam.org
    \\  /    A nd           | Version:  7
     \\/     M anipulation  |
\*---------------------------------------------------------------------------*/
FoamFile
{
    version     2.0;
    format      ascii;
    class       volVectorField;
    location    "0.14";
    object      ddtCorrDdt0(U);
}
// * * * * * * * * * * * * * * * * * * * * * * * * * * * * * * * * * * * * * //

dimensions      [0 1 -2 0 0 0 0];

internalField   nonuniform List<vector> 
70000
(
(7.2109e-05 1.41346e-07 0)
(-3.78291e-05 7.83117e-06 0)
(-0.000920427 1.36235e-05 0)
(-0.00280963 1.14855e-05 0)
(-0.00570844 1.42106e-05 0)
(-0.00974258 1.82949e-05 0)
(-0.0149382 2.22147e-05 0)
(-0.0212268 2.74322e-05 0)
(-0.0285015 3.31314e-05 0)
(-0.0366437 3.85641e-05 0)
(-0.0455156 4.34247e-05 0)
(-0.0549982 4.71955e-05 0)
(-0.065016 5.07972e-05 0)
(-0.0755205 5.39585e-05 0)
(-0.0865019 5.77149e-05 0)
(-0.0979205 6.11411e-05 0)
(-0.109772 6.46579e-05 0)
(-0.122008 6.78919e-05 0)
(-0.134625 6.99501e-05 0)
(-0.147612 7.22529e-05 0)
(-0.160971 7.29454e-05 0)
(-0.174753 7.39612e-05 0)
(-0.188985 7.44615e-05 0)
(-0.203714 7.46037e-05 0)
(-0.219008 7.46151e-05 0)
(-0.234883 7.44717e-05 0)
(-0.251402 7.25527e-05 0)
(-0.268596 7.09262e-05 0)
(-0.286471 6.59846e-05 0)
(-0.305071 6.01717e-05 0)
(-0.324354 5.05673e-05 0)
(-0.344292 3.72828e-05 0)
(-0.364768 1.92051e-05 0)
(-0.385695 -3.92074e-06 0)
(-0.406779 -3.57564e-05 0)
(-0.427938 -7.62117e-05 0)
(-0.448531 -0.000125069 0)
(-0.468465 -0.000195267 0)
(-0.486736 -0.000261486 0)
(-0.502975 -0.000376211 0)
(-0.51598 -0.000456014 0)
(-0.524988 -0.000620737 0)
(-0.52781 -0.000722053 0)
(-0.52651 -0.000864457 0)
(-0.509725 -0.00105537 0)
(-0.501922 -0.000945382 0)
(-0.44575 -0.00128981 0)
(-0.45459 -0.000769291 0)
(-0.322193 -0.00129015 0)
(-0.358792 0.00988559 0)
(0.000141812 4.40604e-06 0)
(-0.000117192 7.38658e-05 0)
(-0.00254607 0.00019379 0)
(-0.00804054 0.000325244 0)
(-0.0166152 0.000466365 0)
(-0.0286223 0.000617413 0)
(-0.0442534 0.000769125 0)
(-0.0633372 0.00091376 0)
(-0.0855158 0.00104652 0)
(-0.110378 0.00116568 0)
(-0.137506 0.00127123 0)
(-0.166558 0.00136514 0)
(-0.19731 0.00145421 0)
(-0.229621 0.00154083 0)
(-0.263405 0.0016277 0)
(-0.298548 0.00171287 0)
(-0.334986 0.00179765 0)
(-0.372631 0.00188185 0)
(-0.411476 0.0019659 0)
(-0.451545 0.00205445 0)
(-0.492909 0.00214683 0)
(-0.535723 0.00224895 0)
(-0.580136 0.00236092 0)
(-0.626331 0.00248413 0)
(-0.674533 0.00262062 0)
(-0.724909 0.00276901 0)
(-0.77769 0.00292807 0)
(-0.833077 0.00309968 0)
(-0.891239 0.0032769 0)
(-0.952393 0.00346269 0)
(-1.01664 0.00364869 0)
(-1.08412 0.00382917 0)
(-1.15474 0.00400003 0)
(-1.22861 0.00414698 0)
(-1.30521 0.00426222 0)
(-1.38474 0.00431753 0)
(-1.46581 0.00431543 0)
(-1.54869 0.00417793 0)
(-1.631 0.00397159 0)
(-1.71237 0.0034813 0)
(-1.78977 0.00296047 0)
(-1.8616 0.00188239 0)
(-1.92198 0.000937034 0)
(-1.97584 -0.000998492 0)
(-1.99203 -0.0022959 0)
(-2.03377 -0.00545469 0)
(-1.944 -0.00607976 0)
(-2.02093 -0.0113047 0)
(-1.72258 -0.0108153 0)
(-1.88336 -0.0099442 0)
(0.000165269 2.86169e-06 0)
(0.000217355 0.0001611 0)
(-0.00220669 0.000478644 0)
(-0.00909783 0.000873929 0)
(-0.0209595 0.00130856 0)
(-0.0382954 0.00177918 0)
(-0.0615362 0.00226041 0)
(-0.0906095 0.00271895 0)
(-0.12503 0.00313664 0)
(-0.164141 0.00350929 0)
(-0.207252 0.00384054 0)
(-0.253793 0.00413864 0)
(-0.303359 0.00442016 0)
(-0.355672 0.00469202 0)
(-0.410518 0.00495918 0)
(-0.467666 0.00521961 0)
(-0.526951 0.00547666 0)
(-0.588224 0.00573467 0)
(-0.651468 0.00599668 0)
(-0.716733 0.00627602 0)
(-0.784166 0.00657453 0)
(-0.85402 0.00690553 0)
(-0.926562 0.00727147 0)
(-1.00211 0.00767774 0)
(-1.08102 0.00812844 0)
(-1.16364 0.00862541 0)
(-1.25037 0.0091663 0)
(-1.3416 0.00975813 0)
(-1.43772 0.0103897 0)
(-1.53917 0.0110675 0)
(-1.64626 0.011779 0)
(-1.75945 0.0125112 0)
(-1.8788 0.013257 0)
(-2.00481 0.0139864 0)
(-2.13701 0.0146865 0)
(-2.27611 0.0152898 0)
(-2.42055 0.0158009 0)
(-2.57117 0.0160501 0)
(-2.72518 0.0161428 0)
(-2.88253 0.0156481 0)
(-3.03969 0.0150018 0)
(-3.19471 0.013087 0)
(-3.33996 0.011395 0)
(-3.48282 0.00691343 0)
(-3.57829 0.00446658 0)
(-3.71593 -0.00464024 0)
(-3.67468 -0.00556595 0)
(-3.853 -0.0216734 0)
(-3.55298 -0.0205263 0)
(-3.77968 -0.0406506 0)
(0.000113265 -9.51246e-06 0)
(0.000500023 0.000217321 0)
(-0.000864493 0.000751988 0)
(-0.00668398 0.0014756 0)
(-0.0184535 0.00230602 0)
(-0.0371495 0.00322973 0)
(-0.0635146 0.00420109 0)
(-0.0977563 0.00514987 0)
(-0.139515 0.00602816 0)
(-0.188084 0.00681734 0)
(-0.242608 0.00752172 0)
(-0.30232 0.00815948 0)
(-0.366621 0.00875772 0)
(-0.435051 0.00932945 0)
(-0.507224 0.00988223 0)
(-0.582736 0.0104154 0)
(-0.661272 0.0109357 0)
(-0.742559 0.0114562 0)
(-0.826516 0.0119861 0)
(-0.913187 0.0125515 0)
(-1.00275 0.0131601 0)
(-1.09553 0.0138347 0)
(-1.19189 0.014582 0)
(-1.29222 0.0154135 0)
(-1.39703 0.0163364 0)
(-1.50676 0.0173588 0)
(-1.62195 0.0184793 0)
(-1.74316 0.0197125 0)
(-1.87094 0.0210468 0)
(-2.00595 0.0224936 0)
(-2.14872 0.0240409 0)
(-2.29997 0.0256693 0)
(-2.46001 0.027375 0)
(-2.6297 0.0291095 0)
(-2.80879 0.0308643 0)
(-2.99849 0.0325255 0)
(-3.19743 0.0341077 0)
(-3.40698 0.0353443 0)
(-3.62471 0.0363708 0)
(-3.85074 0.0365435 0)
(-4.08236 0.0364595 0)
(-4.31721 0.0343436 0)
(-4.54817 0.0326566 0)
(-4.78353 0.0258837 0)
(-4.97399 0.0231547 0)
(-5.21581 0.00748134 0)
(-5.27896 0.00643743 0)
(-5.54962 -0.0208275 0)
(-5.39821 -0.0243708 0)
(-5.61439 -0.0544745 0)
(5.59378e-05 -2.52313e-05 0)
(0.000536885 0.000229735 0)
(0.000279263 0.000935239 0)
(-0.00322536 0.00198464 0)
(-0.0122002 0.00325601 0)
(-0.0283469 0.00471216 0)
(-0.0529653 0.0062841 0)
(-0.0867541 0.00786547 0)
(-0.129752 0.00936762 0)
(-0.181492 0.0107428 0)
(-0.241192 0.0119852 0)
(-0.308022 0.0131167 0)
(-0.381254 0.0141744 0)
(-0.460262 0.0151772 0)
(-0.544482 0.0161342 0)
(-0.633309 0.0170464 0)
(-0.726224 0.0179242 0)
(-0.822756 0.0187933 0)
(-0.922676 0.0196733 0)
(-1.02594 0.020608 0)
(-1.13269 0.0216147 0)
(-1.24328 0.0227288 0)
(-1.35812 0.023963 0)
(-1.47767 0.025336 0)
(-1.6025 0.0268593 0)
(-1.73312 0.0285489 0)
(-1.87016 0.0304056 0)
(-2.01426 0.0324547 0)
(-2.16609 0.0346869 0)
(-2.32643 0.0371212 0)
(-2.49595 0.0397508 0)
(-2.67557 0.0425531 0)
(-2.86578 0.0455341 0)
(-3.06773 0.0486289 0)
(-3.28141 0.0518387 0)
(-3.50836 0.0550088 0)
(-3.74764 0.0581645 0)
(-4.00081 0.0609586 0)
(-4.26633 0.063541 0)
(-4.54406 0.0650847 0)
(-4.83296 0.0663311 0)
(-5.12975 0.064835 0)
(-5.42997 0.0640877 0)
(-5.73937 0.0559562 0)
(-6.01611 0.0537752 0)
(-6.33914 0.0331651 0)
(-6.52474 0.0309365 0)
(-6.85241 -0.00265184 0)
(-6.91036 -0.0175855 0)
(-7.11443 -0.0472337 0)
(4.15146e-05 -3.77848e-05 0)
(0.000440878 0.000216585 0)
(0.000786412 0.00101515 0)
(-0.00059182 0.00231214 0)
(-0.00589084 0.00398572 0)
(-0.0172226 0.0059769 0)
(-0.0364399 0.00818912 0)
(-0.0648751 0.0104827 0)
(-0.103207 0.0127256 0)
(-0.151519 0.0148315 0)
(-0.209415 0.0167721 0)
(-0.276264 0.0185612 0)
(-0.351388 0.0202392 0)
(-0.434121 0.0218262 0)
(-0.523802 0.0233298 0)
(-0.619674 0.0247489 0)
(-0.721015 0.0260958 0)
(-0.827111 0.0274093 0)
(-0.937488 0.028723 0)
(-1.05191 0.0301041 0)
(-1.17039 0.0315851 0)
(-1.29323 0.0332186 0)
(-1.42083 0.035026 0)
(-1.55369 0.0370348 0)
(-1.69241 0.0392606 0)
(-1.83755 0.0417278 0)
(-1.98977 0.0444404 0)
(-2.14973 0.0474345 0)
(-2.31811 0.0507062 0)
(-2.49576 0.0542832 0)
(-2.68336 0.0581683 0)
(-2.88195 0.0623401 0)
(-3.09211 0.066817 0)
(-3.31512 0.0715231 0)
(-3.55118 0.0764714 0)
(-3.80193 0.0814797 0)
(-4.06695 0.086576 0)
(-4.34764 0.0913606 0)
(-4.64356 0.0959765 0)
(-4.95394 0.0994562 0)
(-5.27974 0.102653 0)
(-5.6161 0.102529 0)
(-5.96293 0.103443 0)
(-6.31945 0.0951702 0)
(-6.66109 0.0938446 0)
(-7.03184 0.0710557 0)
(-7.32367 0.066069 0)
(-7.67967 0.0314501 0)
(-7.91112 0.00394933 0)
(-8.15379 -0.0253654 0)
(5.971e-05 -4.70263e-05 0)
(0.000362636 0.000196373 0)
(0.00086256 0.00102643 0)
(0.000730661 0.00246768 0)
(-0.00159166 0.00443303 0)
(-0.0080432 0.00687044 0)
(-0.0206179 0.00967108 0)
(-0.0410764 0.0126676 0)
(-0.0707312 0.0156898 0)
(-0.110373 0.0186104 0)
(-0.160251 0.0213691 0)
(-0.220231 0.0239599 0)
(-0.289953 0.0264152 0)
(-0.368943 0.0287492 0)
(-0.45664 0.0309614 0)
(-0.552305 0.0330419 0)
(-0.655128 0.0349972 0)
(-0.764196 0.0368744 0)
(-0.878763 0.0387206 0)
(-0.998302 0.04063 0)
(-1.12259 0.0426576 0)
(-1.25175 0.0448795 0)
(-1.38612 0.0473318 0)
(-1.52619 0.0500533 0)
(-1.67257 0.0530647 0)
(-1.82584 0.0563982 0)
(-1.98666 0.0600596 0)
(-2.15571 0.064095 0)
(-2.33362 0.0685064 0)
(-2.5212 0.0733304 0)
(-2.71911 0.0785816 0)
(-2.92835 0.0842426 0)
(-3.1495 0.090346 0)
(-3.38384 0.0968125 0)
(-3.63171 0.103664 0)
(-3.89463 0.110708 0)
(-4.17266 0.117963 0)
(-4.46685 0.125008 0)
(-4.77777 0.131952 0)
(-5.10385 0.137744 0)
(-5.448 0.143278 0)
(-5.80332 0.145111 0)
(-6.1749 0.148068 0)
(-6.55346 0.140818 0)
(-6.93437 0.140266 0)
(-7.32539 0.11779 0)
(-7.68664 0.109342 0)
(-8.05873 0.0762308 0)
(-8.39039 0.0400797 0)
(-8.6955 0.00865516 0)
(7.99415e-05 -5.59923e-05 0)
(0.00035479 0.000177116 0)
(0.00079726 0.00100817 0)
(0.0011514 0.00251391 0)
(0.000535983 0.00465008 0)
(-0.00240368 0.00739298 0)
(-0.00932126 0.0106471 0)
(-0.0219429 0.0142381 0)
(-0.0418774 0.0179743 0)
(-0.0704588 0.0216965 0)
(-0.108598 0.0253111 0)
(-0.156795 0.0287837 0)
(-0.215222 0.032129 0)
(-0.283831 0.0353477 0)
(-0.362413 0.0384239 0)
(-0.450501 0.0413306 0)
(-0.547435 0.0440569 0)
(-0.652291 0.0466456 0)
(-0.764145 0.0491495 0)
(-0.882185 0.0516873 0)
(-1.00587 0.0543403 0)
(-1.13506 0.0572165 0)
(-1.26991 0.0603749 0)
(-1.41081 0.0638721 0)
(-1.55837 0.0677374 0)
(-1.71319 0.0720101 0)
(-1.87595 0.0766973 0)
(-2.0473 0.0818514 0)
(-2.22784 0.0874784 0)
(-2.41832 0.0936223 0)
(-2.6193 0.100309 0)
(-2.83166 0.107525 0)
(-3.05594 0.115319 0)
(-3.29323 0.123614 0)
(-3.54396 0.132438 0)
(-3.80939 0.141602 0)
(-4.08993 0.151105 0)
(-4.38617 0.160532 0)
(-4.69947 0.169935 0)
(-5.0275 0.178235 0)
(-5.37472 0.186279 0)
(-5.73249 0.190449 0)
(-6.11009 0.195573 0)
(-6.49159 0.190195 0)
(-6.88693 0.19032 0)
(-7.28041 0.16963 0)
(-7.67191 0.158151 0)
(-8.05237 0.126907 0)
(-8.42601 0.0865738 0)
(-8.77657 0.0535813 0)
(8.93753e-05 -6.66581e-05 0)
(0.000383514 0.000158758 0)
(0.000778486 0.000984806 0)
(0.00119707 0.00251128 0)
(0.00127489 0.00473022 0)
(0.000229828 0.00764808 0)
(-0.00303348 0.011196 0)
(-0.00981452 0.0152143 0)
(-0.0215799 0.0195129 0)
(-0.0398109 0.0239205 0)
(-0.0658052 0.0283208 0)
(-0.100569 0.0326528 0)
(-0.144804 0.0369106 0)
(-0.198972 0.0410772 0)
(-0.263363 0.0451188 0)
(-0.337996 0.0489849 0)
(-0.422619 0.0526355 0)
(-0.51657 0.0560929 0)
(-0.618975 0.0593988 0)
(-0.728881 0.0626849 0)
(-0.84547 0.0660558 0)
(-0.968284 0.069655 0)
(-1.09721 0.073574 0)
(-1.2325 0.0778963 0)
(-1.37466 0.0826672 0)
(-1.52431 0.0879363 0)
(-1.68214 0.0937113 0)
(-1.84883 0.100048 0)
(-2.02497 0.106953 0)
(-2.21123 0.114474 0)
(-2.4081 0.122642 0)
(-2.6163 0.131452 0)
(-2.83626 0.14096 0)
(-3.06886 0.1511 0)
(-3.31448 0.161898 0)
(-3.57404 0.173185 0)
(-3.84816 0.184928 0)
(-4.13695 0.196743 0)
(-4.44224 0.208604 0)
(-4.76121 0.219456 0)
(-5.09906 0.230024 0)
(-5.44652 0.236699 0)
(-5.81465 0.243987 0)
(-6.18523 0.240922 0)
(-6.57407 0.241759 0)
(-6.95736 0.223444 0)
(-7.34917 0.209809 0)
(-7.72654 0.180191 0)
(-8.10783 0.138688 0)
(-8.47558 0.106186 0)
(9.08137e-05 -7.93148e-05 0)
(0.000415118 0.000139306 0)
(0.000811273 0.000960761 0)
(0.00120478 0.00249514 0)
(0.00144898 0.00475165 0)
(0.00114523 0.00775775 0)
(-0.000292412 0.011471 0)
(-0.00366474 0.015754 0)
(-0.0100075 0.0204353 0)
(-0.020574 0.0253521 0)
(-0.0366761 0.0303834 0)
(-0.0595142 0.0354527 0)
(-0.0900943 0.0405385 0)
(-0.129255 0.0456109 0)
(-0.177735 0.0506217 0)
(-0.236072 0.0554983 0)
(-0.304555 0.0601665 0)
(-0.382995 0.0646134 0)
(-0.470822 0.0688509 0)
(-0.567166 0.0730037 0)
(-0.67109 0.0771875 0)
(-0.781887 0.0815775 0)
(-0.899176 0.0863023 0)
(-1.02297 0.0914814 0)
(-1.15366 0.0971863 0)
(-1.29183 0.103484 0)
(-1.43817 0.110385 0)
(-1.59343 0.117949 0)
(-1.75822 0.126178 0)
(-1.9332 0.135117 0)
(-2.1188 0.144801 0)
(-2.31562 0.155226 0)
(-2.52398 0.166451 0)
(-2.7445 0.178421 0)
(-2.97749 0.191156 0)
(-3.22352 0.204515 0)
(-3.48319 0.218425 0)
(-3.75627 0.232548 0)
(-4.04463 0.246777 0)
(-4.34535 0.260099 0)
(-4.66347 0.273099 0)
(-4.9904 0.282259 0)
(-5.33647 0.291636 0)
(-5.68512 0.291004 0)
(-6.05146 0.292623 0)
(-6.41321 0.276817 0)
(-6.78546 0.261809 0)
(-7.146 0.233605 0)
(-7.51378 0.192765 0)
(-7.87541 0.162473 0)
(9.0076e-05 -9.34759e-05 0)
(0.000438685 0.000117423 0)
(0.00086303 0.000935413 0)
(0.00125133 0.00247653 0)
(0.00150328 0.00475603 0)
(0.00139239 0.00780955 0)
(0.000617334 0.011611 0)
(-0.00120516 0.0160428 0)
(-0.00466417 0.0209569 0)
(-0.0106494 0.0262101 0)
(-0.0202081 0.0316917 0)
(-0.0344337 0.037323 0)
(-0.0543445 0.0430774 0)
(-0.0808991 0.0489215 0)
(-0.115064 0.0548033 0)
(-0.157743 0.0606377 0)
(-0.209694 0.0663204 0)
(-0.271243 0.0717978 0)
(-0.342257 0.077037 0)
(-0.422142 0.0821352 0)
(-0.510031 0.087201 0)
(-0.605109 0.0924287 0)
(-0.706783 0.0979818 0)
(-0.814848 0.104021 0)
(-0.929526 0.110654 0)
(-1.05132 0.117973 0)
(-1.18092 0.126001 0)
(-1.31914 0.134798 0)
(-1.46662 0.144365 0)
(-1.62408 0.154739 0)
(-1.79196 0.165949 0)
(-1.97078 0.17799 0)
(-2.16081 0.190915 0)
(-2.36243 0.204681 0)
(-2.57587 0.21929 0)
(-2.80136 0.234631 0)
(-3.03939 0.250596 0)
(-3.28947 0.266884 0)
(-3.55318 0.283328 0)
(-3.82788 0.298943 0)
(-4.11764 0.314204 0)
(-4.4155 0.32569 0)
(-4.72952 0.337003 0)
(-5.04678 0.338726 0)
(-5.37886 0.341135 0)
(-5.7084 0.327762 0)
(-6.04743 0.311966 0)
(-6.37825 0.284998 0)
(-6.71687 0.245973 0)
(-7.05419 0.218824 0)
(8.99164e-05 -0.000108843 0)
(0.000456694 9.28573e-05 0)
(0.000913935 0.000907168 0)
(0.00132439 0.00245663 0)
(0.00157598 0.0047579 0)
(0.00148687 0.00784646 0)
(0.000872457 0.0117034 0)
(-0.000429661 0.0162222 0)
(-0.0027085 0.0212732 0)
(-0.00649242 0.0267362 0)
(-0.0125227 0.0325165 0)
(-0.0216289 0.0385416 0)
(-0.0346442 0.0447884 0)
(-0.0524206 0.0512291 0)
(-0.0759015 0.0578209 0)
(-0.106114 0.0644797 0)
(-0.144078 0.0710827 0)
(-0.190496 0.0775398 0)
(-0.245643 0.0837676 0)
(-0.309258 0.0898209 0)
(-0.380666 0.0957831 0)
(-0.459072 0.101851 0)
(-0.543773 0.108216 0)
(-0.63439 0.115079 0)
(-0.730974 0.122587 0)
(-0.833917 0.13087 0)
(-0.943884 0.139969 0)
(-1.06169 0.149954 0)
(-1.18808 0.160819 0)
(-1.3238 0.172596 0)
(-1.46937 0.185302 0)
(-1.62528 0.198924 0)
(-1.79179 0.213503 0)
(-1.96917 0.228999 0)
(-2.15751 0.245395 0)
(-2.35685 0.2626 0)
(-2.56745 0.280473 0)
(-2.7887 0.298739 0)
(-3.02166 0.317192 0)
(-3.26415 0.334856 0)
(-3.51896 0.352134 0)
(-3.78096 0.365691 0)
(-4.0556 0.378699 0)
(-4.33369 0.382568 0)
(-4.62311 0.38568 0)
(-4.91136 0.37451 0)
(-5.20721 0.358358 0)
(-5.49753 0.332407 0)
(-5.79457 0.295807 0)
(-6.09239 0.272041 0)
(9.04882e-05 -0.0001254 0)
(0.000473099 6.57613e-05 0)
(0.000960587 0.000875271 0)
(0.00140367 0.00243407 0)
(0.00167403 0.00475932 0)
(0.00158807 0.00788254 0)
(0.000986639 0.0117865 0)
(-0.000210508 0.0163688 0)
(-0.00213681 0.0215117 0)
(-0.00510885 0.0271132 0)
(-0.00961768 0.0330948 0)
(-0.0162429 0.0393917 0)
(-0.0255843 0.0459869 0)
(-0.0382549 0.0528649 0)
(-0.0550627 0.0599992 0)
(-0.076938 0.0673199 0)
(-0.104938 0.0746994 0)
(-0.139936 0.0820209 0)
(-0.182456 0.0891533 0)
(-0.232504 0.0961023 0)
(-0.289604 0.102913 0)
(-0.353045 0.109772 0)
(-0.42209 0.116885 0)
(-0.496242 0.124489 0)
(-0.575402 0.132774 0)
(-0.659835 0.141911 0)
(-0.750135 0.151968 0)
(-0.847103 0.16303 0)
(-0.951515 0.175094 0)
(-1.06419 0.18818 0)
(-1.18569 0.202293 0)
(-1.31654 0.217409 0)
(-1.45703 0.233547 0)
(-1.60735 0.250666 0)
(-1.76754 0.268723 0)
(-1.93749 0.287635 0)
(-2.11724 0.307236 0)
(-2.30616 0.327254 0)
(-2.50471 0.347471 0)
(-2.71121 0.366889 0)
(-2.92715 0.385876 0)
(-3.14902 0.401178 0)
(-3.37993 0.415552 0)
(-3.61374 0.421249 0)
(-3.85536 0.424884 0)
(-4.09606 0.415543 0)
(-4.34204 0.399297 0)
(-4.58387 0.374074 0)
(-4.83015 0.339973 0)
(-5.07624 0.319195 0)
(9.12952e-05 -0.000143256 0)
(0.000489464 3.62044e-05 0)
(0.00100508 0.000839529 0)
(0.0014816 0.00240785 0)
(0.00178073 0.00475917 0)
(0.00171038 0.00791967 0)
(0.00110643 0.0118716 0)
(-9.59945e-05 0.0165131 0)
(-0.00197403 0.0217336 0)
(-0.00474708 0.0274445 0)
(-0.00876862 0.0335797 0)
(-0.0144534 0.0400802 0)
(-0.0222056 0.0469337 0)
(-0.0324604 0.0541361 0)
(-0.0457928 0.0616827 0)
(-0.0629817 0.0695239 0)
(-0.0849846 0.0775377 0)
(-0.112663 0.0855908 0)
(-0.146623 0.0935114 0)
(-0.187003 0.101255 0)
(-0.233455 0.108825 0)
(-0.285342 0.116385 0)
(-0.341922 0.124146 0)
(-0.402619 0.132374 0)
(-0.467207 0.141303 0)
(-0.535826 0.151145 0)
(-0.608968 0.162004 0)
(-0.687373 0.173984 0)
(-0.77181 0.187087 0)
(-0.863108 0.20133 0)
(-0.961876 0.216702 0)
(-1.06867 0.233165 0)
(-1.18379 0.250713 0)
(-1.30741 0.269298 0)
(-1.43952 0.288844 0)
(-1.57998 0.309267 0)
(-1.72859 0.330379 0)
(-1.88476 0.351889 0)
(-2.04841 0.373584 0)
(-2.21827 0.394425 0)
(-2.39476 0.41476 0)
(-2.57551 0.431428 0)
(-2.76193 0.446772 0)
(-2.9499 0.453884 0)
(-3.1423 0.457772 0)
(-3.33298 0.449761 0)
(-3.52625 0.433478 0)
(-3.71532 0.408604 0)
(-3.90566 0.376572 0)
(-4.09192 0.35778 0)
(9.20879e-05 -0.000162482 0)
(0.000505807 3.96332e-06 0)
(0.00104886 0.000799991 0)
(0.00155778 0.00237763 0)
(0.00188738 0.00475658 0)
(0.00184043 0.00795699 0)
(0.00124372 0.0119599 0)
(2.70083e-05 0.0166632 0)
(-0.0018753 0.0219606 0)
(-0.00465023 0.0277744 0)
(-0.00859441 0.0340477 0)
(-0.0140405 0.040724 0)
(-0.0212854 0.0477928 0)
(-0.0306301 0.0552595 0)
(-0.0425069 0.0631394 0)
(-0.0575326 0.071406 0)
(-0.0765227 0.0799483 0)
(-0.100247 0.0886228 0)
(-0.129275 0.0972228 0)
(-0.163757 0.105658 0)
(-0.20339 0.113885 0)
(-0.247561 0.122042 0)
(-0.295519 0.13034 0)
(-0.346627 0.139066 0)
(-0.400558 0.148494 0)
(-0.457329 0.158881 0)
(-0.517323 0.170367 0)
(-0.581183 0.183082 0)
(-0.649626 0.197039 0)
(-0.723441 0.21225 0)
(-0.80324 0.228691 0)
(-0.889569 0.246311 0)
(-0.982735 0.265077 0)
(-1.0829 0.284925 0)
(-1.19003 0.305751 0)
(-1.30392 0.327453 0)
(-1.42423 0.349824 0)
(-1.55042 0.37254 0)
(-1.68196 0.395397 0)
(-1.81788 0.417311 0)
(-1.95779 0.438598 0)
(-2.10004 0.45622 0)
(-2.24487 0.472093 0)
(-2.38938 0.480134 0)
(-2.53514 0.483933 0)
(-2.67759 0.476654 0)
(-2.81967 0.460181 0)
(-2.95614 0.435159 0)
(-3.09005 0.404344 0)
(-3.21367 0.386011 0)
(9.28267e-05 -0.000183107 0)
(0.000521919 -3.13826e-05 0)
(0.00109223 0.000756662 0)
(0.00163301 0.00234328 0)
(0.00199227 0.00475117 0)
(0.00197047 0.00799387 0)
(0.00138735 0.0120507 0)
(0.000164235 0.0168196 0)
(-0.00176653 0.022198 0)
(-0.00458529 0.0281171 0)
(-0.0085715 0.0345281 0)
(-0.0140258 0.0413748 0)
(-0.0211998 0.048646 0)
(-0.03033 0.0563543 0)
(-0.041767 0.0645327 0)
(-0.0560262 0.073177 0)
(-0.0738099 0.0821877 0)
(-0.0957843 0.0914136 0)
(-0.122436 0.100617 0)
(-0.153871 0.109662 0)
(-0.189761 0.118463 0)
(-0.229481 0.127127 0)
(-0.272255 0.135861 0)
(-0.317395 0.144972 0)
(-0.364494 0.154772 0)
(-0.41347 0.165558 0)
(-0.464591 0.177512 0)
(-0.5184 0.190788 0)
(-0.575531 0.205413 0)
(-0.636696 0.221401 0)
(-0.702469 0.238714 0)
(-0.773342 0.257288 0)
(-0.849611 0.277062 0)
(-0.931402 0.297955 0)
(-1.01862 0.319832 0)
(-1.11107 0.342565 0)
(-1.20825 0.36593 0)
(-1.30964 0.38956 0)
(-1.41444 0.413253 0)
(-1.52181 0.435885 0)
(-1.63084 0.457724 0)
(-1.74023 0.475878 0)
(-1.8495 0.491833 0)
(-1.95641 0.500282 0)
(-2.06163 0.503601 0)
(-2.16153 0.496406 0)
(-2.25803 0.479407 0)
(-2.34651 0.45363 0)
(-2.42822 0.422866 0)
(-2.49204 0.403085 0)
(9.35309e-05 -0.000205176 0)
(0.000537687 -7.00885e-05 0)
(0.00113509 0.000709442 0)
(0.00170764 0.00230465 0)
(0.00209573 0.00474272 0)
(0.00209868 0.00803006 0)
(0.00153119 0.0121438 0)
(0.000306653 0.0169821 0)
(-0.00164714 0.0224461 0)
(-0.00451079 0.0284759 0)
(-0.00855992 0.0350294 0)
(-0.0140846 0.0420504 0)
(-0.0213214 0.0495256 0)
(-0.0304853 0.0574733 0)
(-0.0418943 0.0659428 0)
(-0.0560158 0.0749504 0)
(-0.073485 0.084407 0)
(-0.0948923 0.0941526 0)
(-0.120648 0.103919 0)
(-0.150795 0.113527 0)
(-0.184959 0.122846 0)
(-0.222483 0.131954 0)
(-0.26256 0.141052 0)
(-0.304463 0.150466 0)
(-0.347729 0.16054 0)
(-0.392198 0.171615 0)
(-0.43806 0.18391 0)
(-0.485754 0.197608 0)
(-0.535827 0.21275 0)
(-0.588909 0.229351 0)
(-0.645492 0.247362 0)
(-0.706032 0.266705 0)
(-0.770724 0.287294 0)
(-0.839683 0.309026 0)
(-0.912742 0.331737 0)
(-0.98968 0.355267 0)
(-1.06988 0.379376 0)
(-1.15285 0.403642 0)
(-1.23754 0.42787 0)
(-1.32321 0.450893 0)
(-1.40859 0.47291 0)
(-1.49256 0.491196 0)
(-1.57419 0.506812 0)
(-1.6515 0.515157 0)
(-1.72462 0.5176 0)
(-1.79035 0.509846 0)
(-1.84985 0.491862 0)
(-1.89838 0.464643 0)
(-1.93595 0.432593 0)
(-1.94767 0.409254 0)
(9.42165e-05 -0.000228757 0)
(0.000553095 -0.000112303 0)
(0.00117732 0.000658168 0)
(0.00178165 0.00226155 0)
(0.00219808 0.00473102 0)
(0.00222517 0.00806548 0)
(0.00167382 0.0122389 0)
(0.00044992 0.0171504 0)
(-0.00152355 0.022705 0)
(-0.00442854 0.0288511 0)
(-0.00853973 0.0355535 0)
(-0.0141427 0.0427556 0)
(-0.0214696 0.0504417 0)
(-0.0307319 0.0586355 0)
(-0.0422416 0.0674021 0)
(-0.0564513 0.0767768 0)
(-0.0739649 0.0866795 0)
(-0.0953281 0.0969394 0)
(-0.120897 0.107257 0)
(-0.150659 0.117407 0)
(-0.184198 0.127217 0)
(-0.220822 0.136734 0)
(-0.259701 0.146153 0)
(-0.300083 0.155818 0)
(-0.341474 0.166106 0)
(-0.383672 0.177398 0)
(-0.426805 0.189953 0)
(-0.471243 0.203979 0)
(-0.517462 0.219532 0)
(-0.566003 0.236627 0)
(-0.617304 0.255208 0)
(-0.671714 0.275178 0)
(-0.729414 0.296429 0)
(-0.790429 0.318833 0)
(-0.854536 0.3422 0)
(-0.921474 0.366331 0)
(-0.990555 0.39097 0)
(-1.06123 0.415645 0)
(-1.13241 0.440142 0)
(-1.20323 0.463282 0)
(-1.27233 0.48516 0)
(-1.33858 0.503236 0)
(-1.4008 0.518158 0)
(-1.45714 0.525944 0)
(-1.5073 0.527146 0)
(-1.54826 0.518255 0)
(-1.58058 0.49879 0)
(-1.59901 0.46942 0)
(-1.60261 0.434714 0)
(-1.573 0.4057 0)
(9.48958e-05 -0.000253903 0)
(0.000568131 -0.000158153 0)
(0.00121884 0.000602653 0)
(0.00185497 0.00221379 0)
(0.00229944 0.00471583 0)
(0.00235021 0.00810005 0)
(0.00181528 0.012336 0)
(0.000593182 0.0173244 0)
(-0.00139816 0.0229747 0)
(-0.0043422 0.0292433 0)
(-0.00851273 0.0361013 0)
(-0.0141919 0.0434917 0)
(-0.0216096 0.051397 0)
(-0.0309795 0.0598467 0)
(-0.0426172 0.0689215 0)
(-0.0569763 0.0786753 0)
(-0.0746484 0.0890355 0)
(-0.0961555 0.0998186 0)
(-0.121817 0.110692 0)
(-0.15158 0.121382 0)
(-0.184996 0.131674 0)
(-0.221346 0.141585 0)
(-0.259787 0.151306 0)
(-0.299559 0.161195 0)
(-0.340159 0.171666 0)
(-0.381366 0.183138 0)
(-0.423279 0.195908 0)
(-0.466225 0.21021 0)
(-0.51063 0.226113 0)
(-0.556973 0.243633 0)
(-0.605634 0.262701 0)
(-0.656908 0.283208 0)
(-0.710905 0.305018 0)
(-0.767609 0.32798 0)
(-0.826738 0.351875 0)
(-0.887994 0.376468 0)
(-0.950621 0.401479 0)
(-1.01407 0.426393 0)
(-1.0771 0.450963 0)
(-1.13894 0.474009 0)
(-1.19808 0.49551 0)
(-1.25337 0.513107 0)
(-1.3035 0.527067 0)
(-1.34666 0.533924 0)
(-1.38223 0.533601 0)
(-1.40731 0.523087 0)
(-1.42191 0.501654 0)
(-1.42006 0.469479 0)
(-1.40013 0.430823 0)
(-1.34082 0.394156 0)
(9.55747e-05 -0.000280671 0)
(0.000582803 -0.000207798 0)
(0.00125957 0.00054269 0)
(0.00192749 0.00216116 0)
(0.00239984 0.00469687 0)
(0.00247396 0.00813366 0)
(0.00195578 0.0124353 0)
(0.000736528 0.0175044 0)
(-0.00127125 0.0232554 0)
(-0.00425251 0.0296527 0)
(-0.00848022 0.0366732 0)
(-0.014233 0.0442598 0)
(-0.0217385 0.052393 0)
(-0.0312136 0.061109 0)
(-0.0429802 0.0705048 0)
(-0.0574978 0.0806527 0)
(-0.0753544 0.0914865 0)
(-0.0970577 0.102808 0)
(-0.1229 0.114248 0)
(-0.152801 0.125486 0)
(-0.186283 0.136263 0)
(-0.222611 0.146565 0)
(-0.260939 0.156581 0)
(-0.300509 0.166685 0)
(-0.340823 0.177326 0)
(-0.381664 0.188964 0)
(-0.423124 0.201933 0)
(-0.465508 0.216489 0)
(-0.509215 0.232715 0)
(-0.554685 0.250628 0)
(-0.602259 0.270145 0)
(-0.652188 0.291142 0)
(-0.704539 0.313456 0)
(-0.759258 0.33691 0)
(-0.816023 0.361258 0)
(-0.874503 0.386225 0)
(-0.933911 0.411509 0)
(-0.993656 0.43655 0)
(-1.05251 0.461068 0)
(-1.10962 0.483882 0)
(-1.16348 0.504845 0)
(-1.21294 0.521776 0)
(-1.25659 0.534598 0)
(-1.29268 0.540262 0)
(-1.32037 0.538208 0)
(-1.33672 0.525716 0)
(-1.34138 0.501911 0)
(-1.32777 0.466369 0)
(-1.29355 0.422703 0)
(-1.21555 0.376664 0)
(9.62576e-05 -0.000309109 0)
(0.000597106 -0.000261395 0)
(0.00129948 0.000478064 0)
(0.00199911 0.00210347 0)
(0.00249924 0.00467386 0)
(0.00259648 0.00816615 0)
(0.00209544 0.0125366 0)
(0.000880203 0.0176903 0)
(-0.00114248 0.0235474 0)
(-0.00415914 0.0300799 0)
(-0.00844173 0.03727 0)
(-0.0142655 0.0450606 0)
(-0.0218558 0.0534307 0)
(-0.0314324 0.0624239 0)
(-0.0433242 0.0721543 0)
(-0.0579981 0.0827123 0)
(-0.0760402 0.0940376 0)
(-0.0979482 0.105915 0)
(-0.123993 0.117938 0)
(-0.154066 0.129735 0)
(-0.187672 0.141003 0)
(-0.224061 0.151699 0)
(-0.262388 0.162009 0)
(-0.301907 0.172327 0)
(-0.342135 0.183137 0)
(-0.382869 0.19494 0)
(-0.424206 0.208105 0)
(-0.466446 0.222914 0)
(-0.509979 0.239462 0)
(-0.555221 0.257761 0)
(-0.60249 0.277717 0)
(-0.65201 0.299188 0)
(-0.703822 0.321986 0)
(-0.757848 0.345904 0)
(-0.813744 0.37067 0)
(-0.871154 0.395971 0)
(-0.929284 0.421474 0)
(-0.987517 0.446586 0)
(-1.04464 0.470976 0)
(-1.09977 0.493481 0)
(-1.15144 0.513819 0)
(-1.19847 0.529974 0)
(-1.23945 0.541567 0)
(-1.2727 0.54587 0)
(-1.29716 0.541964 0)
(-1.31 0.527266 0)
(-1.31046 0.500786 0)
(-1.29147 0.461418 0)
(-1.25022 0.411877 0)
(-1.16235 0.355185 0)
(9.6946e-05 -0.00033928 0)
(0.000611052 -0.000319114 0)
(0.00133852 0.000408558 0)
(0.00206975 0.00204052 0)
(0.00259763 0.00464648 0)
(0.00271782 0.00819734 0)
(0.00223436 0.0126401 0)
(0.00102439 0.0178821 0)
(-0.00101151 0.0238508 0)
(-0.00406146 0.0305251 0)
(-0.00839636 0.0378923 0)
(-0.0142881 0.0458952 0)
(-0.0219598 0.0545115 0)
(-0.0316343 0.0637931 0)
(-0.0436471 0.073872 0)
(-0.0584727 0.0848569 0)
(-0.0766964 0.0966924 0)
(-0.0988061 0.109144 0)
(-0.125052 0.121766 0)
(-0.155302 0.134135 0)
(-0.189041 0.145903 0)
(-0.225509 0.156998 0)
(-0.263865 0.167604 0)
(-0.303377 0.178138 0)
(-0.343581 0.18912 0)
(-0.384294 0.201093 0)
(-0.425626 0.214462 0)
(-0.467882 0.229532 0)
(-0.511449 0.24641 0)
(-0.556731 0.265103 0)
(-0.604035 0.285506 0)
(-0.653569 0.307455 0)
(-0.70536 0.330738 0)
(-0.759317 0.355119 0)
(-0.815088 0.380296 0)
(-0.872305 0.405919 0)
(-0.93018 0.431624 0)
(-0.988084 0.456786 0)
(-1.04483 0.481019 0)
(-1.09955 0.503184 0)
(-1.15078 0.522864 0)
(-1.19742 0.53819 0)
(-1.23802 0.548527 0)
(-1.27101 0.551381 0)
(-1.2952 0.545579 0)
(-1.30784 0.528541 0)
(-1.30785 0.499171 0)
(-1.28789 0.455646 0)
(-1.24471 0.399583 0)
(-1.1536 0.331269 0)
(9.76418e-05 -0.00037124 0)
(0.000624636 -0.000381113 0)
(0.00137666 0.000333956 0)
(0.0021393 0.00197211 0)
(0.00269495 0.00461446 0)
(0.002838 0.008227 0)
(0.0023726 0.0127456 0)
(0.0011693 0.01808 0)
(-0.000877963 0.0241657 0)
(-0.0039589 0.0309889 0)
(-0.00834313 0.0385409 0)
(-0.0142993 0.0467643 0)
(-0.0220485 0.0556364 0)
(-0.0318169 0.0652181 0)
(-0.0439461 0.0756599 0)
(-0.0589184 0.0870891 0)
(-0.077318 0.0994542 0)
(-0.0996235 0.112499 0)
(-0.126065 0.125738 0)
(-0.156487 0.138692 0)
(-0.190355 0.150968 0)
(-0.2269 0.162467 0)
(-0.265286 0.173373 0)
(-0.304796 0.184126 0)
(-0.344988 0.195285 0)
(-0.3857 0.207436 0)
(-0.427059 0.22102 0)
(-0.469377 0.236364 0)
(-0.513044 0.253586 0)
(-0.558459 0.27269 0)
(-0.605921 0.293555 0)
(-0.655631 0.315998 0)
(-0.70761 0.339779 0)
(-0.76176 0.364635 0)
(-0.81773 0.390232 0)
(-0.875148 0.416185 0)
(-0.933244 0.442095 0)
(-0.991386 0.467309 0)
(-1.04843 0.491385 0)
(-1.10351 0.513207 0)
(-1.15523 0.532234 0)
(-1.20255 0.546718 0)
(-1.24399 0.555817 0)
(-1.27816 0.557198 0)
(-1.30373 0.549502 0)
(-1.31811 0.530075 0)
(-1.31992 0.497686 0)
(-1.30181 0.449779 0)
(-1.26012 0.386771 0)
(-1.17065 0.306259 0)
(9.83462e-05 -0.000405056 0)
(0.000637872 -0.000447564 0)
(0.00141386 0.000254036 0)
(0.00220767 0.00189798 0)
(0.0027912 0.00457753 0)
(0.00295706 0.00825484 0)
(0.0025102 0.0128531 0)
(0.00131504 0.0182841 0)
(-0.000741498 0.0244923 0)
(-0.00385087 0.0314714 0)
(-0.00828119 0.0392162 0)
(-0.0142979 0.0476688 0)
(-0.0221203 0.0568065 0)
(-0.0319776 0.0667003 0)
(-0.0442182 0.0775199 0)
(-0.0593313 0.0894113 0)
(-0.0779002 0.102326 0)
(-0.100394 0.115984 0)
(-0.127023 0.129857 0)
(-0.157608 0.143409 0)
(-0.191597 0.156203 0)
(-0.228211 0.168111 0)
(-0.26662 0.17932 0)
(-0.306123 0.190296 0)
(-0.346298 0.201639 0)
(-0.387007 0.213975 0)
(-0.428394 0.227786 0)
(-0.470782 0.243421 0)
(-0.514562 0.261005 0)
(-0.560131 0.280538 0)
(-0.607786 0.301884 0)
(-0.657722 0.324841 0)
(-0.709957 0.349142 0)
(-0.764393 0.374491 0)
(-0.820686 0.400526 0)
(-0.87846 0.426826 0)
(-0.936972 0.452956 0)
(-0.995595 0.47824 0)
(-1.05323 0.502174 0)
(-1.10904 0.523669 0)
(-1.16167 0.542069 0)
(-1.21017 0.555726 0)
(-1.25309 0.563634 0)
(-1.28917 0.563559 0)
(-1.31699 0.554009 0)
(-1.33418 0.532201 0)
(-1.33907 0.496734 0)
(-1.32453 0.444318 0)
(-1.28661 0.374143 0)
(-1.20224 0.281222 0)
(9.90593e-05 -0.000440787 0)
(0.00065076 -0.000518624 0)
(0.0014501 0.000168565 0)
(0.00227477 0.00181789 0)
(0.00288631 0.00453543 0)
(0.00307501 0.00828054 0)
(0.00264719 0.0129625 0)
(0.00146175 0.0184942 0)
(-0.000601806 0.0248305 0)
(-0.00373684 0.0319729 0)
(-0.00820965 0.0399187 0)
(-0.0142825 0.0486095 0)
(-0.0221732 0.058023 0)
(-0.0321143 0.0682411 0)
(-0.0444602 0.0794541 0)
(-0.0597074 0.0918262 0)
(-0.0784378 0.105311 0)
(-0.101111 0.119603 0)
(-0.127917 0.134128 0)
(-0.158656 0.148292 0)
(-0.192755 0.161612 0)
(-0.229429 0.173935 0)
(-0.267851 0.18545 0)
(-0.307337 0.196653 0)
(-0.347487 0.208185 0)
(-0.388186 0.220717 0)
(-0.429594 0.234768 0)
(-0.472043 0.250708 0)
(-0.515931 0.268673 0)
(-0.561652 0.288657 0)
(-0.609503 0.310507 0)
(-0.659672 0.334 0)
(-0.71218 0.358843 0)