/*--------------------------------*- C++ -*----------------------------------*\
  =========                 |
  \\      /  F ield         | OpenFOAM: The Open Source CFD Toolbox
   \\    /   O peration     | Website:  https://openfoam.org
    \\  /    A nd           | Version:  7
     \\/     M anipulation  |
\*---------------------------------------------------------------------------*/
FoamFile
{
    version     2.0;
    format      ascii;
    class       surfaceScalarField;
    location    "0.14";
    object      ddtCorrDdt0(phi);
}
// * * * * * * * * * * * * * * * * * * * * * * * * * * * * * * * * * * * * * //

dimensions      [0 3 -2 0 0 0 0];

internalField   nonuniform List<scalar> 
139350
(
4.36451e-13
5.83561e-12
-7.73265e-11
8.84537e-11
-2.92916e-10
2.30295e-10
-6.70274e-10
3.88234e-10
-1.21493e-09
5.56116e-10
-1.93899e-09
7.34658e-10
-2.83707e-09
9.08804e-10
-3.89931e-09
1.07171e-09
-5.10553e-09
1.21718e-09
-6.44035e-09
1.34273e-09
-7.8774e-09
1.44819e-09
-9.40649e-09
1.5369e-09
-1.10135e-08
1.61681e-09
-1.26954e-08
1.69082e-09
-1.44517e-08
1.76334e-09
-1.6271e-08
1.83106e-09
-1.81637e-08
1.89649e-09
-2.01047e-08
1.95805e-09
-2.2118e-08
2.01673e-09
-2.41766e-08
2.07724e-09
-2.63076e-08
2.13793e-09
-2.84994e-08
2.20578e-09
-3.07721e-08
2.28009e-09
-3.31204e-08
2.36145e-09
-3.55702e-08
2.45261e-09
-3.81008e-08
2.55025e-09
-4.07522e-08
2.65352e-09
-4.34937e-08
2.76371e-09
-4.63591e-08
2.8727e-09
-4.93263e-08
2.98433e-09
-5.24063e-08
3.08917e-09
-5.55719e-08
3.18231e-09
-5.88278e-08
3.26109e-09
-6.21156e-08
3.3124e-09
-6.54419e-08
3.33074e-09
-6.87077e-08
3.29314e-09
-7.19041e-08
3.20621e-09
-7.48843e-08
3.00108e-09
-7.76246e-08
2.75413e-09
-7.98743e-08
2.26613e-09
-8.16605e-08
1.79867e-09
-8.25175e-08
8.79591e-10
-8.2639e-08
1.3155e-10
-8.12859e-08
-1.31572e-09
-7.89579e-08
-2.31284e-09
-7.4576e-08
-4.33475e-09
-6.9639e-08
-4.9087e-09
-6.16648e-08
-7.92905e-09
-5.36e-08
-8.05714e-09
1.29686e-09
-5.4887e-08
-9.53763e-13
1.44017e-11
-2.19539e-10
3.18665e-10
-8.5849e-10
8.84982e-10
-1.99725e-09
1.5388e-09
-3.66246e-09
2.2337e-09
-5.89623e-09
2.97991e-09
-8.69759e-09
3.72181e-09
-1.20289e-08
4.41316e-09
-1.58258e-08
5.02604e-09
-2.00263e-08
5.55176e-09
-2.45619e-08
5.99584e-09
-2.9392e-08
6.37557e-09
-3.44827e-08
6.71804e-09
-3.98175e-08
7.03538e-09
-4.53841e-08
7.33734e-09
-5.11595e-08
7.61953e-09
-5.7147e-08
7.88791e-09
-6.33168e-08
8.14658e-09
-6.96962e-08
8.40007e-09
-7.62657e-08
8.66665e-09
-8.30673e-08
8.94728e-09
-9.01073e-08
9.26065e-09
-9.74274e-08
9.60795e-09
-1.05046e-07
9.99405e-09
-1.13014e-07
1.04236e-08
-1.21336e-07
1.08942e-08
-1.30081e-07
1.14014e-08
-1.39245e-07
1.19509e-08
-1.48888e-07
1.25243e-08
-1.59015e-07
1.3129e-08
-1.6966e-07
1.37444e-08
-1.80813e-07
1.43539e-08
-1.92495e-07
1.49487e-08
-2.04646e-07
1.54899e-08
-2.17273e-07
1.59628e-08
-2.30241e-07
1.62899e-08
-2.43508e-07
1.6484e-08
-2.56833e-07
1.63483e-08
-2.70104e-07
1.60403e-08
-2.82867e-07
1.50468e-08
-2.95011e-07
1.39562e-08
-3.05585e-07
1.14785e-08
-3.14814e-07
9.37178e-09
-3.20577e-07
4.48834e-09
-3.24592e-07
1.71875e-09
-3.21787e-07
-7.08963e-09
-3.18509e-07
-8.15562e-09
-3.03601e-07
-2.27885e-08
-2.90307e-07
-2.13477e-08
-3.54336e-08
-2.53566e-07
2.88507e-11
-5.77277e-12
-1.70923e-10
5.30835e-10
-9.4599e-10
1.67663e-09
-2.51007e-09
3.11544e-09
-4.9445e-09
4.68125e-09
-8.32465e-09
6.37224e-09
-1.26778e-08
8.0873e-09
-1.79624e-08
9.70856e-09
-2.40812e-08
1.11575e-08
-3.0927e-08
1.24067e-08
-3.83878e-08
1.34694e-08
-4.63877e-08
1.43845e-08
-5.48651e-08
1.52066e-08
-6.3781e-08
1.59617e-08
-7.31023e-08
1.66664e-08
-8.27875e-08
1.73187e-08
-9.28263e-08
1.79308e-08
-1.03182e-07
1.85223e-08
-1.13884e-07
1.91066e-08
-1.24922e-07
1.97249e-08
-1.36351e-07
2.03855e-08
-1.48198e-07
2.11233e-08
-1.60526e-07
2.1944e-08
-1.73377e-07
2.28601e-08
-1.86829e-07
2.38786e-08
-2.00915e-07
2.50034e-08
-2.15737e-07
2.62263e-08
-2.31324e-07
2.75622e-08
-2.47775e-07
2.89846e-08
-2.65132e-07
3.05053e-08
-2.83475e-07
3.2097e-08
-3.0283e-07
3.37289e-08
-3.23266e-07
3.53903e-08
-3.44757e-07
3.70089e-08
-3.67357e-07
3.85687e-08
-3.90954e-07
3.99174e-08
-4.1554e-07
4.10817e-08
-4.40879e-07
4.17104e-08
-4.66849e-07
4.20258e-08
-4.92963e-07
4.11796e-08
-5.19043e-07
4.00497e-08
-5.43925e-07
3.63871e-08
-5.67906e-07
3.33646e-08
-5.87853e-07
2.4479e-08
-6.06543e-07
2.0427e-08
-6.15717e-07
2.13699e-09
-6.24667e-07
8.2733e-10
-6.17645e-07
-2.97607e-08
-6.08343e-07
-3.06488e-08
-6.72939e-08
-5.76472e-07
4.96628e-11
-4.59586e-11
-3.61968e-11
6.29721e-10
-6.52064e-10
2.30977e-09
-2.16535e-09
4.64188e-09
-4.78433e-09
7.31395e-09
-8.65376e-09
1.02544e-08
-1.38529e-08
1.32994e-08
-2.03738e-08
1.62406e-08
-2.81223e-08
1.89193e-08
-3.69695e-08
2.12634e-08
-4.67689e-08
2.32821e-08
-5.74085e-08
2.50337e-08
-6.8793e-08
2.66025e-08
-8.08516e-08
2.80312e-08
-9.35207e-08
2.93435e-08
-1.0673e-07
3.05425e-08
-1.20445e-07
3.165e-08
-1.34612e-07
3.27103e-08
-1.49255e-07
3.37548e-08
-1.64366e-07
3.4857e-08
-1.80011e-07
3.60398e-08
-1.96231e-07
3.73591e-08
-2.13107e-07
3.8828e-08
-2.30699e-07
4.04691e-08
-2.49111e-07
4.22927e-08
-2.68396e-07
4.43128e-08
-2.88686e-07
4.65194e-08
-3.10038e-07
4.89406e-08
-3.3259e-07
5.15462e-08
-3.5642e-07
5.43547e-08
-3.81651e-07
5.73387e-08
-4.08356e-07
6.04544e-08
-4.36657e-07
6.36969e-08
-4.66577e-07
6.69588e-08
-4.98234e-07
7.02318e-08
-5.31573e-07
7.32869e-08
-5.66645e-07
7.61666e-08
-6.03284e-07
7.83728e-08
-6.41411e-07
8.01687e-08
-6.80605e-07
8.03931e-08
-7.20723e-07
8.01817e-08
-7.60568e-07
7.62605e-08
-8.00573e-07
7.33815e-08
-8.37221e-07
6.11723e-08
-8.73551e-07
5.67757e-08
-9.00931e-07
2.95712e-08
-9.2698e-07
2.691e-08
-9.40173e-07
-1.65172e-08
-9.42005e-07
-2.88185e-08
-7.24911e-08
-9.36798e-07
4.94264e-11
-8.5308e-11
6.79282e-11
6.24759e-10
-2.63296e-10
2.65884e-09
-1.37177e-09
5.764e-09
-3.59923e-09
9.55561e-09
-7.20807e-09
1.38765e-08
-1.23733e-08
1.84781e-08
-1.9165e-08
2.30439e-08
-2.75426e-08
2.73107e-08
-3.74007e-08
3.11313e-08
-4.8589e-08
3.44841e-08
-6.09753e-08
3.74299e-08
-7.44351e-08
4.00741e-08
-8.8865e-08
4.24725e-08
-1.04166e-07
4.46526e-08
-1.20229e-07
4.66212e-08
-1.36985e-07
4.84097e-08
-1.54346e-07
5.00932e-08
-1.72317e-07
5.17309e-08
-1.90879e-07
5.34405e-08
-2.10099e-07
5.52694e-08
-2.30025e-07
5.7302e-08
-2.50752e-07
5.95631e-08
-2.72354e-07
6.20876e-08
-2.94947e-07
6.48895e-08
-3.18604e-07
6.79945e-08
-3.43473e-07
7.1392e-08
-3.69632e-07
7.51255e-08
-3.97242e-07
7.91658e-08
-4.26408e-07
8.35404e-08
-4.57287e-07
8.82286e-08
-4.89988e-07
9.31772e-08
-5.24679e-07
9.83933e-08
-5.6143e-07
1.0374e-07
-6.00411e-07
1.0922e-07
-6.41634e-07
1.14542e-07
-6.85208e-07
1.19753e-07
-7.31054e-07
1.24243e-07
-7.7915e-07
1.28281e-07
-8.29185e-07
1.30448e-07
-8.81078e-07
1.32089e-07
-9.33751e-07
1.28962e-07
-9.8765e-07
1.27293e-07
-1.03962e-06
1.13185e-07
-1.09185e-06
1.09027e-07
-1.1381e-06
7.58821e-08
-1.18083e-06
6.96733e-08
-1.21755e-06
2.02496e-08
-1.23701e-06
-9.36466e-09
-5.29102e-08
-1.25658e-06
4.08994e-11
-1.15665e-10
1.07684e-10
5.7195e-10
1.64184e-11
2.76843e-09
-5.96696e-10
6.39116e-09
-2.11867e-09
1.10922e-08
-4.90708e-09
1.66784e-08
-9.25105e-09
2.28358e-08
-1.5339e-08
2.91437e-08
-2.32374e-08
3.52232e-08
-3.29226e-08
4.08266e-08
-4.42931e-08
4.58687e-08
-5.72353e-08
5.03821e-08
-7.16215e-08
5.44725e-08
-8.73328e-08
5.81953e-08
-1.04244e-07
6.15724e-08
-1.22212e-07
6.46043e-08
-1.41122e-07
6.73239e-08
-1.60841e-07
6.98347e-08
-1.81334e-07
7.22292e-08
-2.02551e-07
7.46803e-08
-2.24547e-07
7.72743e-08
-2.47364e-07
8.01361e-08
-2.71103e-07
8.33107e-08
-2.95847e-07
8.68492e-08
-3.21725e-07
9.077e-08
-3.48815e-07
9.51094e-08
-3.77275e-07
9.98562e-08
-4.07191e-07
1.05068e-07
-4.38735e-07
1.10719e-07
-4.72022e-07
1.16848e-07
-5.07227e-07
1.23444e-07
-5.44479e-07
1.30451e-07
-5.83972e-07
1.37892e-07
-6.2581e-07
1.45609e-07
-6.70198e-07
1.53615e-07
-7.17202e-07
1.61577e-07
-7.66968e-07
1.69532e-07
-8.19502e-07
1.76801e-07
-8.74822e-07
1.83617e-07
-9.32734e-07
1.8838e-07
-9.93188e-07
1.92557e-07
-1.05534e-06
1.91145e-07
-1.11943e-06
1.91389e-07
-1.18323e-06
1.77031e-07
-1.2473e-06
1.73119e-07
-1.30902e-06
1.37655e-07
-1.36542e-06
1.26109e-07
-1.42106e-06
7.5944e-08
-1.46109e-06
3.06498e-08
-1.41528e-08
-1.49984e-06
3.65979e-11
-1.41342e-10
1.10509e-10
5.124e-10
1.4875e-10
2.74894e-09
-8.49203e-11
6.63924e-09
-9.14984e-10
1.19371e-08
-2.70574e-09
1.84831e-08
-5.80931e-09
2.59535e-08
-1.05199e-08
3.38664e-08
-1.70319e-08
4.17496e-08
-2.5448e-08
4.9253e-08
-3.57707e-08
5.62057e-08
-4.79591e-08
6.25809e-08
-6.19296e-08
6.84553e-08
-7.75869e-08
7.38644e-08
-9.48133e-08
7.88072e-08
-1.13454e-07
8.32607e-08
-1.33364e-07
8.72385e-08
-1.54362e-07
9.08559e-08
-1.7636e-07
9.42319e-08
-1.99255e-07
9.75985e-08
-2.23066e-07
1.01095e-07
-2.47815e-07
1.04902e-07
-2.73596e-07
1.09101e-07
-3.00496e-07
1.13767e-07
-3.28651e-07
1.18928e-07
-3.58145e-07
1.24629e-07
-3.89142e-07
1.30857e-07
-4.21726e-07
1.37678e-07
-4.56066e-07
1.4507e-07
-4.92277e-07
1.53079e-07
-5.30531e-07
1.61709e-07
-5.70961e-07
1.70903e-07
-6.13764e-07
1.80701e-07
-6.5906e-07
1.90936e-07
-7.07064e-07
2.01626e-07
-7.57878e-07
2.12423e-07
-8.11663e-07
2.2333e-07
-8.68489e-07
2.33651e-07
-9.2839e-07
2.43535e-07
-9.91283e-07
2.51294e-07
-1.05709e-06
2.58381e-07
-1.12528e-06
2.5936e-07
-1.1957e-06
2.61825e-07
-1.26726e-06
2.48634e-07
-1.33887e-06
2.44753e-07
-1.41088e-06
2.09713e-07
-1.47725e-06
1.9252e-07
-1.54484e-06
1.43575e-07
-1.60233e-06
8.81368e-08
4.12328e-08
-1.65772e-06
3.89837e-11
-1.69077e-10
1.0672e-10
4.5938e-10
1.87852e-10
2.68695e-09
1.60563e-10
6.68126e-09
-1.88966e-10
1.23019e-08
-1.14581e-09
1.94541e-08
-3.03701e-09
2.78591e-08
-6.19167e-09
3.70335e-08
-1.08914e-08
4.64641e-08
-1.73589e-08
5.57309e-08
-2.57219e-08
6.45833e-08
-3.60511e-08
7.29207e-08
-4.83535e-08
8.07702e-08
-6.26057e-08
8.81287e-08
-7.87468e-08
9.49569e-08
-9.66576e-08
1.01188e-07
-1.16203e-07
1.06788e-07
-1.37177e-07
1.11853e-07
-1.59443e-07
1.16504e-07
-1.8284e-07
1.21018e-07
-2.07327e-07
1.25592e-07
-2.32885e-07
1.30477e-07
-2.59585e-07
1.3581e-07
-2.87508e-07
1.41707e-07
-3.16792e-07
1.48216e-07
-3.4753e-07
1.55393e-07
-3.7989e-07
1.6322e-07
-4.13953e-07
1.71768e-07
-4.49884e-07
1.81012e-07
-4.87785e-07
1.91e-07
-5.27813e-07
2.01749e-07
-5.7009e-07
2.13202e-07
-6.14796e-07
2.25412e-07
-6.62047e-07
2.38218e-07
-7.12045e-07
2.51631e-07
-7.64906e-07
2.65316e-07
-8.20783e-07
2.79222e-07
-8.79785e-07
2.92677e-07
-9.41944e-07
3.05711e-07
-1.00726e-06
3.16632e-07
-1.07562e-06
3.2675e-07
-1.14674e-06
3.30513e-07
-1.22017e-06
3.35263e-07
-1.29564e-06
3.24156e-07
-1.37109e-06
3.20225e-07
-1.44838e-06
2.87052e-07
-1.52085e-06
2.65028e-07
-1.59469e-06
2.17456e-07
-1.66348e-06
1.56917e-07
1.09692e-07
-1.73195e-06
4.40345e-11
-2.0157e-10
1.10854e-10
4.07612e-10
1.96839e-10
2.62046e-09
2.44574e-10
6.64857e-09
1.43021e-10
1.24189e-08
-2.8849e-10
1.99e-08
-1.28888e-09
2.88741e-08
-3.14109e-09
3.88983e-08
-6.13617e-09
4.94741e-08
-1.05567e-08
6.01622e-08
-1.6624e-08
7.06652e-08
-2.45139e-08
8.08214e-08
-3.43374e-08
9.06062e-08
-4.61711e-08
9.99746e-08
-6.00504e-08
1.08845e-07
-7.59418e-08
1.17096e-07
-9.37721e-08
1.24623e-07
-1.13362e-07
1.31466e-07
-1.34559e-07
1.37706e-07
-1.57155e-07
1.43637e-07
-1.8105e-07
1.49497e-07
-2.06168e-07
1.55612e-07
-2.32538e-07
1.62189e-07
-2.6022e-07
1.69407e-07
-2.8935e-07
1.77349e-07
-3.20025e-07
1.86094e-07
-3.52422e-07
1.95622e-07
-3.86627e-07
2.06e-07
-4.22802e-07
2.17197e-07
-4.61037e-07
2.29256e-07
-5.0147e-07
2.42193e-07
-5.442e-07
2.55955e-07
-5.8938e-07
2.70598e-07
-6.37104e-07
2.85973e-07
-6.87542e-07
3.02077e-07
-7.40801e-07
3.18606e-07
-7.9701e-07
3.35444e-07
-8.56283e-07
3.51974e-07
-9.18644e-07
3.68088e-07
-9.84137e-07
3.82145e-07
-1.05261e-06
3.95239e-07
-1.12397e-06
4.01904e-07
-1.19759e-06
4.0889e-07
-1.27367e-06
4.00285e-07
-1.34981e-06
3.96385e-07
-1.42833e-06
3.65625e-07
-1.50315e-06
3.39878e-07
-1.57912e-06
2.93462e-07
-1.65349e-06
2.31272e-07
1.85889e-07
-1.7297e-06
4.88564e-11
-2.38612e-10
1.20532e-10
3.51311e-10
2.07277e-10
2.55355e-09
2.71276e-10
6.5999e-09
2.60041e-10
1.24459e-08
7.98617e-11
2.00949e-08
-4.11773e-10
2.93807e-08
-1.41121e-09
3.99105e-08
-3.15099e-09
5.12291e-08
-5.90034e-09
6.29224e-08
-9.90893e-09
7.46887e-08
-1.54095e-08
8.63329e-08
-2.25865e-08
9.77959e-08
-3.16039e-08
1.09004e-07
-4.25973e-08
1.19847e-07
-5.56418e-08
1.30156e-07
-7.07654e-08
1.39752e-07
-8.78638e-08
1.48587e-07
-1.06819e-07
1.56667e-07
-1.27413e-07
1.64255e-07
-1.49505e-07
1.71599e-07
-1.72962e-07
1.79086e-07
-1.97764e-07
1.87e-07
-2.23935e-07
1.95596e-07
-2.51599e-07
2.05017e-07
-2.80855e-07
2.15376e-07
-3.1189e-07
2.26662e-07
-3.44805e-07
2.38941e-07
-3.79763e-07
2.52166e-07
-4.16854e-07
2.66367e-07
-4.562e-07
2.81551e-07
-4.97879e-07
2.97657e-07
-5.42012e-07
3.14737e-07
-5.88662e-07
3.32655e-07
-6.37958e-07
3.5138e-07
-6.89976e-07
3.70654e-07
-7.44808e-07
3.90291e-07
-8.02547e-07
4.09736e-07
-8.63201e-07
4.28758e-07
-9.2681e-07
4.45775e-07
-9.9323e-07
4.61672e-07
-1.06243e-06
4.71135e-07
-1.13376e-06
4.80227e-07
-1.20762e-06
4.74196e-07
-1.28164e-06
4.70422e-07
-1.35815e-06
4.42187e-07
-1.43195e-06
4.1371e-07
-1.50671e-06
3.68253e-07
-1.58215e-06
3.06699e-07
2.64491e-07
-1.66077e-06
5.28419e-11
-2.79381e-10
1.31815e-10
2.88027e-10
2.23829e-10
2.48169e-09
2.90679e-10
6.54867e-09
3.00224e-10
1.24524e-08
2.05278e-10
2.02048e-08
-6.61735e-11
2.96673e-08
-6.25317e-10
4.04826e-08
-1.62614e-09
5.22452e-08
-3.27936e-09
6.45866e-08
-5.80317e-09
7.72275e-08
-9.42738e-09
8.99682e-08
-1.43565e-08
1.02738e-07
-2.07964e-08
1.15457e-07
-2.89498e-08
1.2801e-07
-3.89827e-08
1.40206e-07
-5.1028e-08
1.51802e-07
-6.50795e-08
1.62661e-07
-8.10902e-08
1.72684e-07
-9.88739e-08
1.82061e-07
-1.18279e-07
1.91015e-07
-1.39136e-07
1.9996e-07
-1.61377e-07
2.0925e-07
-1.84988e-07
2.19225e-07
-2.10068e-07
2.30101e-07
-2.36713e-07
2.42047e-07
-2.65121e-07
2.55075e-07
-2.95406e-07
2.69252e-07
-3.27747e-07
2.84519e-07
-3.62243e-07
3.00883e-07
-3.99012e-07
3.18331e-07
-4.38121e-07
3.36788e-07
-4.79662e-07
3.56284e-07
-5.23669e-07
3.76693e-07
-5.70229e-07
3.97948e-07
-6.19374e-07
4.1983e-07
-6.71158e-07
4.42089e-07
-7.25622e-07
4.64222e-07
-7.8276e-07
4.85913e-07
-8.4257e-07
5.05605e-07
-9.04923e-07
5.24039e-07
-9.698e-07
5.3604e-07
-1.03657e-06
5.47008e-07
-1.10574e-06
5.43413e-07
-1.17508e-06
5.39781e-07
-1.2468e-06
5.1395e-07
-1.31662e-06
4.8356e-07
-1.38719e-06
4.38857e-07
-1.45988e-06
3.79365e-07
3.40801e-07
-1.53621e-06
5.64685e-11
-3.23531e-10
1.42908e-10
2.17587e-10
2.43979e-10
2.40109e-09
3.15921e-10
6.49262e-09
3.27896e-10
1.24566e-08
2.49729e-10
2.02981e-08
4.47231e-11
2.98876e-08
-3.4518e-10
4.08857e-08
-1.00663e-09
5.29222e-08
-2.08363e-09
6.56749e-08
-3.73902e-09
7.8898e-08
-6.16051e-09
9.24009e-08
-9.52728e-09
1.06117e-07
-1.40374e-08
1.19979e-07
-1.99108e-08
1.33892e-07
-2.7361e-08
1.47673e-07
-3.65943e-08
1.61041e-07
-4.76909e-08
1.73781e-07
-6.06819e-08
1.85681e-07
-7.54342e-08
1.96836e-07
-9.18129e-08
2.07404e-07
-1.09635e-07
2.17799e-07
-1.28799e-07
2.28423e-07
-1.49252e-07
2.39696e-07
-1.71066e-07
2.51919e-07
-1.94325e-07
2.65332e-07
-2.1923e-07
2.79985e-07
-2.45911e-07
2.9596e-07
-2.74566e-07
3.13185e-07
-3.05309e-07
3.31646e-07
-3.38266e-07
3.513e-07
-3.73505e-07
3.72049e-07
-4.11103e-07
3.93889e-07
-4.51072e-07
4.16691e-07
-4.93463e-07
4.40348e-07
-5.38263e-07
4.6466e-07
-5.85489e-07
4.89329e-07
-6.35119e-07
5.13875e-07
-6.87126e-07
5.37936e-07
-7.41447e-07
5.59946e-07
-7.9796e-07
5.80565e-07
-8.56632e-07
5.9474e-07
-9.16856e-07
6.07245e-07
-9.79198e-07
6.05798e-07
-1.04161e-06
6.02211e-07
-1.10609e-06
5.78476e-07
-1.16931e-06
5.46803e-07
-1.23301e-06
5.02588e-07
-1.29946e-06
4.45792e-07
4.10598e-07
-1.36929e-06
6.01585e-11
-3.71134e-10
1.53793e-10
1.40251e-10
2.65351e-10
2.31029e-09
3.46004e-10
6.42812e-09
3.60653e-10
1.24584e-08
2.81506e-10
2.03927e-08
8.35992e-11
3.01011e-08
-2.66385e-10
4.12491e-08
-8.16754e-10
5.34882e-08
-1.6635e-09
6.6533e-08
-2.91833e-09
8.01679e-08
-4.72009e-09
9.4214e-08
-7.20056e-09
1.08611e-07
-1.05218e-08
1.23313e-07
-1.48841e-08
1.38263e-07
-2.05014e-08
1.53306e-07
-2.76091e-08
1.68154e-07
-3.63381e-08
1.82532e-07
-4.67777e-08
1.96127e-07
-5.88441e-08
2.08925e-07
-7.24291e-08
2.21e-07
-8.73505e-08
2.32738e-07
-1.03485e-07
2.44567e-07
-1.2075e-07
2.56979e-07
-1.39187e-07
2.7036e-07
-1.58862e-07
2.85032e-07
-1.79969e-07
3.01097e-07
-2.02649e-07
3.18665e-07
-2.27113e-07
3.3766e-07
-2.53494e-07
3.58047e-07
-2.81932e-07
3.79749e-07
-3.12501e-07
4.0264e-07
-3.45276e-07
4.26671e-07
-3.80255e-07
4.517e-07
-4.17468e-07
4.77569e-07
-4.56862e-07
5.04083e-07
-4.98421e-07
5.30903e-07
-5.42062e-07
5.57537e-07
-5.87731e-07
5.8362e-07
-6.35302e-07
6.07537e-07
-6.84635e-07
6.2991e-07
-7.35685e-07
6.45818e-07
-7.87844e-07
6.59416e-07
-8.41702e-07
6.59696e-07
-8.95419e-07
6.55947e-07
-9.50719e-07
6.33817e-07
-1.00515e-06
6.01256e-07
-1.0597e-06
5.57164e-07
-1.11689e-06
5.02952e-07
4.70132e-07
-1.17646e-06
6.40348e-11
-4.22388e-10
1.64806e-10
5.60752e-11
2.87367e-10
2.20877e-09
3.78465e-10
6.35345e-09
3.98658e-10
1.24549e-08
3.18105e-10
2.04888e-08
1.13201e-10
3.03218e-08
-2.42287e-10
4.16181e-08
-7.80811e-10
5.40425e-08
-1.57365e-09
6.73373e-08
-2.70098e-09
8.13104e-08
-4.26384e-09
9.57883e-08
-6.35502e-09
1.10715e-07
-9.09376e-09
1.26064e-07
-1.26418e-08
1.4182e-07
-1.71908e-08
1.57872e-07
-2.29701e-08
1.73939e-07
-3.01237e-08
1.89708e-07
-3.87672e-08
2.04778e-07
-4.88458e-08
2.19026e-07
-6.02704e-08
2.32436e-07
-7.2862e-08
2.45346e-07
-8.64831e-08
2.58197e-07
-1.01025e-07
2.71538e-07
-1.165e-07
2.8584e-07
-1.32952e-07
3.01508e-07
-1.5056e-07
3.18712e-07
-1.69464e-07
3.37593e-07
-1.89878e-07
3.58087e-07
-2.1195e-07
3.80138e-07
-2.3583e-07
4.03639e-07
-2.616e-07
4.28432e-07
-2.89338e-07
4.54415e-07
-3.19034e-07
4.81425e-07
-3.50707e-07
5.0925e-07
-3.84272e-07
5.37677e-07
-4.1969e-07
5.66334e-07
-4.56822e-07
5.94691e-07
-4.95583e-07
6.22396e-07
-5.35795e-07
6.47769e-07
-5.77274e-07
6.71401e-07
-6.19968e-07
6.88539e-07
-6.6325e-07
7.0271e-07
-7.07688e-07
7.04173e-07
-7.51668e-07
6.99944e-07
-7.96581e-07
6.78769e-07
-8.40735e-07
6.45427e-07
-8.84505e-07
6.00953e-07
-9.30141e-07
5.4856e-07
5.16447e-07
-9.765e-07
6.80782e-11
-4.7747e-10
1.77255e-10
-3.62222e-11
3.10165e-10
2.09715e-09
4.12327e-10
6.26795e-09
4.39672e-10
1.24444e-08
3.59749e-10
2.05846e-08
1.47605e-10
3.05498e-08
-2.23172e-10
4.20026e-08
-7.81398e-10
5.46166e-08
-1.58946e-09
6.81571e-08
-2.71352e-09
8.24496e-08
-4.2348e-09
9.73211e-08
-6.22035e-09
1.12713e-07
-8.75986e-09
1.28616e-07
-1.19833e-08
1.45053e-07
-1.60525e-08
1.61958e-07
-2.11749e-08
1.79067e-07
-2.74848e-08
1.9604e-07
-3.50971e-08
2.12397e-07
-4.39637e-08
2.27914e-07
-5.39994e-08
2.42483e-07
-6.50228e-08
2.56386e-07
-7.68828e-08
2.70067e-07
-8.94486e-08
2.84122e-07
-1.02706e-07
2.99102e-07
-1.16673e-07
3.15499e-07
-1.31507e-07
3.33552e-07
-1.47338e-07
3.53448e-07
-1.64373e-07
3.75134e-07
-1.82762e-07
3.98546e-07
-2.02656e-07
4.23544e-07
-2.24143e-07
4.4994e-07
-2.473e-07
4.77579e-07
-2.72113e-07
5.06266e-07
-2.98589e-07
5.35734e-07
-3.26623e-07
5.65738e-07
-3.56153e-07
5.95877e-07
-3.86999e-07
6.25559e-07
-4.1904e-07
6.54451e-07
-4.52059e-07
6.80807e-07
-4.85817e-07
7.0517e-07
-5.20249e-07
7.22997e-07
-5.547e-07
7.37172e-07
-5.89678e-07
7.39188e-07
-6.23784e-07
7.34066e-07
-6.58056e-07
7.13077e-07
-6.91388e-07
6.78773e-07
-7.23672e-07
6.3325e-07
-7.56527e-07
5.81383e-07
5.47763e-07
-7.87893e-07
7.22611e-11
-5.36529e-10
1.90551e-10
-1.37356e-10
3.33904e-10
1.97534e-09
4.47501e-10
6.17125e-09
4.82708e-10
1.24262e-08
4.04492e-10
2.06788e-08
1.86517e-10
3.07839e-08
-1.9968e-10
4.24026e-08
-7.84e-10
5.52169e-08
-1.62743e-09
6.90122e-08
-2.79225e-09
8.36295e-08
-4.35234e-09
9.88928e-08
-6.36358e-09
1.14738e-07
-8.90035e-09
1.31166e-07
-1.20738e-08
1.48236e-07
-1.60247e-08
1.65925e-07
-2.09391e-08
1.83987e-07
-2.69341e-08
2.02057e-07
-3.41106e-08
2.19581e-07
-4.24121e-08
2.36237e-07
-5.17449e-08
2.51827e-07
-6.19185e-08
2.66576e-07
-7.2767e-08
2.80925e-07
-8.41401e-08
2.95513e-07
-9.60003e-08
3.10967e-07
-1.0834e-07
3.27864e-07
-1.21296e-07
3.46515e-07
-1.34978e-07
3.67154e-07
-1.49581e-07
3.89748e-07
-1.65244e-07
4.14228e-07
-1.82113e-07
4.40424e-07
-2.0027e-07
4.68118e-07
-2.19788e-07
4.97103e-07
-2.40641e-07
5.27147e-07
-2.6283e-07
5.57931e-07
-2.86228e-07
5.89163e-07
-3.10753e-07
6.20415e-07
-3.36196e-07
6.51022e-07
-3.62394e-07
6.80664e-07
-3.89106e-07
7.07537e-07
-4.16031e-07
7.32106e-07
-4.43086e-07
7.50077e-07
-4.69594e-07
7.6369e-07
-4.9596e-07
7.65589e-07
-5.20986e-07
7.59107e-07
-5.45355e-07
7.37477e-07
-5.68359e-07
7.01787e-07
-5.89509e-07
6.54409e-07
-6.09585e-07
6.01423e-07
5.6372e-07
-6.25596e-07
7.6572e-11
-5.99708e-10
2.04396e-10
-2.47765e-10
3.58648e-10
1.84283e-09
4.84086e-10
6.06292e-09
5.27658e-10
1.23998e-08
4.51516e-10
2.0771e-08
2.28326e-10
3.10233e-08
-1.72543e-10
4.28175e-08
-7.8344e-10
5.58437e-08
-1.66645e-09
6.99071e-08
-2.88409e-09
8.48622e-08
-4.5089e-09
1.00529e-07
-6.59419e-09
1.16836e-07
-9.20966e-09
1.33793e-07
-1.24594e-08
1.51495e-07
-1.64744e-08
1.69955e-07
-2.14272e-08
1.88946e-07
-2.74206e-08
2.08072e-07
-3.45392e-08
2.26707e-07
-4.27128e-08
2.44432e-07
-5.18332e-08
2.60959e-07
-6.16972e-08
2.76457e-07
-7.21241e-08
2.91361e-07
-8.29479e-08
3.06354e-07
-9.41116e-08
3.22135e-07
-1.0559e-07
3.39365e-07
-1.17496e-07
3.58428e-07
-1.29924e-07
3.79605e-07
-1.43051e-07
4.02886e-07
-1.56999e-07
4.28195e-07
-1.71904e-07
4.55339e-07
-1.87834e-07
4.84068e-07
-2.04847e-07
5.14124e-07
-2.22911e-07
5.45237e-07
-2.42008e-07
5.77037e-07
-2.61996e-07
6.09176e-07
-2.82771e-07
6.41202e-07
-3.04099e-07
6.7237e-07
-3.25781e-07
7.02358e-07
-3.47557e-07
7.2933e-07
-3.69067e-07
7.53626e-07
-3.90204e-07
7.71238e-07
-4.10276e-07
7.83771e-07
-4.29564e-07
7.84909e-07
-4.47041e-07
7.76597e-07
-4.63056e-07
7.53521e-07
-4.7713e-07
7.15866e-07
-4.8846e-07
6.65741e-07
-4.96913e-07
6.09836e-07
5.65336e-07
-4.98587e-07
8.10117e-11
-6.67148e-10
2.18788e-10
-3.67878e-10
3.8442e-10
1.69913e-09
5.22155e-10
5.94249e-09
5.74644e-10
1.23646e-08
5.00767e-10
2.08611e-08
2.72441e-10
3.12679e-08
-1.42921e-10
4.32469e-08
-7.80516e-10
5.64973e-08
-1.70416e-09
7.08426e-08
-2.97771e-09
8.61506e-08
-4.67438e-09
1.02237e-07
-6.84845e-09
1.19022e-07
-9.57049e-09
1.36528e-07
-1.29447e-08
1.54878e-07
-1.71007e-08
1.74127e-07
-2.22054e-08
1.94056e-07
-2.8353e-08
2.1424e-07
-3.56147e-08
2.33976e-07
-4.39073e-08
2.52745e-07
-5.31075e-08
2.70171e-07
-6.29997e-08
2.86365e-07
-7.33904e-08
3.01761e-07
-8.41019e-08
3.17082e-07
-9.50649e-08
3.33103e-07
-1.06241e-07
3.50564e-07
-1.17728e-07
3.69922e-07
-1.29607e-07
3.91506e-07
-1.42036e-07
4.15326e-07
-1.55126e-07
4.41303e-07
-1.68993e-07
4.69217e-07
-1.83692e-07
4.98787e-07
-1.99271e-07
5.29709e-07
-2.15676e-07
5.61667e-07
-2.32876e-07
5.94245e-07
-2.50711e-07
6.27035e-07
-2.69053e-07
6.59556e-07
-2.87658e-07
6.90993e-07
-3.06286e-07
7.20997e-07
-3.24656e-07
7.47717e-07
-3.42368e-07
7.71347e-07
-3.59284e-07
7.88176e-07
-3.74711e-07
7.99207e-07
-3.88793e-07
7.99021e-07
-4.00647e-07
7.88461e-07
-4.10321e-07
7.6322e-07
-4.17426e-07
7.22971e-07
-4.20899e-07
6.69211e-07
-4.19718e-07
6.08612e-07
5.5468e-07
-4.09124e-07
8.55819e-11
-7.38997e-10
2.33724e-10
-4.98134e-10
4.11233e-10
1.54371e-09
5.61749e-10
5.80944e-09
6.23788e-10
1.232e-08
5.52388e-10
2.09489e-08
3.18857e-10
3.15178e-08
-1.11123e-10
4.36909e-08
-7.75859e-10
5.71779e-08
-1.7411e-09
7.18198e-08
-3.07224e-09
8.74964e-08
-4.84347e-09
1.0402e-07
-7.11114e-09
1.21302e-07
-9.94876e-09
1.39377e-07
-1.3464e-08
1.58403e-07
-1.77897e-08
1.78468e-07
-2.30917e-08
1.99364e-07
-2.94606e-08
2.20629e-07
-3.69576e-08
2.41481e-07
-4.54888e-08
2.61296e-07
-5.49176e-08
2.7961e-07
-6.50176e-08
2.9648e-07
-7.55857e-08
3.12338e-07
-8.64373e-08
3.27951e-07
-9.74956e-08
3.44166e-07
-1.08717e-07
3.61807e-07
-1.20191e-07
3.81402e-07
-1.31988e-07
4.03325e-07
-1.44256e-07
4.27606e-07
-1.57095e-07
4.54159e-07
-1.70608e-07
4.82739e-07
-1.84835e-07
5.13033e-07
-1.9981e-07
5.44689e-07
-2.15464e-07
5.77345e-07
-2.31751e-07
6.1054e-07
-2.48496e-07
6.43803e-07
-2.65552e-07
6.76622e-07
-2.82654e-07
7.08113e-07
-2.99536e-07
7.37889e-07
-3.15914e-07
7.64111e-07
-3.31346e-07
7.86786e-07
-3.4566e-07
8.02511e-07
-3.58177e-07
8.11731e-07
-3.68905e-07
8.09777e-07
-3.77084e-07
7.96647e-07
-3.82515e-07
7.68671e-07
-3.84783e-07
7.25234e-07
-3.82592e-07
6.67011e-07
-3.74135e-07
6.00109e-07
5.34399e-07
-3.53919e-07
9.02863e-11
-8.15402e-10
2.49208e-10
-6.38964e-10
4.39101e-10
1.37602e-09
6.02897e-10
5.66326e-09
6.75186e-10
1.22651e-08
6.06541e-10
2.10339e-08
3.67724e-10
3.1773e-08
-7.70738e-11
4.41498e-08
-7.69489e-10
5.7886e-08
-1.77743e-09
7.28396e-08
-3.16784e-09
8.89012e-08
-5.01585e-09
1.05879e-07
-7.38009e-09
1.23679e-07
-1.03376e-08
1.42347e-07
-1.40009e-08
1.62075e-07
-1.85076e-08
1.82989e-07
-2.40251e-08
2.04888e-07
-3.06428e-08
2.27266e-07
-3.84139e-08
2.4926e-07
-4.72358e-08
2.70137e-07
-5.69601e-08
2.89346e-07
-6.73517e-08
3.06887e-07
-7.82004e-08
3.23195e-07
-8.93177e-08
3.39084e-07
-1.00625e-07
3.55478e-07
-1.12077e-07
3.7328e-07
-1.23761e-07
3.93093e-07
-1.35746e-07
4.1533e-07
-1.48173e-07
4.40043e-07
-1.61133e-07
4.67136e-07
-1.74723e-07
4.96337e-07
-1.8897e-07
5.27299e-07
-2.03899e-07
5.59623e-07
-2.19429e-07
5.92898e-07
-2.355e-07
6.26618e-07
-2.51925e-07
6.60249e-07
-2.68539e-07
6.93245e-07
-2.85071e-07
7.24662e-07
-3.01228e-07
7.54055e-07
-3.16717e-07
7.79616e-07
-3.31079e-07
8.01155e-07
-3.44108e-07
8.15558e-07
-3.55152e-07
8.22781e-07
-3.641e-07
8.18749e-07
-3.70278e-07
8.0283e-07
-3.73292e-07
7.71701e-07
-3.72657e-07
7.2459e-07
-3.66874e-07
6.61215e-07
-3.53489e-07
5.86674e-07
5.07146e-07
-3.26303e-07
9.51269e-11
-8.96524e-10
2.65241e-10
-7.90814e-10
4.6804e-10
1.19549e-09
6.4563e-10
5.50337e-09
7.28917e-10
1.21993e-08
6.63371e-10
2.11159e-08
4.1922e-10
3.20335e-08
-4.05899e-11
4.46237e-08
-7.61199e-10
5.86222e-08
-1.81291e-09
7.39031e-08
-3.2643e-09
9.03666e-08
-5.19135e-09
1.07818e-07
-7.65498e-09
1.26154e-07
-1.0736e-08
1.45439e-07
-1.45522e-08
1.659e-07
-1.92468e-08
1.87698e-07
-2.49895e-08
2.10637e-07
-3.18693e-08
2.34164e-07
-3.99323e-08
2.5733e-07
-4.90681e-08
2.79291e-07
-5.91173e-08
2.99405e-07
-6.9837e-08
3.17621e-07
-8.10114e-08
3.34378e-07
-9.24509e-08
3.50539e-07
-1.04077e-07
3.67108e-07
-1.15849e-07
3.85072e-07
-1.27853e-07
4.05104e-07
-1.40162e-07
4.27658e-07
-1.52912e-07
4.52803e-07
-1.66194e-07
4.80434e-07
-1.80098e-07
5.10249e-07
-1.94648e-07
5.41867e-07
-2.09858e-07
5.74838e-07
-2.25641e-07
6.08703e-07
-2.41926e-07
6.42909e-07
-2.5852e-07
6.76863e-07
-2.75241e-07
7.09974e-07
-2.91817e-07
7.41253e-07
-3.07935e-07
7.7018e-07
-3.23299e-07
7.94994e-07
-3.37444e-07
8.15305e-07
-3.50131e-07
8.28262e-07
-3.60747e-07
8.33401e-07
-3.6908e-07
8.27103e-07
-3.74527e-07
8.0828e-07
-3.76549e-07
7.73735e-07
-3.74548e-07
7.22575e-07
-3.66859e-07
6.53507e-07
-3.50532e-07
5.70295e-07
4.75453e-07
-3.18907e-07
1.00108e-10
-9.8252e-10
2.8183e-10
-9.54125e-10
4.98062e-10
1.00157e-09
6.89979e-10
5.32922e-09
7.8501e-10
1.21217e-08
7.23014e-10
2.11943e-08
4.73535e-10
3.22993e-08
-1.47319e-12
4.51127e-08
-7.50723e-10
5.93868e-08
-1.84719e-09
7.50112e-08
-3.36118e-09
9.18943e-08
-5.36946e-09
1.09837e-07
-7.93533e-09
1.28732e-07
-1.11436e-08
1.48658e-07
-1.51172e-08
1.69882e-07
-2.00057e-08
1.926e-07
-2.59812e-08
2.16618e-07
-3.31325e-08
2.41333e-07
-4.14986e-08
2.65704e-07
-5.09613e-08
2.88771e-07
-6.13503e-08
3.09805e-07
-7.24153e-08
3.287e-07
-8.3936e-08
3.45906e-07
-9.57227e-08
3.62341e-07
-1.07699e-07
3.79089e-07
-1.1983e-07
3.97222e-07
-1.32204e-07
4.17484e-07
-1.44898e-07
4.40371e-07
-1.58051e-07
4.65965e-07
-1.71752e-07
4.94151e-07
-1.86091e-07
5.24595e-07
-2.01086e-07
5.56879e-07
-2.16749e-07
5.90505e-07
-2.32989e-07
6.24962e-07
-2.49726e-07
6.59651e-07
-2.66764e-07
6.93919e-07
-2.8391e-07
7.27127e-07
-3.00891e-07
7.58248e-07
-3.17386e-07
7.86681e-07
-3.33094e-07
8.10715e-07
-3.47557e-07
8.2977e-07
-3.60506e-07
8.41227e-07
-3.71375e-07
8.44273e-07
-3.79872e-07
8.35618e-07
-3.85447e-07
8.13855e-07
-3.87462e-07
7.75756e-07
-3.85199e-07
7.20294e-07
-3.7685e-07
6.45135e-07
-3.59122e-07
5.52512e-07
4.41336e-07
-3.25073e-07
1.05233e-10
-1.07356e-09
2.98978e-10
-1.12936e-09
5.29183e-10
7.93645e-10
7.35979e-10
5.1402e-09
8.43383e-10
1.20316e-08
7.85595e-10
2.12684e-08
5.30886e-10
3.25701e-08
4.04985e-11
4.5617e-08
-7.37782e-10
6.01801e-08
-1.87988e-09
7.61648e-08
-3.45797e-09
9.34856e-08
-5.54957e-09
1.11939e-07
-8.22041e-09
1.31414e-07
-1.15594e-08
1.52008e-07
-1.56952e-08
1.74026e-07
-2.07835e-08
1.97701e-07
-2.69988e-08
2.22839e-07
-3.443e-08
2.48781e-07
-4.31086e-08
2.74389e-07
-5.29082e-08
2.98587e-07
-6.36474e-08
3.20553e-07
-7.50688e-08
3.40135e-07
-8.69475e-08
3.57792e-07
-9.90944e-08
3.74502e-07
-1.11436e-07
3.91435e-07
-1.23944e-07
4.09748e-07
-1.36712e-07
4.30258e-07
-1.49821e-07
4.53497e-07
-1.63413e-07
4.79565e-07
-1.7758e-07
5.08331e-07
-1.9241e-07
5.39431e-07
-2.07922e-07
5.72406e-07
-2.24123e-07
6.0671e-07
-2.40922e-07
6.41779e-07
-2.58232e-07
6.76966e-07
-2.75858e-07
7.11561e-07
-2.93599e-07
7.44874e-07
-3.11182e-07
7.75845e-07
-3.28283e-07
8.03786e-07
-3.44601e-07
8.27044e-07
-3.59688e-07
8.44859e-07
-3.73258e-07
8.54809e-07
-3.84787e-07
8.55802e-07
-3.93928e-07
8.44774e-07
-4.0017e-07
8.20093e-07
-4.0281e-07
7.78399e-07
-4.01023e-07
7.18484e-07
-3.92891e-07
6.36976e-07
-3.74923e-07
5.34488e-07
4.06441e-07
-3.40096e-07
1.10508e-10
-1.16982e-09
3.16692e-10
-1.31695e-09
5.61416e-10
5.71133e-10
7.83669e-10
4.93569e-09
9.04116e-10
1.19284e-08
8.51238e-10
2.13374e-08
5.91471e-10
3.28459e-08
8.55535e-11
4.61366e-08
-7.22076e-10
6.10023e-08
-1.91056e-09
7.73644e-08
-3.55413e-09
9.51417e-08
-5.731e-09
1.14126e-07
-8.50943e-09
1.34202e-07
-1.19826e-08
1.5549e-07
-1.6285e-08
1.78336e-07
-2.15788e-08
2.03006e-07
-2.80409e-08
2.29306e-07
-3.57599e-08
2.56515e-07
-4.47597e-08
2.83395e-07
-5.49053e-08
3.08749e-07
-6.6004e-08
3.31661e-07
-7.77908e-08
3.51934e-07
-9.00367e-08
3.70045e-07
-1.02553e-07
3.87032e-07
-1.15271e-07
4.04156e-07
-1.28168e-07
4.22661e-07
-1.41342e-07
4.43437e-07
-1.54883e-07
4.67055e-07
-1.68935e-07
4.93625e-07
-1.83592e-07
5.23001e-07
-1.98943e-07
5.54788e-07
-2.15007e-07
5.88484e-07
-2.3179e-07
6.23496e-07
-2.49201e-07
6.59206e-07
-2.67148e-07
6.94917e-07
-2.85436e-07