/*--------------------------------*- C++ -*----------------------------------*\
  =========                 |
  \\      /  F ield         | OpenFOAM: The Open Source CFD Toolbox
   \\    /   O peration     | Website:  https://openfoam.org
    \\  /    A nd           | Version:  7
     \\/     M anipulation  |
\*---------------------------------------------------------------------------*/
FoamFile
{
    version     2.0;
    format      ascii;
    class       volScalarField;
    location    "0.14";
    object      nut;
}
// * * * * * * * * * * * * * * * * * * * * * * * * * * * * * * * * * * * * * //

dimensions      [0 2 -1 0 0 0 0];

internalField   nonuniform List<scalar> 
70000
(
9.96352e-12
6.8864e-14
2.54571e-16
8.4799e-17
4.91165e-17
8.05717e-17
2.86087e-17
1.35368e-17
9.26437e-18
6.82573e-18
5.055e-18
3.81337e-18
2.94716e-18
2.32846e-18
1.87486e-18
1.53505e-18
1.27605e-18
1.07546e-18
9.18409e-19
7.93981e-19
6.94696e-19
6.1493e-19
5.50609e-19
4.98717e-19
4.56977e-19
4.23799e-19
3.97689e-19
3.78448e-19
3.64172e-19
3.56972e-19
3.52751e-19
3.58325e-19
3.63743e-19
3.86618e-19
4.02483e-19
4.52786e-19
4.8408e-19
5.76247e-19
6.52601e-19
7.72493e-19
1.06923e-18
9.61452e-19
2.54138e-18
7.02656e-19
1.12408e-17
4.89961e-21
1.07345e-16
3.31796e-17
2.49599e-15
1.82894e-12
1.0429e-10
5.98439e-12
6.43706e-14
2.14486e-14
2.88724e-16
1.69972e-17
2.54085e-17
2.13933e-17
1.2489e-17
7.48012e-18
4.93812e-18
3.47117e-18
2.5361e-18
1.90784e-18
1.47114e-18
1.15903e-18
9.30363e-19
7.59465e-19
6.29198e-19
5.28453e-19
4.49446e-19
3.8678e-19
3.36642e-19
2.9619e-19
2.63444e-19
2.3673e-19
2.15258e-19
1.97468e-19
1.84025e-19
1.72305e-19
1.65504e-19
1.58024e-19
1.58317e-19
1.5377e-19
1.6389e-19
1.61638e-19
1.86114e-19
1.91256e-19
2.28409e-19
2.81899e-19
2.73729e-19
6.33118e-19
2.5308e-19
2.84454e-18
6.52394e-19
3.02773e-17
3.74631e-17
7.22735e-16
8.35892e-15
2.84035e-13
3.19311e-10
3.39231e-12
1.90129e-13
1.98221e-14
7.53385e-16
5.62372e-17
6.9007e-18
3.98785e-18
2.01762e-18
9.95325e-19
5.50541e-19
3.36773e-19
2.18852e-19
1.47981e-19
1.03211e-19
7.38891e-20
5.40702e-20
4.03433e-20
3.05861e-20
2.35372e-20
1.83614e-20
1.45232e-20
1.16669e-20
9.54464e-21
8.00131e-21
6.91647e-21
6.26702e-21
5.96263e-21
6.1763e-21
6.77142e-21
8.35946e-21
1.0648e-20
1.54476e-20
2.19653e-20
3.54407e-20
5.36845e-20
9.14077e-20
1.44513e-19
2.50963e-19
4.15531e-19
7.26495e-19
1.2977e-18
2.40117e-18
5.15429e-18
1.24791e-17
4.14484e-17
1.41011e-16
1.06032e-15
4.08891e-15
2.13284e-13
6.15516e-09
1.92405e-11
7.79843e-13
6.05779e-14
5.38345e-15
9.02115e-16
1.04843e-16
2.74295e-17
1.12893e-17
4.91423e-18
2.24466e-18
1.12344e-18
6.10496e-19
3.5079e-19
2.09036e-19
1.27548e-19
7.88683e-20
4.89066e-20
3.00581e-20
1.80526e-20
1.03955e-20
5.57952e-21
2.66262e-21
1.03042e-21
2.58998e-22
1.76883e-23
2.62161e-24
1.64069e-22
9.76256e-22
3.22609e-21
8.22277e-21
1.80695e-20
3.65631e-20
6.93709e-20
1.28308e-19
2.27733e-19
4.07923e-19
6.99011e-19
1.25541e-18
2.09991e-18
3.90355e-18
6.41335e-18
1.29223e-17
2.18102e-17
5.14462e-17
1.13205e-16
2.78546e-16
1.67627e-15
5.63061e-16
2.52395e-13
2.32789e-09
2.2296e-10
4.42671e-12
3.18715e-13
2.25503e-14
4.27583e-15
6.88211e-16
1.90246e-16
7.67732e-17
3.36035e-17
1.54582e-17
7.70738e-18
4.15194e-18
2.36842e-18
1.40668e-18
8.59614e-19
5.35299e-19
3.36528e-19
2.11499e-19
1.31407e-19
7.96005e-20
4.61222e-20
2.48337e-20
1.18256e-20
4.52146e-21
1.09067e-21
6.03269e-23
2.12524e-23
9.49423e-22
5.34144e-21
1.74256e-20
4.40336e-20
9.75189e-20
1.96306e-19
3.79797e-19
6.93854e-19
1.27649e-18
2.21769e-18
4.05464e-18
6.81965e-18
1.28025e-17
2.10644e-17
4.19002e-17
7.01275e-17
1.51006e-16
3.12688e-16
5.818e-16
2.96605e-15
1.08953e-18
2.83188e-13
3.02224e-09
5.29104e-09
4.32715e-11
1.92451e-12
1.05465e-13
1.74058e-14
3.08776e-15
8.87831e-16
3.57547e-16
1.57788e-16
7.3359e-17
3.67254e-17
1.97629e-17
1.1245e-17
6.66675e-18
4.0745e-18
2.54478e-18
1.6107e-18
1.02437e-18
6.48515e-19
4.04184e-19
2.44425e-19
1.40499e-19
7.42994e-20
3.41516e-20
1.21289e-20
2.42229e-21
4.83853e-23
3.23998e-22
5.76664e-21
2.72221e-20
8.21828e-20
2.02148e-19
4.34577e-19
8.80558e-19
1.65946e-18
3.12823e-18
5.52161e-18
1.02386e-17
1.7359e-17
3.28283e-17
5.42257e-17
1.07423e-16
1.79669e-16
3.71919e-16
7.47517e-16
1.25158e-15
5.42619e-15
5.01568e-16
3.19824e-13
1.07687e-09
4.75887e-09
3.70097e-09
1.82642e-11
6.52799e-13
8.82677e-14
1.4386e-14
3.8661e-15
1.47667e-15
6.35727e-16
2.92467e-16
1.45342e-16
7.7678e-17
4.39327e-17
2.59226e-17
1.57939e-17
9.85396e-18
6.24688e-18
3.99273e-18
2.55188e-18
1.61561e-18
1.00131e-18
5.97813e-19
3.35591e-19
1.70307e-19
7.25993e-20
2.20551e-20
2.8101e-21
2.03611e-25
3.94994e-21
3.43434e-20
1.31077e-19
3.63937e-19
8.41599e-19
1.7866e-18
3.4779e-18
6.70113e-18
1.20262e-17
2.25357e-17
3.85744e-17
7.31678e-17
1.21754e-16
2.39464e-16
4.03571e-16
8.10721e-16
1.61447e-15
2.60825e-15
9.93474e-15
4.41477e-15
3.66683e-13
2.42582e-09
3.86364e-09
8.16903e-10
2.36785e-09
8.32263e-12
6.82695e-13
8.52611e-14
1.91734e-14
6.5091e-15
2.59886e-15
1.13687e-15
5.44785e-16
2.83318e-16
1.56943e-16
9.11449e-17
5.48674e-17
3.39341e-17
2.13915e-17
1.36395e-17
8.7284e-18
5.55808e-18
3.48573e-18
2.12412e-18
1.23333e-18
6.62006e-19
3.11523e-19
1.15512e-19
2.55776e-20
8.96963e-22
1.41977e-21
3.79791e-20
1.94962e-19
6.18288e-19
1.5402e-18
3.41831e-18
6.85872e-18
1.34614e-17
2.45229e-17
4.62572e-17
7.99216e-17
1.51317e-16
2.54146e-16
4.93717e-16
8.42273e-16
1.644e-15
3.27125e-15
5.26829e-15
1.80011e-14
1.65999e-14
4.31856e-13
3.36696e-09
4.36411e-09
5.86249e-10
2.97029e-10
5.41593e-10
1.75138e-11
8.93464e-13
1.33678e-13
3.60927e-14
1.24559e-14
4.91614e-15
2.18172e-15
1.07008e-15
5.6651e-16
3.17518e-16
1.85846e-16
1.12418e-16
6.96484e-17
4.38317e-17
2.77958e-17
1.76126e-17
1.1044e-17
6.7702e-18
3.98901e-18
2.20242e-18
1.09188e-18
4.48515e-19
1.26611e-19
1.27865e-20
1.12755e-22
4.05949e-20
2.94029e-19
1.06309e-18
2.83238e-18
6.52547e-18
1.34159e-17
2.66744e-17
4.91333e-17
9.28585e-17
1.61569e-16
3.03988e-16
5.1476e-16
9.84201e-16
1.69798e-15
3.22783e-15
6.409e-15
1.04723e-14
3.24718e-14
4.45201e-14
5.32517e-13
3.4081e-09
4.60102e-09
6.66896e-10
1.91066e-10
4.57547e-11
6.53095e-11
2.64047e-10
2.53265e-12
3.4929e-13
8.65037e-14
2.77386e-14
1.06439e-14
4.6889e-15
2.28651e-15
1.20139e-15
6.6774e-16
3.8733e-16
2.319e-16
1.41918e-16
8.7978e-17
5.47532e-17
3.38756e-17
2.05922e-17
1.21052e-17
6.72584e-18
3.40209e-18
1.46392e-18
4.61733e-19
6.78973e-20
4.6302e-23
4.8429e-20
4.90499e-19
1.97201e-18
5.5179e-18
1.30243e-17
2.71678e-17
5.42917e-17
1.00496e-16
1.89243e-16
3.30193e-16
6.14715e-16
1.04584e-15
1.96289e-15
3.41028e-15
6.32996e-15
1.24798e-14
2.08147e-14
5.90878e-14
1.01223e-13
6.98457e-13
3.20867e-09
4.38413e-09
7.67021e-10
1.99277e-10
3.53232e-11
2.08567e-11
1.26908e-11
2.00499e-11
1.1108e-10
1.90476e-12
3.03328e-13
8.1257e-14
2.8541e-14
1.18803e-14
5.54787e-15
2.8136e-15
1.51682e-15
8.55496e-16
4.98274e-16
2.9634e-16
1.78076e-16
1.06959e-16
6.34307e-17
3.65569e-17
2.00257e-17
1.00626e-17
4.35557e-18
1.41964e-18
2.36893e-19
1.18747e-21
7.90539e-20
9.87736e-19
4.1856e-18
1.19392e-17
2.83267e-17
5.91393e-17
1.17581e-16
2.16939e-16
4.04356e-16
7.03405e-16
1.28971e-15
2.19358e-15
4.03071e-15
7.01235e-15
1.27242e-14
2.47713e-14
4.20752e-14
1.10147e-13
2.12795e-13
9.83944e-13
3.01408e-09
3.96499e-09
8.38789e-10
2.09708e-10
3.74097e-11
1.914e-11
8.05355e-12
4.23239e-12
3.85834e-12
6.4443e-12
9.97039e-11
3.6571e-12
4.39933e-13
1.13381e-13
3.98107e-14
1.66336e-14
7.77795e-15
3.93019e-15
2.09617e-15
1.1594e-15
6.55316e-16
3.73379e-16
2.11421e-16
1.16939e-16
6.1731e-17
2.99912e-17
1.25842e-17
3.98188e-18
6.44011e-19
2.88478e-21
2.125e-19
2.57682e-18
1.06837e-17
2.99161e-17
6.97049e-17
1.43288e-16
2.80027e-16
5.09953e-16
9.33554e-16
1.60773e-15
2.88757e-15
4.87983e-15
8.75003e-15
1.51435e-14
2.68519e-14
5.13115e-14
8.81593e-14
2.13866e-13
4.36372e-13
1.498e-12
2.84254e-09
3.50424e-09
8.99624e-10
2.06756e-10
4.06996e-11
2.05065e-11
8.39682e-12
3.56237e-12
2.22024e-12
1.71605e-12
1.55989e-12
1.87319e-12
4.17666e-12
6.91776e-11
1.6089e-12
2.63346e-13
7.77606e-14
2.95779e-14
1.29485e-14
6.17682e-15
3.10567e-15
1.60644e-15
8.37177e-16
4.30013e-16
2.11877e-16
9.61519e-17
3.74498e-17
1.07398e-17
1.42426e-18
3.43454e-22
9.81887e-19
9.09726e-18
3.41799e-17
9.02826e-17
2.01437e-16
4.00386e-16
7.58669e-16
1.34845e-15
2.40266e-15
4.06253e-15
7.10138e-15
1.18378e-14
2.06261e-14
3.52451e-14
6.09424e-14
1.13548e-13
1.95514e-13
4.4051e-13
9.076e-13
2.47913e-12
2.67239e-09
3.04793e-09
9.67763e-10
1.95262e-10
4.36575e-11
2.17853e-11
9.51556e-12
3.80876e-12
2.14336e-12
1.42314e-12
1.00162e-12
7.63054e-13
6.55843e-13
6.58124e-13
8.24336e-13
1.56812e-12
1.16635e-11
1.79914e-12
2.78833e-13
7.55023e-14
2.68901e-14
1.09474e-14
4.75429e-15
2.10231e-15
9.07008e-16
3.6163e-16
1.21787e-16
2.83135e-17
2.23096e-18
4.0074e-20
7.3937e-18
4.53096e-17
1.44206e-16
3.45141e-16
7.17313e-16
1.35029e-15
2.44047e-15
4.17624e-15
7.16094e-15
1.17653e-14
1.98501e-14
3.23437e-14
5.44404e-14
9.10181e-14
1.52816e-13
2.75406e-13
4.69884e-13
9.82667e-13
1.97784e-12
4.4964e-12
2.49378e-09
2.61223e-09
1.04668e-09
1.80826e-10
4.67526e-11
2.25047e-11
1.07547e-11
4.24165e-12
2.311e-12
1.48043e-12
9.78057e-13
6.68094e-13
4.85654e-13
3.78114e-13
3.1536e-13
2.83752e-13
2.80343e-13
3.15003e-13
4.34666e-13
9.07337e-13
6.94008e-12
4.78883e-15
5.54973e-14
1.83197e-14
5.76278e-15
1.70742e-15
4.10589e-16
5.47279e-17
3.60214e-19
8.67208e-18
9.94808e-17
3.6402e-16
9.05979e-16
1.85896e-15
3.45512e-15
5.9691e-15
1.00335e-14
1.61873e-14
2.62449e-14
4.12425e-14
6.62967e-14
1.04187e-13
1.67778e-13
2.71051e-13
4.38335e-13
7.55853e-13
1.2595e-12
2.43372e-12
4.6561e-12
9.04796e-12
2.3073e-09
2.21119e-09
1.13105e-09
1.66048e-10
5.04357e-11
2.27923e-11
1.20194e-11
4.72461e-12
2.53154e-12
1.61581e-12
1.0578e-12
7.02022e-13
4.85602e-13
3.51636e-13
2.6485e-13
2.0674e-13
1.67238e-13
1.40404e-13
1.22699e-13
1.12285e-13
1.08922e-13
1.14817e-13
1.38624e-13
2.16596e-13
6.13211e-13
1.05971e-11
8.20011e-12
3.18874e-14
5.32935e-15
4.45532e-15
5.99658e-15
8.94079e-15
1.34901e-14
2.00709e-14
2.96899e-14
4.32463e-14
6.33768e-14
9.16239e-14
1.34842e-13
1.95802e-13
2.91566e-13
4.30492e-13
6.49752e-13
9.92374e-13
1.5197e-12
2.46191e-12
3.92155e-12
6.91869e-12
1.22389e-11
2.0565e-11
2.11525e-09
1.85107e-09
1.21357e-09
1.51957e-10
5.47437e-11
2.27709e-11
1.3329e-11
5.25397e-12
2.76876e-12
1.77124e-12
1.16716e-12
7.71713e-13
5.26593e-13
3.72992e-13
2.71978e-13
2.02839e-13
1.54238e-13
1.19286e-13
9.35588e-14
7.41722e-14
5.92411e-14
4.7527e-14
3.82161e-14
3.07684e-14
2.4845e-14
2.02699e-14
1.70906e-14
1.58578e-14
1.91518e-14
4.50278e-14
4.2266e-13
3.10122e-11
6.78938e-11
7.18117e-12
2.51824e-12
1.60011e-12
1.37063e-12
1.36668e-12
1.52109e-12
1.78476e-12
2.22554e-12
2.84529e-12
3.77726e-12
5.15515e-12
7.14151e-12
1.04234e-11
1.52226e-11
2.37991e-11
3.74608e-11
5.41447e-11
1.91929e-09
1.53231e-09
1.28765e-09
1.39313e-10
5.94304e-11
2.2507e-11
1.46806e-11
5.84939e-12
3.0242e-12
1.93664e-12
1.28902e-12
8.5519e-13
5.81916e-13
4.09734e-13
2.95941e-13
2.17491e-13
1.61904e-13
1.21625e-13
9.1783e-14
6.91953e-14
5.17855e-14
3.8193e-14
2.75179e-14
1.9147e-14
1.2654e-14
7.73243e-15
4.16445e-15
1.79235e-15
4.79155e-16
2.63545e-17
1.75031e-17
7.46497e-16
4.65425e-15
1.64309e-14
4.22197e-14
7.10172e-14
2.99836e-14
3.20014e-13
9.28093e-11
2.20215e-10
1.25533e-10
8.09698e-11
6.52182e-11
6.10876e-11
6.3357e-11
7.20312e-11
8.57095e-11
1.08868e-10
1.41262e-10
1.70098e-10
1.72165e-09
1.2548e-09
1.34761e-09
1.2899e-10
6.40932e-11
2.20685e-11
1.60348e-11
6.52649e-12
3.30404e-12
2.11277e-12
1.42116e-12
9.48026e-13
6.44956e-13
4.53365e-13
3.26625e-13
2.38974e-13
1.76613e-13
1.31268e-13
9.75899e-14
7.20857e-14
5.24883e-14
3.73243e-14
2.56223e-14
1.67138e-14
1.01148e-14
5.45039e-15
2.41333e-15
7.25104e-16
7.39279e-17
1.26626e-18
3.47718e-16
2.65597e-15
1.04164e-14
3.06011e-14
7.79691e-14
1.81065e-13
4.03169e-13
8.66019e-13
1.85115e-12
3.92646e-12
8.3456e-12
1.7649e-11
3.3722e-11
4.33331e-11
2.53708e-12
8.75209e-11
4.08332e-10
5.35392e-10
5.7141e-10
5.76306e-10
1.5251e-09
1.01822e-09
1.38858e-09
1.21905e-10
6.82118e-11
2.15526e-11
1.73287e-11
7.29597e-12
3.61296e-12
2.301e-12
1.56398e-12
1.0503e-12
7.14843e-13
5.02014e-13
3.61343e-13
2.63948e-13
1.94499e-13
1.43899e-13
1.06257e-13
7.77224e-14
5.58078e-14
3.8912e-14
2.59874e-14
1.63097e-14
9.33667e-15
4.62363e-15
1.77326e-15
3.9095e-16
1.03778e-17
3.95806e-17
8.89089e-16
4.57921e-15
1.49573e-14
3.90658e-14
9.06536e-14
1.94243e-13
3.99844e-13
7.9639e-13
1.57285e-12
3.08627e-12
6.10811e-12
1.23288e-11
2.54816e-11
5.56068e-11
1.28557e-10
3.27935e-10
9.58494e-10
2.7866e-09
5.52757e-09
5.3684e-09
1.3326e-09
8.21403e-10
1.40653e-09
1.18919e-10
7.1189e-11
2.10842e-11
1.84846e-11
8.16505e-12
3.95485e-12
2.5019e-12
1.7175e-12
1.16258e-12
7.91986e-13
5.55631e-13
3.99637e-13
2.9162e-13
2.14482e-13
1.58207e-13
1.16304e-13
8.45159e-14
6.0102e-14
4.13164e-14
2.70283e-14
1.64548e-14
8.99526e-15
4.13318e-15
1.37775e-15
2.11602e-16
8.77591e-20
1.70003e-16
1.79045e-15
7.4426e-15
2.17892e-14
5.30115e-14
1.16406e-13
2.38253e-13
4.69498e-13
8.97632e-13
1.69731e-12
3.18505e-12
5.99802e-12
1.14381e-11
2.21782e-11
4.45671e-11
9.34578e-11
2.08663e-10
5.14237e-10
1.34548e-09
3.65464e-09
6.89793e-09
1.1471e-09
6.62037e-10
1.39857e-09
1.20781e-10
7.24633e-11
2.07991e-11
1.94201e-11
9.13624e-12
4.33381e-12
2.71574e-12
1.88103e-12
1.28509e-12
8.76818e-13
6.14455e-13
4.41556e-13
3.21894e-13
2.36334e-13
1.73843e-13
1.2728e-13
9.19414e-14
6.48047e-14
4.39653e-14
2.82019e-14
1.66684e-14
8.69788e-15
3.69068e-15
1.0453e-15
9.57185e-17
2.60425e-18
4.77447e-16
3.31642e-15
1.1894e-14
3.21781e-14
7.44311e-14
1.5737e-13
3.12696e-13
5.99916e-13
1.12035e-12
2.06835e-12
3.79204e-12
6.96559e-12
1.29207e-11
2.43215e-11
4.70349e-11
9.44111e-11
1.97947e-10
4.46877e-10
1.03592e-09
2.44274e-09
4.46232e-09
9.71539e-10
5.36778e-10
1.36331e-09
1.28121e-10
7.16502e-11
2.08206e-11
2.00592e-11
1.02045e-11
4.75435e-12
2.94274e-12
2.05332e-12
1.41755e-12
9.69555e-13
6.7863e-13
4.87146e-13
3.54762e-13
2.60002e-13
1.90706e-13
1.39038e-13
9.98105e-14
6.97007e-14
4.66341e-14
2.92946e-14
1.67672e-14
8.30715e-15
3.21137e-15
7.37661e-16
2.75485e-17
3.94529e-17
1.11204e-15
5.85429e-15
1.87463e-14
4.76166e-14
1.05796e-13
2.1721e-13
4.22235e-13
7.95012e-13
1.46202e-12
2.65971e-12
4.81101e-12
8.71963e-12
1.59406e-11
2.95778e-11
5.61226e-11
1.10326e-10
2.24192e-10
4.83431e-10
1.04703e-09
2.22829e-09
3.68919e-09
8.08609e-10
4.41448e-10
1.30111e-09
1.41427e-10
6.86143e-11
2.12382e-11
2.03454e-11
1.13533e-11
5.22139e-12
3.18308e-12
2.23266e-12
1.55912e-12
1.07014e-12
7.48133e-13
5.3632e-13
3.9013e-13
2.85395e-13
2.08699e-13
1.51467e-13
1.08003e-13
7.46632e-14
4.91982e-14
3.01961e-14
1.66673e-14
7.7736e-15
2.68018e-15
4.6085e-16
1.85708e-18
1.86706e-16
2.32073e-15
9.98068e-15
2.91531e-14
7.02111e-14
1.50729e-13
3.01877e-13
5.76294e-13
1.06913e-12
1.94351e-12
3.49952e-12
6.27436e-12
1.12818e-11
2.0454e-11
3.76747e-11
7.07809e-11
1.37637e-10
2.749e-10
5.76001e-10
1.19272e-09
2.35561e-09
3.60571e-09
6.60619e-10
3.71359e-10
1.21421e-09
1.60913e-10
6.35057e-11
2.20926e-11
2.02528e-11
1.2551e-11
5.73991e-12
3.43688e-12
2.41689e-12
1.70833e-12
1.17815e-12
8.22732e-13
5.88825e-13
4.27768e-13
3.12323e-13
2.27656e-13
1.64415e-13
1.16376e-13
7.95608e-14
5.15438e-14
3.08184e-14
1.63148e-14
7.08071e-15
2.1106e-15
2.35194e-16
6.14567e-19
5.84017e-16
4.49641e-15
1.65555e-14
4.47825e-14
1.0298e-13
2.14462e-13
4.20185e-13
7.89457e-13
1.44613e-12
2.60349e-12
4.65032e-12
8.28268e-12
1.48136e-11
2.67168e-11
4.90087e-11
9.15696e-11
1.76902e-10
3.49442e-10
7.16412e-10
1.43122e-09
2.65709e-09
3.8171e-09
5.2929e-10
3.21649e-10
1.10663e-09
1.8631e-10
5.67904e-11
2.33537e-11
1.97966e-11
1.3747e-11
6.3142e-12
3.70405e-12
2.60351e-12
1.86291e-12
1.29269e-12
9.01927e-13
6.44203e-13
4.67277e-13
3.40463e-13
2.47312e-13
1.77658e-13
1.24735e-13
8.42291e-14
5.35404e-14
3.10722e-14
1.56666e-14
6.22959e-15
1.53217e-15
8.18614e-17
3.43664e-17
1.47423e-15
8.25272e-15
2.68563e-14
6.80468e-14
1.5023e-13
3.04429e-13
5.8472e-13
1.08278e-12
1.96108e-12
3.5004e-12
6.20993e-12
1.10009e-11
1.95965e-11
3.52158e-11
6.44309e-11
1.19986e-10
2.30686e-10
4.51759e-10
9.08076e-10
1.75401e-09
3.07654e-09
4.18671e-09
4.15625e-10
2.87522e-10
9.8396e-10
2.16577e-10
4.92267e-11
2.48923e-11
1.90367e-11
1.48719e-11
6.94645e-12
3.98416e-12
2.78972e-12
2.01975e-12
1.41224e-12
9.84875e-13
7.01749e-13
5.08054e-13
3.69336e-13
2.67286e-13
1.90882e-13
1.32823e-13
8.84618e-14
5.50354e-14
3.08634e-14
1.46893e-14
5.23828e-15
9.86756e-16
1.05123e-17
2.1886e-16
3.26368e-15
1.45349e-14
4.27692e-14
1.0242e-13
2.18069e-13
4.31086e-13
8.13113e-13
1.48578e-12
2.66345e-12
4.71734e-12
8.31925e-12
1.46706e-11
2.60505e-11
4.66941e-11
8.52767e-11
1.5846e-10
3.03359e-10
5.89167e-10
1.16044e-09
2.16369e-09
3.58931e-09
4.65603e-09
3.19832e-10
2.64442e-10
8.53587e-10
2.49556e-10
4.17916e-11
2.64697e-11
1.80718e-11
1.58422e-11
7.63481e-12
4.27636e-12
2.97253e-12
2.17489e-12
1.53455e-12
1.07031e-12
7.60462e-13
5.49261e-13
3.98275e-13
2.87059e-13
2.03677e-13
1.40314e-13
9.201e-14
5.58566e-14
3.0099e-14
1.33651e-14
4.14571e-15
5.24846e-16
3.86149e-20
7.85154e-16
6.61355e-15
2.47817e-14
6.70617e-14
1.5288e-13
3.1512e-13
6.09041e-13
1.12986e-12
2.0394e-12
3.62179e-12
6.36984e-12
1.11752e-11
1.96317e-11
3.47728e-11
6.22194e-11
1.13487e-10
2.10551e-10
4.01338e-10
7.72289e-10
1.48683e-09
2.66518e-09
4.17677e-09
5.18868e-09
2.41237e-10
2.48464e-10
7.24265e-10
2.81837e-10
3.5494e-11
2.7774e-11
1.70235e-11
1.65684e-11
8.37064e-12
4.57932e-12
3.14881e-12
2.32364e-12
1.65647e-12
1.15644e-12
8.19011e-13
5.89795e-13
4.26408e-13
3.05957e-13
2.15524e-13
1.46811e-13
9.45851e-14
5.58202e-14
2.8697e-14
1.17021e-14
3.01562e-15
1.96381e-16
3.49867e-17
2.14907e-15
1.25763e-14
4.11604e-14
1.03769e-13
2.26536e-13
4.5351e-13
8.58642e-13
1.56885e-12
2.80005e-12
4.93052e-12
8.61733e-12
1.50502e-11
2.63573e-11
4.65987e-11
8.32949e-11
1.51805e-10
2.81275e-10
5.33507e-10
1.01497e-09
1.9017e-09
3.25734e-09
4.81181e-09
5.74601e-09
1.78435e-10
2.36366e-10
6.03336e-10
3.09365e-10
3.10769e-11
2.84684e-11
1.60155e-11
1.69676e-11
9.13462e-12
4.89107e-12
3.31525e-12
2.46073e-12
1.77393e-12
1.2409e-12
8.75694e-13
6.28278e-13
4.52644e-13
3.23149e-13
2.25796e-13
1.51851e-13
9.58692e-14
5.47438e-14
2.66008e-14
9.74446e-15
1.9374e-15
3.09855e-17
2.99088e-16
5.02419e-15
2.2798e-14
6.69051e-14
1.58743e-13
3.33495e-13
6.5026e-13
1.20818e-12
2.17694e-12
3.84548e-12
6.71962e-12
1.16794e-11
2.03209e-11
3.55038e-11
6.26929e-11
1.12022e-10
2.04065e-10
3.77557e-10
7.1163e-10
1.33347e-09
2.41555e-09
3.92331e-09
5.45031e-09
6.27712e-09
1.29589e-10
2.2538e-10
4.94628e-10
3.2855e-10
2.88872e-11
2.82484e-11
1.51479e-11
1.69814e-11
9.89342e-12
5.20856e-12
3.46825e-12
2.58058e-12
1.88193e-12
1.32063e-12
9.2842e-13
6.63052e-13
4.75674e-13
3.37647e-13
2.33766e-13
1.54921e-13
9.55322e-14
5.24662e-14
2.37976e-14
7.5841e-15
1.01976e-15
7.30108e-22
1.20684e-15
1.05938e-14
3.98143e-14
1.06802e-13
2.40424e-13
4.88085e-13
9.29201e-13
1.69694e-12
3.01883e-12
5.2828e-12
9.16808e-12
1.58592e-11
2.75081e-11
4.79826e-11
8.46789e-11
1.51335e-10
2.7558e-10
5.08738e-10
9.50418e-10
1.74385e-09
3.02641e-09
4.62182e-09
6.03162e-09
6.72196e-09
9.25909e-11
2.13321e-10
3.99704e-10
3.37061e-10
2.89998e-11
2.69525e-11
1.4473e-11
1.65923e-11
1.05989e-11
5.52707e-12
3.60387e-12
2.67767e-12
1.97468e-12
1.3919e-12
9.74716e-13
6.92215e-13
4.94007e-13
3.48335e-13
2.38636e-13
1.55482e-13
9.32612e-14
4.88752e-14
2.034e-14
5.36759e-15
3.70604e-16
5.08973e-17
3.5252e-15
2.07687e-14
6.74827e-14
1.67883e-13
3.60932e-13
7.10557e-13
1.32365e-12
2.37943e-12
4.18393e-12
7.25972e-12
1.25228e-11
2.15753e-11
3.73345e-11
6.50626e-11
1.14821e-10
2.05309e-10
3.73618e-10
6.86991e-10
1.26651e-09
2.25594e-09
3.70883e-09
5.28647e-09
6.4912e-09
7.02653e-09
6.52335e-11
1.9894e-10
3.19161e-10
3.34052e-10
3.13529e-11
2.4655e-11
1.39843e-11
1.5829e-11
1.11904e-11
5.83945e-12
3.71782e-12
2.74687e-12
2.046e-12
1.45039e-12
1.01178e-12
7.13692e-13
5.06035e-13
3.5402e-13
2.3958e-13
1.53014e-13
8.88012e-14
4.39423e-14
1.63685e-14
3.29462e-15
5.2774e-17
5.15256e-16
8.59475e-15
3.8571e-14
1.11607e-13
2.60412e-13
5.376e-13
1.02947e-12
1.88012e-12
3.33132e-12
5.79587e-12
9.98024e-12
1.71251e-11
2.94082e-11
5.08046e-11
8.85126e-11
1.56275e-10
2.79572e-10
5.07891e-10
9.27184e-10
1.6751e-09
2.86319e-09
4.40641e-09
5.83973e-09
6.78161e-09
7.16164e-09
4.54372e-11
1.81883e-10
2.52731e-10
3.20064e-10
3.57366e-11
2.16435e-11
1.36183e-11
1.4762e-11
1.16006e-11
6.13461e-12
3.80551e-12
2.78373e-12
2.08969e-12
1.4913e-12
1.03656e-12
7.25326e-13
5.10127e-13
3.53519e-13
2.35815e-13
1.4708e-13
8.20068e-14
3.77621e-14
1.2129e-14
1.59727e-15
3.54624e-20
2.21033e-15
1.8667e-14
6.86987e-14
1.80842e-13
3.99288e-13
7.95141e-13
1.48502e-12
2.66356e-12
4.6576e-12
8.02578e-12
1.37267e-11
2.3448e-11
4.01645e-11
6.93183e-11
1.20799e-10
2.13417e-10
3.81762e-10
6.90823e-10
1.24533e-09
2.18264e-09
3.53093e-09
5.03831e-09
6.21968e-09
6.88916e-09
7.13242e-09
3.13798e-11
1.625e-10
1.99333e-10
2.96805e-10
4.16949e-11
1.83283e-11
1.32676e-11
1.34903e-11
1.17649e-11
6.39596e-12
3.86204e-12
2.78465e-12
2.10017e-12
1.50966e-12
1.04589e-12
7.25018e-13
5.04761e-13
3.45765e-13
2.26692e-13
1.37396e-13
7.29023e-14
3.05911e-14
7.97612e-15
4.85513e-16
1.30844e-16
6.66856e-15
3.7412e-14
1.18353e-13
2.87984e-13
6.06044e-13
1.1687e-12
2.13375e-12
3.76461e-12
6.50426e-12
1.11111e-11
1.88909e-11
3.21492e-11
5.49678e-11
9.48288e-11
1.65353e-10
2.92249e-10
5.21939e-10
9.3705e-10
1.65425e-09
2.77558e-09
4.19196e-09
5.52478e-09
6.40321e-09
6.83503e-09
6.97175e-09
2.15516e-11
1.41672e-10
1.57283e-10
2.6679e-10
4.84762e-11
1.51387e-11
1.28021e-11
1.21216e-11
1.16343e-11
6.60038e-12
3.88231e-12
2.74692e-12
2.07301e-12
1.50078e-12
1.03673e-12
7.10897e-13
4.88693e-13
3.29953e-13
2.11811e-13
1.23924e-13
6.17462e-14
2.28762e-14
4.34828e-15
3.61476e-17
1.20524e-15
1.65888e-14
7.06748e-14
1.98441e-13
4.51843e-13
9.11687e-13
1.70819e-12
3.0552e-12
5.30998e-12
9.07463e-12
1.53822e-11
2.60183e-11
4.41455e-11
7.53876e-11
1.3006e-10
2.26917e-10
4.00837e-10
7.1264e-10
1.26117e-09
2.15515e-09
3.4099e-09
4.76135e-09
5.81926e-09
6.40929e-09
6.66146e-09
6.72388e-09
1.47558e-11
1.20616e-10
1.24608e-10
2.32871e-10
5.50898e-11
1.24308e-11
1.21065e-11
1.0751e-11
1.11873e-11
6.7187e-12
3.86106e-12
2.66878e-12
2.00558e-12
1.46075e-12
1.00643e-12
6.81534e-13
4.61145e-13
3.0571e-13
1.9115e-13
1.06967e-13
4.90862e-14
1.52584e-14
1.69105e-15
8.93463e-18
5.00673e-15
3.65239e-14
1.27596e-13
3.25334e-13
6.99918e-13
1.36077e-12
2.48444e-12
4.36131e-12
7.47712e-12
1.26527e-11
2.13002e-11
3.58708e-11
6.07195e-11
1.03618e-10
1.78798e-10
3.11951e-10
5.49603e-10
9.67903e-10
1.67233e-09
2.72632e-09
4.0125e-09
5.1689e-09
5.92301e-09
6.28264e-09
6.41402e-09
6.42889e-09
1.00892e-11
1.00451e-10
9.93428e-11
1.97882e-10
6.04691e-11
1.04177e-11
1.11204e-11
9.44569e-12
1.04372e-11
6.71841e-12
3.79294e-12
2.54964e-12
1.89738e-12
1.38717e-12
9.5313e-13
6.36191e-13
4.22014e-13
2.73267e-13
1.65208e-13
8.72549e-14
3.57913e-14
8.5273e-15
2.95461e-16
5.8535e-16
1.48568e-14
7.39171e-14
2.2226e-13
5.23409e-13
1.07227e-12
2.01721e-12
3.59805e-12
6.20996e-12
1.05152e-11
1.76365e-11
2.95114e-11
4.95169e-11
8.36694e-11
1.42721e-10
2.46254e-10
4.29021e-10
7.51081e-10
1.30018e-09
2.16508e-09
3.31603e-09
4.50347e-09
5.38764e-09
5.87375e-09
6.0726e-09
6.12943e-09
6.11447e-09
6.90175e-12
8.18719e-11
7.97233e-11
1.64245e-10
6.37258e-11
9.14187e-12
9.85604e-12
8.23705e-12
9.43168e-12
6.56853e-12
3.67231e-12
2.39006e-12
1.75034e-12
1.27976e-12
8.76237e-13
5.75094e-13
3.72076e-13
2.33631e-13
1.35114e-13
6.60041e-14
2.30315e-14
3.49117e-15
1.18994e-19
3.86405e-15
3.65702e-14
1.40653e-13
3.76125e-13
8.28764e-13
1.62711e-12
2.97272e-12
5.19209e-12
8.82442e-12
1.47756e-11
2.45865e-11
4.09253e-11
6.84598e-11
1.15518e-10
1.96953e-10
3.39473e-10
5.88937e-10
1.01835e-09
1.71396e-09
2.7093e-09
3.85062e-09
4.82935e-09
5.4364e-09
5.72186e-09
5.81901e-09
5.83104e-09
5.79461e-09
4.73016e-12
6.53162e-11
6.42771e-11
1.33546e-10
6.43564e-11
8.51417e-12
8.39379e-12
7.12305e-12
8.24512e-12
6.24674e-12
3.49329e-12
2.192e-12
1.56875e-12
1.14091e-12
7.7689e-13
4.99716e-13
3.13165e-13
1.88711e-13
1.02711e-13
4.49125e-14
1.21659e-14
7.08664e-16
3.17661e-16
1.41341e-14
7.99093e-14
2.55366e-13
6.21591e-13
1.29463e-12
2.44895e-12
4.35902e-12
7.47056e-12
1.25216e-11
2.07558e-11
3.42953e-11
5.68274e-11
9.48194e-11
1.59795e-10
2.72152e-10
4.6765e-10
8.04112e-10
1.36102e-09
2.19637e-09
3.24788e-09
4.26142e-09
4.98209e-09
5.35967e-09
5.5118e-09
5.54759e-09
5.52983e-09
5.4728e-09
3.24836e-12
5.10863e-11
5.18761e-11
1.06563e-10
6.23002e-11
8.37272e-12
6.86021e-12
6.0823e-12
6.96468e-12
5.74655e-12
3.25072e-12
1.95917e-12
1.35925e-12
9.76022e-13
6.58452e-13
4.1305e-13
2.48299e-13
1.41365e-13
7.05287e-14
2.6041e-14
4.47981e-15
3.795e-18
3.57294e-15
3.91731e-14
1.6078e-13
4.46874e-13
1.00726e-12
1.99931e-12
3.66048e-12
6.36563e-12
1.07253e-11
1.77533e-11
2.91632e-11
4.7889e-11
7.90402e-11
1.31584e-10
2.21405e-10
3.76128e-10
6.42028e-10
1.08624e-09
1.77788e-09
2.70955e-09
3.71126e-09
4.51328e-09
4.99095e-09
5.20453e-09
5.27426e-09
5.27123e-09
5.2282e-09
5.14698e-09
2.23428e-12
3.92687e-11
4.17224e-11
8.35613e-11
5.78917e-11
8.51793e-12
5.389e-12
5.09139e-12
5.67587e-12
5.08232e-12
2.94177e-12
1.69732e-12
1.13064e-12
7.93563e-13
5.26839e-13
3.19798e-13
1.81705e-13
9.5317e-14
4.16056e-14
1.15074e-14
6.77842e-16
3.54545e-16
1.57921e-14
9.23478e-14
3.0453e-13
7.59278e-13
1.60568e-12
3.05785e-12
5.44005e-12
9.26609e-12
1.53754e-11
2.51666e-11
4.10095e-11
6.69738e-11
1.10151e-10
1.82946e-10
3.07038e-10
5.18863e-10
8.74702e-10
1.4412e-09
2.24808e-09
3.19384e-09
4.04524e-09
4.6128e-09
4.9e-09
5.00744e-09
5.02638e-09
4.99387e-09
4.92407e-09
4.80643e-09
1.53813e-12
2.97413e-11
3.3288e-11
6.44581e-11
5.17343e-11
8.73599e-12
4.08533e-12
4.13796e-12
4.45086e-12
4.29064e-12
2.56844e-12
1.41453e-12
8.937e-13
6.04712e-13
3.90576e-13
2.26391e-13
1.18657e-13
5.48471e-14
1.90549e-14
2.87713e-15
4.56501e-20
4.98551e-15
4.8167e-14
1.95806e-13
5.50899e-13
1.25955e-12
2.52489e-12
4.63934e-12
8.04751e-12
1.34567e-11
2.20261e-11
3.56928e-11
5.77472e-11
9.38467e-11
1.53825e-10
2.54719e-10
4.25519e-10
7.12022e-10
1.1753e-09
1.861e-09
2.72688e-09
3.58729e-09
4.23181e-09
4.59369e-09
4.74951e-09
4.79118e-09
4.77512e-09
4.71437e-09
4.60792e-09
4.41196e-09
1.0588e-12
2.22491e-11
2.6239e-11
4.89363e-11
4.45384e-11
8.82916e-12
3.00687e-12
3.22751e-12
3.34229e-12
3.42698e-12
2.1405e-12
1.12154e-12
6.60943e-13
4.22625e-13
2.60381e-13
1.40663e-13
6.50003e-14
2.41378e-14
5.22789e-15
8.78332e-17
1.2445e-15
2.35066e-14
1.20215e-13
3.8531e-13
9.61433e-13
2.04886e-12
3.92553e-12
6.99262e-12
1.18627e-11
1.95141e-11
3.1555e-11
5.06795e-11
8.14692e-11
1.3179e-10
2.15212e-10
3.5476e-10
5.8776e-10
9.66939e-10
1.54462e-09
2.31626e-09
3.15487e-09
3.85109e-09
4.28781e-09
4.49608e-09
4.56802e-09
4.5671e-09
4.52119e-09
4.42553e-09
4.24737e-09
3.86006e-09
7.28021e-13
1.64763e-11
2.0366e-11
3.65522e-11
3.69857e-11
8.64965e-12
2.1633e-12
2.38277e-12
2.38313e-12
2.55817e-12
1.67784e-12
8.31954e-13
4.46096e-13
2.61228e-13
1.48057e-13
7.0944e-14
2.61501e-14
6.07448e-15
2.6909e-16
3.40386e-16
1.20259e-14
7.38192e-14
2.64605e-13
7.17526e-13
1.63063e-12
3.27956e-12
6.04652e-12
1.04849e-11
1.74432e-11
2.82815e-11
4.52414e-11
7.20827e-11
1.15192e-10
1.8547e-10
3.01404e-10
4.93179e-10
8.05634e-10
1.28993e-09
1.96634e-09
2.7567e-09
3.48029e-09
3.98166e-09
4.24774e-09
4.35305e-09
4.372e-09
4.33876e-09
4.25988e-09
4.10359e-09
3.75992e-09
2.97835e-09
4.99504e-13
1.21015e-11
1.55253e-11
2.68239e-11
2.96457e-11
8.12526e-12
1.52951e-12
1.63676e-12
1.59054e-12
1.75243e-12
1.21087e-12
5.62156e-13
2.63178e-13
1.33429e-13
6.44569e-14
2.42369e-14
5.25276e-15
2.03138e-16
2.51369e-16
8.17014e-15
5.02782e-14
1.87169e-13
5.34496e-13
1.28104e-12
2.70269e-12
5.18074e-12
9.24377e-12
1.56598e-11
2.5611e-11
4.09978e-11
6.49573e-11
1.02747e-10
1.6325e-10
2.61417e-10
4.2181e-10
6.81809e-10
1.08866e-09
1.67463e-09
2.40205e-09
3.12616e-09
3.67974e-09
4.00233e-09
4.14656e-09
4.18644e-09
4.16873e-09
4.10419e-09
3.97518e-09
3.68787e-09
3.00283e-09
1.76473e-09
3.41658e-13
8.8304e-12
1.16008e-11
1.92912e-11
2.29308e-11
7.26716e-12
1.06343e-12
1.02153e-12
9.70555e-13
1.06916e-12
7.77993e-13
3.30428e-13
1.24756e-13
4.84868e-14
1.61917e-14
3.01185e-15
3.01927e-17
6.15512e-16
9.10429e-15
4.39315e-14
1.48592e-13
4.1588e-13
1.01467e-12
2.21302e-12
4.3969e-12
8.0968e-12
1.40486e-11
2.33251e-11
3.75829e-11
5.94899e-11
9.34469e-11
1.46795e-10
2.31786e-10
3.68488e-10
5.87996e-10
9.31925e-10
1.43755e-09
2.09439e-09
2.79803e-09
3.38536e-09
3.76137e-09
3.94623e-09
4.01078e-09
4.00796e-09
3.95922e-09
3.85363e-09
3.62524e-09
3.06456e-09
1.92709e-09
7.11411e-10
2.3279e-13
6.41003e-12
8.48591e-12
1.35462e-11
1.70883e-11
6.15703e-12
7.21967e-13
5.57529e-13
5.20957e-13
5.50228e-13
4.19531e-13
1.5453e-13
3.88526e-14
8.04107e-15
6.24548e-16
1.22995e-17
2.38666e-15
1.55524e-14
5.32871e-14
1.45839e-13
3.62931e-13
8.4513e-13
1.83843e-12
3.7244e-12
7.04595e-12
1.25461e-11
2.12567e-11
3.46857e-11
5.51669e-11
8.64564e-11
1.34723e-10
2.1014e-10
3.29282e-10
5.17965e-10
8.12149e-10
1.24897e-09
1.83565e-09
2.50215e-09
3.10507e-09
3.52566e-09
3.75232e-09
3.84303e-09
3.85677e-09
3.82193e-09
3.73845e-09
3.5603e-09
3.1247e-09
2.14547e-09
8.81845e-10
1.90012e-10
1.57927e-13
4.63256e-12
6.0744e-12
9.24101e-12
1.2227e-11
4.91876e-12
4.71486e-13
2.48192e-13
2.31131e-13
2.13248e-13
1.68157e-13
4.667e-14
3.78882e-15
1.73633e-16
1.56412e-15
9.97264e-15
3.36408e-14
8.4198e-14
1.83112e-13
3.80358e-13
7.85873e-13
1.61081e-12
3.21316e-12
6.13818e-12
1.11544e-11
1.93102e-11
3.20625e-11
5.15439e-11
8.10526e-11
1.25874e-10
1.94593e-10
3.01055e-10
4.66819e-10
7.22514e-10
1.10278e-09
1.62413e-09
2.24422e-09
2.84452e-09
3.29871e-09
3.56446e-09
3.68314e-09
3.71362e-09
3.69257e-09
3.62709e-09
3.49042e-09
3.16481e-09
2.37138e-09
1.12562e-09
2.76821e-10
3.02222e-11
1.06659e-13
3.33439e-12
4.25539e-12
6.08488e-12
8.35428e-12
3.68605e-12
2.90945e-13
7.80627e-14
7.86519e-14
4.61607e-14
3.62877e-14
4.71648e-15
1.56555e-16
1.06018e-14
3.72983e-14
8.20953e-14
1.56787e-13