/*--------------------------------*- C++ -*----------------------------------*\
  =========                 |
  \\      /  F ield         | OpenFOAM: The Open Source CFD Toolbox
   \\    /   O peration     | Website:  https://openfoam.org
    \\  /    A nd           | Version:  7
     \\/     M anipulation  |
\*---------------------------------------------------------------------------*/
FoamFile
{
    version     2.0;
    format      ascii;
    class       volScalarField;
    location    "0.14";
    object      p;
}
// * * * * * * * * * * * * * * * * * * * * * * * * * * * * * * * * * * * * * //

dimensions      [0 2 -2 0 0 0 0];

internalField   nonuniform List<scalar> 
70000
(
0.137387
0.0599484
0.0474611
0.0499526
0.0501824
0.0492
0.0483497
0.0477433
0.0472705
0.0468839
0.0465705
0.0463225
0.0461327
0.045995
0.0459043
0.0458567
0.0458494
0.0458799
0.0459464
0.0460478
0.0461829
0.0463514
0.046553
0.0467876
0.0470558
0.047358
0.0476952
0.0480685
0.0484791
0.0489288
0.0494194
0.049953
0.0505322
0.0511596
0.0518384
0.0525718
0.053364
0.0542186
0.0551407
0.0561347
0.057206
0.0583622
0.0596038
0.0609508
0.0623827
0.0639609
0.0655932
0.067476
0.0692763
0.0716443
0.133018
0.0603152
0.0476641
0.0500483
0.0502372
0.0492362
0.048378
0.0477667
0.0472902
0.0469008
0.0465852
0.0463355
0.0461444
0.0460055
0.0459139
0.0458656
0.0458575
0.0458874
0.0459535
0.0460544
0.0461892
0.0463573
0.0465586
0.046793
0.0470609
0.047363
0.0477
0.0480731
0.0484836
0.0489332
0.0494237
0.0499573
0.0505364
0.0511638
0.0518427
0.0525761
0.0533684
0.054223
0.0551452
0.0561395
0.057211
0.0583675
0.0596094
0.0609569
0.0623893
0.0639683
0.0656013
0.0674848
0.0692889
0.0716777
0.129438
0.0612548
0.0480042
0.0501773
0.0503114
0.0492809
0.0484104
0.047793
0.0473121
0.0469193
0.0466011
0.0463495
0.0461569
0.0460167
0.0459241
0.0458749
0.0458661
0.0458954
0.0459609
0.0460613
0.0461956
0.0463634
0.0465643
0.0467985
0.0470661
0.0473679
0.0477048
0.0480776
0.048488
0.0489374
0.0494278
0.0499613
0.0505403
0.0511676
0.0518464
0.0525798
0.053372
0.0542267
0.0551489
0.0561433
0.0572148
0.0583715
0.0596136
0.0609613
0.0623939
0.0639735
0.0656068
0.0674904
0.0693051
0.0716909
0.126343
0.062356
0.0484732
0.0503508
0.050412
0.0493383
0.0484484
0.0478227
0.0473365
0.0469397
0.0466185
0.0463645
0.0461701
0.0460285
0.0459347
0.0458845
0.0458749
0.0459035
0.0459684
0.0460682
0.0462021
0.0463694
0.04657
0.0468038
0.0470711
0.0473726
0.0477092
0.0480818
0.048492
0.0489412
0.0494314
0.0499646
0.0505435
0.0511706
0.0518492
0.0525824
0.0533745
0.054229
0.0551511
0.0561452
0.0572166
0.0583731
0.059615
0.0609626
0.062395
0.0639744
0.0656078
0.067489
0.0693201
0.071678
0.123383
0.0634518
0.0490383
0.0505707
0.0505459
0.0494156
0.0484969
0.0478594
0.0473662
0.0469639
0.0466387
0.0463818
0.0461851
0.0460418
0.0459465
0.0458951
0.0458845
0.0459122
0.0459763
0.0460755
0.0462088
0.0463757
0.0465757
0.0468091
0.0470761
0.0473772
0.0477134
0.0480857
0.0484955
0.0489444
0.0494343
0.0499672
0.0505458
0.0511726
0.0518508
0.0525837
0.0533754
0.0542294
0.0551511
0.0561447
0.0572156
0.0583715
0.0596127
0.0609595
0.062391
0.0639688
0.0656021
0.067477
0.0693276
0.0716369
0.120473
0.0644899
0.0496525
0.0508168
0.0507072
0.0495145
0.0485585
0.0479051
0.0474028
0.0469938
0.0466633
0.0464026
0.046203
0.0460573
0.0459602
0.0459073
0.0458954
0.045922
0.0459852
0.0460836
0.0462162
0.0463823
0.0465818
0.0468146
0.0470811
0.0473817
0.0477175
0.0480893
0.0484987
0.0489471
0.0494365
0.049969
0.0505471
0.0511733
0.051851
0.0525832
0.0533742
0.0542275
0.0551483
0.056141
0.0572108
0.0583654
0.0596051
0.0609501
0.0623798
0.0639542
0.0655865
0.0674505
0.0693192
0.0715619
0.117608
0.0654514
0.0502822
0.0510676
0.0508829
0.0496304
0.0486322
0.0479597
0.047447
0.0470298
0.0466931
0.0464276
0.0462243
0.0460759
0.0459764
0.0459216
0.0459081
0.0459334
0.0459954
0.0460927
0.0462244
0.0463897
0.0465885
0.0468206
0.0470863
0.0473864
0.0477215
0.0480927
0.0485015
0.0489493
0.049438
0.0499698
0.0505471
0.0511725
0.0518494
0.0525807
0.0533706
0.0542227
0.055142
0.0561332
0.0572011
0.0583536
0.0595908
0.0609327
0.0623591
0.0639277
0.0655574
0.0674051
0.0692859
0.0714461
0.114792
0.0663285
0.0509114
0.0513113
0.051062
0.0497569
0.0487146
0.0480212
0.0474973
0.0470714
0.0467277
0.0464568
0.0462494
0.0460976
0.0459954
0.0459384
0.045923
0.0459466
0.0460072
0.0461033
0.0462338
0.0463981
0.0465958
0.0468271
0.047092
0.0473912
0.0477255
0.0480959
0.0485038
0.0489508
0.0494387
0.0499695
0.0505458
0.0511701
0.0518457
0.0525756
0.0533639
0.0542143
0.0551316
0.0561204
0.0571855
0.0583348
0.0595682
0.0609052
0.0623265
0.0638863
0.0655111
0.0673363
0.0692188
0.0712834
0.112033
0.0671182
0.051535
0.051544
0.0512385
0.0498892
0.0488025
0.0480872
0.047552
0.0471173
0.0467662
0.0464896
0.0462777
0.0461223
0.0460172
0.0459576
0.04594
0.0459618
0.0460207
0.0461153
0.0462445
0.0464075
0.0466041
0.0468343
0.0470981
0.0473963
0.0477296
0.048099
0.0485059
0.0489517
0.0494384
0.049968
0.0505429
0.0511658
0.0518397
0.0525677
0.0533539
0.0542018
0.0551163
0.0561019
0.0571631
0.0583079
0.0595359
0.060866
0.0622801
0.0638275
0.065444
0.0672404
0.0691108
0.0710696
0.109335
0.0678203
0.0521517
0.0517652
0.0514095
0.0500245
0.0488937
0.0481555
0.0476092
0.0471658
0.0468074
0.046525
0.0463085
0.0461494
0.0460411
0.0459789
0.045959
0.0459787
0.0460358
0.0461287
0.0462564
0.046418
0.0466133
0.0468422
0.0471048
0.0474018
0.0477338
0.048102
0.0485076
0.0489521
0.0494373
0.0499653
0.0505385
0.0511594
0.0518312
0.0525568
0.0533403
0.054185
0.0550958
0.0560771
0.0571332
0.058272
0.0594929
0.0608139
0.0622181
0.0637494
0.0653533
0.0671142
0.0689568
0.0708025
0.1067
0.0684353
0.0527609
0.0519759
0.0515735
0.0501613
0.0489873
0.0482253
0.0476677
0.0472159
0.0468503
0.0465621
0.046341
0.0461781
0.0460667
0.0460017
0.0459794
0.0459969
0.0460521
0.0461433
0.0462693
0.0464295
0.0466233
0.0468507
0.047112
0.0474075
0.0477382
0.0481049
0.0485089
0.0489518
0.0494353
0.0499614
0.0505325
0.0511511
0.0518203
0.0525429
0.0533229
0.0541637
0.0550698
0.0560459
0.0570955
0.0582267
0.0594386
0.060748
0.0621396
0.0636508
0.0652369
0.0669562
0.0687546
0.0704828
0.104132
0.0689633
0.053361
0.052177
0.0517297
0.0502988
0.0490829
0.0482959
0.0477269
0.047267
0.0468942
0.0466001
0.0463745
0.0462078
0.0460932
0.0460255
0.0460008
0.0460161
0.0460693
0.0461587
0.046283
0.0464415
0.0466338
0.0468597
0.0471194
0.0474134
0.0477425
0.0481076
0.0485099
0.0489509
0.0494324
0.0499563
0.0505249
0.0511408
0.0518068
0.0525259
0.0533018
0.0541379
0.0550385
0.056008
0.05705
0.058172
0.059373
0.0606683
0.0620444
0.0635316
0.0650944
0.0667661
0.0685054
0.070114
0.101634
0.0694051
0.0539501
0.0523697
0.0518772
0.0504362
0.0491803
0.0483672
0.0477866
0.0473186
0.0469387
0.0466389
0.0464086
0.0462382
0.0461204
0.0460499
0.0460227
0.0460359
0.0460871
0.0461746
0.0462972
0.046454
0.0466446
0.0468689
0.047127
0.0474193
0.0477467
0.0481099
0.0485103
0.0489493
0.0494285
0.0499499
0.0505158
0.0511285
0.0517909
0.052506
0.0532771
0.0541078
0.0550019
0.055964
0.056997
0.0581082
0.0592965
0.0605753
0.0619331
0.0633928
0.0649265
0.0665457
0.0682131
0.0697025
0.099207
0.0697613
0.0545257
0.0525553
0.0520157
0.0505727
0.0492794
0.0484392
0.0478465
0.0473707
0.0469838
0.0466781
0.0464431
0.046269
0.046148
0.0460747
0.0460451
0.046056
0.0461052
0.0461908
0.0463115
0.0464666
0.0466555
0.0468781
0.0471344
0.047425
0.0477505
0.0481119
0.0485102
0.0489469
0.0494236
0.0499423
0.0505051
0.0511143
0.0517727
0.0524832
0.0532491
0.0540736
0.0549605
0.0559141
0.056937
0.0580359
0.0592098
0.0604701
0.0618067
0.0632359
0.0647352
0.0662977
0.0678842
0.0692569
0.0968546
0.0700332
0.0550849
0.0527355
0.0521446
0.0507072
0.0493801
0.0485119
0.0479066
0.0474231
0.0470292
0.0467176
0.046478
0.0463
0.0461758
0.0460997
0.0460676
0.0460763
0.0461234
0.046207
0.0463259
0.0464792
0.0466663
0.0468871
0.0471417
0.0474305
0.047754
0.0481133
0.0485093
0.0489436
0.0494177
0.0499334
0.0504928
0.0510982
0.0517523
0.0524578
0.0532178
0.0540357
0.0549146
0.0558588
0.0568706
0.057956
0.0591141
0.0603538
0.061667
0.0630631
0.0645233
0.0660262
0.0675263
0.0687866
0.0945786
0.0702226
0.0556245
0.0529116
0.0522638
0.0508389
0.0494821
0.0485853
0.0479668
0.0474757
0.047075
0.0467575
0.0465132
0.0463313
0.0462038
0.0461249
0.0460902
0.0460966
0.0461416
0.0462233
0.0463403
0.0464917
0.046677
0.046896
0.0471487
0.0474355
0.047757
0.048114
0.0485078
0.0489394
0.0494107
0.0499232
0.050479
0.0510804
0.0517298
0.0524299
0.0531837
0.0539943
0.0548646
0.0557986
0.0567984
0.0578693
0.0590102
0.060228
0.0615155
0.0628765
0.064294
0.0657353
0.0671469
0.0683009
0.0923804
0.0703314
0.0561415
0.0530852
0.0523731
0.0509668
0.0495852
0.0486594
0.048027
0.0475284
0.0471211
0.0467977
0.0465485
0.0463628
0.046232
0.0461502
0.0461129
0.046117
0.0461598
0.0462394
0.0463545
0.046504
0.0466874
0.0469044
0.0471552
0.0474399
0.0477593
0.0481141
0.0485053
0.0489343
0.0494025
0.0499116
0.0504636
0.0510607
0.0517051
0.0523995
0.0531466
0.0539495
0.0548107
0.0557339
0.056721
0.0577763
0.0588989
0.0600935
0.0613538
0.0626782
0.0640501
0.065429
0.0667529
0.0678082
0.0902614
0.0703621
0.0566327
0.0532573
0.0524726
0.0510898
0.0496889
0.0487341
0.0480871
0.0475812
0.0471675
0.0468381
0.0465841
0.0463944
0.0462603
0.0461755
0.0461357
0.0461373
0.0461779
0.0462554
0.0463685
0.046516
0.0466975
0.0469125
0.0471612
0.0474439
0.047761
0.0481134
0.048502
0.0489281
0.0493931
0.0498987
0.0504466
0.0510391
0.0516783
0.0523667
0.0531068
0.0539014
0.054753
0.0556649
0.0566385
0.0576776
0.058781
0.0599515
0.0611829
0.0624697
0.0637942
0.0651108
0.0663499
0.067315
0.0882223
0.0703176
0.0570955
0.0534288
0.0525627
0.0512069
0.0497928
0.0488095
0.0481471
0.0476339
0.0472139
0.0468787
0.0466198
0.0464262
0.0462886
0.0462009
0.0461584
0.0461576
0.0461959
0.0462713
0.0463823
0.0465278
0.0467072
0.0469202
0.0471668
0.0474472
0.0477619
0.0481118
0.0484977
0.0489207
0.0493824
0.0498842
0.050428
0.0510156
0.0516493
0.0523314
0.0530641
0.0538501
0.0546917
0.0555916
0.0565513
0.0575734
0.0586567
0.0598023
0.0610037
0.0622523
0.0635284
0.0647834
0.0659421
0.0668257
0.0862636
0.0702014
0.0575268
0.0536002
0.0526437
0.0513171
0.0498964
0.0488855
0.0482069
0.0476864
0.0472605
0.0469195
0.0466556
0.0464579
0.046317
0.0462263
0.0461811
0.0461778
0.0462138
0.0462869
0.0463958
0.0465392
0.0467165
0.0469273
0.0471717
0.0474498
0.0477621
0.0481093
0.0484923
0.0489122
0.0493703
0.0498682
0.0504075
0.0509901
0.051618
0.0522934
0.0530184
0.0537955
0.0546265
0.0555141
0.0564592
0.0574637
0.0585263
0.0596462
0.0608168
0.0620266
0.0632539
0.0644487
0.0655322
0.0663432
0.0843851
0.0700174
0.057924
0.0537718
0.0527163
0.0514198
0.0499989
0.048962
0.0482665
0.0477385
0.047307
0.0469603
0.0466915
0.0464898
0.0463454
0.0462516
0.0462036
0.0461978
0.0462314
0.0463023
0.0464089
0.0465502
0.0467253
0.0469339
0.047176
0.0474516
0.0477614
0.0481058
0.0484858
0.0489023
0.0493568
0.0498506
0.0503852
0.0509625
0.0515844
0.0522528
0.0529697
0.0537374
0.0545576
0.0554322
0.0563622
0.0573485
0.0583897
0.0594834
0.0606225
0.0617932
0.0629719
0.0641082
0.065122
0.0658691
0.0825865
0.0697699
0.0582847
0.0539433
0.052781
0.051514
0.0500998
0.0490389
0.0483258
0.0477902
0.0473533
0.0470011
0.0467274
0.0465216
0.0463737
0.0462769
0.0462261
0.0462177
0.0462489
0.0463174
0.0464218
0.0465607
0.0467336
0.0469399
0.0471795
0.0474527
0.0477597
0.0481012
0.048478
0.0488911
0.0493417
0.0498311
0.0503609
0.0509327
0.0515482
0.0522093
0.0529178
0.0536758
0.0544845
0.0553459
0.0562601
0.0572278
0.0582469
0.0593139
0.0604208
0.0615524
0.062683
0.0637628
0.0647125
0.0654038
0.0808669
0.0694636
0.0586066
0.0541143
0.0528388
0.0515994
0.0501981
0.0491161
0.0483847
0.0478413
0.0473994
0.0470419
0.0467632
0.0465532
0.0464019
0.046302
0.0462484
0.0462373
0.046266
0.0463322
0.0464342
0.0465708
0.0467413
0.0469452
0.0471823
0.0474528
0.047757
0.0480955
0.048469
0.0488784
0.049325
0.0498098
0.0503345
0.0509004
0.0515093
0.0521628
0.0528626
0.0536104
0.0544073
0.0552548
0.0561529
0.0571014
0.0580978
0.0591376
0.0602119
0.0613044
0.0623876
0.0634133
0.0643043
0.0649474
0.0792249
0.0691037
0.0588876
0.0542837
0.0528906
0.0516754
0.0502931
0.0491931
0.0484433
0.0478917
0.047445
0.0470825
0.0467989
0.0465848
0.04643
0.0463269
0.0462704
0.0462567
0.0462828
0.0463465
0.0464461
0.0465803
0.0467484
0.0469498
0.0471843
0.047452
0.0477533
0.0480885
0.0484585
0.0488642
0.0493064
0.0497865
0.0503058
0.0508657
0.0514676
0.0521132
0.0528038
0.053541
0.0543257
0.0551589
0.0560403
0.056969
0.0579422
0.0589544
0.0599958
0.0610492
0.0620863
0.0630602
0.0638977
0.0644994
0.0776591
0.0686952
0.0591261
0.0544504
0.0529372
0.051742
0.0503838
0.0492699
0.0485015
0.0479413
0.04749
0.0471228
0.0468344
0.0466161
0.0464578
0.0463515
0.0462921
0.0462757
0.0462992
0.0463604
0.0464575
0.0465892
0.0467548
0.0469535
0.0471853
0.0474502
0.0477483
0.0480803
0.0484466
0.0488482
0.049286
0.0497611
0.0502748
0.0508283
0.051423
0.0520603
0.0527414
0.0534676
0.0542396
0.0550579
0.0559221
0.0568306
0.0577801
0.0587642
0.0597725
0.0607871
0.0617791
0.0627038
0.0634927
0.064059
0.0761675
0.0682438
0.0593208
0.0546126
0.0529796
0.051799
0.0504694
0.0493458
0.0485592
0.04799
0.0475344
0.0471627
0.0468696
0.0466472
0.0464853
0.0463759
0.0463135
0.0462943
0.0463152
0.0463738
0.0464683
0.0465975
0.0467604
0.0469564
0.0471854
0.0474472
0.0477421
0.0480705
0.0484331
0.0488304
0.0492636
0.0497334
0.0502412
0.0507881
0.0513752
0.0520038
0.0526751
0.0533899
0.0541487
0.0549518
0.0557982
0.056686
0.0576112
0.058567
0.059542
0.0605181
0.0614664
0.0623444
0.0630891
0.0636254
0.0747479
0.067755
0.0594709
0.0547682
0.0530187
0.0518466
0.0505491
0.0494204
0.0486164
0.0480376
0.0475778
0.0472021
0.0469045
0.0466779
0.0465124
0.0463998
0.0463345
0.0463125
0.0463306
0.0463865
0.0464784
0.0466049
0.0467651
0.0469583
0.0471843
0.047443
0.0477345
0.0480593
0.0484178
0.0488108
0.049239
0.0497034
0.050205
0.0507449
0.0513241
0.0519438
0.0526047
0.0533076
0.0540529
0.0548402
0.0556683
0.0565349
0.0574354
0.0583625
0.0593043
0.0602424
0.0611484
0.0619823
0.0626868
0.0631976
0.0733977
0.0672343
0.0595759
0.0549151
0.0530553
0.0518852
0.0506219
0.0494932
0.048673
0.0480842
0.0476202
0.0472408
0.0469388
0.0467081
0.046539
0.0464233
0.046355
0.0463301
0.0463455
0.0463987
0.0464878
0.0466116
0.0467689
0.0469592
0.0471821
0.0474375
0.0477255
0.0480464
0.0484007
0.0487891
0.0492121
0.0496708
0.050166
0.0506986
0.0512696
0.0518798
0.0525301
0.0532207
0.0539519
0.0547229
0.0555323
0.0563772
0.0572527
0.0581509
0.0590595
0.0599601
0.0608253
0.0616174
0.0622854
0.0627746
0.0721145
0.0666873
0.059636
0.0550508
0.0530898
0.0519153
0.0506872
0.0495634
0.0487288
0.0481296
0.0476614
0.0472786
0.0469726
0.0467378
0.0465652
0.0464462
0.0463749
0.0463471
0.0463596
0.0464101
0.0464964
0.0466173
0.0467717
0.046959
0.0471786
0.0474306
0.0477149
0.0480318
0.0483817
0.0487652
0.0491829
0.0496355
0.050124
0.050649
0.0512114
0.0518119
0.052451
0.053129
0.0538455
0.0545999
0.05539
0.0562128
0.0570629
0.0579319
0.0588075
0.0596713
0.060497
0.0612499
0.0618846
0.0623552
0.0708952
0.0661194
0.0596517
0.0551725
0.0531227
0.0519375
0.0507445
0.0496304
0.0487835
0.0481738
0.0477013
0.0473155
0.0470056
0.0467669
0.0465906
0.0464685
0.0463942
0.0463634
0.0463731
0.0464206
0.0465041
0.0466221
0.0467734
0.0469575
0.0471738
0.0474221
0.0477026
0.0480153
0.0483606
0.048739
0.0491511
0.0495974
0.0500788
0.0505959
0.0511494
0.0517398
0.0523673
0.0530321
0.0537337
0.0544708
0.0552413
0.0560415
0.0568658
0.0577056
0.0585483
0.0593761
0.0601637
0.0608796
0.0614838
0.0619385
0.0697369
0.0655355
0.0596241
0.055278
0.053154
0.0519526
0.0507934
0.0496934
0.0488369
0.0482166
0.0477396
0.0473511
0.0470378
0.0467952
0.0466154
0.04649
0.0464127
0.046379
0.0463857
0.0464303
0.0465108
0.0466257
0.0467739
0.0469547
0.0471675
0.0474121
0.0476885
0.0479968
0.0483373
0.0487104
0.0491165
0.0495564
0.0500304
0.0505393
0.0510834
0.0516632
0.0522788
0.05293
0.0536161
0.0543355
0.0550859
0.0558632
0.0566615
0.0574719
0.058282
0.0590744
0.0598255
0.0605063
0.0610826
0.0615231
0.0686365
0.0649404
0.0595548
0.0553651
0.0531832
0.0519612
0.0508335
0.0497517
0.0488887
0.0482581
0.0477763
0.0473854
0.047069
0.0468226
0.0466393
0.0465107
0.0464303
0.0463936
0.0463973
0.0464389
0.0465164
0.0466282
0.0467731
0.0469504
0.0471596
0.0474003
0.0476725
0.0479762
0.0483116
0.0486791
0.0490792
0.0495121
0.0499785
0.0504788
0.0510132
0.0515821
0.0521853
0.0528224
0.0534925
0.0541939
0.0549237
0.0556777
0.0564497
0.0572308
0.0580086
0.0587664
0.0594822
0.06013
0.0606803
0.0611081
0.067591
0.0643383
0.059446
0.0554318
0.0532097
0.0519639
0.0508648
0.0498045
0.0489382
0.048298
0.0478112
0.0474181
0.0470989
0.0468491
0.0466622
0.0465304
0.046447
0.0464073
0.0464079
0.0464465
0.0465208
0.0466293
0.0467709
0.0469446
0.04715
0.0473866
0.0476544
0.0479533
0.0482835
0.0486452
0.0490388
0.0494646
0.049923
0.0504142
0.0509386
0.0514961
0.0520865
0.0527092
0.0533629
0.0540457
0.0547545
0.0554849
0.0562304
0.0569822
0.057728
0.058452
0.0591338
0.0597503
0.0602763
0.0606922
0.0665973
0.063733
0.0593001
0.0554766
0.0532324
0.0519615
0.0508875
0.0498512
0.0489851
0.0483362
0.0478443
0.0474491
0.0471275
0.0468744
0.0466841
0.0465491
0.0464626
0.0464198
0.0464174
0.0464528
0.0465239
0.0466291
0.0467672
0.0469372
0.0471386
0.0473709
0.0476341
0.047928
0.0482526
0.0486083
0.0489952
0.0494135
0.0498636
0.0503455
0.0508594
0.0514052
0.0519823
0.0525901
0.0532269
0.0538907
0.0545782
0.0552846
0.0560035
0.056726
0.0574403
0.0581312
0.0587803
0.0593669
0.05987
0.0602743
0.0656522
0.0631278
0.0591199
0.0554982
0.0532501
0.0519544
0.0509016
0.0498912
0.0490288
0.0483725
0.0478754
0.0474781
0.0471545
0.0468983
0.0467047
0.0465666
0.046477
0.0464312
0.0464256
0.0464578
0.0465256
0.0466273
0.0467617
0.0469279
0.0471252
0.0473531
0.0476115
0.0479001
0.048219
0.0485684
0.0489482
0.0493588
0.0498002
0.0502724
0.0507755
0.0513091
0.0518725
0.0524649
0.0530844
0.0537288
0.0543945
0.0550768
0.055769
0.0564623
0.0571453
0.057804
0.0584214
0.0589795
0.0594607
0.0598535
0.0647527
0.0625256
0.0589085
0.0554957
0.0532614
0.0519428
0.0509076
0.0499239
0.0490687
0.0484066
0.0479043
0.0475049
0.0471797
0.0469208
0.046724
0.0465827
0.0464901
0.0464411
0.0464325
0.0464613
0.0465257
0.0466239
0.0467545
0.0469167
0.0471097
0.047333
0.0475863
0.0478695
0.0481824
0.0485252
0.0488977
0.0493002
0.0497325
0.0501947
0.0506865
0.0512075
0.0517569
0.0523334
0.0529352
0.0535598
0.0542035
0.0548613
0.0555266
0.0561909
0.0568432
0.0574703
0.058057
0.0585876
0.0590476
0.0594286
0.063896
0.0619287
0.0586692
0.0554687
0.0532647
0.0519271
0.0509058
0.0499491
0.0491041
0.0484383
0.0479309
0.0475295
0.0472029
0.0469417
0.0467418
0.0465973
0.0465016
0.0464496
0.0464377
0.0464633
0.0465242
0.0466187
0.0467454
0.0469035
0.047092
0.0473105
0.0475586
0.047836
0.0481427
0.0484785
0.0488435
0.0492375
0.0496605
0.0501122
0.0505924
0.0511004
0.0516352
0.0521954
0.0527792
0.0533836
0.0540049
0.0546381
0.0552765
0.0559119
0.0565338
0.0571301
0.0576869
0.0581909
0.0586301
0.0589988
0.0630792
0.0613392
0.0584052
0.055417
0.0532585
0.0519069
0.0508967
0.0499663
0.0491345
0.048467
0.0479552
0.0475516
0.0472238
0.0469606
0.0467579
0.0466103
0.0465116
0.0464565
0.0464414
0.0464635
0.0465208
0.0466115
0.0467342
0.046888
0.0470719
0.0472853
0.047528
0.0477995
0.0480996
0.0484283
0.0487853
0.0491706
0.0495838
0.0500247
0.0504928
0.0509874
0.0515072
0.0520509
0.0526161
0.0531999
0.0537986
0.0544069
0.0550185
0.0556251
0.0562171
0.0567831
0.0573109
0.0577889
0.0582075
0.058563
0.0622997
0.0607586
0.0581198
0.055341
0.0532413
0.0518822
0.0508807
0.0499756
0.0491593
0.0484925
0.0479768
0.0475711
0.0472423
0.0469774
0.0467721
0.0466216
0.0465198
0.0464616
0.0464432
0.0464618
0.0465155
0.0466023
0.0467208
0.0468701
0.0470492
0.0472574
0.0474944
0.0477597
0.0480531
0.0483743
0.0487231
0.0490992
0.0495023
0.049932
0.0503877
0.0508684
0.0513729
0.0518994
0.0524457
0.0530087
0.0535845
0.0541678
0.0547525
0.0553306
0.0558929
0.0564293
0.0569287
0.0573812
0.0577792
0.0581205
0.0615549
0.0601881
0.0578162
0.0552412
0.0532118
0.0518524
0.0508582
0.0499768
0.0491779
0.0485142
0.0479955
0.0475879
0.0472582
0.046992
0.0467843
0.0466308
0.046526
0.0464647
0.046443
0.0464581
0.046508
0.0465908
0.046705
0.0468497
0.0470238
0.0472266
0.0474577
0.0477165
0.0480028
0.0483163
0.0486565
0.0490231
0.0494158
0.0498339
0.0502767
0.0507432
0.0512319
0.051741
0.052268
0.0528098
0.0533624
0.0539207
0.0544784
0.0550282
0.0555613
0.0560685
0.05654
0.0569674
0.0573446
0.0576705
0.0608425
0.0596287
0.0574972
0.0551188
0.0531688
0.0518169
0.0508294
0.0499701
0.0491899
0.0485317
0.0480112
0.0476016
0.0472712
0.0470039
0.0467942
0.0466379
0.0465302
0.0464657
0.0464407
0.0464522
0.0464982
0.0465769
0.0466867
0.0468265
0.0469954
0.0471927
0.0474176
0.0476698
0.0479487
0.048254
0.0485854
0.0489422
0.0493241
0.0497302
0.0501598
0.0506116
0.0510841
0.0515753
0.0520828
0.0526031
0.0531323
0.0536654
0.0541963
0.0547179
0.0552222
0.0557006
0.0561447
0.0565471
0.0569031
0.0572124
0.0601602
0.0590809
0.0571656
0.0549749
0.0531116
0.0517749
0.0507945
0.0499557
0.049195
0.0485443
0.0480233
0.0476122
0.0472812
0.0470131
0.0468015
0.0466427
0.046532
0.0464644
0.046436
0.0464439
0.046486
0.0465604
0.0466656
0.0468005
0.046964
0.0471554
0.047374
0.0476192
0.0478905
0.0481874
0.0485095
0.0488562
0.0492269
0.0496207
0.0500366
0.0504733
0.0509293
0.0514023
0.0518898
0.0523884
0.0528941
0.0534019
0.053906
0.0543996
0.0548754
0.0553255
0.0557424
0.0561199
0.0564543
0.0567457
0.0595061
0.0585451
0.056824
0.0548109
0.0530395
0.0517256
0.0507535
0.0499336
0.0491928
0.0485517
0.0480317
0.0476194
0.0472879
0.0470193
0.0468061
0.0466449
0.0465313
0.0464606
0.0464288
0.0464331
0.0464711
0.0465411
0.0466417
0.0467714
0.0469294
0.0471147
0.0473266
0.0475646
0.047828
0.0481162
0.0484288
0.048765
0.049124
0.0495051
0.049907
0.0503283
0.0507673
0.0512218
0.0516891
0.0521657
0.0526476
0.0531301
0.0536075
0.0540733
0.0545208
0.0549429
0.0553329
0.0556855
0.0559977
0.0562698
0.058878
0.0580215
0.0564745
0.0546284
0.0529523
0.0516681
0.0507064
0.0499041
0.0491832
0.0485534
0.0480359
0.047623
0.0472912
0.0470221
0.0468078
0.0466444
0.046528
0.0464541
0.046419
0.0464195
0.0464534
0.0465189
0.0466146
0.046739
0.0468912
0.0470702
0.0472753
0.0475058
0.047761
0.0480402
0.0483429
0.0486682
0.0490153
0.0493833
0.0497708
0.0501763
0.050598
0.0510336
0.0514803
0.0519348
0.0523929
0.05285
0.0533007
0.053739
0.0541585
0.0545528
0.054916
0.0552436
0.0555329
0.0557845
0.0582743
0.0575101
0.0561191
0.0544291
0.0528498
0.0516018
0.0506529
0.0498674
0.049166
0.048549
0.0480356
0.0476228
0.0472907
0.0470215
0.0468062
0.0466408
0.0465217
0.0464448
0.0464062
0.0464029
0.0464326
0.0464935
0.0465842
0.0467032
0.0468494
0.0470219
0.0472199
0.0474426
0.0476892
0.0479592
0.0482516
0.0485657
0.0489006
0.049255
0.0496277
0.0500171
0.0504212
0.0508377
0.0512636
0.0516956
0.0521298
0.0525615
0.0529856
0.0533965
0.0537883
0.054155
0.0544916
0.0547939
0.0550598
0.0552896
0.0576933
0.0570107
0.0557596
0.0542147
0.0527324
0.0515258
0.0505927
0.0498235
0.0491413
0.048538
0.0480302
0.0476184
0.0472864
0.0470172
0.0468011
0.0466339
0.0465122
0.0464323
0.0463902
0.0463831
0.0464086
0.0464648
0.0465503
0.0466636
0.0468037
0.0469695
0.0471601
0.0473747
0.0476126
0.0478729
0.0481548
0.0484573
0.0487795
0.0491201
0.0494777
0.0498506
0.0502368
0.0506337
0.0510386
0.0514481
0.0518583
0.0522646
0.0526623
0.0530459
0.0534101
0.0537495
0.0540594
0.0543363
0.054578
0.0547849
0.0571334
0.0565231
0.0553973
0.0539868
0.0526002
0.0514397
0.0505255
0.0497725
0.0491089
0.0485202
0.0480194
0.0476095
0.0472779
0.0470088
0.0467923
0.0466235
0.0464994
0.0464164
0.0463709
0.0463599
0.0463811
0.0464325
0.0465126
0.0466202
0.0467539
0.0469127
0.0470957
0.047302
0.0475308
0.0477811
0.0480522
0.0483428
0.048652
0.0489785
0.0493206
0.0496767
0.0500445
0.0504218
0.0508054
0.0511922
0.0515783
0.0519593
0.0523306
0.0526872
0.053024
0.0533362
0.0536195
0.0538706
0.0540876
0.0542705
0.0565932
0.056047
0.0550336
0.053747
0.0524539
0.051343
0.0504508
0.0497144
0.0490689
0.0484953
0.0480028
0.0475958
0.0472651
0.0469963
0.0467794
0.0466094
0.046483
0.046397
0.0463481
0.0463331
0.0463498
0.0463963
0.046471
0.0465726
0.0466997
0.0468514
0.0470265
0.0472243
0.0474436
0.0476837
0.0479435
0.048222
0.0485179
0.0488298
0.0491561
0.049495
0.0498444
0.0502017
0.0505639
0.0509279
0.0512898
0.0516455
0.0519905
0.0523202
0.0526299
0.052915
0.0531716
0.0533968
0.0535886
0.0537466
0.0560714
0.0555821
0.0546694
0.0534968
0.0522943
0.0512354
0.0503683
0.0496492
0.0490214
0.0484632
0.04798
0.047577
0.0472476
0.0469793
0.0467623
0.0465912
0.0464627
0.0463738
0.0463214
0.0463025
0.0463147
0.0463562
0.0464253
0.0465206
0.046641
0.0467853
0.0469523
0.0471412
0.0473509
0.0475804
0.0478287
0.0480946
0.0483768
0.0486739
0.0489841
0.0493057
0.0496362
0.0499733
0.050314
0.050655
0.0509928
0.0513233
0.0516422
0.0519452
0.0522278
0.0524859
0.0527159
0.0529149
0.053081
0.0532134
0.0555666
0.055128
0.0543057
0.0532376
0.0521219
0.0511168
0.0502776
0.0495767
0.0489663
0.0484236
0.0479507
0.0475526
0.0472251
0.0469576
0.0467407
0.0465686
0.0464382
0.0463465
0.0462906
0.0462677
0.0462754
0.0463117
0.0463751
0.0464641
0.0465775
0.0467142
0.0468729
0.0470526
0.0472524
0.047471
0.0477075
0.0479606
0.0482288
0.0485107
0.0488045
0.0491084
0.0494199
0.0497366
0.0500556
0.0503737
0.0506873
0.0509926
0.0512856
0.051562
0.0518178
0.0520491
0.0522524
0.0524251
0.0525651
0.0526713
0.0550777
0.0546843
0.053943
0.0529707
0.0519378
0.0509872
0.0501783
0.0494967
0.0489036
0.0483765
0.0479146
0.0475223
0.0471974
0.0469309
0.0467142
0.0465415
0.0464092
0.0463149
0.0462556
0.0462286
0.0462316
0.0462627
0.0463202
0.0464028
0.046509
0.0466378
0.0467879
0.0469583
0.0471478
0.0473553
0.0475797
0.0478196
0.0480735
0.04834
0.0486172
0.0489031
0.0491954
0.0494916
0.0497888
0.0500839
0.0503734
0.0506536
0.0509208
0.0511708
0.0513999
0.0516045
0.0517813
0.0519275
0.0520411
0.0521207
0.0546037
0.0542505
0.053582
0.0526972
0.0517428
0.0508468
0.0500701
0.0494091
0.0488333
0.0483217
0.0478714
0.0474859
0.0471641
0.046899
0.0466828
0.0465094
0.0463756
0.0462786
0.0462159
0.0461849
0.0461832
0.0462089
0.0462604
0.0463363
0.0464353
0.046556
0.0466973
0.046858
0.047037
0.0472331
0.0474451
0.0476715
0.0479109
0.0481616
0.0484219
0.0486897
0.0489626
0.0492382
0.0495135
0.0497856
0.0500511
0.0503064
0.0505478
0.0507717
0.0509744
0.0511524
0.0513027
0.0514225
0.0515096
0.0515623
0.0541435
0.0538262
0.0532231
0.0524182
0.0515377
0.0506958
0.0499529
0.0493136
0.0487553
0.0482593
0.0478209
0.0474428
0.0471249
0.0468616
0.046646
0.0464722
0.0463369
0.0462374
0.0461714
0.0461362
0.0461298
0.0461501
0.0461955
0.0462646
0.046356
0.0464684
0.0466006
0.0467515
0.0469197
0.0471042
0.0473034
0.0475161
0.0477407
0.0479755
0.0482187
0.0484681
0.0487215
0.0489763
0.0492298
0.0494789
0.0497204
0.0499509
0.0501669
0.0503649
0.0505413
0.050693
0.0508168
0.0509103
0.0509709
0.0509967
0.0536962
0.0534109
0.0528666
0.0521346
0.0513234
0.0505346
0.0498265
0.0492101
0.0486696
0.048189
0.0477629
0.047393
0.0470795
0.0468184
0.0466036
0.0464296
0.046293
0.0461911
0.0461217
0.0460825
0.0460712
0.046086
0.0461252
0.0461873
0.0462709
0.0463749
0.0464979
0.0466386
0.0467958
0.0469683
0.0471546
0.0473533
0.0475629
0.0477815
0.0480074
0.0482383
0.048472
0.048706
0.0489376
0.0491638
0.0493814
0.0495874
0.0497781
0.0499504
0.0501009
0.0502265
0.0503242
0.0503914
0.0504256
0.0504247
0.0532609
0.0530042
0.0525127
0.0518472
0.0511008
0.0503635
0.049691
0.0490984
0.0485761
0.0481109
0.0476973
0.047336
0.0470276
0.0467691
0.0465553
0.0463813
0.0462434
0.0461393
0.0460666
0.0460233
0.0460071
0.0460163
0.0460491
0.0461041
0.0461799
0.0462752
0.0463887
0.046519
0.046665
0.0468253
0.0469985
0.047183
0.0473773
0.0475795
0.0477879
0.0480002
0.0482142
0.0484273
0.0486371
0.0488404
0.0490344
0.0492159
0.0493817
0.0495286
0.0496535
0.0497532
0.049825
0.0498663
0.0498744
0.0498471
0.0528367
0.0526056
0.0521616
0.0515566
0.0508707
0.0501831
0.0495463
0.0489783
0.0484746
0.0480249
0.0476239
0.0472717
0.0469688
0.0467134
0.0465009
0.0463269
0.046188
0.0460817
0.0460059
0.0459584
0.0459373
0.0459408
0.0459672
0.0460149
0.0460826
0.0461691
0.0462729
0.0463927
0.0465272
0.0466751
0.0468348
0.0470049
0.0471837
0.0473695
0.0475602
0.0477538
0.047948
0.0481403
0.0483282
0.0485089
0.0486794
0.0488368
0.0489779
0.0490998
0.0491993
0.0492736
0.0493199
0.0493356
0.049318
0.0492648
0.0524228
0.0522146
0.0518134
0.0512634
0.0506336
0.0499939
0.0493926
0.0488498
0.048365
0.0479308
0.0475425
0.0471997
0.046903
0.0466509
0.0464401
0.0462663
0.0461265
0.0460181
0.0459391
0.0458875
0.0458615
0.0458592
0.045879
0.0459193
0.0459789
0.0460563
0.0461502
0.0462593
0.0463821
0.0465174
0.0466635
0.046819
0.0469822
0.0471513
0.0473242
0.0474991
0.0476735
0.0478451
0.0480113
0.0481694
0.0483167
0.0484502
0.048567
0.0486641
0.0487388
0.048788
0.0488093
0.0487998
0.0487571
0.0486787
0.0520185
0.0518308
0.0514681
0.0509682
0.0503905
0.0497962
0.04923
0.0487128
0.0482473
0.0478287
0.0474532
0.0471201
0.0468298
0.0465816
0.0463725
0.0461992
0.0460586
0.0459482
0.0458661
0.0458104
0.0457794
0.0457713
0.0457844
0.0458172
0.0458684
0.0459366
0.0460205
0.0461186
0.0462296
0.046352
0.0464844
0.0466252
0.0467726
0.0469249
0.0470801
0.0472361
0.0473907
0.0475416
0.0476863
0.0478221
0.0479464
0.0480564
0.0481492
0.0482221
0.0482723
0.0482971
0.0482937
0.0482598
0.0481926
0.0480898
0.051623
0.0514538
0.0511258
0.0506714
0.0501418
0.0495907
0.0490588
0.0485673
0.0481214
0.0477185
0.0473557
0.0470324
0.046749
0.0465049
0.046298
0.0461253
0.0459839
0.0458716
0.0457865
0.0457268
0.0456907
0.0456767
0.045683
0.0457083
0.045751
0.0458099
0.0458835
0.0459705
0.0460695
0.046179
0.0462975
0.0464233
0.0465549
0.0466903
0.0468276
0.0469649
0.0470998
0.0472302
0.0473535
0.0474673
0.0475689
0.0476557
0.047725
0.0477741
0.0478003
0.0478012
0.0477739
0.0477162
0.0476254
0.0474991
0.0512358
0.051083
0.0507863
0.0503732
0.049888
0.0493778
0.0488793
0.0484134
0.0479872
0.0476
0.04725
0.0469367
0.0466604
0.0464208