/*--------------------------------*- C++ -*----------------------------------*\
  =========                 |
  \\      /  F ield         | OpenFOAM: The Open Source CFD Toolbox
   \\    /   O peration     | Website:  https://openfoam.org
    \\  /    A nd           | Version:  7
     \\/     M anipulation  |
\*---------------------------------------------------------------------------*/
FoamFile
{
    version     2.0;
    format      ascii;
    class       surfaceScalarField;
    location    "0.14";
    object      phi;
}
// * * * * * * * * * * * * * * * * * * * * * * * * * * * * * * * * * * * * * //

dimensions      [0 3 -1 0 0 0 0];

internalField   nonuniform List<scalar> 
139350
(
6.45093e-08
9.21222e-08
3.19568e-08
3.25525e-08
2.30449e-08
8.9119e-09
1.95526e-08
3.49227e-09
1.75925e-08
1.96012e-09
1.61535e-08
1.43904e-09
1.50112e-08
1.14226e-09
1.40891e-08
9.22079e-10
1.33286e-08
7.60543e-10
1.26863e-08
6.42324e-10
1.21334e-08
5.52898e-10
1.16506e-08
4.82816e-10
1.12241e-08
4.2649e-10
1.08437e-08
3.80404e-10
1.05015e-08
3.42163e-10
1.01914e-08
3.10053e-10
9.90862e-09
2.82822e-10
9.64909e-09
2.59533e-10
9.40961e-09
2.39476e-10
9.18751e-09
2.22106e-10
8.98051e-09
2.06996e-10
8.7867e-09
1.9381e-10
8.60442e-09
1.8228e-10
8.43223e-09
1.7219e-10
8.26886e-09
1.63369e-10
8.11319e-09
1.55678e-10
7.96418e-09
1.49006e-10
7.82091e-09
1.4327e-10
7.68251e-09
1.38398e-10
7.54816e-09
1.3435e-10
7.41708e-09
1.31076e-10
7.2885e-09
1.28587e-10
7.16167e-09
1.26828e-10
7.03578e-09
1.25891e-10
6.91011e-09
1.25666e-10
6.78371e-09
1.264e-10
6.65589e-09
1.27827e-10
6.5254e-09
1.30485e-10
6.39159e-09
1.33808e-10
6.25282e-09
1.3877e-10
6.10835e-09
1.44471e-10
5.95622e-09
1.52132e-10
5.79491e-09
1.61312e-10
5.62327e-09
1.71633e-10
5.43606e-09
1.87218e-10
5.23794e-09
1.98113e-10
5.00805e-09
2.2989e-10
4.78425e-09
2.23799e-10
4.39364e-09
3.9061e-10
-1.81114e-09
6.20478e-09
1.25939e-07
1.27627e-07
9.12752e-08
6.72164e-08
7.1907e-08
2.82801e-08
6.11733e-08
1.42259e-08
5.47168e-08
8.41666e-09
5.01998e-08
5.95601e-09
4.66918e-08
4.65027e-09
4.38539e-08
3.75998e-09
4.15055e-08
3.10889e-09
3.95214e-08
2.6265e-09
3.78142e-08
2.26006e-09
3.6324e-08
1.97299e-09
3.50081e-08
1.74236e-09
3.38349e-08
1.55362e-09
3.27802e-08
1.3969e-09
3.1825e-08
1.2652e-09
3.09545e-08
1.15339e-09
3.01564e-08
1.05765e-09
2.94207e-08
9.75089e-10
2.87394e-08
9.03462e-10
2.81054e-08
8.41025e-10
2.75128e-08
7.86397e-10
2.69566e-08
7.38477e-10
2.64324e-08
6.96379e-10
2.59364e-08
6.59396e-10
2.54651e-08
6.26951e-10
2.50155e-08
5.98586e-10
2.45848e-08
5.73938e-10
2.41705e-08
5.52714e-10
2.37702e-08
5.34717e-10
2.33815e-08
5.19762e-10
2.30022e-08
5.07814e-10
2.26303e-08
4.98732e-10
2.22635e-08
4.92711e-10
2.18997e-08
4.89515e-10
2.15363e-08
4.89781e-10
2.11712e-08
4.92878e-10
2.08014e-08
5.00355e-10
2.04246e-08
5.10567e-10
2.00365e-08
5.26897e-10
1.96354e-08
5.45586e-10
1.92142e-08
5.73304e-10
1.87726e-08
6.02861e-10
1.82989e-08
6.45347e-10
1.7795e-08
6.91132e-10
1.72424e-08
7.50702e-10
1.66391e-08
8.33239e-10
1.59904e-08
8.72491e-10
1.51154e-08
1.26563e-09
-1.43265e-09
1.47369e-08
1.58749e-07
1.35281e-07
1.36513e-07
8.94529e-08
1.1746e-07
4.73326e-08
1.03259e-07
2.84274e-08
9.32373e-08
1.84381e-08
8.59072e-08
1.32862e-08
8.01678e-08
1.03896e-08
7.54836e-08
8.44426e-09
7.15723e-08
7.02015e-09
6.82466e-08
5.95222e-09
6.53731e-08
5.13353e-09
6.28572e-08
4.48893e-09
6.06302e-08
3.96936e-09
5.86409e-08
3.54292e-09
5.68499e-08
3.18789e-09
5.52263e-08
2.8888e-09
5.37453e-08
2.63433e-09
5.2387e-08
2.41597e-09
5.11349e-08
2.22726e-09
4.99751e-08
2.06319e-09
4.88963e-08
1.91985e-09
4.78886e-08
1.79413e-09
4.69435e-08
1.68353e-09
4.60538e-08
1.58606e-09
4.52131e-08
1.50011e-09
4.44157e-08
1.42437e-09
4.36565e-08
1.35777e-09
4.29309e-08
1.29949e-09
4.22348e-08
1.24884e-09
4.15642e-08
1.20534e-09
4.09154e-08
1.16858e-09
4.02848e-08
1.13837e-09
3.96691e-08
1.11449e-09
3.90646e-08
1.09715e-09
3.84681e-08
1.08605e-09
3.78757e-08
1.0822e-09
3.72839e-08
1.08466e-09
3.66881e-08
1.09617e-09
3.60848e-08
1.11379e-09
3.54674e-08
1.14432e-09
3.48334e-08
1.17956e-09
3.41713e-08
1.23545e-09
3.34824e-08
1.2918e-09
3.27442e-08
1.38352e-09
3.19679e-08
1.46743e-09
3.11097e-08
1.60891e-09
3.0193e-08
1.74986e-09
2.91715e-08
1.89405e-09
2.79691e-08
2.46799e-09
1.47861e-10
2.63886e-08
1.75609e-07
1.31188e-07
1.65613e-07
9.94495e-08
1.52706e-07
6.02388e-08
1.40072e-07
4.10624e-08
1.2936e-07
2.91498e-08
1.20685e-07
2.19607e-08
1.13535e-07
1.75403e-08
1.07513e-07
1.44655e-08
1.02372e-07
1.21617e-08
9.79277e-08
1.03963e-08
9.40416e-08
9.0197e-09
9.06078e-08
7.92272e-09
8.75466e-08
7.03059e-09
8.47964e-08
6.29312e-09
8.23088e-08
5.67545e-09
8.00452e-08
5.15243e-09
7.79741e-08
4.70543e-09
7.60697e-08
4.32034e-09
7.43106e-08
3.98632e-09
7.26789e-08
3.69495e-09
7.11592e-08
3.43954e-09
6.97385e-08
3.2148e-09
6.84056e-08
3.01645e-09
6.71506e-08
2.84103e-09
6.5965e-08
2.68576e-09
6.48411e-08
2.54832e-09
6.37719e-08
2.42689e-09
6.27515e-08
2.31997e-09
6.17739e-08
2.22636e-09
6.08341e-08
2.14516e-09
5.9927e-08
2.07566e-09
5.9048e-08
2.01744e-09
5.81923e-08
1.97013e-09
5.73555e-08
1.93394e-09
5.65331e-08
1.90848e-09
5.57202e-08
1.89513e-09
5.49122e-08
1.89265e-09
5.41032e-08
1.90512e-09
5.32889e-08
1.92817e-09
5.24606e-08
1.97257e-09
5.16153e-08
2.02492e-09
5.07383e-08
2.11244e-09
4.98311e-08
2.19896e-09
4.88655e-08
2.34912e-09
4.78549e-08
2.478e-09
4.67447e-08
2.71918e-09
4.55633e-08
2.93126e-09
4.42416e-08
3.2157e-09
4.27631e-08
3.94654e-09
2.27568e-09
4.06352e-08
1.84509e-07
1.23464e-07
1.82333e-07
1.01625e-07
1.76099e-07
6.64727e-08
1.67719e-07
4.94427e-08
1.59069e-07
3.77997e-08
1.51126e-07
2.99029e-08
1.44012e-07
2.46543e-08
1.37668e-07
2.08103e-08
1.3202e-07
1.78091e-08
1.26987e-07
1.54298e-08
1.22482e-07
1.35247e-08
1.18429e-07
1.19754e-08
1.14764e-07
1.06953e-08
1.11434e-07
9.62359e-09
1.08393e-07
8.71643e-09
1.05604e-07
7.94141e-09
1.03035e-07
7.27396e-09
1.00661e-07
6.69513e-09
9.84567e-08
6.19012e-09
9.64044e-08
5.74725e-09
9.44868e-08
5.35717e-09
9.26892e-08
5.01237e-09
9.0999e-08
4.70673e-09
8.94047e-08
4.43526e-09
8.78966e-08
4.19391e-09
8.64656e-08
3.97932e-09
8.51037e-08
3.78877e-09
8.38036e-08
3.62003e-09
8.25587e-08
3.47135e-09
8.13625e-08
3.3413e-09
8.02093e-08
3.22885e-09
7.90935e-08
3.13329e-09
7.80095e-08
3.05408e-09
7.69521e-08
2.99138e-09
7.59158e-08
2.94473e-09
7.48951e-08
2.91584e-09
7.38845e-08
2.90325e-09
7.28774e-08
2.9123e-09
7.18682e-08
2.93735e-09
7.08476e-08
2.99312e-09
6.98113e-08
3.06122e-09
6.87437e-08
3.18009e-09
6.76444e-08
3.29826e-09
6.64844e-08
3.50906e-09
6.52729e-08
3.68952e-09
6.39581e-08
4.03405e-09
6.25547e-08
4.33459e-09
6.10028e-08
4.76762e-09
5.92744e-08
5.67499e-09
4.6703e-09
5.68798e-08
1.90341e-07
1.1534e-07
1.91853e-07
1.00113e-07
1.90246e-07
6.80797e-08
1.86123e-07
5.35659e-08
1.80658e-07
4.32646e-08
1.74873e-07
3.56883e-08
1.69136e-07
3.03912e-08
1.63606e-07
2.63401e-08
1.58381e-07
2.30335e-08
1.53505e-07
2.03059e-08
1.48981e-07
1.80489e-08
1.44793e-07
1.61636e-08
1.40917e-07
1.45713e-08
1.37327e-07
1.32134e-08
1.33998e-07
1.20461e-08
1.30903e-07
1.10357e-08
1.28022e-07
1.01556e-08
1.25332e-07
9.38492e-09
1.22815e-07
8.70669e-09
1.20455e-07
8.10736e-09
1.18236e-07
7.57584e-09
1.16146e-07
7.10306e-09
1.14171e-07
6.68154e-09
1.12301e-07
6.30509e-09
1.10526e-07
5.96863e-09
1.08838e-07
5.66789e-09
1.07227e-07
5.39941e-09
1.05687e-07
5.16032e-09
1.0421e-07
4.94832e-09
1.0279e-07
4.76156e-09
1.0142e-07
4.59868e-09
1.00094e-07
4.45871e-09
9.88076e-08
4.34097e-09
9.75534e-08
4.24554e-09
9.63261e-08
4.17198e-09
9.51197e-08
4.12224e-09
9.39282e-08
4.0948e-09
9.27444e-08
4.09607e-09
9.15622e-08
4.11953e-09
9.03721e-08
4.18328e-09
8.91682e-08
4.26509e-09
8.79356e-08
4.41272e-09
8.66706e-08
4.56319e-09
8.53478e-08
4.83189e-09
8.3967e-08
5.07033e-09
8.24887e-08
5.51231e-09
8.0904e-08
5.91929e-09
7.91778e-08
6.49389e-09
7.72485e-08
7.60421e-09
7.23991e-09
7.46789e-08
1.95503e-07
1.07652e-07
1.98241e-07
9.73748e-08
1.98972e-07
6.73492e-08
1.97764e-07
5.47738e-08
1.95109e-07
4.59196e-08
1.91741e-07
3.90562e-08
1.87973e-07
3.41587e-08
1.8398e-07
3.03337e-08
1.79912e-07
2.71017e-08
1.7588e-07
2.43374e-08
1.71954e-07
2.1975e-08
1.68173e-07
1.99448e-08
1.64557e-07
1.81868e-08
1.61116e-07
1.66545e-08
1.5785e-07
1.5312e-08
1.54756e-07
1.41304e-08
1.51825e-07
1.30861e-08
1.4905e-07
1.21599e-08
1.46421e-07
1.13355e-08
1.43929e-07
1.05997e-08
1.41564e-07
9.94118e-09
1.39316e-07
9.35066e-09
1.37177e-07
8.82025e-09
1.35139e-07
8.34327e-09
1.33194e-07
7.91419e-09
1.31333e-07
7.52829e-09
1.29551e-07
7.18171e-09
1.2784e-07
6.87119e-09
1.26194e-07
6.59415e-09
1.24607e-07
6.34846e-09
1.23074e-07
6.13257e-09
1.21587e-07
5.94536e-09
1.20142e-07
5.78611e-09
1.18732e-07
5.6549e-09
1.17353e-07
5.55137e-09
1.15998e-07
5.47771e-09
1.1466e-07
5.4325e-09
1.13333e-07
5.42304e-09
1.1201e-07
5.44242e-09
1.10682e-07
5.51127e-09
1.09342e-07
5.6052e-09
1.07976e-07
5.77836e-09
1.06578e-07
5.96166e-09
1.05126e-07
6.28326e-09
1.03612e-07
6.58508e-09
1.02009e-07
7.11482e-09
1.00287e-07
7.64158e-09
9.8431e-08
8.34971e-09
9.63644e-08
9.6708e-09
9.92022e-09
9.36841e-08
2.00818e-07
1.00419e-07
2.03766e-07
9.44268e-08
2.05332e-07
6.57828e-08
2.05622e-07
5.4484e-08
2.04775e-07
4.67667e-08
2.03273e-07
4.05584e-08
2.01295e-07
3.61363e-08
1.98927e-07
3.27014e-08
1.96277e-07
2.97521e-08
1.93447e-07
2.71672e-08
1.90519e-07
2.49028e-08
1.87554e-07
2.29097e-08
1.84597e-07
2.11437e-08
1.81681e-07
1.9571e-08
1.78827e-07
1.81656e-08
1.76051e-07
1.69062e-08
1.73363e-07
1.5775e-08
1.70766e-07
1.47568e-08
1.68263e-07
1.38386e-08
1.65853e-07
1.30091e-08
1.63535e-07
1.22589e-08
1.61307e-07
1.15795e-08
1.59163e-07
1.09638e-08
1.57101e-07
1.04056e-08
1.55115e-07
9.89959e-09
1.53202e-07
9.44127e-09
1.51357e-07
9.02687e-09
1.49575e-07
8.65318e-09
1.47852e-07
8.31764e-09
1.46182e-07
8.01816e-09
1.44561e-07
7.75323e-09
1.42985e-07
7.52178e-09
1.41448e-07
7.32322e-09
1.39945e-07
7.15772e-09
1.38471e-07
7.02517e-09
1.37021e-07
6.92804e-09
1.35588e-07
6.86522e-09
1.34166e-07
6.84469e-09
1.32749e-07
6.85967e-09
1.31328e-07
6.93248e-09
1.29895e-07
7.03831e-09
1.28439e-07
7.23462e-09
1.26949e-07
7.45159e-09
1.25411e-07
7.82118e-09
1.23806e-07
8.19009e-09
1.22122e-07
8.79849e-09
1.20313e-07
9.45115e-09
1.18373e-07
1.02891e-08
1.16233e-07
1.18108e-08
1.26336e-08
1.1352e-07
2.06421e-07
9.353e-08
2.09325e-07
9.15226e-08
2.11043e-07
6.4065e-08
2.11913e-07
5.36137e-08
2.11962e-07
4.67178e-08
2.11558e-07
4.09625e-08
2.10804e-07
3.68906e-08
2.09701e-07
3.38037e-08
2.0829e-07
3.11636e-08
2.06628e-07
2.88294e-08
2.04771e-07
2.67595e-08
2.02769e-07
2.49115e-08
2.00665e-07
2.32476e-08
1.98496e-07
2.17406e-08
1.9629e-07
2.03711e-08
1.94073e-07
1.91238e-08
1.91861e-07
1.79861e-08
1.89671e-07
1.69472e-08
1.87512e-07
1.59977e-08
1.85392e-07
1.51293e-08
1.83316e-07
1.43348e-08
1.81288e-07
1.36077e-08
1.79309e-07
1.29424e-08
1.77381e-07
1.23338e-08
1.75503e-07
1.17775e-08
1.73675e-07
1.12698e-08
1.71894e-07
1.08074e-08
1.7016e-07
1.03876e-08
1.68469e-07
1.00083e-08
1.6682e-07
9.66759e-09
1.65208e-07
9.36444e-09
1.63632e-07
9.09797e-09
1.62087e-07
8.86795e-09
1.6057e-07
8.67482e-09
1.59077e-07
8.51887e-09
1.57602e-07
8.4029e-09
1.56141e-07
8.32633e-09
1.54688e-07
8.29768e-09
1.53237e-07
8.31081e-09
1.5178e-07
8.38896e-09
1.5031e-07
8.50835e-09
1.48817e-07
8.72725e-09
1.4729e-07
8.97941e-09
1.45717e-07
9.39352e-09
1.44076e-07
9.8316e-09
1.42362e-07
1.05118e-08
1.40523e-07
1.129e-08
1.38556e-07
1.2257e-08
1.36407e-07
1.39591e-08
1.52967e-08
1.33744e-07
2.12267e-07
8.69253e-08
2.15134e-07
8.8656e-08
2.16797e-07
6.24013e-08
2.17827e-07
5.25837e-08
2.18222e-07
4.6323e-08
2.18322e-07
4.08628e-08
2.18224e-07
3.69883e-08
2.17897e-07
3.4131e-08
2.17334e-07
3.17269e-08
2.16553e-07
2.961e-08
2.15579e-07
2.77337e-08
2.14436e-07
2.60539e-08
2.13152e-07
2.45322e-08
2.11751e-07
2.31418e-08
2.10257e-07
2.18649e-08
2.08692e-07
2.06888e-08
2.07074e-07
1.96034e-08
2.05421e-07
1.86005e-08
2.03746e-07
1.76733e-08
2.02059e-07
1.6816e-08
2.0037e-07
1.60234e-08
1.98687e-07
1.52908e-08
1.97015e-07
1.46142e-08
1.95359e-07
1.39899e-08
1.93722e-07
1.34147e-08
1.92106e-07
1.28857e-08
1.90513e-07
1.24006e-08
1.88943e-07
1.19573e-08
1.87397e-07
1.15543e-08
1.85874e-07
1.11904e-08
1.84374e-07
1.0865e-08
1.82894e-07
1.05777e-08
1.81433e-07
1.03287e-08
1.79989e-07
1.0119e-08
1.78559e-07
9.94932e-09
1.77139e-07
9.82297e-09
1.75725e-07
9.73994e-09
1.74313e-07
9.70934e-09
1.72898e-07
9.72594e-09
1.71474e-07
9.8134e-09
1.70032e-07
9.95e-09
1.68566e-07
1.0193e-08
1.67063e-07
1.04826e-08
1.65517e-07
1.09396e-08
1.63901e-07
1.14476e-08
1.62218e-07
1.21951e-08
1.60414e-07
1.30938e-08
1.58482e-07
1.4189e-08
1.56395e-07
1.60464e-08
1.78267e-08
1.53865e-07
2.18313e-07
8.05931e-08
2.21183e-07
8.57861e-08
2.22769e-07
6.08146e-08
2.23827e-07
5.15257e-08
2.24331e-07
4.58198e-08
2.24608e-07
4.05851e-08
2.24788e-07
3.68085e-08
2.24841e-07
3.40779e-08
2.24747e-07
3.18215e-08
2.24504e-07
2.98522e-08
2.24119e-07
2.81192e-08
2.23596e-07
2.65768e-08
2.22945e-07
2.51833e-08
2.22177e-07
2.39098e-08
2.21305e-07
2.27371e-08
2.20342e-07
2.16519e-08
2.19301e-07
2.06443e-08
2.18194e-07
1.9707e-08
2.17034e-07
1.88339e-08
2.15829e-07
1.80204e-08
2.1459e-07
1.72623e-08
2.13325e-07
1.65564e-08
2.12039e-07
1.58995e-08
2.1074e-07
1.52891e-08
2.09432e-07
1.47229e-08
2.08119e-07
1.41989e-08
2.06804e-07
1.37155e-08
2.05489e-07
1.32714e-08
2.04178e-07
1.28658e-08
2.0287e-07
1.2498e-08
2.01567e-07
1.21681e-08
2.00269e-07
1.18761e-08
1.98975e-07
1.16229e-08
1.97684e-07
1.14098e-08
1.96395e-07
1.12384e-08
1.95106e-07
1.11123e-08
1.93813e-07
1.10323e-08
1.92515e-07
1.1008e-08
1.91205e-07
1.10352e-08
1.89881e-07
1.11378e-08
1.88534e-07
1.12966e-08
1.87161e-07
1.15666e-08
1.85747e-07
1.18967e-08
1.8429e-07
1.23961e-08
1.82764e-07
1.29738e-08
1.81174e-07
1.37854e-08
1.79471e-07
1.47961e-08
1.77644e-07
1.60169e-08
1.75688e-07
1.80024e-08
2.01455e-08
1.73369e-07
2.24547e-07
7.45398e-08
2.27442e-07
8.28902e-08
2.28965e-07
5.92921e-08
2.3003e-07
5.0461e-08
2.30573e-07
4.52765e-08
2.30899e-07
4.02592e-08
2.31168e-07
3.65391e-08
2.3137e-07
3.38762e-08
2.31485e-07
3.17062e-08
2.31512e-07
2.98253e-08
2.3145e-07
2.81814e-08
2.31297e-07
2.67301e-08
2.31052e-07
2.54283e-08
2.30717e-07
2.42447e-08
2.30295e-07
2.31584e-08
2.29793e-07
2.21545e-08
2.29215e-07
2.12224e-08
2.28568e-07
2.03539e-08
2.27859e-07
1.9543e-08
2.27094e-07
1.87848e-08
2.26281e-07
1.80757e-08
2.25425e-07
1.74126e-08
2.24531e-07
1.67929e-08
2.23606e-07
1.62146e-08
2.22653e-07
1.56759e-08
2.21676e-07
1.51753e-08
2.2068e-07
1.47119e-08
2.19667e-07
1.42848e-08
2.18639e-07
1.38936e-08
2.17599e-07
1.35382e-08
2.16548e-07
1.32191e-08
2.15487e-07
1.29369e-08
2.14417e-07
1.2693e-08
2.13337e-07
1.24893e-08
2.12248e-07
1.23277e-08
2.11148e-07
1.22125e-08
2.10035e-07
1.21451e-08
2.08907e-07
1.21356e-08
2.07762e-07
1.21809e-08
2.06595e-07
1.23047e-08
2.054e-07
1.2491e-08
2.04176e-07
1.27915e-08
2.02908e-07
1.31644e-08
2.01597e-07
1.37065e-08
2.00219e-07
1.43521e-08
1.98779e-07
1.52254e-08
1.97238e-07
1.6337e-08
1.95578e-07
1.7677e-08
1.93817e-07
1.97631e-08
2.21868e-08
1.91776e-07
2.30972e-07
6.87733e-08
2.33903e-07
7.99595e-08
2.35368e-07
5.78268e-08
2.36441e-07
4.93884e-08
2.37017e-07
4.47008e-08
2.37357e-07
3.9919e-08
2.37648e-07
3.62484e-08
2.37895e-07
3.36289e-08
2.38086e-07
3.15154e-08
2.38222e-07
2.96886e-08
2.38307e-07
2.80971e-08
2.38337e-07
2.67001e-08
2.3831e-07
2.54553e-08
2.38224e-07
2.43306e-08
2.38078e-07
2.33038e-08
2.37874e-07
2.23593e-08
2.3761e-07
2.14855e-08
2.37291e-07
2.06733e-08
2.36918e-07
1.99162e-08
2.36494e-07
1.92089e-08
2.36022e-07
1.85475e-08
2.35506e-07
1.79287e-08
2.34949e-07
1.735e-08
2.34354e-07
1.68095e-08
2.33724e-07
1.63056e-08
2.33063e-07
1.58369e-08
2.32372e-07
1.54026e-08
2.31655e-07
1.50021e-08
2.30913e-07
1.46354e-08
2.30148e-07
1.43027e-08
2.29363e-07
1.40047e-08
2.28557e-07
1.37425e-08
2.27732e-07
1.35177e-08
2.26889e-07
1.33326e-08
2.26027e-07
1.31897e-08
2.25146e-07
1.30937e-08
2.24245e-07
1.30464e-08
2.23322e-07
1.30585e-08
2.22375e-07
1.3128e-08
2.21401e-07
1.3278e-08
2.20397e-07
1.34958e-08
2.19359e-07
1.38292e-08
2.18277e-07
1.42465e-08
2.17152e-07
1.48309e-08
2.15964e-07
1.55408e-08
2.14716e-07
1.64727e-08
2.13382e-07
1.76719e-08
2.11938e-07
1.91209e-08
2.1042e-07
2.12803e-08
2.39045e-08
2.08703e-07
2.37599e-07
6.32994e-08
2.40569e-07
7.69896e-08
2.41976e-07
5.6419e-08
2.43056e-07
4.83089e-08
2.43668e-07
4.40891e-08
2.4402e-07
3.95664e-08
2.44316e-07
3.5953e-08
2.44575e-07
3.33697e-08
2.44788e-07
3.13025e-08
2.44961e-07
2.95159e-08
2.45099e-07
2.79586e-08
2.45204e-07
2.65949e-08
2.45275e-07
2.53846e-08
2.4531e-07
2.42958e-08
2.45307e-07
2.33063e-08
2.45266e-07
2.24002e-08
2.45186e-07
2.15655e-08
2.45067e-07
2.07928e-08
2.44908e-07
2.0075e-08
2.4471e-07
1.94065e-08
2.44475e-07
1.8783e-08
2.44202e-07
1.82011e-08
2.43894e-07
1.76582e-08
2.43551e-07
1.71521e-08
2.43176e-07
1.66811e-08
2.42769e-07
1.62439e-08
2.42332e-07
1.58398e-08
2.41866e-07
1.54681e-08
2.41372e-07
1.51289e-08
2.40852e-07
1.48224e-08
2.40308e-07
1.45496e-08
2.39738e-07
1.43118e-08
2.39145e-07
1.41108e-08
2.38528e-07
1.39493e-08
2.37888e-07
1.38297e-08
2.37225e-07
1.37575e-08
2.36536e-07
1.37347e-08
2.35823e-07
1.37723e-08
2.35081e-07
1.38692e-08
2.34311e-07
1.4048e-08
2.33508e-07
1.42992e-08
2.32671e-07
1.46664e-08
2.3179e-07
1.51272e-08
2.30869e-07
1.57522e-08
2.29889e-07
1.65209e-08
2.28854e-07
1.7507e-08
2.27747e-07
1.87791e-08
2.26545e-07
2.03228e-08
2.25296e-07
2.25296e-08
2.528e-08
2.2392e-07
2.44434e-07
5.81218e-08
2.47442e-07
7.39815e-08
2.48794e-07
5.50667e-08
2.49876e-07
4.7227e-08
2.50526e-07
4.34394e-08
2.50894e-07
3.9198e-08
2.51193e-07
3.56537e-08
2.51457e-07
3.31058e-08
2.51677e-07
3.10828e-08
2.5186e-07
2.93333e-08
2.52014e-07
2.7804e-08
2.52145e-07
2.64646e-08
2.52251e-07
2.52778e-08
2.52335e-07
2.42124e-08
2.52395e-07
2.32466e-08
2.5243e-07
2.23647e-08
2.52441e-07
2.15549e-08
2.52426e-07
2.08078e-08
2.52385e-07
2.0116e-08
2.52317e-07
1.9474e-08
2.52223e-07
1.88772e-08
2.52102e-07
1.83222e-08
2.51954e-07
1.78062e-08
2.51779e-07
1.73268e-08
2.51578e-07
1.68824e-08
2.5135e-07
1.64715e-08
2.51097e-07
1.60934e-08
2.50818e-07
1.57472e-08
2.50513e-07
1.54332e-08
2.50184e-07
1.51515e-08
2.49831e-07
1.49032e-08
2.49453e-07
1.46895e-08
2.49051e-07
1.45125e-08
2.48626e-07
1.4375e-08
2.48176e-07
1.42796e-08
2.47701e-07
1.4232e-08
2.47201e-07
1.42345e-08
2.46676e-07
1.42982e-08
2.46122e-07
1.44231e-08
2.45539e-07
1.46305e-08
2.44924e-07
1.49145e-08
2.44276e-07
1.5314e-08
2.43588e-07
1.58154e-08
2.42862e-07
1.6478e-08
2.42085e-07
1.72979e-08
2.4126e-07
1.83323e-08
2.40377e-07
1.9662e-08
2.39417e-07
2.12829e-08
2.38433e-07
2.35129e-08
2.63243e-08
2.37389e-07
2.51486e-07
5.32424e-08
2.54522e-07
7.09452e-08
2.5583e-07
5.37591e-08
2.56909e-07
4.61482e-08
2.57596e-07
4.27526e-08
2.57983e-07
3.88109e-08
2.58287e-07
3.53495e-08
2.58555e-07
3.28375e-08
2.58779e-07
3.08589e-08
2.58965e-07
2.91472e-08
2.59124e-07
2.76451e-08
2.59261e-07
2.63275e-08
2.59379e-07
2.51602e-08
2.59478e-07
2.4113e-08
2.5956e-07
2.31645e-08
2.59626e-07
2.22995e-08
2.59674e-07
2.15065e-08
2.59705e-07
2.07763e-08
2.5972e-07
2.01018e-08
2.59716e-07
1.94774e-08
2.59695e-07
1.88985e-08
2.59655e-07
1.83618e-08
2.59597e-07
1.78645e-08
2.5952e-07
1.74042e-08
2.59423e-07
1.69793e-08
2.59306e-07
1.65883e-08
2.59169e-07
1.62302e-08
2.59012e-07
1.59044e-08
2.58834e-07
1.56109e-08
2.58636e-07
1.535e-08
2.58417e-07
1.51225e-08
2.58176e-07
1.49299e-08
2.57914e-07
1.47742e-08
2.57631e-07
1.46584e-08
2.57326e-07
1.45851e-08
2.56997e-07
1.45602e-08
2.56645e-07
1.45863e-08
2.56269e-07
1.46743e-08
2.55867e-07
1.48252e-08
2.55439e-07
1.50592e-08
2.5498e-07
1.53732e-08
2.54492e-07
1.58019e-08
2.53968e-07
1.63395e-08
2.53411e-07
1.7035e-08
2.52811e-07
1.78977e-08
2.5217e-07
1.89732e-08
2.51487e-07
2.03454e-08
2.50745e-07
2.20244e-08
2.50002e-07
2.42563e-08
2.7074e-08
2.49252e-07
2.58764e-07
4.86617e-08
2.61818e-07
6.78913e-08
2.63092e-07
5.24852e-08
2.64162e-07
4.50774e-08
2.64884e-07
4.2031e-08
2.65292e-07
3.84033e-08
2.65602e-07
3.50392e-08
2.65875e-07
3.25643e-08
2.66103e-07
3.06305e-08
2.66292e-07
2.89584e-08
2.66453e-07
2.74845e-08
2.66591e-07
2.61887e-08
2.66712e-07
2.50401e-08
2.66815e-07
2.40095e-08
2.66903e-07
2.30761e-08
2.66978e-07
2.22251e-08
2.67039e-07
2.14454e-08
2.67087e-07
2.0728e-08
2.67123e-07
2.0066e-08
2.67146e-07
1.94541e-08
2.67157e-07
1.88878e-08
2.67155e-07
1.83639e-08
2.6714e-07
1.78797e-08
2.67111e-07
1.7433e-08
2.67068e-07
1.7022e-08
2.67011e-07
1.66454e-08
2.66939e-07
1.63022e-08
2.66852e-07
1.59918e-08
2.66748e-07
1.57141e-08
2.66629e-07
1.54695e-08
2.66493e-07
1.52587e-08
2.66339e-07
1.50834e-08
2.66168e-07
1.49454e-08
2.65978e-07
1.48478e-08
2.6577e-07
1.47935e-08
2.65542e-07
1.47881e-08
2.65294e-07
1.48347e-08
2.65024e-07
1.4944e-08
2.64732e-07
1.51178e-08
2.64416e-07
1.53749e-08
2.64074e-07
1.57152e-08
2.63706e-07
1.61693e-08
2.63308e-07
1.67375e-08
2.62882e-07
1.7461e-08
2.62422e-07
1.83578e-08
2.61929e-07
1.94666e-08
2.61407e-07
2.08678e-08
2.60845e-07
2.25858e-08
2.603e-07
2.48015e-08
2.75827e-08
2.59791e-07
2.66276e-07
4.43782e-08
2.69336e-07
6.48305e-08
2.70587e-07
5.12344e-08
2.71646e-07
4.40191e-08
2.72399e-07
4.12777e-08
2.72829e-07
3.79734e-08
2.73146e-07
3.47223e-08
2.73424e-07
3.22863e-08
2.73657e-07
3.03973e-08
2.73849e-07
2.87664e-08
2.74011e-07
2.73223e-08
2.74151e-07
2.6049e-08
2.74272e-07
2.49194e-08
2.74376e-07
2.39055e-08
2.74465e-07
2.29868e-08
2.74541e-07
2.2149e-08
2.74605e-07
2.13814e-08
2.74658e-07
2.06752e-08
2.747e-07
2.00239e-08
2.74732e-07
1.94222e-08
2.74754e-07
1.88659e-08
2.74766e-07
1.83519e-08
2.74768e-07
1.78777e-08
2.74759e-07
1.74413e-08
2.7474e-07
1.70409e-08
2.74711e-07
1.66752e-08
2.74669e-07
1.63434e-08
2.74616e-07
1.60449e-08
2.74551e-07
1.57795e-08
2.74473e-07
1.55477e-08
2.74381e-07
1.53502e-08
2.74276e-07
1.51888e-08
2.74156e-07
1.50652e-08
2.74021e-07
1.49827e-08
2.73871e-07
1.4944e-08
2.73704e-07
1.49552e-08
2.73519e-07
1.50192e-08
2.73317e-07
1.51465e-08
2.73095e-07
1.53399e-08
2.72853e-07
1.56168e-08
2.72588e-07
1.59795e-08
2.72303e-07
1.6455e-08
2.71992e-07
1.70486e-08
2.71657e-07
1.77953e-08
2.71297e-07
1.87185e-08
2.7091e-07
1.98531e-08
2.70506e-07
2.12716e-08
2.70081e-07
2.30113e-08
2.69686e-07
2.51963e-08
2.79096e-08
2.69359e-07
2.7403e-07
4.0389e-08
2.77087e-07
6.17736e-08
2.78325e-07
4.99963e-08
2.79368e-07
4.29767e-08
2.80149e-07
4.04964e-08
2.80603e-07
3.75198e-08
2.80927e-07
3.43977e-08
2.8121e-07
3.20036e-08
2.81448e-07
3.01591e-08
2.81644e-07
2.8571e-08
2.81808e-07
2.71583e-08
2.81948e-07
2.59084e-08
2.82069e-07
2.47984e-08
2.82173e-07
2.38016e-08
2.82262e-07
2.28979e-08
2.82338e-07
2.20734e-08
2.82402e-07
2.13176e-08
2.82454e-07
2.06224e-08
2.82497e-07
1.99812e-08
2.8253e-07
1.93889e-08
2.82555e-07
1.88416e-08
2.8257e-07
1.83365e-08
2.82577e-07
1.78709e-08
2.82575e-07
1.74432e-08
2.82564e-07
1.70517e-08
2.82544e-07
1.66952e-08
2.82515e-07
1.63728e-08
2.82476e-07
1.60841e-08
2.82426e-07
1.58289e-08
2.82366e-07
1.56077e-08
2.82295e-07
1.54213e-08
2.82212e-07
1.52715e-08
2.82118e-07
1.516e-08
2.8201e-07
1.50902e-08
2.81889e-07
1.5065e-08
2.81754e-07
1.50901e-08
2.81604e-07
1.51691e-08
2.81439e-07
1.53119e-08
2.81256e-07
1.55222e-08
2.81057e-07
1.5816e-08
2.80839e-07
1.61978e-08
2.80602e-07
1.66915e-08
2.80345e-07
1.7306e-08
2.80068e-07
1.80719e-08
2.79772e-07
1.90149e-08
2.79456e-07
2.01688e-08
2.79132e-07
2.15955e-08
2.78802e-07
2.3342e-08
2.78512e-07
2.54857e-08
2.81102e-08
2.78312e-07
2.82037e-07
3.66893e-08
2.85079e-07
5.87317e-08
2.86314e-07
4.87616e-08
2.87337e-07
4.19532e-08
2.88142e-07
3.96917e-08
2.88621e-07
3.70412e-08
2.88954e-07
3.40645e-08
2.89241e-07
3.17162e-08
2.89485e-07
2.99157e-08
2.89684e-07
2.83718e-08
2.8985e-07
2.69922e-08
2.89992e-07
2.57667e-08
2.90113e-07
2.46769e-08
2.90217e-07
2.36977e-08
2.90306e-07
2.28094e-08
2.9038e-07
2.19985e-08
2.90443e-07
2.12549e-08
2.90495e-07
2.05707e-08
2.90536e-07
1.99396e-08
2.90569e-07
1.93567e-08
2.90592e-07
1.88183e-08
2.90607e-07
1.83215e-08
2.90614e-07
1.78643e-08
2.90612e-07
1.74447e-08
2.90602e-07
1.70615e-08
2.90584e-07
1.67134e-08
2.90557e-07
1.63996e-08
2.90522e-07
1.61197e-08
2.90477e-07
1.58737e-08
2.90423e-07
1.5662e-08
2.90358e-07
1.54855e-08
2.90284e-07
1.5346e-08
2.90199e-07
1.52453e-08
2.90102e-07
1.51869e-08
2.89993e-07
1.51735e-08
2.89872e-07
1.52112e-08
2.89738e-07
1.53035e-08
2.8959e-07
1.546e-08
2.89427e-07
1.56852e-08
2.89249e-07
1.5994e-08
2.89054e-07
1.63925e-08
2.88844e-07
1.6902e-08
2.88615e-07
1.75341e-08
2.88371e-07
1.8316e-08
2.88112e-07
1.9274e-08
2.8784e-07
2.04415e-08
2.87565e-07
2.18696e-08
2.87296e-07
2.3611e-08
2.87076e-07
2.57061e-08
2.82297e-08
2.86957e-07
2.90305e-07
3.32726e-08
2.93321e-07
5.57159e-08
2.94562e-07
4.75213e-08
2.95564e-07
4.09507e-08
2.96387e-07
3.88684e-08
2.96892e-07
3.65367e-08
2.97235e-07
3.37214e-08
2.97527e-07
3.14242e-08
2.97776e-07
2.96672e-08
2.97979e-07
2.81684e-08
2.98147e-07
2.68237e-08
2.9829e-07
2.56237e-08
2.98412e-07
2.45548e-08
2.98516e-07
2.35937e-08
2.98604e-07
2.27214e-08
2.98679e-07
2.19245e-08
2.9874e-07
2.11934e-08
2.9879e-07
2.05204e-08
2.9883e-07
1.98996e-08
2.98861e-07
1.93262e-08
2.98882e-07
1.87967e-08
2.98895e-07
1.83085e-08
2.989e-07
1.78594e-08
2.98897e-07
1.7448e-08
2.98886e-07
1.70729e-08
2.98866e-07
1.67329e-08
2.98838e-07
1.64275e-08
2.98802e-07
1.61562e-08
2.98756e-07
1.5919e-08
2.98702e-07
1.57164e-08
2.98638e-07
1.55493e-08
2.98565e-07
1.54195e-08
2.98481e-07
1.5329e-08
2.98387e-07
1.52812e-08
2.98281e-07
1.52791e-08
2.98164e-07
1.53283e-08
2.98034e-07
1.5433e-08
2.97892e-07
1.56023e-08
2.97736e-07
1.58413e-08
2.97566e-07
1.61638e-08
2.97382e-07
1.65772e-08
2.97183e-07
1.7101e-08
2.96969e-07
1.77481e-08
2.96741e-07
1.85439e-08
2.96501e-07
1.95132e-08
2.96253e-07
2.069e-08
2.96008e-07
2.21145e-08
2.95778e-07
2.38414e-08
2.95601e-07
2.58832e-08
2.83004e-08
2.9553e-07
2.98844e-07
3.01309e-08
3.01823e-07
5.27375e-08
3.03077e-07
4.62675e-08
3.04057e-07
3.99705e-08
3.04893e-07
3.80319e-08
3.05424e-07
3.60055e-08
3.05779e-07
3.33668e-08
3.06075e-07
3.11277e-08
3.06329e-07
2.94136e-08
3.06537e-07
2.79606e-08
3.06708e-07
2.66525e-08
3.06852e-07
2.54793e-08
3.06975e-07
2.44319e-08
3.07079e-07
2.34896e-08
3.07167e-07
2.26336e-08
3.0724e-07
2.18512e-08
3.07301e-07
2.11329e-08
3.0735e-07
2.04715e-08
3.07388e-07
1.98612e-08
3.07417e-07
1.92975e-08
3.07436e-07
1.87771e-08
3.07447e-07
1.82975e-08
3.0745e-07
1.78569e-08
3.07444e-07
1.74537e-08
3.0743e-07
1.70867e-08
3.07408e-07
1.67551e-08
3.07378e-07
1.6458e-08
3.07339e-07
1.61952e-08
3.07291e-07
1.59667e-08
3.07234e-07
1.57731e-08
3.07168e-07
1.56153e-08
3.07093e-07
1.54951e-08
3.07007e-07
1.54146e-08
3.06911e-07
1.53771e-08
3.06804e-07
1.53858e-08
3.06686e-07
1.54464e-08
3.06556e-07
1.5563e-08
3.06414e-07
1.57444e-08
3.06259e-07
1.59965e-08
3.06091e-07
1.6332e-08
3.05909e-07
1.67594e-08
3.05713e-07
1.72964e-08
3.05504e-07
1.79569e-08
3.05284e-07
1.87646e-08
3.05054e-07
1.97427e-08
3.04819e-07
2.09251e-08
3.04591e-07
2.23424e-08
3.04385e-07
2.40479e-08
3.04234e-07
2.60335e-08
2.83435e-08
3.04191e-07
3.07664e-07
2.72542e-08
3.10594e-07
4.98076e-08
3.11868e-07
4.49936e-08
3.12825e-07
3.9013e-08
3.1367e-07
3.71874e-08
3.14227e-07
3.54479e-08
3.14595e-07
3.29995e-08
3.14896e-07
3.08264e-08
3.15155e-07
2.91549e-08
3.15367e-07
2.77482e-08
3.15541e-07
2.64784e-08
3.15687e-07
2.53332e-08
3.15811e-07
2.43082e-08
3.15915e-07
2.33851e-08
3.16003e-07
2.25461e-08
3.16076e-07
2.17785e-08
3.16135e-07
2.10735e-08
3.16183e-07
2.04239e-08
3.1622e-07
1.98244e-08
3.16246e-07
1.92707e-08
3.16264e-07
1.87596e-08
3.16273e-07
1.82888e-08
3.16273e-07
1.78567e-08
3.16265e-07
1.74619e-08
3.16248e-07
1.71033e-08
3.16223e-07
1.678e-08
3.1619e-07
1.64914e-08
3.16148e-07
1.62373e-08
3.16097e-07
1.60176e-08
3.16037e-07
1.5833e-08
3.15968e-07
1.56845e-08
3.15889e-07
1.5574e-08
3.158e-07
1.55034e-08
3.15701e-07
1.54762e-08
3.15591e-07
1.54956e-08
3.1547e-07
1.55673e-08
3.15338e-07
1.56956e-08
3.15193e-07
1.5889e-08
3.15036e-07
1.61537e-08
3.14866e-07
1.65018e-08
3.14683e-07
1.69423e-08
3.14488e-07
1.74919e-08
3.14281e-07
1.81644e-08
3.14062e-07
1.89827e-08
3.13838e-07
1.99676e-08
3.1361e-07
2.11525e-08
3.13393e-07
2.25597e-08
3.13202e-07
2.42387e-08
3.13069e-07
2.61668e-08
2.83718e-08
3.1304e-07
3.16774e-07
2.46315e-08
3.19644e-07
4.69373e-08
3.20944e-07
4.36938e-08
3.21879e-07
3.80779e-08
3.22726e-07
3.634e-08
3.2331e-07
3.48647e-08
3.23691e-07
3.26178e-08
3.23998e-07
3.052e-08
3.24261e-07
2.88914e-08
3.24479e-07
2.75309e-08
3.24656e-07
2.6301e-08
3.24804e-07
2.51853e-08
3.24929e-07
2.41833e-08
3.25034e-07
2.32801e-08
3.25121e-07
2.24585e-08
3.25193e-07
2.17063e-08
3.25252e-07
2.10149e-08
3.25299e-07
2.03775e-08
3.25334e-07
1.97891e-08
3.25359e-07
1.92456e-08
3.25375e-07
1.8744e-08
3.25381e-07
1.82823e-08
3.25379e-07
1.78589e-08
3.25368e-07
1.74726e-08
3.25349e-07
1.71225e-08
3.25321e-07
1.68078e-08
3.25285e-07
1.65278e-08
3.2524e-07
1.62824e-08
3.25185e-07
1.60717e-08
3.25122e-07
1.58963e-08
3.2505e-07
1.57572e-08
3.24967e-07
1.56563e-08
3.24875e-07
1.55957e-08
3.24772e-07
1.55788e-08
3.24659e-07
1.5609e-08
3.24534e-07
1.56917e-08
3.24398e-07
1.58316e-08
3.24251e-07
1.60368e-08
3.2409e-07
1.63138e-08
3.23918e-07
1.66742e-08
3.23733e-07
1.71272e-08
3.23536e-07
1.76887e-08
3.23328e-07
1.83723e-08
3.23111e-07
1.91999e-08
3.22889e-07
2.01899e-08
3.22667e-07
2.13746e-08
3.22457e-07
2.27694e-08
3.22278e-07
2.44181e-08
3.22156e-07
2.62882e-08
2.83926e-08
3.22136e-07
3.26184e-07
2.225e-08
3.28984e-07
4.41376e-08
3.30314e-07
4.23641e-08
3.31227e-07
3.7164e-08
3.32073e-07
3.54944e-08
3.3268e-07
3.42574e-08
3.33078e-07
3.22203e-08
3.3339e-07
3.0208e-08
3.33658e-07
2.86231e-08
3.3388e-07
2.73086e-08
3.34061e-07
2.61199e-08
3.34212e-07
2.50352e-08
3.34338e-07
2.40572e-08
3.34443e-07
2.31745e-08
3.34531e-07
2.23709e-08
3.34603e-07
2.16345e-08
3.34661e-07
2.0957e-08
3.34706e-07
2.03322e-08
3.3474e-07
1.97552e-08
3.34763e-07
1.92221e-08
3.34777e-07
1.87303e-08
3.34782e-07
1.82778e-08
3.34777e-07
1.78633e-08
3.34764e-07
1.74858e-08
3.34742e-07
1.71444e-08
3.34711e-07
1.68383e-08
3.34672e-07
1.65672e-08
3.34624e-07
1.63307e-08
3.34566e-07
1.61291e-08
3.345e-07
1.5963e-08
3.34424e-07
1.58334e-08
3.34338e-07
1.57422e-08