/*--------------------------------*- C++ -*----------------------------------*\
  =========                 |
  \\      /  F ield         | OpenFOAM: The Open Source CFD Toolbox
   \\    /   O peration     | Website:  https://openfoam.org
    \\  /    A nd           | Version:  7
     \\/     M anipulation  |
\*---------------------------------------------------------------------------*/
FoamFile
{
    version     2.0;
    format      ascii;
    class       surfaceScalarField;
    location    "0.14";
    object      phi_0;
}
// * * * * * * * * * * * * * * * * * * * * * * * * * * * * * * * * * * * * * //

dimensions      [0 3 -1 0 0 0 0];

internalField   nonuniform List<scalar> 
139350
(
6.45093e-08
9.21222e-08
3.19568e-08
3.25525e-08
2.30449e-08
8.91189e-09
1.95526e-08
3.49227e-09
1.75925e-08
1.96011e-09
1.61535e-08
1.43903e-09
1.50112e-08
1.14225e-09
1.40892e-08
9.22068e-10
1.33286e-08
7.60531e-10
1.26863e-08
6.42311e-10
1.21335e-08
5.52884e-10
1.16507e-08
4.82801e-10
1.12242e-08
4.26474e-10
1.08438e-08
3.80388e-10
1.05016e-08
3.42145e-10
1.01916e-08
3.10035e-10
9.90881e-09
2.82803e-10
9.64929e-09
2.59513e-10
9.40984e-09
2.39456e-10
9.18775e-09
2.22085e-10
8.98078e-09
2.06975e-10
8.78699e-09
1.93788e-10
8.60473e-09
1.82257e-10
8.43257e-09
1.72166e-10
8.26922e-09
1.63344e-10
8.11357e-09
1.55652e-10
7.96459e-09
1.4898e-10
7.82135e-09
1.43243e-10
7.68298e-09
1.38369e-10
7.54866e-09
1.34321e-10
7.41761e-09
1.31045e-10
7.28906e-09
1.28555e-10
7.16226e-09
1.26795e-10
7.0364e-09
1.25858e-10
6.91077e-09
1.25632e-10
6.78441e-09
1.26367e-10
6.65661e-09
1.27794e-10
6.52616e-09
1.30455e-10
6.39238e-09
1.3378e-10
6.25363e-09
1.38747e-10
6.10918e-09
1.44453e-10
5.95705e-09
1.52123e-10
5.79574e-09
1.6131e-10
5.6241e-09
1.71646e-10
5.43686e-09
1.8724e-10
5.2387e-09
1.98155e-10
5.00877e-09
2.29937e-10
4.78489e-09
2.23875e-10
4.3942e-09
3.90686e-10
-1.81117e-09
6.20537e-09
1.25939e-07
1.27627e-07
9.12752e-08
6.72164e-08
7.1907e-08
2.82801e-08
6.11733e-08
1.42259e-08
5.47168e-08
8.41664e-09
5.01999e-08
5.95598e-09
4.66919e-08
4.65024e-09
4.3854e-08
3.75994e-09
4.15057e-08
3.10884e-09
3.95216e-08
2.62645e-09
3.78144e-08
2.26e-09
3.63243e-08
1.97292e-09
3.50085e-08
1.7423e-09
3.38353e-08
1.55355e-09
3.27806e-08
1.39683e-09
3.18256e-08
1.26512e-09
3.0955e-08
1.15331e-09
3.0157e-08
1.05757e-09
2.94214e-08
9.75005e-10
2.87401e-08
9.03376e-10
2.81062e-08
8.40936e-10
2.75137e-08
7.86305e-10
2.69575e-08
7.38381e-10
2.64334e-08
6.9628e-10
2.59375e-08
6.59292e-10
2.54663e-08
6.26842e-10
2.50168e-08
5.98472e-10
2.45862e-08
5.73818e-10
2.4172e-08
5.52589e-10
2.37717e-08
5.34586e-10
2.33832e-08
5.19625e-10
2.3004e-08
5.07671e-10
2.26323e-08
4.98582e-10
2.22656e-08
4.92556e-10
2.19018e-08
4.89355e-10
2.15386e-08
4.89618e-10
2.11737e-08
4.92713e-10
2.08039e-08
5.00191e-10
2.04273e-08
5.10406e-10
2.00393e-08
5.26747e-10
1.96383e-08
5.45446e-10
1.92172e-08
5.73189e-10
1.87758e-08
6.02767e-10
1.83021e-08
6.45301e-10
1.77983e-08
6.91113e-10
1.72456e-08
7.5077e-10
1.66423e-08
8.33317e-10
1.59934e-08
8.72712e-10
1.51183e-08
1.26583e-09
-1.43232e-09
1.47394e-08
1.58749e-07
1.35281e-07
1.36513e-07
8.94529e-08
1.1746e-07
4.73325e-08
1.03259e-07
2.84274e-08
9.32374e-08
1.84381e-08
8.59073e-08
1.32861e-08
8.0168e-08
1.03895e-08
7.54837e-08
8.44416e-09
7.15725e-08
7.02004e-09
6.82469e-08
5.9521e-09
6.53735e-08
5.1334e-09
6.28576e-08
4.48879e-09
6.06307e-08
3.96921e-09
5.86415e-08
3.54276e-09
5.68506e-08
3.18772e-09
5.52271e-08
2.88863e-09
5.37463e-08
2.63415e-09
5.23881e-08
2.41579e-09
5.1136e-08
2.22707e-09
4.99764e-08
2.063e-09
4.88977e-08
1.91965e-09
4.789e-08
1.79392e-09
4.69451e-08
1.68331e-09
4.60556e-08
1.58584e-09
4.5215e-08
1.49988e-09
4.44177e-08
1.42412e-09
4.36587e-08
1.35751e-09
4.29333e-08
1.29921e-09
4.22373e-08
1.24855e-09
4.15668e-08
1.20504e-09
4.09182e-08
1.16826e-09
4.02878e-08
1.13804e-09
3.96723e-08
1.11413e-09
3.90681e-08
1.09678e-09
3.84718e-08
1.08567e-09
3.78796e-08
1.08181e-09
3.7288e-08
1.08425e-09
3.66925e-08
1.09576e-09
3.60895e-08
1.11337e-09
3.54723e-08
1.14391e-09
3.48386e-08
1.17916e-09
3.41767e-08
1.23509e-09
3.3488e-08
1.29146e-09
3.27501e-08
1.38327e-09
3.19739e-08
1.46723e-09
3.11158e-08
1.60889e-09
3.01993e-08
1.74985e-09
2.91777e-08
1.89434e-09
2.79752e-08
2.46828e-09
1.48492e-10
2.63944e-08
1.75609e-07
1.31188e-07
1.65613e-07
9.94495e-08
1.52706e-07
6.02388e-08
1.40072e-07
4.10623e-08
1.2936e-07
2.91497e-08
1.20685e-07
2.19606e-08
1.13535e-07
1.75402e-08
1.07514e-07
1.44654e-08
1.02372e-07
1.21615e-08
9.79281e-08
1.03961e-08
9.4042e-08
9.01947e-09
9.06084e-08
7.92247e-09
8.75472e-08
7.03033e-09
8.47972e-08
6.29284e-09
8.23097e-08
5.67515e-09
8.00462e-08
5.15212e-09
7.79753e-08
4.70511e-09
7.60711e-08
4.32001e-09
7.43121e-08
3.98599e-09
7.26805e-08
3.6946e-09
7.1161e-08
3.43918e-09
6.97405e-08
3.21443e-09
6.84077e-08
3.01606e-09
6.7153e-08
2.84063e-09
6.59675e-08
2.68533e-09
6.48437e-08
2.54788e-09
6.37748e-08
2.42643e-09
6.27546e-08
2.31948e-09
6.17773e-08
2.22585e-09
6.08377e-08
2.14462e-09
5.99308e-08
2.07509e-09
5.9052e-08
2.01684e-09
5.81967e-08
1.96949e-09
5.73602e-08
1.93327e-09
5.65381e-08
1.90778e-09
5.57255e-08
1.8944e-09
5.49178e-08
1.89189e-09
5.41093e-08
1.90434e-09
5.32953e-08
1.92737e-09
5.24674e-08
1.97177e-09
5.16225e-08
2.02412e-09
5.07459e-08
2.11168e-09
4.98391e-08
2.19822e-09
4.88739e-08
2.34851e-09
4.78637e-08
2.47743e-09
4.67537e-08
2.71888e-09
4.55725e-08
2.93099e-09
4.4251e-08
3.21585e-09
4.27725e-08
3.94681e-09
2.27636e-09
4.06446e-08
1.84509e-07
1.23464e-07
1.82333e-07
1.01625e-07
1.76099e-07
6.64727e-08
1.67719e-07
4.94426e-08
1.59069e-07
3.77996e-08
1.51126e-07
2.99028e-08
1.44013e-07
2.46541e-08
1.37668e-07
2.08101e-08
1.3202e-07
1.78088e-08
1.26987e-07
1.54295e-08
1.22482e-07
1.35243e-08
1.1843e-07
1.1975e-08
1.14765e-07
1.06949e-08
1.11435e-07
9.62317e-09
1.08394e-07
8.71598e-09
1.05605e-07
7.94094e-09
1.03037e-07
7.27348e-09
1.00662e-07
6.69463e-09
9.84585e-08
6.1896e-09
9.64063e-08
5.74671e-09
9.44889e-08
5.35662e-09
9.26915e-08
5.01179e-09
9.10015e-08
4.70613e-09
8.94075e-08
4.43464e-09
8.78995e-08
4.19326e-09
8.64688e-08
3.97864e-09
8.51071e-08
3.78806e-09
8.38073e-08
3.61928e-09
8.25626e-08
3.47056e-09
8.13668e-08
3.34047e-09
8.02139e-08
3.22797e-09
7.90984e-08
3.13236e-09
7.80148e-08
3.0531e-09
7.69577e-08
2.99034e-09
7.59218e-08
2.94364e-09
7.49015e-08
2.91469e-09
7.38914e-08
2.90205e-09
7.28847e-08
2.91106e-09
7.1876e-08
2.93607e-09
7.08559e-08
2.99182e-09
6.98201e-08
3.0599e-09
6.8753e-08
3.1788e-09
6.76543e-08
3.29698e-09
6.64948e-08
3.50793e-09
6.52838e-08
3.68843e-09
6.39694e-08
4.03329e-09
6.25665e-08
4.33388e-09
6.1015e-08
4.7674e-09
5.92867e-08
5.67506e-09
4.67077e-09
5.68923e-08
1.90341e-07
1.1534e-07
1.91853e-07
1.00113e-07
1.90246e-07
6.80796e-08
1.86123e-07
5.35658e-08
1.80658e-07
4.32645e-08
1.74873e-07
3.56881e-08
1.69136e-07
3.03909e-08
1.63606e-07
2.63399e-08
1.58382e-07
2.30332e-08
1.53506e-07
2.03055e-08
1.48982e-07
1.80484e-08
1.44794e-07
1.61631e-08
1.40918e-07
1.45707e-08
1.37328e-07
1.32128e-08
1.33999e-07
1.20455e-08
1.30905e-07
1.10351e-08
1.28023e-07
1.0155e-08
1.25333e-07
9.38422e-09
1.22817e-07
8.70597e-09
1.20457e-07
8.10661e-09
1.18239e-07
7.57507e-09
1.16148e-07
7.10226e-09
1.14174e-07
6.6807e-09
1.12304e-07
6.30422e-09
1.1053e-07
5.96772e-09
1.08841e-07
5.66694e-09
1.07231e-07
5.39841e-09
1.05691e-07
5.15927e-09
1.04214e-07
4.94721e-09
1.02794e-07
4.7604e-09
1.01425e-07
4.59745e-09
1.001e-07
4.45741e-09
9.88134e-08
4.33959e-09
9.75596e-08
4.24409e-09
9.63328e-08
4.17045e-09
9.51269e-08
4.12063e-09
9.39359e-08
4.0931e-09
9.27526e-08
4.09431e-09
9.1571e-08
4.1177e-09
9.03814e-08
4.1814e-09
8.91781e-08
4.26316e-09
8.79461e-08
4.41081e-09
8.66818e-08
4.56128e-09
8.53596e-08
4.83012e-09
8.39795e-08
5.0686e-09
8.25018e-08
5.51093e-09
8.09177e-08
5.91802e-09
7.9192e-08
6.49312e-09
7.72631e-08
7.60387e-09
7.23999e-09
7.46939e-08
1.95503e-07
1.07652e-07
1.98241e-07
9.73748e-08
1.98972e-07
6.73491e-08
1.97764e-07
5.47738e-08
1.95109e-07
4.59195e-08
1.91741e-07
3.9056e-08
1.87973e-07
3.41584e-08
1.8398e-07
3.03334e-08
1.79912e-07
2.71012e-08
1.7588e-07
2.43369e-08
1.71954e-07
2.19744e-08
1.68173e-07
1.99442e-08
1.64558e-07
1.81861e-08
1.61117e-07
1.66537e-08
1.57851e-07
1.53112e-08
1.54757e-07
1.41295e-08
1.51827e-07
1.30853e-08
1.49052e-07
1.2159e-08
1.46423e-07
1.13346e-08
1.43931e-07
1.05987e-08
1.41566e-07
9.94017e-09
1.39319e-07
9.34962e-09
1.3718e-07
8.81916e-09
1.35142e-07
8.34214e-09
1.33197e-07
7.913e-09
1.31337e-07
7.52704e-09
1.29555e-07
7.1804e-09
1.27844e-07
6.86981e-09
1.26199e-07
6.5927e-09
1.24612e-07
6.34693e-09
1.23079e-07
6.13095e-09
1.21593e-07
5.94365e-09
1.20148e-07
5.78431e-09
1.18739e-07
5.65299e-09
1.1736e-07
5.54935e-09
1.16005e-07
5.47558e-09
1.14668e-07
5.43027e-09
1.13342e-07
5.42071e-09
1.12019e-07
5.43998e-09
1.10692e-07
5.50876e-09
1.09352e-07
5.60262e-09
1.07987e-07
5.77577e-09
1.0659e-07
5.95904e-09
1.05139e-07
6.28078e-09
1.03625e-07
6.58263e-09
1.02023e-07
7.11272e-09
1.00302e-07
7.63965e-09
9.84465e-08
8.34826e-09
9.63805e-08
9.66989e-09
9.91974e-09
9.37007e-08
2.00818e-07
1.00419e-07
2.03766e-07
9.44268e-08
2.05332e-07
6.57828e-08
2.05622e-07
5.44839e-08
2.04775e-07
4.67665e-08
2.03273e-07
4.05582e-08
2.01295e-07
3.6136e-08
1.98927e-07
3.27011e-08
1.96277e-07
2.97517e-08
1.93447e-07
2.71666e-08
1.9052e-07
2.49022e-08
1.87555e-07
2.2909e-08
1.84598e-07
2.11429e-08
1.81681e-07
1.95701e-08
1.78828e-07
1.81646e-08
1.76052e-07
1.69052e-08
1.73364e-07
1.57739e-08
1.70767e-07
1.47557e-08
1.68264e-07
1.38374e-08
1.65855e-07
1.30079e-08
1.63538e-07
1.22577e-08
1.61309e-07
1.15782e-08
1.59166e-07
1.09625e-08
1.57104e-07
1.04042e-08
1.55118e-07
9.89811e-09
1.53206e-07
9.43972e-09
1.51361e-07
9.02524e-09
1.49579e-07
8.65146e-09
1.47856e-07
8.31584e-09
1.46187e-07
8.01625e-09
1.44567e-07
7.75122e-09
1.42991e-07
7.51965e-09
1.41454e-07
7.32097e-09
1.39952e-07
7.15534e-09
1.38478e-07
7.02266e-09
1.37028e-07
6.9254e-09
1.35596e-07
6.86244e-09
1.34175e-07
6.84176e-09
1.32759e-07
6.85662e-09
1.31338e-07
6.92932e-09
1.29906e-07
7.03504e-09
1.2845e-07
7.23131e-09
1.26961e-07
7.44824e-09
1.25424e-07
7.81794e-09
1.23819e-07
8.18689e-09
1.22137e-07
8.79562e-09
1.20328e-07
9.44849e-09
1.18389e-07
1.02869e-08
1.1625e-07
1.18092e-08
1.26324e-08
1.13537e-07
2.06421e-07
9.353e-08
2.09325e-07
9.15226e-08
2.11043e-07
6.4065e-08
2.11913e-07
5.36136e-08
2.11962e-07
4.67177e-08
2.11558e-07
4.09623e-08
2.10804e-07
3.68903e-08
2.09701e-07
3.38033e-08
2.0829e-07
3.11631e-08
2.06628e-07
2.88288e-08
2.04771e-07
2.67588e-08
2.02769e-07
2.49107e-08
2.00666e-07
2.32467e-08
1.98496e-07
2.17396e-08
1.96291e-07
2.037e-08
1.94073e-07
1.91226e-08
1.91862e-07
1.79849e-08
1.89672e-07
1.69459e-08
1.87513e-07
1.59963e-08
1.85393e-07
1.51279e-08
1.83318e-07
1.43333e-08
1.8129e-07
1.36061e-08
1.79311e-07
1.29408e-08
1.77384e-07
1.23321e-08
1.75506e-07
1.17757e-08
1.73678e-07
1.12679e-08
1.71898e-07
1.08054e-08
1.70163e-07
1.03855e-08
1.68473e-07
1.00061e-08
1.66824e-07
9.6653e-09
1.65213e-07
9.36202e-09
1.63638e-07
9.09541e-09
1.62093e-07
8.86525e-09
1.60577e-07
8.67196e-09
1.59084e-07
8.51585e-09
1.57609e-07
8.39972e-09
1.56149e-07
8.32298e-09
1.54696e-07
8.29416e-09
1.53246e-07
8.30714e-09
1.5179e-07
8.38515e-09
1.50321e-07
8.50441e-09
1.48829e-07
8.72323e-09
1.47302e-07
8.97533e-09
1.4573e-07
9.38952e-09
1.44089e-07
9.82764e-09
1.42377e-07
1.05082e-08
1.40539e-07
1.12866e-08
1.38571e-07
1.2254e-08
1.36424e-07
1.39567e-08
1.52948e-08
1.33762e-07
2.12267e-07
8.69253e-08
2.15134e-07
8.8656e-08
2.16797e-07
6.24013e-08
2.17827e-07
5.25837e-08
2.18222e-07
4.63229e-08
2.18322e-07
4.08626e-08
2.18224e-07
3.6988e-08
2.17897e-07
3.41306e-08
2.17334e-07
3.17264e-08
2.16553e-07
2.96094e-08
2.15579e-07
2.77329e-08
2.14437e-07
2.60531e-08
2.13152e-07
2.45312e-08
2.11751e-07
2.31407e-08
2.10257e-07
2.18637e-08
2.08692e-07
2.06875e-08
2.07075e-07
1.9602e-08
2.05422e-07
1.8599e-08
2.03747e-07
1.76717e-08
2.0206e-07
1.68144e-08
2.00372e-07
1.60216e-08
1.98689e-07
1.5289e-08
1.97017e-07
1.46123e-08
1.95361e-07
1.3988e-08
1.93725e-07
1.34126e-08
1.92109e-07
1.28835e-08
1.90516e-07
1.23983e-08
1.88947e-07
1.19549e-08
1.87401e-07
1.15518e-08
1.85879e-07
1.11878e-08
1.84378e-07
1.08622e-08
1.82899e-07
1.05747e-08
1.81439e-07
1.03256e-08
1.79995e-07
1.01157e-08
1.78565e-07
9.94581e-09
1.77146e-07
9.81926e-09
1.75732e-07
9.73604e-09
1.74321e-07
9.70525e-09
1.72907e-07
9.72165e-09
1.71483e-07
9.80895e-09
1.70042e-07
9.94538e-09
1.68577e-07
1.01883e-08
1.67075e-07
1.04778e-08
1.65529e-07
1.09348e-08
1.63914e-07
1.14429e-08
1.62231e-07
1.21906e-08
1.60428e-07
1.30897e-08
1.58497e-07
1.41853e-08
1.56411e-07
1.60433e-08
1.7824e-08
1.53881e-07
2.18313e-07
8.05931e-08
2.21183e-07
8.57861e-08
2.22769e-07
6.08146e-08
2.23827e-07
5.15257e-08
2.24331e-07
4.58196e-08
2.24608e-07
4.05849e-08
2.24788e-07
3.68082e-08
2.24841e-07
3.40775e-08
2.24747e-07
3.1821e-08
2.24504e-07
2.98516e-08
2.24119e-07
2.81185e-08
2.23596e-07
2.65759e-08
2.22945e-07
2.51823e-08
2.22177e-07
2.39086e-08
2.21305e-07
2.27358e-08
2.20342e-07
2.16505e-08
2.19301e-07
2.06428e-08
2.18195e-07
1.97054e-08
2.17034e-07
1.88322e-08
2.1583e-07
1.80186e-08
2.14591e-07
1.72604e-08
2.13326e-07
1.65544e-08
2.12041e-07
1.58974e-08
2.10742e-07
1.52869e-08
2.09434e-07
1.47206e-08
2.08121e-07
1.41965e-08
2.06806e-07
1.3713e-08
2.05492e-07
1.32688e-08
2.04181e-07
1.2863e-08
2.02874e-07
1.2495e-08
2.01571e-07
1.21649e-08
2.00273e-07
1.18727e-08
1.9898e-07
1.16193e-08
1.97689e-07
1.14061e-08
1.96401e-07
1.12344e-08
1.95112e-07
1.11081e-08
1.9382e-07
1.10279e-08
1.92522e-07
1.10034e-08
1.91213e-07
1.10304e-08
1.89889e-07
1.11327e-08
1.88543e-07
1.12913e-08
1.8717e-07
1.15613e-08
1.85757e-07
1.18912e-08
1.84301e-07
1.23907e-08
1.82776e-07
1.29684e-08
1.81186e-07
1.37802e-08
1.79485e-07
1.47913e-08
1.77657e-07
1.60125e-08
1.75702e-07
1.79986e-08
2.0142e-08
1.73384e-07
2.24547e-07
7.45398e-08
2.27442e-07
8.28902e-08
2.28965e-07
5.92921e-08
2.3003e-07
5.0461e-08
2.30573e-07
4.52764e-08
2.30899e-07
4.0259e-08
2.31168e-07
3.65388e-08
2.3137e-07
3.38758e-08
2.31485e-07
3.17057e-08
2.31512e-07
2.98246e-08
2.3145e-07
2.81806e-08
2.31297e-07
2.67292e-08
2.31052e-07
2.54272e-08
2.30717e-07
2.42435e-08
2.30296e-07
2.3157e-08
2.29793e-07
2.2153e-08
2.29215e-07
2.12208e-08
2.28568e-07
2.03522e-08
2.27859e-07
1.95412e-08
2.27095e-07
1.87829e-08
2.26282e-07
1.80736e-08
2.25426e-07
1.74104e-08
2.24533e-07
1.67906e-08
2.23607e-07
1.62122e-08
2.22655e-07
1.56734e-08
2.21678e-07
1.51727e-08
2.20682e-07
1.47091e-08
2.19669e-07
1.42818e-08
2.18642e-07
1.38904e-08
2.17602e-07
1.35349e-08
2.16551e-07
1.32156e-08
2.15491e-07
1.29332e-08
2.14421e-07
1.26891e-08
2.13342e-07
1.24852e-08
2.12253e-07
1.23233e-08
2.11153e-07
1.22079e-08
2.10041e-07
1.21402e-08
2.08914e-07
1.21305e-08
2.07769e-07
1.21755e-08
2.06602e-07
1.22991e-08
2.05408e-07
1.24852e-08
2.04184e-07
1.27855e-08
2.02917e-07
1.31584e-08
2.01607e-07
1.37005e-08
2.00229e-07
1.43461e-08
1.9879e-07
1.52196e-08
1.9725e-07
1.63315e-08
1.9559e-07
1.7672e-08
1.9383e-07
1.97586e-08
2.21826e-08
1.9179e-07
2.30972e-07
6.87733e-08
2.33903e-07
7.99595e-08
2.35368e-07
5.78268e-08
2.36441e-07
4.93883e-08
2.37017e-07
4.47007e-08
2.37357e-07
3.99188e-08
2.37648e-07
3.62481e-08
2.37895e-07
3.36285e-08
2.38086e-07
3.15149e-08
2.38222e-07
2.9688e-08
2.38307e-07
2.80963e-08
2.38337e-07
2.66992e-08
2.3831e-07
2.54543e-08
2.38224e-07
2.43294e-08
2.38078e-07
2.33024e-08
2.37874e-07
2.23578e-08
2.37611e-07
2.14838e-08
2.37291e-07
2.06715e-08
2.36918e-07
1.99143e-08
2.36494e-07
1.92068e-08
2.36023e-07
1.85452e-08
2.35507e-07
1.79263e-08
2.3495e-07
1.73476e-08
2.34355e-07
1.6807e-08
2.33726e-07
1.63029e-08
2.33064e-07
1.5834e-08
2.32374e-07
1.53996e-08
2.31657e-07
1.49989e-08
2.30915e-07
1.46321e-08
2.30151e-07
1.42991e-08
2.29365e-07
1.40009e-08
2.2856e-07
1.37384e-08
2.27736e-07
1.35134e-08
2.26893e-07
1.33281e-08
2.26031e-07
1.31849e-08
2.25151e-07
1.30887e-08
2.2425e-07
1.30411e-08
2.23327e-07
1.3053e-08
2.22381e-07
1.31221e-08
2.21408e-07
1.32719e-08
2.20403e-07
1.34895e-08
2.19366e-07
1.38228e-08
2.18285e-07
1.42399e-08
2.17161e-07
1.48243e-08
2.15973e-07
1.55342e-08
2.14726e-07
1.64663e-08
2.13392e-07
1.76659e-08
2.11948e-07
1.91153e-08
2.10432e-07
2.12752e-08
2.38997e-08
2.08715e-07
2.37599e-07
6.32994e-08
2.40569e-07
7.69896e-08
2.41976e-07
5.6419e-08
2.43056e-07
4.83088e-08
2.43668e-07
4.4089e-08
2.4402e-07
3.95662e-08
2.44316e-07
3.59527e-08
2.44575e-07
3.33693e-08
2.44788e-07
3.13019e-08
2.44961e-07
2.95152e-08
2.45099e-07
2.79578e-08
2.45204e-07
2.6594e-08
2.45275e-07
2.53835e-08
2.4531e-07
2.42946e-08
2.45307e-07
2.33049e-08
2.45266e-07
2.23987e-08
2.45186e-07
2.15638e-08
2.45067e-07
2.07909e-08
2.44908e-07
2.0073e-08
2.44711e-07
1.94043e-08
2.44475e-07
1.87807e-08
2.44203e-07
1.81987e-08
2.43895e-07
1.76556e-08
2.43552e-07
1.71494e-08
2.43177e-07
1.66782e-08
2.4277e-07
1.62409e-08
2.42333e-07
1.58366e-08
2.41867e-07
1.54647e-08
2.41374e-07
1.51253e-08
2.40855e-07
1.48186e-08
2.4031e-07
1.45456e-08
2.39741e-07
1.43075e-08
2.39148e-07
1.41063e-08
2.38532e-07
1.39445e-08
2.37892e-07
1.38246e-08
2.37228e-07
1.37521e-08
2.3654e-07
1.37291e-08
2.35827e-07
1.37664e-08
2.35086e-07
1.3863e-08
2.34317e-07
1.40415e-08
2.33514e-07
1.42925e-08
2.32677e-07
1.46595e-08
2.31797e-07
1.51201e-08
2.30876e-07
1.57452e-08
2.29896e-07
1.65139e-08
2.28862e-07
1.75002e-08
2.27755e-07
1.87727e-08
2.26554e-07
2.03168e-08
2.25305e-07
2.2524e-08
2.52747e-08
2.2393e-07
2.44434e-07
5.81218e-08
2.47442e-07
7.39815e-08
2.48794e-07
5.50667e-08
2.49876e-07
4.7227e-08
2.50526e-07
4.34393e-08
2.50894e-07
3.91978e-08
2.51193e-07
3.56534e-08
2.51457e-07
3.31054e-08
2.51677e-07
3.10822e-08
2.5186e-07
2.93326e-08
2.52014e-07
2.78031e-08
2.52145e-07
2.64636e-08
2.52252e-07
2.52767e-08
2.52335e-07
2.42111e-08
2.52395e-07
2.32451e-08
2.5243e-07
2.23631e-08
2.52441e-07
2.15531e-08
2.52426e-07
2.08058e-08
2.52385e-07
2.01139e-08
2.52318e-07
1.94717e-08
2.52224e-07
1.88748e-08
2.52103e-07
1.83197e-08
2.51955e-07
1.78035e-08
2.5178e-07
1.7324e-08
2.51579e-07
1.68794e-08
2.51352e-07
1.64684e-08
2.51098e-07
1.609e-08
2.50819e-07
1.57437e-08
2.50515e-07
1.54295e-08
2.50186e-07
1.51476e-08
2.49833e-07
1.4899e-08
2.49455e-07
1.46851e-08
2.49054e-07
1.45077e-08
2.48628e-07
1.43699e-08
2.48179e-07
1.42742e-08
2.47704e-07
1.42263e-08
2.47205e-07
1.42285e-08
2.46679e-07
1.4292e-08
2.46126e-07
1.44165e-08
2.45544e-07
1.46237e-08
2.44929e-07
1.49074e-08
2.44281e-07
1.53068e-08
2.43593e-07
1.58081e-08
2.42868e-07
1.64706e-08
2.42091e-07
1.72906e-08
2.41266e-07
1.83252e-08
2.40384e-07
1.96552e-08
2.39424e-07
2.12765e-08
2.38441e-07
2.3507e-08
2.63187e-08
2.37397e-07
2.51486e-07
5.32424e-08
2.54522e-07
7.09452e-08
2.5583e-07
5.37591e-08
2.56909e-07
4.61482e-08
2.57596e-07
4.27525e-08
2.57983e-07
3.88107e-08
2.58287e-07
3.53492e-08
2.58555e-07
3.28371e-08
2.58779e-07
3.08583e-08
2.58965e-07
2.91465e-08
2.59124e-07
2.76442e-08
2.59261e-07
2.63265e-08
2.59379e-07
2.51591e-08
2.59478e-07
2.41117e-08
2.5956e-07
2.3163e-08
2.59626e-07
2.22978e-08
2.59674e-07
2.15047e-08
2.59706e-07
2.07743e-08
2.5972e-07
2.00996e-08
2.59717e-07
1.9475e-08
2.59695e-07
1.8896e-08
2.59656e-07
1.83591e-08
2.59598e-07
1.78617e-08
2.5952e-07
1.74013e-08
2.59424e-07
1.69762e-08
2.59307e-07
1.6585e-08
2.5917e-07
1.62267e-08
2.59013e-07
1.59007e-08
2.58836e-07
1.5607e-08
2.58638e-07
1.53458e-08
2.58418e-07
1.51181e-08
2.58178e-07
1.49253e-08
2.57917e-07
1.47692e-08
2.57633e-07
1.46531e-08
2.57328e-07
1.45796e-08
2.57e-07
1.45543e-08
2.56649e-07
1.45801e-08
2.56273e-07
1.46678e-08
2.55871e-07
1.48184e-08
2.55442e-07
1.50521e-08
2.54984e-07
1.53659e-08
2.54496e-07
1.57944e-08
2.53973e-07
1.63318e-08
2.53416e-07
1.70273e-08
2.52816e-07
1.78901e-08
2.52176e-07
1.89658e-08
2.51493e-07
2.03384e-08
2.50751e-07
2.20178e-08
2.50008e-07
2.42502e-08
2.70682e-08
2.49259e-07
2.58764e-07
4.86617e-08
2.61818e-07
6.78913e-08
2.63092e-07
5.24852e-08
2.64162e-07
4.50774e-08
2.64884e-07
4.20309e-08
2.65292e-07
3.84031e-08
2.65602e-07
3.50389e-08
2.65875e-07
3.25639e-08
2.66103e-07
3.063e-08
2.66292e-07
2.89577e-08
2.66453e-07
2.74837e-08
2.66592e-07
2.61877e-08
2.66712e-07
2.50389e-08
2.66815e-07
2.40082e-08
2.66904e-07
2.30746e-08
2.66978e-07
2.22234e-08
2.67039e-07
2.14435e-08
2.67088e-07
2.07259e-08
2.67123e-07
2.00638e-08
2.67147e-07
1.94516e-08
2.67158e-07
1.88852e-08
2.67156e-07
1.83612e-08
2.6714e-07
1.78768e-08
2.67112e-07
1.74299e-08
2.67069e-07
1.70188e-08
2.67012e-07
1.6642e-08
2.6694e-07
1.62986e-08
2.66853e-07
1.5988e-08
2.6675e-07
1.57101e-08
2.6663e-07
1.54652e-08
2.66494e-07
1.52542e-08
2.66341e-07
1.50786e-08
2.6617e-07
1.49402e-08
2.65981e-07
1.48424e-08
2.65773e-07
1.47877e-08
2.65545e-07
1.4782e-08
2.65297e-07
1.48283e-08
2.65027e-07
1.49373e-08
2.64735e-07
1.51107e-08
2.64419e-07
1.53676e-08
2.64078e-07
1.57077e-08
2.6371e-07
1.61615e-08
2.63313e-07
1.67296e-08
2.62887e-07
1.74531e-08
2.62427e-07
1.83501e-08
2.61934e-07
1.94591e-08
2.61411e-07
2.08606e-08
2.6085e-07
2.25791e-08
2.60305e-07
2.47953e-08
2.75769e-08
2.59796e-07
2.66276e-07
4.43782e-08
2.69336e-07
6.48305e-08
2.70587e-07
5.12344e-08
2.71646e-07
4.4019e-08
2.72399e-07
4.12776e-08
2.72829e-07
3.79732e-08
2.73146e-07
3.4722e-08
2.73424e-07
3.22859e-08
2.73657e-07
3.03968e-08
2.73849e-07
2.87657e-08
2.74011e-07
2.73215e-08
2.74151e-07
2.6048e-08
2.74272e-07
2.49182e-08
2.74376e-07
2.39042e-08
2.74465e-07
2.29853e-08
2.74541e-07
2.21473e-08
2.74605e-07
2.13794e-08
2.74658e-07
2.06731e-08
2.747e-07
2.00216e-08
2.74732e-07
1.94196e-08
2.74754e-07
1.88632e-08
2.74766e-07
1.83491e-08
2.74768e-07
1.78747e-08
2.7476e-07
1.74381e-08
2.74741e-07
1.70376e-08
2.74712e-07
1.66717e-08
2.74671e-07
1.63397e-08
2.74618e-07
1.6041e-08
2.74552e-07
1.57754e-08
2.74474e-07
1.55433e-08
2.74383e-07
1.53455e-08
2.74278e-07
1.51838e-08
2.74158e-07
1.50599e-08
2.74024e-07
1.49771e-08
2.73873e-07
1.49381e-08
2.73706e-07
1.49489e-08
2.73522e-07
1.50126e-08
2.7332e-07
1.51396e-08
2.73098e-07
1.53327e-08
2.72856e-07
1.56093e-08
2.72592e-07
1.59718e-08
2.72306e-07
1.64471e-08
2.71995e-07
1.70406e-08
2.71661e-07
1.77873e-08
2.71301e-07
1.87106e-08
2.70914e-07
1.98454e-08
2.70511e-07
2.12643e-08
2.70085e-07
2.30046e-08
2.6969e-07
2.51902e-08
2.7904e-08
2.69363e-07
2.7403e-07
4.0389e-08
2.77087e-07
6.17736e-08
2.78325e-07
4.99963e-08
2.79368e-07
4.29766e-08
2.80149e-07
4.04963e-08
2.80603e-07
3.75196e-08
2.80927e-07
3.43974e-08
2.8121e-07
3.20031e-08
2.81448e-07
3.01585e-08
2.81644e-07
2.85703e-08
2.81808e-07
2.71574e-08
2.81948e-07
2.59074e-08
2.82069e-07
2.47972e-08
2.82173e-07
2.38002e-08
2.82262e-07
2.28963e-08
2.82338e-07
2.20716e-08
2.82402e-07
2.13156e-08
2.82455e-07
2.06202e-08
2.82497e-07
1.99787e-08
2.82531e-07
1.93863e-08
2.82555e-07
1.88388e-08
2.82571e-07
1.83335e-08
2.82578e-07
1.78678e-08
2.82576e-07
1.74399e-08
2.82565e-07
1.70483e-08
2.82545e-07
1.66916e-08
2.82516e-07
1.6369e-08
2.82477e-07
1.60801e-08
2.82428e-07
1.58246e-08
2.82368e-07
1.56032e-08
2.82297e-07
1.54165e-08
2.82214e-07
1.52663e-08
2.8212e-07
1.51545e-08
2.82012e-07
1.50845e-08
2.81891e-07
1.50589e-08
2.81757e-07
1.50837e-08
2.81607e-07
1.51624e-08
2.81442e-07
1.53048e-08
2.81259e-07
1.55148e-08
2.8106e-07
1.58084e-08
2.80842e-07
1.619e-08
2.80606e-07
1.66835e-08
2.80349e-07
1.72979e-08
2.80072e-07
1.80638e-08
2.79776e-07
1.90069e-08
2.7946e-07
2.01611e-08
2.79136e-07
2.15882e-08
2.78805e-07
2.33353e-08
2.78516e-07
2.54796e-08
2.81048e-08
2.78315e-07
2.82037e-07
3.66893e-08
2.85079e-07
5.87317e-08
2.86314e-07
4.87616e-08
2.87337e-07
4.19532e-08
2.88142e-07
3.96915e-08
2.88621e-07
3.7041e-08
2.88954e-07
3.40642e-08
2.89241e-07
3.17157e-08
2.89485e-07
2.99151e-08
2.89684e-07
2.8371e-08
2.8985e-07
2.69913e-08
2.89992e-07
2.57656e-08
2.90113e-07
2.46756e-08
2.90217e-07
2.36963e-08
2.90306e-07
2.28078e-08
2.90381e-07
2.19967e-08
2.90443e-07
2.12529e-08
2.90495e-07
2.05685e-08
2.90537e-07
1.99371e-08
2.90569e-07
1.9354e-08
2.90593e-07
1.88154e-08
2.90608e-07
1.83185e-08
2.90614e-07
1.78611e-08
2.90613e-07
1.74413e-08
2.90603e-07
1.70579e-08
2.90585e-07
1.67096e-08
2.90559e-07
1.63957e-08
2.90523e-07
1.61156e-08
2.90478e-07
1.58693e-08
2.90424e-07
1.56573e-08
2.9036e-07
1.54806e-08
2.90286e-07
1.53407e-08
2.90201e-07
1.52397e-08
2.90104e-07
1.51809e-08
2.89996e-07
1.51673e-08
2.89875e-07
1.52046e-08
2.89741e-07
1.52966e-08
2.89593e-07
1.54528e-08
2.8943e-07
1.56777e-08
2.89252e-07
1.59862e-08
2.89057e-07
1.63845e-08
2.88847e-07
1.68939e-08
2.88619e-07
1.75258e-08
2.88375e-07
1.83078e-08
2.88116e-07
1.92659e-08
2.87843e-07
2.04338e-08
2.87569e-07
2.18624e-08
2.873e-07
2.36044e-08
2.8708e-07
2.57002e-08
2.82245e-08
2.8696e-07
2.90305e-07
3.32726e-08
2.93321e-07
5.57159e-08
2.94562e-07
4.75213e-08
2.95564e-07
4.09507e-08
2.96387e-07
3.88683e-08
2.96892e-07
3.65364e-08
2.97235e-07
3.3721e-08
2.97527e-07
3.14238e-08
2.97776e-07
2.96666e-08
2.97979e-07
2.81677e-08
2.98147e-07
2.68228e-08
2.9829e-07
2.56226e-08
2.98413e-07
2.45535e-08
2.98517e-07
2.35923e-08
2.98605e-07
2.27197e-08
2.98679e-07
2.19226e-08
2.9874e-07
2.11913e-08
2.98791e-07
2.05181e-08
2.98831e-07
1.9897e-08
2.98861e-07
1.93234e-08
2.98883e-07
1.87937e-08
2.98896e-07
1.83053e-08
2.98901e-07
1.78561e-08
2.98898e-07
1.74445e-08
2.98887e-07
1.70692e-08
2.98867e-07
1.67291e-08
2.98839e-07
1.64235e-08
2.98803e-07
1.61519e-08
2.98758e-07
1.59145e-08
2.98704e-07
1.57116e-08
2.9864e-07
1.55442e-08
2.98567e-07
1.54141e-08
2.98483e-07
1.53233e-08
2.98389e-07
1.52751e-08
2.98284e-07
1.52726e-08
2.98167e-07
1.53216e-08
2.98037e-07
1.54259e-08
2.97895e-07
1.55949e-08
2.97739e-07
1.58336e-08
2.9757e-07
1.61558e-08
2.97385e-07
1.65691e-08
2.97186e-07
1.70928e-08
2.96972e-07
1.77398e-08
2.96744e-07
1.85356e-08
2.96505e-07
1.95051e-08
2.96257e-07
2.06822e-08
2.96012e-07
2.21072e-08
2.95781e-07
2.38348e-08
2.95604e-07
2.58774e-08
2.82955e-08
2.95533e-07
2.98844e-07
3.01309e-08
3.01823e-07
5.27375e-08
3.03077e-07
4.62675e-08
3.04057e-07
3.99704e-08
3.04893e-07
3.80318e-08
3.05424e-07
3.60053e-08
3.05779e-07
3.33665e-08
3.06075e-07
3.11272e-08
3.06329e-07
2.9413e-08
3.06537e-07
2.79599e-08
3.06708e-07
2.66516e-08
3.06852e-07
2.54782e-08
3.06975e-07
2.44306e-08
3.0708e-07
2.34881e-08
3.07167e-07
2.26319e-08
3.07241e-07
2.18493e-08
3.07301e-07
2.11308e-08
3.0735e-07
2.04691e-08
3.07389e-07
1.98586e-08
3.07417e-07
1.92946e-08
3.07437e-07
1.8774e-08
3.07448e-07
1.82943e-08
3.07451e-07
1.78534e-08
3.07445e-07
1.74501e-08
3.07431e-07
1.70829e-08
3.07409e-07
1.67511e-08
3.07379e-07
1.64538e-08
3.0734e-07
1.61908e-08
3.07293e-07
1.59621e-08
3.07236e-07
1.57682e-08
3.0717e-07
1.56101e-08
3.07095e-07
1.54896e-08
3.07009e-07
1.54087e-08
3.06913e-07
1.53709e-08
3.06807e-07
1.53792e-08
3.06689e-07
1.54394e-08
3.06559e-07
1.55557e-08
3.06417e-07
1.57368e-08
3.06262e-07
1.59886e-08
3.06094e-07
1.63239e-08
3.05912e-07
1.67511e-08
3.05717e-07
1.7288e-08
3.05508e-07
1.79484e-08
3.05288e-07
1.87563e-08
3.05058e-07
1.97346e-08
3.04823e-07
2.09173e-08
3.04595e-07
2.23352e-08
3.04388e-07
2.40414e-08
3.04238e-07
2.60279e-08
2.8339e-08
3.04195e-07
3.07664e-07
2.72543e-08
3.10594e-07
4.98076e-08
3.11868e-07
4.49936e-08
3.12825e-07
3.90129e-08
3.1367e-07
3.71873e-08
3.14227e-07
3.54477e-08
3.14595e-07
3.29992e-08
3.14896e-07
3.08259e-08
3.15155e-07
2.91543e-08
3.15367e-07
2.77474e-08
3.15541e-07
2.64775e-08
3.15687e-07
2.53321e-08
3.15811e-07
2.43068e-08
3.15916e-07
2.33836e-08
3.16003e-07
2.25443e-08
3.16076e-07
2.17765e-08
3.16136e-07
2.10712e-08
3.16183e-07
2.04215e-08
3.1622e-07
1.98217e-08
3.16247e-07
1.92677e-08
3.16265e-07
1.87564e-08
3.16273e-07
1.82854e-08
3.16274e-07
1.78531e-08
3.16266e-07
1.74581e-08
3.16249e-07
1.70994e-08
3.16224e-07
1.67759e-08
3.16191e-07
1.64871e-08
3.16149e-07
1.62327e-08
3.16099e-07
1.60128e-08
3.16039e-07
1.5828e-08
3.1597e-07
1.56792e-08
3.15891e-07
1.55682e-08
3.15802e-07
1.54973e-08
3.15704e-07
1.54698e-08
3.15594e-07
1.54889e-08
3.15473e-07
1.55601e-08
3.15341e-07
1.56881e-08
3.15196e-07
1.58812e-08
3.15039e-07
1.61456e-08
3.1487e-07
1.64935e-08
3.14687e-07
1.69338e-08
3.14492e-07
1.74833e-08
3.14284e-07
1.81558e-08
3.14066e-07
1.89743e-08
3.13842e-07
1.99594e-08
3.13614e-07
2.11447e-08
3.13397e-07
2.25525e-08
3.13206e-07
2.42323e-08
3.13072e-07
2.61614e-08
2.83677e-08
3.13044e-07
3.16774e-07
2.46315e-08
3.19644e-07
4.69373e-08
3.20944e-07
4.36938e-08
3.21879e-07
3.80778e-08
3.22726e-07
3.63398e-08
3.2331e-07
3.48645e-08
3.23691e-07
3.26174e-08
3.23998e-07
3.05195e-08
3.24261e-07
2.88908e-08
3.24479e-07
2.75301e-08
3.24656e-07
2.63e-08
3.24804e-07
2.51842e-08
3.24929e-07
2.4182e-08
3.25034e-07
2.32786e-08
3.25121e-07
2.24568e-08
3.25194e-07
2.17043e-08
3.25252e-07
2.10126e-08
3.25299e-07
2.0375e-08
3.25334e-07
1.97863e-08
3.25359e-07
1.92425e-08
3.25375e-07
1.87407e-08
3.25382e-07
1.82788e-08
3.2538e-07
1.78552e-08
3.25369e-07
1.74688e-08
3.2535e-07
1.71185e-08
3.25322e-07
1.68035e-08
3.25286e-07
1.65234e-08
3.25241e-07
1.62778e-08
3.25187e-07
1.60668e-08
3.25124e-07
1.58911e-08
3.25052e-07
1.57517e-08
3.24969e-07
1.56504e-08
3.24877e-07
1.55895e-08
3.24775e-07
1.55723e-08
3.24661e-07
1.56021e-08
3.24537e-07
1.56844e-08
3.24401e-07
1.5824e-08
3.24254e-07
1.60288e-08
3.24094e-07
1.63056e-08
3.23922e-07
1.66657e-08
3.23737e-07
1.71186e-08
3.2354e-07
1.768e-08
3.23332e-07
1.83636e-08
3.23115e-07
1.91913e-08
3.22893e-07
2.01816e-08
3.22671e-07
2.13667e-08
3.22461e-07
2.27622e-08
3.22282e-07
2.44117e-08
3.2216e-07
2.6283e-08
2.83888e-08
3.22139e-07
3.26184e-07
2.225e-08
3.28984e-07
4.41377e-08
3.30314e-07
4.23641e-08
3.31227e-07
3.7164e-08
3.32073e-07
3.54943e-08
3.3268e-07
3.42572e-08
3.33078e-07
3.222e-08
3.3339e-07
3.02075e-08
3.33658e-07
2.86225e-08
3.3388e-07
2.73078e-08
3.34061e-07
2.6119e-08
3.34212e-07
2.50341e-08
3.34338e-07
2.40559e-08
3.34443e-07
2.31729e-08
3.34531e-07
2.23691e-08
3.34603e-07
2.16324e-08
3.34661e-07
2.09546e-08
3.34706e-07
2.03296e-08
3.3474e-07
1.97522e-08
3.34764e-07
1.92189e-08
3.34778e-07
1.87268e-08
3.34782e-07
1.82742e-08
3.34778e-07
1.78595e-08
3.34765e-07
1.74818e-08
3.34743e-07
1.71402e-08
3.34713e-07
1.6834e-08
3.34674e-07
1.65626e-08
3.34625e-07
1.63259e-08
3.34568e-07
1.6124e-08
3.34502e-07
1.59576e-08
3.34426e-07
1.58277e-08