/*--------------------------------*- C++ -*----------------------------------*\
  =========                 |
  \\      /  F ield         | OpenFOAM: The Open Source CFD Toolbox
   \\    /   O peration     | Website:  https://openfoam.org
    \\  /    A nd           | Version:  7
     \\/     M anipulation  |
\*---------------------------------------------------------------------------*/
FoamFile
{
    version     2.0;
    format      ascii;
    class       volVectorField;
    location    "0.14";
    object      U_0;
}
// * * * * * * * * * * * * * * * * * * * * * * * * * * * * * * * * * * * * * //

dimensions      [0 1 -1 0 0 0 0];

internalField   nonuniform List<vector> 
70000
(
(0.553408 0.0169785 0)
(0.251383 0.00340103 0)
(0.16585 0.000319636 0)
(0.13232 4.95858e-05 0)
(0.117165 4.46261e-05 0)
(0.107153 5.27989e-05 0)
(0.0991272 4.50092e-05 0)
(0.0926273 3.5951e-05 0)
(0.0873263 2.99344e-05 0)
(0.0828994 2.58179e-05 0)
(0.0791186 2.26786e-05 0)
(0.0758362 2.01701e-05 0)
(0.0729507 1.81332e-05 0)
(0.070388 1.64592e-05 0)
(0.0680914 1.50677e-05 0)
(0.0660173 1.38995e-05 0)
(0.0641311 1.2911e-05 0)
(0.062405 1.20691e-05 0)
(0.0608163 1.13498e-05 0)
(0.0593464 1.07337e-05 0)
(0.0579797 1.02067e-05 0)
(0.0567028 9.75717e-06 0)
(0.0555045 9.37648e-06 0)
(0.054375 9.05763e-06 0)
(0.0533056 8.79556e-06 0)
(0.0522888 8.58621e-06 0)
(0.0513177 8.42706e-06 0)
(0.050386 8.317e-06 0)
(0.0494882 8.25391e-06 0)
(0.0486188 8.24154e-06 0)
(0.0477728 8.27481e-06 0)
(0.0469451 8.36628e-06 0)
(0.0461311 8.50235e-06 0)
(0.0453255 8.7133e-06 0)
(0.0445241 8.96384e-06 0)
(0.0437206 9.32009e-06 0)
(0.0429108 9.70462e-06 0)
(0.0420879 1.02376e-05 0)
(0.0412455 1.07997e-05 0)
(0.0403791 1.15169e-05 0)
(0.0394727 1.23878e-05 0)
(0.0385382 1.31615e-05 0)
(0.0375206 1.47747e-05 0)
(0.0364997 1.4984e-05 0)
(0.0352863 1.8725e-05 0)
(0.0341912 1.62003e-05 0)
(0.0326037 2.6439e-05 0)
(0.0315328 1.41211e-05 0)
(0.0292546 4.81234e-05 0)
(0.0264438 -0.00106276 0)
(0.88486 0.0434951 0)
(0.650097 0.020153 0)
(0.493835 0.00661005 0)
(0.4033 0.00276082 0)
(0.354467 0.00155449 0)
(0.323021 0.00113862 0)
(0.298984 0.000916504 0)
(0.279632 0.00075216 0)
(0.263774 0.000629693 0)
(0.250507 0.000539438 0)
(0.239178 0.000470977 0)
(0.229348 0.000417163 0)
(0.220709 0.000373755 0)
(0.21304 0.000338113 0)
(0.20617 0.000308442 0)
(0.199969 0.000283456 0)
(0.194334 0.000262215 0)
(0.189181 0.000244016 0)
(0.184444 0.000228327 0)
(0.180066 0.000214737 0)
(0.176001 0.00020293 0)
(0.17221 0.000192655 0)
(0.168659 0.000183714 0)
(0.165319 0.00017595 0)
(0.162165 0.000169243 0)
(0.159174 0.000163494 0)
(0.156327 0.000158633 0)
(0.153604 0.000154607 0)
(0.150991 0.000151379 0)
(0.148472 0.000148939 0)
(0.146032 0.000147269 0)
(0.143657 0.000146407 0)
(0.141335 0.000146341 0)
(0.139051 0.00014719 0)
(0.136792 0.000148895 0)
(0.134543 0.000151743 0)
(0.132292 0.000155522 0)
(0.130021 0.000160855 0)
(0.127713 0.000167185 0)
(0.125355 0.000175741 0)
(0.122905 0.000185383 0)
(0.120393 0.000198145 0)
(0.117674 0.000212498 0)
(0.114956 0.000230456 0)
(0.111742 0.000252729 0)
(0.10884 0.000275618 0)
(0.104664 0.000316387 0)
(0.101792 0.000326099 0)
(0.0958538 0.000538954 0)
(0.0908121 -0.00143609 0)
(0.99121 0.049959 0)
(0.890883 0.0305714 0)
(0.762349 0.0146233 0)
(0.656246 0.0079859 0)
(0.584972 0.0048963 0)
(0.535416 0.00349257 0)
(0.497323 0.0027574 0)
(0.466484 0.00226385 0)
(0.440955 0.00190075 0)
(0.41943 0.00162972 0)
(0.40096 0.0014229 0)
(0.384878 0.00126025 0)
(0.370708 0.00112907 0)
(0.358101 0.00102129 0)
(0.34679 0.000931459 0)
(0.336568 0.000855714 0)
(0.327271 0.00079122 0)
(0.318764 0.00073586 0)
(0.310941 0.000688031 0)
(0.303711 0.000646495 0)
(0.297 0.000610289 0)
(0.290743 0.000578652 0)
(0.284886 0.000550985 0)
(0.279383 0.000526808 0)
(0.274192 0.000505745 0)
(0.269278 0.000487495 0)
(0.264608 0.000471833 0)
(0.260153 0.000458586 0)
(0.255888 0.000447634 0)
(0.251787 0.000438913 0)
(0.247829 0.000432379 0)
(0.24399 0.000428088 0)
(0.240251 0.000426035 0)
(0.23659 0.000426455 0)
(0.232989 0.000429295 0)
(0.229422 0.000435152 0)
(0.225872 0.000443685 0)
(0.222311 0.000456291 0)
(0.218714 0.000471763 0)
(0.215063 0.000493282 0)
(0.211295 0.000517504 0)
(0.207452 0.000551372 0)
(0.203325 0.000587053 0)
(0.199209 0.000638517 0)
(0.19439 0.000690681 0)
(0.19001 0.000766237 0)
(0.183839 0.000853065 0)
(0.179428 0.000924238 0)
(0.170776 0.00129714 0)
(0.164851 -0.000599334 0)
(1.01554 0.0489582 0)
(1.00647 0.0357371 0)
(0.935777 0.0208399 0)
(0.851761 0.0135244 0)
(0.781803 0.00922742 0)
(0.726442 0.00681563 0)
(0.681117 0.00542161 0)
(0.643106 0.00448194 0)
(0.610832 0.00378848 0)
(0.583103 0.00326365 0)
(0.558984 0.00285843 0)
(0.537768 0.00253754 0)
(0.518927 0.00227753 0)
(0.502059 0.00206306 0)
(0.486847 0.00188368 0)
(0.473043 0.00173192 0)
(0.460444 0.00160231 0)
(0.448886 0.00149074 0)
(0.438233 0.00139405 0)
(0.42837 0.00130984 0)
(0.419202 0.00123619 0)
(0.410647 0.00117161 0)
(0.402634 0.00111489 0)
(0.395103 0.00106509 0)
(0.387999 0.00102144 0)
(0.381276 0.000983334 0)
(0.374893 0.00095031 0)
(0.36881 0.000922007 0)
(0.362993 0.000898169 0)
(0.357412 0.000878638 0)
(0.352035 0.00086332 0)
(0.346836 0.000852258 0)
(0.341787 0.000845472 0)
(0.33686 0.000843298 0)
(0.332032 0.000845731 0)
(0.327272 0.000853694 0)
(0.322557 0.000866768 0)
(0.317852 0.00088725 0)
(0.313128 0.000913205 0)
(0.30836 0.000950316 0)
(0.303474 0.000992273 0)
(0.298513 0.001053 0)
(0.293237 0.0011151 0)
(0.287974 0.00121125 0)
(0.281916 0.00130007 0)
(0.276326 0.00144911 0)
(0.268735 0.0015907 0)
(0.262975 0.00176279 0)
(0.252589 0.00226254 0)
(0.245611 0.000832855 0)
(1.01435 0.0461031 0)
(1.04796 0.0373572 0)
(1.02449 0.0242143 0)
(0.974489 0.017594 0)
(0.923128 0.013152 0)
(0.876192 0.0102534 0)
(0.833789 0.00839721 0)
(0.795778 0.0070772 0)
(0.761943 0.00606837 0)
(0.731844 0.00528242 0)
(0.704973 0.00466195 0)
(0.68086 0.00416268 0)
(0.659109 0.00375328 0)
(0.639387 0.00341236 0)
(0.621419 0.00312494 0)
(0.604975 0.00288015 0)
(0.589859 0.00266985 0)
(0.57591 0.00248786 0)
(0.562987 0.00232942 0)
(0.550973 0.00219078 0)
(0.539766 0.00206902 0)
(0.529276 0.00196177 0)
(0.519427 0.00186716 0)
(0.510151 0.00178367 0)
(0.50139 0.00171009 0)
(0.493089 0.00164544 0)
(0.4852 0.00158897 0)
(0.477681 0.00154008 0)
(0.470493 0.00149836 0)
(0.463597 0.0014635 0)
(0.456962 0.00143536 0)
(0.450553 0.00141393 0)
(0.44434 0.00139927 0)
(0.438292 0.00139181 0)
(0.43238 0.0013916 0)
(0.426571 0.0013999 0)
(0.420838 0.00141626 0)
(0.415141 0.00144391 0)
(0.409449 0.00148022 0)
(0.403728 0.00153358 0)
(0.397907 0.00159452 0)
(0.392017 0.00168469 0)
(0.38582 0.00177627 0)
(0.379621 0.00192251 0)
(0.372637 0.00205403 0)
(0.366052 0.00228546 0)
(0.357533 0.00249411 0)
(0.350576 0.00278447 0)
(0.339339 0.00341382 0)
(0.330895 0.00249692 0)
(1.0094 0.0430533 0)
(1.05562 0.0371149 0)
(1.05861 0.0253608 0)
(1.03616 0.0198076 0)
(1.00686 0.0158523 0)
(0.975664 0.0129965 0)
(0.943918 0.0110315 0)
(0.912798 0.00955295 0)
(0.88317 0.00836506 0)
(0.855422 0.00739999 0)
(0.829636 0.00661248 0)
(0.805752 0.00596233 0)
(0.783654 0.0054183 0)
(0.7632 0.00495782 0)
(0.744243 0.00456433 0)
(0.726645 0.00422536 0)
(0.710273 0.0039313 0)
(0.69501 0.00367468 0)
(0.680745 0.00344958 0)
(0.667383 0.0032513 0)
(0.654837 0.00307607 0)
(0.643028 0.00292084 0)
(0.631887 0.00278313 0)
(0.621351 0.00266092 0)
(0.611363 0.00255259 0)
(0.601871 0.00245682 0)
(0.592829 0.00237258 0)
(0.584193 0.00229903 0)
(0.575923 0.0022356 0)
(0.567982 0.00218186 0)
(0.560336 0.0021376 0)
(0.552949 0.0021028 0)
(0.54579 0.00207752 0)
(0.538826 0.00206227 0)
(0.532028 0.00205725 0)
(0.525358 0.00206398 0)
(0.518791 0.00208208 0)
(0.512283 0.00211565 0)
(0.505804 0.00216153 0)
(0.499313 0.00223065 0)
(0.492745 0.00231085 0)
(0.486112 0.00243083 0)
(0.479208 0.00255396 0)
(0.47227 0.00275122 0)
(0.46463 0.00293143 0)
(0.45725 0.00324498 0)
(0.448189 0.00353557 0)
(0.440219 0.00394319 0)
(0.42873 0.00472647 0)
(0.418908 0.0042972 0)
(1.00635 0.040186 0)
(1.05239 0.0361701 0)
(1.066 0.0252882 0)
(1.05942 0.0206194 0)
(1.04668 0.0172894 0)
(1.03049 0.0147282 0)
(1.01141 0.012907 0)
(0.990505 0.0114884 0)
(0.968843 0.0102963 0)
(0.947161 0.00928503 0)
(0.925907 0.00842867 0)
(0.905349 0.00769932 0)
(0.885637 0.00707279 0)
(0.866843 0.00653054 0)
(0.848988 0.00605835 0)
(0.83206 0.00564496 0)
(0.816028 0.00528133 0)
(0.800849 0.00496013 0)
(0.786475 0.00467539 0)
(0.772853 0.00442221 0)
(0.759932 0.00419656 0)
(0.747662 0.00399512 0)
(0.735996 0.00381514 0)
(0.724886 0.00365434 0)
(0.714291 0.00351086 0)
(0.704168 0.00338317 0)
(0.694479 0.00327007 0)
(0.685189 0.0031706 0)
(0.676261 0.00308407 0)
(0.667663 0.00300999 0)
(0.659364 0.00294811 0)
(0.651331 0.00289841 0)
(0.643536 0.00286105 0)
(0.635944 0.00283661 0)
(0.628531 0.00282543 0)
(0.621259 0.00282935 0)
(0.614102 0.0028481 0)
(0.607017 0.00288655 0)
(0.599977 0.00294131 0)
(0.592936 0.00302537 0)
(0.58584 0.00312483 0)
(0.578679 0.0032738 0)
(0.57129 0.00343007 0)
(0.563829 0.0036766 0)
(0.555778 0.00391095 0)
(0.547829 0.00430145 0)
(0.538515 0.00468698 0)
(0.529803 0.0052058 0)
(0.518386 0.00615638 0)
(0.507651 0.00619929 0)
(1.00506 0.0375095 0)
(1.04761 0.0350736 0)
(1.06391 0.0247441 0)
(1.06408 0.020656 0)
(1.06052 0.0178358 0)
(1.0545 0.0155804 0)
(1.0456 0.0139777 0)
(1.03423 0.0127274 0)
(1.0211 0.011649 0)
(1.00682 0.0107032 0)
(0.991865 0.00987654 0)
(0.976578 0.00915156 0)
(0.961234 0.00851176 0)
(0.946028 0.00794436 0)
(0.931101 0.00743939 0)
(0.916545 0.00698871 0)
(0.902421 0.00658545 0)
(0.888764 0.00622383 0)
(0.87559 0.00589893 0)
(0.862903 0.00560658 0)
(0.850696 0.00534322 0)
(0.838956 0.00510584 0)
(0.827668 0.00489188 0)
(0.81681 0.00469916 0)
(0.806361 0.0045259 0)
(0.796298 0.0043706 0)
(0.786597 0.00423208 0)
(0.777235 0.0041094 0)
(0.768188 0.00400189 0)
(0.759431 0.00390909 0)
(0.75094 0.00383084 0)
(0.742689 0.00376717 0)
(0.734656 0.00371836 0)
(0.726811 0.00368516 0)
(0.719133 0.00366812 0)
(0.711588 0.00366932 0)
(0.704154 0.00368879 0)
(0.696789 0.003732 0)
(0.689472 0.00379565 0)
(0.682153 0.00389424 0)
(0.674793 0.00401328 0)
(0.667361 0.00419019 0)
(0.65974 0.00438097 0)
(0.652009 0.00467407 0)
(0.643797 0.00496664 0)
(0.63555 0.00542802 0)
(0.626229 0.00591598 0)
(0.617115 0.00654285 0)
(0.60597 0.00765731 0)
(0.594854 0.00815348 0)
(1.00451 0.0349743 0)
(1.04358 0.0339957 0)
(1.05988 0.0240964 0)
(1.06213 0.0203714 0)
(1.06235 0.0179075 0)
(1.06159 0.015869 0)
(1.0589 0.014443 0)
(1.05421 0.0133614 0)
(1.04781 0.0124281 0)
(1.04003 0.0115971 0)
(1.03115 0.0108574 0)
(1.02143 0.0101956 0)
(1.01109 0.00959905 0)
(1.00035 0.00905865 0)
(0.98935 0.0085678 0)
(0.978241 0.00812126 0)
(0.967123 0.00771458 0)
(0.956078 0.00734394 0)
(0.945168 0.007006 0)
(0.934437 0.00669782 0)
(0.923917 0.00641682 0)
(0.91363 0.00616075 0)
(0.903588 0.00592763 0)
(0.893799 0.00571575 0)
(0.884262 0.00552367 0)
(0.874977 0.0053502 0)
(0.865936 0.00519438 0)
(0.857131 0.00505546 0)
(0.848552 0.00493299 0)
(0.840187 0.00482665 0)
(0.832022 0.00473647 0)
(0.824039 0.00466263 0)
(0.816226 0.00460566 0)
(0.808559 0.00456648 0)
(0.801023 0.00454593 0)
(0.79359 0.0045464 0)
(0.786244 0.00456826 0)
(0.778949 0.0046175 0)
(0.771686 0.00469124 0)
(0.764409 0.00480492 0)
(0.757091 0.0049445 0)
(0.749688 0.00514885 0)
(0.742121 0.00537541 0)
(0.734415 0.00571268 0)
(0.726311 0.00606585 0)
(0.718072 0.00659305 0)
(0.708992 0.00718514 0)
(0.699846 0.00791983 0)
(0.689178 0.00918521 0)
(0.678166 0.0101005 0)
(1.00412 0.0325445 0)
(1.04025 0.0329443 0)
(1.05612 0.0234652 0)
(1.05877 0.0199917 0)
(1.06008 0.0177848 0)
(1.06138 0.0158798 0)
(1.06165 0.0145574 0)
(1.06062 0.0135936 0)
(1.05841 0.0127788 0)
(1.05512 0.0120562 0)
(1.05083 0.0114121 0)
(1.04565 0.0108328 0)
(1.03972 0.0103055 0)
(1.03316 0.00982168 0)
(1.0261 0.00937596 0)
(1.01864 0.00896443 0)
(1.01088 0.00858408 0)
(1.00291 0.00823243 0)
(0.994807 0.00790741 0)
(0.986621 0.00760722 0)
(0.978407 0.00733024 0)
(0.970202 0.00707508 0)
(0.962041 0.00684046 0)
(0.953946 0.00662529 0)
(0.945937 0.00642864 0)
(0.938027 0.00624973 0)
(0.930224 0.00608801 0)
(0.922535 0.00594306 0)
(0.914962 0.0058147 0)
(0.907503 0.00570292 0)
(0.900155 0.005608 0)
(0.892913 0.00553041 0)
(0.885769 0.00547095 0)
(0.87871 0.0054308 0)
(0.871729 0.00541116 0)
(0.864803 0.00541474 0)
(0.857924 0.00544236 0)
(0.85106 0.00550045 0)
(0.844201 0.00558673 0)
(0.837305 0.00571722 0)
(0.830352 0.00587909 0)
(0.823299 0.00611123 0)
(0.81609 0.00637488 0)
(0.808719 0.00675462 0)
(0.80101 0.00716927 0)
(0.793102 0.00775859 0)
(0.784526 0.00845212 0)
(0.775716 0.00929477 0)
(0.76576 0.0106946 0)
(0.755288 0.0119804 0)
(1.00374 0.030211 0)
(1.03725 0.0318974 0)
(1.05278 0.0228652 0)
(1.05553 0.0195943 0)
(1.05699 0.0176007 0)
(1.05884 0.015786 0)
(1.06018 0.0145129 0)
(1.06076 0.0136145 0)
(1.06063 0.0128754 0)
(1.05983 0.0122293 0)
(1.05835 0.0116599 0)
(1.0562 0.011152 0)
(1.05342 0.0106914 0)
(1.05006 0.0102684 0)
(1.04617 0.00987695 0)
(1.04183 0.00951315 0)
(1.03709 0.00917416 0)
(1.03201 0.0088579 0)
(1.02665 0.00856281 0)
(1.02107 0.00828767 0)
(1.01529 0.00803148 0)
(1.00938 0.0077934 0)
(1.00336 0.00757272 0)
(0.997254 0.00736884 0)
(0.9911 0.00718131 0)
(0.984914 0.00700975 0)
(0.978712 0.006854 0)
(0.97251 0.00671397 0)
(0.966316 0.00658984 0)
(0.960138 0.0064819 0)
(0.953982 0.00639076 0)
(0.947847 0.00631716 0)
(0.941735 0.00626225 0)
(0.93564 0.00622751 0)
(0.92956 0.00621451 0)
(0.923482 0.00622633 0)
(0.9174 0.00626422 0)
(0.911293 0.00633507 0)
(0.905152 0.0064373 0)
(0.898946 0.00658721 0)
(0.89266 0.00677369 0)
(0.886255 0.00703465 0)
(0.879691 0.00733663 0)
(0.87295 0.0077578 0)
(0.86591 0.0082335 0)
(0.858634 0.00888207 0)
(0.850822 0.00967133 0)
(0.842686 0.0106205 0)
(0.833682 0.0121366 0)
(0.824131 0.0137354 0)
(1.00337 0.0279762 0)
(1.03441 0.0308424 0)
(1.04967 0.0222903 0)
(1.05257 0.0191945 0)
(1.05399 0.0173983 0)
(1.0559 0.015663 0)
(1.05751 0.0144136 0)
(1.05862 0.0135476 0)
(1.05931 0.012851 0)
(1.05962 0.01225 0)
(1.05955 0.0117277 0)
(1.05906 0.0112685 0)
(1.05815 0.0108572 0)
(1.05682 0.0104829 0)
(1.05509 0.0101384 0)
(1.05297 0.00981917 0)
(1.05049 0.00952182 0)
(1.04768 0.00924403 0)
(1.04457 0.00898412 0)
(1.04119 0.0087409 0)
(1.03757 0.00851352 0)
(1.03375 0.00830133 0)
(1.02974 0.00810389 0)
(1.02557 0.00792084 0)
(1.02127 0.007752 0)
(1.01685 0.00759727 0)
(1.01233 0.00745674 0)
(1.00773 0.00733061 0)
(1.00306 0.00721931 0)
(0.998329 0.0071234 0)
(0.993544 0.00704376 0)
(0.988711 0.00698143 0)
(0.983836 0.00693782 0)
(0.978918 0.00691478 0)
(0.973959 0.00691417 0)
(0.968951 0.00693945 0)
(0.963892 0.00699231 0)
(0.958769 0.00708002 0)
(0.953575 0.00720176 0)
(0.948288 0.00737391 0)
(0.942895 0.00758735 0)
(0.937368 0.00787828 0)
(0.931675 0.00821945 0)
(0.925795 0.00868111 0)
(0.919647 0.00921613 0)
(0.913247 0.00992125 0)
(0.906411 0.0107982 0)
(0.899221 0.0118496 0)
(0.891374 0.0134628 0)
(0.883041 0.0153129 0)
(1.00301 0.0258437 0)
(1.03169 0.0297753 0)
(1.04668 0.0217366 0)
(1.04977 0.0187918 0)
(1.05117 0.0171842 0)
(1.05304 0.0155332 0)
(1.05469 0.0143006 0)
(1.05591 0.0134524 0)
(1.05684 0.0127804 0)
(1.05755 0.0122049 0)
(1.05804 0.0117089 0)
(1.0583 0.0112783 0)
(1.05831 0.0108976 0)
(1.05806 0.0105554 0)
(1.05755 0.010244 0)
(1.05677 0.00995803 0)
(1.05573 0.00969368 0)
(1.05444 0.00944815 0)
(1.0529 0.00921943 0)
(1.05113 0.00900609 0)
(1.04914 0.00880714 0)
(1.04694 0.00862187 0)
(1.04456 0.00844981 0)
(1.042 0.00829067 0)
(1.03927 0.00814432 0)
(1.03641 0.00801077 0)
(1.0334 0.00789022 0)
(1.03027 0.00778299 0)
(1.02703 0.00768968 0)
(1.02369 0.007611 0)
(1.02025 0.00754804 0)
(1.01671 0.00750204 0)
(1.0131 0.00747465 0)
(1.00939 0.00746796 0)
(1.00561 0.00748413 0)
(1.00174 0.00752694 0)
(0.997789 0.00759845 0)
(0.993742 0.00770625 0)
(0.989596 0.00785027 0)
(0.985337 0.00804679 0)
(0.980954 0.00828879 0)
(0.976426 0.00861027 0)
(0.97173 0.00899056 0)
(0.966845 0.00949136 0)
(0.961719 0.0100824 0)
(0.956343 0.0108409 0)
(0.950613 0.0117955 0)
(0.944542 0.0129419 0)
(0.937979 0.014632 0)
(0.931043 0.0166718 0)
(1.00268 0.0238161 0)
(1.02909 0.0286945 0)
(1.04377 0.0212038 0)
(1.04708 0.0183863 0)
(1.04848 0.016957 0)
(1.05032 0.0153993 0)
(1.05196 0.0141853 0)
(1.05319 0.0133501 0)
(1.05415 0.0126961 0)
(1.05496 0.0121371 0)
(1.05563 0.0116564 0)
(1.05616 0.0112418 0)
(1.05654 0.0108786 0)
(1.05677 0.0105554 0)
(1.05684 0.0102642 0)
(1.05675 0.0099996 0)
(1.05649 0.00975744 0)
(1.05606 0.00953464 0)
(1.05546 0.00932894 0)
(1.05469 0.00913866 0)
(1.05376 0.00896261 0)
(1.05266 0.00879995 0)
(1.05141 0.0086501 0)
(1.05001 0.0085127 0)
(1.04846 0.00838758 0)
(1.04678 0.00827471 0)
(1.04496 0.00817431 0)
(1.04301 0.00808673 0)
(1.04094 0.0080126 0)
(1.03876 0.00795273 0)
(1.03647 0.00790827 0)
(1.03407 0.00788062 0)
(1.03157 0.00787156 0)
(1.02896 0.00788338 0)
(1.02626 0.00791843 0)
(1.02345 0.00798076 0)
(1.02054 0.00807272 0)
(1.01752 0.00820216 0)
(1.01439 0.00836968 0)
(1.01114 0.00859125 0)
(1.00776 0.00886205 0)
(1.00423 0.00921351 0)
(1.00054 0.00963146 0)
(0.996667 0.0101691 0)
(0.992581 0.0108114 0)
(0.988264 0.0116191 0)
(0.983661 0.0126398 0)
(0.978761 0.0138706 0)
(0.973504 0.0156175 0)
(0.968009 0.0177882 0)
(1.00238 0.021895 0)
(1.02662 0.0275992 0)
(1.04095 0.0206916 0)
(1.04448 0.0179794 0)
(1.04589 0.0167154 0)
(1.0477 0.0152598 0)
(1.04934 0.0140687 0)
(1.05056 0.0132457 0)
(1.05152 0.012608 0)
(1.05233 0.012063 0)
(1.05303 0.0115934 0)
(1.05362 0.011189 0)
(1.05412 0.0108364 0)
(1.05451 0.0105244 0)
(1.05481 0.0102452 0)
(1.05501 0.0099933 0)
(1.05511 0.00976473 0)
(1.0551 0.00955628 0)
(1.05499 0.0093656 0)
(1.05476 0.0091909 0)
(1.05442 0.00903089 0)
(1.05398 0.00888463 0)
(1.05341 0.00875147 0)
(1.05274 0.00863097 0)
(1.05196 0.0085229 0)
(1.05106 0.0084272 0)
(1.05005 0.00834403 0)
(1.04894 0.00827371 0)
(1.04772 0.00821688 0)
(1.0464 0.00817435 0)
(1.04497 0.00814731 0)
(1.04345 0.00813724 0)
(1.04182 0.00814595 0)
(1.04009 0.00817593 0)
(1.03826 0.00822958 0)
(1.03633 0.0083112 0)
(1.0343 0.00842335 0)
(1.03216 0.00857399 0)
(1.0299 0.00876442 0)
(1.02753 0.00901007 0)
(1.02503 0.00930831 0)
(1.0224 0.00968779 0)
(1.01961 0.0101404 0)
(1.01667 0.0107116 0)
(1.01354 0.0113988 0)
(1.0102 0.0122503 0)
(1.00664 0.013325 0)
(1.00285 0.0146265 0)
(0.998811 0.0164107 0)
(0.994672 0.0186595 0)
(1.0021 0.0200815 0)
(1.02429 0.0264913 0)
(1.03821 0.0201977 0)
(1.04195 0.0175731 0)
(1.04339 0.0164593 0)
(1.04516 0.0151134 0)
(1.04681 0.0139504 0)
(1.04803 0.0131397 0)
(1.04897 0.0125183 0)
(1.04977 0.0119872 0)
(1.05046 0.0115277 0)
(1.05106 0.0111317 0)
(1.05157 0.0107869 0)
(1.05201 0.0104826 0)
(1.05238 0.0102112 0)
(1.05268 0.00996733 0)
(1.05291 0.00974715 0)
(1.05307 0.00954757 0)
(1.05316 0.00936624 0)
(1.05319 0.0092014 0)
(1.05314 0.00905176 0)
(1.05301 0.00891639 0)
(1.05282 0.0087946 0)
(1.05254 0.00868596 0)
(1.05219 0.00859021 0)
(1.05176 0.00850726 0)
(1.05124 0.00843724 0)
(1.05065 0.00838046 0)
(1.04997 0.00833753 0)
(1.04921 0.00830927 0)
(1.04836 0.00829686 0)
(1.04743 0.00830183 0)
(1.04642 0.00832602 0)
(1.04531 0.00837202 0)
(1.04412 0.00844229 0)
(1.04284 0.00854128 0)
(1.04146 0.00867171 0)
(1.03999 0.0088416 0)
(1.03841 0.00905285 0)
(1.03673 0.00932023 0)
(1.03493 0.00964319 0)
(1.03302 0.0100476 0)
(1.03097 0.0105307 0)
(1.02878 0.0111311 0)
(1.02645 0.0118562 0)
(1.02394 0.0127451 0)
(1.02127 0.0138615 0)
(1.01843 0.0152187 0)
(1.01543 0.0170219 0)
(1.01246 0.019303 0)
(1.00185 0.0183757 0)
(1.02209 0.0253748 0)
(1.03558 0.0197184 0)
(1.03951 0.0171692 0)
(1.04097 0.0161894 0)
(1.04272 0.0149593 0)
(1.04436 0.0138299 0)
(1.04558 0.0130319 0)
(1.04652 0.0124269 0)
(1.0473 0.0119104 0)
(1.04798 0.0114612 0)
(1.04857 0.0110733 0)
(1.04907 0.0107357 0)
(1.04951 0.010438 0)
(1.04988 0.0101727 0)
(1.0502 0.00993485 0)
(1.05047 0.00972061 0)
(1.05069 0.00952705 0)
(1.05085 0.00935192 0)
(1.05097 0.00919354 0)
(1.05103 0.00905068 0)
(1.05105 0.00892244 0)
(1.05102 0.00880821 0)
(1.05093 0.00870758 0)
(1.05079 0.00862031 0)
(1.0506 0.00854634 0)
(1.05035 0.00848579 0)
(1.05003 0.00843898 0)
(1.04966 0.0084065 0)
(1.04922 0.0083892 0)
(1.04872 0.00838826 0)
(1.04815 0.00840524 0)
(1.04751 0.00844199 0)
(1.04681 0.0085012 0)
(1.04602 0.00858536 0)
(1.04517 0.00869901 0)
(1.04423 0.00884505 0)
(1.04322 0.00903141 0)
(1.04211 0.00926064 0)
(1.04092 0.00954671 0)
(1.03963 0.00989098 0)
(1.03823 0.0103167 0)
(1.03673 0.0108256 0)
(1.03512 0.0114507 0)
(1.03338 0.0122062 0)
(1.03151 0.0131258 0)
(1.02952 0.0142725 0)
(1.02743 0.01567 0)
(1.02526 0.017476 0)
(1.02321 0.0197523 0)
(1.00162 0.0167775 0)
(1.02003 0.024254 0)
(1.03305 0.0192496 0)
(1.03716 0.0167693 0)
(1.03866 0.0159068 0)
(1.04036 0.0147967 0)
(1.042 0.0137069 0)
(1.04323 0.0129221 0)
(1.04415 0.0123336 0)
(1.04492 0.0118324 0)
(1.04559 0.0113941 0)
(1.04616 0.0110146 0)
(1.04666 0.0106842 0)
(1.04708 0.0103928 0)
(1.04745 0.0101334 0)
(1.04776 0.00990086 0)
(1.04803 0.00969168 0)
(1.04825 0.00950302 0)
(1.04843 0.00933271 0)
(1.04858 0.00917916 0)
(1.04868 0.00904122 0)
(1.04874 0.00891809 0)
(1.04877 0.00880922 0)
(1.04876 0.00871426 0)
(1.04871 0.00863304 0)
(1.04862 0.00856551 0)
(1.04848 0.00851184 0)
(1.0483 0.00847237 0)
(1.04808 0.0084477 0)
(1.0478 0.00843872 0)
(1.04748 0.0084466 0)
(1.04711 0.00847296 0)
(1.04668 0.00851967 0)
(1.04619 0.00858948 0)
(1.04565 0.00868493 0)
(1.04505 0.00881062 0)
(1.04438 0.00896961 0)
(1.04364 0.00916969 0)
(1.04283 0.00941401 0)
(1.04195 0.00971572 0)
(1.04098 0.0100779 0)
(1.03994 0.0105214 0)
(1.0388 0.0110516 0)
(1.03757 0.0116969 0)
(1.03625 0.0124763 0)
(1.03483 0.0134201 0)
(1.03333 0.014587 0)
(1.03178 0.0160105 0)
(1.03022 0.0178059 0)
(1.02885 0.0200488 0)
(1.00142 0.015286 0)
(1.0181 0.0231329 0)
(1.03063 0.0187873 0)
(1.0349 0.0163747 0)
(1.03643 0.0156129 0)
(1.0381 0.0146251 0)
(1.03973 0.0135811 0)
(1.04096 0.0128104 0)
(1.04188 0.0122383 0)
(1.04264 0.011753 0)
(1.04329 0.0113264 0)
(1.04385 0.0109555 0)
(1.04434 0.0106325 0)
(1.04475 0.0103477 0)
(1.0451 0.0100941 0)
(1.04541 0.00986689 0)
(1.04566 0.0096626 0)
(1.04588 0.00947851 0)
(1.04606 0.00931257 0)
(1.0462 0.00916327 0)
(1.0463 0.00902952 0)
(1.04638 0.00891062 0)
(1.04642 0.00880609 0)
(1.04643 0.00871566 0)
(1.04641 0.0086392 0)
(1.04635 0.00857674 0)
(1.04626 0.00852847 0)
(1.04613 0.00849478 0)
(1.04597 0.00847629 0)
(1.04577 0.00847391 0)
(1.04553 0.00848884 0)
(1.04524 0.00852277 0)
(1.04491 0.00857757 0)
(1.04454 0.00865605 0)
(1.04412 0.00876083 0)
(1.04365 0.00889649 0)
(1.04312 0.00906632 0)
(1.04254 0.00927789 0)
(1.0419 0.00953494 0)
(1.04119 0.00984979 0)
(1.04042 0.010227 0)
(1.03958 0.0106853 0)
(1.03867 0.0112329 0)
(1.03768 0.0118949 0)
(1.03662 0.0126925 0)
(1.0355 0.0136548 0)
(1.03432 0.0148341 0)
(1.03313 0.016271 0)
(1.03198 0.0180455 0)
(1.03107 0.020235 0)
(1.00124 0.0138999 0)
(1.01631 0.0220157 0)
(1.02831 0.0183278 0)
(1.03273 0.0159869 0)
(1.0343 0.0153091 0)
(1.03593 0.0144439 0)
(1.03755 0.0134521 0)
(1.03878 0.0126969 0)
(1.0397 0.0121408 0)
(1.04044 0.0116721 0)
(1.04109 0.0112577 0)
(1.04164 0.0108959 0)
(1.04211 0.0105806 0)
(1.04251 0.0103026 0)
(1.04285 0.0100551 0)
(1.04315 0.00983328 0)
(1.04339 0.00963394 0)
(1.0436 0.00945445 0)
(1.04376 0.00929283 0)
(1.04389 0.00914763 0)
(1.04399 0.00901789 0)
(1.04406 0.00890294 0)
(1.0441 0.0088024 0)
(1.04411 0.00871605 0)
(1.04409 0.00864385 0)
(1.04404 0.00858586 0)
(1.04396 0.00854232 0)
(1.04385 0.00851364 0)
(1.04371 0.00850049 0)
(1.04353 0.00850382 0)
(1.04332 0.00852484 0)
(1.04307 0.00856528 0)
(1.04278 0.00862707 0)
(1.04246 0.00871305 0)
(1.04209 0.00882591 0)
(1.04168 0.00897023 0)
(1.04122 0.00914948 0)
(1.04071 0.00937102 0)
(1.04016 0.00963914 0)
(1.03955 0.00996537 0)
(1.03888 0.0103555 0)
(1.03815 0.0108265 0)
(1.03737 0.0113886 0)
(1.03652 0.0120645 0)
(1.03562 0.0128761 0)
(1.03467 0.0138522 0)
(1.03369 0.0150377 0)
(1.03273 0.0164779 0)
(1.03185 0.0182238 0)
(1.03123 0.020347 0)
(1.00107 0.012617 0)
(1.01465 0.0209062 0)
(1.0261 0.0178677 0)
(1.03064 0.0156066 0)
(1.03227 0.0149975 0)
(1.03385 0.0142527 0)
(1.03545 0.0133194 0)
(1.03669 0.0125816 0)
(1.0376 0.0120414 0)
(1.03834 0.0115895 0)
(1.03897 0.0111882 0)
(1.03951 0.0108359 0)
(1.03997 0.0105285 0)
(1.04037 0.0102575 0)
(1.0407 0.0100162 0)
(1.04098 0.00980005 0)
(1.04121 0.00960581 0)
(1.04141 0.00943102 0)
(1.04156 0.00927379 0)
(1.04169 0.00913277 0)
(1.04178 0.00900704 0)
(1.04184 0.00889602 0)
(1.04187 0.00879942 0)
(1.04187 0.00871707 0)
(1.04185 0.00864899 0)
(1.04179 0.00859529 0)
(1.04171 0.00855625 0)
(1.0416 0.00853232 0)
(1.04146 0.00852419 0)
(1.04128 0.00853284 0)
(1.04108 0.00855953 0)
(1.04084 0.00860601 0)
(1.04057 0.00867426 0)
(1.04026 0.00876714 0)
(1.03991 0.00888743 0)
(1.03952 0.00903968 0)
(1.03909 0.00922756 0)
(1.03862 0.00945819 0)
(1.0381 0.00973634 0)
(1.03754 0.0100729 0)
(1.03692 0.0104745 0)
(1.03625 0.0109569 0)
(1.03554 0.0115314 0)
(1.03477 0.0122191 0)
(1.03396 0.0130417 0)
(1.03311 0.0140279 0)
(1.03225 0.0152152 0)
(1.03144 0.0166509 0)
(1.03072 0.0183631 0)
(1.03027 0.0204129 0)
(1.00093 0.0114348 0)
(1.01312 0.0198086 0)
(1.024 0.0174039 0)
(1.02864 0.0152345 0)
(1.03032 0.0146799 0)
(1.03187 0.0140513 0)
(1.03345 0.0131824 0)
(1.03469 0.0124644 0)
(1.0356 0.0119398 0)
(1.03633 0.0115052 0)
(1.03695 0.0111176 0)
(1.03748 0.0107754 0)
(1.03793 0.0104761 0)
(1.03831 0.0102124 0)
(1.03864 0.00997754 0)
(1.03891 0.00976717 0)
(1.03913 0.00957819 0)
(1.03932 0.00940824 0)
(1.03946 0.00925552 0)
(1.03958 0.00911877 0)
(1.03966 0.00899714 0)
(1.03971 0.00889014 0)
(1.03973 0.00879753 0)
(1.03973 0.00871923 0)
(1.03969 0.00865529 0)
(1.03963 0.00860589 0)
(1.03954 0.00857134 0)
(1.03943 0.00855212 0)
(1.03928 0.00854895 0)
(1.03911 0.00856284 0)
(1.0389 0.00859506 0)
(1.03866 0.00864743 0)
(1.03839 0.00872194 0)
(1.03808 0.0088215 0)
(1.03774 0.00894894 0)
(1.03736 0.0091088 0)
(1.03694 0.00930492 0)
(1.03648 0.00954419 0)
(1.03598 0.0098318 0)
(1.03544 0.010178 0)
(1.03485 0.0105903 0)
(1.03421 0.0110831 0)
(1.03353 0.0116687 0)
(1.0328 0.0123669 0)
(1.03204 0.0131983 0)
(1.03126 0.0141917 0)
(1.03048 0.0153778 0)
(1.02976 0.0168031 0)
(1.02914 0.0184787 0)
(1.0288 0.0204526 0)
(1.0008 0.0103501 0)
(1.01172 0.0187271 0)
(1.02202 0.0169336 0)
(1.02672 0.0148708 0)
(1.02847 0.0143584 0)
(1.02998 0.0138396 0)
(1.03153 0.0130406 0)
(1.03277 0.0123455 0)
(1.03369 0.0118363 0)
(1.03441 0.011419 0)
(1.03502 0.0110458 0)
(1.03554 0.0107141 0)
(1.03599 0.0104234 0)
(1.03636 0.0101671 0)
(1.03667 0.00993897 0)
(1.03693 0.00973459 0)
(1.03715 0.00955103 0)
(1.03732 0.00938606 0)
(1.03746 0.009238 0)
(1.03756 0.00910563 0)
(1.03763 0.00898822 0)
(1.03768 0.00888533 0)
(1.03769 0.00879681 0)
(1.03768 0.00872264 0)
(1.03764 0.00866294 0)
(1.03757 0.00861792 0)
(1.03748 0.00858792 0)
(1.03735 0.00857347 0)
(1.0372 0.0085753 0)
(1.03702 0.00859445 0)
(1.03681 0.00863224 0)
(1.03657 0.00869049 0)
(1.03629 0.00877125 0)
(1.03599 0.00887743 0)
(1.03564 0.00901195 0)
(1.03527 0.0091793 0)
(1.03485 0.00938349 0)
(1.0344 0.00963122 0)
(1.0339 0.00992799 0)
(1.03337 0.0102836 0)
(1.03279 0.0107059 0)
(1.03217 0.0112087 0)
(1.03151 0.0118043 0)
(1.03082 0.0125119 0)
(1.03009 0.0133506 0)
(1.02936 0.014349 0)
(1.02863 0.0155314 0)
(1.02796 0.016942 0)
(1.02742 0.0185791 0)
(1.02713 0.0204775 0)
(1.00069 0.0093589 0)
(1.01044 0.0176656 0)
(1.02015 0.0164547 0)
(1.02489 0.0145155 0)
(1.02671 0.0140351 0)
(1.02818 0.0136177 0)
(1.0297 0.0128933 0)
(1.03095 0.0122246 0)
(1.03186 0.0117307 0)
(1.03258 0.0113308 0)
(1.03318 0.0109727 0)
(1.03369 0.0106522 0)
(1.03413 0.0103702 0)
(1.03449 0.0101217 0)
(1.03479 0.00990045 0)
(1.03505 0.00970225 0)
(1.03525 0.00952429 0)
(1.03542 0.00936446 0)
(1.03555 0.00922118 0)
(1.03565 0.00909333 0)
(1.03571 0.00898024 0)
(1.03575 0.00888158 0)
(1.03575 0.00879726 0)
(1.03573 0.00872733 0)
(1.03568 0.00867196 0)
(1.03561 0.00863141 0)
(1.03551 0.00860606 0)
(1.03538 0.00859647 0)
(1.03522 0.00860339 0)
(1.03504 0.00862789 0)
(1.03482 0.00867131 0)
(1.03457 0.0087355 0)
(1.0343 0.00882254 0)
(1.03399 0.00893537 0)
(1.03364 0.00907699 0)
(1.03327 0.00925181 0)
(1.03285 0.00946402 0)
(1.0324 0.00972011 0)
(1.03191 0.0100259 0)
(1.03139 0.0103906 0)
(1.03082 0.0108226 0)
(1.03021 0.011335 0)
(1.02957 0.0119399 0)
(1.02889 0.012656 0)
(1.0282 0.0135008 0)
(1.02749 0.0145021 0)
(1.02681 0.0156791 0)
(1.02619 0.0170718 0)
(1.0257 0.0186696 0)
(1.02545 0.0204948 0)
(1.0006 0.00845704 0)
(1.00928 0.0166284 0)
(1.01839 0.0159653 0)
(1.02315 0.0141683 0)
(1.02504 0.0137117 0)
(1.02648 0.0133862 0)
(1.02797 0.01274 0)
(1.02921 0.0121016 0)
(1.03012 0.0116233 0)
(1.03083 0.0112406 0)
(1.03143 0.0108982 0)
(1.03193 0.0105893 0)
(1.03236 0.0103166 0)
(1.03272 0.010076 0)
(1.03301 0.0098619 0)
(1.03326 0.0096701 0)
(1.03345 0.00949792 0)
(1.03361 0.00934339 0)
(1.03373 0.00920503 0)
(1.03382 0.00908182 0)
(1.03388 0.00897318 0)
(1.03391 0.00887886 0)
(1.03391 0.00879884 0)
(1.03388 0.00873326 0)
(1.03383 0.00868233 0)
(1.03375 0.00864636 0)
(1.03364 0.00862576 0)
(1.0335 0.00862113 0)
(1.03334 0.00863323 0)
(1.03315 0.00866317 0)
(1.03293 0.0087123 0)
(1.03268 0.00878251 0)
(1.0324 0.00887591 0)
(1.03209 0.00899544 0)
(1.03175 0.00914418 0)
(1.03137 0.00932649 0)
(1.03096 0.00954668 0)
(1.03051 0.00981109 0)
(1.03002 0.0101257 0)
(1.0295 0.0104994 0)
(1.02894 0.0109408 0)
(1.02835 0.0114623 0)
(1.02772 0.012076 0)
(1.02707 0.0127998 0)
(1.02639 0.0136496 0)
(1.02572 0.0146521 0)
(1.02507 0.015822 0)
(1.0245 0.0171945 0)
(1.02404 0.0187527 0)
(1.02382 0.0205081 0)
(1.00051 0.0076397 0)
(1.00823 0.0156192 0)
(1.01675 0.0154641 0)
(1.02149 0.0138285 0)
(1.02345 0.0133901 0)
(1.02486 0.0131459 0)
(1.02631 0.0125801 0)
(1.02755 0.0119762 0)
(1.02847 0.0115139 0)
(1.02918 0.0111484 0)
(1.02976 0.0108221 0)
(1.03026 0.0105256 0)
(1.03068 0.0102623 0)
(1.03103 0.01003 0)
(1.03132 0.00982326 0)
(1.03155 0.00963808 0)
(1.03175 0.00947186 0)
(1.0319 0.00932279 0)
(1.03201 0.00918949 0)
(1.03209 0.00907106 0)
(1.03214 0.00896699 0)
(1.03217 0.00887713 0)
(1.03216 0.00880153 0)
(1.03213 0.0087404 0)
(1.03207 0.00869402 0)