/*--------------------------------*- C++ -*----------------------------------*\
  =========                 |
  \\      /  F ield         | OpenFOAM: The Open Source CFD Toolbox
   \\    /   O peration     | Website:  https://openfoam.org
    \\  /    A nd           | Version:  7
     \\/     M anipulation  |
\*---------------------------------------------------------------------------*/
FoamFile
{
    version     2.0;
    format      ascii;
    class       volScalarField;
    location    "0.23";
    object      k;
}
// * * * * * * * * * * * * * * * * * * * * * * * * * * * * * * * * * * * * * //

dimensions      [0 2 -2 0 0 0 0];

internalField   nonuniform List<scalar> 
70000
(
1.08549e-05
4.21867e-06
2.82416e-06
2.31651e-06
1.99715e-06
1.75675e-06
1.56475e-06
1.40783e-06
1.27706e-06
1.16632e-06
1.07143e-06
9.89379e-07
9.17884e-07
8.55164e-07
7.99822e-07
7.50705e-07
7.06874e-07
6.6758e-07
6.3217e-07
6.00177e-07
5.71113e-07
5.44687e-07
5.20497e-07
4.9839e-07
4.77992e-07
4.59296e-07
4.41878e-07
4.25923e-07
4.10856e-07
3.97159e-07
3.83948e-07
3.72161e-07
3.60411e-07
3.50263e-07
3.39667e-07
3.30924e-07
3.21262e-07
3.13699e-07
3.04809e-07
2.98239e-07
2.8994e-07
2.84287e-07
2.76292e-07
2.71583e-07
2.63624e-07
2.59597e-07
2.50801e-07
2.52186e-07
2.4544e-07
3.10575e-07
1.72794e-05
1.13671e-05
8.52004e-06
7.0096e-06
6.0362e-06
5.30973e-06
4.73021e-06
4.25629e-06
3.86128e-06
3.52682e-06
3.24024e-06
2.99243e-06
2.77649e-06
2.58703e-06
2.41984e-06
2.27144e-06
2.13898e-06
2.02022e-06
1.91319e-06
1.81647e-06
1.7286e-06
1.6487e-06
1.57555e-06
1.5087e-06
1.447e-06
1.39046e-06
1.33776e-06
1.28952e-06
1.2439e-06
1.2025e-06
1.16248e-06
1.12686e-06
1.09125e-06
1.06059e-06
1.02848e-06
1.00203e-06
9.72782e-07
9.49861e-07
9.22981e-07
9.03048e-07
8.77942e-07
8.60819e-07
8.36573e-07
8.22366e-07
7.98205e-07
7.86059e-07
7.59343e-07
7.61395e-07
7.42585e-07
8.04843e-07
1.937e-05
1.61296e-05
1.32906e-05
1.12886e-05
9.8272e-06
8.69435e-06
7.77651e-06
7.01845e-06
6.38199e-06
5.84033e-06
5.37454e-06
4.97057e-06
4.61765e-06
4.30734e-06
4.03296e-06
3.78895e-06
3.57079e-06
3.37489e-06
3.1981e-06
3.03815e-06
2.8927e-06
2.76029e-06
2.63897e-06
2.52801e-06
2.42551e-06
2.33155e-06
2.24383e-06
2.1636e-06
2.08753e-06
2.01866e-06
1.95179e-06
1.89254e-06
1.83296e-06
1.78188e-06
1.72818e-06
1.68399e-06
1.63517e-06
1.59671e-06
1.55191e-06
1.51839e-06
1.47649e-06
1.44778e-06
1.40713e-06
1.38348e-06
1.34283e-06
1.32274e-06
1.27847e-06
1.27739e-06
1.24975e-06
1.27242e-06
1.9861e-05
1.826e-05
1.60855e-05
1.41997e-05
1.26393e-05
1.13473e-05
1.02592e-05
9.33649e-06
8.54506e-06
7.86127e-06
7.2668e-06
6.74663e-06
6.28876e-06
5.88361e-06
5.5233e-06
5.20117e-06
4.91183e-06
4.65088e-06
4.41461e-06
4.20011e-06
4.00454e-06
3.82599e-06
3.66203e-06
3.51173e-06
3.37256e-06
3.24485e-06
3.12522e-06
3.01589e-06
2.91171e-06
2.8177e-06
2.72581e-06
2.64474e-06
2.56273e-06
2.49259e-06
2.41869e-06
2.35766e-06
2.29061e-06
2.23717e-06
2.17571e-06
2.12899e-06
2.07136e-06
2.03148e-06
1.9752e-06
1.94268e-06
1.88601e-06
1.85906e-06
1.80015e-06
1.79065e-06
1.76203e-06
1.74363e-06
1.99706e-05
1.78459e-05
1.60751e-05
1.47667e-05
1.36029e-05
1.25375e-05
1.15692e-05
1.07009e-05
9.91996e-06
9.22366e-06
8.60376e-06
8.05031e-06
7.55489e-06
7.11024e-06
6.7097e-06
6.34736e-06
6.0187e-06
5.71964e-06
5.44695e-06
5.19766e-06
4.96909e-06
4.75919e-06
4.56549e-06
4.38712e-06
4.22117e-06
4.06846e-06
3.92457e-06
3.79306e-06
3.66686e-06
3.55321e-06
3.44128e-06
3.34276e-06
3.24255e-06
3.15668e-06
3.06638e-06
2.99097e-06
2.90913e-06
2.84253e-06
2.76752e-06
2.70904e-06
2.63842e-06
2.5886e-06
2.51914e-06
2.4788e-06
2.4083e-06
2.37608e-06
2.30761e-06
2.28278e-06
2.25973e-06
2.20426e-06
2.00095e-05
1.47037e-05
1.37488e-05
1.32124e-05
1.25932e-05
1.19289e-05
1.12797e-05
1.06588e-05
1.00822e-05
9.54753e-06
9.04716e-06
8.58002e-06
8.14671e-06
7.74594e-06
7.37484e-06
7.03105e-06
6.7133e-06
6.41933e-06
6.14776e-06
5.89619e-06
5.66297e-06
5.44645e-06
5.24472e-06
5.05743e-06
4.88159e-06
4.71888e-06
4.56409e-06
4.42235e-06
4.28498e-06
4.16128e-06
4.03838e-06
3.92998e-06
3.8194e-06
3.72371e-06
3.6239e-06
3.53873e-06
3.44821e-06
3.37213e-06
3.28898e-06
3.22168e-06
3.143e-06
3.08548e-06
3.00768e-06
2.96085e-06
2.88184e-06
2.84489e-06
2.77336e-06
2.72993e-06
2.70738e-06
2.63561e-06
2.01332e-05
1.54656e-05
9.63469e-06
9.40057e-06
9.49623e-06
9.49606e-06
9.43821e-06
9.30073e-06
9.0603e-06
8.78605e-06
8.49139e-06
8.19341e-06
7.90178e-06
7.61757e-06
7.34085e-06
7.07921e-06
6.83234e-06
6.59678e-06
6.37367e-06
6.16132e-06
5.96015e-06
5.76943e-06
5.58849e-06
5.41804e-06
5.25527e-06
5.10301e-06
4.956e-06
4.82075e-06
4.68783e-06
4.56761e-06
4.44699e-06
4.33958e-06
4.23008e-06
4.13333e-06
4.03396e-06
3.9462e-06
3.85568e-06
3.77606e-06
3.69245e-06
3.62114e-06
3.54157e-06
3.47983e-06
3.40121e-06
3.3495e-06
3.27149e-06
3.2262e-06
3.16222e-06
3.10339e-06
3.08028e-06
3.00234e-06
2.01714e-05
1.86748e-05
8.68597e-06
5.54102e-06
5.63252e-06
5.93841e-06
6.29814e-06
6.58426e-06
6.7653e-06
6.8744e-06
6.89447e-06
6.87508e-06
6.82323e-06
6.73402e-06
6.62382e-06
6.5006e-06
6.3629e-06
6.21966e-06
6.07718e-06
5.93384e-06
5.793e-06
5.65454e-06
5.51954e-06
5.38924e-06
5.26144e-06
5.14191e-06
5.02406e-06
4.91444e-06
4.80426e-06
4.70332e-06
4.60073e-06
4.50741e-06
4.41262e-06
4.32584e-06
4.2387e-06
4.15778e-06
4.07755e-06
4.00245e-06
3.92743e-06
3.85885e-06
3.78703e-06
3.72617e-06
3.65573e-06
3.6021e-06
3.53475e-06
3.48321e-06
3.43208e-06
3.36667e-06
3.34491e-06
3.26989e-06
2.01673e-05
1.97236e-05
1.61634e-05
4.8554e-06
3.04271e-06
3.10734e-06
3.37862e-06
3.80977e-06
4.17724e-06
4.49616e-06
4.7446e-06
4.93462e-06
5.07595e-06
5.17614e-06
5.23496e-06
5.27091e-06
5.27435e-06
5.26546e-06
5.24336e-06
5.20335e-06
5.15548e-06
5.09899e-06
5.03811e-06
4.97271e-06
4.90401e-06
4.83391e-06
4.75946e-06
4.68786e-06
4.61283e-06
4.54234e-06
4.46923e-06
4.40042e-06
4.33073e-06
4.26368e-06
4.19807e-06
4.13312e-06
4.07146e-06
4.00935e-06
3.95156e-06
3.89396e-06
3.83817e-06
3.78526e-06
3.73086e-06
3.68159e-06
3.63117e-06
3.58128e-06
3.54493e-06
3.4842e-06
3.46648e-06
3.40404e-06
2.01477e-05
1.99341e-05
1.90643e-05
1.44914e-05
5.23073e-06
2.15304e-06
1.91511e-06
1.99566e-06
2.21136e-06
2.51135e-06
2.78855e-06
3.04278e-06
3.26878e-06
3.46604e-06
3.63047e-06
3.76891e-06
3.88101e-06
3.96913e-06
4.0409e-06
4.09269e-06
4.13145e-06
4.1547e-06
4.16987e-06
4.17164e-06
4.16822e-06
4.16008e-06
4.14375e-06
4.12471e-06
4.09971e-06
4.07348e-06
4.04328e-06
4.01173e-06
3.97886e-06
3.94331e-06
3.90946e-06
3.87136e-06
3.83749e-06
3.79819e-06
3.76326e-06
3.72367e-06
3.68801e-06
3.64984e-06
3.61438e-06
3.57717e-06
3.5445e-06
3.50571e-06
3.48314e-06
3.43706e-06
3.42551e-06
3.38215e-06
2.01217e-05
1.9966e-05
1.96417e-05
1.85435e-05
1.5202e-05
8.33543e-06
3.0901e-06
1.6312e-06
1.44252e-06
1.45069e-06
1.52934e-06
1.69254e-06
1.87592e-06
2.05357e-06
2.22492e-06
2.38462e-06
2.53287e-06
2.66405e-06
2.78318e-06
2.88668e-06
2.97877e-06
3.05695e-06
3.12511e-06
3.18216e-06
3.22949e-06
3.26973e-06
3.30166e-06
3.32785e-06
3.34737e-06
3.36224e-06
3.3722e-06
3.37827e-06
3.38054e-06
3.37951e-06
3.37687e-06
3.3703e-06
3.36457e-06
3.35282e-06
3.34509e-06
3.33066e-06
3.32034e-06
3.30474e-06
3.29274e-06
3.2764e-06
3.26445e-06
3.24742e-06
3.23955e-06
3.22008e-06
3.21964e-06
3.20708e-06
2.00982e-05
1.99327e-05
1.97569e-05
1.93509e-05
1.85021e-05
1.65264e-05
1.23023e-05
6.82642e-06
2.96418e-06
1.48817e-06
1.24229e-06
1.14813e-06
1.15348e-06
1.19756e-06
1.29209e-06
1.3997e-06
1.51347e-06
1.6238e-06
1.73491e-06
1.84027e-06
1.94102e-06
2.03445e-06
2.1214e-06
2.20136e-06
2.27443e-06
2.34098e-06
2.40138e-06
2.45563e-06
2.50482e-06
2.54805e-06
2.58765e-06
2.62135e-06
2.65287e-06
2.67828e-06
2.70321e-06
2.72167e-06
2.74137e-06
2.75426e-06
2.76933e-06
2.77833e-06
2.78943e-06
2.79573e-06
2.80386e-06
2.80845e-06
2.81495e-06
2.81875e-06
2.82734e-06
2.83088e-06
2.84446e-06
2.85062e-06
2.00782e-05
1.98876e-05
1.97565e-05
1.94594e-05
1.91433e-05
1.86366e-05
1.75456e-05
1.5409e-05
1.17051e-05
7.4002e-06
3.94403e-06
1.8932e-06
1.20409e-06
1.05641e-06
9.8116e-07
9.44345e-07
9.56531e-07
9.92233e-07
1.05535e-06
1.12015e-06
1.19023e-06
1.26092e-06
1.33226e-06
1.40317e-06
1.47239e-06
1.53858e-06
1.60256e-06
1.6625e-06
1.72035e-06
1.77359e-06
1.82527e-06
1.87191e-06
1.91748e-06
1.95793e-06
1.99782e-06
2.03258e-06
2.06742e-06
2.09735e-06
2.12767e-06
2.15356e-06
2.18025e-06
2.20268e-06
2.22692e-06
2.24647e-06
2.27006e-06
2.28694e-06
2.31307e-06
2.32913e-06
2.35743e-06
2.38247e-06
2.00615e-05
1.98539e-05
1.97339e-05
1.94697e-05
1.92526e-05
1.90438e-05
1.87309e-05
1.81832e-05
1.70825e-05
1.52099e-05
1.2525e-05
9.17789e-06
5.91191e-06
3.42956e-06
1.85081e-06
1.15742e-06
9.6282e-07
8.90119e-07
8.35463e-07
7.98003e-07
8.00774e-07
8.15577e-07
8.46938e-07
8.86537e-07
9.27043e-07
9.70391e-07
1.01575e-06
1.06108e-06
1.10786e-06
1.15351e-06
1.19949e-06
1.24333e-06
1.28695e-06
1.32839e-06
1.36921e-06
1.40786e-06
1.44591e-06
1.48176e-06
1.51708e-06
1.55019e-06
1.58331e-06
1.61381e-06
1.64538e-06
1.6739e-06
1.70491e-06
1.73257e-06
1.76395e-06
1.79383e-06
1.82508e-06
1.86373e-06
2.00476e-05
1.98303e-05
1.97073e-05
1.94475e-05
1.92695e-05
1.91118e-05
1.89611e-05
1.87455e-05
1.84557e-05
1.79025e-05
1.70625e-05
1.56722e-05
1.3844e-05
1.14728e-05
8.77922e-06
6.16538e-06
4.00604e-06
2.4491e-06
1.47293e-06
1.0181e-06
8.59471e-07
7.97769e-07
7.49507e-07
7.10678e-07
6.82516e-07
6.82565e-07
6.89065e-07
7.04535e-07
7.2711e-07
7.51751e-07
7.77637e-07
8.0497e-07
8.33745e-07
8.6356e-07
8.93709e-07
9.24781e-07
9.55525e-07
9.86601e-07
1.01704e-06
1.0475e-06
1.07765e-06
1.10738e-06
1.13736e-06
1.16683e-06
1.19693e-06
1.22714e-06
1.25792e-06
1.29073e-06
1.3234e-06
1.36132e-06
2.00363e-05
1.98125e-05
1.96847e-05
1.9417e-05
1.92553e-05
1.91051e-05
1.89962e-05
1.88445e-05
1.87071e-05
1.84944e-05
1.82406e-05
1.78218e-05
1.72151e-05
1.63375e-05
1.51212e-05
1.35735e-05
1.17427e-05
9.63876e-06
7.4843e-06
5.48334e-06
3.81844e-06
2.55678e-06
1.66244e-06
1.12538e-06
8.66332e-07
7.60032e-07
7.09625e-07
6.72561e-07
6.37021e-07
6.09356e-07
5.9063e-07
5.86841e-07
5.89708e-07
5.97234e-07
6.093e-07
6.24354e-07
6.39669e-07
6.56952e-07
6.74345e-07
6.93727e-07
7.13543e-07
7.34683e-07
7.5634e-07
7.79117e-07
8.02383e-07
8.26958e-07
8.52131e-07
8.79415e-07
9.07848e-07
9.39154e-07
2.00272e-05
1.97986e-05
1.96655e-05
1.93948e-05
1.92294e-05
1.90774e-05
1.89778e-05
1.88478e-05
1.87309e-05
1.8591e-05
1.84535e-05
1.82833e-05
1.8072e-05
1.77848e-05
1.73926e-05
1.68437e-05
1.61244e-05
1.51904e-05
1.40294e-05
1.26725e-05
1.11468e-05
9.46479e-06
7.74032e-06
6.09904e-06
4.61761e-06
3.39746e-06
2.4356e-06
1.708e-06
1.20536e-06
9.06833e-07
7.51234e-07
6.76412e-07
6.35127e-07
6.05472e-07
5.77529e-07
5.52108e-07
5.31091e-07
5.17977e-07
5.11206e-07
5.11975e-07
5.15042e-07
5.21574e-07
5.29932e-07
5.40525e-07
5.51917e-07
5.65223e-07
5.79573e-07
5.96463e-07
6.14874e-07
6.36129e-07
2.00201e-05
1.97898e-05
1.96456e-05
1.93783e-05
1.92049e-05
1.9048e-05
1.89391e-05
1.8821e-05
1.87087e-05
1.85842e-05
1.8465e-05
1.83393e-05
1.82139e-05
1.80709e-05
1.79125e-05
1.7712e-05
1.74647e-05
1.71407e-05
1.67291e-05
1.61964e-05
1.55492e-05
1.47516e-05
1.38198e-05
1.27406e-05
1.15728e-05
1.02946e-05
8.94011e-06
7.5757e-06
6.25409e-06
5.04172e-06
3.95165e-06
3.05288e-06
2.31781e-06
1.73047e-06
1.28616e-06
9.77851e-07
7.86091e-07
6.76459e-07
6.15879e-07
5.80076e-07
5.53907e-07
5.32064e-07
5.11293e-07
4.93004e-07
4.78066e-07
4.68672e-07
4.64797e-07
4.66119e-07
4.69946e-07
4.78305e-07
2.00145e-05
1.97897e-05
1.96194e-05
1.93649e-05
1.9184e-05
1.90209e-05
1.89025e-05
1.8784e-05
1.86679e-05
1.85478e-05
1.84341e-05
1.8317e-05
1.82045e-05
1.80856e-05
1.79716e-05
1.7849e-05
1.77245e-05
1.75793e-05
1.74198e-05
1.72204e-05
1.6988e-05
1.66959e-05
1.63477e-05
1.59174e-05
1.54133e-05
1.4818e-05
1.41366e-05
1.33535e-05
1.24994e-05
1.15556e-05
1.05815e-05
9.53257e-06
8.44871e-06
7.36338e-06
6.30767e-06
5.30777e-06
4.39124e-06
3.5667e-06
2.86649e-06
2.27445e-06
1.7806e-06
1.38107e-06
1.07563e-06
8.60822e-07
7.22322e-07
6.40499e-07
5.92384e-07
5.65283e-07
5.43383e-07
5.3183e-07
2.00103e-05
1.97938e-05
1.95925e-05
1.9351e-05
1.91649e-05
1.89949e-05
1.88685e-05
1.87471e-05
1.86273e-05
1.85041e-05
1.83874e-05
1.82697e-05
1.8159e-05
1.80467e-05
1.79389e-05
1.78295e-05
1.77226e-05
1.76119e-05
1.75059e-05
1.73909e-05
1.72743e-05
1.71441e-05
1.70004e-05
1.68341e-05
1.66427e-05
1.64176e-05
1.61567e-05
1.58477e-05
1.54932e-05
1.50832e-05
1.46163e-05
1.40984e-05
1.35127e-05
1.28753e-05
1.21756e-05
1.14371e-05
1.06488e-05
9.84079e-06
8.98461e-06
8.10539e-06
7.21907e-06
6.34308e-06
5.48959e-06
4.67738e-06
3.91279e-06
3.2184e-06
2.60861e-06
2.08407e-06
1.64309e-06
1.31907e-06
2.00071e-05
1.98013e-05
1.95678e-05
1.93375e-05
1.9147e-05
1.89704e-05
1.88359e-05
1.87115e-05
1.85876e-05
1.84615e-05
1.83398e-05
1.82202e-05
1.81054e-05
1.79914e-05
1.78809e-05
1.77723e-05
1.76687e-05
1.75647e-05
1.74656e-05
1.73647e-05
1.72654e-05
1.71677e-05
1.70668e-05
1.69689e-05
1.68631e-05
1.67568e-05
1.66377e-05
1.65095e-05
1.63645e-05
1.62063e-05
1.60184e-05
1.58172e-05
1.55791e-05
1.53191e-05
1.50162e-05
1.46891e-05
1.43135e-05
1.39121e-05
1.34601e-05
1.29749e-05
1.244e-05
1.18743e-05
1.12562e-05
1.0609e-05
9.91748e-06
9.19478e-06
8.3967e-06
7.56366e-06
6.65983e-06
5.75491e-06
2.00047e-05
1.98098e-05
1.95448e-05
1.93242e-05
1.91295e-05
1.89475e-05
1.88045e-05
1.86771e-05
1.85493e-05
1.84205e-05
1.82936e-05
1.81714e-05
1.80525e-05
1.79361e-05
1.78212e-05
1.7711e-05
1.76025e-05
1.74966e-05
1.73951e-05
1.72941e-05
1.71963e-05
1.71056e-05
1.70097e-05
1.69235e-05
1.68306e-05
1.67464e-05
1.66545e-05
1.65668e-05
1.64772e-05
1.6389e-05
1.62893e-05
1.61955e-05
1.60863e-05
1.5976e-05
1.58465e-05
1.57157e-05
1.556e-05
1.54011e-05
1.52117e-05
1.50114e-05
1.4782e-05
1.45416e-05
1.4257e-05
1.39556e-05
1.36144e-05
1.32473e-05
1.28229e-05
1.23558e-05
1.18181e-05
1.12083e-05
2.0003e-05
1.98189e-05
1.95234e-05
1.93105e-05
1.91121e-05
1.89261e-05
1.87742e-05
1.86436e-05
1.85126e-05
1.8381e-05
1.82495e-05
1.81244e-05
1.80014e-05
1.78825e-05
1.77632e-05
1.76508e-05
1.75384e-05
1.74296e-05
1.7325e-05
1.72208e-05
1.71187e-05
1.70253e-05
1.69256e-05
1.68383e-05
1.67436e-05
1.6663e-05
1.65759e-05
1.64937e-05
1.64136e-05
1.63361e-05
1.62521e-05
1.61786e-05
1.60956e-05
1.60196e-05
1.59357e-05
1.58593e-05
1.57737e-05
1.56943e-05
1.56017e-05
1.55079e-05
1.54073e-05
1.53088e-05
1.51854e-05
1.50586e-05
1.49211e-05
1.47721e-05
1.45941e-05
1.43989e-05
1.41777e-05
1.39255e-05
2.00018e-05
1.98274e-05
1.95039e-05
1.92957e-05
1.90944e-05
1.8906e-05
1.87454e-05
1.86112e-05
1.84775e-05
1.83432e-05
1.82077e-05
1.80796e-05
1.7953e-05
1.78314e-05
1.77082e-05
1.75932e-05
1.74774e-05
1.73657e-05
1.72581e-05
1.71507e-05
1.70453e-05
1.69491e-05
1.68461e-05
1.67551e-05
1.66574e-05
1.65728e-05
1.64816e-05
1.63951e-05
1.63136e-05
1.62328e-05
1.61488e-05
1.6077e-05
1.5999e-05
1.59284e-05
1.58518e-05
1.5783e-05
1.57114e-05
1.56455e-05
1.55726e-05
1.54995e-05
1.54287e-05
1.53654e-05
1.5287e-05
1.52112e-05
1.51401e-05
1.50677e-05
1.49781e-05
1.48919e-05
1.47999e-05
1.47142e-05
2.00009e-05
1.98304e-05
1.94879e-05
1.92804e-05
1.90768e-05
1.88876e-05
1.87185e-05
1.85805e-05
1.84446e-05
1.83077e-05
1.81688e-05
1.80376e-05
1.7908e-05
1.77837e-05
1.76571e-05
1.75394e-05
1.74204e-05
1.73061e-05
1.71955e-05
1.70852e-05
1.69769e-05
1.68778e-05
1.67725e-05
1.66778e-05
1.6578e-05
1.64903e-05
1.63956e-05
1.63061e-05
1.62208e-05
1.61366e-05
1.60488e-05
1.59726e-05
1.58895e-05
1.58151e-05
1.57345e-05
1.5662e-05
1.55892e-05
1.55213e-05
1.54493e-05
1.53797e-05
1.53148e-05
1.52576e-05
1.51865e-05
1.51199e-05
1.50601e-05
1.50034e-05
1.49312e-05
1.48696e-05
1.4805e-05
1.47592e-05
2.00003e-05
1.98288e-05
1.94748e-05
1.92643e-05
1.90591e-05
1.88711e-05
1.86939e-05
1.85519e-05
1.8414e-05
1.82748e-05
1.81333e-05
1.79991e-05
1.78668e-05
1.774e-05
1.76105e-05
1.74904e-05
1.73684e-05
1.72521e-05
1.71381e-05
1.70255e-05
1.69144e-05
1.68126e-05
1.67054e-05
1.66073e-05
1.65058e-05
1.64153e-05
1.63179e-05
1.62267e-05
1.61373e-05
1.6051e-05
1.59602e-05
1.58806e-05
1.57939e-05
1.57159e-05
1.56312e-05
1.55547e-05
1.54781e-05
1.54055e-05
1.53286e-05
1.52539e-05
1.51833e-05
1.5121e-05
1.50459e-05
1.49763e-05
1.49122e-05
1.48532e-05
1.47834e-05
1.47247e-05
1.46695e-05
1.4634e-05
2e-05
1.98271e-05
1.94637e-05
1.92467e-05
1.90407e-05
1.8856e-05
1.86717e-05
1.85254e-05
1.83858e-05
1.82449e-05
1.81014e-05
1.79644e-05
1.78299e-05
1.7701e-05
1.75691e-05
1.74469e-05
1.73221e-05
1.72044e-05
1.70871e-05
1.69726e-05
1.68591e-05
1.67547e-05
1.66456e-05
1.65449e-05
1.64418e-05
1.63485e-05
1.62491e-05
1.61566e-05
1.60633e-05
1.59756e-05
1.58826e-05
1.57998e-05
1.57107e-05
1.56297e-05
1.55419e-05
1.54629e-05
1.53824e-05
1.53061e-05
1.52261e-05
1.51479e-05
1.50721e-05
1.50057e-05
1.49261e-05
1.48532e-05
1.47822e-05
1.47187e-05
1.46452e-05
1.45814e-05
1.45184e-05
1.44783e-05
1.99999e-05
1.9826e-05
1.94556e-05
1.92288e-05
1.90223e-05
1.88425e-05
1.86525e-05
1.85017e-05
1.83604e-05
1.82185e-05
1.80736e-05
1.79342e-05
1.77981e-05
1.76673e-05
1.75337e-05
1.74096e-05
1.72825e-05
1.71638e-05
1.70434e-05
1.69273e-05
1.6812e-05
1.67051e-05
1.65944e-05
1.64919e-05
1.6387e-05
1.62912e-05
1.61904e-05
1.60967e-05
1.59998e-05
1.59108e-05
1.58163e-05
1.57305e-05
1.56391e-05
1.5556e-05
1.54654e-05
1.53846e-05
1.53006e-05
1.52213e-05
1.51394e-05
1.50582e-05
1.49787e-05
1.49088e-05
1.48259e-05
1.47512e-05
1.46742e-05
1.46075e-05
1.45316e-05
1.44648e-05
1.43966e-05
1.4354e-05
1.99999e-05
1.98254e-05
1.94506e-05
1.92117e-05
1.90048e-05
1.88312e-05
1.86369e-05
1.84816e-05
1.83384e-05
1.81963e-05
1.80506e-05
1.79093e-05
1.77721e-05
1.76396e-05
1.75051e-05
1.73794e-05
1.72503e-05
1.71312e-05
1.70081e-05
1.68907e-05
1.67741e-05
1.6665e-05
1.65529e-05
1.64493e-05
1.63425e-05
1.62446e-05
1.61429e-05
1.60479e-05
1.59482e-05
1.58579e-05
1.57622e-05
1.56738e-05
1.558e-05
1.54954e-05
1.54022e-05
1.53201e-05
1.52326e-05
1.51511e-05
1.50671e-05
1.49838e-05
1.49013e-05
1.48278e-05
1.47429e-05
1.46665e-05
1.45849e-05
1.45161e-05
1.44385e-05
1.43692e-05
1.42991e-05
1.42545e-05
1.99999e-05
1.98252e-05
1.94484e-05
1.91962e-05
1.89888e-05
1.88219e-05
1.86256e-05
1.84657e-05
1.83205e-05
1.81789e-05
1.80328e-05
1.78903e-05
1.77524e-05
1.76186e-05
1.74839e-05
1.73569e-05
1.72264e-05
1.71072e-05
1.69819e-05
1.68637e-05
1.67463e-05
1.66353e-05
1.65222e-05
1.6418e-05
1.63095e-05
1.62101e-05
1.61078e-05
1.60115e-05
1.59098e-05
1.58184e-05
1.57211e-05
1.5631e-05
1.55348e-05
1.54491e-05
1.53535e-05
1.527e-05
1.51795e-05
1.50964e-05
1.50094e-05
1.49253e-05
1.484e-05
1.47625e-05
1.46768e-05
1.45982e-05
1.45131e-05
1.44432e-05
1.43634e-05
1.42923e-05
1.42223e-05
1.41755e-05
1.99999e-05
1.98255e-05
1.94489e-05
1.91832e-05
1.89748e-05
1.88144e-05
1.86185e-05
1.84543e-05
1.8307e-05
1.81666e-05
1.80205e-05
1.78776e-05
1.77394e-05
1.76049e-05
1.74705e-05
1.73427e-05
1.72115e-05
1.70923e-05
1.69655e-05
1.6847e-05
1.6729e-05
1.66169e-05
1.65032e-05
1.63987e-05
1.62889e-05
1.61887e-05
1.60857e-05
1.59886e-05
1.58855e-05
1.57932e-05
1.56944e-05
1.5603e-05
1.55049e-05
1.54181e-05
1.53206e-05
1.52356e-05
1.51424e-05
1.50583e-05
1.49676e-05
1.48838e-05
1.47955e-05
1.47142e-05
1.4628e-05
1.45469e-05
1.44595e-05
1.43889e-05
1.43063e-05
1.42345e-05
1.41654e-05
1.41157e-05
1.99999e-05
1.98262e-05
1.94519e-05
1.91731e-05
1.8963e-05
1.88085e-05
1.86156e-05
1.84476e-05
1.82981e-05
1.81594e-05
1.80137e-05
1.78714e-05
1.77333e-05
1.75987e-05
1.74651e-05
1.73371e-05
1.7206e-05
1.7087e-05
1.69595e-05
1.68413e-05
1.6723e-05
1.66103e-05
1.64966e-05
1.63919e-05
1.62816e-05
1.61812e-05
1.60774e-05
1.59799e-05
1.58764e-05
1.57833e-05
1.56829e-05
1.55907e-05
1.54914e-05
1.5403e-05
1.53045e-05
1.52179e-05
1.51221e-05
1.50376e-05
1.4943e-05
1.48601e-05
1.47686e-05
1.46841e-05
1.45972e-05
1.45138e-05
1.44253e-05
1.43536e-05
1.42681e-05
1.41969e-05
1.41284e-05
1.40754e-05
1.99999e-05
1.98275e-05
1.94575e-05
1.91667e-05
1.8954e-05
1.88043e-05
1.86168e-05
1.84458e-05
1.82942e-05
1.81574e-05
1.80128e-05
1.78718e-05
1.7734e-05
1.76002e-05
1.74675e-05
1.73399e-05
1.72095e-05
1.70906e-05
1.69632e-05
1.68457e-05
1.67271e-05
1.66145e-05
1.6501e-05
1.63963e-05
1.62862e-05
1.61858e-05
1.60816e-05
1.59841e-05
1.58807e-05
1.5787e-05
1.56855e-05
1.55928e-05
1.5493e-05
1.54034e-05
1.53042e-05
1.52166e-05
1.51186e-05
1.5034e-05
1.4936e-05
1.4854e-05
1.47595e-05
1.46728e-05
1.45848e-05
1.44995e-05
1.44112e-05
1.43373e-05
1.42498e-05
1.41806e-05
1.41116e-05
1.40554e-05
1.99999e-05
1.98293e-05
1.94652e-05
1.91641e-05
1.8948e-05
1.88016e-05
1.86214e-05
1.84485e-05
1.82949e-05
1.816e-05
1.80165e-05
1.78779e-05
1.77403e-05
1.76079e-05
1.74764e-05
1.73499e-05
1.72209e-05
1.71024e-05
1.69758e-05
1.68599e-05
1.67411e-05
1.66292e-05
1.65167e-05
1.64123e-05
1.6303e-05
1.62033e-05
1.60986e-05
1.60017e-05
1.5899e-05
1.58048e-05
1.57021e-05
1.56094e-05
1.55091e-05
1.54184e-05
1.53182e-05
1.52299e-05
1.51298e-05
1.50446e-05
1.49449e-05
1.48626e-05
1.4766e-05
1.46781e-05
1.45887e-05
1.45025e-05
1.44145e-05
1.43388e-05
1.42506e-05
1.41834e-05
1.41139e-05
1.40563e-05
1.99999e-05
1.98316e-05
1.94749e-05
1.91653e-05
1.89451e-05
1.88005e-05
1.8629e-05
1.84562e-05
1.83002e-05
1.81671e-05
1.80251e-05
1.789e-05
1.77528e-05
1.76229e-05
1.74928e-05
1.73682e-05
1.72412e-05
1.71231e-05
1.69983e-05
1.68844e-05
1.67657e-05
1.66552e-05
1.65441e-05
1.64405e-05
1.63327e-05
1.6234e-05
1.61293e-05
1.60338e-05
1.59323e-05
1.58379e-05
1.57347e-05
1.56427e-05
1.55422e-05
1.54512e-05
1.53502e-05
1.52617e-05
1.51597e-05
1.50739e-05
1.49733e-05
1.48902e-05
1.47909e-05
1.47026e-05
1.46108e-05
1.45241e-05
1.44373e-05
1.4358e-05
1.42695e-05
1.42055e-05
1.41341e-05
1.40756e-05
1.99999e-05
1.98345e-05
1.94863e-05
1.91703e-05
1.89456e-05
1.88012e-05
1.86389e-05
1.8468e-05
1.83101e-05
1.81786e-05
1.80382e-05
1.79074e-05
1.77705e-05
1.76436e-05
1.7515e-05
1.7393e-05
1.72683e-05
1.71509e-05
1.70286e-05
1.69168e-05
1.67987e-05
1.66902e-05
1.65806e-05
1.64783e-05
1.63726e-05
1.6275e-05
1.61711e-05
1.60774e-05
1.59772e-05
1.58829e-05
1.57801e-05
1.56889e-05
1.55883e-05
1.54973e-05
1.53964e-05
1.53073e-05
1.5205e-05
1.51179e-05
1.5018e-05
1.4934e-05
1.48325e-05
1.47456e-05
1.46519e-05
1.45651e-05
1.44798e-05
1.4398e-05
1.43109e-05
1.425e-05
1.41773e-05
1.41197e-05
1.99999e-05
1.98378e-05
1.94987e-05
1.91795e-05
1.89496e-05
1.88039e-05
1.86507e-05
1.84836e-05
1.83239e-05
1.81937e-05
1.80549e-05
1.79288e-05
1.77925e-05
1.76692e-05
1.75421e-05
1.74234e-05
1.73009e-05
1.71849e-05
1.70656e-05
1.69559e-05
1.68389e-05
1.67329e-05
1.66248e-05
1.65246e-05
1.64213e-05
1.63249e-05
1.62224e-05
1.6131e-05
1.60321e-05
1.59384e-05
1.58366e-05
1.57465e-05
1.56459e-05
1.55553e-05
1.54549e-05
1.53652e-05
1.5263e-05
1.51754e-05
1.50758e-05
1.49913e-05
1.48878e-05
1.48027e-05
1.47078e-05
1.46211e-05
1.45368e-05
1.44536e-05
1.43693e-05
1.43105e-05
1.42371e-05
1.4182e-05
1.99999e-05
1.98414e-05
1.9512e-05
1.91919e-05
1.89571e-05
1.88091e-05
1.86641e-05
1.85025e-05
1.83416e-05
1.82122e-05
1.80751e-05
1.79539e-05
1.78183e-05
1.76989e-05
1.75732e-05
1.74584e-05
1.73382e-05
1.7224e-05
1.7108e-05
1.70003e-05
1.68851e-05
1.67819e-05
1.66754e-05
1.65777e-05
1.64771e-05
1.63821e-05
1.62818e-05
1.61929e-05
1.60951e-05
1.60026e-05
1.59026e-05
1.58135e-05
1.5713e-05
1.56234e-05
1.55237e-05
1.54339e-05
1.53318e-05
1.52443e-05
1.51453e-05
1.50596e-05
1.49562e-05
1.4872e-05
1.47768e-05
1.46908e-05
1.46066e-05
1.45236e-05
1.44435e-05
1.43854e-05
1.43115e-05
1.42604e-05
1.99999e-05
1.98454e-05
1.95257e-05
1.92073e-05
1.89681e-05
1.88168e-05
1.86785e-05
1.85238e-05
1.83625e-05
1.82337e-05
1.80982e-05
1.79816e-05
1.78471e-05
1.77319e-05
1.76075e-05
1.74971e-05
1.7379e-05
1.72672e-05
1.71545e-05
1.70486e-05
1.69359e-05
1.68358e-05
1.67307e-05
1.6636e-05
1.65383e-05
1.64449e-05
1.63475e-05
1.6261e-05
1.61643e-05
1.60738e-05
1.59761e-05
1.58878e-05
1.57878e-05
1.56997e-05
1.56008e-05
1.5511e-05
1.54096e-05
1.53225e-05
1.5224e-05
1.51371e-05
1.50351e-05
1.49517e-05
1.48563e-05
1.47719e-05
1.46875e-05
1.46055e-05
1.45313e-05
1.44721e-05
1.43986e-05
1.43526e-05
1.99999e-05
1.98496e-05
1.95398e-05
1.92252e-05
1.89823e-05
1.88271e-05
1.8694e-05
1.8547e-05
1.83863e-05
1.82578e-05
1.81237e-05
1.80113e-05
1.78784e-05
1.77675e-05
1.76441e-05
1.75385e-05
1.74221e-05
1.73136e-05
1.7204e-05
1.70996e-05
1.69902e-05
1.6893e-05
1.67894e-05
1.66982e-05
1.66031e-05
1.65118e-05
1.64179e-05
1.63335e-05
1.62381e-05
1.61503e-05
1.60551e-05
1.59675e-05
1.58682e-05
1.5782e-05
1.5684e-05
1.55944e-05
1.54942e-05
1.54078e-05
1.53097e-05
1.5222e-05
1.51221e-05
1.50395e-05
1.49443e-05
1.48617e-05
1.47774e-05
1.4698e-05
1.46291e-05
1.45681e-05
1.44965e-05
1.44568e-05
1.99999e-05
1.9854e-05
1.95539e-05
1.9245e-05
1.89996e-05
1.88403e-05
1.87106e-05
1.85714e-05
1.84125e-05
1.82842e-05
1.81513e-05
1.80424e-05
1.79115e-05
1.78049e-05
1.76825e-05
1.75816e-05
1.74669e-05
1.73622e-05
1.72551e-05
1.71525e-05
1.70468e-05
1.69521e-05
1.68503e-05
1.67627e-05
1.667e-05
1.65815e-05
1.64912e-05
1.64086e-05
1.6315e-05
1.62304e-05
1.61376e-05
1.60506e-05
1.59528e-05
1.58685e-05
1.57713e-05
1.56823e-05
1.55836e-05
1.54981e-05
1.54001e-05
1.53125e-05
1.52151e-05
1.51331e-05
1.50387e-05
1.49578e-05
1.48744e-05
1.4799e-05
1.47339e-05
1.46707e-05
1.46041e-05
1.45701e-05
1.99999e-05
1.98584e-05
1.95681e-05
1.92664e-05
1.90195e-05
1.88562e-05
1.87283e-05
1.85964e-05
1.84405e-05
1.83128e-05
1.81807e-05
1.80745e-05
1.7946e-05
1.78435e-05
1.77221e-05
1.76256e-05
1.75125e-05
1.74121e-05
1.73068e-05
1.72063e-05
1.71045e-05
1.7012e-05
1.69123e-05
1.68283e-05
1.67376e-05
1.66525e-05
1.6566e-05
1.64848e-05
1.63935e-05
1.63125e-05
1.62217e-05
1.61354e-05
1.60398e-05
1.59575e-05
1.58607e-05
1.57728e-05
1.56761e-05
1.55912e-05
1.54934e-05
1.54067e-05
1.53118e-05
1.52304e-05
1.51374e-05
1.50583e-05
1.49768e-05
1.49062e-05
1.48426e-05
1.47784e-05
1.47198e-05
1.46881e-05
1.99999e-05
1.98629e-05
1.95822e-05
1.92888e-05
1.90418e-05
1.88748e-05
1.87473e-05
1.86217e-05
1.84698e-05
1.83429e-05
1.82113e-05
1.81071e-05
1.79815e-05
1.78826e-05
1.77624e-05
1.76698e-05
1.75584e-05
1.74625e-05
1.73585e-05
1.72606e-05
1.71623e-05
1.70715e-05
1.69744e-05
1.68938e-05
1.68051e-05
1.67239e-05
1.66408e-05
1.65608e-05
1.64727e-05
1.63951e-05
1.63058e-05
1.62208e-05
1.61279e-05
1.60472e-05
1.59507e-05
1.58647e-05
1.57697e-05
1.56855e-05
1.55881e-05
1.55031e-05
1.54105e-05
1.53296e-05
1.52383e-05
1.51617e-05
1.50827e-05
1.50172e-05
1.49523e-05
1.48912e-05
1.48404e-05
1.48067e-05
1.99999e-05
1.98673e-05
1.95962e-05
1.93119e-05
1.9066e-05
1.88958e-05
1.87675e-05
1.86471e-05
1.85001e-05
1.83743e-05
1.8243e-05
1.81401e-05
1.80176e-05
1.79216e-05
1.78032e-05
1.77137e-05
1.76042e-05
1.75127e-05
1.74095e-05
1.73146e-05
1.72192e-05
1.71301e-05
1.70359e-05
1.69582e-05
1.68714e-05
1.67944e-05
1.67142e-05
1.66358e-05
1.65516e-05
1.64768e-05
1.63887e-05
1.63056e-05
1.62158e-05
1.61361e-05
1.60401e-05
1.59564e-05
1.58631e-05
1.57795e-05
1.56831e-05
1.56003e-05
1.55093e-05
1.54293e-05
1.534e-05
1.52669e-05
1.51904e-05
1.51295e-05
1.50616e-05
1.5009e-05
1.49609e-05
1.49249e-05
1.99999e-05
1.98718e-05
1.961e-05
1.93352e-05
1.90917e-05
1.89189e-05
1.87891e-05
1.86726e-05
1.85308e-05
1.84066e-05
1.82754e-05
1.81735e-05
1.80538e-05
1.79603e-05
1.78439e-05
1.7757e-05
1.76497e-05
1.75619e-05
1.74595e-05
1.7368e-05
1.72745e-05
1.71871e-05
1.7096e-05
1.70209e-05
1.69361e-05
1.68632e-05
1.67854e-05
1.67093e-05
1.66291e-05
1.65565e-05
1.64696e-05
1.63891e-05
1.63023e-05
1.62231e-05
1.61281e-05
1.6047e-05
1.5955e-05
1.5872e-05
1.57773e-05
1.56969e-05
1.56071e-05
1.55283e-05
1.54416e-05
1.53724e-05
1.52985e-05
1.52403e-05
1.51715e-05
1.51286e-05
1.50788e-05
1.50443e-05
1.99999e-05
1.98761e-05
1.96236e-05
1.93584e-05
1.91186e-05
1.8944e-05
1.8812e-05
1.86983e-05
1.85618e-05
1.84393e-05
1.83085e-05
1.82073e-05
1.809e-05
1.79985e-05
1.78843e-05
1.77996e-05
1.76944e-05
1.76099e-05
1.75085e-05
1.74202e-05
1.73278e-05
1.72422e-05
1.71541e-05
1.70813e-05
1.69987e-05
1.69296e-05
1.68539e-05
1.67807e-05
1.67045e-05
1.66335e-05
1.6548e-05
1.64705e-05
1.63864e-05
1.63076e-05
1.62142e-05
1.61355e-05
1.60444e-05
1.59625e-05
1.58701e-05
1.57919e-05
1.57029e-05
1.56257e-05
1.55423e-05
1.5477e-05
1.54055e-05
1.53485e-05
1.5283e-05
1.52459e-05
1.51953e-05
1.51649e-05
1.99999e-05
1.98804e-05
1.96368e-05
1.93815e-05
1.91464e-05
1.89707e-05
1.88363e-05
1.87244e-05
1.85928e-05
1.84723e-05
1.83421e-05
1.82417e-05
1.81257e-05
1.80361e-05
1.79242e-05
1.78415e-05
1.77383e-05
1.76565e-05
1.75562e-05
1.74709e-05
1.7379e-05
1.72952e-05
1.721e-05
1.71389e-05
1.70587e-05
1.69931e-05
1.69193e-05
1.68496e-05
1.67771e-05
1.67071e-05
1.66236e-05
1.65494e-05
1.64673e-05
1.63889e-05
1.62979e-05
1.62213e-05
1.61308e-05
1.60505e-05
1.59608e-05
1.58843e-05
1.57963e-05
1.57213e-05
1.56417e-05
1.55796e-05
1.55101e-05
1.54543e-05
1.53949e-05
1.53587e-05
1.53127e-05
1.52822e-05
1.99999e-05
1.98846e-05
1.96496e-05
1.94043e-05
1.91746e-05
1.89987e-05
1.88619e-05
1.87509e-05
1.86237e-05
1.85055e-05
1.83762e-05
1.82764e-05
1.81611e-05
1.80733e-05
1.79633e-05
1.78828e-05
1.77813e-05
1.77018e-05
1.76026e-05
1.75199e-05
1.74279e-05
1.73462e-05
1.72632e-05
1.71937e-05
1.7116e-05
1.70535e-05
1.69817e-05
1.69157e-05
1.68463e-05
1.67774e-05
1.66965e-05
1.66254e-05
1.65446e-05
1.64671e-05
1.6379e-05
1.63038e-05
1.62141e-05
1.61359e-05
1.60489e-05
1.59737e-05
1.58871e-05
1.58148e-05
1.57391e-05
1.56794e-05
1.56116e-05
1.55585e-05
1.55047e-05
1.54694e-05
1.54275e-05
1.53982e-05
1.99999e-05
1.98887e-05
1.96621e-05
1.94267e-05
1.92031e-05
1.90276e-05
1.88887e-05
1.87779e-05
1.86544e-05
1.85389e-05
1.84107e-05
1.83115e-05
1.81962e-05
1.81102e-05
1.80016e-05
1.79234e-05
1.78232e-05
1.77458e-05
1.76477e-05
1.75671e-05
1.74748e-05
1.73952e-05
1.73136e-05
1.72455e-05
1.71704e-05
1.71107e-05
1.70409e-05
1.69789e-05
1.69119e-05
1.68441e-05
1.67665e-05
1.6698e-05
1.66183e-05
1.65422e-05
1.64571e-05
1.6383e-05
1.62942e-05
1.62187e-05
1.61341e-05
1.60599e-05
1.59752e-05
1.59063e-05
1.5834e-05
1.5776e-05
1.57103e-05
1.56611e-05
1.56118e-05
1.5578e-05
1.55386e-05
1.55128e-05
1.99999e-05
1.98927e-05
1.96743e-05
1.94486e-05
1.92315e-05
1.90574e-05
1.89168e-05
1.88055e-05
1.86851e-05
1.85724e-05
1.84456e-05
1.83468e-05
1.82311e-05
1.81469e-05