/*--------------------------------*- C++ -*----------------------------------*\
  =========                 |
  \\      /  F ield         | OpenFOAM: The Open Source CFD Toolbox
   \\    /   O peration     | Website:  https://openfoam.org
    \\  /    A nd           | Version:  7
     \\/     M anipulation  |
\*---------------------------------------------------------------------------*/
FoamFile
{
    version     2.0;
    format      ascii;
    class       volScalarField;
    location    "0.23";
    object      k_0;
}
// * * * * * * * * * * * * * * * * * * * * * * * * * * * * * * * * * * * * * //

dimensions      [0 2 -2 0 0 0 0];

internalField   nonuniform List<scalar> 
70000
(
1.08549e-05
4.21867e-06
2.82416e-06
2.31651e-06
1.99715e-06
1.75675e-06
1.56475e-06
1.40783e-06
1.27706e-06
1.16632e-06
1.07143e-06
9.89381e-07
9.17886e-07
8.55166e-07
7.99824e-07
7.50707e-07
7.06876e-07
6.67582e-07
6.32173e-07
6.00179e-07
5.71116e-07
5.4469e-07
5.205e-07
4.98393e-07
4.77995e-07
4.59299e-07
4.41882e-07
4.25927e-07
4.1086e-07
3.97163e-07
3.83954e-07
3.72165e-07
3.60417e-07
3.50269e-07
3.39673e-07
3.30931e-07
3.21269e-07
3.13707e-07
3.04817e-07
2.98249e-07
2.8995e-07
2.84298e-07
2.76305e-07
2.71596e-07
2.63638e-07
2.59614e-07
2.5082e-07
2.52226e-07
2.45468e-07
3.10701e-07
1.72794e-05
1.13671e-05
8.52004e-06
7.0096e-06
6.0362e-06
5.30973e-06
4.73021e-06
4.25629e-06
3.86129e-06
3.52683e-06
3.24024e-06
2.99244e-06
2.77649e-06
2.58704e-06
2.41985e-06
2.27144e-06
2.13899e-06
2.02023e-06
1.9132e-06
1.81648e-06
1.72861e-06
1.6487e-06
1.57556e-06
1.50871e-06
1.44701e-06
1.39047e-06
1.33777e-06
1.28953e-06
1.24391e-06
1.20251e-06
1.16249e-06
1.12688e-06
1.09127e-06
1.0606e-06
1.0285e-06
1.00205e-06
9.72803e-07
9.49886e-07
9.23004e-07
9.03077e-07
8.77972e-07
8.60852e-07
8.3661e-07
8.22405e-07
7.98248e-07
7.86109e-07
7.59402e-07
7.61501e-07
7.42668e-07
8.05007e-07
1.937e-05
1.61296e-05
1.32906e-05
1.12886e-05
9.8272e-06
8.69435e-06
7.77651e-06
7.01846e-06
6.38199e-06
5.84033e-06
5.37454e-06
4.97058e-06
4.61766e-06
4.30735e-06
4.03296e-06
3.78895e-06
3.5708e-06
3.37489e-06
3.19811e-06
3.03816e-06
2.89271e-06
2.7603e-06
2.63899e-06
2.52802e-06
2.42552e-06
2.33156e-06
2.24385e-06
2.16362e-06
2.08755e-06
2.01868e-06
1.95182e-06
1.89256e-06
1.83299e-06
1.78191e-06
1.72821e-06
1.68403e-06
1.6352e-06
1.59675e-06
1.55195e-06
1.51844e-06
1.47654e-06
1.44784e-06
1.40719e-06
1.38355e-06
1.3429e-06
1.32282e-06
1.27855e-06
1.27754e-06
1.24988e-06
1.27257e-06
1.9861e-05
1.826e-05
1.60855e-05
1.41997e-05
1.26393e-05
1.13473e-05
1.02592e-05
9.33649e-06
8.54506e-06
7.86128e-06
7.26681e-06
6.74664e-06
6.28877e-06
5.88362e-06
5.52331e-06
5.20118e-06
4.91184e-06
4.65089e-06
4.41462e-06
4.20012e-06
4.00455e-06
3.826e-06
3.66205e-06
3.51174e-06
3.37258e-06
3.24486e-06
3.12524e-06
3.01591e-06
2.91174e-06
2.81772e-06
2.72585e-06
2.64477e-06
2.56276e-06
2.49263e-06
2.41873e-06
2.35771e-06
2.29065e-06
2.23722e-06
2.17576e-06
2.12905e-06
2.07143e-06
2.03155e-06
1.97529e-06
1.94276e-06
1.8861e-06
1.85917e-06
1.80027e-06
1.79083e-06
1.76217e-06
1.74378e-06
1.99706e-05
1.78459e-05
1.60751e-05
1.47667e-05
1.36029e-05
1.25375e-05
1.15692e-05
1.07009e-05
9.91996e-06
9.22366e-06
8.60376e-06
8.05032e-06
7.5549e-06
7.11024e-06
6.7097e-06
6.34737e-06
6.0187e-06
5.71965e-06
5.44696e-06
5.19767e-06
4.9691e-06
4.7592e-06
4.56551e-06
4.38714e-06
4.22119e-06
4.06848e-06
3.9246e-06
3.79308e-06
3.66689e-06
3.55324e-06
3.44132e-06
3.34279e-06
3.24259e-06
3.15672e-06
3.06642e-06
2.99102e-06
2.90918e-06
2.8426e-06
2.76758e-06
2.7091e-06
2.63851e-06
2.58867e-06
2.51924e-06
2.47889e-06
2.4084e-06
2.3762e-06
2.30773e-06
2.283e-06
2.25988e-06
2.20437e-06
2.00095e-05
1.47037e-05
1.37488e-05
1.32124e-05
1.25932e-05
1.19289e-05
1.12797e-05
1.06588e-05
1.00822e-05
9.54753e-06
9.04715e-06
8.58002e-06
8.14671e-06
7.74594e-06
7.37484e-06
7.03105e-06
6.7133e-06
6.41933e-06
6.14776e-06
5.89619e-06
5.66297e-06
5.44646e-06
5.24473e-06
5.05744e-06
4.88161e-06
4.71889e-06
4.56411e-06
4.42236e-06
4.28501e-06
4.1613e-06
4.03841e-06
3.93001e-06
3.81943e-06
3.72375e-06
3.62393e-06
3.53878e-06
3.44825e-06
3.37219e-06
3.28904e-06
3.22173e-06
3.14309e-06
3.08553e-06
3.00779e-06
2.96094e-06
2.88194e-06
2.84502e-06
2.77346e-06
2.73015e-06
2.70752e-06
2.6357e-06
2.01332e-05
1.54656e-05
9.63469e-06
9.40057e-06
9.49623e-06
9.49606e-06
9.43821e-06
9.30072e-06
9.0603e-06
8.78605e-06
8.49138e-06
8.19341e-06
7.90177e-06
7.61757e-06
7.34084e-06
7.0792e-06
6.83233e-06
6.59677e-06
6.37366e-06
6.16131e-06
5.96015e-06
5.76942e-06
5.58849e-06
5.41803e-06
5.25527e-06
5.103e-06
4.95602e-06
4.82076e-06
4.68784e-06
4.56762e-06
4.447e-06
4.33961e-06
4.2301e-06
4.13336e-06
4.03398e-06
3.94623e-06
3.85571e-06
3.7761e-06
3.6925e-06
3.62117e-06
3.54166e-06
3.47986e-06
3.4013e-06
3.34956e-06
3.27157e-06
3.22631e-06
3.16229e-06
3.10356e-06
3.0804e-06
3.0024e-06
2.01714e-05
1.86748e-05
8.68596e-06
5.54102e-06
5.63252e-06
5.93841e-06
6.29814e-06
6.58426e-06
6.76529e-06
6.87439e-06
6.89446e-06
6.87507e-06
6.82321e-06
6.734e-06
6.6238e-06
6.50058e-06
6.36288e-06
6.21964e-06
6.07716e-06
5.93381e-06
5.79298e-06
5.65451e-06
5.51953e-06
5.38922e-06
5.26143e-06
5.14189e-06
5.02406e-06
4.91443e-06
4.80426e-06
4.70332e-06
4.60072e-06
4.50742e-06
4.41261e-06
4.32585e-06
4.2387e-06
4.15779e-06
4.07757e-06
4.00245e-06
3.92746e-06
3.85884e-06
3.78709e-06
3.72617e-06
3.65579e-06
3.60213e-06
3.53479e-06
3.48327e-06
3.43211e-06
3.36677e-06
3.34496e-06
3.26991e-06
2.01673e-05
1.97236e-05
1.61634e-05
4.85539e-06
3.04271e-06
3.10734e-06
3.37862e-06
3.80977e-06
4.17723e-06
4.49615e-06
4.74459e-06
4.93461e-06
5.07593e-06
5.17612e-06
5.23494e-06
5.27088e-06
5.27431e-06
5.26543e-06
5.24333e-06
5.20331e-06
5.15544e-06
5.09895e-06
5.03807e-06
4.97267e-06
4.90398e-06
4.83387e-06
4.75943e-06
4.68782e-06
4.6128e-06
4.54232e-06
4.4692e-06
4.4004e-06
4.3307e-06
4.26367e-06
4.19805e-06
4.1331e-06
4.07145e-06
4.00932e-06
3.95156e-06
3.89391e-06
3.83819e-06
3.78522e-06
3.73087e-06
3.68156e-06
3.63115e-06
3.58128e-06
3.54491e-06
3.48421e-06
3.46646e-06
3.40398e-06
2.01477e-05
1.99341e-05
1.90643e-05
1.44914e-05
5.23072e-06
2.15304e-06
1.91511e-06
1.99566e-06
2.21136e-06
2.51134e-06
2.78854e-06
3.04277e-06
3.26876e-06
3.46602e-06
3.63044e-06
3.76888e-06
3.88097e-06
3.96909e-06
4.04086e-06
4.09264e-06
4.13141e-06
4.15465e-06
4.16982e-06
4.17159e-06
4.16817e-06
4.16002e-06
4.1437e-06
4.12466e-06
4.09966e-06
4.07343e-06
4.04322e-06
4.01168e-06
3.9788e-06
3.94326e-06
3.90941e-06
3.8713e-06
3.83744e-06
3.79812e-06
3.76322e-06
3.72358e-06
3.68797e-06
3.64975e-06
3.61432e-06
3.57709e-06
3.54442e-06
3.50563e-06
3.48305e-06
3.43698e-06
3.4254e-06
3.38202e-06
2.01217e-05
1.9966e-05
1.96417e-05
1.85435e-05
1.5202e-05
8.33542e-06
3.09009e-06
1.6312e-06
1.44252e-06
1.45069e-06
1.52934e-06
1.69253e-06
1.87591e-06
2.05356e-06
2.22491e-06
2.38459e-06
2.53284e-06
2.66402e-06
2.78314e-06
2.88664e-06
2.97873e-06
3.0569e-06
3.12506e-06
3.1821e-06
3.22943e-06
3.26966e-06
3.3016e-06
3.32779e-06
3.3473e-06
3.36218e-06
3.37213e-06
3.3782e-06
3.38047e-06
3.37943e-06
3.37679e-06
3.37022e-06
3.36449e-06
3.35272e-06
3.34501e-06
3.33053e-06
3.32024e-06
3.30461e-06
3.29262e-06
3.27626e-06
3.26429e-06
3.24725e-06
3.23937e-06
3.21989e-06
3.21943e-06
3.20683e-06
2.00982e-05
1.99327e-05
1.97569e-05
1.93509e-05
1.85021e-05
1.65264e-05
1.23023e-05
6.82643e-06
2.96418e-06
1.48817e-06
1.24229e-06
1.14812e-06
1.15348e-06
1.19756e-06
1.29208e-06
1.39968e-06
1.51346e-06
1.62378e-06
1.73488e-06
1.84024e-06
1.94099e-06
2.03441e-06
2.12136e-06
2.20131e-06
2.27438e-06
2.34092e-06
2.40132e-06
2.45556e-06
2.50475e-06
2.54798e-06
2.58758e-06
2.62127e-06
2.65279e-06
2.67819e-06
2.70312e-06
2.72157e-06
2.74127e-06
2.75414e-06
2.76921e-06
2.7782e-06
2.78929e-06
2.79557e-06
2.8037e-06
2.80827e-06
2.81475e-06
2.81854e-06
2.8271e-06
2.83063e-06
2.84417e-06
2.85032e-06
2.00782e-05
1.98876e-05
1.97565e-05
1.94594e-05
1.91433e-05
1.86366e-05
1.75456e-05
1.5409e-05
1.17051e-05
7.40023e-06
3.94406e-06
1.89322e-06
1.20409e-06
1.05641e-06
9.81162e-07
9.44341e-07
9.56524e-07
9.92221e-07
1.05534e-06
1.12013e-06
1.19021e-06
1.26089e-06
1.33223e-06
1.40314e-06
1.47234e-06
1.53853e-06
1.60251e-06
1.66244e-06
1.72029e-06
1.77353e-06
1.8252e-06
1.87184e-06
1.9174e-06
1.95784e-06
1.99772e-06
2.03249e-06
2.06732e-06
2.09724e-06
2.12755e-06
2.15342e-06
2.1801e-06
2.20252e-06
2.22673e-06
2.24628e-06
2.26984e-06
2.28671e-06
2.3128e-06
2.32885e-06
2.35711e-06
2.38211e-06
2.00615e-05
1.98539e-05
1.97339e-05
1.94697e-05
1.92526e-05
1.90438e-05
1.87309e-05
1.81832e-05
1.70825e-05
1.52099e-05
1.2525e-05
9.17796e-06
5.91199e-06
3.42964e-06
1.85086e-06
1.15744e-06
9.62824e-07
8.9012e-07
8.35466e-07
7.97998e-07
8.00766e-07
8.15565e-07
8.4692e-07
8.86515e-07
9.27017e-07
9.70361e-07
1.01571e-06
1.06104e-06
1.10781e-06
1.15347e-06
1.19944e-06
1.24327e-06
1.28688e-06
1.32832e-06
1.36913e-06
1.40778e-06
1.44581e-06
1.48166e-06
1.51696e-06
1.55007e-06
1.58316e-06
1.61366e-06
1.64521e-06
1.67371e-06
1.7047e-06
1.73234e-06
1.76369e-06
1.79355e-06
1.82475e-06
1.8634e-06
2.00476e-05
1.98303e-05
1.97073e-05
1.94475e-05
1.92695e-05
1.91118e-05
1.89611e-05
1.87455e-05
1.84557e-05
1.79025e-05
1.70626e-05
1.56722e-05
1.38441e-05
1.14729e-05
8.77935e-06
6.16554e-06
4.00618e-06
2.44922e-06
1.47301e-06
1.01813e-06
8.5948e-07
7.97773e-07
7.49512e-07
7.1068e-07
6.82512e-07
6.82554e-07
6.89048e-07
7.04513e-07
7.27085e-07
7.51722e-07
7.77605e-07
8.04932e-07
8.33703e-07
8.63514e-07
8.93652e-07
9.24723e-07
9.55454e-07
9.86527e-07
1.01694e-06
1.04741e-06
1.07754e-06
1.10726e-06
1.13722e-06
1.16667e-06
1.19676e-06
1.22694e-06
1.2577e-06
1.29049e-06
1.32309e-06
1.36103e-06
2.00363e-05
1.98125e-05
1.96847e-05
1.9417e-05
1.92553e-05
1.91051e-05
1.89962e-05
1.88445e-05
1.87071e-05
1.84944e-05
1.82406e-05
1.78218e-05
1.72151e-05
1.63375e-05
1.51212e-05
1.35736e-05
1.17428e-05
9.63897e-06
7.48454e-06
5.48361e-06
3.81869e-06
2.55699e-06
1.66261e-06
1.12548e-06
8.66378e-07
7.60049e-07
7.09632e-07
6.72568e-07
6.37029e-07
6.09357e-07
5.90627e-07
5.86825e-07
5.89689e-07
5.97211e-07
6.09267e-07
6.24322e-07
6.39627e-07
6.56907e-07
6.74286e-07
6.93667e-07
7.13464e-07
7.34598e-07
7.56238e-07
7.79002e-07
8.02251e-07
8.26808e-07
8.51961e-07
8.7923e-07
9.07609e-07
9.38906e-07
2.00272e-05
1.97986e-05
1.96655e-05
1.93948e-05
1.92294e-05
1.90774e-05
1.89778e-05
1.88478e-05
1.87309e-05
1.8591e-05
1.84535e-05
1.82833e-05
1.80721e-05
1.77848e-05
1.73926e-05
1.68438e-05
1.61244e-05
1.51905e-05
1.40295e-05
1.26727e-05
1.11471e-05
9.46514e-06
7.74073e-06
6.09948e-06
4.61807e-06
3.39787e-06
2.43596e-06
1.7083e-06
1.20557e-06
9.06951e-07
7.51293e-07
6.76438e-07
6.35142e-07
6.05484e-07
5.77541e-07
5.52121e-07
5.31092e-07
5.17974e-07
5.11182e-07
5.11946e-07
5.15005e-07
5.21527e-07
5.29872e-07
5.40458e-07
5.51835e-07
5.65128e-07
5.79462e-07
5.96339e-07
6.14713e-07
6.3594e-07
2.00201e-05
1.97898e-05
1.96456e-05
1.93783e-05
1.92049e-05
1.9048e-05
1.89391e-05
1.8821e-05
1.87087e-05
1.85842e-05
1.8465e-05
1.83393e-05
1.82139e-05
1.80709e-05
1.79125e-05
1.7712e-05
1.74647e-05
1.71408e-05
1.67291e-05
1.61964e-05
1.55493e-05
1.47518e-05
1.382e-05
1.27409e-05
1.15731e-05
1.02951e-05
8.9407e-06
7.57637e-06
6.2548e-06
5.04243e-06
3.95233e-06
3.0535e-06
2.31837e-06
1.73096e-06
1.28655e-06
9.78125e-07
7.86263e-07
6.76554e-07
6.15927e-07
5.80102e-07
5.53929e-07
5.32081e-07
5.11306e-07
4.93017e-07
4.78054e-07
4.68653e-07
4.64741e-07
4.66054e-07
4.69865e-07
4.78187e-07
2.00145e-05
1.97897e-05
1.96194e-05
1.93649e-05
1.9184e-05
1.90209e-05
1.89025e-05
1.8784e-05
1.8668e-05
1.85478e-05
1.84341e-05
1.8317e-05
1.82045e-05
1.80856e-05
1.79716e-05
1.7849e-05
1.77245e-05
1.75793e-05
1.74199e-05
1.72204e-05
1.6988e-05
1.6696e-05
1.63478e-05
1.59176e-05
1.54135e-05
1.48183e-05
1.41369e-05
1.33539e-05
1.24999e-05
1.15562e-05
1.05822e-05
9.53337e-06
8.44961e-06
7.36438e-06
6.30876e-06
5.3089e-06
4.39242e-06
3.56783e-06
2.86757e-06
2.27547e-06
1.78153e-06
1.38188e-06
1.07628e-06
8.61276e-07
7.22608e-07
6.4066e-07
5.92466e-07
5.6533e-07
5.43418e-07
5.31834e-07
2.00103e-05
1.97937e-05
1.95925e-05
1.9351e-05
1.91649e-05
1.89949e-05
1.88685e-05
1.87471e-05
1.86273e-05
1.85041e-05
1.83874e-05
1.82697e-05
1.8159e-05
1.80467e-05
1.79389e-05
1.78295e-05
1.77226e-05
1.76119e-05
1.75059e-05
1.73909e-05
1.72744e-05
1.71442e-05
1.70005e-05
1.68342e-05
1.66428e-05
1.64177e-05
1.61569e-05
1.58479e-05
1.54935e-05
1.50834e-05
1.46166e-05
1.40988e-05
1.35132e-05
1.28759e-05
1.21763e-05
1.1438e-05
1.06498e-05
9.84198e-06
8.98599e-06
8.107e-06
7.22091e-06
6.34509e-06
5.49178e-06
4.67966e-06
3.91518e-06
3.22064e-06
2.61066e-06
2.08589e-06
1.64458e-06
1.32022e-06
2.00071e-05
1.98013e-05
1.95678e-05
1.93375e-05
1.91469e-05
1.89704e-05
1.88359e-05
1.87115e-05
1.85876e-05
1.84615e-05
1.83398e-05
1.82202e-05
1.81055e-05
1.79914e-05
1.78809e-05
1.77723e-05
1.76687e-05
1.75647e-05
1.74656e-05
1.73647e-05
1.72654e-05
1.71677e-05
1.70669e-05
1.69689e-05
1.68632e-05
1.67569e-05
1.66378e-05
1.65096e-05
1.63647e-05
1.62063e-05
1.60185e-05
1.58174e-05
1.55793e-05
1.53193e-05
1.50165e-05
1.46895e-05
1.4314e-05
1.39127e-05
1.34607e-05
1.29758e-05
1.24411e-05
1.18756e-05
1.12577e-05
1.06109e-05
9.91963e-06
9.19735e-06
8.39964e-06
7.56702e-06
6.66351e-06
5.75862e-06
2.00047e-05
1.98098e-05
1.95448e-05
1.93242e-05
1.91295e-05
1.89475e-05
1.88045e-05
1.86771e-05
1.85494e-05
1.84205e-05
1.82936e-05
1.81715e-05
1.80525e-05
1.79361e-05
1.78212e-05
1.77111e-05
1.76025e-05
1.74966e-05
1.73952e-05
1.7294e-05
1.71964e-05
1.71056e-05
1.70098e-05
1.69235e-05
1.68306e-05
1.67465e-05
1.66545e-05
1.65669e-05
1.64773e-05
1.6389e-05
1.62893e-05
1.61956e-05
1.60864e-05
1.5976e-05
1.58466e-05
1.57158e-05
1.55602e-05
1.54013e-05
1.52119e-05
1.50116e-05
1.47826e-05
1.45421e-05
1.42575e-05
1.39565e-05
1.36155e-05
1.32486e-05
1.28243e-05
1.23577e-05
1.18206e-05
1.1211e-05
2.0003e-05
1.98188e-05
1.95234e-05
1.93105e-05
1.91121e-05
1.89261e-05
1.87742e-05
1.86436e-05
1.85126e-05
1.8381e-05
1.82494e-05
1.81245e-05
1.80014e-05
1.78825e-05
1.77632e-05
1.76508e-05
1.75384e-05
1.74297e-05
1.7325e-05
1.72208e-05
1.71188e-05
1.70254e-05
1.69257e-05
1.68383e-05
1.67437e-05
1.66632e-05
1.65759e-05
1.64938e-05
1.64137e-05
1.6336e-05
1.62522e-05
1.61787e-05
1.60956e-05
1.60196e-05
1.59357e-05
1.58593e-05
1.57738e-05
1.56944e-05
1.56017e-05
1.5508e-05
1.54077e-05
1.5309e-05
1.51853e-05
1.5059e-05
1.49217e-05
1.47725e-05
1.45944e-05
1.43997e-05
1.41791e-05
1.39267e-05
2.00018e-05
1.98274e-05
1.95039e-05
1.92957e-05
1.90944e-05
1.8906e-05
1.87453e-05
1.86112e-05
1.84775e-05
1.83432e-05
1.82077e-05
1.80797e-05
1.79531e-05
1.78314e-05
1.77082e-05
1.75933e-05
1.74774e-05
1.73657e-05
1.72581e-05
1.71507e-05
1.70454e-05
1.69491e-05
1.68461e-05
1.67552e-05
1.66575e-05
1.6573e-05
1.64816e-05
1.63952e-05
1.63138e-05
1.62327e-05
1.61489e-05
1.60771e-05
1.59991e-05
1.59284e-05
1.58518e-05
1.57831e-05
1.57115e-05
1.56455e-05
1.55725e-05
1.54995e-05
1.54291e-05
1.53656e-05
1.52868e-05
1.52114e-05
1.51406e-05
1.50678e-05
1.49781e-05
1.48922e-05
1.48008e-05
1.47149e-05
2.00009e-05
1.98304e-05
1.94879e-05
1.92804e-05
1.90767e-05
1.88876e-05
1.87185e-05
1.85805e-05
1.84446e-05
1.83077e-05
1.81688e-05
1.80377e-05
1.7908e-05
1.77836e-05
1.76571e-05
1.75395e-05
1.74204e-05
1.73062e-05
1.71955e-05
1.70852e-05
1.6977e-05
1.68779e-05
1.67725e-05
1.66779e-05
1.65781e-05
1.64905e-05
1.63956e-05
1.63062e-05
1.62209e-05
1.61366e-05
1.60489e-05
1.59727e-05
1.58896e-05
1.58151e-05
1.57345e-05
1.56621e-05
1.55894e-05
1.55214e-05
1.54492e-05
1.53797e-05
1.53152e-05
1.52577e-05
1.51863e-05
1.51201e-05
1.50606e-05
1.50035e-05
1.49311e-05
1.48698e-05
1.48058e-05
1.476e-05
2.00003e-05
1.98288e-05
1.94748e-05
1.92643e-05
1.9059e-05
1.88711e-05
1.86939e-05
1.85519e-05
1.84141e-05
1.82748e-05
1.81333e-05
1.79991e-05
1.78668e-05
1.774e-05
1.76105e-05
1.74904e-05
1.73684e-05
1.72521e-05
1.71382e-05
1.70255e-05
1.69145e-05
1.68127e-05
1.67054e-05
1.66074e-05
1.6506e-05
1.64154e-05
1.63179e-05
1.62268e-05
1.61374e-05
1.60511e-05
1.59603e-05
1.58807e-05
1.5794e-05
1.57159e-05
1.56311e-05
1.55549e-05
1.54782e-05
1.54056e-05
1.53285e-05
1.5254e-05
1.51836e-05
1.51211e-05
1.50458e-05
1.49765e-05
1.49126e-05
1.48534e-05
1.47834e-05
1.47249e-05
1.46701e-05
1.46348e-05
2e-05
1.98271e-05
1.94637e-05
1.92467e-05
1.90406e-05
1.8856e-05
1.86717e-05
1.85254e-05
1.83859e-05
1.82449e-05
1.81014e-05
1.79644e-05
1.783e-05
1.7701e-05
1.75691e-05
1.74469e-05
1.73222e-05
1.72044e-05
1.70871e-05
1.69726e-05
1.68592e-05
1.67548e-05
1.66457e-05
1.6545e-05
1.6442e-05
1.63487e-05
1.62491e-05
1.61568e-05
1.60634e-05
1.59757e-05
1.58827e-05
1.57999e-05
1.57107e-05
1.56298e-05
1.55419e-05
1.5463e-05
1.53825e-05
1.53062e-05
1.5226e-05
1.5148e-05
1.50725e-05
1.50059e-05
1.4926e-05
1.48534e-05
1.47827e-05
1.4719e-05
1.46453e-05
1.45817e-05
1.45191e-05
1.44792e-05
1.99999e-05
1.9826e-05
1.94556e-05
1.92288e-05
1.90223e-05
1.88425e-05
1.86524e-05
1.85017e-05
1.83604e-05
1.82185e-05
1.80736e-05
1.79342e-05
1.77982e-05
1.76673e-05
1.75337e-05
1.74096e-05
1.72825e-05
1.71639e-05
1.70434e-05
1.69273e-05
1.68121e-05
1.67052e-05
1.65945e-05
1.64921e-05
1.63872e-05
1.62913e-05
1.61905e-05
1.60968e-05
1.59999e-05
1.59109e-05
1.58164e-05
1.57306e-05
1.56392e-05
1.5556e-05
1.54654e-05
1.53848e-05
1.53007e-05
1.52215e-05
1.51394e-05
1.50583e-05
1.4979e-05
1.49091e-05
1.48259e-05
1.47514e-05
1.46746e-05
1.46079e-05
1.45318e-05
1.4465e-05
1.43973e-05
1.4355e-05
1.99999e-05
1.98254e-05
1.94506e-05
1.92117e-05
1.90048e-05
1.88312e-05
1.86369e-05
1.84817e-05
1.83384e-05
1.81963e-05
1.80506e-05
1.79093e-05
1.77721e-05
1.76396e-05
1.75051e-05
1.73794e-05
1.72504e-05
1.71313e-05
1.70081e-05
1.68907e-05
1.67743e-05
1.66651e-05
1.65531e-05
1.64495e-05
1.63427e-05
1.62448e-05
1.61431e-05
1.60481e-05
1.59484e-05
1.58581e-05
1.57623e-05
1.56739e-05
1.55802e-05
1.54955e-05
1.54023e-05
1.53202e-05
1.52327e-05
1.51513e-05
1.50671e-05
1.49839e-05
1.49017e-05
1.4828e-05
1.47431e-05
1.46668e-05
1.45853e-05
1.45166e-05
1.44388e-05
1.43694e-05
1.42999e-05
1.42555e-05
1.99999e-05
1.98252e-05
1.94484e-05
1.91962e-05
1.89888e-05
1.88219e-05
1.86256e-05
1.84658e-05
1.83205e-05
1.81789e-05
1.80327e-05
1.78903e-05
1.77525e-05
1.76187e-05
1.74839e-05
1.73569e-05
1.72265e-05
1.71073e-05
1.69819e-05
1.68637e-05
1.67464e-05
1.66354e-05
1.65224e-05
1.64182e-05
1.63097e-05
1.62104e-05
1.6108e-05
1.60117e-05
1.591e-05
1.58186e-05
1.57213e-05
1.56311e-05
1.5535e-05
1.54492e-05
1.53536e-05
1.52702e-05
1.51796e-05
1.50966e-05
1.50096e-05
1.49254e-05
1.48403e-05
1.47628e-05
1.4677e-05
1.45985e-05
1.45135e-05
1.44438e-05
1.43637e-05
1.42927e-05
1.42232e-05
1.41764e-05
1.99999e-05
1.98255e-05
1.94489e-05
1.91832e-05
1.89748e-05
1.88144e-05
1.86185e-05
1.84543e-05
1.8307e-05
1.81666e-05
1.80204e-05
1.78776e-05
1.77395e-05
1.76049e-05
1.74705e-05
1.73427e-05
1.72116e-05
1.70924e-05
1.69655e-05
1.68471e-05
1.67292e-05
1.6617e-05
1.65034e-05
1.63989e-05
1.62891e-05
1.6189e-05
1.60859e-05
1.59887e-05
1.58857e-05
1.57934e-05
1.56945e-05
1.56031e-05
1.55051e-05
1.54182e-05
1.53207e-05
1.52358e-05
1.51425e-05
1.50585e-05
1.49678e-05
1.4884e-05
1.47957e-05
1.47145e-05
1.46283e-05
1.45472e-05
1.44601e-05
1.43895e-05
1.43066e-05
1.4235e-05
1.41663e-05
1.41165e-05
1.99999e-05
1.98262e-05
1.94519e-05
1.91731e-05
1.8963e-05
1.88085e-05
1.86156e-05
1.84476e-05
1.82981e-05
1.81595e-05
1.80137e-05
1.78714e-05
1.77333e-05
1.75987e-05
1.74651e-05
1.73371e-05
1.72062e-05
1.70871e-05
1.69595e-05
1.68415e-05
1.67231e-05
1.66104e-05
1.64968e-05
1.63921e-05
1.62819e-05
1.61815e-05
1.60777e-05
1.59802e-05
1.58767e-05
1.57836e-05
1.56831e-05
1.55908e-05
1.54916e-05
1.54031e-05
1.53046e-05
1.5218e-05
1.51223e-05
1.50378e-05
1.49432e-05
1.48604e-05
1.47688e-05
1.46845e-05
1.45976e-05
1.45141e-05
1.44259e-05
1.43542e-05
1.42685e-05
1.41976e-05
1.41293e-05
1.4076e-05
1.99999e-05
1.98275e-05
1.94575e-05
1.91667e-05
1.8954e-05
1.88043e-05
1.86167e-05
1.84458e-05
1.82942e-05
1.81574e-05
1.80127e-05
1.78719e-05
1.77341e-05
1.76003e-05
1.74675e-05
1.734e-05
1.72096e-05
1.70907e-05
1.69632e-05
1.68458e-05
1.67272e-05
1.66146e-05
1.65013e-05
1.63966e-05
1.62864e-05
1.61862e-05
1.60819e-05
1.59844e-05
1.58809e-05
1.57873e-05
1.56857e-05
1.5593e-05
1.54932e-05
1.54036e-05
1.53044e-05
1.52168e-05
1.51188e-05
1.50342e-05
1.49363e-05
1.48544e-05
1.47597e-05
1.46732e-05
1.45853e-05
1.44999e-05
1.44119e-05
1.43379e-05
1.42502e-05
1.41814e-05
1.41125e-05
1.40561e-05
1.99999e-05
1.98293e-05
1.94652e-05
1.9164e-05
1.8948e-05
1.88016e-05
1.86214e-05
1.84485e-05
1.82949e-05
1.81601e-05
1.80165e-05
1.78779e-05
1.77403e-05
1.7608e-05
1.74765e-05
1.735e-05
1.72211e-05
1.71025e-05
1.69759e-05
1.686e-05
1.67412e-05
1.66294e-05
1.6517e-05
1.64126e-05
1.63033e-05
1.62036e-05
1.60989e-05
1.6002e-05
1.58994e-05
1.58051e-05
1.57023e-05
1.56097e-05
1.55093e-05
1.54186e-05
1.53184e-05
1.52301e-05
1.513e-05
1.50449e-05
1.49453e-05
1.4863e-05
1.47662e-05
1.46785e-05
1.45891e-05
1.4503e-05
1.44153e-05
1.43394e-05
1.42511e-05
1.41843e-05
1.41147e-05
1.40571e-05
1.99999e-05
1.98316e-05
1.94749e-05
1.91652e-05
1.89451e-05
1.88005e-05
1.8629e-05
1.84562e-05
1.83002e-05
1.81671e-05
1.8025e-05
1.78901e-05
1.77528e-05
1.76229e-05
1.74929e-05
1.73683e-05
1.72413e-05
1.71232e-05
1.69984e-05
1.68845e-05
1.67658e-05
1.66555e-05
1.65444e-05
1.64408e-05
1.63331e-05
1.62343e-05
1.61297e-05
1.60342e-05
1.59327e-05
1.58382e-05
1.5735e-05
1.5643e-05
1.55425e-05
1.54514e-05
1.53504e-05
1.52619e-05
1.516e-05
1.50742e-05
1.49736e-05
1.48906e-05
1.47912e-05
1.47031e-05
1.46114e-05
1.45247e-05
1.4438e-05
1.43585e-05
1.42702e-05
1.42065e-05
1.41349e-05
1.40765e-05
1.99999e-05
1.98345e-05
1.94863e-05
1.91703e-05
1.89456e-05
1.88012e-05
1.86389e-05
1.8468e-05
1.83101e-05
1.81786e-05
1.80381e-05
1.79074e-05
1.77705e-05
1.76437e-05
1.75151e-05
1.73931e-05
1.72684e-05
1.7151e-05
1.70287e-05
1.6917e-05
1.67988e-05
1.66905e-05
1.65809e-05
1.64787e-05
1.6373e-05
1.62753e-05
1.61715e-05
1.60779e-05
1.59776e-05
1.58832e-05
1.57804e-05
1.56892e-05
1.55886e-05
1.54976e-05
1.53967e-05
1.53075e-05
1.52053e-05
1.51183e-05
1.50185e-05
1.49344e-05
1.48328e-05
1.47462e-05
1.46525e-05
1.45658e-05
1.44806e-05
1.43985e-05
1.43119e-05
1.42511e-05
1.41781e-05
1.41208e-05
1.99999e-05
1.98378e-05
1.94987e-05
1.91795e-05
1.89496e-05
1.88039e-05
1.86506e-05
1.84835e-05
1.83239e-05
1.81937e-05
1.80549e-05
1.79289e-05
1.77925e-05
1.76693e-05
1.75422e-05
1.74235e-05
1.7301e-05
1.71849e-05
1.70657e-05
1.6956e-05
1.68391e-05
1.67332e-05
1.66252e-05
1.6525e-05
1.64218e-05
1.63253e-05
1.62229e-05
1.61315e-05
1.60325e-05
1.59387e-05
1.5837e-05
1.57468e-05
1.56462e-05
1.55556e-05
1.54552e-05
1.53655e-05
1.52633e-05
1.51758e-05
1.50763e-05
1.49917e-05
1.48882e-05
1.48034e-05
1.47084e-05
1.46219e-05
1.45376e-05
1.44542e-05
1.43705e-05
1.43116e-05
1.4238e-05
1.41832e-05
1.99999e-05
1.98414e-05
1.9512e-05
1.91919e-05
1.89571e-05
1.88091e-05
1.8664e-05
1.85024e-05
1.83416e-05
1.82121e-05
1.80751e-05
1.79539e-05
1.78183e-05
1.7699e-05
1.75733e-05
1.74586e-05
1.73383e-05
1.72241e-05
1.71082e-05
1.70004e-05
1.68853e-05
1.67822e-05
1.66757e-05
1.65781e-05
1.64776e-05
1.63825e-05
1.62823e-05
1.61934e-05
1.60955e-05
1.60029e-05
1.5903e-05
1.58138e-05
1.57134e-05
1.56238e-05
1.5524e-05
1.54341e-05
1.53322e-05
1.52448e-05
1.51458e-05
1.506e-05
1.49567e-05
1.48727e-05
1.47774e-05
1.46917e-05
1.46074e-05
1.45243e-05
1.44447e-05
1.43865e-05
1.43124e-05
1.42618e-05
1.99999e-05
1.98454e-05
1.95257e-05
1.92073e-05
1.89681e-05
1.88167e-05
1.86785e-05
1.85238e-05
1.83625e-05
1.82336e-05
1.80982e-05
1.79816e-05
1.78471e-05
1.7732e-05
1.76076e-05
1.74973e-05
1.7379e-05
1.72673e-05
1.71547e-05
1.70487e-05
1.69361e-05
1.68361e-05
1.67311e-05
1.66365e-05
1.65388e-05
1.64454e-05
1.63481e-05
1.62616e-05
1.61648e-05
1.60742e-05
1.59766e-05
1.58882e-05
1.57881e-05
1.57001e-05
1.56012e-05
1.55113e-05
1.541e-05
1.5323e-05
1.52246e-05
1.51376e-05
1.50356e-05
1.49525e-05
1.4857e-05
1.47728e-05
1.46883e-05
1.46064e-05
1.45326e-05
1.44731e-05
1.43996e-05
1.43541e-05
1.99999e-05
1.98496e-05
1.95398e-05
1.92252e-05
1.89823e-05
1.88271e-05
1.8694e-05
1.8547e-05
1.83863e-05
1.82577e-05
1.81237e-05
1.80114e-05
1.78784e-05
1.77676e-05
1.76442e-05
1.75387e-05
1.74222e-05
1.73137e-05
1.72041e-05
1.70998e-05
1.69904e-05
1.68933e-05
1.67898e-05
1.66987e-05
1.66036e-05
1.65123e-05
1.64185e-05
1.63342e-05
1.62386e-05
1.61508e-05
1.60556e-05
1.59679e-05
1.58687e-05
1.57825e-05
1.56844e-05
1.55947e-05
1.54946e-05
1.54084e-05
1.53102e-05
1.52225e-05
1.51228e-05
1.50403e-05
1.4945e-05
1.48627e-05
1.47782e-05
1.46991e-05
1.46305e-05
1.4569e-05
1.44978e-05
1.44584e-05
1.99999e-05
1.9854e-05
1.95539e-05
1.9245e-05
1.89996e-05
1.88403e-05
1.87106e-05
1.85713e-05
1.84125e-05
1.82842e-05
1.81514e-05
1.80425e-05
1.79115e-05
1.7805e-05
1.76826e-05
1.75818e-05
1.74669e-05
1.73623e-05
1.72552e-05
1.71526e-05
1.7047e-05
1.69524e-05
1.68507e-05
1.67633e-05
1.66705e-05
1.65821e-05
1.6492e-05
1.64093e-05
1.63155e-05
1.62309e-05
1.61381e-05
1.6051e-05
1.59532e-05
1.5869e-05
1.57717e-05
1.56826e-05
1.55841e-05
1.54986e-05
1.54006e-05
1.5313e-05
1.52158e-05
1.51339e-05
1.50395e-05
1.49588e-05
1.48753e-05
1.48003e-05
1.47353e-05
1.46716e-05
1.46056e-05
1.45717e-05
1.99999e-05
1.98584e-05
1.95681e-05
1.92664e-05
1.90195e-05
1.88562e-05
1.87283e-05
1.85963e-05
1.84405e-05
1.83127e-05
1.81807e-05
1.80745e-05
1.7946e-05
1.78436e-05
1.77222e-05
1.76258e-05
1.75125e-05
1.74123e-05
1.7307e-05
1.72065e-05
1.71048e-05
1.70123e-05
1.69127e-05
1.68289e-05
1.67382e-05
1.66532e-05
1.65668e-05
1.64854e-05
1.63942e-05
1.63131e-05
1.62222e-05
1.61359e-05
1.60403e-05
1.5958e-05
1.58611e-05
1.57733e-05
1.56766e-05
1.55918e-05
1.54939e-05
1.54073e-05
1.53127e-05
1.52312e-05
1.51382e-05
1.50593e-05
1.49778e-05
1.49076e-05
1.48438e-05
1.47794e-05
1.47216e-05
1.46895e-05
1.99999e-05
1.98629e-05
1.95822e-05
1.92888e-05
1.90418e-05
1.88747e-05
1.87472e-05
1.86217e-05
1.84698e-05
1.83429e-05
1.82113e-05
1.8107e-05
1.79815e-05
1.78826e-05
1.77626e-05
1.767e-05
1.75585e-05
1.74627e-05
1.73586e-05
1.72607e-05
1.71626e-05
1.70718e-05
1.69749e-05
1.68945e-05
1.68057e-05
1.67247e-05
1.66415e-05
1.65615e-05
1.64735e-05
1.63958e-05
1.63063e-05
1.62213e-05
1.61285e-05
1.60477e-05
1.59511e-05
1.58652e-05
1.57704e-05
1.56861e-05
1.55887e-05
1.55039e-05
1.54113e-05
1.53305e-05
1.52392e-05
1.51628e-05
1.50839e-05
1.50186e-05
1.49534e-05
1.48925e-05
1.48422e-05
1.48078e-05
1.99999e-05
1.98673e-05
1.95962e-05
1.93119e-05
1.90659e-05
1.88957e-05
1.87675e-05
1.86471e-05
1.85001e-05
1.83743e-05
1.8243e-05
1.814e-05
1.80176e-05
1.79217e-05
1.78033e-05
1.77139e-05
1.76043e-05
1.75129e-05
1.74095e-05
1.73148e-05
1.72195e-05
1.71304e-05
1.70364e-05
1.69589e-05
1.68721e-05
1.67953e-05
1.6715e-05
1.66365e-05
1.65524e-05
1.64775e-05
1.63893e-05
1.63062e-05
1.62165e-05
1.61366e-05
1.60406e-05
1.5957e-05
1.58638e-05
1.57801e-05
1.56837e-05
1.56011e-05
1.55102e-05
1.54302e-05
1.5341e-05
1.5268e-05
1.51917e-05
1.51308e-05
1.50627e-05
1.50105e-05
1.49626e-05
1.49259e-05
1.99999e-05
1.98718e-05
1.961e-05
1.93351e-05
1.90916e-05
1.89189e-05
1.87891e-05
1.86725e-05
1.85308e-05
1.84065e-05
1.82754e-05
1.81734e-05
1.80539e-05
1.79604e-05
1.7844e-05
1.77572e-05
1.76498e-05
1.75621e-05
1.74596e-05
1.73682e-05
1.72748e-05
1.71874e-05
1.70965e-05
1.70216e-05
1.69369e-05
1.68642e-05
1.67863e-05
1.67101e-05
1.663e-05
1.65573e-05
1.64702e-05
1.63897e-05
1.63031e-05
1.62237e-05
1.61287e-05
1.60477e-05
1.59557e-05
1.58727e-05
1.5778e-05
1.56978e-05
1.5608e-05
1.55292e-05
1.54426e-05
1.53736e-05
1.52998e-05
1.52415e-05
1.51729e-05
1.51303e-05
1.50803e-05
1.50455e-05
1.99999e-05
1.98761e-05
1.96236e-05
1.93584e-05
1.91186e-05
1.8944e-05
1.8812e-05
1.86982e-05
1.85618e-05
1.84392e-05
1.83084e-05
1.82073e-05
1.809e-05
1.79986e-05
1.78844e-05
1.77998e-05
1.76946e-05
1.761e-05
1.75085e-05
1.74204e-05
1.73281e-05
1.72425e-05
1.71547e-05
1.7082e-05
1.69995e-05
1.69306e-05
1.68548e-05
1.67816e-05
1.67055e-05
1.66343e-05
1.65486e-05
1.64713e-05
1.63872e-05
1.63081e-05
1.62148e-05
1.61362e-05
1.60451e-05
1.59632e-05
1.58709e-05
1.57928e-05
1.57038e-05
1.56267e-05
1.55435e-05
1.54783e-05
1.54068e-05
1.53497e-05
1.52845e-05
1.52475e-05
1.51967e-05
1.51663e-05
1.99999e-05
1.98804e-05
1.96368e-05
1.93814e-05
1.91463e-05
1.89707e-05
1.88362e-05
1.87242e-05
1.85928e-05
1.84722e-05
1.8342e-05
1.82416e-05
1.81258e-05
1.80362e-05
1.79243e-05
1.78417e-05
1.77385e-05
1.76566e-05
1.75562e-05
1.74711e-05
1.73791e-05
1.72955e-05
1.72106e-05
1.71397e-05
1.70595e-05
1.69941e-05
1.69203e-05
1.68506e-05
1.67781e-05
1.67079e-05
1.66244e-05
1.65503e-05
1.64681e-05
1.63895e-05
1.62986e-05
1.6222e-05
1.61315e-05
1.60513e-05
1.59617e-05
1.58853e-05
1.57972e-05
1.57223e-05
1.5643e-05
1.5581e-05
1.55113e-05
1.54556e-05
1.53965e-05
1.53604e-05
1.53141e-05
1.52838e-05
1.99999e-05
1.98846e-05
1.96497e-05
1.94042e-05
1.91746e-05
1.89986e-05
1.88618e-05
1.87508e-05
1.86237e-05
1.85054e-05
1.83761e-05
1.82763e-05
1.81611e-05
1.80733e-05
1.79635e-05
1.7883e-05
1.77814e-05
1.77019e-05
1.76027e-05
1.75201e-05
1.74281e-05
1.73466e-05
1.72638e-05
1.71945e-05
1.71169e-05
1.70546e-05
1.69827e-05
1.69169e-05
1.68474e-05
1.67782e-05
1.66973e-05
1.66263e-05
1.65454e-05
1.64678e-05
1.63797e-05
1.63046e-05
1.62148e-05
1.61368e-05
1.60499e-05
1.59747e-05
1.5888e-05
1.5816e-05
1.57405e-05
1.56808e-05
1.56129e-05
1.55599e-05
1.55063e-05
1.5471e-05
1.54289e-05
1.53998e-05
1.99999e-05
1.98887e-05
1.96622e-05
1.94267e-05
1.92031e-05
1.90276e-05
1.88887e-05
1.87778e-05
1.86544e-05
1.85388e-05
1.84106e-05
1.83114e-05
1.81961e-05
1.81102e-05
1.80018e-05
1.79237e-05
1.78234e-05
1.77459e-05
1.76477e-05
1.75672e-05
1.74749e-05
1.73955e-05
1.73142e-05
1.72463e-05
1.71714e-05
1.71119e-05
1.7042e-05
1.69802e-05
1.6913e-05
1.6845e-05
1.67674e-05
1.66989e-05
1.66191e-05
1.65429e-05
1.64579e-05
1.63838e-05
1.6295e-05
1.62197e-05
1.6135e-05
1.60608e-05
1.59762e-05
1.59075e-05
1.58354e-05
1.57773e-05
1.57116e-05
1.56626e-05
1.56134e-05
1.55796e-05
1.554e-05
1.55143e-05
1.99999e-05
1.98927e-05
1.96743e-05
1.94486e-05
1.92315e-05
1.90574e-05
1.89167e-05
1.88053e-05
1.8685e-05
1.85723e-05
1.84455e-05
1.83466e-05
1.8231e-05
1.81469e-05
1.80394e-05