/*--------------------------------*- C++ -*----------------------------------*\
  =========                 |
  \\      /  F ield         | OpenFOAM: The Open Source CFD Toolbox
   \\    /   O peration     | Website:  https://openfoam.org
    \\  /    A nd           | Version:  7
     \\/     M anipulation  |
\*---------------------------------------------------------------------------*/
FoamFile
{
    version     2.0;
    format      ascii;
    class       volScalarField;
    location    "0.23";
    object      nut;
}
// * * * * * * * * * * * * * * * * * * * * * * * * * * * * * * * * * * * * * //

dimensions      [0 2 -1 0 0 0 0];

internalField   nonuniform List<scalar> 
70000
(
0
0
0
0
0
0
0
0
0
0
0
0
0
0
0
0
0
0
0
0
0
0
0
0
0
0
0
0
0
0
0
0
0
0
0
0
0
0
0
0
0
0
0
0
0
0
0
1.91378e-13
0
0
0
0
0
0
0
0
0
0
0
0
0
0
0
0
0
0
0
0
0
0
0
0
0
0
0
0
0
0
0
0
0
0
0
0
0
0
0
0
0
0
0
0
0
0
0
0
0
6.99693e-13
0
0
0
0
0
0
0
0
0
0
0
0
0
0
0
0
0
0
0
0
0
0
0
0
0
0
0
0
0
0
0
0
0
0
0
0
0
0
0
0
0
0
0
0
0
0
0
0
0
1.46944e-12
0
0
0
0
0
0
0
0
0
0
0
0
0
0
0
0
0
0
0
0
0
0
0
0
0
0
0
0
0
0
0
0
0
0
0
0
0
0
0
0
0
0
0
0
0
0
0
1.01841e-13
0
2.0447e-12
1.28158e-12
0
0
0
0
0
0
0
0
0
0
0
0
0
0
0
0
0
0
0
0
0
0
0
0
0
0
0
0
0
0
0
0
0
0
0
0
0
0
0
0
0
0
0
0
0
0
4.19397e-13
0
2.4137e-12
2.70446e-12
0
9.44498e-10
0
0
0
0
0
0
0
0
0
0
0
0
0
0
0
0
0
0
0
0
0
0
0
0
0
0
0
0
0
0
0
0
0
0
0
0
0
0
0
0
0
0
0
0
7.6183e-13
0
2.62623e-12
3.66584e-12
0
1.3198e-08
0
0
0
0
0
0
0
0
0
0
0
0
0
0
0
0
0
0
0
0
0
0
0
0
0
0
0
0
0
0
0
0
0
0
0
0
0
0
0
0
0
0
7.01315e-14
0
1.05063e-12
0
2.59356e-12
4.62956e-12
0
1.20917e-08
0
0
0
0
0
0
0
0
0
0
0
0
0
0
0
0
0
0
0
0
0
0
0
0
0
0
0
0
0
0
0
0
0
0
0
0
0
0
0
0
0
0
1.31213e-13
0
1.25834e-12
0
2.32452e-12
5.6163e-12
0
1.10717e-08
0
0
0
0
0
0
0
0
0
0
0
0
0
0
0
0
0
0
0
0
0
0
0
0
0
0
0
0
0
0
0
0
0
0
0
0
0
0
0
0
0
0
1.59768e-13
0
1.39206e-12
0
1.92337e-12
6.45649e-12
0
1.02232e-08
0
0
0
0
0
0
0
0
0
0
0
0
0
0
0
0
0
0
0
0
0
0
0
0
0
0
0
0
0
0
0
0
0
0
0
0
0
0
0
0
0
0
1.75821e-13
0
1.47938e-12
4.76164e-13
1.50445e-12
7.07074e-12
0
9.51312e-09
0
0
0
0
0
0
0
0
0
0
0
0
0
0
0
0
0
0
0
0
0
0
0
0
0
0
0
0
0
0
0
0
0
0
0
0
0
0
0
0
0
0
2.09238e-13
0
1.55859e-12
1.08572e-12
1.15519e-12
7.50556e-12
0
8.87064e-09
0
0
0
0
0
0
0
0
0
0
0
0
0
0
0
0
0
0
0
0
0
0
0
0
0
0
0
0
0
0
0
0
0
0
0
0
0
0
0
0
0
0
3.01885e-13
0
1.68027e-12
1.77883e-12
9.56239e-13
7.84126e-12
0
8.2298e-09
0
0
0
0
0
0
0
0
0
0
0
0
0
0
0
0
0
0
0
0
0
0
0
0
0
0
0
0
0
0
0
0
0
0
0
0
0
0
0
0
0
0
5.10907e-13
1.64964e-13
1.92456e-12
2.62087e-12
1.02124e-12
8.23561e-12
0
7.5707e-09
0
0
0
0
0
0
0
0
0
0
0
1.99246e-11
5.27765e-11
1.91362e-11
0
0
0
0
0
0
0
0
0
0
0
0
0
0
0
0
0
0
0
0
0
0
0
0
0
0
0
0
9.22926e-13
7.96817e-13
2.42102e-12
3.73923e-12
1.52498e-12
8.90394e-12
0
6.89953e-09
0
0
0
0
0
0
0
0
0
0
0
0
0
8.84415e-13
6.02523e-11
1.01775e-10
8.56805e-11
3.66252e-11
9.79456e-12
0
0
0
0
0
0
0
0
0
0
0
0
0
0
0
0
0
0
0
0
0
2.38898e-13
2.89369e-13
1.70987e-12
1.88542e-12
3.4179e-12
5.4173e-12
2.78054e-12
1.02317e-11
0
6.22738e-09
0
0
0
3.9546e-12
0
0
0
0
0
0
0
0
0
0
0
0
1.69913e-11
5.81197e-11
1.03173e-10
1.38972e-10
1.39641e-10
9.25952e-11
4.43726e-11
1.87702e-11
7.20267e-12
2.06011e-12
0
0
0
0
0
0
0
0
0
0
0
0
1.55986e-13
4.03848e-13
1.46541e-12
1.69083e-12
3.35429e-12
3.97252e-12
5.54131e-12
8.3757e-12
5.50276e-12
1.29864e-11
3.13812e-12
5.5628e-09
0
0
0
1.0553e-10
0
0
0
0
0
0
0
0
0
0
0
0
0
0
0
1.84636e-11
4.18554e-11
7.20224e-11
1.08096e-10
1.46229e-10
1.79014e-10
1.897e-10
1.57211e-10
1.00773e-10
5.70639e-11
3.20544e-11
1.88018e-11
1.17897e-11
8.00985e-12
5.81685e-12
4.55981e-12
3.74433e-12
3.49871e-12
3.29896e-12
3.83539e-12
4.0046e-12
5.34572e-12
5.79258e-12
7.90908e-12
9.19185e-12
1.10225e-11
1.50231e-11
1.19036e-11
1.92644e-11
1.01254e-11
4.91209e-09
0
0
0
1.92014e-10
0
0
0
0
0
0
0
0
0
0
0
0
0
0
0
0
0
7.96297e-12
1.97232e-11
3.23954e-11
4.72071e-11
6.62989e-11
9.12156e-11
1.2202e-10
1.58078e-10
1.97216e-10
2.36804e-10
2.6531e-10
2.59157e-10
2.1094e-10
1.50203e-10
1.02357e-10
7.18948e-11
5.31296e-11
4.29219e-11
3.61652e-11
3.3689e-11
3.11767e-11
3.17981e-11
3.223e-11
3.3121e-11
3.78403e-11
3.24934e-11
3.76497e-11
2.33714e-11
4.28079e-09
0
0
0
2.50873e-10
0
0
0
0
0
0
0
0
0
0
0
0
0
0
0
0
0
0
0
4.32579e-12
1.2351e-11
2.05492e-11
2.90152e-11
3.79665e-11
4.76161e-11
5.86433e-11
7.21007e-11
8.9674e-11
1.13104e-10
1.42853e-10
1.80345e-10
2.25445e-10
2.80882e-10
3.46417e-10
4.19345e-10
4.70531e-10
4.68459e-10
4.07162e-10
3.30804e-10
2.65882e-10
2.18762e-10
1.92272e-10
1.53875e-10
1.26549e-10
6.76614e-11
3.67401e-09
0
0
0
2.67146e-10
0
0
0
0
0
0
0
0
0
0
0
0
0
0
0
0
0
0
0
0
0
3.35018e-12
8.98876e-12
1.46076e-11
2.02234e-11
2.58262e-11
3.14478e-11
3.68461e-11
4.22285e-11
4.68115e-11
5.14302e-11
5.42102e-11
5.76942e-11
5.84917e-11
6.22326e-11
6.35083e-11
6.89084e-11
7.38923e-11
8.28973e-11
1.12016e-10
1.70725e-10
3.3607e-10
5.64802e-10
6.54468e-10
3.46834e-10
3.09606e-09
0
0
0
2.23607e-10
0
0
0
0
0
0
0
0
0
0
0
0
0
0
0
0
0
0
0
0
0
0
0
3.70893e-12
7.46103e-12
1.08645e-11
1.39296e-11
1.63083e-11
1.8158e-11
1.84685e-11
1.78778e-11
1.39024e-11
8.2126e-12
0
0
0
0
0
0
0
0
0
0
0
1.50788e-10
2.54989e-09
0
0
0
1.01353e-10
0
0
0
0
0
0
0
0
0
0
0
0
0
0
0
0
0
0
0
0
0
0
0
0
1.61918e-12
3.84179e-12
5.48004e-12
6.11904e-12
5.9025e-12
3.74462e-12
2.16833e-13
0
0
0
0
0
0
0
0
0
0
0
0
0
3.71107e-10
2.0368e-09
0
0
0
0
0
0
0
0
0
0
0
0
0
0
0
0
0
0
0
0
0
0
0
0
0
0
0
0
0
7.32995e-13
1.49946e-12
9.93243e-13
0
0
0
0
0
0
0
0
0
0
0
0
0
0
0
0
6.28702e-10
1.55637e-09
0
0
0
0
0
0
0
0
0
0
0
0
0
0
0
0
0
0
0
0
0
0
0
0
0
0
0
0
0
0
0
0
0
0
0
0
0
0
0
0
0
0
0
0
0
0
0
0
8.48827e-10
1.10658e-09
0
0
0
0
0
0
0
0
0
0
0
0
0
0
0
0
0
0
0
0
0
0
0
0
0
0
0
0
0
0
0
0
0
0
0
0
0
0
0
0
0
0
0
0
0
0
0
0
1.07565e-09
6.84228e-10
0
0
0
0
0
0
0
0
0
0
0
0
0
0
0
0
0
0
0
0
0
0
0
0
0
0
0
0
0
0
0
0
0
0
0
0
0
0
0
0
0
0
0
0
0
0
0
0
1.33292e-09
2.85508e-10
0
0
0
0
0
0
0
0
0
0
0
0
0
0
0
0
0
0
0
0
0
0
0
0
0
0
0
0
0
0
0
0
0
0
0
0
0
0
0
0
0
0
0
0
0
0
0
6.79686e-11
1.62995e-09
0
0
0
0
0
0
0
0
0
0
0
0
0
0
0
0
0
0
0
0
0
0
0
0
0
0
0
0
0
0
0
0
0
0
0
0
0
0
0
0
0
0
0
0
0
0
0
0
3.02391e-10
1.97525e-09
0
0
0
0
0
0
0
0
0
0
0
0
0
0
0
0
0
0
0
0
0
0
0
0
0
0
0
0
0
0
0
0
0
0
0
0
0
0
0
0
0
0
0
0
0
0
0
0
5.8585e-10
2.37637e-09
0
0
0
0
0
0
0
0
0
0
0
0
0
0
0
0
0
0
0
0
0
0
0
0
0
0
0
0
0
0
0
0
0
0
0
0
0
0
0
0
0
0
0
0
0
0
0
0
9.30282e-10
2.84282e-09
0
0
0
0
0
0
0
0
0
0
0
0
0
0
0
0
0
0
0
0
0
0
0
0
0
0
0
0
0
0
0
0
0
0
0
0
0
0
0
0
0
0
0
0
0
0
0
0
1.34975e-09
3.38583e-09
0
0
0
0
0
0
0
0
0
0
0
0
0
0
0
0
0
0
0
0
0
0
0
0
0
0
0
0
0
0
0
0
0
0
0
0
0
0
0
0
0
0
0
0
0
0
0
1.56714e-11
1.8609e-09
4.01762e-09
0
1.05865e-09
0
0
0
0
0
0
0
0
0
0
0
0
0
0
0
0
0
0
0
0
0
0
0
0
0
0
0
0
0
0
0
0
0
0
0
0
0
0
0
0
0
0
0
0
0
3.59484e-10
2.48286e-09
4.75058e-09
0
2.00253e-09
0
0
0
0
0
0
0
0
0
0
0
0
0
0
0
0
0
0
0
0
0
0
0
0
0
0
0
0
0
0
0
0
0
0
0
0
0
0
0
0
0
0
0
0
0
8.09355e-10
3.23663e-09
5.59579e-09
0
2.82088e-09
0
0
0
0
0
0
0
0
0
0
0
0
0
0
0
0
0
0
0
0
0
0
0
0
0
0
0
0
0
0
0
0
0
0
0
0
0
0
0
0
0
0
0
0
0
1.39139e-09
4.1443e-09
6.56093e-09
0
3.51525e-09
0
0
0
0
0
0
0
0
0
0
0
0
0
0
0
0
0
0
0
0
0
0
0
0
0
0
0
0
0
0
0
0
0
0
0
0
0
0
0
0
0
0
0
0
0
2.13604e-09
5.22851e-09
7.65079e-09
0
4.09047e-09
0
0
0
0
0
0
0
0
0
0
0
0
0
0
0
0
0
0
0
0
0
0
0
0
0
0
0
0
0
0
0
0
0
0
0
0
0
0
0
0
0
0
0
0
4.9314e-10
3.07664e-09
6.50701e-09
8.85912e-09
0
4.55387e-09
0
0
0
0
0
0
0
0
0
0
0
0
0
0
0
0
0
0
0
0
0
0
0
0
0
0
0
0
0
0
0
0
0
0
0
0
0
0
0
0
0
0
0
0
1.19815e-09
4.24801e-09
7.99038e-09
1.01691e-08
0
4.91359e-09
0
0
0
0
0
0
0
0
0
0
0
0
0
0
0
0
0
0
0
0
0
0
0
0
0
0
0
0
0
0
0
0
0
0
0
0
0
0
0
0
0
0
0
0
2.13093e-09
5.68255e-09
9.67623e-09
1.15496e-08
0
5.17831e-09
0
0
0
0
0
0
0
0
0
0
0
0
0
0
0
0
0
0
0
0
0
0
0
0
0
0
0
0
0
0
0
0
0
0
0
0
0
0
0
0
0
0
0
5.4674e-10
3.33909e-09
7.40458e-09
1.15426e-08
1.29534e-08
0
5.35793e-09
0
0
0
0
0
0
0
0
0
0
0
0
0
0
0
0
0
0
0
0
0
0
0
0
0
0
2.01913e-12
0
0
0
0
0
0
0
0
0
0
0
0
0
0
0
0
1.48464e-09
4.86978e-09
9.42139e-09
1.35413e-08
1.43167e-08
0
5.46346e-09
0
0
0
0
0
0
0
0
0
0
0
0
0
0
0
0
0
0
0
0
0
0
0
0
0
3.356e-12
6.68415e-12
0
0
0
0
0
0
0
0
0
0
0
0
0
0
0
2.15819e-10
2.73713e-09
6.76195e-09
1.1712e-08
1.55929e-08
1.55619e-08
0
5.50596e-09
0
0
0
0
0
0
0
0
0
0
0
0
0
0
0
0
0
0
0
0
0
0
0
0
0
9.94752e-12
1.3845e-11
4.37926e-12
0
0
0
0
0
0
0
0
0
0
0
0
0
0
1.20588e-09
4.36378e-09
9.03403e-09
1.42151e-08
1.75858e-08
1.66054e-08
0
5.49564e-09
0
0
0
0
0
0
0
0
0
0
0
0
0
0
0
0
0
0
0
0
0
0
0
0
2.64814e-12
1.94939e-11
2.44335e-11
1.49547e-11
0
0
0
0
0
0
0
0
0
0
0
0
0
2.30194e-10
2.54833e-09
6.41533e-09
1.16669e-08
1.68181e-08
1.9383e-08
1.73698e-08
0
5.44149e-09
0
0
0
0
0
0
0
0
0
0
0
0
0
0
0
0
0
0
0
0
0
0
0
0
1.37828e-11
3.29709e-11
3.96242e-11
3.0975e-11
3.74556e-12
0
0
0
0
0
0
0
0
0
0
0
0
1.33113e-09
4.3104e-09
8.91704e-09
1.45841e-08
1.93536e-08
2.08405e-08
1.77949e-08
0
5.3512e-09
0
0
0
0
0
0
0
0
0
0
0
0
0
0
0
0
0
0
0
0
0
0
0
0
2.93827e-11
5.15812e-11
6.08705e-11
5.42439e-11
2.82182e-11
0
0
0
0
0
0
0
0
0
0
0
6.1933e-10
2.8222e-09
6.54671e-09
1.18448e-08
1.76341e-08
2.16126e-08
2.18327e-08
1.78445e-08
0
5.23123e-09
0
0
0
0
0
0
0
0
0
0
0
0
0
0
0
0
0
0
0
0
0
0
0
1.40354e-11
5.07036e-11
7.67859e-11
8.99418e-11
8.69675e-11
6.4243e-11
1.83695e-11
0
0
0
0
0
0
0
0
0
2.87087e-10
1.89406e-09
4.77107e-09
9.2773e-09
1.50965e-08
2.05853e-08
2.33784e-08
2.22736e-08
1.75101e-08
0
5.08699e-09
0
0
0
0
0
0
0
0
0
0
0
0
0
0
0
0
0
0
0
0
0
0
0
3.80946e-11
7.92341e-11
1.10328e-10
1.28958e-10
1.318e-10
1.152e-10
7.5998e-11
1.18735e-11
0
0
0
0
0
0
0
2.26165e-10
1.40428e-09
3.59189e-09
7.22384e-09
1.24562e-08
1.84685e-08
2.31494e-08
2.44728e-08
2.2128e-08
1.68167e-08
0
4.92299e-09
0
0
0
0
0
0
0
0
0
0
0
0
0
0
0
0
0
0
0
0
0
0
1.52436e-11
7.02073e-11
1.16705e-10
1.54245e-10
1.8041e-10
1.91876e-10
1.85104e-10
1.57397e-10
1.07339e-10
3.6385e-11
0
0
0
0
0
3.49982e-10
1.23519e-09
2.90536e-09
5.76934e-09
1.01764e-08
1.59358e-08
2.16551e-08
2.50385e-08
2.47928e-08
2.14205e-08
1.58127e-08
0
4.74312e-09
0
0
0
0
0
0
0
0
0
0
0
0
0
0
0
0
0
0
0
0
0
0
5.22002e-11
1.12142e-10
1.6509e-10
2.10867e-10
2.47165e-10
2.70826e-10
2.78627e-10
2.68621e-10
2.40731e-10
1.98869e-10
1.52585e-10
1.2108e-10
1.38454e-10
2.63525e-10
5.93823e-10
1.28777e-09
2.58996e-09
4.84718e-09
8.44544e-09
1.35361e-08
1.94435e-08
2.42915e-08
2.60357e-08
2.4331e-08
2.0226e-08
1.45611e-08
0
4.55082e-09
0
0
0
0
0
0
0
0
0
0
0
0
0
0
0
0
0
0
0
0
0
2.73996e-11
1.00348e-10
1.65859e-10
2.26582e-10
2.82788e-10
3.32433e-10
3.72747e-10
4.01072e-10
4.1658e-10
4.21075e-10
4.21754e-10
4.33133e-10
4.82341e-10
6.15153e-10
9.08396e-10
1.48454e-09
2.53593e-09
4.3418e-09
7.25712e-09
1.1566e-08
1.7085e-08
2.25972e-08
2.60402e-08
2.6052e-08
2.31712e-08
1.865e-08
1.31336e-08
0
4.34911e-09
5.39451e-11
0
0
0
0
0
0
0
0
0
0
0
0
0
0
0
0
0
0
0
0
8.49875e-11
1.61716e-10
2.33474e-10
3.03546e-10
3.72811e-10
4.39697e-10
5.02105e-10
5.5825e-10
6.08892e-10
6.58376e-10
7.18139e-10
8.08948e-10
9.67707e-10
1.25423e-09
1.76609e-09
2.6524e-09
4.13711e-09
6.51688e-09
1.01021e-08
1.49642e-08
2.04715e-08
2.49814e-08
2.66906e-08
2.51419e-08
2.14591e-08
1.681e-08
1.16006e-08
0
4.14072e-09
4.5065e-10
0
0
0
0
0
0
0
0
0
0
0
0
0
0
0
0
0
0
0
6.86153e-11
1.58019e-10
2.38417e-10
3.17172e-10
3.98415e-10
4.83836e-10
5.72584e-10
6.63568e-10
7.56268e-10
8.53596e-10
9.63197e-10
1.10182e-09
1.29784e-09
1.59982e-09
2.08363e-09
2.86897e-09
4.12989e-09
6.1109e-09
9.09007e-09
1.32516e-08
1.83379e-08
2.32605e-08
2.62678e-08
2.62177e-08
2.34727e-08
1.9366e-08
1.48185e-08
1.0026e-08
0
3.92812e-09
7.85574e-10
0
0
0
0
0
0
0
0
0
0
0
0
0
0
0
0
0
0
4.83032e-11
1.58194e-10
2.48628e-10
3.32537e-10
4.19086e-10
5.13538e-10
6.18664e-10
7.34616e-10
8.61704e-10
1.00113e-09
1.15861e-09
1.34591e-09
1.58618e-09
1.91669e-09
2.39918e-09
3.12644e-09
4.23889e-09
5.92724e-09
8.4318e-09
1.1953e-08
1.64513e-08
2.12757e-08
2.50483e-08
2.63211e-08
2.47704e-08
2.12677e-08
1.70576e-08
1.27734e-08
8.46445e-09
0
3.71358e-09
1.06383e-09
0
0
0
0
0
0
0
0
0
0
0
0
0
0
0
0
0
7.86974e-12
1.57789e-10
2.68003e-10
3.5877e-10
4.45963e-10
5.41102e-10
6.50953e-10
7.79713e-10
9.28852e-10
1.10051e-09
1.2981e-09
1.53086e-09
1.81547e-09
2.18237e-09
2.67868e-09
3.37976e-09
4.39381e-09
5.87541e-09
8.01365e-09
1.10023e-08
1.48883e-08
1.93328e-08
2.33518e-08
2.55962e-08
2.52276e-08
2.2604e-08
1.87523e-08
1.46746e-08
1.07537e-08
6.96014e-09
0
3.49919e-09
1.29041e-09
0
0
0
0
0
0
0
0
0
0
0
0
0
0
0
0
0
1.37457e-10
2.8996e-10
3.99693e-10
4.90007e-10
5.80141e-10
6.84593e-10
8.12074e-10
9.68619e-10
1.15736e-09
1.38273e-09
1.65081e-09
1.97501e-09
2.3775e-09
2.89652e-09
3.58901e-09
4.54245e-09
5.87468e-09
7.74033e-09
1.02959e-08
1.36318e-08
1.75736e-08
2.14872e-08
2.42619e-08
2.49047e-08
2.32386e-08
1.99997e-08
1.61191e-08
1.23254e-08
8.81873e-09
5.54695e-09
0
3.28685e-09
1.47025e-09
0
0
0
0
0
0
0
0
0
0
0
0
0
0
0
0
7.39757e-11
2.91937e-10
4.46023e-10
5.54302e-10
6.43215e-10
7.35758e-10
8.50049e-10
9.9724e-10
1.18569e-09
1.42052e-09
1.70887e-09
2.05989e-09
2.49154e-09
3.03167e-09
3.72587e-09
4.63921e-09
5.86639e-09
7.52332e-09
9.74132e-09
1.26026e-08
1.60397e-08
1.96382e-08
2.25883e-08
2.39272e-08
2.31852e-08
2.06714e-08
1.7207e-08
1.35144e-08
1.00876e-08
7.01077e-09
4.24953e-09
0
3.07817e-09
1.60816e-09
0
0
0
0
0
0
0
0
0
0
0
0
0
0
0
0
2.5103e-10
4.71932e-10
6.26336e-10
7.31925e-10
8.18221e-10
9.12329e-10
1.03659e-09
1.20515e-09
1.42918e-09
1.71608e-09
2.07602e-09
2.52131e-09
3.0745e-09
3.76832e-09
4.65394e-09
5.80021e-09
7.29949e-09
9.24777e-09
1.17223e-08
1.46901e-08
1.79013e-08
2.07684e-08
2.25053e-08
2.25005e-08
2.07608e-08
1.78247e-08
1.44163e-08
1.10387e-08
8.01251e-09
5.35776e-09
3.08465e-09
0
2.87449e-09
1.70879e-09
0
0
0
0
0
0
0
0
0
0
0
0
0
0
0
1.67024e-10
4.54391e-10
6.7685e-10
8.30007e-10
9.31318e-10
1.01335e-09
1.10767e-09
1.24141e-09
1.4322e-09
1.69447e-09
2.03814e-09
2.47636e-09
3.0245e-09
3.7087e-09
4.56474e-09
5.64547e-09
7.01568e-09
8.75117e-09
1.09055e-08
1.34715e-08
1.62807e-08
1.89352e-08
2.08125e-08
2.1334e-08
2.02819e-08
1.79613e-08
1.49338e-08
1.17571e-08
8.7551e-09
6.13078e-09
3.87633e-09
2.06304e-09
0
2.67688e-09
1.77652e-09
0
0
0
0
0
0
0
0
0
0
0
0
0
0
5.5514e-11
3.9139e-10
6.81705e-10
9.04406e-10
1.05443e-09
1.14938e-09
1.22492e-09
1.31736e-09
1.45908e-09
1.67171e-09
1.97314e-09
2.37591e-09
2.89576e-09
3.55021e-09
4.36715e-09
5.38182e-09
6.64239e-09
8.19862e-09
1.00927e-08
1.23144e-08
1.47569e-08
1.71351e-08
1.89948e-08
1.98252e-08
1.93361e-08
1.76085e-08
1.50588e-08
1.21605e-08
9.30891e-09
6.69888e-09
4.45811e-09
2.575e-09
1.19057e-09
0
2.48616e-09
1.81547e-09
0
0
0
0
0
0
0
0
0
0
0
0
0
0
2.90799e-10
6.34828e-10
9.28424e-10
1.15011e-09
1.29477e-09
1.38064e-09
1.44666e-09
1.53411e-09
1.68095e-09
1.91317e-09
2.25214e-09
2.71275e-09
3.31242e-09
4.06911e-09
5.00935e-09
6.16249e-09
7.56368e-09
9.23514e-09
1.11705e-08
1.3285e-08
1.53844e-08
1.71272e-08
1.8112e-08
1.80262e-08
1.68341e-08
1.47736e-08
1.22457e-08
9.60383e-09
7.11433e-09
4.8856e-09
2.99994e-09
1.45639e-09
4.69212e-10
0
2.30293e-09
1.82946e-09
0
0
0
0
0
0
0
0
0
0
0
0
0
1.40258e-10
5.3618e-10
8.90054e-10
1.18739e-09
1.40678e-09
1.54341e-09
1.61677e-09
1.66923e-09
1.7473e-09
1.89459e-09
2.14175e-09
2.51323e-09
3.02553e-09
3.69641e-09
4.54148e-09
5.58172e-09
6.83401e-09
8.31164e-09
9.99887e-09
1.18341e-08
1.36673e-08
1.52565e-08
1.6282e-08
1.64709e-08
1.57103e-08
1.4125e-08
1.19926e-08
9.64188e-09
7.31673e-09
5.19073e-09
3.31818e-09
1.75497e-09
5.18988e-10
0
0
2.12761e-09
1.82208e-09
0
0
0
0
0
0
0
0
0
0
0
0
0
3.72623e-10
7.82267e-10
1.14715e-09
1.44852e-09
1.66414e-09
1.78957e-09
1.84613e-09
1.87982e-09
1.94261e-09
2.08365e-09
2.3381e-09
2.73301e-09
3.28507e-09
4.01049e-09
4.91904e-09
6.02142e-09
7.31562e-09
8.78608e-09
1.03755e-08
1.19739e-08
1.33947e-08
1.44013e-08
1.47565e-08
1.43333e-08
1.31624e-08
1.14357e-08
9.40392e-09
7.31247e-09
5.32058e-09
3.53979e-09
1.99176e-09
7.17545e-10
0
0
0
1.96049e-09
1.79665e-09
0
0
0
0
0
0
0
0
0
0
0
0
1.46507e-10
5.9515e-10
1.01737e-09
1.39348e-09
1.69865e-09
1.90863e-09
2.01909e-09
2.05365e-09
2.06217e-09
2.10216e-09
2.22803e-09
2.47907e-09
2.88393e-09
3.45795e-09
4.21298e-09
5.14997e-09
6.26449e-09
7.53172e-09
8.90474e-09
1.02914e-08
1.15527e-08
1.25033e-08
1.29567e-08
1.27795e-08
1.19616e-08
1.06088e-08
8.91722e-09
7.08476e-09
5.28502e-09
3.61756e-09
2.15397e-09
8.9674e-10
0
0
0
0
1.80173e-09
1.75624e-09
0
0
0
0
0
0
0
0
0
0
0
0
3.45709e-10
7.95151e-10
1.22764e-09
1.61397e-09
1.92176e-09
2.12356e-09
2.21463e-09
2.22117e-09
2.19701e-09
2.20528e-09
2.30509e-09
2.53928e-09
2.93662e-09
3.50983e-09
4.26322e-09
5.18656e-09
6.25741e-09
7.42804e-09
8.62457e-09
9.73444e-09
1.06164e-08
1.11175e-08
1.11216e-08
1.05865e-08
9.57164e-09
8.20557e-09
6.65662e-09
5.06993e-09
3.56393e-09
2.19864e-09
1.02049e-09
2.09907e-11
0
0
0
0
1.65137e-09
1.70365e-09
0
0
0
0
0
0
0
0
0
0
0
9.15366e-11
5.11861e-10
9.58393e-10
1.39762e-09
1.79159e-09
2.0996e-09
2.28979e-09
2.3564e-09
2.3283e-09
2.26338e-09
2.23014e-09
2.29179e-09
2.49383e-09
2.86383e-09
3.41034e-09
4.12825e-09
4.99452e-09
5.96961e-09
6.98635e-09
7.95461e-09
8.75908e-09
9.2793e-09
9.4104e-09
9.10299e-09
8.3756e-09
7.31625e-09
6.04575e-09
4.69569e-09
3.36732e-09
2.14013e-09
1.04889e-09
1.23952e-10
0
0
0
0
0
1.50939e-09
1.64138e-09
7.65702e-11
0
0
0
0
0
0
0
0
0
0
2.28386e-10
6.30696e-10
1.06999e-09
1.51113e-09
1.90852e-09
2.21288e-09
2.38699e-09
2.42371e-09
2.35425e-09
2.24051e-09
2.15609e-09
2.16763e-09
2.32229e-09
2.64532e-09
3.13985e-09
3.79077e-09
4.56272e-09
5.40168e-09
6.23037e-09
6.95443e-09
7.47076e-09
7.69212e-09
7.56133e-09
7.07794e-09
6.29058e-09
5.29e-09
4.17614e-09
3.04645e-09
1.9692e-09
9.9763e-10
1.50451e-10
0
0
0
0
0
0
1.37569e-09
1.57171e-09
1.73293e-10
0
0
0
0
0
0
0
0
0
0
3.06827e-10
6.88676e-10
1.11571e-09
1.55267e-09
1.94756e-09
2.24292e-09
2.39572e-09
2.39714e-09
2.28029e-09
2.11093e-09
1.96703e-09
1.91824e-09
2.01254e-09
2.27214e-09
2.69432e-09
3.25456e-09
3.9077e-09
4.59051e-09
5.22362e-09
5.72085e-09
6.00081e-09
6.00837e-09
5.72479e-09
5.17706e-09
4.42285e-09
3.54241e-09
2.61264e-09
1.70327e-09
8.5946e-10
1.17028e-10
0
0
0
0
0
0
0
1.25012e-09
1.49664e-09
2.42565e-10
0
0
0
0
0
0
0
0
0
1.69746e-11
3.16365e-10
6.7446e-10
1.08349e-09
1.50906e-09
1.89416e-09
2.17402e-09
2.30002e-09
2.26141e-09
2.09276e-09
1.86329e-09
1.65479e-09
1.53935e-09
1.56497e-09
1.75081e-09
2.0886e-09
2.54637e-09
3.07261e-09
3.60093e-09
4.05694e-09
4.36872e-09
4.47964e-09
4.36059e-09
4.0163e-09
3.48505e-09
2.82197e-09
2.09215e-09
1.35204e-09
6.50855e-10
1.80891e-11
0
0
0
0
0
0
0
0
1.13244e-09
1.41789e-09
2.88281e-10
0
0
0
0
0
0
0
0
0
0
2.50165e-10
5.80383e-10
9.65097e-10
1.37136e-09
1.73858e-09
1.99601e-09
2.0901e-09
2.00822e-09
1.78605e-09
1.49569e-09
1.22211e-09
1.0393e-09
9.94792e-10
1.10478e-09
1.35653e-09
1.71352e-09
2.1211e-09
2.51504e-09
2.83002e-09
3.01024e-09
3.01936e-09
2.84776e-09
2.5118e-09
2.04909e-09
1.50791e-09
9.38164e-10
3.80478e-10
0
0
0
0
0
0
0
0
1.31857e-10
0
1.0224e-09
1.337e-09
3.14135e-10
0
0
0
0
0
0
0
0
0
0
1.061e-10
4.03775e-10
7.57703e-10
1.13667e-09
1.47797e-09
1.70644e-09
1.76479e-09
1.63886e-09
1.36508e-09
1.01777e-09
6.84284e-10
4.39938e-10
3.3159e-10
3.72816e-10
5.47524e-10
8.16889e-10
1.12692e-09
1.41837e-09
1.63627e-09
1.73921e-09
1.70569e-09
1.53693e-09
1.25342e-09
8.88942e-10
4.81296e-10
6.82456e-11
0
0
0
0
0
0
0
0
0
6.5791e-10
0
9.19727e-10
1.25534e-09
3.23556e-10
0
0
0
0
0
0
0
0
0
0
0
1.47864e-10
4.64925e-10
8.09297e-10
1.11786e-09
1.31229e-09
1.33324e-09
1.16563e-09
8.46355e-10
4.51131e-10
6.88121e-11
0
0
0
0
0
1.6376e-10
3.88851e-10
5.52857e-10
6.25363e-10
5.94389e-10
4.6621e-10
2.60674e-10
5.94419e-12
0
0
0
0
0
0
0
0
0
0
0
1.27039e-09
0
8.24105e-10
1.17405e-09
3.19667e-10
0
0
0
0
0
0
0
0
0
0
0
0
9.74647e-11
4.01638e-10
6.72121e-10
8.30178e-10
8.1501e-10
6.11688e-10
2.57294e-10
0
0
0
0
0
0
0
0
0
0
0
0
0
0
0
0
0
0
0
0
0
0
0
0
0
1.62589e-10
1.96277e-09
0
7.3522e-10
1.0941e-09
3.05285e-10
0
0
0
0
0
0
0
0
0
0
0
0
0
0
1.63182e-10
2.85044e-10
2.38606e-10
9.17812e-12
0
0
0
0
0
0
0
0
0
0
0
0
0
0
0
0
0
0
0
0
0
0
0
0
0
1.57517e-10
8.18838e-10
2.72921e-09
0
6.52734e-10
1.01629e-09
2.82926e-10
0
0
0
0
0
0
0
0
0
0
0
0
0
0
0
0
0
0
0
0
0
0
0
0
0
0
0
0
0
0
0
0
0
0
0
0
0
0
0
0
0
1.75058e-10
4.73296e-10
8.34195e-10
1.55708e-09
3.56474e-09
0
5.76334e-10
9.41283e-10
2.54797e-10
0
0
0
0
0
0
0
0
0
0
0
0
0
0
0
0
0
0
0
0
0
0
0
0
0
0
0
0
0
0
0
0
0
0
0
0
0
0
0
2.16891e-10
5.16559e-10
8.45145e-10
1.19194e-09
1.59629e-09
2.37171e-09
4.46503e-09
0
5.05683e-10
8.69574e-10
2.22842e-10
0
0
0
0
0
0
0
0
0
0
0
0
0
0
0
0
0
0
0
0
0
0
0
0
0
0
0
0
0
0
0
0
0
0
0
0
0
2.57442e-10
5.60537e-10
8.89276e-10
1.2389e-09
1.61199e-09
1.99847e-09
2.43816e-09
3.25803e-09
5.42668e-09
0
4.40441e-10
8.01599e-10
1.88728e-10
0
0
0
0
0
0
0
0
0
0
0
0
0
0
0
0
0
0
0
0
0
0
0
0
0
0
0
0
0
0
0
0
0
0
7.00696e-12
3.00793e-10
6.12551e-10
9.44571e-10
1.29649e-09
1.67e-09
2.06019e-09
2.46915e-09
2.88743e-09
3.35534e-09
4.21238e-09
6.4469e-09
0
3.80275e-10
7.3769e-10
1.53875e-10
0
0
0
0
0
0
0
0
0
0
0
0
0
0
0
0
0
0
0
0
0
0
0
0
0
0
0
0
0
0
0
0
3.29448e-11
3.51371e-10
6.78639e-10
1.01969e-09
1.37689e-09
1.75135e-09
2.14229e-09
2.55159e-09
2.97413e-09
3.4114e-09
3.85439e-09
4.34411e-09
5.23193e-09
7.52441e-09
0
3.24868e-10
6.78104e-10
1.19483e-10
0
0
0
0
0
0
0
0
0
0
0
0
0
0
0
0
0
0
0
0
0
0
0
0
0
0
0
0
0
0
5.67609e-11
4.13021e-10
7.66538e-10
1.1235e-09
1.48902e-09
1.86748e-09
2.26081e-09
2.66928e-09
3.0907e-09
3.52781e-09
3.97544e-09
4.43446e-09
4.89603e-09
5.40187e-09
6.31482e-09
8.65849e-09
0
2.73916e-10
6.2304e-10
8.65707e-11
0
0
0
0
0
0
0
0
0
0
0
0
0
0
0
0
0
0
0
0
0
0
0
0
0
0
0
0
7.61415e-11
4.83592e-10
8.77475e-10
1.26286e-09
1.64583e-09
2.03236e-09
2.42725e-09
2.83448e-09
3.25575e-09
3.69095e-09
4.13577e-09
4.59371e-09
5.06005e-09
5.53496e-09
6.00989e-09
6.5271e-09
7.46033e-09
9.84937e-09
0
2.27133e-10
5.72658e-10
5.60216e-11
0
0
0
0
0
0
0
0
0
0
0
0
0
0
0
0
0
0
0
0
0
0
0
0
0
0
8.95924e-11
5.53723e-10
1.00174e-09
1.43199e-09
1.8477e-09
2.25469e-09
2.65934e-09
3.0676e-09
3.48408e-09
3.91252e-09
4.35454e-09
4.80983e-09
5.2729e-09
5.74549e-09
6.22492e-09
6.71065e-09
7.19442e-09
7.71907e-09
8.66859e-09
1.10986e-08
0
1.84261e-10
5.27107e-10
2.86265e-11
0
0
0
0
0
0
0
0
0
0
0
0
0
0
0
0
0
0
0
0
0
0
0
0
1.14334e-10
6.17256e-10
1.12021e-09
1.60882e-09
2.07669e-09
2.52406e-09
2.95548e-09
3.37757e-09
3.79718e-09
4.22036e-09
4.65173e-09
5.09484e-09
5.55138e-09
6.02095e-09
6.49796e-09
6.98033e-09
7.46803e-09
7.96022e-09
8.44893e-09
8.97774e-09
9.94051e-09
1.24082e-08
0
1.45077e-10
4.86547e-10
5.13305e-12
0
0
0
0
0
0
0
0
0
0
0
0
0
0
0
0
0
0
0
0
0
0
1.98482e-10
6.9773e-10
1.22615e-09
1.76577e-09
2.29607e-09
2.80498e-09
3.28831e-09
3.74805e-09
4.19006e-09
4.62182e-09
5.05074e-09
5.48313e-09
5.92369e-09
6.37592e-09
6.84162e-09
7.32046e-09
7.80762e-09
8.29643e-09
8.7884e-09
9.28341e-09
9.77378e-09
1.0304e-08
1.12777e-08
1.37811e-08
0
1.09399e-10
4.51187e-10
0
0
0
0
0
0
0
0
0
0
0
0
0
0
0
0
0
0
0
0
0
3.61799e-10
8.35233e-10
1.35609e-09
1.90909e-09
2.47752e-09
3.04929e-09
3.6034e-09
4.12917e-09
4.62451e-09
5.09296e-09
5.54156e-09
5.97873e-09
6.41247e-09
6.84945e-09
7.29457e-09
7.75132e-09
8.22163e-09
8.70548e-09
9.19877e-09
9.6931e-09
1.01858e-08
1.06805e-08
1.11698e-08
1.16993e-08
1.26822e-08
1.52201e-08
0
7.71059e-11
4.21322e-10
0
0
0
0
0
0
0
0
0
0
0
0
0
0
0
0
0
0
8.15299e-11
5.19394e-10
9.93202e-10
1.50946e-09
2.06581e-09
2.65161e-09
3.25198e-09
3.8542e-09
4.45324e-09
5.02836e-09
5.56845e-09
6.07341e-09
6.54816e-09
7.00076e-09
7.44036e-09
7.87562e-09
8.31369e-09
8.75976e-09
9.21739e-09
9.68859e-09
1.01739e-08
1.06697e-08
1.11689e-08
1.16605e-08
1.21524e-08
1.26384e-08
1.31653e-08
1.41563e-08
1.67286e-08
0
4.81586e-11
3.97393e-10
0
0
0
0
0
0
0
0
0
0
0
0
0
0
0
0
9.79352e-11
5.79126e-10
1.08235e-09
1.6166e-09
2.18815e-09
2.79493e-09
3.42729e-09
4.07107e-09
4.71195e-09
5.34137e-09
5.96204e-09
6.55638e-09
7.10953e-09
7.62305e-09
8.10306e-09
8.55844e-09
8.999e-09
9.43391e-09
9.87079e-09
1.03152e-08
1.0771e-08
1.12403e-08
1.1724e-08
1.22194e-08
1.27208e-08
1.32138e-08
1.37003e-08
1.41811e-08
1.47043e-08
1.57028e-08
1.83099e-08
0
2.26328e-11
3.8006e-10
0
0
0
0
0
0
0
0
0
0
0
0
0
0
5.54551e-11
5.45271e-10
1.07723e-09
1.64294e-09
2.23086e-09
2.85504e-09
3.51662e-09
4.20552e-09
4.90541e-09
5.59925e-09
6.27336e-09
6.92316e-09
7.55855e-09
8.17128e-09
8.73783e-09
9.26063e-09
9.74659e-09
1.02052e-08
1.06467e-08
1.10808e-08
1.15156e-08
1.19571e-08
1.24094e-08
1.28749e-08
1.33546e-08
1.38473e-08
1.43478e-08
1.4844e-08
1.53252e-08
1.57996e-08
1.63182e-08
1.73241e-08
1.99672e-08
0
7.66067e-13
3.70311e-10
0
0
0
0
0
0
0
0
0
0
0
0
7.56538e-11
5.21726e-10
1.03145e-09
1.59511e-09
2.20616e-09
2.85566e-09
3.5217e-09
4.22623e-09
4.96702e-09
5.72692e-09
6.48387e-09
7.21871e-09
7.91848e-09
8.58187e-09
9.22346e-09
9.8542e-09
1.04365e-08
1.09714e-08
1.1466e-08
1.19303e-08
1.23746e-08
1.28091e-08
1.32423e-08
1.36808e-08
1.4129e-08
1.45897e-08
1.50642e-08
1.55523e-08
1.60499e-08
1.65478e-08
1.70285e-08
1.74952e-08
1.80085e-08
1.90219e-08
2.17021e-08
0
0
3.69622e-10
3.64037e-12
0
0
0
0
0
0
0
0
0
1.81974e-10
5.80722e-10
1.04411e-09
1.57077e-09
2.15581e-09
2.79416e-09
3.48394e-09
4.21492e-09
4.94984e-09
5.72091e-09
6.52601e-09
7.34231e-09
8.14328e-09
8.90857e-09
9.62604e-09
1.02963e-08
1.09355e-08
1.15794e-08
1.21839e-08
1.27368e-08
1.32459e-08
1.37208e-08
1.41721e-08
1.46102e-08
1.50441e-08
1.54809e-08
1.59257e-08
1.63816e-08
1.68505e-08
1.73327e-08
1.7826e-08
1.83227e-08
1.88078e-08
1.92679e-08
1.97759e-08
2.07972e-08
2.35156e-08
0
0
3.80222e-10
4.46509e-11
0
0
0
0
0
0
0
2.97567e-10
6.70202e-10
1.1089e-09
1.60721e-09
2.162e-09
2.77101e-09
3.43166e-09
4.14384e-09
4.9102e-09
5.7184e-09
6.50997e-09
7.3283e-09
8.1775e-09
9.0309e-09
9.85934e-09
1.06422e-08
1.13687e-08
1.2039e-08
1.26706e-08
1.33127e-08
1.39503e-08
1.45322e-08
1.50654e-08
1.55594e-08
1.60249e-08
1.64724e-08
1.69114e-08
1.73497e-08
1.77931e-08
1.82456e-08
1.87095e-08
1.91856e-08
1.96734e-08
2.01673e-08
2.06561e-08
2.11169e-08
2.16188e-08
2.26481e-08
2.5405e-08
0
0
4.05482e-10
1.08182e-10
0
0
0
0
1.24832e-10
3.90616e-10
7.3088e-10
1.14819e-09
1.63711e-09
2.18721e-09
2.78911e-09
3.43709e-09
4.12831e-09
4.86297e-09
5.64619e-09
6.48494e-09
7.36377e-09
8.19632e-09
9.03528e-09
9.90089e-09
1.07654e-08
1.15994e-08
1.23834e-08
1.31083e-08
1.37722e-08
1.43916e-08
1.50151e-08
1.56942e-08
1.63226e-08
1.6896e-08
1.74228e-08
1.79138e-08
1.83798e-08
1.88309e-08
1.9276e-08
1.9722e-08
2.01738e-08
2.06344e-08
2.11054e-08
2.15873e-08
2.20773e-08
2.25667e-08
2.30364e-08
2.35334e-08
2.45696e-08
2.73637e-08
0
0
4.50569e-10
2.02766e-10
2.93852e-11
3.44808e-11
1.78783e-10
4.22417e-10
7.44041e-10
1.13873e-09
1.60896e-09
2.1541e-09
2.76571e-09
3.43082e-09
4.13744e-09
4.87764e-09
5.64842e-09
6.45325e-09
7.30268e-09
8.20758e-09
9.1481e-09
1.00024e-08
1.08255e-08
1.16692e-08
1.25087e-08
1.33183e-08
1.40812e-08
1.47901e-08
1.54404e-08
1.60434e-08
1.66436e-08
1.73481e-08
1.80563e-08
1.86959e-08
1.92771e-08
1.9811e-08
2.03094e-08
2.07836e-08
2.12438e-08
2.16984e-08
2.21539e-08
2.26144e-08
2.30823e-08
2.3559e-08
2.4044e-08
2.45318e-08
2.50098e-08
2.55131e-08
2.65532e-08
2.93806e-08
0
0
5.23531e-10
3.41197e-10
2.62213e-10
3.85082e-10
6.61573e-10
1.04455e-09
1.50845e-09
2.0459e-09
2.65655e-09
3.33639e-09
4.07419e-09
4.85486e-09
5.66425e-09
6.49267e-09
7.33743e-09
8.20573e-09
9.11372e-09
1.00757e-08
1.10656e-08
1.19179e-08
1.26756e-08
1.34442e-08
1.42084e-08
1.49512e-08
1.5662e-08
1.63348e-08
1.69621e-08
1.75436e-08
1.81223e-08
1.88311e-08
1.96577e-08
2.04034e-08
2.10718e-08
2.16751e-08
2.22268e-08
2.27404e-08
2.32282e-08
2.3701e-08
2.4167e-08
2.46323e-08
2.51007e-08
2.55742e-08
2.60539e-08
2.65382e-08
2.70183e-08
2.7539e-08
2.85853e-08
3.1438e-08
0
1.67013e-11
6.37234e-10
5.42958e-10
5.8489e-10
8.52618e-10
1.28598e-09
1.829e-09
2.45151e-09
3.14348e-09
3.90153e-09
4.71851e-09
5.58117e-09
6.4732e-09
7.3792e-09
8.2884e-09
9.19901e-09
1.0122e-08
1.10786e-08
1.20853e-08
1.3108e-08
1.3928e-08
1.45533e-08
1.51724e-08
1.57898e-08
1.64058e-08
1.702e-08
1.76282e-08
1.82175e-08
1.87719e-08
1.9329e-08
2.00317e-08
2.10199e-08
2.19302e-08
2.2735e-08
2.34468e-08
2.40825e-08
2.46592e-08
2.51929e-08
2.56974e-08
2.61841e-08
2.66613e-08
2.71349e-08
2.76086e-08
2.80844e-08
2.85632e-08
2.90414e-08
2.95708e-08
3.06435e-08
3.35089e-08
0
8.35033e-11
8.12722e-10
8.38114e-10
1.03497e-09
1.47928e-09
2.09571e-09
2.81841e-09
3.61299e-09
4.46707e-09
5.37427e-09
6.32496e-09
7.30518e-09
8.29877e-09
9.28987e-09
1.02674e-08
1.12312e-08
1.21965e-08
1.3189e-08
1.42254e-08
1.52587e-08
1.60053e-08
1.64113e-08
1.67827e-08
1.71574e-08
1.75643e-08
1.80204e-08
1.85244e-08
1.90538e-08
1.95724e-08
2.01044e-08
2.08067e-08
2.19807e-08
2.31509e-08
2.41634e-08
2.50402e-08
2.58042e-08
2.64783e-08
2.70839e-08
2.76398e-08
2.81613e-08
2.86604e-08
2.91457e-08
2.96233e-08
3.00973e-08
3.05702e-08
3.10427e-08
3.15727e-08
3.26689e-08
3.55494e-08
0
2.03953e-10
1.08503e-09
1.27381e-09
1.66771e-09
2.32322e-09
3.14723e-09
4.06466e-09
5.03868e-09
6.05509e-09
7.1053e-09
8.17724e-09
9.25918e-09
1.03374e-08
1.13972e-08
1.24272e-08
1.34283e-08
1.44194e-08
1.543e-08
1.64744e-08
1.74842e-08
1.80874e-08
1.81739e-08
1.81895e-08
1.8215e-08
1.8319e-08
1.85445e-08
1.88956e-08
1.93375e-08
1.98087e-08
2.03065e-08
2.10039e-08
2.23575e-08
2.39066e-08
2.52216e-08
2.63382e-08
2.72896e-08
2.81076e-08
2.88212e-08
2.94558e-08
3.00321e-08
3.05668e-08
3.10726e-08
3.1559e-08
3.20329e-08
3.24996e-08
3.29632e-08
3.34877e-08
3.4589e-08
3.74788e-08
0
4.16999e-10
1.51122e-09
1.92114e-09
2.56029e-09
3.45944e-09
4.5074e-09
5.62379e-09
6.77259e-09
7.93933e-09
9.11493e-09
1.02842e-08
1.14417e-08
1.25784e-08
1.36822e-08
1.47429e-08
1.57621e-08
1.67607e-08
1.77685e-08
1.87905e-08
1.97169e-08
2.00352e-08
1.972e-08
1.93171e-08
1.89365e-08
1.86849e-08
1.86337e-08
1.87947e-08
1.91234e-08
1.95356e-08
1.99853e-08
2.06366e-08
2.20319e-08
2.40434e-08
2.57582e-08
2.71969e-08
2.84044e-08
2.94229e-08
3.02901e-08
3.10384e-08
3.16953e-08
3.22831e-08
3.28199e-08
3.33198e-08
3.37944e-08
3.42531e-08
3.4704e-08
3.52161e-08
3.63037e-08
3.91561e-08
0
7.86045e-10
2.16715e-09
2.85739e-09
3.77767e-09
4.93069e-09
6.19308e-09
7.4888e-09
8.78359e-09
1.00665e-08
1.1329e-08
1.2551e-08
1.37433e-08
1.49032e-08
1.60202e-08
1.70834e-08
1.80946e-08
1.90755e-08
2.00507e-08
2.09996e-08
2.17118e-08
2.14997e-08
2.08159e-08
2.00804e-08
1.94043e-08
1.89013e-08
1.86457e-08
1.86514e-08
1.88728e-08
1.92232e-08
1.96184e-08