/*--------------------------------*- C++ -*----------------------------------*\
  =========                 |
  \\      /  F ield         | OpenFOAM: The Open Source CFD Toolbox
   \\    /   O peration     | Website:  https://openfoam.org
    \\  /    A nd           | Version:  7
     \\/     M anipulation  |
\*---------------------------------------------------------------------------*/
FoamFile
{
    version     2.0;
    format      ascii;
    class       surfaceScalarField;
    location    "0.23";
    object      phi;
}
// * * * * * * * * * * * * * * * * * * * * * * * * * * * * * * * * * * * * * //

dimensions      [0 3 -1 0 0 0 0];

internalField   nonuniform List<scalar> 
139350
(
6.45913e-08
9.20402e-08
3.19478e-08
3.26435e-08
2.30542e-08
8.89364e-09
1.95571e-08
3.49701e-09
1.76026e-08
1.95455e-09
1.61722e-08
1.43044e-09
1.50362e-08
1.13594e-09
1.41193e-08
9.1693e-10
1.33638e-08
7.55495e-10
1.27266e-08
6.37204e-10
1.21788e-08
5.47747e-10
1.17012e-08
4.77648e-10
1.12799e-08
4.21295e-10
1.09047e-08
3.75165e-10
1.05679e-08
3.36857e-10
1.02632e-08
3.04656e-10
9.98593e-09
2.77301e-10
9.73208e-09
2.53849e-10
9.49849e-09
2.33583e-10
9.28254e-09
2.15952e-10
9.08202e-09
2.00523e-10
8.89506e-09
1.86957e-10
8.72008e-09
1.74982e-10
8.5557e-09
1.6438e-10
8.40072e-09
1.54975e-10
8.2541e-09
1.46627e-10
8.11488e-09
1.39218e-10
7.98222e-09
1.32658e-10
7.85535e-09
1.26868e-10
7.73355e-09
1.218e-10
7.61616e-09
1.17397e-10
7.50251e-09
1.13649e-10
7.392e-09
1.10509e-10
7.28398e-09
1.08022e-10
7.17786e-09
1.06121e-10
7.07291e-09
1.04945e-10
6.96854e-09
1.04367e-10
6.86387e-09
1.04673e-10
6.75822e-09
1.05653e-10
6.65048e-09
1.07741e-10
6.53968e-09
1.10797e-10
6.42465e-09
1.15029e-10
6.3033e-09
1.21349e-10
6.17554e-09
1.27763e-10
6.03513e-09
1.40415e-10
5.88803e-09
1.47094e-10
5.71191e-09
1.76126e-10
5.54878e-09
1.63122e-10
5.20657e-09
3.42211e-10
-2.1945e-09
7.40107e-09
1.26024e-07
1.2746e-07
9.12571e-08
6.74105e-08
7.19297e-08
2.8221e-08
6.11957e-08
1.4231e-08
5.47421e-08
8.40816e-09
5.02406e-08
5.93197e-09
4.67484e-08
4.62812e-09
4.39242e-08
3.74114e-09
4.15888e-08
3.09091e-09
3.96175e-08
2.60851e-09
3.79232e-08
2.24204e-09
3.64458e-08
1.95498e-09
3.51428e-08
1.72437e-09
3.39823e-08
1.53559e-09
3.29404e-08
1.37876e-09
3.19982e-08
1.24686e-09
3.11408e-08
1.13473e-09
3.03561e-08
1.03853e-09
2.96344e-08
9.5532e-10
2.89675e-08
8.82853e-10
2.83487e-08
8.19361e-10
2.77722e-08
7.63452e-10
2.72331e-08
7.14012e-10
2.67274e-08
6.70149e-10
2.62512e-08
6.31136e-10
2.58014e-08
5.96386e-10
2.53752e-08
5.65419e-10
2.497e-08
5.37849e-10
2.45836e-08
5.13356e-10
2.42137e-08
4.91704e-10
2.38584e-08
4.7268e-10
2.35158e-08
4.56185e-10
2.31843e-08
4.42061e-10
2.28619e-08
4.30385e-10
2.25471e-08
4.2097e-10
2.22378e-08
4.14199e-10
2.19325e-08
4.09684e-10
2.16288e-08
4.08395e-10
2.1325e-08
4.09433e-10
2.10179e-08
4.14847e-10
2.07059e-08
4.22797e-10
2.0384e-08
4.36959e-10
2.00507e-08
4.54595e-10
1.96982e-08
4.80299e-10
1.93245e-08
5.14077e-10
1.89191e-08
5.52535e-10
1.84691e-08
6.26095e-10
1.80046e-08
6.27641e-10
1.73061e-08
1.04072e-09
-2.06943e-09
1.7181e-08
1.58806e-07
1.35058e-07
1.36488e-07
8.9728e-08
1.17479e-07
4.72303e-08
1.03291e-07
2.84187e-08
9.32734e-08
1.84259e-08
8.59599e-08
1.32455e-08
8.02417e-08
1.03463e-08
7.55776e-08
8.40521e-09
7.16856e-08
6.9829e-09
6.83789e-08
5.91521e-09
6.55244e-08
5.09659e-09
6.30272e-08
4.45215e-09
6.08188e-08
3.93275e-09
5.8848e-08
3.50641e-09
5.70754e-08
3.15137e-09
5.54702e-08
2.85209e-09
5.40077e-08
2.59717e-09
5.26682e-08
2.37806e-09
5.14353e-08
2.18823e-09
5.02955e-08
2.02262e-09
4.92376e-08
1.87728e-09
4.8252e-08
1.74908e-09
4.73305e-08
1.63551e-09
4.64661e-08
1.53455e-09
4.56526e-08
1.44455e-09
4.48848e-08
1.36418e-09
4.41579e-08
1.29233e-09
4.34677e-08
1.22812e-09
4.28102e-08
1.17081e-09
4.21821e-08
1.11983e-09
4.15801e-08
1.0747e-09
4.10011e-08
1.03513e-09
4.04424e-08
1.0008e-09
3.9901e-08
9.71746e-10
3.93744e-08
9.47631e-10
3.88595e-08
9.29101e-10
3.83537e-08
9.15416e-10
3.78536e-08
9.08498e-10
3.73567e-08
9.06332e-10
3.6858e-08
9.13619e-10
3.63555e-08
9.2521e-10
3.58409e-08
9.51571e-10
3.53145e-08
9.81079e-10
3.476e-08
1.03474e-09
3.4183e-08
1.09107e-09
3.35538e-08
1.18173e-09
3.28783e-08
1.30167e-09
3.21493e-08
1.35657e-09
3.12492e-08
1.94086e-09
-8.43703e-10
3.00235e-08
1.75663e-07
1.3091e-07
1.6559e-07
9.98013e-08
1.52711e-07
6.01092e-08
1.40101e-07
4.10287e-08
1.29399e-07
2.91282e-08
1.20741e-07
2.19029e-08
1.13614e-07
1.74736e-08
1.07617e-07
1.44021e-08
1.025e-07
1.21004e-08
9.80794e-08
1.03354e-08
9.42169e-08
8.95905e-09
9.08067e-08
7.8624e-09
8.77687e-08
6.97071e-09
8.50415e-08
6.23363e-09
8.25766e-08
5.61621e-09
8.03355e-08
5.09319e-09
7.82869e-08
4.64579e-09
7.64052e-08
4.2598e-09
7.46692e-08
3.92427e-09
7.30611e-08
3.63068e-09
7.1566e-08
3.37232e-09
7.01713e-08
3.14383e-09
6.88659e-08
2.94089e-09
6.76404e-08
2.76003e-09
6.64866e-08
2.59839e-09
6.53972e-08
2.45362e-09
6.43657e-08
2.32382e-09
6.33864e-08
2.2074e-09
6.24541e-08
2.10307e-09
6.15642e-08
2.0098e-09
6.07121e-08
1.92673e-09
5.9894e-08
1.8533e-09
5.91058e-08
1.78893e-09
5.8344e-08
1.73359e-09
5.76049e-08
1.68673e-09
5.68847e-08
1.64926e-09
5.61801e-08
1.62002e-09
5.54866e-08
1.60201e-09
5.48011e-08
1.59188e-09
5.41172e-08
1.59751e-09
5.34328e-08
1.60962e-09
5.27371e-08
1.64719e-09
5.20311e-08
1.68712e-09
5.12943e-08
1.77155e-09
5.05344e-08
1.85094e-09
4.97141e-08
2.00208e-09
4.8843e-08
2.1727e-09
4.78967e-08
2.30294e-09
4.68202e-08
3.01736e-09
8.10986e-10
4.51655e-08
1.84559e-07
1.23136e-07
1.82317e-07
1.02043e-07
1.76093e-07
6.6334e-08
1.67739e-07
4.93819e-08
1.59103e-07
3.77645e-08
1.51178e-07
2.98278e-08
1.44088e-07
2.45637e-08
1.3777e-07
2.07207e-08
1.32149e-07
1.77209e-08
1.27143e-07
1.53417e-08
1.22665e-07
1.34366e-08
1.1864e-07
1.18877e-08
1.15002e-07
1.06083e-08
1.11699e-07
9.53729e-09
1.08684e-07
8.63077e-09
1.05921e-07
7.85609e-09
1.03379e-07
7.18848e-09
1.0103e-07
6.60878e-09
9.88518e-08
6.10204e-09
9.68261e-08
5.65644e-09
9.49359e-08
5.26255e-09
9.31669e-08
4.91278e-09
9.15068e-08
4.60097e-09
8.99448e-08
4.32208e-09
8.84712e-08
4.07197e-09
8.70776e-08
3.84721e-09
8.57565e-08
3.64498e-09
8.45009e-08
3.46292e-09
8.33049e-08
3.29912e-09
8.21627e-08
3.15199e-09
8.10692e-08
3.02027e-09
8.00194e-08
2.90303e-09
7.90089e-08
2.79943e-09
7.80332e-08
2.7093e-09
7.70881e-08
2.63187e-09
7.6169e-08
2.56828e-09
7.52721e-08
2.51693e-09
7.43922e-08
2.48192e-09
7.35256e-08
2.45854e-09
7.26652e-08
2.45791e-09
7.18081e-08
2.46664e-09
7.09431e-08
2.51223e-09
7.00698e-08
2.56042e-09
6.91674e-08
2.6739e-09
6.8241e-08
2.7774e-09
6.72557e-08
2.98732e-09
6.62118e-08
3.21668e-09
6.5089e-08
3.42572e-09
6.38373e-08
4.26908e-09
2.67362e-09
6.19746e-08
1.90388e-07
1.14965e-07
1.91849e-07
1.00582e-07
1.90236e-07
6.7947e-08
1.86137e-07
5.34809e-08
1.80686e-07
4.32153e-08
1.74916e-07
3.55975e-08
1.69202e-07
3.02783e-08
1.63698e-07
2.62245e-08
1.58501e-07
2.29176e-08
1.53654e-07
2.01888e-08
1.4916e-07
1.7931e-08
1.45002e-07
1.60457e-08
1.41156e-07
1.4454e-08
1.37596e-07
1.3097e-08
1.34296e-07
1.19307e-08
1.31231e-07
1.0921e-08
1.28379e-07
1.00411e-08
1.25718e-07
9.26974e-09
1.2323e-07
8.58972e-09
1.20899e-07
7.9873e-09
1.1871e-07
7.45128e-09
1.16651e-07
6.97247e-09
1.14708e-07
6.54333e-09
1.12873e-07
6.15759e-09
1.11135e-07
5.81005e-09
1.09486e-07
5.49637e-09
1.07918e-07
5.21292e-09
1.06424e-07
4.95665e-09
1.04998e-07
4.72508e-09
1.03634e-07
4.51611e-09
1.02326e-07
4.32808e-09
1.01069e-07
4.15972e-09
9.98588e-08
4.00993e-09
9.86897e-08
3.87839e-09
9.75575e-08
3.76415e-09
9.64572e-08
3.66852e-09
9.53846e-08
3.58957e-09
9.43342e-08
3.53235e-09
9.33017e-08
3.49104e-09
9.228e-08
3.47959e-09
9.12653e-08
3.4813e-09
9.02467e-08
3.53081e-09
8.92218e-08
3.58535e-09
8.81723e-08
3.72339e-09
8.70968e-08
3.85296e-09
8.59699e-08
4.11413e-09
8.47755e-08
4.41109e-09
8.35059e-08
4.69538e-09
8.2105e-08
5.67e-09
4.68978e-09
8.00888e-08
1.9554e-07
1.0724e-07
1.98245e-07
9.78776e-08
1.98962e-07
6.72298e-08
1.97774e-07
5.46683e-08
1.95132e-07
4.58576e-08
1.91777e-07
3.89529e-08
1.88028e-07
3.40268e-08
1.84058e-07
3.01943e-08
1.80017e-07
2.69592e-08
1.76014e-07
2.41917e-08
1.72118e-07
2.18268e-08
1.68368e-07
1.97955e-08
1.64785e-07
1.80374e-08
1.61376e-07
1.65058e-08
1.58143e-07
1.51642e-08
1.5508e-07
1.39835e-08
1.52182e-07
1.29397e-08
1.49438e-07
1.20129e-08
1.46841e-07
1.11867e-08
1.44381e-07
1.04476e-08
1.42048e-07
9.78403e-09
1.39834e-07
9.18657e-09
1.3773e-07
8.64722e-09
1.35729e-07
8.15923e-09
1.33822e-07
7.71692e-09
1.32003e-07
7.31545e-09
1.30265e-07
6.95076e-09
1.28602e-07
6.61937e-09
1.27009e-07
6.31843e-09
1.25479e-07
6.04551e-09
1.24009e-07
5.79867e-09
1.22592e-07
5.57641e-09
1.21225e-07
5.37745e-09
1.19902e-07
5.2014e-09
1.18619e-07
5.04718e-09
1.17371e-07
4.91628e-09
1.16154e-07
4.80658e-09
1.14962e-07
4.72387e-09
1.13792e-07
4.66171e-09
1.12635e-07
4.63611e-09
1.11488e-07
4.62843e-09
1.10341e-07
4.67818e-09
1.09188e-07
4.73806e-09
1.08016e-07
4.89545e-09
1.06815e-07
5.05335e-09
1.05573e-07
5.35708e-09
1.04257e-07
5.7271e-09
1.02865e-07
6.08664e-09
1.01353e-07
7.18248e-09
6.80708e-09
9.92355e-08
2.00847e-07
9.99772e-08
2.03773e-07
9.49519e-08
2.05321e-07
6.56823e-08
2.0563e-07
5.43585e-08
2.04795e-07
4.66926e-08
2.03303e-07
4.04455e-08
2.01341e-07
3.59889e-08
1.98993e-07
3.25416e-08
1.96367e-07
2.95859e-08
1.93563e-07
2.6995e-08
1.90665e-07
2.47257e-08
1.87731e-07
2.27296e-08
1.84806e-07
2.09621e-08
1.81923e-07
1.9389e-08
1.79103e-07
1.79839e-08
1.76361e-07
1.67251e-08
1.73707e-07
1.55942e-08
1.71144e-07
1.45754e-08
1.68676e-07
1.36553e-08
1.66301e-07
1.28223e-08
1.64019e-07
1.20665e-08
1.61826e-07
1.13793e-08
1.5972e-07
1.07534e-08
1.57696e-07
1.01826e-08
1.55752e-07
9.66134e-09
1.53882e-07
9.185e-09
1.52083e-07
8.74954e-09
1.50351e-07
8.3515e-09
1.48682e-07
7.98799e-09
1.47071e-07
7.65652e-09
1.45514e-07
7.3551e-09
1.44009e-07
7.0822e-09
1.42549e-07
6.83654e-09
1.41133e-07
6.61773e-09
1.39756e-07
6.42472e-09
1.38413e-07
6.25921e-09
1.371e-07
6.11908e-09
1.35813e-07
6.01072e-09
1.34548e-07
5.92751e-09
1.33297e-07
5.8868e-09
1.32056e-07
5.86941e-09
1.30817e-07
5.91733e-09
1.29572e-07
5.98285e-09
1.28312e-07
6.15552e-09
1.27022e-07
6.34371e-09
1.25695e-07
6.68339e-09
1.24295e-07
7.12718e-09
1.22815e-07
7.56653e-09
1.21231e-07
8.7671e-09
8.95713e-09
1.19081e-07
2.06446e-07
9.30631e-08
2.09336e-07
9.20616e-08
2.1103e-07
6.39885e-08
2.11919e-07
5.34698e-08
2.11981e-07
4.66308e-08
2.11585e-07
4.08413e-08
2.10843e-07
3.67305e-08
2.09758e-07
3.36265e-08
2.08367e-07
3.09767e-08
2.06729e-07
2.86335e-08
2.04899e-07
2.6556e-08
2.02926e-07
2.47025e-08
2.00853e-07
2.3035e-08
1.98716e-07
2.15259e-08
1.96544e-07
2.01555e-08
1.94362e-07
1.89078e-08
1.92186e-07
1.77698e-08
1.90032e-07
1.67298e-08
1.87909e-07
1.57779e-08
1.85826e-07
1.49055e-08
1.83788e-07
1.41047e-08
1.81798e-07
1.33689e-08
1.79859e-07
1.26922e-08
1.77972e-07
1.20694e-08
1.76138e-07
1.14959e-08
1.74355e-07
1.09678e-08
1.72623e-07
1.04816e-08
1.7094e-07
1.00342e-08
1.69305e-07
9.62305e-09
1.67716e-07
9.24596e-09
1.6617e-07
8.90115e-09
1.64665e-07
8.58726e-09
1.63198e-07
8.3032e-09
1.61767e-07
8.04875e-09
1.60369e-07
7.82307e-09
1.59e-07
7.62812e-09
1.57657e-07
7.46199e-09
1.56336e-07
7.33152e-09
1.55033e-07
7.23039e-09
1.53743e-07
7.17664e-09
1.52461e-07
7.15181e-09
1.5118e-07
7.1983e-09
1.49891e-07
7.27138e-09
1.4859e-07
7.45744e-09
1.47256e-07
7.6777e-09
1.45889e-07
8.04972e-09
1.44452e-07
8.56469e-09
1.42928e-07
9.0898e-09
1.41317e-07
1.03783e-08
1.10697e-08
1.39205e-07
2.12288e-07
8.64374e-08
2.15149e-07
8.92004e-08
2.16784e-07
6.23534e-08
2.17831e-07
5.2423e-08
2.1824e-07
4.62223e-08
2.18347e-07
4.07337e-08
2.18261e-07
3.6817e-08
2.17949e-07
3.39384e-08
2.17404e-07
3.15218e-08
2.16644e-07
2.93934e-08
2.15693e-07
2.75066e-08
2.14577e-07
2.58186e-08
2.13321e-07
2.42908e-08
2.11951e-07
2.28962e-08
2.1049e-07
2.16166e-08
2.08959e-07
2.04385e-08
2.07378e-07
1.93514e-08
2.05761e-07
1.83465e-08
2.04123e-07
1.74161e-08
2.02474e-07
1.65539e-08
2.00825e-07
1.57541e-08
1.99182e-07
1.50117e-08
1.97552e-07
1.43224e-08
1.95939e-07
1.36822e-08
1.94347e-07
1.30878e-08
1.92779e-07
1.25361e-08
1.91236e-07
1.20244e-08
1.8972e-07
1.15503e-08
1.88231e-07
1.1112e-08
1.86769e-07
1.07075e-08
1.85335e-07
1.03356e-08
1.83927e-07
9.9954e-09
1.82544e-07
9.68601e-09
1.81185e-07
9.40761e-09
1.79849e-07
9.15966e-09
1.78532e-07
8.94448e-09
1.77234e-07
8.76054e-09
1.7595e-07
8.61505e-09
1.74678e-07
8.50236e-09
1.73414e-07
8.44068e-09
1.72153e-07
8.41324e-09
1.7089e-07
8.4613e-09
1.69616e-07
8.54554e-09
1.68327e-07
8.74557e-09
1.67005e-07
8.99975e-09
1.65652e-07
9.40328e-09
1.64231e-07
9.98514e-09
1.6272e-07
1.06008e-08
1.61137e-07
1.1962e-08
1.30767e-08
1.5913e-07
2.18329e-07
8.0089e-08
2.21203e-07
8.63268e-08
2.22757e-07
6.07993e-08
2.2383e-07
5.13496e-08
2.24348e-07
4.57045e-08
2.24634e-07
4.04482e-08
2.24824e-07
3.66266e-08
2.24891e-07
3.38711e-08
2.24813e-07
3.15997e-08
2.2459e-07
2.96166e-08
2.24226e-07
2.78708e-08
2.23727e-07
2.63176e-08
2.23102e-07
2.49156e-08
2.22363e-07
2.36355e-08
2.21522e-07
2.24578e-08
2.20591e-07
2.13688e-08
2.19585e-07
2.03579e-08
2.18514e-07
1.9417e-08
2.17391e-07
1.85394e-08
2.16225e-07
1.77197e-08
2.15026e-07
1.69533e-08
2.13802e-07
1.62362e-08
2.12559e-07
1.55651e-08
2.11304e-07
1.4937e-08
2.10042e-07
1.43495e-08
2.08778e-07
1.38003e-08
2.07515e-07
1.32876e-08
2.06256e-07
1.28097e-08
2.05002e-07
1.23652e-08
2.03757e-07
1.19529e-08
2.02521e-07
1.1572e-08
2.01294e-07
1.1222e-08
2.00078e-07
1.09026e-08
1.98871e-07
1.06142e-08
1.97674e-07
1.03567e-08
1.96485e-07
1.01329e-08
1.95304e-07
9.94174e-09
1.94129e-07
9.79069e-09
1.92956e-07
9.67498e-09
1.91784e-07
9.6127e-09
1.90608e-07
9.58937e-09
1.89425e-07
9.64404e-09
1.88226e-07
9.7443e-09
1.87011e-07
9.96083e-09
1.8576e-07
1.02509e-08
1.84476e-07
1.06871e-08
1.83131e-07
1.13307e-08
1.81692e-07
1.20391e-08
1.80195e-07
1.34595e-08
1.49141e-08
1.78357e-07
2.24558e-07
7.40244e-08
2.27467e-07
8.34178e-08
2.28953e-07
5.93129e-08
2.30032e-07
5.02711e-08
2.30591e-07
4.51456e-08
2.30925e-07
4.01141e-08
2.31205e-07
3.63468e-08
2.3142e-07
3.36554e-08
2.31552e-07
3.14684e-08
2.31597e-07
2.95717e-08
2.31554e-07
2.79129e-08
2.31423e-07
2.64486e-08
2.31203e-07
2.5136e-08
2.30895e-07
2.39437e-08
2.30503e-07
2.28501e-08
2.30031e-07
2.18402e-08
2.29486e-07
2.09028e-08
2.28874e-07
2.0029e-08
2.28202e-07
1.9212e-08
2.27475e-07
1.84462e-08
2.26701e-07
1.77272e-08
2.25886e-07
1.70514e-08
2.25035e-07
1.64157e-08
2.24155e-07
1.58178e-08
2.23249e-07
1.52555e-08
2.22322e-07
1.47273e-08
2.21378e-07
1.42317e-08
2.2042e-07
1.37676e-08
2.19451e-07
1.3334e-08
2.18473e-07
1.29304e-08
2.17489e-07
1.25562e-08
2.165e-07
1.22113e-08
2.15506e-07
1.18959e-08
2.1451e-07
1.16108e-08
2.1351e-07
1.13563e-08
2.12508e-07
1.11355e-08
2.11501e-07
1.09479e-08
2.10491e-07
1.08011e-08
2.09475e-07
1.06915e-08
2.08451e-07
1.06366e-08
2.07415e-07
1.06246e-08
2.06368e-07
1.06918e-08
2.05299e-07
1.08132e-08
2.0421e-07
1.10498e-08
2.03083e-07
1.13773e-08
2.01922e-07
1.18482e-08
2.00705e-07
1.2548e-08
1.99396e-07
1.33479e-08
1.98041e-07
1.4815e-08
1.65275e-08
1.96427e-07
2.30979e-07
6.82517e-08
2.33931e-07
8.04651e-08
2.35358e-07
5.78858e-08
2.36443e-07
4.91867e-08
2.37035e-07
4.45534e-08
2.37384e-07
3.97649e-08
2.37685e-07
3.60456e-08
2.37947e-07
3.33941e-08
2.38154e-07
3.12614e-08
2.38308e-07
2.94172e-08
2.38412e-07
2.78089e-08
2.38464e-07
2.6397e-08
2.3846e-07
2.51395e-08
2.384e-07
2.40038e-08
2.38282e-07
2.29677e-08
2.38107e-07
2.20152e-08
2.37876e-07
2.1134e-08
2.37591e-07
2.03147e-08
2.37253e-07
1.95497e-08
2.36866e-07
1.88331e-08
2.36433e-07
1.81602e-08
2.35957e-07
1.7527e-08
2.35442e-07
1.69306e-08
2.34892e-07
1.63684e-08
2.34309e-07
1.58386e-08
2.33696e-07
1.53396e-08
2.33058e-07
1.48702e-08
2.32396e-07
1.44296e-08
2.31713e-07
1.40172e-08
2.31011e-07
1.36325e-08
2.30291e-07
1.32754e-08
2.29557e-07
1.29461e-08
2.28808e-07
1.26449e-08
2.28045e-07
1.23731e-08
2.27271e-07
1.21312e-08
2.26484e-07
1.19226e-08
2.25684e-07
1.17472e-08
2.24872e-07
1.1613e-08
2.24047e-07
1.15171e-08
2.23207e-07
1.14765e-08
2.22349e-07
1.14823e-08
2.21474e-07
1.15671e-08
2.20573e-07
1.1714e-08
2.19649e-07
1.1974e-08
2.18687e-07
1.23395e-08
2.17688e-07
1.28469e-08
2.1664e-07
1.35964e-08
2.15505e-07
1.44827e-08
2.14335e-07
1.59851e-08
1.78792e-08
2.12983e-07
2.376e-07
6.27768e-08
2.40599e-07
7.74661e-08
2.41969e-07
5.65159e-08
2.43058e-07
4.80975e-08
2.43687e-07
4.39243e-08
2.44049e-07
3.94026e-08
2.44355e-07
3.57395e-08
2.44629e-07
3.31206e-08
2.44858e-07
3.1032e-08
2.45049e-07
2.92265e-08
2.45207e-07
2.76507e-08
2.45334e-07
2.62703e-08
2.45428e-07
2.50453e-08
2.45488e-07
2.39438e-08
2.45513e-07
2.2943e-08
2.45501e-07
2.20269e-08
2.45452e-07
2.11829e-08
2.45366e-07
2.04011e-08
2.45242e-07
1.96737e-08
2.45081e-07
1.89942e-08
2.44883e-07
1.83576e-08
2.4465e-07
1.77597e-08
2.44384e-07
1.71971e-08
2.44085e-07
1.66672e-08
2.43756e-07
1.6168e-08
2.43397e-07
1.5698e-08
2.43012e-07
1.52559e-08
2.426e-07
1.48409e-08
2.42165e-07
1.44525e-08
2.41707e-07
1.40904e-08
2.41228e-07
1.37547e-08
2.40728e-07
1.34456e-08
2.40209e-07
1.31637e-08
2.39672e-07
1.29105e-08
2.39116e-07
1.26866e-08
2.38543e-07
1.24957e-08
2.37953e-07
1.23381e-08
2.37344e-07
1.22215e-08
2.36717e-07
1.21444e-08
2.36071e-07
1.21226e-08
2.35403e-07
1.21502e-08
2.34713e-07
1.22562e-08
2.33997e-07
1.24309e-08
2.33254e-07
1.27164e-08
2.32475e-07
1.31187e-08
2.31659e-07
1.3663e-08
2.308e-07
1.44554e-08
2.29863e-07
1.54192e-08
2.28903e-07
1.69454e-08
1.89541e-08
2.27828e-07
2.4443e-07
5.76033e-08
2.47468e-07
7.44275e-08
2.48789e-07
5.51952e-08
2.49878e-07
4.70083e-08
2.50546e-07
4.32567e-08
2.50925e-07
3.90236e-08
2.51235e-07
3.54292e-08
2.51514e-07
3.28421e-08
2.5175e-07
3.07953e-08
2.51952e-07
2.90253e-08
2.52126e-07
2.74759e-08
2.52279e-07
2.6118e-08
2.52409e-07
2.49148e-08
2.52518e-07
2.38348e-08
2.52605e-07
2.28559e-08
2.5267e-07
2.19622e-08
2.52712e-07
2.11413e-08
2.52729e-07
2.03833e-08
2.52723e-07
1.96802e-08
2.52692e-07
1.90256e-08
2.52635e-07
1.8414e-08
2.52554e-07
1.78413e-08
2.52447e-07
1.73037e-08
2.52316e-07
1.67986e-08
2.5216e-07
1.63237e-08
2.51981e-07
1.58773e-08
2.51778e-07
1.54584e-08
2.51553e-07
1.50658e-08
2.51306e-07
1.46993e-08
2.51038e-07
1.43585e-08
2.5075e-07
1.40434e-08
2.50441e-07
1.37546e-08
2.50112e-07
1.34925e-08
2.49764e-07
1.32588e-08
2.49396e-07
1.30542e-08
2.49009e-07
1.28826e-08
2.48603e-07
1.27444e-08
2.48177e-07
1.26474e-08
2.47731e-07
1.25909e-08
2.47264e-07
1.25896e-08
2.46773e-07
1.26404e-08
2.46261e-07
1.27687e-08
2.4572e-07
1.29713e-08
2.45154e-07
1.32825e-08
2.44554e-07
1.37188e-08
2.43919e-07
1.42984e-08
2.43248e-07
1.51262e-08
2.42512e-07
1.61555e-08
2.41763e-07
1.76943e-08
1.97609e-08
2.40956e-07
2.51477e-07
5.27331e-08
2.54546e-07
7.13587e-08
2.55828e-07
5.39131e-08
2.56912e-07
4.59245e-08
2.57617e-07
4.25518e-08
2.58015e-07
3.86247e-08
2.58331e-07
3.51136e-08
2.58614e-07
3.25588e-08
2.58856e-07
3.0554e-08
2.59061e-07
2.88201e-08
2.59241e-07
2.72962e-08
2.594e-07
2.59584e-08
2.59542e-07
2.47729e-08
2.59668e-07
2.37093e-08
2.59778e-07
2.27459e-08
2.59872e-07
2.18673e-08
2.59952e-07
2.10614e-08
2.60017e-07
2.03186e-08
2.60066e-07
1.96312e-08
2.60099e-07
1.89925e-08
2.60116e-07
1.83973e-08
2.60116e-07
1.78412e-08
2.60099e-07
1.73206e-08
2.60065e-07
1.68327e-08
2.60013e-07
1.6375e-08
2.59945e-07
1.5946e-08
2.59859e-07
1.55443e-08
2.59756e-07
1.5169e-08
2.59635e-07
1.48197e-08
2.59498e-07
1.44962e-08
2.59343e-07
1.41984e-08
2.5917e-07
1.39269e-08
2.58981e-07
1.36822e-08
2.58773e-07
1.3466e-08
2.58548e-07
1.32792e-08
2.58305e-07
1.31255e-08
2.58044e-07
1.30058e-08
2.57764e-07
1.29275e-08
2.57464e-07
1.28908e-08
2.57144e-07
1.29093e-08
2.56802e-07
1.29824e-08
2.56439e-07
1.31321e-08
2.5605e-07
1.33606e-08
2.55636e-07
1.36961e-08
2.55193e-07
1.41619e-08
2.54718e-07
1.47736e-08
2.54215e-07
1.56289e-08
2.53661e-07
1.67098e-08
2.53105e-07
1.82504e-08
2.03294e-08
2.52536e-07
2.5875e-07
4.81661e-08
2.61839e-07
6.82699e-08
2.63093e-07
5.26593e-08
2.64166e-07
4.48512e-08
2.64906e-07
4.18119e-08
2.65326e-07
3.82041e-08
2.65649e-07
3.47915e-08
2.65937e-07
3.22703e-08
2.66183e-07
3.03076e-08
2.66392e-07
2.86115e-08
2.66574e-07
2.71142e-08
2.66736e-07
2.57963e-08
2.66881e-07
2.46277e-08
2.67011e-07
2.3579e-08
2.67128e-07
2.2629e-08
2.67233e-07
2.17625e-08
2.67326e-07
2.09681e-08
2.67409e-07
2.02364e-08
2.6748e-07
1.95599e-08
2.6754e-07
1.89322e-08
2.6759e-07
1.8348e-08
2.67628e-07
1.78032e-08
2.67654e-07
1.7294e-08
2.67669e-07
1.68176e-08
2.67673e-07
1.63717e-08
2.67664e-07
1.59546e-08
2.67643e-07
1.55651e-08
2.6761e-07
1.52023e-08
2.67564e-07
1.48656e-08
2.67505e-07
1.45549e-08
2.67433e-07
1.42704e-08
2.67348e-07
1.40124e-08
2.67248e-07
1.37816e-08
2.67135e-07
1.35798e-08
2.67006e-07
1.34078e-08
2.66862e-07
1.32694e-08
2.66702e-07
1.31657e-08
2.66526e-07
1.31037e-08
2.66332e-07
1.30847e-08
2.66121e-07
1.31208e-08
2.65889e-07
1.32137e-08
2.65639e-07
1.33827e-08
2.65365e-07
1.36338e-08
2.65071e-07
1.39909e-08
2.64751e-07
1.44812e-08
2.64404e-07
1.51205e-08
2.64038e-07
1.59957e-08
2.63634e-07
1.71138e-08
2.63238e-07
1.8646e-08
2.07025e-08
2.62865e-07
2.66258e-07
4.39008e-08
2.69356e-07
6.51714e-08
2.70592e-07
5.1423e-08
2.71651e-07
4.37929e-08
2.72422e-07
4.10405e-08
2.72866e-07
3.776e-08
2.73195e-07
3.4462e-08
2.73489e-07
3.19767e-08
2.73741e-07
3.00558e-08
2.73953e-07
2.83991e-08
2.74138e-07
2.69299e-08
2.74301e-07
2.56327e-08
2.74448e-07
2.44812e-08
2.74579e-07
2.34474e-08
2.74698e-07
2.25102e-08
2.74806e-07
2.16551e-08
2.74903e-07
2.0871e-08
2.7499e-07
2.01489e-08
2.75069e-07
1.94814e-08
2.75138e-07
1.88623e-08
2.752e-07
1.82867e-08
2.75253e-07
1.77502e-08
2.75298e-07
1.72493e-08
2.75334e-07
1.67812e-08
2.75362e-07
1.63438e-08
2.75381e-07
1.59352e-08
2.75392e-07
1.55543e-08
2.75394e-07
1.52004e-08
2.75387e-07
1.48729e-08
2.7537e-07
1.45717e-08
2.75343e-07
1.4297e-08
2.75306e-07
1.40493e-08
2.75259e-07
1.38294e-08
2.752e-07
1.36388e-08
2.75129e-07
1.34788e-08
2.75045e-07
1.33528e-08
2.74949e-07
1.32623e-08
2.74838e-07
1.32141e-08
2.74713e-07
1.32099e-08
2.74573e-07
1.32612e-08
2.74415e-07
1.3371e-08
2.74241e-07
1.35565e-08
2.74048e-07
1.38268e-08
2.73837e-07
1.42024e-08
2.73606e-07
1.47122e-08
2.73352e-07
1.5374e-08
2.73086e-07
1.62623e-08
2.72795e-07
1.74041e-08
2.72523e-07
1.89189e-08
2.09278e-08
2.72297e-07
2.74008e-07
3.99336e-08
2.77105e-07
6.20744e-08
2.78334e-07
5.01943e-08
2.79374e-07
4.2753e-08
2.80173e-07
4.02417e-08
2.80642e-07
3.72909e-08
2.8098e-07
3.41244e-08
2.81278e-07
3.16779e-08
2.81536e-07
2.97984e-08
2.81752e-07
2.81826e-08
2.81939e-07
2.6743e-08
2.82105e-07
2.54674e-08
2.82252e-07
2.43336e-08
2.82385e-07
2.33149e-08
2.82504e-07
2.23908e-08
2.82612e-07
2.15472e-08
2.8271e-07
2.07733e-08
2.82798e-07
2.00603e-08
2.82878e-07
1.94012e-08
2.82951e-07
1.87901e-08
2.83015e-07
1.82219e-08
2.83073e-07
1.76926e-08
2.83124e-07
1.71987e-08
2.83167e-07
1.67374e-08
2.83205e-07
1.63067e-08
2.83235e-07
1.59048e-08
2.83259e-07
1.55306e-08
2.83275e-07
1.51835e-08
2.83285e-07
1.48631e-08
2.83288e-07
1.45692e-08
2.83283e-07
1.43022e-08
2.83269e-07
1.40626e-08
2.83247e-07
1.38512e-08
2.83217e-07
1.36697e-08
2.83176e-07
1.35194e-08
2.83125e-07
1.34036e-08
2.83063e-07
1.33242e-08
2.8299e-07
1.32874e-08
2.82904e-07
1.32959e-08
2.82805e-07
1.33599e-08
2.82692e-07
1.34841e-08
2.82565e-07
1.36837e-08
2.82422e-07
1.39698e-08
2.82263e-07
1.43612e-08
2.82089e-07
1.48861e-08
2.81898e-07
1.55655e-08
2.81699e-07
1.64613e-08
2.81488e-07
1.76146e-08
2.81303e-07
1.91045e-08
2.10489e-08
2.81181e-07
2.82012e-07
3.62593e-08
2.85096e-07
5.89903e-08
2.86327e-07
4.89634e-08
2.87345e-07
4.17343e-08
2.88167e-07
3.94202e-08
2.88662e-07
3.67955e-08
2.8901e-07
3.37773e-08
2.89313e-07
3.1374e-08
2.89576e-07
2.95353e-08
2.89798e-07
2.79615e-08
2.89987e-07
2.65533e-08
2.90155e-07
2.53001e-08
2.90304e-07
2.41846e-08
2.90437e-07
2.31816e-08
2.90557e-07
2.2271e-08
2.90665e-07
2.14391e-08
2.90762e-07
2.06755e-08
2.90851e-07
1.99718e-08
2.90931e-07
1.93212e-08
2.91003e-07
1.87178e-08
2.91068e-07
1.81569e-08
2.91126e-07
1.76344e-08
2.91178e-07
1.7147e-08
2.91224e-07
1.6692e-08
2.91263e-07
1.62673e-08
2.91296e-07
1.58713e-08
2.91324e-07
1.5503e-08
2.91346e-07
1.51617e-08
2.91362e-07
1.48473e-08
2.91371e-07
1.45596e-08
2.91374e-07
1.42991e-08
2.91371e-07
1.40663e-08
2.9136e-07
1.38622e-08
2.91341e-07
1.36884e-08
2.91314e-07
1.35464e-08
2.91278e-07
1.34394e-08
2.91233e-07
1.33695e-08
2.91178e-07
1.33426e-08
2.91112e-07
1.33621e-08
2.91034e-07
1.34372e-08
2.90945e-07
1.35738e-08
2.90843e-07
1.37857e-08
2.90727e-07
1.40851e-08
2.90599e-07
1.44897e-08
2.90458e-07
1.50264e-08
2.90305e-07
1.57191e-08
2.90148e-07
1.66179e-08
2.8999e-07
1.77726e-08
2.89863e-07
1.92316e-08
2.11013e-08
2.89811e-07
2.90277e-07
3.28707e-08
2.93337e-07
5.5931e-08
2.94579e-07
4.77215e-08
2.95574e-07
4.07387e-08
2.96413e-07
3.85812e-08
2.96936e-07
3.62728e-08
2.97294e-07
3.34194e-08
2.97603e-07
3.10652e-08
2.97872e-07
2.92664e-08
2.98097e-07
2.77355e-08
2.9829e-07
2.63603e-08
2.9846e-07
2.51308e-08
2.9861e-07
2.40341e-08
2.98744e-07
2.30472e-08
2.98865e-07
2.21507e-08
2.98973e-07
2.13309e-08
2.99071e-07
2.05778e-08
2.99159e-07
1.98836e-08
2.99239e-07
1.92416e-08
2.9931e-07
1.86461e-08
2.99375e-07
1.80925e-08
2.99432e-07
1.75769e-08
2.99483e-07
1.70959e-08
2.99528e-07
1.6647e-08
2.99568e-07
1.62281e-08
2.99601e-07
1.58378e-08
2.99629e-07
1.5475e-08
2.99651e-07
1.51393e-08
2.99668e-07
1.48304e-08
2.99679e-07
1.45485e-08
2.99685e-07
1.42939e-08
2.99683e-07
1.40674e-08
2.99676e-07
1.387e-08
2.99661e-07
1.37032e-08
2.99639e-07
1.35687e-08
2.99608e-07
1.34697e-08
2.99569e-07
1.34085e-08
2.99521e-07
1.33907e-08
2.99463e-07
1.342e-08
2.99395e-07
1.35052e-08
2.99316e-07
1.36529e-08
2.99226e-07
1.38758e-08
2.99125e-07
1.41866e-08
2.99012e-07
1.46026e-08
2.9889e-07
1.51485e-08
2.98758e-07
1.58506e-08
2.98627e-07
1.67489e-08
2.98503e-07
1.7897e-08
2.98414e-07
1.93206e-08
2.11099e-08
2.98405e-07
2.98814e-07
2.97591e-08
3.01837e-07
5.29082e-08
3.03098e-07
4.64608e-08
3.04069e-07
3.97669e-08
3.0492e-07
3.77301e-08
3.05471e-07
3.57224e-08
3.05841e-07
3.30491e-08
3.06155e-07
3.07514e-08
3.06429e-07
2.8992e-08
3.06661e-07
2.75044e-08
3.06857e-07
2.61639e-08
3.07029e-07
2.49592e-08
3.07181e-07
2.3882e-08
3.07316e-07
2.29118e-08
3.07437e-07
2.20296e-08
3.07546e-07
2.12222e-08
3.07644e-07
2.04801e-08
3.07732e-07
1.97957e-08
3.07811e-07
1.91624e-08
3.07882e-07
1.8575e-08
3.07945e-07
1.80289e-08
3.08002e-07
1.75202e-08
3.08052e-07
1.70458e-08
3.08096e-07
1.66031e-08
3.08134e-07
1.619e-08
3.08167e-07
1.58053e-08
3.08194e-07
1.54481e-08
3.08215e-07
1.51178e-08
3.08231e-07
1.48144e-08
3.08242e-07
1.45381e-08
3.08246e-07
1.42893e-08
3.08245e-07
1.40689e-08
3.08237e-07
1.38778e-08
3.08222e-07
1.37178e-08
3.08201e-07
1.35905e-08
3.08171e-07
1.34992e-08
3.08133e-07
1.34462e-08
3.08087e-07
1.34369e-08
3.08031e-07
1.34756e-08
3.07966e-07
1.35703e-08
3.07891e-07
1.37281e-08
3.07806e-07
1.39611e-08
3.0771e-07
1.4282e-08
3.07605e-07
1.4708e-08
3.07492e-07
1.52611e-08
3.07374e-07
1.59695e-08
3.07258e-07
1.68644e-08
3.07156e-07
1.79995e-08
3.07092e-07
1.93841e-08
2.10909e-08
3.07111e-07
3.07633e-07
2.69137e-08
3.10607e-07
4.99343e-08
3.11893e-07
4.51745e-08
3.12841e-07
3.88191e-08
3.13698e-07
3.68724e-08
3.14276e-07
3.51447e-08
3.1466e-07
3.2665e-08
3.14979e-07
3.04322e-08
3.1526e-07
2.87119e-08
3.15496e-07
2.72679e-08
3.15696e-07
2.59637e-08
3.1587e-07
2.4785e-08
3.16024e-07
2.3728e-08
3.16161e-07
2.2775e-08
3.16283e-07
2.19076e-08
3.16392e-07
2.11131e-08
3.1649e-07
2.03823e-08
3.16578e-07
1.97078e-08
3.16657e-07
1.90837e-08
3.16727e-07
1.85045e-08
3.1679e-07
1.7966e-08
3.16846e-07
1.74645e-08
3.16895e-07
1.69967e-08
3.16938e-07
1.65602e-08
3.16975e-07
1.61532e-08
3.17006e-07
1.57742e-08
3.17031e-07
1.54225e-08
3.17051e-07
1.50977e-08
3.17066e-07
1.47997e-08
3.17075e-07
1.4529e-08
3.17078e-07
1.4286e-08
3.17076e-07
1.40717e-08
3.17066e-07
1.38869e-08
3.17051e-07
1.37337e-08
3.17028e-07
1.36135e-08
3.16997e-07
1.35296e-08
3.16959e-07
1.34847e-08
3.16912e-07
1.34838e-08
3.16856e-07
1.35314e-08
3.16791e-07
1.36352e-08
3.16716e-07
1.38026e-08
3.16632e-07
1.40451e-08
3.16539e-07
1.43751e-08
3.16438e-07
1.48097e-08
3.1633e-07
1.53686e-08
3.16219e-07
1.60805e-08
3.16114e-07
1.69695e-08
3.16027e-07
1.80867e-08
3.15982e-07
1.94296e-08
2.10538e-08
3.16019e-07
3.16742e-07
2.43228e-08
3.19655e-07
4.70212e-08
3.20973e-07
4.38572e-08
3.21898e-07
3.7894e-08
3.22757e-07
3.60131e-08
3.23361e-07
3.45407e-08
3.23761e-07
3.22654e-08
3.24085e-07
3.01073e-08
3.24371e-07
2.84264e-08
3.24613e-07
2.70258e-08
3.24817e-07
2.57594e-08
3.24994e-07
2.46081e-08
3.2515e-07
2.3572e-08
3.25289e-07
2.26367e-08
3.25412e-07
2.17846e-08
3.25521e-07
2.10034e-08
3.2562e-07
2.02841e-08
3.25707e-07
1.962e-08
3.25786e-07
1.90051e-08
3.25856e-07
1.84345e-08
3.25918e-07
1.79038e-08
3.25973e-07
1.74096e-08
3.26021e-07
1.69486e-08
3.26063e-07
1.65185e-08
3.26099e-07
1.61175e-08
3.26128e-07
1.57443e-08
3.26153e-07
1.53982e-08
3.26171e-07
1.5079e-08
3.26184e-07
1.47866e-08
3.26192e-07
1.45216e-08
3.26194e-07
1.42844e-08
3.26189e-07
1.40761e-08
3.26178e-07
1.38978e-08
3.26161e-07
1.37512e-08
3.26136e-07
1.36382e-08
3.26104e-07
1.35618e-08
3.26064e-07
1.35248e-08
3.26016e-07
1.35321e-08
3.25959e-07
1.35884e-08
3.25893e-07
1.37011e-08
3.25818e-07
1.38775e-08
3.25734e-07
1.4129e-08
3.25642e-07
1.44672e-08
3.25542e-07
1.49093e-08
3.25438e-07
1.54726e-08
3.25333e-07
1.61854e-08
3.25236e-07
1.70664e-08
3.25161e-07
1.81617e-08
3.2513e-07
1.94609e-08
2.10039e-08
3.2518e-07
3.26153e-07
2.19727e-08
3.28993e-07
4.41806e-08
3.30345e-07
4.25052e-08
3.31249e-07
3.69898e-08
3.32105e-07
3.51572e-08
3.32734e-07
3.39121e-08
3.3315e-07
3.18488e-08
3.33482e-07
2.97762e-08
3.33773e-07
2.81355e-08
3.34021e-07
2.67778e-08
3.34229e-07
2.55505e-08
3.34409e-07
2.44281e-08
3.34568e-07
2.34138e-08
3.34708e-07
2.24966e-08
3.34832e-07
2.16604e-08
3.34942e-07
2.08929e-08
3.35041e-07
2.01856e-08
3.35129e-07
1.9532e-08
3.35207e-07
1.89267e-08
3.35277e-07
1.83648e-08
3.35339e-07
1.78422e-08
3.35393e-07
1.73554e-08
3.3544e-07
1.69013e-08
3.35481e-07
1.64778e-08
3.35515e-07
1.6083e-08
3.35544e-07
1.57157e-08
3.35567e-07
1.53753e-08
3.35584e-07
1.50617e-08
3.35596e-07
1.4775e-08
3.35602e-07
1.45157e-08
3.35602e-07
1.42844e-08
3.35596e-07
1.40823e-08