/*--------------------------------*- C++ -*----------------------------------*\
  =========                 |
  \\      /  F ield         | OpenFOAM: The Open Source CFD Toolbox
   \\    /   O peration     | Website:  https://openfoam.org
    \\  /    A nd           | Version:  7
     \\/     M anipulation  |
\*---------------------------------------------------------------------------*/
FoamFile
{
    version     2.0;
    format      ascii;
    class       surfaceScalarField;
    location    "0.23";
    object      phi_0;
}
// * * * * * * * * * * * * * * * * * * * * * * * * * * * * * * * * * * * * * //

dimensions      [0 3 -1 0 0 0 0];

internalField   nonuniform List<scalar> 
139350
(
6.45913e-08
9.20402e-08
3.19478e-08
3.26435e-08
2.30541e-08
8.89364e-09
1.95571e-08
3.49701e-09
1.76026e-08
1.95455e-09
1.61721e-08
1.43044e-09
1.50362e-08
1.13594e-09
1.41193e-08
9.1693e-10
1.33638e-08
7.55494e-10
1.27266e-08
6.37202e-10
1.21788e-08
5.47745e-10
1.17012e-08
4.77646e-10
1.12799e-08
4.21293e-10
1.09047e-08
3.75162e-10
1.05679e-08
3.36854e-10
1.02632e-08
3.04653e-10
9.98593e-09
2.77297e-10
9.73209e-09
2.53845e-10
9.49851e-09
2.33579e-10
9.28256e-09
2.15947e-10
9.08204e-09
2.00517e-10
8.89509e-09
1.8695e-10
8.72012e-09
1.74974e-10
8.55575e-09
1.64371e-10
8.40078e-09
1.54966e-10
8.25416e-09
1.46616e-10
8.11496e-09
1.39205e-10
7.98232e-09
1.32644e-10
7.85546e-09
1.26853e-10
7.73368e-09
1.21782e-10
7.6163e-09
1.17377e-10
7.50268e-09
1.13628e-10
7.39219e-09
1.10484e-10
7.2842e-09
1.07995e-10
7.17811e-09
1.0609e-10
7.0732e-09
1.04911e-10
6.96887e-09
1.0433e-10
6.86423e-09
1.04632e-10
6.75862e-09
1.05609e-10
6.65093e-09
1.07693e-10
6.54018e-09
1.10747e-10
6.42521e-09
1.14977e-10
6.30391e-09
1.21299e-10
6.17619e-09
1.27717e-10
6.03581e-09
1.40379e-10
5.88874e-09
1.47075e-10
5.71259e-09
1.76146e-10
5.5494e-09
1.63189e-10
5.20697e-09
3.42429e-10
-2.19447e-09
7.40144e-09
1.26024e-07
1.2746e-07
9.12571e-08
6.74105e-08
7.19297e-08
2.8221e-08
6.11957e-08
1.4231e-08
5.47421e-08
8.40817e-09
5.02405e-08
5.93197e-09
4.67484e-08
4.62812e-09
4.39242e-08
3.74113e-09
4.15888e-08
3.0909e-09
3.96175e-08
2.6085e-09
3.79232e-08
2.24203e-09
3.64459e-08
1.95497e-09
3.51428e-08
1.72435e-09
3.39824e-08
1.53557e-09
3.29405e-08
1.37874e-09
3.19983e-08
1.24684e-09
3.11409e-08
1.13471e-09
3.03562e-08
1.03851e-09
2.96345e-08
9.55297e-10
2.89676e-08
8.82827e-10
2.83488e-08
8.19333e-10
2.77723e-08
7.6342e-10
2.72333e-08
7.13977e-10
2.67276e-08
6.7011e-10
2.62515e-08
6.31092e-10
2.58018e-08
5.96338e-10
2.53756e-08
5.65365e-10
2.49705e-08
5.37788e-10
2.4584e-08
5.13289e-10
2.42142e-08
4.91629e-10
2.3859e-08
4.72596e-10
2.35165e-08
4.56092e-10
2.3185e-08
4.41956e-10
2.28627e-08
4.3027e-10
2.2548e-08
4.20841e-10
2.22388e-08
4.14056e-10
2.19336e-08
4.09526e-10
2.16301e-08
4.0822e-10
2.13264e-08
4.0924e-10
2.10195e-08
4.14637e-10
2.07077e-08
4.2257e-10
2.03859e-08
4.36717e-10
2.00529e-08
4.54342e-10
1.97006e-08
4.80043e-10
1.93271e-08
5.1383e-10
1.89219e-08
5.52328e-10
1.8472e-08
6.25955e-10
1.80075e-08
6.27689e-10
1.73089e-08
1.04103e-09
-2.06851e-09
1.7183e-08
1.58806e-07
1.35058e-07
1.36488e-07
8.9728e-08
1.17479e-07
4.72303e-08
1.03291e-07
2.84188e-08
9.32734e-08
1.84259e-08
8.59598e-08
1.32455e-08
8.02417e-08
1.03463e-08
7.55776e-08
8.4052e-09
7.16856e-08
6.98288e-09
6.83789e-08
5.91519e-09
6.55244e-08
5.09656e-09
6.30273e-08
4.45212e-09
6.08189e-08
3.93271e-09
5.88481e-08
3.50637e-09
5.70755e-08
3.15132e-09
5.54703e-08
2.85204e-09
5.40079e-08
2.59713e-09
5.26684e-08
2.37801e-09
5.14355e-08
2.18817e-09
5.02958e-08
2.02256e-09
4.92379e-08
1.87721e-09
4.82523e-08
1.74901e-09
4.73309e-08
1.63543e-09
4.64665e-08
1.53446e-09
4.56532e-08
1.44445e-09
4.48854e-08
1.36406e-09
4.41586e-08
1.2922e-09
4.34684e-08
1.22798e-09
4.28111e-08
1.17065e-09
4.2183e-08
1.11966e-09
4.15811e-08
1.07451e-09
4.10023e-08
1.03492e-09
4.04437e-08
1.00056e-09
3.99025e-08
9.71485e-10
3.9376e-08
9.4734e-10
3.88612e-08
9.28778e-10
3.83557e-08
9.15058e-10
3.78558e-08
9.08102e-10
3.73592e-08
9.05894e-10
3.68607e-08
9.13138e-10
3.63586e-08
9.24684e-10
3.58443e-08
9.51002e-10
3.53181e-08
9.8047e-10
3.47641e-08
1.0341e-09
3.41875e-08
1.09042e-09
3.35587e-08
1.18114e-09
3.28835e-08
1.30113e-09
3.21548e-08
1.35641e-09
3.12548e-08
1.94101e-09
-8.41837e-10
3.00281e-08
1.75663e-07
1.3091e-07
1.6559e-07
9.98013e-08
1.52711e-07
6.01092e-08
1.40101e-07
4.10288e-08
1.29399e-07
2.91282e-08
1.20741e-07
2.19029e-08
1.13614e-07
1.74736e-08
1.07617e-07
1.44021e-08
1.025e-07
1.21004e-08
9.80794e-08
1.03354e-08
9.4217e-08
8.95899e-09
9.08067e-08
7.86234e-09
8.77688e-08
6.97063e-09
8.50416e-08
6.23355e-09
8.25768e-08
5.61613e-09
8.03358e-08
5.0931e-09
7.82872e-08
4.6457e-09
7.64055e-08
4.2597e-09
7.46695e-08
3.92416e-09
7.30615e-08
3.63057e-09
7.15665e-08
3.3722e-09
7.01718e-08
3.14369e-09
6.88665e-08
2.94075e-09
6.76411e-08
2.75987e-09
6.64874e-08
2.59821e-09
6.5398e-08
2.45342e-09
6.43666e-08
2.3236e-09
6.33874e-08
2.20715e-09
6.24553e-08
2.1028e-09
6.15654e-08
2.0095e-09
6.07135e-08
1.9264e-09
5.98955e-08
1.85293e-09
5.91076e-08
1.78852e-09
5.83459e-08
1.73314e-09
5.7607e-08
1.68623e-09
5.68871e-08
1.6487e-09
5.61828e-08
1.6194e-09
5.54896e-08
1.60132e-09
5.48043e-08
1.59111e-09
5.41208e-08
1.59667e-09
5.34368e-08
1.6087e-09
5.27416e-08
1.64618e-09
5.2036e-08
1.68603e-09
5.12997e-08
1.7704e-09
5.05404e-08
1.84974e-09
4.97206e-08
2.00093e-09
4.88502e-08
2.17156e-09
4.79043e-08
2.30235e-09
4.68281e-08
3.01715e-09
8.13377e-10
4.51729e-08
1.84559e-07
1.23136e-07
1.82317e-07
1.02043e-07
1.76093e-07
6.63341e-08
1.67739e-07
4.93819e-08
1.59103e-07
3.77645e-08
1.51178e-07
2.98278e-08
1.44088e-07
2.45637e-08
1.3777e-07
2.07206e-08
1.32149e-07
1.77209e-08
1.27143e-07
1.53417e-08
1.22665e-07
1.34365e-08
1.1864e-07
1.18876e-08
1.15003e-07
1.06082e-08
1.11699e-07
9.53717e-09
1.08684e-07
8.63064e-09
1.05922e-07
7.85596e-09
1.03379e-07
7.18833e-09
1.0103e-07
6.60863e-09
9.88523e-08
6.10187e-09
9.68266e-08
5.65626e-09
9.49364e-08
5.26235e-09
9.31676e-08
4.91257e-09
9.15076e-08
4.60074e-09
8.99456e-08
4.32183e-09
8.84721e-08
4.0717e-09
8.70786e-08
3.84691e-09
8.57576e-08
3.64465e-09
8.45022e-08
3.46255e-09
8.33063e-08
3.29871e-09
8.21642e-08
3.15154e-09
8.10709e-08
3.01977e-09
8.00213e-08
2.90248e-09
7.9011e-08
2.79882e-09
7.80355e-08
2.70862e-09
7.70906e-08
2.63112e-09
7.61719e-08
2.56744e-09
7.52753e-08
2.516e-09
7.43957e-08
2.48089e-09
7.35294e-08
2.4574e-09
7.26695e-08
2.45665e-09
7.18129e-08
2.46524e-09
7.09484e-08
2.51071e-09
7.00757e-08
2.55876e-09
6.91739e-08
2.67213e-09
6.82481e-08
2.77553e-09
6.72636e-08
2.98549e-09
6.62204e-08
3.21479e-09
6.50982e-08
3.4245e-09
6.3847e-08
4.2684e-09
2.67608e-09
6.19843e-08
1.90388e-07
1.14965e-07
1.91849e-07
1.00582e-07
1.90236e-07
6.79471e-08
1.86137e-07
5.34809e-08
1.80686e-07
4.32153e-08
1.74916e-07
3.55975e-08
1.69202e-07
3.02782e-08
1.63698e-07
2.62244e-08
1.58501e-07
2.29175e-08
1.53654e-07
2.01887e-08
1.4916e-07
1.79309e-08
1.45002e-07
1.60456e-08
1.41156e-07
1.44539e-08
1.37596e-07
1.30969e-08
1.34296e-07
1.19306e-08
1.31232e-07
1.09209e-08
1.28379e-07
1.00409e-08
1.25718e-07
9.26952e-09
1.2323e-07
8.58948e-09
1.209e-07
7.98705e-09
1.18711e-07
7.451e-09
1.16651e-07
6.97217e-09
1.14709e-07
6.543e-09
1.12874e-07
6.15723e-09
1.11136e-07
5.80967e-09
1.09487e-07
5.49595e-09
1.07919e-07
5.21246e-09
1.06425e-07
4.95615e-09
1.04999e-07
4.72452e-09
1.03636e-07
4.5155e-09
1.02328e-07
4.3274e-09
1.01071e-07
4.15896e-09
9.98612e-08
4.00909e-09
9.86923e-08
3.87746e-09
9.75603e-08
3.76312e-09
9.64604e-08
3.66738e-09
9.53881e-08
3.5883e-09
9.4338e-08
3.53094e-09
9.3306e-08
3.48948e-09
9.22847e-08
3.47786e-09
9.12706e-08
3.47939e-09
9.02526e-08
3.52872e-09
8.92283e-08
3.58307e-09
8.81795e-08
3.72094e-09
8.71047e-08
3.85034e-09
8.59786e-08
4.11151e-09
8.4785e-08
4.40837e-09
8.35162e-08
4.69339e-09
8.21158e-08
5.66875e-09
4.69196e-09
8.00999e-08
1.9554e-07
1.0724e-07
1.98245e-07
9.78776e-08
1.98962e-07
6.72299e-08
1.97774e-07
5.46684e-08
1.95132e-07
4.58576e-08
1.91777e-07
3.89529e-08
1.88028e-07
3.40268e-08
1.84058e-07
3.01942e-08
1.80017e-07
2.69591e-08
1.76014e-07
2.41916e-08
1.72118e-07
2.18267e-08
1.68368e-07
1.97954e-08
1.64785e-07
1.80372e-08
1.61376e-07
1.65056e-08
1.58143e-07
1.5164e-08
1.5508e-07
1.39833e-08
1.52182e-07
1.29394e-08
1.49439e-07
1.20126e-08
1.46842e-07
1.11864e-08
1.44382e-07
1.04472e-08
1.42049e-07
9.78366e-09
1.39835e-07
9.18618e-09
1.37731e-07
8.64679e-09
1.3573e-07
8.15877e-09
1.33823e-07
7.71642e-09
1.32004e-07
7.31491e-09
1.30266e-07
6.95016e-09
1.28604e-07
6.61872e-09
1.2701e-07
6.31771e-09
1.25481e-07
6.04472e-09
1.24011e-07
5.79779e-09
1.22594e-07
5.57544e-09
1.21227e-07
5.37638e-09
1.19904e-07
5.20021e-09
1.18622e-07
5.04586e-09
1.17374e-07
4.91481e-09
1.16158e-07
4.80495e-09
1.14966e-07
4.72207e-09
1.13796e-07
4.65971e-09
1.1264e-07
4.6339e-09
1.11494e-07
4.62599e-09
1.10347e-07
4.6755e-09
1.09195e-07
4.73512e-09
1.08023e-07
4.89228e-09
1.06824e-07
5.04993e-09
1.05582e-07
5.35363e-09
1.04267e-07
5.72351e-09
1.02876e-07
6.08378e-09
1.01364e-07
7.18059e-09
6.80876e-09
9.92475e-08
2.00847e-07
9.99772e-08
2.03773e-07
9.49519e-08
2.05321e-07
6.56823e-08
2.0563e-07
5.43585e-08
2.04795e-07
4.66926e-08
2.03303e-07
4.04455e-08
2.01341e-07
3.59889e-08
1.98993e-07
3.25416e-08
1.96367e-07
2.95858e-08
1.93563e-07
2.69948e-08
1.90665e-07
2.47256e-08
1.8773e-07
2.27294e-08
1.84806e-07
2.09619e-08
1.81923e-07
1.93888e-08
1.79103e-07
1.79836e-08
1.76361e-07
1.67248e-08
1.73707e-07
1.55939e-08
1.71145e-07
1.45751e-08
1.68676e-07
1.36549e-08
1.66301e-07
1.28219e-08
1.64019e-07
1.2066e-08
1.61826e-07
1.13788e-08
1.5972e-07
1.07529e-08
1.57697e-07
1.0182e-08
1.55753e-07
9.66072e-09
1.53883e-07
9.18432e-09
1.52085e-07
8.74881e-09
1.50353e-07
8.3507e-09
1.48683e-07
7.9871e-09
1.47073e-07
7.65554e-09
1.45516e-07
7.35403e-09
1.44011e-07
7.08102e-09
1.42552e-07
6.83523e-09
1.41136e-07
6.61627e-09
1.39759e-07
6.4231e-09
1.38416e-07
6.25742e-09
1.37104e-07
6.1171e-09
1.35817e-07
6.00851e-09
1.34552e-07
5.92506e-09
1.33302e-07
5.88409e-09
1.32061e-07
5.86642e-09
1.30823e-07
5.91404e-09
1.29579e-07
5.97924e-09
1.28319e-07
6.15162e-09
1.2703e-07
6.3395e-09
1.25704e-07
6.67908e-09
1.24305e-07
7.12271e-09
1.22826e-07
7.56276e-09
1.21242e-07
8.76449e-09
8.95813e-09
1.19093e-07
2.06446e-07
9.30631e-08
2.09336e-07
9.20616e-08
2.1103e-07
6.39886e-08
2.11919e-07
5.34698e-08
2.11981e-07
4.66308e-08
2.11585e-07
4.08413e-08
2.10843e-07
3.67305e-08
2.09758e-07
3.36265e-08
2.08367e-07
3.09767e-08
2.06729e-07
2.86334e-08
2.04898e-07
2.65559e-08
2.02926e-07
2.47023e-08
2.00853e-07
2.30347e-08
1.98716e-07
2.15256e-08
1.96544e-07
2.01551e-08
1.94362e-07
1.89075e-08
1.92186e-07
1.77694e-08
1.90032e-07
1.67294e-08
1.87909e-07
1.57775e-08
1.85826e-07
1.4905e-08
1.83788e-07
1.41042e-08
1.81799e-07
1.33683e-08
1.7986e-07
1.26916e-08
1.77973e-07
1.20687e-08
1.76139e-07
1.14952e-08
1.74356e-07
1.0967e-08
1.72624e-07
1.04807e-08
1.70942e-07
1.00332e-08
1.69307e-07
9.622e-09
1.67718e-07
9.24481e-09
1.66172e-07
8.89988e-09
1.64667e-07
8.58586e-09
1.632e-07
8.30165e-09
1.6177e-07
8.04704e-09
1.60372e-07
7.82117e-09
1.59003e-07
7.62602e-09
1.5766e-07
7.45966e-09
1.5634e-07
7.32893e-09
1.55038e-07
7.22752e-09
1.53748e-07
7.17346e-09
1.52466e-07
7.14828e-09
1.51186e-07
7.19442e-09
1.49898e-07
7.26712e-09
1.48597e-07
7.45283e-09
1.47264e-07
7.67271e-09
1.45898e-07
8.04458e-09
1.44461e-07
8.55936e-09
1.42939e-07
9.08512e-09
1.41329e-07
1.03749e-08
1.10699e-08
1.39217e-07
2.12288e-07
8.64374e-08
2.15149e-07
8.92005e-08
2.16784e-07
6.23534e-08
2.17831e-07
5.24231e-08
2.1824e-07
4.62224e-08
2.18347e-07
4.07338e-08
2.18261e-07
3.6817e-08
2.17949e-07
3.39384e-08
2.17404e-07
3.15218e-08
2.16644e-07
2.93932e-08
2.15693e-07
2.75064e-08
2.14577e-07
2.58184e-08
2.13321e-07
2.42906e-08
2.11951e-07
2.28959e-08
2.1049e-07
2.16162e-08
2.08959e-07
2.04381e-08
2.07378e-07
1.9351e-08
2.05761e-07
1.8346e-08
2.04123e-07
1.74156e-08
2.02474e-07
1.65533e-08
2.00825e-07
1.57535e-08
1.99182e-07
1.5011e-08
1.97552e-07
1.43216e-08
1.9594e-07
1.36814e-08
1.94348e-07
1.30869e-08
1.9278e-07
1.25351e-08
1.91237e-07
1.20234e-08
1.89721e-07
1.15492e-08
1.88232e-07
1.11107e-08
1.86771e-07
1.07062e-08
1.85337e-07
1.03342e-08
1.83929e-07
9.9938e-09
1.82546e-07
9.68424e-09
1.81187e-07
9.40566e-09
1.79851e-07
9.15749e-09
1.78535e-07
8.94208e-09
1.77237e-07
8.75787e-09
1.75954e-07
8.61209e-09
1.74682e-07
8.49907e-09
1.73419e-07
8.43704e-09
1.72158e-07
8.40921e-09
1.70895e-07
8.45686e-09
1.69622e-07
8.54067e-09
1.68334e-07
8.74028e-09
1.67013e-07
8.99403e-09
1.6566e-07
9.39733e-09
1.6424e-07
9.97898e-09
1.6273e-07
1.05952e-08
1.61147e-07
1.19578e-08
1.30759e-08
1.59141e-07
2.18329e-07
8.0089e-08
2.21203e-07
8.63269e-08
2.22757e-07
6.07994e-08
2.2383e-07
5.13497e-08
2.24348e-07
4.57046e-08
2.24634e-07
4.04483e-08
2.24824e-07
3.66266e-08
2.24891e-07
3.38711e-08
2.24813e-07
3.15997e-08
2.2459e-07
2.96165e-08
2.24226e-07
2.78706e-08
2.23727e-07
2.63173e-08
2.23102e-07
2.49153e-08
2.22363e-07
2.36352e-08
2.21522e-07
2.24575e-08
2.20591e-07
2.13683e-08
2.19585e-07
2.03574e-08
2.18514e-07
1.94165e-08
2.17391e-07
1.85389e-08
2.16225e-07
1.77191e-08
2.15026e-07
1.69526e-08
2.13802e-07
1.62355e-08
2.12559e-07
1.55642e-08
2.11305e-07
1.49361e-08
2.10043e-07
1.43485e-08
2.08779e-07
1.37993e-08
2.07516e-07
1.32865e-08
2.06257e-07
1.28084e-08
2.05003e-07
1.23638e-08
2.03758e-07
1.19514e-08
2.02522e-07
1.15704e-08
2.01296e-07
1.12202e-08
2.00079e-07
1.09006e-08
1.98873e-07
1.0612e-08
1.97676e-07
1.03543e-08
1.96488e-07
1.01303e-08
1.95307e-07
9.93877e-09
1.94132e-07
9.78739e-09
1.9296e-07
9.67133e-09
1.91788e-07
9.60865e-09
1.90612e-07
9.58488e-09
1.8943e-07
9.63909e-09
1.88232e-07
9.73886e-09
1.87017e-07
9.95492e-09
1.85767e-07
1.02445e-08
1.84484e-07
1.06804e-08
1.83139e-07
1.13238e-08
1.81701e-07
1.20327e-08
1.80205e-07
1.34544e-08
1.49123e-08
1.78368e-07
2.24558e-07
7.40244e-08
2.27467e-07
8.34179e-08
2.28953e-07
5.9313e-08
2.30032e-07
5.02712e-08
2.30591e-07
4.51457e-08
2.30925e-07
4.01141e-08
2.31204e-07
3.63468e-08
2.3142e-07
3.36554e-08
2.31552e-07
3.14683e-08
2.31596e-07
2.95716e-08
2.31554e-07
2.79127e-08
2.31423e-07
2.64484e-08
2.31203e-07
2.51358e-08
2.30895e-07
2.39433e-08
2.30503e-07
2.28497e-08
2.30031e-07
2.18398e-08
2.29486e-07
2.09023e-08
2.28874e-07
2.00285e-08
2.28202e-07
1.92114e-08
2.27475e-07
1.84455e-08
2.26701e-07
1.77265e-08
2.25886e-07
1.70506e-08
2.25036e-07
1.64148e-08
2.24155e-07
1.58168e-08
2.23249e-07
1.52545e-08
2.22322e-07
1.47261e-08
2.21378e-07
1.42304e-08
2.2042e-07
1.37662e-08
2.19452e-07
1.33325e-08
2.18474e-07
1.29287e-08
2.1749e-07
1.25544e-08
2.16501e-07
1.22094e-08
2.15508e-07
1.18937e-08
2.14511e-07
1.16085e-08
2.13512e-07
1.13537e-08
2.1251e-07
1.11326e-08
2.11504e-07
1.09446e-08
2.10494e-07
1.07975e-08
2.09478e-07
1.06875e-08
2.08454e-07
1.06321e-08
2.07419e-07
1.06197e-08
2.06372e-07
1.06864e-08
2.05304e-07
1.08073e-08
2.04215e-07
1.10433e-08
2.03089e-07
1.13703e-08
2.01929e-07
1.18409e-08
2.00712e-07
1.25404e-08
1.99404e-07
1.33407e-08
1.9805e-07
1.48092e-08
1.65246e-08
1.96437e-07
2.30979e-07
6.82518e-08
2.33931e-07
8.04652e-08
2.35358e-07
5.78859e-08
2.36443e-07
4.91868e-08
2.37035e-07
4.45535e-08
2.37384e-07
3.9765e-08
2.37685e-07
3.60457e-08
2.37947e-07
3.33941e-08
2.38154e-07
3.12614e-08
2.38308e-07
2.94172e-08
2.38412e-07
2.78088e-08
2.38463e-07
2.63968e-08
2.3846e-07
2.51392e-08
2.384e-07
2.40035e-08
2.38282e-07
2.29674e-08
2.38107e-07
2.20148e-08
2.37876e-07
2.11335e-08
2.3759e-07
2.03141e-08
2.37253e-07
1.95491e-08
2.36866e-07
1.88324e-08
2.36433e-07
1.81594e-08
2.35957e-07
1.75262e-08
2.35443e-07
1.69296e-08
2.34892e-07
1.63674e-08
2.34309e-07
1.58374e-08
2.33697e-07
1.53383e-08
2.33058e-07
1.48689e-08
2.32396e-07
1.44282e-08
2.31713e-07
1.40156e-08
2.31011e-07
1.36307e-08
2.30292e-07
1.32735e-08
2.29558e-07
1.2944e-08
2.28809e-07
1.26426e-08
2.28047e-07
1.23705e-08
2.27272e-07
1.21283e-08
2.26485e-07
1.19195e-08
2.25686e-07
1.17438e-08
2.24875e-07
1.16091e-08
2.24049e-07
1.15128e-08
2.2321e-07
1.14718e-08
2.22352e-07
1.1477e-08
2.21477e-07
1.15613e-08
2.20577e-07
1.17077e-08
2.19653e-07
1.19671e-08
2.18692e-07
1.2332e-08
2.17694e-07
1.2839e-08
2.16646e-07
1.35883e-08
2.15511e-07
1.44749e-08
2.14342e-07
1.59785e-08
1.78753e-08
2.12991e-07
2.376e-07
6.27769e-08
2.40599e-07
7.74662e-08
2.41969e-07
5.6516e-08
2.43058e-07
4.80977e-08
2.43687e-07
4.39244e-08
2.44049e-07
3.94027e-08
2.44355e-07
3.57395e-08
2.44629e-07
3.31206e-08
2.44858e-07
3.10319e-08
2.45049e-07
2.92264e-08
2.45207e-07
2.76506e-08
2.45334e-07
2.62701e-08
2.45428e-07
2.50451e-08
2.45488e-07
2.39435e-08
2.45513e-07
2.29427e-08
2.45501e-07
2.20265e-08
2.45452e-07
2.11824e-08
2.45366e-07
2.04006e-08
2.45242e-07
1.96731e-08
2.4508e-07
1.89935e-08
2.44883e-07
1.83568e-08
2.4465e-07
1.77588e-08
2.44384e-07
1.71961e-08
2.44085e-07
1.66661e-08
2.43756e-07
1.61668e-08
2.43397e-07
1.56966e-08
2.43012e-07
1.52544e-08
2.42601e-07
1.48393e-08
2.42166e-07
1.44508e-08
2.41708e-07
1.40886e-08
2.41229e-07
1.37526e-08
2.40729e-07
1.34434e-08
2.4021e-07
1.31613e-08
2.39673e-07
1.29078e-08
2.39118e-07
1.26836e-08
2.38545e-07
1.24924e-08
2.37954e-07
1.23344e-08
2.37346e-07
1.22175e-08
2.36719e-07
1.21399e-08
2.36073e-07
1.21176e-08
2.35405e-07
1.21447e-08
2.34716e-07
1.22501e-08
2.34e-07
1.24242e-08
2.33258e-07
1.27091e-08
2.32479e-07
1.31108e-08
2.31663e-07
1.36546e-08
2.30805e-07
1.44468e-08
2.29869e-07
1.54109e-08
2.28909e-07
1.69381e-08
1.89491e-08
2.27835e-07
2.4443e-07
5.76034e-08
2.47468e-07
7.44276e-08
2.48789e-07
5.51953e-08
2.49878e-07
4.70084e-08
2.50546e-07
4.32569e-08
2.50925e-07
3.90237e-08
2.51235e-07
3.54293e-08
2.51514e-07
3.28421e-08
2.5175e-07
3.07953e-08
2.51951e-07
2.90252e-08
2.52126e-07
2.74758e-08
2.52278e-07
2.61178e-08
2.52409e-07
2.49145e-08
2.52518e-07
2.38345e-08
2.52605e-07
2.28555e-08
2.5267e-07
2.19618e-08
2.52711e-07
2.11408e-08
2.52729e-07
2.03827e-08
2.52723e-07
1.96796e-08
2.52692e-07
1.90248e-08
2.52635e-07
1.84132e-08
2.52554e-07
1.78403e-08
2.52447e-07
1.73027e-08
2.52316e-07
1.67974e-08
2.5216e-07
1.63224e-08
2.51981e-07
1.5876e-08
2.51778e-07
1.54568e-08
2.51554e-07
1.50642e-08
2.51307e-07
1.46975e-08
2.51039e-07
1.43565e-08
2.5075e-07
1.40413e-08
2.50441e-07
1.37522e-08
2.50113e-07
1.34899e-08
2.49765e-07
1.3256e-08
2.49397e-07
1.30511e-08
2.4901e-07
1.28791e-08
2.48604e-07
1.27406e-08
2.48179e-07
1.26432e-08
2.47732e-07
1.25862e-08
2.47265e-07
1.25844e-08
2.46775e-07
1.26346e-08
2.46263e-07
1.27624e-08
2.45723e-07
1.29644e-08
2.45157e-07
1.32749e-08
2.44558e-07
1.37105e-08
2.43922e-07
1.42897e-08
2.43252e-07
1.51172e-08
2.42516e-07
1.61467e-08
2.41768e-07
1.76864e-08
1.9755e-08
2.40962e-07
2.51477e-07
5.27331e-08
2.54546e-07
7.13588e-08
2.55828e-07
5.39133e-08
2.56911e-07
4.59246e-08
2.57616e-07
4.25519e-08
2.58015e-07
3.86249e-08
2.58331e-07
3.51137e-08
2.58614e-07
3.25588e-08
2.58856e-07
3.0554e-08
2.59061e-07
2.882e-08
2.5924e-07
2.72961e-08
2.594e-07
2.59582e-08
2.59542e-07
2.47727e-08
2.59667e-07
2.3709e-08
2.59777e-07
2.27455e-08
2.59872e-07
2.18668e-08
2.59952e-07
2.10609e-08
2.60017e-07
2.03181e-08
2.60066e-07
1.96305e-08
2.60099e-07
1.89918e-08
2.60116e-07
1.83965e-08
2.60116e-07
1.78403e-08
2.60099e-07
1.73196e-08
2.60065e-07
1.68315e-08
2.60013e-07
1.63737e-08
2.59945e-07
1.59445e-08
2.59859e-07
1.55427e-08
2.59756e-07
1.51673e-08
2.59636e-07
1.48179e-08
2.59498e-07
1.44941e-08
2.59343e-07
1.41962e-08
2.59171e-07
1.39244e-08
2.58981e-07
1.36795e-08
2.58774e-07
1.34631e-08
2.58549e-07
1.3276e-08
2.58306e-07
1.31219e-08
2.58045e-07
1.30019e-08
2.57765e-07
1.29231e-08
2.57465e-07
1.2886e-08
2.57146e-07
1.2904e-08
2.56804e-07
1.29765e-08
2.56441e-07
1.31256e-08
2.56052e-07
1.33534e-08
2.55638e-07
1.36882e-08
2.55196e-07
1.41534e-08
2.54721e-07
1.47647e-08
2.54218e-07
1.56196e-08
2.53664e-07
1.67006e-08
2.53109e-07
1.8242e-08
2.03225e-08
2.52541e-07
2.5875e-07
4.81662e-08
2.61839e-07
6.827e-08
2.63093e-07
5.26594e-08
2.64166e-07
4.48514e-08
2.64906e-07
4.1812e-08
2.65326e-07
3.82043e-08
2.65648e-07
3.47916e-08
2.65937e-07
3.22704e-08
2.66183e-07
3.03076e-08
2.66392e-07
2.86115e-08
2.66574e-07
2.71141e-08
2.66736e-07
2.57962e-08
2.66881e-07
2.46275e-08
2.67011e-07
2.35787e-08
2.67128e-07
2.26286e-08
2.67233e-07
2.17621e-08
2.67326e-07
2.09676e-08
2.67409e-07
2.02359e-08
2.6748e-07
1.95593e-08
2.6754e-07
1.89314e-08
2.67589e-07
1.83472e-08
2.67628e-07
1.78022e-08
2.67654e-07
1.72929e-08
2.67669e-07
1.68164e-08
2.67673e-07
1.63704e-08
2.67664e-07
1.59531e-08
2.67643e-07
1.55635e-08
2.6761e-07
1.52005e-08
2.67564e-07
1.48636e-08
2.67506e-07
1.45528e-08
2.67434e-07
1.4268e-08
2.67348e-07
1.40099e-08
2.67249e-07
1.37789e-08
2.67135e-07
1.35768e-08
2.67007e-07
1.34045e-08
2.66863e-07
1.32657e-08
2.66703e-07
1.31617e-08
2.66527e-07
1.30993e-08
2.66333e-07
1.30797e-08
2.66122e-07
1.31154e-08
2.65891e-07
1.32077e-08
2.6564e-07
1.3376e-08
2.65367e-07
1.36265e-08
2.65073e-07
1.39829e-08
2.64753e-07
1.44725e-08
2.64407e-07
1.51113e-08
2.6404e-07
1.59861e-08
2.63636e-07
1.71043e-08
2.63241e-07
1.86371e-08
2.06948e-08
2.62869e-07
2.66258e-07
4.39008e-08
2.69356e-07
6.51716e-08
2.70592e-07
5.14232e-08
2.71651e-07
4.37931e-08
2.72422e-07
4.10407e-08
2.72866e-07
3.77602e-08
2.73195e-07
3.44622e-08
2.73489e-07
3.19767e-08
2.73741e-07
3.00558e-08
2.73953e-07
2.83991e-08
2.74137e-07
2.69298e-08
2.74301e-07
2.56325e-08
2.74448e-07
2.4481e-08
2.74579e-07
2.34471e-08
2.74698e-07
2.25098e-08
2.74805e-07
2.16547e-08
2.74902e-07
2.08705e-08
2.7499e-07
2.01483e-08
2.75068e-07
1.94807e-08
2.75138e-07
1.88616e-08
2.752e-07
1.82858e-08
2.75253e-07
1.77492e-08
2.75297e-07
1.72482e-08
2.75334e-07
1.678e-08
2.75362e-07
1.63424e-08
2.75381e-07
1.59337e-08
2.75392e-07
1.55526e-08
2.75394e-07
1.51985e-08
2.75387e-07
1.48708e-08
2.7537e-07
1.45695e-08
2.75344e-07
1.42946e-08
2.75307e-07
1.40468e-08
2.75259e-07
1.38266e-08
2.752e-07
1.36357e-08
2.75129e-07
1.34754e-08
2.75046e-07
1.3349e-08
2.74949e-07
1.32582e-08
2.74839e-07
1.32095e-08
2.74714e-07
1.32049e-08
2.74574e-07
1.32556e-08
2.74417e-07
1.33649e-08
2.74243e-07
1.35497e-08
2.7405e-07
1.38193e-08
2.73839e-07
1.41943e-08
2.73608e-07
1.47034e-08
2.73354e-07
1.53647e-08
2.73088e-07
1.62526e-08
2.72798e-07
1.73943e-08
2.72526e-07
1.89095e-08
2.09193e-08
2.72301e-07
2.74008e-07
3.99337e-08
2.77105e-07
6.20746e-08
2.78334e-07
5.01944e-08
2.79374e-07
4.27532e-08
2.80173e-07
4.02419e-08
2.80642e-07
3.72911e-08
2.8098e-07
3.41245e-08
2.81278e-07
3.1678e-08
2.81536e-07
2.97984e-08
2.81752e-07
2.81826e-08
2.81939e-07
2.6743e-08
2.82104e-07
2.54672e-08
2.82252e-07
2.43334e-08
2.82385e-07
2.33146e-08
2.82504e-07
2.23905e-08
2.82612e-07
2.15468e-08
2.8271e-07
2.07728e-08
2.82798e-07
2.00598e-08
2.82878e-07
1.94006e-08
2.82951e-07
1.87893e-08
2.83015e-07
1.82211e-08
2.83073e-07
1.76916e-08
2.83124e-07
1.71976e-08
2.83167e-07
1.67362e-08
2.83204e-07
1.63052e-08
2.83235e-07
1.59032e-08
2.83259e-07
1.55289e-08
2.83276e-07
1.51816e-08
2.83286e-07
1.4861e-08
2.83288e-07
1.45669e-08
2.83283e-07
1.42997e-08
2.8327e-07
1.40599e-08
2.83248e-07
1.38483e-08
2.83217e-07
1.36666e-08
2.83177e-07
1.35159e-08
2.83126e-07
1.33998e-08
2.83064e-07
1.332e-08
2.82991e-07
1.32828e-08
2.82905e-07
1.32908e-08
2.82806e-07
1.33542e-08
2.82693e-07
1.34779e-08
2.82566e-07
1.36769e-08
2.82423e-07
1.39623e-08
2.82265e-07
1.43529e-08
2.82091e-07
1.48772e-08
2.819e-07
1.55561e-08
2.81701e-07
1.64515e-08
2.8149e-07
1.76046e-08
2.81305e-07
1.90947e-08
2.10398e-08
2.81185e-07
2.82012e-07
3.62594e-08
2.85096e-07
5.89905e-08
2.86327e-07
4.89636e-08
2.87345e-07
4.17345e-08
2.88167e-07
3.94204e-08
2.88662e-07
3.67956e-08
2.89009e-07
3.37774e-08
2.89313e-07
3.13742e-08
2.89576e-07
2.95353e-08
2.89797e-07
2.79615e-08
2.89987e-07
2.65532e-08
2.90154e-07
2.53e-08
2.90303e-07
2.41844e-08
2.90437e-07
2.31813e-08
2.90556e-07
2.22707e-08
2.90665e-07
2.14387e-08
2.90762e-07
2.0675e-08
2.90851e-07
1.99713e-08
2.90931e-07
1.93205e-08
2.91003e-07
1.87171e-08
2.91068e-07
1.8156e-08
2.91126e-07
1.76334e-08
2.91178e-07
1.71459e-08
2.91224e-07
1.66907e-08
2.91263e-07
1.62658e-08
2.91297e-07
1.58696e-08
2.91324e-07
1.55011e-08
2.91346e-07
1.51597e-08
2.91362e-07
1.48451e-08
2.91372e-07
1.45573e-08
2.91375e-07
1.42965e-08
2.91371e-07
1.40636e-08
2.9136e-07
1.38592e-08
2.91342e-07
1.36852e-08
2.91315e-07
1.35428e-08
2.91279e-07
1.34355e-08
2.91234e-07
1.33652e-08
2.91179e-07
1.33379e-08
2.91113e-07
1.33568e-08
2.91035e-07
1.34314e-08
2.90946e-07
1.35675e-08
2.90844e-07
1.37788e-08
2.90729e-07
1.40774e-08
2.906e-07
1.44814e-08
2.9046e-07
1.50174e-08
2.90307e-07
1.57095e-08
2.9015e-07
1.66078e-08
2.89992e-07
1.77624e-08
2.89866e-07
1.92215e-08
2.10914e-08
2.89814e-07
2.90277e-07
3.28708e-08
2.93337e-07
5.59311e-08
2.94579e-07
4.77217e-08
2.95574e-07
4.07389e-08
2.96413e-07
3.85814e-08
2.96936e-07
3.6273e-08
2.97294e-07
3.34195e-08
2.97603e-07
3.10654e-08
2.97871e-07
2.92665e-08
2.98097e-07
2.77356e-08
2.9829e-07
2.63603e-08
2.9846e-07
2.51307e-08
2.9861e-07
2.40339e-08
2.98744e-07
2.3047e-08
2.98865e-07
2.21503e-08
2.98973e-07
2.13304e-08
2.99071e-07
2.05773e-08
2.99159e-07
1.98831e-08
2.99238e-07
1.92409e-08
2.9931e-07
1.86453e-08
2.99375e-07
1.80916e-08
2.99432e-07
1.75758e-08
2.99483e-07
1.70947e-08
2.99528e-07
1.66457e-08
2.99568e-07
1.62266e-08
2.99601e-07
1.58361e-08
2.99629e-07
1.54731e-08
2.99652e-07
1.51372e-08
2.99669e-07
1.48282e-08
2.9968e-07
1.45461e-08
2.99685e-07
1.42913e-08
2.99684e-07
1.40646e-08
2.99676e-07
1.38669e-08
2.99662e-07
1.36999e-08
2.99639e-07
1.35651e-08
2.99609e-07
1.34657e-08
2.9957e-07
1.34041e-08
2.99522e-07
1.33859e-08
2.99464e-07
1.34147e-08
2.99396e-07
1.34994e-08
2.99317e-07
1.36465e-08
2.99227e-07
1.38687e-08
2.99126e-07
1.41788e-08
2.99013e-07
1.45942e-08
2.98891e-07
1.51394e-08
2.9876e-07
1.5841e-08
2.98629e-07
1.67387e-08
2.98505e-07
1.78866e-08
2.98416e-07
1.931e-08
2.10993e-08
2.98408e-07
2.98814e-07
2.97591e-08
3.01837e-07
5.29084e-08
3.03098e-07
4.6461e-08
3.04069e-07
3.97672e-08
3.0492e-07
3.77304e-08
3.05471e-07
3.57226e-08
3.05841e-07
3.30493e-08
3.06155e-07
3.07515e-08
3.06429e-07
2.89921e-08
3.0666e-07
2.75045e-08
3.06857e-07
2.61639e-08
3.07028e-07
2.49591e-08
3.07181e-07
2.38818e-08
3.07316e-07
2.29115e-08
3.07437e-07
2.20292e-08
3.07546e-07
2.12218e-08
3.07643e-07
2.04796e-08
3.07731e-07
1.97951e-08
3.07811e-07
1.91618e-08
3.07882e-07
1.85742e-08
3.07945e-07
1.8028e-08
3.08002e-07
1.75192e-08
3.08052e-07
1.70446e-08
3.08096e-07
1.66017e-08
3.08134e-07
1.61885e-08
3.08167e-07
1.58036e-08
3.08194e-07
1.54461e-08
3.08215e-07
1.51156e-08
3.08231e-07
1.4812e-08
3.08242e-07
1.45356e-08
3.08247e-07
1.42866e-08
3.08245e-07
1.4066e-08
3.08238e-07
1.38746e-08
3.08223e-07
1.37144e-08
3.08201e-07
1.35868e-08
3.08172e-07
1.34951e-08
3.08134e-07
1.34418e-08
3.08088e-07
1.34321e-08
3.08033e-07
1.34702e-08
3.07968e-07
1.35644e-08
3.07892e-07
1.37216e-08
3.07807e-07
1.3954e-08
3.07712e-07
1.42742e-08
3.07607e-07
1.46995e-08
3.07494e-07
1.52519e-08
3.07375e-07
1.59597e-08
3.0726e-07
1.68541e-08
3.07158e-07
1.79888e-08
3.07094e-07
1.93732e-08
2.10797e-08
3.07114e-07
3.07633e-07
2.69138e-08
3.10607e-07
4.99345e-08
3.11893e-07
4.51747e-08
3.12841e-07
3.88193e-08
3.13698e-07
3.68726e-08
3.14276e-07
3.51449e-08
3.1466e-07
3.26652e-08
3.14979e-07
3.04324e-08
3.15259e-07
2.8712e-08
3.15496e-07
2.7268e-08
3.15696e-07
2.59637e-08
3.1587e-07
2.4785e-08
3.16024e-07
2.37279e-08
3.16161e-07
2.27747e-08
3.16283e-07
2.19073e-08
3.16392e-07
2.11127e-08
3.1649e-07
2.03818e-08
3.16578e-07
1.97072e-08
3.16657e-07
1.9083e-08
3.16727e-07
1.85037e-08
3.1679e-07
1.79651e-08
3.16846e-07
1.74634e-08
3.16895e-07
1.69955e-08
3.16938e-07
1.65588e-08
3.16975e-07
1.61515e-08
3.17006e-07
1.57724e-08
3.17031e-07
1.54204e-08
3.17052e-07
1.50954e-08
3.17066e-07
1.47973e-08
3.17075e-07
1.45264e-08
3.17079e-07
1.42832e-08
3.17076e-07
1.40687e-08
3.17067e-07
1.38837e-08
3.17051e-07
1.37302e-08
3.17028e-07
1.36097e-08
3.16998e-07
1.35255e-08
3.16959e-07
1.34802e-08
3.16913e-07
1.34789e-08
3.16857e-07
1.3526e-08
3.16792e-07
1.36292e-08
3.16718e-07
1.3796e-08
3.16634e-07
1.40379e-08
3.16541e-07
1.43672e-08
3.16439e-07
1.48011e-08
3.16332e-07
1.53593e-08
3.16221e-07
1.60705e-08
3.16116e-07
1.6959e-08
3.16029e-07
1.80757e-08
3.15984e-07
1.94183e-08
2.1042e-08
3.16022e-07
3.16742e-07
2.43228e-08
3.19655e-07
4.70214e-08
3.20973e-07
4.38574e-08
3.21898e-07
3.78943e-08
3.22757e-07
3.60134e-08
3.23361e-07
3.45409e-08
3.2376e-07
3.22656e-08
3.24085e-07
3.01075e-08
3.24371e-07
2.84265e-08
3.24613e-07
2.70258e-08
3.24817e-07
2.57594e-08
3.24994e-07
2.4608e-08
3.2515e-07
2.35719e-08
3.25288e-07
2.26364e-08
3.25411e-07
2.17843e-08
3.25521e-07
2.1003e-08
3.25619e-07
2.02836e-08
3.25707e-07
1.96194e-08
3.25786e-07
1.90044e-08
3.25856e-07
1.84337e-08
3.25918e-07
1.79029e-08
3.25973e-07
1.74085e-08
3.26021e-07
1.69473e-08
3.26063e-07
1.65171e-08
3.26099e-07
1.61158e-08
3.26128e-07
1.57424e-08
3.26153e-07
1.53961e-08
3.26172e-07
1.50767e-08
3.26185e-07
1.47842e-08
3.26192e-07
1.45189e-08
3.26194e-07
1.42815e-08
3.2619e-07
1.4073e-08
3.26179e-07
1.38945e-08
3.26161e-07
1.37477e-08
3.26137e-07
1.36343e-08
3.26105e-07
1.35575e-08
3.26065e-07
1.35202e-08
3.26017e-07
1.35271e-08
3.2596e-07
1.35829e-08
3.25894e-07
1.3695e-08
3.25819e-07
1.38709e-08
3.25735e-07
1.41217e-08
3.25643e-07
1.44592e-08
3.25544e-07
1.49006e-08
3.2544e-07
1.54632e-08
3.25335e-07
1.61754e-08
3.25238e-07
1.70557e-08
3.25164e-07
1.81504e-08
3.25133e-07
1.94491e-08
2.09914e-08
3.25183e-07
3.26153e-07
2.19728e-08
3.28993e-07
4.41808e-08
3.30345e-07
4.25055e-08
3.31249e-07
3.699e-08
3.32105e-07
3.51575e-08
3.32734e-07
3.39124e-08
3.3315e-07
3.18491e-08
3.33482e-07
2.97764e-08
3.33772e-07
2.81357e-08
3.3402e-07
2.67779e-08
3.34229e-07
2.55505e-08
3.34409e-07
2.4428e-08
3.34567e-07
2.34137e-08
3.34707e-07
2.24964e-08
3.34832e-07
2.16601e-08
3.34942e-07
2.08924e-08
3.35041e-07
2.01851e-08
3.35129e-07
1.95314e-08
3.35207e-07
1.8926e-08
3.35277e-07
1.8364e-08
3.35339e-07
1.78412e-08
3.35393e-07
1.73542e-08
3.3544e-07
1.69e-08
3.35481e-07
1.64763e-08
3.35515e-07
1.60812e-08
3.35544e-07
1.57137e-08
3.35567e-07
1.53732e-08
3.35584e-07
1.50594e-08
3.35596e-07
1.47725e-08
3.35602e-07
1.45129e-08
3.35602e-07
1.42815e-08
3.35596e-07
1.40791e-08