/*--------------------------------*- C++ -*----------------------------------*\
  =========                 |
  \\      /  F ield         | OpenFOAM: The Open Source CFD Toolbox
   \\    /   O peration     | Website:  https://openfoam.org
    \\  /    A nd           | Version:  7
     \\/     M anipulation  |
\*---------------------------------------------------------------------------*/
FoamFile
{
    version     2.0;
    format      ascii;
    class       volVectorField;
    location    "0.23";
    object      U;
}
// * * * * * * * * * * * * * * * * * * * * * * * * * * * * * * * * * * * * * //

dimensions      [0 1 -1 0 0 0 0];

internalField   nonuniform List<vector> 
70000
(
(0.553388 0.0167232 0)
(0.251247 0.00340127 0)
(0.166168 0.000322279 0)
(0.1324 5.4504e-05 0)
(0.117188 4.59389e-05 0)
(0.107241 5.41192e-05 0)
(0.0992687 4.6493e-05 0)
(0.0928042 3.71662e-05 0)
(0.0875346 3.08674e-05 0)
(0.08314 2.65564e-05 0)
(0.0793919 2.32753e-05 0)
(0.0761424 2.06507e-05 0)
(0.0732899 1.8514e-05 0)
(0.0707603 1.67524e-05 0)
(0.0684973 1.52827e-05 0)
(0.0664572 1.40435e-05 0)
(0.0646057 1.29891e-05 0)
(0.0629151 1.20851e-05 0)
(0.0613632 1.13051e-05 0)
(0.0599316 1.0629e-05 0)
(0.0586049 1.00406e-05 0)
(0.0573704 9.52787e-06 0)
(0.056217 9.08079e-06 0)
(0.0551355 8.69206e-06 0)
(0.0541175 8.35535e-06 0)
(0.0531561 8.06683e-06 0)
(0.0522448 7.82213e-06 0)
(0.051378 7.6204e-06 0)
(0.0505506 7.4582e-06 0)
(0.0497576 7.33805e-06 0)
(0.048995 7.25584e-06 0)
(0.0482582 7.21983e-06 0)
(0.0475435 7.22153e-06 0)
(0.0468467 7.27999e-06 0)
(0.046164 7.37803e-06 0)
(0.0454911 7.54999e-06 0)
(0.0448238 7.77048e-06 0)
(0.0441579 8.07979e-06 0)
(0.0434866 8.47995e-06 0)
(0.0428092 8.93572e-06 0)
(0.0421081 9.65997e-06 0)
(0.0413989 1.01738e-05 0)
(0.0406285 1.16325e-05 0)
(0.0398689 1.17231e-05 0)
(0.0389579 1.5162e-05 0)
(0.0381472 1.29986e-05 0)
(0.0369484 2.22708e-05 0)
(0.0361312 1.17756e-05 0)
(0.0344759 4.1912e-05 0)
(0.0312245 -0.00124518 0)
(0.884898 0.0431682 0)
(0.649693 0.0201958 0)
(0.494256 0.00660075 0)
(0.403548 0.00277032 0)
(0.354569 0.00155494 0)
(0.323208 0.00113475 0)
(0.299287 0.000913727 0)
(0.280027 0.000749988 0)
(0.264249 0.000627304 0)
(0.251061 0.000536724 0)
(0.239812 0.00046801 0)
(0.230061 0.000413988 0)
(0.221501 0.00037039 0)
(0.213911 0.000334561 0)
(0.20712 0.000304696 0)
(0.200998 0.000279505 0)
(0.195443 0.000258034 0)
(0.190373 0.000239574 0)
(0.185719 0.000223579 0)
(0.181429 0.000209634 0)
(0.177455 0.000197412 0)
(0.17376 0.000186656 0)
(0.170312 0.000177162 0)
(0.167081 0.000168767 0)
(0.164044 0.000161342 0)
(0.161181 0.000154784 0)
(0.158471 0.000149009 0)
(0.1559 0.000143956 0)
(0.153451 0.000139575 0)
(0.151111 0.000135839 0)
(0.148868 0.000132718 0)
(0.146709 0.000130224 0)
(0.144623 0.000128337 0)
(0.1426 0.000127125 0)
(0.140629 0.000126553 0)
(0.138699 0.000126795 0)
(0.136798 0.000127753 0)
(0.134916 0.000129794 0)
(0.133034 0.000132686 0)
(0.131153 0.000137099 0)
(0.129225 0.000142675 0)
(0.127294 0.000150294 0)
(0.125221 0.000160061 0)
(0.123196 0.000171778 0)
(0.120795 0.000189267 0)
(0.118674 0.000204675 0)
(0.115573 0.000241352 0)
(0.113453 0.000237651 0)
(0.109202 0.000466679 0)
(0.103975 -0.0017914 0)
(0.991238 0.0499029 0)
(0.89033 0.0307228 0)
(0.762619 0.0146037 0)
(0.656542 0.00798667 0)
(0.585141 0.00489258 0)
(0.535655 0.00347948 0)
(0.497701 0.00274457 0)
(0.46699 0.00225278 0)
(0.441578 0.00189013 0)
(0.420167 0.001619 0)
(0.40181 0.00141203 0)
(0.385841 0.00124925 0)
(0.371783 0.00111794 0)
(0.359287 0.00100999 0)
(0.348086 0.000919959 0)
(0.337974 0.000843942 0)
(0.328786 0.000779088 0)
(0.320391 0.000723259 0)
(0.312681 0.000674827 0)
(0.305568 0.000632534 0)
(0.298978 0.000595399 0)
(0.29285 0.000562648 0)
(0.287129 0.000533664 0)
(0.281772 0.000507953 0)
(0.276738 0.000485117 0)
(0.271993 0.00046484 0)
(0.267508 0.000446864 0)
(0.263254 0.000430993 0)
(0.25921 0.000417068 0)
(0.255351 0.000404984 0)
(0.251659 0.000394654 0)
(0.248114 0.000386068 0)
(0.244699 0.000379179 0)
(0.241397 0.000374114 0)
(0.238192 0.00037081 0)
(0.235066 0.00036965 0)
(0.232003 0.000370409 0)
(0.228986 0.000374021 0)
(0.225991 0.000379768 0)
(0.223015 0.000389739 0)
(0.219991 0.000402084 0)
(0.216983 0.000421095 0)
(0.21379 0.000442935 0)
(0.210685 0.00047519 0)
(0.207066 0.000512578 0)
(0.20386 0.000562706 0)
(0.199302 0.000637258 0)
(0.196089 0.000662868 0)
(0.189934 0.00104874 0)
(0.184402 -0.00116789 0)
(1.0156 0.0489223 0)
(1.00595 0.035881 0)
(0.935901 0.0208016 0)
(0.852005 0.0135166 0)
(0.781982 0.00922156 0)
(0.72669 0.00679617 0)
(0.681507 0.00539955 0)
(0.64364 0.00446142 0)
(0.611506 0.00376866 0)
(0.583916 0.00324376 0)
(0.559934 0.00283836 0)
(0.538856 0.00251733 0)
(0.520151 0.00225719 0)
(0.503417 0.00204255 0)
(0.488338 0.00186293 0)
(0.474664 0.00171083 0)
(0.462196 0.00158072 0)
(0.450768 0.00146844 0)
(0.440247 0.00137081 0)
(0.430519 0.00128537 0)
(0.421491 0.00121018 0)
(0.413081 0.00114371 0)
(0.405223 0.00108473 0)
(0.397856 0.00103226 0)
(0.39093 0.000985514 0)
(0.384398 0.000943838 0)
(0.378223 0.000906718 0)
(0.372368 0.000873742 0)
(0.366802 0.000844589 0)
(0.361495 0.00081902 0)
(0.356422 0.000796857 0)
(0.351558 0.000778031 0)
(0.34688 0.000762458 0)
(0.342366 0.000750303 0)
(0.337995 0.000741472 0)
(0.333746 0.000736583 0)
(0.329597 0.000735252 0)
(0.325528 0.000739128 0)
(0.321508 0.000746808 0)
(0.317535 0.000762352 0)
(0.313529 0.000781601 0)
(0.309561 0.000814043 0)
(0.305401 0.000849127 0)
(0.301358 0.000907556 0)
(0.296749 0.000966751 0)
(0.292608 0.00106369 0)
(0.286983 0.00117932 0)
(0.282778 0.00126031 0)
(0.275402 0.00175555 0)
(0.269349 -4.22695e-05 0)
(1.01434 0.046006 0)
(1.04752 0.0374961 0)
(1.02454 0.0241649 0)
(0.974666 0.0175765 0)
(0.923275 0.0131423 0)
(0.876409 0.0102281 0)
(0.834142 0.00836622 0)
(0.796279 0.00704671 0)
(0.762594 0.00603831 0)
(0.732648 0.00525212 0)
(0.705931 0.00463131 0)
(0.681973 0.00413179 0)
(0.660375 0.00372221 0)
(0.640806 0.00338111 0)
(0.622988 0.00309346 0)
(0.60669 0.0028483 0)
(0.591721 0.00263741 0)
(0.577916 0.00245453 0)
(0.565139 0.00229483 0)
(0.553272 0.00215452 0)
(0.542215 0.00203059 0)
(0.531882 0.00192066 0)
(0.522198 0.00182279 0)
(0.513097 0.00173543 0)
(0.504522 0.00165732 0)
(0.496423 0.00158741 0)
(0.488753 0.00152487 0)
(0.481473 0.00146903 0)
(0.474547 0.00141936 0)
(0.46794 0.00137545 0)
(0.461623 0.001337 0)
(0.455566 0.00130386 0)
(0.449745 0.00127588 0)
(0.444132 0.00125327 0)
(0.438705 0.00123588 0)
(0.433438 0.00122458 0)
(0.428307 0.0012188 0)
(0.423289 0.00122097 0)
(0.418351 0.00122894 0)
(0.413485 0.00124895 0)
(0.408612 0.00127426 0)
(0.403796 0.00132019 0)
(0.398808 0.00136863 0)
(0.393946 0.00145497 0)
(0.38854 0.00153769 0)
(0.383574 0.00168491 0)
(0.3772 0.0018472 0)
(0.372055 0.00199395 0)
(0.36405 0.00258858 0)
(0.357044 0.00125003 0)
(1.00933 0.0429176 0)
(1.05527 0.0372724 0)
(1.05866 0.0253116 0)
(1.0363 0.0197804 0)
(1.00697 0.0158371 0)
(0.975835 0.0129649 0)
(0.944209 0.0109916 0)
(0.913229 0.00951204 0)
(0.883748 0.00832391 0)
(0.856155 0.00735813 0)
(0.83053 0.00656993 0)
(0.806811 0.00591931 0)
(0.784878 0.005375 0)
(0.764589 0.0049143 0)
(0.745796 0.00452057 0)
(0.728358 0.00418123 0)
(0.712146 0.00388655 0)
(0.697039 0.00362893 0)
(0.682932 0.00340234 0)
(0.669728 0.003202 0)
(0.657343 0.00302406 0)
(0.645699 0.0028654 0)
(0.634731 0.00272347 0)
(0.624376 0.00259622 0)
(0.61458 0.00248192 0)
(0.605295 0.00237917 0)
(0.596475 0.00228684 0)
(0.588082 0.00220399 0)
(0.580077 0.00212987 0)
(0.572428 0.00206392 0)
(0.565102 0.0020057 0)
(0.558071 0.00195498 0)
(0.551307 0.00191156 0)
(0.544782 0.00187563 0)
(0.538473 0.00184706 0)
(0.532352 0.00182691 0)
(0.526396 0.0018145 0)
(0.520577 0.00181298 0)
(0.514864 0.00181953 0)
(0.509245 0.00184246 0)
(0.503645 0.00187275 0)
(0.498114 0.00193108 0)
(0.492448 0.00199283 0)
(0.486895 0.00210611 0)
(0.48087 0.00221482 0)
(0.475194 0.00240965 0)
(0.468321 0.00262673 0)
(0.462331 0.00283808 0)
(0.454057 0.00353859 0)
(0.446159 0.00265637 0)
(1.00625 0.0400364 0)
(1.05206 0.0363457 0)
(1.06607 0.0252425 0)
(1.05955 0.0205832 0)
(1.04677 0.0172685 0)
(1.03063 0.0146909 0)
(1.01164 0.0128588 0)
(0.990856 0.0114375 0)
(0.969328 0.0102441 0)
(0.947793 0.00923125 0)
(0.926696 0.00837353 0)
(0.906302 0.00764323 0)
(0.886759 0.0070161 0)
(0.868136 0.00647345 0)
(0.850452 0.00600093 0)
(0.833696 0.00558713 0)
(0.817834 0.00522284 0)
(0.802824 0.00490056 0)
(0.788617 0.00461415 0)
(0.775163 0.00435858 0)
(0.762413 0.00412974 0)
(0.750317 0.00392419 0)
(0.738831 0.0037391 0)
(0.727909 0.00357213 0)
(0.717512 0.0034213 0)
(0.7076 0.00328499 0)
(0.698137 0.00316184 0)
(0.689091 0.00305075 0)
(0.680428 0.00295082 0)
(0.672121 0.00286136 0)
(0.66414 0.00278185 0)
(0.656458 0.00271199 0)
(0.649051 0.00265156 0)
(0.641893 0.0026008 0)
(0.634961 0.00255953 0)
(0.628228 0.00252906 0)
(0.621672 0.00250863 0)
(0.615267 0.00250203 0)
(0.608982 0.00250601 0)
(0.602801 0.00253056 0)
(0.596661 0.00256509 0)
(0.590592 0.00263439 0)
(0.584426 0.0027097 0)
(0.578346 0.0028476 0)
(0.571888 0.00298511 0)
(0.565661 0.00322238 0)
(0.558488 0.00350096 0)
(0.551842 0.00377594 0)
(0.543473 0.00457875 0)
(0.535016 0.00415545 0)
(1.00495 0.0373586 0)
(1.04726 0.0352643 0)
(1.06395 0.0247039 0)
(1.06421 0.0206119 0)
(1.0606 0.0178099 0)
(1.05461 0.0155386 0)
(1.04578 0.0139227 0)
(1.03451 0.0126676 0)
(1.0215 0.0115865 0)
(1.00735 0.010638 0)
(0.992536 0.00980896 0)
(0.977404 0.00908222 0)
(0.962223 0.00844119 0)
(0.947187 0.00787294 0)
(0.932433 0.00736734 0)
(0.918052 0.00691604 0)
(0.904105 0.00651196 0)
(0.890624 0.00614911 0)
(0.877626 0.00582233 0)
(0.865116 0.00552729 0)
(0.853089 0.00526027 0)
(0.841532 0.00501814 0)
(0.830432 0.00479824 0)
(0.819769 0.00459829 0)
(0.809524 0.00441639 0)
(0.799677 0.00425089 0)
(0.790207 0.00410045 0)
(0.781091 0.00396392 0)
(0.772309 0.00384041 0)
(0.763839 0.00372918 0)
(0.755662 0.00362973 0)
(0.747757 0.00354175 0)
(0.740103 0.00346506 0)
(0.73268 0.00339995 0)
(0.725469 0.00334633 0)
(0.718446 0.00330568 0)
(0.711593 0.00327729 0)
(0.704885 0.00326547 0)
(0.698296 0.00326682 0)
(0.691807 0.00329253 0)
(0.68537 0.00333137 0)
(0.678993 0.00341062 0)
(0.672551 0.0035002 0)
(0.666161 0.00366035 0)
(0.659478 0.00382911 0)
(0.652918 0.00410419 0)
(0.645636 0.00444693 0)
(0.638595 0.00478887 0)
(0.630269 0.00568197 0)
(0.621596 0.00570223 0)
(1.0044 0.034811 0)
(1.04323 0.0341919 0)
(1.05992 0.0240641 0)
(1.06224 0.0203201 0)
(1.06242 0.0178767 0)
(1.06168 0.0158238 0)
(1.05906 0.0143825 0)
(1.05444 0.0132941 0)
(1.04814 0.0123566 0)
(1.04048 0.0115216 0)
(1.03172 0.0107783 0)
(1.02214 0.0101136 0)
(1.01195 0.00951485 0)
(1.00136 0.00897283 0)
(0.990534 0.00848073 0)
(0.979597 0.00803309 0)
(0.968655 0.00762523 0)
(0.95779 0.00725303 0)
(0.94706 0.00691289 0)
(0.936512 0.00660162 0)
(0.926178 0.00631647 0)
(0.91608 0.006055 0)
(0.906233 0.0058151 0)
(0.896645 0.00559496 0)
(0.887319 0.00539298 0)
(0.878254 0.0052078 0)
(0.869447 0.00503827 0)
(0.860891 0.00488341 0)
(0.852579 0.00474246 0)
(0.8445 0.0046148 0)
(0.836645 0.00450004 0)
(0.829002 0.00439795 0)
(0.821558 0.00430848 0)
(0.814299 0.00423203 0)
(0.807212 0.00416865 0)
(0.800281 0.00412005 0)
(0.79349 0.00408564 0)
(0.786819 0.00407015 0)
(0.780249 0.00407032 0)
(0.773759 0.00409807 0)
(0.767315 0.00414239 0)
(0.760912 0.00423157 0)
(0.754459 0.00433674 0)
(0.748023 0.00451762 0)
(0.74136 0.00471942 0)
(0.734729 0.00502945 0)
(0.727551 0.00543548 0)
(0.720413 0.00584947 0)
(0.71231 0.00682032 0)
(0.70374 0.00724569 0)
(1.00402 0.0323711 0)
(1.0399 0.0331425 0)
(1.05614 0.0234423 0)
(1.05888 0.0199338 0)
(1.06015 0.017749 0)
(1.06146 0.0158315 0)
(1.06179 0.0144923 0)
(1.06084 0.0135199 0)
(1.05871 0.0126996 0)
(1.0555 0.0119716 0)
(1.05132 0.0113226 0)
(1.04627 0.0107391 0)
(1.04047 0.0102085 0)
(1.03406 0.00972204 0)
(1.02715 0.00927416 0)
(1.01985 0.00886076 0)
(1.01226 0.00847856 0)
(1.00447 0.00812479 0)
(0.996543 0.00779705 0)
(0.988541 0.00749324 0)
(0.980513 0.0072115 0)
(0.972501 0.0069502 0)
(0.964537 0.00670793 0)
(0.956647 0.00648342 0)
(0.948852 0.00627559 0)
(0.941165 0.00608348 0)
(0.9336 0.0059063 0)
(0.926161 0.00574338 0)
(0.918854 0.0055942 0)
(0.911681 0.00545837 0)
(0.90464 0.0053357 0)
(0.89773 0.00522617 0)
(0.890945 0.00512988 0)
(0.884281 0.00504746 0)
(0.87773 0.00497913 0)
(0.871282 0.00492682 0)
(0.864928 0.00489023 0)
(0.858653 0.00487436 0)
(0.852444 0.00487637 0)
(0.846284 0.00490851 0)
(0.840146 0.00496071 0)
(0.834023 0.00506104 0)
(0.827849 0.00518374 0)
(0.821657 0.00538509 0)
(0.815278 0.00562118 0)
(0.808865 0.005965 0)
(0.80203 0.0064314 0)
(0.795103 0.00692167 0)
(0.787445 0.00795988 0)
(0.77929 0.00873668 0)
(1.00364 0.030031 0)
(1.03691 0.0320958 0)
(1.0528 0.0228539 0)
(1.05564 0.0195305 0)
(1.05705 0.0175594 0)
(1.05892 0.0157346 0)
(1.06032 0.0144436 0)
(1.06096 0.013535 0)
(1.06091 0.0127893 0)
(1.06018 0.0121366 0)
(1.0588 0.0115611 0)
(1.05675 0.0110478 0)
(1.05409 0.0105827 0)
(1.05086 0.0101558 0)
(1.04712 0.00976114 0)
(1.04293 0.00939448 0)
(1.03835 0.00905274 0)
(1.03343 0.00873356 0)
(1.02825 0.00843501 0)
(1.02284 0.00815552 0)
(1.01725 0.0078938 0)
(1.01152 0.00764875 0)
(1.0057 0.00741943 0)
(0.999799 0.00720507 0)
(0.993858 0.00700502 0)
(0.987896 0.00681872 0)
(0.98193 0.00664575 0)
(0.975977 0.00648576 0)
(0.970048 0.00633853 0)
(0.964153 0.00620395 0)
(0.958298 0.00608207 0)
(0.952487 0.0059731 0)
(0.946724 0.00587737 0)
(0.941009 0.00579573 0)
(0.93534 0.00572864 0)
(0.929714 0.00567829 0)
(0.924126 0.00564466 0)
(0.918569 0.00563302 0)
(0.913033 0.00564107 0)
(0.907506 0.00568113 0)
(0.90197 0.00574452 0)
(0.896416 0.00585828 0)
(0.890797 0.00600094 0)
(0.885129 0.00622353 0)
(0.879295 0.00649478 0)
(0.873375 0.00687239 0)
(0.867124 0.00739524 0)
(0.860701 0.00796388 0)
(0.853716 0.0090606 0)
(0.84627 0.0101279 0)
(1.00327 0.0277915 0)
(1.03408 0.0310379 0)
(1.04968 0.022292 0)
(1.05268 0.0191252 0)
(1.05405 0.0173512 0)
(1.05597 0.0156085 0)
(1.05765 0.0143402 0)
(1.05882 0.0134625 0)
(1.05957 0.0127582 0)
(1.05997 0.0121499 0)
(1.05998 0.0116204 0)
(1.05959 0.0111547 0)
(1.05878 0.0107377 0)
(1.05757 0.0103583 0)
(1.05596 0.0100095 0)
(1.05398 0.00968627 0)
(1.05165 0.00938512 0)
(1.049 0.00910342 0)
(1.04605 0.00883913 0)
(1.04284 0.00859068 0)
(1.0394 0.00835686 0)
(1.03576 0.00813673 0)
(1.03194 0.00792956 0)
(1.02797 0.00773479 0)
(1.02388 0.00755202 0)
(1.01968 0.00738095 0)
(1.01539 0.00722141 0)
(1.01104 0.00707329 0)
(1.00663 0.00693665 0)
(1.00217 0.00681158 0)
(0.997678 0.00669837 0)
(0.993161 0.00659744 0)
(0.988622 0.00650935 0)
(0.984067 0.00643516 0)
(0.979499 0.00637557 0)
(0.974917 0.006333 0)
(0.970321 0.00630774 0)
(0.965707 0.00630526 0)
(0.961071 0.0063239 0)
(0.956404 0.00637581 0)
(0.951694 0.00645403 0)
(0.946934 0.00658394 0)
(0.942091 0.00674905 0)
(0.93717 0.00699418 0)
(0.932094 0.00730094 0)
(0.926897 0.00771281 0)
(0.921431 0.00828745 0)
(0.915755 0.00893386 0)
(0.909643 0.0100807 0)
(0.903146 0.0113764 0)
(1.00292 0.025656 0)
(1.03137 0.0299643 0)
(1.04668 0.0217522 0)
(1.04989 0.0187179 0)
(1.05124 0.0171309 0)
(1.05312 0.0154754 0)
(1.05483 0.0142232 0)
(1.05611 0.0133618 0)
(1.0571 0.0126812 0)
(1.05789 0.0120975 0)
(1.05847 0.0115934 0)
(1.05882 0.0111553 0)
(1.05893 0.0107679 0)
(1.05879 0.0104196 0)
(1.05839 0.0101027 0)
(1.05774 0.0098116 0)
(1.05684 0.00954235 0)
(1.05569 0.00929184 0)
(1.0543 0.00905772 0)
(1.05269 0.00883816 0)
(1.05087 0.00863178 0)
(1.04885 0.0084375 0)
(1.04665 0.00825456 0)
(1.04428 0.0080824 0)
(1.04176 0.00792065 0)
(1.0391 0.0077691 0)
(1.03632 0.00762768 0)
(1.03343 0.00749643 0)
(1.03044 0.00737553 0)
(1.02736 0.00726523 0)
(1.02421 0.00716596 0)
(1.02098 0.00707833 0)
(1.01768 0.00700303 0)
(1.01433 0.00694134 0)
(1.01091 0.0068941 0)
(1.00744 0.00686397 0)
(1.00392 0.00685151 0)
(1.00035 0.00686231 0)
(0.996712 0.00689539 0)
(0.993016 0.00696252 0)
(0.989249 0.00705862 0)
(0.985405 0.00720705 0)
(0.981464 0.00739648 0)
(0.977422 0.00766531 0)
(0.973234 0.00800703 0)
(0.968905 0.00845339 0)
(0.964351 0.00907452 0)
(0.959582 0.00979505 0)
(0.954474 0.0109835 0)
(0.949078 0.0124486 0)
(1.0026 0.0236273 0)
(1.02879 0.0288738 0)
(1.04376 0.0212334 0)
(1.0472 0.0183086 0)
(1.04856 0.0168972 0)
(1.0504 0.0153379 0)
(1.0521 0.0141037 0)
(1.05339 0.0132538 0)
(1.05442 0.0125903 0)
(1.0553 0.0120224 0)
(1.05605 0.0115328 0)
(1.05667 0.0111098 0)
(1.05714 0.0107389 0)
(1.05748 0.0104086 0)
(1.05766 0.0101109 0)
(1.05769 0.00984008 0)
(1.05756 0.00959194 0)
(1.05727 0.00936311 0)
(1.05682 0.00915096 0)
(1.0562 0.00895343 0)
(1.05543 0.00876891 0)
(1.0545 0.00859615 0)
(1.05343 0.00843423 0)
(1.05221 0.00828248 0)
(1.05085 0.00814045 0)
(1.04937 0.0080079 0)
(1.04777 0.00788477 0)
(1.04605 0.00777111 0)
(1.04422 0.00766715 0)
(1.0423 0.00757321 0)
(1.04028 0.0074898 0)
(1.03817 0.00741763 0)
(1.03597 0.00735747 0)
(1.0337 0.00731073 0)
(1.03134 0.0072784 0)
(1.02891 0.00726326 0)
(1.0264 0.00726611 0)
(1.02382 0.0072926 0)
(1.02116 0.00734238 0)
(1.01842 0.00742673 0)
(1.01559 0.00754246 0)
(1.01267 0.00771068 0)
(1.00964 0.00792508 0)
(1.00651 0.00821795 0)
(1.00323 0.00859289 0)
(0.99981 0.00907302 0)
(0.996201 0.00973469 0)
(0.992395 0.0105226 0)
(0.988328 0.0117438 0)
(0.984077 0.0133249 0)
(1.0023 0.0217069 0)
(1.02633 0.0277671 0)
(1.04093 0.020734 0)
(1.04459 0.0178987 0)
(1.04597 0.0166488 0)
(1.04778 0.0151945 0)
(1.04948 0.0139829 0)
(1.05076 0.0131437 0)
(1.05179 0.0124955 0)
(1.05267 0.0119408 0)
(1.05345 0.0114615 0)
(1.05413 0.0110478 0)
(1.05472 0.0106867 0)
(1.05522 0.0103666 0)
(1.05563 0.0100799 0)
(1.05595 0.00982081 0)
(1.05618 0.00958523 0)
(1.0563 0.00936972 0)
(1.05633 0.00917157 0)
(1.05625 0.0089886 0)
(1.05606 0.00881909 0)
(1.05578 0.00866165 0)
(1.05538 0.00851524 0)
(1.05489 0.00837907 0)
(1.05429 0.00825261 0)
(1.05359 0.00813555 0)
(1.05279 0.00802779 0)
(1.05189 0.00792935 0)
(1.05091 0.00784046 0)
(1.04983 0.00776148 0)
(1.04867 0.00769292 0)
(1.04742 0.00763554 0)
(1.04608 0.00759017 0)
(1.04467 0.00755828 0)
(1.04317 0.00754096 0)
(1.0416 0.00754104 0)
(1.03994 0.00755958 0)
(1.0382 0.00760212 0)
(1.03638 0.00766899 0)
(1.03447 0.0077708 0)
(1.03247 0.00790621 0)
(1.03038 0.00809407 0)
(1.02818 0.00833256 0)
(1.02587 0.00864862 0)
(1.02344 0.00905376 0)
(1.02087 0.00956562 0)
(1.01814 0.0102613 0)
(1.01525 0.0111075 0)
(1.01217 0.0123518 0)
(1.009 0.0140028 0)
(1.00203 0.0198959 0)
(1.02401 0.0266475 0)
(1.0382 0.0202508 0)
(1.04207 0.0174902 0)
(1.04347 0.0163858 0)
(1.04525 0.0150437 0)
(1.04695 0.0138602 0)
(1.04824 0.0130318 0)
(1.04924 0.0123988 0)
(1.05011 0.0118573 0)
(1.05089 0.0113873 0)
(1.05157 0.0109812 0)
(1.05218 0.0106269 0)
(1.05272 0.0103137 0)
(1.0532 0.0100338 0)
(1.05362 0.00978176 0)
(1.05397 0.00955358 0)
(1.05426 0.00934592 0)
(1.05449 0.00915613 0)
(1.05466 0.00898204 0)
(1.05476 0.00882189 0)
(1.0548 0.00867428 0)
(1.05476 0.00853809 0)
(1.05466 0.00841249 0)
(1.05449 0.00829689 0)
(1.05424 0.00819094 0)
(1.05393 0.0080945 0)
(1.05355 0.00800759 0)
(1.05309 0.00793042 0)
(1.05257 0.00786336 0)
(1.05198 0.00780693 0)
(1.05131 0.00776193 0)
(1.05058 0.00772919 0)
(1.04978 0.00771025 0)
(1.0489 0.00770624 0)
(1.04795 0.00772004 0)
(1.04693 0.00775288 0)
(1.04583 0.00781018 0)
(1.04466 0.00789287 0)
(1.0434 0.00801087 0)
(1.04206 0.00816451 0)
(1.04063 0.00837051 0)
(1.03911 0.00863086 0)
(1.03748 0.00896814 0)
(1.03575 0.0093994 0)
(1.0339 0.0099397 0)
(1.03192 0.0106626 0)
(1.02981 0.011556 0)
(1.02758 0.0128139 0)
(1.02535 0.0144964 0)
(1.00179 0.0181943 0)
(1.02183 0.0255186 0)
(1.03556 0.0197801 0)
(1.03963 0.0170849 0)
(1.04107 0.0161089 0)
(1.04281 0.0148847 0)
(1.04451 0.0137351 0)
(1.0458 0.0129179 0)
(1.0468 0.0123002 0)
(1.04765 0.0117725 0)
(1.04841 0.0113121 0)
(1.04909 0.0109131 0)
(1.04969 0.0105652 0)
(1.05023 0.0102576 0)
(1.05071 0.00998289 0)
(1.05115 0.0097359 0)
(1.05154 0.00951268 0)
(1.05188 0.00931007 0)
(1.05218 0.00912551 0)
(1.05244 0.00895691 0)
(1.05266 0.00880255 0)
(1.05283 0.00866104 0)
(1.05296 0.00853127 0)
(1.05304 0.00841242 0)
(1.05308 0.00830388 0)
(1.05307 0.00820529 0)
(1.05301 0.00811653 0)
(1.0529 0.00803761 0)
(1.05275 0.00796875 0)
(1.05254 0.00791036 0)
(1.05228 0.00786295 0)
(1.05197 0.00782738 0)
(1.05161 0.00780449 0)
(1.05119 0.00779585 0)
(1.05072 0.00780265 0)
(1.05018 0.00782777 0)
(1.04958 0.00787263 0)
(1.04892 0.00794246 0)
(1.0482 0.00803877 0)
(1.0474 0.00817077 0)
(1.04653 0.00834026 0)
(1.04558 0.00856206 0)
(1.04455 0.00884121 0)
(1.04344 0.00919699 0)
(1.04223 0.00964982 0)
(1.04093 0.0102144 0)
(1.03953 0.0109579 0)
(1.03805 0.0118869 0)
(1.03649 0.0131489 0)
(1.035 0.0148325 0)
(1.00157 0.0166019 0)
(1.01978 0.0243846 0)
(1.03302 0.0193177 0)
(1.03728 0.0166845 0)
(1.03876 0.0158193 0)
(1.04046 0.0147168 0)
(1.04215 0.0136074 0)
(1.04344 0.0128019 0)
(1.04444 0.0121995 0)
(1.04528 0.0116863 0)
(1.04603 0.0112359 0)
(1.04669 0.0108445 0)
(1.04728 0.0105028 0)
(1.04781 0.0102006 0)
(1.04828 0.00993079 0)
(1.04871 0.00968818 0)
(1.0491 0.00946903 0)
(1.04945 0.00927033 0)
(1.04977 0.00908962 0)
(1.05005 0.00892488 0)
(1.0503 0.00877447 0)
(1.05052 0.00863704 0)
(1.05071 0.00851151 0)
(1.05086 0.00839708 0)
(1.05098 0.00829316 0)
(1.05108 0.00819943 0)
(1.05113 0.00811576 0)
(1.05116 0.00804223 0)
(1.05115 0.00797907 0)
(1.0511 0.00792673 0)
(1.05102 0.00788577 0)
(1.0509 0.00785706 0)
(1.05074 0.00784149 0)
(1.05053 0.00784067 0)
(1.05029 0.00785585 0)
(1.04999 0.00788987 0)
(1.04965 0.00794438 0)
(1.04926 0.00802437 0)
(1.04881 0.00813192 0)
(1.0483 0.00827551 0)
(1.04773 0.00845825 0)
(1.0471 0.00869331 0)
(1.0464 0.00898803 0)
(1.04563 0.00935936 0)
(1.04479 0.00982932 0)
(1.04387 0.0104137 0)
(1.04288 0.0111717 0)
(1.04185 0.0121252 0)
(1.04078 0.0133828 0)
(1.03984 0.0150445 0)
(1.00137 0.0151178 0)
(1.01787 0.0232493 0)
(1.03059 0.0188597 0)
(1.03502 0.0162905 0)
(1.03654 0.0155185 0)
(1.03821 0.0145394 0)
(1.03988 0.0134765 0)
(1.04118 0.012684 0)
(1.04217 0.0120965 0)
(1.043 0.0115984 0)
(1.04373 0.0111588 0)
(1.04439 0.0107751 0)
(1.04496 0.0104398 0)
(1.04548 0.0101433 0)
(1.04594 0.00987837 0)
(1.04636 0.00964006 0)
(1.04674 0.00942479 0)
(1.04708 0.00922968 0)
(1.0474 0.00905235 0)
(1.04768 0.00889088 0)
(1.04793 0.00874368 0)
(1.04816 0.00860944 0)
(1.04836 0.00848713 0)
(1.04853 0.00837596 0)
(1.04868 0.00827539 0)
(1.04881 0.00818513 0)
(1.04891 0.00810509 0)
(1.04898 0.00803538 0)
(1.04903 0.00797629 0)
(1.04906 0.00792831 0)
(1.04905 0.00789204 0)
(1.04902 0.00786841 0)
(1.04895 0.00785835 0)
(1.04885 0.00786349 0)
(1.04872 0.00788517 0)
(1.04855 0.0079262 0)
(1.04835 0.00798841 0)
(1.0481 0.00807661 0)
(1.0478 0.00819333 0)
(1.04746 0.00834645 0)
(1.04707 0.00854011 0)
(1.04663 0.0087862 0)
(1.04613 0.0090936 0)
(1.04557 0.00947782 0)
(1.04496 0.00996107 0)
(1.04429 0.010561 0)
(1.04356 0.0113285 0)
(1.04283 0.0122965 0)
(1.0421 0.0135424 0)
(1.04153 0.015166 0)
(1.00119 0.0137403 0)
(1.0161 0.0221169 0)
(1.02827 0.0184026 0)
(1.03284 0.0159041 0)
(1.03441 0.0152082 0)
(1.03604 0.0143519 0)
(1.0377 0.0133422 0)
(1.03901 0.012564 0)
(1.03999 0.0119913 0)
(1.04081 0.0115086 0)
(1.04153 0.0110805 0)
(1.04217 0.010705 0)
(1.04274 0.0103764 0)
(1.04324 0.0100857 0)
(1.0437 0.00982576 0)
(1.0441 0.00959186 0)
(1.04447 0.00938052 0)
(1.04481 0.00918899 0)
(1.04511 0.00901498 0)
(1.04538 0.00885663 0)
(1.04563 0.00871242 0)
(1.04585 0.00858108 0)
(1.04605 0.00846161 0)
(1.04622 0.00835325 0)
(1.04637 0.0082555 0)
(1.0465 0.00816809 0)
(1.04661 0.00809097 0)
(1.0467 0.00802432 0)
(1.04677 0.00796845 0)
(1.04681 0.00792392 0)
(1.04684 0.00789137 0)
(1.04684 0.00787178 0)
(1.04681 0.00786615 0)
(1.04676 0.00787611 0)
(1.04668 0.0079031 0)
(1.04656 0.0079499 0)
(1.04642 0.00801851 0)
(1.04624 0.00811355 0)
(1.04602 0.00823798 0)
(1.04576 0.00839914 0)
(1.04547 0.00860196 0)
(1.04512 0.00885737 0)
(1.04473 0.00917521 0)
(1.0443 0.00957016 0)
(1.04381 0.0100637 0)
(1.04329 0.0106756 0)
(1.04274 0.0114485 0)
(1.04219 0.0124226 0)
(1.04168 0.013651 0)
(1.04135 0.0152258 0)
(1.00104 0.0124672 0)
(1.01446 0.0209917 0)
(1.02606 0.0179428 0)
(1.03075 0.0155261 0)
(1.03238 0.0148904 0)
(1.03397 0.0141539 0)
(1.03561 0.0132039 0)
(1.03692 0.0124421 0)
(1.0379 0.0118837 0)
(1.03872 0.011417 0)
(1.03943 0.011001 0)
(1.04006 0.0106341 0)
(1.04061 0.0103124 0)
(1.04111 0.0100276 0)
(1.04155 0.00977293 0)
(1.04194 0.00954359 0)
(1.0423 0.0093363 0)
(1.04262 0.00914843 0)
(1.04292 0.0089778 0)
(1.04318 0.00882261 0)
(1.04342 0.00868139 0)
(1.04363 0.00855292 0)
(1.04382 0.00843621 0)
(1.04398 0.00833054 0)
(1.04413 0.00823543 0)
(1.04426 0.00815066 0)
(1.04436 0.00807621 0)
(1.04445 0.0080123 0)
(1.04452 0.00795931 0)
(1.04457 0.00791783 0)
(1.0446 0.00788856 0)
(1.0446 0.00787253 0)
(1.04459 0.00787077 0)
(1.04455 0.00788497 0)
(1.04449 0.00791664 0)
(1.04439 0.00796851 0)
(1.04427 0.00804278 0)
(1.04412 0.00814385 0)
(1.04394 0.00827508 0)
(1.04372 0.00844333 0)
(1.04346 0.00865416 0)
(1.04317 0.00891775 0)
(1.04284 0.00924443 0)
(1.04247 0.0096485 0)
(1.04206 0.0101501 0)
(1.04162 0.0107709 0)
(1.04117 0.0115462 0)
(1.04073 0.0125197 0)
(1.04036 0.013726 0)
(1.04018 0.0152457 0)
(1.0009 0.0112956 0)
(1.01295 0.0198781 0)
(1.02396 0.0174772 0)
(1.02874 0.0151569 0)
(1.03045 0.0145671 0)
(1.03199 0.0139452 0)
(1.03361 0.0130609 0)
(1.03492 0.0123182 0)
(1.03591 0.0117738 0)
(1.03671 0.0113232 0)
(1.03741 0.0109201 0)
(1.03803 0.0105622 0)
(1.03858 0.0102477 0)
(1.03906 0.00996914 0)
(1.03949 0.00971982 0)
(1.03988 0.0094952 0)
(1.04022 0.00929209 0)
(1.04054 0.009108 0)
(1.04082 0.00894085 0)
(1.04107 0.00878891 0)
(1.0413 0.00865074 0)
(1.0415 0.00852517 0)
(1.04168 0.00841126 0)
(1.04184 0.00830829 0)
(1.04198 0.00821582 0)
(1.0421 0.00813366 0)
(1.0422 0.00806182 0)
(1.04228 0.00800058 0)
(1.04235 0.00795036 0)
(1.04239 0.00791181 0)
(1.04242 0.00788567 0)
(1.04242 0.007873 0)
(1.04241 0.00787492 0)
(1.04237 0.00789311 0)
(1.04231 0.00792918 0)
(1.04222 0.0079858 0)
(1.04211 0.00806535 0)
(1.04197 0.00817206 0)
(1.04179 0.00830957 0)
(1.04159 0.0084844 0)
(1.04135 0.00870248 0)
(1.04108 0.00897353 0)
(1.04078 0.00930796 0)
(1.04044 0.00971996 0)
(1.04007 0.0102281 0)
(1.03969 0.0108553 0)
(1.03929 0.0116305 0)
(1.03893 0.0125983 0)
(1.03865 0.0137793 0)
(1.03856 0.0152406 0)
(1.00078 0.0102221 0)
(1.01156 0.0187804 0)
(1.02198 0.0170032 0)
(1.02683 0.0147966 0)
(1.0286 0.0142404 0)
(1.03011 0.0137258 0)
(1.0317 0.0129127 0)
(1.03301 0.0121922 0)
(1.034 0.0116618 0)
(1.03479 0.0112273 0)
(1.03549 0.0108376 0)
(1.0361 0.0104893 0)
(1.03663 0.0101822 0)
(1.03711 0.00991009 0)
(1.03753 0.00966637 0)
(1.03791 0.00944663 0)
(1.03824 0.00924785 0)
(1.03855 0.00906766 0)
(1.03882 0.00890409 0)
(1.03906 0.00875549 0)
(1.03928 0.00862046 0)
(1.03948 0.00849788 0)
(1.03965 0.00838682 0)
(1.0398 0.00828661 0)
(1.03993 0.00819683 0)
(1.04004 0.0081173 0)
(1.04013 0.00804811 0)
(1.04021 0.00798955 0)
(1.04027 0.00794211 0)
(1.0403 0.00790647 0)
(1.04033 0.00788344 0)
(1.04033 0.00787411 0)
(1.04031 0.00787966 0)
(1.04027 0.00790177 0)
(1.0402 0.00794214 0)
(1.04012 0.00800341 0)
(1.04 0.00808807 0)
(1.03986 0.00820024 0)
(1.03969 0.00834376 0)
(1.0395 0.00852488 0)
(1.03927 0.00874977 0)
(1.03901 0.00902778 0)
(1.03872 0.00936922 0)
(1.0384 0.00978821 0)
(1.03806 0.0103017 0)
(1.03771 0.0109332 0)
(1.03735 0.0117065 0)
(1.03705 0.0126644 0)
(1.03682 0.0138175 0)
(1.03679 0.0152195 0)
(1.00067 0.00924241 0)
(1.0103 0.0177031 0)
(1.02011 0.0165185 0)
(1.02499 0.0144451 0)
(1.02684 0.0139124 0)
(1.02832 0.013496 0)
(1.02988 0.0127585 0)
(1.03119 0.0120641 0)
(1.03218 0.0115474 0)
(1.03297 0.0111291 0)
(1.03365 0.0107535 0)
(1.03425 0.0104153 0)
(1.03478 0.010116 0)
(1.03525 0.00985043 0)
(1.03566 0.00961249 0)
(1.03603 0.00939781 0)
(1.03636 0.00920351 0)
(1.03665 0.00902735 0)
(1.03692 0.00886748 0)
(1.03715 0.00872231 0)
(1.03736 0.00859053 0)
(1.03755 0.00847101 0)
(1.03771 0.00836289 0)
(1.03785 0.0082655 0)
(1.03798 0.00817846 0)
(1.03808 0.00810163 0)
(1.03817 0.00803513 0)
(1.03824 0.0079793 0)
(1.03829 0.00793468 0)
(1.03832 0.00790199 0)
(1.03833 0.0078821 0)
(1.03833 0.00787614 0)
(1.03831 0.00788532 0)
(1.03826 0.00791137 0)
(1.03819 0.00795603 0)
(1.0381 0.00802191 0)
(1.03799 0.00811163 0)
(1.03785 0.00822918 0)
(1.03768 0.00837854 0)
(1.03749 0.00856578 0)
(1.03726 0.00879716 0)
(1.03701 0.00908177 0)
(1.03673 0.00942965 0)
(1.03643 0.00985483 0)
(1.0361 0.0103727 0)
(1.03578 0.0110067 0)
(1.03546 0.0117763 0)
(1.03519 0.0127212 0)
(1.03501 0.0138446 0)
(1.03503 0.0151876 0)
(1.00058 0.00835206 0)
(1.00916 0.0166505 0)
(1.01835 0.0160214 0)
(1.02324 0.0141016 0)
(1.02517 0.0135849 0)
(1.02662 0.0132563 0)
(1.02815 0.0125979 0)
(1.02945 0.0119336 0)
(1.03044 0.011431 0)
(1.03123 0.0110286 0)
(1.0319 0.0106676 0)
(1.0325 0.0103401 0)
(1.03302 0.0100488 0)
(1.03348 0.00979007 0)
(1.03388 0.00955812 0)
(1.03424 0.00934868 0)
(1.03456 0.009159 0)
(1.03485 0.00898701 0)
(1.03511 0.00883096 0)
(1.03534 0.00868934 0)
(1.03554 0.00856088 0)
(1.03572 0.00844452 0)
(1.03587 0.00833941 0)
(1.03601 0.00824491 0)
(1.03612 0.00816068 0)
(1.03622 0.00808661 0)
(1.0363 0.00802285 0)
(1.03636 0.00796981 0)
(1.03641 0.00792806 0)
(1.03643 0.00789838 0)
(1.03644 0.00788167 0)
(1.03643 0.00787912 0)
(1.0364 0.00789198 0)
(1.03636 0.00792199 0)
(1.03629 0.00797095 0)
(1.03619 0.00804145 0)
(1.03608 0.00813619 0)
(1.03594 0.00825908 0)
(1.03577 0.00841418 0)
(1.03558 0.00860739 0)
(1.03536 0.008845 0)
(1.03511 0.00913588 0)
(1.03484 0.0094897 0)
(1.03455 0.00992029 0)
(1.03424 0.0104416 0)
(1.03394 0.0110765 0)
(1.03364 0.0118408 0)
(1.03341 0.0127701 0)
(1.03327 0.0138624 0)
(1.03332 0.0151475 0)
(1.0005 0.00754598 0)
(1.00813 0.015627 0)
(1.0167 0.015511 0)
(1.02158 0.0137652 0)
(1.02359 0.0132598 0)
(1.02501 0.0130076 0)
(1.0265 0.0124303 0)
(1.0278 0.0118004 0)
(1.02879 0.0113124 0)
(1.02957 0.0109256 0)
(1.03024 0.0105797 0)
(1.03083 0.0102635 0)
(1.03134 0.0099806 0)
(1.03179 0.00972892 0)
(1.03219 0.00950316 0)
(1.03255 0.00929915 0)
(1.03286 0.00911426 0)
(1.03314 0.00894657 0)
(1.03339 0.00879446 0)
(1.03361 0.00865649 0)
(1.0338 0.00853147 0)