/*--------------------------------*- C++ -*----------------------------------*\
  =========                 |
  \\      /  F ield         | OpenFOAM: The Open Source CFD Toolbox
   \\    /   O peration     | Website:  https://openfoam.org
    \\  /    A nd           | Version:  7
     \\/     M anipulation  |
\*---------------------------------------------------------------------------*/
FoamFile
{
    version     2.0;
    format      ascii;
    class       volVectorField;
    location    "0.23";
    object      U_0;
}
// * * * * * * * * * * * * * * * * * * * * * * * * * * * * * * * * * * * * * //

dimensions      [0 1 -1 0 0 0 0];

internalField   nonuniform List<vector> 
70000
(
(0.553388 0.0167232 0)
(0.251247 0.00340127 0)
(0.166168 0.00032228 0)
(0.1324 5.45043e-05 0)
(0.117188 4.59392e-05 0)
(0.107241 5.41195e-05 0)
(0.0992686 4.64933e-05 0)
(0.092804 3.71665e-05 0)
(0.0875345 3.08676e-05 0)
(0.0831399 2.65567e-05 0)
(0.0793918 2.32755e-05 0)
(0.0761423 2.06509e-05 0)
(0.0732899 1.85141e-05 0)
(0.0707603 1.67525e-05 0)
(0.0684973 1.52829e-05 0)
(0.0664572 1.40437e-05 0)
(0.0646057 1.29892e-05 0)
(0.0629152 1.20853e-05 0)
(0.0613633 1.13052e-05 0)
(0.0599317 1.06291e-05 0)
(0.0586051 1.00407e-05 0)
(0.0573706 9.52791e-06 0)
(0.0562172 9.08079e-06 0)
(0.0551357 8.69201e-06 0)
(0.0541179 8.35526e-06 0)
(0.0531565 8.06668e-06 0)
(0.0522453 7.82192e-06 0)
(0.0513786 7.62013e-06 0)
(0.0505512 7.45786e-06 0)
(0.0497584 7.33763e-06 0)
(0.0489959 7.25534e-06 0)
(0.0482592 7.21923e-06 0)
(0.0475447 7.22084e-06 0)
(0.046848 7.27921e-06 0)
(0.0461655 7.37717e-06 0)
(0.0454928 7.54907e-06 0)
(0.0448257 7.76955e-06 0)
(0.0441601 8.07889e-06 0)
(0.043489 8.47925e-06 0)
(0.042812 8.93527e-06 0)
(0.0421111 9.66019e-06 0)
(0.0414022 1.01748e-05 0)
(0.0406321 1.16352e-05 0)
(0.0398729 1.1728e-05 0)
(0.0389622 1.51711e-05 0)
(0.0381516 1.30111e-05 0)
(0.0369528 2.22985e-05 0)
(0.0361357 1.17981e-05 0)
(0.0344784 4.20013e-05 0)
(0.0312284 -0.0012454 0)
(0.884898 0.0431682 0)
(0.649693 0.0201958 0)
(0.494255 0.00660075 0)
(0.403548 0.00277032 0)
(0.354568 0.00155494 0)
(0.323208 0.00113475 0)
(0.299287 0.000913727 0)
(0.280027 0.000749987 0)
(0.264249 0.000627303 0)
(0.251061 0.000536723 0)
(0.239812 0.000468008 0)
(0.230061 0.000413985 0)
(0.221502 0.000370387 0)
(0.213911 0.000334558 0)
(0.20712 0.000304693 0)
(0.200999 0.000279501 0)
(0.195444 0.00025803 0)
(0.190373 0.000239569 0)
(0.18572 0.000223574 0)
(0.18143 0.000209629 0)
(0.177456 0.000197406 0)
(0.173761 0.000186649 0)
(0.170313 0.000177153 0)
(0.167082 0.000168758 0)
(0.164046 0.000161331 0)
(0.161183 0.000154771 0)
(0.158474 0.000148995 0)
(0.155902 0.00014394 0)
(0.153454 0.000139557 0)
(0.151114 0.000135819 0)
(0.148871 0.000132695 0)
(0.146712 0.000130198 0)
(0.144628 0.000128307 0)
(0.142605 0.000127091 0)
(0.140635 0.000126515 0)
(0.138705 0.000126753 0)
(0.136804 0.000127705 0)
(0.134923 0.000129741 0)
(0.133042 0.000132628 0)
(0.131162 0.000137035 0)
(0.129236 0.000142606 0)
(0.127306 0.000150221 0)
(0.125234 0.000159985 0)
(0.12321 0.000171705 0)
(0.12081 0.000189204 0)
(0.118691 0.000204632 0)
(0.115591 0.000241352 0)
(0.113472 0.00023773 0)
(0.109218 0.000466925 0)
(0.103996 -0.00179111 0)
(0.991238 0.0499029 0)
(0.89033 0.0307228 0)
(0.762619 0.0146037 0)
(0.656542 0.00798668 0)
(0.585141 0.00489258 0)
(0.535655 0.00347948 0)
(0.497701 0.00274457 0)
(0.46699 0.00225278 0)
(0.441578 0.00189012 0)
(0.420167 0.00161899 0)
(0.40181 0.00141202 0)
(0.385841 0.00124924 0)
(0.371783 0.00111793 0)
(0.359287 0.00100998 0)
(0.348087 0.000919946 0)
(0.337975 0.000843929 0)
(0.328787 0.000779074 0)
(0.320392 0.000723244 0)
(0.312683 0.000674809 0)
(0.30557 0.000632515 0)
(0.29898 0.000595378 0)
(0.292852 0.000562624 0)
(0.287132 0.000533637 0)
(0.281774 0.000507922 0)
(0.276741 0.000485083 0)
(0.271996 0.000464801 0)
(0.267511 0.000446821 0)
(0.263259 0.000430943 0)
(0.259214 0.000417013 0)
(0.255356 0.000404921 0)
(0.251665 0.000394583 0)
(0.24812 0.000385988 0)
(0.244707 0.000379089 0)
(0.241405 0.000374011 0)
(0.238201 0.000370694 0)
(0.235076 0.000369519 0)
(0.232014 0.000370263 0)
(0.228999 0.000373856 0)
(0.226004 0.000379584 0)
(0.22303 0.000389534 0)
(0.220009 0.000401859 0)
(0.217002 0.00042085 0)
(0.213811 0.000442672 0)
(0.210709 0.000474917 0)
(0.207092 0.000512304 0)
(0.203889 0.000562463 0)
(0.199332 0.000637061 0)
(0.196122 0.000662868 0)
(0.189965 0.00104896 0)
(0.184441 -0.00116683 0)
(1.0156 0.0489223 0)
(1.00595 0.0358811 0)
(0.935901 0.0208016 0)
(0.852005 0.0135166 0)
(0.781982 0.00922156 0)
(0.72669 0.00679617 0)
(0.681506 0.00539955 0)
(0.64364 0.00446141 0)
(0.611506 0.00376865 0)
(0.583916 0.00324375 0)
(0.559935 0.00283834 0)
(0.538856 0.00251731 0)
(0.520152 0.00225717 0)
(0.503417 0.00204253 0)
(0.488339 0.0018629 0)
(0.474666 0.0017108 0)
(0.462197 0.00158069 0)
(0.45077 0.00146841 0)
(0.440249 0.00137078 0)
(0.430521 0.00128533 0)
(0.421493 0.00121013 0)
(0.413084 0.00114366 0)
(0.405226 0.00108467 0)
(0.39786 0.0010322 0)
(0.390934 0.000985444 0)
(0.384403 0.00094376 0)
(0.378228 0.00090663 0)
(0.372374 0.000873644 0)
(0.366808 0.000844478 0)
(0.361502 0.000818895 0)
(0.35643 0.000796716 0)
(0.351567 0.000777872 0)
(0.34689 0.000762279 0)
(0.342377 0.000750101 0)
(0.338007 0.000741245 0)
(0.333759 0.000736326 0)
(0.329612 0.000734963 0)
(0.325545 0.000738803 0)
(0.321527 0.000746444 0)
(0.317555 0.000761945 0)
(0.313551 0.000781149 0)
(0.309585 0.000813545 0)
(0.305428 0.000848583 0)
(0.301389 0.000906978 0)
(0.296782 0.000966146 0)
(0.292645 0.00106312 0)
(0.287022 0.00117877 0)
(0.282822 0.00126008 0)
(0.275445 0.00175556 0)
(0.269401 -4.06581e-05 0)
(1.01434 0.046006 0)
(1.04752 0.0374961 0)
(1.02454 0.0241649 0)
(0.974666 0.0175766 0)
(0.923275 0.0131423 0)
(0.876409 0.0102281 0)
(0.834141 0.00836622 0)
(0.796279 0.00704669 0)
(0.762593 0.00603829 0)
(0.732648 0.00525209 0)
(0.705931 0.00463128 0)
(0.681974 0.00413176 0)
(0.660376 0.00372217 0)
(0.640806 0.00338107 0)
(0.622989 0.00309342 0)
(0.606692 0.00284825 0)
(0.591722 0.00263735 0)
(0.577918 0.00245448 0)
(0.565141 0.00229477 0)
(0.553275 0.00215445 0)
(0.542218 0.00203051 0)
(0.531886 0.00192057 0)
(0.522202 0.0018227 0)
(0.513102 0.00173533 0)
(0.504527 0.0016572 0)
(0.496428 0.00158728 0)
(0.488759 0.00152473 0)
(0.48148 0.00146887 0)
(0.474554 0.00141918 0)
(0.467948 0.00137525 0)
(0.461632 0.00133677 0)
(0.455576 0.0013036 0)
(0.449756 0.0012756 0)
(0.444145 0.00125294 0)
(0.438719 0.00123552 0)
(0.433453 0.00122416 0)
(0.428324 0.00121834 0)
(0.423308 0.00122045 0)
(0.418371 0.00122836 0)
(0.413508 0.0012483 0)
(0.408638 0.00127353 0)
(0.403824 0.00131938 0)
(0.39884 0.00136773 0)
(0.393981 0.00145401 0)
(0.388578 0.00153666 0)
(0.383616 0.0016839 0)
(0.377246 0.00184617 0)
(0.372106 0.00199335 0)
(0.364102 0.00258828 0)
(0.357104 0.00125182 0)
(1.00933 0.0429176 0)
(1.05527 0.0372724 0)
(1.05866 0.0253116 0)
(1.0363 0.0197804 0)
(1.00697 0.0158371 0)
(0.975835 0.0129649 0)
(0.944209 0.0109916 0)
(0.913229 0.00951202 0)
(0.883748 0.00832389 0)
(0.856155 0.0073581 0)
(0.83053 0.00656989 0)
(0.806812 0.00591926 0)
(0.784879 0.00537495 0)
(0.764589 0.00491424 0)
(0.745797 0.0045205 0)
(0.72836 0.00418116 0)
(0.712147 0.00388647 0)
(0.697041 0.00362884 0)
(0.682934 0.00340225 0)
(0.669731 0.0032019 0)
(0.657346 0.00302395 0)
(0.645703 0.00286527 0)
(0.634735 0.00272334 0)
(0.62438 0.00259607 0)
(0.614585 0.00248175 0)
(0.605301 0.00237899 0)
(0.596482 0.00228664 0)
(0.588089 0.00220376 0)
(0.580085 0.00212962 0)
(0.572437 0.00206363 0)
(0.565112 0.00200538 0)
(0.558082 0.00195461 0)
(0.551319 0.00191114 0)
(0.544796 0.00187517 0)
(0.538488 0.00184654 0)
(0.532369 0.00182633 0)
(0.526414 0.00181384 0)
(0.520598 0.00181223 0)
(0.514887 0.00181869 0)
(0.509269 0.00184153 0)
(0.503673 0.0018717 0)
(0.498145 0.00192991 0)
(0.492482 0.00199154 0)
(0.486932 0.00210472 0)
(0.480911 0.00221331 0)
(0.47524 0.00240814 0)
(0.46837 0.00262513 0)
(0.462386 0.00283696 0)
(0.454114 0.00353791 0)
(0.446224 0.00265804 0)
(1.00625 0.0400364 0)
(1.05206 0.0363457 0)
(1.06607 0.0252425 0)
(1.05955 0.0205833 0)
(1.04677 0.0172685 0)
(1.03063 0.0146909 0)
(1.01164 0.0128588 0)
(0.990855 0.0114375 0)
(0.969328 0.0102441 0)
(0.947792 0.0092312 0)
(0.926696 0.00837348 0)
(0.906302 0.00764317 0)
(0.886759 0.00701602 0)
(0.868136 0.00647337 0)
(0.850453 0.00600084 0)
(0.833697 0.00558704 0)
(0.817835 0.00522274 0)
(0.802826 0.00490044 0)
(0.788619 0.00461402 0)
(0.775166 0.00435844 0)
(0.762416 0.00412958 0)
(0.750321 0.00392402 0)
(0.738835 0.00373892 0)
(0.727914 0.00357193 0)
(0.717517 0.00342108 0)
(0.707606 0.00328474 0)
(0.698144 0.00316157 0)
(0.689098 0.00305044 0)
(0.680437 0.00295048 0)
(0.67213 0.00286097 0)
(0.66415 0.00278142 0)
(0.656469 0.00271151 0)
(0.649064 0.00265102 0)
(0.641907 0.00260018 0)
(0.634976 0.00255885 0)
(0.628245 0.00252829 0)
(0.621691 0.00250776 0)
(0.615287 0.00250105 0)
(0.609005 0.00250491 0)
(0.602826 0.00252932 0)
(0.596689 0.00256371 0)
(0.590623 0.00263284 0)
(0.58446 0.00270799 0)
(0.578384 0.00284573 0)
(0.571929 0.00298307 0)
(0.565708 0.00322031 0)
(0.558539 0.00349877 0)
(0.551898 0.00377424 0)
(0.543533 0.00457763 0)
(0.535082 0.00415681 0)
(1.00495 0.0373586 0)
(1.04726 0.0352643 0)
(1.06395 0.0247039 0)
(1.06421 0.0206119 0)
(1.0606 0.0178099 0)
(1.05461 0.0155386 0)
(1.04578 0.0139227 0)
(1.03451 0.0126676 0)
(1.0215 0.0115864 0)
(1.00735 0.0106379 0)
(0.992536 0.0098089 0)
(0.977404 0.00908214 0)
(0.962223 0.0084411 0)
(0.947187 0.00787284 0)
(0.932433 0.00736722 0)
(0.918053 0.00691591 0)
(0.904106 0.00651183 0)
(0.890625 0.00614896 0)
(0.877628 0.00582217 0)
(0.865119 0.00552711 0)
(0.853091 0.00526007 0)
(0.841535 0.00501793 0)
(0.830435 0.004798 0)
(0.819773 0.00459804 0)
(0.809529 0.0044161 0)
(0.799683 0.00425058 0)
(0.790213 0.0041001 0)
(0.781097 0.00396354 0)
(0.772316 0.00383998 0)
(0.763848 0.0037287 0)
(0.755672 0.00362919 0)
(0.747767 0.00354115 0)
(0.740115 0.00346438 0)
(0.732693 0.00339918 0)
(0.725484 0.00334547 0)
(0.718463 0.00330471 0)
(0.711611 0.0032762 0)
(0.704905 0.00326425 0)
(0.698318 0.00326545 0)
(0.691832 0.00329099 0)
(0.685397 0.00332964 0)
(0.679023 0.00340869 0)
(0.672584 0.00349806 0)
(0.666198 0.003658 0)
(0.659519 0.00382654 0)
(0.652963 0.00410153 0)
(0.645685 0.00444414 0)
(0.63865 0.00478653 0)
(0.630328 0.00568036 0)
(0.62166 0.00570315 0)
(1.0044 0.034811 0)
(1.04323 0.0341919 0)
(1.05992 0.0240641 0)
(1.06224 0.0203201 0)
(1.06242 0.0178767 0)
(1.06168 0.0158238 0)
(1.05906 0.0143825 0)
(1.05444 0.0132941 0)
(1.04814 0.0123566 0)
(1.04048 0.0115215 0)
(1.03172 0.0107782 0)
(1.02214 0.0101135 0)
(1.01195 0.00951475 0)
(1.00136 0.00897272 0)
(0.990534 0.0084806 0)
(0.979597 0.00803295 0)
(0.968656 0.00762507 0)
(0.95779 0.00725285 0)
(0.947061 0.00691269 0)
(0.936513 0.00660141 0)
(0.92618 0.00631623 0)
(0.916082 0.00605474 0)
(0.906236 0.00581482 0)
(0.896648 0.00559464 0)
(0.887323 0.00539263 0)
(0.878259 0.00520741 0)
(0.869452 0.00503784 0)
(0.860897 0.00488294 0)
(0.852586 0.00474194 0)
(0.844508 0.00461422 0)
(0.836654 0.00449939 0)
(0.829011 0.00439723 0)
(0.821569 0.00430766 0)
(0.814311 0.00423112 0)
(0.807226 0.00416763 0)
(0.800296 0.00411889 0)
(0.793506 0.00408434 0)
(0.786837 0.00406868 0)
(0.780269 0.00406867 0)
(0.773782 0.00409622 0)
(0.76734 0.00414032 0)
(0.76094 0.00422925 0)
(0.75449 0.00433416 0)
(0.748058 0.00451479 0)
(0.741398 0.00471632 0)
(0.734771 0.00502621 0)
(0.727597 0.00543207 0)
(0.720465 0.00584649 0)
(0.712366 0.00681815 0)
(0.703801 0.00724606 0)
(1.00402 0.0323711 0)
(1.0399 0.0331426 0)
(1.05614 0.0234423 0)
(1.05888 0.0199338 0)
(1.06015 0.017749 0)
(1.06146 0.0158315 0)
(1.06179 0.0144923 0)
(1.06084 0.0135199 0)
(1.05871 0.0126995 0)
(1.0555 0.0119715 0)
(1.05132 0.0113226 0)
(1.04627 0.010739 0)
(1.04047 0.0102084 0)
(1.03406 0.00972191 0)
(1.02715 0.00927401 0)
(1.01985 0.00886059 0)
(1.01226 0.00847838 0)
(1.00447 0.00812459 0)
(0.996544 0.00779683 0)
(0.988542 0.00749299 0)
(0.980514 0.00721122 0)
(0.972502 0.0069499 0)
(0.964539 0.00670759 0)
(0.95665 0.00648305 0)
(0.948855 0.00627518 0)
(0.941169 0.00608303 0)
(0.933604 0.00590581 0)
(0.926166 0.00574283 0)
(0.91886 0.00559359 0)
(0.911687 0.0054577 0)
(0.904648 0.00533495 0)
(0.897738 0.00522533 0)
(0.890955 0.00512894 0)
(0.884291 0.0050464 0)
(0.877742 0.00497793 0)
(0.871295 0.00492548 0)
(0.864942 0.00488872 0)
(0.858669 0.00487266 0)
(0.852462 0.00487446 0)
(0.846304 0.00490637 0)
(0.840169 0.0049583 0)
(0.834049 0.00505835 0)
(0.827877 0.00518074 0)
(0.821688 0.0053818 0)
(0.815313 0.00561756 0)
(0.808903 0.0059612 0)
(0.802072 0.00642741 0)
(0.79515 0.00691805 0)
(0.787496 0.00795714 0)
(0.779346 0.00873641 0)
(1.00364 0.030031 0)
(1.03691 0.0320958 0)
(1.0528 0.0228539 0)
(1.05564 0.0195305 0)
(1.05705 0.0175595 0)
(1.05892 0.0157346 0)
(1.06032 0.0144436 0)
(1.06096 0.013535 0)
(1.0609 0.0127892 0)
(1.06018 0.0121366 0)
(1.0588 0.0115611 0)
(1.05675 0.0110478 0)
(1.05409 0.0105825 0)
(1.05086 0.0101557 0)
(1.04712 0.00976099 0)
(1.04293 0.0093943 0)
(1.03835 0.00905254 0)
(1.03343 0.00873333 0)
(1.02825 0.00843476 0)
(1.02284 0.00815524 0)
(1.01725 0.00789349 0)
(1.01152 0.0076484 0)
(1.0057 0.00741904 0)
(0.999801 0.00720464 0)
(0.993861 0.00700455 0)
(0.987899 0.0068182 0)
(0.981934 0.00664518 0)
(0.975981 0.00648513 0)
(0.970053 0.00633784 0)
(0.964158 0.00620319 0)
(0.958304 0.00608122 0)
(0.952494 0.00597215 0)
(0.946732 0.0058763 0)
(0.941018 0.00579453 0)
(0.93535 0.0057273 0)
(0.929725 0.00567678 0)
(0.924139 0.00564296 0)
(0.918583 0.00563111 0)
(0.913049 0.00563892 0)
(0.907524 0.00567871 0)
(0.90199 0.00574181 0)
(0.896438 0.00585525 0)
(0.890822 0.00599756 0)
(0.885156 0.00621981 0)
(0.879325 0.00649069 0)
(0.873409 0.00686807 0)
(0.867161 0.0073907 0)
(0.860742 0.00795965 0)
(0.853761 0.00905727 0)
(0.846321 0.0101269 0)
(1.00327 0.0277915 0)
(1.03408 0.0310379 0)
(1.04968 0.022292 0)
(1.05268 0.0191252 0)
(1.05405 0.0173512 0)
(1.05597 0.0156086 0)
(1.05765 0.0143402 0)
(1.05881 0.0134625 0)
(1.05957 0.0127582 0)
(1.05997 0.0121498 0)
(1.05998 0.0116203 0)
(1.05959 0.0111546 0)
(1.05878 0.0107376 0)
(1.05757 0.0103582 0)
(1.05596 0.0100093 0)
(1.05398 0.00968608 0)
(1.05165 0.00938491 0)
(1.049 0.00910318 0)
(1.04605 0.00883886 0)
(1.04284 0.00859038 0)
(1.0394 0.00835652 0)
(1.03576 0.00813635 0)
(1.03194 0.00792914 0)
(1.02797 0.00773432 0)
(1.02388 0.0075515 0)
(1.01968 0.00738038 0)
(1.0154 0.00722078 0)
(1.01104 0.0070726 0)
(1.00663 0.00693589 0)
(1.00217 0.00681074 0)
(0.997683 0.00669743 0)
(0.993166 0.00659639 0)
(0.988629 0.00650818 0)
(0.984075 0.00643385 0)
(0.979507 0.00637409 0)
(0.974926 0.00633134 0)
(0.970332 0.00630587 0)
(0.965719 0.00630316 0)
(0.961084 0.00632154 0)
(0.956419 0.00637315 0)
(0.951711 0.00645104 0)
(0.946953 0.00658059 0)
(0.942112 0.00674532 0)
(0.937192 0.00699007 0)
(0.932119 0.00729642 0)
(0.926926 0.00770802 0)
(0.921463 0.00828241 0)
(0.91579 0.00892908 0)
(0.909681 0.0100768 0)
(0.90319 0.0113747 0)
(1.00292 0.0256561 0)
(1.03137 0.0299643 0)
(1.04668 0.0217523 0)
(1.04989 0.0187179 0)
(1.05124 0.017131 0)
(1.05312 0.0154755 0)
(1.05483 0.0142232 0)
(1.05611 0.0133618 0)
(1.0571 0.0126812 0)
(1.05789 0.0120975 0)
(1.05847 0.0115934 0)
(1.05882 0.0111552 0)
(1.05893 0.0107678 0)
(1.05879 0.0104195 0)
(1.05839 0.0101025 0)
(1.05774 0.00981141 0)
(1.05684 0.00954213 0)
(1.05569 0.0092916 0)
(1.0543 0.00905744 0)
(1.05269 0.00883785 0)
(1.05087 0.00863142 0)
(1.04885 0.0084371 0)
(1.04665 0.00825411 0)
(1.04428 0.00808189 0)
(1.04176 0.00792009 0)
(1.0391 0.00776848 0)
(1.03632 0.007627 0)
(1.03343 0.00749568 0)
(1.03044 0.00737469 0)
(1.02737 0.00726431 0)
(1.02421 0.00716494 0)
(1.02098 0.00707719 0)
(1.01769 0.00700176 0)
(1.01433 0.00693992 0)
(1.01092 0.00689251 0)
(1.00745 0.00686218 0)
(1.00393 0.00684949 0)
(1.00036 0.00686005 0)
(0.996722 0.00689283 0)
(0.993027 0.00695965 0)
(0.989262 0.0070554 0)
(0.98542 0.00720344 0)
(0.981481 0.00739246 0)
(0.977441 0.00766086 0)
(0.973255 0.00800215 0)
(0.968928 0.00844818 0)
(0.964377 0.00906905 0)
(0.959611 0.00978978 0)
(0.954505 0.010979 0)
(0.949114 0.0124461 0)
(1.0026 0.0236273 0)
(1.02879 0.0288738 0)
(1.04376 0.0212335 0)
(1.0472 0.0183086 0)
(1.04856 0.0168973 0)
(1.0504 0.015338 0)
(1.0521 0.0141037 0)
(1.05339 0.0132538 0)
(1.05442 0.0125903 0)
(1.0553 0.0120223 0)
(1.05605 0.0115327 0)
(1.05667 0.0111097 0)
(1.05714 0.0107388 0)
(1.05748 0.0104085 0)
(1.05766 0.0101107 0)
(1.05769 0.00983989 0)
(1.05756 0.00959172 0)
(1.05727 0.00936285 0)
(1.05682 0.00915067 0)
(1.0562 0.0089531 0)
(1.05543 0.00876854 0)
(1.0545 0.00859573 0)
(1.05343 0.00843376 0)
(1.05221 0.00828194 0)
(1.05085 0.00813985 0)
(1.04937 0.00800724 0)
(1.04777 0.00788404 0)
(1.04605 0.0077703 0)
(1.04422 0.00766626 0)
(1.0423 0.00757223 0)
(1.04028 0.00748871 0)
(1.03817 0.00741642 0)
(1.03598 0.00735612 0)
(1.0337 0.00730922 0)
(1.03135 0.00727671 0)
(1.02892 0.00726135 0)
(1.02641 0.00726398 0)
(1.02383 0.00729019 0)
(1.02117 0.00733967 0)
(1.01843 0.00742369 0)
(1.0156 0.00753904 0)
(1.01268 0.00770685 0)
(1.00966 0.00792081 0)
(1.00652 0.00821322 0)
(1.00325 0.0085877 0)
(0.999829 0.00906746 0)
(0.996222 0.00972886 0)
(0.992417 0.010517 0)
(0.988353 0.0117388 0)
(0.984106 0.0133216 0)
(1.0023 0.021707 0)
(1.02633 0.0277672 0)
(1.04093 0.020734 0)
(1.04459 0.0178988 0)
(1.04597 0.0166489 0)
(1.04778 0.0151945 0)
(1.04948 0.0139829 0)
(1.05076 0.0131437 0)
(1.05179 0.0124955 0)
(1.05267 0.0119408 0)
(1.05345 0.0114614 0)
(1.05413 0.0110478 0)
(1.05472 0.0106866 0)
(1.05522 0.0103665 0)
(1.05563 0.0100797 0)
(1.05595 0.00982062 0)
(1.05618 0.00958501 0)
(1.0563 0.00936947 0)
(1.05633 0.00917128 0)
(1.05625 0.00898827 0)
(1.05606 0.00881871 0)
(1.05578 0.00866122 0)
(1.05538 0.00851474 0)
(1.05489 0.00837851 0)
(1.05429 0.00825198 0)
(1.05359 0.00813486 0)
(1.05279 0.00802701 0)
(1.05189 0.0079285 0)
(1.05091 0.00783952 0)
(1.04983 0.00776044 0)
(1.04867 0.00769176 0)
(1.04742 0.00763426 0)
(1.04609 0.00758875 0)
(1.04467 0.0075567 0)
(1.04318 0.00753918 0)
(1.0416 0.00753905 0)
(1.03994 0.00755734 0)
(1.03821 0.0075996 0)
(1.03638 0.00766615 0)
(1.03448 0.00776762 0)
(1.03248 0.00790263 0)
(1.03039 0.00809006 0)
(1.02819 0.00832809 0)
(1.02588 0.00864368 0)
(1.02345 0.00904832 0)
(1.02088 0.0095598 0)
(1.01816 0.0102552 0)
(1.01527 0.0111014 0)
(1.01219 0.0123464 0)
(1.00902 0.0139988 0)
(1.00203 0.0198959 0)
(1.02401 0.0266475 0)
(1.0382 0.0202509 0)
(1.04207 0.0174903 0)
(1.04347 0.0163858 0)
(1.04525 0.0150437 0)
(1.04695 0.0138602 0)
(1.04823 0.0130318 0)
(1.04924 0.0123988 0)
(1.05011 0.0118573 0)
(1.05089 0.0113872 0)
(1.05157 0.0109811 0)
(1.05218 0.0106268 0)
(1.05272 0.0103136 0)
(1.0532 0.0100336 0)
(1.05362 0.00978157 0)
(1.05397 0.00955335 0)
(1.05426 0.00934567 0)
(1.05449 0.00915583 0)
(1.05466 0.0089817 0)
(1.05476 0.0088215 0)
(1.0548 0.00867384 0)
(1.05476 0.00853759 0)
(1.05466 0.00841191 0)
(1.05449 0.00829624 0)
(1.05424 0.00819022 0)
(1.05393 0.00809369 0)
(1.05355 0.0080067 0)
(1.05309 0.00792943 0)
(1.05257 0.00786227 0)
(1.05198 0.00780572 0)
(1.05132 0.00776059 0)
(1.05058 0.00772771 0)
(1.04978 0.0077086 0)
(1.0489 0.0077044 0)
(1.04796 0.00771797 0)
(1.04693 0.00775056 0)
(1.04584 0.00780757 0)
(1.04466 0.00788993 0)
(1.04341 0.00800757 0)
(1.04207 0.00816081 0)
(1.04064 0.00836636 0)
(1.03912 0.00862623 0)
(1.03749 0.00896302 0)
(1.03576 0.00939378 0)
(1.03391 0.00993367 0)
(1.03193 0.0106563 0)
(1.02983 0.0115497 0)
(1.0276 0.0128081 0)
(1.02537 0.0144917 0)
(1.00179 0.0181943 0)
(1.02183 0.0255187 0)
(1.03556 0.0197801 0)
(1.03963 0.0170849 0)
(1.04107 0.0161089 0)
(1.04281 0.0148848 0)
(1.04451 0.0137352 0)
(1.0458 0.0129179 0)
(1.0468 0.0123002 0)
(1.04765 0.0117725 0)
(1.04841 0.011312 0)
(1.04909 0.0109131 0)
(1.04969 0.0105651 0)
(1.05023 0.0102575 0)
(1.05071 0.00998273 0)
(1.05115 0.00973571 0)
(1.05153 0.00951246 0)
(1.05188 0.00930981 0)
(1.05218 0.00912521 0)
(1.05244 0.00895656 0)
(1.05266 0.00880215 0)
(1.05283 0.00866058 0)
(1.05296 0.00853075 0)
(1.05304 0.00841182 0)
(1.05308 0.0083032 0)
(1.05307 0.00820454 0)
(1.05301 0.00811568 0)
(1.0529 0.00803667 0)
(1.05275 0.00796772 0)
(1.05254 0.00790922 0)
(1.05229 0.0078617 0)
(1.05198 0.007826 0)
(1.05161 0.00780296 0)
(1.05119 0.00779414 0)
(1.05072 0.00780075 0)
(1.05018 0.00782563 0)
(1.04959 0.00787024 0)
(1.04893 0.00793977 0)
(1.0482 0.00803576 0)
(1.0474 0.00816738 0)
(1.04653 0.00833646 0)
(1.04559 0.00855781 0)
(1.04456 0.00883647 0)
(1.04345 0.00919174 0)
(1.04224 0.00964406 0)
(1.04094 0.0102082 0)
(1.03954 0.0109514 0)
(1.03806 0.0118803 0)
(1.0365 0.0131428 0)
(1.03501 0.0148272 0)
(1.00157 0.0166019 0)
(1.01978 0.0243846 0)
(1.03302 0.0193177 0)
(1.03728 0.0166846 0)
(1.03876 0.0158194 0)
(1.04046 0.0147169 0)
(1.04215 0.0136074 0)
(1.04344 0.012802 0)
(1.04444 0.0121995 0)
(1.04528 0.0116863 0)
(1.04603 0.0112359 0)
(1.04669 0.0108444 0)
(1.04728 0.0105027 0)
(1.04781 0.0102005 0)
(1.04828 0.00993063 0)
(1.04871 0.00968799 0)
(1.0491 0.0094688 0)
(1.04945 0.00927007 0)
(1.04977 0.00908931 0)
(1.05005 0.00892453 0)
(1.0503 0.00877407 0)
(1.05052 0.00863657 0)
(1.05071 0.00851098 0)
(1.05086 0.00839647 0)
(1.05098 0.00829247 0)
(1.05108 0.00819865 0)
(1.05113 0.00811489 0)
(1.05116 0.00804126 0)
(1.05115 0.00797801 0)
(1.0511 0.00792556 0)
(1.05102 0.00788447 0)
(1.0509 0.00785563 0)
(1.05074 0.00783991 0)
(1.05054 0.00783891 0)
(1.05029 0.00785389 0)
(1.05 0.00788769 0)
(1.04965 0.00794193 0)
(1.04926 0.00802163 0)
(1.04881 0.00812884 0)
(1.0483 0.00827205 0)
(1.04774 0.00845437 0)
(1.04711 0.00868898 0)
(1.04641 0.0089832 0)
(1.04564 0.00935402 0)
(1.0448 0.00982346 0)
(1.04388 0.0104074 0)
(1.04289 0.0111651 0)
(1.04186 0.0121184 0)
(1.04079 0.0133763 0)
(1.03985 0.0150387 0)
(1.00137 0.0151178 0)
(1.01787 0.0232494 0)
(1.03059 0.0188598 0)
(1.03502 0.0162906 0)
(1.03654 0.0155186 0)
(1.03821 0.0145395 0)
(1.03988 0.0134766 0)
(1.04118 0.012684 0)
(1.04217 0.0120965 0)
(1.043 0.0115984 0)
(1.04373 0.0111588 0)
(1.04438 0.0107751 0)
(1.04496 0.0104398 0)
(1.04548 0.0101432 0)
(1.04594 0.00987821 0)
(1.04636 0.00963987 0)
(1.04674 0.00942457 0)
(1.04708 0.00922941 0)
(1.0474 0.00905205 0)
(1.04768 0.00889053 0)
(1.04793 0.00874327 0)
(1.04816 0.00860896 0)
(1.04836 0.00848658 0)
(1.04853 0.00837533 0)
(1.04868 0.00827468 0)
(1.04881 0.00818432 0)
(1.04891 0.00810418 0)
(1.04898 0.00803438 0)
(1.04903 0.00797519 0)
(1.04906 0.00792709 0)
(1.04905 0.0078907 0)
(1.04902 0.00786693 0)
(1.04895 0.00785672 0)
(1.04886 0.00786168 0)
(1.04873 0.00788316 0)
(1.04856 0.00792396 0)
(1.04835 0.00798591 0)
(1.0481 0.0080738 0)
(1.04781 0.00819019 0)
(1.04747 0.00834293 0)
(1.04707 0.00853617 0)
(1.04663 0.00878179 0)
(1.04613 0.0090887 0)
(1.04558 0.0094724 0)
(1.04496 0.00995513 0)
(1.04429 0.0105546 0)
(1.04357 0.0113217 0)
(1.04284 0.0122896 0)
(1.04211 0.0135356 0)
(1.04154 0.0151596 0)
(1.00119 0.0137403 0)
(1.0161 0.022117 0)
(1.02827 0.0184026 0)
(1.03284 0.0159042 0)
(1.03441 0.0152083 0)
(1.03604 0.014352 0)
(1.0377 0.0133423 0)
(1.03901 0.012564 0)
(1.03999 0.0119913 0)
(1.04081 0.0115086 0)
(1.04153 0.0110805 0)
(1.04217 0.010705 0)
(1.04274 0.0103763 0)
(1.04324 0.0100856 0)
(1.0437 0.0098256 0)
(1.0441 0.00959167 0)
(1.04447 0.0093803 0)
(1.04481 0.00918872 0)
(1.04511 0.00901467 0)
(1.04538 0.00885628 0)
(1.04563 0.00871201 0)
(1.04585 0.0085806 0)
(1.04604 0.00846105 0)
(1.04622 0.00835261 0)
(1.04637 0.00825476 0)
(1.0465 0.00816725 0)
(1.04661 0.00809004 0)
(1.0467 0.00802328 0)
(1.04677 0.00796731 0)
(1.04682 0.00792266 0)
(1.04684 0.00788999 0)
(1.04684 0.00787027 0)
(1.04681 0.00786447 0)
(1.04676 0.00787426 0)
(1.04668 0.00790105 0)
(1.04657 0.00794761 0)
(1.04642 0.00801596 0)
(1.04624 0.0081107 0)
(1.04603 0.00823479 0)
(1.04577 0.00839556 0)
(1.04547 0.00859796 0)
(1.04513 0.00885291 0)
(1.04474 0.00917024 0)
(1.0443 0.00956467 0)
(1.04382 0.0100577 0)
(1.0433 0.0106691 0)
(1.04274 0.0114416 0)
(1.0422 0.0124155 0)
(1.04169 0.0136439 0)
(1.04136 0.0152189 0)
(1.00104 0.0124672 0)
(1.01446 0.0209918 0)
(1.02606 0.0179428 0)
(1.03075 0.0155261 0)
(1.03238 0.0148905 0)
(1.03397 0.014154 0)
(1.03561 0.0132039 0)
(1.03692 0.0124421 0)
(1.0379 0.0118837 0)
(1.03871 0.011417 0)
(1.03943 0.011001 0)
(1.04006 0.010634 0)
(1.04061 0.0103123 0)
(1.0411 0.0100275 0)
(1.04155 0.00977278 0)
(1.04194 0.0095434 0)
(1.0423 0.00933607 0)
(1.04262 0.00914816 0)
(1.04291 0.00897749 0)
(1.04318 0.00882225 0)
(1.04341 0.00868097 0)
(1.04363 0.00855242 0)
(1.04382 0.00843563 0)
(1.04398 0.00832987 0)
(1.04413 0.00823467 0)
(1.04426 0.0081498 0)
(1.04436 0.00807524 0)
(1.04445 0.00801123 0)
(1.04452 0.00795813 0)
(1.04457 0.00791653 0)
(1.0446 0.00788714 0)
(1.04461 0.00787096 0)
(1.04459 0.00786905 0)
(1.04455 0.00788308 0)
(1.04449 0.00791454 0)
(1.0444 0.00796618 0)
(1.04428 0.00804018 0)
(1.04413 0.00814095 0)
(1.04394 0.00827183 0)
(1.04372 0.00843971 0)
(1.04347 0.0086501 0)
(1.04317 0.00891323 0)
(1.04284 0.0092394 0)
(1.04247 0.00964295 0)
(1.04206 0.0101441 0)
(1.04163 0.0107644 0)
(1.04117 0.0115392 0)
(1.04074 0.0125125 0)
(1.04037 0.0137187 0)
(1.04019 0.0152383 0)
(1.0009 0.0112957 0)
(1.01295 0.0198781 0)
(1.02396 0.0174773 0)
(1.02874 0.015157 0)
(1.03045 0.0145672 0)
(1.03199 0.0139453 0)
(1.03361 0.013061 0)
(1.03492 0.0123182 0)
(1.03591 0.0117739 0)
(1.03671 0.0113232 0)
(1.03741 0.0109201 0)
(1.03803 0.0105622 0)
(1.03858 0.0102476 0)
(1.03906 0.00996903 0)
(1.03949 0.00971967 0)
(1.03988 0.00949501 0)
(1.04022 0.00929186 0)
(1.04054 0.00910773 0)
(1.04082 0.00894053 0)
(1.04107 0.00878854 0)
(1.0413 0.00865031 0)
(1.0415 0.00852467 0)
(1.04168 0.00841067 0)
(1.04184 0.00830761 0)
(1.04198 0.00821504 0)
(1.0421 0.00813276 0)
(1.0422 0.00806082 0)
(1.04228 0.00799947 0)
(1.04235 0.00794914 0)
(1.04239 0.00791047 0)
(1.04242 0.0078842 0)
(1.04242 0.0078714 0)
(1.04241 0.00787316 0)
(1.04237 0.00789117 0)
(1.04231 0.00792703 0)
(1.04222 0.00798342 0)
(1.04211 0.0080627 0)
(1.04197 0.00816911 0)
(1.0418 0.00830627 0)
(1.04159 0.00848072 0)
(1.04136 0.00869838 0)
(1.04109 0.00896895 0)
(1.04078 0.00930288 0)
(1.04045 0.00971435 0)
(1.04008 0.010222 0)
(1.03969 0.0108487 0)
(1.0393 0.0116234 0)
(1.03894 0.0125909 0)
(1.03866 0.0137716 0)
(1.03857 0.0152328 0)
(1.00078 0.0102221 0)
(1.01156 0.0187804 0)
(1.02198 0.0170032 0)
(1.02683 0.0147967 0)
(1.0286 0.0142405 0)
(1.03011 0.0137259 0)
(1.0317 0.0129127 0)
(1.03301 0.0121923 0)
(1.034 0.0116618 0)
(1.03479 0.0112273 0)
(1.03549 0.0108376 0)
(1.0361 0.0104893 0)
(1.03663 0.0101822 0)
(1.03711 0.00990998 0)
(1.03753 0.00966622 0)
(1.03791 0.00944644 0)
(1.03824 0.00924762 0)
(1.03855 0.00906739 0)
(1.03882 0.00890377 0)
(1.03906 0.00875511 0)
(1.03928 0.00862003 0)
(1.03948 0.00849737 0)
(1.03965 0.00838622 0)
(1.0398 0.00828591 0)
(1.03993 0.00819602 0)
(1.04004 0.00811638 0)
(1.04013 0.00804708 0)
(1.04021 0.00798841 0)
(1.04027 0.00794085 0)
(1.04031 0.00790509 0)
(1.04033 0.00788193 0)
(1.04033 0.00787246 0)
(1.04031 0.00787785 0)
(1.04027 0.00789979 0)
(1.0402 0.00793995 0)
(1.04012 0.00800098 0)
(1.04001 0.00808538 0)
(1.03987 0.00819725 0)
(1.0397 0.00834041 0)
(1.0395 0.00852115 0)
(1.03927 0.0087456 0)
(1.03901 0.00902315 0)
(1.03872 0.00936408 0)
(1.03841 0.00978254 0)
(1.03806 0.0102955 0)
(1.03771 0.0109265 0)
(1.03736 0.0116993 0)
(1.03705 0.0126568 0)
(1.03683 0.0138096 0)
(1.0368 0.0152112 0)
(1.00067 0.00924243 0)
(1.0103 0.0177031 0)
(1.02011 0.0165185 0)
(1.02499 0.0144452 0)
(1.02684 0.0139125 0)
(1.02832 0.0134961 0)
(1.02988 0.0127586 0)
(1.03119 0.0120642 0)
(1.03218 0.0115475 0)
(1.03297 0.0111292 0)
(1.03365 0.0107535 0)
(1.03425 0.0104153 0)
(1.03478 0.0101159 0)
(1.03525 0.00985032 0)
(1.03566 0.00961235 0)
(1.03603 0.00939762 0)
(1.03636 0.00920328 0)
(1.03665 0.00902708 0)
(1.03692 0.00886716 0)
(1.03715 0.00872194 0)
(1.03736 0.00859008 0)
(1.03755 0.00847049 0)
(1.03771 0.00836227 0)
(1.03785 0.00826478 0)
(1.03798 0.00817762 0)
(1.03808 0.00810068 0)
(1.03817 0.00803406 0)
(1.03824 0.00797811 0)
(1.03829 0.00793337 0)
(1.03832 0.00790057 0)
(1.03834 0.00788054 0)
(1.03833 0.00787444 0)
(1.03831 0.00788347 0)
(1.03826 0.00790934 0)
(1.0382 0.00795379 0)
(1.03811 0.00801944 0)
(1.03799 0.00810889 0)
(1.03785 0.00822613 0)
(1.03768 0.00837515 0)
(1.03749 0.00856199 0)
(1.03727 0.00879294 0)
(1.03702 0.00907709 0)
(1.03674 0.00942446 0)
(1.03643 0.0098491 0)
(1.03611 0.0103664 0)
(1.03578 0.0109999 0)
(1.03546 0.0117689 0)
(1.03519 0.0127134 0)
(1.03502 0.0138364 0)
(1.03504 0.0151788 0)
(1.00058 0.00835208 0)
(1.00916 0.0166506 0)
(1.01835 0.0160215 0)
(1.02324 0.0141017 0)
(1.02517 0.013585 0)
(1.02662 0.0132564 0)
(1.02815 0.012598 0)
(1.02945 0.0119337 0)
(1.03044 0.0114311 0)
(1.03123 0.0110286 0)
(1.0319 0.0106676 0)
(1.0325 0.0103401 0)
(1.03302 0.0100487 0)
(1.03348 0.00978996 0)
(1.03388 0.00955797 0)
(1.03424 0.00934849 0)
(1.03456 0.00915877 0)
(1.03485 0.00898673 0)
(1.03511 0.00883063 0)
(1.03533 0.00868895 0)
(1.03554 0.00856043 0)
(1.03572 0.00844398 0)
(1.03587 0.00833877 0)
(1.03601 0.00824417 0)
(1.03612 0.00815982 0)
(1.03622 0.00808562 0)
(1.0363 0.00802175 0)
(1.03636 0.00796859 0)
(1.03641 0.00792671 0)
(1.03643 0.00789691 0)
(1.03644 0.00788007 0)
(1.03644 0.00787738 0)
(1.03641 0.00789008 0)
(1.03636 0.00791991 0)
(1.03629 0.00796866 0)
(1.0362 0.00803893 0)
(1.03608 0.0081334 0)
(1.03594 0.00825598 0)
(1.03577 0.00841073 0)
(1.03558 0.00860356 0)
(1.03536 0.00884073 0)
(1.03511 0.00913114 0)
(1.03484 0.00948445 0)
(1.03455 0.00991449 0)
(1.03425 0.0104353 0)
(1.03394 0.0110696 0)
(1.03365 0.0118333 0)
(1.03342 0.0127622 0)
(1.03328 0.0138539 0)
(1.03333 0.0151383 0)
(1.0005 0.007546 0)
(1.00813 0.0156271 0)
(1.0167 0.0155111 0)
(1.02158 0.0137653 0)
(1.02359 0.0132599 0)
(1.02501 0.0130078 0)
(1.0265 0.0124304 0)
(1.0278 0.0118005 0)
(1.02879 0.0113125 0)
(1.02957 0.0109257 0)
(1.03024 0.0105797 0)
(1.03083 0.0102635 0)
(1.03134 0.00998055 0)
(1.03179 0.00972882 0)
(1.03219 0.00950302 0)
(1.03255 0.00929896 0)
(1.03286 0.00911403 0)
(1.03314 0.00894629 0)
(1.03339 0.00879412 0)
(1.03361 0.0086561 0)
(1.0338 0.008531 0)