/*--------------------------------*- C++ -*----------------------------------*\
  =========                 |
  \\      /  F ield         | OpenFOAM: The Open Source CFD Toolbox
   \\    /   O peration     | Website:  https://openfoam.org
    \\  /    A nd           | Version:  7
     \\/     M anipulation  |
\*---------------------------------------------------------------------------*/
FoamFile
{
    version     2.0;
    format      ascii;
    class       volVectorField;
    location    "0.23";
    object      wallShearStress;
}
// * * * * * * * * * * * * * * * * * * * * * * * * * * * * * * * * * * * * * //

dimensions      [0 2 -2 0 0 0 0];

internalField   uniform (0 0 0);

boundaryField
{
    velocityInlet
    {
        type            calculated;
        value           uniform (0 0 0);
    }
    pressureOutlet
    {
        type            calculated;
        value           uniform (0 0 0);
    }
    fixedWalls
    {
        type            calculated;
        value           nonuniform List<vector> 
100
(
(-0.0146905 -0.00644475 0)
(0.00725518 -0.00108205 0)
(-0.000653386 0.000509088 0)
(0.00141269 2.96048e-06 0)
(1.88365e-05 6.61378e-05 0)
(0.000298905 3.27114e-05 0)
(-0.000277722 4.56066e-05 0)
(-0.000331737 3.79977e-05 0)
(-0.000586637 2.18108e-05 0)
(-0.000665147 2.99312e-05 0)
(-0.00102575 6.58665e-05 0)
(-0.0017513 0.000120526 0)
(-0.00277066 0.000139099 0)
(-0.00341971 8.73027e-05 0)
(-0.00275257 -0.000104009 0)
(3.1908e-05 -0.000391259 0)
(0.00450934 -0.00067622 0)
(0.00947393 -0.00080649 0)
(0.0136813 -0.000726782 0)
(0.0161301 -0.000446419 0)
(0.015893 1.47652e-05 0)
(0.0127303 0.000477658 0)
(0.00773822 0.000684057 0)
(0.00258818 0.000606847 0)
(-0.00144416 0.000429756 0)
(-0.00391809 0.000223669 0)
(-0.00512188 8.69963e-05 0)
(-0.00550573 1.64939e-05 0)
(-0.00548336 -1.25321e-05 0)
(-0.00530026 -2.57238e-05 0)
(-0.00507222 -3.19254e-05 0)
(-0.00488716 -2.31787e-05 0)
(-0.00482965 -3.02617e-07 0)
(-0.00489978 1.91111e-05 0)
(-0.005012 2.25039e-05 0)
(-0.00510169 1.93512e-05 0)
(-0.00514825 1.69271e-05 0)
(-0.00511863 5.20378e-06 0)
(-0.00497532 -1.98173e-05 0)
(-0.0047439 -3.91929e-05 0)
(-0.00449856 -3.18579e-05 0)
(-0.00447682 9.35356e-06 0)
(-0.00480099 6.07841e-05 0)
(-0.00564302 0.000107382 0)
(-0.00758959 0.000192709 0)
(-0.00809143 8.70659e-05 0)
(-0.00420332 -0.000519431 0)
(0.00144381 -0.000574062 0)
(0.00462776 -0.000353196 0)
(0.00582902 -0.000136063 0)
(0.00607398 -4.93059e-05 0)
(0.00604553 -2.80037e-05 0)
(0.00585747 -1.44169e-05 0)
(0.00541069 2.04938e-05 0)
(0.0045519 7.33848e-05 0)
(0.00326749 0.000123192 0)
(0.00169363 0.000153967 0)
(4.94155e-05 0.000155652 0)
(-0.00144804 0.00013797 0)
(-0.00264979 0.000106393 0)
(-0.00349466 7.17943e-05 0)
(-0.00400221 4.17774e-05 0)
(-0.00423891 1.98754e-05 0)
(-0.00428524 5.95384e-06 0)
(-0.00421226 -3.40599e-06 0)
(-0.00407027 -8.7339e-06 0)
(-0.00388876 -1.22259e-05 0)
(-0.00368264 -1.5027e-05 0)
(-0.00346222 -1.71576e-05 0)
(-0.00324164 -1.78919e-05 0)
(-0.00304097 -1.65073e-05 0)
(-0.00288183 -1.29129e-05 0)
(-0.00278037 -7.86258e-06 0)
(-0.00274384 -2.95582e-06 0)
(-0.00277267 2.93893e-06 0)
(-0.00286543 8.95339e-06 0)
(-0.00301871 1.50789e-05 0)
(-0.00321892 2.0027e-05 0)
(-0.0034361 2.18074e-05 0)
(-0.00363243 1.98561e-05 0)
(-0.00378796 1.71938e-05 0)
(-0.00392018 1.83705e-05 0)
(-0.00405473 2.33892e-05 0)
(-0.00414468 2.56537e-05 0)
(-0.00400856 3.62842e-06 0)
(-0.00336993 -4.94662e-05 0)
(-0.00204302 -0.000121381 0)
(-0.00013087 -0.000177126 0)
(0.00179361 -0.000171805 0)
(0.00305339 -0.000108403 0)
(0.00332017 -1.82117e-05 0)
(0.00265905 5.83278e-05 0)
(0.00146235 9.84176e-05 0)
(0.000134849 0.000102266 0)
(-0.00103401 8.66581e-05 0)
(-0.00190442 6.26293e-05 0)
(-0.00252877 4.33443e-05 0)
(-0.00284139 2.36748e-05 0)
(-0.00312693 1.80069e-05 0)
(-0.00310631 -1.08847e-06 0)
)
;
    }
    bottomWall
    {
        type            calculated;
        value           nonuniform List<vector> 
800
(
(-0.0353488 0.00214397 0)
(-0.0160268 0.000524824 0)
(-0.0106083 0.000100702 0)
(-0.00845685 3.52444e-05 0)
(-0.00748764 1.98439e-05 0)
(-0.0068545 1.61034e-05 0)
(-0.00634759 1.33365e-05 0)
(-0.00593703 1.08801e-05 0)
(-0.00560283 9.05839e-06 0)
(-0.00532457 7.74232e-06 0)
(-0.00508762 6.74616e-06 0)
(-0.00488256 5.9595e-06 0)
(-0.0047029 5.32228e-06 0)
(-0.00454392 4.79714e-06 0)
(-0.00440202 4.3583e-06 0)
(-0.00427443 3.98692e-06 0)
(-0.00415898 3.6692e-06 0)
(-0.00405391 3.39472e-06 0)
(-0.00395782 3.15562e-06 0)
(-0.00386954 2.94578e-06 0)
(-0.00378812 2.76033e-06 0)
(-0.00371275 2.59546e-06 0)
(-0.00364276 2.44803e-06 0)
(-0.00357757 2.31576e-06 0)
(-0.00351667 2.19638e-06 0)
(-0.00345965 2.08814e-06 0)
(-0.00340613 1.98971e-06 0)
(-0.00335579 1.89985e-06 0)
(-0.00330835 1.81759e-06 0)
(-0.00326356 1.74196e-06 0)
(-0.00322119 1.67234e-06 0)
(-0.00318105 1.60801e-06 0)
(-0.00314297 1.54843e-06 0)
(-0.00310678 1.49318e-06 0)
(-0.00307235 1.44169e-06 0)
(-0.00303955 1.39371e-06 0)
(-0.00300827 1.34887e-06 0)
(-0.0029784 1.30692e-06 0)
(-0.00294985 1.26766e-06 0)
(-0.00292253 1.23074e-06 0)
(-0.00289637 1.19608e-06 0)
(-0.00287129 1.16346e-06 0)
(-0.00284722 1.13258e-06 0)
(-0.00282411 1.10338e-06 0)
(-0.0028019 1.07602e-06 0)
(-0.00278055 1.0498e-06 0)
(-0.00275998 1.02544e-06 0)
(-0.00274019 1.00141e-06 0)
(-0.0027211 9.79825e-07 0)
(-0.00270271 9.56837e-07 0)
(-0.00268734 9.37968e-07 0)
(-0.00267464 9.27408e-07 0)
(-0.0026621 9.13645e-07 0)
(-0.00264976 8.98872e-07 0)
(-0.00263761 8.85253e-07 0)
(-0.00262564 8.72381e-07 0)
(-0.00261384 8.59552e-07 0)
(-0.00260222 8.47126e-07 0)
(-0.00259076 8.34958e-07 0)
(-0.00257947 8.23046e-07 0)
(-0.00256834 8.11714e-07 0)
(-0.00255736 8.00293e-07 0)
(-0.00254654 7.89111e-07 0)
(-0.00253586 7.78335e-07 0)
(-0.00252533 7.67794e-07 0)
(-0.00251495 7.57487e-07 0)
(-0.0025047 7.47411e-07 0)
(-0.00249459 7.37564e-07 0)
(-0.00248461 7.27778e-07 0)
(-0.00247476 7.18216e-07 0)
(-0.00246505 7.09046e-07 0)
(-0.00245545 6.99932e-07 0)
(-0.00244598 6.91039e-07 0)
(-0.00243663 6.82366e-07 0)
(-0.0024274 6.73742e-07 0)
(-0.00241828 6.65336e-07 0)
(-0.00240928 6.56977e-07 0)
(-0.00240039 6.48998e-07 0)
(-0.00239161 6.41231e-07 0)
(-0.00238293 6.33509e-07 0)
(-0.00237436 6.2583e-07 0)
(-0.00236589 6.18359e-07 0)
(-0.00235752 6.11096e-07 0)
(-0.00234925 6.03874e-07 0)
(-0.00234108 5.96856e-07 0)
(-0.002333 5.89876e-07 0)
(-0.00232502 5.83099e-07 0)
(-0.00231713 5.76525e-07 0)
(-0.00230933 5.70152e-07 0)
(-0.00230161 5.63645e-07 0)
(-0.00229399 5.57169e-07 0)
(-0.00228645 5.51061e-07 0)
(-0.00227899 5.44982e-07 0)
(-0.00227162 5.39098e-07 0)
(-0.00226432 5.33243e-07 0)
(-0.00225711 5.27253e-07 0)
(-0.00224998 5.21622e-07 0)
(-0.00224291 5.16184e-07 0)
(-0.00223593 5.10606e-07 0)
(-0.00222902 5.05055e-07 0)
(-0.00222219 4.99862e-07 0)
(-0.00221542 4.94695e-07 0)
(-0.00220873 4.8955e-07 0)
(-0.0022021 4.84432e-07 0)
(-0.00219555 4.79336e-07 0)
(-0.00218907 4.74596e-07 0)
(-0.00218265 4.69878e-07 0)
(-0.00217629 4.65017e-07 0)
(-0.00217 4.60343e-07 0)
(-0.00216377 4.55858e-07 0)
(-0.0021576 4.51227e-07 0)
(-0.0021515 4.46783e-07 0)
(-0.00214545 4.42527e-07 0)
(-0.00213946 4.38289e-07 0)
(-0.00213353 4.34071e-07 0)
(-0.00212766 4.29705e-07 0)
(-0.00212185 4.25525e-07 0)
(-0.00211609 4.21695e-07 0)
(-0.00211038 4.17716e-07 0)
(-0.00210473 4.13756e-07 0)
(-0.00209913 4.09978e-07 0)
(-0.00209358 4.06051e-07 0)
(-0.00208809 4.02306e-07 0)
(-0.00208265 3.98744e-07 0)
(-0.00207725 3.95032e-07 0)
(-0.00207191 3.91503e-07 0)
(-0.00206661 3.87988e-07 0)
(-0.00206136 3.8449e-07 0)
(-0.00205616 3.81006e-07 0)
(-0.00205101 3.77706e-07 0)
(-0.00204589 3.74419e-07 0)
(-0.00204083 3.71146e-07 0)
(-0.0020358 3.67885e-07 0)
(-0.00203083 3.64642e-07 0)
(-0.0020259 3.61578e-07 0)
(-0.002021 3.58525e-07 0)
(-0.00201615 3.55654e-07 0)
(-0.00201134 3.52625e-07 0)
(-0.00200657 3.49613e-07 0)
(-0.00200184 3.46604e-07 0)
(-0.00199715 3.43787e-07 0)
(-0.0019925 3.40959e-07 0)
(-0.00198789 3.38174e-07 0)
(-0.00198331 3.35518e-07 0)
(-0.00197877 3.32776e-07 0)
(-0.00197427 3.29942e-07 0)
(-0.00196981 3.27425e-07 0)
(-0.00196538 3.24725e-07 0)
(-0.00196098 3.22264e-07 0)
(-0.00195662 3.19535e-07 0)
(-0.00195297 3.16934e-07 0)
(-0.00194998 3.15555e-07 0)
(-0.00194698 3.13992e-07 0)
(-0.00194398 3.12341e-07 0)
(-0.00194098 3.10498e-07 0)
(-0.00193797 3.08703e-07 0)
(-0.00193496 3.07149e-07 0)
(-0.00193194 3.05371e-07 0)
(-0.00192892 3.03825e-07 0)
(-0.00192588 3.02062e-07 0)
(-0.00192286 3.00304e-07 0)
(-0.00191982 2.98781e-07 0)
(-0.00191678 2.96821e-07 0)
(-0.00191374 2.95311e-07 0)
(-0.00191069 2.93594e-07 0)
(-0.00190764 2.91877e-07 0)
(-0.00190458 2.90389e-07 0)
(-0.00190153 2.88689e-07 0)
(-0.00189846 2.87e-07 0)
(-0.0018954 2.85317e-07 0)
(-0.00189233 2.83853e-07 0)
(-0.00188925 2.82187e-07 0)
(-0.00188617 2.80528e-07 0)
(-0.00188309 2.78879e-07 0)
(-0.00188 2.77237e-07 0)
(-0.00187691 2.75602e-07 0)
(-0.00187382 2.73976e-07 0)
(-0.00187073 2.72555e-07 0)
(-0.00186763 2.70944e-07 0)
(-0.00186452 2.6934e-07 0)
(-0.00186141 2.67745e-07 0)
(-0.0018583 2.65964e-07 0)
(-0.0018552 2.64578e-07 0)
(-0.00185207 2.63009e-07 0)
(-0.00184896 2.61257e-07 0)
(-0.00184584 2.59894e-07 0)
(-0.00184271 2.58537e-07 0)
(-0.00183957 2.56818e-07 0)
(-0.00183644 2.55291e-07 0)
(-0.0018333 2.53776e-07 0)
(-0.00183017 2.52267e-07 0)
(-0.00182702 2.50769e-07 0)
(-0.00182388 2.49278e-07 0)
(-0.00182073 2.47798e-07 0)
(-0.00181758 2.46326e-07 0)
(-0.00181442 2.44864e-07 0)
(-0.00181126 2.43408e-07 0)
(-0.0018081 2.41966e-07 0)
(-0.00180494 2.40357e-07 0)
(-0.00180177 2.39098e-07 0)
(-0.0017986 2.37677e-07 0)
(-0.00179542 2.36261e-07 0)
(-0.00179224 2.34856e-07 0)
(-0.00178907 2.33291e-07 0)
(-0.00178589 2.31901e-07 0)
(-0.0017827 2.30684e-07 0)
(-0.00177951 2.29147e-07 0)
(-0.00177632 2.27776e-07 0)
(-0.00177312 2.26419e-07 0)
(-0.00176993 2.24902e-07 0)
(-0.00176673 2.23715e-07 0)
(-0.00176353 2.22375e-07 0)
(-0.00176032 2.20889e-07 0)
(-0.00175712 2.19572e-07 0)
(-0.00175391 2.18422e-07 0)
(-0.00175069 2.1711e-07 0)
(-0.00174747 2.15665e-07 0)
(-0.00174425 2.14379e-07 0)
(-0.00174103 2.1311e-07 0)
(-0.0017378 2.1184e-07 0)
(-0.00173457 2.10583e-07 0)
(-0.00173134 2.0934e-07 0)
(-0.00172811 2.08103e-07 0)
(-0.00172487 2.06894e-07 0)
(-0.00172163 2.0582e-07 0)
(-0.00171838 2.04639e-07 0)
(-0.00171513 2.03413e-07 0)
(-0.00171187 2.023e-07 0)
(-0.00170862 2.01172e-07 0)
(-0.00170535 2.00195e-07 0)
(-0.00170208 1.98912e-07 0)
(-0.0016988 1.98376e-07 0)
(-0.00169553 1.96853e-07 0)
(-0.00169223 1.96574e-07 0)
(-0.00168896 1.94318e-07 0)
(-0.00168563 1.95507e-07 0)
(-0.00168237 1.9156e-07 0)
(-0.00167897 1.95493e-07 0)
(-0.00167577 1.87295e-07 0)
(-0.00167226 1.98012e-07 0)
(-0.00166919 1.80082e-07 0)
(-0.00166543 2.05389e-07 0)
(-0.00166265 1.66361e-07 0)
(-0.00165843 2.22879e-07 0)
(-0.00165622 1.39215e-07 0)
(-0.00165117 2.58813e-07 0)
(-0.00164997 8.82882e-08 0)
(-0.00164361 3.22998e-07 0)
(-0.00164387 7.19254e-09 0)
(-0.00163581 3.55547e-07 0)
(-0.0353486 -0.002144 0)
(-0.0160257 -0.000524872 0)
(-0.0106058 -0.000100761 0)
(-0.0084527 -3.53016e-05 0)
(-0.00748176 -1.99039e-05 0)
(-0.00684671 -1.61684e-05 0)
(-0.00633771 -1.34054e-05 0)
(-0.00592499 -1.09523e-05 0)
(-0.00558856 -9.13415e-06 0)
(-0.00530799 -7.82135e-06 0)
(-0.0050687 -6.8284e-06 0)
(-0.00486124 -6.04502e-06 0)
(-0.00467912 -5.41136e-06 0)
(-0.00451763 -4.89008e-06 0)
(-0.00437315 -4.45556e-06 0)
(-0.0042429 -4.08911e-06 0)
(-0.00412469 -3.77706e-06 0)
(-0.00401676 -3.50904e-06 0)
(-0.00391768 -3.27708e-06 0)
(-0.00382628 -3.07533e-06 0)
(-0.00374158 -2.89888e-06 0)
(-0.00366276 -2.7441e-06 0)
(-0.00358912 -2.60798e-06 0)
(-0.00352008 -2.4883e-06 0)
(-0.00345508 -2.38313e-06 0)
(-0.0033937 -2.291e-06 0)
(-0.00333552 -2.21085e-06 0)
(-0.00328018 -2.14177e-06 0)
(-0.00322736 -2.08329e-06 0)
(-0.00317673 -2.03496e-06 0)
(-0.00312804 -1.9964e-06 0)
(-0.003081 -1.96832e-06 0)
(-0.00303537 -1.94994e-06 0)
(-0.00299089 -1.94326e-06 0)
(-0.0029473 -1.94723e-06 0)
(-0.00290434 -1.96549e-06 0)
(-0.00286174 -1.99613e-06 0)
(-0.00281922 -2.04559e-06 0)
(-0.00277636 -2.11084e-06 0)
(-0.00273312 -2.20068e-06 0)
(-0.00268836 -2.31642e-06 0)
(-0.00264308 -2.45631e-06 0)
(-0.00259389 -2.65751e-06 0)
(-0.0025454 -2.84565e-06 0)
(-0.00248723 -3.22e-06 0)
(-0.00243549 -3.39449e-06 0)
(-0.00235894 -4.21761e-06 0)
(-0.0023068 -3.90131e-06 0)
(-0.00219883 -9.40209e-06 0)
(-0.00200406 0.000143638 0)
(0.000173144 -0.000119494 0)
(3.66178e-05 -0.000373192 0)
(4.24655e-05 -0.000339232 0)
(-6.5905e-05 -0.000256305 0)
(-0.000260709 8.88752e-05 0)
(-0.000250905 0.000411696 0)
(-0.000207844 0.000650396 0)
(-0.000170991 0.000843197 0)
(-0.000133277 0.000984814 0)
(-9.66929e-05 0.00108556 0)
(-5.8038e-05 0.00113917 0)
(-1.94524e-05 0.00114856 0)
(2.00182e-05 0.00111144 0)
(5.94612e-05 0.00103043 0)
(9.99308e-05 0.000904432 0)
(0.000138521 0.000734852 0)
(0.00017209 0.000526152 0)
(0.000197528 0.000287376 0)
(0.000212943 2.79494e-05 0)
(0.000217332 -0.00023899 0)
(0.000212168 -0.000501473 0)
(0.000199299 -0.000751638 0)
(0.000180593 -0.000982579 0)
(0.000158079 -0.00118986 0)
(0.000133489 -0.00137108 0)
(0.000108209 -0.00152538 0)
(8.32753e-05 -0.00165305 0)
(5.93576e-05 -0.00175515 0)
(3.68534e-05 -0.0018331 0)
(1.59121e-05 -0.00188863 0)
(-3.96303e-06 -0.00192355 0)
(-2.33157e-05 -0.00193862 0)
(-4.03133e-05 -0.00193405 0)
(-5.33349e-05 -0.00191298 0)
(-6.28163e-05 -0.00187832 0)
(-6.92824e-05 -0.00183277 0)
(-7.3142e-05 -0.00177872 0)
(-7.4735e-05 -0.00171816 0)
(-7.46131e-05 -0.00165285 0)
(-7.33885e-05 -0.00158417 0)
(-7.172e-05 -0.00151343 0)
(-7.04658e-05 -0.00144102 0)
(-7.07794e-05 -0.00136676 0)
(-7.37156e-05 -0.00128958 0)
(-8.04615e-05 -0.00120759 0)
(-9.24525e-05 -0.00111799 0)
(-0.000111634 -0.0010169 0)
(-0.000139565 -0.000899026 0)
(-0.000177824 -0.000758113 0)
(-0.000225654 -0.000587118 0)
(-0.000280571 -0.000380702 0)
(-0.000337383 -0.00013783 0)
(-0.000387572 0.000139978 0)
(-0.000421318 0.0004431 0)
(-0.000426792 0.000750431 0)
(-0.000400776 0.00103526 0)
(-0.000348413 0.00127621 0)
(-0.000278378 0.00146044 0)
(-0.000198963 0.00158237 0)
(-0.000117702 0.00164695 0)
(-4.04566e-05 0.00166009 0)
(3.00535e-05 0.00162132 0)
(9.18281e-05 0.00153659 0)
(0.000142924 0.00141281 0)
(0.000182152 0.00125764 0)
(0.000208976 0.00107884 0)
(0.000222938 0.000883537 0)
(0.000221673 0.00067832 0)
(0.000200324 0.000469537 0)
(0.000149843 0.000267488 0)
(6.86583e-05 9.08396e-05 0)
(-3.31982e-05 -4.55723e-05 0)
(-0.000123007 -0.000129395 0)
(-0.000158138 -0.000163095 0)
(-0.000128445 -0.000171643 0)
(-5.26783e-05 -0.000180021 0)
(4.84908e-05 -0.000203394 0)
(0.000160923 -0.000239372 0)
(0.000271053 -0.000287252 0)
(0.000369295 -0.000344549 0)
(0.000448778 -0.000409746 0)
(0.00050249 -0.000482484 0)
(0.000518076 -0.000561724 0)
(0.000484575 -0.000640268 0)
(0.000401673 -0.000707271 0)
(0.000284832 -0.000754622 0)
(0.000159659 -0.000782486 0)
(4.94457e-05 -0.000798804 0)
(-3.4304e-05 -0.000811302 0)
(-8.97785e-05 -0.000820719 0)
(-0.000116744 -0.000823014 0)
(-0.000116619 -0.00081707 0)
(-9.82803e-05 -0.000806218 0)
(-7.84844e-05 -0.000792298 0)
(-7.21431e-05 -0.000776062 0)
(-8.43812e-05 -0.000744732 0)
(-0.000113376 -0.000694535 0)
(-0.000154547 -0.000624277 0)
(-0.000202704 -0.000533333 0)
(-0.000251789 -0.000421819 0)
(-0.000296762 -0.000293259 0)
(-0.000335297 -0.000152156 0)
(-0.000362312 -6.04372e-07 0)
(-0.000375849 0.000154686 0)
(-0.000375701 0.000307392 0)
(-0.000362766 0.000452584 0)
(-0.000339197 0.000587609 0)
(-0.000304868 0.000706402 0)
(-0.000262037 0.000805589 0)
(-0.000213299 0.000883227 0)
(-0.000161229 0.000938507 0)
(-0.00010838 0.000971905 0)
(-5.69063e-05 0.000985981 0)
(-8.55173e-06 0.000980371 0)
(3.57046e-05 0.000957279 0)
(7.51605e-05 0.000918593 0)
(0.000109227 0.000866537 0)
(0.000137553 0.000803481 0)
(0.000159998 0.000731822 0)
(0.000176606 0.000653894 0)
(0.00018758 0.000571896 0)
(0.000193239 0.000487902 0)
(0.000194042 0.00040384 0)
(0.00019057 0.000321439 0)
(0.000183488 0.00024224 0)
(0.000174042 0.000168147 0)
(0.000162943 9.96295e-05 0)
(0.000150327 3.68839e-05 0)
(0.000137084 -1.90184e-05 0)
(0.000124394 -6.74098e-05 0)
(0.000113324 -0.000108339 0)
(0.000104711 -0.000142179 0)
(9.93755e-05 -0.000169903 0)
(9.78253e-05 -0.000193072 0)
(0.000100055 -0.000213748 0)
(0.000104954 -0.000233652 0)
(0.000110539 -0.000254502 0)
(0.000114367 -0.000277951 0)
(0.000113167 -0.00030302 0)
(0.000104199 -0.000326867 0)
(8.62093e-05 -0.000345786 0)
(5.97582e-05 -0.000356026 0)
(2.70222e-05 -0.000354962 0)
(-8.85358e-06 -0.000341025 0)
(-4.3889e-05 -0.000314645 0)
(-7.43251e-05 -0.000278702 0)
(-9.77206e-05 -0.00023709 0)
(-0.000113123 -0.000193528 0)
(-0.00012063 -0.000150869 0)
(-0.000120897 -0.000111006 0)
(-0.000114646 -7.53247e-05 0)
(-0.000102763 -4.49048e-05 0)
(-8.60481e-05 -2.03893e-05 0)
(-6.50773e-05 -2.17505e-06 0)
(-4.01275e-05 9.32363e-06 0)
(-1.16398e-05 1.34075e-05 0)
(1.92124e-05 9.34471e-06 0)
(5.10452e-05 -2.94526e-06 0)
(8.2825e-05 -2.30961e-05 0)
(0.000113747 -5.06729e-05 0)
(0.000143013 -8.51632e-05 0)
(0.000169884 -0.000125895 0)
(0.000193706 -0.000172087 0)
(0.000214481 -0.000223444 0)
(0.000231618 -0.000279145 0)
(0.000244327 -0.000337948 0)
(0.000252226 -0.000398773 0)
(0.000255092 -0.000460499 0)
(0.000252838 -0.000522015 0)
(0.000245489 -0.000582235 0)
(0.000233192 -0.000640111 0)
(0.000216216 -0.000694651 0)
(0.000194953 -0.000745021 0)
(0.000169831 -0.000790568 0)
(0.000141299 -0.000830728 0)
(0.000109824 -0.000865037 0)
(7.58923e-05 -0.000893142 0)
(3.99782e-05 -0.000914816 0)
(2.62734e-06 -0.000929915 0)
(-3.58594e-05 -0.000938377 0)
(-7.52487e-05 -0.000939906 0)
(-0.000114785 -0.000934375 0)
(-0.000153776 -0.000921961 0)
(-0.000191748 -0.000902809 0)
(-0.000228204 -0.000877171 0)
(-0.000262669 -0.000845629 0)
(-0.000294271 -0.000807629 0)
(-0.000322368 -0.000763542 0)
(-0.000346297 -0.000713789 0)
(-0.000365409 -0.000658841 0)
(-0.000379249 -0.000599569 0)
(-0.000387062 -0.000536499 0)
(-0.000388006 -0.000470489 0)
(-0.000381705 -0.000404027 0)
(-0.000368857 -0.000342942 0)
(-0.000353223 -0.000299534 0)
(-0.000345987 -0.000295666 0)
(-0.000372017 -0.000362309 0)
(-0.000463051 -0.000528255 0)
(-0.000634166 -0.000798066 0)
(9.55654e-06 -0.000210611 0)
(0.000291589 -0.000127764 0)
(0.000313965 6.25477e-05 0)
(0.000135204 0.0002301 0)
(-0.000105348 0.000248504 0)
(-0.000322225 0.000208698 0)
(-0.000488748 0.000126527 0)
(-0.000585462 2.31643e-05 0)
(-0.000608738 -0.000100112 0)
(-0.000536059 -0.000238802 0)
(-0.000334637 -0.000389927 0)
(5.78337e-05 -0.000403937 0)
(0.000395566 -5.22065e-05 0)
(0.000370516 0.00014004 0)
(0.000338626 1.81268e-05 0)
(0.000384007 -6.11146e-05 0)
(0.000454874 -6.51782e-05 0)
(0.000505998 -6.30366e-05 0)
(0.000539727 -4.41013e-05 0)
(0.000535258 1.13679e-05 0)
(0.00045268 9.84513e-05 0)
(0.000297551 0.000166382 0)
(0.000122823 0.000179307 0)
(-2.43217e-05 0.000148823 0)
(-0.000129826 0.000103071 0)
(-0.00019766 5.45281e-05 0)
(-0.000237011 1.525e-05 0)
(-0.000257601 -7.19829e-06 0)
(-0.000278976 -1.37556e-05 0)
(-0.000279223 -5.37675e-06 0)
(-0.000248713 1.89594e-05 0)
(-0.000202527 5.29025e-05 0)
(-0.00016664 8.8e-05 0)
(-0.000137115 0.000108408 0)
(-0.000105013 8.37818e-05 0)
(-4.81375e-05 -2.37947e-05 0)
(8.25253e-05 -0.000208979 0)
(0.000316217 -0.000345583 0)
(0.000539466 -0.000295504 0)
(0.00065197 -0.000182611 0)
(0.000709881 -0.000144851 0)
(0.000783022 -0.000129247 0)
(0.00084222 -0.00010019 0)
(0.000886745 -8.86787e-05 0)
(0.000935036 -8.4692e-05 0)
(0.000983927 -8.18962e-05 0)
(0.00103619 -8.56184e-05 0)
(0.00109534 -8.91235e-05 0)
(0.00115795 -9.13712e-05 0)
(0.00122324 -9.37951e-05 0)
(0.00128983 -9.35641e-05 0)
(0.00135386 -8.93491e-05 0)
(0.00141153 -8.02837e-05 0)
(0.00145854 -6.43897e-05 0)
(0.00148825 -3.96248e-05 0)
(0.00149256 -5.16044e-06 0)
(0.00146283 3.75182e-05 0)
(0.00139428 8.77116e-05 0)
(0.00128081 0.000144929 0)
(0.00111835 0.000206277 0)
(0.000905728 0.000267433 0)
(0.000645079 0.000323251 0)
(0.000342897 0.000368231 0)
(9.96305e-06 0.000397721 0)
(-0.000339629 0.000407582 0)
(-0.000690552 0.000400857 0)
(-0.00102866 0.000376117 0)
(-0.0013402 0.00033344 0)
(-0.00161198 0.000274111 0)
(-0.0018322 0.000199644 0)
(-0.00199027 0.000111687 0)
(-0.00207683 1.52645e-05 0)
(-0.00209056 -8.68176e-05 0)
(-0.00202264 -0.00019149 0)
(-0.001884 -0.00029015 0)
(-0.00166778 -0.000374018 0)
(-0.00138737 -0.000437211 0)
(-0.00106125 -0.00047747 0)
(-0.000706472 -0.000494354 0)
(-0.000332283 -0.000482247 0)
(6.10581e-05 -0.0004154 0)
(0.000475746 -0.000237976 0)
(0.000819253 4.64045e-05 0)
(0.000878413 0.000182355 0)
(0.000762083 8.81754e-05 0)
(0.000626998 -4.10323e-05 0)
(0.000608887 -0.00010133 0)
(0.000646964 -8.83375e-05 0)
(0.000664591 -3.0909e-05 0)
(0.000647294 1.31165e-05 0)
(0.000612728 3.35103e-05 0)
(0.000565235 5.12001e-05 0)
(0.000504134 6.83531e-05 0)
(0.000431377 8.09541e-05 0)
(0.000348868 8.97762e-05 0)
(0.000259912 9.32983e-05 0)
(0.000169865 8.94829e-05 0)
(8.40426e-05 7.59816e-05 0)
(1.03596e-05 4.61382e-05 0)
(-1.38347e-05 1.07293e-06 0)
(-1.16209e-05 2.07202e-06 0)
(-1.94677e-06 1.77615e-05 0)
(1.76822e-05 6.2153e-05 0)
(2.67101e-05 0.000118968 0)
(5.98703e-06 0.000145879 0)
(-3.0061e-05 0.000118635 0)
(-6.73958e-05 3.88468e-05 0)
(-0.000100109 -8.58791e-05 0)
(-0.000129701 -0.000248313 0)
(-0.000156453 -0.000441966 0)
(-0.000184571 -0.000665017 0)
(-0.000216762 -0.000921658 0)
(-0.000251794 -0.00121688 0)
(-0.000284337 -0.00155176 0)
(-0.000304794 -0.00191748 0)
(-0.000303507 -0.00229528 0)
(-0.000274466 -0.00265862 0)
(-0.000216343 -0.00297563 0)
(-0.000130743 -0.00321645 0)
(-2.14658e-05 -0.0033556 0)
(0.000110722 -0.00337472 0)
(0.000257701 -0.00325039 0)
(0.000406468 -0.00298014 0)
(0.000544262 -0.00256668 0)
(0.000651108 -0.00202402 0)
(0.000706778 -0.00139198 0)
(0.000715098 -0.000726415 0)
(0.000680932 -5.66394e-05 0)
(0.000596401 0.000616207 0)
(0.000476564 0.00126399 0)
(0.000367454 0.00173397 0)
(0.000269259 0.00200692 0)
(0.000132157 0.00214486 0)
(-2.84914e-05 0.00216368 0)
(-0.000181953 0.00204388 0)
(-0.000329714 0.0018056 0)
(-0.000417855 0.00143636 0)
(-0.000408944 0.00103277 0)
(-0.000332848 0.000628012 0)
(-0.000189641 0.000233187 0)
(5.61331e-05 -6.52883e-05 0)
(0.000242893 -0.000206467 0)
(0.000258975 -0.000240917 0)
(9.64476e-05 -0.000162677 0)
(-0.000333693 -1.7131e-05 0)
(-0.000878584 -3.66336e-05 0)
(-0.00110642 -0.000250081 0)
(-0.000935531 -0.000464375 0)
(-0.000386159 -0.000508437 0)
(0.000442816 -0.000271919 0)
(0.00136746 0.000538529 0)
(0.00120993 0.00152285 0)
(0.000622901 0.00187329 0)
(0.000514276 0.00199859 0)
(0.000428638 0.00226666 0)
(0.000309966 0.00242949 0)
(0.000262321 0.00255942 0)
(0.000194079 0.0026747 0)
(0.000152276 0.00274853 0)
(0.000114705 0.00281626 0)
(8.48783e-05 0.00286219 0)
(6.41523e-05 0.0029014 0)
(4.76284e-05 0.00293239 0)
(3.83836e-05 0.00295881 0)
(3.28942e-05 0.00298345 0)
(3.19115e-05 0.0030067 0)
(3.36092e-05 0.00303062 0)
(3.72358e-05 0.003055 0)
(4.1435e-05 0.00308058 0)
(4.49165e-05 0.00310694 0)
(4.68306e-05 0.00313383 0)
(4.65868e-05 0.00316073 0)
(4.4207e-05 0.00318718 0)
(4.00878e-05 0.00321289 0)
(3.50804e-05 0.00323779 0)
(3.01191e-05 0.00326213 0)
(2.59542e-05 0.00328646 0)
(2.29012e-05 0.00331146 0)
(2.0824e-05 0.00333776 0)
(1.92852e-05 0.00336586 0)
(1.77853e-05 0.00339606 0)
(1.60562e-05 0.00342856 0)
(1.42588e-05 0.00346367 0)
(1.30389e-05 0.00350197 0)
(1.35625e-05 0.00354449 0)
(1.749e-05 0.00359285 0)
(2.69344e-05 0.00364929 0)
(4.44368e-05 0.0037167 0)
(7.28949e-05 0.0037985 0)
(0.000115496 0.0038985 0)
(0.00017546 0.00402129 0)
(0.000255377 0.00417018 0)
(0.000356226 0.00434953 0)
(0.000475966 0.00456465 0)
(0.000607904 0.00481815 0)
(0.000740543 0.00511029 0)
(0.000859218 0.00543671 0)
(0.000949706 0.00578774 0)
(0.0010022 0.00614949 0)
(0.00101337 0.00650634 0)
(0.000985747 0.00684422 0)
(0.000925699 0.00715259 0)
(0.000841574 0.00742469 0)
(0.000742262 0.00765576 0)
(0.000636151 0.0078454 0)
(0.000529696 0.00799563 0)
(0.000427129 0.00810958 0)
(0.000330952 0.00819068 0)
(0.000242323 0.00824241 0)
(0.000161318 0.00826767 0)
(8.80763e-05 0.00826872 0)
(2.41256e-05 0.00824817 0)
(-3.1453e-05 0.00821197 0)
(-8.23112e-05 0.00816108 0)
(-0.0001278 0.00809563 0)
(-0.000168081 0.00801853 0)
(-0.000204581 0.00793085 0)
(-0.000237095 0.00783344 0)
(-0.00026579 0.00772812 0)
(-0.000291307 0.00761605 0)
(-0.000313746 0.00749811 0)
(-0.00033325 0.00737549 0)
(-0.000350173 0.00724915 0)
(-0.000364762 0.00711986 0)
(-0.000377207 0.00698835 0)
(-0.00038778 0.00685531 0)
(-0.000396745 0.00672127 0)
(-0.000404317 0.00658666 0)
(-0.000410714 0.00645187 0)
(-0.000416149 0.00631721 0)
(-0.000420788 0.00618288 0)
(-0.000424775 0.00604909 0)
(-0.000428253 0.00591596 0)
(-0.000431317 0.00578358 0)
(-0.000434036 0.00565205 0)
(-0.000436481 0.00552142 0)
(-0.000438687 0.00539174 0)
(-0.00044069 0.00526306 0)
(-0.000442525 0.00513542 0)
(-0.000444197 0.00500886 0)
(-0.000445741 0.00488341 0)
(-0.000447181 0.00475911 0)
(-0.000448537 0.00463599 0)
(-0.000449867 0.00451407 0)
(-0.000451198 0.00439335 0)
(-0.000452567 0.00427383 0)
(-0.000454035 0.00415551 0)
(-0.00045565 0.00403837 0)
(-0.000457458 0.00392235 0)
(-0.000459521 0.00380744 0)
(-0.000461893 0.00369356 0)
(-0.000464623 0.00358065 0)
(-0.000467781 0.00346863 0)
(-0.000471409 0.00335742 0)
(-0.000475557 0.00324692 0)
(-0.000480281 0.00313703 0)
(-0.000485623 0.00302765 0)
(-0.000491657 0.00291868 0)
(-0.000498427 0.00280998 0)
(-0.000505969 0.00270145 0)
(-0.000514354 0.00259295 0)
(-0.000523634 0.00248437 0)
(-0.000533876 0.00237558 0)
(-0.000545156 0.00226645 0)
(-0.000557534 0.00215682 0)
(-0.000571091 0.00204655 0)
(-0.000585909 0.00193549 0)
(-0.000602053 0.00182348 0)
(-0.00061963 0.00171043 0)
(-0.000638756 0.00159619 0)
(-0.000659599 0.00148062 0)
(-0.000682356 0.00136351 0)
(-0.000707304 0.00124472 0)
(-0.000734531 0.00112363 0)
(-0.000774134 0.00101407 0)
(-0.000823834 0.00090701 0)
(-0.000880641 0.000794417 0)
(-0.000943499 0.000673422 0)
(-0.00101065 0.000542131 0)
(-0.00107874 0.000399797 0)
(-0.00114597 0.000248027 0)
(-0.001211 8.91874e-05 0)
(-0.00127269 -7.32326e-05 0)
(-0.00133402 -0.000236146 0)
(-0.00139921 -0.000398845 0)
(-0.00147165 -0.000562036 0)
(-0.00155371 -0.000728107 0)
(-0.00166515 -0.000907937 0)
(-0.00179737 -0.00109897 0)
(-0.00194456 -0.00129815 0)
(-0.00210839 -0.00150783 0)
(-0.0022904 -0.00172582 0)
(-0.00249459 -0.00196116 0)
(-0.00272014 -0.00219639 0)
(-0.00297875 -0.00247503 0)
(-0.00325322 -0.00270608 0)
(-0.00358834 -0.0030853 0)
(-0.00388544 -0.00321169 0)
(-0.00430317 -0.00387863 0)
(-0.00432288 -0.00344753 0)
)
;
    }
    frontAndBack
    {
        type            empty;
    }
}


// ************************************************************************* //
