/*--------------------------------*- C++ -*----------------------------------*\
  =========                 |
  \\      /  F ield         | OpenFOAM: The Open Source CFD Toolbox
   \\    /   O peration     | Website:  https://openfoam.org
    \\  /    A nd           | Version:  7
     \\/     M anipulation  |
\*---------------------------------------------------------------------------*/
FoamFile
{
    version     2.0;
    format      ascii;
    class       volScalarField;
    location    "0.23";
    object      yPlus;
}
// * * * * * * * * * * * * * * * * * * * * * * * * * * * * * * * * * * * * * //

dimensions      [0 0 0 0 0 0 0];

internalField   uniform 0;

boundaryField
{
    velocityInlet
    {
        type            calculated;
        value           uniform 0;
    }
    pressureOutlet
    {
        type            calculated;
        value           uniform 0;
    }
    fixedWalls
    {
        type            calculated;
        value           nonuniform List<scalar> 
100
(
2.03101
1.31198
0.416984
0.590723
0.0812049
0.271052
0.261367
0.285326
0.379221
0.404201
0.502138
0.655992
0.824732
0.915684
0.820411
0.170496
1.05431
1.5256
1.83211
1.9885
1.97328
1.76617
1.37793
0.799222
0.595706
0.979706
1.12058
1.16206
1.15978
1.14027
1.11551
1.09506
1.08863
1.09646
1.10889
1.11876
1.12383
1.12052
1.10469
1.07876
1.05065
1.0482
1.0854
1.17694
1.36503
1.40806
1.01397
0.599688
1.06508
1.19531
1.22054
1.21783
1.19871
1.15199
1.05655
0.895152
0.644618
0.136204
0.596107
0.806191
0.925835
0.990817
1.01972
1.0253
1.01654
0.999273
0.97674
0.950501
0.921619
0.891783
0.86375
0.840853
0.825921
0.820482
0.824785
0.83847
0.860603
0.888677
0.918153
0.944008
0.964013
0.980715
0.997423
1.00839
0.991585
0.90903
0.707684
0.191247
0.663598
0.865324
0.90223
0.807439
0.598917
0.185771
0.503707
0.68348
0.78759
0.834883
0.875831
0.872933
)
;
    }
    bottomWall
    {
        type            calculated;
        value           nonuniform List<scalar> 
800
(
2.94479
1.98392
1.61348
1.44042
1.35535
1.29678
1.24791
1.20688
1.17242
1.14294
1.11722
1.09447
1.07414
1.05583
1.03921
1.02404
1.01012
0.997278
0.985387
0.974336
0.964031
0.954393
0.945354
0.936857
0.928848
0.921287
0.914133
0.907354
0.900917
0.894798
0.888971
0.883414
0.878111
0.873041
0.86819
0.863543
0.859088
0.854813
0.850706
0.846757
0.842959
0.8393
0.835775
0.832377
0.829097
0.825932
0.822872
0.819916
0.817055
0.81429
0.811971
0.81005
0.808149
0.806274
0.804423
0.802596
0.80079
0.799008
0.797247
0.795508
0.79379
0.792091
0.790413
0.788755
0.787116
0.785495
0.783893
0.782309
0.780743
0.779195
0.777663
0.776148
0.774651
0.773168
0.771702
0.770251
0.768816
0.767397
0.765992
0.764601
0.763224
0.761862
0.760513
0.759179
0.757857
0.756549
0.755254
0.753971
0.752701
0.751442
0.750196
0.748962
0.74774
0.746529
0.745329
0.744141
0.742964
0.741798
0.740642
0.739497
0.738363
0.737238
0.736123
0.735018
0.733924
0.732839
0.731763
0.730697
0.72964
0.728592
0.727553
0.726523
0.725501
0.724488
0.723483
0.722487
0.7215
0.72052
0.719547
0.718584
0.717627
0.716678
0.715738
0.714804
0.713877
0.712959
0.712046
0.711142
0.710244
0.709353
0.708468
0.707591
0.706719
0.705856
0.704998
0.704146
0.7033
0.70246
0.701627
0.700799
0.699979
0.699162
0.698353
0.697549
0.69675
0.695957
0.69517
0.694388
0.693611
0.69284
0.692192
0.691662
0.691131
0.690598
0.690064
0.689529
0.688993
0.688455
0.687917
0.687376
0.686835
0.686292
0.685749
0.685205
0.684659
0.684113
0.683564
0.683015
0.682465
0.681914
0.681361
0.680807
0.680252
0.679696
0.679139
0.678581
0.678022
0.677461
0.676899
0.676337
0.675773
0.675208
0.674643
0.674075
0.673508
0.672939
0.672368
0.671796
0.671225
0.67065
0.670077
0.6695
0.668925
0.668346
0.667768
0.667187
0.666607
0.666024
0.665442
0.664858
0.664272
0.663686
0.663098
0.66251
0.661921
0.66133
0.660738
0.660146
0.659551
0.658957
0.658362
0.657764
0.657166
0.656568
0.655967
0.655365
0.654763
0.65416
0.653555
0.65295
0.652342
0.651735
0.651125
0.650515
0.649903
0.649289
0.648675
0.648059
0.647443
0.646823
0.646204
0.645581
0.644958
0.64433
0.643707
0.643072
0.642451
0.641802
0.64119
0.640517
0.639928
0.639208
0.638674
0.637863
0.637438
0.636465
0.636234
0.635008
0.635057
0.633498
2.94478
1.98385
1.61329
1.44007
1.35482
1.29604
1.24694
1.20566
1.17093
1.14115
1.11514
1.09208
1.07142
1.05277
1.0358
1.02026
1.00595
0.992698
0.980378
0.968874
0.95809
0.947946
0.938368
0.929298
0.920679
0.912465
0.904609
0.897074
0.889821
0.882814
0.876023
0.869411
0.862949
0.856602
0.850337
0.844117
0.837903
0.831656
0.82531
0.818857
0.812124
0.805256
0.797728
0.790236
0.781155
0.772985
0.760742
0.752282
0.734848
0.699616
1.26661
1.91068
1.84293
1.47979
1.32293
2.07233
2.55283
2.89917
3.12999
3.28465
3.36362
3.37665
3.32074
3.1964
2.99395
2.7
2.29108
1.72153
1.00076
1.60799
2.2548
2.74412
3.13153
3.44362
3.69574
3.89812
4.05836
4.18239
4.2749
4.3397
4.37997
4.39769
4.39375
4.37118
4.3326
4.28075
4.21806
4.14641
4.06739
3.98228
3.89235
3.79765
3.69757
3.59019
3.47203
3.33757
3.17873
2.98324
2.73368
2.40378
1.95784
1.41446
1.56781
2.23192
2.79155
3.23034
3.56164
3.79691
3.94585
4.02365
4.04051
3.99533
3.89299
3.73761
3.53237
3.27921
2.9786
2.62863
2.22333
1.74837
1.1877
0.891979
1.28427
1.49144
1.54923
1.5743
1.66812
1.82411
2.00928
2.19134
2.35462
2.48884
2.5828
2.62872
2.63359
2.62477
2.63584
2.68167
2.75037
2.82037
2.87334
2.89825
2.89189
2.85625
2.80134
2.71563
2.59863
2.44725
2.2555
2.01603
1.73148
1.44299
1.34038
1.57565
1.89775
2.19025
2.44107
2.64564
2.80674
2.92772
3.0118
3.06254
3.08533
3.07908
3.04599
2.98804
2.90729
2.8056
2.68466
2.54591
2.39054
2.21941
2.03291
1.83096
1.61286
1.37933
1.12889
0.876194
0.760464
0.897675
1.07506
1.22166
1.33838
1.43323
1.51353
1.58311
1.64542
1.70459
1.7584
1.8012
1.82532
1.82364
1.79371
1.73675
1.65748
1.56247
1.45676
1.34406
1.22755
1.1104
0.995513
0.885287
0.780325
0.677782
0.572906
0.484474
0.515871
0.662903
0.831953
1.00031
1.16483
1.32486
1.47997
1.63173
1.77903
1.91993
2.05371
2.1797
2.29732
2.40611
2.50568
2.59573
2.67603
2.74645
2.80691
2.85742
2.89802
2.92882
2.94993
2.96168
2.96398
2.95672
2.94018
2.91454
2.88014
2.83785
2.78642
2.72598
2.6566
2.57831
2.4919
2.39716
2.29333
2.18009
2.05773
1.92883
1.80231
1.70346
1.70443
1.94022
1.12103
2.05111
2.04766
1.59152
1.60403
2.27115
2.73908
2.98588
3.04389
2.87807
2.49896
1.83692
2.17334
2.52292
2.51509
2.55721
2.73197
2.87711
2.94491
2.89243
2.63846
2.17994
1.5719
1.10392
1.42313
1.72709
1.91808
2.03489
2.14865
2.17699
2.08491
1.92211
1.79712
1.66741
1.38537
0.58206
1.73294
2.53279
2.96807
3.21387
3.39168
3.56141
3.69171
3.79763
3.90224
4.00566
4.1131
4.22818
4.34715
4.46754
4.58566
4.69567
4.79142
4.86612
4.91032
4.91255
4.85877
4.73888
4.53807
4.23948
3.82085
3.24816
2.47209
1.76559
2.52852
3.40673
4.1045
4.66129
5.09916
5.42817
5.65258
5.77193
5.79063
5.69883
5.50824
5.19632
4.7611
4.20141
3.50784
2.65544
1.80987
2.50183
3.48309
3.82537
3.65551
3.30559
3.19308
3.21987
3.24161
3.21951
3.14613
3.02129
2.85509
2.64615
2.38621
2.07201
1.70062
1.25502
0.679387
0.289571
0.327177
0.470252
0.814727
1.09545
1.18792
1.0585
0.656836
1.01238
1.61539
2.12946
2.60161
3.05677
3.50714
3.95404
4.38733
4.79145
5.14875
5.44031
5.65064
5.76681
5.77961
5.67109
5.4331
5.05198
4.5091
3.78606
2.86477
1.86866
2.52302
3.52334
4.14338
4.44968
4.585
4.60738
4.48302
4.22058
3.79726
3.27321
2.62302
1.77305
1.09267
1.70425
1.91149
1.80425
1.9167
2.62885
2.92758
2.78692
2.0427
1.44602
3.27859
3.94947
4.21837
4.45449
4.72848
4.90057
5.03873
5.15064
5.22728
5.293
5.33941
5.37835
5.40943
5.43612
5.46061
5.48359
5.50655
5.52934
5.55243
5.57556
5.59862
5.62138
5.64368
5.66554
5.68706
5.70849
5.73014
5.75237
5.77549
5.79976
5.82546
5.85288
5.88246
5.91495
5.95144
5.9935
6.04321
6.10312
6.17612
6.26509
6.3731
6.50142
6.65114
6.82293
7.01459
7.22218
7.4398
7.66044
7.87687
8.08241
8.27173
8.44133
8.58957
8.71537
8.81936
8.90275
8.96705
9.01388
9.04482
9.06143
9.0651
9.05694
9.03951
9.01354
8.97943
8.93827
8.89074
8.8375
8.77927
8.71662
8.65013
8.58029
8.50757
8.43238
8.3551
8.27604
8.1955
8.11371
8.03087
7.94714
7.86265
7.7775
7.69179
7.60555
7.51885
7.43171
7.34416
7.25623
7.16793
7.07927
6.99027
6.90094
6.81128
6.72129
6.63096
6.54027
6.4492
6.35772
6.26576
6.17328
6.08021
5.98647
5.89196
5.79656
5.70016
5.60263
5.50382
5.40356
5.30165
5.19791
5.09211
4.984
4.87333
4.75977
4.64302
4.5227
4.39843
4.26975
4.1362
3.99726
3.85241
3.70107
3.54268
3.37668
3.225
3.07632
2.92214
2.76574
2.61829
2.5035
2.45701
2.5049
2.64188
2.83629
3.05964
3.29593
3.53886
3.80716
4.08692
4.36909
4.65455
4.94352
5.23846
5.53734
5.84864
6.15822
6.49922
6.8065
7.20483
7.43105
)
;
    }
    frontAndBack
    {
        type            empty;
    }
}


// ************************************************************************* //
