/*--------------------------------*- C++ -*----------------------------------*\
  =========                 |
  \\      /  F ield         | OpenFOAM: The Open Source CFD Toolbox
   \\    /   O peration     | Website:  https://openfoam.org
    \\  /    A nd           | Version:  7
     \\/     M anipulation  |
\*---------------------------------------------------------------------------*/
FoamFile
{
    version     2.0;
    format      ascii;
    class       volVectorField;
    location    "0.11";
    object      ddt0(U);
}
// * * * * * * * * * * * * * * * * * * * * * * * * * * * * * * * * * * * * * //

dimensions      [0 1 -2 0 0 0 0];

internalField   nonuniform List<vector> 
70000
(
(0.000928741 -6.83199e-05 0)
(0.00613445 -9.71577e-05 0)
(0.012919 -9.62919e-05 0)
(0.0191056 -7.82636e-05 0)
(0.0240427 -7.2327e-05 0)
(0.0275971 -6.70052e-05 0)
(0.0295802 -6.26041e-05 0)
(0.0300313 -5.81915e-05 0)
(0.0291936 -5.32872e-05 0)
(0.0273897 -4.87196e-05 0)
(0.0249818 -4.58763e-05 0)
(0.0223278 -4.48906e-05 0)
(0.0197267 -4.65152e-05 0)
(0.0173909 -5.03228e-05 0)
(0.0154436 -5.58384e-05 0)
(0.0139319 -6.21701e-05 0)
(0.0128567 -6.88813e-05 0)
(0.0121908 -7.64518e-05 0)
(0.0119113 -8.41686e-05 0)
(0.0119944 -9.32359e-05 0)
(0.0124231 -0.000103071 0)
(0.0131892 -0.000114477 0)
(0.0142854 -0.000127226 0)
(0.015711 -0.000141672 0)
(0.017478 -0.000157717 0)
(0.0196076 -0.000176409 0)
(0.0221497 -0.000197026 0)
(0.0251741 -0.000221523 0)
(0.0287917 -0.000249449 0)
(0.033142 -0.000282511 0)
(0.0384341 -0.000321846 0)
(0.0448946 -0.000368756 0)
(0.0528959 -0.000425093 0)
(0.0627624 -0.000493104 0)
(0.0751331 -0.000574974 0)
(0.0904809 -0.00067548 0)
(0.109852 -0.000794498 0)
(0.133983 -0.00094588 0)
(0.164435 -0.00111577 0)
(0.202577 -0.00134942 0)
(0.250472 -0.00158766 0)
(0.310738 -0.00194873 0)
(0.386464 -0.00228998 0)
(0.480374 -0.00280789 0)
(0.602945 -0.00337321 0)
(0.742478 -0.00393046 0)
(0.955329 -0.0051711 0)
(1.12968 -0.00511287 0)
(1.58625 -0.00941171 0)
(1.4328 -0.0831427 0)
(0.000510768 -0.00033248 0)
(0.00955118 -0.00065863 0)
(0.0246168 -0.000739045 0)
(0.0390242 -0.000634825 0)
(0.049572 -0.00046912 0)
(0.05565 -0.000279081 0)
(0.0567574 -8.04727e-05 0)
(0.0529042 0.000101557 0)
(0.0447827 0.000249523 0)
(0.0334416 0.000355033 0)
(0.020054 0.000414221 0)
(0.00573503 0.000430555 0)
(-0.00861875 0.000412902 0)
(-0.0224026 0.000372641 0)
(-0.0352859 0.000320376 0)
(-0.0471499 0.000264413 0)
(-0.0580048 0.00020996 0)
(-0.0679444 0.000157841 0)
(-0.0770774 0.000109121 0)
(-0.0855307 6.25209e-05 0)
(-0.0934348 1.78751e-05 0)
(-0.100916 -2.58156e-05 0)
(-0.1081 -6.87887e-05 0)
(-0.115101 -0.000112599 0)
(-0.122001 -0.000158769 0)
(-0.128857 -0.000211119 0)
(-0.135666 -0.000272485 0)
(-0.142376 -0.000349573 0)
(-0.148845 -0.00044758 0)
(-0.154884 -0.000575543 0)
(-0.16014 -0.000743118 0)
(-0.164261 -0.000963831 0)
(-0.166537 -0.00125083 0)
(-0.166447 -0.00162721 0)
(-0.162667 -0.00211256 0)
(-0.154435 -0.00274904 0)
(-0.139448 -0.00355681 0)
(-0.116446 -0.00462424 0)
(-0.081864 -0.00594804 0)
(-0.0330115 -0.0077354 0)
(0.034855 -0.00987561 0)
(0.127536 -0.0128811 0)
(0.252301 -0.0162934 0)
(0.415247 -0.0213739 0)
(0.643032 -0.0267317 0)
(0.904488 -0.0355391 0)
(1.34576 -0.0433675 0)
(1.68149 -0.0620336 0)
(2.70532 -0.0611272 0)
(2.63091 -0.227628 0)
(-0.000242109 -0.000625247 0)
(0.00795341 -0.00145327 0)
(0.0255166 -0.00178148 0)
(0.0451295 -0.00155676 0)
(0.0603732 -0.00106448 0)
(0.0687293 -0.000470997 0)
(0.0689873 0.000164465 0)
(0.0608287 0.000764741 0)
(0.0450432 0.00126378 0)
(0.0231841 0.00162776 0)
(-0.00285134 0.00184607 0)
(-0.031191 0.00193238 0)
(-0.060283 0.00191634 0)
(-0.0890399 0.00183394 0)
(-0.11682 0.00171704 0)
(-0.143333 0.00158967 0)
(-0.168511 0.00146736 0)
(-0.192441 0.00135542 0)
(-0.215281 0.00125912 0)
(-0.237249 0.00117802 0)
(-0.258602 0.00111418 0)
(-0.279622 0.00106678 0)
(-0.300598 0.00103598 0)
(-0.321815 0.00101862 0)
(-0.343518 0.00101127 0)
(-0.365914 0.00100501 0)
(-0.389131 0.000993527 0)
(-0.413233 0.000961422 0)
(-0.43817 0.000897573 0)
(-0.463839 0.000781262 0)
(-0.48992 0.000592576 0)
(-0.516134 0.000299411 0)
(-0.541708 -0.00012482 0)
(-0.566197 -0.000737452 0)
(-0.588039 -0.00157831 0)
(-0.606547 -0.00274998 0)
(-0.618898 -0.00430224 0)
(-0.623787 -0.00643268 0)
(-0.616833 -0.00917738 0)
(-0.594709 -0.01296 0)
(-0.551745 -0.0176645 0)
(-0.480163 -0.0243523 0)
(-0.37098 -0.0321652 0)
(-0.216321 -0.0441368 0)
(0.0209029 -0.0565573 0)
(0.295001 -0.0790163 0)
(0.811606 -0.0964025 0)
(1.17967 -0.147023 0)
(2.43697 -0.153008 0)
(2.54077 -0.386589 0)
(-0.00045925 -0.000820192 0)
(0.00516673 -0.00220253 0)
(0.0207214 -0.00298602 0)
(0.0416901 -0.00279262 0)
(0.0607612 -0.00196304 0)
(0.0730295 -0.000825725 0)
(0.0756038 0.000455975 0)
(0.0671466 0.00172128 0)
(0.0479077 0.00282318 0)
(0.019381 0.00366997 0)
(-0.0162073 0.00422572 0)
(-0.0564272 0.00450985 0)
(-0.0991003 0.00457755 0)
(-0.142568 0.00449922 0)
(-0.185729 0.00433904 0)
(-0.227946 0.00414574 0)
(-0.268903 0.00395249 0)
(-0.308522 0.00377526 0)
(-0.346875 0.00362832 0)
(-0.384167 0.00351729 0)
(-0.42071 0.00344973 0)
(-0.456894 0.00342846 0)
(-0.493157 0.0034557 0)
(-0.529955 0.00352774 0)
(-0.567711 0.00363923 0)
(-0.606813 0.00377621 0)
(-0.647556 0.00392759 0)
(-0.69017 0.00406914 0)
(-0.734748 0.0041826 0)
(-0.78134 0.00423473 0)
(-0.829744 0.00419532 0)
(-0.879838 0.00401112 0)
(-0.930938 0.00364314 0)
(-0.982771 0.00299422 0)
(-1.03382 0.00200496 0)
(-1.08358 0.000503741 0)
(-1.12923 -0.00159517 0)
(-1.16952 -0.00460635 0)
(-1.20019 -0.00863364 0)
(-1.21744 -0.0143185 0)
(-1.21606 -0.0215972 0)
(-1.18688 -0.032132 0)
(-1.12126 -0.04462 0)
(-1.00991 -0.064352 0)
(-0.812275 -0.0844363 0)
(-0.578167 -0.123304 0)
(-0.0836211 -0.151168 0)
(0.265322 -0.23939 0)
(1.5036 -0.267198 0)
(1.809 -0.552729 0)
(-0.000225399 -0.000932518 0)
(0.00333115 -0.0027839 0)
(0.0150947 -0.00410027 0)
(0.034022 -0.00415218 0)
(0.0546059 -0.00315316 0)
(0.0711275 -0.00150938 0)
(0.0790465 0.00050046 0)
(0.0754218 0.00260342 0)
(0.0591952 0.00453896 0)
(0.0309904 0.00612061 0)
(-0.00735461 0.00725411 0)
(-0.05337 0.00794255 0)
(-0.104536 0.00825791 0)
(-0.158707 0.00830567 0)
(-0.214266 0.00818763 0)
(-0.270101 0.00798382 0)
(-0.325474 0.0077514 0)
(-0.379947 0.00752349 0)
(-0.433306 0.00732998 0)
(-0.485548 0.00718944 0)
(-0.536871 0.00712159 0)
(-0.587642 0.00713857 0)
(-0.638347 0.00724891 0)
(-0.68955 0.00745141 0)
(-0.741817 0.00774033 0)
(-0.795699 0.00809741 0)
(-0.851659 0.00850682 0)
(-0.9101 0.0089354 0)
(-0.971276 0.00935755 0)
(-1.0354 0.00972718 0)
(-1.10242 0.0100045 0)
(-1.17238 0.0101146 0)
(-1.24474 0.0100074 0)
(-1.3194 0.00954645 0)
(-1.39502 0.00865287 0)
(-1.47122 0.00708843 0)
(-1.54551 0.00472304 0)
(-1.61658 0.00113657 0)
(-1.68081 -0.0038683 0)
(-1.73392 -0.0111314 0)
(-1.77188 -0.0206782 0)
(-1.78436 -0.0347837 0)
(-1.76455 -0.0516952 0)
(-1.70068 -0.0791068 0)
(-1.5564 -0.10686 0)
(-1.37122 -0.162326 0)
(-0.945564 -0.202461 0)
(-0.614565 -0.325755 0)
(0.46761 -0.388817 0)
(0.964714 -0.717737 0)
(6.32938e-05 -0.00102547 0)
(0.00276749 -0.00321103 0)
(0.0112922 -0.00500544 0)
(0.0267049 -0.00543729 0)
(0.046302 -0.00450008 0)
(0.0654686 -0.00255076 0)
(0.079298 8.09764e-05 0)
(0.0836497 0.00302893 0)
(0.0759177 0.00591207 0)
(0.0552268 0.00842454 0)
(0.0222369 0.010379 0)
(-0.0212957 0.0117265 0)
(-0.0730941 0.0125289 0)
(-0.130895 0.0129111 0)
(-0.192753 0.0130067 0)
(-0.257134 0.0129262 0)
(-0.322838 0.012752 0)
(-0.388954 0.0125372 0)
(-0.454806 0.012332 0)
(-0.519974 0.0121748 0)
(-0.58431 0.0121058 0)
(-0.647941 0.0121549 0)
(-0.711221 0.0123448 0)
(-0.774676 0.0126828 0)
(-0.838915 0.0131671 0)
(-0.904583 0.0137777 0)
(-0.972272 0.0144956 0)
(-1.04253 0.0152792 0)
(-1.11575 0.0160958 0)
(-1.19231 0.0168862 0)
(-1.27231 0.0176014 0)
(-1.35592 0.0181452 0)
(-1.44277 0.0184559 0)
(-1.53288 0.0183618 0)
(-1.62514 0.0177605 0)
(-1.7192 0.0163566 0)
(-1.81302 0.0139645 0)
(-1.90509 0.0100779 0)
(-1.99265 0.00438395 0)
(-2.07088 -0.00412927 0)
(-2.13715 -0.0156069 0)
(-2.18004 -0.0328984 0)
(-2.19553 -0.053905 0)
(-2.16778 -0.0884692 0)
(-2.07092 -0.123939 0)
(-1.92232 -0.194667 0)
(-1.57534 -0.24962 0)
(-1.24759 -0.402185 0)
(-0.354414 -0.51023 0)
(0.280576 -0.874888 0)
(0.00021182 -0.00112667 0)
(0.00288573 -0.0035523 0)
(0.00966032 -0.00571916 0)
(0.0219852 -0.00655874 0)
(0.0393 -0.00585837 0)
(0.058952 -0.00385295 0)
(0.077014 -0.000838363 0)
(0.0892846 0.00278626 0)
(0.0922324 0.0065554 0)
(0.08355 0.0100526 0)
(0.0623466 0.0129822 0)
(0.0290451 0.0152117 0)
(-0.0149899 0.0167569 0)
(-0.067956 0.0177332 0)
(-0.128018 0.0182868 0)
(-0.193521 0.0185473 0)
(-0.263002 0.0186148 0)
(-0.335171 0.0185573 0)
(-0.408886 0.0184423 0)
(-0.483195 0.0183296 0)
(-0.557425 0.0182852 0)
(-0.631229 0.0183662 0)
(-0.704595 0.0186192 0)
(-0.777801 0.0190701 0)
(-0.851326 0.0197288 0)
(-0.925776 0.0205799 0)
(-1.00178 0.0216045 0)
(-1.07995 0.0227552 0)
(-1.16081 0.0239931 0)
(-1.24485 0.0252469 0)
(-1.33228 0.0264574 0)
(-1.4234 0.0275088 0)
(-1.51802 0.0283248 0)
(-1.61617 0.0287036 0)
(-1.71702 0.0285125 0)
(-1.82016 0.0274111 0)
(-1.92401 0.0251454 0)
(-2.02682 0.021143 0)
(-2.12661 0.0149576 0)
(-2.21813 0.00543375 0)
(-2.29999 -0.00773079 0)
(-2.35986 -0.0278626 0)
(-2.39674 -0.0527487 0)
(-2.39015 -0.0937984 0)
(-2.32698 -0.137208 0)
(-2.19952 -0.221332 0)
(-1.91894 -0.29346 0)
(-1.58911 -0.469859 0)
(-0.855908 -0.627059 0)
(-0.157984 -1.02226 0)
(0.000230402 -0.00123922 0)
(0.00312946 -0.00387216 0)
(0.00937223 -0.00632714 0)
(0.0198772 -0.0075322 0)
(0.0350246 -0.00714677 0)
(0.0537904 -0.00528097 0)
(0.0737673 -0.00214953 0)
(0.0916782 0.00187977 0)
(0.104078 0.00631846 0)
(0.107955 0.0106829 0)
(0.101175 0.0145857 0)
(0.0827272 0.0178017 0)
(0.0526881 0.0202744 0)
(0.0119029 0.0220786 0)
(-0.0383975 0.0233474 0)
(-0.096886 0.0242108 0)
(-0.162229 0.0247715 0)
(-0.233085 0.0250983 0)
(-0.308079 0.0252629 0)
(-0.38585 0.0253369 0)
(-0.465183 0.025409 0)
(-0.545144 0.0255665 0)
(-0.625162 0.0258889 0)
(-0.705048 0.0264316 0)
(-0.784941 0.0272273 0)
(-0.865229 0.0282749 0)
(-0.946424 0.029563 0)
(-1.02912 0.0310438 0)
(-1.11385 0.0326751 0)
(-1.20116 0.0343755 0)
(-1.29137 0.0360761 0)
(-1.38484 0.0376429 0)
(-1.48153 0.0389822 0)
(-1.58149 0.0398656 0)
(-1.68412 0.0401246 0)
(-1.78894 0.0393828 0)
(-1.89475 0.0373087 0)
(-1.99963 0.0332776 0)
(-2.10217 0.0266993 0)
(-2.19693 0.0163005 0)
(-2.28339 0.00158118 0)
(-2.34878 -0.0211355 0)
(-2.39447 -0.0497984 0)
(-2.39669 -0.0967194 0)
(-2.35267 -0.148299 0)
(-2.23587 -0.244129 0)
(-2.00193 -0.334807 0)
(-1.67472 -0.531486 0)
(-1.05887 -0.736276 0)
(-0.357948 -1.1618 0)
(0.000200753 -0.00136196 0)
(0.00326474 -0.00420647 0)
(0.00954539 -0.00690975 0)
(0.0193911 -0.00842666 0)
(0.0331917 -0.00836082 0)
(0.0507899 -0.00673819 0)
(0.0710269 -0.00369352 0)
(0.0918565 0.000469973 0)
(0.110646 0.00529348 0)
(0.124543 0.0102821 0)
(0.130909 0.0149997 0)
(0.127751 0.0191475 0)
(0.113981 0.0225924 0)
(0.089358 0.0253504 0)
(0.0542314 0.0275201 0)
(0.00925051 0.029214 0)
(-0.0447672 0.0305219 0)
(-0.106843 0.0314966 0)
(-0.175766 0.0321939 0)
(-0.250106 0.0326767 0)
(-0.328334 0.0330402 0)
(-0.409019 0.033394 0)
(-0.491001 0.0338505 0)
(-0.573509 0.0345021 0)
(-0.656172 0.0354153 0)
(-0.738986 0.0366147 0)
(-0.822183 0.0381067 0)
(-0.906182 0.0398516 0)
(-0.991436 0.0418095 0)
(-1.07845 0.043894 0)
(-1.16757 0.0460277 0)
(-1.2592 0.048062 0)
(-1.35337 0.0498831 0)
(-1.45016 0.0512405 0)
(-1.54916 0.0519241 0)
(-1.64984 0.0515282 0)
(-1.75127 0.0496389 0)
(-1.85149 0.0455863 0)
(-1.94943 0.0386344 0)
(-2.03978 0.0274094 0)
(-2.1224 0.0111862 0)
(-2.1849 -0.0139531 0)
(-2.22964 -0.046336 0)
(-2.2323 -0.0986435 0)
(-2.19557 -0.158464 0)
(-2.08411 -0.264706 0)
(-1.87965 -0.374226 0)
(-1.56292 -0.588948 0)
(-1.03299 -0.836966 0)
(-0.367823 -1.29132 0)
(0.000174992 -0.00148949 0)
(0.00329622 -0.00456192 0)
(0.00973113 -0.00750641 0)
(0.0195211 -0.00930919 0)
(0.0327948 -0.0095414 0)
(0.049598 -0.0081926 0)
(0.0694473 -0.00534595 0)
(0.0912538 -0.00124369 0)
(0.113355 0.00370854 0)
(0.133579 0.0090468 0)
(0.149478 0.0143324 0)
(0.158748 0.0192292 0)
(0.159624 0.0235449 0)
(0.151049 0.0272365 0)
(0.132563 0.0303604 0)
(0.104074 0.0330031 0)
(0.0657062 0.0352333 0)
(0.0178023 0.0370768 0)
(-0.0389519 0.0385552 0)
(-0.103451 0.0396989 0)
(-0.174227 0.0405841 0)
(-0.24964 0.0413218 0)
(-0.328111 0.0420459 0)
(-0.408343 0.0428833 0)
(-0.489421 0.0439396 0)
(-0.570853 0.0452746 0)
(-0.652473 0.046923 0)
(-0.734402 0.0488631 0)
(-0.816888 0.0510656 0)
(-0.9003 0.0534458 0)
(-0.984936 0.055922 0)
(-1.07114 0.0583354 0)
(-1.15901 0.0605523 0)
(-1.24862 0.0623039 0)
(-1.33966 0.0633369 0)
(-1.43161 0.0632185 0)
(-1.52373 0.0614541 0)
(-1.61414 0.0573286 0)
(-1.70192 0.0499687 0)
(-1.78219 0.0379041 0)
(-1.85474 0.0201852 0)
(-1.90838 -0.00728404 0)
(-1.94519 -0.0433203 0)
(-1.94283 -0.100638 0)
(-1.90515 -0.168566 0)
(-1.79649 -0.284216 0)
(-1.61042 -0.41201 0)
(-1.31097 -0.643072 0)
(-0.849569 -0.928754 0)
(-0.244914 -1.40869 0)
(0.00016353 -0.00161957 0)
(0.00328812 -0.00493516 0)
(0.00982789 -0.00813081 0)
(0.019749 -0.0102142 0)
(0.0329612 -0.0107312 0)
(0.0494404 -0.00965489 0)
(0.0689104 -0.0070477 0)
(0.0907859 -0.0031119 0)
(0.114127 0.0017964 0)
(0.137492 0.00725986 0)
(0.158973 0.0128687 0)
(0.176464 0.0182835 0)
(0.188067 0.0232786 0)
(0.192356 0.0277662 0)
(0.188393 0.0317651 0)
(0.17555 0.035339 0)
(0.153358 0.0385388 0)
(0.121509 0.041363 0)
(0.0800214 0.0437914 0)
(0.0294188 0.0458042 0)
(-0.0292209 0.0474325 0)
(-0.094388 0.0487621 0)
(-0.164381 0.0499264 0)
(-0.237582 0.0510739 0)
(-0.312646 0.0523454 0)
(-0.388628 0.0538394 0)
(-0.464941 0.0556253 0)
(-0.54135 0.0577091 0)
(-0.617824 0.0600792 0)
(-0.694517 0.062661 0)
(-0.771592 0.0653736 0)
(-0.84929 0.0680542 0)
(-0.927682 0.0705516 0)
(-1.00681 0.0725828 0)
(-1.08643 0.0738528 0)
(-1.16606 0.0739035 0)
(-1.24504 0.0721649 0)
(-1.32169 0.0678732 0)
(-1.3951 0.0600354 0)
(-1.46104 0.0470781 0)
(-1.51895 0.0278522 0)
(-1.55944 -0.00189149 0)
(-1.58343 -0.0414829 0)
(-1.57229 -0.103483 0)
(-1.52841 -0.179196 0)
(-1.42087 -0.303365 0)
(-1.24706 -0.448248 0)
(-0.969555 -0.694002 0)
(-0.568003 -1.01118 0)
(-0.039418 -1.51238 0)
(0.000159809 -0.00175239 0)
(0.00327897 -0.00532328 0)
(0.00987142 -0.00878288 0)
(0.0199233 -0.0111558 0)
(0.033237 -0.0119561 0)
(0.0496844 -0.0111472 0)
(0.068984 -0.00878752 0)
(0.0907148 -0.00505857 0)
(0.114302 -0.000283155 0)
(0.138824 0.00516477 0)
(0.162898 0.0109153 0)
(0.184818 0.0166456 0)
(0.202889 0.0221183 0)
(0.215696 0.0272159 0)
(0.222193 0.031932 0)
(0.22153 0.0363168 0)
(0.212915 0.0404143 0)
(0.195586 0.0442071 0)
(0.168997 0.0476374 0)
(0.13307 0.0506288 0)
(0.0883475 0.0531507 0)
(0.0359773 0.0552391 0)
(-0.0224824 0.0570026 0)
(-0.085344 0.0585918 0)
(-0.151036 0.0601705 0)
(-0.218296 0.0618716 0)
(-0.286194 0.0638012 0)
(-0.354165 0.0659969 0)
(-0.421891 0.0684714 0)
(-0.489282 0.0711662 0)
(-0.55632 0.0740068 0)
(-0.623095 0.0768326 0)
(-0.689602 0.0794786 0)
(-0.755815 0.0816521 0)
(-0.821511 0.083021 0)
(-0.88622 0.0831023 0)
(-0.949345 0.0812611 0)
(-1.00942 0.0766787 0)
(-1.06551 0.0682663 0)
(-1.11411 0.0543369 0)
(-1.15424 0.0335798 0)
(-1.17847 0.00160177 0)
(-1.1864 -0.0414173 0)
(-1.16361 -0.107777 0)
(-1.1103 -0.1908 0)
(-1.00225 -0.322616 0)
(-0.837286 -0.48293 0)
(-0.583996 -0.741575 0)
(-0.237118 -1.08375 0)
(0.207868 -1.60104 0)
(0.00015768 -0.00188851 0)
(0.00327726 -0.00572572 0)
(0.00990267 -0.00946065 0)
(0.0200522 -0.0121358 0)
(0.0334855 -0.0132269 0)
(0.05001 -0.0126856 0)
(0.0692969 -0.0105728 0)
(0.0909326 -0.00706047 0)
(0.114464 -0.00245159 0)
(0.139229 0.00291314 0)
(0.164186 0.00870095 0)
(0.18799 0.0146118 0)
(0.209227 0.0204058 0)
(0.226703 0.0259477 0)
(0.239461 0.0312132 0)
(0.246705 0.0362498 0)
(0.24759 0.0411082 0)
(0.241167 0.0457696 0)
(0.226565 0.0501515 0)
(0.203262 0.0541258 0)
(0.171331 0.0575942 0)
(0.131504 0.0605285 0)
(0.0850614 0.0629922 0)
(0.0335754 0.0651183 0)
(-0.0213445 0.0670787 0)
(-0.0782841 0.0690316 0)
(-0.136099 0.0711153 0)
(-0.193985 0.0733997 0)
(-0.251387 0.0759237 0)
(-0.307993 0.078649 0)
(-0.363602 0.0815114 0)
(-0.418142 0.0843568 0)
(-0.471497 0.0870113 0)
(-0.523555 0.0891763 0)
(-0.574061 0.0904883 0)
(-0.622567 0.0904406 0)
(-0.668479 0.0883449 0)
(-0.710564 0.0833234 0)
(-0.747809 0.0742161 0)
(-0.777461 0.0592148 0)
(-0.798135 0.0368862 0)
(-0.804289 0.00270426 0)
(-0.794366 -0.0436023 0)
(-0.757983 -0.113996 0)
(-0.693347 -0.203749 0)
(-0.583129 -0.342331 0)
(-0.424675 -0.516094 0)
(-0.195556 -0.785609 0)
(0.10149 -1.1464 0)
(0.462996 -1.67382 0)
(0.00015514 -0.00202823 0)
(0.00328024 -0.00614319 0)
(0.00993697 -0.0101637 0)
(0.0201668 -0.0131536 0)
(0.0337038 -0.0145462 0)
(0.0503217 -0.0142776 0)
(0.0696599 -0.0124125 0)
(0.0912751 -0.00911789 0)
(0.114727 -0.00468346 0)
(0.13944 0.000574514 0)
(0.164542 0.00635411 0)
(0.188898 0.0123759 0)
(0.21133 0.0183992 0)
(0.230837 0.0242724 0)
(0.246675 0.0299587 0)
(0.258191 0.035508 0)
(0.264642 0.0409864 0)
(0.265101 0.0463877 0)
(0.258599 0.0516182 0)
(0.2444 0.0565087 0)
(0.222279 0.0608966 0)
(0.19265 0.0646836 0)
(0.156519 0.0678769 0)
(0.11528 0.0705773 0)
(0.0704675 0.0729515 0)
(0.0235198 0.0751726 0)
(-0.0243258 0.0774049 0)
(-0.0721242 0.0797473 0)
(-0.119166 0.082264 0)
(-0.164971 0.0849379 0)
(-0.209184 0.0877165 0)
(-0.251586 0.0904554 0)
(-0.291949 0.0929749 0)
(-0.330067 0.0949733 0)
(-0.365629 0.0960624 0)
(-0.39819 0.0957124 0)
(-0.427137 0.0931939 0)
(-0.451437 0.087567 0)
(-0.47001 0.0776233 0)
(-0.480754 0.0614321 0)
(-0.481986 0.0374705 0)
(-0.469787 0.00110107 0)
(-0.441799 -0.0483605 0)
(-0.391052 -0.122477 0)
(-0.314454 -0.218332 0)
(-0.200736 -0.362811 0)
(-0.0469739 -0.547897 0)
(0.159881 -0.826101 0)
(0.412838 -1.19958 0)
(0.697453 -1.7311 0)
(0.000152269 -0.00217171 0)
(0.00328514 -0.0065764 0)
(0.00997528 -0.0108928 0)
(0.0202812 -0.0142094 0)
(0.0339115 -0.0159147 0)
(0.0506149 -0.0159258 0)
(0.0700158 -0.014312 0)
(0.0916467 -0.0112358 0)
(0.11505 -0.00697632 0)
(0.139665 -0.00182951 0)
(0.164678 0.00392904 0)
(0.189053 0.0100363 0)
(0.211739 0.0162482 0)
(0.231884 0.0223952 0)
(0.248889 0.0284268 0)
(0.262257 0.0343967 0)
(0.271387 0.0403909 0)
(0.275459 0.046423 0)
(0.273549 0.0523983 0)
(0.264884 0.0581166 0)
(0.249118 0.0633571 0)
(0.226497 0.0679531 0)
(0.197845 0.0718508 0)
(0.164404 0.0751116 0)
(0.12761 0.0778875 0)
(0.0888633 0.080359 0)
(0.0494165 0.0827096 0)
(0.0102769 0.0850638 0)
(-0.0277612 0.087508 0)
(-0.06411 0.0900453 0)
(-0.0983063 0.0926347 0)
(-0.130013 0.0951423 0)
(-0.158906 0.0973848 0)
(-0.184695 0.0990591 0)
(-0.207 0.0997574 0)
(-0.225372 0.0989276 0)
(-0.239162 0.09581 0)
(-0.247493 0.0894023 0)
(-0.249232 0.0784652 0)
(-0.242796 0.0609532 0)
(-0.226328 0.0352743 0)
(-0.197175 -0.00328592 0)
(-0.152557 -0.0557937 0)
(-0.0881467 -0.133357 0)
(-0.000271352 -0.234692 0)
(0.117452 -0.384248 0)
(0.26773 -0.578559 0)
(0.455212 -0.863242 0)
(0.670572 -1.24419 0)
(0.889184 -1.77431 0)
(0.000149431 -0.00231908 0)
(0.00329119 -0.00702584 0)
(0.0100158 -0.0116494 0)
(0.0203977 -0.0153043 0)
(0.0341184 -0.0173333 0)
(0.0509006 -0.0176318 0)
(0.0703604 -0.0162737 0)
(0.092016 -0.0134182 0)
(0.115392 -0.00933333 0)
(0.139921 -0.00429628 0)
(0.164801 0.00144148 0)
(0.189034 0.00763071 0)
(0.211628 0.0140207 0)
(0.231808 0.0204217 0)
(0.249064 0.0267668 0)
(0.262995 0.0331124 0)
(0.273108 0.0395648 0)
(0.278688 0.0461598 0)
(0.278901 0.0528069 0)
(0.273023 0.0592803 0)
(0.260711 0.0653068 0)
(0.242163 0.0706538 0)
(0.218126 0.0752073 0)
(0.189755 0.0789863 0)
(0.158414 0.0821242 0)
(0.125457 0.0848041 0)
(0.0921257 0.0872246 0)
(0.0594401 0.0895321 0)
(0.0282338 0.0918326 0)
(-0.000843263 0.0941476 0)
(-0.0272606 0.0964461 0)
(-0.050597 0.0986045 0)
(-0.0704604 0.100436 0)
(-0.0864816 0.101638 0)
(-0.0982265 0.101786 0)
(-0.105231 0.100306 0)
(-0.106808 0.0964176 0)
(-0.102193 0.0890571 0)
(-0.0902197 0.0769659 0)
(-0.0696795 0.0579976 0)
(-0.0386534 0.0305016 0)
(0.0046036 -0.0102718 0)
(0.0629807 -0.0657463 0)
(0.138906 -0.14653 0)
(0.23607 -0.252772 0)
(0.357175 -0.406669 0)
(0.504278 -0.608269 0)
(0.675268 -0.897335 0)
(0.85944 -1.28142 0)
(1.0246 -1.80546 0)
(0.000146779 -0.00247048 0)
(0.00329843 -0.00749196 0)
(0.0100577 -0.0124349 0)
(0.0205149 -0.0164397 0)
(0.0343259 -0.0188036 0)
(0.0511841 -0.0193971 0)
(0.0706987 -0.0182996 0)
(0.0923787 -0.0156676 0)
(0.115734 -0.0117576 0)
(0.140187 -0.0068279 0)
(0.164938 -0.00110669 0)
(0.188999 0.00516911 0)
(0.211406 0.0117404 0)
(0.23142 0.0183947 0)
(0.248574 0.0250474 0)
(0.262513 0.0317561 0)
(0.272798 0.0386463 0)
(0.27878 0.0457761 0)
(0.2797 0.0530593 0)
(0.274904 0.0602465 0)
(0.264099 0.0670141 0)
(0.247507 0.0730663 0)
(0.225866 0.0782296 0)
(0.200305 0.0824814 0)
(0.172151 0.0859351 0)
(0.142733 0.0887747 0)
(0.113267 0.0912118 0)
(0.084779 0.0934125 0)
(0.0581158 0.0955005 0)
(0.0339564 0.0975138 0)
(0.0128771 0.0994304 0)
(-0.00466275 0.101135 0)
(-0.0181914 0.10244 0)
(-0.0273236 0.103039 0)
(-0.0315641 0.102497 0)
(-0.0304349 0.100218 0)
(-0.023217 0.0954032 0)
(-0.00921833 0.0869351 0)
(0.0127355 0.0735397 0)
(0.0436059 0.0529887 0)
(0.0852787 0.0235732 0)
(0.138905 -0.0194465 0)
(0.207267 -0.0778308 0)
(0.291513 -0.161658 0)
(0.394982 -0.272301 0)
(0.517765 -0.429904 0)
(0.661006 -0.637098 0)
(0.817627 -0.928679 0)
(0.976059 -1.31248 0)
(1.0996 -1.82679 0)
(0.000144353 -0.00262608 0)
(0.00330697 -0.00797533 0)
(0.0101005 -0.0132503 0)
(0.0206318 -0.0176167 0)
(0.0345329 -0.0203271 0)
(0.051466 -0.0212238 0)
(0.0710329 -0.0203916 0)
(0.092736 -0.017986 0)
(0.116072 -0.0142514 0)
(0.140455 -0.00942673 0)
(0.165081 -0.00371699 0)
(0.188969 0.00265242 0)
(0.211172 0.00941257 0)
(0.230971 0.0163274 0)
(0.247918 0.0232936 0)
(0.261675 0.0303697 0)
(0.271816 0.0376998 0)
(0.277724 0.0453629 0)
(0.278681 0.0532758 0)
(0.274092 0.0611643 0)
(0.263718 0.0686541 0)
(0.247827 0.0753865 0)
(0.227181 0.0811297 0)
(0.202916 0.0858201 0)
(0.176349 0.0895517 0)
(0.148792 0.0925093 0)
(0.121452 0.0949168 0)
(0.095348 0.0969592 0)
(0.071329 0.0987768 0)
(0.0500922 0.100423 0)
(0.0322283 0.101883 0)
(0.0182392 0.103051 0)
(0.00860051 0.103735 0)
(0.00375738 0.103627 0)
(0.00422486 0.102283 0)
(0.0104848 0.0990837 0)
(0.0232791 0.0932177 0)
(0.0432449 0.0835161 0)
(0.0715532 0.0686919 0)
(0.108991 0.046454 0)
(0.157386 0.015033 0)
(0.217489 -0.0302621 0)
(0.291852 -0.0915068 0)
(0.380807 -0.178235 0)
(0.487152 -0.292835 0)
(0.609205 -0.453604 0)
(0.747112 -0.664963 0)
(0.890457 -0.957471 0)
(1.02713 -1.33841 0)
(1.11865 -1.8404 0)
(0.000142152 -0.00278606 0)
(0.00331685 -0.00847651 0)
(0.0101442 -0.0140969 0)
(0.0207475 -0.0188369 0)
(0.0347383 -0.0219056 0)
(0.0517453 -0.0231137 0)
(0.0713627 -0.0225517 0)
(0.0930876 -0.0203756 0)
(0.116405 -0.0168171 0)
(0.140719 -0.0120949 0)
(0.165222 -0.00639109 0)
(0.18894 7.9604e-05 0)
(0.210937 0.00703759 0)
(0.230514 0.0142224 0)
(0.247233 0.0215122 0)
(0.260756 0.0289671 0)
(0.270657 0.0367496 0)
(0.276322 0.0449588 0)
(0.277055 0.0535125 0)
(0.272297 0.0621091 0)
(0.261857 0.0703217 0)
(0.246045 0.077728 0)
(0.225658 0.0840379 0)
(0.201844 0.0891474 0)
(0.175921 0.0931322 0)
(0.149196 0.0961786 0)
(0.122863 0.098523 0)
(0.0979342 0.100369 0)
(0.0752564 0.101873 0)
(0.0555309 0.103104 0)
(0.0393566 0.104053 0)
(0.0272457 0.104622 0)
(0.0196941 0.104617 0)
(0.0171504 0.103728 0)
(0.0201469 0.1015 0)
(0.0291659 0.0972929 0)
(0.0449473 0.0902837 0)
(0.0680967 0.0792585 0)
(0.0997427 0.062914 0)
(0.140578 0.0389177 0)
(0.192288 0.0054324 0)
(0.255415 -0.04215 0)
(0.332202 -0.106196 0)
(0.422464 -0.195697 0)
(0.528388 -0.313856 0)
(0.647123 -0.477319 0)
(0.77784 -0.691657 0)
(0.908096 -0.983784 0)
(1.02553 -1.35999 0)
(1.09192 -1.84798 0)
(0.00014019 -0.00295062 0)
(0.00332802 -0.00899602 0)
(0.0101887 -0.014976 0)
(0.0208616 -0.0201015 0)
(0.0349409 -0.0235406 0)
(0.0520209 -0.0250691 0)
(0.0716869 -0.0247821 0)
(0.0934326 -0.0228384 0)
(0.116731 -0.0194566 0)
(0.140977 -0.0148342 0)
(0.165359 -0.00913064 0)
(0.188906 -0.00255053 0)
(0.210699 0.00461472 0)
(0.230054 0.0120798 0)
(0.246541 0.0197047 0)
(0.259822 0.0275521 0)
(0.269459 0.035804 0)
(0.274834 0.0445784 0)
(0.275257 0.0537923 0)
(0.270195 0.063114 0)
(0.259495 0.0720614 0)
(0.243504 0.080147 0)
(0.223045 0.0870219 0)
(0.199285 0.0925427 0)
(0.17354 0.0967675 0)
(0.14711 0.0998851 0)
(0.121176 0.102145 0)
(0.0967422 0.103769 0)
(0.0746463 0.104931 0)
(0.055586 0.105712 0)
(0.0401592 0.106115 0)
(0.0288774 0.106043 0)
(0.0222382 0.105305 0)
(0.0206874 0.103583 0)
(0.0247545 0.100418 0)
(0.0349115 0.0951476 0)
(0.0518805 0.086936 0)
(0.0762353 0.0745324 0)
(0.109045 0.0566121 0)
(0.15093 0.0308208 0)
(0.203426 -0.00475373 0)
(0.266919 -0.0546086 0)
(0.343328 -0.121372 0)
(0.432124 -0.21351 0)
(0.534886 -0.334856 0)
(0.647985 -0.500579 0)
(0.769737 -0.716901 0)
(0.886583 -1.00757 0)
(0.986138 -1.3777 0)
(1.03174 -1.85072 0)
(0.000138469 -0.00312 0)
(0.00334041 -0.00953441 0)
(0.0102339 -0.0158888 0)
(0.0209737 -0.0214121 0)
(0.03514 -0.0252337 0)
(0.0522916 -0.0270919 0)
(0.0720043 -0.0270849 0)
(0.0937695 -0.0253766 0)
(0.117049 -0.0221721 0)
(0.141227 -0.0176467 0)
(0.165488 -0.0119372 0)
(0.188866 -0.00523916 0)
(0.210456 0.00214319 0)
(0.229589 0.00989909 0)
(0.245845 0.0178713 0)
(0.258882 0.0261261 0)
(0.268251 0.0348657 0)
(0.273322 0.0442273 0)
(0.273412 0.0541244 0)
(0.268006 0.0641929 0)
(0.256981 0.0738924 0)
(0.240718 0.0826685 0)
(0.220064 0.0901134 0)
(0.196197 0.0960444 0)
(0.170431 0.100503 0)
(0.144058 0.103682 0)
(0.118242 0.105843 0)
(0.0939737 0.10723 0)
(0.0720796 0.10803 0)
(0.0532475 0.108341 0)
(0.038067 0.108172 0)
(0.0270408 0.107433 0)
(0.0206567 0.105933 0)
(0.0193482 0.10335 0)
(0.0236292 0.0992163 0)
(0.0339518 0.0928512 0)
(0.0510058 0.0834055 0)
(0.075329 0.0695978 0)
(0.107915 0.0500786 0)
(0.149319 0.0224876 0)
(0.200913 -0.0151642 0)
(0.262957 -0.0672463 0)
(0.337048 -0.136615 0)
(0.42239 -0.231235 0)
(0.519997 -0.3554 0)
(0.625686 -0.522959 0)
(0.737051 -0.74041 0)
(0.84001 -1.02872 0)
(0.922395 -1.39183 0)
(0.949632 -1.84943 0)
(0.000136996 -0.00329441 0)
(0.00335392 -0.0100922 0)
(0.0102795 -0.0168367 0)
(0.0210833 -0.02277 0)
(0.0353346 -0.0269865 0)
(0.0525563 -0.0291844 0)
(0.0723135 -0.0294623 0)
(0.0940966 -0.0279924 0)
(0.117357 -0.0249657 0)
(0.141468 -0.0205343 0)
(0.165608 -0.0148124 0)
(0.188819 -0.00798749 0)
(0.210205 -0.000377807 0)
(0.229117 0.00768 0)
(0.245143 0.016012 0)
(0.257936 0.0246897 0)
(0.267035 0.0339366 0)
(0.271801 0.0439085 0)
(0.27155 0.0545138 0)
(0.265788 0.0653526 0)
(0.25442 0.075824 0)
(0.237856 0.0853045 0)
(0.216966 0.0933269 0)
(0.192935 0.0996699 0)
(0.167077 0.10436 0)
(0.140667 0.107593 0)
(0.114855 0.109647 0)
(0.0906152 0.110785 0)
(0.0687575 0.11121 0)
(0.0499569 0.111036 0)
(0.0347892 0.110279 0)
(0.0237431 0.108858 0)
(0.0172893 0.106579 0)
(0.0158418 0.103118 0)
(0.0198895 0.0979991 0)
(0.0298579 0.0905257 0)
(0.0463929 0.079834 0)
(0.0699911 0.0646189 0)
(0.101559 0.0435027 0)
(0.141584 0.0141328 0)
(0.191265 -0.0255545 0)
(0.250745 -0.0797914 0)
(0.321302 -0.151622 0)
(0.40191 -0.248541 0)
(0.493063 -0.375151 0)
(0.590163 -0.544116 0)
(0.69021 -0.761936 0)
(0.778982 -1.04711 0)
(0.844692 -1.40249 0)
(0.855157 -1.84456 0)
(0.000135764 -0.00347412 0)
(0.00336844 -0.01067 0)
(0.0103253 -0.0178208 0)
(0.0211899 -0.0241769 0)
(0.0355237 -0.0288008 0)
(0.0528139 -0.0313484 0)
(0.0726133 -0.0319168 0)
(0.0944122 -0.0306881 0)
(0.117653 -0.0278397 0)
(0.141696 -0.0234991 0)
(0.165717 -0.017758 0)
(0.188761 -0.0107968 0)
(0.209946 -0.00294912 0)
(0.228639 0.00542209 0)
(0.244435 0.0141269 0)
(0.256985 0.0232437 0)
(0.265813 0.0330184 0)
(0.270271 0.0436247 0)
(0.269679 0.0549642 0)
(0.263558 0.0665981 0)
(0.251841 0.0778619 0)
(0.234968 0.0880618 0)
(0.213829 0.0966703 0)
(0.189618 0.103428 0)
(0.163642 0.108348 0)
(0.137164 0.111631 0)
(0.111315 0.113571 0)
(0.0870507 0.114451 0)
(0.0651647 0.114492 0)
(0.0463156 0.113821 0)
(0.0310627 0.112465 0)
(0.0198767 0.110349 0)
(0.0132067 0.107281 0)
(0.011443 0.102933 0)
(0.0150434 0.0968229 0)
(0.0244017 0.0882391 0)
(0.0401126 0.0763027 0)
(0.0626259 0.0596918 0)
(0.0927541 0.0369991 0)
(0.13091 0.00589037 0)
(0.178118 -0.0357665 0)
(0.234394 -0.0920617 0)
(0.300716 -0.166185 0)
(0.375835 -0.265191 0)
(0.459768 -0.393863 0)
(0.54759 -0.563788 0)
(0.635816 -0.781276 0)
(0.710322 -1.06262 0)
(0.759801 -1.40971 0)
(0.754477 -1.83628 0)
(0.000134769 -0.00365938 0)
(0.00338381 -0.0112682 0)
(0.0103712 -0.0188425 0)
(0.021293 -0.0256341 0)
(0.0357065 -0.0306782 0)
(0.0530631 -0.0335861 0)
(0.0729022 -0.0344506 0)
(0.0947147 -0.0334658 0)
(0.117935 -0.0307962 0)
(0.14191 -0.0265431 0)
(0.165813 -0.0207756 0)
(0.18869 -0.0136685 0)
(0.209677 -0.00557171 0)
(0.228152 0.00312487 0)
(0.24372 0.0122162 0)
(0.256027 0.0217889 0)
(0.264585 0.0321125 0)
(0.268736 0.0433784 0)
(0.267802 0.0554791 0)
(0.261322 0.0679338 0)
(0.249257 0.0800115 0)
(0.232073 0.0909461 0)
(0.210682 0.10015 0)
(0.186285 0.107326 0)
(0.160183 0.112474 0)
(0.133625 0.115803 0)
(0.107724 0.117623 0)
(0.083415 0.118236 0)
(0.0614755 0.117883 0)
(0.0425458 0.116707 0)
(0.0271668 0.114743 0)
(0.0157891 0.111924 0)
(0.00883749 0.10806 0)
(0.00667571 0.10282 0)
(0.00972676 0.0957187 0)
(0.0183495 0.0860293 0)
(0.0330833 0.0728586 0)
(0.054326 0.0548738 0)
(0.082793 0.0306383 0)
(0.118814 -0.0021548 0)
(0.163243 -0.0456967 0)
(0.21596 -0.103934 0)
(0.277655 -0.18016 0)
(0.346857 -0.281016 0)
(0.423155 -0.411353 0)
(0.501354 -0.581778 0)
(0.577583 -0.798274 0)
(0.637952 -1.07517 0)
(0.671717 -1.4135 0)
(0.65136 -1.82467 0)
(0.000133993 -0.00385049 0)
(0.00339987 -0.0118875 0)
(0.0104169 -0.019903 0)
(0.0213924 -0.0271434 0)
(0.035882 -0.0326204 0)
(0.0533029 -0.0358993 0)
(0.073179 -0.037066 0)
(0.0950024 -0.036328 0)
(0.1182 -0.0338374 0)
(0.142108 -0.0296685 0)
(0.165892 -0.0238672 0)
(0.188606 -0.0166039 0)
(0.209396 -0.00824658 0)
(0.227656 0.00078777 0)
(0.242998 0.0102797 0)
(0.255064 0.0203259 0)
(0.263352 0.0312205 0)
(0.267197 0.0431722 0)
(0.265924 0.0560619 0)
(0.259087 0.0693637 0)