/*--------------------------------*- C++ -*----------------------------------*\
  =========                 |
  \\      /  F ield         | OpenFOAM: The Open Source CFD Toolbox
   \\    /   O peration     | Website:  https://openfoam.org
    \\  /    A nd           | Version:  7
     \\/     M anipulation  |
\*---------------------------------------------------------------------------*/
FoamFile
{
    version     2.0;
    format      ascii;
    class       surfaceScalarField;
    location    "0.11";
    object      ddtCorrDdt0(phi);
}
// * * * * * * * * * * * * * * * * * * * * * * * * * * * * * * * * * * * * * //

dimensions      [0 3 -2 0 0 0 0];

internalField   nonuniform List<scalar> 
139350
(
5.58862e-10
-5.59055e-10
1.49054e-09
-9.32114e-10
2.49883e-09
-1.00875e-09
3.37188e-09
-8.73467e-10
4.04e-09
-6.68498e-10
4.47268e-09
-4.33129e-10
4.66337e-09
-1.91098e-10
4.6349e-09
2.79413e-11
4.42984e-09
2.04548e-10
4.10034e-09
3.28867e-10
3.70334e-09
3.96363e-10
3.29022e-09
4.12427e-10
2.90186e-09
3.8769e-10
2.56498e-09
3.36213e-10
2.29343e-09
2.71032e-10
2.09025e-09
2.02457e-10
1.95339e-09
1.36656e-10
1.87829e-09
7.40804e-11
1.86204e-09
1.61288e-11
1.90031e-09
-3.93423e-11
1.99234e-09
-9.24529e-11
2.1364e-09
-1.44684e-10
2.33204e-09
-1.96169e-10
2.58015e-09
-2.48607e-10
2.88325e-09
-3.03316e-10
3.24658e-09
-3.64311e-10
3.67999e-09
-4.33581e-10
4.19666e-09
-5.17838e-10
4.81706e-09
-6.2099e-10
5.56731e-09
-7.51005e-10
6.4825e-09
-9.15977e-10
7.60835e-09
-1.12655e-09
9.00085e-09
-1.39303e-09
1.07326e-08
-1.73316e-09
1.28934e-08
-2.16129e-09
1.56018e-08
-2.71e-09
1.89902e-08
-3.38918e-09
2.32607e-08
-4.27146e-09
2.85928e-08
-5.33299e-09
3.53482e-08
-6.75548e-09
4.37412e-08
-8.3936e-09
5.44398e-08
-1.06983e-08
6.76413e-08
-1.32018e-08
8.45691e-08
-1.69274e-08
1.05321e-07
-2.07527e-08
1.32133e-07
-2.68128e-08
1.64568e-07
-3.24373e-08
2.08864e-07
-4.42987e-08
2.50051e-07
-4.119e-08
-2.14326e-07
4.64375e-07
8.19897e-10
-1.37919e-09
2.76538e-09
-2.87807e-09
5.13016e-09
-3.37402e-09
7.14196e-09
-2.88572e-09
8.48701e-09
-2.01397e-09
9.06481e-09
-1.0114e-09
8.84213e-09
3.11322e-11
7.87706e-09
9.92427e-10
6.30754e-09
1.77351e-09
4.31103e-09
2.32469e-09
2.07296e-09
2.63374e-09
-2.44162e-10
2.72879e-09
-2.51801e-09
2.66081e-09
-4.67253e-09
2.49001e-09
-6.67098e-09
2.26895e-09
-8.50558e-09
2.03625e-09
-1.01849e-08
1.81579e-09
-1.1726e-08
1.61402e-09
-1.31471e-08
1.4371e-09
-1.44702e-08
1.28258e-09
-1.57146e-08
1.15149e-09
-1.69012e-08
1.04132e-09
-1.80492e-08
9.51291e-10
-1.91745e-08
8.76084e-10
-2.02885e-08
8.10448e-10
-2.13958e-08
7.4189e-10
-2.24915e-08
6.6191e-10
-2.35611e-08
5.50606e-10
-2.4577e-08
3.94251e-10
-2.54969e-08
1.68101e-10
-2.62625e-08
-1.51269e-10
-2.67901e-08
-5.99715e-10
-2.69776e-08
-1.20605e-09
-2.66811e-08
-2.03123e-09
-2.57272e-08
-3.1157e-09
-2.3871e-08
-4.56798e-09
-2.08325e-08
-6.42857e-09
-1.61936e-08
-8.91128e-09
-9.5182e-09
-1.20093e-08
-7.39917e-11
-1.61998e-08
1.27693e-08
-2.12375e-08
3.03903e-08
-2.83188e-08
5.34919e-08
-3.63038e-08
8.49781e-08
-4.84132e-08
1.24848e-07
-6.06233e-08
1.80271e-07
-8.22364e-08
2.46583e-07
-9.87522e-08
3.47799e-07
-1.45518e-07
4.52887e-07
-1.46281e-07
-4.19105e-07
6.57665e-07
6.48551e-10
-2.02801e-09
2.797e-09
-5.02702e-09
5.87453e-09
-6.45207e-09
8.77031e-09
-5.78199e-09
1.07354e-08
-3.97952e-09
1.14485e-08
-1.72497e-09
1.0788e-08
6.91077e-10
8.79551e-09
2.98434e-09
5.66337e-09
4.90504e-09
1.67686e-09
6.31046e-09
-2.84969e-09
7.15954e-09
-7.63125e-09
7.50954e-09
-1.24472e-08
7.47598e-09
-1.71531e-08
7.19521e-09
-2.16712e-08
6.7864e-09
-2.59724e-08
6.33667e-09
-3.00589e-08
5.90205e-09
-3.39517e-08
5.5056e-09
-3.76812e-08
5.16649e-09
-4.12884e-08
4.88859e-09
-4.48166e-08
4.67912e-09
-4.83139e-08
4.53791e-09
-5.18279e-08
4.46472e-09
-5.54026e-08
4.45022e-09
-5.90758e-08
4.48345e-09
-6.28758e-08
4.54073e-09
-6.68181e-08
4.60396e-09
-7.09051e-08
4.63628e-09
-7.51228e-08
4.61121e-09
-7.94378e-08
4.48226e-09
-8.37986e-08
4.20866e-09
-8.81201e-08
3.72093e-09
-9.22979e-08
2.97122e-09
-9.61701e-08
1.83938e-09
-9.95446e-08
2.58174e-10
-1.02132e-07
-1.98277e-09
-1.03596e-07
-4.96522e-09
-1.03434e-07
-9.07415e-09
-1.01077e-07
-1.4367e-08
-9.56373e-08
-2.164e-08
-8.6228e-08
-3.06473e-08
-7.11137e-08
-4.34327e-08
-4.92888e-08
-5.81291e-08
-1.67369e-08
-8.09646e-08
2.62127e-08
-1.03574e-07
9.05914e-08
-1.46616e-07
1.68194e-07
-1.76359e-07
2.94274e-07
-2.716e-07
4.3895e-07
-2.9096e-07
-6.45338e-07
6.65181e-07
4.09468e-10
-2.43777e-09
2.23222e-09
-6.8503e-09
5.34955e-09
-9.56995e-09
8.78018e-09
-9.21313e-09
1.14693e-08
-6.66914e-09
1.27377e-08
-2.99383e-09
1.22284e-08
1.19982e-09
9.85101e-09
5.36108e-09
5.75278e-09
9.00264e-09
2.5106e-10
1.18114e-08
-6.25403e-09
1.36639e-08
-1.3367e-08
1.46217e-08
-2.07579e-08
1.48661e-08
-2.81895e-08
1.4626e-08
-3.55123e-08
1.41086e-08
-4.26457e-08
1.34692e-08
-4.95563e-08
1.28124e-08
-5.62445e-08
1.21925e-08
-6.27331e-08
1.16549e-08
-6.90679e-08
1.12222e-08
-7.53076e-08
1.09182e-08
-8.15238e-08
1.07535e-08
-8.77931e-08
1.07334e-08
-9.41909e-08
1.08474e-08
-1.00787e-07
1.1079e-08
-1.0764e-07
1.13925e-08
-1.14794e-07
1.17583e-08
-1.2228e-07
1.21202e-08
-1.30106e-07
1.24373e-08
-1.38264e-07
1.26387e-08
-1.46722e-07
1.2666e-08
-1.55414e-07
1.24124e-08
-1.64256e-07
1.1812e-08
-1.73098e-07
1.068e-08
-1.81762e-07
8.92163e-09
-1.89966e-07
6.21929e-09
-1.97369e-07
2.43705e-09
-2.03466e-07
-2.97805e-09
-2.07643e-07
-1.01915e-08
-2.08979e-07
-2.0304e-08
-2.06486e-07
-3.31404e-08
-1.98279e-07
-5.16396e-08
-1.83239e-07
-7.31693e-08
-1.56795e-07
-1.07408e-07
-1.19347e-07
-1.41023e-07
-5.834e-08
-2.07624e-07
1.82862e-08
-2.52989e-07
1.45261e-07
-3.98578e-07
3.09802e-07
-4.55504e-07
-8.76934e-07
5.41396e-07
2.79614e-10
-2.71769e-09
1.63869e-09
-8.20992e-09
4.33695e-09
-1.22688e-08
7.82885e-09
-1.27056e-08
1.1112e-08
-9.95277e-09
1.32684e-08
-5.1508e-09
1.36428e-08
8.24956e-10
1.18846e-08
7.11857e-09
7.95352e-09
1.29331e-08
2.06571e-09
1.76984e-08
-5.39707e-09
2.11258e-08
-1.39933e-08
2.32171e-08
-2.33094e-08
2.41814e-08
-3.30124e-08
2.43281e-08
-4.28606e-08
2.39563e-08
-5.26918e-08
2.32994e-08
-6.24022e-08
2.25226e-08
-7.19354e-08
2.17244e-08
-8.12711e-08
2.09905e-08
-9.04285e-08
2.03783e-08
-9.94556e-08
1.99448e-08
-1.08429e-07
1.97259e-08
-1.1744e-07
1.97446e-08
-1.26591e-07
1.99972e-08
-1.35979e-07
2.04665e-08
-1.45694e-07
2.11068e-08
-1.55813e-07
2.18769e-08
-1.66395e-07
2.27007e-08
-1.7748e-07
2.35212e-08
-1.89084e-07
2.42417e-08
-2.01204e-07
2.47855e-08
-2.138e-07
2.50073e-08
-2.26811e-07
2.48224e-08
-2.40115e-07
2.3983e-08
-2.53556e-07
2.2362e-08
-2.66883e-07
1.9544e-08
-2.79767e-07
1.53203e-08
-2.91741e-07
8.99435e-09
-3.02184e-07
2.51267e-10
-3.1021e-07
-1.22784e-08
-3.14804e-07
-2.85467e-08
-3.14078e-07
-5.2365e-08
-3.06826e-07
-8.04225e-08
-2.88487e-07
-1.25747e-07
-2.58923e-07
-1.70588e-07
-2.0647e-07
-2.60077e-07
-1.3506e-07
-3.24402e-07
-1.87814e-08
-5.1486e-07
1.52178e-07
-6.26466e-07
-1.10001e-06
3.75256e-07
2.62216e-10
-2.98023e-09
1.2892e-09
-9.23748e-09
3.45417e-09
-1.44343e-08
6.64529e-09
-1.58972e-08
1.01829e-08
-1.34909e-08
1.31871e-08
-8.15559e-09
1.48394e-08
-8.27893e-10
1.45282e-08
7.42913e-09
1.19342e-08
1.55263e-08
7.03667e-09
2.25951e-08
5.68959e-11
2.81048e-08
-8.63679e-09
3.19098e-08
-1.86293e-08
3.41731e-08
-2.95367e-08
3.52347e-08
-4.10415e-08
3.54604e-08
-5.28957e-08
3.51527e-08
-6.49073e-08
3.4534e-08
-7.6933e-08
3.37488e-08
-8.88717e-08
3.2929e-08
-1.00674e-07
3.2179e-08
-1.12335e-07
3.16058e-08
-1.23901e-07
3.12912e-08
-1.35452e-07
3.12943e-08
-1.4709e-07
3.1635e-08
-1.58931e-07
3.23069e-08
-1.71087e-07
3.32619e-08
-1.83662e-07
3.44512e-08
-1.96743e-07
3.57807e-08
-2.104e-07
3.71769e-08
-2.24676e-07
3.85167e-08
-2.39595e-07
3.97036e-08
-2.55143e-07
4.05544e-08
-2.71282e-07
4.09611e-08
-2.8792e-07
4.06192e-08
-3.04918e-07
3.93594e-08
-3.22061e-07
3.66852e-08
-3.39035e-07
3.22933e-08
-3.55417e-07
2.53748e-08
-3.70596e-07
1.54301e-08
-3.83739e-07
8.64438e-10
-3.93825e-07
-1.84611e-08
-3.9907e-07
-4.71204e-08
-3.98094e-07
-8.13979e-08
-3.86821e-07
-1.3702e-07
-3.63978e-07
-1.93432e-07
-3.20416e-07
-3.03639e-07
-2.54227e-07
-3.90595e-07
-1.50674e-07
-6.18416e-07
1.76871e-08
-7.94829e-07
-1.31228e-06
2.29957e-07
2.93433e-10
-3.274e-09
1.1861e-09
-1.01307e-08
2.96149e-09
-1.62103e-08
5.74681e-09
-1.86831e-08
9.22657e-09
-1.69711e-08
1.27686e-08
-1.16982e-08
1.56151e-08
-3.67497e-09
1.70426e-08
6.00096e-09
1.65004e-08
1.60678e-08
1.36868e-08
2.54079e-08
8.55924e-09
3.32315e-08
1.2867e-09
3.91815e-08
-7.83176e-09
4.32907e-08
-1.84536e-08
4.58556e-08
-3.02504e-08
4.72566e-08
-4.29306e-08
4.78319e-08
-5.62359e-08
4.78391e-08
-6.99391e-08
4.74507e-08
-8.38423e-08
4.68319e-08
-9.77949e-08
4.61303e-08
-1.11699e-07
4.55098e-08
-1.25523e-07
4.51144e-08
-1.39291e-07
4.50616e-08
-1.53075e-07
4.54178e-08
-1.66975e-07
4.62073e-08
-1.8111e-07
4.73955e-08
-1.95595e-07
4.8936e-08
-2.10539e-07
5.07234e-08
-2.26034e-07
5.26709e-08
-2.42149e-07
5.46304e-08
-2.58931e-07
5.64844e-08
-2.7639e-07
5.80131e-08
-2.9451e-07
5.90797e-08
-3.13222e-07
5.93297e-08
-3.32403e-07
5.85394e-08
-3.51867e-07
5.61483e-08
-3.71314e-07
5.17388e-08
-3.90356e-07
4.44162e-08
-4.08398e-07
3.34712e-08
-4.2466e-07
1.71262e-08
-4.38111e-07
-5.01103e-09
-4.47129e-07
-3.81015e-08
-4.50103e-07
-7.8424e-08
-4.43662e-07
-1.4346e-07
-4.25226e-07
-2.1187e-07
-3.8852e-07
-3.40346e-07
-3.26373e-07
-4.52746e-07
-2.32967e-07
-7.11825e-07
-7.2631e-08
-9.55167e-07
-1.51362e-06
1.28699e-07
3.26275e-10
-3.60062e-09
1.2186e-09
-1.10236e-08
2.81923e-09
-1.78115e-08
5.3035e-09
-2.11679e-08
8.59596e-09
-2.02641e-08
1.23484e-08
-1.54512e-08
1.60161e-08
-7.34326e-09
1.89507e-08
3.0656e-09
2.05245e-08
1.44933e-08
2.02375e-08
2.56941e-08
1.77864e-08
3.56817e-08
1.30824e-08
4.38846e-08
6.21628e-09
5.01559e-08
-2.6096e-09
5.46806e-08
-1.3147e-08
5.77934e-08
-2.51394e-08
5.98233e-08
-3.83277e-08
6.10272e-08
-5.24505e-08
6.15721e-08
-6.72411e-08
6.16223e-08
-8.24526e-08
6.13405e-08
-9.78751e-08
6.09316e-08
-1.13364e-07
6.06022e-08
-1.28845e-07
6.05423e-08
-1.44315e-07
6.08868e-08
-1.59824e-07
6.17159e-08
-1.7546e-07
6.30308e-08
-1.9133e-07
6.48055e-08
-2.07545e-07
6.69368e-08
-2.24207e-07
6.9332e-08
-2.41402e-07
7.18248e-08
-2.59195e-07
7.42769e-08
-2.77619e-07
7.6436e-08
-2.9667e-07
7.81303e-08
-3.16305e-07
7.89625e-08
-3.3641e-07
7.86437e-08
-3.56825e-07
7.65615e-08
-3.77259e-07
7.21715e-08
-3.97353e-07
6.45094e-08
-4.16527e-07
5.26446e-08
-4.34051e-07
3.46499e-08
-4.48886e-07
9.82348e-09
-4.59584e-07
-2.74027e-08
-4.64328e-07
-7.36806e-08
-4.6043e-07
-1.47357e-07
-4.44263e-07
-2.28038e-07
-4.119e-07
-3.72709e-07
-3.5276e-07
-5.11889e-07
-2.66434e-07
-7.98154e-07
-1.16723e-07
-1.10488e-06
-1.70215e-06
7.18075e-08
3.45883e-10
-3.94686e-09
1.28754e-09
-1.19659e-08
2.87358e-09
-1.93982e-08
5.23336e-09
-2.35283e-08
8.37691e-09
-2.34082e-08
1.21552e-08
-1.92302e-08
1.62545e-08
-1.14431e-08
2.02103e-08
-8.90904e-10
2.3472e-08
1.12309e-08
2.54895e-08
2.36757e-08
2.58016e-08
3.53687e-08
2.41023e-08
4.5583e-08
2.02608e-08
5.39966e-08
1.42893e-08
6.06512e-08
6.28846e-09
6.57937e-08
-3.59649e-09
6.97072e-08
-1.51859e-08
7.26164e-08
-2.82629e-08
7.46477e-08
-4.25619e-08
7.5921e-08
-5.77897e-08
7.65671e-08
-7.36494e-08
7.67906e-08
-8.98829e-08
7.6835e-08
-1.06298e-07
7.69565e-08
-1.22781e-07
7.73692e-08
-1.39294e-07
7.82291e-08
-1.55863e-07
7.95979e-08
-1.7255e-07
8.1492e-08
-1.89444e-07
8.383e-08
-2.0664e-07
8.6527e-08
-2.24225e-07
8.94091e-08
-2.42272e-07
9.23224e-08
-2.60826e-07
9.4989e-08
-2.79895e-07
9.71993e-08
-2.99454e-07
9.85195e-08
-3.194e-07
9.85891e-08
-3.39591e-07
9.67509e-08
-3.59751e-07
9.23298e-08
-3.79539e-07
8.42972e-08
-3.98401e-07
7.15056e-08
-4.15645e-07
5.18935e-08
-4.3025e-07
2.44282e-08
-4.40914e-07
-1.67386e-08
-4.45716e-07
-6.88788e-08
-4.42504e-07
-1.50568e-07
-4.27052e-07
-2.43492e-07
-3.97035e-07
-4.02726e-07
-3.40326e-07
-5.68601e-07
-2.59287e-07
-8.79196e-07
-1.21585e-07
-1.24258e-06
-1.87518e-06
5.14444e-08
3.56034e-10
-4.30326e-09
1.35043e-09
-1.29609e-08
2.99384e-09
-2.10422e-08
5.36537e-09
-2.59004e-08
8.47015e-09
-2.65135e-08
1.22435e-08
-2.30041e-08
1.65302e-08
-1.57304e-08
2.105e-08
-5.41148e-09
2.54051e-08
6.87506e-09
2.91179e-08
1.9962e-08
3.17e-08
3.27857e-08
3.27341e-08
4.45479e-08
3.19319e-08
5.47978e-08
2.91389e-08
6.34434e-08
2.42991e-08
7.06328e-08
1.74149e-08
7.65904e-08
8.53496e-09
8.14961e-08
-2.23665e-09
8.54179e-08
-1.47134e-08
8.83975e-08
-2.86327e-08
9.04851e-08
-4.36726e-08
9.18299e-08
-5.9503e-08
9.26647e-08
-7.58281e-08
9.3281e-08
-9.24211e-08
9.39616e-08
-1.09137e-07
9.49447e-08
-1.2591e-07
9.63696e-08
-1.42734e-07
9.83158e-08
-1.5965e-07
1.00744e-07
-1.76719e-07
1.03595e-07
-1.94012e-07
1.06701e-07
-2.11593e-07
1.09903e-07
-2.29511e-07
1.12906e-07
-2.47779e-07
1.15466e-07
-2.66379e-07
1.17119e-07
-2.85222e-07
1.17431e-07
-3.04178e-07
1.15705e-07
-3.2299e-07
1.1114e-07
-3.41333e-07
1.0264e-07
-3.58688e-07
8.88595e-08
-3.74395e-07
6.76006e-08
-3.87486e-07
3.7519e-08
-3.96773e-07
-7.4516e-09
-4.00349e-07
-6.53021e-08
-3.96457e-07
-1.54459e-07
-3.80679e-07
-2.59271e-07
-3.51726e-07
-4.31679e-07
-2.97302e-07
-6.23029e-07
-2.21044e-07
-9.55456e-07
-9.65079e-08
-1.36712e-06
-2.02992e-06
5.82332e-08
3.63669e-10
-4.6673e-09
1.4025e-09
-1.40004e-08
3.12038e-09
-2.27607e-08
5.57088e-09
-2.83515e-08
8.73081e-09
-2.9674e-08
1.25458e-08
-2.68197e-08
1.69315e-08
-2.01167e-08
2.17297e-08
-1.02104e-08
2.66843e-08
1.91967e-09
3.14374e-08
1.5208e-08
3.55637e-08
2.86586e-08
3.86398e-08
4.14707e-08
4.03151e-08
5.31217e-08
4.03402e-08
6.34173e-08
3.85502e-08
7.24222e-08
3.48277e-08
8.03119e-08
2.90909e-08
8.72326e-08
2.13074e-08
9.32001e-08
1.15372e-08
9.81675e-08
-5.16874e-11
1.02073e-07
-1.31829e-08
1.0496e-07
-2.75164e-08
1.06998e-07
-4.27003e-08
1.08464e-07
-5.84213e-08
1.09682e-07
-7.4436e-08
1.10959e-07
-9.05844e-08
1.12517e-07
-1.06778e-07
1.14509e-07
-1.2299e-07
1.16956e-07
-1.39234e-07
1.19837e-07
-1.55544e-07
1.23011e-07
-1.71961e-07
1.2632e-07
-1.88523e-07
1.29467e-07
-2.05236e-07
1.32178e-07
-2.22086e-07
1.33967e-07
-2.3899e-07
1.34335e-07
-2.55828e-07
1.32542e-07
-2.72365e-07
1.27675e-07
-2.8829e-07
1.18564e-07
-3.0313e-07
1.03699e-07
-3.16258e-07
8.07281e-08
-3.26786e-07
4.80469e-08
-3.33627e-07
-6.09682e-10
-3.34981e-07
-6.39485e-08
-3.29401e-07
-1.60038e-07
-3.12574e-07
-2.76098e-07
-2.83912e-07
-4.60342e-07
-2.31867e-07
-6.75076e-07
-1.60609e-07
-1.02672e-06
-5.02278e-08
-1.4775e-06
-2.16395e-06
8.38085e-08
3.72065e-10
-5.03974e-09
1.45072e-09
-1.50797e-08
3.24039e-09
-2.45511e-08
5.79011e-09
-3.09018e-08
9.05547e-09
-3.29399e-08
1.29659e-08
-3.07308e-08
1.74518e-08
-2.46031e-08
2.24086e-08
-1.5168e-08
2.76693e-08
-3.34185e-09
3.29793e-08
9.89713e-09
3.80007e-08
2.36362e-08
4.23633e-08
3.71072e-08
4.57288e-08
4.97553e-08
4.78295e-08
6.13157e-08
4.84591e-08
7.17919e-08
4.74371e-08
8.13329e-08
4.45941e-08
9.00753e-08
3.97857e-08
9.80071e-08
3.2946e-08
1.05007e-07
2.41241e-08
1.10893e-07
1.3507e-08
1.15577e-07
1.39011e-09
1.19114e-07
-1.18717e-08
1.21725e-07
-2.59231e-08
1.23732e-07
-4.04537e-08
1.2549e-07
-5.52263e-08
1.27288e-07
-7.0076e-08
1.29358e-07
-8.4909e-08
1.31787e-07
-9.96791e-08
1.34607e-07
-1.14377e-07
1.37708e-07
-1.29008e-07
1.4095e-07
-1.43586e-07
1.44044e-07
-1.58103e-07
1.46693e-07
-1.72537e-07
1.484e-07
-1.86808e-07
1.48605e-07
-2.00801e-07
1.46532e-07
-2.14301e-07
1.41174e-07
-2.27012e-07
1.31274e-07
-2.38514e-07
1.152e-07
-2.48215e-07
9.04292e-08
-2.55327e-07
5.5158e-08
-2.58868e-07
2.93249e-09
-2.57195e-07
-6.56217e-08
-2.49147e-07
-1.68085e-07
-2.30706e-07
-2.94539e-07
-2.01804e-07
-4.89243e-07
-1.52239e-07
-7.24644e-07
-8.63626e-08
-1.09259e-06
9.35994e-09
-1.57323e-06
-2.27581e-06
1.21213e-07
3.81576e-10
-5.42171e-09
1.50023e-09
-1.6199e-08
3.35853e-09
-2.641e-08
6.00934e-09
-3.35532e-08
9.39796e-09
-3.63291e-08
1.34363e-08
-3.47698e-08
1.80476e-08
-2.9215e-08
2.31396e-08
-2.02608e-08
2.85831e-08
-8.78618e-09
3.41834e-08
4.29596e-09
3.96715e-08
1.81472e-08
4.47377e-08
3.204e-08
4.90901e-08
4.5402e-08
5.24874e-08
5.79174e-08
5.4733e-08
6.95457e-08
5.56408e-08
8.04241e-08
5.50093e-08
9.07065e-08
5.26317e-08
1.00383e-07
4.83534e-08
1.09285e-07
4.21225e-08
1.17123e-07
3.40317e-08
1.23667e-07
2.43077e-08
1.28837e-07
1.32719e-08
1.32761e-07
1.28226e-09
1.35721e-07
-1.13201e-08
1.38092e-07
-2.42494e-08
1.40216e-07
-3.72844e-08
1.42393e-07
-5.02747e-08
1.44777e-07
-6.31215e-08
1.47452e-07
-7.57692e-08
1.50355e-07
-8.81848e-08
1.53365e-07
-1.00351e-07
1.56209e-07
-1.12238e-07
1.58579e-07
-1.2381e-07
1.59971e-07
-1.34984e-07
1.59778e-07
-1.45642e-07
1.57189e-07
-1.55589e-07
1.51121e-07
-1.64544e-07
1.40228e-07
-1.72137e-07
1.22792e-07
-1.77818e-07
9.61107e-08
-1.809e-07
5.82391e-08
-1.80522e-07
2.55531e-09
-1.75217e-07
-7.09257e-08
-1.64106e-07
-1.79196e-07
-1.43585e-07
-3.15061e-07
-1.14002e-07
-5.18826e-07
-6.6838e-08
-7.7181e-07
-6.52084e-09
-1.15291e-06
7.48087e-08
-1.65456e-06
-2.36535e-06
1.64349e-07
3.91748e-10
-5.81385e-09
1.55254e-09
-1.73604e-08
3.47979e-09
-2.83379e-08
6.23136e-09
-3.63054e-08
9.74773e-09
-3.9846e-08
1.39277e-08
-3.89504e-08
1.86839e-08
-3.39718e-08
2.39203e-08
-2.5498e-08
2.95158e-08
-1.43824e-08
3.5299e-08
-1.48818e-09
4.10369e-08
1.24083e-08
4.64622e-08
2.66137e-08
5.13233e-08
4.05399e-08
5.54191e-08
5.38208e-08
5.85879e-08
6.63761e-08
6.06664e-08
7.83446e-08
6.14611e-08
8.99115e-08
6.07502e-08
1.01093e-07
5.83379e-08
1.11697e-07
5.41113e-08
1.21349e-07
4.80943e-08
1.29683e-07
4.0452e-08
1.36479e-07
3.14632e-08
1.41749e-07
2.14673e-08
1.45716e-07
1.08104e-08
1.48748e-07
-1.99352e-10
1.51224e-07
-1.1307e-08
1.535e-07
-2.23232e-08
1.55791e-07
-3.31082e-08
1.58237e-07
-4.35677e-08
1.60813e-07
-5.36328e-08
1.63429e-07
-6.32553e-08
1.6583e-07
-7.23806e-08
1.67704e-07
-8.09548e-08
1.68543e-07
-8.88856e-08
1.67708e-07
-9.60499e-08
1.64351e-07
-1.02267e-07
1.57338e-07
-1.07266e-07
1.45226e-07
-1.10722e-07
1.26247e-07
-1.12133e-07
9.75221e-08
-1.10901e-07
5.70068e-08
-1.06297e-07
-2.04788e-09
-9.70326e-08
-8.01895e-08
-8.24967e-08
-1.93731e-07
-5.95696e-08
-3.37988e-07
-2.8938e-08
-5.49457e-07
1.60987e-08
-8.16849e-07
7.10402e-08
-1.20786e-06
1.39054e-07
-1.72257e-06
-2.4339e-06
2.07608e-07
4.0231e-10
-6.21656e-09
1.60666e-09
-1.85654e-08
3.60608e-09
-3.0338e-08
6.46008e-09
-3.916e-08
1.01065e-08
-4.3493e-08
1.44336e-08
-4.32782e-08
1.9345e-08
-3.88839e-08
2.4738e-08
-3.08919e-08
3.04878e-08
-2.0133e-08
3.64263e-08
-7.42759e-09
4.2332e-08
6.50167e-09
4.79567e-08
2.0988e-08
5.30743e-08
3.54214e-08
5.75123e-08
4.93819e-08
6.11401e-08
6.27475e-08
6.38251e-08
7.56587e-08
6.53976e-08
8.83386e-08
6.56471e-08
1.00842e-07
6.43726e-08
1.12971e-07
6.14389e-08
1.24281e-07
5.68361e-08
1.34285e-07
5.06925e-08
1.42622e-07
4.32554e-08
1.49185e-07
3.48447e-08
1.54127e-07
2.58007e-08
1.57792e-07
1.64386e-08
1.60585e-07
7.03029e-09
1.62908e-07
-2.21115e-09
1.65032e-07
-1.11189e-08
1.67143e-07
-1.95699e-08
1.69263e-07
-2.74659e-08
1.71324e-07
-3.47317e-08
1.73095e-07
-4.12895e-08
1.74261e-07
-4.7065e-08
1.74317e-07
-5.19551e-08
1.72597e-07
-5.58272e-08
1.68222e-07
-5.85091e-08
1.60019e-07
-5.97375e-08
1.46454e-07
-5.92213e-08
1.2573e-07
-5.6508e-08
9.4809e-08
-5.10715e-08
5.15703e-08
-4.23143e-08
-1.08041e-08
-2.91145e-08
-9.33888e-08
-1.11058e-08
-2.11738e-07
1.43251e-08
-3.63419e-07
4.6219e-08
-5.8135e-07
8.94946e-08
-8.60126e-07
1.39552e-07
-1.25791e-06
1.9593e-07
-1.77895e-06
-2.48399e-06
2.46017e-07
4.13241e-10
-6.63021e-09
1.66256e-09
-1.98154e-08
3.73766e-09
-3.24138e-08
6.69719e-09
-4.21202e-08
1.04769e-08
-4.72733e-08
1.49551e-08
-4.7757e-08
2.00275e-08
-4.39569e-08
2.55854e-08
-3.64506e-08
3.14976e-08
-2.6046e-08
3.75914e-08
-1.35224e-08
4.36448e-08
4.47409e-10
4.94134e-08
1.52183e-08
5.46814e-08
3.01525e-08
5.92911e-08
4.47713e-08
6.3131e-08
5.8907e-08
6.60894e-08
7.26993e-08
6.80177e-08
8.641e-08
6.87229e-08
1.00136e-07
6.8015e-08
1.13678e-07
6.57612e-08
1.26534e-07
6.19456e-08
1.381e-07
5.66848e-08
1.47882e-07
5.02137e-08
1.55656e-07
4.28424e-08
1.61497e-07
3.49071e-08
1.65727e-07
2.67256e-08
1.68766e-07
1.85782e-08
1.71054e-07
1.06913e-08
1.72917e-07
3.24916e-09
1.74585e-07
-3.60517e-09
1.76117e-07
-9.75208e-09
1.7747e-07
-1.50948e-08
1.78437e-07
-1.95357e-08
1.78701e-07
-2.29808e-08
1.77761e-07
-2.53161e-08
1.74932e-07
-2.63985e-08
1.69303e-07
-2.60572e-08
1.59677e-07
-2.40362e-08
1.44433e-07
-2.00648e-08
1.21759e-07
-1.37372e-08
8.84817e-08
-4.58054e-09
4.24138e-08
7.88202e-09
-2.32656e-08
2.4625e-08
-1.10131e-07
4.58072e-08
-2.32919e-07
7.35468e-08
-3.91158e-07
1.06675e-07
-6.14478e-07
1.48489e-07
-9.01941e-07
1.94271e-07
-1.3037e-06
2.40946e-07
-1.82563e-06
-2.51879e-06
2.75748e-07
4.24595e-10
-7.05522e-09
1.72036e-09
-2.11119e-08
3.87448e-09
-3.45686e-08
6.94308e-09
-4.51894e-08
1.08601e-08
-5.11908e-08
1.54939e-08
-5.23916e-08
2.0732e-08
-4.91957e-08
2.64607e-08
-4.218e-08
3.25421e-08
-3.21282e-08
3.87971e-08
-1.97783e-08
4.49979e-08
-5.75438e-09
5.08981e-08
9.31712e-09
5.6283e-08
2.47666e-08
6.10004e-08
4.0053e-08
6.49463e-08
5.49604e-08
6.80185e-08
6.96261e-08
7.00791e-08
8.43491e-08
7.09471e-08
9.92667e-08
7.0445e-08
1.1418e-07
6.84514e-08
1.28526e-07
6.49589e-08
1.41592e-07
6.00898e-08
1.5275e-07
5.40819e-08
1.61663e-07
4.72466e-08
1.68332e-07
3.99225e-08
1.73051e-07
3.24308e-08
1.76256e-07
2.50581e-08
1.78427e-07
1.804e-08
1.79934e-07
1.15718e-08
1.81052e-07
5.81073e-09
1.81877e-07
8.90463e-10
1.8239e-07
-3.07383e-09
1.824e-07
-5.97002e-09
1.81597e-07
-7.6905e-09
1.7948e-07
-8.10886e-09
1.75349e-07
-7.07159e-09
1.68265e-07
-4.40591e-09
1.5701e-07
1.38533e-10
1.39888e-07
6.82235e-09
1.15074e-07
1.60093e-08
7.9295e-08
2.81353e-08
3.02881e-08
4.35749e-08
-3.87041e-08
6.31746e-08
-1.2973e-07
8.69299e-08
-2.56672e-07
1.16498e-07
-4.20726e-07
1.50561e-07
-6.48539e-07
1.91021e-07
-9.42403e-07
2.33048e-07
-1.34572e-06
2.71838e-07
-1.86442e-06
-2.54154e-06
2.94592e-07
4.36431e-10
-7.49207e-09
1.78011e-09
-2.24563e-08
4.01658e-09
-3.68058e-08
7.19786e-09
-4.83714e-08
1.12565e-08
-5.525e-08
1.6051e-08
-5.71868e-08
2.14598e-08
-5.46052e-08
2.73644e-08
-4.80854e-08
3.36207e-08
-3.83854e-08
4.00421e-08
-2.62006e-08
4.63944e-08
-1.21076e-08
5.24264e-08
3.28406e-09
5.79219e-08
1.92702e-08
6.27291e-08
3.52449e-08
6.67452e-08
5.09436e-08
6.9869e-08
6.65014e-08
7.19642e-08
8.22535e-08
7.2854e-08
9.83757e-08
7.23684e-08
1.14665e-07
7.03972e-08
1.30496e-07
6.69459e-08
1.45043e-07
6.21497e-08
1.57546e-07
5.62575e-08
1.67554e-07
4.959e-08
1.74998e-07
4.24927e-08
1.80148e-07
3.52934e-08
1.83454e-07
2.8285e-08
1.85434e-07
2.17102e-08
1.86508e-07
1.57727e-08
1.86989e-07
1.06389e-08
1.8701e-07
6.45414e-09
1.86574e-07
3.34336e-09
1.8551e-07
1.43014e-09
1.8351e-07
8.36472e-10
1.80072e-07
1.6954e-09
1.7449e-07
4.16839e-09
1.6579e-07
8.43182e-09
1.52746e-07
1.47307e-08
1.33588e-07
2.33214e-08
1.06483e-07
3.45326e-08
6.80842e-08
4.87751e-08
1.6046e-08
6.63369e-08
-5.62646e-08
8.79533e-08
-1.51345e-07
1.135e-07
-2.82217e-07
1.44219e-07
-4.51444e-07
1.78688e-07
-6.83007e-07
2.17674e-07
-9.8139e-07
2.56252e-07
-1.3843e-06
2.88598e-07
-1.89676e-06
-2.55504e-06
3.021e-07
4.48794e-10
-7.94128e-09
1.84187e-09
-2.385e-08
4.16405e-09
-3.91286e-08
7.46165e-09
-5.16696e-08
1.16661e-08
-5.94551e-08
1.66267e-08
-6.21481e-08
2.22115e-08
-6.01906e-08
2.82971e-08
-5.41718e-08
3.47336e-08
-4.48227e-08
4.13263e-08
-3.27943e-08
4.7834e-08
-1.86162e-08
5.40005e-08
-2.88349e-09
5.96072e-08
1.36626e-08
6.45012e-08
3.035e-08
6.85783e-08
4.68659e-08
7.1734e-08
6.33448e-08
7.38282e-08
8.0159e-08
7.46822e-08
9.75206e-08
7.41284e-08
1.15219e-07
7.20649e-08
1.32559e-07
6.85094e-08
1.48598e-07
6.36115e-08
1.62443e-07
5.76342e-08
1.73531e-07
5.091e-08
1.81722e-07
4.37941e-08
1.87263e-07
3.6622e-08
1.90626e-07
2.9693e-08
1.92363e-07
2.32561e-08
1.92944e-07
1.75214e-08
1.92722e-07
1.26624e-08
1.91869e-07
8.831e-09
1.90404e-07
6.16061e-09
1.8818e-07
4.78135e-09
1.84888e-07
4.82238e-09
1.8003e-07
6.42306e-09
1.72888e-07
9.74912e-09
1.62463e-07
1.49805e-08
1.47514e-07
2.23546e-08
1.26214e-07
3.21269e-08
9.67108e-08
4.45922e-08
5.56194e-08
6.01412e-08
4.97654e-10
7.89961e-08
-7.5118e-08
1.01789e-07
-1.74137e-07
1.28308e-07
-3.08734e-07
1.59428e-07
-4.82563e-07
1.93654e-07
-7.17232e-07
2.30855e-07
-1.01859e-06
2.66052e-07
-1.4195e-06
2.92924e-07
-1.92364e-06
-2.56139e-06
2.99277e-07
4.6173e-10
-8.40344e-09
1.90569e-09
-2.52947e-08
4.31698e-09
-4.15406e-08
7.73463e-09
-5.50879e-08
1.20892e-08
-6.38102e-08
1.72212e-08
-6.72808e-08
2.29875e-08
-6.59576e-08
2.92596e-08
-6.04447e-08
3.58814e-08
-5.14453e-08
4.26501e-08
-3.9564e-08
4.93171e-08
-2.52841e-08
5.56209e-08
-9.18835e-09
6.13405e-08
7.94215e-09
6.63218e-08
2.53678e-08
7.04581e-08
4.27288e-08
7.36402e-08
6.01618e-08
7.57213e-08
7.80776e-08
7.65178e-08
9.6723e-08
7.58615e-08
1.15875e-07
7.36561e-08
1.34763e-07
6.99301e-08
1.52323e-07
6.4847e-08
1.67526e-07
5.86837e-08
1.79694e-07
5.17852e-08
1.8862e-07
4.45165e-08
1.94531e-07
3.72207e-08
1.9792e-07
3.02034e-08
1.9938e-07
2.37186e-08
1.99428e-07
1.79814e-08
1.98459e-07
1.317e-08
1.9668e-07
9.44042e-09
1.94133e-07
6.9309e-09
1.90688e-07
5.77489e-09
1.86044e-07
6.10535e-09
1.79698e-07
8.06403e-09
1.70929e-07
1.18172e-08
1.58709e-07
1.75462e-08
1.41784e-07
2.54783e-08
1.18282e-07
3.58668e-08
8.63223e-08
4.89759e-08
4.25108e-08
6.51743e-08
-1.57e-08
8.46284e-08
-9.45706e-08
1.07871e-07
-1.97378e-07
1.34626e-07
-3.35487e-07
1.65442e-07
-5.13378e-07
1.98768e-07
-7.50555e-07
2.33781e-07
-1.0536e-06
2.65478e-07
-1.45119e-06
2.87395e-07
-1.94555e-06
-2.56196e-06
2.87974e-07
4.75286e-10
-8.87916e-09
1.9716e-09
-2.67917e-08
4.47546e-09
-4.40452e-08
8.01697e-09
-5.86301e-08
1.25258e-08
-6.83196e-08
1.78347e-08
-7.25904e-08
2.37882e-08
-7.19117e-08
3.02522e-08
-6.69096e-08
3.70646e-08
-5.82585e-08
4.40142e-08
-4.65146e-08
5.08443e-08
-3.21151e-08
5.72883e-08
-1.56333e-08
6.31225e-08
2.107e-09
6.81919e-08
2.02976e-08
7.23872e-08
3.85329e-08
7.55934e-08
5.69548e-08
7.76562e-08
7.60144e-08
7.83858e-08
9.59925e-08
7.76119e-08
1.16648e-07
7.52427e-08
1.37132e-07
7.13167e-08
1.56248e-07
6.60104e-08
1.72831e-07
5.96145e-08
1.86089e-07
5.24858e-08
1.95748e-07
4.49989e-08
2.02018e-07
3.75041e-08
2.05414e-07
3.03118e-08
2.06572e-07
2.36807e-08
2.06058e-07
1.78289e-08
2.0431e-07
1.2938e-08
2.0157e-07
9.16602e-09
1.97904e-07
6.65322e-09
1.932e-07
5.53356e-09
1.87163e-07
5.94062e-09
1.7929e-07
8.01551e-09
1.68854e-07
1.19214e-08
1.54802e-07
1.7838e-08
1.35868e-07
2.59797e-08
1.1014e-07
3.65938e-08
7.57084e-08
4.99145e-08
2.91907e-08
6.62834e-08
-3.20679e-08
8.58188e-08
-1.14104e-07
1.08952e-07
-2.2051e-07
1.35354e-07
-3.61886e-07
1.65281e-07
-5.43304e-07
1.97125e-07
-7.82398e-07
2.29537e-07
-1.08601e-06
2.57523e-07
-1.47918e-06
2.74678e-07
-1.96271e-06
-2.55748e-06
2.70195e-07
4.89508e-10
-9.3691e-09
2.03965e-09
-2.83426e-08
4.63954e-09
-4.66458e-08
8.30882e-09
-6.23e-08
1.29762e-08
-7.29876e-08
1.84673e-08
-7.80822e-08
2.46138e-08
-7.80588e-08
3.12753e-08
-7.35719e-08
3.82837e-08
-6.52677e-08
4.5419e-08
-5.36508e-08
5.24162e-08
-3.91132e-08
5.90033e-08
-2.22214e-08
6.49542e-08
-3.8448e-09
7.01127e-08
1.51383e-08
7.43666e-08
3.42783e-08
7.75952e-08
5.37253e-08
7.9636e-08
7.39733e-08
8.02923e-08
9.53352e-08
7.93916e-08
1.17548e-07
7.68462e-08
1.39676e-07
7.27042e-08
1.6039e-07
6.71555e-08
1.7838e-07
6.05041e-08
1.9274e-07
5.31186e-08
2.03133e-07
4.53827e-08
2.09754e-07
3.76529e-08
2.13143e-07
3.02444e-08
2.1398e-07
2.34191e-08
2.12883e-07
1.73977e-08
2.10331e-07
1.23633e-08
2.06604e-07
8.47469e-09
2.01793e-07
5.87204e-09
1.95802e-07
4.68776e-09
1.88347e-07
5.05338e-09
1.78923e-07
7.10692e-09
1.668e-07
1.10054e-08
1.50903e-07
1.69239e-08
1.29949e-07
2.50613e-08
1.02002e-07
3.56541e-08
6.51159e-08
4.89063e-08
1.59393e-08
6.51251e-08
-4.82855e-08
8.43842e-08
-1.33362e-07
1.07011e-07
-2.43134e-07
1.32621e-07
-3.87493e-07
1.61211e-07
-5.71892e-07
1.9111e-07
-8.12295e-07
2.20569e-07
-1.11547e-06
2.44631e-07
-1.50324e-06
2.57081e-07
-1.97516e-06
-2.54831e-06
2.47917e-07
5.04444e-10
-9.87398e-09
2.10989e-09
-2.99487e-08
4.80927e-09
-4.93458e-08
8.61033e-09
-6.61017e-08
1.34409e-08
-7.78187e-08
1.91193e-08
-8.37613e-08
2.54645e-08
-8.44047e-08
3.23291e-08
-8.04374e-08
3.9539e-08
-7.24783e-08
4.6865e-08
-6.09778e-08
5.40335e-08
-4.62826e-08
6.07668e-08
-2.89557e-08
6.68365e-08
-9.91533e-09
7.2085e-08
9.88894e-09
7.63975e-08
2.99653e-08
7.96468e-08
5.04753e-08
8.1662e-08
7.19577e-08
8.22394e-08
9.47569e-08
8.12041e-08
1.18583e-07
7.84725e-08
1.42407e-07
7.41031e-08
1.64758e-07
6.8299e-08
1.84183e-07
6.13779e-08
1.99661e-07
5.37202e-08
2.1079e-07
4.57182e-08
2.17755e-07
3.7735e-08
2.21125e-07
3.00896e-08
2.21625e-07
2.30467e-08
2.19925e-07
1.68287e-08
2.16548e-07
1.16196e-08
2.11812e-07
7.57754e-09
2.05834e-07
4.84135e-09
1.98538e-07
3.54035e-09
1.89647e-07
3.80205e-09
1.78661e-07
5.75952e-09
1.64842e-07
9.5612e-09
1.47101e-07
1.53747e-08
1.24135e-07
2.33814e-08
9.39954e-08
3.38022e-08
5.46956e-08
4.681e-08
2.9323e-09
6.26708e-08
-6.41449e-08
8.14135e-08
-1.52102e-07
1.03257e-07
-2.64976e-07
1.2776e-07
-4.11994e-07
1.54684e-07
-5.98813e-07
1.82284e-07
-8.39892e-07
2.08507e-07
-1.14169e-06
2.28456e-07
-1.52318e-06
2.36163e-07
-1.98286e-06
-2.53459e-06
2.22436e-07
5.2014e-10
-1.03946e-08
2.18235e-09
-3.16117e-08
4.98465e-09
-5.21488e-08
8.92161e-09
-7.00393e-08
1.39196e-08
-8.28172e-08
1.97905e-08
-8.9633e-08
2.63406e-08
-9.09553e-08
3.34141e-08
-8.75116e-08
4.08308e-08
-7.98958e-08
4.83526e-08
-6.85005e-08
5.56967e-08
-5.36275e-08
6.25795e-08
-3.58395e-08
6.87703e-08
-1.61069e-08
7.41102e-08
4.54833e-09
7.8481e-08
2.55938e-08
8.17494e-08
4.72062e-08
8.37356e-08
6.99712e-08
8.42287e-08
9.4263e-08
8.30513e-08
1.1976e-07
8.01246e-08
1.45333e-07
7.55175e-08
1.69365e-07
6.94467e-08
1.90254e-07
6.22443e-08
2.06863e-07
5.43024e-08
2.18731e-07
4.60223e-08
2.26035e-07
3.77731e-08
2.29374e-07
2.98776e-08
2.2952e-07
2.26033e-08
2.27199e-07
1.61734e-08
2.22977e-07
1.07721e-08
2.17213e-07
6.55638e-09
2.10049e-07
3.66254e-09
2.01431e-07
2.21579e-09
1.91094e-07
2.33808e-09
1.78538e-07
4.15607e-09
1.63023e-07
7.80788e-09
1.43448e-07
1.34512e-08
1.18492e-07
2.12482e-08
8.61984e-08
3.13997e-08
4.45448e-08
4.40467e-08
-9.71369e-09
5.94073e-08
-7.9504e-08
7.74645e-08
-1.70158e-07
9.83271e-08
-2.85836e-07
1.21489e-07
-4.35153e-07
1.46498e-07
-6.23818e-07