/*--------------------------------*- C++ -*----------------------------------*\
  =========                 |
  \\      /  F ield         | OpenFOAM: The Open Source CFD Toolbox
   \\    /   O peration     | Website:  https://openfoam.org
    \\  /    A nd           | Version:  7
     \\/     M anipulation  |
\*---------------------------------------------------------------------------*/
FoamFile
{
    version     2.0;
    format      ascii;
    class       volScalarField;
    location    "0.11";
    object      p;
}
// * * * * * * * * * * * * * * * * * * * * * * * * * * * * * * * * * * * * * //

dimensions      [0 2 -2 0 0 0 0];

internalField   nonuniform List<scalar> 
70000
(
0.118215
0.0407683
0.0282626
0.0307275
0.0309224
0.0298965
0.0289946
0.0283288
0.027789
0.0273279
0.0269326
0.0265955
0.0263091
0.0260672
0.0258644
0.0256966
0.0255603
0.025453
0.0253725
0.0253171
0.0252855
0.0252767
0.0252899
0.0253248
0.025381
0.0254584
0.0255572
0.0256777
0.0258203
0.0259856
0.0261743
0.0263872
0.0266253
0.0268895
0.0271811
0.027501
0.0278508
0.028231
0.0286434
0.0290883
0.0295662
0.0300791
0.0306205
0.0312028
0.0317935
0.0324454
0.0330405
0.0337691
0.0342466
0.0350561
0.113847
0.0411352
0.0284656
0.0308232
0.0309771
0.0299327
0.029023
0.0283522
0.0278086
0.0273447
0.0269473
0.0266084
0.0263207
0.0260777
0.0258739
0.0257053
0.0255684
0.0254605
0.0253795
0.0253237
0.0252917
0.0252825
0.0252955
0.0253301
0.025386
0.0254632
0.0255619
0.0256822
0.0258247
0.0259898
0.0261784
0.0263912
0.0266293
0.0268934
0.0271851
0.0275049
0.0278547
0.028235
0.0286474
0.0290924
0.0295704
0.0300835
0.0306251
0.0312077
0.0317986
0.032451
0.0330463
0.0337749
0.034256
0.0350991
0.110267
0.0420749
0.0288058
0.0309522
0.0310513
0.0299775
0.0290553
0.0283784
0.0278305
0.0273632
0.0269632
0.0266225
0.0263332
0.0260889
0.0258841
0.0257146
0.025577
0.0254684
0.0253869
0.0253305
0.0252981
0.0252886
0.0253012
0.0253355
0.0253912
0.0254682
0.0255666
0.0256868
0.0258291
0.0259941
0.0261826
0.0263953
0.0266332
0.0268973
0.0271888
0.0275086
0.0278584
0.0282387
0.0286512
0.0290962
0.0295743
0.0300875
0.0306292
0.0312121
0.0318032
0.0324563
0.0330519
0.0337807
0.0342757
0.0351399
0.107172
0.0431764
0.029275
0.0311259
0.0311521
0.0300349
0.0290934
0.0284083
0.027855
0.0273837
0.0269806
0.0266375
0.0263465
0.0261008
0.0258948
0.0257243
0.0255858
0.0254766
0.0253944
0.0253376
0.0253047
0.0252948
0.025307
0.025341
0.0253964
0.0254731
0.0255713
0.0256912
0.0258333
0.0259981
0.0261864
0.026399
0.0266368
0.0269007
0.0271921
0.0275118
0.0278615
0.0282417
0.0286541
0.0290991
0.0295772
0.0300905
0.0306323
0.0312154
0.0318067
0.0324602
0.0330572
0.033785
0.0343047
0.0351783
0.104213
0.0442724
0.0298404
0.031346
0.0312862
0.0301125
0.0291422
0.0284452
0.0278849
0.0274081
0.0270011
0.026655
0.0263617
0.0261142
0.0259068
0.0257351
0.0255956
0.0254855
0.0254026
0.0253451
0.0253117
0.0253013
0.0253131
0.0253467
0.0254017
0.0254781
0.025576
0.0256956
0.0258374
0.026002
0.0261901
0.0264023
0.0266399
0.0269036
0.0271949
0.0275144
0.0278639
0.0282438
0.028656
0.0291009
0.0295788
0.030092
0.0306337
0.0312169
0.0318085
0.032462
0.0330615
0.033787
0.0343405
0.0352195
0.101303
0.0453109
0.030455
0.0315925
0.0314479
0.0302117
0.0292041
0.0284912
0.0279219
0.0274383
0.027026
0.0266761
0.0263799
0.0261301
0.0259208
0.0257476
0.0256069
0.0254957
0.0254119
0.0253536
0.0253195
0.0253084
0.0253197
0.0253528
0.0254073
0.0254833
0.0255808
0.0257
0.0258415
0.0260057
0.0261935
0.0264054
0.0266427
0.026906
0.0271969
0.027516
0.0278652
0.0282448
0.0286566
0.0291011
0.0295786
0.0300914
0.0306329
0.0312158
0.0318077
0.0324607
0.0330639
0.033786
0.0343793
0.035263
0.0984381
0.0462729
0.0310852
0.0318437
0.031624
0.0303281
0.0292783
0.0285463
0.0279665
0.0274748
0.0270563
0.0267016
0.0264018
0.0261491
0.0259375
0.0257624
0.0256201
0.0255076
0.0254226
0.0253634
0.0253284
0.0253165
0.0253271
0.0253595
0.0254135
0.0254889
0.0255859
0.0257047
0.0258456
0.0260094
0.0261966
0.0264081
0.0266449
0.0269077
0.0271981
0.0275167
0.0278652
0.0282442
0.0286554
0.0290992
0.029576
0.0300882
0.030629
0.0312112
0.0318031
0.0324549
0.0330631
0.0337811
0.034417
0.0353056
0.0956232
0.0471504
0.0317149
0.0320879
0.0318036
0.0304551
0.0293612
0.0286084
0.0280175
0.0275171
0.0270915
0.0267315
0.0264275
0.0261715
0.0259573
0.0257799
0.0256357
0.0255216
0.0254352
0.0253747
0.0253386
0.0253258
0.0253355
0.0253672
0.0254204
0.0254951
0.0255914
0.0257095
0.0258499
0.026013
0.0261996
0.0264105
0.0266466
0.0269087
0.0271983
0.0275161
0.0278638
0.0282419
0.0286521
0.0290949
0.0295705
0.0300816
0.0306212
0.0312021
0.0317938
0.0324435
0.0330576
0.0337712
0.0344491
0.0353435
0.0928645
0.0479407
0.032339
0.0323211
0.0319807
0.0305879
0.0294497
0.028675
0.0280728
0.0275637
0.0271308
0.0267651
0.0264566
0.026197
0.0259798
0.0258
0.0256536
0.0255377
0.0254497
0.0253878
0.0253504
0.0253365
0.0253451
0.0253758
0.0254281
0.025502
0.0255975
0.0257148
0.0258544
0.0260167
0.0262025
0.0264125
0.0266477
0.0269089
0.0271975
0.0275143
0.0278607
0.0282376
0.0286463
0.0290877
0.0295617
0.030071
0.030609
0.0311879
0.0317789
0.0324255
0.0330461
0.0337552
0.0344715
0.0353726
0.0901664
0.0486434
0.0329564
0.032543
0.0321523
0.0307239
0.0295416
0.0287441
0.0281308
0.0276131
0.0271729
0.0268014
0.0264884
0.0262251
0.0260048
0.0258223
0.0256736
0.0255557
0.0254659
0.0254025
0.0253637
0.0253485
0.025356
0.0253855
0.0254368
0.0255097
0.0256042
0.0257205
0.0258591
0.0260205
0.0262053
0.0264142
0.0266483
0.0269083
0.0271956
0.027511
0.0278559
0.0282311
0.028638
0.0290774
0.0295491
0.0300562
0.0305917
0.0311678
0.0317576
0.0324002
0.0330272
0.0337321
0.0344808
0.0353888
0.0875323
0.049259
0.0335662
0.0327543
0.032317
0.0308614
0.0296359
0.0288146
0.0281902
0.0276641
0.0272168
0.0268395
0.0265219
0.0262549
0.0260315
0.0258463
0.0256953
0.0255753
0.0254837
0.0254186
0.0253783
0.0253617
0.0253678
0.0253962
0.0254463
0.025518
0.0256114
0.0257266
0.0258641
0.0260243
0.0262079
0.0264156
0.0266483
0.0269069
0.0271926
0.0275063
0.0278493
0.0282224
0.0286269
0.0290639
0.0295328
0.0300368
0.0305692
0.0311415
0.0317296
0.032367
0.0329998
0.033701
0.0344745
0.0353885
0.0849651
0.0497878
0.0341671
0.0329561
0.0324739
0.0309998
0.0297324
0.0288862
0.0282504
0.0277162
0.0272618
0.0268787
0.0265566
0.0262859
0.0260593
0.0258714
0.0257181
0.025596
0.0255025
0.0254357
0.0253939
0.0253758
0.0253806
0.0254076
0.0254564
0.0255269
0.0256191
0.0257331
0.0258693
0.0260282
0.0262104
0.0264166
0.0266478
0.0269047
0.0271885
0.0275002
0.0278409
0.0282116
0.0286132
0.0290471
0.0295126
0.0300129
0.0305415
0.0311091
0.0316946
0.0323261
0.0329634
0.0336612
0.0344514
0.0353689
0.0824674
0.0502303
0.034757
0.0331497
0.0326223
0.0311381
0.0298308
0.0289585
0.0283111
0.027769
0.0273075
0.0269187
0.0265921
0.0263176
0.0260879
0.0258973
0.0257416
0.0256174
0.0255221
0.0254535
0.0254101
0.0253905
0.0253939
0.0254196
0.0254671
0.0255363
0.0256271
0.0257398
0.0258746
0.0260321
0.0262127
0.0264173
0.0266467
0.0269017
0.0271834
0.0274927
0.0278308
0.0281986
0.028597
0.0290274
0.0294888
0.0299846
0.0305088
0.0310708
0.0316529
0.0322777
0.0329178
0.0336125
0.0344114
0.0353288
0.0800416
0.0505874
0.0353335
0.0333363
0.0327617
0.0312755
0.0299309
0.0290317
0.0283722
0.0278223
0.0273539
0.0269593
0.0266281
0.0263499
0.0261171
0.0259238
0.0257657
0.0256394
0.0255422
0.0254719
0.0254268
0.0254057
0.0254076
0.0254319
0.025478
0.0255458
0.0256353
0.0257465
0.0258799
0.0260358
0.0262148
0.0264176
0.026645
0.0268979
0.0271773
0.027484
0.0278191
0.0281837
0.0285784
0.0290047
0.0294617
0.0299524
0.0304716
0.0310272
0.031605
0.0322226
0.0328635
0.0335548
0.0343554
0.0352683
0.0776902
0.0508603
0.0358937
0.0335174
0.0328916
0.0314111
0.0300328
0.0291056
0.0284336
0.027876
0.0274008
0.0270004
0.0266645
0.0263826
0.0261466
0.0259506
0.0257902
0.0256617
0.0255626
0.0254905
0.0254438
0.0254212
0.0254216
0.0254444
0.0254891
0.0255555
0.0256435
0.0257532
0.025885
0.0260393
0.0262165
0.0264174
0.0266428
0.0268933
0.0271701
0.027474
0.027806
0.028167
0.0285577
0.0289796
0.0294316
0.0299167
0.0304302
0.0309788
0.0315516
0.0321615
0.032801
0.0334885
0.0342849
0.0351886
0.0754151
0.0510507
0.0364344
0.0336947
0.0330119
0.031544
0.0301361
0.0291802
0.0284952
0.0279301
0.0274482
0.0270419
0.0267014
0.0264157
0.0261765
0.0259778
0.0258149
0.0256843
0.0255832
0.0255093
0.025461
0.0254367
0.0254356
0.025457
0.0255002
0.0255651
0.0256516
0.0257598
0.02589
0.0260425
0.0262178
0.0264167
0.0266398
0.026888
0.027162
0.0274629
0.0277914
0.0281487
0.0285351
0.0289521
0.0293988
0.0298778
0.0303852
0.0309263
0.0314932
0.0320952
0.0327314
0.0334142
0.0342016
0.0350917
0.0732181
0.0511607
0.0369526
0.0338694
0.0331225
0.0316732
0.0302405
0.0292557
0.028557
0.0279845
0.027496
0.0270839
0.0267386
0.0264491
0.0262068
0.0260052
0.0258399
0.0257071
0.025604
0.0255283
0.0254782
0.0254524
0.0254498
0.0254695
0.0255113
0.0255746
0.0256596
0.0257661
0.0258946
0.0260453
0.0262187
0.0264155
0.0266362
0.0268818
0.027153
0.0274506
0.0277755
0.0281287
0.0285106
0.0289225
0.0293636
0.0298362
0.030337
0.0308702
0.0314305
0.0320243
0.0326554
0.0333323
0.0341075
0.0349801
0.0711003
0.0511926
0.0374452
0.0340429
0.0332234
0.0317976
0.0303457
0.029332
0.0286187
0.028039
0.0275441
0.0271262
0.0267762
0.0264829
0.0262373
0.0260329
0.0258651
0.0257301
0.025625
0.0255475
0.0254956
0.0254681
0.0254639
0.0254821
0.0255222
0.025584
0.0256673
0.0257722
0.0258989
0.0260477
0.0262191
0.0264136
0.0266319
0.0268748
0.0271429
0.0274372
0.0277583
0.0281073
0.0284844
0.0288909
0.0293261
0.0297919
0.0302858
0.0308109
0.031364
0.0319493
0.0325736
0.0332434
0.0340038
0.0348559
0.0690626
0.0511495
0.0379093
0.0342158
0.0333149
0.0319162
0.0304512
0.0294091
0.0286805
0.0280936
0.0275926
0.0271689
0.0268141
0.0265169
0.0262681
0.0260609
0.0258906
0.0257533
0.0256461
0.0255667
0.0255131
0.0254839
0.025478
0.0254946
0.0255331
0.0255932
0.0256749
0.025778
0.0259028
0.0260497
0.0262189
0.0264111
0.0266269
0.0268669
0.0271319
0.0274226
0.0277398
0.0280843
0.0284565
0.0288574
0.0292865
0.0297452
0.0302319
0.0307486
0.0312938
0.0318704
0.0324866
0.033148
0.0338919
0.0347209
0.0671053
0.0510347
0.0383422
0.0343888
0.0333975
0.0320281
0.0305565
0.029487
0.0287423
0.0281481
0.0276413
0.027212
0.0268523
0.0265512
0.0262991
0.0260891
0.0259162
0.0257767
0.0256674
0.025586
0.0255306
0.0254996
0.025492
0.0255069
0.0255438
0.0256023
0.0256821
0.0257835
0.0259064
0.0260511
0.0262181
0.0264079
0.026621
0.0268581
0.0271198
0.0274069
0.0277199
0.0280598
0.0284268
0.0288219
0.0292446
0.0296961
0.0301752
0.0306833
0.0312201
0.0317877
0.0323946
0.0330461
0.0337723
0.0345768
0.0652285
0.0508523
0.0387412
0.0345621
0.0334718
0.0321326
0.030661
0.0295655
0.0288039
0.0282025
0.0276901
0.0272552
0.0268908
0.0265858
0.0263303
0.0261174
0.025942
0.0258001
0.0256887
0.0256054
0.0255481
0.0255153
0.025506
0.0255192
0.0255543
0.025611
0.0256891
0.0257885
0.0259094
0.026052
0.0262167
0.026404
0.0266143
0.0268483
0.0271065
0.0273898
0.0276986
0.0280337
0.0283954
0.0287844
0.0292005
0.0296446
0.0301158
0.0306151
0.031143
0.031701
0.0322977
0.032938
0.0336456
0.0344243
0.0634316
0.0506066
0.0391037
0.0347355
0.0335385
0.0322288
0.0307639
0.0296446
0.0288655
0.0282566
0.027739
0.0272987
0.0269295
0.0266205
0.0263617
0.026146
0.0259679
0.0258237
0.0257102
0.0256248
0.0255656
0.025531
0.0255198
0.0255313
0.0255646
0.0256195
0.0256957
0.0257932
0.025912
0.0260523
0.0262146
0.0263992
0.0266066
0.0268374
0.0270921
0.0273714
0.0276758
0.0280059
0.028362
0.0287448
0.0291541
0.0295905
0.0300535
0.0305438
0.0310623
0.0316104
0.0321958
0.0328237
0.033512
0.0342643
0.0617138
0.0503023
0.0394275
0.0349085
0.0335984
0.0323163
0.0308645
0.0297241
0.0289269
0.0283103
0.0277878
0.0273424
0.0269683
0.0266554
0.0263933
0.0261746
0.025994
0.0258474
0.0257316
0.0256442
0.025583
0.0255466
0.0255336
0.0255432
0.0255747
0.0256277
0.0257019
0.0257973
0.025914
0.026052
0.0262118
0.0263936
0.026598
0.0268255
0.0270765
0.0273516
0.0276514
0.0279763
0.0283267
0.0287031
0.0291053
0.0295337
0.0299883
0.0304692
0.0309779
0.0315155
0.032089
0.0327032
0.0333716
0.034097
0.0600739
0.0499444
0.0397107
0.0350802
0.0336524
0.0323947
0.0309619
0.0298037
0.0289881
0.0283635
0.0278363
0.027386
0.0270073
0.0266903
0.026425
0.0262034
0.0260201
0.0258711
0.0257531
0.0256636
0.0256004
0.025562
0.0255472
0.0255549
0.0255845
0.0256355
0.0257077
0.025801
0.0259154
0.026051
0.0262082
0.0263871
0.0265884
0.0268123
0.0270595
0.0273303
0.0276253
0.0279449
0.0282893
0.028659
0.0290539
0.0294742
0.02992
0.0303913
0.0308897
0.0314162
0.031977
0.0325764
0.0332244
0.0339226
0.0585103
0.0495382
0.0399515
0.0352492
0.0337014
0.0324637
0.0310553
0.0298832
0.0290492
0.0284161
0.0278846
0.0274297
0.0270463
0.0267254
0.0264567
0.0262322
0.0260463
0.0258948
0.0257746
0.0256829
0.0256177
0.0255774
0.0255605
0.0255663
0.025594
0.025643
0.0257131
0.0258042
0.0259162
0.0260493
0.0262037
0.0263797
0.0265776
0.026798
0.0270411
0.0273075
0.0275975
0.0279115
0.0282498
0.0286126
0.0289999
0.0294118
0.0298485
0.0303099
0.0307974
0.0313124
0.0318597
0.0324433
0.0330703
0.0337413
0.0570212
0.0490892
0.0401487
0.035414
0.0337465
0.0325234
0.0311437
0.0299621
0.0291101
0.028468
0.0279323
0.0274732
0.0270853
0.0267604
0.0264884
0.026261
0.0260724
0.0259185
0.025796
0.0257022
0.0256349
0.0255925
0.0255737
0.0255775
0.0256031
0.02565
0.0257179
0.0258067
0.0259163
0.0260467
0.0261983
0.0263712
0.0265657
0.0267823
0.0270212
0.0272829
0.0275678
0.0278761
0.0282079
0.0285636
0.0289431
0.0293464
0.0297736
0.0302248
0.0307011
0.0312038
0.0317369
0.0323039
0.0329094
0.0335531
0.0556041
0.048603
0.0403015
0.0355724
0.0337884
0.032574
0.0312264
0.0300399
0.0291707
0.0285192
0.0279795
0.0275165
0.0271242
0.0267954
0.0265201
0.0262897
0.0260985
0.0259422
0.0258173
0.0257213
0.0256519
0.0256075
0.0255866
0.0255883
0.0256118
0.0256565
0.0257222
0.0258086
0.0259156
0.0260433
0.0261919
0.0263616
0.0265525
0.0267652
0.0269998
0.0272567
0.0275361
0.0278385
0.0281637
0.0285121
0.0288835
0.0292778
0.0296952
0.0301358
0.0306004
0.0310903
0.0316085
0.032158
0.0327416
0.033358
0.0542569
0.0480852
0.0404095
0.0357224
0.033828
0.0326158
0.0313026
0.0301162
0.0292309
0.0285696
0.0280259
0.0275594
0.027163
0.0268303
0.0265517
0.0263184
0.0261246
0.0259657
0.0258385
0.0257403
0.0256687
0.0256221
0.0255992
0.0255987
0.0256201
0.0256626
0.0257259
0.0258098
0.0259142
0.026039
0.0261845
0.0263508
0.026538
0.0267466
0.0269767
0.0272286
0.0275025
0.0277986
0.028117
0.0284578
0.0288208
0.0292059
0.0296132
0.0300427
0.0304952
0.0309716
0.0314744
0.0320056
0.0325668
0.0331558
0.0529767
0.0475413
0.0404727
0.0358612
0.0338659
0.0326493
0.0313715
0.0301901
0.0292905
0.0286191
0.0280713
0.0276017
0.0272015
0.026865
0.0265831
0.026347
0.0261504
0.0259891
0.0258596
0.025759
0.0256853
0.0256365
0.0256114
0.0256087
0.0256278
0.025668
0.0257289
0.0258102
0.0259118
0.0260337
0.026176
0.0263387
0.0265221
0.0267264
0.0269518
0.0271985
0.0274666
0.0277564
0.0280677
0.0284006
0.028755
0.0291306
0.0295274
0.0299455
0.0303853
0.0308477
0.0313344
0.0318467
0.032385
0.0329466
0.0517607
0.0469767
0.0404918
0.0359865
0.0339024
0.0326752
0.0314326
0.0302611
0.0293495
0.0286676
0.0281158
0.0276434
0.0272396
0.0268994
0.0266142
0.0263753
0.0261761
0.0260123
0.0258804
0.0257775
0.0257015
0.0256505
0.0256232
0.0256183
0.025635
0.0256728
0.0257312
0.0258098
0.0259086
0.0260274
0.0261663
0.0263254
0.0265048
0.0267046
0.0269251
0.0271664
0.0274286
0.0277117
0.0280156
0.0283404
0.0286859
0.0290517
0.0294377
0.0298439
0.0302706
0.0307184
0.0311883
0.0316811
0.0321963
0.0327303
0.050606
0.0463964
0.0404679
0.0360958
0.0339375
0.0326942
0.0314856
0.0303284
0.0294074
0.0287152
0.0281591
0.0276843
0.0272773
0.0269335
0.0266451
0.0264033
0.0262015
0.0260352
0.0259009
0.0257957
0.0257174
0.0256642
0.0256345
0.0256273
0.0256417
0.0256769
0.0257327
0.0258085
0.0259043
0.0260199
0.0261553
0.0263106
0.0264858
0.0266811
0.0268965
0.0271322
0.0273881
0.0276643
0.0279607
0.0282772
0.0286133
0.028969
0.0293439
0.0297378
0.030151
0.0305836
0.0310362
0.0315089
0.0320004
0.0325069
0.0495095
0.0458052
0.0404026
0.0361869
0.0339709
0.0327071
0.0315301
0.0303914
0.029464
0.0287618
0.0282011
0.0277242
0.0273144
0.0269672
0.0266756
0.026431
0.0262266
0.0260578
0.025921
0.0258135
0.0257329
0.0256773
0.0256453
0.0256357
0.0256476
0.0256803
0.0257333
0.0258063
0.025899
0.0260112
0.026143
0.0262943
0.0264652
0.0266557
0.0268658
0.0270957
0.0273452
0.0276143
0.0279029
0.0282106
0.0285373
0.0288825
0.0292458
0.0296271
0.0300262
0.0304431
0.0308778
0.0313299
0.0317974
0.0322762
0.0484682
0.0452073
0.040298
0.036258
0.0340019
0.0327145
0.0315663
0.0304492
0.0295188
0.0288071
0.0282418
0.0277629
0.0273506
0.0270003
0.0267056
0.0264582
0.0262513
0.02608
0.0259408
0.0258309
0.0257479
0.02569
0.0256556
0.0256435
0.0256528
0.0256829
0.0257331
0.025803
0.0258925
0.0260012
0.0261292
0.0262764
0.0264428
0.0266283
0.026833
0.0270568
0.0272997
0.0275615
0.0278419
0.0281407
0.0284575
0.0287919
0.0291434
0.0295116
0.0298962
0.0302968
0.0307132
0.0311441
0.0315874
0.0320384
0.0474789
0.0446065
0.0401566
0.0363075
0.0340294
0.032717
0.031594
0.0305013
0.0295713
0.0288512
0.028281
0.0278003
0.027386
0.0270328
0.026735
0.0264849
0.0262754
0.0261017
0.0259601
0.0258478
0.0257624
0.025702
0.0256652
0.0256506
0.0256573
0.0256845
0.0257318
0.0257986
0.0258847
0.0259899
0.026114
0.0262569
0.0264186
0.0265989
0.0267979
0.0270155
0.0272515
0.0275057
0.0277777
0.0280673
0.028374
0.0286972
0.0290364
0.0293911
0.0297607
0.0301447
0.0305421
0.0309516
0.0313702
0.0317934
0.0465387
0.0440061
0.0399814
0.0363342
0.0340524
0.0327152
0.0316137
0.030547
0.029621
0.0288938
0.0283186
0.0278362
0.0274203
0.0270645
0.0267638
0.026511
0.026299
0.0261228
0.0259788
0.0258641
0.0257762
0.0257134
0.025674
0.0256568
0.0256608
0.0256852
0.0257295
0.0257931
0.0258757
0.0259771
0.0260971
0.0262356
0.0263924
0.0265674
0.0267605
0.0269716
0.0272005
0.0274468
0.0277102
0.0279903
0.0282865
0.0285982
0.0289248
0.0292656
0.0296198
0.0299866
0.0303647
0.0307522
0.031146
0.0315412
0.0456444
0.0434091
0.0397753
0.0363371
0.0340692
0.0327094
0.0316256
0.0305859
0.0296673
0.0289346
0.0283546
0.0278705
0.0274533
0.0270952
0.0267918
0.0265364
0.0263219
0.0261434
0.0259969
0.0258797
0.0257894
0.0257241
0.0256821
0.0256622
0.0256634
0.0256849
0.025726
0.0257862
0.0258653
0.0259628
0.0260785
0.0262124
0.0263641
0.0265336
0.0267206
0.026925
0.0271465
0.0273847
0.0276392
0.0279095
0.0281949
0.0284948
0.0288084
0.0291349
0.0294732
0.0298224
0.0301807
0.030546
0.0309147
0.0312819
0.0447933
0.0428178
0.0395417
0.0363159
0.0340785
0.0326998
0.0316302
0.0306177
0.0297096
0.0289735
0.0283888
0.027903
0.0274848
0.0271249
0.0268189
0.0265609
0.0263441
0.0261631
0.0260142
0.0258946
0.0258018
0.0257339
0.0256893
0.0256667
0.025665
0.0256834
0.0257213
0.0257781
0.0258533
0.0259468
0.0260582
0.0261872
0.0263337
0.0264974
0.0266782
0.0268756
0.0270895
0.0273193
0.0275646
0.0278248
0.0280991
0.0283869
0.0286871
0.0289989
0.029321
0.0296521
0.0299903
0.030333
0.0306764
0.0310156
0.0439825
0.0422344
0.0392838
0.0362704
0.0340787
0.0326863
0.0316279
0.030642
0.0297474
0.02901
0.0284212
0.0279336
0.0275147
0.0271533
0.026845
0.0265845
0.0263653
0.026182
0.0260308
0.0259087
0.0258134
0.0257429
0.0256956
0.0256701
0.0256654
0.0256807
0.0257152
0.0257684
0.0258398
0.0259291
0.0260359
0.02616
0.026301
0.0264588
0.026633
0.0268233
0.0270293
0.0272505
0.0274863
0.027736
0.027999
0.0282743
0.0285608
0.0288575
0.029163
0.0294757
0.0297933
0.0301132
0.0304313
0.0307423
0.0432094
0.0416603
0.039005
0.0362011
0.0340684
0.0326687
0.0316192
0.0306589
0.0297801
0.0290438
0.0284515
0.0279623
0.0275428
0.0271802
0.02687
0.0266071
0.0263856
0.0262
0.0260464
0.0259218
0.025824
0.0257508
0.0257008
0.0256724
0.0256647
0.0256767
0.0257078
0.0257572
0.0258246
0.0259095
0.0260116
0.0261305
0.026266
0.0264176
0.026585
0.0267679
0.0269658
0.0271781
0.0274041
0.0276432
0.0278945
0.0281569
0.0284294
0.0287107
0.0289992
0.0292931
0.0295899
0.0298867
0.0301793
0.0304624
0.0424716
0.0410968
0.0387083
0.0361086
0.0340463
0.0326465
0.0316045
0.0306683
0.0298072
0.0290744
0.0284795
0.0279887
0.027569
0.0272056
0.0268936
0.0266286
0.0264048
0.0262169
0.026061
0.0259339
0.0258335
0.0257577
0.0257048
0.0256735
0.0256626
0.0256713
0.0256988
0.0257444
0.0258076
0.0258881
0.0259852
0.0260988
0.0262284
0.0263737
0.0265341
0.0267094
0.0268989
0.027102
0.027318
0.0275461
0.0277854
0.0280347
0.0282928
0.0285583
0.0288295
0.0291043
0.0293801
0.0296537
0.0299207
0.0301759
0.0417666
0.0405448
0.0383969
0.0359939
0.0340112
0.0326191
0.0315841
0.0306703
0.0298283
0.0291013
0.0285051
0.0280129
0.027593
0.0272291
0.0269157
0.0266487
0.0264227
0.0262327
0.0260744
0.0259449
0.0258419
0.0257634
0.0257076
0.0256733
0.0256592
0.0256644
0.0256882
0.0257298
0.0257888
0.0258645
0.0259566
0.0260647
0.0261883
0.0263269
0.0264802
0.0266476
0.0268284
0.0270221
0.0272279
0.0274447
0.0276717
0.0279076
0.028151
0.0284004
0.028654
0.0289094
0.029164
0.0294142
0.0296557
0.0298831
0.0410924
0.040005
0.0380734
0.0358582
0.0339625
0.0325858
0.0315582
0.0306652
0.0298431
0.0291241
0.0285279
0.0280346
0.0276147
0.0272507
0.0269362
0.0266673
0.0264393
0.0262471
0.0260866
0.0259547
0.0258491
0.0257678
0.0257091
0.0256716
0.0256542
0.0256559
0.0256759
0.0257134
0.0257679
0.0258388
0.0259257
0.026028
0.0261454
0.0262772
0.0264231
0.0265824
0.0267544
0.0269384
0.0271336
0.0273389
0.0275533
0.0277754
0.0280039
0.0282369
0.0284726
0.0287085
0.0289416
0.0291684
0.0293843
0.0295842
0.0404467
0.0394778
0.0377405
0.0357031
0.0338995
0.0325458
0.0315269
0.0306531
0.0298513
0.0291424
0.0285476
0.0280538
0.027634
0.0272701
0.0269548
0.0266844
0.0264544
0.0262601
0.0260974
0.025963
0.0258548
0.0257707
0.0257091
0.0256684
0.0256476
0.0256457
0.0256617
0.025695
0.0257449
0.0258108
0.0258923
0.0259887
0.0260997
0.0262245
0.0263627
0.0265137
0.0266766
0.0268506
0.027035
0.0272285
0.02743
0.0276382
0.0278514
0.0280678
0.0282854
0.0285015
0.0287131
0.0289164
0.029107
0.0292796
0.0398279
0.0389634
0.0374003
0.0355301
0.033822
0.0324984
0.0314901
0.0306343
0.0298528
0.0291557
0.028564
0.0280701
0.0276506
0.0272871
0.0269714
0.0266996
0.0264679
0.0262715
0.0261066
0.0259699
0.0258591
0.0257722
0.0257075
0.0256636
0.0256393
0.0256336
0.0256456
0.0256745
0.0257196
0.0257805
0.0258563
0.0259467
0.026051
0.0261686
0.026299
0.0264413
0.0265949
0.0267588
0.0269321
0.0271135
0.0273019
0.0274959
0.0276936
0.0278932
0.0280924
0.0282886
0.0284786
0.0286586
0.028824
0.0289697
0.039234
0.0384618
0.0370549
0.0353409
0.0337299
0.0324427
0.0314476
0.0306089
0.0298475
0.0291636
0.0285766
0.0280835
0.0276644
0.0273015
0.0269857
0.0267129
0.0264795
0.0262813
0.0261142
0.0259751
0.0258617
0.025772
0.0257042
0.025657
0.0256292
0.0256196
0.0256274
0.0256518
0.0256921
0.0257476
0.0258177
0.0259018
0.0259993
0.0261095
0.0262318
0.0263653
0.0265093
0.0266628
0.0268247
0.0269939
0.027169
0.0273484
0.0275304
0.027713
0.0278937
0.0280699
0.0282383
0.0283951
0.0285356
0.0286547
0.0386634
0.0379729
0.036706
0.0351373
0.0336235
0.0323782
0.0313992
0.0305772
0.0298354
0.0291659
0.028585
0.0280936
0.0276753
0.0273132
0.0269976
0.026724
0.0264892
0.0262891
0.02612
0.0259786
0.0258626
0.02577
0.0256991
0.0256485
0.025617
0.0256035
0.025607
0.0256268
0.025662
0.0257121
0.0257762
0.0258539
0.0259444
0.026047
0.0261609
0.0262855
0.0264196
0.0265625
0.0267129
0.0268695
0.027031
0.0271958
0.0273619
0.0275273
0.0276895
0.0278457
0.0279925
0.0281262
0.0282421
0.0283352
0.0381148
0.0374966
0.0363551
0.034921
0.0335032
0.0323042
0.0313445
0.0305393
0.0298166
0.0291622
0.028589
0.0281002
0.0276831
0.027322
0.0270068
0.0267328
0.0264967
0.0262949
0.0261238
0.0259801
0.0258615
0.025766
0.025692
0.025638
0.0256028
0.0255852
0.0255843
0.0255993
0.0256294
0.0256738
0.0257319
0.0258029
0.0258862
0.025981
0.0260864
0.0262017
0.0263259
0.0264579
0.0265965
0.0267404
0.0268881
0.027038
0.0271881
0.0273362
0.0274798
0.027616
0.0277414
0.0278523
0.027944
0.0280116
0.0375865
0.0370326
0.0360035
0.0346935
0.0333696
0.0322205
0.0312833
0.0304951
0.029791
0.0291523
0.0285881
0.028103
0.0276876
0.0273277
0.0270133
0.0267391
0.026502
0.0262986
0.0261255
0.0259796
0.0258584
0.0257601
0.0256829
0.0256254
0.0255863
0.0255646
0.0255592
0.0255693
0.0255941
0.0256327
0.0256845
0.0257487
0.0258246
0.0259113
0.0260081
0.026114
0.0262279
0.0263488
0.0264755
0.0266065
0.0267403
0.0268752
0.0270091
0.0271398
0.0272648
0.0273811
0.0274853
0.0275737
0.0276416
0.0276844
0.0370775
0.0365806
0.0356524
0.0344565
0.0332234
0.0321268
0.0312152
0.0304447
0.0297589
0.0291362
0.0285821
0.0281017
0.0276885
0.0273302
0.0270167
0.0267426
0.0265047
0.0262999
0.0261249
0.0259768
0.0258531
0.0257519
0.0256714
0.0256104
0.0255675
0.0255415
0.0255315
0.0255366
0.0255559
0.0255886
0.025634
0.0256912
0.0257595
0.0258381
0.0259259
0.0260221
0.0261257
0.0262354
0.0263499
0.0264678
0.0265876
0.0267073
0.026825
0.0269384
0.0270448
0.0271413
0.0272246
0.0272908
0.0273355
0.0273542
0.0365864
0.0361402
0.0353025
0.0342115
0.0330655
0.032023
0.0311397
0.030388
0.0297202
0.0291137
0.0285706
0.028096
0.0276857
0.0273291
0.0270169
0.0267431
0.0265047
0.0262986
0.0261219
0.0259716
0.0258454
0.0257413
0.0256576
0.025593
0.0255461
0.0255158
0.0255011
0.025501
0.0255147
0.0255414
0.0255802
0.0256303
0.0256908
0.025761
0.0258398
0.0259262
0.0260191
0.0261174
0.0262197
0.0263244
0.0264299
0.0265345
0.0266359
0.0267319
0.0268199
0.0268968
0.0269594
0.0270039
0.0270261
0.0270214
0.0361121
0.0357112
0.0349547
0.0339596
0.0328968
0.0319092
0.0310567
0.0303248
0.029675
0.0290848
0.0285535
0.0280856
0.0276789
0.0273245
0.0270136
0.0267405
0.0265017
0.0262946
0.0261162
0.0259639
0.0258352
0.0257282
0.0256413
0.025573
0.0255221
0.0254874
0.0254678
0.0254625
0.0254705
0.025491
0.025523
0.0255658
0.0256184
0.02568
0.0257496
0.025826
0.0259083
0.025995
0.0260848
0.0261762
0.0262675
0.0263568
0.026442
0.0265207
0.0265904
0.026648
0.0266903
0.0267136
0.0267139
0.0266867
0.0356537
0.035293
0.0346095
0.0337022
0.0327181
0.0317856
0.0309658
0.0302551
0.0296233
0.0290494
0.0285305
0.0280703
0.0276678
0.027316
0.0270068
0.0267346
0.0264957
0.0262876
0.0261078
0.0259534
0.0258223
0.0257124
0.0256222
0.0255503
0.0254953
0.0254561
0.0254316
0.0254209
0.0254231
0.0254372
0.0254623
0.0254977
0.0255423
0.0255952
0.0256553
0.0257217
0.025793
0.025868
0.0259453
0.0260233
0.0261003
0.0261744
0.0262434
0.026305
0.0263566
0.0263952
0.0264176
0.0264204
0.0263994
0.0263506
0.0352101
0.0348854
0.0342674
0.0334403
0.0325305
0.0316526
0.0308671
0.0301787
0.0295651
0.0290075
0.0285015
0.0280498
0.0276522
0.0273034
0.0269962
0.026725
0.0264864
0.0262776
0.0260963
0.02594
0.0258065
0.0256938
0.0256003
0.0255246
0.0254655
0.0254218
0.0253923
0.0253761
0.0253723
0.0253799
0.0253981
0.0254258
0.0254622
0.0255063
0.0255569
0.025613
0.0256733
0.0257366
0.0258013
0.0258659
0.0259285
0.0259874
0.0260404
0.026085
0.0261187
0.0261388
0.0261418
0.0261246
0.0260832
0.0260138
0.0347804
0.0344879
0.0339288
0.033175
0.0323349
0.0315105
0.0307604
0.0300955
0.0295005
0.0289592
0.0284664
0.0280239
0.0276319
0.0272865
0.0269816
0.0267118
0.0264735
0.0262642
0.0260817
0.0259236
0.0257877
0.0256722
0.0255754
0.025496
0.0254327
0.0253843
0.0253497
0.025328
0.0253181
0.0253191
0.0253302
0.0253502
0.0253782
0.0254133
0.0254543
0.0255
0.0255493
0.0256007
0.0256527
0.0257039
0.0257523
0.0257961
0.0258331
0.025861
0.0258772
0.0258791
0.0258633
0.0258269
0.0257659
0.0256769
0.0343639
0.0341001
0.0335941
0.0329069
0.0321321
0.0313598
0.0306457
0.0300054
0.0294293
0.0289044
0.0284251
0.0279923
0.0276066
0.0272652
0.0269628
0.0266946
0.0264569
0.0262473
0.0260637
0.0259038
0.0257656
0.0256473
0.0255473
0.0254641
0.0253966
0.0253435
0.0253038
0.0252764
0.0252603
0.0252547
0.0252584
0.0252706
0.0252902
0.0253162
0.0253475
0.0253828
0.0254209
0.0254604
0.0254998
0.0255375
0.0255717
0.0256005
0.0256218
0.0256333
0.0256324
0.0256165
0.0255826
0.0255277
0.0254481
0.0253405
0.0339598
0.0337216
0.0332634
0.032637
0.031923
0.031201
0.0305233
0.0299083
0.0293517
0.0288431
0.0283775
0.0279549
0.0275762
0.0272392
0.0269397
0.0266732
0.0264364
0.0262267
0.0260421
0.0258806
0.0257402
0.0256191
0.0255158
0.0254289
0.0253571
0.0252992
0.0252543
0.0252212
0.0251989
0.0251864
0.0251828
0.0251871
0.0251982
0.025215
0.0252364
0.0252612
0.0252881
0.0253157
0.0253425
0.0253668
0.025387
0.025401
0.0254068
0.0254022
0.0253847
0.0253516
0.0253002
0.0252275
0.0251303
0.0250053
0.0335672
0.0333521
0.0329368
0.0323658
0.0317085
0.0310347
0.0303932
0.0298042
0.0292674
0.0287753
0.0283235
0.0279116
0.0275403
0.0272082
0.026912
0.0266476
0.0264118
0.0262022
0.0260168
0.0258538
0.0257112
0.0255874
0.0254808
0.0253901
0.025314
0.0252514
0.0252012
0.0251623
0.0251336
0.0251143
0.0251033
0.0250995
0.025102
0.0251096
0.0251211
0.0251354
0.0251511
0.0251668
0.025181
0.0251921
0.0251983
0.0251978
0.0251885
0.0251681
0.0251344
0.0250848
0.0250166
0.0249271
0.0248131
0.0246718
0.0331856
0.0329911
0.0326146
0.032094
0.0314891
0.0308615
0.0302558
0.0296932
0.0291765
0.0287011
0.0282632
0.0278623
0.0274989
0.0271722
0.0268795
0.0266174
0.0263828
0.0261735
0.0259875
0.0258231
0.0256785
0.025552
0.0254422
0.0253477
0.0252673
0.0251999
0.0251443
0.0250995
0.0250645
0.0250382
0.0250197
0.0250079
0.0250017
0.025
0.0250016
0.0250053
0.0250098
0.0250137
0.0250155
0.0250135
0.025006
0.0249912
0.024967
0.0249314
0.024882
0.0248165
0.0247323
0.0246268
0.0244972
0.0243406
0.0328143
0.0326384
0.0322968
0.0318221
0.0312658
0.0306819
0.0301112
0.0295752
0.0290791
0.0286204
0.0281965
0.0278068
0.0274517
0.0271309
0.0268421
0.0265825
0.0263494
0.0261405
0.0259541
0.0257884
0.0256418
0.0255127
0.0253997
0.0253015
0.0252168
0.0251445
0.0250835
0.0250329
0.0249914
0.0249581
0.0249321
0.0249121
0.0248972
0.0248862
0.0248779
0.0248711
0.0248645
0.0248566
0.0248461
0.0248311
0.0248102
0.0247814
0.0247428
0.0246924
0.024628
0.0245473
0.0244479
0.0243273
0.024183
0.0240125
0.0324527
0.0322934
0.0319833
0.0315503
0.031039
0.0304965
0.02996
0.0294505
0.0289751
0.0285333
0.0281235
0.0277451
0.0273987
0.027084