/*--------------------------------*- C++ -*----------------------------------*\
  =========                 |
  \\      /  F ield         | OpenFOAM: The Open Source CFD Toolbox
   \\    /   O peration     | Website:  https://openfoam.org
    \\  /    A nd           | Version:  7
     \\/     M anipulation  |
\*---------------------------------------------------------------------------*/
FoamFile
{
    version     2.0;
    format      ascii;
    class       surfaceScalarField;
    location    "0.11";
    object      phi;
}
// * * * * * * * * * * * * * * * * * * * * * * * * * * * * * * * * * * * * * //

dimensions      [0 3 -1 0 0 0 0];

internalField   nonuniform List<scalar> 
139350
(
6.45106e-08
9.21209e-08
3.19602e-08
3.25504e-08
2.30507e-08
8.9095e-09
1.95609e-08
3.48983e-09
1.76033e-08
1.95761e-09
1.61669e-08
1.43642e-09
1.50274e-08
1.13951e-09
1.41082e-08
9.19159e-10
1.33508e-08
7.57432e-10
1.27118e-08
6.39008e-10
1.21624e-08
5.49381e-10
1.16833e-08
4.79109e-10
1.12607e-08
4.22613e-10
1.08843e-08
3.7638e-10
1.05463e-08
3.38012e-10
1.02405e-08
3.05788e-10
9.96203e-09
2.78445e-10
9.70699e-09
2.55038e-10
9.47214e-09
2.34846e-10
9.25483e-09
2.17315e-10
9.05282e-09
2.02013e-10
8.86422e-09
1.88595e-10
8.68743e-09
1.7679e-10
8.52105e-09
1.66376e-10
8.36388e-09
1.57174e-10
8.21484e-09
1.49041e-10
8.07298e-09
1.41858e-10
7.93745e-09
1.35531e-10
7.80747e-09
1.29979e-10
7.68232e-09
1.2515e-10
7.56134e-09
1.20979e-10
7.44388e-09
1.17461e-10
7.32937e-09
1.14515e-10
7.21715e-09
1.12212e-10
7.10675e-09
1.10402e-10
6.99745e-09
1.093e-10
6.88888e-09
1.08573e-10
6.78016e-09
1.0872e-10
6.67111e-09
1.09051e-10
6.56061e-09
1.10501e-10
6.44868e-09
1.11926e-10
6.33416e-09
1.14519e-10
6.21678e-09
1.17381e-10
6.09681e-09
1.19976e-10
5.97097e-09
1.2584e-10
5.84724e-09
1.23731e-10
5.70761e-09
1.3963e-10
5.60229e-09
1.05314e-10
5.34474e-09
2.57554e-10
-2.3523e-09
7.69704e-09
1.25941e-07
1.27624e-07
9.12814e-08
6.721e-08
7.19185e-08
2.82723e-08
6.11905e-08
1.42179e-08
5.47397e-08
8.40843e-09
5.02287e-08
5.94736e-09
4.67271e-08
4.64108e-09
4.38962e-08
3.75012e-09
4.15553e-08
3.09828e-09
3.95792e-08
2.61509e-09
3.78808e-08
2.24787e-09
3.63998e-08
1.96008e-09
3.50935e-08
1.72886e-09
3.39303e-08
1.53962e-09
3.28858e-08
1.38251e-09
3.19411e-08
1.25047e-09
3.10812e-08
1.13836e-09
3.02939e-08
1.04231e-09
2.95694e-08
9.59381e-10
2.88994e-08
8.87305e-10
2.82771e-08
8.24309e-10
2.76967e-08
7.68991e-10
2.71533e-08
7.20227e-10
2.66425e-08
6.77113e-10
2.61608e-08
6.38917e-10
2.57048e-08
6.05043e-10
2.52717e-08
5.75004e-10
2.48588e-08
5.4841e-10
2.44638e-08
5.24933e-10
2.40846e-08
5.04337e-10
2.37192e-08
4.86387e-10
2.33657e-08
4.70992e-10
2.30223e-08
4.5793e-10
2.26872e-08
4.47314e-10
2.23588e-08
4.38784e-10
2.20352e-08
4.32851e-10
2.17151e-08
4.28679e-10
2.13962e-08
4.2765e-10
2.10775e-08
4.27726e-10
2.07559e-08
4.32127e-10
2.04316e-08
4.36256e-10
2.00993e-08
4.46756e-10
1.97621e-08
4.54586e-10
1.9411e-08
4.71087e-10
1.90541e-08
4.82717e-10
1.86782e-08
4.99717e-10
1.82929e-08
5.24893e-10
1.79246e-08
4.73656e-10
1.74084e-08
7.73727e-10
-2.58404e-09
1.76401e-08
1.58751e-07
1.35276e-07
1.36519e-07
8.94418e-08
1.17473e-07
4.73179e-08
1.03279e-07
2.84118e-08
9.32659e-08
1.8422e-08
8.59441e-08
1.32692e-08
8.02137e-08
1.03715e-08
7.55391e-08
8.42469e-09
7.16385e-08
6.99893e-09
6.83243e-08
5.92924e-09
6.54634e-08
5.10882e-09
6.29608e-08
4.46266e-09
6.07479e-08
3.94178e-09
5.87732e-08
3.51429e-09
5.69972e-08
3.15847e-09
5.5389e-08
2.85877e-09
5.39236e-08
2.60377e-09
5.2581e-08
2.38488e-09
5.13448e-08
2.19556e-09
5.02014e-08
2.03074e-09
4.91393e-08
1.88643e-09
4.81488e-08
1.75948e-09
4.72216e-08
1.64735e-09
4.63507e-08
1.54801e-09
4.55299e-08
1.45978e-09
4.47536e-08
1.38131e-09
4.40171e-08
1.3115e-09
4.33161e-08
1.24944e-09
4.26466e-08
1.1944e-09
4.20052e-08
1.14581e-09
4.13884e-08
1.10317e-09
4.07932e-08
1.06618e-09
4.02167e-08
1.03445e-09
3.96559e-08
1.00804e-09
3.91083e-08
9.86387e-10
3.85709e-08
9.70258e-10
3.80413e-08
9.58307e-10
3.7516e-08
9.52932e-10
3.69933e-08
9.50416e-10
3.64683e-08
9.57202e-10
3.59411e-08
9.63419e-10
3.54028e-08
9.8501e-10
3.48596e-08
9.97783e-10
3.42928e-08
1.03794e-09
3.37229e-08
1.05258e-09
3.3112e-08
1.11063e-09
3.25034e-08
1.13346e-09
3.18719e-08
1.10517e-09
3.11957e-08
1.44998e-09
-1.77253e-09
3.03842e-08
1.7561e-07
1.31182e-07
1.65618e-07
9.94345e-08
1.52718e-07
6.02174e-08
1.40092e-07
4.10383e-08
1.29389e-07
2.91244e-08
1.20725e-07
2.19339e-08
1.13584e-07
1.75116e-08
1.07575e-07
1.44344e-08
1.02446e-07
1.21278e-08
9.80157e-08
1.03594e-08
9.41447e-08
8.9798e-09
9.07273e-08
7.88006e-09
8.76835e-08
6.9856e-09
8.49515e-08
6.24628e-09
8.24828e-08
5.62722e-09
8.02384e-08
5.10316e-09
7.81868e-08
4.65533e-09
7.63023e-08
4.26945e-09
7.45632e-08
3.93458e-09
7.29518e-08
3.64214e-09
7.14529e-08
3.38537e-09
7.00535e-08
3.15887e-09
6.87426e-08
2.95829e-09
6.75105e-08
2.78009e-09
6.63489e-08
2.62138e-09
6.52504e-08
2.47981e-09
6.42084e-08
2.35343e-09
6.32172e-08
2.24066e-09
6.22714e-08
2.14022e-09
6.13661e-08
2.05105e-09
6.0497e-08
1.9723e-09
5.96598e-08
1.90339e-09
5.88506e-08
1.84368e-09
5.80655e-08
1.79312e-09
5.73009e-08
1.75095e-09
5.65531e-08
1.71812e-09
5.58186e-08
1.69277e-09
5.50931e-08
1.67838e-09
5.43742e-08
1.6694e-09
5.36554e-08
1.67598e-09
5.29367e-08
1.68207e-09
5.22069e-08
1.71487e-09
5.1473e-08
1.73169e-09
5.07113e-08
1.79965e-09
4.99467e-08
1.81711e-09
4.91316e-08
1.92578e-09
4.83186e-08
1.94647e-09
4.7461e-08
1.96276e-09
4.6616e-08
2.29499e-09
-5.33361e-10
4.53768e-08
1.84509e-07
1.23458e-07
1.82337e-07
1.01607e-07
1.76109e-07
6.64455e-08
1.67736e-07
4.94106e-08
1.59096e-07
3.77649e-08
1.51164e-07
2.98656e-08
1.44061e-07
2.46142e-08
1.37729e-07
2.07667e-08
1.32095e-07
1.77614e-08
1.27077e-07
1.53777e-08
1.22589e-07
1.3468e-08
1.18555e-07
1.19145e-08
1.14909e-07
1.06307e-08
1.116e-07
9.55603e-09
1.0858e-07
8.64659e-09
1.05814e-07
7.86987e-09
1.03268e-07
7.20108e-09
1.00916e-07
6.62108e-09
9.87359e-08
6.11486e-09
9.67075e-08
5.67056e-09
9.48141e-08
5.2787e-09
9.30414e-08
4.9316e-09
9.13767e-08
4.62304e-09
8.98089e-08
4.34789e-09
8.83283e-08
4.10197e-09
8.69263e-08
3.8818e-09
8.55952e-08
3.68453e-09
8.4328e-08
3.5078e-09
8.31186e-08
3.3497e-09
8.1961e-08
3.20862e-09
8.085e-08
3.08332e-09
7.97805e-08
2.97284e-09
7.87479e-08
2.87631e-09
7.77476e-08
2.79346e-09
7.67751e-08
2.72338e-09
7.58262e-08
2.6671e-09
7.48966e-08
2.62235e-09
7.39814e-08
2.59359e-09
7.30772e-08
2.57353e-09
7.21773e-08
2.57595e-09
7.12805e-08
2.5788e-09
7.0375e-08
2.62036e-09
6.94667e-08
2.64008e-09
6.85317e-08
2.73458e-09
6.75914e-08
2.75744e-09
6.6603e-08
2.91422e-09
6.56059e-08
2.94357e-09
6.45671e-08
3.0015e-09
6.35348e-08
3.32733e-09
9.12667e-10
6.20888e-08
1.90342e-07
1.15332e-07
1.91856e-07
1.00093e-07
1.90254e-07
6.80478e-08
1.86138e-07
5.35269e-08
1.80681e-07
4.32211e-08
1.74906e-07
3.56409e-08
1.69181e-07
3.03397e-08
1.63663e-07
2.6284e-08
1.58453e-07
2.29719e-08
1.53592e-07
2.02382e-08
1.49085e-07
1.7975e-08
1.44916e-07
1.60838e-08
1.41061e-07
1.44861e-08
1.37493e-07
1.31238e-08
1.34187e-07
1.1953e-08
1.31116e-07
1.09399e-08
1.2826e-07
1.00577e-08
1.25596e-07
9.28511e-09
1.23106e-07
8.60508e-09
1.20772e-07
8.00377e-09
1.18581e-07
7.46991e-09
1.16519e-07
6.99421e-09
1.14573e-07
6.56903e-09
1.12733e-07
6.18799e-09
1.10989e-07
5.84582e-09
1.09332e-07
5.5381e-09
1.07756e-07
5.26117e-09
1.06252e-07
5.01195e-09
1.04813e-07
4.78795e-09
1.03435e-07
4.58708e-09
1.02111e-07
4.40769e-09
1.00835e-07
4.24846e-09
9.96029e-08
4.10831e-09
9.84096e-08
3.98676e-09
9.72502e-08
3.88274e-09
9.612e-08
3.79736e-09
9.50143e-08
3.72803e-09
9.39279e-08
3.67998e-09
9.28568e-08
3.64459e-09
9.17942e-08
3.63863e-09
9.07377e-08
3.63525e-09
8.96764e-08
3.68166e-09
8.86129e-08
3.70357e-09
8.75279e-08
3.81961e-09
8.64328e-08
3.85256e-09
8.53e-08
4.04702e-09
8.41426e-08
4.1009e-09
8.29587e-08
4.18539e-09
8.17563e-08
4.5298e-09
2.51618e-09
8.01528e-08
1.95503e-07
1.07644e-07
1.98244e-07
9.7352e-08
1.98979e-07
6.73134e-08
1.97776e-07
5.47291e-08
1.95129e-07
4.58686e-08
1.9177e-07
3.89997e-08
1.88013e-07
3.40967e-08
1.84032e-07
3.02657e-08
1.79977e-07
2.70268e-08
1.7596e-07
2.42549e-08
1.7205e-07
2.18846e-08
1.68288e-07
1.98466e-08
1.64692e-07
1.80814e-08
1.61273e-07
1.65429e-08
1.58031e-07
1.51953e-08
1.54961e-07
1.40096e-08
1.52057e-07
1.2962e-08
1.49309e-07
1.20328e-08
1.46709e-07
1.12057e-08
1.44245e-07
1.0467e-08
1.4191e-07
9.80529e-09
1.39693e-07
9.211e-09
1.37586e-07
8.676e-09
1.35581e-07
8.19341e-09
1.33669e-07
7.75742e-09
1.31844e-07
7.36312e-09
1.30099e-07
7.00636e-09
1.28427e-07
6.68364e-09
1.26823e-07
6.3921e-09
1.25281e-07
6.12927e-09
1.23795e-07
5.89328e-09
1.22361e-07
5.68254e-09
1.20974e-07
5.49582e-09
1.19628e-07
5.3325e-09
1.18319e-07
5.19145e-09
1.17043e-07
5.07382e-09
1.15794e-07
4.97686e-09
1.14568e-07
4.90638e-09
1.13359e-07
4.85294e-09
1.12162e-07
4.83537e-09
1.10974e-07
4.82384e-09
1.09784e-07
4.87126e-09
1.08592e-07
4.89551e-09
1.07385e-07
5.02687e-09
1.06162e-07
5.07524e-09
1.04914e-07
5.2951e-09
1.03628e-07
5.38726e-09
1.02326e-07
5.48693e-09
1.00992e-07
5.86425e-09
4.24637e-09
9.92618e-08
2.00819e-07
1.0041e-07
2.03769e-07
9.44017e-08
2.05339e-07
6.57435e-08
2.05634e-07
5.44341e-08
2.04793e-07
4.6709e-08
2.03299e-07
4.04939e-08
2.01331e-07
3.60649e-08
1.98974e-07
3.26228e-08
1.96335e-07
2.96653e-08
1.93519e-07
2.70713e-08
1.90606e-07
2.47974e-08
1.87658e-07
2.27947e-08
1.8472e-07
2.10197e-08
1.81824e-07
1.94389e-08
1.78993e-07
1.80265e-08
1.76241e-07
1.67612e-08
1.73578e-07
1.5625e-08
1.71008e-07
1.46024e-08
1.68534e-07
1.368e-08
1.66155e-07
1.28464e-08
1.63868e-07
1.20917e-08
1.61672e-07
1.14072e-08
1.59562e-07
1.07857e-08
1.57535e-07
1.02205e-08
1.55586e-07
9.70623e-09
1.53712e-07
9.23795e-09
1.51906e-07
8.8116e-09
1.50166e-07
8.42363e-09
1.48487e-07
8.07115e-09
1.46865e-07
7.75161e-09
1.45295e-07
7.46312e-09
1.43774e-07
7.204e-09
1.42296e-07
6.97307e-09
1.40859e-07
6.76964e-09
1.39458e-07
6.59269e-09
1.38089e-07
6.4434e-09
1.36746e-07
6.31911e-09
1.35427e-07
6.22597e-09
1.34125e-07
6.15433e-09
1.32837e-07
6.1241e-09
1.31556e-07
6.10439e-09
1.30277e-07
6.15046e-09
1.28994e-07
6.17833e-09
1.27701e-07
6.31993e-09
1.26388e-07
6.38852e-09
1.25059e-07
6.62424e-09
1.23683e-07
6.76276e-09
1.22294e-07
6.87559e-09
1.2087e-07
7.28861e-09
6.05624e-09
1.1906e-07
2.06422e-07
9.35201e-08
2.09328e-07
9.14952e-08
2.1105e-07
6.40221e-08
2.11925e-07
5.35589e-08
2.1198e-07
4.66541e-08
2.11583e-07
4.08908e-08
2.10837e-07
3.6811e-08
2.09744e-07
3.37157e-08
2.08343e-07
3.10663e-08
2.06693e-07
2.87218e-08
2.04849e-07
2.6641e-08
2.02862e-07
2.47818e-08
2.00774e-07
2.31071e-08
1.98623e-07
2.15901e-08
1.96438e-07
2.02117e-08
1.94243e-07
1.89566e-08
1.92056e-07
1.7812e-08
1.89891e-07
1.67668e-08
1.8776e-07
1.58113e-08
1.85669e-07
1.4937e-08
1.83625e-07
1.41362e-08
1.8163e-07
1.34023e-08
1.79686e-07
1.27294e-08
1.77794e-07
1.21122e-08
1.75955e-07
1.15458e-08
1.74166e-07
1.10263e-08
1.72428e-07
1.055e-08
1.70738e-07
1.01138e-08
1.69094e-07
9.715e-09
1.67494e-07
9.35143e-09
1.65936e-07
9.02136e-09
1.64416e-07
8.72328e-09
1.62933e-07
8.45622e-09
1.61483e-07
8.21961e-09
1.60063e-07
8.01266e-09
1.5867e-07
7.83669e-09
1.573e-07
7.68931e-09
1.55949e-07
7.57689e-09
1.54613e-07
7.49005e-09
1.53288e-07
7.44906e-09
1.51969e-07
7.42352e-09
1.50651e-07
7.46835e-09
1.49327e-07
7.50245e-09
1.47995e-07
7.65176e-09
1.46639e-07
7.7446e-09
1.45272e-07
7.99111e-09
1.43856e-07
8.17916e-09
1.42421e-07
8.31042e-09
1.40952e-07
8.75731e-09
7.8894e-09
1.39119e-07
2.12268e-07
8.69144e-08
2.15137e-07
8.86262e-08
2.16804e-07
6.23547e-08
2.17839e-07
5.25241e-08
2.1824e-07
4.62534e-08
2.18346e-07
4.07842e-08
2.18256e-07
3.6901e-08
2.17938e-07
3.40343e-08
2.17384e-07
3.16202e-08
2.16613e-07
2.94922e-08
2.15651e-07
2.76038e-08
2.14521e-07
2.59117e-08
2.1325e-07
2.43776e-08
2.11865e-07
2.29756e-08
2.10388e-07
2.1688e-08
2.08843e-07
2.05022e-08
2.07247e-07
1.94078e-08
2.05617e-07
1.83966e-08
2.03967e-07
1.74614e-08
2.02308e-07
1.6596e-08
2.0065e-07
1.57949e-08
1.98998e-07
1.50534e-08
1.97361e-07
1.4367e-08
1.95741e-07
1.37319e-08
1.94143e-07
1.31444e-08
1.92568e-07
1.26013e-08
1.91018e-07
1.21e-08
1.89494e-07
1.16378e-08
1.87996e-07
1.12128e-08
1.86524e-07
1.08231e-08
1.85078e-07
1.04675e-08
1.83656e-07
1.01448e-08
1.82258e-07
9.85432e-09
1.80882e-07
9.59589e-09
1.79526e-07
9.36902e-09
1.78187e-07
9.17529e-09
1.76864e-07
9.01267e-09
1.75553e-07
8.8878e-09
1.74251e-07
8.79183e-09
1.72955e-07
8.74494e-09
1.7166e-07
8.71829e-09
1.70364e-07
8.76464e-09
1.69058e-07
8.80899e-09
1.67743e-07
8.96629e-09
1.66401e-07
9.08704e-09
1.65048e-07
9.34343e-09
1.63646e-07
9.58131e-09
1.62216e-07
9.74024e-09
1.60755e-07
1.02188e-08
9.68542e-09
1.58959e-07
2.18314e-07
8.05812e-08
2.21186e-07
8.57538e-08
2.22777e-07
6.07642e-08
2.2384e-07
5.14612e-08
2.24349e-07
4.57442e-08
2.24633e-07
4.04998e-08
2.24821e-07
3.67137e-08
2.24882e-07
3.39732e-08
2.24796e-07
3.17061e-08
2.24563e-07
2.97251e-08
2.24188e-07
2.79793e-08
2.23676e-07
2.64236e-08
2.23036e-07
2.50168e-08
2.22282e-07
2.37303e-08
2.21425e-07
2.25453e-08
2.20478e-07
2.14486e-08
2.19456e-07
2.04303e-08
2.1837e-07
1.94827e-08
2.17232e-07
1.85994e-08
2.16052e-07
1.77755e-08
2.1484e-07
1.70066e-08
2.13604e-07
1.62892e-08
2.12351e-07
1.562e-08
2.11087e-07
1.49961e-08
2.09817e-07
1.4415e-08
2.08544e-07
1.38743e-08
2.07272e-07
1.3372e-08
2.06003e-07
1.29063e-08
2.0474e-07
1.24758e-08
2.03484e-07
1.20792e-08
2.02236e-07
1.17157e-08
2.00996e-07
1.13845e-08
1.99765e-07
1.10856e-08
1.98542e-07
1.08189e-08
1.97326e-07
1.05845e-08
1.96117e-07
1.03842e-08
1.94914e-07
1.02165e-08
1.93713e-07
1.00883e-08
1.92514e-07
9.9913e-09
1.91313e-07
9.94549e-09
1.90107e-07
9.92421e-09
1.88895e-07
9.97684e-09
1.87667e-07
1.00366e-08
1.86429e-07
1.02044e-08
1.8516e-07
1.03565e-08
1.83878e-07
1.06249e-08
1.82548e-07
1.09115e-08
1.8118e-07
1.11085e-08
1.79781e-07
1.16175e-08
1.13833e-08
1.78083e-07
2.24547e-07
7.45269e-08
2.27446e-07
8.28553e-08
2.28972e-07
5.92377e-08
2.30042e-07
5.03913e-08
2.30592e-07
4.51948e-08
2.30925e-07
4.0167e-08
2.31202e-07
3.64367e-08
2.31411e-07
3.37634e-08
2.31535e-07
3.15823e-08
2.31571e-07
2.96892e-08
2.31518e-07
2.80322e-08
2.31375e-07
2.65671e-08
2.3114e-07
2.52512e-08
2.30817e-07
2.40536e-08
2.30408e-07
2.29538e-08
2.2992e-07
2.1937e-08
2.29358e-07
2.09925e-08
2.28728e-07
2.01119e-08
2.28039e-07
1.92888e-08
2.27296e-07
1.85181e-08
2.26507e-07
1.77958e-08
2.25678e-07
1.71186e-08
2.24814e-07
1.64838e-08
2.23921e-07
1.58892e-08
2.23003e-07
1.53326e-08
2.22065e-07
1.48124e-08
2.2111e-07
1.4327e-08
2.20142e-07
1.38752e-08
2.19161e-07
1.34559e-08
2.18172e-07
1.30685e-08
2.17175e-07
1.27124e-08
2.16172e-07
1.23874e-08
2.15164e-07
1.20937e-08
2.14151e-07
1.18317e-08
2.13134e-07
1.16017e-08
2.12112e-07
1.14061e-08
2.11085e-07
1.12436e-08
2.10052e-07
1.11214e-08
2.09011e-07
1.1032e-08
2.07962e-07
1.09948e-08
2.069e-07
1.09859e-08
2.05827e-07
1.10503e-08
2.04733e-07
1.11307e-08
2.03624e-07
1.13127e-08
2.02482e-07
1.1499e-08
2.01323e-07
1.17835e-08
2.00118e-07
1.21166e-08
1.98865e-07
1.23614e-08
1.97582e-07
1.29009e-08
1.29276e-08
1.96038e-07
2.30973e-07
6.87594e-08
2.33907e-07
7.99218e-08
2.35376e-07
5.77684e-08
2.36454e-07
4.93133e-08
2.37036e-07
4.46128e-08
2.37383e-07
3.98196e-08
2.37682e-07
3.61383e-08
2.37937e-07
3.35079e-08
2.38137e-07
3.1383e-08
2.38282e-07
2.95438e-08
2.38375e-07
2.79388e-08
2.38415e-07
2.65277e-08
2.38398e-07
2.52683e-08
2.38322e-07
2.41289e-08
2.38189e-07
2.30877e-08
2.37996e-07
2.21292e-08
2.37747e-07
2.12416e-08
2.37443e-07
2.04158e-08
2.37087e-07
1.96448e-08
2.36683e-07
1.89229e-08
2.36232e-07
1.8246e-08
2.3574e-07
1.76107e-08
2.3521e-07
1.70143e-08
2.34644e-07
1.64545e-08
2.34047e-07
1.59296e-08
2.33422e-07
1.5438e-08
2.3277e-07
1.49786e-08
2.32095e-07
1.45501e-08
2.31399e-07
1.41521e-08
2.30683e-07
1.37839e-08
2.2995e-07
1.34455e-08
2.29201e-07
1.31367e-08
2.28437e-07
1.2858e-08
2.27658e-07
1.26103e-08
2.26866e-07
1.2394e-08
2.2606e-07
1.22118e-08
2.25241e-07
1.20628e-08
2.24408e-07
1.19543e-08
2.2356e-07
1.18798e-08
2.22697e-07
1.18577e-08
2.21816e-07
1.1867e-08
2.20918e-07
1.19482e-08
2.19995e-07
1.20536e-08
2.19055e-07
1.22534e-08
2.18078e-07
1.24754e-08
2.17082e-07
1.27802e-08
2.16041e-07
1.31569e-08
2.14946e-07
1.34565e-08
2.1382e-07
1.40273e-08
1.42758e-08
2.12472e-07
2.376e-07
6.32845e-08
2.40572e-07
7.69492e-08
2.41984e-07
5.63563e-08
2.43069e-07
4.82284e-08
2.43688e-07
4.39945e-08
2.44048e-07
3.94597e-08
2.44351e-07
3.58349e-08
2.44619e-07
3.32404e-08
2.4484e-07
3.11613e-08
2.45022e-07
2.93621e-08
2.45169e-07
2.77912e-08
2.45284e-07
2.64131e-08
2.45364e-07
2.51879e-08
2.45409e-07
2.4084e-08
2.45418e-07
2.30794e-08
2.45389e-07
2.21584e-08
2.45321e-07
2.13088e-08
2.45216e-07
2.05212e-08
2.45073e-07
1.97879e-08
2.44893e-07
1.91032e-08
2.44676e-07
1.84622e-08
2.44426e-07
1.78615e-08
2.44142e-07
1.72982e-08
2.43826e-07
1.677e-08
2.43481e-07
1.6275e-08
2.43107e-07
1.58118e-08
2.42706e-07
1.53792e-08
2.4228e-07
1.49762e-08
2.4183e-07
1.46022e-08
2.41358e-07
1.42568e-08
2.40863e-07
1.394e-08
2.40348e-07
1.3652e-08
2.39813e-07
1.33932e-08
2.39258e-07
1.31647e-08
2.38685e-07
1.29672e-08
2.38093e-07
1.28035e-08
2.37483e-07
1.2673e-08
2.36854e-07
1.2583e-08
2.36206e-07
1.25279e-08
2.35539e-07
1.25249e-08
2.3485e-07
1.25562e-08
2.34141e-07
1.26573e-08
2.33404e-07
1.27901e-08
2.32648e-07
1.301e-08
2.31856e-07
1.32674e-08
2.3104e-07
1.35959e-08
2.30185e-07
1.40123e-08
2.29271e-07
1.43702e-08
2.28325e-07
1.49728e-08
1.54052e-08
2.27196e-07
2.44435e-07
5.81058e-08
2.47446e-07
7.39382e-08
2.48803e-07
5.49997e-08
2.4989e-07
4.71408e-08
2.50546e-07
4.33381e-08
2.50922e-07
3.90837e-08
2.5123e-07
3.55275e-08
2.51502e-07
3.29678e-08
2.51731e-07
3.09327e-08
2.51923e-07
2.91703e-08
2.52087e-07
2.76272e-08
2.52227e-07
2.62733e-08
2.52343e-07
2.50713e-08
2.52437e-07
2.39903e-08
2.52507e-07
2.30088e-08
2.52555e-07
2.21113e-08
2.52578e-07
2.12858e-08
2.52576e-07
2.05226e-08
2.5255e-07
1.98141e-08
2.52499e-07
1.91543e-08
2.52423e-07
1.85383e-08
2.52322e-07
1.79624e-08
2.52197e-07
1.74235e-08
2.52047e-07
1.69194e-08
2.51874e-07
1.64481e-08
2.51678e-07
1.60081e-08
2.51459e-07
1.55982e-08
2.51217e-07
1.52174e-08
2.50954e-07
1.48652e-08
2.5067e-07
1.45412e-08
2.50365e-07
1.42453e-08
2.50039e-07
1.39778e-08
2.49693e-07
1.37392e-08
2.49327e-07
1.35308e-08
2.48941e-07
1.3353e-08
2.48535e-07
1.32092e-08
2.4811e-07
1.30986e-08
2.47664e-07
1.30286e-08
2.47198e-07
1.29943e-08
2.46711e-07
1.30117e-08
2.46201e-07
1.30663e-08
2.4567e-07
1.3188e-08
2.45112e-07
1.33483e-08
2.44533e-07
1.3589e-08
2.43921e-07
1.38797e-08
2.43283e-07
1.42334e-08
2.42611e-07
1.46846e-08
2.4188e-07
1.51007e-08
2.41118e-07
1.5735e-08
1.63157e-08
2.40208e-07
2.51487e-07
5.32254e-08
2.54526e-07
7.0899e-08
2.55838e-07
5.36877e-08
2.56923e-07
4.60561e-08
2.57617e-07
4.26443e-08
2.58012e-07
3.86889e-08
2.58324e-07
3.52148e-08
2.58602e-07
3.26906e-08
2.58835e-07
3.06996e-08
2.5903e-07
2.89748e-08
2.59199e-07
2.74587e-08
2.59346e-07
2.61264e-08
2.59473e-07
2.49436e-08
2.59583e-07
2.38804e-08
2.59676e-07
2.29157e-08
2.59753e-07
2.20344e-08
2.59814e-07
2.12249e-08
2.59859e-07
2.04777e-08
2.59888e-07
1.97853e-08
2.599e-07
1.91417e-08
2.59897e-07
1.85419e-08
2.59877e-07
1.79824e-08
2.5984e-07
1.746e-08
2.59787e-07
1.69725e-08
2.59717e-07
1.65179e-08
2.59631e-07
1.60947e-08
2.59527e-07
1.57018e-08
2.59406e-07
1.53381e-08
2.59268e-07
1.50031e-08
2.59113e-07
1.46964e-08
2.58941e-07
1.4418e-08
2.5875e-07
1.4168e-08
2.58542e-07
1.39471e-08
2.58317e-07
1.37566e-08
2.58073e-07
1.35969e-08
2.5781e-07
1.34714e-08
2.5753e-07
1.33795e-08
2.5723e-07
1.33284e-08
2.5691e-07
1.3314e-08
2.56571e-07
1.33508e-08
2.5621e-07
1.34273e-08
2.55829e-07
1.35687e-08
2.55423e-07
1.37545e-08
2.54997e-07
1.40152e-08
2.54541e-07
1.43352e-08
2.54061e-07
1.4714e-08
2.53551e-07
1.51949e-08
2.52986e-07
1.56656e-08
2.5239e-07
1.63304e-08
1.70276e-08
2.51678e-07
2.58765e-07
4.86435e-08
2.61822e-07
6.7842e-08
2.631e-07
5.24092e-08
2.64177e-07
4.49794e-08
2.64906e-07
4.19156e-08
2.65322e-07
3.82732e-08
2.6564e-07
3.48959e-08
2.65923e-07
3.24083e-08
2.66161e-07
3.04618e-08
2.66359e-07
2.87763e-08
2.6653e-07
2.72883e-08
2.66679e-07
2.59775e-08
2.66809e-07
2.48131e-08
2.66923e-07
2.37663e-08
2.67023e-07
2.28161e-08
2.67109e-07
2.19481e-08
2.67183e-07
2.1151e-08
2.67245e-07
2.04157e-08
2.67296e-07
1.97347e-08
2.67335e-07
1.91022e-08
2.67363e-07
1.85135e-08
2.67381e-07
1.79649e-08
2.67387e-07
1.74535e-08
2.67383e-07
1.69771e-08
2.67367e-07
1.65338e-08
2.67339e-07
1.61222e-08
2.673e-07
1.57412e-08
2.67248e-07
1.53897e-08
2.67184e-07
1.50673e-08
2.67107e-07
1.47736e-08
2.67016e-07
1.45085e-08
2.66912e-07
1.42724e-08
2.66793e-07
1.40657e-08
2.6666e-07
1.38898e-08
2.66512e-07
1.37452e-08
2.66348e-07
1.36351e-08
2.66168e-07
1.35594e-08
2.65972e-07
1.35246e-08
2.65758e-07
1.35277e-08
2.65528e-07
1.35815e-08
2.65277e-07
1.36776e-08
2.6501e-07
1.38364e-08
2.6472e-07
1.40445e-08
2.64412e-07
1.43233e-08
2.64079e-07
1.46681e-08
2.63722e-07
1.50704e-08
2.63341e-07
1.55757e-08
2.62912e-07
1.60955e-08
2.62453e-07
1.67889e-08
1.75752e-08
2.61905e-07
2.66277e-07
4.43589e-08
2.69341e-07
6.4778e-08
2.70596e-07
5.11535e-08
2.71661e-07
4.39148e-08
2.72422e-07
4.11548e-08
2.7286e-07
3.78351e-08
2.73186e-07
3.45701e-08
2.73473e-07
3.21209e-08
2.73716e-07
3.02188e-08
2.73918e-07
2.85743e-08
2.74091e-07
2.71159e-08
2.74241e-07
2.58274e-08
2.74372e-07
2.46818e-08
2.74487e-07
2.36511e-08
2.74588e-07
2.27152e-08
2.74676e-07
2.18598e-08
2.74753e-07
2.10739e-08
2.7482e-07
2.03489e-08
2.74878e-07
1.96774e-08
2.74926e-07
1.90538e-08
2.74966e-07
1.84736e-08
2.74998e-07
1.79331e-08
2.75022e-07
1.74296e-08
2.75038e-07
1.6961e-08
2.75046e-07
1.65257e-08
2.75046e-07
1.61222e-08
2.75038e-07
1.57496e-08
2.7502e-07
1.54069e-08
2.74994e-07
1.50936e-08
2.74958e-07
1.48095e-08
2.74912e-07
1.45545e-08
2.74856e-07
1.43289e-08
2.74788e-07
1.41332e-08
2.74709e-07
1.39689e-08
2.74618e-07
1.38364e-08
2.74514e-07
1.3739e-08
2.74397e-07
1.36766e-08
2.74266e-07
1.36554e-08
2.7412e-07
1.36733e-08
2.7396e-07
1.37415e-08
2.73784e-07
1.38542e-08
2.73592e-07
1.40279e-08
2.73382e-07
1.42548e-08
2.73156e-07
1.45495e-08
2.72909e-07
1.49145e-08
2.72641e-07
1.53382e-08
2.72354e-07
1.58636e-08
2.72023e-07
1.64259e-08
2.71667e-07
1.71455e-08
1.79986e-08
2.71243e-07
2.74032e-07
4.03685e-08
2.77092e-07
6.17179e-08
2.78335e-07
4.99106e-08
2.79383e-07
4.2866e-08
2.80172e-07
4.0366e-08
2.80634e-07
3.7373e-08
2.80968e-07
3.42363e-08
2.81261e-07
3.18284e-08
2.81509e-07
2.99705e-08
2.81715e-07
2.83685e-08
2.81889e-07
2.69413e-08
2.82041e-07
2.5676e-08
2.82173e-07
2.45497e-08
2.82288e-07
2.35357e-08
2.82389e-07
2.26142e-08
2.82477e-07
2.17714e-08
2.82555e-07
2.09967e-08
2.82622e-07
2.02815e-08
2.8268e-07
1.9619e-08
2.82731e-07
1.90036e-08
2.82773e-07
1.84308e-08
2.82809e-07
1.78972e-08
2.82839e-07
1.74003e-08
2.82862e-07
1.6938e-08
2.82878e-07
1.65089e-08
2.82889e-07
1.61118e-08
2.82893e-07
1.57456e-08
2.8289e-07
1.54096e-08
2.8288e-07
1.51034e-08
2.82863e-07
1.48268e-08
2.82838e-07
1.45796e-08
2.82804e-07
1.43624e-08
2.82762e-07
1.41755e-08
2.8271e-07
1.40206e-08
2.82649e-07
1.3898e-08
2.82577e-07
1.3811e-08
2.82494e-07
1.37596e-08
2.824e-07
1.37498e-08
2.82293e-07
1.37802e-08
2.82174e-07
1.38605e-08
2.82041e-07
1.39874e-08
2.81895e-07
1.41737e-08
2.81733e-07
1.44164e-08
2.81558e-07
1.4725e-08
2.81366e-07
1.51065e-08
2.81155e-07
1.55494e-08
2.80927e-07
1.60914e-08
2.80663e-07
1.66899e-08
2.80375e-07
1.74335e-08
1.83359e-08
2.80037e-07
2.82038e-07
3.66676e-08
2.85084e-07
5.86726e-08
2.86324e-07
4.86707e-08
2.87354e-07
4.18359e-08
2.88166e-07
3.95534e-08
2.88654e-07
3.68856e-08
2.88996e-07
3.38936e-08
2.89294e-07
3.15311e-08
2.89547e-07
2.97167e-08
2.89757e-07
2.81587e-08
2.89934e-07
2.67643e-08
2.90087e-07
2.55232e-08
2.9022e-07
2.44168e-08
2.90336e-07
2.342e-08
2.90436e-07
2.25134e-08
2.90524e-07
2.16834e-08
2.90601e-07
2.092e-08
2.90668e-07
2.02149e-08
2.90725e-07
1.95613e-08
2.90775e-07
1.89539e-08
2.90818e-07
1.83882e-08
2.90854e-07
1.78612e-08
2.90884e-07
1.73704e-08
2.90908e-07
1.69139e-08
2.90926e-07
1.64904e-08
2.90939e-07
1.60987e-08
2.90947e-07
1.57382e-08
2.90948e-07
1.5408e-08
2.90944e-07
1.51078e-08
2.90933e-07
1.48375e-08
2.90916e-07
1.4597e-08
2.90892e-07
1.43869e-08
2.90859e-07
1.42076e-08
2.90819e-07
1.40606e-08
2.90771e-07
1.39466e-08
2.90713e-07
1.38685e-08
2.90646e-07
1.38268e-08
2.90569e-07
1.38268e-08
2.90481e-07
1.38681e-08
2.90383e-07
1.3959e-08
2.90272e-07
1.4098e-08
2.9015e-07
1.42956e-08
2.90015e-07
1.45517e-08
2.89867e-07
1.48728e-08
2.89706e-07
1.52681e-08
2.89527e-07
1.57283e-08
2.89333e-07
1.62848e-08
2.89109e-07
1.69139e-08
2.88863e-07
1.76794e-08
1.86182e-08
2.88581e-07
2.90307e-07
3.32497e-08
2.93326e-07
5.56534e-08
2.94572e-07
4.74252e-08
2.95581e-07
4.08266e-08
2.96412e-07
3.8722e-08
2.96926e-07
3.6372e-08
2.97279e-07
3.35407e-08
2.97581e-07
3.12288e-08
2.9784e-07
2.94575e-08
2.98054e-07
2.79443e-08
2.98234e-07
2.65847e-08
2.98389e-07
2.53688e-08
2.98522e-07
2.42829e-08
2.98639e-07
2.33038e-08
2.98739e-07
2.24125e-08
2.98827e-07
2.15958e-08
2.98903e-07
2.0844e-08
2.98969e-07
2.01492e-08
2.99025e-07
1.95047e-08
2.99074e-07
1.89053e-08
2.99115e-07
1.83469e-08
2.9915e-07
1.78264e-08
2.99179e-07
1.73416e-08
2.99202e-07
1.68907e-08
2.9922e-07
1.64726e-08
2.99232e-07
1.60862e-08
2.9924e-07
1.57309e-08
2.99241e-07
1.54062e-08
2.99238e-07
1.51116e-08
2.99228e-07
1.48471e-08
2.99212e-07
1.46128e-08
2.9919e-07
1.44093e-08
2.9916e-07
1.42369e-08
2.99124e-07
1.40973e-08
2.99079e-07
1.39911e-08
2.99026e-07
1.39212e-08
2.98965e-07
1.38883e-08
2.98894e-07
1.38973e-08
2.98814e-07
1.39486e-08
2.98724e-07
1.40491e-08
2.98622e-07
1.41992e-08
2.98511e-07
1.44071e-08
2.98388e-07
1.46751e-08
2.98252e-07
1.50078e-08
2.98105e-07
1.54151e-08
2.97942e-07
1.58912e-08
2.97766e-07
1.64611e-08
2.97564e-07
1.71162e-08
2.97341e-07
1.79019e-08
1.88678e-08
2.97092e-07
2.98846e-07
3.01067e-08
3.01828e-07
5.26713e-08
3.03087e-07
4.61661e-08
3.04074e-07
3.98394e-08
3.04919e-07
3.78772e-08
3.05459e-07
3.58316e-08
3.05824e-07
3.31762e-08
3.06131e-07
3.09217e-08
3.06396e-07
2.91929e-08
3.06615e-07
2.77253e-08
3.06797e-07
2.6402e-08
3.06954e-07
2.52126e-08
3.07089e-07
2.41479e-08
3.07205e-07
2.31871e-08
3.07306e-07
2.23116e-08
3.07394e-07
2.15085e-08
3.07469e-07
2.07687e-08
3.07534e-07
2.00843e-08
3.07589e-07
1.94491e-08
3.07637e-07
1.8858e-08
3.07677e-07
1.83069e-08
3.0771e-07
1.77931e-08
3.07737e-07
1.73143e-08
3.07759e-07
1.68691e-08
3.07775e-07
1.64563e-08
3.07786e-07
1.60752e-08
3.07792e-07
1.57252e-08
3.07792e-07
1.54058e-08
3.07787e-07
1.51167e-08
3.07776e-07
1.4858e-08
3.07759e-07
1.46297e-08
3.07736e-07
1.44325e-08
3.07706e-07
1.42669e-08
3.07669e-07
1.41344e-08
3.07624e-07
1.40357e-08
3.07572e-07
1.39737e-08
3.07511e-07
1.39493e-08
3.07441e-07
1.39669e-08
3.07362e-07
1.40276e-08
3.07274e-07
1.41374e-08
3.07175e-07
1.42978e-08
3.07067e-07
1.45157e-08
3.06947e-07
1.47945e-08
3.06817e-07
1.51384e-08
3.06675e-07
1.55568e-08
3.06519e-07
1.60477e-08
3.06349e-07
1.66303e-08
3.06158e-07
1.73079e-08
3.05947e-07
1.81122e-08
1.90985e-08
3.05717e-07
3.07665e-07
2.72287e-08
3.10599e-07
4.97377e-08
3.11878e-07
4.48865e-08
3.12843e-07
3.88747e-08
3.13696e-07
3.70241e-08
3.14263e-07
3.52644e-08
3.14641e-07
3.27985e-08
3.14953e-07
3.06095e-08
3.15223e-07
2.8923e-08
3.15447e-07
2.75013e-08
3.15633e-07
2.6216e-08
3.15791e-07
2.50544e-08
3.15928e-07
2.40116e-08
3.16045e-07
2.30696e-08
3.16146e-07
2.22103e-08
3.16234e-07
2.14214e-08
3.16308e-07
2.06938e-08
3.16372e-07
2.00202e-08
3.16427e-07
1.93945e-08
3.16473e-07
1.88119e-08
3.16512e-07
1.82683e-08
3.16544e-07
1.77612e-08
3.16569e-07
1.72886e-08
3.16589e-07
1.68491e-08
3.16604e-07
1.64418e-08
3.16613e-07
1.60661e-08
3.16617e-07
1.57213e-08
3.16615e-07
1.54073e-08
3.16608e-07
1.51238e-08
3.16595e-07
1.48708e-08
3.16577e-07
1.46486e-08
3.16551e-07
1.44577e-08
3.16519e-07
1.42988e-08
3.16481e-07
1.41733e-08
3.16434e-07
1.40822e-08
3.1638e-07
1.40279e-08
3.16317e-07
1.40118e-08
3.16246e-07
1.40379e-08
3.16166e-07
1.41077e-08
3.16077e-07
1.42267e-08
3.15978e-07
1.4397e-08
3.15869e-07
1.46246e-08
3.15749e-07
1.49138e-08
3.15619e-07
1.52687e-08
3.15478e-07
1.56978e-08
3.15323e-07
1.62026e-08
3.15156e-07
1.67977e-08
3.14969e-07
1.74948e-08
3.14765e-07
1.83162e-08
1.93183e-08
3.14545e-07
3.16775e-07
2.46046e-08
3.19649e-07
4.68637e-08
3.20955e-07
4.3581e-08
3.21897e-07
3.79322e-08
3.22754e-07
3.61679e-08
3.23347e-07
3.46713e-08
3.23739e-07
3.24062e-08
3.24057e-07
3.02919e-08
3.24332e-07
2.86478e-08
3.24561e-07
2.7272e-08
3.24751e-07
2.60263e-08
3.24911e-07
2.48939e-08
3.25049e-07
2.38739e-08
3.25167e-07
2.29512e-08
3.25269e-07
2.21087e-08
3.25356e-07
2.13343e-08
3.25431e-07
2.06193e-08
3.25494e-07
1.99568e-08
3.25548e-07
1.93409e-08
3.25593e-07
1.87668e-08
3.2563e-07
1.8231e-08
3.2566e-07
1.77308e-08
3.25685e-07
1.72645e-08
3.25703e-07
1.68308e-08
3.25716e-07
1.64291e-08
3.25723e-07
1.60587e-08
3.25725e-07
1.57194e-08
3.25721e-07
1.54108e-08
3.25712e-07
1.51329e-08
3.25697e-07
1.48857e-08
3.25676e-07
1.46696e-08
3.25649e-07
1.44851e-08
3.25615e-07
1.4333e-08
3.25574e-07
1.42146e-08
3.25525e-07
1.41309e-08
3.25468e-07
1.40844e-08
3.25404e-07
1.40766e-08
3.2533e-07
1.41112e-08
3.25248e-07
1.41901e-08
3.25157e-07
1.43181e-08
3.25056e-07
1.44981e-08
3.24945e-07
1.47355e-08
3.24824e-07
1.50347e-08
3.24692e-07
1.54004e-08
3.2455e-07
1.58398e-08
3.24395e-07
1.63578e-08
3.24227e-07
1.69654e-08
3.24042e-07
1.76796e-08
3.23842e-07
1.85165e-08
1.95309e-08
3.23629e-07
3.26186e-07
2.22217e-08
3.28989e-07
4.40601e-08
3.30325e-07
4.22453e-08
3.31246e-07
3.70107e-08
3.32101e-07
3.53132e-08
3.32718e-07
3.40539e-08
3.33127e-07
3.19978e-08
3.3345e-07
2.99684e-08
3.33731e-07
2.83675e-08
3.33965e-07
2.70374e-08
3.34159e-07
2.58327e-08
3.34322e-07
2.4731e-08
3.34461e-07
2.37345e-08
3.34581e-07
2.28317e-08
3.34683e-07
2.20065e-08
3.3477e-07
2.1247e-08
3.34845e-07
2.05451e-08
3.34907e-07
1.98939e-08
3.3496e-07
1.9288e-08
3.35004e-07
1.87228e-08
3.3504e-07
1.81949e-08
3.3507e-07
1.77017e-08
3.35092e-07
1.72418e-08
3.35109e-07
1.68141e-08
3.3512e-07
1.6418e-08
3.35126e-07
1.60531e-08
3.35126e-07
1.57192e-08
3.3512e-07
1.54162e-08
3.35109e-07
1.5144e-08
3.35092e-07
1.49027e-08
3.35069e-07
1.46928e-08
3.35039e-07
1.45148e-08
3.35003e-07