/*--------------------------------*- C++ -*----------------------------------*\
  =========                 |
  \\      /  F ield         | OpenFOAM: The Open Source CFD Toolbox
   \\    /   O peration     | Website:  https://openfoam.org
    \\  /    A nd           | Version:  7
     \\/     M anipulation  |
\*---------------------------------------------------------------------------*/
FoamFile
{
    version     2.0;
    format      ascii;
    class       volVectorField;
    location    "0.11";
    object      U;
}
// * * * * * * * * * * * * * * * * * * * * * * * * * * * * * * * * * * * * * //

dimensions      [0 1 -1 0 0 0 0];

internalField   nonuniform List<vector> 
70000
(
(0.553411 0.0169784 0)
(0.251397 0.0034008 0)
(0.165879 0.000319397 0)
(0.132365 4.93786e-05 0)
(0.117225 4.44228e-05 0)
(0.10723 5.25935e-05 0)
(0.099221 4.47991e-05 0)
(0.0927391 3.57325e-05 0)
(0.0874572 2.97051e-05 0)
(0.0830508 2.55761e-05 0)
(0.0792917 2.24224e-05 0)
(0.0760323 1.98975e-05 0)
(0.073171 1.78427e-05 0)
(0.0706334 1.61501e-05 0)
(0.0683629 1.47396e-05 0)
(0.0663156 1.35521e-05 0)
(0.0644568 1.25433e-05 0)
(0.0627589 1.16801e-05 0)
(0.0611992 1.0937e-05 0)
(0.0597592 1.02947e-05 0)
(0.0584235 9.73791e-06 0)
(0.057179 9.25486e-06 0)
(0.0560147 8.83602e-06 0)
(0.054921 8.47408e-06 0)
(0.0538897 8.16279e-06 0)
(0.0529136 7.89798e-06 0)
(0.0519862 7.67504e-06 0)
(0.0511018 7.49267e-06 0)
(0.0502553 7.34636e-06 0)
(0.0494418 7.23878e-06 0)
(0.0486571 7.16238e-06 0)
(0.0478967 7.12801e-06 0)
(0.0471571 7.11766e-06 0)
(0.046434 7.16034e-06 0)
(0.0457245 7.2129e-06 0)
(0.0450237 7.34078e-06 0)
(0.0443294 7.4533e-06 0)
(0.0436366 7.6706e-06 0)
(0.0429419 7.85074e-06 0)
(0.0422439 8.12129e-06 0)
(0.0415303 8.44449e-06 0)
(0.0408188 8.55613e-06 0)
(0.0400586 9.37685e-06 0)
(0.0393433 8.50534e-06 0)
(0.0384821 1.11327e-05 0)
(0.0378273 6.5342e-06 0)
(0.0367386 1.52512e-05 0)
(0.0363464 -1.55254e-06 0)
(0.0348958 2.85597e-05 0)
(0.0327192 -0.00125872 0)
(0.884861 0.0434943 0)
(0.650118 0.0201515 0)
(0.493889 0.0066083 0)
(0.403389 0.00275901 0)
(0.354591 0.00155261 0)
(0.323181 0.00113662 0)
(0.299181 0.000914372 0)
(0.279871 0.000749863 0)
(0.264057 0.000627207 0)
(0.250838 0.000536748 0)
(0.239561 0.000468082 0)
(0.229786 0.000414072 0)
(0.221206 0.000370482 0)
(0.213597 0.000334674 0)
(0.206789 0.000304851 0)
(0.200652 0.000279723 0)
(0.195082 0.000258338 0)
(0.189996 0.000239986 0)
(0.185326 0.000224123 0)
(0.181017 0.000210333 0)
(0.177023 0.000198289 0)
(0.173306 0.000187734 0)
(0.169832 0.000178463 0)
(0.166572 0.000170313 0)
(0.163503 0.000163151 0)
(0.160603 0.000156875 0)
(0.157853 0.000151399 0)
(0.155236 0.000146662 0)
(0.152737 0.000142608 0)
(0.150342 0.000139212 0)
(0.148039 0.000136434 0)
(0.145814 0.000134289 0)
(0.143659 0.00013273 0)
(0.141559 0.00013184 0)
(0.139507 0.000131509 0)
(0.13749 0.000131969 0)
(0.1355 0.000132922 0)
(0.133523 0.000134916 0)
(0.13155 0.000137233 0)
(0.129575 0.000141015 0)
(0.127565 0.00014479 0)
(0.125563 0.000150519 0)
(0.123435 0.000155986 0)
(0.121421 0.000163069 0)
(0.119018 0.000171228 0)
(0.117138 0.000175775 0)
(0.114111 0.000192507 0)
(0.112827 0.000162123 0)
(0.108757 0.000343717 0)
(0.10594 -0.0020268 0)
(0.99121 0.0499576 0)
(0.890902 0.0305682 0)
(0.762405 0.0146192 0)
(0.656347 0.00798156 0)
(0.58512 0.00489177 0)
(0.535612 0.00348773 0)
(0.49757 0.00275216 0)
(0.466786 0.00225814 0)
(0.441318 0.00189449 0)
(0.419859 0.00162289 0)
(0.401462 0.00141549 0)
(0.385457 0.0012523 0)
(0.371369 0.00112063 0)
(0.358848 0.00101243 0)
(0.347626 0.000922235 0)
(0.337495 0.000846163 0)
(0.328289 0.000781354 0)
(0.319876 0.000725664 0)
(0.312148 0.000677463 0)
(0.305014 0.000635489 0)
(0.298401 0.000598759 0)
(0.292245 0.000566492 0)
(0.286494 0.000538069 0)
(0.2811 0.000512989 0)
(0.276024 0.000490855 0)
(0.271232 0.000471343 0)
(0.266692 0.000454198 0)
(0.262378 0.000439221 0)
(0.258265 0.000426251 0)
(0.25433 0.000415185 0)
(0.250554 0.000405925 0)
(0.246916 0.000398464 0)
(0.243399 0.000392721 0)
(0.239985 0.000388832 0)
(0.23666 0.000386622 0)
(0.233402 0.00038654 0)
(0.230201 0.00038804 0)
(0.227035 0.000392313 0)
(0.223889 0.000397759 0)
(0.220753 0.000407322 0)
(0.217577 0.000416817 0)
(0.214423 0.000433038 0)
(0.211093 0.000446222 0)
(0.207931 0.000470537 0)
(0.204212 0.000486397 0)
(0.201223 0.000516933 0)
(0.196615 0.000540798 0)
(0.194375 0.000516071 0)
(0.188213 0.000775031 0)
(0.185724 -0.00169878 0)
(1.01554 0.0489562 0)
(1.00648 0.0357322 0)
(0.935823 0.0208332 0)
(0.851853 0.0135169 0)
(0.781946 0.00921959 0)
(0.726641 0.00680726 0)
(0.681375 0.00541252 0)
(0.643427 0.00447196 0)
(0.611223 0.00377748 0)
(0.583572 0.00325153 0)
(0.559537 0.00284518 0)
(0.538412 0.00252323 0)
(0.51967 0.00226228 0)
(0.502905 0.002047 0)
(0.487801 0.00186695 0)
(0.474107 0.00171461 0)
(0.461621 0.00158446 0)
(0.450177 0.00147235 0)
(0.439638 0.00137507 0)
(0.429893 0.00129016 0)
(0.420843 0.00121567 0)
(0.412409 0.00115007 0)
(0.404521 0.00109211 0)
(0.397119 0.00104081 0)
(0.390151 0.000995366 0)
(0.383571 0.000955125 0)
(0.377339 0.000919573 0)
(0.371419 0.000888297 0)
(0.365779 0.000860978 0)
(0.360388 0.000837382 0)
(0.355221 0.000817326 0)
(0.350252 0.000800743 0)
(0.345458 0.000787515 0)
(0.340814 0.000777808 0)
(0.336302 0.000771403 0)
(0.331897 0.000768958 0)
(0.327582 0.000769699 0)
(0.323331 0.000775543 0)
(0.319123 0.000783876 0)
(0.314946 0.000799942 0)
(0.310741 0.000815938 0)
(0.306573 0.000845559 0)
(0.302215 0.000867817 0)
(0.298051 0.000916179 0)
(0.293264 0.000940219 0)
(0.28928 0.00101053 0)
(0.283503 0.00103891 0)
(0.28025 0.00104764 0)
(0.272728 0.00131493 0)
(0.269839 -0.000873298 0)
(1.01435 0.0461009 0)
(1.04797 0.0373511 0)
(1.02452 0.0242052 0)
(0.974564 0.0175834 0)
(0.923253 0.0131405 0)
(0.876373 0.0102411 0)
(0.834031 0.00838378 0)
(0.796088 0.00706243 0)
(0.762326 0.00605202 0)
(0.732309 0.0052643 0)
(0.705528 0.00464202 0)
(0.681513 0.00414101 0)
(0.659868 0.00373005 0)
(0.64026 0.00338779 0)
(0.622412 0.00309927 0)
(0.60609 0.00285354 0)
(0.591102 0.0026424 0)
(0.577281 0.0024596 0)
(0.56449 0.00230029 0)
(0.552609 0.00216067 0)
(0.541536 0.00203774 0)
(0.531184 0.00192906 0)
(0.521476 0.00183272 0)
(0.512346 0.00174712 0)
(0.503736 0.00167098 0)
(0.495593 0.00160327 0)
(0.487872 0.00154316 0)
(0.480531 0.00148995 0)
(0.473534 0.00144315 0)
(0.466846 0.00140233 0)
(0.460436 0.00136722 0)
(0.454274 0.00133766 0)
(0.448336 0.00131348 0)
(0.44259 0.00129487 0)
(0.437018 0.00128156 0)
(0.431587 0.00127442 0)
(0.426282 0.00127247 0)
(0.421069 0.00127837 0)
(0.415928 0.00128848 0)
(0.410839 0.0013105 0)
(0.405746 0.00133278 0)
(0.400701 0.00137657 0)
(0.395487 0.00140866 0)
(0.390461 0.00148363 0)
(0.38484 0.00151809 0)
(0.379966 0.00163223 0)
(0.373407 0.00167064 0)
(0.369103 0.00172196 0)
(0.360955 0.00198557 0)
(0.35684 0.00012144 0)
(1.00941 0.0430508 0)
(1.05563 0.0371077 0)
(1.05864 0.0253498 0)
(1.03622 0.0197942 0)
(1.00696 0.0158373 0)
(0.975819 0.0129801 0)
(0.944131 0.0110136 0)
(0.913077 0.00953316 0)
(0.883521 0.00834309 0)
(0.855853 0.00737556 0)
(0.830156 0.00658548 0)
(0.806371 0.00593279 0)
(0.78438 0.00538645 0)
(0.764042 0.00492394 0)
(0.745209 0.00452874 0)
(0.727741 0.00418832 0)
(0.711504 0.00389299 0)
(0.696379 0.00363517 0)
(0.682256 0.00340885 0)
(0.669039 0.00320923 0)
(0.656641 0.00303244 0)
(0.644983 0.00287535 0)
(0.633997 0.00273539 0)
(0.62362 0.00261044 0)
(0.613796 0.0024988 0)
(0.604476 0.00239903 0)
(0.595613 0.00231 0)
(0.587167 0.00223077 0)
(0.579101 0.00216061 0)
(0.571379 0.00209896 0)
(0.563969 0.00204541 0)
(0.55684 0.00199971 0)
(0.549966 0.00196167 0)
(0.543316 0.00193145 0)
(0.536867 0.00190881 0)
(0.530588 0.00189475 0)
(0.524461 0.00188817 0)
(0.51845 0.00189238 0)
(0.512537 0.0019029 0)
(0.506694 0.00192968 0)
(0.500872 0.00195763 0)
(0.495105 0.00201483 0)
(0.489208 0.00205751 0)
(0.483469 0.00215814 0)
(0.477229 0.00220712 0)
(0.471588 0.00236117 0)
(0.464555 0.00242171 0)
(0.459256 0.00250792 0)
(0.450963 0.00278842 0)
(0.445458 0.00122919 0)
(1.00635 0.0401832 0)
(1.0524 0.0361621 0)
(1.06603 0.0252756 0)
(1.05947 0.0206035 0)
(1.04677 0.0172713 0)
(1.03062 0.0147081 0)
(1.01159 0.0128847 0)
(0.990746 0.0114637 0)
(0.969151 0.0102688 0)
(0.947543 0.00925437 0)
(0.926372 0.00839464 0)
(0.905906 0.00766191 0)
(0.886296 0.00703219 0)
(0.867614 0.00648709 0)
(0.849879 0.00601242 0)
(0.83308 0.00559689 0)
(0.817184 0.00523138 0)
(0.802146 0.00490842 0)
(0.787918 0.00462194 0)
(0.774447 0.00436691 0)
(0.761682 0.0041392 0)
(0.749573 0.00393537 0)
(0.738072 0.00375255 0)
(0.727132 0.00358834 0)
(0.716713 0.00344076 0)
(0.706773 0.00330813 0)
(0.697275 0.00318912 0)
(0.688185 0.0030826 0)
(0.679471 0.00298771 0)
(0.6711 0.00290376 0)
(0.663046 0.00283026 0)
(0.655278 0.0027669 0)
(0.647773 0.00271349 0)
(0.640501 0.00267017 0)
(0.633441 0.00263676 0)
(0.626563 0.00261438 0)
(0.619848 0.0026019 0)
(0.613262 0.00260317 0)
(0.606789 0.00261312 0)
(0.600394 0.00264345 0)
(0.594043 0.00267669 0)
(0.587743 0.00274586 0)
(0.581359 0.00280019 0)
(0.575088 0.00292357 0)
(0.568435 0.00299204 0)
(0.5622 0.0031784 0)
(0.554921 0.0032738 0)
(0.548815 0.003385 0)
(0.540582 0.00369842 0)
(0.534 0.00244157 0)
(1.00506 0.0375064 0)
(1.04761 0.0350649 0)
(1.06393 0.0247301 0)
(1.06413 0.0206381 0)
(1.06059 0.0178151 0)
(1.05462 0.0155569 0)
(1.04576 0.0139515 0)
(1.03444 0.0126982 0)
(1.02137 0.0116164 0)
(1.00716 0.0106667 0)
(0.992271 0.00983593 0)
(0.977066 0.00910671 0)
(0.961812 0.00846282 0)
(0.946708 0.00789165 0)
(0.931891 0.00738331 0)
(0.917455 0.00692963 0)
(0.90346 0.00652368 0)
(0.889939 0.00615955 0)
(0.876909 0.00583218 0)
(0.864372 0.00553728 0)
(0.852322 0.00527117 0)
(0.840747 0.00503069 0)
(0.829629 0.00481315 0)
(0.818948 0.00461624 0)
(0.808683 0.00443801 0)
(0.798811 0.00427679 0)
(0.78931 0.00413121 0)
(0.780158 0.00400012 0)
(0.771331 0.00388264 0)
(0.762808 0.00377805 0)
(0.754568 0.0036859 0)
(0.746588 0.00360584 0)
(0.738848 0.00353775 0)
(0.731324 0.00348181 0)
(0.723999 0.00343794 0)
(0.716845 0.00340737 0)
(0.709849 0.00338906 0)
(0.702976 0.00338723 0)
(0.696216 0.00339662 0)
(0.68953 0.00343003 0)
(0.682899 0.00346885 0)
(0.676307 0.00354878 0)
(0.669667 0.00361619 0)
(0.66309 0.00375921 0)
(0.656242 0.00385172 0)
(0.649646 0.00406335 0)
(0.642308 0.00420218 0)
(0.635684 0.00433501 0)
(0.627607 0.00468569 0)
(0.620374 0.00372938 0)
(1.00451 0.0349709 0)
(1.04358 0.0339861 0)
(1.0599 0.0240812 0)
(1.06217 0.0203517 0)
(1.06242 0.0178844 0)
(1.0617 0.0158427 0)
(1.05905 0.0144134 0)
(1.05439 0.0133282 0)
(1.04805 0.0123909 0)
(1.04033 0.0115555 0)
(1.03151 0.0108109 0)
(1.02186 0.0101441 0)
(1.0116 0.0095426 0)
(1.00093 0.00899749 0)
(0.990034 0.00850231 0)
(0.979031 0.00805181 0)
(0.968028 0.00764148 0)
(0.957108 0.00726739 0)
(0.946332 0.00692605 0)
(0.935743 0.00661439 0)
(0.925375 0.00632971 0)
(0.915248 0.0060696 0)
(0.905376 0.00583196 0)
(0.895763 0.00561491 0)
(0.886413 0.00541683 0)
(0.877322 0.00523632 0)
(0.868485 0.00507221 0)
(0.859895 0.0049235 0)
(0.851543 0.00478945 0)
(0.843416 0.00466944 0)
(0.835506 0.00456313 0)
(0.827796 0.00447027 0)
(0.820276 0.00439088 0)
(0.812928 0.00432523 0)
(0.805741 0.00427339 0)
(0.798693 0.00423675 0)
(0.791775 0.00421446 0)
(0.784957 0.00421099 0)
(0.778234 0.00422121 0)
(0.771569 0.00425847 0)
(0.764951 0.00430414 0)
(0.758354 0.00439459 0)
(0.751725 0.00447694 0)
(0.745117 0.0046375 0)
(0.738313 0.00475757 0)
(0.731636 0.00499007 0)
(0.724438 0.00517614 0)
(0.717622 0.00533341 0)
(0.709817 0.00572015 0)
(0.702336 0.00505323 0)
(1.00412 0.0325407 0)
(1.04025 0.0329339 0)
(1.05614 0.0234486 0)
(1.05881 0.0199702 0)
(1.06015 0.0177594 0)
(1.06148 0.0158508 0)
(1.06178 0.0145247 0)
(1.0608 0.0135568 0)
(1.05863 0.0127377 0)
(1.05538 0.0120101 0)
(1.05115 0.0113606 0)
(1.04603 0.0107756 0)
(1.04016 0.0102425 0)
(1.03368 0.00975318 0)
(1.02669 0.00930218 0)
(1.01932 0.00888571 0)
(1.01166 0.00850068 0)
(1.0038 0.00814453 0)
(0.995815 0.00781503 0)
(0.987758 0.00751025 0)
(0.979682 0.00722844 0)
(0.971627 0.00696808 0)
(0.963625 0.00672774 0)
(0.955701 0.00650618 0)
(0.947873 0.00630228 0)
(0.940155 0.00611504 0)
(0.932556 0.00594364 0)
(0.925081 0.00578738 0)
(0.917734 0.00564579 0)
(0.910514 0.00551844 0)
(0.903421 0.00540522 0)
(0.89645 0.00530605 0)
(0.889597 0.00522116 0)
(0.882853 0.00515097 0)
(0.876213 0.0050958 0)
(0.869661 0.0050572 0)
(0.863195 0.00503456 0)
(0.856791 0.00503261 0)
(0.850447 0.00504652 0)
(0.844132 0.00508982 0)
(0.837842 0.00514468 0)
(0.831549 0.00524668 0)
(0.82522 0.00534623 0)
(0.818877 0.00552373 0)
(0.812379 0.00567395 0)
(0.805918 0.00592566 0)
(0.799083 0.00615956 0)
(0.792406 0.00634723 0)
(0.785041 0.00676811 0)
(0.777676 0.00637038 0)
(1.00374 0.0302069 0)
(1.03726 0.031886 0)
(1.0528 0.0228472 0)
(1.05557 0.019571 0)
(1.05706 0.017573 0)
(1.05894 0.0157543 0)
(1.06032 0.0144772 0)
(1.06093 0.0135745 0)
(1.06084 0.0128307 0)
(1.06008 0.0121792 0)
(1.05864 0.011604 0)
(1.05654 0.0110899 0)
(1.05382 0.010623 0)
(1.05052 0.0101936 0)
(1.0467 0.00979612 0)
(1.04243 0.00942645 0)
(1.03777 0.00908179 0)
(1.03279 0.00875996 0)
(1.02753 0.00845926 0)
(1.02205 0.00817832 0)
(1.0164 0.00791602 0)
(1.01062 0.00767139 0)
(1.00474 0.00744359 0)
(0.998798 0.00723188 0)
(0.992814 0.0070356 0)
(0.98681 0.00685418 0)
(0.980803 0.00668716 0)
(0.974808 0.00653417 0)
(0.968835 0.00639502 0)
(0.962892 0.00626956 0)
(0.956984 0.00615792 0)
(0.951115 0.00606026 0)
(0.945287 0.00597702 0)
(0.939498 0.00590886 0)
(0.933748 0.00585632 0)
(0.928029 0.00582117 0)
(0.922342 0.00580311 0)
(0.91667 0.00580703 0)
(0.911016 0.0058286 0)
(0.905354 0.00588123 0)
(0.899685 0.00594847 0)
(0.893985 0.00606408 0)
(0.888233 0.00618345 0)
(0.882435 0.00637852 0)
(0.876501 0.00656082 0)
(0.870538 0.00683211 0)
(0.864296 0.00711263 0)
(0.858059 0.00733755 0)
(0.851327 0.00779147 0)
(0.844407 0.0076369 0)
(1.00337 0.0279717 0)
(1.03442 0.0308301 0)
(1.0497 0.0222708 0)
(1.05261 0.0191692 0)
(1.05406 0.0173683 0)
(1.056 0.0156287 0)
(1.05765 0.0143749 0)
(1.05879 0.0135044 0)
(1.05952 0.0128028 0)
(1.05987 0.0121962 0)
(1.05984 0.0116678 0)
(1.05939 0.0112021 0)
(1.05853 0.010784 0)
(1.05725 0.0104028 0)
(1.05557 0.0100516 0)
(1.05351 0.0097257 0)
(1.0511 0.00942179 0)
(1.04837 0.00913744 0)
(1.04534 0.00887082 0)
(1.04206 0.00862061 0)
(1.03855 0.0083858 0)
(1.03484 0.00816565 0)
(1.03096 0.00795956 0)
(1.02693 0.00776707 0)
(1.02278 0.00758782 0)
(1.01853 0.00742149 0)
(1.0142 0.00726793 0)
(1.00979 0.00712698 0)
(1.00533 0.00699873 0)
(1.00082 0.00688324 0)
(0.996272 0.00678087 0)
(0.991695 0.00669199 0)
(0.987092 0.00661727 0)
(0.982467 0.00655757 0)
(0.977822 0.00651365 0)
(0.973155 0.00648753 0)
(0.968468 0.00647915 0)
(0.963753 0.00649361 0)
(0.959011 0.00652709 0)
(0.954229 0.00659272 0)
(0.949403 0.00667573 0)
(0.944519 0.00680744 0)
(0.939562 0.0069492 0)
(0.934532 0.00716314 0)
(0.929373 0.00737868 0)
(0.924138 0.00767105 0)
(0.918681 0.00799592 0)
(0.913135 0.00826425 0)
(0.907211 0.008751 0)
(0.901004 0.00881062 0)
(1.00301 0.0258389 0)
(1.0317 0.0297621 0)
(1.0467 0.0217157 0)
(1.04982 0.0187646 0)
(1.05124 0.0171519 0)
(1.05314 0.0154962 0)
(1.05483 0.014259 0)
(1.05608 0.013406 0)
(1.05705 0.0127288 0)
(1.0578 0.0121475 0)
(1.05833 0.0116453 0)
(1.05863 0.0112079 0)
(1.05868 0.0108201 0)
(1.05848 0.0104707 0)
(1.05801 0.0101519 0)
(1.05729 0.00985868 0)
(1.05631 0.00958702 0)
(1.05508 0.00933407 0)
(1.05361 0.00909767 0)
(1.05192 0.00887623 0)
(1.05002 0.00866861 0)
(1.04792 0.00847397 0)
(1.04565 0.00829173 0)
(1.04321 0.00812149 0)
(1.04063 0.00796297 0)
(1.03791 0.00781598 0)
(1.03507 0.00768047 0)
(1.03212 0.00755645 0)
(1.02908 0.00744413 0)
(1.02594 0.00734372 0)
(1.02272 0.00725574 0)
(1.01943 0.00718071 0)
(1.01607 0.00711946 0)
(1.01264 0.00707303 0)
(1.00916 0.00704235 0)
(1.00561 0.00702965 0)
(1.002 0.00703508 0)
(0.998334 0.0070639 0)
(0.994604 0.0071128 0)
(0.990806 0.00719449 0)
(0.986938 0.00729608 0)
(0.98299 0.007446 0)
(0.978951 0.00761204 0)
(0.974819 0.00784605 0)
(0.970561 0.008095 0)
(0.966196 0.00841014 0)
(0.961648 0.0087762 0)
(0.956955 0.00909235 0)
(0.951959 0.00961192 0)
(0.946643 0.00985586 0)
(1.00268 0.0238109 0)
(1.0291 0.0286802 0)
(1.04379 0.0211814 0)
(1.04713 0.018357 0)
(1.04855 0.0169222 0)
(1.05042 0.0153595 0)
(1.0521 0.0141406 0)
(1.05336 0.0133004 0)
(1.05436 0.012641 0)
(1.05521 0.0120761 0)
(1.05591 0.011589 0)
(1.05648 0.0111674 0)
(1.0569 0.010797 0)
(1.05717 0.0104662 0)
(1.05729 0.0101673 0)
(1.05725 0.00989489 0)
(1.05704 0.00964482 0)
(1.05667 0.00941389 0)
(1.05613 0.00919967 0)
(1.05543 0.00900031 0)
(1.05458 0.00881445 0)
(1.05357 0.00864112 0)
(1.05242 0.00847963 0)
(1.05113 0.0083295 0)
(1.0497 0.00819044 0)
(1.04815 0.00806226 0)
(1.04648 0.00794494 0)
(1.0447 0.00783852 0)
(1.04281 0.00774325 0)
(1.04082 0.00765943 0)
(1.03874 0.00758763 0)
(1.03656 0.00752849 0)
(1.0343 0.00748288 0)
(1.03195 0.00745201 0)
(1.02952 0.00743688 0)
(1.02701 0.00743992 0)
(1.02443 0.0074614 0)
(1.02176 0.00750668 0)
(1.01901 0.00757297 0)
(1.01618 0.00767239 0)
(1.01326 0.00779405 0)
(1.01025 0.0079632 0)
(1.00714 0.00815414 0)
(1.00392 0.00840872 0)
(1.00059 0.00868986 0)
(0.997132 0.00902887 0)
(0.99352 0.00943216 0)
(0.989739 0.00979798 0)
(0.985703 0.0103501 0)
(0.981354 0.0107488 0)
(1.00238 0.0218894 0)
(1.02663 0.0275839 0)
(1.04097 0.0206675 0)
(1.04452 0.017948 0)
(1.04596 0.016678 0)
(1.0478 0.0152171 0)
(1.04947 0.0140209 0)
(1.05073 0.0131926 0)
(1.05172 0.0125494 0)
(1.05257 0.0119984 0)
(1.05331 0.0115221 0)
(1.05394 0.0111107 0)
(1.05448 0.0107506 0)
(1.05492 0.0104308 0)
(1.05526 0.0101435 0)
(1.05551 0.00988345 0)
(1.05566 0.00964646 0)
(1.0557 0.00942928 0)
(1.05564 0.00922935 0)
(1.05548 0.00904472 0)
(1.05522 0.00887388 0)
(1.05485 0.00871577 0)
(1.05437 0.0085696 0)
(1.0538 0.00843484 0)
(1.05313 0.00831114 0)
(1.05235 0.00819829 0)
(1.05149 0.00809625 0)
(1.05052 0.00800506 0)
(1.04947 0.00792496 0)
(1.04833 0.00785627 0)
(1.04709 0.00779957 0)
(1.04577 0.00775556 0)
(1.04437 0.00772513 0)
(1.04288 0.00770959 0)
(1.04131 0.00770995 0)
(1.03966 0.00772877 0)
(1.03792 0.00776644 0)
(1.0361 0.00782831 0)
(1.03419 0.00791212 0)
(1.0322 0.00802921 0)
(1.03012 0.00817078 0)
(1.02795 0.00835877 0)
(1.02568 0.00857371 0)
(1.0233 0.00884824 0)
(1.02081 0.00915898 0)
(1.0182 0.00952183 0)
(1.01546 0.0099577 0)
(1.01255 0.0103723 0)
(1.00942 0.0109559 0)
(1.006 0.0114813 0)
(1.0021 0.0200755 0)
(1.0243 0.0264749 0)
(1.03824 0.020172 0)
(1.042 0.0175396 0)
(1.04346 0.0164193 0)
(1.04527 0.0150678 0)
(1.04694 0.0138993 0)
(1.0482 0.0130831 0)
(1.04918 0.012456 0)
(1.05001 0.0119188 0)
(1.05074 0.0114525 0)
(1.05138 0.0110493 0)
(1.05194 0.0106969 0)
(1.05241 0.0103846 0)
(1.05283 0.0101048 0)
(1.05317 0.00985235 0)
(1.05345 0.0096233 0)
(1.05366 0.00941444 0)
(1.05381 0.00922322 0)
(1.0539 0.00904768 0)
(1.05392 0.0088863 0)
(1.05387 0.00873798 0)
(1.05375 0.00860192 0)
(1.05357 0.00847758 0)
(1.05332 0.00836458 0)
(1.05301 0.00826273 0)
(1.05262 0.00817195 0)
(1.05217 0.00809231 0)
(1.05164 0.00802402 0)
(1.05105 0.00796743 0)
(1.05038 0.0079231 0)
(1.04965 0.00789176 0)
(1.04884 0.00787429 0)
(1.04796 0.00787208 0)
(1.04701 0.00788613 0)
(1.04598 0.00791908 0)
(1.04488 0.0079714 0)
(1.04371 0.00804836 0)
(1.04245 0.00814825 0)
(1.04112 0.00828151 0)
(1.0397 0.00844139 0)
(1.0382 0.00864656 0)
(1.0366 0.00888324 0)
(1.03492 0.00917607 0)
(1.03313 0.00951269 0)
(1.03123 0.00989819 0)
(1.02922 0.0103616 0)
(1.02706 0.0108218 0)
(1.0247 0.0114349 0)
(1.02211 0.0120614 0)
(1.00185 0.0183694 0)
(1.0221 0.0253573 0)
(1.03561 0.019691 0)
(1.03956 0.0171334 0)
(1.04105 0.0161468 0)
(1.04282 0.0149105 0)
(1.0445 0.0137754 0)
(1.04575 0.0129717 0)
(1.04672 0.0123608 0)
(1.04754 0.011838 0)
(1.04826 0.011382 0)
(1.04889 0.0109868 0)
(1.04943 0.0106413 0)
(1.04991 0.0103353 0)
(1.05033 0.0100614 0)
(1.0507 0.00981464 0)
(1.05101 0.00959109 0)
(1.05128 0.00938774 0)
(1.0515 0.00920212 0)
(1.05168 0.00903231 0)
(1.05181 0.00887683 0)
(1.0519 0.00873462 0)
(1.05195 0.00860492 0)
(1.05195 0.00848721 0)
(1.05191 0.00838116 0)
(1.05182 0.00828659 0)
(1.05169 0.00820346 0)
(1.05151 0.00813185 0)
(1.05129 0.008072 0)
(1.05101 0.00802425 0)
(1.05068 0.00798918 0)
(1.0503 0.00796756 0)
(1.04986 0.00796024 0)
(1.04937 0.00796866 0)
(1.04881 0.00799384 0)
(1.0482 0.00803844 0)
(1.04752 0.00810304 0)
(1.04678 0.00819274 0)
(1.04598 0.00830639 0)
(1.0451 0.00845348 0)
(1.04416 0.0086292 0)
(1.04314 0.00884916 0)
(1.04205 0.00910453 0)
(1.04087 0.00941336 0)
(1.03961 0.00977161 0)
(1.03826 0.0101777 0)
(1.0368 0.0106637 0)
(1.03522 0.0111646 0)
(1.03348 0.0118047 0)
(1.03153 0.0125098 0)
(1.00162 0.0167707 0)
(1.02003 0.0242354 0)
(1.03308 0.0192204 0)
(1.03721 0.0167312 0)
(1.03873 0.0158614 0)
(1.04047 0.0147448 0)
(1.04214 0.013649 0)
(1.0434 0.0128582 0)
(1.04436 0.0122636 0)
(1.04517 0.011756 0)
(1.04587 0.0113108 0)
(1.04649 0.0109237 0)
(1.04702 0.0105853 0)
(1.04749 0.0102855 0)
(1.0479 0.0100171 0)
(1.04826 0.00977527 0)
(1.04857 0.00955635 0)
(1.04885 0.00935738 0)
(1.04908 0.00917598 0)
(1.04928 0.00901028 0)
(1.04945 0.00885889 0)
(1.04959 0.00872078 0)
(1.04969 0.00859526 0)
(1.04977 0.00848187 0)
(1.04982 0.00838036 0)
(1.04983 0.00829058 0)
(1.04982 0.00821256 0)
(1.04977 0.0081464 0)
(1.04969 0.00809238 0)
(1.04957 0.00805089 0)
(1.04941 0.0080225 0)
(1.04922 0.00800802 0)
(1.04898 0.00800832 0)
(1.0487 0.00802489 0)
(1.04838 0.00805874 0)
(1.04801 0.00811253 0)
(1.04758 0.008187 0)
(1.04711 0.008287 0)
(1.04658 0.00841197 0)
(1.046 0.0085704 0)
(1.04536 0.00875931 0)
(1.04466 0.00899158 0)
(1.04389 0.00926244 0)
(1.04306 0.00958487 0)
(1.04216 0.00996064 0)
(1.04118 0.0103849 0)
(1.04012 0.0108892 0)
(1.03895 0.0114252 0)
(1.03764 0.0120895 0)
(1.03618 0.0128544 0)
(1.00142 0.0152788 0)
(1.01811 0.0231131 0)
(1.03065 0.0187564 0)
(1.03495 0.0163343 0)
(1.0365 0.0155645 0)
(1.0382 0.0145699 0)
(1.03986 0.0135196 0)
(1.04113 0.0127427 0)
(1.04209 0.0121643 0)
(1.04288 0.0116724 0)
(1.04357 0.0112387 0)
(1.04418 0.0108602 0)
(1.0447 0.0105289 0)
(1.04515 0.0102354 0)
(1.04555 0.00997262 0)
(1.0459 0.00973574 0)
(1.04621 0.00952127 0)
(1.04647 0.00932636 0)
(1.0467 0.00914871 0)
(1.0469 0.00898653 0)
(1.04708 0.00883847 0)
(1.04722 0.00870358 0)
(1.04734 0.00858122 0)
(1.04744 0.00847102 0)
(1.04751 0.00837277 0)
(1.04756 0.00828642 0)
(1.04759 0.00821204 0)
(1.04759 0.00814979 0)
(1.04757 0.00809998 0)
(1.04752 0.00806306 0)
(1.04744 0.00803962 0)
(1.04733 0.00803052 0)
(1.04719 0.00803663 0)
(1.04702 0.00805949 0)
(1.04681 0.00810013 0)
(1.04656 0.00816121 0)
(1.04628 0.00824361 0)
(1.04595 0.0083519 0)
(1.04558 0.00848615 0)
(1.04516 0.00865386 0)
(1.0447 0.00885367 0)
(1.04418 0.00909612 0)
(1.04361 0.00937969 0)
(1.04299 0.00971367 0)
(1.04231 0.0101035 0)
(1.04156 0.0105436 0)
(1.04075 0.0110628 0)
(1.03984 0.0116287 0)
(1.03883 0.0123145 0)
(1.03769 0.0131242 0)
(1.00124 0.0138922 0)
(1.01632 0.0219946 0)
(1.02833 0.018295 0)
(1.03277 0.015944 0)
(1.03437 0.0152578 0)
(1.03603 0.0143854 0)
(1.03768 0.0133869 0)
(1.03895 0.0126252 0)
(1.0399 0.0120627 0)
(1.04069 0.0115872 0)
(1.04137 0.0111656 0)
(1.04196 0.010796 0)
(1.04247 0.0104723 0)
(1.04291 0.0101853 0)
(1.0433 0.00992823 0)
(1.04364 0.00969639 0)
(1.04393 0.00948641 0)
(1.04419 0.00929556 0)
(1.04441 0.0091216 0)
(1.0446 0.0089628 0)
(1.04477 0.00881786 0)
(1.04491 0.00868588 0)
(1.04503 0.00856631 0)
(1.04512 0.00845883 0)
(1.0452 0.00836332 0)
(1.04526 0.00827978 0)
(1.04529 0.00820834 0)
(1.04531 0.00814924 0)
(1.04531 0.00810281 0)
(1.04528 0.00806956 0)
(1.04523 0.00805011 0)
(1.04515 0.00804537 0)
(1.04505 0.00805623 0)
(1.04492 0.00808423 0)
(1.04476 0.0081305 0)
(1.04457 0.00819762 0)
(1.04435 0.00828665 0)
(1.04409 0.00840191 0)
(1.0438 0.00854398 0)
(1.04346 0.00871954 0)
(1.04309 0.00892855 0)
(1.04267 0.00917971 0)
(1.04221 0.00947388 0)
(1.0417 0.0098179 0)
(1.04115 0.0102192 0)
(1.04053 0.0106734 0)
(1.03987 0.0112052 0)
(1.03912 0.0117963 0)
(1.03829 0.0125012 0)
(1.03735 0.0133445 0)
(1.00107 0.012609 0)
(1.01466 0.0208839 0)
(1.02613 0.017833 0)
(1.03068 0.0155612 0)
(1.03234 0.0149431 0)
(1.03395 0.0141908 0)
(1.03559 0.0132505 0)
(1.03686 0.0125059 0)
(1.03781 0.011959 0)
(1.03859 0.0115002 0)
(1.03926 0.0110915 0)
(1.03984 0.0107313 0)
(1.04034 0.0104152 0)
(1.04077 0.010135 0)
(1.04114 0.00988386 0)
(1.04147 0.00965723 0)
(1.04175 0.00945188 0)
(1.042 0.00926518 0)
(1.04221 0.00909497 0)
(1.04239 0.00893957 0)
(1.04255 0.00879774 0)
(1.04268 0.00866864 0)
(1.04279 0.00855177 0)
(1.04288 0.00844689 0)
(1.04295 0.00835394 0)
(1.04301 0.00827301 0)
(1.04304 0.00820426 0)
(1.04306 0.008148 0)
(1.04305 0.00810462 0)
(1.04303 0.00807465 0)
(1.04299 0.00805876 0)
(1.04292 0.00805789 0)
(1.04283 0.00807297 0)
(1.04272 0.00810555 0)
(1.04258 0.00815682 0)
(1.04241 0.00822931 0)
(1.04221 0.00832426 0)
(1.04198 0.00844571 0)
(1.04172 0.00859475 0)
(1.04142 0.0087773 0)
(1.04109 0.00899444 0)
(1.04071 0.00925341 0)
(1.04031 0.00955677 0)
(1.03986 0.00990993 0)
(1.03936 0.0103212 0)
(1.03882 0.0107879 0)
(1.03823 0.0113311 0)
(1.03758 0.0119436 0)
(1.03685 0.0126659 0)
(1.03603 0.0135343 0)
(1.00093 0.0114263 0)
(1.01313 0.019785 0)
(1.02403 0.0173672 0)
(1.02868 0.0151865 0)
(1.03039 0.0146224 0)
(1.03197 0.0139858 0)
(1.03358 0.0131096 0)
(1.03486 0.0123846 0)
(1.03581 0.0118531 0)
(1.03657 0.0114113 0)
(1.03723 0.0110162 0)
(1.0378 0.0106658 0)
(1.0383 0.0103578 0)
(1.03872 0.0100845 0)
(1.03908 0.00983947 0)
(1.0394 0.00961822 0)
(1.03967 0.00941764 0)
(1.03991 0.00923521 0)
(1.04011 0.00906885 0)
(1.04028 0.00891693 0)
(1.04043 0.00877827 0)
(1.04055 0.00865209 0)
(1.04066 0.00853794 0)
(1.04074 0.00843567 0)
(1.0408 0.00834528 0)
(1.04085 0.00826691 0)
(1.04088 0.00820081 0)
(1.04089 0.00814733 0)
(1.04088 0.00810689 0)
(1.04085 0.00808009 0)
(1.04081 0.00806762 0)
(1.04074 0.00807045 0)
(1.04065 0.00808954 0)
(1.04054 0.00812649 0)
(1.0404 0.0081825 0)
(1.04023 0.00826006 0)
(1.04004 0.0083606 0)
(1.03982 0.00848788 0)
(1.03957 0.00864345 0)
(1.03929 0.00883257 0)
(1.03897 0.00905722 0)
(1.03862 0.00932357 0)
(1.03824 0.00963529 0)
(1.03782 0.0099971 0)
(1.03736 0.0104173 0)
(1.03685 0.0108958 0)
(1.0363 0.0114495 0)
(1.0357 0.0120806 0)
(1.03502 0.0128188 0)
(1.03428 0.0137066 0)
(1.0008 0.0103411 0)
(1.01173 0.0187022 0)
(1.02204 0.0168949 0)
(1.02677 0.0148201 0)
(1.02854 0.0142977 0)
(1.03008 0.0137704 0)
(1.03167 0.0129638 0)
(1.03294 0.0122614 0)
(1.03389 0.011745 0)
(1.03465 0.0113204 0)
(1.0353 0.0109395 0)
(1.03586 0.0105996 0)
(1.03635 0.0102998 0)
(1.03676 0.0100337 0)
(1.03712 0.009795 0)
(1.03742 0.00957931 0)
(1.03769 0.00938365 0)
(1.03791 0.00920562 0)
(1.03811 0.00904323 0)
(1.03827 0.00889488 0)
(1.03841 0.00875947 0)
(1.03852 0.00863626 0)
(1.03862 0.00852491 0)
(1.03869 0.00842529 0)
(1.03875 0.00833749 0)
(1.03879 0.00826173 0)
(1.03881 0.0081983 0)
(1.03881 0.00814761 0)
(1.0388 0.00811013 0)
(1.03877 0.0080865 0)
(1.03872 0.00807743 0)
(1.03864 0.00808394 0)
(1.03855 0.00810703 0)
(1.03843 0.00814827 0)
(1.03829 0.00820896 0)
(1.03813 0.00829152 0)
(1.03794 0.00839752 0)
(1.03772 0.00853051 0)
(1.03747 0.0086924 0)
(1.0372 0.00888796 0)
(1.03689 0.00911979 0)
(1.03655 0.00939337 0)
(1.03617 0.00971298 0)
(1.03576 0.0100832 0)
(1.03532 0.0105119 0)
(1.03483 0.0110015 0)
(1.0343 0.0115655 0)
(1.03373 0.0122128 0)
(1.03309 0.0129657 0)
(1.0324 0.0138687 0)
(1.00069 0.00934944 0)
(1.01045 0.0176394 0)
(1.02017 0.0164139 0)
(1.02494 0.0144621 0)
(1.02678 0.0139711 0)
(1.02828 0.0135448 0)
(1.02984 0.0128124 0)
(1.03112 0.0121361 0)
(1.03207 0.0116348 0)
(1.03282 0.0112275 0)
(1.03346 0.0108615 0)
(1.03402 0.0105324 0)
(1.03449 0.0102412 0)
(1.03489 0.00998255 0)
(1.03524 0.00975038 0)
(1.03554 0.00954044 0)
(1.0358 0.00934986 0)
(1.03601 0.00917637 0)
(1.0362 0.00901805 0)
(1.03635 0.00887338 0)
(1.03649 0.0087413 0)
(1.03659 0.00862115 0)
(1.03668 0.00851264 0)
(1.03675 0.00841574 0)
(1.0368 0.0083306 0)
(1.03683 0.00825749 0)
(1.03684 0.00819679 0)
(1.03684 0.00814894 0)
(1.03682 0.00811446 0)
(1.03678 0.00809404 0)
(1.03672 0.00808843 0)
(1.03665 0.00809865 0)
(1.03655 0.00812576 0)
(1.03643 0.00817133 0)
(1.03629 0.00823671 0)
(1.03612 0.00832426 0)
(1.03593 0.00843571 0)
(1.03571 0.0085744 0)
(1.03546 0.00874253 0)
(1.03519 0.00894451 0)
(1.03488 0.00918336 0)
(1.03454 0.00946412 0)
(1.03417 0.00979139 0)
(1.03377 0.0101699 0)
(1.03334 0.0106069 0)
(1.03286 0.011107 0)
(1.03235 0.0116813 0)
(1.03179 0.012343 0)
(1.03119 0.0131094 0)
(1.03053 0.0140247 0)
(1.0006 0.00844709 0)
(1.00929 0.0166007 0)
(1.01841 0.0159222 0)
(1.02319 0.014112 0)
(1.02511 0.0136443 0)
(1.02658 0.0133094 0)
(1.0281 0.0126548 0)
(1.02938 0.0120086 0)
(1.03033 0.0115226 0)
(1.03108 0.0111323 0)
(1.03171 0.0107818 0)
(1.03226 0.0104642 0)
(1.03272 0.0101819 0)
(1.03312 0.00993096 0)
(1.03346 0.00970555 0)
(1.03375 0.00950155 0)
(1.034 0.00931622 0)
(1.03421 0.0091474 0)
(1.03438 0.00899327 0)
(1.03453 0.00885237 0)
(1.03466 0.00872371 0)
(1.03476 0.0086067 0)
(1.03484 0.00850111 0)
(1.0349 0.00840699 0)
(1.03494 0.00832457 0)
(1.03496 0.00825418 0)
(1.03497 0.00819626 0)
(1.03496 0.00815131 0)
(1.03494 0.0081199 0)
(1.0349 0.00810274 0)
(1.03483 0.00810064 0)
(1.03475 0.00811464 0)
(1.03465 0.00814582 0)
(1.03453 0.00819575 0)
(1.03438 0.00826588 0)
(1.03421 0.00835846 0)
(1.03402 0.00847537 0)
(1.0338 0.00861978 0)
(1.03355 0.00879414 0)
(1.03327 0.00900255 0)
(1.03297 0.00924832 0)
(1.03264 0.00953627 0)
(1.03227 0.00987106 0)
(1.03188 0.0102578 0)
(1.03145 0.010703 0)
(1.03099 0.0112132 0)
(1.03049 0.0117976 0)
(1.02995 0.0124723 0)
(1.02936 0.013251 0)
(1.02874 0.0141762 0)
(1.00051 0.00762924 0)
(1.00824 0.0155901 0)
(1.01677 0.0154188 0)
(1.02153 0.0137693 0)
(1.02352 0.0133192 0)
(1.02496 0.013065 0)
(1.02645 0.0124906 0)
(1.02772 0.0118785 0)
(1.02867 0.0114084 0)
(1.02942 0.0110349 0)
(1.03004 0.0107003 0)
(1.03058 0.0103949 0)
(1.03104 0.0101219 0)
(1.03143 0.00987885 0)
(1.03176 0.00966042 0)
(1.03205 0.00946257 0)
(1.03229 0.00928265 0)
(1.03249 0.00911865 0)
(1.03266 0.00896883 0)
(1.0328 0.00883182 0)
(1.03292 0.00870667 0)