/*--------------------------------*- C++ -*----------------------------------*\
  =========                 |
  \\      /  F ield         | OpenFOAM: The Open Source CFD Toolbox
   \\    /   O peration     | Website:  https://openfoam.org
    \\  /    A nd           | Version:  7
     \\/     M anipulation  |
\*---------------------------------------------------------------------------*/
FoamFile
{
    version     2.0;
    format      ascii;
    class       volVectorField;
    location    "0.11";
    object      U_0;
}
// * * * * * * * * * * * * * * * * * * * * * * * * * * * * * * * * * * * * * //

dimensions      [0 1 -1 0 0 0 0];

internalField   nonuniform List<vector> 
70000
(
(0.553411 0.0169784 0)
(0.251397 0.0034008 0)
(0.165879 0.000319398 0)
(0.132364 4.93793e-05 0)
(0.117225 4.44235e-05 0)
(0.10723 5.25941e-05 0)
(0.0992207 4.47997e-05 0)
(0.0927388 3.57331e-05 0)
(0.0874569 2.97057e-05 0)
(0.0830505 2.55766e-05 0)
(0.0792915 2.24229e-05 0)
(0.0760321 1.98979e-05 0)
(0.0731708 1.78432e-05 0)
(0.0706333 1.61506e-05 0)
(0.0683628 1.47402e-05 0)
(0.0663155 1.35527e-05 0)
(0.0644567 1.2544e-05 0)
(0.0627588 1.16808e-05 0)
(0.0611991 1.09378e-05 0)
(0.0597591 1.02956e-05 0)
(0.0584234 9.73894e-06 0)
(0.0571789 9.25601e-06 0)
(0.0560145 8.83729e-06 0)
(0.0549208 8.4755e-06 0)
(0.0538896 8.16437e-06 0)
(0.0529134 7.89974e-06 0)
(0.051986 7.67701e-06 0)
(0.0511016 7.49489e-06 0)
(0.050255 7.34886e-06 0)
(0.0494415 7.2416e-06 0)
(0.0486567 7.1656e-06 0)
(0.0478962 7.1317e-06 0)
(0.0471566 7.12191e-06 0)
(0.0464334 7.16527e-06 0)
(0.0457237 7.21865e-06 0)
(0.0450228 7.34754e-06 0)
(0.0443282 7.46124e-06 0)
(0.0436352 7.68006e-06 0)
(0.0429402 7.8619e-06 0)
(0.0422418 8.13478e-06 0)
(0.0415278 8.46036e-06 0)
(0.0408157 8.57561e-06 0)
(0.0400547 9.39973e-06 0)
(0.0393385 8.53339e-06 0)
(0.0384761 1.11664e-05 0)
(0.0378199 6.57344e-06 0)
(0.036729 1.53028e-05 0)
(0.0363351 -1.50152e-06 0)
(0.03488 2.86536e-05 0)
(0.0327048 -0.00125788 0)
(0.884861 0.0434943 0)
(0.650118 0.0201515 0)
(0.493889 0.00660831 0)
(0.403389 0.00275901 0)
(0.35459 0.00155261 0)
(0.32318 0.00113663 0)
(0.299181 0.000914373 0)
(0.279871 0.000749862 0)
(0.264057 0.000627205 0)
(0.250838 0.000536745 0)
(0.239561 0.000468078 0)
(0.229786 0.000414068 0)
(0.221206 0.000370478 0)
(0.213597 0.000334671 0)
(0.20679 0.000304848 0)
(0.200653 0.00027972 0)
(0.195083 0.000258336 0)
(0.189996 0.000239984 0)
(0.185327 0.000224122 0)
(0.181018 0.000210332 0)
(0.177024 0.000198289 0)
(0.173307 0.000187734 0)
(0.169833 0.000178464 0)
(0.166573 0.000170314 0)
(0.163504 0.000163153 0)
(0.160604 0.000156877 0)
(0.157854 0.000151402 0)
(0.155237 0.000146665 0)
(0.152738 0.000142613 0)
(0.150344 0.000139218 0)
(0.14804 0.000136442 0)
(0.145816 0.000134299 0)
(0.14366 0.000132743 0)
(0.141561 0.000131857 0)
(0.139509 0.00013153 0)
(0.137492 0.000131996 0)
(0.135501 0.000132958 0)
(0.133524 0.000134963 0)
(0.131551 0.000137292 0)
(0.129575 0.000141092 0)
(0.127564 0.000144889 0)
(0.125562 0.000150648 0)
(0.123432 0.000156149 0)
(0.121417 0.000163283 0)
(0.119011 0.000171496 0)
(0.117129 0.000176131 0)
(0.114098 0.000192941 0)
(0.11281 0.000162743 0)
(0.108729 0.000344327 0)
(0.105914 -0.00202452 0)
(0.99121 0.0499576 0)
(0.890902 0.0305682 0)
(0.762405 0.0146192 0)
(0.656347 0.00798157 0)
(0.585119 0.00489178 0)
(0.535611 0.00348774 0)
(0.497569 0.00275216 0)
(0.466785 0.00225813 0)
(0.441318 0.00189448 0)
(0.419859 0.00162287 0)
(0.401462 0.00141547 0)
(0.385457 0.00125228 0)
(0.37137 0.00112061 0)
(0.358849 0.00101241 0)
(0.347627 0.000922217 0)
(0.337496 0.000846147 0)
(0.328291 0.000781339 0)
(0.319878 0.000725651 0)
(0.31215 0.00067745 0)
(0.305017 0.000635478 0)
(0.298404 0.000598748 0)
(0.292248 0.000566482 0)
(0.286496 0.000538058 0)
(0.281103 0.000512979 0)
(0.276027 0.000490845 0)
(0.271235 0.000471333 0)
(0.266696 0.000454189 0)
(0.262382 0.000439211 0)
(0.258269 0.000426243 0)
(0.254335 0.000415177 0)
(0.250559 0.00040592 0)
(0.246921 0.000398462 0)
(0.243405 0.000392722 0)
(0.239991 0.00038884 0)
(0.236666 0.000386638 0)
(0.233408 0.000386568 0)
(0.230207 0.000388084 0)
(0.227041 0.000392378 0)
(0.223895 0.000397852 0)
(0.220758 0.000407452 0)
(0.217582 0.000416994 0)
(0.214428 0.000433282 0)
(0.211097 0.000446545 0)
(0.207933 0.000470979 0)
(0.204211 0.000486964 0)
(0.20122 0.000517725 0)
(0.196606 0.000541763 0)
(0.194363 0.000517542 0)
(0.188189 0.00077656 0)
(0.185698 -0.00169492 0)
(1.01554 0.0489562 0)
(1.00648 0.0357323 0)
(0.935823 0.0208333 0)
(0.851852 0.013517 0)
(0.781946 0.00921961 0)
(0.72664 0.00680727 0)
(0.681374 0.00541252 0)
(0.643427 0.00447195 0)
(0.611223 0.00377745 0)
(0.583571 0.00325149 0)
(0.559537 0.00284514 0)
(0.538413 0.00252319 0)
(0.519671 0.00226223 0)
(0.502906 0.00204696 0)
(0.487803 0.0018669 0)
(0.474109 0.00171457 0)
(0.461623 0.00158443 0)
(0.45018 0.00147231 0)
(0.439642 0.00137503 0)
(0.429896 0.00129012 0)
(0.420847 0.00121564 0)
(0.412414 0.00115003 0)
(0.404526 0.00109208 0)
(0.397124 0.00104078 0)
(0.390157 0.00099533 0)
(0.383577 0.000955088 0)
(0.377346 0.000919534 0)
(0.371426 0.000888256 0)
(0.365786 0.000860937 0)
(0.360396 0.00083734 0)
(0.355229 0.000817285 0)
(0.35026 0.000800704 0)
(0.345467 0.00078748 0)
(0.340824 0.000777779 0)
(0.336313 0.000771384 0)
(0.331908 0.000768954 0)
(0.327593 0.000769716 0)
(0.323342 0.00077559 0)
(0.319135 0.000783964 0)
(0.314958 0.000800087 0)
(0.310753 0.000816156 0)
(0.306584 0.000845883 0)
(0.302227 0.000868265 0)
(0.298061 0.000916825 0)
(0.293272 0.000941066 0)
(0.289285 0.00101177 0)
(0.283504 0.00104043 0)
(0.280247 0.00105003 0)
(0.272713 0.0013176 0)
(0.269821 -0.000867774 0)
(1.01435 0.0461009 0)
(1.04797 0.0373511 0)
(1.02452 0.0242053 0)
(0.974564 0.0175834 0)
(0.923252 0.0131405 0)
(0.876372 0.0102411 0)
(0.83403 0.00838378 0)
(0.796087 0.00706241 0)
(0.762325 0.00605197 0)
(0.732309 0.00526424 0)
(0.705528 0.00464195 0)
(0.681514 0.00414093 0)
(0.659869 0.00372996 0)
(0.640262 0.00338771 0)
(0.622414 0.00309918 0)
(0.606093 0.00285346 0)
(0.591105 0.00264232 0)
(0.577285 0.00245953 0)
(0.564494 0.00230022 0)
(0.552614 0.0021606 0)
(0.541542 0.00203766 0)
(0.53119 0.00192899 0)
(0.521483 0.00183264 0)
(0.512353 0.00174704 0)
(0.503743 0.00167091 0)
(0.495601 0.00160319 0)
(0.48788 0.00154307 0)
(0.48054 0.00148986 0)
(0.473543 0.00144305 0)
(0.466856 0.00140224 0)
(0.460447 0.00136712 0)
(0.454286 0.00133756 0)
(0.448348 0.00131339 0)
(0.442603 0.00129477 0)
(0.437032 0.00128148 0)
(0.431602 0.00127435 0)
(0.426297 0.00127243 0)
(0.421085 0.00127836 0)
(0.415945 0.00128852 0)
(0.410857 0.00131062 0)
(0.405763 0.00133299 0)
(0.400719 0.00137692 0)
(0.395504 0.00140918 0)
(0.390478 0.00148442 0)
(0.384855 0.00151916 0)
(0.379979 0.00163386 0)
(0.373416 0.00167266 0)
(0.369109 0.00172523 0)
(0.36095 0.00198946 0)
(0.35683 0.000128614 0)
(1.00941 0.0430508 0)
(1.05563 0.0371078 0)
(1.05864 0.0253499 0)
(1.03622 0.0197942 0)
(1.00696 0.0158373 0)
(0.975818 0.0129802 0)
(0.94413 0.0110136 0)
(0.913076 0.00953313 0)
(0.88352 0.00834303 0)
(0.855852 0.00737548 0)
(0.830155 0.00658537 0)
(0.806371 0.00593268 0)
(0.784381 0.00538633 0)
(0.764043 0.00492381 0)
(0.745211 0.00452861 0)
(0.727743 0.00418819 0)
(0.711507 0.00389286 0)
(0.696382 0.00363505 0)
(0.682261 0.00340873 0)
(0.669045 0.00320911 0)
(0.656647 0.00303232 0)
(0.64499 0.00287523 0)
(0.634004 0.00273526 0)
(0.623628 0.00261032 0)
(0.613804 0.00249867 0)
(0.604485 0.0023989 0)
(0.595623 0.00230986 0)
(0.587178 0.00223061 0)
(0.579112 0.00216045 0)
(0.57139 0.00209879 0)
(0.563982 0.00204523 0)
(0.556854 0.00199953 0)
(0.54998 0.00196149 0)
(0.543331 0.00193127 0)
(0.536884 0.00190864 0)
(0.530606 0.00189459 0)
(0.524479 0.00188803 0)
(0.518469 0.00189229 0)
(0.512557 0.00190286 0)
(0.506714 0.00192972 0)
(0.500893 0.00195779 0)
(0.495126 0.00201517 0)
(0.48923 0.00205806 0)
(0.48349 0.00215903 0)
(0.47725 0.00220837 0)
(0.471607 0.00236313 0)
(0.46457 0.00242421 0)
(0.459268 0.00251195 0)
(0.450966 0.00279353 0)
(0.445455 0.00123794 0)
(1.00635 0.0401832 0)
(1.0524 0.0361621 0)
(1.06603 0.0252756 0)
(1.05947 0.0206036 0)
(1.04677 0.0172714 0)
(1.03062 0.0147081 0)
(1.01159 0.0128847 0)
(0.990746 0.0114637 0)
(0.96915 0.0102688 0)
(0.947542 0.00925427 0)
(0.926372 0.00839451 0)
(0.905906 0.00766176 0)
(0.886296 0.00703202 0)
(0.867614 0.00648691 0)
(0.84988 0.00601223 0)
(0.833082 0.00559671 0)
(0.817186 0.00523119 0)
(0.802149 0.00490824 0)
(0.787922 0.00462176 0)
(0.774452 0.00436673 0)
(0.761688 0.00413902 0)
(0.74958 0.00393519 0)
(0.738079 0.00375236 0)
(0.72714 0.00358815 0)
(0.716721 0.00344056 0)
(0.706782 0.00330793 0)
(0.697285 0.00318891 0)
(0.688196 0.00308238 0)
(0.679482 0.00298748 0)
(0.671113 0.0029035 0)
(0.663059 0.00283 0)
(0.655293 0.00276663 0)
(0.647788 0.00271321 0)
(0.640517 0.00266989 0)
(0.633458 0.00263648 0)
(0.626581 0.00261411 0)
(0.619867 0.00260165 0)
(0.613282 0.00260296 0)
(0.60681 0.00261297 0)
(0.600416 0.0026434 0)
(0.594066 0.00267678 0)
(0.587767 0.00274615 0)
(0.581383 0.00280073 0)
(0.575111 0.00292452 0)
(0.568458 0.00299342 0)
(0.562222 0.00318062 0)
(0.55494 0.00327674 0)
(0.54883 0.00338971 0)
(0.540591 0.0037047 0)
(0.534001 0.00245179 0)
(1.00506 0.0375064 0)
(1.04761 0.0350649 0)
(1.06393 0.0247302 0)
(1.06413 0.0206382 0)
(1.06059 0.0178151 0)
(1.05462 0.015557 0)
(1.04576 0.0139515 0)
(1.03443 0.0126982 0)
(1.02137 0.0116163 0)
(1.00716 0.0106666 0)
(0.99227 0.00983578 0)
(0.977065 0.00910654 0)
(0.961812 0.00846262 0)
(0.946708 0.00789143 0)
(0.931891 0.00738307 0)
(0.917456 0.00692939 0)
(0.903461 0.00652343 0)
(0.889941 0.0061593 0)
(0.876912 0.00583193 0)
(0.864376 0.00553703 0)
(0.852327 0.00527091 0)
(0.840752 0.00503043 0)
(0.829635 0.00481289 0)
(0.818955 0.00461598 0)
(0.808691 0.00443774 0)
(0.79882 0.00427651 0)
(0.78932 0.00413091 0)
(0.780168 0.00399981 0)
(0.771342 0.00388232 0)
(0.76282 0.00377771 0)
(0.754581 0.00368554 0)
(0.746602 0.00360546 0)
(0.738862 0.00353737 0)
(0.731339 0.00348142 0)
(0.724016 0.00343754 0)
(0.716863 0.00340698 0)
(0.709868 0.00338869 0)
(0.702996 0.0033869 0)
(0.696236 0.00339635 0)
(0.689552 0.00342987 0)
(0.682922 0.00346884 0)
(0.676331 0.003549 0)
(0.669691 0.0036167 0)
(0.663114 0.00376019 0)
(0.656265 0.00385321 0)
(0.649668 0.0040658 0)
(0.642328 0.00420554 0)
(0.6357 0.00434034 0)
(0.627617 0.00469306 0)
(0.620377 0.003741 0)
(1.00451 0.0349709 0)
(1.04358 0.0339861 0)
(1.0599 0.0240813 0)
(1.06217 0.0203518 0)
(1.06242 0.0178845 0)
(1.0617 0.0158427 0)
(1.05905 0.0144134 0)
(1.05439 0.0133282 0)
(1.04805 0.0123909 0)
(1.04033 0.0115554 0)
(1.03151 0.0108108 0)
(1.02185 0.0101439 0)
(1.0116 0.00954237 0)
(1.00093 0.00899724 0)
(0.990034 0.00850203 0)
(0.979031 0.00805151 0)
(0.968029 0.00764118 0)
(0.957109 0.00726708 0)
(0.946333 0.00692573 0)
(0.935746 0.00661406 0)
(0.925379 0.00632938 0)
(0.915252 0.00606927 0)
(0.90538 0.00583162 0)
(0.895769 0.00561456 0)
(0.886419 0.00541648 0)
(0.877329 0.00523596 0)
(0.868494 0.00507183 0)
(0.859904 0.00492311 0)
(0.851553 0.00478904 0)
(0.843427 0.004669 0)
(0.835517 0.00456267 0)
(0.827808 0.0044698 0)
(0.820289 0.00439039 0)
(0.812942 0.00432472 0)
(0.805757 0.00427287 0)
(0.79871 0.00423624 0)
(0.791793 0.00421397 0)
(0.784976 0.00421054 0)
(0.778254 0.00422083 0)
(0.771589 0.0042582 0)
(0.764972 0.00430404 0)
(0.758376 0.00439474 0)
(0.751747 0.00447741 0)
(0.745139 0.0046385 0)
(0.738335 0.00475917 0)
(0.731656 0.00499273 0)
(0.724456 0.0051799 0)
(0.717638 0.00533931 0)
(0.709827 0.00572854 0)
(0.702339 0.00506615 0)
(1.00412 0.0325407 0)
(1.04025 0.0329339 0)
(1.05614 0.0234487 0)
(1.05881 0.0199703 0)
(1.06015 0.0177595 0)
(1.06148 0.0158509 0)
(1.06178 0.0145247 0)
(1.0608 0.0135569 0)
(1.05863 0.0127376 0)
(1.05538 0.01201 0)
(1.05114 0.0113605 0)
(1.04603 0.0107754 0)
(1.04016 0.0102423 0)
(1.03367 0.00975291 0)
(1.02669 0.00930188 0)
(1.01932 0.00888538 0)
(1.01166 0.00850033 0)
(1.0038 0.00814416 0)
(0.995816 0.00781465 0)
(0.987759 0.00750985 0)
(0.979684 0.00722804 0)
(0.97163 0.00696766 0)
(0.963629 0.00672732 0)
(0.955705 0.00650576 0)
(0.947878 0.00630184 0)
(0.940161 0.00611459 0)
(0.932562 0.00594317 0)
(0.925088 0.0057869 0)
(0.917742 0.00564528 0)
(0.910523 0.00551791 0)
(0.903431 0.00540466 0)
(0.896461 0.00530547 0)
(0.889608 0.00522056 0)
(0.882865 0.00515036 0)
(0.876226 0.00509517 0)
(0.869675 0.00505657 0)
(0.86321 0.00503396 0)
(0.856807 0.00503204 0)
(0.850464 0.00504603 0)
(0.84415 0.00508945 0)
(0.83786 0.00514449 0)
(0.831568 0.00524676 0)
(0.825239 0.00534667 0)
(0.818896 0.00552475 0)
(0.812398 0.00567565 0)
(0.805936 0.00592852 0)
(0.799099 0.00616369 0)
(0.792418 0.00635368 0)
(0.785049 0.00677741 0)
(0.777678 0.00638448 0)
(1.00374 0.0302069 0)
(1.03726 0.031886 0)
(1.0528 0.0228473 0)
(1.05557 0.0195711 0)
(1.05706 0.0175732 0)
(1.05894 0.0157544 0)
(1.06032 0.0144773 0)
(1.06093 0.0135746 0)
(1.06084 0.0128307 0)
(1.06008 0.0121791 0)
(1.05864 0.0116039 0)
(1.05654 0.0110898 0)
(1.05382 0.0106227 0)
(1.05052 0.0101934 0)
(1.0467 0.0097958 0)
(1.04243 0.0094261 0)
(1.03777 0.00908141 0)
(1.03279 0.00875955 0)
(1.02753 0.00845882 0)
(1.02205 0.00817786 0)
(1.0164 0.00791554 0)
(1.01062 0.0076709 0)
(1.00474 0.00744309 0)
(0.9988 0.00723137 0)
(0.992817 0.00703508 0)
(0.986814 0.00685364 0)
(0.980808 0.00668661 0)
(0.974814 0.0065336 0)
(0.968841 0.00639442 0)
(0.962899 0.00626893 0)
(0.956992 0.00615727 0)
(0.951123 0.00605958 0)
(0.945296 0.00597632 0)
(0.939508 0.00590814 0)
(0.933759 0.00585558 0)
(0.928041 0.00582044 0)
(0.922354 0.00580239 0)
(0.916683 0.00580636 0)
(0.911029 0.00582801 0)
(0.905369 0.00588077 0)
(0.899701 0.0059482 0)
(0.894001 0.00606411 0)
(0.888249 0.00618388 0)
(0.88245 0.00637957 0)
(0.876517 0.00656262 0)
(0.870552 0.00683517 0)
(0.864308 0.00711713 0)
(0.858069 0.00734451 0)
(0.851333 0.0078016 0)
(0.844408 0.00765203 0)
(1.00337 0.0279718 0)
(1.03442 0.0308301 0)
(1.0497 0.0222709 0)
(1.05261 0.0191693 0)
(1.05406 0.0173684 0)
(1.056 0.0156288 0)
(1.05765 0.014375 0)
(1.05879 0.0135045 0)
(1.05951 0.0128028 0)
(1.05987 0.0121962 0)
(1.05984 0.0116677 0)
(1.05939 0.011202 0)
(1.05853 0.0107838 0)
(1.05725 0.0104026 0)
(1.05557 0.0100513 0)
(1.05351 0.00972533 0)
(1.0511 0.00942139 0)
(1.04837 0.009137 0)
(1.04534 0.00887035 0)
(1.04206 0.0086201 0)
(1.03855 0.00838527 0)
(1.03484 0.00816509 0)
(1.03096 0.00795899 0)
(1.02693 0.00776649 0)
(1.02278 0.00758722 0)
(1.01853 0.00742088 0)
(1.0142 0.00726729 0)
(1.00979 0.00712633 0)
(1.00533 0.00699805 0)
(1.00082 0.00688253 0)
(0.996278 0.00678013 0)
(0.991701 0.00669123 0)
(0.987099 0.00661648 0)
(0.982474 0.00655675 0)
(0.97783 0.00651282 0)
(0.973164 0.0064867 0)
(0.968478 0.00647834 0)
(0.963763 0.00649285 0)
(0.959022 0.00652641 0)
(0.95424 0.00659218 0)
(0.949414 0.0066754 0)
(0.944531 0.00680744 0)
(0.939574 0.00694963 0)
(0.934544 0.00716423 0)
(0.929384 0.00738061 0)
(0.924147 0.0076743 0)
(0.91869 0.00800077 0)
(0.91314 0.00827169 0)
(0.907214 0.00876186 0)
(0.901002 0.00882665 0)
(1.00301 0.0258389 0)
(1.0317 0.0297621 0)
(1.0467 0.0217158 0)
(1.04982 0.0187647 0)
(1.05124 0.017152 0)
(1.05314 0.0154963 0)
(1.05483 0.0142591 0)
(1.05608 0.0134061 0)
(1.05705 0.0127289 0)
(1.05779 0.0121475 0)
(1.05833 0.0116452 0)
(1.05863 0.0112077 0)
(1.05868 0.0108199 0)
(1.05848 0.0104704 0)
(1.05801 0.0101516 0)
(1.05729 0.00985832 0)
(1.05631 0.00958661 0)
(1.05508 0.00933362 0)
(1.05361 0.00909717 0)
(1.05192 0.0088757 0)
(1.05001 0.00866803 0)
(1.04792 0.00847336 0)
(1.04565 0.00829111 0)
(1.04321 0.00812084 0)
(1.04063 0.0079623 0)
(1.03791 0.00781529 0)
(1.03507 0.00767976 0)
(1.03213 0.00755572 0)
(1.02908 0.00744337 0)
(1.02594 0.00734294 0)
(1.02273 0.00725493 0)
(1.01944 0.00717987 0)
(1.01608 0.00711859 0)
(1.01265 0.00707214 0)
(1.00916 0.00704145 0)
(1.00561 0.00702875 0)
(1.00201 0.0070342 0)
(0.998341 0.00706307 0)
(0.994612 0.00711206 0)
(0.990814 0.0071939 0)
(0.986946 0.00729572 0)
(0.982998 0.00744599 0)
(0.978959 0.00761249 0)
(0.974826 0.00784721 0)
(0.970568 0.00809706 0)
(0.966202 0.00841358 0)
(0.961652 0.00878139 0)
(0.956957 0.00910022 0)
(0.951958 0.00962341 0)
(0.946639 0.00987262 0)
(1.00268 0.0238109 0)
(1.0291 0.0286803 0)
(1.04379 0.0211815 0)
(1.04713 0.0183571 0)
(1.04855 0.0169223 0)
(1.05042 0.0153596 0)
(1.0521 0.0141407 0)
(1.05336 0.0133005 0)
(1.05436 0.012641 0)
(1.0552 0.0120761 0)
(1.05591 0.0115889 0)
(1.05648 0.0111673 0)
(1.0569 0.0107968 0)
(1.05717 0.0104659 0)
(1.05729 0.010167 0)
(1.05724 0.00989453 0)
(1.05704 0.00964441 0)
(1.05666 0.00941343 0)
(1.05613 0.00919916 0)
(1.05543 0.00899975 0)
(1.05458 0.00881385 0)
(1.05357 0.00864048 0)
(1.05242 0.00847895 0)
(1.05113 0.0083288 0)
(1.0497 0.00818971 0)
(1.04815 0.00806151 0)
(1.04648 0.00794417 0)
(1.0447 0.00783772 0)
(1.04281 0.00774243 0)
(1.04083 0.00765859 0)
(1.03874 0.00758676 0)
(1.03657 0.00752759 0)
(1.0343 0.00748195 0)
(1.03196 0.00745107 0)
(1.02953 0.00743593 0)
(1.02702 0.00743897 0)
(1.02443 0.00746047 0)
(1.02176 0.00750581 0)
(1.01901 0.00757221 0)
(1.01618 0.00767179 0)
(1.01326 0.00779369 0)
(1.01025 0.0079632 0)
(1.00714 0.00815464 0)
(1.00393 0.00840996 0)
(1.00059 0.00869207 0)
(0.997134 0.00903252 0)
(0.99352 0.00943767 0)
(0.989737 0.00980626 0)
(0.985699 0.0103621 0)
(0.981347 0.0107661 0)
(1.00238 0.0218895 0)
(1.02663 0.027584 0)
(1.04097 0.0206677 0)
(1.04452 0.0179481 0)
(1.04596 0.0166782 0)
(1.0478 0.0152173 0)
(1.04947 0.014021 0)
(1.05073 0.0131927 0)
(1.05172 0.0125495 0)
(1.05257 0.0119984 0)
(1.05331 0.0115221 0)
(1.05394 0.0111106 0)
(1.05448 0.0107505 0)
(1.05492 0.0104305 0)
(1.05526 0.0101432 0)
(1.05551 0.00988311 0)
(1.05565 0.00964606 0)
(1.0557 0.00942882 0)
(1.05564 0.00922883 0)
(1.05548 0.00904414 0)
(1.05521 0.00887325 0)
(1.05485 0.00871509 0)
(1.05437 0.00856889 0)
(1.0538 0.00843409 0)
(1.05312 0.00831037 0)
(1.05235 0.00819749 0)
(1.05149 0.00809543 0)
(1.05052 0.00800421 0)
(1.04947 0.00792408 0)
(1.04833 0.00785537 0)
(1.04709 0.00779865 0)
(1.04577 0.00775462 0)
(1.04437 0.00772416 0)
(1.04288 0.0077086 0)
(1.04131 0.00770896 0)
(1.03966 0.00772779 0)
(1.03792 0.00776549 0)
(1.0361 0.00782743 0)
(1.0342 0.00791134 0)
(1.03221 0.00802862 0)
(1.03012 0.00817045 0)
(1.02795 0.00835882 0)
(1.02568 0.00857429 0)
(1.0233 0.00884959 0)
(1.02081 0.00916135 0)
(1.0182 0.0095257 0)
(1.01546 0.00996351 0)
(1.01254 0.010381 0)
(1.00941 0.0109684 0)
(1.00599 0.0114991 0)
(1.0021 0.0200756 0)
(1.0243 0.026475 0)
(1.03824 0.0201721 0)
(1.042 0.0175397 0)
(1.04346 0.0164195 0)
(1.04526 0.0150679 0)
(1.04694 0.0138995 0)
(1.0482 0.0130833 0)
(1.04918 0.0124561 0)
(1.05001 0.0119188 0)
(1.05074 0.0114525 0)
(1.05138 0.0110492 0)
(1.05193 0.0106968 0)
(1.05241 0.0103844 0)
(1.05282 0.0101045 0)
(1.05317 0.00985202 0)
(1.05345 0.00962291 0)
(1.05366 0.00941398 0)
(1.05381 0.0092227 0)
(1.05389 0.00904709 0)
(1.05391 0.00888565 0)
(1.05387 0.00873728 0)
(1.05375 0.00860117 0)
(1.05357 0.00847679 0)
(1.05332 0.00836377 0)
(1.05301 0.00826188 0)
(1.05262 0.00817109 0)
(1.05217 0.00809141 0)
(1.05164 0.0080231 0)
(1.05105 0.00796649 0)
(1.05038 0.00792214 0)
(1.04965 0.00789078 0)
(1.04884 0.00787329 0)
(1.04796 0.00787107 0)
(1.04701 0.00788512 0)
(1.04599 0.00791808 0)
(1.04489 0.00797045 0)
(1.04371 0.00804748 0)
(1.04245 0.00814749 0)
(1.04112 0.00828095 0)
(1.0397 0.0084411 0)
(1.0382 0.00864668 0)
(1.0366 0.00888392 0)
(1.03491 0.00917756 0)
(1.03313 0.00951524 0)
(1.03123 0.00990228 0)
(1.02922 0.0103677 0)
(1.02705 0.0108308 0)
(1.0247 0.0114477 0)
(1.0221 0.0120795 0)
(1.00185 0.0183694 0)
(1.0221 0.0253574 0)
(1.03561 0.0196911 0)
(1.03956 0.0171336 0)
(1.04105 0.0161469 0)
(1.04282 0.0149107 0)
(1.04449 0.0137756 0)
(1.04575 0.0129718 0)
(1.04672 0.012361 0)
(1.04754 0.0118381 0)
(1.04826 0.011382 0)
(1.04889 0.0109867 0)
(1.04943 0.0106412 0)
(1.04991 0.0103352 0)
(1.05033 0.0100612 0)
(1.05069 0.00981432 0)
(1.05101 0.00959071 0)
(1.05127 0.00938729 0)
(1.0515 0.00920159 0)
(1.05167 0.00903171 0)
(1.05181 0.00887617 0)
(1.0519 0.0087339 0)
(1.05194 0.00860414 0)
(1.05195 0.00848639 0)
(1.05191 0.0083803 0)
(1.05182 0.00828571 0)
(1.05169 0.00820256 0)
(1.05151 0.00813092 0)
(1.05129 0.00807104 0)
(1.05101 0.00802328 0)
(1.05068 0.00798819 0)
(1.0503 0.00796655 0)
(1.04986 0.00795922 0)
(1.04937 0.00796764 0)
(1.04881 0.00799282 0)
(1.0482 0.00803745 0)
(1.04752 0.0081021 0)
(1.04678 0.00819188 0)
(1.04598 0.00830567 0)
(1.0451 0.00845297 0)
(1.04416 0.00862898 0)
(1.04314 0.00884938 0)
(1.04205 0.00910533 0)
(1.04087 0.009415 0)
(1.03961 0.00977436 0)
(1.03825 0.010182 0)
(1.0368 0.0106701 0)
(1.03521 0.0111739 0)
(1.03347 0.0118178 0)
(1.03152 0.0125281 0)
(1.00162 0.0167708 0)
(1.02003 0.0242354 0)
(1.03308 0.0192206 0)
(1.03721 0.0167313 0)
(1.03873 0.0158616 0)
(1.04046 0.014745 0)
(1.04213 0.0136492 0)
(1.0434 0.0128584 0)
(1.04436 0.0122638 0)
(1.04517 0.011756 0)
(1.04587 0.0113108 0)
(1.04648 0.0109237 0)
(1.04702 0.0105852 0)
(1.04748 0.0102853 0)
(1.04789 0.0100168 0)
(1.04825 0.00977496 0)
(1.04857 0.00955598 0)
(1.04884 0.00935693 0)
(1.04908 0.00917545 0)
(1.04928 0.00900967 0)
(1.04945 0.0088582 0)
(1.04959 0.00872003 0)
(1.04969 0.00859445 0)
(1.04977 0.00848102 0)
(1.04981 0.00837947 0)
(1.04983 0.00828966 0)
(1.04982 0.00821161 0)
(1.04977 0.00814543 0)
(1.04968 0.00809139 0)
(1.04957 0.00804989 0)
(1.04941 0.00802148 0)
(1.04922 0.008007 0)
(1.04898 0.00800729 0)
(1.0487 0.00802386 0)
(1.04838 0.00805772 0)
(1.048 0.00811155 0)
(1.04758 0.00818608 0)
(1.04711 0.00828617 0)
(1.04658 0.00841129 0)
(1.046 0.00856995 0)
(1.04536 0.00875918 0)
(1.04466 0.0089919 0)
(1.04389 0.00926338 0)
(1.04306 0.00958668 0)
(1.04216 0.00996359 0)
(1.04117 0.0103894 0)
(1.04011 0.0108959 0)
(1.03894 0.0114348 0)
(1.03763 0.0121029 0)
(1.03617 0.0128729 0)
(1.00142 0.0152788 0)
(1.01811 0.0231132 0)
(1.03065 0.0187565 0)
(1.03495 0.0163345 0)
(1.0365 0.0155647 0)
(1.0382 0.0145701 0)
(1.03986 0.0135198 0)
(1.04113 0.0127429 0)
(1.04209 0.0121644 0)
(1.04288 0.0116725 0)
(1.04357 0.0112387 0)
(1.04417 0.0108602 0)
(1.0447 0.0105289 0)
(1.04515 0.0102353 0)
(1.04555 0.00997241 0)
(1.0459 0.00973545 0)
(1.0462 0.0095209 0)
(1.04647 0.00932591 0)
(1.0467 0.00914818 0)
(1.0469 0.00898591 0)
(1.04707 0.00883777 0)
(1.04722 0.00870281 0)
(1.04734 0.00858039 0)
(1.04744 0.00847013 0)
(1.04751 0.00837185 0)
(1.04756 0.00828547 0)
(1.04759 0.00821106 0)
(1.04759 0.00814879 0)
(1.04757 0.00809896 0)
(1.04752 0.00806203 0)
(1.04744 0.00803858 0)
(1.04733 0.00802948 0)
(1.04719 0.00803559 0)
(1.04702 0.00805846 0)
(1.04681 0.00809912 0)
(1.04656 0.00816025 0)
(1.04628 0.00824271 0)
(1.04595 0.00835112 0)
(1.04558 0.00848553 0)
(1.04516 0.00865349 0)
(1.04469 0.00885363 0)
(1.04418 0.00909656 0)
(1.04361 0.00938078 0)
(1.04298 0.00971565 0)
(1.0423 0.0101067 0)
(1.04155 0.0105484 0)
(1.04074 0.0110698 0)
(1.03984 0.0116386 0)
(1.03882 0.0123281 0)
(1.03768 0.0131427 0)
(1.00124 0.0138923 0)
(1.01632 0.0219947 0)
(1.02833 0.0182952 0)
(1.03277 0.0159442 0)
(1.03437 0.0152581 0)
(1.03603 0.0143856 0)
(1.03768 0.0133872 0)
(1.03895 0.0126255 0)
(1.0399 0.0120629 0)
(1.04069 0.0115873 0)
(1.04137 0.0111657 0)
(1.04196 0.0107961 0)
(1.04247 0.0104722 0)
(1.04291 0.0101852 0)
(1.0433 0.00992803 0)
(1.04364 0.00969611 0)
(1.04393 0.00948606 0)
(1.04419 0.00929512 0)
(1.04441 0.00912107 0)
(1.0446 0.00896217 0)
(1.04477 0.00881714 0)
(1.04491 0.00868509 0)
(1.04502 0.00856545 0)
(1.04512 0.00845791 0)
(1.0452 0.00836236 0)
(1.04525 0.00827879 0)
(1.04529 0.00820733 0)
(1.04531 0.0081482 0)
(1.0453 0.00810177 0)
(1.04528 0.00806851 0)
(1.04523 0.00804906 0)
(1.04515 0.00804432 0)
(1.04505 0.00805518 0)
(1.04492 0.00808321 0)
(1.04476 0.0081295 0)
(1.04457 0.00819667 0)
(1.04435 0.00828579 0)
(1.04409 0.00840117 0)
(1.0438 0.00854343 0)
(1.04346 0.00871924 0)
(1.04309 0.00892862 0)
(1.04267 0.00918027 0)
(1.04221 0.00947511 0)
(1.0417 0.00982006 0)
(1.04114 0.0102226 0)
(1.04053 0.0106784 0)
(1.03986 0.0112124 0)
(1.03911 0.0118064 0)
(1.03828 0.012515 0)
(1.03734 0.013363 0)
(1.00107 0.012609 0)
(1.01466 0.020884 0)
(1.02612 0.0178331 0)
(1.03068 0.0155614 0)
(1.03234 0.0149434 0)
(1.03395 0.0141911 0)
(1.03559 0.0132507 0)
(1.03686 0.0125062 0)
(1.03781 0.0119592 0)
(1.03858 0.0115004 0)
(1.03925 0.0110916 0)
(1.03983 0.0107313 0)
(1.04033 0.0104152 0)
(1.04077 0.0101349 0)
(1.04114 0.00988368 0)
(1.04147 0.00965697 0)
(1.04175 0.00945153 0)
(1.042 0.00926474 0)
(1.04221 0.00909443 0)
(1.04239 0.00893893 0)
(1.04255 0.008797 0)
(1.04268 0.00866781 0)
(1.04279 0.00855087 0)
(1.04288 0.00844593 0)
(1.04295 0.00835294 0)
(1.04301 0.00827197 0)
(1.04304 0.00820321 0)
(1.04306 0.00814693 0)
(1.04305 0.00810354 0)
(1.04303 0.00807358 0)
(1.04299 0.00805769 0)
(1.04292 0.00805682 0)
(1.04283 0.00807191 0)
(1.04272 0.00810453 0)
(1.04257 0.00815584 0)
(1.04241 0.00822839 0)
(1.04221 0.00832344 0)
(1.04198 0.00844502 0)
(1.04171 0.00859426 0)
(1.04142 0.00877709 0)
(1.04108 0.00899461 0)
(1.04071 0.0092541 0)
(1.0403 0.00955816 0)
(1.03985 0.00991227 0)
(1.03936 0.0103247 0)
(1.03882 0.0107932 0)
(1.03823 0.0113385 0)
(1.03757 0.0119539 0)
(1.03684 0.0126798 0)
(1.03602 0.0135528 0)
(1.00093 0.0114263 0)
(1.01313 0.0197851 0)
(1.02403 0.0173673 0)
(1.02868 0.0151867 0)
(1.03039 0.0146227 0)
(1.03197 0.0139861 0)
(1.03358 0.0131099 0)
(1.03486 0.0123849 0)
(1.03581 0.0118533 0)
(1.03657 0.0114115 0)
(1.03723 0.0110163 0)
(1.0378 0.0106659 0)
(1.03829 0.0103578 0)
(1.03872 0.0100844 0)
(1.03908 0.00983931 0)
(1.0394 0.00961797 0)
(1.03967 0.0094173 0)
(1.03991 0.00923478 0)
(1.04011 0.00906831 0)
(1.04028 0.00891629 0)
(1.04043 0.00877752 0)
(1.04055 0.00865124 0)
(1.04065 0.00853702 0)
(1.04074 0.00843468 0)
(1.0408 0.00834424 0)
(1.04085 0.00826584 0)
(1.04088 0.00819972 0)
(1.04089 0.00814622 0)
(1.04088 0.00810578 0)
(1.04085 0.00807899 0)
(1.04081 0.00806652 0)
(1.04074 0.00806936 0)
(1.04065 0.00808849 0)
(1.04054 0.00812546 0)
(1.0404 0.00818153 0)
(1.04023 0.00825917 0)
(1.04004 0.00835982 0)
(1.03982 0.00848725 0)
(1.03957 0.00864302 0)
(1.03929 0.00883245 0)
(1.03897 0.00905749 0)
(1.03862 0.00932439 0)
(1.03824 0.00963683 0)
(1.03781 0.00999961 0)
(1.03735 0.010421 0)
(1.03685 0.0109013 0)
(1.0363 0.0114572 0)
(1.03569 0.0120911 0)
(1.03502 0.0128328 0)
(1.03428 0.013725 0)
(1.0008 0.0103411 0)
(1.01173 0.0187023 0)
(1.02204 0.0168951 0)
(1.02677 0.0148204 0)
(1.02854 0.014298 0)
(1.03008 0.0137707 0)
(1.03166 0.0129641 0)
(1.03294 0.0122617 0)
(1.03389 0.0117453 0)
(1.03465 0.0113207 0)
(1.0353 0.0109397 0)
(1.03586 0.0105997 0)
(1.03634 0.0102998 0)
(1.03676 0.0100337 0)
(1.03711 0.00979486 0)
(1.03742 0.00957908 0)
(1.03768 0.00938332 0)
(1.03791 0.00920519 0)
(1.0381 0.00904268 0)
(1.03827 0.00889422 0)
(1.03841 0.00875869 0)
(1.03852 0.00863539 0)
(1.03862 0.00852394 0)
(1.03869 0.00842426 0)
(1.03875 0.00833641 0)
(1.03879 0.00826062 0)
(1.03881 0.00819717 0)
(1.03881 0.00814647 0)
(1.0388 0.00810899 0)
(1.03877 0.00808536 0)
(1.03872 0.00807631 0)
(1.03864 0.00808284 0)
(1.03855 0.00810596 0)
(1.03843 0.00814725 0)
(1.03829 0.008208 0)
(1.03813 0.00829064 0)
(1.03794 0.00839677 0)
(1.03772 0.00852992 0)
(1.03747 0.00869204 0)
(1.03719 0.00888792 0)
(1.03688 0.00912017 0)
(1.03654 0.00939431 0)
(1.03617 0.00971467 0)
(1.03576 0.0100859 0)
(1.03531 0.0105158 0)
(1.03483 0.0110071 0)
(1.0343 0.0115734 0)
(1.03372 0.0122235 0)
(1.03309 0.0129798 0)
(1.03239 0.0138871 0)
(1.00069 0.00934948 0)
(1.01045 0.0176395 0)
(1.02017 0.016414 0)
(1.02494 0.0144623 0)
(1.02678 0.0139714 0)
(1.02828 0.0135451 0)
(1.02984 0.0128127 0)
(1.03112 0.0121365 0)
(1.03207 0.0116352 0)
(1.03282 0.0112277 0)
(1.03346 0.0108617 0)
(1.03401 0.0105325 0)
(1.03449 0.0102412 0)
(1.03489 0.00998253 0)
(1.03524 0.00975026 0)
(1.03554 0.00954023 0)
(1.03579 0.00934955 0)
(1.03601 0.00917594 0)
(1.0362 0.0090175 0)
(1.03635 0.0088727 0)
(1.03648 0.0087405 0)
(1.03659 0.00862025 0)
(1.03668 0.00851165 0)
(1.03674 0.00841467 0)
(1.03679 0.00832948 0)
(1.03683 0.00825634 0)
(1.03684 0.00819562 0)
(1.03684 0.00814776 0)
(1.03682 0.00811329 0)
(1.03678 0.00809288 0)
(1.03672 0.00808728 0)
(1.03665 0.00809754 0)
(1.03655 0.00812469 0)
(1.03643 0.00817031 0)
(1.03629 0.00823577 0)
(1.03612 0.00832341 0)
(1.03593 0.008435 0)
(1.03571 0.00857386 0)
(1.03546 0.00874224 0)
(1.03518 0.00894455 0)
(1.03488 0.00918383 0)
(1.03454 0.00946518 0)
(1.03417 0.00979321 0)
(1.03377 0.0101727 0)
(1.03333 0.010611 0)
(1.03286 0.0111129 0)
(1.03235 0.0116893 0)
(1.03179 0.0123538 0)
(1.03118 0.0131236 0)
(1.03052 0.014043 0)
(1.0006 0.00844712 0)
(1.00929 0.0166008 0)
(1.01841 0.0159224 0)
(1.02319 0.0141123 0)
(1.02511 0.0136446 0)
(1.02658 0.0133098 0)
(1.0281 0.0126552 0)
(1.02937 0.012009 0)
(1.03033 0.011523 0)
(1.03108 0.0111326 0)
(1.03171 0.010782 0)
(1.03225 0.0104644 0)
(1.03272 0.010182 0)
(1.03312 0.00993096 0)
(1.03346 0.00970545 0)
(1.03375 0.00950135 0)
(1.03399 0.00931591 0)
(1.0342 0.00914697 0)
(1.03438 0.00899271 0)
(1.03453 0.00885168 0)
(1.03465 0.0087229 0)
(1.03475 0.00860577 0)
(1.03483 0.00850008 0)
(1.03489 0.00840589 0)
(1.03494 0.0083234 0)
(1.03496 0.00825299 0)
(1.03497 0.00819505 0)
(1.03496 0.00815009 0)
(1.03494 0.00811869 0)
(1.0349 0.00810155 0)
(1.03483 0.00809947 0)
(1.03475 0.00811351 0)
(1.03465 0.00814474 0)
(1.03453 0.00819474 0)
(1.03438 0.00826494 0)
(1.03421 0.00835763 0)
(1.03402 0.00847469 0)
(1.0338 0.0086193 0)
(1.03355 0.00879391 0)
(1.03327 0.00900267 0)
(1.03297 0.0092489 0)
(1.03263 0.00953744 0)
(1.03227 0.00987302 0)
(1.03187 0.0102608 0)
(1.03145 0.0107073 0)
(1.03098 0.0112192 0)
(1.03048 0.0118057 0)
(1.02994 0.0124832 0)
(1.02936 0.0132652 0)
(1.02873 0.0141943 0)
(1.00051 0.00762928 0)
(1.00824 0.0155902 0)
(1.01677 0.015419 0)
(1.02153 0.0137696 0)
(1.02352 0.0133195 0)
(1.02496 0.0130654 0)
(1.02645 0.012491 0)
(1.02772 0.0118789 0)
(1.02867 0.0114087 0)
(1.02942 0.0110352 0)
(1.03004 0.0107006 0)
(1.03058 0.0103951 0)
(1.03104 0.010122 0)
(1.03143 0.00987887 0)
(1.03176 0.00966034 0)
(1.03204 0.00946238 0)
(1.03228 0.00928235 0)
(1.03249 0.00911822 0)
(1.03266 0.00896827 0)
(1.0328 0.00883111 0)
(1.03292 0.00870583 0)