/*--------------------------------*- C++ -*----------------------------------*\
  =========                 |
  \\      /  F ield         | OpenFOAM: The Open Source CFD Toolbox
   \\    /   O peration     | Website:  https://openfoam.org
    \\  /    A nd           | Version:  7
     \\/     M anipulation  |
\*---------------------------------------------------------------------------*/
FoamFile
{
    version     2.0;
    format      ascii;
    class       volVectorField;
    location    "0.11";
    object      vorticity;
}
// * * * * * * * * * * * * * * * * * * * * * * * * * * * * * * * * * * * * * //

dimensions      [0 0 -1 0 0 0 0];

internalField   nonuniform List<vector> 
70000
(
(0 -0 -45715.9)
(0 -0 -28616)
(0 -0 -20908.9)
(0 -0 -16972)
(0 -0 -14946.7)
(0 -0 -13635.3)
(0 -0 -12621.3)
(0 -0 -11804.1)
(0 -0 -11135.8)
(0 -0 -10577.4)
(0 -0 -10101.1)
(0 -0 -9688.11)
(0 -0 -9325.63)
(0 -0 -9004.17)
(0 -0 -8716.58)
(0 -0 -8457.29)
(0 -0 -8221.93)
(0 -0 -8007)
(0 -0 -7809.64)
(0 -0 -7627.52)
(0 -0 -7458.68)
(0 -0 -7301.47)
(0 -0 -7154.51)
(0 -0 -7016.59)
(0 -0 -6886.69)
(0 -0 -6763.88)
(0 -0 -6647.36)
(0 -0 -6536.43)
(0 -0 -6430.44)
(0 -0 -6328.78)
(0 -0 -6230.94)
(0 -0 -6136.37)
(0 -0 -6044.63)
(0 -0 -5955.19)
(0 -0 -5867.69)
(0 -0 -5781.56)
(0 -0 -5696.49)
(0 -0 -5611.89)
(0 -0 -5527.34)
(0 -0 -5442.63)
(0 -0 -5356.31)
(0 -0 -5270.33)
(0 -0 -5178.78)
(0 -0 -5092.29)
(0 -0 -4988.83)
(0 -0 -4908.5)
(0 -0 -4778.1)
(0 -0 -4724.95)
(0 -0 -4554.52)
(0 -0 -4379.84)
(0 -0 -13549.8)
(0 -0 -19947.2)
(0 -0 -18534.8)
(0 -0 -16246)
(0 -0 -14497.3)
(0 -0 -13270.1)
(0 -0 -12338.6)
(0 -0 -11585.1)
(0 -0 -10959.4)
(0 -0 -10430.9)
(0 -0 -9977.28)
(0 -0 -9582.36)
(0 -0 -9234.54)
(0 -0 -8925.24)
(0 -0 -8647.93)
(0 -0 -8397.5)
(0 -0 -8169.92)
(0 -0 -7961.91)
(0 -0 -7770.83)
(0 -0 -7594.47)
(0 -0 -7431)
(0 -0 -7278.87)
(0 -0 -7136.77)
(0 -0 -7003.57)
(0 -0 -6878.29)
(0 -0 -6760.08)
(0 -0 -6648.2)
(0 -0 -6541.95)
(0 -0 -6440.77)
(0 -0 -6344.08)
(0 -0 -6251.4)
(0 -0 -6162.25)
(0 -0 -6076.23)
(0 -0 -5992.85)
(0 -0 -5911.8)
(0 -0 -5832.58)
(0 -0 -5754.89)
(0 -0 -5678.25)
(0 -0 -5602.26)
(0 -0 -5526.69)
(0 -0 -5450.37)
(0 -0 -5374.66)
(0 -0 -5294.99)
(0 -0 -5219.12)
(0 -0 -5130.52)
(0 -0 -5058.15)
(0 -0 -4949.1)
(0 -0 -4891.32)
(0 -0 -4753.57)
(0 -0 -4733.4)
(0 -0 -3818.84)
(0 -0 -10829.3)
(0 -0 -13364)
(0 -0 -13519.6)
(0 -0 -12864.8)
(0 -0 -12136.8)
(0 -0 -11493)
(0 -0 -10930.3)
(0 -0 -10436.1)
(0 -0 -10001.2)
(0 -0 -9616.95)
(0 -0 -9275.29)
(0 -0 -8969.44)
(0 -0 -8693.94)
(0 -0 -8444.34)
(0 -0 -8217.03)
(0 -0 -8009.02)
(0 -0 -7817.82)
(0 -0 -7641.35)
(0 -0 -7477.85)
(0 -0 -7325.84)
(0 -0 -7184.03)
(0 -0 -7051.33)
(0 -0 -6926.79)
(0 -0 -6809.57)
(0 -0 -6698.94)
(0 -0 -6594.27)
(0 -0 -6494.96)
(0 -0 -6400.52)
(0 -0 -6310.46)
(0 -0 -6224.37)
(0 -0 -6141.84)
(0 -0 -6062.51)
(0 -0 -5986.01)
(0 -0 -5912.06)
(0 -0 -5840.24)
(0 -0 -5770.34)
(0 -0 -5701.93)
(0 -0 -5634.74)
(0 -0 -5568.5)
(0 -0 -5502.46)
(0 -0 -5437.28)
(0 -0 -5370.21)
(0 -0 -5305.51)
(0 -0 -5233.74)
(0 -0 -5170.42)
(0 -0 -5087.81)
(0 -0 -5027.83)
(0 -0 -4932.57)
(0 -0 -4924.37)
(0 -0 -533.042)
(0 -0 -4663.08)
(0 -0 -7719.76)
(0 -0 -9330.54)
(0 -0 -9894.47)
(0 -0 -9959.38)
(0 -0 -9826.79)
(0 -0 -9613.58)
(0 -0 -9368.71)
(0 -0 -9116.98)
(0 -0 -8870.92)
(0 -0 -8636.16)
(0 -0 -8414.86)
(0 -0 -8207.49)
(0 -0 -8013.68)
(0 -0 -7832.72)
(0 -0 -7663.71)
(0 -0 -7505.71)
(0 -0 -7357.82)
(0 -0 -7219.16)
(0 -0 -7088.94)
(0 -0 -6966.41)
(0 -0 -6850.92)
(0 -0 -6741.86)
(0 -0 -6638.67)
(0 -0 -6540.87)
(0 -0 -6448.01)
(0 -0 -6359.68)
(0 -0 -6275.51)
(0 -0 -6195.15)
(0 -0 -6118.31)
(0 -0 -6044.66)
(0 -0 -5973.96)
(0 -0 -5905.93)
(0 -0 -5840.35)
(0 -0 -5776.93)
(0 -0 -5715.5)
(0 -0 -5655.75)
(0 -0 -5597.53)
(0 -0 -5540.53)
(0 -0 -5484.5)
(0 -0 -5429.3)
(0 -0 -5374.22)
(0 -0 -5319.85)
(0 -0 -5264.21)
(0 -0 -5209.18)
(0 -0 -5152.35)
(0 -0 -5091.35)
(0 -0 -5041)
(0 -0 -4989.25)
(0 -0 322.5)
(0 -0 -1444.71)
(0 -0 -3533.62)
(0 -0 -5261.46)
(0 -0 -6402.66)
(0 -0 -7078.19)
(0 -0 -7455.95)
(0 -0 -7646.38)
(0 -0 -7717.8)
(0 -0 -7714.57)
(0 -0 -7665.36)
(0 -0 -7588.37)
(0 -0 -7495.1)
(0 -0 -7392.89)
(0 -0 -7286.49)
(0 -0 -7178.94)
(0 -0 -7072.2)
(0 -0 -6967.52)
(0 -0 -6865.66)
(0 -0 -6767.07)
(0 -0 -6671.99)
(0 -0 -6580.5)
(0 -0 -6492.59)
(0 -0 -6408.19)
(0 -0 -6327.2)
(0 -0 -6249.49)
(0 -0 -6174.91)
(0 -0 -6103.32)
(0 -0 -6034.55)
(0 -0 -5968.45)
(0 -0 -5904.89)
(0 -0 -5843.7)
(0 -0 -5784.75)
(0 -0 -5727.88)
(0 -0 -5672.99)
(0 -0 -5619.9)
(0 -0 -5568.53)
(0 -0 -5518.66)
(0 -0 -5470.29)
(0 -0 -5423.06)
(0 -0 -5377.2)
(0 -0 -5331.87)
(0 -0 -5288.14)
(0 -0 -5243.53)
(0 -0 -5202.22)
(0 -0 -5155.29)
(0 -0 -5119.82)
(0 -0 -5061.13)
(0 -0 -5045.99)
(0 -0 -4967.92)
(0 -0 364.751)
(0 -0 -158.544)
(0 -0 -1182.02)
(0 -0 -2363.61)
(0 -0 -3420.49)
(0 -0 -4260.5)
(0 -0 -4896.76)
(0 -0 -5363.05)
(0 -0 -5694.39)
(0 -0 -5922.83)
(0 -0 -6074.75)
(0 -0 -6170.36)
(0 -0 -6224.69)
(0 -0 -6248.8)
(0 -0 -6250.82)
(0 -0 -6236.75)
(0 -0 -6211.02)
(0 -0 -6176.9)
(0 -0 -6136.85)
(0 -0 -6092.68)
(0 -0 -6045.76)
(0 -0 -5997.12)
(0 -0 -5947.51)
(0 -0 -5897.52)
(0 -0 -5847.56)
(0 -0 -5797.97)
(0 -0 -5748.97)
(0 -0 -5700.74)
(0 -0 -5653.4)
(0 -0 -5607.04)
(0 -0 -5561.72)
(0 -0 -5517.47)
(0 -0 -5474.32)
(0 -0 -5432.27)
(0 -0 -5391.31)
(0 -0 -5351.42)
(0 -0 -5312.61)
(0 -0 -5274.78)
(0 -0 -5238.05)
(0 -0 -5202.07)
(0 -0 -5167.4)
(0 -0 -5132.83)
(0 -0 -5100.51)
(0 -0 -5066.21)
(0 -0 -5037.64)
(0 -0 -5000.19)
(0 -0 -4980.54)
(0 -0 -4930.23)
(0 -0 -4933.71)
(0 -0 -4862.22)
(0 -0 254.046)
(0 -0 185.365)
(0 -0 -173.401)
(0 -0 -765.429)
(0 -0 -1449.54)
(0 -0 -2118.67)
(0 -0 -2725.29)
(0 -0 -3249.71)
(0 -0 -3687.64)
(0 -0 -4044.77)
(0 -0 -4331.35)
(0 -0 -4558.54)
(0 -0 -4736.74)
(0 -0 -4875)
(0 -0 -4980.92)
(0 -0 -5060.76)
(0 -0 -5119.62)
(0 -0 -5161.6)
(0 -0 -5190.01)
(0 -0 -5207.52)
(0 -0 -5216.26)
(0 -0 -5217.96)
(0 -0 -5214.01)
(0 -0 -5205.51)
(0 -0 -5193.39)
(0 -0 -5178.37)
(0 -0 -5161.07)
(0 -0 -5141.96)
(0 -0 -5121.46)
(0 -0 -5099.9)
(0 -0 -5077.56)
(0 -0 -5054.66)
(0 -0 -5031.39)
(0 -0 -5007.93)
(0 -0 -4984.4)
(0 -0 -4960.92)
(0 -0 -4937.59)
(0 -0 -4914.45)
(0 -0 -4891.7)
(0 -0 -4869.11)
(0 -0 -4847.33)
(0 -0 -4825.22)
(0 -0 -4805.14)
(0 -0 -4782.7)
(0 -0 -4766.18)
(0 -0 -4740.57)
(0 -0 -4732.63)
(0 -0 -4696.45)
(0 -0 -4707.04)
(0 -0 -4657.83)
(0 -0 178.761)
(0 -0 204.555)
(0 -0 130.703)
(0 -0 -85.4218)
(0 -0 -418.717)
(0 -0 -816.703)
(0 -0 -1239.42)
(0 -0 -1657.84)
(0 -0 -2051.9)
(0 -0 -2410.47)
(0 -0 -2729.21)
(0 -0 -3007.98)
(0 -0 -3248.97)
(0 -0 -3455.52)
(0 -0 -3631.44)
(0 -0 -3780.52)
(0 -0 -3906.32)
(0 -0 -4012.09)
(0 -0 -4100.69)
(0 -0 -4174.61)
(0 -0 -4236.02)
(0 -0 -4286.76)
(0 -0 -4328.4)
(0 -0 -4362.28)
(0 -0 -4389.52)
(0 -0 -4411.11)
(0 -0 -4427.85)
(0 -0 -4440.45)
(0 -0 -4449.5)
(0 -0 -4455.53)
(0 -0 -4458.98)
(0 -0 -4460.23)
(0 -0 -4459.6)
(0 -0 -4457.42)
(0 -0 -4453.91)
(0 -0 -4449.31)
(0 -0 -4443.83)
(0 -0 -4437.63)
(0 -0 -4430.94)
(0 -0 -4423.74)
(0 -0 -4416.57)
(0 -0 -4408.69)
(0 -0 -4402.03)
(0 -0 -4393.17)
(0 -0 -4388.91)
(0 -0 -4377.2)
(0 -0 -4379.49)
(0 -0 -4360.27)
(0 -0 -4375.15)
(0 -0 -4349.32)
(0 -0 148.036)
(0 -0 164.641)
(0 -0 170.049)
(0 -0 120.991)
(0 -0 0.802661)
(0 -0 -181.485)
(0 -0 -410.506)
(0 -0 -669.851)
(0 -0 -943.577)
(0 -0 -1218.63)
(0 -0 -1485.68)
(0 -0 -1738.6)
(0 -0 -1973.85)
(0 -0 -2189.71)
(0 -0 -2385.81)
(0 -0 -2562.63)
(0 -0 -2721.16)
(0 -0 -2862.71)
(0 -0 -2988.72)
(0 -0 -3100.63)
(0 -0 -3199.86)
(0 -0 -3287.75)
(0 -0 -3365.52)
(0 -0 -3434.29)
(0 -0 -3495.05)
(0 -0 -3548.72)
(0 -0 -3596.07)
(0 -0 -3637.84)
(0 -0 -3674.64)
(0 -0 -3707.04)
(0 -0 -3735.53)
(0 -0 -3760.58)
(0 -0 -3782.57)
(0 -0 -3801.87)
(0 -0 -3818.79)
(0 -0 -3833.66)
(0 -0 -3846.7)
(0 -0 -3858.22)
(0 -0 -3868.39)
(0 -0 -3877.44)
(0 -0 -3885.7)
(0 -0 -3892.93)
(0 -0 -3900.39)
(0 -0 -3905.99)
(0 -0 -3914.44)
(0 -0 -3917.46)
(0 -0 -3930.22)
(0 -0 -3928.04)
(0 -0 -3948.75)
(0 -0 -3943.37)
(0 -0 136.848)
(0 -0 137.099)
(0 -0 148.785)
(0 -0 149.742)
(0 -0 122.197)
(0 -0 59.9185)
(0 -0 -36.9663)
(0 -0 -164.815)
(0 -0 -317.245)
(0 -0 -486.877)
(0 -0 -666.708)
(0 -0 -850.741)
(0 -0 -1034.17)
(0 -0 -1213.34)
(0 -0 -1385.69)
(0 -0 -1549.49)
(0 -0 -1703.74)
(0 -0 -1847.96)
(0 -0 -1982.04)
(0 -0 -2106.19)
(0 -0 -2220.76)
(0 -0 -2326.24)
(0 -0 -2423.2)
(0 -0 -2512.21)
(0 -0 -2593.85)
(0 -0 -2668.71)
(0 -0 -2737.32)
(0 -0 -2800.2)
(0 -0 -2857.85)
(0 -0 -2910.71)
(0 -0 -2959.22)
(0 -0 -3003.76)
(0 -0 -3044.69)
(0 -0 -3082.37)
(0 -0 -3117.09)
(0 -0 -3149.19)
(0 -0 -3178.88)
(0 -0 -3206.52)
(0 -0 -3232.24)
(0 -0 -3256.42)
(0 -0 -3279.19)
(0 -0 -3300.73)
(0 -0 -3321.7)
(0 -0 -3341.09)
(0 -0 -3361.89)
(0 -0 -3378.85)
(0 -0 -3402.19)
(0 -0 -3415.48)
(0 -0 -3443.57)
(0 -0 -3455.53)
(0 -0 129.972)
(0 -0 124.029)
(0 -0 129.222)
(0 -0 136.442)
(0 -0 136.538)
(0 -0 123.224)
(0 -0 92.8095)
(0 -0 43.3996)
(0 -0 -24.8568)
(0 -0 -110.115)
(0 -0 -209.568)
(0 -0 -320.028)
(0 -0 -438.295)
(0 -0 -561.416)
(0 -0 -686.812)
(0 -0 -812.34)
(0 -0 -936.287)
(0 -0 -1057.34)
(0 -0 -1174.53)
(0 -0 -1287.18)
(0 -0 -1394.87)
(0 -0 -1497.35)
(0 -0 -1594.54)
(0 -0 -1686.45)
(0 -0 -1773.18)
(0 -0 -1854.9)
(0 -0 -1931.8)
(0 -0 -2004.09)
(0 -0 -2072.01)
(0 -0 -2135.82)
(0 -0 -2195.76)
(0 -0 -2252.08)
(0 -0 -2305.01)
(0 -0 -2354.83)
(0 -0 -2401.72)
(0 -0 -2445.99)
(0 -0 -2487.77)
(0 -0 -2527.42)
(0 -0 -2564.98)
(0 -0 -2600.89)
(0 -0 -2635.15)
(0 -0 -2668.13)
(0 -0 -2700.14)
(0 -0 -2730.81)
(0 -0 -2762.03)
(0 -0 -2790.5)
(0 -0 -2823.08)
(0 -0 -2849.03)
(0 -0 -2884.31)
(0 -0 -2910.17)
(0 -0 122.985)
(0 -0 116.682)
(0 -0 118.055)
(0 -0 122.542)
(0 -0 126.5)
(0 -0 126.973)
(0 -0 121.465)
(0 -0 107.642)
(0 -0 83.8367)
(0 -0 49.3236)
(0 -0 4.19748)
(0 -0 -50.8163)
(0 -0 -114.566)
(0 -0 -185.655)
(0 -0 -262.598)
(0 -0 -343.933)
(0 -0 -428.295)
(0 -0 -514.462)
(0 -0 -601.374)
(0 -0 -688.144)
(0 -0 -774.043)
(0 -0 -858.494)
(0 -0 -941.05)
(0 -0 -1021.38)
(0 -0 -1099.24)
(0 -0 -1174.47)
(0 -0 -1246.97)
(0 -0 -1316.7)
(0 -0 -1383.66)
(0 -0 -1447.86)
(0 -0 -1509.37)
(0 -0 -1568.27)
(0 -0 -1624.64)
(0 -0 -1678.61)
(0 -0 -1730.28)
(0 -0 -1779.82)
(0 -0 -1827.29)
(0 -0 -1872.96)
(0 -0 -1916.83)
(0 -0 -1959.27)
(0 -0 -2000.22)
(0 -0 -2040.07)
(0 -0 -2078.96)
(0 -0 -2116.78)
(0 -0 -2154.8)
(0 -0 -2190.92)
(0 -0 -2229.72)
(0 -0 -2264.38)
(0 -0 -2304.78)
(0 -0 -2340.21)
(0 -0 115.668)
(0 -0 110.453)
(0 -0 110.778)
(0 -0 113.223)
(0 -0 116.046)
(0 -0 118.317)
(0 -0 119.196)
(0 -0 117.468)
(0 -0 111.83)
(0 -0 101.212)
(0 -0 84.8782)
(0 -0 62.4508)
(0 -0 33.8779)
(0 -0 -0.611889)
(0 -0 -40.5773)
(0 -0 -85.433)
(0 -0 -134.51)
(0 -0 -187.108)
(0 -0 -242.529)
(0 -0 -300.112)
(0 -0 -359.248)
(0 -0 -419.39)
(0 -0 -480.06)
(0 -0 -540.844)
(0 -0 -601.394)
(0 -0 -661.417)
(0 -0 -720.675)
(0 -0 -778.975)
(0 -0 -836.166)
(0 -0 -892.136)
(0 -0 -946.797)
(0 -0 -1000.11)
(0 -0 -1052.02)
(0 -0 -1102.56)
(0 -0 -1151.7)
(0 -0 -1199.52)
(0 -0 -1246.01)
(0 -0 -1291.33)
(0 -0 -1335.42)
(0 -0 -1378.56)
(0 -0 -1420.66)
(0 -0 -1462.03)
(0 -0 -1502.74)
(0 -0 -1542.76)
(0 -0 -1582.97)
(0 -0 -1622.03)
(0 -0 -1662.93)
(0 -0 -1701.53)
(0 -0 -1743.66)
(0 -0 -1783.7)
(0 -0 108.426)
(0 -0 104.239)
(0 -0 104.457)
(0 -0 106.171)
(0 -0 108.047)
(0 -0 109.766)
(0 -0 111.31)
(0 -0 112.33)
(0 -0 112.235)
(0 -0 110.383)
(0 -0 106.177)
(0 -0 99.1037)
(0 -0 88.783)
(0 -0 74.9734)
(0 -0 57.581)
(0 -0 36.6362)
(0 -0 12.2765)
(0 -0 -15.2776)
(0 -0 -45.7477)
(0 -0 -78.8195)
(0 -0 -114.161)
(0 -0 -151.44)
(0 -0 -190.332)
(0 -0 -230.53)
(0 -0 -271.75)
(0 -0 -313.731)
(0 -0 -356.239)
(0 -0 -399.068)
(0 -0 -442.031)
(0 -0 -484.974)
(0 -0 -527.759)
(0 -0 -570.281)
(0 -0 -612.438)
(0 -0 -654.178)
(0 -0 -695.424)
(0 -0 -736.182)
(0 -0 -776.384)
(0 -0 -816.107)
(0 -0 -855.276)
(0 -0 -894.042)
(0 -0 -932.343)
(0 -0 -970.349)
(0 -0 -1008.13)
(0 -0 -1045.66)
(0 -0 -1083.53)
(0 -0 -1120.91)
(0 -0 -1159.68)
(0 -0 -1197.49)
(0 -0 -1237.56)
(0 -0 -1277.29)
(0 -0 101.45)
(0 -0 98.0514)
(0 -0 98.2839)
(0 -0 99.7649)
(0 -0 101.284)
(0 -0 102.563)
(0 -0 103.793)
(0 -0 104.986)
(0 -0 105.965)
(0 -0 106.48)
(0 -0 106.243)
(0 -0 104.95)
(0 -0 102.305)
(0 -0 98.0444)
(0 -0 91.9558)
(0 -0 83.8857)
(0 -0 73.7415)
(0 -0 61.4895)
(0 -0 47.1484)
(0 -0 30.7811)
(0 -0 12.4855)
(0 -0 -7.6148)
(0 -0 -29.3786)
(0 -0 -52.655)
(0 -0 -77.2878)
(0 -0 -103.122)
(0 -0 -130.004)
(0 -0 -157.789)
(0 -0 -186.338)
(0 -0 -215.524)
(0 -0 -245.227)
(0 -0 -275.346)
(0 -0 -305.779)
(0 -0 -336.458)
(0 -0 -367.297)
(0 -0 -398.265)
(0 -0 -429.288)
(0 -0 -460.384)
(0 -0 -491.482)
(0 -0 -522.653)
(0 -0 -553.848)
(0 -0 -585.148)
(0 -0 -616.616)
(0 -0 -648.205)
(0 -0 -680.314)
(0 -0 -712.465)
(0 -0 -745.74)
(0 -0 -778.964)
(0 -0 -813.752)
(0 -0 -849.165)
(0 -0 94.777)
(0 -0 92.0051)
(0 -0 92.2264)
(0 -0 93.5592)
(0 -0 94.9469)
(0 -0 96.0515)
(0 -0 97.0563)
(0 -0 98.0597)
(0 -0 99.0334)
(0 -0 99.9089)
(0 -0 100.595)
(0 -0 100.97)
(0 -0 100.895)
(0 -0 100.216)
(0 -0 98.7834)
(0 -0 96.4597)
(0 -0 93.1246)
(0 -0 88.6814)
(0 -0 83.0593)
(0 -0 76.2136)
(0 -0 68.1243)
(0 -0 58.7933)
(0 -0 48.2415)
(0 -0 36.505)
(0 -0 23.6327)
(0 -0 9.68218)
(0 -0 -5.28161)
(0 -0 -21.1905)
(0 -0 -37.9721)
(0 -0 -55.5567)
(0 -0 -73.8711)
(0 -0 -92.8516)
(0 -0 -112.428)
(0 -0 -132.55)
(0 -0 -153.154)
(0 -0 -174.207)
(0 -0 -195.651)
(0 -0 -217.483)
(0 -0 -239.65)
(0 -0 -262.179)
(0 -0 -285.038)
(0 -0 -308.261)
(0 -0 -331.893)
(0 -0 -355.9)
(0 -0 -380.52)
(0 -0 -405.518)
(0 -0 -431.462)
(0 -0 -457.861)
(0 -0 -485.435)
(0 -0 -514.04)
(0 -0 88.404)
(0 -0 86.1528)
(0 -0 86.3561)
(0 -0 87.5397)
(0 -0 88.8295)
(0 -0 89.855)
(0 -0 90.753)
(0 -0 91.6274)
(0 -0 92.4821)
(0 -0 93.3024)
(0 -0 94.0716)
(0 -0 94.76)
(0 -0 95.3208)
(0 -0 95.6939)
(0 -0 95.8096)
(0 -0 95.593)
(0 -0 94.9681)
(0 -0 93.8621)
(0 -0 92.2083)
(0 -0 89.9488)
(0 -0 87.0359)
(0 -0 83.4327)
(0 -0 79.113)
(0 -0 74.0604)
(0 -0 68.2682)
(0 -0 61.7372)
(0 -0 54.4765)
(0 -0 46.5001)
(0 -0 37.8285)
(0 -0 28.4843)
(0 -0 18.4956)
(0 -0 7.88835)
(0 -0 -3.30517)
(0 -0 -15.0604)
(0 -0 -27.3441)
(0 -0 -40.1381)
(0 -0 -53.4107)
(0 -0 -67.1551)
(0 -0 -81.345)
(0 -0 -95.986)
(0 -0 -111.068)
(0 -0 -126.603)
(0 -0 -142.621)
(0 -0 -159.111)
(0 -0 -176.199)
(0 -0 -193.801)
(0 -0 -212.176)
(0 -0 -231.196)
(0 -0 -251.123)
(0 -0 -272.128)
(0 -0 82.3301)
(0 -0 80.5123)
(0 -0 80.7063)
(0 -0 81.7454)
(0 -0 82.932)
(0 -0 83.8923)
(0 -0 84.7222)
(0 -0 85.5188)
(0 -0 86.2902)
(0 -0 87.0294)
(0 -0 87.7377)
(0 -0 88.4145)
(0 -0 89.0509)
(0 -0 89.6309)
(0 -0 90.1313)
(0 -0 90.5233)
(0 -0 90.7735)
(0 -0 90.8452)
(0 -0 90.7007)
(0 -0 90.3026)
(0 -0 89.6153)
(0 -0 88.6061)
(0 -0 87.2456)
(0 -0 85.5084)
(0 -0 83.373)
(0 -0 80.822)
(0 -0 77.8421)
(0 -0 74.4237)
(0 -0 70.5617)
(0 -0 66.2532)
(0 -0 61.4994)
(0 -0 56.3028)
(0 -0 50.6691)
(0 -0 44.6035)
(0 -0 38.1153)
(0 -0 31.2083)
(0 -0 23.8932)
(0 -0 16.1703)
(0 -0 8.04837)
(0 -0 -0.477788)
(0 -0 -9.40752)
(0 -0 -18.7502)
(0 -0 -28.5251)
(0 -0 -38.7388)
(0 -0 -49.4479)
(0 -0 -60.6517)
(0 -0 -72.4445)
(0 -0 -84.8575)
(0 -0 -97.9449)
(0 -0 -111.956)
(0 -0 76.5557)
(0 -0 75.0953)
(0 -0 75.2889)
(0 -0 76.1964)
(0 -0 77.2774)
(0 -0 78.1711)
(0 -0 78.9394)
(0 -0 79.6733)
(0 -0 80.3825)
(0 -0 81.0594)
(0 -0 81.7062)
(0 -0 82.3277)
(0 -0 82.9256)
(0 -0 83.4982)
(0 -0 84.041)
(0 -0 84.5463)
(0 -0 85.0034)
(0 -0 85.3988)
(0 -0 85.7169)
(0 -0 85.9408)
(0 -0 86.0527)
(0 -0 86.0345)
(0 -0 85.8682)
(0 -0 85.5362)
(0 -0 85.0216)
(0 -0 84.3084)
(0 -0 83.3821)
(0 -0 82.2293)
(0 -0 80.8386)
(0 -0 79.1999)
(0 -0 77.3051)
(0 -0 75.1469)
(0 -0 72.7207)
(0 -0 70.0212)
(0 -0 67.046)
(0 -0 63.791)
(0 -0 60.2554)
(0 -0 56.4341)
(0 -0 52.3265)
(0 -0 47.9245)
(0 -0 43.225)
(0 -0 38.2171)
(0 -0 32.8902)
(0 -0 27.2265)
(0 -0 21.2076)
(0 -0 14.7999)
(0 -0 7.98622)
(0 -0 0.683901)
(0 -0 -7.08061)
(0 -0 -15.5349)
(0 -0 71.0806)
(0 -0 69.9119)
(0 -0 70.111)
(0 -0 70.9013)
(0 -0 71.8785)
(0 -0 72.7054)
(0 -0 73.4137)
(0 -0 74.088)
(0 -0 74.741)
(0 -0 75.3645)
(0 -0 75.959)
(0 -0 76.5292)
(0 -0 77.0783)
(0 -0 77.608)
(0 -0 78.1187)
(0 -0 78.6098)
(0 -0 79.0791)
(0 -0 79.5231)
(0 -0 79.9373)
(0 -0 80.316)
(0 -0 80.6529)
(0 -0 80.9411)
(0 -0 81.1728)
(0 -0 81.3398)
(0 -0 81.4331)
(0 -0 81.4438)
(0 -0 81.3625)
(0 -0 81.1801)
(0 -0 80.8876)
(0 -0 80.4767)
(0 -0 79.9394)
(0 -0 79.2682)
(0 -0 78.4564)
(0 -0 77.4975)
(0 -0 76.3859)
(0 -0 75.1156)
(0 -0 73.6821)
(0 -0 72.0793)
(0 -0 70.3027)
(0 -0 68.3455)
(0 -0 66.2027)
(0 -0 63.8632)
(0 -0 61.3231)
(0 -0 58.562)
(0 -0 55.5797)
(0 -0 52.3357)
(0 -0 48.8439)
(0 -0 45.0193)
(0 -0 40.913)
(0 -0 36.3456)
(0 -0 65.9033)
(0 -0 64.9707)
(0 -0 65.1782)
(0 -0 65.8651)
(0 -0 66.7422)
(0 -0 67.5036)
(0 -0 68.1542)
(0 -0 68.7709)
(0 -0 69.3697)
(0 -0 69.9427)
(0 -0 70.489)
(0 -0 71.0125)
(0 -0 71.5163)
(0 -0 72.0023)
(0 -0 72.4719)
(0 -0 72.9258)
(0 -0 73.3642)
(0 -0 73.7869)
(0 -0 74.1931)
(0 -0 74.5819)
(0 -0 74.9522)
(0 -0 75.3023)
(0 -0 75.6304)
(0 -0 75.9339)
(0 -0 76.2095)
(0 -0 76.4535)
(0 -0 76.6617)
(0 -0 76.8295)
(0 -0 76.9522)
(0 -0 77.0249)
(0 -0 77.0428)
(0 -0 77.0012)
(0 -0 76.8952)
(0 -0 76.7203)
(0 -0 76.4719)
(0 -0 76.1457)
(0 -0 75.7374)
(0 -0 75.2423)
(0 -0 74.6568)
(0 -0 73.9749)
(0 -0 73.1941)
(0 -0 72.3048)
(0 -0 71.3075)
(0 -0 70.184)
(0 -0 68.9422)
(0 -0 67.5465)
(0 -0 66.0205)
(0 -0 64.2955)
(0 -0 62.4251)
(0 -0 60.2749)
(0 -0 61.0211)
(0 -0 60.2781)
(0 -0 60.4947)
(0 -0 61.0907)
(0 -0 61.8727)
(0 -0 62.5704)
(0 -0 63.1661)
(0 -0 63.7277)
(0 -0 64.2743)
(0 -0 64.7988)
(0 -0 65.299)
(0 -0 65.7783)
(0 -0 66.2394)
(0 -0 66.6843)
(0 -0 67.114)
(0 -0 67.5296)
(0 -0 67.9315)
(0 -0 68.3203)
(0 -0 68.6961)
(0 -0 69.0594)
(0 -0 69.4108)
(0 -0 69.7509)
(0 -0 70.0801)
(0 -0 70.3983)
(0 -0 70.7049)
(0 -0 70.9991)
(0 -0 71.2795)
(0 -0 71.5443)
(0 -0 71.7917)
(0 -0 72.0195)
(0 -0 72.2256)
(0 -0 72.4077)
(0 -0 72.5634)
(0 -0 72.6903)
(0 -0 72.7859)
(0 -0 72.8478)
(0 -0 72.8736)
(0 -0 72.8605)
(0 -0 72.8067)
(0 -0 72.7081)
(0 -0 72.5646)
(0 -0 72.3688)
(0 -0 72.1242)
(0 -0 71.8166)
(0 -0 71.4569)
(0 -0 71.0175)
(0 -0 70.5234)
(0 -0 69.9224)
(0 -0 69.2658)
(0 -0 68.453)
(0 -0 56.4301)
(0 -0 55.8382)
(0 -0 56.0631)
(0 -0 56.5798)
(0 -0 57.2722)
(0 -0 57.9083)
(0 -0 58.452)
(0 -0 58.9616)
(0 -0 59.4582)
(0 -0 59.9361)
(0 -0 60.3923)
(0 -0 60.8292)
(0 -0 61.2497)
(0 -0 61.6553)
(0 -0 62.0472)
(0 -0 62.4261)
(0 -0 62.7926)
(0 -0 63.1469)
(0 -0 63.4897)
(0 -0 63.8216)
(0 -0 64.1437)
(0 -0 64.4571)
(0 -0 64.763)
(0 -0 65.0622)
(0 -0 65.3552)
(0 -0 65.6421)
(0 -0 65.9227)
(0 -0 66.1966)
(0 -0 66.4632)
(0 -0 66.722)
(0 -0 66.972)
(0 -0 67.2126)
(0 -0 67.4429)
(0 -0 67.6618)
(0 -0 67.8686)
(0 -0 68.062)
(0 -0 68.2414)
(0 -0 68.4054)
(0 -0 68.5536)
(0 -0 68.6838)
(0 -0 68.7972)
(0 -0 68.8889)
(0 -0 68.9636)
(0 -0 69.011)
(0 -0 69.0424)
(0 -0 69.0374)
(0 -0 69.0198)
(0 -0 68.9497)
(0 -0 68.8753)
(0 -0 68.717)
(0 -0 52.125)
(0 -0 51.653)
(0 -0 51.884)
(0 -0 52.3317)
(0 -0 52.941)
(0 -0 53.5177)
(0 -0 54.0123)
(0 -0 54.4731)
(0 -0 54.9224)
(0 -0 55.3559)
(0 -0 55.7702)
(0 -0 56.1668)
(0 -0 56.5485)
(0 -0 56.9167)
(0 -0 57.2725)
(0 -0 57.6165)
(0 -0 57.949)
(0 -0 58.2705)
(0 -0 58.5812)
(0 -0 58.882)
(0 -0 59.1741)
(0 -0 59.4587)
(0 -0 59.7372)
(0 -0 60.0106)
(0 -0 60.2796)
(0 -0 60.5446)
(0 -0 60.8059)
(0 -0 61.0634)
(0 -0 61.3171)
(0 -0 61.5669)
(0 -0 61.8126)
(0 -0 62.054)
(0 -0 62.2911)
(0 -0 62.5235)
(0 -0 62.7511)
(0 -0 62.9737)
(0 -0 63.1912)
(0 -0 63.4031)
(0 -0 63.6102)
(0 -0 63.811)
(0 -0 64.0076)
(0 -0 64.1967)
(0 -0 64.3834)
(0 -0 64.5602)
(0 -0 64.738)
(0 -0 64.901)
(0 -0 65.0716)
(0 -0 65.2176)
(0 -0 65.3844)
(0 -0 65.5048)
(0 -0 48.0996)
(0 -0 47.7222)
(0 -0 47.9564)
(0 -0 48.3442)
(0 -0 48.8772)
(0 -0 49.397)
(0 -0 49.8457)
(0 -0 50.2608)
(0 -0 50.6654)
(0 -0 51.0571)
(0 -0 51.4316)
(0 -0 51.7901)
(0 -0 52.135)
(0 -0 52.4677)
(0 -0 52.7892)
(0 -0 53.1001)
(0 -0 53.4004)
(0 -0 53.6905)
(0 -0 53.9707)
(0 -0 54.2419)
(0 -0 54.5051)
(0 -0 54.7618)
(0 -0 55.0133)
(0 -0 55.2607)
(0 -0 55.5046)
(0 -0 55.7456)
(0 -0 55.9838)
(0 -0 56.2195)
(0 -0 56.4525)
(0 -0 56.6831)
(0 -0 56.9111)
(0 -0 57.1367)
(0 -0 57.3598)
(0 -0 57.5806)
(0 -0 57.7992)
(0 -0 58.0156)
(0 -0 58.2303)
(0 -0 58.443)
(0 -0 58.6548)
(0 -0 58.865)
(0 -0 59.0757)
(0 -0 59.2847)
(0 -0 59.4969)
(0 -0 59.7065)
(0 -0 59.9237)
(0 -0 60.1357)
(0 -0 60.3631)
(0 -0 60.5785)
(0 -0 60.8249)
(0 -0 61.0422)
(0 -0 44.3462)
(0 -0 44.0434)
(0 -0 44.2773)
(0 -0 44.6136)
(0 -0 45.0772)
(0 -0 45.5431)
(0 -0 45.9485)
(0 -0 46.3213)
(0 -0 46.6842)
(0 -0 47.0364)
(0 -0 47.3736)
(0 -0 47.6962)
(0 -0 48.0064)
(0 -0 48.3057)
(0 -0 48.5948)
(0 -0 48.8743)
(0 -0 49.1441)
(0 -0 49.4045)
(0 -0 49.6559)
(0 -0 49.8989)
(0 -0 50.1348)
(0 -0 50.365)
(0 -0 50.5908)
(0 -0 50.8133)
(0 -0 51.0331)
(0 -0 51.2508)
(0 -0 51.4663)
(0 -0 51.68)
(0 -0 51.8916)
(0 -0 52.1014)
(0 -0 52.3094)
(0 -0 52.5155)
(0 -0 52.72)
(0 -0 52.9229)
(0 -0 53.1245)
(0 -0 53.3248)
(0 -0 53.5244)
(0 -0 53.7233)
(0 -0 53.9226)
(0 -0 54.1217)
(0 -0 54.3229)
(0 -0 54.5244)
(0 -0 54.7308)
(0 -0 54.9372)
(0 -0 55.1532)
(0 -0 55.3675)
(0 -0 55.5996)
(0 -0 55.8246)
(0 -0 56.0833)
(0 -0 56.32)
(0 -0 40.8561)
(0 -0 40.6124)
(0 -0 40.8422)
(0 -0 41.1343)
(0 -0 41.5355)
(0 -0 41.9506)
(0 -0 42.3157)
(0 -0 42.6494)
(0 -0 42.9736)
(0 -0 43.2889)
(0 -0 43.5911)
(0 -0 43.8801)
(0 -0 44.1578)
(0 -0 44.4257)
(0 -0 44.6844)
(0 -0 44.9343)
(0 -0 45.1755)
(0 -0 45.408)
(0 -0 45.6321)
(0 -0 45.8486)
(0 -0 46.0587)
(0 -0 46.264)
(0 -0 46.4656)
(0 -0 46.6646)
(0 -0 46.8618)
(0 -0 47.0573)
(0 -0 47.2514)
(0 -0 47.4441)
(0 -0 47.6353)
(0 -0 47.8251)
(0 -0 48.0134)
(0 -0 48.2003)
(0 -0 48.3859)
(0 -0 48.5703)
(0 -0 48.7536)
(0 -0 48.9361)
(0 -0 49.1181)
(0 -0 49.2998)
(0 -0 49.4823)
(0 -0 49.665)
(0 -0 49.8501)
(0 -0 50.0361)
(0 -0 50.2272)
(0 -0 50.4191)
(0 -0 50.6207)
(0 -0 50.8219)
(0 -0 51.0407)
(0 -0 51.2541)
(0 -0 51.5009)
(0 -0 51.7283)
(0 -0 37.6197)
(0 -0 37.4231)
(0 -0 37.6451)
(0 -0 37.8991)
(0 -0 38.2449)
(0 -0 38.6125)
(0 -0 38.9401)
(0 -0 39.238)
(0 -0 39.5263)
(0 -0 39.8074)
(0 -0 40.0771)
(0 -0 40.3349)
(0 -0 40.5823)
(0 -0 40.8209)
(0 -0 41.0512)
(0 -0 41.2736)
(0 -0 41.4879)
(0 -0 41.6942)
(0 -0 41.8928)
(0 -0 42.0844)
(0 -0 42.2704)
(0 -0 42.4523)
(0 -0 42.6312)
(0 -0 42.8083)
(0 -0 42.9842)
(0 -0 43.1591)
(0 -0 43.3332)
(0 -0 43.5063)
(0 -0 43.6783)
(0 -0 43.8493)
(0 -0 44.0191)
(0 -0 44.1878)
(0 -0 44.3555)
(0 -0 44.5221)
(0 -0 44.6879)
(0 -0 44.8529)
(0 -0 45.0177)
(0 -0 45.1822)
(0 -0 45.3475)
(0 -0 45.5132)
(0 -0 45.6813)
(0 -0 45.8502)
(0 -0 46.0241)
(0 -0 46.1991)
(0 -0 46.3831)
(0 -0 46.567)
(0 -0 46.7677)
(0 -0 46.9635)
(0 -0 47.1912)
(0 -0 47.4004)
(0 -0 34.6263)
(0 -0 34.4678)
(0 -0 34.6782)
(0 -0 34.8995)
(0 -0 35.1966)
(0 -0 35.5203)
(0 -0 35.8132)
(0 -0 36.0784)
(0 -0 36.334)
(0 -0 36.5834)
(0 -0 36.8231)
(0 -0 37.052)
(0 -0 37.2714)
(0 -0 37.4827)
(0 -0 37.6867)
(0 -0 37.8835)
(0 -0 38.0729)
(0 -0 38.2548)
(0 -0 38.4295)
(0 -0 38.598)
(0 -0 38.7615)
(0 -0 38.9215)
(0 -0 39.0794)
(0 -0 39.2361)
(0 -0 39.3922)
(0 -0 39.548)
(0 -0 39.7034)
(0 -0 39.8583)
(0 -0 40.0125)
(0 -0 40.166)
(0 -0 40.3186)
(0 -0 40.4704)
(0 -0 40.6213)
(0 -0 40.7713)
(0 -0 40.9206)
(0 -0 41.0692)
(0 -0 41.2177)
(0 -0 41.3659)
(0 -0 41.5149)
(0 -0 41.6643)
(0 -0 41.8159)
(0 -0 41.9684)
(0 -0 42.1254)
(0 -0 42.2834)
(0 -0 42.45)
(0 -0 42.6163)
(0 -0 42.7985)
(0 -0 42.9756)
(0 -0 43.1832)
(0 -0 43.3724)
(0 -0 31.8645)
(0 -0 31.7371)
(0 -0 31.933)
(0 -0 32.1266)
(0 -0 32.3812)
(0 -0 32.6646)
(0 -0 32.9254)
(0 -0 33.1609)
(0 -0 33.3867)
(0 -0 33.6071)
(0 -0 33.8191)
(0 -0 34.0214)
(0 -0 34.215)
(0 -0 34.4013)
(0 -0 34.5809)
(0 -0 34.754)
(0 -0 34.9203)
(0 -0 35.0796)
(0 -0 35.2323)
(0 -0 35.3793)
(0 -0 35.5219)
(0 -0 35.6617)
(0 -0 35.8001)
(0 -0 35.9379)
(0 -0 36.0758)
(0 -0 36.2139)
(0 -0 36.352)
(0 -0 36.4901)
(0 -0 36.6279)
(0 -0 36.7653)
(0 -0 36.902)
(0 -0 37.0381)
(0 -0 37.1735)
(0 -0 37.3081)
(0 -0 37.4421)
(0 -0 37.5755)
(0 -0 37.7088)
(0 -0 37.8419)
(0 -0 37.9757)
(0 -0 38.1098)
(0 -0 38.246)
(0 -0 38.3829)
(0 -0 38.524)
(0 -0 38.666)
(0 -0 38.816)
(0 -0 38.9654)
(0 -0 39.1299)
(0 -0 39.2891)
(0 -0 39.4771)
(0 -0 39.6468)
(0 -0 29.3223)
(0 -0 29.2204)
(0 -0 29.3999)
(0 -0 29.5702)
(0 -0 29.7881)
(0 -0 30.0349)
(0 -0 30.2662)
(0 -0 30.4748)
(0 -0 30.6736)
(0 -0 30.8675)
(0 -0 31.0542)
(0 -0 31.2321)
(0 -0 31.4021)
(0 -0 31.5654)
(0 -0 31.7227)
(0 -0 31.874)
(0 -0 32.019)
(0 -0 32.1575)
(0 -0 32.2898)
(0 -0 32.417)
(0 -0 32.5403)
(0 -0 32.6615)
(0 -0 32.7818)
(0 -0 32.9023)
(0 -0 33.0234)
(0 -0 33.1452)
(0 -0 33.2676)
(0 -0 33.3903)
(0 -0 33.513)
(0 -0 33.6355)
(0 -0 33.7577)
(0 -0 33.8794)
(0 -0 34.0005)
(0 -0 34.121)
(0 -0 34.2409)
(0 -0 34.3603)
(0 -0 34.4796)
(0 -0 34.5986)
(0 -0 34.7183)
(0 -0 34.8383)
(0 -0 34.9601)
(0 -0 35.0826)
(0 -0 35.209)
(0 -0 35.336)
(0 -0 35.4705)
(0 -0 35.6042)
(0 -0 35.7521)
(0 -0 35.8945)
(0 -0 36.0641)
(0 -0 36.2154)
(0 -0 26.9871)
(0 -0 26.9062)
(0 -0 27.0684)
(0 -0 27.2192)
(0 -0 27.4057)
(0 -0 27.6196)
(0 -0 27.8239)
(0 -0 28.0083)
(0 -0 28.1828)
(0 -0 28.3526)
(0 -0 28.5163)
(0 -0 28.672)
(0 -0 28.8204)
(0 -0 28.9627)
(0 -0 29.0996)
(0 -0 29.2309)
(0 -0 29.3564)
(0 -0 29.4758)
(0 -0 29.5895)
(0 -0 29.6984)
(0 -0 29.804)
(0 -0 29.9081)
(0 -0 30.012)
(0 -0 30.1165)
(0 -0 30.2223)
(0 -0 30.3293)
(0 -0 30.4372)
(0 -0 30.5459)
(0 -0 30.6548)
(0 -0 30.7639)
(0 -0 30.8728)
(0 -0 30.9813)
(0 -0 31.0894)
(0 -0 31.197)
(0 -0 31.304)
(0 -0 31.4106)
(0 -0 31.517)
(0 -0 31.6232)
(0 -0 31.7299)
(0 -0 31.8368)
(0 -0 31.9455)
(0 -0 32.0546)
(0 -0 32.1674)
(0 -0 32.2806)
(0 -0 32.4007)
(0 -0 32.52)
(0 -0 32.6524)
(0 -0 32.7793)
(0 -0 32.9318)
(0 -0 33.0659)
(0 -0 24.8462)
(0 -0 24.7824)
(0 -0 24.9274)
(0 -0 25.0616)
(0 -0 25.2213)
(0 -0 25.4061)
(0 -0 25.5859)
(0 -0 25.7485)
(0 -0 25.9013)
(0 -0 26.0495)
(0 -0 26.1923)
(0 -0 26.3279)
(0 -0 26.4568)
(0 -0 26.58)
(0 -0 26.6983)
(0 -0 26.8115)
(0 -0 26.9192)
(0 -0 27.0211)
(0 -0 27.1177)
(0 -0 27.21)
(0 -0 27.2995)
(0 -0 27.3879)
(0 -0 27.4767)
(0 -0 27.5669)
(0 -0 27.6587)
(0 -0 27.7522)
(0 -0 27.8471)
(0 -0 27.943)
(0 -0 28.0395)
(0 -0 28.1363)
(0 -0 28.2332)
(0 -0 28.3298)
(0 -0 28.4261)
(0 -0 28.5219)
(0 -0 28.6172)
(0 -0 28.7121)
(0 -0 28.8068)
(0 -0 28.9012)
(0 -0 28.9961)
(0 -0 29.0912)
(0 -0 29.1877)
(0 -0 29.2847)
(0 -0 29.3849)
(0 -0 29.4855)
(0 -0 29.5924)
(0 -0 29.6983)
(0 -0 29.8166)
(0 -0 29.9292)
(0 -0 30.066)
(0 -0 30.1842)
(0 -0 22.8865)
(0 -0 22.8367)
(0 -0 22.9652)
(0 -0 23.0851)
(0 -0 23.2223)
(0 -0 23.3815)
(0 -0 23.539)
(0 -0 23.6822)
(0 -0 23.8157)
(0 -0 23.9446)
(0 -0 24.0686)
(0 -0 24.1861)
(0 -0 24.2974)
(0 -0 24.4034)
(0 -0 24.5048)
(0 -0 24.6016)
(0 -0 24.6932)
(0 -0 24.7793)
(0 -0 24.8603)
(0 -0 24.9374)
(0 -0 25.0122)
(0 -0 25.0864)
(0 -0 25.1616)
(0 -0 25.2386)
(0 -0 25.3179)
(0 -0 25.3992)
(0 -0 25.4824)
(0 -0 25.5668)
(0 -0 25.6521)
(0 -0 25.7379)
(0 -0 25.824)
(0 -0 25.9099)
(0 -0 25.9955)
(0 -0 26.0807)
(0 -0 26.1655)
(0 -0 26.2498)
(0 -0 26.3338)
(0 -0 26.4176)
(0 -0 26.5018)
(0 -0 26.586)
(0 -0 26.6716)
(0 -0 26.7575)
(0 -0 26.8463)
(0 -0 26.9353)
(0 -0 27.0303)
(0 -0 27.124)
(0 -0 27.2294)
(0 -0 27.3289)
(0 -0 27.4512)
(0 -0 27.5551)
(0 -0 21.0951)
(0 -0 21.0566)
(0 -0 21.1699)
(0 -0 21.2773)
(0 -0 21.3955)
(0 -0 21.5324)
(0 -0 21.6701)
(0 -0 21.796)
(0 -0 21.9124)
(0 -0 22.0242)
(0 -0 22.1313)
(0 -0 22.2326)
(0 -0 22.328)
(0 -0 22.4186)
(0 -0 22.5049)
(0 -0 22.5868)
(0 -0 22.6638)
(0 -0 22.7356)
(0 -0 22.8025)
(0 -0 22.8659)
(0 -0 22.9273)
(0 -0 22.9887)
(0 -0 23.0516)
(0 -0 23.1169)
(0 -0 23.1848)
(0 -0 23.2552)
(0 -0 23.3278)
(0 -0 23.402)
(0 -0 23.4773)
(0 -0 23.5533)
(0 -0 23.6296)
(0 -0 23.706)
(0 -0 23.7821)
(0 -0 23.8578)
(0 -0 23.9331)
(0 -0 24.0078)
(0 -0 24.0824)
(0 -0 24.1566)
(0 -0 24.2311)
(0 -0 24.3055)
(0 -0 24.3812)
(0 -0 24.457)
(0 -0 24.5355)
(0 -0 24.6141)
(0 -0 24.6982)
(0 -0 24.7809)
(0 -0 24.8745)
(0 -0 24.9623)
(0 -0 25.0713)
(0 -0 25.1623)
(0 -0 19.4591)
(0 -0 19.43)
(0 -0 19.5293)
(0 -0 19.6258)
(0 -0 19.7282)
(0 -0 19.8459)
(0 -0 19.9659)
(0 -0 20.0763)
(0 -0 20.1778)
(0 -0 20.2743)
(0 -0 20.3665)
(0 -0 20.4533)
(0 -0 20.5346)
(0 -0 20.6113)
(0 -0 20.684)
(0 -0 20.7526)
(0 -0 20.8165)
(0 -0 20.8753)
(0 -0 20.9296)
(0 -0 20.9805)
(0 -0 21.0299)
(0 -0 21.0798)
(0 -0 21.1316)
(0 -0 21.1862)
(0 -0 21.244)
(0 -0 21.3048)
(0 -0 21.3679)
(0 -0 21.433)
(0 -0 21.4994)
(0 -0 21.5667)
(0 -0 21.6344)
(0 -0 21.7022)
(0 -0 21.7699)
(0 -0 21.8371)
(0 -0 21.9039)
(0 -0 21.9702)
(0 -0 22.0362)
(0 -0 22.1019)
(0 -0 22.1677)
(0 -0 22.2334)
(0 -0 22.3002)
(0 -0 22.367)
(0 -0 22.4362)
(0 -0 22.5054)
(0 -0 22.5797)
(0 -0 22.6525)
(0 -0 22.7355)
(0 -0 22.8126)
(0 -0 22.9097)
(0 -0 22.9893)
(0 -0 17.9661)
(0 -0 17.9444)
(0 -0 18.0316)
(0 -0 18.1185)
(0 -0 18.2076)
(0 -0 18.3089)
(0 -0 18.4132)
(0 -0 18.5099)
(0 -0 18.5983)
(0 -0 18.6815)
(0 -0 18.7604)
(0 -0 18.8343)
(0 -0 18.903)
(0 -0 18.9673)
(0 -0 19.028)
(0 -0 19.0846)
(0 -0 19.1367)
(0 -0 19.1839)
(0 -0 19.2267)
(0 -0 19.2665)
(0 -0 19.3051)
(0 -0 19.3445)
(0 -0 19.3864)
(0 -0 19.4316)
(0 -0 19.4804)
(0 -0 19.5324)
(0 -0 19.5873)
(0 -0 19.6443)
(0 -0 19.7029)
(0 -0 19.7625)
(0 -0 19.8226)
(0 -0 19.8829)
(0 -0 19.943)
(0 -0 20.0028)
(0 -0 20.0621)
(0 -0 20.1209)
(0 -0 20.1794)
(0 -0 20.2374)
(0 -0 20.2955)
(0 -0 20.3534)
(0 -0 20.4122)
(0 -0 20.4709)
(0 -0 20.5319)
(0 -0 20.5927)
(0 -0 20.6582)
(0 -0 20.7222)
(0 -0 20.7957)
(0 -0 20.8632)
(0 -0 20.9498)
(0 -0 21.0192)
(0 -0 16.6038)
(0 -0 16.5883)
(0 -0 16.6648)
(0 -0 16.7432)
(0 -0 16.8214)
(0 -0 16.9087)
(0 -0 16.9993)
(0 -0 17.084)
(0 -0 17.1609)
(0 -0 17.2324)
(0 -0 17.2996)
(0 -0 17.362)
(0 -0 17.4195)
(0 -0 17.4729)
(0 -0 17.5227)
(0 -0 17.5688)
(0 -0 17.6103)
(0 -0 17.6471)
(0 -0 17.6796)
(0 -0 17.7093)
(0 -0 17.7381)
(0 -0 17.7682)
(0 -0 17.8012)
(0 -0 17.838)
(0 -0 17.8788)
(0 -0 17.9233)
(0 -0 17.9708)
(0 -0 18.0207)
(0 -0 18.0724)
(0 -0 18.1252)
(0 -0 18.1787)
(0 -0 18.2324)
(0 -0 18.286)
(0 -0 18.3392)
(0 -0 18.3919)
(0 -0 18.4441)
(0 -0 18.4958)
(0 -0 18.5471)
(0 -0 18.5984)
(0 -0 18.6494)
(0 -0 18.7011)
(0 -0 18.7527)
(0 -0 18.8063)
(0 -0 18.8596)
(0 -0 18.9173)
(0 -0 18.9734)
(0 -0 19.0384)
(0 -0 19.0976)
(0 -0 19.1748)
(0 -0 19.2353)
(0 -0 15.3607)
(0 -0 15.3502)
(0 -0 15.4179)
(0 -0 15.4886)
(0 -0 15.5578)
(0 -0 15.6334)
(0 -0 15.712)
(0 -0 15.7861)
(0 -0 15.853)
(0 -0 15.9143)
(0 -0 15.9712)
(0 -0 16.0235)
(0 -0 16.0711)
(0 -0 16.1148)
(0 -0 16.155)
(0 -0 16.1915)
(0 -0 16.2237)
(0 -0 16.2511)
(0 -0 16.2744)
(0 -0 16.295)