/*--------------------------------*- C++ -*----------------------------------*\
  =========                 |
  \\      /  F ield         | OpenFOAM: The Open Source CFD Toolbox
   \\    /   O peration     | Website:  https://openfoam.org
    \\  /    A nd           | Version:  7
     \\/     M anipulation  |
\*---------------------------------------------------------------------------*/
FoamFile
{
    version     2.0;
    format      ascii;
    class       volVectorField;
    location    "0.11";
    object      wallShearStress;
}
// * * * * * * * * * * * * * * * * * * * * * * * * * * * * * * * * * * * * * //

dimensions      [0 2 -2 0 0 0 0];

internalField   uniform (0 0 0);

boundaryField
{
    velocityInlet
    {
        type            calculated;
        value           uniform (0 0 0);
    }
    pressureOutlet
    {
        type            calculated;
        value           uniform (0 0 0);
    }
    fixedWalls
    {
        type            calculated;
        value           nonuniform List<vector> 
100
(
(-0.0148955 -0.00429871 0)
(0.00033737 -0.000857005 0)
(-0.00198053 0.0002454 0)
(-0.00113605 1.23836e-05 0)
(-0.00184416 4.28292e-05 0)
(-0.00183794 2.8889e-05 0)
(-0.00214572 1.48335e-05 0)
(-0.00231077 3.44891e-05 0)
(-0.00304736 0.000138993 0)
(-0.00479249 0.000298269 0)
(-0.00732006 0.000335561 0)
(-0.00950075 0.000227627 0)
(-0.010978 0.00020674 0)
(-0.0114684 0.000186834 0)
(-0.00871553 -0.000461151 0)
(-0.000723369 -0.00135815 0)
(0.00976911 -0.0017768 0)
(0.0177492 -0.00135792 0)
(0.0209971 -0.000551426 0)
(0.0193783 0.000273632 0)
(0.0141004 0.000811375 0)
(0.00737077 0.000903043 0)
(0.00142272 0.000700269 0)
(-0.00268026 0.000422 0)
(-0.00488193 0.000194011 0)
(-0.00578074 6.21097e-05 0)
(-0.00597 3.21266e-06 0)
(-0.00585693 -1.96774e-05 0)
(-0.00565514 -2.32506e-05 0)
(-0.00545815 -1.92155e-05 0)
(-0.00530647 -1.16413e-05 0)
(-0.00521718 -2.09985e-06 0)
(-0.0051927 7.86984e-06 0)
(-0.00521981 1.64457e-05 0)
(-0.00526975 2.24352e-05 0)
(-0.00529735 2.36759e-05 0)
(-0.00524051 1.49834e-05 0)
(-0.00502154 -4.96421e-06 0)
(-0.00456141 -3.68512e-05 0)
(-0.00380931 -7.67457e-05 0)
(-0.00277597 -0.000116509 0)
(-0.00153335 -0.000148727 0)
(-0.000198821 -0.000161974 0)
(0.00108548 -0.000159995 0)
(0.00218973 -0.000140624 0)
(0.00301877 -0.000107573 0)
(0.00350885 -6.67659e-05 0)
(0.00363904 -2.41895e-05 0)
(0.00343332 1.65919e-05 0)
(0.0029523 4.88353e-05 0)
(0.00228002 6.98942e-05 0)
(0.00150716 7.99927e-05 0)
(0.000714955 8.05805e-05 0)
(-3.55885e-05 7.48331e-05 0)
(-0.000706902 6.49027e-05 0)
(-0.0012871 5.41664e-05 0)
(-0.00178852 4.53093e-05 0)
(-0.00224794 4.16529e-05 0)
(-0.00272104 4.62544e-05 0)
(-0.00325773 5.77345e-05 0)
(-0.00384932 6.82687e-05 0)
(-0.00437313 6.49598e-05 0)
(-0.00458822 3.82575e-05 0)
(-0.0042061 -2.93183e-05 0)
(-0.00305702 -0.000116799 0)
(-0.00127585 -0.00019151 0)
(0.00067659 -0.000202016 0)
(0.00215169 -0.000148764 0)
(0.0026112 -4.22023e-05 0)
(0.00196444 7.03494e-05 0)
(0.000614922 0.000125549 0)
(-0.000876494 0.000129587 0)
(-0.00210841 0.000100456 0)
(-0.00293721 6.43065e-05 0)
(-0.00340891 3.5898e-05 0)
(-0.00363675 1.80721e-05 0)
(-0.00371889 8.71993e-06 0)
(-0.00371304 2.99542e-06 0)
(-0.00364064 -2.05427e-06 0)
(-0.00350331 -7.59141e-06 0)
(-0.00330094 -1.33307e-05 0)
(-0.00304366 -1.80565e-05 0)
(-0.00275304 -2.0731e-05 0)
(-0.00245458 -2.11883e-05 0)
(-0.00216724 -2.02556e-05 0)
(-0.00190002 -1.88655e-05 0)
(-0.00165258 -1.7628e-05 0)
(-0.00142378 -1.65396e-05 0)
(-0.00120797 -1.56644e-05 0)
(-0.00100606 -1.50604e-05 0)
(-0.000805578 -1.52007e-05 0)
(-0.000608992 -1.67101e-05 0)
(-0.000402489 -1.82896e-05 0)
(-0.000222158 -1.74981e-05 0)
(-0.000129945 -1.09619e-05 0)
(-0.000165576 2.69969e-06 0)
(-0.000491026 2.11567e-05 0)
(-0.000869049 3.16781e-05 0)
(-0.00153152 4.79287e-05 0)
(-0.00224321 3.18568e-05 0)
)
;
    }
    bottomWall
    {
        type            calculated;
        value           nonuniform List<vector> 
800
(
(-0.0353513 0.00216562 0)
(-0.0160368 0.000524949 0)
(-0.0105913 0.000100536 0)
(-0.00845704 3.45709e-05 0)
(-0.00749364 1.96638e-05 0)
(-0.00685867 1.59916e-05 0)
(-0.0063506 1.31912e-05 0)
(-0.00594011 1.07418e-05 0)
(-0.00560622 8.94162e-06 0)
(-0.00532818 7.64271e-06 0)
(-0.00509141 6.65895e-06 0)
(-0.00488648 5.88198e-06 0)
(-0.00470693 5.25277e-06 0)
(-0.00454803 4.73437e-06 0)
(-0.00440619 4.30113e-06 0)
(-0.00427866 3.9345e-06 0)
(-0.00416325 3.62082e-06 0)
(-0.00405822 3.34982e-06 0)
(-0.00396217 3.11371e-06 0)
(-0.00387392 2.90643e-06 0)
(-0.00379254 2.72323e-06 0)
(-0.00371721 2.56031e-06 0)
(-0.00364725 2.41463e-06 0)
(-0.0035821 2.28371e-06 0)
(-0.00352125 2.16553e-06 0)
(-0.00346429 2.05838e-06 0)
(-0.00341083 1.96089e-06 0)
(-0.00336056 1.87188e-06 0)
(-0.00331319 1.79033e-06 0)
(-0.00326848 1.71539e-06 0)
(-0.0032262 1.64635e-06 0)
(-0.00318615 1.58257e-06 0)
(-0.00314816 1.5235e-06 0)
(-0.00311207 1.46866e-06 0)
(-0.00307774 1.41764e-06 0)
(-0.00304505 1.37007e-06 0)
(-0.00301388 1.32564e-06 0)
(-0.00298412 1.28406e-06 0)
(-0.00295568 1.24507e-06 0)
(-0.00292848 1.20845e-06 0)
(-0.00290244 1.17401e-06 0)
(-0.00287747 1.14157e-06 0)
(-0.00285353 1.11098e-06 0)
(-0.00283055 1.08203e-06 0)
(-0.00280847 1.05478e-06 0)
(-0.00278724 1.02873e-06 0)
(-0.00276681 1.00451e-06 0)
(-0.00274715 9.8067e-07 0)
(-0.00272819 9.59267e-07 0)
(-0.00270994 9.36405e-07 0)
(-0.00269468 9.17686e-07 0)
(-0.00268208 9.07117e-07 0)
(-0.00266965 8.93499e-07 0)
(-0.0026574 8.78974e-07 0)
(-0.00264536 8.65371e-07 0)
(-0.00263349 8.5244e-07 0)
(-0.0026218 8.39815e-07 0)
(-0.00261028 8.27458e-07 0)
(-0.00259893 8.15394e-07 0)
(-0.00258775 8.0362e-07 0)
(-0.00257673 7.92118e-07 0)
(-0.00256586 7.80876e-07 0)
(-0.00255515 7.69886e-07 0)
(-0.00254459 7.59141e-07 0)
(-0.00253417 7.48632e-07 0)
(-0.0025239 7.38355e-07 0)
(-0.00251377 7.283e-07 0)
(-0.00250378 7.18463e-07 0)
(-0.00249392 7.08836e-07 0)
(-0.00248419 6.99414e-07 0)
(-0.00247459 6.9019e-07 0)
(-0.00246512 6.81162e-07 0)
(-0.00245577 6.72322e-07 0)
(-0.00244654 6.63664e-07 0)
(-0.00243744 6.55185e-07 0)
(-0.00242844 6.4688e-07 0)
(-0.00241956 6.38743e-07 0)
(-0.0024108 6.30771e-07 0)
(-0.00240214 6.22957e-07 0)
(-0.00239359 6.15301e-07 0)
(-0.00238514 6.07795e-07 0)
(-0.0023768 6.00437e-07 0)
(-0.00236856 5.93223e-07 0)
(-0.00236041 5.8615e-07 0)
(-0.00235237 5.79215e-07 0)
(-0.00234442 5.72413e-07 0)
(-0.00233656 5.65741e-07 0)
(-0.00232879 5.59198e-07 0)
(-0.00232112 5.52778e-07 0)
(-0.00231353 5.4648e-07 0)
(-0.00230603 5.403e-07 0)
(-0.00229861 5.34236e-07 0)
(-0.00229128 5.28283e-07 0)
(-0.00228403 5.2244e-07 0)
(-0.00227686 5.16702e-07 0)
(-0.00226977 5.11069e-07 0)
(-0.00226275 5.05535e-07 0)
(-0.00225582 5.001e-07 0)
(-0.00224895 4.94759e-07 0)
(-0.00224217 4.89512e-07 0)
(-0.00223545 4.84353e-07 0)
(-0.0022288 4.79283e-07 0)
(-0.00222223 4.74297e-07 0)
(-0.00221572 4.69395e-07 0)
(-0.00220928 4.64574e-07 0)
(-0.00220291 4.59832e-07 0)
(-0.0021966 4.55167e-07 0)
(-0.00219036 4.50578e-07 0)
(-0.00218418 4.46063e-07 0)
(-0.00217806 4.41621e-07 0)
(-0.002172 4.37248e-07 0)
(-0.00216601 4.32945e-07 0)
(-0.00216007 4.28709e-07 0)
(-0.00215419 4.24539e-07 0)
(-0.00214837 4.20433e-07 0)
(-0.00214261 4.16391e-07 0)
(-0.0021369 4.12411e-07 0)
(-0.00213125 4.08491e-07 0)
(-0.00212565 4.0463e-07 0)
(-0.00212011 4.00829e-07 0)
(-0.00211461 3.97083e-07 0)
(-0.00210917 3.93393e-07 0)
(-0.00210378 3.89758e-07 0)
(-0.00209844 3.86177e-07 0)
(-0.00209315 3.82648e-07 0)
(-0.00208791 3.79171e-07 0)
(-0.00208272 3.75743e-07 0)
(-0.00207757 3.72366e-07 0)
(-0.00207247 3.69037e-07 0)
(-0.00206742 3.6576e-07 0)
(-0.00206241 3.62528e-07 0)
(-0.00205744 3.59343e-07 0)
(-0.00205252 3.56204e-07 0)
(-0.00204765 3.53114e-07 0)
(-0.00204281 3.50069e-07 0)
(-0.00203802 3.47068e-07 0)
(-0.00203327 3.44111e-07 0)
(-0.00202856 3.41196e-07 0)
(-0.00202389 3.38328e-07 0)
(-0.00201926 3.35495e-07 0)
(-0.00201467 3.32716e-07 0)
(-0.00201012 3.2996e-07 0)
(-0.0020056 3.27271e-07 0)
(-0.00200112 3.24583e-07 0)
(-0.00199668 3.21994e-07 0)
(-0.00199228 3.19353e-07 0)
(-0.00198791 3.16875e-07 0)
(-0.00198358 3.14246e-07 0)
(-0.00197928 3.11869e-07 0)
(-0.00197501 3.09169e-07 0)
(-0.00197144 3.06775e-07 0)
(-0.00196851 3.05565e-07 0)
(-0.00196558 3.04075e-07 0)
(-0.00196265 3.02348e-07 0)
(-0.00195971 3.00621e-07 0)
(-0.00195676 2.98972e-07 0)
(-0.00195382 2.9733e-07 0)
(-0.00195086 2.95699e-07 0)
(-0.00194791 2.94071e-07 0)
(-0.00194495 2.92443e-07 0)
(-0.00194199 2.90823e-07 0)
(-0.00193902 2.89207e-07 0)
(-0.00193605 2.87583e-07 0)
(-0.00193307 2.85982e-07 0)
(-0.00193009 2.84368e-07 0)
(-0.00192711 2.82764e-07 0)
(-0.00192412 2.81162e-07 0)
(-0.00192114 2.79565e-07 0)
(-0.00191814 2.7797e-07 0)
(-0.00191514 2.76373e-07 0)
(-0.00191214 2.74783e-07 0)
(-0.00190914 2.73195e-07 0)
(-0.00190613 2.71597e-07 0)
(-0.00190312 2.7002e-07 0)
(-0.00190011 2.68428e-07 0)
(-0.0018971 2.66848e-07 0)
(-0.00189408 2.65272e-07 0)
(-0.00189106 2.63692e-07 0)
(-0.00188803 2.62119e-07 0)
(-0.001885 2.60547e-07 0)
(-0.00188197 2.58965e-07 0)
(-0.00187894 2.57404e-07 0)
(-0.00187591 2.55829e-07 0)
(-0.00187287 2.54264e-07 0)
(-0.00186983 2.52702e-07 0)
(-0.00186679 2.51137e-07 0)
(-0.00186374 2.49581e-07 0)
(-0.0018607 2.48026e-07 0)
(-0.00185765 2.46463e-07 0)
(-0.0018546 2.4492e-07 0)
(-0.00185155 2.43363e-07 0)
(-0.00184849 2.41821e-07 0)
(-0.00184544 2.40282e-07 0)
(-0.00184238 2.38742e-07 0)
(-0.00183932 2.37206e-07 0)
(-0.00183626 2.35671e-07 0)
(-0.0018332 2.34148e-07 0)
(-0.00183014 2.32622e-07 0)
(-0.00182707 2.31092e-07 0)
(-0.00182401 2.29583e-07 0)
(-0.00182094 2.28064e-07 0)
(-0.00181788 2.26556e-07 0)
(-0.00181481 2.25055e-07 0)
(-0.00181174 2.23552e-07 0)
(-0.00180867 2.22061e-07 0)
(-0.0018056 2.20569e-07 0)
(-0.00180253 2.19076e-07 0)
(-0.00179946 2.176e-07 0)
(-0.00179638 2.16117e-07 0)
(-0.00179331 2.14649e-07 0)
(-0.00179024 2.13188e-07 0)
(-0.00178717 2.11726e-07 0)
(-0.00178409 2.10278e-07 0)
(-0.00178102 2.08827e-07 0)
(-0.00177795 2.07375e-07 0)
(-0.00177487 2.05949e-07 0)
(-0.0017718 2.0452e-07 0)
(-0.00176872 2.03101e-07 0)
(-0.00176565 2.01688e-07 0)
(-0.00176258 2.00289e-07 0)
(-0.0017595 1.98899e-07 0)
(-0.00175643 1.97515e-07 0)
(-0.00175336 1.96148e-07 0)
(-0.00175028 1.9479e-07 0)
(-0.00174721 1.93428e-07 0)
(-0.00174413 1.92116e-07 0)
(-0.00174106 1.90771e-07 0)
(-0.00173798 1.89515e-07 0)
(-0.00173491 1.88171e-07 0)
(-0.00173183 1.8702e-07 0)
(-0.00172876 1.85615e-07 0)
(-0.00172568 1.84688e-07 0)
(-0.0017226 1.83037e-07 0)
(-0.00171951 1.82629e-07 0)
(-0.00171645 1.80359e-07 0)
(-0.00171333 1.811e-07 0)
(-0.00171029 1.7725e-07 0)
(-0.00170712 1.80642e-07 0)
(-0.00170414 1.72982e-07 0)
(-0.00170087 1.82404e-07 0)
(-0.00169801 1.65985e-07 0)
(-0.00169452 1.88778e-07 0)
(-0.00169193 1.53064e-07 0)
(-0.00168803 2.04393e-07 0)
(-0.00168597 1.28204e-07 0)
(-0.0016813 2.36999e-07 0)
(-0.00168018 8.16351e-08 0)
(-0.00167432 2.95182e-07 0)
(-0.00167454 8.24449e-09 0)
(-0.00166709 3.23597e-07 0)
(-0.035351 -0.00216566 0)
(-0.0160351 -0.000525025 0)
(-0.0105873 -0.000100627 0)
(-0.00845044 -3.46616e-05 0)
(-0.00748414 -1.97598e-05 0)
(-0.00684601 -1.60933e-05 0)
(-0.00633466 -1.32967e-05 0)
(-0.00592083 -1.08499e-05 0)
(-0.00558362 -9.05148e-06 0)
(-0.0053023 -7.75348e-06 0)
(-0.0050623 -6.77026e-06 0)
(-0.00485421 -5.99402e-06 0)
(-0.00467154 -5.36617e-06 0)
(-0.00450953 -4.85002e-06 0)
(-0.00436457 -4.42013e-06 0)
(-0.00423386 -4.05805e-06 0)
(-0.00411519 -3.75014e-06 0)
(-0.00400678 -3.48615e-06 0)
(-0.00390721 -3.2583e-06 0)
(-0.00381527 -3.06057e-06 0)
(-0.00372999 -2.8883e-06 0)
(-0.00365054 -2.73779e-06 0)
(-0.00357621 -2.60612e-06 0)
(-0.00350638 -2.49095e-06 0)
(-0.00344054 -2.39041e-06 0)
(-0.00337822 -2.30303e-06 0)
(-0.00331901 -2.22759e-06 0)
(-0.00326255 -2.16326e-06 0)
(-0.00320851 -2.10921e-06 0)
(-0.00315657 -2.0652e-06 0)
(-0.00310647 -2.0305e-06 0)
(-0.00305792 -2.00569e-06 0)
(-0.00301071 -1.98951e-06 0)
(-0.00296454 -1.9841e-06 0)
(-0.00291924 -1.98643e-06 0)
(-0.0028745 -2.00188e-06 0)
(-0.00283017 -2.02314e-06 0)
(-0.00278594 -2.06177e-06 0)
(-0.00274159 -2.10258e-06 0)
(-0.00269702 -2.16586e-06 0)
(-0.00265147 -2.22847e-06 0)
(-0.00260604 -2.30999e-06 0)
(-0.00255751 -2.40589e-06 0)
(-0.00251184 -2.4677e-06 0)
(-0.00245685 -2.64555e-06 0)
(-0.00241506 -2.54217e-06 0)
(-0.00234553 -3.00044e-06 0)
(-0.00232053 -2.03196e-06 0)
(-0.00222564 -6.74025e-06 0)
(-0.00209447 0.000145805 0)
(-1.82655e-05 9.97786e-06 0)
(-1.38729e-05 3.25523e-05 0)
(-1.02357e-05 4.37591e-05 0)
(-5.17278e-06 4.9479e-05 0)
(1.27129e-06 4.56402e-05 0)
(8.71305e-06 3.18298e-05 0)
(1.62288e-05 6.48057e-06 0)
(2.35037e-05 -2.91665e-05 0)
(3.02983e-05 -7.43147e-05 0)
(3.64365e-05 -0.000127755 0)
(4.18846e-05 -0.000188356 0)
(4.66251e-05 -0.000255004 0)
(5.06358e-05 -0.000326644 0)
(5.38682e-05 -0.000402234 0)
(5.62536e-05 -0.000480714 0)
(5.77228e-05 -0.000560986 0)
(5.8224e-05 -0.000641929 0)
(5.77367e-05 -0.000722412 0)
(5.62752e-05 -0.000801319 0)
(5.38853e-05 -0.000877597 0)
(5.06355e-05 -0.000950299 0)
(4.6602e-05 -0.0010186 0)
(4.18574e-05 -0.00108182 0)
(3.64585e-05 -0.00113935 0)
(3.04417e-05 -0.00119069 0)
(2.38239e-05 -0.0012354 0)
(1.6609e-05 -0.00127303 0)
(8.82605e-06 -0.00130316 0)
(4.83522e-07 -0.00132539 0)
(-8.55438e-06 -0.00133922 0)
(-1.80614e-05 -0.00134375 0)
(-2.71012e-05 -0.0013385 0)
(-3.49892e-05 -0.00132369 0)
(-4.15944e-05 -0.00129938 0)
(-4.69825e-05 -0.00126555 0)
(-5.16041e-05 -0.00122228 0)
(-5.64986e-05 -0.00116975 0)
(-6.28693e-05 -0.00110815 0)
(-7.1084e-05 -0.00103787 0)
(-8.00113e-05 -0.000959993 0)
(-8.72879e-05 -0.000876815 0)
(-9.03755e-05 -0.000792102 0)
(-8.77626e-05 -0.000710975 0)
(-7.88945e-05 -0.000639021 0)
(-6.44308e-05 -0.000581065 0)
(-4.58949e-05 -0.000540518 0)
(-2.53047e-05 -0.000519282 0)
(-4.79566e-06 -0.000517326 0)
(1.38675e-05 -0.000533063 0)
(2.91631e-05 -0.000563894 0)
(4.01256e-05 -0.000606718 0)
(4.6194e-05 -0.000658033 0)
(4.72971e-05 -0.000714123 0)
(4.33858e-05 -0.000771216 0)
(3.45922e-05 -0.000825736 0)
(2.11503e-05 -0.000874519 0)
(2.95332e-06 -0.000914562 0)
(-1.98561e-05 -0.000941985 0)
(-4.37356e-05 -0.000953418 0)
(-6.55379e-05 -0.000953153 0)
(-0.000100239 -0.0009505 0)
(-0.000183351 -0.000934802 0)
(-0.000316433 -0.000858226 0)
(-0.000420905 -0.000687862 0)
(-0.000418588 -0.00046827 0)
(-0.000317401 -0.000268008 0)
(-0.000178276 -0.000117501 0)
(-4.70827e-05 -1.13519e-05 0)
(5.71338e-05 6.21278e-05 0)
(0.000131793 0.000111453 0)
(0.000179473 0.000140662 0)
(0.000202863 0.000154875 0)
(0.000203291 0.00015956 0)
(0.000183499 0.000161986 0)
(0.000150037 0.000167009 0)
(0.000111508 0.000174306 0)
(7.47468e-05 0.000179741 0)
(4.24732e-05 0.000179598 0)
(1.57025e-05 0.000174665 0)
(-4.46478e-06 0.000167874 0)
(-1.77951e-05 0.000161426 0)
(-2.41033e-05 0.000156848 0)
(-2.29332e-05 0.000154683 0)
(-1.41687e-05 0.000154238 0)
(5.05339e-07 0.000149577 0)
(1.60136e-05 0.00014054 0)
(2.74821e-05 0.000128058 0)
(3.27005e-05 0.000114394 0)
(3.25195e-05 0.000101861 0)
(2.92199e-05 9.15633e-05 0)
(2.4999e-05 8.33531e-05 0)
(2.10117e-05 7.66385e-05 0)
(1.75541e-05 7.11239e-05 0)
(1.44909e-05 6.68694e-05 0)
(1.16848e-05 6.40819e-05 0)
(9.02696e-06 6.28189e-05 0)
(6.38758e-06 6.2953e-05 0)
(3.71122e-06 6.44057e-05 0)
(9.73561e-07 6.71133e-05 0)
(-1.64181e-06 7.09572e-05 0)
(-4.05728e-06 7.56858e-05 0)
(-6.2074e-06 8.11242e-05 0)
(-8.04643e-06 8.70958e-05 0)
(-9.53488e-06 9.34027e-05 0)
(-1.06766e-05 9.98898e-05 0)
(-1.14705e-05 0.000106409 0)
(-1.1934e-05 0.000112829 0)
(-1.20963e-05 0.000119038 0)
(-1.19926e-05 0.000124945 0)
(-1.16663e-05 0.000130479 0)
(-1.11606e-05 0.000135591 0)
(-1.05192e-05 0.000140248 0)
(-9.78318e-06 0.000144434 0)
(-8.98662e-06 0.000148148 0)
(-8.15839e-06 0.000151395 0)
(-7.32125e-06 0.000154189 0)
(-6.48878e-06 0.000156551 0)
(-5.66588e-06 0.000158499 0)
(-4.85178e-06 0.000160048 0)
(-4.03968e-06 0.000161211 0)
(-3.21931e-06 0.000161994 0)
(-2.37999e-06 0.000162397 0)
(-1.5102e-06 0.000162421 0)
(-5.95951e-07 0.000162063 0)
(3.77577e-07 0.000161314 0)
(1.42204e-06 0.000160163 0)
(2.54302e-06 0.000158594 0)
(3.74018e-06 0.000156591 0)
(5.00638e-06 0.000154142 0)
(6.32769e-06 0.000151239 0)
(7.68374e-06 0.00014788 0)
(9.04849e-06 0.000144072 0)
(1.03913e-05 0.000139832 0)
(1.16784e-05 0.000135188 0)
(1.28741e-05 0.000130178 0)
(1.39435e-05 0.000124853 0)
(1.48537e-05 0.000119274 0)
(1.5576e-05 0.000113511 0)
(1.60873e-05 0.000107642 0)
(1.6372e-05 0.00010175 0)
(1.64227e-05 9.59193e-05 0)
(1.62408e-05 9.02341e-05 0)
(1.58362e-05 8.47731e-05 0)
(1.52261e-05 7.96075e-05 0)
(1.44338e-05 7.47987e-05 0)
(1.34873e-05 7.03965e-05 0)
(1.24166e-05 6.64379e-05 0)
(1.12532e-05 6.29475e-05 0)
(1.00275e-05 5.99374e-05 0)
(8.76866e-06 5.7408e-05 0)
(7.50307e-06 5.53499e-05 0)
(6.25417e-06 5.37447e-05 0)
(5.04253e-06 5.25674e-05 0)
(3.88666e-06 5.17876e-05 0)
(2.80386e-06 5.13715e-05 0)
(1.81511e-06 5.12822e-05 0)
(9.42814e-07 5.14766e-05 0)
(2.08097e-07 5.19073e-05 0)
(-3.65318e-07 5.25237e-05 0)
(-7.50007e-07 5.327e-05 0)
(-9.18899e-07 5.40855e-05 0)
(-8.45272e-07 5.49054e-05 0)
(-5.04581e-07 5.56609e-05 0)
(1.23279e-07 5.62809e-05 0)
(1.06156e-06 5.66927e-05 0)
(2.32813e-06 5.68181e-05 0)
(3.92434e-06 5.65834e-05 0)
(5.84693e-06 5.59211e-05 0)
(8.08999e-06 5.47654e-05 0)
(1.06376e-05 5.30571e-05 0)
(1.34656e-05 5.07456e-05 0)
(1.65419e-05 4.77903e-05 0)
(1.98283e-05 4.41617e-05 0)
(2.32815e-05 3.9843e-05 0)
(2.68545e-05 3.48315e-05 0)
(3.04989e-05 2.91393e-05 0)
(3.41684e-05 2.2793e-05 0)
(3.78219e-05 1.58329e-05 0)
(4.14217e-05 8.31105e-06 0)
(4.49361e-05 2.91205e-07 0)
(4.83466e-05 -8.15424e-06 0)
(5.16465e-05 -1.6949e-05 0)
(5.48378e-05 -2.60153e-05 0)
(5.79322e-05 -3.52778e-05 0)
(6.09501e-05 -4.46693e-05 0)
(6.39141e-05 -5.41383e-05 0)
(6.68403e-05 -6.36597e-05 0)
(6.97223e-05 -7.32519e-05 0)
(7.25038e-05 -8.30038e-05 0)
(7.50321e-05 -9.31224e-05 0)
(7.6979e-05 -0.000104016 0)
(7.77046e-05 -0.000116445 0)
(7.60251e-05 -0.000131787 0)
(6.98308e-05 -0.000152531 0)
(5.54558e-05 -0.000183109 0)
(2.64572e-05 -0.000231129 0)
(-2.87336e-05 -0.000309227 0)
(-0.000131172 -0.000436579 0)
(-0.000308328 -0.000633211 0)
(-0.000560095 -0.000900741 0)
(-3.62163e-07 1.98022e-05 0)
(-2.04409e-05 2.06363e-05 0)
(-3.35409e-05 2.09739e-05 0)
(-4.70099e-05 2.23796e-05 0)
(-6.18143e-05 2.47077e-05 0)
(-7.89327e-05 2.81034e-05 0)
(-9.95885e-05 3.27684e-05 0)
(-0.000125523 3.89436e-05 0)
(-0.000158934 4.66579e-05 0)
(-0.000202073 5.52244e-05 0)
(-0.000255683 6.27077e-05 0)
(-0.000317457 6.64728e-05 0)
(-0.000382051 6.52719e-05 0)
(-0.000445261 6.28768e-05 0)
(-0.000507328 6.14394e-05 0)
(-0.000567334 5.74624e-05 0)
(-0.000619321 4.94016e-05 0)
(-0.000658106 4.18078e-05 0)
(-0.000684022 3.90159e-05 0)
(-0.000701939 4.03786e-05 0)
(-0.000716132 4.39465e-05 0)
(-0.000726278 4.72627e-05 0)
(-0.000729887 4.81333e-05 0)
(-0.000727206 4.31934e-05 0)
(-0.000717658 2.81083e-05 0)
(-0.000698724 8.97302e-06 0)
(-0.000672504 -2.38838e-06 0)
(-0.00064499 -2.97276e-06 0)
(-0.000618005 1.78794e-06 0)
(-0.000594418 4.80568e-06 0)
(-0.000577752 -6.11807e-06 0)
(-0.000564074 -3.33794e-05 0)
(-0.000544325 -6.55843e-05 0)
(-0.000519187 -8.50321e-05 0)
(-0.000496458 -8.47052e-05 0)
(-0.000482355 -7.20044e-05 0)
(-0.000475038 -6.01496e-05 0)
(-0.000466508 -5.73729e-05 0)
(-0.000448823 -6.41528e-05 0)
(-0.000417078 -7.76578e-05 0)
(-0.000369021 -9.47557e-05 0)
(-0.000304627 -0.000113271 0)
(-0.000224204 -0.000132231 0)
(-0.000125235 -0.000149339 0)
(-9.66744e-06 -0.000161528 0)
(0.000115237 -0.000170475 0)
(0.00024679 -0.000177667 0)
(0.000384889 -0.000183617 0)
(0.000528052 -0.000188636 0)
(0.000675604 -0.000193213 0)
(0.000828014 -0.000197763 0)
(0.000985927 -0.000201412 0)
(0.00115033 -0.000202479 0)
(0.00132093 -0.000197734 0)
(0.00149407 -0.000184361 0)
(0.00166183 -0.000162111 0)
(0.00181546 -0.000137068 0)
(0.00195099 -0.000117804 0)
(0.00207077 -0.000103307 0)
(0.00217235 -7.59366e-05 0)
(0.00223926 -1.88855e-05 0)
(0.00225434 5.28678e-05 0)
(0.00222538 9.61944e-05 0)
(0.00218551 8.71312e-05 0)
(0.00215657 3.9392e-05 0)
(0.0021354 -1.63864e-05 0)
(0.00210836 -5.0307e-05 0)
(0.00205744 -3.99748e-05 0)
(0.00196282 1.93707e-05 0)
(0.00181093 0.000108779 0)
(0.00160176 0.00019854 0)
(0.00134981 0.000268067 0)
(0.00107324 0.000314252 0)
(0.000785283 0.000344922 0)
(0.000487069 0.000368085 0)
(0.000164456 0.000373528 0)
(-0.000154847 0.000343311 0)
(-0.000426924 0.000294632 0)
(-0.000650791 0.000235503 0)
(-0.000819701 0.000165717 0)
(-0.000925558 8.89729e-05 0)
(-0.000968429 1.09472e-05 0)
(-0.00095076 -5.8844e-05 0)
(-0.000873111 -0.000107603 0)
(-0.0007522 -0.000131935 0)
(-0.000613967 -0.000138571 0)
(-0.000478369 -0.000136268 0)
(-0.000354329 -0.000132898 0)
(-0.000240711 -0.000134771 0)
(-0.000129453 -0.000145624 0)
(-9.4269e-06 -0.000161574 0)
(0.000118341 -0.00016446 0)
(0.000232665 -0.000128567 0)
(0.000288383 -4.43535e-05 0)
(0.000252509 6.17273e-05 0)
(0.000129702 0.000140226 0)
(-3.39994e-05 0.000147396 0)
(-0.000169193 6.99416e-05 0)
(-0.000187072 -6.75087e-05 0)
(-2.09125e-05 -0.000135622 0)
(-0.000136213 -6.18582e-05 0)
(-0.000109631 -0.000246199 0)
(-5.76435e-05 -0.000328158 0)
(-2.4189e-05 -0.000335959 0)
(2.8043e-06 -0.000309544 0)
(2.71747e-05 -0.000260434 0)
(4.8809e-05 -0.000194362 0)
(6.57325e-05 -0.000109931 0)
(8.28629e-05 -9.06186e-06 0)
(9.88475e-05 0.00010898 0)
(0.000101286 0.000228416 0)
(7.78327e-05 0.000316088 0)
(3.68706e-05 0.000349967 0)
(-2.05338e-06 0.000334033 0)
(-2.83289e-05 0.000284252 0)
(-4.15254e-05 0.000216815 0)
(-4.46639e-05 0.000145325 0)
(-4.26069e-05 7.74325e-05 0)
(-3.91124e-05 1.43519e-05 0)
(-3.23912e-05 -4.39278e-05 0)
(-1.7127e-05 -9.40096e-05 0)
(1.16577e-05 -0.000126149 0)
(6.24578e-05 -0.000127507 0)
(0.000138269 -5.52743e-05 0)
(0.000166123 0.000126357 0)
(6.76365e-05 0.000309206 0)
(-6.6046e-05 0.000347285 0)
(-0.000163566 0.000232461 0)
(-0.000209548 9.41486e-06 0)
(-0.000165792 -0.00022979 0)
(-5.4927e-05 -0.000378214 0)
(4.79346e-05 -0.000426064 0)
(0.000100736 -0.000415998 0)
(0.000108172 -0.000377591 0)
(6.50196e-05 -0.000338754 0)
(-2.9218e-05 -0.000290547 0)
(-0.00013796 -0.000284819 0)
(-0.000216055 -0.000300508 0)
(-0.000246288 -0.000325995 0)
(-0.000218268 -0.000333481 0)
(-0.000137845 -0.000304125 0)
(-1.41871e-05 -0.000219973 0)
(0.00012336 -7.18428e-05 0)
(0.000235009 0.000131822 0)
(0.000274477 0.000360446 0)
(0.000250329 0.000563365 0)
(0.000236365 0.000725443 0)
(0.000242187 0.000879566 0)
(0.000225378 0.00102658 0)
(0.000182714 0.00113702 0)
(0.000120032 0.00119718 0)
(3.33789e-05 0.00119076 0)
(-7.64893e-05 0.0010947 0)
(-0.000203345 0.000896875 0)
(-0.0003331 0.000599774 0)
(-0.000444957 0.000212889 0)
(-0.000509632 -0.000243415 0)
(-0.000496768 -0.000704643 0)
(-0.000401256 -0.001088 0)
(-0.000243157 -0.00135606 0)
(-5.01595e-05 -0.00149932 0)
(0.000169592 -0.00150543 0)
(0.000397573 -0.00136052 0)
(0.000602943 -0.00106119 0)
(0.00074248 -0.000612864 0)
(0.000790271 -6.16043e-05 0)
(0.000758347 0.000492265 0)
(0.000683965 0.000972533 0)
(0.000613699 0.00137411 0)
(0.000522778 0.0017184 0)
(0.000291672 0.0020408 0)
(-0.000181371 0.00235061 0)
(-0.000761861 0.00238794 0)
(-0.000952772 0.0021087 0)
(-0.000532635 0.00383773 0)
(0.00234687 0.00395135 0)
(0.0022454 0.00349158 0)
(0.00166237 0.00514707 0)
(0.000508208 0.00502052 0)
(0.000376959 0.0046911 0)
(0.000346706 0.00487208 0)
(9.72472e-06 0.00491265 0)
(-0.000102746 0.00471637 0)
(-9.14474e-05 0.00464269 0)
(-0.000183137 0.00457183 0)
(-0.000221941 0.00442545 0)
(-0.000205103 0.00431407 0)
(-0.000217846 0.00421925 0)
(-0.000219609 0.00410677 0)
(-0.000201634 0.00400902 0)
(-0.000192218 0.00392459 0)
(-0.000181509 0.00384054 0)
(-0.000165217 0.00376551 0)
(-0.000152104 0.00369943 0)
(-0.000139609 0.00363754 0)
(-0.000126133 0.0035819 0)
(-0.000114322 0.00353221 0)
(-0.000103346 0.0034866 0)
(-9.25966e-05 0.00344538 0)
(-8.27882e-05 0.00340822 0)
(-7.3573e-05 0.00337432 0)
(-6.47051e-05 0.00334358 0)
(-5.63472e-05 0.00331575 0)
(-4.83673e-05 0.00329045 0)
(-4.07085e-05 0.00326752 0)
(-3.34354e-05 0.00324674 0)
(-2.65426e-05 0.00322788 0)
(-2.0063e-05 0.00321075 0)
(-1.40516e-05 0.00319514 0)
(-8.53717e-06 0.00318085 0)
(-3.55385e-06 0.00316767 0)
(8.68192e-07 0.00315543 0)
(4.7165e-06 0.00314393 0)
(7.99473e-06 0.003133 0)
(1.07207e-05 0.00312248 0)
(1.29184e-05 0.00311226 0)
(1.46142e-05 0.00310222 0)
(1.58381e-05 0.00309227 0)
(1.66218e-05 0.00308231 0)
(1.70003e-05 0.0030723 0)
(1.70123e-05 0.00306216 0)
(1.67e-05 0.00305186 0)
(1.61086e-05 0.00304138 0)
(1.52853e-05 0.00303068 0)
(1.42775e-05 0.00301977 0)
(1.31316e-05 0.00300865 0)
(1.18907e-05 0.00299733 0)
(1.05943e-05 0.00298583 0)
(9.27728e-06 0.00297417 0)
(7.96979e-06 0.0029624 0)
(6.69708e-06 0.00295053 0)
(5.47985e-06 0.00293861 0)
(4.33458e-06 0.00292668 0)
(3.27418e-06 0.00291477 0)
(2.30823e-06 0.00290293 0)
(1.44318e-06 0.00289119 0)
(6.81665e-07 0.0028796 0)
(2.19098e-08 0.00286819 0)
(-5.42607e-07 0.00285701 0)
(-1.02344e-06 0.00284608 0)
(-1.43791e-06 0.00283544 0)
(-1.80926e-06 0.00282512 0)
(-2.16673e-06 0.00281514 0)
(-2.54511e-06 0.00280551 0)
(-2.98344e-06 0.00279626 0)
(-3.52612e-06 0.00278736 0)
(-4.22333e-06 0.00277884 0)
(-5.13112e-06 0.00277066 0)
(-6.31078e-06 0.00276281 0)
(-7.82737e-06 0.00275526 0)
(-9.7487e-06 0.00274795 0)
(-1.21446e-05 0.00274084 0)
(-1.50861e-05 0.00273385 0)
(-1.86449e-05 0.0027269 0)
(-2.28925e-05 0.00271992 0)
(-2.79002e-05 0.00271278 0)
(-3.3741e-05 0.00270539 0)
(-4.04892e-05 0.00269762 0)
(-4.8218e-05 0.00268934 0)
(-5.70029e-05 0.00268041 0)
(-6.69249e-05 0.00267067 0)
(-7.80682e-05 0.00265996 0)
(-9.05162e-05 0.0026481 0)
(-0.000104355 0.0026349 0)
(-0.000119678 0.00262017 0)
(-0.000136589 0.00260372 0)
(-0.000155197 0.00258532 0)
(-0.000175624 0.00256475 0)
(-0.000198005 0.0025418 0)
(-0.000222487 0.00251623 0)
(-0.000249234 0.00248779 0)
(-0.000278431 0.00245624 0)
(-0.000310284 0.00242134 0)
(-0.000345025 0.00238281 0)
(-0.000382911 0.00234039 0)
(-0.000424228 0.00229383 0)
(-0.000469298 0.00224283 0)
(-0.000518486 0.00218713 0)
(-0.000572207 0.00212646 0)
(-0.000630946 0.00206056 0)
(-0.00069529 0.00198917 0)
(-0.00076596 0.00191203 0)
(-0.000843802 0.00182879 0)
(-0.000929791 0.00173899 0)
(-0.00102508 0.00164203 0)
(-0.00113098 0.00153709 0)
(-0.00124878 0.00142317 0)
(-0.0013799 0.00129915 0)
(-0.00152615 0.00116386 0)
(-0.00168871 0.00101615 0)
(-0.00186769 0.000855234 0)
(-0.00207281 0.000681432 0)
(-0.00230808 0.000490161 0)
(-0.00256425 0.00028122 0)
(-0.00284904 5.44102e-05 0)
(-0.00317198 -0.000178244 0)
(-0.00354194 -0.000484334 0)
(-0.00390896 -0.000651426 0)
(-0.00437508 -0.00137095 0)
(-0.00429931 -0.000704523 0)
)
;
    }
    frontAndBack
    {
        type            empty;
    }
}


// ************************************************************************* //
