/*--------------------------------*- C++ -*----------------------------------*\
  =========                 |
  \\      /  F ield         | OpenFOAM: The Open Source CFD Toolbox
   \\    /   O peration     | Website:  https://openfoam.org
    \\  /    A nd           | Version:  7
     \\/     M anipulation  |
\*---------------------------------------------------------------------------*/
FoamFile
{
    version     2.0;
    format      ascii;
    class       surfaceScalarField;
    location    "0.05";
    object      ddtCorrDdt0(phi);
}
// * * * * * * * * * * * * * * * * * * * * * * * * * * * * * * * * * * * * * //

dimensions      [0 3 -2 0 0 0 0];

internalField   nonuniform List<scalar> 
139350
(
6.94976e-10
-6.95339e-10
1.79069e-09
-1.09507e-09
2.96721e-09
-1.17704e-09
4.12239e-09
-1.15478e-09
5.27713e-09
-1.15464e-09
6.44379e-09
-1.16666e-09
7.60424e-09
-1.16067e-09
8.73945e-09
-1.13532e-09
9.83882e-09
-1.09993e-09
1.09055e-08
-1.06678e-09
1.19501e-08
-1.04547e-09
1.29917e-08
-1.04197e-09
1.40465e-08
-1.05565e-09
1.51272e-08
-1.08172e-09
1.62418e-08
-1.11488e-09
1.73913e-08
-1.15135e-09
1.85831e-08
-1.19086e-09
1.98105e-08
-1.23053e-09
2.10849e-08
-1.27327e-09
2.24017e-08
-1.32026e-09
2.37748e-08
-1.373e-09
2.52071e-08
-1.43446e-09
2.67125e-08
-1.50541e-09
2.82981e-08
-1.58732e-09
2.9983e-08
-1.68332e-09
3.17712e-08
-1.79161e-09
3.36899e-08
-1.91669e-09
3.57452e-08
-2.05927e-09
3.79669e-08
-2.22143e-09
4.03733e-08
-2.40882e-09
4.2996e-08
-2.62317e-09
4.58647e-08
-2.87076e-09
4.90237e-08
-3.1582e-09
5.25149e-08
-3.4949e-09
5.64017e-08
-3.88559e-09
6.07513e-08
-4.3535e-09
6.56422e-08
-4.89093e-09
7.11969e-08
-5.55702e-09
7.75121e-08
-6.31627e-09
8.47963e-08
-7.28573e-09
9.31951e-08
-8.40043e-09
1.03031e-07
-9.83867e-09
1.14602e-07
-1.15739e-08
1.28386e-07
-1.37917e-08
1.45075e-07
-1.66947e-08
1.65516e-07
-2.04538e-08
1.91425e-07
-2.59202e-08
2.25314e-07
-3.39059e-08
2.68627e-07
-4.33188e-08
-1.84404e-07
4.53026e-07
1.02394e-09
-1.71972e-09
3.22322e-09
-3.29366e-09
5.82524e-09
-3.77956e-09
8.38116e-09
-3.71028e-09
1.09205e-08
-3.69388e-09
1.35001e-08
-3.74631e-09
1.60586e-08
-3.71936e-09
1.85156e-08
-3.59244e-09
2.08309e-08
-3.41592e-09
2.30132e-08
-3.24911e-09
2.51006e-08
-3.13384e-09
2.71476e-08
-3.08946e-09
2.92015e-08
-3.11049e-09
3.12957e-08
-3.17703e-09
3.34483e-08
-3.2677e-09
3.56631e-08
-3.36814e-09
3.79467e-08
-3.47352e-09
4.02909e-08
-3.57821e-09
4.27073e-08
-3.68837e-09
4.51936e-08
-3.81023e-09
4.77695e-08
-3.94891e-09
5.04459e-08
-4.11304e-09
5.32465e-08
-4.30603e-09
5.61902e-08
-4.53293e-09
5.93089e-08
-4.80024e-09
6.26206e-08
-5.10698e-09
6.61684e-08
-5.46247e-09
6.99767e-08
-5.8718e-09
7.40968e-08
-6.3413e-09
7.85725e-08
-6.88716e-09
8.34658e-08
-7.5168e-09
8.88425e-08
-8.24977e-09
9.47896e-08
-9.10444e-09
1.01403e-07
-1.01125e-08
1.08808e-07
-1.12895e-08
1.17151e-07
-1.27e-08
1.26601e-07
-1.43412e-08
1.37399e-07
-1.63571e-08
1.49783e-07
-1.87019e-08
1.64146e-07
-2.16502e-08
1.80846e-07
-2.51026e-08
2.00537e-07
-2.95327e-08
2.23788e-07
-3.48281e-08
2.51789e-07
-4.18009e-08
2.85575e-07
-5.04875e-08
3.27418e-07
-6.23093e-08
3.79942e-07
-7.84578e-08
4.50195e-07
-1.04177e-07
5.44714e-07
-1.37843e-07
-3.71848e-07
7.32152e-07
8.54153e-10
-2.57437e-09
3.28905e-09
-5.72782e-09
6.58207e-09
-7.07309e-09
1.00269e-08
-7.15465e-09
1.34684e-08
-7.1353e-09
1.69556e-08
-7.23353e-09
2.04235e-08
-7.18754e-09
2.3743e-08
-6.91205e-09
2.68265e-08
-6.50008e-09
2.96647e-08
-6.08743e-09
3.23057e-08
-5.77588e-09
3.48287e-08
-5.61296e-09
3.73083e-08
-5.59109e-09
3.98002e-08
-5.67014e-09
4.2337e-08
-5.80472e-09
4.49296e-08
-5.96292e-09
4.75871e-08
-6.12984e-09
5.03007e-08
-6.29561e-09
5.30819e-08
-6.46829e-09
5.59287e-08
-6.66085e-09
5.88625e-08
-6.88281e-09
6.18972e-08
-7.14989e-09
6.50602e-08
-7.46902e-09
6.8375e-08
-7.84982e-09
7.18788e-08
-8.30204e-09
7.55952e-08
-8.82738e-09
7.95746e-08
-9.4397e-09
8.38495e-08
-1.01511e-08
8.84817e-08
-1.09733e-08
9.35278e-08
-1.1936e-08
9.90651e-08
-1.30545e-08
1.05179e-07
-1.43661e-08
1.11979e-07
-1.59036e-08
1.1959e-07
-1.77276e-08
1.28172e-07
-1.98699e-08
1.37909e-07
-2.24413e-08
1.49031e-07
-2.54638e-08
1.61828e-07
-2.91565e-08
1.76643e-07
-3.35176e-08
1.93934e-07
-3.89436e-08
2.14221e-07
-4.53912e-08
2.38309e-07
-5.36248e-08
2.66925e-07
-6.34471e-08
3.01689e-07
-7.65738e-08
3.43741e-07
-9.25466e-08
3.96157e-07
-1.14739e-07
4.61997e-07
-1.44312e-07
5.50351e-07
-1.92549e-07
6.70634e-07
-2.5813e-07
-5.8143e-07
8.80211e-07
5.95052e-10
-3.16997e-09
2.74243e-09
-7.87442e-09
6.07396e-09
-1.04051e-08
9.91081e-09
-1.09911e-08
1.3904e-08
-1.11284e-08
1.79954e-08
-1.1325e-08
2.2107e-08
-1.12994e-08
2.60882e-08
-1.08934e-08
2.98044e-08
-1.0217e-08
3.32e-08
-9.48312e-09
3.62959e-08
-8.87286e-09
3.91657e-08
-8.48329e-09
4.1894e-08
-8.32045e-09
4.45545e-08
-8.33183e-09
4.71988e-08
-8.44926e-09
4.98542e-08
-8.6206e-09
5.25418e-08
-8.8163e-09
5.52614e-08
-9.01906e-09
5.80294e-08
-9.23504e-09
6.08469e-08
-9.48227e-09
6.37372e-08
-9.77323e-09
6.6715e-08
-1.01299e-08
6.98084e-08
-1.05623e-08
7.30409e-08
-1.10846e-08
7.645e-08
-1.1709e-08
8.00595e-08
-1.24412e-08
8.39211e-08
-1.32991e-08
8.80692e-08
-1.43037e-08
9.25689e-08
-1.54729e-08
9.74818e-08
-1.68516e-08
1.02892e-07
-1.8465e-08
1.08894e-07
-2.03708e-08
1.15609e-07
-2.26177e-08
1.23176e-07
-2.52985e-08
1.31774e-07
-2.84666e-08
1.41605e-07
-3.22774e-08
1.52938e-07
-3.67962e-08
1.66079e-07
-4.23005e-08
1.81439e-07
-4.88782e-08
1.99505e-07
-5.7012e-08
2.20889e-07
-6.67768e-08
2.46483e-07
-7.92232e-08
2.77109e-07
-9.40765e-08
3.14575e-07
-1.14049e-07
3.60234e-07
-1.38213e-07
4.1733e-07
-1.7185e-07
4.89362e-07
-2.16358e-07
5.86611e-07
-2.89817e-07
7.17757e-07
-3.8928e-07
-7.95445e-07
9.31766e-07
4.38711e-10
-3.60926e-09
2.16163e-09
-9.59654e-09
5.12797e-09
-1.33719e-08
8.8774e-09
-1.474e-08
1.3015e-08
-1.52659e-08
1.73861e-08
-1.56962e-08
2.18871e-08
-1.58007e-08
2.63653e-08
-1.53716e-08
3.06572e-08
-1.45097e-08
3.46515e-08
-1.34775e-08
3.83065e-08
-1.25289e-08
4.16454e-08
-1.18228e-08
4.47246e-08
-1.14007e-08
4.76113e-08
-1.12199e-08
5.03677e-08
-1.12059e-08
5.30401e-08
-1.12954e-08
5.56717e-08
-1.14466e-08
5.82826e-08
-1.1634e-08
6.09065e-08
-1.18576e-08
6.35562e-08
-1.2136e-08
6.62631e-08
-1.24803e-08
6.90456e-08
-1.29148e-08
7.19331e-08
-1.34497e-08
7.49477e-08
-1.41014e-08
7.81242e-08
-1.48834e-08
8.14838e-08
-1.5805e-08
8.50745e-08
-1.68876e-08
8.89284e-08
-1.81621e-08
9.31087e-08
-1.96532e-08
9.76764e-08
-2.14221e-08
1.02717e-07
-2.35057e-08
1.08327e-07
-2.59835e-08
1.14633e-07
-2.89227e-08
1.21778e-07
-3.24479e-08
1.29954e-07
-3.66417e-08
1.3937e-07
-4.1697e-08
1.50315e-07
-4.77421e-08
1.63105e-07
-5.50921e-08
1.78186e-07
-6.39612e-08
1.96063e-07
-7.48906e-08
2.17397e-07
-8.8113e-08
2.43119e-07
-1.04949e-07
2.74151e-07
-1.25112e-07
3.12276e-07
-1.52183e-07
3.59184e-07
-1.85129e-07
4.18019e-07
-2.30699e-07
4.92397e-07
-2.90751e-07
5.93593e-07
-3.91032e-07
7.29629e-07
-5.25318e-07
-9.92696e-07
9.26874e-07
3.9761e-10
-4.00747e-09
1.81009e-09
-1.10082e-08
4.32734e-09
-1.58897e-08
7.71078e-09
-1.8123e-08
1.16351e-08
-1.91901e-08
1.59255e-08
-1.99865e-08
2.04841e-08
-2.03597e-08
2.51898e-08
-2.00774e-08
2.9891e-08
-1.92117e-08
3.44457e-08
-1.80323e-08
3.8745e-08
-1.68293e-08
4.27305e-08
-1.58089e-08
4.63853e-08
-1.50566e-08
4.97268e-08
-1.45626e-08
5.27951e-08
-1.42744e-08
5.56388e-08
-1.41414e-08
5.83193e-08
-1.41258e-08
6.08836e-08
-1.42025e-08
6.33937e-08
-1.43663e-08
6.58872e-08
-1.46336e-08
6.84151e-08
-1.50083e-08
7.1009e-08
-1.5511e-08
7.37054e-08
-1.61459e-08
7.65287e-08
-1.6927e-08
7.95122e-08
-1.78646e-08
8.26729e-08
-1.89701e-08
8.60536e-08
-2.02661e-08
8.96803e-08
-2.17934e-08
9.36106e-08
-2.35834e-08
9.79002e-08
-2.57144e-08
1.02631e-07
-2.82365e-08
1.07896e-07
-3.12519e-08
1.13824e-07
-3.48489e-08
1.20554e-07
-3.91822e-08
1.28286e-07
-4.43725e-08
1.37225e-07
-5.06408e-08
1.4768e-07
-5.81968e-08
1.5996e-07
-6.7375e-08
1.74539e-07
-7.85408e-08
1.91923e-07
-9.22763e-08
2.12807e-07
-1.08999e-07
2.38117e-07
-1.30263e-07
2.68889e-07
-1.55888e-07
3.0678e-07
-1.90082e-07
3.53759e-07
-2.32116e-07
4.12949e-07
-2.89903e-07
4.87759e-07
-3.65576e-07
5.89564e-07
-4.92856e-07
7.28042e-07
-6.63797e-07
-1.16917e-06
9.04515e-07
4.14981e-10
-4.42308e-09
1.69373e-09
-1.22861e-08
3.89316e-09
-1.80896e-08
6.88854e-09
-2.11179e-08
1.04424e-08
-2.27439e-08
1.44072e-08
-2.39514e-08
1.87227e-08
-2.46755e-08
2.33328e-08
-2.46876e-08
2.81481e-08
-2.40278e-08
3.30509e-08
-2.29352e-08
3.79056e-08
-2.16851e-08
4.25833e-08
-2.04874e-08
4.69758e-08
-1.94501e-08
5.10123e-08
-1.86005e-08
5.46672e-08
-1.79295e-08
5.79526e-08
-1.74293e-08
6.09224e-08
-1.70944e-08
6.36381e-08
-1.69223e-08
6.61893e-08
-1.69162e-08
6.8646e-08
-1.70944e-08
7.10904e-08
-1.74529e-08
7.35803e-08
-1.80032e-08
7.6171e-08
-1.87365e-08
7.88985e-08
-1.96568e-08
8.18008e-08
-2.07647e-08
8.48946e-08
-2.20683e-08
8.82184e-08
-2.35877e-08
9.17915e-08
-2.5371e-08
9.56634e-08
-2.74553e-08
9.98811e-08
-2.99348e-08
1.04519e-07
-3.28742e-08
1.09662e-07
-3.63978e-08
1.15433e-07
-4.06191e-08
1.21966e-07
-4.57191e-08
1.2946e-07
-5.18657e-08
1.38115e-07
-5.93e-08
1.48244e-07
-6.83262e-08
1.60155e-07
-7.92877e-08
1.74326e-07
-9.27125e-08
1.91266e-07
-1.09218e-07
2.11685e-07
-1.29421e-07
2.36489e-07
-1.5507e-07
2.66794e-07
-1.86196e-07
3.04153e-07
-2.27451e-07
3.50636e-07
-2.78606e-07
4.09425e-07
-3.48706e-07
4.83867e-07
-4.40033e-07
5.83846e-07
-5.92853e-07
7.21189e-07
-8.01141e-07
-1.32755e-06
8.79564e-07
4.45156e-10
-4.86887e-09
1.71424e-09
-1.35543e-08
3.77539e-09
-2.01512e-08
6.51867e-09
-2.38608e-08
9.75117e-09
-2.59763e-08
1.33481e-08
-2.75484e-08
1.72851e-08
-2.86128e-08
2.15746e-08
-2.89772e-08
2.62147e-08
-2.86687e-08
3.11627e-08
-2.78833e-08
3.63177e-08
-2.68412e-08
4.15332e-08
-2.57035e-08
4.66367e-08
-2.45547e-08
5.14677e-08
-2.34328e-08
5.59082e-08
-2.23702e-08
5.98952e-08
-2.14188e-08
6.34357e-08
-2.06336e-08
6.65738e-08
-2.00645e-08
6.94065e-08
-1.97476e-08
7.20284e-08
-1.97204e-08
7.45548e-08
-1.99795e-08
7.7078e-08
-2.05286e-08
7.96843e-08
-2.13427e-08
8.24339e-08
-2.24086e-08
8.53809e-08
-2.37094e-08
8.85507e-08
-2.52424e-08
9.19834e-08
-2.70183e-08
9.56948e-08
-2.90869e-08
9.97276e-08
-3.14881e-08
1.04119e-07
-3.43286e-08
1.08932e-07
-3.76878e-08
1.14241e-07
-4.17099e-08
1.2016e-07
-4.65367e-08
1.26809e-07
-5.23718e-08
1.34381e-07
-5.94371e-08
1.43066e-07
-6.79888e-08
1.53172e-07
-7.8432e-08
1.65e-07
-9.11178e-08
1.79019e-07
-1.06732e-07
1.9574e-07
-1.25941e-07
2.15861e-07
-1.49544e-07
2.40274e-07
-1.79488e-07
2.7011e-07
-2.16036e-07
3.06873e-07
-2.64222e-07
3.5261e-07
-3.2435e-07
4.10432e-07
-4.06542e-07
4.8397e-07
-5.13585e-07
5.80617e-07
-6.89518e-07
7.12947e-07
-9.3347e-07
-1.46986e-06
8.55253e-07
4.69605e-10
-5.33912e-09
1.78172e-09
-1.48655e-08
3.83557e-09
-2.22056e-08
6.48995e-09
-2.65147e-08
9.54689e-09
-2.90331e-08
1.28847e-08
-3.08862e-08
1.64894e-08
-3.22178e-08
2.04141e-08
-3.29021e-08
2.47312e-08
-3.29865e-08
2.94872e-08
-3.26394e-08
3.4659e-08
-3.20141e-08
4.01412e-08
-3.11864e-08
4.5754e-08
-3.01686e-08
5.12842e-08
-2.89643e-08
5.65328e-08
-2.7619e-08
6.1349e-08
-2.62375e-08
6.56635e-08
-2.49467e-08
6.9468e-08
-2.38732e-08
7.28349e-08
-2.31132e-08
7.58589e-08
-2.27484e-08
7.86742e-08
-2.27951e-08
8.14043e-08
-2.3261e-08
8.41707e-08
-2.41089e-08
8.70669e-08
-2.53072e-08
9.01753e-08
-2.68155e-08
9.35413e-08
-2.86127e-08
9.72172e-08
-3.06919e-08
1.01223e-07
-3.30972e-08
1.056e-07
-3.58649e-08
1.10378e-07
-3.91088e-08
1.1561e-07
-4.29207e-08
1.21358e-07
-4.74605e-08
1.27723e-07
-5.28998e-08
1.34807e-07
-5.94602e-08
1.42793e-07
-6.74214e-08
1.51853e-07
-7.70527e-08
1.62279e-07
-8.88579e-08
1.74365e-07
-1.03206e-07
1.88549e-07
-1.20917e-07
2.05346e-07
-1.42739e-07
2.25411e-07
-1.6961e-07
2.49627e-07
-2.03708e-07
2.79088e-07
-2.455e-07
3.15236e-07
-3.00379e-07
3.60098e-07
-3.69219e-07
4.16481e-07
-4.62938e-07
4.88393e-07
-5.85511e-07
5.80727e-07
-7.81869e-07
7.04698e-07
-1.05744e-06
-1.59615e-06
8.3099e-07
4.87067e-10
-5.82685e-09
1.85407e-09
-1.62316e-08
3.9605e-09
-2.43125e-08
6.63538e-09
-2.9189e-08
9.6579e-09
-3.20555e-08
1.28893e-08
-3.41177e-08
1.63055e-08
-3.56343e-08
1.99671e-08
-3.65637e-08
2.39826e-08
-3.70029e-08
2.84664e-08
-3.71232e-08
3.34777e-08
-3.70266e-08
3.89846e-08
-3.6694e-08
4.48493e-08
-3.60344e-08
5.0858e-08
-3.49743e-08
5.67708e-08
-3.3532e-08
6.23685e-08
-3.18377e-08
6.75047e-08
-3.00816e-08
7.21009e-08
-2.84735e-08
7.61778e-08
-2.71888e-08
7.98017e-08
-2.63763e-08
8.31019e-08
-2.60955e-08
8.6216e-08
-2.63773e-08
8.92928e-08
-2.71855e-08
9.24593e-08
-2.8476e-08
9.58316e-08
-3.01856e-08
9.94848e-08
-3.22701e-08
1.03494e-07
-3.46986e-08
1.07893e-07
-3.75004e-08
1.1273e-07
-4.0702e-08
1.18034e-07
-4.44156e-08
1.23855e-07
-4.87415e-08
1.30241e-07
-5.38493e-08
1.3728e-07
-5.99379e-08
1.4506e-07
-6.72437e-08
1.53741e-07
-7.61011e-08
1.63481e-07
-8.67962e-08
1.74541e-07
-9.99179e-08
1.87207e-07
-1.15874e-07
2.01868e-07
-1.35579e-07
2.19036e-07
-1.59909e-07
2.39303e-07
-1.89878e-07
2.63524e-07
-2.27933e-07
2.9274e-07
-2.74719e-07
3.28268e-07
-3.35916e-07
3.72129e-07
-4.13087e-07
4.26693e-07
-5.17514e-07
4.96099e-07
-6.5493e-07
5.83201e-07
-8.68985e-07
6.96327e-07
-1.17056e-06
-1.70572e-06
8.059e-07
5.01434e-10
-6.32895e-09
1.92173e-09
-1.7651e-08
4.09891e-09
-2.64901e-08
6.84426e-09
-3.19339e-08
9.91758e-09
-3.51287e-08
1.31621e-08
-3.73622e-08
1.65352e-08
-3.90077e-08
2.00831e-08
-4.01117e-08
2.39197e-08
-4.08403e-08
2.81914e-08
-4.1395e-08
3.30144e-08
-4.18507e-08
3.84265e-08
-4.21067e-08
4.43519e-08
-4.19609e-08
5.06139e-08
-4.12377e-08
5.69747e-08
-3.9893e-08
6.3184e-08
-3.80495e-08
6.90414e-08
-3.59377e-08
7.44055e-08
-3.38416e-08
7.92372e-08
-3.20194e-08
8.35573e-08
-3.07003e-08
8.74678e-08
-3.00063e-08
9.10994e-08
-3.0011e-08
9.46116e-08
-3.06975e-08
9.81548e-08
-3.20215e-08
1.01875e-07
-3.39039e-08
1.0588e-07
-3.62791e-08
1.10272e-07
-3.90886e-08
1.15109e-07
-4.23414e-08
1.20454e-07
-4.60467e-08
1.26344e-07
-5.03078e-08
1.32829e-07
-5.52271e-08
1.39954e-07
-6.09768e-08
1.47796e-07
-6.77785e-08
1.56428e-07
-7.58791e-08
1.65988e-07
-8.56602e-08
1.76619e-07
-9.743e-08
1.88543e-07
-1.11842e-07
2.02035e-07
-1.29366e-07
2.17426e-07
-1.50971e-07
2.35209e-07
-1.77694e-07
2.55909e-07
-2.10579e-07
2.80313e-07
-2.5234e-07
3.09413e-07
-3.03822e-07
3.44343e-07
-3.70853e-07
3.87067e-07
-4.55818e-07
4.39519e-07
-5.69977e-07
5.05577e-07
-7.21e-07
5.86523e-07
-9.49945e-07
6.8718e-07
-1.27122e-06
-1.79796e-06
7.7943e-07
5.15356e-10
-6.84498e-09
1.98709e-09
-1.91218e-08
4.23694e-09
-2.87405e-08
7.06849e-09
-3.47649e-08
1.02295e-08
-3.82895e-08
1.35503e-08
-4.06829e-08
1.6975e-08
-4.24327e-08
2.05341e-08
-4.36709e-08
2.43292e-08
-4.46361e-08
2.85105e-08
-4.55764e-08
3.3221e-08
-4.65622e-08
3.85434e-08
-4.74298e-08
4.44558e-08
-4.78743e-08
5.08281e-08
-4.76113e-08
5.74503e-08
-4.65154e-08
6.40742e-08
-4.46758e-08
7.04768e-08
-4.23391e-08
7.64767e-08
-3.98455e-08
8.19867e-08
-3.75283e-08
8.69815e-08
-3.56988e-08
9.15261e-08
-3.45512e-08
9.57292e-08
-3.42162e-08
9.97443e-08
-3.47123e-08
1.03731e-07
-3.60099e-08
1.07854e-07
-3.80253e-08
1.12248e-07
-4.06773e-08
1.17044e-07
-4.3882e-08
1.22323e-07
-4.76248e-08
1.28171e-07
-5.18942e-08
1.34638e-07
-5.67775e-08
1.41784e-07
-6.23732e-08
1.49655e-07
-6.88499e-08
1.58323e-07
-7.64444e-08
1.67851e-07
-8.54111e-08
1.78359e-07
-9.61666e-08
1.89973e-07
-1.09048e-07
2.02881e-07
-1.24749e-07
2.17334e-07
-1.43821e-07
2.33612e-07
-1.6725e-07
2.52168e-07
-1.9625e-07
2.73467e-07
-2.31879e-07
2.98192e-07
-2.77069e-07
3.27281e-07
-3.32913e-07
3.61656e-07
-4.05237e-07
4.03144e-07
-4.97312e-07
4.53281e-07
-6.20126e-07
5.15349e-07
-7.83079e-07
5.8939e-07
-1.024e-06
6.76795e-07
-1.35862e-06
-1.87282e-06
7.51662e-07
5.29726e-10
-7.37539e-09
2.05334e-09
-2.06444e-08
4.37559e-09
-3.10632e-08
7.29667e-09
-3.76855e-08
1.0557e-08
-4.15496e-08
1.39788e-08
-4.41048e-08
1.75001e-08
-4.59543e-08
2.11414e-08
-4.73123e-08
2.49925e-08
-4.8488e-08
2.91963e-08
-4.97804e-08
3.39008e-08
-5.12678e-08
3.92083e-08
-5.2738e-08
4.51285e-08
-5.37955e-08
5.15676e-08
-5.40517e-08
5.83467e-08
-5.32946e-08
6.5236e-08
-5.15675e-08
7.20136e-08
-4.91155e-08
7.8483e-08
-4.63187e-08
8.45291e-08
-4.35733e-08
9.00929e-08
-4.12663e-08
9.52064e-08
-3.96651e-08
9.99521e-08
-3.89639e-08
1.04468e-07
-3.92277e-08
1.08909e-07
-4.04537e-08
1.13451e-07
-4.25649e-08
1.18243e-07
-4.5473e-08
1.23437e-07
-4.90737e-08
1.29138e-07
-5.33299e-08
1.35452e-07
-5.82078e-08
1.42447e-07
-6.37749e-08
1.50195e-07
-7.01216e-08
1.58751e-07
-7.74076e-08
1.68186e-07
-8.58777e-08
1.78562e-07
-9.5791e-08
1.89983e-07
-1.07586e-07
2.02564e-07
-1.21632e-07
2.16459e-07
-1.38644e-07
2.31898e-07
-1.5926e-07
2.49112e-07
-1.84464e-07
2.685e-07
-2.15638e-07
2.90478e-07
-2.53858e-07
3.15608e-07
-3.02201e-07
3.44751e-07
-3.62059e-07
3.78633e-07
-4.39127e-07
4.18849e-07
-5.37533e-07
4.66583e-07
-6.67871e-07
5.2431e-07
-8.40815e-07
5.9105e-07
-1.09075e-06
6.65243e-07
-1.43281e-06
-1.93102e-06
7.23457e-07
5.44665e-10
-7.92073e-09
2.12198e-09
-2.22207e-08
4.51748e-09
-3.34591e-08
7.52959e-09
-4.0697e-08
1.08927e-08
-4.49126e-08
1.44233e-08
-4.76353e-08
1.80568e-08
-4.95881e-08
2.18109e-08
-5.10664e-08
2.57689e-08
-5.24467e-08
3.00677e-08
-5.40793e-08
3.4852e-08
-5.60532e-08
4.02283e-08
-5.81149e-08
4.62179e-08
-5.97862e-08
5.27459e-08
-6.0581e-08
5.96547e-08
-6.02036e-08
6.67329e-08
-5.86481e-08
7.37696e-08
-5.61509e-08
8.05689e-08
-5.31217e-08
8.70061e-08
-5.00094e-08
9.30049e-08
-4.72687e-08
9.85755e-08
-4.5236e-08
1.03779e-07
-4.41697e-08
1.08738e-07
-4.41859e-08
1.13598e-07
-4.5316e-08
1.18534e-07
-4.74986e-08
1.23703e-07
-5.06455e-08
1.2927e-07
-5.46383e-08
1.35356e-07
-5.94201e-08
1.42085e-07
-6.49363e-08
1.49541e-07
-7.12332e-08
1.5781e-07
-7.83901e-08
1.66956e-07
-8.65557e-08
1.77055e-07
-9.59756e-08
1.88174e-07
-1.06913e-07
2.00404e-07
-1.19815e-07
2.13855e-07
-1.35085e-07
2.28655e-07
-1.53443e-07
2.4501e-07
-1.75615e-07
2.63115e-07
-2.0257e-07
2.83309e-07
-2.35832e-07
3.05964e-07
-2.76514e-07
3.31522e-07
-3.27762e-07
3.60752e-07
-3.91291e-07
3.94206e-07
-4.72587e-07
4.33185e-07
-5.76518e-07
4.78555e-07
-7.1325e-07
5.31902e-07
-8.94171e-07
5.91389e-07
-1.15024e-06
6.53179e-07
-1.49459e-06
-1.97412e-06
6.9629e-07
5.60154e-10
-8.48157e-09
2.19133e-09
-2.38509e-08
4.66395e-09
-3.59321e-08
7.76923e-09
-4.38017e-08
1.12379e-08
-4.8381e-08
1.48805e-08
-5.12778e-08
1.86311e-08
-5.33391e-08
2.25078e-08
-5.49432e-08
2.65933e-08
-5.6533e-08
3.10223e-08
-5.85083e-08
3.59373e-08
-6.09691e-08
4.14429e-08
-6.36211e-08
4.75616e-08
-6.59059e-08
5.4223e-08
-6.72437e-08
6.12782e-08
-6.72589e-08
6.85263e-08
-6.58984e-08
7.57662e-08
-6.33895e-08
8.28082e-08
-6.01674e-08
8.95283e-08
-5.67285e-08
9.58454e-08
-5.35892e-08
1.0176e-07
-5.11508e-08
1.07322e-07
-4.97331e-08
1.1264e-07
-4.95041e-08
1.17854e-07
-5.05321e-08
1.23134e-07
-5.27764e-08
1.28639e-07
-5.61539e-08
1.3454e-07
-6.05373e-08
1.4097e-07
-6.58529e-08
1.48061e-07
-7.20272e-08
1.55912e-07
-7.90862e-08
1.64619e-07
-8.70968e-08
1.74258e-07
-9.61962e-08
1.8491e-07
-1.06626e-07
1.96647e-07
-1.18652e-07
2.09556e-07
-1.32722e-07
2.23743e-07
-1.49275e-07
2.3932e-07
-1.69018e-07
2.56468e-07
-1.92764e-07
2.7536e-07
-2.21461e-07
2.96273e-07
-2.56746e-07
3.19545e-07
-2.99786e-07
3.4551e-07
-3.5373e-07
3.74835e-07
-4.20617e-07
4.07923e-07
-5.05681e-07
4.45764e-07
-6.14364e-07
4.88922e-07
-7.56416e-07
5.38129e-07
-9.43384e-07
5.90828e-07
-1.20295e-06
6.41629e-07
-1.54539e-06
-2.00434e-06
6.71858e-07
5.76193e-10
-9.05844e-09
2.26242e-09
-2.55361e-08
4.81547e-09
-3.84856e-08
8.01656e-09
-4.70022e-08
1.15937e-08
-5.19579e-08
1.53516e-08
-5.50356e-08
1.92223e-08
-5.721e-08
2.32254e-08
-5.89464e-08
2.74455e-08
-6.07538e-08
3.20189e-08
-6.30817e-08
3.70886e-08
-6.60398e-08
4.27576e-08
-6.92908e-08
4.90455e-08
-7.21947e-08
5.58793e-08
-7.40787e-08
6.31094e-08
-7.44892e-08
7.05372e-08
-7.33285e-08
7.79658e-08
-7.08168e-08
8.52106e-08
-6.74157e-08
9.21512e-08
-6.3668e-08
9.8708e-08
-6.01493e-08
1.0488e-07
-5.73232e-08
1.10713e-07
-5.55681e-08
1.16313e-07
-5.5103e-08
1.21812e-07
-5.60336e-08
1.2738e-07
-5.83413e-08
1.33173e-07
-6.19509e-08
1.39367e-07
-6.67288e-08
1.46098e-07
-7.25869e-08
1.53506e-07
-7.94351e-08
1.61698e-07
-8.72796e-08
1.70777e-07
-9.61753e-08
1.80827e-07
-1.06248e-07
1.91935e-07
-1.17733e-07
2.0418e-07
-1.30899e-07
2.17646e-07
-1.46187e-07
2.32438e-07
-1.64068e-07
2.48656e-07
-1.85235e-07
2.66463e-07
-2.10571e-07
2.86016e-07
-2.41013e-07
3.07541e-07
-2.78271e-07
3.31343e-07
-3.23587e-07
3.57671e-07
-3.80059e-07
3.87082e-07
-4.5003e-07
4.19867e-07
-5.38471e-07
4.56709e-07
-6.51209e-07
4.97891e-07
-7.97605e-07
5.43391e-07
-9.88889e-07
5.90077e-07
-1.24964e-06
6.31663e-07
-1.58696e-06
-2.02427e-06
6.51611e-07
5.92797e-10
-9.65192e-09
2.33577e-09
-2.7278e-08
4.97223e-09
-4.11224e-08
8.27196e-09
-5.03014e-08
1.19608e-08
-5.56465e-08
1.58377e-08
-5.89124e-08
1.98318e-08
-6.12042e-08
2.39643e-08
-6.3079e-08
2.83229e-08
-6.51129e-08
3.30468e-08
-6.78058e-08
3.82819e-08
-7.12757e-08
4.41309e-08
-7.51403e-08
5.06101e-08
-7.86749e-08
5.76414e-08
-8.11111e-08
6.50702e-08
-8.1918e-08
7.26946e-08
-8.09549e-08
8.03166e-08
-7.84376e-08
8.77535e-08
-7.48559e-08
9.48874e-08
-7.08009e-08
1.01642e-07
-6.69073e-08
1.08019e-07
-6.37004e-08
1.14066e-07
-6.16163e-08
1.19887e-07
-6.09238e-08
1.25617e-07
-6.17653e-08
1.31423e-07
-6.41444e-08
1.37463e-07
-6.79942e-08
1.43912e-07
-7.31762e-08
1.50911e-07
-7.95886e-08
1.58602e-07
-8.71255e-08
1.67096e-07
-9.57751e-08
1.76501e-07
-1.0558e-07
1.86907e-07
-1.16655e-07
1.98405e-07
-1.29228e-07
2.11075e-07
-1.43571e-07
2.25005e-07
-1.60115e-07
2.40295e-07
-1.79359e-07
2.57043e-07
-2.01982e-07
2.75394e-07
-2.28921e-07
2.95495e-07
-2.61112e-07
3.1753e-07
-3.00305e-07
3.41777e-07
-3.47832e-07
3.68419e-07
-4.06702e-07
3.97909e-07
-4.79521e-07
4.30449e-07
-5.71016e-07
4.66444e-07
-6.87207e-07
5.05921e-07
-8.37088e-07
5.48241e-07
-1.03121e-06
5.8984e-07
-1.29124e-06
6.24076e-07
-1.62119e-06
-2.03656e-06
6.36387e-07
6.09991e-10
-1.02626e-08
2.41138e-09
-2.90784e-08
5.13436e-09
-4.38457e-08
8.53566e-09
-5.3702e-08
1.23394e-08
-5.94499e-08
1.63392e-08
-6.29121e-08
2.04604e-08
-6.53256e-08
2.47259e-08
-6.73445e-08
2.92265e-08
-6.96142e-08
3.41056e-08
-7.2685e-08
3.95123e-08
-7.66832e-08
4.555e-08
-8.11786e-08
5.22325e-08
-8.53582e-08
5.9476e-08
-8.83557e-08
6.7119e-08
-8.95611e-08
7.4954e-08
-8.87919e-08
8.27791e-08
-8.62614e-08
9.04101e-08
-8.24901e-08
9.77302e-08
-7.81199e-08
1.04666e-07
-7.3846e-08
1.11222e-07
-7.02568e-08
1.1745e-07
-6.78456e-08
1.23458e-07
-6.69311e-08
1.29383e-07
-6.76915e-08
1.35393e-07
-7.01523e-08
1.4165e-07
-7.4254e-08
1.48329e-07
-7.98532e-08
1.55572e-07
-8.68344e-08
1.63524e-07
-9.50764e-08
1.72297e-07
-1.0455e-07
1.82002e-07
-1.15284e-07
1.92731e-07
-1.27385e-07
2.04577e-07
-1.41071e-07
2.17623e-07
-1.56619e-07
2.31958e-07
-1.74447e-07
2.47678e-07
-1.9508e-07
2.64879e-07
-2.19181e-07
2.83691e-07
-2.47733e-07
3.04257e-07
-2.81675e-07
3.26727e-07
-3.22774e-07
3.5135e-07
-3.72454e-07
3.78266e-07
-4.33619e-07
4.0783e-07
-5.09085e-07
4.40174e-07
-6.03363e-07
4.75464e-07
-7.225e-07
5.13495e-07
-8.75123e-07
5.53156e-07
-1.07088e-06
5.9059e-07
-1.32868e-06
6.19196e-07
-1.64979e-06
-2.0436e-06
6.26253e-07
6.27806e-10
-1.0891e-08
2.48927e-09
-3.09387e-08
5.30194e-09
-4.66587e-08
8.80787e-09
-5.72073e-08
1.27296e-08
-6.33713e-08
1.68562e-08
-6.70385e-08
2.11084e-08
-6.9578e-08
2.55107e-08
-7.17468e-08
3.01576e-08
-7.42616e-08
3.51965e-08
-7.77239e-08
4.07801e-08
-8.22675e-08
4.70132e-08
-8.74121e-08
5.39069e-08
-9.22527e-08
6.13717e-08
-9.58215e-08
6.92391e-08
-9.74284e-08
7.72947e-08
-9.68492e-08
8.53311e-08
-9.42966e-08
9.31619e-08
-9.03238e-08
1.00669e-07
-8.56261e-08
1.07782e-07
-8.09614e-08
1.14508e-07
-7.69828e-08
1.20903e-07
-7.4242e-08
1.2708e-07
-7.31076e-08
1.33181e-07
-7.37935e-08
1.39377e-07
-7.63462e-08
1.45834e-07
-8.07129e-08
1.52727e-07
-8.67447e-08
1.60202e-07
-9.43114e-08
1.68402e-07
-1.03276e-07
1.77444e-07
-1.13592e-07
1.87436e-07
-1.25275e-07
1.98474e-07
-1.38424e-07
2.1065e-07
-1.53245e-07
2.24049e-07
-1.70019e-07
2.38757e-07
-1.89152e-07
2.54868e-07
-2.11191e-07
2.72477e-07
-2.36788e-07
2.91701e-07
-2.66955e-07
3.12676e-07
-3.02648e-07
3.35529e-07
-3.45625e-07
3.60483e-07
-3.97406e-07
3.87646e-07
-4.60781e-07
4.17281e-07
-5.3872e-07
4.49464e-07
-6.35549e-07
4.84161e-07
-7.57198e-07
5.20956e-07
-9.11922e-07
5.58406e-07
-1.10833e-06
5.92483e-07
-1.36275e-06
6.16894e-07
-1.67419e-06
-2.04732e-06
6.20627e-07
6.4628e-10
-1.1538e-08
2.56945e-09
-3.28608e-08
5.47504e-09
-4.95645e-08
9.0888e-09
-6.08204e-08
1.31317e-08
-6.74138e-08
1.73889e-08
-7.12955e-08
2.17762e-08
-7.39654e-08
2.63194e-08
-7.62899e-08
3.11168e-08
-7.90595e-08
3.63204e-08
-8.29274e-08
4.20866e-08
-8.80344e-08
4.85212e-08
-9.38472e-08
5.56329e-08
-9.93651e-08
6.33265e-08
-1.03516e-07
7.14257e-08
-1.05528e-07
7.97093e-08
-1.05134e-07
8.7964e-08
-1.0255e-07
9.60001e-08
-9.83624e-08
1.03698e-07
-9.33231e-08
1.10989e-07
-8.82545e-08
1.17883e-07
-8.38768e-08
1.24441e-07
-8.08011e-08
1.30781e-07
-7.9447e-08
1.3705e-07
-8.00637e-08
1.43425e-07
-8.27184e-08
1.50073e-07
-8.73636e-08
1.57175e-07
-9.3844e-08
1.64876e-07
-1.02014e-07
1.73321e-07
-1.1172e-07
1.82627e-07
-1.22898e-07
1.92904e-07
-1.35551e-07
2.04247e-07
-1.49767e-07
2.16748e-07
-1.65742e-07
2.3049e-07
-1.83761e-07
2.45559e-07
-2.04218e-07
2.62045e-07
-2.27676e-07
2.80041e-07
-2.54781e-07
2.9965e-07
-2.86562e-07
3.21005e-07
-3.24e-07
3.44212e-07
-3.6883e-07
3.69466e-07
-4.22659e-07
3.96853e-07
-4.88167e-07
4.26554e-07
-5.6842e-07
4.58589e-07
-6.67586e-07
4.92761e-07
-7.9137e-07
5.28469e-07
-9.47632e-07
5.64035e-07
-1.14389e-06
5.95382e-07
-1.39409e-06
6.16671e-07
-1.69546e-06
-2.04911e-06
6.18484e-07
6.65451e-10
-1.22041e-08
2.65193e-09
-3.48461e-08
5.65372e-09
-5.25665e-08
9.37861e-09
-6.45445e-08
1.35457e-08
-7.15805e-08
1.79376e-08
-7.56872e-08
2.24641e-08
-7.8492e-08
2.71522e-08
-8.09779e-08
3.21046e-08
-8.40124e-08
3.74779e-08
-8.83007e-08
4.34325e-08
-9.39895e-08
5.0075e-08
-1.0049e-07
5.74115e-08
-1.06702e-07
6.53406e-08
-1.11446e-07
7.36785e-08
-1.13865e-07
8.21966e-08
-1.13654e-07
9.06753e-08
-1.11028e-07
9.89216e-08
-1.06611e-07
1.06814e-07
-1.01215e-07
1.14286e-07
-9.5728e-08
1.21349e-07
-9.09401e-08
1.2807e-07
-8.75232e-08
1.34573e-07
-8.59484e-08
1.41008e-07
-8.65006e-08
1.4756e-07
-8.92671e-08
1.54399e-07
-9.42044e-08
1.61707e-07
-1.0115e-07
1.69634e-07
-1.09942e-07
1.78324e-07
-1.2041e-07
1.87896e-07
-1.3247e-07
1.98459e-07
-1.46112e-07
2.10108e-07
-1.61416e-07
2.22935e-07
-1.78566e-07
2.3702e-07
-1.97846e-07
2.52448e-07
-2.19643e-07
2.69302e-07
-2.44529e-07
2.87674e-07
-2.73149e-07
3.07656e-07
-3.06542e-07
3.29373e-07
-3.45713e-07
3.52914e-07
-3.92369e-07
3.78448e-07
-4.48189e-07
4.06037e-07
-5.15755e-07
4.35788e-07
-5.98168e-07
4.67667e-07
-6.99466e-07
5.01341e-07
-8.25044e-07
5.36043e-07
-9.82334e-07
5.69948e-07
-1.17779e-06
5.99016e-07
-1.42316e-06
6.17933e-07
-1.71436e-06
-2.0499e-06
6.18741e-07
6.85361e-10
-1.289e-08
2.73674e-09
-3.68963e-08
5.83801e-09
-5.56679e-08
9.67744e-09
-6.83832e-08
1.39721e-08
-7.58747e-08
1.85025e-08
-8.02172e-08
2.31724e-08
-8.31619e-08
2.80095e-08
-8.58148e-08
3.31213e-08
-8.91245e-08
3.86696e-08
-9.38488e-08
4.48183e-08
-1.00139e-07
5.16751e-08
-1.07347e-07
5.92433e-08
-1.14271e-07
6.74149e-08
-1.19618e-07
7.59981e-08
-1.22449e-07
8.47568e-08
-1.22414e-07
9.3465e-08
-1.19734e-07
1.01926e-07
-1.15074e-07
1.10017e-07
-1.09305e-07
1.17672e-07
-1.03385e-07
1.24907e-07
-9.81749e-08
1.31793e-07
-9.44097e-08
1.38459e-07
-9.26131e-08
1.45063e-07
-9.31053e-08
1.51792e-07
-9.59934e-08
1.58823e-07
-1.01237e-07
1.6634e-07
-1.08665e-07
1.74494e-07
-1.18097e-07
1.83433e-07
-1.29347e-07
1.93273e-07
-1.4231e-07
2.04126e-07
-1.56963e-07
2.16084e-07
-1.73375e-07
2.29239e-07
-1.91717e-07
2.43669e-07
-2.12276e-07
2.59456e-07
-2.35426e-07
2.76677e-07
-2.61749e-07
2.9542e-07
-2.91888e-07
3.15767e-07
-3.26885e-07
3.37832e-07
-3.67774e-07
3.61691e-07
-4.16225e-07
3.87482e-07
-4.73975e-07
4.15247e-07
-5.43518e-07
4.45022e-07
-6.27941e-07
4.76716e-07
-7.3116e-07
5.09882e-07
-8.58208e-07
5.43606e-07
-1.01606e-06
5.75978e-07
-1.21016e-06
6.03068e-07
-1.45024e-06
6.20093e-07
-1.73138e-06
-2.05021e-06
6.20425e-07
7.06049e-10
-1.35967e-08
2.8239e-09
-3.90129e-08
6.02792e-09
-5.8872e-08
9.98544e-09
-7.23399e-08
1.44113e-08
-8.03e-08
1.90837e-08
-8.48892e-08
2.39013e-08
-8.79794e-08
2.88917e-08
-9.0805e-08
3.41676e-08
-9.44006e-08
3.98958e-08
-9.95768e-08
4.62446e-08
-1.06488e-07
5.33223e-08
-1.14425e-07
6.11288e-08
-1.22078e-07
6.95498e-08
-1.28039e-07
7.83851e-08
-1.31283e-07
8.73906e-08
-1.3142e-07
9.63337e-08
-1.28676e-07
1.05014e-07
-1.23756e-07
1.13308e-07
-1.17597e-07
1.21149e-07
-1.11228e-07
1.28559e-07
-1.05584e-07
1.35611e-07
-1.01463e-07
1.42443e-07
-9.9443e-08
1.49217e-07
-9.98798e-08
1.56126e-07
-1.02899e-07
1.63351e-07
-1.08463e-07
1.71079e-07
-1.16391e-07
1.79465e-07
-1.26483e-07
1.88655e-07
-1.38534e-07
1.98767e-07
-1.52422e-07
2.09913e-07
-1.68106e-07
2.22185e-07
-1.85645e-07
2.35671e-07
-2.052e-07
2.50448e-07
-2.27052e-07
2.66594e-07
-2.51568e-07
2.8418e-07
-2.79332e-07
3.03289e-07
-3.10992e-07
3.23991e-07
-3.47584e-07
3.46392e-07
-3.90169e-07
3.7055e-07
-4.4038e-07
3.96573e-07
-4.99993e-07
4.24481e-07
-5.71424e-07
4.54243e-07
-6.577e-07
4.85706e-07
-7.62622e-07
5.18328e-07
-8.90827e-07
5.51067e-07
-1.04879e-06
5.81968e-07
-1.24105e-06
6.07268e-07
-1.47553e-06
6.22696e-07
-1.74679e-06
-2.05029e-06
6.22793e-07
7.27553e-10
-1.43248e-08
2.91344e-09
-4.11976e-08
6.22346e-09
-6.21821e-08
1.03027e-08
-7.64182e-08
1.48632e-08
-8.48598e-08
1.96815e-08
-8.97071e-08
2.46511e-08
-9.29488e-08
2.97992e-08
-9.59528e-08
3.52436e-08
-9.98451e-08
4.11571e-08
-1.0549e-07
4.77118e-08
-1.13043e-07
5.50167e-08
-1.2173e-07
6.30685e-08
-1.3013e-07
7.17459e-08
-1.36717e-07
8.084e-08
-1.40377e-07
9.00985e-08
-1.40679e-07
9.92821e-08
-1.37858e-07
1.08187e-07
-1.32662e-07
1.16686e-07
-1.26095e-07
1.24718e-07
-1.1926e-07
1.32304e-07
-1.13169e-07
1.39526e-07
-1.08685e-07
1.46525e-07
-1.0644e-07
1.53471e-07
-1.06827e-07
1.60563e-07
-1.09988e-07
1.67985e-07
-1.15886e-07
1.75929e-07
-1.24331e-07
1.84548e-07
-1.35103e-07
1.93993e-07
-1.47977e-07
2.04381e-07
-1.6281e-07
2.15824e-07
-1.79546e-07
2.28411e-07
-1.98232e-07