/*--------------------------------*- C++ -*----------------------------------*\
  =========                 |
  \\      /  F ield         | OpenFOAM: The Open Source CFD Toolbox
   \\    /   O peration     | Website:  https://openfoam.org
    \\  /    A nd           | Version:  7
     \\/     M anipulation  |
\*---------------------------------------------------------------------------*/
FoamFile
{
    version     2.0;
    format      ascii;
    class       volScalarField;
    location    "0.05";
    object      nut;
}
// * * * * * * * * * * * * * * * * * * * * * * * * * * * * * * * * * * * * * //

dimensions      [0 2 -1 0 0 0 0];

internalField   nonuniform List<scalar> 
70000
(
9.96295e-12
6.88257e-14
2.55757e-16
8.56615e-17
4.83807e-17
7.95133e-17
2.80905e-17
1.32216e-17
9.01626e-18
6.62121e-18
4.88618e-18
3.67202e-18
2.82643e-18
2.22336e-18
1.7818e-18
1.45125e-18
1.19923e-18
1.00387e-18
8.50388e-19
7.28249e-19
6.30034e-19
5.50319e-19
4.85081e-19
4.31373e-19
3.86856e-19
3.4997e-19
3.1902e-19
2.9364e-19
2.71857e-19
2.54933e-19
2.39381e-19
2.29425e-19
2.17862e-19
2.1457e-19
2.05177e-19
2.08597e-19
2.01517e-19
2.07764e-19
2.13753e-19
1.9753e-19
2.76468e-19
1.34446e-19
5.90185e-19
9.47848e-21
3.13381e-18
7.09377e-19
4.3364e-17
8.7019e-17
4.31549e-15
1.61549e-13
1.0428e-10
5.98635e-12
6.44147e-14
2.14355e-14
2.88746e-16
1.69469e-17
2.52498e-17
2.12201e-17
1.235e-17
7.36935e-18
4.84636e-18
3.39326e-18
2.46943e-18
1.85045e-18
1.42135e-18
1.11546e-18
8.91858e-19
7.24932e-19
5.97813e-19
4.99426e-19
4.22136e-19
3.60615e-19
3.11123e-19
2.70864e-19
2.37918e-19
2.1058e-19
1.88095e-19
1.68898e-19
1.53466e-19
1.39442e-19
1.29233e-19
1.18277e-19
1.12517e-19
1.02933e-19
1.01427e-19
9.23144e-20
9.36987e-20
8.81972e-20
8.2947e-20
1.02378e-19
5.19306e-20
2.0649e-19
2.9445e-21
1.16725e-18
4.25843e-19
1.84525e-17
4.73039e-17
5.12736e-16
2.04231e-14
7.94386e-15
3.19217e-10
3.39597e-12
1.90611e-13
1.98708e-14
7.61363e-16
5.74694e-17
7.11353e-18
4.0796e-18
2.06256e-18
1.016e-18
5.5965e-19
3.40511e-19
2.19988e-19
1.47857e-19
1.02534e-19
7.30484e-20
5.32724e-20
3.96631e-20
3.00522e-20
2.3124e-20
1.80308e-20
1.42227e-20
1.13395e-20
9.12612e-21
7.42237e-21
6.08659e-21
5.07329e-21
4.25119e-21
3.69054e-21
3.18563e-21
2.98183e-21
2.68046e-21
2.84867e-21
2.69021e-21
3.36409e-21
3.38782e-21
4.74084e-21
5.39926e-21
7.02181e-21
1.0908e-20
1.05592e-20
3.83202e-20
5.96966e-20
5.12835e-19
2.2832e-18
1.67739e-17
9.36755e-17
6.65926e-16
2.23404e-14
3.30273e-14
6.15425e-09
1.92645e-11
7.82512e-13
6.08799e-14
5.44272e-15
9.16352e-16
1.07686e-16
2.83735e-17
1.1718e-17
5.11958e-18
2.34724e-18
1.17824e-18
6.4177e-19
3.69832e-19
2.21589e-19
1.36663e-19
8.61497e-20
5.5156e-20
3.56288e-20
2.30551e-20
1.48227e-20
9.37513e-21
5.75983e-21
3.37643e-21
1.83949e-21
8.91186e-22
3.52998e-22
9.42779e-23
8.49312e-24
5.69926e-25
3.54316e-23
2.22125e-22
7.1812e-22
1.74073e-21
3.63035e-21
6.60765e-21
1.18414e-20
1.81897e-20
3.14501e-20
4.06421e-20
7.82354e-20
8.71682e-20
2.78565e-19
5.16122e-19
3.3948e-18
1.51307e-17
8.95634e-17
5.30002e-16
1.65497e-14
5.50355e-14
2.32322e-09
2.23232e-10
4.4448e-12
3.20516e-13
2.28242e-14
4.34514e-15
7.04902e-16
1.959e-16
7.923e-17
3.47361e-17
1.59986e-17
7.97805e-18
4.29409e-18
2.44704e-18
1.45397e-18
8.92083e-19
5.61236e-19
3.59804e-19
2.336e-19
1.52593e-19
9.95722e-20
6.43706e-20
4.08131e-20
2.50401e-20
1.45923e-20
7.84862e-21
3.70842e-21
1.40009e-21
3.31214e-22
1.9668e-23
7.32217e-24
2.65016e-22
1.40244e-21
4.20181e-21
1.01076e-20
1.97158e-20
3.80051e-20
6.02217e-20
1.08422e-19
1.44224e-19
2.69804e-19
3.03004e-19
7.25215e-19
1.02156e-18
4.3487e-18
1.6587e-17
6.74634e-17
3.74002e-16
1.19134e-14
4.67743e-14
3.0128e-09
5.28771e-09
4.348e-11
1.93702e-12
1.06906e-13
1.77248e-14
3.16534e-15
9.13967e-16
3.68609e-16
1.62768e-16
7.56634e-17
3.78264e-17
2.03019e-17
1.1515e-17
6.81021e-18
4.16283e-18
2.61283e-18
1.67415e-18
1.08877e-18
7.14419e-19
4.69966e-19
3.07714e-19
1.98846e-19
1.25442e-19
7.61577e-20
4.35652e-20
2.271e-20
1.01662e-20
3.44947e-21
6.29525e-22
8.51455e-24
1.19636e-22
1.77082e-21
7.24893e-21
2.07721e-20
4.41961e-20
9.14878e-20
1.50715e-19
2.81221e-19
3.84689e-19
7.19703e-19
8.24302e-19
1.74857e-18
2.14422e-18
6.23979e-18
1.93112e-17
4.59399e-17
2.44978e-16
8.54709e-15
3.81269e-14
1.07675e-09
4.76353e-09
3.70898e-09
1.84129e-11
6.63175e-13
9.01088e-14
1.47814e-14
3.98811e-15
1.52511e-15
6.56648e-16
3.01839e-16
1.49673e-16
7.9713e-17
4.48929e-17
2.63876e-17
1.60477e-17
1.0033e-17
6.41217e-18
4.16637e-18
2.73701e-18
1.80724e-18
1.19174e-18
7.7906e-19
5.00262e-19
3.11889e-19
1.8569e-19
1.02991e-19
5.10678e-20
2.09368e-20
5.9529e-21
6.41409e-22
1.53757e-24
1.38744e-21
9.71408e-21
3.47144e-20
8.27864e-20
1.8419e-19
3.18141e-19
6.13217e-19
8.63479e-19
1.62683e-18
1.90448e-18
3.81097e-18
4.38315e-18
9.61448e-18
2.37038e-17
2.81409e-17
1.46287e-16
5.96462e-15
3.06306e-14
2.42809e-09
3.86836e-09
8.20806e-10
2.40079e-09
8.48985e-12
6.99271e-13
8.79127e-14
1.9854e-14
6.74915e-15
2.69474e-15
1.17754e-15
5.62865e-16
2.91588e-16
1.60772e-16
9.29579e-17
5.58082e-17
3.45412e-17
2.19063e-17
1.41557e-17
9.26871e-18
6.11461e-18
4.03977e-18
2.65508e-18
1.72192e-18
1.09105e-18
6.66232e-19
3.84434e-19
2.03186e-19
9.31006e-20
3.31252e-20
6.77038e-21
1.82078e-22
5.26323e-22
1.05728e-20
5.0965e-20
1.39523e-19
3.35346e-19
6.10163e-19
1.2103e-18
1.76103e-18
3.32066e-18
4.0205e-18
7.64029e-18
8.76822e-18
1.52744e-17
3.12669e-17
1.50308e-17
8.03197e-17
4.01404e-15
2.31723e-14
3.36962e-09
4.36913e-09
5.89591e-10
2.98709e-10
5.45815e-10
1.80928e-11
9.2671e-13
1.3927e-13
3.76591e-14
1.29975e-14
5.12441e-15
2.26836e-15
1.10818e-15
5.83894e-16
3.25785e-16
1.90133e-16
1.15048e-16
7.1657e-17
4.56452e-17
2.95574e-17
1.93421e-17
1.27138e-17
8.34033e-18
5.41937e-18
3.45696e-18
2.13904e-18
1.26287e-18
6.93537e-19
3.39606e-19
1.36975e-19
3.7659e-20
3.77272e-21
2.40521e-23
9.84652e-21
7.08236e-20
2.26485e-19
5.88734e-19
1.12846e-18
2.29132e-18
3.44694e-18
6.46079e-18
8.12985e-18
1.46745e-17
1.72959e-17
2.5123e-17
4.47449e-17
7.60899e-18
4.45907e-17
2.60541e-15
1.6432e-14
3.41106e-09
4.60627e-09
6.70894e-10
1.92515e-10
4.64817e-11
6.61947e-11
2.89175e-10
2.67644e-12
3.68515e-13
9.11874e-14
2.92013e-14
1.11759e-14
4.90371e-15
2.38002e-15
1.24502e-15
6.90088e-16
4.00477e-16
2.41063e-16
1.49313e-16
9.44901e-17
6.06881e-17
3.93021e-17
2.54936e-17
1.64404e-17
1.04512e-17
6.47723e-18
3.85664e-18
2.15777e-18
1.09523e-18
4.73312e-19
1.51605e-19
2.44599e-20
8.51958e-23
8.4366e-21
1.00783e-19
3.77689e-19
1.05422e-18
2.11626e-18
4.3653e-18
6.76391e-18
1.25259e-17
1.63449e-17
2.80727e-17
3.42107e-17
4.35411e-17
7.00273e-17
5.90279e-18
3.19281e-17
1.61971e-15
1.11328e-14
3.21188e-09
4.3898e-09
7.71762e-10
2.00971e-10
3.59989e-11
2.13414e-11
1.30514e-11
2.03958e-11
1.33811e-10
2.06689e-12
3.25682e-13
8.67734e-14
3.0323e-14
1.25568e-14
5.83744e-15
2.95282e-15
1.59321e-15
9.03914e-16
5.3324e-16
3.24035e-16
2.01167e-16
1.26618e-16
8.02034e-17
5.07243e-17
3.17556e-17
1.94674e-17
1.15256e-17
6.4565e-18
3.31657e-18
1.47809e-18
5.09786e-19
1.01537e-19
2.3834e-21
7.73551e-21
1.6097e-19
6.9029e-19
2.02939e-18
4.21242e-18
8.73118e-18
1.38292e-17
2.5139e-17
3.37989e-17
5.53412e-17
6.95116e-17
8.08877e-17
1.20751e-16
1.19183e-17
3.87144e-17
9.55908e-16
7.42212e-15
3.0175e-09
3.97121e-09
8.44153e-10
2.11697e-10
3.82018e-11
1.96531e-11
8.33834e-12
4.40675e-12
4.00123e-12
6.54756e-12
8.70289e-11
4.24869e-12
4.87545e-13
1.23685e-13
4.30525e-14
1.79096e-14
8.37698e-15
4.25907e-15
2.30291e-15
1.30358e-15
7.63033e-16
4.57065e-16
2.77584e-16
1.69351e-16
1.02808e-16
6.14036e-17
3.55825e-17
1.96084e-17
9.97293e-18
4.44433e-18
1.56377e-18
3.35954e-19
1.30613e-20
1.01187e-20
3.17824e-19
1.47049e-18
4.40894e-18
9.28291e-18
1.90576e-17
3.05315e-17
5.40648e-17
7.42357e-17
1.15979e-16
1.49043e-16
1.63742e-16
2.3107e-16
3.93973e-17
7.69257e-17
5.50868e-16
5.22036e-15
2.84615e-09
3.51104e-09
9.05565e-10
2.08995e-10
4.16332e-11
2.11184e-11
8.72646e-12
3.73575e-12
2.33281e-12
1.79832e-12
1.62176e-12
1.90952e-12
4.02013e-12
7.54152e-11
2.04119e-12
3.07581e-13
8.89186e-14
3.37429e-14
1.49269e-14
7.28571e-15
3.80166e-15
2.07638e-15
1.16846e-15
6.6845e-16
3.83981e-16
2.18553e-16
1.2138e-16
6.44071e-17
3.16684e-17
1.36934e-17
4.69318e-18
9.87651e-19
3.87152e-20
2.63428e-20
8.39938e-19
3.8492e-18
1.12954e-17
2.35596e-17
4.70994e-17
7.53559e-17
1.28848e-16
1.78799e-16
2.66459e-16
3.46923e-16
3.67943e-16
4.95794e-16
1.38801e-16
2.01099e-16
3.84041e-16
4.50046e-15
2.67619e-09
3.05533e-09
9.74308e-10
1.9773e-10
4.47307e-11
2.25086e-11
9.92146e-12
4.01603e-12
2.26953e-12
1.50751e-12
1.05884e-12
8.01988e-13
6.81718e-13
6.71665e-13
8.15198e-13
1.4489e-12
8.32878e-12
4.62646e-12
4.09917e-13
1.04172e-13
3.74229e-14
1.59486e-14
7.49629e-15
3.73333e-15
1.91799e-15
9.94419e-16
5.09459e-16
2.5147e-16
1.15531e-16
4.66628e-17
1.47887e-17
2.7614e-18
6.87738e-20
1.48234e-19
3.13008e-18
1.29819e-17
3.56795e-17
7.18181e-17
1.37209e-16
2.16003e-16
3.53108e-16
4.89122e-16
6.94307e-16
9.05029e-16
9.3984e-16
1.21363e-15
4.94487e-16
6.14628e-16
5.68218e-16
5.93117e-15
2.49777e-09
2.62026e-09
1.05388e-09
1.83532e-10
4.79721e-11
2.33414e-11
1.12513e-11
4.49631e-12
2.46409e-12
1.58129e-12
1.04458e-12
7.11688e-13
5.14383e-13
3.97082e-13
3.27633e-13
2.90984e-13
2.82783e-13
3.10163e-13
4.09489e-13
7.68948e-13
4.11998e-12
1.24358e-12
2.3015e-13
5.94441e-14
2.05949e-14
8.15037e-15
3.40818e-15
1.42676e-15
5.67098e-16
1.98809e-16
5.33334e-17
7.49109e-18
3.34879e-20
1.58964e-18
1.75751e-17
6.06109e-17
1.48778e-16
2.80099e-16
4.99796e-16
7.59368e-16
1.17167e-15
1.59436e-15
2.14734e-15
2.76085e-15
2.82624e-15
3.49301e-15
1.87504e-15
2.16667e-15
2.03308e-15
1.32824e-14
2.31147e-09
2.21984e-09
1.13895e-09
1.69017e-10
5.18185e-11
2.37474e-11
1.26204e-11
5.03636e-12
2.71876e-12
1.73999e-12
1.14012e-12
7.55824e-13
5.20888e-13
3.75086e-13
2.80757e-13
2.17918e-13
1.75567e-13
1.47178e-13
1.28829e-13
1.18416e-13
1.15431e-13
1.2152e-13
1.43233e-13
2.04796e-13
4.43596e-13
3.9064e-12
1.11012e-15
1.79903e-14
5.20204e-15
1.23927e-15
2.08673e-16
1.0891e-17
5.96225e-19
4.02583e-17
1.92824e-16
4.84976e-16
9.77706e-16
1.62344e-15
2.59109e-15
3.6653e-15
5.2058e-15
6.77328e-15
8.55002e-15
1.06039e-14
1.06663e-14
1.25268e-14
8.20185e-15
9.18518e-15
1.0682e-14
4.54766e-14
2.1196e-09
1.86032e-09
1.22221e-09
1.55224e-10
5.63107e-11
2.38525e-11
1.40517e-11
5.63416e-12
2.99675e-12
1.92399e-12
1.26985e-12
8.39503e-13
5.71412e-13
4.0307e-13
2.92671e-13
2.17668e-13
1.65549e-13
1.28661e-13
1.02068e-13
8.25407e-14
6.79483e-14
5.68689e-14
4.83543e-14
4.17713e-14
3.67246e-14
3.30125e-14
3.06699e-14
3.01711e-14
3.32927e-14
4.80878e-14
1.45625e-13
5.49341e-12
3.7614e-12
8.52998e-14
2.97327e-14
2.28183e-14
2.35117e-14
2.58612e-14
3.05948e-14
3.52256e-14
4.19258e-14
4.82031e-14
5.4218e-14
6.15751e-14
5.91128e-14
6.43399e-14
4.77802e-14
5.23949e-14
7.0205e-14
2.18994e-13
1.9238e-09
1.54213e-09
1.29707e-09
1.42916e-10
6.12029e-11
2.37242e-11
1.55457e-11
6.31259e-12
3.30103e-12
2.12363e-12
1.41662e-12
9.40506e-13
6.38964e-13
4.48501e-13
3.22979e-13
2.37108e-13
1.76963e-13
1.34036e-13
1.02804e-13
7.96249e-14
6.20783e-14
4.85403e-14
3.79116e-14
2.94363e-14
2.25947e-14
1.70235e-14
1.24701e-14
8.76092e-15
5.77749e-15
3.45521e-15
1.74923e-15
6.52236e-16
1.12908e-16
1.33719e-19
9.10216e-17
8.95438e-16
2.28842e-15
1.73346e-19
8.09483e-12
4.94426e-11
7.35953e-12
2.83087e-12
1.68152e-12
1.24139e-12
9.20392e-13
7.98311e-13
5.80933e-13
5.84457e-13
7.6333e-13
1.75244e-12
1.72628e-09
1.26512e-09
1.35785e-09
1.32982e-10
6.60918e-11
2.34307e-11
1.70653e-11
7.09083e-12
3.63979e-12
2.34087e-12
1.57901e-12
1.0549e-12
7.17193e-13
5.03035e-13
3.6171e-13
2.64711e-13
1.96489e-13
1.47607e-13
1.11919e-13
8.53582e-14
6.52247e-14
4.97091e-14
3.75916e-14
2.80372e-14
2.04722e-14
1.44947e-14
9.81907e-15
6.23958e-15
3.59875e-15
1.77825e-15
6.6223e-16
1.31637e-16
1.38964e-18
3.34342e-17
5.37231e-16
2.50641e-15
7.9451e-15
2.00017e-14
4.55769e-14
9.50486e-14
1.87922e-13
3.63246e-13
6.30569e-13
1.08289e-12
1.10085e-12
7.74559e-14
2.87722e-11
1.60001e-10
9.35617e-11
7.63998e-11
1.52984e-09
1.02898e-09
1.39967e-09
1.26357e-10
7.04558e-11
2.30708e-11
1.85488e-11
7.98348e-12
4.02001e-12
2.57848e-12
1.75853e-12
1.1836e-12
8.0582e-13
5.65199e-13
4.06454e-13
2.97353e-13
2.20435e-13
1.65201e-13
1.24797e-13
9.46731e-14
7.18042e-14
5.41706e-14
4.04154e-14
2.9615e-14
2.11344e-14
1.45278e-14
9.47062e-15
5.71963e-15
3.07453e-15
1.36695e-15
4.22411e-16
5.19511e-17
2.70705e-20
9.70133e-17
8.02509e-16
2.95527e-15
7.99101e-15
1.7813e-14
3.59274e-14
6.6741e-14
1.166e-13
1.97455e-13
3.08634e-13
4.85602e-13
6.67725e-13
9.37196e-13
1.17018e-12
1.53075e-12
3.05528e-12
8.52078e-12
1.33739e-09
8.32522e-10
1.41851e-09
1.23926e-10
7.36969e-11
2.27719e-11
1.99197e-11
9.00212e-12
4.44831e-12
2.8387e-12
1.95649e-12
1.32828e-12
9.06049e-13
6.35513e-13
4.57171e-13
3.34549e-13
2.47957e-13
1.85688e-13
1.4009e-13
1.06056e-13
8.01874e-14
6.0218e-14
4.46321e-14
3.24038e-14
2.28309e-14
1.54211e-14
9.81226e-15
5.7265e-15
2.92516e-15
1.19597e-15
3.12208e-16
2.17308e-17
2.96241e-18
2.04901e-16
1.22473e-15
3.95169e-15
9.78522e-15
2.04929e-14
3.8939e-14
6.87124e-14
1.13814e-13
1.82532e-13
2.72066e-13
4.02701e-13
5.39421e-13
7.26335e-13
9.36911e-13
1.31432e-12
2.61431e-12
6.91569e-12
1.15191e-09
6.73445e-10
1.41148e-09
1.2647e-10
7.52539e-11
2.26742e-11
2.10951e-11
1.0154e-11
4.93207e-12
3.12369e-12
2.17364e-12
1.49036e-12
1.01927e-12
7.14919e-13
5.14436e-13
3.76608e-13
2.7914e-13
2.08962e-13
1.57535e-13
1.19123e-13
8.9899e-14
6.73155e-14
4.96736e-14
3.58309e-14
2.50091e-14
1.66655e-14
1.03979e-14
5.89329e-15
2.87391e-15
1.08191e-15
2.34191e-16
6.79535e-18
1.77393e-17
3.96071e-16
1.91052e-15
5.61862e-15
1.31007e-14
2.63579e-14
4.83184e-14
8.28419e-14
1.33527e-13
2.08382e-13
3.04833e-13
4.39263e-13
5.88235e-13
7.84223e-13
1.04275e-12
1.50198e-12
2.88434e-12
6.92746e-12
9.76306e-10
5.48413e-10
1.37719e-09
1.3465e-10
7.47437e-11
2.29064e-11
2.1998e-11
1.14392e-11
5.47978e-12
3.43595e-12
2.41043e-12
1.67103e-12
1.14684e-12
8.04404e-13
5.78924e-13
4.24008e-13
3.14313e-13
2.35225e-13
1.77225e-13
1.33877e-13
1.0087e-13
7.53382e-14
5.5375e-14
3.97076e-14
2.74734e-14
1.80736e-14
1.10627e-14
6.08817e-15
2.82799e-15
9.70953e-16
1.66295e-16
7.61839e-19
6.0051e-17
7.27907e-16
2.99115e-15
8.17655e-15
1.81983e-14
3.55294e-14
6.35313e-14
1.06853e-13
1.69529e-13
2.60387e-13
3.78252e-13
5.38441e-13
7.27328e-13
9.73989e-13
1.33226e-12
1.96324e-12
3.66767e-12
8.202e-12
8.13272e-10
4.53273e-10
1.31601e-09
1.48976e-10
7.20329e-11
2.35639e-11
2.25698e-11
1.28463e-11
6.10111e-12
3.77837e-12
2.66699e-12
1.87109e-12
1.29002e-12
9.04938e-13
6.51295e-13
4.77228e-13
3.53836e-13
2.6474e-13
1.99341e-13
1.50432e-13
1.13159e-13
8.42967e-14
6.17098e-14
4.39804e-14
3.01539e-14
1.95706e-14
1.17372e-14
6.25553e-15
2.75112e-15
8.46573e-16
1.05576e-16
9.38576e-21
1.58127e-16
1.28777e-15
4.65761e-15
1.19724e-14
2.5631e-14
4.88002e-14
8.55923e-14
1.41854e-13
2.22743e-13
3.38585e-13
4.90915e-13
6.95511e-13
9.50266e-13
1.28669e-12
1.80339e-12
2.71012e-12
4.95252e-12
1.04744e-11
6.65114e-10
3.83367e-10
1.23017e-09
1.69676e-10
6.72732e-11
2.46927e-11
2.27816e-11
1.4348e-11
6.80663e-12
4.15426e-12
2.94332e-12
2.09088e-12
1.44993e-12
1.01745e-12
7.32158e-13
5.36701e-13
3.9804e-13
2.97753e-13
2.24062e-13
1.6891e-13
1.26841e-13
9.42296e-14
6.8685e-14
4.8632e-14
3.30171e-14
2.1116e-14
1.23826e-14
6.36606e-15
2.62766e-15
7.06342e-16
5.53226e-17
3.45543e-18
3.60325e-16
2.20911e-15
7.19169e-15
1.75218e-14
3.62598e-14
6.75138e-14
1.16501e-13
1.90687e-13
2.97114e-13
4.48278e-13
6.50057e-13
9.20346e-13
1.27199e-12
1.74583e-12
2.49658e-12
3.81139e-12
6.83922e-12
1.38226e-11
5.33554e-10
3.33856e-10
1.12369e-09
1.96473e-10
6.09316e-11
2.62659e-11
2.26451e-11
1.58973e-11
7.60704e-12
4.5673e-12
3.23925e-12
2.33017e-12
1.62742e-12
1.14276e-12
8.22047e-13
6.02784e-13
4.47193e-13
3.3447e-13
2.51534e-13
1.89411e-13
1.41977e-13
1.05164e-13
7.63012e-14
5.36425e-14
3.60307e-14
2.2673e-14
1.29664e-14
6.39808e-15
2.45012e-15
5.54445e-16
2.02144e-17
2.75586e-17
7.46686e-16
3.69504e-15
1.10086e-14
2.55775e-14
5.13488e-14
9.36758e-14
1.59324e-13
2.57891e-13
3.99243e-13
5.98926e-13
8.69222e-13
1.23253e-12
1.72153e-12
2.39566e-12
3.48173e-12
5.37845e-12
9.50314e-12
1.84952e-11
4.19601e-10
2.99962e-10
1.00214e-09
2.28305e-10
5.37683e-11
2.81545e-11
2.22178e-11
1.74265e-11
8.51163e-12
5.02141e-12
3.55461e-12
2.58801e-12
1.8229e-12
1.28155e-12
9.2137e-13
6.75721e-13
5.01472e-13
3.75022e-13
2.8185e-13
2.11989e-13
1.58592e-13
1.171e-13
8.45364e-14
5.89747e-14
3.91494e-14
2.41971e-14
1.34532e-14
6.33159e-15
2.21567e-15
3.99389e-16
2.98868e-18
1.08312e-16
1.44663e-15
6.05261e-15
1.67167e-14
3.72247e-14
7.27089e-14
1.30162e-13
2.18483e-13
3.50081e-13
5.38858e-13
8.0471e-13
1.16897e-12
1.66212e-12
2.34336e-12
3.30336e-12
4.86311e-12
7.57497e-12
1.32069e-11
2.49046e-11
3.23474e-10
2.77146e-10
8.72886e-10
2.62974e-10
4.67696e-11
3.01169e-11
2.15965e-11
1.88516e-11
9.5261e-12
5.5208e-12
3.88931e-12
2.86271e-12
2.03618e-12
1.43421e-12
1.03036e-12
7.55594e-13
5.60923e-13
4.19444e-13
3.15023e-13
2.3664e-13
1.76662e-13
1.29996e-13
9.33364e-14
6.45656e-14
4.23091e-14
2.5632e-14
1.38026e-14
6.14778e-15
1.92633e-15
2.53271e-16
3.62499e-22
3.12136e-16
2.6656e-15
9.7423e-15
2.52018e-14
5.40166e-14
1.02906e-13
1.81027e-13
3.00197e-13
4.76583e-13
7.29729e-13
1.08581e-12
1.57874e-12
2.25238e-12
3.20173e-12
4.56576e-12
6.7907e-12
1.0636e-11
1.8331e-11
3.36702e-11
2.44512e-10
2.61446e-10
7.44628e-10
2.97023e-10
4.09714e-11
3.18366e-11
2.09042e-11
2.00796e-11
1.06492e-11
6.06986e-12
4.2434e-12
3.15183e-12
2.26628e-12
1.60075e-12
1.14902e-12
8.42279e-13
6.25415e-13
4.67632e-13
3.50964e-13
2.63274e-13
1.96096e-13
1.43759e-13
1.02606e-13
7.03212e-14
4.54238e-14
2.69082e-14
1.39701e-14
5.83074e-15
1.59046e-15
1.30647e-16
6.22533e-18
7.55244e-16
4.72454e-15
1.54494e-14
3.77464e-14
7.81645e-14
1.45551e-13
2.5194e-13
4.13125e-13
6.50368e-13
9.91025e-13
1.47038e-12
2.13984e-12
3.06413e-12
4.38737e-12
6.31986e-12
9.47698e-12
1.48957e-11
2.54191e-11
4.56894e-11
1.81326e-10
2.49613e-10
6.24663e-10
3.26355e-10
3.71668e-11
3.29725e-11
2.02685e-11
2.10209e-11
1.18682e-11
6.67298e-12
4.61698e-12
3.45232e-12
2.51123e-12
1.78063e-12
1.27701e-12
9.35386e-13
6.9459e-13
5.19305e-13
3.89449e-13
2.917e-13
2.16722e-13
1.58232e-13
1.12199e-13
7.61108e-14
4.83833e-14
2.7944e-14
1.39091e-14
5.3706e-15
1.22446e-15
4.56456e-17
5.95066e-17
1.63335e-15
8.11783e-15
2.41857e-14
5.6198e-14
1.12803e-13
2.05709e-13
3.50798e-13
5.69284e-13
8.89401e-13
1.3493e-12
1.99749e-12
2.90967e-12
4.18223e-12
6.02731e-12
8.75815e-12
1.32213e-11
2.08266e-11
3.52433e-11
6.22453e-11
1.32097e-10
2.38843e-10
5.16768e-10
3.47346e-10
3.57685e-11
3.32143e-11
1.97958e-11
2.16078e-11
1.3154e-11
7.33384e-12
5.01011e-12
3.76063e-12
2.76793e-12
1.9726e-12
1.41361e-12
1.03421e-12
7.6782e-13
5.73966e-13
4.30084e-13
3.21594e-13
2.38266e-13
1.73178e-13
1.21914e-13
8.17632e-14
5.10525e-14
2.86474e-14
1.35753e-14
4.76733e-15
8.53842e-16
5.73917e-18
2.50411e-16
3.26644e-15
1.35973e-14
3.74346e-14
8.3205e-14
1.62362e-13
2.90467e-13
4.88582e-13
7.85306e-13
1.2185e-12
1.84123e-12
2.72114e-12
3.96792e-12
5.7248e-12
8.29909e-12
1.21506e-11
1.84448e-11
2.90971e-11
4.88996e-11
8.5165e-11
9.47312e-11
2.26916e-10
4.22469e-10
3.57642e-10
3.69184e-11
3.23952e-11
1.95451e-11
2.18106e-11
1.44594e-11
8.05463e-12
5.42261e-12
4.07299e-12
3.03215e-12
2.17453e-12
1.55759e-12
1.13768e-12
8.44164e-13
6.30862e-13
4.72284e-13
3.52487e-13
2.60342e-13
1.88277e-13
1.31483e-13
8.70654e-14
5.32737e-14
2.89205e-14
1.29319e-14
4.03524e-15
5.12635e-16
3.16988e-20
7.48477e-16
6.16523e-15
2.22931e-14
5.73543e-14
1.22544e-13
2.33076e-13
4.09709e-13
6.8052e-13
1.08419e-12
1.67195e-12
2.51752e-12
3.71609e-12
5.42517e-12
7.85626e-12
1.14508e-11
1.68763e-11
2.57411e-11
4.06529e-11
6.79443e-11
1.17046e-10
6.70337e-11
2.12551e-10
3.42334e-10
3.56372e-10
4.06022e-11
3.05862e-11
1.9513e-11
2.16454e-11
1.57208e-11
8.8346e-12
5.85403e-12
4.38567e-12
3.29867e-12
2.3833e-12
1.70714e-12
1.24434e-12
9.22355e-13
6.88968e-13
5.15247e-13
3.83744e-13
2.82439e-13
2.03115e-13
1.40578e-13
9.17646e-14
5.48715e-14
2.8667e-14
1.19575e-14
3.20727e-15
2.3935e-16
2.16093e-17
1.85181e-15
1.11284e-14
3.58854e-14
8.7064e-14
1.79577e-13
3.3369e-13
5.77194e-13
9.47707e-13
1.4977e-12
2.29704e-12
3.44816e-12
5.08577e-12
7.43491e-12
1.08058e-11
1.58296e-11
2.34679e-11
3.59483e-11
5.68352e-11
9.459e-11
1.61576e-10
4.69327e-11
1.9537e-10
2.76093e-10
3.44051e-10
4.66181e-11
2.80743e-11
1.9635e-11
2.11707e-11
1.68621e-11
9.66785e-12
6.3034e-12
4.69517e-12
3.5615e-12
2.59473e-12
1.85983e-12
1.35233e-12
1.00079e-12
7.4697e-13
5.57946e-13
4.14563e-13
3.03919e-13
2.17187e-13
1.48808e-13
9.55753e-14
5.56622e-14
2.7802e-14
1.0654e-14
2.3379e-15
6.70152e-17
1.81824e-16
4.06175e-15
1.93827e-14
5.68468e-14
1.31042e-13
2.61878e-13
4.76434e-13
8.12031e-13
1.31932e-12
2.0697e-12
3.15904e-12
4.72992e-12
6.97346e-12
1.02105e-11
1.48932e-11
2.19223e-11
3.26763e-11
5.02517e-11
7.95476e-11
1.31977e-10
2.23949e-10
3.26098e-11
1.75708e-10
2.22672e-10
3.22351e-10
5.44715e-11
2.5272e-11
1.97957e-11
2.04754e-11
1.78048e-11
1.05405e-11
6.76904e-12
4.99824e-12
3.81426e-12
2.80355e-12
2.0125e-12
1.45937e-12
1.07754e-12
8.03279e-13
5.99134e-13
4.43974e-13
3.24026e-13
2.29906e-13
1.55731e-13
9.81914e-14
5.54673e-14
2.62658e-14
9.05669e-15
1.50264e-15
3.49576e-18
7.30069e-16
8.19308e-15
3.27841e-14
8.87831e-14
1.95675e-13
3.80102e-13
6.78356e-13
1.1407e-12
1.83565e-12
2.8607e-12
4.34806e-12
6.49655e-12
9.57783e-12
1.40489e-11
2.05657e-11
3.04125e-11
4.55608e-11
7.03304e-11
1.11489e-10
1.84538e-10
3.1138e-10
2.25557e-11
1.54443e-10
1.8041e-10
2.93744e-10
6.33353e-11
2.26205e-11
1.98522e-11
1.96604e-11
1.84803e-11
1.14281e-11
7.24813e-12
5.2918e-12
4.0506e-12
3.00362e-12
2.16125e-12
1.56275e-12
1.1504e-12
8.56061e-13
6.3736e-13
4.70859e-13
3.41899e-13
2.4062e-13
1.60876e-13
9.93051e-14
5.41316e-14
2.40383e-14
7.2416e-15
7.90998e-16
3.19684e-18
2.12456e-15
1.55343e-14
5.41004e-14
1.36907e-13
2.90024e-13
5.49183e-13
9.63159e-13
1.59986e-12
2.55236e-12
3.95418e-12
5.98851e-12
8.93325e-12
1.31749e-11
1.93643e-11
2.84499e-11
4.22621e-11
6.36179e-11
9.85607e-11
1.56472e-10
2.58457e-10
4.33604e-10
1.5571e-11
1.32803e-10
1.47364e-10
2.61032e-10
7.21234e-11
2.05055e-11
1.96739e-11
1.88172e-11
1.88431e-11
1.22948e-11
7.73622e-12
5.57281e-12
4.26468e-12
3.18815e-12
2.30147e-12
1.6594e-12
1.21692e-12
9.0329e-13
6.71014e-13
4.93984e-13
3.56607e-13
2.4864e-13
1.63766e-13
9.86311e-14
5.15451e-14
2.11555e-14
5.33007e-15
2.88611e-16
1.21946e-16
5.15523e-15
2.80772e-14
8.74098e-14
2.08693e-13
4.26873e-13
7.89966e-13
1.36372e-12
2.24016e-12
3.54621e-12
5.46539e-12
8.25244e-12
1.22967e-11
1.81485e-11
2.67351e-11
3.94247e-11
5.88261e-11
8.89605e-11
1.38294e-10
2.19823e-10
3.6215e-10
6.03056e-10
1.07484e-11
1.1193e-10
1.21596e-10
2.26995e-10
7.967e-11
1.91902e-11
1.91868e-11
1.80117e-11
1.88802e-11
1.30951e-11
8.22657e-12
5.83826e-12
4.4515e-12
3.3502e-12
2.42797e-12
1.74592e-12
1.27454e-12
9.42844e-13
6.98396e-13
5.12051e-13
3.67187e-13
2.5328e-13
1.63952e-13
9.59377e-14
4.76678e-14
1.77244e-14
3.48561e-15
4.23425e-17
7.27919e-16
1.11235e-14
4.8842e-14
1.38655e-13
3.14791e-13
6.24176e-13
1.13148e-12
1.92559e-12
3.13158e-12
4.92321e-12
7.55357e-12
1.1378e-11
1.69435e-11
2.5034e-11
3.69713e-11
5.47255e-11
8.20132e-11
1.24564e-10
1.94213e-10
3.08838e-10
5.06571e-10
8.34041e-10
7.43361e-12
9.25386e-11
1.01357e-10
1.94009e-10
8.49956e-11
1.87733e-11
1.83927e-11
1.72731e-11
1.86122e-11
1.37773e-11
8.70885e-12
6.08482e-12
4.60702e-12
3.48316e-12
2.53519e-12
1.81865e-12
1.32061e-12
9.72592e-13
7.17797e-13
5.23761e-13
3.72701e-13
2.53901e-13
1.61057e-13
9.10809e-14
4.25543e-14
1.39329e-14
1.89796e-15
6.14334e-21
2.53779e-15
2.21007e-14
8.23348e-14
2.16413e-13
4.70274e-13
9.07053e-13
1.61405e-12
2.71178e-12
4.37078e-12
6.82981e-12
1.0439e-11
1.56957e-11
2.33699e-11
3.45792e-11
5.12081e-11
7.6088e-11
1.14505e-10
1.74584e-10
2.72751e-10
4.33134e-10
7.04807e-10
1.13963e-09
5.15879e-12
7.5086e-11
8.51775e-11
1.63623e-10
8.75185e-11
1.92011e-11
1.73652e-11
1.65928e-11
1.80876e-11
1.42916e-11
9.16793e-12
6.30859e-12
4.72813e-12
3.58122e-12
2.61745e-12
1.8738e-12
1.35254e-12
9.90515e-13
7.27603e-13
5.27902e-13
3.72302e-13
2.49971e-13
1.54822e-13
8.40405e-14
3.63766e-14
1.00499e-14
7.47438e-16
8.65522e-17
6.80883e-15
4.1295e-14
1.35183e-13
3.32955e-13
6.96366e-13
1.31053e-12
2.29357e-12
3.80943e-12
6.09134e-12
9.46854e-12
1.44271e-11
2.16649e-11
3.2268e-11
4.78306e-11
7.10377e-11
1.05947e-10
1.60042e-10
2.44735e-10
3.82451e-10
6.04529e-10
9.69992e-10
1.52493e-09
3.59354e-12
5.99077e-11
7.1923e-11
1.36598e-10
8.71102e-11
2.03076e-11
1.62298e-11
1.59378e-11
1.73714e-11
1.45976e-11
9.58367e-12
6.50498e-12
4.81251e-12
3.63985e-12
2.6694e-12
1.90758e-12
1.36788e-12
9.94818e-13
7.26408e-13
5.23432e-13
3.65306e-13
2.41121e-13
1.4515e-13
7.49543e-14
2.94384e-14
6.41047e-15
1.3998e-16
8.09639e-16
1.56259e-14
7.35655e-14
2.17016e-13
5.05711e-13
1.02281e-12
1.8833e-12
3.24748e-12
5.33901e-12
8.47799e-12
1.31199e-11
1.99419e-11
2.99252e-11
4.46046e-11
6.62527e-11
9.86883e-11
1.47694e-10
2.23772e-10
3.42651e-10
5.33988e-10
8.35652e-10
1.3102e-09
1.97697e-09
2.51206e-12
4.71263e-11
6.07901e-11
1.13197e-10
8.40461e-11
2.18434e-11
1.51254e-11
1.52691e-11
1.6531e-11
1.46717e-11
9.93145e-12
6.66838e-12
4.85841e-12
3.65603e-12
2.68644e-12
1.91647e-12
1.36446e-12
9.84054e-13
7.13138e-13
5.09593e-13
3.51274e-13
2.27208e-13
1.32157e-13
6.41455e-14
2.21769e-14
3.37643e-15
3.16747e-19
3.32513e-15
3.23076e-14
1.26135e-13
3.41676e-13
7.59267e-13
1.49111e-12
2.69295e-12
4.5829e-12
7.46711e-12
1.17864e-11
1.81732e-11
2.7573e-11
4.13688e-11
6.17303e-11
9.18918e-11
1.37261e-10
2.05995e-10
3.12586e-10
4.77987e-10
7.39226e-10
1.13615e-09
1.71985e-09
2.45681e-09
1.76148e-12
3.66528e-11
5.12499e-11
9.33536e-11
7.88792e-11
2.3509e-11
1.41674e-11
1.45579e-11
1.56249e-11
1.45107e-11
1.01844e-11
6.79185e-12
4.86441e-12
3.62833e-12
2.66518e-12
1.89748e-12
1.34054e-12
9.57248e-13
6.87175e-13
4.86014e-13
3.30094e-13
2.08378e-13
1.16213e-13
5.21391e-14
1.51434e-14
1.26171e-15
9.27761e-17
9.66804e-15
6.19736e-14
2.09574e-13
5.28871e-13
1.1281e-12
2.15898e-12
3.83303e-12
6.44794e-12
1.04242e-11
1.63709e-11
2.51686e-11
3.81413e-11
5.72397e-11
8.55289e-11
1.27591e-10
1.91017e-10
2.87111e-10
4.35275e-10
6.61781e-10
1.00831e-09
1.5056e-09
2.17094e-09
2.90431e-09
1.23817e-12
2.82586e-11
4.29774e-11
7.67794e-11
7.22798e-11
2.50032e-11
1.34261e-11
1.37945e-11
1.46954e-11
1.41313e-11
1.03169e-11
6.86709e-12
4.82935e-12
3.55688e-12
2.60387e-12
1.84849e-12
1.29497e-12
9.14013e-13
6.48463e-13
4.52812e-13
3.02063e-13
1.85116e-13
9.7961e-14
3.9656e-14
8.95236e-15
2.09023e-16
1.14986e-15
2.31968e-14
1.12325e-13
3.39132e-13
8.06427e-13
1.66033e-12
3.10646e-12
5.43292e-12
9.04732e-12
1.45291e-11
2.27227e-11
3.48573e-11
5.27896e-11
7.92698e-11
1.18613e-10
1.77256e-10
2.65681e-10
3.99075e-10
6.02081e-10
9.04217e-10
1.34384e-09
1.92492e-09
2.61266e-09
3.26031e-09
8.71866e-13
2.16476e-11
3.57818e-11
6.30661e-11
6.49032e-11
2.60743e-11
1.29196e-11
1.29905e-11
1.37675e-11
1.35663e-11
1.0309e-11
6.8846e-12
4.75222e-12
3.44311e-12
2.50258e-12
1.76859e-12
1.22741e-12
8.54663e-13
5.97607e-13
4.1068e-13
2.67946e-13
1.58286e-13
7.83307e-14
2.75777e-14
4.18641e-15
4.40658e-20
5.11849e-15
4.92071e-14
1.94704e-13
5.36557e-13
1.21334e-12
2.42272e-12
4.44414e-12
7.67119e-12
1.26638e-11
2.02231e-11
3.15229e-11
4.82824e-11
7.31053e-11
1.09857e-10
1.64568e-10
2.46133e-10
3.68629e-10
5.51387e-10
8.22928e-10
1.20986e-09
1.73302e-09
2.35273e-09
2.98692e-09
3.4923e-09
6.14651e-13
1.65104e-11
2.95473e-11
5.1772e-11
5.73075e-11
2.65575e-11
1.26201e-11
1.2174e-11
1.28523e-11
1.28573e-11
1.01496e-11
6.83441e-12
4.63212e-12
3.28954e-12
2.36332e-12
1.65842e-12
1.13851e-12
7.8031e-13
5.35936e-13
3.60942e-13
2.29022e-13
1.29134e-13
5.85037e-14
1.68673e-14
1.24208e-15
2.2172e-16
1.53664e-14
9.57648e-14
3.25527e-13
8.32515e-13
1.80384e-12
3.50757e-12
6.32448e-12
1.0794e-11
1.76877e-11
2.81163e-11
4.3715e-11
6.68888e-11
1.01281e-10
1.52285e-10
2.28206e-10
3.41001e-10
5.0867e-10
7.53596e-10
1.10346e-09
1.57058e-09
2.1424e-09
2.73496e-09
3.25301e-09
3.60287e-09
4.33649e-13
1.25583e-11
2.41916e-11
4.24803e-11
4.99108e-11
2.639e-11
1.24659e-11
1.13785e-11
1.19536e-11
1.20478e-11
9.83929e-12
6.70746e-12
4.46837e-12
3.09955e-12
2.18994e-12
1.52034e-12
1.0301e-12
6.92957e-13
4.65535e-13
3.05569e-13
1.87076e-13
9.92642e-14
3.98419e-14
8.43378e-15
9.8179e-17
2.33967e-15
3.73365e-14
1.74816e-13
5.28165e-13
1.26981e-12
2.65289e-12
5.04179e-12
8.95692e-12
1.51396e-11
2.46565e-11
3.90506e-11
6.0601e-11
9.26659e-11
1.4031e-10
2.10958e-10
3.15756e-10
4.70023e-10
6.94899e-10
1.01198e-09
1.4388e-09
1.95967e-09
2.52322e-09
3.02632e-09
3.4021e-09
3.618e-09
3.06128e-13
9.539e-12
1.96447e-11
3.4828e-11
4.29836e-11
2.56024e-11
1.23768e-11
1.06305e-11
1.10725e-11
1.11771e-11
9.38969e-12
6.49721e-12
4.2607e-12
2.87728e-12
1.98786e-12
1.35853e-12
9.05375e-13
5.95545e-13
3.89232e-13
2.47137e-13
1.44347e-13
7.05468e-14
2.3751e-14
2.92162e-15
1.30147e-17
9.79103e-15
7.94125e-14
3.0364e-13
8.35418e-13
1.90757e-12
3.86328e-12
7.19906e-12
1.26281e-11
2.11721e-11
3.43082e-11
5.41822e-11
8.39657e-11
1.2832e-10
1.94198e-10
2.91571e-10
4.34752e-10
6.41793e-10
9.33873e-10
1.32405e-09
1.80752e-09
2.33405e-09
2.82916e-09
3.20835e-09
3.45193e-09
3.56956e-09
2.16277e-13
7.2412e-12
1.58384e-11
2.85152e-11
3.66759e-11
2.42906e-11
1.22714e-11
9.94397e-12
1.02114e-11
1.02778e-11
8.82196e-12
6.20151e-12
4.00968e-12
2.62758e-12
1.7638e-12
1.17889e-12
7.68876e-13
4.91959e-13
3.10526e-13
1.8872e-13
1.03395e-13
4.49603e-14
1.14674e-14
4.09395e-16
1.05167e-15
2.82577e-14
1.54035e-13
5.06707e-13
1.29267e-12
2.82673e-12
5.57497e-12
1.02155e-11
1.77281e-11
2.95236e-11
4.76499e-11
7.50867e-11
1.16225e-10
1.77459e-10
2.68118e-10
4.01041e-10
5.9325e-10
8.6294e-10
1.22478e-09
1.67269e-09
2.1718e-09
2.64821e-09
3.0352e-09
3.29024e-09
3.43128e-09
3.48411e-09
1.53006e-13
5.4953e-12
1.26942e-11
2.33021e-11
3.10516e-11
2.25855e-11
1.20826e-11
9.32033e-12
9.37603e-12
9.37483e-12
8.16336e-12
5.82384e-12
3.71728e-12
2.35604e-12