/*--------------------------------*- C++ -*----------------------------------*\
  =========                 |
  \\      /  F ield         | OpenFOAM: The Open Source CFD Toolbox
   \\    /   O peration     | Website:  https://openfoam.org
    \\  /    A nd           | Version:  7
     \\/     M anipulation  |
\*---------------------------------------------------------------------------*/
FoamFile
{
    version     2.0;
    format      ascii;
    class       volScalarField;
    location    "0.05";
    object      p;
}
// * * * * * * * * * * * * * * * * * * * * * * * * * * * * * * * * * * * * * //

dimensions      [0 2 -2 0 0 0 0];

internalField   nonuniform List<scalar> 
70000
(
0.0981513
0.0206972
0.00817751
0.0106231
0.0107935
0.0097376
0.00880001
0.00809273
0.00750542
0.00699057
0.00653504
0.00613101
0.00577108
0.00544875
0.00515874
0.00489678
0.00465945
0.004444
0.00424815
0.00407009
0.00390831
0.00376158
0.00362891
0.00350946
0.00340258
0.00330773
0.00322447
0.00315249
0.00309155
0.00304143
0.00300206
0.00297328
0.00295514
0.00294742
0.00295027
0.0029633
0.00298672
0.00301986
0.00306262
0.00311448
0.00317346
0.00324152
0.00330925
0.00338985
0.00344853
0.00353897
0.00354359
0.00365421
0.00348082
0.00363116
0.0937834
0.021064
0.00838053
0.0107188
0.0108482
0.00977372
0.00882829
0.0081161
0.00752506
0.00700737
0.00654969
0.00614398
0.00578269
0.00545925
0.0051683
0.00490556
0.00466756
0.00445153
0.00425518
0.00407669
0.00391452
0.00376746
0.00363449
0.00351478
0.00340766
0.00331259
0.00322915
0.00315701
0.00309591
0.00304567
0.00300618
0.00297731
0.00295908
0.00295129
0.00295409
0.00296708
0.00299047
0.00302359
0.00306635
0.00311823
0.00317723
0.00324535
0.0033131
0.00339382
0.00345253
0.00354313
0.00354782
0.00365785
0.00348879
0.00367511
0.0902027
0.0220039
0.00872082
0.0108479
0.0109224
0.00981849
0.00886065
0.00814234
0.00754693
0.0070259
0.00656569
0.00615804
0.00579521
0.00547052
0.00517854
0.00491493
0.0046762
0.00445953
0.00426264
0.00408367
0.00392109
0.00377366
0.00364036
0.00352036
0.00341298
0.00331768
0.00323404
0.0031617
0.00310044
0.00305005
0.00301044
0.00298145
0.00296312
0.00295525
0.00295798
0.00297091
0.00299426
0.00302736
0.00307011
0.003122
0.00318102
0.00324922
0.00331701
0.00339792
0.00345666
0.00354766
0.00355261
0.00366217
0.00350914
0.00371914
0.0871085
0.0231056
0.00919022
0.0110217
0.0110233
0.009876
0.0088988
0.00817227
0.00757152
0.00704641
0.00658314
0.0061732
0.00580859
0.00548248
0.00518934
0.00492476
0.00468521
0.00446785
0.00427036
0.00409087
0.00392783
0.00378
0.00364634
0.00352602
0.00341836
0.00332281
0.00323893
0.00316639
0.00310495
0.00305439
0.00301463
0.0029855
0.00296705
0.00295907
0.00296171
0.00297456
0.00299785
0.0030309
0.00307362
0.00312551
0.00318454
0.0032528
0.00332067
0.00340175
0.00346074
0.003552
0.00355828
0.00366636
0.00354129
0.0037637
0.0841491
0.024202
0.00975595
0.0112421
0.0111576
0.00995372
0.00894766
0.00820921
0.00760143
0.00707095
0.00660366
0.00619075
0.00582389
0.005496
0.00520143
0.00493567
0.00469514
0.00447694
0.00427874
0.00409863
0.00393505
0.00378675
0.00365267
0.00353198
0.00342399
0.00332813
0.00324398
0.00317119
0.00310952
0.00305875
0.0030188
0.00298949
0.00297088
0.00296275
0.00296525
0.00297799
0.00300116
0.00303413
0.00307678
0.00312863
0.00318764
0.00325593
0.00332392
0.00340512
0.0034646
0.00355589
0.00356503
0.00367058
0.00358301
0.00381495
0.08124
0.0252407
0.0103709
0.0114889
0.0113196
0.0100532
0.00900981
0.00825536
0.00763855
0.0071012
0.0066287
0.00621193
0.00584215
0.00551199
0.00521558
0.00494833
0.00470656
0.00448732
0.00428822
0.00410734
0.0039431
0.00379421
0.00365962
0.00353846
0.00343005
0.00333382
0.00324932
0.00317621
0.00311425
0.0030632
0.00302299
0.00299345
0.00297461
0.00296627
0.00296856
0.00298111
0.00300411
0.00303692
0.00307941
0.00313116
0.0031901
0.00325835
0.00332644
0.0034077
0.00346793
0.00355901
0.0035727
0.00367523
0.00363149
0.00387365
0.0783751
0.0262031
0.0110015
0.0117405
0.0114961
0.0101699
0.0090842
0.00831062
0.00768328
0.00713781
0.00665897
0.00623746
0.00586408
0.00553109
0.00523241
0.00496329
0.00471997
0.00449942
0.00429921
0.00411737
0.0039523
0.00380267
0.00366742
0.00354568
0.00343674
0.00334003
0.00325509
0.00318157
0.00311922
0.00306781
0.00302725
0.00299738
0.00297822
0.00296957
0.00297157
0.00298383
0.00300654
0.00303909
0.00308133
0.00313286
0.00319161
0.00325974
0.00332788
0.00340911
0.00347032
0.00356096
0.00358096
0.00368063
0.00368381
0.00393765
0.0755606
0.0270811
0.0116317
0.0119852
0.0116761
0.0102973
0.00916745
0.00837297
0.00773442
0.00718019
0.0066943
0.00626739
0.00588986
0.00555357
0.00525221
0.00498087
0.00473569
0.00451357
0.00431201
0.00412901
0.00396291
0.00381238
0.00367632
0.00355386
0.00344425
0.00334693
0.00326142
0.00318738
0.00312452
0.00307264
0.00303162
0.00300131
0.00298171
0.00297264
0.0029742
0.00298605
0.00300833
0.0030405
0.00308232
0.00313351
0.00319192
0.0032598
0.00332789
0.00340895
0.00347138
0.00356136
0.00358932
0.00368691
0.00373691
0.00400403
0.0728023
0.0278718
0.0122563
0.0122189
0.0118536
0.0104305
0.00925628
0.00843985
0.00779
0.00722694
0.00673371
0.00630107
0.00591906
0.00557918
0.00527486
0.00500105
0.00475376
0.00452985
0.00432674
0.00414238
0.00397508
0.00382348
0.00368647
0.00356313
0.00345272
0.00335465
0.00326845
0.00319375
0.00313027
0.00307778
0.00303617
0.00300528
0.0029851
0.00297546
0.00297644
0.00298773
0.00300942
0.00304102
0.00308225
0.00313292
0.0031908
0.00325825
0.00332617
0.00340687
0.00347074
0.00355986
0.00359716
0.003694
0.00378789
0.00406982
0.0701046
0.028575
0.0128742
0.0124413
0.0120258
0.010567
0.00934861
0.00850931
0.00784824
0.00727653
0.00677597
0.0063375
0.00595092
0.00560732
0.0052999
0.00502347
0.00477395
0.00454809
0.00434328
0.00415742
0.00398879
0.00383599
0.00369788
0.00357354
0.0034622
0.00336326
0.00327624
0.00320075
0.00313651
0.00308328
0.00304094
0.00300932
0.00298842
0.00297805
0.00297829
0.00298884
0.00300974
0.0030406
0.00308102
0.00313096
0.00318809
0.00325489
0.0033225
0.00340259
0.00346808
0.00355624
0.00360381
0.00370162
0.00383426
0.00413176
0.067471
0.0291911
0.0134847
0.0126532
0.012191
0.0107051
0.00944346
0.00858027
0.00790797
0.00732785
0.00682005
0.00637577
0.0059846
0.00563727
0.00532673
0.00504763
0.0047958
0.00456794
0.00436136
0.00417392
0.00400386
0.00384976
0.00371047
0.00358502
0.00347265
0.00337273
0.00328477
0.00320837
0.00314325
0.00308916
0.00304596
0.00301348
0.0029917
0.00298045
0.00297976
0.00298939
0.00300931
0.00303921
0.0030786
0.00312759
0.00318375
0.00324963
0.00331678
0.00339599
0.00346321
0.0035504
0.00360863
0.00370927
0.00387414
0.0041867
0.0649043
0.0297205
0.0140862
0.0128557
0.0123486
0.010844
0.00954044
0.00865227
0.00796857
0.00738025
0.0068653
0.00641523
0.00601949
0.00566845
0.00535479
0.00507302
0.00481888
0.00458898
0.00438059
0.00419153
0.00402
0.00386456
0.00372401
0.00359739
0.00348391
0.00338294
0.00329396
0.00321657
0.00315046
0.00309539
0.00305121
0.00301774
0.00299494
0.00298265
0.00298089
0.00298941
0.00300816
0.0030369
0.00307505
0.00312283
0.0031778
0.0032425
0.00330901
0.00338707
0.00345604
0.0035424
0.00361109
0.00371629
0.00390636
0.00423205
0.0624072
0.0301637
0.0146768
0.0130499
0.0124977
0.0109829
0.00963941
0.00872514
0.00802975
0.00743342
0.00691139
0.00645552
0.00605521
0.00570046
0.00538369
0.00509926
0.0048428
0.00461086
0.00440066
0.00420997
0.00403695
0.00388013
0.0037383
0.00361047
0.00349583
0.00339374
0.00330368
0.00322522
0.00315805
0.00310192
0.00305665
0.00302208
0.00299815
0.00298469
0.00298169
0.00298896
0.00300636
0.00303375
0.00307045
0.00311681
0.00317037
0.00323362
0.00329933
0.003376
0.00344663
0.00353238
0.00361085
0.00372195
0.00393039
0.00426609
0.0599821
0.0305215
0.0152541
0.0132373
0.0126378
0.0111211
0.00974025
0.00879886
0.00809138
0.00748719
0.00695817
0.00649648
0.00609156
0.0057331
0.00541322
0.00512611
0.00486733
0.00463335
0.00442133
0.00422899
0.00405447
0.00389626
0.00375312
0.00362405
0.00350822
0.00340498
0.00331379
0.00323421
0.00316592
0.00310865
0.00306223
0.00302647
0.0030013
0.00298656
0.00298221
0.00298808
0.00300399
0.00302985
0.00306493
0.00310965
0.00316164
0.0032232
0.00328795
0.00336305
0.00343515
0.00352058
0.00360775
0.00372557
0.00394626
0.00428806
0.0576314
0.0307952
0.0158151
0.0134192
0.0127685
0.0112575
0.00984282
0.00887343
0.00815337
0.00754147
0.00700556
0.00653802
0.00612847
0.00576626
0.00544325
0.00515346
0.00489235
0.00465631
0.00444246
0.00424846
0.00407242
0.00391279
0.00376833
0.003638
0.00352096
0.00341654
0.00332417
0.00324343
0.00317397
0.00311552
0.00306788
0.00303086
0.00300437
0.00298826
0.00298246
0.00298681
0.00300111
0.0030253
0.00305862
0.00310153
0.00315179
0.00321146
0.00327509
0.0033485
0.00342181
0.00350723
0.00360182
0.00372659
0.00395444
0.00429814
0.0553571
0.0309864
0.0163567
0.0135974
0.0128897
0.0113913
0.0099469
0.00894886
0.00821564
0.0075962
0.00705351
0.00658012
0.00616588
0.00579991
0.00547374
0.00518125
0.00491778
0.00467967
0.00446396
0.00426828
0.0040907
0.00392965
0.00378384
0.00365223
0.00353395
0.00342832
0.00333476
0.00325282
0.00318215
0.00312247
0.00307355
0.00303522
0.00300735
0.0029898
0.00298245
0.0029852
0.00299778
0.00302019
0.00305164
0.00309259
0.003141
0.00319864
0.00326101
0.00333267
0.00340687
0.00349255
0.00359319
0.00372461
0.00395559
0.00429721
0.0531609
0.0310973
0.0168758
0.0137731
0.0130012
0.0115213
0.0100522
0.00902518
0.00827814
0.00765127
0.00710199
0.00662273
0.00620378
0.00583401
0.00550467
0.00520945
0.0049436
0.00470339
0.00448581
0.00428843
0.00410929
0.00394679
0.00379961
0.00366669
0.00354715
0.00344027
0.00334549
0.00326232
0.00319041
0.00312945
0.00307922
0.00303952
0.00301021
0.00299116
0.00298221
0.00298328
0.00299406
0.00301458
0.00304408
0.00308296
0.00312942
0.00318491
0.00324589
0.00331579
0.00339054
0.00347666
0.00358203
0.00371935
0.00395046
0.00428652
0.0510441
0.0311302
0.0173695
0.0139476
0.0131031
0.0116467
0.0101584
0.00910239
0.00834078
0.00770661
0.00715094
0.00666585
0.00624214
0.00586854
0.00553601
0.00523804
0.0049698
0.00472746
0.00450798
0.00430888
0.00412815
0.00396417
0.0038156
0.00368135
0.00356052
0.00345238
0.00335633
0.00327191
0.00319871
0.00313644
0.00308485
0.00304374
0.00301295
0.00299233
0.00298173
0.00298105
0.00298998
0.00300853
0.003036
0.00307272
0.00311715
0.00317042
0.00322987
0.00329803
0.003373
0.00345964
0.00356851
0.00371068
0.00393973
0.00426743
0.0490074
0.0310881
0.0178348
0.0141217
0.0131958
0.0117664
0.010265
0.00918049
0.00840354
0.00776211
0.0072003
0.00670944
0.00628094
0.0059035
0.00556776
0.00526702
0.00499635
0.00475187
0.00453046
0.00432961
0.00414728
0.0039818
0.00383181
0.00369619
0.00357404
0.00346461
0.00336728
0.00328156
0.00320705
0.00314343
0.00309044
0.00304787
0.00301555
0.00299332
0.00298101
0.00297852
0.00298553
0.00300205
0.00302743
0.00306192
0.00310425
0.00315525
0.00321305
0.00327948
0.00335433
0.00344146
0.00355275
0.00369854
0.00392396
0.00424121
0.0470513
0.0309745
0.0182689
0.0142959
0.0132796
0.0118796
0.0103715
0.00925945
0.00846635
0.00781768
0.00725001
0.00675347
0.00632016
0.00593885
0.00559989
0.00529638
0.00502326
0.00477661
0.00455326
0.00435064
0.00416667
0.00399965
0.00384822
0.00371121
0.00358772
0.00347695
0.0033783
0.00329126
0.0032154
0.00315039
0.00309597
0.0030519
0.003018
0.00299411
0.00298004
0.00297568
0.00298072
0.00299515
0.00301837
0.00305058
0.00309073
0.00313942
0.00319545
0.00326016
0.00333458
0.00342206
0.0035348
0.00368291
0.00390357
0.00420892
0.0451757
0.0307934
0.0186691
0.0144705
0.0133552
0.0119853
0.0104772
0.00933922
0.00852919
0.0078732
0.00729997
0.00679789
0.00635978
0.00597458
0.00563239
0.00532609
0.00505052
0.00480168
0.00457635
0.00437193
0.0041863
0.00401774
0.00386482
0.00372641
0.00360153
0.00348941
0.00338941
0.003301
0.00322375
0.00315732
0.00310141
0.00305581
0.00302028
0.00299468
0.0029788
0.00297252
0.00297553
0.00298781
0.00300883
0.00303868
0.00307658
0.00312293
0.00317707
0.00324005
0.00331372
0.00340131
0.00351465
0.00366378
0.00387885
0.00417136
0.0433801
0.0305491
0.0190331
0.0146454
0.0134233
0.012083
0.0105815
0.00941967
0.00859205
0.00792857
0.00735011
0.00684266
0.00639976
0.00601066
0.00566524
0.00535614
0.0050781
0.00482705
0.00459973
0.0043935
0.00420618
0.00403604
0.00388162
0.00374176
0.00361547
0.00350196
0.00340058
0.00331077
0.00323209
0.0031642
0.00310677
0.00305958
0.00302238
0.00299502
0.00297727
0.00296901
0.00296995
0.00298002
0.00299876
0.00302622
0.00306179
0.00310575
0.00315789
0.00321907
0.00329173
0.00337909
0.00349228
0.00364117
0.00384998
0.00412911
0.0416638
0.0302462
0.0193584
0.0148199
0.0134847
0.012172
0.0106836
0.00950065
0.0086549
0.00798369
0.00740031
0.00688772
0.00644007
0.00604706
0.0056984
0.00538651
0.00510599
0.00485272
0.0046234
0.00441532
0.0042263
0.00405455
0.0038986
0.00375727
0.00362954
0.00351461
0.0034118
0.00332056
0.00324042
0.00317101
0.00311203
0.0030632
0.00302429
0.00299511
0.00297545
0.00296515
0.00296395
0.00297175
0.00298815
0.00301315
0.00304633
0.00308785
0.00313785
0.00319716
0.00326851
0.00335526
0.00346759
0.0036151
0.00381709
0.00408258
0.0400255
0.0298899
0.0196432
0.0149933
0.0135404
0.012252
0.0107827
0.00958191
0.00871775
0.00803846
0.00745046
0.006933
0.00648066
0.00608375
0.00573187
0.00541718
0.00513418
0.00487868
0.00464733
0.00443739
0.00424664
0.00407325
0.00391576
0.00377292
0.00364372
0.00352734
0.00342307
0.00333035
0.00324871
0.00317776
0.00311716
0.00306665
0.00302597
0.00299493
0.00297329
0.00296091
0.00295751
0.00296297
0.00297698
0.00299946
0.00303015
0.00306917
0.00311691
0.00317423
0.00324398
0.00332969
0.00344051
0.00358557
0.00378025
0.00403203
0.0384637
0.0294854
0.0198859
0.0151642
0.0135912
0.0123228
0.0108778
0.00966315
0.00878056
0.0080928
0.00750044
0.00697843
0.0065215
0.0061207
0.00576559
0.00544813
0.00516264
0.0049049
0.00467151
0.00445969
0.00426719
0.00409215
0.00393307
0.0037887
0.003658
0.00354013
0.00343437
0.00334015
0.00325696
0.00318442
0.00312217
0.00306992
0.00302742
0.00299446
0.0029708
0.00295626
0.0029506
0.00295367
0.0029652
0.0029851
0.00301321
0.00304967
0.00309501
0.00315018
0.00321806
0.00330226
0.00341093
0.00355262
0.0037395
0.00397762
0.0369763
0.0290383
0.020085
0.0153309
0.0136382
0.0123844
0.0109682
0.00974396
0.00884333
0.00814664
0.00755012
0.00702391
0.00656254
0.00615786
0.00579955
0.00547932
0.00519136
0.00493137
0.00469592
0.00448221
0.00428794
0.00411123
0.00395054
0.00380461
0.00367238
0.00355298
0.0034457
0.00334992
0.00326515
0.00319097
0.00312702
0.00307299
0.00302862
0.00299368
0.00296793
0.00295118
0.00294319
0.0029438
0.00295278
0.00297003
0.00299548
0.00302928
0.00307208
0.00312493
0.00319063
0.00327285
0.00337878
0.00351623
0.00369489
0.00391943
0.0355613
0.0285541
0.0202399
0.0154915
0.0136822
0.0124371
0.0110529
0.00982389
0.008906
0.00819991
0.00759938
0.00706934
0.00660371
0.0061952
0.0058337
0.00551072
0.0052203
0.00495806
0.00472055
0.00450493
0.00430887
0.00413046
0.00396814
0.00382062
0.00368683
0.00356588
0.00345703
0.00335967
0.00327327
0.00319741
0.0031317
0.00307584
0.00302955
0.00299257
0.00296467
0.00294564
0.00293526
0.00293334
0.00293969
0.00295421
0.00297691
0.00300795
0.00304806
0.00309839
0.00316161
0.00324136
0.00334397
0.00347642
0.00364645
0.0038575
0.0342162
0.0280384
0.0203501
0.0156437
0.0137241
0.0124811
0.0111313
0.00990237
0.00896847
0.00825256
0.00764809
0.0071146
0.00664495
0.00623266
0.00586799
0.0055423
0.00524943
0.00498495
0.00474538
0.00452784
0.00432997
0.00414984
0.00398586
0.00383673
0.00370134
0.00357881
0.00346836
0.00336936
0.0032813
0.0032037
0.0031362
0.00307846
0.00303018
0.00299111
0.00296099
0.00293963
0.00292677
0.00292225
0.0029259
0.00293761
0.00295744
0.00298561
0.00302288
0.00307045
0.00313089
0.00320768
0.0033064
0.00343319
0.00359419
0.00379185
0.0329384
0.0274969
0.0204156
0.015785
0.0137644
0.0125171
0.0112027
0.00997878
0.00903063
0.00830455
0.00769611
0.00715958
0.00668618
0.0062702
0.0059024
0.00557402
0.00527873
0.00501202
0.00477038
0.00455091
0.00435122
0.00416935
0.00400369
0.00385291
0.0037159
0.00359174
0.00347965
0.00337899
0.00328921
0.00320984
0.00314049
0.00308081
0.00303049
0.00298926
0.00295687
0.00293309
0.0029177
0.00291051
0.00291136
0.00292017
0.00293703
0.0029622
0.00299645
0.00304104
0.00309836
0.00317173
0.00326602
0.00338653
0.00353814
0.00372245
0.0317249
0.0269348
0.0204373
0.0159129
0.0138036
0.0125456
0.0112665
0.0100525
0.00909226
0.00835584
0.00774334
0.00720414
0.0067273
0.00630775
0.00593685
0.00560582
0.00530815
0.00503923
0.00479552
0.00457411
0.00437259
0.00418897
0.00402161
0.00386916
0.00373049
0.00360467
0.00349091
0.00338854
0.003297
0.00321581
0.00314455
0.00308287
0.00303045
0.00298701
0.00295228
0.00292602
0.00290801
0.00289806
0.00289603
0.00290185
0.00291563
0.00293766
0.00296872
0.00301007
0.00306394
0.00313342
0.00322274
0.00333643
0.0034783
0.00364928
0.030573
0.0263573
0.0204162
0.016025
0.0138415
0.0125675
0.0113223
0.0101227
0.00915311
0.00840639
0.00778967
0.00724813
0.00676822
0.00634526
0.00597132
0.00563767
0.00533765
0.00506654
0.00482077
0.00459743
0.00439406
0.00420867
0.00403958
0.00388544
0.00374509
0.00361758
0.0035021
0.00339798
0.00330463
0.00322157
0.00314836
0.00308463
0.00303005
0.00298433
0.00294718
0.00291837
0.00289767
0.00288488
0.00287988
0.0028826
0.00289318
0.00291192
0.0029396
0.00297744
0.00302753
0.00309267
0.00317652
0.00328287
0.00341467
0.00357233
0.0294794
0.025769
0.0203538
0.0161191
0.013878
0.0125834
0.0113699
0.0101888
0.00921285
0.00845614
0.007835
0.00729141
0.00680882
0.00638265
0.00600573
0.00566952
0.00536718
0.00509391
0.00484611
0.00462082
0.00441561
0.00422843
0.0040576
0.00390173
0.00375967
0.00363044
0.00351321
0.0034073
0.0033121
0.00322711
0.00315189
0.00308606
0.00302926
0.00298118
0.00294156
0.00291012
0.00288664
0.00287093
0.00286286
0.00286238
0.00286962
0.00288492
0.00290901
0.00294309
0.00298904
0.0030494
0.00312729
0.00322584
0.00334727
0.00349154
0.0284413
0.0251743
0.0202525
0.0161935
0.0139123
0.0125941
0.0114094
0.01025
0.00927107
0.008505
0.00787925
0.00733384
0.00684897
0.00641983
0.00604002
0.0057013
0.00539671
0.00512132
0.00487148
0.00464427
0.0044372
0.00424822
0.00407563
0.00391802
0.00377422
0.00364323
0.00352421
0.00341646
0.00331937
0.00323241
0.00315513
0.00308712
0.00302804
0.00297755
0.00293537
0.00290123
0.00287489
0.00285617
0.00284492
0.00284113
0.0028449
0.00285659
0.00287689
0.00290692
0.0029484
0.00300355
0.00307503
0.00316534
0.00327609
0.00340692
0.0274554
0.0245769
0.0201145
0.0162465
0.0139434
0.0126002
0.0114407
0.0103057
0.0093273
0.00855286
0.00792235
0.00737527
0.00688854
0.00645671
0.00607414
0.00573296
0.00542616
0.00514869
0.00489686
0.00466772
0.0044588
0.00426801
0.00409365
0.00393428
0.0037887
0.00365592
0.00353508
0.00342545
0.00332642
0.00323743
0.00315803
0.0030878
0.00302637
0.0029734
0.00292859
0.00289166
0.00286238
0.00284055
0.00282603
0.0028188
0.00281897
0.00282687
0.00284316
0.00286887
0.00290552
0.00295506
0.00301968
0.00310135
0.00320115
0.00331844
0.0265188
0.0239802
0.019943
0.0162769
0.0139701
0.0126022
0.0114642
0.0103553
0.00938101
0.00859956
0.00796422
0.00741557
0.00692737
0.00649319
0.00610799
0.00576443
0.00545549
0.00517599
0.0049222
0.00469115
0.00448038
0.00428778
0.00411162
0.00395047
0.0038031
0.00366849
0.00354579
0.00343424
0.00333322
0.00324216
0.00316059
0.00308807
0.00302422
0.0029687
0.00292118
0.00288139
0.00284908
0.00282404
0.00280614
0.00279534
0.00279176
0.00279569
0.00280775
0.00282886
0.00286035
0.00290388
0.00296122
0.00303387
0.00312246
0.0032261
0.0256285
0.0233871
0.0197409
0.0162839
0.013991
0.0126005
0.0114803
0.0103985
0.00943167
0.00864489
0.00800479
0.00745461
0.00696533
0.00652914
0.00614151
0.00579565
0.00548463
0.00520316
0.00494744
0.00471451
0.00450189
0.00430748
0.00412952
0.00396656
0.00381737
0.00368091
0.00355631
0.0034428
0.00333974
0.00324656
0.00316275
0.00308789
0.00302156
0.00296341
0.00291311
0.00287037
0.00283494
0.00280659
0.0027852
0.00277071
0.00276322
0.002763
0.00277059
0.00278682
0.00281282
0.00284995
0.00289963
0.00296291
0.00304004
0.00312992
0.0247816
0.0228001
0.0195115
0.016267
0.0140047
0.0125954
0.0114894
0.0104348
0.00947869
0.00868856
0.00804397
0.00749229
0.00700226
0.00656445
0.0061746
0.00582654
0.00551351
0.00523014
0.00497254
0.00473775
0.0045233
0.00432707
0.00414731
0.00398252
0.00383149
0.00369315
0.00356661
0.0034511
0.00334596
0.0032506
0.00316451
0.00308723
0.00301835
0.0029575
0.00290435
0.00285858
0.00281992
0.00278817
0.00276317
0.00274485
0.00273329
0.00272874
0.00273164
0.0027427
0.00276288
0.00279326
0.00283491
0.00288849
0.00295393
0.00302993
0.0239753
0.0222211
0.0192582
0.0162262
0.0140097
0.0125866
0.0114919
0.010464
0.00952153
0.00873027
0.00808167
0.00752849
0.00703799
0.00659896
0.00620715
0.00585702
0.00554207
0.00525686
0.00499744
0.00476082
0.00454455
0.00434652
0.00416494
0.00399832
0.00384542
0.00370517
0.00357666
0.00345911
0.00335184
0.00325425
0.00316581
0.00308606
0.00301457
0.00295095
0.00289485
0.00284596
0.002804
0.00276873
0.00274
0.00271772
0.00270194
0.00269284
0.00269082
0.00269645
0.00271049
0.00273377
0.00276704
0.00281064
0.00286417
0.0029262
0.0232071
0.0216519
0.0189843
0.0161618
0.0140044
0.0125741
0.0114884
0.0104862
0.00955966
0.00876963
0.00811775
0.00756312
0.0070724
0.00663253
0.00623906
0.00588701
0.00557022
0.00528325
0.00502207
0.00478367
0.0045656
0.00436577
0.00418237
0.00401391
0.00385913
0.00371694
0.00358643
0.0034668
0.00335735
0.00325748
0.00316664
0.00308435
0.00301018
0.00294371
0.0028846
0.0028325
0.00278713
0.00274824
0.00271565
0.00268927
0.00266909
0.00265527
0.00264809
0.00264802
0.00265562
0.00267148
0.00269606
0.00272939
0.00277083
0.00281878
0.0224745
0.0210936
0.0186929
0.0160746
0.0139877
0.0125574
0.0114793
0.0105013
0.00959262
0.00880625
0.00815203
0.00759607
0.00710533
0.00666502
0.0062702
0.00591641
0.00559789
0.00530924
0.00504637
0.00480624
0.0045864
0.00438478
0.00419957
0.00402926
0.00387257
0.00372842
0.00359587
0.00347412
0.00336245
0.00326025
0.00316696
0.00308207
0.00300514
0.00293576
0.00287354
0.00281814
0.00276926
0.00272664
0.00269008
0.00265945
0.00263472
0.00261598
0.00260342
0.00259738
0.00259825
0.00260639
0.00262199
0.00264482
0.00267399
0.0027078
0.0217751
0.0205473
0.0183871
0.0159656
0.0139585
0.0125359
0.0114649
0.0105094
0.00962003
0.00883968
0.00818433
0.00762724
0.00713665
0.00669626
0.00630044
0.00594512
0.00562498
0.00533474
0.00507026
0.00482845
0.00460689
0.0044035
0.00421647
0.00404431
0.0038857
0.00373957
0.00360496
0.00348105
0.00336712
0.00326253
0.00316672
0.00307917
0.00299942
0.00292704
0.00286164
0.00280286
0.00275038
0.00270392
0.00266325
0.00262824
0.00259879
0.00257492
0.00255677
0.00254451
0.00253837
0.00253852
0.00254487
0.00255698
0.00257375
0.00259337
0.0211069
0.0200136
0.0180697
0.0158361
0.0139159
0.012509
0.0114455
0.0105109
0.00964157
0.00886949
0.00821438
0.00765652
0.00716624
0.00672609
0.00632965
0.00597304
0.00565142
0.00535969
0.00509367
0.00485025
0.004627
0.00442186
0.00423304
0.00405902
0.00389849
0.00375035
0.00361364
0.00348753
0.0033713
0.00326428
0.0031659
0.00307563
0.00299299
0.00291754
0.00284888
0.00278662
0.00273043
0.00268002
0.00263513
0.00259558
0.00256124
0.00253208
0.0025081
0.00248939
0.002476
0.00246789
0.00246477
0.00246598
0.00247025
0.00247565
0.0204677
0.0194928
0.0177433
0.0156875
0.0138596
0.0124758
0.011421
0.0105059
0.00965705
0.00889527
0.00824192
0.00768378
0.00719396
0.00675438
0.00635767
0.00600005
0.00567711
0.00538399
0.00511652
0.00487157
0.00464668
0.00443982
0.00424921
0.00407333
0.00391087
0.0037607
0.00362188
0.00349354
0.00337496
0.00326546
0.00316446
0.00307141
0.00298581
0.00290722
0.0028352
0.00276938
0.00270939
0.00265491
0.00260568
0.00256145
0.00252207
0.00248742
0.00245742
0.00243204
0.00241115
0.00239456
0.00238177
0.00237193
0.00236362
0.00235483
0.0198557
0.0189853
0.01741
0.0155215
0.0137892
0.0124356
0.0113916
0.0104947
0.00966634
0.00891662
0.00826664
0.00770885
0.00721972
0.00678097
0.00638436
0.00602602
0.00570194
0.00540754
0.00513873
0.00489231
0.00466585
0.00445731
0.00426493
0.0040872
0.0039228
0.0037706
0.00362963
0.00349903
0.00337806
0.00326604
0.00316236
0.00306647
0.00297785
0.00289604
0.0028206
0.00275112
0.00268722
0.00262858
0.00257487
0.00252583
0.00248125
0.00244094
0.00240473
0.00237245
0.00234387
0.00231859
0.00229596
0.00227496
0.00225405
0.00223112
0.0192692
0.0184911
0.017072
0.0153399
0.0137048
0.0123878
0.0113571
0.0104775
0.00966941
0.00893321
0.00828822
0.00773157
0.00724337
0.00680571
0.00640955
0.0060508
0.0057258
0.00543027
0.0051602
0.00491241
0.00468443
0.00447425
0.00428014
0.00410057
0.00393422
0.00377997
0.00363684
0.00350396
0.00338057
0.00326598
0.00315957
0.00306077
0.00296907
0.00288397
0.00280502
0.0027318
0.00266391
0.00260098
0.00254268
0.0024887
0.00243876
0.00239262
0.00235002
0.00231067
0.0022742
0.00224007
0.00220747
0.00217524
0.00214172
0.00210477
0.0187066
0.0180101
0.0167311
0.0151444
0.0136066
0.0123316
0.0113172
0.0104545
0.00966629
0.00894475
0.00830632
0.00775173
0.00726481
0.00682848
0.0064331
0.00607428
0.00574857
0.00545206
0.00518085
0.00493177
0.00470235
0.00449059
0.00429477
0.00411337
0.00394509
0.00378879
0.00364347
0.00350828
0.00338242
0.00326522
0.00315604
0.00305428
0.00295943
0.00287097
0.00278844
0.00271139
0.00263941
0.0025721
0.00250909
0.00245004
0.00239461
0.00234249
0.00229333
0.00224674
0.00220222
0.0021591
0.00211644
0.00207295
0.00202688
0.00197603
0.0181663
0.0175423
0.0163888
0.0149366
0.013495
0.0122666
0.0112717
0.0104259
0.00965707
0.00895102
0.00832062
0.00776911
0.00728387
0.00684913
0.00645486
0.00609629
0.00577014
0.00547281
0.00520058
0.00495032
0.00471953
0.00450624
0.00430875
0.00412555
0.00395534
0.00379698
0.00364947
0.00351193
0.0033836
0.00326374
0.00315173
0.00304697
0.00294891
0.00285702
0.00277084
0.00268988
0.00261372
0.00254192
0.0024741
0.00240985
0.0023488
0.00229055
0.00223469
0.00218072
0.00212802
0.00207581
0.00202303
0.00196829
0.00190976
0.00184523
0.0176472
0.0170874
0.0160463
0.0147184
0.0133708
0.0121924
0.0112203
0.0103917
0.00964183
0.00895185
0.00833083
0.00778346
0.00730043
0.00686754
0.00647468
0.00611669
0.00579037
0.00549241
0.0052193
0.00496795
0.00473589
0.00452114
0.00432201
0.00413704
0.00396491
0.00380449
0.00365478
0.00351489
0.00338403
0.00326149
0.00314662
0.0030388
0.00293747
0.0028421
0.00275218
0.00266724
0.00258681
0.00251044
0.00243769
0.00236814
0.00230135
0.00223685
0.00217416
0.00211268
0.00205171
0.00199035
0.00192743
0.00186149
0.00179066
0.00171268
0.0171477
0.016645
0.0157049
0.0144913
0.0132347
0.0121089
0.0111626
0.010352
0.00962072
0.00894715
0.00833667
0.00779455
0.00731431
0.00688358
0.00649241
0.00613533
0.00580913
0.00551074
0.00523689
0.00498457
0.00475133
0.00453518
0.00433449
0.00414777
0.00397375
0.00381128
0.00365935
0.00351709
0.0033837
0.00325844
0.00314066
0.00302973
0.00292508
0.00282616
0.00273246
0.00264346
0.00255868
0.00247765
0.00239989
0.00232493
0.00225229
0.00218144
0.00211181
0.00204274
0.00197342
0.00190287
0.00182984
0.00175282
0.00166986
0.00157874
0.016667
0.016215
0.0153655
0.0142568
0.0130875
0.012016
0.0110983
0.0103067
0.00959382
0.00893687
0.00833791
0.00780211
0.00732534
0.00689712
0.00650792
0.00615207
0.00582628
0.00552768
0.00525325
0.00500009
0.00476576
0.00454831
0.00434609
0.00415768
0.00398178
0.00381726
0.00366313
0.00351849
0.00338254
0.00325453
0.00313381
0.00301974
0.00291172
0.0028092
0.00271164
0.00261852
0.00252932
0.00244355
0.00236069
0.00228024
0.00220166
0.00212437
0.00204773
0.00197101
0.00189331
0.00181358
0.00173051
0.00164254
0.0015477
0.00144379
0.0162037
0.015797
0.0150288
0.0140162
0.0129302
0.0119139
0.0110272
0.0102558
0.00956124
0.00892101
0.00833438
0.00780592
0.00733333
0.006908
0.00652108
0.00616676
0.00584168
0.00554312
0.00526828
0.00501439
0.00477909
0.00456041
0.00435675
0.00416668
0.00398894
0.0038224
0.00366607
0.00351904
0.00338051
0.00324974
0.00312604
0.00300879
0.00289736
0.00279119
0.00268973
0.00259242
0.00249874
0.00240816
0.00232013
0.00223412
0.00214952
0.00206573
0.00198202
0.00189761
0.00181154
0.00172269
0.00162969
0.00153096
0.00142453
0.00130823
0.015757
0.0153907
0.0146955
0.0137708
0.0127637
0.0118028
0.0109491
0.0101993
0.00952306
0.00889958
0.00832592
0.00780575
0.00733809
0.0069161
0.00653174
0.00617926
0.00585518
0.00555691
0.00528185
0.00502739
0.00479122
0.00457142
0.00436638
0.00417471
0.00399516
0.00382662
0.0036681
0.00351868
0.00337757
0.00324402
0.00311733
0.00299686
0.00288198
0.00277212
0.0026667
0.00256516
0.00246695
0.0023715
0.00227825
0.00218661
0.00209595
0.00200561
0.00191481
0.00182271
0.0017283
0.00163042
0.00152765
0.0014184
0.00130073
0.00117249
0.015326
0.0149956
0.0143661
0.0135218
0.0125892
0.011683
0.010864
0.0101369
0.00947932
0.00887263
0.00831243
0.0078014
0.00733943
0.00692126
0.00653979
0.00618943
0.00586665
0.00556893
0.00529385
0.00503897
0.00480207
0.00458123
0.0043749
0.00418169
0.00400038
0.00382987
0.00366917
0.00351737
0.00337368
0.00323733
0.00310763
0.00298392
0.00286557
0.00275199
0.00264257
0.00253676
0.00243396
0.0023336
0.00223508
0.00213778
0.00204104
0.00194412
0.00184624
0.00174649
0.00164382
0.00153703
0.0014247
0.00130522
0.00117669
0.00103701
0.0149098
0.0146115
0.0140411
0.0132701
0.0124075
0.0115551
0.0107718
0.0100686
0.00943008
0.00884022
0.00829386
0.0077927
0.00733717
0.00692333
0.00654509
0.00619715
0.00587596
0.00557905
0.00530417
0.00504903
0.00481151
0.00458976
0.00438222
0.00418754
0.00400452
0.00383208
0.00366922
0.00351506
0.00336879
0.00322964
0.00309692
0.00296995
0.00284811
0.00273077
0.00261734
0.00250722
0.00239981
0.00229451
0.0021907
0.00208772
0.00198487
0.0018814
0.00177647
0.00166913
0.00155832
0.0014428
0.00132115
0.00119178
0.00105281
0.00090225
0.0145075
0.0142381
0.0137207
0.0130167
0.0122195
0.0114195
0.0106726
0.0099944
0.00937535
0.00880239
0.00827017
0.00777952
0.00733112
0.00692216
0.00654751
0.00620228
0.00588297
0.00558714
0.00531268
0.00505746
0.00481947
0.00459691
0.00438826
0.00419219
0.00400752
0.00383318