/*--------------------------------*- C++ -*----------------------------------*\
  =========                 |
  \\      /  F ield         | OpenFOAM: The Open Source CFD Toolbox
   \\    /   O peration     | Website:  https://openfoam.org
    \\  /    A nd           | Version:  7
     \\/     M anipulation  |
\*---------------------------------------------------------------------------*/
FoamFile
{
    version     2.0;
    format      ascii;
    class       surfaceScalarField;
    location    "0.05";
    object      phi;
}
// * * * * * * * * * * * * * * * * * * * * * * * * * * * * * * * * * * * * * //

dimensions      [0 3 -1 0 0 0 0];

internalField   nonuniform List<scalar> 
139350
(
6.45117e-08
9.21198e-08
3.19632e-08
3.25485e-08
2.30561e-08
8.90712e-09
1.95689e-08
3.48726e-09
1.76139e-08
1.95498e-09
1.61801e-08
1.43383e-09
1.5043e-08
1.13708e-09
1.4126e-08
9.16981e-10
1.33704e-08
7.55545e-10
1.2733e-08
6.37426e-10
1.21849e-08
5.48093e-10
1.17068e-08
4.78088e-10
1.1285e-08
4.21819e-10
1.09093e-08
3.75768e-10
1.05717e-08
3.37533e-10
1.02663e-08
3.05394e-10
9.98823e-09
2.78091e-10
9.73356e-09
2.54678e-10
9.49912e-09
2.34439e-10
9.2823e-09
2.1682e-10
9.08091e-09
2.0139e-10
8.8931e-09
1.87807e-10
8.7173e-09
1.75798e-10
8.55216e-09
1.65143e-10
8.3965e-09
1.55661e-10
8.24929e-09
1.47205e-10
8.10964e-09
1.39653e-10
7.97674e-09
1.32905e-10
7.84986e-09
1.26871e-10
7.72837e-09
1.2149e-10
7.61169e-09
1.16685e-10
7.49926e-09
1.12433e-10
7.39061e-09
1.08645e-10
7.28525e-09
1.05358e-10
7.18283e-09
1.02426e-10
7.08283e-09
9.99935e-11
6.98506e-09
9.77784e-11
6.88894e-09
9.61138e-11
6.79444e-09
9.44982e-11
6.70097e-09
9.34704e-11
6.60856e-09
9.24094e-11
6.51695e-09
9.16149e-11
6.42555e-09
9.13985e-11
6.33614e-09
8.94073e-11
6.24449e-09
9.16546e-11
6.16123e-09
8.32621e-11
6.06534e-09
9.58866e-11
6.0154e-09
4.99372e-11
5.79863e-09
2.16775e-10
-2.661e-09
8.45963e-09
1.25943e-07
1.27621e-07
9.12869e-08
6.72041e-08
7.19298e-08
2.82643e-08
6.12081e-08
1.42089e-08
5.4764e-08
8.39911e-09
5.02596e-08
5.93819e-09
4.67642e-08
4.63257e-09
4.39385e-08
3.74268e-09
4.16019e-08
3.09211e-09
3.96291e-08
2.61025e-09
3.79328e-08
2.24434e-09
3.64532e-08
1.95774e-09
3.51474e-08
1.72755e-09
3.3984e-08
1.53917e-09
3.29388e-08
1.38272e-09
3.19931e-08
1.25116e-09
3.11318e-08
1.13933e-09
3.03431e-08
1.0434e-09
2.96171e-08
9.60422e-10
2.89458e-08
8.88145e-10
2.83224e-08
8.24804e-10
2.77412e-08
7.69005e-10
2.71974e-08
7.1963e-10
2.66867e-08
6.75778e-10
2.62057e-08
6.36715e-10
2.57511e-08
6.01834e-10
2.53201e-08
5.70637e-10
2.49103e-08
5.42711e-10
2.45194e-08
5.17701e-10
2.41456e-08
4.95331e-10
2.37869e-08
4.75329e-10
2.34418e-08
4.57541e-10
2.31088e-08
4.41701e-10
2.27863e-08
4.2782e-10
2.24732e-08
4.15505e-10
2.21682e-08
4.05085e-10
2.18702e-08
3.95763e-10
2.15777e-08
3.88531e-10
2.12906e-08
3.81663e-10
2.10066e-08
3.77447e-10
2.07266e-08
3.72392e-10
2.04474e-08
3.70862e-10
2.01719e-08
3.66925e-10
1.98947e-08
3.66516e-10
1.96224e-08
3.63972e-10
1.93491e-08
3.56576e-10
1.90772e-08
3.67752e-10
1.88533e-08
2.7384e-10
1.84831e-08
5.87064e-10
-3.111e-09
1.89331e-08
1.58752e-07
1.35272e-07
1.36524e-07
8.94317e-08
1.17486e-07
4.73027e-08
1.03301e-07
2.83938e-08
9.32972e-08
1.84029e-08
8.59852e-08
1.32502e-08
8.02639e-08
1.03538e-08
7.55972e-08
8.40937e-09
7.17028e-08
6.9865e-09
6.83932e-08
5.91992e-09
6.55349e-08
5.1026e-09
6.30333e-08
4.45933e-09
6.08199e-08
3.94101e-09
5.88433e-08
3.5157e-09
5.70644e-08
3.16162e-09
5.54523e-08
2.86325e-09
5.39825e-08
2.60917e-09
5.26351e-08
2.39082e-09
5.13938e-08
2.20167e-09
5.02453e-08
2.03667e-09
4.91782e-08
1.89189e-09
4.81831e-08
1.76417e-09
4.72517e-08
1.651e-09
4.63771e-08
1.55036e-09
4.55532e-08
1.46059e-09
4.47748e-08
1.3803e-09
4.4037e-08
1.30838e-09
4.33359e-08
1.24388e-09
4.26675e-08
1.18601e-09
4.20288e-08
1.13412e-09
4.14165e-08
1.08762e-09
4.08279e-08
1.04611e-09
4.02605e-08
1.00908e-09
3.97119e-08
9.7641e-10
3.918e-08
9.47421e-10
3.86625e-08
9.22578e-10
3.81578e-08
9.00458e-10
3.76635e-08
8.82882e-10
3.71787e-08
8.66384e-10
3.67002e-08
8.56005e-10
3.62293e-08
8.43322e-10
3.57595e-08
8.40575e-10
3.52979e-08
8.28596e-10
3.48306e-08
8.33758e-10
3.43767e-08
8.179e-10
3.39091e-08
8.24201e-10
3.34625e-08
8.14333e-10
3.30357e-08
7.00643e-10
3.25936e-08
1.0292e-09
-2.54493e-09
3.20275e-08
1.75611e-07
1.31177e-07
1.65622e-07
9.94209e-08
1.52729e-07
6.01954e-08
1.40112e-07
4.10107e-08
1.29421e-07
2.9094e-08
1.20769e-07
2.19029e-08
1.1364e-07
1.74823e-08
1.07641e-07
1.44087e-08
1.0252e-07
1.21069e-08
9.80964e-08
1.0344e-08
9.4229e-08
8.97001e-09
9.08126e-08
7.87565e-09
8.77676e-08
6.98607e-09
8.50323e-08
6.251e-09
8.25584e-08
5.63549e-09
8.03074e-08
5.11426e-09
7.8248e-08
4.66853e-09
7.63548e-08
4.28409e-09
7.46064e-08
3.95e-09
7.29853e-08
3.65776e-09
7.14766e-08
3.40064e-09
7.00675e-08
3.17329e-09
6.87471e-08
2.9714e-09
6.7506e-08
2.79147e-09
6.63359e-08
2.63062e-09
6.52298e-08
2.48648e-09
6.41811e-08
2.35709e-09
6.31842e-08
2.24078e-09
6.2234e-08
2.13618e-09
6.1326e-08
2.04214e-09
6.04559e-08
1.95766e-09
5.96201e-08
1.88197e-09
5.88149e-08
1.81425e-09
5.80371e-08
1.75418e-09
5.72838e-08
1.70075e-09
5.65519e-08
1.6545e-09
5.5839e-08
1.61332e-09
5.5142e-08
1.57993e-09
5.44595e-08
1.54884e-09
5.37872e-08
1.52838e-09
5.31264e-08
1.50409e-09
5.24689e-08
1.49809e-09
5.1823e-08
1.47442e-09
5.1171e-08
1.48579e-09
5.05368e-08
1.45211e-09
4.98846e-08
1.47641e-09
4.92614e-08
1.43757e-09
4.86403e-08
1.3217e-09
4.80821e-08
1.58738e-09
-1.60258e-09
4.71398e-08
1.8451e-07
1.23452e-07
1.8234e-07
1.01591e-07
1.76117e-07
6.64182e-08
1.67753e-07
4.93744e-08
1.59124e-07
3.77233e-08
1.51205e-07
2.98218e-08
1.44116e-07
2.45716e-08
1.37796e-07
2.07284e-08
1.32173e-07
1.77298e-08
1.27163e-07
1.53539e-08
1.22681e-07
1.34528e-08
1.18649e-07
1.19077e-08
1.15003e-07
1.06318e-08
1.1169e-07
9.56424e-09
1.08664e-07
8.66092e-09
1.05889e-07
7.88927e-09
1.03333e-07
7.2245e-09
1.0097e-07
6.64747e-09
9.87765e-08
6.14325e-09
9.67343e-08
5.70002e-09
9.48265e-08
5.30838e-09
9.30391e-08
4.96073e-09
9.13595e-08
4.65092e-09
8.97771e-08
4.3739e-09
8.82823e-08
4.12548e-09
8.68665e-08
3.90221e-09
8.55224e-08
3.7012e-09
8.42432e-08
3.51999e-09
8.30228e-08
3.35656e-09
8.18558e-08
3.20918e-09
8.07371e-08
3.07637e-09
7.96621e-08
2.95695e-09
7.86266e-08
2.84974e-09
7.76266e-08
2.75417e-09
7.66585e-08
2.66887e-09
7.57186e-08
2.59441e-09
7.48039e-08
2.52799e-09
7.39107e-08
2.47318e-09
7.3037e-08
2.42248e-09
7.21779e-08
2.38749e-09
7.13343e-08
2.34768e-09
7.04974e-08
2.33503e-09
6.96748e-08
2.29699e-09
6.88488e-08
2.31183e-09
6.8041e-08
2.25983e-09
6.72194e-08
2.29803e-09
6.64231e-08
2.23391e-09
6.56319e-08
2.11293e-09
6.49081e-08
2.31114e-09
-4.86171e-10
6.37917e-08
1.90342e-07
1.15326e-07
1.91859e-07
1.00075e-07
1.9026e-07
6.80165e-08
1.86151e-07
5.34839e-08
1.80704e-07
4.31698e-08
1.74941e-07
3.5585e-08
1.69229e-07
3.02835e-08
1.63726e-07
2.62318e-08
1.58528e-07
2.29273e-08
1.53679e-07
2.02035e-08
1.4918e-07
1.79515e-08
1.45016e-07
1.60719e-08
1.41162e-07
1.44856e-08
1.37592e-07
1.31338e-08
1.34281e-07
1.19724e-08
1.31203e-07
1.09673e-08
1.28336e-07
1.00917e-08
1.25659e-07
9.32443e-09
1.23154e-07
8.64832e-09
1.20804e-07
8.04962e-09
1.18595e-07
7.51716e-09
1.16514e-07
7.04177e-09
1.14549e-07
6.6159e-09
1.1269e-07
6.23326e-09
1.10927e-07
5.88864e-09
1.09251e-07
5.57762e-09
1.07656e-07
5.29651e-09
1.06134e-07
5.04216e-09
1.04678e-07
4.81193e-09
1.03284e-07
4.60355e-09
1.01945e-07
4.4151e-09
1.00657e-07
4.24498e-09
9.94153e-08
4.0917e-09
9.8215e-08
3.95438e-09
9.70526e-08
3.83136e-09
9.59238e-08
3.72317e-09
9.48254e-08
3.62643e-09
9.37531e-08
3.54539e-09
9.27048e-08
3.47082e-09
9.16752e-08
3.41706e-09
9.06644e-08
3.35852e-09
8.96642e-08
3.33522e-09
8.86798e-08
3.28138e-09
8.7697e-08
3.29466e-09
8.67298e-08
3.22697e-09
8.57585e-08
3.26932e-09
8.48014e-08
3.19101e-09
8.38633e-08
3.05104e-09
8.29716e-08
3.20285e-09
7.77336e-10
8.17081e-08
1.95504e-07
1.07637e-07
1.98247e-07
9.73324e-08
1.98984e-07
6.7279e-08
1.97787e-07
5.4681e-08
1.95147e-07
4.58096e-08
1.91799e-07
3.89335e-08
1.88054e-07
3.40281e-08
1.84086e-07
3.01998e-08
1.80045e-07
2.69682e-08
1.76042e-07
2.42072e-08
1.72143e-07
2.18499e-08
1.68389e-07
1.98263e-08
1.64799e-07
1.80757e-08
1.61381e-07
1.65512e-08
1.58137e-07
1.52165e-08
1.55062e-07
1.40423e-08
1.52149e-07
1.30046e-08
1.4939e-07
1.20837e-08
1.46775e-07
1.12631e-08
1.44296e-07
1.05293e-08
1.41942e-07
9.87089e-09
1.39705e-07
9.27843e-09
1.37577e-07
8.74391e-09
1.3555e-07
8.26056e-09
1.33616e-07
7.82267e-09
1.31768e-07
7.42533e-09
1.3e-07
7.0644e-09
1.28306e-07
6.73628e-09
1.2668e-07
6.43794e-09
1.25117e-07
6.16672e-09
1.23612e-07
5.92042e-09
1.2216e-07
5.69711e-09
1.20756e-07
5.49508e-09
1.19397e-07
5.31322e-09
1.18079e-07
5.14964e-09
1.16797e-07
5.00483e-09
1.15549e-07
4.87498e-09
1.1433e-07
4.76482e-09
1.13136e-07
4.66388e-09
1.11965e-07
4.58841e-09
1.10814e-07
4.50935e-09
1.09678e-07
4.47194e-09
1.08557e-07
4.40229e-09
1.07443e-07
4.40852e-09
1.0634e-07
4.32949e-09
1.05244e-07
4.36519e-09
1.04151e-07
4.28425e-09
1.03087e-07
4.11541e-09
1.02054e-07
4.23532e-09
2.17089e-09
1.00661e-07
2.00819e-07
1.00403e-07
2.03771e-07
9.43804e-08
2.05344e-07
6.57063e-08
2.05643e-07
5.43818e-08
2.04809e-07
4.66439e-08
2.03323e-07
4.04194e-08
2.01365e-07
3.59856e-08
1.99021e-07
3.25442e-08
1.96396e-07
2.95928e-08
1.93594e-07
2.70094e-08
1.90695e-07
2.47493e-08
1.87758e-07
2.27627e-08
1.84829e-07
2.10047e-08
1.8194e-07
1.94409e-08
1.79111e-07
1.80448e-08
1.76359e-07
1.67946e-08
1.73692e-07
1.56718e-08
1.71115e-07
1.46608e-08
1.6863e-07
1.37482e-08
1.66236e-07
1.29223e-08
1.63934e-07
1.21735e-08
1.61719e-07
1.14931e-08
1.59589e-07
1.08738e-08
1.5754e-07
1.03094e-08
1.55569e-07
9.79437e-09
1.5367e-07
9.32388e-09
1.51841e-07
8.89386e-09
1.50076e-07
8.50068e-09
1.48373e-07
8.14126e-09
1.46727e-07
7.81284e-09
1.45134e-07
7.51316e-09
1.43591e-07
7.24017e-09
1.42094e-07
6.99207e-09
1.4064e-07
6.76766e-09
1.39224e-07
6.56497e-09
1.37845e-07
6.38447e-09
1.36498e-07
6.22215e-09
1.35179e-07
6.08301e-09
1.33887e-07
5.95591e-09
1.32618e-07
5.85813e-09
1.31368e-07
5.75891e-09
1.30134e-07
5.70566e-09
1.28915e-07
5.62178e-09
1.27706e-07
5.61694e-09
1.26505e-07
5.53139e-09
1.25317e-07
5.55256e-09
1.24124e-07
5.47701e-09
1.22961e-07
5.27914e-09
1.21824e-07
5.3724e-09
3.65583e-09
1.20339e-07
2.06423e-07
9.35121e-08
2.09331e-07
9.1472e-08
2.11055e-07
6.39822e-08
2.11934e-07
5.35029e-08
2.11994e-07
4.65838e-08
2.11604e-07
4.08092e-08
2.10867e-07
3.67225e-08
2.09786e-07
3.36258e-08
2.08398e-07
3.09807e-08
2.06762e-07
2.86455e-08
2.04933e-07
2.65783e-08
2.0296e-07
2.47357e-08
2.00885e-07
2.30793e-08
1.98744e-07
2.15815e-08
1.96567e-07
2.02221e-08
1.94376e-07
1.89851e-08
1.92191e-07
1.78573e-08
1.90025e-07
1.68271e-08
1.87888e-07
1.58846e-08
1.85789e-07
1.50213e-08
1.83733e-07
1.42294e-08
1.81724e-07
1.35023e-08
1.79764e-07
1.28341e-08
1.77854e-07
1.22197e-08
1.75994e-07
1.16543e-08
1.74184e-07
1.1134e-08
1.72423e-07
1.0655e-08
1.70709e-07
1.02143e-08
1.69041e-07
9.80892e-09
1.67418e-07
9.43643e-09
1.65836e-07
9.09472e-09
1.64295e-07
8.78185e-09
1.6279e-07
8.49617e-09
1.61322e-07
8.23652e-09
1.59886e-07
8.00103e-09
1.5848e-07
7.79022e-09
1.57102e-07
7.60009e-09
1.55749e-07
7.4358e-09
1.54419e-07
7.28608e-09
1.53109e-07
7.16844e-09
1.51815e-07
7.05204e-09
1.50537e-07
6.98386e-09
1.4927e-07
6.88912e-09
1.48015e-07
6.87191e-09
1.46762e-07
6.78478e-09
1.45526e-07
6.78817e-09
1.4428e-07
6.72257e-09
1.43056e-07
6.50345e-09
1.41856e-07
6.57231e-09
5.18145e-09
1.4033e-07
2.12269e-07
8.69057e-08
2.1514e-07
8.86012e-08
2.1681e-07
6.2312e-08
2.17848e-07
5.24643e-08
2.18254e-07
4.61782e-08
2.18367e-07
4.06963e-08
2.18285e-07
3.68044e-08
2.17976e-07
3.39344e-08
2.17435e-07
3.15225e-08
2.16678e-07
2.94021e-08
2.1573e-07
2.75261e-08
2.14616e-07
2.585e-08
2.13361e-07
2.43347e-08
2.11989e-07
2.29528e-08
2.10525e-07
2.1686e-08
2.0899e-07
2.05204e-08
2.07402e-07
1.94455e-08
2.05777e-07
1.84522e-08
2.04128e-07
1.75331e-08
2.02468e-07
1.66818e-08
2.00804e-07
1.58927e-08
1.99146e-07
1.51609e-08
1.97498e-07
1.4482e-08
1.95865e-07
1.38522e-08
1.94252e-07
1.32678e-08
1.9266e-07
1.27259e-08
1.91092e-07
1.22234e-08
1.89548e-07
1.17579e-08
1.8803e-07
1.13271e-08
1.86537e-07
1.09289e-08
1.85071e-07
1.05616e-08
1.83629e-07
1.02236e-08
1.82212e-07
9.91349e-09
1.80818e-07
9.63039e-09
1.79446e-07
9.37262e-09
1.78095e-07
9.14088e-09
1.76764e-07
8.93134e-09
1.75451e-07
8.74926e-09
1.74153e-07
8.58364e-09
1.7287e-07
8.45171e-09
1.71598e-07
8.32372e-09
1.70338e-07
8.24435e-09
1.69083e-07
8.14394e-09
1.67839e-07
8.11613e-09
1.66591e-07
8.03265e-09
1.65359e-07
8.01959e-09
1.64115e-07
7.9667e-09
1.6288e-07
7.73873e-09
1.61666e-07
7.78637e-09
6.69191e-09
1.60155e-07
2.18315e-07
8.05718e-08
2.21189e-07
8.57268e-08
2.22782e-07
6.07185e-08
2.23849e-07
5.13974e-08
2.24364e-07
4.5664e-08
2.24654e-07
4.04057e-08
2.24849e-07
3.66094e-08
2.2492e-07
3.38638e-08
2.24845e-07
3.1597e-08
2.24626e-07
2.96217e-08
2.24265e-07
2.78867e-08
2.23769e-07
2.63459e-08
2.23147e-07
2.49572e-08
2.22409e-07
2.3691e-08
2.21567e-07
2.25274e-08
2.20635e-07
2.14523e-08
2.19626e-07
2.04551e-08
2.1855e-07
1.95275e-08
2.1742e-07
1.86628e-08
2.16247e-07
1.78557e-08
2.15038e-07
1.71016e-08
2.13802e-07
1.63967e-08
2.12546e-07
1.57377e-08
2.11277e-07
1.51217e-08
2.09998e-07
1.45462e-08
2.08715e-07
1.40086e-08
2.07432e-07
1.3507e-08
2.0615e-07
1.30395e-08
2.04873e-07
1.26043e-08
2.03602e-07
1.21999e-08
2.02338e-07
1.18251e-08
2.01083e-07
1.14786e-08
1.99837e-07
1.11594e-08
1.98601e-07
1.08668e-08
1.97374e-07
1.05996e-08
1.96156e-07
1.03587e-08
1.94947e-07
1.01404e-08
1.93746e-07
9.95025e-09
1.92552e-07
9.77764e-09
1.91365e-07
9.63923e-09
1.90181e-07
9.50718e-09
1.89003e-07
9.42259e-09
1.87824e-07
9.32309e-09
1.86651e-07
9.28901e-09
1.85469e-07
9.21471e-09
1.84298e-07
9.19011e-09
1.83113e-07
9.15215e-09
1.81922e-07
8.92965e-09
1.80747e-07
8.96144e-09
8.13017e-09
1.79309e-07
2.24548e-07
7.45168e-08
2.27449e-07
8.28263e-08
2.28978e-07
5.91891e-08
2.30052e-07
5.03234e-08
2.30607e-07
4.51094e-08
2.30946e-07
4.00665e-08
2.31231e-07
3.63247e-08
2.3145e-07
3.36447e-08
2.31585e-07
3.14621e-08
2.31634e-07
2.95729e-08
2.31595e-07
2.79248e-08
2.31468e-07
2.64731e-08
2.31251e-07
2.51743e-08
2.30946e-07
2.39964e-08
2.30555e-07
2.29179e-08
2.30084e-07
2.19231e-08
2.29539e-07
2.10006e-08
2.28925e-07
2.01413e-08
2.2825e-07
1.93384e-08
2.27519e-07
1.85864e-08
2.2674e-07
1.7881e-08
2.25918e-07
1.72187e-08
2.25059e-07
1.65966e-08
2.24168e-07
1.60122e-08
2.23251e-07
1.54634e-08
2.22311e-07
1.49484e-08
2.21353e-07
1.44656e-08
2.20379e-07
1.40135e-08
2.19392e-07
1.35909e-08
2.18396e-07
1.31966e-08
2.17391e-07
1.28298e-08
2.1638e-07
1.24896e-08
2.15364e-07
1.21752e-08
2.14344e-07
1.18865e-08
2.13322e-07
1.16222e-08
2.12297e-07
1.13837e-08
2.11269e-07
1.11676e-08
2.1024e-07
1.09794e-08
2.09209e-07
1.08092e-08
2.08175e-07
1.06727e-08
2.07138e-07
1.05447e-08
2.06099e-07
1.04618e-08
2.05051e-07
1.03703e-08
2.04005e-07
1.03356e-08
2.02944e-07
1.02759e-08
2.01887e-07
1.02468e-08
2.00813e-07
1.02258e-08
1.9972e-07
1.00228e-08
1.98635e-07
1.00461e-08
9.4435e-09
1.97322e-07
2.30974e-07
6.87486e-08
2.3391e-07
7.98908e-08
2.35382e-07
5.77166e-08
2.36464e-07
4.92412e-08
2.37052e-07
4.4522e-08
2.37406e-07
3.97126e-08
2.37712e-07
3.60184e-08
2.37977e-07
3.33796e-08
2.38188e-07
3.12516e-08
2.38346e-07
2.94144e-08
2.38454e-07
2.78167e-08
2.3851e-07
2.64173e-08
2.38511e-07
2.51736e-08
2.38454e-07
2.40529e-08
2.3834e-07
2.30325e-08
2.38167e-07
2.20957e-08
2.37937e-07
2.12303e-08
2.37652e-07
2.04264e-08
2.37314e-07
1.96764e-08
2.36926e-07
1.89745e-08
2.36491e-07
1.8316e-08
2.36013e-07
1.76973e-08
2.35494e-07
1.71153e-08
2.34938e-07
1.65677e-08
2.34349e-07
1.60524e-08
2.3373e-07
1.55679e-08
2.33083e-07
1.51126e-08
2.32411e-07
1.46854e-08
2.31717e-07
1.42851e-08
2.31002e-07
1.3911e-08
2.3027e-07
1.35624e-08
2.29521e-07
1.32386e-08
2.28757e-07
1.29391e-08
2.27979e-07
1.26639e-08
2.27189e-07
1.24121e-08
2.26388e-07
1.21851e-08
2.25576e-07
1.19799e-08
2.24753e-07
1.18019e-08
2.2392e-07
1.1642e-08
2.23078e-07
1.15149e-08
2.22225e-07
1.13981e-08
2.21363e-07
1.13232e-08
2.20488e-07
1.12456e-08
2.19607e-07
1.12163e-08
2.18708e-07
1.11753e-08
2.17806e-07
1.11493e-08
2.16884e-07
1.11469e-08
2.15932e-07
1.09752e-08
2.1498e-07
1.09983e-08
1.05905e-08
2.13833e-07
2.37601e-07
6.32729e-08
2.40575e-07
7.6916e-08
2.41991e-07
5.63013e-08
2.4308e-07
4.81518e-08
2.43704e-07
4.38981e-08
2.44071e-07
3.93459e-08
2.44382e-07
3.57067e-08
2.4466e-07
3.31022e-08
2.44893e-07
3.10183e-08
2.45088e-07
2.92195e-08
2.4525e-07
2.7654e-08
2.45382e-07
2.62861e-08
2.4548e-07
2.50751e-08
2.45544e-07
2.39887e-08
2.45573e-07
2.3004e-08
2.45565e-07
2.21042e-08
2.45518e-07
2.12765e-08
2.45434e-07
2.05107e-08
2.45312e-07
1.97989e-08
2.45151e-07
1.91346e-08
2.44954e-07
1.85129e-08
2.44722e-07
1.79299e-08
2.44455e-07
1.73823e-08
2.44155e-07
1.68675e-08
2.43824e-07
1.63836e-08
2.43463e-07
1.59288e-08
2.43074e-07
1.55016e-08
2.42659e-07
1.51008e-08
2.42218e-07
1.47255e-08
2.41754e-07
1.43749e-08
2.41268e-07
1.40483e-08
2.40762e-07
1.37453e-08
2.40236e-07
1.34654e-08
2.39691e-07
1.32088e-08
2.39128e-07
1.29745e-08
2.38549e-07
1.27643e-08
2.37954e-07
1.25752e-08
2.37343e-07
1.24126e-08
2.36717e-07
1.22682e-08
2.36076e-07
1.21552e-08
2.3542e-07
1.20543e-08
2.34752e-07
1.19918e-08
2.34065e-07
1.19323e-08
2.33368e-07
1.19128e-08
2.32651e-07
1.18931e-08
2.31923e-07
1.18767e-08
2.31176e-07
1.18937e-08
2.3039e-07
1.17617e-08
2.29596e-07
1.17927e-08
1.15473e-08
2.28639e-07
2.44436e-07
5.80934e-08
2.47449e-07
7.39028e-08
2.48809e-07
5.49413e-08
2.49901e-07
4.70597e-08
2.50563e-07
4.32359e-08
2.50946e-07
3.89628e-08
2.51262e-07
3.53907e-08
2.51545e-07
3.28195e-08
2.51785e-07
3.07778e-08
2.51991e-07
2.90139e-08
2.5217e-07
2.74745e-08
2.52327e-07
2.61291e-08
2.52463e-07
2.49399e-08
2.52576e-07
2.38753e-08
2.52667e-07
2.29127e-08
2.52736e-07
2.20356e-08
2.52781e-07
2.12314e-08
2.52802e-07
2.04898e-08
2.52798e-07
1.98027e-08
2.52769e-07
1.91635e-08
2.52715e-07
1.85672e-08
2.52635e-07
1.80094e-08
2.52531e-07
1.7487e-08
2.52401e-07
1.69972e-08
2.52247e-07
1.65379e-08
2.52068e-07
1.61071e-08
2.51867e-07
1.57034e-08
2.51642e-07
1.53255e-08
2.51395e-07
1.49725e-08
2.51126e-07
1.46435e-08
2.50837e-07
1.43378e-08
2.50527e-07
1.40552e-08
2.50197e-07
1.3795e-08
2.49848e-07
1.35575e-08
2.49481e-07
1.33418e-08
2.49096e-07
1.31496e-08
2.48693e-07
1.29782e-08
2.48273e-07
1.28327e-08
2.47835e-07
1.27056e-08
2.47382e-07
1.26086e-08
2.46911e-07
1.25254e-08
2.46425e-07
1.24774e-08
2.4592e-07
1.24373e-08
2.45403e-07
1.24302e-08
2.44864e-07
1.24321e-08
2.44311e-07
1.24298e-08
2.43739e-07
1.24659e-08
2.43123e-07
1.23777e-08
2.42492e-07
1.24231e-08
1.23106e-08
2.41729e-07
2.51488e-07
5.32121e-08
2.54529e-07
7.08613e-08
2.55845e-07
5.36258e-08
2.56934e-07
4.59704e-08
2.57634e-07
4.25362e-08
2.58036e-07
3.85606e-08
2.58358e-07
3.50692e-08
2.58646e-07
3.25317e-08
2.58891e-07
3.05323e-08
2.59101e-07
2.88042e-08
2.59285e-07
2.72901e-08
2.5945e-07
2.59646e-08
2.59596e-07
2.47932e-08
2.59727e-07
2.37451e-08
2.59841e-07
2.27982e-08
2.5994e-07
2.19366e-08
2.60024e-07
2.11478e-08
2.60092e-07
2.04217e-08
2.60144e-07
1.97504e-08
2.6018e-07
1.91273e-08
2.602e-07
1.85473e-08
2.60203e-07
1.80062e-08
2.6019e-07
1.75007e-08
2.60159e-07
1.70279e-08
2.60111e-07
1.65857e-08
2.60046e-07
1.61722e-08
2.59964e-07
1.57859e-08
2.59864e-07
1.54253e-08
2.59747e-07
1.50896e-08
2.59612e-07
1.47779e-08
2.59461e-07
1.44893e-08
2.59292e-07
1.42237e-08
2.59107e-07
1.39803e-08
2.58905e-07
1.37596e-08
2.58686e-07
1.35605e-08
2.58451e-07
1.33847e-08
2.58199e-07
1.32297e-08
2.57932e-07
1.31001e-08
2.57648e-07
1.29895e-08
2.57349e-07
1.29078e-08
2.57032e-07
1.28418e-08
2.56702e-07
1.28079e-08
2.56353e-07
1.27865e-08
2.5599e-07
1.27924e-08
2.55608e-07
1.28141e-08
2.5521e-07
1.28282e-08
2.54794e-07
1.28819e-08
2.54334e-07
1.2838e-08
2.53855e-07
1.29025e-08
1.28963e-08
2.53269e-07
2.58766e-07
4.86294e-08
2.61825e-07
6.7802e-08
2.63107e-07
5.23438e-08
2.64189e-07
4.48887e-08
2.64924e-07
4.18012e-08
2.65347e-07
3.81373e-08
2.65675e-07
3.47411e-08
2.65968e-07
3.22385e-08
2.66219e-07
3.02817e-08
2.66432e-07
2.8591e-08
2.66619e-07
2.71031e-08
2.66786e-07
2.57975e-08
2.66936e-07
2.46431e-08
2.67071e-07
2.361e-08
2.67193e-07
2.26767e-08
2.67302e-07
2.18276e-08
2.67399e-07
2.10505e-08
2.67485e-07
2.03358e-08
2.6756e-07
1.96755e-08
2.67624e-07
1.90634e-08
2.67677e-07
1.84943e-08
2.67719e-07
1.79643e-08
2.6775e-07
1.74699e-08
2.67769e-07
1.70085e-08
2.67777e-07
1.65778e-08
2.67773e-07
1.6176e-08
2.67757e-07
1.58016e-08
2.6773e-07
1.54532e-08
2.67689e-07
1.51299e-08
2.67637e-07
1.48307e-08
2.67571e-07
1.45549e-08
2.67492e-07
1.43022e-08
2.67401e-07
1.40719e-08
2.67296e-07
1.38644e-08
2.67178e-07
1.36786e-08
2.67047e-07
1.35162e-08
2.66902e-07
1.33748e-08
2.66743e-07
1.32586e-08
2.6657e-07
1.31621e-08
2.66385e-07
1.30934e-08
2.66184e-07
1.30425e-08
2.65971e-07
1.3021e-08
2.65742e-07
1.30158e-08
2.655e-07
1.30338e-08
2.65242e-07
1.30724e-08
2.64967e-07
1.31032e-08
2.64677e-07
1.31724e-08
2.64344e-07
1.31704e-08
2.6399e-07
1.32564e-08
1.33337e-08
2.63553e-07
2.66278e-07
4.43439e-08
2.69344e-07
6.47356e-08
2.70603e-07
5.10845e-08
2.71673e-07
4.38191e-08
2.7244e-07
4.10341e-08
2.72886e-07
3.76912e-08
2.73222e-07
3.44057e-08
2.7352e-07
3.19397e-08
2.73777e-07
3.00255e-08
2.73994e-07
2.83739e-08
2.74183e-07
2.69137e-08
2.74352e-07
2.56286e-08
2.74504e-07
2.44914e-08
2.7464e-07
2.34734e-08
2.74764e-07
2.25533e-08
2.74875e-07
2.17158e-08
2.74977e-07
2.09493e-08
2.75068e-07
2.02444e-08
2.7515e-07
1.95932e-08
2.75224e-07
1.89898e-08
2.75289e-07
1.84291e-08
2.75346e-07
1.79071e-08
2.75396e-07
1.74207e-08
2.75437e-07
1.69673e-08
2.7547e-07
1.65446e-08
2.75495e-07
1.61509e-08
2.75512e-07
1.57848e-08
2.7552e-07
1.54449e-08
2.7552e-07
1.51302e-08
2.75511e-07
1.484e-08
2.75492e-07
1.45734e-08
2.75464e-07
1.43301e-08
2.75427e-07
1.41095e-08
2.75379e-07
1.39118e-08
2.75322e-07
1.37362e-08
2.75254e-07
1.3584e-08
2.75175e-07
1.34534e-08
2.75086e-07
1.33476e-08
2.74986e-07
1.32625e-08
2.74875e-07
1.32043e-08
2.74752e-07
1.31655e-08
2.74619e-07
1.31542e-08
2.74472e-07
1.31623e-08
2.74315e-07
1.31909e-08
2.74144e-07
1.32431e-08
2.73958e-07
1.32897e-08
2.73758e-07
1.33724e-08
2.7352e-07
1.3408e-08
2.7326e-07
1.35165e-08
1.36584e-08
2.72935e-07
2.74032e-07
4.03527e-08
2.77095e-07
6.1673e-08
2.78342e-07
4.98377e-08
2.79396e-07
4.27652e-08
2.80191e-07
4.02385e-08
2.80662e-07
3.72209e-08
2.81005e-07
3.4062e-08
2.81309e-07
3.16355e-08
2.81571e-07
2.97634e-08
2.81793e-07
2.81525e-08
2.81985e-07
2.67216e-08
2.82156e-07
2.5458e-08
2.82309e-07
2.43385e-08
2.82446e-07
2.33358e-08
2.8257e-07
2.24291e-08
2.82683e-07
2.16034e-08
2.82785e-07
2.08474e-08
2.82877e-07
2.01518e-08
2.82961e-07
1.95092e-08
2.83038e-07
1.89136e-08
2.83106e-07
1.83602e-08
2.83168e-07
1.78452e-08
2.83224e-07
1.73654e-08
2.83273e-07
1.69183e-08
2.83315e-07
1.65019e-08
2.83352e-07
1.61144e-08
2.83382e-07
1.57545e-08
2.83406e-07
1.5421e-08
2.83423e-07
1.51128e-08
2.83434e-07
1.48292e-08
2.83438e-07
1.45694e-08
2.83435e-07
1.43332e-08
2.83424e-07
1.41198e-08
2.83407e-07
1.39297e-08
2.83381e-07
1.37618e-08
2.83348e-07
1.36175e-08
2.83306e-07
1.34951e-08
2.83256e-07
1.33975e-08
2.83197e-07
1.33213e-08
2.8313e-07
1.32713e-08
2.83053e-07
1.32423e-08
2.82968e-07
1.32392e-08
2.82873e-07
1.32578e-08
2.82768e-07
1.32955e-08
2.82653e-07
1.33584e-08
2.82523e-07
1.34195e-08
2.82382e-07
1.35139e-08
2.82207e-07
1.35825e-08
2.8201e-07
1.37135e-08
1.3905e-08
2.81764e-07
2.82039e-07
3.66509e-08
2.85087e-07
5.86252e-08
2.86331e-07
4.85939e-08
2.87366e-07
4.17298e-08
2.88186e-07
3.9419e-08
2.88682e-07
3.6725e-08
2.89035e-07
3.37091e-08
2.89344e-07
3.1326e-08
2.89612e-07
2.94955e-08
2.89838e-07
2.79264e-08
2.90033e-07
2.65264e-08
2.90206e-07
2.52852e-08
2.9036e-07
2.41841e-08
2.90499e-07
2.31973e-08
2.90624e-07
2.23044e-08
2.90736e-07
2.14907e-08
2.90838e-07
2.07453e-08
2.90931e-07
2.00592e-08
2.91015e-07
1.94252e-08
2.91091e-07
1.88374e-08
2.91161e-07
1.8291e-08
2.91223e-07
1.77825e-08
2.9128e-07
1.73088e-08
2.9133e-07
1.68675e-08
2.91376e-07
1.64567e-08
2.91415e-07
1.60746e-08
2.9145e-07
1.57201e-08
2.91479e-07
1.53919e-08
2.91503e-07
1.50891e-08
2.91521e-07
1.48109e-08
2.91534e-07
1.45567e-08
2.91541e-07
1.43262e-08
2.91542e-07
1.41187e-08
2.91537e-07
1.39346e-08
2.91526e-07
1.37729e-08
2.91508e-07
1.3635e-08
2.91484e-07
1.35193e-08
2.91453e-07
1.34283e-08
2.91415e-07
1.33593e-08
2.91371e-07
1.3316e-08
2.91318e-07
1.32948e-08
2.91259e-07
1.32986e-08
2.91191e-07
1.33255e-08
2.91115e-07
1.33712e-08
2.91031e-07
1.34427e-08
2.90934e-07
1.3517e-08
2.90825e-07
1.36221e-08
2.90689e-07
1.37193e-08
2.9053e-07
1.38721e-08
1.41019e-08
2.90333e-07
2.90308e-07
3.3232e-08
2.9333e-07
5.56033e-08
2.94579e-07
4.73443e-08
2.95594e-07
4.07149e-08
2.96432e-07
3.85805e-08
2.96955e-07
3.62026e-08
2.97318e-07
3.33456e-08
2.97633e-07
3.10111e-08
2.97907e-07
2.92216e-08
2.98138e-07
2.76953e-08
2.98337e-07
2.6328e-08
2.98512e-07
2.51102e-08
2.98668e-07
2.4028e-08
2.98807e-07
2.30576e-08
2.98933e-07
2.21789e-08
2.99046e-07
2.13777e-08
2.99148e-07
2.06432e-08
2.9924e-07
1.99669e-08
2.99324e-07
1.93415e-08
2.994e-07
1.87616e-08
2.99468e-07
1.82224e-08
2.9953e-07
1.77204e-08
2.99586e-07
1.72528e-08
2.99637e-07
1.68171e-08
2.99682e-07
1.64116e-08
2.99722e-07
1.60348e-08
2.99757e-07
1.56852e-08
2.99787e-07
1.5362e-08
2.99812e-07
1.50641e-08
2.99832e-07
1.47909e-08
2.99847e-07
1.45417e-08
2.99856e-07
1.43163e-08
2.99861e-07
1.4114e-08
2.99861e-07
1.39352e-08
2.99854e-07
1.37791e-08
2.99843e-07
1.36467e-08
2.99825e-07
1.35368e-08
2.99802e-07
1.34515e-08
2.99773e-07
1.33888e-08
2.99737e-07
1.33512e-08
2.99696e-07
1.33367e-08
2.99648e-07
1.33465e-08
2.99593e-07
1.33805e-08
2.9953e-07
1.34335e-08
2.99461e-07
1.35123e-08
2.99379e-07
1.35989e-08
2.99287e-07
1.37143e-08
2.9917e-07
1.38363e-08
2.99032e-07
1.40101e-08
1.42701e-08
2.98864e-07
2.98847e-07
3.0088e-08
3.01831e-07
5.26186e-08
3.03095e-07
4.6081e-08
3.04088e-07
3.9722e-08
3.0494e-07
3.77283e-08
3.05489e-07
3.5653e-08
3.05865e-07
3.297e-08
3.06185e-07
3.0691e-08
3.06465e-07
2.89418e-08
3.06701e-07
2.7459e-08
3.06903e-07
2.61259e-08
3.07081e-07
2.49328e-08
3.07239e-07
2.38702e-08
3.0738e-07
2.29167e-08
3.07506e-07
2.20527e-08
3.07619e-07
2.12643e-08
3.07721e-07
2.05411e-08
3.07814e-07
1.98747e-08
3.07897e-07
1.92583e-08
3.07972e-07
1.86863e-08
3.0804e-07
1.81544e-08
3.08101e-07
1.76591e-08
3.08157e-07
1.71976e-08
3.08206e-07
1.67677e-08
3.0825e-07
1.63675e-08
3.08289e-07
1.59958e-08
3.08323e-07
1.56512e-08
3.08352e-07
1.53329e-08
3.08376e-07
1.50398e-08
3.08396e-07
1.47714e-08
3.0841e-07
1.45271e-08
3.0842e-07
1.43066e-08
3.08425e-07
1.41093e-08
3.08424e-07
1.39355e-08
3.08419e-07
1.37846e-08
3.08408e-07
1.36574e-08
3.08392e-07
1.3553e-08
3.08371e-07
1.34729e-08
3.08343e-07
1.3416e-08
3.08311e-07
1.33838e-08
3.08272e-07
1.33754e-08
3.08228e-07
1.33909e-08
3.08177e-07
1.34311e-08
3.0812e-07
1.34912e-08
3.08055e-07
1.35768e-08
3.07979e-07
1.36749e-08
3.07893e-07
1.38008e-08
3.07784e-07
1.39445e-08
3.07656e-07
1.41385e-08
1.44227e-08
3.07503e-07
3.07666e-07
2.72091e-08
3.10603e-07
4.96822e-08
3.11886e-07
4.47971e-08
3.12857e-07
3.87514e-08
3.13718e-07
3.68676e-08
3.14294e-07
3.50764e-08
3.14684e-07
3.25809e-08
3.15009e-07
3.03653e-08
3.15295e-07
2.86562e-08
3.15537e-07
2.7217e-08
3.15743e-07
2.59199e-08
3.15923e-07
2.47527e-08
3.16083e-07
2.37104e-08
3.16225e-07
2.27743e-08
3.16352e-07
2.19255e-08
3.16466e-07
2.11503e-08
3.16569e-07
2.04386e-08
3.16661e-07
1.97825e-08
3.16744e-07
1.91753e-08
3.16819e-07
1.86116e-08
3.16886e-07
1.80872e-08
3.16946e-07
1.75986e-08
3.17001e-07
1.71434e-08
3.17049e-07
1.67192e-08
3.17092e-07
1.63246e-08
3.1713e-07
1.59581e-08
3.17163e-07
1.56186e-08
3.1719e-07
1.53051e-08
3.17213e-07
1.50169e-08
3.17231e-07
1.47534e-08
3.17245e-07
1.45139e-08
3.17253e-07
1.42982e-08
3.17256e-07
1.41059e-08
3.17255e-07
1.39371e-08
3.17248e-07
1.37913e-08
3.17236e-07
1.36691e-08
3.17219e-07
1.35701e-08
3.17197e-07
1.34952e-08
3.17169e-07
1.34438e-08
3.17136e-07
1.3417e-08
3.17097e-07
1.34143e-08
3.17052e-07
1.34355e-08
3.17002e-07
1.34817e-08
3.16944e-07
1.35487e-08
3.1688e-07
1.36412e-08
3.16805e-07
1.37503e-08
3.16718e-07
1.38869e-08
3.16613e-07
1.405e-08
3.16488e-07
1.42632e-08
1.45675e-08
3.16343e-07
3.16776e-07
2.4584e-08
3.19653e-07
4.68053e-08
3.20963e-07
4.3487e-08
3.21912e-07
3.78027e-08
3.22776e-07
3.60035e-08
3.23379e-07
3.44735e-08
3.23783e-07
3.21767e-08
3.24115e-07
3.00337e-08
3.24406e-07
2.83648e-08
3.24654e-07
2.69692e-08
3.24864e-07
2.57096e-08
3.25047e-07
2.45696e-08
3.25209e-07
2.35484e-08
3.25353e-07
2.26302e-08
3.25482e-07
2.17971e-08
3.25596e-07
2.10355e-08
3.25699e-07
2.03358e-08
3.25791e-07
1.96903e-08
3.25874e-07
1.90925e-08
3.25949e-07
1.85372e-08
3.26015e-07
1.80204e-08
3.26075e-07
1.75389e-08
3.26128e-07
1.709e-08
3.26176e-07
1.66718e-08
3.26218e-07
1.62828e-08
3.26254e-07
1.59216e-08
3.26286e-07
1.55872e-08
3.26312e-07
1.52787e-08
3.26333e-07
1.49955e-08
3.2635e-07
1.47368e-08
3.26361e-07
1.45023e-08
3.26368e-07
1.42916e-08
3.2637e-07
1.41042e-08
3.26367e-07
1.39404e-08
3.26358e-07
1.37997e-08
3.26344e-07
1.36827e-08
3.26326e-07
1.3589e-08
3.26301e-07
1.35193e-08
3.26272e-07
1.34734e-08
3.26237e-07
1.34519e-08
3.26196e-07
1.34549e-08
3.2615e-07
1.34819e-08
3.26097e-07
1.3534e-08
3.26038e-07
1.3608e-08
3.25972e-07
1.37075e-08
3.25895e-07
1.38272e-08
3.25807e-07
1.39749e-08
3.25701e-07
1.41556e-08
3.25577e-07
1.43869e-08
1.47084e-08
3.25437e-07
3.26187e-07
2.22001e-08
3.28993e-07
4.39988e-08
3.30333e-07
4.21466e-08
3.31261e-07
3.68749e-08
3.32124e-07
3.51407e-08
3.32752e-07
3.38459e-08
3.33172e-07
3.17561e-08
3.3351e-07
2.96957e-08
3.33808e-07
2.80677e-08
3.34061e-07
2.67155e-08
3.34276e-07
2.54947e-08
3.34463e-07
2.43833e-08
3.34627e-07
2.3384e-08
3.34773e-07
2.24843e-08
3.34903e-07
2.16674e-08
3.35018e-07
2.09199e-08
3.35122e-07
2.02325e-08
3.35214e-07
1.95978e-08
3.35297e-07
1.90097e-08
3.35371e-07
1.84632e-08
3.35437e-07
1.79542e-08
3.35496e-07
1.74798e-08
3.35549e-07
1.70374e-08
3.35595e-07
1.66253e-08
3.35636e-07
1.6242e-08
3.35671e-07
1.58862e-08
3.35702e-07
1.55571e-08
3.35727e-07
1.52537e-08
3.35747e-07
1.49755e-08
3.35761e-07
1.47219e-08
3.35771e-07
1.44923e-08
3.35776e-07