/*--------------------------------*- C++ -*----------------------------------*\
  =========                 |
  \\      /  F ield         | OpenFOAM: The Open Source CFD Toolbox
   \\    /   O peration     | Website:  https://openfoam.org
    \\  /    A nd           | Version:  7
     \\/     M anipulation  |
\*---------------------------------------------------------------------------*/
FoamFile
{
    version     2.0;
    format      ascii;
    class       surfaceScalarField;
    location    "0.05";
    object      phi_0;
}
// * * * * * * * * * * * * * * * * * * * * * * * * * * * * * * * * * * * * * //

dimensions      [0 3 -1 0 0 0 0];

internalField   nonuniform List<scalar> 
139350
(
6.45117e-08
9.21198e-08
3.19632e-08
3.25485e-08
2.30561e-08
8.90714e-09
1.95688e-08
3.48727e-09
1.76138e-08
1.95499e-09
1.618e-08
1.43384e-09
1.50429e-08
1.13709e-09
1.41259e-08
9.16993e-10
1.33703e-08
7.55556e-10
1.27329e-08
6.37437e-10
1.21848e-08
5.48103e-10
1.17067e-08
4.78098e-10
1.12849e-08
4.2183e-10
1.09091e-08
3.75779e-10
1.05716e-08
3.37544e-10
1.02662e-08
3.05406e-10
9.98805e-09
2.78103e-10
9.73336e-09
2.5469e-10
9.49891e-09
2.34451e-10
9.28207e-09
2.16833e-10
9.08067e-09
2.01404e-10
8.89285e-09
1.87822e-10
8.71703e-09
1.75813e-10
8.55188e-09
1.65159e-10
8.3962e-09
1.55678e-10
8.24898e-09
1.47223e-10
8.1093e-09
1.39672e-10
7.97638e-09
1.32926e-10
7.84948e-09
1.26893e-10
7.72797e-09
1.21514e-10
7.61126e-09
1.16711e-10
7.4988e-09
1.12461e-10
7.39012e-09
1.08677e-10
7.28473e-09
1.05393e-10
7.18226e-09
1.02465e-10
7.08223e-09
1.00037e-10
6.9844e-09
9.78274e-11
6.88823e-09
9.61695e-11
6.79367e-09
9.45615e-11
6.70012e-09
9.35434e-11
6.60763e-09
9.24936e-11
6.51592e-09
9.17135e-11
6.4244e-09
9.15144e-11
6.33486e-09
8.95454e-11
6.24304e-09
9.18218e-11
6.15957e-09
8.34669e-11
6.06342e-09
9.61461e-11
6.01315e-09
5.02764e-11
5.79594e-09
2.17207e-10
-2.65915e-09
8.45509e-09
1.25943e-07
1.27621e-07
9.12869e-08
6.72042e-08
7.19297e-08
2.82643e-08
6.12081e-08
1.42089e-08
5.47639e-08
8.39915e-09
5.02595e-08
5.93823e-09
4.6764e-08
4.63261e-09
4.39383e-08
3.74272e-09
4.16017e-08
3.09214e-09
3.96288e-08
2.61029e-09
3.79326e-08
2.24437e-09
3.64529e-08
1.95777e-09
3.51471e-08
1.72758e-09
3.39837e-08
1.5392e-09
3.29385e-08
1.38275e-09
3.19927e-08
1.25119e-09
3.11315e-08
1.13937e-09
3.03427e-08
1.04343e-09
2.96167e-08
9.60459e-10
2.89454e-08
8.88183e-10
2.83219e-08
8.24844e-10
2.77407e-08
7.69046e-10
2.71968e-08
7.19674e-10
2.66862e-08
6.75824e-10
2.62051e-08
6.36763e-10
2.57504e-08
6.01885e-10
2.53194e-08
5.70692e-10
2.49096e-08
5.4277e-10
2.45187e-08
5.17765e-10
2.41448e-08
4.954e-10
2.37861e-08
4.75405e-10
2.34409e-08
4.57624e-10
2.31078e-08
4.41792e-10
2.27853e-08
4.27922e-10
2.24721e-08
4.15618e-10
2.2167e-08
4.05213e-10
2.18689e-08
3.95906e-10
2.15764e-08
3.88695e-10
2.12891e-08
3.8185e-10
2.1005e-08
3.77664e-10
2.07248e-08
3.72644e-10
2.04454e-08
3.71158e-10
2.01696e-08
3.67274e-10
1.98922e-08
3.66936e-10
1.96196e-08
3.64478e-10
1.93458e-08
3.57201e-10
1.90734e-08
3.68538e-10
1.88488e-08
2.74884e-10
1.84776e-08
5.88441e-10
-3.10728e-09
1.89257e-08
1.58752e-07
1.35272e-07
1.36524e-07
8.94318e-08
1.17486e-07
4.73028e-08
1.03301e-07
2.83939e-08
9.32971e-08
1.8403e-08
8.5985e-08
1.32503e-08
8.02637e-08
1.03539e-08
7.5597e-08
8.40944e-09
7.17026e-08
6.98656e-09
6.83929e-08
5.91998e-09
6.55346e-08
5.10266e-09
6.3033e-08
4.45939e-09
6.08195e-08
3.94107e-09
5.88429e-08
3.51576e-09
5.7064e-08
3.16168e-09
5.54519e-08
2.86331e-09
5.3982e-08
2.60923e-09
5.26346e-08
2.39088e-09
5.13933e-08
2.20173e-09
5.02448e-08
2.03674e-09
4.91776e-08
1.89195e-09
4.81824e-08
1.76424e-09
4.7251e-08
1.65108e-09
4.63764e-08
1.55044e-09
4.55525e-08
1.46067e-09
4.4774e-08
1.38039e-09
4.40362e-08
1.30848e-09
4.3335e-08
1.24398e-09
4.26667e-08
1.18612e-09
4.20278e-08
1.13424e-09
4.14155e-08
1.08775e-09
4.08268e-08
1.04626e-09
4.02594e-08
1.00924e-09
3.97107e-08
9.76588e-10
3.91787e-08
9.47621e-10
3.86611e-08
9.22804e-10
3.81563e-08
9.00713e-10
3.76618e-08
8.83174e-10
3.7177e-08
8.6672e-10
3.66982e-08
8.56396e-10
3.62271e-08
8.43778e-10
3.57572e-08
8.41113e-10
3.52952e-08
8.29233e-10
3.48276e-08
8.34526e-10
3.43733e-08
8.18829e-10
3.39051e-08
8.25351e-10
3.34579e-08
8.1578e-10
3.30302e-08
7.02574e-10
3.25868e-08
1.03178e-09
-2.53912e-09
3.20187e-08
1.75611e-07
1.31177e-07
1.65622e-07
9.9421e-08
1.52729e-07
6.01955e-08
1.40112e-07
4.10108e-08
1.29421e-07
2.90941e-08
1.20769e-07
2.1903e-08
1.1364e-07
1.74824e-08
1.07641e-07
1.44088e-08
1.0252e-07
1.21071e-08
9.8096e-08
1.03441e-08
9.42286e-08
8.9701e-09
9.08122e-08
7.87573e-09
8.77672e-08
6.98616e-09
8.50318e-08
6.25109e-09
8.25579e-08
5.63557e-09
8.03069e-08
5.11434e-09
7.82475e-08
4.66862e-09
7.63542e-08
4.28418e-09
7.46058e-08
3.9501e-09
7.29847e-08
3.65785e-09
7.1476e-08
3.40073e-09
7.00668e-08
3.17339e-09
6.87464e-08
2.97151e-09
6.75052e-08
2.79158e-09
6.63352e-08
2.63074e-09
6.5229e-08
2.48661e-09
6.41802e-08
2.35722e-09
6.31833e-08
2.24092e-09
6.22331e-08
2.13634e-09
6.1325e-08
2.04231e-09
6.04549e-08
1.95784e-09
5.9619e-08
1.88217e-09
5.88137e-08
1.81448e-09
5.80359e-08
1.75444e-09
5.72825e-08
1.70103e-09
5.65505e-08
1.65482e-09
5.58375e-08
1.61369e-09
5.51403e-08
1.58035e-09
5.44577e-08
1.54933e-09
5.37851e-08
1.52895e-09
5.31242e-08
1.50476e-09
5.24664e-08
1.49889e-09
5.18203e-08
1.47537e-09
5.11679e-08
1.48693e-09
5.05332e-08
1.4535e-09
4.98804e-08
1.47814e-09
4.92564e-08
1.43974e-09
4.86344e-08
1.32461e-09
4.80749e-08
1.59128e-09
-1.59462e-09
4.71304e-08
1.8451e-07
1.23452e-07
1.8234e-07
1.01591e-07
1.76117e-07
6.64183e-08
1.67753e-07
4.93746e-08
1.59124e-07
3.77234e-08
1.51205e-07
2.9822e-08
1.44116e-07
2.45717e-08
1.37796e-07
2.07286e-08
1.32173e-07
1.77299e-08
1.27163e-07
1.53541e-08
1.2268e-07
1.34529e-08
1.18648e-07
1.19078e-08
1.15002e-07
1.0632e-08
1.11689e-07
9.56435e-09
1.08664e-07
8.66103e-09
1.05889e-07
7.88938e-09
1.03333e-07
7.22461e-09
1.00969e-07
6.64759e-09
9.87759e-08
6.14337e-09
9.67336e-08
5.70014e-09
9.48258e-08
5.3085e-09
9.30384e-08
4.96086e-09
9.13588e-08
4.65106e-09
8.97764e-08
4.37404e-09
8.82815e-08
4.12563e-09
8.68657e-08
3.90237e-09
8.55216e-08
3.70137e-09
8.42423e-08
3.52017e-09
8.30219e-08
3.35676e-09
8.18548e-08
3.20939e-09
8.0736e-08
3.07661e-09
7.9661e-08
2.95721e-09
7.86254e-08
2.85003e-09
7.76254e-08
2.7545e-09
7.66572e-08
2.66924e-09
7.57172e-08
2.59482e-09
7.48024e-08
2.52847e-09
7.3909e-08
2.47374e-09
7.30352e-08
2.42312e-09
7.21759e-08
2.38824e-09
7.13321e-08
2.34856e-09
7.04949e-08
2.33609e-09
6.9672e-08
2.29825e-09
6.88456e-08
2.31336e-09
6.80374e-08
2.26168e-09
6.72152e-08
2.30034e-09
6.64181e-08
2.23683e-09
6.56259e-08
2.11685e-09
6.49008e-08
2.31641e-09
-4.7623e-10
6.37824e-08
1.90342e-07
1.15327e-07
1.91859e-07
1.00075e-07
1.9026e-07
6.80167e-08
1.86151e-07
5.34841e-08
1.80704e-07
4.317e-08
1.74941e-07
3.55852e-08
1.69229e-07
3.02837e-08
1.63725e-07
2.6232e-08
1.58528e-07
2.29275e-08
1.53678e-07
2.02037e-08
1.49179e-07
1.79517e-08
1.45015e-07
1.60721e-08
1.41161e-07
1.44858e-08
1.37592e-07
1.31339e-08
1.3428e-07
1.19725e-08
1.31202e-07
1.09674e-08
1.28335e-07
1.00919e-08
1.25658e-07
9.32457e-09
1.23153e-07
8.64846e-09
1.20803e-07
8.04977e-09
1.18594e-07
7.51731e-09
1.16513e-07
7.04193e-09
1.14548e-07
6.61606e-09
1.12689e-07
6.23343e-09
1.10926e-07
5.88882e-09
1.0925e-07
5.57781e-09
1.07655e-07
5.29671e-09
1.06133e-07
5.04238e-09
1.04677e-07
4.81217e-09
1.03283e-07
4.6038e-09
1.01944e-07
4.41538e-09
1.00656e-07
4.24529e-09
9.94141e-08
4.09205e-09
9.82138e-08
3.95477e-09
9.70513e-08
3.8318e-09
9.59224e-08
3.72368e-09
9.48239e-08
3.62702e-09
9.37515e-08
3.54607e-09
9.27031e-08
3.47161e-09
9.16733e-08
3.41799e-09
9.06623e-08
3.35961e-09
8.96618e-08
3.33653e-09
8.86771e-08
3.28295e-09
8.76939e-08
3.29657e-09
8.67263e-08
3.2293e-09
8.57544e-08
3.27223e-09
8.47965e-08
3.19468e-09
8.38574e-08
3.05598e-09
8.29643e-08
3.20951e-09
7.89048e-10
8.1699e-08
1.95504e-07
1.07637e-07
1.98247e-07
9.73325e-08
1.98984e-07
6.72792e-08
1.97787e-07
5.46812e-08
1.95147e-07
4.58098e-08
1.91799e-07
3.89337e-08
1.88054e-07
3.40283e-08
1.84086e-07
3.02e-08
1.80045e-07
2.69684e-08
1.76041e-07
2.42074e-08
1.72143e-07
2.18502e-08
1.68389e-07
1.98265e-08
1.64798e-07
1.80759e-08
1.61381e-07
1.65514e-08
1.58137e-07
1.52167e-08
1.55062e-07
1.40425e-08
1.52149e-07
1.30048e-08
1.4939e-07
1.20838e-08
1.46775e-07
1.12633e-08
1.44295e-07
1.05294e-08
1.41941e-07
9.87106e-09
1.39705e-07
9.27861e-09
1.37577e-07
8.74409e-09
1.35549e-07
8.26076e-09
1.33615e-07
7.82288e-09
1.31767e-07
7.42556e-09
1.3e-07
7.06464e-09
1.28305e-07
6.73653e-09
1.26679e-07
6.43821e-09
1.25116e-07
6.16702e-09
1.23611e-07
5.92075e-09
1.22159e-07
5.69748e-09
1.20755e-07
5.49549e-09
1.19396e-07
5.31368e-09
1.18078e-07
5.15016e-09
1.16796e-07
5.00543e-09
1.15547e-07
4.87567e-09
1.14328e-07
4.76562e-09
1.13135e-07
4.66481e-09
1.11963e-07
4.58951e-09
1.10812e-07
4.51065e-09
1.09675e-07
4.4735e-09
1.08554e-07
4.40416e-09
1.0744e-07
4.4108e-09
1.06337e-07
4.33229e-09
1.0524e-07
4.3687e-09
1.04146e-07
4.28867e-09
1.03081e-07
4.12136e-09
1.02047e-07
4.24335e-09
2.18419e-09
1.00652e-07
2.00819e-07
1.00403e-07
2.03771e-07
9.43805e-08
2.05344e-07
6.57065e-08
2.05643e-07
5.4382e-08
2.04809e-07
4.66442e-08
2.03323e-07
4.04196e-08
2.01365e-07
3.59859e-08
1.99021e-07
3.25445e-08
1.96396e-07
2.95931e-08
1.93594e-07
2.70097e-08
1.90694e-07
2.47496e-08
1.87758e-07
2.2763e-08
1.84829e-07
2.10049e-08
1.81939e-07
1.94411e-08
1.79111e-07
1.8045e-08
1.76358e-07
1.67948e-08
1.73691e-07
1.5672e-08
1.71114e-07
1.4661e-08
1.68629e-07
1.37484e-08
1.66236e-07
1.29225e-08
1.63933e-07
1.21737e-08
1.61718e-07
1.14933e-08
1.59589e-07
1.08741e-08
1.5754e-07
1.03097e-08
1.55568e-07
9.79461e-09
1.53669e-07
9.32414e-09
1.5184e-07
8.89414e-09
1.50075e-07
8.50097e-09
1.48372e-07
8.14157e-09
1.46726e-07
7.81319e-09
1.45133e-07
7.51354e-09
1.4359e-07
7.24059e-09
1.42093e-07
6.99254e-09
1.40638e-07
6.76819e-09
1.39223e-07
6.56557e-09
1.37843e-07
6.38516e-09
1.36496e-07
6.22294e-09
1.35178e-07
6.08392e-09
1.33886e-07
5.95699e-09
1.32616e-07
5.85939e-09
1.31366e-07
5.76041e-09
1.30132e-07
5.70746e-09
1.28912e-07
5.62395e-09
1.27703e-07
5.61959e-09
1.26501e-07
5.53465e-09
1.25313e-07
5.55664e-09
1.2412e-07
5.48216e-09
1.22955e-07
5.28606e-09
1.21816e-07
5.38176e-09
3.67057e-09
1.2033e-07
2.06423e-07
9.35122e-08
2.09331e-07
9.14722e-08
2.11055e-07
6.39825e-08
2.11934e-07
5.35031e-08
2.11994e-07
4.65841e-08
2.11604e-07
4.08095e-08
2.10867e-07
3.67229e-08
2.09785e-07
3.36262e-08
2.08397e-07
3.0981e-08
2.06761e-07
2.86459e-08
2.04932e-07
2.65786e-08
2.02959e-07
2.4736e-08
2.00884e-07
2.30796e-08
1.98744e-07
2.15818e-08
1.96566e-07
2.02224e-08
1.94376e-07
1.89854e-08
1.9219e-07
1.78575e-08
1.90024e-07
1.68273e-08
1.87888e-07
1.58849e-08
1.85789e-07
1.50215e-08
1.83733e-07
1.42296e-08
1.81723e-07
1.35025e-08
1.79763e-07
1.28344e-08
1.77853e-07
1.22199e-08
1.75993e-07
1.16546e-08
1.74183e-07
1.11343e-08
1.72422e-07
1.06553e-08
1.70708e-07
1.02146e-08
1.6904e-07
9.80928e-09
1.67417e-07
9.43682e-09
1.65835e-07
9.09515e-09
1.64293e-07
8.78233e-09
1.62789e-07
8.4967e-09
1.6132e-07
8.23712e-09
1.59884e-07
8.00171e-09
1.58478e-07
7.791e-09
1.571e-07
7.60099e-09
1.55747e-07
7.43684e-09
1.54417e-07
7.2873e-09
1.53106e-07
7.16988e-09
1.51813e-07
7.05375e-09
1.50535e-07
6.98591e-09
1.49267e-07
6.89159e-09
1.48012e-07
6.87492e-09
1.46758e-07
6.78849e-09
1.45522e-07
6.79282e-09
1.44275e-07
6.72845e-09
1.4305e-07
6.51129e-09
1.41849e-07
6.58292e-09
5.19746e-09
1.40322e-07
2.12269e-07
8.69058e-08
2.1514e-07
8.86013e-08
2.1681e-07
6.23123e-08
2.17848e-07
5.24646e-08
2.18254e-07
4.61785e-08
2.18367e-07
4.06967e-08
2.18285e-07
3.68048e-08
2.17976e-07
3.39348e-08
2.17434e-07
3.15229e-08
2.16678e-07
2.94025e-08
2.1573e-07
2.75265e-08
2.14616e-07
2.58504e-08
2.1336e-07
2.43351e-08
2.11989e-07
2.29532e-08
2.10525e-07
2.16863e-08
2.08989e-07
2.05208e-08
2.07401e-07
1.94458e-08
2.05776e-07
1.84525e-08
2.04128e-07
1.75334e-08
2.02467e-07
1.66821e-08
2.00804e-07
1.5893e-08
1.99145e-07
1.51611e-08
1.97497e-07
1.44823e-08
1.95864e-07
1.38525e-08
1.94251e-07
1.32681e-08
1.92659e-07
1.27262e-08
1.91091e-07
1.22237e-08
1.89547e-07
1.17582e-08
1.88029e-07
1.13275e-08
1.86536e-07
1.09293e-08
1.85069e-07
1.05621e-08
1.83628e-07
1.02241e-08
1.8221e-07
9.91409e-09
1.80816e-07
9.63107e-09
1.79445e-07
9.37338e-09
1.78094e-07
9.14176e-09
1.76762e-07
8.93234e-09
1.75449e-07
8.75043e-09
1.74151e-07
8.585e-09
1.72868e-07
8.45332e-09
1.71596e-07
8.32563e-09
1.70335e-07
8.24664e-09
1.6908e-07
8.1467e-09
1.67835e-07
8.1195e-09
1.66587e-07
8.0368e-09
1.65355e-07
8.02478e-09
1.6411e-07
7.97328e-09
1.62874e-07
7.74745e-09
1.61659e-07
7.79812e-09
6.70902e-09
1.60147e-07
2.18315e-07
8.05719e-08
2.21189e-07
8.5727e-08
2.22782e-07
6.07188e-08
2.23849e-07
5.13977e-08
2.24363e-07
4.56643e-08
2.24654e-07
4.0406e-08
2.24849e-07
3.66098e-08
2.2492e-07
3.38642e-08
2.24845e-07
3.15974e-08
2.24625e-07
2.96222e-08
2.24265e-07
2.78872e-08
2.23769e-07
2.63463e-08
2.23146e-07
2.49576e-08
2.22408e-07
2.36914e-08
2.21567e-07
2.25278e-08
2.20635e-07
2.14527e-08
2.19625e-07
2.04555e-08
2.18549e-07
1.95279e-08
2.1742e-07
1.86632e-08
2.16246e-07
1.7856e-08
2.15037e-07
1.71019e-08
2.13801e-07
1.6397e-08
2.12545e-07
1.5738e-08
2.11276e-07
1.51221e-08
2.09997e-07
1.45465e-08
2.08714e-07
1.4009e-08
2.07431e-07
1.35074e-08
2.06149e-07
1.30399e-08
2.04872e-07
1.26048e-08
2.03601e-07
1.22004e-08
2.02337e-07
1.18257e-08
2.01082e-07
1.14792e-08
1.99836e-07
1.116e-08
1.98599e-07
1.08676e-08
1.97372e-07
1.06005e-08
1.96154e-07
1.03597e-08
1.94945e-07
1.01415e-08
1.93744e-07
9.95155e-09
1.9255e-07
9.77916e-09
1.91362e-07
9.64101e-09
1.90179e-07
9.5093e-09
1.89e-07
9.42513e-09
1.87821e-07
9.32615e-09
1.86647e-07
9.29273e-09
1.85465e-07
9.21929e-09
1.84294e-07
9.19583e-09
1.83108e-07
9.15939e-09
1.81916e-07
8.93919e-09
1.8074e-07
8.97419e-09
8.1482e-09
1.79301e-07
2.24548e-07
7.45169e-08
2.27449e-07
8.28265e-08
2.28978e-07
5.91893e-08
2.30052e-07
5.03237e-08
2.30607e-07
4.51098e-08
2.30946e-07
4.00669e-08
2.3123e-07
3.63251e-08
2.3145e-07
3.36451e-08
2.31584e-07
3.14626e-08
2.31633e-07
2.95734e-08
2.31595e-07
2.79253e-08
2.31468e-07
2.64736e-08
2.31251e-07
2.51748e-08
2.30945e-07
2.39969e-08
2.30555e-07
2.29183e-08
2.30084e-07
2.19235e-08
2.29538e-07
2.1001e-08
2.28925e-07
2.01417e-08
2.28249e-07
1.93388e-08
2.27518e-07
1.85868e-08
2.26739e-07
1.78814e-08
2.25917e-07
1.7219e-08
2.25058e-07
1.65969e-08
2.24167e-07
1.60125e-08
2.2325e-07
1.54638e-08
2.2231e-07
1.49488e-08
2.21352e-07
1.4466e-08
2.20378e-07
1.4014e-08
2.19391e-07
1.35914e-08
2.18394e-07
1.31972e-08
2.17389e-07
1.28304e-08
2.16378e-07
1.24903e-08
2.15362e-07
1.2176e-08
2.14343e-07
1.18874e-08
2.1332e-07
1.16232e-08
2.12295e-07
1.13848e-08
2.11267e-07
1.11689e-08
2.10238e-07
1.09808e-08
2.09206e-07
1.08108e-08
2.08173e-07
1.06747e-08
2.07135e-07
1.05471e-08
2.06096e-07
1.04646e-08
2.05048e-07
1.03736e-08
2.04001e-07
1.03397e-08
2.0294e-07
1.02809e-08
2.01882e-07
1.0253e-08
2.00808e-07
1.02337e-08
1.99714e-07
1.00331e-08
1.98629e-07
1.00597e-08
9.46229e-09
1.97315e-07
2.30974e-07
6.87486e-08
2.3391e-07
7.9891e-08
2.35382e-07
5.77169e-08
2.36464e-07
4.92416e-08
2.37052e-07
4.45224e-08
2.37405e-07
3.9713e-08
2.37712e-07
3.60188e-08
2.37977e-07
3.33801e-08
2.38187e-07
3.1252e-08
2.38346e-07
2.94149e-08
2.38454e-07
2.78172e-08
2.3851e-07
2.64178e-08
2.3851e-07
2.51742e-08
2.38454e-07
2.40535e-08
2.38339e-07
2.3033e-08
2.38166e-07
2.20963e-08
2.37937e-07
2.12308e-08
2.37651e-07
2.04268e-08
2.37313e-07
1.96768e-08
2.36925e-07
1.89749e-08
2.3649e-07
1.83164e-08
2.36012e-07
1.76977e-08
2.35493e-07
1.71157e-08
2.34937e-07
1.65681e-08
2.34348e-07
1.60529e-08
2.33729e-07
1.55683e-08
2.33081e-07
1.51131e-08
2.3241e-07
1.46859e-08
2.31715e-07
1.42857e-08
2.31001e-07
1.39117e-08
2.30268e-07
1.35631e-08
2.29519e-07
1.32394e-08
2.28755e-07
1.294e-08
2.27977e-07
1.26649e-08
2.27187e-07
1.24132e-08
2.26386e-07
1.21863e-08
2.25574e-07
1.19813e-08
2.24751e-07
1.18035e-08
2.23918e-07
1.16439e-08
2.23075e-07
1.15171e-08
2.22222e-07
1.14006e-08
2.2136e-07
1.13262e-08
2.20485e-07
1.12492e-08
2.19604e-07
1.12207e-08
2.18704e-07
1.11807e-08
2.17801e-07
1.1156e-08
2.16879e-07
1.11554e-08
2.15926e-07
1.09862e-08
2.14973e-07
1.10127e-08
1.06099e-08
2.13825e-07
2.376e-07
6.32729e-08
2.40575e-07
7.69162e-08
2.41991e-07
5.63016e-08
2.4308e-07
4.81522e-08
2.43704e-07
4.38986e-08
2.4407e-07
3.93463e-08
2.44382e-07
3.57072e-08
2.44659e-07
3.31027e-08
2.44893e-07
3.10189e-08
2.45087e-07
2.922e-08
2.4525e-07
2.76545e-08
2.45381e-07
2.62866e-08
2.4548e-07
2.50757e-08
2.45544e-07
2.39893e-08
2.45572e-07
2.30046e-08
2.45564e-07
2.21048e-08
2.45518e-07
2.1277e-08
2.45433e-07
2.05112e-08
2.45311e-07
1.97994e-08
2.4515e-07
1.91351e-08
2.44953e-07
1.85134e-08
2.44721e-07
1.79303e-08
2.44454e-07
1.73827e-08
2.44154e-07
1.6868e-08
2.43823e-07
1.63841e-08
2.43462e-07
1.59293e-08
2.43073e-07
1.55021e-08
2.42657e-07
1.51014e-08
2.42217e-07
1.47262e-08
2.41753e-07
1.43756e-08
2.41267e-07
1.40491e-08
2.4076e-07
1.37461e-08
2.40234e-07
1.34663e-08
2.39689e-07
1.32098e-08
2.39126e-07
1.29757e-08
2.38547e-07
1.27657e-08
2.37951e-07
1.25768e-08
2.37341e-07
1.24144e-08
2.36714e-07
1.22703e-08
2.36074e-07
1.21576e-08
2.35417e-07
1.20571e-08
2.34748e-07
1.19951e-08
2.34061e-07
1.19362e-08
2.33364e-07
1.19175e-08
2.32646e-07
1.18989e-08
2.31918e-07
1.18839e-08
2.31171e-07
1.19027e-08
2.30384e-07
1.17732e-08
2.29589e-07
1.18077e-08
1.15671e-08
2.28632e-07
2.44436e-07
5.80935e-08
2.47449e-07
7.3903e-08
2.48809e-07
5.49417e-08
2.49901e-07
4.70602e-08
2.50563e-07
4.32364e-08
2.50946e-07
3.89633e-08
2.51262e-07
3.53913e-08
2.51545e-07
3.28201e-08
2.51785e-07
3.07783e-08
2.51991e-07
2.90145e-08
2.5217e-07
2.74751e-08
2.52327e-07
2.61297e-08
2.52462e-07
2.49406e-08
2.52576e-07
2.38759e-08
2.52667e-07
2.29133e-08
2.52735e-07
2.20363e-08
2.5278e-07
2.12321e-08
2.52801e-07
2.04904e-08
2.52797e-07
1.98032e-08
2.52768e-07
1.91641e-08
2.52714e-07
1.85677e-08
2.52634e-07
1.80099e-08
2.52529e-07
1.74875e-08
2.524e-07
1.69977e-08
2.52245e-07
1.65384e-08
2.52067e-07
1.61076e-08
2.51865e-07
1.5704e-08
2.5164e-07
1.53262e-08
2.51393e-07
1.49732e-08
2.51125e-07
1.46443e-08
2.50835e-07
1.43387e-08
2.50525e-07
1.40561e-08
2.50195e-07
1.3796e-08
2.49846e-07
1.35587e-08
2.49479e-07
1.33431e-08
2.49094e-07
1.31511e-08
2.4869e-07
1.29799e-08
2.4827e-07
1.28346e-08
2.47833e-07
1.27078e-08
2.47379e-07
1.26111e-08
2.46908e-07
1.25285e-08
2.46422e-07
1.24809e-08
2.45917e-07
1.24416e-08
2.45399e-07
1.24353e-08
2.4486e-07
1.24383e-08
2.44306e-07
1.24374e-08
2.43733e-07
1.24754e-08
2.43117e-07
1.23898e-08
2.42486e-07
1.24387e-08
1.23307e-08
2.41722e-07
2.51488e-07
5.32122e-08
2.54529e-07
7.08616e-08
2.55845e-07
5.36262e-08
2.56934e-07
4.59708e-08
2.57634e-07
4.25368e-08
2.58036e-07
3.85611e-08
2.58358e-07
3.50698e-08
2.58645e-07
3.25323e-08
2.58891e-07
3.05329e-08
2.591e-07
2.88049e-08
2.59285e-07
2.72907e-08
2.59449e-07
2.59653e-08
2.59596e-07
2.47939e-08
2.59726e-07
2.37458e-08
2.5984e-07
2.2799e-08
2.59939e-07
2.19374e-08
2.60023e-07
2.11485e-08
2.60091e-07
2.04224e-08
2.60143e-07
1.9751e-08
2.60179e-07
1.91279e-08
2.60199e-07
1.85479e-08
2.60202e-07
1.80068e-08
2.60189e-07
1.75012e-08
2.60158e-07
1.70285e-08
2.6011e-07
1.65863e-08
2.60045e-07
1.61728e-08
2.59962e-07
1.57865e-08
2.59862e-07
1.54261e-08
2.59745e-07
1.50904e-08
2.59611e-07
1.47787e-08
2.59459e-07
1.44903e-08
2.5929e-07
1.42248e-08
2.59105e-07
1.39815e-08
2.58903e-07
1.37609e-08
2.58684e-07
1.3562e-08
2.58449e-07
1.33864e-08
2.58197e-07
1.32316e-08
2.57929e-07
1.31022e-08
2.57645e-07
1.2992e-08
2.57346e-07
1.29106e-08
2.57029e-07
1.28451e-08
2.56698e-07
1.28117e-08
2.56349e-07
1.2791e-08
2.55986e-07
1.27978e-08
2.55604e-07
1.28206e-08
2.55205e-07
1.28362e-08
2.54789e-07
1.28918e-08
2.54328e-07
1.28505e-08
2.53848e-07
1.29184e-08
1.29166e-08
2.53262e-07
2.58766e-07
4.86295e-08
2.61825e-07
6.78023e-08
2.63107e-07
5.23442e-08
2.64189e-07
4.48892e-08
2.64924e-07
4.18018e-08
2.65347e-07
3.81379e-08
2.65675e-07
3.47417e-08
2.65968e-07
3.22391e-08
2.66219e-07
3.02823e-08
2.66432e-07
2.85917e-08
2.66619e-07
2.71038e-08
2.66786e-07
2.57982e-08
2.66936e-07
2.46438e-08
2.67071e-07
2.36108e-08
2.67192e-07
2.26775e-08
2.67301e-07
2.18284e-08
2.67398e-07
2.10513e-08
2.67484e-07
2.03365e-08
2.67559e-07
1.96762e-08
2.67623e-07
1.90641e-08
2.67676e-07
1.8495e-08
2.67718e-07
1.79649e-08
2.67748e-07
1.74705e-08
2.67768e-07
1.70091e-08
2.67776e-07
1.65784e-08
2.67772e-07
1.61767e-08
2.67756e-07
1.58023e-08
2.67728e-07
1.5454e-08
2.67688e-07
1.51307e-08
2.67635e-07
1.48316e-08
2.67569e-07
1.4556e-08
2.67491e-07
1.43034e-08
2.67399e-07
1.40732e-08
2.67294e-07
1.38658e-08
2.67176e-07
1.36802e-08
2.67044e-07
1.3518e-08
2.66899e-07
1.33769e-08
2.6674e-07
1.32609e-08
2.66568e-07
1.31647e-08
2.66382e-07
1.30965e-08
2.66181e-07
1.3046e-08
2.65967e-07
1.30251e-08
2.65738e-07
1.30206e-08
2.65496e-07
1.30395e-08
2.65237e-07
1.30793e-08
2.64962e-07
1.31116e-08
2.64671e-07
1.31828e-08
2.64338e-07
1.31834e-08
2.63984e-07
1.32726e-08
1.33541e-08
2.63546e-07
2.66278e-07
4.4344e-08
2.69344e-07
6.47359e-08
2.70603e-07
5.10849e-08
2.71673e-07
4.38197e-08
2.7244e-07
4.10347e-08
2.72886e-07
3.76918e-08
2.73221e-07
3.44063e-08
2.7352e-07
3.19404e-08
2.73776e-07
3.00262e-08
2.73993e-07
2.83746e-08
2.74183e-07
2.69145e-08
2.74351e-07
2.56295e-08
2.74503e-07
2.44923e-08
2.7464e-07
2.34743e-08
2.74763e-07
2.25542e-08
2.74875e-07
2.17167e-08
2.74976e-07
2.09502e-08
2.75067e-07
2.02452e-08
2.75149e-07
1.9594e-08
2.75223e-07
1.89905e-08
2.75288e-07
1.84298e-08
2.75345e-07
1.79078e-08
2.75394e-07
1.74214e-08
2.75435e-07
1.69679e-08
2.75469e-07
1.65453e-08
2.75494e-07
1.61517e-08
2.7551e-07
1.57856e-08
2.75519e-07
1.54457e-08
2.75518e-07
1.51312e-08
2.75509e-07
1.4841e-08
2.7549e-07
1.45745e-08
2.75462e-07
1.43314e-08
2.75425e-07
1.41109e-08
2.75377e-07
1.39134e-08
2.75319e-07
1.37379e-08
2.75251e-07
1.3586e-08
2.75173e-07
1.34556e-08
2.75083e-07
1.33501e-08
2.74983e-07
1.32653e-08
2.74872e-07
1.32075e-08
2.74748e-07
1.31693e-08
2.74615e-07
1.31586e-08
2.74468e-07
1.31674e-08
2.74311e-07
1.3197e-08
2.7414e-07
1.32503e-08
2.73953e-07
1.32985e-08
2.73752e-07
1.33832e-08
2.73514e-07
1.34214e-08
2.73254e-07
1.35331e-08
1.36789e-08
2.72929e-07
2.74032e-07
4.03528e-08
2.77095e-07
6.16733e-08
2.78342e-07
4.98382e-08
2.79396e-07
4.27658e-08
2.80191e-07
4.02392e-08
2.80661e-07
3.72216e-08
2.81005e-07
3.40627e-08
2.81309e-07
3.16362e-08
2.81571e-07
2.97642e-08
2.81793e-07
2.81533e-08
2.81985e-07
2.67224e-08
2.82155e-07
2.54588e-08
2.82308e-07
2.43394e-08
2.82446e-07
2.33368e-08
2.8257e-07
2.24301e-08
2.82682e-07
2.16044e-08
2.82784e-07
2.08483e-08
2.82876e-07
2.01527e-08
2.8296e-07
1.95101e-08
2.83036e-07
1.89144e-08
2.83105e-07
1.8361e-08
2.83167e-07
1.78459e-08
2.83222e-07
1.73661e-08
2.83271e-07
1.6919e-08
2.83314e-07
1.65026e-08
2.8335e-07
1.61152e-08
2.8338e-07
1.57554e-08
2.83404e-07
1.54219e-08
2.83422e-07
1.51138e-08
2.83432e-07
1.48303e-08
2.83436e-07
1.45707e-08
2.83433e-07
1.43346e-08
2.83422e-07
1.41214e-08
2.83404e-07
1.39314e-08
2.83379e-07
1.37637e-08
2.83345e-07
1.36196e-08
2.83303e-07
1.34975e-08
2.83253e-07
1.34002e-08
2.83194e-07
1.33244e-08
2.83127e-07
1.32748e-08
2.8305e-07
1.32463e-08
2.82964e-07
1.32439e-08
2.82869e-07
1.32632e-08
2.82764e-07
1.33019e-08
2.82648e-07
1.3366e-08
2.82518e-07
1.34286e-08
2.82376e-07
1.3525e-08
2.82201e-07
1.35962e-08
2.82004e-07
1.37303e-08
1.39255e-08
2.81757e-07
2.82039e-07
3.6651e-08
2.85087e-07
5.86255e-08
2.86331e-07
4.85944e-08
2.87366e-07
4.17304e-08
2.88186e-07
3.94197e-08
2.88682e-07
3.67258e-08
2.89034e-07
3.37098e-08
2.89344e-07
3.13267e-08
2.89612e-07
2.94963e-08
2.89838e-07
2.79272e-08
2.90033e-07
2.65273e-08
2.90206e-07
2.52862e-08
2.9036e-07
2.41851e-08
2.90498e-07
2.31983e-08
2.90623e-07
2.23054e-08
2.90736e-07
2.14918e-08
2.90838e-07
2.07463e-08
2.9093e-07
2.00602e-08
2.91014e-07
1.94261e-08
2.9109e-07
1.88382e-08
2.91159e-07
1.82919e-08
2.91222e-07
1.77834e-08
2.91278e-07
1.73096e-08
2.91329e-07
1.68684e-08
2.91374e-07
1.64575e-08
2.91414e-07
1.60755e-08
2.91448e-07
1.5721e-08
2.91477e-07
1.53929e-08
2.91501e-07
1.50902e-08
2.91519e-07
1.48121e-08
2.91532e-07
1.45581e-08
2.91539e-07
1.43277e-08
2.9154e-07
1.41204e-08
2.91535e-07
1.39364e-08
2.91523e-07
1.3775e-08
2.91506e-07
1.36373e-08
2.91481e-07
1.35219e-08
2.9145e-07
1.34312e-08
2.91412e-07
1.33626e-08
2.91367e-07
1.33197e-08
2.91314e-07
1.32991e-08
2.91255e-07
1.33035e-08
2.91187e-07
1.33312e-08
2.91111e-07
1.33779e-08
2.91026e-07
1.34506e-08
2.90928e-07
1.35265e-08
2.9082e-07
1.36336e-08
2.90683e-07
1.37333e-08
2.90524e-07
1.38891e-08
1.41225e-08
2.90327e-07
2.90308e-07
3.32321e-08
2.93329e-07
5.56037e-08
2.94579e-07
4.73448e-08
2.95594e-07
4.07156e-08
2.96432e-07
3.85813e-08
2.96955e-07
3.62034e-08
2.97318e-07
3.33464e-08
2.97633e-07
3.10119e-08
2.97907e-07
2.92225e-08
2.98138e-07
2.76962e-08
2.98336e-07
2.63289e-08
2.98511e-07
2.51112e-08
2.98667e-07
2.40291e-08
2.98807e-07
2.30588e-08
2.98932e-07
2.21801e-08
2.99045e-07
2.13789e-08
2.99147e-07
2.06444e-08
2.99239e-07
1.99679e-08
2.99323e-07
1.93426e-08
2.99398e-07
1.87625e-08
2.99467e-07
1.82233e-08
2.99529e-07
1.77213e-08
2.99585e-07
1.72536e-08
2.99635e-07
1.6818e-08
2.9968e-07
1.64125e-08
2.9972e-07
1.60357e-08
2.99755e-07
1.56862e-08
2.99785e-07
1.53631e-08
2.9981e-07
1.50653e-08
2.9983e-07
1.47922e-08
2.99845e-07
1.45432e-08
2.99854e-07
1.43179e-08
2.99859e-07
1.41158e-08
2.99858e-07
1.39372e-08
2.99852e-07
1.37813e-08
2.9984e-07
1.36491e-08
2.99822e-07
1.35396e-08
2.99799e-07
1.34546e-08
2.99769e-07
1.33922e-08
2.99734e-07
1.33551e-08
2.99692e-07
1.33412e-08
2.99644e-07
1.33517e-08
2.99588e-07
1.33865e-08
2.99526e-07
1.34405e-08
2.99456e-07
1.35206e-08
2.99373e-07
1.36087e-08
2.99281e-07
1.37262e-08
2.99164e-07
1.38506e-08
2.99025e-07
1.40273e-08
1.42906e-08
2.98857e-07
2.98847e-07
3.00882e-08
3.01831e-07
5.26189e-08
3.03095e-07
4.60815e-08
3.04088e-07
3.97227e-08
3.0494e-07
3.77291e-08
3.05489e-07
3.56538e-08
3.05865e-07
3.29709e-08
3.06185e-07
3.06918e-08
3.06465e-07
2.89427e-08
3.06701e-07
2.74599e-08
3.06903e-07
2.61269e-08
3.0708e-07
2.49339e-08
3.07238e-07
2.38713e-08
3.07379e-07
2.29179e-08
3.07505e-07
2.20539e-08
3.07618e-07
2.12655e-08
3.07721e-07
2.05423e-08
3.07813e-07
1.98758e-08
3.07896e-07
1.92594e-08
3.07971e-07
1.86874e-08
3.08039e-07
1.81554e-08
3.081e-07
1.76601e-08
3.08155e-07
1.71985e-08
3.08205e-07
1.67686e-08
3.08249e-07
1.63685e-08
3.08287e-07
1.59968e-08
3.08321e-07
1.56523e-08
3.0835e-07
1.53341e-08
3.08375e-07
1.50411e-08
3.08394e-07
1.47729e-08
3.08408e-07
1.45287e-08
3.08418e-07
1.43083e-08
3.08423e-07
1.41112e-08
3.08422e-07
1.39376e-08
3.08416e-07
1.37869e-08
3.08406e-07
1.366e-08
3.08389e-07
1.35559e-08
3.08368e-07
1.34762e-08
3.0834e-07
1.34197e-08
3.08307e-07
1.3388e-08
3.08268e-07
1.33801e-08
3.08224e-07
1.33963e-08
3.08173e-07
1.34374e-08
3.08115e-07
1.34985e-08
3.0805e-07
1.35855e-08
3.07974e-07
1.36851e-08
3.07887e-07
1.3813e-08
3.07778e-07
1.39591e-08
3.0765e-07
1.41559e-08
1.44432e-08
3.07497e-07
3.07666e-07
2.72093e-08
3.10603e-07
4.96826e-08
3.11886e-07
4.47977e-08
3.12857e-07
3.87521e-08
3.13718e-07
3.68684e-08
3.14294e-07
3.50772e-08
3.14683e-07
3.25818e-08
3.15009e-07
3.03662e-08
3.15295e-07
2.86571e-08
3.15536e-07
2.7218e-08
3.15742e-07
2.5921e-08
3.15922e-07
2.47538e-08
3.16082e-07
2.37116e-08
3.16225e-07
2.27756e-08
3.16352e-07
2.19268e-08
3.16466e-07
2.11516e-08
3.16568e-07
2.04399e-08
3.1666e-07
1.97838e-08
3.16743e-07
1.91765e-08
3.16818e-07
1.86127e-08
3.16885e-07
1.80882e-08
3.16945e-07
1.75997e-08
3.16999e-07
1.71444e-08
3.17048e-07
1.67202e-08
3.17091e-07
1.63256e-08
3.17128e-07
1.59592e-08
3.17161e-07
1.56197e-08
3.17189e-07
1.53064e-08
3.17211e-07
1.50183e-08
3.17229e-07
1.47549e-08
3.17242e-07
1.45156e-08
3.17251e-07
1.43001e-08
3.17254e-07
1.4108e-08
3.17252e-07
1.39394e-08
3.17245e-07
1.37938e-08
3.17233e-07
1.36719e-08
3.17216e-07
1.35732e-08
3.17194e-07
1.34987e-08
3.17166e-07
1.34477e-08
3.17132e-07
1.34214e-08
3.17093e-07
1.34193e-08
3.17048e-07
1.34412e-08
3.16997e-07
1.34883e-08
3.16939e-07
1.35564e-08
3.16875e-07
1.36501e-08
3.16799e-07
1.37608e-08
3.16713e-07
1.38994e-08
3.16607e-07
1.40648e-08
3.16482e-07
1.42807e-08
1.4588e-08
3.16337e-07
3.16776e-07
2.45842e-08
3.19653e-07
4.68057e-08
3.20963e-07
4.34876e-08
3.21912e-07
3.78035e-08
3.22776e-07
3.60043e-08
3.23379e-07
3.44744e-08
3.23783e-07
3.21777e-08
3.24114e-07
3.00346e-08
3.24406e-07
2.83658e-08
3.24653e-07
2.69703e-08
3.24864e-07
2.57108e-08
3.25047e-07
2.45708e-08
3.25209e-07
2.35497e-08
3.25353e-07
2.26316e-08
3.25481e-07
2.17985e-08
3.25595e-07
2.10369e-08
3.25698e-07
2.03372e-08
3.2579e-07
1.96916e-08
3.25873e-07
1.90938e-08
3.25947e-07
1.85384e-08
3.26014e-07
1.80216e-08
3.26074e-07
1.754e-08
3.26127e-07
1.70911e-08
3.26174e-07
1.66729e-08
3.26216e-07
1.62839e-08
3.26252e-07
1.59227e-08
3.26284e-07
1.55884e-08
3.2631e-07
1.52801e-08
3.26331e-07
1.4997e-08
3.26348e-07
1.47385e-08
3.26359e-07
1.45041e-08
3.26366e-07
1.42935e-08
3.26367e-07
1.41064e-08
3.26364e-07
1.39428e-08
3.26355e-07
1.38024e-08
3.26342e-07
1.36857e-08
3.26322e-07
1.35923e-08
3.26298e-07
1.35231e-08
3.26268e-07
1.34776e-08
3.26233e-07
1.34566e-08
3.26192e-07
1.34602e-08
3.26145e-07
1.34879e-08
3.26093e-07
1.35409e-08
3.26033e-07
1.3616e-08
3.25966e-07
1.37167e-08
3.25889e-07
1.38381e-08
3.25801e-07
1.39877e-08
3.25695e-07
1.41707e-08
3.25571e-07
1.44045e-08
1.47289e-08
3.2543e-07
3.26187e-07
2.22002e-08
3.28993e-07
4.39992e-08
3.30333e-07
4.21473e-08
3.31261e-07
3.68757e-08
3.32124e-07
3.51416e-08
3.32752e-07
3.38468e-08
3.33172e-07
3.17571e-08
3.3351e-07
2.96967e-08
3.33807e-07
2.80687e-08
3.34061e-07
2.67166e-08
3.34276e-07
2.54959e-08
3.34462e-07
2.43846e-08
3.34626e-07
2.33853e-08
3.34772e-07
2.24858e-08
3.34902e-07
2.16689e-08
3.35017e-07
2.09214e-08
3.35121e-07
2.0234e-08
3.35213e-07
1.95993e-08
3.35296e-07
1.90111e-08
3.3537e-07
1.84644e-08
3.35436e-07
1.79554e-08
3.35495e-07
1.74809e-08
3.35547e-07
1.70386e-08
3.35594e-07
1.66265e-08
3.35634e-07
1.62432e-08
3.3567e-07
1.58875e-08
3.357e-07
1.55584e-08
3.35725e-07
1.52552e-08
3.35745e-07
1.49771e-08
3.35759e-07
1.47236e-08
3.35769e-07
1.44942e-08