/*--------------------------------*- C++ -*----------------------------------*\
  =========                 |
  \\      /  F ield         | OpenFOAM: The Open Source CFD Toolbox
   \\    /   O peration     | Website:  https://openfoam.org
    \\  /    A nd           | Version:  7
     \\/     M anipulation  |
\*---------------------------------------------------------------------------*/
FoamFile
{
    version     2.0;
    format      ascii;
    class       volVectorField;
    location    "0.05";
    object      U;
}
// * * * * * * * * * * * * * * * * * * * * * * * * * * * * * * * * * * * * * //

dimensions      [0 1 -1 0 0 0 0];

internalField   nonuniform List<vector> 
70000
(
(0.553412 0.0169782 0)
(0.251409 0.0034006 0)
(0.165906 0.00031918 0)
(0.132407 4.92003e-05 0)
(0.117284 4.42503e-05 0)
(0.107306 5.24214e-05 0)
(0.0993133 4.46275e-05 0)
(0.0928463 3.55612e-05 0)
(0.0875774 2.95357e-05 0)
(0.083182 2.54104e-05 0)
(0.0794321 2.22609e-05 0)
(0.07618 1.97399e-05 0)
(0.0733244 1.7688e-05 0)
(0.0707913 1.59966e-05 0)
(0.0685242 1.45852e-05 0)
(0.0664796 1.33942e-05 0)
(0.0646231 1.23796e-05 0)
(0.0629274 1.15077e-05 0)
(0.0613701 1.07533e-05 0)
(0.0599329 1.00965e-05 0)
(0.0586007 9.52193e-06 0)
(0.0573607 9.01733e-06 0)
(0.056202 8.57297e-06 0)
(0.0551154 8.18102e-06 0)
(0.0540928 7.83512e-06 0)
(0.0531273 7.53025e-06 0)
(0.0522128 7.26175e-06 0)
(0.0513438 7.0271e-06 0)
(0.0505155 6.82146e-06 0)
(0.0497235 6.64588e-06 0)
(0.048964 6.49242e-06 0)
(0.0482332 6.36894e-06 0)
(0.0475283 6.25881e-06 0)
(0.0468456 6.18357e-06 0)
(0.0461831 6.10814e-06 0)
(0.0455373 6.0783e-06 0)
(0.0449066 6.0308e-06 0)
(0.0442884 6.0342e-06 0)
(0.0436795 6.02389e-06 0)
(0.0430824 6.00164e-06 0)
(0.042484 6.11271e-06 0)
(0.0419081 5.83293e-06 0)
(0.0413025 6.426e-06 0)
(0.040766 5.08132e-06 0)
(0.0401142 7.44363e-06 0)
(0.0396863 2.35317e-06 0)
(0.0388872 1.08847e-05 0)
(0.0387655 -6.95552e-06 0)
(0.0377363 2.42577e-05 0)
(0.0355995 -0.00140015 0)
(0.884863 0.0434937 0)
(0.650137 0.0201501 0)
(0.493939 0.00660651 0)
(0.403478 0.00275704 0)
(0.354721 0.00155057 0)
(0.323352 0.00113461 0)
(0.299393 0.000912484 0)
(0.280118 0.00074817 0)
(0.264334 0.000625746 0)
(0.251138 0.000535533 0)
(0.239878 0.000467109 0)
(0.230114 0.000413322 0)
(0.221539 0.000369925 0)
(0.213931 0.000334275 0)
(0.207121 0.000304571 0)
(0.200978 0.00027952 0)
(0.1954 0.000258173 0)
(0.190305 0.000239818 0)
(0.185626 0.000223914 0)
(0.181309 0.000210042 0)
(0.177307 0.000197877 0)
(0.173584 0.000187161 0)
(0.170105 0.000177688 0)
(0.166845 0.000169292 0)
(0.163778 0.000161841 0)
(0.160884 0.000155224 0)
(0.158145 0.000149351 0)
(0.155544 0.00014415 0)
(0.153067 0.000139557 0)
(0.150701 0.000135529 0)
(0.148435 0.000132014 0)
(0.146258 0.000129001 0)
(0.14416 0.000126424 0)
(0.142131 0.000124328 0)
(0.140165 0.00012259 0)
(0.138252 0.000121364 0)
(0.136386 0.000120377 0)
(0.134559 0.000120005 0)
(0.132763 0.000119675 0)
(0.131003 0.000120121 0)
(0.129242 0.000120359 0)
(0.127543 0.000121382 0)
(0.125765 0.000122257 0)
(0.124167 0.000122725 0)
(0.122262 0.000125226 0)
(0.12093 0.000120329 0)
(0.118628 0.000131301 0)
(0.11802 8.36475e-05 0)
(0.115047 0.000278469 0)
(0.112836 -0.00233014 0)
(0.991209 0.0499564 0)
(0.890917 0.0305652 0)
(0.762456 0.014615 0)
(0.656448 0.0079766 0)
(0.585278 0.00488652 0)
(0.535829 0.00348249 0)
(0.497846 0.00274726 0)
(0.467114 0.00225384 0)
(0.441689 0.00189094 0)
(0.420263 0.00162014 0)
(0.401886 0.00141355 0)
(0.385892 0.00125111 0)
(0.371806 0.00112012 0)
(0.359277 0.00101249 0)
(0.34804 0.000922756 0)
(0.337889 0.000847029 0)
(0.328658 0.00078245 0)
(0.320217 0.000726876 0)
(0.312458 0.00067868 0)
(0.305294 0.000636603 0)
(0.29865 0.000599665 0)
(0.292465 0.000567088 0)
(0.286687 0.000538252 0)
(0.281269 0.000512656 0)
(0.276173 0.000489896 0)
(0.271364 0.00046964 0)
(0.266814 0.000451615 0)
(0.262496 0.0004356 0)
(0.258385 0.000421408 0)
(0.254462 0.000408895 0)
(0.250707 0.000397924 0)
(0.247102 0.000388427 0)
(0.243632 0.000380267 0)
(0.240281 0.000373488 0)
(0.237038 0.000367853 0)
(0.233887 0.00036365 0)
(0.230818 0.000360302 0)
(0.22782 0.000358675 0)
(0.224877 0.000357317 0)
(0.221995 0.000358404 0)
(0.219122 0.00035851 0)
(0.216343 0.000362495 0)
(0.213458 0.000363097 0)
(0.210833 0.000369593 0)
(0.20777 0.000369506 0)
(0.205517 0.000373439 0)
(0.201897 0.000379848 0)
(0.200607 0.000308619 0)
(0.195947 0.00057023 0)
(0.194647 -0.00216304 0)
(1.01554 0.0489546 0)
(1.00649 0.0357279 0)
(0.935862 0.0208263 0)
(0.851942 0.0135084 0)
(0.782098 0.0092102 0)
(0.726862 0.00679772 0)
(0.681667 0.00540349 0)
(0.643785 0.00446401 0)
(0.611637 0.00377099 0)
(0.584028 0.00324669 0)
(0.560021 0.00284204 0)
(0.53891 0.00252172 0)
(0.520167 0.00226227 0)
(0.503388 0.00204831 0)
(0.488259 0.00186935 0)
(0.474531 0.0017179 0)
(0.462002 0.00158841 0)
(0.45051 0.00147673 0)
(0.439919 0.00137968 0)
(0.430117 0.00129478 0)
(0.42101 0.00122011 0)
(0.412519 0.00115414 0)
(0.404575 0.00109563 0)
(0.397119 0.00104359 0)
(0.3901 0.000997224 0)
(0.383473 0.000955856 0)
(0.377198 0.000918951 0)
(0.371242 0.000886056 0)
(0.365572 0.000856806 0)
(0.36016 0.000830899 0)
(0.354982 0.000808077 0)
(0.350013 0.000788172 0)
(0.345234 0.000770956 0)
(0.340623 0.000756443 0)
(0.336164 0.000744271 0)
(0.331837 0.000734856 0)
(0.327629 0.000727275 0)
(0.323523 0.000722985 0)
(0.319501 0.000719405 0)
(0.315566 0.000720694 0)
(0.311657 0.000719916 0)
(0.307869 0.000727846 0)
(0.303971 0.000727168 0)
(0.300377 0.000743253 0)
(0.296295 0.000737595 0)
(0.293123 0.000758675 0)
(0.288437 0.000752379 0)
(0.286292 0.000679643 0)
(0.280419 0.00091613 0)
(0.279092 -0.00153431 0)
(1.01435 0.0460991 0)
(1.04798 0.0373456 0)
(1.02455 0.024196 0)
(0.974632 0.0175713 0)
(0.923378 0.0131266 0)
(0.876567 0.0102266 0)
(0.834302 0.00836973 0)
(0.796433 0.00704984 0)
(0.762739 0.00604161 0)
(0.732777 0.00525654 0)
(0.706035 0.00463709 0)
(0.682043 0.0041389 0)
(0.660403 0.0037306 0)
(0.640783 0.00339075 0)
(0.622907 0.00310432 0)
(0.606545 0.00286035 0)
(0.591503 0.00265062 0)
(0.57762 0.00246887 0)
(0.564758 0.00231026 0)
(0.552801 0.00217101 0)
(0.541648 0.00204812 0)
(0.531213 0.00193919 0)
(0.521422 0.00184231 0)
(0.512208 0.00175589 0)
(0.503516 0.00167866 0)
(0.495293 0.00160957 0)
(0.487496 0.00154773 0)
(0.480084 0.00149243 0)
(0.473022 0.00144308 0)
(0.466276 0.00139918 0)
(0.459817 0.00136032 0)
(0.453618 0.00132621 0)
(0.447654 0.00129652 0)
(0.441901 0.00127119 0)
(0.43634 0.00124976 0)
(0.430947 0.00123273 0)
(0.425706 0.00121884 0)
(0.420598 0.00121015 0)
(0.4156 0.00120289 0)
(0.410714 0.00120338 0)
(0.405877 0.0012008 0)
(0.401179 0.00121257 0)
(0.39639 0.00121009 0)
(0.391912 0.0012368 0)
(0.386972 0.00122539 0)
(0.382913 0.00126555 0)
(0.37743 0.00124641 0)
(0.374302 0.00118096 0)
(0.367786 0.00136913 0)
(0.365394 -0.000770816 0)
(1.00941 0.0430488 0)
(1.05564 0.0371015 0)
(1.05866 0.0253388 0)
(1.03627 0.0197791 0)
(1.00705 0.0158194 0)
(0.975974 0.0129607 0)
(0.944359 0.0109941 0)
(0.913381 0.00951516 0)
(0.8839 0.00832779 0)
(0.856299 0.00736379 0)
(0.830655 0.00657771 0)
(0.806907 0.00592919 0)
(0.784935 0.00538692 0)
(0.764596 0.00492821 0)
(0.745745 0.00453643 0)
(0.72824 0.00419899 0)
(0.711952 0.00390617 0)
(0.696762 0.00365036 0)
(0.682562 0.00342555 0)
(0.669259 0.00322695 0)
(0.656767 0.00305073 0)
(0.645011 0.00289376 0)
(0.633921 0.00275352 0)
(0.623439 0.0026279 0)
(0.613509 0.00251519 0)
(0.604083 0.00241396 0)
(0.595117 0.00232302 0)
(0.58657 0.00224138 0)
(0.578407 0.00216823 0)
(0.570593 0.00210287 0)
(0.5631 0.00204475 0)
(0.555897 0.00199344 0)
(0.548961 0.0019485 0)
(0.542263 0.00190981 0)
(0.535786 0.0018768 0)
(0.529502 0.00185005 0)
(0.523396 0.00182799 0)
(0.517444 0.00181325 0)
(0.511627 0.00180092 0)
(0.505938 0.00179938 0)
(0.500322 0.00179421 0)
(0.494851 0.00180889 0)
(0.489325 0.00180478 0)
(0.484085 0.00184088 0)
(0.478466 0.00182619 0)
(0.473605 0.00188163 0)
(0.46757 0.00185742 0)
(0.463446 0.00179266 0)
(0.456689 0.00194878 0)
(0.452929 9.19894e-05 0)
(1.00635 0.0401809 0)
(1.05241 0.0361552 0)
(1.06605 0.0252633 0)
(1.05951 0.0205863 0)
(1.04684 0.0172501 0)
(1.03074 0.0146843 0)
(1.01178 0.01286 0)
(0.991 0.0114401 0)
(0.96948 0.010248 0)
(0.947946 0.00923756 0)
(0.92684 0.00838276 0)
(0.906428 0.00765543 0)
(0.886854 0.00703122 0)
(0.86819 0.00649146 0)
(0.850456 0.00602176 0)
(0.833637 0.00561073 0)
(0.817704 0.00524913 0)
(0.802612 0.00492949 0)
(0.788315 0.00464568 0)
(0.774763 0.00439269 0)
(0.761905 0.0041664 0)
(0.749694 0.0039634 0)
(0.738083 0.00378085 0)
(0.727029 0.00361638 0)
(0.716491 0.00346802 0)
(0.70643 0.0033341 0)
(0.696812 0.00321322 0)
(0.687601 0.0031042 0)
(0.678769 0.00300607 0)
(0.670284 0.00291799 0)
(0.662121 0.00283929 0)
(0.654252 0.00276944 0)
(0.646655 0.00270793 0)
(0.639305 0.00265459 0)
(0.632184 0.00260875 0)
(0.625265 0.00257108 0)
(0.618535 0.00253978 0)
(0.611968 0.0025179 0)
(0.605549 0.00249972 0)
(0.599264 0.00249514 0)
(0.593071 0.00248708 0)
(0.587017 0.00250346 0)
(0.580948 0.00249864 0)
(0.575119 0.00254167 0)
(0.569016 0.00252776 0)
(0.563506 0.00259197 0)
(0.557129 0.00257309 0)
(0.552149 0.00250036 0)
(0.545332 0.00263975 0)
(0.540434 0.00105851 0)
(1.00506 0.0375039 0)
(1.04762 0.0350574 0)
(1.06395 0.0247168 0)
(1.06416 0.0206192 0)
(1.06065 0.0177912 0)
(1.05471 0.0155295 0)
(1.04591 0.0139223 0)
(1.03464 0.0126692 0)
(1.02164 0.0115897 0)
(1.00751 0.0106442 0)
(0.992695 0.00981882 0)
(0.977557 0.00909588 0)
(0.962358 0.0084587 0)
(0.947294 0.00789429 0)
(0.932501 0.00739248 0)
(0.918071 0.00694491 0)
(0.904063 0.00654449 0)
(0.890511 0.00618521 0)
(0.877434 0.00586198 0)
(0.864834 0.00557045 0)
(0.852707 0.00530695 0)
(0.841041 0.00506834 0)
(0.829823 0.00485196 0)
(0.819033 0.00465553 0)
(0.808652 0.00447712 0)
(0.79866 0.00431504 0)
(0.789035 0.00416789 0)
(0.779756 0.00403445 0)
(0.770804 0.00391372 0)
(0.762156 0.00380482 0)
(0.753795 0.00370706 0)
(0.745699 0.00361985 0)
(0.737852 0.00354268 0)
(0.730231 0.00347537 0)
(0.722824 0.00341724 0)
(0.715607 0.00336901 0)
(0.70857 0.00332876 0)
(0.701688 0.00329986 0)
(0.69495 0.00327607 0)
(0.68834 0.00326829 0)
(0.681828 0.00325789 0)
(0.675439 0.0032752 0)
(0.669063 0.00327125 0)
(0.662876 0.00331886 0)
(0.656511 0.00331008 0)
(0.650576 0.00337729 0)
(0.64405 0.00337184 0)
(0.638473 0.00328894 0)
(0.631688 0.00341759 0)
(0.626033 0.00210768 0)
(1.00451 0.0349682 0)
(1.04359 0.0339779 0)
(1.05992 0.0240669 0)
(1.06221 0.0203313 0)
(1.06248 0.0178585 0)
(1.06179 0.0158123 0)
(1.05917 0.0143803 0)
(1.05457 0.0132945 0)
(1.04829 0.0123588 0)
(1.04064 0.011527 0)
(1.03189 0.0107879 0)
(1.02231 0.0101277 0)
(1.01212 0.00953367 0)
(1.00152 0.0089964 0)
(0.990665 0.00850907 0)
(0.979694 0.00806615 0)
(0.968708 0.00766293 0)
(0.957787 0.00729531 0)
(0.946993 0.00695969 0)
(0.936371 0.00665295 0)
(0.925953 0.00637233 0)
(0.915762 0.00611542 0)
(0.905813 0.00588013 0)
(0.896112 0.00566461 0)
(0.886664 0.00546724 0)
(0.877467 0.00528661 0)
(0.868519 0.00512152 0)
(0.859812 0.00497088 0)
(0.851341 0.00483382 0)
(0.843095 0.00470954 0)
(0.835065 0.00459745 0)
(0.827241 0.00449701 0)
(0.819611 0.00440779 0)
(0.812163 0.00432964 0)
(0.804887 0.00426196 0)
(0.797767 0.00420553 0)
(0.790796 0.00415845 0)
(0.783954 0.00412428 0)
(0.777235 0.0040966 0)
(0.770622 0.00408675 0)
(0.764097 0.00407567 0)
(0.757669 0.00409421 0)
(0.751266 0.00409339 0)
(0.745002 0.00414435 0)
(0.738625 0.00414469 0)
(0.732542 0.00421178 0)
(0.726074 0.00422431 0)
(0.720212 0.00413559 0)
(0.713577 0.00425523 0)
(0.707541 0.00320401 0)
(1.00412 0.0325377 0)
(1.04026 0.032925 0)
(1.05616 0.0234333 0)
(1.05885 0.0199483 0)
(1.06021 0.0177316 0)
(1.06156 0.0158179 0)
(1.0619 0.0144882 0)
(1.06096 0.0135189 0)
(1.05885 0.0127005 0)
(1.05566 0.0119759 0)
(1.05149 0.0113314 0)
(1.04645 0.0107529 0)
(1.04066 0.0102275 0)
(1.03425 0.00974659 0)
(1.02733 0.00930434 0)
(1.02002 0.00889659 0)
(1.0124 0.00851999 0)
(1.00457 0.00817176 0)
(0.996598 0.00784952 0)
(0.988541 0.00755121 0)
(0.98045 0.00727501 0)
(0.972366 0.00701932 0)
(0.964321 0.00678273 0)
(0.95634 0.00656397 0)
(0.948444 0.00636192 0)
(0.940648 0.00617555 0)
(0.932963 0.006004 0)
(0.925395 0.00584648 0)
(0.917951 0.00570236 0)
(0.910631 0.00557103 0)
(0.903437 0.00545208 0)
(0.896365 0.00534513 0)
(0.889416 0.00524989 0)
(0.882581 0.00516634 0)
(0.87586 0.00509397 0)
(0.869242 0.00503372 0)
(0.862725 0.00498375 0)
(0.856295 0.00494777 0)
(0.849951 0.00491944 0)
(0.843678 0.00491015 0)
(0.837467 0.00490124 0)
(0.831321 0.00492264 0)
(0.825192 0.00492793 0)
(0.819151 0.00498257 0)
(0.813035 0.00499557 0)
(0.807104 0.00506235 0)
(0.800924 0.00509499 0)
(0.795101 0.0050085 0)
(0.788784 0.00512089 0)
(0.782718 0.00430832 0)
(1.00374 0.0302036 0)
(1.03727 0.0318765 0)
(1.05282 0.0228308 0)
(1.05561 0.0195477 0)
(1.05712 0.0175434 0)
(1.05902 0.015719 0)
(1.06043 0.0144378 0)
(1.06109 0.0135328 0)
(1.06105 0.0127888 0)
(1.06034 0.0121395 0)
(1.05897 0.0115685 0)
(1.05695 0.0110605 0)
(1.0543 0.0106011 0)
(1.05108 0.0101803 0)
(1.04734 0.00979192 0)
(1.04314 0.00943166 0)
(1.03855 0.00909634 0)
(1.03362 0.00878354 0)
(1.0284 0.00849135 0)
(1.02296 0.00821825 0)
(1.01733 0.00796299 0)
(1.01155 0.00772449 0)
(1.00567 0.00750186 0)
(0.999707 0.0072943 0)
(0.993692 0.00710113 0)
(0.987647 0.00692172 0)
(0.981589 0.00675556 0)
(0.975536 0.00660215 0)
(0.969498 0.00646114 0)
(0.963485 0.00633218 0)
(0.957505 0.00621507 0)
(0.951563 0.00610961 0)
(0.945664 0.00601573 0)
(0.939808 0.00593354 0)
(0.933998 0.00586272 0)
(0.928231 0.00580433 0)
(0.922508 0.0057567 0)
(0.916823 0.00572362 0)
(0.911177 0.00569905 0)
(0.90556 0.00569409 0)
(0.899968 0.00569115 0)
(0.894403 0.0057182 0)
(0.888835 0.00573311 0)
(0.883308 0.0057932 0)
(0.877719 0.00582208 0)
(0.872228 0.00589065 0)
(0.866568 0.00594437 0)
(0.861089 0.00586952 0)
(0.855281 0.00597799 0)
(0.849505 0.00537942 0)
(1.00337 0.0279682 0)
(1.03443 0.0308198 0)
(1.04972 0.0222533 0)
(1.05265 0.0191444 0)
(1.05411 0.0173367 0)
(1.05608 0.015591 0)
(1.05776 0.0143324 0)
(1.05894 0.013459 0)
(1.05972 0.0127564 0)
(1.06013 0.0121512 0)
(1.06016 0.0116262 0)
(1.05978 0.0111659 0)
(1.059 0.0107548 0)
(1.0578 0.0103819 0)
(1.0562 0.0100398 0)
(1.05423 0.00972359 0)
(1.05189 0.00942949 0)
(1.04924 0.00915484 0)
(1.04628 0.00889761 0)
(1.04305 0.00865626 0)
(1.03959 0.00842963 0)
(1.03592 0.00821684 0)
(1.03207 0.00801719 0)
(1.02806 0.00783011 0)
(1.02392 0.00765518 0)
(1.01966 0.00749202 0)
(1.01532 0.00734034 0)
(1.01089 0.00719988 0)
(1.0064 0.00707052 0)
(1.00186 0.0069521 0)
(0.997278 0.00684463 0)
(0.992663 0.0067481 0)
(0.988024 0.00666257 0)
(0.983365 0.00658836 0)
(0.978691 0.00652529 0)
(0.974004 0.00647457 0)
(0.969308 0.0064347 0)
(0.964602 0.00640954 0)
(0.959887 0.00639343 0)
(0.955162 0.00639699 0)
(0.950423 0.00640411 0)
(0.945674 0.00644012 0)
(0.940895 0.00646826 0)
(0.936115 0.0065364 0)
(0.931272 0.00658393 0)
(0.926457 0.00665782 0)
(0.92152 0.00673303 0)
(0.916636 0.00667897 0)
(0.911516 0.00678838 0)
(0.906295 0.00637721 0)
(1.00301 0.0258351 0)
(1.03171 0.0297511 0)
(1.04672 0.021697 0)
(1.04985 0.0187382 0)
(1.0513 0.0171182 0)
(1.05322 0.015456 0)
(1.05494 0.0142134 0)
(1.05624 0.0133568 0)
(1.05725 0.012678 0)
(1.05805 0.0120972 0)
(1.05864 0.0115975 0)
(1.05901 0.0111648 0)
(1.05914 0.0107834 0)
(1.05902 0.0104418 0)
(1.05864 0.0101319 0)
(1.058 0.00984818 0)
(1.05711 0.00958641 0)
(1.05596 0.00934344 0)
(1.05458 0.00911688 0)
(1.05296 0.00890493 0)
(1.05113 0.00870626 0)
(1.0491 0.00851988 0)
(1.04688 0.00834507 0)
(1.0445 0.00818126 0)
(1.04195 0.00802809 0)
(1.03927 0.00788524 0)
(1.03645 0.00775253 0)
(1.03352 0.00762982 0)
(1.03049 0.00751709 0)
(1.02736 0.0074143 0)
(1.02414 0.00732158 0)
(1.02085 0.00723905 0)
(1.01749 0.0071669 0)
(1.01407 0.00710557 0)
(1.01059 0.00705499 0)
(1.00705 0.00701651 0)
(1.00347 0.00698878 0)
(0.99984 0.00697566 0)
(0.996165 0.00697194 0)
(0.992446 0.0069876 0)
(0.988681 0.00700829 0)
(0.984876 0.00705624 0)
(0.981018 0.0071006 0)
(0.977126 0.00717944 0)
(0.973163 0.00724755 0)
(0.969178 0.00733067 0)
(0.965092 0.00742732 0)
(0.960977 0.0074017 0)
(0.956671 0.00751757 0)
(0.952192 0.00726732 0)
(1.00268 0.0238068 0)
(1.02911 0.0286685 0)
(1.04381 0.0211615 0)
(1.04716 0.018329 0)
(1.04861 0.0168865 0)
(1.0505 0.0153167 0)
(1.05221 0.0140918 0)
(1.05351 0.0132473 0)
(1.05456 0.0125855 0)
(1.05546 0.0120204 0)
(1.05623 0.0115351 0)
(1.05686 0.0111174 0)
(1.05736 0.0107526 0)
(1.05771 0.010429 0)
(1.05791 0.0101385 0)
(1.05796 0.00987535 0)
(1.05784 0.00963499 0)
(1.05756 0.00941401 0)
(1.05712 0.00920974 0)
(1.05651 0.00902013 0)
(1.05574 0.00884365 0)
(1.05481 0.00867912 0)
(1.05373 0.00852568 0)
(1.05251 0.0083827 0)
(1.05115 0.00824972 0)
(1.04966 0.0081264 0)
(1.04804 0.00801257 0)
(1.04631 0.00790808 0)
(1.04446 0.00781292 0)
(1.04251 0.00772712 0)
(1.04047 0.00765082 0)
(1.03833 0.00758424 0)
(1.0361 0.00752757 0)
(1.0338 0.00748138 0)
(1.03141 0.00744563 0)
(1.02895 0.00742178 0)
(1.02642 0.00740857 0)
(1.02382 0.00740981 0)
(1.02116 0.0074208 0)
(1.01843 0.00745068 0)
(1.01564 0.00748705 0)
(1.01278 0.00754879 0)
(1.00986 0.00761107 0)
(1.00689 0.00770252 0)
(1.00383 0.00779185 0)
(1.00073 0.00788752 0)
(0.997531 0.00800494 0)
(0.994254 0.00801303 0)
(0.99081 0.00814057 0)
(0.987161 0.00802592 0)
(1.00238 0.0218851 0)
(1.02664 0.0275713 0)
(1.04099 0.0206465 0)
(1.04456 0.0179183 0)
(1.04602 0.0166401 0)
(1.04788 0.0151716 0)
(1.04959 0.0139688 0)
(1.05088 0.0131355 0)
(1.05192 0.0124892 0)
(1.05283 0.0119371 0)
(1.05363 0.0114619 0)
(1.05433 0.0110535 0)
(1.05494 0.0106984 0)
(1.05546 0.0103852 0)
(1.05589 0.0101058 0)
(1.05622 0.00985448 0)
(1.05646 0.00962686 0)
(1.0566 0.00941939 0)
(1.05663 0.0092293 0)
(1.05657 0.00905442 0)
(1.05639 0.00889309 0)
(1.05611 0.00874401 0)
(1.05573 0.00860623 0)
(1.05524 0.00847901 0)
(1.05465 0.00836182 0)
(1.05395 0.00825427 0)
(1.05316 0.00815612 0)
(1.05226 0.0080672 0)
(1.05128 0.00798747 0)
(1.0502 0.00791697 0)
(1.04903 0.00785581 0)
(1.04778 0.00780422 0)
(1.04644 0.00776242 0)
(1.04502 0.007731 0)
(1.04353 0.00770993 0)
(1.04196 0.00770071 0)
(1.04031 0.0077022 0)
(1.03859 0.00771803 0)
(1.0368 0.00774406 0)
(1.03493 0.00778846 0)
(1.033 0.00784085 0)
(1.031 0.00791671 0)
(1.02893 0.00799695 0)
(1.0268 0.00810167 0)
(1.02459 0.00821137 0)
(1.02231 0.00832165 0)
(1.01994 0.0084584 0)
(1.01748 0.00850265 0)
(1.01486 0.00864598 0)
(1.01203 0.00864335 0)
(1.0021 0.0200709 0)
(1.0243 0.0264615 0)
(1.03826 0.0201497 0)
(1.04203 0.0175081 0)
(1.04351 0.0163792 0)
(1.04535 0.0150195 0)
(1.04706 0.0138438 0)
(1.04835 0.0130219 0)
(1.04938 0.0123909 0)
(1.05027 0.0118518 0)
(1.05106 0.0113857 0)
(1.05177 0.0109848 0)
(1.05239 0.0106367 0)
(1.05295 0.0103302 0)
(1.05345 0.0100578 0)
(1.05388 0.00981363 0)
(1.05425 0.00959355 0)
(1.05456 0.00939406 0)
(1.0548 0.00921243 0)
(1.05498 0.00904649 0)
(1.0551 0.00889455 0)
(1.05515 0.0087553 0)
(1.05513 0.00862773 0)
(1.05504 0.00851106 0)
(1.05488 0.00840475 0)
(1.05465 0.00830836 0)
(1.05435 0.00822161 0)
(1.05398 0.00814432 0)
(1.05354 0.00807642 0)
(1.05303 0.00801791 0)
(1.05245 0.00796889 0)
(1.0518 0.00792961 0)
(1.05108 0.00790024 0)
(1.0503 0.0078814 0)
(1.04945 0.00787305 0)
(1.04853 0.00787668 0)
(1.04754 0.00789126 0)
(1.04649 0.00792019 0)
(1.04537 0.00795991 0)
(1.04419 0.00801752 0)
(1.04294 0.00808465 0)
(1.04163 0.00817352 0)
(1.04025 0.00827022 0)
(1.03881 0.00838764 0)
(1.0373 0.00851551 0)
(1.03571 0.008641 0)
(1.03406 0.00879492 0)
(1.03229 0.00887509 0)
(1.03038 0.00903681 0)
(1.02828 0.00912481 0)
(1.00185 0.0183644 0)
(1.0221 0.0253431 0)
(1.03562 0.0196674 0)
(1.03959 0.0171002 0)
(1.0411 0.0161043 0)
(1.0429 0.0148593 0)
(1.04461 0.0137164 0)
(1.04591 0.0129062 0)
(1.04693 0.0122906 0)
(1.0478 0.0117651 0)
(1.04858 0.0113085 0)
(1.04927 0.0109147 0)
(1.0499 0.0105728 0)
(1.05045 0.0102721 0)
(1.05096 0.0100049 0)
(1.05141 0.0097659 0)
(1.05181 0.00955089 0)
(1.05217 0.00935654 0)
(1.05249 0.00918019 0)
(1.05276 0.00901974 0)
(1.05299 0.00887353 0)
(1.05318 0.00874029 0)
(1.05332 0.00861903 0)
(1.05342 0.00850898 0)
(1.05348 0.0084096 0)
(1.05349 0.00832047 0)
(1.05345 0.0082413 0)
(1.05336 0.0081719 0)
(1.05323 0.0081122 0)
(1.05305 0.00806221 0)
(1.05281 0.00802201 0)
(1.05253 0.00799185 0)
(1.0522 0.00797186 0)
(1.05181 0.00796271 0)
(1.05137 0.00796431 0)
(1.05088 0.00797815 0)
(1.05034 0.00800331 0)
(1.04974 0.0080429 0)
(1.04909 0.00809398 0)
(1.04839 0.00816255 0)
(1.04763 0.00824214 0)
(1.04681 0.00834201 0)
(1.04594 0.00845267 0)
(1.04502 0.00858126 0)
(1.04403 0.00872429 0)
(1.04298 0.00886435 0)
(1.04187 0.0090329 0)
(1.04065 0.00914667 0)
(1.03931 0.00932788 0)
(1.03779 0.00948772 0)
(1.00162 0.0167655 0)
(1.02004 0.0242203 0)
(1.03309 0.0191955 0)
(1.03725 0.0166961 0)
(1.03878 0.0158165 0)
(1.04055 0.0146906 0)
(1.04225 0.0135863 0)
(1.04355 0.0127882 0)
(1.04456 0.0121882 0)
(1.04543 0.0116769 0)
(1.04619 0.0112302 0)
(1.04687 0.0108439 0)
(1.04748 0.0105082 0)
(1.04803 0.010213 0)
(1.04852 0.00995077 0)
(1.04897 0.00971624 0)
(1.04938 0.0095054 0)
(1.04974 0.00931504 0)
(1.05007 0.00914257 0)
(1.05037 0.00898596 0)
(1.05064 0.00884362 0)
(1.05087 0.00871432 0)
(1.05107 0.00859711 0)
(1.05125 0.00849129 0)
(1.05139 0.00839632 0)
(1.0515 0.00831183 0)
(1.05158 0.00823755 0)
(1.05163 0.00817332 0)
(1.05164 0.00811907 0)
(1.05162 0.00807483 0)
(1.05157 0.00804068 0)
(1.05148 0.00801688 0)
(1.05136 0.00800357 0)
(1.0512 0.0080014 0)
(1.051 0.00801033 0)
(1.05076 0.00803176 0)
(1.05048 0.00806493 0)
(1.05016 0.00811264 0)
(1.0498 0.00817256 0)
(1.0494 0.00824963 0)
(1.04895 0.00833911 0)
(1.04846 0.0084477 0)
(1.04793 0.00856951 0)
(1.04735 0.00870741 0)
(1.04672 0.00886242 0)
(1.04604 0.00901567 0)
(1.0453 0.00919637 0)
(1.04447 0.0093402 0)
(1.04353 0.00954084 0)
(1.04244 0.00975668 0)
(1.00142 0.0152733 0)
(1.01811 0.0230972 0)
(1.03067 0.01873 0)
(1.03498 0.0162973 0)
(1.03656 0.0155171 0)
(1.03829 0.0145126 0)
(1.03998 0.0134531 0)
(1.04129 0.0126681 0)
(1.04229 0.0120834 0)
(1.04314 0.011587 0)
(1.04389 0.011151 0)
(1.04456 0.0107723 0)
(1.04516 0.0104431 0)
(1.0457 0.0101535 0)
(1.04618 0.00989625 0)
(1.04662 0.00966613 0)
(1.04701 0.00945928 0)
(1.04737 0.00927258 0)
(1.0477 0.00910352 0)
(1.04799 0.00895015 0)
(1.04826 0.00881091 0)
(1.0485 0.00868463 0)
(1.04872 0.00857043 0)
(1.04891 0.00846764 0)
(1.04908 0.00837577 0)
(1.04923 0.00829448 0)
(1.04935 0.00822355 0)
(1.04945 0.00816285 0)
(1.04953 0.00811233 0)
(1.04958 0.00807205 0)
(1.04961 0.00804209 0)
(1.04961 0.00802275 0)
(1.04959 0.00801417 0)
(1.04953 0.008017 0)
(1.04945 0.00803123 0)
(1.04934 0.0080582 0)
(1.04921 0.00809732 0)
(1.04904 0.00815106 0)
(1.04884 0.00821768 0)
(1.0486 0.00830116 0)
(1.04834 0.00839826 0)
(1.04804 0.00851358 0)
(1.0477 0.00864398 0)
(1.04733 0.00878947 0)
(1.04693 0.00895369 0)
(1.04647 0.00911856 0)
(1.04597 0.00930941 0)
(1.04539 0.00947938 0)
(1.04471 0.00969873 0)
(1.04391 0.00995777 0)
(1.00124 0.0138863 0)
(1.01632 0.0219777 0)
(1.02835 0.0182672 0)
(1.03281 0.015905 0)
(1.03443 0.0152078 0)
(1.03611 0.0143248 0)
(1.0378 0.0133164 0)
(1.03911 0.0125459 0)
(1.04011 0.0119762 0)
(1.04095 0.0114953 0)
(1.04169 0.0110705 0)
(1.04235 0.0106999 0)
(1.04294 0.0103774 0)
(1.04346 0.0100936 0)
(1.04393 0.0098415 0)
(1.04435 0.00961589 0)
(1.04474 0.00941308 0)
(1.04509 0.00923003 0)
(1.0454 0.00906432 0)
(1.04569 0.00891403 0)
(1.04595 0.00877768 0)
(1.04619 0.00865413 0)
(1.0464 0.00854255 0)
(1.04659 0.00844231 0)
(1.04677 0.00835298 0)
(1.04692 0.00827426 0)
(1.04705 0.00820595 0)
(1.04717 0.00814797 0)
(1.04726 0.00810029 0)
(1.04734 0.008063 0)
(1.04739 0.00803621 0)
(1.04743 0.00802023 0)
(1.04744 0.00801521 0)
(1.04744 0.00802181 0)
(1.04741 0.00804007 0)
(1.04736 0.00807124 0)
(1.04728 0.00811493 0)
(1.04718 0.00817328 0)
(1.04706 0.0082451 0)
(1.04691 0.00833352 0)
(1.04674 0.00843655 0)
(1.04654 0.00855718 0)
(1.04631 0.00869423 0)
(1.04605 0.00884603 0)
(1.04576 0.00901741 0)
(1.04544 0.00919254 0)
(1.04507 0.00939219 0)
(1.04463 0.00958464 0)
(1.04411 0.00982176 0)
(1.04349 0.0101142 0)
(1.00107 0.0126027 0)
(1.01466 0.0208661 0)
(1.02614 0.0178037 0)
(1.03072 0.0155202 0)
(1.03239 0.0148905 0)
(1.03404 0.0141269 0)
(1.0357 0.0131759 0)
(1.03702 0.0124217 0)
(1.03802 0.0118666 0)
(1.03885 0.0114015 0)
(1.03958 0.0109887 0)
(1.04023 0.0106266 0)
(1.0408 0.010311 0)
(1.04132 0.0100333 0)
(1.04177 0.00978648 0)
(1.04219 0.00956555 0)
(1.04256 0.00936689 0)
(1.0429 0.00918759 0)
(1.04321 0.00902528 0)
(1.04348 0.0088781 0)
(1.04373 0.00874462 0)
(1.04396 0.00862376 0)
(1.04417 0.00851472 0)
(1.04435 0.00841691 0)
(1.04452 0.00832995 0)
(1.04467 0.00825356 0)
(1.0448 0.00818761 0)
(1.04491 0.00813203 0)
(1.045 0.00808682 0)
(1.04508 0.00805211 0)
(1.04514 0.00802801 0)
(1.04519 0.00801486 0)
(1.04521 0.00801283 0)
(1.04522 0.00802258 0)
(1.04521 0.00804421 0)
(1.04518 0.00807886 0)
(1.04513 0.00812634 0)
(1.04506 0.00818848 0)
(1.04497 0.00826459 0)
(1.04485 0.00835709 0)
(1.04472 0.00846498 0)
(1.04456 0.00859008 0)
(1.04438 0.00873252 0)
(1.04418 0.00888986 0)
(1.04395 0.00906712 0)
(1.04368 0.0092515 0)
(1.04338 0.00945928 0)
(1.04302 0.00967116 0)
(1.04259 0.0099251 0)
(1.04206 0.0102436 0)
(1.00093 0.0114198 0)
(1.01314 0.0197662 0)
(1.02405 0.0173364 0)
(1.02872 0.0151433 0)
(1.03045 0.014567 0)
(1.03206 0.0139184 0)
(1.0337 0.0130308 0)
(1.03502 0.0122953 0)
(1.03601 0.0117547 0)
(1.03684 0.0113057 0)
(1.03756 0.0109054 0)
(1.0382 0.0105523 0)
(1.03876 0.0102439 0)
(1.03927 0.00997246 0)
(1.03971 0.00973113 0)
(1.04012 0.00951503 0)
(1.04048 0.00932068 0)
(1.04081 0.00914524 0)
(1.0411 0.00898643 0)
(1.04137 0.00884245 0)
(1.04161 0.00871191 0)
(1.04183 0.00859378 0)
(1.04203 0.00848729 0)
(1.0422 0.00839192 0)
(1.04236 0.00830732 0)
(1.0425 0.00823324 0)
(1.04263 0.00816959 0)
(1.04273 0.00811633 0)
(1.04282 0.00807349 0)
(1.0429 0.00804122 0)
(1.04295 0.00801965 0)
(1.043 0.00800914 0)
(1.04302 0.00800989 0)
(1.04303 0.00802252 0)
(1.04302 0.00804722 0)
(1.04299 0.00808503 0)
(1.04294 0.00813594 0)
(1.04288 0.00820151 0)
(1.0428 0.00828146 0)
(1.0427 0.00837765 0)
(1.04258 0.00848981 0)
(1.04244 0.00861899 0)
(1.04228 0.00876612 0)
(1.04209 0.00892863 0)
(1.04189 0.00911114 0)
(1.04165 0.00930412 0)
(1.04137 0.00951987 0)
(1.04105 0.00974878 0)
(1.04066 0.0100187 0)
(1.04019 0.0103581 0)
(1.0008 0.0103342 0)
(1.01174 0.0186823 0)
(1.02206 0.0168625 0)
(1.0268 0.0147748 0)
(1.0286 0.0142394 0)
(1.03017 0.0136994 0)
(1.03178 0.0128805 0)
(1.0331 0.0121668 0)
(1.0341 0.0116404 0)
(1.03492 0.0112076 0)
(1.03563 0.0108206 0)
(1.03626 0.0104769 0)
(1.03682 0.0101759 0)
(1.03731 0.00991101 0)
(1.03775 0.00967538 0)
(1.03814 0.0094643 0)
(1.0385 0.00927439 0)
(1.03881 0.00910293 0)
(1.0391 0.00894774 0)
(1.03936 0.00880705 0)
(1.03959 0.00867953 0)
(1.0398 0.0085642 0)
(1.03999 0.00846034 0)
(1.04016 0.00836747 0)
(1.04031 0.00828526 0)
(1.04044 0.00821353 0)
(1.04055 0.0081522 0)
(1.04065 0.00810127 0)
(1.04074 0.00806081 0)
(1.0408 0.00803097 0)
(1.04085 0.00801192 0)
(1.04089 0.00800402 0)
(1.04091 0.00800749 0)
(1.04091 0.00802296 0)
(1.0409 0.00805065 0)
(1.04087 0.00809153 0)
(1.04082 0.00814574 0)
(1.04076 0.00821462 0)
(1.04067 0.00829821 0)
(1.04057 0.00839797 0)
(1.04046 0.00851413 0)
(1.04032 0.0086473 0)
(1.04016 0.00879879 0)
(1.03999 0.00896637 0)
(1.03979 0.00915397 0)
(1.03956 0.00935515 0)
(1.03929 0.00957901 0)
(1.03898 0.00982311 0)
(1.03861 0.0101082 0)
(1.03818 0.0104649 0)
(1.00069 0.00934218 0)
(1.01046 0.0176185 0)
(1.02019 0.0163798 0)
(1.02497 0.0144145 0)
(1.02684 0.0139098 0)
(1.02837 0.01347 0)
(1.02996 0.0127246 0)
(1.03128 0.012036 0)
(1.03228 0.0115237 0)
(1.03309 0.0111071 0)
(1.03379 0.0107341 0)
(1.03441 0.0104004 0)
(1.03496 0.0101071 0)
(1.03544 0.00984888 0)
(1.03588 0.00961916 0)
(1.03626 0.00941327 0)
(1.0366 0.00922796 0)
(1.03691 0.00906063 0)
(1.03719 0.00890915 0)
(1.03744 0.00877186 0)
(1.03766 0.00864746 0)
(1.03787 0.00853501 0)
(1.03805 0.00843385 0)
(1.03821 0.00834353 0)
(1.03835 0.00826378 0)
(1.03847 0.00819446 0)
(1.03858 0.0081355 0)
(1.03867 0.00808696 0)
(1.03875 0.00804892 0)
(1.03881 0.00802156 0)
(1.03885 0.00800506 0)
(1.03888 0.0079998 0)
(1.0389 0.00800603 0)
(1.03889 0.00802435 0)
(1.03887 0.00805504 0)
(1.03884 0.008099 0)
(1.03879 0.0081565 0)
(1.03872 0.0082287 0)
(1.03863 0.00831589 0)
(1.03853 0.00841923 0)
(1.03841 0.00853931 0)
(1.03827 0.00867651 0)
(1.03811 0.00883227 0)
(1.03794 0.00900495 0)
(1.03774 0.0091977 0)
(1.03751 0.00940685 0)
(1.03725 0.00963904 0)
(1.03694 0.00989694 0)
(1.03658 0.0101963 0)
(1.03617 0.0105679 0)
(1.0006 0.00843946 0)
(1.0093 0.0165788 0)
(1.01843 0.0158865 0)
(1.02323 0.014062 0)
(1.02517 0.0135799 0)
(1.02666 0.0132308 0)
(1.02822 0.0125623 0)
(1.02954 0.0119028 0)
(1.03054 0.0114048 0)
(1.03134 0.0110043 0)
(1.03204 0.0106457 0)
(1.03265 0.0103225 0)
(1.03319 0.0100373 0)
(1.03367 0.009786 0)
(1.03409 0.00956238 0)
(1.03447 0.00936188 0)
(1.03481 0.00918133 0)
(1.03511 0.00901825 0)
(1.03538 0.00887062 0)
(1.03562 0.00873682 0)
(1.03583 0.00861563 0)
(1.03603 0.00850615 0)
(1.0362 0.00840776 0)
(1.03635 0.00832008 0)
(1.03649 0.00824286 0)
(1.0366 0.008176 0)
(1.0367 0.00811949 0)
(1.03679 0.00807339 0)
(1.03686 0.00803783 0)
(1.03691 0.008013 0)
(1.03695 0.00799912 0)
(1.03697 0.00799655 0)
(1.03698 0.00800559 0)
(1.03697 0.00802681 0)
(1.03695 0.00806056 0)
(1.03691 0.00810765 0)
(1.03685 0.00816847 0)
(1.03678 0.00824404 0)
(1.03669 0.00833484 0)
(1.03659 0.00844184 0)
(1.03646 0.00856583 0)
(1.03632 0.00870716 0)
(1.03616 0.00886723 0)
(1.03598 0.00904508 0)
(1.03578 0.00924317 0)
(1.03555 0.00946011 0)
(1.03529 0.00970087 0)
(1.03498 0.00997145 0)
(1.03464 0.0102844 0)
(1.03423 0.0106689 0)
(1.00051 0.00762123 0)
(1.00825 0.0155671 0)
(1.01679 0.0153813 0)
(1.02157 0.0137169 0)
(1.02358 0.0132516 0)
(1.02505 0.0129824 0)
(1.02657 0.0123932 0)
(1.02788 0.0117669 0)
(1.02888 0.0112837 0)
(1.02968 0.0108989 0)
(1.03037 0.0105552 0)
(1.03098 0.0102433 0)
(1.03151 0.00996648 0)
(1.03198 0.00972227 0)
(1.0324 0.00950497 0)
(1.03277 0.00931005 0)
(1.0331 0.00913442 0)
(1.03339 0.00897574 0)