/*--------------------------------*- C++ -*----------------------------------*\
  =========                 |
  \\      /  F ield         | OpenFOAM: The Open Source CFD Toolbox
   \\    /   O peration     | Website:  https://openfoam.org
    \\  /    A nd           | Version:  7
     \\/     M anipulation  |
\*---------------------------------------------------------------------------*/
FoamFile
{
    version     2.0;
    format      ascii;
    class       volVectorField;
    location    "0.05";
    object      U_0;
}
// * * * * * * * * * * * * * * * * * * * * * * * * * * * * * * * * * * * * * //

dimensions      [0 1 -1 0 0 0 0];

internalField   nonuniform List<vector> 
70000
(
(0.553412 0.0169782 0)
(0.251409 0.0034006 0)
(0.165906 0.000319182 0)
(0.132407 4.92013e-05 0)
(0.117284 4.42513e-05 0)
(0.107306 5.24224e-05 0)
(0.0993128 4.46285e-05 0)
(0.0928458 3.55622e-05 0)
(0.0875768 2.95368e-05 0)
(0.0831813 2.54114e-05 0)
(0.0794313 2.2262e-05 0)
(0.0761792 1.9741e-05 0)
(0.0733236 1.76892e-05 0)
(0.0707903 1.59978e-05 0)
(0.0685232 1.45864e-05 0)
(0.0664785 1.33955e-05 0)
(0.064622 1.23809e-05 0)
(0.0629262 1.15091e-05 0)
(0.0613688 1.07549e-05 0)
(0.0599315 1.00981e-05 0)
(0.0585993 9.52366e-06 0)
(0.0573591 9.01918e-06 0)
(0.0562004 8.57494e-06 0)
(0.0551136 8.18313e-06 0)
(0.054091 7.8374e-06 0)
(0.0531254 7.53271e-06 0)
(0.0522107 7.26442e-06 0)
(0.0513416 7.03001e-06 0)
(0.0505131 6.82463e-06 0)
(0.049721 6.64937e-06 0)
(0.0489613 6.49626e-06 0)
(0.0482304 6.37318e-06 0)
(0.0475252 6.26352e-06 0)
(0.0468424 6.18882e-06 0)
(0.0461796 6.11402e-06 0)
(0.0455336 6.08495e-06 0)
(0.0449026 6.03831e-06 0)
(0.044284 6.04282e-06 0)
(0.0436748 6.0337e-06 0)
(0.0430772 6.01309e-06 0)
(0.0424783 6.12593e-06 0)
(0.0419018 5.84856e-06 0)
(0.0412956 6.44458e-06 0)
(0.0407583 5.10341e-06 0)
(0.0401055 7.47108e-06 0)
(0.0396764 2.38648e-06 0)
(0.0388758 1.09289e-05 0)
(0.0387523 -6.90242e-06 0)
(0.0377201 2.43464e-05 0)
(0.0355831 -0.00139946 0)
(0.884863 0.0434937 0)
(0.650137 0.0201501 0)
(0.493939 0.00660652 0)
(0.403478 0.00275705 0)
(0.35472 0.00155058 0)
(0.323352 0.00113462 0)
(0.299392 0.000912493 0)
(0.280117 0.000748178 0)
(0.264333 0.000625754 0)
(0.251137 0.000535541 0)
(0.239877 0.000467118 0)
(0.230112 0.00041333 0)
(0.221538 0.000369934 0)
(0.213929 0.000334284 0)
(0.207119 0.00030458 0)
(0.200976 0.00027953 0)
(0.195398 0.000258183 0)
(0.190303 0.000239829 0)
(0.185624 0.000223925 0)
(0.181306 0.000210054 0)
(0.177304 0.000197889 0)
(0.173581 0.000187174 0)
(0.170102 0.000177702 0)
(0.166841 0.000169307 0)
(0.163775 0.000161857 0)
(0.16088 0.000155241 0)
(0.158141 0.00014937 0)
(0.15554 0.00014417 0)
(0.153063 0.000139579 0)
(0.150697 0.000135554 0)
(0.14843 0.000132041 0)
(0.146252 0.000129031 0)
(0.144154 0.000126458 0)
(0.142125 0.000124366 0)
(0.140158 0.000122633 0)
(0.138245 0.000121413 0)
(0.136378 0.000120433 0)
(0.134551 0.000120069 0)
(0.132754 0.000119749 0)
(0.130993 0.000120208 0)
(0.129231 0.00012046 0)
(0.127531 0.000121503 0)
(0.125752 0.000122401 0)
(0.124152 0.0001229 0)
(0.122245 0.00012544 0)
(0.120911 0.000120596 0)
(0.118606 0.000131643 0)
(0.117995 8.41076e-05 0)
(0.115016 0.000279062 0)
(0.112802 -0.00232815 0)
(0.991209 0.0499564 0)
(0.890916 0.0305653 0)
(0.762455 0.014615 0)
(0.656448 0.00797662 0)
(0.585277 0.00488654 0)
(0.535829 0.00348251 0)
(0.497844 0.00274728 0)
(0.467112 0.00225386 0)
(0.441687 0.00189096 0)
(0.420261 0.00162016 0)
(0.401884 0.00141356 0)
(0.38589 0.00125113 0)
(0.371804 0.00112014 0)
(0.359275 0.00101251 0)
(0.348038 0.000922776 0)
(0.337886 0.00084705 0)
(0.328655 0.000782471 0)
(0.320214 0.000726899 0)
(0.312455 0.000678703 0)
(0.305291 0.000636628 0)
(0.298647 0.000599691 0)
(0.292462 0.000567116 0)
(0.286683 0.000538281 0)
(0.281265 0.000512687 0)
(0.276168 0.00048993 0)
(0.27136 0.000469676 0)
(0.26681 0.000451655 0)
(0.262491 0.000435643 0)
(0.25838 0.000421454 0)
(0.254456 0.000408947 0)
(0.250701 0.000397981 0)
(0.247095 0.000388491 0)
(0.243625 0.000380338 0)
(0.240274 0.000373569 0)
(0.237031 0.000367944 0)
(0.233879 0.000363755 0)
(0.23081 0.000360422 0)
(0.227811 0.000358814 0)
(0.224866 0.000357478 0)
(0.221984 0.000358594 0)
(0.219109 0.000358734 0)
(0.21633 0.000362763 0)
(0.213443 0.000363417 0)
(0.210816 0.000369985 0)
(0.207751 0.000369986 0)
(0.205495 0.000374041 0)
(0.201871 0.000380616 0)
(0.200577 0.000309658 0)
(0.19591 0.000571631 0)
(0.194606 -0.00215965 0)
(1.01554 0.0489547 0)
(1.00649 0.0357279 0)
(0.935862 0.0208263 0)
(0.851941 0.0135084 0)
(0.782098 0.00921024 0)
(0.726861 0.00679775 0)
(0.681666 0.00540352 0)
(0.643784 0.00446405 0)
(0.611635 0.00377102 0)
(0.584026 0.00324672 0)
(0.560019 0.00284207 0)
(0.538908 0.00252175 0)
(0.520165 0.0022623 0)
(0.503386 0.00204834 0)
(0.488257 0.00186938 0)
(0.474528 0.00171793 0)
(0.461999 0.00158845 0)
(0.450506 0.00147677 0)
(0.439915 0.00137971 0)
(0.430113 0.00129482 0)
(0.421007 0.00122015 0)
(0.412516 0.00115418 0)
(0.404571 0.00109568 0)
(0.397115 0.00104364 0)
(0.390095 0.000997275 0)
(0.383468 0.000955912 0)
(0.377194 0.000919011 0)
(0.371237 0.000886122 0)
(0.365566 0.000856878 0)
(0.360155 0.000830978 0)
(0.354976 0.000808166 0)
(0.350007 0.000788271 0)
(0.345228 0.000771067 0)
(0.340616 0.000756568 0)
(0.336157 0.000744414 0)
(0.331829 0.00073502 0)
(0.32762 0.000727464 0)
(0.323514 0.000723205 0)
(0.319491 0.000719662 0)
(0.315555 0.000720998 0)
(0.311645 0.000720275 0)
(0.307856 0.000728278 0)
(0.303956 0.000727687 0)
(0.30036 0.00074389 0)
(0.296276 0.000738376 0)
(0.2931 0.000759659 0)
(0.288411 0.000753636 0)
(0.286261 0.000681349 0)
(0.280381 0.00091845 0)
(0.279049 -0.00152933 0)
(1.01435 0.0460991 0)
(1.04798 0.0373457 0)
(1.02455 0.024196 0)
(0.974632 0.0175713 0)
(0.923377 0.0131267 0)
(0.876566 0.0102266 0)
(0.834301 0.00836978 0)
(0.796432 0.00704989 0)
(0.762737 0.00604166 0)
(0.732775 0.00525659 0)
(0.706033 0.00463714 0)
(0.682041 0.00413895 0)
(0.6604 0.00373064 0)
(0.64078 0.00339079 0)
(0.622904 0.00310437 0)
(0.606542 0.00286039 0)
(0.5915 0.00265066 0)
(0.577617 0.00246891 0)
(0.564755 0.00231031 0)
(0.552797 0.00217106 0)
(0.541644 0.00204817 0)
(0.531209 0.00193925 0)
(0.521418 0.00184237 0)
(0.512204 0.00175595 0)
(0.503511 0.00167873 0)
(0.495289 0.00160964 0)
(0.487492 0.00154781 0)
(0.480079 0.00149252 0)
(0.473017 0.00144317 0)
(0.46627 0.00139928 0)
(0.459811 0.00136044 0)
(0.453612 0.00132634 0)
(0.447648 0.00129667 0)
(0.441894 0.00127136 0)
(0.436333 0.00124995 0)
(0.430939 0.00123295 0)
(0.425698 0.00121909 0)
(0.420589 0.00121045 0)
(0.415591 0.00120324 0)
(0.410704 0.0012038 0)
(0.405866 0.0012013 0)
(0.401166 0.00121317 0)
(0.396376 0.00121082 0)
(0.391895 0.00123769 0)
(0.386953 0.00122649 0)
(0.382892 0.00126693 0)
(0.377404 0.00124818 0)
(0.374272 0.00118337 0)
(0.367748 0.00137241 0)
(0.365352 -0.00076433 0)
(1.00941 0.0430488 0)
(1.05564 0.0371015 0)
(1.05866 0.0253389 0)
(1.03627 0.0197792 0)
(1.00705 0.0158194 0)
(0.975974 0.0129607 0)
(0.944358 0.0109942 0)
(0.91338 0.00951523 0)
(0.883899 0.00832785 0)
(0.856297 0.00736386 0)
(0.830653 0.00657777 0)
(0.806905 0.00592925 0)
(0.784933 0.00538697 0)
(0.764594 0.00492827 0)
(0.745742 0.00453649 0)
(0.728237 0.00419905 0)
(0.711949 0.00390623 0)
(0.696758 0.00365042 0)
(0.682559 0.00342561 0)
(0.669256 0.00322702 0)
(0.656764 0.0030508 0)
(0.645007 0.00289383 0)
(0.633917 0.00275359 0)
(0.623435 0.00262797 0)
(0.613505 0.00251527 0)
(0.604078 0.00241405 0)
(0.595112 0.00232312 0)
(0.586565 0.00224149 0)
(0.578401 0.00216834 0)
(0.570588 0.002103 0)
(0.563094 0.0020449 0)
(0.555891 0.0019936 0)
(0.548955 0.00194868 0)
(0.542257 0.00191002 0)
(0.535779 0.00187704 0)
(0.529495 0.00185032 0)
(0.523388 0.00182831 0)
(0.517436 0.00181362 0)
(0.511618 0.00180137 0)
(0.505928 0.00179991 0)
(0.500311 0.00179484 0)
(0.494839 0.00180965 0)
(0.489312 0.00180571 0)
(0.48407 0.00184203 0)
(0.478448 0.00182761 0)
(0.473584 0.00188343 0)
(0.467545 0.00185971 0)
(0.463417 0.00179579 0)
(0.456652 0.00195304 0)
(0.452887 9.98019e-05 0)
(1.00635 0.040181 0)
(1.05241 0.0361553 0)
(1.06605 0.0252634 0)
(1.05951 0.0205864 0)
(1.04684 0.0172502 0)
(1.03074 0.0146843 0)
(1.01177 0.0128601 0)
(0.990999 0.0114402 0)
(0.969479 0.010248 0)
(0.947944 0.00923764 0)
(0.926838 0.00838284 0)
(0.906425 0.00765551 0)
(0.886852 0.00703129 0)
(0.868188 0.00649153 0)
(0.850453 0.00602184 0)
(0.833634 0.0056108 0)
(0.817701 0.0052492 0)
(0.802609 0.00492956 0)
(0.788312 0.00464575 0)
(0.774759 0.00439277 0)
(0.761901 0.00416648 0)
(0.74969 0.00396348 0)
(0.738079 0.00378093 0)
(0.727025 0.00361647 0)
(0.716487 0.00346812 0)
(0.706426 0.0033342 0)
(0.696807 0.00321333 0)
(0.687597 0.00310432 0)
(0.678764 0.0030062 0)
(0.670279 0.00291814 0)
(0.662115 0.00283946 0)
(0.654246 0.00276963 0)
(0.646649 0.00270815 0)
(0.639299 0.00265484 0)
(0.632177 0.00260904 0)
(0.625258 0.00257141 0)
(0.618527 0.00254016 0)
(0.61196 0.00251835 0)
(0.60554 0.00250025 0)
(0.599254 0.00249578 0)
(0.59306 0.00248785 0)
(0.587005 0.00250439 0)
(0.580934 0.00249976 0)
(0.575104 0.00254307 0)
(0.568999 0.00252949 0)
(0.563486 0.00259417 0)
(0.557106 0.00257589 0)
(0.552121 0.0025042 0)
(0.545297 0.00264498 0)
(0.540394 0.00106757 0)
(1.00506 0.0375039 0)
(1.04762 0.0350574 0)
(1.06395 0.0247169 0)
(1.06416 0.0206192 0)
(1.06065 0.0177913 0)
(1.05471 0.0155296 0)
(1.0459 0.0139224 0)
(1.03464 0.0126693 0)
(1.02164 0.0115898 0)
(1.00751 0.0106443 0)
(0.992694 0.00981892 0)
(0.977555 0.00909598 0)
(0.962356 0.00845879 0)
(0.947292 0.00789438 0)
(0.932498 0.00739257 0)
(0.918068 0.00694499 0)
(0.90406 0.00654457 0)
(0.890508 0.00618529 0)
(0.87743 0.00586206 0)
(0.86483 0.00557053 0)
(0.852703 0.00530704 0)
(0.841037 0.00506843 0)
(0.829819 0.00485206 0)
(0.819029 0.00465564 0)
(0.808648 0.00447723 0)
(0.798655 0.00431516 0)
(0.78903 0.00416802 0)
(0.779751 0.0040346 0)
(0.770799 0.00391388 0)
(0.762151 0.003805 0)
(0.75379 0.00370725 0)
(0.745693 0.00362007 0)
(0.737845 0.00354293 0)
(0.730225 0.00347566 0)
(0.722817 0.00341757 0)
(0.7156 0.00336939 0)
(0.708562 0.0033292 0)
(0.701679 0.00330038 0)
(0.694941 0.00327669 0)
(0.68833 0.00326903 0)
(0.681817 0.00325879 0)
(0.675427 0.00327629 0)
(0.66905 0.00327257 0)
(0.662862 0.0033205 0)
(0.656494 0.00331212 0)
(0.650557 0.00337988 0)
(0.644027 0.00337516 0)
(0.638446 0.00329347 0)
(0.631655 0.00342379 0)
(0.625994 0.00211781 0)
(1.00451 0.0349682 0)
(1.04359 0.033978 0)
(1.05992 0.024067 0)
(1.06221 0.0203314 0)
(1.06248 0.0178586 0)
(1.06178 0.0158124 0)
(1.05917 0.0143804 0)
(1.05457 0.0132946 0)
(1.04829 0.0123589 0)
(1.04064 0.0115272 0)
(1.03189 0.010788 0)
(1.02231 0.0101278 0)
(1.01212 0.00953378 0)
(1.00152 0.00899651 0)
(0.990662 0.00850918 0)
(0.979691 0.00806625 0)
(0.968705 0.00766303 0)
(0.957784 0.00729541 0)
(0.94699 0.00695979 0)
(0.936367 0.00665305 0)
(0.925949 0.00637243 0)
(0.915758 0.00611553 0)
(0.905808 0.00588025 0)
(0.896108 0.00566473 0)
(0.886659 0.00546737 0)
(0.877462 0.00528675 0)
(0.868514 0.00512167 0)
(0.859807 0.00497104 0)
(0.851336 0.004834 0)
(0.843089 0.00470974 0)
(0.83506 0.00459767 0)
(0.827235 0.00449726 0)
(0.819605 0.00440807 0)
(0.812156 0.00432996 0)
(0.80488 0.00426233 0)
(0.79776 0.00420596 0)
(0.790788 0.00415895 0)
(0.783946 0.00412487 0)
(0.777226 0.0040973 0)
(0.770612 0.0040876 0)
(0.764086 0.00407669 0)
(0.757657 0.00409545 0)
(0.751253 0.00409491 0)
(0.744987 0.00414623 0)
(0.738608 0.00414703 0)
(0.732523 0.00421476 0)
(0.726051 0.00422813 0)
(0.720185 0.00414078 0)
(0.713545 0.00426234 0)
(0.707503 0.00321511 0)
(1.00412 0.0325377 0)
(1.04026 0.0329251 0)
(1.05616 0.0234333 0)
(1.05885 0.0199484 0)
(1.06021 0.0177317 0)
(1.06156 0.015818 0)
(1.0619 0.0144884 0)
(1.06096 0.0135191 0)
(1.05885 0.0127006 0)
(1.05566 0.011976 0)
(1.05149 0.0113315 0)
(1.04645 0.010753 0)
(1.04066 0.0102277 0)
(1.03425 0.00974673 0)
(1.02733 0.00930448 0)
(1.02001 0.00889672 0)
(1.0124 0.00852011 0)
(1.00457 0.00817188 0)
(0.996595 0.00784964 0)
(0.988538 0.00755132 0)
(0.980446 0.00727512 0)
(0.972362 0.00701944 0)
(0.964316 0.00678286 0)
(0.956336 0.00656411 0)
(0.94844 0.00636206 0)
(0.940643 0.0061757 0)
(0.932958 0.00600417 0)
(0.92539 0.00584667 0)
(0.917945 0.00570257 0)
(0.910625 0.00557126 0)
(0.903431 0.00545234 0)
(0.896359 0.00534542 0)
(0.889409 0.00525021 0)
(0.882574 0.0051667 0)
(0.875853 0.0050944 0)
(0.869234 0.00503421 0)
(0.862717 0.00498432 0)
(0.856286 0.00494844 0)
(0.849942 0.00492024 0)
(0.843668 0.0049111 0)
(0.837456 0.00490239 0)
(0.831308 0.00492404 0)
(0.825178 0.00492964 0)
(0.819136 0.00498469 0)
(0.813018 0.00499821 0)
(0.807085 0.00506571 0)
(0.800901 0.0050993 0)
(0.795075 0.00501432 0)
(0.788753 0.00512884 0)
(0.782682 0.00432027 0)
(1.00374 0.0302036 0)
(1.03727 0.0318765 0)
(1.05282 0.0228309 0)
(1.05561 0.0195478 0)
(1.05712 0.0175435 0)
(1.05902 0.0157192 0)
(1.06043 0.0144379 0)
(1.06109 0.0135329 0)
(1.06105 0.012789 0)
(1.06034 0.0121397 0)
(1.05897 0.0115687 0)
(1.05695 0.0110607 0)
(1.0543 0.0106012 0)
(1.05107 0.0101805 0)
(1.04733 0.00979208 0)
(1.04314 0.00943181 0)
(1.03854 0.00909649 0)
(1.03361 0.00878368 0)
(1.0284 0.00849149 0)
(1.02296 0.00821839 0)
(1.01732 0.00796312 0)
(1.01155 0.00772462 0)
(1.00567 0.007502 0)
(0.999702 0.00729445 0)
(0.993687 0.00710129 0)
(0.987642 0.0069219 0)
(0.981584 0.00675575 0)
(0.97553 0.00660236 0)
(0.969492 0.00646138 0)
(0.963479 0.00633244 0)
(0.957499 0.00621535 0)
(0.951557 0.00610994 0)
(0.945657 0.00601609 0)
(0.939801 0.00593395 0)
(0.933991 0.00586319 0)
(0.928223 0.00580487 0)
(0.9225 0.00575734 0)
(0.916814 0.00572437 0)
(0.911167 0.00569994 0)
(0.905549 0.00569516 0)
(0.899957 0.00569243 0)
(0.894391 0.00571975 0)
(0.888821 0.00573501 0)
(0.883293 0.00579556 0)
(0.877702 0.00582501 0)
(0.872208 0.00589438 0)
(0.866546 0.00594915 0)
(0.861063 0.00587593 0)
(0.855251 0.00598671 0)
(0.84947 0.0053921 0)
(1.00337 0.0279682 0)
(1.03443 0.0308199 0)
(1.04972 0.0222534 0)
(1.05265 0.0191445 0)
(1.05411 0.0173368 0)
(1.05608 0.0155911 0)
(1.05776 0.0143326 0)
(1.05894 0.0134591 0)
(1.05971 0.0127566 0)
(1.06013 0.0121513 0)
(1.06016 0.0116264 0)
(1.05978 0.0111661 0)
(1.05899 0.010755 0)
(1.0578 0.0103821 0)
(1.0562 0.01004 0)
(1.05422 0.00972377 0)
(1.05189 0.00942967 0)
(1.04923 0.00915501 0)
(1.04627 0.00889777 0)
(1.04305 0.00865642 0)
(1.03959 0.00842979 0)
(1.03592 0.008217 0)
(1.03206 0.00801735 0)
(1.02805 0.00783029 0)
(1.02391 0.00765537 0)
(1.01966 0.00749221 0)
(1.01531 0.00734055 0)
(1.01088 0.00720012 0)
(1.0064 0.00707079 0)
(1.00185 0.0069524 0)
(0.997272 0.00684496 0)
(0.992657 0.00674846 0)
(0.988017 0.00666298 0)
(0.983357 0.00658883 0)
(0.978683 0.00652582 0)
(0.973995 0.00647518 0)
(0.969299 0.00643542 0)
(0.964592 0.00641038 0)
(0.959877 0.00639441 0)
(0.955151 0.00639816 0)
(0.950411 0.00640552 0)
(0.94566 0.00644183 0)
(0.94088 0.00647035 0)
(0.9361 0.00653899 0)
(0.931255 0.00658715 0)
(0.926438 0.0066619 0)
(0.921497 0.00673825 0)
(0.916611 0.00668591 0)
(0.911488 0.00679777 0)
(0.906263 0.00639051 0)
(1.00301 0.0258351 0)
(1.03171 0.0297511 0)
(1.04672 0.0216971 0)
(1.04985 0.0187384 0)
(1.0513 0.0171184 0)
(1.05322 0.0154562 0)
(1.05494 0.0142136 0)
(1.05623 0.0133569 0)
(1.05724 0.0126781 0)
(1.05805 0.0120974 0)
(1.05864 0.0115977 0)
(1.05901 0.011165 0)
(1.05914 0.0107836 0)
(1.05902 0.010442 0)
(1.05864 0.0101321 0)
(1.058 0.00984839 0)
(1.05711 0.00958662 0)
(1.05596 0.00934364 0)
(1.05458 0.00911707 0)
(1.05296 0.00890511 0)
(1.05113 0.00870644 0)
(1.0491 0.00852006 0)
(1.04688 0.00834525 0)
(1.04449 0.00818145 0)
(1.04195 0.00802829 0)
(1.03926 0.00788546 0)
(1.03645 0.00775277 0)
(1.03352 0.00763009 0)
(1.03048 0.00751738 0)
(1.02735 0.00741463 0)
(1.02413 0.00732195 0)
(1.02084 0.00723947 0)
(1.01748 0.00716736 0)
(1.01406 0.0071061 0)
(1.01058 0.00705558 0)
(1.00704 0.0070172 0)
(1.00346 0.00698957 0)
(0.99983 0.00697658 0)
(0.996154 0.00697303 0)
(0.992434 0.0069889 0)
(0.988669 0.00700984 0)
(0.984863 0.00705811 0)
(0.981004 0.00710288 0)
(0.97711 0.00718225 0)
(0.973146 0.00725104 0)
(0.969158 0.00733508 0)
(0.96507 0.00743295 0)
(0.960952 0.00740914 0)
(0.956644 0.00752753 0)
(0.952161 0.0072811 0)
(1.00268 0.0238068 0)
(1.02911 0.0286686 0)
(1.04381 0.0211616 0)
(1.04716 0.0183291 0)
(1.04861 0.0168866 0)
(1.0505 0.0153169 0)
(1.05221 0.014092 0)
(1.05351 0.0132475 0)
(1.05456 0.0125857 0)
(1.05546 0.0120206 0)
(1.05623 0.0115353 0)
(1.05686 0.0111176 0)
(1.05736 0.0107528 0)
(1.05771 0.0104293 0)
(1.05791 0.0101388 0)
(1.05796 0.0098756 0)
(1.05784 0.00963523 0)
(1.05756 0.00941424 0)
(1.05711 0.00920996 0)
(1.0565 0.00902034 0)
(1.05573 0.00884385 0)
(1.05481 0.00867932 0)
(1.05373 0.00852589 0)
(1.05251 0.00838291 0)
(1.05115 0.00824995 0)
(1.04965 0.00812665 0)
(1.04804 0.00801284 0)
(1.0463 0.00790838 0)
(1.04446 0.00781325 0)
(1.04251 0.00772749 0)
(1.04046 0.00765124 0)
(1.03832 0.0075847 0)
(1.0361 0.00752809 0)
(1.03379 0.00748197 0)
(1.0314 0.0074463 0)
(1.02894 0.00742254 0)
(1.02641 0.00740945 0)
(1.02381 0.00741084 0)
(1.02115 0.007422 0)
(1.01842 0.0074521 0)
(1.01562 0.00748875 0)
(1.01277 0.00755083 0)
(1.00985 0.00761354 0)
(1.00687 0.00770555 0)
(1.00382 0.00779561 0)
(1.00071 0.00789224 0)
(0.997509 0.00801096 0)
(0.99423 0.00802092 0)
(0.990784 0.00815102 0)
(0.987132 0.00804007 0)
(1.00238 0.0218851 0)
(1.02664 0.0275714 0)
(1.04099 0.0206466 0)
(1.04456 0.0179185 0)
(1.04602 0.0166403 0)
(1.04788 0.0151718 0)
(1.04959 0.013969 0)
(1.05088 0.0131358 0)
(1.05192 0.0124894 0)
(1.05282 0.0119373 0)
(1.05362 0.0114621 0)
(1.05433 0.0110538 0)
(1.05494 0.0106987 0)
(1.05546 0.0103854 0)
(1.05588 0.010106 0)
(1.05622 0.00985476 0)
(1.05646 0.00962713 0)
(1.05659 0.00941965 0)
(1.05663 0.00922955 0)
(1.05656 0.00905466 0)
(1.05639 0.00889332 0)
(1.05611 0.00874424 0)
(1.05572 0.00860647 0)
(1.05523 0.00847925 0)
(1.05464 0.00836208 0)
(1.05394 0.00825454 0)
(1.05315 0.00815642 0)
(1.05226 0.00806753 0)
(1.05127 0.00798784 0)
(1.05019 0.00791738 0)
(1.04903 0.00785627 0)
(1.04777 0.00780474 0)
(1.04644 0.007763 0)
(1.04502 0.00773166 0)
(1.04352 0.00771067 0)
(1.04195 0.00770156 0)
(1.0403 0.00770317 0)
(1.03858 0.00771916 0)
(1.03678 0.00774538 0)
(1.03492 0.00779001 0)
(1.03299 0.00784269 0)
(1.03099 0.00791892 0)
(1.02892 0.00799961 0)
(1.02678 0.00810493 0)
(1.02457 0.00821539 0)
(1.02229 0.00832668 0)
(1.01992 0.00846478 0)
(1.01745 0.00851093 0)
(1.01483 0.00865683 0)
(1.012 0.00865777 0)
(1.0021 0.0200709 0)
(1.0243 0.0264616 0)
(1.03826 0.0201498 0)
(1.04203 0.0175083 0)
(1.04351 0.0163794 0)
(1.04535 0.0150197 0)
(1.04706 0.013844 0)
(1.04835 0.0130221 0)
(1.04938 0.0123912 0)
(1.05027 0.011852 0)
(1.05106 0.011386 0)
(1.05176 0.0109851 0)
(1.05239 0.010637 0)
(1.05295 0.0103306 0)
(1.05345 0.0100581 0)
(1.05388 0.00981395 0)
(1.05425 0.00959386 0)
(1.05456 0.00939436 0)
(1.0548 0.00921272 0)
(1.05498 0.00904676 0)
(1.05509 0.00889481 0)
(1.05514 0.00875556 0)
(1.05512 0.00862799 0)
(1.05503 0.00851133 0)
(1.05487 0.00840503 0)
(1.05464 0.00830866 0)
(1.05434 0.00822195 0)
(1.05397 0.00814469 0)
(1.05353 0.00807682 0)
(1.05302 0.00801836 0)
(1.05244 0.0079694 0)
(1.05179 0.00793018 0)
(1.05108 0.00790088 0)
(1.05029 0.00788213 0)
(1.04944 0.00787387 0)
(1.04852 0.00787762 0)
(1.04753 0.00789232 0)
(1.04648 0.00792142 0)
(1.04536 0.00796134 0)
(1.04417 0.0080192 0)
(1.04293 0.00808664 0)
(1.04161 0.0081759 0)
(1.04023 0.00827308 0)
(1.03879 0.00839111 0)
(1.03728 0.00851978 0)
(1.0357 0.00864632 0)
(1.03404 0.00880162 0)
(1.03227 0.00888373 0)
(1.03036 0.009048 0)
(1.02825 0.00913941 0)
(1.00185 0.0183645 0)
(1.0221 0.0253432 0)
(1.03562 0.0196675 0)
(1.03959 0.0171004 0)
(1.0411 0.0161045 0)
(1.0429 0.0148596 0)
(1.04461 0.0137166 0)
(1.04591 0.0129064 0)
(1.04692 0.0122909 0)
(1.0478 0.0117654 0)
(1.04858 0.0113087 0)
(1.04927 0.010915 0)
(1.04989 0.0105731 0)
(1.05045 0.0102724 0)
(1.05095 0.0100053 0)
(1.05141 0.00976625 0)
(1.05181 0.00955123 0)
(1.05217 0.00935687 0)
(1.05249 0.00918051 0)
(1.05276 0.00902004 0)
(1.05299 0.00887383 0)
(1.05318 0.00874058 0)
(1.05332 0.00861931 0)
(1.05342 0.00850928 0)
(1.05347 0.00840991 0)
(1.05348 0.0083208 0)
(1.05344 0.00824166 0)
(1.05336 0.0081723 0)
(1.05322 0.00811265 0)
(1.05304 0.00806271 0)
(1.05281 0.00802257 0)
(1.05252 0.00799248 0)
(1.05219 0.00797257 0)
(1.0518 0.0079635 0)
(1.05136 0.00796521 0)
(1.05087 0.00797918 0)
(1.05033 0.00800448 0)
(1.04973 0.00804425 0)
(1.04908 0.00809554 0)
(1.04837 0.00816437 0)
(1.04761 0.00824428 0)
(1.0468 0.00834456 0)
(1.04593 0.00845573 0)
(1.045 0.00858496 0)
(1.04402 0.00872881 0)
(1.04296 0.00886995 0)
(1.04185 0.00903991 0)
(1.04063 0.00915562 0)
(1.03928 0.00933934 0)
(1.03776 0.00950244 0)
(1.00162 0.0167655 0)
(1.02004 0.0242204 0)
(1.03309 0.0191956 0)
(1.03724 0.0166963 0)
(1.03878 0.0158167 0)
(1.04055 0.0146908 0)
(1.04225 0.0135865 0)
(1.04355 0.0127885 0)
(1.04456 0.0121884 0)
(1.04542 0.0116772 0)
(1.04619 0.0112305 0)
(1.04687 0.0108442 0)
(1.04748 0.0105086 0)
(1.04803 0.0102134 0)
(1.04852 0.00995115 0)
(1.04897 0.00971662 0)
(1.04937 0.00950577 0)
(1.04974 0.0093154 0)
(1.05007 0.00914292 0)
(1.05037 0.0089863 0)
(1.05063 0.00884395 0)
(1.05087 0.00871464 0)
(1.05107 0.00859743 0)
(1.05124 0.00849161 0)
(1.05138 0.00839667 0)
(1.05149 0.0083122 0)
(1.05157 0.00823795 0)
(1.05162 0.00817376 0)
(1.05164 0.00811956 0)
(1.05162 0.00807538 0)
(1.05157 0.00804129 0)
(1.05148 0.00801757 0)
(1.05135 0.00800434 0)
(1.05119 0.00800227 0)
(1.05099 0.00801131 0)
(1.05075 0.00803287 0)
(1.05047 0.0080662 0)
(1.05015 0.0081141 0)
(1.04979 0.00817425 0)
(1.04938 0.00825159 0)
(1.04894 0.00834141 0)
(1.04845 0.00845042 0)
(1.04791 0.00857275 0)
(1.04733 0.00871132 0)
(1.0467 0.00886718 0)
(1.04602 0.00902153 0)
(1.04528 0.00920367 0)
(1.04445 0.00934943 0)
(1.04351 0.00955253 0)
(1.04242 0.00977147 0)
(1.00142 0.0152733 0)
(1.01811 0.0230973 0)
(1.03067 0.0187302 0)
(1.03498 0.0162975 0)
(1.03656 0.0155174 0)
(1.03828 0.0145128 0)
(1.03998 0.0134533 0)
(1.04129 0.0126684 0)
(1.04229 0.0120837 0)
(1.04314 0.0115873 0)
(1.04389 0.0111513 0)
(1.04456 0.0107726 0)
(1.04516 0.0104435 0)
(1.04569 0.0101539 0)
(1.04618 0.00989666 0)
(1.04661 0.00966654 0)
(1.04701 0.00945969 0)
(1.04737 0.00927297 0)
(1.04769 0.00910391 0)
(1.04799 0.00895051 0)
(1.04826 0.00881126 0)
(1.0485 0.00868498 0)
(1.04871 0.00857078 0)
(1.04891 0.00846799 0)
(1.04908 0.00837614 0)
(1.04922 0.00829488 0)
(1.04935 0.00822399 0)
(1.04945 0.00816333 0)
(1.04952 0.00811287 0)
(1.04957 0.00807265 0)
(1.0496 0.00804276 0)
(1.0496 0.0080235 0)
(1.04958 0.00801501 0)
(1.04953 0.00801794 0)
(1.04945 0.0080323 0)
(1.04934 0.0080594 0)
(1.0492 0.00809869 0)
(1.04903 0.00815264 0)
(1.04882 0.00821949 0)
(1.04859 0.00830326 0)
(1.04832 0.00840072 0)
(1.04802 0.00851648 0)
(1.04769 0.00864742 0)
(1.04732 0.0087936 0)
(1.04691 0.00895869 0)
(1.04645 0.00912468 0)
(1.04595 0.00931698 0)
(1.04537 0.00948886 0)
(1.04469 0.00971061 0)
(1.04389 0.0099726 0)
(1.00124 0.0138864 0)
(1.01632 0.0219779 0)
(1.02835 0.0182674 0)
(1.03281 0.0159052 0)
(1.03443 0.0152081 0)
(1.03611 0.0143251 0)
(1.0378 0.0133167 0)
(1.03911 0.0125462 0)
(1.04011 0.0119765 0)
(1.04095 0.0114956 0)
(1.04169 0.0110708 0)
(1.04235 0.0107003 0)
(1.04293 0.0103778 0)
(1.04346 0.0100941 0)
(1.04393 0.00984195 0)
(1.04435 0.00961635 0)
(1.04474 0.00941353 0)
(1.04508 0.00923047 0)
(1.0454 0.00906474 0)
(1.04569 0.00891443 0)
(1.04595 0.00877806 0)
(1.04618 0.00865451 0)
(1.0464 0.00854293 0)
(1.04659 0.0084427 0)
(1.04676 0.00835339 0)
(1.04691 0.00827469 0)
(1.04705 0.00820642 0)
(1.04716 0.00814849 0)
(1.04726 0.00810087 0)
(1.04733 0.00806365 0)
(1.04739 0.00803693 0)
(1.04742 0.00802104 0)
(1.04744 0.00801612 0)
(1.04743 0.00802283 0)
(1.0474 0.00804123 0)
(1.04735 0.00807255 0)
(1.04727 0.00811642 0)
(1.04717 0.00817497 0)
(1.04705 0.00824704 0)
(1.0469 0.00833577 0)
(1.04673 0.00843917 0)
(1.04652 0.00856025 0)
(1.04629 0.00869787 0)
(1.04603 0.00885037 0)
(1.04575 0.00902263 0)
(1.04542 0.00919891 0)
(1.04505 0.00940001 0)
(1.04461 0.00959435 0)
(1.04409 0.0098338 0)
(1.04346 0.010129 0)
(1.00107 0.0126028 0)
(1.01466 0.0208662 0)
(1.02614 0.0178039 0)
(1.03072 0.0155204 0)
(1.03239 0.0148907 0)
(1.03404 0.0141272 0)
(1.0357 0.0131762 0)
(1.03702 0.012422 0)
(1.03802 0.011867 0)
(1.03885 0.0114019 0)
(1.03958 0.010989 0)
(1.04023 0.010627 0)
(1.0408 0.0103114 0)
(1.04131 0.0100338 0)
(1.04177 0.00978696 0)
(1.04219 0.00956604 0)
(1.04256 0.00936738 0)
(1.0429 0.00918806 0)
(1.0432 0.00902574 0)
(1.04348 0.00887854 0)
(1.04373 0.00874505 0)
(1.04396 0.00862417 0)
(1.04416 0.00851513 0)
(1.04435 0.00841733 0)
(1.04451 0.00833038 0)
(1.04466 0.00825403 0)
(1.04479 0.00818812 0)
(1.0449 0.00813259 0)
(1.045 0.00808745 0)
(1.04508 0.00805281 0)
(1.04514 0.00802879 0)
(1.04518 0.00801574 0)
(1.04521 0.00801382 0)
(1.04521 0.00802369 0)
(1.0452 0.00804545 0)
(1.04517 0.00808026 0)
(1.04512 0.00812793 0)
(1.04505 0.00819029 0)
(1.04495 0.00826667 0)
(1.04484 0.00835949 0)
(1.04471 0.00846776 0)
(1.04455 0.00859333 0)
(1.04437 0.00873635 0)
(1.04416 0.00889441 0)
(1.04393 0.00907257 0)
(1.04367 0.00925811 0)
(1.04336 0.00946734 0)
(1.043 0.00968109 0)
(1.04257 0.00993729 0)
(1.04204 0.0102585 0)
(1.00093 0.0114198 0)
(1.01314 0.0197664 0)
(1.02405 0.0173366 0)
(1.02872 0.0151436 0)
(1.03045 0.0145673 0)
(1.03205 0.0139187 0)
(1.0337 0.0130311 0)
(1.03502 0.0122956 0)
(1.03601 0.011755 0)
(1.03684 0.0113061 0)
(1.03756 0.0109058 0)
(1.0382 0.0105527 0)
(1.03876 0.0102443 0)
(1.03926 0.00997296 0)
(1.03971 0.00973165 0)
(1.04012 0.00951556 0)
(1.04048 0.0093212 0)
(1.04081 0.00914575 0)
(1.0411 0.00898692 0)
(1.04137 0.00884292 0)
(1.04161 0.00871237 0)
(1.04183 0.00859422 0)
(1.04202 0.00848774 0)
(1.0422 0.00839238 0)
(1.04236 0.00830779 0)
(1.0425 0.00823375 0)
(1.04262 0.00817014 0)
(1.04273 0.00811693 0)
(1.04282 0.00807416 0)
(1.04289 0.00804197 0)
(1.04295 0.00802049 0)
(1.04299 0.00801008 0)
(1.04301 0.00801094 0)
(1.04302 0.00802371 0)
(1.04301 0.00804856 0)
(1.04298 0.00808654 0)
(1.04294 0.00813765 0)
(1.04287 0.00820345 0)
(1.04279 0.00828367 0)
(1.04269 0.00838019 0)
(1.04257 0.00849275 0)
(1.04242 0.00862242 0)
(1.04226 0.00877014 0)
(1.04208 0.00893339 0)
(1.04187 0.00911682 0)
(1.04163 0.00931097 0)
(1.04136 0.00952817 0)
(1.04103 0.0097589 0)
(1.04064 0.010031 0)
(1.04017 0.010373 0)
(1.0008 0.0103342 0)
(1.01174 0.0186825 0)
(1.02206 0.0168627 0)
(1.0268 0.014775 0)
(1.0286 0.0142397 0)
(1.03017 0.0136997 0)
(1.03178 0.0128809 0)
(1.0331 0.0121671 0)
(1.0341 0.0116407 0)
(1.03492 0.011208 0)
(1.03563 0.010821 0)
(1.03626 0.0104774 0)
(1.03681 0.0101764 0)
(1.03731 0.00991155 0)
(1.03775 0.00967594 0)
(1.03814 0.00946487 0)
(1.03849 0.00927495 0)
(1.03881 0.00910349 0)
(1.0391 0.00894827 0)
(1.03935 0.00880756 0)
(1.03959 0.00868002 0)
(1.0398 0.00856468 0)
(1.03998 0.00846082 0)
(1.04015 0.00836795 0)
(1.0403 0.00828576 0)
(1.04043 0.00821407 0)
(1.04055 0.00815279 0)
(1.04065 0.00810192 0)
(1.04073 0.00806153 0)
(1.0408 0.00803178 0)
(1.04085 0.00801282 0)
(1.04088 0.00800503 0)
(1.0409 0.00800862 0)
(1.0409 0.00802423 0)
(1.04089 0.00805208 0)
(1.04086 0.00809314 0)
(1.04081 0.00814756 0)
(1.04075 0.00821668 0)
(1.04066 0.00830056 0)
(1.04056 0.00840066 0)
(1.04044 0.00851724 0)
(1.04031 0.00865091 0)
(1.04015 0.00880301 0)
(1.03997 0.00897135 0)
(1.03977 0.00915987 0)
(1.03954 0.00936222 0)
(1.03927 0.00958752 0)
(1.03896 0.00983341 0)
(1.03859 0.0101206 0)
(1.03816 0.0104798 0)
(1.00069 0.00934223 0)
(1.01046 0.0176187 0)
(1.02019 0.01638 0)
(1.02497 0.0144147 0)
(1.02684 0.0139101 0)
(1.02837 0.0134704 0)
(1.02996 0.0127249 0)
(1.03128 0.0120364 0)
(1.03228 0.0115241 0)
(1.03308 0.0111076 0)
(1.03379 0.0107345 0)
(1.03441 0.0104009 0)
(1.03496 0.0101077 0)
(1.03544 0.00984946 0)
(1.03587 0.00961976 0)
(1.03626 0.00941388 0)
(1.0366 0.00922856 0)
(1.03691 0.00906122 0)
(1.03719 0.00890973 0)
(1.03744 0.00877241 0)
(1.03766 0.00864798 0)
(1.03786 0.00853552 0)
(1.03804 0.00843436 0)
(1.0382 0.00834405 0)
(1.03834 0.00826432 0)
(1.03847 0.00819504 0)
(1.03857 0.00813614 0)
(1.03867 0.00808766 0)
(1.03874 0.00804969 0)
(1.0388 0.00802242 0)
(1.03885 0.00800603 0)
(1.03887 0.00800088 0)
(1.03889 0.00800724 0)
(1.03888 0.0080257 0)
(1.03887 0.00805657 0)
(1.03883 0.00810072 0)
(1.03878 0.00815844 0)
(1.03871 0.00823089 0)
(1.03862 0.00831838 0)
(1.03852 0.00842208 0)
(1.0384 0.00854258 0)
(1.03826 0.0086803 0)
(1.0381 0.00883669 0)
(1.03792 0.00901013 0)
(1.03772 0.00920383 0)
(1.03749 0.00941414 0)
(1.03723 0.00964777 0)
(1.03692 0.00990742 0)
(1.03657 0.0102089 0)
(1.03615 0.0105828 0)
(1.0006 0.00843951 0)
(1.0093 0.016579 0)
(1.01843 0.0158867 0)
(1.02323 0.0140623 0)
(1.02517 0.0135803 0)
(1.02666 0.0132312 0)
(1.02822 0.0125627 0)
(1.02954 0.0119032 0)
(1.03054 0.0114052 0)
(1.03134 0.0110047 0)
(1.03204 0.0106461 0)
(1.03265 0.0103231 0)
(1.03319 0.0100379 0)
(1.03367 0.00978661 0)
(1.03409 0.00956302 0)
(1.03447 0.00936253 0)
(1.0348 0.00918197 0)
(1.0351 0.00901888 0)
(1.03537 0.00887123 0)
(1.03561 0.00873741 0)
(1.03583 0.00861619 0)
(1.03602 0.0085067 0)
(1.03619 0.00840831 0)
(1.03635 0.00832063 0)
(1.03648 0.00824344 0)
(1.0366 0.00817662 0)
(1.0367 0.00812016 0)
(1.03678 0.00807414 0)
(1.03685 0.00803865 0)
(1.03691 0.00801392 0)
(1.03694 0.00800015 0)
(1.03697 0.0079977 0)
(1.03697 0.00800688 0)
(1.03697 0.00802825 0)
(1.03694 0.00806218 0)
(1.0369 0.00810947 0)
(1.03684 0.00817053 0)
(1.03677 0.00824636 0)
(1.03668 0.00833747 0)
(1.03657 0.00844485 0)
(1.03645 0.00856927 0)
(1.03631 0.00871113 0)
(1.03615 0.00887184 0)
(1.03596 0.00905046 0)
(1.03576 0.00924951 0)
(1.03553 0.00946762 0)
(1.03527 0.00970979 0)
(1.03497 0.00998209 0)
(1.03462 0.010297 0)
(1.03421 0.0106837 0)
(1.00051 0.00762129 0)
(1.00825 0.0155672 0)
(1.01679 0.0153815 0)
(1.02157 0.0137172 0)
(1.02358 0.013252 0)
(1.02505 0.0129828 0)
(1.02657 0.0123936 0)
(1.02788 0.0117673 0)
(1.02888 0.0112841 0)
(1.02968 0.0108994 0)
(1.03037 0.0105557 0)
(1.03098 0.0102438 0)
(1.03151 0.00996709 0)
(1.03198 0.00972292 0)
(1.0324 0.00950565 0)
(1.03277 0.00931074 0)
(1.03309 0.00913511 0)
(1.03339 0.00897642 0)