/*--------------------------------*- C++ -*----------------------------------*\
  =========                 |
  \\      /  F ield         | OpenFOAM: The Open Source CFD Toolbox
   \\    /   O peration     | Website:  https://openfoam.org
    \\  /    A nd           | Version:  7
     \\/     M anipulation  |
\*---------------------------------------------------------------------------*/
FoamFile
{
    version     2.0;
    format      ascii;
    class       volVectorField;
    location    "0.05";
    object      wallShearStress;
}
// * * * * * * * * * * * * * * * * * * * * * * * * * * * * * * * * * * * * * //

dimensions      [0 2 -2 0 0 0 0];

internalField   uniform (0 0 0);

boundaryField
{
    velocityInlet
    {
        type            calculated;
        value           uniform (0 0 0);
    }
    pressureOutlet
    {
        type            calculated;
        value           uniform (0 0 0);
    }
    fixedWalls
    {
        type            calculated;
        value           nonuniform List<vector> 
100
(
(-0.0203103 -0.00229135 0)
(-0.0140983 -0.00111458 0)
(-0.010043 -0.000279309 0)
(-0.00878338 -1.08869e-05 0)
(-0.00809831 -4.78017e-05 0)
(-0.00748439 -7.04265e-05 0)
(-0.00693618 -6.17011e-05 0)
(-0.00647588 -4.88945e-05 0)
(-0.00609581 -3.86978e-05 0)
(-0.00577181 -3.1663e-05 0)
(-0.00548406 -2.67295e-05 0)
(-0.00521931 -2.38794e-05 0)
(-0.00496062 -2.54516e-05 0)
(-0.00469831 -2.8569e-05 0)
(-0.00448211 -1.98869e-05 0)
(-0.00445682 1.85762e-05 0)
(-0.00476094 7.70487e-05 0)
(-0.00523506 0.000104553 0)
(-0.0052651 1.00167e-05 0)
(-0.00408967 -0.000217183 0)
(-0.00175012 -0.000374575 0)
(0.000456072 -0.000298043 0)
(0.00114075 -5.61904e-05 0)
(0.000196632 0.000143222 0)
(-0.00142957 0.000210225 0)
(-0.00285185 0.000163811 0)
(-0.00373725 9.3408e-05 0)
(-0.00413099 4.03666e-05 0)
(-0.00421242 1.10051e-05 0)
(-0.00412583 -6.6273e-06 0)
(-0.00395209 -1.59914e-05 0)
(-0.00373007 -2.2237e-05 0)
(-0.00347828 -2.71459e-05 0)
(-0.00321648 -2.96129e-05 0)
(-0.0029768 -2.73479e-05 0)
(-0.0027958 -2.00825e-05 0)
(-0.00270252 -9.51518e-06 0)
(-0.00271841 5.57268e-06 0)
(-0.00283669 2.00386e-05 0)
(-0.00297375 1.86711e-05 0)
(-0.00297895 -7.09523e-06 0)
(-0.00278426 -3.78517e-05 0)
(-0.00256663 -4.23589e-05 0)
(-0.0026859 8.12432e-06 0)
(-0.00339016 8.29185e-05 0)
(-0.00455241 0.000133109 0)
(-0.00584759 0.000147502 0)
(-0.00710634 0.000157611 0)
(-0.00818303 0.00015614 0)
(-0.00862672 0.000104158 0)
(-0.00779497 -6.67761e-05 0)
(-0.00521875 -0.000298004 0)
(-0.00110062 -0.000514509 0)
(0.00323817 -0.00051722 0)
(0.00622772 -0.000350438 0)
(0.00719136 -0.000101048 0)
(0.00621916 0.000117878 0)
(0.00413166 0.000222977 0)
(0.00183502 0.00022681 0)
(-0.000131407 0.000184106 0)
(-0.00155179 0.000127575 0)
(-0.00246537 7.93508e-05 0)
(-0.00300141 4.56786e-05 0)
(-0.00329519 2.51366e-05 0)
(-0.00345351 1.44873e-05 0)
(-0.00354704 1.01155e-05 0)
(-0.00361105 8.38256e-06 0)
(-0.00365137 6.48204e-06 0)
(-0.00365748 3.108e-06 0)
(-0.00362089 -1.40056e-06 0)
(-0.00355122 -4.32275e-06 0)
(-0.00348411 -2.10149e-06 0)
(-0.00347167 6.67894e-06 0)
(-0.00353467 1.70494e-05 0)
(-0.00360985 2.00892e-05 0)
(-0.00356734 7.35303e-06 0)
(-0.00329978 -1.52008e-05 0)
(-0.00279104 -3.79331e-05 0)
(-0.00208965 -5.74681e-05 0)
(-0.00124215 -7.61955e-05 0)
(-0.000285423 -9.13207e-05 0)
(0.000687955 -9.56325e-05 0)
(0.00149502 -7.97937e-05 0)
(0.00194566 -4.41289e-05 0)
(0.00193086 8.48969e-07 0)
(0.00150155 3.79926e-05 0)
(0.000818434 5.91259e-05 0)
(6.36642e-05 6.18249e-05 0)
(-0.000615903 5.39285e-05 0)
(-0.00114386 4.05318e-05 0)
(-0.00151133 2.69697e-05 0)
(-0.00173117 1.55388e-05 0)
(-0.00184896 7.65526e-06 0)
(-0.0018939 2.48561e-06 0)
(-0.00190196 2.66296e-07 0)
(-0.00189651 -9.68072e-07 0)
(-0.00187905 -7.37367e-07 0)
(-0.0018807 -8.23373e-07 0)
(-0.00185963 -5.46617e-07 0)
(-0.00187655 1.21006e-07 0)
)
;
    }
    bottomWall
    {
        type            calculated;
        value           nonuniform List<vector> 
800
(
(-0.0353512 0.00216563 0)
(-0.0160364 0.000524964 0)
(-0.0105905 0.000100553 0)
(-0.00845582 3.4587e-05 0)
(-0.00749193 1.968e-05 0)
(-0.00685647 1.60078e-05 0)
(-0.00634793 1.32068e-05 0)
(-0.00593701 1.07564e-05 0)
(-0.00560274 8.95486e-06 0)
(-0.00532438 7.6544e-06 0)
(-0.00508736 6.669e-06 0)
(-0.00488224 5.89042e-06 0)
(-0.00470255 5.25971e-06 0)
(-0.00454356 4.73994e-06 0)
(-0.00440168 4.3055e-06 0)
(-0.00427414 3.93785e-06 0)
(-0.00415874 3.6233e-06 0)
(-0.00405375 3.35158e-06 0)
(-0.00395775 3.11488e-06 0)
(-0.00386957 2.90714e-06 0)
(-0.00378827 2.72358e-06 0)
(-0.00371302 2.5604e-06 0)
(-0.00364315 2.41455e-06 0)
(-0.00357808 2.28352e-06 0)
(-0.00351732 2.16527e-06 0)
(-0.00346045 2.05808e-06 0)
(-0.00340708 1.96054e-06 0)
(-0.00335689 1.87145e-06 0)
(-0.00330962 1.78982e-06 0)
(-0.00326499 1.71477e-06 0)
(-0.0032228 1.64557e-06 0)
(-0.00318284 1.58159e-06 0)
(-0.00314495 1.52229e-06 0)
(-0.00310897 1.46718e-06 0)
(-0.00307475 1.41585e-06 0)
(-0.00304217 1.36794e-06 0)
(-0.00301111 1.32312e-06 0)
(-0.00298148 1.28112e-06 0)
(-0.00295318 1.24167e-06 0)
(-0.00292612 1.20457e-06 0)
(-0.00290023 1.1696e-06 0)
(-0.00287543 1.13659e-06 0)
(-0.00285166 1.10541e-06 0)
(-0.00282886 1.07582e-06 0)
(-0.00280697 1.04792e-06 0)
(-0.00278594 1.02113e-06 0)
(-0.00276573 9.96189e-07 0)
(-0.0027463 9.7155e-07 0)
(-0.00272758 9.49365e-07 0)
(-0.00270958 9.25586e-07 0)
(-0.00269455 9.06062e-07 0)
(-0.00268215 8.9499e-07 0)
(-0.00266993 8.80741e-07 0)
(-0.00265791 8.65489e-07 0)
(-0.00264609 8.51149e-07 0)
(-0.00263446 8.3747e-07 0)
(-0.00262302 8.24079e-07 0)
(-0.00261177 8.10932e-07 0)
(-0.00260069 7.98055e-07 0)
(-0.00258979 7.85446e-07 0)
(-0.00257906 7.73087e-07 0)
(-0.0025685 7.60965e-07 0)
(-0.00255811 7.49071e-07 0)
(-0.00254788 7.37397e-07 0)
(-0.00253781 7.25935e-07 0)
(-0.0025279 7.14677e-07 0)
(-0.00251814 7.03616e-07 0)
(-0.00250853 6.92745e-07 0)
(-0.00249907 6.82057e-07 0)
(-0.00248976 6.71546e-07 0)
(-0.0024806 6.61206e-07 0)
(-0.00247157 6.51033e-07 0)
(-0.00246269 6.41019e-07 0)
(-0.00245394 6.31161e-07 0)
(-0.00244533 6.21453e-07 0)
(-0.00243685 6.11891e-07 0)
(-0.0024285 6.0247e-07 0)
(-0.00242028 5.93187e-07 0)
(-0.00241219 5.84036e-07 0)
(-0.00240422 5.75016e-07 0)
(-0.00239638 5.66121e-07 0)
(-0.00238866 5.57348e-07 0)
(-0.00238106 5.48693e-07 0)
(-0.00237358 5.40154e-07 0)
(-0.00236622 5.31727e-07 0)
(-0.00235898 5.23408e-07 0)
(-0.00235184 5.15194e-07 0)
(-0.00234482 5.07082e-07 0)
(-0.00233792 4.9907e-07 0)
(-0.00233112 4.91153e-07 0)
(-0.00232443 4.8333e-07 0)
(-0.00231785 4.75597e-07 0)
(-0.00231138 4.67951e-07 0)
(-0.00230501 4.6039e-07 0)
(-0.00229875 4.52911e-07 0)
(-0.00229259 4.45512e-07 0)
(-0.00228653 4.38191e-07 0)
(-0.00228057 4.30944e-07 0)
(-0.00227471 4.2377e-07 0)
(-0.00226895 4.16668e-07 0)
(-0.00226329 4.09634e-07 0)
(-0.00225773 4.02668e-07 0)
(-0.00225226 3.95767e-07 0)
(-0.00224689 3.88931e-07 0)
(-0.00224161 3.82157e-07 0)
(-0.00223642 3.75446e-07 0)
(-0.00223133 3.68795e-07 0)
(-0.00222633 3.62205e-07 0)
(-0.00222142 3.55673e-07 0)
(-0.0022166 3.492e-07 0)
(-0.00221187 3.42783e-07 0)
(-0.00220723 3.36424e-07 0)
(-0.00220268 3.3012e-07 0)
(-0.00219821 3.23872e-07 0)
(-0.00219383 3.17679e-07 0)
(-0.00218954 3.11541e-07 0)
(-0.00218533 3.05456e-07 0)
(-0.0021812 2.99425e-07 0)
(-0.00217716 2.93446e-07 0)
(-0.0021732 2.87521e-07 0)
(-0.00216932 2.81648e-07 0)
(-0.00216552 2.75827e-07 0)
(-0.0021618 2.70058e-07 0)
(-0.00215816 2.64342e-07 0)
(-0.0021546 2.58677e-07 0)
(-0.00215112 2.53065e-07 0)
(-0.00214772 2.47504e-07 0)
(-0.00214439 2.41995e-07 0)
(-0.00214114 2.36539e-07 0)
(-0.00213796 2.31137e-07 0)
(-0.00213485 2.25788e-07 0)
(-0.00213182 2.20492e-07 0)
(-0.00212887 2.15251e-07 0)
(-0.00212598 2.10066e-07 0)
(-0.00212317 2.04938e-07 0)
(-0.00212042 1.99864e-07 0)
(-0.00211774 1.9485e-07 0)
(-0.00211514 1.89889e-07 0)
(-0.0021126 1.84996e-07 0)
(-0.00211012 1.8015e-07 0)
(-0.00210772 1.75386e-07 0)
(-0.00210537 1.70653e-07 0)
(-0.0021031 1.6603e-07 0)
(-0.00210088 1.61404e-07 0)
(-0.00209873 1.56943e-07 0)
(-0.00209663 1.52405e-07 0)
(-0.0020946 1.48133e-07 0)
(-0.00209263 1.43639e-07 0)
(-0.00209071 1.39541e-07 0)
(-0.00208885 1.34961e-07 0)
(-0.00208733 1.31096e-07 0)
(-0.00208611 1.29055e-07 0)
(-0.00208489 1.26552e-07 0)
(-0.0020837 1.23668e-07 0)
(-0.00208252 1.20787e-07 0)
(-0.00208137 1.18013e-07 0)
(-0.00208023 1.15284e-07 0)
(-0.00207911 1.12589e-07 0)
(-0.00207801 1.09916e-07 0)
(-0.00207693 1.07268e-07 0)
(-0.00207586 1.04649e-07 0)
(-0.00207482 1.02062e-07 0)
(-0.00207379 9.94959e-08 0)
(-0.00207278 9.6973e-08 0)
(-0.00207179 9.44713e-08 0)
(-0.00207082 9.20096e-08 0)
(-0.00206986 8.95808e-08 0)
(-0.00206893 8.71884e-08 0)
(-0.00206801 8.48308e-08 0)
(-0.00206711 8.25105e-08 0)
(-0.00206623 8.02278e-08 0)
(-0.00206536 7.79857e-08 0)
(-0.00206452 7.57789e-08 0)
(-0.00206369 7.36214e-08 0)
(-0.00206287 7.14987e-08 0)
(-0.00206208 6.94239e-08 0)
(-0.0020613 6.73931e-08 0)
(-0.00206054 6.54074e-08 0)
(-0.0020598 6.34669e-08 0)
(-0.00205907 6.15744e-08 0)
(-0.00205836 5.97256e-08 0)
(-0.00205766 5.79307e-08 0)
(-0.00205698 5.61818e-08 0)
(-0.00205631 5.44857e-08 0)
(-0.00205566 5.28391e-08 0)
(-0.00205503 5.12437e-08 0)
(-0.0020544 4.96994e-08 0)
(-0.0020538 4.82081e-08 0)
(-0.0020532 4.67622e-08 0)
(-0.00205262 4.53688e-08 0)
(-0.00205206 4.40154e-08 0)
(-0.0020515 4.27066e-08 0)
(-0.00205096 4.14342e-08 0)
(-0.00205043 4.01931e-08 0)
(-0.00204992 3.89757e-08 0)
(-0.00204942 3.7776e-08 0)
(-0.00204893 3.65836e-08 0)
(-0.00204845 3.53939e-08 0)
(-0.00204799 3.41925e-08 0)
(-0.00204754 3.29763e-08 0)
(-0.00204711 3.17334e-08 0)
(-0.00204669 3.04621e-08 0)
(-0.00204629 2.9154e-08 0)
(-0.0020459 2.7809e-08 0)
(-0.00204554 2.64221e-08 0)
(-0.00204518 2.49989e-08 0)
(-0.00204485 2.35414e-08 0)
(-0.00204454 2.20546e-08 0)
(-0.00204424 2.05513e-08 0)
(-0.00204397 1.90378e-08 0)
(-0.00204371 1.7527e-08 0)
(-0.00204347 1.60348e-08 0)
(-0.00204325 1.45656e-08 0)
(-0.00204305 1.31422e-08 0)
(-0.00204287 1.1767e-08 0)
(-0.00204271 1.04487e-08 0)
(-0.00204256 9.1983e-09 0)
(-0.00204243 8.01895e-09 0)
(-0.00204232 6.91172e-09 0)
(-0.00204222 5.87426e-09 0)
(-0.00204213 4.90286e-09 0)
(-0.00204206 3.99807e-09 0)
(-0.002042 3.13936e-09 0)
(-0.00204196 2.33675e-09 0)
(-0.00204193 1.56406e-09 0)
(-0.00204191 8.11908e-10 0)
(-0.0020419 1.87191e-10 0)
(-0.00204191 -4.85365e-10 0)
(-0.00204192 -1.13021e-09 0)
(-0.00204195 -1.74741e-09 0)
(-0.00204199 -2.37225e-09 0)
(-0.00204204 -2.9274e-09 0)
(-0.0020421 -3.51508e-09 0)
(-0.00204217 -3.99131e-09 0)
(-0.00204225 -4.5525e-09 0)
(-0.00204234 -4.89127e-09 0)
(-0.00204244 -5.4648e-09 0)
(-0.00204254 -5.51038e-09 0)
(-0.00204266 -6.24659e-09 0)
(-0.00204278 -5.78807e-09 0)
(-0.0020429 -6.90578e-09 0)
(-0.00204303 -5.5535e-09 0)
(-0.00204317 -7.52697e-09 0)
(-0.0020433 -4.63143e-09 0)
(-0.00204343 -8.14022e-09 0)
(-0.00204358 -3.09162e-09 0)
(-0.00204367 -8.36457e-09 0)
(-0.00204386 -1.87117e-09 0)
(-0.00204386 -5.9598e-09 0)
(-0.00204412 -5.43987e-09 0)
(-0.0353511 -0.00216564 0)
(-0.0160358 -0.000524993 0)
(-0.010589 -0.00010059 0)
(-0.00845316 -3.46259e-05 0)
(-0.00748791 -1.97237e-05 0)
(-0.00685087 -1.60572e-05 0)
(-0.00634055 -1.32617e-05 0)
(-0.00592767 -1.08169e-05 0)
(-0.00559129 -9.02084e-06 0)
(-0.00531067 -7.72558e-06 0)
(-0.00507126 -6.74512e-06 0)
(-0.00486364 -5.97145e-06 0)
(-0.00468133 -5.34577e-06 0)
(-0.0045196 -4.8313e-06 0)
(-0.00437486 -4.40249e-06 0)
(-0.00424433 -4.04087e-06 0)
(-0.0041258 -3.73277e-06 0)
(-0.00401754 -3.46795e-06 0)
(-0.00391812 -3.23861e-06 0)
(-0.00382636 -3.0387e-06 0)
(-0.00374131 -2.86354e-06 0)
(-0.00366214 -2.70939e-06 0)
(-0.00358817 -2.5733e-06 0)
(-0.00351879 -2.45286e-06 0)
(-0.00345351 -2.34615e-06 0)
(-0.00339187 -2.2516e-06 0)
(-0.00333348 -2.1679e-06 0)
(-0.003278 -2.09402e-06 0)
(-0.00322512 -2.02899e-06 0)
(-0.00317455 -1.9723e-06 0)
(-0.00312606 -1.92297e-06 0)
(-0.00307941 -1.88114e-06 0)
(-0.0030344 -1.84537e-06 0)
(-0.00299082 -1.81697e-06 0)
(-0.00294852 -1.79305e-06 0)
(-0.00290729 -1.77726e-06 0)
(-0.00286702 -1.76359e-06 0)
(-0.00282755 -1.75956e-06 0)
(-0.00278868 -1.75472e-06 0)
(-0.00275056 -1.75959e-06 0)
(-0.00271235 -1.76421e-06 0)
(-0.00267558 -1.76622e-06 0)
(-0.00263692 -1.79109e-06 0)
(-0.00260267 -1.7469e-06 0)
(-0.00256105 -1.84226e-06 0)
(-0.00253374 -1.59853e-06 0)
(-0.0024827 -1.98299e-06 0)
(-0.00247497 -7.61505e-07 0)
(-0.00240674 -5.83008e-06 0)
(-0.00227806 0.000162723 0)
(-9.3842e-06 4.84536e-06 0)
(-8.53402e-06 1.99506e-05 0)
(-7.06523e-06 2.91644e-05 0)
(-6.18151e-06 3.55116e-05 0)
(-5.9844e-06 4.05436e-05 0)
(-6.17947e-06 4.54359e-05 0)
(-6.57984e-06 5.05793e-05 0)
(-7.07045e-06 5.61929e-05 0)
(-7.60448e-06 6.23159e-05 0)
(-8.15326e-06 6.89585e-05 0)
(-8.70933e-06 7.61026e-05 0)
(-9.27222e-06 8.3723e-05 0)
(-9.81655e-06 9.17952e-05 0)
(-1.03493e-05 0.000100298 0)
(-1.08665e-05 0.000109171 0)
(-1.1333e-05 0.000118369 0)
(-1.17591e-05 0.000127843 0)
(-1.21259e-05 0.0001375 0)
(-1.24197e-05 0.000147272 0)
(-1.26359e-05 0.000157075 0)
(-1.27491e-05 0.0001668 0)
(-1.27781e-05 0.000176351 0)
(-1.26938e-05 0.000185627 0)
(-1.24963e-05 0.000194526 0)
(-1.2177e-05 0.000202918 0)
(-1.17312e-05 0.000210698 0)
(-1.11662e-05 0.000217783 0)
(-1.04834e-05 0.000224052 0)
(-9.6673e-06 0.00022942 0)
(-8.72684e-06 0.000233804 0)
(-7.69074e-06 0.000237094 0)
(-6.54196e-06 0.000239249 0)
(-5.28789e-06 0.000240208 0)
(-3.96666e-06 0.000239921 0)
(-2.59296e-06 0.000238412 0)
(-1.1919e-06 0.000235651 0)
(2.4585e-07 0.000231637 0)
(1.68579e-06 0.000226408 0)
(3.12354e-06 0.000219991 0)
(4.53107e-06 0.000212431 0)
(5.90782e-06 0.000203796 0)
(7.22645e-06 0.000194188 0)
(8.48287e-06 0.000183732 0)
(9.66454e-06 0.000172569 0)
(1.07487e-05 0.000160446 0)
(1.17076e-05 0.000147548 0)
(1.25744e-05 0.00013426 0)
(1.33207e-05 0.000120664 0)
(1.39481e-05 0.000106787 0)
(1.44515e-05 9.27483e-05 0)
(1.48395e-05 7.87021e-05 0)
(1.50974e-05 6.46921e-05 0)
(1.52467e-05 5.08225e-05 0)
(1.52877e-05 3.72684e-05 0)
(1.5218e-05 2.40193e-05 0)
(1.50689e-05 1.11746e-05 0)
(1.48172e-05 -1.14114e-06 0)
(1.45009e-05 -1.29006e-05 0)
(1.41127e-05 -2.40314e-05 0)
(1.36687e-05 -3.44945e-05 0)
(1.31773e-05 -4.42516e-05 0)
(1.26497e-05 -5.3273e-05 0)
(1.20971e-05 -6.15377e-05 0)
(1.15306e-05 -6.90334e-05 0)
(1.0961e-05 -7.57555e-05 0)
(1.03992e-05 -8.1707e-05 0)
(9.85577e-06 -8.68984e-05 0)
(9.3403e-06 -9.13472e-05 0)
(8.86165e-06 -9.50768e-05 0)
(8.42913e-06 -9.81175e-05 0)
(8.04823e-06 -0.000100505 0)
(7.7236e-06 -0.000102276 0)
(7.46582e-06 -0.000103471 0)
(7.28345e-06 -0.000104136 0)
(7.18617e-06 -0.000104322 0)
(7.17691e-06 -0.000104095 0)
(7.27121e-06 -0.000103523 0)
(7.47308e-06 -0.000102664 0)
(7.78927e-06 -0.000101584 0)
(8.22082e-06 -0.000100352 0)
(8.76416e-06 -9.90382e-05 0)
(9.41143e-06 -9.77119e-05 0)
(1.01531e-05 -9.64424e-05 0)
(1.09768e-05 -9.52975e-05 0)
(1.18664e-05 -9.43432e-05 0)
(1.28011e-05 -9.36421e-05 0)
(1.37548e-05 -9.32512e-05 0)
(1.4705e-05 -9.32207e-05 0)
(1.56235e-05 -9.36065e-05 0)
(1.64906e-05 -9.44541e-05 0)
(1.72857e-05 -9.57913e-05 0)
(1.79962e-05 -9.76455e-05 0)
(1.85982e-05 -0.000100045 0)
(1.90301e-05 -0.000103014 0)
(1.91481e-05 -0.000106544 0)
(1.86855e-05 -0.000110522 0)
(1.72546e-05 -0.000114631 0)
(1.44108e-05 -0.000118284 0)
(9.81061e-06 -0.000120623 0)
(3.32604e-06 -0.000120685 0)
(-4.81663e-06 -0.000117562 0)
(-1.39152e-05 -0.000110563 0)
(-2.2681e-05 -9.95042e-05 0)
(-2.92838e-05 -8.49316e-05 0)
(-3.15832e-05 -6.83703e-05 0)
(-2.76603e-05 -5.24289e-05 0)
(-1.65832e-05 -4.06843e-05 0)
(1.36251e-06 -3.66254e-05 0)
(2.43045e-05 -4.20001e-05 0)
(4.99421e-05 -5.95419e-05 0)
(7.5433e-05 -8.98579e-05 0)
(9.67543e-05 -0.000132572 0)
(0.000109652 -0.000185094 0)
(0.000110687 -0.000242827 0)
(9.81406e-05 -0.000299626 0)
(7.28153e-05 -0.000348876 0)
(3.79763e-05 -0.000385036 0)
(-1.75354e-06 -0.000404463 0)
(-4.08488e-05 -0.000405369 0)
(-7.34164e-05 -0.000388444 0)
(-9.4432e-05 -0.000357227 0)
(-0.000100892 -0.000317218 0)
(-9.229e-05 -0.000274759 0)
(-7.07243e-05 -0.000235824 0)
(-4.09592e-05 -0.000205574 0)
(-1.03489e-05 -0.000186236 0)
(1.1932e-05 -0.000176778 0)
(1.82559e-05 -0.000174386 0)
(4.85695e-06 -0.000170863 0)
(-2.61208e-05 -0.00015579 0)
(-6.6177e-05 -0.000124011 0)
(-0.000104984 -7.69494e-05 0)
(-0.000135424 -2.07629e-05 0)
(-0.000155272 3.78406e-05 0)
(-0.000165561 9.45497e-05 0)
(-0.000168325 0.000147409 0)
(-0.000165484 0.000195684 0)
(-0.000158571 0.000239114 0)
(-0.000148762 0.000277626 0)
(-0.000136965 0.000311244 0)
(-0.000123888 0.000340071 0)
(-0.000110083 0.000364272 0)
(-9.59846e-05 0.00038406 0)
(-8.19305e-05 0.000399684 0)
(-6.81856e-05 0.000411418 0)
(-5.49581e-05 0.000419555 0)
(-4.23981e-05 0.000424406 0)
(-3.05847e-05 0.000426277 0)
(-1.95984e-05 0.000425437 0)
(-9.50906e-06 0.000422208 0)
(-3.08413e-07 0.000416893 0)
(8.02748e-06 0.00040976 0)
(1.55339e-05 0.000401051 0)
(2.22552e-05 0.000390992 0)
(2.82409e-05 0.000379788 0)
(3.35444e-05 0.000367623 0)
(3.82215e-05 0.000354662 0)
(4.23291e-05 0.000341055 0)
(4.59241e-05 0.000326928 0)
(4.90627e-05 0.000312396 0)
(5.17994e-05 0.000297556 0)
(5.41864e-05 0.000282489 0)
(5.62734e-05 0.000267266 0)
(5.81067e-05 0.000251943 0)
(5.97294e-05 0.000236567 0)
(6.1181e-05 0.000221175 0)
(6.24973e-05 0.000205796 0)
(6.37102e-05 0.000190451 0)
(6.48476e-05 0.000175154 0)
(6.59337e-05 0.000159915 0)
(6.69885e-05 0.000144741 0)
(6.8028e-05 0.000129632 0)
(6.90644e-05 0.000114588 0)
(7.01054e-05 9.96079e-05 0)
(7.11549e-05 8.46885e-05 0)
(7.22126e-05 6.98284e-05 0)
(7.32745e-05 5.50279e-05 0)
(7.43325e-05 4.02909e-05 0)
(7.53753e-05 2.56255e-05 0)
(7.63899e-05 1.10455e-05 0)
(7.73604e-05 -3.43065e-06 0)
(7.82682e-05 -1.77785e-05 0)
(7.90944e-05 -3.19687e-05 0)
(7.98188e-05 -4.59691e-05 0)
(8.04169e-05 -5.97459e-05 0)
(8.08578e-05 -7.32681e-05 0)
(8.10978e-05 -8.65141e-05 0)
(8.10685e-05 -9.94848e-05 0)
(8.06556e-05 -0.000112228 0)
(7.96595e-05 -0.000124882 0)
(7.77257e-05 -0.00013776 0)
(7.42177e-05 -0.000151508 0)
(6.79898e-05 -0.000167398 0)
(5.69988e-05 -0.000187886 0)
(3.76238e-05 -0.000217608 0)
(3.35661e-06 -0.000264845 0)
(-5.79136e-05 -0.000343864 0)
(-0.000169088 -0.00047669 0)
(-0.000360771 -0.000686126 0)
(-0.000631406 -0.00097138 0)
(1.3664e-07 1.02907e-05 0)
(-1.25144e-05 1.22077e-05 0)
(-2.18971e-05 1.16991e-05 0)
(-3.00112e-05 1.1221e-05 0)
(-3.78146e-05 1.09545e-05 0)
(-4.54455e-05 1.06846e-05 0)
(-5.28472e-05 1.03425e-05 0)
(-5.99547e-05 9.92223e-06 0)
(-6.67041e-05 9.42267e-06 0)
(-7.30307e-05 8.84464e-06 0)
(-7.88775e-05 8.18619e-06 0)
(-8.41806e-05 7.44958e-06 0)
(-8.88745e-05 6.6351e-06 0)
(-9.28961e-05 5.73442e-06 0)
(-9.61759e-05 4.74947e-06 0)
(-9.86416e-05 3.67514e-06 0)
(-0.000100224 2.51645e-06 0)
(-0.000100856 1.26401e-06 0)
(-0.000100455 -7.67951e-08 0)
(-9.89426e-05 -1.50072e-06 0)
(-9.62442e-05 -3.00661e-06 0)
(-9.22898e-05 -4.59659e-06 0)
(-8.70157e-05 -6.26168e-06 0)
(-8.03468e-05 -8.02565e-06 0)
(-7.22396e-05 -9.84613e-06 0)
(-6.26819e-05 -1.17446e-05 0)
(-5.14775e-05 -1.37079e-05 0)
(-3.85351e-05 -1.56473e-05 0)
(-2.40043e-05 -1.76179e-05 0)
(-7.84478e-06 -1.96129e-05 0)
(9.91465e-06 -2.15865e-05 0)
(2.93718e-05 -2.35504e-05 0)
(5.05048e-05 -2.54697e-05 0)
(7.32013e-05 -2.7333e-05 0)
(9.74663e-05 -2.91017e-05 0)
(0.000123198 -3.07646e-05 0)
(0.000150319 -3.22968e-05 0)
(0.00017874 -3.3706e-05 0)
(0.000208351 -3.49392e-05 0)
(0.000238986 -3.59825e-05 0)
(0.000270523 -3.68589e-05 0)
(0.000302806 -3.75086e-05 0)
(0.000335654 -3.79437e-05 0)
(0.000368889 -3.81617e-05 0)
(0.000402327 -3.81622e-05 0)
(0.000435781 -3.79297e-05 0)
(0.00046905 -3.74743e-05 0)
(0.000501935 -3.68072e-05 0)
(0.000534251 -3.59298e-05 0)
(0.000565816 -3.48457e-05 0)
(0.000596399 -3.35697e-05 0)
(0.000625842 -3.21054e-05 0)
(0.000653983 -3.04726e-05 0)
(0.000680594 -2.86662e-05 0)
(0.000705528 -2.6691e-05 0)
(0.000728627 -2.45639e-05 0)
(0.000749712 -2.2276e-05 0)
(0.000768604 -1.98249e-05 0)
(0.00078514 -1.71959e-05 0)
(0.000799136 -1.44001e-05 0)
(0.000810435 -1.13939e-05 0)
(0.000818844 -8.198e-06 0)
(0.000824196 -4.77754e-06 0)
(0.000826319 -1.09519e-06 0)
(0.000824963 2.86838e-06 0)
(0.000819909 7.03283e-06 0)
(0.000811077 1.13051e-05 0)
(0.000798412 1.56404e-05 0)
(0.000781896 2.00152e-05 0)
(0.000761516 2.43887e-05 0)
(0.000737311 2.87021e-05 0)
(0.000709411 3.28831e-05 0)
(0.000677954 3.68547e-05 0)
(0.000643161 4.05564e-05 0)
(0.000605342 4.38766e-05 0)
(0.000564861 4.67205e-05 0)
(0.000522166 4.90079e-05 0)
(0.000477782 5.06518e-05 0)
(0.000432278 5.15845e-05 0)
(0.000386285 5.17373e-05 0)
(0.000340462 5.11008e-05 0)
(0.00029546 4.9685e-05 0)
(0.000251927 4.74934e-05 0)
(0.000210493 4.46066e-05 0)
(0.000171706 4.11086e-05 0)
(0.000136014 3.71282e-05 0)
(0.000103771 3.27986e-05 0)
(7.52052e-05 2.82742e-05 0)
(5.0417e-05 2.3694e-05 0)
(2.93812e-05 1.92133e-05 0)
(1.19563e-05 1.49623e-05 0)
(-2.15064e-06 1.10144e-05 0)
(-1.31726e-05 7.43195e-06 0)
(-2.12943e-05 4.14075e-06 0)
(-2.68225e-05 9.89634e-07 0)
(-2.97471e-05 -2.23233e-06 0)
(-2.97157e-05 -5.79395e-06 0)
(-2.58569e-05 -9.57813e-06 0)
(-1.80564e-05 -1.29346e-05 0)
(-1.76327e-06 -1.52829e-05 0)
(-1.58648e-05 -6.58267e-06 0)
(-1.60906e-05 -2.84603e-05 0)
(-1.69067e-05 -4.72146e-05 0)
(-1.85197e-05 -6.73164e-05 0)
(-2.06619e-05 -8.99513e-05 0)
(-2.32493e-05 -0.000115558 0)
(-2.61405e-05 -0.000144737 0)
(-2.92984e-05 -0.000177768 0)
(-3.24968e-05 -0.000214853 0)
(-3.55862e-05 -0.000256004 0)
(-3.82803e-05 -0.000300826 0)
(-4.02346e-05 -0.000348727 0)
(-4.109e-05 -0.000398714 0)
(-4.03653e-05 -0.000449194 0)
(-3.76688e-05 -0.000498222 0)
(-3.26789e-05 -0.000543414 0)
(-2.52573e-05 -0.000582146 0)
(-1.55329e-05 -0.000611765 0)
(-3.96876e-06 -0.000629933 0)
(8.55505e-06 -0.000635113 0)
(2.05956e-05 -0.000626782 0)
(3.06888e-05 -0.000606132 0)
(3.75943e-05 -0.000575859 0)
(4.05036e-05 -0.000539586 0)
(3.92765e-05 -0.00050158 0)
(3.46267e-05 -0.00046599 0)
(2.8028e-05 -0.000435814 0)
(2.14455e-05 -0.000412145 0)
(1.67792e-05 -0.000393961 0)
(1.54965e-05 -0.000378571 0)
(1.81274e-05 -0.000362164 0)
(2.40943e-05 -0.000340601 0)
(3.15276e-05 -0.000310388 0)
(3.78897e-05 -0.000270328 0)
(4.00887e-05 -0.000221665 0)
(3.78597e-05 -0.000168887 0)
(3.90568e-05 -0.000122225 0)
(4.70313e-05 -7.40744e-05 0)
(2.39317e-05 -4.65097e-05 0)
(-1.76907e-05 -3.45752e-05 0)
(-8.65515e-05 -1.89633e-05 0)
(-5.32043e-05 -0.000127951 0)
(0.000131154 -0.000166134 0)
(9.36508e-05 -0.000145925 0)
(-6.64857e-05 -0.000340847 0)
(-6.71461e-05 -0.000489584 0)
(-0.000285519 -0.000281401 0)
(-0.000576773 -0.00030605 0)
(-0.000679239 -0.000555397 0)
(-0.000397336 -0.000854997 0)
(0.000243482 -0.00053176 0)
(0.000612919 -2.93198e-05 0)
(0.000494394 0.000445844 0)
(0.000287416 0.000585827 0)
(0.00026094 0.000705416 0)
(0.000204215 0.000837932 0)
(0.000177535 0.000931688 0)
(0.000154079 0.00102735 0)
(0.000133516 0.00110327 0)
(0.000119758 0.00117354 0)
(0.000105857 0.00123506 0)
(9.59561e-05 0.00128971 0)
(8.65001e-05 0.00133938 0)
(7.88026e-05 0.00138351 0)
(7.18343e-05 0.00142378 0)
(6.55789e-05 0.00145994 0)
(5.98954e-05 0.00149276 0)
(5.4508e-05 0.00152236 0)
(4.94119e-05 0.00154899 0)
(4.43884e-05 0.00157282 0)
(3.93778e-05 0.0015939 0)
(3.42171e-05 0.00161227 0)
(2.8772e-05 0.00162781 0)
(2.2866e-05 0.00164038 0)
(1.63046e-05 0.00164968 0)
(8.86931e-06 0.0016553 0)
(2.65491e-07 0.00165667 0)
(-9.67013e-06 0.0016529 0)
(-2.12117e-05 0.00164297 0)
(-3.45897e-05 0.00162567 0)
(-4.9903e-05 0.00159951 0)
(-6.68538e-05 0.00156282 0)
(-8.4418e-05 0.00151398 0)
(-0.000100351 0.0014519 0)
(-0.000110771 0.0013769 0)
(-0.000110193 0.00129172 0)
(-9.21444e-05 0.00120193 0)
(-5.05698e-05 0.00111675 0)
(1.41102e-05 0.00105091 0)
(8.1049e-05 0.0010179 0)
(0.000108636 0.00101319 0)
(8.13601e-05 0.0010102 0)
(3.59959e-05 0.00103279 0)
(-2.89047e-05 0.00118453 0)
(-0.000213501 0.0014467 0)
(-0.000452758 0.00159294 0)
(-0.000504672 0.00156148 0)
(-0.000196736 0.00191303 0)
(0.00173645 0.00293954 0)
(0.00209273 0.002325 0)
(0.00217857 0.00373696 0)
(0.00120895 0.00468936 0)
(0.000512383 0.00417993 0)
(0.000538372 0.00414428 0)
(0.000385149 0.00445089 0)
(0.000128376 0.00450311 0)
(8.17994e-05 0.00448676 0)
(3.94646e-05 0.00457873 0)
(-2.41381e-05 0.00462061 0)
(3.33986e-07 0.00464158 0)
(5.21388e-05 0.00470962 0)
(0.000119835 0.00478464 0)
(0.000228288 0.00488193 0)
(0.000346367 0.00502126 0)
(0.000464242 0.00518904 0)
(0.00057863 0.00538757 0)
(0.000675533 0.00561293 0)
(0.000756439 0.00585293 0)
(0.000824682 0.00610447 0)
(0.000881746 0.00636499 0)
(0.000929469 0.00663351 0)
(0.000965153 0.00690931 0)
(0.000986181 0.00718807 0)
(0.000991324 0.00746503 0)
(0.000980225 0.00773539 0)
(0.000953941 0.00799481 0)
(0.000914002 0.00823988 0)
(0.000862363 0.00846777 0)
(0.000801128 0.00867647 0)
(0.000732292 0.00886458 0)
(0.000657736 0.00903118 0)
(0.000579128 0.00917579 0)
(0.000497965 0.00929826 0)
(0.000415565 0.00939869 0)
(0.000333055 0.0094774 0)
(0.000251448 0.00953484 0)
(0.000171665 0.00957173 0)
(9.45271e-05 0.00958896 0)
(2.07391e-05 0.00958724 0)
(-4.73533e-05 0.009568 0)
(-0.000110421 0.0095355 0)
(-0.000170634 0.00948943 0)
(-0.000226627 0.00943032 0)
(-0.000278497 0.00936008 0)
(-0.00032666 0.00927931 0)
(-0.000370768 0.00918912 0)
(-0.000411018 0.00909085 0)
(-0.000447533 0.00898541 0)
(-0.000480353 0.00887397 0)
(-0.000509725 0.00875761 0)
(-0.000535838 0.00863724 0)
(-0.00055892 0.0085138 0)
(-0.000579269 0.00838814 0)
(-0.00059717 0.00826096 0)
(-0.000612932 0.00813291 0)
(-0.000626864 0.00800452 0)
(-0.000639249 0.00787624 0)
(-0.000650352 0.00774843 0)
(-0.000660409 0.00762137 0)
(-0.00066962 0.00749533 0)
(-0.000678167 0.0073705 0)
(-0.000686214 0.00724709 0)
(-0.000693925 0.00712526 0)
(-0.000701482 0.00700519 0)
(-0.000709093 0.00688704 0)
(-0.000717011 0.00677094 0)
(-0.000725536 0.00665702 0)
(-0.000735024 0.00654535 0)
(-0.000745889 0.00643596 0)
(-0.000758609 0.00632887 0)
(-0.000773729 0.00622402 0)
(-0.000791877 0.0061213 0)
(-0.000813766 0.00602055 0)
(-0.000840208 0.00592154 0)
(-0.00087211 0.0058239 0)
(-0.000910468 0.00572714 0)
(-0.000956326 0.00563059 0)
(-0.00101073 0.00553338 0)
(-0.00107467 0.00543439 0)
(-0.00114895 0.00533229 0)
(-0.00123415 0.00522549 0)
(-0.0013305 0.00511227 0)
(-0.00143784 0.00499076 0)
(-0.00155558 0.00485916 0)
(-0.00168276 0.00471581 0)
(-0.00181814 0.00455936 0)
(-0.00196036 0.00438892 0)
(-0.00210809 0.00420405 0)
(-0.0022602 0.00400477 0)
(-0.00241585 0.00379141 0)
(-0.00257458 0.00356443 0)
(-0.00273622 0.00332434 0)
(-0.00290084 0.00307168 0)
(-0.00306892 0.00280727 0)
(-0.0032413 0.00253226 0)
(-0.00341754 0.0022485 0)
(-0.00360042 0.00196645 0)
(-0.00383576 0.00175012 0)
(-0.00426611 0.00189528 0)
(-0.00451533 0.00311246 0)
)
;
    }
    frontAndBack
    {
        type            empty;
    }
}


// ************************************************************************* //
