/*--------------------------------*- C++ -*----------------------------------*\
  =========                 |
  \\      /  F ield         | OpenFOAM: The Open Source CFD Toolbox
   \\    /   O peration     | Website:  https://openfoam.org
    \\  /    A nd           | Version:  7
     \\/     M anipulation  |
\*---------------------------------------------------------------------------*/
FoamFile
{
    version     2.0;
    format      ascii;
    class       volScalarField;
    location    "0.24";
    object      k;
}
// * * * * * * * * * * * * * * * * * * * * * * * * * * * * * * * * * * * * * //

dimensions      [0 2 -2 0 0 0 0];

internalField   nonuniform List<scalar> 
70000
(
1.08549e-05
4.21877e-06
2.82432e-06
2.31669e-06
1.99731e-06
1.75689e-06
1.56481e-06
1.40784e-06
1.27691e-06
1.16611e-06
1.07102e-06
9.8892e-07
9.17206e-07
8.54475e-07
7.98917e-07
7.49822e-07
7.05774e-07
6.665e-07
6.30866e-07
5.98871e-07
5.6957e-07
5.43115e-07
5.18677e-07
4.96524e-07
4.75866e-07
4.57122e-07
4.39426e-07
4.23429e-07
4.08069e-07
3.94326e-07
3.80836e-07
3.68949e-07
3.57001e-07
3.46613e-07
3.36005e-07
3.26771e-07
3.17412e-07
3.08999e-07
3.00857e-07
2.93007e-07
2.85986e-07
2.7873e-07
2.72235e-07
2.67647e-07
2.58942e-07
2.59466e-07
2.49712e-07
2.6215e-07
2.51476e-07
2.77296e-07
1.72795e-05
1.13673e-05
8.52047e-06
7.01013e-06
6.03671e-06
5.3102e-06
4.73046e-06
4.25643e-06
3.86098e-06
3.52636e-06
3.23918e-06
2.99124e-06
2.77464e-06
2.58515e-06
2.41731e-06
2.26897e-06
2.13588e-06
2.01718e-06
1.90949e-06
1.81277e-06
1.72421e-06
1.64423e-06
1.57034e-06
1.50337e-06
1.44088e-06
1.38422e-06
1.33066e-06
1.28232e-06
1.23581e-06
1.19429e-06
1.15345e-06
1.1175e-06
1.08138e-06
1.0499e-06
1.01793e-06
9.89842e-07
9.6175e-07
9.36066e-07
9.11718e-07
8.87733e-07
8.66728e-07
8.44644e-07
8.24995e-07
8.10149e-07
7.84801e-07
7.82117e-07
7.56744e-07
7.78953e-07
7.63725e-07
7.94164e-07
1.93701e-05
1.61297e-05
1.3291e-05
1.12893e-05
9.82792e-06
8.69511e-06
7.77697e-06
7.01885e-06
6.38173e-06
5.83994e-06
5.37321e-06
4.96911e-06
4.61513e-06
4.3048e-06
4.02937e-06
3.78548e-06
3.56631e-06
3.37052e-06
3.19271e-06
3.03279e-06
2.88624e-06
2.75375e-06
2.63122e-06
2.52013e-06
2.41627e-06
2.32221e-06
2.23299e-06
2.15269e-06
2.07509e-06
2.00603e-06
1.9379e-06
1.87794e-06
1.81784e-06
1.76505e-06
1.71211e-06
1.66468e-06
1.61846e-06
1.57483e-06
1.53497e-06
1.49418e-06
1.45971e-06
1.42247e-06
1.38987e-06
1.36306e-06
1.32321e-06
1.31281e-06
1.27347e-06
1.29023e-06
1.29492e-06
1.30456e-06
1.9861e-05
1.826e-05
1.60857e-05
1.42001e-05
1.26398e-05
1.1348e-05
1.02597e-05
9.33709e-06
8.54496e-06
7.86122e-06
7.26566e-06
6.74551e-06
6.28635e-06
5.88129e-06
5.51967e-06
5.19774e-06
4.90713e-06
4.64639e-06
4.40884e-06
4.19447e-06
3.99748e-06
3.81897e-06
3.65334e-06
3.50307e-06
3.36192e-06
3.2343e-06
3.11246e-06
3.00319e-06
2.89689e-06
2.80254e-06
2.70918e-06
2.62677e-06
2.54466e-06
2.47144e-06
2.39957e-06
2.33311e-06
2.27081e-06
2.20923e-06
2.15568e-06
2.09813e-06
2.05157e-06
1.99939e-06
1.95524e-06
1.91477e-06
1.86432e-06
1.84275e-06
1.79042e-06
1.79149e-06
1.81157e-06
1.80219e-06
1.99706e-05
1.78458e-05
1.60749e-05
1.47666e-05
1.36028e-05
1.25377e-05
1.15692e-05
1.07014e-05
9.91992e-06
9.22403e-06
8.60317e-06
8.05013e-06
7.55347e-06
7.10918e-06
6.70732e-06
6.34539e-06
6.01539e-06
5.71675e-06
5.44269e-06
5.19378e-06
4.96358e-06
4.75405e-06
4.55825e-06
4.38035e-06
4.21177e-06
4.05957e-06
3.91279e-06
3.78154e-06
3.6528e-06
3.53852e-06
3.42534e-06
3.32438e-06
3.22515e-06
3.13427e-06
3.04789e-06
2.96442e-06
2.88991e-06
2.81204e-06
2.74796e-06
2.67524e-06
2.61909e-06
2.55322e-06
2.50035e-06
2.44628e-06
2.39025e-06
2.35282e-06
2.29747e-06
2.27132e-06
2.29015e-06
2.27051e-06
2.00095e-05
1.47037e-05
1.37479e-05
1.32114e-05
1.25922e-05
1.19283e-05
1.12791e-05
1.06588e-05
1.0082e-05
9.54809e-06
9.04725e-06
8.58103e-06
8.14692e-06
7.74699e-06
7.37495e-06
7.0319e-06
6.71308e-06
6.41995e-06
6.14712e-06
5.89642e-06
5.6615e-06
5.44599e-06
5.24182e-06
5.05577e-06
4.87674e-06
4.71518e-06
4.55704e-06
4.41576e-06
4.27591e-06
4.15096e-06
4.02767e-06
3.91534e-06
3.80736e-06
3.70451e-06
3.61073e-06
3.51501e-06
3.43412e-06
3.34427e-06
3.27426e-06
3.19031e-06
3.12847e-06
3.05181e-06
2.99467e-06
2.92776e-06
2.87259e-06
2.81558e-06
2.76739e-06
2.71385e-06
2.72098e-06
2.69435e-06
2.01331e-05
1.54681e-05
9.63452e-06
9.39898e-06
9.4944e-06
9.49426e-06
9.43656e-06
9.29963e-06
9.05968e-06
8.78638e-06
8.4921e-06
8.19533e-06
7.90363e-06
7.62072e-06
7.34373e-06
7.08355e-06
6.83637e-06
6.60231e-06
6.37828e-06
6.16761e-06
5.96488e-06
5.7761e-06
5.59267e-06
5.42444e-06
5.25822e-06
5.1079e-06
4.95767e-06
4.82295e-06
4.68831e-06
4.566e-06
4.44642e-06
4.33358e-06
4.22843e-06
4.12281e-06
4.03114e-06
3.93136e-06
3.85165e-06
3.75729e-06
3.68739e-06
3.59881e-06
3.53662e-06
3.45446e-06
3.39822e-06
3.32274e-06
3.27232e-06
3.2014e-06
3.16104e-06
3.09014e-06
3.08577e-06
3.05502e-06
2.01713e-05
1.86763e-05
8.69285e-06
5.54083e-06
5.63155e-06
5.93645e-06
6.2961e-06
6.58248e-06
6.76429e-06
6.87402e-06
6.89592e-06
6.87733e-06
6.82679e-06
6.73928e-06
6.63039e-06
6.50843e-06
6.37143e-06
6.23005e-06
6.0872e-06
5.94647e-06
5.80442e-06
5.66888e-06
5.5318e-06
5.40438e-06
5.27433e-06
5.15757e-06
5.03744e-06
4.9283e-06
4.81788e-06
4.71417e-06
4.61422e-06
4.5147e-06
4.42548e-06
4.32946e-06
4.25052e-06
4.15796e-06
4.08793e-06
3.99921e-06
3.93657e-06
3.85238e-06
3.79611e-06
3.71646e-06
3.66604e-06
3.59044e-06
3.54629e-06
3.47327e-06
3.43711e-06
3.36286e-06
3.35083e-06
3.32116e-06
2.01671e-05
1.9724e-05
1.61677e-05
4.86087e-06
3.04273e-06
3.10661e-06
3.37698e-06
3.80809e-06
4.17603e-06
4.49552e-06
4.74528e-06
4.93674e-06
5.07968e-06
5.18172e-06
5.24276e-06
5.28042e-06
5.28703e-06
5.27939e-06
5.25864e-06
5.22242e-06
5.17413e-06
5.12182e-06
5.05973e-06
4.99854e-06
4.92804e-06
4.86018e-06
4.78485e-06
4.71366e-06
4.63997e-06
4.56671e-06
4.49726e-06
4.42287e-06
4.35882e-06
4.28398e-06
4.22565e-06
4.1512e-06
4.09818e-06
4.02635e-06
3.97827e-06
3.90883e-06
3.86482e-06
3.79745e-06
3.75742e-06
3.69192e-06
3.65607e-06
3.59204e-06
3.56057e-06
3.49462e-06
3.47751e-06
3.44891e-06
2.01476e-05
1.99343e-05
1.90657e-05
1.44979e-05
5.24039e-06
2.15422e-06
1.91506e-06
1.99519e-06
2.21043e-06
2.51077e-06
2.78869e-06
3.04411e-06
3.27161e-06
3.47074e-06
3.63731e-06
3.77823e-06
3.89256e-06
3.98426e-06
4.05718e-06
4.11355e-06
4.15297e-06
4.18101e-06
4.19652e-06
4.20287e-06
4.20053e-06
4.19418e-06
4.18039e-06
4.16219e-06
4.14033e-06
4.11245e-06
4.08649e-06
4.05168e-06
4.02345e-06
3.9838e-06
3.95462e-06
3.91165e-06
3.88243e-06
3.83638e-06
3.80683e-06
3.75949e-06
3.73087e-06
3.68298e-06
3.6557e-06
3.60766e-06
3.58192e-06
3.5338e-06
3.50954e-06
3.45972e-06
3.44059e-06
3.41638e-06
2.01216e-05
1.99661e-05
1.96424e-05
1.8546e-05
1.52098e-05
8.35092e-06
3.09848e-06
1.63221e-06
1.44265e-06
1.45067e-06
1.52937e-06
1.69303e-06
1.87742e-06
2.05664e-06
2.22948e-06
2.39189e-06
2.54174e-06
2.67682e-06
2.79739e-06
2.9055e-06
2.99909e-06
3.08207e-06
3.15207e-06
3.21334e-06
3.26342e-06
3.30662e-06
3.34191e-06
3.36977e-06
3.39354e-06
3.40875e-06
3.42292e-06
3.4288e-06
3.43455e-06
3.43396e-06
3.43244e-06
3.42687e-06
3.42222e-06
3.41124e-06
3.40418e-06
3.38889e-06
3.37987e-06
3.36099e-06
3.35035e-06
3.32858e-06
3.31636e-06
3.29177e-06
3.27787e-06
3.24861e-06
3.23456e-06
3.21574e-06
2.00981e-05
1.99328e-05
1.97574e-05
1.93523e-05
1.85052e-05
1.6533e-05
1.23166e-05
6.84073e-06
2.97123e-06
1.4892e-06
1.2424e-06
1.14829e-06
1.15393e-06
1.19871e-06
1.29425e-06
1.40404e-06
1.5189e-06
1.63247e-06
1.74495e-06
1.85426e-06
1.95684e-06
2.05455e-06
2.144e-06
2.22797e-06
2.3045e-06
2.37433e-06
2.439e-06
2.49568e-06
2.54945e-06
2.59483e-06
2.63851e-06
2.6744e-06
2.70915e-06
2.73689e-06
2.76433e-06
2.78445e-06
2.80645e-06
2.82057e-06
2.83718e-06
2.84679e-06
2.85888e-06
2.86397e-06
2.87211e-06
2.87374e-06
2.8766e-06
2.87558e-06
2.87359e-06
2.86628e-06
2.86252e-06
2.85314e-06
2.00781e-05
1.98877e-05
1.9757e-05
1.94609e-05
1.91453e-05
1.86395e-05
1.75508e-05
1.54176e-05
1.17174e-05
7.41e-06
3.94793e-06
1.89266e-06
1.20338e-06
1.05643e-06
9.80558e-07
9.45607e-07
9.58587e-07
9.96447e-07
1.06047e-06
1.12816e-06
1.20006e-06
1.27385e-06
1.34793e-06
1.42207e-06
1.49488e-06
1.56404e-06
1.63236e-06
1.69511e-06
1.75746e-06
1.81369e-06
1.86956e-06
1.91929e-06
1.96864e-06
2.012e-06
2.05559e-06
2.09245e-06
2.13082e-06
2.16277e-06
2.19486e-06
2.22312e-06
2.25042e-06
2.27334e-06
2.29713e-06
2.31523e-06
2.33442e-06
2.3473e-06
2.36303e-06
2.36784e-06
2.37769e-06
2.37686e-06
2.00613e-05
1.9854e-05
1.97345e-05
1.94713e-05
1.92546e-05
1.9046e-05
1.87335e-05
1.81866e-05
1.70878e-05
1.52164e-05
1.25312e-05
9.17881e-06
5.90508e-06
3.41819e-06
1.83948e-06
1.1521e-06
9.61557e-07
8.89859e-07
8.34264e-07
7.99955e-07
8.03997e-07
8.20803e-07
8.55435e-07
8.96735e-07
9.40362e-07
9.86138e-07
1.03505e-06
1.08311e-06
1.13399e-06
1.18256e-06
1.23255e-06
1.27945e-06
1.32705e-06
1.37139e-06
1.41657e-06
1.45727e-06
1.49956e-06
1.53811e-06
1.57511e-06
1.61189e-06
1.64581e-06
1.67733e-06
1.70941e-06
1.73698e-06
1.7643e-06
1.78795e-06
1.81127e-06
1.82871e-06
1.84376e-06
1.85642e-06
2.00475e-05
1.98305e-05
1.97079e-05
1.94492e-05
1.92716e-05
1.91139e-05
1.89633e-05
1.87475e-05
1.84583e-05
1.7905e-05
1.70662e-05
1.56738e-05
1.38422e-05
1.14614e-05
8.7551e-06
6.12841e-06
3.96602e-06
2.41067e-06
1.44532e-06
1.00542e-06
8.55577e-07
7.95498e-07
7.47774e-07
7.08703e-07
6.85631e-07
6.87415e-07
6.96493e-07
7.1575e-07
7.41292e-07
7.68061e-07
7.97082e-07
8.27338e-07
8.59694e-07
8.92089e-07
9.26759e-07
9.59477e-07
9.94504e-07
1.02846e-06
1.06029e-06
1.09485e-06
1.12639e-06
1.15678e-06
1.18866e-06
1.21758e-06
1.24502e-06
1.27205e-06
1.29702e-06
1.31879e-06
1.33709e-06
1.35368e-06
2.00362e-05
1.98126e-05
1.96854e-05
1.9419e-05
1.92574e-05
1.91075e-05
1.89982e-05
1.88467e-05
1.87087e-05
1.84964e-05
1.82419e-05
1.7824e-05
1.72145e-05
1.63356e-05
1.51101e-05
1.35531e-05
1.17033e-05
9.57658e-06
7.40276e-06
5.38678e-06
3.72467e-06
2.47061e-06
1.5934e-06
1.08281e-06
8.46436e-07
7.51727e-07
7.05467e-07
6.6795e-07
6.33155e-07
6.0764e-07
5.93512e-07
5.94492e-07
5.9971e-07
6.1071e-07
6.26752e-07
6.42683e-07
6.61598e-07
6.81136e-07
7.00145e-07
7.23232e-07
7.44998e-07
7.66495e-07
7.9098e-07
8.13932e-07
8.35324e-07
8.58079e-07
8.79468e-07
8.98295e-07
9.15242e-07
9.30909e-07
2.00271e-05
1.97988e-05
1.96662e-05
1.93972e-05
1.92314e-05
1.90803e-05
1.89796e-05
1.88506e-05
1.8732e-05
1.85935e-05
1.8454e-05
1.82857e-05
1.80717e-05
1.77857e-05
1.73891e-05
1.68379e-05
1.61091e-05
1.51648e-05
1.39825e-05
1.26062e-05
1.10468e-05
9.33103e-06
7.57532e-06
5.91571e-06
4.42419e-06
3.21869e-06
2.27553e-06
1.57539e-06
1.11155e-06
8.51204e-07
7.23409e-07
6.6276e-07
6.26544e-07
5.97326e-07
5.69663e-07
5.44744e-07
5.28494e-07
5.18059e-07
5.18053e-07
5.20508e-07
5.26436e-07
5.34429e-07
5.45892e-07
5.57092e-07
5.67356e-07
5.79778e-07
5.91733e-07
6.03146e-07
6.13494e-07
6.24501e-07
2.002e-05
1.97902e-05
1.9646e-05
1.9381e-05
1.92071e-05
1.90514e-05
1.8941e-05
1.88241e-05
1.871e-05
1.85866e-05
1.84661e-05
1.83413e-05
1.82143e-05
1.80715e-05
1.79119e-05
1.77101e-05
1.74604e-05
1.7132e-05
1.6714e-05
1.61691e-05
1.55092e-05
1.46859e-05
1.37297e-05
1.26102e-05
1.14109e-05
1.00814e-05
8.68165e-06
7.27657e-06
5.93415e-06
4.70713e-06
3.6396e-06
2.76742e-06
2.06343e-06
1.51634e-06
1.12097e-06
8.652e-07
7.16405e-07
6.35672e-07
5.91282e-07
5.62203e-07
5.38933e-07
5.1711e-07
4.97181e-07
4.79845e-07
4.65935e-07
4.5775e-07
4.52435e-07
4.52332e-07
4.5325e-07
4.56527e-07
2.00144e-05
1.97902e-05
1.96198e-05
1.93676e-05
1.91867e-05
1.90243e-05
1.89052e-05
1.87871e-05
1.86701e-05
1.85499e-05
1.8436e-05
1.83184e-05
1.82059e-05
1.80856e-05
1.79723e-05
1.78473e-05
1.77234e-05
1.75752e-05
1.7415e-05
1.72102e-05
1.69745e-05
1.66724e-05
1.63139e-05
1.58666e-05
1.534e-05
1.47194e-05
1.39987e-05
1.31792e-05
1.22706e-05
1.12868e-05
1.02484e-05
9.1429e-06
8.01053e-06
6.89255e-06
5.81561e-06
4.82371e-06
3.91977e-06
3.14927e-06
2.50314e-06
1.96781e-06
1.53287e-06
1.19556e-06
9.48485e-07
7.80706e-07
6.72675e-07
6.07203e-07
5.66911e-07
5.45543e-07
5.30485e-07
5.27363e-07
2.00102e-05
1.97941e-05
1.95935e-05
1.93535e-05
1.91683e-05
1.89982e-05
1.88722e-05
1.87501e-05
1.86304e-05
1.85058e-05
1.83902e-05
1.8271e-05
1.8161e-05
1.80466e-05
1.79399e-05
1.78281e-05
1.77216e-05
1.76094e-05
1.75022e-05
1.73859e-05
1.72676e-05
1.71341e-05
1.6987e-05
1.68151e-05
1.66154e-05
1.63803e-05
1.61046e-05
1.57781e-05
1.54e-05
1.4959e-05
1.4463e-05
1.38978e-05
1.3272e-05
1.25774e-05
1.18342e-05
1.10342e-05
1.02112e-05
9.34688e-06
8.45282e-06
7.55873e-06
6.67934e-06
5.8427e-06
5.05672e-06
4.35022e-06
3.71875e-06
3.18907e-06
2.75163e-06
2.41705e-06
2.14585e-06
1.96462e-06
2.0007e-05
1.98013e-05
1.95694e-05
1.93397e-05
1.91512e-05
1.89738e-05
1.88405e-05
1.87149e-05
1.85914e-05
1.84635e-05
1.83431e-05
1.82219e-05
1.81076e-05
1.79915e-05
1.7882e-05
1.77713e-05
1.76673e-05
1.75628e-05
1.74615e-05
1.73605e-05
1.72597e-05
1.71594e-05
1.70585e-05
1.69568e-05
1.68498e-05
1.67383e-05
1.66159e-05
1.64817e-05
1.63296e-05
1.61585e-05
1.59632e-05
1.57415e-05
1.54881e-05
1.52013e-05
1.4875e-05
1.45129e-05
1.41065e-05
1.36649e-05
1.31768e-05
1.26521e-05
1.20862e-05
1.14937e-05
1.08738e-05
1.02426e-05
9.60587e-06
8.98579e-06
8.36764e-06
7.81057e-06
7.2872e-06
6.85234e-06
2.00047e-05
1.98096e-05
1.95468e-05
1.93263e-05
1.91342e-05
1.89513e-05
1.88097e-05
1.86813e-05
1.85534e-05
1.8423e-05
1.82972e-05
1.81739e-05
1.80547e-05
1.79367e-05
1.78223e-05
1.77104e-05
1.76007e-05
1.74951e-05
1.73902e-05
1.72895e-05
1.71906e-05
1.70967e-05
1.70016e-05
1.69119e-05
1.68189e-05
1.6731e-05
1.66372e-05
1.65505e-05
1.64553e-05
1.63656e-05
1.62647e-05
1.61661e-05
1.60525e-05
1.59364e-05
1.58e-05
1.56591e-05
1.54939e-05
1.53172e-05
1.51162e-05
1.48977e-05
1.46503e-05
1.4387e-05
1.40926e-05
1.37809e-05
1.34456e-05
1.30984e-05
1.27292e-05
1.23728e-05
1.20045e-05
1.16555e-05
2.0003e-05
1.98186e-05
1.95256e-05
1.93126e-05
1.91172e-05
1.89305e-05
1.878e-05
1.86489e-05
1.85168e-05
1.83844e-05
1.82532e-05
1.81279e-05
1.80037e-05
1.78836e-05
1.77643e-05
1.76506e-05
1.75362e-05
1.74283e-05
1.73191e-05
1.72158e-05
1.7112e-05
1.70153e-05
1.69159e-05
1.68256e-05
1.67299e-05
1.66468e-05
1.65575e-05
1.64787e-05
1.63917e-05
1.63164e-05
1.62326e-05
1.61578e-05
1.60747e-05
1.60003e-05
1.59166e-05
1.58417e-05
1.57566e-05
1.56734e-05
1.55828e-05
1.5489e-05
1.53835e-05
1.52758e-05
1.51545e-05
1.50249e-05
1.48863e-05
1.4738e-05
1.4569e-05
1.44123e-05
1.42328e-05
1.40458e-05
2.00017e-05
1.98272e-05
1.95062e-05
1.9298e-05
1.90998e-05
1.89114e-05
1.87518e-05
1.86176e-05
1.84819e-05
1.83477e-05
1.82117e-05
1.80841e-05
1.79556e-05
1.78331e-05
1.77094e-05
1.75936e-05
1.74748e-05
1.73644e-05
1.72513e-05
1.7145e-05
1.70375e-05
1.69378e-05
1.68341e-05
1.6741e-05
1.66409e-05
1.65536e-05
1.64598e-05
1.63773e-05
1.62875e-05
1.62105e-05
1.61266e-05
1.60557e-05
1.59789e-05
1.59111e-05
1.58365e-05
1.57734e-05
1.57034e-05
1.56397e-05
1.55715e-05
1.55067e-05
1.54387e-05
1.53731e-05
1.53067e-05
1.52399e-05
1.51677e-05
1.51012e-05
1.50138e-05
1.49457e-05
1.48619e-05
1.47611e-05
2.00009e-05
1.98306e-05
1.94898e-05
1.9283e-05
1.90825e-05
1.88941e-05
1.87256e-05
1.8588e-05
1.84492e-05
1.83133e-05
1.81731e-05
1.80432e-05
1.79111e-05
1.77859e-05
1.76584e-05
1.75404e-05
1.74174e-05
1.73047e-05
1.7188e-05
1.70785e-05
1.69681e-05
1.68652e-05
1.6758e-05
1.6662e-05
1.65584e-05
1.64673e-05
1.63706e-05
1.62834e-05
1.61904e-05
1.61092e-05
1.60216e-05
1.59453e-05
1.58649e-05
1.57922e-05
1.57154e-05
1.56502e-05
1.55789e-05
1.55174e-05
1.54517e-05
1.53946e-05
1.5333e-05
1.52754e-05
1.52178e-05
1.51674e-05
1.51039e-05
1.50577e-05
1.49919e-05
1.49387e-05
1.48862e-05
1.48131e-05
2.00003e-05
1.9829e-05
1.94766e-05
1.92673e-05
1.90653e-05
1.88786e-05
1.87019e-05
1.85603e-05
1.8419e-05
1.82815e-05
1.81382e-05
1.80058e-05
1.78707e-05
1.77429e-05
1.76121e-05
1.74919e-05
1.73652e-05
1.72503e-05
1.71301e-05
1.70177e-05
1.69044e-05
1.67986e-05
1.66882e-05
1.65894e-05
1.64828e-05
1.63883e-05
1.62893e-05
1.61982e-05
1.61024e-05
1.6018e-05
1.59269e-05
1.58472e-05
1.57637e-05
1.56865e-05
1.56067e-05
1.55376e-05
1.54622e-05
1.53978e-05
1.5326e-05
1.5266e-05
1.5199e-05
1.51401e-05
1.50775e-05
1.50301e-05
1.49613e-05
1.49166e-05
1.48583e-05
1.48025e-05
1.47559e-05
1.46948e-05
2e-05
1.98273e-05
1.94654e-05
1.92501e-05
1.90475e-05
1.88645e-05
1.86806e-05
1.85347e-05
1.83916e-05
1.82528e-05
1.8107e-05
1.79724e-05
1.78348e-05
1.77046e-05
1.75711e-05
1.7449e-05
1.73189e-05
1.72021e-05
1.70786e-05
1.69639e-05
1.68476e-05
1.67392e-05
1.66258e-05
1.65243e-05
1.6415e-05
1.63175e-05
1.62159e-05
1.61218e-05
1.60232e-05
1.59365e-05
1.58421e-05
1.57602e-05
1.56735e-05
1.55936e-05
1.55113e-05
1.5439e-05
1.53609e-05
1.52939e-05
1.52184e-05
1.51557e-05
1.50835e-05
1.50234e-05
1.49549e-05
1.49047e-05
1.48332e-05
1.4781e-05
1.47227e-05
1.46609e-05
1.46065e-05
1.45508e-05
1.99999e-05
1.98261e-05
1.94572e-05
1.92326e-05
1.90297e-05
1.8852e-05
1.86624e-05
1.85119e-05
1.83673e-05
1.82277e-05
1.80801e-05
1.79437e-05
1.78039e-05
1.76719e-05
1.75362e-05
1.74123e-05
1.72795e-05
1.71609e-05
1.70346e-05
1.69179e-05
1.67986e-05
1.66881e-05
1.65719e-05
1.6468e-05
1.63561e-05
1.62561e-05
1.61516e-05
1.60553e-05
1.59539e-05
1.5865e-05
1.57676e-05
1.56842e-05
1.5594e-05
1.55128e-05
1.54279e-05
1.53534e-05
1.5273e-05
1.5204e-05
1.51261e-05
1.50607e-05
1.49858e-05
1.49238e-05
1.48524e-05
1.47975e-05
1.47256e-05
1.46674e-05
1.46063e-05
1.45433e-05
1.44794e-05
1.44242e-05
1.99999e-05
1.98254e-05
1.9452e-05
1.92158e-05
1.90129e-05
1.88415e-05
1.86479e-05
1.84928e-05
1.83467e-05
1.82069e-05
1.80582e-05
1.79203e-05
1.77788e-05
1.76455e-05
1.75083e-05
1.73826e-05
1.72479e-05
1.71275e-05
1.6999e-05
1.68808e-05
1.67587e-05
1.66464e-05
1.65276e-05
1.64216e-05
1.63072e-05
1.62053e-05
1.60975e-05
1.59997e-05
1.58955e-05
1.58047e-05
1.57047e-05
1.56197e-05
1.55263e-05
1.54444e-05
1.53569e-05
1.52806e-05
1.5198e-05
1.51279e-05
1.50477e-05
1.498e-05
1.49036e-05
1.4839e-05
1.47662e-05
1.47073e-05
1.46345e-05
1.45726e-05
1.45079e-05
1.44444e-05
1.43735e-05
1.43152e-05
1.99999e-05
1.98251e-05
1.94496e-05
1.92007e-05
1.89977e-05
1.88329e-05
1.86375e-05
1.8478e-05
1.83305e-05
1.81909e-05
1.80418e-05
1.79029e-05
1.776e-05
1.76261e-05
1.74879e-05
1.73607e-05
1.72249e-05
1.71029e-05
1.69728e-05
1.68533e-05
1.67287e-05
1.66149e-05
1.64939e-05
1.63863e-05
1.62694e-05
1.61661e-05
1.60551e-05
1.59563e-05
1.58493e-05
1.57568e-05
1.56546e-05
1.55677e-05
1.54719e-05
1.53892e-05
1.52992e-05
1.52219e-05
1.51369e-05
1.50659e-05
1.49835e-05
1.4914e-05
1.48365e-05
1.47694e-05
1.46951e-05
1.46335e-05
1.45586e-05
1.44942e-05
1.44261e-05
1.43614e-05
1.42853e-05
1.42227e-05
1.99999e-05
1.98253e-05
1.94497e-05
1.91881e-05
1.89844e-05
1.88262e-05
1.86315e-05
1.84677e-05
1.83189e-05
1.81799e-05
1.80312e-05
1.78919e-05
1.77482e-05
1.76142e-05
1.74755e-05
1.73472e-05
1.7211e-05
1.70878e-05
1.69566e-05
1.6836e-05
1.67094e-05
1.65945e-05
1.64716e-05
1.63626e-05
1.62437e-05
1.61391e-05
1.60254e-05
1.59256e-05
1.58163e-05
1.57222e-05
1.56181e-05
1.55295e-05
1.54317e-05
1.53482e-05
1.52562e-05
1.51779e-05
1.50908e-05
1.5019e-05
1.49349e-05
1.48638e-05
1.4785e-05
1.4716e-05
1.46396e-05
1.4576e-05
1.44988e-05
1.4432e-05
1.43604e-05
1.42939e-05
1.42139e-05
1.41465e-05
1.99999e-05
1.98258e-05
1.94521e-05
1.91784e-05
1.89735e-05
1.88209e-05
1.86297e-05
1.84623e-05
1.83121e-05
1.81742e-05
1.80266e-05
1.78873e-05
1.77435e-05
1.76102e-05
1.74714e-05
1.73426e-05
1.72066e-05
1.70826e-05
1.69507e-05
1.68296e-05
1.67015e-05
1.65857e-05
1.64614e-05
1.63513e-05
1.62308e-05
1.61251e-05
1.60091e-05
1.59085e-05
1.57973e-05
1.57019e-05
1.55959e-05
1.55059e-05
1.54065e-05
1.53223e-05
1.52286e-05
1.51496e-05
1.50606e-05
1.4988e-05
1.49025e-05
1.48301e-05
1.47499e-05
1.46795e-05
1.46006e-05
1.45353e-05
1.4456e-05
1.43866e-05
1.43113e-05
1.42425e-05
1.41591e-05
1.4087e-05
1.99999e-05
1.9827e-05
1.94571e-05
1.91725e-05
1.89652e-05
1.88174e-05
1.86318e-05
1.84618e-05
1.83102e-05
1.81739e-05
1.8028e-05
1.78893e-05
1.77461e-05
1.76136e-05
1.74751e-05
1.73465e-05
1.7211e-05
1.70869e-05
1.69547e-05
1.68333e-05
1.67046e-05
1.65883e-05
1.64632e-05
1.63525e-05
1.62312e-05
1.61247e-05
1.60069e-05
1.59055e-05
1.57927e-05
1.56964e-05
1.55886e-05
1.54976e-05
1.53969e-05
1.53121e-05
1.52169e-05
1.51373e-05
1.50469e-05
1.49737e-05
1.48868e-05
1.48134e-05
1.47318e-05
1.46603e-05
1.45788e-05
1.45118e-05
1.44304e-05
1.43584e-05
1.4279e-05
1.42076e-05
1.41209e-05
1.40443e-05
1.99999e-05
1.98285e-05
1.9464e-05
1.91701e-05
1.89598e-05
1.88152e-05
1.86377e-05
1.84659e-05
1.83128e-05
1.81781e-05
1.80342e-05
1.78968e-05
1.77547e-05
1.76236e-05
1.74859e-05
1.73581e-05
1.72237e-05
1.70999e-05
1.69676e-05
1.68464e-05
1.67173e-05
1.66005e-05
1.64748e-05
1.63637e-05
1.62415e-05
1.61345e-05
1.60156e-05
1.59138e-05
1.57999e-05
1.57032e-05
1.5594e-05
1.55027e-05
1.54011e-05
1.5316e-05
1.52198e-05
1.51402e-05
1.50486e-05
1.4975e-05
1.48873e-05
1.48134e-05
1.47303e-05
1.46579e-05
1.45742e-05
1.45055e-05
1.44216e-05
1.43468e-05
1.42635e-05
1.41891e-05
1.40988e-05
1.4018e-05
1.99999e-05
1.98306e-05
1.94729e-05
1.91715e-05
1.89574e-05
1.88147e-05
1.86465e-05
1.84749e-05
1.83203e-05
1.81872e-05
1.80458e-05
1.79105e-05
1.77703e-05
1.76408e-05
1.75044e-05
1.73781e-05
1.72452e-05
1.71222e-05
1.69904e-05
1.687e-05
1.67413e-05
1.66246e-05
1.64988e-05
1.63876e-05
1.62649e-05
1.61576e-05
1.60377e-05
1.59354e-05
1.58205e-05
1.57231e-05
1.56125e-05
1.55212e-05
1.54185e-05
1.53331e-05
1.52357e-05
1.51563e-05
1.50637e-05
1.49895e-05
1.49009e-05
1.48265e-05
1.47418e-05
1.46686e-05
1.45832e-05
1.45129e-05
1.44263e-05
1.43494e-05
1.42628e-05
1.41853e-05
1.4091e-05
1.40063e-05
1.99999e-05
1.98331e-05
1.94833e-05
1.91767e-05
1.89581e-05
1.88159e-05
1.86576e-05
1.84879e-05
1.83322e-05
1.82006e-05
1.80619e-05
1.79293e-05
1.77915e-05
1.76637e-05
1.75292e-05
1.74049e-05
1.72739e-05
1.7152e-05
1.7021e-05
1.69021e-05
1.67739e-05
1.66576e-05
1.65323e-05
1.64214e-05
1.6299e-05
1.61918e-05
1.60713e-05
1.59693e-05
1.58537e-05
1.57559e-05
1.56446e-05
1.55539e-05
1.54503e-05
1.53651e-05
1.52671e-05
1.51884e-05
1.5095e-05
1.50205e-05
1.49316e-05
1.48567e-05
1.47703e-05
1.46965e-05
1.46091e-05
1.45365e-05
1.44464e-05
1.43666e-05
1.42761e-05
1.41948e-05
1.4096e-05
1.40075e-05
1.99999e-05
1.98361e-05
1.94946e-05
1.91856e-05
1.89621e-05
1.88193e-05
1.86707e-05
1.85046e-05
1.83481e-05
1.82177e-05
1.80818e-05
1.79525e-05
1.78174e-05
1.76915e-05
1.75594e-05
1.74375e-05
1.73088e-05
1.71879e-05
1.70586e-05
1.69414e-05
1.68139e-05
1.66987e-05
1.65741e-05
1.64636e-05
1.63419e-05
1.62347e-05
1.61143e-05
1.60129e-05
1.58966e-05
1.57985e-05
1.56873e-05
1.55972e-05
1.54925e-05
1.54081e-05
1.531e-05
1.52316e-05
1.5138e-05
1.50638e-05
1.49745e-05
1.48991e-05
1.48117e-05
1.47379e-05
1.46486e-05
1.45737e-05
1.44803e-05
1.43986e-05
1.43044e-05
1.42189e-05
1.41151e-05
1.4022e-05
1.99999e-05
1.98394e-05
1.95068e-05
1.91975e-05
1.89694e-05
1.88252e-05
1.86853e-05
1.85246e-05
1.83678e-05
1.82383e-05
1.8105e-05
1.79796e-05
1.78473e-05
1.77236e-05
1.75943e-05
1.74749e-05
1.73488e-05
1.7229e-05
1.71022e-05
1.69865e-05
1.68602e-05
1.67466e-05
1.66225e-05
1.65131e-05
1.63923e-05
1.62849e-05
1.61653e-05
1.60647e-05
1.59473e-05
1.58497e-05
1.57389e-05
1.5649e-05
1.55438e-05
1.54607e-05
1.53623e-05
1.52842e-05
1.51911e-05
1.51173e-05
1.50271e-05
1.49515e-05
1.48636e-05
1.47897e-05
1.46978e-05
1.46204e-05
1.45243e-05
1.44405e-05
1.4342e-05
1.42522e-05
1.41437e-05
1.40464e-05
1.99999e-05
1.9843e-05
1.95194e-05
1.92119e-05
1.89798e-05
1.88337e-05
1.87011e-05
1.85469e-05
1.83907e-05
1.82618e-05
1.81311e-05
1.80097e-05
1.78803e-05
1.77593e-05
1.76328e-05
1.75164e-05
1.73926e-05
1.72742e-05
1.71508e-05
1.70361e-05
1.69118e-05
1.67995e-05
1.66761e-05
1.65686e-05
1.64481e-05
1.63411e-05
1.62231e-05
1.61225e-05
1.60043e-05
1.5908e-05
1.57973e-05
1.57073e-05
1.56024e-05
1.55206e-05
1.54217e-05
1.53444e-05
1.52521e-05
1.51784e-05
1.50871e-05
1.5012e-05
1.49237e-05
1.48494e-05
1.47545e-05
1.46747e-05
1.4576e-05
1.449e-05
1.43865e-05
1.42921e-05
1.41788e-05
1.40773e-05
1.99999e-05
1.98467e-05
1.95322e-05
1.92284e-05
1.89933e-05
1.8845e-05
1.87178e-05
1.8571e-05
1.84163e-05
1.82878e-05
1.81597e-05
1.80422e-05
1.79158e-05
1.77979e-05
1.76739e-05
1.75613e-05
1.74388e-05
1.73233e-05
1.72027e-05
1.70893e-05
1.69676e-05
1.68559e-05
1.67341e-05
1.66285e-05
1.65078e-05
1.6402e-05
1.62856e-05
1.61844e-05
1.60665e-05
1.59715e-05
1.58603e-05
1.57706e-05
1.56665e-05
1.55856e-05
1.54864e-05
1.54103e-05
1.53186e-05
1.52448e-05
1.51525e-05
1.50786e-05
1.49897e-05
1.4914e-05
1.48163e-05
1.47344e-05
1.46331e-05
1.45444e-05
1.44355e-05
1.43363e-05
1.42181e-05
1.4112e-05
1.99999e-05
1.98506e-05
1.9545e-05
1.92465e-05
1.90097e-05
1.8859e-05
1.87353e-05
1.85963e-05
1.84442e-05
1.83162e-05
1.81904e-05
1.80764e-05
1.79533e-05
1.78384e-05
1.77174e-05
1.76081e-05
1.74869e-05
1.73754e-05
1.72567e-05
1.71455e-05
1.70259e-05
1.69147e-05
1.67957e-05
1.6691e-05
1.65704e-05
1.64667e-05
1.6351e-05
1.62492e-05
1.61325e-05
1.60383e-05
1.59263e-05
1.58374e-05
1.57341e-05
1.56535e-05
1.55544e-05
1.548e-05
1.53884e-05
1.53142e-05
1.52215e-05
1.51491e-05
1.50587e-05
1.49812e-05
1.48808e-05
1.47972e-05
1.46929e-05
1.4601e-05
1.44861e-05
1.43823e-05
1.42592e-05
1.41476e-05
1.99999e-05
1.98545e-05
1.95577e-05
1.92659e-05
1.90288e-05
1.88755e-05
1.87538e-05
1.86222e-05
1.84737e-05
1.83464e-05
1.82228e-05
1.81117e-05
1.79926e-05
1.788e-05
1.7763e-05
1.76555e-05
1.75371e-05
1.74291e-05
1.73122e-05
1.7204e-05
1.70852e-05
1.69755e-05
1.68595e-05
1.67546e-05
1.66351e-05
1.65336e-05
1.64177e-05
1.63161e-05
1.62009e-05
1.61065e-05
1.5994e-05
1.59063e-05
1.58033e-05
1.57226e-05
1.56243e-05
1.55515e-05
1.5459e-05
1.53848e-05
1.52921e-05
1.52212e-05
1.51282e-05
1.50488e-05
1.49462e-05
1.48607e-05
1.4753e-05
1.46571e-05
1.4536e-05
1.44279e-05
1.42993e-05
1.41812e-05
1.99999e-05
1.98584e-05
1.95701e-05
1.9286e-05
1.90501e-05
1.88944e-05
1.87731e-05
1.86484e-05
1.85044e-05
1.83782e-05
1.82564e-05
1.81479e-05
1.80327e-05
1.79226e-05
1.78096e-05
1.77032e-05
1.7589e-05
1.74833e-05
1.7369e-05
1.72633e-05
1.7145e-05
1.70379e-05
1.69239e-05
1.68187e-05
1.67015e-05
1.6601e-05
1.64848e-05
1.63843e-05
1.627e-05
1.61747e-05
1.60624e-05
1.59758e-05
1.58723e-05
1.57918e-05
1.56945e-05
1.56227e-05
1.55288e-05
1.54554e-05
1.53626e-05
1.52926e-05
1.51962e-05
1.51151e-05
1.50104e-05
1.49228e-05
1.48112e-05
1.47103e-05
1.4583e-05
1.44711e-05
1.43352e-05
1.42111e-05
1.99999e-05
1.98623e-05
1.95823e-05
1.93064e-05
1.90733e-05
1.89152e-05
1.87934e-05
1.86747e-05
1.85358e-05
1.84114e-05
1.82907e-05
1.81851e-05
1.80727e-05
1.79666e-05
1.78557e-05
1.77518e-05
1.76413e-05
1.75377e-05
1.74269e-05
1.73222e-05
1.72053e-05
1.71011e-05
1.69878e-05
1.68833e-05
1.67684e-05
1.66678e-05
1.6552e-05
1.64528e-05
1.63385e-05
1.62422e-05
1.61308e-05
1.60444e-05
1.59399e-05
1.586e-05
1.57635e-05
1.56919e-05
1.55966e-05
1.55244e-05
1.54313e-05
1.53611e-05
1.52608e-05
1.51788e-05
1.50714e-05
1.49816e-05
1.4865e-05
1.47583e-05
1.46262e-05
1.45089e-05
1.43651e-05
1.42365e-05
1.99999e-05
1.98661e-05
1.95941e-05
1.93269e-05
1.90978e-05
1.89377e-05
1.88148e-05
1.87011e-05
1.85675e-05
1.84453e-05
1.83258e-05
1.82226e-05
1.81131e-05
1.80111e-05
1.79013e-05
1.78012e-05
1.76933e-05
1.75926e-05
1.74847e-05
1.73804e-05
1.72661e-05
1.71638e-05
1.7051e-05
1.69482e-05
1.68346e-05
1.67335e-05
1.66192e-05
1.65206e-05
1.64053e-05
1.63087e-05
1.6198e-05
1.61108e-05
1.60055e-05
1.59263e-05
1.583e-05
1.57578e-05
1.56616e-05
1.55906e-05
1.54969e-05
1.54248e-05
1.53214e-05
1.52383e-05
1.51278e-05
1.50355e-05
1.49119e-05
1.48008e-05
1.46632e-05
1.45388e-05
1.43887e-05
1.42544e-05
1.99999e-05
1.98697e-05
1.96055e-05
1.93473e-05
1.91232e-05
1.89615e-05
1.88373e-05
1.87276e-05
1.85994e-05
1.84795e-05
1.83618e-05
1.82597e-05
1.81543e-05
1.80548e-05
1.79475e-05
1.78504e-05
1.77451e-05
1.7648e-05
1.75415e-05
1.74386e-05
1.7327e-05
1.72253e-05
1.71138e-05
1.70127e-05
1.68993e-05
1.67985e-05
1.66859e-05
1.65866e-05
1.64704e-05
1.63739e-05
1.62632e-05
1.61745e-05
1.60687e-05
1.59898e-05
1.58928e-05
1.58195e-05
1.57234e-05
1.56528e-05
1.55577e-05
1.54828e-05
1.53773e-05
1.52923e-05
1.51787e-05
1.50822e-05
1.49513e-05
1.48367e-05
1.46913e-05
1.45609e-05
1.44038e-05
1.4262e-05
1.99999e-05
1.98733e-05
1.96167e-05
1.93673e-05
1.91489e-05
1.89866e-05
1.88609e-05
1.87542e-05
1.86311e-05
1.8514e-05
1.83981e-05
1.82973e-05
1.81955e-05
1.80981e-05
1.7994e-05
1.78989e-05
1.77972e-05
1.77028e-05
1.75973e-05
1.74971e-05
1.73873e-05
1.72859e-05
1.71764e-05
1.7076e-05
1.69626e-05
1.68631e-05
1.67512e-05
1.66505e-05
1.65342e-05
1.64374e-05
1.63255e-05
1.62353e-05
1.61294e-05
1.60497e-05
1.59513e-05
1.58772e-05
1.57812e-05
1.57099e-05
1.56127e-05
1.55348e-05
1.54278e-05
1.53399e-05
1.52226e-05
1.51198e-05
1.49834e-05
1.48636e-05
1.471e-05
1.4574e-05
1.44079e-05
1.42588e-05
1.99999e-05
1.98767e-05
1.96276e-05
1.93869e-05
1.91745e-05
1.90128e-05
1.88854e-05
1.8781e-05
1.86624e-05
1.85486e-05
1.84341e-05
1.83357e-05
1.82358e-05
1.81419e-05
1.804e-05
1.79473e-05
1.78495e-05
1.77566e-05
1.7653e-05
1.75553e-05
1.74466e-05
1.73464e-05
1.72382e-05
1.71377e-05
1.70256e-05
1.6927e-05
1.68147e-05
1.6713e-05
1.65967e-05
1.64983e-05
1.63849e-05
1.62936e-05
1.6187e-05
1.61053e-05
1.60053e-05
1.59308e-05
1.58343e-05
1.57612e-05
1.56612e-05
1.55812e-05
1.54715e-05
1.53809e-05
1.52578e-05
1.51488e-05
1.50073e-05
1.488e-05
1.47193e-05
1.45758e-05
1.44e-05
1.42465e-05
1.99999e-05
1.988e-05
1.9638e-05
1.94061e-05
1.91997e-05
1.90396e-05
1.89112e-05
1.88079e-05
1.86937e-05
1.85826e-05
1.84706e-05
1.83741e-05
1.82762e-05
1.81853e-05
1.80859e-05
1.79961e-05
1.79008e-05
1.78102e-05
1.77089e-05
1.76127e-05
1.75059e-05
1.74069e-05
1.72986e-05
1.71987e-05
1.70884e-05
1.69895e-05
1.68766e-05
1.67746e-05
1.66575e-05
1.65567e-05
1.64421e-05
1.63494e-05
1.62408e-05
1.61565e-05
1.60556e-05
1.59801e-05
1.5882e-05
1.58064e-05
1.57035e-05
1.56219e-05
1.55081e-05
1.54142e-05
1.52834e-05
1.517e-05
1.50211e-05
1.48862e-05
1.47174e-05
1.45652e-05
1.43821e-05
1.42228e-05
1.99999e-05
1.98831e-05
1.96479e-05
1.94246e-05
1.92244e-05
1.90668e-05
1.89381e-05
1.8835e-05
1.87246e-05
1.86164e-05
1.85073e-05
1.84124e-05
1.83171e-05
1.82281e-05
1.8132e-05