/*--------------------------------*- C++ -*----------------------------------*\
  =========                 |
  \\      /  F ield         | OpenFOAM: The Open Source CFD Toolbox
   \\    /   O peration     | Website:  https://openfoam.org
    \\  /    A nd           | Version:  7
     \\/     M anipulation  |
\*---------------------------------------------------------------------------*/
FoamFile
{
    version     2.0;
    format      ascii;
    class       volScalarField;
    location    "0.24";
    object      nut;
}
// * * * * * * * * * * * * * * * * * * * * * * * * * * * * * * * * * * * * * //

dimensions      [0 2 -1 0 0 0 0];

internalField   nonuniform List<scalar> 
70000
(
0
0
0
0
0
0
0
0
0
0
0
0
0
0
0
0
0
0
0
0
0
0
0
0
0
0
0
0
0
0
0
0
0
0
0
0
0
0
0
0
0
1.19907e-14
0
1.35823e-13
1.0424e-14
4.05639e-13
0
1.38101e-12
0
0
0
0
0
0
0
0
0
0
0
0
0
0
0
0
0
0
0
0
0
0
0
0
0
0
0
0
0
0
0
0
0
0
0
0
0
0
0
0
0
0
0
1.00278e-14
0
2.2748e-13
0
7.32904e-13
0
2.70748e-12
0
0
0
0
0
0
0
0
0
0
0
0
0
0
0
0
0
0
0
0
0
0
0
0
0
0
0
0
0
0
0
0
0
0
0
0
0
0
0
0
0
0
0
0
0
1.89538e-13
0
8.40982e-13
0
3.46882e-12
3.82995e-12
0
0
0
0
0
0
0
0
0
0
0
0
0
0
0
0
0
0
0
0
0
0
0
0
0
0
0
0
0
0
0
0
0
0
0
0
0
0
0
0
0
0
0
0
0
0
6.71803e-13
0
3.35668e-12
6.88683e-12
0
0
0
0
0
0
0
0
0
0
0
0
0
0
0
0
0
0
0
0
0
0
0
0
0
0
0
0
0
0
0
0
0
0
0
0
0
0
0
0
0
0
0
0
0
0
4.02477e-13
0
2.87732e-12
7.84188e-12
0
9.44077e-10
0
0
0
0
0
0
0
0
0
0
0
0
0
0
0
0
0
0
0
0
0
0
0
0
0
0
0
0
0
0
0
0
0
0
0
0
0
0
0
0
0
0
0
0
1.64176e-13
0
2.4091e-12
7.76916e-12
0
1.31855e-08
0
0
0
0
0
0
0
0
0
0
0
0
0
0
0
0
0
0
0
0
0
0
0
0
0
0
0
0
0
0
0
0
0
0
0
0
0
0
0
0
0
0
0
0
0
0
1.76981e-12
7.54289e-12
0
1.2079e-08
0
0
0
0
0
0
0
0
0
0
0
0
0
0
0
0
0
0
0
0
0
0
0
0
0
0
0
0
0
0
0
0
0
0
0
0
0
0
0
0
0
0
0
0
0
0
8.32091e-13
7.29837e-12
0
1.10597e-08
0
0
0
0
0
0
0
0
0
0
0
0
0
0
0
0
0
0
0
0
0
0
0
0
0
0
0
0
0
0
0
0
0
0
0
0
0
0
0
0
0
0
0
0
0
0
0
6.96167e-12
0
1.02114e-08
0
0
0
0
0
0
0
0
0
0
0
0
0
0
0
0
0
0
0
0
0
0
0
0
0
0
0
0
0
0
0
0
0
0
0
0
0
0
0
0
0
0
0
0
0
0
0
6.4637e-12
0
9.50073e-09
0
0
0
0
0
0
0
0
0
0
0
0
0
0
0
0
0
0
0
0
0
0
0
0
0
0
0
0
0
0
0
0
0
0
0
0
0
0
0
0
0
0
0
0
0
0
0
5.78609e-12
0
8.8572e-09
0
0
0
0
0
0
0
0
0
0
0
0
0
0
0
0
0
0
0
0
0
0
0
0
0
0
0
0
0
0
0
0
0
0
0
0
0
0
0
0
0
0
0
0
0
0
0
4.95019e-12
0
8.21508e-09
0
0
0
0
0
0
0
0
0
0
0
0
0
0
0
0
0
0
0
0
0
0
0
0
0
0
0
0
0
0
0
0
0
0
0
0
0
0
0
0
0
0
0
0
0
0
0
4.00271e-12
0
7.55455e-09
0
0
0
0
0
0
0
0
0
0
0
0
2.12611e-11
5.74724e-12
0
0
0
0
0
0
0
0
0
0
0
0
0
0
0
0
0
0
0
0
0
0
0
0
0
0
0
0
0
0
0
0
0
2.94876e-12
0
6.88178e-09
0
0
0
0
0
0
0
0
0
0
0
0
0
0
2.30078e-11
5.91425e-11
5.19016e-11
2.01929e-11
3.22461e-12
0
0
0
0
0
0
0
0
0
0
0
0
0
0
0
0
0
0
0
0
0
0
0
0
0
0
0
0
1.75602e-12
0
6.2078e-09
0
0
0
0
0
0
0
0
0
0
0
0
0
0
0
0
0
2.64594e-11
6.26157e-11
9.06116e-11
9.06942e-11
5.68497e-11
2.51091e-11
9.15074e-12
2.15664e-12
0
0
0
0
0
0
0
0
0
0
0
0
0
0
0
0
0
0
0
0
0
0
3.44721e-13
0
5.54115e-09
0
0
0
6.53856e-11
0
0
0
0
0
0
0
0
0
0
0
0
0
0
0
0
1.77117e-11
4.1975e-11
6.98929e-11
9.80649e-11
1.2017e-10
1.22013e-10
9.21889e-11
5.31407e-11
2.69947e-11
1.30789e-11
5.963e-12
2.25319e-12
2.42782e-13
0
0
0
0
0
0
0
0
0
0
0
0
0
0
0
0
4.88809e-09
0
0
0
1.47575e-10
0
0
0
0
0
0
0
0
0
0
0
0
0
0
0
0
0
0
2.0159e-12
1.24619e-11
2.43047e-11
3.90481e-11
5.72854e-11
7.83779e-11
1.00781e-10
1.21913e-10
1.37663e-10
1.37615e-10
1.12238e-10
7.31429e-11
4.10362e-11
2.07143e-11
9.56254e-12
2.72518e-12
0
0
0
0
0
0
0
1.03173e-12
0
0
0
4.25411e-09
0
0
0
2.01279e-10
0
0
0
0
0
0
0
0
0
0
0
0
0
0
0
0
0
0
0
0
0
4.22757e-12
1.05549e-11
1.68183e-11
2.31812e-11
2.99689e-11
3.78617e-11
4.72228e-11
5.80706e-11
6.87333e-11
7.85461e-11
8.42061e-11
8.56502e-11
7.82563e-11
6.2246e-11
3.47677e-11
8.26482e-12
0
0
0
0
1.65523e-12
0
0
0
3.64432e-09
0
0
0
2.11337e-10
0
0
0
0
0
0
0
0
0
0
0
0
0
0
0
0
0
0
0
0
0
0
0
1.03477e-13
3.96388e-12
7.46261e-12
1.06877e-11
1.33247e-11
1.56895e-11
1.68772e-11
1.78279e-11
1.64002e-11
1.48144e-11
8.6243e-12
1.45761e-12
0
0
0
0
0
0
0
0
1.54593e-10
3.70439e-10
3.063e-09
0
0
0
1.60279e-10
0
0
0
0
0
0
0
0
0
0
0
0
0
0
0
0
0
0
0
0
0
0
0
0
0
0
0
7.51797e-13
1.89223e-12
1.82278e-12
1.56288e-12
0
0
0
0
0
0
0
0
0
0
0
0
1.50168e-10
3.70244e-10
2.51308e-09
0
0
0
2.89058e-11
0
0
0
0
0
0
0
0
0
0
0
0
0
0
0
0
0
0
0
0
0
0
0
0
0
0
0
0
0
0
0
0
0
0
0
0
0
0
0
0
0
0
0
1.70362e-10
3.77764e-10
1.99588e-09
0
0
0
0
0
0
0
0
0
0
0
0
0
0
0
0
0
0
0
0
0
0
0
0
0
0
0
0
0
0
0
0
0
0
0
0
0
0
0
0
0
0
0
0
0
0
0
2.14214e-10
4.21571e-10
1.51096e-09
0
0
0
0
0
0
0
0
0
0
0
0
0
0
0
0
0
0
0
0
0
0
0
0
0
0
0
0
0
0
0
0
0
0
0
0
0
0
0
0
0
0
0
0
0
0
5.02468e-11
2.80816e-10
4.95791e-10
1.05635e-09
0
0
0
0
0
0
0
0
0
0
0
0
0
0
0
0
0
0
0
0
0
0
0
0
0
0
0
0
0
0
0
0
0
0
0
0
0
0
0
0
0
0
0
0
0
0
1.20259e-10
3.69661e-10
5.97341e-10
6.28857e-10
0
0
0
0
0
0
0
0
0
0
0
0
0
0
0
0
0
0
0
0
0
0
0
0
0
0
0
0
0
0
0
0
0
0
0
0
0
0
0
0
0
0
0
0
0
5.1034e-11
2.0427e-10
4.79669e-10
7.22998e-10
2.24715e-10
0
0
0
0
0
0
0
0
0
0
0
0
0
0
0
0
0
0
0
0
0
0
0
0
0
0
0
0
0
0
0
0
0
0
0
0
0
0
0
0
0
0
0
0
0
1.18451e-10
3.03231e-10
6.09623e-10
8.69651e-10
0
0
0
0
0
0
0
0
0
0
0
0
0
0
0
0
0
0
0
0
0
0
0
0
0
0
0
0
0
0
0
0
0
0
0
0
0
0
0
0
0
0
0
0
0
5.03335e-11
1.99467e-10
4.18035e-10
7.58973e-10
1.03555e-09
0
0
0
0
0
0
0
0
0
0
0
0
0
0
0
0
0
0
0
0
0
0
0
0
0
0
0
0
0
0
0
0
0
0
0
0
0
0
0
0
0
0
0
0
2.56024e-11
1.17051e-10
2.95107e-10
5.49449e-10
9.274e-10
1.21948e-09
0
0
0
0
0
0
0
0
0
0
0
0
0
0
0
0
0
0
0
0
0
0
0
0
0
0
0
0
0
0
0
0
0
0
0
0
0
0
0
0
0
0
0
6.15828e-12
7.88442e-11
1.9631e-10
4.0631e-10
6.98225e-10
1.11484e-09
1.42073e-09
0
0
0
0
0
0
0
0
0
0
0
0
0
0
0
0
0
0
0
0
0
0
0
0
0
0
0
0
0
0
0
0
0
0
0
0
0
0
0
0
0
0
4.01929e-12
4.94126e-11
1.43394e-10
2.89233e-10
5.33883e-10
8.64965e-10
1.3212e-09
1.63874e-09
0
0
0
0
0
0
0
0
0
0
0
0
0
0
0
0
0
0
0
0
0
0
0
0
0
0
0
0
0
0
0
0
0
0
0
0
0
0
0
0
0
1.36143e-12
3.88798e-11
1.02273e-10
2.20256e-10
3.96762e-10
6.78396e-10
1.04994e-09
1.54609e-09
1.87264e-09
0
6.80628e-10
0
0
0
0
0
0
0
0
0
0
0
0
0
0
0
0
0
0
0
0
0
0
0
0
0
0
0
0
0
0
0
0
0
0
0
0
0
0
4.13889e-12
2.98345e-11
8.19687e-11
1.65667e-10
3.10242e-10
5.19553e-10
8.40057e-10
1.25295e-09
1.78864e-09
2.12107e-09
0
1.58916e-09
0
0
0
0
0
0
0
0
0
0
0
0
0
0
0
0
0
0
0
0
0
0
0
0
0
0
0
0
0
0
0
0
0
0
0
0
0
4.60951e-12
2.73381e-11
6.51058e-11
1.34055e-10
2.40335e-10
4.13878e-10
6.57856e-10
1.01859e-09
1.47318e-09
2.04731e-09
2.382e-09
0
2.3716e-09
0
0
0
0
0
0
0
0
0
0
0
0
0
0
0
0
0
0
0
0
0
0
0
0
0
0
0
0
0
0
0
0
0
0
0
0
5.91388e-12
2.35073e-11
5.60866e-11
1.07778e-10
1.95697e-10
3.26706e-10
5.31249e-10
8.11359e-10
1.21307e-09
1.70907e-09
2.31976e-09
2.65265e-09
0
3.03038e-09
0
0
0
0
0
0
0
0
0
0
0
0
0
0
0
0
0
0
0
0
0
0
0
0
0
0
0
0
0
0
0
0
0
0
0
4.89122e-12
2.11039e-11
4.67921e-11
9.08291e-11
1.58295e-10
2.67218e-10
4.24881e-10
6.62037e-10
9.79224e-10
1.42193e-09
1.95828e-09
2.60284e-09
2.92949e-09
0
3.571e-09
0
0
0
0
0
0
0
0
0
0
0
0
0
0
0
0
0
0
0
0
0
0
0
0
0
0
0
0
0
0
0
0
0
0
3.3879e-12
1.68448e-11
3.96454e-11
7.47377e-11
1.31819e-10
2.16817e-10
3.4855e-10
5.34446e-10
8.05308e-10
1.15995e-09
1.64295e-09
2.2179e-09
2.89295e-09
3.20856e-09
0
4.00124e-09
0
0
0
0
0
0
0
0
0
0
0
0
0
0
0
0
0
0
0
0
0
0
0
0
0
0
0
0
0
0
0
0
0
4.54869e-13
1.24675e-11
3.12232e-11
6.16562e-11
1.07441e-10
1.79055e-10
2.83159e-10
4.39152e-10
6.54384e-10
9.59399e-10
1.35111e-09
1.87279e-09
2.48372e-09
3.18513e-09
3.48491e-09
0
4.32969e-09
0
0
0
0
0
0
0
0
0
0
0
0
0
0
0
0
0
0
0
0
0
0
0
0
0
0
0
0
0
0
0
0
0
7.07898e-12
2.31747e-11
4.80126e-11
8.70835e-11
1.44761e-10
2.3222e-10
3.56704e-10
5.37961e-10
7.83062e-10
1.12195e-09
1.54954e-09
2.10743e-09
2.75089e-09
3.47381e-09
3.75294e-09
0
4.56549e-09
0
0
0
0
0
0
0
0
0
0
0
0
0
0
0
0
0
0
0
0
0
0
0
0
0
0
0
0
0
0
0
0
2.27152e-12
1.46888e-11
3.53902e-11
6.70379e-11
1.15653e-10
1.86263e-10
2.90597e-10
4.36338e-10
6.43312e-10
9.18147e-10
1.28983e-09
1.75124e-09
2.34199e-09
3.01378e-09
3.75282e-09
4.00665e-09
0
4.71897e-09
0
0
0
0
0
0
0
0
0
0
0
0
0
0
0
0
0
0
0
0
0
0
0
0
0
0
0
0
0
0
0
0
7.52354e-12
2.30971e-11
4.88455e-11
8.79207e-11
1.4682e-10
2.3115e-10
3.53015e-10
5.20384e-10
7.52885e-10
1.05657e-09
1.45908e-09
1.9514e-09
2.57079e-09
3.26604e-09
4.01536e-09
4.23966e-09
0
4.80145e-09
0
0
0
0
0
0
0
0
0
0
0
0
0
0
0
0
0
0
0
0
0
0
0
0
0
0
0
0
0
0
0
2.63728e-12
1.31128e-11
3.19862e-11
6.30902e-11
1.10038e-10
1.79716e-10
2.78213e-10
4.17789e-10
6.06562e-10
8.63671e-10
1.19447e-09
1.62497e-09
2.14438e-09
2.78742e-09
3.5007e-09
4.25414e-09
4.44527e-09
0
4.8242e-09
0
0
0
0
0
0
0
0
0
0
0
0
0
0
0
0
0
0
0
0
0
0
0
0
0
0
0
2.22596e-12
2.87144e-12
1.88809e-12
2.2674e-12
6.81745e-12
1.87266e-11
4.08824e-11
7.74588e-11
1.32482e-10
2.13107e-10
3.2578e-10
4.8268e-10
6.91949e-10
9.71939e-10
1.32725e-09
1.78197e-09
2.3238e-09
2.98486e-09
3.71027e-09
4.46143e-09
4.61695e-09
0
4.7976e-09
0
0
0
0
0
0
0
0
0
0
0
0
0
0
0
0
0
0
0
0
0
0
0
0
0
0
9.97541e-12
1.30958e-11
1.14394e-11
8.21607e-12
6.94356e-12
1.09715e-11
2.39305e-11
4.91323e-11
9.10405e-11
1.54022e-10
2.45349e-10
3.71674e-10
5.44859e-10
7.72956e-10
1.07322e-09
1.44953e-09
1.92378e-09
2.48257e-09
3.15551e-09
3.88665e-09
4.62942e-09
4.7483e-09
0
4.73071e-09
0
0
0
0
0
0
0
0
0
0
0
0
0
0
0
0
0
0
0
0
0
0
0
0
0
1.75854e-11
2.67429e-11
2.719e-11
2.2295e-11
1.58792e-11
1.20593e-11
1.47872e-11
2.81546e-11
5.58813e-11
1.02652e-10
1.7307e-10
2.74352e-10
4.13179e-10
6.00892e-10
8.45296e-10
1.16231e-09
1.55516e-09
2.04333e-09
2.61309e-09
3.29117e-09
4.02144e-09
4.75052e-09
4.8328e-09
0
4.63122e-09
0
0
0
0
0
0
0
0
0
0
0
0
0
0
0
0
0
0
0
0
0
0
0
0
2.20519e-11
4.18767e-11
4.85292e-11
4.5243e-11
3.59215e-11
2.50844e-11
1.75307e-11
1.78743e-11
3.06849e-11
6.00576e-11
1.10814e-10
1.87653e-10
2.97555e-10
4.47027e-10
6.46712e-10
9.0397e-10
1.23327e-09
1.63719e-09
2.13294e-09
2.70707e-09
3.38307e-09
4.10634e-09
4.81688e-09
4.86427e-09
0
4.50552e-09
0
0
0
0
0
0
0
0
0
0
0
0
0
0
0
0
0
0
0
0
0
0
0
1.89261e-11
5.52155e-11
7.34164e-11
7.64878e-11
6.81534e-11
5.29193e-11
3.61024e-11
2.32737e-11
1.97728e-11
3.06613e-11
6.03646e-11
1.13733e-10
1.95398e-10
3.11898e-10
4.6938e-10
6.77582e-10
9.43271e-10
1.27939e-09
1.68797e-09
2.18432e-09
2.75552e-09
3.42228e-09
4.13278e-09
4.82075e-09
4.83755e-09
0
4.35892e-09
0
0
0
0
0
0
0
0
0
0
0
0
0
0
0
0
0
0
0
0
0
0
1.53236e-12
6.1871e-11
9.82146e-11
1.13838e-10
1.12021e-10
9.70271e-11
7.40446e-11
4.92981e-11
2.92257e-11
1.99669e-11
2.70852e-11
5.52787e-11
1.09296e-10
1.93517e-10
3.13826e-10
4.75817e-10
6.88082e-10
9.5677e-10
1.29315e-09
1.69915e-09
2.1884e-09
2.74893e-09
3.39963e-09
4.09197e-09
4.75509e-09
4.74857e-09
0
4.19578e-09
0
0
0
0
0
0
0
0
0
0
0
0
0
0
0
0
0
0
0
0
0
0
5.43582e-11
1.1747e-10
1.53191e-10
1.65116e-10
1.56842e-10
1.33238e-10
1.00265e-10
6.51731e-11
3.53802e-11
1.79093e-11
1.88348e-11
4.30547e-11
9.50707e-11
1.78808e-10
2.99273e-10
4.61295e-10
6.72112e-10
9.37244e-10
1.26628e-09
1.66164e-09
2.13527e-09
2.67742e-09
3.30545e-09
3.97547e-09
4.61395e-09
4.59361e-09
0
4.01979e-09
0
0
0
0
0
0
0
0
0
0
0
0
0
0
0
0
0
0
0
0
0
2.19479e-11
1.22714e-10
1.88341e-10
2.22688e-10
2.29618e-10
2.13047e-10
1.78511e-10
1.32835e-10
8.44345e-11
4.18464e-11
1.30694e-11
4.70013e-12
2.17534e-11
6.83279e-11
1.47665e-10
2.63663e-10
4.20138e-10
6.22857e-10
8.76676e-10
1.18976e-09
1.56541e-09
2.01433e-09
2.53054e-09
3.12999e-09
3.77544e-09
4.39184e-09
4.37032e-09
0
3.83417e-09
0
0
0
0
0
0
0
0
0
0
0
0
0
0
0
0
0
0
0
0
0
1.0224e-10
2.09657e-10
2.77548e-10
3.09697e-10
3.10173e-10
2.83195e-10
2.35009e-10
1.73397e-10
1.08105e-10
4.89502e-11
5.01787e-12
0
0
2.60789e-11
9.60985e-11
2.01906e-10
3.46046e-10
5.32761e-10
7.66199e-10
1.0536e-09
1.39935e-09
1.81435e-09
2.29714e-09
2.86353e-09
3.48467e-09
4.0841e-09
4.07875e-09
0
3.6417e-09
0
0
0
0
0
0
0
0
0
0
0
0
0
0
0
0
0
0
0
0
4.17725e-11
2.04323e-10
3.18707e-10
3.88662e-10
4.17768e-10
4.10207e-10
3.7044e-10
3.05455e-10
2.24102e-10
1.37642e-10
5.73488e-11
0
0
0
0
1.97722e-11
1.08418e-10
2.32095e-10
3.93462e-10
5.96047e-10
8.46615e-10
1.15149e-09
1.52304e-09
1.96553e-09
2.49673e-09
3.09631e-09
3.68867e-09
3.7212e-09
0
3.44477e-09
0
0
0
0
0
0
0
0
0
0
0
0
0
0
0
0
0
0
0
0
1.56559e-10
3.31995e-10
4.53898e-10
5.25883e-10
5.51169e-10
5.33904e-10
4.78688e-10
3.93295e-10
2.87764e-10
1.75067e-10
6.8151e-11
0
0
0
0
0
0
7.07011e-11
1.95706e-10
3.55344e-10
5.56454e-10
8.0856e-10
1.12687e-09
1.52376e-09
2.02015e-09
2.6053e-09
3.20631e-09
3.30201e-09
0
3.24552e-09
0
0
0
0
0
0
0
0
0
0
0
0
0
0
0
0
0
0
0
4.62617e-11
2.99585e-10
4.89481e-10
6.19826e-10
6.94099e-10
7.14968e-10
6.8634e-10
6.12812e-10
5.0295e-10
3.68102e-10
2.2321e-10
8.31435e-11
0
0
0
0
0
0
0
0
3.18998e-11
1.69268e-10
3.55594e-10
6.11184e-10
9.59187e-10
1.42515e-09
2.00957e-09
2.64044e-09
2.82944e-09
0
3.04589e-09
0
0
0
0
0
0
0
0
0
0
0
0
0
0
0
0
0
0
0
1.97919e-10
4.74885e-10
6.81397e-10
8.21612e-10
8.98859e-10
9.1505e-10
8.73589e-10
7.78834e-10
6.40073e-10
4.70088e-10
2.86083e-10
1.05166e-10
0
0
0
0
0
0
0
0
0
0
0
0
2.5864e-10
7.05053e-10
1.30997e-09
1.99933e-09
2.31687e-09
0
2.84764e-09
0
0
0
0
0
0
0
0
0
0
0
0
0
0
0
0
0
0
0
3.82488e-10
6.86639e-10
9.1269e-10
1.06492e-09
1.14649e-09
1.15831e-09
1.10294e-09
9.84181e-10
8.11894e-10
6.0034e-10
3.6931e-10
1.38548e-10
0
0
0
0
0
0
0
0
0
0
0
0
0
0
5.1253e-10
1.29866e-09
1.78157e-09
0
2.65234e-09
0
0
0
0
0
0
0
0
0
0
0
0
0
0
0
0
0
0
1.76434e-10
6.03409e-10
9.391e-10
1.18859e-09
1.35602e-09
1.44421e-09
1.45284e-09
1.38321e-09
1.23807e-09
1.02763e-09
7.67599e-10
4.80661e-10
1.89688e-10
0
0
0
0
0
0
0
0
0
0
0
0
0
0
0
5.61696e-10
1.24679e-09
0
2.46132e-09
0
0
0
0
0
0
0
0
0
0
0
0
0
0
0
0
0
0
3.93335e-10
8.639e-10
1.23644e-09
1.51446e-09
1.70158e-09
1.80011e-09
1.80801e-09
1.72487e-09
1.55183e-09
1.29901e-09
9.83398e-10
6.30818e-10
2.67862e-10
0
0
0
0
0
0
0
0
0
0
0
0
0
0
0
0
7.42004e-10
0
2.27565e-09
0
0
0
0
0
0
0
0
0
0
0
0
0
0
0
0
0
3.30214e-11
6.47e-10
1.16667e-09
1.58245e-09
1.89558e-09
2.10852e-09
2.22289e-09
2.23452e-09
2.14043e-09
1.93938e-09
1.64093e-09
1.26292e-09
8.34443e-10
3.86385e-10
0
0
0
0
0
0
0
0
0
0
0
0
0
0
0
0
2.99902e-10
0
2.09612e-09
0
0
0
0
0
0
0
0
0
0
0
0
0
0
0
0
0
2.68462e-10
9.38507e-10
1.51366e-09
1.98024e-09
2.33665e-09
2.58377e-09
2.72186e-09
2.74411e-09
2.64437e-09
2.41778e-09
2.07215e-09
1.62594e-09
1.11147e-09
5.64234e-10
1.71763e-11
0
0
0
0
0
0
0
0
0
0
0
0
0
0
0
0
0
1.92329e-09
0
0
0
0
0
0
0
0
0
0
0
0
0
0
0
0
0
5.35584e-10
1.26752e-09
1.90561e-09
2.43178e-09
2.8411e-09
3.13358e-09
3.30628e-09
3.34921e-09
3.25307e-09
3.00732e-09
2.61613e-09
2.09821e-09
1.48878e-09
8.2825e-10
1.55375e-10
0
0
0
0
0
0
0
0
0
0
0
0
0
0
0
0
0
1.75748e-09
0
0
0
0
0
0
0
0
0
0
0
0
0
0
0
0
0
8.31758e-10
1.63218e-09
2.34124e-09
2.93669e-09
3.41123e-09
3.76256e-09
3.98372e-09
4.06298e-09
3.98483e-09
3.73063e-09
3.30148e-09
2.71333e-09
2.00253e-09
1.21565e-09
3.98103e-10
0
0
0
0
0
0
0
0
0
0
0
0
0
0
0
0
0
1.59886e-09
0
0
0
0
0
0
0
0
0
0
0
0
0
0
0
0
2.19296e-10
1.15241e-09
2.02822e-09
2.8165e-09
3.49233e-09
4.04619e-09
4.47191e-09
4.76053e-09
4.89706e-09
4.85688e-09
4.61356e-09
4.16285e-09
3.51238e-09
2.69989e-09
1.77838e-09
7.9941e-10
0
0
0
0
0
0
0
0
0
0
0
0
0
0
0
0
0
1.44746e-09
0
0
0
0
0
0
0
0
0
0
0
0
0
0
0
0
4.82593e-10
1.49077e-09
2.44834e-09
3.32426e-09
4.09225e-09
4.74022e-09
5.25885e-09
5.63871e-09
5.85816e-09
5.88471e-09
5.68307e-09
5.23756e-09
4.54451e-09
3.64256e-09
2.58763e-09
1.4367e-09
2.30466e-10
0
0
0
0
0
0
0
0
0
0
0
0
0
0
0
0
1.30322e-09
0
0
0
0
0
0
0
0
0
0
0
0
0
0
0
0
7.50935e-10
1.83753e-09
2.88203e-09
3.85342e-09
4.72454e-09
5.48167e-09
6.11413e-09
6.61151e-09
6.9457e-09
7.07791e-09
6.96068e-09
6.5619e-09
5.86614e-09
4.90619e-09
3.73615e-09
2.41826e-09
1.00206e-09
0
0
0
0
0
0
0
0
0
0
0
0
0
0
1.33547e-11
0
1.16596e-09
0
0
0
0
0
0
0
0
0
0
0
0
0
0
0
0
1.01468e-09
2.18071e-09
3.31525e-09
4.38774e-09
5.371e-09
6.25131e-09
7.01807e-09
7.66049e-09
8.14658e-09
8.43138e-09
8.45392e-09
8.16404e-09
7.53114e-09
6.57294e-09
5.33756e-09
3.8917e-09
2.29234e-09
5.42528e-10
0
0
0
0
0
0
0
0
0
0
0
0
0
1.70285e-10
0
1.03545e-09
0
0
0
0
0
0
0
0
0
0
0
0
0
0
0
2.75989e-11
1.26248e-09
2.5058e-09
3.73009e-09
4.90564e-09
6.00633e-09
7.02007e-09
7.93802e-09
8.75118e-09
9.42666e-09
9.91509e-09
1.01436e-08
1.00453e-08
9.56917e-09
8.71264e-09
7.51271e-09
6.03768e-09
4.3484e-09
2.44807e-09
2.38472e-10
0
0
0
0
0
0
0
0
0
0
0
0
2.76183e-10
0
9.11385e-10
0
0
0
0
0
0
0
0
0
0
0
0
0
0
0
1.90012e-10
1.48169e-09
2.79618e-09
4.10531e-09
5.38051e-09
6.59769e-09
7.74797e-09
8.82629e-09
9.82803e-09
1.0723e-08
1.14614e-08
1.19635e-08
1.21493e-08
1.19478e-08
1.13361e-08
1.03371e-08
9.0182e-09
7.45061e-09
5.65561e-09
3.54307e-09
8.01662e-10
0
0
0
0
0
0
0
0
0
0
7.70408e-11
3.30489e-10
0
7.93383e-10
0
0
0
0
0
0
0
0
0
0
0
0
0
0
0
3.21235e-10
1.65897e-09
3.03379e-09
4.41719e-09
5.78172e-09
7.10589e-09
8.3847e-09
9.61924e-09
1.08117e-08
1.19384e-08
1.29536e-08
1.37774e-08
1.43244e-08
1.45126e-08
1.4306e-08
1.37189e-08
1.28274e-08
1.17368e-08
1.05497e-08
9.3106e-09
7.92913e-09
5.92776e-09
1.19834e-09
0
0
0
0
0
0
2.79999e-11
1.45934e-10
1.71424e-10
3.63038e-10
0
6.81017e-10
0
0
0
0
0
0
0
0
0
0
0
0
0
0
0
4.11754e-10
1.78117e-09
3.20049e-09
4.64149e-09
6.07632e-09
7.48728e-09
8.87316e-09
1.02417e-08
1.16027e-08
1.2942e-08
1.42212e-08
1.53669e-08
1.62953e-08
1.6927e-08
1.72244e-08
1.72123e-08
1.69889e-08
1.67361e-08
1.67164e-08
1.73213e-08
1.92813e-08
2.43929e-08
3.76661e-08
5.23434e-08
1.96842e-08
5.69589e-09
2.3737e-09
1.28427e-09
7.91446e-10
4.63125e-10
2.49857e-10
1.57793e-10
4.22301e-10
0
5.73825e-10
0
0
0
0
0
0
0
0
0
0
0
0
0
0
0
4.53326e-10
1.83673e-09
3.27978e-09
4.75471e-09
6.23326e-09
7.69896e-09
9.15425e-09
1.06139e-08
1.20928e-08
1.35856e-08
1.50598e-08
1.64503e-08
1.76792e-08
1.86742e-08
1.94057e-08
1.99079e-08
2.03042e-08
2.08233e-08
2.1818e-08
2.38301e-08
2.7667e-08
3.39707e-08
3.90855e-08
3.06768e-08
1.56741e-08
7.2399e-09
3.55401e-09
1.84863e-09
9.80434e-10
4.67385e-10
1.8417e-10
1.2002e-10
5.60026e-10
0
4.71326e-10
0
0
0
0
0
0
0
0
0
0
0
0
0
0
0
4.39793e-10
1.81695e-09
3.25916e-09
4.73792e-09
6.2262e-09
7.70594e-09
9.18096e-09
1.06675e-08
1.21824e-08
1.37267e-08
1.52728e-08
1.67592e-08
1.80964e-08
1.9219e-08
2.00962e-08
2.07538e-08
2.12877e-08
2.18563e-08
2.26561e-08
2.38232e-08
2.51377e-08
2.53837e-08
2.23179e-08
1.58405e-08
9.43826e-09
5.19132e-09
2.79344e-09
1.46621e-09
7.30754e-10
2.9731e-10
8.86124e-11
1.38686e-10
8.19916e-10
0
3.73004e-10
0
0
0
0
0
0
0
0
0
0
0
0
0
0
0
3.68207e-10
1.71739e-09
3.13173e-09
4.5811e-09
6.03795e-09
7.48461e-09
8.9201e-09
1.03604e-08
1.1819e-08
1.32929e-08
1.47506e-08
1.61291e-08
1.73391e-08
1.82874e-08
1.89441e-08
1.93102e-08
1.9423e-08
1.9338e-08
1.90793e-08
1.85508e-08
1.74523e-08
1.53515e-08
1.21449e-08
8.49334e-09
5.34479e-09
3.11512e-09
1.71483e-09
8.75739e-10
4.06083e-10
1.46351e-10
7.2099e-11
2.76095e-10
1.23187e-09
0
2.78308e-10
0
0
0
0
0
0
0
0
0
0
0
0
0
0
0
2.39437e-10
1.53894e-09
2.89821e-09
4.2847e-09
5.66882e-09
7.03215e-09
8.36925e-09
9.69014e-09
1.10017e-08
1.22921e-08
1.3521e-08
1.46198e-08
1.55016e-08
1.60682e-08
1.62827e-08
1.6145e-08
1.56736e-08
1.4897e-08
1.38286e-08
1.2448e-08
1.07205e-08
8.66906e-09
6.46926e-09
4.41575e-09
2.76573e-09
1.59445e-09
8.51605e-10
4.15873e-10
2.07151e-10
1.32943e-10
2.04716e-10
5.71934e-10
1.81098e-09
0
1.86664e-10
0
0
0
0
0
0
0
0
0
0
0
0
0
0
0
5.87042e-11
1.28833e-09
2.56741e-09
3.86047e-09
5.13528e-09
6.37101e-09
7.55943e-09
8.7019e-09
9.79803e-09
1.08272e-08
1.17433e-08
1.24783e-08
1.29562e-08
1.31013e-08
1.2883e-08
1.23276e-08
1.14702e-08
1.03589e-08
9.0485e-09
7.59649e-09
6.07263e-09
4.56705e-09
3.19449e-09
2.05684e-09
1.21537e-09
6.59317e-10
3.5035e-10
2.17757e-10
2.26312e-10
3.16799e-10
5.22863e-10
1.04529e-09
2.55945e-09
0
9.74617e-11
0
0
0
0
0
0
0
0
0
0
0
0
0
0
0
0
9.78323e-10
2.15648e-09
3.33166e-09
4.46925e-09
5.54604e-09
6.55153e-09
7.48112e-09
8.32854e-09
9.06953e-09
9.6597e-09
1.00421e-08
1.01624e-08
9.97796e-09
9.47899e-09
8.71551e-09
7.74099e-09
6.61908e-09
5.42163e-09
4.22337e-09
3.09982e-09
2.11744e-09
1.32989e-09
7.60325e-10
4.08582e-10
2.4096e-10
2.26208e-10
3.15515e-10
4.93521e-10
7.18639e-10
1.0383e-09
1.69952e-09
3.47017e-09
0
1.00308e-11
0
0
0
0
0
0
0
0
0
0
0
0
0
0
0
0
6.27279e-10
1.68978e-09
2.73116e-09
3.71511e-09
4.61743e-09
5.42664e-09
6.13669e-09
6.73888e-09
7.2118e-09
7.5203e-09
7.62516e-09
7.49687e-09
7.12276e-09
6.51256e-09
5.72536e-09
4.82061e-09
3.86182e-09
2.91636e-09
2.04885e-09
1.316e-09
7.55336e-10
3.84836e-10
1.95248e-10
1.65931e-10
2.58877e-10
4.48875e-10
6.99476e-10
1.00541e-09
1.33558e-09
1.74654e-09
2.52721e-09
4.5302e-09
0
0
0
0
0
0
0
0
0
0
0
0
0
0
0
0
0
0
2.57634e-10
1.19688e-09
2.09792e-09
2.92428e-09
3.65251e-09
4.27236e-09
4.77992e-09
5.16876e-09
5.42451e-09
5.52493e-09
5.44913e-09
5.18802e-09
4.74853e-09
4.15294e-09
3.45664e-09
2.71592e-09
1.9861e-09
1.32269e-09
7.74431e-10
3.78249e-10
1.50064e-10
8.76892e-11
1.67876e-10
3.63644e-10
6.38992e-10
9.7437e-10
1.34198e-09
1.74248e-09
2.15201e-09
2.63375e-09
3.51454e-09
5.72319e-09
0
0
0
0
0
0
0
0
0
0
0
0
0
0
0
0
0
0
0
7.09688e-10
1.4728e-09
2.14883e-09
2.71674e-09
3.16955e-09
3.50759e-09
3.7302e-09
3.83129e-09
3.80113e-09
3.63334e-09
3.33214e-09
2.91437e-09
2.40754e-09
1.85903e-09
1.31767e-09
8.29011e-10
4.36172e-10
1.73006e-10
5.98838e-11
9.72154e-11
2.70709e-10
5.51054e-10
9.10484e-10
1.31732e-09
1.75729e-09
2.20947e-09
2.67851e-09
3.14632e-09
3.68155e-09
4.64421e-09
7.03124e-09
0
0
0
0
0
0
0
0
0
0
0
0
0
0
0
0
0
0
0
2.5984e-10
8.94931e-10
1.43609e-09
1.86648e-09
2.18339e-09
2.39222e-09
2.49867e-09
2.50468e-09
2.41013e-09
2.21813e-09
1.93992e-09
1.59599e-09
1.21457e-09
8.35129e-10
4.98645e-10
2.41664e-10
9.61105e-11
8.27717e-11
2.08357e-10
4.61726e-10
8.20914e-10
1.25443e-09
1.73618e-09
2.23962e-09
2.75532e-09
3.26813e-09
3.78577e-09
4.29538e-09
4.86988e-09
5.89766e-09
8.43672e-09
0
0
0
0
0
0
0
0
0
0
0
0
0
0
0
0
0
0
0
0
3.98608e-10
8.25601e-10
1.14539e-09
1.36012e-09
1.47994e-09
1.51588e-09
1.476e-09
1.3665e-09
1.19578e-09
9.78161e-10
7.3484e-10
4.92992e-10
2.85809e-10
1.47031e-10
1.05432e-10
1.82888e-10
3.88536e-10
7.17423e-10
1.14946e-09
1.65777e-09
2.21092e-09
2.78571e-09
3.36087e-09
3.93132e-09
4.48686e-09
5.03828e-09
5.57749e-09
6.17825e-09
7.2568e-09
9.92342e-09
0
0
0
0
0
0
0
0
0
0
0
0
0
0
0
0
0
0
0
0
1.09407e-11
3.46748e-10
5.83485e-10
7.27855e-10
7.93884e-10
7.96338e-10
7.47147e-10
6.56166e-10
5.3448e-10
3.97541e-10
2.66213e-10
1.66142e-10
1.25919e-10
1.73234e-10
3.29861e-10
6.08279e-10
1.00687e-09
1.51049e-09
2.09203e-09
2.72168e-09
3.36941e-09
4.01559e-09
4.64407e-09
5.25352e-09
5.83855e-09
6.41378e-09
6.97124e-09
7.58809e-09
8.70523e-09
1.1477e-08
0
0
0
0
0
0
0
0
0
0
0
0
0
0
0
0
0
0
0
0
0
1.88162e-11
1.9796e-10
2.99438e-10
3.39964e-10
3.36514e-10
3.03104e-10
2.51479e-10
1.94061e-10
1.46813e-10
1.30281e-10
1.68686e-10
2.86904e-10
5.07838e-10
8.46601e-10
1.30659e-09
1.87606e-09
2.53089e-09
3.2385e-09
3.96759e-09
4.69051e-09
5.39145e-09
6.05903e-09
6.6955e-09
7.30171e-09
7.8913e-09
8.45826e-09
9.08335e-09
1.02285e-08
1.30852e-08
0
0
0
0
0
0
0
0
0
0
0
0
0
0
0
0
0
0
0
0
0
0
0
7.68337e-11
1.13123e-10
1.22974e-10
1.21289e-10
1.20766e-10
1.34712e-10
1.79709e-10
2.76412e-10
4.47842e-10
7.15206e-10
1.09773e-09
1.60398e-09
2.22842e-09
2.94979e-09
3.73603e-09
4.55035e-09
5.36108e-09
6.14356e-09
6.88589e-09
7.5811e-09
8.23692e-09
8.85702e-09
9.4531e-09
1.00233e-08
1.06503e-08
1.18145e-08
1.4738e-08
0
0
0
0
0
0
0
0
0
0
0
0
0
0
0
0
0
0
0
0
0
0
0
5.53875e-11
1.02446e-10
1.38049e-10
1.77311e-10
2.33546e-10
3.21019e-10
4.57335e-10
6.63728e-10
9.6214e-10
1.36955e-09
1.90238e-09
2.56277e-09
3.33639e-09
4.19297e-09
5.09347e-09
5.99803e-09
6.87551e-09
7.70457e-09
8.47707e-09
9.19129e-09
9.86076e-09
1.04875e-08
1.10851e-08
1.16536e-08
1.22774e-08
1.34529e-08
1.64277e-08
0
0
0
0
0
0
0
0
0
0
0
0
0
0
0
0
0
0
0
0
0
2.31144e-11
1.42515e-10
2.26801e-10
2.9455e-10
3.63288e-10
4.48073e-10
5.62865e-10
7.2321e-10
9.48191e-10
1.25999e-09
1.67943e-09
2.21831e-09
2.89084e-09
3.69303e-09
4.60187e-09
5.57867e-09
6.57832e-09
7.55878e-09
8.49012e-09
9.35456e-09
1.01479e-08
1.08745e-08
1.15521e-08
1.21804e-08
1.27752e-08
1.33383e-08
1.39548e-08
1.51356e-08
1.81482e-08
0
0
0
0
0
0
0
0
0
0
0
0
0
0
0
0
0
0
0
0
1.94606e-10
3.57897e-10
4.81572e-10
5.81651e-10
6.76108e-10
7.81762e-10
9.13585e-10
1.0864e-09
1.31744e-09
1.62767e-09
2.04046e-09
2.57533e-09
3.23761e-09
4.03967e-09
4.97194e-09
6.00291e-09
7.08607e-09
8.17114e-09
9.21469e-09
1.01885e-08
1.10785e-08
1.18849e-08
1.26179e-08
1.32987e-08
1.39248e-08
1.45138e-08
1.50684e-08
1.56749e-08
1.68559e-08
1.98953e-08
0
0
0
0
0
0
0
0
0
0
0
0
0
0
0
0
0
0
2.37772e-10
4.87379e-10
6.92206e-10
8.56109e-10
9.90457e-10
1.11124e-09
1.23556e-09
1.37942e-09
1.55782e-09
1.78674e-09
2.08549e-09
2.47728e-09
2.98671e-09
3.63172e-09
4.40973e-09
5.33126e-09
6.3821e-09
7.52254e-09
8.69892e-09
9.85658e-09
1.09515e-08
1.19575e-08
1.28644e-08
1.3677e-08
1.44108e-08
1.50904e-08
1.57115e-08
1.62923e-08
1.68366e-08
1.74309e-08
1.86085e-08
2.16655e-08
0
0
0
0
0
0
0
0
0
0
0
0
0
0
0
0
3.03312e-10
6.19923e-10
9.01707e-10
1.14388e-09
1.34636e-09
1.51576e-09
1.66463e-09
1.80867e-09
1.9639e-09
2.14554e-09
2.36877e-09
2.65106e-09
3.01414e-09
3.48368e-09
4.08553e-09
4.83563e-09
5.72186e-09
6.75256e-09
7.91028e-09
9.14753e-09
1.04042e-08
1.16221e-08
1.27573e-08
1.37861e-08
1.47021e-08
1.55145e-08
1.62433e-08
1.69179e-08
1.75323e-08
1.81035e-08
1.86363e-08
1.92174e-08
2.0389e-08
2.34567e-08
0
0
0
0
0
0
0
0
0
0
0
0
0
4.74504e-12
3.96883e-10
7.74582e-10
1.12395e-09
1.43899e-09
1.71637e-09
1.95507e-09
2.15863e-09
2.33625e-09
2.50145e-09
2.66941e-09
2.85506e-09
3.07283e-09
3.3383e-09
3.67069e-09
4.09447e-09
4.63792e-09
5.32801e-09
6.17824e-09
7.16525e-09
8.29418e-09
9.54646e-09
1.08674e-08
1.21912e-08
1.34571e-08
1.46217e-08
1.56643e-08
1.65823e-08
1.73888e-08
1.81068e-08
1.87716e-08
1.93788e-08
1.994e-08
2.04613e-08
2.10294e-08
2.21936e-08
2.52667e-08
0
0
0
0
0
0
0
0
0
0
0
1.18728e-10
5.00268e-10
9.22844e-10
1.34463e-09
1.73963e-09
2.09686e-09
2.41318e-09
2.68858e-09
2.92581e-09
3.13198e-09
3.31876e-09
3.50046e-09
3.69166e-09
3.90607e-09
4.15745e-09
4.46195e-09
4.84078e-09
5.3214e-09
5.93479e-09
6.70886e-09
7.65422e-09
8.73449e-09
9.94961e-09
1.1283e-08
1.26733e-08
1.40503e-08
1.53515e-08
1.65349e-08
1.75826e-08
1.84958e-08
1.92907e-08
1.99926e-08
2.06409e-08
2.12412e-08
2.17935e-08
2.23046e-08
2.28609e-08
2.4018e-08
2.70933e-08
0
0
0
0
0
0
0
0
1.73288e-10
3.98892e-10
6.93503e-10
1.07704e-09
1.52655e-09
1.99815e-09
2.45256e-09
2.86705e-09
3.23377e-09
3.55251e-09
3.82659e-09
4.06257e-09
4.27118e-09
4.46648e-09
4.66352e-09
4.87615e-09
5.11686e-09
5.39873e-09
5.73862e-09
6.15993e-09
6.69329e-09
7.37244e-09
8.22599e-09
9.26122e-09
1.04271e-08
1.17148e-08
1.31139e-08
1.45578e-08
1.59726e-08
1.72953e-08
1.84858e-08
1.95297e-08
2.04317e-08
2.12102e-08
2.18915e-08
2.25138e-08
2.31064e-08
2.36526e-08
2.41566e-08
2.47044e-08
2.58563e-08
2.89324e-08
0
0
0
0
0
0
3.39568e-10
6.77727e-10
9.90357e-10
1.32658e-09
1.72919e-09
2.20568e-09
2.72682e-09
3.24912e-09
3.73687e-09
4.17105e-09
4.54707e-09
4.86771e-09
5.13966e-09
5.3733e-09
5.58291e-09
5.78494e-09
5.99508e-09
6.22643e-09
6.49022e-09
6.79889e-09
7.17009e-09
7.62959e-09
8.21127e-09
8.95166e-09
9.87979e-09
1.09992e-08
1.22432e-08
1.35877e-08
1.50345e-08
1.65132e-08
1.79479e-08
1.92763e-08
2.04611e-08
2.14917e-08
2.23758e-08
2.31332e-08
2.37905e-08
2.43811e-08
2.49533e-08
2.55001e-08
2.60031e-08
2.65481e-08
2.76991e-08
3.07771e-08
0
0
0
0
2.68443e-10
6.93752e-10
1.1359e-09
1.56075e-09
1.98295e-09
2.43938e-09
2.95683e-09
3.52952e-09
4.12257e-09
4.69432e-09
5.21382e-09
5.66596e-09
6.04948e-09
6.37009e-09
6.63782e-09
6.86687e-09
7.07508e-09
7.28126e-09
7.50165e-09
7.74848e-09
8.03164e-09
8.36295e-09
8.76095e-09
9.25386e-09
9.87892e-09
1.06755e-08
1.16727e-08
1.287e-08
1.41848e-08
1.55675e-08
1.70402e-08
1.85309e-08
1.99637e-08
2.12787e-08
2.24425e-08
2.34482e-08
2.4307e-08
2.5039e-08
2.56696e-08
2.62291e-08
2.67594e-08
2.73082e-08
2.78203e-08
2.83722e-08
2.95301e-08
3.26139e-08
0
6.15472e-10
8.69761e-10
9.48037e-10
1.22332e-09
1.6502e-09
2.14034e-09
2.65251e-09
3.18963e-09
3.7714e-09
4.40545e-09
5.07252e-09
5.73335e-09
6.35009e-09
6.89755e-09
7.36443e-09
7.75262e-09
8.07057e-09
8.33141e-09
8.55302e-09
8.75679e-09
8.96384e-09
9.191e-09
9.44958e-09
9.74805e-09
1.00976e-08
1.05176e-08
1.10388e-08
1.17018e-08
1.25487e-08
1.36086e-08
1.48768e-08
1.62557e-08
1.76548e-08
1.91258e-08
2.05997e-08
2.2003e-08
2.32801e-08
2.44028e-08
2.53689e-08
2.61923e-08
2.68939e-08
2.74957e-08
2.80248e-08
2.85141e-08
2.90312e-08
2.95696e-08
3.01446e-08
3.13223e-08
3.44196e-08
1.05031e-08
4.75004e-09
2.99226e-09
2.45278e-09
2.52207e-09
2.88775e-09
3.40462e-09
3.99894e-09
4.64977e-09
5.35491e-09
6.10024e-09
6.85332e-09
7.57269e-09
8.22717e-09
8.79711e-09
9.27475e-09
9.66458e-09
9.97731e-09
1.02289e-08
1.04406e-08
1.06371e-08
1.08419e-08
1.10723e-08
1.13386e-08
1.16479e-08
1.20108e-08
1.24475e-08
1.29913e-08
1.36861e-08
1.45768e-08
1.56922e-08
1.70228e-08
1.84606e-08
1.98508e-08
2.12851e-08
2.27041e-08
2.40405e-08
2.52463e-08
2.63005e-08
2.72061e-08
2.79796e-08
2.86423e-08
2.92129e-08
2.9712e-08
3.01678e-08
3.0632e-08
3.11903e-08
3.18127e-08
3.30304e-08
3.61538e-08
2.24162e-08
1.21356e-08
6.27849e-09
4.48087e-09
4.22807e-09
4.46535e-09
4.97646e-09
5.63974e-09
6.39582e-09
7.21242e-09
8.05417e-09
8.87694e-09
9.64106e-09
1.03245e-08
1.09109e-08
1.13963e-08
1.17865e-08
1.20933e-08
1.23346e-08
1.2535e-08
1.27224e-08
1.29225e-08
1.31531e-08
1.34236e-08
1.37397e-08
1.41112e-08
1.45592e-08
1.51194e-08
1.5839e-08
1.67658e-08
1.79277e-08
1.9311e-08
2.08021e-08
2.21609e-08
2.35088e-08
2.48203e-08
2.60375e-08
2.71243e-08
2.80698e-08
2.88839e-08
2.95859e-08
3.01959e-08
3.07295e-08
3.11984e-08
3.16242e-08
3.20504e-08
3.25883e-08
3.32929e-08
3.45813e-08
3.77504e-08
1.14245e-08
1.89776e-08
1.04953e-08
6.88187e-09
6.21484e-09
6.37297e-09
6.87313e-09
7.58804e-09
8.42996e-09
9.33557e-09
1.02486e-08
1.11161e-08
1.19086e-08
1.2612e-08
1.32126e-08
1.37071e-08
1.41007e-08
1.4405e-08
1.46393e-08
1.48304e-08
1.50094e-08
1.52043e-08
1.54334e-08
1.57055e-08
1.60249e-08
1.64006e-08
1.68546e-08
1.74249e-08
1.81618e-08
1.91157e-08
2.03141e-08
2.17384e-08
2.32711e-08
2.45913e-08
2.57809e-08
2.6909e-08
2.79307e-08
2.88276e-08
2.96041e-08
3.02795e-08
3.0876e-08
3.14117e-08
3.18964e-08
3.23329e-08
3.27303e-08
3.31292e-08
3.36368e-08
3.44509e-08
3.58557e-08
3.91003e-08
3.03511e-09
1.89653e-08
1.45147e-08
9.63047e-09
8.12854e-09
8.38174e-09
8.95013e-09