/*--------------------------------*- C++ -*----------------------------------*\
  =========                 |
  \\      /  F ield         | OpenFOAM: The Open Source CFD Toolbox
   \\    /   O peration     | Website:  https://openfoam.org
    \\  /    A nd           | Version:  7
     \\/     M anipulation  |
\*---------------------------------------------------------------------------*/
FoamFile
{
    version     2.0;
    format      ascii;
    class       surfaceScalarField;
    location    "0.24";
    object      phi;
}
// * * * * * * * * * * * * * * * * * * * * * * * * * * * * * * * * * * * * * //

dimensions      [0 3 -1 0 0 0 0];

internalField   nonuniform List<scalar> 
139350
(
6.45927e-08
9.20388e-08
3.19516e-08
3.26412e-08
2.30605e-08
8.89106e-09
1.9566e-08
3.49455e-09
1.76137e-08
1.95226e-09
1.61854e-08
1.42836e-09
1.50512e-08
1.13411e-09
1.41358e-08
9.154e-10
1.33816e-08
7.5427e-10
1.27453e-08
6.36286e-10
1.21982e-08
5.47122e-10
1.17209e-08
4.77285e-10
1.12997e-08
4.21152e-10
1.09245e-08
3.75189e-10
1.05875e-08
3.36993e-10
1.02827e-08
3.04847e-10
1.00052e-08
2.77493e-10
9.75121e-09
2.53993e-10
9.51758e-09
2.33633e-10
9.30172e-09
2.15862e-10
9.10147e-09
2.00246e-10
8.91503e-09
1.86439e-10
8.74087e-09
1.74162e-10
8.57769e-09
1.63183e-10
8.42438e-09
1.53312e-10
8.27999e-09
1.44389e-10
8.14371e-09
1.36275e-10
8.01486e-09
1.28853e-10
7.89285e-09
1.22012e-10
7.77718e-09
1.15663e-10
7.66748e-09
1.09704e-10
7.56341e-09
1.04067e-10
7.46478e-09
9.86382e-11
7.3714e-09
9.33725e-11
7.28329e-09
8.8116e-11
7.20044e-09
8.28508e-11
7.12308e-09
7.73568e-11
7.05145e-09
7.16255e-11
6.98606e-09
6.53917e-11
6.92756e-09
5.84972e-11
6.87664e-09
5.09277e-11
6.83504e-09
4.15955e-11
6.80287e-09
3.2171e-11
6.78536e-09
1.7513e-11
6.7787e-09
6.6596e-12
6.80017e-09
-2.14727e-11
6.82729e-09
-2.71196e-11
6.93903e-09
-1.11735e-10
6.86977e-09
6.92566e-11
-3.47333e-09
1.03431e-08
1.26026e-07
1.27456e-07
9.12639e-08
6.74033e-08
7.19425e-08
2.82125e-08
6.12141e-08
1.4223e-08
5.47655e-08
8.40086e-09
5.02683e-08
5.92555e-09
4.67796e-08
4.6228e-09
4.39579e-08
3.7371e-09
4.16239e-08
3.08825e-09
3.96529e-08
2.60726e-09
3.79579e-08
2.24216e-09
3.64788e-08
1.95636e-09
3.51731e-08
1.72683e-09
3.40094e-08
1.53895e-09
3.29636e-08
1.3828e-09
3.2017e-08
1.25138e-09
3.1155e-08
1.13955e-09
3.03655e-08
1.04348e-09
2.96389e-08
9.60272e-10
2.89671e-08
8.87663e-10
2.83434e-08
8.23891e-10
2.77623e-08
7.67547e-10
2.7219e-08
7.1749e-10
2.67094e-08
6.72791e-10
2.623e-08
6.32674e-10
2.57779e-08
5.96497e-10
2.53505e-08
5.63704e-10
2.49455e-08
5.33825e-10
2.45611e-08
5.06435e-10
2.41956e-08
4.8117e-10
2.38476e-08
4.57661e-10
2.35161e-08
4.35622e-10
2.32e-08
4.14663e-10
2.28988e-08
3.94574e-10
2.26121e-08
3.7484e-10
2.23396e-08
3.55373e-10
2.20816e-08
3.35356e-10
2.18383e-08
3.1493e-10
2.1611e-08
2.92713e-10
2.14003e-08
2.69167e-10
2.12091e-08
2.42157e-10
2.10386e-08
2.12022e-10
2.08941e-08
1.76737e-10
2.07784e-08
1.33135e-10
2.06993e-08
8.58468e-11
2.06678e-08
9.95857e-12
2.06811e-08
-4.0357e-11
2.08401e-08
-2.70816e-10
2.08868e-08
2.25862e-11
-4.60428e-09
2.20178e-08
1.58808e-07
1.35052e-07
1.36495e-07
8.97157e-08
1.17493e-07
4.72144e-08
1.03313e-07
2.84029e-08
9.33027e-08
1.84116e-08
8.5995e-08
1.32332e-08
8.02814e-08
1.03364e-08
7.56202e-08
8.3983e-09
7.17292e-08
6.97923e-09
6.84215e-08
5.91493e-09
6.55641e-08
5.09965e-09
6.30621e-08
4.45833e-09
6.08472e-08
3.94172e-09
5.88684e-08
3.51775e-09
5.70866e-08
3.16462e-09
5.54711e-08
2.86684e-09
5.39976e-08
2.61304e-09
5.26464e-08
2.39473e-09
5.14012e-08
2.20541e-09
5.02488e-08
2.04007e-09
4.9178e-08
1.89475e-09
4.81792e-08
1.7663e-09
4.72446e-08
1.65214e-09
4.63671e-08
1.55021e-09
4.55411e-08
1.45876e-09
4.47612e-08
1.37635e-09
4.40232e-08
1.30175e-09
4.33231e-08
1.2339e-09
4.26577e-08
1.17187e-09
4.2024e-08
1.11484e-09
4.14196e-08
1.06204e-09
4.08424e-08
1.01281e-09
4.02907e-08
9.66366e-10
3.97631e-08
9.22209e-10
3.92586e-08
8.79306e-10
3.87765e-08
8.37453e-10
3.83169e-08
7.94933e-10
3.78797e-08
7.52219e-10
3.74664e-08
7.06013e-10
3.70772e-08
6.58349e-10
3.67167e-08
6.02677e-10
3.63846e-08
5.44077e-10
3.60911e-08
4.70212e-10
3.58342e-08
3.90041e-10
3.56346e-08
2.8544e-10
3.54895e-08
1.55061e-10
3.5426e-08
2.31366e-11
3.55125e-08
-3.5727e-10
3.56769e-08
-1.41826e-10
-4.811e-09
3.58836e-08
1.75664e-07
1.30904e-07
1.65596e-07
9.97844e-08
1.52724e-07
6.00858e-08
1.40123e-07
4.10041e-08
1.29429e-07
2.91053e-08
1.20779e-07
2.18831e-08
1.13658e-07
1.7458e-08
1.07664e-07
1.43916e-08
1.02548e-07
1.20957e-08
9.81262e-08
1.03368e-08
9.42593e-08
8.96655e-09
9.08418e-08
7.8758e-09
8.7794e-08
6.9895e-09
8.50546e-08
6.25713e-09
8.25755e-08
5.6437e-09
8.03184e-08
5.12395e-09
7.82523e-08
4.6792e-09
7.63517e-08
4.29532e-09
7.45956e-08
3.96146e-09
7.29666e-08
3.66914e-09
7.14497e-08
3.41166e-09
7.00323e-08
3.18364e-09
6.87038e-08
2.98071e-09
6.74547e-08
2.79927e-09
6.62771e-08
2.63635e-09
6.5164e-08
2.48946e-09
6.41093e-08
2.35647e-09
6.31076e-08
2.23557e-09
6.21543e-08
2.12515e-09
6.12454e-08
2.02381e-09
6.03772e-08
1.93024e-09
5.95467e-08
1.8433e-09
5.87514e-08
1.76169e-09
5.7989e-08
1.68456e-09
5.72581e-08
1.61023e-09
5.65572e-08
1.53834e-09
5.58861e-08
1.46606e-09
5.5244e-08
1.3943e-09
5.46326e-08
1.31735e-09
5.40516e-08
1.23936e-09
5.35063e-08
1.14799e-09
5.29954e-08
1.05498e-09
5.25318e-08
9.33872e-10
5.21105e-08
8.113e-10
5.17592e-08
6.3676e-10
5.14686e-08
4.45675e-10
5.12815e-08
2.10198e-10
5.12379e-08
-3.13703e-10
5.13944e-08
-2.9832e-10
-4.73339e-09
5.13168e-08
1.8456e-07
1.23129e-07
1.82322e-07
1.02023e-07
1.76103e-07
6.63042e-08
1.67759e-07
4.93486e-08
1.59132e-07
3.77323e-08
1.51216e-07
2.97992e-08
1.44133e-07
2.45408e-08
1.37819e-07
2.07051e-08
1.32201e-07
1.77139e-08
1.27194e-07
1.5344e-08
1.22712e-07
1.34484e-08
1.18679e-07
1.1909e-08
1.1503e-07
1.06384e-08
1.11712e-07
9.57534e-09
1.0868e-07
8.67574e-09
1.05897e-07
7.90699e-09
1.03331e-07
7.24437e-09
1.00958e-07
6.66889e-09
9.87536e-08
6.16571e-09
9.66997e-08
5.7231e-09
9.47797e-08
5.33165e-09
9.29796e-08
4.98375e-09
9.12871e-08
4.67317e-09
8.96917e-08
4.39473e-09
8.81839e-08
4.14415e-09
8.67555e-08
3.91778e-09
8.53995e-08
3.71254e-09
8.41093e-08
3.52575e-09
8.28793e-08
3.35509e-09
8.17047e-08
3.19849e-09
8.05809e-08
3.05401e-09
7.95042e-08
2.92e-09
7.84713e-08
2.79459e-09
7.74794e-08
2.67649e-09
7.65263e-08
2.56332e-09
7.56101e-08
2.45452e-09
7.47301e-08
2.34607e-09
7.38851e-08
2.23929e-09
7.30766e-08
2.12589e-09
7.23037e-08
2.01224e-09
7.15719e-08
1.87981e-09
7.08795e-08
1.74734e-09
7.02399e-08
1.57347e-09
6.96482e-08
1.40299e-09
6.91323e-08
1.15264e-09
6.86853e-08
8.92699e-10
6.83496e-08
5.45867e-10
6.81596e-08
-1.23706e-10
6.8205e-08
-3.43672e-10
-4.52148e-09
6.79931e-08
1.90388e-07
1.14957e-07
1.91852e-07
1.00559e-07
1.90245e-07
6.79119e-08
1.86153e-07
5.344e-08
1.80711e-07
4.31741e-08
1.74951e-07
3.55597e-08
1.69245e-07
3.02468e-08
1.63748e-07
2.62021e-08
1.58556e-07
2.29062e-08
1.5371e-07
2.01899e-08
1.49213e-07
1.79453e-08
1.45049e-07
1.60734e-08
1.41192e-07
1.44944e-08
1.37618e-07
1.31493e-08
1.34301e-07
1.19937e-08
1.31214e-07
1.09934e-08
1.28337e-07
1.01217e-08
1.25648e-07
9.35749e-09
1.2313e-07
8.68376e-09
1.20766e-07
8.08684e-09
1.18542e-07
7.55558e-09
1.16445e-07
7.08078e-09
1.14464e-07
6.65479e-09
1.12587e-07
6.27121e-09
1.10807e-07
5.92465e-09
1.09114e-07
5.61051e-09
1.07502e-07
5.32485e-09
1.05963e-07
5.06423e-09
1.04493e-07
4.82563e-09
1.03085e-07
4.60638e-09
1.01735e-07
4.40395e-09
1.00439e-07
4.21618e-09
9.91927e-08
4.04062e-09
9.79936e-08
3.87555e-09
9.6839e-08
3.71792e-09
9.57266e-08
3.5669e-09
9.46554e-08
3.41733e-09
9.36238e-08
3.27082e-09
9.26331e-08
3.11664e-09
9.16823e-08
2.96304e-09
9.07763e-08
2.78582e-09
8.9914e-08
2.60959e-09
8.91074e-08
2.38006e-09
8.83543e-08
2.15616e-09
8.76777e-08
1.82925e-09
8.70798e-08
1.49057e-09
8.65911e-08
1.0345e-09
8.62551e-08
2.1229e-10
8.6154e-08
-2.42489e-10
-4.17231e-09
8.58048e-08
1.95541e-07
1.07231e-07
1.98248e-07
9.78521e-08
1.98969e-07
6.71903e-08
1.97789e-07
5.46209e-08
1.95155e-07
4.58082e-08
1.91808e-07
3.89059e-08
1.88069e-07
3.39861e-08
1.84108e-07
3.01635e-08
1.80073e-07
2.69412e-08
1.76074e-07
2.41888e-08
1.72179e-07
2.18403e-08
1.68426e-07
1.98261e-08
1.64835e-07
1.80849e-08
1.61415e-07
1.65693e-08
1.58167e-07
1.52427e-08
1.55084e-07
1.40755e-08
1.52162e-07
1.30438e-08
1.49392e-07
1.21279e-08
1.46764e-07
1.13115e-08
1.4427e-07
1.05812e-08
1.419e-07
9.9255e-09
1.39646e-07
9.33495e-09
1.37499e-07
8.80142e-09
1.35452e-07
8.31801e-09
1.33498e-07
7.8788e-09
1.3163e-07
7.47866e-09
1.29842e-07
7.11316e-09
1.28128e-07
6.77836e-09
1.26483e-07
6.47079e-09
1.24902e-07
6.18731e-09
1.23381e-07
5.92498e-09
1.21916e-07
5.6812e-09
1.20503e-07
5.45307e-09
1.1914e-07
5.23851e-09
1.17824e-07
5.03384e-09
1.16553e-07
4.838e-09
1.15326e-07
4.6448e-09
1.1414e-07
4.45599e-09
1.12998e-07
4.25878e-09
1.11899e-07
4.06262e-09
1.10846e-07
3.83888e-09
1.09839e-07
3.61588e-09
1.08889e-07
3.33021e-09
1.07997e-07
3.04815e-09
1.07179e-07
2.64738e-09
1.06449e-07
2.22113e-09
1.05821e-07
1.66163e-09
1.05348e-07
6.85253e-10
1.05104e-07
2.1613e-12
-3.68705e-09
1.04619e-07
2.00848e-07
9.99673e-08
2.03776e-07
9.49239e-08
2.05328e-07
6.56387e-08
2.05644e-07
5.43052e-08
2.04816e-07
4.66357e-08
2.03332e-07
4.03897e-08
2.0138e-07
3.59389e-08
1.99041e-07
3.25016e-08
1.96423e-07
2.95595e-08
1.93627e-07
2.69853e-08
1.90732e-07
2.47349e-08
1.87799e-07
2.27588e-08
1.84873e-07
2.10118e-08
1.81983e-07
1.94588e-08
1.79153e-07
1.80728e-08
1.76397e-07
1.68318e-08
1.73723e-07
1.57173e-08
1.71137e-07
1.47137e-08
1.68641e-07
1.38075e-08
1.66235e-07
1.29872e-08
1.63918e-07
1.22431e-08
1.61686e-07
1.15664e-08
1.59538e-07
1.09497e-08
1.57469e-07
1.03866e-08
1.55477e-07
9.8712e-09
1.53557e-07
9.39861e-09
1.51706e-07
8.96434e-09
1.4992e-07
8.56438e-09
1.48195e-07
8.19515e-09
1.46529e-07
7.85333e-09
1.44919e-07
7.5358e-09
1.4336e-07
7.23973e-09
1.41851e-07
6.96195e-09
1.4039e-07
6.70012e-09
1.38973e-07
6.45014e-09
1.37601e-07
6.21071e-09
1.3627e-07
5.97485e-09
1.34982e-07
5.74428e-09
1.33736e-07
5.50467e-09
1.32533e-07
5.26594e-09
1.31375e-07
4.9965e-09
1.30265e-07
4.7259e-09
1.29209e-07
4.38608e-09
1.28214e-07
4.04334e-09
1.27288e-07
3.57342e-09
1.26454e-07
3.05494e-09
1.25718e-07
2.39777e-09
1.25128e-07
1.2753e-09
1.24758e-07
3.72772e-10
-3.08879e-09
1.24159e-07
2.06447e-07
9.30523e-08
2.0934e-07
9.2031e-08
2.11038e-07
6.39409e-08
2.11932e-07
5.34109e-08
2.12001e-07
4.65669e-08
2.11613e-07
4.07773e-08
2.10881e-07
3.66714e-08
2.09806e-07
3.35768e-08
2.08424e-07
3.09408e-08
2.06795e-07
2.86149e-08
2.04972e-07
2.65576e-08
2.03004e-07
2.47262e-08
2.00934e-07
2.30818e-08
1.98797e-07
2.15961e-08
1.96621e-07
2.02484e-08
1.94431e-07
1.90226e-08
1.92243e-07
1.79051e-08
1.90072e-07
1.68845e-08
1.87929e-07
1.59509e-08
1.85821e-07
1.50954e-08
1.83753e-07
1.43105e-08
1.8173e-07
1.35893e-08
1.79754e-07
1.29257e-08
1.77827e-07
1.23142e-08
1.75948e-07
1.175e-08
1.74118e-07
1.12286e-08
1.72336e-07
1.07461e-08
1.70602e-07
1.02988e-08
1.68913e-07
9.88339e-09
1.6727e-07
9.49662e-09
1.6567e-07
9.13547e-09
1.64113e-07
8.79716e-09
1.62596e-07
8.47843e-09
1.6112e-07
8.17687e-09
1.59682e-07
7.88814e-09
1.58282e-07
7.61079e-09
1.56919e-07
7.33734e-09
1.55594e-07
7.0693e-09
1.54307e-07
6.79143e-09
1.5306e-07
6.51332e-09
1.51854e-07
6.20204e-09
1.50694e-07
5.88598e-09
1.49584e-07
5.49659e-09
1.48533e-07
5.09401e-09
1.47545e-07
4.56128e-09
1.46649e-07
3.95153e-09
1.45844e-07
3.20258e-09
1.45169e-07
1.95011e-09
1.44699e-07
8.42643e-10
-2.41087e-09
1.44021e-07
2.12289e-07
8.64256e-08
2.15153e-07
8.91672e-08
2.16792e-07
6.23015e-08
2.17845e-07
5.23586e-08
2.1826e-07
4.61515e-08
2.18375e-07
4.06618e-08
2.18298e-07
3.67488e-08
2.17996e-07
3.3879e-08
2.17461e-07
3.14757e-08
2.16711e-07
2.93645e-08
2.15771e-07
2.74984e-08
2.14663e-07
2.58335e-08
2.13415e-07
2.43304e-08
2.1205e-07
2.29613e-08
2.10591e-07
2.17071e-08
2.09059e-07
2.0554e-08
2.07473e-07
1.94911e-08
2.05849e-07
1.85093e-08
2.04198e-07
1.76012e-08
2.02534e-07
1.67601e-08
2.00864e-07
1.59803e-08
1.99196e-07
1.52567e-08
1.97538e-07
1.45845e-08
1.95892e-07
1.39597e-08
1.94264e-07
1.33782e-08
1.92656e-07
1.28366e-08
1.9107e-07
1.23316e-08
1.89509e-07
1.18601e-08
1.87973e-07
1.14192e-08
1.86464e-07
1.10061e-08
1.84981e-07
1.06181e-08
1.83526e-07
1.02525e-08
1.82098e-07
9.90627e-09
1.80698e-07
9.57702e-09
1.79326e-07
9.26037e-09
1.77982e-07
8.95482e-09
1.76666e-07
8.65261e-09
1.75381e-07
8.35501e-09
1.74126e-07
8.04635e-09
1.72904e-07
7.73537e-09
1.71717e-07
7.38909e-09
1.7057e-07
7.03294e-09
1.69465e-07
6.60108e-09
1.68416e-07
6.14328e-09
1.67421e-07
5.55583e-09
1.66512e-07
4.86129e-09
1.65686e-07
4.02805e-09
1.64969e-07
2.66723e-09
1.64436e-07
1.3761e-09
-1.69163e-09
1.63716e-07
2.1833e-07
8.00761e-08
2.21207e-07
8.62908e-08
2.22765e-07
6.07432e-08
2.23844e-07
5.12794e-08
2.24369e-07
4.56267e-08
2.24663e-07
4.03681e-08
2.24862e-07
3.65494e-08
2.24939e-07
3.38018e-08
2.24872e-07
3.15431e-08
2.24659e-07
2.95768e-08
2.24306e-07
2.78513e-08
2.23819e-07
2.63213e-08
2.23204e-07
2.49447e-08
2.22475e-07
2.36912e-08
2.21641e-07
2.25406e-08
2.20717e-07
2.14786e-08
2.19713e-07
2.04944e-08
2.18643e-07
1.95797e-08
2.17517e-07
1.87276e-08
2.16344e-07
1.79326e-08
2.15135e-07
1.71898e-08
2.13896e-07
1.64953e-08
2.12635e-07
1.58452e-08
2.11359e-07
1.52362e-08
2.10072e-07
1.46653e-08
2.08779e-07
1.41297e-08
2.07483e-07
1.36268e-08
2.0619e-07
1.31541e-08
2.049e-07
1.27091e-08
2.03616e-07
1.22895e-08
2.02342e-07
1.18928e-08
2.01077e-07
1.15169e-08
1.99825e-07
1.11587e-08
1.98586e-07
1.0816e-08
1.97362e-07
1.04846e-08
1.96153e-07
1.01629e-08
1.94963e-07
9.84323e-09
1.93791e-07
9.52639e-09
1.92641e-07
9.19678e-09
1.91515e-07
8.86188e-09
1.90414e-07
8.48967e-09
1.89345e-07
8.10142e-09
1.8831e-07
7.63626e-09
1.87322e-07
7.13109e-09
1.8638e-07
6.49861e-09
1.85511e-07
5.73041e-09
1.84716e-07
4.82269e-09
1.84005e-07
3.37857e-09
1.8345e-07
1.93114e-09
-9.72299e-10
1.8273e-07
2.24559e-07
7.40104e-08
2.27471e-07
8.3379e-08
2.28962e-07
5.92522e-08
2.30046e-07
5.01949e-08
2.30612e-07
4.50606e-08
2.30955e-07
4.00258e-08
2.31244e-07
3.62604e-08
2.31469e-07
3.35762e-08
2.31611e-07
3.1401e-08
2.31668e-07
2.95204e-08
2.31638e-07
2.78813e-08
2.31519e-07
2.64398e-08
2.31311e-07
2.51524e-08
2.31016e-07
2.39868e-08
2.30635e-07
2.2921e-08
2.30175e-07
2.19394e-08
2.29639e-07
2.10302e-08
2.29034e-07
2.01845e-08
2.28366e-07
1.93952e-08
2.27642e-07
1.86566e-08
2.26868e-07
1.79642e-08
2.26049e-07
1.7314e-08
2.25192e-07
1.67025e-08
2.24301e-07
1.6127e-08
2.23382e-07
1.55846e-08
2.22438e-07
1.50731e-08
2.21475e-07
1.45902e-08
2.20495e-07
1.41337e-08
2.19503e-07
1.37017e-08
2.185e-07
1.3292e-08
2.1749e-07
1.29025e-08
2.16476e-07
1.25312e-08
2.1546e-07
1.21752e-08
2.14443e-07
1.18327e-08
2.13428e-07
1.14993e-08
2.12417e-07
1.11736e-08
2.11413e-07
1.08478e-08
2.10417e-07
1.05225e-08
2.09431e-07
1.01823e-08
2.0846e-07
9.83327e-09
2.07505e-07
9.44504e-09
2.06572e-07
9.03395e-09
2.05663e-07
8.54553e-09
2.04791e-07
8.00286e-09
2.03954e-07
7.33589e-09
2.03176e-07
6.5082e-09
2.02461e-07
5.53792e-09
2.01803e-07
4.03665e-09
2.01269e-07
2.46461e-09
-2.93465e-10
2.0059e-07
2.3098e-07
6.82367e-08
2.33935e-07
8.04232e-08
2.35367e-07
5.78205e-08
2.36458e-07
4.91043e-08
2.37057e-07
4.44609e-08
2.37415e-07
3.96681e-08
2.37726e-07
3.59499e-08
2.37997e-07
3.33046e-08
2.38215e-07
3.1183e-08
2.38381e-07
2.93541e-08
2.38498e-07
2.77648e-08
2.38563e-07
2.63749e-08
2.38573e-07
2.51419e-08
2.38527e-07
2.40328e-08
2.38424e-07
2.30244e-08
2.38263e-07
2.21003e-08
2.38045e-07
2.1248e-08
2.37772e-07
2.04577e-08
2.37445e-07
1.97218e-08
2.37068e-07
1.9034e-08
2.36643e-07
1.83895e-08
2.36173e-07
1.7784e-08
2.35661e-07
1.72141e-08
2.35112e-07
1.66767e-08
2.34527e-07
1.61693e-08
2.33911e-07
1.56894e-08
2.33266e-07
1.52351e-08
2.32595e-07
1.48042e-08
2.31902e-07
1.43949e-08
2.31189e-07
1.40051e-08
2.30459e-07
1.3633e-08
2.29713e-07
1.32765e-08
2.28955e-07
1.2933e-08
2.28188e-07
1.26005e-08
2.27412e-07
1.22749e-08
2.26631e-07
1.19547e-08
2.25847e-07
1.16321e-08
2.25062e-07
1.13074e-08
2.24278e-07
1.09657e-08
2.235e-07
1.06112e-08
2.2273e-07
1.02159e-08
2.21973e-07
9.79081e-09
2.2123e-07
9.28853e-09
2.20514e-07
8.71857e-09
2.19823e-07
8.02726e-09
2.19176e-07
7.1553e-09
2.18578e-07
6.13542e-09
2.18013e-07
4.6019e-09
2.17539e-07
2.93889e-09
3.09944e-10
2.16935e-07
2.37601e-07
6.27607e-08
2.40603e-07
7.74211e-08
2.41978e-07
5.64459e-08
2.43073e-07
4.80088e-08
2.4371e-07
4.38241e-08
2.44081e-07
3.9297e-08
2.44397e-07
3.5634e-08
2.44681e-07
3.30206e-08
2.44922e-07
3.09422e-08
2.45125e-07
2.91512e-08
2.45296e-07
2.75935e-08
2.45436e-07
2.62343e-08
2.45545e-07
2.50332e-08
2.45621e-07
2.39574e-08
2.45661e-07
2.29839e-08
2.45665e-07
2.2096e-08
2.45633e-07
2.12809e-08
2.45562e-07
2.05284e-08
2.45453e-07
1.98304e-08
2.45307e-07
1.91805e-08
2.45123e-07
1.85732e-08
2.44903e-07
1.80041e-08
2.44648e-07
1.74693e-08
2.44359e-07
1.69658e-08
2.44037e-07
1.64906e-08
2.43685e-07
1.60413e-08
2.43305e-07
1.56157e-08
2.42897e-07
1.52117e-08
2.42465e-07
1.48273e-08
2.42009e-07
1.44607e-08
2.41533e-07
1.41097e-08
2.41037e-07
1.37724e-08
2.40524e-07
1.34461e-08
2.39995e-07
1.31288e-08
2.39454e-07
1.28164e-08
2.38901e-07
1.25071e-08
2.3834e-07
1.21936e-08
2.37772e-07
1.18752e-08
2.372e-07
1.1538e-08
2.36627e-07
1.11843e-08
2.36054e-07
1.07885e-08
2.35488e-07
1.03563e-08
2.34929e-07
9.84758e-09
2.34389e-07
9.25931e-09
2.33864e-07
8.55215e-09
2.33369e-07
7.65015e-09
2.32911e-07
6.59336e-09
2.32464e-07
5.049e-09
2.32076e-07
3.32715e-09
8.15418e-10
2.3157e-07
2.44431e-07
5.7586e-08
2.47473e-07
7.43793e-08
2.48798e-07
5.51202e-08
2.49894e-07
4.69129e-08
2.5057e-07
4.31485e-08
2.50958e-07
3.89088e-08
2.51278e-07
3.53137e-08
2.51568e-07
3.27312e-08
2.51816e-07
3.06939e-08
2.5203e-07
2.89375e-08
2.52218e-07
2.74053e-08
2.52384e-07
2.60678e-08
2.5253e-07
2.48875e-08
2.52655e-07
2.38324e-08
2.52759e-07
2.28801e-08
2.52841e-07
2.2014e-08
2.529e-07
2.12216e-08
2.52936e-07
2.04927e-08
2.52947e-07
1.9819e-08
2.52934e-07
1.9194e-08
2.52895e-07
1.8612e-08
2.52831e-07
1.80684e-08
2.52741e-07
1.75592e-08
2.52626e-07
1.7081e-08
2.52485e-07
1.66308e-08
2.52321e-07
1.6206e-08
2.52132e-07
1.58041e-08
2.51921e-07
1.54231e-08
2.51687e-07
1.50608e-08
2.51433e-07
1.47151e-08
2.51159e-07
1.43839e-08
2.50866e-07
1.40652e-08
2.50556e-07
1.37561e-08
2.5023e-07
1.34545e-08
2.4989e-07
1.31563e-08
2.49538e-07
1.28595e-08
2.49174e-07
1.25569e-08
2.48803e-07
1.22471e-08
2.48424e-07
1.19171e-08
2.48041e-07
1.15671e-08
2.47655e-07
1.11744e-08
2.47272e-07
1.07393e-08
2.46891e-07
1.02286e-08
2.46522e-07
9.62871e-09
2.46162e-07
8.91171e-09
2.45821e-07
7.99145e-09
2.45505e-07
6.90888e-09
2.45184e-07
5.37031e-09
2.44893e-07
3.61809e-09
1.21392e-09
2.44494e-07
2.51478e-07
5.27146e-08
2.5455e-07
7.13072e-08
2.55837e-07
5.3833e-08
2.56928e-07
4.58223e-08
2.57641e-07
4.24352e-08
2.58049e-07
3.85006e-08
2.58376e-07
3.49877e-08
2.5867e-07
3.24367e-08
2.58924e-07
3.04405e-08
2.59142e-07
2.87194e-08
2.59335e-07
2.72119e-08
2.59509e-07
2.58934e-08
2.59667e-07
2.47299e-08
2.59809e-07
2.36904e-08
2.59936e-07
2.27528e-08
2.60049e-07
2.19012e-08
2.60148e-07
2.11232e-08
2.60231e-07
2.0409e-08
2.603e-07
1.97505e-08
2.60353e-07
1.91412e-08
2.60389e-07
1.85753e-08
2.60409e-07
1.80483e-08
2.60413e-07
1.7556e-08
2.60399e-07
1.70949e-08
2.60368e-07
1.6662e-08
2.60319e-07
1.62545e-08
2.60253e-07
1.58698e-08
2.60171e-07
1.55058e-08
2.60071e-07
1.51602e-08
2.59956e-07
1.48308e-08
2.59824e-07
1.45153e-08
2.59678e-07
1.42115e-08
2.59518e-07
1.39166e-08
2.59344e-07
1.36283e-08
2.59158e-07
1.33423e-08
2.58961e-07
1.30564e-08
2.58754e-07
1.27635e-08
2.5854e-07
1.24616e-08
2.58318e-07
1.21385e-08
2.58093e-07
1.17925e-08
2.57864e-07
1.14035e-08
2.57636e-07
1.09672e-08
2.57408e-07
1.04563e-08
2.57188e-07
9.84897e-09
2.56974e-07
9.12555e-09
2.5677e-07
8.19564e-09
2.56583e-07
7.0962e-09
2.56378e-07
5.57498e-09
2.5618e-07
3.8155e-09
1.51044e-09
2.55884e-07
2.58751e-07
4.81464e-08
2.61843e-07
6.8215e-08
2.63103e-07
5.25738e-08
2.64183e-07
4.47419e-08
2.64931e-07
4.16868e-08
2.65362e-07
3.80703e-08
2.65695e-07
3.46548e-08
2.65995e-07
3.21366e-08
2.66254e-07
3.01816e-08
2.66475e-07
2.84975e-08
2.66672e-07
2.70156e-08
2.66849e-07
2.57162e-08
2.6701e-07
2.45687e-08
2.67157e-07
2.35432e-08
2.67292e-07
2.2618e-08
2.67415e-07
2.17778e-08
2.67528e-07
2.10107e-08
2.6763e-07
2.0307e-08
2.67722e-07
1.96589e-08
2.67803e-07
1.906e-08
2.67873e-07
1.85047e-08
2.67933e-07
1.79884e-08
2.67982e-07
1.75071e-08
2.6802e-07
1.70572e-08
2.68046e-07
1.66356e-08
2.68061e-07
1.62396e-08
2.68064e-07
1.58665e-08
2.68056e-07
1.5514e-08
2.68037e-07
1.51798e-08
2.68006e-07
1.48617e-08
2.67964e-07
1.45573e-08
2.67911e-07
1.42642e-08
2.67848e-07
1.39794e-08
2.67776e-07
1.37006e-08
2.67695e-07
1.34234e-08
2.67606e-07
1.31454e-08
2.6751e-07
1.28595e-08
2.67408e-07
1.25632e-08
2.67302e-07
1.22451e-08
2.67192e-07
1.19016e-08
2.67081e-07
1.1515e-08
2.66971e-07
1.10773e-08
2.66861e-07
1.05659e-08
2.66757e-07
9.95309e-09
2.66658e-07
9.22462e-09
2.66563e-07
8.29067e-09
2.66478e-07
7.18105e-09
2.66369e-07
5.68416e-09
2.6625e-07
3.93473e-09
1.72129e-09
2.66039e-07
2.66259e-07
4.38798e-08
2.69361e-07
6.5113e-08
2.70602e-07
5.13321e-08
2.71668e-07
4.36763e-08
2.72448e-07
4.09065e-08
2.72903e-07
3.76161e-08
2.73243e-07
3.43144e-08
2.73549e-07
3.18309e-08
2.73813e-07
2.9917e-08
2.7404e-07
2.82713e-08
2.74238e-07
2.68166e-08
2.74418e-07
2.55369e-08
2.74581e-07
2.44056e-08
2.7473e-07
2.3394e-08
2.74867e-07
2.2481e-08
2.74993e-07
2.16514e-08
2.7511e-07
2.08939e-08
2.75218e-07
2.01991e-08
2.75318e-07
1.95594e-08
2.75409e-07
1.89685e-08
2.75493e-07
1.84211e-08
2.75569e-07
1.79126e-08
2.75637e-07
1.7439e-08
2.75697e-07
1.69968e-08
2.7575e-07
1.6583e-08
2.75795e-07
1.61946e-08
2.75832e-07
1.58292e-08
2.75861e-07
1.54844e-08
2.75883e-07
1.51578e-08
2.75898e-07
1.48472e-08
2.75905e-07
1.45499e-08
2.75906e-07
1.42638e-08
2.759e-07
1.39856e-08
2.75887e-07
1.37128e-08
2.7587e-07
1.34412e-08
2.75847e-07
1.31678e-08
2.75821e-07
1.28861e-08
2.75792e-07
1.25925e-08
2.7576e-07
1.22768e-08
2.75728e-07
1.19336e-08
2.75695e-07
1.15475e-08
2.75665e-07
1.11072e-08
2.75637e-07
1.0594e-08
2.75614e-07
9.97637e-09
2.75596e-07
9.24305e-09
2.75578e-07
8.30838e-09
2.75565e-07
7.19352e-09
2.75525e-07
5.72449e-09
2.75463e-07
3.99725e-09
1.86852e-09
2.75315e-07
2.7401e-07
3.99114e-08
2.7711e-07
6.20123e-08
2.78345e-07
5.00977e-08
2.79392e-07
4.26289e-08
2.802e-07
4.00986e-08
2.8068e-07
3.71365e-08
2.81029e-07
3.39652e-08
2.8134e-07
3.15197e-08
2.81611e-07
2.96463e-08
2.81841e-07
2.80406e-08
2.82043e-07
2.66146e-08
2.82225e-07
2.53555e-08
2.8239e-07
2.42409e-08
2.8254e-07
2.32436e-08
2.82678e-07
2.23428e-08
2.82806e-07
2.15239e-08
2.82924e-07
2.07758e-08
2.83033e-07
2.00896e-08
2.83135e-07
1.94577e-08
2.83229e-07
1.88741e-08
2.83317e-07
1.83335e-08
2.83398e-07
1.78316e-08
2.83473e-07
1.73642e-08
2.83541e-07
1.69281e-08
2.83604e-07
1.65201e-08
2.83661e-07
1.61375e-08
2.83713e-07
1.57777e-08
2.83759e-07
1.54383e-08
2.838e-07
1.51169e-08
2.83836e-07
1.48113e-08
2.83867e-07
1.45188e-08
2.83894e-07
1.42371e-08
2.83916e-07
1.39629e-08
2.83935e-07
1.36936e-08
2.83952e-07
1.3425e-08
2.83966e-07
1.31538e-08
2.83978e-07
1.28737e-08
2.8399e-07
1.25807e-08
2.84001e-07
1.22651e-08
2.84015e-07
1.19203e-08
2.84029e-07
1.15327e-08
2.84048e-07
1.10886e-08
2.8407e-07
1.05722e-08
2.84096e-07
9.94983e-09
2.84128e-07
9.21152e-09
2.84158e-07
8.27811e-09
2.8419e-07
7.16187e-09
2.84192e-07
5.72207e-09
2.84164e-07
4.02516e-09
1.97511e-09
2.84058e-07
2.82013e-07
3.62358e-08
2.85101e-07
5.89244e-08
2.86338e-07
4.88609e-08
2.87364e-07
4.16024e-08
2.88195e-07
3.92676e-08
2.88701e-07
3.66303e-08
2.8906e-07
3.36063e-08
2.89377e-07
3.12031e-08
2.89654e-07
2.93694e-08
2.8989e-07
2.78048e-08
2.90095e-07
2.64092e-08
2.90279e-07
2.51717e-08
2.90445e-07
2.40743e-08
2.90597e-07
2.30918e-08
2.90736e-07
2.22037e-08
2.90864e-07
2.13958e-08
2.90983e-07
2.06573e-08
2.91093e-07
1.99796e-08
2.91195e-07
1.93555e-08
2.9129e-07
1.87791e-08
2.91378e-07
1.82451e-08
2.91461e-07
1.77493e-08
2.91537e-07
1.72878e-08
2.91608e-07
1.68572e-08
2.91674e-07
1.64544e-08
2.91735e-07
1.60766e-08
2.91791e-07
1.57214e-08
2.91843e-07
1.53864e-08
2.91891e-07
1.5069e-08
2.91935e-07
1.47672e-08
2.91976e-07
1.44781e-08
2.92013e-07
1.41993e-08
2.92049e-07
1.39277e-08
2.92082e-07
1.36604e-08
2.92114e-07
1.33931e-08
2.92145e-07
1.31226e-08
2.92176e-07
1.28426e-08
2.92208e-07
1.25485e-08
2.92242e-07
1.22315e-08
2.92279e-07
1.18838e-08
2.92318e-07
1.14932e-08
2.92362e-07
1.10446e-08
2.92411e-07
1.05237e-08
2.92463e-07
9.89689e-09
2.92521e-07
9.15372e-09
2.92576e-07
8.22289e-09
2.9263e-07
7.10867e-09
2.92653e-07
5.69843e-09
2.92641e-07
4.03729e-09
2.0609e-09
2.92555e-07
2.90279e-07
3.28458e-08
2.93342e-07
5.58611e-08
2.9459e-07
4.7613e-08
2.95594e-07
4.05987e-08
2.96442e-07
3.84188e-08
2.96976e-07
3.60965e-08
2.97346e-07
3.32362e-08
2.97668e-07
3.08811e-08
2.97951e-07
2.90865e-08
2.98192e-07
2.75638e-08
2.98402e-07
2.62002e-08
2.98588e-07
2.49853e-08
2.98756e-07
2.39058e-08
2.9891e-07
2.29385e-08
2.9905e-07
2.20635e-08
2.99179e-07
2.12668e-08
2.99298e-07
2.05382e-08
2.99408e-07
1.98694e-08
2.9951e-07
1.92533e-08
2.99605e-07
1.86841e-08
2.99694e-07
1.81568e-08
2.99776e-07
1.76672e-08
2.99852e-07
1.72114e-08
2.99923e-07
1.67861e-08
2.99989e-07
1.63883e-08
3.00051e-07
1.60152e-08
3.00108e-07
1.56643e-08
3.00161e-07
1.53332e-08
3.00211e-07
1.50195e-08
3.00257e-07
1.47208e-08
3.00301e-07
1.44345e-08
3.00342e-07
1.41581e-08
3.00381e-07
1.38883e-08
3.00419e-07
1.36221e-08
3.00457e-07
1.33555e-08
3.00495e-07
1.30847e-08
3.00534e-07
1.2804e-08
3.00574e-07
1.2508e-08
3.00617e-07
1.21887e-08
3.00663e-07
1.18374e-08
3.00713e-07
1.14431e-08
3.00768e-07
1.09896e-08
3.00828e-07
1.04639e-08
3.00892e-07
9.83303e-09
3.0096e-07
9.08566e-09
3.01024e-07
8.15864e-09
3.01083e-07
7.04962e-09
3.01113e-07
5.66909e-09
3.01103e-07
4.04741e-09
2.14088e-09
3.01023e-07
2.98816e-07
2.97328e-08
3.01842e-07
5.28343e-08
3.03109e-07
4.63459e-08
3.0409e-07
3.96186e-08
3.04951e-07
3.75577e-08
3.05513e-07
3.55346e-08
3.05895e-07
3.28533e-08
3.06223e-07
3.05536e-08
3.06512e-07
2.87974e-08
3.06759e-07
2.73171e-08
3.06972e-07
2.59872e-08
3.07161e-07
2.47961e-08
3.07332e-07
2.37351e-08
3.07487e-07
2.27835e-08
3.07628e-07
2.1922e-08
3.07758e-07
2.1137e-08
3.07878e-07
2.04186e-08
3.07988e-07
1.97589e-08
3.0809e-07
1.91509e-08
3.08185e-07
1.85892e-08
3.08273e-07
1.80687e-08
3.08355e-07
1.75854e-08
3.08431e-07
1.71355e-08
3.08502e-07
1.67156e-08
3.08567e-07
1.63228e-08
3.08628e-07
1.59544e-08
3.08685e-07
1.56077e-08
3.08737e-07
1.52805e-08
3.08786e-07
1.49702e-08
3.08833e-07
1.46746e-08
3.08876e-07
1.4391e-08
3.08918e-07
1.41166e-08
3.08957e-07
1.38484e-08
3.08996e-07
1.35832e-08
3.09035e-07
1.33168e-08
3.09074e-07
1.30455e-08
3.09115e-07
1.27635e-08
3.09157e-07
1.24654e-08
3.09203e-07
1.21434e-08
3.09252e-07
1.17885e-08
3.09305e-07
1.13902e-08
3.09362e-07
1.0932e-08
3.09425e-07
1.04015e-08
3.0949e-07
9.76739e-09
3.09559e-07
9.01698e-09
3.09622e-07
8.0951e-09
3.09678e-07
6.99444e-09
3.09703e-07
5.64396e-09
3.09686e-07
4.06443e-09
2.22526e-09
3.09601e-07
3.07634e-07
2.6886e-08
3.10612e-07
4.98562e-08
3.11905e-07
4.50531e-08
3.12861e-07
3.86622e-08
3.1373e-07
3.66895e-08
3.14319e-07
3.4945e-08
3.14716e-07
3.24561e-08
3.1505e-07
3.02203e-08
3.15345e-07
2.85022e-08
3.15597e-07
2.70645e-08
3.15815e-07
2.57699e-08
3.16007e-07
2.46038e-08
3.1618e-07
2.3562e-08
3.16337e-07
2.26266e-08
3.1648e-07
2.17791e-08
3.16611e-07
2.10062e-08
3.16731e-07
2.02983e-08
3.16842e-07
1.96479e-08
3.16945e-07
1.90484e-08
3.1704e-07
1.84943e-08
3.17127e-07
1.79809e-08
3.17209e-07
1.7504e-08
3.17284e-07
1.70601e-08
3.17354e-07
1.66458e-08
3.17419e-07
1.62581e-08
3.17479e-07
1.58943e-08
3.17534e-07
1.5552e-08
3.17586e-07
1.52287e-08
3.17634e-07
1.4922e-08
3.1768e-07
1.46295e-08
3.17722e-07
1.43485e-08
3.17762e-07
1.40762e-08
3.17801e-07
1.38095e-08
3.17839e-07
1.35451e-08
3.17877e-07
1.3279e-08
3.17916e-07
1.30071e-08
3.17955e-07
1.27239e-08
3.17997e-07
1.24236e-08
3.18042e-07
1.20989e-08
3.1809e-07
1.17404e-08
3.18142e-07
1.13382e-08
3.18198e-07
1.08759e-08
3.18258e-07
1.03412e-08
3.18321e-07
9.70481e-09
3.18385e-07
8.95295e-09
3.18442e-07
8.03769e-09
3.18488e-07
6.9485e-09
3.18503e-07
5.62874e-09
3.18474e-07
4.09349e-09
2.32027e-09
3.18379e-07
3.16744e-07
2.42936e-08
3.19661e-07
4.69388e-08
3.20985e-07
4.3729e-08
3.21919e-07
3.77282e-08
3.22789e-07
3.58195e-08
3.23405e-07
3.43288e-08
3.23818e-07
3.2043e-08
3.24158e-07
2.98809e-08
3.24459e-07
2.82011e-08
3.24718e-07
2.68057e-08
3.2494e-07
2.55479e-08
3.25135e-07
2.44082e-08
3.25311e-07
2.33863e-08
3.2547e-07
2.24676e-08
3.25615e-07
2.16345e-08
3.25747e-07
2.08741e-08
3.25868e-07
2.01771e-08
3.25979e-07
1.95363e-08
3.26082e-07
1.89455e-08
3.26177e-07
1.83993e-08
3.26265e-07
1.78931e-08
3.26346e-07
1.74229e-08
3.26421e-07
1.69851e-08
3.2649e-07
1.65765e-08
3.26554e-07
1.61941e-08
3.26613e-07
1.58352e-08
3.26668e-07
1.54973e-08
3.26719e-07
1.51781e-08
3.26766e-07
1.4875e-08
3.2681e-07
1.45857e-08
3.26851e-07
1.43073e-08
3.2689e-07
1.40372e-08
3.26927e-07
1.37721e-08
3.26964e-07
1.35086e-08
3.27e-07
1.32428e-08
3.27037e-07
1.29703e-08
3.27075e-07
1.2686e-08
3.27114e-07
1.23838e-08
3.27157e-07
1.20565e-08
3.27202e-07
1.16948e-08
3.27252e-07
1.12891e-08
3.27304e-07
1.08233e-08
3.2736e-07
1.02852e-08
3.27417e-07
9.64772e-09
3.27474e-07
8.89622e-09
3.27522e-07
7.98924e-09
3.27556e-07
6.91449e-09
3.27559e-07
5.62649e-09
3.27515e-07
4.13728e-09
2.42947e-09
3.27406e-07
3.26154e-07
2.1942e-08
3.28999e-07
4.40937e-08
3.30358e-07
4.23701e-08
3.31272e-07
3.68148e-08
3.32139e-07
3.49524e-08
3.3278e-07
3.36875e-08
3.3321e-07
3.16125e-08
3.33557e-07
2.95347e-08
3.33864e-07
2.78941e-08
3.34129e-07
2.65406e-08
3.34356e-07
2.53209e-08
3.34555e-07
2.42089e-08
3.34733e-07
2.32078e-08
3.34895e-07
2.23064e-08
3.35041e-07
2.14882e-08
3.35174e-07
2.07406e-08
3.35297e-07
2.00549e-08
3.35409e-07
1.94241e-08
3.35512e-07
1.88422e-08
3.35608e-07
1.83041e-08
3.35695e-07
1.78053e-08
3.35776e-07
1.7342e-08
3.35851e-07
1.69105e-08
3.3592e-07
1.65078e-08
3.35983e-07
1.61308e-08
3.36041e-07
1.57769e-08
3.36095e-07
1.54436e-08
3.36145e-07
1.51285e-08
3.3619e-07
1.48292e-08
3.36233e-07
1.45431e-08
3.36273e-07
1.42676e-08
3.3631e-07