/*--------------------------------*- C++ -*----------------------------------*\
  =========                 |
  \\      /  F ield         | OpenFOAM: The Open Source CFD Toolbox
   \\    /   O peration     | Website:  https://openfoam.org
    \\  /    A nd           | Version:  7
     \\/     M anipulation  |
\*---------------------------------------------------------------------------*/
FoamFile
{
    version     2.0;
    format      ascii;
    class       volVectorField;
    location    "0.24";
    object      U;
}
// * * * * * * * * * * * * * * * * * * * * * * * * * * * * * * * * * * * * * //

dimensions      [0 1 -1 0 0 0 0];

internalField   nonuniform List<vector> 
70000
(
(0.553391 0.016723 0)
(0.251262 0.00340101 0)
(0.166201 0.000322015 0)
(0.132449 5.42829e-05 0)
(0.117252 4.57292e-05 0)
(0.107319 5.39156e-05 0)
(0.0993592 4.62926e-05 0)
(0.0929055 3.69666e-05 0)
(0.0876448 3.06682e-05 0)
(0.083257 2.63577e-05 0)
(0.0795138 2.30766e-05 0)
(0.0762674 2.04509e-05 0)
(0.0734165 1.8311e-05 0)
(0.0708872 1.65434e-05 0)
(0.0686236 1.50639e-05 0)
(0.0665824 1.38103e-05 0)
(0.0647296 1.2736e-05 0)
(0.0630379 1.18065e-05 0)
(0.0614854 1.09949e-05 0)
(0.0600538 1.02807e-05 0)
(0.0587283 9.64721e-06 0)
(0.0574962 9.08129e-06 0)
(0.0563471 8.57171e-06 0)
(0.0552719 8.10939e-06 0)
(0.054263 7.68583e-06 0)
(0.0533139 7.29469e-06 0)
(0.052419 6.92841e-06 0)
(0.0515736 6.58247e-06 0)
(0.0507735 6.24906e-06 0)
(0.0500155 5.925e-06 0)
(0.0492966 5.60061e-06 0)
(0.0486146 5.27491e-06 0)
(0.0479678 4.93292e-06 0)
(0.0473551 4.57746e-06 0)
(0.0467758 4.18633e-06 0)
(0.0462301 3.76205e-06 0)
(0.0457181 3.28457e-06 0)
(0.0452429 2.72649e-06 0)
(0.0448032 2.12866e-06 0)
(0.0444101 1.30404e-06 0)
(0.0440533 6.02327e-07 0)
(0.0437678 -8.23286e-07 0)
(0.0435095 -1.3958e-06 0)
(0.0433844 -4.38938e-06 0)
(0.0432391 -3.8418e-06 0)
(0.0433907 -1.13691e-05 0)
(0.0433555 -6.15174e-06 0)
(0.0440243 -2.67743e-05 0)
(0.0443369 1.1549e-05 0)
(0.0422184 -0.0017446 0)
(0.884899 0.0431673 0)
(0.649718 0.0201942 0)
(0.494316 0.00659885 0)
(0.403646 0.0027685 0)
(0.354699 0.00155325 0)
(0.323367 0.00113321 0)
(0.299471 0.000912397 0)
(0.28023 0.000748894 0)
(0.264464 0.000626464 0)
(0.251281 0.000536145 0)
(0.240031 0.000467685 0)
(0.230272 0.000413896 0)
(0.221699 0.0003705 0)
(0.21409 0.000334832 0)
(0.207276 0.000305083 0)
(0.201129 0.000279961 0)
(0.195546 0.000258516 0)
(0.190446 0.000240036 0)
(0.185763 0.000223982 0)
(0.181442 0.000209935 0)
(0.177438 0.000197564 0)
(0.173714 0.000186607 0)
(0.170237 0.000176848 0)
(0.166982 0.00016811 0)
(0.163923 0.000160245 0)
(0.161042 0.000153128 0)
(0.158321 0.000146647 0)
(0.155746 0.000140709 0)
(0.153304 0.00013522 0)
(0.150983 0.000130103 0)
(0.148775 0.000125267 0)
(0.146672 0.000120647 0)
(0.144667 0.000116131 0)
(0.142757 0.000111665 0)
(0.140936 0.000107083 0)
(0.139204 0.000102356 0)
(0.13756 9.72132e-05 0)
(0.136009 9.16556e-05 0)
(0.134545 8.52614e-05 0)
(0.133196 7.7988e-05 0)
(0.131931 6.93765e-05 0)
(0.130839 5.88035e-05 0)
(0.1298 4.67701e-05 0)
(0.129088 2.9499e-05 0)
(0.128297 1.3264e-05 0)
(0.128243 -1.98401e-05 0)
(0.127673 -3.48523e-05 0)
(0.128833 -0.000142309 0)
(0.128941 6.87273e-05 0)
(0.128049 -0.00315724 0)
(0.991238 0.0499013 0)
(0.890351 0.0307193 0)
(0.762681 0.0145993 0)
(0.656653 0.00798231 0)
(0.585297 0.0048886 0)
(0.535851 0.00347598 0)
(0.497929 0.0027417 0)
(0.46724 0.00225068 0)
(0.44184 0.00188888 0)
(0.420429 0.00161864 0)
(0.402061 0.00141256 0)
(0.386068 0.00125063 0)
(0.371976 0.00112007 0)
(0.359436 0.00101277 0)
(0.348183 0.000923266 0)
(0.338012 0.000847659 0)
(0.32876 0.000783107 0)
(0.320297 0.000727483 0)
(0.312515 0.000679166 0)
(0.305327 0.000636902 0)
(0.29866 0.000599705 0)
(0.292453 0.000566784 0)
(0.286653 0.0005375 0)
(0.281217 0.000511327 0)
(0.276106 0.000487826 0)
(0.271286 0.00046663 0)
(0.266731 0.000447418 0)
(0.262414 0.000429913 0)
(0.258315 0.000413861 0)
(0.254415 0.000399036 0)
(0.250698 0.000385201 0)
(0.24715 0.000372164 0)
(0.24376 0.000359648 0)
(0.240519 0.000347495 0)
(0.237418 0.000335294 0)
(0.234455 0.000322966 0)
(0.231624 0.000309789 0)
(0.228932 0.000295894 0)
(0.226367 0.0002799 0)
(0.223967 0.000262399 0)
(0.221685 0.00024081 0)
(0.219646 0.000216379 0)
(0.217673 0.000184982 0)
(0.21616 0.000147257 0)
(0.214514 0.000100416 0)
(0.213898 3.26052e-05 0)
(0.21253 -2.4867e-05 0)
(0.213551 -0.000244717 0)
(0.212867 -3.20968e-05 0)
(0.214079 -0.00350977 0)
(1.0156 0.0489202 0)
(1.00596 0.0358756 0)
(0.935952 0.0207943 0)
(0.852107 0.013509 0)
(0.782136 0.00921456 0)
(0.726892 0.00679009 0)
(0.681747 0.00539469 0)
(0.643909 0.00445809 0)
(0.611789 0.00376708 0)
(0.584197 0.00324406 0)
(0.560199 0.00284058 0)
(0.539086 0.00252141 0)
(0.520331 0.00226299 0)
(0.503532 0.00204988 0)
(0.488376 0.00187158 0)
(0.474614 0.00172057 0)
(0.462048 0.00159137 0)
(0.450514 0.00147983 0)
(0.439879 0.0013828 0)
(0.430032 0.00129781 0)
(0.420878 0.00122294 0)
(0.412339 0.00115663 0)
(0.404347 0.00109762 0)
(0.396844 0.00104487 0)
(0.389779 0.000997533 0)
(0.383109 0.000954875 0)
(0.376797 0.000916277 0)
(0.370808 0.000881198 0)
(0.365115 0.000849152 0)
(0.359691 0.000819704 0)
(0.354514 0.000792416 0)
(0.349565 0.000766919 0)
(0.344829 0.000742719 0)
(0.34029 0.000719511 0)
(0.335939 0.000696575 0)
(0.331766 0.000673768 0)
(0.327765 0.000649771 0)
(0.323941 0.000624946 0)
(0.320277 0.000596545 0)
(0.316815 0.000566296 0)
(0.313497 0.000528279 0)
(0.310468 0.000487383 0)
(0.307518 0.000431209 0)
(0.305102 0.000370409 0)
(0.302533 0.000282527 0)
(0.301143 0.000177361 0)
(0.298907 5.48573e-05 0)
(0.299347 -0.000266152 0)
(0.297745 -0.000169053 0)
(0.299698 -0.00348153 0)
(1.01434 0.0460035 0)
(1.04753 0.0374892 0)
(1.02458 0.0241549 0)
(0.974749 0.0175656 0)
(0.923411 0.0131318 0)
(0.876597 0.0102188 0)
(0.834376 0.00835878 0)
(0.796549 0.00704166 0)
(0.762885 0.00603611 0)
(0.732944 0.00525304 0)
(0.706213 0.00463551 0)
(0.68222 0.00413925 0)
(0.660568 0.00373276 0)
(0.640925 0.00339449 0)
(0.623016 0.00310935 0)
(0.606612 0.00286637 0)
(0.591522 0.00265738 0)
(0.577583 0.00247616 0)
(0.564662 0.00231791 0)
(0.55264 0.00217884 0)
(0.541419 0.00205598 0)
(0.530914 0.0019469 0)
(0.52105 0.00184963 0)
(0.511763 0.00176255 0)
(0.502996 0.0016843 0)
(0.494701 0.00161373 0)
(0.486835 0.00154987 0)
(0.479357 0.00149186 0)
(0.472236 0.00143894 0)
(0.465441 0.00139043 0)
(0.458945 0.00134565 0)
(0.452726 0.00130402 0)
(0.446763 0.00126481 0)
(0.441039 0.00122753 0)
(0.43554 0.00119111 0)
(0.430256 0.00115534 0)
(0.425175 0.00111822 0)
(0.4203 0.00108039 0)
(0.415614 0.00103752 0)
(0.411155 0.00099272 0)
(0.406864 0.000936109 0)
(0.402887 0.000877056 0)
(0.399011 0.000793216 0)
(0.395692 0.000707546 0)
(0.392244 0.000574239 0)
(0.389992 0.000429085 0)
(0.386957 0.000232657 0)
(0.386531 -0.000181857 0)
(0.384235 -0.000252373 0)
(0.385592 -0.00336223 0)
(1.00933 0.0429148 0)
(1.05528 0.0372644 0)
(1.05869 0.0252994 0)
(1.03637 0.0197663 0)
(1.00708 0.0158231 0)
(0.976001 0.012952 0)
(0.944425 0.010981 0)
(0.913488 0.00950458 0)
(0.884039 0.00832036 0)
(0.856462 0.00735904 0)
(0.830834 0.00657563 0)
(0.807092 0.00592991 0)
(0.785113 0.00539037 0)
(0.764756 0.00493416 0)
(0.745874 0.00454454 0)
(0.728328 0.00420889 0)
(0.711989 0.00391753 0)
(0.696739 0.00366288 0)
(0.682472 0.00343899 0)
(0.669094 0.0032411 0)
(0.656522 0.00306536 0)
(0.644679 0.00290864 0)
(0.6335 0.00276833 0)
(0.622925 0.00264229 0)
(0.6129 0.0025287 0)
(0.603379 0.00242602 0)
(0.594318 0.00233292 0)
(0.585679 0.00224824 0)
(0.577429 0.00217095 0)
(0.569536 0.00210011 0)
(0.561974 0.00203482 0)
(0.554717 0.00197427 0)
(0.547746 0.00191747 0)
(0.541039 0.00186377 0)
(0.534584 0.00181173 0)
(0.528366 0.00176105 0)
(0.522373 0.00170905 0)
(0.516607 0.00165662 0)
(0.51105 0.00159784 0)
(0.505735 0.00153713 0)
(0.500608 0.00146071 0)
(0.495802 0.00138218 0)
(0.491123 0.00126967 0)
(0.486989 0.00115717 0)
(0.482785 0.000978281 0)
(0.479693 0.000788439 0)
(0.476006 0.000519797 0)
(0.474606 4.6896e-06 0)
(0.471848 -0.00023343 0)
(0.472103 -0.00315772 0)
(1.00625 0.0400333 0)
(1.05206 0.0363368 0)
(1.06609 0.0252285 0)
(1.0596 0.0205665 0)
(1.04687 0.0172511 0)
(1.03077 0.0146744 0)
(1.01184 0.0128446 0)
(0.991098 0.0114269 0)
(0.969611 0.0102383 0)
(0.948105 0.00923107 0)
(0.927022 0.00837959 0)
(0.906623 0.00765585 0)
(0.887053 0.0070353 0)
(0.868382 0.00649902 0)
(0.850627 0.00603249 0)
(0.833777 0.00562423 0)
(0.817801 0.00526504 0)
(0.802655 0.00494745 0)
(0.788293 0.00466539 0)
(0.774667 0.00441387 0)
(0.761727 0.00418877 0)
(0.749426 0.00398664 0)
(0.737719 0.00380459 0)
(0.726563 0.00364016 0)
(0.715919 0.00349127 0)
(0.70575 0.00335611 0)
(0.696023 0.00323312 0)
(0.686704 0.00312092 0)
(0.677767 0.00301827 0)
(0.669183 0.00292402 0)
(0.66093 0.00283709 0)
(0.652984 0.00275648 0)
(0.645327 0.00268099 0)
(0.637942 0.00260977 0)
(0.630812 0.00254109 0)
(0.623927 0.00247454 0)
(0.617276 0.0024068 0)
(0.610856 0.00233892 0)
(0.604653 0.0022636 0)
(0.598696 0.00218621 0)
(0.592938 0.00208969 0)
(0.587493 0.00199073 0)
(0.582202 0.00184999 0)
(0.577415 0.00170861 0)
(0.572635 0.00148671 0)
(0.568823 0.00124677 0)
(0.564658 0.000911997 0)
(0.562355 0.000290341 0)
(0.559258 -0.000107692 0)
(0.558452 -0.00285052 0)
(1.00495 0.0373553 0)
(1.04727 0.0352545 0)
(1.06398 0.0246884 0)
(1.06426 0.0205929 0)
(1.06068 0.0177895 0)
(1.05474 0.0155186 0)
(1.04596 0.0139049 0)
(1.03474 0.0126535 0)
(1.02177 0.0115776 0)
(1.00766 0.0106355 0)
(0.992878 0.00981392 0)
(0.977762 0.00909518 0)
(0.962579 0.00846242 0)
(0.947521 0.00790239 0)
(0.932724 0.00740474 0)
(0.918279 0.00696099 0)
(0.904244 0.00656404 0)
(0.890654 0.00620788 0)
(0.877525 0.00588744 0)
(0.864864 0.00559838 0)
(0.852664 0.00533702 0)
(0.840917 0.00510016 0)
(0.829607 0.00488507 0)
(0.818719 0.00468936 0)
(0.808233 0.00451097 0)
(0.798132 0.00434808 0)
(0.788395 0.00419906 0)
(0.779004 0.00406247 0)
(0.769941 0.003937 0)
(0.761187 0.00382141 0)
(0.752727 0.0037145 0)
(0.744544 0.00361516 0)
(0.736624 0.00352206 0)
(0.728953 0.00343421 0)
(0.721522 0.00334961 0)
(0.71432 0.00326776 0)
(0.707339 0.00318482 0)
(0.700579 0.0031019 0)
(0.694028 0.00301058 0)
(0.687709 0.00291674 0)
(0.68159 0.00280091 0)
(0.67576 0.00268133 0)
(0.670102 0.00251409 0)
(0.664889 0.0023424 0)
(0.659756 0.00208147 0)
(0.655431 0.00178787 0)
(0.650968 0.0013921 0)
(0.647966 0.000670739 0)
(0.644614 0.000117381 0)
(0.64296 -0.00245048 0)
(1.0044 0.0348072 0)
(1.04324 0.0341812 0)
(1.05994 0.0240472 0)
(1.06229 0.0202989 0)
(1.0625 0.0178536 0)
(1.0618 0.0158005 0)
(1.05922 0.014361 0)
(1.05466 0.0132762 0)
(1.04841 0.012344 0)
(1.04079 0.0115159 0)
(1.03207 0.0107807 0)
(1.02252 0.010125 0)
(1.01236 0.00953591 0)
(1.00178 0.00900371 0)
(0.990936 0.00852136 0)
(0.979969 0.00808322 0)
(0.968977 0.00768451 0)
(0.95804 0.00732112 0)
(0.947217 0.00698944 0)
(0.936554 0.00668632 0)
(0.926084 0.00640896 0)
(0.91583 0.00615488 0)
(0.905806 0.00592187 0)
(0.896022 0.00570797 0)
(0.886483 0.00551139 0)
(0.877188 0.00533056 0)
(0.868138 0.00516402 0)
(0.859327 0.00501043 0)
(0.850751 0.00486856 0)
(0.842404 0.00473722 0)
(0.834278 0.00461521 0)
(0.826368 0.00450141 0)
(0.818667 0.00439442 0)
(0.811167 0.00429321 0)
(0.803864 0.00419561 0)
(0.796752 0.00410103 0)
(0.789829 0.00400526 0)
(0.783096 0.00390934 0)
(0.776546 0.00380408 0)
(0.770201 0.0036954 0)
(0.764038 0.00356244 0)
(0.758128 0.00342329 0)
(0.752391 0.00323246 0)
(0.747032 0.00303059 0)
(0.7418 0.00273522 0)
(0.737224 0.00238766 0)
(0.732667 0.00193543 0)
(0.729232 0.00112568 0)
(0.72574 0.000424879 0)
(0.723485 -0.00198092 0)
(1.00402 0.032367 0)
(1.03991 0.0331309 0)
(1.05617 0.0234238 0)
(1.05893 0.0199106 0)
(1.06023 0.0177232 0)
(1.06158 0.0158051 0)
(1.06195 0.0144673 0)
(1.06104 0.0134981 0)
(1.05896 0.012683 0)
(1.05581 0.0119619 0)
(1.05167 0.0113213 0)
(1.04667 0.0107475 0)
(1.04091 0.0102273 0)
(1.03453 0.0097518 0)
(1.02764 0.00931507 0)
(1.02035 0.00891281 0)
(1.01275 0.00854158 0)
(1.00492 0.00819857 0)
(0.996947 0.00788136 0)
(0.988875 0.00758783 0)
(0.980758 0.00731607 0)
(0.972637 0.00706439 0)
(0.964543 0.00683122 0)
(0.956504 0.00661513 0)
(0.948541 0.0064148 0)
(0.94067 0.00622901 0)
(0.932903 0.00605661 0)
(0.925251 0.00589651 0)
(0.91772 0.00574766 0)
(0.910315 0.00560902 0)
(0.90304 0.00547951 0)
(0.895896 0.0053581 0)
(0.888886 0.00524338 0)
(0.88201 0.00513436 0)
(0.87527 0.00502879 0)
(0.868666 0.00492602 0)
(0.862199 0.00482162 0)
(0.855876 0.00471647 0)
(0.849695 0.00460096 0)
(0.843675 0.0044806 0)
(0.837806 0.00433406 0)
(0.832142 0.00417796 0)
(0.826634 0.00396762 0)
(0.821433 0.00373765 0)
(0.816378 0.00341298 0)
(0.811839 0.00301464 0)
(0.807412 0.00251057 0)
(0.80383 0.00162649 0)
(0.800353 0.000791372 0)
(0.797755 -0.00146867 0)
(1.00364 0.0300265 0)
(1.03692 0.0320831 0)
(1.05282 0.0228339 0)
(1.05569 0.0195051 0)
(1.05714 0.0175311 0)
(1.05903 0.0157051 0)
(1.06048 0.014415 0)
(1.06116 0.0135093 0)
(1.06115 0.0127685 0)
(1.06048 0.0121226 0)
(1.05915 0.0115554 0)
(1.05716 0.0110519 0)
(1.05455 0.0105975 0)
(1.05137 0.0101823 0)
(1.04767 0.00979968 0)
(1.04351 0.00944529 0)
(1.03895 0.00911592 0)
(1.03404 0.00880907 0)
(1.02885 0.0085228 0)
(1.02342 0.00825549 0)
(1.01779 0.00800576 0)
(1.01201 0.0077724 0)
(1.00611 0.00755433 0)
(1.00012 0.00735054 0)
(0.994063 0.00716011 0)
(0.987972 0.00698216 0)
(0.981863 0.00681584 0)
(0.975752 0.00666033 0)
(0.969654 0.0065148 0)
(0.963582 0.00637841 0)
(0.957546 0.00625021 0)
(0.951555 0.0061293 0)
(0.945617 0.00601435 0)
(0.939739 0.00590443 0)
(0.933928 0.00579726 0)
(0.928189 0.00569218 0)
(0.922529 0.00558464 0)
(0.916956 0.00547532 0)
(0.911476 0.00535447 0)
(0.906106 0.00522685 0)
(0.900843 0.00507144 0)
(0.895732 0.00490238 0)
(0.890746 0.00467754 0)
(0.885994 0.00442343 0)
(0.881381 0.00407514 0)
(0.877159 0.00363213 0)
(0.873089 0.00308184 0)
(0.869635 0.00213949 0)
(0.86635 0.00118894 0)
(0.863663 -0.000943142 0)
(1.00327 0.0277867 0)
(1.03409 0.0310242 0)
(1.04971 0.0222703 0)
(1.05273 0.0190976 0)
(1.05414 0.0173201 0)
(1.05609 0.0155759 0)
(1.0578 0.014308 0)
(1.05902 0.0134329 0)
(1.05982 0.0127331 0)
(1.06027 0.0121312 0)
(1.06033 0.0116098 0)
(1.06 0.0111537 0)
(1.05925 0.0107475 0)
(1.0581 0.01038 0)
(1.05655 0.0100436 0)
(1.05462 0.00973326 0)
(1.05233 0.00944534 0)
(1.04971 0.00917705 0)
(1.04679 0.00892631 0)
(1.0436 0.00869148 0)
(1.04017 0.00847126 0)
(1.03652 0.00826456 0)
(1.03268 0.00807047 0)
(1.02867 0.00788817 0)
(1.02452 0.00771693 0)
(1.02026 0.00755608 0)
(1.01589 0.00740497 0)
(1.01144 0.00726293 0)
(1.00692 0.00712932 0)
(1.00235 0.00700342 0)
(0.997745 0.00688442 0)
(0.993111 0.00677151 0)
(0.988461 0.00666345 0)
(0.983806 0.00655935 0)
(0.979155 0.00645696 0)
(0.974518 0.00635557 0)
(0.969904 0.00625062 0)
(0.965324 0.00614251 0)
(0.960786 0.00602158 0)
(0.956307 0.00589163 0)
(0.95189 0.00573249 0)
(0.947571 0.00555517 0)
(0.943339 0.0053213 0)
(0.939273 0.00504823 0)
(0.935322 0.00468233 0)
(0.931652 0.00420283 0)
(0.928135 0.00361296 0)
(0.925046 0.00262986 0)
(0.922123 0.00158595 0)
(0.919572 -0.000437151 0)
(1.00292 0.0256508 0)
(1.03138 0.0299495 0)
(1.04671 0.0217289 0)
(1.04994 0.018688 0)
(1.05132 0.017097 0)
(1.05324 0.0154396 0)
(1.05498 0.0141874 0)
(1.05631 0.0133282 0)
(1.05735 0.0126517 0)
(1.05819 0.012074 0)
(1.05882 0.0115777 0)
(1.05923 0.0111488 0)
(1.0594 0.010772 0)
(1.05932 0.0104354 0)
(1.05899 0.0101309 0)
(1.0584 0.00985293 0)
(1.05756 0.00959728 0)
(1.05647 0.00936076 0)
(1.05514 0.00914094 0)
(1.05357 0.00893591 0)
(1.05179 0.0087442 0)
(1.0498 0.00856459 0)
(1.04761 0.00839608 0)
(1.04526 0.00823784 0)
(1.04273 0.00808914 0)
(1.04006 0.00794933 0)
(1.03726 0.0078178 0)
(1.03434 0.00769396 0)
(1.03131 0.0075772 0)
(1.02818 0.00746687 0)
(1.02498 0.00736219 0)
(1.0217 0.00726242 0)
(1.01836 0.00716632 0)
(1.01497 0.00707303 0)
(1.01154 0.0069803 0)
(1.00808 0.00688736 0)
(1.0046 0.00678966 0)
(1.00112 0.00668728 0)
(0.997633 0.00657079 0)
(0.994165 0.00644291 0)
(0.99072 0.00628465 0)
(0.987328 0.00610361 0)
(0.983986 0.00586578 0)
(0.98075 0.00557924 0)
(0.9776 0.00520144 0)
(0.974638 0.00469444 0)
(0.971806 0.00407248 0)
(0.969251 0.00306566 0)
(0.96682 0.00195036 0)
(0.964582 3.04771e-05 0)
(1.0026 0.0236216 0)
(1.0288 0.0288579 0)
(1.04379 0.0212083 0)
(1.04725 0.0182764 0)
(1.04864 0.0168604 0)
(1.05052 0.0152987 0)
(1.05226 0.0140641 0)
(1.05359 0.0132161 0)
(1.05467 0.0125563 0)
(1.0556 0.011994 0)
(1.0564 0.0115117 0)
(1.05708 0.0110975 0)
(1.05762 0.0107368 0)
(1.05802 0.0104179 0)
(1.05827 0.0101324 0)
(1.05836 0.00987459 0)
(1.0583 0.00964007 0)
(1.05808 0.00942537 0)
(1.0577 0.0092278 0)
(1.05715 0.00904523 0)
(1.05644 0.00887594 0)
(1.05556 0.00871854 0)
(1.05454 0.00857187 0)
(1.05337 0.00843496 0)
(1.05205 0.00830698 0)
(1.0506 0.00818719 0)
(1.04902 0.00807494 0)
(1.04732 0.00796959 0)
(1.04551 0.00787049 0)
(1.0436 0.00777697 0)
(1.04159 0.00768821 0)
(1.03949 0.00760346 0)
(1.03731 0.00752144 0)
(1.03507 0.00744126 0)
(1.03276 0.00736062 0)
(1.03041 0.00727866 0)
(1.028 0.00719085 0)
(1.02557 0.0070969 0)
(1.02311 0.00698774 0)
(1.02064 0.00686483 0)
(1.01817 0.0067107 0)
(1.01572 0.00652936 0)
(1.01329 0.00629142 0)
(1.01092 0.00599625 0)
(1.0086 0.00561124 0)
(1.00641 0.00508534 0)
(1.00431 0.00443894 0)
(1.00237 0.00342275 0)
(1.0005 0.0022592 0)
(0.998682 0.000437799 0)
(1.0023 0.0217009 0)
(1.02634 0.0277501 0)
(1.04096 0.0207071 0)
(1.04464 0.0178641 0)
(1.04605 0.016609 0)
(1.0479 0.0151518 0)
(1.04964 0.0139395 0)
(1.05097 0.0131017 0)
(1.05204 0.0124569 0)
(1.05297 0.0119074 0)
(1.0538 0.0114349 0)
(1.05455 0.0110297 0)
(1.0552 0.0106782 0)
(1.05576 0.0103691 0)
(1.05624 0.0100942 0)
(1.05663 0.00984784 0)
(1.05693 0.00962566 0)
(1.05713 0.00942414 0)
(1.05723 0.00924052 0)
(1.05722 0.00907256 0)
(1.05711 0.00891841 0)
(1.0569 0.00877655 0)
(1.05658 0.00864571 0)
(1.05615 0.00852479 0)
(1.05561 0.00841284 0)
(1.05498 0.00830904 0)
(1.05424 0.00821263 0)
(1.0534 0.00812289 0)
(1.05247 0.0080391 0)
(1.05145 0.00796051 0)
(1.05035 0.00788624 0)
(1.04916 0.00781545 0)
(1.0479 0.0077468 0)
(1.04657 0.00767931 0)
(1.04518 0.00761064 0)
(1.04373 0.00753976 0)
(1.04223 0.0074622 0)
(1.04069 0.00737722 0)
(1.03912 0.00727619 0)
(1.03753 0.00715928 0)
(1.03592 0.00701065 0)
(1.03431 0.00683084 0)
(1.03271 0.00659489 0)
(1.03114 0.00629458 0)
(1.02961 0.0059055 0)
(1.02814 0.00536793 0)
(1.02673 0.00470381 0)
(1.0254 0.00368988 0)
(1.02409 0.00250022 0)
(1.02272 0.000762816 0)
(1.00203 0.0198894 0)
(1.02402 0.0266292 0)
(1.03822 0.020222 0)
(1.04212 0.017453 0)
(1.04356 0.0163429 0)
(1.04537 0.0149974 0)
(1.04711 0.0138128 0)
(1.04844 0.0129854 0)
(1.04949 0.0123554 0)
(1.05042 0.0118187 0)
(1.05124 0.0113551 0)
(1.05199 0.0109569 0)
(1.05266 0.0106119 0)
(1.05326 0.0103091 0)
(1.05381 0.0100406 0)
(1.0543 0.0098009 0)
(1.05472 0.00958577 0)
(1.05509 0.00939181 0)
(1.0554 0.0092163 0)
(1.05565 0.009057 0)
(1.05583 0.00891206 0)
(1.05595 0.00877993 0)
(1.05599 0.00865926 0)
(1.05597 0.0085489 0)
(1.05588 0.00844784 0)
(1.05572 0.00835518 0)
(1.05549 0.00827008 0)
(1.05519 0.00819177 0)
(1.05482 0.00811943 0)
(1.05438 0.00805227 0)
(1.05388 0.00798929 0)
(1.05332 0.0079296 0)
(1.0527 0.00787175 0)
(1.05202 0.00781468 0)
(1.05129 0.00775596 0)
(1.05051 0.0076944 0)
(1.04969 0.00762558 0)
(1.04884 0.0075483 0)
(1.04795 0.00745442 0)
(1.04705 0.00734282 0)
(1.04612 0.0071993 0)
(1.04519 0.0070212 0)
(1.04427 0.0067876 0)
(1.04335 0.00648407 0)
(1.04247 0.00609242 0)
(1.04161 0.00554844 0)
(1.0408 0.00487212 0)
(1.04001 0.00386886 0)
(1.03918 0.00266976 0)
(1.03823 0.00100862 0)
(1.00179 0.0181874 0)
(1.02184 0.0254992 0)
(1.03559 0.0197493 0)
(1.03968 0.0170451 0)
(1.04115 0.0160627 0)
(1.04293 0.0148347 0)
(1.04467 0.0136836 0)
(1.046 0.0128669 0)
(1.04705 0.0122518 0)
(1.04795 0.0117285 0)
(1.04877 0.011274 0)
(1.0495 0.0108826 0)
(1.05016 0.0105434 0)
(1.05077 0.0102457 0)
(1.05132 0.00998201 0)
(1.05183 0.00974689 0)
(1.05229 0.00953631 0)
(1.05271 0.00934702 0)
(1.05309 0.00917638 0)
(1.05343 0.00902222 0)
(1.05373 0.00888274 0)
(1.05399 0.00875639 0)
(1.0542 0.00864186 0)
(1.05437 0.00853796 0)
(1.0545 0.00844367 0)
(1.05458 0.00835807 0)
(1.05462 0.00828027 0)
(1.05461 0.00820945 0)
(1.05455 0.00814476 0)
(1.05445 0.00808534 0)
(1.05431 0.00803013 0)
(1.05412 0.00797816 0)
(1.0539 0.00792792 0)
(1.05363 0.00787823 0)
(1.05333 0.00782662 0)
(1.05299 0.00777169 0)
(1.05263 0.00770913 0)
(1.05224 0.00763726 0)
(1.05183 0.00754846 0)
(1.0514 0.00744037 0)
(1.05097 0.00730038 0)
(1.05053 0.00712302 0)
(1.0501 0.0068908 0)
(1.04967 0.00658466 0)
(1.04927 0.00619065 0)
(1.04888 0.00564363 0)
(1.04851 0.00495929 0)
(1.04813 0.00397178 0)
(1.04768 0.00277627 0)
(1.04707 0.00118474 0)
(1.00157 0.0165946 0)
(1.01979 0.0243638 0)
(1.03305 0.0192849 0)
(1.03733 0.016642 0)
(1.03884 0.0157698 0)
(1.04058 0.014663 0)
(1.04231 0.0135515 0)
(1.04365 0.0127463 0)
(1.04469 0.012146 0)
(1.04558 0.0116367 0)
(1.04638 0.0111919 0)
(1.0471 0.0108074 0)
(1.04775 0.0104739 0)
(1.04835 0.0101813 0)
(1.04889 0.00992196 0)
(1.04939 0.00969077 0)
(1.04986 0.00948383 0)
(1.05028 0.00929803 0)
(1.05068 0.00913083 0)
(1.05104 0.00898014 0)
(1.05138 0.00884419 0)
(1.05168 0.00872151 0)
(1.05196 0.00861079 0)
(1.0522 0.00851087 0)
(1.05242 0.00842073 0)
(1.0526 0.00833945 0)
(1.05276 0.00826613 0)
(1.05289 0.00819993 0)
(1.05299 0.00813998 0)
(1.05306 0.00808537 0)
(1.0531 0.00803501 0)
(1.05311 0.00798787 0)
(1.0531 0.00794237 0)
(1.05307 0.00789724 0)
(1.05301 0.00784999 0)
(1.05293 0.00779902 0)
(1.05284 0.00774014 0)
(1.05273 0.0076712 0)
(1.05262 0.00758512 0)
(1.05249 0.00747842 0)
(1.05237 0.0073399 0)
(1.05225 0.00716181 0)
(1.05214 0.00692938 0)
(1.05203 0.00662045 0)
(1.05195 0.00622353 0)
(1.05188 0.0056754 0)
(1.05181 0.00498615 0)
(1.05171 0.004017 0)
(1.05152 0.00283461 0)
(1.05115 0.00130686 0)
(1.00137 0.01511 0)
(1.01788 0.0232272 0)
(1.03062 0.0188249 0)
(1.03507 0.0162452 0)
(1.03662 0.0154656 0)
(1.03833 0.0144816 0)
(1.04004 0.0134163 0)
(1.04138 0.0126234 0)
(1.04242 0.0120377 0)
(1.0433 0.0115431 0)
(1.04409 0.0111085 0)
(1.0448 0.0107313 0)
(1.04544 0.0104038 0)
(1.04602 0.0101163 0)
(1.04655 0.00986137 0)
(1.04704 0.00963402 0)
(1.0475 0.00943053 0)
(1.04792 0.00924789 0)
(1.04831 0.00908365 0)
(1.04867 0.00893579 0)
(1.04901 0.0088026 0)
(1.04932 0.00868265 0)
(1.04961 0.00857465 0)
(1.04987 0.00847748 0)
(1.05011 0.00839012 0)
(1.05034 0.00831166 0)
(1.05054 0.0082412 0)
(1.05072 0.00817791 0)
(1.05088 0.00812087 0)
(1.05102 0.00806918 0)
(1.05115 0.00802171 0)
(1.05125 0.00797737 0)
(1.05134 0.00793455 0)
(1.05142 0.00789188 0)
(1.05149 0.00784689 0)
(1.05154 0.00779776 0)
(1.05159 0.00774047 0)
(1.05163 0.0076724 0)
(1.05168 0.007587 0)
(1.05172 0.00747983 0)
(1.05177 0.00734089 0)
(1.05183 0.00716068 0)
(1.05191 0.00692645 0)
(1.05199 0.00661428 0)
(1.0521 0.00621381 0)
(1.05221 0.00566562 0)
(1.05232 0.00497387 0)
(1.05238 0.00402424 0)
(1.05235 0.00286127 0)
(1.05212 0.00139292 0)
(1.0012 0.013732 0)
(1.01611 0.0220935 0)
(1.0283 0.0183656 0)
(1.03289 0.0158559 0)
(1.0345 0.0151518 0)
(1.03616 0.01429 0)
(1.03786 0.0132774 0)
(1.03921 0.0124984 0)
(1.04024 0.011927 0)
(1.04112 0.0114474 0)
(1.04189 0.0110239 0)
(1.04259 0.0106543 0)
(1.04322 0.010333 0)
(1.04379 0.0100508 0)
(1.04431 0.00980037 0)
(1.04478 0.00957697 0)
(1.04523 0.00937696 0)
(1.04564 0.00919746 0)
(1.04602 0.00903611 0)
(1.04637 0.00889092 0)
(1.0467 0.00876027 0)
(1.04701 0.00864274 0)
(1.04729 0.00853707 0)
(1.04756 0.00844216 0)
(1.0478 0.00835701 0)
(1.04803 0.00828069 0)
(1.04824 0.00821233 0)
(1.04843 0.00815108 0)
(1.04861 0.00809602 0)
(1.04878 0.00804623 0)
(1.04893 0.00800054 0)
(1.04907 0.00795783 0)
(1.0492 0.00791646 0)
(1.04932 0.00787496 0)
(1.04944 0.00783088 0)
(1.04955 0.00778221 0)
(1.04966 0.00772509 0)
(1.04978 0.0076565 0)
(1.0499 0.00757035 0)
(1.05002 0.0074614 0)
(1.05016 0.00732064 0)
(1.05031 0.00713734 0)
(1.05047 0.00690011 0)
(1.05065 0.00658444 0)
(1.05085 0.00618007 0)
(1.05105 0.00563253 0)
(1.05124 0.00494048 0)
(1.05138 0.00401067 0)
(1.05141 0.00287148 0)
(1.05126 0.00145832 0)
(1.00104 0.0124585 0)
(1.01447 0.0209669 0)
(1.02609 0.0179036 0)
(1.0308 0.0154749 0)
(1.03247 0.0148303 0)
(1.03409 0.0140878 0)
(1.03578 0.0131343 0)
(1.03713 0.0123713 0)
(1.03816 0.0118138 0)
(1.03902 0.0113497 0)
(1.03979 0.0109378 0)
(1.04047 0.0105763 0)
(1.04109 0.0102614 0)
(1.04165 0.00998459 0)
(1.04216 0.00973893 0)
(1.04262 0.00951961 0)
(1.04305 0.0093232 0)
(1.04345 0.00914693 0)
(1.04382 0.00898851 0)
(1.04417 0.00884604 0)
(1.04449 0.00871791 0)
(1.04478 0.00860275 0)
(1.04506 0.00849933 0)
(1.04531 0.00840655 0)
(1.04555 0.00832342 0)
(1.04578 0.00824903 0)
(1.04598 0.00818249 0)
(1.04617 0.00812294 0)
(1.04635 0.00806947 0)
(1.04652 0.00802112 0)
(1.04668 0.00797671 0)
(1.04682 0.00793506 0)
(1.04696 0.00789452 0)
(1.0471 0.00785352 0)
(1.04723 0.00780963 0)
(1.04736 0.00776068 0)
(1.04749 0.00770293 0)
(1.04763 0.00763304 0)
(1.04778 0.00754529 0)
(1.04793 0.00743386 0)
(1.0481 0.00729046 0)
(1.04828 0.0071036 0)
(1.04848 0.00686275 0)
(1.04869 0.00654361 0)
(1.04892 0.00613547 0)
(1.04915 0.0055893 0)
(1.04936 0.00489911 0)
(1.04952 0.00398924 0)
(1.04957 0.00287683 0)
(1.04943 0.00151557 0)
(1.0009 0.0112864 0)
(1.01296 0.0198517 0)
(1.02399 0.0174357 0)
(1.0288 0.0151026 0)
(1.03053 0.0145032 0)
(1.03211 0.0138747 0)
(1.03378 0.0129864 0)
(1.03513 0.0122421 0)
(1.03616 0.0116981 0)
(1.03701 0.0112496 0)
(1.03777 0.01085 0)
(1.03845 0.0104971 0)
(1.03905 0.0101888 0)
(1.0396 0.00991772 0)
(1.0401 0.00967696 0)
(1.04056 0.00946189 0)
(1.04098 0.0092692 0)
(1.04137 0.00909627 0)
(1.04173 0.00894088 0)
(1.04206 0.0088012 0)
(1.04237 0.00867567 0)
(1.04265 0.00856293 0)
(1.04292 0.00846179 0)
(1.04317 0.00837116 0)
(1.0434 0.00829004 0)
(1.04361 0.00821754 0)
(1.04381 0.00815276 0)
(1.04399 0.00809484 0)
(1.04417 0.00804284 0)
(1.04433 0.00799578 0)
(1.04448 0.00795247 0)
(1.04462 0.00791167 0)
(1.04476 0.00787171 0)
(1.04489 0.00783094 0)
(1.04502 0.00778694 0)
(1.04516 0.00773738 0)
(1.04529 0.00767865 0)
(1.04543 0.00760713 0)
(1.04558 0.00751741 0)
(1.04574 0.00740324 0)
(1.04591 0.00725685 0)
(1.04609 0.00706639 0)
(1.0463 0.00682177 0)
(1.04651 0.00649954 0)
(1.04674 0.00608825 0)
(1.04696 0.00554431 0)
(1.04716 0.00485817 0)
(1.04729 0.00396853 0)
(1.04732 0.00288503 0)
(1.04717 0.00157357 0)
(1.00078 0.0102123 0)
(1.01157 0.0187525 0)
(1.022 0.0169593 0)
(1.02688 0.0147392 0)
(1.02868 0.0141726 0)
(1.03023 0.0136508 0)
(1.03186 0.0128331 0)
(1.03322 0.0121106 0)
(1.03425 0.01158 0)
(1.0351 0.0111472 0)
(1.03585 0.0107606 0)
(1.03651 0.0104167 0)
(1.03711 0.0101153 0)
(1.03765 0.00985008 0)
(1.03814 0.00961441 0)
(1.03859 0.00940374 0)
(1.039 0.00921492 0)
(1.03938 0.00904544 0)
(1.03973 0.00889319 0)
(1.04005 0.0087564 0)
(1.04035 0.00863354 0)
(1.04063 0.00852331 0)
(1.04088 0.00842451 0)
(1.04112 0.00833608 0)
(1.04134 0.00825704 0)
(1.04155 0.00818646 0)
(1.04174 0.00812347 0)
(1.04191 0.00806719 0)
(1.04208 0.00801667 0)
(1.04223 0.0079709 0)
(1.04237 0.00792867 0)
(1.04251 0.00788869 0)
(1.04264 0.00784926 0)
(1.04276 0.00780865 0)
(1.04289 0.00776445 0)
(1.04301 0.00771421 0)
(1.04314 0.0076544 0)
(1.04327 0.00758119 0)
(1.04341 0.00748941 0)
(1.04356 0.00737252 0)
(1.04373 0.00722314 0)
(1.0439 0.00702932 0)
(1.04409 0.00678119 0)
(1.04429 0.00645649 0)
(1.0445 0.00604302 0)
(1.0447 0.00550233 0)
(1.04487 0.0048225 0)
(1.04497 0.00395356 0)
(1.04496 0.00290075 0)
(1.04477 0.00163773 0)
(1.00067 0.00923213 0)
(1.01031 0.0176737 0)
(1.02013 0.0164721 0)
(1.02504 0.0143843 0)
(1.02693 0.0138405 0)
(1.02844 0.0134163 0)
(1.03004 0.0126738 0)
(1.0314 0.0119768 0)
(1.03243 0.0114595 0)
(1.03327 0.0110423 0)
(1.03401 0.0106693 0)
(1.03467 0.0103349 0)
(1.03526 0.0100407 0)
(1.03579 0.00978157 0)
(1.03627 0.00955118 0)
(1.03671 0.00934509 0)
(1.03711 0.00916028 0)
(1.03748 0.00899438 0)
(1.03782 0.00884538 0)
(1.03814 0.00871157 0)
(1.03843 0.00859149 0)
(1.03869 0.00848385 0)
(1.03894 0.00838748 0)
(1.03917 0.00830133 0)
(1.03938 0.00822443 0)
(1.03958 0.00815585 0)
(1.03976 0.00809471 0)
(1.03993 0.00804013 0)
(1.04008 0.00799113 0)
(1.04023 0.0079467 0)
(1.04036 0.00790559 0)
(1.04049 0.00786645 0)
(1.04061 0.00782758 0)
(1.04073 0.00778716 0)
(1.04084 0.00774279 0)
(1.04096 0.0076919 0)
(1.04108 0.00763104 0)
(1.0412 0.00755623 0)
(1.04133 0.00746246 0)
(1.04147 0.00734306 0)
(1.04162 0.00719088 0)
(1.04178 0.00699412 0)
(1.04195 0.00674297 0)
(1.04213 0.00641657 0)
(1.04231 0.00600215 0)
(1.04248 0.00546588 0)
(1.04261 0.00479452 0)
(1.04267 0.0039471 0)
(1.04262 0.00292641 0)
(1.04238 0.00171123 0)
(1.00058 0.00834124 0)
(1.00917 0.0166196 0)
(1.01838 0.0159725 0)
(1.0233 0.0140374 0)
(1.02526 0.0135088 0)
(1.02674 0.0131718 0)
(1.02831 0.0125078 0)
(1.02966 0.0118404 0)
(1.0307 0.0113367 0)
(1.03153 0.0109349 0)
(1.03226 0.0105759 0)
(1.03292 0.0102517 0)
(1.0335 0.009965 0)
(1.03402 0.00971213 0)
(1.03449 0.0094872 0)
(1.03492 0.00928586 0)
(1.03532 0.0091052 0)
(1.03568 0.00894301 0)
(1.03601 0.00879738 0)
(1.03632 0.00866667 0)
(1.0366 0.00854946 0)
(1.03686 0.0084445 0)
(1.0371 0.00835065 0)
(1.03732 0.00826686 0)
(1.03752 0.00819217 0)
(1.03771 0.00812567 0)
(1.03788 0.00806645 0)
(1.03804 0.00801364 0)
(1.03819 0.00796624 0)
(1.03833 0.00792321 0)
(1.03845 0.00788328 0)
(1.03857 0.00784505 0)
(1.03868 0.0078068 0)
(1.03879 0.00776664 0)
(1.0389 0.00772218 0)
(1.03901 0.00767073 0)
(1.03911 0.00760892 0)
(1.03923 0.00753266 0)
(1.03935 0.00743707 0)
(1.03947 0.00731544 0)
(1.03961 0.00716076 0)
(1.03975 0.00696158 0)
(1.0399 0.00670806 0)
(1.04006 0.00638083 0)
(1.04021 0.0059668 0)
(1.04034 0.00543622 0)
(1.04043 0.00477544 0)
(1.04045 0.0039505 0)
(1.04035 0.00296324 0)
(1.04007 0.0017959 0)
(1.0005 0.00753459 0)
(1.00814 0.0155944 0)
(1.01673 0.0154595 0)
(1.02163 0.0136975 0)
(1.02367 0.0131794 0)
(1.02513 0.0129181 0)
(1.02666 0.0123346 0)
(1.02801 0.0117011 0)
(1.02905 0.0112115 0)
(1.02988 0.0108248 0)
(1.0306 0.0104804 0)
(1.03125 0.0101669 0)
(1.03182 0.00988803 0)
(1.03234 0.00964164 0)
(1.0328 0.00942237 0)
(1.03323 0.00922596 0)