/*--------------------------------*- C++ -*----------------------------------*\
  =========                 |
  \\      /  F ield         | OpenFOAM: The Open Source CFD Toolbox
   \\    /   O peration     | Website:  https://openfoam.org
    \\  /    A nd           | Version:  7
     \\/     M anipulation  |
\*---------------------------------------------------------------------------*/
FoamFile
{
    version     2.0;
    format      ascii;
    class       volVectorField;
    location    "0.24";
    object      wallShearStress;
}
// * * * * * * * * * * * * * * * * * * * * * * * * * * * * * * * * * * * * * //

dimensions      [0 2 -2 0 0 0 0];

internalField   uniform (0 0 0);

boundaryField
{
    velocityInlet
    {
        type            calculated;
        value           uniform (0 0 0);
    }
    pressureOutlet
    {
        type            calculated;
        value           uniform (0 0 0);
    }
    fixedWalls
    {
        type            calculated;
        value           nonuniform List<vector> 
100
(
(-0.0225118 -0.00425717 0)
(-0.00978669 -0.0013244 0)
(-0.00594972 -0.000132924 0)
(-0.0051209 2.18987e-05 0)
(-0.00468477 -2.71511e-05 0)
(-0.00437293 -8.38559e-06 0)
(-0.0045216 7.86375e-05 0)
(-0.0051518 0.000156141 0)
(-0.00558429 8.97601e-05 0)
(-0.00446105 -0.000275511 0)
(-0.000744109 -0.000730376 0)
(0.00395589 -0.000761969 0)
(0.00639948 -0.000327136 0)
(0.00563277 0.000199866 0)
(0.00291993 0.000421235 0)
(2.46777e-05 0.000386118 0)
(-0.00211582 0.000250765 0)
(-0.00334836 0.000127602 0)
(-0.00391744 4.96679e-05 0)
(-0.00410591 9.79129e-06 0)
(-0.00411228 -7.86315e-06 0)
(-0.00405093 -1.31638e-05 0)
(-0.00399534 -1.10193e-05 0)
(-0.00401575 1.60593e-06 0)
(-0.00420681 2.94418e-05 0)
(-0.00463411 6.58346e-05 0)
(-0.00514961 7.42229e-05 0)
(-0.00525379 -1.09971e-05 0)
(-0.0043181 -0.000178072 0)
(-0.00277063 -0.000213208 0)
(-0.00265936 3.79369e-05 0)
(-0.00485526 0.000302187 0)
(-0.00758244 0.000274589 0)
(-0.00962985 0.000223722 0)
(-0.011506 0.000315646 0)
(-0.0128407 0.000310909 0)
(-0.0116455 -0.000121549 0)
(-0.00667438 -0.000791708 0)
(0.000844524 -0.00100906 0)
(0.00738932 -0.000922031 0)
(0.0113283 -0.000539944 0)
(0.012019 -8.82578e-05 0)
(0.00992827 0.000259541 0)
(0.00624728 0.000424637 0)
(0.00227842 0.000413043 0)
(-0.00103795 0.000329228 0)
(-0.00333554 0.000209799 0)
(-0.00466861 0.000113306 0)
(-0.00527186 4.75278e-05 0)
(-0.00542123 1.07241e-05 0)
(-0.00534619 -8.54559e-06 0)
(-0.00520585 -1.17824e-05 0)
(-0.00509022 -7.36208e-06 0)
(-0.00503977 -2.03313e-07 0)
(-0.00506024 8.26335e-06 0)
(-0.00512867 1.29414e-05 0)
(-0.00520705 1.29591e-05 0)
(-0.00527232 1.16789e-05 0)
(-0.0053349 1.3415e-05 0)
(-0.00542341 1.93815e-05 0)
(-0.00555467 2.7543e-05 0)
(-0.00571258 3.46791e-05 0)
(-0.00583643 3.74485e-05 0)
(-0.00581291 2.45974e-05 0)
(-0.00547719 -1.00202e-05 0)
(-0.00464642 -6.83502e-05 0)
(-0.00322048 -0.000140663 0)
(-0.00123348 -0.000219121 0)
(0.001065 -0.000239294 0)
(0.00318695 -0.000229865 0)
(0.00473913 -0.000167874 0)
(0.0054418 -7.77022e-05 0)
(0.00523232 1.84102e-05 0)
(0.00430356 8.72989e-05 0)
(0.00295595 0.000123589 0)
(0.00147768 0.000130543 0)
(9.32093e-05 0.000118834 0)
(-0.00106358 9.54056e-05 0)
(-0.00195038 7.03686e-05 0)
(-0.00258467 4.83405e-05 0)
(-0.00302028 3.19575e-05 0)
(-0.00331893 2.13525e-05 0)
(-0.00352162 1.33053e-05 0)
(-0.00363966 4.63067e-06 0)
(-0.00370138 -1.32151e-06 0)
(-0.00380061 4.87351e-06 0)
(-0.00405491 2.26876e-05 0)
(-0.00448694 3.98605e-05 0)
(-0.00500388 4.72869e-05 0)
(-0.00547904 4.51755e-05 0)
(-0.00581714 3.78486e-05 0)
(-0.00592742 2.64516e-05 0)
(-0.00570606 1.13881e-06 0)
(-0.00500729 -4.1285e-05 0)
(-0.00366935 -9.74874e-05 0)
(-0.00186364 -0.000158772 0)
(0.000580883 -0.000191399 0)
(0.00232011 -0.000156022 0)
(0.0043783 -0.00012623 0)
(0.0033155 0.000179223 0)
)
;
    }
    bottomWall
    {
        type            calculated;
        value           nonuniform List<vector> 
800
(
(-0.0353488 0.00214398 0)
(-0.0160264 0.000524838 0)
(-0.0106075 0.000100718 0)
(-0.0084557 3.52599e-05 0)
(-0.00748604 1.98584e-05 0)
(-0.00685252 1.61175e-05 0)
(-0.00634519 1.33506e-05 0)
(-0.00593425 1.08935e-05 0)
(-0.00559971 9.0711e-06 0)
(-0.00532112 7.75412e-06 0)
(-0.00508391 6.75678e-06 0)
(-0.00487863 5.96892e-06 0)
(-0.00469879 5.33067e-06 0)
(-0.00453965 4.80452e-06 0)
(-0.00439764 4.36476e-06 0)
(-0.00426996 3.99279e-06 0)
(-0.00415442 3.67462e-06 0)
(-0.00404928 3.39981e-06 0)
(-0.00395312 3.16051e-06 0)
(-0.00386479 2.95065e-06 0)
(-0.00378331 2.7652e-06 0)
(-0.00370788 2.60034e-06 0)
(-0.00363782 2.453e-06 0)
(-0.00357257 2.32064e-06 0)
(-0.00351161 2.20125e-06 0)
(-0.00345453 2.09308e-06 0)
(-0.00340094 1.99463e-06 0)
(-0.00335054 1.90467e-06 0)
(-0.00330304 1.82248e-06 0)
(-0.00325818 1.74693e-06 0)
(-0.00321575 1.67722e-06 0)
(-0.00317555 1.61289e-06 0)
(-0.0031374 1.55343e-06 0)
(-0.00310114 1.49821e-06 0)
(-0.00306665 1.44676e-06 0)
(-0.00303378 1.39902e-06 0)
(-0.00300242 1.35434e-06 0)
(-0.00297248 1.31244e-06 0)
(-0.00294385 1.27324e-06 0)
(-0.00291646 1.23648e-06 0)
(-0.00289021 1.20197e-06 0)
(-0.00286504 1.16929e-06 0)
(-0.0028409 1.13856e-06 0)
(-0.0028177 1.10951e-06 0)
(-0.00279541 1.08217e-06 0)
(-0.00277396 1.0561e-06 0)
(-0.00275331 1.03164e-06 0)
(-0.00273343 1.00778e-06 0)
(-0.00271425 9.86322e-07 0)
(-0.00269577 9.63373e-07 0)
(-0.00268032 9.4465e-07 0)
(-0.00266755 9.33898e-07 0)
(-0.00265494 9.20302e-07 0)
(-0.00264253 9.05689e-07 0)
(-0.00263031 8.92062e-07 0)
(-0.00261826 8.79179e-07 0)
(-0.00260639 8.66511e-07 0)
(-0.00259469 8.54244e-07 0)
(-0.00258315 8.42238e-07 0)
(-0.00257177 8.30487e-07 0)
(-0.00256056 8.18983e-07 0)
(-0.00254949 8.07721e-07 0)
(-0.00253858 7.967e-07 0)
(-0.00252782 7.86083e-07 0)
(-0.00251719 7.75702e-07 0)
(-0.00250671 7.65388e-07 0)
(-0.00249637 7.55305e-07 0)
(-0.00248616 7.45451e-07 0)
(-0.00247609 7.35824e-07 0)
(-0.00246614 7.26422e-07 0)
(-0.00245632 7.17243e-07 0)
(-0.00244662 7.08286e-07 0)
(-0.00243704 6.99548e-07 0)
(-0.00242758 6.90861e-07 0)
(-0.00241824 6.82392e-07 0)
(-0.00240901 6.74137e-07 0)
(-0.00239989 6.65763e-07 0)
(-0.00239089 6.57768e-07 0)
(-0.00238199 6.5015e-07 0)
(-0.00237319 6.42411e-07 0)
(-0.00236451 6.34879e-07 0)
(-0.00235591 6.27554e-07 0)
(-0.00234742 6.20269e-07 0)
(-0.00233902 6.1319e-07 0)
(-0.00233073 6.06148e-07 0)
(-0.00232252 5.99308e-07 0)
(-0.00231441 5.92504e-07 0)
(-0.00230639 5.85901e-07 0)
(-0.00229845 5.79499e-07 0)
(-0.00229061 5.73128e-07 0)
(-0.00228284 5.66789e-07 0)
(-0.00227517 5.60482e-07 0)
(-0.00226758 5.54537e-07 0)
(-0.00226006 5.48621e-07 0)
(-0.00225263 5.42733e-07 0)
(-0.00224528 5.37041e-07 0)
(-0.002238 5.31375e-07 0)
(-0.0022308 5.25735e-07 0)
(-0.00222367 5.20121e-07 0)
(-0.00221662 5.14865e-07 0)
(-0.00220964 5.09633e-07 0)
(-0.00220273 5.0426e-07 0)
(-0.00219589 4.99076e-07 0)
(-0.00218913 4.94082e-07 0)
(-0.00218242 4.89111e-07 0)
(-0.00217579 4.84163e-07 0)
(-0.00216922 4.79403e-07 0)
(-0.00216271 4.74664e-07 0)
(-0.00215627 4.69946e-07 0)
(-0.00214989 4.65247e-07 0)
(-0.00214358 4.60734e-07 0)
(-0.00213732 4.56242e-07 0)
(-0.00213113 4.51768e-07 0)
(-0.00212499 4.47478e-07 0)
(-0.00211892 4.43205e-07 0)
(-0.0021129 4.3895e-07 0)
(-0.00210693 4.34877e-07 0)
(-0.00210102 4.30654e-07 0)
(-0.00209517 4.26445e-07 0)
(-0.00208938 4.22586e-07 0)
(-0.00208363 4.1874e-07 0)
(-0.00207793 4.14743e-07 0)
(-0.0020723 4.1076e-07 0)
(-0.00206671 4.06958e-07 0)
(-0.00206118 4.03336e-07 0)
(-0.00205568 3.99563e-07 0)
(-0.00205025 3.95801e-07 0)
(-0.00204486 3.92387e-07 0)
(-0.00203952 3.88818e-07 0)
(-0.00203423 3.85101e-07 0)
(-0.00202899 3.81726e-07 0)
(-0.00202378 3.78365e-07 0)
(-0.00201863 3.74847e-07 0)
(-0.00201352 3.71515e-07 0)
(-0.00200846 3.68359e-07 0)
(-0.00200343 3.65051e-07 0)
(-0.00199846 3.61754e-07 0)
(-0.00199353 3.58634e-07 0)
(-0.00198864 3.55531e-07 0)
(-0.00198378 3.52433e-07 0)
(-0.00197898 3.4936e-07 0)
(-0.00197421 3.46445e-07 0)
(-0.00196948 3.43405e-07 0)
(-0.00196479 3.40331e-07 0)
(-0.00196014 3.37672e-07 0)
(-0.00195553 3.34755e-07 0)
(-0.00195095 3.31826e-07 0)
(-0.00194642 3.29044e-07 0)
(-0.00194192 3.2651e-07 0)
(-0.00193746 3.23422e-07 0)
(-0.00193372 3.20708e-07 0)
(-0.00193066 3.19343e-07 0)
(-0.00192759 3.17688e-07 0)
(-0.00192452 3.15729e-07 0)
(-0.00192145 3.1377e-07 0)
(-0.00191838 3.12157e-07 0)
(-0.00191529 3.10268e-07 0)
(-0.00191221 3.08188e-07 0)
(-0.00190912 3.0656e-07 0)
(-0.00190603 3.04945e-07 0)
(-0.00190293 3.02879e-07 0)
(-0.00189983 3.01059e-07 0)
(-0.00189673 2.99436e-07 0)
(-0.00189362 2.9766e-07 0)
(-0.00189051 2.9585e-07 0)
(-0.0018874 2.94066e-07 0)
(-0.00188428 2.92061e-07 0)
(-0.00188117 2.90512e-07 0)
(-0.00187804 2.88967e-07 0)
(-0.00187491 2.87003e-07 0)
(-0.00187178 2.85257e-07 0)
(-0.00186865 2.83525e-07 0)
(-0.00186551 2.81581e-07 0)
(-0.00186238 2.8009e-07 0)
(-0.00185923 2.78374e-07 0)
(-0.00185609 2.76483e-07 0)
(-0.00185294 2.75e-07 0)
(-0.00184979 2.73327e-07 0)
(-0.00184663 2.71458e-07 0)
(-0.00184348 2.69801e-07 0)
(-0.00184032 2.68342e-07 0)
(-0.00183715 2.66521e-07 0)
(-0.00183399 2.64708e-07 0)
(-0.00183083 2.63285e-07 0)
(-0.00182765 2.61682e-07 0)
(-0.00182448 2.59897e-07 0)
(-0.00182131 2.58308e-07 0)
(-0.00181813 2.56745e-07 0)
(-0.00181495 2.55162e-07 0)
(-0.00181176 2.53637e-07 0)
(-0.00180858 2.519e-07 0)
(-0.00180539 2.50384e-07 0)
(-0.0018022 2.48867e-07 0)
(-0.00179901 2.47359e-07 0)
(-0.00179581 2.45858e-07 0)
(-0.00179261 2.44205e-07 0)
(-0.00178941 2.42729e-07 0)
(-0.00178621 2.41263e-07 0)
(-0.001783 2.3979e-07 0)
(-0.00177979 2.3837e-07 0)
(-0.00177658 2.36774e-07 0)
(-0.00177337 2.35359e-07 0)
(-0.00177015 2.33947e-07 0)
(-0.00176693 2.32555e-07 0)
(-0.00176371 2.31153e-07 0)
(-0.00176048 2.29625e-07 0)
(-0.00175726 2.28235e-07 0)
(-0.00175403 2.26911e-07 0)
(-0.0017508 2.2555e-07 0)
(-0.00174756 2.2424e-07 0)
(-0.00174432 2.22916e-07 0)
(-0.00174108 2.21623e-07 0)
(-0.00173784 2.20167e-07 0)
(-0.00173459 2.18878e-07 0)
(-0.00173134 2.1755e-07 0)
(-0.00172809 2.16359e-07 0)
(-0.00172484 2.15239e-07 0)
(-0.00172158 2.14019e-07 0)
(-0.00171831 2.12615e-07 0)
(-0.00171505 2.11437e-07 0)
(-0.00171178 2.10386e-07 0)
(-0.00170851 2.09223e-07 0)
(-0.00170523 2.08028e-07 0)
(-0.00170195 2.07026e-07 0)
(-0.00169866 2.05819e-07 0)
(-0.00169537 2.04771e-07 0)
(-0.00169208 2.0373e-07 0)
(-0.00168878 2.02736e-07 0)
(-0.00168548 2.01649e-07 0)
(-0.00168216 2.00926e-07 0)
(-0.00167885 1.9987e-07 0)
(-0.00167552 1.99289e-07 0)
(-0.0016722 1.97747e-07 0)
(-0.00166885 1.97818e-07 0)
(-0.00166553 1.95743e-07 0)
(-0.00166214 1.97137e-07 0)
(-0.00165883 1.93174e-07 0)
(-0.00165538 1.97525e-07 0)
(-0.00165212 1.89288e-07 0)
(-0.00164854 2.00498e-07 0)
(-0.00164541 1.82239e-07 0)
(-0.00164159 2.08345e-07 0)
(-0.00163875 1.68682e-07 0)
(-0.00163444 2.26839e-07 0)
(-0.00163219 1.41486e-07 0)
(-0.00162703 2.64065e-07 0)
(-0.0016258 9.00136e-08 0)
(-0.0016193 3.29872e-07 0)
(-0.00161957 7.62559e-09 0)
(-0.00161132 3.63446e-07 0)
(-0.0353488 -0.00214397 0)
(-0.0160267 -0.000524832 0)
(-0.0106079 -0.000100717 0)
(-0.00845583 -3.52633e-05 0)
(-0.00748585 -1.98676e-05 0)
(-0.00685169 -1.6134e-05 0)
(-0.00634348 -1.33731e-05 0)
(-0.00593145 -1.09223e-05 0)
(-0.00559559 -9.10663e-06 0)
(-0.00531546 -7.79645e-06 0)
(-0.00507648 -6.80595e-06 0)
(-0.00486922 -6.02472e-06 0)
(-0.00468721 -5.39273e-06 0)
(-0.00452573 -4.87251e-06 0)
(-0.00438121 -4.43818e-06 0)
(-0.00425089 -4.07105e-06 0)
(-0.0041326 -3.75733e-06 0)
(-0.0040246 -3.48662e-06 0)
(-0.00392548 -3.25114e-06 0)
(-0.00383408 -3.04473e-06 0)
(-0.00374946 -2.86252e-06 0)
(-0.00367079 -2.70065e-06 0)
(-0.00359743 -2.55593e-06 0)
(-0.00352878 -2.42586e-06 0)
(-0.00346437 -2.30804e-06 0)
(-0.00340378 -2.20066e-06 0)
(-0.00334664 -2.10189e-06 0)
(-0.00329267 -2.01045e-06 0)
(-0.00324159 -1.92461e-06 0)
(-0.00319319 -1.84326e-06 0)
(-0.0031473 -1.76484e-06 0)
(-0.00310376 -1.68823e-06 0)
(-0.00306246 -1.61122e-06 0)
(-0.00302334 -1.53317e-06 0)
(-0.00298636 -1.45096e-06 0)
(-0.00295152 -1.36401e-06 0)
(-0.00291883 -1.26763e-06 0)
(-0.00288849 -1.1608e-06 0)
(-0.00286042 -1.03851e-06 0)
(-0.00283532 -8.94013e-07 0)
(-0.00281254 -7.31182e-07 0)
(-0.00279431 -5.14012e-07 0)
(-0.00277782 -2.97979e-07 0)
(-0.00276984 7.46142e-08 0)
(-0.00276055 3.36452e-07 0)
(-0.00277024 1.09865e-06 0)
(-0.00276797 1.2601e-06 0)
(-0.00281073 3.42414e-06 0)
(-0.00282757 -3.14589e-06 0)
(-0.00269775 0.000205405 0)
(0.000151569 -7.10088e-05 0)
(0.000123111 -0.00033979 0)
(2.35673e-05 -0.000486928 0)
(-2.72592e-05 -0.000498854 0)
(-1.75504e-05 -0.000476761 0)
(1.14677e-05 -0.000480037 0)
(3.40663e-05 -0.000509066 0)
(2.78366e-05 -0.000497998 0)
(-4.39905e-05 -0.000373178 0)
(-0.000175194 -0.000137499 0)
(-0.000291806 0.000200383 0)
(-0.000344618 0.000582337 0)
(-0.000339455 0.000945833 0)
(-0.000291527 0.00125333 0)
(-0.000209733 0.00147307 0)
(-0.0001088 0.00158118 0)
(-5.54109e-06 0.00157503 0)
(9.14924e-05 0.00146743 0)
(0.000173261 0.00127024 0)
(0.000234648 0.00100329 0)
(0.00027217 0.000689798 0)
(0.000287387 0.000355933 0)
(0.000284838 2.18139e-05 0)
(0.000269158 -0.000297046 0)
(0.000245464 -0.000592283 0)
(0.000215657 -0.000852393 0)
(0.000185008 -0.0010802 0)
(0.000155483 -0.00127769 0)
(0.00012773 -0.00144578 0)
(0.000101998 -0.00158678 0)
(7.82414e-05 -0.00170287 0)
(5.63837e-05 -0.00179603 0)
(3.64746e-05 -0.00186813 0)
(1.87286e-05 -0.00192122 0)
(3.489e-06 -0.00195758 0)
(-8.87238e-06 -0.00197979 0)
(-1.81118e-05 -0.00199062 0)
(-2.43367e-05 -0.00199288 0)
(-2.79111e-05 -0.00198902 0)
(-2.95314e-05 -0.0019815 0)
(-3.02525e-05 -0.00197202 0)
(-3.08325e-05 -0.00196178 0)
(-3.21908e-05 -0.0019515 0)
(-3.52466e-05 -0.001941 0)
(-4.04757e-05 -0.00192977 0)
(-4.85655e-05 -0.00191665 0)
(-6.04569e-05 -0.00189984 0)
(-7.66215e-05 -0.00187707 0)
(-9.71703e-05 -0.0018456 0)
(-0.000121852 -0.00180247 0)
(-0.000149831 -0.00174512 0)
(-0.000179899 -0.00167138 0)
(-0.000210312 -0.00157942 0)
(-0.000237852 -0.00146792 0)
(-0.000257091 -0.00133736 0)
(-0.000261405 -0.00119166 0)
(-0.000245834 -0.00103785 0)
(-0.000209622 -0.000886138 0)
(-0.000157014 -0.00074663 0)
(-9.63158e-05 -0.000626846 0)
(-3.65141e-05 -0.000530043 0)
(1.57976e-05 -0.000456052 0)
(5.70654e-05 -0.000403351 0)
(8.67768e-05 -0.000368974 0)
(0.000105011 -0.000349954 0)
(0.000112555 -0.000342551 0)
(0.000111279 -0.000343345 0)
(0.000103556 -0.000349494 0)
(9.28171e-05 -0.000359946 0)
(8.16174e-05 -0.000375917 0)
(7.04347e-05 -0.000399259 0)
(5.80509e-05 -0.000430794 0)
(4.35316e-05 -0.000465782 0)
(2.86076e-05 -0.000496606 0)
(1.69355e-05 -0.000518557 0)
(1.13496e-05 -0.000529913 0)
(1.29031e-05 -0.000532149 0)
(2.00778e-05 -0.000528827 0)
(3.04856e-05 -0.000522291 0)
(4.26879e-05 -0.000514005 0)
(5.60934e-05 -0.000506434 0)
(6.96997e-05 -0.000502991 0)
(8.03732e-05 -0.000503772 0)
(8.28329e-05 -0.000507795 0)
(7.19632e-05 -0.000510796 0)
(4.84023e-05 -0.000506544 0)
(2.06705e-05 -0.000492675 0)
(-2.93817e-06 -0.00047307 0)
(-2.00581e-05 -0.000452687 0)
(-3.08736e-05 -0.000433685 0)
(-3.4612e-05 -0.000417529 0)
(-3.15186e-05 -0.000406218 0)
(-2.38869e-05 -0.000399136 0)
(-1.61511e-05 -0.000389913 0)
(-1.39414e-05 -0.000371433 0)
(-2.01961e-05 -0.000341672 0)
(-3.4125e-05 -0.000301129 0)
(-5.46992e-05 -0.000252263 0)
(-8.25249e-05 -0.000196577 0)
(-0.000117789 -0.000132656 0)
(-0.000157364 -5.79237e-05 0)
(-0.000194894 2.85101e-05 0)
(-0.000223563 0.000124085 0)
(-0.000239509 0.000223779 0)
(-0.000243234 0.000322435 0)
(-0.000238819 0.000417322 0)
(-0.000230873 0.000507982 0)
(-0.000222859 0.000595488 0)
(-0.000216541 0.000681632 0)
(-0.000212152 0.000767804 0)
(-0.000209306 0.000854668 0)
(-0.000207898 0.000942255 0)
(-0.000208748 0.00103018 0)
(-0.000213918 0.00111804 0)
(-0.000226339 0.00120614 0)
(-0.000248606 0.00129622 0)
(-0.000281224 0.00139148 0)
(-0.000321311 0.00149591 0)
(-0.000362426 0.00161117 0)
(-0.000396496 0.00173555 0)
(-0.000417043 0.0018642 0)
(-0.000421647 0.0019903 0)
(-0.000412122 0.00210792 0)
(-0.000392499 0.00221401 0)
(-0.000366703 0.00230805 0)
(-0.000337459 0.00239061 0)
(-0.00030647 0.00246244 0)
(-0.000274887 0.00252419 0)
(-0.000243469 0.00257635 0)
(-0.000212704 0.00261951 0)
(-0.000182906 0.00265426 0)
(-0.00015427 0.00268115 0)
(-0.000126888 0.00270071 0)
(-0.000100758 0.00271344 0)
(-7.57877e-05 0.00271982 0)
(-5.19824e-05 0.00272017 0)
(-2.9515e-05 0.00271503 0)
(-7.88126e-06 0.00270512 0)
(1.32526e-05 0.00269032 0)
(3.38942e-05 0.002671 0)
(5.42837e-05 0.00264718 0)
(7.44653e-05 0.00261902 0)
(9.4576e-05 0.0025866 0)
(0.000114693 0.00254999 0)
(0.000134867 0.00250925 0)
(0.000155132 0.00246444 0)
(0.000175531 0.0024156 0)
(0.000196039 0.00236276 0)
(0.000216643 0.00230599 0)
(0.000237304 0.0022453 0)
(0.000257949 0.00218079 0)
(0.000278512 0.0021125 0)
(0.000298889 0.00204053 0)
(0.000318956 0.00196497 0)
(0.000338573 0.00188597 0)
(0.000357596 0.00180367 0)
(0.000375842 0.00171825 0)
(0.000393125 0.00162992 0)
(0.000409247 0.00153891 0)
(0.000423959 0.0014455 0)
(0.000437031 0.00135003 0)
(0.000448244 0.00125286 0)
(0.000457356 0.00115439 0)
(0.000464155 0.00105506 0)
(0.00046845 0.000955275 0)
(0.000470746 0.000856946 0)
(0.000470553 0.000759898 0)
(0.000467501 0.000663974 0)
(0.000461503 0.0005695 0)
(0.0004524 0.000476846 0)
(0.000440115 0.000386509 0)
(0.000424599 0.00029903 0)
(0.000405832 0.000214993 0)
(0.000383926 0.00013507 0)
(0.000359172 5.99589e-05 0)
(0.000331672 -9.70134e-06 0)
(0.00030177 -7.31613e-05 0)
(0.000270396 -0.000130004 0)
(0.000238034 -0.000180209 0)
(0.000206324 -0.000225131 0)
(0.000174329 -0.000264087 0)
(0.0001422 -0.000296712 0)
(0.000110382 -0.000323121 0)
(7.92614e-05 -0.000343478 0)
(4.92541e-05 -0.000357945 0)
(2.07929e-05 -0.000366738 0)
(-5.66819e-06 -0.000370135 0)
(-2.98628e-05 -0.000368502 0)
(-5.14986e-05 -0.000362232 0)
(-7.01795e-05 -0.000351846 0)
(-8.59835e-05 -0.000339424 0)
(-9.86117e-05 -0.000324623 0)
(-0.000108569 -0.000309306 0)
(-0.00011755 -0.000297277 0)
(-0.000129374 -0.000295565 0)
(-0.000151901 -0.00031693 0)
(-0.000201764 -0.000384657 0)
(-0.000309125 -0.000528859 0)
(-0.000516461 -0.000779088 0)
(-0.000819615 -0.00112066 0)
(8.08079e-06 -0.000156605 0)
(0.00022223 -0.000157451 0)
(0.00032554 -8.23649e-05 0)
(0.000318155 2.89733e-06 0)
(0.000263947 3.75516e-05 0)
(0.000199058 3.83927e-05 0)
(0.000150925 1.01785e-05 0)
(0.000143687 -2.14523e-05 0)
(0.000210762 -3.10255e-05 0)
(0.000270614 1.56803e-05 0)
(0.000270665 7.16956e-05 0)
(0.000215758 8.41394e-05 0)
(0.000151463 7.20929e-05 0)
(9.70405e-05 5.50986e-05 0)
(4.96867e-05 5.52309e-05 0)
(-2.08927e-05 7.85269e-05 0)
(-0.000129557 0.000105273 0)
(-0.000252024 0.000109925 0)
(-0.000363626 9.06054e-05 0)
(-0.000447728 5.36718e-05 0)
(-0.000493926 5.69044e-06 0)
(-0.000500276 -4.77629e-05 0)
(-0.00047429 -0.000104121 0)
(-0.000400492 -0.000152222 0)
(-0.000283788 -0.000172819 0)
(-0.000149605 -0.000149956 0)
(-4.24876e-05 -9.51848e-05 0)
(1.37276e-05 -2.53707e-05 0)
(1.98424e-05 6.45849e-05 0)
(-1.56765e-05 0.000155267 0)
(-6.76827e-05 0.000209181 0)
(-0.000107266 0.000192714 0)
(-9.56888e-05 0.000103095 0)
(-1.05364e-05 -2.07839e-05 0)
(0.000138956 -0.000141406 0)
(0.000320181 -0.000237888 0)
(0.000524779 -0.000320244 0)
(0.000756337 -0.000332692 0)
(0.000958965 -0.000260268 0)
(0.00111027 -0.000188873 0)
(0.00125075 -0.000159592 0)
(0.00140306 -0.000154033 0)
(0.00156497 -0.000158078 0)
(0.00173281 -0.000171337 0)
(0.00190617 -0.000191446 0)
(0.00208252 -0.000209873 0)
(0.00225446 -0.000220452 0)
(0.0024143 -0.000220227 0)
(0.00255447 -0.00020833 0)
(0.00266812 -0.000185177 0)
(0.00275003 -0.000152176 0)
(0.00279716 -0.000111447 0)
(0.00280709 -6.61389e-05 0)
(0.00277845 -2.1336e-05 0)
(0.00271634 2.26686e-05 0)
(0.00262051 6.80715e-05 0)
(0.00248957 0.000114469 0)
(0.00232326 0.000162535 0)
(0.00211959 0.000213095 0)
(0.00187643 0.000266024 0)
(0.00159197 0.000320891 0)
(0.00126488 0.000376539 0)
(0.00089509 0.000431187 0)
(0.000484109 0.000482275 0)
(3.73254e-05 0.000528327 0)
(-0.000445148 0.000566519 0)
(-0.000955214 0.000591323 0)
(-0.00147572 0.000599587 0)
(-0.00199584 0.000589828 0)
(-0.00250108 0.000557434 0)
(-0.00297217 0.000500351 0)
(-0.00338893 0.000419389 0)
(-0.00373226 0.000316969 0)
(-0.00398598 0.000198087 0)
(-0.00413742 6.93267e-05 0)
(-0.00418476 -6.48314e-05 0)
(-0.00411923 -0.00020064 0)
(-0.0039584 -0.000324782 0)
(-0.00370398 -0.000426023 0)
(-0.00336869 -0.000504607 0)
(-0.00298253 -0.000550383 0)
(-0.00256042 -0.000585257 0)
(-0.00211767 -0.000584336 0)
(-0.00168453 -0.000611997 0)
(-0.00121392 -0.000592442 0)
(-0.000852345 -0.000674338 0)
(-0.00014983 -0.000819903 0)
(0.000512453 -0.000134297 0)
(0.000577222 0.000298649 0)
(0.000577067 0.000230407 0)
(0.000439836 0.000206493 0)
(0.000268492 0.000130418 0)
(0.000210074 7.33686e-05 0)
(0.000202522 3.08964e-05 0)
(0.000203569 1.80579e-05 0)
(0.000190267 3.06015e-05 0)
(0.000149021 4.95868e-05 0)
(8.93657e-05 5.69775e-05 0)
(2.89949e-05 4.35923e-05 0)
(-5.65291e-06 1.79759e-05 0)
(1.20918e-05 7.86024e-06 0)
(2.14888e-05 4.5272e-05 0)
(4.4462e-05 0.000108942 0)
(8.29505e-05 0.000217636 0)
(0.000122667 0.00037344 0)
(0.00013888 0.000552318 0)
(0.000122051 0.000709272 0)
(8.44661e-05 0.000813672 0)
(4.13949e-05 0.000862313 0)
(1.33914e-06 0.000862197 0)
(-3.1841e-05 0.000825831 0)
(-6.08561e-05 0.000769498 0)
(-9.19512e-05 0.000701198 0)
(-0.000127507 0.000618625 0)
(-0.000159464 0.000513076 0)
(-0.000169471 0.000386863 0)
(-0.00013754 0.000260236 0)
(-5.49314e-05 0.000164004 0)
(5.0344e-05 0.000128373 0)
(8.42729e-05 0.000132862 0)
(-3.37829e-05 5.49052e-05 0)
(-0.000242129 -0.000226986 0)
(-0.000399832 -0.0006776 0)
(-0.00046613 -0.00119171 0)
(-0.00044741 -0.00170345 0)
(-0.000357461 -0.00214764 0)
(-0.000217879 -0.00247013 0)
(-5.76937e-05 -0.00264084 0)
(9.7614e-05 -0.00266163 0)
(0.000224717 -0.00255285 0)
(0.000313143 -0.00235 0)
(0.000375863 -0.00209332 0)
(0.00044895 -0.00180345 0)
(0.00056692 -0.00146036 0)
(0.000735351 -0.000990697 0)
(0.000835222 -0.000319217 0)
(0.000652105 0.000474686 0)
(0.00019591 0.00109705 0)
(-9.91816e-05 0.00114297 0)
(-0.000282343 0.000852685 0)
(-0.000531472 0.000501878 0)
(-0.000519097 -1.27334e-05 0)
(-0.00019785 -0.000326077 0)
(-8.89524e-05 -0.000359254 0)
(-0.000283852 -0.000482757 0)
(-0.000414078 -0.000672737 0)
(-0.000554347 -0.000753819 0)
(-0.00070776 -0.000749706 0)
(-0.000740559 -0.000743854 0)
(-0.00055573 -0.000708735 0)
(-8.40557e-05 -0.000579628 0)
(0.000781629 -0.000174167 0)
(0.00155796 0.000825232 0)
(0.00121875 0.00179968 0)
(0.000769918 0.00217573 0)
(0.000693884 0.00246054 0)
(0.000558518 0.00281039 0)
(0.000452989 0.00303879 0)
(0.000384473 0.00325001 0)
(0.00031443 0.00342002 0)
(0.0002672 0.00355906 0)
(0.000222834 0.00367838 0)
(0.000188924 0.00377414 0)
(0.000158786 0.00385637 0)
(0.000133642 0.00392267 0)
(0.000112062 0.00397851 0)
(9.30158e-05 0.00402394 0)
(7.67504e-05 0.00406122 0)
(6.19905e-05 0.00409153 0)
(4.88915e-05 0.0041154 0)
(3.65462e-05 0.0041338 0)
(2.45962e-05 0.00414664 0)
(1.23152e-05 0.00415401 0)
(-1.0899e-06 0.00415515 0)
(-1.62372e-05 0.00414881 0)
(-3.40318e-05 0.00413383 0)
(-5.59825e-05 0.00410799 0)
(-8.36963e-05 0.00406837 0)
(-0.00011881 0.00401039 0)
(-0.00016281 0.00392859 0)
(-0.000216475 0.00381767 0)
(-0.000279055 0.0036734 0)
(-0.000347373 0.00349315 0)
(-0.000416352 0.00327964 0)
(-0.000481582 0.00304058 0)
(-0.000540658 0.00278434 0)
(-0.00058859 0.00251746 0)
(-0.000613863 0.00225928 0)
(-0.000632743 0.00214202 0)
(-0.000656884 0.00217173 0)
(-0.000713097 0.00234414 0)
(-0.000768329 0.00258721 0)
(-0.000684545 0.00279662 0)
(-0.000192078 0.00290043 0)
(0.00103969 0.00307752 0)
(0.00291336 0.00401947 0)
(0.00418584 0.00620062 0)
(0.00363196 0.00842492 0)
(0.00241441 0.00927163 0)
(0.0020679 0.00955745 0)
(0.00189353 0.0102752 0)
(0.00136846 0.0108348 0)
(0.00104514 0.0110476 0)
(0.000835858 0.0113055 0)
(0.000532461 0.0114929 0)
(0.000313677 0.011532 0)
(0.000140712 0.011553 0)
(-4.34952e-05 0.0115106 0)
(-0.000177575 0.0114051 0)
(-0.000295173 0.0112821 0)
(-0.000409187 0.0111171 0)
(-0.000497805 0.0109186 0)
(-0.000576187 0.0107026 0)
(-0.000645882 0.0104622 0)
(-0.000700627 0.0102043 0)
(-0.000746345 0.00993609 0)
(-0.000783182 0.00965699 0)
(-0.000809534 0.00937169 0)
(-0.000827707 0.00908417 0)
(-0.000838022 0.00879588 0)
(-0.000840373 0.00850981 0)
(-0.000835848 0.00822865 0)
(-0.000825082 0.00795405 0)
(-0.000808529 0.00768787 0)
(-0.00078698 0.00743179 0)
(-0.000761203 0.00718699 0)
(-0.000731904 0.00695442 0)
(-0.000699842 0.00673483 0)
(-0.000665781 0.00652866 0)
(-0.000630447 0.00633605 0)
(-0.000594502 0.00615694 0)
(-0.000558556 0.00599106 0)
(-0.000523151 0.00583795 0)
(-0.000488737 0.00569699 0)
(-0.000455646 0.00556748 0)
(-0.000424144 0.00544868 0)
(-0.000394405 0.00533976 0)
(-0.000366504 0.00523993 0)
(-0.000340451 0.00514842 0)
(-0.00031619 0.00506451 0)
(-0.00029364 0.00498752 0)
(-0.000272642 0.00491684 0)
(-0.000253017 0.00485193 0)
(-0.000234589 0.00479236 0)
(-0.000217182 0.00473775 0)
(-0.000200614 0.00468779 0)
(-0.000184739 0.00464222 0)
(-0.000169447 0.00460084 0)
(-0.000154638 0.00456346 0)
(-0.000140254 0.00452993 0)
(-0.000126278 0.00450011 0)
(-0.000112723 0.00447385 0)
(-9.96043e-05 0.004451 0)
(-8.69825e-05 0.00443141 0)
(-7.49587e-05 0.00441492 0)
(-6.36211e-05 0.00440132 0)
(-5.30976e-05 0.00439044 0)
(-4.35314e-05 0.00438205 0)
(-3.50735e-05 0.00437591 0)
(-2.79243e-05 0.00437178 0)
(-2.22695e-05 0.00436937 0)
(-1.83131e-05 0.00436838 0)
(-1.63002e-05 0.00436851 0)
(-1.64546e-05 0.0043694 0)
(-1.9005e-05 0.00437067 0)
(-2.41884e-05 0.00437194 0)
(-3.22388e-05 0.00437281 0)
(-4.33966e-05 0.00437285 0)
(-5.79056e-05 0.00437164 0)
(-7.60193e-05 0.00436876 0)
(-9.80231e-05 0.00436377 0)
(-0.000124276 0.00435628 0)
(-0.000155252 0.00434585 0)
(-0.000191519 0.00433202 0)
(-0.00023379 0.00431425 0)
(-0.000282877 0.00429189 0)
(-0.000339646 0.00426416 0)
(-0.000404954 0.00423012 0)
(-0.000479492 0.00418869 0)
(-0.000563793 0.00413871 0)
(-0.000658194 0.00407911 0)
(-0.000762851 0.00400902 0)
(-0.000877994 0.00392798 0)
(-0.00100423 0.0038359 0)
(-0.00114272 0.0037329 0)
(-0.00129663 0.00362285 0)
(-0.00147905 0.00352979 0)
(-0.00168954 0.0034331 0)
(-0.00193358 0.00332819 0)
(-0.0022147 0.00320691 0)
(-0.00253293 0.00305781 0)
(-0.00288253 0.00286721 0)
(-0.00325365 0.00262509 0)
(-0.00362857 0.00232329 0)
(-0.00398957 0.00196182 0)
(-0.00432089 0.00154862 0)
(-0.00463679 0.00110136 0)
(-0.00495394 0.000676453 0)
(-0.00522311 -0.000190943 0)
(-0.00505042 0.00115332 0)
)
;
    }
    frontAndBack
    {
        type            empty;
    }
}


// ************************************************************************* //
