/*--------------------------------*- C++ -*----------------------------------*\
  =========                 |
  \\      /  F ield         | OpenFOAM: The Open Source CFD Toolbox
   \\    /   O peration     | Website:  https://openfoam.org
    \\  /    A nd           | Version:  7
     \\/     M anipulation  |
\*---------------------------------------------------------------------------*/
FoamFile
{
    version     2.0;
    format      ascii;
    class       volScalarField;
    location    "0.24";
    object      yPlus;
}
// * * * * * * * * * * * * * * * * * * * * * * * * * * * * * * * * * * * * * //

dimensions      [0 0 0 0 0 0 0];

internalField   uniform 0;

boundaryField
{
    velocityInlet
    {
        type            calculated;
        value           uniform 0;
    }
    pressureOutlet
    {
        type            calculated;
        value           uniform 0;
    }
    fixedWalls
    {
        type            calculated;
        value           nonuniform List<scalar> 
100
(
2.38206
1.56293
1.2114
1.12068
1.07173
1.03602
1.05383
1.12461
1.16962
1.04374
0.441752
0.986754
1.25105
1.17356
0.84637
0.200666
0.719942
0.905825
0.980055
1.00352
1.00437
0.996894
0.990067
0.99266
1.01609
1.06645
1.12394
1.13472
1.0286
0.825243
0.809388
1.09216
1.36382
1.53732
1.6807
1.77469
1.68857
1.27819
0.48665
1.3472
1.66624
1.71605
1.55987
1.23786
0.748736
0.505875
0.904276
1.06995
1.1371
1.15317
1.14521
1.13012
1.11752
1.11198
1.11423
1.12172
1.13025
1.13731
1.14406
1.15353
1.16741
1.18389
1.19663
1.19415
1.15906
1.06744
0.888539
0.550347
0.512503
0.884417
1.07813
1.15518
1.13271
1.02733
0.851522
0.60226
0.16029
0.510826
0.691658
0.796241
0.860755
0.902326
0.929472
0.944918
0.95292
0.965658
0.997467
1.04924
1.10801
1.1594
1.19463
1.20588
1.1831
1.10822
0.948599
0.67604
0.379477
0.75458
1.0362
0.901692
)
;
    }
    bottomWall
    {
        type            calculated;
        value           nonuniform List<scalar> 
800
(
2.94479
1.9839
1.61343
1.44033
1.35521
1.29659
1.24768
1.2066
1.17209
1.14257
1.11681
1.09403
1.07367
1.05534
1.0387
1.02351
1.00957
0.996708
0.984803
0.973738
0.963418
0.953766
0.944713
0.936202
0.92818
0.920605
0.913438
0.906644
0.900195
0.89406
0.88822
0.88265
0.877332
0.872248
0.867384
0.862723
0.858252
0.853962
0.84984
0.845876
0.842062
0.838387
0.834847
0.831432
0.828136
0.824953
0.821877
0.818905
0.816026
0.813244
0.810909
0.808975
0.807062
0.805172
0.803309
0.801467
0.799648
0.797851
0.796075
0.79432
0.792586
0.790872
0.789178
0.787503
0.785846
0.784208
0.782589
0.780987
0.779403
0.777836
0.776286
0.774752
0.773234
0.771731
0.770245
0.768774
0.767318
0.765877
0.76445
0.763037
0.761639
0.760254
0.758883
0.757524
0.756179
0.754847
0.753527
0.752221
0.750925
0.749643
0.748371
0.747112
0.745865
0.744628
0.743403
0.742188
0.740984
0.739791
0.738609
0.737437
0.736274
0.735123
0.733981
0.732849
0.731726
0.730613
0.729509
0.728414
0.727329
0.726252
0.725185
0.724126
0.723076
0.722035
0.721001
0.719976
0.718959
0.71795
0.71695
0.715958
0.714973
0.713995
0.713026
0.712064
0.71111
0.710162
0.709223
0.70829
0.707364
0.706446
0.705535
0.70463
0.703732
0.702841
0.701957
0.701079
0.700208
0.699343
0.698484
0.697632
0.696786
0.695946
0.695111
0.694284
0.693462
0.692645
0.691835
0.691031
0.690232
0.689438
0.688772
0.688227
0.687681
0.687133
0.686584
0.686034
0.685483
0.684931
0.684378
0.683823
0.683267
0.682711
0.682153
0.681594
0.681034
0.680473
0.679911
0.679349
0.678784
0.678218
0.677652
0.677084
0.676516
0.675948
0.675376
0.674805
0.674233
0.673659
0.673084
0.672509
0.671933
0.671354
0.670777
0.670197
0.669616
0.669035
0.668453
0.667869
0.667285
0.666699
0.666112
0.665525
0.664937
0.664348
0.663757
0.663165
0.662573
0.66198
0.661386
0.66079
0.660193
0.659596
0.658998
0.658399
0.657798
0.657196
0.656594
0.65599
0.655386
0.65478
0.654173
0.653565
0.652956
0.652346
0.651735
0.651123
0.650509
0.649893
0.649277
0.648661
0.648042
0.647422
0.646801
0.646179
0.645554
0.644929
0.644302
0.643673
0.643044
0.642412
0.641779
0.641141
0.640506
0.639864
0.639227
0.638576
0.63794
0.637276
0.636649
0.635958
0.635355
0.634616
0.634068
0.633233
0.632797
0.631796
0.631557
0.630294
0.630345
0.628737
2.94479
1.98391
1.61345
1.44034
1.35519
1.29652
1.24751
1.20631
1.17166
1.14196
1.11599
1.09297
1.07235
1.05372
1.03676
1.02122
1.00691
0.993666
0.981354
0.969862
0.959099
0.948985
0.939454
0.930447
0.921916
0.913818
0.906116
0.89878
0.891781
0.885099
0.878715
0.872615
0.866791
0.861238
0.855953
0.850946
0.846221
0.841811
0.837711
0.834028
0.83067
0.827974
0.825528
0.82434
0.822958
0.8244
0.824065
0.830398
0.83334
0.813534
1.096
1.81709
2.17191
2.2302
2.1991
2.20956
2.26924
2.22149
1.86849
1.12361
1.63091
2.48558
3.09724
3.53543
3.81745
3.948
3.93803
3.80232
3.54229
3.15706
2.63562
1.94565
1.15841
1.78133
2.44135
2.9159
3.2794
3.56633
3.79424
3.97576
4.11945
4.23142
4.31632
4.37808
4.42027
4.44633
4.45955
4.46306
4.45949
4.45143
4.4408
4.42895
4.41666
4.40385
4.39001
4.37365
4.35274
4.32487
4.28688
4.23528
4.16678
4.07821
3.96649
3.82887
3.66382
3.47209
3.25666
3.02546
2.78993
2.56395
2.36055
2.18969
2.05835
1.96619
1.90836
1.87721
1.86591
1.86954
1.88747
1.92254
1.97752
2.0525
2.13624
2.21273
2.27166
2.30772
2.32158
2.31931
2.30712
2.29048
2.27568
2.26867
2.26534
2.25881
2.24145
2.21158
2.17461
2.13602
2.0992
2.06796
2.04579
2.03301
2.02232
1.99476
1.93438
1.83993
1.71036
1.54188
1.32721
1.06294
0.856503
1.03985
1.3469
1.61976
1.85697
2.06929
2.26375
2.4443
2.61359
2.7734
2.92546
3.07183
3.21476
3.35626
3.49782
3.64031
3.78423
3.92985
4.07536
4.21747
4.35304
4.4793
4.59456
4.69816
4.79011
4.87078
4.94082
5.00094
5.05169
5.09371
5.12763
5.15402
5.17343
5.18633
5.1931
5.19405
5.18965
5.18054
5.16655
5.14802
5.12493
5.0974
5.06545
5.02911
4.98835
4.94315
4.89347
4.83922
4.78036
4.71675
4.64833
4.57499
4.49662
4.41311
4.32437
4.23026
4.13071
4.02561
3.91486
3.79838
3.67611
3.54796
3.41391
3.27389
3.12786
2.9783
2.82405
2.66376
2.49714
2.32387
2.14388
1.95753
1.76632
1.57486
1.39516
1.25442
1.19321
1.22293
1.30637
1.40831
1.50612
1.5917
1.66326
1.72083
1.76503
1.79673
1.81682
1.82624
1.82544
1.81506
1.79967
1.77575
1.74266
1.70084
1.65148
1.59923
1.56226
1.58263
1.77229
2.21962
0.970027
1.92329
2.23233
2.20808
2.05335
1.82365
1.61545
1.55087
1.79692
2.01496
2.078
1.91388
1.63325
1.30929
0.921438
0.817406
1.52146
2.03817
2.41273
2.66231
2.7908
2.80948
2.74639
2.5543
2.21023
1.70801
1.13623
0.566555
0.871015
1.3841
1.66903
1.68403
1.35351
0.847399
1.77181
2.48674
3.06073
3.53694
3.91192
4.21817
4.50214
4.78145
5.05726
5.32776
5.59025
5.84078
6.07217
6.27789
6.45165
6.58799
6.6834
6.73682
6.74715
6.71211
6.63575
6.51654
6.35047
6.13319
5.85663
5.50943
5.07524
4.52912
3.83005
2.91018
2.01854
2.9339
4.03909
4.9496
5.72189
6.38394
6.9448
7.40568
7.76509
8.02082
8.17009
8.21651
8.15421
8.00002
7.74729
7.39979
6.97308
6.47547
5.89769
5.28223
4.49957
3.81328
2.89456
2.16236
3.13037
3.25187
2.78017
2.19013
1.94181
1.86888
1.83096
1.74476
1.54772
1.23644
0.800141
0.283212
0.319992
0.692763
1.07664
1.51357
1.96243
2.3625
2.65977
2.84038
2.92155
2.92166
2.85995
2.75982
2.63334
2.47689
2.2713
2.00735
1.7
1.39938
1.26805
1.22852
0.529326
1.71251
2.71068
3.49537
4.12764
4.60854
4.93095
5.09658
5.1221
5.02652
4.83251
4.56422
4.23196
3.80897
3.21872
2.37659
2.13422
3.10162
3.29037
2.83086
2.32865
1.68358
1.59689
1.95795
2.41624
2.83051
3.06956
3.13615
3.06334
2.74547
1.86189
2.0533
3.60951
4.24026
4.60665
4.94981
5.26835
5.48906
5.68071
5.83036
5.95173
6.05257
6.13312
6.20081
6.25526
6.3005
6.33722
6.36716
6.39139
6.41042
6.42494
6.43496
6.4405
6.44098
6.43541
6.42273
6.40106
6.368
6.31979
6.25181
6.15946
6.03874
5.88641
5.70227
5.4884
5.24655
4.97914
4.70725
4.57461
4.60061
4.8014
5.12929
5.52315
5.96306
6.54104
7.40429
8.33223
8.96748
9.38885
9.73774
10.0458
10.2737
10.4337
10.5534
10.6344
10.6764
10.6894
10.6744
10.6371
10.5824
10.5094
10.4213
10.3205
10.2079
10.0856
9.95536
9.81826
9.6759
9.52962
9.38067
9.2303
9.07971
8.93001
8.78224
8.63739
8.49632
8.35982
8.22854
8.10302
7.98366
7.87072
7.76434
7.66455
7.57126
7.48427
7.40336
7.32823
7.25855
7.19399
7.13421
7.07889
7.02773
6.98045
6.93683
6.89666
6.85975
6.82598
6.79521
6.76732
6.74222
6.7198
6.69996
6.68258
6.66754
6.65471
6.64393
6.63505
6.62787
6.62221
6.61785
6.61454
6.61204
6.61008
6.60837
6.60663
6.60455
6.60182
6.59812
6.59312
6.58646
6.57779
6.5667
6.55278
6.53552
6.51435
6.48861
6.45757
6.42043
6.37638
6.32464
6.26455
6.19555
6.11724
6.02937
5.9317
5.82728
5.73587
5.64229
5.54634
5.4475
5.34543
5.24146
5.14337
5.06284
5.01849
5.03012
5.11121
5.2723
5.5283
5.63097
)
;
    }
    frontAndBack
    {
        type            empty;
    }
}


// ************************************************************************* //
