/*--------------------------------*- C++ -*----------------------------------*\
  =========                 |
  \\      /  F ield         | OpenFOAM: The Open Source CFD Toolbox
   \\    /   O peration     | Website:  https://openfoam.org
    \\  /    A nd           | Version:  7
     \\/     M anipulation  |
\*---------------------------------------------------------------------------*/
FoamFile
{
    version     2.0;
    format      ascii;
    class       volScalarField;
    location    "0.45";
    object      k;
}
// * * * * * * * * * * * * * * * * * * * * * * * * * * * * * * * * * * * * * //

dimensions      [0 2 -2 0 0 0 0];

internalField   nonuniform List<scalar> 
70000
(
1.08549e-05
4.21878e-06
2.82444e-06
2.31691e-06
1.99773e-06
1.75739e-06
1.56555e-06
1.40863e-06
1.27801e-06
1.16725e-06
1.07253e-06
9.90428e-07
9.19126e-07
8.56319e-07
8.01199e-07
7.51947e-07
7.08371e-07
6.68901e-07
6.33778e-07
6.01578e-07
5.72829e-07
5.46175e-07
5.22325e-07
4.99983e-07
4.79947e-07
4.61018e-07
4.43988e-07
4.27807e-07
4.13162e-07
3.99247e-07
3.86505e-07
3.7451e-07
3.63278e-07
3.52961e-07
3.42909e-07
3.34095e-07
3.24956e-07
3.17497e-07
3.09083e-07
3.02868e-07
2.949e-07
2.90532e-07
2.8233e-07
2.80108e-07
2.71996e-07
2.72502e-07
2.64341e-07
2.75072e-07
2.69215e-07
3.64867e-07
1.72795e-05
1.13673e-05
8.52076e-06
7.01067e-06
6.03784e-06
5.31155e-06
4.73251e-06
4.25863e-06
3.86408e-06
3.52956e-06
3.2435e-06
2.99554e-06
2.7802e-06
2.59048e-06
2.42398e-06
2.27516e-06
2.1435e-06
2.02421e-06
1.91805e-06
1.82071e-06
1.7338e-06
1.65322e-06
1.5811e-06
1.51354e-06
1.45294e-06
1.3957e-06
1.34417e-06
1.29525e-06
1.25092e-06
1.20885e-06
1.17027e-06
1.13401e-06
1.09998e-06
1.0688e-06
1.03834e-06
1.01168e-06
9.8402e-07
9.61401e-07
9.35988e-07
9.17091e-07
8.93032e-07
8.79429e-07
8.54959e-07
8.46694e-07
8.23445e-07
8.21138e-07
7.99807e-07
8.18479e-07
8.14537e-07
8.98366e-07
1.93701e-05
1.61297e-05
1.32913e-05
1.12898e-05
9.82933e-06
8.69677e-06
7.77977e-06
7.02178e-06
6.38612e-06
5.84437e-06
5.37949e-06
4.97526e-06
4.62341e-06
4.31264e-06
4.03948e-06
3.79478e-06
3.57799e-06
3.38121e-06
3.20592e-06
3.04495e-06
2.9011e-06
2.76759e-06
2.64799e-06
2.53588e-06
2.43521e-06
2.3401e-06
2.25437e-06
2.17298e-06
2.09912e-06
2.02907e-06
1.96469e-06
1.90427e-06
1.84743e-06
1.7954e-06
1.74453e-06
1.69991e-06
1.65382e-06
1.61574e-06
1.57356e-06
1.54149e-06
1.50181e-06
1.47746e-06
1.43803e-06
1.42159e-06
1.38418e-06
1.37547e-06
1.34227e-06
1.35309e-06
1.37512e-06
1.41335e-06
1.9861e-05
1.82599e-05
1.60859e-05
1.42003e-05
1.26409e-05
1.13491e-05
1.02621e-05
9.33944e-06
8.54915e-06
7.86525e-06
7.2721e-06
6.75155e-06
6.29525e-06
5.88945e-06
5.53093e-06
5.20786e-06
4.9205e-06
4.65837e-06
4.4242e-06
4.20835e-06
4.01501e-06
3.835e-06
3.67342e-06
3.52157e-06
3.38496e-06
3.25564e-06
3.13885e-06
3.02781e-06
2.92685e-06
2.83102e-06
2.74277e-06
2.65989e-06
2.58183e-06
2.51019e-06
2.44034e-06
2.3785e-06
2.31542e-06
2.26209e-06
2.20472e-06
2.15906e-06
2.10594e-06
2.06851e-06
2.01762e-06
1.99012e-06
1.94113e-06
1.92302e-06
1.87989e-06
1.87505e-06
1.91793e-06
1.92218e-06
1.99707e-05
1.78457e-05
1.6075e-05
1.47663e-05
1.36028e-05
1.25373e-05
1.157e-05
1.07016e-05
9.922e-06
9.22547e-06
8.60722e-06
8.05325e-06
7.55987e-06
7.1144e-06
6.71616e-06
6.35271e-06
6.02659e-06
5.72613e-06
5.45609e-06
5.20521e-06
4.97941e-06
4.76777e-06
4.57705e-06
4.39678e-06
4.23409e-06
4.07929e-06
3.93911e-06
3.80526e-06
3.68332e-06
3.56711e-06
3.45999e-06
3.35887e-06
3.26383e-06
3.17575e-06
3.09069e-06
3.01382e-06
2.93732e-06
2.86999e-06
2.80098e-06
2.74198e-06
2.67929e-06
2.62813e-06
2.57052e-06
2.52749e-06
2.47458e-06
2.4404e-06
2.39793e-06
2.36322e-06
2.4062e-06
2.39553e-06
2.00095e-05
1.47038e-05
1.37479e-05
1.32104e-05
1.2591e-05
1.19262e-05
1.12776e-05
1.06562e-05
1.00804e-05
9.54515e-06
9.04642e-06
8.57858e-06
8.14756e-06
7.74579e-06
7.37731e-06
7.03234e-06
6.71748e-06
6.42195e-06
6.15343e-06
5.9001e-06
5.67006e-06
5.45158e-06
5.2533e-06
5.06375e-06
4.89184e-06
4.72651e-06
4.57625e-06
4.43146e-06
4.29934e-06
4.17223e-06
4.05522e-06
3.94337e-06
3.83898e-06
3.74029e-06
3.64675e-06
3.55919e-06
3.47535e-06
3.39709e-06
3.32209e-06
3.25162e-06
3.18485e-06
3.12079e-06
3.06204e-06
3.0031e-06
2.95267e-06
2.8981e-06
2.86345e-06
2.79989e-06
2.82722e-06
2.81086e-06
2.01332e-05
1.54679e-05
9.63483e-06
9.39739e-06
9.49171e-06
9.49068e-06
9.43185e-06
9.29262e-06
9.05328e-06
8.77848e-06
8.48507e-06
8.18647e-06
7.89694e-06
7.61162e-06
7.33758e-06
7.07429e-06
6.8301e-06
6.59291e-06
6.3729e-06
6.15867e-06
5.96079e-06
5.76792e-06
5.59067e-06
5.4176e-06
5.25926e-06
5.10381e-06
4.96195e-06
4.82292e-06
4.69595e-06
4.57154e-06
4.45747e-06
4.34589e-06
4.24313e-06
4.14263e-06
4.05013e-06
3.95893e-06
3.87604e-06
3.79252e-06
3.71881e-06
3.64139e-06
3.57675e-06
3.50387e-06
3.44853e-06
3.37888e-06
3.33301e-06
3.26554e-06
3.23158e-06
3.1554e-06
3.16395e-06
3.1478e-06
2.01713e-05
1.86762e-05
8.69374e-06
5.54005e-06
5.62982e-06
5.93285e-06
6.29074e-06
6.57463e-06
6.75449e-06
6.86213e-06
6.88183e-06
6.86214e-06
6.81075e-06
6.72032e-06
6.61163e-06
6.48787e-06
6.35245e-06
6.20799e-06
6.06826e-06
5.923e-06
5.78522e-06
5.6446e-06
5.5131e-06
5.38019e-06
5.25651e-06
5.13302e-06
5.02037e-06
4.90643e-06
4.80225e-06
4.69669e-06
4.6005e-06
4.50264e-06
4.41433e-06
4.32332e-06
4.24284e-06
4.15767e-06
4.08505e-06
4.00473e-06
3.93999e-06
3.86336e-06
3.80666e-06
3.73288e-06
3.68427e-06
3.61289e-06
3.57197e-06
3.50284e-06
3.4693e-06
3.39319e-06
3.38734e-06
3.36559e-06
2.01671e-05
1.9724e-05
1.61684e-05
4.8634e-06
3.0424e-06
3.10507e-06
3.37319e-06
3.80185e-06
4.16744e-06
4.48387e-06
4.73127e-06
4.91928e-06
5.06055e-06
5.15882e-06
5.21804e-06
5.25252e-06
5.25593e-06
5.24669e-06
5.22527e-06
5.18315e-06
5.13737e-06
5.07859e-06
5.02011e-06
4.95204e-06
4.88653e-06
4.81318e-06
4.74363e-06
4.6678e-06
4.59797e-06
4.52306e-06
4.45524e-06
4.38218e-06
4.31779e-06
4.24663e-06
4.1866e-06
4.11729e-06
4.06216e-06
3.9945e-06
3.94469e-06
3.87872e-06
3.83483e-06
3.77022e-06
3.73148e-06
3.66831e-06
3.63414e-06
3.5727e-06
3.54259e-06
3.47643e-06
3.46316e-06
3.43707e-06
2.01476e-05
1.99343e-05
1.90659e-05
1.45009e-05
5.24778e-06
2.15541e-06
1.91435e-06
1.99296e-06
2.20556e-06
2.50277e-06
2.77848e-06
3.0297e-06
3.25462e-06
3.44933e-06
3.61309e-06
3.74933e-06
3.86097e-06
3.94689e-06
4.01905e-06
4.06825e-06
4.10764e-06
4.12857e-06
4.14427e-06
4.14421e-06
4.1407e-06
4.13026e-06
4.11638e-06
4.09315e-06
4.07099e-06
4.04089e-06
4.01321e-06
3.97821e-06
3.9476e-06
3.90843e-06
3.87727e-06
3.83497e-06
3.8042e-06
3.75963e-06
3.72991e-06
3.68348e-06
3.65471e-06
3.60704e-06
3.57989e-06
3.53181e-06
3.5063e-06
3.4583e-06
3.43418e-06
3.3834e-06
3.3644e-06
3.34124e-06
2.01216e-05
1.99661e-05
1.96425e-05
1.85471e-05
1.52161e-05
8.36878e-06
3.11258e-06
1.63417e-06
1.44253e-06
1.44893e-06
1.52508e-06
1.68444e-06
1.86637e-06
2.04138e-06
2.21134e-06
2.3681e-06
2.51539e-06
2.6436e-06
2.76212e-06
2.86269e-06
2.95428e-06
3.02959e-06
3.09739e-06
3.15149e-06
3.19887e-06
3.23548e-06
3.26808e-06
3.29078e-06
3.31047e-06
3.32252e-06
3.33176e-06
3.33602e-06
3.33611e-06
3.33389e-06
3.32991e-06
3.32044e-06
3.31342e-06
3.29837e-06
3.289e-06
3.26971e-06
3.25854e-06
3.23605e-06
3.22328e-06
3.19782e-06
3.18386e-06
3.15592e-06
3.14078e-06
3.10958e-06
3.0924e-06
3.07494e-06
2.00981e-05
1.99327e-05
1.97574e-05
1.93529e-05
1.85076e-05
1.65409e-05
1.23397e-05
6.8769e-06
2.99956e-06
1.49643e-06
1.24383e-06
1.14751e-06
1.15116e-06
1.1927e-06
1.28429e-06
1.38906e-06
1.50162e-06
1.60889e-06
1.71875e-06
1.82108e-06
1.92061e-06
2.01087e-06
2.09673e-06
2.17329e-06
2.2454e-06
2.30846e-06
2.36768e-06
2.41877e-06
2.46626e-06
2.50676e-06
2.54404e-06
2.57523e-06
2.6041e-06
2.62653e-06
2.64888e-06
2.66391e-06
2.68039e-06
2.68941e-06
2.70041e-06
2.70481e-06
2.71048e-06
2.71165e-06
2.71159e-06
2.7096e-06
2.70691e-06
2.69997e-06
2.69471e-06
2.68266e-06
2.67394e-06
2.66394e-06
2.00781e-05
1.98876e-05
1.9757e-05
1.94613e-05
1.91467e-05
1.86429e-05
1.75603e-05
1.54354e-05
1.17616e-05
7.47266e-06
4.00578e-06
1.92735e-06
1.21194e-06
1.05793e-06
9.83071e-07
9.41717e-07
9.52277e-07
9.84577e-07
1.0465e-06
1.10845e-06
1.1769e-06
1.24474e-06
1.31435e-06
1.38199e-06
1.44951e-06
1.51254e-06
1.57442e-06
1.63128e-06
1.68658e-06
1.73682e-06
1.78556e-06
1.82902e-06
1.87144e-06
1.90818e-06
1.94458e-06
1.97517e-06
2.00586e-06
2.03095e-06
2.05614e-06
2.07634e-06
2.09643e-06
2.11181e-06
2.12756e-06
2.1379e-06
2.14961e-06
2.15529e-06
2.16235e-06
2.164e-06
2.16416e-06
2.16232e-06
2.00614e-05
1.98539e-05
1.97344e-05
1.94715e-05
1.9256e-05
1.90481e-05
1.87381e-05
1.81947e-05
1.71057e-05
1.52476e-05
1.25944e-05
9.27291e-06
6.01363e-06
3.51231e-06
1.90321e-06
1.17601e-06
9.66675e-07
8.91702e-07
8.37767e-07
7.9554e-07
7.96526e-07
8.08796e-07
8.36976e-07
8.74032e-07
9.13245e-07
9.53517e-07
9.96675e-07
1.03898e-06
1.08323e-06
1.1258e-06
1.16897e-06
1.20943e-06
1.2499e-06
1.28731e-06
1.32463e-06
1.35854e-06
1.39251e-06
1.42279e-06
1.45305e-06
1.47967e-06
1.50622e-06
1.52865e-06
1.55167e-06
1.57012e-06
1.5888e-06
1.60344e-06
1.61738e-06
1.62814e-06
1.63583e-06
1.64244e-06
2.00475e-05
1.98303e-05
1.97078e-05
1.94493e-05
1.9273e-05
1.9116e-05
1.8967e-05
1.87526e-05
1.84659e-05
1.79186e-05
1.70879e-05
1.57204e-05
1.39116e-05
1.15764e-05
8.90943e-06
6.30621e-06
4.12883e-06
2.54659e-06
1.53348e-06
1.04305e-06
8.66768e-07
8.00947e-07
7.53102e-07
7.12064e-07
6.81866e-07
6.75775e-07
6.807e-07
6.9296e-07
7.13818e-07
7.35643e-07
7.59639e-07
7.83424e-07
8.09342e-07
8.35257e-07
8.62341e-07
8.88717e-07
9.1605e-07
9.41734e-07
9.67778e-07
9.92019e-07
1.01624e-06
1.03811e-06
1.06033e-06
1.07997e-06
1.0991e-06
1.11613e-06
1.13205e-06
1.14577e-06
1.15715e-06
1.16673e-06
2.00362e-05
1.98125e-05
1.96853e-05
1.9419e-05
1.9259e-05
1.91096e-05
1.9002e-05
1.88513e-05
1.87147e-05
1.85041e-05
1.82524e-05
1.78398e-05
1.72435e-05
1.63792e-05
1.51901e-05
1.36651e-05
1.18731e-05
9.80463e-06
7.67111e-06
5.67751e-06
3.99083e-06
2.70217e-06
1.77232e-06
1.19074e-06
8.96616e-07
7.71386e-07
7.14919e-07
6.77313e-07
6.42585e-07
6.11346e-07
5.90268e-07
5.78876e-07
5.79738e-07
5.83887e-07
5.928e-07
6.04249e-07
6.17424e-07
6.30296e-07
6.44194e-07
6.57994e-07
6.72561e-07
6.87024e-07
7.02004e-07
7.16641e-07
7.30777e-07
7.44556e-07
7.57501e-07
7.69287e-07
7.79671e-07
7.88203e-07
2.00272e-05
1.97986e-05
1.96661e-05
1.9397e-05
1.92334e-05
1.90822e-05
1.8984e-05
1.88547e-05
1.87389e-05
1.85992e-05
1.84634e-05
1.82931e-05
1.80864e-05
1.7801e-05
1.74193e-05
1.68798e-05
1.61799e-05
1.52678e-05
1.4141e-05
1.2812e-05
1.13319e-05
9.69067e-06
7.99915e-06
6.37204e-06
4.89403e-06
3.64634e-06
2.65438e-06
1.88858e-06
1.33819e-06
9.87965e-07
7.94466e-07
6.9679e-07
6.46652e-07
6.13925e-07
5.87175e-07
5.60846e-07
5.37337e-07
5.17857e-07
5.05419e-07
4.97607e-07
4.9654e-07
4.97769e-07
5.00733e-07
5.06143e-07
5.11104e-07
5.17508e-07
5.22634e-07
5.28494e-07
5.32514e-07
5.37414e-07
2.002e-05
1.979e-05
1.96461e-05
1.93804e-05
1.92094e-05
1.90533e-05
1.89461e-05
1.88285e-05
1.87174e-05
1.85928e-05
1.84748e-05
1.83489e-05
1.82248e-05
1.80817e-05
1.79261e-05
1.77281e-05
1.7486e-05
1.71702e-05
1.67702e-05
1.62557e-05
1.56282e-05
1.4864e-05
1.39632e-05
1.29309e-05
1.17977e-05
1.05771e-05
9.27493e-06
7.95419e-06
6.6654e-06
5.46375e-06
4.3782e-06
3.44758e-06
2.67876e-06
2.05197e-06
1.55581e-06
1.18492e-06
9.2774e-07
7.6445e-07
6.66847e-07
6.09902e-07
5.74851e-07
5.50327e-07
5.29429e-07
5.11471e-07
4.93079e-07
4.77779e-07
4.61997e-07
4.51909e-07
4.40192e-07
4.36211e-07
2.00144e-05
1.97899e-05
1.96199e-05
1.93669e-05
1.9189e-05
1.90267e-05
1.89103e-05
1.87927e-05
1.86775e-05
1.85577e-05
1.84441e-05
1.83277e-05
1.82151e-05
1.80967e-05
1.79827e-05
1.78617e-05
1.77362e-05
1.75953e-05
1.74356e-05
1.72451e-05
1.70163e-05
1.67389e-05
1.64014e-05
1.59952e-05
1.55124e-05
1.49515e-05
1.43054e-05
1.35733e-05
1.27655e-05
1.1886e-05
1.0962e-05
9.99221e-06
8.98375e-06
7.96955e-06
6.97382e-06
6.02357e-06
5.13537e-06
4.33074e-06
3.60954e-06
2.99393e-06
2.46953e-06
2.02811e-06
1.66146e-06
1.36503e-06
1.13268e-06
9.58761e-07
8.30658e-07
7.44601e-07
6.78998e-07
6.4708e-07
2.00102e-05
1.9794e-05
1.95932e-05
1.9353e-05
1.91703e-05
1.90014e-05
1.88769e-05
1.87571e-05
1.86378e-05
1.85157e-05
1.83982e-05
1.82824e-05
1.81704e-05
1.80588e-05
1.79504e-05
1.78425e-05
1.77333e-05
1.7626e-05
1.75166e-05
1.74069e-05
1.72889e-05
1.71642e-05
1.70225e-05
1.68643e-05
1.66802e-05
1.64686e-05
1.62204e-05
1.59343e-05
1.56039e-05
1.52242e-05
1.47992e-05
1.43224e-05
1.3796e-05
1.32208e-05
1.26001e-05
1.1941e-05
1.12514e-05
1.05361e-05
9.81423e-06
9.07574e-06
8.33226e-06
7.60786e-06
6.90381e-06
6.24213e-06
5.61985e-06
5.06259e-06
4.55286e-06
4.12597e-06
3.73953e-06
3.44465e-06
2.0007e-05
1.98016e-05
1.95686e-05
1.93394e-05
1.9153e-05
1.89776e-05
1.88453e-05
1.8723e-05
1.85993e-05
1.84747e-05
1.83519e-05
1.82347e-05
1.81185e-05
1.80049e-05
1.78944e-05
1.77869e-05
1.76803e-05
1.75795e-05
1.74762e-05
1.73799e-05
1.72788e-05
1.71832e-05
1.70831e-05
1.69869e-05
1.68842e-05
1.67817e-05
1.66657e-05
1.65457e-05
1.64098e-05
1.62575e-05
1.60925e-05
1.59023e-05
1.56906e-05
1.5457e-05
1.51929e-05
1.49071e-05
1.45877e-05
1.4244e-05
1.38734e-05
1.34803e-05
1.30554e-05
1.26216e-05
1.21605e-05
1.16961e-05
1.12169e-05
1.07508e-05
1.02809e-05
9.84127e-06
9.41047e-06
9.02165e-06
2.00047e-05
1.98101e-05
1.95457e-05
1.93258e-05
1.91363e-05
1.89553e-05
1.8815e-05
1.869e-05
1.85627e-05
1.84352e-05
1.83073e-05
1.81878e-05
1.80675e-05
1.79511e-05
1.78371e-05
1.77275e-05
1.76161e-05
1.75136e-05
1.74073e-05
1.73112e-05
1.72111e-05
1.71212e-05
1.70266e-05
1.69402e-05
1.685e-05
1.67678e-05
1.66754e-05
1.65938e-05
1.65058e-05
1.64164e-05
1.63306e-05
1.62354e-05
1.61357e-05
1.60338e-05
1.59186e-05
1.58027e-05
1.56676e-05
1.55277e-05
1.53756e-05
1.52116e-05
1.50287e-05
1.48445e-05
1.46393e-05
1.44257e-05
1.41977e-05
1.3967e-05
1.37263e-05
1.34842e-05
1.32379e-05
1.29992e-05
2.0003e-05
1.9819e-05
1.95246e-05
1.93117e-05
1.91198e-05
1.89346e-05
1.87861e-05
1.8658e-05
1.85278e-05
1.83974e-05
1.82651e-05
1.8143e-05
1.80187e-05
1.78994e-05
1.77817e-05
1.76698e-05
1.7554e-05
1.74492e-05
1.73389e-05
1.72407e-05
1.71364e-05
1.70432e-05
1.69459e-05
1.68573e-05
1.6766e-05
1.66862e-05
1.65974e-05
1.65221e-05
1.64406e-05
1.63615e-05
1.6289e-05
1.62122e-05
1.61339e-05
1.60607e-05
1.5984e-05
1.59136e-05
1.58334e-05
1.57587e-05
1.56821e-05
1.56012e-05
1.55142e-05
1.54327e-05
1.5342e-05
1.52475e-05
1.5147e-05
1.50481e-05
1.49443e-05
1.48336e-05
1.47203e-05
1.46112e-05
2.00018e-05
1.98274e-05
1.95053e-05
1.92967e-05
1.91029e-05
1.89154e-05
1.87586e-05
1.86273e-05
1.84949e-05
1.83616e-05
1.82255e-05
1.81008e-05
1.79729e-05
1.78508e-05
1.77295e-05
1.76151e-05
1.74954e-05
1.73879e-05
1.72743e-05
1.71737e-05
1.70662e-05
1.69696e-05
1.68701e-05
1.67773e-05
1.6684e-05
1.66004e-05
1.65077e-05
1.64291e-05
1.63448e-05
1.62642e-05
1.61903e-05
1.61149e-05
1.60393e-05
1.59704e-05
1.59004e-05
1.58361e-05
1.57648e-05
1.57025e-05
1.56395e-05
1.55759e-05
1.55098e-05
1.54526e-05
1.53916e-05
1.5331e-05
1.52685e-05
1.52136e-05
1.51551e-05
1.50941e-05
1.50312e-05
1.49769e-05
2.00009e-05
1.98305e-05
1.94891e-05
1.92815e-05
1.9086e-05
1.88981e-05
1.87331e-05
1.85983e-05
1.84642e-05
1.83282e-05
1.81892e-05
1.80618e-05
1.79307e-05
1.78061e-05
1.76814e-05
1.75646e-05
1.74413e-05
1.7331e-05
1.72148e-05
1.71115e-05
1.70013e-05
1.69016e-05
1.68005e-05
1.67039e-05
1.66091e-05
1.65223e-05
1.64275e-05
1.63452e-05
1.62578e-05
1.61751e-05
1.60971e-05
1.60194e-05
1.59383e-05
1.5866e-05
1.57939e-05
1.57258e-05
1.5653e-05
1.55899e-05
1.55253e-05
1.54632e-05
1.54001e-05
1.53473e-05
1.52898e-05
1.52347e-05
1.51784e-05
1.51316e-05
1.50803e-05
1.50304e-05
1.49777e-05
1.49348e-05
2.00003e-05
1.98288e-05
1.9476e-05
1.92656e-05
1.90688e-05
1.88828e-05
1.87099e-05
1.85715e-05
1.8436e-05
1.82978e-05
1.81565e-05
1.80266e-05
1.78927e-05
1.77658e-05
1.76382e-05
1.7519e-05
1.73926e-05
1.72796e-05
1.71613e-05
1.70556e-05
1.69427e-05
1.68405e-05
1.67377e-05
1.66382e-05
1.65419e-05
1.64524e-05
1.63562e-05
1.62711e-05
1.61813e-05
1.60972e-05
1.60159e-05
1.59366e-05
1.58516e-05
1.57771e-05
1.57021e-05
1.56307e-05
1.55551e-05
1.54895e-05
1.54204e-05
1.53557e-05
1.5289e-05
1.52334e-05
1.51718e-05
1.51151e-05
1.50569e-05
1.50089e-05
1.49555e-05
1.4906e-05
1.48531e-05
1.48083e-05
2e-05
1.98271e-05
1.94648e-05
1.92484e-05
1.90507e-05
1.88689e-05
1.86891e-05
1.8547e-05
1.84102e-05
1.82707e-05
1.81276e-05
1.79955e-05
1.78594e-05
1.77307e-05
1.76005e-05
1.74792e-05
1.73502e-05
1.72349e-05
1.71147e-05
1.70069e-05
1.68916e-05
1.67875e-05
1.66827e-05
1.65811e-05
1.64834e-05
1.63918e-05
1.62943e-05
1.62071e-05
1.61153e-05
1.60302e-05
1.59466e-05
1.58657e-05
1.57782e-05
1.57024e-05
1.56249e-05
1.55516e-05
1.5474e-05
1.54065e-05
1.5334e-05
1.52675e-05
1.51987e-05
1.51408e-05
1.50754e-05
1.50169e-05
1.49564e-05
1.4906e-05
1.48492e-05
1.47981e-05
1.47425e-05
1.46933e-05
1.99999e-05
1.98258e-05
1.94565e-05
1.92308e-05
1.90324e-05
1.88566e-05
1.86714e-05
1.85256e-05
1.83875e-05
1.82475e-05
1.8103e-05
1.79692e-05
1.78314e-05
1.77013e-05
1.7569e-05
1.74461e-05
1.73151e-05
1.71977e-05
1.7076e-05
1.69664e-05
1.6849e-05
1.67435e-05
1.66368e-05
1.6534e-05
1.64348e-05
1.63415e-05
1.62431e-05
1.61542e-05
1.60608e-05
1.5975e-05
1.58896e-05
1.58072e-05
1.57181e-05
1.56413e-05
1.5562e-05
1.54873e-05
1.54084e-05
1.53394e-05
1.52645e-05
1.51969e-05
1.51269e-05
1.50673e-05
1.49991e-05
1.494e-05
1.48778e-05
1.48257e-05
1.47665e-05
1.4714e-05
1.46558e-05
1.46039e-05
1.99999e-05
1.98251e-05
1.94511e-05
1.9214e-05
1.9015e-05
1.88462e-05
1.86576e-05
1.85078e-05
1.83683e-05
1.82288e-05
1.80834e-05
1.79484e-05
1.78093e-05
1.76784e-05
1.75447e-05
1.74204e-05
1.72879e-05
1.71692e-05
1.70461e-05
1.69352e-05
1.68162e-05
1.67096e-05
1.66012e-05
1.64979e-05
1.63975e-05
1.63028e-05
1.62037e-05
1.61138e-05
1.60192e-05
1.59328e-05
1.5846e-05
1.57624e-05
1.56723e-05
1.55946e-05
1.55139e-05
1.54381e-05
1.53584e-05
1.52883e-05
1.52116e-05
1.51432e-05
1.50725e-05
1.50115e-05
1.49415e-05
1.48821e-05
1.48188e-05
1.47655e-05
1.47045e-05
1.46507e-05
1.45908e-05
1.45374e-05
1.99999e-05
1.98248e-05
1.94485e-05
1.91987e-05
1.8999e-05
1.88376e-05
1.8648e-05
1.84942e-05
1.83534e-05
1.8215e-05
1.80694e-05
1.79337e-05
1.7794e-05
1.76627e-05
1.75281e-05
1.74029e-05
1.72697e-05
1.715e-05
1.70259e-05
1.6914e-05
1.6794e-05
1.66866e-05
1.65772e-05
1.64737e-05
1.63725e-05
1.62768e-05
1.61774e-05
1.6087e-05
1.59918e-05
1.5905e-05
1.58171e-05
1.57325e-05
1.5642e-05
1.55638e-05
1.5482e-05
1.54054e-05
1.53251e-05
1.52541e-05
1.51762e-05
1.51072e-05
1.50359e-05
1.49739e-05
1.49026e-05
1.48431e-05
1.4779e-05
1.47248e-05
1.46623e-05
1.46074e-05
1.45461e-05
1.44916e-05
1.99999e-05
1.98249e-05
1.94484e-05
1.91858e-05
1.8985e-05
1.88307e-05
1.86427e-05
1.8485e-05
1.8343e-05
1.82063e-05
1.80612e-05
1.79255e-05
1.77856e-05
1.76546e-05
1.75197e-05
1.73942e-05
1.72608e-05
1.71407e-05
1.70162e-05
1.69036e-05
1.67831e-05
1.66753e-05
1.65655e-05
1.64624e-05
1.63609e-05
1.62646e-05
1.61653e-05
1.60749e-05
1.59797e-05
1.58927e-05
1.5804e-05
1.5719e-05
1.56286e-05
1.555e-05
1.54676e-05
1.53905e-05
1.53096e-05
1.52381e-05
1.51594e-05
1.50901e-05
1.5018e-05
1.49555e-05
1.48834e-05
1.48237e-05
1.4759e-05
1.47041e-05
1.464e-05
1.45845e-05
1.45216e-05
1.4466e-05
1.99999e-05
1.98254e-05
1.94506e-05
1.91755e-05
1.89731e-05
1.88252e-05
1.86415e-05
1.84805e-05
1.83374e-05
1.82028e-05
1.8059e-05
1.79241e-05
1.77846e-05
1.76544e-05
1.75199e-05
1.73947e-05
1.72617e-05
1.71419e-05
1.70173e-05
1.69045e-05
1.67843e-05
1.66765e-05
1.65668e-05
1.64642e-05
1.63628e-05
1.62666e-05
1.61677e-05
1.60777e-05
1.59827e-05
1.5896e-05
1.58068e-05
1.57218e-05
1.56319e-05
1.55534e-05
1.54706e-05
1.53934e-05
1.53123e-05
1.52406e-05
1.51617e-05
1.50923e-05
1.50196e-05
1.49568e-05
1.48845e-05
1.48247e-05
1.47593e-05
1.47039e-05
1.46384e-05
1.45824e-05
1.45178e-05
1.44608e-05
1.99999e-05
1.98265e-05
1.94553e-05
1.91687e-05
1.89638e-05
1.88214e-05
1.86439e-05
1.84807e-05
1.83368e-05
1.82045e-05
1.80626e-05
1.79289e-05
1.77901e-05
1.76611e-05
1.75272e-05
1.74027e-05
1.72708e-05
1.71515e-05
1.70273e-05
1.69146e-05
1.67951e-05
1.66878e-05
1.65788e-05
1.64774e-05
1.63763e-05
1.62809e-05
1.61829e-05
1.6094e-05
1.59997e-05
1.59137e-05
1.58243e-05
1.57399e-05
1.56511e-05
1.55728e-05
1.54898e-05
1.54129e-05
1.53317e-05
1.52602e-05
1.51813e-05
1.51119e-05
1.50386e-05
1.4976e-05
1.49038e-05
1.48439e-05
1.47777e-05
1.47221e-05
1.46555e-05
1.45991e-05
1.45332e-05
1.44745e-05
1.99999e-05
1.9828e-05
1.9462e-05
1.91652e-05
1.89574e-05
1.88187e-05
1.86497e-05
1.84853e-05
1.83404e-05
1.82104e-05
1.80713e-05
1.79398e-05
1.78024e-05
1.76754e-05
1.75428e-05
1.74198e-05
1.72897e-05
1.71717e-05
1.70485e-05
1.69362e-05
1.68184e-05
1.67121e-05
1.66045e-05
1.65046e-05
1.64044e-05
1.63108e-05
1.62139e-05
1.61268e-05
1.60338e-05
1.59487e-05
1.58599e-05
1.57765e-05
1.56894e-05
1.56117e-05
1.55289e-05
1.54527e-05
1.5372e-05
1.53007e-05
1.52223e-05
1.51532e-05
1.50795e-05
1.50172e-05
1.49456e-05
1.48856e-05
1.48184e-05
1.47626e-05
1.46952e-05
1.46384e-05
1.45707e-05
1.45106e-05
1.99999e-05
1.983e-05
1.94705e-05
1.91655e-05
1.89539e-05
1.88177e-05
1.86579e-05
1.84946e-05
1.83489e-05
1.82213e-05
1.80855e-05
1.79566e-05
1.78211e-05
1.76964e-05
1.75656e-05
1.74447e-05
1.73169e-05
1.72006e-05
1.70787e-05
1.69673e-05
1.68519e-05
1.67471e-05
1.66412e-05
1.65434e-05
1.64443e-05
1.63534e-05
1.62579e-05
1.61731e-05
1.60818e-05
1.59979e-05
1.59104e-05
1.58287e-05
1.57433e-05
1.56667e-05
1.55846e-05
1.55095e-05
1.54296e-05
1.53588e-05
1.52811e-05
1.52127e-05
1.51391e-05
1.50774e-05
1.50064e-05
1.49466e-05
1.48784e-05
1.48226e-05
1.47548e-05
1.46976e-05
1.46281e-05
1.4567e-05
1.99999e-05
1.98325e-05
1.94806e-05
1.9169e-05
1.89532e-05
1.88181e-05
1.8668e-05
1.85076e-05
1.83615e-05
1.8236e-05
1.81039e-05
1.79782e-05
1.78451e-05
1.77231e-05
1.75944e-05
1.74762e-05
1.73512e-05
1.72369e-05
1.71169e-05
1.70069e-05
1.68944e-05
1.67913e-05
1.66876e-05
1.65923e-05
1.64949e-05
1.64074e-05
1.63136e-05
1.62314e-05
1.61425e-05
1.60599e-05
1.59745e-05
1.58951e-05
1.58114e-05
1.57365e-05
1.56556e-05
1.55817e-05
1.55031e-05
1.54331e-05
1.53562e-05
1.52887e-05
1.52158e-05
1.51549e-05
1.50844e-05
1.50248e-05
1.49561e-05
1.49003e-05
1.48322e-05
1.47746e-05
1.47036e-05
1.46413e-05
1.99999e-05
1.98354e-05
1.94914e-05
1.91763e-05
1.89557e-05
1.88201e-05
1.86796e-05
1.85241e-05
1.83778e-05
1.82543e-05
1.81259e-05
1.80039e-05
1.78735e-05
1.77545e-05
1.76284e-05
1.75133e-05
1.73915e-05
1.72794e-05
1.71616e-05
1.70536e-05
1.69446e-05
1.68433e-05
1.67424e-05
1.66498e-05
1.65548e-05
1.6471e-05
1.63794e-05
1.63001e-05
1.6214e-05
1.61331e-05
1.60504e-05
1.59739e-05
1.58919e-05
1.5819e-05
1.574e-05
1.56674e-05
1.55903e-05
1.55216e-05
1.54457e-05
1.53794e-05
1.53076e-05
1.52476e-05
1.51775e-05
1.51181e-05
1.50492e-05
1.49937e-05
1.49252e-05
1.48673e-05
1.4795e-05
1.47315e-05
1.99999e-05
1.98387e-05
1.9503e-05
1.91866e-05
1.89613e-05
1.88242e-05
1.86924e-05
1.85434e-05
1.83974e-05
1.82757e-05
1.8151e-05
1.8033e-05
1.79057e-05
1.77898e-05
1.76667e-05
1.75553e-05
1.74367e-05
1.73271e-05
1.72118e-05
1.71064e-05
1.70008e-05
1.69016e-05
1.68038e-05
1.67143e-05
1.66223e-05
1.65423e-05
1.64536e-05
1.63773e-05
1.62944e-05
1.62156e-05
1.61361e-05
1.60629e-05
1.59827e-05
1.59122e-05
1.58356e-05
1.57644e-05
1.56891e-05
1.56219e-05
1.55472e-05
1.54823e-05
1.54122e-05
1.53531e-05
1.52831e-05
1.52242e-05
1.51555e-05
1.51004e-05
1.50314e-05
1.49734e-05
1.48996e-05
1.48353e-05
1.99999e-05
1.98422e-05
1.9515e-05
1.91995e-05
1.89697e-05
1.88302e-05
1.87059e-05
1.85647e-05
1.84197e-05
1.82999e-05
1.81785e-05
1.80646e-05
1.79407e-05
1.78282e-05
1.77082e-05
1.76009e-05
1.74855e-05
1.73785e-05
1.72662e-05
1.71638e-05
1.70614e-05
1.69646e-05
1.68704e-05
1.67841e-05
1.66956e-05
1.66194e-05
1.65341e-05
1.64611e-05
1.63814e-05
1.63056e-05
1.62295e-05
1.61599e-05
1.60817e-05
1.60138e-05
1.594e-05
1.58704e-05
1.57969e-05
1.57317e-05
1.56585e-05
1.55952e-05
1.55269e-05
1.54686e-05
1.53987e-05
1.53404e-05
1.52724e-05
1.52177e-05
1.51481e-05
1.509e-05
1.50149e-05
1.49498e-05
1.99999e-05
1.98458e-05
1.9527e-05
1.92147e-05
1.89807e-05
1.88384e-05
1.87201e-05
1.85873e-05
1.84443e-05
1.83264e-05
1.82078e-05
1.80981e-05
1.79779e-05
1.78689e-05
1.77523e-05
1.76493e-05
1.75368e-05
1.74327e-05
1.73236e-05
1.72246e-05
1.71251e-05
1.70311e-05
1.69405e-05
1.68578e-05
1.67729e-05
1.67007e-05
1.66191e-05
1.65498e-05
1.64732e-05
1.6401e-05
1.63286e-05
1.62626e-05
1.61867e-05
1.61217e-05
1.60508e-05
1.59831e-05
1.59116e-05
1.58484e-05
1.5777e-05
1.57155e-05
1.56492e-05
1.55914e-05
1.55216e-05
1.54643e-05
1.53972e-05
1.53429e-05
1.52727e-05
1.52143e-05
1.51383e-05
1.50725e-05
1.99999e-05
1.98496e-05
1.95391e-05
1.92315e-05
1.89941e-05
1.88488e-05
1.87347e-05
1.86104e-05
1.84707e-05
1.83547e-05
1.82384e-05
1.81328e-05
1.80165e-05
1.79112e-05
1.77981e-05
1.76993e-05
1.75896e-05
1.74888e-05
1.73829e-05
1.72876e-05
1.71904e-05
1.70997e-05
1.70129e-05
1.69338e-05
1.68527e-05
1.67846e-05
1.67068e-05
1.66415e-05
1.6568e-05
1.65e-05
1.64314e-05
1.63689e-05
1.62958e-05
1.62339e-05
1.61659e-05
1.61002e-05
1.60308e-05
1.59699e-05
1.59007e-05
1.5841e-05
1.57762e-05
1.57189e-05
1.56496e-05
1.55935e-05
1.55275e-05
1.54734e-05
1.54025e-05
1.5344e-05
1.52671e-05
1.52007e-05
1.99999e-05
1.98535e-05
1.95511e-05
1.92494e-05
1.90096e-05
1.88613e-05
1.87497e-05
1.86335e-05
1.84983e-05
1.83844e-05
1.82701e-05
1.81684e-05
1.80559e-05
1.79545e-05
1.78451e-05
1.77502e-05
1.76429e-05
1.75459e-05
1.74433e-05
1.73513e-05
1.72564e-05
1.71695e-05
1.70861e-05
1.70107e-05
1.69334e-05
1.68697e-05
1.67956e-05
1.67346e-05
1.66641e-05
1.6601e-05
1.65362e-05
1.64769e-05
1.64072e-05
1.63485e-05
1.6283e-05
1.62196e-05
1.61526e-05
1.60941e-05
1.60274e-05
1.59693e-05
1.59057e-05
1.58491e-05
1.57806e-05
1.57259e-05
1.56607e-05
1.56067e-05
1.55351e-05
1.54766e-05
1.5399e-05
1.53322e-05
1.99999e-05
1.98573e-05
1.9563e-05
1.9268e-05
1.90268e-05
1.88759e-05
1.87649e-05
1.86564e-05
1.85265e-05
1.84149e-05
1.83023e-05
1.82042e-05
1.80954e-05
1.79983e-05
1.78926e-05
1.7801e-05
1.76962e-05
1.76033e-05
1.75037e-05
1.7415e-05
1.73221e-05
1.72394e-05
1.7159e-05
1.70875e-05
1.7014e-05
1.69546e-05
1.68841e-05
1.68276e-05
1.67605e-05
1.67023e-05
1.66411e-05
1.6585e-05
1.65193e-05
1.64638e-05
1.64005e-05
1.63397e-05
1.62751e-05
1.62193e-05
1.61551e-05
1.60982e-05
1.60357e-05
1.59799e-05
1.59128e-05
1.58593e-05
1.57946e-05
1.57406e-05
1.56685e-05
1.56102e-05
1.55319e-05
1.5465e-05
1.99999e-05
1.98611e-05
1.95747e-05
1.92867e-05
1.90454e-05
1.88921e-05
1.87804e-05
1.86787e-05
1.85549e-05
1.84457e-05
1.8335e-05
1.824e-05
1.81347e-05
1.80422e-05
1.79399e-05
1.78512e-05
1.77489e-05
1.76605e-05
1.75634e-05
1.74777e-05
1.7387e-05
1.73084e-05
1.72305e-05
1.7163e-05
1.70934e-05
1.70382e-05
1.69713e-05
1.69192e-05
1.68559e-05
1.68026e-05
1.67447e-05
1.6692e-05
1.66305e-05
1.6578e-05
1.65168e-05
1.64588e-05
1.63972e-05
1.63439e-05
1.62819e-05
1.6226e-05
1.61644e-05
1.61099e-05
1.60446e-05
1.59919e-05
1.59273e-05
1.58734e-05
1.58011e-05
1.5743e-05
1.56642e-05
1.55973e-05
1.99999e-05
1.98649e-05
1.95861e-05
1.93052e-05
1.9065e-05
1.89097e-05
1.8796e-05
1.87005e-05
1.85829e-05
1.84767e-05
1.83677e-05
1.82754e-05
1.81734e-05
1.80857e-05
1.79865e-05
1.79003e-05
1.7801e-05
1.77169e-05
1.76218e-05
1.75391e-05
1.74505e-05
1.73758e-05
1.72998e-05
1.72365e-05
1.71706e-05
1.71193e-05
1.70564e-05
1.70085e-05
1.69495e-05
1.69006e-05
1.6846e-05
1.67971e-05
1.67396e-05
1.669e-05
1.66307e-05
1.6576e-05
1.65175e-05
1.64664e-05
1.64063e-05
1.63514e-05
1.62909e-05
1.62379e-05
1.61745e-05
1.6122e-05
1.60572e-05
1.60036e-05
1.59316e-05
1.58737e-05
1.57943e-05
1.57277e-05
1.99999e-05
1.98685e-05
1.95972e-05
1.93234e-05
1.90851e-05
1.89281e-05
1.88119e-05
1.87217e-05
1.86104e-05
1.85073e-05
1.84001e-05
1.83103e-05
1.82116e-05
1.81284e-05
1.80319e-05
1.79484e-05
1.78521e-05
1.77718e-05
1.76784e-05
1.75988e-05
1.75121e-05
1.74409e-05
1.73664e-05
1.73076e-05
1.7245e-05
1.71972e-05
1.71386e-05
1.70948e-05
1.70403e-05
1.69953e-05
1.69443e-05
1.68994e-05
1.68454e-05
1.67985e-05
1.67414e-05
1.66905e-05
1.66351e-05
1.65855e-05
1.65271e-05
1.64734e-05
1.64142e-05
1.63629e-05
1.6301e-05
1.62483e-05
1.61834e-05
1.61304e-05
1.60589e-05
1.60011e-05
1.59211e-05
1.5855e-05
1.99999e-05
1.9872e-05
1.96077e-05
1.93412e-05
1.91055e-05
1.8947e-05
1.88281e-05
1.87423e-05
1.86368e-05
1.85374e-05
1.84321e-05
1.83446e-05
1.82491e-05
1.817e-05
1.80759e-05
1.79953e-05
1.7902e-05
1.78251e-05
1.77331e-05
1.76566e-05
1.75712e-05
1.7503e-05
1.74299e-05
1.73755e-05
1.73158e-05
1.72716e-05
1.72174e-05
1.71775e-05
1.71274e-05
1.70863e-05
1.7039e-05
1.69981e-05
1.69471e-05
1.6903e-05
1.68485e-05
1.68018e-05
1.67488e-05
1.67003e-05
1.66435e-05
1.65914e-05
1.65338e-05
1.64839e-05
1.64231e-05
1.637e-05
1.63053e-05
1.62529e-05
1.61819e-05
1.61242e-05
1.6044e-05
1.59786e-05
1.99999e-05
1.98753e-05
1.96177e-05
1.93586e-05
1.91255e-05
1.8966e-05
1.88448e-05
1.87625e-05
1.86621e-05
1.85667e-05
1.84634e-05
1.83782e-05
1.82857e-05
1.82101e-05
1.81184e-05
1.80411e-05
1.79505e-05
1.78764e-05
1.77858e-05
1.77123e-05
1.76275e-05
1.7562e-05
1.74902e-05
1.744e-05
1.73826e-05
1.73421e-05
1.72923e-05
1.72562e-05
1.72102e-05
1.71734e-05
1.71297e-05
1.70925e-05
1.70443e-05
1.7003e-05
1.69519e-05
1.6909e-05
1.68578e-05
1.68104e-05
1.67554e-05
1.67051e-05
1.66491e-05
1.66e-05
1.654e-05
1.64868e-05
1.64226e-05
1.63705e-05
1.62999e-05
1.62426e-05
1.61627e-05
1.60978e-05
1.99999e-05
1.98785e-05
1.96271e-05
1.93755e-05
1.91449e-05
1.89849e-05
1.8862e-05
1.8782e-05
1.8686e-05
1.85951e-05
1.84939e-05
1.84111e-05
1.83215e-05
1.82488e-05
1.81595e-05
1.80858e-05
1.79974e-05
1.79257e-05
1.78366e-05
1.77655e-05
1.76809e-05
1.76177e-05
1.75471e-05
1.75006e-05
1.74451e-05
1.74088e-05
1.73629e-05
1.73305e-05
1.72885e-05
1.72563e-05
1.72157e-05
1.71821e-05
1.71367e-05
1.70985e-05
1.70511e-05
1.70113e-05
1.69616e-05
1.69156e-05
1.68627e-05
1.68142e-05
1.67594e-05
1.67107e-05
1.66514e-05
1.65986e-05
1.65349e-05
1.64828e-05
1.64124e-05
1.6356e-05
1.62769e-05
1.62127e-05
1.99999e-05
1.98815e-05
1.96358e-05
1.9392e-05
1.91633e-05
1.90037e-05
1.88795e-05
1.88006e-05
1.87086e-05
1.86225e-05
1.85233e-05
1.84434e-05
1.83563e-05
1.82859e-05
1.81991e-05
1.8129e-05
1.80426e-05