/*--------------------------------*- C++ -*----------------------------------*\
  =========                 |
  \\      /  F ield         | OpenFOAM: The Open Source CFD Toolbox
   \\    /   O peration     | Website:  https://openfoam.org
    \\  /    A nd           | Version:  7
     \\/     M anipulation  |
\*---------------------------------------------------------------------------*/
FoamFile
{
    version     2.0;
    format      ascii;
    class       volScalarField;
    location    "0.45";
    object      nut;
}
// * * * * * * * * * * * * * * * * * * * * * * * * * * * * * * * * * * * * * //

dimensions      [0 2 -1 0 0 0 0];

internalField   nonuniform List<scalar> 
70000
(
0
0
0
0
0
0
0
0
0
0
0
0
0
0
0
0
0
0
0
0
0
0
0
0
0
0
0
0
0
0
0
0
0
0
0
0
0
0
0
0
0
2.98765e-14
0
1.17889e-13
0
3.02213e-13
0
1.04124e-12
0
0
0
0
0
0
0
0
0
0
0
0
0
0
0
0
0
0
0
0
0
0
0
0
0
0
0
0
0
0
0
0
0
0
0
0
0
0
0
0
0
0
0
7.93604e-14
2.0567e-15
2.4036e-13
0
5.92878e-13
0
2.10641e-12
0
0
0
0
0
0
0
0
0
0
0
0
0
0
0
0
0
0
0
0
0
0
0
0
0
0
0
0
0
0
0
0
0
0
0
0
0
0
0
0
0
5.06521e-15
0
1.05972e-13
0
3.09458e-13
0
7.8769e-13
0
2.77671e-12
3.51005e-12
0
0
0
0
0
0
0
0
0
0
0
0
0
0
0
0
0
0
0
0
0
0
0
0
0
0
0
0
0
0
0
0
0
0
0
0
0
0
0
0
0
0
1.51309e-14
0
2.45432e-13
0
8.02828e-13
0
2.64493e-12
7.43222e-12
0
0
0
0
0
0
0
0
0
0
0
0
0
0
0
0
0
0
0
0
0
0
0
0
0
0
0
0
0
0
0
0
0
0
0
0
0
0
0
0
0
0
0
0
9.17228e-14
0
6.67212e-13
0
1.96067e-12
9.15757e-12
0
9.44868e-10
0
0
0
0
0
0
0
0
0
0
0
0
0
0
0
0
0
0
0
0
0
0
0
0
0
0
0
0
0
0
0
0
0
0
0
0
0
0
0
0
0
0
0
0
4.36391e-13
0
1.12448e-12
9.4434e-12
0
1.31897e-08
0
0
0
0
0
0
0
0
0
0
0
0
0
0
0
0
0
0
0
0
0
0
0
0
0
0
0
0
0
0
0
0
0
0
0
0
0
0
0
0
0
0
0
0
1.17649e-13
0
1.79269e-13
9.27758e-12
0
1.20833e-08
0
0
0
0
0
0
0
0
0
0
0
0
0
0
0
0
0
0
0
0
0
0
0
0
0
0
0
0
0
0
0
0
0
0
0
0
0
0
0
0
0
0
0
0
0
0
0
8.85643e-12
0
1.10642e-08
0
0
0
0
0
0
0
0
0
0
0
0
0
0
0
0
0
0
0
0
0
0
0
0
0
0
0
0
0
0
0
0
0
0
0
0
0
0
0
0
0
0
0
0
0
0
0
8.082e-12
0
1.02161e-08
0
0
0
0
0
0
0
0
0
0
0
0
0
0
0
0
0
0
0
0
0
0
0
0
0
0
0
0
0
0
0
0
0
0
0
0
0
0
0
0
0
0
0
0
0
0
0
6.94384e-12
0
9.50587e-09
0
0
0
0
0
0
0
0
0
0
0
0
0
0
0
0
0
0
0
0
0
0
0
0
0
0
0
0
0
0
0
0
0
0
0
0
0
0
0
0
0
0
0
0
0
0
0
5.55917e-12
0
8.86288e-09
0
0
0
0
0
0
0
0
0
0
0
0
0
0
0
0
0
0
0
0
0
0
0
0
0
0
0
0
0
0
0
0
0
0
0
0
0
0
0
0
0
0
0
0
0
0
0
4.06313e-12
0
8.22139e-09
0
0
0
0
0
0
0
0
0
0
0
0
0
0
0
0
0
0
0
0
0
0
0
0
0
0
0
0
0
0
0
0
0
0
0
0
0
0
0
0
0
0
0
0
0
0
0
2.5755e-12
0
7.56157e-09
0
0
0
0
0
0
0
0
0
0
0
0
0
0
0
0
0
0
0
0
0
0
0
0
0
0
0
0
0
0
0
0
0
0
0
0
0
0
0
0
0
0
0
0
0
0
0
1.19928e-12
0
6.88957e-09
0
0
0
0
0
0
0
0
0
0
0
0
0
0
0
1.18798e-11
1.83603e-11
4.68908e-12
0
0
0
0
0
0
0
0
0
0
0
0
0
0
0
0
0
0
0
0
0
0
0
0
0
0
0
0
0
2.70383e-14
0
6.21646e-09
0
0
0
0
0
0
0
0
0
0
0
0
0
0
0
0
0
0
4.56552e-12
2.47337e-11
3.15194e-11
2.02642e-11
5.84186e-12
0
0
0
0
0
0
0
0
0
0
0
0
0
0
0
0
0
0
0
0
0
0
1.88335e-13
0
0
0
5.55079e-09
0
0
0
5.22968e-11
0
0
0
0
0
0
0
0
0
0
0
0
0
0
0
0
0
0
0
9.23457e-12
1.7492e-11
1.96834e-11
1.38112e-11
4.06228e-12
0
0
0
0
0
0
0
0
0
0
0
0
0
0
0
0
0
1.27331e-12
0
0
0
4.89881e-09
0
0
0
1.3222e-10
0
0
0
0
0
0
0
0
0
0
0
0
0
0
0
0
0
0
0
0
0
0
0
0
0
0
0
0
0
0
0
0
0
0
0
0
0
0
0
0
0
2.78352e-12
0
9.78056e-14
0
4.26605e-09
0
0
0
1.83234e-10
0
0
0
0
0
0
0
0
0
0
0
0
0
0
0
0
0
0
0
0
0
0
0
0
0
0
0
0
0
0
0
0
0
0
0
0
0
0
0
0
0
0
0
0
0
3.65761e-09
0
0
0
1.90108e-10
0
0
0
0
0
0
0
0
0
0
0
0
0
0
0
0
0
0
0
0
0
0
0
0
0
0
0
0
0
0
0
0
0
0
0
0
0
0
0
0
0
0
0
0
0
3.07778e-09
0
0
0
1.35302e-10
0
0
0
0
0
0
0
0
0
0
0
0
0
0
0
0
0
0
0
0
0
0
0
0
0
0
0
0
0
0
0
0
0
0
0
0
0
0
0
0
0
0
0
0
0
2.52949e-09
0
0
0
0
0
0
0
0
0
0
0
0
0
0
0
0
0
0
0
0
0
0
0
0
0
0
0
0
0
0
0
0
0
0
0
0
0
0
0
0
0
0
0
0
0
0
0
0
0
2.01407e-09
0
0
0
0
0
0
0
0
0
0
0
0
0
0
0
0
0
0
0
0
0
0
0
0
0
0
0
0
0
0
0
0
0
0
0
0
0
0
0
0
0
0
0
0
0
0
0
0
0
1.53111e-09
0
0
0
0
0
0
0
0
0
0
0
0
0
0
0
0
0
0
0
0
0
0
0
0
0
0
0
0
0
0
0
0
0
0
0
0
0
0
0
0
0
0
0
0
0
0
0
0
0
1.0786e-09
0
0
0
0
0
0
0
0
0
0
0
0
0
0
0
0
0
0
0
0
0
0
0
0
0
0
0
0
0
0
0
0
0
0
0
0
0
0
0
0
0
0
0
0
0
0
0
0
0
6.53355e-10
0
0
0
0
0
0
0
0
0
0
0
0
0
0
0
0
0
0
0
0
0
0
0
0
0
0
0
0
0
0
0
0
0
0
0
0
0
0
0
0
0
0
0
0
0
0
0
0
0
2.516e-10
0
0
0
0
0
0
0
0
0
0
0
0
0
0
0
0
0
0
0
0
0
0
0
0
0
0
0
0
0
0
0
0
0
0
0
0
0
0
0
0
0
0
0
0
0
0
0
0
0
0
0
0
0
0
0
0
0
0
0
0
0
0
0
0
0
0
0
0
0
0
0
0
0
0
0
0
0
0
0
0
0
0
0
0
0
0
0
0
0
0
0
0
0
0
0
0
0
0
0
0
0
0
0
0
0
0
0
0
0
0
0
0
0
0
0
0
0
0
0
0
0
0
0
0
0
0
0
0
0
0
0
0
0
0
0
0
0
0
0
0
0
0
0
0
0
0
0
0
5.99843e-11
0
0
0
0
0
0
0
0
0
0
0
0
0
0
0
0
0
0
0
0
0
0
0
0
0
0
0
0
0
0
0
0
0
0
0
0
0
0
0
0
0
0
0
0
0
0
0
0
0
1.59138e-10
0
0
0
0
0
0
0
0
0
0
0
0
0
0
0
0
0
0
0
0
0
0
0
0
0
0
0
0
0
0
0
0
0
0
0
0
0
0
0
0
0
0
0
0
0
0
0
0
3.09899e-11
2.68943e-10
0
0
0
0
0
0
0
0
0
0
0
0
0
0
0
0
0
0
0
0
0
0
0
0
0
0
0
0
0
0
0
0
0
0
0
0
0
0
0
0
0
0
0
0
0
0
0
0
1.2913e-10
3.88354e-10
0
7.88612e-10
0
0
0
0
0
0
0
0
0
0
0
0
0
0
0
0
0
0
0
0
0
0
0
0
0
0
0
0
0
0
0
0
0
0
0
0
0
0
0
0
0
0
0
0
0
0
2.37875e-10
5.15867e-10
0
1.70974e-09
0
0
0
0
0
0
0
0
0
0
0
0
0
0
0
0
0
0
0
0
0
0
0
0
0
0
0
0
0
0
0
0
0
0
0
0
0
0
0
0
0
0
0
0
0
1.69151e-11
3.56021e-10
6.49245e-10
0
2.50532e-09
0
0
0
0
0
0
0
0
0
0
0
0
0
0
0
0
0
0
0
0
0
0
0
0
0
0
0
0
0
0
0
0
0
0
0
0
0
0
0
0
0
0
0
0
0
1.04876e-10
4.81774e-10
7.8604e-10
0
3.17767e-09
0
0
0
0
0
0
0
0
0
0
0
0
0
0
0
0
0
0
0
0
0
0
0
0
0
0
0
0
0
0
0
0
0
0
0
0
0
0
0
0
0
0
0
0
0
2.00893e-10
6.12955e-10
9.25814e-10
0
3.73222e-09
0
0
0
0
0
0
0
0
0
0
0
0
0
0
0
0
0
0
0
0
0
0
0
0
0
0
0
0
0
0
0
0
0
0
0
0
0
0
0
0
0
0
0
0
0
3.03239e-10
7.46973e-10
1.06631e-09
0
4.17666e-09
0
0
0
0
0
0
0
0
0
0
0
0
0
0
0
0
0
0
0
0
0
0
0
0
0
0
0
0
0
0
0
0
0
0
0
0
0
0
0
0
0
0
0
0
5.39758e-11
4.09853e-10
8.80718e-10
1.19984e-09
0
4.51941e-09
0
0
0
0
0
0
0
0
0
0
0
0
0
0
0
0
0
0
0
0
0
0
0
0
0
0
0
0
0
0
0
0
0
0
0
0
0
0
0
0
0
0
0
0
1.34192e-10
5.18095e-10
1.01061e-09
1.32166e-09
0
4.76949e-09
0
0
0
0
0
0
0
0
0
0
0
0
0
0
0
0
0
0
0
0
0
0
0
0
0
0
0
0
0
0
0
0
0
0
0
0
0
0
0
0
0
0
0
0
2.16956e-10
6.24976e-10
1.13296e-09
1.43075e-09
0
4.93712e-09
0
0
0
0
0
0
0
0
0
0
0
0
0
0
0
0
0
0
0
0
0
0
0
0
0
0
0
0
0
0
0
0
0
0
0
0
0
0
0
0
0
0
0
0
2.99856e-10
7.27344e-10
1.24402e-09
1.52337e-09
0
5.03352e-09
0
0
0
0
0
0
0
0
0
0
0
0
0
0
0
0
0
0
0
0
0
0
0
0
0
0
0
0
0
0
0
0
0
0
0
0
0
0
0
0
0
0
0
0
3.80232e-10
8.21858e-10
1.34004e-09
1.59559e-09
0
5.06993e-09
0
0
0
0
0
0
0
0
0
0
0
0
0
0
0
0
0
0
0
0
0
0
0
0
0
0
0
0
0
0
0
0
0
0
0
0
0
0
0
0
0
0
0
5.87926e-11
4.55283e-10
9.05159e-10
1.41737e-09
1.64435e-09
0
5.05665e-09
0
0
0
0
0
0
0
0
0
0
0
0
0
0
0
0
0
0
0
0
0
0
0
0
0
0
0
0
0
0
0
0
0
0
0
0
0
0
0
0
0
0
0
1.15021e-10
5.22191e-10
9.74032e-10
1.47268e-09
1.66668e-09
0
5.00273e-09
0
0
0
0
0
0
0
0
0
0
0
0
0
0
0
0
0
0
0
0
0
0
0
0
0
0
0
0
0
0
0
0
0
0
0
0
0
0
0
0
0
0
0
1.65791e-10
5.78235e-10
1.02555e-09
1.50313e-09
1.66033e-09
0
4.91582e-09
0
0
0
0
0
0
0
0
0
0
0
0
0
0
0
0
0
0
0
0
0
0
0
0
0
0
0
0
0
0
0
0
0
0
0
0
0
0
0
0
0
0
0
2.08803e-10
6.20917e-10
1.05721e-09
1.50657e-09
1.62397e-09
0
4.80235e-09
0
0
0
0
0
0
0
0
0
0
0
0
0
0
0
0
0
0
0
0
0
0
0
0
0
0
0
0
0
0
0
0
0
0
0
0
0
0
0
0
0
0
0
2.41923e-10
6.48095e-10
1.0671e-09
1.4817e-09
1.55742e-09
0
4.66761e-09
0
0
0
0
0
0
0
0
0
0
0
0
0
0
0
0
0
0
0
0
0
0
0
0
0
0
0
0
0
0
0
0
0
0
0
0
0
0
0
0
0
0
0
2.6329e-10
6.581e-10
1.05403e-09
1.42828e-09
1.46167e-09
0
4.516e-09
0
0
0
0
0
0
0
0
0
0
0
0
0
0
0
0
0
0
0
0
0
0
0
0
0
0
0
0
0
0
0
0
0
0
0
0
0
0
0
0
0
0
0
2.71423e-10
6.49855e-10
1.01764e-09
1.34713e-09
1.33912e-09
0
4.35127e-09
0
0
0
0
0
0
0
0
0
0
0
0
0
0
0
0
0
0
0
0
0
0
0
0
0
0
0
0
0
0
0
0
0
0
0
0
0
0
0
0
0
0
0
2.65305e-10
6.22962e-10
9.58524e-10
1.24034e-09
1.19358e-09
0
4.1767e-09
0
0
0
0
0
0
0
0
0
0
0
0
0
0
0
0
0
0
0
0
0
0
0
0
0
0
0
0
0
0
0
0
0
0
0
0
0
0
0
0
0
0
0
2.44462e-10
5.7776e-10
8.78213e-10
1.11125e-09
1.03035e-09
0
3.99512e-09
0
0
0
0
0
0
0
0
0
0
0
0
0
0
0
0
0
0
0
0
0
0
0
0
0
0
0
0
0
0
0
0
0
0
0
0
0
0
0
0
0
0
0
2.09005e-10
5.15348e-10
7.79238e-10
9.64475e-10
8.56095e-10
0
3.80901e-09
0
0
0
0
0
0
0
0
0
0
0
0
0
0
0
0
0
0
0
0
0
0
0
0
0
0
0
0
0
0
0
0
0
0
0
0
0
0
0
0
0
0
0
1.59646e-10
4.37581e-10
6.65063e-10
8.05702e-10
6.78538e-10
0
3.62055e-09
0
0
0
0
0
0
0
0
0
0
0
0
0
0
0
0
0
0
0
0
0
0
0
0
0
0
0
0
0
0
0
0
0
0
0
0
0
0
0
0
0
0
0
9.76822e-11
3.46996e-10
5.39906e-10
6.41387e-10
5.0595e-10
0
3.43179e-09
0
0
0
0
0
0
0
0
0
0
0
0
0
0
0
0
0
0
0
0
0
0
0
0
0
0
0
0
0
0
0
0
0
0
0
0
0
0
0
0
0
0
0
2.49317e-11
2.46653e-10
4.08462e-10
4.78278e-10
3.46352e-10
0
3.24464e-09
0
0
0
0
0
0
0
0
0
0
0
0
0
0
0
0
0
0
0
0
0
0
0
0
0
0
0
0
0
0
0
0
0
0
0
0
0
0
0
0
0
0
0
0
1.39941e-10
2.75524e-10
3.22727e-10
2.06482e-10
0
3.06079e-09
0
0
0
0
0
0
0
0
0
0
0
0
0
0
0
0
0
0
0
0
0
0
0
0
0
0
0
0
0
0
0
0
0
0
0
0
0
0
0
0
0
0
0
0
3.03181e-11
1.45532e-10
1.79928e-10
9.07234e-11
0
2.88168e-09
9.11889e-11
0
0
0
0
0
0
0
0
0
0
0
0
0
0
0
0
0
0
0
0
0
0
0
0
0
0
0
0
0
0
0
0
0
0
0
0
0
0
0
0
0
0
0
0
2.21051e-11
5.32145e-11
2.59134e-13
0
2.70846e-09
2.37894e-10
0
0
0
0
0
0
0
0
0
0
0
0
0
0
0
0
0
0
0
0
0
0
0
0
0
0
0
0
0
0
0
0
0
0
0
0
0
0
0
0
0
0
0
0
0
0
0
0
2.54205e-09
3.59654e-10
0
0
0
0
0
0
0
0
0
0
0
0
0
0
0
0
0
0
0
0
0
0
0
0
0
0
0
0
0
0
0
0
0
0
0
0
0
0
0
0
0
0
0
0
0
0
0
0
2.38312e-09
4.59862e-10
0
0
0
0
0
0
0
0
0
0
0
0
0
0
0
0
0
0
0
0
0
0
0
0
0
0
0
0
0
0
0
0
0
0
0
0
0
0
0
0
0
0
0
0
0
0
0
0
2.2321e-09
5.41585e-10
0
0
0
0
0
0
0
0
0
0
0
0
0
0
0
0
0
0
0
0
0
0
0
0
0
0
0
0
0
0
0
0
0
0
0
0
0
0
0
0
0
0
0
0
0
0
0
0
2.08932e-09
6.07608e-10
0
0
0
0
0
0
0
0
0
0
0
0
0
0
0
0
0
0
0
0
0
0
0
0
0
0
0
0
0
0
0
0
0
0
0
0
0
0
0
0
0
0
0
0
0
0
0
0
1.95493e-09
6.60509e-10
0
0
0
0
0
0
0
0
0
0
0
0
0
0
0
0
0
0
0
0
0
0
0
0
0
0
0
0
0
0
0
0
0
0
0
0
0
0
0
0
0
0
0
0
0
0
0
0
1.82901e-09
7.02605e-10
0
0
0
0
0
0
0
0
0
0
0
0
0
0
0
0
0
0
0
0
0
0
0
0
0
0
0
0
0
0
0
0
0
0
0
0
0
0
0
0
0
0
0
0
0
0
0
0
1.71156e-09
7.35966e-10
0
0
0
0
0
0
0
0
0
0
0
0
0
0
0
0
0
0
0
0
0
0
0
0
0
0
0
0
0
0
0
0
0
0
0
0
0
0
0
0
0
0
0
0
0
0
0
0
1.6025e-09
7.62419e-10
0
0
0
0
0
0
0
0
0
0
0
0
0
0
0
0
0
0
0
0
0
0
0
0
0
0
0
0
0
0
0
0
0
0
0
0
0
0
0
0
0
0
0
0
0
0
0
0
1.50169e-09
7.83579e-10
0
0
0
0
0
0
0
0
0
0
0
0
0
0
0
0
0
0
0
0
0
0
0
0
0
0
0
0
0
0
0
0
0
0
0
0
0
0
0
0
0
0
0
0
0
0
0
0
1.40897e-09
8.00879e-10
0
0
0
0
0
0
0
0
0
0
0
0
0
0
0
0
0
0
0
0
0
0
0
0
0
0
0
0
0
0
0
0
0
0
0
0
0
0
0
0
0
0
0
0
0
0
0
0
1.32412e-09
8.15611e-10
0
0
0
0
0
0
0
0
0
0
0
0
0
0
0
0
0
0
0
0
0
0
0
0
0
0
0
0
0
0
0
0
0
0
0
0
0
0
0
0
0
0
0
0
0
0
0
0
1.24694e-09
8.28933e-10
0
0
0
0
0
0
0
0
0
0
0
0
0
0
0
0
0
0
0
0
0
0
0
0
0
0
0
0
0
0
0
0
0
0
0
0
0
0
0
0
0
0
0
0
0
0
1.32668e-10
0
1.17722e-09
8.41905e-10
0
0
0
0
0
0
0
0
0
0
0
0
0
0
0
0
0
0
0
0
0
0
0
0
0
0
0
0
0
0
0
0
0
0
0
0
0
0
0
0
0
0
0
0
0
0
3.42445e-10
0
1.11478e-09
8.55507e-10
0
0
0
0
0
0
0
0
0
0
0
0
0
0
0
0
0
0
0
0
0
0
0
0
0
0
0
0
0
0
0
0
0
0
0
0
0
0
0
0
0
0
0
0
0
0
5.98638e-10
0
1.05945e-09
8.70672e-10
0
0
0
0
0
0
0
0
0
0
0
0
0
0
0
0
0
0
0
0
0
0
0
0
0
0
0
0
0
0
0
0
0
0
0
0
0
0
0
0
0
0
0
0
0
2.2683e-10
9.01194e-10
0
1.0111e-09
8.88284e-10
0
0
0
0
0
0
0
0
0
0
0
0
0
0
0
0
0
0
0
0
0
0
0
0
0
0
0
0
0
0
0
0
0
0
0
0
0
0
0
0
0
0
0
1.17596e-10
2.57632e-10
5.22117e-10
1.2501e-09
0
9.69652e-10
9.09285e-10
0
0
0
0
0
0
0
0
0
0
0
0
0
0
0
0
0
0
0
0
0
0
0
0
0
0
0
0
0
0
0
0
0
0
0
0
0
0
0
0
1.20505e-11
1.55682e-10
2.92874e-10
4.28466e-10
5.79879e-10
8.67081e-10
1.64574e-09
0
9.3509e-10
9.34707e-10
0
0
0
0
0
0
0
0
0
0
0
0
0
0
0
0
0
0
0
0
0
0
0
0
0
0
0
0
0
0
0
0
0
0
0
0
0
0
4.10262e-11
2.092e-10
3.62935e-10
5.07673e-10
6.49335e-10
7.92549e-10
9.5444e-10
1.26274e-09
2.0892e-09
0
9.07477e-10
9.65685e-10
0
0
0
0
0
0
0
0
0
0
0
0
0
0
0
0
0
0
0
0
0
0
0
0
0
0
0
0
0
0
0
0
0
0
0
0
7.99458e-11
2.79833e-10
4.58653e-10
6.21552e-10
7.72591e-10
9.1733e-10
1.06243e-09
1.2121e-09
1.38308e-09
1.71059e-09
2.58243e-09
0
8.8698e-10
1.00346e-09
0
0
0
0
0
0
0
0
0
0
0
0
0
0
0
0
0
0
0
0
0
0
0
0
0
0
0
0
0
0
0
0
0
0
1.32378e-10
3.71391e-10
5.83444e-10
7.71943e-10
9.41375e-10
1.0977e-09
1.24501e-09
1.3882e-09
1.53519e-09
1.68971e-09
1.86812e-09
2.21303e-09
3.12861e-09
0
8.73904e-10
1.04956e-09
0
0
0
0
0
0
0
0
0
0
0
0
0
0
0
0
0
0
0
0
0
0
0
0
0
0
0
0
0
0
0
0
1.9887e-10
4.82621e-10
7.37272e-10
9.62589e-10
1.16053e-09
1.33577e-09
1.49402e-09
1.64213e-09
1.78444e-09
1.92421e-09
2.07118e-09
2.22874e-09
2.4129e-09
2.77369e-09
3.73231e-09
0
8.68732e-10
1.10602e-09
0
0
0
0
0
0
0
0
0
0
0
0
0
0
0
0
0
0
0
0
0
0
0
0
0
0
0
0
0
0
2.7571e-10
6.04802e-10
9.08385e-10
1.18235e-09
1.4243e-09
1.63474e-09
1.81681e-09
1.97668e-09
2.12164e-09
2.25962e-09
2.39549e-09
2.53021e-09
2.675e-09
2.83372e-09
3.02203e-09
3.39752e-09
4.39951e-09
0
8.72188e-10
1.17563e-09
0
0
0
0
0
0
0
0
0
0
0
0
0
0
0
0
0
0
0
0
0
0
0
0
0
0
0
0
3.57934e-10
7.25764e-10
1.07683e-09
1.40487e-09
1.7039e-09
1.96929e-09
2.19872e-09
2.39342e-09
2.55794e-09
2.7003e-09
2.82976e-09
2.95567e-09
3.08359e-09
3.21213e-09
3.35238e-09
3.51037e-09
3.70138e-09
4.09087e-09
5.13765e-09
0
8.85319e-10
1.26146e-09
0
0
0
0
0
0
0
0
0
0
0
0
0
0
0
0
0
0
0
0
0
0
0
0
0
5.9017e-11
4.48677e-10
8.37487e-10
1.22447e-09
1.60054e-09
1.95826e-09
2.28988e-09
2.58805e-09
2.84731e-09
3.06528e-09
3.24401e-09
3.38976e-09
3.51273e-09
3.62466e-09
3.73673e-09
3.85537e-09
3.97716e-09
4.11049e-09
4.26582e-09
4.45823e-09
4.86151e-09
5.95568e-09
0
9.09626e-10
1.36763e-09
0
0
0
0
0
0
0
0
0
0
0
0
0
0
0
0
0
0
0
0
0
0
0
1.97321e-10
5.85103e-10
9.71593e-10
1.3563e-09
1.74912e-09
2.15177e-09
2.54391e-09
2.9159e-09
3.258e-09
3.56115e-09
3.8187e-09
4.028e-09
4.19189e-09
4.31852e-09
4.42076e-09
4.51337e-09
4.61003e-09
4.71836e-09
4.83376e-09
4.95821e-09
5.10895e-09
5.30163e-09
5.71891e-09
6.86404e-09
0
9.47243e-10
1.50008e-09
0
0
0
0
0
0
0
0
0
0
0
0
0
0
0
0
0
0
0
0
2.94939e-11
4.1669e-10
7.95616e-10
1.17256e-09
1.54895e-09
1.92393e-09
2.3005e-09
2.69397e-09
3.12182e-09
3.54205e-09
3.93994e-09
4.3031e-09
4.62033e-09
4.88352e-09
5.08948e-09
5.24177e-09
5.35057e-09
5.43183e-09
5.50385e-09
5.58391e-09
5.68123e-09
5.79141e-09
5.90565e-09
6.05e-09
6.24202e-09
6.67393e-09
7.87457e-09
0
1.00122e-09
1.66703e-09
0
0
0
0
0
0
0
0
0
0
0
0
0
0
0
0
0
0
1.99328e-10
6.54886e-10
1.06826e-09
1.45029e-09
1.81518e-09
2.17425e-09
2.53273e-09
2.89133e-09
3.25546e-09
3.64423e-09
4.1022e-09
4.57029e-09
5.01206e-09
5.41272e-09
5.75835e-09
6.03884e-09
6.25028e-09
6.39698e-09
6.49141e-09
6.5531e-09
6.60455e-09
6.66751e-09
6.75384e-09
6.86033e-09
6.96528e-09
7.10056e-09
7.2907e-09
7.73794e-09
8.99934e-09
0
1.07595e-09
1.87987e-09
0
0
0
0
0
0
0
0
0
0
0
0
0
0
0
0
2.09418e-10
7.80627e-10
1.29834e-09
1.75503e-09
2.15278e-09
2.50666e-09
2.83829e-09
3.16549e-09
3.49719e-09
3.83416e-09
4.18125e-09
4.56083e-09
5.04316e-09
5.58843e-09
6.10155e-09
6.56435e-09
6.95997e-09
7.27592e-09
7.50711e-09
7.65852e-09
7.74525e-09
7.79109e-09
7.82364e-09
7.87011e-09
7.94649e-09
8.05092e-09
8.15145e-09
8.27409e-09
8.46034e-09
8.92298e-09
1.02501e-08
0
1.17792e-09
2.15484e-09
3.83618e-11
0
0
0
0
0
0
0
0
0
0
0
0
0
1.13485e-10
7.20475e-10
1.34593e-09
1.96523e-09
2.4845e-09
2.91668e-09
3.26717e-09
3.56037e-09
3.83043e-09
4.10455e-09
4.39567e-09
4.70378e-09
5.02831e-09
5.39361e-09
5.88348e-09
6.53917e-09
7.1634e-09
7.72401e-09
8.2005e-09
8.57796e-09
8.85015e-09
9.02262e-09
9.11323e-09
9.15056e-09
9.16834e-09
9.20018e-09
9.26862e-09
9.37357e-09
9.47699e-09
9.58419e-09
9.76371e-09
1.0241e-08
1.16382e-08
0
1.31674e-09
2.51539e-09
4.90707e-10
0
0
0
0
0
0
0
0
0
0
0
6.06315e-11
6.69144e-10
1.28038e-09
1.91653e-09
2.59081e-09
3.25159e-09
3.74523e-09
4.11715e-09
4.38123e-09
4.57581e-09
4.75224e-09
4.94967e-09
5.18509e-09
5.45657e-09
5.75468e-09
6.10014e-09
6.57644e-09
7.34693e-09
8.13956e-09
8.84613e-09
9.44559e-09
9.92037e-09
1.02629e-08
1.04797e-08
1.05917e-08
1.06328e-08
1.06436e-08
1.06651e-08
1.07283e-08
1.08369e-08
1.09517e-08
1.10412e-08
1.12089e-08
1.16982e-08
1.31676e-08
0
1.50687e-09
2.99496e-09
1.08628e-09
0
0
0
0
0
0
0
0
0
1.18716e-10
7.35816e-10
1.33953e-09
1.93946e-09
2.55901e-09
3.22712e-09
3.95177e-09
4.63923e-09
5.07035e-09
5.34367e-09
5.48296e-09
5.54446e-09
5.59942e-09
5.69989e-09
5.86654e-09
6.09464e-09
6.36525e-09
6.68704e-09
7.13615e-09
7.94795e-09
8.96989e-09
9.8795e-09
1.06527e-08
1.12697e-08
1.17208e-08
1.20126e-08
1.21697e-08
1.22324e-08
1.2249e-08
1.22688e-08
1.23317e-08
1.24482e-08
1.25821e-08
1.26565e-08
1.28018e-08
1.32952e-08
1.4834e-08
0
1.7718e-09
3.64065e-09
1.85593e-09
0
0
0
0
0
0
0
2.81026e-10
9.26002e-10
1.54879e-09
2.15226e-09
2.74126e-09
3.33216e-09
3.95925e-09
4.65743e-09
5.42373e-09
6.09517e-09
6.41683e-09
6.5627e-09
6.56479e-09
6.49407e-09
6.43485e-09
6.4455e-09
6.54716e-09
6.73303e-09
6.97986e-09
7.27944e-09
7.68904e-09
8.40482e-09
9.6288e-09
1.07836e-08
1.1778e-08
1.25843e-08
1.31875e-08
1.35921e-08
1.38242e-08
1.39303e-08
1.39686e-08
1.39985e-08
1.40689e-08
1.42e-08
1.43578e-08
1.4432e-08
1.45377e-08
1.50206e-08
1.66168e-08
0
2.1525e-09
4.52428e-09
2.82254e-09
2.43316e-11
0
0
0
0
4.66549e-10
1.16895e-09
1.84013e-09
2.4838e-09
3.10215e-09
3.69535e-09
4.26982e-09
4.85035e-09
5.4843e-09
6.21037e-09
7.00116e-09
7.57897e-09
7.7405e-09
7.74776e-09
7.64277e-09
7.50176e-09
7.40059e-09
7.38365e-09
7.46301e-09
7.63074e-09
7.86813e-09
8.16143e-09
8.53646e-09
9.09046e-09
1.01428e-08
1.15226e-08
1.27545e-08
1.37891e-08
1.45934e-08
1.51601e-08
1.55112e-08
1.56952e-08
1.57786e-08
1.5833e-08
1.59194e-08
1.60712e-08
1.62576e-08
1.63486e-08
1.63932e-08
1.68384e-08
1.8464e-08
0
2.70985e-09
5.7207e-09
4.00019e-09
1.21774e-09
0
0
5.2963e-10
1.24402e-09
2.02225e-09
2.76921e-09
3.47439e-09
4.14219e-09
4.77335e-09
5.36627e-09
5.9298e-09
6.49876e-09
7.13589e-09
7.87986e-09
8.65712e-09
9.03568e-09
9.02545e-09
8.93133e-09
8.79933e-09
8.69262e-09
8.65436e-09
8.69844e-09
8.81985e-09
9.01236e-09
9.3042e-09
9.65618e-09
1.00569e-08
1.05268e-08
1.1106e-08
1.19832e-08
1.33682e-08
1.46806e-08
1.57684e-08
1.65808e-08
1.71241e-08
1.74457e-08
1.76176e-08
1.7722e-08
1.78352e-08
1.8011e-08
1.82292e-08
1.83562e-08
1.83145e-08
1.86786e-08
2.02849e-08
0
3.55313e-09
7.27846e-09
5.28451e-09
2.40951e-09
1.29392e-09
1.37422e-09
1.90797e-09
2.60766e-09
3.48327e-09
4.33155e-09
5.12301e-09
5.86051e-09
6.5397e-09
7.15371e-09
7.71425e-09
8.27075e-09
8.90634e-09
9.65401e-09
1.03593e-08
1.04519e-08
1.0306e-08
1.01873e-08
1.0131e-08
1.01426e-08
1.02007e-08
1.02826e-08
1.04655e-08
1.08146e-08
1.11821e-08
1.15776e-08
1.20109e-08
1.24822e-08
1.29813e-08
1.35047e-08
1.41141e-08
1.51114e-08
1.65721e-08
1.77382e-08
1.85578e-08
1.9078e-08
1.93819e-08
1.95665e-08
1.97247e-08
1.99306e-08
2.01816e-08
2.03467e-08
2.02156e-08
2.04343e-08
2.19463e-08
0
4.87942e-09
9.18995e-09
6.4702e-09
3.46734e-09
2.49816e-09
2.64606e-09
3.19709e-09
3.86412e-09
4.70819e-09
5.74295e-09
6.70397e-09
7.57677e-09
8.35351e-09
9.02208e-09
9.5968e-09
1.01438e-08
1.07716e-08
1.15023e-08
1.20578e-08
1.18497e-08
1.1624e-08
1.15531e-08
1.16313e-08
1.17656e-08
1.1861e-08
1.21032e-08
1.26212e-08
1.30261e-08
1.33843e-08
1.37798e-08
1.4196e-08
1.4508e-08
1.49212e-08
1.54248e-08
1.59287e-08
1.64492e-08
1.72516e-08
1.86537e-08
1.97646e-08
2.05026e-08
2.09573e-08
2.1239e-08
2.14549e-08
2.16943e-08
2.19743e-08
2.21597e-08
2.19442e-08
2.195e-08
2.3278e-08
0
6.99899e-09
1.1248e-08
7.55297e-09
4.61659e-09
3.77715e-09
4.00185e-09
4.58073e-09
5.21358e-09
5.83643e-09
6.69679e-09
8.01204e-09
9.1771e-09
1.01474e-08
1.09203e-08
1.15294e-08
1.20694e-08
1.26821e-08
1.33724e-08
1.36944e-08
1.32533e-08
1.29913e-08
1.30093e-08
1.32049e-08
1.33742e-08
1.35472e-08
1.42609e-08
1.50192e-08
1.55089e-08
1.59038e-08
1.63424e-08
1.67509e-08
1.6779e-08
1.68585e-08
1.71839e-08
1.76633e-08
1.81647e-08
1.86607e-08
1.94603e-08
2.07114e-08
2.16167e-08
2.21992e-08
2.25665e-08
2.28331e-08
2.30997e-08
2.33959e-08
2.35782e-08
2.32728e-08
2.30592e-08
2.41648e-08
0
1.03267e-08
1.33888e-08
8.63933e-09
5.87812e-09
5.41727e-09
5.73049e-09
6.2172e-09
6.71122e-09
7.26968e-09
7.81862e-09
8.77293e-09
1.04218e-08
1.17649e-08
1.27446e-08
1.34318e-08
1.39699e-08
1.4554e-08
1.51748e-08
1.52172e-08
1.4623e-08
1.43902e-08
1.45228e-08
1.4793e-08
1.49573e-08
1.53869e-08
1.66406e-08
1.7537e-08
1.80903e-08
1.85218e-08
1.90078e-08
1.94674e-08
1.93518e-08
1.9032e-08
1.90403e-08
1.93291e-08
1.97852e-08
2.02595e-08
2.07085e-08
2.14355e-08
2.23385e-08
2.29478e-08
2.33437e-08
2.36331e-08
2.39142e-08
2.42109e-08
2.4368e-08
2.39895e-08
2.36923e-08
2.46915e-08
0
1.55082e-08
1.51468e-08
9.25279e-09
7.21437e-09
7.24659e-09
7.796e-09
8.30616e-09
8.3929e-09
8.75861e-09
9.25878e-09
9.83324e-09
1.10801e-08
1.29673e-08
1.42897e-08
1.51311e-08
1.56936e-08
1.62423e-08
1.6769e-08
1.6544e-08
1.59211e-08
1.5806e-08
1.60689e-08
1.63611e-08
1.65716e-08
1.75025e-08
1.91014e-08
2.005e-08
2.06199e-08
2.10754e-08
2.16171e-08
2.21847e-08
2.21489e-08
2.14809e-08
2.1103e-08
2.10449e-08
2.1246e-08
2.15996e-08
2.19869e-08
2.23211e-08
2.27084e-08
2.31526e-08
2.34742e-08
2.37375e-08
2.40114e-08
2.42865e-08
2.44104e-08
2.40991e-08
2.40663e-08
2.52931e-08
4.16532e-09
2.21544e-08
1.53496e-08
9.37702e-09
8.35285e-09
8.74657e-09
9.62849e-09
1.04816e-08
1.03291e-08
1.03441e-08
1.06956e-08
1.11945e-08
1.1874e-08
1.35066e-08
1.52706e-08
1.63171e-08
1.69254e-08
1.74381e-08
1.78726e-08
1.75026e-08
1.70443e-08
1.71521e-08
1.75447e-08
1.78243e-08
1.82369e-08
1.98508e-08
2.14809e-08
2.23714e-08
2.29148e-08
2.33863e-08
2.39821e-08
2.46863e-08
2.49689e-08
2.41672e-08
2.34526e-08
2.29824e-08
2.27486e-08
2.26987e-08
2.27653e-08
2.28912e-08
2.30437e-08
2.32124e-08
2.33983e-08
2.3599e-08
2.37969e-08
2.39485e-08
2.4102e-08
2.43084e-08
2.48893e-08
2.66663e-08
1.59668e-08
2.47996e-08
1.33629e-08
9.07669e-09
8.76515e-09
9.36642e-09
1.05257e-08
1.18505e-08
1.20345e-08
1.17999e-08
1.18511e-08
1.22436e-08
1.27677e-08
1.36045e-08
1.52539e-08
1.64161e-08
1.7053e-08
1.75262e-08
1.79049e-08
1.76638e-08
1.76334e-08
1.80463e-08
1.85106e-08
1.88589e-08
1.98363e-08
2.20074e-08
2.33424e-08
2.40623e-08
2.4528e-08
2.49918e-08
2.5626e-08
2.64545e-08
2.71127e-08
2.66597e-08
2.57525e-08
2.49849e-08
2.43641e-08
2.3894e-08
2.35654e-08
2.33627e-08
2.32704e-08
2.32766e-08
2.33729e-08
2.35492e-08
2.3789e-08
2.40651e-08
2.43838e-08
2.48822e-08
2.61714e-08
2.87517e-08
0
0
0
0
1.63555e-10
1.17792e-10
9.06614e-11
7.85477e-11
7.4588e-11
7.69674e-11
7.1765e-11
4.47492e-11
0
0
0
0
6.88998e-11
2.78052e-10
5.25742e-10
6.53791e-10
3.97931e-10
0
0
0
0
0
0
0
1.14708e-09
4.14825e-09
8.00145e-09
1.24468e-08
1.44716e-08
1.28195e-08
8.42313e-09
3.65232e-09
8.62777e-10
0
0
0
0
0
3.76009e-12
1.60324e-10
2.72044e-10
3.28859e-10
3.52086e-10
3.7267e-10
3.57219e-10
3.30709e-10
3.17948e-10
3.23608e-10
3.24013e-10
2.8196e-10
0
0
0
0
0
0
0
0
8.04338e-10
1.84636e-09
0
0
0
0
0
0
0
0
0
0
0
0
0
1.32627e-07
3.67791e-08
0
0
0
0
0
0
0
0
0
0
2.35714e-09
5.97065e-09
6.20256e-09
5.97266e-09
4.76206e-09
6.87091e-09
1.62479e-09
2.46707e-08
3.64552e-08
2.38605e-08
0
0
0
0
0
5.79418e-11
7.00431e-11
6.97234e-11
6.48767e-11
6.30458e-11
6.62653e-11
6.44016e-11
4.53507e-11
7.70704e-12
0
0
0
6.46402e-11
2.49468e-10
5.09828e-10
7.27312e-10
7.32675e-10
1.57014e-10
0
0
0
0
0
0
1.31456e-10
3.18794e-09
7.87318e-09
1.30394e-08
1.51384e-08
1.33021e-08
8.3571e-09
3.50718e-09
7.53943e-10
0
0
0
0
0
1.15354e-11
1.63216e-10
2.75062e-10
3.3841e-10
3.56077e-10
3.71593e-10
3.68459e-10
3.43388e-10
3.22072e-10
3.15803e-10
3.13371e-10
3.10245e-10
1.42238e-10
0
0
0
0
0
0
0
3.64601e-10
1.66777e-09
0
0
0
0
0
0
0
0
0
0
0
0
0
1.07777e-07
3.71997e-08
0
0
0
0
0
0
0
0
0
0
1.10035e-09
5.44267e-09
5.96678e-09
5.89391e-09
4.63782e-09
7.56982e-09
1.99581e-09
2.67615e-08
3.49436e-08
4.92525e-08
0
0
1.21347e-11
0
0
8.60541e-12
3.18656e-11
4.41064e-11
4.63163e-11
4.72951e-11
5.12637e-11
5.1632e-11
3.86126e-11
1.01644e-11
0
0
0
6.99462e-11
2.29168e-10
4.80969e-10
7.51697e-10
8.93674e-10
7.42784e-10
0
0
0
0
0
0
0
2.74718e-09
8.0942e-09
1.37029e-08
1.57431e-08
1.36766e-08
8.20384e-09
3.3397e-09
6.50536e-10
0
0
0
0
0
2.70016e-11
1.7416e-10
2.84681e-10
3.53082e-10
3.73701e-10
3.72099e-10
3.79364e-10
3.60834e-10
3.35549e-10
3.15343e-10
3.02918e-10
3.03518e-10
3.20631e-10
0
0
0
0
0
0
0
0
1.48256e-09
0
0
0
0
0
0
0
0
0
0
0
0
0
7.41747e-08
3.5616e-08
0
0
0
0
0
0
0
0
0
0
0
4.82655e-09
5.74003e-09
5.86894e-09
4.5535e-09
8.15382e-09
1.63374e-09
2.76556e-08
2.74656e-08
6.98825e-08
8.1148e-08
0
3.22366e-11
0
0
0
9.44795e-12
2.39406e-11
2.98298e-11
3.26257e-11
3.66839e-11
3.80114e-11
2.90161e-11
7.72229e-12
0
0
9.74985e-12
8.38085e-11
2.21922e-10
4.52278e-10
7.33493e-10
9.5782e-10
1.00303e-09
6.76894e-10
0
0
0
0
0
0
2.61417e-09
8.47216e-09
1.42571e-08
1.61847e-08
1.38425e-08
7.92756e-09
3.1411e-09
5.52481e-10
0
0
0
0
0
5.60546e-11
1.96506e-10
3.05532e-10
3.75563e-10
4.00897e-10
3.88765e-10
3.84238e-10
3.77522e-10
3.52938e-10
3.22786e-10
2.94846e-10
2.93034e-10
3.48203e-10
3.21257e-10
0
0
0
0
0
0
0
1.26448e-09
2.72567e-10
0
0
0
0
0
0
0
0
0
0
0
0
3.73575e-08
3.1526e-08
3.89214e-10
0
0
0
0
0
0
9.45073e-12
0
0
0
4.0499e-09
5.46008e-09
5.85049e-09
4.43095e-09
8.50693e-09
6.40333e-10
2.75178e-08
1.96434e-08
7.84065e-08
1.96436e-07
1.1607e-12
4.26312e-11
0
0
0
1.66516e-13
1.23651e-11
1.8727e-11
2.19362e-11
2.53997e-11
2.6522e-11
1.95498e-11
3.10346e-12
0
0
2.60471e-11
1.02988e-10
2.27326e-10
4.34783e-10
6.97982e-10
9.51218e-10
1.09721e-09
1.01727e-09
5.20894e-10
0
0
0
0
0
2.69504e-09
8.85552e-09
1.45849e-08
1.64091e-08
1.36689e-08
7.54264e-09
2.89938e-09
4.59226e-10
0
0
0
0
0
1.07186e-10
2.30779e-10
3.3506e-10
4.05461e-10
4.34253e-10
4.19452e-10
3.89545e-10
3.87141e-10
3.69761e-10
3.35658e-10
2.95348e-10
2.83618e-10
3.4567e-10
4.45854e-10
6.52886e-11
0
0
0
0
0
0
9.81964e-10
6.40181e-10
0
0
0
0
0
0
0
0
0
0
0
0
3.23625e-09
2.48571e-08
1.28993e-09
0
0
0
0
0
0
3.98242e-10
0
0
0
3.02721e-09
5.09246e-09
5.78729e-09
4.20319e-09
8.47202e-09
0
2.61444e-08
1.81472e-08
7.26591e-08
2.12446e-07
5.27083e-12
5.23983e-11
0
0
0
0
7.63977e-12
1.32557e-11
1.6092e-11
1.84119e-11
1.84078e-11
1.18291e-11
0
0
0
4.01731e-11
1.24372e-10
2.43592e-10
4.27813e-10
6.68117e-10
9.0351e-10
1.09722e-09
1.12118e-09
8.73932e-10
2.48582e-10
0
0
0
0
2.89983e-09
9.14074e-09
1.46562e-08
1.64042e-08
1.31616e-08
7.06367e-09
2.61095e-09
3.73146e-10
0
0
0
0
9.71303e-11
1.93893e-10
2.83869e-10
3.72274e-10
4.40247e-10
4.72662e-10
4.60357e-10
4.15534e-10
3.86893e-10
3.81425e-10
3.5006e-10
3.03944e-10
2.81591e-10
3.38081e-10
4.52942e-10
4.18201e-10
0
0
0
0
0
0
6.03458e-10
9.83894e-10
0
0
0
0
0
0
0
0
0
0
0
0
0
1.60545e-08
1.59137e-09
0
0
0
0
0
0
5.92248e-10
0
0
0
1.70182e-09
4.62157e-09
5.63433e-09
3.89112e-09
7.95397e-09
0
2.28525e-08
1.98808e-08
5.94597e-08
1.73003e-07
4.74345e-12
5.76563e-11
0
0
0
0
6.64397e-12
1.14845e-11
1.3626e-11
1.46672e-11
1.31032e-11
5.7592e-12
0
0
1.42927e-12
5.44415e-11
1.46731e-10
2.67324e-10
4.279e-10
6.47053e-10
8.54036e-10
1.02806e-09
1.10949e-09
9.65567e-10
5.25044e-10
0
0
0
0
3.15025e-09
9.29392e-09
1.4598e-08
1.61591e-08
1.23706e-08
6.45485e-09
2.27598e-09
2.99018e-10
0
0
4.60509e-11
2.00911e-10
2.91283e-10
3.36443e-10
3.72619e-10
4.22966e-10
4.79137e-10
5.14247e-10
5.0838e-10
4.59433e-10
4.01118e-10
3.81699e-10
3.61701e-10
3.16612e-10
2.8912e-10
3.32369e-10
4.35847e-10
4.48791e-10
6.77641e-11
0
0
0
0
0
1.01038e-10
1.28162e-09
0
0
0
0
0
0
0
0
0
0
0
0
0
5.87144e-09
1.21722e-09
0
0
0
0
0
0
6.02516e-10
0
0
0
1.34714e-10
4.01177e-09
5.36247e-09
3.58732e-09
7.15055e-09
0
1.71644e-08
1.99016e-08
4.31995e-08
1.23463e-07
2.00574e-12
5.82182e-11
0
0
0
0
7.03281e-12
1.13515e-11
1.27775e-11
1.24459e-11
9.06573e-12
3.79597e-13
0
0
9.42969e-12
7.1589e-11
1.70986e-10
2.94618e-10
4.34934e-10
6.30418e-10
8.13389e-10
9.45015e-10
1.01878e-09
9.34357e-10
5.86898e-10
0
0
0
0
3.40677e-09
9.40532e-09
1.43424e-08
1.55762e-08
1.13242e-08
5.73411e-09
1.8982e-09
2.47206e-10
0
1.57309e-10
3.99273e-10
5.46942e-10
5.91664e-10
5.59097e-10
5.15453e-10
5.00941e-10
5.21354e-10
5.52148e-10
5.58254e-10
5.1702e-10
4.42906e-10
3.83533e-10
3.64812e-10
3.2921e-10
3.0259e-10
3.35611e-10
4.12657e-10
4.10381e-10
2.01055e-10
0
0
0
0
0
0
1.5049e-09
0
0
0
0
0
0
0
0
0
0
0
0
0
0
1.71687e-10
0
0
0
0
0
0
4.72743e-10
3.61153e-10
0
0
0
3.21038e-09
4.95118e-09
3.37254e-09
6.05016e-09
0
1.01057e-08
1.66591e-08
2.52917e-08
8.0504e-08
0
5.60925e-11
4.91622e-12
0
0
0
7.35283e-12
1.13989e-11
1.21528e-11
1.03758e-11
4.96056e-12
0
0
0
2.0208e-11
9.35806e-11
1.9933e-10
3.23344e-10
4.52671e-10
6.1326e-10
7.7572e-10
8.71629e-10
9.00755e-10
8.28316e-10
5.5206e-10
4.57649e-11
0
0
1.9883e-10
3.70248e-09
9.37012e-09
1.38269e-08
1.46013e-08
1.01236e-08
4.91316e-09
1.48411e-09
2.40417e-10
2.49675e-10
6.1374e-10
9.05957e-10
1.05579e-09
1.04009e-09
8.94079e-10
7.34272e-10
6.16894e-10
5.68773e-10
5.79696e-10
5.94968e-10
5.76867e-10
5.06934e-10
4.19443e-10
3.59724e-10
3.35869e-10
3.17566e-10
3.45832e-10
3.96938e-10
3.63239e-10
1.6246e-10
0
0
0
0
0
0
1.62403e-09
0
0
0
0
0
0
0
0
0
0
0
0
0
0
0
0
0
0
0
0
0
2.69575e-10
9.16018e-10
0
0
0
2.10667e-09
4.41756e-09
3.25688e-09
4.80179e-09
0
2.6396e-09
1.23201e-08
9.4898e-09
4.9611e-08
0
5.27861e-11
1.11615e-11
0
0
0
6.94538e-12
1.07823e-11
1.07895e-11
7.39275e-12
0
0
0
0
3.53523e-11
1.21866e-10
2.33898e-10
3.54933e-10
4.74409e-10
5.97692e-10
7.32515e-10
8.01925e-10
7.92581e-10
6.98445e-10
4.65977e-10
6.89435e-11
0
0
5.3394e-10
4.01886e-09
9.10026e-09
1.30228e-08
1.32738e-08
8.8519e-09
3.98993e-09
1.05251e-09
3.28953e-10
7.29096e-10
1.27161e-09
1.59617e-09
1.78926e-09
1.66843e-09
1.36351e-09
1.04549e-09
7.81519e-10
6.17561e-10
5.81203e-10
6.06766e-10
6.16609e-10
5.78008e-10
4.85647e-10
3.86959e-10
3.30118e-10
3.27752e-10
3.58004e-10
3.91057e-10
3.24332e-10
1.11857e-10
0
0
0
0
0
0
1.61915e-09
0
0
0
0
0
0
0
0
0
0
0
0
0
0
0
0
0
0
0
0
0
6.88526e-11
1.21345e-09
0
0
0
6.3634e-10
3.75832e-09
3.17033e-09
3.659e-09
0
0
9.24223e-09
0
2.82909e-08
0
4.89692e-11
1.71824e-11
0
0
0
5.62309e-12
9.14783e-12
8.12876e-12
2.80671e-12
0
0
0
0
5.73322e-11
1.58579e-10
2.75924e-10
3.90534e-10
4.93985e-10
5.82251e-10
6.80607e-10
7.27467e-10
6.90913e-10
5.77428e-10
3.70254e-10
7.03534e-11
0
0
8.94029e-10
4.17159e-09
8.59322e-09
1.19284e-08
1.17274e-08
7.45333e-09
2.96511e-09
6.48797e-10
6.22612e-10
1.47788e-09
2.12622e-09
2.56452e-09
2.7527e-09
2.466e-09
1.96292e-09
1.44822e-09
9.99199e-10
6.67736e-10
5.26956e-10
5.55634e-10
6.14707e-10
6.24854e-10
5.65823e-10
4.50447e-10
3.50466e-10
3.23493e-10
3.65254e-10
3.89335e-10
3.00296e-10
7.83155e-11
0
0
0
0
0
0
1.49572e-09
0
0
0
0
0
0
0
0
0
0
0
0
0
0
0
5.46951e-12
0
0
2.15415e-10
5.49367e-10
0
0
1.25289e-09
0
0
0
0
2.93207e-09
3.01557e-09
2.79337e-09
0
0
7.67724e-09
0
1.45267e-08
0
4.49512e-11
2.29277e-11
0
0
0
3.10483e-12
6.05938e-12
3.53378e-12
0
0
0
0
6.92323e-12
9.01586e-11