/*--------------------------------*- C++ -*----------------------------------*\
  =========                 |
  \\      /  F ield         | OpenFOAM: The Open Source CFD Toolbox
   \\    /   O peration     | Website:  https://openfoam.org
    \\  /    A nd           | Version:  7
     \\/     M anipulation  |
\*---------------------------------------------------------------------------*/
FoamFile
{
    version     2.0;
    format      ascii;
    class       volScalarField;
    location    "0.45";
    object      p;
}
// * * * * * * * * * * * * * * * * * * * * * * * * * * * * * * * * * * * * * //

dimensions      [0 2 -2 0 0 0 0];

internalField   nonuniform List<scalar> 
70000
(
0.1139
0.037012
0.0238702
0.0263285
0.0265975
0.0255603
0.0246117
0.0238929
0.0232951
0.0227684
0.0222992
0.0218795
0.0215019
0.0211599
0.0208479
0.0205614
0.0202968
0.0200509
0.0198212
0.0196053
0.0194014
0.0192077
0.0190228
0.0188452
0.0186737
0.0185072
0.0183443
0.0181842
0.0180256
0.0178674
0.0177086
0.017548
0.0173842
0.0172159
0.0170416
0.0168594
0.0166674
0.0164637
0.0162447
0.0160094
0.0157505
0.0154711
0.0151543
0.0148157
0.0144149
0.0140024
0.013479
0.0129924
0.0122871
0.0117476
0.109599
0.0373739
0.0240728
0.0264231
0.0266519
0.0255961
0.0246395
0.0239159
0.0233144
0.0227849
0.0223135
0.0218922
0.0215132
0.0211701
0.0208571
0.0205699
0.0203046
0.0200581
0.0198279
0.0196115
0.0194072
0.0192132
0.0190279
0.0188501
0.0186783
0.0185115
0.0183485
0.0181881
0.0180293
0.017871
0.017712
0.0175512
0.0173873
0.0172188
0.0170443
0.016862
0.0166699
0.016466
0.0162468
0.0160113
0.0157523
0.0154727
0.0151556
0.0148168
0.0144157
0.0140027
0.0134793
0.01299
0.0122903
0.0117888
0.105994
0.0382964
0.0244173
0.0265517
0.0267265
0.025641
0.0246719
0.023942
0.0233362
0.0228034
0.0223295
0.0219061
0.0215256
0.0211812
0.0208672
0.0205791
0.0203131
0.0200659
0.0198351
0.0196183
0.0194135
0.0192191
0.0190335
0.0188553
0.0186833
0.0185162
0.018353
0.0181924
0.0180334
0.0178749
0.0177157
0.0175547
0.0173907
0.0172221
0.0170474
0.016865
0.0166727
0.0164687
0.0162494
0.0160138
0.0157547
0.0154749
0.0151577
0.0148187
0.0144174
0.0140041
0.0134807
0.0129885
0.012311
0.0118289
0.102889
0.0393955
0.0248938
0.0267243
0.0268278
0.025699
0.0247101
0.023972
0.0233608
0.0228239
0.0223469
0.0219213
0.021539
0.0211931
0.020878
0.0205889
0.020322
0.0200742
0.0198427
0.0196254
0.0194201
0.0192253
0.0190394
0.0188609
0.0186885
0.0185212
0.0183577
0.0181969
0.0180377
0.017879
0.0177197
0.0175586
0.0173944
0.0172256
0.0170509
0.0168684
0.016676
0.0164719
0.0162526
0.016017
0.0157578
0.0154781
0.0151609
0.0148219
0.0144208
0.0140071
0.0134852
0.0129887
0.0123453
0.0118684
0.099933
0.0404893
0.0254673
0.0269426
0.0269624
0.0257775
0.0247592
0.0240091
0.0233909
0.0228486
0.0223676
0.021939
0.0215544
0.0212068
0.0208902
0.0205999
0.020332
0.0200833
0.0198512
0.0196332
0.0194274
0.0192322
0.0190458
0.0188669
0.0186943
0.0185267
0.0183629
0.0182019
0.0180425
0.0178836
0.0177242
0.0175629
0.0173986
0.0172298
0.017055
0.0168724
0.01668
0.016476
0.0162567
0.0160212
0.0157621
0.0154826
0.0151657
0.014827
0.0144266
0.0140125
0.0134942
0.0129923
0.0123898
0.011914
0.0970257
0.0415214
0.0260913
0.0271872
0.0271247
0.0258782
0.0248219
0.0240555
0.0234283
0.0228792
0.022393
0.0219605
0.021573
0.0212231
0.0209047
0.0206129
0.0203438
0.0200941
0.019861
0.0196423
0.0194359
0.0192401
0.0190532
0.0188739
0.0187009
0.018533
0.0183689
0.0182076
0.018048
0.017889
0.0177294
0.017568
0.0174036
0.0172347
0.0170599
0.0168774
0.0166851
0.0164811
0.016262
0.0160268
0.0157681
0.015489
0.0151729
0.0148346
0.0144359
0.0140214
0.013509
0.0130021
0.012443
0.0119667
0.0941604
0.0424747
0.0267323
0.0274368
0.0273012
0.0259962
0.024897
0.0241112
0.0234736
0.0229164
0.0224239
0.0219866
0.0215956
0.0212428
0.0209221
0.0206285
0.0203579
0.0201069
0.0198728
0.0196531
0.0194459
0.0192494
0.019062
0.0188822
0.0187087
0.0185404
0.018376
0.0182144
0.0180546
0.0178954
0.0177357
0.0175742
0.0174097
0.0172409
0.0170661
0.0168837
0.0166915
0.0164879
0.0162691
0.0160343
0.0157763
0.0154979
0.015183
0.0148456
0.0144496
0.0140351
0.0135309
0.0130204
0.0125016
0.012026
0.091346
0.0433427
0.0273741
0.0276797
0.027481
0.026125
0.0249812
0.0241742
0.0235254
0.0229596
0.02246
0.0220174
0.0216223
0.0212662
0.0209429
0.0206471
0.0203746
0.0201221
0.0198867
0.019666
0.0194578
0.0192605
0.0190724
0.018892
0.018718
0.0185492
0.0183845
0.0182226
0.0180625
0.0179031
0.0177432
0.0175817
0.0174172
0.0172484
0.0170738
0.0168916
0.0166997
0.0164965
0.0162783
0.0160443
0.0157873
0.01551
0.0151969
0.0148609
0.0144686
0.0140549
0.0135612
0.0130499
0.0125657
0.0120914
0.088589
0.0441227
0.0280113
0.0279121
0.0276581
0.0262597
0.0250711
0.0242418
0.0235818
0.0230073
0.0225005
0.0220522
0.0216526
0.0212931
0.0209668
0.0206686
0.0203941
0.0201399
0.019903
0.019681
0.0194718
0.0192736
0.0190846
0.0189035
0.018729
0.0185597
0.0183945
0.0182323
0.018072
0.0179124
0.0177524
0.0175908
0.0174264
0.0172577
0.0170832
0.0169014
0.01671
0.0165074
0.0162901
0.016057
0.0158015
0.0155257
0.0152152
0.0148811
0.0144939
0.014082
0.0136007
0.0130923
0.0126356
0.0121629
0.085893
0.0448142
0.0286425
0.0281338
0.0278294
0.0263975
0.0251647
0.0243121
0.0236409
0.0230579
0.0225439
0.0220899
0.0216858
0.0213226
0.0209934
0.0206926
0.020416
0.02016
0.0199216
0.0196982
0.0194878
0.0192886
0.0190988
0.0189169
0.0187417
0.0185719
0.0184063
0.0182437
0.0180831
0.0179233
0.0177632
0.0176016
0.0174373
0.0172688
0.0170947
0.0169133
0.0167226
0.0165208
0.0163046
0.0160729
0.0158192
0.0155455
0.0152383
0.014907
0.0145261
0.0141174
0.0136502
0.0131484
0.0127121
0.0122409
0.0832611
0.0454172
0.0292667
0.0283458
0.0279935
0.026537
0.0252608
0.024384
0.0237016
0.0231103
0.0225892
0.0221295
0.0217209
0.0213541
0.0210219
0.0207186
0.0204399
0.020182
0.0199419
0.0197172
0.0195056
0.0193053
0.0191146
0.018932
0.0187561
0.0185858
0.0184197
0.0182568
0.0180959
0.0179359
0.0177758
0.0176142
0.01745
0.0172819
0.0171082
0.0169274
0.0167375
0.0165369
0.016322
0.0160921
0.0158408
0.0155696
0.0152664
0.0149388
0.0145654
0.0141617
0.0137096
0.0132185
0.0127962
0.0123263
0.0806964
0.0459324
0.0298822
0.0285493
0.0281496
0.0266771
0.0253592
0.0244569
0.0237631
0.0231639
0.0226357
0.0221703
0.0217573
0.021387
0.0210518
0.020746
0.0204651
0.0202054
0.0199637
0.0197376
0.0195249
0.0193235
0.0191319
0.0189485
0.018772
0.0186011
0.0184345
0.0182713
0.0181102
0.0179501
0.0177899
0.0176285
0.0174645
0.0172968
0.0171237
0.0169437
0.0167549
0.0165555
0.0163424
0.0161145
0.015866
0.015598
0.0152997
0.0149766
0.0146118
0.014215
0.0137789
0.0133017
0.0128889
0.0124205
0.0782016
0.0463604
0.0304869
0.0287457
0.028297
0.026817
0.0254597
0.0245309
0.0238253
0.0232182
0.0226832
0.0222121
0.0217947
0.0214208
0.0210826
0.0207744
0.0204913
0.0202298
0.0199866
0.0197591
0.0195452
0.0193428
0.0191503
0.0189661
0.018789
0.0186175
0.0184506
0.018287
0.0181257
0.0179656
0.0178054
0.0176442
0.0174806
0.0173133
0.0171409
0.0169619
0.0167743
0.0165765
0.0163654
0.01614
0.0158948
0.0156305
0.0153377
0.0150201
0.014665
0.0142769
0.0138572
0.0133967
0.0129906
0.0125246
0.0757793
0.046702
0.031078
0.0289365
0.0284352
0.026956
0.0255622
0.0246057
0.023888
0.0232732
0.0227313
0.0222546
0.0218327
0.0214553
0.0211142
0.0208034
0.0205183
0.020255
0.0200102
0.0197814
0.0195663
0.0193629
0.0191695
0.0189847
0.0188069
0.0186349
0.0184676
0.0183038
0.0181423
0.0179821
0.0178221
0.0176611
0.017498
0.0173313
0.0171598
0.0169819
0.0167957
0.0165997
0.0163909
0.0161682
0.0159268
0.0156667
0.0153801
0.0150689
0.0147242
0.0143467
0.0139435
0.0135019
0.0131016
0.0126398
0.0734318
0.0469587
0.0316524
0.0291231
0.028564
0.0270931
0.0256665
0.0246815
0.023951
0.0233288
0.0227802
0.0222978
0.0218714
0.0214904
0.0211463
0.0208331
0.0205459
0.0202807
0.0200344
0.0198043
0.019588
0.0193836
0.0191894
0.0190038
0.0188255
0.0186531
0.0184854
0.0183213
0.0181598
0.0179996
0.0178398
0.0176791
0.0175164
0.0173505
0.0171799
0.0170033
0.0168187
0.0166247
0.0164185
0.0161989
0.0159616
0.0157062
0.0154263
0.0151224
0.0147887
0.0144233
0.0140368
0.0136152
0.0132216
0.0127666
0.0711611
0.0471322
0.0322069
0.0293071
0.028683
0.0272272
0.0257723
0.0247583
0.0240144
0.0233848
0.0228296
0.0223415
0.0219106
0.021526
0.021179
0.0208633
0.020574
0.020307
0.0200591
0.0198277
0.0196103
0.0194049
0.0192099
0.0190236
0.0188446
0.0186718
0.0185038
0.0183395
0.0181779
0.0180178
0.0178582
0.0176979
0.0175358
0.0173707
0.0172012
0.0170259
0.0168431
0.0166512
0.0164478
0.0162316
0.0159988
0.0157485
0.0154758
0.0151799
0.0148577
0.0145057
0.014136
0.0137352
0.01335
0.0129052
0.0689689
0.0472247
0.0327385
0.0294899
0.0287924
0.0273574
0.0258794
0.024836
0.0240781
0.0234412
0.0228796
0.0223858
0.0219504
0.0215622
0.0212122
0.020894
0.0206025
0.0203337
0.0200843
0.0198515
0.019633
0.0194266
0.0192308
0.0190438
0.0188643
0.018691
0.0185227
0.0183583
0.0181966
0.0180366
0.0178772
0.0177174
0.017556
0.0173918
0.0172234
0.0170496
0.0168687
0.0166792
0.0164788
0.0162662
0.0160381
0.0157934
0.0155282
0.015241
0.0149306
0.014593
0.0142403
0.0138606
0.0134864
0.0130556
0.0668563
0.0472389
0.0332438
0.0296723
0.0288924
0.0274827
0.0259875
0.0249148
0.024142
0.0234979
0.0229302
0.0224307
0.0219907
0.0215988
0.0212459
0.0209252
0.0206316
0.020361
0.02011
0.0198759
0.0196561
0.0194488
0.0192521
0.0190645
0.0188844
0.0187107
0.0185421
0.0183775
0.0182158
0.018056
0.0178969
0.0177376
0.0175769
0.0174136
0.0172465
0.0170743
0.0168953
0.0167084
0.0165111
0.0163024
0.0160793
0.0158405
0.0155831
0.0153053
0.015007
0.0146845
0.0143489
0.0139906
0.0136302
0.0132173
0.0648241
0.047178
0.0337201
0.0298554
0.0289833
0.027602
0.0260959
0.0249946
0.024206
0.0235548
0.0229812
0.0224762
0.0220315
0.021636
0.0212801
0.0209569
0.0206611
0.0203887
0.0201361
0.0199006
0.0196798
0.0194715
0.0192739
0.0190856
0.018905
0.0187309
0.018562
0.0183973
0.0182356
0.0180759
0.0179172
0.0177584
0.0175984
0.0174362
0.0172704
0.0170999
0.0169231
0.0167387
0.0165449
0.0163401
0.0161222
0.0158897
0.0156404
0.0153724
0.0150866
0.0147797
0.0144614
0.0141247
0.013781
0.0133901
0.0628727
0.0470457
0.0341642
0.0300393
0.0290656
0.0277145
0.0262042
0.0250753
0.0242702
0.0236118
0.0230326
0.0225221
0.0220729
0.0216737
0.0213148
0.020989
0.0206911
0.0204168
0.0201627
0.0199259
0.0197038
0.0194945
0.0192962
0.0191072
0.018926
0.0187515
0.0185824
0.0184175
0.0182559
0.0180964
0.0179381
0.0177799
0.0176207
0.0174595
0.0172951
0.0171264
0.0169518
0.0167702
0.0165799
0.0163794
0.0161669
0.0159409
0.0157
0.0154422
0.0151691
0.0148782
0.0145777
0.0142627
0.0139385
0.0135738
0.0610018
0.0468461
0.0345733
0.0302243
0.0291402
0.0278194
0.0263116
0.025157
0.0243345
0.0236688
0.0230843
0.0225685
0.0221147
0.0217118
0.0213499
0.0210217
0.0207216
0.0204455
0.0201897
0.0199515
0.0197283
0.0195181
0.0193189
0.0191292
0.0189475
0.0187726
0.0186032
0.0184383
0.0182767
0.0181174
0.0179595
0.0178019
0.0176436
0.0174836
0.0173207
0.0171538
0.0169816
0.0168029
0.0166162
0.0164202
0.0162133
0.0159942
0.0157618
0.0155147
0.0152546
0.0149799
0.0146976
0.0144047
0.0141026
0.0137677
0.0592112
0.0465838
0.034945
0.03041
0.0292078
0.0279161
0.0264176
0.0252394
0.024399
0.0237258
0.0231363
0.0226153
0.0221569
0.0217504
0.0213855
0.0210547
0.0207525
0.0204745
0.0202172
0.0199777
0.0197533
0.0195421
0.0193421
0.0191517
0.0189695
0.0187942
0.0186246
0.0184596
0.018298
0.018139
0.0179816
0.0178246
0.0176673
0.0175085
0.0173471
0.0171822
0.0170125
0.0168368
0.0166539
0.0164625
0.0162615
0.0160494
0.0158259
0.0155898
0.0153429
0.0150848
0.0148212
0.0145507
0.0142731
0.0139715
0.0574998
0.0462638
0.0352768
0.0305957
0.0292694
0.028004
0.0265211
0.0253225
0.0244635
0.0237825
0.0231884
0.0226625
0.0221996
0.0217894
0.0214215
0.0210883
0.0207839
0.0205041
0.0202452
0.0200043
0.0197787
0.0195665
0.0193657
0.0191746
0.0189919
0.0188163
0.0186464
0.0184813
0.0183199
0.0181612
0.0180042
0.017848
0.0176916
0.0175341
0.0173744
0.0172115
0.0170444
0.0168719
0.016693
0.0165064
0.0163114
0.0161067
0.0158923
0.0156674
0.0154341
0.0151928
0.0149483
0.0147009
0.0144498
0.0141842
0.0558664
0.0458911
0.0355666
0.0307804
0.029326
0.0280828
0.0266215
0.0254059
0.0245281
0.023839
0.0232404
0.02271
0.0222426
0.0218287
0.021458
0.0211222
0.0208157
0.020534
0.0202736
0.0200313
0.0198046
0.0195914
0.0193898
0.0191981
0.0190149
0.0188388
0.0186688
0.0185037
0.0183424
0.018184
0.0180276
0.0178721
0.0177168
0.0175606
0.0174026
0.0172419
0.0170774
0.0169083
0.0167334
0.0165519
0.016363
0.016166
0.0159609
0.0157476
0.0155281
0.0153038
0.015079
0.0148552
0.0146324
0.0144051
0.0543094
0.0454714
0.035813
0.0309624
0.0293786
0.0281525
0.0267178
0.0254894
0.0245929
0.0238951
0.0232924
0.0227577
0.022286
0.0218685
0.0214948
0.0211566
0.020848
0.0205645
0.0203024
0.0200588
0.0198309
0.0196168
0.0194143
0.019222
0.0190383
0.0188619
0.0186917
0.0185266
0.0183654
0.0182074
0.0180515
0.0178969
0.0177426
0.0175879
0.0174317
0.0172732
0.0171116
0.0169459
0.0167753
0.016599
0.0164165
0.0162274
0.0160319
0.0158303
0.015625
0.0154179
0.0152132
0.0150136
0.0148205
0.0146334
0.0528269
0.0450101
0.0360145
0.03114
0.0294282
0.0282131
0.0268091
0.0255724
0.0246577
0.0239508
0.0233442
0.0228056
0.0223296
0.0219085
0.0215319
0.0211913
0.0208806
0.0205953
0.0203317
0.0200867
0.0198577
0.0196426
0.0194393
0.0192464
0.0190622
0.0188855
0.0187151
0.01855
0.0183891
0.0182314
0.0180761
0.0179224
0.0177693
0.017616
0.0174617
0.0173056
0.0171469
0.0169848
0.0168186
0.0166477
0.0164719
0.0162908
0.0161051
0.0159156
0.0157247
0.015535
0.0153508
0.0151761
0.0150138
0.0148679
0.0514165
0.0445131
0.0361704
0.031311
0.0294757
0.0282648
0.0268946
0.0256546
0.0247226
0.024006
0.0233955
0.0228535
0.0223736
0.0219489
0.0215694
0.0212264
0.0209136
0.0206265
0.0203614
0.0201151
0.019885
0.0196689
0.0194648
0.0192712
0.0190866
0.0189096
0.0187391
0.018574
0.0184133
0.0182561
0.0181015
0.0179486
0.0177967
0.017645
0.0174927
0.0173391
0.0171834
0.017025
0.0168634
0.0166981
0.016529
0.0163563
0.0161806
0.0160034
0.0158271
0.0156551
0.0154918
0.0153423
0.0152117
0.0151075
0.0500758
0.043986
0.0362804
0.031473
0.0295218
0.0283082
0.0269736
0.0257353
0.0247874
0.0240608
0.0234465
0.0229013
0.0224176
0.0219895
0.0216072
0.0212618
0.020947
0.0206582
0.0203915
0.0201439
0.0199126
0.0196956
0.0194908
0.0192966
0.0191115
0.0189342
0.0187636
0.0185986
0.0184381
0.0182814
0.0181275
0.0179756
0.017825
0.0176749
0.0175247
0.0173736
0.0172211
0.0170666
0.0169097
0.0167501
0.0165881
0.0164238
0.0162584
0.0160936
0.0159322
0.015778
0.015636
0.0155121
0.0154136
0.0153513
0.0488021
0.0434343
0.0363448
0.0316233
0.0295671
0.0283439
0.0270454
0.0258139
0.0248519
0.0241149
0.0234968
0.0229489
0.0224618
0.0220303
0.0216452
0.0212975
0.0209808
0.0206902
0.020422
0.0201731
0.0199407
0.0197228
0.0195172
0.0193224
0.0191369
0.0189594
0.0187887
0.0186237
0.0184636
0.0183073
0.0181542
0.0180034
0.0178541
0.0177058
0.0175577
0.0174092
0.01726
0.0171095
0.0169575
0.0168038
0.0166489
0.0164933
0.0163384
0.0161862
0.0160399
0.0159036
0.015783
0.0156851
0.0156189
0.015598
0.0475926
0.0428635
0.0363644
0.0317594
0.0296118
0.0283726
0.0271095
0.0258898
0.0249161
0.0241686
0.0235464
0.0229961
0.022506
0.0220713
0.0216834
0.0213335
0.0210148
0.0207225
0.0204529
0.0202027
0.0199693
0.0197504
0.0195441
0.0193488
0.0191629
0.0189851
0.0188143
0.0186495
0.0184897
0.018334
0.0181816
0.0180319
0.017884
0.0177375
0.0175917
0.017446
0.0173001
0.0171538
0.0170068
0.0168592
0.0167116
0.0165649
0.0164206
0.0162812
0.01615
0.0160318
0.0159328
0.0158608
0.0158267
0.0158465
0.0464442
0.0422785
0.0363405
0.0318789
0.0296558
0.0283951
0.0271657
0.025962
0.0249796
0.0242216
0.0235952
0.0230429
0.0225501
0.0221123
0.0217218
0.0213697
0.0210492
0.0207552
0.0204841
0.0202327
0.0199982
0.0197785
0.0195715
0.0193756
0.0191893
0.0190113
0.0188405
0.0186758
0.0185164
0.0183613
0.0182098
0.0180612
0.0179149
0.0177702
0.0176267
0.0174839
0.0173415
0.0171994
0.0170576
0.0169162
0.0167762
0.0166384
0.0165049
0.0163783
0.0162625
0.0161624
0.0160849
0.0160388
0.0160365
0.0160955
0.045354
0.0416839
0.036275
0.0319797
0.0296985
0.0284121
0.0272137
0.02603
0.025042
0.0242739
0.0236432
0.0230891
0.022594
0.0221534
0.0217603
0.0214061
0.0210837
0.0207882
0.0205157
0.020263
0.0200276
0.019807
0.0195993
0.0194029
0.0192162
0.0190381
0.0188673
0.0187028
0.0185437
0.0183893
0.0182387
0.0180913
0.0179465
0.0178038
0.0176627
0.0175229
0.0173842
0.0172464
0.0171099
0.0169749
0.0168425
0.0167138
0.0165912
0.0164776
0.016377
0.016295
0.0162391
0.0162186
0.0162472
0.016344
0.0443189
0.041084
0.0361702
0.0320598
0.0297392
0.0284245
0.0272535
0.0260931
0.025103
0.0243255
0.0236901
0.0231346
0.0226376
0.0221944
0.0217988
0.0214425
0.0211185
0.0208214
0.0205476
0.0202938
0.0200573
0.0198359
0.0196276
0.0194306
0.0192437
0.0190654
0.0188946
0.0187303
0.0185717
0.018418
0.0182684
0.0181223
0.0179791
0.0178384
0.0176998
0.0175631
0.0174281
0.0172948
0.0171636
0.0170352
0.0169105
0.0167911
0.0166795
0.0165787
0.0164935
0.0164295
0.0163948
0.0163994
0.0164581
0.0165907
0.0433359
0.0404823
0.0360288
0.0321177
0.0297767
0.0284327
0.0272854
0.0261506
0.025162
0.0243763
0.0237361
0.0231791
0.0226807
0.0222352
0.0218373
0.0214791
0.0211534
0.0208549
0.0205798
0.0203248
0.0200874
0.0198652
0.0196562
0.0194589
0.0192716
0.0190932
0.0189225
0.0187585
0.0186004
0.0184474
0.0182988
0.018154
0.0180125
0.0178739
0.017738
0.0176044
0.0174732
0.0173445
0.0172189
0.017097
0.0169801
0.0168701
0.0167694
0.0166817
0.0166117
0.0165655
0.0165516
0.0165808
0.0166682
0.0168344
0.0424017
0.0398823
0.0358538
0.0321522
0.0298096
0.0284374
0.0273097
0.026202
0.0252185
0.024426
0.023781
0.0232227
0.0227232
0.0222759
0.0218758
0.0215157
0.0211884
0.0208886
0.0206122
0.0203562
0.0201178
0.0198949
0.0196853
0.0194875
0.0193
0.0191215
0.0189509
0.0187873
0.0186297
0.0184775
0.0183299
0.0181865
0.0180468
0.0179104
0.0177771
0.0176468
0.0175195
0.0173956
0.0172755
0.0171603
0.0170514
0.0169507
0.0168611
0.0167862
0.0167313
0.0167026
0.0167091
0.0167619
0.0168767
0.017074
0.0415137
0.0392867
0.0356485
0.0321626
0.0298365
0.0284388
0.0273269
0.0262468
0.025272
0.0244745
0.0238247
0.0232651
0.022765
0.0223161
0.0219141
0.0215522
0.0212235
0.0209223
0.0206448
0.0203878
0.0201486
0.0199249
0.0197148
0.0195167
0.0193289
0.0191504
0.0189799
0.0188166
0.0186596
0.0185083
0.0183619
0.0182199
0.018082
0.0179479
0.0178173
0.0176903
0.0175671
0.0174479
0.0173336
0.0172251
0.0171241
0.0170328
0.0169542
0.0168921
0.016852
0.0168405
0.0168667
0.016942
0.0170825
0.0173084
0.0406688
0.0386979
0.0354163
0.0321485
0.0298559
0.0284371
0.0273373
0.0262848
0.0253218
0.0245214
0.0238672
0.0233063
0.0228059
0.0223559
0.0219522
0.0215887
0.0212585
0.0209562
0.0206776
0.0204196
0.0201796
0.0199553
0.0197447
0.0195462
0.0193583
0.0191797
0.0190095
0.0188466
0.0186902
0.0185397
0.0183945
0.0182541
0.0181181
0.0179863
0.0178586
0.017735
0.0176158
0.0175015
0.0173929
0.0172912
0.0171983
0.0171163
0.0170485
0.0169991
0.0169735
0.0169786
0.0170238
0.0171206
0.0172848
0.0175364
0.0398643
0.0381177
0.0351606
0.0321099
0.0298661
0.0284321
0.0273415
0.0263158
0.0253674
0.0245664
0.0239084
0.0233462
0.0228457
0.022395
0.0219899
0.0216249
0.0212935
0.0209901
0.0207105
0.0204517
0.0202109
0.019986
0.019775
0.0195761
0.0193881
0.0192096
0.0190395
0.0188771
0.0187214
0.0185719
0.0184279
0.018289
0.018155
0.0180256
0.0179008
0.0177807
0.0176656
0.0175562
0.0174535
0.0173586
0.0172736
0.0172009
0.0171439
0.0171068
0.0170954
0.0171165
0.0171798
0.0172966
0.0174827
0.0177571
0.0390978
0.0375478
0.0348847
0.0320474
0.0298657
0.0284236
0.02734
0.0263398
0.0254083
0.0246093
0.0239481
0.0233847
0.0228844
0.0224334
0.0220272
0.0216609
0.0213284
0.021024
0.0207435
0.0204839
0.0202425
0.020017
0.0198055
0.0196064
0.0194183
0.0192399
0.0190701
0.0189082
0.0187533
0.0186047
0.018462
0.0183248
0.0181928
0.0180658
0.0179439
0.0178274
0.0177165
0.0176121
0.0175152
0.0174272
0.0173501
0.0172866
0.0172401
0.0172151
0.0172173
0.0172538
0.0173341
0.0174695
0.0176753
0.0179695
0.0383666
0.0369892
0.0345918
0.0319617
0.0298534
0.028411
0.0273332
0.0263569
0.0254441
0.0246494
0.0239862
0.0234217
0.0229218
0.0224709
0.0220639
0.0216966
0.021363
0.0210577
0.0207765
0.0205162
0.0202741
0.0200482
0.0198364
0.0196371
0.0194489
0.0192707
0.0191013
0.0189398
0.0187857
0.0186382
0.0184968
0.0183613
0.0182313
0.0181069
0.0179881
0.0178751
0.0177685
0.017669
0.0175779
0.0174967
0.0174275
0.017373
0.0173368
0.0173235
0.0173388
0.0173899
0.017486
0.0176384
0.0178616
0.0181727
0.0376686
0.0364429
0.0342849
0.031854
0.0298283
0.0283937
0.0273214
0.0263672
0.0254744
0.0246864
0.0240225
0.0234571
0.0229577
0.0225073
0.0221
0.0217318
0.0213973
0.0210913
0.0208095
0.0205485
0.020306
0.0200796
0.0198675
0.0196681
0.01948
0.0193019
0.0191328
0.018972
0.0188187
0.0186723
0.0185323
0.0183985
0.0182707
0.0181488
0.018033
0.0179237
0.0178214
0.0177269
0.0176416
0.0175671
0.0175056
0.01746
0.0174338
0.0174317
0.0174595
0.0175242
0.0176349
0.0178026
0.0180409
0.0183657
0.0370017
0.0359095
0.0339669
0.0317256
0.0297895
0.0283709
0.0273048
0.0263709
0.0254988
0.0247199
0.0240566
0.0234908
0.0229921
0.0225425
0.0221353
0.0217665
0.0214313
0.0211247
0.0208423
0.0205809
0.0203379
0.0201112
0.0198989
0.0196994
0.0195113
0.0193335
0.0191649
0.0190047
0.0188522
0.018707
0.0185685
0.0184365
0.0183108
0.0181915
0.0180789
0.0179732
0.0178751
0.0177857
0.0177061
0.0176383
0.0175843
0.0175473
0.0175307
0.0175393
0.0175788
0.0176562
0.0177802
0.0179613
0.0182124
0.0185479
0.0363637
0.0353892
0.0336402
0.0315782
0.0297367
0.0283418
0.0272836
0.0263685
0.0255172
0.0247494
0.0240884
0.0235226
0.0230249
0.0225764
0.0221696
0.0218005
0.0214649
0.0211578
0.020875
0.0206132
0.0203698
0.0201429
0.0199305
0.0197309
0.019543
0.0193654
0.0191973
0.0190378
0.0188863
0.0187423
0.0186053
0.0184751
0.0183516
0.018235
0.0181254
0.0180234
0.0179296
0.0178451
0.0177713
0.0177099
0.0176634
0.0176346
0.0176273
0.017646
0.0176964
0.0177853
0.0179212
0.0181139
0.0183753
0.0187186
0.035753
0.0348825
0.033307
0.0314134
0.0296695
0.0283056
0.0272575
0.02636
0.0255296
0.0247745
0.0241175
0.0235524
0.0230558
0.0226088
0.0222028
0.0218337
0.0214978
0.0211904
0.0209073
0.0206453
0.0204017
0.0201746
0.0199621
0.0197627
0.0195749
0.0193977
0.0192302
0.0190714
0.0189209
0.0187781
0.0186426
0.0185143
0.0183931
0.0182791
0.0181727
0.0180743
0.0179848
0.0179052
0.0178369
0.0177819
0.0177425
0.0177216
0.017723
0.0177512
0.0178117
0.0179111
0.0180573
0.0182596
0.018529
0.0188771
0.0351677
0.0343892
0.0329695
0.031233
0.0295881
0.0282616
0.0272265
0.0263458
0.0255359
0.024795
0.0241436
0.0235801
0.0230849
0.0226396
0.0222347
0.0218661
0.0215302
0.0212226
0.0209394
0.0206772
0.0204336
0.0202064
0.0199939
0.0197946
0.0196071
0.0194303
0.0192634
0.0191054
0.0189559
0.0188144
0.0186805
0.0185541
0.0184352
0.0183239
0.0182206
0.0181258
0.0180405
0.0179657
0.0179029
0.017854
0.0178214
0.0178081
0.0178177
0.0178547
0.0179243
0.0180328
0.0181879
0.0183979
0.0186728
0.019023
0.0346063
0.0339093
0.0326293
0.0310388
0.0294928
0.0282093
0.0271903
0.026326
0.0255361
0.0248105
0.0241663
0.0236054
0.023112
0.0226686
0.0222653
0.0218974
0.0215617
0.0212542
0.020971
0.0207088
0.0204652
0.0202381
0.0200257
0.0198266
0.0196394
0.0194631
0.0192968
0.0191397
0.0189913
0.0188511
0.0187188
0.0185944
0.0184777
0.0183691
0.018269
0.0181778
0.0180966
0.0180265
0.017969
0.017926
0.0178999
0.0178937
0.0179109
0.0179558
0.0180336
0.0181501
0.0183123
0.0185281
0.0188063
0.0191559
0.0340674
0.0334426
0.032288
0.0308325
0.029384
0.028148
0.0271485
0.0263008
0.0255304
0.0248209
0.0241854
0.0236281
0.0231369
0.0226957
0.0222943
0.0219276
0.0215924
0.0212851
0.0210021
0.0207401
0.0204966
0.0202696
0.0200575
0.0198586
0.0196719
0.0194962
0.0193306
0.0191744
0.0190271
0.0188882
0.0187576
0.0186351
0.0185208
0.0184148
0.0183178
0.0182302
0.018153
0.0180874
0.018035
0.0179976
0.0179777
0.0179781
0.0180023
0.0180543
0.0181392
0.0182623
0.0184301
0.0186497
0.0189289
0.0192755
0.0335496
0.0329889
0.0319467
0.0306159
0.0292625
0.0280774
0.0271008
0.0262703
0.0255189
0.0248259
0.0242005
0.0236479
0.0231595
0.0227209
0.0223216
0.0219564
0.0216221
0.0213153
0.0210326
0.0207709
0.0205277
0.020301
0.0200891
0.0198907
0.0197044
0.0195293
0.0193645
0.0192092
0.0190631
0.0189257
0.0187967
0.0186762
0.0185641
0.0184609
0.0183668
0.0182827
0.0182095
0.0181483
0.0181007
0.0180686
0.0180544
0.0180609
0.0180914
0.0181497
0.0182405
0.018369
0.0185408
0.0187624
0.0190405
0.0193816
0.0330516
0.032548
0.0316067
0.0303906
0.029129
0.0279975
0.027047
0.0262343
0.0255016
0.0248256
0.0242113
0.0236647
0.0231796
0.0227439
0.0223471
0.0219838
0.0216506
0.0213445
0.0210624
0.0208012
0.0205584
0.020332
0.0201206
0.0199226
0.0197369
0.0195625
0.0193985
0.0192443
0.0190993
0.0189633
0.0188361
0.0187175
0.0186078
0.0185071
0.0184161
0.0183353
0.0182659
0.0182089
0.0181659
0.0181388
0.0181299
0.0181418
0.0181778
0.0182416
0.0183373
0.0184697
0.0186439
0.0188656
0.0191405
0.019474
0.0325723
0.0321196
0.0312689
0.0301579
0.0289845
0.0279081
0.0269866
0.026193
0.0254787
0.0248198
0.0242177
0.0236781
0.0231972
0.0227646
0.0223707
0.0220095
0.0216778
0.0213728
0.0210914
0.0208308
0.0205885
0.0203627
0.0201518
0.0199544
0.0197693
0.0195957
0.0194326
0.0192794
0.0191357
0.0190012
0.0188756
0.018759
0.0186515
0.0185535
0.0184653
0.0183878
0.018322
0.018269
0.0182303
0.0182078
0.0182036
0.0182205
0.0182613
0.0183294
0.0184289
0.0185639
0.0187391
0.0189591
0.019229
0.0195529
0.0321107
0.0317032
0.0309339
0.0299194
0.0288299
0.0278095
0.0269194
0.0261462
0.0254504
0.0248086
0.0242195
0.0236879
0.0232119
0.0227829
0.0223921
0.0220335
0.0217036
0.0213998
0.0211194
0.0208596
0.0206181
0.020393
0.0201827
0.0199859
0.0198016
0.0196288
0.0194666
0.0193145
0.0191721
0.0190391
0.0189152
0.0188006
0.0186953
0.0185998
0.0185144
0.0184401
0.0183777
0.0183283
0.0182936
0.0182753
0.0182754
0.0182965
0.0183413
0.018413
0.0185151
0.0186514
0.0188259
0.0190427
0.0193057
0.0196182
0.0316657
0.0312986
0.0306024
0.0296761
0.0286663
0.0277018
0.0268453
0.0260937
0.0254166
0.024792
0.0242165
0.0236939
0.0232235
0.0227987
0.0224114
0.0220556
0.0217279
0.0214256
0.0211464
0.0208876
0.0206469
0.0204226
0.0202131
0.0200171
0.0198336
0.0196617
0.0195005
0.0193496
0.0192085
0.019077
0.0189548
0.0188421
0.018739
0.0186459
0.0185633
0.0184919
0.0184327
0.0183868
0.0183557
0.0183411
0.018345
0.0183696
0.0184176
0.0184918
0.0185954
0.0187317
0.0189042
0.0191162
0.0193708
0.0196704
0.0312364
0.0309054
0.030275
0.0294294
0.0284945
0.0275856
0.0267641
0.0260356
0.0253774
0.02477
0.0242086
0.0236959
0.023232
0.0228118
0.0224283
0.0220757
0.0217504
0.02145
0.0211722
0.0209146
0.020675
0.0204516
0.020243
0.0200479
0.0198653
0.0196943
0.0195342
0.0193845
0.0192447
0.0191147
0.0189942
0.0188834
0.0187824
0.0186917
0.0186116
0.018543
0.0184868
0.0184441
0.0184162
0.0184049
0.0184119
0.0184394
0.0184897
0.0185655
0.0186696
0.0188047
0.0189738
0.0191795
0.0194242
0.0197095
0.0308221
0.0305233
0.0299521
0.0291801
0.0283157
0.0274611
0.026676
0.0259717
0.0253328
0.0247427
0.0241958
0.0236937
0.023237
0.022822
0.0224427
0.0220936
0.0217711
0.0214729
0.0211968
0.0209405
0.0207021
0.0204798
0.0202722
0.0200781
0.0198965
0.0197265
0.0195676
0.0194191
0.0192807
0.0191522
0.0190334
0.0189244
0.0188255
0.0187369
0.0186593
0.0185933
0.0185398
0.0184999
0.0184749
0.0184663
0.0184759
0.0185056
0.0185575
0.0186339
0.0187373
0.01887
0.0190344
0.0192326
0.0194662
0.0197361
0.0304218
0.0301519
0.029634
0.0289292
0.0281307
0.0273291
0.0265809
0.025902
0.0252829
0.0247102
0.024178
0.0236872
0.0232385
0.0228293
0.0224545
0.0221091
0.0217898
0.0214941
0.0212199
0.0209652
0.0207282
0.0205071
0.0203007
0.0201077
0.0199271
0.0197583
0.0196006
0.0194533
0.0193163
0.0191893
0.0190721
0.0189649
0.018868
0.0187815
0.0187061
0.0186425
0.0185915
0.0185541
0.0185315
0.0185252
0.0185367
0.0185679
0.0186205
0.0186966
0.0187983
0.0189275
0.0190861
0.0192756
0.019497
0.0197507
0.0300349
0.0297908
0.029321
0.0286774
0.0279405
0.02719
0.0264791
0.0258264
0.0252277
0.0246724
0.0241553
0.0236762
0.0232362
0.0228333
0.0224635
0.0221223
0.0218064
0.0215134
0.0212414
0.0209886
0.0207531
0.0205334
0.0203283
0.0201365
0.0199571
0.0197895
0.019633
0.019487
0.0193514
0.0192258
0.0191103
0.0190049
0.0189097
0.0188253
0.018752
0.0186905
0.0186416
0.0186063
0.0185857
0.0185812
0.0185941
0.018626
0.0186785
0.0187534
0.0188524
0.0189771
0.0191288
0.0193086
0.0195169
0.0197536
0.0296607
0.0294398
0.0290133
0.0284255
0.0277459
0.0270445
0.0263707
0.025745
0.0251671
0.0246296
0.0241276
0.0236608
0.02323
0.022834
0.0224696
0.0221329
0.0218207
0.0215307
0.0212612
0.0210104
0.0207767
0.0205586
0.0203549
0.0201644
0.0199863
0.0198199
0.0196647
0.0195201
0.0193858
0.0192617
0.0191478
0.019044
0.0189506
0.018868
0.0187965
0.0187369
0.0186899
0.0186564
0.0186374
0.018634
0.0186476
0.0186796
0.0187313
0.0188042
0.0188996
0.0190188
0.0191627
0.0193319
0.0195264
0.0197456
0.0292986
0.0290985
0.0287111
0.0281742
0.0275477
0.0268933
0.0262562
0.0256579
0.0251013
0.0245816
0.0240949
0.0236408
0.0232198
0.0228313
0.0224727
0.0221408
0.0218326
0.021546
0.0212792
0.0210307
0.0207989
0.0205825
0.0203803
0.0201913
0.0200146
0.0198495
0.0196956
0.0195524
0.0194195
0.0192968
0.0191844
0.0190822
0.0189904
0.0189094
0.0188396
0.0187817
0.0187362
0.018704
0.0186861
0.0186835
0.0186972
0.0187285
0.0187786
0.0188487
0.0189397
0.0190525
0.0191878
0.0193457
0.0195258
0.0197273
0.028948
0.0287666
0.0284144
0.0279239
0.0273466
0.0267369
0.0261359
0.0255652
0.0250302
0.0245286
0.0240574
0.0236162
0.0232055
0.0228249
0.0224726
0.0221459
0.021842
0.021559
0.0212952
0.0210492
0.0208196
0.020605
0.0204045
0.020217
0.0200418
0.0198781
0.0197256
0.0195837
0.0194522
0.019331
0.0192199
0.0191192
0.0190289
0.0189494
0.0188811
0.0188244
0.0187802
0.018749
0.0187317
0.0187292
0.0187425
0.0187726
0.0188204
0.0188868
0.0189726
0.0190784
0.0192043
0.0193504
0.0195158
0.0196993
0.0286083
0.0284437
0.0281233
0.0276751
0.0271435
0.026576
0.0260101
0.025467
0.024954
0.0244706
0.0240151
0.0235871
0.023187
0.0228148
0.0224692