/*--------------------------------*- C++ -*----------------------------------*\
  =========                 |
  \\      /  F ield         | OpenFOAM: The Open Source CFD Toolbox
   \\    /   O peration     | Website:  https://openfoam.org
    \\  /    A nd           | Version:  7
     \\/     M anipulation  |
\*---------------------------------------------------------------------------*/
FoamFile
{
    version     2.0;
    format      ascii;
    class       surfaceScalarField;
    location    "0.45";
    object      phi;
}
// * * * * * * * * * * * * * * * * * * * * * * * * * * * * * * * * * * * * * //

dimensions      [0 3 -1 0 0 0 0];

internalField   nonuniform List<scalar> 
139350
(
6.45926e-08
9.20389e-08
3.19517e-08
3.26409e-08
2.30616e-08
8.89011e-09
1.95687e-08
3.49293e-09
1.76187e-08
1.95006e-09
1.61931e-08
1.4256e-09
1.50622e-08
1.13084e-09
1.41506e-08
9.1161e-10
1.34007e-08
7.4995e-10
1.27692e-08
6.31417e-10
1.22275e-08
5.41695e-10
1.17562e-08
4.71303e-10
1.13416e-08
4.14629e-10
1.09735e-08
3.68147e-10
1.0644e-08
3.2946e-10
1.03472e-08
2.96847e-10
1.00781e-08
2.69048e-10
9.83299e-09
2.45112e-10
9.60868e-09
2.24318e-10
9.40257e-09
2.06105e-10
9.21254e-09
1.90033e-10
9.03679e-09
1.75752e-10
8.87381e-09
1.6298e-10
8.72232e-09
1.51487e-10
8.58124e-09
1.41082e-10
8.44963e-09
1.31607e-10
8.3267e-09
1.22926e-10
8.21178e-09
1.14927e-10
8.10427e-09
1.07505e-10
8.00369e-09
1.00579e-10
7.90963e-09
9.40588e-11
7.82174e-09
8.78906e-11
7.73976e-09
8.19788e-11
7.66347e-09
7.62977e-11
7.59274e-09
7.07307e-11
7.52746e-09
6.52713e-11
7.46767e-09
5.97928e-11
7.41344e-09
5.4233e-11
7.36484e-09
4.85994e-11
7.32241e-09
4.24308e-11
7.28592e-09
3.64916e-11
7.25721e-09
2.87084e-11
7.23449e-09
2.27216e-11
7.22349e-09
1.09953e-11
7.21669e-09
6.80101e-12
7.23222e-09
-1.5534e-11
7.23927e-09
-7.049e-12
7.31997e-09
-8.06959e-11
7.15795e-09
1.6202e-10
-3.37759e-09
1.05355e-08
1.26026e-07
1.27456e-07
9.12646e-08
6.74023e-08
7.19461e-08
2.82086e-08
6.12227e-08
1.42162e-08
5.47811e-08
8.39171e-09
5.02925e-08
5.91414e-09
4.68142e-08
4.60922e-09
4.40044e-08
3.72138e-09
4.1684e-08
3.07032e-09
3.97284e-08
2.58704e-09
3.80505e-08
2.21959e-09
3.65903e-08
1.93146e-09
3.53053e-08
1.69968e-09
3.41638e-08
1.50963e-09
3.31418e-08
1.35144e-09
3.22206e-08
1.21807e-09
3.13853e-08
1.10437e-09
3.06239e-08
1.00646e-09
2.99268e-08
9.21407e-10
2.9286e-08
8.4691e-10
2.86949e-08
7.81182e-10
2.81478e-08
7.22794e-10
2.76402e-08
6.70595e-10
2.71681e-08
6.23646e-10
2.6728e-08
5.81172e-10
2.63171e-08
5.42527e-10
2.59328e-08
5.07162e-10
2.55731e-08
4.74617e-10
2.52362e-08
4.44478e-10
2.49203e-08
4.16411e-10
2.46243e-08
3.90071e-10
2.4347e-08
3.65226e-10
2.40874e-08
3.41532e-10
2.38449e-08
3.18865e-10
2.36188e-08
2.96794e-10
2.34087e-08
2.75338e-10
2.32146e-08
2.53881e-10
2.30363e-08
2.32584e-10
2.28742e-08
2.10646e-10
2.27286e-08
1.88079e-10
2.26006e-08
1.64504e-10
2.24911e-08
1.38146e-10
2.24017e-08
1.12211e-10
2.23363e-08
7.63302e-11
2.22925e-08
5.06218e-11
2.22899e-08
-1.29077e-11
2.22922e-08
-9.3278e-12
2.24383e-08
-2.26842e-10
2.23435e-08
2.56782e-10
-4.24644e-09
2.32124e-08
1.58807e-07
1.35053e-07
1.36496e-07
8.97139e-08
1.17497e-07
4.72069e-08
1.03325e-07
2.8389e-08
9.33243e-08
1.8392e-08
8.603e-08
1.32084e-08
8.03327e-08
1.03066e-08
7.56905e-08
8.36354e-09
7.18214e-08
6.93941e-09
6.85386e-08
5.86984e-09
6.5709e-08
5.04917e-09
6.3238e-08
4.40247e-09
6.10571e-08
3.88062e-09
5.91151e-08
3.45164e-09
5.73727e-08
3.09377e-09
5.57993e-08
2.79147e-09
5.43704e-08
2.53332e-09
5.30661e-08
2.31072e-09
5.18704e-08
2.11711e-09
5.077e-08
1.94738e-09
4.97536e-08
1.79751e-09
4.88121e-08
1.6643e-09
4.79376e-08
1.54517e-09
4.71232e-08
1.43799e-09
4.63634e-08
1.34103e-09
4.56531e-08
1.25282e-09
4.49881e-08
1.17213e-09
4.43648e-08
1.09791e-09
4.378e-08
1.02924e-09
4.32311e-08
9.65372e-10
4.27156e-08
9.05539e-10
4.22316e-08
8.49207e-10
4.17775e-08
7.95648e-10
4.13518e-08
7.44561e-10
4.09536e-08
6.95039e-10
4.05818e-08
6.47145e-10
4.02362e-08
5.99449e-10
3.99161e-08
5.52665e-10
3.96224e-08
5.04316e-10
3.93544e-08
4.56097e-10
3.91148e-08
4.04122e-10
3.89026e-08
3.50394e-10
3.8723e-08
2.91788e-10
3.85759e-08
2.23379e-10
3.84667e-08
1.5983e-10
3.84083e-08
4.54876e-11
3.83755e-08
2.35215e-11
3.84963e-08
-3.47658e-10
3.85523e-08
2.00758e-10
-4.18146e-09
3.84873e-08
1.75664e-07
1.30905e-07
1.65595e-07
9.97826e-08
1.52727e-07
6.00756e-08
1.40132e-07
4.09832e-08
1.2945e-07
2.90742e-08
1.20816e-07
2.18424e-08
1.13715e-07
1.74082e-08
1.07745e-07
1.4333e-08
1.02657e-07
1.2028e-08
9.82667e-08
1.02597e-08
9.4436e-08
8.87985e-09
9.10591e-08
7.77945e-09
8.8056e-08
6.88368e-09
8.53654e-08
6.14222e-09
8.29391e-08
5.52013e-09
8.07384e-08
4.99213e-09
7.87323e-08
4.53942e-09
7.68953e-08
4.14772e-09
7.52064e-08
3.80603e-09
7.3648e-08
3.50575e-09
7.22055e-08
3.24005e-09
7.08663e-08
3.00346e-09
6.96199e-08
2.79156e-09
6.84572e-08
2.6007e-09
6.73704e-08
2.42786e-09
6.63527e-08
2.27052e-09
6.53983e-08
2.12652e-09
6.45021e-08
1.99404e-09
6.36599e-08
1.8715e-09
6.28677e-08
1.75755e-09
6.21224e-08
1.6509e-09
6.1421e-08
1.5506e-09
6.07612e-08
1.45541e-09
6.0141e-08
1.3648e-09
5.95588e-08
1.27725e-09
5.9013e-08
1.19285e-09
5.85033e-08
1.10916e-09
5.80284e-08
1.02762e-09
5.75892e-08
9.43545e-10
5.71842e-08
8.61003e-10
5.68171e-08
7.7127e-10
5.64855e-08
6.81983e-10
5.61967e-08
5.80633e-10
5.59482e-08
4.71812e-10
5.57493e-08
3.5872e-10
5.56089e-08
1.85958e-10
5.55138e-08
1.18626e-10
5.55545e-08
-3.88351e-10
5.56726e-08
8.26495e-11
-3.86719e-09
5.53583e-08
1.8456e-07
1.2313e-07
1.82321e-07
1.02022e-07
1.76104e-07
6.62926e-08
1.67765e-07
4.93226e-08
1.59148e-07
3.76912e-08
1.51247e-07
2.97433e-08
1.44184e-07
2.44706e-08
1.37896e-07
2.06209e-08
1.32309e-07
1.76156e-08
1.27337e-07
1.52311e-08
1.22896e-07
1.33207e-08
1.1891e-07
1.17662e-08
1.15313e-07
1.04808e-08
1.12052e-07
9.40336e-09
1.09082e-07
8.49001e-09
1.06366e-07
7.70807e-09
1.03872e-07
7.03273e-09
1.01575e-07
6.44475e-09
9.94523e-08
5.92911e-09
9.74842e-08
5.47385e-09
9.56548e-08
5.06942e-09
9.39502e-08
4.70807e-09
9.23583e-08
4.38345e-09
9.08687e-08
4.09032e-09
8.94723e-08
3.82428e-09
8.81611e-08
3.58165e-09
8.69284e-08
3.35926e-09
8.5768e-08
3.15443e-09
8.46747e-08
2.96479e-09
8.36439e-08
2.78835e-09
8.26716e-08
2.62321e-09
8.17543e-08
2.4679e-09
8.08891e-08
2.32065e-09
8.00733e-08
2.18059e-09
7.9305e-08
2.04555e-09
7.85822e-08
1.91562e-09
7.79041e-08
1.78724e-09
7.72692e-08
1.66258e-09
7.66781e-08
1.53463e-09
7.61292e-08
1.40991e-09
7.56259e-08
1.27458e-09
7.51657e-08
1.14217e-09
7.4756e-08
9.90358e-10
7.43942e-08
8.33588e-10
7.40902e-08
6.62768e-10
7.38508e-08
4.25269e-10
7.36736e-08
2.95907e-10
7.36129e-08
-3.27727e-10
7.36978e-08
-2.23447e-12
-3.46763e-09
7.32983e-08
1.90388e-07
1.14958e-07
1.91851e-07
1.00558e-07
1.90244e-07
6.79002e-08
1.86155e-07
5.34112e-08
1.8072e-07
4.31259e-08
1.74972e-07
3.54914e-08
1.69284e-07
3.01586e-08
1.63811e-07
2.6094e-08
1.58649e-07
2.27782e-08
1.53838e-07
2.00413e-08
1.49383e-07
1.77757e-08
1.45267e-07
1.58825e-08
1.41465e-07
1.42824e-08
1.37952e-07
1.29167e-08
1.34701e-07
1.17411e-08
1.31688e-07
1.07215e-08
1.28889e-07
9.83121e-09
1.26285e-07
9.04865e-09
1.23858e-07
8.35667e-09
1.2159e-07
7.74133e-09
1.19468e-07
7.19123e-09
1.17479e-07
6.69701e-09
1.15612e-07
6.25087e-09
1.13856e-07
5.84629e-09
1.12203e-07
5.47773e-09
1.10644e-07
5.14049e-09
1.09172e-07
4.83052e-09
1.07783e-07
4.54433e-09
1.06468e-07
4.27883e-09
1.05225e-07
4.03139e-09
1.04049e-07
3.7995e-09
1.02936e-07
3.58121e-09
1.01882e-07
3.3742e-09
1.00886e-07
3.17723e-09
9.99437e-08
2.9875e-09
9.90543e-08
2.80503e-09
9.82163e-08
2.62521e-09
9.74281e-08
2.4508e-09
9.66901e-08
2.27262e-09
9.60007e-08
2.0993e-09
9.53628e-08
1.91246e-09
9.47745e-08
1.73047e-09
9.42421e-08
1.52281e-09
9.37643e-08
1.31138e-09
9.33494e-08
1.07765e-09
9.30049e-08
7.69736e-10
9.27336e-08
5.67236e-10
9.25655e-08
-1.59591e-10
9.25708e-08
-7.56267e-12
-2.99842e-09
9.21016e-08
1.95541e-07
1.07232e-07
1.98247e-07
9.7852e-08
1.98968e-07
6.71792e-08
1.97788e-07
5.45913e-08
1.95158e-07
4.5756e-08
1.9182e-07
3.88293e-08
1.88094e-07
3.38842e-08
1.84152e-07
3.00359e-08
1.80143e-07
2.67875e-08
1.76176e-07
2.40082e-08
1.7232e-07
2.16322e-08
1.68612e-07
1.95899e-08
1.65074e-07
1.78206e-08
1.61714e-07
1.62773e-08
1.58531e-07
1.49236e-08
1.55522e-07
1.37302e-08
1.52681e-07
1.26729e-08
1.49997e-07
1.17318e-08
1.47464e-07
1.08903e-08
1.4507e-07
1.01347e-08
1.42808e-07
9.45323e-09
1.40669e-07
8.83623e-09
1.38645e-07
8.27541e-09
1.36727e-07
7.76367e-09
1.3491e-07
7.29495e-09
1.33187e-07
6.86396e-09
1.31551e-07
6.46609e-09
1.29998e-07
6.09733e-09
1.28523e-07
5.75408e-09
1.27121e-07
5.43322e-09
1.25789e-07
5.13179e-09
1.24522e-07
4.8474e-09
1.23319e-07
4.57728e-09
1.22177e-07
4.31988e-09
1.21092e-07
4.07186e-09
1.20064e-07
3.8331e-09
1.19091e-07
3.59811e-09
1.18172e-07
3.37004e-09
1.17307e-07
3.13796e-09
1.16494e-07
2.91195e-09
1.15736e-07
2.67019e-09
1.15033e-07
2.43415e-09
1.14388e-07
2.16782e-09
1.13802e-07
1.89666e-09
1.13282e-07
1.59779e-09
1.12837e-07
1.21501e-09
1.12471e-07
9.33109e-10
1.12197e-07
1.1505e-10
1.12107e-07
8.2048e-11
-2.47166e-09
1.1158e-07
2.00848e-07
9.99693e-08
2.03775e-07
9.49244e-08
2.05326e-07
6.56284e-08
2.05642e-07
5.42758e-08
2.04816e-07
4.65819e-08
2.03337e-07
4.03084e-08
2.01393e-07
3.58279e-08
1.99069e-07
3.23598e-08
1.96471e-07
2.93859e-08
1.937e-07
2.67788e-08
1.90838e-07
2.44944e-08
1.87944e-07
2.24835e-08
1.85064e-07
2.07014e-08
1.82228e-07
1.91134e-08
1.79458e-07
1.76929e-08
1.7677e-07
1.64181e-08
1.74173e-07
1.52704e-08
1.71671e-07
1.42338e-08
1.69266e-07
1.32948e-08
1.6696e-07
1.24414e-08
1.64749e-07
1.16635e-08
1.62633e-07
1.09524e-08
1.60608e-07
1.03003e-08
1.58671e-07
9.70056e-09
1.56819e-07
9.14726e-09
1.55048e-07
8.63518e-09
1.53354e-07
8.15969e-09
1.51735e-07
7.71663e-09
1.50187e-07
7.30225e-09
1.48707e-07
6.91322e-09
1.47292e-07
6.54635e-09
1.45941e-07
6.19902e-09
1.4465e-07
5.86817e-09
1.43418e-07
5.55203e-09
1.42243e-07
5.24685e-09
1.41123e-07
4.95243e-09
1.40059e-07
4.66261e-09
1.39048e-07
4.38071e-09
1.38091e-07
4.09458e-09
1.37188e-07
3.815e-09
1.36341e-07
3.51808e-09
1.35548e-07
3.22637e-09
1.34815e-07
2.90153e-09
1.34143e-07
2.5682e-09
1.33536e-07
2.20481e-09
1.33006e-07
1.74554e-09
1.32557e-07
1.38143e-09
1.32187e-07
4.85562e-10
1.32003e-07
2.66218e-10
-1.90896e-09
1.3144e-07
2.06447e-07
9.30545e-08
2.09339e-07
9.20322e-08
2.11036e-07
6.39315e-08
2.1193e-07
5.33822e-08
2.11999e-07
4.65127e-08
2.11614e-07
4.06935e-08
2.10887e-07
3.65548e-08
2.09821e-07
3.34255e-08
2.08454e-07
3.07531e-08
2.06844e-07
2.83892e-08
2.05046e-07
2.62924e-08
2.03109e-07
2.44201e-08
2.01076e-07
2.27341e-08
1.98983e-07
2.12064e-08
1.96859e-07
1.9817e-08
1.94728e-07
1.85498e-08
1.92607e-07
1.73913e-08
1.90511e-07
1.63298e-08
1.88451e-07
1.5355e-08
1.86434e-07
1.44581e-08
1.84466e-07
1.36309e-08
1.82552e-07
1.28665e-08
1.80694e-07
1.21586e-08
1.78893e-07
1.15014e-08
1.7715e-07
1.089e-08
1.75466e-07
1.03198e-08
1.73839e-07
9.78651e-09
1.72269e-07
9.28633e-09
1.70756e-07
8.81569e-09
1.69298e-07
8.37139e-09
1.67894e-07
7.95028e-09
1.66543e-07
7.54973e-09
1.65245e-07
7.16659e-09
1.63998e-07
6.79904e-09
1.62801e-07
6.44312e-09
1.61655e-07
6.09858e-09
1.60559e-07
5.75882e-09
1.59512e-07
5.42722e-09
1.58516e-07
5.09092e-09
1.5757e-07
4.76073e-09
1.56676e-07
4.41202e-09
1.55836e-07
4.0665e-09
1.55051e-07
3.68657e-09
1.54327e-07
3.29207e-09
1.53665e-07
2.86761e-09
1.53076e-07
2.33423e-09
1.52569e-07
1.88818e-09
1.52125e-07
9.29712e-10
1.51859e-07
5.31826e-10
-1.3351e-09
1.51286e-07
2.12289e-07
8.64281e-08
2.15152e-07
8.9169e-08
2.1679e-07
6.2293e-08
2.17842e-07
5.23305e-08
2.18257e-07
4.60973e-08
2.18374e-07
4.05765e-08
2.183e-07
3.66287e-08
2.18005e-07
3.37214e-08
2.17479e-07
3.12783e-08
2.16743e-07
2.91253e-08
2.15821e-07
2.72152e-08
2.14736e-07
2.55046e-08
2.13516e-07
2.39545e-08
2.12184e-07
2.25376e-08
2.10766e-07
2.12352e-08
2.09282e-07
2.00339e-08
2.07751e-07
1.89226e-08
2.06188e-07
1.78922e-08
2.04609e-07
1.69349e-08
2.03023e-07
1.6044e-08
2.0144e-07
1.52132e-08
1.99869e-07
1.44374e-08
1.98316e-07
1.37117e-08
1.96786e-07
1.30317e-08
1.95283e-07
1.23934e-08
1.9381e-07
1.1793e-08
1.92369e-07
1.12271e-08
1.90963e-07
1.06925e-08
1.89593e-07
1.0186e-08
1.88259e-07
9.70473e-09
1.86964e-07
9.24587e-09
1.85706e-07
8.80696e-09
1.84488e-07
8.38497e-09
1.83309e-07
7.97813e-09
1.8217e-07
7.58245e-09
1.8107e-07
7.1977e-09
1.80012e-07
6.81713e-09
1.78995e-07
6.44398e-09
1.78021e-07
6.06525e-09
1.77091e-07
5.69114e-09
1.76205e-07
5.29755e-09
1.75368e-07
4.90368e-09
1.74579e-07
4.47524e-09
1.73847e-07
4.02436e-09
1.7317e-07
3.54486e-09
1.7256e-07
2.94413e-09
1.72028e-07
2.41968e-09
1.71543e-07
1.41481e-09
1.71221e-07
8.54028e-10
-7.76459e-10
1.70662e-07
2.1833e-07
8.0079e-08
2.21206e-07
8.62933e-08
2.22763e-07
6.07355e-08
2.23842e-07
5.1252e-08
2.24366e-07
4.55726e-08
2.24661e-07
4.02819e-08
2.24863e-07
3.64268e-08
2.24945e-07
3.36396e-08
2.24884e-07
3.13387e-08
2.24682e-07
2.93277e-08
2.24342e-07
2.75552e-08
2.2387e-07
2.5976e-08
2.23276e-07
2.45483e-08
2.22572e-07
2.32425e-08
2.21768e-07
2.20386e-08
2.20879e-07
2.09227e-08
2.19918e-07
1.98839e-08
2.18896e-07
1.89138e-08
2.17826e-07
1.80054e-08
2.16717e-07
1.71528e-08
2.15579e-07
1.6351e-08
2.14421e-07
1.55957e-08
2.1325e-07
1.4883e-08
2.12072e-07
1.42095e-08
2.10893e-07
1.35721e-08
2.09718e-07
1.29678e-08
2.08551e-07
1.23939e-08
2.07396e-07
1.18477e-08
2.06256e-07
1.13266e-08
2.05132e-07
1.08281e-08
2.04028e-07
1.03499e-08
2.02946e-07
9.88963e-09
2.01886e-07
9.44455e-09
2.00851e-07
9.01305e-09
1.99842e-07
8.59125e-09
1.98861e-07
8.17893e-09
1.97909e-07
7.76939e-09
1.96987e-07
7.36564e-09
1.96097e-07
6.955e-09
1.95242e-07
6.5465e-09
1.94422e-07
6.11763e-09
1.93642e-07
5.68384e-09
1.92901e-07
5.21595e-09
1.92209e-07
4.71678e-09
1.91563e-07
4.19044e-09
1.90974e-07
3.53286e-09
1.90457e-07
2.93689e-09
1.8997e-07
1.9017e-09
1.89625e-07
1.19957e-09
-2.60241e-10
1.89108e-07
2.24559e-07
7.40137e-08
2.2747e-07
8.33821e-08
2.2896e-07
5.92454e-08
2.30043e-07
5.01682e-08
2.30609e-07
4.50066e-08
2.30953e-07
3.99386e-08
2.31244e-07
3.61355e-08
2.31474e-07
3.341e-08
2.31622e-07
3.11908e-08
2.31686e-07
2.92636e-08
2.31666e-07
2.75753e-08
2.31559e-07
2.60822e-08
2.31367e-07
2.47411e-08
2.31089e-07
2.35199e-08
2.30731e-07
2.23972e-08
2.30296e-07
2.13573e-08
2.29791e-07
2.03888e-08
2.29223e-07
1.94824e-08
2.28597e-07
1.86309e-08
2.27922e-07
1.78283e-08
2.27203e-07
1.70697e-08
2.26448e-07
1.63511e-08
2.25662e-07
1.5669e-08
2.24851e-07
1.50204e-08
2.2402e-07
1.44025e-08
2.23175e-07
1.38129e-08
2.2232e-07
1.32493e-08
2.21458e-07
1.27094e-08
2.20594e-07
1.21911e-08
2.1973e-07
1.16923e-08
2.18869e-07
1.12109e-08
2.18013e-07
1.07447e-08
2.17167e-07
1.02914e-08
2.1633e-07
9.84942e-09
2.15506e-07
9.41501e-09
2.14697e-07
8.988e-09
2.13905e-07
8.56188e-09
2.13131e-07
8.13927e-09
2.12378e-07
7.70813e-09
2.11649e-07
7.27599e-09
2.10944e-07
6.82261e-09
2.10269e-07
6.35895e-09
2.09623e-07
5.8619e-09
2.09015e-07
5.32469e-09
2.08444e-07
4.76098e-09
2.07918e-07
4.05935e-09
2.07453e-07
3.40151e-09
2.07004e-07
2.35094e-09
2.06671e-07
1.53239e-09
1.88183e-10
2.06223e-07
2.30979e-07
6.82403e-08
2.33934e-07
8.04271e-08
2.35365e-07
5.78146e-08
2.36455e-07
4.90783e-08
2.37055e-07
4.4407e-08
2.37413e-07
3.958e-08
2.37726e-07
3.58226e-08
2.38001e-07
3.31346e-08
2.38225e-07
3.09674e-08
2.38398e-07
2.90903e-08
2.38523e-07
2.74502e-08
2.38598e-07
2.60071e-08
2.38621e-07
2.47186e-08
2.38589e-07
2.35517e-08
2.38502e-07
2.24839e-08
2.38361e-07
2.14988e-08
2.38166e-07
2.05837e-08
2.37919e-07
1.97288e-08
2.37624e-07
1.89262e-08
2.37283e-07
1.81694e-08
2.36899e-07
1.74532e-08
2.36477e-07
1.67732e-08
2.36021e-07
1.61258e-08
2.35533e-07
1.55081e-08
2.35018e-07
1.49173e-08
2.3448e-07
1.43511e-08
2.33922e-07
1.38073e-08
2.33347e-07
1.3284e-08
2.32759e-07
1.27792e-08
2.32161e-07
1.2291e-08
2.31554e-07
1.18174e-08
2.30942e-07
1.13565e-08
2.30328e-07
1.0906e-08
2.29712e-07
1.04645e-08
2.29099e-07
1.00284e-08
2.2849e-07
9.59745e-09
2.27886e-07
9.16535e-09
2.27291e-07
8.73422e-09
2.26706e-07
8.29295e-09
2.26135e-07
7.84719e-09
2.25578e-07
7.37946e-09
2.25041e-07
6.8959e-09
2.24524e-07
6.37966e-09
2.24033e-07
5.81518e-09
2.2357e-07
5.22364e-09
2.23139e-07
4.49126e-09
2.22757e-07
3.78281e-09
2.22379e-07
2.72949e-09
2.22091e-07
1.82037e-09
5.48747e-10
2.2173e-07
2.376e-07
6.27647e-08
2.40602e-07
7.74258e-08
2.41975e-07
5.6441e-08
2.4307e-07
4.79836e-08
2.43707e-07
4.37702e-08
2.44079e-07
3.92079e-08
2.44397e-07
3.55044e-08
2.44685e-07
3.28467e-08
2.44931e-07
3.07212e-08
2.45141e-07
2.88806e-08
2.45321e-07
2.72708e-08
2.45471e-07
2.58571e-08
2.4559e-07
2.45991e-08
2.45677e-07
2.34643e-08
2.45732e-07
2.24297e-08
2.45752e-07
2.14787e-08
2.45737e-07
2.05986e-08
2.45687e-07
1.97788e-08
2.45602e-07
1.90111e-08
2.45483e-07
1.82885e-08
2.45331e-07
1.76053e-08
2.45147e-07
1.6957e-08
2.44933e-07
1.63396e-08
2.44691e-07
1.57498e-08
2.44424e-07
1.51848e-08
2.44133e-07
1.46423e-08
2.4382e-07
1.412e-08
2.43488e-07
1.3616e-08
2.43139e-07
1.31282e-08
2.42775e-07
1.2655e-08
2.42398e-07
1.21942e-08
2.42011e-07
1.17443e-08
2.41614e-07
1.13027e-08
2.4121e-07
1.08682e-08
2.40801e-07
1.04372e-08
2.4039e-07
1.00093e-08
2.39977e-07
9.57847e-09
2.39564e-07
9.14627e-09
2.39155e-07
8.70256e-09
2.38751e-07
8.25098e-09
2.38354e-07
7.77694e-09
2.37968e-07
7.28186e-09
2.37593e-07
6.75466e-09
2.37235e-07
6.17263e-09
2.36897e-07
5.56165e-09
2.36578e-07
4.81059e-09
2.36298e-07
4.0629e-09
2.36011e-07
3.0164e-09
2.3579e-07
2.04083e-09
8.10531e-10
2.35529e-07
2.4443e-07
5.75904e-08
2.47471e-07
7.43849e-08
2.48796e-07
5.51164e-08
2.49891e-07
4.68885e-08
2.50567e-07
4.30947e-08
2.50956e-07
3.88186e-08
2.51279e-07
3.51816e-08
2.51572e-07
3.25532e-08
2.51826e-07
3.04673e-08
2.52047e-07
2.86599e-08
2.52243e-07
2.70744e-08
2.52419e-07
2.56813e-08
2.52575e-07
2.44431e-08
2.52711e-07
2.33279e-08
2.52828e-07
2.23133e-08
2.52924e-07
2.13828e-08
2.52999e-07
2.05237e-08
2.53052e-07
1.97257e-08
2.53083e-07
1.898e-08
2.53091e-07
1.82798e-08
2.53078e-07
1.7619e-08
2.53042e-07
1.69928e-08
2.52985e-07
1.63969e-08
2.52906e-07
1.58281e-08
2.52808e-07
1.52831e-08
2.52691e-07
1.47596e-08
2.52555e-07
1.42553e-08
2.52403e-07
1.3768e-08
2.52236e-07
1.32958e-08
2.52054e-07
1.28369e-08
2.51859e-07
1.23892e-08
2.51652e-07
1.1951e-08
2.51435e-07
1.15199e-08
2.51209e-07
1.10944e-08
2.50975e-07
1.06712e-08
2.50735e-07
1.02494e-08
2.5049e-07
9.82359e-09
2.50242e-07
9.39431e-09
2.49991e-07
8.95261e-09
2.49742e-07
8.50007e-09
2.49494e-07
8.02487e-09
2.49252e-07
7.5242e-09
2.49015e-07
6.99174e-09
2.48788e-07
6.3997e-09
2.48574e-07
5.77571e-09
2.48369e-07
5.01554e-09
2.48193e-07
4.23885e-09
2.48004e-07
3.20523e-09
2.47861e-07
2.18385e-09
9.73496e-10
2.47698e-07
2.51478e-07
5.27194e-08
2.54549e-07
7.13138e-08
2.55835e-07
5.38303e-08
2.56925e-07
4.57987e-08
2.57638e-07
4.23815e-08
2.58047e-07
3.84093e-08
2.58376e-07
3.4853e-08
2.58675e-07
3.22545e-08
2.58934e-07
3.0208e-08
2.59159e-07
2.84345e-08
2.59361e-07
2.68725e-08
2.59545e-07
2.54974e-08
2.59713e-07
2.4275e-08
2.59866e-07
2.31745e-08
2.60006e-07
2.21736e-08
2.60132e-07
2.12565e-08
2.60246e-07
2.04106e-08
2.60345e-07
1.96259e-08
2.60431e-07
1.88939e-08
2.60504e-07
1.82074e-08
2.60562e-07
1.75605e-08
2.60607e-07
1.69483e-08
2.60637e-07
1.63664e-08
2.60654e-07
1.58112e-08
2.60658e-07
1.52797e-08
2.60648e-07
1.47693e-08
2.60626e-07
1.42776e-08
2.60591e-07
1.38025e-08
2.60545e-07
1.33419e-08
2.60488e-07
1.28939e-08
2.60421e-07
1.24566e-08
2.60344e-07
1.20281e-08
2.60258e-07
1.16059e-08
2.60163e-07
1.11886e-08
2.60062e-07
1.07727e-08
2.59954e-07
1.03573e-08
2.59841e-07
9.93703e-09
2.59723e-07
9.51177e-09
2.59602e-07
9.07364e-09
2.5948e-07
8.62226e-09
2.59356e-07
8.14828e-09
2.59235e-07
7.64539e-09
2.59116e-07
7.11077e-09
2.59002e-07
6.51373e-09
2.58897e-07
5.88098e-09
2.58794e-07
5.11825e-09
2.58712e-07
4.32093e-09
2.58614e-07
3.30291e-09
2.58546e-07
2.25198e-09
1.04774e-09
2.58472e-07
2.58751e-07
4.81517e-08
2.61842e-07
6.82225e-08
2.631e-07
5.25723e-08
2.64179e-07
4.47193e-08
2.64928e-07
4.16331e-08
2.65359e-07
3.79778e-08
2.65695e-07
3.45175e-08
2.65999e-07
3.19501e-08
2.66264e-07
2.99432e-08
2.66493e-07
2.82052e-08
2.66698e-07
2.66675e-08
2.66885e-07
2.53104e-08
2.67057e-07
2.4103e-08
2.67216e-07
2.30155e-08
2.67364e-07
2.20262e-08
2.67501e-07
2.11195e-08
2.67628e-07
2.02834e-08
2.67746e-07
1.9508e-08
2.67855e-07
1.8785e-08
2.67955e-07
1.81074e-08
2.68046e-07
1.74694e-08
2.68128e-07
1.68658e-08
2.68202e-07
1.62925e-08
2.68268e-07
1.57458e-08
2.68325e-07
1.52226e-08
2.68374e-07
1.47203e-08
2.68415e-07
1.42365e-08
2.68448e-07
1.3769e-08
2.68474e-07
1.33158e-08
2.68493e-07
1.2875e-08
2.68505e-07
1.24446e-08
2.68511e-07
1.20226e-08
2.6851e-07
1.16067e-08
2.68503e-07
1.11952e-08
2.68491e-07
1.07848e-08
2.68474e-07
1.03741e-08
2.68453e-07
9.95828e-09
2.68428e-07
9.53633e-09
2.68401e-07
9.10139e-09
2.68372e-07
8.65138e-09
2.68341e-07
8.17897e-09
2.68311e-07
7.67519e-09
2.68282e-07
7.13949e-09
2.68256e-07
6.54022e-09
2.68236e-07
5.90108e-09
2.68215e-07
5.13956e-09
2.68208e-07
4.32794e-09
2.68185e-07
3.3256e-09
2.6818e-07
2.25694e-09
1.05044e-09
2.68177e-07
2.66258e-07
4.38856e-08
2.69359e-07
6.51215e-08
2.706e-07
5.13318e-08
2.71664e-07
4.36546e-08
2.72445e-07
4.0853e-08
2.729e-07
3.75225e-08
2.73243e-07
3.41743e-08
2.73553e-07
3.16399e-08
2.73824e-07
2.96724e-08
2.74058e-07
2.79713e-08
2.74266e-07
2.64595e-08
2.74455e-07
2.51209e-08
2.7463e-07
2.39287e-08
2.74791e-07
2.28542e-08
2.74941e-07
2.1876e-08
2.75082e-07
2.0979e-08
2.75213e-07
2.01515e-08
2.75338e-07
1.93839e-08
2.75455e-07
1.86681e-08
2.75565e-07
1.79972e-08
2.75669e-07
1.73654e-08
2.75767e-07
1.67678e-08
2.75859e-07
1.62001e-08
2.75946e-07
1.56587e-08
2.76028e-07
1.51406e-08
2.76106e-07
1.46431e-08
2.76178e-07
1.41639e-08
2.76246e-07
1.37008e-08
2.7631e-07
1.32518e-08
2.7637e-07
1.28151e-08
2.76426e-07
1.23886e-08
2.76479e-07
1.19704e-08
2.76527e-07
1.15581e-08
2.76572e-07
1.115e-08
2.76614e-07
1.07428e-08
2.76654e-07
1.03349e-08
2.7669e-07
9.92175e-09
2.76725e-07
9.50166e-09
2.76757e-07
9.06867e-09
2.7679e-07
8.61925e-09
2.76821e-07
8.14767e-09
2.76853e-07
7.64314e-09
2.76886e-07
7.10621e-09
2.7692e-07
6.50591e-09
2.7696e-07
5.86156e-09
2.76997e-07
5.10293e-09
2.77043e-07
4.28157e-09
2.77075e-07
3.29331e-09
2.77117e-07
2.21496e-09
1.00175e-09
2.77166e-07
2.74009e-07
3.99177e-08
2.77109e-07
6.20219e-08
2.78342e-07
5.00987e-08
2.79388e-07
4.26082e-08
2.80196e-07
4.00451e-08
2.80677e-07
3.70417e-08
2.81029e-07
3.38223e-08
2.81345e-07
3.13241e-08
2.81622e-07
2.93953e-08
2.8186e-07
2.77326e-08
2.82072e-07
2.62482e-08
2.82264e-07
2.4929e-08
2.8244e-07
2.37525e-08
2.82603e-07
2.26912e-08
2.82755e-07
2.17244e-08
2.82897e-07
2.0837e-08
2.8303e-07
2.00179e-08
2.83157e-07
1.92576e-08
2.83276e-07
1.85484e-08
2.8339e-07
1.78834e-08
2.83499e-07
1.72569e-08
2.83602e-07
1.6664e-08
2.83702e-07
1.61006e-08
2.83797e-07
1.55631e-08
2.83889e-07
1.50484e-08
2.83979e-07
1.4554e-08
2.84065e-07
1.40775e-08
2.84149e-07
1.36169e-08
2.84231e-07
1.31702e-08
2.8431e-07
1.27356e-08
2.84388e-07
1.2311e-08
2.84464e-07
1.18946e-08
2.84538e-07
1.1484e-08
2.8461e-07
1.10774e-08
2.84682e-07
1.06716e-08
2.84752e-07
1.02648e-08
2.84821e-07
9.85273e-09
2.84889e-07
9.43313e-09
2.84957e-07
9.00074e-09
2.85026e-07
8.55098e-09
2.85094e-07
8.07918e-09
2.85164e-07
7.57357e-09
2.85235e-07
7.03483e-09
2.85307e-07
6.43383e-09
2.85384e-07
5.78487e-09
2.85457e-07
5.02951e-09
2.85537e-07
4.20176e-09
2.85605e-07
3.22526e-09
2.85677e-07
2.14254e-09
9.21028e-10
2.85758e-07
2.82013e-07
3.62425e-08
2.85099e-07
5.89352e-08
2.86335e-07
4.88633e-08
2.8736e-07
4.15827e-08
2.88191e-07
3.92143e-08
2.88698e-07
3.65342e-08
2.8906e-07
3.34604e-08
2.89382e-07
3.10027e-08
2.89665e-07
2.91119e-08
2.89909e-07
2.74887e-08
2.90124e-07
2.60332e-08
2.90319e-07
2.47343e-08
2.90497e-07
2.3574e-08
2.90662e-07
2.25265e-08
2.90815e-07
2.15712e-08
2.90958e-07
2.06938e-08
2.91093e-07
1.98832e-08
2.9122e-07
1.91304e-08
2.91341e-07
1.84276e-08
2.91456e-07
1.77683e-08
2.91566e-07
1.71469e-08
2.91672e-07
1.65584e-08
2.91774e-07
1.59988e-08
2.91872e-07
1.54645e-08
2.91968e-07
1.49525e-08
2.92062e-07
1.44604e-08
2.92154e-07
1.39857e-08
2.92244e-07
1.35266e-08
2.92333e-07
1.30812e-08
2.92421e-07
1.26476e-08
2.92508e-07
1.22238e-08
2.92595e-07
1.1808e-08
2.92681e-07
1.1398e-08
2.92766e-07
1.09917e-08
2.92852e-07
1.05862e-08
2.92937e-07
1.01794e-08
2.93022e-07
9.76733e-09
2.93108e-07
9.34722e-09
2.93195e-07
8.91443e-09
2.93282e-07
8.46359e-09
2.9337e-07
7.99071e-09
2.9346e-07
7.48365e-09
2.93553e-07
6.94257e-09
2.93646e-07
6.3409e-09
2.93743e-07
5.68785e-09
2.93837e-07
4.93558e-09
2.93934e-07
4.104e-09
2.94023e-07
3.13703e-09
2.94112e-07
2.0535e-09
8.24302e-10
2.94208e-07
2.90278e-07
3.28532e-08
2.9334e-07
5.5873e-08
2.94587e-07
4.76167e-08
2.95589e-07
4.05801e-08
2.96438e-07
3.83656e-08
2.96973e-07
3.59991e-08
2.97346e-07
3.30873e-08
2.97673e-07
3.06758e-08
2.97963e-07
2.88222e-08
2.98213e-07
2.72392e-08
2.98432e-07
2.58143e-08
2.98629e-07
2.45367e-08
2.9881e-07
2.33931e-08
2.98977e-07
2.23597e-08
2.99132e-07
2.14165e-08
2.99276e-07
2.05492e-08
2.99412e-07
1.97474e-08
2.9954e-07
1.90022e-08
2.99662e-07
1.8306e-08
2.99777e-07
1.76525e-08
2.99888e-07
1.70361e-08
2.99994e-07
1.6452e-08
3.00097e-07
1.58961e-08
3.00197e-07
1.53648e-08
3.00294e-07
1.48553e-08
3.00389e-07
1.43651e-08
3.00483e-07
1.3892e-08
3.00576e-07
1.3434e-08
3.00667e-07
1.29894e-08
3.00759e-07
1.25563e-08
3.0085e-07
1.21328e-08
3.00941e-07
1.17171e-08
3.01032e-07
1.1307e-08
3.01123e-07
1.09004e-08
3.01214e-07
1.04946e-08
3.01307e-07
1.00871e-08
3.014e-07
9.67447e-09
3.01493e-07
9.25332e-09
3.01588e-07
8.81951e-09
3.01685e-07
8.36719e-09
3.01783e-07
7.89269e-09
3.01882e-07
7.38401e-09
3.01985e-07
6.84036e-09
3.02088e-07
6.23803e-09
3.02194e-07
5.58152e-09
3.02297e-07
4.83206e-09
3.02403e-07
3.99878e-09
3.025e-07
3.03966e-09
3.02595e-07
1.95796e-09
7.23356e-10
3.02696e-07
2.98815e-07
2.97407e-08
3.01841e-07
5.28476e-08
3.03106e-07
4.63512e-08
3.04085e-07
3.96012e-08
3.04946e-07
3.75046e-08
3.05509e-07
3.54359e-08
3.05895e-07
3.27013e-08
3.06228e-07
3.03432e-08
3.06524e-07
2.85261e-08
3.06779e-07
2.69838e-08
3.07003e-07
2.5591e-08
3.07203e-07
2.43359e-08
3.07387e-07
2.32096e-08
3.07556e-07
2.21908e-08
3.07712e-07
2.126e-08
3.07858e-07
2.04033e-08
3.07995e-07
1.96104e-08
3.08124e-07
1.8873e-08
3.08247e-07
1.81837e-08
3.08363e-07
1.75361e-08
3.08474e-07
1.69248e-08
3.08581e-07
1.63451e-08
3.08685e-07
1.57928e-08
3.08785e-07
1.52646e-08
3.08883e-07
1.47576e-08
3.08979e-07
1.42692e-08
3.09073e-07
1.37975e-08
3.09167e-07
1.33405e-08
3.09259e-07
1.28964e-08
3.09352e-07
1.24637e-08
3.09445e-07
1.20402e-08
3.09537e-07
1.16244e-08
3.0963e-07
1.1214e-08
3.09724e-07
1.08069e-08
3.09818e-07
1.04005e-08
3.09913e-07
9.99212e-09
3.10009e-07
9.57851e-09
3.10106e-07
9.15609e-09
3.10205e-07
8.72097e-09
3.10305e-07
8.26704e-09
3.10407e-07
7.79071e-09
3.1051e-07
7.28045e-09
3.10616e-07
6.73429e-09
3.10723e-07
6.1314e-09
3.10832e-07
5.47229e-09
3.10939e-07
4.7255e-09
3.11045e-07
3.89239e-09
3.11145e-07
2.94018e-09
3.1124e-07
1.86257e-09
6.26048e-10
3.11337e-07
3.07633e-07
2.68945e-08
3.1061e-07
4.98708e-08
3.11902e-07
4.50598e-08
3.12857e-07
3.8646e-08
3.13725e-07
3.66367e-08
3.14316e-07
3.4845e-08
3.14716e-07
3.23009e-08
3.15055e-07
3.00047e-08
3.15357e-07
2.82237e-08
3.15619e-07
2.67221e-08
3.15846e-07
2.53631e-08
3.16051e-07
2.41317e-08
3.16237e-07
2.30233e-08
3.16408e-07
2.20195e-08
3.16567e-07
2.11015e-08
3.16714e-07
2.02557e-08
3.16853e-07
1.94721e-08
3.16983e-07
1.87427e-08
3.17106e-07
1.80604e-08
3.17223e-07
1.74189e-08
3.17335e-07
1.68128e-08
3.17443e-07
1.62376e-08
3.17547e-07
1.56891e-08
3.17647e-07
1.51639e-08
3.17745e-07
1.46593e-08
3.17842e-07
1.41729e-08
3.17937e-07
1.37025e-08
3.18031e-07
1.32464e-08
3.18124e-07
1.28029e-08
3.18218e-07
1.23704e-08
3.18311e-07
1.1947e-08
3.18404e-07
1.15309e-08
3.18498e-07
1.11201e-08
3.18593e-07
1.07124e-08
3.18688e-07
1.03052e-08
3.18784e-07
9.89592e-09
3.18881e-07
9.48128e-09
3.1898e-07
9.05756e-09
3.1908e-07
8.62105e-09
3.19181e-07
8.16559e-09
3.19285e-07
7.68745e-09
3.19389e-07
7.17576e-09
3.19496e-07
6.62742e-09
3.19603e-07
6.02421e-09
3.19712e-07
5.36347e-09
3.19818e-07
4.61945e-09
3.19922e-07
3.78821e-09
3.2002e-07
2.84273e-09
3.20111e-07
1.77138e-09
5.37272e-10
3.202e-07
3.16743e-07
2.43027e-08
3.19659e-07
4.69548e-08
3.20981e-07
4.37374e-08
3.21914e-07
3.77133e-08
3.22784e-07
3.57669e-08
3.23402e-07
3.42273e-08
3.23818e-07
3.18844e-08
3.24163e-07
2.96599e-08
3.24471e-07
2.79152e-08
3.24739e-07
2.64541e-08
3.24972e-07
2.51302e-08
3.2518e-07
2.39237e-08
3.2537e-07
2.2834e-08
3.25543e-07
2.18457e-08
3.25704e-07
2.09409e-08
3.25853e-07
2.01063e-08
3.25993e-07
1.93324e-08
3.26125e-07
1.86112e-08
3.26249e-07
1.79361e-08
3.26367e-07
1.73008e-08
3.2648e-07
1.67001e-08
3.26588e-07
1.61294e-08
3.26692e-07
1.55847e-08
3.26794e-07
1.50627e-08
3.26892e-07
1.45606e-08
3.26989e-07
1.4076e-08
3.27085e-07
1.3607e-08
3.27179e-07
1.31519e-08
3.27273e-07
1.27089e-08
3.27367e-07
1.22766e-08
3.27461e-07
1.18532e-08
3.27555e-07
1.14369e-08
3.27649e-07
1.10256e-08
3.27744e-07
1.06173e-08
3.2784e-07
1.02094e-08
3.27937e-07
9.79916e-09
3.28035e-07
9.38348e-09
3.28134e-07
8.95854e-09
3.28234e-07
8.52069e-09
3.28336e-07
8.06384e-09
3.28439e-07
7.58404e-09
3.28544e-07
7.0712e-09
3.2865e-07
6.52114e-09
3.28756e-07
5.91797e-09
3.28863e-07
5.25665e-09
3.28967e-07
4.51572e-09
3.29067e-07
3.68795e-09
3.2916e-07
2.74968e-09
3.29245e-07
1.68685e-09
4.59963e-10
3.29322e-07
3.26153e-07
2.19518e-08
3.28997e-07
4.41112e-08
3.30354e-07
4.23802e-08
3.31266e-07
3.68012e-08
3.32133e-07
3.49e-08
3.32776e-07
3.35846e-08
3.3321e-07
3.14506e-08
3.33562e-07
2.93082e-08
3.33876e-07
2.76006e-08
3.34151e-07
2.61794e-08
3.34389e-07
2.48919e-08
3.34601e-07
2.37118e-08
3.34794e-07
2.26414e-08
3.3497e-07
2.16691e-08
3.35133e-07
2.0778e-08
3.35285e-07
1.9955e-08
3.35426e-07
1.91909e-08
3.35559e-07
1.84783e-08
3.35685e-07
1.78105e-08
3.35804e-07
1.71816e-08
3.35917e-07
1.65864e-08
3.36026e-07
1.60204e-08
3.36131e-07
1.54796e-08
3.36233e-07
1.49608e-08
3.36333e-07
1.44612e-08
3.3643e-07
1.39786e-08
3.36526e-07
1.3511e-08
3.36621e-07
1.30568e-08
3.36716e-07
1.26144e-08
3.3681e-07
1.21823e-08
3.36904e-07
1.17589e-08
3.36999e-07