/*--------------------------------*- C++ -*----------------------------------*\
  =========                 |
  \\      /  F ield         | OpenFOAM: The Open Source CFD Toolbox
   \\    /   O peration     | Website:  https://openfoam.org
    \\  /    A nd           | Version:  7
     \\/     M anipulation  |
\*---------------------------------------------------------------------------*/
FoamFile
{
    version     2.0;
    format      ascii;
    class       surfaceScalarField;
    location    "0.45";
    object      phi_0;
}
// * * * * * * * * * * * * * * * * * * * * * * * * * * * * * * * * * * * * * //

dimensions      [0 3 -1 0 0 0 0];

internalField   nonuniform List<scalar> 
139350
(
6.45926e-08
9.20389e-08
3.19518e-08
3.26409e-08
2.30617e-08
8.8901e-09
1.95687e-08
3.49292e-09
1.76187e-08
1.95005e-09
1.61931e-08
1.42559e-09
1.50623e-08
1.13083e-09
1.41507e-08
9.11604e-10
1.34007e-08
7.49943e-10
1.27693e-08
6.3141e-10
1.22276e-08
5.41688e-10
1.17563e-08
4.71296e-10
1.13417e-08
4.1462e-10
1.09736e-08
3.68139e-10
1.06441e-08
3.29451e-10
1.03473e-08
2.96839e-10
1.00782e-08
2.69039e-10
9.83313e-09
2.45104e-10
9.60882e-09
2.2431e-10
9.40272e-09
2.06097e-10
9.2127e-09
1.90025e-10
9.03695e-09
1.75744e-10
8.87398e-09
1.62973e-10
8.7225e-09
1.51479e-10
8.58143e-09
1.41074e-10
8.44983e-09
1.31599e-10
8.32691e-09
1.22919e-10
8.21199e-09
1.1492e-10
8.10449e-09
1.07497e-10
8.00392e-09
1.00572e-10
7.90987e-09
9.4052e-11
7.82198e-09
8.78842e-11
7.74001e-09
8.19728e-11
7.66372e-09
7.62923e-11
7.59299e-09
7.0726e-11
7.52772e-09
6.52674e-11
7.46794e-09
5.97896e-11
7.4137e-09
5.42308e-11
7.36511e-09
4.85973e-11
7.32268e-09
4.24293e-11
7.28619e-09
3.64881e-11
7.25749e-09
2.87029e-11
7.23478e-09
2.27084e-11
7.22381e-09
1.0972e-11
7.21705e-09
6.75503e-12
7.23266e-09
-1.56123e-11
7.23986e-09
-7.1926e-12
7.32079e-09
-8.09381e-11
7.15912e-09
1.61675e-10
-3.37911e-09
1.05382e-08
1.26026e-07
1.27456e-07
9.12646e-08
6.74022e-08
7.19461e-08
2.82086e-08
6.12228e-08
1.42162e-08
5.47812e-08
8.39169e-09
5.02926e-08
5.91412e-09
4.68143e-08
4.60921e-09
4.40045e-08
3.72137e-09
4.16841e-08
3.0703e-09
3.97285e-08
2.58702e-09
3.80507e-08
2.21957e-09
3.65905e-08
1.93144e-09
3.53055e-08
1.69965e-09
3.4164e-08
1.5096e-09
3.31421e-08
1.35141e-09
3.22209e-08
1.21804e-09
3.13855e-08
1.10434e-09
3.06242e-08
1.00644e-09
2.99271e-08
9.21382e-10
2.92864e-08
8.46886e-10
2.86952e-08
7.81158e-10
2.81482e-08
7.2277e-10
2.76406e-08
6.70571e-10
2.71685e-08
6.23623e-10
2.67284e-08
5.81149e-10
2.63175e-08
5.42505e-10
2.59332e-08
5.07141e-10
2.55736e-08
4.74596e-10
2.52366e-08
4.44457e-10
2.49208e-08
4.16391e-10
2.46248e-08
3.90052e-10
2.43475e-08
3.65209e-10
2.40879e-08
3.41517e-10
2.38454e-08
3.18853e-10
2.36193e-08
2.96786e-10
2.34092e-08
2.75334e-10
2.32151e-08
2.53881e-10
2.30368e-08
2.3259e-10
2.28747e-08
2.10657e-10
2.27291e-08
1.88097e-10
2.2601e-08
1.64522e-10
2.24916e-08
1.38168e-10
2.2402e-08
1.12221e-10
2.23367e-08
7.6325e-11
2.22929e-08
5.05693e-11
2.22903e-08
-1.30445e-11
2.22927e-08
-9.5904e-12
2.24393e-08
-2.27489e-10
2.2345e-08
2.55969e-10
-4.25002e-09
2.32159e-08
1.58807e-07
1.35053e-07
1.36496e-07
8.97139e-08
1.17497e-07
4.72068e-08
1.03325e-07
2.83889e-08
9.33244e-08
1.8392e-08
8.60302e-08
1.32083e-08
8.03328e-08
1.03066e-08
7.56906e-08
8.36351e-09
7.18216e-08
6.93938e-09
6.85388e-08
5.8698e-09
6.57092e-08
5.04912e-09
6.32382e-08
4.40243e-09
6.10573e-08
3.88057e-09
5.91153e-08
3.45159e-09
5.7373e-08
3.09372e-09
5.57997e-08
2.79142e-09
5.43707e-08
2.53327e-09
5.30665e-08
2.31067e-09
5.18708e-08
2.11706e-09
5.07704e-08
1.94733e-09
4.97541e-08
1.79747e-09
4.88126e-08
1.66426e-09
4.7938e-08
1.54513e-09
4.71237e-08
1.43795e-09
4.63638e-08
1.34099e-09
4.56536e-08
1.25278e-09
4.49886e-08
1.17209e-09
4.43653e-08
1.09787e-09
4.37806e-08
1.02921e-09
4.32316e-08
9.65339e-10
4.27162e-08
9.05509e-10
4.22322e-08
8.49179e-10
4.17781e-08
7.95625e-10
4.13524e-08
7.44544e-10
4.09542e-08
6.95029e-10
4.05824e-08
6.47145e-10
4.02368e-08
5.99459e-10
3.99167e-08
5.52689e-10
3.9623e-08
5.04353e-10
3.93549e-08
4.56151e-10
3.91153e-08
4.04187e-10
3.8903e-08
3.50474e-10
3.87233e-08
2.91862e-10
3.85762e-08
2.23443e-10
3.84669e-08
1.59835e-10
3.84085e-08
4.53518e-11
3.83757e-08
2.32481e-11
3.84969e-08
-3.48703e-10
3.85534e-08
1.99486e-10
-4.18702e-09
3.84904e-08
1.75664e-07
1.30905e-07
1.65595e-07
9.97825e-08
1.52727e-07
6.00755e-08
1.40133e-07
4.09831e-08
1.2945e-07
2.90741e-08
1.20816e-07
2.18424e-08
1.13715e-07
1.74082e-08
1.07745e-07
1.43329e-08
1.02657e-07
1.20279e-08
9.82669e-08
1.02597e-08
9.44362e-08
8.87979e-09
9.10593e-08
7.77938e-09
8.80563e-08
6.8836e-09
8.53657e-08
6.14215e-09
8.29394e-08
5.52006e-09
8.07387e-08
4.99205e-09
7.87326e-08
4.53934e-09
7.68957e-08
4.14765e-09
7.52068e-08
3.80596e-09
7.36484e-08
3.50568e-09
7.22059e-08
3.23998e-09
7.08668e-08
3.0034e-09
6.96204e-08
2.7915e-09
6.84577e-08
2.60064e-09
6.73709e-08
2.42781e-09
6.63532e-08
2.27046e-09
6.53988e-08
2.12647e-09
6.45027e-08
1.99399e-09
6.36605e-08
1.87145e-09
6.28683e-08
1.7575e-09
6.2123e-08
1.65086e-09
6.14216e-08
1.55056e-09
6.07618e-08
1.45539e-09
6.01416e-08
1.36478e-09
5.95594e-08
1.27724e-09
5.90137e-08
1.19286e-09
5.85039e-08
1.10919e-09
5.8029e-08
1.02766e-09
5.75897e-08
9.43615e-10
5.71847e-08
8.61103e-10
5.68175e-08
7.71395e-10
5.64859e-08
6.8214e-10
5.61969e-08
5.80795e-10
5.59484e-08
4.71972e-10
5.57494e-08
3.58829e-10
5.56089e-08
1.85864e-10
5.55137e-08
1.18417e-10
5.55547e-08
-3.89708e-10
5.56734e-08
8.0855e-11
-3.87429e-09
5.53606e-08
1.8456e-07
1.2313e-07
1.82321e-07
1.02022e-07
1.76104e-07
6.62925e-08
1.67765e-07
4.93224e-08
1.59148e-07
3.7691e-08
1.51247e-07
2.97432e-08
1.44184e-07
2.44706e-08
1.37897e-07
2.06208e-08
1.32309e-07
1.76155e-08
1.27338e-07
1.52311e-08
1.22897e-07
1.33206e-08
1.1891e-07
1.17661e-08
1.15313e-07
1.04807e-08
1.12052e-07
9.40326e-09
1.09082e-07
8.48991e-09
1.06366e-07
7.70797e-09
1.03873e-07
7.03263e-09
1.01576e-07
6.44466e-09
9.94527e-08
5.92901e-09
9.74846e-08
5.47376e-09
9.56553e-08
5.06933e-09
9.39507e-08
4.70799e-09
9.23588e-08
4.38337e-09
9.08692e-08
4.09024e-09
8.94728e-08
3.82421e-09
8.81617e-08
3.58158e-09
8.6929e-08
3.35919e-09
8.57686e-08
3.15437e-09
8.46753e-08
2.96473e-09
8.36445e-08
2.7883e-09
8.26722e-08
2.62316e-09
8.17549e-08
2.46785e-09
8.08897e-08
2.32062e-09
8.00739e-08
2.18056e-09
7.93056e-08
2.04554e-09
7.85828e-08
1.91563e-09
7.79047e-08
1.78728e-09
7.72698e-08
1.66265e-09
7.66786e-08
1.53473e-09
7.61297e-08
1.41006e-09
7.56263e-08
1.27477e-09
7.5166e-08
1.1424e-09
7.47562e-08
9.90617e-10
7.43943e-08
8.33854e-10
7.40902e-08
6.62999e-10
7.38508e-08
4.25235e-10
7.36734e-08
2.95777e-10
7.3613e-08
-3.29295e-10
7.36985e-08
-4.653e-12
-3.47592e-09
7.33002e-08
1.90388e-07
1.14958e-07
1.91851e-07
1.00558e-07
1.90244e-07
6.79001e-08
1.86155e-07
5.34111e-08
1.8072e-07
4.31257e-08
1.74972e-07
3.54913e-08
1.69284e-07
3.01585e-08
1.63811e-07
2.60939e-08
1.58649e-07
2.27781e-08
1.53839e-07
2.00413e-08
1.49384e-07
1.77756e-08
1.45267e-07
1.58824e-08
1.41466e-07
1.42823e-08
1.37952e-07
1.29165e-08
1.34701e-07
1.1741e-08
1.31688e-07
1.07214e-08
1.28889e-07
9.83108e-09
1.26286e-07
9.04852e-09
1.23858e-07
8.35655e-09
1.21591e-07
7.74121e-09
1.19469e-07
7.19112e-09
1.1748e-07
6.6969e-09
1.15612e-07
6.25077e-09
1.13856e-07
5.84619e-09
1.12203e-07
5.47764e-09
1.10644e-07
5.1404e-09
1.09173e-07
4.83044e-09
1.07783e-07
4.54425e-09
1.06469e-07
4.27876e-09
1.05226e-07
4.03132e-09
1.0405e-07
3.79944e-09
1.02936e-07
3.58116e-09
1.01883e-07
3.37416e-09
1.00886e-07
3.17721e-09
9.99443e-08
2.9875e-09
9.90549e-08
2.80505e-09
9.82169e-08
2.62526e-09
9.74287e-08
2.45089e-09
9.66907e-08
2.27276e-09
9.60012e-08
2.0995e-09
9.53633e-08
1.91272e-09
9.47749e-08
1.73079e-09
9.42423e-08
1.52317e-09
9.37644e-08
1.31175e-09
9.33494e-08
1.07801e-09
9.30049e-08
7.69774e-10
9.27335e-08
5.67162e-10
9.25655e-08
-1.61298e-10
9.25715e-08
-1.06336e-11
-3.00772e-09
9.21033e-08
1.95541e-07
1.07232e-07
1.98247e-07
9.78519e-08
1.98968e-07
6.71791e-08
1.97788e-07
5.45911e-08
1.95158e-07
4.57559e-08
1.9182e-07
3.88291e-08
1.88094e-07
3.38841e-08
1.84153e-07
3.00358e-08
1.80143e-07
2.67874e-08
1.76176e-07
2.40081e-08
1.7232e-07
2.16321e-08
1.68613e-07
1.95898e-08
1.65074e-07
1.78204e-08
1.61714e-07
1.62772e-08
1.58531e-07
1.49235e-08
1.55523e-07
1.37301e-08
1.52681e-07
1.26728e-08
1.49998e-07
1.17317e-08
1.47464e-07
1.08902e-08
1.45071e-07
1.01345e-08
1.42809e-07
9.45309e-09
1.4067e-07
8.83609e-09
1.38645e-07
8.27527e-09
1.36728e-07
7.76355e-09
1.34911e-07
7.29483e-09
1.33187e-07
6.86385e-09
1.31552e-07
6.46599e-09
1.29999e-07
6.09724e-09
1.28523e-07
5.754e-09
1.27122e-07
5.43314e-09
1.25789e-07
5.13172e-09
1.24523e-07
4.84734e-09
1.2332e-07
4.57724e-09
1.22177e-07
4.31986e-09
1.21093e-07
4.07185e-09
1.20065e-07
3.83313e-09
1.19092e-07
3.59818e-09
1.18173e-07
3.37016e-09
1.17307e-07
3.13814e-09
1.16495e-07
2.91219e-09
1.15737e-07
2.67051e-09
1.15033e-07
2.43455e-09
1.14388e-07
2.16828e-09
1.13803e-07
1.89714e-09
1.13282e-07
1.59826e-09
1.12837e-07
1.21513e-09
1.12471e-07
9.33059e-10
1.12197e-07
1.13249e-10
1.12108e-07
7.8358e-11
-2.48181e-09
1.11582e-07
2.00848e-07
9.99693e-08
2.03775e-07
9.49243e-08
2.05326e-07
6.56283e-08
2.05642e-07
5.42756e-08
2.04816e-07
4.65817e-08
2.03337e-07
4.03082e-08
2.01393e-07
3.58277e-08
1.9907e-07
3.23596e-08
1.96471e-07
2.93858e-08
1.93701e-07
2.67787e-08
1.90838e-07
2.44943e-08
1.87945e-07
2.24834e-08
1.85064e-07
2.07012e-08
1.82228e-07
1.91133e-08
1.79459e-07
1.76928e-08
1.76771e-07
1.6418e-08
1.74173e-07
1.52702e-08
1.71671e-07
1.42337e-08
1.69267e-07
1.32946e-08
1.6696e-07
1.24412e-08
1.6475e-07
1.16634e-08
1.62634e-07
1.09522e-08
1.60609e-07
1.03001e-08
1.58672e-07
9.7004e-09
1.5682e-07
9.14711e-09
1.55048e-07
8.63505e-09
1.53355e-07
8.15957e-09
1.51736e-07
7.71652e-09
1.50187e-07
7.30215e-09
1.48707e-07
6.91313e-09
1.47293e-07
6.54627e-09
1.45941e-07
6.19895e-09
1.4465e-07
5.86812e-09
1.43418e-07
5.552e-09
1.42243e-07
5.24685e-09
1.41124e-07
4.95247e-09
1.40059e-07
4.66269e-09
1.39049e-07
4.38085e-09
1.38092e-07
4.09479e-09
1.37189e-07
3.81529e-09
1.36341e-07
3.51846e-09
1.35549e-07
3.22683e-09
1.34815e-07
2.90207e-09
1.34143e-07
2.56877e-09
1.33536e-07
2.20539e-09
1.33006e-07
1.74574e-09
1.32557e-07
1.38139e-09
1.32187e-07
4.83694e-10
1.32003e-07
2.61988e-10
-1.9198e-09
1.31441e-07
2.06447e-07
9.30545e-08
2.09339e-07
9.20321e-08
2.11036e-07
6.39313e-08
2.1193e-07
5.33819e-08
2.11999e-07
4.65124e-08
2.11614e-07
4.06932e-08
2.10887e-07
3.65546e-08
2.09821e-07
3.34254e-08
2.08454e-07
3.0753e-08
2.06844e-07
2.83891e-08
2.05046e-07
2.62922e-08
2.03109e-07
2.442e-08
2.01077e-07
2.27339e-08
1.98984e-07
2.12063e-08
1.9686e-07
1.98168e-08
1.94728e-07
1.85496e-08
1.92607e-07
1.73911e-08
1.90511e-07
1.63296e-08
1.88451e-07
1.53548e-08
1.86434e-07
1.44579e-08
1.84467e-07
1.36307e-08
1.82553e-07
1.28663e-08
1.80695e-07
1.21584e-08
1.78894e-07
1.15012e-08
1.77151e-07
1.08899e-08
1.75466e-07
1.03196e-08
1.7384e-07
9.78636e-09
1.7227e-07
9.28618e-09
1.70757e-07
8.81556e-09
1.69298e-07
8.37128e-09
1.67895e-07
7.95018e-09
1.66544e-07
7.54965e-09
1.65245e-07
7.16654e-09
1.63998e-07
6.79901e-09
1.62802e-07
6.44313e-09
1.61656e-07
6.09862e-09
1.6056e-07
5.75892e-09
1.59513e-07
5.42738e-09
1.58517e-07
5.09116e-09
1.57571e-07
4.76106e-09
1.56677e-07
4.41246e-09
1.55837e-07
4.06704e-09
1.55052e-07
3.6872e-09
1.54328e-07
3.29274e-09
1.53665e-07
2.86828e-09
1.53076e-07
2.33452e-09
1.52569e-07
1.88813e-09
1.52125e-07
9.2779e-10
1.5186e-07
5.27163e-10
-1.34642e-09
1.51287e-07
2.12289e-07
8.64281e-08
2.15152e-07
8.91689e-08
2.1679e-07
6.22928e-08
2.17842e-07
5.23302e-08
2.18257e-07
4.6097e-08
2.18374e-07
4.05762e-08
2.18301e-07
3.66285e-08
2.18005e-07
3.37212e-08
2.1748e-07
3.12782e-08
2.16744e-07
2.91251e-08
2.15821e-07
2.7215e-08
2.14736e-07
2.55044e-08
2.13516e-07
2.39544e-08
2.12185e-07
2.25374e-08
2.10767e-07
2.1235e-08
2.09283e-07
2.00337e-08
2.07751e-07
1.89224e-08
2.06189e-07
1.7892e-08
2.04609e-07
1.69347e-08
2.03023e-07
1.60437e-08
2.01441e-07
1.5213e-08
1.9987e-07
1.44372e-08
1.98317e-07
1.37115e-08
1.96787e-07
1.30314e-08
1.95283e-07
1.23931e-08
1.9381e-07
1.17928e-08
1.9237e-07
1.12269e-08
1.90963e-07
1.06923e-08
1.89593e-07
1.01858e-08
1.8826e-07
9.70458e-09
1.86964e-07
9.24575e-09
1.85707e-07
8.80687e-09
1.84489e-07
8.3849e-09
1.8331e-07
7.97809e-09
1.8217e-07
7.58246e-09
1.81071e-07
7.19775e-09
1.80013e-07
6.81724e-09
1.78996e-07
6.44416e-09
1.78022e-07
6.06552e-09
1.77091e-07
5.69151e-09
1.76206e-07
5.29804e-09
1.75369e-07
4.90429e-09
1.7458e-07
4.47595e-09
1.73847e-07
4.02511e-09
1.7317e-07
3.54562e-09
1.7256e-07
2.9445e-09
1.72029e-07
2.41962e-09
1.71544e-07
1.41284e-09
1.71222e-07
8.49051e-10
-7.88041e-10
1.70663e-07
2.1833e-07
8.0079e-08
2.21206e-07
8.62931e-08
2.22763e-07
6.07352e-08
2.23842e-07
5.12517e-08
2.24366e-07
4.55723e-08
2.24661e-07
4.02816e-08
2.24863e-07
3.64265e-08
2.24945e-07
3.36394e-08
2.24884e-07
3.13385e-08
2.24682e-07
2.93276e-08
2.24342e-07
2.7555e-08
2.23871e-07
2.59758e-08
2.23277e-07
2.45482e-08
2.22572e-07
2.32423e-08
2.21769e-07
2.20384e-08
2.2088e-07
2.09225e-08
2.19918e-07
1.98837e-08
2.18897e-07
1.89136e-08
2.17826e-07
1.80052e-08
2.16717e-07
1.71526e-08
2.1558e-07
1.63508e-08
2.14421e-07
1.55954e-08
2.1325e-07
1.48827e-08
2.12072e-07
1.42093e-08
2.10894e-07
1.35719e-08
2.09719e-07
1.29676e-08
2.08552e-07
1.23937e-08
2.07397e-07
1.18474e-08
2.06256e-07
1.13264e-08
2.05133e-07
1.0828e-08
2.04029e-07
1.03497e-08
2.02946e-07
9.88951e-09
2.01887e-07
9.44446e-09
2.00852e-07
9.013e-09
1.99843e-07
8.59124e-09
1.98862e-07
8.17898e-09
1.9791e-07
7.76951e-09
1.96988e-07
7.36584e-09
1.96098e-07
6.95529e-09
1.95243e-07
6.54691e-09
1.94423e-07
6.11816e-09
1.93642e-07
5.6845e-09
1.92902e-07
5.21673e-09
1.92209e-07
4.7176e-09
1.91564e-07
4.19126e-09
1.90975e-07
3.5333e-09
1.90458e-07
2.9368e-09
1.89971e-07
1.89972e-09
1.89625e-07
1.1944e-09
-2.71864e-10
1.89109e-07
2.24559e-07
7.40136e-08
2.2747e-07
8.3382e-08
2.2896e-07
5.92452e-08
2.30044e-07
5.01679e-08
2.3061e-07
4.50062e-08
2.30953e-07
3.99383e-08
2.31244e-07
3.61352e-08
2.31474e-07
3.34097e-08
2.31622e-07
3.11905e-08
2.31686e-07
2.92633e-08
2.31666e-07
2.75751e-08
2.3156e-07
2.6082e-08
2.31367e-07
2.47409e-08
2.3109e-07
2.35197e-08
2.30731e-07
2.2397e-08
2.30296e-07
2.13571e-08
2.29792e-07
2.03886e-08
2.29223e-07
1.94822e-08
2.28598e-07
1.86306e-08
2.27922e-07
1.7828e-08
2.27203e-07
1.70694e-08
2.26448e-07
1.63508e-08
2.25662e-07
1.56687e-08
2.24851e-07
1.50201e-08
2.24021e-07
1.44022e-08
2.23176e-07
1.38126e-08
2.22321e-07
1.3249e-08
2.21459e-07
1.27091e-08
2.20594e-07
1.21909e-08
2.1973e-07
1.16921e-08
2.18869e-07
1.12107e-08
2.18014e-07
1.07446e-08
2.17168e-07
1.02913e-08
2.16331e-07
9.84934e-09
2.15507e-07
9.41499e-09
2.14698e-07
8.98804e-09
2.13906e-07
8.562e-09
2.13132e-07
8.13947e-09
2.12379e-07
7.70845e-09
2.1165e-07
7.27643e-09
2.10945e-07
6.82318e-09
2.10269e-07
6.35965e-09
2.09623e-07
5.86273e-09
2.09015e-07
5.32557e-09
2.08445e-07
4.76186e-09
2.07918e-07
4.05984e-09
2.07454e-07
3.40141e-09
2.07004e-07
2.34894e-09
2.06672e-07
1.52714e-09
1.76733e-10
2.06223e-07
2.30979e-07
6.82402e-08
2.33934e-07
8.0427e-08
2.35365e-07
5.78144e-08
2.36455e-07
4.9078e-08
2.37055e-07
4.44066e-08
2.37413e-07
3.95796e-08
2.37726e-07
3.58223e-08
2.38002e-07
3.31343e-08
2.38225e-07
3.09671e-08
2.38398e-07
2.90901e-08
2.38523e-07
2.745e-08
2.38599e-07
2.60069e-08
2.38621e-07
2.47184e-08
2.38589e-07
2.35515e-08
2.38503e-07
2.24837e-08
2.38361e-07
2.14985e-08
2.38166e-07
2.05835e-08
2.3792e-07
1.97286e-08
2.37624e-07
1.8926e-08
2.37283e-07
1.81691e-08
2.369e-07
1.74529e-08
2.36478e-07
1.67729e-08
2.36021e-07
1.61255e-08
2.35533e-07
1.55077e-08
2.35019e-07
1.49169e-08
2.34481e-07
1.43507e-08
2.33923e-07
1.3807e-08
2.33348e-07
1.32837e-08
2.3276e-07
1.27789e-08
2.32161e-07
1.22907e-08
2.31555e-07
1.18171e-08
2.30943e-07
1.13563e-08
2.30329e-07
1.09059e-08
2.29713e-07
1.04644e-08
2.291e-07
1.00284e-08
2.28491e-07
9.59747e-09
2.27887e-07
9.16546e-09
2.27292e-07
8.73443e-09
2.26707e-07
8.29327e-09
2.26136e-07
7.84765e-09
2.25579e-07
7.38006e-09
2.25042e-07
6.89664e-09
2.24525e-07
6.38053e-09
2.24034e-07
5.81611e-09
2.23571e-07
5.22456e-09
2.23139e-07
4.4918e-09
2.22758e-07
3.78269e-09
2.22379e-07
2.72751e-09
2.22091e-07
1.81516e-09
5.3766e-10
2.21731e-07
2.376e-07
6.27646e-08
2.40602e-07
7.74257e-08
2.41975e-07
5.64407e-08
2.4307e-07
4.79832e-08
2.43707e-07
4.37698e-08
2.44079e-07
3.92074e-08
2.44398e-07
3.5504e-08
2.44685e-07
3.28463e-08
2.44932e-07
3.07209e-08
2.45142e-07
2.88803e-08
2.45321e-07
2.72706e-08
2.45471e-07
2.58569e-08
2.4559e-07
2.45989e-08
2.45678e-07
2.34641e-08
2.45732e-07
2.24295e-08
2.45752e-07
2.14785e-08
2.45737e-07
2.05983e-08
2.45687e-07
1.97786e-08
2.45602e-07
1.90108e-08
2.45483e-07
1.82882e-08
2.45331e-07
1.7605e-08
2.45147e-07
1.69567e-08
2.44934e-07
1.63392e-08
2.44692e-07
1.57494e-08
2.44424e-07
1.51844e-08
2.44133e-07
1.46419e-08
2.43821e-07
1.41196e-08
2.43489e-07
1.36156e-08
2.4314e-07
1.31278e-08
2.42776e-07
1.26546e-08
2.42399e-07
1.21939e-08
2.42011e-07
1.1744e-08
2.41615e-07
1.13025e-08
2.41211e-07
1.0868e-08
2.40803e-07
1.04371e-08
2.40391e-07
1.00092e-08
2.39978e-07
9.57857e-09
2.39566e-07
9.14646e-09
2.39156e-07
8.70288e-09
2.38752e-07
8.25144e-09
2.38355e-07
7.77754e-09
2.37969e-07
7.28263e-09
2.37594e-07
6.75556e-09
2.37236e-07
6.17359e-09
2.36898e-07
5.56259e-09
2.36579e-07
4.81115e-09
2.36299e-07
4.06277e-09
2.36012e-07
3.01445e-09
2.35791e-07
2.03575e-09
7.99976e-10
2.35529e-07
2.4443e-07
5.75904e-08
2.47471e-07
7.43847e-08
2.48796e-07
5.51161e-08
2.49891e-07
4.68881e-08
2.50567e-07
4.30942e-08
2.50956e-07
3.88182e-08
2.51279e-07
3.51811e-08
2.51572e-07
3.25528e-08
2.51826e-07
3.04669e-08
2.52047e-07
2.86595e-08
2.52243e-07
2.70741e-08
2.52419e-07
2.5681e-08
2.52575e-07
2.44428e-08
2.52712e-07
2.33277e-08
2.52828e-07
2.23131e-08
2.52924e-07
2.13826e-08
2.52999e-07
2.05235e-08
2.53052e-07
1.97254e-08
2.53083e-07
1.89798e-08
2.53092e-07
1.82795e-08
2.53078e-07
1.76187e-08
2.53042e-07
1.69924e-08
2.52985e-07
1.63966e-08
2.52907e-07
1.58276e-08
2.52809e-07
1.52827e-08
2.52691e-07
1.47592e-08
2.52556e-07
1.42548e-08
2.52404e-07
1.37675e-08
2.52237e-07
1.32954e-08
2.52055e-07
1.28365e-08
2.5186e-07
1.23888e-08
2.51653e-07
1.19507e-08
2.51436e-07
1.15196e-08
2.5121e-07
1.10942e-08
2.50976e-07
1.0671e-08
2.50736e-07
1.02494e-08
2.50491e-07
9.82365e-09
2.50243e-07
9.39449e-09
2.49993e-07
8.95292e-09
2.49744e-07
8.50053e-09
2.49496e-07
8.02548e-09
2.49253e-07
7.52497e-09
2.49016e-07
6.99265e-09
2.48789e-07
6.40067e-09
2.48575e-07
5.77666e-09
2.4837e-07
5.01611e-09
2.48194e-07
4.23871e-09
2.48005e-07
3.20334e-09
2.47862e-07
2.17899e-09
9.6361e-10
2.47698e-07
2.51478e-07
5.27194e-08
2.54549e-07
7.13136e-08
2.55835e-07
5.383e-08
2.56925e-07
4.57983e-08
2.57638e-07
4.2381e-08
2.58047e-07
3.84088e-08
2.58376e-07
3.48525e-08
2.58675e-07
3.2254e-08
2.58934e-07
3.02076e-08
2.59159e-07
2.84342e-08
2.59361e-07
2.68722e-08
2.59545e-07
2.54971e-08
2.59713e-07
2.42748e-08
2.59867e-07
2.31742e-08
2.60007e-07
2.21734e-08
2.60133e-07
2.12562e-08
2.60246e-07
2.04104e-08
2.60346e-07
1.96257e-08
2.60432e-07
1.88936e-08
2.60504e-07
1.82071e-08
2.60563e-07
1.75602e-08
2.60607e-07
1.69479e-08
2.60638e-07
1.63659e-08
2.60655e-07
1.58107e-08
2.60658e-07
1.52792e-08
2.60649e-07
1.47688e-08
2.60626e-07
1.42771e-08
2.60592e-07
1.38019e-08
2.60546e-07
1.33414e-08
2.60489e-07
1.28935e-08
2.60422e-07
1.24561e-08
2.60345e-07
1.20277e-08
2.60259e-07
1.16056e-08
2.60165e-07
1.11883e-08
2.60063e-07
1.07725e-08
2.59955e-07
1.03572e-08
2.59842e-07
9.93706e-09
2.59724e-07
9.51193e-09
2.59603e-07
9.07393e-09
2.59481e-07
8.62271e-09
2.59358e-07
8.14889e-09
2.59237e-07
7.64616e-09
2.59118e-07
7.11169e-09
2.59003e-07
6.51471e-09
2.58898e-07
5.88192e-09
2.58795e-07
5.11883e-09
2.58713e-07
4.3208e-09
2.58616e-07
3.30111e-09
2.58547e-07
2.24741e-09
1.03862e-09
2.58472e-07
2.58751e-07
4.81516e-08
2.61842e-07
6.82223e-08
2.631e-07
5.2572e-08
2.6418e-07
4.47188e-08
2.64928e-07
4.16326e-08
2.65359e-07
3.79773e-08
2.65695e-07
3.45169e-08
2.65999e-07
3.19496e-08
2.66264e-07
2.99428e-08
2.66494e-07
2.82048e-08
2.66699e-07
2.66672e-08
2.66886e-07
2.531e-08
2.67058e-07
2.41027e-08
2.67217e-07
2.30152e-08
2.67364e-07
2.20259e-08
2.67501e-07
2.11193e-08
2.67628e-07
2.02832e-08
2.67746e-07
1.95078e-08
2.67855e-07
1.87848e-08
2.67955e-07
1.81072e-08
2.68046e-07
1.74691e-08
2.68129e-07
1.68654e-08
2.68203e-07
1.62921e-08
2.68268e-07
1.57453e-08
2.68325e-07
1.52221e-08
2.68374e-07
1.47197e-08
2.68415e-07
1.42359e-08
2.68449e-07
1.37684e-08
2.68475e-07
1.33152e-08
2.68494e-07
1.28745e-08
2.68506e-07
1.24441e-08
2.68512e-07
1.20222e-08
2.68511e-07
1.16063e-08
2.68504e-07
1.11949e-08
2.68492e-07
1.07846e-08
2.68476e-07
1.0374e-08
2.68454e-07
9.95827e-09
2.6843e-07
9.53645e-09
2.68402e-07
9.10166e-09
2.68373e-07
8.65181e-09
2.68342e-07
8.17957e-09
2.68313e-07
7.67595e-09
2.68284e-07
7.1404e-09
2.68257e-07
6.54119e-09
2.68237e-07
5.90202e-09
2.68216e-07
5.14016e-09
2.68209e-07
4.32783e-09
2.68186e-07
3.32392e-09
2.68181e-07
2.25271e-09
1.04218e-09
2.68177e-07
2.66258e-07
4.38855e-08
2.69359e-07
6.51213e-08
2.706e-07
5.13315e-08
2.71665e-07
4.36541e-08
2.72445e-07
4.08524e-08
2.729e-07
3.75219e-08
2.73243e-07
3.41737e-08
2.73554e-07
3.16394e-08
2.73824e-07
2.96719e-08
2.74058e-07
2.79709e-08
2.74266e-07
2.64591e-08
2.74456e-07
2.51206e-08
2.7463e-07
2.39284e-08
2.74791e-07
2.2854e-08
2.74941e-07
2.18758e-08
2.75082e-07
2.09788e-08
2.75214e-07
2.01513e-08
2.75338e-07
1.93837e-08
2.75455e-07
1.86678e-08
2.75565e-07
1.79969e-08
2.75669e-07
1.7365e-08
2.75767e-07
1.67674e-08
2.7586e-07
1.61996e-08
2.75947e-07
1.56582e-08
2.76029e-07
1.514e-08
2.76106e-07
1.46425e-08
2.76179e-07
1.41632e-08
2.76247e-07
1.37001e-08
2.76311e-07
1.32512e-08
2.76371e-07
1.28145e-08
2.76427e-07
1.2388e-08
2.7648e-07
1.19699e-08
2.76528e-07
1.15577e-08
2.76573e-07
1.11496e-08
2.76616e-07
1.07425e-08
2.76655e-07
1.03347e-08
2.76691e-07
9.9217e-09
2.76726e-07
9.50175e-09
2.76759e-07
9.06891e-09
2.76791e-07
8.61966e-09
2.76822e-07
8.14825e-09
2.76854e-07
7.64389e-09
2.76888e-07
7.10711e-09
2.76922e-07
6.50689e-09
2.76961e-07
5.8625e-09
2.76998e-07
5.10354e-09
2.77044e-07
4.2815e-09
2.77077e-07
3.29179e-09
2.77118e-07
2.21114e-09
9.94419e-10
2.77166e-07
2.74009e-07
3.99176e-08
2.77109e-07
6.20217e-08
2.78342e-07
5.00983e-08
2.79388e-07
4.26077e-08
2.80196e-07
4.00445e-08
2.80677e-07
3.70411e-08
2.81029e-07
3.38216e-08
2.81345e-07
3.13235e-08
2.81622e-07
2.93948e-08
2.81861e-07
2.77322e-08
2.82072e-07
2.62478e-08
2.82264e-07
2.49286e-08
2.8244e-07
2.37521e-08
2.82603e-07
2.2691e-08
2.82755e-07
2.17241e-08
2.82897e-07
2.08368e-08
2.83031e-07
2.00177e-08
2.83157e-07
1.92574e-08
2.83277e-07
1.85481e-08
2.83391e-07
1.78831e-08
2.83499e-07
1.72565e-08
2.83603e-07
1.66636e-08
2.83702e-07
1.61001e-08
2.83798e-07
1.55625e-08
2.8389e-07
1.50478e-08
2.83979e-07
1.45533e-08
2.84066e-07
1.40768e-08
2.8415e-07
1.36162e-08
2.84231e-07
1.31695e-08
2.84311e-07
1.27349e-08
2.84389e-07
1.23103e-08
2.84465e-07
1.1894e-08
2.84539e-07
1.14834e-08
2.84612e-07
1.10769e-08
2.84683e-07
1.06712e-08
2.84753e-07
1.02645e-08
2.84822e-07
9.85263e-09
2.84891e-07
9.43317e-09
2.84959e-07
9.00095e-09
2.85027e-07
8.55136e-09
2.85096e-07
8.07975e-09
2.85165e-07
7.5743e-09
2.85237e-07
7.03571e-09
2.85309e-07
6.4348e-09
2.85385e-07
5.78581e-09
2.85459e-07
5.03014e-09
2.85538e-07
4.20175e-09
2.85606e-07
3.22394e-09
2.85678e-07
2.13918e-09
9.14675e-10
2.85758e-07
2.82013e-07
3.62425e-08
2.85099e-07
5.89349e-08
2.86335e-07
4.88629e-08
2.8736e-07
4.15822e-08
2.88191e-07
3.92136e-08
2.88699e-07
3.65335e-08
2.89061e-07
3.34597e-08
2.89382e-07
3.10021e-08
2.89665e-07
2.91113e-08
2.89909e-07
2.74882e-08
2.90124e-07
2.60328e-08
2.90319e-07
2.47339e-08
2.90498e-07
2.35736e-08
2.90662e-07
2.25262e-08
2.90816e-07
2.15709e-08
2.90959e-07
2.06935e-08
2.91094e-07
1.98829e-08
2.91221e-07
1.91301e-08
2.91342e-07
1.84273e-08
2.91457e-07
1.7768e-08
2.91567e-07
1.71465e-08
2.91672e-07
1.6558e-08
2.91774e-07
1.59983e-08
2.91873e-07
1.54639e-08
2.91969e-07
1.49519e-08
2.92063e-07
1.44596e-08
2.92154e-07
1.39849e-08
2.92245e-07
1.35258e-08
2.92334e-07
1.30804e-08
2.92422e-07
1.26468e-08
2.92509e-07
1.2223e-08
2.92596e-07
1.18074e-08
2.92682e-07
1.13974e-08
2.92767e-07
1.09912e-08
2.92853e-07
1.05858e-08
2.92938e-07
1.01791e-08
2.93024e-07
9.76719e-09
2.9311e-07
9.34723e-09
2.93196e-07
8.91461e-09
2.93284e-07
8.46394e-09
2.93372e-07
7.99125e-09
2.93462e-07
7.48437e-09
2.93554e-07
6.94345e-09
2.93647e-07
6.34186e-09
2.93744e-07
5.68878e-09
2.93838e-07
4.93624e-09
2.93936e-07
4.10408e-09
2.94024e-07
3.13595e-09
2.94112e-07
2.05065e-09
8.18977e-10
2.94208e-07
2.90278e-07
3.28531e-08
2.9334e-07
5.58728e-08
2.94587e-07
4.76163e-08
2.95589e-07
4.05796e-08
2.96438e-07
3.83649e-08
2.96973e-07
3.59984e-08
2.97347e-07
3.30865e-08
2.97674e-07
3.06751e-08
2.97963e-07
2.88215e-08
2.98213e-07
2.72386e-08
2.98432e-07
2.58138e-08
2.9863e-07
2.45363e-08
2.9881e-07
2.33927e-08
2.98977e-07
2.23594e-08
2.99132e-07
2.14162e-08
2.99277e-07
2.0549e-08
2.99412e-07
1.97471e-08
2.9954e-07
1.90019e-08
2.99662e-07
1.83058e-08
2.99778e-07
1.76522e-08
2.99889e-07
1.70358e-08
2.99995e-07
1.64515e-08
3.00098e-07
1.58955e-08
3.00197e-07
1.53642e-08
3.00295e-07
1.48546e-08
3.0039e-07
1.43643e-08
3.00484e-07
1.38912e-08
3.00576e-07
1.34332e-08
3.00668e-07
1.29885e-08
3.0076e-07
1.25554e-08
3.00851e-07
1.21319e-08
3.00942e-07
1.17164e-08
3.01033e-07
1.13063e-08
3.01124e-07
1.08999e-08
3.01216e-07
1.04941e-08
3.01308e-07
1.00868e-08
3.01401e-07
9.67428e-09
3.01495e-07
9.25329e-09
3.0159e-07
8.81965e-09
3.01686e-07
8.36751e-09
3.01784e-07
7.89321e-09
3.01884e-07
7.38471e-09
3.01986e-07
6.84123e-09
3.02089e-07
6.23898e-09
3.02195e-07
5.58247e-09
3.02299e-07
4.83278e-09
3.02404e-07
3.99897e-09
3.02501e-07
3.03885e-09
3.02596e-07
1.95567e-09
7.19093e-10
3.02696e-07
2.98815e-07
2.97406e-08
3.01841e-07
5.28473e-08
3.03106e-07
4.63507e-08
3.04085e-07
3.96006e-08
3.04946e-07
3.75039e-08
3.05509e-07
3.54351e-08
3.05895e-07
3.27005e-08
3.06228e-07
3.03425e-08
3.06524e-07
2.85254e-08
3.0678e-07
2.69832e-08
3.07003e-07
2.55905e-08
3.07204e-07
2.43355e-08
3.07387e-07
2.32092e-08
3.07556e-07
2.21905e-08
3.07713e-07
2.12597e-08
3.07859e-07
2.0403e-08
3.07996e-07
1.96102e-08
3.08125e-07
1.88727e-08
3.08247e-07
1.81834e-08
3.08364e-07
1.75358e-08
3.08475e-07
1.69244e-08
3.08582e-07
1.63446e-08
3.08685e-07
1.57922e-08
3.08785e-07
1.52639e-08
3.08883e-07
1.47568e-08
3.08979e-07
1.42684e-08
3.09074e-07
1.37966e-08
3.09167e-07
1.33396e-08
3.0926e-07
1.28955e-08
3.09353e-07
1.24627e-08
3.09446e-07
1.20393e-08
3.09538e-07
1.16236e-08
3.09632e-07
1.12132e-08
3.09725e-07
1.08063e-08
3.09819e-07
1.03999e-08
3.09914e-07
9.99172e-09
3.1001e-07
9.57826e-09
3.10108e-07
9.15601e-09
3.10206e-07
8.72107e-09
3.10306e-07
8.26734e-09
3.10408e-07
7.7912e-09
3.10512e-07
7.28113e-09
3.10618e-07
6.73515e-09
3.10725e-07
6.13236e-09
3.10834e-07
5.47325e-09
3.10941e-07
4.72628e-09
3.11047e-07
3.89272e-09
3.11146e-07
2.93967e-09
3.11241e-07
1.86086e-09
6.2287e-10
3.11337e-07
3.07633e-07
2.68945e-08
3.1061e-07
4.98706e-08
3.11902e-07
4.50594e-08
3.12857e-07
3.86453e-08
3.13725e-07
3.66359e-08
3.14316e-07
3.48441e-08
3.14716e-07
3.23e-08
3.15055e-07
3.00039e-08
3.15357e-07
2.8223e-08
3.15619e-07
2.67215e-08
3.15847e-07
2.53626e-08
3.16051e-07
2.41312e-08
3.16237e-07
2.30229e-08
3.16409e-07
2.20192e-08
3.16567e-07
2.11012e-08
3.16715e-07
2.02554e-08
3.16853e-07
1.94719e-08
3.16983e-07
1.87425e-08
3.17107e-07
1.80601e-08
3.17224e-07
1.74186e-08
3.17336e-07
1.68124e-08
3.17443e-07
1.62371e-08
3.17547e-07
1.56885e-08
3.17648e-07
1.51632e-08
3.17746e-07
1.46585e-08
3.17843e-07
1.4172e-08
3.17938e-07
1.37015e-08
3.18032e-07
1.32454e-08
3.18125e-07
1.28019e-08
3.18219e-07
1.23694e-08
3.18312e-07
1.1946e-08
3.18406e-07
1.153e-08
3.185e-07
1.11193e-08
3.18594e-07
1.07117e-08
3.1869e-07
1.03046e-08
3.18786e-07
9.89547e-09
3.18883e-07
9.48098e-09
3.18982e-07
9.05744e-09
3.19082e-07
8.62112e-09
3.19183e-07
8.16585e-09
3.19286e-07
7.68791e-09
3.19391e-07
7.17642e-09
3.19498e-07
6.62826e-09
3.19605e-07
6.02517e-09
3.19714e-07
5.36446e-09
3.1982e-07
4.6203e-09
3.19924e-07
3.7887e-09
3.20021e-07
2.84256e-09
3.20112e-07
1.7703e-09
5.35191e-10
3.20199e-07
3.16743e-07
2.43026e-08
3.19659e-07
4.69545e-08
3.20982e-07
4.3737e-08
3.21914e-07
3.77126e-08
3.22784e-07
3.5766e-08
3.23402e-07
3.42264e-08
3.23818e-07
3.18835e-08
3.24163e-07
2.96591e-08
3.24472e-07
2.79144e-08
3.2474e-07
2.64534e-08
3.24973e-07
2.51297e-08
3.25181e-07
2.39232e-08
3.2537e-07
2.28335e-08
3.25544e-07
2.18453e-08
3.25705e-07
2.09406e-08
3.25854e-07
2.0106e-08
3.25994e-07
1.93321e-08
3.26125e-07
1.8611e-08
3.2625e-07
1.79358e-08
3.26368e-07
1.73004e-08
3.2648e-07
1.66997e-08
3.26589e-07
1.61289e-08
3.26693e-07
1.55841e-08
3.26794e-07
1.50619e-08
3.26893e-07
1.45597e-08
3.2699e-07
1.4075e-08
3.27086e-07
1.3606e-08
3.2718e-07
1.31508e-08
3.27274e-07
1.27078e-08
3.27368e-07
1.22755e-08
3.27462e-07
1.18521e-08
3.27556e-07
1.14359e-08
3.27651e-07
1.10247e-08
3.27746e-07
1.06165e-08
3.27842e-07
1.02087e-08
3.27939e-07
9.79864e-09
3.28036e-07
9.38313e-09
3.28136e-07
8.95836e-09
3.28236e-07
8.52071e-09
3.28338e-07
8.06406e-09
3.28441e-07
7.58448e-09
3.28546e-07
7.07185e-09
3.28652e-07
6.52198e-09
3.28758e-07
5.91894e-09
3.28865e-07
5.25768e-09
3.28969e-07
4.51666e-09
3.29069e-07
3.68863e-09
3.29161e-07
2.74987e-09
3.29245e-07
1.68642e-09
4.58981e-10
3.29322e-07
3.26154e-07
2.19517e-08
3.28997e-07
4.41109e-08
3.30354e-07
4.23797e-08
3.31267e-07
3.68005e-08
3.32133e-07
3.48992e-08
3.32776e-07
3.35836e-08
3.3321e-07
3.14496e-08
3.33562e-07
2.93073e-08
3.33877e-07
2.75997e-08
3.34151e-07
2.61787e-08
3.3439e-07
2.48913e-08
3.34602e-07
2.37112e-08
3.34794e-07
2.2641e-08
3.34971e-07
2.16687e-08
3.35134e-07
2.07776e-08
3.35285e-07
1.99547e-08
3.35427e-07
1.91906e-08
3.3556e-07
1.8478e-08
3.35685e-07
1.78102e-08
3.35804e-07
1.71813e-08
3.35918e-07
1.6586e-08
3.36027e-07
1.60199e-08
3.36132e-07
1.5479e-08
3.36234e-07
1.496e-08
3.36333e-07
1.44603e-08
3.36431e-07
1.39775e-08
3.36527e-07
1.35098e-08
3.36622e-07
1.30556e-08
3.36717e-07
1.26132e-08
3.36811e-07
1.21811e-08
3.36906e-07