/*--------------------------------*- C++ -*----------------------------------*\
  =========                 |
  \\      /  F ield         | OpenFOAM: The Open Source CFD Toolbox
   \\    /   O peration     | Website:  https://openfoam.org
    \\  /    A nd           | Version:  7
     \\/     M anipulation  |
\*---------------------------------------------------------------------------*/
FoamFile
{
    version     2.0;
    format      ascii;
    class       volVectorField;
    location    "0.45";
    object      U_0;
}
// * * * * * * * * * * * * * * * * * * * * * * * * * * * * * * * * * * * * * //

dimensions      [0 1 -1 0 0 0 0];

internalField   nonuniform List<vector> 
70000
(
(0.553391 0.016723 0)
(0.251262 0.00340098 0)
(0.166204 0.000321965 0)
(0.132461 5.4246e-05 0)
(0.117275 4.56795e-05 0)
(0.107358 5.38479e-05 0)
(0.0994182 4.62102e-05 0)
(0.092987 3.68676e-05 0)
(0.0877522 3.05507e-05 0)
(0.0833937 2.62207e-05 0)
(0.0796834 2.29181e-05 0)
(0.0764735 2.02697e-05 0)
(0.0736626 1.8106e-05 0)
(0.0711767 1.63142e-05 0)
(0.0689597 1.48109e-05 0)
(0.0669682 1.35344e-05 0)
(0.0651679 1.24386e-05 0)
(0.0635316 1.14884e-05 0)
(0.0620371 1.06572e-05 0)
(0.0606665 9.92344e-06 0)
(0.0594047 9.27072e-06 0)
(0.0582393 8.6854e-06 0)
(0.05716 8.1566e-06 0)
(0.0561578 7.67529e-06 0)
(0.0552253 7.23391e-06 0)
(0.054356 6.826e-06 0)
(0.0535445 6.44576e-06 0)
(0.0527861 6.08859e-06 0)
(0.0520768 5.74872e-06 0)
(0.0514132 5.42378e-06 0)
(0.0507924 5.10618e-06 0)
(0.050212 4.79613e-06 0)
(0.0496701 4.48343e-06 0)
(0.0491652 4.16955e-06 0)
(0.0486958 3.84417e-06 0)
(0.0482621 3.49983e-06 0)
(0.0478622 3.14842e-06 0)
(0.0474993 2.72211e-06 0)
(0.0471684 2.3551e-06 0)
(0.0468816 1.7239e-06 0)
(0.0466215 1.4328e-06 0)
(0.0464255 2.88917e-07 0)
(0.0462385 4.00595e-07 0)
(0.0461646 -2.02587e-06 0)
(0.0460509 -6.35708e-07 0)
(0.0461574 -6.18956e-06 0)
(0.0461202 -3.82455e-07 0)
(0.0464596 -1.46141e-05 0)
(0.0468307 2.17139e-05 0)
(0.0431768 -0.00175686 0)
(0.884899 0.0431674 0)
(0.649716 0.0201939 0)
(0.494326 0.00659801 0)
(0.403681 0.00276711 0)
(0.354772 0.00155137 0)
(0.323488 0.00113087 0)
(0.299652 0.000909599 0)
(0.280479 0.000745633 0)
(0.264792 0.00062271 0)
(0.251699 0.00053187 0)
(0.240549 0.000462869 0)
(0.230902 0.000408529 0)
(0.222452 0.000364579 0)
(0.214976 0.000328365 0)
(0.208305 0.00029808 0)
(0.20231 0.00027243 0)
(0.196889 0.00025046 0)
(0.191959 0.00023145 0)
(0.187454 0.000214852 0)
(0.18332 0.000200237 0)
(0.179513 0.00018727 0)
(0.175995 0.00017568 0)
(0.172735 0.00016525 0)
(0.169705 0.000155802 0)
(0.166884 0.000147185 0)
(0.164252 0.000139274 0)
(0.161793 0.00013196 0)
(0.159491 0.000125152 0)
(0.157336 0.000118762 0)
(0.155316 0.000112721 0)
(0.153423 0.000106949 0)
(0.151648 0.000101396 0)
(0.149987 9.59693e-05 0)
(0.148432 9.06447e-05 0)
(0.146981 8.5293e-05 0)
(0.145632 7.99163e-05 0)
(0.144378 7.43359e-05 0)
(0.143228 6.85409e-05 0)
(0.142166 6.23777e-05 0)
(0.141224 5.55759e-05 0)
(0.140354 4.84702e-05 0)
(0.139652 3.95036e-05 0)
(0.138973 3.13667e-05 0)
(0.138586 1.75323e-05 0)
(0.138092 9.85167e-06 0)
(0.138161 -1.68411e-05 0)
(0.13787 -1.09034e-05 0)
(0.138492 -0.000107712 0)
(0.139198 0.000189005 0)
(0.135438 -0.00299748 0)
(0.991237 0.0499015 0)
(0.890348 0.0307187 0)
(0.762689 0.0145971 0)
(0.656693 0.00797845 0)
(0.585392 0.00488319 0)
(0.536017 0.00346913 0)
(0.498184 0.00273343 0)
(0.467601 0.00224097 0)
(0.442324 0.00187765 0)
(0.421054 0.00160582 0)
(0.402844 0.00139806 0)
(0.387028 0.00123442 0)
(0.373131 0.00110216 0)
(0.360804 0.000993187 0)
(0.349781 0.000902032 0)
(0.339855 0.000824804 0)
(0.330864 0.000758636 0)
(0.322675 0.000701374 0)
(0.315183 0.000651371 0)
(0.3083 0.000607345 0)
(0.301953 0.000568288 0)
(0.296082 0.000533393 0)
(0.290634 0.000502008 0)
(0.285568 0.000473595 0)
(0.280845 0.000447709 0)
(0.276433 0.000423974 0)
(0.272306 0.000402068 0)
(0.268439 0.000381715 0)
(0.264813 0.000362662 0)
(0.261409 0.000344705 0)
(0.258214 0.000327618 0)
(0.255213 0.00031125 0)
(0.252396 0.000295358 0)
(0.249754 0.00027986 0)
(0.247279 0.000264413 0)
(0.244967 0.000249051 0)
(0.242809 0.000233208 0)
(0.240813 0.000217107 0)
(0.238959 0.000199822 0)
(0.237287 0.000181733 0)
(0.235729 0.000161679 0)
(0.234421 0.000139359 0)
(0.233151 0.000115225 0)
(0.232305 8.34877e-05 0)
(0.231311 5.66171e-05 0)
(0.23111 -1.59648e-06 0)
(0.230418 -4.41337e-06 0)
(0.230995 -0.000216887 0)
(0.231419 0.000190659 0)
(0.229685 -0.00314661 0)
(1.0156 0.0489204 0)
(1.00596 0.0358749 0)
(0.935953 0.0207909 0)
(0.852136 0.0135024 0)
(0.782219 0.00920482 0)
(0.727055 0.00677741 0)
(0.682015 0.00537912 0)
(0.644304 0.00443961 0)
(0.612335 0.00374554 0)
(0.584918 0.00321928 0)
(0.561118 0.00281241 0)
(0.540229 0.00248976 0)
(0.521723 0.00222785 0)
(0.505197 0.0020113 0)
(0.490337 0.00182961 0)
(0.476894 0.00167528 0)
(0.464667 0.00154276 0)
(0.453494 0.00142786 0)
(0.44324 0.00132738 0)
(0.433794 0.00123879 0)
(0.425063 0.00116013 0)
(0.416969 0.0010898 0)
(0.409444 0.00102651 0)
(0.402431 0.000969202 0)
(0.395883 0.000916993 0)
(0.389755 0.000869136 0)
(0.384013 0.000824993 0)
(0.378624 0.000784017 0)
(0.373561 0.000745714 0)
(0.368801 0.000709673 0)
(0.364322 0.000675465 0)
(0.360108 0.000642787 0)
(0.356142 0.000611187 0)
(0.352413 0.000580493 0)
(0.348908 0.000550076 0)
(0.345623 0.000520015 0)
(0.342543 0.000489202 0)
(0.339679 0.000458262 0)
(0.337002 0.000425051 0)
(0.33456 0.000391229 0)
(0.332271 0.000352898 0)
(0.330292 0.000312849 0)
(0.328377 0.00026612 0)
(0.326966 0.000212135 0)
(0.325407 0.000156884 0)
(0.324762 6.22151e-05 0)
(0.323583 3.51806e-05 0)
(0.323891 -0.000281191 0)
(0.32369 0.000103967 0)
(0.323292 -0.00293226 0)
(1.01434 0.0460039 0)
(1.04753 0.0374886 0)
(1.02458 0.0241508 0)
(0.974761 0.0175566 0)
(0.923465 0.0131178 0)
(0.876723 0.0101999 0)
(0.834603 0.00833511 0)
(0.796907 0.00701314 0)
(0.763401 0.00600253 0)
(0.733647 0.00521412 0)
(0.707133 0.00459096 0)
(0.683388 0.00408891 0)
(0.662014 0.00367658 0)
(0.642679 0.0033325 0)
(0.625107 0.00304164 0)
(0.609069 0.00279301 0)
(0.594372 0.0025784 0)
(0.580854 0.0023915 0)
(0.568378 0.00222741 0)
(0.556829 0.00208229 0)
(0.546107 0.00195308 0)
(0.536128 0.00183728 0)
(0.526818 0.00173288 0)
(0.518114 0.0016382 0)
(0.509962 0.00155184 0)
(0.502313 0.00147261 0)
(0.495126 0.00139949 0)
(0.488364 0.00133161 0)
(0.481996 0.00126817 0)
(0.475993 0.00120852 0)
(0.470332 0.00115197 0)
(0.464991 0.00109802 0)
(0.459952 0.00104599 0)
(0.455201 0.000995574 0)
(0.450722 0.000945818 0)
(0.446507 0.00089684 0)
(0.442543 0.000846903 0)
(0.438835 0.000797101 0)
(0.435356 0.000743861 0)
(0.432151 0.000690399 0)
(0.429136 0.000629529 0)
(0.42647 0.000567878 0)
(0.423903 0.000493871 0)
(0.421876 0.000413648 0)
(0.419737 0.000324576 0)
(0.418547 0.000189584 0)
(0.416857 0.000126444 0)
(0.416722 -0.000275364 0)
(0.415915 1.61919e-05 0)
(0.4158 -0.00265852 0)
(1.00933 0.0429153 0)
(1.05527 0.037264 0)
(1.05868 0.025295 0)
(1.03637 0.0197558 0)
(1.0071 0.0158057 0)
(0.976076 0.0129277 0)
(0.944583 0.0109496 0)
(0.913761 0.00946602 0)
(0.884459 0.00827438 0)
(0.857062 0.00730524 0)
(0.831646 0.0065136 0)
(0.80815 0.00585934 0)
(0.786453 0.00531113 0)
(0.766412 0.00484623 0)
(0.74788 0.00444799 0)
(0.730718 0.00410381 0)
(0.714796 0.00380392 0)
(0.699994 0.00354067 0)
(0.686208 0.00330798 0)
(0.673343 0.00310098 0)
(0.661315 0.00291571 0)
(0.650049 0.00274896 0)
(0.63948 0.00259804 0)
(0.629548 0.00246073 0)
(0.620202 0.00233514 0)
(0.611396 0.00221965 0)
(0.603089 0.00211287 0)
(0.595245 0.00201359 0)
(0.587831 0.00192071 0)
(0.580819 0.00183331 0)
(0.574185 0.00175045 0)
(0.567906 0.00167142 0)
(0.561963 0.00159528 0)
(0.55634 0.00152158 0)
(0.551022 0.00144903 0)
(0.546 0.00137776 0)
(0.541258 0.0013054 0)
(0.536801 0.00123349 0)
(0.532603 0.00115702 0)
(0.528704 0.00108069 0)
(0.525026 0.000994152 0)
(0.521715 0.000907554 0)
(0.518542 0.00080322 0)
(0.515911 0.000693116 0)
(0.513227 0.00056701 0)
(0.51146 0.000388811 0)
(0.509293 0.000281157 0)
(0.508597 -0.000193974 0)
(0.507312 -2.0945e-05 0)
(0.506934 -0.00234416 0)
(1.00625 0.0400339 0)
(1.05206 0.0363366 0)
(1.06609 0.0252242 0)
(1.0596 0.0205554 0)
(1.04687 0.0172317 0)
(1.0308 0.014646 0)
(1.01193 0.0128069 0)
(0.991276 0.0113796 0)
(0.96991 0.0101809 0)
(0.948557 0.00916316 0)
(0.927661 0.0083006 0)
(0.907486 0.00756531 0)
(0.888176 0.00693292 0)
(0.869801 0.00638469 0)
(0.852382 0.00590622 0)
(0.835904 0.00548604 0)
(0.820337 0.00511491 0)
(0.805637 0.00478525 0)
(0.791759 0.00449085 0)
(0.778651 0.0042266 0)
(0.766267 0.00398822 0)
(0.754559 0.00377217 0)
(0.743483 0.00357545 0)
(0.732997 0.0033955 0)
(0.723061 0.00323014 0)
(0.713642 0.00307745 0)
(0.704705 0.00293577 0)
(0.696222 0.00280363 0)
(0.688165 0.0026797 0)
(0.68051 0.00256283 0)
(0.673235 0.00245186 0)
(0.66632 0.00234588 0)
(0.659749 0.00224371 0)
(0.653507 0.00214478 0)
(0.647579 0.00204748 0)
(0.641958 0.00195192 0)
(0.636629 0.00185518 0)
(0.631597 0.00175909 0)
(0.626837 0.00165745 0)
(0.622384 0.00155607 0)
(0.618173 0.00144203 0)
(0.614328 0.00132803 0)
(0.610654 0.00119184 0)
(0.607498 0.00104894 0)
(0.604355 0.000884513 0)
(0.602049 0.000660628 0)
(0.599484 0.000503913 0)
(0.598203 -3.58223e-05 0)
(0.596538 8.0427e-06 0)
(0.595736 -0.00198319 0)
(1.00495 0.0373559 0)
(1.04727 0.0352546 0)
(1.06397 0.0246844 0)
(1.06425 0.0205817 0)
(1.06067 0.0177691 0)
(1.05475 0.0154877 0)
(1.046 0.0138627 0)
(1.03484 0.0125994 0)
(1.02196 0.0115109 0)
(1.00797 0.0105556 0)
(0.993334 0.00972 0)
(0.978402 0.00898661 0)
(0.963438 0.00833872 0)
(0.948637 0.0077633 0)
(0.934135 0.00725011 0)
(0.920023 0.00679075 0)
(0.906361 0.00637806 0)
(0.893184 0.00600594 0)
(0.880508 0.00566915 0)
(0.868339 0.00536323 0)
(0.856673 0.00508433 0)
(0.845501 0.00482913 0)
(0.834807 0.00459479 0)
(0.824578 0.00437879 0)
(0.814794 0.00417895 0)
(0.805438 0.00399329 0)
(0.796492 0.00382008 0)
(0.787938 0.00365776 0)
(0.77976 0.00350486 0)
(0.771941 0.00336011 0)
(0.764467 0.00322223 0)
(0.757325 0.00309016 0)
(0.750501 0.00296257 0)
(0.743986 0.00283876 0)
(0.73777 0.00271688 0)
(0.731845 0.002597 0)
(0.726203 0.00247574 0)
(0.720847 0.00235513 0)
(0.715758 0.00222804 0)
(0.710966 0.00210096 0)
(0.706418 0.00195918 0)
(0.702218 0.00181669 0)
(0.698209 0.00164872 0)
(0.694673 0.00147139 0)
(0.691212 0.00126914 0)
(0.688477 0.00099838 0)
(0.685629 0.000790491 0)
(0.683837 0.000195663 0)
(0.681874 0.000105781 0)
(0.680658 -0.00158725 0)
(1.0044 0.034808 0)
(1.04324 0.0341814 0)
(1.05994 0.0240435 0)
(1.06228 0.0202879 0)
(1.06249 0.0178328 0)
(1.0618 0.0157683 0)
(1.05924 0.014316 0)
(1.05471 0.0132174 0)
(1.04851 0.0122705 0)
(1.04098 0.0114267 0)
(1.03238 0.0106748 0)
(1.02296 0.0100016 0)
(1.01297 0.00939424 0)
(1.00259 0.00884325 0)
(0.99199 0.00834176 0)
(0.981299 0.00788422 0)
(0.970623 0.00746581 0)
(0.96004 0.00708233 0)
(0.949613 0.00673002 0)
(0.939388 0.00640557 0)
(0.929398 0.00610604 0)
(0.919667 0.00582881 0)
(0.91021 0.00557155 0)
(0.901039 0.00533214 0)
(0.892158 0.00510869 0)
(0.883568 0.00489945 0)
(0.87527 0.00470282 0)
(0.86726 0.00451731 0)
(0.859535 0.00434152 0)
(0.852089 0.00417418 0)
(0.844917 0.00401398 0)
(0.838015 0.00385983 0)
(0.831377 0.00371032 0)
(0.824999 0.00356468 0)
(0.818876 0.0034209 0)
(0.813006 0.00327902 0)
(0.807386 0.00313535 0)
(0.802018 0.00299197 0)
(0.796892 0.00284117 0)
(0.792034 0.0026896 0)
(0.787404 0.0025217 0)
(0.783085 0.00235139 0)
(0.77896 0.00215348 0)
(0.775248 0.00194189 0)
(0.771653 0.00170388 0)
(0.768663 0.00138741 0)
(0.765679 0.00112772 0)
(0.763529 0.000489198 0)
(0.761369 0.000268816 0)
(0.759834 -0.00117405 0)
(1.00402 0.0323679 0)
(1.03991 0.0331314 0)
(1.05616 0.0234204 0)
(1.05892 0.0198998 0)
(1.06022 0.0177024 0)
(1.06157 0.0157722 0)
(1.06195 0.0144206 0)
(1.06107 0.0134363 0)
(1.05902 0.0126048 0)
(1.05593 0.0118661 0)
(1.05187 0.0112067 0)
(1.04696 0.0106128 0)
(1.04133 0.0100716 0)
(1.03509 0.00957434 0)
(1.02838 0.00911518 0)
(1.02131 0.00868994 0)
(1.01395 0.00829519 0)
(1.00641 0.00792803 0)
(0.99876 0.0075859 0)
(0.991051 0.0072665 0)
(0.983338 0.00696781 0)
(0.975664 0.00668797 0)
(0.968062 0.0064253 0)
(0.960559 0.00617824 0)
(0.95318 0.00594533 0)
(0.94594 0.00572519 0)
(0.938853 0.00551652 0)
(0.93193 0.00531805 0)
(0.925178 0.00512857 0)
(0.918603 0.00494693 0)
(0.912211 0.00477189 0)
(0.906003 0.00460242 0)
(0.899983 0.00443711 0)
(0.894154 0.0042752 0)
(0.888516 0.00411462 0)
(0.883073 0.00395537 0)
(0.877826 0.00379357 0)
(0.872781 0.00363128 0)
(0.867935 0.0034605 0)
(0.863309 0.00328767 0)
(0.858879 0.00309713 0)
(0.854708 0.00290163 0)
(0.850717 0.00267735 0)
(0.847067 0.00243375 0)
(0.843553 0.00216346 0)
(0.840522 0.00180502 0)
(0.837576 0.00149489 0)
(0.835265 0.0008243 0)
(0.833043 0.000483826 0)
(0.831333 -0.000762197 0)
(1.00364 0.0300275 0)
(1.03692 0.0320838 0)
(1.05282 0.0228308 0)
(1.05568 0.0194946 0)
(1.05712 0.0175103 0)
(1.05902 0.0156718 0)
(1.06047 0.0143672 0)
(1.06118 0.0134454 0)
(1.06119 0.012687 0)
(1.06056 0.0120221 0)
(1.05928 0.0114345 0)
(1.05736 0.0109092 0)
(1.05484 0.0104317 0)
(1.05176 0.00999219 0)
(1.04819 0.00958439 0)
(1.04419 0.00920398 0)
(1.03981 0.00884772 0)
(1.03512 0.00851305 0)
(1.03017 0.00819788 0)
(1.02502 0.00790043 0)
(1.01971 0.00761918 0)
(1.01429 0.00735279 0)
(1.00878 0.00710004 0)
(1.00323 0.00685982 0)
(0.99767 0.00663107 0)
(0.992114 0.00641277 0)
(0.986586 0.00620393 0)
(0.981105 0.00600355 0)
(0.975687 0.00581063 0)
(0.970344 0.0056242 0)
(0.965087 0.00544316 0)
(0.959927 0.0052666 0)
(0.954872 0.00509315 0)
(0.94993 0.00492211 0)
(0.945107 0.00475138 0)
(0.940412 0.00458097 0)
(0.935849 0.00440695 0)
(0.931428 0.00423122 0)
(0.92715 0.0040458 0)
(0.923036 0.00385652 0)
(0.919072 0.00364839 0)
(0.915309 0.003432 0)
(0.911694 0.00318635 0)
(0.908344 0.00291497 0)
(0.905128 0.0026171 0)
(0.902279 0.00222274 0)
(0.899551 0.00186573 0)
(0.897291 0.00117431 0)
(0.89516 0.000728874 0)
(0.893442 -0.000370322 0)
(1.00327 0.0277878 0)
(1.03409 0.0310252 0)
(1.0497 0.0222675 0)
(1.05272 0.0190873 0)
(1.05412 0.0172993 0)
(1.05608 0.0155422 0)
(1.0578 0.0142593 0)
(1.05903 0.0133674 0)
(1.05985 0.0126492 0)
(1.06033 0.0120273 0)
(1.06044 0.0114843 0)
(1.06015 0.0110051 0)
(1.05947 0.0105743 0)
(1.05839 0.0101807 0)
(1.05693 0.0098171 0)
(1.05511 0.00947839 0)
(1.05295 0.00916089 0)
(1.05049 0.00886176 0)
(1.04775 0.00857875 0)
(1.04476 0.00831008 0)
(1.04157 0.00805428 0)
(1.03819 0.00781012 0)
(1.03465 0.00757659 0)
(1.03099 0.00735274 0)
(1.02723 0.00713775 0)
(1.02339 0.00693081 0)
(1.0195 0.00673113 0)
(1.01557 0.00653793 0)
(1.01161 0.00635037 0)
(1.00765 0.00616763 0)
(1.0037 0.00598874 0)
(0.999771 0.00581289 0)
(0.995874 0.00563879 0)
(0.99202 0.00546579 0)
(0.988218 0.00529181 0)
(0.98448 0.00511684 0)
(0.980812 0.00493696 0)
(0.977226 0.00475385 0)
(0.973728 0.0045598 0)
(0.970336 0.00435971 0)
(0.967044 0.00413982 0)
(0.963892 0.0039079 0)
(0.96085 0.00364666 0)
(0.957997 0.00335316 0)
(0.955261 0.00303315 0)
(0.952786 0.00261053 0)
(0.950438 0.00221211 0)
(0.948419 0.00151018 0)
(0.946528 0.000977796 0)
(0.944961 -1.78844e-05 0)
(1.00292 0.025652 0)
(1.03138 0.0299508 0)
(1.0467 0.0217264 0)
(1.04993 0.018678 0)
(1.05131 0.0170763 0)
(1.05322 0.0154055 0)
(1.05498 0.0141377 0)
(1.05632 0.013261 0)
(1.05738 0.0125655 0)
(1.05825 0.0119672 0)
(1.05891 0.0114485 0)
(1.05936 0.0109956 0)
(1.05958 0.0105931 0)
(1.05956 0.0102293 0)
(1.0593 0.00989621 0)
(1.05879 0.00958817 0)
(1.05804 0.00930097 0)
(1.05706 0.00903132 0)
(1.05586 0.00877663 0)
(1.05444 0.00853481 0)
(1.05283 0.0083042 0)
(1.05104 0.00808344 0)
(1.04908 0.00787141 0)
(1.04698 0.00766717 0)
(1.04475 0.00746989 0)
(1.04241 0.00727882 0)
(1.03997 0.00709325 0)
(1.03746 0.00691245 0)
(1.03487 0.00673569 0)
(1.03223 0.00656222 0)
(1.02956 0.00639114 0)
(1.02685 0.0062217 0)
(1.02412 0.00605264 0)
(1.02139 0.00588335 0)
(1.01866 0.00571176 0)
(1.01594 0.00553779 0)
(1.01325 0.00535764 0)
(1.01059 0.00517261 0)
(1.00796 0.00497547 0)
(1.0054 0.00476996 0)
(1.00288 0.00454389 0)
(1.00046 0.00430193 0)
(0.998104 0.00403076 0)
(0.995874 0.0037213 0)
(0.993733 0.00338471 0)
(0.991765 0.00294204 0)
(0.989906 0.00250894 0)
(0.988268 0.00180529 0)
(0.986732 0.00120464 0)
(0.985442 0.000277611 0)
(1.0026 0.023623 0)
(1.02879 0.0288594 0)
(1.04378 0.0212062 0)
(1.04724 0.0182666 0)
(1.04862 0.0168397 0)
(1.0505 0.0152642 0)
(1.05225 0.0140135 0)
(1.0536 0.0131474 0)
(1.0547 0.0124679 0)
(1.05566 0.0118843 0)
(1.05649 0.0113791 0)
(1.05721 0.0109403 0)
(1.05779 0.0105533 0)
(1.05823 0.0102063 0)
(1.05854 0.00989123 0)
(1.0587 0.00960222 0)
(1.05871 0.00933479 0)
(1.05857 0.00908536 0)
(1.05828 0.00885105 0)
(1.05784 0.0086295 0)
(1.05726 0.00841879 0)
(1.05653 0.00821736 0)
(1.05568 0.00802392 0)
(1.05469 0.00783737 0)
(1.05359 0.00765681 0)
(1.05239 0.00748141 0)
(1.05109 0.00731042 0)
(1.0497 0.00714311 0)
(1.04823 0.00697873 0)
(1.04669 0.00681655 0)
(1.04509 0.00665566 0)
(1.04344 0.00649533 0)
(1.04175 0.00633429 0)
(1.04003 0.00617189 0)
(1.03828 0.0060061 0)
(1.03651 0.00583672 0)
(1.03473 0.00566005 0)
(1.03295 0.00547698 0)
(1.03118 0.00528084 0)
(1.02942 0.00507408 0)
(1.02769 0.00484627 0)
(1.02601 0.00459892 0)
(1.02436 0.00432253 0)
(1.02278 0.00400279 0)
(1.02127 0.00365453 0)
(1.01986 0.00319941 0)
(1.01854 0.00273873 0)
(1.01735 0.00204012 0)
(1.01623 0.00138869 0)
(1.01529 0.000504183 0)
(1.0023 0.0217024 0)
(1.02634 0.0277519 0)
(1.04095 0.0207054 0)
(1.04463 0.0178546 0)
(1.04604 0.0165883 0)
(1.04789 0.0151169 0)
(1.04963 0.0138879 0)
(1.05098 0.0130314 0)
(1.05206 0.0123662 0)
(1.05303 0.0117949 0)
(1.05389 0.0112989 0)
(1.05467 0.0108685 0)
(1.05536 0.0104902 0)
(1.05598 0.0101525 0)
(1.0565 0.00984736 0)
(1.05695 0.00956902 0)
(1.05731 0.009313 0)
(1.05757 0.00907564 0)
(1.05775 0.00885396 0)
(1.05783 0.00864545 0)
(1.05782 0.00844806 0)
(1.05772 0.00826005 0)
(1.05752 0.00807997 0)
(1.05724 0.00790661 0)
(1.05687 0.00773893 0)
(1.05642 0.00757603 0)
(1.05589 0.00741707 0)
(1.05529 0.00726127 0)
(1.05462 0.00710782 0)
(1.05389 0.00695598 0)
(1.0531 0.0068048 0)
(1.05226 0.00665349 0)
(1.05137 0.00650077 0)
(1.05045 0.00634594 0)
(1.04948 0.00618696 0)
(1.04849 0.00602345 0)
(1.04748 0.00585187 0)
(1.04645 0.00567264 0)
(1.0454 0.00547968 0)
(1.04436 0.00527412 0)
(1.04332 0.00504728 0)
(1.04229 0.00479775 0)
(1.04129 0.00451932 0)
(1.04031 0.00419375 0)
(1.03938 0.00383756 0)
(1.03851 0.00337612 0)
(1.03769 0.0028945 0)
(1.03695 0.00220515 0)
(1.03625 0.00151834 0)
(1.03568 0.000657146 0)
(1.00203 0.0198911 0)
(1.02402 0.0266314 0)
(1.03822 0.0202207 0)
(1.04211 0.0174438 0)
(1.04354 0.0163221 0)
(1.04536 0.0149621 0)
(1.0471 0.0137602 0)
(1.04845 0.0129134 0)
(1.04952 0.0122625 0)
(1.05047 0.0117033 0)
(1.05133 0.0112156 0)
(1.05211 0.0107917 0)
(1.05282 0.0104195 0)
(1.05347 0.0100876 0)
(1.05407 0.00978833 0)
(1.05461 0.00951604 0)
(1.05509 0.00926638 0)
(1.05552 0.00903577 0)
(1.0559 0.00882124 0)
(1.05622 0.00862028 0)
(1.05649 0.00843076 0)
(1.0567 0.00825089 0)
(1.05685 0.00807914 0)
(1.05695 0.00791421 0)
(1.05699 0.007755 0)
(1.05697 0.00760051 0)
(1.05691 0.00744987 0)
(1.05679 0.00730225 0)
(1.05663 0.00715679 0)
(1.05642 0.0070127 0)
(1.05617 0.00686899 0)
(1.05588 0.00672485 0)
(1.05554 0.00657894 0)
(1.05518 0.00643049 0)
(1.05478 0.00627745 0)
(1.05436 0.00611928 0)
(1.05391 0.00595259 0)
(1.05344 0.00577728 0)
(1.05295 0.00558791 0)
(1.05246 0.00538434 0)
(1.05196 0.00515947 0)
(1.05146 0.00490941 0)
(1.05097 0.00463049 0)
(1.0505 0.00430196 0)
(1.05005 0.00394023 0)
(1.04963 0.00347672 0)
(1.04924 0.00297965 0)
(1.04889 0.00230154 0)
(1.04856 0.00159142 0)
(1.04831 0.000740412 0)
(1.00179 0.0181892 0)
(1.02183 0.0255017 0)
(1.03558 0.0197484 0)
(1.03967 0.0170362 0)
(1.04114 0.016042 0)
(1.04292 0.0147989 0)
(1.04466 0.0136299 0)
(1.04601 0.0127932 0)
(1.04708 0.0121565 0)
(1.04801 0.0116101 0)
(1.04885 0.0111309 0)
(1.04962 0.0107133 0)
(1.05033 0.0103464 0)
(1.05098 0.0100192 0)
(1.05158 0.00972424 0)
(1.05214 0.00945601 0)
(1.05266 0.00921032 0)
(1.05314 0.00898371 0)
(1.05358 0.00877329 0)
(1.05399 0.00857658 0)
(1.05437 0.00839147 0)
(1.05471 0.00821615 0)
(1.05502 0.00804909 0)
(1.05529 0.00788896 0)
(1.05553 0.00773461 0)
(1.05574 0.00758504 0)
(1.05592 0.00743932 0)
(1.05607 0.00729662 0)
(1.05618 0.00715606 0)
(1.05627 0.00701683 0)
(1.05633 0.0068779 0)
(1.05637 0.00673844 0)
(1.05638 0.00659708 0)
(1.05636 0.00645297 0)
(1.05633 0.00630409 0)
(1.05627 0.0061497 0)
(1.05619 0.0059866 0)
(1.0561 0.00581417 0)
(1.056 0.00562761 0)
(1.05589 0.0054256 0)
(1.05577 0.00520242 0)
(1.05565 0.00495221 0)
(1.05553 0.00467304 0)
(1.05542 0.00434302 0)
(1.05533 0.00397694 0)
(1.05525 0.00351376 0)
(1.05518 0.00300546 0)
(1.05514 0.00233867 0)
(1.05509 0.00161401 0)
(1.0551 0.000764759 0)
(1.00157 0.0165965 0)
(1.01979 0.0243667 0)
(1.03304 0.0192845 0)
(1.03732 0.0166334 0)
(1.03882 0.0157491 0)
(1.04057 0.0146267 0)
(1.04231 0.0134968 0)
(1.04366 0.0126708 0)
(1.04472 0.0120482 0)
(1.04564 0.0115151 0)
(1.04647 0.0110451 0)
(1.04723 0.0106339 0)
(1.04792 0.0102722 0)
(1.04856 0.00994963 0)
(1.04915 0.00965854 0)
(1.0497 0.00939372 0)
(1.05022 0.00915112 0)
(1.05071 0.00892739 0)
(1.05117 0.00871972 0)
(1.0516 0.00852568 0)
(1.05201 0.00834319 0)
(1.0524 0.00817048 0)
(1.05276 0.008006 0)
(1.0531 0.00784843 0)
(1.05342 0.00769663 0)
(1.05373 0.00754958 0)
(1.05401 0.00740638 0)
(1.05428 0.00726619 0)
(1.05454 0.00712813 0)
(1.05477 0.00699138 0)
(1.05499 0.00685493 0)
(1.0552 0.00671791 0)
(1.05539 0.00657896 0)
(1.05557 0.00643716 0)
(1.05574 0.00629054 0)
(1.05589 0.00613815 0)
(1.05604 0.00597703 0)
(1.05617 0.00580605 0)
(1.0563 0.005621 0)
(1.05643 0.00541956 0)
(1.05655 0.00519712 0)
(1.05667 0.00494641 0)
(1.05679 0.00466647 0)
(1.05692 0.00433542 0)
(1.05706 0.00396541 0)
(1.0572 0.00350355 0)
(1.05736 0.0029871 0)
(1.05752 0.00233039 0)
(1.05767 0.00159716 0)
(1.05785 0.000744715 0)
(1.00137 0.0151121 0)
(1.01788 0.0232305 0)
(1.03061 0.0188249 0)
(1.03506 0.016237 0)
(1.03661 0.0154449 0)
(1.03831 0.0144449 0)
(1.04004 0.0133604 0)
(1.04139 0.0125461 0)
(1.04245 0.0119374 0)
(1.04336 0.0114183 0)
(1.04418 0.010958 0)
(1.04492 0.0105535 0)
(1.0456 0.0101973 0)
(1.04623 0.00987928 0)
(1.04681 0.0095921 0)
(1.04735 0.0093306 0)
(1.04786 0.00909088 0)
(1.04834 0.0088697 0)
(1.0488 0.0086643 0)
(1.04923 0.00847233 0)
(1.04964 0.00829173 0)
(1.05003 0.00812074 0)
(1.05041 0.00795784 0)
(1.05077 0.00780171 0)
(1.05112 0.00765122 0)
(1.05145 0.00750538 0)
(1.05178 0.00736329 0)
(1.05209 0.00722412 0)
(1.0524 0.00708703 0)
(1.0527 0.00695121 0)
(1.05299 0.00681566 0)
(1.05327 0.00667948 0)
(1.05355 0.00654137 0)
(1.05382 0.00640032 0)
(1.05409 0.00625443 0)
(1.05435 0.00610258 0)
(1.05461 0.00594201 0)
(1.05486 0.00577118 0)
(1.05512 0.00558637 0)
(1.05537 0.00538449 0)
(1.05562 0.0051617 0)
(1.05588 0.0049099 0)
(1.05614 0.00462842 0)
(1.0564 0.0042963 0)
(1.05668 0.00392243 0)
(1.05695 0.00346203 0)
(1.05723 0.00293965 0)
(1.05752 0.00229127 0)
(1.05778 0.00155334 0)
(1.05807 0.00069525 0)
(1.0012 0.0137344 0)
(1.0161 0.0220971 0)
(1.02829 0.0183661 0)
(1.03288 0.0158481 0)
(1.03448 0.0151311 0)
(1.03615 0.0142528 0)
(1.03786 0.0132204 0)
(1.03922 0.0124193 0)
(1.04027 0.011824 0)
(1.04117 0.0113193 0)
(1.04198 0.0108693 0)
(1.04271 0.010472 0)
(1.04338 0.0101214 0)
(1.044 0.00980818 0)
(1.04457 0.00952503 0)
(1.0451 0.00926694 0)
(1.04559 0.00903012 0)
(1.04606 0.00881145 0)
(1.04651 0.00860824 0)
(1.04693 0.00841817 0)
(1.04734 0.00823922 0)
(1.04772 0.00806964 0)
(1.04809 0.00790793 0)
(1.04845 0.00775277 0)
(1.0488 0.00760305 0)
(1.04914 0.00745779 0)
(1.04948 0.00731612 0)
(1.0498 0.00717723 0)
(1.05013 0.00704031 0)
(1.05044 0.00690455 0)
(1.05076 0.00676898 0)
(1.05107 0.00663272 0)
(1.05138 0.00649446 0)
(1.05169 0.00635317 0)
(1.052 0.00620701 0)
(1.0523 0.00605472 0)
(1.05261 0.0058937 0)
(1.05292 0.0057221 0)
(1.05323 0.00553658 0)
(1.05354 0.00533348 0)
(1.05386 0.00510948 0)
(1.05418 0.00485609 0)
(1.0545 0.00457242 0)
(1.05483 0.00423901 0)
(1.05517 0.00386138 0)
(1.05552 0.0034022 0)
(1.05586 0.00287563 0)
(1.0562 0.00223376 0)
(1.05653 0.00149372 0)
(1.05686 0.000629396 0)
(1.00104 0.012461 0)
(1.01446 0.0209709 0)
(1.02608 0.0179046 0)
(1.03079 0.0154675 0)
(1.03245 0.0148097 0)
(1.03408 0.0140501 0)
(1.03577 0.0130761 0)
(1.03713 0.0122902 0)
(1.03818 0.0117081 0)
(1.03907 0.0112181 0)
(1.03987 0.0107791 0)
(1.0406 0.0103893 0)
(1.04125 0.0100445 0)
(1.04186 0.00973627 0)
(1.04242 0.0094573 0)
(1.04294 0.00920273 0)
(1.04342 0.0089689 0)
(1.04388 0.0087528 0)
(1.04432 0.00855181 0)
(1.04473 0.00836364 0)
(1.04512 0.00818631 0)
(1.0455 0.00801807 0)
(1.04587 0.00785743 0)
(1.04622 0.00770309 0)
(1.04656 0.00755394 0)
(1.0469 0.00740902 0)
(1.04722 0.00726748 0)
(1.04755 0.00712855 0)
(1.04787 0.00699141 0)
(1.04819 0.0068553 0)
(1.04851 0.00671928 0)
(1.04883 0.00658245 0)
(1.04914 0.00644355 0)
(1.04946 0.00630149 0)
(1.04978 0.00615451 0)
(1.0501 0.00600121 0)
(1.05042 0.00583918 0)
(1.05075 0.00566627 0)
(1.05108 0.00547944 0)
(1.05141 0.00527467 0)
(1.05175 0.00504892 0)
(1.05209 0.00479363 0)
(1.05244 0.00450741 0)
(1.0528 0.00417258 0)
(1.05316 0.00379144 0)
(1.05353 0.00333318 0)
(1.05389 0.00280389 0)
(1.05425 0.0021671 0)
(1.05459 0.00142682 0)
(1.05493 0.000557101 0)
(1.0009 0.0112891 0)
(1.01295 0.0198563 0)
(1.02398 0.0174372 0)
(1.02878 0.0150956 0)
(1.03051 0.0144826 0)
(1.0321 0.0138364 0)
(1.03377 0.012927 0)
(1.03514 0.0121589 0)
(1.03619 0.0115896 0)
(1.03707 0.0111145 0)
(1.03786 0.0106872 0)
(1.03857 0.0103053 0)
(1.03922 0.00996661 0)
(1.03981 0.00966346 0)
(1.04036 0.00938884 0)
(1.04087 0.00913791 0)
(1.04135 0.00890719 0)
(1.0418 0.00869374 0)
(1.04222 0.00849503 0)
(1.04262 0.00830881 0)
(1.04301 0.00813312 0)
(1.04338 0.00796624 0)
(1.04373 0.00780666 0)
(1.04408 0.0076531 0)
(1.04441 0.00750446 0)
(1.04474 0.00735981 0)
(1.04506 0.0072183 0)
(1.04538 0.00707919 0)
(1.04569 0.00694171 0)
(1.04601 0.00680509 0)
(1.04632 0.00666842 0)
(1.04663 0.00653082 0)
(1.04695 0.00639104 0)
(1.04726 0.00624797 0)
(1.04758 0.00609992 0)
(1.0479 0.00594536 0)
(1.04822 0.00578202 0)
(1.04855 0.00560756 0)
(1.04888 0.00541913 0)
(1.04922 0.0052125 0)
(1.04956 0.00498472 0)
(1.0499 0.00472745 0)
(1.05026 0.00443859 0)
(1.05062 0.00410233 0)
(1.05098 0.00371815 0)
(1.05135 0.00326064 0)
(1.05171 0.00272993 0)
(1.05206 0.00209734 0)
(1.05239 0.00135838 0)
(1.05271 0.000485233 0)
(1.00078 0.0102153 0)
(1.01157 0.0187575 0)
(1.022 0.0169614 0)
(1.02686 0.0147326 0)
(1.02867 0.014152 0)
(1.03022 0.013612 0)
(1.03186 0.0127725 0)
(1.03323 0.0120254 0)
(1.03428 0.0114686 0)
(1.03515 0.0110085 0)
(1.03593 0.0105934 0)
(1.03664 0.0102199 0)
(1.03728 0.00988753 0)
(1.03786 0.00958967 0)
(1.0384 0.00931955 0)
(1.0389 0.00907242 0)
(1.03937 0.0088449 0)
(1.03981 0.0086342 0)
(1.04022 0.00843785 0)
(1.04062 0.00825364 0)
(1.04099 0.00807965 0)
(1.04135 0.00791415 0)
(1.0417 0.00775565 0)
(1.04203 0.00760289 0)
(1.04236 0.00745476 0)
(1.04268 0.00731035 0)
(1.04299 0.00716885 0)
(1.0433 0.00702953 0)
(1.04361 0.00689164 0)
(1.04391 0.00675445 0)
(1.04422 0.00661707 0)
(1.04453 0.00647861 0)
(1.04483 0.00633788 0)
(1.04514 0.00619371 0)
(1.04546 0.00604448 0)
(1.04577 0.00588857 0)
(1.04609 0.00572381 0)
(1.04641 0.00554772 0)
(1.04673 0.00535758 0)
(1.04706 0.00514908 0)
(1.0474 0.00491921 0)
(1.04774 0.00466002 0)
(1.04809 0.00436865 0)
(1.04844 0.00403107 0)
(1.04879 0.00364447 0)
(1.04914 0.00318772 0)
(1.04949 0.00265681 0)
(1.04982 0.00202807 0)
(1.05013 0.00129193 0)
(1.05042 0.000418192 0)
(1.00067 0.00923529 0)
(1.01031 0.0176792 0)
(1.02012 0.0164748 0)
(1.02503 0.0143782 0)
(1.02691 0.01382 0)
(1.02843 0.0133769 0)
(1.03004 0.0126118 0)
(1.0314 0.0118895 0)
(1.03246 0.0113452 0)
(1.03333 0.0108998 0)
(1.0341 0.0104976 0)
(1.03479 0.010133 0)
(1.03543 0.00980721 0)
(1.036 0.00951482 0)
(1.03653 0.00924937 0)
(1.03702 0.00900617 0)
(1.03748 0.00878198 0)
(1.03791 0.00857412 0)
(1.03832 0.00838021 0)
(1.0387 0.00819808 0)
(1.03907 0.00802583 0)
(1.03942 0.00786176 0)
(1.03976 0.00770438 0)
(1.04009 0.00755242 0)
(1.0404 0.00740482 0)
(1.04071 0.00726066 0)
(1.04102 0.00711916 0)
(1.04132 0.00697961 0)
(1.04162 0.0068413 0)
(1.04192 0.00670352 0)
(1.04222 0.00656541 0)
(1.04252 0.00642608 0)
(1.04282 0.00628436 0)
(1.04312 0.00613907 0)
(1.04343 0.00598863 0)
(1.04373 0.00583135 0)
(1.04404 0.00566515 0)
(1.04436 0.00548746 0)
(1.04467 0.00529561 0)
(1.04499 0.00508531 0)
(1.04532 0.00485342 0)
(1.04565 0.00459245 0)
(1.04599 0.00429883 0)
(1.04632 0.00396014 0)
(1.04666 0.00357182 0)
(1.047 0.00311602 0)
(1.04732 0.00258605 0)
(1.04763 0.00196133 0)
(1.04792 0.00122961 0)
(1.04817 0.000358598 0)
(1.00058 0.00834463 0)
(1.00917 0.0166256 0)
(1.01837 0.0159758 0)
(1.02328 0.0140317 0)
(1.02524 0.0134884 0)
(1.02673 0.0131318 0)
(1.0283 0.0124445 0)
(1.02967 0.0117509 0)
(1.03072 0.0112192 0)
(1.03159 0.0107885 0)
(1.03235 0.0103996 0)
(1.03304 0.0100445 0)
(1.03366 0.00972555 0)
(1.03423 0.00943882 0)
(1.03475 0.00917819 0)
(1.03524 0.00893908 0)
(1.03569 0.00871834 0)
(1.03611 0.00851343 0)
(1.03651 0.00832204 0)
(1.03688 0.00814206 0)
(1.03724 0.00797162 0)
(1.03759 0.00780901 0)
(1.03792 0.00765278 0)
(1.03824 0.00750166 0)
(1.03855 0.00735459 0)
(1.03885 0.00721069 0)
(1.03915 0.00706919 0)
(1.03944 0.00692942 0)
(1.03974 0.0067907 0)
(1.04003 0.00665232 0)
(1.04032 0.00651347 0)
(1.04061 0.00637325 0)
(1.0409 0.00623055 0)
(1.0412 0.00608414 0)
(1.0415 0.00593249 0)
(1.04179 0.00577388 0)
(1.0421 0.00560626 0)
(1.0424 0.00542701 0)
(1.04271 0.00523351 0)
(1.04302 0.00502152 0)
(1.04334 0.00478775 0)
(1.04366 0.0045252 0)
(1.04398 0.0042297 0)
(1.0443 0.00389018 0)
(1.04462 0.00350087 0)
(1.04494 0.00304636 0)
(1.04524 0.00251843 0)
(1.04552 0.0018983 0)
(1.04578 0.00117269 0)
(1.04599 0.000308042 0)
(1.0005 0.00753823 0)
(1.00813 0.0156009 0)
(1.01672 0.0154633 0)
(1.02162 0.0136923 0)
(1.02365 0.0131591 0)
(1.02512 0.0128775 0)
(1.02665 0.0122699 0)
(1.02801 0.0116093 0)
(1.02907 0.0110909 0)
(1.02993 0.0106744 0)
(1.03069 0.0102993 0)
(1.03137 0.00995422 0)
(1.03199 0.00964245 0)
(1.03255 0.00936156 0)