/*--------------------------------*- C++ -*----------------------------------*\
  =========                 |
  \\      /  F ield         | OpenFOAM: The Open Source CFD Toolbox
   \\    /   O peration     | Website:  https://openfoam.org
    \\  /    A nd           | Version:  7
     \\/     M anipulation  |
\*---------------------------------------------------------------------------*/
FoamFile
{
    version     2.0;
    format      ascii;
    class       volVectorField;
    location    "0.45";
    object      wallShearStress;
}
// * * * * * * * * * * * * * * * * * * * * * * * * * * * * * * * * * * * * * //

dimensions      [0 2 -2 0 0 0 0];

internalField   uniform (0 0 0);

boundaryField
{
    velocityInlet
    {
        type            calculated;
        value           uniform (0 0 0);
    }
    pressureOutlet
    {
        type            calculated;
        value           uniform (0 0 0);
    }
    fixedWalls
    {
        type            calculated;
        value           nonuniform List<vector> 
100
(
(-0.020503 -0.00905083 0)
(0.00672286 -0.00171413 0)
(0.00240049 0.000518655 0)
(0.00217688 0.000179456 0)
(0.000336119 0.00030789 0)
(-0.00111473 0.000218943 0)
(-0.00196307 0.000113323 0)
(-0.00228795 4.06791e-05 0)
(-0.00234284 6.92785e-06 0)
(-0.00229164 -5.28887e-06 0)
(-0.00220989 -7.71807e-06 0)
(-0.00213717 -4.26447e-06 0)
(-0.00209376 3.91169e-07 0)
(-0.0020824 3.26937e-06 0)
(-0.00211575 1.07995e-05 0)
(-0.00220214 1.81074e-05 0)
(-0.00225918 2.03773e-06 0)
(-0.00223799 -1.77297e-05 0)
(-0.00250504 4.33786e-05 0)
(-0.00371518 0.000206948 0)
(-0.00588183 0.00034516 0)
(-0.00793325 0.000333657 0)
(-0.00812863 4.24154e-06 0)
(-0.00481539 -0.000650815 0)
(0.00148003 -0.000995913 0)
(0.00673869 -0.000742319 0)
(0.00823244 -0.000157938 0)
(0.00610926 0.000327125 0)
(0.00219921 0.000483699 0)
(-0.00160941 0.000410779 0)
(-0.00427584 0.000254703 0)
(-0.00566353 0.000121188 0)
(-0.00612583 4.08021e-05 0)
(-0.00607744 -2.36489e-06 0)
(-0.00579806 -2.25972e-05 0)
(-0.00542154 -3.24636e-05 0)
(-0.00499655 -4.02296e-05 0)
(-0.00454555 -4.57727e-05 0)
(-0.00410963 -4.43217e-05 0)
(-0.00374303 -3.45157e-05 0)
(-0.00346634 -2.26704e-05 0)
(-0.00323265 -1.89244e-05 0)
(-0.00295573 -2.8188e-05 0)
(-0.00258622 -4.27372e-05 0)
(-0.00216949 -4.93062e-05 0)
(-0.00181993 -3.95458e-05 0)
(-0.00163823 -1.95011e-05 0)
(-0.00164945 2.37137e-06 0)
(-0.00180271 1.7935e-05 0)
(-0.00201737 2.39088e-05 0)
(-0.00222434 2.23913e-05 0)
(-0.00238415 1.7134e-05 0)
(-0.00248532 1.11992e-05 0)
(-0.00253432 6.5449e-06 0)
(-0.00254266 3.1528e-06 0)
(-0.00251661 5.93009e-08 0)
(-0.0024531 -3.68947e-06 0)
(-0.00234197 -8.9382e-06 0)
(-0.00217513 -1.53256e-05 0)
(-0.00195779 -2.1204e-05 0)
(-0.00171526 -2.43046e-05 0)
(-0.00148988 -2.27277e-05 0)
(-0.00132873 -1.59731e-05 0)
(-0.00126623 -7.22687e-06 0)
(-0.00131266 3.49023e-06 0)
(-0.00145471 1.22697e-05 0)
(-0.00166491 1.83549e-05 0)
(-0.00191277 2.16997e-05 0)
(-0.00216779 2.20335e-05 0)
(-0.00239596 1.83645e-05 0)
(-0.00256337 1.06319e-05 0)
(-0.00265548 1.23897e-06 0)
(-0.00270209 -4.95642e-06 0)
(-0.00278889 -6.39453e-07 0)
(-0.00304106 1.86092e-05 0)
(-0.00355435 4.66313e-05 0)
(-0.00430935 7.01432e-05 0)
(-0.00518257 8.13829e-05 0)
(-0.00602918 8.18092e-05 0)
(-0.00670607 7.09849e-05 0)
(-0.00705975 5.17294e-05 0)
(-0.00695259 1.72051e-05 0)
(-0.00627828 -2.98156e-05 0)
(-0.00494683 -9.45374e-05 0)
(-0.00282722 -0.000197701 0)
(2.2939e-06 -0.000257275 0)
(0.00288212 -0.000272729 0)
(0.00511126 -0.000208059 0)
(0.0061274 -8.82991e-05 0)
(0.00583365 3.25657e-05 0)
(0.00458428 0.000112055 0)
(0.00296677 0.000136725 0)
(0.0013986 0.000122746 0)
(0.00021364 8.85851e-05 0)
(-0.000555611 5.35186e-05 0)
(-0.000993959 2.39928e-05 0)
(-0.00118456 1.08001e-05 0)
(-0.00169324 2.25415e-05 0)
(-0.00190606 3.49003e-05 0)
(-0.00340422 5.58623e-05 0)
)
;
    }
    bottomWall
    {
        type            calculated;
        value           nonuniform List<vector> 
800
(
(-0.0353488 0.00214397 0)
(-0.0160266 0.000524834 0)
(-0.0106077 0.000100717 0)
(-0.00845583 3.52595e-05 0)
(-0.00748611 1.98598e-05 0)
(-0.00685239 1.61205e-05 0)
(-0.00634488 1.33543e-05 0)
(-0.00593371 1.08983e-05 0)
(-0.0055989 9.077e-06 0)
(-0.00532001 7.76108e-06 0)
(-0.00508246 6.76513e-06 0)
(-0.00487679 5.97877e-06 0)
(-0.00469651 5.34178e-06 0)
(-0.00453691 4.81695e-06 0)
(-0.00439439 4.37836e-06 0)
(-0.00426618 4.00714e-06 0)
(-0.00415011 3.68957e-06 0)
(-0.00404443 3.41522e-06 0)
(-0.00394774 3.17608e-06 0)
(-0.00385886 2.96618e-06 0)
(-0.00377686 2.78067e-06 0)
(-0.00370091 2.61564e-06 0)
(-0.00363036 2.4682e-06 0)
(-0.00356461 2.33565e-06 0)
(-0.00350318 2.21589e-06 0)
(-0.00344563 2.10741e-06 0)
(-0.00339161 2.00863e-06 0)
(-0.00334078 1.91831e-06 0)
(-0.00329287 1.83557e-06 0)
(-0.00324763 1.7596e-06 0)
(-0.00320482 1.68954e-06 0)
(-0.00316426 1.62467e-06 0)
(-0.00312578 1.56453e-06 0)
(-0.00308921 1.5088e-06 0)
(-0.0030544 1.45692e-06 0)
(-0.00302125 1.40855e-06 0)
(-0.00298962 1.36332e-06 0)
(-0.00295942 1.32096e-06 0)
(-0.00293055 1.2813e-06 0)
(-0.00290293 1.24396e-06 0)
(-0.00287647 1.20888e-06 0)
(-0.00285111 1.17584e-06 0)
(-0.00282677 1.14474e-06 0)
(-0.00280339 1.11532e-06 0)
(-0.00278093 1.08752e-06 0)
(-0.00275933 1.06097e-06 0)
(-0.00273853 1.03626e-06 0)
(-0.00271851 1.01202e-06 0)
(-0.0026992 9.90331e-07 0)
(-0.0026806 9.67029e-07 0)
(-0.00266504 9.4784e-07 0)
(-0.0026522 9.36991e-07 0)
(-0.00263952 9.23339e-07 0)
(-0.00262703 9.08506e-07 0)
(-0.00261474 8.94668e-07 0)
(-0.00260262 8.81575e-07 0)
(-0.00259069 8.68696e-07 0)
(-0.00257892 8.5622e-07 0)
(-0.00256733 8.43838e-07 0)
(-0.0025559 8.31878e-07 0)
(-0.00254463 8.20165e-07 0)
(-0.00253352 8.08861e-07 0)
(-0.00252256 7.97631e-07 0)
(-0.00251176 7.86638e-07 0)
(-0.00250109 7.76047e-07 0)
(-0.00249058 7.65522e-07 0)
(-0.0024802 7.55229e-07 0)
(-0.00246997 7.45331e-07 0)
(-0.00245986 7.35493e-07 0)
(-0.0024499 7.25882e-07 0)
(-0.00244005 7.16493e-07 0)
(-0.00243034 7.0716e-07 0)
(-0.00242075 6.98214e-07 0)
(-0.00241128 6.89321e-07 0)
(-0.00240194 6.80646e-07 0)
(-0.00239271 6.72187e-07 0)
(-0.00238359 6.63778e-07 0)
(-0.00237459 6.55583e-07 0)
(-0.00236569 6.47768e-07 0)
(-0.0023569 6.39831e-07 0)
(-0.00234822 6.32106e-07 0)
(-0.00233964 6.2459e-07 0)
(-0.00233117 6.16948e-07 0)
(-0.0023228 6.09847e-07 0)
(-0.00231452 6.02786e-07 0)
(-0.00230634 5.95596e-07 0)
(-0.00229826 5.88777e-07 0)
(-0.00229027 5.81993e-07 0)
(-0.00228237 5.75413e-07 0)
(-0.00227456 5.69034e-07 0)
(-0.00226683 5.62521e-07 0)
(-0.00225919 5.56042e-07 0)
(-0.00225165 5.49928e-07 0)
(-0.00224418 5.44012e-07 0)
(-0.00223679 5.37961e-07 0)
(-0.00222949 5.32106e-07 0)
(-0.00222226 5.26448e-07 0)
(-0.00221511 5.20653e-07 0)
(-0.00220804 5.15052e-07 0)
(-0.00220105 5.09645e-07 0)
(-0.00219412 5.04266e-07 0)
(-0.00218727 4.98913e-07 0)
(-0.0021805 4.93754e-07 0)
(-0.00217379 4.88786e-07 0)
(-0.00216715 4.83676e-07 0)
(-0.00216058 4.78591e-07 0)
(-0.00215408 4.73696e-07 0)
(-0.00214765 4.68992e-07 0)
(-0.00214127 4.64309e-07 0)
(-0.00213497 4.59649e-07 0)
(-0.00212872 4.55011e-07 0)
(-0.00212254 4.5056e-07 0)
(-0.00211642 4.4613e-07 0)
(-0.00211036 4.41719e-07 0)
(-0.00210436 4.37495e-07 0)
(-0.00209842 4.33289e-07 0)
(-0.00209253 4.29103e-07 0)
(-0.0020867 4.24934e-07 0)
(-0.00208093 4.20949e-07 0)
(-0.00207521 4.16982e-07 0)
(-0.00206955 4.13031e-07 0)
(-0.00206393 4.09096e-07 0)
(-0.00205838 4.05344e-07 0)
(-0.00205287 4.01607e-07 0)
(-0.00204742 3.97886e-07 0)
(-0.00204201 3.94345e-07 0)
(-0.00203665 3.90653e-07 0)
(-0.00203135 3.86974e-07 0)
(-0.00202609 3.83477e-07 0)
(-0.00202088 3.80161e-07 0)
(-0.00201572 3.76692e-07 0)
(-0.0020106 3.73404e-07 0)
(-0.00200553 3.70129e-07 0)
(-0.0020005 3.66701e-07 0)
(-0.00199552 3.6362e-07 0)
(-0.00199058 3.60384e-07 0)
(-0.00198569 3.57164e-07 0)
(-0.00198084 3.54286e-07 0)
(-0.00197603 3.5126e-07 0)
(-0.00197126 3.48237e-07 0)
(-0.00196653 3.45241e-07 0)
(-0.00196184 3.42236e-07 0)
(-0.00195719 3.39442e-07 0)
(-0.00195258 3.36611e-07 0)
(-0.00194801 3.33864e-07 0)
(-0.00194348 3.31192e-07 0)
(-0.00193898 3.28508e-07 0)
(-0.00193452 3.25636e-07 0)
(-0.0019301 3.23181e-07 0)
(-0.00192571 3.20207e-07 0)
(-0.00192203 3.1764e-07 0)
(-0.00191903 3.16632e-07 0)
(-0.00191601 3.15072e-07 0)
(-0.00191299 3.12944e-07 0)
(-0.00190997 3.11098e-07 0)
(-0.00190694 3.09535e-07 0)
(-0.00190391 3.07744e-07 0)
(-0.00190088 3.05965e-07 0)
(-0.00189784 3.04422e-07 0)
(-0.00189479 3.0266e-07 0)
(-0.00189175 3.00907e-07 0)
(-0.00188869 2.99389e-07 0)
(-0.00188564 2.97648e-07 0)
(-0.00188258 2.9571e-07 0)
(-0.00187952 2.94207e-07 0)
(-0.00187645 2.92721e-07 0)
(-0.00187338 2.90808e-07 0)
(-0.00187031 2.89334e-07 0)
(-0.00186722 2.87656e-07 0)
(-0.00186415 2.85983e-07 0)
(-0.00186106 2.84533e-07 0)
(-0.00185797 2.82673e-07 0)
(-0.00185488 2.81022e-07 0)
(-0.00185178 2.79599e-07 0)
(-0.00184868 2.77966e-07 0)
(-0.00184557 2.76351e-07 0)
(-0.00184246 2.74944e-07 0)
(-0.00183935 2.73344e-07 0)
(-0.00183623 2.71557e-07 0)
(-0.00183312 2.69976e-07 0)
(-0.00183 2.68591e-07 0)
(-0.00182687 2.67033e-07 0)
(-0.00182374 2.65469e-07 0)
(-0.0018206 2.64114e-07 0)
(-0.00181746 2.62384e-07 0)
(-0.00181433 2.60847e-07 0)
(-0.00181118 2.59513e-07 0)
(-0.00180803 2.57811e-07 0)
(-0.00180489 2.56477e-07 0)
(-0.00180173 2.54987e-07 0)
(-0.00179857 2.53299e-07 0)
(-0.00179541 2.52001e-07 0)
(-0.00179224 2.50525e-07 0)
(-0.00178908 2.49055e-07 0)
(-0.00178591 2.47769e-07 0)
(-0.00178273 2.46139e-07 0)
(-0.00177955 2.44697e-07 0)
(-0.00177637 2.43434e-07 0)
(-0.00177318 2.41822e-07 0)
(-0.00177 2.4041e-07 0)
(-0.0017668 2.39156e-07 0)
(-0.0017636 2.37755e-07 0)
(-0.00176041 2.36357e-07 0)
(-0.0017572 2.34963e-07 0)
(-0.001754 2.33587e-07 0)
(-0.00175078 2.32213e-07 0)
(-0.00174757 2.30839e-07 0)
(-0.00174436 2.29654e-07 0)
(-0.00174113 2.2829e-07 0)
(-0.00173791 2.26797e-07 0)
(-0.00173468 2.25625e-07 0)
(-0.00173145 2.24455e-07 0)
(-0.00172821 2.22996e-07 0)
(-0.00172497 2.21682e-07 0)
(-0.00172173 2.20524e-07 0)
(-0.00171848 2.19404e-07 0)
(-0.00171522 2.18105e-07 0)
(-0.00171197 2.16842e-07 0)
(-0.0017087 2.15578e-07 0)
(-0.00170544 2.14329e-07 0)
(-0.00170217 2.13235e-07 0)
(-0.0016989 2.12147e-07 0)
(-0.00169562 2.11078e-07 0)
(-0.00169233 2.09863e-07 0)
(-0.00168904 2.08631e-07 0)
(-0.00168575 2.07623e-07 0)
(-0.00168245 2.0666e-07 0)
(-0.00167913 2.05571e-07 0)
(-0.00167583 2.04438e-07 0)
(-0.0016725 2.03598e-07 0)
(-0.00166918 2.02337e-07 0)
(-0.00166584 2.01788e-07 0)
(-0.00166251 2.00211e-07 0)
(-0.00165915 2.00116e-07 0)
(-0.00165582 1.97915e-07 0)
(-0.00165242 1.99179e-07 0)
(-0.0016491 1.95099e-07 0)
(-0.00164564 1.99295e-07 0)
(-0.00164237 1.90957e-07 0)
(-0.00163878 2.01764e-07 0)
(-0.00163565 1.83438e-07 0)
(-0.00163182 2.095e-07 0)
(-0.00162898 1.6931e-07 0)
(-0.00162467 2.27392e-07 0)
(-0.00162243 1.41396e-07 0)
(-0.00161725 2.64356e-07 0)
(-0.00161605 8.90311e-08 0)
(-0.00160954 3.29915e-07 0)
(-0.00160984 5.5243e-09 0)
(-0.0016016 3.6312e-07 0)
(-0.0353488 -0.00214397 0)
(-0.0160266 -0.000524828 0)
(-0.0106081 -0.000100705 0)
(-0.0084566 -3.52477e-05 0)
(-0.00748732 -1.98462e-05 0)
(-0.00685418 -1.61052e-05 0)
(-0.00634723 -1.33385e-05 0)
(-0.00593664 -1.08818e-05 0)
(-0.00560243 -9.05954e-06 0)
(-0.00532416 -7.74232e-06 0)
(-0.00508728 -6.74447e-06 0)
(-0.00488235 -5.9557e-06 0)
(-0.00470288 -5.31593e-06 0)
(-0.00454417 -4.78805e-06 0)
(-0.00440262 -4.34615e-06 0)
(-0.00427548 -3.97167e-06 0)
(-0.00416053 -3.65082e-06 0)
(-0.00405606 -3.37291e-06 0)
(-0.00396064 -3.13017e-06 0)
(-0.00387313 -2.9163e-06 0)
(-0.00379258 -2.72642e-06 0)
(-0.00371817 -2.55657e-06 0)
(-0.00364926 -2.40347e-06 0)
(-0.00358527 -2.26461e-06 0)
(-0.00352573 -2.13776e-06 0)
(-0.00347023 -2.02107e-06 0)
(-0.00341842 -1.91287e-06 0)
(-0.00337 -1.81185e-06 0)
(-0.00332471 -1.71661e-06 0)
(-0.00328234 -1.62621e-06 0)
(-0.0032427 -1.53927e-06 0)
(-0.00320564 -1.45503e-06 0)
(-0.00317104 -1.37191e-06 0)
(-0.00313881 -1.28965e-06 0)
(-0.00310884 -1.20608e-06 0)
(-0.00308114 -1.1207e-06 0)
(-0.00305561 -1.03153e-06 0)
(-0.00303244 -9.36106e-07 0)
(-0.00301131 -8.36489e-07 0)
(-0.002993 -7.18032e-07 0)
(-0.0029764 -6.05029e-07 0)
(-0.00296389 -4.36626e-07 0)
(-0.00295194 -3.18585e-07 0)
(-0.00294721 -3.66541e-08 0)
(-0.00293993 4.57035e-08 0)
(-0.00294672 6.01114e-07 0)
(-0.00294428 3.78421e-07 0)
(-0.00296596 2.06626e-06 0)
(-0.00298623 -5.78617e-06 0)
(-0.00276295 0.000206751 0)
(7.84172e-05 5.36552e-07 0)
(0.000184963 -0.000244104 0)
(0.000175184 -0.000565005 0)
(6.9312e-05 -0.000806946 0)
(-0.000116521 -0.000867073 0)
(-0.000281433 -0.000656281 0)
(-0.000214748 -0.000238218 0)
(4.32079e-05 -2.88121e-05 0)
(0.000250572 -0.000133774 0)
(3.28815e-05 -0.00022704 0)
(-0.000618062 0.000364973 0)
(-0.000741728 0.00135393 0)
(-0.000486401 0.00193674 0)
(-0.000260176 0.00222685 0)
(-5.98447e-05 0.00228068 0)
(8.29634e-05 0.00217346 0)
(0.000177381 0.00196254 0)
(0.000234383 0.00168391 0)
(0.000258857 0.00137292 0)
(0.000264275 0.00105679 0)
(0.000256552 0.000748371 0)
(0.0002401 0.000458363 0)
(0.000219546 0.000190333 0)
(0.000198991 -5.18978e-05 0)
(0.000180551 -0.000271021 0)
(0.000163027 -0.000469903 0)
(0.000146495 -0.000647523 0)
(0.00013172 -0.000808595 0)
(0.000118488 -0.000955269 0)
(0.000106517 -0.00108837 0)
(9.55822e-05 -0.00120923 0)
(8.54683e-05 -0.00131897 0)
(7.59819e-05 -0.00141846 0)
(6.6964e-05 -0.0015084 0)
(5.82732e-05 -0.00158938 0)
(4.97941e-05 -0.0016618 0)
(4.143e-05 -0.00172603 0)
(3.30995e-05 -0.00178231 0)
(2.47518e-05 -0.00183082 0)
(1.63493e-05 -0.00187172 0)
(7.87501e-06 -0.00190508 0)
(-6.57663e-07 -0.001931 0)
(-9.25117e-06 -0.00194955 0)
(-1.78362e-05 -0.00196076 0)
(-2.64946e-05 -0.00196489 0)
(-3.52787e-05 -0.00196167 0)
(-4.38278e-05 -0.0019514 0)
(-5.19616e-05 -0.00193442 0)
(-5.95657e-05 -0.00191109 0)
(-6.6597e-05 -0.00188187 0)
(-7.30867e-05 -0.00184721 0)
(-7.91083e-05 -0.00180755 0)
(-8.4778e-05 -0.00176336 0)
(-9.02368e-05 -0.00171497 0)
(-9.56585e-05 -0.00166273 0)
(-0.00010126 -0.00160684 0)
(-0.000107286 -0.00154744 0)
(-0.000114032 -0.00148455 0)
(-0.000121826 -0.001418 0)
(-0.000131026 -0.00134754 0)
(-0.00014208 -0.00127268 0)
(-0.000155418 -0.00119278 0)
(-0.000171642 -0.00110709 0)
(-0.000191448 -0.0010142 0)
(-0.000215288 -0.00091405 0)
(-0.000245447 -0.000804022 0)
(-0.000280091 -0.000683177 0)
(-0.00032963 -0.000558804 0)
(-0.000414869 -0.000392494 0)
(-0.000450904 -0.000135093 0)
(-0.000296327 0.00014689 0)
(-3.1571e-05 0.000317096 0)
(0.000203136 0.000372618 0)
(0.000380159 0.000368095 0)
(0.000474089 0.000316774 0)
(0.000476153 0.000242416 0)
(0.000390094 0.000169949 0)
(0.00023042 0.000125006 0)
(4.64381e-05 0.000134283 0)
(-8.25733e-05 0.000188059 0)
(-0.00011818 0.000225949 0)
(-0.000109966 0.000209316 0)
(-0.000115032 0.000167477 0)
(-0.000125493 0.000149847 0)
(-0.000105605 0.000162971 0)
(-4.65491e-05 0.000176814 0)
(2.48257e-05 0.000164994 0)
(7.40761e-05 0.000129229 0)
(8.99706e-05 9.10243e-05 0)
(8.2023e-05 6.66589e-05 0)
(6.68978e-05 5.50343e-05 0)
(5.19513e-05 4.6737e-05 0)
(3.72111e-05 3.76253e-05 0)
(2.24539e-05 2.94911e-05 0)
(9.28758e-06 2.45582e-05 0)
(-8.42686e-08 2.31979e-05 0)
(-4.39905e-06 2.39095e-05 0)
(-3.8841e-06 2.44544e-05 0)
(7.05918e-08 2.29383e-05 0)
(5.42513e-06 1.82355e-05 0)
(9.95616e-06 1.04177e-05 0)
(1.18778e-05 8.2457e-07 0)
(1.0577e-05 -8.42517e-06 0)
(6.73958e-06 -1.53964e-05 0)
(1.85999e-06 -1.91582e-05 0)
(-2.39323e-06 -1.98049e-05 0)
(-4.64627e-06 -1.83379e-05 0)
(-4.10252e-06 -1.62655e-05 0)
(-7.22961e-07 -1.50609e-05 0)
(5.17827e-06 -1.56184e-05 0)
(1.29593e-05 -1.82264e-05 0)
(2.12803e-05 -2.21789e-05 0)
(2.77975e-05 -2.4546e-05 0)
(3.15012e-05 -1.95534e-05 0)
(3.53343e-05 -3.36013e-06 0)
(4.04596e-05 1.85251e-05 0)
(3.70911e-05 3.61789e-05 0)
(7.01369e-06 4.83954e-05 0)
(-6.28911e-05 7.09719e-05 0)
(-0.000163896 0.000131811 0)
(-0.000260991 0.000244057 0)
(-0.000322272 0.000383338 0)
(-0.000351491 0.000515059 0)
(-0.000369796 0.000633252 0)
(-0.000383828 0.000749503 0)
(-0.000388672 0.0008667 0)
(-0.000381229 0.000979272 0)
(-0.000362179 0.00108212 0)
(-0.000333719 0.00117251 0)
(-0.000298323 0.00124916 0)
(-0.000258232 0.0013117 0)
(-0.00021532 0.00136022 0)
(-0.000171143 0.00139509 0)
(-0.000126857 0.00141697 0)
(-8.3048e-05 0.0014267 0)
(-4.00816e-05 0.00142481 0)
(1.62358e-06 0.00141205 0)
(4.21889e-05 0.00138918 0)
(8.18196e-05 0.00135658 0)
(0.000120535 0.00131465 0)
(0.000158352 0.00126374 0)
(0.000195222 0.00120424 0)
(0.000231042 0.00113651 0)
(0.000265668 0.00106095 0)
(0.000298871 0.000977802 0)
(0.00033158 0.000891504 0)
(0.000362892 0.000799363 0)
(0.000392689 0.0007012 0)
(0.000420517 0.000596929 0)
(0.000445737 0.000486565 0)
(0.000467458 0.000370449 0)
(0.000484605 0.000249545 0)
(0.000496171 0.000125646 0)
(0.000501524 1.20283e-06 0)
(0.000500989 -0.000121229 0)
(0.000495016 -0.000240164 0)
(0.000490375 -0.000358688 0)
(0.000482433 -0.000474823 0)
(0.000470444 -0.000587219 0)
(0.000454636 -0.000695178 0)
(0.000435217 -0.000798227 0)
(0.000412456 -0.000895692 0)
(0.000386706 -0.000987068 0)
(0.000358262 -0.00107202 0)
(0.000327394 -0.00115023 0)
(0.000294351 -0.00122145 0)
(0.000259376 -0.00128548 0)
(0.000222698 -0.00134222 0)
(0.000184521 -0.00139158 0)
(0.000145015 -0.00143355 0)
(0.000104321 -0.00146812 0)
(6.26276e-05 -0.00149533 0)
(2.00013e-05 -0.00151523 0)
(-2.30601e-05 -0.00152782 0)
(-6.71274e-05 -0.00153344 0)
(-0.000112538 -0.00153123 0)
(-0.000158189 -0.00152126 0)
(-0.00020367 -0.00150369 0)
(-0.000249196 -0.00148182 0)
(-0.000293908 -0.00145225 0)
(-0.000337246 -0.0014146 0)
(-0.000378649 -0.00136915 0)
(-0.000417517 -0.00131615 0)
(-0.000453166 -0.0012559 0)
(-0.000484887 -0.00118883 0)
(-0.000511921 -0.00111539 0)
(-0.000533462 -0.00103619 0)
(-0.00054869 -0.000951931 0)
(-0.000556765 -0.000863464 0)
(-0.00055701 -0.000771689 0)
(-0.000548798 -0.000677406 0)
(-0.000532649 -0.000583217 0)
(-0.000506307 -0.0004895 0)
(-0.000470044 -0.000401653 0)
(-0.000426633 -0.000330944 0)
(-0.000384769 -0.000298164 0)
(-0.000365071 -0.000335962 0)
(-0.000408367 -0.00048556 0)
(-0.000567324 -0.00077594 0)
(-0.0008529 -0.001175 0)
(1.11557e-06 -5.82917e-05 0)
(0.000114148 -0.000130632 0)
(0.000270661 -0.000189014 0)
(0.000442575 -0.00020071 0)
(0.000589636 -0.000173112 0)
(0.000687325 -0.000118589 0)
(0.000731105 -5.80395e-05 0)
(0.000725324 -3.22998e-06 0)
(0.00068498 3.91896e-05 0)
(0.000627533 7.33953e-05 0)
(0.000564032 0.000103582 0)
(0.000495098 0.000121665 0)
(0.000421984 0.000112732 0)
(0.000358258 7.84311e-05 0)
(0.000319091 3.66763e-05 0)
(0.000309733 7.07435e-06 0)
(0.000310024 4.0891e-06 0)
(0.000287532 3.09345e-05 0)
(0.000221862 7.31556e-05 0)
(0.000114982 0.000101726 0)
(3.84398e-07 9.12574e-05 0)
(-7.82175e-05 5.30782e-05 0)
(-0.000107565 1.18403e-05 0)
(-0.000101199 -1.43062e-05 0)
(-7.58059e-05 -2.17157e-05 0)
(-4.93797e-05 -1.58414e-05 0)
(-3.30063e-05 -1.02232e-05 0)
(-2.56438e-05 -1.27479e-05 0)
(-2.46506e-05 -1.24972e-05 0)
(-3.06925e-05 8.80593e-07 0)
(-3.56665e-05 2.55223e-05 0)
(-3.35405e-05 6.1159e-05 0)
(-3.25723e-05 9.29529e-05 0)
(-3.74604e-05 8.85293e-05 0)
(-1.86896e-05 3.53607e-05 0)
(5.157e-05 -4.44232e-05 0)
(0.00016901 -0.000107759 0)
(0.000301008 -0.000129445 0)
(0.000417526 -0.000132964 0)
(0.000519957 -0.000143678 0)
(0.000613107 -0.000141966 0)
(0.000679794 -0.000112316 0)
(0.000701915 -6.30991e-05 0)
(0.000675939 -5.41165e-06 0)
(0.000603483 5.25811e-05 0)
(0.000490502 0.000105392 0)
(0.000341368 0.000152327 0)
(0.000157814 0.000190599 0)
(-4.78328e-05 0.000222278 0)
(-0.000273547 0.000248822 0)
(-0.000515856 0.000269232 0)
(-0.000768298 0.000279968 0)
(-0.00102356 0.000279736 0)
(-0.0012731 0.00026613 0)
(-0.00150603 0.000237706 0)
(-0.0017106 0.000193518 0)
(-0.00187434 0.000133889 0)
(-0.00198578 6.12166e-05 0)
(-0.00203661 -2.14258e-05 0)
(-0.00202005 -0.000109126 0)
(-0.00194113 -0.000196345 0)
(-0.00179625 -0.000273147 0)
(-0.00159016 -0.000329059 0)
(-0.00134165 -0.000358574 0)
(-0.00107253 -0.000360982 0)
(-0.000804387 -0.00034038 0)
(-0.000554835 -0.000304241 0)
(-0.000335196 -0.000261428 0)
(-0.000148567 -0.000220242 0)
(1.35063e-05 -0.000188095 0)
(0.000172131 -0.000166742 0)
(0.000324144 -0.000148797 0)
(0.000433355 -0.000136749 0)
(0.000524685 -0.000142104 0)
(0.000652406 -0.000150627 0)
(0.000821605 -0.000106852 0)
(0.000919772 1.99279e-05 0)
(0.000868319 0.000138174 0)
(0.000724051 0.000171848 0)
(0.000599796 0.000144241 0)
(0.000531705 8.9633e-05 0)
(0.000528672 1.18303e-05 0)
(0.000585498 -8.4446e-05 0)
(0.000685808 -0.000137275 0)
(0.00077566 -0.000119011 0)
(0.00082422 -7.61633e-05 0)
(0.000840335 -3.8485e-05 0)
(0.000827984 2.71548e-06 0)
(0.000780758 4.62413e-05 0)
(0.000702584 8.2573e-05 0)
(0.000601004 0.000108226 0)
(0.000487147 0.00012011 0)
(0.000373782 0.000119078 0)
(0.000268503 0.000109773 0)
(0.000175615 9.49832e-05 0)
(9.72416e-05 7.83548e-05 0)
(3.07573e-05 5.98882e-05 0)
(-2.1727e-05 3.38382e-05 0)
(-4.78425e-05 -6.22618e-06 0)
(-1.21069e-05 -4.14582e-05 0)
(-4.80731e-05 -1.79462e-05 0)
(-3.93536e-05 -6.7131e-05 0)
(-2.58865e-05 -8.4424e-05 0)
(-2.14189e-05 -9.24114e-05 0)
(-3.5785e-05 -0.000126455 0)
(-6.33318e-05 -0.000208915 0)
(-8.65888e-05 -0.000332536 0)
(-9.84745e-05 -0.000474736 0)
(-0.000102725 -0.000621238 0)
(-0.000106101 -0.000767289 0)
(-0.000112124 -0.000916274 0)
(-0.000119015 -0.00107242 0)
(-0.000122932 -0.00123498 0)
(-0.000120895 -0.00139879 0)
(-0.000110705 -0.00155639 0)
(-8.99436e-05 -0.00169852 0)
(-5.56778e-05 -0.00181339 0)
(-5.95994e-06 -0.00188658 0)
(6.0974e-05 -0.00190369 0)
(0.000143027 -0.00184713 0)
(0.000235882 -0.00170634 0)
(0.000333127 -0.00147332 0)
(0.000423793 -0.0011437 0)
(0.000487075 -0.000724633 0)
(0.000491222 -0.00024343 0)
(0.000402547 0.000257102 0)
(0.000220753 0.000732644 0)
(4.96951e-05 0.00101013 0)
(2.5673e-05 0.00101494 0)
(4.4253e-05 0.000961294 0)
(-3.09848e-06 0.000953644 0)
(-0.000108004 0.000871585 0)
(-0.000218719 0.000678238 0)
(-0.000287302 0.000387872 0)
(-0.000259614 9.26524e-05 0)
(-0.000189683 -0.000113958 0)
(-9.96847e-05 -0.000210037 0)
(-2.86513e-05 -0.000180764 0)
(5.08345e-06 -0.000104749 0)
(5.5019e-05 -5.14302e-05 0)
(0.000136972 1.96886e-06 0)
(0.000175781 1.15448e-05 0)
(0.000187165 -2.3202e-05 0)
(0.000163346 -1.16581e-06 0)
(-5.44362e-05 4.8559e-05 0)
(-0.000354706 -2.7406e-05 0)
(-0.000522964 -0.000194557 0)
(-0.00056161 -0.00036813 0)
(-0.000502391 -0.000522606 0)
(-0.000365557 -0.000608081 0)
(-0.000200438 -0.000578418 0)
(-6.98709e-05 -0.000423827 0)
(-2.51158e-05 -0.000188954 0)
(-3.37785e-05 3.91932e-05 0)
(3.06365e-05 0.000235414 0)
(0.000292762 0.000465979 0)
(0.000734914 0.000851129 0)
(0.00108544 0.00149591 0)
(0.000934773 0.00215959 0)
(0.000521438 0.00247038 0)
(0.000396918 0.00255694 0)
(0.000442068 0.00273937 0)
(0.000343807 0.00293984 0)
(0.000226891 0.00300959 0)
(0.000185083 0.00302359 0)
(0.000105515 0.00300806 0)
(2.59337e-06 0.00291146 0)
(-5.96422e-05 0.0027607 0)
(-0.000113516 0.00260374 0)
(-0.000185972 0.00243131 0)
(-0.000252295 0.00223471 0)
(-0.00030245 0.00209767 0)
(-0.000370998 0.00211852 0)
(-0.000472817 0.00225536 0)
(-0.000569639 0.00243427 0)
(-0.000549943 0.00258291 0)
(-0.000264772 0.00268009 0)
(0.000434451 0.0028079 0)
(0.00153552 0.00326689 0)
(0.0024155 0.00442874 0)
(0.00202355 0.00585393 0)
(0.000629692 0.00632953 0)
(-0.00012477 0.00580458 0)
(9.43276e-05 0.0054833 0)
(0.000186445 0.00568616 0)
(-0.000145821 0.00571698 0)
(-0.000293073 0.00543326 0)
(-0.000159881 0.00526651 0)
(-0.000122615 0.00527135 0)
(-0.000212642 0.00519952 0)
(-0.000224 0.00504541 0)
(-0.000164707 0.00495178 0)
(-0.000152762 0.00490821 0)
(-0.000174663 0.00483419 0)
(-0.000167435 0.00474221 0)
(-0.000145124 0.00467543 0)
(-0.000141373 0.00462209 0)
(-0.000145585 0.00455845 0)
(-0.000140407 0.00449237 0)
(-0.000132938 0.00443555 0)
(-0.000131746 0.00438225 0)
(-0.000132282 0.00432616 0)
(-0.000130347 0.00427047 0)
(-0.000128529 0.00421786 0)
(-0.000128672 0.00416619 0)
(-0.000129276 0.00411401 0)
(-0.000129531 0.00406229 0)
(-0.000130204 0.00401146 0)
(-0.000131598 0.00396082 0)
(-0.000133314 0.00391007 0)
(-0.000135243 0.00385941 0)
(-0.000137584 0.00380882 0)
(-0.000140365 0.00375808 0)
(-0.000143484 0.0037071 0)
(-0.000146937 0.00365589 0)
(-0.00015075 0.0036044 0)
(-0.000154913 0.00355259 0)
(-0.000159392 0.00350043 0)
(-0.000164177 0.00344796 0)
(-0.000169276 0.00339518 0)
(-0.000174665 0.00334213 0)
(-0.00018034 0.00328888 0)
(-0.0001863 0.00323551 0)
(-0.000192546 0.00318209 0)
(-0.000199043 0.00312871 0)
(-0.000205754 0.00307551 0)
(-0.000212602 0.00302259 0)
(-0.000219425 0.0029701 0)
(-0.000225996 0.00291824 0)
(-0.000231984 0.00286727 0)
(-0.000236935 0.00281753 0)
(-0.000240374 0.00277036 0)
(-0.000241679 0.00272907 0)
(-0.000239443 0.00269156 0)
(-0.000232503 0.00265884 0)
(-0.000219381 0.00263162 0)
(-0.000197729 0.00261033 0)
(-0.000164743 0.00259492 0)
(-0.000116837 0.00258473 0)
(-4.91184e-05 0.0025808 0)
(4.18642e-05 0.00258732 0)
(0.000156407 0.00261018 0)
(0.000289944 0.00265825 0)
(0.000430318 0.00274141 0)
(0.000559703 0.00286221 0)
(0.000664272 0.00300695 0)
(0.000745309 0.00314901 0)
(0.000821279 0.00327441 0)
(0.000909615 0.0033921 0)
(0.00100667 0.00353091 0)
(0.00108686 0.00371494 0)
(0.00112198 0.00394052 0)
(0.00109883 0.00417789 0)
(0.00102361 0.0043984 0)
(0.00091249 0.00458418 0)
(0.000782874 0.00472797 0)
(0.00064842 0.00483076 0)
(0.000516565 0.00489866 0)
(0.000388699 0.00493784 0)
(0.000262887 0.00495684 0)
(0.000138976 0.00497933 0)
(1.80886e-05 0.00498089 0)
(-9.66616e-05 0.00496342 0)
(-0.000207257 0.00493126 0)
(-0.000317363 0.00488455 0)
(-0.00042624 0.00482183 0)
(-0.0005332 0.00474377 0)
(-0.000638675 0.00465156 0)
(-0.000743001 0.00454547 0)
(-0.000846256 0.00442587 0)
(-0.000948752 0.00429356 0)
(-0.00105093 0.00414905 0)
(-0.00115318 0.00399277 0)
(-0.00125594 0.00382511 0)
(-0.00135968 0.0036465 0)
(-0.00146494 0.00345725 0)
(-0.00157226 0.00325756 0)
(-0.00168218 0.00304763 0)
(-0.00179531 0.00282762 0)
(-0.00191236 0.00259756 0)
(-0.0020339 0.00235747 0)
(-0.00216024 0.00210739 0)
(-0.00229258 0.00184736 0)
(-0.00243298 0.00157571 0)
(-0.00263921 0.00131963 0)
(-0.00288634 0.00104947 0)
(-0.00314531 0.00075022 0)
(-0.00340815 0.000421436 0)
(-0.00366655 6.49125e-05 0)
(-0.00390842 -0.000312181 0)
(-0.00413036 -0.000698356 0)
(-0.00433999 -0.00108507 0)
(-0.00454442 -0.00147297 0)
(-0.00475378 -0.00183996 0)
(-0.00498136 -0.00225072 0)
(-0.00521653 -0.00256826 0)
(-0.00561628 -0.00314777 0)
(-0.00596726 -0.00336642 0)
(-0.00648195 -0.00433737 0)
(-0.00641015 -0.00386325 0)
)
;
    }
    frontAndBack
    {
        type            empty;
    }
}


// ************************************************************************* //
