/*--------------------------------*- C++ -*----------------------------------*\
  =========                 |
  \\      /  F ield         | OpenFOAM: The Open Source CFD Toolbox
   \\    /   O peration     | Website:  https://openfoam.org
    \\  /    A nd           | Version:  7
     \\/     M anipulation  |
\*---------------------------------------------------------------------------*/
FoamFile
{
    version     2.0;
    format      ascii;
    class       volScalarField;
    location    "0.45";
    object      yPlus;
}
// * * * * * * * * * * * * * * * * * * * * * * * * * * * * * * * * * * * * * //

dimensions      [0 0 0 0 0 0 0];

internalField   uniform 0;

boundaryField
{
    velocityInlet
    {
        type            calculated;
        value           uniform 0;
    }
    pressureOutlet
    {
        type            calculated;
        value           uniform 0;
    }
    fixedWalls
    {
        type            calculated;
        value           nonuniform List<scalar> 
100
(
2.38223
1.2534
0.763983
0.732234
0.298477
0.522925
0.693326
0.748798
0.757964
0.749753
0.736319
0.724131
0.716727
0.714791
0.720535
0.734991
0.744237
0.740955
0.784657
0.955809
1.20209
1.39499
1.41032
1.0847
0.618466
1.28542
1.41921
1.22286
0.735397
0.629123
1.02374
1.17841
1.22573
1.22096
1.19261
1.15325
1.10713
1.056
1.00413
0.958333
0.922229
0.890543
0.85148
0.796468
0.729551
0.668292
0.63411
0.636269
0.665115
0.70354
0.738712
0.764774
0.780832
0.788499
0.789799
0.785742
0.775758
0.757972
0.730466
0.693013
0.648686
0.6046
0.570993
0.557419
0.567549
0.597451
0.639141
0.68505
0.729268
0.766665
0.792977
0.807095
0.814173
0.827206
0.863852
0.933922
1.0283
1.12764
1.21623
1.28267
1.31603
1.30596
1.24095
1.10137
0.832553
0.159803
0.841294
1.11969
1.22577
1.19603
1.06034
0.85317
0.586073
0.231137
0.369073
0.493647
0.539069
0.644547
0.6839
0.913957
)
;
    }
    bottomWall
    {
        type            calculated;
        value           nonuniform List<scalar> 
800
(
2.94479
1.98391
1.61344
1.44034
1.35521
1.29658
1.24765
1.20654
1.17201
1.14245
1.11665
1.09382
1.07341
1.05502
1.03831
1.02305
1.00904
0.996112
0.984132
0.972991
0.962597
0.95287
0.943744
0.935158
0.927065
0.91942
0.912183
0.905322
0.898808
0.892611
0.886709
0.88108
0.875705
0.870568
0.86565
0.860939
0.856421
0.852085
0.847918
0.843912
0.840058
0.836346
0.832768
0.829318
0.825989
0.822775
0.819668
0.816667
0.813761
0.810952
0.808596
0.806645
0.804714
0.802807
0.800927
0.799069
0.797235
0.795423
0.793633
0.791864
0.790117
0.78839
0.786683
0.784997
0.783329
0.78168
0.780051
0.77844
0.776845
0.77527
0.773711
0.77217
0.770645
0.769136
0.767644
0.766167
0.764706
0.763261
0.76183
0.760413
0.759013
0.757625
0.756252
0.754893
0.753546
0.752213
0.750894
0.749587
0.748294
0.747012
0.745742
0.744485
0.74324
0.742007
0.740784
0.739574
0.738374
0.737185
0.736008
0.734841
0.733685
0.732539
0.731404
0.730277
0.729161
0.728055
0.726959
0.725873
0.724795
0.723727
0.722668
0.721618
0.720576
0.719544
0.71852
0.717505
0.716498
0.715499
0.714509
0.713526
0.712552
0.711585
0.710627
0.709675
0.708732
0.707796
0.706867
0.705946
0.705032
0.704125
0.703225
0.702332
0.701445
0.700566
0.699693
0.698826
0.697967
0.697114
0.696266
0.695426
0.694591
0.693763
0.69294
0.692124
0.691313
0.690508
0.689708
0.688915
0.688127
0.687345
0.686688
0.686151
0.685611
0.68507
0.684529
0.683987
0.683443
0.682898
0.682352
0.681804
0.681256
0.680707
0.680155
0.679603
0.679051
0.678496
0.677941
0.677385
0.676826
0.676268
0.675708
0.675146
0.674585
0.674021
0.673457
0.672891
0.672324
0.671755
0.671186
0.670617
0.670045
0.669472
0.668899
0.668324
0.667747
0.667171
0.666592
0.666012
0.665432
0.66485
0.664267
0.663684
0.663098
0.662512
0.661924
0.661335
0.660746
0.660154
0.659562
0.658969
0.658375
0.657779
0.657182
0.656583
0.655984
0.655383
0.654782
0.654179
0.653574
0.652969
0.652363
0.651754
0.651144
0.650534
0.649922
0.649309
0.648693
0.648077
0.64746
0.646841
0.646221
0.645599
0.644975
0.644349
0.643723
0.643095
0.642465
0.641832
0.6412
0.640563
0.639927
0.639287
0.638647
0.638002
0.637361
0.636707
0.636067
0.635399
0.634768
0.634074
0.633468
0.632725
0.632175
0.631337
0.630901
0.629895
0.62966
0.628391
0.628449
0.626838
2.94479
1.98391
1.61347
1.4404
1.35532
1.29675
1.24788
1.20684
1.17238
1.14289
1.11718
1.09444
1.07414
1.05586
1.03929
1.02417
1.01031
0.997542
0.985739
0.974789
0.964598
0.955089
0.946197
0.937865
0.930045
0.922696
0.915781
0.909272
0.903142
0.897369
0.891934
0.886823
0.882023
0.877529
0.87333
0.869431
0.865821
0.862532
0.859523
0.856905
0.854525
0.852727
0.851007
0.850325
0.849275
0.850254
0.849903
0.85302
0.856383
0.822662
0.623669
1.63612
2.3624
2.78592
2.88786
2.58587
1.72764
1.00738
1.52853
1.23267
2.36803
3.74835
4.36064
4.67088
4.73204
4.63062
4.41065
4.0955
3.7073
3.262
2.7582
2.18203
1.48218
1.00914
1.66912
2.17063
2.54316
2.84075
3.08752
3.29579
3.47422
3.62869
3.76326
3.8809
3.98382
4.07366
4.15169
4.21885
4.27589
4.32339
4.36176
4.39134
4.4124
4.42508
4.42973
4.42613
4.41469
4.39567
4.36935
4.33609
4.2962
4.25003
4.19789
4.13996
4.07638
4.00715
3.93212
3.85096
3.76305
3.66757
3.56327
3.44843
3.32087
3.17732
3.01516
2.82878
2.6114
2.36649
2.08992
1.74848
1.20204
1.32868
1.76239
2.03174
2.138
2.10413
1.95404
1.7252
1.58073
1.61923
1.62623
1.53393
1.41084
1.31606
1.23158
1.15079
1.10476
1.06735
1.01852
0.964099
0.905578
0.832633
0.741973
0.648699
0.573233
0.528924
0.506399
0.484574
0.448191
0.387092
0.29408
0.202734
0.283748
0.361219
0.404626
0.422336
0.423848
0.420311
0.426441
0.456462
0.514272
0.585856
0.647176
0.675783
0.681084
0.735101
0.853012
1.00315
1.22478
1.52873
1.84784
2.13268
2.382
2.60695
2.81102
2.99342
3.15351
3.29155
3.4084
3.50507
3.58264
3.64222
3.68497
3.712
3.72412
3.72154
3.70481
3.67454
3.63091
3.57411
3.50414
3.4209
3.32411
3.21339
3.08818
2.95431
2.80593
2.64117
2.45826
2.25572
2.03497
1.80772
1.61535
1.54536
1.64343
1.83477
2.05772
2.27471
2.47587
2.65975
2.82669
2.97762
3.11354
3.2354
3.34402
3.44017
3.52447
3.5975
3.65978
3.71176
3.75383
3.78633
3.80962
3.82388
3.82988
3.82678
3.8145
3.79324
3.7676
3.73335
3.68974
3.63687
3.57484
3.50371
3.42365
3.33477
3.23726
3.13127
3.01701
2.89466
2.76433
2.62946
2.48585
2.33339
2.17369
2.01263
1.86536
1.7721
1.84977
2.25001
0.551984
1.55992
2.21306
2.72159
3.0891
3.31165
3.4101
3.39916
3.30599
3.16449
3.0095
2.84906
2.66598
2.47453
2.3292
2.27166
2.24068
2.12689
1.8596
1.39597
0.814077
1.07284
1.26366
1.25952
1.12087
0.914873
0.720846
0.630927
0.687463
0.809817
0.944791
1.06893
1.17085
1.13512
0.848362
1.14056
1.76746
2.25922
2.6422
2.94373
3.17142
3.31096
3.34596
3.27332
3.08858
2.78384
2.32836
1.64969
1.3656
2.22318
2.95546
3.56846
4.097
4.55411
4.94182
5.2577
5.49663
5.65275
5.72218
5.69937
5.59152
5.38901
5.08608
4.69216
4.22018
3.68486
3.09914
2.46975
1.78999
1.21377
1.70284
2.302
2.67566
2.9458
3.2477
3.58401
3.78097
3.72319
3.4536
3.17249
3.00876
3.02552
3.17448
3.37637
3.53941
3.63783
3.67382
3.64251
3.53674
3.36049
3.11743
2.81995
2.48545
2.12409
1.74026
1.33255
0.869683
0.534621
0.777352
0.551364
0.622968
0.833398
0.913885
0.962368
1.14146
1.46721
1.8392
2.18743
2.49752
2.77454
3.03166
3.27864
3.5162
3.73943
3.94134
4.11374
4.24644
4.32682
4.34222
4.27423
4.10763
3.82208
3.38743
2.7626
1.90556
1.66809
2.59937
3.14221
3.20477
3.1088
3.05894
2.90157
2.56613
2.01025
1.2765
1.17396
1.42227
1.30939
0.942125
0.51541
1.01802
1.20644
1.25367
1.19581
0.876549
1.65281
2.07011
2.29627
2.4382
2.47351
2.35215
2.02619
1.46224
1.11094
1.78978
2.53843
3.3469
4.09569
4.58386
4.86347
5.05838
5.24118
5.38574
5.46449
5.4871
5.45441
5.36547
5.23111
5.06773
4.87758
4.66067
4.49746
4.50976
4.68111
4.94308
5.21819
5.48946
5.82611
6.34041
6.96773
7.39235
7.53229
7.51705
7.4844
7.49287
7.45284
7.36858
7.29865
7.24784
7.18515
7.11483
7.05502
7.0029
6.94853
6.8942
6.84479
6.79831
6.75185
6.70626
6.66266
6.62018
6.57799
6.53634
6.49536
6.45472
6.41419
6.37378
6.33342
6.293
6.2524
6.21156
6.17043
6.12891
6.08694
6.04448
6.00147
5.95788
5.91368
5.86886
5.82343
5.77741
5.73082
5.68373
5.6362
5.58831
5.54019
5.49199
5.44389
5.39618
5.34917
5.30334
5.2602
5.22325
5.19079
5.1641
5.1445
5.13342
5.13246
5.14268
5.1648
5.20077
5.25244
5.32049
5.40446
5.50263
5.61151
5.72603
5.84589
5.96809
6.08968
6.21097
6.33276
6.45134
6.56384
6.66665
6.75549
6.82641
6.87694
6.90663
6.92087
6.93738
6.93968
6.92944
6.90866
6.87678
6.8337
6.77965
6.71473
6.63906
6.55273
6.45581
6.3483
6.23022
6.10151
5.96212
5.81204
5.65128
5.48007
5.29894
5.10898
4.91224
4.7126
4.51701
4.33598
4.23228
4.19877
4.23663
4.35664
4.55321
4.81005
5.10424
5.41618
5.73442
6.05251
6.37951
6.6953
7.11644
7.49023
7.99411
8.24447
)
;
    }
    frontAndBack
    {
        type            empty;
    }
}


// ************************************************************************* //
