/*--------------------------------*- C++ -*----------------------------------*\
  =========                 |
  \\      /  F ield         | OpenFOAM: The Open Source CFD Toolbox
   \\    /   O peration     | Website:  https://openfoam.org
    \\  /    A nd           | Version:  7
     \\/     M anipulation  |
\*---------------------------------------------------------------------------*/
FoamFile
{
    version     2.0;
    format      ascii;
    class       volVectorField;
    location    "0.23";
    object      ddt0(U);
}
// * * * * * * * * * * * * * * * * * * * * * * * * * * * * * * * * * * * * * //

dimensions      [0 1 -2 0 0 0 0];

internalField   nonuniform List<vector> 
70000
(
(-0.000248321 2.22034e-05 0)
(-0.0020373 4.01544e-05 0)
(-0.00538143 4.60963e-05 0)
(-0.00988148 3.58821e-05 0)
(-0.015024 3.63419e-05 0)
(-0.0205525 3.8831e-05 0)
(-0.0261303 4.02261e-05 0)
(-0.0315333 4.07527e-05 0)
(-0.0367412 4.0405e-05 0)
(-0.0418342 3.98292e-05 0)
(-0.0469002 4.01605e-05 0)
(-0.0520096 4.10604e-05 0)
(-0.0571977 4.29627e-05 0)
(-0.0624592 4.52739e-05 0)
(-0.067776 4.79339e-05 0)
(-0.0731221 5.06088e-05 0)
(-0.0784762 5.28977e-05 0)
(-0.0838381 5.56509e-05 0)
(-0.0892259 5.82343e-05 0)
(-0.0946773 6.15267e-05 0)
(-0.100249 6.54842e-05 0)
(-0.105998 7.03053e-05 0)
(-0.112002 7.61797e-05 0)
(-0.118336 8.34519e-05 0)
(-0.125079 9.14776e-05 0)
(-0.132323 0.000101649 0)
(-0.140156 0.000112746 0)
(-0.148675 0.000126088 0)
(-0.157998 0.000141505 0)
(-0.168239 0.000159298 0)
(-0.17956 0.000180639 0)
(-0.192117 0.000205729 0)
(-0.206156 0.000235535 0)
(-0.221866 0.000271071 0)
(-0.239651 0.000314313 0)
(-0.259724 0.00036586 0)
(-0.28277 0.000428388 0)
(-0.309051 0.000507377 0)
(-0.339614 0.000592119 0)
(-0.37507 0.000723847 0)
(-0.416511 0.000826424 0)
(-0.465966 0.00105167 0)
(-0.523613 0.00116979 0)
(-0.593911 0.00150408 0)
(-0.678259 0.00170459 0)
(-0.774481 0.00201823 0)
(-0.910312 0.00238953 0)
(-1.02389 0.00267301 0)
(-1.25556 0.000707264 0)
(-1.22436 0.0634577 0)
(-4.06254e-05 0.000108329 0)
(-0.00309662 0.000295821 0)
(-0.0109717 0.000480154 0)
(-0.0228815 0.00060076 0)
(-0.0370112 0.000670262 0)
(-0.0523145 0.000699391 0)
(-0.0677685 0.000695303 0)
(-0.0826486 0.000677758 0)
(-0.0968559 0.000665019 0)
(-0.110649 0.000663623 0)
(-0.124321 0.000673777 0)
(-0.138081 0.000690659 0)
(-0.152009 0.000709843 0)
(-0.16606 0.000727357 0)
(-0.180139 0.000741702 0)
(-0.194145 0.000753198 0)
(-0.20801 0.000762353 0)
(-0.221724 0.000773821 0)
(-0.235337 0.000789623 0)
(-0.248953 0.000812616 0)
(-0.262709 0.000845809 0)
(-0.276763 0.000889769 0)
(-0.291294 0.000946347 0)
(-0.306488 0.00101705 0)
(-0.32254 0.00110133 0)
(-0.339661 0.00120311 0)
(-0.358072 0.00132216 0)
(-0.378011 0.00146169 0)
(-0.399754 0.00162538 0)
(-0.423579 0.00181538 0)
(-0.449854 0.00203846 0)
(-0.478919 0.0023008 0)
(-0.511338 0.00260908 0)
(-0.547487 0.0029746 0)
(-0.588305 0.00341028 0)
(-0.634142 0.00393333 0)
(-0.686657 0.00456146 0)
(-0.746162 0.00533897 0)
(-0.815311 0.0062557 0)
(-0.895054 0.00746466 0)
(-0.98825 0.00881422 0)
(-1.09938 0.0107711 0)
(-1.22881 0.0127719 0)
(-1.38785 0.0160045 0)
(-1.57993 0.0189429 0)
(-1.79933 0.0244463 0)
(-2.12428 0.0277439 0)
(-2.38335 0.0393341 0)
(-2.9839 0.0277088 0)
(-3.17599 0.131942 0)
(0.000195139 0.000193617 0)
(-0.00216598 0.000646231 0)
(-0.010708 0.00117844 0)
(-0.0261378 0.00159696 0)
(-0.0462564 0.0018508 0)
(-0.06898 0.00196238 0)
(-0.0924773 0.00196048 0)
(-0.115372 0.001905 0)
(-0.137203 0.001858 0)
(-0.158197 0.0018458 0)
(-0.178792 0.00186886 0)
(-0.199346 0.00191127 0)
(-0.220022 0.00195784 0)
(-0.240779 0.00199604 0)
(-0.261469 0.00202141 0)
(-0.281919 0.00203576 0)
(-0.302012 0.00204305 0)
(-0.321713 0.00205491 0)
(-0.341079 0.00207805 0)
(-0.36025 0.00212028 0)
(-0.379411 0.00218787 0)
(-0.398778 0.00228364 0)
(-0.418595 0.00241116 0)
(-0.439117 0.00257448 0)
(-0.460613 0.00277337 0)
(-0.483382 0.00301637 0)
(-0.507732 0.00330389 0)
(-0.534005 0.00364418 0)
(-0.562588 0.00404427 0)
(-0.593869 0.00451154 0)
(-0.628358 0.0050588 0)
(-0.666503 0.00570257 0)
(-0.709062 0.00645564 0)
(-0.75649 0.00734859 0)
(-0.81006 0.00840372 0)
(-0.870102 0.00967203 0)
(-0.938898 0.0111852 0)
(-1.0166 0.013052 0)
(-1.10685 0.0152749 0)
(-1.21063 0.0181436 0)
(-1.33167 0.0214833 0)
(-1.47601 0.0261115 0)
(-1.6436 0.0311601 0)
(-1.84977 0.039077 0)
(-2.10037 0.046343 0)
(-2.38335 0.0610549 0)
(-2.81541 0.0690287 0)
(-3.15661 0.100017 0)
(-3.94087 0.0924057 0)
(-4.40841 0.203914 0)
(0.000176172 0.000236168 0)
(-0.00100202 0.000937826 0)
(-0.0074159 0.00190599 0)
(-0.0217107 0.00277158 0)
(-0.0431142 0.00336095 0)
(-0.0694688 0.00366553 0)
(-0.0982858 0.00372423 0)
(-0.127382 0.00364154 0)
(-0.155554 0.00354237 0)
(-0.182585 0.00349597 0)
(-0.208785 0.00351644 0)
(-0.234576 0.00357936 0)
(-0.260239 0.00365433 0)
(-0.285819 0.00371441 0)
(-0.311193 0.00374808 0)
(-0.33617 0.00375743 0)
(-0.360596 0.00375102 0)
(-0.384411 0.00374891 0)
(-0.407651 0.00376527 0)
(-0.430458 0.00381382 0)
(-0.453029 0.00390586 0)
(-0.475596 0.00404686 0)
(-0.498425 0.004243 0)
(-0.521799 0.00450147 0)
(-0.546016 0.00482378 0)
(-0.571422 0.00522336 0)
(-0.598375 0.0057036 0)
(-0.627282 0.00627783 0)
(-0.658606 0.00695833 0)
(-0.69281 0.00775862 0)
(-0.730506 0.00869783 0)
(-0.772206 0.00980535 0)
(-0.8188 0.0110992 0)
(-0.870773 0.0126346 0)
(-0.929605 0.01444 0)
(-0.995566 0.0166114 0)
(-1.07129 0.0191898 0)
(-1.15679 0.0223627 0)
(-1.25613 0.0261547 0)
(-1.37041 0.0309873 0)
(-1.5034 0.0367225 0)
(-1.66225 0.0445017 0)
(-1.84627 0.0531831 0)
(-2.07239 0.0667821 0)
(-2.34865 0.0790075 0)
(-2.65885 0.105226 0)
(-3.13205 0.119287 0)
(-3.5295 0.171074 0)
(-4.34259 0.180719 0)
(-5.01549 0.288083 0)
(3.1736e-05 0.000251859 0)
(-0.000472626 0.00111908 0)
(-0.00421752 0.00247588 0)
(-0.0145762 0.00385696 0)
(-0.0327551 0.00492949 0)
(-0.0579316 0.00558871 0)
(-0.0880196 0.00583801 0)
(-0.12046 0.00580348 0)
(-0.153204 0.00567152 0)
(-0.185168 0.00557392 0)
(-0.216087 0.00556259 0)
(-0.246154 0.00562052 0)
(-0.275661 0.0057074 0)
(-0.304768 0.00578029 0)
(-0.333464 0.00581611 0)
(-0.361623 0.00581344 0)
(-0.389108 0.00578384 0)
(-0.415854 0.0057554 0)
(-0.441875 0.0057507 0)
(-0.467293 0.00579011 0)
(-0.492289 0.00589072 0)
(-0.517079 0.00606099 0)
(-0.541914 0.00631011 0)
(-0.567061 0.00664879 0)
(-0.592806 0.00708142 0)
(-0.619488 0.00762706 0)
(-0.647473 0.00829385 0)
(-0.677183 0.00910141 0)
(-0.709117 0.0100686 0)
(-0.743782 0.0112166 0)
(-0.781854 0.012571 0)
(-0.82389 0.0141759 0)
(-0.870874 0.0160535 0)
(-0.923309 0.0182869 0)
(-0.982807 0.020908 0)
(-1.04961 0.0240631 0)
(-1.1265 0.0278005 0)
(-1.21349 0.0323889 0)
(-1.31467 0.0378871 0)
(-1.43141 0.0448325 0)
(-1.56707 0.0531607 0)
(-1.72964 0.064328 0)
(-1.91769 0.0768989 0)
(-2.14906 0.0966065 0)
(-2.43084 0.114274 0)
(-2.75266 0.152254 0)
(-3.22248 0.174993 0)
(-3.66738 0.244612 0)
(-4.4346 0.280324 0)
(-5.22145 0.366763 0)
(-5.96061e-05 0.00026779 0)
(-0.000480315 0.00122213 0)
(-0.00248485 0.00283614 0)
(-0.0087646 0.00466421 0)
(-0.0216007 0.00626913 0)
(-0.0418466 0.00742381 0)
(-0.0688392 0.00804134 0)
(-0.100672 0.00821302 0)
(-0.135037 0.00814755 0)
(-0.170029 0.00803321 0)
(-0.204505 0.00797888 0)
(-0.238037 0.00800134 0)
(-0.270649 0.00806999 0)
(-0.302488 0.00813474 0)
(-0.333652 0.00816129 0)
(-0.364139 0.00814105 0)
(-0.393895 0.00808489 0)
(-0.422893 0.00802605 0)
(-0.451151 0.00799456 0)
(-0.478773 0.00801697 0)
(-0.505922 0.00811616 0)
(-0.532783 0.00830333 0)
(-0.559574 0.00859038 0)
(-0.58652 0.00899116 0)
(-0.613857 0.00951327 0)
(-0.641873 0.0101817 0)
(-0.670881 0.011011 0)
(-0.701266 0.0120284 0)
(-0.73351 0.0132611 0)
(-0.768107 0.0147403 0)
(-0.805761 0.0164988 0)
(-0.847046 0.0185974 0)
(-0.893001 0.0210624 0)
(-0.944155 0.0240064 0)
(-1.00219 0.0274642 0)
(-1.06737 0.0316328 0)
(-1.14249 0.0365714 0)
(-1.22772 0.042622 0)
(-1.32686 0.0498934 0)
(-1.4418 0.0590222 0)
(-1.57514 0.0700338 0)
(-1.73579 0.0847028 0)
(-1.92095 0.101305 0)
(-2.15074 0.127176 0)
(-2.42595 0.150924 0)
(-2.75317 0.199726 0)
(-3.19763 0.233971 0)
(-3.67491 0.318517 0)
(-4.38756 0.382872 0)
(-5.20932 0.480462 0)
(-6.57203e-05 0.00029113 0)
(-0.00062789 0.00129395 0)
(-0.0019838 0.00304498 0)
(-0.00562638 0.00517971 0)
(-0.0136377 0.00723906 0)
(-0.0278218 0.00892046 0)
(-0.049012 0.0100383 0)
(-0.0766703 0.0105971 0)
(-0.109119 0.0107655 0)
(-0.144252 0.0107461 0)
(-0.180227 0.0106961 0)
(-0.215851 0.0106832 0)
(-0.25061 0.0107117 0)
(-0.28441 0.0107447 0)
(-0.317334 0.0107466 0)
(-0.349474 0.0107031 0)
(-0.38088 0.0106221 0)
(-0.411603 0.0105382 0)
(-0.441695 0.0104861 0)
(-0.471271 0.0104971 0)
(-0.500485 0.010599 0)
(-0.529506 0.010805 0)
(-0.558527 0.0111286 0)
(-0.587732 0.0115853 0)
(-0.617297 0.0121848 0)
(-0.64743 0.012957 0)
(-0.678356 0.0139231 0)
(-0.710361 0.0151191 0)
(-0.743843 0.0165823 0)
(-0.779224 0.0183564 0)
(-0.817167 0.0204834 0)
(-0.858218 0.0230435 0)
(-0.903421 0.0260683 0)
(-0.953322 0.0297012 0)
(-1.0096 0.0339825 0)
(-1.07263 0.0391554 0)
(-1.14505 0.0452988 0)
(-1.22733 0.0528146 0)
(-1.3228 0.0618799 0)
(-1.43403 0.0732083 0)
(-1.56255 0.08694 0)
(-1.71854 0.105121 0)
(-1.89694 0.125883 0)
(-2.12161 0.157703 0)
(-2.38412 0.188207 0)
(-2.71039 0.246676 0)
(-3.12494 0.294224 0)
(-3.61186 0.392447 0)
(-4.2768 0.48387 0)
(-5.09045 0.624517 0)
(-3.88309e-05 0.000317754 0)
(-0.000691969 0.00136342 0)
(-0.0020282 0.00318609 0)
(-0.00454468 0.00549993 0)
(-0.00956304 0.0078779 0)
(-0.0188453 0.0100077 0)
(-0.0340385 0.011648 0)
(-0.0558927 0.0127088 0)
(-0.0838478 0.0132722 0)
(-0.116291 0.0134991 0)
(-0.15122 0.0135589 0)
(-0.18692 0.0135625 0)
(-0.222313 0.0135633 0)
(-0.256922 0.0135579 0)
(-0.290666 0.0135264 0)
(-0.32363 0.0134577 0)
(-0.355933 0.0133581 0)
(-0.387701 0.0132617 0)
(-0.419041 0.0132058 0)
(-0.450095 0.0132243 0)
(-0.481034 0.0133488 0)
(-0.512034 0.0135938 0)
(-0.543288 0.013973 0)
(-0.574971 0.0145016 0)
(-0.607225 0.0151888 0)
(-0.640188 0.0160666 0)
(-0.673989 0.0171608 0)
(-0.708787 0.0185153 0)
(-0.744843 0.0201778 0)
(-0.782441 0.0222067 0)
(-0.822129 0.0246558 0)
(-0.864357 0.0276272 0)
(-0.910097 0.0311623 0)
(-0.959882 0.0354347 0)
(-1.01531 0.0404965 0)
(-1.07687 0.0466308 0)
(-1.14698 0.0539483 0)
(-1.22647 0.0628926 0)
(-1.31803 0.0737323 0)
(-1.42503 0.0872249 0)
(-1.54776 0.103671 0)
(-1.69769 0.125289 0)
(-1.86751 0.15029 0)
(-2.08402 0.187747 0)
(-2.332 0.22542 0)
(-2.64899 0.292693 0)
(-3.03598 0.35418 0)
(-3.51149 0.465417 0)
(-4.13391 0.583992 0)
(-4.91502 0.748441 0)
(-2.06766e-05 0.000344297 0)
(-0.000670558 0.00143905 0)
(-0.0021019 0.00331763 0)
(-0.00443144 0.00573493 0)
(-0.00817526 0.00831156 0)
(-0.014576 0.0107689 0)
(-0.025337 0.0128639 0)
(-0.0418926 0.0144429 0)
(-0.0646778 0.0154913 0)
(-0.0928738 0.0160897 0)
(-0.124805 0.0163766 0)
(-0.158641 0.0164809 0)
(-0.192966 0.0165007 0)
(-0.22696 0.0164771 0)
(-0.260322 0.0164204 0)
(-0.293052 0.0163338 0)
(-0.325279 0.0162282 0)
(-0.357175 0.0161381 0)
(-0.388893 0.0161022 0)
(-0.420611 0.0161559 0)
(-0.452526 0.0163343 0)
(-0.484841 0.0166528 0)
(-0.517781 0.0171251 0)
(-0.551546 0.0177644 0)
(-0.586295 0.0185768 0)
(-0.622147 0.019592 0)
(-0.659171 0.0208363 0)
(-0.697414 0.0223575 0)
(-0.736993 0.0242116 0)
(-0.778015 0.0264715 0)
(-0.820848 0.0292042 0)
(-0.865782 0.0325357 0)
(-0.913626 0.0365226 0)
(-0.964848 0.0413688 0)
(-1.02087 0.0471467 0)
(-1.08229 0.0541715 0)
(-1.15117 0.0626012 0)
(-1.22874 0.0729006 0)
(-1.31701 0.0854545 0)
(-1.42 0.101029 0)
(-1.53698 0.120126 0)
(-1.68003 0.145051 0)
(-1.84087 0.174249 0)
(-2.04624 0.217036 0)
(-2.27961 0.261926 0)
(-2.57974 0.337371 0)
(-2.94037 0.412625 0)
(-3.39037 0.53654 0)
(-3.96764 0.680005 0)
(-4.70008 0.869837 0)
(-1.807e-05 0.000369211 0)
(-0.000624826 0.00151852 0)
(-0.00208909 0.00345589 0)
(-0.0045079 0.0059556 0)
(-0.00798149 0.00866208 0)
(-0.0131978 0.0113449 0)
(-0.0214974 0.0137982 0)
(-0.0344477 0.0158434 0)
(-0.0530048 0.0173867 0)
(-0.0770077 0.0184171 0)
(-0.105281 0.0190137 0)
(-0.136184 0.0192957 0)
(-0.168236 0.019391 0)
(-0.200435 0.0193847 0)
(-0.232315 0.0193243 0)
(-0.263782 0.0192364 0)
(-0.29494 0.0191426 0)
(-0.325979 0.0190806 0)
(-0.357088 0.0190911 0)
(-0.388471 0.0192107 0)
(-0.420354 0.0194779 0)
(-0.45297 0.0199102 0)
(-0.486588 0.0205222 0)
(-0.521466 0.0213252 0)
(-0.557824 0.0223207 0)
(-0.595823 0.0235324 0)
(-0.635543 0.0249815 0)
(-0.676981 0.0267142 0)
(-0.720147 0.0287887 0)
(-0.764991 0.0312889 0)
(-0.811678 0.0342938 0)
(-0.860299 0.0379531 0)
(-0.911428 0.0423432 0)
(-0.965404 0.0476973 0)
(-1.02338 0.0541191 0)
(-1.08601 0.0619477 0)
(-1.15496 0.0714041 0)
(-1.23172 0.0829579 0)
(-1.31771 0.0971241 0)
(-1.41724 0.114663 0)
(-1.52913 0.136274 0)
(-1.66484 0.164343 0)
(-1.81697 0.197553 0)
(-2.009 0.245342 0)
(-2.22755 0.297231 0)
(-2.50587 0.380198 0)
(-2.8387 0.468613 0)
(-3.25452 0.604632 0)
(-3.78084 0.770623 0)
(-4.45111 0.98738 0)
(-2.16894e-05 0.000393065 0)
(-0.00058973 0.00159877 0)
(-0.00202833 0.00360184 0)
(-0.00452912 0.00618636 0)
(-0.00807845 0.00900085 0)
(-0.0130307 0.0118531 0)
(-0.0203677 0.014588 0)
(-0.0314504 0.017031 0)
(-0.0473427 0.019033 0)
(-0.0682541 0.0204979 0)
(-0.0933843 0.0214361 0)
(-0.121366 0.0219394 0)
(-0.150815 0.0221507 0)
(-0.18071 0.0221922 0)
(-0.210513 0.0221499 0)
(-0.240074 0.0220779 0)
(-0.269477 0.0220129 0)
(-0.298921 0.0219987 0)
(-0.328615 0.0220789 0)
(-0.35879 0.0222914 0)
(-0.389689 0.0226783 0)
(-0.421574 0.0232609 0)
(-0.454753 0.0240563 0)
(-0.489549 0.0250764 0)
(-0.526265 0.0263186 0)
(-0.565153 0.0277989 0)
(-0.606366 0.0295296 0)
(-0.649934 0.0315482 0)
(-0.695837 0.0339084 0)
(-0.743932 0.0366973 0)
(-0.794216 0.0400017 0)
(-0.846592 0.0439903 0)
(-0.901369 0.0487622 0)
(-0.958715 0.0545773 0)
(-1.01946 0.0615794 0)
(-1.08421 0.0701265 0)
(-1.15424 0.0805132 0)
(-1.23112 0.0932082 0)
(-1.31585 0.108851 0)
(-1.41255 0.128214 0)
(-1.52019 0.152139 0)
(-1.64854 0.183146 0)
(-1.79234 0.220089 0)
(-1.97008 0.272472 0)
(-2.17316 0.330967 0)
(-2.42723 0.420694 0)
(-2.73 0.521324 0)
(-3.10612 0.668615 0)
(-3.57627 0.854625 0)
(-4.17362 1.0976 0)
(-2.4191e-05 0.000416638 0)
(-0.000567758 0.00167912 0)
(-0.00196646 0.00375226 0)
(-0.00449169 0.0064307 0)
(-0.00814639 0.0093548 0)
(-0.0131596 0.0123582 0)
(-0.020291 0.0153358 0)
(-0.0306798 0.0181273 0)
(-0.0453057 0.0205439 0)
(-0.0644365 0.0224183 0)
(-0.0874767 0.0236931 0)
(-0.113251 0.0244269 0)
(-0.140512 0.0247689 0)
(-0.168286 0.0248721 0)
(-0.196041 0.0248586 0)
(-0.22361 0.0248114 0)
(-0.251075 0.0247848 0)
(-0.278642 0.02483 0)
(-0.306541 0.0249943 0)
(-0.335019 0.0253174 0)
(-0.364336 0.0258449 0)
(-0.39477 0.026603 0)
(-0.426656 0.0276137 0)
(-0.460366 0.0288923 0)
(-0.496285 0.0304354 0)
(-0.534766 0.0322519 0)
(-0.576077 0.0343438 0)
(-0.620343 0.0367354 0)
(-0.667592 0.0394683 0)
(-0.717675 0.0426247 0)
(-0.770494 0.0462915 0)
(-0.825821 0.0506486 0)
(-0.883727 0.0558169 0)
(-0.944204 0.0620773 0)
(-1.00776 0.0696197 0)
(-1.07486 0.078818 0)
(-1.14643 0.0900428 0)
(-1.2239 0.103769 0)
(-1.30806 0.120739 0)
(-1.40242 0.14177 0)
(-1.50653 0.167777 0)
(-1.62788 0.20147 0)
(-1.7637 0.241811 0)
(-1.92728 0.298294 0)
(-2.1144 0.362869 0)
(-2.34357 0.458516 0)
(-2.6149 0.570093 0)
(-2.94837 0.727616 0)
(-3.35937 0.930789 0)
(-3.87714 1.19764 0)
(-2.41151e-05 0.000440144 0)
(-0.000550969 0.00176025 0)
(-0.00191772 0.00390558 0)
(-0.00443967 0.00668573 0)
(-0.00815527 0.00972817 0)
(-0.0132721 0.012884 0)
(-0.0204613 0.0160937 0)
(-0.0307247 0.0192119 0)
(-0.0449177 0.0220162 0)
(-0.0632659 0.0242746 0)
(-0.0852074 0.0258678 0)
(-0.109662 0.026822 0)
(-0.135464 0.0272899 0)
(-0.161705 0.027452 0)
(-0.18787 0.0274652 0)
(-0.213805 0.027441 0)
(-0.239596 0.0274519 0)
(-0.265459 0.0275576 0)
(-0.291637 0.0278099 0)
(-0.318391 0.0282497 0)
(-0.345993 0.0289263 0)
(-0.374726 0.0298712 0)
(-0.404937 0.0311132 0)
(-0.437023 0.0326738 0)
(-0.471427 0.0345526 0)
(-0.508588 0.0367549 0)
(-0.548888 0.0392734 0)
(-0.592575 0.0421173 0)
(-0.639776 0.0453114 0)
(-0.690407 0.0489249 0)
(-0.744353 0.0530375 0)
(-0.801334 0.0578299 0)
(-0.861253 0.0634401 0)
(-0.923958 0.0701634 0)
(-0.989669 0.0782353 0)
(-1.05869 0.0880453 0)
(-1.13164 0.100035 0)
(-1.20967 0.114699 0)
(-1.2935 0.132849 0)
(-1.3858 0.155391 0)
(-1.48681 0.183245 0)
(-1.60176 0.219337 0)
(-1.72994 0.262722 0)
(-1.88024 0.322761 0)
(-2.05153 0.392785 0)
(-2.25655 0.493483 0)
(-2.49666 0.614503 0)
(-2.78714 0.78102 0)
(-3.13907 0.998294 0)
(-3.57561 1.28558 0)
(-2.26874e-05 0.000463468 0)
(-0.000534422 0.00184286 0)
(-0.00187825 0.00406194 0)
(-0.00439435 0.00694951 0)
(-0.00814182 0.010119 0)
(-0.0133339 0.013435 0)
(-0.020622 0.0168806 0)
(-0.0309494 0.0203235 0)
(-0.0450879 0.023507 0)
(-0.0631979 0.0261363 0)
(-0.0846948 0.0280336 0)
(-0.108513 0.0291947 0)
(-0.133527 0.0297765 0)
(-0.158857 0.0299872 0)
(-0.184016 0.0300171 0)
(-0.208854 0.0300065 0)
(-0.233462 0.0300465 0)
(-0.258056 0.030206 0)
(-0.282893 0.0305413 0)
(-0.30824 0.0310946 0)
(-0.334368 0.0319186 0)
(-0.36157 0.0330497 0)
(-0.390178 0.0345246 0)
(-0.420601 0.0363736 0)
(-0.453307 0.0386028 0)
(-0.48879 0.0412176 0)
(-0.527521 0.0442047 0)
(-0.569856 0.0475589 0)
(-0.616032 0.0512865 0)
(-0.666065 0.0554384 0)
(-0.719885 0.0600801 0)
(-0.777224 0.0653841 0)
(-0.837896 0.0714989 0)
(-0.90166 0.078726 0)
(-0.96853 0.0873417 0)
(-1.03864 0.0977516 0)
(-1.11237 0.110456 0)
(-1.19055 0.125988 0)
(-1.27387 0.145192 0)
(-1.36419 0.169097 0)
(-1.46228 0.198581 0)
(-1.57148 0.23678 0)
(-1.69249 0.282858 0)
(-1.83083 0.345907 0)
(-1.98718 0.420691 0)
(-2.16989 0.52559 0)
(-2.38068 0.654447 0)
(-2.63036 0.82856 0)
(-2.9265 1.05689 0)
(-3.28516 1.36048 0)
(-2.09984e-05 0.000486497 0)
(-0.00051742 0.00192703 0)
(-0.00184276 0.00422215 0)
(-0.00435719 0.0072218 0)
(-0.0081287 0.0105257 0)
(-0.0133738 0.0140103 0)
(-0.020746 0.0177004 0)
(-0.0311698 0.0214757 0)
(-0.0453733 0.0250421 0)
(-0.0634694 0.0280411 0)
(-0.0848423 0.0302366 0)
(-0.108418 0.0315961 0)
(-0.13308 0.0322821 0)
(-0.157964 0.0325308 0)
(-0.18259 0.0325668 0)
(-0.206813 0.0325589 0)
(-0.23072 0.0326175 0)
(-0.254527 0.0328209 0)
(-0.278489 0.0332302 0)
(-0.302872 0.0338894 0)
(-0.327957 0.034853 0)
(-0.354004 0.0361637 0)
(-0.381369 0.037865 0)
(-0.410436 0.0399978 0)
(-0.441679 0.0425771 0)
(-0.475606 0.0456121 0)
(-0.512751 0.0490868 0)
(-0.553531 0.052985 0)
(-0.598276 0.0572943 0)
(-0.647105 0.0620447 0)
(-0.700009 0.0672835 0)
(-0.756778 0.0731677 0)
(-0.817197 0.0798492 0)
(-0.880987 0.0876295 0)
(-0.948037 0.096817 0)
(-1.01833 0.107834 0)
(-1.09211 0.121226 0)
(-1.16989 0.137577 0)
(-1.25235 0.157741 0)
(-1.34062 0.182877 0)
(-1.43587 0.213809 0)
(-1.53996 0.253838 0)
(-1.65441 0.302283 0)
(-1.78233 0.367835 0)
(-1.92525 0.446682 0)
(-2.08827 0.555001 0)
(-2.27298 0.690106 0)
(-2.48605 0.870363 0)
(-2.73229 1.10686 0)
(-3.02056 1.42248 0)
(-1.94391e-05 0.000509234 0)
(-0.000500719 0.00201239 0)
(-0.00180913 0.00438691 0)
(-0.00432469 0.00750311 0)
(-0.00812071 0.0109482 0)
(-0.0134113 0.0146095 0)
(-0.0208541 0.0185536 0)
(-0.0313681 0.0226719 0)
(-0.0456577 0.0266306 0)
(-0.0638054 0.0300048 0)
(-0.0851735 0.0324998 0)
(-0.10868 0.0340552 0)
(-0.133209 0.0348401 0)
(-0.157904 0.0351201 0)
(-0.18229 0.0351544 0)
(-0.206221 0.0351409 0)
(-0.229776 0.0352094 0)
(-0.253168 0.0354481 0)
(-0.276644 0.0359232 0)
(-0.300472 0.0366803 0)
(-0.324917 0.0377761 0)
(-0.35026 0.0392578 0)
(-0.376805 0.0411774 0)
(-0.404952 0.0435856 0)
(-0.435138 0.0465086 0)
(-0.467911 0.0499612 0)
(-0.503758 0.0539287 0)
(-0.543195 0.0583848 0)
(-0.586586 0.0633016 0)
(-0.63412 0.0686873 0)
(-0.685847 0.0745695 0)
(-0.741616 0.0810848 0)
(-0.80122 0.0883833 0)
(-0.864377 0.0967607 0)
(-0.930915 0.10655 0)
(-1.00071 0.11819 0)
(-1.07393 0.132258 0)
(-1.15082 0.149394 0)
(-1.23206 0.170448 0)
(-1.31825 0.196707 0)
(-1.41071 0.228942 0)
(-1.51033 0.270559 0)
(-1.61894 0.321085 0)
(-1.73804 0.388702 0)
(-1.86941 0.470955 0)
(-2.01574 0.582007 0)
(-2.17832 0.721898 0)
(-2.36016 0.906887 0)
(-2.56393 1.14895 0)
(-2.7919 1.47254 0)
(-1.80272e-05 0.00053168 0)
(-0.000484919 0.00209883 0)
(-0.00177716 0.00455666 0)
(-0.00429465 0.00779387 0)
(-0.00811646 0.011387 0)
(-0.0134513 0.015233 0)
(-0.0209595 0.0194406 0)
(-0.0315574 0.0239133 0)
(-0.0459315 0.0282753 0)
(-0.064142 0.0320333 0)
(-0.0855369 0.0348324 0)
(-0.10903 0.0365849 0)
(-0.133511 0.0374674 0)
(-0.158131 0.0377755 0)
(-0.182417 0.037804 0)
(-0.206224 0.03778 0)
(-0.229627 0.0378532 0)
(-0.252829 0.0381219 0)
(-0.276075 0.0386575 0)
(-0.299624 0.0395073 0)
(-0.32374 0.0407303 0)
(-0.348691 0.042378 0)
(-0.374786 0.0445101 0)
(-0.402394 0.0471877 0)
(-0.431961 0.0504482 0)
(-0.463985 0.0543145 0)
(-0.499013 0.0587729 0)
(-0.537508 0.0637912 0)
(-0.579875 0.0693269 0)
(-0.626345 0.0753673 0)
(-0.677002 0.0819197 0)
(-0.731741 0.0890981 0)
(-0.790378 0.0970469 0)
(-0.852634 0.106054 0)
(-0.918321 0.116467 0)
(-0.987252 0.128744 0)
(-1.05955 0.143483 0)
(-1.13527 0.161384 0)
(-1.21509 0.18328 0)
(-1.29921 0.210576 0)
(-1.38908 0.244004 0)
(-1.48479 0.287006 0)
(-1.58831 0.339371 0)
(-1.70011 0.408697 0)
(-1.82187 0.493767 0)
(-1.95448 0.606974 0)
(-2.09895 0.750386 0)
(-2.25518 0.93879 0)
(-2.4242 1.1842 0)
(-2.60269 1.51209 0)
(-1.6719e-05 0.000553839 0)
(-0.000470239 0.00218641 0)
(-0.00174709 0.00473167 0)
(-0.00426642 0.00809445 0)
(-0.00811446 0.0118425 0)
(-0.0134936 0.0158816 0)
(-0.0210657 0.0203624 0)
(-0.0317451 0.025201 0)
(-0.0462015 0.0299782 0)
(-0.0644749 0.0341292 0)
(-0.0859015 0.0372384 0)
(-0.109395 0.0391907 0)
(-0.133852 0.0401713 0)
(-0.158433 0.0405067 0)
(-0.182673 0.0405276 0)
(-0.206426 0.040491 0)
(-0.229764 0.0405666 0)
(-0.252888 0.0408629 0)
(-0.276035 0.0414567 0)
(-0.299462 0.0423975 0)
(-0.323428 0.0437459 0)
(-0.348196 0.0455584 0)
(-0.374071 0.0479017 0)
(-0.401414 0.0508474 0)
(-0.43066 0.0544445 0)
(-0.462299 0.0587235 0)
(-0.49685 0.0636737 0)
(-0.534792 0.0692571 0)
(-0.576517 0.0754176 0)
(-0.62227 0.0821225 0)
(-0.672142 0.0893586 0)
(-0.726056 0.0972173 0)
(-0.783834 0.105835 0)
(-0.845215 0.11549 0)
(-0.910003 0.126542 0)
(-0.977974 0.139466 0)
(-1.04923 0.154873 0)
(-1.12371 0.17352 0)
(-1.20204 0.196226 0)
(-1.28429 0.224484 0)
(-1.37153 0.259024 0)
(-1.46401 0.303258 0)
(-1.56323 0.357259 0)
(-1.66903 0.428016 0)
(-1.7829 0.515395 0)
(-1.90442 0.630286 0)
(-2.03432 0.776164 0)
(-2.17004 0.966822 0)
(-2.31119 1.2137 0)
(-2.45017 1.54274 0)
(-1.54872e-05 0.00057573 0)
(-0.00045672 0.00227522 0)
(-0.00171904 0.00491219 0)
(-0.00423989 0.0084052 0)
(-0.00811405 0.0123151 0)
(-0.0135373 0.0165564 0)
(-0.0211725 0.0213203 0)
(-0.0319324 0.0265367 0)
(-0.0464708 0.031741 0)
(-0.0648067 0.0362948 0)
(-0.086265 0.0397202 0)
(-0.10976 0.0418756 0)
(-0.134197 0.0429555 0)
(-0.158748 0.043318 0)
(-0.182955 0.0433308 0)
(-0.206675 0.0432808 0)
(-0.229982 0.0433581 0)
(-0.253069 0.0436818 0)
(-0.276174 0.0443339 0)
(-0.299548 0.0453662 0)
(-0.323449 0.0468413 0)
(-0.348138 0.0488205 0)
(-0.373919 0.0513776 0)
(-0.40115 0.0545949 0)
(-0.430257 0.0585327 0)
(-0.461728 0.0632288 0)
(-0.496063 0.068676 0)
(-0.533731 0.0748303 0)
(-0.575113 0.0816221 0)
(-0.620446 0.0889986 0)
(-0.669818 0.0969269 0)
(-0.723155 0.105476 0)
(-0.780282 0.114772 0)
(-0.840938 0.125085 0)
(-0.904927 0.136782 0)
(-0.972005 0.150355 0)
(-1.04226 0.166426 0)
(-1.11555 0.185802 0)
(-1.1925 0.209296 0)
(-1.27295 0.238459 0)
(-1.35816 0.274043 0)
(-1.4477 0.319386 0)
(-1.54315 0.374855 0)
(-1.64392 0.446832 0)
(-1.75126 0.536089 0)
(-1.8637 0.652281 0)
(-1.98185 0.799763 0)
(-2.10096 0.991656 0)
(-2.22028 1.23851 0)
(-2.3279 1.56603 0)
(-1.43303e-05 0.000597393 0)
(-0.000444351 0.00236531 0)
(-0.00169304 0.00509849 0)
(-0.004215 0.00872649 0)
(-0.00811491 0.0128053 0)
(-0.0135819 0.0172583 0)
(-0.0212791 0.0223157 0)
(-0.0321187 0.027922 0)
(-0.0467387 0.0335659 0)
(-0.0651372 0.0385323 0)
(-0.0866272 0.0422803 0)
(-0.110123 0.044642 0)
(-0.13454 0.0458223 0)
(-0.159061 0.0462122 0)
(-0.183236 0.0462166 0)
(-0.206928 0.0461531 0)
(-0.230208 0.0462322 0)
(-0.253271 0.046584 0)
(-0.276351 0.0472956 0)
(-0.299697 0.0484215 0)
(-0.323567 0.0500261 0)
(-0.34822 0.0521758 0)
(-0.37396 0.0549522 0)
(-0.401149 0.0584479 0)
(-0.430209 0.0627344 0)
(-0.461622 0.0678572 0)
(-0.495882 0.0738112 0)
(-0.533444 0.0805459 0)
(-0.574672 0.0879783 0)
(-0.619789 0.0960352 0)
(-0.668868 0.104664 0)
(-0.721828 0.113909 0)
(-0.778487 0.123889 0)
(-0.838579 0.134865 0)
(-0.901902 0.147208 0)
(-0.968202 0.16143 0)
(-1.03754 0.178158 0)
(-1.10976 0.198249 0)
(-1.1854 0.222508 0)
(-1.26429 0.252532 0)
(-1.34744 0.289113 0)
(-1.43448 0.335459 0)
(-1.52666 0.392246 0)
(-1.62312 0.465279 0)
(-1.72487 0.556047 0)
(-1.82969 0.673213 0)
(-1.93789 0.821605 0)
(-2.04346 1.01383 0)
(-2.14419 1.25939 0)
(-2.22653 1.5832 0)
(-1.32454e-05 0.000618864 0)
(-0.000433114 0.00245674 0)
(-0.00166907 0.00529082 0)
(-0.00419166 0.00905872 0)
(-0.00811679 0.0133135 0)
(-0.013627 0.0179881 0)
(-0.0213849 0.02335 0)
(-0.0323027 0.0293587 0)
(-0.0470036 0.0354549 0)
(-0.0654645 0.0408441 0)
(-0.086986 0.0449211 0)
(-0.110483 0.0474924 0)
(-0.134879 0.0487742 0)
(-0.159368 0.0491914 0)
(-0.18351 0.0491873 0)
(-0.20717 0.0491103 0)
(-0.230424 0.0491916 0)
(-0.253463 0.0495725 0)
(-0.276521 0.0503455 0)
(-0.299845 0.0515677 0)
(-0.323692 0.0533055 0)
(-0.348322 0.0556309 0)
(-0.374041 0.0586333 0)
(-0.401212 0.0624161 0)
(-0.43026 0.0670622 0)
(-0.461665 0.0726241 0)
(-0.495913 0.079098 0)
(-0.533449 0.0864266 0)
(-0.574619 0.0945122 0)
(-0.619631 0.10326 0)
(-0.668539 0.112598 0)
(-0.721245 0.122547 0)
(-0.777556 0.133215 0)
(-0.837197 0.144855 0)
(-0.899957 0.157844 0)
(-0.965571 0.172711 0)
(-1.03408 0.19009 0)
(-1.10532 0.210879 0)
(-1.17974 0.235886 0)
(-1.25716 0.266728 0)
(-1.33845 0.304253 0)
(-1.42316 0.351521 0)
(-1.51234 0.409493 0)
(-1.60489 0.483441 0)
(-1.70163 0.575401 0)
(-1.79969 0.69324 0)
(-1.89919 0.841957 0)
(-1.99295 1.03371 0)
(-2.07819 1.27687 0)
(-2.13917 1.59511 0)
(-1.22349e-05 0.00064019 0)
(-0.000422979 0.00254957 0)
(-0.00164708 0.00548948 0)
(-0.00416978 0.00940232 0)
(-0.00811941 0.01384 0)
(-0.0136723 0.0187468 0)
(-0.0214895 0.0244246 0)
(-0.0324835 0.0308485 0)
(-0.0472639 0.0374101 0)
(-0.0657863 0.0432326 0)
(-0.0873388 0.0476452 0)
(-0.110836 0.0504291 0)
(-0.13521 0.0518135 0)
(-0.159666 0.0522581 0)
(-0.183772 0.052245 0)
(-0.207399 0.0521544 0)
(-0.230623 0.0522386 0)
(-0.253636 0.0526499 0)
(-0.276669 0.0534862 0)
(-0.299971 0.0548076 0)
(-0.323794 0.0566828 0)
(-0.348403 0.0591894 0)
(-0.374104 0.0624254 0)
(-0.401263 0.0665052 0)
(-0.430309 0.071523 0)
(-0.461721 0.0775381 0)
(-0.49598 0.0845475 0)
(-0.53352 0.0924857 0)
(-0.574673 0.101239 0)
(-0.619628 0.110692 0)
(-0.668419 0.120748 0)
(-0.720932 0.131408 0)
(-0.776956 0.142768 0)
(-0.836205 0.155074 0)
(-0.898455 0.168707 0)
(-0.963436 0.184213 0)
(-1.03116 0.202236 0)
(-1.10145 0.223705 0)
(-1.1747 0.249442 0)
(-1.25071 0.281061 0)
(-1.3302 0.319482 0)
(-1.41269 0.367599 0)
(-1.49901 0.426623 0)
(-1.58786 0.501354 0)
(-1.67986 0.594217 0)
(-1.77165 0.712435 0)
(-1.86308 0.860963 0)
(-1.94611 1.05148 0)
(-2.01737 1.29129 0)
(-2.05964 1.60243 0)
(-1.12942e-05 0.000661422 0)
(-0.000413905 0.00264386 0)
(-0.00162703 0.00569472 0)
(-0.00414925 0.00975771 0)
(-0.00812246 0.0143854 0)
(-0.0137175 0.019535 0)
(-0.0215924 0.0255408 0)
(-0.0326601 0.0323932 0)
(-0.0475179 0.0394335 0)
(-0.0661003 0.0457002 0)
(-0.0876825 0.050455 0)
(-0.111179 0.0534548 0)
(-0.13553 0.0549427 0)
(-0.159951 0.0554145 0)
(-0.184019 0.0553921 0)
(-0.20761 0.0552878 0)
(-0.230802 0.0553752 0)
(-0.253785 0.0558182 0)
(-0.276791 0.05672 0)
(-0.300066 0.0581438 0)
(-0.323864 0.0601606 0)
(-0.348449 0.0628544 0)
(-0.374129 0.066332 0)
(-0.401276 0.0707192 0)
(-0.43032 0.0761216 0)
(-0.46174 0.0826052 0)
(-0.496014 0.0901667 0)
(-0.533566 0.0987314 0)
(-0.574712 0.108169 0)
(-0.619624 0.118339 0)
(-0.668315 0.129125 0)
(-0.720653 0.140504 0)
(-0.77641 0.152559 0)
(-0.835286 0.165533 0)
(-0.897044 0.179806 0)
(-0.961405 0.195944 0)
(-1.02836 0.214603 0)
(-1.09772 0.236734 0)
(-1.1698 0.26318 0)
(-1.2444 0.295536 0)
(-1.32211 0.334799 0)
(-1.40239 0.383692 0)
(-1.48587 0.443637 0)
(-1.57109 0.519018 0)
(-1.65846 0.612508 0)
(-1.7442 0.730801 0)
(-1.82788 0.878662 0)
(-1.90078 1.06724 0)
(-1.95902 1.30278 0)
(-1.98426 1.60549 0)
(-1.04227e-05 0.000682618 0)
(-0.000405837 0.00273968 0)
(-0.00160886 0.00590682 0)
(-0.00413001 0.0101253 0)
(-0.00812564 0.0149502 0)
(-0.013762 0.0203536 0)
(-0.0216929 0.0267002 0)
(-0.0328315 0.0339944 0)
(-0.0477638 0.0415272 0)
(-0.0664042 0.0482492 0)
(-0.0880143 0.0533531 0)
(-0.111509 0.0565719 0)
(-0.135835 0.0581642 0)
(-0.16022 0.058663 0)
(-0.184248 0.0586308 0)
(-0.2078 0.0585127 0)
(-0.230956 0.0586038 0)
(-0.253906 0.0590798 0)
(-0.276882 0.0600492 0)
(-0.300127 0.0615786 0)
(-0.323896 0.0637416 0)
(-0.348453 0.0666286 0)
(-0.374109 0.070356 0)
(-0.40124 0.0750614 0)
(-0.430278 0.0808619 0)
(-0.461703 0.0878299 0)
(-0.495988 0.0959608 0)
(-0.533549 0.10517 0)
(-0.574686 0.115308 0)
(-0.619553 0.126211 0)
(-0.668144 0.137737 0)
(-0.720305 0.149842 0)
(-0.775791 0.162596 0)
(-0.834291 0.176236 0)
(-0.895549 0.191147 0)
(-0.959283 0.207909 0)
(-1.02544 0.227192 0)
(-1.09385 0.249965 0)
(-1.16475 0.277096 0)
(-1.23792 0.310148 0)
(-1.31382 0.350195 0)
(-1.39185 0.399788 0)
(-1.47248 0.460518 0)
(-1.55407 0.536403 0)
(-1.63681 0.630253 0)
(-1.71659 0.748301 0)
(-1.79267 0.895034 0)
(-1.8558 1.08097 0)
(-1.90166 1.31139 0)
(-1.9111 1.60448 0)
(-9.6138e-06 0.000703838 0)
(-0.000398706 0.00283709 0)
(-0.0015925 0.00612606 0)
(-0.00411195 0.0105056 0)
(-0.00812867 0.0155349 0)
(-0.0138055 0.0212033 0)
(-0.0217906 0.0279039 0)
(-0.0329966 0.035654 0)
(-0.048 0.0436931 0)
(-0.0666955 0.050882 0)
(-0.0883313 0.0563421 0)
(-0.111821 0.0597831 0)
(-0.136121 0.0614805 0)
(-0.160468 0.0620059 0)
(-0.184454 0.0619634 0)
(-0.207965 0.0618313 0)
(-0.231082 0.0619265 0)
(-0.253997 0.0624369 0)
(-0.276938 0.0634761 0)
(-0.30015 0.0651144 0)
(-0.323884 0.067428 0)
(-0.348409 0.0705145 0)
(-0.374038 0.0745003 0)
(-0.401147 0.0795351 0)
(-0.430175 0.0857476 0)
(-0.461599 0.0932162 0)
(-0.49589 0.101934 0)
(-0.533452 0.111805 0)