/*--------------------------------*- C++ -*----------------------------------*\
  =========                 |
  \\      /  F ield         | OpenFOAM: The Open Source CFD Toolbox
   \\    /   O peration     | Website:  https://openfoam.org
    \\  /    A nd           | Version:  7
     \\/     M anipulation  |
\*---------------------------------------------------------------------------*/
FoamFile
{
    version     2.0;
    format      ascii;
    class       surfaceScalarField;
    location    "0.23";
    object      ddtCorrDdt0(phi);
}
// * * * * * * * * * * * * * * * * * * * * * * * * * * * * * * * * * * * * * //

dimensions      [0 3 -2 0 0 0 0];

internalField   nonuniform List<scalar> 
139350
(
-1.82708e-10
1.81856e-10
-5.83532e-10
3.98457e-10
-1.19528e-09
6.09706e-10
-1.94883e-09
7.5159e-10
-2.78506e-09
8.34437e-10
-3.65592e-09
8.68807e-10
-4.51681e-09
8.58668e-10
-5.34994e-09
8.29429e-10
-6.15691e-09
8.03711e-10
-6.95295e-09
7.90454e-10
-7.74835e-09
7.91132e-10
-8.55434e-09
8.00089e-10
-9.37145e-09
8.12388e-10
-1.01994e-08
8.22957e-10
-1.1034e-08
8.30068e-10
-1.18728e-08
8.3384e-10
-1.27109e-08
8.34263e-10
-1.35543e-08
8.37224e-10
-1.44016e-08
8.43962e-10
-1.52657e-08
8.5786e-10
-1.61516e-08
8.81895e-10
-1.70713e-08
9.15952e-10
-1.80374e-08
9.61904e-10
-1.90609e-08
1.02076e-09
-2.01551e-08
1.09086e-09
-2.13362e-08
1.17651e-09
-2.26152e-08
1.27585e-09
-2.40121e-08
1.39187e-09
-2.55438e-08
1.5274e-09
-2.72297e-08
1.68302e-09
-2.90996e-08
1.86501e-09
-3.11783e-08
2.07709e-09
-3.35074e-08
2.32433e-09
-3.61247e-08
2.6147e-09
-3.90881e-08
2.95858e-09
-4.24576e-08
3.36681e-09
-4.63147e-08
3.85261e-09
-5.07661e-08
4.45049e-09
-5.59076e-08
5.13789e-09
-6.1965e-08
6.05833e-09
-6.89963e-08
7.02715e-09
-7.74928e-08
8.49963e-09
-8.73689e-08
9.8697e-09
-9.95914e-08
1.22275e-08
-1.13791e-07
1.41887e-08
-1.31747e-07
1.79561e-08
-1.51828e-07
2.00607e-08
-1.79528e-07
2.76868e-08
-1.96067e-07
1.65169e-08
1.34529e-07
-3.30614e-07
-2.58578e-10
4.39402e-10
-1.14447e-09
1.28179e-09
-2.73746e-09
2.20051e-09
-4.83458e-09
2.84661e-09
-7.2122e-09
3.21011e-09
-9.69775e-09
3.35206e-09
-1.21479e-08
3.3064e-09
-1.44984e-08
3.17577e-09
-1.67588e-08
3.06055e-09
-1.89758e-08
3.00132e-09
-2.11882e-08
2.9988e-09
-2.34221e-08
3.02771e-09
-2.56789e-08
3.06399e-09
-2.79488e-08
3.08756e-09
-3.02154e-08
3.09167e-09
-3.24661e-08
3.07913e-09
-3.4691e-08
3.0551e-09
-3.68985e-08
3.03787e-09
-3.90946e-08
3.03641e-09
-4.13047e-08
3.06136e-09
-4.35486e-08
3.12145e-09
-4.5855e-08
3.21851e-09
-4.82542e-08
3.35652e-09
-5.07757e-08
3.5392e-09
-5.3452e-08
3.76364e-09
-5.63207e-08
4.0401e-09
-5.94146e-08
4.36634e-09
-6.27788e-08
4.75061e-09
-6.64565e-08
5.20039e-09
-7.04972e-08
5.72083e-09
-7.4964e-08
6.32651e-09
-7.99218e-08
7.03311e-09
-8.54558e-08
7.85315e-09
-9.16603e-08
8.81628e-09
-9.86537e-08
9.94687e-09
-1.06581e-07
1.12916e-08
-1.15617e-07
1.28832e-08
-1.25999e-07
1.48317e-08
-1.37978e-07
1.71133e-08
-1.51986e-07
2.00674e-08
-1.68351e-07
2.33872e-08
-1.87932e-07
2.80845e-08
-2.1099e-07
3.29211e-08
-2.39511e-07
4.07532e-08
-2.72808e-07
4.74742e-08
-3.16325e-07
6.14728e-08
-3.64655e-07
6.8368e-08
-4.34164e-07
9.71802e-08
-5.00646e-07
8.29765e-08
2.284e-07
-5.94535e-07
-1.69202e-10
6.07428e-10
-1.08285e-09
2.19273e-09
-3.07361e-09
4.18896e-09
-6.02672e-09
5.7975e-09
-9.59364e-09
6.77495e-09
-1.34428e-08
7.1987e-09
-1.73043e-08
7.16531e-09
-2.10279e-08
6.89488e-09
-2.4591e-08
6.6198e-09
-2.80511e-08
6.45491e-09
-3.14725e-08
6.41521e-09
-3.49018e-08
6.4503e-09
-3.83473e-08
6.50401e-09
-4.17949e-08
6.52948e-09
-4.52172e-08
6.50875e-09
-4.85912e-08
6.44737e-09
-5.19006e-08
6.36019e-09
-5.51525e-08
6.28252e-09
-5.83569e-08
6.23686e-09
-6.15466e-08
6.2442e-09
-6.47512e-08
6.32138e-09
-6.80103e-08
6.47359e-09
-7.13662e-08
6.70769e-09
-7.48615e-08
7.03118e-09
-7.85431e-08
7.44148e-09
-8.2464e-08
7.95556e-09
-8.66744e-08
8.57308e-09
-9.12382e-08
9.30872e-09
-9.62187e-08
1.01759e-08
-1.01688e-07
1.11869e-08
-1.07731e-07
1.23643e-08
-1.14441e-07
1.37408e-08
-1.21928e-07
1.53345e-08
-1.30323e-07
1.72083e-08
-1.39775e-07
1.93934e-08
-1.50483e-07
2.19971e-08
-1.62665e-07
2.50605e-08
-1.76638e-07
2.88034e-08
-1.92742e-07
3.3213e-08
-2.115e-07
3.88267e-08
-2.33446e-07
4.53284e-08
-2.59572e-07
5.42149e-08
-2.90436e-07
6.3777e-08
-3.28623e-07
7.89466e-08
-3.73128e-07
9.19661e-08
-4.32112e-07
1.20456e-07
-4.97934e-07
1.34166e-07
-5.9109e-07
1.9032e-07
-6.98194e-07
1.90057e-07
3.34153e-07
-8.03966e-07
-7.56583e-11
6.81802e-10
-7.33041e-10
2.84727e-09
-2.50507e-09
5.95858e-09
-5.56376e-09
8.85388e-09
-9.6632e-09
1.08722e-08
-1.4399e-08
1.19319e-08
-1.93676e-08
1.21312e-08
-2.42814e-08
1.18039e-08
-2.90153e-08
1.13497e-08
-3.35799e-08
1.10126e-08
-3.80359e-08
1.0866e-08
-4.24472e-08
1.08546e-08
-4.68397e-08
1.08908e-08
-5.12083e-08
1.08923e-08
-5.55256e-08
1.08206e-08
-5.9763e-08
1.06787e-08
-6.38984e-08
1.04911e-08
-6.7935e-08
1.03115e-08
-7.18818e-08
1.01796e-08
-7.57736e-08
1.01289e-08
-7.96434e-08
1.01863e-08
-8.35353e-08
1.03613e-08
-8.7497e-08
1.06645e-08
-9.15775e-08
1.11081e-08
-9.58316e-08
1.16918e-08
-1.00322e-07
1.24404e-08
-1.05111e-07
1.33582e-08
-1.10276e-07
1.44678e-08
-1.15895e-07
1.57901e-08
-1.22058e-07
1.73468e-08
-1.28867e-07
1.91676e-08
-1.36434e-07
2.13057e-08
-1.44887e-07
2.37818e-08
-1.54381e-07
2.66992e-08
-1.65083e-07
3.00895e-08
-1.77223e-07
3.41336e-08
-1.91042e-07
3.88747e-08
-2.06893e-07
4.46539e-08
-2.25171e-07
5.14868e-08
-2.46434e-07
6.00906e-08
-2.71321e-07
7.0211e-08
-3.00908e-07
8.38064e-08
-3.35837e-07
9.86973e-08
-3.79106e-07
1.22222e-07
-4.29539e-07
1.42386e-07
-4.9611e-07
1.87026e-07
-5.72586e-07
2.10617e-07
-6.7518e-07
2.92896e-07
-8.0585e-07
3.20704e-07
4.64385e-07
-9.36101e-07
-4.36989e-11
7.24137e-10
-4.24144e-10
3.22478e-09
-1.66538e-09
7.19732e-09
-4.18661e-09
1.13727e-08
-8.02428e-09
1.47076e-08
-1.29149e-08
1.68198e-08
-1.84454e-08
1.76588e-08
-2.42107e-08
1.75642e-08
-2.99304e-08
1.70652e-08
-3.54883e-08
1.65634e-08
-4.0876e-08
1.62483e-08
-4.61403e-08
1.61116e-08
-5.13191e-08
1.60636e-08
-5.64272e-08
1.59943e-08
-6.14519e-08
1.58396e-08
-6.6371e-08
1.55916e-08
-7.1163e-08
1.52784e-08
-7.58283e-08
1.4969e-08
-8.03729e-08
1.47199e-08
-8.48292e-08
1.45779e-08
-8.92286e-08
1.45806e-08
-9.36137e-08
1.47421e-08
-9.80311e-08
1.50769e-08
-1.02528e-07
1.56019e-08
-1.07161e-07
1.63206e-08
-1.11993e-07
1.72668e-08
-1.17092e-07
1.84523e-08
-1.2254e-07
1.99102e-08
-1.28427e-07
2.16713e-08
-1.34853e-07
2.37697e-08
-1.41934e-07
2.62428e-08
-1.49797e-07
2.91671e-08
-1.58585e-07
3.25641e-08
-1.68471e-07
3.65814e-08
-1.79635e-07
4.12474e-08
-1.92325e-07
4.68208e-08
-2.06803e-07
5.33481e-08
-2.23436e-07
6.12859e-08
-2.42654e-07
7.07006e-08
-2.65025e-07
8.24634e-08
-2.9124e-07
9.6421e-08
-3.22423e-07
1.14994e-07
-3.59248e-07
1.35514e-07
-4.04783e-07
1.67764e-07
-4.58325e-07
1.95915e-07
-5.27552e-07
2.56251e-07
-6.10544e-07
2.93584e-07
-7.15817e-07
3.98151e-07
-8.56345e-07
4.61209e-07
6.15498e-07
-1.00748e-06
-5.38099e-11
7.7652e-10
-2.79126e-10
3.44707e-09
-1.02594e-09
7.94158e-09
-2.76597e-09
1.31103e-08
-5.78638e-09
1.77257e-08
-1.00969e-08
2.11275e-08
-1.54613e-08
2.30201e-08
-2.14973e-08
2.35952e-08
-2.78173e-08
2.33808e-08
-3.41464e-08
2.28851e-08
-4.03394e-08
2.24357e-08
-4.63637e-08
2.21285e-08
-5.22331e-08
2.19269e-08
-5.79717e-08
2.17268e-08
-6.35877e-08
2.14498e-08
-6.90768e-08
2.10742e-08
-7.44281e-08
2.0625e-08
-7.96457e-08
2.01785e-08
-8.47346e-08
1.98044e-08
-8.97247e-08
1.95607e-08
-9.4644e-08
1.94947e-08
-9.95306e-08
1.96243e-08
-1.04426e-07
1.99669e-08
-1.0937e-07
2.05425e-08
-1.14412e-07
2.1358e-08
-1.19607e-07
2.24559e-08
-1.25016e-07
2.38576e-08
-1.30721e-07
2.56093e-08
-1.3681e-07
2.7755e-08
-1.43389e-07
3.03457e-08
-1.50581e-07
3.34288e-08
-1.58524e-07
3.71075e-08
-1.67371e-07
4.14057e-08
-1.7731e-07
4.65167e-08
-1.88536e-07
5.24672e-08
-2.01307e-07
5.95895e-08
-2.15908e-07
6.79438e-08
-2.32706e-07
7.80835e-08
-2.52165e-07
9.01545e-08
-2.74848e-07
1.05148e-07
-3.01481e-07
1.23049e-07
-3.33181e-07
1.46697e-07
-3.70743e-07
1.73068e-07
-4.16899e-07
2.13926e-07
-4.7205e-07
2.51053e-07
-5.41449e-07
3.25649e-07
-6.27832e-07
3.79942e-07
-7.33686e-07
5.03987e-07
-8.77486e-07
6.04986e-07
7.78018e-07
-1.04003e-06
-6.92426e-11
8.44285e-10
-2.54729e-10
3.62945e-09
-7.14174e-10
8.39841e-09
-1.80492e-09
1.41986e-08
-3.89566e-09
1.98141e-08
-7.22453e-09
2.44535e-08
-1.18176e-08
2.76101e-08
-1.74685e-08
2.92408e-08
-2.38173e-08
2.97252e-08
-3.04958e-08
2.95561e-08
-3.72167e-08
2.91509e-08
-4.38243e-08
2.87285e-08
-5.02596e-08
2.8356e-08
-5.65239e-08
2.79848e-08
-6.26328e-08
2.75528e-08
-6.86006e-08
2.70355e-08
-7.44333e-08
2.64528e-08
-8.01455e-08
2.58824e-08
-8.57466e-08
2.54011e-08
-9.12674e-08
2.5074e-08
-9.67347e-08
2.49567e-08
-1.02184e-07
2.5069e-08
-1.07651e-07
2.54288e-08
-1.13168e-07
2.60561e-08
-1.18773e-07
2.69583e-08
-1.24506e-07
2.81832e-08
-1.30414e-07
2.97611e-08
-1.36562e-07
3.17517e-08
-1.43028e-07
3.42152e-08
-1.4991e-07
3.72242e-08
-1.57328e-07
4.08405e-08
-1.65421e-07
4.5199e-08
-1.74352e-07
5.03306e-08
-1.84313e-07
5.64746e-08
-1.95516e-07
6.36638e-08
-2.08224e-07
7.22944e-08
-2.22743e-07
8.24575e-08
-2.39437e-07
9.47769e-08
-2.58798e-07
1.09512e-07
-2.81377e-07
1.27729e-07
-3.07941e-07
1.49609e-07
-3.3953e-07
1.7829e-07
-3.77157e-07
2.10688e-07
-4.23002e-07
2.59777e-07
-4.78656e-07
3.06694e-07
-5.47168e-07
3.9416e-07
-6.34396e-07
4.67144e-07
-7.39858e-07
6.09431e-07
-8.82148e-07
7.47253e-07
9.4758e-07
-1.05173e-06
-7.44111e-11
9.17176e-10
-2.73294e-10
3.82517e-09
-6.35028e-10
8.75748e-09
-1.35875e-09
1.49198e-08
-2.74891e-09
2.12018e-08
-5.12443e-09
2.68261e-08
-8.71622e-09
3.11988e-08
-1.35448e-08
3.40641e-08
-1.93946e-08
3.55705e-08
-2.59179e-08
3.60718e-08
-3.27521e-08
3.59792e-08
-3.96317e-08
3.56004e-08
-4.64046e-08
3.51225e-08
-5.3019e-08
3.45927e-08
-5.94747e-08
3.40024e-08
-6.57925e-08
3.33466e-08
-7.19926e-08
3.2648e-08
-7.81021e-08
3.19837e-08
-8.41395e-08
3.14338e-08
-9.01401e-08
3.1067e-08
-9.61341e-08
3.09452e-08
-1.02158e-07
3.10889e-08
-1.0825e-07
3.15148e-08
-1.14437e-07
3.22394e-08
-1.20748e-07
3.32651e-08
-1.2721e-07
3.46388e-08
-1.33847e-07
3.63946e-08
-1.40704e-07
3.86023e-08
-1.47832e-07
4.13376e-08
-1.55308e-07
4.46974e-08
-1.63236e-07
4.87625e-08
-1.71744e-07
5.37045e-08
-1.8099e-07
5.95701e-08
-1.91163e-07
6.66448e-08
-2.02486e-07
7.49803e-08
-2.15218e-07
8.5024e-08
-2.29687e-07
9.69216e-08
-2.46246e-07
1.11335e-07
-2.65414e-07
1.28676e-07
-2.87714e-07
1.5003e-07
-3.13955e-07
1.75846e-07
-3.45078e-07
2.09418e-07
-3.82281e-07
2.47883e-07
-4.27269e-07
3.04771e-07
-4.8242e-07
3.61831e-07
-5.49394e-07
4.61133e-07
-6.35492e-07
5.53217e-07
-7.39157e-07
7.13077e-07
-8.77691e-07
8.85766e-07
1.11881e-06
-1.04894e-06
-7.23735e-11
9.8799e-10
-2.87243e-10
4.03681e-09
-6.49567e-10
9.11709e-09
-1.24917e-09
1.55168e-08
-2.26695e-09
2.22171e-08
-3.98489e-09
2.8541e-08
-6.71542e-09
3.39262e-08
-1.06479e-08
3.79911e-08
-1.57386e-08
4.06565e-08
-2.17403e-08
4.20657e-08
-2.83002e-08
4.25331e-08
-3.50992e-08
4.23916e-08
-4.19127e-08
4.19295e-08
-4.86311e-08
4.13046e-08
-5.52238e-08
4.0589e-08
-6.17048e-08
3.98208e-08
-6.81007e-08
3.90388e-08
-7.44484e-08
3.83231e-08
-8.07755e-08
3.77562e-08
-8.71243e-08
3.74083e-08
-9.35313e-08
3.73466e-08
-1.0004e-07
3.75934e-08
-1.06695e-07
3.8164e-08
-1.13529e-07
3.90696e-08
-1.20571e-07
4.03032e-08
-1.27841e-07
4.19027e-08
-1.35349e-07
4.38974e-08
-1.43111e-07
4.63588e-08
-1.51151e-07
4.93718e-08
-1.59512e-07
5.30554e-08
-1.68267e-07
5.75115e-08
-1.77516e-07
6.2951e-08
-1.87398e-07
6.94465e-08
-1.98087e-07
7.73297e-08
-2.09801e-07
8.66884e-08
-2.22788e-07
9.80086e-08
-2.37388e-07
1.11517e-07
-2.53935e-07
1.27882e-07
-2.72964e-07
1.47701e-07
-2.94971e-07
1.72039e-07
-3.20771e-07
2.01641e-07
-3.5124e-07
2.39891e-07
-3.87628e-07
2.84264e-07
-4.31357e-07
3.48506e-07
-4.8514e-07
4.15602e-07
-5.49845e-07
5.25838e-07
-6.33242e-07
6.36588e-07
-7.33446e-07
8.13264e-07
-8.66037e-07
1.01833e-06
1.28663e-06
-1.03387e-06
-6.91783e-11
1.05557e-09
-2.90693e-10
4.25505e-09
-6.7557e-10
9.49921e-09
-1.27449e-09
1.61131e-08
-2.17399e-09
2.31141e-08
-3.56918e-09
2.99331e-08
-5.75875e-09
3.61125e-08
-9.00592e-09
4.12328e-08
-1.33871e-08
4.50329e-08
-1.87663e-08
4.7437e-08
-2.48505e-08
4.86113e-08
-3.13235e-08
4.88567e-08
-3.79283e-08
4.85277e-08
-4.45164e-08
4.7886e-08
-5.10295e-08
4.70958e-08
-5.74698e-08
4.62543e-08
-6.38645e-08
4.54284e-08
-7.02566e-08
4.47068e-08
-7.66812e-08
4.41759e-08
-8.31874e-08
4.39069e-08
-8.98192e-08
4.39726e-08
-9.6629e-08
4.43989e-08
-1.03673e-07
4.52022e-08
-1.10997e-07
4.63899e-08
-1.18642e-07
4.79444e-08
-1.26634e-07
4.98883e-08
-1.34978e-07
5.2237e-08
-1.43677e-07
5.50515e-08
-1.52726e-07
5.8415e-08
-1.62133e-07
6.24597e-08
-1.71933e-07
6.7305e-08
-1.82182e-07
7.31982e-08
-1.92989e-07
8.02471e-08
-2.0449e-07
8.88272e-08
-2.16888e-07
9.90813e-08
-2.30405e-07
1.11523e-07
-2.45377e-07
1.26483e-07
-2.62114e-07
1.44619e-07
-2.81139e-07
1.66722e-07
-3.02938e-07
1.93839e-07
-3.28268e-07
2.26966e-07
-3.5799e-07
2.69618e-07
-3.93285e-07
3.19552e-07
-4.35391e-07
3.90619e-07
-4.87116e-07
4.67314e-07
-5.48759e-07
5.8748e-07
-6.28063e-07
7.15868e-07
-7.23151e-07
9.08335e-07
-8.47434e-07
1.1426e-06
1.44627e-06
-1.00709e-06
-6.74866e-11
1.12143e-09
-2.90213e-10
4.47445e-09
-6.92329e-10
9.89852e-09
-1.3254e-09
1.67436e-08
-2.23295e-09
2.40192e-08
-3.54091e-09
3.1238e-08
-5.49689e-09
3.80652e-08
-8.36266e-09
4.40929e-08
-1.22679e-08
4.89333e-08
-1.71516e-08
5.23127e-08
-2.27801e-08
5.42336e-08
-2.88667e-08
5.49353e-08
-3.51546e-08
5.48089e-08
-4.14808e-08
5.42054e-08
-4.7772e-08
5.33807e-08
-5.40222e-08
5.24976e-08
-6.02585e-08
5.16593e-08
-6.6528e-08
5.09678e-08
-7.28722e-08
5.05151e-08
-7.9346e-08
5.03732e-08
-8.6e-08
5.06208e-08
-9.28953e-08
5.12898e-08
-1.001e-07
5.24019e-08
-1.07679e-07
5.39647e-08
-1.15692e-07
5.5953e-08
-1.24182e-07
5.83723e-08
-1.33167e-07
6.12174e-08
-1.42649e-07
6.45278e-08
-1.52612e-07
6.83713e-08
-1.63034e-07
7.28792e-08
-1.73914e-07
7.81788e-08
-1.85263e-07
8.4545e-08
-1.97145e-07
9.21234e-08
-2.0965e-07
1.01329e-07
-2.22948e-07
1.12373e-07
-2.3722e-07
1.25793e-07
-2.52777e-07
1.42034e-07
-2.69907e-07
1.61748e-07
-2.89084e-07
1.85897e-07
-3.10794e-07
2.1555e-07
-3.35692e-07
2.5186e-07
-3.64628e-07
2.9856e-07
-3.98667e-07
3.53584e-07
-4.38854e-07
4.30812e-07
-4.87985e-07
5.16434e-07
-5.45878e-07
6.45373e-07
-6.19881e-07
7.89847e-07
-7.08333e-07
9.9677e-07
-8.22189e-07
1.25643e-06
1.59342e-06
-9.69349e-07
-6.69345e-11
1.18671e-09
-2.90859e-10
4.69501e-09
-7.03006e-10
1.03078e-08
-1.36868e-09
1.74066e-08
-2.32282e-09
2.49708e-08
-3.65553e-09
3.25676e-08
-5.57273e-09
3.99791e-08
-8.3117e-09
4.68262e-08
-1.20036e-08
5.26203e-08
-1.66143e-08
5.69152e-08
-2.19462e-08
5.95592e-08
-2.77395e-08
6.07204e-08
-3.37499e-08
6.08124e-08
-3.9815e-08
6.02638e-08
-4.58582e-08
5.94174e-08
-5.18712e-08
5.85035e-08
-5.78823e-08
5.76651e-08
-6.39432e-08
5.70202e-08
-7.01009e-08
5.66676e-08
-7.64155e-08
5.66803e-08
-8.29426e-08
5.71421e-08
-8.97501e-08
5.80928e-08
-9.69168e-08
5.95631e-08
-1.04523e-07
6.15667e-08
-1.12651e-07
6.40765e-08
-1.21369e-07
6.70837e-08
-1.30717e-07
7.05611e-08
-1.40714e-07
7.45193e-08
-1.51347e-07
7.89984e-08
-1.62585e-07
8.41136e-08
-1.74398e-07
8.99866e-08
-1.86761e-07
9.69048e-08
-1.99692e-07
1.05049e-07
-2.13229e-07
1.14863e-07
-2.27499e-07
1.26637e-07
-2.42635e-07
1.40927e-07
-2.58902e-07
1.58297e-07
-2.7656e-07
1.79407e-07
-2.96013e-07
2.05346e-07
-3.17738e-07
2.37277e-07
-3.42273e-07
2.76391e-07
-3.70425e-07
3.26717e-07
-4.03146e-07
3.86298e-07
-4.41232e-07
4.68905e-07
-4.8741e-07
5.62601e-07
-5.41088e-07
6.9905e-07
-6.08903e-07
8.5764e-07
-6.89525e-07
1.07738e-06
-7.91386e-07
1.35827e-06
1.72468e-06
-9.22667e-07
-6.65723e-11
1.25159e-09
-2.93504e-10
4.91854e-09
-7.13597e-10
1.07251e-08
-1.40504e-09
1.80953e-08
-2.40754e-09
2.59707e-08
-3.80002e-09
3.39568e-08
-5.76819e-09
4.19439e-08
-8.52788e-09
4.95801e-08
-1.21961e-08
5.62835e-08
-1.67363e-08
6.14473e-08
-2.19595e-08
6.4776e-08
-2.76178e-08
6.63704e-08
-3.34759e-08
6.66635e-08
-3.93756e-08
6.61566e-08
-4.52415e-08
6.52768e-08
-5.10665e-08
6.43215e-08
-5.6882e-08
6.34751e-08
-6.27432e-08
6.2873e-08
-6.87023e-08
6.26215e-08
-7.48236e-08
6.27942e-08
-8.11666e-08
6.34792e-08
-8.78031e-08
6.47249e-08
-9.48186e-08
6.65731e-08
-1.02305e-07
6.9049e-08
-1.10364e-07
7.21306e-08
-1.19087e-07
7.58008e-08
-1.28544e-07
8.00134e-08
-1.38778e-07
8.47478e-08
-1.49795e-07
9.00089e-08
-1.61566e-07
9.58823e-08
-1.74057e-07
1.02471e-07
-1.87212e-07
1.10058e-07
-2.01018e-07
1.18849e-07
-2.15466e-07
1.29308e-07
-2.30632e-07
1.41798e-07
-2.46606e-07
1.56899e-07
-2.63591e-07
1.75277e-07
-2.81816e-07
1.97632e-07
-3.01602e-07
2.25129e-07
-3.23403e-07
2.5908e-07
-3.47645e-07
3.0063e-07
-3.75047e-07
3.54124e-07
-4.06467e-07
4.17713e-07
-4.42421e-07
5.04866e-07
-4.85488e-07
6.05659e-07
-5.34774e-07
7.48336e-07
-5.95965e-07
9.1881e-07
-6.68075e-07
1.14947e-06
-7.5712e-07
1.4473e-06
1.83801e-06
-8.70462e-07
-6.59843e-11
1.31586e-09
-2.97365e-10
5.14649e-09
-7.26126e-10
1.11509e-08
-1.44054e-09
1.8807e-08
-2.48665e-09
2.70142e-08
-3.94299e-09
3.54099e-08
-5.99037e-09
4.39879e-08
-8.83546e-09
5.24193e-08
-1.25822e-08
6.00251e-08
-1.71826e-08
6.60393e-08
-2.24407e-08
7.00275e-08
-2.81073e-08
7.20287e-08
-3.3948e-08
7.24972e-08
-3.98064e-08
7.20081e-08
-4.56083e-08
7.1072e-08
-5.13474e-08
7.00535e-08
-5.7057e-08
6.91791e-08
-6.27953e-08
6.86029e-08
-6.86185e-08
6.84392e-08
-7.45934e-08
6.87617e-08
-8.07825e-08
6.96623e-08
-8.72591e-08
7.1197e-08
-9.41109e-08
7.34193e-08
-1.01437e-07
7.63712e-08
-1.09352e-07
8.00406e-08
-1.17966e-07
8.44091e-08
-1.27375e-07
8.94173e-08
-1.37648e-07
9.50152e-08
-1.48815e-07
1.0117e-07
-1.60864e-07
1.07929e-07
-1.73766e-07
1.15367e-07
-1.87455e-07
1.23745e-07
-2.01895e-07
1.33284e-07
-2.17045e-07
1.44455e-07
-2.32938e-07
1.57684e-07
-2.49619e-07
1.73578e-07
-2.67234e-07
1.92888e-07
-2.85978e-07
2.16376e-07
-3.06089e-07
2.45238e-07
-3.2798e-07
2.80973e-07
-3.51985e-07
3.24632e-07
-3.78699e-07
3.80844e-07
-4.08905e-07
4.47914e-07
-4.42837e-07
5.38805e-07
-4.82856e-07
6.45668e-07
-5.27875e-07
7.93354e-07
-5.82495e-07
9.7341e-07
-6.46019e-07
1.21298e-06
-7.22267e-07
1.52352e-06
1.93285e-06
-8.17114e-07
-6.51997e-11
1.37932e-09
-3.00034e-10
5.37786e-09
-7.40307e-10
1.15883e-08
-1.47799e-09
1.9542e-08
-2.56562e-09
2.80992e-08
-4.08412e-09
3.69252e-08
-6.21594e-09
4.61162e-08
-9.16726e-09
5.53647e-08
-1.30351e-08
6.38877e-08
-1.77602e-08
7.0756e-08
-2.3136e-08
7.53967e-08
-2.89054e-08
7.77897e-08
-3.483e-08
7.84147e-08
-4.07512e-08
7.79222e-08
-4.6594e-08
7.6908e-08
-5.23518e-08
7.58042e-08
-5.80588e-08
7.48803e-08
-6.37744e-08
7.43102e-08
-6.95565e-08
7.42158e-08
-7.54746e-08
7.46725e-08
-8.15909e-08
7.57725e-08
-8.79794e-08
7.75812e-08
-9.47308e-08
8.01652e-08
-1.01945e-07
8.35811e-08
-1.09741e-07
8.78323e-08
-1.18244e-07
9.29062e-08
-1.27567e-07
9.87347e-08
-1.37798e-07
1.05241e-07
-1.48993e-07
1.12359e-07
-1.6116e-07
1.20093e-07
-1.7428e-07
1.28481e-07
-1.88291e-07
1.37754e-07
-2.03149e-07
1.48136e-07
-2.1879e-07
1.60093e-07
-2.35214e-07
1.74103e-07
-2.52437e-07
1.908e-07
-2.70552e-07
2.10998e-07
-2.89717e-07
2.35542e-07
-3.10106e-07
2.65624e-07
-3.32074e-07
3.02943e-07
-3.55889e-07
3.48444e-07
-3.82003e-07
4.06963e-07
-4.11138e-07
4.77044e-07
-4.43277e-07
5.7095e-07
-4.80502e-07
6.82885e-07
-5.2164e-07
8.34492e-07
-5.70181e-07
1.02193e-06
-6.25624e-07
1.26841e-06
-6.89913e-07
1.58779e-06
2.00995e-06
-7.67023e-07
-6.43529e-11
1.44191e-09
-3.02307e-10
5.61234e-09
-7.5558e-10
1.20386e-08
-1.51771e-09
2.03014e-08
-2.64725e-09
2.92261e-08
-4.22788e-09
3.85025e-08
-6.44509e-09
4.83299e-08
-9.50828e-09
5.84219e-08
-1.35118e-08
6.78859e-08
-1.83878e-08
7.56236e-08
-2.39196e-08
8.09216e-08
-2.98411e-08
8.37028e-08
-3.59082e-08
8.44745e-08
-4.19584e-08
8.39653e-08
-4.79149e-08
8.28577e-08
-5.377e-08
8.16523e-08
-5.95578e-08
8.06622e-08
-6.53377e-08
8.00817e-08
-7.11692e-08
8.00416e-08
-7.71216e-08
8.06177e-08
-8.32599e-08
8.19047e-08
-8.96567e-08
8.39736e-08
-9.64008e-08
8.69037e-08
-1.03593e-07
9.07688e-08
-1.11356e-07
9.55909e-08
-1.19818e-07
1.01362e-07
-1.29101e-07
1.08013e-07
-1.39314e-07
1.15449e-07
-1.50526e-07
1.23565e-07
-1.62762e-07
1.32326e-07
-1.76017e-07
1.4173e-07
-1.90236e-07
1.51971e-07
-2.05371e-07
1.63266e-07
-2.21352e-07
1.76072e-07
-2.38157e-07
1.90903e-07
-2.5578e-07
2.08422e-07
-2.74273e-07
2.29487e-07
-2.93767e-07
2.55037e-07
-3.14383e-07
2.86238e-07
-3.36415e-07
3.24978e-07
-3.6009e-07
3.72117e-07
-3.85716e-07
4.32596e-07
-4.13961e-07
5.05285e-07
-4.44609e-07
6.01606e-07
-4.79429e-07
7.17698e-07
-5.17246e-07
8.72308e-07
-5.60504e-07
1.06517e-06
-6.08788e-07
1.31668e-06
-6.62526e-07
1.64151e-06
2.0711e-06
-7.23692e-07
-6.35299e-11
1.50365e-09
-3.04679e-10
5.85e-09
-7.7172e-10
1.25026e-08
-1.55943e-09
2.10863e-08
-2.73208e-09
3.0396e-08
-4.37652e-09
4.01436e-08
-6.68104e-09
5.06309e-08
-9.85912e-09
6.15939e-08
-1.40041e-08
7.20255e-08
-1.90415e-08
8.06524e-08
-2.47449e-08
8.66182e-08
-3.08405e-08
8.97899e-08
-3.70782e-08
9.07048e-08
-4.3292e-08
9.0172e-08
-4.94031e-08
8.89619e-08
-5.54029e-08
8.76449e-08
-6.1325e-08
8.65784e-08
-6.72289e-08
8.59774e-08
-7.31748e-08
8.59818e-08
-7.92328e-08
8.66686e-08
-8.54681e-08
8.8134e-08
-9.19543e-08
9.04553e-08
-9.87797e-08
9.37236e-08
-1.06045e-07
9.80302e-08
-1.13873e-07
1.03414e-07
-1.22396e-07
1.09879e-07
-1.3174e-07
1.17352e-07
-1.42017e-07
1.25721e-07
-1.53308e-07
1.34851e-07
-1.65649e-07
1.44664e-07
-1.79044e-07
1.5512e-07
-1.93446e-07
1.66371e-07
-2.08809e-07
1.78623e-07
-2.25059e-07
1.9232e-07
-2.42162e-07
2.08e-07
-2.601e-07
2.26359e-07
-2.78897e-07
2.48281e-07
-2.9866e-07
2.748e-07
-3.19473e-07
3.0705e-07
-3.41582e-07
3.47089e-07
-3.6518e-07
3.95713e-07
-3.90442e-07
4.57864e-07
-4.17993e-07
5.32832e-07
-4.47477e-07
6.31098e-07
-4.80336e-07
7.50549e-07
-5.15451e-07
9.07424e-07
-5.54348e-07
1.10405e-06
-5.9659e-07
1.35891e-06
-6.41439e-07
1.68634e-06
2.11866e-06
-6.89e-07
-6.27665e-11
1.56462e-09
-3.07221e-10
6.09096e-09
-7.88727e-10
1.29812e-08
-1.60302e-09
2.18979e-08
-2.82002e-09
3.16104e-08
-4.53059e-09
4.18508e-08
-6.92538e-09
5.30221e-08
-1.02219e-08
6.48843e-08
-1.4513e-08
7.63112e-08
-1.97175e-08
8.58483e-08
-2.56004e-08
9.24941e-08
-3.18801e-08
9.6061e-08
-3.83012e-08
9.71185e-08
-4.46947e-08
9.65583e-08
-5.09804e-08
9.52407e-08
-5.7149e-08
9.38064e-08
-6.32344e-08
9.26578e-08
-6.92964e-08
9.20312e-08
-7.5396e-08
9.20756e-08
-8.16043e-08
9.287e-08
-8.79875e-08
9.4511e-08
-9.46201e-08
9.70836e-08
-1.01592e-07
1.0069e-07
-1.09004e-07
1.05438e-07
-1.1698e-07
1.11385e-07
-1.25651e-07
1.18544e-07
-1.35147e-07
1.26843e-07
-1.45583e-07
1.36152e-07
-1.57044e-07
1.46306e-07
-1.69567e-07
1.57185e-07
-1.83163e-07
1.68711e-07
-1.97787e-07
1.80993e-07
-2.13394e-07
1.94226e-07
-2.29913e-07
2.08836e-07
-2.47297e-07
2.2538e-07
-2.65525e-07
2.44586e-07
-2.84603e-07
2.67356e-07
-3.04615e-07
2.94813e-07
-3.25636e-07
3.2807e-07
-3.47829e-07
3.69285e-07
-3.71401e-07
4.19284e-07
-3.9645e-07
4.8292e-07
-4.23504e-07
5.59884e-07
-4.52132e-07
6.59733e-07
-4.83453e-07
7.81865e-07
-5.16439e-07
9.4041e-07
-5.51856e-07
1.13945e-06
-5.8913e-07
1.39617e-06
-6.26689e-07
1.72389e-06
2.15502e-06
-6.6306e-07
-6.20801e-11
1.62489e-09
-3.09976e-10
6.33537e-09
-8.06653e-10
1.34749e-08
-1.6485e-09
2.2737e-08
-2.91098e-09
3.28702e-08
-4.6901e-09
4.36266e-08
-7.17855e-09
5.55069e-08
-1.05975e-08
6.82971e-08
-1.50396e-08
8.07478e-08
-2.04168e-08
9.12168e-08
-2.64851e-08
9.85554e-08
-3.29552e-08
1.02522e-07
-3.95667e-08
1.03723e-07
-4.61481e-08
1.03132e-07
-5.26181e-08
1.01704e-07
-5.89674e-08
1.00149e-07
-6.52305e-08
9.89148e-08
-7.14679e-08
9.82607e-08
-7.77421e-08
9.83439e-08
-8.41251e-08
9.92462e-08
-9.06851e-08
1.01065e-07
-9.74981e-08
1.03892e-07
-1.04656e-07
1.07842e-07
-1.12262e-07
1.1304e-07
-1.20441e-07
1.1956e-07
-1.29327e-07
1.27424e-07
-1.39049e-07
1.36561e-07
-1.49722e-07
1.46821e-07
-1.61432e-07
1.58009e-07
-1.74216e-07
1.69966e-07
-1.88083e-07
1.82574e-07
-2.02992e-07
1.959e-07
-2.18893e-07
2.10122e-07
-2.35714e-07
2.25654e-07
-2.53405e-07
2.43067e-07
-2.71937e-07
2.63118e-07
-2.91309e-07
2.86725e-07
-3.11587e-07
3.15093e-07
-3.32832e-07
3.49314e-07
-3.55186e-07
3.91643e-07
-3.78827e-07
4.42923e-07
-4.03745e-07
5.07845e-07
-4.30443e-07
5.8658e-07
-4.58449e-07
6.87747e-07
-4.88574e-07
8.11985e-07
-5.19886e-07
9.71724e-07
-5.52528e-07
1.17208e-06
-5.85775e-07
1.42941e-06
-6.17439e-07
1.75553e-06
2.18221e-06
-6.44642e-07
-6.14869e-11
1.68455e-09
-3.1297e-10
6.58339e-09
-8.25544e-10
1.39845e-08
-1.69595e-09
2.36047e-08
-3.00496e-09
3.41765e-08
-4.85503e-09
4.54733e-08
-7.44063e-09
5.80889e-08
-1.09864e-08
7.18367e-08
-1.55845e-08
8.53404e-08
-2.114e-08
9.67636e-08
-2.73995e-08
1.04808e-07
-3.40657e-08
1.0918e-07
-4.08733e-08
1.10523e-07
-4.76482e-08
1.099e-07
-5.43086e-08
1.08357e-07
-6.08452e-08
1.06678e-07
-6.72937e-08
1.05357e-07
-7.37157e-08
1.04675e-07
-8.01755e-08
1.04798e-07
-8.67462e-08
1.0581e-07
-9.34984e-08
1.07811e-07
-1.0051e-07
1.109e-07
-1.07876e-07
1.15203e-07
-1.15703e-07
1.20863e-07
-1.2412e-07
1.27971e-07
-1.3326e-07
1.36559e-07
-1.43256e-07
1.46551e-07
-1.54221e-07
1.57781e-07
-1.66238e-07
1.70022e-07
-1.79344e-07
1.8307e-07
-1.93545e-07
1.9677e-07
-2.08794e-07
2.11147e-07
-2.2504e-07
2.26363e-07
-2.42207e-07
2.4282e-07
-2.60241e-07
2.61097e-07
-2.79109e-07
2.81985e-07
-2.98802e-07
3.06416e-07
-3.19371e-07
3.35664e-07
-3.40877e-07
3.7082e-07
-3.63413e-07
4.14182e-07
-3.87157e-07
4.66667e-07
-4.1205e-07
5.32745e-07
-4.3851e-07
6.13039e-07
-4.66058e-07
7.15303e-07
-4.95231e-07
8.41154e-07
-5.2516e-07
1.00165e-06
-5.55532e-07
1.20244e-06
-5.85314e-07
1.45918e-06
-6.11946e-07
1.78215e-06
2.20181e-06
-6.31557e-07
-6.10037e-11
1.74373e-09
-3.16227e-10
6.83517e-09
-8.45436e-10
1.45107e-08
-1.74544e-09
2.4502e-08
-3.102e-09
3.55305e-08
-5.0254e-09
4.73933e-08
-7.71166e-09
6.07715e-08
-1.13885e-08
7.55073e-08
-1.61479e-08
9.00941e-08
-2.18875e-08
1.02495e-07
-2.83441e-08
1.11257e-07
-3.52122e-08
1.1604e-07
-4.22214e-08
1.17524e-07
-4.9195e-08
1.16867e-07
-5.60508e-08
1.15206e-07
-6.27799e-08
1.134e-07
-6.94193e-08
1.1199e-07
-7.60319e-08
1.1128e-07
-8.26838e-08
1.11444e-07
-8.94499e-08
1.1257e-07
-9.64029e-08
1.14758e-07
-1.03624e-07
1.18117e-07
-1.11211e-07
1.22784e-07
-1.19274e-07
1.28922e-07
-1.27946e-07
1.36638e-07
-1.37364e-07
1.45972e-07
-1.47662e-07
1.56844e-07
-1.58951e-07
1.69067e-07
-1.71315e-07
1.8238e-07
-1.84784e-07
1.96537e-07
-1.9936e-07
2.11341e-07
-2.14992e-07
2.26778e-07
-2.31623e-07
2.4299e-07
-2.49173e-07
2.60368e-07
-2.67582e-07
2.79503e-07
-2.86813e-07
3.01217e-07
-3.06853e-07
3.26455e-07
-3.27739e-07
3.56552e-07
-3.49529e-07
3.9261e-07
-3.7228e-07
4.36937e-07
-3.96161e-07
4.90549e-07
-4.21073e-07
5.57664e-07
-4.47351e-07
6.39317e-07
-4.74521e-07
7.42482e-07
-5.02875e-07
8.69505e-07
-5.31578e-07
1.03036e-06
-5.59956e-07
1.23081e-06
-5.86699e-07
1.48592e-06
-6.08924e-07
1.80436e-06
2.2148e-06
-6.21924e-07
-6.06478e-11
1.80254e-09
-3.19765e-10
7.09088e-09
-8.66357e-10
1.50544e-08
-1.79703e-09
2.543e-08
-3.20231e-09
3.69331e-08
-5.2012e-09
4.93888e-08
-7.99166e-09
6.35583e-08
-1.18039e-08
7.93133e-08
-1.67296e-08
9.50142e-08
-2.26591e-08
1.08415e-07
-2.93189e-08
1.1791e-07
-3.63948e-08
1.23107e-07
-4.36112e-08
1.24733e-07
-5.07888e-08
1.24037e-07
-5.7845e-08
1.22255e-07
-6.47714e-08
1.2032e-07
-7.16066e-08
1.18819e-07
-7.84147e-08
1.18081e-07
-8.52641e-08
1.18287e-07
-9.22311e-08
1.19531e-07
-9.93912e-08
1.21912e-07
-1.06828e-07
1.25549e-07
-1.14644e-07
1.30595e-07
-1.22953e-07
1.37227e-07
-1.31892e-07
1.45573e-07
-1.41602e-07
1.55678e-07
-1.52218e-07
1.67455e-07
-1.63853e-07
1.80697e-07
-1.76585e-07
1.95107e-07
-1.90443e-07
2.10393e-07
-2.05421e-07
2.26315e-07
-2.21463e-07
2.42819e-07
-2.38504e-07
2.60027e-07
-2.56461e-07
2.78324e-07
-2.75268e-07
2.98307e-07
-2.94881e-07
3.2083e-07
-3.15285e-07
3.46857e-07
-3.36501e-07
3.77771e-07
-3.58585e-07
4.14695e-07
-3.81564e-07
4.5992e-07
-4.05592e-07
5.14578e-07
-4.30534e-07
5.82614e-07
-4.56644e-07
6.65428e-07
-4.83455e-07
7.69301e-07
-5.11035e-07
8.97084e-07
-5.38549e-07
1.05788e-06
-5.65046e-07
1.25729e-06
-5.88896e-07
1.50976e-06
-6.06995e-07
1.82244e-06
2.2218e-06
-6.13997e-07
-6.04356e-11
1.86116e-09
-3.23606e-10
7.35069e-09
-8.88334e-10
1.56162e-08
-1.85079e-09
2.63898e-08
-3.30628e-09
3.8386e-08
-5.38245e-09
5.14617e-08
-8.28061e-09
6.64528e-08
-1.22326e-08
8.32591e-08
-1.73297e-08
1.00106e-07
-2.34548e-08
1.14532e-07
-3.03239e-08
1.24772e-07
-3.76136e-08
1.30388e-07
-4.50429e-08
1.32155e-07
-5.24299e-08
1.31417e-07
-5.96916e-08
1.2951e-07
-6.68203e-08
1.27442e-07
-7.3856e-08
1.25849e-07
-8.08645e-08
1.25082e-07
-8.79163e-08
1.25333e-07
-9.50893e-08
1.26698e-07
-1.02462e-07
1.29279e-07
-1.1012e-07
1.33204e-07
-1.18171e-07
1.38641e-07
-1.26733e-07
1.45786e-07
-1.35948e-07
1.54783e-07
-1.4596e-07
1.65685e-07
-1.56907e-07
1.78397e-07
-1.689e-07
1.92687e-07
-1.82016e-07
2.08219e-07
-1.96278e-07
2.24653e-07
-2.11674e-07
2.41707e-07
-2.28142e-07
2.59286e-07
-2.45609e-07
2.77491e-07
-2.63987e-07
2.96701e-07
-2.83204e-07
3.17521e-07
-3.03208e-07
3.40836e-07
-3.23982e-07
3.6763e-07
-3.45531e-07
3.99323e-07
-3.67908e-07
4.37073e-07
-3.91113e-07
4.83129e-07
-4.15274e-07
5.38742e-07
-4.40236e-07
6.07583e-07
-4.6616e-07
6.91354e-07
-4.9258e-07
7.95731e-07
-5.19373e-07
9.23876e-07
-5.45659e-07
1.08416e-06
-5.70271e-07
1.2819e-06
-5.91259e-07
1.53074e-06
-6.05326e-07
1.8365e-06
2.2231e-06
-6.06639e-07
-6.03823e-11
1.91972e-09
-3.27768e-10
7.61478e-09
-9.11379e-10
1.61969e-08
-1.90673e-09
2.73826e-08
-3.41372e-09
3.98905e-08
-5.56913e-09
5.36138e-08
-8.57845e-09
6.94585e-08
-1.26746e-08
8.73491e-08
-1.7948e-08
1.05373e-07
-2.42746e-08
1.2085e-07
-3.13591e-08
1.31849e-07
-3.88685e-08
1.37889e-07
-4.65165e-08
1.39796e-07
-5.41184e-08
1.39012e-07
-6.15909e-08
1.36975e-07
-6.89268e-08
1.34771e-07
-7.61679e-08
1.33084e-07
-8.33817e-08
1.32289e-07
-9.06406e-08
1.32586e-07
-9.80247e-08
1.34076e-07
-1.05615e-07
1.36864e-07
-1.13501e-07
1.41086e-07
-1.21792e-07
1.46927e-07
-1.30614e-07
1.54604e-07
-1.40112e-07
1.64276e-07
-1.50434e-07
1.76003e-07
-1.61721e-07
1.89679e-07
-1.74082e-07
2.05045e-07
-1.87593e-07
2.21725e-07
-2.02271e-07
2.39329e-07
-2.18096e-07
2.57529e-07
-2.35001e-07
2.76189e-07
-2.52903e-07