/*--------------------------------*- C++ -*----------------------------------*\
  =========                 |
  \\      /  F ield         | OpenFOAM: The Open Source CFD Toolbox
   \\    /   O peration     | Website:  https://openfoam.org
    \\  /    A nd           | Version:  7
     \\/     M anipulation  |
\*---------------------------------------------------------------------------*/
FoamFile
{
    version     2.0;
    format      ascii;
    class       volScalarField;
    location    "0.23";
    object      nut;
}
// * * * * * * * * * * * * * * * * * * * * * * * * * * * * * * * * * * * * * //

dimensions      [0 2 -1 0 0 0 0];

internalField   nonuniform List<scalar> 
70000
(
9.96293e-12
6.88148e-14
2.56183e-16
8.60915e-17
4.79745e-17
7.88307e-17
2.77037e-17
1.29559e-17
8.78439e-18
6.41207e-18
4.69926e-18
3.50436e-18
2.67436e-18
2.0837e-18
1.65226e-18
1.33007e-18
1.08501e-18
8.95568e-19
7.47016e-19
6.2901e-19
5.34159e-19
4.57091e-19
3.93841e-19
3.4149e-19
2.97714e-19
2.60985e-19
2.29665e-19
2.03241e-19
1.80106e-19
1.60812e-19
1.43118e-19
1.29026e-19
1.15002e-19
1.04793e-19
9.36617e-20
8.56451e-20
7.86922e-20
6.86172e-20
7.29101e-20
4.8447e-20
9.05597e-20
1.84748e-20
2.27072e-19
8.39566e-23
1.71986e-18
1.18122e-18
3.40251e-17
9.06532e-17
4.65785e-15
6.27236e-13
1.04279e-10
5.98689e-12
6.44365e-14
2.14362e-14
2.8931e-16
1.70236e-17
2.53015e-17
2.1248e-17
1.23511e-17
7.35432e-18
4.82283e-18
3.36417e-18
2.43677e-18
1.81593e-18
1.38595e-18
1.07977e-18
8.5632e-19
6.89755e-19
5.63192e-19
4.6544e-19
3.88805e-19
3.27935e-19
2.79017e-19
2.3924e-19
2.06663e-19
1.79573e-19
1.5715e-19
1.37967e-19
1.22196e-19
1.08025e-19
9.68885e-20
8.58956e-20
7.81433e-20
6.92956e-20
6.37151e-20
5.73581e-20
5.11865e-20
5.13741e-20
3.6564e-20
5.92284e-20
1.48663e-20
1.30258e-19
3.13222e-23
8.38944e-19
5.29846e-19
1.49845e-17
4.20739e-17
5.27238e-16
1.7783e-14
8.32794e-14
3.19205e-10
3.39695e-12
1.90813e-13
1.99025e-14
7.68245e-16
5.88134e-17
7.43563e-18
4.27588e-18
2.1894e-18
1.09547e-18
6.1222e-19
3.77903e-19
2.47955e-19
1.69421e-19
1.19504e-19
8.66276e-20
6.431e-20
4.87651e-20
3.76769e-20
2.96085e-20
2.3629e-20
1.91268e-20
1.56889e-20
1.3024e-20
1.09456e-20
9.28456e-21
7.98322e-21
6.89096e-21
6.06596e-21
5.29419e-21
4.78744e-21
4.18423e-21
3.90028e-21
3.3858e-21
3.20021e-21
2.85684e-21
2.40432e-21
2.83384e-21
1.11286e-21
5.12277e-21
3.64125e-24
3.21563e-20
1.89996e-20
5.79239e-19
1.68236e-18
1.73782e-17
7.21991e-17
7.67999e-16
1.58706e-14
1.18652e-13
6.15393e-09
1.92707e-11
7.83645e-13
6.10638e-14
5.49581e-15
9.33369e-16
1.12037e-16
3.01886e-17
1.27352e-17
5.71444e-18
2.71011e-18
1.41579e-18
8.07289e-19
4.9019e-19
3.11705e-19
2.05683e-19
1.4005e-19
9.80079e-20
7.02788e-20
5.15212e-20
3.85509e-20
2.94056e-20
2.28459e-20
1.80662e-20
1.45364e-20
1.18965e-20
9.90026e-21
8.3755e-21
7.19587e-21
6.27875e-21
5.54055e-21
4.96273e-21
4.43798e-21
4.0395e-21
3.54084e-21
3.22008e-21
2.54028e-21
2.27296e-21
1.28847e-21
1.53601e-21
1.12657e-21
1.06244e-20
5.0323e-20
4.24945e-19
2.25958e-18
1.69462e-17
6.58357e-17
6.82408e-16
8.86246e-15
1.73216e-13
2.32293e-09
2.23299e-10
4.45237e-12
3.21605e-13
2.3064e-14
4.42734e-15
7.30777e-16
2.07158e-16
8.54394e-17
3.83558e-17
1.81973e-17
9.40007e-18
5.26951e-18
3.14568e-18
1.97021e-18
1.28307e-18
8.63731e-19
5.98456e-19
4.25401e-19
3.0945e-19
2.29927e-19
1.74247e-19
1.34545e-19
1.05762e-19
8.45948e-20
6.88267e-20
5.69372e-20
4.78946e-20
4.09126e-20
3.55267e-20
3.12012e-20
2.78769e-20
2.48831e-20
2.27087e-20
2.00258e-20
1.84295e-20
1.49969e-20
1.36158e-20
8.60293e-21
7.92293e-21
3.57365e-21
1.24591e-20
5.37788e-20
4.31376e-19
2.42779e-18
1.80704e-17
4.83541e-17
5.71217e-16
4.33665e-15
1.72396e-13
3.01249e-09
5.28716e-09
4.35654e-11
1.94436e-12
1.08115e-13
1.80857e-14
3.28117e-15
9.64654e-16
3.96218e-16
1.78804e-16
8.53819e-17
4.40675e-17
2.45375e-17
1.45137e-17
9.00136e-18
5.80526e-18
3.8717e-18
2.65913e-18
1.87471e-18
1.35326e-18
9.98233e-19
7.51288e-19
5.76245e-19
4.50006e-19
3.57594e-19
2.89016e-19
2.37502e-19
1.98418e-19
1.68375e-19
1.45214e-19
1.26801e-19
1.12595e-19
1.00189e-19
9.10682e-20
8.05634e-20
7.42419e-20
6.14971e-20
5.65849e-20
3.76108e-20
3.44639e-20
1.30808e-20
2.38567e-20
5.27748e-20
4.50484e-19
2.52527e-18
1.91782e-17
3.26594e-17
4.95109e-16
1.85481e-15
1.67206e-13
1.07678e-09
4.76448e-09
3.71779e-09
1.84945e-11
6.71371e-13
9.20667e-14
1.5338e-14
4.21142e-15
1.63935e-15
7.2056e-16
3.39637e-16
1.73461e-16
9.5563e-17
5.5929e-17
3.43323e-17
2.19242e-17
1.44843e-17
9.85874e-18
6.89111e-18
4.93389e-18
3.61118e-18
2.69749e-18
2.05395e-18
1.5925e-18
1.25644e-18
1.00815e-18
8.22376e-19
6.81865e-19
5.74221e-19
4.91392e-19
4.25907e-19
3.75344e-19
3.32016e-19
2.99862e-19
2.64933e-19
2.43128e-19
2.03709e-19
1.8711e-19
1.30523e-19
1.17076e-19
4.86616e-20
5.40999e-20
5.71137e-20
4.4682e-19
2.55315e-18
2.02304e-17
2.11521e-17
4.71514e-16
7.52188e-16
1.56948e-13
2.42808e-09
3.86906e-09
8.21972e-10
2.41815e-09
8.61018e-12
7.15555e-13
9.13713e-14
2.10057e-14
7.27014e-15
2.96287e-15
1.32679e-15
6.52453e-16
3.49037e-16
1.99528e-16
1.20129e-16
7.54624e-17
4.91477e-17
3.30324e-17
2.28283e-17
1.61763e-17
1.17272e-17
8.68237e-18
6.55558e-18
5.04192e-18
3.94673e-18
3.14217e-18
2.54311e-18
2.09175e-18
1.74727e-18
1.48274e-18
1.27465e-18
1.11374e-18
9.7806e-19
8.76086e-19
7.71195e-19
7.02393e-19
5.92411e-19
5.39871e-19
3.9059e-19
3.4291e-19
1.59139e-19
1.33593e-19
7.2562e-20
4.2555e-19
2.46833e-18
2.1696e-17
1.49931e-17
5.25339e-16
4.9532e-16
1.45014e-13
3.36965e-09
4.36975e-09
5.90523e-10
2.99612e-10
5.48053e-10
1.85932e-11
9.66028e-13
1.47856e-13
4.07268e-14
1.4353e-14
5.8003e-15
2.64121e-15
1.33177e-15
7.26744e-16
4.21545e-16
2.56853e-16
1.6309e-16
1.07281e-16
7.27825e-17
5.07492e-17
3.62707e-17
2.65133e-17
1.97889e-17
1.50591e-17
1.16719e-17
9.20534e-18
7.3827e-18
6.01778e-18
4.98188e-18
4.1891e-18
3.56908e-18
3.08928e-18
2.6905e-18
2.38719e-18
2.08976e-18
1.88515e-18
1.59411e-18
1.43688e-18
1.06692e-18
9.17164e-19
4.66105e-19
3.34837e-19
1.1552e-19
3.92681e-19
2.30176e-18
2.44361e-17
1.56604e-17
6.972e-16
8.6241e-16
1.39923e-13
3.41115e-09
4.60689e-09
6.71933e-10
1.93197e-10
4.70192e-11
6.72303e-11
3.11779e-10
2.86714e-12
4.01527e-13
1.01454e-13
3.33167e-14
1.31238e-14
5.94527e-15
2.98838e-15
1.62439e-15
9.39112e-16
5.71061e-16
3.62321e-16
2.38408e-16
1.61939e-16
1.13145e-16
8.10833e-17
5.94683e-17
4.45536e-17
3.40492e-17
2.65098e-17
2.10077e-17
1.69301e-17
1.38635e-17
1.15324e-17
9.72349e-18
8.32672e-18
7.18158e-18
6.30358e-18
5.47685e-18
4.88582e-18
4.12726e-18
3.67235e-18
2.77435e-18
2.3349e-18
1.27152e-18
8.30867e-19
2.29613e-19
3.53576e-19
2.13144e-18
3.00221e-17
2.72849e-17
1.06385e-15
2.24907e-15
1.45084e-13
3.21198e-09
4.39046e-09
7.72938e-10
2.01714e-10
3.64526e-11
2.17819e-11
1.34933e-11
2.12315e-11
1.60242e-10
2.35149e-12
3.77706e-13
1.03461e-13
3.73283e-14
1.60126e-14
7.73625e-15
4.0814e-15
2.30653e-15
1.37826e-15
8.62732e-16
5.6181e-16
3.78627e-16
2.6302e-16
1.87743e-16
1.37347e-16
1.02775e-16
7.85234e-17
6.11742e-17
4.85344e-17
3.91687e-17
3.21344e-17
2.67401e-17
2.2603e-17
1.9261e-17
1.66927e-17
1.4359e-17
1.26445e-17
1.06311e-17
9.32078e-18
7.11052e-18
5.85484e-18
3.3521e-18
2.05215e-18
5.31368e-19
3.15949e-19
2.05683e-18
4.15444e-17
6.31849e-17
1.78915e-15
5.75522e-15
1.66096e-13
3.01759e-09
3.97191e-09
8.45444e-10
2.12527e-10
3.8701e-11
2.00856e-11
8.64876e-12
4.65901e-12
4.29532e-12
7.06352e-12
8.29328e-11
5.45886e-12
6.24719e-13
1.62851e-13
5.87398e-14
2.54536e-14
1.24622e-14
6.67031e-15
3.8252e-15
2.31907e-15
1.47257e-15
9.72706e-16
6.65016e-16
4.68701e-16
3.395e-16
2.52074e-16
1.91455e-16
1.48472e-16
1.17365e-16
9.44642e-17
7.72208e-17
6.41744e-17
5.38296e-17
4.59171e-17
3.89683e-17
3.3782e-17
2.81525e-17
2.42616e-17
1.85611e-17
1.49281e-17
8.84421e-18
5.14079e-18
1.34444e-18
2.88776e-19
2.22991e-18
6.60293e-17
1.5994e-16
3.25057e-15
1.3673e-14
2.12921e-13
2.84623e-09
3.51176e-09
9.06957e-10
2.09893e-10
4.21908e-11
2.16068e-11
9.06304e-12
3.96455e-12
2.5265e-12
1.98742e-12
1.82967e-12
2.18699e-12
4.52548e-12
8.78675e-11
3.26328e-12
4.75595e-13
1.40984e-13
5.58305e-14
2.60779e-14
1.35995e-14
7.68823e-15
4.6282e-15
2.93229e-15
1.93929e-15
1.3309e-15
9.43392e-16
6.88226e-16
5.15162e-16
3.94616e-16
3.08757e-16
2.45976e-16
1.99597e-16
1.63779e-16
1.36766e-16
1.13913e-16
9.67855e-17
7.95289e-17
6.71093e-17
5.11308e-17
4.00414e-17
2.42167e-17
1.34261e-17
3.63173e-18
2.8303e-19
2.99837e-18
1.21599e-16
4.20224e-16
6.386e-15
3.12819e-14
3.06535e-13
2.67626e-09
3.05607e-09
9.75802e-10
1.98683e-10
4.53413e-11
2.30588e-11
1.03147e-11
4.27303e-12
2.46985e-12
1.67935e-12
1.21131e-12
9.44395e-13
8.25895e-13
8.33699e-13
1.02455e-12
1.77483e-12
7.90286e-12
1.61446e-11
9.0545e-13
2.25814e-13
8.51183e-14
3.93803e-14
2.06863e-14
1.18764e-14
7.29296e-15
4.72467e-15
3.19923e-15
2.24885e-15
1.6322e-15
1.21854e-15
9.31343e-16
7.2815e-16
5.77773e-16
4.67637e-16
3.78815e-16
3.1298e-16
2.51602e-16
2.06543e-16
1.55421e-16
1.17886e-16
7.18431e-17
3.79808e-17
1.05967e-17
3.21909e-19
5.44633e-18
2.613e-16
1.16227e-15
1.377e-14
7.21978e-14
4.96002e-13
2.49783e-09
2.62101e-09
1.05548e-09
1.8454e-10
4.86346e-11
2.39498e-11
1.17101e-11
4.79586e-12
2.693e-12
1.77226e-12
1.20529e-12
8.48716e-13
6.35197e-13
5.08021e-13
4.34103e-13
3.98604e-13
3.989e-13
4.46606e-13
5.88981e-13
1.03345e-12
3.67718e-12
4.40383e-11
1.16662e-12
2.71468e-13
1.03358e-13
4.93546e-14
2.69633e-14
1.61411e-14
1.03332e-14
6.97119e-15
4.89897e-15
3.56688e-15
2.66178e-15
2.04043e-15
1.57632e-15
1.24545e-15
9.64958e-16
7.60906e-16
5.58161e-16
4.06114e-16
2.45589e-16
1.23292e-16
3.48909e-17
4.9123e-19
1.3746e-17
6.66855e-16
3.51545e-15
3.34832e-14
1.76225e-13
9.10029e-13
2.31152e-09
2.22061e-09
1.14066e-09
1.70085e-10
5.25374e-11
2.44126e-11
1.31514e-11
5.3858e-12
2.9844e-12
1.96178e-12
1.3257e-12
9.10604e-13
6.52018e-13
4.88556e-13
3.80979e-13
3.08408e-13
2.59443e-13
2.27438e-13
2.0863e-13
2.01484e-13
2.06789e-13
2.28966e-13
2.80633e-13
3.99823e-13
7.40121e-13
2.55215e-12
1.91129e-11
1.39501e-12
3.23399e-13
1.28075e-13
6.40736e-14
3.67066e-14
2.28791e-14
1.52174e-14
1.0484e-14
7.51437e-15
5.37569e-15
3.93262e-15
2.72715e-15
1.85868e-15
1.08609e-15
5.1094e-16
1.42508e-16
1.26919e-18
4.82359e-17
2.12165e-15
1.23827e-14
9.64372e-14
4.82565e-13
1.94858e-12
2.11964e-09
1.86109e-09
1.22403e-09
1.5636e-10
5.70922e-11
2.45753e-11
1.4664e-11
6.04154e-12
3.30511e-12
2.18305e-12
1.48827e-12
1.0216e-12
7.24336e-13
5.3323e-13
4.04736e-13
3.15242e-13
2.51669e-13
2.05975e-13
1.72921e-13
1.49041e-13
1.32056e-13
1.20501e-13
1.13525e-13
1.10784e-13
1.12474e-13
1.19509e-13
1.34029e-13
1.60739e-13
2.10549e-13
3.1361e-13
5.78037e-13
1.69023e-12
2.85718e-11
3.04862e-12
5.47093e-13
2.03197e-13
9.66257e-14
5.28744e-14
2.97129e-14
1.69682e-14
8.74076e-15
3.62016e-15
9.30356e-16
7.38778e-18
2.61202e-16
9.71318e-15
5.82973e-14
3.68283e-13
1.649e-12
5.26168e-12
1.92382e-09
1.5429e-09
1.299e-09
1.44131e-10
6.20532e-11
2.45059e-11
1.62497e-11
6.78834e-12
3.65919e-12
2.42622e-12
1.67439e-12
1.15657e-12
8.20512e-13
6.02609e-13
4.54853e-13
3.50723e-13
2.75665e-13
2.20733e-13
1.80013e-13
1.49501e-13
1.26462e-13
1.09001e-13
9.57931e-14
8.59067e-14
7.86859e-14
7.36788e-14
7.05811e-14
6.9235e-14
6.95697e-14
7.17174e-14
7.58476e-14
8.26174e-14
9.26254e-14
1.07923e-13
1.30471e-13
1.67344e-13
2.28303e-13
3.50877e-13
6.49775e-13
2.02547e-12
9.34203e-11
6.34559e-13
5.19799e-14
2.75584e-16
5.01232e-15
1.24083e-13
6.17901e-13
2.77563e-12
9.60928e-12
2.29306e-11
1.7263e-09
1.26588e-09
1.35989e-09
1.34287e-10
6.70161e-11
2.4273e-11
1.78723e-11
7.64788e-12
4.05666e-12
2.69442e-12
1.88339e-12
1.31181e-12
9.33654e-13
6.86969e-13
5.19075e-13
4.00023e-13
3.13547e-13
2.49733e-13
2.01993e-13
1.6583e-13
1.3815e-13
1.16789e-13
1.00211e-13
8.73102e-14
7.72729e-14
6.94948e-14
6.35093e-14
5.89732e-14
5.55908e-14
5.31854e-14
5.15306e-14
5.05967e-14
5.01212e-14
5.02382e-14
5.04872e-14
5.11705e-14
5.13769e-14
5.14057e-14
4.96789e-14
4.57481e-14
3.81255e-14
2.49246e-14
1.04913e-14
2.68775e-16
6.90265e-15
4.4629e-13
7.40659e-12
1.55334e-10
8.22833e-10
1.643e-10
1.52983e-09
1.02972e-09
1.40181e-09
1.2777e-10
7.14589e-11
2.39759e-11
1.94703e-11
8.63717e-12
4.50646e-12
2.99197e-12
2.11825e-12
1.48953e-12
1.06442e-12
7.85322e-13
5.95018e-13
4.59568e-13
3.60687e-13
2.87356e-13
2.32222e-13
1.90235e-13
1.57902e-13
1.32772e-13
1.13105e-13
9.76372e-14
8.54317e-14
7.57845e-14
6.81418e-14
6.20857e-14
5.72515e-14
5.34e-14
5.02524e-14
4.77127e-14
4.54991e-14
4.36449e-14
4.17631e-14
3.99794e-14
3.77084e-14
3.50378e-14
3.1259e-14
2.61543e-14
1.96275e-14
1.13943e-14
4.17215e-15
1.3068e-16
1.40782e-15
6.3565e-14
6.17622e-13
4.14039e-12
2.15135e-11
4.60974e-11
1.33737e-09
8.33229e-10
1.42075e-09
1.25471e-10
7.47831e-11
2.37436e-11
2.09666e-11
9.77039e-12
5.01746e-12
3.32277e-12
2.3819e-12
1.69308e-12
1.21553e-12
8.99433e-13
6.83597e-13
5.29545e-13
4.16622e-13
3.32557e-13
2.69143e-13
2.20698e-13
1.83266e-13
1.5407e-13
1.31133e-13
1.13017e-13
9.8651e-14
8.72259e-14
7.80995e-14
7.07826e-14
6.48457e-14
5.99987e-14
5.5919e-14
5.24723e-14
4.93617e-14
4.65797e-14
4.37743e-14
4.10039e-14
3.78126e-14
3.4191e-14
2.96993e-14
2.40902e-14
1.75498e-14
9.9708e-15
3.59644e-15
1.61317e-16
7.43592e-16
3.39389e-14
3.10392e-13
1.70186e-12
6.81248e-12
1.1067e-11
1.15188e-09
6.74117e-10
1.41383e-09
1.28177e-10
7.64274e-11
2.37184e-11
2.22774e-11
1.10575e-11
5.59971e-12
3.69096e-12
2.67694e-12
1.92587e-12
1.39024e-12
1.03188e-12
7.86795e-13
6.11455e-13
4.82417e-13
3.86002e-13
3.13066e-13
2.5721e-13
2.13956e-13
1.80148e-13
1.53534e-13
1.32478e-13
1.15754e-13
1.02432e-13
9.17691e-14
8.31935e-14
7.62015e-14
7.04437e-14
6.5546e-14
6.13316e-14
5.74794e-14
5.39428e-14
5.03823e-14
4.67979e-14
4.27982e-14
3.82835e-14
3.29379e-14
2.64486e-14
1.91204e-14
1.0941e-14
4.04271e-15
2.64985e-16
4.41326e-16
2.36786e-14
2.14745e-13
1.03493e-12
3.40408e-12
4.01375e-12
9.76258e-10
5.49047e-10
1.37964e-09
1.36556e-10
7.60092e-11
2.40317e-11
2.33244e-11
1.25013e-11
6.26488e-12
4.10137e-12
3.00591e-12
2.19132e-12
1.59211e-12
1.18561e-12
9.07017e-13
7.073e-13
5.59733e-13
4.49044e-13
3.65065e-13
3.00605e-13
2.5059e-13
2.11434e-13
1.80572e-13
1.56136e-13
1.36725e-13
1.21269e-13
1.08906e-13
9.8967e-14
9.08603e-14
8.4164e-14
7.84418e-14
7.34636e-14
6.88764e-14
6.45874e-14
6.02596e-14
5.58311e-14
5.09487e-14
4.54228e-14
3.90015e-14
3.1307e-14
2.26955e-14
1.32646e-14
5.14172e-15
4.89424e-16
2.22005e-16
1.70526e-14
1.57597e-13
6.80294e-13
1.827e-12
1.40145e-12
8.13209e-10
4.53866e-10
1.31856e-09
1.51122e-10
7.33957e-11
2.47815e-11
2.4047e-11
1.40929e-11
7.02639e-12
4.55967e-12
3.37137e-12
2.49283e-12
1.825e-12
1.36395e-12
1.04699e-12
8.19395e-13
6.5056e-13
5.23385e-13
4.26589e-13
3.52114e-13
2.94214e-13
2.48815e-13
2.12995e-13
1.84624e-13
1.62096e-13
1.44181e-13
1.2988e-13
1.18406e-13
1.09063e-13
1.0134e-13
9.47265e-14
8.89251e-14
8.35435e-14
7.84335e-14
7.3255e-14
6.788e-14
6.19782e-14
5.52734e-14
4.75389e-14
3.83454e-14
2.80479e-14
1.6881e-14
6.98214e-15
9.47277e-16
7.16244e-17
1.12345e-14
1.09505e-13
4.23939e-13
8.92532e-13
3.41414e-13
6.65039e-10
3.8392e-10
1.23281e-09
1.72102e-10
6.87389e-11
2.60159e-11
2.44147e-11
1.5807e-11
7.89917e-12
5.07246e-12
3.77602e-12
2.8337e-12
2.09304e-12
1.57058e-12
1.20978e-12
9.50358e-13
7.57177e-13
6.11004e-13
4.99356e-13
4.13234e-13
3.46142e-13
2.93451e-13
2.51835e-13
2.18868e-13
1.92709e-13
1.71944e-13
1.5541e-13
1.42183e-13
1.31443e-13
1.2257e-13
1.14961e-13
1.08239e-13
1.01961e-13
9.59155e-14
8.97536e-14
8.32802e-14
7.61748e-14
6.80836e-14
5.87725e-14
4.77801e-14
3.54131e-14
2.20634e-14
9.85635e-15
1.85642e-15
1.45991e-17
6.04681e-15
6.62824e-14
2.27219e-13
3.40458e-13
2.69084e-14
5.33468e-10
3.34371e-10
1.12641e-09
1.99216e-10
6.25059e-11
2.77094e-11
2.44376e-11
1.75976e-11
8.8988e-12
5.64733e-12
4.22286e-12
3.21698e-12
2.40058e-12
1.80961e-12
1.39881e-12
1.10313e-12
8.82163e-13
7.14168e-13
5.85354e-13
4.85714e-13
4.07924e-13
3.4673e-13
2.98351e-13
2.6002e-13
2.29635e-13
2.05564e-13
1.86459e-13
1.71231e-13
1.5891e-13
1.48742e-13
1.40016e-13
1.32251e-13
1.24948e-13
1.17818e-13
1.10501e-13
1.02735e-13
9.41978e-14
8.4471e-14
7.32852e-14
6.01664e-14
4.53351e-14
2.93447e-14
1.42728e-14
3.61943e-15
6.1908e-17
2.19493e-15
3.13838e-14
9.16972e-14
7.51244e-14
2.85074e-15
4.19507e-10
3.00441e-10
1.00493e-09
2.31392e-10
5.54579e-11
2.97327e-11
2.41721e-11
1.93971e-11
1.00399e-11
6.29282e-12
4.71532e-12
3.64539e-12
2.75201e-12
2.08549e-12
1.61789e-12
1.28097e-12
1.02841e-12
8.35449e-13
6.86857e-13
5.7157e-13
4.81362e-13
4.10279e-13
3.54025e-13
3.09453e-13
2.74162e-13
2.46273e-13
2.24221e-13
2.06719e-13
1.9262e-13
1.81006e-13
1.71031e-13
1.62092e-13
1.53614e-13
1.45228e-13
1.36549e-13
1.27258e-13
1.1702e-13
1.05368e-13
9.19749e-14
7.63699e-14
5.86624e-14
3.95537e-14
2.10383e-14
6.95486e-15
5.40876e-16
3.22017e-16
9.26141e-15
2.02791e-14
2.5552e-15
1.32251e-13
3.23375e-10
2.77592e-10
8.75721e-10
2.6642e-10
4.85851e-11
3.18431e-11
2.37153e-11
2.11201e-11
1.13337e-11
7.01844e-12
5.25741e-12
4.12123e-12
3.15159e-12
2.403e-12
1.8712e-12
1.48749e-12
1.19914e-12
9.7773e-13
8.06443e-13
6.73108e-13
5.6853e-13
4.85981e-13
4.20588e-13
3.6878e-13
3.27819e-13
2.95542e-13
2.70133e-13
2.5007e-13
2.33994e-13
2.20785e-13
2.09434e-13
1.99186e-13
1.89373e-13
1.79537e-13
1.69262e-13
1.58181e-13
1.45937e-13
1.32033e-13
1.16072e-13
9.75985e-14
7.66028e-14
5.39042e-14
3.13928e-14
1.31016e-14
2.55283e-15
7.38955e-17
8.26719e-16
5.05578e-16
5.02469e-15
6.93085e-13
2.44412e-10
2.6186e-10
7.47496e-10
3.0083e-10
4.2933e-11
3.37228e-11
2.31919e-11
2.26709e-11
1.27843e-11
7.83472e-12
5.85391e-12
4.6464e-12
3.60323e-12
2.7671e-12
2.16324e-12
1.72661e-12
1.39786e-12
1.14421e-12
9.47e-13
7.92931e-13
6.7179e-13
5.75998e-13
5.00044e-13
4.39882e-13
3.924e-13
3.55112e-13
3.25909e-13
3.02995e-13
2.84752e-13
2.69817e-13
2.56977e-13
2.45294e-13
2.33985e-13
2.22493e-13
2.10365e-13
1.97197e-13
1.82611e-13
1.661e-13
1.472e-13
1.25477e-13
1.00819e-13
7.4128e-14
4.72023e-14
2.4119e-14
8.45908e-15
1.81056e-15
5.709e-16
2.90409e-15
1.05256e-13
1.94452e-12
1.81227e-10
2.49996e-10
6.2754e-10
3.30511e-10
3.93108e-11
3.5029e-11
2.27331e-11
2.39557e-11
1.43833e-11
8.7529e-12
6.51031e-12
5.22252e-12
4.11018e-12
3.18278e-12
2.49882e-12
2.0025e-12
1.62836e-12
1.33838e-12
1.11173e-12
9.33953e-13
7.93804e-13
6.82786e-13
5.94685e-13
5.2493e-13
4.69993e-13
4.27025e-13
3.9358e-13
3.67536e-13
3.46966e-13
3.30208e-13
3.15798e-13
3.02579e-13
2.89621e-13
2.76261e-13
2.62005e-13
2.46431e-13
2.29147e-13
2.09663e-13
1.87466e-13
1.62156e-13
1.33568e-13
1.02659e-13
7.12222e-14
4.33031e-14
2.26369e-14
1.19458e-14
1.21026e-14
4.97279e-14
4.68844e-13
4.05839e-12
1.32002e-10
2.39195e-10
5.19626e-10
3.51831e-10
3.81505e-11
3.54497e-11
2.245e-11
2.49016e-11
1.61045e-11
9.78407e-12
7.23274e-12
5.85099e-12
4.67484e-12
3.65478e-12
2.88291e-12
2.31961e-12
1.89466e-12
1.56398e-12
1.3041e-12
1.09938e-12
9.37535e-13
8.09104e-13
7.07109e-13
6.26405e-13
5.63007e-13
5.13659e-13
4.7553e-13
4.46112e-13
4.23105e-13
4.04488e-13
3.88484e-13
3.7367e-13
3.58938e-13
3.43507e-13
3.26845e-13
3.08532e-13
2.88192e-13
2.6538e-13
2.39583e-13
2.10456e-13
1.77875e-13
1.42869e-13
1.07436e-13
7.57246e-14
5.24386e-14
4.33676e-14
6.44611e-14
2.21173e-13
1.25862e-12
7.11249e-12
9.46417e-11
2.27235e-10
4.25278e-10
3.62429e-10
3.9611e-11
3.48165e-11
2.24059e-11
2.54736e-11
1.79017e-11
1.09381e-11
8.02781e-12
6.53336e-12
5.29858e-12
4.18734e-12
3.32052e-12
2.68252e-12
2.20093e-12
1.82497e-12
1.52786e-12
1.29271e-12
1.10624e-12
9.58011e-13
8.40224e-13
7.47112e-13
6.74191e-13
6.17755e-13
5.74531e-13
5.4156e-13
5.16095e-13
4.95676e-13
4.78143e-13
4.61746e-13
4.45163e-13
4.27486e-13
4.08152e-13
3.86778e-13
3.63045e-13
3.36603e-13
3.07015e-13
2.74039e-13
2.37754e-13
1.99355e-13
1.6147e-13
1.28869e-13
1.09253e-13
1.165e-13
2.02063e-13
6.1222e-13
2.60895e-12
1.10925e-11
6.69515e-11
2.12834e-10
3.45068e-10
3.61431e-10
4.3687e-11
3.32003e-11
2.26008e-11
2.56833e-11
1.97092e-11
1.2222e-11
8.90255e-12
7.27162e-12
5.9818e-12
4.78396e-12
3.81661e-12
3.09596e-12
2.55151e-12
2.12546e-12
1.78696e-12
1.51768e-12
1.30346e-12
1.13287e-12
9.97259e-13
8.90196e-13
8.06659e-13
7.42447e-13
6.93787e-13
6.5719e-13
6.29375e-13
6.07349e-13
5.88479e-13
5.70621e-13
5.52191e-13
5.32147e-13
5.09914e-13
4.85192e-13
4.5779e-13
4.27518e-13
3.94141e-13
3.57611e-13
3.18456e-13
2.78271e-13
2.41051e-13
2.13324e-13
2.09487e-13
2.60244e-13
4.81412e-13
1.32036e-12
4.60857e-12
1.59015e-11
4.68585e-11
1.95614e-10
2.78727e-10
3.49345e-10
5.01734e-11
3.08894e-11
2.2971e-11
2.55858e-11
2.14463e-11
1.36365e-11
9.8641e-12
8.06842e-12
6.72406e-12
5.44709e-12
4.37581e-12
3.56468e-12
2.95079e-12
2.46968e-12
2.08551e-12
1.77829e-12
1.533e-12
1.33733e-12
1.18176e-12
1.05914e-12
9.639e-13
8.91286e-13
8.36962e-13
7.96825e-13
7.66954e-13
7.43709e-13
7.23875e-13
7.04834e-13
6.84684e-13
6.62245e-13
6.3696e-13
6.08676e-13
5.77435e-13
5.4331e-13
5.06441e-13
4.67135e-13
4.26739e-13
3.87681e-13
3.56482e-13
3.43393e-13
3.7521e-13
5.11749e-13
9.66529e-13
2.43235e-12
7.28949e-12
2.1375e-11
3.2544e-11
1.75912e-10
2.25188e-10
3.27838e-10
5.85594e-11
2.82999e-11
2.34002e-11
2.5269e-11
2.30272e-11
1.5173e-11
1.09193e-11
8.92714e-12
7.52444e-12
6.17793e-12
5.00222e-12
4.09336e-12
3.40317e-12
2.86187e-12
2.42776e-12
2.07867e-12
1.79889e-12
1.57531e-12
1.39756e-12
1.25779e-12
1.14979e-12
1.06826e-12
1.00822e-12
9.64852e-13
9.33469e-13
9.09655e-13
8.89481e-13
8.69747e-13
8.48179e-13
8.23451e-13
7.95079e-13
7.63146e-13
7.28069e-13
6.90331e-13
6.50692e-13
6.10068e-13
5.71145e-13
5.3789e-13
5.21038e-13
5.37494e-13
6.34148e-13
9.14593e-13
1.72193e-12
4.01137e-12
1.06227e-11
2.73028e-11
2.2498e-11
1.54605e-10
1.82797e-10
2.99375e-10
6.79926e-11
2.58811e-11
2.37421e-11
2.48353e-11
2.43739e-11
1.68096e-11
1.20737e-11
9.85182e-12
8.38189e-12
6.97634e-12
5.69915e-12
4.6865e-12
3.91304e-12
3.30627e-12
2.81796e-12
2.42314e-12
2.10538e-12
1.85099e-12
1.64883e-12
1.4903e-12
1.36862e-12
1.27783e-12
1.21226e-12
1.16626e-12
1.13425e-12
1.11086e-12
1.0913e-12
1.07165e-12
1.0492e-12
1.02249e-12
9.91165e-13
9.5568e-13
9.17013e-13
8.76273e-13
8.35157e-13
7.95569e-13
7.62243e-13
7.4171e-13
7.51192e-13
8.18152e-13
1.01876e-12
1.51527e-12
2.80415e-12
6.0866e-12
1.45236e-11
3.34435e-11
1.55208e-11
1.32923e-10
1.49615e-10
2.66755e-10
7.73583e-11
2.40324e-11
2.38626e-11
2.43797e-11
2.54307e-11
1.85095e-11
1.33311e-11
1.08469e-11
9.2958e-12
7.84097e-12
6.46887e-12
5.34825e-12
4.48468e-12
3.80708e-12
3.26039e-12
2.81606e-12
2.45688e-12
2.16877e-12
1.93997e-12
1.76121e-12
1.62505e-12
1.52491e-12
1.45432e-12
1.40671e-12
1.37538e-12
1.35385e-12
1.33626e-12
1.31784e-12
1.29537e-12
1.26724e-12
1.23334e-12
1.19466e-12
1.15298e-12
1.11033e-12
1.06976e-12
1.03469e-12
1.0128e-12
1.01458e-12
1.06655e-12
1.2114e-12
1.56423e-12
2.35825e-12
4.25323e-12
8.64795e-12
1.88593e-11
3.95564e-11
1.07051e-11
1.1201e-10
1.23709e-10
2.32754e-10
8.54633e-11
2.30366e-11
2.36856e-11
2.39729e-11
2.61744e-11
2.02222e-11
1.46917e-11
1.19174e-11
1.02665e-11
8.76964e-12
7.31253e-12
6.08232e-12
5.12231e-12
4.36842e-12
3.75929e-12
3.26187e-12
2.85793e-12
2.53327e-12
2.2757e-12
2.07536e-12
1.92419e-12
1.81494e-12
1.74027e-12
1.69253e-12
1.66375e-12
1.64607e-12
1.63235e-12
1.61678e-12
1.59554e-12
1.56689e-12
1.5311e-12
1.4899e-12
1.44622e-12
1.40334e-12
1.36623e-12
1.34047e-12
1.33785e-12
1.37448e-12
1.48942e-12
1.74554e-12
2.30551e-12
3.48031e-12
6.08584e-12
1.16454e-11
2.3465e-11
4.54121e-11
7.39652e-12
9.25803e-11
1.03332e-10
1.99746e-10
9.13048e-11
2.30095e-11
2.32125e-11
2.36483e-11
2.66174e-11
2.18874e-11
1.61502e-11
1.30677e-11
1.12955e-11
9.75981e-12
8.23001e-12
6.89178e-12
5.82996e-12
4.99435e-12
4.31882e-12
3.765e-12
3.31319e-12
2.94929e-12
2.66098e-12
2.43794e-12
2.27155e-12
2.15385e-12
2.07658e-12
2.03082e-12
2.00712e-12
1.99597e-12
1.98866e-12
1.97815e-12
1.95989e-12
1.93203e-12
1.89543e-12
1.8528e-12
1.80861e-12
1.76791e-12
1.73816e-12
1.72797e-12
1.75454e-12
1.84153e-12
2.04386e-12
2.44912e-12
3.27358e-12
4.9051e-12
8.29138e-12
1.49931e-11
2.81625e-11
5.07969e-11
5.12712e-12
7.50929e-11
8.70145e-11
1.69282e-10
9.42839e-11
2.39049e-11
2.2519e-11
2.33996e-11
2.68023e-11
2.34428e-11
1.76935e-11
1.43016e-11
1.23852e-11
1.08091e-11
9.22004e-12
7.77886e-12
6.61143e-12
5.68889e-12
4.94311e-12
4.32987e-12
3.82742e-12
3.42183e-12
3.10103e-12
2.85448e-12
2.67308e-12
2.54813e-12
2.47037e-12
2.42948e-12
2.41421e-12
2.41308e-12
2.41551e-12
2.41296e-12
2.40003e-12
2.37481e-12
2.33891e-12
2.29642e-12
2.25379e-12
2.21841e-12
2.201e-12
2.21414e-12
2.28183e-12
2.43731e-12
2.75433e-12
3.34853e-12
4.49166e-12
6.63897e-12
1.08313e-11
1.85795e-11
3.27695e-11
5.55403e-11
3.56658e-12
5.98842e-11
7.3622e-11
1.42126e-10
9.42595e-11
2.55502e-11
2.17355e-11
2.31937e-11
2.67909e-11
2.48338e-11
1.92997e-11
1.56209e-11
1.35391e-11
1.19159e-11
1.02804e-11
8.74485e-12
7.47016e-12
6.45594e-12
5.63619e-12
4.96087e-12
4.40539e-12
3.95601e-12
3.60131e-12
3.33084e-12
3.13512e-12
3.00479e-12
2.92947e-12
2.8972e-12
2.89468e-12
2.90807e-12
2.92451e-12
2.93364e-12
2.9291e-12
2.90894e-12
2.87579e-12
2.83551e-12
2.79712e-12
2.77098e-12
2.77191e-12
2.8175e-12
2.93992e-12
3.18382e-12
3.64393e-12
4.46528e-12
5.97176e-12
8.66865e-12
1.36423e-11
2.22769e-11
3.71174e-11
5.95108e-11
2.48916e-12
4.70776e-11
6.23503e-11
1.18549e-10
9.14983e-11
2.76763e-11
2.10085e-11
2.29905e-11
2.66508e-11
2.60218e-11
2.0938e-11
1.70248e-11
1.47611e-11
1.30797e-11
1.14084e-11
9.79001e-12
8.40911e-12
7.29931e-12
6.40204e-12
5.66229e-12
5.05189e-12
4.55709e-12
4.1675e-12
3.87317e-12
3.66448e-12
3.5314e-12
3.46236e-12
3.44357e-12
3.45927e-12
3.49281e-12
3.52861e-12
3.55412e-12
3.56182e-12
3.54981e-12
3.52202e-12
3.48656e-12
3.45564e-12
3.44337e-12
3.46949e-12
3.55765e-12
3.74941e-12
4.10215e-12
4.73245e-12
5.81338e-12
7.7124e-12
1.09614e-11
1.6642e-11
2.59527e-11
4.1059e-11
6.26197e-11
1.74207e-12
3.65843e-11
5.26707e-11
9.84921e-11
8.65482e-11
2.99554e-11
2.04627e-11
2.27595e-11
2.64427e-11
2.69892e-11
2.25708e-11
1.85086e-11
1.60548e-11
1.43014e-11
1.26013e-11
1.09136e-11
9.43062e-12
8.22265e-12
7.24462e-12
6.43841e-12
5.77171e-12
5.23042e-12
4.80548e-12
4.48795e-12
4.26835e-12
4.13608e-12
4.07827e-12
4.07902e-12
4.11973e-12
4.18038e-12
4.24214e-12
4.28981e-12
4.31452e-12
4.31446e-12
4.2952e-12
4.26766e-12
4.24792e-12
4.25464e-12
4.31333e-12
4.45462e-12
4.73028e-12
5.21103e-12
6.03438e-12
7.39733e-12
9.69756e-12
1.34671e-11
1.97359e-11
2.94795e-11
4.44766e-11
6.48123e-11
1.22176e-12
2.81757e-11
4.42585e-11
8.16736e-11
8.00775e-11
3.20551e-11
2.01759e-11
2.24904e-11
2.62119e-11
2.77405e-11
2.41577e-11
2.00629e-11
1.74232e-11
1.55833e-11
1.3857e-11
1.21142e-11
1.05364e-11
9.22938e-12
8.16785e-12
7.29345e-12
6.56962e-12
5.9814e-12
5.52131e-12
5.18194e-12
4.95435e-12
4.82748e-12
4.7871e-12
4.81489e-12
4.88889e-12
4.98513e-12
5.08083e-12
5.15767e-12
5.20513e-12
5.22155e-12
5.21453e-12
5.19837e-12
5.19381e-12
5.22481e-12
5.32344e-12
5.52799e-12
5.90071e-12
6.52528e-12
7.55732e-12
9.21092e-12
1.18974e-11
1.61227e-11
2.28256e-11
3.27433e-11
4.72822e-11
6.60778e-11
8.58009e-13
2.15552e-11
3.69245e-11
6.7693e-11
7.2743e-11
3.36946e-11
2.01695e-11
2.21955e-11
2.59861e-11
2.82993e-11
2.56611e-11
2.16729e-11
1.88679e-11
1.69287e-11
1.51743e-11
1.33897e-11
1.17272e-11
1.03227e-11
9.17563e-12
8.23164e-12
7.45037e-12
6.81551e-12
6.32122e-12
5.96217e-12
5.73047e-12
5.61481e-12
5.59946e-12
5.66337e-12
5.78065e-12
5.92262e-12
6.0618e-12
6.17611e-12
6.25307e-12
6.29122e-12
6.30057e-12
6.29948e-12
6.31404e-12
6.37433e-12
6.51954e-12
6.79596e-12
7.27594e-12
8.05454e-12
9.30082e-12
1.12371e-11
1.42701e-11
1.88569e-11
2.58158e-11
3.56488e-11
4.94211e-11
6.6433e-11
6.02976e-13
1.64125e-11
3.05546e-11
5.61152e-11
6.51067e-11
3.46845e-11
2.04117e-11
2.19051e-11
2.57785e-11
2.8701e-11
2.70511e-11
2.33189e-11
2.03882e-11
1.83413e-11
1.65533e-11
1.47383e-11
1.30033e-11
1.15052e-11
1.02718e-11
9.25719e-12
8.41869e-12
7.73822e-12
7.21154e-12
6.83593e-12
6.60509e-12
6.50775e-12
6.52662e-12
6.63751e-12
6.80992e-12
7.00959e-12
7.20345e-12
7.36491e-12
7.47914e-12
7.54491e-12
7.57502e-12
7.59257e-12
7.62975e-12
7.72342e-12
7.92024e-12
8.2744e-12
8.86713e-12
9.80222e-12
1.12559e-11
1.34488e-11
1.67652e-11
2.15956e-11
2.86203e-11
3.81235e-11
5.08687e-11
6.59246e-11
4.2383e-13
1.24584e-11
2.50684e-11
4.65285e-11
5.75928e-11
3.4944e-11
2.08289e-11
2.16554e-11
2.55939e-11
2.89862e-11
2.83098e-11
2.49777e-11
2.19804e-11
1.98247e-11
1.79957e-11
1.61581e-11
1.43642e-11
1.2779e-11
1.14599e-11
1.03743e-11
9.47926e-12
8.75497e-12
8.19866e-12
7.81064e-12
7.58685e-12
7.51642e-12
7.58042e-12
7.75108e-12
7.9925e-12
8.26383e-12
8.52532e-12
8.74502e-12
8.90526e-12
9.00502e-12
9.06031e-12
9.0996e-12
9.1619e-12
9.29137e-12
9.54219e-12
9.97587e-12
1.06805e-11
1.1765e-11
1.34055e-11
1.58108e-11
1.93274e-11
2.42675e-11
3.11664e-11
4.01186e-11
5.16282e-11
6.46221e-11
2.97884e-13
9.43991e-12
2.03982e-11
3.85745e-11
5.04794e-11
3.44914e-11
2.13216e-11
2.1474e-11
2.54333e-11
2.91933e-11
2.9432e-11
2.66249e-11
2.36377e-11
2.13817e-11
1.95039e-11
1.76482e-11
1.58089e-11
1.41458e-11
1.27435e-11
1.15872e-11
1.06367e-11
9.87115e-12
9.28896e-12
8.89385e-12
8.68466e-12
8.65129e-12
8.77322e-12
9.01853e-12
9.34502e-12
9.70403e-12
1.00479e-11
1.03383e-11
1.05542e-11
1.06946e-11
1.07791e-11
1.08423e-11
1.09306e-11
1.10958e-11
1.13993e-11
1.19088e-11
1.27168e-11
1.39327e-11
1.57254e-11
1.82822e-11
2.19001e-11
2.68079e-11
3.33982e-11
4.16089e-11
5.17273e-11
6.26141e-11
2.09365e-13
7.14482e-12
1.64775e-11
3.19576e-11
4.39252e-11
3.34161e-11
2.1785e-11
2.13731e-11
2.52985e-11
2.93552e-11
3.04246e-11
2.82379e-11
2.53499e-11
2.30136e-11
2.10812e-11
1.92086e-11
1.73364e-11
1.56064e-11
1.41254e-11
1.28997e-11
1.18956e-11
1.1092e-11
1.04888e-11
1.00931e-11
9.90751e-12
9.9231e-12
1.01177e-11
1.04548e-11
1.08847e-11
1.13495e-11
1.17924e-11
1.21672e-11
1.2449e-11
1.26366e-11
1.27539e-11
1.28417e-11
1.29545e-11
1.31519e-11
1.3502e-11
1.40772e-11
1.4971e-11
1.62891e-11
1.81855e-11
2.08193e-11
2.44293e-11
2.91623e-11
3.52775e-11
4.25915e-11
5.12147e-11
6.00037e-11
1.47217e-13
5.40305e-12
1.32293e-11
2.64419e-11
3.80034e-11
3.18464e-11
2.21275e-11
2.13483e-11
2.51943e-11
2.94979e-11
3.13041e-11
2.97984e-11
2.7104e-11
2.47198e-11
2.27311e-11
2.08405e-11