/*--------------------------------*- C++ -*----------------------------------*\
  =========                 |
  \\      /  F ield         | OpenFOAM: The Open Source CFD Toolbox
   \\    /   O peration     | Website:  https://openfoam.org
    \\  /    A nd           | Version:  7
     \\/     M anipulation  |
\*---------------------------------------------------------------------------*/
FoamFile
{
    version     2.0;
    format      ascii;
    class       volScalarField;
    location    "0.23";
    object      p;
}
// * * * * * * * * * * * * * * * * * * * * * * * * * * * * * * * * * * * * * //

dimensions      [0 2 -2 0 0 0 0];

internalField   nonuniform List<scalar> 
70000
(
0.121578
0.0441242
0.0316058
0.0340541
0.034229
0.0331794
0.03225
0.0315528
0.0309773
0.0304759
0.0300352
0.0296472
0.0293044
0.0290001
0.0287289
0.0284866
0.0282693
0.0280742
0.0278988
0.027741
0.027599
0.0274714
0.0273569
0.0272546
0.0271635
0.0270829
0.0270122
0.0269509
0.0268987
0.0268553
0.0268204
0.0267941
0.0267763
0.0267673
0.0267673
0.0267769
0.0267967
0.0268277
0.026871
0.0269291
0.0270019
0.0270973
0.0272096
0.0273619
0.027528
0.0277781
0.0280129
0.0284578
0.0287553
0.0296344
0.11721
0.0444911
0.0318088
0.0341497
0.0342836
0.0332154
0.0322781
0.031576
0.0309969
0.0304926
0.0300497
0.02966
0.0293158
0.0290104
0.0287383
0.0284951
0.0282772
0.0280815
0.0279056
0.0277473
0.0276049
0.027477
0.0273622
0.0272596
0.0271682
0.0270874
0.0270165
0.026955
0.0269026
0.026859
0.026824
0.0267975
0.0267796
0.0267704
0.0267704
0.0267798
0.0267995
0.0268305
0.0268736
0.0269316
0.0270043
0.0270997
0.0272119
0.0273642
0.0275302
0.0277803
0.0280153
0.0284593
0.0287628
0.0296706
0.113629
0.045431
0.0321491
0.0342788
0.0343579
0.0332602
0.0323104
0.0316022
0.0310186
0.030511
0.0300656
0.0296739
0.0293282
0.0290215
0.0287484
0.0285043
0.0282857
0.0280893
0.0279128
0.0277541
0.0276112
0.0274829
0.0273678
0.0272648
0.0271732
0.0270921
0.027021
0.0269593
0.0269067
0.0268629
0.0268278
0.0268011
0.0267831
0.0267737
0.0267735
0.0267828
0.0268024
0.0268332
0.0268762
0.0269341
0.0270067
0.0271019
0.0272139
0.0273661
0.0275318
0.0277818
0.0280166
0.0284587
0.0287799
0.0296907
0.110535
0.0465328
0.0326186
0.0344528
0.0344588
0.0333177
0.0323486
0.0316321
0.0310432
0.0305315
0.030083
0.029689
0.0293415
0.0290334
0.0287591
0.028514
0.0282945
0.0280975
0.0279204
0.0277611
0.0276178
0.0274891
0.0273736
0.0272703
0.0271784
0.027097
0.0270256
0.0269638
0.026911
0.026867
0.0268316
0.0268048
0.0267866
0.0267771
0.0267767
0.0267859
0.0268053
0.026836
0.0268788
0.0269365
0.0270089
0.0271039
0.0272156
0.0273674
0.0275327
0.0277818
0.0280167
0.0284539
0.0288028
0.0296913
0.107576
0.0476292
0.0331845
0.0346734
0.0345933
0.0333956
0.0323976
0.0316692
0.0310732
0.0305561
0.0301036
0.0297067
0.0293568
0.0290469
0.0287712
0.028525
0.0283045
0.0281066
0.0279288
0.0277688
0.027625
0.0274958
0.0273799
0.0272762
0.027184
0.0271023
0.0270307
0.0269685
0.0269155
0.0268713
0.0268357
0.0268087
0.0267903
0.0267806
0.0267801
0.0267891
0.0268083
0.0268388
0.0268814
0.0269389
0.0270109
0.0271055
0.0272168
0.0273679
0.0275327
0.0277799
0.0280155
0.0284442
0.0288255
0.0296746
0.104667
0.0486681
0.0337996
0.0349204
0.0347556
0.0334954
0.0324601
0.0317157
0.0311107
0.0305867
0.0301289
0.0297281
0.0293753
0.0290631
0.0287856
0.0285378
0.0283161
0.0281172
0.0279384
0.0277777
0.0276332
0.0275034
0.027387
0.0272829
0.0271902
0.0271082
0.0270363
0.0269738
0.0269205
0.026876
0.0268402
0.026813
0.0267944
0.0267845
0.0267838
0.0267926
0.0268116
0.0268418
0.0268841
0.0269413
0.0270129
0.027107
0.0272177
0.0273677
0.0275316
0.0277758
0.0280125
0.0284292
0.0288418
0.0296399
0.101802
0.0496306
0.0344304
0.0351723
0.0349324
0.0336125
0.032535
0.0317714
0.0311558
0.0306237
0.0301596
0.0297541
0.0293977
0.0290827
0.0288028
0.0285532
0.0283299
0.0281297
0.0279499
0.0277882
0.0276429
0.0275124
0.0273954
0.0272907
0.0271975
0.0271151
0.0270427
0.0269799
0.0269263
0.0268815
0.0268455
0.0268179
0.0267991
0.026789
0.026788
0.0267965
0.0268152
0.0268452
0.0268871
0.0269439
0.027015
0.0271083
0.0272182
0.0273666
0.0275294
0.0277692
0.0280069
0.0284083
0.028846
0.0295799
0.0989875
0.0505086
0.0350608
0.0354173
0.0351128
0.0337404
0.0326187
0.0318343
0.0312076
0.0306668
0.0301956
0.0297847
0.0294242
0.0291059
0.0288233
0.0285715
0.0283464
0.0281446
0.0279634
0.0278007
0.0276544
0.027523
0.0274052
0.0272999
0.0272061
0.0271231
0.0270503
0.0269871
0.026933
0.0268879
0.0268515
0.0268237
0.0268046
0.0267942
0.0267929
0.0268011
0.0268195
0.0268491
0.0268906
0.0269468
0.0270173
0.0271096
0.0272184
0.0273647
0.027526
0.0277599
0.0279981
0.0283811
0.0288335
0.0294935
0.0962292
0.0512994
0.0356856
0.0356512
0.0352908
0.0338741
0.0327081
0.0319018
0.0312639
0.0307142
0.0302358
0.0298192
0.0294542
0.0291324
0.0288469
0.0285927
0.0283654
0.0281619
0.0279792
0.0278151
0.0276677
0.0275353
0.0274166
0.0273106
0.0272161
0.0271325
0.0270591
0.0269954
0.0269409
0.0268954
0.0268586
0.0268305
0.026811
0.0268002
0.0267986
0.0268065
0.0268245
0.0268536
0.0268946
0.0269501
0.0270198
0.0271109
0.0272184
0.0273619
0.0275211
0.0277477
0.0279853
0.028347
0.0288009
0.0293791
0.0935316
0.0520027
0.0363037
0.0358739
0.0354633
0.0340111
0.0328011
0.031972
0.0313228
0.0307646
0.0302789
0.0298565
0.0294871
0.0291616
0.0288731
0.0286162
0.0283868
0.0281814
0.0279971
0.0278316
0.0276829
0.0275495
0.0274298
0.0273229
0.0272276
0.0271434
0.0270693
0.0270051
0.0269501
0.0269041
0.0268669
0.0268383
0.0268184
0.0268073
0.0268053
0.0268128
0.0268303
0.026859
0.0268993
0.0269541
0.0270227
0.0271123
0.0272181
0.0273582
0.0275148
0.0277326
0.0279677
0.0283057
0.0287463
0.0292366
0.090898
0.0526189
0.0369143
0.0360861
0.0356289
0.0341497
0.0328965
0.0320436
0.0313833
0.0308168
0.0303239
0.0298958
0.0295218
0.0291927
0.0289011
0.0286417
0.0284101
0.0282027
0.0280168
0.0278498
0.0276998
0.0275652
0.0274445
0.0273366
0.0272406
0.0271556
0.0270809
0.027016
0.0269605
0.0269139
0.0268763
0.0268473
0.026827
0.0268154
0.026813
0.02682
0.0268371
0.0268651
0.0269048
0.0269586
0.027026
0.0271139
0.0272176
0.0273537
0.027507
0.0277147
0.0279449
0.028257
0.0286698
0.029068
0.0883313
0.0531484
0.037516
0.0362888
0.0357868
0.0342891
0.0329941
0.0321163
0.0314447
0.0308701
0.0303701
0.0299363
0.0295578
0.0292251
0.0289305
0.0286685
0.0284347
0.0282254
0.0280377
0.0278693
0.027718
0.0275822
0.0274604
0.0273516
0.0272547
0.027169
0.0270936
0.0270281
0.0269719
0.0269249
0.0268867
0.0268572
0.0268365
0.0268245
0.0268216
0.0268282
0.0268447
0.0268721
0.0269109
0.0269636
0.0270298
0.0271155
0.0272169
0.0273484
0.0274976
0.0276942
0.0279166
0.0282008
0.0285732
0.0288769
0.0858342
0.0535916
0.0381068
0.0364833
0.0359363
0.0344285
0.0330937
0.0321899
0.0315067
0.0309241
0.0304172
0.0299776
0.0295947
0.0292583
0.0289608
0.0286962
0.0284602
0.028249
0.0280597
0.0278897
0.0277371
0.0276001
0.0274774
0.0273676
0.0272699
0.0271833
0.0271072
0.027041
0.0269843
0.0269368
0.0268981
0.0268681
0.0268469
0.0268345
0.0268311
0.0268371
0.026853
0.0268797
0.0269176
0.0269692
0.0270339
0.0271173
0.027216
0.0273424
0.0274867
0.0276713
0.0278828
0.0281375
0.0284597
0.0286686
0.0834091
0.0539495
0.0386842
0.036671
0.0360768
0.0345671
0.0331951
0.0322643
0.0315691
0.0309787
0.0304649
0.0300197
0.0296323
0.0292923
0.0289917
0.0287246
0.0284864
0.0282733
0.0280823
0.0279109
0.0277569
0.0276188
0.027495
0.0273843
0.0272857
0.0271983
0.0271216
0.0270547
0.0269975
0.0269493
0.0269101
0.0268797
0.026858
0.0268451
0.0268412
0.0268467
0.0268619
0.0268879
0.0269249
0.0269751
0.0270382
0.027119
0.0272148
0.0273356
0.0274742
0.0276461
0.027844
0.0280679
0.0283332
0.0284494
0.0810584
0.0542232
0.0392454
0.0368532
0.0362079
0.034704
0.0332982
0.0323395
0.0316319
0.0310339
0.0305133
0.0300623
0.0296704
0.0293267
0.0290232
0.0287535
0.0285131
0.0282981
0.0281054
0.0279325
0.0277773
0.027638
0.0275131
0.0274015
0.027302
0.0272139
0.0271364
0.027069
0.0270111
0.0269624
0.0269227
0.0268918
0.0268696
0.0268562
0.0268518
0.0268567
0.0268713
0.0268965
0.0269324
0.0269813
0.0270426
0.0271207
0.0272132
0.0273281
0.0274602
0.027619
0.0278006
0.0279928
0.028198
0.0282256
0.0787841
0.0544145
0.0397872
0.0370316
0.0363294
0.0348382
0.0334029
0.0324156
0.0316949
0.0310895
0.0305622
0.0301055
0.029709
0.0293617
0.0290551
0.0287829
0.0285403
0.0283233
0.028129
0.0279546
0.027798
0.0276575
0.0275316
0.027419
0.0273187
0.0272299
0.0271517
0.0270836
0.0270251
0.0269759
0.0269357
0.0269042
0.0268816
0.0268677
0.0268628
0.0268671
0.026881
0.0269053
0.0269402
0.0269875
0.027047
0.0271221
0.0272112
0.0273199
0.0274447
0.0275902
0.0277535
0.0279135
0.0280581
0.0280032
0.0765879
0.0545254
0.0403064
0.0372075
0.0364412
0.0349688
0.0335088
0.0324926
0.0317582
0.0311454
0.0306117
0.0301492
0.0297481
0.0293971
0.0290875
0.0288127
0.0285678
0.028349
0.0281529
0.027977
0.0278191
0.0276775
0.0275505
0.027437
0.0273358
0.0272461
0.0271672
0.0270985
0.0270394
0.0269897
0.0269489
0.026917
0.0268938
0.0268794
0.0268739
0.0268776
0.0268908
0.0269142
0.0269479
0.0269937
0.0270512
0.0271233
0.0272086
0.027311
0.0274279
0.0275598
0.0277034
0.0278312
0.0279172
0.0277873
0.074471
0.0545583
0.0408002
0.0373822
0.0365435
0.0350946
0.0336155
0.0325705
0.0318216
0.0312016
0.0306616
0.0301934
0.0297876
0.029433
0.0291203
0.0288429
0.0285958
0.028375
0.0281772
0.0279998
0.0278406
0.0276977
0.0275697
0.0274552
0.0273531
0.0272627
0.0271831
0.0271137
0.027054
0.0270037
0.0269624
0.0269299
0.0269062
0.0268913
0.0268852
0.0268883
0.0269007
0.0269231
0.0269557
0.0269998
0.0270552
0.0271241
0.0272054
0.0273014
0.0274098
0.0275281
0.027651
0.0277471
0.0277779
0.0275817
0.0724343
0.0545163
0.0412655
0.0375565
0.0366365
0.0352147
0.0337227
0.0326492
0.0318851
0.031258
0.0307119
0.0302381
0.0298277
0.0294693
0.0291536
0.0288735
0.0286241
0.0284014
0.0282019
0.0280229
0.0278624
0.0277183
0.0275891
0.0274737
0.0273708
0.0272795
0.0271991
0.0271291
0.0270688
0.0270178
0.026976
0.026943
0.0269188
0.0269033
0.0268966
0.026899
0.0269106
0.0269321
0.0269634
0.0270058
0.027059
0.0271246
0.0272016
0.0272911
0.0273906
0.0274952
0.0275971
0.0276623
0.0276426
0.027389
0.0704781
0.0544027
0.0416997
0.0377309
0.0367206
0.0353283
0.0338297
0.0327289
0.0319486
0.0313144
0.0307626
0.0302832
0.0298681
0.029506
0.0291872
0.0289045
0.0286529
0.0284281
0.0282269
0.0280464
0.0278845
0.0277391
0.0276089
0.0274924
0.0273886
0.0272965
0.0272154
0.0271447
0.0270837
0.0270322
0.0269898
0.0269562
0.0269314
0.0269154
0.0269081
0.0269098
0.0269205
0.0269409
0.0269709
0.0270115
0.0270624
0.0271246
0.0271973
0.0272801
0.0273704
0.0274613
0.0275424
0.027578
0.0275129
0.0272112
0.0686024
0.0542215
0.0421
0.0379057
0.0367964
0.0354344
0.0339359
0.0328092
0.0320122
0.0313708
0.0308136
0.0303287
0.029909
0.0295431
0.0292212
0.0289359
0.028682
0.0284552
0.0282522
0.0280702
0.0279068
0.0277603
0.0276289
0.0275115
0.0274067
0.0273138
0.027232
0.0271605
0.0270989
0.0270467
0.0270037
0.0269696
0.0269442
0.0269276
0.0269196
0.0269206
0.0269304
0.0269497
0.0269783
0.027017
0.0270655
0.0271243
0.0271923
0.0272685
0.0273494
0.0274268
0.0274874
0.027495
0.02739
0.0270494
0.0668068
0.0539771
0.042464
0.0380807
0.0368648
0.0355324
0.0340407
0.0328903
0.0320758
0.031427
0.0308647
0.0303746
0.0299502
0.0295806
0.0292556
0.0289677
0.0287114
0.0284826
0.0282779
0.0280943
0.0279295
0.0277817
0.0276493
0.0275307
0.0274251
0.0273313
0.0272487
0.0271765
0.0271142
0.0270614
0.0270178
0.0269831
0.0269571
0.0269398
0.0269312
0.0269313
0.0269403
0.0269583
0.0269856
0.0270223
0.0270683
0.0271235
0.0271868
0.0272563
0.0273277
0.0273917
0.0274327
0.0274142
0.027275
0.0269041
0.0650904
0.0536742
0.0427894
0.0382554
0.0369264
0.0356218
0.0341433
0.0329719
0.0321394
0.031483
0.0309158
0.0304207
0.0299917
0.0296184
0.0292903
0.0289997
0.0287412
0.0285104
0.0283039
0.0281187
0.0279525
0.0278035
0.0276698
0.0275503
0.0274437
0.027349
0.0272656
0.0271927
0.0271297
0.0270763
0.027032
0.0269967
0.0269701
0.0269521
0.0269427
0.026942
0.02695
0.0269669
0.0269926
0.0270273
0.0270707
0.0271224
0.0271809
0.0272435
0.0273056
0.0273565
0.0273788
0.0273365
0.0271686
0.0267755
0.063452
0.0533178
0.0430742
0.0384289
0.0369823
0.0357021
0.0342428
0.0330537
0.0322029
0.0315385
0.0309669
0.0304671
0.0300335
0.0296564
0.0293253
0.0290321
0.0287713
0.0285385
0.0283301
0.0281434
0.0279758
0.0278255
0.0276907
0.0275701
0.0274625
0.027367
0.0272827
0.027209
0.0271454
0.0270913
0.0270463
0.0270104
0.0269831
0.0269644
0.0269543
0.0269528
0.0269597
0.0269753
0.0269995
0.0270321
0.0270728
0.0271208
0.0271744
0.0272304
0.0272831
0.0273214
0.0273263
0.0272626
0.0270712
0.0266636
0.0618899
0.0529132
0.0433168
0.0385998
0.0370333
0.0357732
0.0343384
0.0331355
0.0322664
0.0315937
0.0310178
0.0305136
0.0300756
0.0296948
0.0293606
0.0290648
0.0288017
0.0285669
0.0283567
0.0281684
0.0279994
0.0278477
0.0277117
0.0275901
0.0274815
0.0273851
0.0273
0.0272256
0.0271612
0.0271064
0.0270608
0.0270241
0.0269962
0.0269768
0.0269659
0.0269634
0.0269693
0.0269836
0.0270061
0.0270367
0.0270746
0.0271189
0.0271676
0.0272169
0.0272605
0.0272867
0.0272756
0.0271932
0.0269833
0.0265682
0.0604024
0.0524659
0.0435159
0.0387666
0.0370805
0.0358351
0.0344291
0.0332169
0.0323298
0.0316483
0.0310684
0.0305601
0.0301178
0.0297333
0.0293961
0.0290977
0.0288324
0.0285955
0.0283836
0.0281936
0.0280232
0.0278702
0.0277331
0.0276103
0.0275008
0.0274035
0.0273175
0.0272423
0.0271771
0.0271216
0.0270753
0.027038
0.0270093
0.0269892
0.0269774
0.026974
0.0269788
0.0269918
0.0270126
0.027041
0.0270761
0.0271167
0.0271604
0.0272032
0.027238
0.0272528
0.0272272
0.0271287
0.0269052
0.0264888
0.0589872
0.0519815
0.0436707
0.0389272
0.0371246
0.035888
0.0345143
0.0332973
0.0323931
0.0317023
0.0311186
0.0306066
0.0301602
0.029772
0.0294318
0.0291309
0.0288633
0.0286244
0.0284107
0.0282191
0.0280472
0.027893
0.0277546
0.0276308
0.0275202
0.027422
0.0273352
0.0272591
0.0271932
0.027137
0.02709
0.0270519
0.0270225
0.0270016
0.026989
0.0269846
0.0269882
0.0269998
0.0270189
0.027045
0.0270773
0.0271142
0.027153
0.0271894
0.0272157
0.0272199
0.0271815
0.0270698
0.026837
0.026425
0.0576419
0.0514657
0.0437807
0.0390794
0.0371666
0.0359323
0.034593
0.0333762
0.0324562
0.0317557
0.0311681
0.0306529
0.0302026
0.0298108
0.0294676
0.0291642
0.0288944
0.0286535
0.028438
0.0282448
0.0280715
0.0279159
0.0277764
0.0276514
0.0275399
0.0274407
0.027353
0.0272761
0.0272094
0.0271524
0.0271047
0.0270659
0.0270357
0.0270139
0.0270004
0.026995
0.0269975
0.0270076
0.0270249
0.0270488
0.0270782
0.0271114
0.0271454
0.0271756
0.027194
0.0271884
0.0271389
0.0270166
0.0267789
0.0263761
0.0563637
0.0509239
0.0438461
0.0392206
0.0372069
0.0359684
0.0346646
0.0334531
0.0325189
0.0318084
0.031217
0.0306988
0.030245
0.0298497
0.0295036
0.0291977
0.0289257
0.0286829
0.0284656
0.0282708
0.028096
0.0279391
0.0277983
0.0276723
0.0275597
0.0274595
0.027371
0.0272933
0.0272258
0.027168
0.0271194
0.0270798
0.0270489
0.0270263
0.0270119
0.0270054
0.0270066
0.0270152
0.0270307
0.0270524
0.0270789
0.0271084
0.0271377
0.0271619
0.0271729
0.0271586
0.0270997
0.0269697
0.0267307
0.0263414
0.05515
0.0503615
0.0438676
0.0393484
0.0372461
0.035997
0.0347287
0.0335271
0.0325811
0.0318603
0.031265
0.0307444
0.0302873
0.0298886
0.0295396
0.0292313
0.0289571
0.0287123
0.0284933
0.0282969
0.0281206
0.0279624
0.0278204
0.0276933
0.0275796
0.0274785
0.0273891
0.0273105
0.0272422
0.0271836
0.0271343
0.0270939
0.0270621
0.0270386
0.0270232
0.0270157
0.0270156
0.0270227
0.0270364
0.0270557
0.0270794
0.0271053
0.02713
0.0271486
0.0271528
0.0271307
0.0270642
0.026929
0.0266923
0.02632
0.0539976
0.0497837
0.0438462
0.0394604
0.037284
0.036019
0.0347847
0.0335977
0.0326424
0.0319115
0.0313121
0.0307893
0.0303293
0.0299274
0.0295756
0.0292649
0.0289886
0.0287419
0.0285211
0.0283232
0.0281455
0.0279859
0.0278427
0.0277144
0.0275997
0.0274977
0.0274073
0.0273278
0.0272586
0.0271992
0.0271491
0.0271079
0.0270752
0.0270509
0.0270345
0.0270258
0.0270244
0.02703
0.0270418
0.0270588
0.0270796
0.027102
0.0271224
0.0271357
0.0271337
0.0271051
0.0270327
0.0268949
0.0266635
0.0263112
0.0529036
0.049195
0.0437835
0.0395543
0.0373204
0.0360349
0.0348325
0.0336641
0.0327026
0.0319619
0.0313582
0.0308335
0.030371
0.0299661
0.0296115
0.0292985
0.0290202
0.0287716
0.0285491
0.0283496
0.0281704
0.0280095
0.0278651
0.0277357
0.02762
0.0275169
0.0274255
0.0273452
0.0272752
0.0272149
0.0271639
0.0271219
0.0270883
0.027063
0.0270456
0.0270358
0.0270331
0.0270371
0.027047
0.0270617
0.0270798
0.0270987
0.027115
0.0271233
0.0271159
0.0270818
0.0270053
0.0268672
0.0266438
0.026314
0.051865
0.0485998
0.0436818
0.0396284
0.0373545
0.0360456
0.034872
0.0337255
0.0327612
0.0320113
0.0314032
0.0308768
0.0304123
0.0300046
0.0296473
0.029332
0.0290517
0.0288013
0.0285771
0.028376
0.0281955
0.0280333
0.0278876
0.0277571
0.0276403
0.0275362
0.0274439
0.0273626
0.0272917
0.0272306
0.0271788
0.0271358
0.0271014
0.0270751
0.0270566
0.0270456
0.0270416
0.027044
0.027052
0.0270644
0.0270797
0.0270954
0.0271078
0.0271117
0.0270996
0.0270612
0.0269822
0.026846
0.026633
0.0263275
0.0508786
0.0480019
0.0435435
0.0396811
0.0373854
0.0360516
0.0349034
0.0337814
0.0328178
0.0320596
0.0314469
0.0309191
0.0304529
0.0300427
0.0296829
0.0293654
0.0290832
0.028831
0.0286052
0.0284026
0.0282206
0.0280571
0.0279102
0.0277785
0.0276606
0.0275555
0.0274623
0.0273801
0.0273083
0.0272463
0.0271936
0.0271497
0.0271143
0.0270871
0.0270675
0.0270553
0.0270498
0.0270506
0.0270567
0.027067
0.0270796
0.0270921
0.0271009
0.0271009
0.0270849
0.0270432
0.0269634
0.026831
0.0266304
0.0263506
0.0499414
0.0474047
0.0433714
0.0397111
0.0374119
0.0360535
0.0349269
0.0338312
0.0328718
0.0321068
0.0314894
0.0309602
0.0304927
0.0300804
0.0297182
0.0293986
0.0291145
0.0288607
0.0286332
0.0284291
0.0282457
0.0280809
0.0279328
0.0278
0.027681
0.0275749
0.0274807
0.0273976
0.0273248
0.0272619
0.0272083
0.0271635
0.0271272
0.0270989
0.0270782
0.0270647
0.0270579
0.0270571
0.0270613
0.0270693
0.0270794
0.027089
0.0270945
0.0270911
0.0270719
0.0270282
0.0269489
0.0268221
0.0266356
0.0263823
0.0490505
0.046811
0.0431687
0.0397176
0.0374325
0.0360516
0.0349429
0.0338744
0.0329226
0.0321525
0.0315305
0.031
0.0305316
0.0301175
0.0297531
0.0294315
0.0291457
0.0288902
0.0286612
0.0284556
0.0282708
0.0281047
0.0279554
0.0278215
0.0277014
0.0275943
0.0274991
0.027415
0.0273413
0.0272775
0.0272229
0.0271772
0.0271399
0.0271105
0.0270887
0.027074
0.0270657
0.0270633
0.0270657
0.0270716
0.0270792
0.0270861
0.0270886
0.0270823
0.0270607
0.027016
0.0269387
0.026819
0.0266479
0.0264216
0.0482028
0.0462233
0.0429387
0.0397002
0.0374458
0.0360461
0.0349518
0.0339107
0.0329698
0.0321965
0.0315702
0.0310383
0.0305694
0.030154
0.0297876
0.0294641
0.0291765
0.0289195
0.028689
0.028482
0.0282959
0.0281285
0.027978
0.0278429
0.0277218
0.0276136
0.0275174
0.0274324
0.0273577
0.027293
0.0272375
0.0271908
0.0271524
0.027122
0.027099
0.027083
0.0270733
0.0270693
0.0270698
0.0270737
0.027079
0.0270833
0.0270833
0.0270746
0.0270514
0.0270067
0.0269326
0.0268213
0.0266666
0.0264674
0.0473958
0.0456435
0.0426847
0.0396588
0.0374502
0.036037
0.0349541
0.0339398
0.0330127
0.0322384
0.0316083
0.0310752
0.030606
0.0301896
0.0298215
0.0294962
0.029207
0.0289485
0.0287166
0.0285082
0.0283208
0.0281522
0.0280005
0.0278643
0.0277421
0.0276329
0.0275357
0.0274496
0.0273741
0.0273083
0.0272518
0.0272042
0.0271648
0.0271332
0.0271091
0.0270917
0.0270806
0.027075
0.0270738
0.0270756
0.0270788
0.0270808
0.0270786
0.0270681
0.027044
0.0270003
0.0269305
0.0268287
0.0266909
0.0265187
0.0466267
0.0450734
0.04241
0.0395937
0.0374444
0.036024
0.0349502
0.0339618
0.0330508
0.032278
0.0316448
0.0311103
0.0306412
0.0302242
0.0298547
0.0295278
0.0292371
0.0289772
0.0287439
0.0285342
0.0283455
0.0281757
0.0280229
0.0278855
0.0277623
0.027652
0.0275538
0.0274668
0.0273902
0.0273235
0.027266
0.0272173
0.0271769
0.0271442
0.0271189
0.0271002
0.0270877
0.0270805
0.0270775
0.0270775
0.0270786
0.0270787
0.0270746
0.0270627
0.0270385
0.0269967
0.0269321
0.0268406
0.0267202
0.0265744
0.0458931
0.0445142
0.0421177
0.0395057
0.037427
0.0360068
0.0349407
0.0339766
0.0330837
0.0323146
0.0316793
0.0311437
0.0306748
0.0302576
0.0298871
0.0295587
0.0292667
0.0290055
0.0287709
0.02856
0.0283701
0.0281991
0.0280451
0.0279066
0.0277823
0.027671
0.0275718
0.0274837
0.0274062
0.0273385
0.02728
0.0272302
0.0271887
0.0271549
0.0271283
0.0271084
0.0270944
0.0270857
0.027081
0.0270792
0.0270785
0.0270768
0.0270713
0.0270586
0.0270348
0.0269956
0.0269371
0.0268565
0.0267536
0.0266333
0.0451926
0.0439668
0.0418109
0.0393958
0.0373969
0.0359846
0.0349258
0.0339844
0.0331109
0.032348
0.0317118
0.0311753
0.0307067
0.0302897
0.0299185
0.0295889
0.0292956
0.0290332
0.0287975
0.0285854
0.0283943
0.0282221
0.0280671
0.0279275
0.0278021
0.0276898
0.0275895
0.0275005
0.0274219
0.0273532
0.0272937
0.0272429
0.0272003
0.0271653
0.0271375
0.0271162
0.0271009
0.0270906
0.0270843
0.0270808
0.0270785
0.0270753
0.0270686
0.0270556
0.0270329
0.0269971
0.0269452
0.0268758
0.0267904
0.0266946
0.0445231
0.0434319
0.0414924
0.0392652
0.0373535
0.0359569
0.0349057
0.0339853
0.0331321
0.0323777
0.0317419
0.0312049
0.0307369
0.0303204
0.0299488
0.0296183
0.0293239
0.0290604
0.0288236
0.0286104
0.0284182
0.0282449
0.0280887
0.0279481
0.0278217
0.0277083
0.027607
0.027517
0.0274374
0.0273676
0.0273071
0.0272552
0.0272115
0.0271753
0.0271463
0.0271237
0.0271069
0.0270952
0.0270874
0.0270823
0.0270785
0.027074
0.0270667
0.0270538
0.0270327
0.0270007
0.026956
0.0268981
0.0268296
0.026757
0.0438826
0.0429099
0.0411647
0.0391155
0.0372961
0.0359228
0.0348805
0.0339797
0.0331471
0.0324032
0.0317694
0.0312323
0.030765
0.0303493
0.0299778
0.0296466
0.0293513
0.0290868
0.0288491
0.0286348
0.0284416
0.0282672
0.02811
0.0279684
0.0278409
0.0277265
0.0276242
0.0275331
0.0274525
0.0273817
0.0273201
0.0272671
0.0272223
0.027185
0.0271547
0.0271308
0.0271126
0.0270994
0.0270902
0.0270837
0.0270786
0.0270731
0.0270653
0.027053
0.027034
0.0270063
0.026969
0.0269226
0.0268705
0.0268197
0.0432692
0.0424009
0.04083
0.0389482
0.0372246
0.0358816
0.0348501
0.0339677
0.0331558
0.0324242
0.0317939
0.0312574
0.0307911
0.0303765
0.0300054
0.0296739
0.0293777
0.0291125
0.0288738
0.0286587
0.0284645
0.0282891
0.0281309
0.0279882
0.0278597
0.0277443
0.027641
0.0275489
0.0274673
0.0273954
0.0273327
0.0272787
0.0272326
0.0271941
0.0271626
0.0271374
0.0271179
0.0271033
0.0270927
0.0270849
0.0270786
0.0270724
0.0270645
0.0270531
0.0270365
0.0270135
0.0269838
0.0269487
0.0269123
0.0268817
0.042681
0.0419051
0.0404905
0.0387651
0.0371388
0.0358325
0.0348146
0.0339496
0.0331581
0.0324403
0.0318152
0.0312801
0.0308149
0.0304017
0.0300314
0.0296998
0.0294032
0.0291372
0.0288978
0.0286818
0.0284867
0.0283105
0.0281513
0.0280076
0.0278781
0.0277617
0.0276574
0.0275643
0.0274816
0.0274087
0.0273449
0.0272897
0.0272425
0.0272028
0.02717
0.0271436
0.0271227
0.0271068
0.0270948
0.0270859
0.0270787
0.0270719
0.0270642
0.027054
0.0270401
0.027022
0.0269999
0.0269758
0.0269541
0.026942
0.0421166
0.0414224
0.0401479
0.038568
0.0370391
0.0357749
0.0347735
0.0339256
0.0331541
0.0324511
0.0318329
0.0313
0.0308364
0.0304249
0.0300557
0.0297243
0.0294274
0.0291609
0.0289209
0.0287042
0.0285083
0.0283311
0.028171
0.0280264
0.027896
0.0277786
0.0276732
0.0275791
0.0274954
0.0274214
0.0273566
0.0273002
0.0272519
0.027211
0.0271769
0.0271492
0.027127
0.0271098
0.0270967
0.0270866
0.0270786
0.0270715
0.0270642
0.0270554
0.0270446
0.0270314
0.0270167
0.0270031
0.0269951
0.0269999
0.0415745
0.0409527
0.0398037
0.0383585
0.0369259
0.0357084
0.0347266
0.0338957
0.0331438
0.0324565
0.0318465
0.031317
0.0308554
0.0304457
0.030078
0.0297473
0.0294503
0.0291835
0.028943
0.0287257
0.0285291
0.0283511
0.0281901
0.0280446
0.0279132
0.0277949
0.0276886
0.0275934
0.0275086
0.0274336
0.0273676
0.0273102
0.0272606
0.0272185
0.0271832
0.0271542
0.0271308
0.0271123
0.027098
0.027087
0.0270784
0.0270712
0.0270644
0.0270573
0.0270495
0.0270413
0.0270339
0.0270301
0.0270346
0.0270543
0.0410532
0.0404956
0.0394592
0.0381383
0.0367998
0.0356325
0.0346736
0.0338601
0.0331274
0.0324563
0.0318559
0.0313308
0.0308717
0.0304642
0.0300982
0.0297685
0.0294718
0.0292048
0.0289639
0.0287461
0.0285489
0.0283702
0.0282085
0.0280621
0.0279298
0.0278105
0.0277032
0.027607
0.0275212
0.0274451
0.027378
0.0273194
0.0272687
0.0272254
0.0271889
0.0271586
0.027134
0.0271143
0.0270989
0.0270871
0.0270779
0.0270707
0.0270646
0.0270593
0.0270547
0.0270513
0.0270508
0.027056
0.0270719
0.0271047
0.0405514
0.040051
0.0391156
0.037909
0.0366616
0.0355471
0.0346141
0.0338188
0.0331048
0.0324504
0.0318608
0.0313412
0.0308851
0.0304801
0.0301161
0.0297877
0.0294916
0.0292247
0.0289836
0.0287655
0.0285677
0.0283885
0.0282259
0.0280787
0.0279456
0.0278254
0.0277171
0.02762
0.0275331
0.0274559
0.0273877
0.027328
0.0272761
0.0272316
0.0271938
0.0271623
0.0271364
0.0271157
0.0270993
0.0270866
0.027077
0.0270699
0.0270647
0.0270612
0.0270597
0.0270609
0.0270668
0.0270803
0.0271062
0.0271503
0.0400681
0.0396185
0.0387737
0.0376721
0.0365121
0.035452
0.0345478
0.0337717
0.0330763
0.0324387
0.0318608
0.0313478
0.0308955
0.0304933
0.0301316
0.0298049
0.0295096
0.029243
0.0290019
0.0287836
0.0285855
0.0284056
0.0282424
0.0280945
0.0279605
0.0278394
0.0277302
0.0276321
0.0275442
0.0274659
0.0273967
0.0273357
0.0272827
0.0272369
0.0271979
0.0271652
0.0271382
0.0271163
0.0270989
0.0270856
0.0270757
0.0270687
0.0270644
0.0270627
0.0270642
0.0270698
0.0270815
0.0271024
0.0271369
0.0271905
0.0396021
0.0391977
0.0384343
0.0374289
0.0363523
0.0353475
0.0344744
0.0337188
0.0330418
0.0324211
0.0318558
0.0313504
0.0309026
0.0305036
0.0301446
0.0298198
0.0295257
0.0292596
0.0290187
0.0288003
0.0286019
0.0284216
0.0282579
0.0281092
0.0279745
0.0278526
0.0277424
0.0276433
0.0275544
0.0274751
0.0274047
0.0273426
0.0272884
0.0272414
0.0272012
0.0271672
0.0271391
0.0271161
0.0270979
0.0270839
0.0270737
0.0270669
0.0270635
0.0270636
0.0270678
0.0270774
0.0270943
0.0271216
0.0271634
0.0272247
0.0391524
0.0387884
0.038098
0.0371807
0.0361831
0.0352338
0.0343939
0.0336598
0.0330015
0.0323977
0.0318457
0.0313488
0.0309062
0.0305109
0.0301549
0.0298323
0.0295397
0.0292744
0.0290339
0.0288155
0.028617
0.0284364
0.0282721
0.0281229
0.0279874
0.0278646
0.0277536
0.0276536
0.0275637
0.0274833
0.0274117
0.0273485
0.0272931
0.0272449
0.0272035
0.0271683
0.027139
0.027115
0.0270959
0.0270813
0.0270708
0.0270643
0.0270618
0.0270635
0.0270702
0.0270833
0.0271048
0.0271375
0.0271852
0.0272524
0.038718
0.0383901
0.0377654
0.0369285
0.0360055
0.0351111
0.034306
0.0335948
0.0329553
0.0323686
0.0318302
0.0313428
0.0309062
0.030515
0.0301622
0.0298422
0.0295514
0.0292872
0.0290472
0.0288291
0.0286305
0.0284497
0.0282851
0.0281353
0.0279991
0.0278756
0.0277637
0.0276627
0.0275718
0.0274904
0.0274177
0.0273534
0.0272967
0.0272474
0.0272047
0.0271684
0.0271379
0.0271129
0.027093
0.0270777
0.027067
0.0270607
0.0270589
0.0270621
0.027071
0.0270871
0.0271124
0.0271494
0.0272017
0.0272733
0.0382982
0.0380024
0.0374369
0.0366733
0.0358204
0.03498
0.0342107
0.0335237
0.0329033
0.0323337
0.0318094
0.0313321
0.0309022
0.0305157
0.0301666
0.0298494
0.0295606
0.0292978
0.0290586
0.0288409
0.0286424
0.0284615
0.0282966
0.0281463
0.0280096
0.0278853
0.0277726
0.0276707
0.0275788
0.0274963
0.0274226
0.0273571
0.0272993
0.0272487
0.0272048
0.0271673
0.0271357
0.0271097
0.0270889
0.0270731
0.027062
0.0270558
0.0270546
0.027059
0.0270698
0.0270884
0.0271167
0.027157
0.0272127
0.027287
0.0378921
0.0376251
0.0371128
0.0364162
0.0356288
0.0348408
0.0341082
0.0334462
0.0328456
0.032293
0.0317831
0.0313166
0.0308941
0.0305129
0.0301677
0.0298536
0.0295672
0.029306
0.0290679
0.0288507
0.0286526
0.0284717
0.0283065
0.0281559
0.0280186
0.0278936
0.0277802
0.0276774
0.0275846
0.027501
0.0274262
0.0273595
0.0273005
0.0272487
0.0272036
0.027165
0.0271323
0.0271052
0.0270835
0.027067
0.0270557
0.0270495
0.0270487
0.027054
0.0270663
0.0270867
0.0271172
0.0271599
0.0272176
0.0272932
0.0374989
0.0372577
0.0367933
0.0361577
0.0354315
0.0346943
0.0339985
0.0333625
0.032782
0.0322466
0.0317513
0.0312961
0.0308818
0.0305063
0.0301655
0.0298549
0.0295711
0.0293118
0.0290749
0.0288585
0.0286608
0.02848
0.0283148
0.0281638
0.028026
0.0279005
0.0277863
0.0276827
0.0275889
0.0275043
0.0274284
0.0273606
0.0273004
0.0272474
0.0272011
0.0271612
0.0271274
0.0270993
0.0270767
0.0270595
0.0270477
0.0270414
0.0270409
0.0270468
0.02706
0.0270818
0.0271137
0.0271577
0.0272162
0.0272917
0.0371179
0.0368998
0.0364786
0.0358987
0.0352294
0.0345409
0.0338819
0.0332726
0.0327126
0.0321946
0.0317141
0.0312706
0.030865
0.0304958
0.0301597
0.0298529
0.029572
0.0293149
0.0290795
0.0288641
0.0286669
0.0284864
0.0283212
0.02817
0.0280319
0.0279058
0.0277909
0.0276864
0.0275917
0.0275061
0.0274291
0.0273602
0.0272988
0.0272445
0.0271971
0.027156
0.027121
0.0270918
0.0270683
0.0270503
0.0270379
0.0270313
0.0270308
0.027037
0.0270507
0.0270731
0.0271057
0.0271501
0.0272084
0.0272826
0.0367486
0.0365512
0.0361689
0.0356397
0.0350233
0.0343814
0.0337587
0.0331764
0.0326374
0.0321369
0.0316713
0.03124
0.0308436
0.0304812
0.0301503
0.0298475
0.0295699
0.0293151
0.0290815
0.0288672
0.0286708
0.0284908
0.0283257
0.0281744
0.0280359
0.0279093
0.0277937
0.0276885
0.0275929
0.0275063
0.0274282
0.0273581
0.0272956
0.0272401
0.0271914
0.027149
0.0271129
0.0270826
0.027058
0.0270392
0.0270261
0.027019
0.0270182
0.0270242
0.027038
0.0270604
0.0270929
0.0271368
0.0271938
0.0272656
0.0363902
0.0362114
0.0358642
0.0353812
0.0348138
0.0342162
0.0336291
0.0330741
0.0325564
0.0320737
0.0316231
0.0312042
0.0308174
0.0304624
0.0301371
0.0298387
0.0295645
0.0293124
0.0290807
0.0288679
0.0286724
0.0284928
0.028328
0.0281767
0.0280379
0.0279109
0.0277947
0.0276888
0.0275923
0.0275048
0.0274256
0.0273544
0.0272906
0.0272339
0.0271839
0.0271403
0.0271029
0.0270714
0.0270458
0.027026
0.027012
0.0270042
0.0270028
0.0270084
0.0270216
0.0270435
0.0270751
0.0271176
0.0271724
0.0272408
0.0360423
0.0358802
0.0355647
0.0351237
0.0346017
0.0340459
0.0334936
0.0329659
0.0324698
0.0320049
0.0315695
0.0311632
0.0307865