/*--------------------------------*- C++ -*----------------------------------*\
  =========                 |
  \\      /  F ield         | OpenFOAM: The Open Source CFD Toolbox
   \\    /   O peration     | Website:  https://openfoam.org
    \\  /    A nd           | Version:  7
     \\/     M anipulation  |
\*---------------------------------------------------------------------------*/
FoamFile
{
    version     2.0;
    format      ascii;
    class       surfaceScalarField;
    location    "0.23";
    object      phi;
}
// * * * * * * * * * * * * * * * * * * * * * * * * * * * * * * * * * * * * * //

dimensions      [0 3 -1 0 0 0 0];

internalField   nonuniform List<scalar> 
139350
(
6.45119e-08
9.21196e-08
3.19641e-08
3.25479e-08
2.30582e-08
8.90591e-09
1.95727e-08
3.48549e-09
1.762e-08
1.95267e-09
1.61891e-08
1.43096e-09
1.50553e-08
1.1337e-09
1.41422e-08
9.13144e-10
1.33909e-08
7.51297e-10
1.27581e-08
6.32805e-10
1.2215e-08
5.43126e-10
1.17422e-08
4.72787e-10
1.1326e-08
4.16185e-10
1.09562e-08
3.69797e-10
1.0625e-08
3.31219e-10
1.03263e-08
2.98732e-10
1.00552e-08
2.71074e-10
9.80788e-09
2.473e-10
9.58119e-09
2.26689e-10
9.37251e-09
2.08684e-10
9.17967e-09
1.92845e-10
9.00084e-09
1.78825e-10
8.8345e-09
1.66342e-10
8.67933e-09
1.5517e-10
8.53421e-09
1.4512e-10
8.39817e-09
1.36041e-10
8.27037e-09
1.27801e-10
8.15007e-09
1.20299e-10
8.03663e-09
1.13438e-10
7.92948e-09
1.07152e-10
7.82812e-09
1.01364e-10
7.73207e-09
9.60434e-11
7.64096e-09
9.11121e-11
7.55437e-09
8.65896e-11
7.472e-09
8.23694e-11
7.39345e-09
7.85473e-11
7.31849e-09
7.49664e-11
7.24668e-09
7.18126e-11
7.17776e-09
6.89161e-11
7.11131e-09
6.64461e-11
7.04676e-09
6.4549e-11
6.98404e-09
6.27254e-11
6.92113e-09
6.29045e-11
6.85996e-09
6.11714e-11
6.79302e-09
6.69472e-11
6.73093e-09
6.20897e-11
6.64376e-09
8.717e-11
6.5921e-09
5.16553e-11
6.3083e-09
2.83801e-10
-2.77593e-09
9.08423e-09
1.25943e-07
1.2762e-07
9.12887e-08
6.7202e-08
7.19349e-08
2.82597e-08
6.12183e-08
1.42021e-08
5.47809e-08
8.39002e-09
5.02851e-08
5.9268e-09
4.67998e-08
4.61903e-09
4.39857e-08
3.72725e-09
4.1662e-08
3.075e-09
3.97031e-08
2.59164e-09
3.80219e-08
2.22432e-09
3.65583e-08
1.93639e-09
3.52697e-08
1.70486e-09
3.41243e-08
1.51514e-09
3.30982e-08
1.35734e-09
3.21725e-08
1.22443e-09
3.13323e-08
1.11124e-09
3.05657e-08
1.01392e-09
2.98629e-08
9.29523e-10
2.92158e-08
8.55775e-10
2.86177e-08
7.90885e-10
2.80631e-08
7.33426e-10
2.75472e-08
6.82254e-10
2.7066e-08
6.36436e-10
2.66159e-08
5.95211e-10
2.6194e-08
5.57947e-10
2.57977e-08
5.24119e-10
2.54247e-08
4.93292e-10
2.5073e-08
4.65089e-10
2.47409e-08
4.39213e-10
2.44269e-08
4.15375e-10
2.41296e-08
3.93402e-10
2.38477e-08
3.73027e-10
2.358e-08
3.54236e-10
2.33257e-08
3.3669e-10
2.30836e-08
3.20648e-10
2.2853e-08
3.05526e-10
2.26327e-08
2.92101e-10
2.24224e-08
2.79276e-10
2.22201e-08
2.68703e-10
2.20261e-08
2.58568e-10
2.18373e-08
2.51516e-10
2.16544e-08
2.4586e-10
2.14724e-08
2.4314e-10
2.12909e-08
2.4839e-10
2.11054e-08
2.47618e-10
2.08983e-08
2.943e-10
2.07233e-08
2.26601e-10
2.02987e-08
7.0841e-10
-3.05015e-09
2.0573e-08
1.58752e-07
1.35272e-07
1.36526e-07
8.94281e-08
1.17492e-07
4.72942e-08
1.03314e-07
2.838e-08
9.33199e-08
1.83839e-08
8.60207e-08
1.3226e-08
8.03151e-08
1.03246e-08
7.56667e-08
8.37567e-09
7.17928e-08
6.94889e-09
6.85057e-08
5.87882e-09
6.56717e-08
5.05828e-09
6.31961e-08
4.41195e-09
6.10104e-08
3.89061e-09
5.90632e-08
3.4623e-09
5.73154e-08
3.10522e-09
5.57359e-08
2.80385e-09
5.43004e-08
2.54676e-09
5.29889e-08
2.32539e-09
5.17853e-08
2.13316e-09
5.06761e-08
1.965e-09
4.96501e-08
1.81687e-09
4.86979e-08
1.68559e-09
4.78116e-08
1.56858e-09
4.69843e-08
1.46373e-09
4.62102e-08
1.36933e-09
4.54842e-08
1.28395e-09
4.48019e-08
1.20639e-09
4.41595e-08
1.13566e-09
4.35537e-08
1.07092e-09
4.29815e-08
1.01146e-09
4.24402e-08
9.56665e-10
4.19275e-08
9.06074e-10
4.14414e-08
8.59145e-10
4.09799e-08
8.15738e-10
4.05414e-08
7.75185e-10
4.01241e-08
7.37922e-10
3.97269e-08
7.02708e-10
3.93478e-08
6.71241e-10
3.89863e-08
6.40755e-10
3.86393e-08
6.15697e-10
3.83079e-08
5.89948e-10
3.79861e-08
5.73398e-10
3.7678e-08
5.5392e-10
3.7371e-08
5.50141e-10
3.70754e-08
5.44019e-10
3.67666e-08
5.56344e-10
3.64539e-08
6.07043e-10
3.61442e-08
5.36264e-10
3.57147e-08
1.13796e-09
-2.28073e-09
3.49453e-08
1.75611e-07
1.31176e-07
1.65623e-07
9.94163e-08
1.52734e-07
6.01834e-08
1.40124e-07
4.09898e-08
1.29444e-07
2.90641e-08
1.20806e-07
2.18637e-08
1.13696e-07
1.74341e-08
1.0772e-07
1.43523e-08
1.02625e-07
1.20433e-08
9.82304e-08
1.02738e-08
9.43947e-08
8.89396e-09
9.10127e-08
7.794e-09
8.80043e-08
6.899e-09
8.5308e-08
6.15858e-09
8.28755e-08
5.53776e-09
8.0668e-08
5.01126e-09
7.86545e-08
4.5603e-09
7.68093e-08
4.17063e-09
7.51112e-08
3.83125e-09
7.35426e-08
3.53356e-09
7.20887e-08
3.27076e-09
7.0737e-08
3.03736e-09
6.94766e-08
2.82896e-09
6.82984e-08
2.64193e-09
6.71944e-08
2.47329e-09
6.61578e-08
2.32057e-09
6.51825e-08
2.18169e-09
6.42633e-08
2.0549e-09
6.33955e-08
1.93873e-09
6.2575e-08
1.83193e-09
6.17982e-08
1.73342e-09
6.1062e-08
1.64235e-09
6.03633e-08
1.55781e-09
5.96996e-08
1.47946e-09
5.90686e-08
1.40621e-09
5.84678e-08
1.33866e-09
5.78958e-08
1.27476e-09
5.73497e-08
1.2173e-09
5.68291e-08
1.16139e-09
5.63298e-08
1.115e-09
5.58533e-08
1.0664e-09
5.53918e-08
1.03488e-09
5.49514e-08
9.94369e-10
5.45152e-08
9.86286e-10
5.40985e-08
9.60748e-10
5.36682e-08
9.8667e-10
5.32448e-08
1.03044e-09
5.28066e-08
9.74452e-10
5.23313e-08
1.61323e-09
-1.19896e-09
5.12496e-08
1.8451e-07
1.23452e-07
1.8234e-07
1.01586e-07
1.7612e-07
6.64039e-08
1.67761e-07
4.93481e-08
1.59142e-07
3.76838e-08
1.51237e-07
2.97682e-08
1.44167e-07
2.4504e-08
1.37872e-07
2.06479e-08
1.32277e-07
1.76375e-08
1.273e-07
1.52511e-08
1.22854e-07
1.33403e-08
1.18862e-07
1.17861e-08
1.15259e-07
1.05016e-08
1.11992e-07
9.42556e-09
1.09016e-07
8.51395e-09
1.06293e-07
7.73414e-09
1.03792e-07
7.0613e-09
1.01486e-07
6.47626e-09
9.93536e-08
5.96398e-09
9.73747e-08
5.51252e-09
9.55331e-08
5.11231e-09
9.38149e-08
4.75561e-09
9.22077e-08
4.4361e-09
9.07011e-08
4.14853e-09
8.92859e-08
3.88859e-09
8.79538e-08
3.65264e-09
8.66978e-08
3.43764e-09
8.55117e-08
3.24101e-09
8.43899e-08
3.06054e-09
8.33275e-08
2.89437e-09
8.232e-08
2.74088e-09
8.13636e-08
2.59876e-09
8.04547e-08
2.46668e-09
7.95901e-08
2.34404e-09
7.87671e-08
2.22927e-09
7.79826e-08
2.12311e-09
7.72348e-08
2.02262e-09
7.65204e-08
1.9317e-09
7.58385e-08
1.84327e-09
7.51847e-08
1.76882e-09
7.45601e-08
1.69097e-09
7.39566e-08
1.63842e-09
7.33798e-08
1.57118e-09
7.28129e-08
1.55315e-09
7.22697e-08
1.5039e-09
7.17197e-08
1.53674e-09
7.11781e-08
1.57204e-09
7.06232e-08
1.5293e-09
7.00472e-08
2.18926e-09
-6.79432e-12
6.8855e-08
1.90342e-07
1.15326e-07
1.91859e-07
1.0007e-07
1.90261e-07
6.80011e-08
1.86155e-07
5.34541e-08
1.80716e-07
4.31232e-08
1.74964e-07
3.55199e-08
1.69269e-07
3.01992e-08
1.63788e-07
2.61291e-08
1.58618e-07
2.28074e-08
1.53801e-07
2.00678e-08
1.4934e-07
1.78013e-08
1.45218e-07
1.59082e-08
1.41411e-07
1.4309e-08
1.37892e-07
1.29447e-08
1.34635e-07
1.17713e-08
1.31614e-07
1.07544e-08
1.28808e-07
9.86734e-09
1.26196e-07
9.08865e-09
1.23759e-07
8.40115e-09
1.2148e-07
7.79089e-09
1.19346e-07
7.24648e-09
1.17343e-07
6.75852e-09
1.1546e-07
6.31924e-09
1.13686e-07
5.92213e-09
1.12013e-07
5.56174e-09
1.10432e-07
5.23345e-09
1.08937e-07
4.93335e-09
1.0752e-07
4.65807e-09
1.06175e-07
4.40478e-09
1.04899e-07
4.17098e-09
1.03685e-07
3.95455e-09
1.0253e-07
3.75373e-09
1.0143e-07
3.56675e-09
1.00381e-07
3.39274e-09
9.9381e-08
3.22969e-09
9.84257e-08
3.07838e-09
9.75133e-08
2.9351e-09
9.66403e-08
2.80464e-09
9.58056e-08
2.67803e-09
9.50046e-08
2.56978e-09
9.42379e-08
2.4577e-09
9.34979e-08
2.37835e-09
9.27885e-08
2.28061e-09
9.20959e-08
2.2458e-09
9.14277e-08
2.17203e-09
9.07636e-08
2.20083e-09
9.01031e-08
2.23255e-09
8.94394e-08
2.19303e-09
8.87521e-08
2.87655e-09
1.26971e-09
8.74756e-08
1.95504e-07
1.07637e-07
1.98247e-07
9.73272e-08
1.98985e-07
6.72631e-08
1.97789e-07
5.46493e-08
1.95154e-07
4.57586e-08
1.91814e-07
3.88603e-08
1.88082e-07
3.39312e-08
1.84132e-07
3.0079e-08
1.80115e-07
2.68245e-08
1.7614e-07
2.40419e-08
1.72277e-07
2.16645e-08
1.68564e-07
1.96219e-08
1.65019e-07
1.78532e-08
1.61653e-07
1.63114e-08
1.58464e-07
1.496e-08
1.55449e-07
1.37697e-08
1.526e-07
1.27163e-08
1.49908e-07
1.178e-08
1.47366e-07
1.09441e-08
1.44962e-07
1.01948e-08
1.42688e-07
9.5205e-09
1.40535e-07
8.91145e-09
1.38495e-07
8.35933e-09
1.3656e-07
7.85709e-09
1.34723e-07
7.39872e-09
1.32977e-07
6.97904e-09
1.31317e-07
6.59364e-09
1.29736e-07
6.23865e-09
1.2823e-07
5.91076e-09
1.26794e-07
5.60706e-09
1.25424e-07
5.32503e-09
1.24115e-07
5.06255e-09
1.22864e-07
4.81754e-09
1.21668e-07
4.58885e-09
1.20523e-07
4.37413e-09
1.19428e-07
4.17419e-09
1.18378e-07
3.98468e-09
1.17372e-07
3.81109e-09
1.16407e-07
3.64301e-09
1.15479e-07
3.49712e-09
1.14589e-07
3.34798e-09
1.1373e-07
3.23736e-09
1.12903e-07
3.1075e-09
1.12099e-07
3.0495e-09
1.11319e-07
2.95275e-09
1.10553e-07
2.96648e-09
1.09786e-07
2.99999e-09
1.09021e-07
2.9581e-09
1.08237e-07
3.66023e-09
2.60692e-09
1.069e-07
2.00819e-07
1.00402e-07
2.03771e-07
9.43752e-08
2.05344e-07
6.56901e-08
2.05644e-07
5.43491e-08
2.04813e-07
4.65904e-08
2.03332e-07
4.03412e-08
2.01383e-07
3.58802e-08
1.99051e-07
3.24105e-08
1.96445e-07
2.9431e-08
1.93666e-07
2.68203e-08
1.90797e-07
2.45341e-08
1.87896e-07
2.25225e-08
1.85009e-07
2.07406e-08
1.82166e-07
1.91539e-08
1.79391e-07
1.77357e-08
1.76696e-07
1.64642e-08
1.74092e-07
1.53208e-08
1.71582e-07
1.42897e-08
1.69169e-07
1.33571e-08
1.66852e-07
1.25114e-08
1.6463e-07
1.17421e-08
1.62501e-07
1.10406e-08
1.60462e-07
1.03991e-08
1.58508e-07
9.81084e-09
1.56636e-07
9.27013e-09
1.54844e-07
8.77179e-09
1.53126e-07
8.31139e-09
1.5148e-07
7.88498e-09
1.49901e-07
7.48914e-09
1.48388e-07
7.12081e-09
1.46935e-07
6.77731e-09
1.45541e-07
6.45636e-09
1.44203e-07
6.15569e-09
1.42918e-07
5.87406e-09
1.41683e-07
5.60886e-09
1.40497e-07
5.36096e-09
1.39356e-07
5.1256e-09
1.38258e-07
4.90872e-09
1.37202e-07
4.69908e-09
1.36185e-07
4.51459e-09
1.35204e-07
4.32829e-09
1.34257e-07
4.18426e-09
1.33342e-07
4.02299e-09
1.32454e-07
3.93741e-09
1.31586e-07
3.8205e-09
1.30741e-07
3.81145e-09
1.29892e-07
3.8494e-09
1.29043e-07
3.80705e-09
1.28186e-07
4.51662e-09
3.96296e-09
1.2683e-07
2.06423e-07
9.35118e-08
2.09331e-07
9.14668e-08
2.11055e-07
6.39658e-08
2.11935e-07
5.34694e-08
2.11997e-07
4.65287e-08
2.1161e-07
4.07281e-08
2.10878e-07
3.66119e-08
2.09805e-07
3.34837e-08
2.0843e-07
3.08062e-08
2.06811e-07
2.84389e-08
2.05005e-07
2.634e-08
2.03061e-07
2.44666e-08
2.01021e-07
2.27804e-08
1.98921e-07
2.12537e-08
1.96791e-07
1.98664e-08
1.94652e-07
1.86025e-08
1.92525e-07
1.74486e-08
1.90421e-07
1.6393e-08
1.88353e-07
1.54255e-08
1.86327e-07
1.45371e-08
1.84349e-07
1.37199e-08
1.82423e-07
1.29666e-08
1.80552e-07
1.2271e-08
1.78735e-07
1.16274e-08
1.76974e-07
1.10308e-08
1.75269e-07
1.04767e-08
1.7362e-07
9.96105e-09
1.72024e-07
9.48033e-09
1.70482e-07
9.03135e-09
1.68992e-07
8.61119e-09
1.67552e-07
8.21731e-09
1.66161e-07
7.84749e-09
1.64817e-07
7.49948e-09
1.63519e-07
7.17209e-09
1.62265e-07
6.86265e-09
1.61054e-07
6.57214e-09
1.59884e-07
6.29564e-09
1.58753e-07
6.03932e-09
1.57661e-07
5.79174e-09
1.56604e-07
5.57118e-09
1.55582e-07
5.35074e-09
1.54592e-07
5.17425e-09
1.5363e-07
4.98467e-09
1.52697e-07
4.87029e-09
1.51781e-07
4.73683e-09
1.5089e-07
4.70199e-09
1.49995e-07
4.74471e-09
1.49093e-07
4.70862e-09
1.48196e-07
5.41359e-09
5.28951e-09
1.4687e-07
2.12269e-07
8.69054e-08
2.1514e-07
8.85959e-08
2.1681e-07
6.22953e-08
2.17849e-07
5.24302e-08
2.18256e-07
4.61218e-08
2.18371e-07
4.06131e-08
2.18293e-07
3.66903e-08
2.1799e-07
3.37867e-08
2.17456e-07
3.13395e-08
2.16712e-07
2.91832e-08
2.15781e-07
2.72711e-08
2.14688e-07
2.55592e-08
2.1346e-07
2.40086e-08
2.12122e-07
2.25922e-08
2.10697e-07
2.12917e-08
2.09206e-07
2.00935e-08
2.07667e-07
1.89867e-08
2.06098e-07
1.79625e-08
2.0451e-07
1.7013e-08
2.02916e-07
1.61313e-08
2.01325e-07
1.53115e-08
1.99743e-07
1.45482e-08
1.98178e-07
1.38364e-08
1.96633e-07
1.31718e-08
1.95114e-07
1.25503e-08
1.93622e-07
1.19683e-08
1.9216e-07
1.14226e-08
1.90731e-07
1.09101e-08
1.89334e-07
1.04282e-08
1.87971e-07
9.97438e-09
1.86642e-07
9.5464e-09
1.85347e-07
9.14232e-09
1.84086e-07
8.76011e-09
1.82859e-07
8.39875e-09
1.81666e-07
8.0557e-09
1.80506e-07
7.7321e-09
1.79379e-07
7.4231e-09
1.78283e-07
7.13499e-09
1.77218e-07
6.8566e-09
1.76184e-07
6.60588e-09
1.75177e-07
6.35735e-09
1.74199e-07
6.1526e-09
1.73243e-07
5.94012e-09
1.72314e-07
5.79912e-09
1.71398e-07
5.65361e-09
1.70505e-07
5.5944e-09
1.69609e-07
5.64132e-09
1.68697e-07
5.61998e-09
1.67801e-07
6.31015e-09
6.5368e-09
1.66553e-07
2.18315e-07
8.05716e-08
2.21189e-07
8.57215e-08
2.22783e-07
6.07016e-08
2.2385e-07
5.13626e-08
2.24366e-07
4.56065e-08
2.24658e-07
4.03206e-08
2.24856e-07
3.64926e-08
2.2493e-07
3.37119e-08
2.24862e-07
3.1408e-08
2.24651e-07
2.93941e-08
2.24303e-07
2.76196e-08
2.23823e-07
2.60389e-08
2.23221e-07
2.46105e-08
2.22508e-07
2.33048e-08
2.21697e-07
2.21024e-08
2.20802e-07
2.09894e-08
2.19833e-07
1.99551e-08
2.18804e-07
1.89912e-08
2.17727e-07
1.80907e-08
2.1661e-07
1.72479e-08
2.15464e-07
1.64578e-08
2.14296e-07
1.5716e-08
2.13114e-07
1.50186e-08
2.11924e-07
1.43621e-08
2.1073e-07
1.37434e-08
2.09539e-07
1.31596e-08
2.08354e-07
1.26081e-08
2.07177e-07
1.20865e-08
2.06013e-07
1.15928e-08
2.04862e-07
1.11248e-08
2.03728e-07
1.06807e-08
2.02611e-07
1.0259e-08
2.01513e-07
9.85797e-09
2.00435e-07
9.47683e-09
1.99378e-07
9.11326e-09
1.98341e-07
8.76861e-09
1.97326e-07
8.43828e-09
1.96333e-07
8.12856e-09
1.9536e-07
7.82894e-09
1.9441e-07
7.55654e-09
1.93479e-07
7.28821e-09
1.92569e-07
7.06193e-09
1.91676e-07
6.83373e-09
1.90804e-07
6.67117e-09
1.89938e-07
6.51889e-09
1.89093e-07
6.44021e-09
1.88243e-07
6.49082e-09
1.87371e-07
6.49239e-09
1.86521e-07
7.16024e-09
7.65692e-09
1.85401e-07
2.24548e-07
7.45167e-08
2.27449e-07
8.2821e-08
2.28978e-07
5.91718e-08
2.30053e-07
5.0288e-08
2.30609e-07
4.50507e-08
2.3095e-07
3.99797e-08
2.31237e-07
3.62053e-08
2.3146e-07
3.34893e-08
2.31599e-07
3.12682e-08
2.31655e-07
2.93384e-08
2.31626e-07
2.76483e-08
2.31512e-07
2.61537e-08
2.31311e-07
2.48116e-08
2.31025e-07
2.35903e-08
2.30659e-07
2.24687e-08
2.30217e-07
2.14315e-08
2.29705e-07
2.04672e-08
2.29129e-07
1.95668e-08
2.28496e-07
1.87233e-08
2.27814e-07
1.79307e-08
2.27087e-07
1.71843e-08
2.26323e-07
1.648e-08
2.25527e-07
1.58142e-08
2.24706e-07
1.51839e-08
2.23863e-07
1.45863e-08
2.23003e-07
1.4019e-08
2.22131e-07
1.34799e-08
2.21251e-07
1.2967e-08
2.20365e-07
1.24785e-08
2.19477e-07
1.20128e-08
2.1859e-07
1.15685e-08
2.17704e-07
1.11443e-08
2.16823e-07
1.07387e-08
2.15949e-07
1.03514e-08
2.15082e-07
9.98021e-09
2.14224e-07
9.62668e-09
2.13376e-07
9.28655e-09
2.12538e-07
8.966e-09
2.11712e-07
8.65542e-09
2.10897e-07
8.37075e-09
2.10094e-07
8.09177e-09
2.09304e-07
7.85198e-09
2.08522e-07
7.61594e-09
2.07754e-07
7.43861e-09
2.06988e-07
7.28504e-09
2.06234e-07
7.19383e-09
2.05477e-07
7.24799e-09
2.04691e-07
7.27877e-09
2.03932e-07
7.91929e-09
8.60893e-09
2.0298e-07
2.30974e-07
6.87485e-08
2.3391e-07
7.98854e-08
2.35382e-07
5.76991e-08
2.36465e-07
4.92051e-08
2.37054e-07
4.44621e-08
2.3741e-07
3.96239e-08
2.37718e-07
3.58965e-08
2.37987e-07
3.32208e-08
2.38202e-07
3.1053e-08
2.38367e-07
2.91737e-08
2.38483e-07
2.7532e-08
2.38549e-07
2.60874e-08
2.38563e-07
2.47976e-08
2.38523e-07
2.36304e-08
2.38429e-07
2.25635e-08
2.38279e-07
2.15806e-08
2.38077e-07
2.06695e-08
2.37823e-07
1.98205e-08
2.37521e-07
1.90257e-08
2.37173e-07
1.8279e-08
2.36782e-07
1.75752e-08
2.36352e-07
1.69099e-08
2.35886e-07
1.62797e-08
2.35389e-07
1.56813e-08
2.34863e-07
1.51121e-08
2.34312e-07
1.45698e-08
2.3374e-07
1.40523e-08
2.33149e-07
1.3558e-08
2.32542e-07
1.30851e-08
2.31923e-07
1.26324e-08
2.31293e-07
1.21985e-08
2.30655e-07
1.17825e-08
2.3001e-07
1.1383e-08
2.29362e-07
1.09999e-08
2.28711e-07
1.06313e-08
2.28059e-07
1.02788e-08
2.27407e-07
9.93852e-09
2.26756e-07
9.61642e-09
2.26108e-07
9.30396e-09
2.25463e-07
9.01555e-09
2.2482e-07
8.73428e-09
2.24184e-07
8.48868e-09
2.23548e-07
8.25206e-09
2.22919e-07
8.06702e-09
2.22287e-07
7.91698e-09
2.2166e-07
7.82067e-09
2.2103e-07
7.87828e-09
2.20367e-07
7.94168e-09
2.19735e-07
8.5517e-09
9.36473e-09
2.18979e-07
2.376e-07
6.32729e-08
2.40575e-07
7.69107e-08
2.41991e-07
5.62836e-08
2.43081e-07
4.8115e-08
2.43706e-07
4.38369e-08
2.44075e-07
3.92553e-08
2.44389e-07
3.55822e-08
2.4467e-07
3.29399e-08
2.44908e-07
3.08151e-08
2.45109e-07
2.89727e-08
2.45279e-07
2.73615e-08
2.4542e-07
2.59463e-08
2.45531e-07
2.46869e-08
2.4561e-07
2.35514e-08
2.45656e-07
2.25174e-08
2.45668e-07
2.15685e-08
2.45646e-07
2.0692e-08
2.45588e-07
1.98778e-08
2.45496e-07
1.91178e-08
2.4537e-07
1.84052e-08
2.45211e-07
1.77346e-08
2.45019e-07
1.71013e-08
2.44798e-07
1.65015e-08
2.44547e-07
1.59318e-08
2.44269e-07
1.53896e-08
2.43967e-07
1.48723e-08
2.43642e-07
1.43778e-08
2.43295e-07
1.39044e-08
2.4293e-07
1.34505e-08
2.42547e-07
1.30148e-08
2.4215e-07
1.2596e-08
2.41739e-07
1.21934e-08
2.41316e-07
1.18056e-08
2.40884e-07
1.14326e-08
2.40442e-07
1.10726e-08
2.39994e-07
1.07274e-08
2.39539e-07
1.03934e-08
2.39079e-07
1.00762e-08
2.38615e-07
9.76823e-09
2.38148e-07
9.48236e-09
2.37677e-07
9.20498e-09
2.37206e-07
8.95965e-09
2.3673e-07
8.7279e-09
2.36256e-07
8.54117e-09
2.35775e-07
8.39798e-09
2.35293e-07
8.30294e-09
2.34808e-07
8.36356e-09
2.3429e-07
8.45953e-09
2.33805e-07
9.03675e-09
9.91346e-09
2.33256e-07
2.44436e-07
5.80935e-08
2.47449e-07
7.38975e-08
2.48809e-07
5.49234e-08
2.49902e-07
4.70223e-08
2.50565e-07
4.31734e-08
2.5095e-07
3.88703e-08
2.51269e-07
3.52635e-08
2.51555e-07
3.26535e-08
2.51801e-07
3.05697e-08
2.52012e-07
2.87609e-08
2.522e-07
2.71741e-08
2.52367e-07
2.57795e-08
2.52514e-07
2.45397e-08
2.52642e-07
2.34237e-08
2.5275e-07
2.24093e-08
2.52838e-07
2.14806e-08
2.52905e-07
2.06249e-08
2.5295e-07
1.98322e-08
2.52974e-07
1.90941e-08
2.52975e-07
1.84037e-08
2.52955e-07
1.77554e-08
2.52911e-07
1.71444e-08
2.52846e-07
1.65666e-08
2.5276e-07
1.60185e-08
2.52652e-07
1.54972e-08
2.52524e-07
1.5e-08
2.52377e-07
1.45248e-08
2.52212e-07
1.40697e-08
2.5203e-07
1.3633e-08
2.51831e-07
1.32133e-08
2.51618e-07
1.28095e-08
2.5139e-07
1.24207e-08
2.5115e-07
1.20456e-08
2.50898e-07
1.16844e-08
2.50636e-07
1.13352e-08
2.50364e-07
1.09997e-08
2.50082e-07
1.06747e-08
2.49793e-07
1.03653e-08
2.49496e-07
1.00652e-08
2.49193e-07
9.78528e-09
2.48883e-07
9.51526e-09
2.48569e-07
9.2739e-09
2.48247e-07
9.05004e-09
2.47922e-07
8.86573e-09
2.47589e-07
8.73081e-09
2.47251e-07
8.6414e-09
2.4691e-07
8.70385e-09
2.46541e-07
8.82888e-09
2.46207e-07
9.37119e-09
1.02625e-08
2.45858e-07
2.51488e-07
5.32124e-08
2.54529e-07
7.08561e-08
2.55845e-07
5.36077e-08
2.56935e-07
4.59322e-08
2.57636e-07
4.24724e-08
2.5804e-07
3.8466e-08
2.58365e-07
3.49391e-08
2.58656e-07
3.23619e-08
2.58907e-07
3.03192e-08
2.59123e-07
2.85447e-08
2.59316e-07
2.69815e-08
2.5949e-07
2.56048e-08
2.59649e-07
2.43808e-08
2.59794e-07
2.3279e-08
2.59925e-07
2.22782e-08
2.60043e-07
2.13625e-08
2.60148e-07
2.05198e-08
2.6024e-07
1.97401e-08
2.60319e-07
1.90154e-08
2.60384e-07
1.83386e-08
2.60435e-07
1.77042e-08
2.60473e-07
1.71073e-08
2.60495e-07
1.65437e-08
2.60504e-07
1.60099e-08
2.60499e-07
1.55028e-08
2.60479e-07
1.50196e-08
2.60445e-07
1.45582e-08
2.60399e-07
1.41166e-08
2.60339e-07
1.36929e-08
2.60266e-07
1.32858e-08
2.60182e-07
1.2894e-08
2.60086e-07
1.25167e-08
2.59979e-07
1.21526e-08
2.59861e-07
1.18017e-08
2.59734e-07
1.14624e-08
2.59598e-07
1.11361e-08
2.59452e-07
1.08202e-08
2.59299e-07
1.05188e-08
2.59137e-07
1.02271e-08
2.58968e-07
9.95401e-09
2.58791e-07
9.69225e-09
2.58609e-07
9.45631e-09
2.58418e-07
9.24104e-09
2.58222e-07
9.06118e-09
2.58019e-07
8.93411e-09
2.57808e-07
8.85231e-09
2.57597e-07
8.91463e-09
2.57364e-07
9.06241e-09
2.57168e-07
9.5674e-09
1.04348e-08
2.56995e-07
2.58766e-07
4.86298e-08
2.61825e-07
6.77969e-08
2.63107e-07
5.23255e-08
2.64189e-07
4.48499e-08
2.64926e-07
4.17361e-08
2.65351e-07
3.80407e-08
2.65682e-07
3.46081e-08
2.65979e-07
3.20648e-08
2.66235e-07
3.00634e-08
2.66455e-07
2.83248e-08
2.6665e-07
2.6786e-08
2.66828e-07
2.54273e-08
2.66991e-07
2.4218e-08
2.67141e-07
2.31291e-08
2.67279e-07
2.21395e-08
2.67408e-07
2.12339e-08
2.67527e-07
2.04007e-08
2.67637e-07
1.96301e-08
2.67738e-07
1.89141e-08
2.67831e-07
1.82461e-08
2.67915e-07
1.76204e-08
2.6799e-07
1.70323e-08
2.68056e-07
1.64776e-08
2.68113e-07
1.59527e-08
2.68161e-07
1.54545e-08
2.682e-07
1.49804e-08
2.68231e-07
1.4528e-08
2.68252e-07
1.40952e-08
2.68265e-07
1.36802e-08
2.68269e-07
1.32817e-08
2.68264e-07
1.28983e-08
2.68252e-07
1.25292e-08
2.68231e-07
1.2173e-08
2.68203e-07
1.18299e-08
2.68167e-07
1.14982e-08
2.68124e-07
1.11792e-08
2.68074e-07
1.08705e-08
2.68017e-07
1.05759e-08
2.67953e-07
1.02914e-08
2.67882e-07
1.00244e-08
2.67804e-07
9.77001e-09
2.67721e-07
9.53927e-09
2.67631e-07
9.33159e-09
2.67536e-07
9.15654e-09
2.67434e-07
9.03556e-09
2.67325e-07
8.96129e-09
2.67219e-07
9.02094e-09
2.67098e-07
9.1833e-09
2.67017e-07
9.64826e-09
1.04629e-08
2.66989e-07
2.66278e-07
4.43445e-08
2.69344e-07
6.47306e-08
2.70603e-07
5.1066e-08
2.71674e-07
4.37796e-08
2.72442e-07
4.09675e-08
2.7289e-07
3.75925e-08
2.73229e-07
3.42697e-08
2.73532e-07
3.17619e-08
2.73793e-07
2.98018e-08
2.74017e-07
2.81007e-08
2.74215e-07
2.65878e-08
2.74395e-07
2.52476e-08
2.7456e-07
2.40533e-08
2.74712e-07
2.29771e-08
2.74853e-07
2.19983e-08
2.74985e-07
2.11021e-08
2.75108e-07
2.02771e-08
2.75225e-07
1.9514e-08
2.75334e-07
1.88049e-08
2.75436e-07
1.81434e-08
2.75533e-07
1.7524e-08
2.75623e-07
1.69419e-08
2.75708e-07
1.6393e-08
2.75787e-07
1.58739e-08
2.7586e-07
1.53815e-08
2.75927e-07
1.49131e-08
2.75989e-07
1.44662e-08
2.76045e-07
1.4039e-08
2.76096e-07
1.36296e-08
2.76141e-07
1.32365e-08
2.76181e-07
1.28584e-08
2.76216e-07
1.24945e-08
2.76245e-07
1.21435e-08
2.7627e-07
1.18054e-08
2.76289e-07
1.14789e-08
2.76303e-07
1.11649e-08
2.76312e-07
1.08614e-08
2.76317e-07
1.05716e-08
2.76316e-07
1.02925e-08
2.7631e-07
1.00299e-08
2.76299e-07
9.78132e-09
2.76283e-07
9.55468e-09
2.76262e-07
9.35276e-09
2.76237e-07
9.18179e-09
2.76208e-07
9.06458e-09
2.76173e-07
8.99629e-09
2.76143e-07
9.05052e-09
2.76108e-07
9.21857e-09
2.76116e-07
9.64059e-09
1.0382e-08
2.76197e-07
2.74032e-07
4.03533e-08
2.77095e-07
6.16681e-08
2.78342e-07
4.98191e-08
2.79396e-07
4.2725e-08
2.80193e-07
4.01706e-08
2.80666e-07
3.712e-08
2.81013e-07
3.3923e-08
2.81321e-07
3.14535e-08
2.81589e-07
2.95342e-08
2.81817e-07
2.78721e-08
2.82018e-07
2.63866e-08
2.822e-07
2.50656e-08
2.82367e-07
2.38868e-08
2.8252e-07
2.28236e-08
2.82663e-07
2.18557e-08
2.82796e-07
2.09689e-08
2.82921e-07
2.0152e-08
2.83039e-07
1.93959e-08
2.83151e-07
1.86932e-08
2.83257e-07
1.80374e-08
2.83358e-07
1.74232e-08
2.83454e-07
1.68459e-08
2.83545e-07
1.63016e-08
2.83632e-07
1.57868e-08
2.83715e-07
1.52985e-08
2.83794e-07
1.4834e-08
2.8387e-07
1.43909e-08
2.83941e-07
1.39673e-08
2.8401e-07
1.35613e-08
2.84074e-07
1.31716e-08
2.84136e-07
1.27968e-08
2.84195e-07
1.2436e-08
2.8425e-07
1.20882e-08
2.84302e-07
1.17533e-08
2.84351e-07
1.14299e-08
2.84397e-07
1.1119e-08
2.84439e-07
1.08189e-08
2.84479e-07
1.05321e-08
2.84515e-07
1.02567e-08
2.84547e-07
9.99712e-09
2.84576e-07
9.75249e-09
2.84602e-07
9.52869e-09
2.84624e-07
9.33057e-09
2.84644e-07
9.16253e-09
2.84662e-07
9.04673e-09
2.84676e-07
8.9821e-09
2.84698e-07
9.02831e-09
2.84723e-07
9.19339e-09
2.84794e-07
9.56967e-09
1.02244e-08
2.84952e-07
2.82039e-07
3.66517e-08
2.85087e-07
5.86204e-08
2.86331e-07
4.85752e-08
2.87367e-07
4.16889e-08
2.88188e-07
3.93497e-08
2.88686e-07
3.66219e-08
2.89042e-07
3.35668e-08
2.89356e-07
3.11396e-08
2.8963e-07
2.92605e-08
2.89863e-07
2.76385e-08
2.90068e-07
2.6182e-08
2.90252e-07
2.48812e-08
2.90421e-07
2.37184e-08
2.90576e-07
2.26686e-08
2.90719e-07
2.1712e-08
2.90854e-07
2.08347e-08
2.9098e-07
2.0026e-08
2.91099e-07
1.92771e-08
2.91211e-07
1.85806e-08
2.91318e-07
1.79304e-08
2.9142e-07
1.73211e-08
2.91518e-07
1.67483e-08
2.91612e-07
1.6208e-08
2.91701e-07
1.56969e-08
2.91788e-07
1.5212e-08
2.91871e-07
1.47506e-08
2.91952e-07
1.43104e-08
2.9203e-07
1.38894e-08
2.92105e-07
1.34859e-08
2.92178e-07
1.30985e-08
2.92249e-07
1.27258e-08
2.92318e-07
1.2367e-08
2.92385e-07
1.20212e-08
2.9245e-07
1.16881e-08
2.92513e-07
1.13666e-08
2.92575e-07
1.10575e-08
2.92634e-07
1.07596e-08
2.92692e-07
1.04746e-08
2.92747e-07
1.02016e-08
2.928e-07
9.94382e-09
2.92851e-07
9.70174e-09
2.929e-07
9.47972e-09
2.92947e-07
9.2837e-09
2.92992e-07
9.11739e-09
2.93038e-07
9.00102e-09
2.93082e-07
8.93748e-09
2.93137e-07
8.97339e-09
2.93203e-07
9.12771e-09
2.93317e-07
9.45577e-09
1.00162e-08
2.93525e-07
2.90307e-07
3.32331e-08
2.93329e-07
5.55986e-08
2.94579e-07
4.73254e-08
2.95594e-07
4.06734e-08
2.96434e-07
3.85097e-08
2.96959e-07
3.60971e-08
2.97326e-07
3.32e-08
2.97645e-07
3.08203e-08
2.97925e-07
2.89806e-08
2.98164e-07
2.73997e-08
2.98372e-07
2.59737e-08
2.98559e-07
2.46942e-08
2.9873e-07
2.35478e-08
2.98887e-07
2.25118e-08
2.99032e-07
2.15669e-08
2.99167e-07
2.06994e-08
2.99294e-07
1.98991e-08
2.99413e-07
1.91575e-08
2.99527e-07
1.84674e-08
2.99634e-07
1.78228e-08
2.99737e-07
1.72184e-08
2.99835e-07
1.66501e-08
2.99929e-07
1.61138e-08
3.0002e-07
1.56062e-08
3.00108e-07
1.51245e-08
3.00192e-07
1.46659e-08
3.00274e-07
1.42283e-08
3.00354e-07
1.38095e-08
3.00432e-07
1.3408e-08
3.00508e-07
1.30223e-08
3.00583e-07
1.26512e-08
3.00656e-07
1.22939e-08
3.00728e-07
1.19494e-08
3.00798e-07
1.16175e-08
3.00868e-07
1.12973e-08
3.00936e-07
1.09893e-08
3.01003e-07
1.06926e-08
3.01069e-07
1.04088e-08
3.01133e-07
1.01373e-08
3.01196e-07
9.8806e-09
3.01258e-07
9.64006e-09
3.01319e-07
9.41904e-09
3.01379e-07
9.22387e-09
3.01438e-07
9.05824e-09
3.01499e-07
8.93975e-09
3.01562e-07
8.8748e-09
3.01637e-07
8.89848e-09
3.01729e-07
9.03548e-09
3.01871e-07
9.31332e-09
9.77597e-09
3.02111e-07
2.98846e-07
3.00893e-08
3.01831e-07
5.26141e-08
3.03094e-07
4.60619e-08
3.04088e-07
3.96798e-08
3.04942e-07
3.76561e-08
3.05494e-07
3.55451e-08
3.05873e-07
3.28211e-08
3.06197e-07
3.04955e-08
3.06483e-07
2.86946e-08
3.06728e-07
2.71553e-08
3.0694e-07
2.57615e-08
3.0713e-07
2.45042e-08
3.07303e-07
2.33749e-08
3.07462e-07
2.23532e-08
3.07608e-07
2.14203e-08
3.07745e-07
2.0563e-08
3.07872e-07
1.97713e-08
3.07993e-07
1.90372e-08
3.08107e-07
1.83536e-08
3.08215e-07
1.77147e-08
3.08318e-07
1.71154e-08
3.08416e-07
1.65515e-08
3.08511e-07
1.60192e-08
3.08602e-07
1.55152e-08
3.0869e-07
1.50366e-08
3.08775e-07
1.45808e-08
3.08857e-07
1.41456e-08
3.08938e-07
1.3729e-08
3.09017e-07
1.33293e-08
3.09094e-07
1.29452e-08
3.0917e-07
1.25755e-08
3.09244e-07
1.22193e-08
3.09318e-07
1.18758e-08
3.0939e-07
1.15448e-08
3.09462e-07
1.12255e-08
3.09533e-07
1.09183e-08
3.09603e-07
1.06226e-08
3.09673e-07
1.03395e-08
3.09741e-07
1.00689e-08
3.09809e-07
9.81292e-09
3.09875e-07
9.57324e-09
3.09942e-07
9.35271e-09
3.10008e-07
9.15751e-09
3.10075e-07
8.99164e-09
3.10145e-07
8.86991e-09
3.10218e-07
8.80124e-09
3.10306e-07
8.81106e-09
3.10416e-07
8.92545e-09
3.10577e-07
9.15164e-09
9.51631e-09
3.10837e-07
3.07666e-07
2.72106e-08
3.10602e-07
4.96779e-08
3.11886e-07
4.4778e-08
3.12857e-07
3.87085e-08
3.1372e-07
3.67939e-08
3.14299e-07
3.49661e-08
3.14691e-07
3.24285e-08
3.15022e-07
3.0165e-08
3.15314e-07
2.84026e-08
3.15564e-07
2.6905e-08
3.15781e-07
2.5545e-08
3.15974e-07
2.43111e-08
3.16149e-07
2.31995e-08
3.1631e-07
2.21925e-08
3.16458e-07
2.1272e-08
3.16596e-07
2.04252e-08
3.16725e-07
1.96424e-08
3.16846e-07
1.89159e-08
3.16961e-07
1.8239e-08
3.17069e-07
1.7606e-08
3.17173e-07
1.70119e-08
3.17272e-07
1.64526e-08
3.17367e-07
1.59243e-08
3.17458e-07
1.54239e-08
3.17546e-07
1.49485e-08
3.17631e-07
1.44955e-08
3.17714e-07
1.40627e-08
3.17795e-07
1.36482e-08
3.17874e-07
1.32504e-08
3.17951e-07
1.28678e-08
3.18028e-07
1.24993e-08
3.18103e-07
1.21442e-08
3.18177e-07
1.18016e-08
3.1825e-07
1.14714e-08
3.18323e-07
1.11528e-08
3.18395e-07
1.08462e-08
3.18466e-07
1.05512e-08
3.18537e-07
1.02686e-08
3.18607e-07
9.99877e-09
3.18677e-07
9.74322e-09
3.18746e-07
9.50397e-09
3.18816e-07
9.28356e-09
3.18885e-07
9.0877e-09
3.18956e-07
8.9208e-09
3.19031e-07
8.79493e-09
3.19112e-07
8.72047e-09
3.19208e-07
8.71499e-09
3.19331e-07
8.80271e-09
3.19506e-07
8.97639e-09
9.24521e-09
3.19777e-07
3.16776e-07
2.45857e-08
3.19653e-07
4.68013e-08
3.20963e-07
4.34678e-08
3.21912e-07
3.77592e-08
3.22778e-07
3.59282e-08
3.23383e-07
3.43607e-08
3.23791e-07
3.20207e-08
3.24127e-07
2.98284e-08
3.24426e-07
2.81045e-08
3.24682e-07
2.66486e-08
3.24903e-07
2.53238e-08
3.251e-07
2.41146e-08
3.25278e-07
2.30214e-08
3.25441e-07
2.20295e-08
3.25591e-07
2.11218e-08
3.2573e-07
2.02858e-08
3.2586e-07
1.95123e-08
3.25983e-07
1.87937e-08
3.26098e-07
1.81237e-08
3.26207e-07
1.74966e-08
3.26312e-07
1.69078e-08
3.26411e-07
1.63532e-08
3.26506e-07
1.58291e-08
3.26598e-07
1.53323e-08
3.26686e-07
1.48601e-08
3.26772e-07
1.441e-08
3.26855e-07
1.39797e-08
3.26936e-07
1.35673e-08
3.27015e-07
1.31712e-08
3.27092e-07
1.27901e-08
3.27169e-07
1.24228e-08
3.27244e-07
1.20688e-08
3.27319e-07
1.17271e-08
3.27393e-07
1.13975e-08
3.27466e-07
1.10796e-08
3.27538e-07
1.07736e-08
3.2761e-07
1.04792e-08
3.27682e-07
1.0197e-08
3.27753e-07
9.92768e-09
3.27824e-07
9.67242e-09
3.27895e-07
9.4333e-09
3.27965e-07
9.21271e-09
3.28037e-07
9.01572e-09
3.28111e-07
8.84704e-09
3.2819e-07
8.71628e-09
3.28276e-07
8.6342e-09
3.28379e-07
8.61212e-09
3.28512e-07
8.67017e-09
3.28697e-07
8.79107e-09
8.96781e-09
3.28974e-07
3.26186e-07
2.2202e-08
3.28993e-07
4.3995e-08
3.30333e-07
4.21274e-08
3.31262e-07
3.68307e-08
3.32126e-07
3.50639e-08
3.32756e-07
3.37305e-08
3.3318e-07
3.15963e-08
3.33524e-07
2.94853e-08
3.33827e-07
2.78006e-08
3.3409e-07
2.63859e-08
3.34316e-07
2.50975e-08
3.34517e-07
2.39144e-08
3.34698e-07
2.28403e-08
3.34863e-07
2.1864e-08
3.35015e-07
2.09696e-08
3.35157e-07
2.01447e-08
3.35288e-07
1.93807e-08
3.35412e-07
1.86702e-08
3.35528e-07
1.80073e-08
3.35638e-07
1.73864e-08
3.35743e-07
1.68031e-08
3.35843e-07
1.62532e-08
3.35939e-07
1.57333e-08
3.36031e-07
1.52403e-08
3.36119e-07
1.47714e-08
3.36205e-07
1.43242e-08
3.36289e-07
1.38963e-08
3.3637e-07
1.34861e-08
3.36449e-07
1.30918e-08
3.36527e-07
1.27122e-08
3.36604e-07
1.23462e-08
3.36679e-07
1.19931e-08
3.36754e-07
1.16522e-08
3.36828e-07