/*--------------------------------*- C++ -*----------------------------------*\
  =========                 |
  \\      /  F ield         | OpenFOAM: The Open Source CFD Toolbox
   \\    /   O peration     | Website:  https://openfoam.org
    \\  /    A nd           | Version:  7
     \\/     M anipulation  |
\*---------------------------------------------------------------------------*/
FoamFile
{
    version     2.0;
    format      ascii;
    class       volVectorField;
    location    "0.23";
    object      U;
}
// * * * * * * * * * * * * * * * * * * * * * * * * * * * * * * * * * * * * * //

dimensions      [0 1 -1 0 0 0 0];

internalField   nonuniform List<vector> 
70000
(
(0.553413 0.0169782 0)
(0.251412 0.00340054 0)
(0.165914 0.000319098 0)
(0.132425 4.91324e-05 0)
(0.117315 4.41743e-05 0)
(0.107354 5.23305e-05 0)
(0.0993807 4.45213e-05 0)
(0.0929368 3.54362e-05 0)
(0.0876938 2.93907e-05 0)
(0.0833268 2.52465e-05 0)
(0.0796074 2.20793e-05 0)
(0.0763881 1.95404e-05 0)
(0.0735675 1.74699e-05 0)
(0.0710713 1.57588e-05 0)
(0.0688435 1.43263e-05 0)
(0.0668403 1.31128e-05 0)
(0.0650275 1.20741e-05 0)
(0.0633777 1.11768e-05 0)
(0.0618686 1.03954e-05 0)
(0.0604822 9.71009e-06 0)
(0.0592032 9.10509e-06 0)
(0.058019 8.56784e-06 0)
(0.0569191 8.08814e-06 0)
(0.0558945 7.65777e-06 0)
(0.0549373 7.26981e-06 0)
(0.054041 6.919e-06 0)
(0.0531998 6.60013e-06 0)
(0.0524087 6.31055e-06 0)
(0.0516634 6.0453e-06 0)
(0.0509599 5.80495e-06 0)
(0.0502949 5.58275e-06 0)
(0.0496652 5.38463e-06 0)
(0.0490683 5.19899e-06 0)
(0.0485014 5.0404e-06 0)
(0.0479625 4.89028e-06 0)
(0.0474493 4.77098e-06 0)
(0.0469593 4.66796e-06 0)
(0.0464919 4.58287e-06 0)
(0.0460412 4.5744e-06 0)
(0.0456133 4.48615e-06 0)
(0.0451885 4.72592e-06 0)
(0.044796 4.47109e-06 0)
(0.0443722 5.43925e-06 0)
(0.0440187 4.39838e-06 0)
(0.0435399 7.64417e-06 0)
(0.0432534 3.54646e-06 0)
(0.042576 1.43566e-05 0)
(0.0424447 -8.08266e-07 0)
(0.0413642 4.0827e-05 0)
(0.0383302 -0.00151992 0)
(0.884862 0.0434936 0)
(0.65014 0.0201496 0)
(0.493957 0.00660553 0)
(0.403523 0.00275559 0)
(0.354802 0.00154867 0)
(0.323481 0.00113224 0)
(0.299579 0.000909661 0)
(0.280373 0.000744937 0)
(0.264664 0.000622133 0)
(0.251552 0.000531561 0)
(0.240382 0.000462789 0)
(0.230714 0.000408655 0)
(0.222242 0.000364904 0)
(0.214742 0.000328887 0)
(0.208047 0.000298801 0)
(0.202025 0.000273354 0)
(0.196575 0.000251596 0)
(0.191613 0.000232812 0)
(0.187075 0.000216459 0)
(0.182904 0.000202112 0)
(0.179056 0.000189437 0)
(0.175493 0.00017817 0)
(0.172183 0.000168095 0)
(0.1691 0.000159037 0)
(0.16622 0.000150853 0)
(0.163523 0.000143425 0)
(0.160992 0.000136652 0)
(0.158612 0.000130453 0)
(0.15637 0.000124756 0)
(0.154255 0.000119507 0)
(0.152256 0.000114649 0)
(0.150364 0.000110157 0)
(0.148571 0.00010597 0)
(0.14687 0.000102113 0)
(0.145255 9.84903e-05 0)
(0.143719 9.52135e-05 0)
(0.142255 9.2114e-05 0)
(0.140862 8.94464e-05 0)
(0.139524 8.69406e-05 0)
(0.138258 8.50125e-05 0)
(0.137012 8.34368e-05 0)
(0.135865 8.24591e-05 0)
(0.13465 8.2918e-05 0)
(0.133637 8.28904e-05 0)
(0.132319 8.90132e-05 0)
(0.131524 8.78724e-05 0)
(0.129764 0.000114629 0)
(0.129411 8.01266e-05 0)
(0.126745 0.000361342 0)
(0.12339 -0.00235968 0)
(0.991209 0.0499561 0)
(0.890918 0.0305642 0)
(0.762473 0.0146125 0)
(0.656499 0.00797275 0)
(0.585379 0.00488123 0)
(0.535999 0.00347574 0)
(0.498102 0.00273909 0)
(0.467472 0.0022444 0)
(0.442165 0.00188034 0)
(0.420868 0.00160846 0)
(0.402632 0.00140082 0)
(0.386789 0.00123735 0)
(0.372864 0.00110531 0)
(0.360507 0.000996594 0)
(0.349452 0.000905747 0)
(0.339492 0.000828873 0)
(0.330462 0.000763111 0)
(0.322232 0.000706315 0)
(0.314695 0.000656844 0)
(0.307761 0.000613423 0)
(0.301359 0.000575048 0)
(0.295426 0.000540918 0)
(0.289912 0.000510386 0)
(0.284771 0.000482925 0)
(0.279966 0.000458103 0)
(0.275465 0.000435559 0)
(0.271238 0.000414993 0)
(0.267263 0.000396155 0)
(0.263516 0.000378827 0)
(0.25998 0.00036284 0)
(0.256637 0.000348025 0)
(0.253472 0.000334286 0)
(0.250474 0.000321464 0)
(0.247628 0.000309573 0)
(0.244926 0.000298384 0)
(0.242357 0.000288138 0)
(0.23991 0.00027837 0)
(0.237582 0.000269821 0)
(0.235351 0.000261449 0)
(0.233239 0.000255035 0)
(0.231173 0.000248407 0)
(0.229267 0.000245187 0)
(0.227281 0.00024169 0)
(0.225604 0.000243527 0)
(0.223512 0.000248181 0)
(0.222187 0.000255782 0)
(0.219542 0.000294667 0)
(0.218872 0.00024696 0)
(0.214979 0.000670504 0)
(0.212901 -0.00202929 0)
(1.01554 0.0489544 0)
(1.00649 0.0357263 0)
(0.935873 0.0208224 0)
(0.851982 0.0135018 0)
(0.78219 0.00920083 0)
(0.72703 0.00678542 0)
(0.681934 0.00538831 0)
(0.644173 0.00444618 0)
(0.612168 0.00375074 0)
(0.58472 0.00322419 0)
(0.56089 0.00281741 0)
(0.539972 0.00249499 0)
(0.521436 0.00223342 0)
(0.504878 0.0020173 0)
(0.489983 0.00183614 0)
(0.476502 0.00168243 0)
(0.464234 0.00155063 0)
(0.453015 0.00143658 0)
(0.442711 0.00133706 0)
(0.433209 0.00124957 0)
(0.424415 0.00117215 0)
(0.416251 0.00110321 0)
(0.408648 0.00104147 0)
(0.40155 0.00098589 0)
(0.394906 0.000935605 0)
(0.388674 0.000889898 0)
(0.382816 0.000848172 0)
(0.377299 0.000809919 0)
(0.372095 0.000774712 0)
(0.367177 0.000742193 0)
(0.362526 0.00071204 0)
(0.358118 0.000684028 0)
(0.353939 0.000657868 0)
(0.349969 0.000633526 0)
(0.346198 0.000610601 0)
(0.34261 0.000589474 0)
(0.339191 0.000569274 0)
(0.335938 0.000551401 0)
(0.332821 0.000533663 0)
(0.329868 0.000519887 0)
(0.326992 0.00050473 0)
(0.324323 0.000497348 0)
(0.321586 0.000485914 0)
(0.319226 0.000489761 0)
(0.316421 0.000487242 0)
(0.314502 0.00050827 0)
(0.311146 0.000549549 0)
(0.309979 0.000510891 0)
(0.305277 0.000980007 0)
(0.303608 -0.00127584 0)
(1.01435 0.0460989 0)
(1.04798 0.0373439 0)
(1.02456 0.024191 0)
(0.974657 0.0175623 0)
(0.923444 0.0131133 0)
(0.8767 0.0102085 0)
(0.83453 0.00834688 0)
(0.796784 0.00702248 0)
(0.763239 0.00601008 0)
(0.733451 0.00522114 0)
(0.706906 0.00459802 0)
(0.68313 0.00409627 0)
(0.661725 0.00368441 0)
(0.642358 0.00334097 0)
(0.624752 0.0030509 0)
(0.608677 0.00280322 0)
(0.593938 0.00258972 0)
(0.580374 0.00240411 0)
(0.567847 0.00224152 0)
(0.55624 0.0020981 0)
(0.545453 0.0019708 0)
(0.5354 0.00185715 0)
(0.526009 0.00175513 0)
(0.517214 0.0016631 0)
(0.508961 0.00157969 0)
(0.501199 0.00150375 0)
(0.493888 0.00143433 0)
(0.486987 0.00137059 0)
(0.480466 0.00131187 0)
(0.474294 0.00125755 0)
(0.468444 0.00120714 0)
(0.462894 0.00116024 0)
(0.457622 0.0011164 0)
(0.45261 0.00107551 0)
(0.44784 0.00103697 0)
(0.443296 0.00100129 0)
(0.438963 0.000967144 0)
(0.434834 0.000936652 0)
(0.430878 0.000906303 0)
(0.427121 0.000882246 0)
(0.423474 0.000855474 0)
(0.420065 0.000841486 0)
(0.416621 0.000819011 0)
(0.413579 0.000823155 0)
(0.41013 0.000810223 0)
(0.407567 0.000843702 0)
(0.40366 0.000883472 0)
(0.401806 0.000861679 0)
(0.396748 0.00134845 0)
(0.39447 -0.000441683 0)
(1.00941 0.0430486 0)
(1.05563 0.0370996 0)
(1.05866 0.0253333 0)
(1.03628 0.0197685 0)
(1.00709 0.0158028 0)
(0.976063 0.0129375 0)
(0.944525 0.0109641 0)
(0.913654 0.00947838 0)
(0.884311 0.00828465 0)
(0.856876 0.0073147 0)
(0.831426 0.00652296 0)
(0.807898 0.00586896 0)
(0.786169 0.00532129 0)
(0.766096 0.00485719 0)
(0.747532 0.00445998 0)
(0.730334 0.00411706 0)
(0.714372 0.00381868 0)
(0.699527 0.00355722 0)
(0.685691 0.00332659 0)
(0.67277 0.00312195 0)
(0.660678 0.00293936 0)
(0.64934 0.00277559 0)
(0.638689 0.00262799 0)
(0.628666 0.00249436 0)
(0.619218 0.00237286 0)
(0.610298 0.00226192 0)
(0.601864 0.00216024 0)
(0.593878 0.00206668 0)
(0.586307 0.0019803 0)
(0.579121 0.00190025 0)
(0.572292 0.00182582 0)
(0.565797 0.00175645 0)
(0.559613 0.00169151 0)
(0.55372 0.00163081 0)
(0.548101 0.00157352 0)
(0.542738 0.0015203 0)
(0.537614 0.00146934 0)
(0.532721 0.00142345 0)
(0.52803 0.00137786 0)
(0.52356 0.00134089 0)
(0.519231 0.00130015 0)
(0.515154 0.00127694 0)
(0.511085 0.00124156 0)
(0.507405 0.00124291 0)
(0.503405 0.00121917 0)
(0.500198 0.00125964 0)
(0.495886 0.00130105 0)
(0.493256 0.00129069 0)
(0.488116 0.00179873 0)
(0.484934 0.000449293 0)
(1.00635 0.0401808 0)
(1.05241 0.0361533 0)
(1.06605 0.0252575 0)
(1.05951 0.0205746 0)
(1.04686 0.0172313 0)
(1.0308 0.0146572 0)
(1.01188 0.0128241 0)
(0.991186 0.0113951 0)
(0.969777 0.0101943 0)
(0.948384 0.00917544 0)
(0.927452 0.00831258 0)
(0.907242 0.00757744 0)
(0.887899 0.00694557 0)
(0.869493 0.0063982 0)
(0.852041 0.00592092 0)
(0.835529 0.00550228 0)
(0.819925 0.00513303 0)
(0.805184 0.00480562 0)
(0.79126 0.00451387 0)
(0.7781 0.00425265 0)
(0.765656 0.00401774 0)
(0.75388 0.00380557 0)
(0.742725 0.00361316 0)
(0.732151 0.00343799 0)
(0.722117 0.00327792 0)
(0.712586 0.00313113 0)
(0.703525 0.00299604 0)
(0.694902 0.0028713 0)
(0.686691 0.00275574 0)
(0.678863 0.00264834 0)
(0.671395 0.00254821 0)
(0.664266 0.00245464 0)
(0.657456 0.00236685 0)
(0.650944 0.00228458 0)
(0.644717 0.0022068 0)
(0.638755 0.00213427 0)
(0.633046 0.00206478 0)
(0.627577 0.00200171 0)
(0.622325 0.00193929 0)
(0.617302 0.00188752 0)
(0.612442 0.00183149 0)
(0.607831 0.0017968 0)
(0.60327 0.00174794 0)
(0.599063 0.00174297 0)
(0.594638 0.0017101 0)
(0.590866 0.00175038 0)
(0.586279 0.00179894 0)
(0.582936 0.00179438 0)
(0.577804 0.00232282 0)
(0.573876 0.00139837 0)
(1.00506 0.0375038 0)
(1.04762 0.0350555 0)
(1.06395 0.0247108 0)
(1.06417 0.020607 0)
(1.06066 0.0177712 0)
(1.05474 0.0155 0)
(1.04597 0.0138822 0)
(1.03476 0.0126181 0)
(1.02184 0.0115275 0)
(1.00781 0.010571 0)
(0.993137 0.00973492 0)
(0.978167 0.00900153 0)
(0.963169 0.00835406 0)
(0.948335 0.00777947 0)
(0.9338 0.00726756 0)
(0.919655 0.0068099 0)
(0.905959 0.00639938 0)
(0.892743 0.00602992 0)
(0.880026 0.00569632 0)
(0.867809 0.00539411 0)
(0.856089 0.00511945 0)
(0.844853 0.00486904 0)
(0.834088 0.00464002 0)
(0.823777 0.00442993 0)
(0.8139 0.00423663 0)
(0.804439 0.00405824 0)
(0.795376 0.00389315 0)
(0.78669 0.00373992 0)
(0.778364 0.00359731 0)
(0.770381 0.00346419 0)
(0.762723 0.00333962 0)
(0.755374 0.00322276 0)
(0.748321 0.00311279 0)
(0.741547 0.00300935 0)
(0.735041 0.00291133 0)
(0.728788 0.00281953 0)
(0.722778 0.00273151 0)
(0.717 0.002651 0)
(0.711435 0.0025716 0)
(0.70609 0.00250443 0)
(0.700915 0.00243308 0)
(0.695972 0.00238562 0)
(0.691109 0.00232396 0)
(0.686549 0.00230981 0)
(0.681867 0.00227038 0)
(0.677689 0.00230464 0)
(0.672959 0.00236392 0)
(0.66909 0.00236536 0)
(0.664011 0.00290668 0)
(0.659611 0.0023748 0)
(1.00451 0.034968 0)
(1.04359 0.033976 0)
(1.05992 0.0240608 0)
(1.06221 0.0203188 0)
(1.06249 0.0178377 0)
(1.0618 0.0157814 0)
(1.05921 0.0143376 0)
(1.05464 0.0132392 0)
(1.04841 0.0122904 0)
(1.04083 0.0114454 0)
(1.03219 0.010693 0)
(1.02274 0.0100196 0)
(1.01271 0.00941252 0)
(1.00229 0.00886228 0)
(0.991661 0.00836205 0)
(0.980937 0.0079063 0)
(0.970227 0.00749026 0)
(0.959609 0.00710975 0)
(0.949144 0.00676107 0)
(0.938876 0.00644091 0)
(0.928837 0.00614635 0)
(0.91905 0.00587476 0)
(0.90953 0.00562381 0)
(0.900285 0.00539143 0)
(0.89132 0.00517577 0)
(0.882635 0.00497517 0)
(0.874229 0.00478817 0)
(0.866098 0.00461345 0)
(0.858236 0.00444983 0)
(0.850638 0.00429626 0)
(0.843296 0.00415178 0)
(0.836202 0.00401562 0)
(0.82935 0.00388689 0)
(0.822731 0.0037653 0)
(0.816338 0.00364967 0)
(0.810161 0.00354088 0)
(0.804196 0.00343635 0)
(0.798433 0.00334006 0)
(0.79286 0.00324532 0)
(0.787482 0.00316377 0)
(0.782262 0.00307863 0)
(0.777242 0.00301857 0)
(0.772316 0.00294599 0)
(0.767636 0.00292131 0)
(0.762903 0.00287812 0)
(0.758541 0.0029034 0)
(0.753832 0.00297441 0)
(0.749684 0.00298639 0)
(0.744749 0.00353181 0)
(0.740162 0.00334729 0)
(1.00412 0.0325376 0)
(1.04026 0.0329231 0)
(1.05616 0.0234271 0)
(1.05885 0.0199356 0)
(1.06022 0.0177103 0)
(1.06158 0.015786 0)
(1.06193 0.014444 0)
(1.06101 0.013461 0)
(1.05893 0.012628 0)
(1.05579 0.0118882 0)
(1.05169 0.0112283 0)
(1.04675 0.0106342 0)
(1.04107 0.0100931 0)
(1.03481 0.00959646 0)
(1.02806 0.00913848 0)
(1.02095 0.00871503 0)
(1.01356 0.00832274 0)
(1.00599 0.00795876 0)
(0.998301 0.00762057 0)
(0.990553 0.00730594 0)
(0.982798 0.00701283 0)
(0.975074 0.0067394 0)
(0.967416 0.00648397 0)
(0.95985 0.00624498 0)
(0.952397 0.00602105 0)
(0.945073 0.00581088 0)
(0.93789 0.00561331 0)
(0.930858 0.00542726 0)
(0.923985 0.00525176 0)
(0.917273 0.00508591 0)
(0.910727 0.00492891 0)
(0.904347 0.00478006 0)
(0.898134 0.00463858 0)
(0.892086 0.00450424 0)
(0.886204 0.0043759 0)
(0.880483 0.00425453 0)
(0.874922 0.00413755 0)
(0.869518 0.00402906 0)
(0.864264 0.00392242 0)
(0.859164 0.00382927 0)
(0.854195 0.00373339 0)
(0.849384 0.00366257 0)
(0.84466 0.00358207 0)
(0.840123 0.00354741 0)
(0.835573 0.00350337 0)
(0.831282 0.00351963 0)
(0.826783 0.00360193 0)
(0.82263 0.00363044 0)
(0.817977 0.00417334 0)
(0.813488 0.00428068 0)
(1.00374 0.0302035 0)
(1.03727 0.0318745 0)
(1.05282 0.0228245 0)
(1.05561 0.0195347 0)
(1.05712 0.0175216 0)
(1.05904 0.0156864 0)
(1.06046 0.0143923 0)
(1.06112 0.013473 0)
(1.06111 0.0127135 0)
(1.06044 0.0120477 0)
(1.05912 0.0114596 0)
(1.05716 0.010934 0)
(1.05459 0.0104566 0)
(1.05148 0.0100176 0)
(1.04787 0.0096109 0)
(1.04383 0.00923222 0)
(1.03942 0.00887842 0)
(1.0347 0.00854702 0)
(1.02972 0.00823601 0)
(1.02453 0.00794365 0)
(1.01918 0.00766847 0)
(1.01372 0.00740912 0)
(1.00817 0.0071644 0)
(1.00256 0.00693321 0)
(0.996937 0.00671454 0)
(0.991308 0.00650744 0)
(0.985697 0.00631108 0)
(0.980122 0.00612463 0)
(0.974597 0.00594739 0)
(0.969134 0.00577866 0)
(0.963743 0.0056178 0)
(0.958432 0.00546429 0)
(0.953207 0.00531748 0)
(0.948073 0.00517726 0)
(0.943035 0.00504258 0)
(0.938094 0.00491452 0)
(0.933254 0.00479059 0)
(0.928516 0.00467492 0)
(0.923877 0.00456117 0)
(0.919344 0.00446061 0)
(0.914901 0.00435828 0)
(0.91057 0.00427997 0)
(0.906303 0.00419543 0)
(0.902166 0.00415308 0)
(0.898029 0.00411118 0)
(0.894061 0.00412067 0)
(0.88997 0.00421338 0)
(0.886074 0.00426422 0)
(0.881869 0.00479987 0)
(0.877741 0.00513952 0)
(1.00337 0.0279682 0)
(1.03443 0.0308179 0)
(1.04972 0.0222469 0)
(1.05265 0.0191312 0)
(1.05412 0.0173145 0)
(1.05609 0.0155577 0)
(1.05779 0.014286 0)
(1.05898 0.0133977 0)
(1.05977 0.0126789 0)
(1.06021 0.0120563 0)
(1.06027 0.011513 0)
(1.05995 0.0110335 0)
(1.05923 0.0106027 0)
(1.05811 0.0102096 0)
(1.05661 0.00984695 0)
(1.05476 0.0095099 0)
(1.05257 0.00919483 0)
(1.05007 0.00889899 0)
(1.0473 0.00862024 0)
(1.04429 0.00835686 0)
(1.04105 0.00810746 0)
(1.03764 0.00787084 0)
(1.03406 0.00764598 0)
(1.03035 0.00743198 0)
(1.02654 0.00722803 0)
(1.02264 0.0070334 0)
(1.01867 0.00684745 0)
(1.01466 0.00666958 0)
(1.01061 0.00649923 0)
(1.00655 0.00633591 0)
(1.00249 0.00617913 0)
(0.998425 0.00602854 0)
(0.994382 0.0058836 0)
(0.990363 0.00574435 0)
(0.986376 0.00560983 0)
(0.982426 0.00548123 0)
(0.97852 0.0053562 0)
(0.974662 0.00523883 0)
(0.970853 0.00512328 0)
(0.967099 0.00502012 0)
(0.963393 0.00491613 0)
(0.959752 0.0048344 0)
(0.956145 0.00475009 0)
(0.952615 0.00470341 0)
(0.949083 0.00466659 0)
(0.945645 0.00467299 0)
(0.942135 0.00477519 0)
(0.938717 0.00485284 0)
(0.935111 0.00537788 0)
(0.93156 0.00589126 0)
(1.00301 0.0258351 0)
(1.03171 0.0297491 0)
(1.04672 0.0216906 0)
(1.04986 0.0187247 0)
(1.0513 0.0170956 0)
(1.05324 0.015422 0)
(1.05496 0.014166 0)
(1.05627 0.0132942 0)
(1.0573 0.0125986 0)
(1.05813 0.0119997 0)
(1.05875 0.0114808 0)
(1.05916 0.0110277 0)
(1.05934 0.0106252 0)
(1.05929 0.0102618 0)
(1.05899 0.00992955 0)
(1.05845 0.00962307 0)
(1.05766 0.00933823 0)
(1.05665 0.00907185 0)
(1.05541 0.00882144 0)
(1.05397 0.00858503 0)
(1.05232 0.00836103 0)
(1.0505 0.00814815 0)
(1.0485 0.0079453 0)
(1.04636 0.00775155 0)
(1.04409 0.00756613 0)
(1.04169 0.00738834 0)
(1.0392 0.0072176 0)
(1.03661 0.00705337 0)
(1.03395 0.0068952 0)
(1.03122 0.00674267 0)
(1.02845 0.00659541 0)
(1.02563 0.00645315 0)
(1.02278 0.00631546 0)
(1.01991 0.00618247 0)
(1.01702 0.00605332 0)
(1.01413 0.00592926 0)
(1.01123 0.00580812 0)
(1.00834 0.00569384 0)
(1.00545 0.00558119 0)
(1.00258 0.00547985 0)
(0.999718 0.0053786 0)
(0.996881 0.00529744 0)
(0.99405 0.00521723 0)
(0.991251 0.00516988 0)
(0.988441 0.00514056 0)
(0.985669 0.00514796 0)
(0.982849 0.00525868 0)
(0.98006 0.00536552 0)
(0.977157 0.0058775 0)
(0.974325 0.00651042 0)
(1.00268 0.0238068 0)
(1.02911 0.0286665 0)
(1.04381 0.021155 0)
(1.04716 0.0183153 0)
(1.04861 0.0168633 0)
(1.05051 0.015282 0)
(1.05223 0.0140434 0)
(1.05355 0.0131833 0)
(1.05461 0.0125043 0)
(1.05553 0.0119204 0)
(1.05633 0.0114151 0)
(1.05701 0.0109761 0)
(1.05755 0.0105891 0)
(1.05796 0.0102424 0)
(1.05823 0.00992813 0)
(1.05836 0.00964061 0)
(1.05834 0.00937547 0)
(1.05816 0.00912925 0)
(1.05784 0.00889919 0)
(1.05737 0.00868309 0)
(1.05676 0.00847913 0)
(1.056 0.00828582 0)
(1.05511 0.00810193 0)
(1.05409 0.0079264 0)
(1.05295 0.00775837 0)
(1.0517 0.00759706 0)
(1.05034 0.00744186 0)
(1.04889 0.00729219 0)
(1.04736 0.0071476 0)
(1.04575 0.00700769 0)
(1.04407 0.00687209 0)
(1.04232 0.00674061 0)
(1.04053 0.00661282 0)
(1.03868 0.00648893 0)
(1.0368 0.00636812 0)
(1.03488 0.00625165 0)
(1.03293 0.00613755 0)
(1.03096 0.00602953 0)
(1.02897 0.00592301 0)
(1.02696 0.00582664 0)
(1.02494 0.00573131 0)
(1.02291 0.00565378 0)
(1.02087 0.00558045 0)
(1.01883 0.00553551 0)
(1.01677 0.00551512 0)
(1.01471 0.00552704 0)
(1.01261 0.00564509 0)
(1.01051 0.00578092 0)
(1.00834 0.00627767 0)
(1.00628 0.00698244 0)
(1.00238 0.0218851 0)
(1.02664 0.0275694 0)
(1.04099 0.0206399 0)
(1.04456 0.0179043 0)
(1.04602 0.0166165 0)
(1.04789 0.0151362 0)
(1.04961 0.0139193 0)
(1.05092 0.0130701 0)
(1.05198 0.0124061 0)
(1.0529 0.0118346 0)
(1.05373 0.0113386 0)
(1.05447 0.0109081 0)
(1.05513 0.0105298 0)
(1.0557 0.0101923 0)
(1.05619 0.00988789 0)
(1.0566 0.00961097 0)
(1.05693 0.00935715 0)
(1.05716 0.00912294 0)
(1.05731 0.00890548 0)
(1.05736 0.00870243 0)
(1.05732 0.00851185 0)
(1.05719 0.00833212 0)
(1.05696 0.00816187 0)
(1.05664 0.00799995 0)
(1.05624 0.00784536 0)
(1.05575 0.00769724 0)
(1.05517 0.00755488 0)
(1.05452 0.00741766 0)
(1.05379 0.00728505 0)
(1.05299 0.00715664 0)
(1.05213 0.00703201 0)
(1.05121 0.00691099 0)
(1.05023 0.00679312 0)
(1.0492 0.00667864 0)
(1.04813 0.00656677 0)
(1.04701 0.00645871 0)
(1.04585 0.0063527 0)
(1.04466 0.00625211 0)
(1.04343 0.0061531 0)
(1.04218 0.00606314 0)
(1.04089 0.00597524 0)
(1.03959 0.005903 0)
(1.03826 0.00583782 0)
(1.03691 0.00579724 0)
(1.03553 0.00578593 0)
(1.03414 0.00580466 0)
(1.03271 0.00592832 0)
(1.03128 0.00609039 0)
(1.02981 0.0065695 0)
(1.02849 0.0073059 0)
(1.0021 0.020071 0)
(1.0243 0.0264596 0)
(1.03826 0.020143 0)
(1.04203 0.0174939 0)
(1.04352 0.0163551 0)
(1.04536 0.0149832 0)
(1.04708 0.0137933 0)
(1.04839 0.012955 0)
(1.04943 0.0123058 0)
(1.05034 0.0117467 0)
(1.05116 0.0112591 0)
(1.05191 0.0108352 0)
(1.05258 0.0104629 0)
(1.05319 0.0101312 0)
(1.05375 0.00983258 0)
(1.05426 0.00956162 0)
(1.05471 0.00931409 0)
(1.05511 0.00908656 0)
(1.05546 0.00887621 0)
(1.05575 0.00868068 0)
(1.05599 0.00849801 0)
(1.05617 0.00832654 0)
(1.05629 0.00816484 0)
(1.05635 0.0080117 0)
(1.05636 0.00786604 0)
(1.05631 0.00772695 0)
(1.0562 0.00759363 0)
(1.05604 0.00746541 0)
(1.05582 0.00734171 0)
(1.05555 0.00722206 0)
(1.05523 0.00710602 0)
(1.05486 0.00699338 0)
(1.05445 0.00688368 0)
(1.054 0.00677715 0)
(1.0535 0.00667302 0)
(1.05297 0.00657243 0)
(1.05239 0.0064738 0)
(1.05179 0.00638013 0)
(1.05115 0.00628832 0)
(1.05048 0.00620465 0)
(1.04978 0.0061241 0)
(1.04905 0.00605737 0)
(1.04829 0.00600012 0)
(1.04751 0.00596455 0)
(1.0467 0.00596129 0)
(1.04586 0.00598755 0)
(1.04501 0.00611462 0)
(1.04415 0.00629797 0)
(1.04328 0.00675656 0)
(1.04261 0.00749196 0)
(1.00185 0.0183645 0)
(1.0221 0.0253412 0)
(1.03562 0.0196606 0)
(1.0396 0.0170857 0)
(1.04111 0.0160796 0)
(1.04292 0.0148223 0)
(1.04463 0.0136647 0)
(1.04594 0.0128377 0)
(1.04698 0.0122035 0)
(1.04787 0.0116573 0)
(1.04868 0.0111784 0)
(1.04942 0.0107608 0)
(1.05008 0.0103937 0)
(1.05069 0.0100667 0)
(1.05126 0.00977228 0)
(1.05179 0.0095053 0)
(1.05227 0.00926166 0)
(1.05272 0.00903806 0)
(1.05314 0.00883176 0)
(1.05352 0.00864045 0)
(1.05387 0.00846222 0)
(1.05418 0.00829541 0)
(1.05446 0.0081386 0)
(1.0547 0.00799055 0)
(1.05491 0.00785019 0)
(1.05508 0.00771655 0)
(1.05521 0.00758881 0)
(1.05532 0.00746627 0)
(1.05538 0.0073483 0)
(1.05542 0.00723441 0)
(1.05542 0.00712414 0)
(1.05538 0.00701726 0)
(1.05532 0.00691329 0)
(1.05522 0.00681245 0)
(1.0551 0.00671401 0)
(1.05494 0.00661901 0)
(1.05476 0.00652607 0)
(1.05454 0.00643782 0)
(1.05431 0.00635182 0)
(1.05404 0.00627327 0)
(1.05375 0.00619888 0)
(1.05343 0.00613686 0)
(1.05309 0.00608623 0)
(1.05273 0.00605526 0)
(1.05234 0.00605812 0)
(1.05193 0.00609131 0)
(1.05151 0.00621917 0)
(1.05109 0.00641741 0)
(1.05071 0.00685216 0)
(1.05053 0.00756121 0)
(1.00162 0.0167656 0)
(1.02004 0.0242184 0)
(1.03309 0.0191886 0)
(1.03725 0.0166813 0)
(1.03879 0.0157913 0)
(1.04056 0.0146527 0)
(1.04227 0.0135334 0)
(1.04359 0.0127182 0)
(1.04461 0.0120989 0)
(1.0455 0.0115664 0)
(1.0463 0.0110966 0)
(1.04701 0.0106854 0)
(1.04767 0.0103236 0)
(1.04827 0.010001 0)
(1.04883 0.00971047 0)
(1.04935 0.00944681 0)
(1.04983 0.00920618 0)
(1.05029 0.00898539 0)
(1.05072 0.00878177 0)
(1.05112 0.00859311 0)
(1.0515 0.00841753 0)
(1.05186 0.00825341 0)
(1.0522 0.00809936 0)
(1.05251 0.00795417 0)
(1.0528 0.00781675 0)
(1.05306 0.00768616 0)
(1.05331 0.00756156 0)
(1.05354 0.00744223 0)
(1.05374 0.00732753 0)
(1.05392 0.00721698 0)
(1.05409 0.00711009 0)
(1.05423 0.00700663 0)
(1.05435 0.00690615 0)
(1.05445 0.00680882 0)
(1.05454 0.00671398 0)
(1.0546 0.00662255 0)
(1.05465 0.00653341 0)
(1.05467 0.00644876 0)
(1.05468 0.00636685 0)
(1.05467 0.00629185 0)
(1.05463 0.00622195 0)
(1.05458 0.00616335 0)
(1.05451 0.00611751 0)
(1.05442 0.00609009 0)
(1.05432 0.00609681 0)
(1.05421 0.00613536 0)
(1.05408 0.00626134 0)
(1.05399 0.00646742 0)
(1.05394 0.00687489 0)
(1.05413 0.00753883 0)
(1.00142 0.0152735 0)
(1.01811 0.0230953 0)
(1.03067 0.0187231 0)
(1.03498 0.0162823 0)
(1.03656 0.0154914 0)
(1.0383 0.0144739 0)
(1.04 0.013399 0)
(1.04132 0.0125964 0)
(1.04234 0.0119918 0)
(1.04322 0.0114736 0)
(1.044 0.0110136 0)
(1.04471 0.0106092 0)
(1.04535 0.0102528 0)
(1.04594 0.00993477 0)
(1.04649 0.00964801 0)
(1.04699 0.00938759 0)
(1.04747 0.00914975 0)
(1.04792 0.00893142 0)
(1.04835 0.00873002 0)
(1.04875 0.0085434 0)
(1.04913 0.00836972 0)
(1.04949 0.00820742 0)
(1.04984 0.00805513 0)
(1.05017 0.00791167 0)
(1.05049 0.00777597 0)
(1.05079 0.00764709 0)
(1.05107 0.0075242 0)
(1.05134 0.00740659 0)
(1.0516 0.00729362 0)
(1.05185 0.00718481 0)
(1.05208 0.00707967 0)
(1.05231 0.00697799 0)
(1.05252 0.00687933 0)
(1.05272 0.00678385 0)
(1.0529 0.00669097 0)
(1.05308 0.0066015 0)
(1.05324 0.00651454 0)
(1.05339 0.00643194 0)
(1.05353 0.00635253 0)
(1.05366 0.00627962 0)
(1.05377 0.00621259 0)
(1.05388 0.00615609 0)
(1.05397 0.00611323 0)
(1.05404 0.00608812 0)
(1.05411 0.00609653 0)
(1.05418 0.00613842 0)
(1.05425 0.00626004 0)
(1.05436 0.00646705 0)
(1.05454 0.00684403 0)
(1.05498 0.00744976 0)
(1.00124 0.0138866 0)
(1.01632 0.021976 0)
(1.02835 0.0182603 0)
(1.03281 0.0158897 0)
(1.03443 0.0151816 0)
(1.03613 0.0142853 0)
(1.03782 0.0132612 0)
(1.03914 0.0124725 0)
(1.04016 0.0118824 0)
(1.04102 0.0113788 0)
(1.0418 0.0109292 0)
(1.04249 0.010532 0)
(1.04312 0.0101812 0)
(1.0437 0.00986786 0)
(1.04424 0.00958504 0)
(1.04473 0.00932792 0)
(1.0452 0.00909289 0)
(1.04564 0.00887699 0)
(1.04605 0.00867771 0)
(1.04645 0.00849296 0)
(1.04682 0.00832095 0)
(1.04718 0.00816016 0)
(1.04753 0.00800925 0)
(1.04785 0.00786706 0)
(1.04817 0.00773253 0)
(1.04848 0.00760475 0)
(1.04877 0.00748289 0)
(1.04905 0.00736624 0)
(1.04933 0.00725417 0)
(1.0496 0.00714622 0)
(1.04985 0.00704191 0)
(1.05011 0.00694103 0)
(1.05035 0.00684319 0)
(1.05059 0.00674851 0)
(1.05082 0.00665653 0)
(1.05104 0.00656791 0)
(1.05126 0.00648202 0)
(1.05147 0.00640036 0)
(1.05167 0.00632227 0)
(1.05187 0.00625037 0)
(1.05205 0.00618491 0)
(1.05223 0.00612945 0)
(1.0524 0.00608808 0)
(1.05257 0.00606413 0)
(1.05273 0.00607243 0)
(1.0529 0.00611556 0)
(1.05308 0.00623072 0)
(1.05332 0.00643243 0)
(1.05364 0.00677613 0)
(1.05423 0.00731533 0)
(1.00107 0.0126031 0)
(1.01466 0.0208643 0)
(1.02614 0.0177967 0)
(1.03072 0.0155046 0)
(1.0324 0.0148637 0)
(1.03405 0.0140864 0)
(1.03572 0.0131193 0)
(1.03705 0.0123465 0)
(1.03807 0.0117704 0)
(1.03892 0.0112819 0)
(1.03968 0.0108434 0)
(1.04037 0.0104537 0)
(1.04099 0.0101087 0)
(1.04156 0.00980024 0)
(1.04208 0.00952151 0)
(1.04257 0.00926781 0)
(1.04303 0.00903568 0)
(1.04345 0.00882226 0)
(1.04386 0.00862513 0)
(1.04424 0.00844225 0)
(1.04461 0.00827188 0)
(1.04496 0.00811253 0)
(1.04529 0.00796289 0)
(1.04562 0.00782181 0)
(1.04593 0.00768827 0)
(1.04623 0.00756135 0)
(1.04652 0.00744024 0)
(1.0468 0.00732423 0)
(1.04707 0.0072127 0)
(1.04734 0.0071052 0)
(1.0476 0.00700126 0)
(1.04786 0.0069007 0)
(1.04811 0.00680313 0)
(1.04836 0.0067087 0)
(1.04861 0.006617 0)
(1.04885 0.00652863 0)
(1.04908 0.00644313 0)
(1.04931 0.00636174 0)
(1.04954 0.00628422 0)
(1.04976 0.00621263 0)
(1.04998 0.00614786 0)
(1.05019 0.00609272 0)
(1.0504 0.00605172 0)
(1.05061 0.006028 0)
(1.05082 0.00603485 0)
(1.05104 0.00607727 0)
(1.05128 0.00618426 0)
(1.05159 0.00637536 0)
(1.052 0.00668355 0)
(1.05267 0.00715174 0)
(1.00093 0.0114202 0)
(1.01314 0.0197645 0)
(1.02404 0.0173293 0)
(1.02872 0.0151276 0)
(1.03045 0.0145397 0)
(1.03206 0.0138771 0)
(1.03372 0.0129729 0)
(1.03505 0.0122183 0)
(1.03607 0.011656 0)
(1.03691 0.0111828 0)
(1.03766 0.010756 0)
(1.03834 0.0103742 0)
(1.03895 0.0100352 0)
(1.03951 0.00973184 0)
(1.04002 0.00945735 0)
(1.0405 0.00920719 0)
(1.04095 0.00897806 0)
(1.04136 0.0087672 0)
(1.04176 0.00857229 0)
(1.04213 0.00839132 0)
(1.04249 0.00822262 0)
(1.04283 0.00806472 0)
(1.04316 0.00791635 0)
(1.04347 0.00777637 0)
(1.04377 0.00764377 0)
(1.04406 0.00751765 0)
(1.04435 0.0073972 0)
(1.04462 0.00728171 0)
(1.04489 0.00717059 0)
(1.04516 0.00706337 0)
(1.04541 0.00695961 0)
(1.04567 0.00685914 0)
(1.04592 0.00676162 0)
(1.04617 0.00666716 0)
(1.04641 0.00657546 0)
(1.04665 0.00648701 0)
(1.04689 0.00640156 0)
(1.04713 0.0063201 0)
(1.04736 0.00624271 0)
(1.04759 0.00617104 0)
(1.04782 0.00610639 0)
(1.04804 0.0060511 0)
(1.04827 0.00600972 0)
(1.04849 0.00598551 0)
(1.04872 0.00598993 0)
(1.04897 0.00602989 0)
(1.04924 0.00612733 0)
(1.04959 0.00630355 0)
(1.05005 0.00657457 0)
(1.05075 0.00697019 0)
(1.0008 0.0103347 0)
(1.01173 0.0186807 0)
(1.02206 0.0168554 0)
(1.0268 0.0147587 0)
(1.0286 0.0142115 0)
(1.03018 0.0136571 0)
(1.0318 0.0128213 0)
(1.03314 0.0120879 0)
(1.03415 0.0115392 0)
(1.03499 0.0110814 0)
(1.03573 0.0106669 0)
(1.0364 0.0102934 0)
(1.03701 0.00996075 0)
(1.03755 0.00966258 0)
(1.03806 0.00939248 0)
(1.03853 0.00914601 0)
(1.03896 0.00891998 0)
(1.03937 0.00871177 0)
(1.03976 0.00851914 0)
(1.04012 0.00834015 0)
(1.04047 0.00817317 0)
(1.0408 0.00801676 0)
(1.04112 0.00786968 0)
(1.04142 0.00773082 0)
(1.04172 0.00759917 0)
(1.042 0.00747385 0)
(1.04228 0.00735403 0)
(1.04255 0.00723904 0)
(1.04281 0.00712827 0)
(1.04306 0.00702128 0)
(1.04332 0.00691764 0)
(1.04356 0.00681718 0)
(1.04381 0.0067196 0)
(1.04405 0.006625 0)
(1.04429 0.00653317 0)
(1.04453 0.00644451 0)
(1.04476 0.00635892 0)
(1.045 0.00627722 0)
(1.04523 0.00619971 0)
(1.04546 0.00612776 0)
(1.04569 0.00606287 0)
(1.04591 0.00600714 0)
(1.04614 0.00596487 0)
(1.04637 0.00593958 0)
(1.04661 0.00594086 0)
(1.04687 0.00597684 0)
(1.04716 0.00606356 0)
(1.04753 0.00622153 0)
(1.04802 0.00645429 0)
(1.04874 0.00677789 0)
(1.00069 0.00934274 0)
(1.01046 0.017617 0)
(1.02019 0.0163727 0)
(1.02497 0.0143982 0)
(1.02684 0.0138813 0)
(1.02838 0.0134268 0)
(1.02998 0.012664 0)
(1.03131 0.0119552 0)
(1.03233 0.0114199 0)
(1.03316 0.0109774 0)
(1.03389 0.0105759 0)
(1.03455 0.0102113 0)
(1.03515 0.00988516 0)
(1.03569 0.00959237 0)
(1.03619 0.00932683 0)
(1.03664 0.00908418 0)
(1.03707 0.00886136 0)
(1.03747 0.00865589 0)
(1.03785 0.00846562 0)
(1.03821 0.00828868 0)
(1.03855 0.00812347 0)
(1.03887 0.0079686 0)
(1.03918 0.00782286 0)
(1.03948 0.00768514 0)
(1.03976 0.00755447 0)
(1.04004 0.00742994 0)
(1.04031 0.00731078 0)
(1.04057 0.00719628 0)
(1.04082 0.00708586 0)
(1.04107 0.00697908 0)
(1.04132 0.00687553 0)
(1.04156 0.00677504 0)
(1.0418 0.00667737 0)
(1.04203 0.00658259 0)
(1.04227 0.00649056 0)
(1.0425 0.00640163 0)
(1.04273 0.00631581 0)
(1.04296 0.00623378 0)
(1.04318 0.006156 0)
(1.04341 0.00608365 0)
(1.04363 0.00601829 0)
(1.04386 0.00596191 0)
(1.04409 0.00591839 0)
(1.04432 0.00589149 0)
(1.04456 0.00588907 0)
(1.04483 0.00591971 0)
(1.04513 0.00599468 0)
(1.04552 0.00613189 0)
(1.04601 0.00632578 0)
(1.04674 0.0065794 0)
(1.0006 0.0084401 0)
(1.0093 0.0165774 0)
(1.01843 0.0158794 0)
(1.02323 0.0140455 0)
(1.02517 0.0135509 0)
(1.02667 0.0131866 0)
(1.02824 0.0125002 0)
(1.02957 0.01182 0)
(1.03059 0.0112982 0)
(1.03142 0.010871 0)
(1.03214 0.0104829 0)
(1.0328 0.0101277 0)
(1.03338 0.00980835 0)
(1.03392 0.00952112 0)
(1.0344 0.0092603 0)
(1.03485 0.00902162 0)
(1.03527 0.00880213 0)
(1.03567 0.00859951 0)
(1.03604 0.00841168 0)
(1.03639 0.00823685 0)
(1.03672 0.00807346 0)
(1.03703 0.00792019 0)
(1.03733 0.00777581 0)
(1.03762 0.00763928 0)
(1.0379 0.0075096 0)
(1.03817 0.00738591 0)
(1.03843 0.00726741 0)
(1.03869 0.00715342 0)
(1.03893 0.00704335 0)
(1.03918 0.00693677 0)
(1.03942 0.0068333 0)
(1.03965 0.00673277 0)
(1.03988 0.00663498 0)
(1.04011 0.00653999 0)
(1.04034 0.00644773 0)
(1.04057 0.00635849 0)
(1.04079 0.00627239 0)
(1.04102 0.00618999 0)
(1.04124 0.00611185 0)
(1.04146 0.006039 0)
(1.04168 0.00597301 0)
(1.0419 0.00591576 0)
(1.04213 0.00587072 0)
(1.04236 0.00584172 0)
(1.04261 0.00583509 0)
(1.04288 0.00585919 0)
(1.04319 0.0059215 0)
(1.04358 0.00603611 0)
(1.04408 0.00619104 0)
(1.0448 0.00637772 0)
(1.00051 0.00762196 0)
(1.00825 0.0155658 0)
(1.01678 0.0153741 0)
(1.02157 0.0137002 0)
(1.02358 0.013222 0)
(1.02506 0.0129372 0)
(1.02658 0.0123296 0)
(1.02791 0.011682 0)
(1.02893 0.0111743 0)
(1.02976 0.0107619 0)
(1.03048 0.0103876 0)
(1.03112 0.0100425 0)
(1.0317 0.00973023 0)
(1.03223 0.00944875 0)
(1.03271 0.00919281 0)
(1.03315 0.00895824 0)
(1.03357 0.00874221 0)