/*--------------------------------*- C++ -*----------------------------------*\
  =========                 |
  \\      /  F ield         | OpenFOAM: The Open Source CFD Toolbox
   \\    /   O peration     | Website:  https://openfoam.org
    \\  /    A nd           | Version:  7
     \\/     M anipulation  |
\*---------------------------------------------------------------------------*/
FoamFile
{
    version     2.0;
    format      ascii;
    class       volVectorField;
    location    "0.23";
    object      U_0;
}
// * * * * * * * * * * * * * * * * * * * * * * * * * * * * * * * * * * * * * //

dimensions      [0 1 -1 0 0 0 0];

internalField   nonuniform List<vector> 
70000
(
(0.553413 0.0169782 0)
(0.251412 0.00340054 0)
(0.165914 0.000319098 0)
(0.132425 4.9132e-05 0)
(0.117315 4.41739e-05 0)
(0.107354 5.23301e-05 0)
(0.0993809 4.45209e-05 0)
(0.0929371 3.54358e-05 0)
(0.0876942 2.93903e-05 0)
(0.0833272 2.52461e-05 0)
(0.0796079 2.20789e-05 0)
(0.0763887 1.954e-05 0)
(0.0735681 1.74695e-05 0)
(0.071072 1.57583e-05 0)
(0.0688441 1.43258e-05 0)
(0.066841 1.31123e-05 0)
(0.0650283 1.20735e-05 0)
(0.0633785 1.11762e-05 0)
(0.0618695 1.03948e-05 0)
(0.0604831 9.70946e-06 0)
(0.0592042 9.10442e-06 0)
(0.0580201 8.56712e-06 0)
(0.0569203 8.08737e-06 0)
(0.0558956 7.65693e-06 0)
(0.0549385 7.26888e-06 0)
(0.0540423 6.91797e-06 0)
(0.0532012 6.59899e-06 0)
(0.0524102 6.30928e-06 0)
(0.0516649 6.04387e-06 0)
(0.0509615 5.80334e-06 0)
(0.0502967 5.58093e-06 0)
(0.0496671 5.38256e-06 0)
(0.0490704 5.19661e-06 0)
(0.0485036 5.03767e-06 0)
(0.0479649 4.88711e-06 0)
(0.0474519 4.7673e-06 0)
(0.0469621 4.66365e-06 0)
(0.046495 4.57777e-06 0)
(0.0460446 4.56845e-06 0)
(0.0456171 4.47888e-06 0)
(0.0451926 4.71763e-06 0)
(0.0448007 4.46055e-06 0)
(0.0443775 5.42753e-06 0)
(0.0440247 4.38332e-06 0)
(0.0435467 7.62711e-06 0)
(0.0432612 3.52627e-06 0)
(0.0425851 1.43327e-05 0)
(0.042455 -8.34988e-07 0)
(0.0413767 4.08201e-05 0)
(0.0383424 -0.00152056 0)
(0.884862 0.0434936 0)
(0.65014 0.0201496 0)
(0.493958 0.00660552 0)
(0.403523 0.00275559 0)
(0.354802 0.00154866 0)
(0.323481 0.00113223 0)
(0.29958 0.000909654 0)
(0.280373 0.00074493 0)
(0.264665 0.000622126 0)
(0.251553 0.000531554 0)
(0.240383 0.000462782 0)
(0.230715 0.000408648 0)
(0.222243 0.000364897 0)
(0.214744 0.00032888 0)
(0.208048 0.000298793 0)
(0.202027 0.000273346 0)
(0.196577 0.000251588 0)
(0.191616 0.000232805 0)
(0.187077 0.000216451 0)
(0.182906 0.000202103 0)
(0.179058 0.000189429 0)
(0.175496 0.000178161 0)
(0.172186 0.000168085 0)
(0.169103 0.000159027 0)
(0.166223 0.000150842 0)
(0.163526 0.000143413 0)
(0.160996 0.000136638 0)
(0.158616 0.000130438 0)
(0.156374 0.000124739 0)
(0.154259 0.000119489 0)
(0.15226 0.000114628 0)
(0.150369 0.000110134 0)
(0.148576 0.000105944 0)
(0.146876 0.000102083 0)
(0.145261 9.84561e-05 0)
(0.143725 9.51741e-05 0)
(0.142262 9.20682e-05 0)
(0.14087 8.93929e-05 0)
(0.139533 8.6878e-05 0)
(0.138267 8.49377e-05 0)
(0.137022 8.33485e-05 0)
(0.135876 8.23513e-05 0)
(0.134662 8.27901e-05 0)
(0.133651 8.27303e-05 0)
(0.132334 8.88237e-05 0)
(0.131542 8.76281e-05 0)
(0.129785 0.000114352 0)
(0.129435 7.97342e-05 0)
(0.126774 0.000361066 0)
(0.123422 -0.002361 0)
(0.991209 0.0499561 0)
(0.890918 0.0305642 0)
(0.762473 0.0146125 0)
(0.656499 0.00797273 0)
(0.58538 0.00488121 0)
(0.536 0.00347572 0)
(0.498103 0.00273907 0)
(0.467474 0.00224438 0)
(0.442166 0.00188032 0)
(0.420869 0.00160844 0)
(0.402634 0.0014008 0)
(0.386791 0.00123733 0)
(0.372867 0.00110529 0)
(0.36051 0.000996574 0)
(0.349455 0.000905727 0)
(0.339494 0.000828852 0)
(0.330465 0.000763091 0)
(0.322235 0.000706295 0)
(0.314698 0.000656823 0)
(0.307765 0.000613401 0)
(0.301363 0.000575026 0)
(0.29543 0.000540895 0)
(0.289916 0.000510362 0)
(0.284775 0.0004829 0)
(0.279971 0.000458075 0)
(0.275469 0.000435529 0)
(0.271243 0.00041496 0)
(0.267268 0.000396118 0)
(0.263522 0.000378787 0)
(0.259986 0.000362794 0)
(0.256643 0.000347975 0)
(0.253479 0.000334229 0)
(0.250481 0.000321399 0)
(0.247636 0.000309499 0)
(0.244934 0.000298299 0)
(0.242366 0.000288041 0)
(0.239919 0.000278258 0)
(0.237593 0.00026969 0)
(0.235362 0.000261296 0)
(0.233252 0.000254854 0)
(0.231187 0.000248192 0)
(0.229282 0.000244926 0)
(0.227297 0.000241378 0)
(0.225622 0.000243136 0)
(0.223533 0.000247717 0)
(0.22221 0.000255172 0)
(0.21957 0.000293977 0)
(0.218904 0.000245962 0)
(0.215019 0.000669582 0)
(0.212945 -0.00203132 0)
(1.01554 0.0489544 0)
(1.00649 0.0357263 0)
(0.935873 0.0208224 0)
(0.851982 0.0135018 0)
(0.782191 0.0092008 0)
(0.72703 0.00678539 0)
(0.681935 0.00538828 0)
(0.644175 0.00444615 0)
(0.612169 0.0037507 0)
(0.584721 0.00322416 0)
(0.560893 0.00281737 0)
(0.539975 0.00249496 0)
(0.521439 0.00223338 0)
(0.504881 0.00201727 0)
(0.489986 0.0018361 0)
(0.476506 0.00168239 0)
(0.464238 0.0015506 0)
(0.453019 0.00143654 0)
(0.442715 0.00133702 0)
(0.433213 0.00124954 0)
(0.424419 0.00117211 0)
(0.416255 0.00110317 0)
(0.408653 0.00104143 0)
(0.401555 0.000985845 0)
(0.394912 0.000935557 0)
(0.38868 0.000889846 0)
(0.382822 0.000848115 0)
(0.377305 0.000809856 0)
(0.372101 0.000774642 0)
(0.367184 0.000742115 0)
(0.362533 0.000711953 0)
(0.358126 0.00068393 0)
(0.353947 0.000657757 0)
(0.349978 0.0006334 0)
(0.346207 0.000610456 0)
(0.34262 0.000589308 0)
(0.339202 0.000569082 0)
(0.33595 0.000551177 0)
(0.332834 0.000533401 0)
(0.329882 0.000519577 0)
(0.327007 0.000504363 0)
(0.324339 0.000496902 0)
(0.321605 0.000485381 0)
(0.319247 0.000489092 0)
(0.316445 0.000486451 0)
(0.314529 0.000507217 0)
(0.311178 0.000548356 0)
(0.310014 0.000509183 0)
(0.305321 0.000978203 0)
(0.303658 -0.00127871 0)
(1.01435 0.0460989 0)
(1.04798 0.0373438 0)
(1.02456 0.024191 0)
(0.974657 0.0175622 0)
(0.923444 0.0131132 0)
(0.876701 0.0102084 0)
(0.834531 0.00834682 0)
(0.796786 0.00702242 0)
(0.763241 0.00601003 0)
(0.733453 0.00522108 0)
(0.706908 0.00459797 0)
(0.683132 0.00409621 0)
(0.661728 0.00368435 0)
(0.642361 0.00334091 0)
(0.624756 0.00305084 0)
(0.60868 0.00280316 0)
(0.593942 0.00258966 0)
(0.580378 0.00240405 0)
(0.567851 0.00224146 0)
(0.556244 0.00209804 0)
(0.545458 0.00197074 0)
(0.535406 0.00185709 0)
(0.526014 0.00175507 0)
(0.51722 0.00166304 0)
(0.508967 0.00157962 0)
(0.501206 0.00150368 0)
(0.493894 0.00143424 0)
(0.486994 0.0013705 0)
(0.480473 0.00131177 0)
(0.474301 0.00125744 0)
(0.468452 0.00120702 0)
(0.462902 0.0011601 0)
(0.457631 0.00111624 0)
(0.452619 0.00107533 0)
(0.447849 0.00103676 0)
(0.443307 0.00100105 0)
(0.438975 0.000966865 0)
(0.434846 0.000936328 0)
(0.430892 0.000905924 0)
(0.427135 0.000881796 0)
(0.42349 0.000854941 0)
(0.420083 0.000840841 0)
(0.416641 0.000818241 0)
(0.4136 0.000822188 0)
(0.410154 0.000809079 0)
(0.407594 0.000842179 0)
(0.403692 0.000881722 0)
(0.401842 0.000859235 0)
(0.396792 0.00134565 0)
(0.394522 -0.000445304 0)
(1.00941 0.0430486 0)
(1.05563 0.0370996 0)
(1.05866 0.0253332 0)
(1.03628 0.0197684 0)
(1.00709 0.0158027 0)
(0.976064 0.0129374 0)
(0.944525 0.010964 0)
(0.913655 0.0094783 0)
(0.884312 0.00828457 0)
(0.856877 0.00731462 0)
(0.831428 0.00652288 0)
(0.8079 0.00586888 0)
(0.786172 0.00532121 0)
(0.766099 0.00485711 0)
(0.747535 0.0044599 0)
(0.730338 0.00411698 0)
(0.714376 0.0038186 0)
(0.699531 0.00355714 0)
(0.685696 0.00332651 0)
(0.672775 0.00312187 0)
(0.660683 0.00293928 0)
(0.649345 0.0027755 0)
(0.638695 0.0026279 0)
(0.628672 0.00249427 0)
(0.619224 0.00237276 0)
(0.610304 0.00226182 0)
(0.60187 0.00216013 0)
(0.593885 0.00206656 0)
(0.586314 0.00198016 0)
(0.579128 0.0019001 0)
(0.572301 0.00182566 0)
(0.565805 0.00175626 0)
(0.559622 0.0016913 0)
(0.55373 0.00163057 0)
(0.548111 0.00157325 0)
(0.542748 0.00151998 0)
(0.537626 0.00146897 0)
(0.532733 0.00142302 0)
(0.528043 0.00137736 0)
(0.523574 0.0013403 0)
(0.519246 0.00129945 0)
(0.515171 0.00127609 0)
(0.511104 0.00124054 0)
(0.507427 0.00124164 0)
(0.50343 0.00121766 0)
(0.500226 0.00125764 0)
(0.495918 0.00129871 0)
(0.493292 0.00128751 0)
(0.48816 0.00179491 0)
(0.484986 0.000444538 0)
(1.00635 0.0401808 0)
(1.05241 0.0361533 0)
(1.06605 0.0252575 0)
(1.05951 0.0205746 0)
(1.04686 0.0172312 0)
(1.0308 0.0146571 0)
(1.01188 0.012824 0)
(0.991187 0.011395 0)
(0.969778 0.0101941 0)
(0.948386 0.00917533 0)
(0.927454 0.00831247 0)
(0.907244 0.00757733 0)
(0.887901 0.00694546 0)
(0.869496 0.0063981 0)
(0.852044 0.00592082 0)
(0.835532 0.00550217 0)
(0.819928 0.00513292 0)
(0.805189 0.00480551 0)
(0.791264 0.00451376 0)
(0.778105 0.00425255 0)
(0.765661 0.00401763 0)
(0.753885 0.00380546 0)
(0.742731 0.00361305 0)
(0.732157 0.00343787 0)
(0.722123 0.0032778 0)
(0.712592 0.003131 0)
(0.703531 0.0029959 0)
(0.694909 0.00287114 0)
(0.686698 0.00275557 0)
(0.67887 0.00264815 0)
(0.671404 0.00254801 0)
(0.664275 0.00245441 0)
(0.657465 0.00236659 0)
(0.650954 0.00228428 0)
(0.644727 0.00220646 0)
(0.638766 0.00213387 0)
(0.633057 0.00206433 0)
(0.627589 0.00200118 0)
(0.622338 0.00193867 0)
(0.617316 0.00188679 0)
(0.612457 0.00183062 0)
(0.607848 0.00179574 0)
(0.603289 0.00174668 0)
(0.599084 0.0017414 0)
(0.594662 0.00170821 0)
(0.590893 0.00174791 0)
(0.58631 0.00179599 0)
(0.582972 0.00179046 0)
(0.577847 0.00231799 0)
(0.573927 0.00139214 0)
(1.00506 0.0375037 0)
(1.04762 0.0350555 0)
(1.06395 0.0247108 0)
(1.06417 0.0206069 0)
(1.06066 0.0177711 0)
(1.05474 0.0154999 0)
(1.04597 0.0138821 0)
(1.03476 0.012618 0)
(1.02184 0.0115274 0)
(1.00781 0.0105709 0)
(0.993138 0.00973479 0)
(0.978169 0.00900139 0)
(0.963171 0.00835392 0)
(0.948337 0.00777934 0)
(0.933803 0.00726742 0)
(0.919658 0.00680977 0)
(0.905962 0.00639925 0)
(0.892747 0.00602979 0)
(0.88003 0.00569619 0)
(0.867814 0.00539397 0)
(0.856093 0.00511931 0)
(0.844858 0.0048689 0)
(0.834094 0.00463988 0)
(0.823782 0.00442978 0)
(0.813906 0.00423648 0)
(0.804446 0.00405808 0)
(0.795382 0.00389298 0)
(0.786697 0.00373973 0)
(0.778372 0.0035971 0)
(0.770388 0.00346397 0)
(0.762731 0.00333937 0)
(0.755383 0.00322249 0)
(0.74833 0.00311247 0)
(0.741557 0.00300899 0)
(0.735051 0.00291093 0)
(0.728799 0.00281907 0)
(0.72279 0.00273097 0)
(0.717012 0.00265037 0)
(0.711448 0.00257086 0)
(0.706104 0.00250356 0)
(0.700931 0.00243204 0)
(0.695989 0.00238437 0)
(0.691127 0.00232246 0)
(0.68657 0.00230793 0)
(0.68189 0.00226812 0)
(0.677715 0.00230171 0)
(0.67299 0.00236038 0)
(0.669125 0.00236071 0)
(0.664053 0.00290085 0)
(0.659661 0.00236733 0)
(1.00451 0.034968 0)
(1.04359 0.033976 0)
(1.05992 0.0240608 0)
(1.06221 0.0203188 0)
(1.06249 0.0178376 0)
(1.0618 0.0157813 0)
(1.05921 0.0143375 0)
(1.05464 0.0132391 0)
(1.04841 0.0122903 0)
(1.04083 0.0114452 0)
(1.03219 0.0106928 0)
(1.02274 0.0100195 0)
(1.01271 0.00941235 0)
(1.0023 0.00886211 0)
(0.991663 0.00836189 0)
(0.98094 0.00790613 0)
(0.97023 0.0074901 0)
(0.959613 0.00710959 0)
(0.949148 0.00676091 0)
(0.93888 0.00644075 0)
(0.928841 0.00614619 0)
(0.919055 0.00587459 0)
(0.909535 0.00562364 0)
(0.90029 0.00539125 0)
(0.891326 0.00517558 0)
(0.882641 0.00497497 0)
(0.874236 0.00478796 0)
(0.866105 0.00461322 0)
(0.858244 0.00444959 0)
(0.850645 0.00429599 0)
(0.843304 0.00415149 0)
(0.836211 0.00401529 0)
(0.829359 0.00388653 0)
(0.82274 0.00376489 0)
(0.816348 0.0036492 0)
(0.810172 0.00354034 0)
(0.804207 0.00343572 0)
(0.798445 0.00333933 0)
(0.792873 0.00324447 0)
(0.787496 0.00316276 0)
(0.782277 0.00307743 0)
(0.777259 0.00301712 0)
(0.772334 0.00294424 0)
(0.767657 0.00291913 0)
(0.762926 0.0028755 0)
(0.758567 0.00290003 0)
(0.753861 0.00297028 0)
(0.749718 0.00298102 0)
(0.744788 0.00352502 0)
(0.740209 0.00333861 0)
(1.00412 0.0325376 0)
(1.04026 0.0329231 0)
(1.05616 0.0234271 0)
(1.05885 0.0199356 0)
(1.06022 0.0177102 0)
(1.06158 0.0157859 0)
(1.06193 0.0144438 0)
(1.06101 0.0134608 0)
(1.05893 0.0126278 0)
(1.05579 0.011888 0)
(1.0517 0.0112281 0)
(1.04675 0.010634 0)
(1.04108 0.0100929 0)
(1.03481 0.00959626 0)
(1.02806 0.00913829 0)
(1.02095 0.00871484 0)
(1.01357 0.00832255 0)
(1.00599 0.00795857 0)
(0.998304 0.00762038 0)
(0.990557 0.00730575 0)
(0.982802 0.00701264 0)
(0.975079 0.0067392 0)
(0.967421 0.00648376 0)
(0.959855 0.00624477 0)
(0.952402 0.00602083 0)
(0.945079 0.00581064 0)
(0.937896 0.00561306 0)
(0.930865 0.00542699 0)
(0.923992 0.00525147 0)
(0.917281 0.0050856 0)
(0.910735 0.00492857 0)
(0.904355 0.00477968 0)
(0.898143 0.00463816 0)
(0.892096 0.00450377 0)
(0.886214 0.00437536 0)
(0.880494 0.00425391 0)
(0.874934 0.00413683 0)
(0.86953 0.00402823 0)
(0.864277 0.00392145 0)
(0.859178 0.00382812 0)
(0.85421 0.00373203 0)
(0.849401 0.00366092 0)
(0.844678 0.00358009 0)
(0.840143 0.00354496 0)
(0.835595 0.00350039 0)
(0.831307 0.00351582 0)
(0.826811 0.00359724 0)
(0.822662 0.00362439 0)
(0.818015 0.00416564 0)
(0.813532 0.00427082 0)
(1.00374 0.0302035 0)
(1.03727 0.0318745 0)
(1.05282 0.0228245 0)
(1.05561 0.0195347 0)
(1.05712 0.0175215 0)
(1.05904 0.0156863 0)
(1.06046 0.0143922 0)
(1.06113 0.0134728 0)
(1.06111 0.0127133 0)
(1.06044 0.0120475 0)
(1.05912 0.0114594 0)
(1.05716 0.0109338 0)
(1.0546 0.0104563 0)
(1.05148 0.0100174 0)
(1.04788 0.00961067 0)
(1.04384 0.009232 0)
(1.03943 0.0088782 0)
(1.0347 0.0085468 0)
(1.02972 0.00823579 0)
(1.02454 0.00794343 0)
(1.01919 0.00766824 0)
(1.01372 0.00740889 0)
(1.00817 0.00716416 0)
(1.00257 0.00693296 0)
(0.996942 0.00671427 0)
(0.991313 0.00650716 0)
(0.985703 0.00631078 0)
(0.980129 0.00612432 0)
(0.974604 0.00594705 0)
(0.969142 0.00577829 0)
(0.963751 0.0056174 0)
(0.95844 0.00546385 0)
(0.953216 0.00531699 0)
(0.948082 0.00517672 0)
(0.943045 0.00504197 0)
(0.938105 0.00491382 0)
(0.933266 0.00478978 0)
(0.928528 0.00467398 0)
(0.923891 0.00456008 0)
(0.919358 0.00445933 0)
(0.914916 0.00435675 0)
(0.910587 0.00427813 0)
(0.906321 0.00419323 0)
(0.902186 0.00415035 0)
(0.898051 0.00410787 0)
(0.894085 0.00411646 0)
(0.889998 0.00420816 0)
(0.886105 0.00425753 0)
(0.881905 0.00479133 0)
(0.877782 0.00512856 0)
(1.00337 0.0279682 0)
(1.03443 0.0308179 0)
(1.04972 0.0222469 0)
(1.05265 0.0191311 0)
(1.05412 0.0173144 0)
(1.05609 0.0155576 0)
(1.05779 0.0142859 0)
(1.05898 0.0133975 0)
(1.05977 0.0126787 0)
(1.06021 0.0120561 0)
(1.06028 0.0115127 0)
(1.05995 0.0110333 0)
(1.05923 0.0106025 0)
(1.05811 0.0102093 0)
(1.05662 0.0098467 0)
(1.05476 0.00950966 0)
(1.05257 0.00919458 0)
(1.05008 0.00889874 0)
(1.04731 0.00861998 0)
(1.04429 0.00835661 0)
(1.04106 0.0081072 0)
(1.03764 0.00787058 0)
(1.03407 0.00764571 0)
(1.03036 0.00743169 0)
(1.02654 0.00722772 0)
(1.02264 0.00703308 0)
(1.01868 0.00684711 0)
(1.01467 0.00666921 0)
(1.01062 0.00649884 0)
(1.00656 0.00633548 0)
(1.00249 0.00617867 0)
(0.998433 0.00602803 0)
(0.99439 0.00588304 0)
(0.990372 0.00574373 0)
(0.986386 0.00560913 0)
(0.982437 0.00548044 0)
(0.978532 0.0053553 0)
(0.974674 0.00523779 0)
(0.970866 0.00512207 0)
(0.967113 0.0050187 0)
(0.963408 0.00491444 0)
(0.959768 0.00483238 0)
(0.956163 0.00474766 0)
(0.952634 0.00470042 0)
(0.949104 0.00466296 0)
(0.945669 0.0046684 0)
(0.942161 0.00476948 0)
(0.938747 0.00484557 0)
(0.935145 0.00536858 0)
(0.931599 0.00587931 0)
(1.00301 0.0258351 0)
(1.03171 0.0297491 0)
(1.04672 0.0216905 0)
(1.04986 0.0187247 0)
(1.0513 0.0170955 0)
(1.05324 0.0154219 0)
(1.05496 0.0141659 0)
(1.05627 0.013294 0)
(1.0573 0.0125984 0)
(1.05813 0.0119995 0)
(1.05875 0.0114805 0)
(1.05916 0.0110274 0)
(1.05934 0.010625 0)
(1.05929 0.0102615 0)
(1.05899 0.00992927 0)
(1.05845 0.0096228 0)
(1.05767 0.00933796 0)
(1.05665 0.00907157 0)
(1.05542 0.00882116 0)
(1.05397 0.00858474 0)
(1.05232 0.00836074 0)
(1.0505 0.00814785 0)
(1.04851 0.00794499 0)
(1.04637 0.00775123 0)
(1.04409 0.00756579 0)
(1.0417 0.00738798 0)
(1.0392 0.00721721 0)
(1.03662 0.00705295 0)
(1.03396 0.00689474 0)
(1.03123 0.00674218 0)
(1.02845 0.00659488 0)
(1.02564 0.00645258 0)
(1.02279 0.00631482 0)
(1.01992 0.00618177 0)
(1.01703 0.00605254 0)
(1.01414 0.00592838 0)
(1.01124 0.00580712 0)
(1.00835 0.00569269 0)
(1.00546 0.00557986 0)
(1.00259 0.0054783 0)
(0.999733 0.00537677 0)
(0.996897 0.00529525 0)
(0.994067 0.0052146 0)
(0.99127 0.00516665 0)
(0.988461 0.00513662 0)
(0.985692 0.00514302 0)
(0.982874 0.00525253 0)
(0.980088 0.00535771 0)
(0.977189 0.00586752 0)
(0.974361 0.00649759 0)
(1.00268 0.0238068 0)
(1.02911 0.0286665 0)
(1.04381 0.021155 0)
(1.04716 0.0183152 0)
(1.04861 0.0168632 0)
(1.05051 0.0152819 0)
(1.05223 0.0140432 0)
(1.05355 0.0131831 0)
(1.05461 0.0125041 0)
(1.05553 0.0119202 0)
(1.05633 0.0114148 0)
(1.05701 0.0109758 0)
(1.05755 0.0105888 0)
(1.05796 0.0102421 0)
(1.05823 0.00992782 0)
(1.05836 0.00964031 0)
(1.05834 0.00937517 0)
(1.05817 0.00912894 0)
(1.05785 0.00889889 0)
(1.05737 0.00868278 0)
(1.05676 0.00847881 0)
(1.056 0.00828549 0)
(1.05511 0.00810158 0)
(1.05409 0.00792604 0)
(1.05295 0.00775798 0)
(1.0517 0.00759665 0)
(1.05035 0.00744141 0)
(1.0489 0.00729171 0)
(1.04737 0.00714708 0)
(1.04575 0.00700713 0)
(1.04407 0.00687149 0)
(1.04233 0.00673996 0)
(1.04053 0.0066121 0)
(1.03869 0.00648814 0)
(1.03681 0.00636724 0)
(1.03489 0.00625067 0)
(1.03294 0.00613645 0)
(1.03097 0.00602826 0)
(1.02898 0.00592156 0)
(1.02698 0.00582495 0)
(1.02496 0.00572932 0)
(1.02293 0.00565141 0)
(1.02089 0.00557762 0)
(1.01885 0.00553205 0)
(1.01679 0.0055109 0)
(1.01473 0.00552178 0)
(1.01263 0.00563854 0)
(1.01053 0.00577263 0)
(1.00837 0.00626711 0)
(1.00632 0.00696886 0)
(1.00238 0.0218851 0)
(1.02664 0.0275694 0)
(1.04099 0.0206398 0)
(1.04456 0.0179043 0)
(1.04602 0.0166164 0)
(1.04789 0.015136 0)
(1.04961 0.0139192 0)
(1.05092 0.0130699 0)
(1.05198 0.0124058 0)
(1.0529 0.0118343 0)
(1.05373 0.0113383 0)
(1.05447 0.0109078 0)
(1.05513 0.0105294 0)
(1.0557 0.010192 0)
(1.05619 0.00988757 0)
(1.0566 0.00961064 0)
(1.05693 0.00935683 0)
(1.05717 0.00912261 0)
(1.05731 0.00890515 0)
(1.05736 0.00870209 0)
(1.05732 0.0085115 0)
(1.05719 0.00833175 0)
(1.05697 0.00816149 0)
(1.05665 0.00799955 0)
(1.05624 0.00784493 0)
(1.05575 0.00769678 0)
(1.05518 0.00755439 0)
(1.05452 0.00741713 0)
(1.0538 0.00728448 0)
(1.053 0.00715602 0)
(1.05214 0.00703134 0)
(1.05122 0.00691025 0)
(1.05024 0.00679232 0)
(1.04921 0.00667776 0)
(1.04813 0.0065658 0)
(1.04702 0.00645763 0)
(1.04586 0.00635149 0)
(1.04467 0.00625073 0)
(1.04344 0.00615152 0)
(1.04219 0.00606131 0)
(1.04091 0.0059731 0)
(1.0396 0.00590045 0)
(1.03827 0.00583479 0)
(1.03693 0.00579355 0)
(1.03555 0.00578146 0)
(1.03416 0.0057991 0)
(1.03273 0.00592142 0)
(1.0313 0.00608169 0)
(1.02984 0.00655844 0)
(1.02852 0.00729169 0)
(1.0021 0.020071 0)
(1.0243 0.0264596 0)
(1.03826 0.0201429 0)
(1.04203 0.0174938 0)
(1.04352 0.0163549 0)
(1.04536 0.0149831 0)
(1.04708 0.0137931 0)
(1.04839 0.0129548 0)
(1.04943 0.0123055 0)
(1.05034 0.0117464 0)
(1.05116 0.0112588 0)
(1.05191 0.0108349 0)
(1.05258 0.0104625 0)
(1.0532 0.0101308 0)
(1.05375 0.00983222 0)
(1.05426 0.00956127 0)
(1.05471 0.00931374 0)
(1.05511 0.00908621 0)
(1.05546 0.00887585 0)
(1.05575 0.00868031 0)
(1.05599 0.00849763 0)
(1.05617 0.00832614 0)
(1.05629 0.00816443 0)
(1.05636 0.00801126 0)
(1.05636 0.00786557 0)
(1.05631 0.00772645 0)
(1.0562 0.00759309 0)
(1.05604 0.00746483 0)
(1.05582 0.00734107 0)
(1.05556 0.00722137 0)
(1.05524 0.00710527 0)
(1.05487 0.00699257 0)
(1.05446 0.00688279 0)
(1.05401 0.00677618 0)
(1.05351 0.00667195 0)
(1.05298 0.00657124 0)
(1.05241 0.00647247 0)
(1.0518 0.00637864 0)
(1.05116 0.00628661 0)
(1.05049 0.00620268 0)
(1.04979 0.0061218 0)
(1.04906 0.00605466 0)
(1.04831 0.0059969 0)
(1.04752 0.00596066 0)
(1.04672 0.00595657 0)
(1.04588 0.00598173 0)
(1.04503 0.00610739 0)
(1.04417 0.00628891 0)
(1.04331 0.00674507 0)
(1.04263 0.00747725 0)
(1.00185 0.0183645 0)
(1.0221 0.0253411 0)
(1.03562 0.0196605 0)
(1.0396 0.0170856 0)
(1.04111 0.0160795 0)
(1.04292 0.0148222 0)
(1.04463 0.0136645 0)
(1.04594 0.0128375 0)
(1.04698 0.0122032 0)
(1.04788 0.011657 0)
(1.04868 0.011178 0)
(1.04942 0.0107604 0)
(1.05008 0.0103933 0)
(1.0507 0.0100663 0)
(1.05126 0.00977191 0)
(1.05179 0.00950492 0)
(1.05227 0.00926128 0)
(1.05272 0.00903768 0)
(1.05314 0.00883137 0)
(1.05352 0.00864006 0)
(1.05387 0.00846181 0)
(1.05418 0.00829499 0)
(1.05446 0.00813816 0)
(1.0547 0.00799008 0)
(1.05491 0.00784968 0)
(1.05508 0.007716 0)
(1.05522 0.00758822 0)
(1.05532 0.00746563 0)
(1.05539 0.0073476 0)
(1.05542 0.00723366 0)
(1.05542 0.00712332 0)
(1.05539 0.00701636 0)
(1.05532 0.00691232 0)
(1.05523 0.00681139 0)
(1.0551 0.00671285 0)
(1.05495 0.00661772 0)
(1.05477 0.00652464 0)
(1.05456 0.0064362 0)
(1.05432 0.00634998 0)
(1.05405 0.00627116 0)
(1.05376 0.00619643 0)
(1.05345 0.00613399 0)
(1.05311 0.00608283 0)
(1.05274 0.00605117 0)
(1.05236 0.00605318 0)
(1.05195 0.00608524 0)
(1.05153 0.00621166 0)
(1.05112 0.00640802 0)
(1.05073 0.00684032 0)
(1.05056 0.00754611 0)
(1.00162 0.0167656 0)
(1.02004 0.0242184 0)
(1.03309 0.0191886 0)
(1.03725 0.0166813 0)
(1.03879 0.0157912 0)
(1.04056 0.0146526 0)
(1.04227 0.0135332 0)
(1.04359 0.0127179 0)
(1.04462 0.0120986 0)
(1.0455 0.011566 0)
(1.0463 0.0110962 0)
(1.04702 0.010685 0)
(1.04767 0.0103232 0)
(1.04827 0.0100006 0)
(1.04883 0.00971006 0)
(1.04935 0.00944641 0)
(1.04984 0.00920578 0)
(1.05029 0.00898498 0)
(1.05072 0.00878136 0)
(1.05113 0.00859268 0)
(1.05151 0.00841709 0)
(1.05186 0.00825295 0)
(1.0522 0.00809888 0)
(1.05251 0.00795366 0)
(1.0528 0.00781621 0)
(1.05307 0.00768557 0)
(1.05332 0.00756092 0)
(1.05354 0.00744153 0)
(1.05375 0.00732678 0)
(1.05393 0.00721616 0)
(1.05409 0.00710919 0)
(1.05423 0.00700566 0)
(1.05436 0.00690509 0)
(1.05446 0.00680766 0)
(1.05455 0.00671271 0)
(1.05461 0.00662115 0)
(1.05466 0.00653186 0)
(1.05468 0.00644702 0)
(1.05469 0.00636488 0)
(1.05468 0.0062896 0)
(1.05465 0.00621935 0)
(1.0546 0.00616031 0)
(1.05453 0.00611393 0)
(1.05444 0.0060858 0)
(1.05434 0.00609165 0)
(1.05422 0.00612905 0)
(1.0541 0.00625357 0)
(1.05401 0.00645775 0)
(1.05396 0.00686276 0)
(1.05416 0.00752341 0)
(1.00142 0.0152735 0)
(1.01811 0.0230953 0)
(1.03067 0.0187231 0)
(1.03498 0.0162822 0)
(1.03656 0.0154913 0)
(1.0383 0.0144737 0)
(1.04 0.0133988 0)
(1.04132 0.0125962 0)
(1.04234 0.0119915 0)
(1.04322 0.0114732 0)
(1.044 0.0110132 0)
(1.04471 0.0106088 0)
(1.04535 0.0102524 0)
(1.04594 0.00993434 0)
(1.04649 0.00964758 0)
(1.047 0.00938715 0)
(1.04747 0.00914932 0)
(1.04792 0.00893098 0)
(1.04835 0.00872958 0)
(1.04875 0.00854294 0)
(1.04913 0.00836925 0)
(1.0495 0.00820693 0)
(1.04984 0.00805462 0)
(1.05017 0.00791112 0)
(1.05049 0.00777538 0)
(1.05079 0.00764646 0)
(1.05108 0.00752351 0)
(1.05135 0.00740584 0)
(1.05161 0.0072928 0)
(1.05186 0.00718392 0)
(1.05209 0.0070787 0)
(1.05231 0.00697694 0)
(1.05252 0.00687818 0)
(1.05272 0.0067826 0)
(1.05291 0.0066896 0)
(1.05309 0.00659999 0)
(1.05325 0.00651287 0)
(1.0534 0.00643008 0)
(1.05355 0.00635043 0)
(1.05367 0.00627723 0)
(1.05379 0.00620984 0)
(1.05389 0.00615289 0)
(1.05398 0.00610948 0)
(1.05406 0.00608364 0)
(1.05413 0.00609116 0)
(1.0542 0.00613189 0)
(1.05426 0.00625204 0)
(1.05438 0.00645713 0)
(1.05456 0.00683164 0)
(1.055 0.00743411 0)
(1.00124 0.0138866 0)
(1.01632 0.0219759 0)
(1.02835 0.0182602 0)
(1.03281 0.0158897 0)
(1.03443 0.0151815 0)
(1.03613 0.0142851 0)
(1.03782 0.0132609 0)
(1.03914 0.0124723 0)
(1.04016 0.011882 0)
(1.04102 0.0113784 0)
(1.0418 0.0109288 0)
(1.04249 0.0105315 0)
(1.04313 0.0101807 0)
(1.0437 0.0098674 0)
(1.04424 0.00958458 0)
(1.04474 0.00932746 0)
(1.0452 0.00909243 0)
(1.04564 0.00887652 0)
(1.04606 0.00867724 0)
(1.04645 0.00849248 0)
(1.04683 0.00832045 0)
(1.04719 0.00815964 0)
(1.04753 0.0080087 0)
(1.04786 0.00786647 0)
(1.04818 0.0077319 0)
(1.04848 0.00760407 0)
(1.04877 0.00748215 0)
(1.04906 0.00736543 0)
(1.04933 0.00725329 0)
(1.0496 0.00714526 0)
(1.04986 0.00704086 0)
(1.05011 0.00693989 0)
(1.05036 0.00684194 0)
(1.0506 0.00674716 0)
(1.05083 0.00665505 0)
(1.05105 0.00656629 0)
(1.05127 0.00648023 0)
(1.05148 0.00639837 0)
(1.05168 0.00632004 0)
(1.05188 0.00624784 0)
(1.05207 0.00618201 0)
(1.05225 0.00612609 0)
(1.05242 0.00608415 0)
(1.05259 0.00605947 0)
(1.05275 0.00606686 0)
(1.05292 0.00610882 0)
(1.0531 0.0062225 0)
(1.05334 0.00642228 0)
(1.05367 0.00676354 0)
(1.05425 0.00729951 0)
(1.00107 0.0126031 0)
(1.01466 0.0208643 0)
(1.02614 0.0177966 0)
(1.03072 0.0155046 0)
(1.0324 0.0148636 0)
(1.03405 0.0140863 0)
(1.03572 0.0131191 0)
(1.03705 0.0123462 0)
(1.03807 0.0117701 0)
(1.03892 0.0112815 0)
(1.03968 0.010843 0)
(1.04037 0.0104532 0)
(1.04099 0.0101082 0)
(1.04156 0.00979975 0)
(1.04208 0.00952101 0)
(1.04257 0.00926731 0)
(1.04303 0.00903518 0)
(1.04346 0.00882176 0)
(1.04386 0.00862462 0)
(1.04425 0.00844173 0)
(1.04461 0.00827134 0)
(1.04496 0.00811197 0)
(1.0453 0.0079623 0)
(1.04562 0.00782119 0)
(1.04593 0.0076876 0)
(1.04623 0.00756063 0)
(1.04652 0.00743945 0)
(1.0468 0.00732336 0)
(1.04708 0.00721175 0)
(1.04735 0.00710416 0)
(1.04761 0.00700013 0)
(1.04787 0.00689947 0)
(1.04812 0.0068018 0)
(1.04837 0.00670725 0)
(1.04861 0.00661542 0)
(1.04885 0.0065269 0)
(1.04909 0.00644122 0)
(1.04932 0.00635963 0)
(1.04955 0.00628186 0)
(1.04977 0.00620996 0)
(1.04999 0.00614481 0)
(1.05021 0.0060892 0)
(1.05042 0.00604761 0)
(1.05063 0.00602316 0)
(1.05084 0.00602909 0)
(1.05106 0.00607033 0)
(1.0513 0.00617584 0)
(1.05161 0.00636502 0)
(1.05202 0.00667078 0)
(1.05269 0.0071358 0)
(1.00093 0.0114202 0)
(1.01314 0.0197645 0)
(1.02404 0.0173293 0)
(1.02872 0.0151275 0)
(1.03045 0.0145395 0)
(1.03207 0.0138769 0)
(1.03372 0.0129727 0)
(1.03505 0.012218 0)
(1.03607 0.0116556 0)
(1.03691 0.0111824 0)
(1.03766 0.0107555 0)
(1.03834 0.0103737 0)
(1.03895 0.0100347 0)
(1.03951 0.00973132 0)
(1.04003 0.00945682 0)
(1.0405 0.00920667 0)
(1.04095 0.00897753 0)
(1.04137 0.00876667 0)
(1.04176 0.00857175 0)
(1.04214 0.00839077 0)
(1.04249 0.00822205 0)
(1.04283 0.00806413 0)
(1.04316 0.00791572 0)
(1.04347 0.00777571 0)
(1.04378 0.00764306 0)
(1.04407 0.00751688 0)
(1.04435 0.00739635 0)
(1.04463 0.00728079 0)
(1.0449 0.00716957 0)
(1.04516 0.00706226 0)
(1.04542 0.0069584 0)
(1.04568 0.00685783 0)
(1.04593 0.00676019 0)
(1.04617 0.00666561 0)
(1.04642 0.00657377 0)
(1.04666 0.00648517 0)
(1.0469 0.00639953 0)
(1.04714 0.00631786 0)
(1.04737 0.00624021 0)
(1.0476 0.00616822 0)
(1.04783 0.00610318 0)
(1.04806 0.00604742 0)
(1.04828 0.00600544 0)
(1.04851 0.00598049 0)
(1.04874 0.00598398 0)
(1.04899 0.00602276 0)
(1.04926 0.00611872 0)
(1.04961 0.00629303 0)
(1.05007 0.00656166 0)
(1.05078 0.00695417 0)
(1.0008 0.0103346 0)
(1.01173 0.0186807 0)
(1.02206 0.0168554 0)
(1.0268 0.0147587 0)
(1.0286 0.0142114 0)
(1.03018 0.0136569 0)
(1.0318 0.0128211 0)
(1.03314 0.0120876 0)
(1.03415 0.0115388 0)
(1.03499 0.0110809 0)
(1.03573 0.0106664 0)
(1.0364 0.0102929 0)
(1.03701 0.0099602 0)
(1.03756 0.00966202 0)
(1.03806 0.00939193 0)
(1.03853 0.00914545 0)
(1.03896 0.00891942 0)
(1.03937 0.00871121 0)
(1.03976 0.00851857 0)
(1.04013 0.00833957 0)
(1.04047 0.00817257 0)
(1.04081 0.00801613 0)
(1.04112 0.00786902 0)
(1.04143 0.00773011 0)
(1.04172 0.00759841 0)
(1.04201 0.00747302 0)
(1.04228 0.00735313 0)
(1.04255 0.00723805 0)
(1.04281 0.00712719 0)
(1.04307 0.0070201 0)
(1.04332 0.00691635 0)
(1.04357 0.00681577 0)
(1.04382 0.00671807 0)
(1.04406 0.00662335 0)
(1.0443 0.00653137 0)
(1.04454 0.00644255 0)
(1.04477 0.00635677 0)
(1.04501 0.00627484 0)
(1.04524 0.00619707 0)
(1.04547 0.00612479 0)
(1.0457 0.00605951 0)
(1.04593 0.0060033 0)
(1.04616 0.00596043 0)
(1.04639 0.00593438 0)
(1.04663 0.00593473 0)
(1.04689 0.00596952 0)
(1.04718 0.00605477 0)
(1.04755 0.00621086 0)
(1.04804 0.00644126 0)
(1.04876 0.00676183 0)
(1.00069 0.00934273 0)
(1.01046 0.017617 0)
(1.02019 0.0163726 0)
(1.02497 0.0143981 0)
(1.02684 0.0138812 0)
(1.02838 0.0134266 0)
(1.02998 0.0126637 0)
(1.03131 0.0119549 0)
(1.03233 0.0114195 0)
(1.03316 0.010977 0)
(1.03389 0.0105754 0)
(1.03456 0.0102108 0)
(1.03515 0.00988457 0)
(1.03569 0.00959178 0)
(1.03619 0.00932624 0)
(1.03665 0.00908359 0)
(1.03707 0.00886077 0)
(1.03748 0.0086553 0)
(1.03785 0.00846502 0)
(1.03821 0.00828806 0)
(1.03855 0.00812283 0)
(1.03887 0.00796793 0)
(1.03918 0.00782215 0)
(1.03948 0.00768439 0)
(1.03977 0.00755366 0)
(1.04004 0.00742907 0)
(1.04031 0.00730982 0)
(1.04057 0.00719523 0)
(1.04083 0.00708471 0)
(1.04108 0.00697782 0)
(1.04132 0.00687415 0)
(1.04156 0.00677354 0)
(1.0418 0.00667574 0)
(1.04204 0.00658082 0)
(1.04227 0.00648865 0)
(1.04251 0.00639954 0)
(1.04274 0.00631353 0)
(1.04297 0.00623127 0)
(1.0432 0.00615323 0)
(1.04342 0.00608054 0)
(1.04365 0.00601479 0)
(1.04387 0.0059579 0)
(1.0441 0.00591378 0)
(1.04434 0.00588612 0)
(1.04458 0.00588276 0)
(1.04485 0.00591221 0)
(1.04515 0.00598573 0)
(1.04553 0.00612108 0)
(1.04603 0.00631266 0)
(1.04676 0.00656335 0)
(1.0006 0.00844009 0)
(1.0093 0.0165774 0)
(1.01843 0.0158793 0)
(1.02323 0.0140454 0)
(1.02517 0.0135508 0)
(1.02667 0.0131864 0)
(1.02824 0.0125 0)
(1.02957 0.0118196 0)
(1.03059 0.0112978 0)
(1.03142 0.0108705 0)
(1.03214 0.0104823 0)
(1.0328 0.0101271 0)
(1.03338 0.00980773 0)
(1.03392 0.0095205 0)
(1.03441 0.00925968 0)
(1.03486 0.009021 0)
(1.03528 0.00880151 0)
(1.03567 0.00859888 0)
(1.03604 0.00841104 0)
(1.03639 0.00823619 0)
(1.03672 0.00807279 0)
(1.03704 0.00791948 0)
(1.03734 0.00777507 0)
(1.03763 0.00763848 0)
(1.03791 0.00750874 0)
(1.03818 0.00738498 0)
(1.03844 0.00726639 0)
(1.03869 0.0071523 0)
(1.03894 0.00704212 0)
(1.03918 0.00693542 0)
(1.03942 0.00683183 0)
(1.03966 0.00673118 0)
(1.03989 0.00663325 0)
(1.04012 0.00653812 0)
(1.04035 0.0064457 0)
(1.04058 0.00635629 0)
(1.0408 0.00626998 0)
(1.04103 0.00618735 0)
(1.04125 0.00610893 0)
(1.04147 0.00603575 0)
(1.04169 0.00596934 0)
(1.04192 0.00591159 0)
(1.04214 0.00586594 0)
(1.04238 0.00583617 0)
(1.04262 0.00582861 0)
(1.04289 0.00585153 0)
(1.0432 0.00591239 0)
(1.04359 0.00602518 0)
(1.0441 0.00617786 0)
(1.04482 0.00636172 0)
(1.00051 0.00762195 0)
(1.00825 0.0155657 0)
(1.01678 0.0153741 0)
(1.02157 0.0137001 0)
(1.02358 0.0132219 0)
(1.02506 0.012937 0)
(1.02658 0.0123293 0)
(1.02791 0.0116816 0)
(1.02893 0.0111738 0)
(1.02976 0.0107613 0)
(1.03048 0.0103871 0)
(1.03112 0.0100418 0)
(1.03171 0.00972958 0)
(1.03223 0.00944809 0)
(1.03271 0.00919216 0)
(1.03316 0.00895758 0)