/*--------------------------------*- C++ -*----------------------------------*\
  =========                 |
  \\      /  F ield         | OpenFOAM: The Open Source CFD Toolbox
   \\    /   O peration     | Website:  https://openfoam.org
    \\  /    A nd           | Version:  7
     \\/     M anipulation  |
\*---------------------------------------------------------------------------*/
FoamFile
{
    version     2.0;
    format      ascii;
    class       volVectorField;
    location    "0.23";
    object      vorticity;
}
// * * * * * * * * * * * * * * * * * * * * * * * * * * * * * * * * * * * * * //

dimensions      [0 0 -1 0 0 0 0];

internalField   nonuniform List<vector> 
70000
(
(0 -0 -45716)
(0 -0 -28617.2)
(0 -0 -20912.2)
(0 -0 -16978.1)
(0 -0 -14956.2)
(0 -0 -13648.7)
(0 -0 -12639)
(0 -0 -11826.3)
(0 -0 -11162.6)
(0 -0 -10608.8)
(0 -0 -10137.1)
(0 -0 -9728.81)
(0 -0 -9371.04)
(0 -0 -9054.37)
(0 -0 -8771.68)
(0 -0 -8517.46)
(0 -0 -8287.35)
(0 -0 -8077.91)
(0 -0 -7886.31)
(0 -0 -7710.26)
(0 -0 -7547.84)
(0 -0 -7397.45)
(0 -0 -7257.76)
(0 -0 -7127.62)
(0 -0 -7006.05)
(0 -0 -6892.21)
(0 -0 -6785.39)
(0 -0 -6684.93)
(0 -0 -6590.29)
(0 -0 -6500.99)
(0 -0 -6416.59)
(0 -0 -6336.71)
(0 -0 -6261.01)
(0 -0 -6189.17)
(0 -0 -6120.92)
(0 -0 -6055.99)
(0 -0 -5994.1)
(0 -0 -5935.16)
(0 -0 -5878.49)
(0 -0 -5824.81)
(0 -0 -5771.87)
(0 -0 -5723.09)
(0 -0 -5671.16)
(0 -0 -5627.86)
(0 -0 -5570.9)
(0 -0 -5536.6)
(0 -0 -5459.34)
(0 -0 -5443.9)
(0 -0 -5330.59)
(0 -0 -5099.96)
(0 -0 -13549.7)
(0 -0 -19947.3)
(0 -0 -18535.8)
(0 -0 -16248.8)
(0 -0 -14502.5)
(0 -0 -13278.3)
(0 -0 -12350.2)
(0 -0 -11600.3)
(0 -0 -10978.3)
(0 -0 -10453.6)
(0 -0 -10003.8)
(0 -0 -9612.69)
(0 -0 -9268.65)
(0 -0 -8963.16)
(0 -0 -8689.7)
(0 -0 -8443.2)
(0 -0 -8219.66)
(0 -0 -8015.83)
(0 -0 -7829.1)
(0 -0 -7657.29)
(0 -0 -7498.61)
(0 -0 -7351.54)
(0 -0 -7214.81)
(0 -0 -7087.32)
(0 -0 -6968.16)
(0 -0 -6856.5)
(0 -0 -6751.66)
(0 -0 -6653.03)
(0 -0 -6560.09)
(0 -0 -6472.35)
(0 -0 -6389.42)
(0 -0 -6310.92)
(0 -0 -6236.54)
(0 -0 -6165.98)
(0 -0 -6098.98)
(0 -0 -6035.31)
(0 -0 -5974.7)
(0 -0 -5917.1)
(0 -0 -5861.94)
(0 -0 -5809.8)
(0 -0 -5758.97)
(0 -0 -5712.08)
(0 -0 -5663.68)
(0 -0 -5622.67)
(0 -0 -5572.7)
(0 -0 -5540.45)
(0 -0 -5479.55)
(0 -0 -5462.02)
(0 -0 -5384.38)
(0 -0 -5395.24)
(0 -0 -3818.79)
(0 -0 -10828.9)
(0 -0 -13363.5)
(0 -0 -13519.5)
(0 -0 -12865.8)
(0 -0 -12139.5)
(0 -0 -11497.9)
(0 -0 -10937.7)
(0 -0 -10446.3)
(0 -0 -10014.3)
(0 -0 -9633.05)
(0 -0 -9294.36)
(0 -0 -8991.47)
(0 -0 -8718.9)
(0 -0 -8472.23)
(0 -0 -8247.86)
(0 -0 -8042.81)
(0 -0 -7854.63)
(0 -0 -7681.25)
(0 -0 -7520.94)
(0 -0 -7372.24)
(0 -0 -7233.9)
(0 -0 -7104.85)
(0 -0 -6984.15)
(0 -0 -6871.02)
(0 -0 -6764.75)
(0 -0 -6664.74)
(0 -0 -6570.44)
(0 -0 -6481.4)
(0 -0 -6397.2)
(0 -0 -6317.46)
(0 -0 -6241.86)
(0 -0 -6170.12)
(0 -0 -6101.95)
(0 -0 -6037.14)
(0 -0 -5975.48)
(0 -0 -5916.74)
(0 -0 -5860.83)
(0 -0 -5807.37)
(0 -0 -5756.68)
(0 -0 -5707.68)
(0 -0 -5661.94)
(0 -0 -5616.2)
(0 -0 -5575.69)
(0 -0 -5530.99)
(0 -0 -5497.12)
(0 -0 -5449.29)
(0 -0 -5423.53)
(0 -0 -5371.69)
(0 -0 -5408.91)
(0 -0 -533.072)
(0 -0 -4662.77)
(0 -0 -7718.73)
(0 -0 -9328.83)
(0 -0 -9892.49)
(0 -0 -9957.67)
(0 -0 -9825.86)
(0 -0 -9613.93)
(0 -0 -9370.73)
(0 -0 -9120.97)
(0 -0 -8877.05)
(0 -0 -8644.52)
(0 -0 -8425.49)
(0 -0 -8220.36)
(0 -0 -8028.78)
(0 -0 -7850.01)
(0 -0 -7683.16)
(0 -0 -7527.31)
(0 -0 -7381.55)
(0 -0 -7245.05)
(0 -0 -7117.02)
(0 -0 -6996.73)
(0 -0 -6883.56)
(0 -0 -6776.9)
(0 -0 -6676.24)
(0 -0 -6581.11)
(0 -0 -6491.06)
(0 -0 -6405.73)
(0 -0 -6324.76)
(0 -0 -6247.85)
(0 -0 -6174.72)
(0 -0 -6105.11)
(0 -0 -6038.8)
(0 -0 -5975.58)
(0 -0 -5915.26)
(0 -0 -5857.68)
(0 -0 -5802.67)
(0 -0 -5750.12)
(0 -0 -5699.82)
(0 -0 -5651.82)
(0 -0 -5605.69)
(0 -0 -5561.88)
(0 -0 -5519.33)
(0 -0 -5479.49)
(0 -0 -5439.82)
(0 -0 -5403.63)
(0 -0 -5366.96)
(0 -0 -5331)
(0 -0 -5304.79)
(0 -0 -5287.16)
(0 -0 322.445)
(0 -0 -1444.61)
(0 -0 -3532.84)
(0 -0 -5259.56)
(0 -0 -6399.58)
(0 -0 -7074.14)
(0 -0 -7451.31)
(0 -0 -7641.65)
(0 -0 -7713.47)
(0 -0 -7711.08)
(0 -0 -7663.06)
(0 -0 -7587.51)
(0 -0 -7495.82)
(0 -0 -7395.27)
(0 -0 -7290.53)
(0 -0 -7184.62)
(0 -0 -7079.49)
(0 -0 -6976.37)
(0 -0 -6876.03)
(0 -0 -6778.91)
(0 -0 -6685.27)
(0 -0 -6595.19)
(0 -0 -6508.7)
(0 -0 -6425.74)
(0 -0 -6346.21)
(0 -0 -6270)
(0 -0 -6196.98)
(0 -0 -6127)
(0 -0 -6059.93)
(0 -0 -5995.63)
(0 -0 -5933.97)
(0 -0 -5874.82)
(0 -0 -5818.05)
(0 -0 -5763.55)
(0 -0 -5711.22)
(0 -0 -5660.94)
(0 -0 -5612.65)
(0 -0 -5566.21)
(0 -0 -5521.62)
(0 -0 -5478.66)
(0 -0 -5437.51)
(0 -0 -5397.66)
(0 -0 -5359.87)
(0 -0 -5322.51)
(0 -0 -5288.56)
(0 -0 -5251.96)
(0 -0 -5225.04)
(0 -0 -5182.11)
(0 -0 -5175.94)
(0 -0 -5121.66)
(0 -0 364.711)
(0 -0 -158.572)
(0 -0 -1181.67)
(0 -0 -2362.32)
(0 -0 -3417.83)
(0 -0 -4256.26)
(0 -0 -4891)
(0 -0 -5356.03)
(0 -0 -5686.52)
(0 -0 -5914.59)
(0 -0 -6066.6)
(0 -0 -6162.68)
(0 -0 -6217.78)
(0 -0 -6242.86)
(0 -0 -6245.98)
(0 -0 -6233.06)
(0 -0 -6208.49)
(0 -0 -6175.5)
(0 -0 -6136.53)
(0 -0 -6093.39)
(0 -0 -6047.44)
(0 -0 -5999.7)
(0 -0 -5950.96)
(0 -0 -5901.78)
(0 -0 -5852.62)
(0 -0 -5803.79)
(0 -0 -5755.55)
(0 -0 -5708.07)
(0 -0 -5661.48)
(0 -0 -5615.88)
(0 -0 -5571.32)
(0 -0 -5527.85)
(0 -0 -5485.48)
(0 -0 -5444.24)
(0 -0 -5404.12)
(0 -0 -5365.1)
(0 -0 -5327.22)
(0 -0 -5290.37)
(0 -0 -5254.71)
(0 -0 -5219.9)
(0 -0 -5186.52)
(0 -0 -5153.46)
(0 -0 -5122.68)
(0 -0 -5090.63)
(0 -0 -5063.68)
(0 -0 -5030.25)
(0 -0 -5011.7)
(0 -0 -4969.16)
(0 -0 -4971.89)
(0 -0 -4915.74)
(0 -0 254.024)
(0 -0 185.307)
(0 -0 -173.34)
(0 -0 -764.833)
(0 -0 -1447.9)
(0 -0 -2115.55)
(0 -0 -2720.41)
(0 -0 -3243)
(0 -0 -3679.24)
(0 -0 -4035)
(0 -0 -4320.61)
(0 -0 -4547.24)
(0 -0 -4725.27)
(0 -0 -4863.67)
(0 -0 -4969.96)
(0 -0 -5050.35)
(0 -0 -5109.85)
(0 -0 -5152.52)
(0 -0 -5181.62)
(0 -0 -5199.8)
(0 -0 -5209.15)
(0 -0 -5211.4)
(0 -0 -5207.92)
(0 -0 -5199.85)
(0 -0 -5188.08)
(0 -0 -5173.36)
(0 -0 -5156.31)
(0 -0 -5137.4)
(0 -0 -5117.05)
(0 -0 -5095.6)
(0 -0 -5073.3)
(0 -0 -5050.39)
(0 -0 -5027.06)
(0 -0 -5003.45)
(0 -0 -4979.69)
(0 -0 -4955.87)
(0 -0 -4932.13)
(0 -0 -4908.44)
(0 -0 -4885.05)
(0 -0 -4861.66)
(0 -0 -4839)
(0 -0 -4815.83)
(0 -0 -4794.53)
(0 -0 -4770.96)
(0 -0 -4752.58)
(0 -0 -4726.39)
(0 -0 -4715.39)
(0 -0 -4680.62)
(0 -0 -4685.55)
(0 -0 -4643.22)
(0 -0 178.744)
(0 -0 204.512)
(0 -0 130.657)
(0 -0 -85.2685)
(0 -0 -417.997)
(0 -0 -814.973)
(0 -0 -1236.26)
(0 -0 -1652.92)
(0 -0 -2045.09)
(0 -0 -2401.82)
(0 -0 -2718.92)
(0 -0 -2996.33)
(0 -0 -3236.28)
(0 -0 -3442.14)
(0 -0 -3617.64)
(0 -0 -3766.54)
(0 -0 -3892.35)
(0 -0 -3998.26)
(0 -0 -4087.07)
(0 -0 -4161.24)
(0 -0 -4222.88)
(0 -0 -4273.82)
(0 -0 -4315.6)
(0 -0 -4349.56)
(0 -0 -4376.82)
(0 -0 -4398.34)
(0 -0 -4414.94)
(0 -0 -4427.34)
(0 -0 -4436.12)
(0 -0 -4441.79)
(0 -0 -4444.79)
(0 -0 -4445.49)
(0 -0 -4444.21)
(0 -0 -4441.24)
(0 -0 -4436.79)
(0 -0 -4431.08)
(0 -0 -4424.3)
(0 -0 -4416.55)
(0 -0 -4408.12)
(0 -0 -4398.81)
(0 -0 -4389.35)
(0 -0 -4378.68)
(0 -0 -4369.03)
(0 -0 -4356.67)
(0 -0 -4348.45)
(0 -0 -4332.81)
(0 -0 -4329.71)
(0 -0 -4307.12)
(0 -0 -4314.06)
(0 -0 -4288.24)
(0 -0 148.016)
(0 -0 164.611)
(0 -0 169.994)
(0 -0 120.965)
(0 -0 0.992793)
(0 -0 -180.78)
(0 -0 -408.913)
(0 -0 -666.997)
(0 -0 -939.164)
(0 -0 -1212.49)
(0 -0 -1477.75)
(0 -0 -1728.98)
(0 -0 -1962.7)
(0 -0 -2177.26)
(0 -0 -2372.3)
(0 -0 -2548.27)
(0 -0 -2706.17)
(0 -0 -2847.26)
(0 -0 -2972.93)
(0 -0 -3084.6)
(0 -0 -3183.63)
(0 -0 -3271.32)
(0 -0 -3348.86)
(0 -0 -3417.36)
(0 -0 -3477.79)
(0 -0 -3531.04)
(0 -0 -3577.92)
(0 -0 -3619.11)
(0 -0 -3655.25)
(0 -0 -3686.9)
(0 -0 -3714.54)
(0 -0 -3738.6)
(0 -0 -3759.46)
(0 -0 -3777.48)
(0 -0 -3792.92)
(0 -0 -3806.08)
(0 -0 -3817.18)
(0 -0 -3826.4)
(0 -0 -3834.04)
(0 -0 -3840.03)
(0 -0 -3845)
(0 -0 -3848.2)
(0 -0 -3851.45)
(0 -0 -3851.85)
(0 -0 -3854.89)
(0 -0 -3851.59)
(0 -0 -3857.32)
(0 -0 -3848.43)
(0 -0 -3859.75)
(0 -0 -3849.75)
(0 -0 136.825)
(0 -0 137.072)
(0 -0 148.742)
(0 -0 149.683)
(0 -0 122.18)
(0 -0 60.0878)
(0 -0 -36.3782)
(0 -0 -163.518)
(0 -0 -314.937)
(0 -0 -483.296)
(0 -0 -661.67)
(0 -0 -844.153)
(0 -0 -1026.02)
(0 -0 -1203.7)
(0 -0 -1374.67)
(0 -0 -1537.23)
(0 -0 -1690.39)
(0 -0 -1833.67)
(0 -0 -1966.95)
(0 -0 -2090.39)
(0 -0 -2204.32)
(0 -0 -2309.2)
(0 -0 -2405.56)
(0 -0 -2493.94)
(0 -0 -2574.91)
(0 -0 -2649.02)
(0 -0 -2716.81)
(0 -0 -2778.78)
(0 -0 -2835.42)
(0 -0 -2887.17)
(0 -0 -2934.43)
(0 -0 -2977.6)
(0 -0 -3017)
(0 -0 -3052.96)
(0 -0 -3085.74)
(0 -0 -3115.64)
(0 -0 -3142.87)
(0 -0 -3167.65)
(0 -0 -3190.21)
(0 -0 -3210.62)
(0 -0 -3229.35)
(0 -0 -3245.95)
(0 -0 -3261.76)
(0 -0 -3274.75)
(0 -0 -3289)
(0 -0 -3298.03)
(0 -0 -3312.97)
(0 -0 -3317.35)
(0 -0 -3334.76)
(0 -0 -3339.09)
(0 -0 129.946)
(0 -0 124)
(0 -0 129.186)
(0 -0 136.389)
(0 -0 136.473)
(0 -0 123.196)
(0 -0 92.9204)
(0 -0 43.8173)
(0 -0 -23.9202)
(0 -0 -108.433)
(0 -0 -206.928)
(0 -0 -316.259)
(0 -0 -433.281)
(0 -0 -555.094)
(0 -0 -679.171)
(0 -0 -803.409)
(0 -0 -926.126)
(0 -0 -1046.02)
(0 -0 -1162.14)
(0 -0 -1273.79)
(0 -0 -1380.54)
(0 -0 -1482.13)
(0 -0 -1578.42)
(0 -0 -1669.42)
(0 -0 -1755.21)
(0 -0 -1835.91)
(0 -0 -1911.72)
(0 -0 -1982.83)
(0 -0 -2049.46)
(0 -0 -2111.87)
(0 -0 -2170.27)
(0 -0 -2224.9)
(0 -0 -2275.97)
(0 -0 -2323.73)
(0 -0 -2368.34)
(0 -0 -2410.03)
(0 -0 -2448.96)
(0 -0 -2485.32)
(0 -0 -2519.28)
(0 -0 -2550.93)
(0 -0 -2580.61)
(0 -0 -2608.06)
(0 -0 -2634.24)
(0 -0 -2657.77)
(0 -0 -2681.55)
(0 -0 -2701.14)
(0 -0 -2724.26)
(0 -0 -2739.95)
(0 -0 -2763.54)
(0 -0 -2779.71)
(0 -0 122.957)
(0 -0 116.649)
(0 -0 118.018)
(0 -0 122.495)
(0 -0 126.436)
(0 -0 126.9)
(0 -0 121.414)
(0 -0 107.683)
(0 -0 84.0805)
(0 -0 49.9148)
(0 -0 5.29702)
(0 -0 -49.0489)
(0 -0 -111.988)
(0 -0 -182.15)
(0 -0 -258.081)
(0 -0 -338.352)
(0 -0 -421.625)
(0 -0 -506.703)
(0 -0 -592.544)
(0 -0 -678.266)
(0 -0 -763.14)
(0 -0 -846.578)
(0 -0 -928.118)
(0 -0 -1007.41)
(0 -0 -1084.19)
(0 -0 -1158.27)
(0 -0 -1229.55)
(0 -0 -1297.96)
(0 -0 -1363.48)
(0 -0 -1426.13)
(0 -0 -1485.94)
(0 -0 -1542.99)
(0 -0 -1597.33)
(0 -0 -1649.06)
(0 -0 -1698.25)
(0 -0 -1745.02)
(0 -0 -1789.44)
(0 -0 -1831.63)
(0 -0 -1871.68)
(0 -0 -1909.65)
(0 -0 -1945.76)
(0 -0 -1979.84)
(0 -0 -2012.56)
(0 -0 -2042.99)
(0 -0 -2073.13)
(0 -0 -2100)
(0 -0 -2128.78)
(0 -0 -2152.55)
(0 -0 -2180.76)
(0 -0 -2205.23)
(0 -0 115.637)
(0 -0 110.419)
(0 -0 110.737)
(0 -0 113.176)
(0 -0 115.987)
(0 -0 118.242)
(0 -0 119.111)
(0 -0 117.391)
(0 -0 111.805)
(0 -0 101.308)
(0 -0 85.1877)
(0 -0 63.0802)
(0 -0 34.9396)
(0 -0 0.991378)
(0 -0 -38.3335)
(0 -0 -82.4647)
(0 -0 -130.751)
(0 -0 -182.508)
(0 -0 -237.056)
(0 -0 -293.744)
(0 -0 -351.968)
(0 -0 -411.181)
(0 -0 -470.897)
(0 -0 -530.691)
(0 -0 -590.201)
(0 -0 -649.118)
(0 -0 -707.187)
(0 -0 -764.201)
(0 -0 -819.994)
(0 -0 -874.439)
(0 -0 -927.434)
(0 -0 -978.915)
(0 -0 -1028.83)
(0 -0 -1077.15)
(0 -0 -1123.85)
(0 -0 -1168.95)
(0 -0 -1212.43)
(0 -0 -1254.33)
(0 -0 -1294.67)
(0 -0 -1333.45)
(0 -0 -1370.8)
(0 -0 -1406.57)
(0 -0 -1441.2)
(0 -0 -1474.06)
(0 -0 -1506.48)
(0 -0 -1536.54)
(0 -0 -1567.51)
(0 -0 -1595.34)
(0 -0 -1625.44)
(0 -0 -1654.07)
(0 -0 108.394)
(0 -0 104.202)
(0 -0 104.413)
(0 -0 106.121)
(0 -0 107.986)
(0 -0 109.693)
(0 -0 111.223)
(0 -0 112.23)
(0 -0 112.133)
(0 -0 110.305)
(0 -0 106.162)
(0 -0 99.2082)
(0 -0 89.0733)
(0 -0 75.5235)
(0 -0 58.4675)
(0 -0 37.9339)
(0 -0 14.0554)
(0 -0 -12.9555)
(0 -0 -42.829)
(0 -0 -75.2587)
(0 -0 -109.919)
(0 -0 -146.478)
(0 -0 -184.61)
(0 -0 -224.003)
(0 -0 -264.362)
(0 -0 -305.417)
(0 -0 -346.919)
(0 -0 -388.647)
(0 -0 -430.405)
(0 -0 -472.021)
(0 -0 -513.345)
(0 -0 -554.254)
(0 -0 -594.631)
(0 -0 -634.395)
(0 -0 -673.457)
(0 -0 -711.768)
(0 -0 -749.261)
(0 -0 -785.908)
(0 -0 -821.675)
(0 -0 -856.524)
(0 -0 -890.5)
(0 -0 -923.473)
(0 -0 -955.71)
(0 -0 -986.773)
(0 -0 -1017.49)
(0 -0 -1046.7)
(0 -0 -1076.31)
(0 -0 -1104.16)
(0 -0 -1133.1)
(0 -0 -1161.81)
(0 -0 101.416)
(0 -0 98.0121)
(0 -0 98.2377)
(0 -0 99.7108)
(0 -0 101.221)
(0 -0 102.489)
(0 -0 103.706)
(0 -0 104.884)
(0 -0 105.849)
(0 -0 106.356)
(0 -0 106.125)
(0 -0 104.86)
(0 -0 102.274)
(0 -0 98.1129)
(0 -0 92.1687)
(0 -0 84.2924)
(0 -0 74.3935)
(0 -0 62.4378)
(0 -0 48.442)
(0 -0 32.4661)
(0 -0 14.6053)
(0 -0 -5.01824)
(0 -0 -26.2626)
(0 -0 -48.9735)
(0 -0 -72.9888)
(0 -0 -98.1453)
(0 -0 -124.28)
(0 -0 -151.238)
(0 -0 -178.867)
(0 -0 -207.029)
(0 -0 -235.592)
(0 -0 -264.437)
(0 -0 -293.452)
(0 -0 -322.542)
(0 -0 -351.611)
(0 -0 -380.585)
(0 -0 -409.385)
(0 -0 -437.952)
(0 -0 -466.233)
(0 -0 -494.162)
(0 -0 -521.744)
(0 -0 -548.86)
(0 -0 -575.656)
(0 -0 -601.841)
(0 -0 -627.881)
(0 -0 -653.126)
(0 -0 -678.583)
(0 -0 -703.232)
(0 -0 -728.413)
(0 -0 -753.96)
(0 -0 94.7412)
(0 -0 91.9636)
(0 -0 92.1775)
(0 -0 93.5017)
(0 -0 94.8799)
(0 -0 95.9739)
(0 -0 96.9666)
(0 -0 97.9561)
(0 -0 98.9146)
(0 -0 99.7755)
(0 -0 100.45)
(0 -0 100.823)
(0 -0 100.756)
(0 -0 100.103)
(0 -0 98.7185)
(0 -0 96.4684)
(0 -0 93.2366)
(0 -0 88.9291)
(0 -0 83.4765)
(0 -0 76.8344)
(0 -0 68.983)
(0 -0 59.9234)
(0 -0 49.6785)
(0 -0 38.2863)
(0 -0 25.7995)
(0 -0 12.281)
(0 -0 -2.19704)
(0 -0 -17.5581)
(0 -0 -33.7212)
(0 -0 -50.6056)
(0 -0 -68.1288)
(0 -0 -86.2128)
(0 -0 -104.778)
(0 -0 -123.754)
(0 -0 -143.066)
(0 -0 -162.651)
(0 -0 -182.444)
(0 -0 -202.386)
(0 -0 -222.428)
(0 -0 -242.505)
(0 -0 -262.605)
(0 -0 -282.633)
(0 -0 -302.655)
(0 -0 -322.493)
(0 -0 -342.376)
(0 -0 -361.977)
(0 -0 -381.758)
(0 -0 -401.326)
(0 -0 -421.205)
(0 -0 -441.66)
(0 -0 88.3663)
(0 -0 86.1089)
(0 -0 86.3043)
(0 -0 87.479)
(0 -0 88.7587)
(0 -0 89.7733)
(0 -0 90.6592)
(0 -0 91.5201)
(0 -0 92.3603)
(0 -0 93.1658)
(0 -0 93.9213)
(0 -0 94.5987)
(0 -0 95.1529)
(0 -0 95.5259)
(0 -0 95.6502)
(0 -0 95.4535)
(0 -0 94.8628)
(0 -0 93.8077)
(0 -0 92.2236)
(0 -0 90.0543)
(0 -0 87.2529)
(0 -0 83.7834)
(0 -0 79.6202)
(0 -0 74.749)
(0 -0 69.1653)
(0 -0 62.874)
(0 -0 55.8883)
(0 -0 48.2288)
(0 -0 39.9221)
(0 -0 30.999)
(0 -0 21.4947)
(0 -0 11.4463)
(0 -0 0.893526)
(0 -0 -10.124)
(0 -0 -21.5651)
(0 -0 -33.3892)
(0 -0 -45.5566)
(0 -0 -58.0255)
(0 -0 -70.7628)
(0 -0 -83.7221)
(0 -0 -96.8862)
(0 -0 -110.194)
(0 -0 -123.667)
(0 -0 -137.21)
(0 -0 -150.913)
(0 -0 -164.637)
(0 -0 -178.549)
(0 -0 -192.557)
(0 -0 -206.802)
(0 -0 -221.615)
(0 -0 82.2904)
(0 -0 80.4661)
(0 -0 80.6516)
(0 -0 81.6814)
(0 -0 82.8575)
(0 -0 83.8065)
(0 -0 84.6241)
(0 -0 85.4072)
(0 -0 86.1642)
(0 -0 86.8889)
(0 -0 87.5837)
(0 -0 88.2485)
(0 -0 88.8753)
(0 -0 89.4483)
(0 -0 89.9452)
(0 -0 90.3382)
(0 -0 90.5952)
(0 -0 90.6813)
(0 -0 90.5602)
(0 -0 90.1958)
(0 -0 89.5534)
(0 -0 88.6007)
(0 -0 87.3091)
(0 -0 85.654)
(0 -0 83.6155)
(0 -0 81.1782)
(0 -0 78.332)
(0 -0 75.0711)
(0 -0 71.3946)
(0 -0 67.3051)
(0 -0 62.8092)
(0 -0 57.9166)
(0 -0 52.6392)
(0 -0 46.9917)
(0 -0 40.9899)
(0 -0 34.6523)
(0 -0 27.9963)
(0 -0 21.044)
(0 -0 13.8117)
(0 -0 6.32607)
(0 -0 -1.40229)
(0 -0 -9.33989)
(0 -0 -17.4891)
(0 -0 -25.8076)
(0 -0 -34.3177)
(0 -0 -42.9777)
(0 -0 -51.822)
(0 -0 -60.8715)
(0 -0 -70.1152)
(0 -0 -79.8242)
(0 -0 76.5139)
(0 -0 75.0466)
(0 -0 75.2313)
(0 -0 76.129)
(0 -0 77.1991)
(0 -0 78.0812)
(0 -0 78.8369)
(0 -0 79.5571)
(0 -0 80.2518)
(0 -0 80.9144)
(0 -0 81.5479)
(0 -0 82.1579)
(0 -0 82.7462)
(0 -0 83.3111)
(0 -0 83.848)
(0 -0 84.3493)
(0 -0 84.8049)
(0 -0 85.2022)
(0 -0 85.5263)
(0 -0 85.761)
(0 -0 85.8886)
(0 -0 85.8911)
(0 -0 85.7508)
(0 -0 85.45)
(0 -0 84.9727)
(0 -0 84.3038)
(0 -0 83.4303)
(0 -0 82.3413)
(0 -0 81.0277)
(0 -0 79.4829)
(0 -0 77.7022)
(0 -0 75.683)
(0 -0 73.4245)
(0 -0 70.9277)
(0 -0 68.1946)
(0 -0 65.2299)
(0 -0 62.0374)
(0 -0 58.6252)
(0 -0 54.9977)
(0 -0 51.1671)
(0 -0 47.1361)
(0 -0 42.92)
(0 -0 38.5213)
(0 -0 33.9533)
(0 -0 29.2181)
(0 -0 24.3176)
(0 -0 19.2623)
(0 -0 14.0073)
(0 -0 8.5971)
(0 -0 2.85762)
(0 -0 71.0368)
(0 -0 69.8607)
(0 -0 70.0504)
(0 -0 70.8305)
(0 -0 71.7964)
(0 -0 72.6114)
(0 -0 73.3069)
(0 -0 73.9672)
(0 -0 74.6056)
(0 -0 75.2148)
(0 -0 75.7963)
(0 -0 76.3554)
(0 -0 76.8955)
(0 -0 77.418)
(0 -0 77.923)
(0 -0 78.4096)
(0 -0 78.8759)
(0 -0 79.3189)
(0 -0 79.7342)
(0 -0 80.1164)
(0 -0 80.4589)
(0 -0 80.7543)
(0 -0 80.9945)
(0 -0 81.1709)
(0 -0 81.2746)
(0 -0 81.2968)
(0 -0 81.2289)
(0 -0 81.0629)
(0 -0 80.7912)
(0 -0 80.4073)
(0 -0 79.9053)
(0 -0 79.2803)
(0 -0 78.528)
(0 -0 77.6455)
(0 -0 76.6298)
(0 -0 75.4797)
(0 -0 74.1937)
(0 -0 72.7724)
(0 -0 71.2155)
(0 -0 69.5249)
(0 -0 67.7023)
(0 -0 65.7497)
(0 -0 63.6702)
(0 -0 61.4643)
(0 -0 59.1391)
(0 -0 56.6856)
(0 -0 54.1198)
(0 -0 51.4075)
(0 -0 48.5822)
(0 -0 45.5525)
(0 -0 65.8574)
(0 -0 64.9169)
(0 -0 65.1146)
(0 -0 65.7907)
(0 -0 66.6562)
(0 -0 67.4054)
(0 -0 68.0429)
(0 -0 68.6454)
(0 -0 69.2296)
(0 -0 69.7883)
(0 -0 70.3219)
(0 -0 70.8348)
(0 -0 71.3302)
(0 -0 71.8098)
(0 -0 72.2743)
(0 -0 72.7243)
(0 -0 73.1603)
(0 -0 73.582)
(0 -0 73.9889)
(0 -0 74.3799)
(0 -0 74.7532)
(0 -0 75.1068)
(0 -0 75.4379)
(0 -0 75.7431)
(0 -0 76.019)
(0 -0 76.2615)
(0 -0 76.4666)
(0 -0 76.6303)
(0 -0 76.7485)
(0 -0 76.8173)
(0 -0 76.8331)
(0 -0 76.7924)
(0 -0 76.6919)
(0 -0 76.5287)
(0 -0 76.3)
(0 -0 76.0033)
(0 -0 75.6363)
(0 -0 75.1973)
(0 -0 74.6845)
(0 -0 74.0969)
(0 -0 73.4339)
(0 -0 72.6943)
(0 -0 71.8795)
(0 -0 70.9867)
(0 -0 70.0204)
(0 -0 68.9733)
(0 -0 67.8547)
(0 -0 66.6467)
(0 -0 65.3682)
(0 -0 63.9764)
(0 -0 60.973)
(0 -0 60.2217)
(0 -0 60.428)
(0 -0 61.0127)
(0 -0 61.7828)
(0 -0 62.4679)
(0 -0 63.0502)
(0 -0 63.5976)
(0 -0 64.1294)
(0 -0 64.6397)
(0 -0 65.1275)
(0 -0 65.5967)
(0 -0 66.0501)
(0 -0 66.4893)
(0 -0 66.9149)
(0 -0 67.3276)
(0 -0 67.7279)
(0 -0 68.1166)
(0 -0 68.4938)
(0 -0 68.8599)
(0 -0 69.2146)
(0 -0 69.5578)
(0 -0 69.8889)
(0 -0 70.207)
(0 -0 70.5109)
(0 -0 70.7993)
(0 -0 71.0709)
(0 -0 71.3241)
(0 -0 71.5572)
(0 -0 71.7689)
(0 -0 71.9575)
(0 -0 72.1216)
(0 -0 72.2594)
(0 -0 72.3695)
(0 -0 72.4501)
(0 -0 72.4996)
(0 -0 72.5164)
(0 -0 72.4989)
(0 -0 72.4455)
(0 -0 72.3549)
(0 -0 72.226)
(0 -0 72.0576)
(0 -0 71.8494)
(0 -0 71.5998)
(0 -0 71.3095)
(0 -0 70.9766)
(0 -0 70.6014)
(0 -0 70.1822)
(0 -0 69.7188)
(0 -0 69.2067)
(0 -0 56.3798)
(0 -0 55.7792)
(0 -0 55.9932)
(0 -0 56.4981)
(0 -0 57.1782)
(0 -0 57.8014)
(0 -0 58.3315)
(0 -0 58.8267)
(0 -0 59.3085)
(0 -0 59.7723)
(0 -0 60.2164)
(0 -0 60.6438)
(0 -0 61.0574)
(0 -0 61.4582)
(0 -0 61.8469)
(0 -0 62.2239)
(0 -0 62.5899)
(0 -0 62.9452)
(0 -0 63.2905)
(0 -0 63.6262)
(0 -0 63.9526)
(0 -0 64.2699)
(0 -0 64.5781)
(0 -0 64.8772)
(0 -0 65.167)
(0 -0 65.4472)
(0 -0 65.7174)
(0 -0 65.9774)
(0 -0 66.2267)
(0 -0 66.4652)
(0 -0 66.6925)
(0 -0 66.9083)
(0 -0 67.1122)
(0 -0 67.3037)
(0 -0 67.4822)
(0 -0 67.6469)
(0 -0 67.7969)
(0 -0 67.9315)
(0 -0 68.0495)
(0 -0 68.1504)
(0 -0 68.233)
(0 -0 68.297)
(0 -0 68.3411)
(0 -0 68.3661)
(0 -0 68.3692)
(0 -0 68.354)
(0 -0 68.3138)
(0 -0 68.2583)
(0 -0 68.1738)
(0 -0 68.0787)
(0 -0 52.0725)
(0 -0 51.5912)
(0 -0 51.8109)
(0 -0 52.2462)
(0 -0 52.8428)
(0 -0 53.4063)
(0 -0 53.8871)
(0 -0 54.3333)
(0 -0 54.7677)
(0 -0 55.1873)
(0 -0 55.5898)
(0 -0 55.9777)
(0 -0 56.3533)
(0 -0 56.7177)
(0 -0 57.0713)
(0 -0 57.4145)
(0 -0 57.7477)
(0 -0 58.0713)
(0 -0 58.3859)
(0 -0 58.6917)
(0 -0 58.9892)
(0 -0 59.2787)
(0 -0 59.5603)
(0 -0 59.8342)
(0 -0 60.1003)
(0 -0 60.3587)
(0 -0 60.6093)
(0 -0 60.8524)
(0 -0 61.0881)
(0 -0 61.3166)
(0 -0 61.5382)
(0 -0 61.7531)
(0 -0 61.9615)
(0 -0 62.1635)
(0 -0 62.359)
(0 -0 62.5478)
(0 -0 62.7296)
(0 -0 62.904)
(0 -0 63.0705)
(0 -0 63.2289)
(0 -0 63.3783)
(0 -0 63.5192)
(0 -0 63.6497)
(0 -0 63.7724)
(0 -0 63.8825)
(0 -0 63.9874)
(0 -0 64.0756)
(0 -0 64.1643)
(0 -0 64.2304)
(0 -0 64.3071)
(0 -0 48.0447)
(0 -0 47.6576)
(0 -0 47.8799)
(0 -0 48.255)
(0 -0 48.7747)
(0 -0 49.2811)
(0 -0 49.7156)
(0 -0 50.1159)
(0 -0 50.5057)
(0 -0 50.8836)
(0 -0 51.2469)
(0 -0 51.5972)
(0 -0 51.937)
(0 -0 52.267)
(0 -0 52.5874)
(0 -0 52.8986)
(0 -0 53.2008)
(0 -0 53.4944)
(0 -0 53.7798)
(0 -0 54.0573)
(0 -0 54.3273)
(0 -0 54.5899)
(0 -0 54.8455)
(0 -0 55.0939)
(0 -0 55.3355)
(0 -0 55.5701)
(0 -0 55.7979)
(0 -0 56.0192)
(0 -0 56.2342)
(0 -0 56.4434)
(0 -0 56.6473)
(0 -0 56.8463)
(0 -0 57.0407)
(0 -0 57.231)
(0 -0 57.4173)
(0 -0 57.5996)
(0 -0 57.7777)
(0 -0 57.9517)
(0 -0 58.1211)
(0 -0 58.2862)
(0 -0 58.446)
(0 -0 58.6017)
(0 -0 58.7509)
(0 -0 58.8976)
(0 -0 59.0353)
(0 -0 59.1741)
(0 -0 59.2994)
(0 -0 59.4332)
(0 -0 59.5455)
(0 -0 59.6798)
(0 -0 44.289)
(0 -0 43.976)
(0 -0 44.1975)
(0 -0 44.5204)
(0 -0 44.9703)
(0 -0 45.4224)
(0 -0 45.8135)
(0 -0 46.1713)
(0 -0 46.5193)
(0 -0 46.8579)
(0 -0 47.1843)
(0 -0 47.4996)
(0 -0 47.8056)
(0 -0 48.1032)
(0 -0 48.3925)
(0 -0 48.6736)
(0 -0 48.9466)
(0 -0 49.2119)
(0 -0 49.4698)
(0 -0 49.7206)
(0 -0 49.9646)
(0 -0 50.2019)
(0 -0 50.4327)
(0 -0 50.657)
(0 -0 50.875)
(0 -0 51.0866)
(0 -0 51.292)
(0 -0 51.4914)
(0 -0 51.6852)
(0 -0 51.8739)
(0 -0 52.058)
(0 -0 52.2381)
(0 -0 52.4145)
(0 -0 52.5878)
(0 -0 52.758)
(0 -0 52.9253)
(0 -0 53.0897)
(0 -0 53.2512)
(0 -0 53.4094)
(0 -0 53.5648)
(0 -0 53.7162)
(0 -0 53.8655)
(0 -0 54.0097)
(0 -0 54.1535)
(0 -0 54.2897)
(0 -0 54.4297)
(0 -0 54.5571)
(0 -0 54.6967)
(0 -0 54.814)
(0 -0 54.9591)
(0 -0 40.7966)
(0 -0 40.5421)
(0 -0 40.7589)
(0 -0 41.037)
(0 -0 41.4241)
(0 -0 41.825)
(0 -0 42.1755)
(0 -0 42.494)
(0 -0 42.8032)
(0 -0 43.1052)
(0 -0 43.3971)
(0 -0 43.6796)
(0 -0 43.9541)
(0 -0 44.2215)
(0 -0 44.4817)
(0 -0 44.7346)
(0 -0 44.9803)
(0 -0 45.2191)
(0 -0 45.4513)
(0 -0 45.677)
(0 -0 45.8966)
(0 -0 46.1101)
(0 -0 46.3177)
(0 -0 46.5194)
(0 -0 46.7152)
(0 -0 46.9051)
(0 -0 47.0892)
(0 -0 47.2679)
(0 -0 47.4415)
(0 -0 47.6104)
(0 -0 47.7754)
(0 -0 47.9368)
(0 -0 48.0952)
(0 -0 48.251)
(0 -0 48.4044)
(0 -0 48.5555)
(0 -0 48.7042)
(0 -0 48.8507)
(0 -0 48.9944)
(0 -0 49.1361)
(0 -0 49.2743)
(0 -0 49.4112)
(0 -0 49.5435)
(0 -0 49.6764)
(0 -0 49.8023)
(0 -0 49.933)
(0 -0 50.0512)
(0 -0 50.1832)
(0 -0 50.2916)
(0 -0 50.4309)
(0 -0 37.5577)
(0 -0 37.3498)
(0 -0 37.5583)
(0 -0 37.7976)
(0 -0 38.1289)
(0 -0 38.4819)
(0 -0 38.7946)
(0 -0 39.0771)
(0 -0 39.3504)
(0 -0 39.6183)
(0 -0 39.8783)
(0 -0 40.1303)
(0 -0 40.3757)
(0 -0 40.615)
(0 -0 40.848)
(0 -0 41.0748)
(0 -0 41.2951)
(0 -0 41.5093)
(0 -0 41.7175)
(0 -0 41.9199)
(0 -0 42.1168)
(0 -0 42.3081)
(0 -0 42.4941)
(0 -0 42.6746)
(0 -0 42.8496)
(0 -0 43.0192)
(0 -0 43.1835)
(0 -0 43.3428)
(0 -0 43.4974)
(0 -0 43.6478)
(0 -0 43.7947)
(0 -0 43.9387)
(0 -0 44.0801)
(0 -0 44.2193)
(0 -0 44.3566)
(0 -0 44.4921)
(0 -0 44.6256)
(0 -0 44.7574)
(0 -0 44.8867)
(0 -0 45.0143)
(0 -0 45.1389)
(0 -0 45.2625)
(0 -0 45.3819)
(0 -0 45.5024)
(0 -0 45.6159)
(0 -0 45.7349)
(0 -0 45.8413)
(0 -0 45.9621)
(0 -0 46.0583)
(0 -0 46.187)
(0 -0 34.5619)
(0 -0 34.3915)
(0 -0 34.5878)
(0 -0 34.7938)
(0 -0 35.0758)
(0 -0 35.3845)
(0 -0 35.6621)
(0 -0 35.9117)
(0 -0 36.1523)
(0 -0 36.3887)
(0 -0 36.6192)
(0 -0 36.8431)
(0 -0 37.0616)
(0 -0 37.2749)
(0 -0 37.483)
(0 -0 37.6856)
(0 -0 37.8825)
(0 -0 38.0739)
(0 -0 38.2599)
(0 -0 38.4408)
(0 -0 38.6165)
(0 -0 38.7874)
(0 -0 38.9532)
(0 -0 39.1141)
(0 -0 39.2699)
(0 -0 39.4207)
(0 -0 39.5665)
(0 -0 39.7077)
(0 -0 39.8447)
(0 -0 39.978)
(0 -0 40.1081)
(0 -0 40.2358)
(0 -0 40.3614)
(0 -0 40.4853)
(0 -0 40.6077)
(0 -0 40.7287)
(0 -0 40.848)
(0 -0 40.9659)
(0 -0 41.0817)
(0 -0 41.1961)
(0 -0 41.3078)
(0 -0 41.4188)
(0 -0 41.5258)
(0 -0 41.634)
(0 -0 41.7357)
(0 -0 41.8429)
(0 -0 41.9376)
(0 -0 42.047)
(0 -0 42.131)
(0 -0 42.2481)
(0 -0 31.7975)
(0 -0 31.6577)
(0 -0 31.8388)
(0 -0 32.0165)
(0 -0 32.2554)
(0 -0 32.5235)
(0 -0 32.7687)
(0 -0 32.9883)
(0 -0 33.1989)
(0 -0 33.4066)
(0 -0 33.6099)
(0 -0 33.8081)
(0 -0 34.0019)
(0 -0 34.1914)
(0 -0 34.3766)
(0 -0 34.5569)
(0 -0 34.7323)
(0 -0 34.9028)
(0 -0 35.0684)
(0 -0 35.2294)
(0 -0 35.3858)
(0 -0 35.5377)
(0 -0 35.6851)
(0 -0 35.8278)
(0 -0 35.9659)
(0 -0 36.0993)
(0 -0 36.2281)
(0 -0 36.3526)
(0 -0 36.4733)
(0 -0 36.5907)
(0 -0 36.7054)
(0 -0 36.8181)
(0 -0 36.9291)
(0 -0 37.0389)
(0 -0 37.1476)
(0 -0 37.2552)
(0 -0 37.3615)
(0 -0 37.4667)
(0 -0 37.5701)
(0 -0 37.6723)
(0 -0 37.7721)
(0 -0 37.8713)
(0 -0 37.9669)
(0 -0 38.0639)
(0 -0 38.1545)
(0 -0 38.2507)
(0 -0 38.3346)
(0 -0 38.433)
(0 -0 38.5059)
(0 -0 38.612)
(0 -0 29.2527)
(0 -0 29.1379)
(0 -0 29.3018)
(0 -0 29.4557)
(0 -0 29.6573)
(0 -0 29.8883)
(0 -0 30.1036)
(0 -0 30.2961)
(0 -0 30.4796)
(0 -0 30.6609)
(0 -0 30.8394)
(0 -0 31.0141)
(0 -0 31.1853)
(0 -0 31.3532)
(0 -0 31.5174)
(0 -0 31.6775)
(0 -0 31.8332)
(0 -0 31.9845)
(0 -0 32.1315)
(0 -0 32.2743)
(0 -0 32.413)
(0 -0 32.5476)
(0 -0 32.678)
(0 -0 32.8042)
(0 -0 32.926)
(0 -0 33.0434)
(0 -0 33.1565)
(0 -0 33.2658)
(0 -0 33.3715)
(0 -0 33.4743)
(0 -0 33.5749)
(0 -0 33.6738)
(0 -0 33.7716)
(0 -0 33.8685)
(0 -0 33.9646)
(0 -0 34.06)
(0 -0 34.1544)
(0 -0 34.248)
(0 -0 34.3401)
(0 -0 34.4312)
(0 -0 34.5201)
(0 -0 34.6087)
(0 -0 34.6938)
(0 -0 34.7804)
(0 -0 34.8611)
(0 -0 34.9471)
(0 -0 35.0213)
(0 -0 35.1095)
(0 -0 35.1726)
(0 -0 35.2683)
(0 -0 26.9149)
(0 -0 26.8204)
(0 -0 26.9664)
(0 -0 27.1)
(0 -0 27.2697)
(0 -0 27.4673)
(0 -0 27.6552)
(0 -0 27.8231)
(0 -0 27.9822)
(0 -0 28.1396)
(0 -0 28.2955)
(0 -0 28.4489)
(0 -0 28.5997)
(0 -0 28.748)
(0 -0 28.8931)
(0 -0 29.0348)
(0 -0 29.1727)
(0 -0 29.3066)
(0 -0 29.4367)
(0 -0 29.5629)
(0 -0 29.6855)
(0 -0 29.8043)
(0 -0 29.9193)
(0 -0 30.0303)
(0 -0 30.1372)
(0 -0 30.2401)
(0 -0 30.3389)
(0 -0 30.4342)
(0 -0 30.5263)
(0 -0 30.6158)
(0 -0 30.7035)
(0 -0 30.7899)
(0 -0 30.8755)
(0 -0 30.9607)
(0 -0 31.0454)
(0 -0 31.1298)
(0 -0 31.2135)
(0 -0 31.2966)
(0 -0 31.3784)
(0 -0 31.4594)
(0 -0 31.5385)
(0 -0 31.6174)
(0 -0 31.6932)
(0 -0 31.7704)
(0 -0 31.842)
(0 -0 31.9188)
(0 -0 31.9843)
(0 -0 32.0633)
(0 -0 32.1177)
(0 -0 32.2039)
(0 -0 24.7713)
(0 -0 24.6932)
(0 -0 24.8214)
(0 -0 24.9376)
(0 -0 25.0799)
(0 -0 25.2479)
(0 -0 25.4108)
(0 -0 25.5567)
(0 -0 25.6938)
(0 -0 25.8297)
(0 -0 25.9653)
(0 -0 26.0994)
(0 -0 26.2318)
(0 -0 26.3623)
(0 -0 26.4904)
(0 -0 26.6154)
(0 -0 26.7372)
(0 -0 26.8554)
(0 -0 26.9702)
(0 -0 27.0815)
(0 -0 27.1895)
(0 -0 27.294)
(0 -0 27.395)
(0 -0 27.4923)
(0 -0 27.5857)
(0 -0 27.6754)
(0 -0 27.7613)
(0 -0 27.8438)
(0 -0 27.9235)
(0 -0 28.001)
(0 -0 28.077)
(0 -0 28.1521)
(0 -0 28.2268)
(0 -0 28.3013)
(0 -0 28.3758)
(0 -0 28.4502)
(0 -0 28.5243)
(0 -0 28.5979)
(0 -0 28.6704)
(0 -0 28.7424)
(0 -0 28.8127)
(0 -0 28.8829)
(0 -0 28.9503)
(0 -0 29.019)
(0 -0 29.0826)
(0 -0 29.1511)
(0 -0 29.2088)
(0 -0 29.2795)
(0 -0 29.3264)
(0 -0 29.4038)
(0 -0 22.8088)
(0 -0 22.7441)
(0 -0 22.8551)
(0 -0 22.9563)
(0 -0 23.0753)
(0 -0 23.2171)
(0 -0 23.3574)
(0 -0 23.4834)
(0 -0 23.601)
(0 -0 23.7177)
(0 -0 23.8349)
(0 -0 23.9518)
(0 -0 24.0678)
(0 -0 24.1824)
(0 -0 24.2951)
(0 -0 24.4053)
(0 -0 24.5125)
(0 -0 24.6167)
(0 -0 24.7177)
(0 -0 24.8156)
(0 -0 24.9105)
(0 -0 25.0022)
(0 -0 25.0906)
(0 -0 25.1755)
(0 -0 25.2568)
(0 -0 25.3345)
(0 -0 25.4087)
(0 -0 25.4798)
(0 -0 25.5483)
(0 -0 25.6149)
(0 -0 25.6803)
(0 -0 25.7453)
(0 -0 25.8101)
(0 -0 25.8752)
(0 -0 25.9405)
(0 -0 26.006)
(0 -0 26.0714)
(0 -0 26.1365)
(0 -0 26.2009)
(0 -0 26.2648)
(0 -0 26.3273)
(0 -0 26.3897)
(0 -0 26.4496)
(0 -0 26.5108)
(0 -0 26.5672)
(0 -0 26.6283)
(0 -0 26.6792)
(0 -0 26.7423)
(0 -0 26.7828)
(0 -0 26.8523)
(0 -0 21.0146)
(0 -0 20.9606)
(0 -0 21.0555)
(0 -0 21.1435)
(0 -0 21.2429)
(0 -0 21.3618)
(0 -0 21.4817)
(0 -0 21.5899)
(0 -0 21.6902)
(0 -0 21.7898)
(0 -0 21.8906)
(0 -0 21.9921)
(0 -0 22.0933)
(0 -0 22.1938)
(0 -0 22.2928)
(0 -0 22.3898)
(0 -0 22.4841)
(0 -0 22.5758)
(0 -0 22.6645)
(0 -0 22.7505)
(0 -0 22.8336)
(0 -0 22.9138)
(0 -0 22.991)
(0 -0 23.0648)
(0 -0 23.1353)
(0 -0 23.2022)
(0 -0 23.2659)
(0 -0 23.3267)
(0 -0 23.3851)
(0 -0 23.442)
(0 -0 23.498)
(0 -0 23.5538)
(0 -0 23.6098)
(0 -0 23.6665)
(0 -0 23.7236)
(0 -0 23.7812)
(0 -0 23.8389)
(0 -0 23.8966)
(0 -0 23.9537)
(0 -0 24.0105)
(0 -0 24.066)
(0 -0 24.1215)
(0 -0 24.1748)
(0 -0 24.2293)
(0 -0 24.2795)
(0 -0 24.3339)
(0 -0 24.379)
(0 -0 24.4353)
(0 -0 24.4703)
(0 -0 24.5327)
(0 -0 19.3758)
(0 -0 19.3304)
(0 -0 19.4106)
(0 -0 19.4869)
(0 -0 19.5697)
(0 -0 19.6687)
(0 -0 19.7704)
(0 -0 19.8626)
(0 -0 19.9477)
(0 -0 20.0321)
(0 -0 20.1184)
(0 -0 20.2061)
(0 -0 20.2943)
(0 -0 20.3823)
(0 -0 20.4692)
(0 -0 20.5544)
(0 -0 20.6374)
(0 -0 20.7178)
(0 -0 20.7957)
(0 -0 20.8711)
(0 -0 20.9438)
(0 -0 21.0138)
(0 -0 21.0809)
(0 -0 21.1449)
(0 -0 21.2056)
(0 -0 21.263)
(0 -0 21.3173)
(0 -0 21.3688)
(0 -0 21.4183)
(0 -0 21.4664)
(0 -0 21.514)
(0 -0 21.5617)
(0 -0 21.61)
(0 -0 21.6591)
(0 -0 21.7091)
(0 -0 21.7597)
(0 -0 21.8106)
(0 -0 21.8617)
(0 -0 21.9124)
(0 -0 21.9629)
(0 -0 22.0123)
(0 -0 22.0618)
(0 -0 22.1093)
(0 -0 22.158)
(0 -0 22.2027)
(0 -0 22.2513)
(0 -0 22.2912)
(0 -0 22.3416)
(0 -0 22.372)
(0 -0 22.4281)
(0 -0 17.8798)
(0 -0 17.8412)
(0 -0 17.9083)
(0 -0 17.9742)
(0 -0 18.043)
(0 -0 18.125)
(0 -0 18.2103)
(0 -0 18.2884)
(0 -0 18.3601)
(0 -0 18.4311)
(0 -0 18.5044)
(0 -0 18.58)
(0 -0 18.6568)
(0 -0 18.7337)
(0 -0 18.8099)
(0 -0 18.8848)
(0 -0 18.9577)
(0 -0 19.0283)
(0 -0 19.0966)
(0 -0 19.1626)
(0 -0 19.2261)
(0 -0 19.2871)
(0 -0 19.3453)
(0 -0 19.4006)
(0 -0 19.4527)
(0 -0 19.5015)
(0 -0 19.5474)
(0 -0 19.5908)
(0 -0 19.6322)
(0 -0 19.6726)
(0 -0 19.7127)
(0 -0 19.7532)
(0 -0 19.7947)
(0 -0 19.8372)
(0 -0 19.8808)
(0 -0 19.9253)
(0 -0 19.9704)
(0 -0 20.0157)
(0 -0 20.0608)
(0 -0 20.1058)
(0 -0 20.1499)
(0 -0 20.1941)
(0 -0 20.2366)
(0 -0 20.2801)
(0 -0 20.3202)
(0 -0 20.3637)
(0 -0 20.3993)
(0 -0 20.4443)
(0 -0 20.471)
(0 -0 20.5213)
(0 -0 16.5145)
(0 -0 16.4813)
(0 -0 16.537)
(0 -0 16.5934)
(0 -0 16.6506)
(0 -0 16.7179)
(0 -0 16.7889)
(0 -0 16.8543)
(0 -0 16.9141)
(0 -0 16.9734)
(0 -0 17.0354)
(0 -0 17.1002)
(0 -0 17.1669)
(0 -0 17.2341)
(0 -0 17.301)
(0 -0 17.3668)
(0 -0 17.4309)
(0 -0 17.4929)
(0 -0 17.5528)
(0 -0 17.6105)
(0 -0 17.6659)
(0 -0 17.7189)
(0 -0 17.7694)
(0 -0 17.8169)
(0 -0 17.8614)
(0 -0 17.9027)
(0 -0 17.9411)
(0 -0 17.9772)
(0 -0 18.0116)
(0 -0 18.0451)
(0 -0 18.0786)
(0 -0 18.1128)
(0 -0 18.1482)
(0 -0 18.1849)
(0 -0 18.223)
(0 -0 18.2622)
(0 -0 18.3021)
(0 -0 18.3425)
(0 -0 18.3827)
(0 -0 18.423)
(0 -0 18.4625)
(0 -0 18.5022)
(0 -0 18.5403)
(0 -0 18.5794)
(0 -0 18.6154)
(0 -0 18.6545)
(0 -0 18.6864)
(0 -0 18.7269)
(0 -0 18.7504)
(0 -0 18.7957)
(0 -0 15.2683)
(0 -0 15.2394)
(0 -0 15.2853)
(0 -0 15.3333)
(0 -0 15.3805)
(0 -0 15.4354)
(0 -0 15.4937)
(0 -0 15.548)
(0 -0 15.5973)
(0 -0 15.6463)
(0 -0 15.6983)
(0 -0 15.7538)
(0 -0 15.8115)
(0 -0 15.8703)
(0 -0 15.9291)
(0 -0 15.9869)
(0 -0 16.0433)
(0 -0 16.0978)
(0 -0 16.1503)
(0 -0 16.2008)