/*--------------------------------*- C++ -*----------------------------------*\
  =========                 |
  \\      /  F ield         | OpenFOAM: The Open Source CFD Toolbox
   \\    /   O peration     | Website:  https://openfoam.org
    \\  /    A nd           | Version:  7
     \\/     M anipulation  |
\*---------------------------------------------------------------------------*/
FoamFile
{
    version     2.0;
    format      ascii;
    class       volScalarField;
    location    "0.48";
    object      k_0;
}
// * * * * * * * * * * * * * * * * * * * * * * * * * * * * * * * * * * * * * //

dimensions      [0 2 -2 0 0 0 0];

internalField   nonuniform List<scalar> 
70000
(
1.08549e-05
4.21878e-06
2.82437e-06
2.31677e-06
1.99749e-06
1.75713e-06
1.56523e-06
1.40834e-06
1.27764e-06
1.16692e-06
1.07209e-06
9.90027e-07
9.18575e-07
8.55842e-07
8.00558e-07
7.51439e-07
7.07684e-07
6.68399e-07
6.33074e-07
6.01098e-07
5.72117e-07
5.45715e-07
5.21605e-07
4.9953e-07
4.79217e-07
4.6055e-07
4.43251e-07
4.27295e-07
4.12428e-07
3.98656e-07
3.85784e-07
3.73803e-07
3.62571e-07
3.52114e-07
3.42183e-07
3.33121e-07
3.2413e-07
3.16445e-07
3.08057e-07
3.01723e-07
2.93748e-07
2.8864e-07
2.80929e-07
2.7753e-07
2.69621e-07
2.68965e-07
2.6111e-07
2.69573e-07
2.6475e-07
3.16209e-07
1.72795e-05
1.13673e-05
8.52059e-06
7.01031e-06
6.03719e-06
5.31082e-06
4.73157e-06
4.25778e-06
3.86301e-06
3.52861e-06
3.2422e-06
2.99438e-06
2.77857e-06
2.58907e-06
2.42205e-06
2.27364e-06
2.14142e-06
2.02269e-06
1.91591e-06
1.81925e-06
1.73164e-06
1.65182e-06
1.57891e-06
1.51216e-06
1.45074e-06
1.39427e-06
1.34196e-06
1.29367e-06
1.24873e-06
1.20701e-06
1.16811e-06
1.13181e-06
1.09786e-06
1.06619e-06
1.03613e-06
1.00872e-06
9.81458e-07
9.58226e-07
9.32808e-07
9.13602e-07
8.89509e-07
8.73962e-07
8.50632e-07
8.39907e-07
8.16357e-07
8.11719e-07
7.90091e-07
8.04586e-07
8.03007e-07
8.53814e-07
1.93701e-05
1.61297e-05
1.32912e-05
1.12895e-05
9.82851e-06
8.69584e-06
7.77844e-06
7.02058e-06
6.38452e-06
5.843e-06
5.37753e-06
4.97355e-06
4.62088e-06
4.31051e-06
4.03642e-06
3.79239e-06
3.57462e-06
3.37878e-06
3.20242e-06
3.04261e-06
2.89758e-06
2.76534e-06
2.64446e-06
2.53364e-06
2.43167e-06
2.33774e-06
2.25084e-06
2.17033e-06
2.09562e-06
2.02595e-06
1.96125e-06
1.90055e-06
1.84399e-06
1.79104e-06
1.74084e-06
1.69504e-06
1.64944e-06
1.61054e-06
1.56813e-06
1.53571e-06
1.49572e-06
1.46924e-06
1.43058e-06
1.41158e-06
1.37298e-06
1.36172e-06
1.32708e-06
1.33444e-06
1.36004e-06
1.37973e-06
1.9861e-05
1.826e-05
1.60858e-05
1.42002e-05
1.26403e-05
1.13485e-05
1.0261e-05
9.33846e-06
8.54756e-06
7.86398e-06
7.26999e-06
6.74984e-06
6.29237e-06
5.88714e-06
5.52725e-06
5.20511e-06
4.91629e-06
4.65548e-06
4.41978e-06
4.20553e-06
4.01056e-06
3.83228e-06
3.669e-06
3.51884e-06
3.38059e-06
3.25269e-06
3.13453e-06
3.02439e-06
2.9226e-06
2.82691e-06
2.73856e-06
2.65495e-06
2.57749e-06
2.50445e-06
2.43545e-06
2.37218e-06
2.30944e-06
2.25535e-06
2.19726e-06
2.15156e-06
2.09719e-06
2.0592e-06
2.0072e-06
1.97777e-06
1.92703e-06
1.90679e-06
1.86134e-06
1.85342e-06
1.8979e-06
1.892e-06
1.99707e-05
1.78457e-05
1.6075e-05
1.47665e-05
1.36029e-05
1.25376e-05
1.15697e-05
1.07016e-05
9.92125e-06
9.22514e-06
8.60582e-06
8.0524e-06
7.55751e-06
7.1128e-06
6.71278e-06
6.35048e-06
6.02244e-06
5.7236e-06
5.45161e-06
5.20269e-06
4.97491e-06
4.76535e-06
4.57266e-06
4.39429e-06
4.22985e-06
4.07647e-06
3.935e-06
3.80179e-06
3.67928e-06
3.56274e-06
3.4559e-06
3.35353e-06
3.25936e-06
3.16955e-06
3.08531e-06
3.00703e-06
2.93042e-06
2.86269e-06
2.79221e-06
2.73384e-06
2.66854e-06
2.61858e-06
2.55754e-06
2.51522e-06
2.45813e-06
2.4241e-06
2.37745e-06
2.34206e-06
2.38615e-06
2.36888e-06
2.00095e-05
1.47037e-05
1.37479e-05
1.3211e-05
1.25919e-05
1.19274e-05
1.12785e-05
1.06577e-05
1.00813e-05
9.54659e-06
9.0467e-06
8.57951e-06
8.14678e-06
7.74592e-06
7.37538e-06
7.03169e-06
6.71458e-06
6.42089e-06
6.1501e-06
5.89896e-06
5.66675e-06
5.45051e-06
5.25025e-06
5.06259e-06
4.8891e-06
4.72493e-06
4.57373e-06
4.42911e-06
4.29688e-06
4.1689e-06
4.05252e-06
3.93902e-06
3.8356e-06
3.7351e-06
3.64207e-06
3.5534e-06
3.46882e-06
3.39068e-06
3.3134e-06
3.24435e-06
3.17368e-06
3.11223e-06
3.04828e-06
2.99217e-06
2.93615e-06
2.88309e-06
2.84393e-06
2.78079e-06
2.81063e-06
2.79474e-06
2.01331e-05
1.54683e-05
9.63468e-06
9.39843e-06
9.49343e-06
9.49288e-06
9.43458e-06
9.29641e-06
9.05632e-06
8.78205e-06
8.48763e-06
8.18955e-06
7.8984e-06
7.61403e-06
7.33789e-06
7.07604e-06
6.82962e-06
6.5943e-06
6.37194e-06
6.15994e-06
5.95997e-06
5.76928e-06
5.59032e-06
5.41893e-06
5.25945e-06
5.10474e-06
4.96248e-06
4.82315e-06
4.69653e-06
4.57086e-06
4.45764e-06
4.34428e-06
4.24233e-06
4.14025e-06
4.04776e-06
3.95591e-06
3.87167e-06
3.78878e-06
3.71217e-06
3.63669e-06
3.56763e-06
3.49765e-06
3.43722e-06
3.36987e-06
3.31981e-06
3.25252e-06
3.21701e-06
3.13935e-06
3.1515e-06
3.13328e-06
2.01712e-05
1.86764e-05
8.69374e-06
5.54067e-06
5.63099e-06
5.93513e-06
6.29382e-06
6.57903e-06
6.75914e-06
6.86761e-06
6.88703e-06
6.86742e-06
6.81537e-06
6.72574e-06
6.61551e-06
6.49253e-06
6.35524e-06
6.21222e-06
6.07042e-06
5.92723e-06
5.78768e-06
5.64898e-06
5.51624e-06
5.38466e-06
5.26042e-06
5.13749e-06
5.02508e-06
4.91058e-06
4.8071e-06
4.7002e-06
4.60488e-06
4.50545e-06
4.41762e-06
4.32547e-06
4.24453e-06
4.15915e-06
4.08484e-06
4.00539e-06
3.9377e-06
3.86286e-06
3.80237e-06
3.73057e-06
3.67851e-06
3.60775e-06
3.56487e-06
3.4945e-06
3.46011e-06
3.38142e-06
3.37945e-06
3.3579e-06
2.01671e-05
1.9724e-05
1.61683e-05
4.86227e-06
3.04276e-06
3.10613e-06
3.37544e-06
3.80542e-06
4.17165e-06
4.48929e-06
4.7368e-06
4.92564e-06
5.0664e-06
5.16557e-06
5.224e-06
5.25919e-06
5.26218e-06
5.25317e-06
5.23113e-06
5.19071e-06
5.14385e-06
5.08663e-06
5.0277e-06
4.96068e-06
4.89537e-06
4.82205e-06
4.75302e-06
4.67661e-06
4.6076e-06
4.53161e-06
4.46453e-06
4.39032e-06
4.32614e-06
4.25427e-06
4.19355e-06
4.12425e-06
4.06754e-06
4.00049e-06
3.94859e-06
3.8838e-06
3.83748e-06
3.77365e-06
3.73322e-06
3.66968e-06
3.63478e-06
3.57228e-06
3.54163e-06
3.47307e-06
3.46343e-06
3.43837e-06
2.01476e-05
1.99343e-05
1.90658e-05
1.44994e-05
5.24383e-06
2.15494e-06
1.91487e-06
1.99426e-06
2.20806e-06
2.50654e-06
2.78265e-06
3.03514e-06
3.26007e-06
3.45586e-06
3.61936e-06
3.75657e-06
3.86785e-06
3.95492e-06
4.02644e-06
4.07714e-06
4.11629e-06
4.1385e-06
4.15446e-06
4.15556e-06
4.15246e-06
4.14266e-06
4.12986e-06
4.10654e-06
4.08537e-06
4.05486e-06
4.02786e-06
3.99241e-06
3.96197e-06
3.92261e-06
3.89097e-06
3.84887e-06
3.81709e-06
3.77309e-06
3.74194e-06
3.69591e-06
3.66593e-06
3.61844e-06
3.59069e-06
3.54236e-06
3.5167e-06
3.46845e-06
3.4443e-06
3.39126e-06
3.37881e-06
3.35513e-06
2.01216e-05
1.99661e-05
1.96425e-05
1.85465e-05
1.52125e-05
8.35864e-06
3.10486e-06
1.63323e-06
1.44261e-06
1.44971e-06
1.52684e-06
1.68777e-06
1.87001e-06
2.04616e-06
2.21623e-06
2.37427e-06
2.52146e-06
2.65097e-06
2.76945e-06
2.87124e-06
2.96323e-06
3.03964e-06
3.10829e-06
3.16338e-06
3.2119e-06
3.24922e-06
3.2831e-06
3.30632e-06
3.32709e-06
3.33948e-06
3.34945e-06
3.35393e-06
3.35443e-06
3.35235e-06
3.34844e-06
3.33914e-06
3.3321e-06
3.31713e-06
3.30779e-06
3.28868e-06
3.27762e-06
3.25531e-06
3.2428e-06
3.21781e-06
3.20423e-06
3.17706e-06
3.16254e-06
3.1305e-06
3.11958e-06
3.10222e-06
2.00981e-05
1.99328e-05
1.97574e-05
1.93526e-05
1.85062e-05
1.65362e-05
1.23263e-05
6.85732e-06
2.98522e-06
1.49297e-06
1.24312e-06
1.14763e-06
1.15193e-06
1.19445e-06
1.28705e-06
1.393e-06
1.50576e-06
1.61419e-06
1.72445e-06
1.82779e-06
1.92809e-06
2.0193e-06
2.10631e-06
2.18382e-06
2.25733e-06
2.32133e-06
2.38195e-06
2.434e-06
2.4827e-06
2.52406e-06
2.56232e-06
2.59423e-06
2.62381e-06
2.6469e-06
2.6697e-06
2.68533e-06
2.70216e-06
2.71173e-06
2.72319e-06
2.728e-06
2.73453e-06
2.73599e-06
2.73725e-06
2.73591e-06
2.73408e-06
2.72874e-06
2.72468e-06
2.71351e-06
2.70954e-06
2.70092e-06
2.00781e-05
1.98877e-05
1.97571e-05
1.94611e-05
1.91458e-05
1.86407e-05
1.75546e-05
1.54248e-05
1.17381e-05
7.44218e-06
3.9798e-06
1.91294e-06
1.20845e-06
1.05707e-06
9.82054e-07
9.42468e-07
9.53626e-07
9.87181e-07
1.04958e-06
1.11244e-06
1.18175e-06
1.25038e-06
1.32121e-06
1.38977e-06
1.45864e-06
1.52269e-06
1.58595e-06
1.64394e-06
1.70055e-06
1.75192e-06
1.80182e-06
1.84632e-06
1.88971e-06
1.92752e-06
1.96463e-06
1.99635e-06
2.02754e-06
2.05384e-06
2.07961e-06
2.10085e-06
2.12192e-06
2.13851e-06
2.15524e-06
2.1672e-06
2.18062e-06
2.18759e-06
2.19766e-06
2.20013e-06
2.2058e-06
2.20522e-06
2.00613e-05
1.9854e-05
1.97345e-05
1.94714e-05
1.92551e-05
1.90466e-05
1.8735e-05
1.81897e-05
1.70955e-05
1.52311e-05
1.25644e-05
9.23262e-06
5.97133e-06
3.47854e-06
1.88206e-06
1.16835e-06
9.64863e-07
8.90863e-07
8.36698e-07
7.96209e-07
7.97881e-07
8.11113e-07
8.40683e-07
8.78522e-07
9.18611e-07
9.59953e-07
1.00431e-06
1.04775e-06
1.0932e-06
1.13697e-06
1.18127e-06
1.22288e-06
1.26441e-06
1.30308e-06
1.34122e-06
1.37665e-06
1.41111e-06
1.44314e-06
1.474e-06
1.50208e-06
1.52968e-06
1.55392e-06
1.57778e-06
1.59837e-06
1.61901e-06
1.63538e-06
1.65213e-06
1.66507e-06
1.67641e-06
1.6863e-06
2.00475e-05
1.98304e-05
1.97079e-05
1.94493e-05
1.9272e-05
1.91145e-05
1.89643e-05
1.87493e-05
1.84609e-05
1.7911e-05
1.70763e-05
1.56992e-05
1.38827e-05
1.15336e-05
8.85727e-06
6.25126e-06
4.08196e-06
2.50999e-06
1.51071e-06
1.03342e-06
8.63779e-07
7.99609e-07
7.51722e-07
7.11407e-07
6.81928e-07
6.78267e-07
6.83855e-07
6.97422e-07
7.19102e-07
7.41998e-07
7.66754e-07
7.91744e-07
8.18757e-07
8.45857e-07
8.73827e-07
9.0185e-07
9.29585e-07
9.57138e-07
9.83811e-07
1.00949e-06
1.03483e-06
1.05871e-06
1.08167e-06
1.10355e-06
1.12474e-06
1.14355e-06
1.16197e-06
1.17822e-06
1.19289e-06
1.20529e-06
2.00362e-05
1.98126e-05
1.96854e-05
1.94191e-05
1.92579e-05
1.91081e-05
1.89993e-05
1.8848e-05
1.87107e-05
1.8499e-05
1.82465e-05
1.78312e-05
1.72309e-05
1.63614e-05
1.51621e-05
1.36292e-05
1.18237e-05
9.74358e-06
7.60371e-06
5.60824e-06
3.92955e-06
2.65018e-06
1.73222e-06
1.16598e-06
8.84596e-07
7.66658e-07
7.12715e-07
6.75364e-07
6.40284e-07
6.1024e-07
5.89972e-07
5.81474e-07
5.83111e-07
5.88299e-07
5.98644e-07
6.11349e-07
6.2471e-07
6.39067e-07
6.53605e-07
6.68682e-07
6.84516e-07
7.00771e-07
7.16603e-07
7.33122e-07
7.4928e-07
7.64522e-07
7.79457e-07
7.93516e-07
8.06455e-07
8.1784e-07
2.00271e-05
1.97987e-05
1.96662e-05
1.93972e-05
1.92321e-05
1.90806e-05
1.89811e-05
1.88513e-05
1.87348e-05
1.85945e-05
1.84583e-05
1.8288e-05
1.80797e-05
1.77939e-05
1.74084e-05
1.68659e-05
1.61595e-05
1.52402e-05
1.41022e-05
1.27643e-05
1.12688e-05
9.61346e-06
7.90971e-06
6.2762e-06
4.79508e-06
3.55549e-06
2.57288e-06
1.81964e-06
1.28581e-06
9.54558e-07
7.75847e-07
6.87494e-07
6.41308e-07
6.09847e-07
5.8275e-07
5.56512e-07
5.33437e-07
5.15939e-07
5.05063e-07
4.99923e-07
5.00503e-07
5.02839e-07
5.07238e-07
5.13791e-07
5.20153e-07
5.27282e-07
5.33536e-07
5.4084e-07
5.46709e-07
5.53216e-07
2.002e-05
1.97902e-05
1.96462e-05
1.93808e-05
1.9208e-05
1.90515e-05
1.89428e-05
1.88247e-05
1.87129e-05
1.85878e-05
1.84699e-05
1.83438e-05
1.82194e-05
1.8077e-05
1.79205e-05
1.77222e-05
1.74792e-05
1.71608e-05
1.67577e-05
1.62374e-05
1.56039e-05
1.48281e-05
1.39168e-05
1.28671e-05
1.17204e-05
1.04776e-05
9.1547e-06
7.81597e-06
6.51321e-06
5.30615e-06
4.21805e-06
3.29874e-06
2.54249e-06
1.93002e-06
1.45222e-06
1.10297e-06
8.68962e-07
7.25388e-07
6.42197e-07
5.93928e-07
5.63134e-07
5.39831e-07
5.18959e-07
5.00194e-07
4.81098e-07
4.65484e-07
4.50271e-07
4.41305e-07
4.31567e-07
4.2858e-07
2.00144e-05
1.97902e-05
1.96199e-05
1.93675e-05
1.91873e-05
1.90247e-05
1.89067e-05
1.87883e-05
1.86727e-05
1.85518e-05
1.84391e-05
1.83219e-05
1.82097e-05
1.8092e-05
1.7978e-05
1.78572e-05
1.77335e-05
1.75911e-05
1.74328e-05
1.72396e-05
1.70103e-05
1.67274e-05
1.63869e-05
1.59713e-05
1.54805e-05
1.49059e-05
1.42464e-05
1.34938e-05
1.2668e-05
1.17636e-05
1.08204e-05
9.82171e-06
8.78728e-06
7.74894e-06
6.73463e-06
5.76931e-06
4.87547e-06
4.0653e-06
3.3539e-06
2.74884e-06
2.2361e-06
1.80726e-06
1.45579e-06
1.17778e-06
9.66651e-07
8.1457e-07
7.07323e-07
6.38444e-07
5.86668e-07
5.60816e-07
2.00102e-05
1.97944e-05
1.95932e-05
1.93538e-05
1.91685e-05
1.89992e-05
1.8873e-05
1.8752e-05
1.86326e-05
1.85086e-05
1.8393e-05
1.82755e-05
1.81644e-05
1.80538e-05
1.79454e-05
1.78379e-05
1.77314e-05
1.76226e-05
1.75161e-05
1.7405e-05
1.72883e-05
1.71607e-05
1.70195e-05
1.68569e-05
1.66699e-05
1.64516e-05
1.61992e-05
1.59023e-05
1.5563e-05
1.51709e-05
1.47301e-05
1.42373e-05
1.36907e-05
1.30933e-05
1.24457e-05
1.17631e-05
1.10406e-05
1.03018e-05
9.54128e-06
8.76542e-06
7.98681e-06
7.22435e-06
6.48497e-06
5.78843e-06
5.13488e-06
4.5457e-06
4.01028e-06
3.55641e-06
3.14819e-06
2.82192e-06
2.0007e-05
1.98019e-05
1.95687e-05
1.93405e-05
1.91508e-05
1.89753e-05
1.88408e-05
1.87172e-05
1.85936e-05
1.84665e-05
1.83463e-05
1.82267e-05
1.81116e-05
1.79995e-05
1.78884e-05
1.77818e-05
1.76786e-05
1.75759e-05
1.74762e-05
1.73788e-05
1.72791e-05
1.71814e-05
1.70828e-05
1.69838e-05
1.68799e-05
1.67732e-05
1.66573e-05
1.6531e-05
1.63922e-05
1.62366e-05
1.60626e-05
1.5867e-05
1.56479e-05
1.5403e-05
1.51258e-05
1.48285e-05
1.44894e-05
1.41307e-05
1.37339e-05
1.33164e-05
1.28649e-05
1.23962e-05
1.18948e-05
1.13934e-05
1.08653e-05
1.03498e-05
9.82119e-06
9.32542e-06
8.82901e-06
8.36248e-06
2.00047e-05
1.98105e-05
1.95458e-05
1.93272e-05
1.91337e-05
1.89529e-05
1.88099e-05
1.86837e-05
1.85562e-05
1.8426e-05
1.83013e-05
1.81786e-05
1.80595e-05
1.79453e-05
1.78298e-05
1.77218e-05
1.76143e-05
1.75094e-05
1.74073e-05
1.73101e-05
1.72117e-05
1.712e-05
1.70268e-05
1.69379e-05
1.68466e-05
1.67602e-05
1.66698e-05
1.65821e-05
1.64935e-05
1.64042e-05
1.63117e-05
1.62158e-05
1.61156e-05
1.60078e-05
1.58881e-05
1.57696e-05
1.56263e-05
1.54832e-05
1.53161e-05
1.51439e-05
1.49529e-05
1.47499e-05
1.4523e-05
1.4295e-05
1.40403e-05
1.37806e-05
1.35045e-05
1.32266e-05
1.2941e-05
1.26512e-05
2.0003e-05
1.98195e-05
1.95247e-05
1.93134e-05
1.91168e-05
1.8932e-05
1.87803e-05
1.86512e-05
1.85203e-05
1.83872e-05
1.82582e-05
1.81324e-05
1.80096e-05
1.78929e-05
1.77732e-05
1.76631e-05
1.75521e-05
1.74443e-05
1.73388e-05
1.72395e-05
1.71367e-05
1.70421e-05
1.69454e-05
1.68552e-05
1.6762e-05
1.66778e-05
1.65916e-05
1.65099e-05
1.64278e-05
1.63504e-05
1.62706e-05
1.61946e-05
1.61175e-05
1.60399e-05
1.59613e-05
1.58913e-05
1.58089e-05
1.57345e-05
1.56485e-05
1.55677e-05
1.5482e-05
1.539e-05
1.52897e-05
1.51942e-05
1.5084e-05
1.49716e-05
1.4853e-05
1.47284e-05
1.4601e-05
1.44689e-05
2.00017e-05
1.9828e-05
1.95054e-05
1.92986e-05
1.90998e-05
1.89125e-05
1.87522e-05
1.86199e-05
1.8486e-05
1.83504e-05
1.82175e-05
1.80887e-05
1.79625e-05
1.78433e-05
1.77198e-05
1.76075e-05
1.74931e-05
1.73825e-05
1.7274e-05
1.71724e-05
1.70663e-05
1.69689e-05
1.68686e-05
1.67754e-05
1.66789e-05
1.65906e-05
1.65003e-05
1.64152e-05
1.63295e-05
1.6251e-05
1.61689e-05
1.60948e-05
1.60215e-05
1.59484e-05
1.58766e-05
1.58133e-05
1.57424e-05
1.56797e-05
1.5609e-05
1.55483e-05
1.54849e-05
1.54198e-05
1.53534e-05
1.52961e-05
1.52301e-05
1.51677e-05
1.51022e-05
1.50371e-05
1.49698e-05
1.49065e-05
2.00009e-05
1.98307e-05
1.94892e-05
1.92834e-05
1.9083e-05
1.88949e-05
1.87263e-05
1.85904e-05
1.84538e-05
1.83162e-05
1.81795e-05
1.80481e-05
1.79189e-05
1.77971e-05
1.76706e-05
1.75559e-05
1.74385e-05
1.73254e-05
1.72141e-05
1.711e-05
1.70013e-05
1.69012e-05
1.6798e-05
1.67022e-05
1.66027e-05
1.65111e-05
1.64178e-05
1.63297e-05
1.62397e-05
1.61588e-05
1.60723e-05
1.59951e-05
1.59164e-05
1.58396e-05
1.57651e-05
1.56979e-05
1.56267e-05
1.5561e-05
1.54902e-05
1.54321e-05
1.53721e-05
1.5312e-05
1.52505e-05
1.51992e-05
1.51409e-05
1.50881e-05
1.50312e-05
1.49799e-05
1.49239e-05
1.48765e-05
2.00003e-05
1.9829e-05
1.9476e-05
1.92673e-05
1.90661e-05
1.8879e-05
1.87028e-05
1.85629e-05
1.8424e-05
1.82849e-05
1.81448e-05
1.80112e-05
1.78794e-05
1.77552e-05
1.76262e-05
1.75092e-05
1.73891e-05
1.72739e-05
1.716e-05
1.70537e-05
1.69428e-05
1.684e-05
1.67344e-05
1.66362e-05
1.65342e-05
1.64399e-05
1.63438e-05
1.62537e-05
1.61603e-05
1.60769e-05
1.59878e-05
1.59077e-05
1.5825e-05
1.57459e-05
1.56678e-05
1.55969e-05
1.55229e-05
1.54534e-05
1.53785e-05
1.53174e-05
1.52522e-05
1.51899e-05
1.51242e-05
1.50699e-05
1.50097e-05
1.49561e-05
1.48957e-05
1.48454e-05
1.47882e-05
1.47416e-05
2e-05
1.98272e-05
1.9465e-05
1.92498e-05
1.90485e-05
1.88644e-05
1.86815e-05
1.85375e-05
1.83967e-05
1.82567e-05
1.81138e-05
1.79784e-05
1.78443e-05
1.77183e-05
1.75872e-05
1.74682e-05
1.73458e-05
1.72291e-05
1.71128e-05
1.70046e-05
1.68921e-05
1.67865e-05
1.6679e-05
1.65784e-05
1.64743e-05
1.63777e-05
1.6279e-05
1.61874e-05
1.60913e-05
1.60052e-05
1.59149e-05
1.58319e-05
1.5746e-05
1.56658e-05
1.55848e-05
1.55114e-05
1.5435e-05
1.53627e-05
1.5285e-05
1.52213e-05
1.51527e-05
1.50885e-05
1.50191e-05
1.49612e-05
1.4898e-05
1.48422e-05
1.47772e-05
1.47245e-05
1.46639e-05
1.46127e-05
1.99999e-05
1.9826e-05
1.94569e-05
1.9232e-05
1.90309e-05
1.88515e-05
1.86633e-05
1.85149e-05
1.83726e-05
1.8232e-05
1.80871e-05
1.79503e-05
1.78143e-05
1.7687e-05
1.75543e-05
1.74336e-05
1.73094e-05
1.71917e-05
1.70734e-05
1.69636e-05
1.685e-05
1.67417e-05
1.66332e-05
1.653e-05
1.64244e-05
1.63259e-05
1.62245e-05
1.61318e-05
1.60335e-05
1.59448e-05
1.58537e-05
1.57681e-05
1.56795e-05
1.55987e-05
1.55154e-05
1.54398e-05
1.53614e-05
1.52873e-05
1.52076e-05
1.5142e-05
1.50709e-05
1.50055e-05
1.49335e-05
1.48733e-05
1.48076e-05
1.47501e-05
1.46822e-05
1.46267e-05
1.45641e-05
1.45083e-05
1.99999e-05
1.98253e-05
1.94519e-05
1.9215e-05
1.90142e-05
1.88406e-05
1.86487e-05
1.84959e-05
1.83521e-05
1.82115e-05
1.80653e-05
1.79276e-05
1.77901e-05
1.76621e-05
1.75282e-05
1.74064e-05
1.72809e-05
1.71626e-05
1.70429e-05
1.69319e-05
1.68175e-05
1.67068e-05
1.65979e-05
1.64923e-05
1.63855e-05
1.62855e-05
1.61817e-05
1.60882e-05
1.59879e-05
1.58971e-05
1.58052e-05
1.57172e-05
1.56265e-05
1.55451e-05
1.54601e-05
1.53826e-05
1.53023e-05
1.52269e-05
1.51459e-05
1.50786e-05
1.50057e-05
1.49392e-05
1.48654e-05
1.48036e-05
1.47359e-05
1.4677e-05
1.46074e-05
1.45497e-05
1.44853e-05
1.44263e-05
1.99999e-05
1.9825e-05
1.94495e-05
1.91996e-05
1.89989e-05
1.88317e-05
1.86383e-05
1.84812e-05
1.8336e-05
1.81957e-05
1.80491e-05
1.79108e-05
1.77725e-05
1.76441e-05
1.75096e-05
1.73874e-05
1.7261e-05
1.71426e-05
1.70221e-05
1.69103e-05
1.67954e-05
1.66831e-05
1.6574e-05
1.64665e-05
1.63588e-05
1.62577e-05
1.61519e-05
1.60577e-05
1.59559e-05
1.58634e-05
1.57704e-05
1.56807e-05
1.55883e-05
1.55065e-05
1.54199e-05
1.53409e-05
1.52587e-05
1.51824e-05
1.51006e-05
1.5032e-05
1.49572e-05
1.48897e-05
1.48146e-05
1.47518e-05
1.46822e-05
1.46219e-05
1.45511e-05
1.4492e-05
1.44252e-05
1.43646e-05
1.99999e-05
1.98251e-05
1.94498e-05
1.91868e-05
1.89856e-05
1.88246e-05
1.86323e-05
1.84709e-05
1.83244e-05
1.81848e-05
1.80387e-05
1.79003e-05
1.77618e-05
1.76335e-05
1.7499e-05
1.73769e-05
1.72501e-05
1.71322e-05
1.70116e-05
1.68997e-05
1.67842e-05
1.66716e-05
1.65622e-05
1.64535e-05
1.63452e-05
1.62433e-05
1.61363e-05
1.60414e-05
1.59384e-05
1.5845e-05
1.57506e-05
1.56597e-05
1.55663e-05
1.54838e-05
1.53962e-05
1.5316e-05
1.52318e-05
1.51549e-05
1.50729e-05
1.5003e-05
1.49265e-05
1.48581e-05
1.47821e-05
1.47185e-05
1.46471e-05
1.45856e-05
1.45138e-05
1.44536e-05
1.43844e-05
1.43221e-05
1.99999e-05
1.98257e-05
1.94522e-05
1.91768e-05
1.89743e-05
1.88189e-05
1.86306e-05
1.84654e-05
1.83175e-05
1.8179e-05
1.8034e-05
1.78964e-05
1.77583e-05
1.76306e-05
1.74967e-05
1.73755e-05
1.7249e-05
1.71323e-05
1.7012e-05
1.69006e-05
1.67847e-05
1.66728e-05
1.65628e-05
1.64541e-05
1.63454e-05
1.6243e-05
1.61357e-05
1.604e-05
1.59365e-05
1.58428e-05
1.57468e-05
1.56551e-05
1.55614e-05
1.54783e-05
1.53898e-05
1.53086e-05
1.5223e-05
1.51456e-05
1.50637e-05
1.49928e-05
1.49145e-05
1.48454e-05
1.47689e-05
1.47045e-05
1.46314e-05
1.45689e-05
1.44961e-05
1.44349e-05
1.43634e-05
1.42996e-05
1.99999e-05
1.98268e-05
1.94572e-05
1.91706e-05
1.89657e-05
1.8815e-05
1.86327e-05
1.84648e-05
1.83154e-05
1.81785e-05
1.80353e-05
1.78989e-05
1.77616e-05
1.76347e-05
1.75019e-05
1.7382e-05
1.72558e-05
1.71407e-05
1.70211e-05
1.69109e-05
1.67944e-05
1.66844e-05
1.65739e-05
1.64659e-05
1.63567e-05
1.62543e-05
1.61472e-05
1.60509e-05
1.59473e-05
1.58536e-05
1.57564e-05
1.56646e-05
1.5571e-05
1.54874e-05
1.53984e-05
1.53167e-05
1.52301e-05
1.51528e-05
1.50711e-05
1.49994e-05
1.49199e-05
1.48504e-05
1.47736e-05
1.47086e-05
1.46342e-05
1.4571e-05
1.44972e-05
1.44352e-05
1.43615e-05
1.42968e-05
1.99999e-05
1.98283e-05
1.9464e-05
1.9168e-05
1.89599e-05
1.88123e-05
1.86387e-05
1.84687e-05
1.83178e-05
1.81823e-05
1.80413e-05
1.79069e-05
1.7771e-05
1.76455e-05
1.75146e-05
1.73969e-05
1.72718e-05
1.71595e-05
1.70411e-05
1.69331e-05
1.68162e-05
1.67094e-05
1.65982e-05
1.6492e-05
1.63828e-05
1.62809e-05
1.61745e-05
1.60776e-05
1.59744e-05
1.58809e-05
1.57824e-05
1.56911e-05
1.55978e-05
1.55138e-05
1.54245e-05
1.53422e-05
1.52548e-05
1.5178e-05
1.50966e-05
1.5024e-05
1.49432e-05
1.48736e-05
1.47965e-05
1.4731e-05
1.46552e-05
1.45915e-05
1.45166e-05
1.44537e-05
1.4378e-05
1.43127e-05
1.99999e-05
1.98304e-05
1.94727e-05
1.91692e-05
1.89569e-05
1.88113e-05
1.86475e-05
1.84774e-05
1.83248e-05
1.81909e-05
1.80527e-05
1.79209e-05
1.77869e-05
1.76633e-05
1.75347e-05
1.74196e-05
1.72961e-05
1.71871e-05
1.70702e-05
1.69649e-05
1.68482e-05
1.67452e-05
1.66335e-05
1.65301e-05
1.64208e-05
1.63203e-05
1.6215e-05
1.61182e-05
1.6016e-05
1.59229e-05
1.58238e-05
1.57337e-05
1.5641e-05
1.5557e-05
1.54678e-05
1.53852e-05
1.52979e-05
1.5222e-05
1.51409e-05
1.50675e-05
1.49863e-05
1.49169e-05
1.48396e-05
1.47736e-05
1.46969e-05
1.46329e-05
1.4557e-05
1.44935e-05
1.4416e-05
1.435e-05
1.99999e-05
1.98329e-05
1.9483e-05
1.91741e-05
1.89571e-05
1.88121e-05
1.86585e-05
1.84899e-05
1.83361e-05
1.82037e-05
1.80684e-05
1.79398e-05
1.7808e-05
1.76866e-05
1.75608e-05
1.74486e-05
1.73273e-05
1.72221e-05
1.71071e-05
1.70049e-05
1.6889e-05
1.67903e-05
1.66786e-05
1.65785e-05
1.64694e-05
1.63709e-05
1.62667e-05
1.61706e-05
1.60699e-05
1.59773e-05
1.58783e-05
1.57899e-05
1.56978e-05
1.56142e-05
1.55253e-05
1.54428e-05
1.53561e-05
1.52815e-05
1.52005e-05
1.51265e-05
1.50454e-05
1.49766e-05
1.48991e-05
1.48327e-05
1.47555e-05
1.46913e-05
1.46145e-05
1.45505e-05
1.44716e-05
1.44047e-05
1.99999e-05
1.98359e-05
1.9494e-05
1.91829e-05
1.89604e-05
1.88149e-05
1.86713e-05
1.85059e-05
1.83511e-05
1.82201e-05
1.80878e-05
1.79626e-05
1.78335e-05
1.77146e-05
1.7592e-05
1.74829e-05
1.73643e-05
1.72633e-05
1.71505e-05
1.70517e-05
1.69375e-05
1.68433e-05
1.6732e-05
1.66357e-05
1.6527e-05
1.64315e-05
1.63283e-05
1.62335e-05
1.61346e-05
1.60424e-05
1.59444e-05
1.58579e-05
1.57665e-05
1.56838e-05
1.55953e-05
1.55131e-05
1.54278e-05
1.53545e-05
1.52735e-05
1.51994e-05
1.51189e-05
1.50508e-05
1.4973e-05
1.49065e-05
1.48289e-05
1.47647e-05
1.46872e-05
1.46229e-05
1.45427e-05
1.44745e-05
1.99999e-05
1.98392e-05
1.9506e-05
1.91945e-05
1.89671e-05
1.88203e-05
1.86855e-05
1.8525e-05
1.83699e-05
1.82398e-05
1.81104e-05
1.79888e-05
1.78627e-05
1.77466e-05
1.76272e-05
1.75215e-05
1.74061e-05
1.73095e-05
1.71993e-05
1.71041e-05
1.69924e-05
1.69025e-05
1.67924e-05
1.66999e-05
1.65922e-05
1.65e-05
1.63977e-05
1.63051e-05
1.6208e-05
1.61165e-05
1.60202e-05
1.59357e-05
1.58451e-05
1.57637e-05
1.56758e-05
1.55944e-05
1.5511e-05
1.5439e-05
1.53579e-05
1.52841e-05
1.52047e-05
1.51371e-05
1.50593e-05
1.49928e-05
1.49151e-05
1.4851e-05
1.47729e-05
1.47084e-05
1.4627e-05
1.45569e-05
1.99999e-05
1.98427e-05
1.95184e-05
1.92088e-05
1.89769e-05
1.88281e-05
1.87006e-05
1.85464e-05
1.83917e-05
1.82624e-05
1.81355e-05
1.80177e-05
1.78948e-05
1.77816e-05
1.76657e-05
1.75633e-05
1.74516e-05
1.73594e-05
1.72521e-05
1.71607e-05
1.70521e-05
1.69664e-05
1.68584e-05
1.67695e-05
1.66635e-05
1.65747e-05
1.64734e-05
1.63837e-05
1.62882e-05
1.61979e-05
1.61039e-05
1.60211e-05
1.59316e-05
1.5852e-05
1.57645e-05
1.56844e-05
1.56034e-05
1.55324e-05
1.54513e-05
1.53784e-05
1.53003e-05
1.52333e-05
1.51553e-05
1.50892e-05
1.50114e-05
1.49476e-05
1.4869e-05
1.48047e-05
1.47217e-05
1.46496e-05
1.99999e-05
1.98465e-05
1.95309e-05
1.92252e-05
1.89898e-05
1.88385e-05
1.87164e-05
1.85693e-05
1.84162e-05
1.82874e-05
1.81627e-05
1.80485e-05
1.7929e-05
1.78189e-05
1.77064e-05
1.76074e-05
1.74996e-05
1.74119e-05
1.73078e-05
1.72201e-05
1.71154e-05
1.70336e-05
1.69285e-05
1.68427e-05
1.67393e-05
1.66538e-05
1.65537e-05
1.64675e-05
1.63731e-05
1.62848e-05
1.61932e-05
1.61122e-05
1.60242e-05
1.59463e-05
1.58593e-05
1.57812e-05
1.57028e-05
1.56324e-05
1.55515e-05
1.548e-05
1.54033e-05
1.53366e-05
1.52588e-05
1.51931e-05
1.51155e-05
1.5052e-05
1.49731e-05
1.49089e-05
1.48242e-05
1.47501e-05
1.99999e-05
1.98503e-05
1.95435e-05
1.92434e-05
1.90055e-05
1.88515e-05
1.8733e-05
1.85934e-05
1.84428e-05
1.83144e-05
1.81915e-05
1.80807e-05
1.79647e-05
1.78575e-05
1.77485e-05
1.76529e-05
1.75492e-05
1.74658e-05
1.73651e-05
1.72814e-05
1.71809e-05
1.71028e-05
1.70013e-05
1.69182e-05
1.68183e-05
1.67355e-05
1.66371e-05
1.65548e-05
1.64613e-05
1.63755e-05
1.62865e-05
1.6207e-05
1.61209e-05
1.60447e-05
1.59582e-05
1.58827e-05
1.58068e-05
1.57368e-05
1.56565e-05
1.55867e-05
1.55113e-05
1.54448e-05
1.53674e-05
1.53022e-05
1.52249e-05
1.51618e-05
1.50828e-05
1.50185e-05
1.49319e-05
1.48565e-05
1.99999e-05
1.98542e-05
1.95559e-05
1.92628e-05
1.90238e-05
1.88668e-05
1.87503e-05
1.8618e-05
1.8471e-05
1.8343e-05
1.82215e-05
1.81139e-05
1.80012e-05
1.7897e-05
1.77914e-05
1.7699e-05
1.75994e-05
1.75203e-05
1.74231e-05
1.73434e-05
1.72474e-05
1.7173e-05
1.70754e-05
1.69949e-05
1.6899e-05
1.68185e-05
1.67223e-05
1.66439e-05
1.65511e-05
1.64686e-05
1.63817e-05
1.63038e-05
1.62201e-05
1.61453e-05
1.60596e-05
1.59871e-05
1.59133e-05
1.58436e-05
1.57644e-05
1.56964e-05
1.5622e-05
1.55558e-05
1.5479e-05
1.54144e-05
1.53373e-05
1.52747e-05
1.51956e-05
1.51311e-05
1.50426e-05
1.4967e-05
1.99999e-05
1.98581e-05
1.95681e-05
1.92831e-05
1.90442e-05
1.88843e-05
1.87684e-05
1.86428e-05
1.85003e-05
1.83728e-05
1.82525e-05
1.81476e-05
1.80379e-05
1.79365e-05
1.78344e-05
1.7745e-05
1.76495e-05
1.75745e-05
1.74808e-05
1.74055e-05
1.73137e-05
1.72433e-05
1.71496e-05
1.70719e-05
1.69801e-05
1.69013e-05
1.68083e-05
1.67334e-05
1.66414e-05
1.65627e-05
1.64772e-05
1.64013e-05
1.63202e-05
1.62463e-05
1.61619e-05
1.60929e-05
1.60205e-05
1.59511e-05
1.58736e-05
1.58072e-05
1.57335e-05
1.56678e-05
1.55919e-05
1.55276e-05
1.54507e-05
1.53889e-05
1.53095e-05
1.52444e-05
1.51544e-05
1.50796e-05
1.99999e-05
1.9862e-05
1.95801e-05
1.93039e-05
1.90664e-05
1.89037e-05
1.87874e-05
1.86675e-05
1.85301e-05
1.84034e-05
1.82841e-05
1.81814e-05
1.80744e-05
1.79757e-05
1.78771e-05
1.77904e-05
1.76987e-05
1.76277e-05
1.75376e-05
1.74669e-05
1.7379e-05
1.7313e-05
1.72228e-05
1.71483e-05
1.70605e-05
1.69832e-05
1.68941e-05
1.68219e-05
1.67312e-05
1.66565e-05
1.65717e-05
1.64986e-05
1.64198e-05
1.63463e-05
1.62639e-05
1.61985e-05
1.61266e-05
1.6058e-05
1.59827e-05
1.59173e-05
1.58441e-05
1.57793e-05
1.57043e-05
1.56399e-05
1.55636e-05
1.55026e-05
1.54226e-05
1.53569e-05
1.52661e-05
1.51925e-05
1.99999e-05
1.98658e-05
1.95917e-05
1.93248e-05
1.90898e-05
1.89247e-05
1.88074e-05
1.86921e-05
1.85602e-05
1.84345e-05
1.83161e-05
1.82151e-05
1.81103e-05
1.80142e-05
1.7919e-05
1.78347e-05
1.77466e-05
1.76795e-05
1.75929e-05
1.75269e-05
1.74426e-05
1.73814e-05
1.72942e-05
1.72237e-05
1.71392e-05
1.70635e-05
1.69787e-05
1.69085e-05
1.682e-05
1.67489e-05
1.66641e-05
1.65948e-05
1.65176e-05
1.64443e-05
1.63649e-05
1.63024e-05
1.62305e-05
1.61634e-05
1.60903e-05
1.60253e-05
1.59527e-05
1.58892e-05
1.58148e-05
1.575e-05
1.56747e-05
1.56144e-05
1.55333e-05
1.54672e-05
1.53762e-05
1.53037e-05
1.99999e-05
1.98694e-05
1.96031e-05
1.93455e-05
1.91141e-05
1.89472e-05
1.88284e-05
1.87164e-05
1.85902e-05
1.84658e-05
1.83484e-05
1.82484e-05
1.81455e-05
1.80518e-05
1.79597e-05
1.78776e-05
1.77927e-05
1.77294e-05
1.76463e-05
1.75852e-05
1.75043e-05
1.74481e-05
1.73634e-05
1.72976e-05
1.72153e-05
1.71421e-05
1.70615e-05
1.69927e-05
1.69072e-05
1.68386e-05
1.67542e-05
1.6689e-05
1.66124e-05
1.654e-05
1.64641e-05
1.64034e-05
1.63313e-05
1.62666e-05
1.61952e-05
1.61301e-05
1.60586e-05
1.59964e-05
1.59221e-05
1.58569e-05
1.57829e-05
1.57228e-05
1.56404e-05
1.55743e-05
1.54837e-05
1.54119e-05
1.99999e-05
1.9873e-05
1.96141e-05
1.93657e-05
1.91388e-05
1.89708e-05
1.88505e-05
1.87405e-05
1.86197e-05
1.8497e-05
1.83807e-05
1.82812e-05
1.81798e-05
1.80882e-05
1.79991e-05
1.79188e-05
1.78371e-05
1.77772e-05
1.76975e-05
1.76412e-05
1.75638e-05
1.75125e-05
1.74301e-05
1.73693e-05
1.72885e-05
1.72189e-05
1.71414e-05
1.70746e-05
1.6992e-05
1.6925e-05
1.68421e-05
1.67805e-05
1.67035e-05
1.66331e-05
1.65606e-05
1.65005e-05
1.64288e-05
1.6367e-05
1.62964e-05
1.62312e-05
1.61613e-05
1.61e-05
1.60253e-05
1.59603e-05
1.58875e-05
1.58268e-05
1.57433e-05
1.56779e-05
1.55878e-05
1.5516e-05
1.99999e-05
1.98764e-05
1.96249e-05
1.93853e-05
1.91636e-05
1.89954e-05
1.88735e-05
1.87646e-05
1.86488e-05
1.8528e-05
1.84128e-05
1.83134e-05
1.82132e-05
1.81235e-05
1.80368e-05
1.79581e-05
1.78795e-05
1.78226e-05
1.77465e-05
1.76946e-05
1.76212e-05
1.75739e-05
1.74945e-05
1.74383e-05
1.73587e-05
1.72937e-05
1.72178e-05
1.71542e-05
1.70739e-05
1.70077e-05
1.69278e-05
1.68685e-05
1.67905e-05
1.67238e-05
1.66536e-05
1.65932e-05
1.65229e-05
1.64641e-05
1.63931e-05
1.63284e-05
1.62605e-05
1.61993e-05
1.6124e-05
1.60596e-05
1.59876e-05
1.59257e-05
1.58419e-05
1.57776e-05
1.56879e-05
1.56152e-05
1.99999e-05
1.98797e-05
1.96353e-05
1.94041e-05
1.91882e-05
1.90207e-05
1.88975e-05
1.87887e-05
1.86773e-05
1.85586e-05
1.84447e-05
1.83449e-05
1.82457e-05
1.81575e-05
1.80727e-05
1.79953e-05
1.792e-05
1.78655e-05
1.77931e-05
1.77453e-05
1.76763e-05
1.76324e-05
1.75564e-05
1.75042e-05
1.7426e-05
1.73663e-05
1.7291e-05
1.72311e-05
1.71523e-05
1.70869e-05
1.70109e-05
1.69522e-05
1.68743e-05
1.68115e-05
1.67422e-05
1.66818e-05
1.66138e-05
1.65567e-05
1.64853e-05
1.64218e-05
1.63556e-05
1.62937e-05
1.62181e-05
1.61546e-05
1.60824e-05
1.60193e-05
1.59362e-05
1.5873e-05
1.5783e-05
1.57095e-05
1.99999e-05
1.98828e-05
1.96453e-05
1.94221e-05
1.92123e-05
1.90466e-05
1.89222e-05
1.8813e-05
1.87053e-05
1.85886e-05
1.84761e-05
1.83757e-05
1.82773e-05
1.81902e-05
1.81068e-05
1.80305e-05