/*--------------------------------*- C++ -*----------------------------------*\
  =========                 |
  \\      /  F ield         | OpenFOAM: The Open Source CFD Toolbox
   \\    /   O peration     | Website:  https://openfoam.org
    \\  /    A nd           | Version:  7
     \\/     M anipulation  |
\*---------------------------------------------------------------------------*/
FoamFile
{
    version     2.0;
    format      ascii;
    class       volScalarField;
    location    "0.48";
    object      nut;
}
// * * * * * * * * * * * * * * * * * * * * * * * * * * * * * * * * * * * * * //

dimensions      [0 2 -1 0 0 0 0];

internalField   nonuniform List<scalar> 
70000
(
0
0
0
0
0
0
0
0
0
0
0
0
0
0
0
0
0
0
0
0
0
0
0
0
0
0
0
0
0
0
0
0
0
0
0
0
0
0
0
0
0
0
0
6.04588e-14
0
2.44306e-13
0
8.90508e-13
0
0
0
0
0
0
0
0
0
0
0
0
0
0
0
0
0
0
0
0
0
0
0
0
0
0
0
0
0
0
0
0
0
0
0
0
0
0
0
0
0
0
0
0
0
1.20146e-13
0
4.58376e-13
0
1.77685e-12
2.36129e-13
0
0
0
0
0
0
0
0
0
0
0
0
0
0
0
0
0
0
0
0
0
0
0
0
0
0
0
0
0
0
0
0
0
0
0
0
0
0
0
0
0
0
0
0
1.49933e-13
0
5.88217e-13
0
2.31193e-12
4.48949e-12
0
0
0
0
0
0
0
0
0
0
0
0
0
0
0
0
0
0
0
0
0
0
0
0
0
0
0
0
0
0
0
0
0
0
0
0
0
0
0
0
0
0
0
0
8.50418e-14
0
5.88285e-13
0
2.22076e-12
8.35773e-12
0
0
0
0
0
0
0
0
0
0
0
0
0
0
0
0
0
0
0
0
0
0
0
0
0
0
0
0
0
0
0
0
0
0
0
0
0
0
0
0
0
0
0
0
0
0
5.16656e-13
0
1.76715e-12
1.03162e-11
0
9.44229e-10
0
0
0
0
0
0
0
0
0
0
0
0
0
0
0
0
0
0
0
0
0
0
0
0
0
0
0
0
0
0
0
0
0
0
0
0
0
0
0
0
0
0
0
0
3.9414e-13
0
1.17318e-12
1.09907e-11
0
1.31854e-08
0
0
0
0
0
0
0
0
0
0
0
0
0
0
0
0
0
0
0
0
0
0
0
0
0
0
0
0
0
0
0
0
0
0
0
0
0
0
0
0
0
0
0
0
1.79632e-13
0
3.78794e-13
1.11017e-11
0
1.20789e-08
0
0
0
0
0
0
0
0
0
0
0
0
0
0
0
0
0
0
0
0
0
0
0
0
0
0
0
0
0
0
0
0
0
0
0
0
0
0
0
0
0
0
0
0
0
0
0
1.08131e-11
0
1.10598e-08
0
0
0
0
0
0
0
0
0
0
0
0
0
0
0
0
0
0
0
0
0
0
0
0
0
0
0
0
0
0
0
0
0
0
0
0
0
0
0
0
0
0
0
0
0
0
0
1.01263e-11
0
1.02116e-08
0
0
0
0
0
0
0
0
0
0
0
0
0
0
0
0
0
0
0
0
0
0
0
0
0
0
0
0
0
0
0
0
0
0
0
0
0
0
0
0
0
0
0
0
0
0
0
9.06332e-12
0
9.50101e-09
0
0
0
0
0
0
0
0
0
0
0
0
0
0
0
0
0
0
0
0
0
0
0
0
0
0
0
0
0
0
0
0
0
0
0
0
0
0
0
0
0
0
0
0
0
0
0
7.6935e-12
0
8.85754e-09
0
0
0
0
0
0
0
0
0
0
0
0
0
0
0
0
0
0
0
0
0
0
0
0
0
0
0
0
0
0
0
0
0
0
0
0
0
0
0
0
0
0
0
0
0
0
0
6.12912e-12
0
8.21549e-09
0
0
0
0
0
0
0
0
0
0
0
0
0
0
0
0
0
0
0
0
0
0
0
0
0
0
0
0
0
0
0
0
0
0
0
0
0
0
0
0
0
0
0
0
0
0
0
4.48873e-12
0
7.55504e-09
0
0
0
0
0
0
0
0
0
0
0
0
1.27618e-11
2.01037e-12
0
0
0
0
0
0
0
0
0
0
0
0
0
0
0
0
0
0
0
0
0
0
0
0
0
0
0
0
0
0
0
0
0
2.83661e-12
0
6.88235e-09
0
0
0
0
0
0
0
0
0
0
0
0
0
0
4.806e-12
3.87852e-11
3.72172e-11
1.29319e-11
0
0
0
0
0
0
0
0
0
0
0
0
0
0
0
0
0
0
0
0
0
0
0
0
0
0
0
0
0
1.17278e-12
0
6.20847e-09
0
0
0
0
0
0
0
0
0
0
0
0
0
0
0
0
0
0
2.76955e-11
4.95278e-11
5.36942e-11
3.46691e-11
1.34759e-11
2.45391e-12
0
0
0
0
0
0
0
0
0
0
0
0
0
0
0
0
0
0
0
0
0
3.22207e-14
0
0
0
5.54192e-09
0
0
0
5.88849e-11
0
0
0
0
0
0
0
0
0
0
0
0
0
0
0
0
0
2.12041e-12
2.00271e-11
3.75041e-11
5.16975e-11
5.76163e-11
4.84896e-11
2.93977e-11
1.37597e-11
4.88445e-12
3.70111e-13
0
0
0
0
0
0
0
0
0
0
0
0
0
0
3.17954e-13
0
0
0
4.88897e-09
0
0
0
1.4028e-10
0
0
0
0
0
0
0
0
0
0
0
0
0
0
0
0
0
0
0
0
0
0
5.16804e-12
1.65109e-11
2.82986e-11
3.9595e-11
4.93785e-11
5.55481e-11
5.42627e-11
4.306e-11
2.77631e-11
1.46611e-11
6.59589e-12
1.19285e-12
0
0
0
0
0
0
0
1.23815e-12
0
0
0
4.25512e-09
0
0
0
1.93053e-10
0
0
0
0
0
0
0
0
0
0
0
0
0
0
0
0
0
0
0
0
0
0
0
0
0
0
0
0
3.22148e-12
8.76948e-12
1.4686e-11
1.92354e-11
2.35592e-11
2.48358e-11
2.52313e-11
2.11569e-11
1.47499e-11
5.99539e-12
0
0
0
9.83232e-12
0
7.59584e-12
0
3.64547e-09
0
0
0
2.02023e-10
0
0
0
0
0
0
0
0
0
0
0
0
0
0
0
0
0
0
0
0
0
0
0
0
0
0
0
0
0
0
0
0
0
0
0
0
0
0
0
0
0
0
1.63883e-13
9.00478e-11
1.82444e-10
3.0643e-09
0
0
0
1.49711e-10
0
0
0
0
0
0
0
0
0
0
0
0
0
0
0
0
0
0
0
0
0
0
0
0
0
0
0
0
0
0
0
0
0
0
0
0
0
0
0
0
0
0
0
3.27141e-11
1.09935e-10
2.51455e-09
0
0
0
1.68972e-11
0
0
0
0
0
0
0
0
0
0
0
0
0
0
0
0
0
0
0
0
0
0
0
0
0
0
0
0
0
0
0
0
0
0
0
0
0
0
0
0
0
0
0
2.29174e-11
1.02201e-10
1.99752e-09
0
0
0
0
0
0
0
0
0
0
0
0
0
0
0
0
0
0
0
0
0
0
0
0
0
0
0
0
0
0
0
0
0
0
0
0
0
0
0
0
0
0
0
0
0
0
0
3.45109e-11
1.21203e-10
1.51282e-09
0
0
0
0
0
0
0
0
0
0
0
0
0
0
0
0
0
0
0
0
0
0
0
0
0
0
0
0
0
0
0
0
0
0
0
0
0
0
0
0
0
0
0
0
0
0
0
6.02537e-11
1.56251e-10
1.05843e-09
0
0
0
0
0
0
0
0
0
0
0
0
0
0
0
0
0
0
0
0
0
0
0
0
0
0
0
0
0
0
0
0
0
0
0
0
0
0
0
0
0
0
0
0
0
0
1.01099e-11
9.69582e-11
2.03265e-10
6.31194e-10
0
0
0
0
0
0
0
0
0
0
0
0
0
0
0
0
0
0
0
0
0
0
0
0
0
0
0
0
0
0
0
0
0
0
0
0
0
0
0
0
0
0
0
0
0
0
3.99412e-11
1.42951e-10
2.60017e-10
2.27333e-10
0
0
0
0
0
0
0
0
0
0
0
0
0
0
0
0
0
0
0
0
0
0
0
0
0
0
0
0
0
0
0
0
0
0
0
0
0
0
0
0
0
0
0
0
0
5.35242e-12
7.53863e-11
1.97222e-10
3.25044e-10
0
0
0
0
0
0
0
0
0
0
0
0
0
0
0
0
0
0
0
0
0
0
0
0
0
0
0
0
0
0
0
0
0
0
0
0
0
0
0
0
0
0
0
0
0
0
3.02214e-11
1.16626e-10
2.59043e-10
3.97177e-10
0
0
0
0
0
0
0
0
0
0
0
0
0
0
0
0
0
0
0
0
0
0
0
0
0
0
0
0
0
0
0
0
0
0
0
0
0
0
0
0
0
0
0
0
0
0
6.03444e-11
1.63812e-10
3.27834e-10
4.75418e-10
0
0
0
0
0
0
0
0
0
0
0
0
0
0
0
0
0
0
0
0
0
0
0
0
0
0
0
0
0
0
0
0
0
0
0
0
0
0
0
0
0
0
0
0
0
1.26228e-11
9.58289e-11
2.17007e-10
4.03033e-10
5.58793e-10
0
0
0
0
0
0
0
0
0
0
0
0
0
0
0
0
0
0
0
0
0
0
0
0
0
0
0
0
0
0
0
0
0
0
0
0
0
0
0
0
0
0
0
0
0
3.83709e-11
1.36703e-10
2.76087e-10
4.83941e-10
6.46138e-10
0
0
0
0
0
0
0
0
0
0
0
0
0
0
0
0
0
0
0
0
0
0
0
0
0
0
0
0
0
0
0
0
0
0
0
0
0
0
0
0
0
0
0
0
0
6.84157e-11
1.82851e-10
3.40667e-10
5.69564e-10
7.35973e-10
0
6.857e-10
0
0
0
0
0
0
0
0
0
0
0
0
0
0
0
0
0
0
0
0
0
0
0
0
0
0
0
0
0
0
0
0
0
0
0
0
0
0
0
0
0
0
2.03152e-11
1.02824e-10
2.33941e-10
4.10012e-10
6.58491e-10
8.26369e-10
0
1.59591e-09
0
0
0
0
0
0
0
0
0
0
0
0
0
0
0
0
0
0
0
0
0
0
0
0
0
0
0
0
0
0
0
0
0
0
0
0
0
0
0
0
0
0
4.55714e-11
1.41454e-10
2.89374e-10
4.82992e-10
7.48852e-10
9.14924e-10
0
2.38023e-09
0
0
0
0
0
0
0
0
0
0
0
0
0
0
0
0
0
0
0
0
0
0
0
0
0
0
0
0
0
0
0
0
0
0
0
0
0
0
0
0
0
0
7.43757e-11
1.83932e-10
3.48273e-10
5.58127e-10
8.38401e-10
9.98902e-10
0
3.0411e-09
0
0
0
0
0
0
0
0
0
0
0
0
0
0
0
0
0
0
0
0
0
0
0
0
0
0
0
0
0
0
0
0
0
0
0
0
0
0
0
0
0
1.58029e-11
1.06416e-10
2.29568e-10
4.09346e-10
6.33383e-10
9.24236e-10
1.07488e-09
0
3.58402e-09
0
0
0
0
0
0
0
0
0
0
0
0
0
0
0
0
0
0
0
0
0
0
0
0
0
0
0
0
0
0
0
0
0
0
0
0
0
0
0
0
0
3.8642e-11
1.41156e-10
2.77368e-10
4.70939e-10
7.06323e-10
1.00303e-09
1.13908e-09
0
4.01675e-09
0
0
0
0
0
0
0
0
0
0
0
0
0
0
0
0
0
0
0
0
0
0
0
0
0
0
0
0
0
0
0
0
0
0
0
0
0
0
0
0
0
6.37581e-11
1.77804e-10
3.26011e-10
5.31027e-10
7.74093e-10
1.07102e-09
1.18733e-09
0
4.34786e-09
0
0
0
0
0
0
0
0
0
0
0
0
0
0
0
0
0
0
0
0
0
0
0
0
0
0
0
0
0
0
0
0
0
0
0
0
0
0
0
0
7.67863e-13
9.05582e-11
2.15312e-10
3.73863e-10
5.87241e-10
8.33483e-10
1.12411e-09
1.21526e-09
0
4.58645e-09
0
0
0
0
0
0
0
0
0
0
0
0
0
0
0
0
0
0
0
0
0
0
0
0
0
0
0
0
0
0
0
0
0
0
0
0
0
0
0
0
1.90263e-11
1.18237e-10
2.52377e-10
4.19009e-10
6.36929e-10
8.81015e-10
1.15801e-09
1.21837e-09
0
4.74281e-09
0
0
0
0
0
0
0
0
0
0
0
0
0
0
0
0
0
0
0
0
0
0
0
0
0
0
0
0
0
0
0
0
0
0
0
0
0
0
0
0
3.80738e-11
1.45787e-10
2.87477e-10
4.59307e-10
6.77239e-10
9.13067e-10
1.16837e-09
1.19227e-09
0
4.82822e-09
0
0
0
0
0
0
0
0
0
0
0
0
0
0
0
0
0
0
0
0
0
0
0
0
0
0
0
0
0
0
0
0
0
0
0
0
0
0
0
0
5.71534e-11
1.72028e-10
3.18919e-10
4.92469e-10
7.05235e-10
9.26018e-10
1.15098e-09
1.13282e-09
0
4.85395e-09
0
0
0
0
0
0
0
0
0
0
0
0
0
0
0
0
0
0
0
0
0
0
0
0
0
0
0
0
0
0
0
0
0
0
0
0
0
0
0
0
7.53786e-11
1.95647e-10
3.44902e-10
5.16161e-10
7.18021e-10
9.16428e-10
1.102e-09
1.03636e-09
0
4.83032e-09
0
0
0
0
0
0
0
0
0
0
0
0
0
0
0
0
0
0
0
0
0
0
0
0
0
0
0
0
0
0
0
0
0
0
0
0
0
0
0
0
9.1771e-11
2.15262e-10
3.63614e-10
5.28113e-10
7.12908e-10
8.8124e-10
1.01815e-09
8.99967e-10
0
4.76637e-09
0
0
0
0
0
0
0
0
0
0
0
0
0
0
0
0
0
0
0
0
0
0
0
0
0
0
0
0
0
0
0
0
0
0
0
0
0
0
0
0
1.05311e-10
2.29498e-10
3.7333e-10
5.26267e-10
6.87588e-10
8.17999e-10
8.97043e-10
7.21797e-10
0
4.66976e-09
0
0
0
0
0
0
0
0
0
0
0
0
0
0
0
0
0
0
0
0
0
0
0
0
0
0
0
0
0
0
0
0
0
0
0
0
0
0
0
6.58579e-12
1.15004e-10
2.37077e-10
3.72531e-10
5.08924e-10
6.40346e-10
7.25109e-10
7.37433e-10
5.01456e-10
0
4.54686e-09
0
0
0
0
0
0
0
0
0
0
0
0
0
0
0
0
0
0
0
0
0
0
0
0
0
0
0
0
0
0
0
0
0
0
0
0
0
0
0
1.21832e-11
1.19955e-10
2.36921e-10
3.60036e-10
4.74923e-10
5.70264e-10
6.02113e-10
5.39664e-10
2.40474e-10
0
4.40293e-09
0
0
0
0
0
0
0
0
0
0
0
0
0
0
0
0
0
0
0
0
0
0
0
0
0
0
0
0
0
0
0
0
0
0
0
0
0
0
0
1.46482e-11
1.19457e-10
2.28263e-10
3.35152e-10
4.23833e-10
4.77476e-10
4.50017e-10
3.0609e-10
0
0
4.24234e-09
0
0
0
0
0
0
0
0
0
0
0
0
0
0
0
0
0
0
0
0
0
0
0
0
0
0
0
0
0
0
0
0
0
0
0
0
0
0
0
1.35757e-11
1.13085e-10
2.10767e-10
2.97827e-10
3.56144e-10
3.63409e-10
2.71648e-10
4.1601e-11
0
0
4.06877e-09
0
0
0
0
0
0
0
0
0
0
0
0
0
0
0
0
0
0
0
0
0
0
0
0
0
0
0
0
0
0
0
0
0
0
0
0
0
0
0
8.81051e-12
1.00795e-10
1.84656e-10
2.48811e-10
2.73471e-10
2.31053e-10
7.20513e-11
0
0
0
3.88541e-09
0
0
0
0
0
0
0
0
0
0
0
0
0
0
0
0
0
0
0
0
0
0
0
0
0
0
0
0
0
0
0
0
0
0
0
0
0
0
0
5.26107e-13
8.30211e-11
1.50832e-10
1.89797e-10
1.78739e-10
8.52414e-11
0
0
0
0
3.69504e-09
0
0
0
0
0
0
0
0
0
0
0
0
0
0
0
0
0
0
0
0
0
0
0
0
0
0
0
0
0
0
0
0
0
0
0
0
0
0
0
0
6.07633e-11
1.10979e-10
1.23565e-10
7.63561e-11
0
0
0
0
0
3.50002e-09
0
0
0
0
0
0
0
0
0
0
0
0
0
0
0
0
0
0
0
0
0
0
0
0
0
0
0
0
0
0
0
0
0
0
0
0
0
0
0
0
3.5655e-11
6.76558e-11
5.40688e-11
0
0
0
0
0
0
3.30249e-09
0
0
0
0
0
0
0
0
0
0
0
0
0
0
0
0
0
0
0
0
0
0
0
0
0
0
0
0
0
0
0
0
0
0
0
0
0
0
0
0
1.00079e-11
2.43211e-11
0
0
0
0
0
0
0
3.10442e-09
0
0
0
0
0
0
0
0
0
0
0
0
0
0
0
0
0
0
0
0
0
0
0
0
0
0
0
0
0
0
0
0
0
0
0
0
0
0
0
0
0
0
0
0
0
0
0
0
0
2.90761e-09
0
0
0
0
0
0
0
0
0
0
0
0
0
0
0
0
0
0
0
0
0
0
0
0
0
0
0
0
0
0
0
0
0
0
0
0
0
0
0
0
0
0
0
0
0
0
0
0
0
2.7136e-09
0
0
0
0
0
0
0
0
0
0
0
0
0
0
0
0
0
0
0
0
0
0
0
0
0
0
0
0
0
0
0
0
0
0
0
0
0
0
0
0
0
0
0
0
0
0
0
0
0
2.52373e-09
0
0
0
0
0
0
0
0
0
0
0
0
0
0
0
0
0
0
0
0
0
0
0
0
0
0
0
0
0
0
0
0
0
0
0
0
0
0
0
0
0
0
0
0
0
0
0
0
0
2.33908e-09
0
0
0
0
0
0
0
0
0
0
0
0
0
0
0
0
0
0
0
0
0
0
0
0
0
0
0
0
0
0
0
0
0
0
0
0
0
0
0
0
0
0
0
0
0
0
0
0
0
2.16045e-09
0
0
0
0
0
0
0
0
0
0
0
0
0
0
0
0
0
0
0
0
0
0
0
0
0
0
0
0
0
0
0
0
0
0
0
0
0
0
0
1.07023e-11
3.7487e-11
3.28857e-11
0
0
0
0
0
0
0
1.9884e-09
0
0
0
0
0
0
0
0
0
0
0
0
0
0
0
0
0
0
0
0
0
0
0
0
0
0
0
0
0
0
0
0
0
0
0
0
0
0
0
6.37766e-11
1.0319e-10
1.18408e-10
1.09783e-10
9.20935e-11
7.97283e-11
1.30315e-10
2.88345e-10
5.61325e-10
0
1.82329e-09
0
0
0
0
0
0
0
0
0
0
0
0
0
0
0
0
0
0
0
0
0
0
0
0
0
0
0
0
0
0
0
0
0
0
0
0
0
0
5.54711e-11
1.32495e-10
1.88854e-10
2.28943e-10
2.57636e-10
2.95642e-10
3.64845e-10
5.27864e-10
8.03593e-10
1.05234e-09
0
1.6653e-09
3.24024e-11
0
0
0
0
0
0
0
0
0
0
0
0
0
0
0
0
0
0
0
0
0
0
0
0
0
0
0
0
0
0
0
0
0
0
0
0
1.47594e-11
1.22733e-10
2.14307e-10
2.90228e-10
3.57308e-10
4.23603e-10
5.12917e-10
6.49077e-10
8.89032e-10
1.2115e-09
1.34653e-09
0
1.51449e-09
5.6239e-11
0
0
0
0
0
0
0
0
0
0
0
0
0
0
0
0
0
0
0
0
0
0
0
0
0
0
0
0
0
0
0
0
0
0
0
0
7.68298e-11
1.97244e-10
3.04266e-10
3.99873e-10
4.92186e-10
5.90426e-10
7.17884e-10
8.94354e-10
1.16233e-09
1.4568e-09
1.42584e-09
0
1.37081e-09
6.77626e-11
0
0
0
0
0
0
0
0
0
0
0
0
0
0
0
0
0
0
0
0
0
0
0
0
0
0
0
0
0
0
0
0
0
0
0
0
1.41243e-10
2.7374e-10
3.95037e-10
5.07444e-10
6.18978e-10
7.37742e-10
8.83092e-10
1.06635e-09
1.31188e-09
1.52084e-09
1.32232e-09
0
1.2341e-09
6.88565e-11
0
0
0
0
0
0
0
0
0
0
0
0
0
0
0
0
0
0
0
0
0
0
0
0
0
0
0
0
0
0
0
0
0
0
0
4.84614e-11
2.02773e-10
3.45297e-10
4.77387e-10
6.00666e-10
7.21651e-10
8.45392e-10
9.85148e-10
1.14241e-09
1.32596e-09
1.42224e-09
1.09811e-09
0
1.10415e-09
6.11417e-11
0
0
0
0
0
0
0
0
0
0
0
0
0
0
0
0
0
0
0
0
0
0
0
0
0
0
0
0
0
0
0
0
0
0
0
9.43325e-11
2.55192e-10
4.03957e-10
5.41208e-10
6.67e-10
7.85379e-10
8.97345e-10
1.0099e-09
1.11668e-09
1.21789e-09
1.20579e-09
8.22139e-10
0
9.80656e-10
4.59945e-11
0
0
0
0
0
0
0
0
0
0
0
0
0
0
0
0
0
0
0
0
0
0
0
0
0
0
0
0
0
0
0
0
0
0
0
1.28469e-10
2.91974e-10
4.41738e-10
5.77024e-10
6.95867e-10
7.99507e-10
8.85238e-10
9.55628e-10
1.00062e-09
1.01981e-09
9.26791e-10
5.54041e-10
0
8.63261e-10
2.45741e-11
0
0
0
0
0
0
0
0
0
0
0
0
0
0
0
0
0
0
0
0
0
0
0
0
0
0
0
0
0
0
0
0
0
0
0
1.45985e-10
3.07304e-10
4.52006e-10
5.77814e-10
6.80844e-10
7.60038e-10
8.10455e-10
8.33261e-10
8.19208e-10
7.73154e-10
6.37991e-10
3.3751e-10
0
7.51533e-10
0
0
0
0
0
0
0
0
0
0
0
0
0
0
0
0
0
0
0
0
0
0
0
0
0
0
0
0
0
0
0
0
0
0
0
0
1.43304e-10
2.97266e-10
4.3096e-10
5.40704e-10
6.21417e-10
6.70869e-10
6.84118e-10
6.63836e-10
6.04754e-10
5.19669e-10
3.82371e-10
2.00233e-10
0
6.45033e-10
0
0
0
0
0
0
0
0
0
0
0
0
0
0
0
0
0
0
0
0
0
0
0
0
0
0
0
0
0
0
0
0
0
0
0
0
1.19183e-10
2.61037e-10
3.78879e-10
4.68176e-10
5.23721e-10
5.43656e-10
5.25101e-10
4.74151e-10
3.90836e-10
2.95577e-10
1.90798e-10
1.57097e-10
0
5.43297e-10
0
0
0
0
0
0
0
0
0
0
0
0
0
0
0
0
0
0
0
0
0
0
0
0
0
0
0
0
0
0
0
0
0
0
0
0
7.56142e-11
2.01814e-10
3.00935e-10
3.68468e-10
4.00223e-10
3.96183e-10
3.56893e-10
2.92456e-10
2.07799e-10
1.2886e-10
8.29546e-11
2.14247e-10
0
4.45835e-10
0
0
0
0
0
0
0
0
0
0
0
0
0
0
0
0
0
0
0
0
0
0
0
0
0
0
0
0
0
0
0
0
0
0
0
0
1.8428e-11
1.27233e-10
2.07309e-10
2.55088e-10
2.68352e-10
2.50002e-10
2.04373e-10
1.45065e-10
8.04013e-11
3.91159e-11
6.98977e-11
3.72654e-10
0
3.52121e-10
0
0
0
0
0
0
0
0
0
0
0
0
0
0
0
0
0
0
0
0
0
0
0
0
0
0
0
0
0
0
0
0
0
0
0
0
0
4.92277e-11
1.12469e-10
1.45413e-10
1.48468e-10
1.2779e-10
9.10634e-11
5.42957e-11
2.71901e-11
3.89689e-11
1.56948e-10
6.30748e-10
0
2.61596e-10
0
0
0
0
0
0
0
0
0
0
0
0
0
0
0
0
0
0
0
0
0
0
0
0
0
0
0
0
0
0
0
0
0
0
0
0
0
0
3.41525e-11
5.92098e-11
6.18725e-11
5.12362e-11
3.75456e-11
3.77788e-11
6.12091e-11
1.35954e-10
3.46008e-10
9.86735e-10
0
1.73663e-10
0
0
0
0
0
0
0
0
0
0
0
0
0
0
0
0
0
0
0
0
0
0
0
0
0
0
0
0
0
0
0
0
0
0
0
0
0
0
0
1.69385e-11
2.91223e-11
3.98707e-11
6.09115e-11
1.08902e-10
1.91393e-10
3.34431e-10
6.37558e-10
1.43895e-09
0
8.76866e-11
0
0
0
0
0
0
0
0
0
0
0
0
0
0
0
0
0
0
0
0
0
0
0
0
0
0
0
0
0
0
0
0
0
0
0
0
0
0
5.20408e-12
3.83183e-11
6.89803e-11
1.10389e-10
1.74797e-10
2.77612e-10
4.23847e-10
6.37043e-10
1.03163e-09
1.98664e-09
0
2.97629e-12
0
0
0
0
0
0
0
0
0
0
0
0
0
0
0
0
0
0
0
0
0
0
0
0
0
0
0
0
0
0
0
0
0
0
0
0
0
4.23405e-11
9.3048e-11
1.41393e-10
1.97908e-10
2.76713e-10
3.89987e-10
5.51351e-10
7.62908e-10
1.04568e-09
1.52865e-09
2.63084e-09
0
0
0
0
0
0
0
0
0
0
0
0
0
0
0
0
0
0
0
0
0
0
0
0
0
0
0
0
0
0
0
0
0
0
0
0
0
6.51434e-11
1.42669e-10
2.09462e-10
2.72461e-10
3.41953e-10
4.29862e-10
5.50293e-10
7.15155e-10
9.36067e-10
1.21222e-09
1.5624e-09
2.13011e-09
3.37397e-09
0
0
0
0
0
0
0
0
0
0
0
0
0
0
0
0
0
0
0
0
0
0
0
0
0
0
0
0
0
0
0
0
0
0
0
1.13907e-10
2.24439e-10
3.18846e-10
4.01504e-10
4.78518e-10
5.58511e-10
6.53537e-10
7.76558e-10
9.4062e-10
1.15756e-09
1.43699e-09
1.77527e-09
2.18963e-09
2.83836e-09
4.2194e-09
0
0
0
0
0
0
0
0
0
0
0
0
0
0
0
0
0
0
0
0
0
0
0
0
0
0
0
0
0
0
0
0
1.07459e-11
1.87838e-10
3.38812e-10
4.68522e-10
5.81148e-10
6.80814e-10
7.72557e-10
8.63624e-10
9.64125e-10
1.08764e-09
1.24796e-09
1.45614e-09
1.7237e-09
2.05925e-09
2.45621e-09
2.93054e-09
3.6561e-09
5.17066e-09
0
0
0
0
0
0
0
0
0
0
0
0
0
0
0
0
0
0
0
0
0
0
0
0
0
0
0
0
0
0
4.99751e-11
2.82832e-10
4.82843e-10
6.55743e-10
8.0599e-10
9.38253e-10
1.05646e-09
1.16479e-09
1.26883e-09
1.37684e-09
1.50028e-09
1.65406e-09
1.85267e-09
2.10453e-09
2.41987e-09
2.80777e-09
3.25914e-09
3.78929e-09
4.58752e-09
6.23187e-09
0
0
0
0
0
0
0
0
0
0
0
0
0
0
0
0
0
0
0
0
0
0
0
0
0
0
0
0
1.01445e-10
4.0018e-10
6.56572e-10
8.78512e-10
1.07281e-09
1.24477e-09
1.3979e-09
1.53583e-09
1.66262e-09
1.78242e-09
1.90126e-09
2.02831e-09
2.17624e-09
2.36118e-09
2.59818e-09
2.89291e-09
3.25224e-09
3.68766e-09
4.18841e-09
4.76956e-09
5.63604e-09
7.4069e-09
0
0
0
0
0
0
0
0
0
0
0
0
0
0
0
0
0
0
0
0
0
0
0
0
0
0
1.62944e-10
5.41346e-10
8.65897e-10
1.14482e-09
1.38695e-09
1.60042e-09
1.79181e-09
1.96584e-09
2.12531e-09
2.27193e-09
2.4099e-09
2.54344e-09
2.67895e-09
2.82645e-09
2.99976e-09
3.21615e-09
3.4912e-09
3.82797e-09
4.22686e-09
4.70425e-09
5.2485e-09
5.87488e-09
6.80443e-09
8.69811e-09
0
0
0
0
0
0
0
0
0
0
0
0
0
0
0
0
0
0
0
0
0
0
0
0
2.2348e-10
6.95323e-10
1.10559e-09
1.4577e-09
1.75955e-09
2.02082e-09
2.25107e-09
2.45854e-09
2.64948e-09
2.82809e-09
2.99645e-09
3.15494e-09
3.30627e-09
3.45543e-09
3.60908e-09
3.77804e-09
3.97725e-09
4.2251e-09
4.5377e-09
4.91604e-09
5.34966e-09
5.86252e-09
6.44321e-09
7.10784e-09
8.09422e-09
1.01057e-08
0
0
0
0
0
0
0
0
0
0
0
0
0
0
0
0
0
0
0
0
0
0
2.75093e-10
8.36902e-10
1.34708e-09
1.79489e-09
2.17961e-09
2.5077e-09
2.78937e-09
3.03571e-09
3.25686e-09
3.46099e-09
3.65394e-09
3.83929e-09
4.01847e-09
4.19127e-09
4.35801e-09
4.52419e-09
4.697e-09
4.88806e-09
5.11347e-09
5.39276e-09
5.74249e-09
6.16248e-09
6.62625e-09
7.16686e-09
7.77533e-09
8.46951e-09
9.50455e-09
1.16262e-08
0
0
0
0
0
0
0
0
0
0
0
0
0
0
0
0
0
0
0
0
3.5351e-10
9.57569e-10
1.55086e-09
2.10472e-09
2.59943e-09
3.0268e-09
3.38923e-09
3.69633e-09
3.96074e-09
4.19505e-09
4.40993e-09
4.61344e-09
4.81087e-09
5.00496e-09
5.19649e-09
5.38491e-09
5.56951e-09
5.75397e-09
5.94679e-09
6.16046e-09
6.41227e-09
6.7229e-09
7.10937e-09
7.57071e-09
8.06252e-09
8.62071e-09
9.24611e-09
9.95865e-09
1.10312e-08
1.32514e-08
0
0
0
0
0
0
0
0
0
0
0
0
0
0
0
0
0
2.83118e-11
5.55058e-10
1.12577e-09
1.7256e-09
2.34179e-09
2.94166e-09
3.49343e-09
3.97845e-09
4.39071e-09
4.73563e-09
5.02596e-09
5.27693e-09
5.50268e-09
5.71448e-09
5.9202e-09
6.12447e-09
6.32917e-09
6.53418e-09
6.73855e-09
6.94194e-09
7.14654e-09
7.36024e-09
7.59706e-09
7.87562e-09
8.21772e-09
8.64076e-09
9.14286e-09
9.66237e-09
1.02259e-08
1.08544e-08
1.15705e-08
1.26654e-08
1.49669e-08
0
0
0
0
0
0
0
0
0
0
0
0
0
0
0
3.84035e-10
8.8675e-10
1.42238e-09
1.9888e-09
2.58101e-09
3.19213e-09
3.82044e-09
4.43516e-09
4.99365e-09
5.47759e-09
5.88254e-09
6.2167e-09
6.49591e-09
6.73813e-09
6.95933e-09
7.17156e-09
7.38259e-09
7.59634e-09
7.81372e-09
8.03364e-09
8.25446e-09
8.47569e-09
8.70002e-09
8.93524e-09
9.19577e-09
9.50174e-09
9.87618e-09
1.03369e-08
1.08816e-08
1.14344e-08
1.19868e-08
1.25986e-08
1.32975e-08
1.43927e-08
1.67503e-08
0
0
0
0
0
0
0
0
0
0
0
0
1.32108e-10
6.28392e-10
1.1684e-09
1.73398e-09
2.31404e-09
2.90449e-09
3.50442e-09
4.11305e-09
4.73132e-09
5.36784e-09
6.00866e-09
6.58747e-09
7.08347e-09
7.49296e-09
7.82638e-09
8.10257e-09
8.34233e-09
8.56381e-09
8.78021e-09
8.99949e-09
9.22508e-09
9.45702e-09
9.6933e-09
9.93155e-09
1.0171e-08
1.04147e-08
1.06711e-08
1.09555e-08
1.12891e-08
1.16959e-08
1.21942e-08
1.27811e-08
1.33756e-08
1.39028e-08
1.44735e-08
1.51274e-08
1.61925e-08
1.85692e-08
0
0
0
0
0
0
0
0
0
0
2.14117e-10
6.94002e-10
1.26635e-09
1.89191e-09
2.53408e-09
3.17983e-09
3.81874e-09
4.44834e-09
5.07072e-09
5.68821e-09
6.30775e-09
6.94488e-09
7.62407e-09
8.24496e-09
8.77316e-09
9.20468e-09
9.55184e-09
9.83654e-09
1.00828e-08
1.03112e-08
1.05367e-08
1.07679e-08
1.10081e-08
1.12565e-08
1.15104e-08
1.17667e-08
1.20246e-08
1.22873e-08
1.25644e-08
1.28723e-08
1.32331e-08
1.36716e-08
1.42063e-08
1.48336e-08
1.5475e-08
1.59682e-08
1.64676e-08
1.70407e-08
1.80346e-08
2.0379e-08
0
0
0
0
0
0
0
0
2.37179e-10
6.7314e-10
1.19318e-09
1.81747e-09
2.54068e-09
3.28621e-09
4.0056e-09
4.70044e-09
5.36705e-09
6.01003e-09
6.63708e-09
7.25286e-09
7.8661e-09
8.49906e-09
9.21724e-09
9.91813e-09
1.05103e-08
1.09903e-08
1.13724e-08
1.16819e-08
1.19469e-08
1.21912e-08
1.24323e-08
1.268e-08
1.2938e-08
1.32053e-08
1.34785e-08
1.37541e-08
1.4031e-08
1.43127e-08
1.461e-08
1.49405e-08
1.53274e-08
1.57961e-08
1.6365e-08
1.70293e-08
1.77123e-08
1.81782e-08
1.85637e-08
1.90096e-08
1.98783e-08
2.21214e-08
0
0
0
0
0
0
2.05933e-10
6.35987e-10
1.11534e-09
1.66874e-09
2.32571e-09
3.10185e-09
3.97465e-09
4.81716e-09
5.56842e-09
6.25958e-09
6.9032e-09
7.51885e-09
8.1232e-09
8.723e-09
9.32086e-09
9.94602e-09
1.07001e-08
1.1533e-08
1.2238e-08
1.28063e-08
1.32546e-08
1.36129e-08
1.39143e-08
1.41876e-08
1.44535e-08
1.47241e-08
1.50042e-08
1.5293e-08
1.55871e-08
1.58828e-08
1.61788e-08
1.64795e-08
1.67961e-08
1.71482e-08
1.75599e-08
1.80567e-08
1.86567e-08
1.93529e-08
2.00664e-08
2.05079e-08
2.07348e-08
2.09983e-08
2.16771e-08
2.37343e-08
0
0
0
0
2.15099e-10
5.98386e-10
1.06177e-09
1.58043e-09
2.16079e-09
2.83296e-09
3.63017e-09
4.56061e-09
5.57626e-09
6.47891e-09
7.19494e-09
7.80556e-09
8.35174e-09
8.87994e-09
9.42096e-09
9.98245e-09
1.05541e-08
1.11662e-08
1.19514e-08
1.29847e-08
1.38742e-08
1.45893e-08
1.51493e-08
1.55906e-08
1.59537e-08
1.62742e-08
1.6578e-08
1.68808e-08
1.71894e-08
1.7504e-08
1.78216e-08
1.81386e-08
1.84542e-08
1.87733e-08
1.91081e-08
1.94796e-08
1.99133e-08
2.04345e-08
2.106e-08
2.17787e-08
2.25025e-08
2.28926e-08
2.29179e-08
2.29456e-08
2.33729e-08
2.51635e-08
0
0
6.51774e-10
8.79878e-10
1.17008e-09
1.59938e-09
2.13058e-09
2.73376e-09
3.41416e-09
4.20316e-09
5.13592e-09
6.21029e-09
7.34225e-09
8.23553e-09
8.82324e-09
9.2563e-09
9.61385e-09
9.98088e-09
1.04085e-08
1.09034e-08
1.1436e-08
1.20263e-08
1.28352e-08
1.41234e-08
1.53062e-08
1.62504e-08
1.69859e-08
1.75587e-08
1.80195e-08
1.84134e-08
1.87736e-08
1.91216e-08
1.94674e-08
1.98137e-08
2.01583e-08
2.04986e-08
2.08344e-08
2.11714e-08
2.15229e-08
2.1911e-08
2.2363e-08
2.29034e-08
2.35458e-08
2.42708e-08
2.49657e-08
2.52109e-08
2.49917e-08
2.47515e-08
2.48973e-08
2.63829e-08
1.17242e-09
2.68393e-09
2.43188e-09
2.27006e-09
2.45424e-09
2.88151e-09
3.459e-09
4.13523e-09
4.90829e-09
5.80706e-09
6.86601e-09
8.06616e-09
9.26418e-09
1.00264e-08
1.03776e-08
1.05368e-08
1.06246e-08
1.07673e-08
1.10373e-08
1.14392e-08
1.19218e-08
1.24774e-08
1.32827e-08
1.47946e-08
1.64055e-08
1.76816e-08
1.86729e-08
1.94395e-08
2.00456e-08
2.05484e-08
2.09916e-08
2.1404e-08
2.18009e-08
2.21882e-08
2.25656e-08
2.2932e-08
2.32884e-08
2.36417e-08
2.40069e-08
2.44076e-08
2.48724e-08
2.5424e-08
2.60695e-08
2.67702e-08
2.73504e-08
2.72603e-08
2.67747e-08
2.62786e-08
2.61764e-08
2.74087e-08
1.73871e-08
8.6153e-09
5.27715e-09
4.17489e-09
4.1264e-09
4.49168e-09
5.08692e-09
5.82027e-09
6.67065e-09
7.65921e-09
8.81833e-09
1.01021e-08
1.12605e-08
1.17117e-08
1.17594e-08
1.16205e-08
1.14471e-08
1.13827e-08
1.15035e-08
1.18093e-08
1.22392e-08
1.27464e-08
1.3474e-08
1.49377e-08
1.70462e-08
1.87598e-08
2.00975e-08
2.11322e-08
2.19428e-08
2.2601e-08
2.31628e-08
2.36664e-08
2.41339e-08
2.45755e-08
2.49942e-08
2.53909e-08
2.57687e-08
2.61367e-08
2.6512e-08
2.69206e-08
2.73918e-08
2.79431e-08
2.85666e-08
2.91784e-08
2.94227e-08
2.88343e-08
2.81225e-08
2.74415e-08
2.72072e-08
2.83528e-08
1.70371e-08
1.63461e-08
9.11443e-09
6.46185e-09
6.12141e-09
6.42538e-09
7.0222e-09
7.79637e-09
8.70188e-09
9.74674e-09
1.09618e-08
1.2249e-08
1.31375e-08
1.31324e-08
1.28905e-08
1.25758e-08
1.23284e-08
1.22392e-08
1.23394e-08
1.26157e-08
1.30205e-08
1.34956e-08
1.40898e-08
1.50639e-08
1.71072e-08
1.93374e-08
2.11037e-08
2.24877e-08
2.35756e-08
2.44505e-08
2.51805e-08
2.58143e-08
2.63816e-08
2.68981e-08
2.73707e-08
2.78038e-08
2.82039e-08
2.85835e-08
2.89634e-08
2.93733e-08
2.9841e-08
3.03726e-08
3.09264e-08
3.13075e-08
3.08598e-08
2.99558e-08
2.90967e-08
2.83777e-08
2.82028e-08
2.94985e-08
6.11791e-09
1.96439e-08
1.31767e-08
9.01542e-09
8.05216e-09
8.43342e-09
9.10325e-09
9.93716e-09
1.0876e-08
1.19237e-08
1.31189e-08
1.42493e-08
1.45089e-08
1.41359e-08
1.38322e-08
1.36799e-08
1.36868e-08
1.38195e-08
1.40559e-08
1.43937e-08
1.48263e-08
1.53219e-08
1.58494e-08
1.64299e-08
1.72444e-08
1.89529e-08
2.12794e-08
2.31593e-08
2.46462e-08
2.58347e-08
2.68087e-08
2.76309e-08
2.83414e-08
2.89633e-08
2.95096e-08
2.99897e-08
3.04154e-08
3.08046e-08
3.11839e-08
3.15882e-08
3.20396e-08
3.25203e-08
3.29176e-08
3.27479e-08
3.17056e-08
3.07089e-08
2.98622e-08
2.92696e-08
2.9318e-08
3.09296e-08
1.01318e-09
1.63345e-08
1.55644e-08
1.13793e-08
9.44445e-09
9.77043e-09
1.06846e-08
1.16432e-08
1.25957e-08
1.35759e-08
1.46443e-08
1.53595e-08
1.49385e-08
1.45869e-08
1.45969e-08
1.49065e-08
1.53274e-08
1.57417e-08
1.62169e-08
1.66434e-08
1.70968e-08
1.74326e-08
1.77723e-08
1.82448e-08
1.87201e-08
1.92705e-08
2.03592e-08
2.25875e-08
2.45745e-08
2.61624e-08
2.74555e-08
2.85295e-08
2.94339e-08
3.01988e-08
3.08437e-08
3.1385e-08
3.18419e-08
3.22406e-08
3.2616e-08
3.30092e-08
3.34285e-08
3.38119e-08
3.38987e-08
3.29807e-08
3.18306e-08
3.09015e-08
3.02462e-08
2.9935e-08
3.03342e-08
3.23463e-08
0
0
0
0
1.00285e-10
8.33681e-11
6.02124e-11
4.95877e-11
4.07474e-11
2.94681e-11
9.66416e-12
0
0
0
0
0
0
0
2.78009e-12
0
0
0
0
0
0
0
3.14213e-09
7.92502e-09
8.41125e-09
1.4002e-08
3.17074e-08
4.40558e-08
4.23762e-08
3.09176e-08
1.45112e-08
3.9644e-09
0
0
0
0
0
6.42875e-10
1.83102e-10
0
9.47962e-10
2.09143e-09
3.20992e-09
3.44276e-09
2.5896e-09
0
0
0
0
0
0
1.75935e-09
2.28673e-09
3.12825e-09
4.99944e-09
1.00148e-08
1.65911e-08
2.24594e-08
2.06021e-08
4.22118e-09
0
0
0
0
0
2.42234e-07
6.28118e-08
0
0
0
0
0
0
0
0
0
0
5.39484e-10
0
0
0
0
0
0
0
0
0
1.98698e-08
3.54155e-08
0
0
0
0
1.37855e-09
1.44721e-08
1.63981e-08
0
0
0
0
2.88008e-11
4.3009e-11
4.46249e-11
4.19073e-11
3.66716e-11
2.97567e-11
1.71289e-11
0
0
0
0
0
0
1.94846e-11
6.90267e-11
6.1318e-11
0
0
0
0
0
0
3.01736e-09
6.00101e-09
5.48859e-09
1.3841e-08
3.29965e-08
4.49653e-08
4.32166e-08
3.05667e-08
1.40775e-08
3.77384e-09
0
0
0
0
3.26785e-11
9.00606e-10
5.834e-10
0
6.68276e-10
2.0059e-09
3.23155e-09
3.40111e-09
2.59541e-09
0
0
0
0
0
0
1.2333e-09
1.73467e-09
2.39479e-09
4.07017e-09
8.92651e-09
1.55367e-08
2.11733e-08
1.8955e-08
1.32024e-09
0
0
0
0
0
2.32692e-07
6.93625e-08
3.9256e-10
0
0
0
0
0
0
0
0
0
2.56416e-10
6.06839e-11
0
0
0
0
0
0
0
0
1.25186e-08
6.06959e-08
0
0
0
0
1.32219e-09
8.15714e-09
1.71496e-08
0
1.81873e-11
0
0
0
1.47637e-11
2.57281e-11
2.89306e-11
2.72383e-11
2.35134e-11
1.57149e-11
2.24005e-12
0
0
0
0
1.6677e-12
3.80493e-11
1.08276e-10
2.14274e-10
7.03546e-11
0
0
0
0
0
2.20883e-09
2.89086e-09
3.58559e-09
1.41352e-08
3.41491e-08
4.57048e-08
4.40176e-08
3.01109e-08
1.35942e-08
3.54197e-09
0
0
0
0
2.09111e-10
1.16304e-09
1.08591e-09
0
1.97123e-10
1.93316e-09
3.2052e-09
3.36065e-09
2.48589e-09
0
0
0
0
0
0
6.6543e-10
1.15571e-09
1.63479e-09
3.11564e-09
7.80827e-09
1.44312e-08
1.99048e-08
1.73633e-08
0
0
0
0
0
0
2.0141e-07
7.27435e-08
4.45166e-09
0
0
0
0
0
0
0
0
0
0
1.14336e-10
0
0
0
0
0
0
0
0
3.80301e-09
8.00771e-08
0
0
0
0
2.76285e-09
1.27617e-08
3.57496e-08
0
3.11553e-11
0
0
0
0
1.12677e-11
1.6948e-11
1.74858e-11
1.571e-11
1.08708e-11
1.83315e-12
0
0
0
0
1.36883e-11
5.37587e-11
1.32934e-10
2.81379e-10
4.17685e-10
0
0
0
0
0
6.6835e-10
1.5775e-10
2.42946e-09
1.46657e-08
3.49696e-08
4.60895e-08
4.44723e-08
2.93524e-08
1.29447e-08
3.24605e-09
0
0
1.72173e-10
3.3206e-10
4.66223e-10
1.41517e-09
1.66379e-09
0
0
1.7875e-09
3.11423e-09
3.30008e-09
2.32523e-09
2.05442e-11
0
0
0
0
0
4.66997e-11
5.41458e-10
8.41733e-10
2.11919e-09
6.59949e-09
1.31937e-08
1.84938e-08
1.56968e-08
0
0
0
0
0
0
1.54299e-07
7.1796e-08
8.13327e-09
0
0
0
0
0
0
0
0
0
0
1.18821e-10
0
0
0
0
0
0
0
0
0
8.62101e-08
0
0
0
0
2.95384e-09
1.47386e-08
4.04554e-08
0
4.0961e-11
0
0
0
0
3.05638e-12
8.74786e-12
1.00754e-11
9.06605e-12
5.63485e-12
0
0
0
0
7.6551e-12
2.83465e-11
7.06018e-11
1.54163e-10
3.0987e-10
5.59808e-10
5.79991e-10
0
0
0
0
0
0
1.74684e-09
1.52434e-08
3.53178e-08
4.60235e-08
4.43795e-08
2.81623e-08
1.20766e-08
2.87523e-09
0
4.03955e-11
7.85718e-10
9.87229e-10
8.32581e-10
1.63653e-09
2.25549e-09
3.47491e-10
0
1.40556e-09
2.92134e-09
3.20322e-09
2.1663e-09
4.70124e-10
0
0
0
0
0
0
0
2.65872e-11
1.08591e-09
5.28974e-09
1.17801e-08
1.69004e-08
1.3977e-08
0
0
0
0
0
0
1.02173e-07
6.60262e-08
1.09028e-08
0
0
0
0
0
0
0
0
0
0
5.29299e-11
0
0
0
0
0
0
0
0
0
7.68813e-08
0
0
0
0
2.82263e-09
1.32693e-08
3.5562e-08
0
4.92421e-11
0
0
0
0
0
4.52475e-12
5.72118e-12
4.67302e-12
1.57869e-12
0
0
0
0
1.79329e-11
4.49605e-11
9.0532e-11
1.78454e-10
3.27747e-10
6.00451e-10
8.80163e-10
5.95466e-10
0
0
0
0
0
1.37617e-09
1.56943e-08
3.51676e-08
4.56427e-08
4.35766e-08
2.65369e-08
1.09602e-08
2.44394e-09
2.57077e-10
6.61618e-10
1.48836e-09
1.77894e-09
1.32919e-09
1.81949e-09
2.80359e-09
1.13151e-09
0
5.70778e-10
2.64492e-09
3.03843e-09
2.02133e-09
6.87218e-10
0
0
0
0
0
0
0
0
1.82568e-11
3.8791e-09
1.01684e-08
1.51275e-08
1.2229e-08
0
0
0
0
0
0
5.29421e-08
5.59093e-08
1.23799e-08
0
0
0
0
0
0
0
0
0
0
0
0
0
0
0
0
0
0
0
0
5.67878e-08
0
0
0
0
2.7796e-09
1.16634e-08
3.17678e-08
0
5.30506e-11
0
0
0
0
0
2.99223e-12
3.74701e-12
2.23296e-12
0
0
0
0
4.15836e-12
2.77652e-11
6.24278e-11
1.14433e-10
2.04239e-10
3.54016e-10
5.97446e-10
9.81325e-10
1.16478e-09
4.23288e-10
0
0
0
0
1.23498e-09
1.59033e-08
3.47091e-08
4.48728e-08
4.17441e-08
2.46713e-08
9.58847e-09
2.00051e-09
7.16804e-10
1.43496e-09
2.25454e-09
2.71132e-09
1.97732e-09
1.97442e-09
3.24876e-09
2.1385e-09
0
0
2.26437e-09
2.77194e-09
1.88579e-09
8.20258e-10
0
0
0
0
0
0
0
0
0
2.38098e-09
8.37878e-09
1.31743e-08
1.04816e-08
0
0
0
0
0
0
1.01835e-08
4.24073e-08
1.23138e-08
0
0
0
0
0
0
0
0
0
0
0
0
0
0
0
0
0
0
0
0
3.29905e-08
1.48721e-07
0
0
0
2.7103e-09
1.07119e-08
2.92392e-08
0
5.27101e-11
0
0
0
0
0
2.74848e-12
3.05288e-12
9.20436e-13
0
0
0
0
9.44983e-12
3.85173e-11
8.05803e-11
1.4087e-10
2.31545e-10
3.85979e-10
6.0277e-10
9.75157e-10
1.36532e-09
1.16304e-09
0
0
0
0
1.27709e-09
1.59669e-08
3.38802e-08
4.34749e-08
3.91243e-08
2.23537e-08
7.93963e-09
1.62371e-09
1.39174e-09
2.33798e-09
3.09794e-09
3.75427e-09
2.78774e-09
2.12959e-09
3.52744e-09
3.23491e-09
0
0
1.52093e-09
2.4152e-09
1.75431e-09
9.37094e-10
0
0
0
0
0
0
0
0
0
8.12243e-10
6.43374e-09
1.10519e-08
8.7525e-09
0
0
0
0
0
0
0
2.67415e-08
1.06539e-08
0
0
0
0
0
0
0
0
0
0
0
0
0
0
0
0
0
0
0
0
1.08671e-08
1.70766e-07
0
0
0
2.55893e-09
1.01883e-08
2.72911e-08
0
4.99255e-11
6.01526e-12
0
0
0
0
2.64714e-12
2.61871e-12
0
0
0
0
0
1.61957e-11
5.16252e-11
1.00468e-10
1.68102e-10
2.63506e-10
4.13446e-10
6.28653e-10
9.30571e-10
1.35539e-09
1.44368e-09
5.39974e-10
0
0
0
1.49301e-09
1.60182e-08
3.24739e-08
4.13622e-08
3.57526e-08
1.95469e-08
6.04456e-09
1.44934e-09
2.31206e-09
3.31307e-09
4.07308e-09
4.84546e-09
3.75146e-09
2.32984e-09
3.57968e-09
4.24087e-09
0
0
2.93824e-11
2.00749e-09
1.5975e-09
1.06369e-09
6.21168e-10
0
0
0
0
0
0
0
0
0
4.35553e-09
8.77788e-09
7.05788e-09
0
0
0
0
0
0
0
1.00929e-08
7.54421e-09
0
0
0
0
0
0
0
0
0
0
0
0
0
0
0
0
0
0
0
0
0
1.12395e-07
0
0
0
2.355e-09
1.00079e-08
2.55164e-08
0
4.59137e-11
1.15604e-11
0
0
0
0
2.01259e-12
1.7178e-12
0
0
0
0
0
2.51588e-11
6.80812e-11
1.23794e-10
1.96959e-10
2.97934e-10
4.37347e-10
6.48737e-10
9.08407e-10
1.22823e-09
1.43797e-09
8.3561e-10
0
0
0
1.89397e-09