/*--------------------------------*- C++ -*----------------------------------*\
  =========                 |
  \\      /  F ield         | OpenFOAM: The Open Source CFD Toolbox
   \\    /   O peration     | Website:  https://openfoam.org
    \\  /    A nd           | Version:  7
     \\/     M anipulation  |
\*---------------------------------------------------------------------------*/
FoamFile
{
    version     2.0;
    format      ascii;
    class       volScalarField;
    location    "0.48";
    object      p;
}
// * * * * * * * * * * * * * * * * * * * * * * * * * * * * * * * * * * * * * //

dimensions      [0 2 -2 0 0 0 0];

internalField   nonuniform List<scalar> 
70000
(
0.0952936
0.0184034
0.00525537
0.00770353
0.00795826
0.00690313
0.00593324
0.00519027
0.00456558
0.00400942
0.00350798
0.00305329
0.0026378
0.00225486
0.00189899
0.00156573
0.00125144
0.000953106
0.000668203
0.000394582
0.000130399
-0.000125966
-0.000375944
-0.000620835
-0.000861829
-0.00110005
-0.00133658
-0.00157247
-0.00180878
-0.00204664
-0.00228716
-0.00253164
-0.00278142
-0.00303811
-0.00330342
-0.00357948
-0.00386869
-0.00417382
-0.00449878
-0.00484657
-0.00522493
-0.00563475
-0.00609414
-0.0065938
-0.00717932
-0.00780917
-0.00859653
-0.00941856
-0.0105252
-0.0117678
0.0909934
0.0187653
0.00545795
0.00779814
0.00801267
0.00693889
0.00596114
0.00521332
0.00458493
0.00402596
0.00352238
0.00306601
0.00264917
0.00226512
0.00190831
0.00157427
0.0012593
0.000960383
0.000674972
0.000400904
0.000136325
-0.000120393
-0.000370687
-0.000615863
-0.000857116
-0.00109558
-0.00133231
-0.00156841
-0.0018049
-0.00204292
-0.0022836
-0.00252824
-0.00277815
-0.00303497
-0.0033004
-0.00357658
-0.0038659
-0.00417114
-0.00449621
-0.0048441
-0.00522258
-0.00563251
-0.00609203
-0.00659181
-0.00717751
-0.00780761
-0.00859498
-0.00941903
-0.0105212
-0.0117093
0.0873881
0.0196878
0.00580253
0.00792678
0.00808737
0.00698392
0.00599353
0.00523955
0.0046068
0.00404447
0.00353834
0.00308003
0.00266164
0.00227633
0.00191848
0.00158356
0.00126785
0.000968287
0.000682318
0.000407761
0.000142751
-0.000114349
-0.000364985
-0.000610468
-0.000851997
-0.00109071
-0.00132767
-0.00156397
-0.00180066
-0.00203885
-0.00227969
-0.00252447
-0.00277451
-0.00303145
-0.00329699
-0.00357326
-0.00386267
-0.00416798
-0.00449311
-0.00484103
-0.00521954
-0.00562944
-0.00608898
-0.00658863
-0.00717434
-0.00780424
-0.00859128
-0.00941685
-0.0104972
-0.0116365
0.0842834
0.0207869
0.00627897
0.00809939
0.0081886
0.00704192
0.00603179
0.00526953
0.00463146
0.00406505
0.00355585
0.00309523
0.00267506
0.00228832
0.0019293
0.0015934
0.00127687
0.00097661
0.000690037
0.000414955
0.000149485
-0.000108021
-0.000359017
-0.000604821
-0.000846637
-0.0010856
-0.0013228
-0.00155931
-0.00179618
-0.00203455
-0.00227553
-0.00252044
-0.0027706
-0.00302764
-0.00329325
-0.00356959
-0.00385903
-0.00416435
-0.00448946
-0.00483732
-0.00521572
-0.00562544
-0.00608474
-0.00658403
-0.0071692
-0.00779865
-0.00858349
-0.00941088
-0.0104558
-0.011548
0.0813272
0.0218807
0.00685248
0.00831763
0.00832321
0.0071204
0.0060809
0.0053066
0.00466154
0.00408977
0.00357654
0.00311294
0.00269051
0.00230199
0.00194154
0.00160447
0.00128696
0.000985867
0.000698588
0.000422898
0.0001569
-0.000101068
-0.00035247
-0.000598632
-0.000840766
-0.00108001
-0.00131746
-0.00155419
-0.00179126
-0.00202979
-0.00227093
-0.00251596
-0.00276622
-0.00302333
-0.00328899
-0.00356534
-0.00385477
-0.00416001
-0.00448501
-0.00483268
-0.00521081
-0.00562015
-0.00607888
-0.00657751
-0.00716139
-0.00779012
-0.00857032
-0.00939923
-0.0103985
-0.0114391
0.07842
0.0229129
0.00747639
0.00856211
0.00848537
0.00722097
0.00614352
0.00535302
0.00469898
0.00412038
0.00360193
0.00313447
0.00270912
0.00231833
0.00195606
0.0016175
0.00129876
0.000996643
0.000708495
0.000432063
0.000165426
-9.30953e-05
-0.00034498
-0.000591564
-0.000834067
-0.00107364
-0.00131137
-0.00154835
-0.00178563
-0.00202435
-0.00226563
-0.00251078
-0.00276113
-0.00301829
-0.00328397
-0.00356028
-0.00384962
-0.00415471
-0.00447947
-0.0048268
-0.00520444
-0.00561315
-0.0060709
-0.0065685
-0.00715014
-0.00777775
-0.00855035
-0.00937947
-0.010327
-0.0113106
0.0755547
0.0238662
0.00811734
0.00881163
0.0086618
0.0073389
0.0062186
0.00540871
0.0047442
0.00415754
0.00363277
0.00316056
0.00273162
0.00233802
0.00197349
0.00163309
0.00131283
0.00100945
0.000720227
0.000442884
0.000175466
-8.37296e-05
-0.000336198
-0.000583289
-0.000826234
-0.00106619
-0.00130426
-0.00154152
-0.00177904
-0.00201796
-0.0022594
-0.00250467
-0.00275509
-0.00301228
-0.00327792
-0.00355414
-0.00384331
-0.00414814
-0.00447253
-0.00481933
-0.00519624
-0.00560402
-0.00606029
-0.00655639
-0.00713464
-0.00776051
-0.00852231
-0.00934837
-0.0102424
-0.0111658
0.0727404
0.0247342
0.00875916
0.00905449
0.00884157
0.00746764
0.00630273
0.00547163
0.00479597
0.00420064
0.00366885
0.00319126
0.00275819
0.00236132
0.00199416
0.00165159
0.00132952
0.00102463
0.00073413
0.000455697
0.000187344
-7.26567e-05
-0.000325822
-0.000573517
-0.000816985
-0.00105739
-0.00129585
-0.00153344
-0.00177124
-0.00201037
-0.00225199
-0.00249737
-0.00274785
-0.00300503
-0.00327061
-0.00354666
-0.00383558
-0.00414002
-0.00446387
-0.00480993
-0.0051858
-0.00559229
-0.00604651
-0.00654055
-0.00711412
-0.0077373
-0.00848514
-0.00930392
-0.0101458
-0.0110079
0.0699836
0.0255143
0.00939638
0.00928682
0.00901853
0.00760228
0.00639258
0.00553918
0.00485229
0.00424823
0.00370918
0.00322589
0.00278839
0.00238799
0.00201793
0.00167296
0.00134888
0.00104228
0.000750331
0.000470655
0.000201232
-5.96939e-05
-0.000313661
-0.000562051
-0.00080612
-0.00104705
-0.00128594
-0.00152391
-0.00176201
-0.00200139
-0.00224319
-0.00248868
-0.0027392
-0.00299634
-0.00326179
-0.00353761
-0.00382617
-0.00413007
-0.00445319
-0.00479827
-0.00517277
-0.00557756
-0.00602906
-0.00652038
-0.00708786
-0.00770704
-0.00843804
-0.0092445
-0.0100376
-0.0108398
0.0672877
0.0262058
0.0100276
0.00950848
0.00918977
0.00774004
0.00648607
0.00560942
0.00491134
0.00429878
0.00375248
0.00326343
0.00282142
0.00241738
0.00204432
0.00169683
0.00137062
0.0010622
0.000768697
0.000487678
0.000217091
-4.48447e-05
-0.00029969
-0.000548844
-0.000793575
-0.00103507
-0.00127445
-0.00151282
-0.00175126
-0.00199089
-0.00223287
-0.00247846
-0.002729
-0.00298605
-0.00325131
-0.00352679
-0.00381488
-0.00411809
-0.00444028
-0.0047841
-0.00515685
-0.00555948
-0.00600756
-0.00649542
-0.00705537
-0.00766886
-0.00838055
-0.0091693
-0.00991822
-0.0106639
0.064656
0.026809
0.0106518
0.00972047
0.00935388
0.00787944
0.00658221
0.00568125
0.00497195
0.00435114
0.0037977
0.00330292
0.00285641
0.00244874
0.00207267
0.00172264
0.00139427
0.001084
0.000788897
0.000506491
0.000234697
-2.82926e-05
-0.000284057
-0.000534011
-0.000779436
-0.00102153
-0.00126142
-0.00150021
-0.00173898
-0.00197887
-0.00222101
-0.00246667
-0.00271719
-0.0029741
-0.0032391
-0.00351414
-0.00380162
-0.00410396
-0.00442499
-0.00476726
-0.00513786
-0.00553788
-0.00598177
-0.00646533
-0.00701637
-0.00762219
-0.00831259
-0.00907846
-0.00978796
-0.0104819
0.0620914
0.0273244
0.0112674
0.00992402
0.00950998
0.00801954
0.0066806
0.0057542
0.0050335
0.00440465
0.00384418
0.0033437
0.00289272
0.00248145
0.0021024
0.00174985
0.00141933
0.00110722
0.000810519
0.000526724
0.000253718
-1.03316e-05
-0.000267023
-0.000517784
-0.000763909
-0.0010066
-0.001247
-0.0014862
-0.0017253
-0.00196542
-0.0022077
-0.0024534
-0.00270384
-0.00296054
-0.00322519
-0.00349969
-0.00378641
-0.00408771
-0.00440733
-0.00474776
-0.00511579
-0.0055127
-0.00595166
-0.00643002
-0.00697086
-0.00756686
-0.00823451
-0.00897306
-0.00964745
-0.010295
0.0595968
0.0277525
0.0118722
0.0101205
0.00965741
0.00815954
0.00678112
0.00582814
0.00509569
0.00445898
0.00389157
0.0033854
0.00292996
0.00251511
0.0021331
0.00177806
0.00144542
0.00113148
0.000833196
0.000548028
0.000273823
8.72709e-06
-0.000248878
-0.000500435
-0.000747246
-0.000990525
-0.00123141
-0.00147101
-0.0017104
-0.00195072
-0.00219311
-0.00243879
-0.0026891
-0.00294552
-0.00320971
-0.00348355
-0.00376937
-0.00406943
-0.0043874
-0.00472569
-0.00509074
-0.00548404
-0.00591737
-0.00638959
-0.00691912
-0.00750313
-0.00814703
-0.00885488
-0.00949735
-0.010104
0.0571747
0.0280943
0.0124634
0.0103113
0.0097957
0.00829857
0.00688363
0.00590304
0.00515839
0.00451399
0.00393973
0.00342786
0.00296793
0.00254951
0.00216454
0.00180702
0.00147226
0.00115651
0.000856664
0.000570139
0.000294753
2.86265e-05
-0.000229875
-0.000482209
-0.000729687
-0.000973528
-0.00121487
-0.00145484
-0.0016945
-0.00193499
-0.00217742
-0.00242304
-0.00267315
-0.0029292
-0.00319285
-0.00346591
-0.00375066
-0.0040493
-0.00436538
-0.00470125
-0.00506291
-0.00545212
-0.00587918
-0.00634432
-0.00686161
-0.00743158
-0.00805113
-0.00872602
-0.00933866
-0.00990925
0.0548275
0.0283512
0.013038
0.010498
0.00992453
0.00843571
0.00698798
0.00597892
0.00522153
0.00456958
0.00398859
0.00347099
0.00300654
0.00258454
0.00219661
0.0018366
0.00149973
0.00118217
0.000880768
0.000592894
0.000316336
4.91924e-05
-0.000210191
-0.000463285
-0.00071141
-0.000955793
-0.00119758
-0.00143788
-0.00167778
-0.00191838
-0.00216083
-0.00240632
-0.00265616
-0.00291177
-0.00317478
-0.00344693
-0.00373048
-0.00402753
-0.00434149
-0.00467465
-0.00503256
-0.00541722
-0.00583742
-0.00629459
-0.00679887
-0.00735302
-0.00794788
-0.00858862
-0.00917257
-0.00971068
0.0525571
0.028525
0.0135927
0.0106822
0.0100437
0.00856997
0.00709395
0.0060558
0.00528503
0.00462569
0.0040381
0.00351477
0.00304577
0.00262016
0.00222927
0.00186676
0.00152777
0.00120839
0.000905427
0.000616205
0.00033848
7.03255e-05
-0.000189931
-0.000443773
-0.000692531
-0.000937437
-0.00117964
-0.00142025
-0.00166035
-0.00190105
-0.00214346
-0.00238878
-0.00263829
-0.00289338
-0.00315565
-0.00342679
-0.003709
-0.00400429
-0.0043159
-0.0046461
-0.00499992
-0.00537957
-0.00579244
-0.00624079
-0.00673146
-0.0072683
-0.00783835
-0.0084446
-0.00900022
-0.00950804
0.0503652
0.0286178
0.0141245
0.0108652
0.0101533
0.00870034
0.00720124
0.00613372
0.00534884
0.00468222
0.00408823
0.00355918
0.0030856
0.00265635
0.00226248
0.00189746
0.00155634
0.00123514
0.000930611
0.000640038
0.000361144
9.19798e-05
-0.000169146
-0.000423728
-0.000673109
-0.000918525
-0.00116113
-0.00140203
-0.00164231
-0.00188306
-0.00212539
-0.00237049
-0.00261961
-0.00287411
-0.00313556
-0.00340559
-0.00368631
-0.00397969
-0.00428875
-0.00461574
-0.00496516
-0.0053394
-0.0057445
-0.00618327
-0.00665984
-0.00717822
-0.00772341
-0.00829545
-0.00882258
-0.00930107
0.048253
0.0286323
0.0146301
0.0110479
0.0102535
0.00882581
0.00730946
0.00621268
0.00541292
0.0047391
0.00413892
0.00360419
0.00312601
0.0026931
0.00229624
0.00192871
0.00158545
0.00126242
0.000956311
0.00066438
0.000384315
0.00011414
-0.000147852
-0.000403171
-0.000653167
-0.000899082
-0.00114207
-0.00138324
-0.00162367
-0.00186445
-0.00210667
-0.0023515
-0.00260018
-0.00285402
-0.00311456
-0.00338338
-0.0036625
-0.0039538
-0.00426013
-0.00458367
-0.00492842
-0.00529684
-0.00569378
-0.00612229
-0.00658437
-0.00708343
-0.00760376
-0.00814222
-0.00864036
-0.0090895
0.0462212
0.0285718
0.0151067
0.0112312
0.0103446
0.00894542
0.00741814
0.0062927
0.00547721
0.00479624
0.00419013
0.0036498
0.00316698
0.00273041
0.00233055
0.0019605
0.00161508
0.00129021
0.000982527
0.000689234
0.000407993
0.000136807
-0.000126052
-0.000382103
-0.000632708
-0.000879111
-0.00112247
-0.00136389
-0.00160446
-0.00184523
-0.00208731
-0.00233182
-0.00258
-0.00283312
-0.00309268
-0.00336018
-0.00363757
-0.00392666
-0.00423007
-0.00454993
-0.00488974
-0.00525196
-0.00564041
-0.00605805
-0.00650526
-0.00698442
-0.00747989
-0.00798556
-0.00845406
-0.00887315
0.0442702
0.0284399
0.0155512
0.0114155
0.0104273
0.00905826
0.00752673
0.00637375
0.0055417
0.00485354
0.00424179
0.00369596
0.0032085
0.00276826
0.0023654
0.00199282
0.00164525
0.00131854
0.00100926
0.000714603
0.000432185
0.000159986
-0.000103737
-0.000360517
-0.000611724
-0.000858606
-0.00110232
-0.00134398
-0.00158465
-0.00182539
-0.00206728
-0.00231144
-0.00255907
-0.00281141
-0.00306989
-0.00333599
-0.00361153
-0.00389825
-0.00419856
-0.00451451
-0.00484912
-0.00520479
-0.0055844
-0.00599064
-0.00642266
-0.0068815
-0.00735212
-0.0078258
-0.00826397
-0.0086519
0.0423998
0.0282408
0.0159608
0.0116009
0.0105023
0.00916355
0.00763456
0.00645576
0.00560636
0.0049109
0.00429382
0.00374265
0.00325056
0.00280663
0.00240078
0.00202568
0.00167596
0.00134739
0.00103652
0.000740495
0.000456898
0.000183687
-8.08976e-05
-0.000338402
-0.000590202
-0.000837552
-0.00108161
-0.00132349
-0.00156424
-0.00180492
-0.00204659
-0.00229035
-0.00253737
-0.00278885
-0.00304618
-0.00331077
-0.00358433
-0.00386854
-0.00416558
-0.00447739
-0.00480656
-0.00515532
-0.00552578
-0.00592014
-0.00633665
-0.0067749
-0.00722065
-0.0076631
-0.00807028
-0.00842579
0.0406097
0.027979
0.0163329
0.011787
0.0105703
0.00926063
0.00774091
0.00653863
0.0056712
0.00496822
0.00434614
0.00378982
0.00329314
0.00284551
0.00243668
0.00205906
0.00170719
0.00137677
0.00106431
0.000766916
0.00048214
0.00020792
-5.75224e-05
-0.000315744
-0.000568128
-0.000815934
-0.00106032
-0.00130239
-0.0015432
-0.00178378
-0.0020252
-0.00226851
-0.00251486
-0.00276542
-0.00302151
-0.00328449
-0.00355595
-0.00383749
-0.00413107
-0.00443852
-0.00476199
-0.00510351
-0.0054645
-0.00584657
-0.00624727
-0.00666478
-0.00708563
-0.00749748
-0.00787314
-0.00819497
0.038899
0.0276595
0.0166653
0.0119733
0.0106324
0.00934903
0.00784497
0.00662217
0.00573621
0.00502543
0.00439865
0.00383743
0.00333619
0.00288489
0.00247308
0.00209296
0.00173894
0.00140668
0.00109264
0.00079387
0.000507919
0.000232694
-3.36e-05
-0.00029253
-0.000545489
-0.000793736
-0.00103843
-0.00128068
-0.00152151
-0.00176197
-0.00200309
-0.0022459
-0.00249152
-0.00274108
-0.00299585
-0.0032571
-0.00352635
-0.00380506
-0.00409501
-0.00439785
-0.00471539
-0.00504934
-0.00540055
-0.00576996
-0.00615456
-0.00655124
-0.00694719
-0.00732898
-0.00767268
-0.00795974
0.0372663
0.0272875
0.0169558
0.0121585
0.0106896
0.00942843
0.0079459
0.00670615
0.00580139
0.00508242
0.00445125
0.00388541
0.00337971
0.00292473
0.00250996
0.00212737
0.00177122
0.00143712
0.00112149
0.000821363
0.000534243
0.000258018
-9.11907e-06
-0.000268748
-0.000522268
-0.000770941
-0.00101593
-0.00125832
-0.00149916
-0.00173945
-0.00198022
-0.00222249
-0.00246732
-0.00271581
-0.00296916
-0.00322858
-0.00349547
-0.0037712
-0.00405732
-0.00435534
-0.0046667
-0.00499276
-0.0053339
-0.00569032
-0.00605857
-0.00643437
-0.00680544
-0.00715762
-0.0074691
-0.00772054
0.03571
0.0268685
0.0172028
0.0123412
0.0107428
0.00949873
0.0080428
0.00679024
0.00586676
0.00513915
0.00450382
0.00393369
0.00342365
0.00296501
0.00254732
0.00216227
0.00180401
0.00146808
0.00115088
0.000849399
0.000561117
0.000283902
1.59314e-05
-0.000244385
-0.000498451
-0.000747532
-0.000992788
-0.0012353
-0.00147611
-0.0017162
-0.00195658
-0.00219824
-0.00244222
-0.00268956
-0.00294139
-0.00319887
-0.00346327
-0.00373586
-0.00401798
-0.00431094
-0.00461587
-0.00493376
-0.00526453
-0.00560767
-0.00595935
-0.00631427
-0.00666052
-0.00698348
-0.00726262
-0.00747792
0.0342282
0.0264081
0.017405
0.0125195
0.0107931
0.00956003
0.00813483
0.00687401
0.00593229
0.00519554
0.00455625
0.0039822
0.00346797
0.00300572
0.00258512
0.00219765
0.0018373
0.00149957
0.0011808
0.00087798
0.000588547
0.000310354
4.15619e-05
-0.000219427
-0.000474023
-0.000723492
-0.000968992
-0.0012116
-0.00145234
-0.00169219
-0.00193214
-0.00217314
-0.00241619
-0.00266229
-0.00291252
-0.00316794
-0.00342972
-0.00369899
-0.00397692
-0.00426461
-0.00456286
-0.00487231
-0.00519243
-0.00552206
-0.00585696
-0.00619104
-0.00651258
-0.0068067
-0.00705357
-0.00723253
0.0328187
0.0259119
0.0175618
0.0126913
0.0108414
0.0096126
0.00822117
0.006957
0.00599793
0.00525156
0.00460841
0.00403084
0.00351263
0.00304682
0.00262334
0.00223349
0.00187109
0.00153157
0.00121126
0.000907109
0.000616539
0.000337381
6.77828e-05
-0.000193862
-0.000448969
-0.000698804
-0.000944523
-0.0011872
-0.00142783
-0.0016674
-0.00190686
-0.00214714
-0.00238919
-0.00263398
-0.00288249
-0.00313574
-0.00339476
-0.00366056
-0.00393412
-0.00421631
-0.00450765
-0.0048084
-0.00511761
-0.00543352
-0.00575151
-0.00606482
-0.00636181
-0.00662746
-0.0068423
-0.00698508
0.031479
0.0253858
0.0176728
0.0128542
0.0108884
0.00965692
0.00830105
0.00703861
0.00606361
0.00530716
0.0046602
0.0040795
0.00355756
0.00308827
0.00266195
0.00226977
0.00190535
0.00156408
0.00124225
0.000936786
0.000645096
0.00036499
9.46034e-05
-0.000167679
-0.000423275
-0.000673452
-0.000919361
-0.00116207
-0.00140256
-0.00164181
-0.00188072
-0.00212021
-0.0023612
-0.00260458
-0.00285129
-0.00310224
-0.00335835
-0.00362052
-0.00388952
-0.004166
-0.00445021
-0.00474201
-0.00504009
-0.00534211
-0.0056431
-0.00593574
-0.00620841
-0.00644603
-0.00662926
-0.00673636
0.0302064
0.0248352
0.0177382
0.0130056
0.0109348
0.00969361
0.00837387
0.00711821
0.00612918
0.00536233
0.0047115
0.00412807
0.0036027
0.00313004
0.00270093
0.00230646
0.00194008
0.00159708
0.00127376
0.00096701
0.000674221
0.000393187
0.000122033
-0.000140865
-0.000396926
-0.000647419
-0.000893488
-0.00113619
-0.0013765
-0.00161537
-0.00185369
-0.00209233
-0.00233217
-0.00257406
-0.00281885
-0.00306739
-0.00332046
-0.00357883
-0.00384309
-0.00411367
-0.00439053
-0.00467317
-0.00495991
-0.0052479
-0.00553184
-0.00580398
-0.00605263
-0.00626272
-0.00641493
-0.00648716
0.0289981
0.0242655
0.0177589
0.0131428
0.0109806
0.00972341
0.00843912
0.00719512
0.00619445
0.00541705
0.00476221
0.00417643
0.00364798
0.00317208
0.00274023
0.00234353
0.00197525
0.00163058
0.00130579
0.000997778
0.000703915
0.000421978
0.000150079
-0.000113409
-0.00036991
-0.000620688
-0.000866884
-0.00110954
-0.00134964
-0.00158808
-0.00182574
-0.00206347
-0.00230208
-0.00254239
-0.00278516
-0.00303115
-0.00328105
-0.00353547
-0.00379481
-0.00405929
-0.00432859
-0.00460188
-0.00487711
-0.005151
-0.0054179
-0.00566973
-0.00589473
-0.00607788
-0.00619985
-0.00623836
0.027851
0.0236817
0.0177363
0.0132635
0.0110257
0.00974711
0.0084965
0.00726862
0.00625916
0.00547128
0.00481225
0.00422444
0.00369329
0.00321434
0.00277984
0.00238097
0.00201083
0.00166454
0.00133833
0.00102909
0.000734178
0.000451364
0.000178748
-8.53027e-05
-0.000342213
-0.000593245
-0.000839532
-0.00108211
-0.00132193
-0.0015599
-0.00179684
-0.00203358
-0.0022709
-0.00250952
-0.00275017
-0.0029935
-0.00324009
-0.00349039
-0.00374465
-0.00400284
-0.00426441
-0.00452817
-0.00479177
-0.00505151
-0.00530144
-0.00553323
-0.00573504
-0.00589192
-0.00598463
-0.00599082
0.0267622
0.0230885
0.0176722
0.0133656
0.0110698
0.00976549
0.00854584
0.00733799
0.00632294
0.00552498
0.00486154
0.00427199
0.00373855
0.00325677
0.00281969
0.00241872
0.00204681
0.00169895
0.00137136
0.00106093
0.000765009
0.00048135
0.000208048
-5.65353e-05
-0.000313822
-0.000565073
-0.000811414
-0.00105387
-0.00129337
-0.0015308
-0.00176697
-0.00200266
-0.00223858
-0.00247544
-0.00271386
-0.0029544
-0.00319754
-0.00344358
-0.00369259
-0.00394433
-0.004198
-0.0044521
-0.00470396
-0.00494955
-0.00518265
-0.00539471
-0.00557388
-0.00570531
-0.00576988
-0.00574541
0.0257286
0.0224901
0.0175688
0.0134472
0.011112
0.00977929
0.00858719
0.00740255
0.0063854
0.00557808
0.00491002
0.00431893
0.00378362
0.00329929
0.00285976
0.00245676
0.00208314
0.00173379
0.00140488
0.0010933
0.000796404
0.000511936
0.000237981
-2.7099e-05
-0.000284728
-0.000536159
-0.000782512
-0.0010248
-0.00126393
-0.00150077
-0.0017361
-0.00197066
-0.00220511
-0.0024401
-0.00267618
-0.00291383
-0.00315338
-0.00339501
-0.00363863
-0.00388377
-0.00412939
-0.00437371
-0.00461379
-0.00484528
-0.00506174
-0.00525448
-0.00541163
-0.00551852
-0.00555628
-0.00550304
0.0247472
0.0218901
0.017429
0.0135067
0.011151
0.00978916
0.00862074
0.00746168
0.00644604
0.00563047
0.00495763
0.00436515
0.00382841
0.00334183
0.00289998
0.00249504
0.00211981
0.00176903
0.00143886
0.00112618
0.000828357
0.00054312
0.000268552
3.01312e-06
-0.000254918
-0.00050649
-0.000752811
-0.000994878
-0.00123359
-0.00146978
-0.00170421
-0.00193755
-0.00217046
-0.00240349
-0.00263713
-0.00287175
-0.00310759
-0.00334468
-0.00358276
-0.00382116
-0.00405862
-0.00429309
-0.00452138
-0.00473887
-0.00493895
-0.00511283
-0.00524871
-0.0053321
-0.00534451
-0.00526457
0.0238148
0.0212918
0.0172558
0.013543
0.0111857
0.00979561
0.00864683
0.00751485
0.00650435
0.00568199
0.00500433
0.00441054
0.00387277
0.00338429
0.00294031
0.00253352
0.00215676
0.00180465
0.00147328
0.00115957
0.000860862
0.000574901
0.000299763
3.38067e-05
-0.000224384
-0.000476052
-0.000722294
-0.000964093
-0.00120233
-0.00143781
-0.00167126
-0.00190332
-0.00213459
-0.00236557
-0.00259666
-0.00282815
-0.00306015
-0.00329258
-0.00352499
-0.00375654
-0.00398574
-0.00421033
-0.00442686
-0.00463052
-0.00481454
-0.00497011
-0.00508553
-0.0051466
-0.00513526
-0.00503087
0.0229287
0.0206982
0.0170524
0.0135553
0.0112146
0.00979895
0.00866589
0.00756165
0.00655977
0.00573243
0.00505006
0.00445498
0.00391656
0.00342659
0.00298069
0.00257216
0.00219396
0.00184061
0.00150813
0.00119344
0.000893909
0.000607274
0.000331613
6.5286e-05
-0.000193119
-0.000444835
-0.000690949
-0.000932426
-0.00117013
-0.00140484
-0.00163724
-0.00186794
-0.00209749
-0.00232632
-0.00255476
-0.002783
-0.00301106
-0.0032387
-0.00346534
-0.00368994
-0.00391083
-0.00412552
-0.00433038
-0.00452043
-0.0046888
-0.00482668
-0.00492256
-0.00496258
-0.00492926
-0.0048028
0.0220859
0.0201114
0.0168223
0.0135433
0.011236
0.00979933
0.00867842
0.00760179
0.00661175
0.00578152
0.00509475
0.00449839
0.00395967
0.0034686
0.00302103
0.0026109
0.00223137
0.00187687
0.00154338
0.00122779
0.000927487
0.000640232
0.0003641
9.74536e-05
-0.000161115
-0.000412829
-0.000658761
-0.000899861
-0.00113697
-0.00137084
-0.00160212
-0.00183139
-0.00205913
-0.00228572
-0.00251141
-0.00273631
-0.00296032
-0.00318307
-0.00340383
-0.00362142
-0.00383396
-0.0040388
-0.00423213
-0.00440884
-0.00456202
-0.00468293
-0.00476028
-0.00478064
-0.0047272
-0.00458115
0.0212837
0.0195335
0.0165689
0.013507
0.0112485
0.00979665
0.00868494
0.00763514
0.00665972
0.00582894
0.00513831
0.00454069
0.00400195
0.00351021
0.00306127
0.0026497
0.00226894
0.00191341
0.00157899
0.00126258
0.00096158
0.000673767
0.000397222
0.00013031
-0.000128368
-0.000380025
-0.00062572
-0.000866384
-0.00110284
-0.0013358
-0.00156589
-0.00179365
-0.00201949
-0.00224375
-0.0024666
-0.00268806
-0.00290792
-0.00312569
-0.00334052
-0.00355104
-0.00375525
-0.00395031
-0.0041323
-0.00429601
-0.00443454
-0.00453927
-0.00459919
-0.00460137
-0.00452978
-0.0043667
0.0205196
0.018966
0.0162954
0.0134469
0.0112505
0.0097906
0.00868595
0.00766167
0.0067032
0.00587432
0.00518063
0.0045818
0.00404329
0.00355129
0.0031013
0.00268848
0.00230663
0.00195017
0.00161493
0.00129779
0.000996171
0.000707868
0.000430971
0.000163854
-9.48756e-05
-0.000346418
-0.000591816
-0.000831982
-0.00106771
-0.0012997
-0.00152853
-0.00175469
-0.00197857
-0.00220041
-0.00242033
-0.00263825
-0.00285388
-0.0030666
-0.00327543
-0.00347888
-0.00367479
-0.00386021
-0.0040311
-0.00418221
-0.0043067
-0.0043961
-0.00443979
-0.00442536
-0.00433767
-0.00416018
0.0197911
0.0184101
0.0160052
0.0133639
0.011241
0.00978069
0.00868188
0.00768149
0.00674175
0.00591725
0.00522154
0.00462165
0.00408356
0.00359171
0.00314104
0.00272717
0.00234437
0.00198711
0.00165117
0.00133339
0.00103124
0.00074252
0.000465341
0.000198082
-6.06361e-05
-0.000312001
-0.000557041
-0.000796646
-0.00103159
-0.00126253
-0.00149003
-0.00171452
-0.00193634
-0.00215569
-0.00237259
-0.0025869
-0.00279822
-0.00300584
-0.00320865
-0.00340503
-0.00359273
-0.00376867
-0.00392875
-0.00406773
-0.00417885
-0.00425388
-0.00428259
-0.00425321
-0.00415152
-0.00396225
0.019096
0.0178666
0.0157012
0.0132591
0.0112187
0.00976629
0.00867306
0.00769478
0.006775
0.00595731
0.00526086
0.00466014
0.00412267
0.00363135
0.00318036
0.00276572
0.00238211
0.00202418
0.00168766
0.00136936
0.00106676
0.000777708
0.000500319
0.000232989
-2.56514e-05
-0.000276774
-0.000521389
-0.000760367
-0.000994454
-0.00122428
-0.00145037
-0.00167312
-0.00189281
-0.00210958
-0.00232339
-0.00253402
-0.00274098
-0.00294345
-0.00314023
-0.0033296
-0.0035092
-0.00367587
-0.00382551
-0.00395288
-0.00405138
-0.00411304
-0.00412811
-0.00408549
-0.00397194
-0.00377351
0.0184321
0.0173363
0.0153863
0.0131338
0.0111831
0.00974665
0.0086597
0.00770181
0.00680271
0.00599409
0.00529836
0.0046972
0.0041605
0.00367006
0.00321917
0.00280402
0.00241979
0.00206134
0.00172436
0.00140566
0.00110272
0.000813413
0.000535893
0.000268566
1.00749e-05
-0.000240736
-0.000484858
-0.000723139
-0.000956301
-0.00118494
-0.00140955
-0.00163048
-0.00184797
-0.00206209
-0.00227275
-0.00247964
-0.00268219
-0.0028795
-0.00307028
-0.00325271
-0.00342436
-0.00358203
-0.00372162
-0.00383797
-0.00392465
-0.00397402
-0.00397684
-0.00392273
-0.0037995
-0.0035945
0.0177975
0.0168194
0.0150629
0.0129897
0.0111337
0.00972098
0.00864188
0.00770284
0.0068247
0.00602717
0.00533376
0.0047327
0.00419696
0.00370773
0.00325733
0.00284199
0.00245735
0.00209851
0.00176122
0.00144224
0.00113907
0.000849611
0.000572046
0.000304802
4.65362e-05
-0.00020389
-0.000447447
-0.000684961
-0.000917125
-0.00114451
-0.00136757
-0.00158661
-0.00180182
-0.00201323
-0.00222067
-0.00242377
-0.00262189
-0.00281405
-0.00299888
-0.00317448
-0.00333838
-0.00348737
-0.00361736
-0.00372332
-0.00379906
-0.00383727
-0.00382928
-0.00376546
-0.00363469
-0.00342567
0.0171904
0.0163163
0.0147334
0.0128286
0.0110702
0.00968851
0.00861956
0.00769817
0.0068409
0.0060562
0.00536677
0.00476653
0.00423197
0.00374424
0.00329473
0.00287953
0.0024947
0.00213565
0.00179819
0.00147907
0.00117578
0.000886277
0.00060876
0.000341683
8.37234e-05
-0.000166241
-0.000409159
-0.000645832
-0.000876927
-0.00110298
-0.00132442
-0.0015415
-0.00175437
-0.00196301
-0.00216719
-0.00236648
-0.00256016
-0.0027472
-0.00292614
-0.00309507
-0.00325146
-0.00339211
-0.00351302
-0.00360929
-0.00367498
-0.00370321
-0.00368588
-0.00361415
-0.00347799
-0.00326738
0.016609
0.0158268
0.0143998
0.0126521
0.0109927
0.00964854
0.00859258
0.00768804
0.00685132
0.00608087
0.00539709
0.0047985
0.00426543
0.00377947
0.00333123
0.00291654
0.00253178
0.00217269
0.00183522
0.00151609
0.00121283
0.000923382
0.000646012
0.000379193
0.000121624
-0.000127797
-0.000369998
-0.000605756
-0.000835709
-0.00106037
-0.00128011
-0.00149517
-0.00170565
-0.00191146
-0.00211234
-0.0023078
-0.00249706
-0.00267902
-0.00285219
-0.00301462
-0.00316377
-0.0032965
-0.00340887
-0.00349619
-0.00355281
-0.00357227
-0.00354709
-0.00346925
-0.00332976
-0.00311993
0.0160518
0.0153511
0.0140638
0.0124621
0.0109016
0.00960045
0.0085607
0.00767268
0.00685603
0.00610091
0.00542441
0.00482846
0.00429724
0.00381332
0.00336672
0.0029529
0.00256849
0.00220957
0.00187224
0.00155327
0.00125015
0.000960893
0.000683776
0.000417312
0.000160223
-8.85714e-05
-0.000329975
-0.00056474
-0.000793478
-0.00101667
-0.00123465
-0.00144763
-0.00165566
-0.00185861
-0.00205617
-0.00224779
-0.00243266
-0.00260962
-0.00277716
-0.00293331
-0.00307554
-0.00320078
-0.00330522
-0.00338437
-0.00343291
-0.00344484
-0.00341332
-0.00333111
-0.00319033
-0.0029835
0.0155174
0.014889
0.013727
0.0122604
0.0107975
0.00954379
0.00852362
0.00765223
0.00685514
0.00611616
0.00544842
0.00485618
0.00432728
0.00384569
0.00340107
0.0029885
0.00260474
0.00224621
0.00190921
0.00159054
0.00128772
0.000998774
0.000722023
0.000456016
0.000199501
-4.8578e-05
-0.000289102
-0.000522796
-0.000750245
-0.000971896
-0.00118806
-0.0013989
-0.00160443
-0.00180449
-0.00199872
-0.00218653
-0.00236705
-0.00253912
-0.0027012
-0.0028513
-0.00298698
-0.00310521
-0.00320235
-0.00327415
-0.00331564
-0.00332129
-0.00328491
-0.00320008
-0.00305993
-0.00285818
0.0150044
0.0144402
0.0133906
0.0120487
0.0106809
0.00947825
0.00848102
0.00762678
0.00684879
0.00612647
0.00546886
0.00488146
0.00435543
0.00387648
0.00343417
0.00302322
0.00264044
0.00228254
0.00194605
0.00162786
0.00132549
0.00103698
0.000760721
0.000495278
0.000239436
-7.83635e-06
-0.000247395
-0.000479939
-0.000706025
-0.000926071
-0.00114035
-0.00134901
-0.00155201
-0.00174916
-0.00194005
-0.00212408
-0.00230034
-0.00246764
-0.00262444
-0.0027688
-0.0028983
-0.00301004
-0.00310056
-0.00316585
-0.00320134
-0.00320196
-0.0031622
-0.0030764
-0.00293871
-0.00274397
0.0145116
0.0140045
0.0130558
0.0118286
0.0105527
0.00940367
0.00843258
0.00759636
0.00683713
0.0061318
0.00548548
0.00490407
0.00438157
0.00390558
0.00346591
0.00305695
0.00267548
0.00231848
0.0019827
0.00166515
0.00136339
0.00107548
0.000799832
0.000535067
0.000280001
3.36307e-05
-0.000204875
-0.000436189
-0.000660839
-0.000879214
-0.00109156
-0.00129799
-0.00149843
-0.00169265
-0.00188024
-0.00206053
-0.00223262
-0.00239531
-0.00254706
-0.00268598
-0.00280972
-0.00291552
-0.00300012
-0.00305978
-0.00309031
-0.00308716
-0.00304544
-0.00296027
-0.00282675
-0.00264076
0.0140379
0.0135816
0.0127236
0.0116017
0.0104139
0.00932008
0.00837803
0.00756095
0.0068203
0.00613213
0.0054981
0.00492379
0.00440553
0.00393289
0.00349619
0.00308958
0.00270977
0.00235393
0.00201909
0.00170237
0.00140138
0.00111422
0.000839316
0.000575349
0.000321167
7.57963e-05
-0.000161567
-0.000391569
-0.000614711
-0.000831354
-0.00104172
-0.00124587
-0.00144373
-0.00163504
-0.00181934
-0.00199597
-0.00216401
-0.00232226
-0.00246922
-0.00260304
-0.00272148
-0.00282192
-0.00290131
-0.00295622
-0.00298285
-0.00297714
-0.00293483
-0.00285181
-0.00272404
-0.00254836
0.0135823
0.0131712
0.0123946
0.0113692
0.0102655
0.00922765
0.00831714
0.00752049
0.0067984
0.00612749
0.00550654
0.0049404
0.00442716
0.00395831
0.0035249
0.00312099
0.00274318
0.00238881
0.00205514
0.00173944
0.0014394
0.00115314
0.000879128
0.000616085
0.000362899
0.000118629
-0.000117501
-0.00034611
-0.000567673
-0.000782524
-0.000990854
-0.00119271
-0.00138798
-0.00157639
-0.00175746
-0.00193051
-0.00209463
-0.00224865
-0.00239109
-0.00252017
-0.00263379
-0.00272946
-0.00280438
-0.00285543
-0.00287919
-0.00287211
-0.00283054
-0.00275105
-0.00263046
-0.00246648
0.0131437