/*--------------------------------*- C++ -*----------------------------------*\
  =========                 |
  \\      /  F ield         | OpenFOAM: The Open Source CFD Toolbox
   \\    /   O peration     | Website:  https://openfoam.org
    \\  /    A nd           | Version:  7
     \\/     M anipulation  |
\*---------------------------------------------------------------------------*/
FoamFile
{
    version     2.0;
    format      ascii;
    class       surfaceScalarField;
    location    "0.48";
    object      phi;
}
// * * * * * * * * * * * * * * * * * * * * * * * * * * * * * * * * * * * * * //

dimensions      [0 3 -1 0 0 0 0];

internalField   nonuniform List<scalar> 
139350
(
6.45928e-08
9.20387e-08
3.1952e-08
3.26409e-08
2.30614e-08
8.89053e-09
1.95677e-08
3.49371e-09
1.76166e-08
1.95107e-09
1.61899e-08
1.42675e-09
1.50579e-08
1.13203e-09
1.41451e-08
9.12816e-10
1.33939e-08
7.51173e-10
1.27612e-08
6.32684e-10
1.22182e-08
5.43041e-10
1.17454e-08
4.7276e-10
1.13292e-08
4.16218e-10
1.09593e-08
3.69878e-10
1.0628e-08
3.31327e-10
1.03291e-08
2.98841e-10
1.0058e-08
2.71153e-10
9.81066e-09
2.47317e-10
9.58405e-09
2.26611e-10
9.37557e-09
2.08482e-10
9.18307e-09
1.92493e-10
9.00477e-09
1.78299e-10
8.83915e-09
1.65621e-10
8.68492e-09
1.54234e-10
8.54097e-09
1.43952e-10
8.40635e-09
1.34618e-10
8.28025e-09
1.26103e-10
8.16195e-09
1.18297e-10
8.05085e-09
1.111e-10
7.94641e-09
1.04437e-10
7.84819e-09
9.82196e-11
7.75579e-09
9.24027e-11
7.6689e-09
8.68893e-11
7.58723e-09
8.16722e-11
7.51061e-09
7.6616e-11
7.43885e-09
7.17649e-11
7.37193e-09
6.69147e-11
7.30978e-09
6.21509e-11
7.25255e-09
5.72346e-11
7.20044e-09
5.21039e-11
7.15357e-09
4.68684e-11
7.11318e-09
4.03918e-11
7.07836e-09
3.48268e-11
7.0538e-09
2.4551e-11
7.03409e-09
1.97183e-11
7.03551e-09
-1.42415e-12
7.03347e-09
2.03755e-12
7.10388e-09
-7.04031e-11
6.96668e-09
1.37193e-10
-3.34574e-09
1.03124e-08
1.26026e-07
1.27456e-07
9.12647e-08
6.74024e-08
7.19446e-08
2.82106e-08
6.12185e-08
1.42198e-08
5.47733e-08
8.39629e-09
5.02808e-08
5.91924e-09
4.67983e-08
4.61453e-09
4.39844e-08
3.72673e-09
4.16598e-08
3.07572e-09
3.96999e-08
2.59261e-09
3.80174e-08
2.2255e-09
3.65524e-08
1.93784e-09
3.5262e-08
1.7066e-09
3.41147e-08
1.51713e-09
3.30866e-08
1.3595e-09
3.21588e-08
1.22664e-09
3.13165e-08
1.11339e-09
3.0548e-08
1.01587e-09
2.98434e-08
9.31162e-10
2.91949e-08
8.56985e-10
2.85959e-08
7.91568e-10
2.80407e-08
7.33498e-10
2.75246e-08
6.81642e-10
2.70438e-08
6.35079e-10
2.65947e-08
5.9305e-10
2.61744e-08
5.54924e-10
2.57803e-08
5.20171e-10
2.54103e-08
4.88345e-10
2.50623e-08
4.59053e-10
2.47348e-08
4.31979e-10
2.44262e-08
4.06795e-10
2.41353e-08
3.83296e-10
2.3861e-08
3.61148e-10
2.36024e-08
3.40277e-10
2.33588e-08
3.20233e-10
2.31294e-08
3.0115e-10
2.29141e-08
2.82277e-10
2.27121e-08
2.64103e-10
2.2524e-08
2.45334e-10
2.23493e-08
2.2688e-10
2.21892e-08
2.06886e-10
2.20437e-08
1.85949e-10
2.19153e-08
1.63237e-10
2.18054e-08
1.34437e-10
2.17161e-08
1.09013e-10
2.16604e-08
5.42753e-11
2.16159e-08
4.65354e-11
2.17095e-08
-1.64031e-10
2.15963e-08
2.50453e-10
-4.30685e-09
2.25574e-08
1.58808e-07
1.35052e-07
1.36496e-07
8.97142e-08
1.17496e-07
4.72108e-08
1.03319e-07
2.83967e-08
9.33129e-08
1.84022e-08
8.60122e-08
1.322e-08
8.03079e-08
1.03188e-08
7.56587e-08
8.37589e-09
7.17826e-08
6.95187e-09
6.84925e-08
5.88266e-09
6.56554e-08
5.06269e-09
6.31762e-08
4.417e-09
6.09864e-08
3.89636e-09
5.90349e-08
3.46867e-09
5.72824e-08
3.11204e-09
5.56981e-08
2.81088e-09
5.42577e-08
2.55374e-09
5.29416e-08
2.33203e-09
5.17336e-08
2.1392e-09
5.06204e-08
1.97017e-09
4.9591e-08
1.82096e-09
4.86361e-08
1.68842e-09
4.77477e-08
1.56999e-09
4.69192e-08
1.46359e-09
4.61447e-08
1.36753e-09
4.54193e-08
1.28036e-09
4.47385e-08
1.2009e-09
4.40987e-08
1.12815e-09
4.34966e-08
1.06122e-09
4.29292e-08
9.99394e-10
4.2394e-08
9.41962e-10
4.18888e-08
8.88431e-10
4.14119e-08
8.38118e-10
4.09614e-08
7.90802e-10
4.0536e-08
7.45581e-10
4.01345e-08
7.02696e-10
3.97562e-08
6.60581e-10
3.93998e-08
6.20409e-10
3.90661e-08
5.79091e-10
3.87534e-08
5.39622e-10
3.84643e-08
4.95973e-10
3.81962e-08
4.54011e-10
3.79558e-08
4.03656e-10
3.77387e-08
3.51513e-10
3.75564e-08
2.9129e-10
3.74119e-08
1.98846e-10
3.7296e-08
1.62421e-10
3.73276e-08
-1.9569e-10
3.73078e-08
2.70294e-10
-4.32061e-09
3.73216e-08
1.75664e-07
1.30904e-07
1.65596e-07
9.97825e-08
1.52726e-07
6.00808e-08
1.40128e-07
4.09948e-08
1.29439e-07
2.90908e-08
1.20797e-07
2.18621e-08
1.13686e-07
1.74294e-08
1.07708e-07
1.43547e-08
1.02609e-07
1.205e-08
9.82098e-08
1.02823e-08
9.43689e-08
8.90356e-09
9.09811e-08
7.8048e-09
8.79664e-08
6.91104e-09
8.52633e-08
6.17177e-09
8.28235e-08
5.55183e-09
8.06086e-08
5.02583e-09
7.85874e-08
4.57491e-09
7.67346e-08
4.1848e-09
7.50293e-08
3.8445e-09
7.3454e-08
3.54547e-09
7.19941e-08
3.28092e-09
7.0637e-08
3.04547e-09
6.93723e-08
2.83473e-09
6.81908e-08
2.64513e-09
6.70846e-08
2.47371e-09
6.60469e-08
2.31802e-09
6.50718e-08
2.17597e-09
6.41542e-08
2.04582e-09
6.32894e-08
1.92604e-09
6.24734e-08
1.81536e-09
6.17028e-08
1.71257e-09
6.09744e-08
1.61679e-09
6.02857e-08
1.52688e-09
5.96341e-08
1.44239e-09
5.90178e-08
1.36189e-09
5.84348e-08
1.28568e-09
5.78842e-08
1.21123e-09
5.7364e-08
1.14053e-09
5.68749e-08
1.06827e-09
5.64144e-08
1.00012e-09
5.59856e-08
9.24698e-10
5.55847e-08
8.54961e-10
5.52199e-08
7.68485e-10
5.48842e-08
6.8717e-10
5.45926e-08
5.82848e-10
5.43446e-08
4.46853e-10
5.41387e-08
3.68352e-10
5.40666e-08
-1.23596e-10
5.40725e-08
2.64425e-10
-4.01773e-09
5.37696e-08
1.8456e-07
1.23129e-07
1.82322e-07
1.02021e-07
1.76104e-07
6.62982e-08
1.67762e-07
4.93371e-08
1.5914e-07
3.77134e-08
1.51231e-07
2.97711e-08
1.44158e-07
2.45017e-08
1.3786e-07
2.06535e-08
1.32261e-07
1.7649e-08
1.27277e-07
1.52655e-08
1.22824e-07
1.33567e-08
1.18825e-07
1.18044e-08
1.15214e-07
1.05218e-08
1.11938e-07
9.44756e-09
1.08953e-07
8.53738e-09
1.0622e-07
7.75846e-09
1.03709e-07
7.08588e-09
1.01393e-07
6.50039e-09
9.92509e-08
5.98696e-09
9.72626e-08
5.5337e-09
9.54125e-08
5.13111e-09
9.36864e-08
4.77152e-09
9.20725e-08
4.44865e-09
9.05602e-08
4.15737e-09
8.91406e-08
3.89337e-09
8.78055e-08
3.65307e-09
8.65481e-08
3.43341e-09
8.53621e-08
3.23181e-09
8.42421e-08
3.04602e-09
8.31833e-08
2.87415e-09
8.21815e-08
2.71441e-09
8.12328e-08
2.56546e-09
8.0334e-08
2.42566e-09
7.94821e-08
2.29427e-09
7.86747e-08
2.16926e-09
7.79095e-08
2.05097e-09
7.71848e-08
1.93585e-09
7.64987e-08
1.82665e-09
7.58512e-08
1.71581e-09
7.52396e-08
1.61167e-09
7.4667e-08
1.49736e-09
7.4129e-08
1.39297e-09
7.36336e-08
1.26381e-09
7.31745e-08
1.14631e-09
7.2765e-08
9.92319e-10
7.24067e-08
8.05194e-10
7.21006e-08
6.74398e-10
7.19125e-08
6.45528e-11
7.18687e-08
3.08222e-10
-3.56543e-09
7.14164e-08
1.90388e-07
1.14957e-07
1.91852e-07
1.00557e-07
1.90245e-07
6.79055e-08
1.86155e-07
5.3427e-08
1.80717e-07
4.31521e-08
1.74962e-07
3.5526e-08
1.69265e-07
3.01988e-08
1.6378e-07
2.61376e-08
1.58606e-07
2.28238e-08
1.53783e-07
2.00887e-08
1.49314e-07
1.78253e-08
1.45183e-07
1.5935e-08
1.41367e-07
1.43386e-08
1.37837e-07
1.29769e-08
1.34569e-07
1.18055e-08
1.31538e-07
1.079e-08
1.2872e-07
9.90353e-09
1.26096e-07
9.12451e-09
1.23647e-07
8.43577e-09
1.21357e-07
7.82339e-09
1.19212e-07
7.27604e-09
1.172e-07
6.78443e-09
1.15307e-07
6.34086e-09
1.13526e-07
5.9389e-09
1.11846e-07
5.57316e-09
1.1026e-07
5.23905e-09
1.08761e-07
4.93268e-09
1.07342e-07
4.6507e-09
1.05998e-07
4.39019e-09
1.04723e-07
4.14864e-09
1.03514e-07
3.92375e-09
1.02366e-07
3.71369e-09
1.01275e-07
3.51633e-09
1.00239e-07
3.33063e-09
9.92539e-08
3.15399e-09
9.83182e-08
2.98671e-09
9.74297e-08
2.8243e-09
9.65863e-08
2.6701e-09
9.57875e-08
2.51456e-09
9.5031e-08
2.3682e-09
9.43189e-08
2.20946e-09
9.36477e-08
2.06411e-09
9.30238e-08
1.88774e-09
9.24432e-08
1.72688e-09
9.19152e-08
1.52037e-09
9.14461e-08
1.27432e-09
9.10364e-08
1.08402e-09
9.07312e-08
3.69794e-10
9.06002e-08
4.39189e-10
-2.99577e-09
9.00306e-08
1.95541e-07
1.0723e-07
1.98248e-07
9.78498e-08
1.9897e-07
6.71837e-08
1.9779e-07
5.46072e-08
1.95157e-07
4.57843e-08
1.91815e-07
3.88685e-08
1.88082e-07
3.39318e-08
1.8413e-07
3.00892e-08
1.80109e-07
2.68447e-08
1.7613e-07
2.40685e-08
1.72259e-07
2.16957e-08
1.68537e-07
1.96572e-08
1.64983e-07
1.78924e-08
1.61606e-07
1.63541e-08
1.58406e-07
1.50056e-08
1.55378e-07
1.38173e-08
1.52517e-07
1.27649e-08
1.49813e-07
1.18285e-08
1.47257e-07
1.09914e-08
1.44841e-07
1.02398e-08
1.42555e-07
9.56228e-09
1.4039e-07
8.94902e-09
1.38339e-07
8.39185e-09
1.36394e-07
7.88379e-09
1.34549e-07
7.41892e-09
1.32796e-07
6.99208e-09
1.31129e-07
6.59888e-09
1.29545e-07
6.23545e-09
1.28036e-07
5.89842e-09
1.266e-07
5.58486e-09
1.25232e-07
5.29203e-09
1.23928e-07
5.01775e-09
1.22685e-07
4.75951e-09
1.21499e-07
4.51597e-09
1.20369e-07
4.28408e-09
1.19292e-07
4.06403e-09
1.18266e-07
3.85061e-09
1.17288e-07
3.6475e-09
1.16359e-07
3.44361e-09
1.15476e-07
3.25089e-09
1.14641e-07
3.04447e-09
1.13852e-07
2.85348e-09
1.13112e-07
2.62763e-09
1.12422e-07
2.41752e-09
1.11784e-07
2.15771e-09
1.11212e-07
1.84681e-09
1.10704e-07
1.5919e-09
1.10286e-07
7.87185e-10
1.10055e-07
6.7057e-10
-2.33307e-09
1.09392e-07
2.00848e-07
9.9967e-08
2.03776e-07
9.49216e-08
2.05328e-07
6.56319e-08
2.05644e-07
5.42911e-08
2.04818e-07
4.66108e-08
2.03336e-07
4.03503e-08
2.01387e-07
3.58807e-08
1.99056e-07
3.24208e-08
1.96447e-07
2.94531e-08
1.93665e-07
2.68509e-08
1.90789e-07
2.45712e-08
1.87881e-07
2.25654e-08
1.84985e-07
2.07887e-08
1.82132e-07
1.92066e-08
1.79346e-07
1.77922e-08
1.7664e-07
1.65235e-08
1.74023e-07
1.53816e-08
1.715e-07
1.43508e-08
1.69074e-07
1.34173e-08
1.66745e-07
1.25693e-08
1.64511e-07
1.17967e-08
1.62369e-07
1.10906e-08
1.60317e-07
1.04436e-08
1.58352e-07
9.8489e-09
1.5647e-07
9.30081e-09
1.54668e-07
8.79424e-09
1.52942e-07
8.32475e-09
1.51289e-07
7.88841e-09
1.49706e-07
7.48169e-09
1.48189e-07
7.10152e-09
1.46736e-07
6.74497e-09
1.45344e-07
6.4097e-09
1.44011e-07
6.09295e-09
1.42734e-07
5.79324e-09
1.41511e-07
5.50721e-09
1.4034e-07
5.23495e-09
1.3922e-07
4.97076e-09
1.38149e-07
4.71845e-09
1.37126e-07
4.46596e-09
1.36151e-07
4.22584e-09
1.35224e-07
3.97141e-09
1.34345e-07
3.7328e-09
1.33515e-07
3.45774e-09
1.32737e-07
3.1952e-09
1.32012e-07
2.88315e-09
1.31354e-07
2.50495e-09
1.30763e-07
2.18227e-09
1.30248e-07
1.30269e-09
1.29917e-07
1.00129e-09
-1.60675e-09
1.29191e-07
2.06447e-07
9.30519e-08
2.0934e-07
9.20286e-08
2.11038e-07
6.3934e-08
2.11933e-07
5.33966e-08
2.12002e-07
4.65415e-08
2.11615e-07
4.07368e-08
2.10885e-07
3.6611e-08
2.09814e-07
3.34924e-08
2.08438e-07
3.08284e-08
2.06818e-07
2.84715e-08
2.05008e-07
2.6381e-08
2.03058e-07
2.45151e-08
2.01011e-07
2.28358e-08
1.98903e-07
2.1315e-08
1.96762e-07
1.99325e-08
1.94613e-07
1.86722e-08
1.92475e-07
1.75205e-08
1.9036e-07
1.64657e-08
1.88279e-07
1.54977e-08
1.86241e-07
1.46073e-08
1.84251e-07
1.37868e-08
1.82313e-07
1.3029e-08
1.80429e-07
1.23277e-08
1.786e-07
1.16773e-08
1.76828e-07
1.10728e-08
1.75113e-07
1.05098e-08
1.73453e-07
9.98426e-09
1.71849e-07
9.4925e-09
1.703e-07
9.03128e-09
1.68803e-07
8.59764e-09
1.6736e-07
8.18878e-09
1.65967e-07
7.80237e-09
1.64624e-07
7.43567e-09
1.6333e-07
7.08714e-09
1.62084e-07
6.75336e-09
1.60885e-07
6.43434e-09
1.59731e-07
6.12418e-09
1.58623e-07
5.82663e-09
1.5756e-07
5.5292e-09
1.56541e-07
5.24437e-09
1.55568e-07
4.94503e-09
1.5464e-07
4.66024e-09
1.53759e-07
4.33912e-09
1.5293e-07
4.02446e-09
1.5215e-07
3.66335e-09
1.51435e-07
3.21959e-09
1.50789e-07
2.82858e-09
1.502e-07
1.89117e-09
1.49785e-07
1.41689e-09
-8.48071e-10
1.49026e-07
2.12289e-07
8.64252e-08
2.15153e-07
8.91647e-08
2.16792e-07
6.22945e-08
2.17845e-07
5.2344e-08
2.18261e-07
4.61258e-08
2.18377e-07
4.06206e-08
2.18301e-07
3.66873e-08
2.18e-07
3.37925e-08
2.17469e-07
3.136e-08
2.16724e-07
2.92158e-08
2.15792e-07
2.73139e-08
2.14695e-07
2.56112e-08
2.13462e-07
2.4069e-08
2.12117e-07
2.266e-08
2.10684e-07
2.13655e-08
2.09185e-07
2.01718e-08
2.07637e-07
1.90681e-08
2.06058e-07
1.80452e-08
2.0446e-07
1.70955e-08
2.02855e-07
1.62123e-08
2.01252e-07
1.53894e-08
1.99659e-07
1.46218e-08
1.98083e-07
1.39044e-08
1.96527e-07
1.3233e-08
1.94996e-07
1.26036e-08
1.93493e-07
1.20125e-08
1.92021e-07
1.14565e-08
1.90581e-07
1.09323e-08
1.89175e-07
1.04374e-08
1.87804e-07
9.96893e-09
1.86468e-07
9.52453e-09
1.85169e-07
9.10207e-09
1.83905e-07
8.69898e-09
1.82679e-07
8.31386e-09
1.81489e-07
7.94332e-09
1.80335e-07
7.58744e-09
1.79219e-07
7.24028e-09
1.7814e-07
6.90548e-09
1.77099e-07
6.57058e-09
1.76096e-07
6.24744e-09
1.75131e-07
5.90966e-09
1.74208e-07
5.58365e-09
1.73325e-07
5.22253e-09
1.72489e-07
4.85976e-09
1.71698e-07
4.45497e-09
1.70966e-07
3.95166e-09
1.70299e-07
3.4949e-09
1.69673e-07
2.51739e-09
1.69199e-07
1.89048e-09
-9.02033e-11
1.68442e-07
2.1833e-07
8.00757e-08
2.21207e-07
8.62883e-08
2.22765e-07
6.0736e-08
2.23845e-07
5.12645e-08
2.2437e-07
4.56006e-08
2.24664e-07
4.03265e-08
2.24864e-07
3.64873e-08
2.24942e-07
3.37143e-08
2.24876e-07
3.14256e-08
2.24667e-07
2.94254e-08
2.24318e-07
2.76626e-08
2.23837e-07
2.60927e-08
2.23232e-07
2.46741e-08
2.22515e-07
2.33771e-08
2.21698e-07
2.21819e-08
2.20796e-07
2.10743e-08
2.1982e-07
2.00437e-08
2.18784e-07
1.90818e-08
2.17697e-07
1.81816e-08
2.16572e-07
1.73375e-08
2.15417e-07
1.65447e-08
2.1424e-07
1.57989e-08
2.13048e-07
1.50963e-08
2.11848e-07
1.44333e-08
2.10644e-07
1.38069e-08
2.09443e-07
1.32142e-08
2.08247e-07
1.26524e-08
2.0706e-07
1.21191e-08
2.05885e-07
1.1612e-08
2.04726e-07
1.11288e-08
2.03583e-07
1.06675e-08
2.02458e-07
1.02263e-08
2.01355e-07
9.8028e-09
2.00273e-07
9.39585e-09
1.99214e-07
9.00225e-09
1.98179e-07
8.62213e-09
1.97169e-07
8.24972e-09
1.96186e-07
7.88847e-09
1.95231e-07
7.52629e-09
1.94304e-07
7.17404e-09
1.93407e-07
6.80692e-09
1.92543e-07
6.44755e-09
1.91711e-07
6.05481e-09
1.90919e-07
5.65113e-09
1.90164e-07
5.21001e-09
1.89459e-07
4.65673e-09
1.88814e-07
4.14009e-09
1.88191e-07
3.13994e-09
1.87696e-07
2.38641e-09
6.32674e-10
1.86973e-07
2.24559e-07
7.401e-08
2.27471e-07
8.33763e-08
2.28962e-07
5.92449e-08
2.30047e-07
5.01799e-08
2.30613e-07
4.50342e-08
2.30956e-07
3.99837e-08
2.31245e-07
3.61977e-08
2.31472e-07
3.34879e-08
2.31615e-07
3.12825e-08
2.31673e-07
2.93675e-08
2.31645e-07
2.76904e-08
2.3153e-07
2.62079e-08
2.31327e-07
2.48769e-08
2.31039e-07
2.36655e-08
2.30668e-07
2.2552e-08
2.30222e-07
2.1521e-08
2.29704e-07
2.05611e-08
2.29123e-07
1.96632e-08
2.28484e-07
1.88203e-08
2.27795e-07
1.80268e-08
2.27062e-07
1.72781e-08
2.2629e-07
1.65701e-08
2.25487e-07
1.58994e-08
2.24658e-07
1.5263e-08
2.23806e-07
1.46582e-08
2.22938e-07
1.40824e-08
2.22057e-07
1.35335e-08
2.21167e-07
1.30091e-08
2.20271e-07
1.25075e-08
2.19373e-07
1.20267e-08
2.18476e-07
1.1565e-08
2.17582e-07
1.11207e-08
2.16693e-07
1.06918e-08
2.15811e-07
1.02774e-08
2.14939e-07
9.87429e-09
2.14078e-07
9.48283e-09
2.13231e-07
9.09744e-09
2.12398e-07
8.72131e-09
2.11581e-07
8.343e-09
2.10783e-07
7.97201e-09
2.10004e-07
7.58581e-09
2.09249e-07
7.20247e-09
2.08516e-07
6.78767e-09
2.07815e-07
6.35237e-09
2.07142e-07
5.88335e-09
2.06507e-07
5.29201e-09
2.05923e-07
4.72402e-09
2.05345e-07
3.71734e-09
2.04866e-07
2.86595e-09
1.28919e-09
2.04209e-07
2.3098e-07
6.82363e-08
2.33935e-07
8.04205e-08
2.35367e-07
5.78131e-08
2.36458e-07
4.90891e-08
2.37058e-07
4.44342e-08
2.37416e-07
3.96256e-08
2.37727e-07
3.58866e-08
2.38e-07
3.32157e-08
2.38218e-07
3.10638e-08
2.38385e-07
2.92004e-08
2.38503e-07
2.75727e-08
2.3857e-07
2.61413e-08
2.38583e-07
2.48637e-08
2.38541e-07
2.37073e-08
2.38444e-07
2.26493e-08
2.38291e-07
2.16733e-08
2.38085e-07
2.07671e-08
2.37828e-07
1.99209e-08
2.37521e-07
1.91271e-08
2.37168e-07
1.83797e-08
2.36772e-07
1.76737e-08
2.36337e-07
1.70051e-08
2.35867e-07
1.63703e-08
2.35363e-07
1.57663e-08
2.34831e-07
1.51904e-08
2.34273e-07
1.46401e-08
2.33693e-07
1.41135e-08
2.33094e-07
1.36084e-08
2.32479e-07
1.31229e-08
2.3185e-07
1.26556e-08
2.3121e-07
1.22046e-08
2.30563e-07
1.17685e-08
2.29909e-07
1.13455e-08
2.29252e-07
1.09346e-08
2.28593e-07
1.0533e-08
2.27935e-07
1.01409e-08
2.27279e-07
9.75306e-09
2.26628e-07
9.37225e-09
2.25983e-07
8.98785e-09
2.25348e-07
8.60776e-09
2.24721e-07
8.21213e-09
2.2411e-07
7.81411e-09
2.23511e-07
7.38646e-09
2.22934e-07
6.92933e-09
2.22376e-07
6.44083e-09
2.21845e-07
5.82389e-09
2.21354e-07
5.21466e-09
2.20856e-07
4.2152e-09
2.20428e-07
3.29449e-09
1.85328e-09
2.19863e-07
2.37601e-07
6.27603e-08
2.40603e-07
7.74184e-08
2.41978e-07
5.64383e-08
2.43073e-07
4.79933e-08
2.43711e-07
4.37971e-08
2.44082e-07
3.92541e-08
2.44399e-07
3.55702e-08
2.44683e-07
3.2931e-08
2.44925e-07
3.08223e-08
2.45128e-07
2.89967e-08
2.453e-07
2.74006e-08
2.45442e-07
2.59996e-08
2.45552e-07
2.47533e-08
2.4563e-07
2.36295e-08
2.45675e-07
2.2605e-08
2.45684e-07
2.16635e-08
2.45659e-07
2.07922e-08
2.45599e-07
1.99811e-08
2.45504e-07
1.92222e-08
2.45374e-07
1.8509e-08
2.45212e-07
1.78364e-08
2.45017e-07
1.71998e-08
2.44792e-07
1.65957e-08
2.44537e-07
1.60208e-08
2.44255e-07
1.54723e-08
2.43948e-07
1.49477e-08
2.43617e-07
1.44447e-08
2.43264e-07
1.39613e-08
2.42891e-07
1.34957e-08
2.425e-07
1.30461e-08
2.42094e-07
1.26109e-08
2.41674e-07
1.21887e-08
2.41242e-07
1.17776e-08
2.40799e-07
1.13768e-08
2.40349e-07
1.09835e-08
2.39892e-07
1.05977e-08
2.39431e-07
1.02146e-08
2.38967e-07
9.83631e-09
2.38501e-07
9.45323e-09
2.38038e-07
9.07144e-09
2.37576e-07
8.67392e-09
2.37121e-07
8.26894e-09
2.36671e-07
7.83593e-09
2.36235e-07
7.36576e-09
2.35811e-07
6.86504e-09
2.35401e-07
6.23388e-09
2.35022e-07
5.59366e-09
2.34625e-07
4.61196e-09
2.34272e-07
3.64769e-09
2.3098e-09
2.33815e-07
2.44431e-07
5.75857e-08
2.47473e-07
7.43765e-08
2.48798e-07
5.51125e-08
2.49895e-07
4.68973e-08
2.5057e-07
4.31212e-08
2.50959e-07
3.88655e-08
2.5128e-07
3.52494e-08
2.5157e-07
3.2641e-08
2.51819e-07
3.05733e-08
2.52033e-07
2.87823e-08
2.52222e-07
2.72116e-08
2.5239e-07
2.58321e-08
2.52537e-07
2.46064e-08
2.52664e-07
2.35027e-08
2.5277e-07
2.24985e-08
2.52856e-07
2.15776e-08
2.52921e-07
2.07274e-08
2.52964e-07
1.99378e-08
2.52986e-07
1.92007e-08
2.52985e-07
1.85098e-08
2.52962e-07
1.78594e-08
2.52917e-07
1.72452e-08
2.52849e-07
1.66632e-08
2.5276e-07
1.61101e-08
2.52649e-07
1.55828e-08
2.52518e-07
1.50789e-08
2.52367e-07
1.45958e-08
2.52197e-07
1.41315e-08
2.52008e-07
1.36839e-08
2.51803e-07
1.32514e-08
2.51582e-07
1.2832e-08
2.51346e-07
1.24245e-08
2.51097e-07
1.20268e-08
2.50836e-07
1.16381e-08
2.50564e-07
1.12556e-08
2.50282e-07
1.08792e-08
2.49992e-07
1.05042e-08
2.49696e-07
1.01323e-08
2.49395e-07
9.7547e-09
2.49091e-07
9.37567e-09
2.48784e-07
8.98097e-09
2.48478e-07
8.57429e-09
2.48173e-07
8.14094e-09
2.47875e-07
7.66447e-09
2.47583e-07
7.15687e-09
2.47296e-07
6.52054e-09
2.47031e-07
5.85865e-09
2.46742e-07
4.90151e-09
2.46474e-07
3.91505e-09
2.65623e-09
2.46128e-07
2.51478e-07
5.27142e-08
2.5455e-07
7.13044e-08
2.55837e-07
5.38253e-08
2.56928e-07
4.58064e-08
2.57642e-07
4.24076e-08
2.5805e-07
3.84568e-08
2.58377e-07
3.49228e-08
2.58672e-07
3.23458e-08
2.58926e-07
3.03191e-08
2.59145e-07
2.85634e-08
2.59339e-07
2.70174e-08
2.59515e-07
2.56568e-08
2.59674e-07
2.44476e-08
2.59817e-07
2.3359e-08
2.59947e-07
2.23688e-08
2.60063e-07
2.14613e-08
2.60166e-07
2.06242e-08
2.60257e-07
1.98477e-08
2.60333e-07
1.91239e-08
2.60397e-07
1.84464e-08
2.60446e-07
1.78098e-08
2.60482e-07
1.72096e-08
2.60503e-07
1.66418e-08
2.6051e-07
1.61031e-08
2.60503e-07
1.55904e-08
2.60481e-07
1.5101e-08
2.60444e-07
1.46323e-08
2.60393e-07
1.41822e-08
2.60329e-07
1.37486e-08
2.60251e-07
1.33295e-08
2.6016e-07
1.29232e-08
2.60056e-07
1.25281e-08
2.59941e-07
1.21423e-08
2.59814e-07
1.17646e-08
2.59677e-07
1.13924e-08
2.59531e-07
1.10253e-08
2.59377e-07
1.06589e-08
2.59215e-07
1.02942e-08
2.59046e-07
9.92332e-09
2.58873e-07
9.54877e-09
2.58695e-07
9.15887e-09
2.58516e-07
8.7533e-09
2.58335e-07
8.32207e-09
2.58156e-07
7.8437e-09
2.5798e-07
7.33249e-09
2.57803e-07
6.69723e-09
2.57641e-07
6.02128e-09
2.5745e-07
5.09198e-09
2.57266e-07
4.09965e-09
2.90201e-09
2.5702e-07
2.58751e-07
4.81461e-08
2.61843e-07
6.82121e-08
2.63103e-07
5.2566e-08
2.64183e-07
4.4726e-08
2.64932e-07
4.16589e-08
2.65363e-07
3.80261e-08
2.65696e-07
3.45895e-08
2.65997e-07
3.20451e-08
2.66256e-07
3.00595e-08
2.66479e-07
2.83407e-08
2.66676e-07
2.68203e-08
2.66854e-07
2.54786e-08
2.67017e-07
2.42851e-08
2.67166e-07
2.321e-08
2.67303e-07
2.22316e-08
2.6743e-07
2.13346e-08
2.67547e-07
2.0507e-08
2.67655e-07
1.97396e-08
2.67754e-07
1.90245e-08
2.67845e-07
1.83555e-08
2.67928e-07
1.77274e-08
2.68001e-07
1.71358e-08
2.68066e-07
1.65768e-08
2.68122e-07
1.60471e-08
2.68169e-07
1.55436e-08
2.68206e-07
1.50636e-08
2.68234e-07
1.46044e-08
2.68253e-07
1.41639e-08
2.68261e-07
1.37399e-08
2.6826e-07
1.33304e-08
2.6825e-07
1.29334e-08
2.68231e-07
1.25476e-08
2.68202e-07
1.21706e-08
2.68165e-07
1.18015e-08
2.6812e-07
1.14375e-08
2.68067e-07
1.10781e-08
2.68007e-07
1.07189e-08
2.67941e-07
1.03604e-08
2.67869e-07
9.99574e-09
2.67792e-07
9.62554e-09
2.6771e-07
9.24044e-09
2.67627e-07
8.83687e-09
2.67541e-07
8.4083e-09
2.67454e-07
7.93033e-09
2.67369e-07
7.41712e-09
2.6728e-07
6.78657e-09
2.67199e-07
6.1024e-09
2.67089e-07
5.20139e-09
2.66975e-07
4.21462e-09
3.06513e-09
2.66811e-07
2.66259e-07
4.38796e-08
2.69361e-07
6.51101e-08
2.70603e-07
5.13243e-08
2.71668e-07
4.36602e-08
2.72449e-07
4.08784e-08
2.72903e-07
3.75716e-08
2.73244e-07
3.42485e-08
2.73551e-07
3.17388e-08
2.73816e-07
2.97941e-08
2.74043e-07
2.81138e-08
2.74243e-07
2.66204e-08
2.74423e-07
2.52983e-08
2.74588e-07
2.41207e-08
2.74739e-07
2.30591e-08
2.74878e-07
2.2092e-08
2.75008e-07
2.12046e-08
2.7513e-07
2.03855e-08
2.75244e-07
1.96254e-08
2.75351e-07
1.89171e-08
2.75452e-07
1.82544e-08
2.75547e-07
1.76323e-08
2.75637e-07
1.70465e-08
2.7572e-07
1.64933e-08
2.75798e-07
1.59694e-08
2.7587e-07
1.54718e-08
2.75936e-07
1.49978e-08
2.75995e-07
1.45448e-08
2.76049e-07
1.41105e-08
2.76096e-07
1.36928e-08
2.76136e-07
1.32896e-08
2.76171e-07
1.2899e-08
2.76199e-07
1.25195e-08
2.76221e-07
1.21487e-08
2.76237e-07
1.17856e-08
2.76247e-07
1.14275e-08
2.76251e-07
1.10735e-08
2.76251e-07
1.07197e-08
2.76245e-07
1.03658e-08
2.76235e-07
1.00059e-08
2.76222e-07
9.63898e-09
2.76204e-07
9.25766e-09
2.76185e-07
8.85589e-09
2.76164e-07
8.42942e-09
2.76142e-07
7.95279e-09
2.76121e-07
7.43814e-09
2.76093e-07
6.81399e-09
2.7607e-07
6.12596e-09
2.76019e-07
5.25184e-09
2.75956e-07
4.27807e-09
3.16748e-09
2.75853e-07
2.7401e-07
3.99111e-08
2.7711e-07
6.20095e-08
2.78345e-07
5.00898e-08
2.79392e-07
4.26126e-08
2.802e-07
4.00702e-08
2.8068e-07
3.70916e-08
2.8103e-07
3.38989e-08
2.81342e-07
3.1427e-08
2.81613e-07
2.95227e-08
2.81845e-07
2.78822e-08
2.82048e-07
2.64175e-08
2.8223e-07
2.51158e-08
2.82396e-07
2.39546e-08
2.82549e-07
2.29067e-08
2.8269e-07
2.19512e-08
2.82821e-07
2.10734e-08
2.82944e-07
2.02625e-08
2.8306e-07
1.95095e-08
2.8317e-07
1.88073e-08
2.83274e-07
1.815e-08
2.83373e-07
1.75329e-08
2.83468e-07
1.69517e-08
2.83559e-07
1.6403e-08
2.83645e-07
1.58834e-08
2.83726e-07
1.539e-08
2.83804e-07
1.49202e-08
2.83877e-07
1.44715e-08
2.83946e-07
1.40415e-08
2.84011e-07
1.3628e-08
2.84072e-07
1.32292e-08
2.84128e-07
1.28429e-08
2.8418e-07
1.24676e-08
2.84227e-07
1.21011e-08
2.84271e-07
1.1742e-08
2.8431e-07
1.13879e-08
2.84346e-07
1.10376e-08
2.84378e-07
1.06875e-08
2.84408e-07
1.03367e-08
2.84434e-07
9.97994e-09
2.84457e-07
9.61525e-09
2.84478e-07
9.23648e-09
2.84498e-07
8.83597e-09
2.84517e-07
8.41069e-09
2.84534e-07
7.93561e-09
2.84553e-07
7.41973e-09
2.84564e-07
6.80254e-09
2.84576e-07
6.11397e-09
2.84563e-07
5.26452e-09
2.84533e-07
4.30826e-09
3.2303e-09
2.8447e-07
2.82013e-07
3.62355e-08
2.85101e-07
5.89216e-08
2.86338e-07
4.8853e-08
2.87364e-07
4.15861e-08
2.88196e-07
3.92391e-08
2.88702e-07
3.65851e-08
2.89061e-07
3.35394e-08
2.89379e-07
3.11097e-08
2.89656e-07
2.92451e-08
2.89893e-07
2.76456e-08
2.90099e-07
2.62112e-08
2.90284e-07
2.49308e-08
2.90452e-07
2.37866e-08
2.90606e-07
2.27529e-08
2.90748e-07
2.18092e-08
2.9088e-07
2.09413e-08
2.91004e-07
2.01387e-08
2.91121e-07
1.93927e-08
2.91231e-07
1.86966e-08
2.91337e-07
1.80447e-08
2.91437e-07
1.74322e-08
2.91534e-07
1.68553e-08
2.91626e-07
1.63105e-08
2.91715e-07
1.57946e-08
2.918e-07
1.53048e-08
2.91882e-07
1.48384e-08
2.9196e-07
1.43931e-08
2.92035e-07
1.39664e-08
2.92107e-07
1.35563e-08
2.92176e-07
1.31607e-08
2.92241e-07
1.27776e-08
2.92303e-07
1.24053e-08
2.92362e-07
1.20419e-08
2.92419e-07
1.16857e-08
2.92472e-07
1.13344e-08
2.92523e-07
1.09866e-08
2.92572e-07
1.0639e-08
2.92618e-07
1.02902e-08
2.92663e-07
9.9356e-09
2.92706e-07
9.57224e-09
2.92747e-07
9.19501e-09
2.92788e-07
8.7953e-09
2.92828e-07
8.37049e-09
2.92867e-07
7.89698e-09
2.92906e-07
7.38017e-09
2.92939e-07
6.76997e-09
2.92969e-07
6.08357e-09
2.92977e-07
5.25653e-09
2.92965e-07
4.32044e-09
3.27124e-09
2.92924e-07
2.90279e-07
3.28457e-08
2.93342e-07
5.58583e-08
2.9459e-07
4.7605e-08
2.95594e-07
4.05823e-08
2.96443e-07
3.83901e-08
2.96977e-07
3.60509e-08
2.97347e-07
3.31688e-08
2.9767e-07
3.07871e-08
2.97954e-07
2.89614e-08
2.98196e-07
2.74037e-08
2.98406e-07
2.60012e-08
2.98593e-07
2.47432e-08
2.98763e-07
2.36164e-08
2.98919e-07
2.25974e-08
2.99062e-07
2.16659e-08
2.99195e-07
2.08083e-08
2.9932e-07
2.00141e-08
2.99437e-07
1.92754e-08
2.99548e-07
1.85855e-08
2.99654e-07
1.79389e-08
2.99755e-07
1.73311e-08
2.99852e-07
1.67584e-08
2.99945e-07
1.62174e-08
3.00035e-07
1.57051e-08
3.00121e-07
1.52186e-08
3.00204e-07
1.47555e-08
3.00284e-07
1.43132e-08
3.00361e-07
1.38895e-08
3.00435e-07
1.34822e-08
3.00506e-07
1.30894e-08
3.00575e-07
1.2709e-08
3.00641e-07
1.23393e-08
3.00704e-07
1.19782e-08
3.00766e-07
1.16244e-08
3.00825e-07
1.12752e-08
3.00882e-07
1.09293e-08
3.00937e-07
1.05836e-08
3.00991e-07
1.02362e-08
3.01044e-07
9.88311e-09
3.01095e-07
9.52063e-09
3.01146e-07
9.14434e-09
3.01196e-07
8.74523e-09
3.01246e-07
8.32051e-09
3.01294e-07
7.84867e-09
3.01343e-07
7.33149e-09
3.01385e-07
6.72827e-09
3.01422e-07
6.04638e-09
3.01439e-07
5.23993e-09
3.01433e-07
4.3256e-09
3.30321e-09
3.01401e-07
2.98816e-07
2.97326e-08
3.01842e-07
5.28316e-08
3.03109e-07
4.6338e-08
3.04089e-07
3.96022e-08
3.04951e-07
3.75288e-08
3.05513e-07
3.54888e-08
3.05896e-07
3.27855e-08
3.06224e-07
3.0459e-08
3.06514e-07
2.86716e-08
3.06762e-07
2.71561e-08
3.06976e-07
2.57872e-08
3.07166e-07
2.45527e-08
3.07339e-07
2.34441e-08
3.07496e-07
2.24401e-08
3.07641e-07
2.15213e-08
3.07775e-07
2.06741e-08
3.079e-07
1.98888e-08
3.08018e-07
1.91575e-08
3.0813e-07
1.84738e-08
3.08236e-07
1.78327e-08
3.08337e-07
1.72297e-08
3.08435e-07
1.66613e-08
3.08528e-07
1.61241e-08
3.08618e-07
1.56153e-08
3.08704e-07
1.51322e-08
3.08787e-07
1.46723e-08
3.08867e-07
1.4233e-08
3.08945e-07
1.38122e-08
3.09019e-07
1.34077e-08
3.09091e-07
1.30174e-08
3.09161e-07
1.26395e-08
3.09228e-07
1.22722e-08
3.09293e-07
1.19134e-08
3.09356e-07
1.15615e-08
3.09416e-07
1.12143e-08
3.09476e-07
1.087e-08
3.09533e-07
1.05259e-08
3.0959e-07
1.01797e-08
3.09645e-07
9.82778e-09
3.097e-07
9.46604e-09
3.09754e-07
9.09044e-09
3.09807e-07
8.69197e-09
3.0986e-07
8.26735e-09
3.09912e-07
7.7974e-09
3.09962e-07
7.28072e-09
3.10006e-07
6.68457e-09
3.10043e-07
6.00933e-09
3.10061e-07
5.22225e-09
3.10056e-07
4.33076e-09
3.33469e-09
3.10024e-07
3.07634e-07
2.68859e-08
3.10612e-07
4.98535e-08
3.11905e-07
4.50452e-08
3.12861e-07
3.86457e-08
3.1373e-07
3.66605e-08
3.1432e-07
3.48989e-08
3.14717e-07
3.23878e-08
3.15051e-07
3.01251e-08
3.15347e-07
2.83756e-08
3.156e-07
2.69026e-08
3.15819e-07
2.55688e-08
3.16012e-07
2.43591e-08
3.16187e-07
2.32692e-08
3.16347e-07
2.22808e-08
3.16493e-07
2.1375e-08
3.16628e-07
2.05387e-08
3.16755e-07
1.97624e-08
3.16873e-07
1.90387e-08
3.16986e-07
1.83616e-08
3.17092e-07
1.7726e-08
3.17194e-07
1.7128e-08
3.17291e-07
1.65639e-08
3.17385e-07
1.60306e-08
3.17475e-07
1.55255e-08
3.17561e-07
1.50458e-08
3.17644e-07
1.4589e-08
3.17725e-07
1.41528e-08
3.17802e-07
1.37349e-08
3.17877e-07
1.33331e-08
3.17949e-07
1.29455e-08
3.18018e-07
1.25701e-08
3.18085e-07
1.2205e-08
3.1815e-07
1.18484e-08
3.18213e-07
1.14985e-08
3.18274e-07
1.11531e-08
3.18334e-07
1.08105e-08
3.18392e-07
1.04679e-08
3.18449e-07
1.01228e-08
3.18505e-07
9.772e-09
3.1856e-07
9.41108e-09
3.18614e-07
9.03616e-09
3.18667e-07
8.63855e-09
3.1872e-07
8.21432e-09
3.18771e-07
7.74663e-09
3.1882e-07
7.2315e-09
3.18862e-07
6.64272e-09
3.18895e-07
5.97603e-09
3.1891e-07
5.20776e-09
3.18901e-07
4.33998e-09
3.37079e-09
3.18865e-07
3.16744e-07
2.42935e-08
3.19661e-07
4.69362e-08
3.20985e-07
4.37212e-08
3.21919e-07
3.77117e-08
3.22789e-07
3.57904e-08
3.23406e-07
3.42823e-08
3.23819e-07
3.19743e-08
3.24159e-07
2.97851e-08
3.24461e-07
2.80738e-08
3.24721e-07
2.6643e-08
3.24944e-07
2.53457e-08
3.25141e-07
2.41621e-08
3.25318e-07
2.30917e-08
3.2548e-07
2.21193e-08
3.25628e-07
2.1227e-08
3.25765e-07
2.04019e-08
3.25892e-07
1.96349e-08
3.26012e-07
1.8919e-08
3.26125e-07
1.82486e-08
3.26232e-07
1.76188e-08
3.26334e-07
1.70257e-08
3.26432e-07
1.64661e-08
3.26526e-07
1.59369e-08
3.26616e-07
1.54355e-08
3.26702e-07
1.49592e-08
3.26786e-07
1.45057e-08
3.26866e-07
1.40726e-08
3.26943e-07
1.36576e-08
3.27018e-07
1.32587e-08
3.27089e-07
1.28737e-08
3.27159e-07
1.25008e-08
3.27226e-07
1.21381e-08
3.2729e-07
1.17837e-08
3.27353e-07
1.14358e-08
3.27414e-07
1.10923e-08
3.27473e-07
1.07513e-08
3.27531e-07
1.04102e-08
3.27587e-07
1.00664e-08
3.27642e-07
9.71676e-09
3.27697e-07
9.35683e-09
3.2775e-07
8.98275e-09
3.27802e-07
8.58631e-09
3.27854e-07
8.16294e-09
3.27902e-07
7.69799e-09
3.27948e-07
7.18555e-09
3.27986e-07
6.60461e-09
3.28014e-07
5.94818e-09
3.28023e-07
5.19866e-09
3.28008e-07
4.35545e-09
3.41443e-09
3.27964e-07
3.26154e-07
2.1942e-08
3.28999e-07
4.40912e-08
3.30358e-07
4.23623e-08
3.31271e-07
3.67983e-08
3.32138e-07
3.49232e-08
3.3278e-07
3.36409e-08
3.33211e-07
3.15435e-08
3.33558e-07
2.94383e-08
3.33865e-07
2.77661e-08
3.34131e-07
2.63769e-08
3.3436e-07
2.51175e-08
3.3456e-07
2.39615e-08
3.34741e-07
2.29113e-08
3.34905e-07
2.19553e-08
3.35055e-07
2.10769e-08
3.35193e-07
2.02634e-08
3.35322e-07
1.9506e-08
3.35443e-07
1.87983e-08
3.35557e-07
1.81347e-08
3.35665e-07
1.75108e-08
3.35767e-07
1.69229e-08
3.35866e-07
1.63678e-08
3.3596e-07
1.58428e-08
3.3605e-07
1.53452e-08
3.36137e-07
1.48725e-08
3.3622e-07
1.44223e-08
3.36301e-07
1.39924e-08
3.36378e-07
1.35804e-08
3.36452e-07
1.31843e-08
3.36524e-07
1.28021e-08
3.36593e-07
1.24318e-08
3.36659e-07
1.20715e-08