/*--------------------------------*- C++ -*----------------------------------*\
  =========                 |
  \\      /  F ield         | OpenFOAM: The Open Source CFD Toolbox
   \\    /   O peration     | Website:  https://openfoam.org
    \\  /    A nd           | Version:  7
     \\/     M anipulation  |
\*---------------------------------------------------------------------------*/
FoamFile
{
    version     2.0;
    format      ascii;
    class       surfaceScalarField;
    location    "0.48";
    object      phi_0;
}
// * * * * * * * * * * * * * * * * * * * * * * * * * * * * * * * * * * * * * //

dimensions      [0 3 -1 0 0 0 0];

internalField   nonuniform List<scalar> 
139350
(
6.45928e-08
9.20387e-08
3.19519e-08
3.26409e-08
2.30614e-08
8.89054e-09
1.95677e-08
3.49372e-09
1.76166e-08
1.95108e-09
1.61899e-08
1.42675e-09
1.50578e-08
1.13204e-09
1.4145e-08
9.12822e-10
1.33938e-08
7.51179e-10
1.27611e-08
6.32691e-10
1.22181e-08
5.43048e-10
1.17453e-08
4.72768e-10
1.13291e-08
4.16226e-10
1.09592e-08
3.69886e-10
1.06279e-08
3.31337e-10
1.0329e-08
2.98851e-10
1.00578e-08
2.71164e-10
9.81051e-09
2.47327e-10
9.58389e-09
2.26622e-10
9.3754e-09
2.08493e-10
9.18289e-09
1.92505e-10
9.00458e-09
1.78312e-10
8.83895e-09
1.65635e-10
8.6847e-09
1.54249e-10
8.54073e-09
1.43968e-10
8.4061e-09
1.34636e-10
8.27997e-09
1.26122e-10
8.16165e-09
1.18319e-10
8.05053e-09
1.11124e-10
7.94607e-09
1.04464e-10
7.84782e-09
9.82495e-11
7.75538e-09
9.24364e-11
7.66845e-09
8.69276e-11
7.58674e-09
8.17161e-11
7.51007e-09
7.66664e-11
7.43825e-09
7.18233e-11
7.37127e-09
6.69824e-11
7.30904e-09
6.223e-11
7.25171e-09
5.73267e-11
7.1995e-09
5.22128e-11
7.1525e-09
4.69949e-11
7.11196e-09
4.05431e-11
7.07696e-09
3.50008e-11
7.0522e-09
2.47616e-11
7.03224e-09
1.99549e-11
7.03338e-09
-1.13445e-12
7.03104e-09
2.33888e-12
7.10103e-09
-6.99971e-11
6.96375e-09
1.37287e-10
-3.34359e-09
1.03073e-08
1.26026e-07
1.27456e-07
9.12647e-08
6.74025e-08
7.19446e-08
2.82106e-08
6.12184e-08
1.42199e-08
5.47732e-08
8.39632e-09
5.02807e-08
5.91927e-09
4.67982e-08
4.61455e-09
4.39842e-08
3.72675e-09
4.16597e-08
3.07574e-09
3.96997e-08
2.59263e-09
3.80173e-08
2.22552e-09
3.65522e-08
1.93786e-09
3.52618e-08
1.70663e-09
3.41145e-08
1.51716e-09
3.30863e-08
1.35953e-09
3.21585e-08
1.22667e-09
3.13162e-08
1.11342e-09
3.05477e-08
1.01591e-09
2.98431e-08
9.31196e-10
2.91946e-08
8.57021e-10
2.85955e-08
7.91605e-10
2.80402e-08
7.33537e-10
2.75242e-08
6.81684e-10
2.70433e-08
6.35123e-10
2.65942e-08
5.93098e-10
2.61738e-08
5.54976e-10
2.57797e-08
5.20227e-10
2.54096e-08
4.88408e-10
2.50616e-08
4.59122e-10
2.4734e-08
4.32056e-10
2.44254e-08
4.06883e-10
2.41345e-08
3.83395e-10
2.38601e-08
3.61261e-10
2.36014e-08
3.40407e-10
2.33577e-08
3.20383e-10
2.31282e-08
3.01325e-10
2.29127e-08
2.82482e-10
2.27106e-08
2.64344e-10
2.25223e-08
2.45618e-10
2.23473e-08
2.27218e-10
2.2187e-08
2.07284e-10
2.20411e-08
1.86431e-10
2.19123e-08
1.63802e-10
2.1802e-08
1.35131e-10
2.17121e-08
1.09808e-10
2.16557e-08
5.52807e-11
2.16104e-08
4.75994e-11
2.1703e-08
-1.6253e-10
2.15889e-08
2.51377e-10
-4.3033e-09
2.25486e-08
1.58808e-07
1.35052e-07
1.36496e-07
8.97142e-08
1.17496e-07
4.72109e-08
1.03319e-07
2.83967e-08
9.33128e-08
1.84023e-08
8.6012e-08
1.322e-08
8.03077e-08
1.03189e-08
7.56586e-08
8.37593e-09
7.17824e-08
6.95191e-09
6.84923e-08
5.8827e-09
6.56551e-08
5.06273e-09
6.31759e-08
4.41705e-09
6.09861e-08
3.89641e-09
5.90346e-08
3.46872e-09
5.7282e-08
3.1121e-09
5.56977e-08
2.81094e-09
5.42574e-08
2.5538e-09
5.29412e-08
2.33209e-09
5.17331e-08
2.13926e-09
5.06199e-08
1.97023e-09
4.95905e-08
1.82103e-09
4.86355e-08
1.68849e-09
4.77471e-08
1.57006e-09
4.69186e-08
1.46367e-09
4.61441e-08
1.36761e-09
4.54186e-08
1.28045e-09
4.47378e-08
1.201e-09
4.4098e-08
1.12826e-09
4.34958e-08
1.06134e-09
4.29283e-08
9.99528e-10
4.23931e-08
9.42113e-10
4.18879e-08
8.88603e-10
4.14108e-08
8.38315e-10
4.09602e-08
7.91029e-10
4.05347e-08
7.45845e-10
4.0133e-08
7.03005e-10
3.97546e-08
6.60943e-10
3.93981e-08
6.20838e-10
3.90641e-08
5.79601e-10
3.87511e-08
5.40233e-10
3.84617e-08
4.96701e-10
3.81932e-08
4.54896e-10
3.79523e-08
4.04707e-10
3.77346e-08
3.52817e-10
3.75516e-08
2.92798e-10
3.74061e-08
2.00793e-10
3.72892e-08
1.64507e-10
3.73194e-08
-1.92736e-10
3.72981e-08
2.72711e-10
-4.3157e-09
3.73105e-08
1.75664e-07
1.30904e-07
1.65596e-07
9.97826e-08
1.52726e-07
6.00809e-08
1.40128e-07
4.0995e-08
1.29439e-07
2.90909e-08
1.20797e-07
2.18622e-08
1.13686e-07
1.74295e-08
1.07707e-07
1.43548e-08
1.02609e-07
1.20501e-08
9.82095e-08
1.02824e-08
9.43686e-08
8.90362e-09
9.09808e-08
7.80486e-09
8.79661e-08
6.91111e-09
8.5263e-08
6.17184e-09
8.28232e-08
5.55191e-09
8.06082e-08
5.02591e-09
7.8587e-08
4.575e-09
7.67342e-08
4.18489e-09
7.50289e-08
3.84459e-09
7.34535e-08
3.54556e-09
7.19935e-08
3.28102e-09
7.06365e-08
3.04557e-09
6.93717e-08
2.83483e-09
6.81901e-08
2.64524e-09
6.70839e-08
2.47383e-09
6.60462e-08
2.31814e-09
6.50711e-08
2.17611e-09
6.41534e-08
2.04597e-09
6.32885e-08
1.9262e-09
6.24725e-08
1.81554e-09
6.17019e-08
1.71278e-09
6.09735e-08
1.61702e-09
6.02846e-08
1.52715e-09
5.96329e-08
1.44271e-09
5.90165e-08
1.36226e-09
5.84334e-08
1.28612e-09
5.78826e-08
1.21175e-09
5.73623e-08
1.14114e-09
5.68729e-08
1.06901e-09
5.64121e-08
1.00101e-09
5.59831e-08
9.25763e-10
5.55817e-08
8.56264e-10
5.52164e-08
7.70044e-10
5.48801e-08
6.8912e-10
5.45877e-08
5.85122e-10
5.43387e-08
4.49815e-10
5.41316e-08
3.71587e-10
5.4058e-08
-1.191e-10
5.4062e-08
2.68719e-10
-4.01123e-09
5.37575e-08
1.8456e-07
1.23129e-07
1.82322e-07
1.02021e-07
1.76104e-07
6.62984e-08
1.67762e-07
4.93372e-08
1.59139e-07
3.77136e-08
1.5123e-07
2.97712e-08
1.44158e-07
2.45018e-08
1.37859e-07
2.06536e-08
1.3226e-07
1.76491e-08
1.27277e-07
1.52656e-08
1.22824e-07
1.33567e-08
1.18824e-07
1.18045e-08
1.15214e-07
1.05219e-08
1.11938e-07
9.44766e-09
1.08952e-07
8.53748e-09
1.0622e-07
7.75857e-09
1.03709e-07
7.08599e-09
1.01393e-07
6.50051e-09
9.92504e-08
5.98708e-09
9.72621e-08
5.53382e-09
9.54119e-08
5.13124e-09
9.36858e-08
4.77164e-09
9.20719e-08
4.44879e-09
9.05596e-08
4.15751e-09
8.91399e-08
3.89352e-09
8.78048e-08
3.65322e-09
8.65474e-08
3.43358e-09
8.53613e-08
3.232e-09
8.42413e-08
3.04623e-09
8.31825e-08
2.87438e-09
8.21806e-08
2.71467e-09
8.12318e-08
2.56576e-09
8.0333e-08
2.426e-09
7.9481e-08
2.29467e-09
7.86735e-08
2.16973e-09
7.79081e-08
2.05153e-09
7.71834e-08
1.93651e-09
7.64971e-08
1.82744e-09
7.58493e-08
1.71676e-09
7.52375e-08
1.61282e-09
7.46645e-08
1.49875e-09
7.41261e-08
1.39468e-09
7.36303e-08
1.26587e-09
7.31705e-08
1.1489e-09
7.27602e-08
9.95367e-10
7.24009e-08
8.09167e-10
7.20936e-08
6.78841e-10
7.1904e-08
7.05695e-11
7.18582e-08
3.14533e-10
-3.55709e-09
7.1404e-08
1.90388e-07
1.14957e-07
1.91852e-07
1.00557e-07
1.90245e-07
6.79056e-08
1.86155e-07
5.34272e-08
1.80716e-07
4.31523e-08
1.74962e-07
3.55261e-08
1.69264e-07
3.0199e-08
1.6378e-07
2.61377e-08
1.58605e-07
2.28239e-08
1.53782e-07
2.00888e-08
1.49314e-07
1.78254e-08
1.45183e-07
1.59351e-08
1.41366e-07
1.43387e-08
1.37837e-07
1.2977e-08
1.34569e-07
1.18056e-08
1.31537e-07
1.07902e-08
1.2872e-07
9.90367e-09
1.26095e-07
9.12466e-09
1.23647e-07
8.43592e-09
1.21357e-07
7.82354e-09
1.19212e-07
7.2762e-09
1.17199e-07
6.78459e-09
1.15307e-07
6.34102e-09
1.13525e-07
5.93907e-09
1.11845e-07
5.57333e-09
1.10259e-07
5.23924e-09
1.0876e-07
4.93289e-09
1.07341e-07
4.65092e-09
1.05997e-07
4.39043e-09
1.04722e-07
4.14892e-09
1.03513e-07
3.92406e-09
1.02365e-07
3.71404e-09
1.01274e-07
3.51674e-09
1.00238e-07
3.33111e-09
9.92527e-08
3.15455e-09
9.83169e-08
2.98737e-09
9.74283e-08
2.82509e-09
9.65847e-08
2.67106e-09
9.57857e-08
2.51571e-09
9.5029e-08
2.3696e-09
9.43165e-08
2.21117e-09
9.3645e-08
2.06622e-09
9.30206e-08
1.8903e-09
9.24394e-08
1.7301e-09
9.19105e-08
1.52419e-09
9.14404e-08
1.27928e-09
9.10296e-08
1.0897e-09
9.07228e-08
3.77294e-10
9.05898e-08
4.47523e-10
-2.98537e-09
9.00181e-08
1.95541e-07
1.0723e-07
1.98248e-07
9.78499e-08
1.9897e-07
6.71838e-08
1.9779e-07
5.46074e-08
1.95157e-07
4.57845e-08
1.91815e-07
3.88687e-08
1.88082e-07
3.3932e-08
1.8413e-07
3.00894e-08
1.80109e-07
2.68448e-08
1.76129e-07
2.40686e-08
1.72259e-07
2.16958e-08
1.68537e-07
1.96574e-08
1.64983e-07
1.78926e-08
1.61605e-07
1.63543e-08
1.58405e-07
1.50058e-08
1.55378e-07
1.38174e-08
1.52517e-07
1.27651e-08
1.49813e-07
1.18286e-08
1.47257e-07
1.09915e-08
1.44841e-07
1.024e-08
1.42554e-07
9.56246e-09
1.4039e-07
8.9492e-09
1.38339e-07
8.39204e-09
1.36394e-07
7.88399e-09
1.34548e-07
7.41912e-09
1.32795e-07
6.9923e-09
1.31129e-07
6.59911e-09
1.29544e-07
6.23571e-09
1.28036e-07
5.8987e-09
1.26599e-07
5.58518e-09
1.25231e-07
5.29239e-09
1.23927e-07
5.01816e-09
1.22684e-07
4.75998e-09
1.21498e-07
4.51652e-09
1.20368e-07
4.28473e-09
1.19291e-07
4.0648e-09
1.18264e-07
3.85153e-09
1.17287e-07
3.64862e-09
1.16357e-07
3.44496e-09
1.15474e-07
3.25255e-09
1.14639e-07
3.04649e-09
1.13849e-07
2.85598e-09
1.13109e-07
2.63067e-09
1.12418e-07
2.42136e-09
1.1178e-07
2.1623e-09
1.11206e-07
1.85273e-09
1.10697e-07
1.59882e-09
1.10278e-07
7.96148e-10
1.10045e-07
6.80886e-10
-2.3205e-09
1.0938e-07
2.00848e-07
9.9967e-08
2.03776e-07
9.49216e-08
2.05328e-07
6.56321e-08
2.05644e-07
5.42913e-08
2.04818e-07
4.66111e-08
2.03336e-07
4.03506e-08
2.01387e-07
3.5881e-08
1.99055e-07
3.2421e-08
1.96447e-07
2.94533e-08
1.93664e-07
2.68511e-08
1.90789e-07
2.45713e-08
1.87881e-07
2.25655e-08
1.84984e-07
2.07888e-08
1.82132e-07
1.92068e-08
1.79345e-07
1.77924e-08
1.76639e-07
1.65236e-08
1.74022e-07
1.53818e-08
1.715e-07
1.4351e-08
1.69074e-07
1.34175e-08
1.66744e-07
1.25695e-08
1.6451e-07
1.17969e-08
1.62368e-07
1.10909e-08
1.60317e-07
1.04438e-08
1.58352e-07
9.84913e-09
1.5647e-07
9.30105e-09
1.54667e-07
8.7945e-09
1.52941e-07
8.32503e-09
1.51288e-07
7.88871e-09
1.49705e-07
7.48202e-09
1.48188e-07
7.10188e-09
1.46735e-07
6.74538e-09
1.45343e-07
6.41017e-09
1.4401e-07
6.09349e-09
1.42733e-07
5.79387e-09
1.41509e-07
5.50795e-09
1.40338e-07
5.23583e-09
1.39218e-07
4.97182e-09
1.38147e-07
4.71974e-09
1.37124e-07
4.46751e-09
1.36149e-07
4.22775e-09
1.35222e-07
3.97374e-09
1.34342e-07
3.73569e-09
1.33512e-07
3.46127e-09
1.32733e-07
3.19964e-09
1.32007e-07
2.88851e-09
1.31348e-07
2.51181e-09
1.30756e-07
2.19041e-09
1.3024e-07
1.3131e-09
1.29907e-07
1.01353e-09
-1.59196e-09
1.29178e-07
2.06447e-07
9.30519e-08
2.0934e-07
9.20287e-08
2.11038e-07
6.39341e-08
2.11932e-07
5.33968e-08
2.12002e-07
4.65418e-08
2.11615e-07
4.07371e-08
2.10885e-07
3.66113e-08
2.09813e-07
3.34926e-08
2.08438e-07
3.08286e-08
2.06817e-07
2.84717e-08
2.05008e-07
2.63812e-08
2.03058e-07
2.45153e-08
2.01011e-07
2.2836e-08
1.98902e-07
2.13152e-08
1.96762e-07
1.99327e-08
1.94613e-07
1.86724e-08
1.92474e-07
1.75207e-08
1.90359e-07
1.64659e-08
1.88279e-07
1.54979e-08
1.86241e-07
1.46075e-08
1.84251e-07
1.3787e-08
1.82312e-07
1.30292e-08
1.80428e-07
1.23279e-08
1.786e-07
1.16776e-08
1.76828e-07
1.10731e-08
1.75112e-07
1.05101e-08
1.73452e-07
9.98458e-09
1.71848e-07
9.49285e-09
1.70299e-07
9.03166e-09
1.68803e-07
8.59806e-09
1.67359e-07
8.18925e-09
1.65966e-07
7.80291e-09
1.64623e-07
7.43628e-09
1.63329e-07
7.08786e-09
1.62083e-07
6.7542e-09
1.60883e-07
6.43535e-09
1.5973e-07
6.12538e-09
1.58621e-07
5.82808e-09
1.57558e-07
5.53096e-09
1.56539e-07
5.24654e-09
1.55565e-07
4.94768e-09
1.54637e-07
4.66351e-09
1.53756e-07
4.34314e-09
1.52926e-07
4.0295e-09
1.52145e-07
3.66947e-09
1.51429e-07
3.22737e-09
1.50782e-07
2.83792e-09
1.50192e-07
1.90298e-09
1.49774e-07
1.43097e-09
-8.31093e-10
1.49014e-07
2.12289e-07
8.64252e-08
2.15153e-07
8.91648e-08
2.16792e-07
6.22947e-08
2.17845e-07
5.23442e-08
2.18261e-07
4.61261e-08
2.18377e-07
4.06209e-08
2.183e-07
3.66877e-08
2.18e-07
3.37929e-08
2.17469e-07
3.13602e-08
2.16724e-07
2.92161e-08
2.15791e-07
2.73141e-08
2.14695e-07
2.56115e-08
2.13462e-07
2.40693e-08
2.12117e-07
2.26602e-08
2.10684e-07
2.13657e-08
2.09184e-07
2.0172e-08
2.07637e-07
1.90683e-08
2.06057e-07
1.80455e-08
2.04459e-07
1.70958e-08
2.02854e-07
1.62125e-08
2.01252e-07
1.53897e-08
1.99659e-07
1.46221e-08
1.98082e-07
1.39047e-08
1.96526e-07
1.32333e-08
1.94995e-07
1.2604e-08
1.93493e-07
1.20129e-08
1.9202e-07
1.14568e-08
1.9058e-07
1.09328e-08
1.89174e-07
1.04378e-08
1.87803e-07
9.96941e-09
1.86467e-07
9.52507e-09
1.85167e-07
9.10269e-09
1.83904e-07
8.69968e-09
1.82677e-07
8.31467e-09
1.81487e-07
7.94428e-09
1.80334e-07
7.58857e-09
1.79218e-07
7.24163e-09
1.78139e-07
6.90711e-09
1.77097e-07
6.57256e-09
1.76094e-07
6.24986e-09
1.75129e-07
5.91263e-09
1.74205e-07
5.58732e-09
1.73321e-07
5.22703e-09
1.72485e-07
4.86539e-09
1.71693e-07
4.46183e-09
1.7096e-07
3.96033e-09
1.70292e-07
3.5054e-09
1.69665e-07
2.53056e-09
1.69189e-07
1.90632e-09
-7.11212e-11
1.68429e-07
2.1833e-07
8.00757e-08
2.21207e-07
8.62884e-08
2.22765e-07
6.07362e-08
2.23845e-07
5.12648e-08
2.2437e-07
4.5601e-08
2.24664e-07
4.03269e-08
2.24864e-07
3.64876e-08
2.24942e-07
3.37147e-08
2.24876e-07
3.1426e-08
2.24667e-07
2.94257e-08
2.24318e-07
2.76629e-08
2.23836e-07
2.6093e-08
2.23231e-07
2.46744e-08
2.22514e-07
2.33774e-08
2.21698e-07
2.21821e-08
2.20795e-07
2.10745e-08
2.19819e-07
2.00439e-08
2.18783e-07
1.9082e-08
2.17697e-07
1.81818e-08
2.16572e-07
1.73378e-08
2.15416e-07
1.6545e-08
2.14239e-07
1.57992e-08
2.13047e-07
1.50966e-08
2.11847e-07
1.44337e-08
2.10644e-07
1.38073e-08
2.09442e-07
1.32146e-08
2.08246e-07
1.26528e-08
2.07059e-07
1.21196e-08
2.05884e-07
1.16125e-08
2.04724e-07
1.11294e-08
2.03581e-07
1.06682e-08
2.02457e-07
1.0227e-08
2.01353e-07
9.8036e-09
2.00271e-07
9.39677e-09
1.99212e-07
9.00333e-09
1.98177e-07
8.62341e-09
1.97168e-07
8.25124e-09
1.96184e-07
7.89029e-09
1.95228e-07
7.5285e-09
1.94302e-07
7.17673e-09
1.93404e-07
6.81021e-09
1.9254e-07
6.45161e-09
1.91707e-07
6.05978e-09
1.90915e-07
5.65734e-09
1.90159e-07
5.21758e-09
1.89453e-07
4.66626e-09
1.88807e-07
4.15168e-09
1.88183e-07
3.15439e-09
1.87686e-07
2.40387e-09
6.53732e-10
1.86961e-07
2.24559e-07
7.40101e-08
2.27471e-07
8.33764e-08
2.28962e-07
5.92452e-08
2.30047e-07
5.01802e-08
2.30613e-07
4.50346e-08
2.30956e-07
3.99841e-08
2.31245e-07
3.61981e-08
2.31471e-07
3.34883e-08
2.31615e-07
3.12829e-08
2.31672e-07
2.93679e-08
2.31644e-07
2.76908e-08
2.31529e-07
2.62082e-08
2.31326e-07
2.48772e-08
2.31038e-07
2.36657e-08
2.30668e-07
2.25522e-08
2.30221e-07
2.15213e-08
2.29704e-07
2.05613e-08
2.29122e-07
1.96634e-08
2.28484e-07
1.88206e-08
2.27794e-07
1.80271e-08
2.27061e-07
1.72784e-08
2.2629e-07
1.65704e-08
2.25487e-07
1.58998e-08
2.24657e-07
1.52634e-08
2.23805e-07
1.46587e-08
2.22937e-07
1.40829e-08
2.22056e-07
1.3534e-08
2.21166e-07
1.30097e-08
2.2027e-07
1.25081e-08
2.19372e-07
1.20274e-08
2.18475e-07
1.15657e-08
2.1758e-07
1.11215e-08
2.16691e-07
1.06927e-08
2.15809e-07
1.02784e-08
2.14937e-07
9.8755e-09
2.14076e-07
9.48426e-09
2.13228e-07
9.09914e-09
2.12395e-07
8.72334e-09
2.11578e-07
8.34545e-09
2.1078e-07
7.97498e-09
2.10001e-07
7.58943e-09
2.09246e-07
7.20692e-09
2.08512e-07
6.79311e-09
2.07811e-07
6.35914e-09
2.07137e-07
5.89162e-09
2.065e-07
5.30235e-09
2.05915e-07
4.73663e-09
2.05337e-07
3.73298e-09
2.04856e-07
2.8849e-09
1.31207e-09
2.04198e-07
2.3098e-07
6.82363e-08
2.33935e-07
8.04207e-08
2.35367e-07
5.78133e-08
2.36458e-07
4.90894e-08
2.37058e-07
4.44346e-08
2.37416e-07
3.9626e-08
2.37727e-07
3.58871e-08
2.37999e-07
3.32161e-08
2.38218e-07
3.10642e-08
2.38385e-07
2.92008e-08
2.38503e-07
2.75731e-08
2.38569e-07
2.61416e-08
2.38582e-07
2.4864e-08
2.38541e-07
2.37076e-08
2.38443e-07
2.26496e-08
2.38291e-07
2.16736e-08
2.38085e-07
2.07673e-08
2.37827e-07
1.99211e-08
2.3752e-07
1.91274e-08
2.37167e-07
1.838e-08
2.36772e-07
1.76741e-08
2.36337e-07
1.70055e-08
2.35866e-07
1.63707e-08
2.35363e-07
1.57667e-08
2.3483e-07
1.51908e-08
2.34273e-07
1.46407e-08
2.33692e-07
1.4114e-08
2.33093e-07
1.3609e-08
2.32478e-07
1.31236e-08
2.31849e-07
1.26563e-08
2.31209e-07
1.22054e-08
2.30561e-07
1.17694e-08
2.29907e-07
1.13465e-08
2.2925e-07
1.09358e-08
2.28591e-07
1.05344e-08
2.27933e-07
1.01425e-08
2.27277e-07
9.75495e-09
2.26626e-07
9.37449e-09
2.25981e-07
8.99054e-09
2.25345e-07
8.61102e-09
2.24718e-07
8.21608e-09
2.24106e-07
7.81896e-09
2.23507e-07
7.39237e-09
2.22929e-07
6.93664e-09
2.22371e-07
6.44976e-09
2.21838e-07
5.835e-09
2.21347e-07
5.22821e-09
2.20848e-07
4.23194e-09
2.20418e-07
3.31478e-09
1.87778e-09
2.19852e-07
2.37601e-07
6.27603e-08
2.40603e-07
7.74185e-08
2.41978e-07
5.64386e-08
2.43073e-07
4.79937e-08
2.43711e-07
4.37975e-08
2.44082e-07
3.92546e-08
2.44398e-07
3.55707e-08
2.44683e-07
3.29316e-08
2.44924e-07
3.08228e-08
2.45128e-07
2.89972e-08
2.453e-07
2.74011e-08
2.45442e-07
2.6e-08
2.45552e-07
2.47537e-08
2.4563e-07
2.36298e-08
2.45674e-07
2.26054e-08
2.45684e-07
2.16638e-08
2.45659e-07
2.07925e-08
2.45598e-07
1.99814e-08
2.45503e-07
1.92225e-08
2.45374e-07
1.85094e-08
2.45211e-07
1.78367e-08
2.45016e-07
1.72002e-08
2.44791e-07
1.65962e-08
2.44536e-07
1.60213e-08
2.44254e-07
1.54728e-08
2.43947e-07
1.49483e-08
2.43615e-07
1.44453e-08
2.43262e-07
1.3962e-08
2.4289e-07
1.34964e-08
2.42499e-07
1.30469e-08
2.42093e-07
1.26118e-08
2.41672e-07
1.21897e-08
2.4124e-07
1.17788e-08
2.40798e-07
1.13781e-08
2.40347e-07
1.0985e-08
2.3989e-07
1.05995e-08
2.39428e-07
1.02167e-08
2.38964e-07
9.83878e-09
2.38498e-07
9.45618e-09
2.38034e-07
9.07499e-09
2.37572e-07
8.67822e-09
2.37117e-07
8.27417e-09
2.36667e-07
7.8423e-09
2.3623e-07
7.3736e-09
2.35805e-07
6.8746e-09
2.35395e-07
6.24571e-09
2.35015e-07
5.60809e-09
2.34617e-07
4.6297e-09
2.34263e-07
3.66917e-09
2.33574e-09
2.33805e-07
2.44431e-07
5.75857e-08
2.47473e-07
7.43766e-08
2.48798e-07
5.51128e-08
2.49894e-07
4.68976e-08
2.5057e-07
4.31217e-08
2.50959e-07
3.8866e-08
2.5128e-07
3.525e-08
2.5157e-07
3.26416e-08
2.51819e-07
3.05738e-08
2.52033e-07
2.87828e-08
2.52222e-07
2.72121e-08
2.52389e-07
2.58326e-08
2.52536e-07
2.46068e-08
2.52663e-07
2.35031e-08
2.5277e-07
2.24989e-08
2.52855e-07
2.1578e-08
2.5292e-07
2.07277e-08
2.52964e-07
1.99381e-08
2.52985e-07
1.92011e-08
2.52984e-07
1.85101e-08
2.52961e-07
1.78598e-08
2.52916e-07
1.72456e-08
2.52848e-07
1.66637e-08
2.52759e-07
1.61106e-08
2.52648e-07
1.55834e-08
2.52517e-07
1.50796e-08
2.52366e-07
1.45966e-08
2.52196e-07
1.41323e-08
2.52007e-07
1.36848e-08
2.51802e-07
1.32523e-08
2.51581e-07
1.28331e-08
2.51345e-07
1.24257e-08
2.51095e-07
1.20282e-08
2.50834e-07
1.16396e-08
2.50561e-07
1.12573e-08
2.5028e-07
1.08812e-08
2.4999e-07
1.05065e-08
2.49694e-07
1.0135e-08
2.49392e-07
9.75792e-09
2.49087e-07
9.37952e-09
2.4878e-07
8.98561e-09
2.48474e-07
8.57992e-09
2.48169e-07
8.14775e-09
2.4787e-07
7.67283e-09
2.47577e-07
7.16704e-09
2.4729e-07
6.53305e-09
2.47024e-07
5.87388e-09
2.46734e-07
4.92015e-09
2.46465e-07
3.93761e-09
2.68344e-09
2.46117e-07
2.51478e-07
5.27143e-08
2.5455e-07
7.13046e-08
2.55837e-07
5.38256e-08
2.56928e-07
4.58069e-08
2.57642e-07
4.24081e-08
2.5805e-07
3.84574e-08
2.58377e-07
3.49234e-08
2.58672e-07
3.23464e-08
2.58926e-07
3.03197e-08
2.59145e-07
2.8564e-08
2.59339e-07
2.70179e-08
2.59514e-07
2.56573e-08
2.59673e-07
2.44481e-08
2.59817e-07
2.33594e-08
2.59946e-07
2.23692e-08
2.60063e-07
2.14617e-08
2.60166e-07
2.06245e-08
2.60256e-07
1.9848e-08
2.60333e-07
1.91243e-08
2.60396e-07
1.84468e-08
2.60446e-07
1.78102e-08
2.60481e-07
1.721e-08
2.60502e-07
1.66423e-08
2.60509e-07
1.61037e-08
2.60502e-07
1.55911e-08
2.6048e-07
1.51017e-08
2.60443e-07
1.46331e-08
2.60392e-07
1.41831e-08
2.60328e-07
1.37495e-08
2.60249e-07
1.33306e-08
2.60158e-07
1.29244e-08
2.60054e-07
1.25294e-08
2.59939e-07
1.21437e-08
2.59812e-07
1.17662e-08
2.59675e-07
1.13942e-08
2.59529e-07
1.10275e-08
2.59374e-07
1.06614e-08
2.59212e-07
1.02971e-08
2.59043e-07
9.92681e-09
2.5887e-07
9.55294e-09
2.58691e-07
9.16386e-09
2.58512e-07
8.75932e-09
2.5833e-07
8.32934e-09
2.58151e-07
7.85256e-09
2.57974e-07
7.34324e-09
2.57797e-07
6.71039e-09
2.57634e-07
6.03727e-09
2.57442e-07
5.11147e-09
2.57257e-07
4.12317e-09
2.93033e-09
2.5701e-07
2.58751e-07
4.81461e-08
2.61843e-07
6.82123e-08
2.63103e-07
5.25663e-08
2.64183e-07
4.47264e-08
2.64932e-07
4.16595e-08
2.65363e-07
3.80267e-08
2.65696e-07
3.45901e-08
2.65996e-07
3.20458e-08
2.66256e-07
3.00602e-08
2.66479e-07
2.83413e-08
2.66676e-07
2.68209e-08
2.66854e-07
2.54792e-08
2.67016e-07
2.42857e-08
2.67165e-07
2.32105e-08
2.67302e-07
2.22321e-08
2.67429e-07
2.1335e-08
2.67546e-07
2.05074e-08
2.67654e-07
1.97399e-08
2.67754e-07
1.90249e-08
2.67844e-07
1.83559e-08
2.67927e-07
1.77279e-08
2.68001e-07
1.71363e-08
2.68065e-07
1.65774e-08
2.68121e-07
1.60478e-08
2.68168e-07
1.55443e-08
2.68205e-07
1.50644e-08
2.68233e-07
1.46053e-08
2.68251e-07
1.41649e-08
2.6826e-07
1.37409e-08
2.68259e-07
1.33315e-08
2.68249e-07
1.29347e-08
2.68229e-07
1.2549e-08
2.68201e-07
1.21723e-08
2.68163e-07
1.18034e-08
2.68118e-07
1.14396e-08
2.68065e-07
1.10804e-08
2.68005e-07
1.07217e-08
2.67938e-07
1.03636e-08
2.67866e-07
9.99952e-09
2.67788e-07
9.63002e-09
2.67707e-07
9.24578e-09
2.67623e-07
8.84328e-09
2.67536e-07
8.41601e-09
2.67449e-07
7.93969e-09
2.67364e-07
7.42843e-09
2.67274e-07
6.80035e-09
2.67192e-07
6.11909e-09
2.67082e-07
5.22165e-09
2.66966e-07
4.23902e-09
3.09446e-09
2.66802e-07
2.66259e-07
4.38796e-08
2.69361e-07
6.51103e-08
2.70603e-07
5.13246e-08
2.71668e-07
4.36606e-08
2.72449e-07
4.0879e-08
2.72903e-07
3.75722e-08
2.73244e-07
3.42492e-08
2.7355e-07
3.17395e-08
2.73816e-07
2.97949e-08
2.74043e-07
2.81145e-08
2.74242e-07
2.66211e-08
2.74423e-07
2.52989e-08
2.74587e-07
2.41213e-08
2.74738e-07
2.30596e-08
2.74877e-07
2.20925e-08
2.75007e-07
2.12051e-08
2.75129e-07
2.03859e-08
2.75243e-07
1.96258e-08
2.7535e-07
1.89175e-08
2.75451e-07
1.82548e-08
2.75547e-07
1.76328e-08
2.75636e-07
1.7047e-08
2.75719e-07
1.64939e-08
2.75797e-07
1.59701e-08
2.75869e-07
1.54726e-08
2.75934e-07
1.49987e-08
2.75994e-07
1.45458e-08
2.76047e-07
1.41116e-08
2.76094e-07
1.3694e-08
2.76135e-07
1.32909e-08
2.76169e-07
1.29005e-08
2.76197e-07
1.25211e-08
2.76219e-07
1.21505e-08
2.76235e-07
1.17876e-08
2.76244e-07
1.14298e-08
2.76249e-07
1.10761e-08
2.76248e-07
1.07227e-08
2.76242e-07
1.03693e-08
2.76232e-07
1.00099e-08
2.76218e-07
9.64378e-09
2.762e-07
9.26335e-09
2.76181e-07
8.86271e-09
2.76159e-07
8.43758e-09
2.76136e-07
7.96264e-09
2.76115e-07
7.45e-09
2.76087e-07
6.82837e-09
2.76063e-07
6.14332e-09
2.76011e-07
5.27283e-09
2.75947e-07
4.30328e-09
3.19772e-09
2.75844e-07
2.7401e-07
3.99112e-08
2.7711e-07
6.20096e-08
2.78345e-07
5.00901e-08
2.79392e-07
4.26131e-08
2.802e-07
4.00709e-08
2.8068e-07
3.70924e-08
2.8103e-07
3.38996e-08
2.81342e-07
3.14278e-08
2.81613e-07
2.95235e-08
2.81844e-07
2.7883e-08
2.82047e-07
2.64182e-08
2.8223e-07
2.51165e-08
2.82396e-07
2.39552e-08
2.82548e-07
2.29073e-08
2.82689e-07
2.19517e-08
2.8282e-07
2.10739e-08
2.82943e-07
2.02629e-08
2.83059e-07
1.95099e-08
2.83169e-07
1.88077e-08
2.83273e-07
1.81505e-08
2.83373e-07
1.75334e-08
2.83467e-07
1.69523e-08
2.83558e-07
1.64036e-08
2.83644e-07
1.58841e-08
2.83725e-07
1.53908e-08
2.83803e-07
1.49212e-08
2.83876e-07
1.44725e-08
2.83945e-07
1.40427e-08
2.8401e-07
1.36293e-08
2.8407e-07
1.32306e-08
2.84126e-07
1.28445e-08
2.84178e-07
1.24693e-08
2.84225e-07
1.2103e-08
2.84269e-07
1.17442e-08
2.84308e-07
1.13904e-08
2.84344e-07
1.10404e-08
2.84376e-07
1.06907e-08
2.84405e-07
1.03404e-08
2.8443e-07
9.9843e-09
2.84454e-07
9.62037e-09
2.84474e-07
9.24253e-09
2.84494e-07
8.84318e-09
2.84512e-07
8.41929e-09
2.84529e-07
7.94595e-09
2.84547e-07
7.43214e-09
2.84558e-07
6.81751e-09
2.84569e-07
6.13197e-09
2.84556e-07
5.28621e-09
2.84525e-07
4.33424e-09
3.2614e-09
2.84461e-07
2.82013e-07
3.62356e-08
2.85101e-07
5.89218e-08
2.86338e-07
4.88534e-08
2.87364e-07
4.15866e-08
2.88195e-07
3.92397e-08
2.88702e-07
3.65859e-08
2.89061e-07
3.35403e-08
2.89378e-07
3.11106e-08
2.89656e-07
2.9246e-08
2.89892e-07
2.76465e-08
2.90099e-07
2.6212e-08
2.90284e-07
2.49316e-08
2.90452e-07
2.37873e-08
2.90605e-07
2.27535e-08
2.90747e-07
2.18098e-08
2.90879e-07
2.09419e-08
2.91003e-07
2.01391e-08
2.9112e-07
1.93932e-08
2.9123e-07
1.86971e-08
2.91336e-07
1.80451e-08
2.91436e-07
1.74328e-08
2.91533e-07
1.68559e-08
2.91625e-07
1.63112e-08
2.91714e-07
1.57954e-08
2.91799e-07
1.53057e-08
2.91881e-07
1.48395e-08
2.91959e-07
1.43942e-08
2.92034e-07
1.39677e-08
2.92106e-07
1.35577e-08
2.92174e-07
1.31622e-08
2.92239e-07
1.27793e-08
2.92301e-07
1.24072e-08
2.9236e-07
1.2044e-08
2.92417e-07
1.16881e-08
2.9247e-07
1.1337e-08
2.92521e-07
1.09896e-08
2.92569e-07
1.06425e-08
2.92615e-07
1.02942e-08
2.92659e-07
9.94025e-09
2.92702e-07
9.57769e-09
2.92743e-07
9.20143e-09
2.92783e-07
8.80291e-09
2.92823e-07
8.37953e-09
2.92861e-07
7.9078e-09
2.929e-07
7.39311e-09
2.92932e-07
6.78552e-09
2.92962e-07
6.10221e-09
2.92969e-07
5.2789e-09
2.92956e-07
4.34716e-09
3.30316e-09
2.92915e-07
2.90279e-07
3.28457e-08
2.93342e-07
5.58585e-08
2.9459e-07
4.76054e-08
2.95594e-07
4.05828e-08
2.96443e-07
3.83908e-08
2.96977e-07
3.60518e-08
2.97347e-07
3.31697e-08
2.9767e-07
3.0788e-08
2.97953e-07
2.89623e-08
2.98195e-07
2.74046e-08
2.98405e-07
2.6002e-08
2.98593e-07
2.4744e-08
2.98763e-07
2.36172e-08
2.98918e-07
2.25981e-08
2.99062e-07
2.16666e-08
2.99195e-07
2.08088e-08
2.99319e-07
2.00147e-08
2.99436e-07
1.92759e-08
2.99547e-07
1.8586e-08
2.99653e-07
1.79394e-08
2.99754e-07
1.73317e-08
2.99851e-07
1.6759e-08
2.99944e-07
1.62181e-08
3.00034e-07
1.57059e-08
3.0012e-07
1.52196e-08
3.00203e-07
1.47566e-08
3.00282e-07
1.43144e-08
3.00359e-07
1.38909e-08
3.00433e-07
1.34838e-08
3.00504e-07
1.30911e-08
3.00573e-07
1.27108e-08
3.00639e-07
1.23413e-08
3.00702e-07
1.19805e-08
3.00763e-07
1.16269e-08
3.00822e-07
1.12781e-08
3.00879e-07
1.09326e-08
3.00934e-07
1.05873e-08
3.00988e-07
1.02405e-08
3.0104e-07
9.88806e-09
3.01092e-07
9.52641e-09
3.01142e-07
9.15112e-09
3.01192e-07
8.75324e-09
3.01241e-07
8.32999e-09
3.01289e-07
7.85997e-09
3.01337e-07
7.34496e-09
3.01378e-07
6.74438e-09
3.01415e-07
6.06563e-09
3.01431e-07
5.26296e-09
3.01425e-07
4.35303e-09
3.3359e-09
3.01392e-07
2.98816e-07
2.97327e-08
3.01842e-07
5.28318e-08
3.03109e-07
4.63384e-08
3.04089e-07
3.96028e-08
3.04951e-07
3.75295e-08
3.05513e-07
3.54896e-08
3.05896e-07
3.27864e-08
3.06224e-07
3.046e-08
3.06514e-07
2.86726e-08
3.06761e-07
2.71571e-08
3.06975e-07
2.57881e-08
3.07166e-07
2.45536e-08
3.07338e-07
2.34449e-08
3.07495e-07
2.24408e-08
3.0764e-07
2.1522e-08
3.07774e-07
2.06747e-08
3.07899e-07
1.98893e-08
3.08017e-07
1.9158e-08
3.08129e-07
1.84744e-08
3.08235e-07
1.78332e-08
3.08337e-07
1.72303e-08
3.08434e-07
1.66619e-08
3.08527e-07
1.61249e-08
3.08617e-07
1.56162e-08
3.08703e-07
1.51333e-08
3.08786e-07
1.46734e-08
3.08866e-07
1.42343e-08
3.08943e-07
1.38137e-08
3.09018e-07
1.34093e-08
3.0909e-07
1.30193e-08
3.09159e-07
1.26415e-08
3.09226e-07
1.22744e-08
3.09291e-07
1.19158e-08
3.09353e-07
1.15642e-08
3.09414e-07
1.12173e-08
3.09473e-07
1.08735e-08
3.0953e-07
1.05299e-08
3.09587e-07
1.01843e-08
3.09642e-07
9.83303e-09
3.09696e-07
9.47215e-09
3.0975e-07
9.09758e-09
3.09802e-07
8.70038e-09
3.09855e-07
8.27727e-09
3.09906e-07
7.80918e-09
3.09956e-07
7.2947e-09
3.09999e-07
6.70124e-09
3.10036e-07
6.02917e-09
3.10053e-07
5.24591e-09
3.10047e-07
4.35888e-09
3.36813e-09
3.10015e-07
3.07634e-07
2.6886e-08
3.10612e-07
4.98537e-08
3.11905e-07
4.50456e-08
3.12861e-07
3.86463e-08
3.1373e-07
3.66613e-08
3.14319e-07
3.48998e-08
3.14717e-07
3.23888e-08
3.15051e-07
3.01262e-08
3.15347e-07
2.83767e-08
3.156e-07
2.69037e-08
3.15818e-07
2.55698e-08
3.16012e-07
2.43601e-08
3.16187e-07
2.32701e-08
3.16346e-07
2.22816e-08
3.16492e-07
2.13757e-08
3.16627e-07
2.05393e-08
3.16754e-07
1.9763e-08
3.16873e-07
1.90393e-08
3.16985e-07
1.83621e-08
3.17091e-07
1.77266e-08
3.17193e-07
1.71286e-08
3.17291e-07
1.65646e-08
3.17384e-07
1.60315e-08
3.17474e-07
1.55265e-08
3.1756e-07
1.50469e-08
3.17643e-07
1.45903e-08
3.17723e-07
1.41542e-08
3.17801e-07
1.37365e-08
3.17875e-07
1.33349e-08
3.17947e-07
1.29475e-08
3.18016e-07
1.25722e-08
3.18083e-07
1.22074e-08
3.18148e-07
1.1851e-08
3.18211e-07
1.15014e-08
3.18272e-07
1.11564e-08
3.18331e-07
1.08142e-08
3.18389e-07
1.04721e-08
3.18445e-07
1.01277e-08
3.18501e-07
9.77756e-09
3.18556e-07
9.41752e-09
3.18609e-07
9.04367e-09
3.18662e-07
8.64736e-09
3.18715e-07
8.22468e-09
3.18765e-07
7.75889e-09
3.18814e-07
7.246e-09
3.18855e-07
6.65994e-09
3.18888e-07
5.99646e-09
3.18902e-07
5.23203e-09
3.18892e-07
4.36875e-09
3.40494e-09
3.18855e-07
3.16744e-07
2.42936e-08
3.19661e-07
4.69364e-08
3.20985e-07
4.37216e-08
3.21919e-07
3.77124e-08
3.22789e-07
3.57912e-08
3.23405e-07
3.42833e-08
3.23819e-07
3.19754e-08
3.24159e-07
2.97862e-08
3.24461e-07
2.80749e-08
3.2472e-07
2.66441e-08
3.24943e-07
2.53468e-08
3.2514e-07
2.41632e-08
3.25318e-07
2.30926e-08
3.25479e-07
2.21201e-08
3.25627e-07
2.12277e-08
3.25764e-07
2.04025e-08
3.25891e-07
1.96355e-08
3.26011e-07
1.89196e-08
3.26124e-07
1.82491e-08
3.26231e-07
1.76194e-08
3.26333e-07
1.70264e-08
3.26431e-07
1.64668e-08
3.26525e-07
1.59378e-08
3.26615e-07
1.54365e-08
3.26701e-07
1.49604e-08
3.26784e-07
1.45071e-08
3.26865e-07
1.40741e-08
3.26942e-07
1.36593e-08
3.27016e-07
1.32606e-08
3.27088e-07
1.28758e-08
3.27157e-07
1.25031e-08
3.27224e-07
1.21407e-08
3.27288e-07
1.17865e-08
3.27351e-07
1.14389e-08
3.27411e-07
1.10958e-08
3.2747e-07
1.07552e-08
3.27528e-07
1.04147e-08
3.27584e-07
1.00715e-08
3.27639e-07
9.72262e-09
3.27693e-07
9.3636e-09
3.27746e-07
8.99063e-09
3.27797e-07
8.59552e-09
3.27848e-07
8.17373e-09
3.27897e-07
7.71071e-09
3.27942e-07
7.20055e-09
3.2798e-07
6.62236e-09
3.28007e-07
5.96918e-09
3.28015e-07
5.22353e-09
3.27999e-07
4.38484e-09
3.44924e-09
3.27955e-07
3.26154e-07
2.19421e-08
3.28999e-07
4.40914e-08
3.30358e-07
4.23627e-08
3.31271e-07
3.6799e-08
3.32138e-07
3.49241e-08
3.3278e-07
3.36419e-08
3.33211e-07
3.15446e-08
3.33557e-07
2.94395e-08
3.33865e-07
2.77673e-08
3.34131e-07
2.63781e-08
3.34359e-07
2.51187e-08
3.3456e-07
2.39626e-08
3.3474e-07
2.29123e-08
3.34904e-07
2.19563e-08
3.35054e-07
2.10778e-08
3.35192e-07
2.02641e-08
3.35321e-07
1.95067e-08
3.35442e-07
1.87989e-08
3.35556e-07
1.81353e-08
3.35664e-07
1.75114e-08
3.35766e-07
1.69236e-08
3.35865e-07
1.63686e-08
3.35959e-07
1.58437e-08
3.36049e-07
1.53462e-08
3.36136e-07
1.48737e-08
3.36219e-07
1.44238e-08
3.36299e-07
1.3994e-08
3.36376e-07
1.35822e-08
3.3645e-07
1.31864e-08
3.36522e-07
1.28043e-08
3.36591e-07
1.24342e-08