/*--------------------------------*- C++ -*----------------------------------*\
  =========                 |
  \\      /  F ield         | OpenFOAM: The Open Source CFD Toolbox
   \\    /   O peration     | Website:  https://openfoam.org
    \\  /    A nd           | Version:  7
     \\/     M anipulation  |
\*---------------------------------------------------------------------------*/
FoamFile
{
    version     2.0;
    format      ascii;
    class       volVectorField;
    location    "0.48";
    object      U_0;
}
// * * * * * * * * * * * * * * * * * * * * * * * * * * * * * * * * * * * * * //

dimensions      [0 1 -1 0 0 0 0];

internalField   nonuniform List<vector> 
70000
(
(0.553391 0.016723 0)
(0.251263 0.00340098 0)
(0.166205 0.000321972 0)
(0.132457 5.42436e-05 0)
(0.117266 4.56823e-05 0)
(0.107342 5.38572e-05 0)
(0.0993937 4.62229e-05 0)
(0.0929547 3.68824e-05 0)
(0.0877121 3.05665e-05 0)
(0.0833457 2.62368e-05 0)
(0.0796271 2.29353e-05 0)
(0.0764081 2.02895e-05 0)
(0.0735874 1.81302e-05 0)
(0.0710908 1.63442e-05 0)
(0.0688622 1.48475e-05 0)
(0.0668582 1.35777e-05 0)
(0.0650447 1.24884e-05 0)
(0.0633945 1.15443e-05 0)
(0.0618855 1.0719e-05 0)
(0.0604998 9.99122e-06 0)
(0.0592225 9.34473e-06 0)
(0.0580411 8.76617e-06 0)
(0.056945 8.24485e-06 0)
(0.0559255 7.77192e-06 0)
(0.054975 7.33999e-06 0)
(0.0540868 6.94277e-06 0)
(0.0532554 6.57461e-06 0)
(0.052476 6.23127e-06 0)
(0.0517444 5.90696e-06 0)
(0.0510568 5.6e-06 0)
(0.0504103 5.30233e-06 0)
(0.049802 5.01568e-06 0)
(0.0492299 4.72743e-06 0)
(0.0486919 4.44392e-06 0)
(0.0481865 4.14588e-06 0)
(0.0477129 3.84147e-06 0)
(0.0472694 3.51289e-06 0)
(0.046858 3.14068e-06 0)
(0.0464743 2.77187e-06 0)
(0.0461282 2.2149e-06 0)
(0.0458042 1.86162e-06 0)
(0.0455366 7.94394e-07 0)
(0.0452728 7.45995e-07 0)
(0.0451179 -1.72187e-06 0)
(0.0449113 -5.45857e-07 0)
(0.0449454 -6.66628e-06 0)
(0.0447992 -2.08952e-06 0)
(0.045118 -1.65694e-05 0)
(0.0454753 9.99075e-06 0)
(0.0419068 -0.00169753 0)
(0.884899 0.0431673 0)
(0.649719 0.020194 0)
(0.494323 0.00659843 0)
(0.403664 0.00276782 0)
(0.354734 0.00155227 0)
(0.323427 0.00113187 0)
(0.299565 0.000910641 0)
(0.280366 0.000746694 0)
(0.264654 0.0006238 0)
(0.251534 0.000533015 0)
(0.240357 0.000464102 0)
(0.230681 0.000409879 0)
(0.222199 0.000366068 0)
(0.214688 0.000330001 0)
(0.20798 0.000299864 0)
(0.201945 0.000274354 0)
(0.196481 0.000252514 0)
(0.191507 0.000233626 0)
(0.186957 0.000217143 0)
(0.182776 0.000202641 0)
(0.17892 0.000189789 0)
(0.175352 0.000178321 0)
(0.17204 0.000168024 0)
(0.168958 0.000158724 0)
(0.166082 0.000150277 0)
(0.163393 0.000142562 0)
(0.160873 0.000135475 0)
(0.158509 0.00012893 0)
(0.156288 0.000122846 0)
(0.154197 0.000117163 0)
(0.152229 0.000111805 0)
(0.150373 0.000106734 0)
(0.148624 0.000101862 0)
(0.146974 9.71838e-05 0)
(0.145419 9.25622e-05 0)
(0.143954 8.80499e-05 0)
(0.142575 8.34071e-05 0)
(0.141285 7.87663e-05 0)
(0.14007 7.37525e-05 0)
(0.138955 6.8487e-05 0)
(0.137897 6.2656e-05 0)
(0.136982 5.56968e-05 0)
(0.136069 4.86257e-05 0)
(0.135428 3.72629e-05 0)
(0.134634 2.93346e-05 0)
(0.134438 5.21604e-06 0)
(0.133746 4.9234e-06 0)
(0.134176 -8.89847e-05 0)
(0.134527 0.000166292 0)
(0.130563 -0.00300005 0)
(0.991238 0.0499012 0)
(0.890352 0.0307188 0)
(0.762688 0.0145983 0)
(0.656674 0.00798057 0)
(0.585341 0.00488596 0)
(0.535929 0.00347225 0)
(0.498055 0.00273671 0)
(0.46743 0.00224431 0)
(0.44211 0.00188108 0)
(0.420797 0.0016094 0)
(0.402543 0.00140191 0)
(0.38668 0.00123863 0)
(0.372732 0.00110679 0)
(0.360349 0.000998259 0)
(0.349266 0.000907547 0)
(0.339277 0.000830737 0)
(0.330218 0.000764958 0)
(0.321959 0.000708054 0)
(0.314394 0.000658386 0)
(0.307435 0.000614683 0)
(0.30101 0.00057595 0)
(0.295059 0.000541391 0)
(0.28953 0.000510369 0)
(0.284379 0.000482359 0)
(0.279569 0.000456931 0)
(0.275068 0.000433724 0)
(0.270848 0.000412431 0)
(0.266884 0.000392794 0)
(0.263156 0.000374581 0)
(0.259644 0.000357604 0)
(0.256334 0.000341661 0)
(0.25321 0.000326628 0)
(0.250261 0.000312283 0)
(0.247475 0.000298588 0)
(0.244844 0.000285207 0)
(0.242361 0.000272269 0)
(0.240016 0.000259141 0)
(0.237812 0.000246297 0)
(0.235729 0.000232484 0)
(0.233801 0.000218777 0)
(0.231962 0.000202899 0)
(0.230334 0.00018652 0)
(0.228714 0.000166595 0)
(0.227481 0.000143009 0)
(0.226028 0.00011764 0)
(0.225406 7.0273e-05 0)
(0.224088 5.7688e-05 0)
(0.224284 -0.000143557 0)
(0.224094 0.000205113 0)
(0.221709 -0.00321623 0)
(1.0156 0.04892 0)
(1.00596 0.035875 0)
(0.935956 0.0207927 0)
(0.852123 0.0135061 0)
(0.782175 0.00921001 0)
(0.726967 0.00678346 0)
(0.681876 0.00538562 0)
(0.644111 0.00444629 0)
(0.612086 0.00375238 0)
(0.584613 0.00322641 0)
(0.560754 0.00282003 0)
(0.539804 0.00249806 0)
(0.521233 0.00223696 0)
(0.504636 0.00202128 0)
(0.4897 0.00184047 0)
(0.476176 0.00168697 0)
(0.463863 0.00155523 0)
(0.4526 0.00144105 0)
(0.442252 0.00134124 0)
(0.432708 0.00125329 0)
(0.423877 0.00117525 0)
(0.415679 0.00110556 0)
(0.408048 0.00104294 0)
(0.400927 0.000986371 0)
(0.394267 0.000934991 0)
(0.388025 0.000888084 0)
(0.382164 0.000845047 0)
(0.376652 0.000805364 0)
(0.371461 0.000768579 0)
(0.366565 0.000734317 0)
(0.361944 0.000702195 0)
(0.357577 0.000671954 0)
(0.353448 0.000643192 0)
(0.349543 0.00061581 0)
(0.345848 0.000589213 0)
(0.342354 0.000563623 0)
(0.339048 0.000537884 0)
(0.335931 0.000512959 0)
(0.332979 0.000486352 0)
(0.330227 0.000460664 0)
(0.3276 0.000430524 0)
(0.325236 0.000401683 0)
(0.322898 0.00036378 0)
(0.321018 0.000325748 0)
(0.318906 0.000275921 0)
(0.317733 0.000203215 0)
(0.315815 0.000167513 0)
(0.315565 -0.000131874 0)
(0.314651 0.000194219 0)
(0.313306 -0.00303177 0)
(1.01434 0.0460034 0)
(1.04753 0.0374885 0)
(1.02458 0.0241529 0)
(0.974759 0.0175617 0)
(0.923438 0.0131254 0)
(0.876656 0.0102092 0)
(0.834484 0.00834543 0)
(0.796728 0.00702395 0)
(0.763159 0.00601368 0)
(0.73334 0.00522573 0)
(0.706758 0.0046033 0)
(0.682942 0.00410227 0)
(0.661492 0.00369118 0)
(0.642077 0.00334847 0)
(0.624419 0.00305901 0)
(0.608289 0.00281176 0)
(0.593495 0.00259843 0)
(0.579874 0.00241273 0)
(0.56729 0.00224976 0)
(0.555629 0.00210571 0)
(0.544791 0.00197751 0)
(0.534692 0.00186274 0)
(0.525259 0.00175941 0)
(0.516428 0.00166587 0)
(0.508146 0.00158077 0)
(0.500364 0.00150298 0)
(0.493039 0.00143152 0)
(0.486135 0.00136557 0)
(0.479618 0.00130441 0)
(0.473461 0.00124742 0)
(0.467637 0.001194 0)
(0.462124 0.00114373 0)
(0.456902 0.00109599 0)
(0.451954 0.00105059 0)
(0.447263 0.00100665 0)
(0.442817 0.000964461 0)
(0.438602 0.000922301 0)
(0.434617 0.000881655 0)
(0.430836 0.000838636 0)
(0.427291 0.000797591 0)
(0.423908 0.000749591 0)
(0.420821 0.000705168 0)
(0.417794 0.000645516 0)
(0.415254 0.000590021 0)
(0.412523 0.000511938 0)
(0.410733 0.000410389 0)
(0.40828 0.000344938 0)
(0.407452 -3.92025e-05 0)
(0.405907 0.000199329 0)
(0.404737 -0.00273772 0)
(1.00933 0.0429147 0)
(1.05528 0.0372636 0)
(1.05869 0.0252972 0)
(1.03637 0.0197618 0)
(1.0071 0.0158152 0)
(0.976039 0.01294 0)
(0.944502 0.0109638 0)
(0.913623 0.00948132 0)
(0.884257 0.00829041 0)
(0.85679 0.007322 0)
(0.831301 0.00653137 0)
(0.807729 0.00587847 0)
(0.785951 0.00533193 0)
(0.765824 0.00486892 0)
(0.747202 0.00447265 0)
(0.729943 0.00413041 0)
(0.713918 0.0038324 0)
(0.699009 0.00357094 0)
(0.685108 0.00333994 0)
(0.672124 0.00313454 0)
(0.659971 0.00295083 0)
(0.648575 0.0027856 0)
(0.637872 0.00263625 0)
(0.627802 0.00250058 0)
(0.618313 0.00237676 0)
(0.60936 0.00226326 0)
(0.600902 0.00215875 0)
(0.592901 0.00206209 0)
(0.585325 0.00197229 0)
(0.578144 0.00188849 0)
(0.571333 0.00180986 0)
(0.564868 0.0017358 0)
(0.558727 0.00166548 0)
(0.552894 0.00159858 0)
(0.54735 0.00153394 0)
(0.542083 0.0014719 0)
(0.537077 0.00141019 0)
(0.532329 0.00135075 0)
(0.527815 0.00128837 0)
(0.523562 0.00122899 0)
(0.519502 0.00116036 0)
(0.515754 0.00109728 0)
(0.512109 0.00101351 0)
(0.508941 0.000936861 0)
(0.505662 0.000829121 0)
(0.503251 0.000694254 0)
(0.50034 0.000594894 0)
(0.498874 0.000135167 0)
(0.496836 0.000259504 0)
(0.495402 -0.00236394 0)
(1.00625 0.0400332 0)
(1.05206 0.036336 0)
(1.06609 0.0252262 0)
(1.05961 0.0205615 0)
(1.04688 0.0172424 0)
(1.03079 0.0146606 0)
(1.01188 0.0128244 0)
(0.991186 0.0113991 0)
(0.969761 0.0102019 0)
(0.948342 0.00918536 0)
(0.927375 0.0083242 0)
(0.907122 0.00759066 0)
(0.887731 0.00696037 0)
(0.86927 0.00641452 0)
(0.851759 0.00593854 0)
(0.835185 0.00552091 0)
(0.819516 0.00515228 0)
(0.804709 0.00482505 0)
(0.790716 0.00453299 0)
(0.777489 0.004271 0)
(0.764978 0.00403483 0)
(0.753138 0.00382096 0)
(0.741923 0.00362643 0)
(0.731293 0.00344876 0)
(0.721208 0.00328581 0)
(0.711634 0.00313576 0)
(0.702537 0.00299705 0)
(0.693887 0.0028683 0)
(0.685658 0.0027483 0)
(0.677823 0.002636 0)
(0.670361 0.00253039 0)
(0.66325 0.0024307 0)
(0.656471 0.0023359 0)
(0.650009 0.00224558 0)
(0.643846 0.00215832 0)
(0.637972 0.00207447 0)
(0.632371 0.00199129 0)
(0.62704 0.00191104 0)
(0.621959 0.00182744 0)
(0.617147 0.0017476 0)
(0.61255 0.00165669 0)
(0.608263 0.00157247 0)
(0.604118 0.00146353 0)
(0.600419 0.00136231 0)
(0.596693 0.001225 0)
(0.593728 0.00105297 0)
(0.590446 0.000916441 0)
(0.588374 0.000392705 0)
(0.585938 0.000389083 0)
(0.584112 -0.00191422 0)
(1.00495 0.0373551 0)
(1.04727 0.0352537 0)
(1.06398 0.024686 0)
(1.06426 0.0205877 0)
(1.06069 0.0177803 0)
(1.05475 0.0155037 0)
(1.04599 0.0138827 0)
(1.03479 0.0126225 0)
(1.02186 0.0115363 0)
(1.00782 0.010583 0)
(0.993114 0.00974938 0)
(0.97811 0.00901824 0)
(0.963069 0.00837294 0)
(0.948185 0.00780036 0)
(0.933596 0.00729018 0)
(0.919392 0.0068339 0)
(0.905634 0.00642431 0)
(0.892354 0.00605526 0)
(0.87957 0.00572151 0)
(0.867287 0.00541858 0)
(0.8555 0.00514265 0)
(0.844199 0.00489043 0)
(0.83337 0.00465908 0)
(0.822998 0.00444615 0)
(0.813064 0.00424951 0)
(0.803552 0.00406731 0)
(0.794442 0.00389791 0)
(0.785718 0.00373984 0)
(0.777362 0.00359183 0)
(0.769358 0.00345271 0)
(0.76169 0.00332137 0)
(0.754344 0.00319694 0)
(0.747307 0.00307828 0)
(0.740565 0.0029649 0)
(0.734108 0.00285519 0)
(0.727926 0.00274947 0)
(0.722008 0.00264468 0)
(0.716351 0.00254325 0)
(0.71094 0.00243814 0)
(0.705788 0.0023371 0)
(0.700858 0.0022237 0)
(0.69622 0.00211705 0)
(0.691748 0.00198328 0)
(0.687677 0.00185527 0)
(0.683648 0.0016895 0)
(0.680263 0.00147839 0)
(0.676724 0.00130239 0)
(0.674158 0.00072754 0)
(0.671414 0.000591751 0)
(0.669207 -0.00140784 0)
(1.0044 0.0348071 0)
(1.04324 0.0341803 0)
(1.05994 0.0240447 0)
(1.06229 0.0202936 0)
(1.06251 0.0178441 0)
(1.06181 0.0157851 0)
(1.05924 0.0143378 0)
(1.05468 0.0132432 0)
(1.04846 0.0122996 0)
(1.04087 0.0114586 0)
(1.03222 0.0107095 0)
(1.02274 0.0100392 0)
(1.01268 0.00943492 0)
(1.00222 0.00888728 0)
(0.991542 0.0083893 0)
(0.980768 0.00793534 0)
(0.970003 0.00752058 0)
(0.959328 0.00714076 0)
(0.948803 0.00679216 0)
(0.938474 0.00647145 0)
(0.928373 0.0061757 0)
(0.918524 0.00590232 0)
(0.908942 0.00564898 0)
(0.899637 0.0054136 0)
(0.890613 0.00519436 0)
(0.881873 0.00498957 0)
(0.873415 0.00479776 0)
(0.865236 0.00461757 0)
(0.857334 0.00444776 0)
(0.849702 0.00428723 0)
(0.842335 0.00413485 0)
(0.835227 0.00398976 0)
(0.828373 0.00385079 0)
(0.821766 0.0037174 0)
(0.815402 0.00358791 0)
(0.809273 0.00346263 0)
(0.803377 0.00333828 0)
(0.79771 0.00321733 0)
(0.792265 0.00309233 0)
(0.787053 0.00297119 0)
(0.782047 0.0028368 0)
(0.777302 0.00270813 0)
(0.772727 0.0025513 0)
(0.768497 0.00239618 0)
(0.764356 0.00220401 0)
(0.760742 0.00195445 0)
(0.757096 0.00173796 0)
(0.754207 0.00112448 0)
(0.751275 0.000862491 0)
(0.74878 -0.000867332 0)
(1.00402 0.0323669 0)
(1.03991 0.03313 0)
(1.05617 0.0234213 0)
(1.05893 0.0199052 0)
(1.06023 0.0177136 0)
(1.06158 0.0157894 0)
(1.06195 0.0144434 0)
(1.06106 0.0134641 0)
(1.05899 0.0126368 0)
(1.05586 0.0119019 0)
(1.05175 0.011246 0)
(1.04679 0.0106557 0)
(1.0411 0.0101182 0)
(1.0348 0.00962477 0)
(1.02802 0.00916959 0)
(1.02087 0.0087484 0)
(1.01344 0.00835777 0)
(1.00582 0.0079948 0)
(0.998078 0.00765696 0)
(0.990279 0.00734199 0)
(0.98247 0.00704789 0)
(0.974693 0.0067728 0)
(0.96698 0.00651506 0)
(0.959358 0.00627311 0)
(0.95185 0.00604555 0)
(0.944471 0.00583106 0)
(0.937235 0.00562843 0)
(0.930152 0.00543653 0)
(0.923231 0.00525432 0)
(0.916477 0.00508082 0)
(0.909894 0.00491503 0)
(0.903485 0.00475615 0)
(0.897253 0.00460307 0)
(0.891198 0.00445528 0)
(0.885322 0.00431112 0)
(0.879624 0.00417085 0)
(0.874106 0.00403116 0)
(0.868769 0.00389446 0)
(0.863611 0.00375318 0)
(0.858642 0.00361496 0)
(0.853847 0.00346284 0)
(0.849269 0.00331447 0)
(0.844845 0.00313786 0)
(0.840704 0.00295738 0)
(0.836672 0.00274195 0)
(0.833054 0.00245716 0)
(0.829483 0.0022009 0)
(0.826479 0.00156119 0)
(0.823511 0.00118609 0)
(0.820876 -0.000316363 0)
(1.00364 0.0300264 0)
(1.03692 0.0320822 0)
(1.05282 0.0228313 0)
(1.05569 0.0194997 0)
(1.05714 0.0175213 0)
(1.05904 0.0156892 0)
(1.06048 0.0143909 0)
(1.06117 0.0134748 0)
(1.06117 0.0127214 0)
(1.06051 0.012061 0)
(1.05919 0.0114777 0)
(1.05723 0.0109566 0)
(1.05465 0.0104834 0)
(1.05152 0.0100483 0)
(1.04789 0.00964493 0)
(1.04382 0.00926898 0)
(1.03938 0.00891723 0)
(1.03462 0.00858717 0)
(1.0296 0.00827677 0)
(1.02437 0.00798434 0)
(1.01898 0.00770838 0)
(1.01347 0.00744759 0)
(1.00788 0.00720076 0)
(1.00223 0.00696677 0)
(0.996552 0.00674461 0)
(0.990874 0.00653328 0)
(0.985214 0.00633186 0)
(0.979589 0.00613949 0)
(0.974016 0.00595532 0)
(0.968506 0.00577856 0)
(0.963071 0.00560837 0)
(0.957721 0.00544406 0)
(0.952463 0.00528463 0)
(0.947305 0.00512965 0)
(0.942253 0.0049775 0)
(0.937313 0.00482847 0)
(0.932489 0.00467926 0)
(0.927788 0.00453217 0)
(0.923211 0.00437975 0)
(0.918771 0.00422909 0)
(0.914461 0.00406397 0)
(0.910313 0.00389985 0)
(0.90629 0.00370803 0)
(0.902483 0.00350586 0)
(0.898782 0.00327129 0)
(0.895391 0.00295673 0)
(0.892084 0.00266345 0)
(0.889183 0.00200951 0)
(0.886348 0.00153919 0)
(0.883748 0.000224842 0)
(1.00327 0.0277866 0)
(1.03409 0.0310233 0)
(1.04971 0.0222677 0)
(1.05273 0.0190921 0)
(1.05414 0.0173102 0)
(1.05609 0.0155598 0)
(1.05781 0.0142837 0)
(1.05902 0.013398 0)
(1.05983 0.0126856 0)
(1.06028 0.0120689 0)
(1.06036 0.0115309 0)
(1.06003 0.0110565 0)
(1.0593 0.0106305 0)
(1.05818 0.0102418 0)
(1.05667 0.00988302 0)
(1.05479 0.00954912 0)
(1.05258 0.00923644 0)
(1.05006 0.00894223 0)
(1.04726 0.00866435 0)
(1.04421 0.00840112 0)
(1.04095 0.00815117 0)
(1.0375 0.00791334 0)
(1.03389 0.00768661 0)
(1.03015 0.00747007 0)
(1.0263 0.00726289 0)
(1.02236 0.00706427 0)
(1.01835 0.0068735 0)
(1.01429 0.00668986 0)
(1.0102 0.00651266 0)
(1.00609 0.00634127 0)
(1.00198 0.00617497 0)
(0.997878 0.0060132 0)
(0.993794 0.00585502 0)
(0.989739 0.00570011 0)
(0.985724 0.00554689 0)
(0.981756 0.00539568 0)
(0.977844 0.00524327 0)
(0.973995 0.00509176 0)
(0.970217 0.00493401 0)
(0.96652 0.00477631 0)
(0.962905 0.00460368 0)
(0.959397 0.00442875 0)
(0.955977 0.004227 0)
(0.952707 0.00400815 0)
(0.949526 0.00375917 0)
(0.946559 0.00342185 0)
(0.943685 0.00309613 0)
(0.941083 0.00243875 0)
(0.938541 0.00189459 0)
(0.936143 0.000729027 0)
(1.00292 0.0256507 0)
(1.03138 0.0299486 0)
(1.04671 0.0217262 0)
(1.04994 0.0186825 0)
(1.05132 0.017087 0)
(1.05324 0.0154234 0)
(1.05499 0.0141628 0)
(1.05632 0.013293 0)
(1.05736 0.0126038 0)
(1.0582 0.0120113 0)
(1.05884 0.0114982 0)
(1.05925 0.0110507 0)
(1.05943 0.0106535 0)
(1.05937 0.0102949 0)
(1.05906 0.00996697 0)
(1.0585 0.00966398 0)
(1.05771 0.00938182 0)
(1.05668 0.00911729 0)
(1.05542 0.00886794 0)
(1.05395 0.00863185 0)
(1.05229 0.00840748 0)
(1.05044 0.00819359 0)
(1.04843 0.0079891 0)
(1.04626 0.00779309 0)
(1.04396 0.00760475 0)
(1.04153 0.00742331 0)
(1.039 0.0072481 0)
(1.03638 0.00707845 0)
(1.03368 0.00691373 0)
(1.03092 0.00675338 0)
(1.0281 0.00659672 0)
(1.02524 0.00644326 0)
(1.02234 0.00629211 0)
(1.01943 0.00614299 0)
(1.01651 0.00599438 0)
(1.01358 0.00584656 0)
(1.01066 0.00569643 0)
(1.00776 0.00554586 0)
(1.00488 0.00538813 0)
(1.00203 0.00522852 0)
(0.999223 0.00505361 0)
(0.996474 0.0048729 0)
(0.993777 0.00466636 0)
(0.99117 0.00443629 0)
(0.988628 0.00417766 0)
(0.986222 0.00382511 0)
(0.983894 0.00347269 0)
(0.981734 0.00282135 0)
(0.979606 0.00222431 0)
(0.977545 0.00117171 0)
(1.0026 0.0236215 0)
(1.0288 0.0288569 0)
(1.04379 0.0212056 0)
(1.04725 0.0182707 0)
(1.04864 0.0168503 0)
(1.05052 0.0152823 0)
(1.05226 0.0140394 0)
(1.0536 0.0131807 0)
(1.05468 0.0125081 0)
(1.05561 0.011931 0)
(1.05642 0.0114318 0)
(1.0571 0.0109989 0)
(1.05764 0.0106176 0)
(1.05805 0.0102762 0)
(1.05831 0.00996648 0)
(1.05843 0.00968272 0)
(1.0584 0.00942045 0)
(1.05821 0.00917623 0)
(1.05788 0.00894736 0)
(1.05739 0.00873167 0)
(1.05676 0.00852744 0)
(1.05599 0.00833325 0)
(1.05509 0.00814789 0)
(1.05405 0.00797034 0)
(1.0529 0.00779968 0)
(1.05162 0.00763509 0)
(1.05025 0.00747582 0)
(1.04877 0.00732118 0)
(1.0472 0.0071705 0)
(1.04556 0.00702319 0)
(1.04384 0.00687857 0)
(1.04206 0.00673615 0)
(1.04022 0.00659503 0)
(1.03833 0.00645491 0)
(1.03641 0.00631429 0)
(1.03445 0.0061734 0)
(1.03247 0.00602923 0)
(1.03047 0.00588335 0)
(1.02847 0.00572951 0)
(1.02647 0.00557189 0)
(1.02447 0.00539879 0)
(1.02249 0.00521646 0)
(1.02054 0.00500932 0)
(1.01863 0.00477302 0)
(1.01676 0.00450881 0)
(1.01497 0.00414801 0)
(1.01323 0.00377508 0)
(1.01158 0.00313702 0)
(1.00993 0.00250583 0)
(1.00828 0.00154186 0)
(1.0023 0.0217008 0)
(1.02634 0.0277491 0)
(1.04096 0.0207044 0)
(1.04464 0.0178583 0)
(1.04605 0.0165988 0)
(1.0479 0.0151353 0)
(1.04964 0.0139145 0)
(1.05097 0.0130661 0)
(1.05204 0.0124084 0)
(1.05298 0.0118441 0)
(1.05382 0.0113547 0)
(1.05456 0.0109306 0)
(1.05522 0.0105584 0)
(1.05579 0.0102265 0)
(1.05628 0.00992698 0)
(1.05668 0.009654 0)
(1.057 0.0094032 0)
(1.05722 0.00917108 0)
(1.05736 0.00895483 0)
(1.0574 0.00875222 0)
(1.05735 0.0085614 0)
(1.05721 0.00838084 0)
(1.05698 0.00820924 0)
(1.05665 0.00804546 0)
(1.05623 0.0078885 0)
(1.05572 0.00773742 0)
(1.05513 0.0075914 0)
(1.05446 0.00744967 0)
(1.05371 0.00731149 0)
(1.05289 0.00717621 0)
(1.05199 0.00704308 0)
(1.05104 0.00691157 0)
(1.05002 0.00678075 0)
(1.04895 0.00665025 0)
(1.04784 0.00651857 0)
(1.04668 0.00638582 0)
(1.04548 0.00624911 0)
(1.04426 0.00610962 0)
(1.043 0.00596166 0)
(1.04174 0.00580819 0)
(1.04046 0.00563927 0)
(1.03917 0.00545807 0)
(1.03789 0.00525298 0)
(1.03663 0.00501426 0)
(1.03538 0.00474739 0)
(1.03417 0.00438397 0)
(1.033 0.00399629 0)
(1.03185 0.00337622 0)
(1.03067 0.00272702 0)
(1.02946 0.00183123 0)
(1.00203 0.0198893 0)
(1.02402 0.0266282 0)
(1.03822 0.0202193 0)
(1.04212 0.0174472 0)
(1.04356 0.0163326 0)
(1.04537 0.0149808 0)
(1.04711 0.0137876 0)
(1.04844 0.0129495 0)
(1.0495 0.0123067 0)
(1.05043 0.0117551 0)
(1.05126 0.0112746 0)
(1.052 0.0108575 0)
(1.05268 0.0104916 0)
(1.05329 0.0101658 0)
(1.05384 0.00987232 0)
(1.05434 0.00960549 0)
(1.05479 0.00936107 0)
(1.05518 0.00913566 0)
(1.05552 0.0089265 0)
(1.0558 0.00873137 0)
(1.05603 0.00854843 0)
(1.0562 0.00837613 0)
(1.05632 0.00821312 0)
(1.05638 0.00805823 0)
(1.05638 0.00791039 0)
(1.05632 0.00776861 0)
(1.0562 0.007632 0)
(1.05602 0.00749972 0)
(1.05579 0.00737096 0)
(1.0555 0.00724501 0)
(1.05515 0.00712106 0)
(1.05476 0.00699851 0)
(1.05431 0.00687637 0)
(1.05382 0.00675422 0)
(1.05328 0.00663054 0)
(1.05271 0.00650527 0)
(1.0521 0.00637568 0)
(1.05145 0.0062425 0)
(1.05078 0.00610061 0)
(1.05009 0.00595179 0)
(1.04937 0.00578775 0)
(1.04865 0.00560888 0)
(1.04791 0.00540691 0)
(1.04718 0.00516813 0)
(1.04645 0.0049002 0)
(1.04574 0.00453804 0)
(1.04503 0.00414043 0)
(1.04432 0.00354068 0)
(1.04356 0.00288577 0)
(1.04274 0.00204278 0)
(1.00179 0.0181873 0)
(1.02184 0.0254982 0)
(1.03559 0.0197466 0)
(1.03968 0.0170392 0)
(1.04115 0.0160523 0)
(1.04293 0.0148179 0)
(1.04467 0.0136582 0)
(1.046 0.0128308 0)
(1.04706 0.0122029 0)
(1.04796 0.0116647 0)
(1.04878 0.0111932 0)
(1.04952 0.0107828 0)
(1.05018 0.0104226 0)
(1.05079 0.0101018 0)
(1.05135 0.0098127 0)
(1.05187 0.00954999 0)
(1.05235 0.00930953 0)
(1.05279 0.00908805 0)
(1.0532 0.00888291 0)
(1.05358 0.00869193 0)
(1.05392 0.00851335 0)
(1.05422 0.00834566 0)
(1.0545 0.00818753 0)
(1.05473 0.00803779 0)
(1.05494 0.00789537 0)
(1.0551 0.00775928 0)
(1.05523 0.00762857 0)
(1.05532 0.00750238 0)
(1.05537 0.00737986 0)
(1.05539 0.00726024 0)
(1.05537 0.00714266 0)
(1.05531 0.00702648 0)
(1.05521 0.00691068 0)
(1.05508 0.00679473 0)
(1.05492 0.00667714 0)
(1.05473 0.00655769 0)
(1.0545 0.00643377 0)
(1.05425 0.00630569 0)
(1.05398 0.00616891 0)
(1.05369 0.00602405 0)
(1.05337 0.00586433 0)
(1.05304 0.00568782 0)
(1.05271 0.00548877 0)
(1.05236 0.00525099 0)
(1.05202 0.00498253 0)
(1.05168 0.00462381 0)
(1.05133 0.00422 0)
(1.05096 0.00364089 0)
(1.05053 0.00298893 0)
(1.05001 0.00218726 0)
(1.00157 0.0165945 0)
(1.01979 0.0243629 0)
(1.03305 0.0192821 0)
(1.03733 0.0166361 0)
(1.03884 0.0157593 0)
(1.04058 0.0146461 0)
(1.04231 0.013526 0)
(1.04365 0.01271 0)
(1.0447 0.0120968 0)
(1.04559 0.0115726 0)
(1.0464 0.0111107 0)
(1.04712 0.0107072 0)
(1.04777 0.0103526 0)
(1.04837 0.0100366 0)
(1.04893 0.00975158 0)
(1.04944 0.00949235 0)
(1.04992 0.00925496 0)
(1.05037 0.00903628 0)
(1.05079 0.00883376 0)
(1.05118 0.00864534 0)
(1.05156 0.00846931 0)
(1.05191 0.00830422 0)
(1.05224 0.00814883 0)
(1.05255 0.00800197 0)
(1.05283 0.00786261 0)
(1.0531 0.00772976 0)
(1.05334 0.00760248 0)
(1.05355 0.0074799 0)
(1.05374 0.00736112 0)
(1.05391 0.00724539 0)
(1.05405 0.00713181 0)
(1.05417 0.00701968 0)
(1.05427 0.00690798 0)
(1.05434 0.00679613 0)
(1.05439 0.00668262 0)
(1.05441 0.0065671 0)
(1.05442 0.00644711 0)
(1.05441 0.00632255 0)
(1.05438 0.00618941 0)
(1.05433 0.00604732 0)
(1.05427 0.00589074 0)
(1.0542 0.00571596 0)
(1.05412 0.00551895 0)
(1.05403 0.00528236 0)
(1.05395 0.00501327 0)
(1.05385 0.0046589 0)
(1.05374 0.00425167 0)
(1.05361 0.00369217 0)
(1.0534 0.00304876 0)
(1.05311 0.00227991 0)
(1.00137 0.0151099 0)
(1.01788 0.0232263 0)
(1.03062 0.0188221 0)
(1.03507 0.0162393 0)
(1.03662 0.015455 0)
(1.03833 0.0144646 0)
(1.04005 0.0133906 0)
(1.04139 0.0125869 0)
(1.04243 0.0119882 0)
(1.04331 0.0114786 0)
(1.0441 0.0110271 0)
(1.04482 0.0106308 0)
(1.04546 0.010282 0)
(1.04605 0.00997081 0)
(1.04659 0.00968986 0)
(1.04709 0.00943401 0)
(1.04756 0.00919948 0)
(1.048 0.00898325 0)
(1.04842 0.00878288 0)
(1.04881 0.00859639 0)
(1.04919 0.00842216 0)
(1.04955 0.0082588 0)
(1.04989 0.00810512 0)
(1.05022 0.00796001 0)
(1.05053 0.00782246 0)
(1.05082 0.0076915 0)
(1.0511 0.00756621 0)
(1.05136 0.00744572 0)
(1.05161 0.00732915 0)
(1.05184 0.0072157 0)
(1.05206 0.00710448 0)
(1.05226 0.00699477 0)
(1.05244 0.00688554 0)
(1.05261 0.00677615 0)
(1.05276 0.00666514 0)
(1.0529 0.00655199 0)
(1.05303 0.00643444 0)
(1.05314 0.00631198 0)
(1.05324 0.00618109 0)
(1.05333 0.00604059 0)
(1.05341 0.00588591 0)
(1.05349 0.00571207 0)
(1.05356 0.00551608 0)
(1.05362 0.00528047 0)
(1.05368 0.00501047 0)
(1.05373 0.00466059 0)
(1.05377 0.00425207 0)
(1.05377 0.00371049 0)
(1.05371 0.00307903 0)
(1.05355 0.00233692 0)
(1.0012 0.0137319 0)
(1.01611 0.0220925 0)
(1.0283 0.0183628 0)
(1.03289 0.0158499 0)
(1.0345 0.0151411 0)
(1.03616 0.0142729 0)
(1.03787 0.0132515 0)
(1.03921 0.0124617 0)
(1.04025 0.0118772 0)
(1.04112 0.0113826 0)
(1.0419 0.010942 0)
(1.04261 0.0105533 0)
(1.04324 0.0102105 0)
(1.04381 0.00990442 0)
(1.04434 0.00962766 0)
(1.04483 0.00937527 0)
(1.04529 0.00914362 0)
(1.04572 0.0089298 0)
(1.04613 0.00873148 0)
(1.04651 0.00854676 0)
(1.04688 0.00837408 0)
(1.04724 0.00821214 0)
(1.04758 0.00805978 0)
(1.0479 0.00791595 0)
(1.04821 0.00777967 0)
(1.04851 0.00764999 0)
(1.0488 0.00752601 0)
(1.04908 0.00740686 0)
(1.04934 0.00729166 0)
(1.04959 0.00717963 0)
(1.04983 0.00706985 0)
(1.05006 0.0069616 0)
(1.05028 0.00685384 0)
(1.05048 0.0067459 0)
(1.05068 0.00663635 0)
(1.05087 0.00652455 0)
(1.05105 0.00640838 0)
(1.05122 0.00628703 0)
(1.05138 0.00615738 0)
(1.05153 0.00601759 0)
(1.05168 0.00586382 0)
(1.05183 0.00569031 0)
(1.05197 0.00549451 0)
(1.05211 0.00525962 0)
(1.05225 0.00498858 0)
(1.05238 0.00464307 0)
(1.05249 0.00423503 0)
(1.05256 0.00370959 0)
(1.05256 0.00309203 0)
(1.05248 0.00237264 0)
(1.00104 0.0124584 0)
(1.01447 0.0209659 0)
(1.02609 0.0179008 0)
(1.0308 0.0154689 0)
(1.03247 0.0148196 0)
(1.03409 0.0140705 0)
(1.03578 0.0131083 0)
(1.03713 0.0123343 0)
(1.03816 0.0117638 0)
(1.03903 0.0112846 0)
(1.0398 0.0108555 0)
(1.04049 0.0104748 0)
(1.04111 0.0101382 0)
(1.04167 0.00983736 0)
(1.04219 0.00956494 0)
(1.04267 0.00931613 0)
(1.04312 0.00908744 0)
(1.04354 0.0088761 0)
(1.04393 0.00867985 0)
(1.04431 0.00849689 0)
(1.04467 0.00832574 0)
(1.04502 0.00816514 0)
(1.04535 0.008014 0)
(1.04566 0.00787131 0)
(1.04597 0.00773611 0)
(1.04627 0.00760749 0)
(1.04655 0.00748454 0)
(1.04682 0.00736643 0)
(1.04708 0.00725226 0)
(1.04734 0.00714124 0)
(1.04758 0.00703247 0)
(1.04781 0.00692521 0)
(1.04804 0.00681842 0)
(1.04826 0.00671139 0)
(1.04847 0.00660274 0)
(1.04867 0.00649171 0)
(1.04886 0.00637633 0)
(1.04905 0.00625551 0)
(1.04924 0.00612648 0)
(1.04942 0.0059869 0)
(1.0496 0.00583344 0)
(1.04977 0.00565992 0)
(1.04994 0.00546382 0)
(1.05011 0.00522954 0)
(1.05028 0.00495762 0)
(1.05043 0.00461633 0)
(1.05057 0.00421038 0)
(1.05066 0.00369958 0)
(1.05069 0.00309708 0)
(1.05063 0.00239806 0)
(1.0009 0.0112864 0)
(1.01296 0.0198508 0)
(1.02399 0.0174329 0)
(1.0288 0.0150966 0)
(1.03053 0.0144924 0)
(1.03211 0.0138573 0)
(1.03378 0.0129602 0)
(1.03513 0.0122049 0)
(1.03616 0.0116478 0)
(1.03702 0.0111842 0)
(1.03778 0.0107674 0)
(1.03846 0.0103951 0)
(1.03907 0.010065 0)
(1.03963 0.00976954 0)
(1.04014 0.00950163 0)
(1.0406 0.00925654 0)
(1.04104 0.00903091 0)
(1.04145 0.00882212 0)
(1.04184 0.00862801 0)
(1.04221 0.00844686 0)
(1.04256 0.00827726 0)
(1.04289 0.00811802 0)
(1.04321 0.0079681 0)
(1.04352 0.00782652 0)
(1.04382 0.00769237 0)
(1.04411 0.00756475 0)
(1.04438 0.00744278 0)
(1.04465 0.0073256 0)
(1.0449 0.00721234 0)
(1.04515 0.00710219 0)
(1.04539 0.00699428 0)
(1.04562 0.00688781 0)
(1.04584 0.0067818 0)
(1.04606 0.00667545 0)
(1.04627 0.00656746 0)
(1.04647 0.00645694 0)
(1.04667 0.00634208 0)
(1.04686 0.00622154 0)
(1.04705 0.00609281 0)
(1.04723 0.00595324 0)
(1.04741 0.00579979 0)
(1.04759 0.00562617 0)
(1.04777 0.00542963 0)
(1.04795 0.00519601 0)
(1.04812 0.00492367 0)
(1.04827 0.0045866 0)
(1.04841 0.00418421 0)
(1.0485 0.00368704 0)
(1.04853 0.00310037 0)
(1.04847 0.00242068 0)
(1.00078 0.0102123 0)
(1.01157 0.0187516 0)
(1.022 0.0169565 0)
(1.02688 0.0147332 0)
(1.02868 0.0141618 0)
(1.03023 0.0136333 0)
(1.03187 0.0128068 0)
(1.03322 0.0120732 0)
(1.03426 0.0115294 0)
(1.03511 0.0110815 0)
(1.03586 0.0106776 0)
(1.03653 0.0103142 0)
(1.03713 0.00999081 0)
(1.03768 0.0097009 0)
(1.03817 0.00943766 0)
(1.03863 0.00919642 0)
(1.03906 0.00897397 0)
(1.03946 0.00876781 0)
(1.03984 0.00857591 0)
(1.0402 0.00839662 0)
(1.04054 0.00822863 0)
(1.04087 0.00807079 0)
(1.04118 0.00792212 0)
(1.04148 0.00778169 0)
(1.04177 0.00764861 0)
(1.04205 0.007522 0)
(1.04231 0.00740099 0)
(1.04257 0.00728474 0)
(1.04282 0.00717238 0)
(1.04306 0.00706308 0)
(1.04329 0.00695598 0)
(1.04351 0.00685027 0)
(1.04373 0.00674496 0)
(1.04394 0.00663923 0)
(1.04414 0.00653182 0)
(1.04434 0.00642174 0)
(1.04453 0.00630729 0)
(1.04472 0.00618697 0)
(1.0449 0.00605845 0)
(1.04508 0.00591888 0)
(1.04526 0.00576536 0)
(1.04544 0.00559174 0)
(1.04561 0.00539486 0)
(1.04578 0.00516211 0)
(1.04594 0.00489 0)
(1.04609 0.00455731 0)
(1.04621 0.00415987 0)
(1.04629 0.00367577 0)
(1.04631 0.00310555 0)
(1.04623 0.00244518 0)
(1.00067 0.00923213 0)
(1.01031 0.0176728 0)
(1.02013 0.0164693 0)
(1.02504 0.0143783 0)
(1.02693 0.0138297 0)
(1.02844 0.0133987 0)
(1.03004 0.0126473 0)
(1.0314 0.0119392 0)
(1.03244 0.0114087 0)
(1.03328 0.0109762 0)
(1.03402 0.0105858 0)
(1.03468 0.0102319 0)
(1.03528 0.0099155 0)
(1.03582 0.00963135 0)
(1.0363 0.00937295 0)
(1.03676 0.0091357 0)
(1.03717 0.00891654 0)
(1.03757 0.0087131 0)
(1.03794 0.00852349 0)
(1.03829 0.00834614 0)
(1.03862 0.0081798 0)
(1.03894 0.0080234 0)
(1.03924 0.00787603 0)
(1.03953 0.00773678 0)
(1.03981 0.0076048 0)
(1.04008 0.00747924 0)
(1.04034 0.00735924 0)
(1.04059 0.00724394 0)
(1.04083 0.00713249 0)
(1.04107 0.00702406 0)
(1.04129 0.00691778 0)
(1.04151 0.00681283 0)
(1.04172 0.00670824 0)
(1.04192 0.00660313 0)
(1.04211 0.0064963 0)
(1.0423 0.00638668 0)
(1.04249 0.00627264 0)
(1.04267 0.00615257 0)
(1.04285 0.00602427 0)
(1.04302 0.00588479 0)
(1.04319 0.00573127 0)
(1.04336 0.00555783 0)
(1.04352 0.00536088 0)
(1.04368 0.0051293 0)
(1.04383 0.00485818 0)
(1.04396 0.00453019 0)
(1.04406 0.00413896 0)
(1.04412 0.00366778 0)
(1.04412 0.00311463 0)
(1.04402 0.00247423 0)
(1.00058 0.00834126 0)
(1.00917 0.0166187 0)
(1.01838 0.0159698 0)
(1.02329 0.0140314 0)
(1.02526 0.013498 0)
(1.02674 0.0131541 0)
(1.02831 0.0124812 0)
(1.02966 0.0118026 0)
(1.0307 0.0112855 0)
(1.03154 0.0108684 0)
(1.03227 0.010492 0)
(1.03293 0.0101481 0)
(1.03352 0.009839 0)
(1.03404 0.0095608 0)
(1.03453 0.0093074 0)
(1.03497 0.0090743 0)
(1.03538 0.00885855 0)
(1.03576 0.00865794 0)
(1.03613 0.00847069 0)
(1.03647 0.00829534 0)
(1.03679 0.00813071 0)
(1.0371 0.00797582 0)
(1.0374 0.00782978 0)
(1.03768 0.00769176 0)
(1.03796 0.00756093 0)
(1.03822 0.00743645 0)
(1.03847 0.00731748 0)
(1.03871 0.00720317 0)
(1.03895 0.00709266 0)
(1.03917 0.00698514 0)
(1.03939 0.00687971 0)
(1.0396 0.00677556 0)
(1.0398 0.00667171 0)
(1.03999 0.00656726 0)
(1.04018 0.00646104 0)
(1.04037 0.00635192 0)
(1.04054 0.00623834 0)
(1.04072 0.0061186 0)
(1.04089 0.00599059 0)
(1.04105 0.00585133 0)
(1.04121 0.00569796 0)
(1.04137 0.00552493 0)
(1.04152 0.00532829 0)
(1.04167 0.00509823 0)
(1.0418 0.00482891 0)
(1.04191 0.00450605 0)
(1.042 0.00412218 0)
(1.04204 0.0036641 0)
(1.04201 0.00312867 0)
(1.04189 0.00250936 0)
(1.0005 0.00753464 0)
(1.00814 0.0155935 0)
(1.01673 0.0154567 0)
(1.02163 0.0136915 0)
(1.02367 0.0131686 0)
(1.02513 0.0129004 0)
(1.02666 0.0123078 0)
(1.02801 0.0116631 0)
(1.02905 0.0111601 0)
(1.02989 0.010758 0)
(1.03061 0.010396 0)
(1.03126 0.0100627 0)
(1.03184 0.00976121 0)
(1.03236 0.00948915 0)
(1.03284 0.00924094 0)
(1.03327 0.00901214 0)