/*--------------------------------*- C++ -*----------------------------------*\
  =========                 |
  \\      /  F ield         | OpenFOAM: The Open Source CFD Toolbox
   \\    /   O peration     | Website:  https://openfoam.org
    \\  /    A nd           | Version:  7
     \\/     M anipulation  |
\*---------------------------------------------------------------------------*/
FoamFile
{
    version     2.0;
    format      ascii;
    class       volScalarField;
    location    "0.48";
    object      yPlus;
}
// * * * * * * * * * * * * * * * * * * * * * * * * * * * * * * * * * * * * * //

dimensions      [0 0 0 0 0 0 0];

internalField   uniform 0;

boundaryField
{
    velocityInlet
    {
        type            calculated;
        value           uniform 0;
    }
    pressureOutlet
    {
        type            calculated;
        value           uniform 0;
    }
    fixedWalls
    {
        type            calculated;
        value           nonuniform List<scalar> 
100
(
2.26011
1.96233
1.62467
1.40986
1.2984
1.23105
1.18403
1.13032
1.06419
1.09278
1.31365
1.55429
1.5718
1.02967
1.19226
1.73074
1.72708
1.34238
0.569728
0.907884
1.19262
1.27165
1.26605
1.22812
1.1796
1.1284
1.07612
1.02213
0.966518
0.911865
0.863863
0.829448
0.813372
0.819173
0.848841
0.888347
0.902583
0.86476
0.80703
0.830921
0.977502
1.15828
1.30847
1.43361
1.52822
1.53446
1.37004
0.894303
0.768574
1.29123
1.46282
1.3993
1.16099
0.78643
0.170569
0.685817
0.868027
0.954481
0.996155
1.0185
1.03599
1.05479
1.07403
1.08952
1.09821
1.0986
1.08603
1.04768
0.963458
0.812586
0.568652
0.199372
0.605632
0.784157
0.854571
0.820818
0.679054
0.402784
0.381565
0.635448
0.768008
0.83986
0.873054
0.878958
0.864267
0.833791
0.792409
0.744677
0.694561
0.642297
0.58673
0.529324
0.481418
0.467609
0.493104
0.558253
0.619502
0.678656
0.712393
0.680946
)
;
    }
    bottomWall
    {
        type            calculated;
        value           nonuniform List<scalar> 
800
(
2.94479
1.9839
1.61343
1.44032
1.3552
1.29658
1.24766
1.20657
1.17205
1.1425
1.11671
1.09389
1.0735
1.05512
1.03844
1.0232
1.00921
0.996304
0.984348
0.973232
0.962863
0.95316
0.944056
0.935494
0.927421
0.919795
0.912577
0.905732
0.899231
0.893046
0.887155
0.881535
0.876167
0.871034
0.86612
0.861409
0.856892
0.852554
0.848385
0.844376
0.840516
0.836799
0.833215
0.829758
0.826421
0.823198
0.820082
0.817071
0.814155
0.811337
0.808971
0.807011
0.805073
0.803158
0.801269
0.799403
0.797559
0.795739
0.79394
0.792162
0.790405
0.788668
0.786953
0.785256
0.783579
0.78192
0.78028
0.778659
0.777055
0.775469
0.7739
0.772348
0.770813
0.769294
0.767792
0.766304
0.764833
0.763377
0.761935
0.760508
0.759096
0.757698
0.756314
0.754944
0.753586
0.752244
0.750913
0.749595
0.74829
0.746998
0.745717
0.744449
0.743193
0.741948
0.740715
0.739494
0.738282
0.737082
0.735894
0.734716
0.733547
0.73239
0.731243
0.730106
0.728979
0.727862
0.726754
0.725656
0.724567
0.723488
0.722416
0.721355
0.720302
0.719259
0.718223
0.717197
0.716179
0.715169
0.714167
0.713173
0.712187
0.71121
0.710239
0.709277
0.708322
0.707375
0.706436
0.705503
0.704577
0.703659
0.702748
0.701843
0.700947
0.700056
0.699171
0.698294
0.697423
0.696559
0.6957
0.694849
0.694003
0.693163
0.69233
0.691501
0.69068
0.689864
0.689053
0.688249
0.68745
0.686655
0.685989
0.685444
0.684896
0.684349
0.683799
0.683249
0.682697
0.682144
0.68159
0.681034
0.680479
0.67992
0.679361
0.678802
0.678241
0.677679
0.677116
0.676551
0.675985
0.675418
0.674849
0.674281
0.67371
0.673139
0.672566
0.671993
0.671418
0.670842
0.670265
0.669688
0.669108
0.668528
0.667946
0.667365
0.666781
0.666196
0.66561
0.665024
0.664436
0.663846
0.663256
0.662666
0.662073
0.66148
0.660886
0.660291
0.659695
0.659096
0.658498
0.657899
0.657299
0.656697
0.656093
0.65549
0.654884
0.654278
0.65367
0.653062
0.652453
0.651842
0.65123
0.650617
0.650003
0.649387
0.648771
0.648153
0.647535
0.646914
0.646292
0.645671
0.645047
0.644421
0.643795
0.643167
0.642537
0.641907
0.641276
0.640641
0.640007
0.63937
0.638733
0.638091
0.637453
0.636806
0.636165
0.635511
0.634872
0.634205
0.633576
0.632882
0.632278
0.631535
0.630987
0.630153
0.629715
0.628713
0.628476
0.627214
0.627265
0.62566
2.94479
1.98392
1.61347
1.44038
1.35527
1.29665
1.24773
1.20664
1.17212
1.14257
1.11679
1.09398
1.0736
1.05523
1.03856
1.02334
1.00936
0.99648
0.984549
0.973465
0.963135
0.95348
0.944436
0.935944
0.927957
0.920432
0.913331
0.906624
0.900283
0.894284
0.888606
0.88323
0.878144
0.873336
0.868795
0.864518
0.860494
0.856746
0.853236
0.85006
0.847077
0.844607
0.842168
0.840736
0.838823
0.839156
0.837811
0.840801
0.844155
0.810671
0.492704
0.628089
1.45855
1.99017
2.30576
2.40338
2.32051
2.16289
2.05359
2.07975
2.29887
2.67105
2.9463
2.97426
2.36089
1.44656
1.50011
1.93077
2.21664
2.50071
2.76215
3.02987
3.29477
3.54913
3.7816
3.97831
4.13074
4.23492
4.28616
4.28152
4.22293
4.10997
3.94304
3.72228
3.44691
3.11374
2.71483
2.23196
1.6267
1.07824
1.65692
2.22441
2.6618
3.02306
3.32511
3.58067
3.79771
3.98162
4.13628
4.26462
4.36886
4.45087
4.51217
4.55377
4.5772
4.58256
4.57022
4.5416
4.49714
4.43727
4.36256
4.27338
4.16989
4.052
3.91923
3.77052
3.60427
3.41796
3.20984
2.97616
2.70719
2.38314
1.94883
1.2903
0.646682
1.42934
1.77884
1.93925
1.96105
1.87584
1.71669
1.5501
1.48558
1.51753
1.54401
1.52676
1.48664
1.4438
1.40972
1.39774
1.40838
1.42257
1.43196
1.44079
1.45818
1.48172
1.50241
1.51409
1.51661
1.51324
1.50478
1.48622
1.45139
1.39308
1.30389
1.17698
1.01299
0.823739
0.768162
0.946029
1.14654
1.30834
1.42769
1.50404
1.53991
1.53668
1.49734
1.4266
1.33243
1.22677
1.12476
1.04228
0.992016
0.97919
0.997839
1.03061
1.06128
1.07469
1.05743
0.999072
0.889251
0.71259
0.424473
0.482919
0.771171
0.97151
1.12179
1.23559
1.31919
1.37713
1.41065
1.42058
1.40642
1.36564
1.2979
1.20243
1.0814
0.953735
0.894442
0.991519
1.18112
1.39028
1.59267
1.78359
1.96256
2.12992
2.28607
2.43136
2.56607
2.69043
2.80477
2.90934
3.00437
3.09004
3.16654
3.23403
3.29273
3.34282
3.38449
3.41791
3.44331
3.46085
3.47078
3.47333
3.46801
3.45495
3.43432
3.40799
3.375
3.33433
3.2861
3.23039
3.1673
3.09694
3.01941
2.93485
2.8434
2.74514
2.64009
2.52815
2.4112
2.28743
2.15674
2.01996
1.87982
1.74274
1.624
1.57223
1.72604
2.19322
0.436072
0.653376
0.907949
1.63535
2.41639
2.96718
3.32437
3.53188
3.59049
3.5351
3.38556
3.15868
2.88488
2.60085
2.35226
2.19743
2.18567
2.32626
2.58211
2.89091
3.17005
3.326
3.32503
3.1801
2.91629
2.57782
2.19142
1.78484
1.43129
1.19169
1.10769
1.17109
1.34593
1.59609
1.93983
2.42354
3.04274
3.69539
4.2601
4.67027
4.92095
5.05127
5.10837
5.1183
5.09113
5.03983
4.96956
4.88212
4.78141
4.6696
4.54743
4.415
4.2711
4.1131
3.93837
3.73977
3.50947
3.23699
2.90708
2.49606
1.96822
1.33577
1.61528
2.3397
2.9604
3.50723
4.00353
4.46152
4.88645
5.27863
5.63752
5.96097
6.24364
6.48214
6.66562
6.78817
6.84463
6.80646
6.6665
6.38193
5.95995
5.34882
4.38102
3.16332
2.13082
1.14716
0.831686
1.30527
1.53671
1.71814
1.60725
1.57851
1.77607
2.0403
2.28665
2.36657
2.29176
1.99881
1.44127
0.562818
0.63591
1.26985
1.98837
2.47758
2.28518
1.50781
1.42966
2.2802
2.84318
3.2293
3.49727
3.66682
3.73618
3.69042
3.54469
3.32577
3.0544
2.732
2.34026
1.84442
1.20834
1.27436
1.95274
2.44433
2.80669
3.08151
3.28103
3.41464
3.49345
3.52488
3.50425
3.40329
3.1796
2.79683
2.22163
1.42283
1.50749
2.08653
2.40075
2.51934
2.51514
2.44663
2.3452
2.20282
1.98042
1.67447
1.85504
2.34751
2.62767
2.72102
2.62326
2.34899
1.87466
1.27239
1.82143
2.50622
3.11156
3.64434
4.0734
4.4078
4.66451
4.86862
5.03636
5.17572
5.28971
5.3827
5.45903
5.52215
5.57445
5.61802
5.65455
5.68543
5.71171
5.7342
5.75351
5.77005
5.78407
5.79566
5.8048
5.81132
5.81493
5.81518
5.81147
5.80325
5.78917
5.76752
5.73587
5.69091
5.62857
5.54425
5.43378
5.29493
5.13563
4.96209
4.7812
4.6026
4.46145
4.46357
4.61429
4.88741
5.21259
5.55446
6.01933
6.69824
7.28791
7.59997
7.78314
7.92746
8.03308
8.06741
8.05822
8.03158
7.98143
7.9124
7.83683
7.75354
7.66389
7.57331
7.48223
7.39078
7.30088
7.21303
7.12715
7.04387
6.96362
6.8865
6.81287
6.74309
6.67743
6.61613
6.55947
6.50761
6.46071
6.41883
6.38201
6.35027
6.32357
6.30183
6.28498
6.2755
6.2738
6.27707
6.28495
6.2971
6.31373
6.33493
6.36065
6.39089
6.42557
6.46458
6.50779
6.55502
6.60604
6.66058
6.71835
6.77899
6.84207
6.90726
6.97426
7.04259
7.11167
7.18076
7.24949
7.31699
7.38245
7.44523
7.50483
7.56073
7.61236
7.65915
7.70035
7.7349
7.76132
7.77811
7.78406
7.77888
7.77327
7.76173
7.73995
7.7072
7.66312
7.60732
7.53959
7.45976
7.36774
7.26345
7.14682
7.01776
6.87624
6.72233
6.56591
6.4378
6.31047
6.18683
6.07188
5.97293
5.90329
5.90067
6.04369
6.37644
)
;
    }
    frontAndBack
    {
        type            empty;
    }
}


// ************************************************************************* //
