/*--------------------------------*- C++ -*----------------------------------*\
  =========                 |
  \\      /  F ield         | OpenFOAM: The Open Source CFD Toolbox
   \\    /   O peration     | Website:  https://openfoam.org
    \\  /    A nd           | Version:  7
     \\/     M anipulation  |
\*---------------------------------------------------------------------------*/
FoamFile
{
    version     2.0;
    format      ascii;
    class       volScalarField;
    location    "0.48";
    object      p;
}
// * * * * * * * * * * * * * * * * * * * * * * * * * * * * * * * * * * * * * //

dimensions      [0 2 -2 0 0 0 0];

internalField   nonuniform List<scalar> 
70000
(
0.105718
0.0282665
0.0157528
0.018207
0.0183888
0.0173471
0.0164267
0.0157395
0.0151752
0.0146861
0.0142591
0.0138862
0.0135598
0.0132735
0.0130221
0.0128012
0.0126075
0.0124382
0.0122913
0.0121648
0.0120572
0.0119674
0.0118944
0.0118373
0.0117955
0.0117686
0.011756
0.0117576
0.0117731
0.0118022
0.0118449
0.0119007
0.0119695
0.0120504
0.0121432
0.0122461
0.012358
0.012476
0.0125965
0.0127154
0.0128226
0.0129148
0.0129653
0.0129779
0.0128878
0.0127265
0.0123315
0.0118719
0.0107574
0.0102698
0.10135
0.0286333
0.0159558
0.0183027
0.0184434
0.0173832
0.016455
0.0157629
0.0151948
0.0147029
0.0142737
0.0138991
0.0135714
0.013284
0.0130316
0.0128099
0.0126155
0.0124457
0.0122982
0.0121713
0.0120634
0.0119732
0.0118999
0.0118425
0.0118005
0.0117733
0.0117605
0.0117619
0.0117773
0.0118063
0.0118488
0.0119044
0.0119731
0.012054
0.0121466
0.0122495
0.0123613
0.0124792
0.0125997
0.0127186
0.0128258
0.012918
0.0129685
0.0129811
0.0128909
0.0127294
0.0123343
0.0118726
0.0107607
0.0102615
0.0977691
0.0295732
0.016296
0.0184317
0.0185177
0.017428
0.0164873
0.0157891
0.0152166
0.0147214
0.0142897
0.0139131
0.0135839
0.0132952
0.0130418
0.0128192
0.0126241
0.0124536
0.0123056
0.0121782
0.0120698
0.0119793
0.0119056
0.0118479
0.0118056
0.0117782
0.0117652
0.0117664
0.0117816
0.0118104
0.0118528
0.0119083
0.0119768
0.0120576
0.0121502
0.012253
0.0123647
0.0124826
0.0126031
0.0127221
0.0128294
0.0129218
0.0129726
0.0129856
0.0128959
0.0127351
0.0123406
0.0118783
0.0107834
0.0102218
0.0946748
0.0306748
0.0167654
0.0186056
0.0186185
0.0174855
0.0165254
0.015819
0.0152412
0.0147419
0.0143071
0.0139282
0.0135972
0.0133071
0.0130525
0.012829
0.012633
0.0124619
0.0123132
0.0121853
0.0120765
0.0119855
0.0119115
0.0118535
0.0118109
0.0117832
0.01177
0.011771
0.0117859
0.0118145
0.0118567
0.0119121
0.0119805
0.0120612
0.0121536
0.0122564
0.0123681
0.0124861
0.0126066
0.0127258
0.0128334
0.0129262
0.0129776
0.0129917
0.0129034
0.0127442
0.0123535
0.01189
0.0108265
0.0101562
0.0917152
0.031771
0.017331
0.0188259
0.0187528
0.0175632
0.0165743
0.0158559
0.0152711
0.0147664
0.0143276
0.0139458
0.0136125
0.0133206
0.0130646
0.0128399
0.0126429
0.0124709
0.0123216
0.012193
0.0120836
0.0119922
0.0119178
0.0118594
0.0118164
0.0117884
0.0117749
0.0117757
0.0117903
0.0118188
0.0118608
0.011916
0.0119843
0.0120648
0.0121572
0.0122598
0.0123716
0.0124896
0.0126103
0.0127297
0.0128378
0.0129314
0.012984
0.0129996
0.0129142
0.0127577
0.0123747
0.0119101
0.0108906
0.0100964
0.088806
0.0328097
0.0179459
0.0190726
0.0189148
0.0176627
0.0166364
0.0159021
0.0153082
0.0147967
0.0143526
0.0139669
0.0136307
0.0133366
0.0130787
0.0128525
0.0126544
0.0124813
0.0123311
0.0122017
0.0120917
0.0119997
0.0119247
0.0118659
0.0118225
0.0117941
0.0117803
0.0117807
0.0117951
0.0118233
0.0118651
0.0119201
0.0119882
0.0120685
0.0121608
0.0122634
0.0123751
0.0124932
0.0126142
0.0127341
0.0128429
0.0129376
0.012992
0.01301
0.012929
0.012777
0.0124063
0.0119442
0.0109779
0.0100703
0.0859411
0.033772
0.0185764
0.0193242
0.0190911
0.0177793
0.0167108
0.0159574
0.015353
0.0148333
0.014383
0.0139925
0.0136527
0.0133558
0.0130956
0.0128676
0.0126678
0.0124935
0.0123422
0.0122119
0.012101
0.0120083
0.0119327
0.0118733
0.0118294
0.0118006
0.0117863
0.0117864
0.0118004
0.0118283
0.0118698
0.0119245
0.0119924
0.0120726
0.0121647
0.0122672
0.0123789
0.0124972
0.0126184
0.0127389
0.0128487
0.0129449
0.0130019
0.0130232
0.0129487
0.0128033
0.0124502
0.0119958
0.011092
0.010103
0.0831264
0.0346498
0.0192064
0.0195687
0.0192711
0.0179067
0.0167941
0.0160197
0.0154042
0.0148758
0.0144184
0.0140225
0.0136786
0.0133784
0.0131156
0.0128853
0.0126837
0.0125079
0.0123552
0.0122237
0.0121119
0.0120183
0.0119419
0.0118818
0.0118373
0.0118079
0.0117932
0.0117927
0.0118064
0.0118338
0.011875
0.0119294
0.011997
0.0120769
0.0121689
0.0122713
0.012383
0.0125015
0.0126231
0.0127444
0.0128555
0.0129537
0.013014
0.0130398
0.012974
0.0128379
0.0125083
0.0120691
0.0112379
0.0102157
0.0803679
0.0354403
0.0198309
0.0198023
0.0194486
0.0180399
0.0168829
0.0160866
0.0154598
0.0149226
0.0144578
0.0140563
0.0137079
0.0134041
0.0131384
0.0129057
0.0127021
0.0125244
0.0123702
0.0122375
0.0121244
0.0120298
0.0119525
0.0118916
0.0118464
0.0118163
0.011801
0.0118
0.0118131
0.0118401
0.0118808
0.0119349
0.0120021
0.0120818
0.0121735
0.0122759
0.0123876
0.0125063
0.0126284
0.0127507
0.0128633
0.012964
0.0130287
0.0130602
0.0130056
0.0128819
0.0125819
0.0121677
0.0114204
0.0104235
0.0776701
0.0361434
0.0204487
0.0200246
0.0196206
0.0181762
0.0169752
0.0161561
0.0155181
0.0149722
0.0145002
0.0140928
0.0137399
0.0134324
0.0131636
0.0129284
0.0127225
0.012543
0.0123872
0.012253
0.0121387
0.0120429
0.0119646
0.0119028
0.0118567
0.0118259
0.0118099
0.0118082
0.0118208
0.0118473
0.0118875
0.0119411
0.0120079
0.0120873
0.0121787
0.0122809
0.0123927
0.0125117
0.0126343
0.0127578
0.0128724
0.0129761
0.0130462
0.0130847
0.0130438
0.0129364
0.0126722
0.0122942
0.0116439
0.0107351
0.0750363
0.0367593
0.0210589
0.0202363
0.0197858
0.0183143
0.01707
0.016227
0.0155778
0.0150236
0.0145443
0.0141312
0.0137737
0.0134626
0.0131907
0.0129528
0.0127447
0.0125632
0.0124057
0.01227
0.0121543
0.0120574
0.011978
0.0119152
0.0118682
0.0118366
0.0118198
0.0118174
0.0118293
0.0118552
0.0118948
0.0119479
0.0120143
0.0120933
0.0121844
0.0122865
0.0123983
0.0125176
0.012641
0.0127657
0.0128828
0.01299
0.0130665
0.0131135
0.013089
0.0130017
0.0127795
0.0124501
0.0119109
0.01115
0.0724694
0.0372885
0.0216602
0.0204386
0.0199432
0.0184531
0.0171669
0.016299
0.0156384
0.015076
0.0145896
0.0141707
0.0138087
0.0134939
0.013219
0.0129785
0.0127681
0.0125847
0.0124254
0.0122882
0.0121712
0.012073
0.0119924
0.0119286
0.0118807
0.0118481
0.0118305
0.0118274
0.0118386
0.0118638
0.0119029
0.0119554
0.0120213
0.0120999
0.0121907
0.0122926
0.0124044
0.0125241
0.0126483
0.0127746
0.0128944
0.0130058
0.0130897
0.0131467
0.013141
0.0130779
0.0129034
0.0126351
0.0122216
0.0116596
0.0699721
0.0377314
0.0222506
0.0206327
0.0200921
0.0185919
0.0172658
0.0163718
0.0156996
0.0151291
0.0146357
0.0142111
0.0138445
0.0135261
0.0132481
0.013005
0.0127924
0.012607
0.012446
0.0123072
0.0121888
0.0120893
0.0120076
0.0119427
0.0118939
0.0118604
0.011842
0.0118381
0.0118486
0.0118731
0.0119115
0.0119634
0.0120287
0.0121069
0.0121973
0.0122991
0.0124109
0.0125311
0.0126563
0.0127843
0.0129073
0.0130232
0.0131156
0.013184
0.0131994
0.0131645
0.0130427
0.0128473
0.0125728
0.0122486
0.0675467
0.0380889
0.0228276
0.0208198
0.020232
0.0187299
0.0173665
0.0164454
0.0157611
0.0151829
0.0146825
0.0142521
0.013881
0.0135588
0.0132778
0.0130321
0.0128173
0.0126299
0.0124672
0.0123268
0.012207
0.0121063
0.0120234
0.0119574
0.0119076
0.0118732
0.0118539
0.0118492
0.0118589
0.0118827
0.0119204
0.0119718
0.0120365
0.0121142
0.0122043
0.0123059
0.0124178
0.0125385
0.0126648
0.0127947
0.0129212
0.0130423
0.013144
0.0132251
0.0132636
0.0132605
0.0131958
0.0130836
0.0129594
0.0128967
0.0651957
0.0383623
0.0233884
0.0210015
0.0203625
0.0188661
0.0174689
0.0165199
0.015823
0.0152371
0.0147298
0.0142936
0.0139179
0.0135921
0.013308
0.0130596
0.0128426
0.0126532
0.0124887
0.0123468
0.0122256
0.0121236
0.0120396
0.0119725
0.0119217
0.0118864
0.0118662
0.0118607
0.0118696
0.0118926
0.0119296
0.0119803
0.0120445
0.0121217
0.0122115
0.0123129
0.0124249
0.0125461
0.0126736
0.0128057
0.012936
0.0130628
0.0131745
0.0132697
0.0133328
0.0133648
0.0133606
0.0133396
0.0133733
0.0135845
0.0629211
0.0385533
0.0239297
0.0211794
0.0204834
0.0189996
0.0175728
0.0165951
0.0158852
0.0152917
0.0147777
0.0143357
0.0139553
0.0136258
0.0133386
0.0130876
0.0128683
0.0126769
0.0125107
0.0123672
0.0122446
0.0121413
0.012056
0.0119879
0.011936
0.0118997
0.0118786
0.0118723
0.0118804
0.0119027
0.011939
0.011989
0.0120526
0.0121293
0.0122187
0.01232
0.0124321
0.012554
0.0126828
0.0128172
0.0129516
0.0130845
0.0132069
0.0133173
0.0134063
0.013476
0.0135347
0.0136107
0.0138051
0.0142941
0.0607246
0.0386638
0.0244484
0.0213548
0.0205946
0.0191294
0.0176779
0.0166713
0.0159475
0.0153466
0.0148261
0.0143782
0.0139932
0.0136599
0.0133696
0.0131159
0.0128943
0.0127009
0.0125329
0.0123878
0.0122638
0.0121592
0.0120727
0.0120034
0.0119505
0.0119133
0.0118912
0.011884
0.0118913
0.0119128
0.0119483
0.0119977
0.0120607
0.0121369
0.0122259
0.0123271
0.0124394
0.0125619
0.0126921
0.012829
0.0129678
0.0131073
0.0132409
0.0133674
0.0134834
0.0135929
0.0137161
0.0138922
0.0142468
0.0150055
0.0586073
0.0386963
0.0249417
0.0215289
0.0206962
0.0192545
0.0177838
0.0167482
0.0160099
0.0154018
0.0148749
0.0144212
0.0140315
0.0136944
0.0134009
0.0131446
0.0129207
0.0127253
0.0125554
0.0124087
0.0122832
0.0121772
0.0120896
0.0120191
0.0119651
0.0119269
0.0119039
0.0118958
0.0119022
0.0119229
0.0119577
0.0120063
0.0120687
0.0121444
0.012233
0.0123341
0.0124466
0.0125698
0.0127016
0.012841
0.0129845
0.0131309
0.0132761
0.0134197
0.0135633
0.0137142
0.0139026
0.0141797
0.0146917
0.0157025
0.0565702
0.0386538
0.0254065
0.0217025
0.0207885
0.0193739
0.0178901
0.0168261
0.0160724
0.0154571
0.0149241
0.0144646
0.0140701
0.0137293
0.0134327
0.0131737
0.0129473
0.0127499
0.0125782
0.0124299
0.0123028
0.0121955
0.0121066
0.012035
0.0119799
0.0119406
0.0119166
0.0119076
0.0119131
0.011933
0.011967
0.0120149
0.0120766
0.0121517
0.01224
0.0123409
0.0124537
0.0125776
0.0127111
0.0128533
0.0130016
0.0131553
0.0133124
0.0134738
0.0136454
0.0138386
0.0140923
0.0144696
0.0151329
0.0163736
0.0546136
0.0385397
0.0258402
0.0218763
0.020872
0.0194867
0.0179962
0.0169047
0.0161349
0.0155124
0.0149735
0.0145084
0.0141092
0.0137645
0.0134647
0.013203
0.0129743
0.0127748
0.0126013
0.0124512
0.0123227
0.012214
0.0121238
0.012051
0.0119947
0.0119544
0.0119294
0.0119194
0.011924
0.011943
0.0119762
0.0120234
0.0120844
0.012159
0.0122468
0.0123476
0.0124606
0.0125854
0.0127206
0.0128657
0.013019
0.0131802
0.0133496
0.0135293
0.0137292
0.0139651
0.0142833
0.0147582
0.0155645
0.0170102
0.0527375
0.0383581
0.0262399
0.0220505
0.0209471
0.019592
0.0181015
0.0169841
0.0161974
0.0155676
0.0150232
0.0145526
0.0141486
0.0138
0.0134971
0.0132327
0.0130016
0.0127999
0.0126245
0.0124728
0.0123427
0.0122326
0.0121411
0.012067
0.0120097
0.0119682
0.0119422
0.0119312
0.0119348
0.0119529
0.0119853
0.0120317
0.012092
0.012166
0.0122534
0.0123541
0.0124674
0.012593
0.01273
0.0128781
0.0130365
0.0132056
0.0133874
0.0135857
0.0138141
0.0140926
0.0144739
0.0150422
0.0159811
0.0176054
0.0509414
0.0381132
0.0266033
0.0222248
0.0210147
0.0196891
0.0182054
0.0170641
0.0162599
0.0156226
0.015073
0.014597
0.0141883
0.0138359
0.0135298
0.0132626
0.0130291
0.0128253
0.012648
0.0124946
0.0123629
0.0122514
0.0121585
0.0120832
0.0120246
0.0119821
0.011955
0.0119429
0.0119456
0.0119628
0.0119942
0.0120398
0.0120994
0.0121728
0.0122598
0.0123603
0.0124739
0.0126004
0.0127392
0.0128904
0.0130541
0.0132312
0.0134256
0.0136427
0.0138994
0.0142199
0.0146624
0.0153188
0.0163779
0.0181535
0.0492245
0.0378097
0.026928
0.0223987
0.0210755
0.0197776
0.018307
0.0171446
0.0163223
0.0156772
0.0151228
0.0146417
0.0142282
0.013872
0.0135627
0.0132928
0.0130569
0.012851
0.0126717
0.0125166
0.0123833
0.0122703
0.012176
0.0120994
0.0120397
0.0119959
0.0119678
0.0119546
0.0119563
0.0119725
0.012003
0.0120477
0.0121065
0.0121793
0.0122659
0.0123663
0.0124802
0.0126075
0.0127482
0.0129026
0.0130716
0.0132569
0.0134639
0.0136999
0.0139845
0.0143459
0.0148467
0.0155848
0.0167507
0.0186498
0.0475855
0.0374527
0.0272122
0.0225715
0.0211305
0.019857
0.0184055
0.0172253
0.0163846
0.0157315
0.0151724
0.0146866
0.0142684
0.0139083
0.0135958
0.0133232
0.0130849
0.0128768
0.0126956
0.0125387
0.0124038
0.0122893
0.0121936
0.0121157
0.0120547
0.0120098
0.0119805
0.0119663
0.0119669
0.011982
0.0120116
0.0120554
0.0121134
0.0121856
0.0122717
0.0123719
0.0124861
0.0126143
0.012757
0.0129146
0.0130889
0.0132825
0.013502
0.0137568
0.0140686
0.0144694
0.0150252
0.0158375
0.0170955
0.0190906
0.0460229
0.0370475
0.0274541
0.0227416
0.0211807
0.0199272
0.0185
0.017306
0.0164468
0.0157853
0.0152219
0.0147315
0.0143088
0.0139448
0.0136292
0.0133538
0.0131131
0.0129028
0.0127197
0.012561
0.0124244
0.0123084
0.0122113
0.0121321
0.0120698
0.0120236
0.0119931
0.0119778
0.0119773
0.0119914
0.01202
0.0120629
0.0121201
0.0121915
0.0122771
0.0123771
0.0124916
0.0126207
0.0127652
0.0129262
0.0131058
0.0133077
0.0135395
0.0138127
0.0141509
0.0145892
0.0151957
0.0160742
0.0174089
0.0194733
0.0445348
0.0365996
0.0276525
0.0229075
0.021227
0.0199881
0.0185896
0.0173861
0.0165089
0.0158385
0.0152709
0.0147763
0.0143492
0.0139814
0.0136626
0.0133845
0.0131414
0.012929
0.0127439
0.0125833
0.0124452
0.0123276
0.012229
0.0121484
0.0120848
0.0120374
0.0120057
0.0119892
0.0119875
0.0120006
0.0120281
0.01207
0.0121263
0.012197
0.0122821
0.0123819
0.0124966
0.0126266
0.012773
0.0129372
0.0131221
0.0133322
0.0135762
0.0138672
0.0142305
0.0147038
0.0153565
0.0162923
0.0176881
0.0197959
0.0431189
0.0361146
0.0278065
0.0230673
0.0212702
0.02004
0.0186736
0.0174653
0.0165709
0.015891
0.0153195
0.0148211
0.0143898
0.0140182
0.0136962
0.0134154
0.0131699
0.0129553
0.0127682
0.0126058
0.012466
0.0123468
0.0122468
0.0121648
0.0120998
0.0120511
0.0120181
0.0120004
0.0119976
0.0120095
0.0120359
0.0120768
0.0121322
0.0122021
0.0122867
0.0123862
0.012501
0.012632
0.0127802
0.0129476
0.0131377
0.0133557
0.0136115
0.0139195
0.0143065
0.0148121
0.0155057
0.0164893
0.0179303
0.0200573
0.0417729
0.035598
0.0279157
0.0232185
0.0213111
0.0200831
0.0187512
0.0175429
0.0166325
0.0159429
0.0153674
0.0148656
0.0144303
0.0140549
0.0137298
0.0134464
0.0131984
0.0129816
0.0127926
0.0126284
0.0124868
0.012366
0.0122645
0.0121811
0.0121147
0.0120647
0.0120304
0.0120114
0.0120074
0.0120181
0.0120434
0.0120832
0.0121376
0.0122067
0.0122906
0.0123898
0.0125048
0.0126366
0.0127866
0.0129571
0.0131523
0.013378
0.013645
0.0139691
0.014378
0.0149125
0.0156413
0.0166631
0.0181337
0.020257
0.040494
0.0350554
0.0279803
0.0233588
0.0213505
0.0201181
0.0188216
0.0176184
0.0166938
0.015994
0.0154145
0.0149097
0.0144706
0.0140916
0.0137634
0.0134773
0.013227
0.0130081
0.012817
0.012651
0.0125077
0.0123853
0.0122822
0.0121973
0.0121295
0.0120781
0.0120425
0.0120222
0.0120169
0.0120264
0.0120505
0.0120892
0.0121426
0.0122107
0.012294
0.0123928
0.0125079
0.0126404
0.012792
0.0129656
0.0131655
0.0133986
0.0136762
0.0140152
0.0144439
0.0150037
0.0157617
0.0168117
0.0182968
0.0203953
0.0392794
0.0344922
0.0280008
0.0234856
0.0213885
0.0201456
0.0188843
0.017691
0.0167544
0.0160443
0.0154608
0.0149533
0.0145108
0.0141283
0.013797
0.0135083
0.0132556
0.0130345
0.0128414
0.0126736
0.0125285
0.0124045
0.0122999
0.0122134
0.0121442
0.0120914
0.0120544
0.0120328
0.0120262
0.0120343
0.0120572
0.0120947
0.012147
0.0122142
0.0122967
0.012395
0.0125101
0.0126432
0.0127964
0.0129728
0.0131772
0.0134171
0.0137045
0.014057
0.0145033
0.0150845
0.0158652
0.0169335
0.0184184
0.0204733
0.0381263
0.0339135
0.0279785
0.0235966
0.0214253
0.0201663
0.018939
0.0177601
0.0168141
0.0160937
0.015506
0.0149962
0.0145507
0.0141647
0.0138305
0.0135392
0.0132842
0.0130609
0.0128659
0.0126961
0.0125493
0.0124236
0.0123174
0.0122294
0.0121587
0.0121045
0.012066
0.012043
0.012035
0.0120418
0.0120634
0.0120997
0.0121507
0.0122169
0.0122986
0.0123964
0.0125114
0.012645
0.0127996
0.0129785
0.013187
0.0134332
0.0137294
0.0140938
0.0145551
0.0151535
0.0159504
0.0170271
0.0184981
0.0204925
0.0370314
0.033324
0.0279149
0.0236894
0.0214605
0.020181
0.0189854
0.017825
0.0168726
0.0161422
0.0155501
0.0150383
0.0145901
0.0142009
0.0138637
0.0135699
0.0133127
0.0130873
0.0128902
0.0127186
0.01257
0.0124426
0.0123348
0.0122453
0.012173
0.0121173
0.0120774
0.0120529
0.0120435
0.0120489
0.0120691
0.012104
0.0121539
0.0122189
0.0122997
0.0123968
0.0125116
0.0126455
0.0128013
0.0129824
0.0131947
0.0134464
0.0137503
0.0141249
0.0145982
0.0152095
0.0160159
0.0170915
0.0185359
0.0204551
0.0359918
0.0327278
0.0278121
0.0237624
0.0214934
0.0201903
0.0190235
0.0178848
0.0169295
0.0161897
0.015593
0.0150794
0.0146289
0.0142368
0.0138967
0.0136004
0.0133409
0.0131135
0.0129144
0.0127409
0.0125906
0.0124615
0.012352
0.0122609
0.0121871
0.0121298
0.0120884
0.0120624
0.0120515
0.0120554
0.0120741
0.0121077
0.0121562
0.0122201
0.0122998
0.0123962
0.0125105
0.0126447
0.0128013
0.0129843
0.0131998
0.0134562
0.0137666
0.0141494
0.0146319
0.0152514
0.0160608
0.017126
0.0185322
0.0203637
0.0350045
0.0321289
0.0276727
0.0238139
0.021523
0.0201949
0.0190533
0.017939
0.0169842
0.0162361
0.0156347
0.0151193
0.014667
0.0142722
0.0139294
0.0136306
0.013369
0.0131395
0.0129385
0.0127631
0.012611
0.0124801
0.012369
0.0122762
0.0122008
0.0121419
0.0120989
0.0120714
0.0120589
0.0120613
0.0120786
0.0121106
0.0121577
0.0122203
0.0122988
0.0123943
0.0125082
0.0126422
0.0127994
0.012984
0.0132019
0.0134622
0.0137777
0.0141666
0.0146551
0.0152782
0.016084
0.0171303
0.0184879
0.0202214
0.0340662
0.0315306
0.0274995
0.0238427
0.0215481
0.0201953
0.0190753
0.0179871
0.0170363
0.0162812
0.0156749
0.015158
0.0147042
0.0143071
0.0139616
0.0136605
0.0133967
0.0131652
0.0129623
0.012785
0.0126311
0.0124985
0.0123857
0.0122913
0.0122142
0.0121537
0.0121091
0.0120799
0.0120658
0.0120666
0.0120822
0.0121127
0.0121583
0.0122194
0.0122967
0.0123912
0.0125042
0.012638
0.0127955
0.012981
0.0132008
0.0134639
0.013783
0.0141757
0.0146669
0.0152891
0.0160849
0.0171043
0.0184044
0.0200318
0.0331741
0.0309357
0.0272956
0.0238479
0.0215673
0.0201919
0.0190896
0.0180285
0.0170852
0.0163248
0.0157137
0.0151952
0.0147403
0.0143412
0.0139933
0.0136899
0.0134241
0.0131906
0.0129858
0.0128067
0.012651
0.0125166
0.0124021
0.0123059
0.0122272
0.012165
0.0121187
0.0120879
0.0120721
0.0120712
0.0120851
0.012114
0.0121579
0.0122175
0.0122934
0.0123866
0.0124987
0.0126318
0.0127891
0.0129751
0.013196
0.0134608
0.0137818
0.0141761
0.0146668
0.0152833
0.0160633
0.0170484
0.0182833
0.0197987
0.0323253
0.0303468
0.0270644
0.0238291
0.0215791
0.0201848
0.0190967
0.0180629
0.0171303
0.0163665
0.0157509
0.0152309
0.0147753
0.0143745
0.0140244
0.0137188
0.013451
0.0132156
0.0130089
0.012828
0.0126705
0.0125344
0.012418
0.0123202
0.0122397
0.0121758
0.0121278
0.0120952
0.0120777
0.012075
0.0120872
0.0121142
0.0121564
0.0122143
0.0122886
0.0123803
0.0124912
0.0126234
0.0127802
0.012966
0.0131872
0.0134524
0.0137737
0.0141672
0.0146539
0.0152604
0.0160189
0.0169633
0.0181266
0.0195259
0.031517
0.0297658
0.026809
0.0237862
0.021582
0.020174
0.0190972
0.0180901
0.0171711
0.0164061
0.0157865
0.015265
0.0148089
0.0144068
0.0140548
0.013747
0.0134773
0.0132401
0.0130316
0.0128488
0.0126895
0.0125516
0.0124336
0.012334
0.0122517
0.012186
0.0121362
0.0121018
0.0120825
0.0120779
0.0120882
0.0121134
0.0121537
0.0122098
0.0122822
0.0123724
0.0124817
0.0126126
0.0127683
0.0129534
0.0131739
0.0134383
0.0137581
0.0141482
0.0146277
0.01522
0.0159518
0.0168499
0.0179368
0.0192178
0.0307466
0.0291944
0.0265329
0.0237197
0.0215745
0.0201593
0.0190915
0.01811
0.0172069
0.0164432
0.0158203
0.0152973
0.0148409
0.014438
0.0140842
0.0137746
0.013503
0.013264
0.0130537
0.0128692
0.0127081
0.0125684
0.0124486
0.0123472
0.0122631
0.0121956
0.012144
0.0121077
0.0120864
0.0120799
0.0120882
0.0121114
0.0121497
0.0122037
0.0122743
0.0123625
0.01247
0.0125992
0.0127533
0.0129368
0.0131557
0.013418
0.0137344
0.0141187
0.0145879
0.0151618
0.0158624
0.0167094
0.0177163
0.0188785
0.0300116
0.0286337
0.0262391
0.0236301
0.0215554
0.0201402
0.01908
0.0181226
0.0172374
0.0164773
0.015852
0.0153277
0.0148712
0.0144679
0.0141127
0.0138013
0.0135279
0.0132872
0.0130752
0.012889
0.0127261
0.0125847
0.012463
0.0123598
0.0122739
0.0122045
0.012151
0.0121127
0.0120894
0.0120809
0.0120871
0.0121081
0.0121443
0.0121961
0.0122644
0.0123505
0.0124558
0.0125829
0.0127349
0.0129161
0.0131323
0.0133911
0.0137023
0.0140784
0.014534
0.015086
0.0157513
0.0165435
0.017468
0.0185123
0.0293097
0.0280849
0.0259308
0.0235185
0.0215235
0.0201161
0.019063
0.0181281
0.0172622
0.016508
0.0158816
0.015356
0.0148997
0.0144962
0.01414
0.013827
0.013552
0.0133097
0.013096
0.0129081
0.0127434
0.0126002
0.0124767
0.0123717
0.0122839
0.0122126
0.0121571
0.0121168
0.0120914
0.0120807
0.0120847
0.0121034
0.0121373
0.0121867
0.0122526
0.0123362
0.0124391
0.0125635
0.0127127
0.0128908
0.0131032
0.0133571
0.0136613
0.0140268
0.0144661
0.0149928
0.0156192
0.0163537
0.0171946
0.0181236
0.0286387
0.0275484
0.0256106
0.0233862
0.0214782
0.0200863
0.0190407
0.0181267
0.0172808
0.0165349
0.0159086
0.0153823
0.0149262
0.0145229
0.014166
0.0138517
0.0135751
0.0133313
0.013116
0.0129264
0.01276
0.012615
0.0124897
0.0123828
0.0122931
0.0122198
0.0121622
0.0121198
0.0120923
0.0120793
0.012081
0.0120973
0.0121286
0.0121755
0.0122387
0.0123195
0.0124194
0.0125408
0.0126866
0.0128607
0.0130683
0.0133158
0.0136111
0.0139638
0.014384
0.0148824
0.0154673
0.0161419
0.0168993
0.0177164
0.0279965
0.0270246
0.0252812
0.0232346
0.0214189
0.0200501
0.0190132
0.0181186
0.0172931
0.0165575
0.0159329
0.0154062
0.0149506
0.0145478
0.0141906
0.0138752
0.0135972
0.0133519
0.0131351
0.0129439
0.0127758
0.012629
0.0125019
0.0123931
0.0123014
0.0122261
0.0121664
0.0121218
0.0120919
0.0120766
0.0120758
0.0120895
0.0121182
0.0121622
0.0122225
0.0123001
0.0123968
0.0125145
0.0126562
0.0128255
0.0130271
0.0132668
0.0135515
0.0138892
0.014288
0.0147556
0.0152966
0.0159102
0.016585
0.0172947
0.0273814
0.0265139
0.0249448
0.0230655
0.0213453
0.0200067
0.0189805
0.0181041
0.017299
0.0165754
0.0159541
0.0154277
0.0149727
0.0145706
0.0142134
0.0138972
0.013618
0.0133714
0.0131532
0.0129604
0.0127907
0.0126421
0.0125131
0.0124024
0.0123087
0.0122313
0.0121694
0.0121225
0.0120903
0.0120725
0.012069
0.01208
0.0121058
0.0121468
0.0122038
0.012278
0.0123709
0.0124844
0.0126213
0.0127849
0.0129794
0.0132099
0.0134823
0.013803
0.0141782
0.0146129
0.0151085
0.0156607
0.0162548
0.0168624
0.0267914
0.0260163
0.0246033
0.0228804
0.0212574
0.0199553
0.0189424
0.0180833
0.0172985
0.0165882
0.0159719
0.0154466
0.0149924
0.0145913
0.0142345
0.0139178
0.0136376
0.0133896
0.0131701
0.0129758
0.0128045
0.0126542
0.0125233
0.0124106
0.0123149
0.0122354
0.0121712
0.012122
0.0120873
0.0120668
0.0120606
0.0120687
0.0120913
0.012129
0.0121825
0.0122529
0.0123415
0.0124503
0.0125816
0.0127386
0.0129249
0.013145
0.0134034
0.0137054
0.0140552
0.0144553
0.0149044
0.0153956
0.0159116
0.0164231
0.0262251
0.0255317
0.0242587
0.0226811
0.0211554
0.0198953
0.0188987
0.0180564
0.0172914
0.0165958
0.0159859
0.0154626
0.0150095
0.0146097
0.0142535
0.0139366
0.0136556
0.0134066
0.0131857
0.01299
0.0128171
0.0126651
0.0125324
0.0124177
0.0123199
0.0122382
0.0121717
0.01212
0.0120827
0.0120595
0.0120504
0.0120553
0.0120746
0.0121088
0.0121584
0.0122245
0.0123085
0.0124119
0.012537
0.0126865
0.0128636
0.0130718
0.0133149
0.0135966
0.0139193
0.0142837
0.0146861
0.0151172
0.0155583
0.01598
0.025681
0.0250599
0.0239124
0.0224694
0.0210399
0.0198263
0.0188491
0.0180236
0.0172779
0.0165977
0.0159958
0.0154754
0.0150239
0.0146256
0.0142704
0.0139536
0.013672
0.013422
0.0132
0.013003
0.0128285
0.0126748
0.0125402
0.0124236
0.0123237
0.0122396
0.0121708
0.0121165
0.0120765
0.0120504
0.0120382
0.0120398
0.0120556
0.0120859
0.0121314
0.0121929
0.0122716
0.0123691
0.0124873
0.0126284
0.0127952
0.0129904
0.0132168
0.0134769
0.0137714
0.0140993
0.014455
0.0148276
0.0151975
0.0155362
0.0251575
0.0246007
0.0235658
0.0222469
0.0209113
0.0197477
0.0187932
0.0179849
0.0172581
0.0165938
0.0160012
0.0154848
0.0150355
0.0146389
0.0142849
0.0139686
0.0136866
0.0134358
0.0132127
0.0130144
0.0128385
0.0126831
0.0125467
0.012428
0.012326
0.0122396
0.0121683
0.0121114
0.0120685
0.0120394
0.0120239
0.0120221
0.0120341
0.0120603
0.0121012
0.0121577
0.0122307
0.0123217
0.0124322
0.0125641
0.0127196
0.0129008
0.0131094
0.0133467
0.0136122
0.0139032
0.0142128
0.014529
0.014832
0.0150944
0.0246536
0.0241539
0.0232198
0.0220152
0.0207705
0.0196595
0.0187307
0.0179404
0.0172321
0.0165841
0.0160019
0.0154906
0.0150439
0.0146493
0.0142969
0.0139813
0.0136993
0.0134478
0.0132238
0.0130243
0.012847
0.0126899
0.0125517
0.012431
0.0123267
0.012238
0.0121641
0.0121045
0.0120587
0.0120264
0.0120075
0.012002
0.01201
0.0120318
0.0120678
0.0121188
0.0121857
0.0122695
0.0123717
0.0124936
0.0126369
0.012803
0.0129929
0.0132066
0.0134425
0.0136968
0.0139613
0.0142236
0.0144641
0.014657
0.024168
0.023719
0.0228755
0.0217758
0.0206184
0.0195616
0.0186613
0.0178899
0.0171999
0.0165684
0.0159976
0.0154925
0.0150491
0.0146568
0.0143062
0.0139916
0.0137098
0.0134579
0.0132331
0.0130325
0.0128538
0.0126952
0.0125551
0.0124324
0.0123259
0.0122347
0.0121582
0.0120957
0.0120469
0.0120113
0.0119888
0.0119793
0.0119831
0.0120001
0.012031
0.0120761
0.0121364
0.0122125
0.0123056
0.0124168
0.0125471
0.0126973
0.0128676
0.0130571
0.0132633
0.0134811
0.013702
0.0139133
0.0140959
0.0142261
0.0236995
0.0232958
0.0225335
0.0215299
0.0204557
0.0194541
0.0185847
0.0178335
0.0171616
0.0165467
0.015988
0.0154902
0.0150508
0.0146612
0.0143127
0.0139994
0.013718
0.013466
0.0132404
0.0130388
0.0128588
0.0126986
0.0125568
0.012432
0.0123233
0.0122296
0.0121504
0.012085
0.0120329
0.0119939
0.0119676
0.011954
0.0119532
0.0119653
0.0119906
0.0120295
0.0120826
0.0121505
0.012234
0.0123338
0.0124504
0.012584
0.0127341
0.012899
0.0130755
0.0132577
0.0134368
0.0136
0.0137295
0.0138035
0.0232473
0.0228838
0.0221946
0.0212789
0.0202836
0.0193372
0.0185008
0.0177709
0.0171173
0.016519
0.0159732
0.0154834
0.0150487
0.0146623
0.0143161
0.0140044
0.0137238
0.0134717
0.0132457
0.0130432
0.0128619
0.0127002
0.0125566
0.0124298
0.0123187
0.0122226
0.0121406
0.0120721
0.0120167
0.011974
0.0119438
0.0119259
0.0119204
0.0119272
0.0119465
0.0119788
0.0120243
0.0120834
0.0121567
0.0122445
0.0123468
0.0124633
0.0125928
0.012733
0.0128801
0.0130278
0.013167
0.0132855
0.0133665
0.0133906
0.0228103
0.0224828
0.0218592
0.0210238
0.0201029
0.0192112
0.0184093
0.0177021
0.017067
0.0164853
0.0159528
0.0154719
0.0150427
0.0146599
0.0143163
0.0140065
0.0137269
0.013475
0.0132486
0.0130453
0.012863
0.0126998
0.0125544
0.0124255
0.0123122
0.0122134
0.0121286
0.012057
0.0119981
0.0119517
0.0119174
0.0118949
0.0118843
0.0118855
0.0118987
0.0119239
0.0119614
0.0120113
0.0120739
0.0121491
0.0122366
0.0123355
0.0124442
0.01256
0.0126782
0.0127927
0.0128943
0.0129714
0.0130086
0.0129887
0.0223877
0.0220924
0.0215278
0.0207656
0.0199146
0.0190766
0.0183104
0.0176269
0.0170107
0.0164457
0.0159268
0.0154556
0.0150326
0.0146538
0.0143132
0.0140055
0.0137271
0.0134758
0.0132492
0.0130452
0.0128618
0.0126972
0.0125501
0.0124192
0.0123035
0.0122021
0.0121143
0.0120395
0.0119771
0.0119267
0.0118881
0.0118609
0.011845
0.0118404
0.011847
0.0118648
0.0118938
0.0119341
0.0119856
0.0120478
0.0121201
0.0122013
0.0122891
0.0123806
0.0124709
0.0125537
0.01262
0.0126591
0.0126571
0.0125986
0.0219786
0.0217121
0.0212006
0.0205053
0.0197197
0.0189339
0.018204
0.0175453
0.0169484
0.0164001
0.0158951
0.0154342
0.0150181
0.0146439
0.0143066
0.0140012
0.0137244
0.0134737
0.0132471
0.0130426
0.0128582
0.0126923
0.0125435
0.0124105
0.0122925
0.0121884
0.0120976
0.0120195
0.0119534
0.011899
0.0118558
0.0118237
0.0118023
0.0117916
0.0117913
0.0118014
0.0118217
0.0118519
0.0118919
0.0119408
0.0119976
0.0120609
0.0121281
0.0121958
0.0122592
0.0123119
0.0123455
0.01235
0.0123129
0.0122211
0.0215824
0.0213416
0.0208779
0.0202435
0.0195189
0.0187837
0.0180903
0.0174573
0.0168801
0.0163486
0.0158577
0.0154076
0.014999
0.01463
0.0142963
0.0139935
0.0137185
0.0134687
0.0132423
0.0130374
0.0128522
0.012685
0.0125344
0.0123995
0.012279
0.0121722
0.0120784
0.0119968
0.0119269
0.0118683
0.0118205
0.0117832
0.0117562
0.011739
0.0117316
0.0117337
0.0117449
0.0117648
0.0117929
0.0118282
0.0118696
0.011915
0.0119618
0.0120065
0.0120441
0.0120685
0.0120719
0.012045
0.011977
0.0118565
0.0211983
0.0209805
0.02056
0.019981
0.0193132
0.0186264
0.0179696
0.0173628
0.0168058
0.0162913
0.0158147
0.0153758
0.0149752
0.0146118
0.0142821
0.0139823
0.0137092
0.0134606
0.0132346
0.0130294
0.0128434
0.012675
0.0125228
0.0123858
0.012263
0.0121535
0.0120565
0.0119714
0.0118976
0.0118347
0.0117821
0.0117395
0.0117065
0.0116827
0.0116679
0.0116617
0.0116635
0.0116729
0.0116889
0.0117106
0.0117363
0.0117641
0.011791
0.0118134
0.0118266
0.0118246
0.0118003
0.0117453
0.0116501
0.0115051
0.0208257
0.0206286
0.0202468
0.0197184
0.0191033
0.0184628
0.017842
0.0172619
0.0167255
0.0162281
0.0157659
0.0153385
0.0149466
0.0145892
0.0142639
0.0139673
0.0136965
0.0134492
0.0132238
0.0130185
0.0128318
0.0126622
0.0125085
0.0123695
0.0122443
0.012132
0.0120318
0.0119431
0.0118654
0.0117979
0.0117404
0.0116923
0.0116531
0.0116226
0.0116002
0.0115854
0.0115777
0.0115762
0.0115801
0.011588
0.0115983
0.0116087
0.0116164
0.0116175
0.0116077
0.0115812
0.0115316
0.0114515
0.0113326
0.0111671
0.0204639
0.0202854
0.0199386
0.0194562
0.0188898
0.0182934
0.017708
0.0171548
0.0166393
0.0161591
0.0157114
0.0152959
0.0149129
0.0145621
0.0142416
0.0139484
0.0136801
0.0134344
0.0132097
0.0130045
0.0128172
0.0126466
0.0124913
0.0123504
0.0122227
0.0121076
0.0120042
0.0119119
0.01183
0.011758
0.0116954
0.0116416
0.0115962
0.0115586
0.0115284
0.011505
0.0114875
0.0114751
0.0114668
0.0114611
0.0114561
0.0114496
0.0114386
0.0114196
0.0113881
0.0113392
0.0112667
0.0111643
0.0110251
0.0108423
0.0201124
0.0199505
0.0196354
0.0191949
0.0186736
0.0181189
0.0175678
0.0170415
0.0165472
0.0160843
0.0156513
0.0152477
0.0148741
0.0145303
0.0142149