/*--------------------------------*- C++ -*----------------------------------*\
  =========                 |
  \\      /  F ield         | OpenFOAM: The Open Source CFD Toolbox
   \\    /   O peration     | Website:  https://openfoam.org
    \\  /    A nd           | Version:  7
     \\/     M anipulation  |
\*---------------------------------------------------------------------------*/
FoamFile
{
    version     2.0;
    format      ascii;
    class       surfaceScalarField;
    location    "0.48";
    object      phi;
}
// * * * * * * * * * * * * * * * * * * * * * * * * * * * * * * * * * * * * * //

dimensions      [0 3 -1 0 0 0 0];

internalField   nonuniform List<scalar> 
139350
(
6.45113e-08
9.21202e-08
3.19622e-08
3.25491e-08
2.30545e-08
8.90773e-09
1.95667e-08
3.48777e-09
1.76114e-08
1.95536e-09
1.61773e-08
1.43405e-09
1.50402e-08
1.13713e-09
1.41233e-08
9.16869e-10
1.3368e-08
7.55284e-10
1.2731e-08
6.37031e-10
1.21834e-08
5.47578e-10
1.1706e-08
4.77459e-10
1.12849e-08
4.21073e-10
1.091e-08
3.74895e-10
1.05735e-08
3.36517e-10
1.02693e-08
3.04219e-10
9.99254e-09
2.76735e-10
9.73941e-09
2.53124e-10
9.50675e-09
2.3267e-10
9.29193e-09
2.1482e-10
9.09278e-09
1.99143e-10
8.90749e-09
1.85297e-10
8.73448e-09
1.73006e-10
8.57243e-09
1.62048e-10
8.42019e-09
1.52238e-10
8.27677e-09
1.43426e-10
8.14128e-09
1.35482e-10
8.01298e-09
1.28306e-10
7.89118e-09
1.21801e-10
7.77528e-09
1.15901e-10
7.66475e-09
1.10521e-10
7.55912e-09
1.05639e-10
7.45798e-09
1.0114e-10
7.36091e-09
9.70698e-11
7.26768e-09
9.32236e-11
7.17792e-09
8.97625e-11
7.09161e-09
8.6307e-11
7.00846e-09
8.31523e-11
6.92875e-09
7.97142e-11
6.85254e-09
7.62102e-11
6.78032e-09
7.22178e-11
6.71357e-09
6.67456e-11
6.65233e-09
6.12434e-11
6.60254e-09
4.97859e-11
6.56126e-09
4.12873e-11
6.54845e-09
1.28042e-11
6.54473e-09
3.72303e-12
6.63506e-09
-9.03352e-11
6.55514e-09
7.99256e-11
-3.14384e-09
9.69898e-09
1.25942e-07
1.27622e-07
9.12851e-08
6.72059e-08
7.19267e-08
2.82662e-08
6.1204e-08
1.42105e-08
5.47592e-08
8.40013e-09
5.02547e-08
5.93855e-09
4.67596e-08
4.63222e-09
4.39348e-08
3.74164e-09
4.15997e-08
3.09044e-09
3.96287e-08
2.60804e-09
3.79346e-08
2.24162e-09
3.64575e-08
1.95456e-09
3.51547e-08
1.72387e-09
3.39947e-08
1.53496e-09
3.29533e-08
1.3779e-09
3.20118e-08
1.24567e-09
3.11555e-08
1.13309e-09
3.03723e-08
1.03632e-09
2.96525e-08
9.52442e-10
2.89881e-08
8.79201e-10
2.83724e-08
8.1483e-10
2.77998e-08
7.57931e-10
2.72654e-08
7.07376e-10
2.67652e-08
6.62251e-10
2.62957e-08
6.21802e-10
2.58537e-08
5.85414e-10
2.54366e-08
5.52566e-10
2.50421e-08
5.22832e-10
2.4668e-08
4.95839e-10
2.43127e-08
4.71293e-10
2.39743e-08
4.48901e-10
2.36514e-08
4.28495e-10
2.33428e-08
4.09757e-10
2.30472e-08
3.92695e-10
2.27636e-08
3.7679e-10
2.2491e-08
3.62387e-10
2.22289e-08
3.48419e-10
2.19761e-08
3.35877e-10
2.17333e-08
3.22533e-10
2.14992e-08
3.10376e-10
2.1276e-08
2.95386e-10
2.10627e-08
2.79998e-10
2.08649e-08
2.59048e-10
2.06839e-08
2.30826e-10
2.05294e-08
1.95808e-10
2.04155e-08
1.26705e-10
2.0348e-08
7.12375e-11
2.04199e-08
-1.62287e-10
2.04447e-08
5.50975e-11
-3.96034e-09
2.12612e-08
1.58752e-07
1.35274e-07
1.36523e-07
8.94348e-08
1.17482e-07
4.73064e-08
1.03296e-07
2.83968e-08
9.32914e-08
1.84048e-08
8.59793e-08
1.32507e-08
8.02588e-08
1.03527e-08
7.55939e-08
8.40659e-09
7.17021e-08
6.98225e-09
6.83957e-08
5.91437e-09
6.55415e-08
5.09588e-09
6.30445e-08
4.4515e-09
6.08364e-08
3.93205e-09
5.88658e-08
3.50551e-09
5.70937e-08
3.15005e-09
5.54892e-08
2.85013e-09
5.4028e-08
2.59432e-09
5.26902e-08
2.37407e-09
5.14598e-08
2.18287e-09
5.03233e-08
2.01569e-09
4.92696e-08
1.86855e-09
4.82892e-08
1.73833e-09
4.73741e-08
1.62247e-09
4.65174e-08
1.51891e-09
4.57133e-08
1.42596e-09
4.49565e-08
1.34221e-09
4.42426e-08
1.26649e-09
4.35676e-08
1.19783e-09
4.2928e-08
1.1354e-09
4.23208e-08
1.0785e-09
4.17432e-08
1.02652e-09
4.11927e-08
9.78993e-10
4.06671e-08
9.3535e-10
4.01644e-08
8.95418e-10
3.96828e-08
8.58343e-10
3.92206e-08
8.24571e-10
3.87769e-08
7.92207e-10
3.83495e-08
7.63191e-10
3.79392e-08
7.32852e-10
3.75432e-08
7.06424e-10
3.71652e-08
6.73314e-10
3.68009e-08
6.44305e-10
3.6461e-08
5.99008e-10
3.6139e-08
5.52773e-10
3.5858e-08
4.76864e-10
3.56165e-08
3.68153e-10
3.5453e-08
2.34754e-10
3.54138e-08
-1.23069e-10
3.55398e-08
-7.0956e-11
-3.86983e-09
3.54493e-08
1.75611e-07
1.31179e-07
1.6562e-07
9.94252e-08
1.52726e-07
6.02008e-08
1.40107e-07
4.10155e-08
1.29415e-07
2.90971e-08
1.20762e-07
2.19036e-08
1.13634e-07
1.74803e-08
1.07637e-07
1.44038e-08
1.0252e-07
1.20994e-08
9.81005e-08
1.0334e-08
9.42385e-08
8.95784e-09
9.08286e-08
7.86142e-09
8.77909e-08
6.96978e-09
8.50639e-08
6.23249e-09
8.25994e-08
5.61452e-09
8.0359e-08
5.09055e-09
7.83115e-08
4.64177e-09
7.64316e-08
4.254e-09
7.46982e-08
3.91631e-09
7.30937e-08
3.6202e-09
7.16033e-08
3.35894e-09
7.02144e-08
3.12717e-09
6.89164e-08
2.92051e-09
6.76999e-08
2.73542e-09
6.65569e-08
2.56895e-09
6.54804e-08
2.41866e-09
6.44644e-08
2.28252e-09
6.35034e-08
2.15882e-09
6.25927e-08
2.04612e-09
6.1728e-08
1.94317e-09
6.09056e-08
1.84894e-09
6.0122e-08
1.76255e-09
5.93743e-08
1.6831e-09
5.86596e-08
1.61012e-09
5.79755e-08
1.5424e-09
5.73197e-08
1.4804e-09
5.66906e-08
1.4213e-09
5.60857e-08
1.36812e-09
5.55052e-08
1.31329e-09
5.49456e-08
1.26607e-09
5.44111e-08
1.20781e-09
5.38954e-08
1.15995e-09
5.34113e-08
1.08313e-09
5.2949e-08
1.01508e-09
5.25361e-08
8.89712e-10
5.21647e-08
7.39579e-10
5.18895e-08
5.09972e-10
5.17207e-08
4.57717e-11
5.18281e-08
-1.78381e-10
-3.63894e-09
5.15972e-08
1.8451e-07
1.23454e-07
1.82339e-07
1.01596e-07
1.76114e-07
6.64251e-08
1.67749e-07
4.93811e-08
1.59118e-07
3.7728e-08
1.51198e-07
2.98234e-08
1.44109e-07
2.45692e-08
1.37791e-07
2.07218e-08
1.32172e-07
1.77189e-08
1.27166e-07
1.53392e-08
1.2269e-07
1.34345e-08
1.18665e-07
1.1886e-08
1.15028e-07
1.06069e-08
1.11725e-07
9.53575e-09
1.08711e-07
8.62861e-09
1.05949e-07
7.85275e-09
1.03407e-07
7.18333e-09
1.0106e-07
6.60123e-09
9.88845e-08
6.09152e-09
9.68623e-08
5.64241e-09
9.49768e-08
5.24447e-09
9.32139e-08
4.89007e-09
9.15614e-08
4.57299e-09
9.00088e-08
4.28807e-09
8.85467e-08
4.03105e-09
8.7167e-08
3.79836e-09
8.58625e-08
3.58702e-09
8.46268e-08
3.39448e-09
8.34543e-08
3.21862e-09
8.23399e-08
3.05757e-09
8.12791e-08
2.9098e-09
8.02677e-08
2.77393e-09
7.93021e-08
2.64872e-09
7.83789e-08
2.53332e-09
7.74951e-08
2.42611e-09
7.6648e-08
2.32754e-09
7.58355e-08
2.2338e-09
7.50547e-08
2.14897e-09
7.43054e-08
2.06255e-09
7.35837e-08
1.98773e-09
7.28936e-08
1.89795e-09
7.22286e-08
1.82489e-09
7.16007e-08
1.71107e-09
7.1001e-08
1.61478e-09
7.04552e-08
1.43553e-09
6.99575e-08
1.23731e-09
6.95618e-08
9.056e-10
6.92771e-08
3.30509e-10
6.92706e-08
-1.71903e-10
-3.47114e-09
6.91028e-08
1.90342e-07
1.15329e-07
1.91858e-07
1.00081e-07
1.90258e-07
6.80248e-08
1.86147e-07
5.34924e-08
1.80698e-07
4.31763e-08
1.74934e-07
3.55879e-08
1.69221e-07
3.02816e-08
1.63719e-07
2.62243e-08
1.58524e-07
2.29141e-08
1.53678e-07
2.01847e-08
1.49185e-07
1.79275e-08
1.45028e-07
1.60429e-08
1.41184e-07
1.44516e-08
1.37625e-07
1.30947e-08
1.34326e-07
1.19278e-08
1.31262e-07
1.09167e-08
1.2841e-07
1.00347e-08
1.25751e-07
9.26035e-09
1.23266e-07
8.57664e-09
1.20939e-07
7.96979e-09
1.18755e-07
7.42861e-09
1.16701e-07
6.94385e-09
1.14766e-07
6.50788e-09
1.1294e-07
6.11428e-09
1.11213e-07
5.7577e-09
1.09578e-07
5.43359e-09
1.08027e-07
5.13812e-09
1.06553e-07
4.86798e-09
1.05151e-07
4.62044e-09
1.03816e-07
4.39301e-09
1.02542e-07
4.1837e-09
1.01325e-07
3.99065e-09
1.00162e-07
3.81224e-09
9.90478e-08
3.64727e-09
9.79802e-08
3.49371e-09
9.69558e-08
3.35193e-09
9.59724e-08
3.21724e-09
9.50268e-08
3.09456e-09
9.41185e-08
2.97082e-09
9.32438e-08
2.8624e-09
9.24056e-08
2.73619e-09
9.15989e-08
2.63163e-09
9.08326e-08
2.47731e-09
9.01021e-08
2.34531e-09
8.94264e-08
2.11125e-09
8.88089e-08
1.85472e-09
8.82889e-08
1.42568e-09
8.79001e-08
7.19257e-10
8.7758e-08
-2.98178e-11
-3.32554e-09
8.76124e-08
1.95504e-07
1.0764e-07
1.98246e-07
9.73391e-08
1.98982e-07
6.72885e-08
1.97783e-07
5.4691e-08
1.95142e-07
4.5818e-08
1.91791e-07
3.89382e-08
1.88046e-07
3.40274e-08
1.84077e-07
3.01925e-08
1.80038e-07
2.69538e-08
1.76037e-07
2.41856e-08
1.72143e-07
2.18213e-08
1.68395e-07
1.97909e-08
1.64813e-07
1.80334e-08
1.61406e-07
1.65019e-08
1.58174e-07
1.51599e-08
1.55113e-07
1.39777e-08
1.52216e-07
1.29315e-08
1.49475e-07
1.20014e-08
1.46881e-07
1.11709e-08
1.44424e-07
1.04265e-08
1.42096e-07
9.7568e-09
1.39887e-07
9.1522e-09
1.37791e-07
8.60458e-09
1.35798e-07
8.10701e-09
1.33902e-07
7.6536e-09
1.32096e-07
7.23927e-09
1.30375e-07
6.85967e-09
1.28732e-07
6.51102e-09
1.27162e-07
6.19015e-09
1.25661e-07
5.89414e-09
1.24224e-07
5.62068e-09
1.22847e-07
5.3675e-09
1.21527e-07
5.13273e-09
1.20259e-07
4.91484e-09
1.19041e-07
4.71147e-09
1.1787e-07
4.52293e-09
1.16744e-07
4.34377e-09
1.15659e-07
4.1795e-09
1.14615e-07
4.01511e-09
1.13608e-07
3.86905e-09
1.1264e-07
3.70368e-09
1.11709e-07
3.5628e-09
1.1082e-07
3.36674e-09
1.09973e-07
3.19243e-09
1.09178e-07
2.90549e-09
1.08452e-07
2.58073e-09
1.07815e-07
2.06307e-09
1.07324e-07
1.21006e-09
1.07064e-07
2.30886e-10
-3.14318e-09
1.06881e-07
2.00819e-07
1.00405e-07
2.0377e-07
9.43878e-08
2.05342e-07
6.57169e-08
2.05639e-07
5.43933e-08
2.04803e-07
4.66541e-08
2.03315e-07
4.0426e-08
2.01356e-07
3.59867e-08
1.9901e-07
3.25382e-08
1.96386e-07
2.95787e-08
1.93584e-07
2.69867e-08
1.90688e-07
2.4718e-08
1.87756e-07
2.27227e-08
1.84833e-07
2.09559e-08
1.81952e-07
1.93831e-08
1.79135e-07
1.79775e-08
1.76395e-07
1.67172e-08
1.73743e-07
1.55837e-08
1.71183e-07
1.45612e-08
1.68718e-07
1.36363e-08
1.66347e-07
1.27974e-08
1.64069e-07
1.20345e-08
1.61882e-07
1.13392e-08
1.59783e-07
1.07038e-08
1.57768e-07
1.01218e-08
1.55834e-07
9.58764e-09
1.53977e-07
9.09619e-09
1.52194e-07
8.64314e-09
1.5048e-07
8.22461e-09
1.48833e-07
7.83736e-09
1.47249e-07
7.47829e-09
1.45724e-07
7.145e-09
1.44257e-07
6.83503e-09
1.42843e-07
6.54638e-09
1.41481e-07
6.27736e-09
1.40167e-07
6.0254e-09
1.38899e-07
5.79077e-09
1.37675e-07
5.56752e-09
1.36493e-07
5.36146e-09
1.35352e-07
5.15637e-09
1.34249e-07
4.97162e-09
1.33186e-07
4.76721e-09
1.32161e-07
4.58779e-09
1.31176e-07
4.35129e-09
1.30238e-07
4.13076e-09
1.29349e-07
3.79464e-09
1.28533e-07
3.39643e-09
1.27799e-07
2.79733e-09
1.27212e-07
1.79714e-09
1.2685e-07
5.92465e-10
-2.90696e-09
1.26614e-07
2.06422e-07
9.35153e-08
2.0933e-07
9.14802e-08
2.11053e-07
6.39939e-08
2.1193e-07
5.35159e-08
2.11989e-07
4.65958e-08
2.11597e-07
4.0818e-08
2.10858e-07
3.67258e-08
2.09774e-07
3.36218e-08
2.08385e-07
3.0968e-08
2.06748e-07
2.86234e-08
2.0492e-07
2.65462e-08
2.02949e-07
2.46933e-08
2.00879e-07
2.30264e-08
1.98744e-07
2.15175e-08
1.96575e-07
2.01465e-08
1.94395e-07
1.88973e-08
1.92223e-07
1.77564e-08
1.90072e-07
1.67124e-08
1.87953e-07
1.57552e-08
1.85874e-07
1.48762e-08
1.83841e-07
1.40677e-08
1.81857e-07
1.33228e-08
1.79925e-07
1.26355e-08
1.78047e-07
1.20003e-08
1.76222e-07
1.14123e-08
1.74451e-07
1.08672e-08
1.72733e-07
1.0361e-08
1.71068e-07
9.89019e-09
1.69453e-07
9.45182e-09
1.67888e-07
9.04295e-09
1.66372e-07
8.6613e-09
1.64903e-07
8.30448e-09
1.63479e-07
7.97055e-09
1.62098e-07
7.65783e-09
1.6076e-07
7.36371e-09
1.59462e-07
7.08848e-09
1.58204e-07
6.82595e-09
1.56983e-07
6.58208e-09
1.55799e-07
6.34005e-09
1.54652e-07
6.11921e-09
1.5354e-07
5.87915e-09
1.52465e-07
5.66238e-09
1.51427e-07
5.38932e-09
1.50435e-07
5.12267e-09
1.49488e-07
4.74222e-09
1.48612e-07
4.27181e-09
1.47812e-07
3.59776e-09
1.4715e-07
2.459e-09
1.467e-07
1.04231e-09
-2.61551e-09
1.46409e-07
2.12268e-07
8.69092e-08
2.15139e-07
8.86101e-08
2.16808e-07
6.23249e-08
2.17845e-07
5.24787e-08
2.18249e-07
4.61919e-08
2.18359e-07
4.07071e-08
2.18275e-07
3.681e-08
2.17964e-07
3.39327e-08
2.1742e-07
3.1512e-08
2.16662e-07
2.93817e-08
2.15713e-07
2.74948e-08
2.14599e-07
2.58073e-08
2.13346e-07
2.42798e-08
2.11978e-07
2.28852e-08
2.1052e-07
2.16047e-08
2.08992e-07
2.04249e-08
2.07414e-07
1.93347e-08
2.05801e-07
1.83253e-08
2.04167e-07
1.73892e-08
2.02523e-07
1.65199e-08
2.0088e-07
1.57116e-08
1.99243e-07
1.49594e-08
1.9762e-07
1.42586e-08
1.96015e-07
1.36049e-08
1.94433e-07
1.29947e-08
1.92876e-07
1.24243e-08
1.91346e-07
1.18906e-08
1.89846e-07
1.13907e-08
1.88375e-07
1.09221e-08
1.86936e-07
1.04821e-08
1.85528e-07
1.0069e-08
1.84152e-07
9.68045e-09
1.82808e-07
9.31484e-09
1.81495e-07
8.97065e-09
1.80214e-07
8.64535e-09
1.78963e-07
8.33939e-09
1.77742e-07
8.04652e-09
1.76552e-07
7.77273e-09
1.7539e-07
7.5012e-09
1.74259e-07
7.25047e-09
1.73157e-07
6.98134e-09
1.72087e-07
6.73198e-09
1.71048e-07
6.42866e-09
1.70051e-07
6.12024e-09
1.69091e-07
5.70195e-09
1.68197e-07
5.1655e-09
1.67369e-07
4.42629e-09
1.66666e-07
3.16162e-09
1.6615e-07
1.55832e-09
-2.25785e-09
1.65792e-07
2.18314e-07
8.05756e-08
2.21188e-07
8.57366e-08
2.2278e-07
6.07325e-08
2.23845e-07
5.14133e-08
2.24358e-07
4.56796e-08
2.24646e-07
4.04186e-08
2.24839e-07
3.66174e-08
2.24907e-07
3.38647e-08
2.2483e-07
3.15891e-08
2.24608e-07
2.96037e-08
2.24245e-07
2.78574e-08
2.23748e-07
2.63042e-08
2.23126e-07
2.49023e-08
2.22389e-07
2.36218e-08
2.21551e-07
2.24431e-08
2.20624e-07
2.13519e-08
2.19621e-07
2.03376e-08
2.18555e-07
1.93919e-08
2.17436e-07
1.8508e-08
2.16275e-07
1.76807e-08
2.15082e-07
1.69051e-08
2.13864e-07
1.61774e-08
2.12628e-07
1.54939e-08
2.11382e-07
1.48514e-08
2.10129e-07
1.4247e-08
2.08876e-07
1.36779e-08
2.07625e-07
1.31416e-08
2.0638e-07
1.26358e-08
2.05143e-07
1.21586e-08
2.03918e-07
1.17077e-08
2.02705e-07
1.12817e-08
2.01507e-07
1.08787e-08
2.00324e-07
1.04974e-08
1.99158e-07
1.01365e-08
1.9801e-07
9.79361e-09
1.9688e-07
9.46949e-09
1.95769e-07
9.1579e-09
1.94677e-07
8.86482e-09
1.93604e-07
8.57385e-09
1.92552e-07
8.30218e-09
1.91521e-07
8.01295e-09
1.90514e-07
7.7387e-09
1.89529e-07
7.41344e-09
1.88578e-07
7.07079e-09
1.87657e-07
6.62346e-09
1.86792e-07
6.03026e-09
1.85979e-07
5.23903e-09
1.85273e-07
3.86804e-09
1.84727e-07
2.10481e-09
-1.82324e-09
1.84292e-07
2.24548e-07
7.45209e-08
2.27448e-07
8.28369e-08
2.28976e-07
5.92043e-08
2.30048e-07
5.03409e-08
2.30601e-07
4.51269e-08
2.30938e-07
4.00816e-08
2.3122e-07
3.63351e-08
2.31437e-07
3.36483e-08
2.31569e-07
3.14571e-08
2.31615e-07
2.95576e-08
2.31574e-07
2.7898e-08
2.31445e-07
2.64334e-08
2.31227e-07
2.51205e-08
2.30921e-07
2.39274e-08
2.30532e-07
2.28324e-08
2.30063e-07
2.18201e-08
2.29522e-07
2.08789e-08
2.28914e-07
1.99998e-08
2.28246e-07
1.9176e-08
2.27525e-07
1.84019e-08
2.26757e-07
1.76731e-08
2.25949e-07
1.69859e-08
2.25105e-07
1.63371e-08
2.24233e-07
1.57239e-08
2.23336e-07
1.51439e-08
2.22419e-07
1.45946e-08
2.21487e-07
1.40742e-08
2.20542e-07
1.35807e-08
2.19588e-07
1.31124e-08
2.18628e-07
1.26676e-08
2.17665e-07
1.22451e-08
2.167e-07
1.18434e-08
2.15736e-07
1.14614e-08
2.14775e-07
1.1098e-08
2.13817e-07
1.0751e-08
2.12865e-07
1.04215e-08
2.1192e-07
1.01033e-08
2.10982e-07
9.80228e-09
2.10053e-07
9.50279e-09
2.09135e-07
9.22022e-09
2.08227e-07
8.92087e-09
2.07335e-07
8.63091e-09
2.06455e-07
8.29319e-09
2.05601e-07
7.92556e-09
2.04765e-07
7.45948e-09
2.03973e-07
6.82164e-09
2.03221e-07
5.99145e-09
2.02546e-07
4.54324e-09
2.02005e-07
2.6455e-09
-1.32056e-09
2.01502e-07
2.30974e-07
6.8753e-08
2.33908e-07
7.99022e-08
2.3538e-07
5.77331e-08
2.3646e-07
4.92604e-08
2.37046e-07
4.45414e-08
2.37397e-07
3.97299e-08
2.37701e-07
3.60313e-08
2.37963e-07
3.3386e-08
2.38171e-07
3.12494e-08
2.38327e-07
2.94021e-08
2.38432e-07
2.77927e-08
2.38485e-07
2.63801e-08
2.38484e-07
2.51219e-08
2.38426e-07
2.39851e-08
2.38311e-07
2.29472e-08
2.3814e-07
2.19918e-08
2.37912e-07
2.11064e-08
2.37631e-07
2.02813e-08
2.37298e-07
1.9509e-08
2.36916e-07
1.87835e-08
2.36489e-07
1.81001e-08
2.3602e-07
1.74548e-08
2.35513e-07
1.68444e-08
2.3497e-07
1.62662e-08
2.34397e-07
1.57178e-08
2.33794e-07
1.51969e-08
2.33167e-07
1.47017e-08
2.32517e-07
1.42305e-08
2.31847e-07
1.37818e-08
2.31161e-07
1.33541e-08
2.3046e-07
1.29462e-08
2.29746e-07
1.2557e-08
2.29022e-07
1.21852e-08
2.2829e-07
1.18304e-08
2.27551e-07
1.14901e-08
2.26807e-07
1.11657e-08
2.26059e-07
1.08511e-08
2.25309e-07
1.0552e-08
2.24558e-07
1.02538e-08
2.23809e-07
9.96958e-09
2.2306e-07
9.66942e-09
2.22318e-07
9.37269e-09
2.2158e-07
9.03169e-09
2.20857e-07
8.64866e-09
2.20143e-07
8.17377e-09
2.19459e-07
7.50569e-09
2.18802e-07
6.64787e-09
2.18189e-07
5.15635e-09
2.17679e-07
3.15556e-09
-7.75609e-10
2.17134e-07
2.376e-07
6.32777e-08
2.40574e-07
7.69284e-08
2.41988e-07
5.63191e-08
2.43076e-07
4.81727e-08
2.43698e-07
4.39196e-08
2.44062e-07
3.93655e-08
2.44371e-07
3.57223e-08
2.44645e-07
3.31115e-08
2.44876e-07
3.10193e-08
2.45068e-07
2.92103e-08
2.45227e-07
2.7633e-08
2.45356e-07
2.62517e-08
2.45452e-07
2.50257e-08
2.45514e-07
2.39226e-08
2.45542e-07
2.29197e-08
2.45533e-07
2.20003e-08
2.45488e-07
2.11517e-08
2.45406e-07
2.03637e-08
2.45287e-07
1.96284e-08
2.45131e-07
1.89393e-08
2.44939e-07
1.82915e-08
2.44713e-07
1.76806e-08
2.44454e-07
1.71034e-08
2.44164e-07
1.65567e-08
2.43844e-07
1.60381e-08
2.43495e-07
1.55454e-08
2.4312e-07
1.50767e-08
2.4272e-07
1.46302e-08
2.42298e-07
1.42044e-08
2.41854e-07
1.37979e-08
2.41391e-07
1.34096e-08
2.4091e-07
1.30382e-08
2.40412e-07
1.26827e-08
2.399e-07
1.23425e-08
2.39375e-07
1.20155e-08
2.38837e-07
1.17028e-08
2.3829e-07
1.13989e-08
2.37733e-07
1.11086e-08
2.37168e-07
1.08187e-08
2.36598e-07
1.05398e-08
2.36021e-07
1.0246e-08
2.35444e-07
9.9498e-09
2.34863e-07
9.61294e-09
2.34289e-07
9.22326e-09
2.33715e-07
8.74761e-09
2.33156e-07
8.06403e-09
2.32615e-07
7.18902e-09
2.32086e-07
5.68567e-09
2.31618e-07
3.62326e-09
-2.12893e-10
2.31055e-07
2.44435e-07
5.80986e-08
2.47448e-07
7.39161e-08
2.48806e-07
5.49605e-08
2.49896e-07
4.70824e-08
2.50557e-07
4.32595e-08
2.50937e-07
3.89849e-08
2.51251e-07
3.5409e-08
2.5153e-07
3.28317e-08
2.51768e-07
3.07818e-08
2.5197e-07
2.9008e-08
2.52146e-07
2.74567e-08
2.523e-07
2.60976e-08
2.52433e-07
2.4893e-08
2.52545e-07
2.38111e-08
2.52635e-07
2.28297e-08
2.52703e-07
2.19323e-08
2.52748e-07
2.11063e-08
2.5277e-07
2.03416e-08
2.52768e-07
1.96301e-08
2.52742e-07
1.89653e-08
2.52692e-07
1.83419e-08
2.52617e-07
1.77554e-08
2.52518e-07
1.72024e-08
2.52395e-07
1.66797e-08
2.52249e-07
1.61847e-08
2.52079e-07
1.5715e-08
2.51887e-07
1.52688e-08
2.51673e-07
1.4844e-08
2.51438e-07
1.44392e-08
2.51183e-07
1.40529e-08
2.50909e-07
1.36838e-08
2.50616e-07
1.33308e-08
2.50306e-07
1.29927e-08
2.4998e-07
1.26691e-08
2.49638e-07
1.23575e-08
2.49281e-07
1.20594e-08
2.48911e-07
1.17691e-08
2.48528e-07
1.14911e-08
2.48134e-07
1.12133e-08
2.4773e-07
1.09438e-08
2.47315e-07
1.06607e-08
2.46895e-07
1.03699e-08
2.46466e-07
1.0042e-08
2.46037e-07
9.65266e-09
2.45602e-07
9.18192e-09
2.45171e-07
8.49572e-09
2.44746e-07
7.61391e-09
2.44307e-07
6.12428e-09
2.43883e-07
4.04714e-09
3.55888e-10
2.43315e-07
2.51488e-07
5.32177e-08
2.54528e-07
7.08756e-08
2.55842e-07
5.36465e-08
2.5693e-07
4.59948e-08
2.57627e-07
4.2562e-08
2.58027e-07
3.85852e-08
2.58346e-07
3.50903e-08
2.5863e-07
3.2547e-08
2.58873e-07
3.05396e-08
2.59079e-07
2.88015e-08
2.5926e-07
2.72755e-08
2.59422e-07
2.59361e-08
2.59566e-07
2.47488e-08
2.59694e-07
2.3683e-08
2.59807e-07
2.27167e-08
2.59905e-07
2.1834e-08
2.59989e-07
2.10227e-08
2.60058e-07
2.02728e-08
2.60112e-07
1.95763e-08
2.6015e-07
1.89268e-08
2.60173e-07
1.8319e-08
2.6018e-07
1.77485e-08
2.6017e-07
1.72117e-08
2.60145e-07
1.67054e-08
2.60103e-07
1.62269e-08
2.60044e-07
1.57739e-08
2.59968e-07
1.53443e-08
2.59876e-07
1.49362e-08
2.59767e-07
1.4548e-08
2.59642e-07
1.41781e-08
2.595e-07
1.38252e-08
2.59343e-07
1.34882e-08
2.5917e-07
1.31656e-08
2.58982e-07
1.28571e-08
2.58779e-07
1.25603e-08
2.58563e-07
1.22763e-08
2.58332e-07
1.19999e-08
2.58088e-07
1.17345e-08
2.57832e-07
1.14697e-08
2.57565e-07
1.12109e-08
2.57285e-07
1.09401e-08
2.56998e-07
1.06573e-08
2.56699e-07
1.03407e-08
2.56395e-07
9.95651e-09
2.56083e-07
9.4942e-09
2.55763e-07
8.81532e-09
2.55441e-07
7.93677e-09
2.55084e-07
6.48086e-09
2.54698e-07
4.43279e-09
9.35008e-10
2.54119e-07
2.58765e-07
4.86353e-08
2.61824e-07
6.78173e-08
2.63104e-07
5.23659e-08
2.64184e-07
4.49151e-08
2.64917e-07
4.18292e-08
2.65337e-07
3.81644e-08
2.65663e-07
3.4765e-08
2.65953e-07
3.22569e-08
2.662e-07
3.02923e-08
2.6641e-07
2.85917e-08
2.66593e-07
2.70918e-08
2.66757e-07
2.57721e-08
2.66905e-07
2.46014e-08
2.67038e-07
2.35501e-08
2.67158e-07
2.25967e-08
2.67266e-07
2.17258e-08
2.67363e-07
2.09256e-08
2.6745e-07
2.01863e-08
2.67526e-07
1.95002e-08
2.67592e-07
1.8861e-08
2.67647e-07
1.82635e-08
2.67692e-07
1.77035e-08
2.67727e-07
1.71773e-08
2.6775e-07
1.66818e-08
2.67763e-07
1.62144e-08
2.67764e-07
1.57728e-08
2.67753e-07
1.53548e-08
2.67731e-07
1.49586e-08
2.67697e-07
1.45824e-08
2.6765e-07
1.42248e-08
2.67591e-07
1.38842e-08
2.6752e-07
1.35596e-08
2.67436e-07
1.32495e-08
2.6734e-07
1.29534e-08
2.67231e-07
1.26689e-08
2.6711e-07
1.2397e-08
2.66977e-07
1.21329e-08
2.66833e-07
1.18789e-08
2.66676e-07
1.16263e-08
2.66509e-07
1.13777e-08
2.66331e-07
1.1119e-08
2.66143e-07
1.08449e-08
2.65944e-07
1.05398e-08
2.65737e-07
1.01638e-08
2.65519e-07
9.71183e-09
2.65287e-07
9.04752e-09
2.65042e-07
8.18137e-09
2.64748e-07
6.77523e-09
2.64386e-07
4.79418e-09
1.53323e-09
2.63788e-07
2.66277e-07
4.43502e-08
2.69343e-07
6.4752e-08
2.706e-07
5.11081e-08
2.71668e-07
4.38475e-08
2.72433e-07
4.10644e-08
2.72876e-07
3.77211e-08
2.73209e-07
3.44326e-08
2.73504e-07
3.19614e-08
2.73757e-07
3.00395e-08
2.73971e-07
2.83781e-08
2.74157e-07
2.69058e-08
2.74322e-07
2.56064e-08
2.74471e-07
2.44525e-08
2.74606e-07
2.34157e-08
2.74727e-07
2.24748e-08
2.74838e-07
2.16149e-08
2.74939e-07
2.08245e-08
2.75031e-07
2.00943e-08
2.75115e-07
1.94167e-08
2.7519e-07
1.87855e-08
2.75258e-07
1.81958e-08
2.75318e-07
1.76434e-08
2.75371e-07
1.71247e-08
2.75416e-07
1.66368e-08
2.75453e-07
1.61771e-08
2.75482e-07
1.57434e-08
2.75503e-07
1.53336e-08
2.75516e-07
1.49457e-08
2.7552e-07
1.45782e-08
2.75516e-07
1.42295e-08
2.75502e-07
1.38981e-08
2.75479e-07
1.35828e-08
2.75446e-07
1.32822e-08
2.75403e-07
1.29958e-08
2.75351e-07
1.27212e-08
2.75289e-07
1.24591e-08
2.75217e-07
1.22051e-08
2.75135e-07
1.19607e-08
2.75043e-07
1.17185e-08
2.74942e-07
1.1479e-08
2.7483e-07
1.1231e-08
2.74709e-07
1.09655e-08
2.74577e-07
1.06713e-08
2.74436e-07
1.03052e-08
2.74283e-07
9.8647e-09
2.7411e-07
9.22028e-09
2.73917e-07
8.37481e-09
2.7366e-07
7.03187e-09
2.73305e-07
5.1492e-09
2.161e-09
2.72677e-07
2.74032e-07
4.03594e-08
2.77094e-07
6.16904e-08
2.78339e-07
4.98629e-08
2.79391e-07
4.27955e-08
2.80184e-07
4.02713e-08
2.80651e-07
3.72535e-08
2.80992e-07
3.40921e-08
2.81293e-07
3.16605e-08
2.81551e-07
2.9781e-08
2.81769e-07
2.81603e-08
2.81958e-07
2.67172e-08
2.82125e-07
2.54389e-08
2.82275e-07
2.43024e-08
2.82411e-07
2.32804e-08
2.82533e-07
2.23522e-08
2.82645e-07
2.15034e-08
2.82746e-07
2.07227e-08
2.8284e-07
2.00012e-08
2.82925e-07
1.93314e-08
2.83003e-07
1.87075e-08
2.83074e-07
1.81246e-08
2.83139e-07
1.75785e-08
2.83198e-07
1.7066e-08
2.8325e-07
1.65842e-08
2.83297e-07
1.61306e-08
2.83337e-07
1.57029e-08
2.83371e-07
1.52993e-08
2.83399e-07
1.49179e-08
2.83421e-07
1.45569e-08
2.83435e-07
1.4215e-08
2.83443e-07
1.38906e-08
2.83443e-07
1.35826e-08
2.83436e-07
1.32895e-08
2.83421e-07
1.30107e-08
2.83398e-07
1.2744e-08
2.83367e-07
1.24897e-08
2.83328e-07
1.2244e-08
2.83282e-07
1.20075e-08
2.83226e-07
1.17742e-08
2.83162e-07
1.15425e-08
2.8309e-07
1.13039e-08
2.83008e-07
1.10466e-08
2.82917e-07
1.07625e-08
2.82815e-07
1.04076e-08
2.827e-07
9.97947e-09
2.82561e-07
9.35914e-09
2.82394e-07
8.54209e-09
2.82152e-07
7.27396e-09
2.81786e-07
5.51535e-09
2.82672e-09
2.8112e-07
2.82039e-07
3.6658e-08
2.85086e-07
5.86437e-08
2.86328e-07
4.86208e-08
2.87361e-07
4.17622e-08
2.88178e-07
3.94543e-08
2.88671e-07
3.67606e-08
2.89021e-07
3.37424e-08
2.89327e-07
3.13545e-08
2.89591e-07
2.95167e-08
2.89813e-07
2.79379e-08
2.90005e-07
2.65256e-08
2.90174e-07
2.52695e-08
2.90326e-07
2.41509e-08
2.90462e-07
2.31442e-08
2.90585e-07
2.22291e-08
2.90697e-07
2.13916e-08
2.90799e-07
2.06208e-08
2.90892e-07
1.9908e-08
2.90977e-07
1.92461e-08
2.91056e-07
1.86293e-08
2.91127e-07
1.80529e-08
2.91193e-07
1.75129e-08
2.91253e-07
1.70061e-08
2.91307e-07
1.65298e-08
2.91356e-07
1.60815e-08
2.914e-07
1.56592e-08
2.91438e-07
1.52609e-08
2.91471e-07
1.48849e-08
2.91499e-07
1.45296e-08
2.9152e-07
1.41934e-08
2.91536e-07
1.38749e-08
2.91546e-07
1.35729e-08
2.91549e-07
1.3286e-08
2.91546e-07
1.30136e-08
2.91537e-07
1.27535e-08
2.9152e-07
1.25059e-08
2.91497e-07
1.22673e-08
2.91467e-07
1.20377e-08
2.91429e-07
1.1812e-08
2.91384e-07
1.15874e-08
2.91331e-07
1.13572e-08
2.9127e-07
1.11079e-08
2.91199e-07
1.08335e-08
2.91115e-07
1.04908e-08
2.91018e-07
1.00764e-08
2.90894e-07
9.48397e-09
2.90733e-07
8.70286e-09
2.90487e-07
7.51983e-09
2.90096e-07
5.9064e-09
3.53581e-09
2.89387e-07
2.90307e-07
3.32396e-08
2.93328e-07
5.5623e-08
2.94576e-07
4.73729e-08
2.95588e-07
4.07495e-08
2.96424e-07
3.86184e-08
2.96944e-07
3.62411e-08
2.97304e-07
3.33822e-08
2.97615e-07
3.10432e-08
2.97885e-07
2.92466e-08
2.98113e-07
2.77106e-08
2.98307e-07
2.63309e-08
2.98479e-07
2.5098e-08
2.98632e-07
2.39978e-08
2.98769e-07
2.30069e-08
2.98893e-07
2.21054e-08
2.99005e-07
2.12795e-08
2.99107e-07
2.05189e-08
2.992e-07
1.98151e-08
2.99285e-07
1.91612e-08
2.99363e-07
1.85516e-08
2.99434e-07
1.79817e-08
2.99499e-07
1.74477e-08
2.99559e-07
1.69466e-08
2.99613e-07
1.64757e-08
2.99662e-07
1.60326e-08
2.99706e-07
1.56154e-08
2.99744e-07
1.52222e-08
2.99778e-07
1.48513e-08
2.99807e-07
1.45011e-08
2.9983e-07
1.41702e-08
2.99848e-07
1.3857e-08
2.9986e-07
1.35606e-08
2.99866e-07
1.32794e-08
2.99867e-07
1.30128e-08
2.99862e-07
1.27588e-08
2.99851e-07
1.25171e-08
2.99833e-07
1.2285e-08
2.99809e-07
1.20617e-08
2.99778e-07
1.18431e-08
2.9974e-07
1.16252e-08
2.99695e-07
1.14029e-08
2.99641e-07
1.11619e-08
2.99577e-07
1.0897e-08
2.995e-07
1.05678e-08
2.99407e-07
1.01692e-08
2.99283e-07
9.60823e-09
2.99115e-07
8.8705e-09
2.98853e-07
7.78199e-09
2.98429e-07
6.33056e-09
4.29045e-09
2.97674e-07
2.98846e-07
3.00961e-08
3.0183e-07
5.26394e-08
3.03091e-07
4.61113e-08
3.04082e-07
3.97589e-08
3.04931e-07
3.77689e-08
3.05478e-07
3.56946e-08
3.0585e-07
3.301e-08
3.06167e-07
3.07267e-08
3.06442e-07
2.89707e-08
3.06675e-07
2.74782e-08
3.06873e-07
2.61327e-08
3.07047e-07
2.49241e-08
3.07202e-07
2.3843e-08
3.0734e-07
2.28684e-08
3.07465e-07
2.19809e-08
3.07577e-07
2.1167e-08
3.07679e-07
2.04168e-08
3.07772e-07
1.97222e-08
3.07857e-07
1.90765e-08
3.07934e-07
1.84743e-08
3.08005e-07
1.79111e-08
3.08069e-07
1.73833e-08
3.08128e-07
1.68879e-08
3.08181e-07
1.64224e-08
3.08229e-07
1.59845e-08
3.08272e-07
1.55724e-08
3.0831e-07
1.51842e-08
3.08343e-07
1.48184e-08
3.08371e-07
1.44733e-08
3.08393e-07
1.41476e-08
3.08411e-07
1.38397e-08
3.08423e-07
1.35487e-08
3.08429e-07
1.3273e-08
3.0843e-07
1.3012e-08
3.08425e-07
1.27637e-08
3.08414e-07
1.25279e-08
3.08397e-07
1.2302e-08
3.08374e-07
1.20849e-08
3.08344e-07
1.18731e-08
3.08307e-07
1.1662e-08
3.08263e-07
1.14475e-08
3.08209e-07
1.12152e-08
3.08146e-07
1.09604e-08
3.08067e-07
1.06463e-08
3.07971e-07
1.02658e-08
3.07839e-07
9.73994e-09
3.07657e-07
9.05283e-09
3.07371e-07
8.06741e-09
3.06911e-07
6.79089e-09
5.08758e-09
3.06114e-07
3.07666e-07
2.72176e-08
3.10601e-07
4.97043e-08
3.11883e-07
4.48292e-08
3.12851e-07
3.87906e-08
3.13709e-07
3.6911e-08
3.14283e-07
3.51212e-08
3.14668e-07
3.26245e-08
3.1499e-07
3.04049e-08
3.15272e-07
2.86891e-08
3.1551e-07
2.72403e-08
3.15712e-07
2.59306e-08
3.15888e-07
2.47476e-08
3.16045e-07
2.36863e-08
3.16185e-07
2.27285e-08
3.1631e-07
2.18554e-08
3.16423e-07
2.1054e-08
3.16526e-07
2.03145e-08
3.16618e-07
1.96294e-08
3.16703e-07
1.89921e-08
3.1678e-07
1.83974e-08
3.1685e-07
1.78411e-08
3.16913e-07
1.73196e-08
3.16971e-07
1.68301e-08
3.17023e-07
1.63701e-08
3.1707e-07
1.59375e-08
3.17112e-07
1.55306e-08
3.17149e-07
1.51475e-08
3.1718e-07
1.47868e-08
3.17207e-07
1.44469e-08
3.17228e-07
1.41264e-08
3.17244e-07
1.38239e-08
3.17254e-07
1.35382e-08
3.17259e-07
1.3268e-08
3.17259e-07
1.30126e-08
3.17252e-07
1.27702e-08
3.1724e-07
1.25402e-08
3.17222e-07
1.23205e-08
3.17197e-07
1.21096e-08
3.17165e-07
1.19046e-08
3.17127e-07
1.17006e-08
3.1708e-07
1.1494e-08
3.17024e-07
1.12713e-08
3.16957e-07
1.10274e-08
3.16873e-07
1.073e-08
3.16769e-07
1.03703e-08
3.16626e-07
9.88328e-09
3.16425e-07
9.25361e-09
3.16113e-07
8.37884e-09
3.15618e-07
7.2865e-09
5.92038e-09
3.14785e-07
3.16776e-07
2.4593e-08
3.19651e-07
4.68287e-08
3.2096e-07
4.35211e-08
3.21906e-07
3.78444e-08
3.22767e-07
3.60498e-08
3.23367e-07
3.45216e-08
3.23767e-07
3.2224e-08
3.24095e-07
3.00772e-08
3.24382e-07
2.84018e-08
3.24626e-07
2.69967e-08
3.24832e-07
2.57244e-08
3.25011e-07
2.45682e-08
3.2517e-07
2.35276e-08
3.25311e-07
2.2587e-08
3.25438e-07
2.17288e-08
3.25552e-07
2.09402e-08
3.25654e-07
2.02119e-08
3.25747e-07
1.95365e-08
3.25832e-07
1.89078e-08
3.25908e-07
1.83209e-08
3.25978e-07
1.77716e-08
3.26041e-07
1.72566e-08
3.26098e-07
1.67731e-08
3.26149e-07
1.63187e-08
3.26195e-07
1.58916e-08
3.26236e-07
1.54899e-08
3.26271e-07
1.51121e-08
3.26301e-07
1.47566e-08
3.26326e-07
1.4422e-08
3.26346e-07
1.41068e-08
3.2636e-07
1.38097e-08
3.26369e-07
1.35295e-08
3.26372e-07
1.32649e-08
3.26369e-07
1.30151e-08
3.26361e-07
1.27786e-08
3.26346e-07
1.25546e-08
3.26326e-07
1.23412e-08
3.26299e-07
1.21367e-08
3.26264e-07
1.19387e-08
3.26223e-07
1.17423e-08
3.26173e-07
1.1544e-08
3.26112e-07
1.13316e-08
3.2604e-07
1.10997e-08
3.2595e-07
1.08207e-08
3.25835e-07
1.04846e-08
3.25678e-07
1.004e-08
3.25458e-07
9.47399e-09
3.25121e-07
8.71612e-09
3.24594e-07
7.81373e-09
6.77962e-09
3.23734e-07
3.26186e-07
2.22095e-08
3.28991e-07
4.40235e-08
3.3033e-07
4.21827e-08
3.31255e-07
3.6919e-08
3.32115e-07
3.51899e-08
3.32739e-07
3.38974e-08
3.33156e-07
3.18071e-08
3.3349e-07
2.97433e-08
3.33783e-07
2.8109e-08
3.34032e-07
2.67473e-08
3.34243e-07
2.55136e-08
3.34425e-07
2.43858e-08
3.34586e-07
2.33665e-08
3.3473e-07
2.24437e-08
3.34858e-07
2.16009e-08
3.34972e-07
2.08255e-08
3.35075e-07
2.01086e-08
3.35169e-07
1.94433e-08
3.35253e-07
1.88236e-08
3.35329e-07
1.82446e-08
3.35398e-07
1.77025e-08
3.35461e-07
1.71941e-08
3.35517e-07
1.67167e-08
3.35568e-07
1.62682e-08
3.35613e-07
1.58466e-08
3.35652e-07
1.54504e-08
3.35686e-07
1.5078e-08
3.35715e-07
1.47278e-08
3.35739e-07
1.43985e-08
3.35757e-07
1.40888e-08
3.35769e-07
1.37972e-08
3.35776e-07
1.35226e-08