/*--------------------------------*- C++ -*----------------------------------*\
  =========                 |
  \\      /  F ield         | OpenFOAM: The Open Source CFD Toolbox
   \\    /   O peration     | Website:  https://openfoam.org
    \\  /    A nd           | Version:  7
     \\/     M anipulation  |
\*---------------------------------------------------------------------------*/
FoamFile
{
    version     2.0;
    format      ascii;
    class       volVectorField;
    location    "0.48";
    object      U_0;
}
// * * * * * * * * * * * * * * * * * * * * * * * * * * * * * * * * * * * * * //

dimensions      [0 1 -1 0 0 0 0];

internalField   nonuniform List<vector> 
70000
(
(0.553412 0.0169783 0)
(0.251405 0.00340067 0)
(0.165897 0.000319246 0)
(0.132395 4.9255e-05 0)
(0.117269 4.43009e-05 0)
(0.107289 5.2468e-05 0)
(0.0992953 4.46702e-05 0)
(0.0928285 3.55994e-05 0)
(0.0875608 2.95687e-05 0)
(0.0831675 2.54381e-05 0)
(0.0794205 2.22841e-05 0)
(0.076172 1.9759e-05 0)
(0.0733208 1.77034e-05 0)
(0.0707928 1.60084e-05 0)
(0.0685316 1.45931e-05 0)
(0.066494 1.33977e-05 0)
(0.0646456 1.23775e-05 0)
(0.0629591 1.14994e-05 0)
(0.0614124 1.07372e-05 0)
(0.0599872 1.0072e-05 0)
(0.0586685 9.48792e-06 0)
(0.0574436 8.9732e-06 0)
(0.0563018 8.5179e-06 0)
(0.0552339 8.11442e-06 0)
(0.0542321 7.75556e-06 0)
(0.0532895 7.437e-06 0)
(0.0524003 7.15244e-06 0)
(0.0515591 6.90019e-06 0)
(0.0507615 6.67345e-06 0)
(0.0500034 6.47413e-06 0)
(0.0492813 6.29078e-06 0)
(0.0485917 6.1343e-06 0)
(0.0479322 5.97839e-06 0)
(0.0472995 5.85349e-06 0)
(0.0466926 5.70366e-06 0)
(0.0461082 5.58648e-06 0)
(0.0455464 5.41387e-06 0)
(0.0450053 5.23795e-06 0)
(0.0444836 5.01547e-06 0)
(0.0439885 4.58998e-06 0)
(0.0435053 4.33781e-06 0)
(0.0430751 3.15214e-06 0)
(0.0426342 3.03956e-06 0)
(0.042325 -1.47014e-07 0)
(0.0419421 5.09055e-07 0)
(0.041894 -7.98499e-06 0)
(0.0416039 -3.38904e-06 0)
(0.0421936 -3.06271e-05 0)
(0.0419434 2.38602e-05 0)
(0.0419064 -0.00165705 0)
(0.884862 0.0434939 0)
(0.65013 0.0201506 0)
(0.493924 0.00660695 0)
(0.403455 0.0027574 0)
(0.354692 0.00155083 0)
(0.323321 0.00113474 0)
(0.299362 0.000912473 0)
(0.280092 0.000748022 0)
(0.264315 0.000625472 0)
(0.251129 0.000535143 0)
(0.239882 0.000466612 0)
(0.230132 0.000412718 0)
(0.221574 0.000369209 0)
(0.213985 0.000333433 0)
(0.207197 0.000303584 0)
(0.201079 0.00027837 0)
(0.19553 0.000256835 0)
(0.190467 0.000238271 0)
(0.185825 0.000222135 0)
(0.181548 0.00020801 0)
(0.177592 0.000195569 0)
(0.173919 0.000184554 0)
(0.170496 0.000174754 0)
(0.167297 0.000166001 0)
(0.164298 0.000158155 0)
(0.161479 0.000151103 0)
(0.158822 0.000144746 0)
(0.156311 0.000139007 0)
(0.153933 0.000133816 0)
(0.151677 0.000129121 0)
(0.14953 0.000124861 0)
(0.147484 0.00012102 0)
(0.14553 0.000117508 0)
(0.14366 0.000114368 0)
(0.141868 0.000111422 0)
(0.140145 0.000108825 0)
(0.138491 0.000106196 0)
(0.136897 0.000103874 0)
(0.135359 0.00010113 0)
(0.13389 9.84288e-05 0)
(0.13245 9.47472e-05 0)
(0.131138 8.99116e-05 0)
(0.129779 8.3639e-05 0)
(0.128735 7.19922e-05 0)
(0.127448 5.99056e-05 0)
(0.126963 2.80375e-05 0)
(0.125774 9.2988e-06 0)
(0.126624 -0.000103615 0)
(0.125488 7.55151e-05 0)
(0.127888 -0.00281393 0)
(0.991209 0.0499568 0)
(0.890911 0.0305662 0)
(0.762439 0.014616 0)
(0.656422 0.00797743 0)
(0.585244 0.00488704 0)
(0.535792 0.00348262 0)
(0.497811 0.00274695 0)
(0.467087 0.0022531 0)
(0.441675 0.0018898 0)
(0.420266 0.00161864 0)
(0.401912 0.00141171 0)
(0.385944 0.00124894 0)
(0.371888 0.0011176 0)
(0.359393 0.00100958 0)
(0.348194 0.000919393 0)
(0.338086 0.000843151 0)
(0.328904 0.000777988 0)
(0.320517 0.000721764 0)
(0.31282 0.000672852 0)
(0.305725 0.000629994 0)
(0.299157 0.000592205 0)
(0.293057 0.000558701 0)
(0.287371 0.000528851 0)
(0.282056 0.000502143 0)
(0.277073 0.000478153 0)
(0.272389 0.000456536 0)
(0.267976 0.000436998 0)
(0.263807 0.000419303 0)
(0.259862 0.000403242 0)
(0.256119 0.000388651 0)
(0.252563 0.000375369 0)
(0.249176 0.000363306 0)
(0.245946 0.00035228 0)
(0.242858 0.000342312 0)
(0.239904 0.000333068 0)
(0.237069 0.000324821 0)
(0.23435 0.000316764 0)
(0.231735 0.000309762 0)
(0.229213 0.00030184 0)
(0.226805 0.000295053 0)
(0.224445 0.00028512 0)
(0.222275 0.000275685 0)
(0.220037 0.000259138 0)
(0.218237 0.000238678 0)
(0.216077 0.000205947 0)
(0.215002 0.000148245 0)
(0.212905 8.85074e-05 0)
(0.213526 -0.000123494 0)
(0.211282 7.12165e-06 0)
(0.216026 -0.00295345 0)
(1.01554 0.0489553 0)
(1.00649 0.0357292 0)
(0.935849 0.020828 0)
(0.851917 0.0135098 0)
(0.782064 0.00921113 0)
(0.726823 0.00679791 0)
(0.681629 0.00540282 0)
(0.643755 0.00446246 0)
(0.611623 0.0037686 0)
(0.584037 0.00324352 0)
(0.560059 0.00283817 0)
(0.538983 0.00251716 0)
(0.52028 0.00225697 0)
(0.503547 0.00204221 0)
(0.488469 0.00186235 0)
(0.474799 0.00170986 0)
(0.462336 0.0015792 0)
(0.450917 0.00146621 0)
(0.440408 0.00136772 0)
(0.430698 0.00128126 0)
(0.421694 0.00120488 0)
(0.413315 0.00113704 0)
(0.405495 0.00107649 0)
(0.398176 0.00102221 0)
(0.391307 0.000973355 0)
(0.384845 0.000929235 0)
(0.378753 0.000889269 0)
(0.372996 0.000852971 0)
(0.367545 0.000819936 0)
(0.362375 0.000789816 0)
(0.357462 0.000762315 0)
(0.352784 0.000737205 0)
(0.348325 0.0007142 0)
(0.344064 0.000693238 0)
(0.339991 0.000673824 0)
(0.336086 0.000656322 0)
(0.332344 0.000639431 0)
(0.32875 0.000624686 0)
(0.32529 0.000608464 0)
(0.321984 0.00059519 0)
(0.318756 0.000575816 0)
(0.315765 0.000560359 0)
(0.312714 0.000529574 0)
(0.310169 0.000500306 0)
(0.307233 0.000440689 0)
(0.305499 0.000359139 0)
(0.302636 0.000240543 0)
(0.302751 -4.72962e-05 0)
(0.299629 -9.90538e-05 0)
(0.304882 -0.00275146 0)
(1.01435 0.0460998 0)
(1.04798 0.0373474 0)
(1.02454 0.0241983 0)
(0.974611 0.0175735 0)
(0.923346 0.0131281 0)
(0.876528 0.010227 0)
(0.834261 0.00836881 0)
(0.796398 0.00704747 0)
(0.762717 0.00603783 0)
(0.732778 0.00525142 0)
(0.706067 0.00463073 0)
(0.682114 0.00413133 0)
(0.660519 0.00372179 0)
(0.640952 0.00338059 0)
(0.623137 0.00309266 0)
(0.606842 0.00284698 0)
(0.591878 0.00263532 0)
(0.578081 0.00245144 0)
(0.565316 0.00229048 0)
(0.553467 0.00214866 0)
(0.542433 0.00202297 0)
(0.532131 0.00191099 0)
(0.522485 0.00181075 0)
(0.513432 0.00172065 0)
(0.504916 0.00163934 0)
(0.496888 0.00156571 0)
(0.489305 0.00149883 0)
(0.482128 0.00143792 0)
(0.475324 0.00138233 0)
(0.468862 0.00133147 0)
(0.462716 0.0012849 0)
(0.456859 0.00124219 0)
(0.451274 0.00120294 0)
(0.445934 0.00116697 0)
(0.44083 0.0011336 0)
(0.435936 0.00110327 0)
(0.431246 0.00107414 0)
(0.426744 0.00104846 0)
(0.422412 0.00102081 0)
(0.41827 0.000998236 0)
(0.414241 0.000966455 0)
(0.410477 0.000942551 0)
(0.406689 0.00089462 0)
(0.403423 0.000854475 0)
(0.399815 0.000764856 0)
(0.39739 0.000658215 0)
(0.39393 0.000474079 0)
(0.393331 0.000115898 0)
(0.389829 -0.000143291 0)
(0.393944 -0.00259891 0)
(1.00941 0.0430496 0)
(1.05563 0.0371036 0)
(1.05865 0.0253417 0)
(1.03626 0.019782 0)
(1.00703 0.0158215 0)
(0.975937 0.0129615 0)
(0.944315 0.0109932 0)
(0.913339 0.00951226 0)
(0.883867 0.00832281 0)
(0.856283 0.0073568 0)
(0.830667 0.00656879 0)
(0.806955 0.0059184 0)
(0.785028 0.00537422 0)
(0.764744 0.00491348 0)
(0.745955 0.00451947 0)
(0.728523 0.00417953 0)
(0.712316 0.00388391 0)
(0.697218 0.003625 0)
(0.683123 0.00339678 0)
(0.669936 0.00319446 0)
(0.657572 0.00301418 0)
(0.645958 0.00285278 0)
(0.635026 0.00270766 0)
(0.624717 0.00257668 0)
(0.614978 0.00245803 0)
(0.605762 0.0023502 0)
(0.597027 0.00225192 0)
(0.588735 0.0021621 0)
(0.580852 0.00207984 0)
(0.573347 0.00200434 0)
(0.566193 0.00193495 0)
(0.559364 0.00187108 0)
(0.552838 0.00181218 0)
(0.546592 0.00175794 0)
(0.540612 0.0017075 0)
(0.534873 0.00166134 0)
(0.529369 0.00161711 0)
(0.524078 0.0015777 0)
(0.518989 0.001536 0)
(0.514112 0.0015014 0)
(0.509382 0.00145493 0)
(0.504927 0.00141969 0)
(0.500498 0.00135299 0)
(0.496567 0.0012984 0)
(0.492393 0.00117838 0)
(0.489286 0.0010419 0)
(0.485379 0.000794016 0)
(0.483937 0.000353958 0)
(0.480405 -8.5379e-05 0)
(0.482819 -0.00249095 0)
(1.00635 0.0401818 0)
(1.05241 0.0361576 0)
(1.06604 0.0252667 0)
(1.05949 0.0205898 0)
(1.04682 0.017253 0)
(1.03071 0.0146857 0)
(1.01173 0.0128595 0)
(0.990951 0.011437 0)
(0.969433 0.0102422 0)
(0.947909 0.00922912 0)
(0.926823 0.00837164 0)
(0.906439 0.00764165 0)
(0.886905 0.00701474 0)
(0.86829 0.00647213 0)
(0.850615 0.00599934 0)
(0.833866 0.0055849 0)
(0.818012 0.00521954 0)
(0.803012 0.00489573 0)
(0.788818 0.00460736 0)
(0.775382 0.0043494 0)
(0.762653 0.00411768 0)
(0.750585 0.00390874 0)
(0.739133 0.00371968 0)
(0.728254 0.00354803 0)
(0.71791 0.00339171 0)
(0.708062 0.00324894 0)
(0.698679 0.00311821 0)
(0.689728 0.00299821 0)
(0.681181 0.00288785 0)
(0.67301 0.00278614 0)
(0.665194 0.0026923 0)
(0.657707 0.00260555 0)
(0.650532 0.00252527 0)
(0.643644 0.002451 0)
(0.637034 0.00238173 0)
(0.630676 0.00231797 0)
(0.624565 0.0022569 0)
(0.618679 0.00220194 0)
(0.613011 0.0021446 0)
(0.607562 0.002096 0)
(0.602284 0.00203361 0)
(0.597275 0.00198453 0)
(0.592339 0.00189875 0)
(0.587852 0.00182598 0)
(0.583235 0.00167736 0)
(0.579521 0.00150464 0)
(0.57529 0.00120038 0)
(0.573025 0.000666009 0)
(0.569523 6.39835e-05 0)
(0.570426 -0.00236288 0)
(1.00506 0.0375049 0)
(1.04762 0.03506 0)
(1.06394 0.0247206 0)
(1.06415 0.0206233 0)
(1.06063 0.0177948 0)
(1.05468 0.0155317 0)
(1.04586 0.0139223 0)
(1.03459 0.0126665 0)
(1.02159 0.0115839 0)
(1.00745 0.010635 0)
(0.99265 0.00980617 0)
(0.977529 0.00907976 0)
(0.962359 0.008439 0)
(0.947334 0.00787082 0)
(0.932591 0.00736497 0)
(0.918221 0.00691299 0)
(0.904285 0.00650775 0)
(0.890817 0.00614318 0)
(0.877834 0.00581418 0)
(0.865343 0.00551636 0)
(0.853337 0.00524601 0)
(0.841808 0.00499993 0)
(0.83074 0.00477534 0)
(0.820117 0.00456985 0)
(0.809922 0.0043814 0)
(0.800134 0.00420815 0)
(0.790735 0.00404856 0)
(0.781706 0.00390124 0)
(0.77303 0.00376506 0)
(0.764687 0.0036389 0)
(0.756662 0.00352195 0)
(0.748938 0.00341334 0)
(0.7415 0.00331238 0)
(0.734332 0.00321854 0)
(0.727424 0.00313072 0)
(0.720756 0.00304942 0)
(0.714326 0.00297152 0)
(0.708113 0.00290074 0)
(0.702114 0.00282768 0)
(0.696326 0.00276439 0)
(0.690715 0.00268624 0)
(0.685353 0.00262193 0)
(0.680098 0.00251815 0)
(0.675228 0.00242448 0)
(0.670325 0.00225047 0)
(0.666155 0.00203688 0)
(0.661711 0.00168326 0)
(0.658788 0.00105173 0)
(0.655253 0.000290527 0)
(0.654976 -0.0021891 0)
(1.00451 0.0349693 0)
(1.04359 0.0339808 0)
(1.05992 0.0240711 0)
(1.06219 0.020336 0)
(1.06246 0.0178627 0)
(1.06175 0.0158153 0)
(1.05913 0.0143811 0)
(1.05452 0.0132924 0)
(1.04823 0.0123533 0)
(1.04057 0.0115177 0)
(1.03182 0.0107745 0)
(1.02225 0.0101101 0)
(1.01208 0.00951165 0)
(1.0015 0.00896969 0)
(0.990683 0.00847732 0)
(0.979759 0.00802895 0)
(0.968832 0.00761981 0)
(0.957981 0.00724574 0)
(0.947269 0.00690312 0)
(0.936741 0.00658877 0)
(0.92643 0.00629988 0)
(0.91636 0.00603395 0)
(0.906546 0.00578877 0)
(0.896996 0.00556234 0)
(0.887715 0.00535288 0)
(0.878705 0.0051588 0)
(0.869963 0.0049787 0)
(0.861485 0.00481132 0)
(0.853267 0.00465559 0)
(0.845302 0.00451046 0)
(0.837583 0.00437515 0)
(0.830102 0.00424882 0)
(0.822854 0.00413078 0)
(0.815826 0.0040205 0)
(0.809017 0.00391686 0)
(0.802411 0.00382037 0)
(0.79601 0.00372775 0)
(0.789798 0.00364287 0)
(0.783774 0.00355581 0)
(0.777937 0.00347892 0)
(0.772264 0.00338677 0)
(0.766806 0.00330751 0)
(0.761466 0.00318814 0)
(0.756444 0.00307289 0)
(0.751452 0.00287714 0)
(0.747043 0.00262232 0)
(0.742521 0.00222381 0)
(0.739167 0.00150195 0)
(0.735611 0.000588175 0)
(0.734366 -0.00197822 0)
(1.00412 0.0325389 0)
(1.04026 0.0329282 0)
(1.05615 0.0234378 0)
(1.05883 0.0199536 0)
(1.06019 0.0177366 0)
(1.06153 0.0158217 0)
(1.06186 0.01449 0)
(1.06091 0.0135178 0)
(1.05878 0.0126958 0)
(1.05559 0.011967 0)
(1.05141 0.0113181 0)
(1.04637 0.0107347 0)
(1.04058 0.0102042 0)
(1.03418 0.00971774 0)
(1.02729 0.00926951 0)
(1.02 0.00885529 0)
(1.01243 0.00847169 0)
(1.00466 0.00811587 0)
(0.996749 0.00778542 0)
(0.988768 0.00747821 0)
(0.980765 0.00719238 0)
(0.972781 0.00692619 0)
(0.96485 0.00667811 0)
(0.956998 0.00644668 0)
(0.949245 0.00623058 0)
(0.941609 0.0060286 0)
(0.934102 0.00583964 0)
(0.926733 0.00566266 0)
(0.91951 0.00549683 0)
(0.912435 0.00534122 0)
(0.905514 0.00519522 0)
(0.898746 0.00505807 0)
(0.892133 0.00492919 0)
(0.885673 0.00480811 0)
(0.879367 0.00469373 0)
(0.873209 0.00458666 0)
(0.867203 0.00448353 0)
(0.86134 0.00438829 0)
(0.855623 0.00429085 0)
(0.850052 0.0042033 0)
(0.844615 0.00410053 0)
(0.839348 0.00400846 0)
(0.834188 0.00387712 0)
(0.829279 0.00374212 0)
(0.824424 0.00352852 0)
(0.820024 0.00323606 0)
(0.815605 0.00279778 0)
(0.812046 0.00199421 0)
(0.808581 0.000944624 0)
(0.806571 -0.00173267 0)
(1.00374 0.0302049 0)
(1.03726 0.0318799 0)
(1.05281 0.0228358 0)
(1.0556 0.0195535 0)
(1.05709 0.017549 0)
(1.05899 0.0157236 0)
(1.06039 0.0144404 0)
(1.06103 0.0135326 0)
(1.06098 0.0127851 0)
(1.06026 0.0121315 0)
(1.05888 0.0115558 0)
(1.05685 0.0110426 0)
(1.0542 0.0105774 0)
(1.05098 0.0101504 0)
(1.04725 0.0097552 0)
(1.04307 0.00938758 0)
(1.03851 0.00904427 0)
(1.03361 0.00872283 0)
(1.02845 0.00842132 0)
(1.02306 0.00813814 0)
(1.0175 0.00787196 0)
(1.0118 0.00762161 0)
(1.00601 0.00738602 0)
(1.00015 0.00716419 0)
(0.994246 0.00695522 0)
(0.988331 0.00675825 0)
(0.982419 0.00657249 0)
(0.976528 0.00639718 0)
(0.970672 0.0062317 0)
(0.964862 0.00607535 0)
(0.95911 0.00592769 0)
(0.953421 0.00578809 0)
(0.947805 0.00565612 0)
(0.942264 0.00553142 0)
(0.936806 0.00541298 0)
(0.93143 0.0053015 0)
(0.926144 0.00519362 0)
(0.920945 0.00509328 0)
(0.915839 0.00499055 0)
(0.910829 0.00489678 0)
(0.90591 0.00478811 0)
(0.901109 0.00468704 0)
(0.896388 0.0045483 0)
(0.891852 0.00439752 0)
(0.887366 0.00417085 0)
(0.883216 0.00384621 0)
(0.879106 0.00337631 0)
(0.875566 0.002501 0)
(0.872303 0.00133763 0)
(0.869841 -0.00143867 0)
(1.00337 0.0279697 0)
(1.03443 0.0308236 0)
(1.04971 0.0222588 0)
(1.05263 0.0191508 0)
(1.05409 0.017343 0)
(1.05605 0.0155965 0)
(1.05772 0.0143361 0)
(1.05889 0.0134599 0)
(1.05965 0.0127538 0)
(1.06005 0.0121443 0)
(1.06006 0.0116144 0)
(1.05968 0.0111486 0)
(1.05888 0.0107315 0)
(1.05768 0.0103518 0)
(1.05609 0.0100023 0)
(1.05412 0.0096779 0)
(1.0518 0.00937499 0)
(1.04917 0.00909081 0)
(1.04624 0.00882328 0)
(1.04306 0.00857082 0)
(1.03964 0.00833218 0)
(1.03603 0.00810635 0)
(1.03224 0.00789246 0)
(1.02831 0.00768974 0)
(1.02426 0.0074975 0)
(1.0201 0.00731509 0)
(1.01587 0.00714195 0)
(1.01157 0.0069775 0)
(1.00722 0.00682131 0)
(1.00284 0.00667283 0)
(0.998433 0.00653177 0)
(0.994018 0.00639766 0)
(0.989603 0.00627016 0)
(0.985194 0.00614907 0)
(0.980802 0.0060334 0)
(0.976431 0.00592402 0)
(0.972088 0.00581758 0)
(0.967778 0.00571796 0)
(0.963506 0.00561561 0)
(0.959279 0.00552082 0)
(0.955096 0.00541155 0)
(0.95098 0.00530629 0)
(0.946908 0.00516527 0)
(0.942956 0.00500378 0)
(0.939039 0.0047699 0)
(0.935342 0.00441969 0)
(0.931718 0.0039272 0)
(0.92842 0.00299623 0)
(0.925426 0.00173771 0)
(0.922838 -0.00109197 0)
(1.00301 0.0258367 0)
(1.0317 0.0297551 0)
(1.04671 0.021703 0)
(1.04984 0.0187452 0)
(1.05127 0.0171253 0)
(1.05319 0.0154623 0)
(1.0549 0.0142181 0)
(1.05618 0.0133588 0)
(1.05718 0.0126765 0)
(1.05797 0.0120915 0)
(1.05855 0.0115869 0)
(1.05891 0.0111485 0)
(1.05903 0.0107608 0)
(1.0589 0.010412 0)
(1.05851 0.0100942 0)
(1.05788 0.00980178 0)
(1.05699 0.00953055 0)
(1.05586 0.00927733 0)
(1.05449 0.00903969 0)
(1.0529 0.00881578 0)
(1.0511 0.0086042 0)
(1.04911 0.00840382 0)
(1.04694 0.00821372 0)
(1.04461 0.00803314 0)
(1.04213 0.00786143 0)
(1.03951 0.00769799 0)
(1.03678 0.00754234 0)
(1.03394 0.00739395 0)
(1.03101 0.00725248 0)
(1.028 0.00711747 0)
(1.02491 0.0069887 0)
(1.02177 0.00686579 0)
(1.01858 0.00674844 0)
(1.01534 0.00663659 0)
(1.01207 0.00652925 0)
(1.00878 0.0064274 0)
(1.00546 0.00632775 0)
(1.00214 0.00623401 0)
(0.998805 0.00613717 0)
(0.995472 0.00604624 0)
(0.992143 0.00594134 0)
(0.988836 0.00583667 0)
(0.985538 0.00569842 0)
(0.982299 0.00553147 0)
(0.97908 0.00529626 0)
(0.975976 0.00492856 0)
(0.972946 0.00442077 0)
(0.97007 0.00345623 0)
(0.967397 0.00212142 0)
(0.964884 -0.000710986 0)
(1.00268 0.0238085 0)
(1.02911 0.0286729 0)
(1.0438 0.021168 0)
(1.04715 0.0183366 0)
(1.04859 0.0168943 0)
(1.05047 0.0153239 0)
(1.05217 0.0140975 0)
(1.05346 0.0132504 0)
(1.05449 0.0125853 0)
(1.05538 0.012016 0)
(1.05613 0.0115257 0)
(1.05676 0.0111022 0)
(1.05724 0.0107309 0)
(1.05758 0.0103999 0)
(1.05778 0.0101011 0)
(1.05782 0.00982881 0)
(1.05771 0.00957848 0)
(1.05743 0.00934669 0)
(1.057 0.00913074 0)
(1.05641 0.00892853 0)
(1.05566 0.00873843 0)
(1.05476 0.00855915 0)
(1.05371 0.00838964 0)
(1.05253 0.00822902 0)
(1.05121 0.00807658 0)
(1.04977 0.00793166 0)
(1.04821 0.00779376 0)
(1.04654 0.00766233 0)
(1.04477 0.00753702 0)
(1.0429 0.00741738 0)
(1.04094 0.00730317 0)
(1.03891 0.00719406 0)
(1.0368 0.00708973 0)
(1.03462 0.00699019 0)
(1.03239 0.00689442 0)
(1.0301 0.00680345 0)
(1.02776 0.00671407 0)
(1.02538 0.0066297 0)
(1.02296 0.00654203 0)
(1.02051 0.00645854 0)
(1.01804 0.00636181 0)
(1.01555 0.00626159 0)
(1.01305 0.00613018 0)
(1.01056 0.00596255 0)
(1.00807 0.00573075 0)
(1.00562 0.00535436 0)
(1.00322 0.00483724 0)
(1.00085 0.00386147 0)
(0.998545 0.00247354 0)
(0.996175 -0.000319329 0)
(1.00238 0.0218869 0)
(1.02664 0.0275761 0)
(1.04098 0.0206534 0)
(1.04454 0.0179266 0)
(1.04599 0.0166488 0)
(1.04785 0.0151798 0)
(1.04955 0.0139755 0)
(1.05083 0.0131399 0)
(1.05185 0.0124902 0)
(1.05274 0.011934 0)
(1.05353 0.0114538 0)
(1.05422 0.0110396 0)
(1.05482 0.0106777 0)
(1.05533 0.0103568 0)
(1.05575 0.0100689 0)
(1.05608 0.0098081 0)
(1.05632 0.00957012 0)
(1.05646 0.0093514 0)
(1.0565 0.00914916 0)
(1.05645 0.00896118 0)
(1.05629 0.00878571 0)
(1.05603 0.00862133 0)
(1.05566 0.00846688 0)
(1.0552 0.00832141 0)
(1.05464 0.0081841 0)
(1.05397 0.00805425 0)
(1.05322 0.00793125 0)
(1.05237 0.00781454 0)
(1.05143 0.0077037 0)
(1.05041 0.00759825 0)
(1.0493 0.00749789 0)
(1.04812 0.0074023 0)
(1.04686 0.00731108 0)
(1.04552 0.00722428 0)
(1.04413 0.00714083 0)
(1.04266 0.00706174 0)
(1.04115 0.00698391 0)
(1.03957 0.00691035 0)
(1.03795 0.00683355 0)
(1.03628 0.00675935 0)
(1.03456 0.00667287 0)
(1.03282 0.00657952 0)
(1.03104 0.00645745 0)
(1.02924 0.00629293 0)
(1.02743 0.00606765 0)
(1.0256 0.00569068 0)
(1.02378 0.00517004 0)
(1.02191 0.004201 0)
(1.01999 0.00279035 0)
(1.01776 9.99571e-05 0)
(1.0021 0.0200728 0)
(1.0243 0.0264666 0)
(1.03825 0.0201571 0)
(1.04202 0.0175171 0)
(1.04349 0.0163887 0)
(1.04532 0.0150286 0)
(1.04701 0.0138516 0)
(1.0483 0.0130274 0)
(1.04931 0.0123932 0)
(1.05018 0.01185 0)
(1.05096 0.011379 0)
(1.05166 0.0109721 0)
(1.05228 0.0106171 0)
(1.05283 0.0103028 0)
(1.05331 0.0100215 0)
(1.05374 0.00976757 0)
(1.05411 0.00953678 0)
(1.05442 0.00932568 0)
(1.05467 0.00913152 0)
(1.05486 0.00895208 0)
(1.05498 0.0087856 0)
(1.05504 0.00863062 0)
(1.05504 0.00848597 0)
(1.05497 0.00835063 0)
(1.05483 0.00822376 0)
(1.05462 0.0081046 0)
(1.05435 0.00799253 0)
(1.05401 0.00788692 0)
(1.0536 0.00778731 0)
(1.05313 0.00769319 0)
(1.05259 0.00760419 0)
(1.05198 0.00751998 0)
(1.05131 0.00744008 0)
(1.05058 0.00736456 0)
(1.04979 0.00729228 0)
(1.04894 0.00722418 0)
(1.04803 0.00715733 0)
(1.04707 0.00709422 0)
(1.04605 0.00702823 0)
(1.04499 0.00696349 0)
(1.04388 0.00688767 0)
(1.04273 0.00680212 0)
(1.04154 0.00669025 0)
(1.04031 0.00653137 0)
(1.03906 0.00631428 0)
(1.03775 0.0059431 0)
(1.03643 0.00542478 0)
(1.03499 0.00447659 0)
(1.03339 0.00307657 0)
(1.03129 0.000532898 0)
(1.00185 0.0183665 0)
(1.0221 0.0253485 0)
(1.03562 0.0196754 0)
(1.03958 0.0171099 0)
(1.04108 0.0161146 0)
(1.04287 0.0148694 0)
(1.04457 0.0137253 0)
(1.04585 0.0129129 0)
(1.04686 0.0122943 0)
(1.04772 0.0117647 0)
(1.04848 0.0113031 0)
(1.04917 0.0109033 0)
(1.04978 0.0105544 0)
(1.05032 0.0102456 0)
(1.05082 0.0099693 0)
(1.05127 0.0097202 0)
(1.05167 0.00949416 0)
(1.05203 0.00928787 0)
(1.05235 0.00909865 0)
(1.05263 0.00892437 0)
(1.05287 0.00876329 0)
(1.05307 0.00861401 0)
(1.05322 0.00847535 0)
(1.05334 0.00834632 0)
(1.05341 0.0082261 0)
(1.05344 0.00811392 0)
(1.05342 0.00800914 0)
(1.05336 0.00791115 0)
(1.05324 0.00781944 0)
(1.05309 0.00773351 0)
(1.05288 0.00765291 0)
(1.05262 0.00757733 0)
(1.05232 0.00750623 0)
(1.05196 0.00743966 0)
(1.05156 0.00737647 0)
(1.05111 0.00731746 0)
(1.05061 0.00725995 0)
(1.05006 0.00720584 0)
(1.04947 0.00714943 0)
(1.04883 0.00709322 0)
(1.04815 0.00702723 0)
(1.04743 0.00694932 0)
(1.04667 0.00684727 0)
(1.04586 0.00669541 0)
(1.04502 0.00648714 0)
(1.04411 0.00612633 0)
(1.04316 0.00561608 0)
(1.04203 0.00470003 0)
(1.04068 0.00333939 0)
(1.03867 0.000956395 0)
(1.00162 0.0167677 0)
(1.02004 0.0242261 0)
(1.03309 0.019204 0)
(1.03723 0.0167065 0)
(1.03876 0.0158277 0)
(1.04052 0.0147017 0)
(1.04221 0.0135964 0)
(1.0435 0.0127963 0)
(1.04449 0.0121932 0)
(1.04534 0.0116779 0)
(1.0461 0.0112263 0)
(1.04676 0.0108338 0)
(1.04736 0.010491 0)
(1.0479 0.0101875 0)
(1.04839 0.00991584 0)
(1.04883 0.00967092 0)
(1.04923 0.00944875 0)
(1.0496 0.00924611 0)
(1.04993 0.00906046 0)
(1.05024 0.00888971 0)
(1.05051 0.0087322 0)
(1.05075 0.00858658 0)
(1.05097 0.00845173 0)
(1.05116 0.0083267 0)
(1.05131 0.00821069 0)
(1.05144 0.00810298 0)
(1.05154 0.00800295 0)
(1.0516 0.00791 0)
(1.05164 0.00782363 0)
(1.05163 0.00774333 0)
(1.0516 0.00766865 0)
(1.05153 0.00759927 0)
(1.05142 0.00753461 0)
(1.05128 0.00747472 0)
(1.0511 0.00741847 0)
(1.05088 0.00736651 0)
(1.05062 0.00731642 0)
(1.05033 0.00726954 0)
(1.05 0.00722107 0)
(1.04962 0.00717199 0)
(1.04922 0.00711447 0)
(1.04877 0.0070435 0)
(1.04829 0.00695024 0)
(1.04776 0.00680607 0)
(1.0472 0.00660676 0)
(1.04655 0.00625964 0)
(1.04584 0.00576275 0)
(1.04492 0.00488837 0)
(1.04372 0.0035905 0)
(1.04174 0.00139327 0)
(1.00142 0.0152756 0)
(1.01811 0.0231034 0)
(1.03066 0.0187392 0)
(1.03497 0.0163085 0)
(1.03654 0.0155293 0)
(1.03825 0.0145248 0)
(1.03994 0.0134644 0)
(1.04123 0.0126775 0)
(1.04222 0.0120898 0)
(1.04306 0.0115895 0)
(1.0438 0.0111484 0)
(1.04446 0.0107636 0)
(1.04504 0.010427 0)
(1.04557 0.0101289 0)
(1.04604 0.00986202 0)
(1.04647 0.00962121 0)
(1.04687 0.00940269 0)
(1.04723 0.0092034 0)
(1.04756 0.00902084 0)
(1.04786 0.00885301 0)
(1.04814 0.00869833 0)
(1.04839 0.00855548 0)
(1.04862 0.00842341 0)
(1.04882 0.00830122 0)
(1.049 0.00818815 0)
(1.04917 0.00808354 0)
(1.0493 0.0079868 0)
(1.04942 0.00789735 0)
(1.04951 0.0078147 0)
(1.04958 0.00773839 0)
(1.04962 0.00766793 0)
(1.04963 0.00760304 0)
(1.04962 0.00754312 0)
(1.04958 0.0074882 0)
(1.04951 0.0074372 0)
(1.04941 0.00739064 0)
(1.04928 0.00734635 0)
(1.04912 0.00730517 0)
(1.04893 0.00726313 0)
(1.04871 0.00721992 0)
(1.04846 0.00716949 0)
(1.04817 0.00710473 0)
(1.04785 0.00701922 0)
(1.04748 0.0068831 0)
(1.04708 0.00669291 0)
(1.04659 0.00636209 0)
(1.04601 0.00588364 0)
(1.04519 0.00505934 0)
(1.04405 0.00384338 0)
(1.04206 0.00185741 0)
(1.00124 0.0138889 0)
(1.01632 0.0219844 0)
(1.02834 0.018277 0)
(1.03279 0.015917 0)
(1.03441 0.015221 0)
(1.03608 0.0143382 0)
(1.03775 0.013329 0)
(1.03905 0.0125567 0)
(1.04004 0.0119841 0)
(1.04087 0.0114993 0)
(1.04159 0.0110694 0)
(1.04224 0.0106926 0)
(1.04282 0.0103625 0)
(1.04333 0.0100701 0)
(1.04379 0.00980798 0)
(1.04421 0.00957138 0)
(1.04459 0.00935657 0)
(1.04494 0.00916059 0)
(1.04526 0.00898105 0)
(1.04556 0.008816 0)
(1.04583 0.00866392 0)
(1.04607 0.00852354 0)
(1.0463 0.00839387 0)
(1.0465 0.00827407 0)
(1.04669 0.00816342 0)
(1.04685 0.00806129 0)
(1.047 0.00796714 0)
(1.04713 0.00788044 0)
(1.04724 0.00780069 0)
(1.04733 0.00772748 0)
(1.04739 0.00766031 0)
(1.04744 0.00759892 0)
(1.04746 0.00754271 0)
(1.04746 0.0074917 0)
(1.04744 0.00744489 0)
(1.0474 0.00740264 0)
(1.04732 0.00736307 0)
(1.04723 0.00732655 0)
(1.04711 0.00728984 0)
(1.04696 0.00725164 0)
(1.04678 0.00720726 0)
(1.04657 0.00714828 0)
(1.04633 0.00706976 0)
(1.04605 0.00694216 0)
(1.04572 0.00676158 0)
(1.0453 0.00644946 0)
(1.04478 0.00599454 0)
(1.044 0.00522775 0)
(1.04285 0.00411064 0)
(1.04082 0.00235337 0)
(1.00107 0.0126054 0)
(1.01466 0.0208731 0)
(1.02613 0.0178141 0)
(1.0307 0.0155329 0)
(1.03237 0.0149046 0)
(1.034 0.0141413 0)
(1.03566 0.0131897 0)
(1.03696 0.0124338 0)
(1.03795 0.011876 0)
(1.03876 0.0114071 0)
(1.03948 0.0109891 0)
(1.04012 0.0106207 0)
(1.04068 0.0102974 0)
(1.04119 0.0100107 0)
(1.04164 0.00975369 0)
(1.04205 0.00952143 0)
(1.04242 0.00931044 0)
(1.04276 0.00911787 0)
(1.04307 0.00894139 0)
(1.04335 0.00877915 0)
(1.04361 0.00862965 0)
(1.04385 0.00849171 0)
(1.04406 0.00836436 0)
(1.04426 0.00824682 0)
(1.04444 0.00813841 0)
(1.0446 0.00803857 0)
(1.04475 0.00794676 0)
(1.04487 0.00786251 0)
(1.04498 0.00778534 0)
(1.04507 0.00771484 0)
(1.04514 0.00765054 0)
(1.04519 0.00759219 0)
(1.04523 0.00753921 0)
(1.04524 0.00749158 0)
(1.04523 0.0074484 0)
(1.0452 0.00740988 0)
(1.04515 0.00737443 0)
(1.04508 0.00734201 0)
(1.04498 0.00731001 0)
(1.04486 0.00727638 0)
(1.04472 0.00723748 0)
(1.04454 0.00718418 0)
(1.04434 0.00711239 0)
(1.04408 0.00699397 0)
(1.04379 0.006824 0)
(1.04339 0.00653298 0)
(1.04287 0.00610671 0)
(1.04207 0.0054045 0)
(1.04089 0.00439992 0)
(1.0388 0.00288203 0)
(1.00093 0.0114226 0)
(1.01313 0.0197737 0)
(1.02404 0.0173474 0)
(1.0287 0.0151569 0)
(1.03043 0.0145821 0)
(1.03202 0.0139341 0)
(1.03366 0.0130459 0)
(1.03496 0.0123089 0)
(1.03594 0.0117656 0)
(1.03675 0.0113128 0)
(1.03746 0.0109075 0)
(1.03809 0.0105479 0)
(1.03864 0.0102316 0)
(1.03914 0.00995094 0)
(1.03958 0.00969909 0)
(1.03998 0.00947134 0)
(1.04034 0.00926429 0)
(1.04067 0.00907522 0)
(1.04097 0.00890191 0)
(1.04124 0.00874254 0)
(1.04149 0.00859569 0)
(1.04172 0.00846022 0)
(1.04192 0.00833522 0)
(1.04211 0.00821995 0)
(1.04228 0.00811379 0)
(1.04244 0.0080162 0)
(1.04257 0.00792669 0)
(1.04269 0.00784482 0)
(1.0428 0.00777013 0)
(1.04288 0.00770224 0)
(1.04295 0.00764068 0)
(1.043 0.00758521 0)
(1.04303 0.00753528 0)
(1.04304 0.00749083 0)
(1.04303 0.00745107 0)
(1.04301 0.00741606 0)
(1.04296 0.00738448 0)
(1.04289 0.00735595 0)
(1.0428 0.00732841 0)
(1.04269 0.00729927 0)
(1.04255 0.00726563 0)
(1.04238 0.00721823 0)
(1.04219 0.00715332 0)
(1.04194 0.00704498 0)
(1.04164 0.00688707 0)
(1.04124 0.00661964 0)
(1.0407 0.00622716 0)
(1.03987 0.00559604 0)
(1.03863 0.00471468 0)
(1.03649 0.00344412 0)
(1.0008 0.0103372 0)
(1.01173 0.0186903 0)
(1.02205 0.0168742 0)
(1.02679 0.0147892 0)
(1.02858 0.0142556 0)
(1.03013 0.0137163 0)
(1.03174 0.0128971 0)
(1.03305 0.0121819 0)
(1.03403 0.0116529 0)
(1.03483 0.0112164 0)
(1.03553 0.0108243 0)
(1.03615 0.010474 0)
(1.03669 0.010165 0)
(1.03718 0.00989056 0)
(1.03761 0.0096441 0)
(1.038 0.00942102 0)
(1.03835 0.00921806 0)
(1.03867 0.00903262 0)
(1.03896 0.00886256 0)
(1.03922 0.00870616 0)
(1.03947 0.00856203 0)
(1.03968 0.0084291 0)
(1.03988 0.00830651 0)
(1.04006 0.00819356 0)
(1.04023 0.00808969 0)
(1.04037 0.0079944 0)
(1.0405 0.00790723 0)
(1.04061 0.00782777 0)
(1.04071 0.00775559 0)
(1.04079 0.00769031 0)
(1.04085 0.0076315 0)
(1.04089 0.00757889 0)
(1.04092 0.00753199 0)
(1.04092 0.00749071 0)
(1.04091 0.00745433 0)
(1.04088 0.0074228 0)
(1.04083 0.00739504 0)
(1.04076 0.00737043 0)
(1.04067 0.00734729 0)
(1.04055 0.00732278 0)
(1.04041 0.00729446 0)
(1.04024 0.00725339 0)
(1.04004 0.00719581 0)
(1.03978 0.00709862 0)
(1.03947 0.00695454 0)
(1.03905 0.00671327 0)
(1.03848 0.00635954 0)
(1.03761 0.00580539 0)
(1.03631 0.00505541 0)
(1.03413 0.00403428 0)
(1.00069 0.00934537 0)
(1.01045 0.017627 0)
(1.02018 0.0163922 0)
(1.02496 0.0144298 0)
(1.02682 0.0139271 0)
(1.02834 0.0134882 0)
(1.02991 0.0127426 0)
(1.03122 0.0120527 0)
(1.03221 0.011538 0)
(1.033 0.0111176 0)
(1.03369 0.0107394 0)
(1.0343 0.010399 0)
(1.03484 0.0100975 0)
(1.03531 0.00982954 0)
(1.03574 0.00958867 0)
(1.03612 0.00937042 0)
(1.03646 0.00917168 0)
(1.03677 0.00898999 0)
(1.03705 0.0088233 0)
(1.03731 0.00866995 0)
(1.03754 0.00852864 0)
(1.03775 0.00839832 0)
(1.03794 0.00827821 0)
(1.03811 0.00816766 0)
(1.03827 0.00806614 0)
(1.03841 0.00797321 0)
(1.03853 0.00788844 0)
(1.03863 0.00781145 0)
(1.03872 0.00774183 0)
(1.03879 0.00767923 0)
(1.03884 0.00762322 0)
(1.03888 0.00757354 0)
(1.0389 0.00752972 0)
(1.0389 0.00749164 0)
(1.03888 0.00745869 0)
(1.03884 0.00743072 0)
(1.03879 0.00740683 0)
(1.03871 0.00738625 0)
(1.03861 0.0073676 0)
(1.03849 0.00734797 0)
(1.03835 0.00732519 0)
(1.03817 0.00729097 0)
(1.03796 0.00724141 0)
(1.03769 0.00715649 0)
(1.03736 0.00702821 0)
(1.03692 0.00681565 0)
(1.03632 0.00650528 0)
(1.0354 0.00603317 0)
(1.03407 0.00542009 0)
(1.03187 0.00464674 0)
(1.0006 0.00844282 0)
(1.00929 0.0165877 0)
(1.01842 0.0158996 0)
(1.02321 0.0140784 0)
(1.02514 0.0135984 0)
(1.02663 0.0132503 0)
(1.02817 0.0125818 0)
(1.02948 0.0119211 0)
(1.03047 0.0114208 0)
(1.03126 0.0110165 0)
(1.03194 0.0106527 0)
(1.03254 0.0103228 0)
(1.03307 0.0100292 0)
(1.03354 0.00976778 0)
(1.03395 0.0095327 0)
(1.03433 0.00931947 0)
(1.03466 0.00912511 0)
(1.03496 0.00894729 0)
(1.03524 0.00878407 0)
(1.03548 0.00863388 0)
(1.03571 0.00849546 0)
(1.03591 0.00836785 0)
(1.03609 0.00825029 0)
(1.03626 0.00814221 0)
(1.03641 0.00804311 0)
(1.03654 0.00795261 0)
(1.03665 0.00787031 0)
(1.03675 0.00779587 0)
(1.03683 0.00772888 0)
(1.03689 0.00766903 0)
(1.03694 0.00761589 0)
(1.03697 0.00756921 0)
(1.03698 0.00752855 0)
(1.03698 0.00749377 0)
(1.03695 0.00746433 0)
(1.03691 0.00744002 0)
(1.03685 0.0074201 0)
(1.03677 0.00740371 0)
(1.03666 0.00738969 0)
(1.03653 0.00737524 0)
(1.03638 0.00735831 0)
(1.0362 0.0073315 0)
(1.03597 0.00729074 0)
(1.0357 0.00721925 0)
(1.03535 0.00710877 0)
(1.03488 0.00692738 0)
(1.03425 0.00666449 0)
(1.0333 0.00627845 0)
(1.03193 0.00580528 0)
(1.02975 0.00527412 0)
(1.00051 0.00762478 0)
(1.00824 0.0155765 0)
(1.01678 0.0153952 0)
(1.02155 0.0137342 0)
(1.02355 0.0132712 0)
(1.02501 0.0130033 0)
(1.02652 0.0124141 0)
(1.02782 0.0117869 0)
(1.02881 0.0113014 0)
(1.0296 0.0109129 0)
(1.03027 0.010564 0)
(1.03087 0.0102452 0)
(1.03139 0.00995974 0)
(1.03185 0.00970522 0)
(1.03226 0.00947611 0)
(1.03263 0.00926808 0)