/*--------------------------------*- C++ -*----------------------------------*\
  =========                 |
  \\      /  F ield         | OpenFOAM: The Open Source CFD Toolbox
   \\    /   O peration     | Website:  https://openfoam.org
    \\  /    A nd           | Version:  7
     \\/     M anipulation  |
\*---------------------------------------------------------------------------*/
FoamFile
{
    version     2.0;
    format      ascii;
    class       volVectorField;
    location    "0.48";
    object      wallShearStress;
}
// * * * * * * * * * * * * * * * * * * * * * * * * * * * * * * * * * * * * * //

dimensions      [0 2 -2 0 0 0 0];

internalField   uniform (0 0 0);

boundaryField
{
    velocityInlet
    {
        type            calculated;
        value           uniform (0 0 0);
    }
    pressureOutlet
    {
        type            calculated;
        value           uniform (0 0 0);
    }
    fixedWalls
    {
        type            calculated;
        value           nonuniform List<vector> 
100
(
(-0.0194714 -0.00597718 0)
(0.000811521 -0.00117653 0)
(-0.00243299 0.00036858 0)
(-0.00159529 3.35879e-05 0)
(-0.00247277 5.91274e-05 0)
(-0.00252107 3.96264e-05 0)
(-0.00287723 1.98174e-05 0)
(-0.00290196 2.39118e-06 0)
(-0.00299099 -4.292e-06 0)
(-0.00307916 1.19026e-05 0)
(-0.00336094 4.43282e-05 0)
(-0.00382039 8.1311e-05 0)
(-0.00442089 0.000107138 0)
(-0.00498595 0.000111969 0)
(-0.00529818 8.63884e-05 0)
(-0.00501714 -1.10058e-05 0)
(-0.00361462 -0.000232987 0)
(-0.000788057 -0.000467756 0)
(0.00278275 -0.000575732 0)
(0.00582232 -0.000481084 0)
(0.00727294 -0.000205903 0)
(0.00678123 9.45945e-05 0)
(0.00483767 0.000289806 0)
(0.00225894 0.000353515 0)
(-0.000313292 0.000337729 0)
(-0.00259926 0.000295891 0)
(-0.00456509 0.000252015 0)
(-0.00616345 0.00019013 0)
(-0.00718854 9.72662e-05 0)
(-0.00731766 -1.54584e-05 0)
(-0.00585951 -0.000183639 0)
(-0.00257713 -0.000368822 0)
(0.00114949 -0.000372835 0)
(0.00363669 -0.000273827 0)
(0.00503236 -0.000187576 0)
(0.00602345 -0.00015889 0)
(0.00687551 -0.000150725 0)
(0.0075581 -0.000130358 0)
(0.00793589 -8.89203e-05 0)
(0.0078897 -2.92564e-05 0)
(0.00736858 3.57256e-05 0)
(0.0064022 9.48561e-05 0)
(0.00509259 0.000138024 0)
(0.00358981 0.000159067 0)
(0.00205189 0.000160589 0)
(0.000609843 0.000148071 0)
(-0.000650749 0.000126889 0)
(-0.00168708 0.000101709 0)
(-0.00250198 7.83715e-05 0)
(-0.0031269 5.95331e-05 0)
(-0.00360904 4.64189e-05 0)
(-0.00399841 3.90494e-05 0)
(-0.00433929 3.67096e-05 0)
(-0.00466538 3.82749e-05 0)
(-0.00499408 4.1952e-05 0)
(-0.00531389 4.45044e-05 0)
(-0.00556242 4.14115e-05 0)
(-0.0056144 2.54694e-05 0)
(-0.00530553 -1.23252e-05 0)
(-0.00449903 -6.6705e-05 0)
(-0.00318002 -0.000125767 0)
(-0.00146397 -0.000177052 0)
(0.000389314 -0.000189938 0)
(0.00206225 -0.000179838 0)
(0.00331741 -0.000140302 0)
(0.00399316 -8.21974e-05 0)
(0.00396869 -8.63908e-06 0)
(0.0032099 6.89841e-05 0)
(0.00185506 0.000127905 0)
(0.000220971 0.00014645 0)
(-0.0013515 0.000136975 0)
(-0.00261091 0.000104883 0)
(-0.00346208 6.83069e-05 0)
(-0.00394105 3.75851e-05 0)
(-0.00414344 1.69148e-05 0)
(-0.00416384 4.08724e-06 0)
(-0.004067 -4.74771e-06 0)
(-0.00388359 -1.18526e-05 0)
(-0.00362332 -1.89561e-05 0)
(-0.0032935 -2.5764e-05 0)
(-0.00291667 -3.05255e-05 0)
(-0.00253412 -3.13155e-05 0)
(-0.0021982 -2.71865e-05 0)
(-0.00195324 -1.90676e-05 0)
(-0.00182518 -9.14943e-06 0)
(-0.00181004 -1.23781e-07 0)
(-0.00188728 7.25167e-06 0)
(-0.00201878 1.17018e-05 0)
(-0.00217056 1.31955e-05 0)
(-0.00229524 1.11463e-05 0)
(-0.00236132 6.29789e-06 0)
(-0.00232606 -1.85806e-06 0)
(-0.00219138 -1.05005e-05 0)
(-0.00197047 -1.73023e-05 0)
(-0.00172273 -1.93806e-05 0)
(-0.00151681 -1.64249e-05 0)
(-0.00136915 -9.91504e-06 0)
(-0.00137461 -2.18352e-06 0)
(-0.00136662 2.8475e-06 0)
(-0.00160286 8.53677e-06 0)
)
;
    }
    bottomWall
    {
        type            calculated;
        value           nonuniform List<vector> 
800
(
(-0.0353512 0.00216562 0)
(-0.0160366 0.000524958 0)
(-0.0105908 0.000100546 0)
(-0.0084563 3.45807e-05 0)
(-0.0074926 1.96737e-05 0)
(-0.00685732 1.60015e-05 0)
(-0.00634895 1.32007e-05 0)
(-0.00593819 1.07508e-05 0)
(-0.00560406 8.94973e-06 0)
(-0.00532582 7.64983e-06 0)
(-0.00508889 6.66494e-06 0)
(-0.00488385 5.88681e-06 0)
(-0.00470422 5.25649e-06 0)
(-0.00454529 4.73709e-06 0)
(-0.00440345 4.303e-06 0)
(-0.00427594 3.93574e-06 0)
(-0.00416056 3.62163e-06 0)
(-0.00405557 3.35041e-06 0)
(-0.00395955 3.11425e-06 0)
(-0.00387134 2.90706e-06 0)
(-0.00378999 2.72407e-06 0)
(-0.00371468 2.56145e-06 0)
(-0.00364473 2.41613e-06 0)
(-0.00357958 2.2856e-06 0)
(-0.00351872 2.16782e-06 0)
(-0.00346173 2.06109e-06 0)
(-0.00340825 1.96401e-06 0)
(-0.00335793 1.87538e-06 0)
(-0.00331051 1.79422e-06 0)
(-0.00326573 1.71967e-06 0)
(-0.00322338 1.651e-06 0)
(-0.00318325 1.58758e-06 0)
(-0.00314518 1.52886e-06 0)
(-0.00310899 1.47436e-06 0)
(-0.00307457 1.42366e-06 0)
(-0.00304177 1.3764e-06 0)
(-0.00301049 1.33224e-06 0)
(-0.00298062 1.29093e-06 0)
(-0.00295206 1.25219e-06 0)
(-0.00292474 1.21583e-06 0)
(-0.00289857 1.18163e-06 0)
(-0.00287348 1.14942e-06 0)
(-0.00284941 1.11906e-06 0)
(-0.00282629 1.09034e-06 0)
(-0.00280407 1.06332e-06 0)
(-0.00278271 1.03748e-06 0)
(-0.00276213 1.01347e-06 0)
(-0.00274233 9.89855e-07 0)
(-0.00272323 9.68651e-07 0)
(-0.00270483 9.46008e-07 0)
(-0.00268945 9.27464e-07 0)
(-0.00267674 9.16993e-07 0)
(-0.0026642 9.03519e-07 0)
(-0.00265184 8.89138e-07 0)
(-0.00263968 8.75677e-07 0)
(-0.0026277 8.62884e-07 0)
(-0.00261589 8.504e-07 0)
(-0.00260425 8.38185e-07 0)
(-0.00259278 8.26266e-07 0)
(-0.00258147 8.14638e-07 0)
(-0.00257033 8.03285e-07 0)
(-0.00255933 7.92196e-07 0)
(-0.00254849 7.81361e-07 0)
(-0.00253779 7.70774e-07 0)
(-0.00252724 7.60427e-07 0)
(-0.00251684 7.50313e-07 0)
(-0.00250657 7.40424e-07 0)
(-0.00249643 7.30756e-07 0)
(-0.00248643 7.21301e-07 0)
(-0.00247655 7.12054e-07 0)
(-0.00246681 7.03009e-07 0)
(-0.00245718 6.94159e-07 0)
(-0.00244768 6.855e-07 0)
(-0.0024383 6.77026e-07 0)
(-0.00242903 6.68732e-07 0)
(-0.00241987 6.60614e-07 0)
(-0.00241083 6.52665e-07 0)
(-0.0024019 6.44884e-07 0)
(-0.00239307 6.37263e-07 0)
(-0.00238435 6.298e-07 0)
(-0.00237572 6.22489e-07 0)
(-0.0023672 6.15328e-07 0)
(-0.00235878 6.08312e-07 0)
(-0.00235045 6.01437e-07 0)
(-0.00234222 5.94699e-07 0)
(-0.00233408 5.88095e-07 0)
(-0.00232603 5.81621e-07 0)
(-0.00231807 5.75273e-07 0)
(-0.0023102 5.69047e-07 0)
(-0.00230241 5.62942e-07 0)
(-0.00229471 5.56953e-07 0)
(-0.00228709 5.51076e-07 0)
(-0.00227955 5.4531e-07 0)
(-0.00227209 5.3965e-07 0)
(-0.00226471 5.34094e-07 0)
(-0.0022574 5.28639e-07 0)
(-0.00225017 5.23282e-07 0)
(-0.00224301 5.1802e-07 0)
(-0.00223593 5.1285e-07 0)
(-0.00222891 5.07771e-07 0)
(-0.00222197 5.02778e-07 0)
(-0.00221509 4.97871e-07 0)
(-0.00220828 4.93045e-07 0)
(-0.00220154 4.88301e-07 0)
(-0.00219487 4.83634e-07 0)
(-0.00218826 4.79044e-07 0)
(-0.00218171 4.74528e-07 0)
(-0.00217522 4.70085e-07 0)
(-0.0021688 4.65713e-07 0)
(-0.00216243 4.61411e-07 0)
(-0.00215613 4.57178e-07 0)
(-0.00214988 4.53013e-07 0)
(-0.00214369 4.48913e-07 0)
(-0.00213755 4.44879e-07 0)
(-0.00213148 4.40908e-07 0)
(-0.00212545 4.37002e-07 0)
(-0.00211948 4.33156e-07 0)
(-0.00211356 4.29372e-07 0)
(-0.0021077 4.25647e-07 0)
(-0.00210188 4.21982e-07 0)
(-0.00209612 4.18373e-07 0)
(-0.00209041 4.14821e-07 0)
(-0.00208474 4.11324e-07 0)
(-0.00207912 4.07882e-07 0)
(-0.00207355 4.04492e-07 0)
(-0.00206803 4.01154e-07 0)
(-0.00206255 3.97867e-07 0)
(-0.00205712 3.94629e-07 0)
(-0.00205173 3.91438e-07 0)
(-0.00204639 3.88294e-07 0)
(-0.00204109 3.85197e-07 0)
(-0.00203583 3.82145e-07 0)
(-0.00203061 3.79136e-07 0)
(-0.00202544 3.76171e-07 0)
(-0.0020203 3.73248e-07 0)
(-0.00201521 3.70367e-07 0)
(-0.00201016 3.67528e-07 0)
(-0.00200514 3.64726e-07 0)
(-0.00200016 3.61966e-07 0)
(-0.00199523 3.59238e-07 0)
(-0.00199033 3.56557e-07 0)
(-0.00198546 3.53895e-07 0)
(-0.00198063 3.51292e-07 0)
(-0.00197584 3.48686e-07 0)
(-0.00197109 3.46169e-07 0)
(-0.00196637 3.43601e-07 0)
(-0.00196168 3.41182e-07 0)
(-0.00195703 3.38616e-07 0)
(-0.00195241 3.36283e-07 0)
(-0.00194783 3.33633e-07 0)
(-0.00194398 3.31275e-07 0)
(-0.00194083 3.3006e-07 0)
(-0.00193767 3.28573e-07 0)
(-0.00193451 3.26857e-07 0)
(-0.00193134 3.25147e-07 0)
(-0.00192817 3.23496e-07 0)
(-0.00192499 3.21856e-07 0)
(-0.0019218 3.20221e-07 0)
(-0.00191861 3.18588e-07 0)
(-0.00191541 3.16954e-07 0)
(-0.00191221 3.15324e-07 0)
(-0.001909 3.13701e-07 0)
(-0.00190579 3.12068e-07 0)
(-0.00190257 3.10447e-07 0)
(-0.00189934 3.08819e-07 0)
(-0.00189611 3.07197e-07 0)
(-0.00189288 3.05575e-07 0)
(-0.00188963 3.03955e-07 0)
(-0.00188639 3.02336e-07 0)
(-0.00188314 3.0072e-07 0)
(-0.00187988 2.99102e-07 0)
(-0.00187662 2.97493e-07 0)
(-0.00187335 2.95875e-07 0)
(-0.00187008 2.94269e-07 0)
(-0.0018668 2.92656e-07 0)
(-0.00186352 2.91048e-07 0)
(-0.00186023 2.89441e-07 0)
(-0.00185694 2.87838e-07 0)
(-0.00185364 2.86233e-07 0)
(-0.00185034 2.8464e-07 0)
(-0.00184704 2.83035e-07 0)
(-0.00184373 2.81444e-07 0)
(-0.00184041 2.79845e-07 0)
(-0.0018371 2.78252e-07 0)
(-0.00183377 2.76659e-07 0)
(-0.00183045 2.7507e-07 0)
(-0.00182712 2.73479e-07 0)
(-0.00182378 2.71898e-07 0)
(-0.00182045 2.70308e-07 0)
(-0.0018171 2.6873e-07 0)
(-0.00181376 2.67146e-07 0)
(-0.00181041 2.65569e-07 0)
(-0.00180706 2.63993e-07 0)
(-0.0018037 2.6242e-07 0)
(-0.00180034 2.6085e-07 0)
(-0.00179698 2.59285e-07 0)
(-0.00179361 2.57717e-07 0)
(-0.00179024 2.56162e-07 0)
(-0.00178687 2.546e-07 0)
(-0.00178349 2.5305e-07 0)
(-0.00178012 2.51498e-07 0)
(-0.00177674 2.49952e-07 0)
(-0.00177335 2.48408e-07 0)
(-0.00176996 2.46872e-07 0)
(-0.00176658 2.45336e-07 0)
(-0.00176318 2.43814e-07 0)
(-0.00175979 2.42287e-07 0)
(-0.00175639 2.40774e-07 0)
(-0.00175299 2.39261e-07 0)
(-0.00174959 2.37755e-07 0)
(-0.00174618 2.36255e-07 0)
(-0.00174278 2.34765e-07 0)
(-0.00173937 2.33275e-07 0)
(-0.00173596 2.31803e-07 0)
(-0.00173254 2.30328e-07 0)
(-0.00172913 2.2887e-07 0)
(-0.00172571 2.27413e-07 0)
(-0.00172229 2.25968e-07 0)
(-0.00171887 2.2453e-07 0)
(-0.00171544 2.23103e-07 0)
(-0.00171201 2.21684e-07 0)
(-0.00170858 2.20282e-07 0)
(-0.00170515 2.18875e-07 0)
(-0.00170172 2.17503e-07 0)
(-0.00169828 2.16114e-07 0)
(-0.00169485 2.14774e-07 0)
(-0.00169141 2.13392e-07 0)
(-0.00168796 2.12105e-07 0)
(-0.00168452 2.10702e-07 0)
(-0.00168107 2.0953e-07 0)
(-0.00167762 2.08026e-07 0)
(-0.00167416 2.07101e-07 0)
(-0.00167072 2.05316e-07 0)
(-0.00166724 2.04943e-07 0)
(-0.0016638 2.02418e-07 0)
(-0.0016603 2.03332e-07 0)
(-0.00165688 1.98971e-07 0)
(-0.00165332 2.02879e-07 0)
(-0.00164996 1.94166e-07 0)
(-0.00164628 2.04886e-07 0)
(-0.00164307 1.86234e-07 0)
(-0.00163915 2.12026e-07 0)
(-0.00163624 1.71554e-07 0)
(-0.00163184 2.29485e-07 0)
(-0.00162954 1.43354e-07 0)
(-0.00162429 2.65908e-07 0)
(-0.00162304 9.07383e-08 0)
(-0.00161644 3.30954e-07 0)
(-0.00161671 8.16245e-09 0)
(-0.00160835 3.63032e-07 0)
(-0.0353511 -0.00216565 0)
(-0.0160356 -0.000525003 0)
(-0.0105885 -0.0001006 0)
(-0.00845238 -3.46346e-05 0)
(-0.00748696 -1.9731e-05 0)
(-0.00684979 -1.6063e-05 0)
(-0.00633941 -1.32657e-05 0)
(-0.00592655 -1.08191e-05 0)
(-0.00559024 -9.02135e-06 0)
(-0.00530976 -7.72445e-06 0)
(-0.00507054 -6.7425e-06 0)
(-0.00486315 -5.96738e-06 0)
(-0.00468112 -5.34025e-06 0)
(-0.00451972 -4.82419e-06 0)
(-0.00437536 -4.3936e-06 0)
(-0.00424527 -4.02993e-06 0)
(-0.00412726 -3.71947e-06 0)
(-0.00401959 -3.45198e-06 0)
(-0.00392084 -3.21963e-06 0)
(-0.00382985 -3.01643e-06 0)
(-0.00374566 -2.83765e-06 0)
(-0.00366746 -2.67958e-06 0)
(-0.00359456 -2.53922e-06 0)
(-0.00352639 -2.41415e-06 0)
(-0.00346243 -2.30231e-06 0)
(-0.00340225 -2.20213e-06 0)
(-0.00334548 -2.1121e-06 0)
(-0.00329178 -2.0312e-06 0)
(-0.00324086 -1.95822e-06 0)
(-0.00319246 -1.89258e-06 0)
(-0.00314636 -1.833e-06 0)
(-0.00310234 -1.77963e-06 0)
(-0.00306024 -1.73021e-06 0)
(-0.00301986 -1.68631e-06 0)
(-0.00298113 -1.64324e-06 0)
(-0.00294384 -1.60491e-06 0)
(-0.002908 -1.56243e-06 0)
(-0.00287349 -1.52173e-06 0)
(-0.00284022 -1.47005e-06 0)
(-0.00280867 -1.40748e-06 0)
(-0.0027779 -1.33016e-06 0)
(-0.00275053 -1.19642e-06 0)
(-0.0027225 -1.06519e-06 0)
(-0.00270292 -7.40846e-07 0)
(-0.00267868 -5.08994e-07 0)
(-0.00267585 3.0975e-07 0)
(-0.00265756 6.60163e-07 0)
(-0.00269578 3.01264e-06 0)
(-0.0026765 -2.37658e-06 0)
(-0.00270808 0.000193508 0)
(-3.37975e-05 2.30516e-05 0)
(-1.7034e-05 5.52922e-05 0)
(-1.53686e-05 5.36331e-05 0)
(-2.59364e-05 7.09435e-05 0)
(-2.98038e-05 0.000110622 0)
(-2.05249e-05 0.000151197 0)
(-6.94842e-06 0.000168726 0)
(-1.30714e-06 0.000165517 0)
(-5.91641e-06 0.000163741 0)
(-6.83686e-06 0.000176235 0)
(8.91543e-07 0.000196466 0)
(3.59985e-06 0.000219074 0)
(-1.50334e-06 0.000243326 0)
(-3.89989e-06 0.000261846 0)
(2.97405e-06 0.000263488 0)
(1.79618e-05 0.000239931 0)
(3.66845e-05 0.000189448 0)
(5.56477e-05 0.000115473 0)
(7.14798e-05 2.01254e-05 0)
(8.28671e-05 -8.92041e-05 0)
(9.10872e-05 -0.000206979 0)
(9.62264e-05 -0.000329873 0)
(9.86937e-05 -0.000454742 0)
(9.89301e-05 -0.000579181 0)
(9.73807e-05 -0.000701314 0)
(9.44495e-05 -0.00081963 0)
(9.04836e-05 -0.000933029 0)
(8.57556e-05 -0.00104077 0)
(8.04689e-05 -0.00114234 0)
(7.47736e-05 -0.00123742 0)
(6.87836e-05 -0.00132583 0)
(6.25872e-05 -0.00140747 0)
(5.6254e-05 -0.00148232 0)
(4.9839e-05 -0.0015504 0)
(4.33846e-05 -0.00161181 0)
(3.69205e-05 -0.00166664 0)
(3.04645e-05 -0.00171502 0)
(2.4026e-05 -0.00175708 0)
(1.76092e-05 -0.00179297 0)
(1.12147e-05 -0.00182283 0)
(4.83989e-06 -0.00184678 0)
(-1.52166e-06 -0.00186497 0)
(-7.89406e-06 -0.00187751 0)
(-1.43059e-05 -0.00188453 0)
(-2.08674e-05 -0.00188616 0)
(-2.76649e-05 -0.00188235 0)
(-3.45314e-05 -0.00187325 0)
(-4.13212e-05 -0.00185903 0)
(-4.80091e-05 -0.00183984 0)
(-5.45821e-05 -0.00181585 0)
(-6.10633e-05 -0.00178719 0)
(-6.74832e-05 -0.00175402 0)
(-7.38612e-05 -0.00171646 0)
(-8.02242e-05 -0.00167463 0)
(-8.66069e-05 -0.00162864 0)
(-9.3047e-05 -0.0015786 0)
(-9.959e-05 -0.00152459 0)
(-0.000106284 -0.00146666 0)
(-0.000113183 -0.00140486 0)
(-0.000120351 -0.0013392 0)
(-0.000127879 -0.00126967 0)
(-0.000135882 -0.00119622 0)
(-0.000144527 -0.00111875 0)
(-0.00015404 -0.00103712 0)
(-0.000164805 -0.000951167 0)
(-0.000177555 -0.000860779 0)
(-0.00019377 -0.000766034 0)
(-0.000216958 -0.000667009 0)
(-0.000253986 -0.000561323 0)
(-0.000306968 -0.00043239 0)
(-0.000345495 -0.000257388 0)
(-0.000311717 -5.24691e-05 0)
(-0.00018609 0.00013184 0)
(-1.67791e-05 0.000263825 0)
(0.000155974 0.000333966 0)
(0.000287067 0.000339936 0)
(0.000357182 0.000302396 0)
(0.000379315 0.000256695 0)
(0.000353275 0.00020937 0)
(0.000278522 0.000168459 0)
(0.000164059 0.000147843 0)
(4.21931e-05 0.000158746 0)
(-4.85766e-05 0.000199628 0)
(-9.54544e-05 0.000242936 0)
(-9.63459e-05 0.0002371 0)
(-9.32481e-05 0.000216266 0)
(-9.92636e-05 0.000190001 0)
(-0.000101526 0.000178194 0)
(-8.68905e-05 0.000180799 0)
(-5.17062e-05 0.000186274 0)
(-3.5622e-06 0.000181563 0)
(4.28417e-05 0.000159699 0)
(7.29794e-05 0.000124593 0)
(8.28017e-05 8.85851e-05 0)
(7.92092e-05 6.08634e-05 0)
(7.20148e-05 4.09424e-05 0)
(6.65242e-05 2.28917e-05 0)
(6.22374e-05 1.96516e-06 0)
(5.72222e-05 -2.15574e-05 0)
(5.12585e-05 -4.48479e-05 0)
(4.57287e-05 -6.61252e-05 0)
(4.20871e-05 -8.53251e-05 0)
(4.06779e-05 -0.000103468 0)
(4.09887e-05 -0.000121478 0)
(4.23114e-05 -0.000139824 0)
(4.41235e-05 -0.00015876 0)
(4.6019e-05 -0.000178469 0)
(4.7661e-05 -0.000199052 0)
(4.87118e-05 -0.000220521 0)
(4.87935e-05 -0.000242758 0)
(4.74838e-05 -0.000265463 0)
(4.43559e-05 -0.00028812 0)
(3.90539e-05 -0.000309975 0)
(3.13928e-05 -0.000330081 0)
(2.14386e-05 -0.000347393 0)
(9.54405e-06 -0.000360901 0)
(-3.66199e-06 -0.000369762 0)
(-1.73825e-05 -0.000373399 0)
(-3.06977e-05 -0.0003715 0)
(-4.25605e-05 -0.000364099 0)
(-5.19942e-05 -0.000351709 0)
(-5.82615e-05 -0.00033513 0)
(-6.08463e-05 -0.000315387 0)
(-5.94812e-05 -0.000293676 0)
(-5.41624e-05 -0.000271297 0)
(-4.51272e-05 -0.000249548 0)
(-3.27428e-05 -0.000229624 0)
(-1.73291e-05 -0.000212593 0)
(8.60073e-07 -0.000199567 0)
(2.09694e-05 -0.000191799 0)
(4.03274e-05 -0.000189039 0)
(5.55238e-05 -0.000187277 0)
(6.50053e-05 -0.000173735 0)
(7.21507e-05 -0.0001553 0)
(6.96424e-05 -0.000151938 0)
(2.99174e-05 -0.000167835 0)
(-7.06099e-05 -0.00017911 0)
(-0.000222398 -0.000133421 0)
(-0.000373198 -2.92945e-06 0)
(-0.000472231 0.000179208 0)
(-0.000511256 0.000358387 0)
(-0.000510627 0.00050893 0)
(-0.000490976 0.000633559 0)
(-0.000463383 0.000740742 0)
(-0.000432799 0.00083544 0)
(-0.00040166 0.000920027 0)
(-0.000371281 0.000995896 0)
(-0.000342394 0.00106408 0)
(-0.000315372 0.00112545 0)
(-0.000290358 0.00118078 0)
(-0.000267327 0.00123073 0)
(-0.000246137 0.00127592 0)
(-0.000226559 0.00131684 0)
(-0.000208305 0.00135393 0)
(-0.000191047 0.0013875 0)
(-0.000174438 0.0014178 0)
(-0.000158117 0.00144498 0)
(-0.000141736 0.00146911 0)
(-0.000124971 0.00149015 0)
(-0.000107538 0.00150803 0)
(-8.91781e-05 0.0015226 0)
(-6.96786e-05 0.00153366 0)
(-4.89137e-05 0.00154094 0)
(-2.68529e-05 0.00154419 0)
(-3.7961e-06 0.00154319 0)
(2.04162e-05 0.00153817 0)
(4.61112e-05 0.00152882 0)
(7.31706e-05 0.00151502 0)
(0.000101646 0.00149656 0)
(0.000131483 0.00147315 0)
(0.000162533 0.00144454 0)
(0.000194593 0.0014106 0)
(0.00022745 0.00137126 0)
(0.00026085 0.00132646 0)
(0.000294498 0.00127617 0)
(0.000328067 0.00122042 0)
(0.00036121 0.00115931 0)
(0.00039354 0.00109295 0)
(0.000424625 0.00102149 0)
(0.000453987 0.000945166 0)
(0.000481121 0.000864278 0)
(0.000505503 0.000779198 0)
(0.000526592 0.000690368 0)
(0.000543825 0.000598294 0)
(0.000556616 0.000503546 0)
(0.000564345 0.000406751 0)
(0.000566337 0.000308583 0)
(0.000561846 0.000209758 0)
(0.000550069 0.000111025 0)
(0.000530071 1.31641e-05 0)
(0.000500343 -8.29836e-05 0)
(0.00045938 -0.000176362 0)
(0.000405958 -0.000266185 0)
(0.000338026 -0.000351972 0)
(0.000252999 -0.00043436 0)
(0.000147395 -0.000517482 0)
(1.2673e-05 -0.000612391 0)
(-0.000170744 -0.000741652 0)
(-0.000424747 -0.000939472 0)
(-0.000751703 -0.00124224 0)
(1.50259e-06 4.06131e-05 0)
(-3.84294e-05 4.18624e-05 0)
(-5.84918e-05 3.17327e-05 0)
(-6.46363e-05 1.48342e-05 0)
(-5.73832e-05 -4.18633e-06 0)
(-4.14944e-05 -1.68479e-05 0)
(-2.82234e-05 -1.62413e-05 0)
(-2.91452e-05 -2.18848e-06 0)
(-5.08554e-05 1.94379e-05 0)
(-9.33495e-05 4.10807e-05 0)
(-0.000152757 5.80888e-05 0)
(-0.000222728 6.76551e-05 0)
(-0.000296237 6.83849e-05 0)
(-0.000366242 5.96527e-05 0)
(-0.000424376 4.13176e-05 0)
(-0.000463143 1.53103e-05 0)
(-0.00047782 -1.59807e-05 0)
(-0.000464777 -4.98037e-05 0)
(-0.000421972 -8.04176e-05 0)
(-0.000352786 -9.87815e-05 0)
(-0.00026912 -9.84639e-05 0)
(-0.000187333 -8.17074e-05 0)
(-0.000123698 -5.8004e-05 0)
(-7.97572e-05 -3.35939e-05 0)
(-5.27876e-05 -6.99103e-06 0)
(-5.04408e-05 1.23012e-05 0)
(-5.40164e-05 9.44823e-06 0)
(-5.01988e-05 1.81776e-06 0)
(-6.21601e-05 -3.27769e-06 0)
(-7.59558e-05 -3.21169e-05 0)
(-5.12057e-05 -4.75487e-05 0)
(-1.42942e-05 -7.386e-06 0)
(-9.26146e-06 4.12983e-05 0)
(-1.36403e-05 4.58956e-05 0)
(1.11184e-05 1.81648e-05 0)
(7.12382e-05 9.80033e-06 0)
(0.00013024 2.68212e-05 0)
(0.000187126 1.49792e-05 0)
(0.000268936 -3.71119e-05 0)
(0.000387024 -0.000107422 0)
(0.000539322 -0.000172408 0)
(0.000711861 -0.000214524 0)
(0.000886685 -0.000229195 0)
(0.00104925 -0.000223279 0)
(0.00119234 -0.0002061 0)
(0.00131409 -0.000183365 0)
(0.00141359 -0.00015672 0)
(0.00148911 -0.000126132 0)
(0.0015386 -9.18014e-05 0)
(0.00156068 -5.46316e-05 0)
(0.00155392 -1.69859e-05 0)
(0.00151887 1.8392e-05 0)
(0.00145806 5.25793e-05 0)
(0.00137083 8.71852e-05 0)
(0.00125665 0.000121383 0)
(0.0011163 0.00015451 0)
(0.000950962 0.000186244 0)
(0.000762605 0.000215968 0)
(0.00055447 0.000243603 0)
(0.000328766 0.000270395 0)
(7.96982e-05 0.000295323 0)
(-0.00019002 0.00030505 0)
(-0.000449984 0.00029833 0)
(-0.000698646 0.000287457 0)
(-0.00094172 0.000273885 0)
(-0.00117481 0.000255248 0)
(-0.00139167 0.000231168 0)
(-0.00158731 0.000202517 0)
(-0.00175814 0.000170576 0)
(-0.00190192 0.000136718 0)
(-0.00201764 0.000102238 0)
(-0.00210534 6.86531e-05 0)
(-0.0021666 3.68259e-05 0)
(-0.0022033 6.98215e-06 0)
(-0.00221828 -2.08977e-05 0)
(-0.00221388 -4.83387e-05 0)
(-0.00218967 -7.77615e-05 0)
(-0.00214545 -0.000111023 0)
(-0.00207741 -0.000152371 0)
(-0.00197862 -0.000203762 0)
(-0.00184058 -0.000264993 0)
(-0.00165609 -0.00032993 0)
(-0.00142394 -0.000394666 0)
(-0.00114278 -0.000451198 0)
(-0.0008159 -0.000499196 0)
(-0.000428829 -0.000503545 0)
(-1.57113e-05 -0.000426203 0)
(0.000364208 -0.000169062 0)
(0.00048313 0.000139633 0)
(0.000485794 0.000152318 0)
(0.000480859 5.5583e-05 0)
(0.000443203 6.89964e-05 0)
(0.000358867 9.68605e-05 0)
(0.000256247 0.000100558 0)
(0.000157927 9.53043e-05 0)
(7.20142e-05 7.16222e-05 0)
(1.77075e-05 3.8513e-05 0)
(1.93595e-06 1.50095e-05 0)
(6.46923e-06 1.42238e-05 0)
(-1.92918e-06 2.31313e-05 0)
(1.33704e-05 1.95248e-05 0)
(-1.8762e-05 -2.98621e-07 0)
(-2.53408e-05 -6.18516e-05 0)
(-1.4922e-05 -0.000113315 0)
(5.64919e-06 -0.000148715 0)
(1.70767e-05 -0.000142794 0)
(-8.84028e-06 -0.000109205 0)
(-6.89495e-05 -0.000122436 0)
(-9.66354e-05 -0.000194881 0)
(-2.43088e-05 -0.000216012 0)
(9.78383e-05 -8.61368e-05 0)
(0.000173829 0.000126303 0)
(0.000183141 0.000339019 0)
(0.000150313 0.000507216 0)
(9.06011e-05 0.000605226 0)
(1.79766e-05 0.000622661 0)
(-5.22892e-05 0.000561213 0)
(-0.000104303 0.000434526 0)
(-0.000128397 0.000269993 0)
(-0.000116821 0.000106175 0)
(-7.79377e-05 -1.83504e-05 0)
(-3.44681e-05 -8.62547e-05 0)
(3.95614e-06 -0.000106488 0)
(3.09955e-05 -9.07261e-05 0)
(4.66494e-05 -5.21047e-05 0)
(5.40458e-05 -1.33994e-06 0)
(5.61394e-05 5.51418e-05 0)
(5.52735e-05 0.000112696 0)
(5.65322e-05 0.000171296 0)
(6.08096e-05 0.000232098 0)
(6.21324e-05 0.000293329 0)
(5.2496e-05 0.000345867 0)
(3.15155e-05 0.000376064 0)
(9.30753e-06 0.000376895 0)
(-2.11307e-08 0.000357301 0)
(3.32819e-06 0.00033832 0)
(-6.95364e-07 0.000329507 0)
(-2.35242e-05 0.000322434 0)
(-5.53487e-05 0.000313944 0)
(-8.65813e-05 0.000286463 0)
(-8.05395e-05 0.000223533 0)
(-3.0606e-05 0.000151447 0)
(3.73403e-05 6.90205e-05 0)
(0.000112345 -2.44919e-05 0)
(0.00013995 -7.48216e-05 0)
(4.49179e-05 -5.90938e-05 0)
(-0.000228294 -4.91233e-05 0)
(-0.000533506 -0.000118962 0)
(-0.000680772 -0.000233734 0)
(-0.000657529 -0.000351666 0)
(-0.000456273 -0.000440259 0)
(8.83947e-07 -0.000303868 0)
(0.000461531 4.86737e-05 0)
(0.000722938 0.000559421 0)
(0.000656151 0.00106012 0)
(0.000495961 0.0013639 0)
(0.000445215 0.00158441 0)
(0.000406633 0.00181701 0)
(0.000347468 0.00201546 0)
(0.000312266 0.00217783 0)
(0.000277306 0.00232718 0)
(0.000243719 0.00245238 0)
(0.000218398 0.00255959 0)
(0.000192335 0.00265305 0)
(0.000170051 0.00273032 0)
(0.000149594 0.00279602 0)
(0.000130146 0.00284989 0)
(0.000112789 0.00289335 0)
(9.63729e-05 0.00292782 0)
(8.15029e-05 0.00295379 0)
(6.80618e-05 0.00297267 0)
(5.59182e-05 0.00298524 0)
(4.5263e-05 0.00299242 0)
(3.59614e-05 0.00299507 0)
(2.80846e-05 0.00299383 0)
(2.14732e-05 0.00298969 0)
(1.58322e-05 0.00298316 0)
(1.11233e-05 0.00297466 0)
(7.20177e-06 0.00296472 0)
(3.98089e-06 0.00295362 0)
(1.40414e-06 0.00294172 0)
(-6.17012e-07 0.00292929 0)
(-2.1283e-06 0.00291656 0)
(-3.1817e-06 0.00290374 0)
(-3.81829e-06 0.00289102 0)
(-4.07602e-06 0.00287855 0)
(-3.98308e-06 0.0028665 0)
(-3.56425e-06 0.00285498 0)
(-2.84058e-06 0.00284411 0)
(-1.82893e-06 0.002834 0)
(-5.43956e-07 0.00282475 0)
(1.00182e-06 0.00281645 0)
(2.79646e-06 0.0028092 0)
(4.82804e-06 0.00280306 0)
(7.08249e-06 0.00279811 0)
(9.54482e-06 0.00279442 0)
(1.22075e-05 0.00279206 0)
(1.50318e-05 0.0027911 0)
(1.80044e-05 0.00279151 0)
(2.1181e-05 0.00279326 0)
(2.46487e-05 0.00279643 0)
(2.84092e-05 0.00280112 0)
(3.24357e-05 0.00280739 0)
(3.67119e-05 0.00281528 0)
(4.12249e-05 0.00282481 0)
(4.59602e-05 0.00283603 0)
(5.09016e-05 0.00284896 0)
(5.60339e-05 0.00286361 0)
(6.1341e-05 0.00287999 0)
(6.68064e-05 0.00289811 0)
(7.24127e-05 0.00291795 0)
(7.81431e-05 0.00293952 0)
(8.39808e-05 0.00296278 0)
(8.99084e-05 0.00298774 0)
(9.59072e-05 0.00301434 0)
(0.000101959 0.00304257 0)
(0.000108044 0.00307239 0)
(0.000114143 0.00310375 0)
(0.000120234 0.00313661 0)
(0.000126295 0.00317091 0)
(0.000132301 0.00320661 0)
(0.000138228 0.00324363 0)
(0.00014405 0.00328191 0)
(0.000149742 0.00332138 0)
(0.000155276 0.00336196 0)
(0.000160629 0.00340357 0)
(0.00016577 0.00344614 0)
(0.000170669 0.00348957 0)
(0.000175293 0.00353377 0)
(0.000179607 0.00357864 0)
(0.00018357 0.00362408 0)
(0.000187143 0.00366999 0)
(0.000190285 0.00371623 0)
(0.000192952 0.00376269 0)
(0.000195101 0.00380924 0)
(0.000196686 0.00385574 0)
(0.000197662 0.00390203 0)
(0.000197983 0.00394797 0)
(0.000197599 0.0039934 0)
(0.000196464 0.00403813 0)
(0.000194528 0.00408198 0)
(0.000191741 0.00412478 0)
(0.000188055 0.00416633 0)
(0.000183415 0.00420641 0)
(0.000177772 0.00424484 0)
(0.000171077 0.00428138 0)
(0.000163279 0.00431583 0)
(0.00015433 0.00434796 0)
(0.000144184 0.00437753 0)
(0.000132799 0.00440434 0)
(0.000120138 0.00442815 0)
(0.000106172 0.00444874 0)
(9.08679e-05 0.00446587 0)
(7.42e-05 0.00447934 0)
(5.61488e-05 0.00448894 0)
(3.66715e-05 0.00449446 0)
(1.58617e-05 0.00449573 0)
(-6.32036e-06 0.00449272 0)
(-3.00437e-05 0.00448525 0)
(-5.53337e-05 0.00447316 0)
(-8.22487e-05 0.00445628 0)
(-0.000110842 0.00443447 0)
(-0.000141171 0.00440759 0)
(-0.000173293 0.00437549 0)
(-0.000207272 0.00433805 0)
(-0.000243177 0.00429513 0)
(-0.000281083 0.00424661 0)
(-0.00032108 0.00419236 0)
(-0.000363266 0.00413229 0)
(-0.000407759 0.00406627 0)
(-0.000454695 0.0039942 0)
(-0.000504234 0.00391599 0)
(-0.000556561 0.00383155 0)
(-0.000611898 0.00374081 0)
(-0.000670508 0.00364369 0)
(-0.000732705 0.00354014 0)
(-0.000798864 0.00343011 0)
(-0.000869437 0.00331356 0)
(-0.000944975 0.00319048 0)
(-0.00102614 0.00306078 0)
(-0.00111372 0.00292439 0)
(-0.00120865 0.00278111 0)
(-0.00131208 0.00263061 0)
(-0.00142529 0.00247233 0)
(-0.00154968 0.00230544 0)
(-0.00168673 0.00212882 0)
(-0.00183791 0.0019411 0)
(-0.00200464 0.00174085 0)
(-0.00218854 0.00152665 0)
(-0.00239137 0.00129725 0)
(-0.00261305 0.00105171 0)
(-0.00286514 0.000790825 0)
(-0.00315188 0.000508705 0)
(-0.00345943 0.000206963 0)
(-0.00379878 -0.000119362 0)
(-0.00417776 -0.000433013 0)
(-0.00462331 -0.000874098 0)
(-0.00502342 -0.00105896 0)
(-0.00561767 -0.00201839 0)
(-0.00542071 -0.00128454 0)
)
;
    }
    frontAndBack
    {
        type            empty;
    }
}


// ************************************************************************* //
