/*--------------------------------*- C++ -*----------------------------------*\
  =========                 |
  \\      /  F ield         | OpenFOAM: The Open Source CFD Toolbox
   \\    /   O peration     | Website:  https://openfoam.org
    \\  /    A nd           | Version:  7
     \\/     M anipulation  |
\*---------------------------------------------------------------------------*/
FoamFile
{
    version     2.0;
    format      ascii;
    class       volScalarField;
    location    "0.34";
    object      nut;
}
// * * * * * * * * * * * * * * * * * * * * * * * * * * * * * * * * * * * * * //

dimensions      [0 2 -1 0 0 0 0];

internalField   nonuniform List<scalar> 
70000
(
0
0
0
0
0
0
0
0
0
0
0
0
0
0
0
0
0
0
0
0
0
0
0
0
0
0
0
0
0
0
0
0
0
0
0
0
0
0
1.8195e-14
4.09458e-14
6.41743e-14
1.07977e-13
9.25473e-14
2.34259e-13
8.62563e-14
5.45492e-13
0
1.62791e-12
0
0
0
0
0
0
0
0
0
0
0
0
0
0
0
0
0
0
0
0
0
0
0
0
0
0
0
0
0
0
0
0
0
0
0
0
0
0
0
1.35326e-14
5.45781e-14
9.33004e-14
1.35226e-13
2.13872e-13
1.91615e-13
4.43322e-13
1.64556e-13
1.06619e-12
0
3.37913e-12
0
0
0
0
0
0
0
0
0
0
0
0
0
0
0
0
0
0
0
0
0
0
0
0
0
0
0
0
0
0
0
0
0
0
0
0
0
0
0
1.21422e-14
5.93623e-14
1.00099e-13
1.48668e-13
2.45598e-13
2.19347e-13
5.44744e-13
1.07631e-13
1.41116e-12
0
4.83064e-12
9.53582e-13
0
0
0
0
0
0
0
0
0
0
0
0
0
0
0
0
0
0
0
0
0
0
0
0
0
0
0
0
0
0
0
0
0
0
0
0
0
0
0
0
0
1.62395e-14
1.23147e-13
8.56398e-14
4.89873e-13
0
1.50796e-12
0
5.44195e-12
3.60743e-12
0
0
0
0
0
0
0
0
0
0
0
0
0
0
0
0
0
0
0
0
0
0
0
0
0
0
0
0
0
0
0
0
0
0
0
0
0
0
0
0
0
0
0
0
3.21314e-13
0
1.45146e-12
0
5.31121e-12
4.1635e-12
0
9.4499e-10
0
0
0
0
0
0
0
0
0
0
0
0
0
0
0
0
0
0
0
0
0
0
0
0
0
0
0
0
0
0
0
0
0
0
0
0
0
0
0
0
0
0
8.71112e-14
0
1.36062e-12
0
4.7533e-12
3.86758e-12
0
1.31908e-08
0
0
0
0
0
0
0
0
0
0
0
0
0
0
0
0
0
0
0
0
0
0
0
0
0
0
0
0
0
0
0
0
0
0
0
0
0
0
0
0
0
0
0
0
1.22356e-12
0
3.77885e-12
3.6453e-12
0
1.20845e-08
0
0
0
0
0
0
0
0
0
0
0
0
0
0
0
0
0
0
0
0
0
0
0
0
0
0
0
0
0
0
0
0
0
0
0
0
0
0
0
0
0
0
0
0
9.62912e-13
0
2.41105e-12
3.42796e-12
0
1.10653e-08
0
0
0
0
0
0
0
0
0
0
0
0
0
0
0
0
0
0
0
0
0
0
0
0
0
0
0
0
0
0
0
0
0
0
0
0
0
0
0
0
0
0
0
0
5.35746e-13
0
7.83822e-13
2.9711e-12
0
1.02172e-08
0
0
0
0
0
0
0
0
0
0
0
0
0
0
0
0
0
0
0
0
0
0
0
0
0
0
0
0
0
0
0
0
0
0
0
0
0
0
0
0
0
0
0
0
0
0
0
2.18064e-12
0
9.50697e-09
0
0
0
0
0
0
0
0
0
0
0
0
0
0
0
0
0
0
0
0
0
0
0
0
0
0
0
0
0
0
0
0
0
0
0
0
0
0
0
0
0
0
0
0
0
0
0
1.08418e-12
0
8.86405e-09
0
0
0
0
0
0
0
0
0
0
0
0
0
0
0
0
0
0
0
0
0
0
0
0
0
0
0
0
0
0
0
0
0
0
0
0
0
0
0
0
0
0
0
0
0
0
0
0
0
8.22266e-09
0
0
0
0
0
0
0
0
0
0
0
0
0
0
0
0
0
0
0
0
0
0
0
0
0
0
0
0
0
0
0
0
0
0
0
0
0
0
0
0
0
0
0
0
0
0
0
0
0
7.56295e-09
0
0
0
0
0
0
0
0
0
0
0
0
1.5188e-12
0
0
0
0
0
0
0
0
0
0
0
0
0
0
0
0
0
0
0
0
0
0
0
0
0
0
0
0
0
0
0
0
0
0
0
0
6.89107e-09
0
0
0
0
0
0
0
0
0
0
0
0
0
0
0
2.73417e-11
2.97008e-11
9.81405e-12
0
0
0
0
0
0
0
0
0
0
0
0
0
0
0
0
0
0
0
0
0
0
0
0
0
0
0
0
0
0
0
6.2181e-09
0
0
0
0
0
0
0
0
0
0
0
0
0
0
0
0
0
0
1.97261e-11
4.18677e-11
4.74828e-11
3.08359e-11
1.12747e-11
9.723e-13
0
0
0
0
0
0
0
0
0
0
0
0
0
0
0
0
0
0
0
0
0
0
0
0
0
5.55258e-09
0
0
0
5.61664e-11
0
0
0
0
0
0
0
0
0
0
0
0
0
0
0
0
0
0
1.22309e-11
2.76024e-11
3.88699e-11
4.1992e-11
3.26207e-11
1.63125e-11
4.0089e-12
0
0
0
0
0
0
0
0
0
0
0
0
0
0
0
0
1.06107e-12
0
0
0
4.90078e-09
0
0
0
1.36632e-10
0
0
0
0
0
0
0
0
0
0
0
0
0
0
0
0
0
0
0
0
0
0
0
0
0
0
0
0
0
0
0
0
0
0
0
0
0
0
0
0
0
5.08653e-12
0
0
0
4.26821e-09
0
0
0
1.88285e-10
0
0
0
0
0
0
0
0
0
0
0
0
0
0
0
0
0
0
0
0
0
0
0
0
0
0
0
0
0
0
0
0
0
0
0
0
0
0
0
0
0
0
0
0
0
3.65999e-09
0
0
0
1.9591e-10
0
0
0
0
0
0
0
0
0
0
0
0
0
0
0
0
0
0
0
0
0
0
0
0
0
0
0
0
0
0
0
0
0
0
0
0
0
0
0
0
0
0
0
0
0
3.08039e-09
0
0
0
1.41988e-10
0
0
0
0
0
0
0
0
0
0
0
0
0
0
0
0
0
0
0
0
0
0
0
0
0
0
0
0
0
0
0
0
0
0
0
0
0
0
0
0
0
0
0
0
0
2.53236e-09
0
0
0
7.24454e-12
0
0
0
0
0
0
0
0
0
0
0
0
0
0
0
0
0
0
0
0
0
0
0
0
0
0
0
0
0
0
0
0
0
0
0
0
0
0
0
0
0
0
0
0
0
2.01722e-09
0
0
0
0
0
0
0
0
0
0
0
0
0
0
0
0
0
0
0
0
0
0
0
0
0
0
0
0
0
0
0
0
0
0
0
0
0
0
0
0
0
0
0
0
0
0
0
0
0
1.53454e-09
0
0
0
0
0
0
0
0
0
0
0
0
0
0
0
0
0
0
0
0
0
0
0
0
0
0
0
0
0
0
0
0
0
0
0
0
0
0
0
0
0
0
0
0
0
0
0
0
0
1.08233e-09
0
0
0
0
0
0
0
0
0
0
0
0
0
0
0
0
0
0
0
0
0
0
0
0
0
0
0
0
0
0
0
0
0
0
0
0
0
0
0
0
0
0
0
0
0
0
0
0
0
6.57392e-10
0
0
0
0
0
0
0
0
0
0
0
0
0
0
0
0
0
0
0
0
0
0
0
0
0
0
0
0
0
0
0
0
0
0
0
0
0
0
0
0
0
0
0
0
0
0
0
0
0
2.55949e-10
0
0
0
0
0
0
0
0
0
0
0
0
0
0
0
0
0
0
0
0
0
0
0
0
0
0
0
0
0
0
0
0
0
0
0
0
0
0
0
0
0
0
0
0
0
0
0
0
0
0
0
0
0
0
0
0
0
0
0
0
0
0
0
0
0
0
0
0
0
0
0
0
0
0
0
0
0
0
0
0
0
0
0
0
0
0
0
0
0
0
0
0
0
0
0
0
0
0
0
0
0
0
0
0
0
0
0
0
0
0
0
0
0
0
0
0
0
0
0
0
0
0
0
0
0
0
0
0
0
0
0
0
0
0
0
0
0
0
0
0
0
0
0
0
0
0
0
0
0
0
0
0
0
0
0
0
0
0
0
0
0
0
0
0
0
0
0
0
0
0
0
0
0
0
0
0
0
0
0
0
0
0
0
0
0
0
0
0
0
0
0
0
0
0
0
0
0
0
0
0
0
0
0
0
0
0
0
0
0
0
0
0
0
0
0
0
0
0
0
0
0
0
0
0
0
0
0
0
0
0
0
0
0
0
0
0
0
0
0
0
0
0
0
0
0
0
0
0
0
0
0
0
0
0
0
0
0
0
0
0
0
0
0
0
0
0
0
0
0
0
0
0
0
0
0
0
0
0
0
0
0
0
0
0
0
0
0
0
0
0
0
0
0
0
0
0
0
0
1.34518e-10
0
8.02548e-10
0
0
0
0
0
0
0
0
0
0
0
0
0
0
0
0
0
0
0
0
0
0
0
0
0
0
0
0
0
0
0
0
0
0
0
0
0
0
0
0
0
0
0
0
0
0
2.36643e-10
7.18753e-10
0
1.72466e-09
0
0
0
0
0
0
0
0
0
0
0
0
0
0
0
0
0
0
0
0
0
0
0
0
0
0
0
0
0
0
0
0
0
0
0
0
0
0
0
0
0
0
0
0
0
2.32988e-10
7.97995e-10
1.34017e-09
0
2.52122e-09
0
0
0
0
0
0
0
0
0
0
0
0
0
0
0
0
0
0
0
0
0
0
0
0
0
0
0
0
0
0
0
0
0
0
0
0
0
0
0
0
0
0
0
0
2.06901e-10
6.9609e-10
1.40701e-09
1.9903e-09
0
3.19455e-09
0
0
0
0
0
0
0
0
0
0
0
0
0
0
0
0
0
0
0
0
0
0
0
0
0
0
0
0
0
0
0
0
0
0
0
0
0
0
0
0
0
0
0
1.29933e-10
5.90879e-10
1.20861e-09
2.05425e-09
2.65972e-09
0
3.75006e-09
0
0
0
0
0
0
0
0
0
0
0
0
0
0
0
0
0
0
0
0
0
0
0
0
0
0
0
0
0
0
0
0
0
0
0
0
0
0
0
0
0
0
7.14939e-11
4.4338e-10
1.0211e-09
1.76253e-09
2.72846e-09
3.3379e-09
0
4.19541e-09
0
0
0
0
0
0
0
0
0
0
0
0
0
0
0
0
0
0
0
0
0
0
0
0
0
0
0
0
0
0
0
0
0
0
0
0
0
0
0
0
0
0
3.33252e-10
7.99121e-10
1.4915e-09
2.34927e-09
3.41935e-09
4.01453e-09
0
4.53905e-09
0
0
0
0
0
0
0
0
0
0
0
0
0
0
0
0
0
0
0
0
0
0
0
0
0
0
0
0
0
0
0
0
0
0
0
0
0
0
0
0
0
1.95034e-10
6.31665e-10
1.19289e-09
1.99494e-09
2.95967e-09
4.11703e-09
4.6796e-09
0
4.78999e-09
0
0
0
0
0
0
0
0
0
0
0
0
0
0
0
0
0
0
0
0
0
0
0
0
0
0
0
0
0
0
0
0
0
0
0
0
0
0
0
0
7.9399e-11
4.43449e-10
9.63362e-10
1.61877e-09
2.52407e-09
3.58347e-09
4.80966e-09
5.32142e-09
0
4.95844e-09
0
0
0
0
0
0
0
0
0
0
0
0
0
0
0
0
0
0
0
0
0
0
0
0
0
0
0
0
0
0
0
0
0
0
0
0
0
0
0
0
2.86018e-10
7.21142e-10
1.32367e-09
2.06945e-09
3.06905e-09
4.20892e-09
5.48449e-09
5.92905e-09
0
5.05566e-09
0
0
0
0
0
0
0
0
0
0
0
0
0
0
0
0
0
0
0
0
0
0
0
0
0
0
0
0
0
0
0
0
0
0
0
0
0
0
0
1.21448e-10
5.17781e-10
1.0242e-09
1.70659e-09
2.53586e-09
3.61591e-09
4.82201e-09
6.12785e-09
6.494e-09
0
5.09285e-09
0
0
0
0
0
0
0
0
0
0
0
0
0
0
0
0
0
0
0
0
0
0
0
0
0
0
0
0
0
0
0
0
0
0
0
0
0
0
0
3.13672e-10
7.71362e-10
1.34759e-09
2.10468e-09
3.00842e-09
4.15359e-09
5.41118e-09
6.72843e-09
7.00586e-09
0
5.08034e-09
0
0
0
0
0
0
0
0
0
0
0
0
0
0
0
0
0
0
0
0
0
0
0
0
0
0
0
0
0
0
0
0
0
0
0
0
0
0
1.31336e-10
5.24836e-10
1.04238e-09
1.68497e-09
2.50956e-09
3.47908e-09
4.67757e-09
5.96988e-09
7.27772e-09
7.45481e-09
0
5.02718e-09
0
0
0
0
0
0
0
0
0
0
0
0
0
0
0
0
0
0
0
0
0
0
0
0
0
0
0
0
0
0
0
0
0
0
0
0
0
0
3.04818e-10
7.51197e-10
1.32556e-09
2.02923e-09
2.91242e-09
3.93776e-09
5.17999e-09
6.49096e-09
7.76226e-09
7.83408e-09
0
4.94102e-09
0
0
0
0
0
0
0
0
0
0
0
0
0
0
0
0
0
0
0
0
0
0
0
0
0
0
0
0
0
0
0
0
0
0
0
0
0
9.42135e-11
4.91278e-10
9.8819e-10
1.61482e-09
2.37266e-09
3.30413e-09
4.37297e-09
5.64492e-09
6.95935e-09
8.17469e-09
8.13881e-09
0
4.8283e-09
0
0
0
0
0
0
0
0
0
0
0
0
0
0
0
0
0
0
0
0
0
0
0
0
0
0
0
0
0
0
0
0
0
0
0
0
0
2.46393e-10
6.86797e-10
1.23051e-09
1.90339e-09
2.70708e-09
3.67558e-09
4.77412e-09
6.05574e-09
7.36302e-09
8.53337e-09
8.3788e-09
0
4.6943e-09
0
0
0
0
0
0
0
0
0
0
0
0
0
0
0
0
0
0
0
0
0
0
0
0
0
0
0
0
0
0
0
0
0
0
0
0
1.90225e-11
4.06332e-10
8.8679e-10
1.47222e-09
2.184e-09
3.02399e-09
4.0172e-09
5.13062e-09
6.40308e-09
7.69662e-09
8.84282e-09
8.57972e-09
0
4.54344e-09
0
0
0
0
0
0
0
0
0
0
0
0
0
0
0
0
0
0
0
0
0
0
0
0
0
0
0
0
0
0
0
0
0
0
0
0
1.47069e-10
5.70091e-10
1.08613e-09
1.70693e-09
2.44907e-09
3.31476e-09
4.31997e-09
5.43428e-09
6.68037e-09
7.93891e-09
9.04194e-09
8.70403e-09
0
4.37946e-09
0
0
0
0
0
0
0
0
0
0
0
0
0
0
0
0
0
0
0
0
0
0
0
0
0
0
0
0
0
0
0
0
0
0
0
0
2.78408e-10
7.33249e-10
1.27925e-09
1.92789e-09
2.69081e-09
3.57069e-09
4.57465e-09
5.67573e-09
6.88005e-09
8.07809e-09
9.08626e-09
8.6632e-09
0
4.20563e-09
0
0
0
0
0
0
0
0
0
0
0
0
0
0
0
0
0
0
0
0
0
0
0
0
0
0
0
0
0
0
0
0
0
0
0
5.08519e-12
4.0926e-10
8.90996e-10
1.4603e-09
2.12822e-09
2.90143e-09
3.78316e-09
4.77193e-09
5.84489e-09
6.99339e-09
8.1179e-09
9.00377e-09
8.46373e-09
0
4.0248e-09
0
0
0
0
0
0
0
0
0
0
0
0
0
0
0
0
0
0
0
0
0
0
0
0
0
0
0
0
0
0
0
0
0
0
0
1.07923e-10
5.35541e-10
1.03829e-09
1.62328e-09
2.30099e-09
3.07321e-09
3.94368e-09
4.90285e-09
5.93259e-09
7.01101e-09
8.05354e-09
8.82044e-09
8.17415e-09
0
3.83942e-09
0
0
0
0
0
0
0
0
0
0
0
0
0
0
0
0
0
0
0
0
0
0
0
0
0
0
0
0
0
0
0
0
0
0
0
2.07016e-10
6.52985e-10
1.16999e-09
1.76221e-09
2.43942e-09
3.19862e-09
4.0441e-09
4.95889e-09
5.9303e-09
6.9253e-09
7.87458e-09
8.52608e-09
7.80645e-09
0
3.65169e-09
0
0
0
0
0
0
0
0
0
0
0
0
0
0
0
0
0
0
0
0
0
0
0
0
0
0
0
0
0
0
0
0
0
0
0
2.98765e-10
7.57254e-10
1.281e-09
1.8713e-09
2.53701e-09
3.27047e-09
4.07668e-09
4.93204e-09
5.8298e-09
6.72853e-09
7.57265e-09
8.11107e-09
7.34498e-09
0
3.46365e-09
0
0
0
0
0
0
0
0
0
0
0
0
0
0
0
0
0
0
0
0
0
0
0
0
0
0
0
0
0
0
0
0
0
0
0
3.7956e-10
8.44102e-10
1.36645e-09
1.94512e-09
2.58768e-09
3.28216e-09
4.03428e-09
4.81494e-09
5.62303e-09
6.41265e-09
7.1412e-09
7.57138e-09
6.78172e-09
0
3.27719e-09
0
0
0
0
0
0
0
0
0
0
0
0
0
0
0
0
0
0
0
0
0
0
0
0
0
0
0
0
0
0
0
0
0
0
2.66374e-11
4.45922e-10
9.09548e-10
1.42186e-09
1.97873e-09
2.58603e-09
3.22781e-09
3.91053e-09
4.60044e-09
5.3037e-09
5.96862e-09
6.57455e-09
6.90236e-09
6.11415e-09
0
3.09401e-09
0
0
0
0
0
0
0
0
0
0
0
0
0
0
0
0
0
0
0
0
0
0
0
0
0
0
0
0
0
0
0
0
0
0
7.51531e-11
4.94665e-10
9.50049e-10
1.44339e-09
1.96796e-09
2.52752e-09
3.1025e-09
3.69994e-09
4.28251e-09
4.86416e-09
5.3889e-09
5.86643e-09
6.09666e-09
5.3441e-09
0
2.91553e-09
1.43681e-10
0
0
0
0
0
0
0
0
0
0
0
0
0
0
0
0
0
0
0
0
0
0
0
0
0
0
0
0
0
0
0
0
0
1.09514e-10
5.23055e-10
9.62701e-10
1.42801e-09
1.90968e-09
2.40883e-09
2.90263e-09
3.39825e-09
3.85583e-09
4.29697e-09
4.66635e-09
5.00787e-09
5.1467e-09
4.47732e-09
0
2.74292e-09
2.91935e-10
0
0
0
0
0
0
0
0
0
0
0
0
0
0
0
0
0
0
0
0
0
0
0
0
0
0
0
0
0
0
0
0
0
1.27646e-10
5.28995e-10
9.45458e-10
1.37382e-09
1.80211e-09
2.22815e-09
2.6263e-09
3.00272e-09
3.31606e-09
3.59568e-09
3.7921e-09
3.98712e-09
4.04546e-09
3.52142e-09
0
2.57707e-09
4.15023e-10
0
0
0
0
0
0
0
0
0
0
0
0
0
0
0
0
0
0
0
0
0
0
0
0
0
0
0
0
0
0
0
0
0
1.28081e-10
5.11219e-10
8.9738e-10
1.28033e-09
1.6452e-09
1.9858e-09
2.27383e-09
2.51274e-09
2.66051e-09
2.75404e-09
2.75567e-09
2.78977e-09
2.78583e-09
2.48455e-09
0
2.41864e-09
5.16285e-10
0
0
0
0
0
0
0
0
0
0
0
0
0
0
0
0
0
0
0
0
0
0
0
0
0
0
0
0
0
0
0
0
0
1.10116e-10
4.69501e-10
8.18909e-10
1.14884e-09
1.44115e-09
1.68486e-09
1.8485e-09
1.9307e-09
1.88887e-09
1.76652e-09
1.54431e-09
1.39808e-09
1.35834e-09
1.37673e-09
0
2.26807e-09
5.98742e-10
0
0
0
0
0
0
0
0
0
0
0
0
0
0
0
0
0
0
0
0
0
0
0
0
0
0
0
0
0
0
0
0
0
7.39775e-11
4.04876e-10
7.1218e-10
9.82857e-10
1.19498e-09
1.33188e-09
1.35771e-09
1.26348e-09
1.00506e-09
6.29427e-10
1.42723e-10
0
0
2.14777e-10
0
2.12564e-09
6.65143e-10
0
0
0
0
0
0
0
0
0
0
0
0
0
0
0
0
0
0
0
0
0
0
0
0
0
0
0
0
0
0
0
0
0
2.0958e-11
3.19829e-10
5.81274e-10
7.88492e-10
9.1517e-10
9.38025e-10
8.14657e-10
5.24985e-10
1.97677e-11
0
0
0
0
0
0
1.99152e-09
7.17994e-10
0
0
0
0
0
0
0
0
0
0
0
0
0
0
0
0
0
0
0
0
0
0
0
0
0
0
0
0
0
0
0
0
0
0
2.18419e-10
4.32438e-10
5.74869e-10
6.14515e-10
5.20374e-10
2.4077e-10
0
0
0
0
0
0
0
0
1.86576e-09
7.59555e-10
0
0
0
0
0
0
0
0
0
0
0
0
0
0
0
0
0
0
0
0
0
0
0
0
0
0
0
0
0
0
0
0
0
0
1.06324e-10
2.74203e-10
3.54427e-10
3.1072e-10
1.03449e-10
0
0
0
0
0
0
0
0
0
1.74834e-09
7.91838e-10
0
0
0
0
0
0
0
0
0
0
0
0
0
0
0
0
0
0
0
0
0
0
0
0
0
0
0
0
0
0
0
0
0
0
0
1.17245e-10
1.42881e-10
2.67579e-11
0
0
0
0
0
0
0
0
0
0
1.63917e-09
8.16608e-10
0
0
0
0
0
0
0
0
0
0
0
0
0
0
0
0
0
0
0
0
0
0
0
0
0
0
0
0
0
0
0
0
0
0
0
0
0
0
0
0
0
0
0
0
0
0
0
0
1.53811e-09
8.35404e-10
0
0
0
0
0
0
0
0
0
0
0
0
0
0
0
0
0
0
0
0
0
0
0
0
0
0
0
0
0
0
0
0
0
0
0
0
0
0
0
0
0
0
0
0
0
0
0
0
1.44495e-09
8.49576e-10
0
0
0
0
0
0
0
0
0
0
0
0
0
0
0
0
0
0
0
0
0
0
0
0
0
0
0
0
0
0
0
0
0
0
0
0
0
0
0
0
0
0
0
0
0
0
7.62597e-10
0
1.35947e-09
8.60311e-10
0
0
0
0
0
0
0
0
0
0
0
0
0
0
0
0
0
0
0
0
0
0
0
0
0
0
0
0
0
0
0
0
0
0
0
0
0
0
0
0
0
0
0
0
4.84243e-09
5.82561e-09
1.05782e-09
0
1.28143e-09
8.68675e-10
0
0
0
0
0
0
0
0
0
0
0
0
0
0
0
0
0
0
0
0
0
0
0
0
0
0
0
0
0
0
0
0
0
0
0
0
0
0
0
0
0
0
1.01233e-09
6.23346e-09
1.00514e-08
4.42047e-09
1.95025e-10
0
1.21061e-09
8.7562e-10
0
0
0
0
0
0
0
0
0
0
0
0
0
0
0
0
0
0
0
0
0
0
0
0
0
0
0
0
0
0
0
0
0
0
0
0
0
0
1.15758e-10
3.05468e-10
7.12927e-10
1.63112e-09
3.48496e-09
5.44619e-09
4.48396e-09
1.81414e-09
0
0
1.14679e-09
8.81995e-10
0
0
0
0
0
0
0
0
0
0
0
0
0
0
0
0
0
0
0
0
0
0
0
0
0
0
0
0
0
0
0
0
0
0
0
0
0
1.72777e-10
4.07789e-10
7.40526e-10
1.24677e-09
1.94579e-09
2.57341e-09
2.43088e-09
1.45904e-09
3.43699e-10
0
0
1.08975e-09
8.88606e-10
0
0
0
0
0
0
0
0
0
0
0
0
0
0
0
0
0
0
0
0
0
0
0
0
0
0
0
0
0
0
0
0
0
0
0
0
2.35934e-11
2.38313e-10
4.78799e-10
7.4733e-10
1.01394e-09
1.1574e-09
1.00653e-09
5.35251e-10
5.53161e-11
0
3.3971e-11
0
1.03934e-09
8.96206e-10
0
0
0
0
0
0
0
0
0
0
0
0
0
0
0
0
0
0
0
0
0
0
0
0
0
0
0
0
0
0
0
0
0
0
0
0
0
1.71969e-10
3.25133e-10
4.22165e-10
4.12177e-10
2.4011e-10
0
0
0
0
7.67147e-10
0
9.95415e-10
9.05537e-10
0
0
0
0
0
0
0
0
0
0
0
0
0
0
0
0
0
0
0
0
0
0
0
0
0
0
0
0
0
0
0
0
0
0
0
0
0
2.54618e-11
6.86485e-11
2.36656e-11
0
0
0
0
0
2.91162e-10
1.68348e-09
0
9.57896e-10
9.17409e-10
0
0
0
0
0
0
0
0
0
0
0
0
0
0
0
0
0
0
0
0
0
0
0
0
0
0
0
0
0
0
0
0
0
0
0
0
0
0
0
0
0
0
0
0
2.0394e-10
9.94736e-10
2.70879e-09
0
9.26765e-10
9.32674e-10
0
0
0
0
0
0
0
0
0
0
0
0
0
0
0
0
0
0
0
0
0
0
0
0
0
0
0
0
0
0
0
0
0
0
0
0
0
0
0
0
0
0
3.33045e-11
3.8953e-10
9.42429e-10
1.86693e-09
3.79754e-09
0
9.02089e-10
9.52294e-10
0
0
0
0
0
0
0
0
0
0
0
0
0
0
0
0
0
0
0
0
0
0
0
0
0
0
0
0
0
0
0
0
0
0
0
5.08515e-11
1.10188e-10
1.32738e-10
1.37153e-10
1.56503e-10
2.39621e-10
4.27919e-10
7.57182e-10
1.22086e-09
1.84969e-09
2.85328e-09
4.92678e-09
0
8.84042e-10
9.77434e-10
0
0
0
0
0
0
0
0
0
0
0
0
0
0
0
0
0
0
0
0
0
0
0
0
0
0
0
0
0
0
0
0
1.50759e-11
1.92002e-10
3.38182e-10
4.50688e-10
5.32652e-10
5.9649e-10
6.67073e-10
7.78075e-10
9.69371e-10
1.26631e-09
1.68477e-09
2.2128e-09
2.87937e-09
3.92232e-09
6.08325e-09
0
8.7294e-10
1.00948e-09
0
0
0
0
0
0
0
0
0
0
0
0
0
0
0
0
0
0
0
0
0
0
0
0
0
0
0
0
0
0
9.4751e-11
3.34939e-10
5.56852e-10
7.54129e-10
9.23213e-10
1.06504e-09
1.18739e-09
1.30677e-09
1.44906e-09
1.64414e-09
1.92241e-09
2.29772e-09
2.77083e-09
3.32862e-09
4.00252e-09
5.0555e-09
7.26592e-09
0
8.69284e-10
1.0502e-09
0
0
0
0
0
0
0
0
0
0
0
0
0
0
0
0
0
0
0
0
0
0
0
0
0
0
0
0
1.91722e-10
4.76912e-10
7.61403e-10
1.03429e-09
1.28766e-09
1.5167e-09
1.72011e-09
1.90165e-09
2.07166e-09
2.24784e-09
2.45456e-09
2.71721e-09
3.0587e-09
3.48596e-09
3.987e-09
4.54571e-09
5.2054e-09
6.24759e-09
8.47857e-09
0
8.73823e-10
1.10194e-09
0
0
0
0
0
0
0
0
0
0
0
0
0
0
0
0
0
0
0
0
0
0
0
0
0
5.32867e-11
3.24386e-10
6.28464e-10
9.50944e-10
1.2811e-09
1.60962e-09
1.924e-09
2.21694e-09
2.48479e-09
2.72796e-09
2.95203e-09
3.16851e-09
3.39487e-09
3.65321e-09
3.9654e-09
4.34911e-09
4.80698e-09
5.31738e-09
5.85707e-09
6.48582e-09
7.49745e-09
9.72469e-09
0
8.87645e-10
1.16777e-09
0
0
0
0
0
0
0
0
0
0
0
0
0
0
0
0
0
0
0
0
0
0
2.72191e-11
2.38739e-10
4.96457e-10
8.00478e-10
1.1418e-09
1.50704e-09
1.88369e-09
2.2645e-09
2.64394e-09
3.00606e-09
3.34347e-09
3.65314e-09
3.93658e-09
4.2005e-09
4.4569e-09
4.7227e-09
5.01814e-09
5.36282e-09
5.77139e-09
6.244e-09
6.75471e-09
7.26235e-09
7.84241e-09
8.8054e-09
1.10113e-08
0
9.12314e-10
1.25185e-09
0
0
0
0
0
0
0
0
0
0
0
0
0
0
0
0
0
0
0
0
1.30513e-10
3.7833e-10
6.50789e-10
9.62775e-10
1.31776e-09
1.70983e-09
2.12763e-09
2.55814e-09
2.99139e-09
3.42394e-09
3.85711e-09
4.27006e-09
4.65384e-09
5.00545e-09
5.32694e-09
5.62572e-09
5.91414e-09
6.20869e-09
6.52842e-09
6.89178e-09
7.31197e-09
7.78841e-09
8.29742e-09
8.76505e-09
9.27644e-09
1.01772e-08
1.23487e-08
0
9.5007e-10
1.35992e-09
0
0
0
0
0
0
0
0
0
0
0
0
0
0
0
0
0
0
8.42095e-11
3.94022e-10
7.10054e-10
1.0471e-09
1.42336e-09
1.84353e-09
2.30158e-09
2.78546e-09
3.28152e-09
3.77734e-09
4.26564e-09
4.74707e-09
5.23208e-09
5.69727e-09
6.12777e-09
6.52e-09
6.87593e-09
7.20356e-09
7.51586e-09
7.82956e-09
8.16329e-09
8.53522e-09
8.95826e-09
9.43208e-09
9.93514e-09
1.03734e-08
1.07974e-08
1.16205e-08
1.37388e-08
0
1.00414e-09
1.5e-09
0
0
0
0
0
0
0
0
0
0
0
0
0
0
0
0
0
3.23942e-10
6.7314e-10
1.04301e-09
1.44036e-09
1.87333e-09
2.35775e-09
2.88812e-09
3.44901e-09
4.02242e-09
4.59292e-09
5.14928e-09
5.68684e-09
6.21043e-09
6.7398e-09
7.2577e-09
7.73572e-09
8.16878e-09
8.5578e-09
8.91072e-09
9.24125e-09
9.567e-09
9.90706e-09
1.02801e-08
1.06997e-08
1.11663e-08
1.16591e-08
1.20834e-08
1.24117e-08
1.3133e-08
1.51698e-08
0
1.07921e-09
1.68349e-09
0
0
0
0
0
0
0
0
0
0
0
0
0
0
0
2.9287e-10
6.4157e-10
1.00963e-09
1.40691e-09
1.84954e-09
2.3382e-09
2.86927e-09
3.45977e-09
4.0949e-09
4.75083e-09
5.40473e-09
6.04035e-09
6.64832e-09
7.22615e-09
7.78224e-09
8.34236e-09
8.91178e-09
9.43895e-09
9.9148e-09
1.03383e-08
1.07165e-08
1.10635e-08
1.13981e-08
1.17408e-08
1.21113e-08
1.25247e-08
1.29822e-08
1.34631e-08
1.38812e-08
1.41134e-08
1.47045e-08
1.66277e-08
0
1.18222e-09
1.92693e-09
0
0
0
0
0
0
0
0
0
0
0
0
3.62952e-11
3.63518e-10
7.03403e-10
1.05908e-09
1.43623e-09
1.84474e-09
2.30192e-09
2.82821e-09
3.41538e-09
4.04053e-09
4.72707e-09
5.45262e-09
6.18686e-09
6.90416e-09
7.58909e-09
8.23509e-09
8.84146e-09
9.41851e-09
9.99221e-09
1.06064e-08
1.11895e-08
1.17148e-08
1.21788e-08
1.25868e-08
1.29524e-08
1.32959e-08
1.36395e-08
1.40054e-08
1.4411e-08
1.48584e-08
1.53258e-08
1.57275e-08
1.5874e-08
1.63012e-08
1.80734e-08
0
1.32364e-09
2.2545e-09
0
0
0
0
0
0
0
0
0
0
1.81013e-10
5.07052e-10
8.49324e-10
1.2059e-09
1.57619e-09
1.96486e-09
2.38153e-09
2.84219e-09
3.3706e-09
3.99001e-09
4.68045e-09
5.38865e-09
6.15111e-09
6.9412e-09
7.72555e-09
8.47918e-09
9.18989e-09
9.855e-09
1.04757e-08
1.10607e-08
1.16352e-08
1.22647e-08
1.29186e-08
1.35077e-08
1.4025e-08
1.44734e-08
1.48659e-08
1.52232e-08
1.55703e-08
1.5932e-08
1.63295e-08
1.67658e-08
1.72155e-08
1.7582e-08
1.76169e-08
1.78532e-08
1.94385e-08
0
1.51965e-09
2.70171e-09
1.82643e-10
0
0
0
0
0
0
6.60977e-12
3.83637e-10
7.19892e-10
1.05639e-09
1.41273e-09
1.79072e-09
2.18524e-09
2.59456e-09
3.02477e-09
3.48962e-09
4.01118e-09
4.61922e-09
5.33817e-09
6.13374e-09
6.90662e-09
7.71435e-09
8.53035e-09
9.32302e-09
1.00731e-08
1.07757e-08
1.14336e-08
1.20507e-08
1.26305e-08
1.31949e-08
1.38054e-08
1.45366e-08
1.52149e-08
1.58074e-08
1.63137e-08
1.67454e-08
1.71245e-08
1.74788e-08
1.78377e-08
1.82272e-08
1.86509e-08
1.9074e-08
1.93692e-08
1.92135e-08
1.92438e-08
2.06256e-08
0
1.79596e-09
3.32055e-09
8.20868e-10
0
0
0
0
0
5.75021e-10
1.00365e-09
1.35947e-09
1.70062e-09
2.06156e-09
2.45447e-09
2.87537e-09
3.31556e-09
3.77201e-09
4.25199e-09
4.77307e-09
5.36285e-09
6.05615e-09
6.87698e-09
7.77496e-09
8.58505e-09
9.39144e-09
1.01768e-08
1.09174e-08
1.16072e-08
1.22538e-08
1.28682e-08
1.34567e-08
1.40174e-08
1.45612e-08
1.51431e-08
1.59109e-08
1.67253e-08
1.74283e-08
1.80183e-08
1.8507e-08
1.89183e-08
1.92847e-08
1.96416e-08
2.0022e-08
2.04276e-08
2.08048e-08
2.09552e-08
2.05084e-08
2.03513e-08
2.1551e-08
0
2.19448e-09
4.18394e-09
1.70748e-09
0
0
0
5.50585e-10
1.27405e-09
1.77516e-09
2.14706e-09
2.47907e-09
2.82674e-09
3.21618e-09
3.65088e-09
4.12024e-09
4.61157e-09
5.12035e-09
5.65511e-09
6.23746e-09
6.90018e-09
7.68199e-09
8.60429e-09
9.59692e-09
1.04122e-08
1.11544e-08
1.18334e-08
1.24399e-08
1.29911e-08
1.35157e-08
1.40367e-08
1.45623e-08
1.50853e-08
1.55974e-08
1.61469e-08
1.69059e-08
1.78967e-08
1.87575e-08
1.94654e-08
2.00325e-08
2.04876e-08
2.087e-08
2.12247e-08
2.15934e-08
2.19707e-08
2.22656e-08
2.21257e-08
2.14075e-08
2.11235e-08
2.22283e-08
0
2.78737e-09
5.38546e-09
2.86989e-09
5.43306e-10
3.7592e-10
1.18775e-09
2.07898e-09
2.73007e-09
3.14639e-09
3.45713e-09
3.76419e-09
4.11977e-09
4.54058e-09
5.02069e-09
5.54251e-09
6.089e-09
6.65374e-09
7.24602e-09
7.8913e-09
8.62704e-09
9.49465e-09
1.05101e-08
1.15764e-08
1.23499e-08
1.29531e-08
1.34388e-08
1.3818e-08
1.41402e-08
1.44645e-08
1.48314e-08
1.52524e-08
1.57123e-08
1.61811e-08
1.66883e-08
1.73999e-08
1.85646e-08
1.96362e-08
2.04984e-08
2.11663e-08
2.16755e-08
2.20761e-08
2.24255e-08
2.27768e-08
2.31109e-08
2.32767e-08
2.27775e-08
2.19812e-08
2.17188e-08
2.28995e-08
0
3.70634e-09
7.03326e-09
4.25802e-09
2.02811e-09
2.00839e-09
2.83474e-09
3.73082e-09
4.34622e-09
4.69357e-09
4.94904e-09
5.23427e-09
5.6006e-09
6.05545e-09
6.58303e-09
7.15859e-09
7.76094e-09
8.38199e-09
9.0318e-09
9.73927e-09
1.05456e-08
1.14927e-08
1.25857e-08
1.36847e-08
1.43384e-08
1.47256e-08
1.49381e-08
1.50111e-08
1.50305e-08
1.50891e-08
1.52488e-08
1.55256e-08
1.58966e-08
1.63122e-08
1.67661e-08
1.74096e-08
1.86327e-08
1.99401e-08
2.09681e-08
2.17417e-08
2.23056e-08
2.27215e-08
2.30606e-08
2.33874e-08
2.36684e-08
2.36781e-08
2.29743e-08
2.23069e-08
2.22289e-08
2.36525e-08
0
5.17695e-09
9.19158e-09
5.73361e-09
3.53283e-09
3.59744e-09
4.41048e-09
5.37087e-09
6.06461e-09
6.40342e-09
6.63023e-09
6.9045e-09
7.28611e-09
7.777e-09
8.35287e-09
8.98198e-09
9.63872e-09
1.03131e-08
1.10161e-08
1.178e-08
1.26486e-08
1.36607e-08
1.48011e-08
1.5848e-08
1.62575e-08
1.63763e-08
1.62879e-08
1.60538e-08
1.57849e-08
1.55942e-08
1.55548e-08
1.56856e-08
1.59593e-08
1.63174e-08
1.6715e-08
1.72588e-08
1.83359e-08
1.97309e-08
2.08318e-08
2.16488e-08
2.22295e-08
2.26403e-08
2.29586e-08
2.3254e-08
2.34828e-08
2.33654e-08
2.27982e-08
2.24383e-08
2.26887e-08
2.44139e-08
0
7.5678e-09
1.17161e-08
7.03152e-09
4.88632e-09
5.04065e-09
5.83502e-09
6.80769e-09
7.76518e-09
8.22351e-09
8.4864e-09
8.77913e-09
9.18769e-09
9.71725e-09
1.03395e-08
1.10182e-08
1.17242e-08
1.24458e-08
1.31944e-08
1.40056e-08
1.49236e-08
1.59769e-08
1.71074e-08
1.7916e-08
1.79703e-08
1.78077e-08
1.74857e-08
1.70808e-08
1.66967e-08
1.64249e-08
1.63169e-08
1.63812e-08
1.65925e-08
1.69038e-08
1.72584e-08
1.76751e-08
1.83457e-08
1.94215e-08
2.03297e-08
2.10201e-08
2.15203e-08
2.18807e-08
2.21637e-08
2.24256e-08
2.26297e-08
2.25788e-08
2.24458e-08
2.25115e-08
2.31067e-08
2.50352e-08
0
1.14401e-08
1.43912e-08
8.07986e-09
6.14814e-09
6.47568e-09
7.30629e-09
8.07679e-09
9.17926e-09
1.00313e-08
1.04593e-08
1.08307e-08
1.12925e-08
1.18695e-08
1.25376e-08
1.32601e-08
1.40065e-08
1.47639e-08
1.55452e-08
1.63885e-08
1.73339e-08
1.83855e-08
1.93915e-08
1.96752e-08
1.93717e-08
1.90164e-08
1.86647e-08
1.83733e-08
1.81778e-08
1.80895e-08
1.81049e-08
1.82138e-08
1.84033e-08
1.86585e-08
1.89619e-08
1.9294e-08
1.96325e-08
1.99596e-08
2.02855e-08
2.06109e-08
2.08933e-08
2.11423e-08
2.13771e-08
2.16084e-08
2.18149e-08
2.20213e-08
2.22713e-08
2.2594e-08
2.33026e-08
2.52072e-08
8.47624e-10
1.76546e-08
1.62938e-08
9.37378e-09
7.72541e-09
8.06736e-09
8.97167e-09
9.58951e-09
1.01869e-08
1.15252e-08
1.23529e-08
1.29101e-08
1.34731e-08
1.41151e-08
1.48316e-08
1.55924e-08
1.6368e-08
1.71465e-08
1.79434e-08
1.87988e-08
1.97396e-08
2.07198e-08
2.13842e-08
2.1005e-08
2.05044e-08
2.0132e-08
1.99541e-08
1.99726e-08
2.0141e-08
2.0399e-08
2.07003e-08
2.1022e-08
2.13611e-08
2.17158e-08
2.20553e-08
2.22759e-08
2.21044e-08
2.17947e-08
2.15737e-08
2.14458e-08
2.14065e-08
2.1445e-08
2.15493e-08
2.17077e-08
2.19091e-08
2.2141e-08
2.23896e-08
2.26968e-08
2.34199e-08
2.54689e-08
5.65232e-09
2.55377e-08
1.6367e-08
1.01427e-08
9.29476e-09
9.75338e-09
1.02845e-08
1.0962e-08
1.12139e-08
1.21362e-08
1.35882e-08
1.44743e-08
1.52062e-08
1.59423e-08
1.67144e-08
1.75077e-08
1.82989e-08
1.90792e-08
1.98692e-08
2.0709e-08
2.15979e-08
2.2395e-08
2.24025e-08
2.16673e-08
2.11558e-08
2.09867e-08
2.11535e-08
2.15428e-08
2.1991e-08
2.24417e-08
2.32165e-08
2.40444e-08
2.46328e-08
2.50805e-08
2.54823e-08
2.57754e-08
2.5579e-08
2.47636e-08
2.40775e-08
2.35792e-08
2.32676e-08
2.31233e-08
2.31184e-08
2.32211e-08
2.33991e-08
2.36191e-08
2.38589e-08
2.41976e-08
2.5103e-08
2.78529e-08
0
0
0
0
0
0
6.93625e-10
6.05911e-09
1.33218e-08
1.6005e-08
1.15461e-08
2.85309e-09
4.06852e-10
1.30745e-09
2.68373e-09
5.45312e-09
1.28853e-08
1.10404e-08
0
0
0
0
0
0
7.52986e-09
1.25052e-08
1.2848e-08
2.22922e-09
2.56388e-07
6.21827e-07
5.84453e-07
5.41826e-07
4.95112e-07
3.29455e-07
1.29649e-07
2.59559e-08
0
0
0
0
0
0
0
3.14008e-11
0
0
0
0
9.66431e-09
4.66453e-09
0
0
0
0
0
0
6.75848e-09
7.59012e-09
5.63305e-09
5.24929e-09
7.44302e-09
1.26935e-08
1.82814e-08
2.14138e-08
1.79395e-08
0
0
0
0
0
0
0
0
0
0
2.1669e-09
0
0
0
0
0
0
0
9.19873e-10
1.98417e-09
1.54052e-09
1.24518e-09
2.14243e-09
4.81173e-09
7.66056e-09
1.27591e-08
1.99569e-08
3.01827e-08
3.55761e-08
3.79539e-08
2.25258e-08
0
0
0
0
0
0
0
0
0
0
5.36634e-10
5.68501e-09
1.21561e-08
1.42664e-08
9.93657e-09
2.00181e-09
3.0752e-10
1.60417e-09
2.94389e-09
5.3223e-09
1.23154e-08
1.30475e-08
0
0
0
0
0
0
7.10634e-09
1.15644e-08
1.1994e-08
8.1596e-09
2.88275e-07
5.99748e-07
5.8774e-07
5.54542e-07
5.14645e-07
3.43057e-07
1.30252e-07
2.51164e-08
0
0
0
0
0
0
0
3.55974e-10
0
0
0
0
9.24901e-09
6.68213e-09
0
0
0
0
0
0
5.83805e-09
7.15335e-09
5.08705e-09
4.38342e-09
5.96982e-09
1.05122e-08
1.56327e-08
1.86465e-08
1.5578e-08
0
0
0
0
0
0
0
0
0
0
0
0
0
0
0
0
0
0
9.9102e-10
2.13494e-09
1.7312e-09
1.28155e-09
1.87641e-09
4.2148e-09
6.74892e-09
1.14204e-08
1.80716e-08
2.8035e-08
3.32597e-08
3.52691e-08
2.08778e-08
0
0
0
0
0
0
0
0
0
0
5.15709e-10
4.83159e-09
1.01928e-08
1.21208e-08
8.20987e-09
1.2155e-09
2.69929e-10
1.97914e-09
3.32201e-09
5.38617e-09
1.16101e-08
1.46973e-08
8.72209e-10
0
0
0
0
0
6.59521e-09
1.05687e-08
1.12671e-08
1.69615e-08
3.05211e-07
5.80812e-07
5.91109e-07
5.68364e-07
5.36797e-07
3.58269e-07
1.29683e-07
2.37132e-08
0
0
0
0
0
0
0
6.01872e-10
0
0
0
0
8.59131e-09
8.26755e-09
0
0
0
0
0
0
4.80629e-09
6.72307e-09
4.56413e-09
3.54024e-09
4.54434e-09
8.31103e-09
1.29391e-08
1.58602e-08
1.33236e-08
0
0
0
0
0
0
0
0
0
0
0
0
0
0
0
0
0
0
1.08055e-09
2.29069e-09
1.94786e-09
1.35019e-09
1.65195e-09
3.64749e-09
5.86467e-09
1.0111e-08
1.61897e-08
2.5892e-08
3.09839e-08
3.26961e-08
1.95589e-08
0
0
0
1.7835e-08
0
0
0
0
0
0
5.1265e-10
3.61267e-09
7.92517e-09
9.7829e-09
6.33932e-09
4.77017e-10
3.27983e-10
2.42441e-09
3.77778e-09
5.4823e-09
1.05871e-08
1.59148e-08
5.04373e-09
0
0
0
0
0
5.95917e-09
9.4719e-09
1.05977e-08
2.81194e-08
3.1248e-07
5.63354e-07
5.92916e-07
5.81456e-07
5.59722e-07
3.73384e-07
1.27337e-07
2.17702e-08
0
0
0
3.24614e-10
3.21766e-10
0
0
7.69178e-10
3.44245e-10
0
0
0
7.55642e-09
9.32865e-09
0
0
0
0
0
0
3.60831e-09
6.24223e-09
4.03892e-09
2.70053e-09
3.14475e-09
6.05747e-09
1.01092e-08
1.29085e-08
1.10163e-08
0
0
0
0
0
0
0
0
0
0
0
0
0
0
0
0
0
0
1.18721e-09
2.43746e-09
2.18004e-09
1.44779e-09
1.46735e-09
3.09733e-09
4.98974e-09
8.78647e-09
1.42453e-08
2.35876e-08
2.85786e-08
3.00203e-08
1.83065e-08
0
0
0
2.06853e-08
1.22899e-11
0
0
0
0
0
4.51318e-10
2.54168e-09
5.95751e-09
7.61811e-09
4.54928e-09
0
5.26729e-10
2.93518e-09
4.32185e-09
5.57862e-09
9.3888e-09
1.65428e-08
8.80691e-09
0
0
0
0
0
5.19992e-09
8.29899e-09
1.002e-08
4.0186e-08
3.13369e-07
5.47136e-07
5.92472e-07
5.92564e-07
5.82165e-07
3.86853e-07
1.22074e-07
1.9164e-08
8.46379e-10
5.21985e-10
8.81132e-10
1.24658e-09
1.18157e-09
0
0
8.79416e-10
1.20287e-09
0
0
0
6.1099e-09
9.88125e-09
0
0
0
0
0
0
2.25027e-09
5.68245e-09
3.50459e-09
1.86254e-09
1.77539e-09
3.77718e-09
7.1528e-09
9.78513e-09
8.63602e-09
0
0
0
0
0
0
0
0
0
0
0
0
0
0
0
0
0
1.76035e-10
1.31446e-09
2.56889e-09
2.41568e-09
1.57001e-09
1.32002e-09
2.57284e-09
4.12721e-09
7.44821e-09
1.22314e-08
2.10827e-08
2.59751e-08
2.72141e-08
1.71454e-08
0
0
0
1.01379e-08
1.7426e-11
0
0
0
0
1.16967e-11
4.00257e-10
1.86255e-09
4.5674e-09
5.90282e-09
2.91837e-09
0
8.98927e-10
3.46717e-09
4.91444e-09
5.60901e-09
8.35054e-09
1.64015e-08
1.19229e-08
0
0
0
0
0
4.32184e-09
7.0505e-09
9.56684e-09
5.18071e-08
3.10277e-07
5.31569e-07
5.89742e-07
6.01474e-07
6.04105e-07
3.9795e-07
1.13411e-07
1.60384e-08
2.37247e-09
2.22873e-09
2.15312e-09
2.17247e-09
2.02748e-09
6.8994e-10
0
9.57746e-10
1.91693e-09
0
0
0
4.29248e-09
9.98259e-09
2.53699e-09
0
0
0
0
0
7.51289e-10
5.01585e-09
2.95525e-09
1.02208e-09
4.36654e-10
1.49837e-09
4.09604e-09
6.50193e-09
6.16934e-09
0
0
0
0
0
0
0
0
0
0
0
0
0
0
0
0
0
5.62354e-10
1.46807e-09
2.68503e-09
2.64872e-09
1.71615e-09
1.20846e-09
2.08217e-09
3.28303e-09
6.10495e-09
1.01615e-08
1.83804e-08
2.3178e-08
2.42849e-08
1.60292e-08
0
0
0
0
1.6676e-11
1.36487e-12
0
0
0
6.99747e-11
4.10948e-10
1.57634e-09
3.75555e-09
4.67485e-09
1.36584e-09
0
1.46017e-09
3.98389e-09
5.48048e-09
5.62798e-09
7.48605e-09
1.55741e-08
1.43083e-08
0
0
0
0
0
3.31341e-09
5.69836e-09
9.2796e-09
6.18082e-08
3.04597e-07
5.16244e-07
5.84669e-07
6.0821e-07
6.25455e-07
4.05843e-07
1.00894e-07
1.26211e-08
3.98551e-09
3.92686e-09
3.42945e-09
3.09842e-09
2.85096e-09
1.49698e-09
1.73191e-10
1.02892e-09
2.46553e-09
0
0
0
2.24729e-09
9.66463e-09
5.26907e-09
0
0
0
0
0
0
4.21501e-09
2.38699e-09
1.78952e-10
0
0
9.85616e-10
3.09145e-09
3.60978e-09
0
0
0
0
0
0
0
0
0
0
0
0
2.51564e-09
5.79766e-11
0
0
6.30493e-10
1.00606e-09
1.65447e-09
2.78868e-09
2.87308e-09
1.88517e-09
1.1321e-09
1.63364e-09
2.46713e-09
4.77245e-09
8.06412e-09
1.55e-08
2.01805e-08
2.12551e-08
1.48846e-08
0
0
0
0
1.32045e-11
3.75319e-12
0
0
4.69753e-12
1.27162e-10
4.81765e-10
1.55297e-09
3.34048e-09
3.71224e-09
0
0
2.15346e-09
4.45467e-09
5.98966e-09
5.652e-09
6.72687e-09
1.41255e-08
1.59592e-08
1.54641e-09
0
0
0
0
2.19432e-09
4.20763e-09
9.07207e-09
6.9173e-08
2.96977e-07
5.00757e-07
5.77128e-07
6.12807e-07
6.46476e-07
4.09577e-07
8.43831e-08
9.26321e-09
5.67175e-09
5.58905e-09
4.69692e-09
4.02045e-09
3.64572e-09
2.31784e-09
7.02409e-10
1.11528e-09
2.84484e-09
7.25097e-11
0
0
2.07835e-10
8.92528e-09
7.14055e-09
0
0
0
0
0
0
3.24983e-09
1.79389e-09
0
0
0
0
0
9.39161e-10
0
0
0
0
0
0
0
0
0
0
0
0
5.48488e-09
3.07714e-09
8.7947e-10
8.0452e-10
1.37102e-09
1.51084e-09
1.88015e-09
2.88431e-09
3.08182e-09
2.07515e-09