/*--------------------------------*- C++ -*----------------------------------*\
  =========                 |
  \\      /  F ield         | OpenFOAM: The Open Source CFD Toolbox
   \\    /   O peration     | Website:  https://openfoam.org
    \\  /    A nd           | Version:  7
     \\/     M anipulation  |
\*---------------------------------------------------------------------------*/
FoamFile
{
    version     2.0;
    format      ascii;
    class       volScalarField;
    location    "0.34";
    object      p;
}
// * * * * * * * * * * * * * * * * * * * * * * * * * * * * * * * * * * * * * //

dimensions      [0 2 -2 0 0 0 0];

internalField   nonuniform List<scalar> 
70000
(
0.115779
0.0388929
0.0257531
0.028214
0.0284859
0.0274518
0.0265063
0.0257907
0.0251962
0.0246728
0.0242068
0.0237901
0.0234152
0.0230754
0.0227653
0.0224803
0.0222165
0.0219708
0.0217403
0.0215227
0.0213159
0.0211178
0.0209267
0.0207409
0.0205588
0.0203788
0.0201992
0.0200185
0.0198349
0.0196467
0.0194522
0.0192491
0.0190356
0.0188093
0.0185678
0.0183084
0.0180287
0.0177252
0.0173959
0.0170372
0.0166468
0.0162249
0.015764
0.0152835
0.0147491
0.0142496
0.013653
0.0132749
0.0126373
0.0128505
0.111479
0.0392548
0.0259557
0.0283086
0.0285403
0.0274875
0.0265342
0.0258137
0.0252155
0.0246894
0.0242212
0.0238028
0.0234265
0.0230856
0.0227746
0.0224888
0.0222243
0.021978
0.021747
0.021529
0.0213217
0.0211233
0.0209318
0.0207458
0.0205634
0.0203831
0.0202033
0.0200224
0.0198386
0.0196502
0.0194555
0.0192522
0.0190385
0.018812
0.0185704
0.0183108
0.0180308
0.0177272
0.0173975
0.0170386
0.0166478
0.0162256
0.0157642
0.0152831
0.014748
0.0142477
0.0136501
0.0132698
0.0126377
0.0128754
0.107874
0.0401773
0.0263002
0.0284372
0.028615
0.0275325
0.0265665
0.02584
0.0252374
0.0247078
0.0242371
0.0238167
0.0234389
0.0230968
0.0227847
0.022498
0.0222328
0.0219858
0.0217543
0.0215358
0.021328
0.0211292
0.0209374
0.020751
0.0205684
0.0203878
0.0202078
0.0200266
0.0198427
0.0196541
0.0194592
0.0192558
0.0190419
0.0188152
0.0185734
0.0183136
0.0180335
0.0177297
0.0173998
0.0170407
0.0166496
0.016227
0.015765
0.0152837
0.0147475
0.0142464
0.0136472
0.0132631
0.0126534
0.0128801
0.104769
0.0412764
0.0267767
0.0286098
0.0287162
0.0275905
0.0266047
0.0258699
0.025262
0.0247284
0.0242546
0.0238319
0.0234523
0.0231088
0.0227955
0.0225078
0.0222418
0.0219941
0.0217619
0.0215429
0.0213347
0.0211355
0.0209433
0.0207566
0.0205737
0.0203929
0.0202126
0.0200312
0.0198471
0.0196584
0.0194632
0.0192597
0.0190457
0.0188189
0.018577
0.0183172
0.018037
0.017733
0.017403
0.0170438
0.0166525
0.0162297
0.0157674
0.0152851
0.0147486
0.0142461
0.0136462
0.0132544
0.0126793
0.0128623
0.101813
0.0423701
0.0273501
0.0288281
0.0288507
0.0276689
0.0266538
0.0259069
0.025292
0.0247531
0.0242752
0.0238496
0.0234677
0.0231224
0.0228077
0.0225188
0.0222518
0.0220033
0.0217705
0.0215508
0.0213421
0.0211424
0.0209499
0.0207628
0.0205795
0.0203985
0.020218
0.0200364
0.0198521
0.0196632
0.019468
0.0192643
0.0190503
0.0188234
0.0185815
0.0183217
0.0180415
0.0177376
0.0174077
0.0170485
0.0166573
0.0162345
0.015772
0.0152895
0.0147526
0.0142479
0.0136485
0.0132448
0.0127091
0.012829
0.0989055
0.0434022
0.027974
0.0290725
0.0290129
0.0277694
0.0267163
0.0259532
0.0253294
0.0247836
0.0243006
0.0238711
0.0234863
0.0231387
0.0228222
0.0225319
0.0222636
0.0220141
0.0217804
0.02156
0.0213506
0.0211504
0.0209574
0.0207699
0.0205863
0.020405
0.0202242
0.0200425
0.019858
0.019669
0.0194737
0.01927
0.019056
0.0188292
0.0185873
0.0183276
0.0180477
0.017744
0.0174144
0.0170556
0.0166647
0.0162423
0.01578
0.0152974
0.0147597
0.0142533
0.0136559
0.0132366
0.012739
0.0127812
0.0960401
0.0443554
0.0286149
0.029322
0.0291892
0.0278873
0.0267913
0.0260088
0.0253745
0.0248207
0.0243313
0.0238971
0.0235088
0.0231584
0.0228397
0.0225475
0.0222778
0.022027
0.0217922
0.0215709
0.0213608
0.0211599
0.0209664
0.0207784
0.0205944
0.0204127
0.0202317
0.0200497
0.0198651
0.019676
0.0194807
0.019277
0.0190631
0.0188364
0.0185949
0.0183355
0.0180559
0.0177528
0.0174238
0.0170657
0.0166755
0.016254
0.0157925
0.0153103
0.0147734
0.014264
0.0136702
0.0132322
0.0127661
0.012718
0.0932257
0.0452233
0.0292567
0.0295648
0.0293689
0.0280159
0.0268754
0.0260716
0.0254262
0.0248637
0.0243674
0.0239278
0.0235354
0.0231818
0.0228604
0.0225661
0.0222946
0.0220423
0.0218062
0.0215839
0.0213729
0.0211712
0.020977
0.0207885
0.0206041
0.020422
0.0202407
0.0200585
0.0198737
0.0196846
0.0194893
0.0192858
0.019072
0.0188457
0.0186046
0.0183457
0.0180669
0.0177646
0.0174366
0.0170797
0.0166908
0.0162707
0.0158107
0.0153295
0.0147943
0.0142817
0.013693
0.0132343
0.0127887
0.0126396
0.0904687
0.0460033
0.0298938
0.029797
0.0295458
0.0281505
0.0269651
0.0261391
0.0254824
0.0249112
0.0244076
0.0239624
0.0235656
0.0232085
0.0228843
0.0225876
0.0223141
0.0220601
0.0218227
0.0215991
0.0213871
0.0211846
0.0209896
0.0208005
0.0206156
0.0204331
0.0202515
0.0200691
0.0198842
0.019695
0.0194998
0.0192965
0.0190831
0.0188573
0.0186168
0.0183588
0.0180809
0.0177799
0.0174533
0.0170981
0.0167111
0.0162933
0.0158356
0.0153562
0.0148239
0.0143083
0.0137256
0.013245
0.0128058
0.0125471
0.0877726
0.0466946
0.0305248
0.0300186
0.0297169
0.0282881
0.0270584
0.0262091
0.0255413
0.0249616
0.0244508
0.0239999
0.0235986
0.0232379
0.0229108
0.0226116
0.022336
0.0220803
0.0218413
0.0216165
0.0214033
0.0211999
0.0210042
0.0208144
0.0206289
0.020446
0.0202641
0.0200815
0.0198966
0.0197075
0.0195124
0.0193095
0.0190965
0.0188714
0.0186317
0.0183748
0.0180983
0.017799
0.0174743
0.0171216
0.0167372
0.0163224
0.015868
0.0153912
0.0148632
0.0143451
0.0137687
0.0132659
0.0128179
0.0124434
0.0851407
0.0472976
0.0311489
0.0302304
0.0298809
0.0284273
0.0271544
0.0262808
0.0256017
0.0250138
0.0244959
0.0240393
0.0236336
0.0232693
0.0229392
0.0226375
0.0223598
0.0221023
0.0218618
0.0216357
0.0214214
0.021217
0.0210205
0.02083
0.020644
0.0204607
0.0202785
0.0200958
0.0199108
0.0197218
0.0195271
0.0193246
0.0191123
0.018888
0.0186495
0.018394
0.0181192
0.0178221
0.0174999
0.0171502
0.0167692
0.0163583
0.0159082
0.0154351
0.0149127
0.0143928
0.0138227
0.0132981
0.0128266
0.0123332
0.0825759
0.0478127
0.0317643
0.0304338
0.0300368
0.0285672
0.0272526
0.0263535
0.025663
0.0250671
0.0245423
0.02408
0.0236699
0.0233021
0.022969
0.0226649
0.0223851
0.0221258
0.0218838
0.0216563
0.021441
0.0212356
0.0210383
0.0208472
0.0206607
0.020477
0.0202946
0.0201117
0.0199268
0.0197381
0.0195437
0.0193418
0.0191304
0.0189072
0.01867
0.0184163
0.0181436
0.0178491
0.0175299
0.0171839
0.016807
0.0164009
0.0159563
0.0154878
0.0149722
0.0144518
0.0138874
0.0133419
0.0128344
0.0122213
0.080081
0.0482406
0.0323689
0.0306301
0.030184
0.028707
0.0273528
0.0264272
0.025725
0.0251212
0.0245895
0.0241216
0.023707
0.0233357
0.0229998
0.0226932
0.0224114
0.0221503
0.0219068
0.0216781
0.0214616
0.0212554
0.0210573
0.0208656
0.0206786
0.0204946
0.020312
0.0201291
0.0199443
0.0197559
0.0195621
0.0193609
0.0191505
0.0189286
0.0186931
0.0184414
0.0181712
0.0178797
0.0175641
0.0172224
0.0168505
0.0164499
0.0160119
0.0155488
0.0150413
0.0145215
0.0139619
0.0133969
0.0128438
0.0121131
0.0776586
0.0485821
0.0329598
0.0308206
0.0303221
0.0288457
0.027455
0.0265018
0.0257874
0.025176
0.0246374
0.0241639
0.0237449
0.0233701
0.0230312
0.0227223
0.0224384
0.0221756
0.0219306
0.0217006
0.0214831
0.021276
0.0210771
0.0208849
0.0206974
0.0205132
0.0203304
0.0201476
0.0199631
0.019775
0.0195819
0.0193816
0.0191723
0.018952
0.0187183
0.018469
0.0182016
0.0179136
0.017602
0.0172652
0.0168989
0.0165046
0.016074
0.0156175
0.0151188
0.014601
0.0140454
0.0134617
0.0128575
0.0120144
0.075311
0.0488387
0.0335341
0.0310071
0.0304506
0.0289826
0.0275591
0.0265774
0.0258502
0.0252313
0.024686
0.0242068
0.0237834
0.023405
0.0230633
0.0227519
0.022466
0.0222015
0.0219551
0.0217238
0.0215053
0.0212972
0.0210977
0.0209049
0.0207171
0.0205326
0.0203498
0.0201671
0.0199828
0.0197953
0.0196029
0.0194036
0.0191957
0.018977
0.0187455
0.0184987
0.0182345
0.0179502
0.0176432
0.0173118
0.0169517
0.0165643
0.016142
0.0156928
0.0152035
0.0146891
0.0141364
0.0135356
0.0128786
0.0119314
0.0730402
0.0490121
0.0340885
0.0311909
0.0305694
0.0291165
0.0276647
0.0266539
0.0259134
0.0252871
0.0247352
0.0242503
0.0238224
0.0234405
0.0230959
0.0227821
0.0224942
0.0222279
0.02198
0.0217475
0.021528
0.0213191
0.0211189
0.0209256
0.0207374
0.0205527
0.0203699
0.0201873
0.0200034
0.0198165
0.0196249
0.0194268
0.0192203
0.0190035
0.0187742
0.0185303
0.0182694
0.0179894
0.0176872
0.0173615
0.0170082
0.0166283
0.0162149
0.0157738
0.0152944
0.0147846
0.014234
0.0136179
0.0129096
0.0118693
0.0708479
0.0491045
0.0346198
0.0313735
0.0306786
0.0292464
0.0277716
0.0267314
0.0259768
0.0253432
0.024785
0.0242945
0.023862
0.0234766
0.0231291
0.0228128
0.0225228
0.0222549
0.0220055
0.0217718
0.0215512
0.0213414
0.0211406
0.0209468
0.0207583
0.0205734
0.0203906
0.0202083
0.0200248
0.0198385
0.0196478
0.0194509
0.019246
0.0190312
0.0188044
0.0185635
0.0183063
0.0180306
0.0177337
0.0174141
0.0170681
0.016696
0.0162921
0.0158598
0.0153906
0.0148865
0.0143374
0.0137082
0.012953
0.011833
0.0687352
0.0491185
0.035125
0.0315558
0.0307783
0.0293715
0.0278793
0.0268099
0.0260404
0.0253997
0.0248353
0.0243392
0.0239022
0.0235131
0.0231627
0.022844
0.022552
0.0222823
0.0220314
0.0217965
0.0215749
0.0213643
0.0211628
0.0209685
0.0207797
0.0205947
0.0204119
0.0202299
0.0200469
0.0198613
0.0196716
0.0194761
0.0192728
0.0190601
0.0188359
0.0185983
0.0183449
0.0180738
0.0177824
0.0174693
0.0171308
0.0167671
0.016373
0.0159502
0.0154914
0.0149941
0.0144466
0.0138066
0.0130109
0.0118262
0.0667028
0.0490575
0.0356011
0.0317386
0.030869
0.0294906
0.0279875
0.0268894
0.0261042
0.0254563
0.0248861
0.0243844
0.0239428
0.0235502
0.0231968
0.0228757
0.0225816
0.0223101
0.0220578
0.0218217
0.021599
0.0213877
0.0211855
0.0209907
0.0208016
0.0206165
0.0204339
0.0202521
0.0200696
0.0198849
0.0196962
0.0195021
0.0193007
0.0190902
0.0188687
0.0186344
0.0183851
0.0181189
0.0178333
0.0175269
0.0171964
0.0168414
0.0164575
0.0160447
0.0155966
0.0151069
0.0145616
0.0139137
0.0130852
0.0118524
0.0647512
0.048925
0.036045
0.0319223
0.0309511
0.0296028
0.0280955
0.0269698
0.0261681
0.0255131
0.0249373
0.0244301
0.023984
0.0235877
0.0232315
0.0229079
0.0226117
0.0223385
0.0220847
0.0218473
0.0216237
0.0214115
0.0212087
0.0210135
0.0208241
0.020639
0.0204564
0.020275
0.0200931
0.0199092
0.0197217
0.019529
0.0193295
0.0191214
0.0189029
0.0186721
0.018427
0.0181659
0.0178863
0.0175869
0.0172646
0.0169188
0.0165454
0.0161432
0.0157061
0.0152251
0.0146831
0.0140301
0.0131778
0.0119141
0.0628802
0.0487252
0.036454
0.0321071
0.0310254
0.0297075
0.0282027
0.0270512
0.0262321
0.0255699
0.0249888
0.0244763
0.0240256
0.0236258
0.0232665
0.0229406
0.0226423
0.0223674
0.0221121
0.0218735
0.0216488
0.0214358
0.0212325
0.0210368
0.0208472
0.020662
0.0204796
0.0202985
0.0201173
0.0199343
0.019748
0.0195569
0.0193594
0.0191538
0.0189383
0.0187112
0.0184706
0.0182147
0.0179414
0.0176493
0.0173356
0.0169993
0.0166367
0.0162457
0.01582
0.0153487
0.0148116
0.0141572
0.0132905
0.0120133
0.0610894
0.0484628
0.0368254
0.0322925
0.0310928
0.0298038
0.0283083
0.0271334
0.0262963
0.0256265
0.0250405
0.0245229
0.0240677
0.0236642
0.0233021
0.0229737
0.0226734
0.0223967
0.02214
0.0219002
0.0216745
0.0214607
0.0212567
0.0210607
0.0208708
0.0206856
0.0205034
0.0203228
0.0201422
0.0199602
0.0197752
0.0195858
0.0193904
0.0191874
0.0189751
0.0187518
0.0185158
0.0182655
0.0179987
0.0177141
0.0174093
0.0170829
0.0167316
0.0163523
0.0159386
0.0154781
0.0149479
0.014296
0.0134249
0.0121515
0.0593778
0.0481425
0.0371569
0.032478
0.0311541
0.0298914
0.0284116
0.0272161
0.0263605
0.025683
0.0250923
0.0245699
0.0241102
0.0237031
0.0233381
0.0230073
0.0227049
0.0224265
0.0221684
0.0219273
0.0217007
0.0214861
0.0212815
0.0210851
0.020895
0.0207098
0.0205279
0.0203477
0.0201679
0.0199869
0.0198033
0.0196157
0.0194225
0.0192222
0.0190132
0.018794
0.0185629
0.0183182
0.0180583
0.0177815
0.0174859
0.0171698
0.0168301
0.0164631
0.0160622
0.0156137
0.0150928
0.014448
0.0135825
0.0123297
0.0577442
0.0477696
0.0374466
0.0326623
0.0312104
0.02997
0.0285116
0.0272992
0.0264248
0.0257392
0.0251441
0.0246171
0.0241531
0.0237424
0.0233745
0.0230413
0.0227369
0.0224568
0.0221972
0.0219549
0.0217273
0.021512
0.0213068
0.02111
0.0209198
0.0207347
0.020553
0.0203734
0.0201943
0.0200145
0.0198324
0.0196466
0.0194557
0.0192583
0.0190528
0.0188378
0.0186117
0.018373
0.0181201
0.0178516
0.0175654
0.01726
0.0169324
0.0165784
0.016191
0.0157559
0.015247
0.0146143
0.0137642
0.0125479
0.056187
0.0473496
0.0376926
0.0328441
0.0312627
0.0300393
0.0286076
0.0273824
0.0264893
0.025795
0.0251958
0.0246646
0.0241963
0.023782
0.0234113
0.0230757
0.0227693
0.0224875
0.0222265
0.0219831
0.0217545
0.0215384
0.0213327
0.0211356
0.0209452
0.0207602
0.0205788
0.0203998
0.0202216
0.0200429
0.0198624
0.0196786
0.0194902
0.0192958
0.0190939
0.0188833
0.0186624
0.01843
0.0181843
0.0179243
0.017648
0.0173537
0.0170386
0.0166983
0.0163254
0.0159054
0.0154114
0.0147958
0.0139709
0.012806
0.0547042
0.0468881
0.0378939
0.0330214
0.031312
0.0300996
0.0286986
0.0274651
0.0265538
0.0258504
0.0252473
0.0247123
0.0242398
0.023822
0.0234484
0.0231106
0.0228022
0.0225187
0.0222563
0.0220117
0.0217821
0.0215653
0.0213591
0.0211617
0.0209713
0.0207863
0.0206054
0.0204269
0.0202497
0.0200723
0.0198934
0.0197117
0.0195258
0.0193346
0.0191366
0.0189305
0.0187151
0.0184891
0.018251
0.0179998
0.0177337
0.017451
0.0171489
0.0168231
0.0164657
0.0160625
0.0155866
0.0149934
0.0142029
0.013103
0.0532935
0.0463909
0.0380495
0.0331921
0.0313591
0.030151
0.0287837
0.027547
0.0266183
0.0259053
0.0252984
0.0247599
0.0242835
0.0238622
0.0234859
0.0231458
0.0228355
0.0225503
0.0222865
0.0220407
0.0218103
0.0215928
0.0213861
0.0211884
0.0209979
0.0208131
0.0206326
0.0204549
0.0202786
0.0201026
0.0199254
0.0197459
0.0195627
0.0193748
0.0191808
0.0189795
0.0187697
0.0185504
0.0183202
0.0180781
0.0178226
0.017552
0.0172635
0.0169529
0.0166122
0.0162276
0.0157732
0.0152077
0.0144605
0.0134376
0.0519526
0.0458634
0.0381592
0.0333538
0.0314049
0.0301941
0.0288624
0.0276273
0.0266828
0.0259597
0.0253491
0.0248075
0.0243275
0.0239028
0.0235237
0.0231813
0.0228691
0.0225824
0.0223172
0.0220703
0.021839
0.0216208
0.0214137
0.0212157
0.0210252
0.0208406
0.0206606
0.0204836
0.0203084
0.0201338
0.0199585
0.0197813
0.019601
0.0194164
0.0192266
0.0190302
0.0188264
0.018614
0.018392
0.0181593
0.0179148
0.0176567
0.0173825
0.0170879
0.0167652
0.0164011
0.0159715
0.0154392
0.0147431
0.0138077
0.0506786
0.0453115
0.0382233
0.0335037
0.0314499
0.0302294
0.0289338
0.0277056
0.026747
0.0260136
0.0253991
0.0248549
0.0243715
0.0239435
0.0235617
0.0232172
0.0229031
0.0226148
0.0223483
0.0221003
0.0218682
0.0216493
0.0214418
0.0212436
0.0210531
0.0208688
0.0206893
0.0205132
0.0203392
0.020166
0.0199926
0.0198178
0.0196405
0.0194596
0.019274
0.0190829
0.0188851
0.0186799
0.0184664
0.0182435
0.0180103
0.0177653
0.017506
0.0172283
0.0169249
0.0165834
0.0161819
0.0156878
0.0150502
0.0142111
0.0494687
0.0447403
0.0382426
0.0336395
0.0314942
0.0302577
0.0289976
0.027781
0.0268108
0.0260669
0.0254484
0.0249019
0.0244155
0.0239844
0.0236
0.0232533
0.0229375
0.0226476
0.0223798
0.0221308
0.0218978
0.0216784
0.0214704
0.0212721
0.0210817
0.0208977
0.0207188
0.0205435
0.0203708
0.0201993
0.0200279
0.0198556
0.0196814
0.0195042
0.0193232
0.0191374
0.018946
0.0187483
0.0185434
0.0183308
0.0181093
0.0178778
0.017634
0.0173742
0.0170915
0.0167747
0.0164045
0.0159533
0.0153807
0.0146449
0.0483201
0.044155
0.0382183
0.0337586
0.0315378
0.0302798
0.0290533
0.0278529
0.0268739
0.0261195
0.025497
0.0249485
0.0244594
0.0240254
0.0236384
0.0232897
0.0229721
0.0226808
0.0224118
0.0221618
0.021928
0.021708
0.0214997
0.0213012
0.0211109
0.0209273
0.0207491
0.0205748
0.0204033
0.0202335
0.0200643
0.0198947
0.0197237
0.0195505
0.0193741
0.0191938
0.019009
0.018819
0.0186232
0.0184211
0.0182118
0.0179943
0.0177668
0.0175257
0.0172651
0.016975
0.0166393
0.0162355
0.0157332
0.0151059
0.0472295
0.04356
0.0381524
0.0338589
0.0315801
0.0302964
0.0291009
0.0279205
0.026936
0.0261716
0.0255446
0.0249944
0.0245032
0.0240664
0.0236769
0.0233262
0.023007
0.0227143
0.0224441
0.0221931
0.0219586
0.0217381
0.0215295
0.0213309
0.0211408
0.0209577
0.0207801
0.0206069
0.0204368
0.0202688
0.0201019
0.019935
0.0197674
0.0195982
0.0194267
0.0192523
0.0190742
0.0188922
0.0187058
0.0185144
0.0183178
0.0181149
0.0179042
0.0176828
0.0174457
0.0171844
0.016886
0.0165334
0.0161059
0.0155906
0.046194
0.0429597
0.0380472
0.0339386
0.0316203
0.0303083
0.0291403
0.0279832
0.0269966
0.0262228
0.0255913
0.0250396
0.0245466
0.0241073
0.0237155
0.0233629
0.0230422
0.0227481
0.0224768
0.0222249
0.0219897
0.0217687
0.0215598
0.0213613
0.0211714
0.0209887
0.0208119
0.0206398
0.0204712
0.0203051
0.0201406
0.0199766
0.0198126
0.0196476
0.0194811
0.0193126
0.0191417
0.0189679
0.0187911
0.018611
0.0184273
0.0182395
0.0180464
0.0178457
0.0176333
0.0174027
0.0171442
0.0168461
0.0164967
0.0160953
0.0452105
0.0423576
0.0379053
0.033996
0.0316574
0.0303161
0.0291718
0.0280402
0.0270552
0.0262732
0.0256369
0.025084
0.0245896
0.0241481
0.0237542
0.0233997
0.0230775
0.0227822
0.0225098
0.022257
0.0220212
0.0217998
0.0215907
0.0213922
0.0212026
0.0210205
0.0208446
0.0206737
0.0205066
0.0203425
0.0201804
0.0200196
0.0198592
0.0196986
0.0195374
0.019375
0.0192113
0.019046
0.0188791
0.0187106
0.0185404
0.0183681
0.0181933
0.0180142
0.0178279
0.0176297
0.0174134
0.0171723
0.0169032
0.0166159
0.0442759
0.0417571
0.0377299
0.0340301
0.0316898
0.0303203
0.0291956
0.0280911
0.0271113
0.0263225
0.0256815
0.0251273
0.024632
0.0241887
0.0237927
0.0234365
0.0231129
0.0228165
0.0225431
0.0222895
0.0220531
0.0218313
0.0216221
0.0214237
0.0212345
0.021053
0.020878
0.0207084
0.020543
0.020381
0.0202215
0.0200638
0.0199072
0.0197512
0.0195954
0.0194394
0.0192832
0.0191267
0.01897
0.0188133
0.0186569
0.0185008
0.0183449
0.0181881
0.0180291
0.0178649
0.0176926
0.0175106
0.017323
0.0171485
0.0433874
0.0411611
0.0375241
0.03404
0.0317162
0.0303212
0.0292123
0.0281355
0.0271643
0.0263706
0.0257249
0.0251695
0.0246736
0.0242289
0.0238311
0.0234733
0.0231485
0.0228509
0.0225766
0.0223224
0.0220854
0.0218633
0.0216541
0.0214558
0.021267
0.0210862
0.0209122
0.020744
0.0205804
0.0204206
0.0202638
0.0201094
0.0199567
0.0198054
0.0196552
0.0195058
0.0193573
0.0192097
0.0190635
0.0189191
0.0187769
0.0186373
0.0185009
0.0183674
0.0182366
0.0181077
0.0179809
0.0178591
0.0177531
0.0176887
0.042542
0.0405717
0.0372914
0.0340253
0.031735
0.0303189
0.0292221
0.028173
0.0272136
0.0264171
0.0257671
0.0252104
0.0247143
0.0242687
0.0238693
0.02351
0.023184
0.0228855
0.0226104
0.0223555
0.0221181
0.0218958
0.0216865
0.0214885
0.0213002
0.0211202
0.0209473
0.0207804
0.0206187
0.0204612
0.0203073
0.0201563
0.0200077
0.0198613
0.0197168
0.0195742
0.0194335
0.0192952
0.0191598
0.0190278
0.0189002
0.0187776
0.0186613
0.0185517
0.01845
0.0183574
0.0182771
0.0182161
0.0181906
0.0182323
0.041737
0.039991
0.0370351
0.0339862
0.0317447
0.0303134
0.0292258
0.0282035
0.0272588
0.0264618
0.0258079
0.0252501
0.024754
0.0243078
0.0239071
0.0235466
0.0232195
0.0229201
0.0226444
0.0223889
0.0221512
0.0219287
0.0217195
0.0215217
0.0213339
0.0211548
0.0209831
0.0208178
0.020658
0.0205029
0.0203519
0.0202045
0.0200602
0.0199188
0.0197802
0.0196445
0.019512
0.0193831
0.0192587
0.0191394
0.0190267
0.0189216
0.0188257
0.0187406
0.0186687
0.0186131
0.0185797
0.0185792
0.0186324
0.0187749
0.0409698
0.0394204
0.0367586
0.0339231
0.0317437
0.0303043
0.0292238
0.028227
0.0272992
0.0265041
0.0258473
0.0252883
0.0247925
0.0243461
0.0239446
0.0235829
0.0232549
0.0229548
0.0226784
0.0224226
0.0221845
0.0219619
0.0217528
0.0215555
0.0213683
0.0211901
0.0210197
0.020856
0.0206983
0.0205457
0.0203978
0.020254
0.0201141
0.0199778
0.0198453
0.0197167
0.0195925
0.0194733
0.01936
0.0192538
0.0191562
0.0190688
0.0189938
0.0189337
0.0188921
0.0188737
0.0188873
0.0189464
0.0190752
0.0193126
0.040238
0.0388612
0.0364651
0.0338368
0.0317308
0.0302911
0.0292164
0.0282435
0.0273345
0.0265438
0.025885
0.025325
0.0248297
0.0243836
0.0239815
0.0236189
0.0232901
0.0229894
0.0227126
0.0224564
0.0222181
0.0219955
0.0217867
0.0215898
0.0214033
0.0212261
0.021057
0.0208951
0.0207395
0.0205896
0.0204448
0.0203048
0.0201694
0.0200384
0.0199121
0.0197908
0.0196751
0.0195657
0.0194638
0.0193708
0.0192886
0.0192191
0.0191653
0.0191304
0.0191192
0.0191382
0.0191982
0.0193151
0.019516
0.0198411
0.0395394
0.0383143
0.0361575
0.0337284
0.031705
0.0302731
0.029204
0.0282532
0.0273642
0.0265804
0.0259208
0.0253601
0.0248655
0.02442
0.0240177
0.0236544
0.023325
0.0230239
0.0227467
0.0224903
0.0222519
0.0220294
0.0218209
0.0216245
0.0214389
0.0212628
0.0210951
0.020935
0.0207816
0.0206344
0.0204929
0.0203569
0.0202261
0.0201006
0.0199806
0.0198667
0.0197595
0.0196601
0.0195698
0.0194902
0.0194235
0.0193722
0.0193397
0.01933
0.0193493
0.0194052
0.0195104
0.0196829
0.0199514
0.0203566
0.0388717
0.0377801
0.0358388
0.0335993
0.0316655
0.0302496
0.0291868
0.0282564
0.0273881
0.0266133
0.0259546
0.0253934
0.0248997
0.0244552
0.0240531
0.0236895
0.0233596
0.0230581
0.0227808
0.0225242
0.0222859
0.0220636
0.0218554
0.0216597
0.021475
0.0213
0.0211339
0.0209757
0.0208246
0.0206803
0.0205422
0.0204101
0.0202841
0.0201641
0.0200507
0.0199443
0.0198458
0.0197565
0.0196779
0.0196118
0.0195607
0.0195276
0.0195164
0.0195319
0.0195812
0.0196733
0.0198222
0.0200473
0.0203782
0.0208555
0.038233
0.0372592
0.0355113
0.0334511
0.0316119
0.0302198
0.0291648
0.0282533
0.0274059
0.0266423
0.0259859
0.0254249
0.0249323
0.024489
0.0240875
0.0237239
0.0233937
0.0230921
0.0228147
0.0225582
0.02232
0.022098
0.0218903
0.0216953
0.0215115
0.0213379
0.0211733
0.0210171
0.0208685
0.0207271
0.0205925
0.0204646
0.0203433
0.0202291
0.0201222
0.0200234
0.0199338
0.0198547
0.0197877
0.0197352
0.0196997
0.0196848
0.0196947
0.0197352
0.0198138
0.019941
0.0201315
0.0204057
0.0207936
0.0213342
0.0376214
0.0367516
0.0351774
0.0332855
0.031544
0.0301829
0.029138
0.0282441
0.0274177
0.0266669
0.0260145
0.0254544
0.024963
0.0245214
0.0241209
0.0237575
0.0234274
0.0231257
0.0228484
0.0225921
0.0223542
0.0221326
0.0219254
0.0217312
0.0215485
0.0213763
0.0212134
0.0210593
0.0209132
0.0207748
0.0206438
0.0205201
0.0204038
0.0202953
0.020195
0.020104
0.0200233
0.0199543
0.0198992
0.0198601
0.0198402
0.0198432
0.0198741
0.0199389
0.0200461
0.0202066
0.0204364
0.0207558
0.0211945
0.0217898
0.0370353
0.0362574
0.034839
0.0331043
0.0314617
0.0301381
0.0291062
0.0282292
0.0274233
0.0266868
0.0260401
0.0254817
0.0249919
0.0245521
0.024153
0.0237903
0.0234604
0.0231589
0.0228818
0.0226258
0.0223883
0.0221672
0.0219608
0.0217675
0.021586
0.0214151
0.0212541
0.0211021
0.0209587
0.0208234
0.020696
0.0205766
0.0204654
0.0203626
0.0202692
0.0201859
0.020114
0.0200553
0.0200118
0.0199862
0.0199817
0.0200024
0.0200537
0.0201421
0.0202766
0.0204687
0.0207346
0.0210949
0.0215783
0.0222196
0.036473
0.0357766
0.0344979
0.0329092
0.0313655
0.0300848
0.0290691
0.0282086
0.0274228
0.0267017
0.0260624
0.0255066
0.0250187
0.0245811
0.0241837
0.023822
0.0234926
0.0231915
0.0229149
0.0226593
0.0224223
0.0222019
0.0219963
0.021804
0.0216237
0.0214544
0.0212953
0.0211456
0.0210049
0.0208727
0.0207491
0.0206341
0.0205279
0.0204311
0.0203443
0.0202688
0.0202059
0.0201573
0.0201255
0.0201131
0.0201237
0.0201617
0.0202327
0.0203437
0.020504
0.0207255
0.0210243
0.0214209
0.0219423
0.0226211
0.0359331
0.0353089
0.0341556
0.032702
0.0312558
0.0300226
0.0290265
0.0281826
0.0274164
0.0267114
0.0260809
0.0255289
0.0250433
0.0246081
0.0242128
0.0238526
0.023524
0.0232235
0.0229474
0.0226925
0.0224562
0.0222365
0.0220318
0.0218406
0.0216617
0.0214941
0.0213369
0.0211896
0.0210516
0.0209228
0.020803
0.0206924
0.0205913
0.0205004
0.0204204
0.0203527
0.0202986
0.0202601
0.0202396
0.0202402
0.0202655
0.0203202
0.0204101
0.0205426
0.020727
0.0209754
0.0213035
0.021731
0.0222839
0.0229928
0.0354142
0.0348542
0.0338133
0.0324844
0.0311333
0.0299511
0.0289779
0.0281512
0.027404
0.0267158
0.0260954
0.0255483
0.0250657
0.0246332
0.0242403
0.0238818
0.0235543
0.0232547
0.0229794
0.0227252
0.0224897
0.022271
0.0220674
0.0218774
0.0217
0.0215341
0.021379
0.021234
0.0210989
0.0209734
0.0208575
0.0207514
0.0206554
0.0205704
0.0204972
0.0204371
0.0203918
0.0203632
0.0203539
0.0203671
0.0204067
0.0204773
0.0205852
0.0207376
0.0209442
0.0212167
0.0215703
0.0220236
0.0226008
0.0233337
0.0349152
0.0344122
0.0334722
0.0322579
0.0309988
0.0298702
0.0289231
0.0281143
0.0273859
0.0267147
0.0261056
0.0255645
0.0250855
0.024656
0.0242659
0.0239095
0.0235836
0.023285
0.0230107
0.0227575
0.022523
0.0223053
0.0221028
0.0219142
0.0217383
0.0215743
0.0214213
0.0212789
0.0211467
0.0210245
0.0209125
0.0208109
0.0207201
0.020641
0.0205745
0.020522
0.0204852
0.0204663
0.0204679
0.0204933
0.0205464
0.0206322
0.0207568
0.0209277
0.0211543
0.0214479
0.0218231
0.0222969
0.0228903
0.0236208
0.0344347
0.0339826
0.0331332
0.0320241
0.0308531
0.0297797
0.0288616
0.028072
0.0273622
0.0267081
0.0261113
0.0255774
0.0251027
0.0246766
0.0242896
0.0239356
0.0236115
0.0233143
0.0230411
0.0227891
0.0225557
0.0223392
0.0221381
0.0219509
0.0217767
0.0216145
0.0214638
0.0213239
0.0211947
0.021076
0.0209679
0.0208708
0.0207852
0.0207119
0.020652
0.020607
0.0205786
0.020569
0.020581
0.020618
0.020684
0.020784
0.0209241
0.0211116
0.0213557
0.0216675
0.0220603
0.0225497
0.0231543
0.0238926
0.0339718
0.0335649
0.0327969
0.0317843
0.0306973
0.0296799
0.0287934
0.0280242
0.0273329
0.026696
0.0261124
0.0255866
0.025117
0.0246948
0.0243111
0.02396
0.023638
0.0233425
0.0230707
0.02282
0.0225879
0.0223728
0.022173
0.0219874
0.021815
0.0216549
0.0215064
0.0213692
0.021243
0.0211277
0.0210236
0.020931
0.0208504
0.0207829
0.0207295
0.0206917
0.0206714
0.0206708
0.0206929
0.0207408
0.0208188
0.0209319
0.0210859
0.0212881
0.0215474
0.021874
0.0222803
0.0227804
0.0233907
0.0241279
0.0335254
0.033159
0.0324642
0.0315398
0.0305324
0.029571
0.0287181
0.0279706
0.027298
0.0266785
0.0261086
0.025592
0.0251282
0.0247103
0.0243304
0.0239824
0.0236629
0.0233693
0.0230992
0.02285
0.0226194
0.0224058
0.0222076
0.0220237
0.0218531
0.021695
0.021549
0.0214144
0.0212913
0.0211795
0.0210793
0.0209911
0.0209156
0.0208537
0.0208066
0.0207758
0.0207633
0.0207714
0.0208028
0.020861
0.0209501
0.0210749
0.0212413
0.0214562
0.021728
0.0220661
0.0224819
0.0229879
0.0235982
0.024327
0.0330948
0.0327644
0.0321353
0.0312916
0.0303593
0.0294534
0.0286357
0.0279113
0.0272578
0.0266555
0.0260998
0.0255933
0.0251361
0.0247231
0.0243472
0.0240027
0.0236861
0.0233948
0.0231265
0.022879
0.0226501
0.0224381
0.0222416
0.0220595
0.0218909
0.021735
0.0215913
0.0214595
0.0213395
0.0212312
0.0211349
0.0210511
0.0209805
0.0209241
0.0208831
0.020859
0.0208539
0.02087
0.0209102
0.0209779
0.0210769
0.0212122
0.0213893
0.0216147
0.0218962
0.0222426
0.022664
0.0231711
0.023776
0.0244903
0.0326789
0.0323807
0.0318109
0.0310408
0.030179
0.0293276
0.0285461
0.0278461
0.027212
0.0266272
0.0260861
0.0255903
0.0251406
0.024733
0.0243615
0.0240208
0.0237073
0.0234186
0.0231525
0.0229069
0.0226799
0.0224697
0.022275
0.0220948
0.0219283
0.0217746
0.0216334
0.0215044
0.0213874
0.0212825
0.0211901
0.0211106
0.0210448
0.0209937
0.0209585
0.0209409
0.0209427
0.0209664
0.0210146
0.0210907
0.0211987
0.0213429
0.0215289
0.0217626
0.0220512
0.0224026
0.0228256
0.0233294
0.0239241
0.0246185
0.0322769
0.0320077
0.0314912
0.0307883
0.0299925
0.029194
0.0284496
0.027775
0.0271608
0.0265935
0.0260673
0.025583
0.0251414
0.0247398
0.0243732
0.0240366
0.0237266
0.0234407
0.023177
0.0229336
0.0227086
0.0225003
0.0223076
0.0221295
0.021965
0.0218137
0.021675
0.0215488
0.0214349
0.0213334
0.0212448
0.0211695
0.0211083
0.0210622
0.0210326
0.021021
0.0210293
0.0210598
0.0211153
0.0211989
0.0213145
0.0214662
0.0216591
0.0218989
0.0221919
0.022545
0.022966
0.0234624
0.0240423
0.0247123
0.0318883
0.0316449
0.0311765
0.0305349
0.0298006
0.0290534
0.0283462
0.027698
0.0271042
0.0265545
0.0260435
0.0255711
0.0251384
0.0247433
0.024382
0.0240498
0.0237436
0.0234609
0.0231999
0.0229589
0.022736
0.0225299
0.0223393
0.0221633
0.022001
0.0218521
0.021716
0.0215925
0.0214817
0.0213836
0.0212986
0.0212274
0.0211706
0.0211294
0.0211049
0.0210988
0.021113
0.0211498
0.0212117
0.0213018
0.0214236
0.0215813
0.0217793
0.0220228
0.0223174
0.0226693
0.0230847
0.02357
0.0241311
0.0247729
0.0315123
0.0312921
0.0308669
0.0302812
0.0296042
0.0289062
0.0282362
0.027615
0.0270422
0.0265103
0.0260146
0.0255547
0.0251313
0.0247435
0.0243878
0.0240604
0.0237582
0.023479
0.023221
0.0229825
0.0227621
0.0225582
0.0223699
0.0221961
0.0220362
0.0218896
0.0217561
0.0216354
0.0215276
0.0214328
0.0213514
0.021284
0.0212314
0.0211947
0.021175
0.0211741
0.0211936
0.0212357
0.0213031
0.0213985
0.0215254
0.0216873
0.0218885
0.0221335
0.0224272
0.0227748
0.0231815
0.0236521
0.0241911
0.0248014
0.0311481
0.0309488
0.0305627
0.0300279
0.0294041
0.0287531
0.02812
0.0275262
0.0269748
0.0264609
0.0259806
0.0255335
0.0251202
0.02474
0.0243904
0.0240682
0.0237704
0.023495
0.0232401
0.0230045
0.0227866
0.0225852
0.0223992
0.0222277
0.0220702
0.0219261
0.0217952
0.0216773
0.0215724
0.0214808
0.0214028
0.0213391
0.0212905
0.0212579
0.0212426
0.0212462
0.0212703
0.0213171
0.021389
0.0214886
0.021619
0.0217836
0.021986
0.0222303
0.0225206
0.0228612
0.0232562
0.0237092
0.0242232
0.0247996
0.0307954
0.0306147
0.0302639
0.0297755
0.0292011
0.0285947
0.0279977
0.0274317
0.026902
0.0264063
0.0259417
0.0255077
0.0251048
0.0247328
0.0243898
0.024073
0.0237799
0.0235085
0.0232572
0.0230246
0.0228094
0.0226106
0.022427
0.022258
0.0221029
0.0219613
0.021833
0.0217178
0.0216158
0.0215273
0.0214526
0.0213923
0.0213473
0.0213185
0.0213071
0.0213147
0.0213428
0.0213934
0.0214688
0.0215713
0.0217039
0.0218695
0.0220713
0.0223127
0.0225973
0.0229284
0.0233091
0.0237418
0.0242284
0.0247688
0.0304534
0.0302896
0.0299706
0.0295245
0.0289957
0.0284317
0.0278699
0.0273316
0.0268239
0.0263466
0.0258978
0.0254771
0.0250851
0.0247218
0.0243857
0.0240748