/*--------------------------------*- C++ -*----------------------------------*\
  =========                 |
  \\      /  F ield         | OpenFOAM: The Open Source CFD Toolbox
   \\    /   O peration     | Website:  https://openfoam.org
    \\  /    A nd           | Version:  7
     \\/     M anipulation  |
\*---------------------------------------------------------------------------*/
FoamFile
{
    version     2.0;
    format      ascii;
    class       volVectorField;
    location    "0.34";
    object      U;
}
// * * * * * * * * * * * * * * * * * * * * * * * * * * * * * * * * * * * * * //

dimensions      [0 1 -1 0 0 0 0];

internalField   nonuniform List<vector> 
70000
(
(0.55339 0.0167231 0)
(0.25126 0.00340102 0)
(0.1662 0.000322003 0)
(0.132454 5.42787e-05 0)
(0.117264 4.57139e-05 0)
(0.107341 5.38866e-05 0)
(0.0993944 4.6252e-05 0)
(0.092956 3.69121e-05 0)
(0.0877135 3.05971e-05 0)
(0.0833472 2.62678e-05 0)
(0.0796288 2.2965e-05 0)
(0.0764107 2.0316e-05 0)
(0.0735918 1.81508e-05 0)
(0.0710981 1.63565e-05 0)
(0.0688737 1.48491e-05 0)
(0.0668752 1.35666e-05 0)
(0.0650688 1.24634e-05 0)
(0.0634272 1.15033e-05 0)
(0.0619283 1.06609e-05 0)
(0.0605544 9.91348e-06 0)
(0.0592905 9.24528e-06 0)
(0.0581244 8.64194e-06 0)
(0.0570458 8.09219e-06 0)
(0.0560459 7.58626e-06 0)
(0.0551174 7.11641e-06 0)
(0.0542543 6.67461e-06 0)
(0.0534512 6.2552e-06 0)
(0.0527038 5.85187e-06 0)
(0.0520086 5.45787e-06 0)
(0.0513625 5.07035e-06 0)
(0.0507633 4.67786e-06 0)
(0.0502091 4.28374e-06 0)
(0.0496991 3.86746e-06 0)
(0.0492321 3.44377e-06 0)
(0.0488089 2.97315e-06 0)
(0.0484292 2.49664e-06 0)
(0.0480948 1.93455e-06 0)
(0.0478076 1.37603e-06 0)
(0.0475686 6.92388e-07 0)
(0.047386 -1.17795e-08 0)
(0.0472518 -7.67894e-07 0)
(0.0471973 -1.92758e-06 0)
(0.0471716 -2.23749e-06 0)
(0.0472947 -4.46326e-06 0)
(0.0473437 -1.94812e-06 0)
(0.0477602 -8.81522e-06 0)
(0.0477156 3.77228e-06 0)
(0.0486837 -1.79007e-05 0)
(0.0481705 4.37152e-05 0)
(0.0464748 -0.00183105 0)
(0.884898 0.0431675 0)
(0.649714 0.0201941 0)
(0.494319 0.00659835 0)
(0.403666 0.00276761 0)
(0.354744 0.00155203 0)
(0.323445 0.00113167 0)
(0.299589 0.0009105 0)
(0.280396 0.00074661 0)
(0.264686 0.000623746 0)
(0.251569 0.000532949 0)
(0.240396 0.000463977 0)
(0.230724 0.000409649 0)
(0.222249 0.000365693 0)
(0.214748 0.00032945 0)
(0.208055 0.000299114 0)
(0.202038 0.000273387 0)
(0.196596 0.000251319 0)
(0.191648 0.000232189 0)
(0.187128 0.000215451 0)
(0.182982 0.000200676 0)
(0.179165 0.000187526 0)
(0.17564 0.00017573 0)
(0.172377 0.000165066 0)
(0.169349 0.000155348 0)
(0.166533 0.000146424 0)
(0.163911 0.000138157 0)
(0.161467 0.00013043 0)
(0.159187 0.000123137 0)
(0.157061 0.000116178 0)
(0.155077 0.000109464 0)
(0.15323 0.000102892 0)
(0.151512 9.63911e-05 0)
(0.149921 8.98266e-05 0)
(0.148451 8.3162e-05 0)
(0.147104 7.61722e-05 0)
(0.145877 6.89266e-05 0)
(0.144774 6.09763e-05 0)
(0.1438 5.2669e-05 0)
(0.142956 4.30632e-05 0)
(0.142263 3.31247e-05 0)
(0.141701 2.10538e-05 0)
(0.141351 8.70652e-06 0)
(0.141083 -5.83813e-06 0)
(0.141214 -2.24069e-05 0)
(0.141169 -3.87118e-05 0)
(0.142109 -6.19923e-05 0)
(0.141917 -6.50525e-05 0)
(0.144368 -0.000131461 0)
(0.143288 0.000153069 0)
(0.144386 -0.00297484 0)
(0.991237 0.0499016 0)
(0.890346 0.0307191 0)
(0.762683 0.0145979 0)
(0.656677 0.00797974 0)
(0.585358 0.00488499 0)
(0.53596 0.00347137 0)
(0.498099 0.00273603 0)
(0.467484 0.00224383 0)
(0.442172 0.00188072 0)
(0.420864 0.00160904 0)
(0.402615 0.0014014 0)
(0.386759 0.00123783 0)
(0.372822 0.00110557 0)
(0.360455 0.000996542 0)
(0.349393 0.000905262 0)
(0.33943 0.000827839 0)
(0.330404 0.000761417 0)
(0.322184 0.000703841 0)
(0.314664 0.000653472 0)
(0.307757 0.000609027 0)
(0.301391 0.000569496 0)
(0.295505 0.000534068 0)
(0.290048 0.000502081 0)
(0.284977 0.000472987 0)
(0.280256 0.000446327 0)
(0.275853 0.000421702 0)
(0.271742 0.000398769 0)
(0.2679 0.000377218 0)
(0.264308 0.000356764 0)
(0.260949 0.000337145 0)
(0.257811 0.000318088 0)
(0.254882 0.000299368 0)
(0.252155 0.000280658 0)
(0.249622 0.000261796 0)
(0.247282 0.000242262 0)
(0.245131 0.000222111 0)
(0.243172 0.000200304 0)
(0.24141 0.000177543 0)
(0.239846 0.000151507 0)
(0.238508 0.00012464 0)
(0.237367 9.1696e-05 0)
(0.236539 5.92946e-05 0)
(0.235837 1.64918e-05 0)
(0.235714 -2.24238e-05 0)
(0.235358 -8.11351e-05 0)
(0.236408 -0.000127965 0)
(0.235937 -0.000182236 0)
(0.2391 -0.000304442 0)
(0.237608 2.22489e-05 0)
(0.241731 -0.00306568 0)
(1.0156 0.0489206 0)
(1.00596 0.0358755 0)
(0.935949 0.0207921 0)
(0.852122 0.0135045 0)
(0.78219 0.00920797 0)
(0.727 0.0067815 0)
(0.681927 0.00538399 0)
(0.644177 0.00444508 0)
(0.612164 0.00375148 0)
(0.584699 0.0032256 0)
(0.560848 0.00281901 0)
(0.539907 0.00249655 0)
(0.521348 0.00223471 0)
(0.504768 0.0020181 0)
(0.489855 0.00183622 0)
(0.476361 0.00168156 0)
(0.464087 0.00154859 0)
(0.452869 0.00143314 0)
(0.442575 0.00133199 0)
(0.433094 0.00124264 0)
(0.424333 0.00116312 0)
(0.416214 0.00109182 0)
(0.408671 0.00102744 0)
(0.401647 0.000968907 0)
(0.395095 0.000915313 0)
(0.388972 0.000865874 0)
(0.383243 0.00081992 0)
(0.377877 0.00077684 0)
(0.372849 0.000736085 0)
(0.368135 0.000697145 0)
(0.363718 0.000659512 0)
(0.359582 0.000622734 0)
(0.355715 0.000586236 0)
(0.352106 0.000549661 0)
(0.348752 0.000512133 0)
(0.345645 0.00047363 0)
(0.342789 0.0004324 0)
(0.340186 0.000389512 0)
(0.337838 0.000340926 0)
(0.335773 0.000290925 0)
(0.333959 0.000229574 0)
(0.332524 0.000170227 0)
(0.331263 8.76616e-05 0)
(0.330679 2.04865e-05 0)
(0.329874 -9.66741e-05 0)
(0.330654 -0.000170936 0)
(0.329868 -0.000304379 0)
(0.332951 -0.000476597 0)
(0.331376 -0.000213312 0)
(0.336244 -0.0028801 0)
(1.01434 0.0460041 0)
(1.04753 0.0374893 0)
(1.02457 0.0241523 0)
(0.974752 0.0175595 0)
(0.923443 0.0131223 0)
(0.876679 0.0102059 0)
(0.834528 0.00834249 0)
(0.796792 0.00702164 0)
(0.763239 0.00601193 0)
(0.733433 0.00522423 0)
(0.706861 0.00460164 0)
(0.683056 0.00409998 0)
(0.661619 0.00368785 0)
(0.64222 0.00334377 0)
(0.624585 0.00305268 0)
(0.608485 0.00280362 0)
(0.593729 0.00258837 0)
(0.580155 0.00240064 0)
(0.567628 0.00223557 0)
(0.556032 0.0020893 0)
(0.545269 0.00195877 0)
(0.535255 0.00184149 0)
(0.525918 0.00173542 0)
(0.517195 0.00163887 0)
(0.509031 0.00155039 0)
(0.50138 0.00146877 0)
(0.494201 0.00139292 0)
(0.487458 0.00132188 0)
(0.481121 0.00125478 0)
(0.475163 0.00119081 0)
(0.469563 0.00112919 0)
(0.464301 0.00106917 0)
(0.459364 0.0010099 0)
(0.454736 0.000950787 0)
(0.450413 0.000890545 0)
(0.446385 0.000829023 0)
(0.442654 0.000763728 0)
(0.43922 0.000696018 0)
(0.436085 0.00062008 0)
(0.433274 0.000542021 0)
(0.430761 0.000446932 0)
(0.428664 0.000355288 0)
(0.426792 0.000227111 0)
(0.425624 0.000123585 0)
(0.42432 -5.66758e-05 0)
(0.42456 -0.000169796 0)
(0.423494 -0.000387401 0)
(0.425914 -0.000622999 0)
(0.424566 -0.000443202 0)
(0.428578 -0.00271708 0)
(1.00933 0.0429156 0)
(1.05527 0.0372647 0)
(1.05868 0.0252967 0)
(1.03636 0.0197592 0)
(1.00709 0.0158112 0)
(0.976047 0.0129354 0)
(0.94453 0.0109593 0)
(0.913673 0.00947756 0)
(0.884327 0.00828741 0)
(0.856878 0.00731948 0)
(0.831404 0.00652882 0)
(0.807845 0.00587528 0)
(0.786081 0.00532751 0)
(0.765971 0.00486275 0)
(0.74737 0.00446432 0)
(0.730139 0.00411964 0)
(0.714149 0.00381898 0)
(0.699283 0.00355468 0)
(0.685436 0.00332069 0)
(0.672515 0.00311214 0)
(0.660436 0.00292509 0)
(0.649125 0.00275631 0)
(0.638519 0.00260309 0)
(0.628558 0.00246319 0)
(0.619192 0.00233468 0)
(0.610375 0.00221588 0)
(0.602068 0.00210534 0)
(0.594235 0.00200173 0)
(0.586847 0.00190385 0)
(0.579874 0.00181059 0)
(0.573297 0.00172085 0)
(0.567093 0.00163362 0)
(0.561248 0.00154773 0)
(0.555747 0.0014623 0)
(0.550584 0.00137568 0)
(0.545747 0.00128749 0)
(0.54124 0.00119457 0)
(0.537057 0.00109839 0)
(0.533206 0.000991563 0)
(0.529703 0.000881632 0)
(0.526533 0.000749269 0)
(0.523791 0.000620956 0)
(0.521329 0.000444054 0)
(0.519543 0.000297954 0)
(0.517754 5.26115e-05 0)
(0.517324 -0.000112248 0)
(0.51601 -0.000405849 0)
(0.517507 -0.000726324 0)
(0.516412 -0.000622504 0)
(0.519191 -0.00254773 0)
(1.00625 0.0400342 0)
(1.05206 0.0363374 0)
(1.06608 0.0252261 0)
(1.05959 0.020559 0)
(1.04686 0.0172378 0)
(1.03079 0.0146549 0)
(1.01189 0.0128185 0)
(0.991217 0.0113937 0)
(0.969815 0.0101973 0)
(0.948417 0.00918142 0)
(0.927469 0.00832039 0)
(0.907233 0.0075863 0)
(0.887859 0.00695472 0)
(0.869416 0.00640688 0)
(0.851925 0.00592837 0)
(0.835376 0.00550774 0)
(0.819737 0.00513577 0)
(0.804968 0.00480491 0)
(0.791022 0.00450897 0)
(0.777852 0.00424283 0)
(0.765409 0.00400225 0)
(0.753647 0.00378365 0)
(0.742524 0.00358401 0)
(0.731999 0.00340074 0)
(0.722033 0.00323161 0)
(0.712592 0.00307465 0)
(0.703646 0.00292811 0)
(0.695164 0.0027904 0)
(0.687123 0.00266004 0)
(0.679498 0.00253565 0)
(0.672271 0.00241588 0)
(0.665423 0.00229944 0)
(0.658942 0.0021849 0)
(0.652814 0.00207108 0)
(0.647034 0.00195598 0)
(0.641591 0.00183897 0)
(0.636489 0.0017163 0)
(0.631722 0.00158938 0)
(0.627302 0.0014496 0)
(0.623234 0.00130528 0)
(0.619522 0.00113383 0)
(0.616228 0.000965569 0)
(0.613262 0.000739303 0)
(0.61091 0.000544964 0)
(0.608691 0.000235859 0)
(0.607604 7.90086e-06 0)
(0.606045 -0.000351395 0)
(0.606635 -0.000768372 0)
(0.605638 -0.00074225 0)
(0.607338 -0.00234177 0)
(1.00495 0.0373562 0)
(1.04727 0.0352554 0)
(1.06397 0.0246863 0)
(1.06425 0.0205854 0)
(1.06067 0.0177755 0)
(1.05474 0.0154973 0)
(1.04598 0.0138756 0)
(1.0348 0.0126155 0)
(1.0219 0.01153 0)
(1.00787 0.0105773 0)
(0.993195 0.00974396 0)
(0.978212 0.00901237 0)
(0.96319 0.0083658 0)
(0.948326 0.00779116 0)
(0.933757 0.00727821 0)
(0.919576 0.00681856 0)
(0.905844 0.0064051 0)
(0.892597 0.00603173 0)
(0.879852 0.00569328 0)
(0.867616 0.00538526 0)
(0.855886 0.00510383 0)
(0.844654 0.00484566 0)
(0.833906 0.00460786 0)
(0.823628 0.00438787 0)
(0.813804 0.00418347 0)
(0.804416 0.00399259 0)
(0.795448 0.00381343 0)
(0.786884 0.00364425 0)
(0.778709 0.00348346 0)
(0.770908 0.00332948 0)
(0.763469 0.00318083 0)
(0.756381 0.00303599 0)
(0.749634 0.00289331 0)
(0.74322 0.00275138 0)
(0.737137 0.0026079 0)
(0.731377 0.00246197 0)
(0.725946 0.0023094 0)
(0.720838 0.00215133 0)
(0.71607 0.00197834 0)
(0.711642 0.00179885 0)
(0.70757 0.00158835 0)
(0.703891 0.00137854 0)
(0.700562 0.00110432 0)
(0.697779 0.000857775 0)
(0.695228 0.000490982 0)
(0.693601 0.000189665 0)
(0.691817 -0.00022819 0)
(0.691648 -0.000740338 0)
(0.690615 -0.000800122 0)
(0.691474 -0.00210412 0)
(1.0044 0.0348083 0)
(1.04324 0.0341824 0)
(1.05993 0.0240454 0)
(1.06228 0.0202917 0)
(1.06249 0.0178394 0)
(1.06179 0.0157783 0)
(1.05923 0.0143297 0)
(1.05469 0.0132349 0)
(1.04848 0.0122916 0)
(1.04092 0.0114511 0)
(1.03228 0.0107022 0)
(1.02283 0.0100315 0)
(1.01279 0.00942602 0)
(1.00236 0.00887633 0)
(0.991697 0.00837549 0)
(0.980945 0.00791796 0)
(0.970204 0.00749898 0)
(0.959555 0.00711436 0)
(0.949062 0.00676039 0)
(0.938771 0.00643378 0)
(0.928716 0.00613155 0)
(0.918922 0.00585107 0)
(0.909407 0.00558996 0)
(0.900181 0.00534605 0)
(0.891251 0.00511736 0)
(0.88262 0.00490207 0)
(0.874289 0.00469847 0)
(0.866256 0.00450489 0)
(0.85852 0.00431978 0)
(0.851077 0.00414154 0)
(0.843925 0.00396861 0)
(0.83706 0.00379938 0)
(0.830482 0.00363208 0)
(0.824186 0.0034651 0)
(0.818177 0.00329596 0)
(0.812451 0.00312346 0)
(0.807018 0.00294316 0)
(0.801874 0.00275578 0)
(0.79704 0.00255147 0)
(0.792514 0.00233818 0)
(0.788321 0.00209065 0)
(0.784484 0.00183992 0)
(0.78099 0.00152088 0)
(0.77797 0.0012211 0)
(0.775233 0.000802613 0)
(0.773245 0.000424935 0)
(0.771305 -4.87072e-05 0)
(0.77058 -0.000646218 0)
(0.769471 -0.000798429 0)
(0.769715 -0.00185179 0)
(1.00402 0.0323683 0)
(1.03991 0.0331324 0)
(1.05616 0.0234225 0)
(1.05892 0.0199037 0)
(1.06021 0.017709 0)
(1.06156 0.0157823 0)
(1.06194 0.0144347 0)
(1.06105 0.0134545 0)
(1.059 0.0126272 0)
(1.05589 0.0118925 0)
(1.05181 0.0112367 0)
(1.04687 0.010646 0)
(1.0412 0.0101073 0)
(1.03493 0.00961188 0)
(1.02817 0.00915386 0)
(1.02104 0.00872903 0)
(1.01363 0.00833402 0)
(1.00603 0.00796596 0)
(0.998317 0.00762232 0)
(0.990547 0.00730083 0)
(0.982773 0.00699945 0)
(0.975038 0.00671628 0)
(0.967377 0.00644957 0)
(0.959818 0.00619768 0)
(0.952385 0.00595906 0)
(0.945096 0.00573223 0)
(0.937967 0.00551575 0)
(0.93101 0.00530817 0)
(0.924235 0.00510808 0)
(0.917648 0.00491397 0)
(0.911259 0.00472435 0)
(0.905071 0.0045376 0)
(0.89909 0.0043519 0)
(0.893322 0.00416555 0)
(0.887774 0.00397597 0)
(0.882448 0.00378169 0)
(0.877359 0.00357813 0)
(0.872507 0.00336556 0)
(0.867914 0.00313395 0)
(0.863582 0.00289049 0)
(0.859538 0.00260994 0)
(0.855799 0.00232137 0)
(0.85237 0.00196225 0)
(0.849344 0.0016116 0)
(0.846605 0.00114694 0)
(0.844469 0.000697064 0)
(0.842495 0.000170446 0)
(0.841431 -0.000500849 0)
(0.840291 -0.000748137 0)
(0.840145 -0.00160341 0)
(1.00364 0.0300279 0)
(1.03692 0.0320849 0)
(1.05281 0.0228329 0)
(1.05568 0.0194985 0)
(1.05712 0.017517 0)
(1.05902 0.015682 0)
(1.06047 0.0143816 0)
(1.06117 0.0134642 0)
(1.06118 0.0127103 0)
(1.06054 0.0120499 0)
(1.05924 0.0114664 0)
(1.0573 0.0109448 0)
(1.05475 0.0104704 0)
(1.05164 0.0100333 0)
(1.04803 0.00962718 0)
(1.04398 0.00924763 0)
(1.03956 0.00889147 0)
(1.03482 0.00855621 0)
(1.02982 0.00823979 0)
(1.02462 0.00794045 0)
(1.01925 0.00765666 0)
(1.01377 0.00738702 0)
(1.00822 0.00713024 0)
(1.00261 0.00688509 0)
(0.996995 0.0066504 0)
(0.991387 0.00642501 0)
(0.985812 0.00620777 0)
(0.98029 0.00599746 0)
(0.974838 0.00579287 0)
(0.96947 0.00559264 0)
(0.964202 0.00539539 0)
(0.959044 0.00519954 0)
(0.954008 0.00500331 0)
(0.949104 0.00480495 0)
(0.944346 0.00460183 0)
(0.939739 0.00439229 0)
(0.935301 0.00417167 0)
(0.931037 0.00393982 0)
(0.92697 0.00368666 0)
(0.923105 0.00341851 0)
(0.919469 0.00311069 0)
(0.91608 0.00278936 0)
(0.912948 0.00239651 0)
(0.910143 0.00199988 0)
(0.907601 0.00149588 0)
(0.905532 0.000980631 0)
(0.903673 0.000406184 0)
(0.902489 -0.000326105 0)
(0.901409 -0.000667517 0)
(0.901097 -0.00137769 0)
(1.00327 0.0277882 0)
(1.03409 0.0310263 0)
(1.0497 0.0222697 0)
(1.05272 0.0190914 0)
(1.05412 0.017306 0)
(1.05607 0.0155525 0)
(1.05779 0.0142738 0)
(1.05902 0.0133865 0)
(1.05984 0.0126731 0)
(1.06031 0.012056 0)
(1.0604 0.0115176 0)
(1.0601 0.0110426 0)
(1.05939 0.0106154 0)
(1.05829 0.0102247 0)
(1.0568 0.0098632 0)
(1.05495 0.00952577 0)
(1.05275 0.00920876 0)
(1.05025 0.00890937 0)
(1.04747 0.0086254 0)
(1.04444 0.0083551 0)
(1.0412 0.00809699 0)
(1.03777 0.0078498 0)
(1.03419 0.0076124 0)
(1.03048 0.00738372 0)
(1.02667 0.00716279 0)
(1.02278 0.0069486 0)
(1.01883 0.0067402 0)
(1.01486 0.00653653 0)
(1.01086 0.00633652 0)
(1.00687 0.00613894 0)
(1.00289 0.00594248 0)
(0.998952 0.00574565 0)
(0.995057 0.00554668 0)
(0.991221 0.00534382 0)
(0.987459 0.00513438 0)
(0.983782 0.00491659 0)
(0.980206 0.0046857 0)
(0.976742 0.00444124 0)
(0.973409 0.00417313 0)
(0.970219 0.00388675 0)
(0.967194 0.0035584 0)
(0.964354 0.00321072 0)
(0.961712 0.00279143 0)
(0.959321 0.00235566 0)
(0.957149 0.00181996 0)
(0.955336 0.00124846 0)
(0.953738 0.00063166 0)
(0.95263 -0.000147602 0)
(0.951715 -0.000579551 0)
(0.951441 -0.00119456 0)
(1.00292 0.0256525 0)
(1.03138 0.029952 0)
(1.0467 0.0217287 0)
(1.04993 0.0186821 0)
(1.05131 0.0170831 0)
(1.05322 0.0154159 0)
(1.05497 0.0141524 0)
(1.05631 0.0132805 0)
(1.05737 0.0125901 0)
(1.05823 0.0119968 0)
(1.05888 0.011483 0)
(1.05932 0.0110347 0)
(1.05952 0.0106362 0)
(1.05948 0.0102757 0)
(1.05919 0.00994504 0)
(1.05866 0.00963864 0)
(1.05788 0.00935226 0)
(1.05686 0.00908265 0)
(1.05562 0.00882729 0)
(1.05417 0.00858411 0)
(1.05252 0.00835146 0)
(1.05069 0.00812792 0)
(1.04869 0.00791228 0)
(1.04655 0.00770344 0)
(1.04427 0.00750038 0)
(1.04189 0.00730213 0)
(1.0394 0.00710774 0)
(1.03684 0.00691622 0)
(1.03421 0.00672651 0)
(1.03154 0.00653746 0)
(1.02883 0.00634777 0)
(1.0261 0.00615599 0)
(1.02336 0.00596034 0)
(1.02063 0.00575903 0)
(1.01792 0.00554934 0)
(1.01524 0.00532938 0)
(1.01261 0.00509431 0)
(1.01003 0.00484338 0)
(1.00753 0.00456657 0)
(1.00512 0.00426827 0)
(1.00282 0.00392607 0)
(1.00065 0.00355873 0)
(0.998611 0.00312031 0)
(0.996759 0.00265321 0)
(0.995076 0.00209312 0)
(0.993653 0.00147647 0)
(0.992424 0.00082295 0)
(0.991547 8.04048e-06 0)
(0.990885 -0.000507916 0)
(0.990804 -0.00107293 0)
(1.0026 0.0236235 0)
(1.02879 0.0288607 0)
(1.04378 0.0212086 0)
(1.04724 0.0182708 0)
(1.04862 0.0168465 0)
(1.0505 0.0152747 0)
(1.05225 0.0140284 0)
(1.05359 0.0131673 0)
(1.05469 0.012493 0)
(1.05564 0.0119147 0)
(1.05646 0.0114147 0)
(1.05716 0.0109807 0)
(1.05773 0.0105981 0)
(1.05816 0.0102547 0)
(1.05844 0.00994243 0)
(1.05858 0.00965536 0)
(1.05856 0.00938902 0)
(1.0584 0.00913988 0)
(1.05808 0.00890513 0)
(1.05761 0.00868246 0)
(1.05699 0.00846996 0)
(1.05623 0.00826603 0)
(1.05534 0.00806926 0)
(1.05432 0.0078784 0)
(1.05318 0.00769232 0)
(1.05193 0.00750994 0)
(1.05059 0.00733023 0)
(1.04915 0.00715214 0)
(1.04764 0.00697457 0)
(1.04606 0.00679634 0)
(1.04443 0.00661611 0)
(1.04275 0.00643241 0)
(1.04104 0.0062434 0)
(1.03931 0.00604726 0)
(1.03756 0.00584116 0)
(1.03581 0.00562313 0)
(1.03407 0.00538822 0)
(1.03235 0.00513539 0)
(1.03067 0.00485476 0)
(1.02903 0.00454965 0)
(1.02746 0.00419921 0)
(1.02597 0.0038181 0)
(1.02457 0.00336692 0)
(1.02329 0.00287594 0)
(1.02214 0.00229808 0)
(1.02117 0.00164707 0)
(1.02036 0.000962271 0)
(1.01981 0.000123846 0)
(1.01946 -0.000470826 0)
(1.01966 -0.00102674 0)
(1.0023 0.021703 0)
(1.02634 0.0277533 0)
(1.04095 0.0207078 0)
(1.04463 0.0178588 0)
(1.04604 0.0165952 0)
(1.04788 0.0151275 0)
(1.04963 0.013903 0)
(1.05097 0.0130516 0)
(1.05205 0.0123919 0)
(1.053 0.0118262 0)
(1.05386 0.0113356 0)
(1.05463 0.0109104 0)
(1.05531 0.0105367 0)
(1.0559 0.0102029 0)
(1.05641 0.00990079 0)
(1.05683 0.00962462 0)
(1.05716 0.0093699 0)
(1.05741 0.00913304 0)
(1.05756 0.0089111 0)
(1.05761 0.00870166 0)
(1.05757 0.00850268 0)
(1.05744 0.0083124 0)
(1.05721 0.00812928 0)
(1.0569 0.0079519 0)
(1.05649 0.00777902 0)
(1.056 0.00760941 0)
(1.05544 0.00744193 0)
(1.05479 0.00727544 0)
(1.05409 0.00710875 0)
(1.05332 0.0069406 0)
(1.05249 0.00676959 0)
(1.05162 0.00659417 0)
(1.05071 0.00641243 0)
(1.04976 0.00622249 0)
(1.04879 0.00602139 0)
(1.04781 0.00580706 0)
(1.04681 0.00557446 0)
(1.04582 0.00532226 0)
(1.04484 0.00504078 0)
(1.04388 0.00473219 0)
(1.04296 0.00437736 0)
(1.04208 0.00398689 0)
(1.04126 0.0035277 0)
(1.04053 0.00301904 0)
(1.03988 0.00242846 0)
(1.03935 0.00175255 0)
(1.03895 0.00104093 0)
(1.03875 0.000190248 0)
(1.03873 -0.00047912 0)
(1.03923 -0.00106281 0)
(1.00203 0.0198917 0)
(1.02402 0.0266328 0)
(1.03821 0.0202232 0)
(1.04211 0.0174481 0)
(1.04354 0.0163291 0)
(1.04536 0.0149728 0)
(1.0471 0.0137755 0)
(1.04844 0.0129341 0)
(1.04951 0.0122888 0)
(1.05045 0.0117354 0)
(1.0513 0.0112535 0)
(1.05207 0.0108351 0)
(1.05276 0.0104677 0)
(1.0534 0.01014 0)
(1.05397 0.00984396 0)
(1.05449 0.00957405 0)
(1.05495 0.00932588 0)
(1.05536 0.00909592 0)
(1.05571 0.00888128 0)
(1.05601 0.00867953 0)
(1.05625 0.00848859 0)
(1.05643 0.00830665 0)
(1.05655 0.0081321 0)
(1.05662 0.00796344 0)
(1.05663 0.00779932 0)
(1.05658 0.00763843 0)
(1.05648 0.00747954 0)
(1.05633 0.00732139 0)
(1.05612 0.00716273 0)
(1.05588 0.00700222 0)
(1.05559 0.00683837 0)
(1.05526 0.00666958 0)
(1.0549 0.00649384 0)
(1.05452 0.00630919 0)
(1.05411 0.00611258 0)
(1.05368 0.00590181 0)
(1.05324 0.0056718 0)
(1.05279 0.00542085 0)
(1.05235 0.00513963 0)
(1.05192 0.00482908 0)
(1.05151 0.00447187 0)
(1.05112 0.00407474 0)
(1.05078 0.00361039 0)
(1.05049 0.00308864 0)
(1.05026 0.00248849 0)
(1.05012 0.00179506 0)
(1.05007 0.00106 0)
(1.05018 0.000201038 0)
(1.05046 -0.000536702 0)
(1.05124 -0.00117818 0)
(1.00179 0.0181898 0)
(1.02183 0.0255032 0)
(1.03558 0.019751 0)
(1.03967 0.0170405 0)
(1.04113 0.0160491 0)
(1.04292 0.0148098 0)
(1.04466 0.0136455 0)
(1.046 0.0128143 0)
(1.04706 0.0121835 0)
(1.04799 0.0116431 0)
(1.04882 0.01117 0)
(1.04958 0.0107581 0)
(1.05027 0.0103963 0)
(1.0509 0.0100736 0)
(1.05148 0.00978213 0)
(1.05202 0.00951646 0)
(1.05251 0.00927242 0)
(1.05297 0.0090466 0)
(1.05339 0.00883619 0)
(1.05378 0.00863881 0)
(1.05413 0.00845242 0)
(1.05445 0.00827521 0)
(1.05473 0.00810557 0)
(1.05497 0.00794197 0)
(1.05518 0.00778301 0)
(1.05536 0.00762733 0)
(1.0555 0.00747363 0)
(1.05561 0.00732061 0)
(1.05569 0.00716695 0)
(1.05575 0.00701126 0)
(1.05577 0.00685198 0)
(1.05577 0.00668747 0)
(1.05575 0.00651562 0)
(1.05572 0.00633443 0)
(1.05566 0.00614077 0)
(1.0556 0.00593231 0)
(1.05552 0.00570395 0)
(1.05545 0.00545365 0)
(1.05537 0.00517245 0)
(1.05531 0.0048601 0)
(1.05525 0.00450105 0)
(1.05522 0.00409848 0)
(1.05522 0.00363018 0)
(1.05526 0.00309831 0)
(1.05534 0.00249006 0)
(1.05549 0.00178402 0)
(1.05571 0.00102806 0)
(1.05607 0.000159814 0)
(1.0566 -0.000640949 0)
(1.0576 -0.00136279 0)
(1.00157 0.0165972 0)
(1.01978 0.0243683 0)
(1.03304 0.0192871 0)
(1.03732 0.0166378 0)
(1.03882 0.0157563 0)
(1.04057 0.0146377 0)
(1.0423 0.0135126 0)
(1.04365 0.0126923 0)
(1.0447 0.0120758 0)
(1.04562 0.0115491 0)
(1.04644 0.0110854 0)
(1.04718 0.0106803 0)
(1.04786 0.010324 0)
(1.04848 0.0100061 0)
(1.04905 0.00971875 0)
(1.04958 0.0094567 0)
(1.05008 0.00921591 0)
(1.05054 0.0089931 0)
(1.05098 0.00878554 0)
(1.05139 0.00859094 0)
(1.05177 0.0084073 0)
(1.05213 0.00823285 0)
(1.05247 0.00806599 0)
(1.05278 0.0079052 0)
(1.05307 0.00774907 0)
(1.05335 0.00759622 0)
(1.0536 0.0074453 0)
(1.05383 0.00729501 0)
(1.05405 0.00714397 0)
(1.05425 0.00699077 0)
(1.05444 0.0068338 0)
(1.05461 0.0066714 0)
(1.05478 0.00650142 0)
(1.05493 0.00632179 0)
(1.05508 0.00612932 0)
(1.05522 0.00592159 0)
(1.05536 0.00569352 0)
(1.05551 0.00544271 0)
(1.05566 0.00516065 0)
(1.05582 0.00484593 0)
(1.05599 0.00448469 0)
(1.05618 0.00407698 0)
(1.0564 0.00360481 0)
(1.05665 0.0030645 0)
(1.05693 0.0024485 0)
(1.05728 0.00173254 0)
(1.05768 0.000957164 0)
(1.05822 7.68861e-05 0)
(1.05892 -0.000784094 0)
(1.06008 -0.0016023 0)
(1.00137 0.0151128 0)
(1.01788 0.0232322 0)
(1.03061 0.0188276 0)
(1.03505 0.0162414 0)
(1.0366 0.0154521 0)
(1.03831 0.014456 0)
(1.04003 0.0133765 0)
(1.04138 0.0125681 0)
(1.04244 0.0119657 0)
(1.04334 0.0114532 0)
(1.04415 0.0109996 0)
(1.04488 0.0106015 0)
(1.04554 0.010251 0)
(1.04615 0.00993792 0)
(1.04671 0.00965472 0)
(1.04723 0.00939619 0)
(1.04772 0.00915844 0)
(1.04817 0.00893831 0)
(1.04861 0.00873314 0)
(1.04901 0.00854071 0)
(1.0494 0.00835907 0)
(1.04977 0.0081865 0)
(1.05011 0.00802142 0)
(1.05045 0.00786232 0)
(1.05076 0.00770779 0)
(1.05107 0.00755643 0)
(1.05136 0.00740689 0)
(1.05164 0.00725785 0)
(1.05191 0.00710791 0)
(1.05218 0.00695566 0)
(1.05243 0.00679945 0)
(1.05268 0.00663762 0)
(1.05293 0.00646797 0)
(1.05318 0.0062884 0)
(1.05343 0.00609571 0)
(1.05367 0.00588735 0)
(1.05393 0.00565833 0)
(1.05418 0.00540589 0)
(1.05445 0.00512198 0)
(1.05473 0.00480413 0)
(1.05503 0.00444001 0)
(1.05534 0.00402705 0)
(1.05568 0.00355054 0)
(1.05605 0.00300263 0)
(1.05646 0.00237866 0)
(1.05691 0.00165387 0)
(1.05742 0.000859796 0)
(1.05807 -3.64743e-05 0)
(1.05887 -0.000956517 0)
(1.06014 -0.00188151 0)
(1.0012 0.0137351 0)
(1.0161 0.0220989 0)
(1.02829 0.0183689 0)
(1.03288 0.0158526 0)
(1.03448 0.0151384 0)
(1.03614 0.0142641 0)
(1.03785 0.0132367 0)
(1.03921 0.0124417 0)
(1.04026 0.0118531 0)
(1.04115 0.0113553 0)
(1.04195 0.0109123 0)
(1.04267 0.0105217 0)
(1.04332 0.0101771 0)
(1.04392 0.0098691 0)
(1.04447 0.00959017 0)
(1.04497 0.00933525 0)
(1.04545 0.00910057 0)
(1.0459 0.00888307 0)
(1.04632 0.0086802 0)
(1.04671 0.00848978 0)
(1.04709 0.00830992 0)
(1.04745 0.00813893 0)
(1.0478 0.00797524 0)
(1.04813 0.00781737 0)
(1.04845 0.00766389 0)
(1.04876 0.00751341 0)
(1.04906 0.00736457 0)
(1.04935 0.00721603 0)
(1.04964 0.00706639 0)
(1.04992 0.00691422 0)
(1.0502 0.00675789 0)
(1.05048 0.00659569 0)
(1.05076 0.00642544 0)
(1.05104 0.00624498 0)
(1.05133 0.00605113 0)
(1.05162 0.00584122 0)
(1.05192 0.00561037 0)
(1.05222 0.00535547 0)
(1.05255 0.00506895 0)
(1.05288 0.00474736 0)
(1.05323 0.00437972 0)
(1.05361 0.00396133 0)
(1.054 0.00347993 0)
(1.05443 0.00292483 0)
(1.05489 0.00229249 0)
(1.0554 0.001559 0)
(1.05596 0.00074648 0)
(1.05665 -0.00016994 0)
(1.05751 -0.00114875 0)
(1.05882 -0.00218642 0)
(1.00104 0.0124618 0)
(1.01446 0.0209728 0)
(1.02608 0.0179074 0)
(1.03079 0.015472 0)
(1.03245 0.014817 0)
(1.03407 0.0140615 0)
(1.03576 0.0130928 0)
(1.03712 0.0123131 0)
(1.03817 0.0117379 0)
(1.03905 0.0112552 0)
(1.03984 0.0108235 0)
(1.04055 0.0104407 0)
(1.04119 0.0101023 0)
(1.04178 0.00979954 0)
(1.04231 0.00952505 0)
(1.04281 0.00927386 0)
(1.04328 0.00904234 0)
(1.04371 0.00882756 0)
(1.04412 0.00862702 0)
(1.04451 0.00843862 0)
(1.04488 0.00826051 0)
(1.04523 0.00809102 0)
(1.04557 0.00792862 0)
(1.04589 0.00777183 0)
(1.0462 0.00761922 0)
(1.04651 0.00746939 0)
(1.0468 0.00732098 0)
(1.04709 0.00717262 0)
(1.04738 0.00702292 0)
(1.04766 0.00687044 0)
(1.04794 0.00671355 0)
(1.04823 0.00655052 0)
(1.04851 0.00637918 0)
(1.0488 0.00619733 0)
(1.0491 0.0060018 0)
(1.0494 0.00578982 0)
(1.04971 0.00555664 0)
(1.05004 0.0052988 0)
(1.05037 0.0050092 0)
(1.05073 0.00468354 0)
(1.0511 0.00431195 0)
(1.05149 0.00388807 0)
(1.0519 0.00340134 0)
(1.05234 0.00283933 0)
(1.05282 0.00219835 0)
(1.05334 0.00145583 0)
(1.05392 0.000624881 0)
(1.05463 -0.000315283 0)
(1.0555 -0.0013527 0)
(1.0568 -0.00250508 0)
(1.0009 0.0112899 0)
(1.01295 0.0198582 0)
(1.02398 0.0174401 0)
(1.02878 0.0151002 0)
(1.03051 0.01449 0)
(1.0321 0.013848 0)
(1.03376 0.012944 0)
(1.03513 0.0121824 0)
(1.03617 0.0116203 0)
(1.03705 0.0111528 0)
(1.03782 0.0107331 0)
(1.03852 0.0103585 0)
(1.03916 0.0100265 0)
(1.03973 0.00972918 0)
(1.04026 0.0094593 0)
(1.04075 0.00921198 0)
(1.0412 0.00898373 0)
(1.04163 0.00877174 0)
(1.04203 0.00857361 0)
(1.0424 0.00838728 0)
(1.04276 0.00821096 0)
(1.0431 0.00804301 0)
(1.04343 0.0078819 0)
(1.04375 0.00772618 0)
(1.04405 0.00757439 0)
(1.04434 0.00742515 0)
(1.04463 0.00727707 0)
(1.04491 0.00712879 0)
(1.04519 0.0069789 0)
(1.04547 0.00682596 0)
(1.04575 0.00666833 0)
(1.04602 0.00650428 0)
(1.04631 0.00633164 0)
(1.04659 0.00614817 0)
(1.04689 0.00595075 0)
(1.04719 0.00573646 0)
(1.0475 0.00550071 0)
(1.04782 0.00523975 0)
(1.04816 0.00494684 0)
(1.04851 0.00461702 0)
(1.04888 0.00424126 0)
(1.04927 0.003812 0)
(1.04968 0.00331974 0)
(1.05011 0.00275105 0)
(1.05058 0.00210134 0)
(1.0511 0.00134941 0)
(1.05167 0.000500064 0)
(1.05236 -0.000466764 0)
(1.05323 -0.00156212 0)
(1.05448 -0.00282766 0)
(1.00078 0.0102161 0)
(1.01157 0.0187595 0)
(1.02199 0.0169643 0)
(1.02686 0.0147373 0)
(1.02867 0.0141596 0)
(1.03021 0.0136237 0)
(1.03185 0.0127898 0)
(1.03322 0.0120494 0)
(1.03426 0.0115001 0)
(1.03513 0.0110479 0)
(1.0359 0.0106408 0)
(1.03659 0.0102751 0)
(1.03721 0.00994969 0)
(1.03778 0.00965795 0)
(1.0383 0.00939283 0)
(1.03877 0.00914953 0)
(1.03922 0.00892468 0)
(1.03963 0.00871558 0)
(1.04002 0.00851994 0)
(1.04039 0.00833575 0)
(1.04074 0.00816127 0)
(1.04107 0.0079949 0)
(1.04139 0.00783512 0)
(1.0417 0.00768049 0)
(1.04199 0.00752955 0)
(1.04228 0.0073809 0)
(1.04256 0.00723314 0)
(1.04283 0.00708491 0)
(1.0431 0.0069348 0)
(1.04337 0.00678135 0)
(1.04364 0.00662292 0)
(1.04391 0.0064578 0)
(1.04419 0.00628379 0)
(1.04446 0.00609863 0)
(1.04475 0.00589924 0)
(1.04504 0.0056826 0)
(1.04535 0.00544422 0)
(1.04566 0.0051801 0)
(1.04599 0.00488384 0)
(1.04633 0.00454992 0)
(1.04669 0.00416997 0)
(1.04707 0.00373555 0)
(1.04746 0.00323776 0)
(1.04789 0.00266267 0)
(1.04834 0.00200436 0)
(1.04883 0.00124266 0)
(1.04939 0.000375152 0)
(1.05005 -0.000620266 0)
(1.05089 -0.0017721 0)
(1.05208 -0.00314601 0)
(1.00067 0.00923619 0)
(1.01031 0.0176812 0)
(1.02012 0.0164778 0)
(1.02503 0.0143829 0)
(1.02691 0.0138276 0)
(1.02842 0.0133888 0)
(1.03003 0.0126295 0)
(1.03139 0.011914 0)
(1.03244 0.0113775 0)
(1.0333 0.0109405 0)
(1.03406 0.0105466 0)
(1.03475 0.0101901 0)
(1.03536 0.00987169 0)
(1.03592 0.00958574 0)
(1.03643 0.00932557 0)
(1.0369 0.00908644 0)
(1.03733 0.00886511 0)
(1.03774 0.00865901 0)
(1.03812 0.00846594 0)
(1.03848 0.00828397 0)
(1.03882 0.0081114 0)
(1.03914 0.00794666 0)
(1.03945 0.00778826 0)
(1.03975 0.00763476 0)
(1.04004 0.00748469 0)
(1.04031 0.00733665 0)
(1.04058 0.00718924 0)
(1.04085 0.00704107 0)
(1.04111 0.00689073 0)
(1.04137 0.00673677 0)
(1.04163 0.00657755 0)
(1.0419 0.00641134 0)
(1.04216 0.00623596 0)
(1.04243 0.00604912 0)
(1.04271 0.00584777 0)
(1.04299 0.00562878 0)
(1.04328 0.0053878 0)
(1.04359 0.0051206 0)
(1.0439 0.00482105 0)
(1.04423 0.00448321 0)
(1.04458 0.00409916 0)
(1.04494 0.00365988 0)
(1.04532 0.00315673 0)
(1.04572 0.00257555 0)
(1.04615 0.00190902 0)
(1.04662 0.00113729 0)
(1.04715 0.000252091 0)
(1.04778 -0.000772683 0)
(1.04857 -0.00197849 0)
(1.04967 -0.00345315 0)
(1.00058 0.00834557 0)
(1.00917 0.0166277 0)
(1.01837 0.0159789 0)
(1.02328 0.0140365 0)
(1.02524 0.0134961 0)
(1.02672 0.0131439 0)
(1.0283 0.0124625 0)
(1.02966 0.011776 0)
(1.03071 0.0112525 0)
(1.03156 0.0108304 0)
(1.03232 0.0104503 0)
(1.03299 0.0101037 0)
(1.0336 0.00979245 0)
(1.03415 0.00951249 0)
(1.03465 0.00925744 0)
(1.03511 0.00902263 0)
(1.03554 0.00880495 0)
(1.03593 0.00860196 0)
(1.03631 0.00841155 0)
(1.03666 0.00823188 0)
(1.03699 0.00806129 0)
(1.03731 0.00789824 0)
(1.03761 0.00774128 0)
(1.0379 0.00758894 0)
(1.03817 0.00743979 0)
(1.03844 0.0072924 0)
(1.03871 0.00714535 0)
(1.03896 0.00699726 0)
(1.03922 0.00684671 0)
(1.03947 0.00669226 0)
(1.03972 0.00653227 0)
(1.03998 0.00636498 0)
(1.04023 0.00618827 0)
(1.0405 0.00599978 0)
(1.04076 0.0057965 0)
(1.04104 0.00557524 0)
(1.04132 0.00533174 0)
(1.04161 0.00506158 0)
(1.04192 0.00475886 0)
(1.04223 0.00441732 0)
(1.04256 0.00402935 0)
(1.0429 0.00358557 0)
(1.04326 0.00307736 0)
(1.04365 0.00249047 0)
(1.04405 0.00181621 0)
(1.04449 0.00103449 0)
(1.04499 0.000132391 0)
(1.04558 -0.000921467 0)
(1.04631 -0.00217773 0)
(1.04732 -0.00374308 0)
(1.0005 0.00753921 0)
(1.00813 0.0156031 0)
(1.01672 0.0154665 0)
(1.02161 0.0136972 0)
(1.02365 0.0131668 0)
(1.02511 0.0128898 0)
(1.02665 0.0122882 0)
(1.028 0.0116351 0)
(1.02906 0.0111252 0)
(1.02991 0.0107177 0)