/*--------------------------------*- C++ -*----------------------------------*\
  =========                 |
  \\      /  F ield         | OpenFOAM: The Open Source CFD Toolbox
   \\    /   O peration     | Website:  https://openfoam.org
    \\  /    A nd           | Version:  7
     \\/     M anipulation  |
\*---------------------------------------------------------------------------*/
FoamFile
{
    version     2.0;
    format      ascii;
    class       volVectorField;
    location    "0.34";
    object      U_0;
}
// * * * * * * * * * * * * * * * * * * * * * * * * * * * * * * * * * * * * * //

dimensions      [0 1 -1 0 0 0 0];

internalField   nonuniform List<vector> 
70000
(
(0.55339 0.0167231 0)
(0.25126 0.00340102 0)
(0.166201 0.000322002 0)
(0.132454 5.42779e-05 0)
(0.117264 4.57132e-05 0)
(0.107342 5.38859e-05 0)
(0.0993947 4.62514e-05 0)
(0.0929563 3.69115e-05 0)
(0.0877138 3.05964e-05 0)
(0.0833475 2.6267e-05 0)
(0.0796292 2.29642e-05 0)
(0.0764111 2.03151e-05 0)
(0.0735922 1.81498e-05 0)
(0.0710986 1.63555e-05 0)
(0.0688742 1.4848e-05 0)
(0.0668759 1.35655e-05 0)
(0.0650695 1.24622e-05 0)
(0.0634279 1.15021e-05 0)
(0.0619291 1.06596e-05 0)
(0.0605552 9.91213e-06 0)
(0.0592914 9.24385e-06 0)
(0.0581254 8.64042e-06 0)
(0.0570468 8.09054e-06 0)
(0.0560469 7.58448e-06 0)
(0.0551185 7.11445e-06 0)
(0.0542554 6.67249e-06 0)
(0.0534524 6.25282e-06 0)
(0.0527051 5.84923e-06 0)
(0.0520099 5.45486e-06 0)
(0.0513638 5.06688e-06 0)
(0.0507647 4.6738e-06 0)
(0.0502106 4.27895e-06 0)
(0.0497007 3.86169e-06 0)
(0.0492338 3.43676e-06 0)
(0.0488107 2.96453e-06 0)
(0.0484312 2.48586e-06 0)
(0.048097 1.92106e-06 0)
(0.0478101 1.35877e-06 0)
(0.0475716 6.70313e-07 0)
(0.0473895 -4.02016e-08 0)
(0.0472561 -8.05482e-07 0)
(0.0472027 -1.9734e-06 0)
(0.0471785 -2.31085e-06 0)
(0.0473035 -4.54477e-06 0)
(0.0473554 -2.05984e-06 0)
(0.0477755 -8.96092e-06 0)
(0.0477361 3.58567e-06 0)
(0.0487112 -1.81436e-05 0)
(0.0482072 4.36242e-05 0)
(0.046518 -0.00183292 0)
(0.884898 0.0431674 0)
(0.649714 0.0201941 0)
(0.494319 0.00659834 0)
(0.403666 0.00276761 0)
(0.354744 0.00155203 0)
(0.323445 0.00113166 0)
(0.29959 0.000910498 0)
(0.280396 0.000746608 0)
(0.264687 0.000623742 0)
(0.25157 0.000532945 0)
(0.240396 0.000463972 0)
(0.230724 0.000409643 0)
(0.222249 0.000365687 0)
(0.214749 0.000329444 0)
(0.208055 0.000299107 0)
(0.202039 0.000273381 0)
(0.196597 0.000251312 0)
(0.191649 0.000232182 0)
(0.187129 0.000215444 0)
(0.182983 0.000200669 0)
(0.179166 0.000187519 0)
(0.175642 0.000175723 0)
(0.172379 0.000165059 0)
(0.16935 0.000155342 0)
(0.166535 0.000146417 0)
(0.163913 0.00013815 0)
(0.161469 0.000130423 0)
(0.159189 0.00012313 0)
(0.157062 0.000116171 0)
(0.155079 0.000109457 0)
(0.153232 0.000102884 0)
(0.151514 9.63813e-05 0)
(0.149922 8.98145e-05 0)
(0.148453 8.31464e-05 0)
(0.147105 7.61515e-05 0)
(0.145879 6.88984e-05 0)
(0.144776 6.09373e-05 0)
(0.143802 5.26141e-05 0)
(0.142958 4.29858e-05 0)
(0.142266 3.30155e-05 0)
(0.141704 2.08981e-05 0)
(0.141356 8.49228e-06 0)
(0.14109 -6.13974e-06 0)
(0.141223 -2.28395e-05 0)
(0.141183 -3.93373e-05 0)
(0.142129 -6.28646e-05 0)
(0.141945 -6.62877e-05 0)
(0.144408 -0.000133187 0)
(0.143345 0.000151114 0)
(0.144462 -0.00297917 0)
(0.991237 0.0499016 0)
(0.890346 0.0307191 0)
(0.762683 0.0145979 0)
(0.656677 0.00797973 0)
(0.585358 0.00488498 0)
(0.535961 0.00347137 0)
(0.4981 0.00273602 0)
(0.467484 0.00224383 0)
(0.442172 0.00188071 0)
(0.420864 0.00160903 0)
(0.402615 0.00140139 0)
(0.38676 0.00123781 0)
(0.372823 0.00110556 0)
(0.360455 0.000996529 0)
(0.349394 0.000905248 0)
(0.339431 0.000827825 0)
(0.330405 0.000761403 0)
(0.322185 0.000703827 0)
(0.314665 0.000653458 0)
(0.307758 0.000609013 0)
(0.301392 0.000569483 0)
(0.295506 0.000534055 0)
(0.290049 0.00050207 0)
(0.284978 0.000472976 0)
(0.280257 0.000446318 0)
(0.275855 0.000421694 0)
(0.271744 0.000398763 0)
(0.267902 0.000377213 0)
(0.26431 0.00035676 0)
(0.260951 0.000337142 0)
(0.257813 0.000318086 0)
(0.254884 0.000299366 0)
(0.252156 0.000280655 0)
(0.249623 0.00026179 0)
(0.247283 0.000242251 0)
(0.245131 0.00022209 0)
(0.243172 0.000200267 0)
(0.24141 0.000177483 0)
(0.239846 0.000151409 0)
(0.238509 0.000124486 0)
(0.237368 9.14579e-05 0)
(0.23654 5.89376e-05 0)
(0.235841 1.59714e-05 0)
(0.235719 -2.3301e-05 0)
(0.235368 -8.23188e-05 0)
(0.236424 -0.000129662 0)
(0.235962 -0.000184748 0)
(0.239138 -0.00030802 0)
(0.237665 1.77435e-05 0)
(0.241812 -0.00307326 0)
(1.0156 0.0489206 0)
(1.00596 0.0358755 0)
(0.935949 0.0207921 0)
(0.852123 0.0135045 0)
(0.78219 0.00920797 0)
(0.727001 0.0067815 0)
(0.681928 0.00538399 0)
(0.644178 0.00444508 0)
(0.612164 0.00375148 0)
(0.584699 0.00322559 0)
(0.560849 0.002819 0)
(0.539907 0.00249653 0)
(0.521348 0.00223469 0)
(0.504768 0.00201808 0)
(0.489856 0.0018362 0)
(0.476362 0.00168154 0)
(0.464087 0.00154857 0)
(0.45287 0.00143311 0)
(0.442576 0.00133197 0)
(0.433095 0.00124262 0)
(0.424334 0.0011631 0)
(0.416215 0.0010918 0)
(0.408672 0.00102743 0)
(0.401649 0.000968894 0)
(0.395096 0.000915302 0)
(0.388973 0.000865867 0)
(0.383244 0.000819916 0)
(0.377879 0.00077684 0)
(0.37285 0.000736089 0)
(0.368137 0.000697153 0)
(0.36372 0.000659523 0)
(0.359583 0.000622748 0)
(0.355716 0.000586252 0)
(0.352107 0.000549678 0)
(0.348752 0.000512146 0)
(0.345645 0.000473634 0)
(0.342789 0.000432387 0)
(0.340186 0.000389469 0)
(0.337837 0.000340834 0)
(0.335772 0.000290756 0)
(0.333958 0.000229288 0)
(0.332524 0.000169763 0)
(0.331264 8.6929e-05 0)
(0.330682 1.92868e-05 0)
(0.329881 -9.83903e-05 0)
(0.330666 -0.000173444 0)
(0.329888 -0.000308194 0)
(0.332985 -0.000482137 0)
(0.331429 -0.000220356 0)
(0.336322 -0.00289121 0)
(1.01434 0.0460041 0)
(1.04753 0.0374892 0)
(1.02457 0.0241523 0)
(0.974753 0.0175594 0)
(0.923444 0.0131223 0)
(0.87668 0.0102059 0)
(0.834528 0.0083425 0)
(0.796792 0.00702165 0)
(0.76324 0.00601193 0)
(0.733433 0.00522423 0)
(0.706861 0.00460163 0)
(0.683056 0.00409997 0)
(0.661619 0.00368783 0)
(0.64222 0.00334374 0)
(0.624586 0.00305265 0)
(0.608486 0.00280359 0)
(0.593729 0.00258834 0)
(0.580156 0.00240061 0)
(0.567628 0.00223554 0)
(0.556033 0.00208927 0)
(0.54527 0.00195874 0)
(0.535257 0.00184146 0)
(0.525919 0.0017354 0)
(0.517196 0.00163885 0)
(0.509033 0.00155038 0)
(0.501382 0.00146876 0)
(0.494202 0.00139292 0)
(0.487459 0.00132188 0)
(0.481122 0.0012548 0)
(0.475165 0.00119083 0)
(0.469564 0.00112921 0)
(0.464302 0.0010692 0)
(0.459364 0.00100994 0)
(0.454736 0.000950829 0)
(0.450413 0.000890587 0)
(0.446385 0.000829059 0)
(0.442653 0.000763747 0)
(0.439219 0.000696004 0)
(0.436084 0.000620008 0)
(0.433273 0.000541854 0)
(0.43076 0.000446617 0)
(0.428663 0.00035474 0)
(0.426792 0.000226214 0)
(0.425627 0.000122184 0)
(0.424326 -5.90335e-05 0)
(0.42457 -0.000173098 0)
(0.423513 -0.000392475 0)
(0.425945 -0.000630489 0)
(0.424616 -0.000453171 0)
(0.428654 -0.00273193 0)
(1.00933 0.0429156 0)
(1.05527 0.0372647 0)
(1.05868 0.0252967 0)
(1.03636 0.0197592 0)
(1.00709 0.0158112 0)
(0.976048 0.0129354 0)
(0.94453 0.0109593 0)
(0.913673 0.00947757 0)
(0.884328 0.00828741 0)
(0.856878 0.00731948 0)
(0.831404 0.00652881 0)
(0.807845 0.00587526 0)
(0.786081 0.00532748 0)
(0.765971 0.00486272 0)
(0.74737 0.00446429 0)
(0.730139 0.00411961 0)
(0.714149 0.00381894 0)
(0.699283 0.00355463 0)
(0.685437 0.00332065 0)
(0.672515 0.0031121 0)
(0.660437 0.00292505 0)
(0.649126 0.00275627 0)
(0.63852 0.00260306 0)
(0.628559 0.00246316 0)
(0.619193 0.00233466 0)
(0.610376 0.00221587 0)
(0.602069 0.00210534 0)
(0.594237 0.00200173 0)
(0.586848 0.00190387 0)
(0.579876 0.00181062 0)
(0.573298 0.00172089 0)
(0.567094 0.00163367 0)
(0.561249 0.00154779 0)
(0.555748 0.00146237 0)
(0.550584 0.00137575 0)
(0.545748 0.00128756 0)
(0.54124 0.00119462 0)
(0.537057 0.00109841 0)
(0.533206 0.000991514 0)
(0.529702 0.00088147 0)
(0.526532 0.000748932 0)
(0.52379 0.000620331 0)
(0.52133 0.000443004 0)
(0.519545 0.000296262 0)
(0.517759 4.97732e-05 0)
(0.517334 -0.000116349 0)
(0.516028 -0.000412154 0)
(0.517538 -0.000735752 0)
(0.516461 -0.000635379 0)
(0.519266 -0.00256639 0)
(1.00625 0.0400342 0)
(1.05206 0.0363373 0)
(1.06608 0.025226 0)
(1.05959 0.020559 0)
(1.04686 0.0172378 0)
(1.03079 0.0146549 0)
(1.01189 0.0128186 0)
(0.991218 0.0113938 0)
(0.969816 0.0101973 0)
(0.948418 0.00918143 0)
(0.927469 0.00832039 0)
(0.907234 0.00758628 0)
(0.887859 0.00695469 0)
(0.869416 0.00640685 0)
(0.851925 0.00592833 0)
(0.835376 0.0055077 0)
(0.819737 0.00513572 0)
(0.804968 0.00480486 0)
(0.791023 0.00450892 0)
(0.777852 0.00424278 0)
(0.765409 0.0040022 0)
(0.753648 0.0037836 0)
(0.742525 0.00358397 0)
(0.732 0.0034007 0)
(0.722034 0.00323158 0)
(0.712594 0.00307463 0)
(0.703647 0.00292811 0)
(0.695165 0.0027904 0)
(0.687124 0.00266006 0)
(0.679499 0.00253568 0)
(0.672272 0.00241593 0)
(0.665424 0.00229951 0)
(0.658943 0.00218498 0)
(0.652815 0.00207117 0)
(0.647035 0.00195607 0)
(0.641592 0.00183906 0)
(0.63649 0.00171638 0)
(0.631722 0.00158943 0)
(0.627302 0.00144957 0)
(0.623234 0.00130512 0)
(0.619522 0.00113347 0)
(0.616229 0.000964864 0)
(0.613263 0.000738094 0)
(0.610913 0.000542981 0)
(0.608697 0.000232677 0)
(0.607614 3.0639e-06 0)
(0.606064 -0.000358904 0)
(0.606664 -0.000779708 0)
(0.605685 -0.000758053 0)
(0.607412 -0.00236435 0)
(1.00495 0.0373562 0)
(1.04727 0.0352554 0)
(1.06397 0.0246863 0)
(1.06425 0.0205854 0)
(1.06067 0.0177755 0)
(1.05474 0.0154973 0)
(1.04598 0.0138756 0)
(1.0348 0.0126156 0)
(1.0219 0.0115301 0)
(1.00787 0.0105774 0)
(0.993196 0.00974397 0)
(0.978212 0.00901236 0)
(0.963191 0.00836578 0)
(0.948327 0.00779113 0)
(0.933757 0.00727817 0)
(0.919577 0.00681851 0)
(0.905845 0.00640504 0)
(0.892597 0.00603168 0)
(0.879853 0.00569322 0)
(0.867617 0.0053852 0)
(0.855887 0.00510377 0)
(0.844655 0.0048456 0)
(0.833907 0.00460781 0)
(0.823629 0.00438783 0)
(0.813805 0.00418343 0)
(0.804417 0.00399257 0)
(0.795449 0.00381342 0)
(0.786885 0.00364425 0)
(0.77871 0.00348347 0)
(0.770909 0.00332952 0)
(0.763471 0.00318089 0)
(0.756382 0.00303606 0)
(0.749636 0.0028934 0)
(0.743222 0.00275149 0)
(0.737138 0.00260802 0)
(0.731378 0.00246209 0)
(0.725947 0.00230951 0)
(0.720839 0.0021514 0)
(0.71607 0.00197833 0)
(0.711642 0.00179869 0)
(0.70757 0.00158796 0)
(0.703892 0.00137775 0)
(0.700564 0.00110294 0)
(0.697783 0.000855505 0)
(0.695235 0.000487303 0)
(0.693612 0.000184067 0)
(0.691835 -0.000236882 0)
(0.691677 -0.000753535 0)
(0.690661 -0.000818847 0)
(0.691547 -0.00213068 0)
(1.0044 0.0348083 0)
(1.04324 0.0341823 0)
(1.05993 0.0240454 0)
(1.06228 0.0202917 0)
(1.06249 0.0178394 0)
(1.06179 0.0157782 0)
(1.05923 0.0143297 0)
(1.05469 0.0132349 0)
(1.04848 0.0122917 0)
(1.04092 0.0114511 0)
(1.03228 0.0107022 0)
(1.02283 0.0100315 0)
(1.01279 0.00942601 0)
(1.00236 0.0088763 0)
(0.991698 0.00837546 0)
(0.980945 0.00791791 0)
(0.970204 0.00749892 0)
(0.959556 0.0071143 0)
(0.949062 0.00676033 0)
(0.938771 0.00643371 0)
(0.928716 0.00613148 0)
(0.918923 0.00585101 0)
(0.909408 0.0055899 0)
(0.900182 0.00534599 0)
(0.891252 0.00511732 0)
(0.882621 0.00490203 0)
(0.87429 0.00469845 0)
(0.866257 0.00450489 0)
(0.858521 0.0043198 0)
(0.851078 0.00414158 0)
(0.843926 0.00396867 0)
(0.837061 0.00379946 0)
(0.830483 0.00363218 0)
(0.824187 0.00346522 0)
(0.818178 0.0032961 0)
(0.812452 0.0031236 0)
(0.807018 0.00294329 0)
(0.801875 0.00275586 0)
(0.79704 0.00255146 0)
(0.792515 0.002338 0)
(0.788322 0.00209021 0)
(0.784485 0.00183904 0)
(0.780992 0.00151934 0)
(0.777974 0.00121854 0)
(0.77524 0.000798454 0)
(0.773256 0.000418516 0)
(0.771324 -5.86067e-05 0)
(0.770608 -0.000661185 0)
(0.769515 -0.000820022 0)
(0.769786 -0.0018825 0)
(1.00402 0.0323683 0)
(1.03991 0.0331323 0)
(1.05616 0.0234224 0)
(1.05892 0.0199036 0)
(1.06021 0.017709 0)
(1.06156 0.0157823 0)
(1.06194 0.0144346 0)
(1.06105 0.0134545 0)
(1.059 0.0126272 0)
(1.05589 0.0118925 0)
(1.05181 0.0112367 0)
(1.04687 0.010646 0)
(1.0412 0.0101073 0)
(1.03493 0.00961186 0)
(1.02817 0.00915383 0)
(1.02104 0.00872899 0)
(1.01363 0.00833397 0)
(1.00603 0.0079659 0)
(0.998317 0.00762225 0)
(0.990548 0.00730076 0)
(0.982774 0.00699938 0)
(0.975039 0.00671621 0)
(0.967377 0.0064495 0)
(0.959818 0.00619761 0)
(0.952385 0.00595901 0)
(0.945097 0.00573218 0)
(0.937968 0.00551572 0)
(0.931011 0.00530816 0)
(0.924236 0.00510809 0)
(0.917649 0.00491401 0)
(0.91126 0.00472441 0)
(0.905072 0.00453768 0)
(0.899091 0.00435201 0)
(0.893323 0.00416568 0)
(0.887775 0.00397612 0)
(0.882449 0.00378184 0)
(0.87736 0.00357827 0)
(0.872508 0.00336565 0)
(0.867915 0.00313394 0)
(0.863583 0.00289029 0)
(0.859539 0.00260946 0)
(0.855801 0.00232039 0)
(0.852373 0.00196053 0)
(0.849348 0.00160874 0)
(0.846612 0.0011423 0)
(0.844481 0.000689892 0)
(0.842513 0.000159368 0)
(0.841459 -0.000517518 0)
(0.840332 -0.000772468 0)
(0.84021 -0.00163838 0)
(1.00364 0.0300279 0)
(1.03692 0.0320849 0)
(1.05281 0.0228328 0)
(1.05568 0.0194984 0)
(1.05712 0.0175169 0)
(1.05902 0.015682 0)
(1.06047 0.0143815 0)
(1.06117 0.0134642 0)
(1.06118 0.0127103 0)
(1.06054 0.0120499 0)
(1.05924 0.0114664 0)
(1.0573 0.0109448 0)
(1.05475 0.0104704 0)
(1.05164 0.0100333 0)
(1.04803 0.00962716 0)
(1.04398 0.00924759 0)
(1.03956 0.00889143 0)
(1.03482 0.00855616 0)
(1.02982 0.00823972 0)
(1.02462 0.00794038 0)
(1.01925 0.00765659 0)
(1.01377 0.00738694 0)
(1.00822 0.00713016 0)
(1.00261 0.00688502 0)
(0.996995 0.00665034 0)
(0.991387 0.00642495 0)
(0.985812 0.00620773 0)
(0.98029 0.00599744 0)
(0.974838 0.00579287 0)
(0.969471 0.00559267 0)
(0.964202 0.00539544 0)
(0.959044 0.00519962 0)
(0.954009 0.00500342 0)
(0.949105 0.00480509 0)
(0.944346 0.00460198 0)
(0.93974 0.00439245 0)
(0.935302 0.00417181 0)
(0.931038 0.00393991 0)
(0.926971 0.00368664 0)
(0.923106 0.00341829 0)
(0.91947 0.00311015 0)
(0.916082 0.00278828 0)
(0.912951 0.0023946 0)
(0.910148 0.00199673 0)
(0.907608 0.00149078 0)
(0.905543 0.000972747 0)
(0.90369 0.000394018 0)
(0.902515 -0.000344376 0)
(0.901447 -0.000694344 0)
(0.901156 -0.00141677 0)
(1.00327 0.0277882 0)
(1.03409 0.0310263 0)
(1.0497 0.0222697 0)
(1.05272 0.0190913 0)
(1.05412 0.017306 0)
(1.05608 0.0155525 0)
(1.05779 0.0142738 0)
(1.05902 0.0133865 0)
(1.05984 0.0126732 0)
(1.06031 0.012056 0)
(1.0604 0.0115176 0)
(1.0601 0.0110426 0)
(1.05939 0.0106154 0)
(1.05829 0.0102247 0)
(1.0568 0.00986318 0)
(1.05495 0.00952574 0)
(1.05276 0.00920872 0)
(1.05025 0.00890932 0)
(1.04747 0.00862535 0)
(1.04444 0.00835504 0)
(1.0412 0.00809693 0)
(1.03777 0.00784973 0)
(1.03419 0.00761232 0)
(1.03048 0.00738365 0)
(1.02667 0.00716272 0)
(1.02278 0.00694854 0)
(1.01883 0.00674015 0)
(1.01486 0.0065365 0)
(1.01086 0.00633651 0)
(1.00687 0.00613896 0)
(1.00289 0.00594252 0)
(0.998953 0.00574572 0)
(0.995057 0.00554679 0)
(0.991221 0.00534395 0)
(0.987459 0.00513453 0)
(0.983782 0.00491675 0)
(0.980207 0.00468584 0)
(0.976743 0.00444132 0)
(0.97341 0.00417309 0)
(0.970221 0.00388649 0)
(0.967196 0.00355779 0)
(0.964356 0.00320953 0)
(0.961715 0.00278934 0)
(0.959326 0.00235222 0)
(0.957156 0.00181442 0)
(0.955347 0.00123989 0)
(0.953754 0.000618502 0)
(0.952654 -0.000167332 0)
(0.95175 -0.00060862 0)
(0.951494 -0.0012374 0)
(1.00292 0.0256525 0)
(1.03138 0.0299519 0)
(1.0467 0.0217286 0)
(1.04993 0.018682 0)
(1.05131 0.017083 0)
(1.05322 0.0154158 0)
(1.05497 0.0141524 0)
(1.05631 0.0132805 0)
(1.05737 0.0125901 0)
(1.05823 0.0119968 0)
(1.05888 0.011483 0)
(1.05932 0.0110347 0)
(1.05952 0.0106362 0)
(1.05948 0.0102757 0)
(1.05919 0.00994503 0)
(1.05866 0.00963861 0)
(1.05788 0.00935222 0)
(1.05687 0.00908261 0)
(1.05563 0.00882723 0)
(1.05417 0.00858405 0)
(1.05252 0.0083514 0)
(1.05069 0.00812786 0)
(1.04869 0.00791222 0)
(1.04655 0.00770337 0)
(1.04427 0.00750031 0)
(1.04189 0.00730207 0)
(1.0394 0.00710769 0)
(1.03684 0.00691618 0)
(1.03421 0.0067265 0)
(1.03154 0.00653747 0)
(1.02883 0.00634781 0)
(1.0261 0.00615606 0)
(1.02336 0.00596044 0)
(1.02063 0.00575916 0)
(1.01792 0.00554949 0)
(1.01524 0.00532954 0)
(1.01261 0.00509445 0)
(1.01003 0.00484345 0)
(1.00753 0.00456651 0)
(1.00513 0.00426797 0)
(1.00282 0.00392539 0)
(1.00065 0.00355742 0)
(0.998615 0.00311803 0)
(0.996764 0.00264948 0)
(0.995083 0.00208714 0)
(0.993663 0.00146727 0)
(0.992439 0.000808859 0)
(0.991569 -1.30617e-05 0)
(0.990917 -0.000538969 0)
(0.990851 -0.00111904 0)
(1.0026 0.0236235 0)
(1.02879 0.0288607 0)
(1.04378 0.0212085 0)
(1.04724 0.0182706 0)
(1.04862 0.0168464 0)
(1.0505 0.0152746 0)
(1.05225 0.0140284 0)
(1.05359 0.0131672 0)
(1.05469 0.012493 0)
(1.05564 0.0119148 0)
(1.05646 0.0114147 0)
(1.05716 0.0109808 0)
(1.05773 0.0105981 0)
(1.05816 0.0102547 0)
(1.05844 0.00994243 0)
(1.05858 0.00965534 0)
(1.05857 0.00938899 0)
(1.0584 0.00913985 0)
(1.05808 0.00890509 0)
(1.05761 0.00868241 0)
(1.05699 0.0084699 0)
(1.05623 0.00826597 0)
(1.05534 0.0080692 0)
(1.05432 0.00787834 0)
(1.05318 0.00769226 0)
(1.05193 0.00750988 0)
(1.05059 0.00733018 0)
(1.04915 0.0071521 0)
(1.04764 0.00697455 0)
(1.04606 0.00679634 0)
(1.04443 0.00661614 0)
(1.04275 0.00643247 0)
(1.04104 0.0062435 0)
(1.03931 0.00604738 0)
(1.03756 0.0058413 0)
(1.03581 0.00562327 0)
(1.03407 0.00538833 0)
(1.03235 0.00513543 0)
(1.03067 0.00485467 0)
(1.02903 0.0045493 0)
(1.02746 0.00419844 0)
(1.02597 0.00381667 0)
(1.02457 0.00336446 0)
(1.0233 0.00287194 0)
(1.02215 0.0022917 0)
(1.02118 0.00163728 0)
(1.02038 0.000947346 0)
(1.01983 0.000101362 0)
(1.01949 -0.000503669 0)
(1.0197 -0.00107564 0)
(1.0023 0.0217029 0)
(1.02634 0.0277532 0)
(1.04095 0.0207077 0)
(1.04463 0.0178587 0)
(1.04604 0.0165951 0)
(1.04788 0.0151274 0)
(1.04963 0.0139029 0)
(1.05097 0.0130516 0)
(1.05205 0.0123919 0)
(1.05301 0.0118262 0)
(1.05386 0.0113357 0)
(1.05463 0.0109104 0)
(1.05531 0.0105367 0)
(1.0559 0.0102029 0)
(1.05641 0.00990079 0)
(1.05683 0.00962461 0)
(1.05716 0.00936988 0)
(1.05741 0.00913301 0)
(1.05756 0.00891106 0)
(1.05761 0.00870162 0)
(1.05757 0.00850264 0)
(1.05744 0.00831235 0)
(1.05721 0.00812922 0)
(1.0569 0.00795185 0)
(1.05649 0.00777896 0)
(1.056 0.00760935 0)
(1.05544 0.00744188 0)
(1.05479 0.0072754 0)
(1.05409 0.00710873 0)
(1.05332 0.0069406 0)
(1.05249 0.00676961 0)
(1.05162 0.00659422 0)
(1.05071 0.00641252 0)
(1.04976 0.00622259 0)
(1.04879 0.00602151 0)
(1.04781 0.00580719 0)
(1.04681 0.00557456 0)
(1.04582 0.00532227 0)
(1.04484 0.00504064 0)
(1.04388 0.00473178 0)
(1.04296 0.0043765 0)
(1.04208 0.00398533 0)
(1.04127 0.00352505 0)
(1.04053 0.00301478 0)
(1.03989 0.00242171 0)
(1.03936 0.00174222 0)
(1.03897 0.0010253 0)
(1.03877 0.000166614 0)
(1.03875 -0.000513615 0)
(1.03926 -0.00111409 0)
(1.00203 0.0198916 0)
(1.02402 0.0266328 0)
(1.03821 0.0202231 0)
(1.04211 0.017448 0)
(1.04354 0.016329 0)
(1.04536 0.0149727 0)
(1.0471 0.0137754 0)
(1.04844 0.012934 0)
(1.04951 0.0122888 0)
(1.05045 0.0117354 0)
(1.0513 0.0112535 0)
(1.05207 0.0108351 0)
(1.05276 0.0104677 0)
(1.0534 0.01014 0)
(1.05397 0.00984397 0)
(1.05449 0.00957405 0)
(1.05495 0.00932586 0)
(1.05536 0.0090959 0)
(1.05571 0.00888125 0)
(1.05601 0.00867949 0)
(1.05625 0.00848855 0)
(1.05643 0.00830661 0)
(1.05655 0.00813205 0)
(1.05662 0.0079634 0)
(1.05663 0.00779928 0)
(1.05658 0.00763839 0)
(1.05648 0.00747949 0)
(1.05633 0.00732135 0)
(1.05612 0.0071627 0)
(1.05588 0.00700221 0)
(1.05559 0.00683838 0)
(1.05526 0.00666962 0)
(1.0549 0.00649391 0)
(1.05452 0.00630928 0)
(1.05411 0.00611269 0)
(1.05368 0.00590192 0)
(1.05324 0.00567187 0)
(1.05279 0.00542084 0)
(1.05235 0.00513945 0)
(1.05192 0.00482861 0)
(1.05151 0.00447093 0)
(1.05113 0.00407305 0)
(1.05078 0.00360756 0)
(1.05049 0.00308413 0)
(1.05027 0.0024814 0)
(1.05013 0.00178423 0)
(1.05008 0.00104374 0)
(1.0502 0.000176599 0)
(1.05048 -0.00057259 0)
(1.05127 -0.00123146 0)
(1.00179 0.0181898 0)
(1.02183 0.0255031 0)
(1.03558 0.0197509 0)
(1.03967 0.0170404 0)
(1.04113 0.0160489 0)
(1.04292 0.0148097 0)
(1.04466 0.0136454 0)
(1.046 0.0128143 0)
(1.04706 0.0121834 0)
(1.04799 0.0116431 0)
(1.04882 0.0111701 0)
(1.04958 0.0107582 0)
(1.05027 0.0103964 0)
(1.0509 0.0100736 0)
(1.05148 0.00978215 0)
(1.05202 0.00951647 0)
(1.05251 0.00927242 0)
(1.05297 0.00904659 0)
(1.05339 0.00883617 0)
(1.05378 0.00863879 0)
(1.05413 0.00845239 0)
(1.05445 0.00827519 0)
(1.05473 0.00810554 0)
(1.05497 0.00794193 0)
(1.05518 0.00778297 0)
(1.05536 0.00762729 0)
(1.0555 0.00747359 0)
(1.05561 0.00732058 0)
(1.05569 0.00716693 0)
(1.05575 0.00701125 0)
(1.05577 0.00685199 0)
(1.05577 0.0066875 0)
(1.05575 0.00651568 0)
(1.05572 0.00633452 0)
(1.05566 0.00614086 0)
(1.0556 0.0059324 0)
(1.05552 0.005704 0)
(1.05545 0.00545359 0)
(1.05537 0.00517222 0)
(1.05531 0.00485955 0)
(1.05526 0.00450001 0)
(1.05523 0.00409667 0)
(1.05522 0.00362717 0)
(1.05526 0.00309355 0)
(1.05535 0.00248266 0)
(1.0555 0.00177275 0)
(1.05572 0.00101123 0)
(1.05609 0.000134679 0)
(1.05661 -0.00067795 0)
(1.05763 -0.00141768 0)
(1.00157 0.0165972 0)
(1.01978 0.0243682 0)
(1.03304 0.019287 0)
(1.03732 0.0166377 0)
(1.03882 0.0157561 0)
(1.04057 0.0146376 0)
(1.0423 0.0135125 0)
(1.04365 0.0126922 0)
(1.0447 0.0120758 0)
(1.04562 0.0115491 0)
(1.04644 0.0110855 0)
(1.04718 0.0106803 0)
(1.04786 0.0103241 0)
(1.04848 0.0100061 0)
(1.04905 0.00971878 0)
(1.04958 0.00945671 0)
(1.05008 0.00921591 0)
(1.05054 0.00899309 0)
(1.05098 0.00878553 0)
(1.05139 0.00859092 0)
(1.05177 0.00840728 0)
(1.05213 0.00823283 0)
(1.05247 0.00806597 0)
(1.05278 0.00790518 0)
(1.05307 0.00774904 0)
(1.05335 0.00759618 0)
(1.0536 0.00744527 0)
(1.05383 0.00729497 0)
(1.05405 0.00714394 0)
(1.05425 0.00699075 0)
(1.05444 0.0068338 0)
(1.05461 0.00667143 0)
(1.05478 0.00650147 0)
(1.05493 0.00632185 0)
(1.05508 0.0061294 0)
(1.05522 0.00592166 0)
(1.05536 0.00569354 0)
(1.05551 0.00544262 0)
(1.05566 0.00516037 0)
(1.05582 0.00484532 0)
(1.05599 0.00448356 0)
(1.05618 0.00407505 0)
(1.0564 0.00360164 0)
(1.05665 0.00305952 0)
(1.05694 0.00244082 0)
(1.05728 0.0017209 0)
(1.05769 0.000939852 0)
(1.05823 5.11837e-05 0)
(1.05893 -0.000821943 0)
(1.0601 -0.00165837 0)
(1.00137 0.0151128 0)
(1.01788 0.0232321 0)
(1.03061 0.0188275 0)
(1.03505 0.0162413 0)
(1.0366 0.015452 0)
(1.03831 0.0144558 0)
(1.04003 0.0133764 0)
(1.04138 0.012568 0)
(1.04244 0.0119657 0)
(1.04334 0.0114532 0)
(1.04415 0.0109996 0)
(1.04488 0.0106015 0)
(1.04554 0.010251 0)
(1.04615 0.00993797 0)
(1.04671 0.00965476 0)
(1.04723 0.00939621 0)
(1.04772 0.00915845 0)
(1.04818 0.00893831 0)
(1.04861 0.00873314 0)
(1.04901 0.0085407 0)
(1.0494 0.00835906 0)
(1.04977 0.0081865 0)
(1.05011 0.00802141 0)
(1.05045 0.00786231 0)
(1.05076 0.00770777 0)
(1.05107 0.0075564 0)
(1.05136 0.00740686 0)
(1.05164 0.00725782 0)
(1.05191 0.00710788 0)
(1.05218 0.00695564 0)
(1.05243 0.00679945 0)
(1.05268 0.00663763 0)
(1.05293 0.006468 0)
(1.05318 0.00628845 0)
(1.05343 0.00609577 0)
(1.05367 0.00588739 0)
(1.05393 0.00565832 0)
(1.05419 0.00540576 0)
(1.05445 0.00512165 0)
(1.05473 0.00480346 0)
(1.05503 0.0044388 0)
(1.05535 0.004025 0)
(1.05569 0.00354722 0)
(1.05606 0.00299745 0)
(1.05646 0.00237072 0)
(1.05692 0.0016419 0)
(1.05743 0.000842088 0)
(1.05808 -6.26455e-05 0)
(1.05889 -0.000994954 0)
(1.06015 -0.00193833 0)
(1.0012 0.0137351 0)
(1.0161 0.0220988 0)
(1.02829 0.0183687 0)
(1.03288 0.0158524 0)
(1.03448 0.0151382 0)
(1.03614 0.0142639 0)
(1.03785 0.0132366 0)
(1.03921 0.0124416 0)
(1.04026 0.011853 0)
(1.04115 0.0113553 0)
(1.04195 0.0109124 0)
(1.04267 0.0105217 0)
(1.04332 0.0101772 0)
(1.04392 0.00986915 0)
(1.04447 0.00959021 0)
(1.04498 0.00933528 0)
(1.04545 0.00910059 0)
(1.0459 0.00888308 0)
(1.04632 0.00868021 0)
(1.04671 0.00848979 0)
(1.04709 0.00830993 0)
(1.04745 0.00813893 0)
(1.0478 0.00797524 0)
(1.04813 0.00781736 0)
(1.04845 0.00766388 0)
(1.04876 0.00751339 0)
(1.04906 0.00736454 0)
(1.04935 0.007216 0)
(1.04964 0.00706636 0)
(1.04992 0.0069142 0)
(1.0502 0.00675788 0)
(1.05048 0.0065957 0)
(1.05076 0.00642546 0)
(1.05104 0.00624502 0)
(1.05133 0.00605118 0)
(1.05162 0.00584124 0)
(1.05192 0.00561033 0)
(1.05223 0.00535531 0)
(1.05255 0.00506857 0)
(1.05288 0.00474663 0)
(1.05323 0.00437843 0)
(1.05361 0.00395918 0)
(1.05401 0.00347647 0)
(1.05443 0.00291948 0)
(1.05489 0.00228434 0)
(1.0554 0.00154677 0)
(1.05596 0.000728468 0)
(1.05666 -0.000196462 0)
(1.05752 -0.00118752 0)
(1.05882 -0.00224353 0)
(1.00104 0.0124617 0)
(1.01446 0.0209727 0)
(1.02608 0.0179072 0)
(1.03079 0.0154718 0)
(1.03245 0.0148168 0)
(1.03407 0.0140613 0)
(1.03576 0.0130926 0)
(1.03712 0.012313 0)
(1.03817 0.0117379 0)
(1.03905 0.0112552 0)
(1.03984 0.0108236 0)
(1.04055 0.0104408 0)
(1.04119 0.0101024 0)
(1.04178 0.0097996 0)
(1.04232 0.0095251 0)
(1.04281 0.0092739 0)
(1.04328 0.00904237 0)
(1.04371 0.00882758 0)
(1.04412 0.00862704 0)
(1.04451 0.00843863 0)
(1.04488 0.00826052 0)
(1.04523 0.00809104 0)
(1.04557 0.00792864 0)
(1.04589 0.00777184 0)
(1.0462 0.00761922 0)
(1.04651 0.00746938 0)
(1.0468 0.00732096 0)
(1.04709 0.00717259 0)
(1.04738 0.00702289 0)
(1.04766 0.00687042 0)
(1.04794 0.00671353 0)
(1.04823 0.00655052 0)
(1.04851 0.00637919 0)
(1.0488 0.00619735 0)
(1.0491 0.00600183 0)
(1.0494 0.00578982 0)
(1.04971 0.00555657 0)
(1.05004 0.00529861 0)
(1.05038 0.00500878 0)
(1.05073 0.00468275 0)
(1.0511 0.00431058 0)
(1.05149 0.00388582 0)
(1.0519 0.00339776 0)
(1.05235 0.00283382 0)
(1.05282 0.00219002 0)
(1.05335 0.0014434 0)
(1.05393 0.000606659 0)
(1.05463 -0.000341991 0)
(1.05551 -0.00139155 0)
(1.0568 -0.00256202 0)
(1.0009 0.0112899 0)
(1.01295 0.019858 0)
(1.02398 0.01744 0)
(1.02878 0.0151 0)
(1.03051 0.0144898 0)
(1.0321 0.0138478 0)
(1.03376 0.0129438 0)
(1.03513 0.0121823 0)
(1.03617 0.0116202 0)
(1.03705 0.0111528 0)
(1.03782 0.0107331 0)
(1.03853 0.0103586 0)
(1.03916 0.0100266 0)
(1.03973 0.00972925 0)
(1.04026 0.00945936 0)
(1.04075 0.00921202 0)
(1.0412 0.00898377 0)
(1.04163 0.00877177 0)
(1.04203 0.00857364 0)
(1.0424 0.00838731 0)
(1.04276 0.00821098 0)
(1.0431 0.00804303 0)
(1.04343 0.00788193 0)
(1.04375 0.00772619 0)
(1.04405 0.0075744 0)
(1.04434 0.00742515 0)
(1.04463 0.00727706 0)
(1.04491 0.00712877 0)
(1.04519 0.00697887 0)
(1.04547 0.00682593 0)
(1.04575 0.0066683 0)
(1.04602 0.00650427 0)
(1.04631 0.00633164 0)
(1.04659 0.00614818 0)
(1.04689 0.00595076 0)
(1.04719 0.00573645 0)
(1.0475 0.00550062 0)
(1.04782 0.00523952 0)
(1.04816 0.00494638 0)
(1.04851 0.00461617 0)
(1.04888 0.00423982 0)
(1.04927 0.00380966 0)
(1.04968 0.00331606 0)
(1.05012 0.00274541 0)
(1.05059 0.00209288 0)
(1.0511 0.00133685 0)
(1.05167 0.000481729 0)
(1.05237 -0.000493504 0)
(1.05323 -0.00160081 0)
(1.05448 -0.00288397 0)
(1.00078 0.0102161 0)
(1.01157 0.0187594 0)
(1.02199 0.0169642 0)
(1.02686 0.014737 0)
(1.02867 0.0141593 0)
(1.03021 0.0136235 0)
(1.03185 0.0127896 0)
(1.03322 0.0120493 0)
(1.03427 0.0115001 0)
(1.03513 0.0110479 0)
(1.0359 0.0106409 0)
(1.03659 0.0102751 0)
(1.03721 0.00994976 0)
(1.03778 0.00965802 0)
(1.0383 0.0093929 0)
(1.03878 0.00914958 0)
(1.03922 0.00892472 0)
(1.03963 0.00871562 0)
(1.04002 0.00851997 0)
(1.04039 0.00833579 0)
(1.04074 0.0081613 0)
(1.04107 0.00799493 0)
(1.04139 0.00783516 0)
(1.0417 0.00768052 0)
(1.04199 0.00752957 0)
(1.04228 0.0073809 0)
(1.04256 0.00723313 0)
(1.04283 0.00708489 0)
(1.0431 0.00693476 0)
(1.04337 0.00678131 0)
(1.04364 0.00662289 0)
(1.04391 0.00645778 0)
(1.04419 0.00628378 0)
(1.04446 0.00609863 0)
(1.04475 0.00589923 0)
(1.04504 0.00568256 0)
(1.04535 0.0054441 0)
(1.04566 0.00517984 0)
(1.04599 0.00488334 0)
(1.04633 0.00454903 0)
(1.04669 0.00416847 0)
(1.04707 0.00373314 0)
(1.04746 0.003234 0)
(1.04789 0.00265694 0)
(1.04834 0.00199582 0)
(1.04884 0.00123004 0)
(1.04939 0.00035681 0)
(1.05006 -0.000646869 0)
(1.05089 -0.00181034 0)
(1.05207 -0.00320125 0)
(1.00067 0.00923615 0)
(1.01031 0.0176811 0)
(1.02012 0.0164776 0)
(1.02503 0.0143827 0)
(1.02691 0.0138274 0)
(1.02842 0.0133886 0)
(1.03003 0.0126293 0)
(1.0314 0.0119139 0)
(1.03244 0.0113775 0)
(1.0333 0.0109405 0)
(1.03406 0.0105467 0)
(1.03475 0.0101902 0)
(1.03536 0.00987178 0)
(1.03592 0.00958583 0)
(1.03643 0.00932565 0)
(1.0369 0.0090865 0)
(1.03733 0.00886516 0)
(1.03774 0.00865906 0)
(1.03812 0.00846598 0)
(1.03848 0.00828402 0)
(1.03882 0.00811144 0)
(1.03914 0.00794671 0)
(1.03945 0.00778831 0)
(1.03975 0.0076348 0)
(1.04004 0.00748472 0)
(1.04031 0.00733667 0)
(1.04058 0.00718923 0)
(1.04085 0.00704105 0)
(1.04111 0.00689069 0)
(1.04137 0.00673673 0)
(1.04163 0.00657752 0)
(1.0419 0.00641131 0)
(1.04216 0.00623594 0)
(1.04243 0.00604911 0)
(1.04271 0.00584774 0)
(1.04299 0.00562873 0)
(1.04329 0.00538767 0)
(1.04359 0.00512032 0)
(1.0439 0.00482052 0)
(1.04423 0.00448228 0)
(1.04458 0.00409761 0)
(1.04494 0.00365742 0)
(1.04532 0.00315291 0)
(1.04572 0.00256977 0)
(1.04615 0.00190044 0)
(1.04663 0.00112469 0)
(1.04715 0.000233857 0)
(1.04778 -0.000798968 0)
(1.04856 -0.00201602 0)
(1.04966 -0.00350687 0)
(1.00058 0.00834553 0)
(1.00917 0.0166276 0)
(1.01837 0.0159787 0)
(1.02328 0.0140363 0)
(1.02524 0.0134958 0)
(1.02672 0.0131437 0)
(1.0283 0.0124623 0)
(1.02966 0.0117759 0)
(1.03071 0.0112525 0)
(1.03157 0.0108304 0)
(1.03232 0.0104504 0)
(1.03299 0.0101037 0)
(1.0336 0.00979255 0)
(1.03415 0.00951258 0)
(1.03465 0.00925752 0)
(1.03511 0.0090227 0)
(1.03554 0.00880501 0)
(1.03593 0.00860202 0)
(1.03631 0.00841161 0)
(1.03666 0.00823194 0)
(1.03699 0.00806135 0)
(1.03731 0.0078983 0)
(1.03761 0.00774134 0)
(1.0379 0.007589 0)
(1.03817 0.00743983 0)
(1.03844 0.00729242 0)
(1.03871 0.00714534 0)
(1.03896 0.00699723 0)
(1.03922 0.00684667 0)
(1.03947 0.00669221 0)
(1.03972 0.00653222 0)
(1.03998 0.00636494 0)
(1.04023 0.00618823 0)
(1.0405 0.00599975 0)
(1.04076 0.00579646 0)
(1.04104 0.00557517 0)
(1.04132 0.00533158 0)
(1.04161 0.00506127 0)
(1.04192 0.0047583 0)
(1.04223 0.00441636 0)
(1.04256 0.00402777 0)
(1.0429 0.00358307 0)
(1.04327 0.00307351 0)
(1.04365 0.00248467 0)
(1.04405 0.00180764 0)
(1.0445 0.00102197 0)
(1.04499 0.000114391 0)
(1.04558 -0.00094725 0)
(1.0463 -0.00221427 0)
(1.0473 -0.00379486 0)
(1.0005 0.00753917 0)
(1.00813 0.015603 0)
(1.01672 0.0154663 0)
(1.02161 0.0136969 0)
(1.02365 0.0131665 0)
(1.02511 0.0128895 0)
(1.02665 0.012288 0)
(1.028 0.011635 0)
(1.02906 0.0111251 0)
(1.02991 0.0107176 0)