/*--------------------------------*- C++ -*----------------------------------*\
  =========                 |
  \\      /  F ield         | OpenFOAM: The Open Source CFD Toolbox
   \\    /   O peration     | Website:  https://openfoam.org
    \\  /    A nd           | Version:  7
     \\/     M anipulation  |
\*---------------------------------------------------------------------------*/
FoamFile
{
    version     2.0;
    format      ascii;
    class       volVectorField;
    location    "0.34";
    object      wallShearStress;
}
// * * * * * * * * * * * * * * * * * * * * * * * * * * * * * * * * * * * * * //

dimensions      [0 2 -2 0 0 0 0];

internalField   uniform (0 0 0);

boundaryField
{
    velocityInlet
    {
        type            calculated;
        value           uniform (0 0 0);
    }
    pressureOutlet
    {
        type            calculated;
        value           uniform (0 0 0);
    }
    fixedWalls
    {
        type            calculated;
        value           nonuniform List<vector> 
100
(
(-0.00220891 -0.000433905 0)
(-0.00198565 -0.000309124 0)
(0.000917792 -0.000296607 0)
(0.00158365 -0.00026207 0)
(0.00317894 -0.000162052 0)
(0.00351401 -0.000148222 0)
(0.00417905 -8.08725e-05 0)
(0.00423824 -4.44122e-05 0)
(0.00417779 2.10043e-06 0)
(0.00385419 3.70624e-05 0)
(0.00335716 6.74827e-05 0)
(0.00271761 8.74044e-05 0)
(0.00198523 0.000101508 0)
(0.00119959 0.000107133 0)
(0.000400896 0.000107477 0)
(-0.000381566 0.000103428 0)
(-0.00112587 9.64667e-05 0)
(-0.00181794 8.74149e-05 0)
(-0.00246058 7.88935e-05 0)
(-0.00309696 7.89968e-05 0)
(-0.00380758 9.31524e-05 0)
(-0.00464681 0.000113659 0)
(-0.00558891 0.000129369 0)
(-0.00656844 0.000141654 0)
(-0.0075114 0.000151963 0)
(-0.00822815 0.000144411 0)
(-0.00831525 7.07586e-05 0)
(-0.00728185 -0.00010747 0)
(-0.00470877 -0.000379871 0)
(-0.000840149 -0.000570053 0)
(0.00306907 -0.000568854 0)
(0.00582027 -0.000392106 0)
(0.00679084 -0.000127586 0)
(0.00603129 0.000113423 0)
(0.00416366 0.000248288 0)
(0.00192399 0.000280608 0)
(-0.000145831 0.000251742 0)
(-0.00177121 0.000195408 0)
(-0.00287017 0.000134797 0)
(-0.00345159 7.80297e-05 0)
(-0.00354853 2.38939e-05 0)
(-0.00319873 -2.98139e-05 0)
(-0.00245552 -8.05712e-05 0)
(-0.00137748 -0.000134486 0)
(-3.50937e-05 -0.000162549 0)
(0.00139354 -0.000183035 0)
(0.002734 -0.00017886 0)
(0.00379525 -0.000146967 0)
(0.00437573 -8.73106e-05 0)
(0.00430033 -1.36532e-06 0)
(0.00353229 8.45304e-05 0)
(0.00223893 0.00014341 0)
(0.000723932 0.000160958 0)
(-0.000713171 0.000146335 0)
(-0.00187343 0.000112564 0)
(-0.00268538 7.54031e-05 0)
(-0.00317901 4.40184e-05 0)
(-0.00342747 2.12693e-05 0)
(-0.00350899 7.3595e-06 0)
(-0.00348966 -1.39314e-06 0)
(-0.0034193 -5.20269e-06 0)
(-0.00333114 -5.82523e-06 0)
(-0.00323939 -5.31229e-06 0)
(-0.00313831 -5.85298e-06 0)
(-0.00300757 -9.01916e-06 0)
(-0.00282541 -1.47397e-05 0)
(-0.00258446 -2.12137e-05 0)
(-0.00230133 -2.58262e-05 0)
(-0.00201356 -2.64596e-05 0)
(-0.001766 -2.24382e-05 0)
(-0.0015952 -1.48711e-05 0)
(-0.00151845 -6.28016e-06 0)
(-0.0015314 1.85737e-06 0)
(-0.00161402 8.10769e-06 0)
(-0.00174012 1.19659e-05 0)
(-0.00188492 1.37594e-05 0)
(-0.00202746 1.38787e-05 0)
(-0.00214692 1.21843e-05 0)
(-0.00221762 8.31437e-06 0)
(-0.00220776 1.27017e-06 0)
(-0.00208986 -8.71462e-06 0)
(-0.0018575 -1.91614e-05 0)
(-0.00154145 -2.66287e-05 0)
(-0.00120504 -2.82489e-05 0)
(-0.00092596 -2.28922e-05 0)
(-0.000760973 -1.28962e-05 0)
(-0.000734937 -2.19803e-06 0)
(-0.000828417 7.02385e-06 0)
(-0.00100815 1.32116e-05 0)
(-0.00123004 1.57701e-05 0)
(-0.00146683 1.6592e-05 0)
(-0.00170022 1.53558e-05 0)
(-0.00192417 1.52441e-05 0)
(-0.00214693 1.34319e-05 0)
(-0.00237668 1.63135e-05 0)
(-0.00261619 1.4331e-05 0)
(-0.0028898 1.88215e-05 0)
(-0.0031141 1.34439e-05 0)
(-0.00335994 1.5463e-05 0)
(-0.00377243 1.52123e-05 0)
)
;
    }
    bottomWall
    {
        type            calculated;
        value           nonuniform List<vector> 
800
(
(-0.0353488 0.00214397 0)
(-0.0160267 0.00052483 0)
(-0.0106079 0.000100711 0)
(-0.00845621 3.52541e-05 0)
(-0.00748662 1.98529e-05 0)
(-0.00685322 1.61122e-05 0)
(-0.00634595 1.33456e-05 0)
(-0.00593511 1.08881e-05 0)
(-0.00560065 9.06599e-06 0)
(-0.00532213 7.74943e-06 0)
(-0.00508497 6.75292e-06 0)
(-0.00487968 5.96608e-06 0)
(-0.00469981 5.3287e-06 0)
(-0.00454062 4.80358e-06 0)
(-0.00439851 4.36494e-06 0)
(-0.0042707 3.99372e-06 0)
(-0.00415502 3.67617e-06 0)
(-0.00404973 3.40203e-06 0)
(-0.0039534 3.16321e-06 0)
(-0.00386488 2.95356e-06 0)
(-0.00378322 2.7683e-06 0)
(-0.0037076 2.60361e-06 0)
(-0.00363736 2.45637e-06 0)
(-0.00357191 2.32411e-06 0)
(-0.00351077 2.20464e-06 0)
(-0.00345351 2.09639e-06 0)
(-0.00339975 1.99793e-06 0)
(-0.00334918 1.90794e-06 0)
(-0.00330151 1.82544e-06 0)
(-0.0032565 1.74964e-06 0)
(-0.00321393 1.67974e-06 0)
(-0.00317359 1.61501e-06 0)
(-0.00313532 1.55503e-06 0)
(-0.00309896 1.49934e-06 0)
(-0.00306437 1.4475e-06 0)
(-0.00303142 1.39906e-06 0)
(-0.003 1.35386e-06 0)
(-0.00297 1.31152e-06 0)
(-0.00294134 1.27177e-06 0)
(-0.00291391 1.23445e-06 0)
(-0.00288765 1.19927e-06 0)
(-0.00286248 1.16623e-06 0)
(-0.00283834 1.13491e-06 0)
(-0.00281517 1.10527e-06 0)
(-0.0027929 1.07745e-06 0)
(-0.0027715 1.05077e-06 0)
(-0.0027509 1.02593e-06 0)
(-0.00273108 1.00143e-06 0)
(-0.00271197 9.79493e-07 0)
(-0.00269357 9.56142e-07 0)
(-0.00267819 9.36903e-07 0)
(-0.00266549 9.25991e-07 0)
(-0.00265296 9.11982e-07 0)
(-0.00264062 8.97116e-07 0)
(-0.00262848 8.8325e-07 0)
(-0.00261652 8.69965e-07 0)
(-0.00260474 8.57062e-07 0)
(-0.00259314 8.4423e-07 0)
(-0.00258171 8.31826e-07 0)
(-0.00257044 8.20014e-07 0)
(-0.00255933 8.08115e-07 0)
(-0.00254839 7.96461e-07 0)
(-0.0025376 7.85383e-07 0)
(-0.00252696 7.74376e-07 0)
(-0.00251647 7.6344e-07 0)
(-0.00250612 7.52905e-07 0)
(-0.00249592 7.42602e-07 0)
(-0.00248586 7.32529e-07 0)
(-0.00247593 7.22684e-07 0)
(-0.00246614 7.13066e-07 0)
(-0.00245647 7.03505e-07 0)
(-0.00244694 6.94166e-07 0)
(-0.00243753 6.85048e-07 0)
(-0.00242825 6.75982e-07 0)
(-0.00241909 6.67301e-07 0)
(-0.00241004 6.58835e-07 0)
(-0.00240111 6.50416e-07 0)
(-0.00239229 6.42212e-07 0)
(-0.00238358 6.34052e-07 0)
(-0.00237499 6.26104e-07 0)
(-0.0023665 6.18365e-07 0)
(-0.00235811 6.10669e-07 0)
(-0.00234983 6.03181e-07 0)
(-0.00234166 5.95732e-07 0)
(-0.00233358 5.8849e-07 0)
(-0.0023256 5.81453e-07 0)
(-0.00231771 5.7462e-07 0)
(-0.00230992 5.67658e-07 0)
(-0.00230223 5.60898e-07 0)
(-0.00229461 5.54508e-07 0)
(-0.00228709 5.47986e-07 0)
(-0.00227966 5.41497e-07 0)
(-0.00227232 5.35376e-07 0)
(-0.00226506 5.29287e-07 0)
(-0.00225788 5.23064e-07 0)
(-0.00225079 5.17204e-07 0)
(-0.00224377 5.11542e-07 0)
(-0.00223683 5.0591e-07 0)
(-0.00222997 5.00139e-07 0)
(-0.00222319 4.94565e-07 0)
(-0.00221648 4.89185e-07 0)
(-0.00220984 4.83998e-07 0)
(-0.00220327 4.78838e-07 0)
(-0.00219678 4.73537e-07 0)
(-0.00219036 4.68429e-07 0)
(-0.00218401 4.63512e-07 0)
(-0.00217772 4.5862e-07 0)
(-0.0021715 4.53751e-07 0)
(-0.00216534 4.49073e-07 0)
(-0.00215925 4.44583e-07 0)
(-0.00215322 4.39949e-07 0)
(-0.00214726 4.35337e-07 0)
(-0.00214135 4.30913e-07 0)
(-0.00213551 4.2651e-07 0)
(-0.00212972 4.22293e-07 0)
(-0.002124 4.18096e-07 0)
(-0.00211833 4.14084e-07 0)
(-0.00211271 4.09925e-07 0)
(-0.00210716 4.05783e-07 0)
(-0.00210165 4.01825e-07 0)
(-0.00209621 3.97885e-07 0)
(-0.00209081 3.94128e-07 0)
(-0.00208547 3.90388e-07 0)
(-0.00208018 3.86663e-07 0)
(-0.00207493 3.82954e-07 0)
(-0.00206974 3.79261e-07 0)
(-0.0020646 3.75749e-07 0)
(-0.00205951 3.72252e-07 0)
(-0.00205447 3.6877e-07 0)
(-0.00204947 3.65469e-07 0)
(-0.00204451 3.62016e-07 0)
(-0.00203961 3.58742e-07 0)
(-0.00203474 3.55484e-07 0)
(-0.00202993 3.52237e-07 0)
(-0.00202515 3.49007e-07 0)
(-0.00202043 3.45953e-07 0)
(-0.00201574 3.42915e-07 0)
(-0.0020111 3.3972e-07 0)
(-0.00200649 3.36876e-07 0)
(-0.00200193 3.34035e-07 0)
(-0.0019974 3.31054e-07 0)
(-0.00199292 3.28063e-07 0)
(-0.00198848 3.25451e-07 0)
(-0.00198406 3.22634e-07 0)
(-0.0019797 3.19902e-07 0)
(-0.00197536 3.17243e-07 0)
(-0.00197107 3.14573e-07 0)
(-0.00196681 3.11715e-07 0)
(-0.00196259 3.09271e-07 0)
(-0.0019584 3.06725e-07 0)
(-0.00195488 3.04071e-07 0)
(-0.00195201 3.02749e-07 0)
(-0.00194914 3.01273e-07 0)
(-0.00194626 2.99458e-07 0)
(-0.00194337 2.97694e-07 0)
(-0.00194048 2.95969e-07 0)
(-0.00193759 2.94258e-07 0)
(-0.0019347 2.92555e-07 0)
(-0.0019318 2.90861e-07 0)
(-0.0019289 2.89174e-07 0)
(-0.001926 2.87722e-07 0)
(-0.00192309 2.86052e-07 0)
(-0.00192018 2.84169e-07 0)
(-0.00191726 2.82517e-07 0)
(-0.00191435 2.81092e-07 0)
(-0.00191142 2.79458e-07 0)
(-0.0019085 2.77615e-07 0)
(-0.00190557 2.75998e-07 0)
(-0.00190264 2.74601e-07 0)
(-0.00189971 2.72999e-07 0)
(-0.00189677 2.71405e-07 0)
(-0.00189383 2.69818e-07 0)
(-0.00189088 2.68034e-07 0)
(-0.00188794 2.66466e-07 0)
(-0.00188499 2.6511e-07 0)
(-0.00188204 2.6356e-07 0)
(-0.00187908 2.61818e-07 0)
(-0.00187612 2.60283e-07 0)
(-0.00187316 2.5896e-07 0)
(-0.00187019 2.5744e-07 0)
(-0.00186722 2.55736e-07 0)
(-0.00186425 2.54238e-07 0)
(-0.00186128 2.52747e-07 0)
(-0.0018583 2.51267e-07 0)
(-0.00185532 2.49985e-07 0)
(-0.00185233 2.48518e-07 0)
(-0.00184935 2.4688e-07 0)
(-0.00184636 2.45431e-07 0)
(-0.00184336 2.4418e-07 0)
(-0.00184036 2.42755e-07 0)
(-0.00183736 2.41334e-07 0)
(-0.00183436 2.39928e-07 0)
(-0.00183135 2.3853e-07 0)
(-0.00182834 2.37141e-07 0)
(-0.00182532 2.35761e-07 0)
(-0.0018223 2.34562e-07 0)
(-0.00181928 2.33206e-07 0)
(-0.00181625 2.31846e-07 0)
(-0.00181322 2.30498e-07 0)
(-0.00181019 2.29163e-07 0)
(-0.00180715 2.27998e-07 0)
(-0.0018041 2.26679e-07 0)
(-0.00180106 2.25368e-07 0)
(-0.001798 2.24059e-07 0)
(-0.00179495 2.22934e-07 0)
(-0.00179189 2.21804e-07 0)
(-0.00178882 2.20359e-07 0)
(-0.00178576 2.19249e-07 0)
(-0.00178268 2.18139e-07 0)
(-0.0017796 2.16882e-07 0)
(-0.00177652 2.15793e-07 0)
(-0.00177343 2.14545e-07 0)
(-0.00177034 2.13476e-07 0)
(-0.00176724 2.12397e-07 0)
(-0.00176413 2.11176e-07 0)
(-0.00176103 2.10121e-07 0)
(-0.00175791 2.09065e-07 0)
(-0.00175479 2.08025e-07 0)
(-0.00175166 2.0699e-07 0)
(-0.00174852 2.05813e-07 0)
(-0.00174539 2.04793e-07 0)
(-0.00174224 2.03924e-07 0)
(-0.00173909 2.0293e-07 0)
(-0.00173593 2.02076e-07 0)
(-0.00173275 2.01071e-07 0)
(-0.00172958 2.0012e-07 0)
(-0.0017264 1.99242e-07 0)
(-0.0017232 1.98351e-07 0)
(-0.00172001 1.97434e-07 0)
(-0.00171679 1.96799e-07 0)
(-0.00171358 1.95878e-07 0)
(-0.00171034 1.95395e-07 0)
(-0.00170711 1.94046e-07 0)
(-0.00170385 1.94267e-07 0)
(-0.0017006 1.92293e-07 0)
(-0.0016973 1.93601e-07 0)
(-0.00169407 1.89746e-07 0)
(-0.00169069 1.94121e-07 0)
(-0.0016875 1.86139e-07 0)
(-0.00168398 1.9723e-07 0)
(-0.00168093 1.79163e-07 0)
(-0.00167715 2.05201e-07 0)
(-0.00167439 1.65295e-07 0)
(-0.00167013 2.23432e-07 0)
(-0.00166795 1.37822e-07 0)
(-0.00166283 2.60714e-07 0)
(-0.00166169 8.5619e-08 0)
(-0.00165521 3.26465e-07 0)
(-0.00165557 2.0409e-09 0)
(-0.00164739 3.60623e-07 0)
(-0.0353488 -0.00214398 0)
(-0.0160265 -0.000524833 0)
(-0.0106078 -0.000100712 0)
(-0.00845615 -3.52548e-05 0)
(-0.00748662 -1.98555e-05 0)
(-0.00685309 -1.61165e-05 0)
(-0.00634573 -1.3351e-05 0)
(-0.00593468 -1.08954e-05 0)
(-0.00559998 -9.07381e-06 0)
(-0.00532122 -7.75714e-06 0)
(-0.00508382 -6.75963e-06 0)
(-0.00487837 -5.97083e-06 0)
(-0.0046984 -5.33088e-06 0)
(-0.00453919 -4.80249e-06 0)
(-0.00439718 -4.35982e-06 0)
(-0.00426959 -3.98401e-06 0)
(-0.00415426 -3.6613e-06 0)
(-0.00404945 -3.38145e-06 0)
(-0.00395376 -3.13631e-06 0)
(-0.00386604 -2.91954e-06 0)
(-0.00378535 -2.72641e-06 0)
(-0.0037109 -2.5527e-06 0)
(-0.00364204 -2.39535e-06 0)
(-0.0035782 -2.25161e-06 0)
(-0.00351892 -2.11896e-06 0)
(-0.00346382 -1.99549e-06 0)
(-0.00341254 -1.8796e-06 0)
(-0.00336483 -1.76937e-06 0)
(-0.00332044 -1.6634e-06 0)
(-0.00327919 -1.56046e-06 0)
(-0.00324094 -1.45863e-06 0)
(-0.00320555 -1.35699e-06 0)
(-0.00317299 -1.25321e-06 0)
(-0.00314318 -1.14701e-06 0)
(-0.00311616 -1.03416e-06 0)
(-0.00309192 -9.1706e-07 0)
(-0.00307057 -7.86633e-07 0)
(-0.00305223 -6.51076e-07 0)
(-0.00303697 -4.92707e-07 0)
(-0.00302532 -3.29539e-07 0)
(-0.00301675 -1.33942e-07 0)
(-0.00301327 7.81319e-08 0)
(-0.00301163 2.9776e-07 0)
(-0.00301949 5.69582e-07 0)
(-0.00302261 6.90601e-07 0)
(-0.00304922 1.16955e-06 0)
(-0.00304634 7.52148e-07 0)
(-0.00310825 2.04363e-06 0)
(-0.00307215 -6.35166e-06 0)
(-0.00297991 0.000212773 0)
(0.000122246 -4.53868e-05 0)
(0.000127827 -0.000227671 0)
(0.000103109 -0.000377751 0)
(8.42568e-05 -0.000434101 0)
(2.27665e-05 -0.000367448 0)
(-0.000174832 -0.000148453 0)
(-0.000254635 0.000194571 0)
(-0.000125545 0.000358787 0)
(-4.36183e-05 0.000382402 0)
(-2.77801e-05 0.000399722 0)
(-2.67396e-05 0.000421575 0)
(-3.91104e-05 0.000457921 0)
(-5.85483e-05 0.000514302 0)
(-8.2784e-05 0.000595739 0)
(-0.00010782 0.000702688 0)
(-0.000131017 0.00083217 0)
(-0.000150086 0.000980072 0)
(-0.000162642 0.00114009 0)
(-0.000167129 0.00130403 0)
(-0.0001626 0.00146274 0)
(-0.000148822 0.00160682 0)
(-0.00012632 0.00172754 0)
(-9.6428e-05 0.00181845 0)
(-6.10445e-05 0.00187378 0)
(-2.2789e-05 0.00189003 0)
(1.52124e-05 0.00186733 0)
(5.09164e-05 0.00180859 0)
(8.27983e-05 0.00171777 0)
(0.000109591 0.00160018 0)
(0.000130578 0.00146189 0)
(0.000145558 0.0013091 0)
(0.000154779 0.00114771 0)
(0.000158787 0.000982943 0)
(0.00015832 0.000819172 0)
(0.000154217 0.000659921 0)
(0.000147265 0.00050793 0)
(0.000138391 0.000365101 0)
(0.000128318 0.000232477 0)
(0.000117619 0.000110732 0)
(0.000107479 -7.12148e-07 0)
(9.9037e-05 -0.000102632 0)
(9.17998e-05 -0.000197172 0)
(8.64307e-05 -0.000285419 0)
(8.33451e-05 -0.000369423 0)
(8.29226e-05 -0.000451753 0)
(8.51965e-05 -0.000534767 0)
(8.99844e-05 -0.000620576 0)
(9.68962e-05 -0.000710943 0)
(0.000105365 -0.000807147 0)
(0.000114701 -0.000909914 0)
(0.00012417 -0.00101941 0)
(0.00013311 -0.00113556 0)
(0.000140903 -0.00125806 0)
(0.000146875 -0.00138511 0)
(0.00015057 -0.0015152 0)
(0.000151595 -0.00164657 0)
(0.000149631 -0.00177728 0)
(0.00014463 -0.00190539 0)
(0.000136461 -0.0020291 0)
(0.000124704 -0.00214652 0)
(0.00010926 -0.00225565 0)
(9.01269e-05 -0.00235463 0)
(6.70364e-05 -0.00244177 0)
(3.94116e-05 -0.00251525 0)
(7.21771e-06 -0.00257255 0)
(-3.00406e-05 -0.00261411 0)
(-7.9423e-05 -0.0026358 0)
(-0.000137781 -0.00262695 0)
(-0.000198547 -0.00260086 0)
(-0.000304127 -0.00254633 0)
(-0.000424891 -0.0024072 0)
(-0.000483891 -0.00228085 0)
(-0.000733777 -0.00221417 0)
(-0.0012481 -0.00183612 0)
(-0.00135637 -0.00103418 0)
(-0.000778001 -0.000328363 0)
(-5.34596e-05 -2.23189e-05 0)
(0.000501343 3.88223e-05 0)
(0.000843535 -1.4679e-05 0)
(0.000968459 -0.000128516 0)
(0.000894916 -0.000246976 0)
(0.000660601 -0.000319023 0)
(0.000369611 -0.000302523 0)
(0.000140687 -0.000228188 0)
(1.7167e-05 -0.000190225 0)
(-5.27231e-05 -0.000238802 0)
(-0.000133762 -0.000329431 0)
(-0.00021045 -0.000387551 0)
(-0.000223613 -0.000392382 0)
(-0.000151553 -0.000383978 0)
(-3.14211e-05 -0.00041344 0)
(6.6554e-05 -0.000487864 0)
(0.000109504 -0.000569445 0)
(0.000111761 -0.000626117 0)
(0.000101376 -0.000657006 0)
(9.3682e-05 -0.000679874 0)
(8.76994e-05 -0.000707345 0)
(7.9066e-05 -0.000738945 0)
(6.83601e-05 -0.000769047 0)
(5.91272e-05 -0.000795073 0)
(5.29622e-05 -0.000817748 0)
(4.94298e-05 -0.000838122 0)
(4.78521e-05 -0.000856726 0)
(4.81015e-05 -0.000874238 0)
(5.02349e-05 -0.000891967 0)
(5.38534e-05 -0.000911561 0)
(5.78842e-05 -0.000934383 0)
(6.0671e-05 -0.000961066 0)
(6.01644e-05 -0.000991169 0)
(5.43849e-05 -0.00102299 0)
(4.1964e-05 -0.00105385 0)
(2.23456e-05 -0.00108057 0)
(-4.14928e-06 -0.00109959 0)
(-3.56043e-05 -0.00110718 0)
(-6.82914e-05 -0.00110102 0)
(-9.82982e-05 -0.00108075 0)
(-0.000121772 -0.00104722 0)
(-0.000135261 -0.00100342 0)
(-0.000136287 -0.000952733 0)
(-0.000124345 -0.000900318 0)
(-0.000101584 -0.00085147 0)
(-7.19845e-05 -0.00080969 0)
(-3.86245e-05 -0.000776022 0)
(-2.2937e-06 -0.000751296 0)
(3.58632e-05 -0.000737956 0)
(7.19066e-05 -0.00073788 0)
(0.000100467 -0.000750249 0)
(0.000117032 -0.000772233 0)
(0.000118074 -0.000798867 0)
(0.000101537 -0.000821901 0)
(6.82295e-05 -0.000830462 0)
(2.27619e-05 -0.000817011 0)
(-3.00953e-05 -0.000781954 0)
(-8.90516e-05 -0.000727235 0)
(-0.000154513 -0.000656152 0)
(-0.000224575 -0.000569613 0)
(-0.000292409 -0.000466012 0)
(-0.000349502 -0.000348365 0)
(-0.00039106 -0.00022457 0)
(-0.00041737 -0.000102027 0)
(-0.000431725 1.54162e-05 0)
(-0.000437295 0.000126897 0)
(-0.000438271 0.000233703 0)
(-0.000433283 0.000335566 0)
(-0.000422709 0.000431625 0)
(-0.000407471 0.000521189 0)
(-0.000388435 0.000603788 0)
(-0.000366364 0.000679126 0)
(-0.000341932 0.000747063 0)
(-0.000315716 0.000807576 0)
(-0.000288202 0.00086073 0)
(-0.000259794 0.000906656 0)
(-0.000230825 0.000945524 0)
(-0.000201573 0.000977522 0)
(-0.000172268 0.00100288 0)
(-0.000143083 0.00102186 0)
(-0.000114152 0.00103469 0)
(-8.55584e-05 0.00104169 0)
(-5.74785e-05 0.00104312 0)
(-3.0037e-05 0.00103935 0)
(-3.0257e-06 0.00103072 0)
(2.36863e-05 0.0010174 0)
(5.00757e-05 0.000999533 0)
(7.61613e-05 0.000977281 0)
(0.000101962 0.000950777 0)
(0.000127482 0.000920138 0)
(0.000152713 0.000885473 0)
(0.000177621 0.000846873 0)
(0.000202136 0.000804422 0)
(0.000226139 0.000758193 0)
(0.000249473 0.000708249 0)
(0.000271957 0.000654646 0)
(0.000293308 0.000597327 0)
(0.000314106 0.000538338 0)
(0.000334617 0.000478378 0)
(0.000353533 0.00041529 0)
(0.000370348 0.000348754 0)
(0.000384226 0.000278614 0)
(0.000394179 0.000205094 0)
(0.000399174 0.000128885 0)
(0.000398241 5.11355e-05 0)
(0.000390632 -2.66425e-05 0)
(0.000375927 -0.000102749 0)
(0.000354031 -0.000175532 0)
(0.00032517 -0.000243617 0)
(0.000289739 -0.000306 0)
(0.000249146 -0.000363176 0)
(0.000204225 -0.000415782 0)
(0.000153277 -0.000459177 0)
(9.73967e-05 -0.000492171 0)
(3.8036e-05 -0.000513444 0)
(-2.33036e-05 -0.00052206 0)
(-8.44904e-05 -0.000517493 0)
(-0.000143067 -0.000501221 0)
(-0.000198027 -0.000478213 0)
(-0.000251294 -0.000461018 0)
(-0.00031319 -0.000476955 0)
(-0.000413415 -0.000573882 0)
(-0.000596401 -0.00080656 0)
(-0.000884128 -0.00118441 0)
(1.86425e-05 -0.000113704 0)
(0.000157407 -7.22479e-05 0)
(0.000170678 2.9498e-05 0)
(6.29004e-05 0.000119859 0)
(-9.71732e-05 0.00014717 0)
(-0.00024481 0.000122318 0)
(-0.000352517 7.03886e-05 0)
(-0.000410126 9.48427e-06 0)
(-0.000417235 -4.97609e-05 0)
(-0.000377536 -0.000101203 0)
(-0.000299113 -0.000139716 0)
(-0.000192565 -0.000165242 0)
(-6.58505e-05 -0.000180786 0)
(7.72341e-05 -0.000191576 0)
(0.000237484 -0.000198106 0)
(0.000413714 -0.000196001 0)
(0.000605431 -0.00017503 0)
(0.000802874 -0.000120504 0)
(0.000952964 -4.23558e-05 0)
(0.000978994 -9.74921e-06 0)
(0.000951716 -6.33815e-05 0)
(0.000977087 -0.000140448 0)
(0.00107697 -0.00014791 0)
(0.00113666 -4.33985e-05 0)
(0.00105124 0.000119722 0)
(0.00084532 0.000245771 0)
(0.00059794 0.000291258 0)
(0.000375258 0.00027496 0)
(0.000197675 0.000232837 0)
(6.45363e-05 0.000203889 0)
(-5.21566e-05 0.000192024 0)
(-0.000171308 0.000190845 0)
(-0.000298832 0.000194282 0)
(-0.000435052 0.000199524 0)
(-0.000581602 0.000204714 0)
(-0.000737703 0.000205265 0)
(-0.00089861 0.00019757 0)
(-0.00105648 0.000178155 0)
(-0.00120053 0.000144998 0)
(-0.00131847 9.72988e-05 0)
(-0.0013986 3.57752e-05 0)
(-0.00143135 -3.87026e-05 0)
(-0.0014062 -0.000122843 0)
(-0.00133438 -0.000214907 0)
(-0.00118978 -0.000305847 0)
(-0.000970654 -0.000386222 0)
(-0.000680404 -0.000443676 0)
(-0.000336356 -0.000463957 0)
(2.54263e-05 -0.000440926 0)
(0.000368342 -0.000377999 0)
(0.000662013 -0.000279985 0)
(0.000872977 -0.000166204 0)
(0.000992506 -6.8807e-05 0)
(0.00104627 -1.18918e-05 0)
(0.00107389 -4.36472e-06 0)
(0.00111494 -4.14627e-05 0)
(0.00119687 -0.000103372 0)
(0.00130551 -0.000149565 0)
(0.00140641 -0.000137625 0)
(0.00145831 -6.88259e-05 0)
(0.00145185 6.39969e-06 0)
(0.00141534 4.62562e-05 0)
(0.00137945 5.48494e-05 0)
(0.00134883 5.50742e-05 0)
(0.00131569 5.73141e-05 0)
(0.00127432 6.24017e-05 0)
(0.00122178 7.04111e-05 0)
(0.00115544 8.17735e-05 0)
(0.00107297 9.61094e-05 0)
(0.000972974 0.000112159 0)
(0.000855339 0.000128266 0)
(0.000721211 0.000142843 0)
(0.000572602 0.000154584 0)
(0.000412088 0.000162575 0)
(0.00024269 0.000166463 0)
(6.79425e-05 0.000166971 0)
(-0.000109519 0.000165378 0)
(-0.000285492 0.000162855 0)
(-0.000459531 0.000162636 0)
(-0.000630591 0.000161608 0)
(-0.000794397 0.000153457 0)
(-0.000943237 0.00013369 0)
(-0.00106844 0.000101035 0)
(-0.00116122 5.60766e-05 0)
(-0.00121247 5.20971e-07 0)
(-0.00121356 -6.09364e-05 0)
(-0.00115648 -0.000118142 0)
(-0.00104494 -0.0001546 0)
(-0.000898558 -0.000159934 0)
(-0.00074478 -0.000146832 0)
(-0.000603068 -0.000137895 0)
(-0.000479462 -0.000131357 0)
(-0.000374903 -0.000113678 0)
(-0.000288854 -8.93962e-05 0)
(-0.000218368 -6.8859e-05 0)
(-0.000161082 -5.39474e-05 0)
(-0.000115585 -4.16352e-05 0)
(-8.55821e-05 -3.36231e-05 0)
(-5.72139e-05 -3.88625e-05 0)
(-3.54583e-06 -3.80641e-05 0)
(-4.0297e-05 -1.35018e-05 0)
(-5.23136e-05 -9.39166e-05 0)
(-4.89734e-05 -0.000173085 0)
(-4.62282e-05 -0.000242551 0)
(-4.89912e-05 -0.000314581 0)
(-5.54869e-05 -0.000397567 0)
(-6.02988e-05 -0.000494003 0)
(-5.56267e-05 -0.000597376 0)
(-3.54529e-05 -0.000691025 0)
(1.13348e-06 -0.000753228 0)
(5.22053e-05 -0.000766048 0)
(0.000110992 -0.000715615 0)
(0.000168396 -0.000597671 0)
(0.000214767 -0.000414692 0)
(0.000235922 -0.000179135 0)
(0.000213843 8.72805e-05 0)
(0.000137259 0.000354743 0)
(3.37842e-05 0.00056303 0)
(-1.78384e-05 0.00064388 0)
(-1.27445e-05 0.000629506 0)
(-1.21232e-05 0.000606835 0)
(-3.55583e-05 0.000577771 0)
(-6.8158e-05 0.000527498 0)
(-0.000100519 0.000434987 0)
(-0.000130301 0.000302427 0)
(-0.000158479 0.000133368 0)
(-0.000184197 -7.0443e-05 0)
(-0.000198008 -0.000301436 0)
(-0.000191875 -0.000542097 0)
(-0.000155295 -0.000763988 0)
(-8.52802e-05 -0.000929675 0)
(8.82478e-06 -0.00100572 0)
(0.000110154 -0.000973812 0)
(0.000185168 -0.000840374 0)
(0.000211201 -0.000641627 0)
(0.000186143 -0.000429496 0)
(0.000122495 -0.000250252 0)
(4.62235e-05 -0.000133172 0)
(-1.36296e-05 -8.85968e-05 0)
(-4.0491e-05 -0.000110772 0)
(-3.7631e-05 -0.000188245 0)
(-3.84873e-06 -0.00028839 0)
(5.04806e-05 -0.000357043 0)
(5.80554e-05 -0.000378003 0)
(1.36789e-06 -0.000379147 0)
(-9.47088e-05 -0.000396313 0)
(-0.000168524 -0.000433893 0)
(-0.000193513 -0.000457073 0)
(-0.000176174 -0.000432205 0)
(-0.00013472 -0.00035718 0)
(-9.18304e-05 -0.000243866 0)
(-6.12611e-05 -0.000113768 0)
(-1.72791e-05 2.25771e-05 0)
(0.000102884 0.000170054 0)
(0.000324021 0.000380659 0)
(0.000529719 0.000701752 0)
(0.000482028 0.00103493 0)
(0.000206159 0.00124223 0)
(-2.80035e-05 0.00135617 0)
(-0.000102418 0.00144065 0)
(-5.26733e-05 0.00151326 0)
(0.000131064 0.00158073 0)
(0.000440384 0.0017355 0)
(0.000743969 0.0020684 0)
(0.000797924 0.00253152 0)
(0.000477088 0.00288006 0)
(7.48297e-05 0.0029176 0)
(-2.71199e-05 0.00279495 0)
(0.000109838 0.00278352 0)
(0.000173594 0.00290383 0)
(8.14628e-05 0.00298735 0)
(-5.93452e-07 0.00296918 0)
(1.76386e-05 0.00293858 0)
(5.2995e-05 0.00295798 0)
(3.62324e-05 0.00298735 0)
(3.35266e-06 0.00298315 0)
(-1.05329e-06 0.002963 0)
(8.81628e-06 0.00295551 0)
(6.18301e-06 0.00295506 0)
(-5.30411e-06 0.00294565 0)
(-1.08782e-05 0.00292815 0)
(-1.03021e-05 0.00291188 0)
(-1.16598e-05 0.002898 0)
(-1.64035e-05 0.0028817 0)
(-2.04619e-05 0.00286176 0)
(-2.25361e-05 0.00284075 0)
(-2.46903e-05 0.00281975 0)
(-2.79396e-05 0.00279755 0)
(-3.13544e-05 0.00277345 0)
(-3.42952e-05 0.00274803 0)
(-3.71716e-05 0.00272175 0)
(-4.03874e-05 0.00269442 0)
(-4.37783e-05 0.00266575 0)
(-4.70888e-05 0.00263585 0)
(-5.03586e-05 0.00260492 0)
(-5.37026e-05 0.00257297 0)
(-5.71003e-05 0.00253996 0)
(-6.04782e-05 0.00250591 0)
(-6.38149e-05 0.00247092 0)
(-6.71248e-05 0.00243504 0)
(-7.04113e-05 0.0023983 0)
(-7.36597e-05 0.00236074 0)
(-7.68539e-05 0.0023224 0)
(-7.99903e-05 0.00228334 0)
(-8.30779e-05 0.00224361 0)
(-8.61187e-05 0.00220324 0)
(-8.9102e-05 0.00216227 0)
(-9.2038e-05 0.00212075 0)
(-9.49345e-05 0.00207871 0)
(-9.77953e-05 0.00203618 0)
(-0.000100624 0.00199319 0)
(-0.000103429 0.00194977 0)
(-0.000106215 0.00190593 0)
(-0.000108983 0.00186172 0)
(-0.000111744 0.00181714 0)
(-0.000114489 0.0017722 0)
(-0.000117221 0.00172695 0)
(-0.000119944 0.00168139 0)
(-0.000122652 0.00163553 0)
(-0.000125347 0.00158941 0)
(-0.000128036 0.00154305 0)
(-0.000130723 0.00149646 0)
(-0.000133429 0.00144968 0)
(-0.000136172 0.00140269 0)
(-0.000138959 0.00135553 0)
(-0.000141803 0.00130819 0)
(-0.000144731 0.00126071 0)
(-0.000147758 0.00121306 0)
(-0.000150876 0.00116525 0)
(-0.000154093 0.00111729 0)
(-0.000157406 0.00106918 0)
(-0.000160814 0.00102094 0)
(-0.000164306 0.000972554 0)
(-0.000167866 0.000924057 0)
(-0.000171499 0.000875468 0)
(-0.000175208 0.000826812 0)
(-0.000179007 0.000778114 0)
(-0.000182914 0.000729399 0)
(-0.000186951 0.000680688 0)
(-0.000191148 0.000632011 0)
(-0.000195544 0.000583395 0)
(-0.000200375 0.000535352 0)
(-0.000205659 0.000487752 0)
(-0.000211253 0.000440125 0)
(-0.000217171 0.00039242 0)
(-0.000223377 0.000344575 0)
(-0.000229791 0.000296547 0)
(-0.000236289 0.000248364 0)
(-0.000242692 0.000200057 0)
(-0.000249601 0.000152369 0)
(-0.000257898 0.000105783 0)
(-0.000266687 5.96889e-05 0)
(-0.000276041 1.41653e-05 0)
(-0.000285906 -3.07918e-05 0)
(-0.000296238 -7.50701e-05 0)
(-0.000307016 -0.000118634 0)
(-0.000318054 -0.000161463 0)
(-0.000329273 -0.000203443 0)
(-0.000340779 -0.000244645 0)
(-0.000352749 -0.000285229 0)
(-0.000365671 -0.000325636 0)
(-0.000380362 -0.000366667 0)
(-0.00039805 -0.000409317 0)
(-0.00042002 -0.000454555 0)
(-0.000447376 -0.000503359 0)
(-0.000479905 -0.000557927 0)
(-0.000514937 -0.000621075 0)
(-0.000548459 -0.000694172 0)
(-0.000575621 -0.000775748 0)
(-0.000592847 -0.000859929 0)
(-0.000600661 -0.000940458 0)
(-0.000600883 -0.00101545 0)
(-0.000596149 -0.00108463 0)
(-0.000582558 -0.00116184 0)
(-0.000546499 -0.00124627 0)
(-0.000528918 -0.00142335 0)
(-0.000471149 -0.00158008 0)
(-0.000350536 -0.00170653 0)
(-0.00015765 -0.00181865 0)
(0.000110296 -0.00191467 0)
(0.000449531 -0.00197128 0)
(0.000828839 -0.00192078 0)
(0.00115704 -0.0017154 0)
(0.00139429 -0.00147503 0)
(0.00156196 -0.00128285 0)
(0.00169275 -0.00113289 0)
(0.00179867 -0.000991091 0)
(0.0018774 -0.000840048 0)
(0.0019229 -0.000678373 0)
(0.00193064 -0.000514483 0)
(0.00190057 -0.000358503 0)
(0.00183484 -0.000215424 0)
(0.0017351 -8.6277e-05 0)
(0.0016025 2.98415e-05 0)
(0.00143954 0.00013582 0)
(0.00124419 0.00024387 0)
(0.00100114 0.000365868 0)
(0.000694679 0.000512683 0)
(0.000300611 0.000765048 0)
(-0.000189301 0.00160481 0)
)
;
    }
    frontAndBack
    {
        type            empty;
    }
}


// ************************************************************************* //
