/*--------------------------------*- C++ -*----------------------------------*\
  =========                 |
  \\      /  F ield         | OpenFOAM: The Open Source CFD Toolbox
   \\    /   O peration     | Website:  https://openfoam.org
    \\  /    A nd           | Version:  7
     \\/     M anipulation  |
\*---------------------------------------------------------------------------*/
FoamFile
{
    version     2.0;
    format      ascii;
    class       volScalarField;
    location    "0.27";
    object      k;
}
// * * * * * * * * * * * * * * * * * * * * * * * * * * * * * * * * * * * * * //

dimensions      [0 2 -2 0 0 0 0];

internalField   nonuniform List<scalar> 
70000
(
1.08549e-05
4.21877e-06
2.82439e-06
2.31687e-06
1.99768e-06
1.75741e-06
1.56555e-06
1.40871e-06
1.278e-06
1.16731e-06
1.07243e-06
9.90408e-07
9.18913e-07
8.5622e-07
8.00895e-07
7.51809e-07
7.08025e-07
6.6876e-07
6.33427e-07
6.01456e-07
5.72489e-07
5.46087e-07
5.22005e-07
4.99935e-07
4.79647e-07
4.61014e-07
4.43711e-07
4.27846e-07
4.12928e-07
3.99323e-07
3.86352e-07
3.74621e-07
3.6326e-07
3.53137e-07
3.43067e-07
3.344e-07
3.25343e-07
3.18484e-07
3.10061e-07
3.05153e-07
2.97088e-07
2.93796e-07
2.86337e-07
2.84517e-07
2.771e-07
2.7876e-07
2.72137e-07
2.88482e-07
2.80759e-07
3.08833e-07
1.72795e-05
1.13673e-05
8.52062e-06
7.01056e-06
6.03766e-06
5.31157e-06
4.73247e-06
4.25884e-06
3.86405e-06
3.52976e-06
3.24324e-06
2.99552e-06
2.77959e-06
2.59022e-06
2.4231e-06
2.27478e-06
2.14249e-06
2.02382e-06
1.91703e-06
1.82039e-06
1.73282e-06
1.653e-06
1.58018e-06
1.51346e-06
1.4521e-06
1.39576e-06
1.34342e-06
1.29544e-06
1.25031e-06
1.20914e-06
1.16992e-06
1.13439e-06
1.10005e-06
1.06938e-06
1.03891e-06
1.01267e-06
9.8512e-07
9.64317e-07
9.38616e-07
9.2368e-07
8.99144e-07
8.88752e-07
8.66223e-07
8.5945e-07
8.37761e-07
8.38723e-07
8.21917e-07
8.54677e-07
8.47609e-07
8.83315e-07
1.93701e-05
1.61297e-05
1.32912e-05
1.12897e-05
9.82905e-06
8.69678e-06
7.77961e-06
7.02208e-06
6.386e-06
5.84471e-06
5.37908e-06
4.9753e-06
4.62248e-06
4.31232e-06
4.03812e-06
3.79425e-06
3.57645e-06
3.38069e-06
3.20438e-06
3.04458e-06
2.89966e-06
2.76744e-06
2.64668e-06
2.53598e-06
2.43404e-06
2.34044e-06
2.25338e-06
2.17351e-06
2.09842e-06
2.02974e-06
1.96447e-06
1.90507e-06
1.84788e-06
1.79654e-06
1.74572e-06
1.70184e-06
1.65556e-06
1.62056e-06
1.57722e-06
1.55133e-06
1.51015e-06
1.49164e-06
1.4538e-06
1.44051e-06
1.40497e-06
1.40105e-06
1.37446e-06
1.40398e-06
1.42322e-06
1.44145e-06
1.9861e-05
1.826e-05
1.60858e-05
1.42003e-05
1.26406e-05
1.13492e-05
1.02619e-05
9.33977e-06
8.54888e-06
7.86566e-06
7.27151e-06
6.75167e-06
6.29409e-06
5.88918e-06
5.52928e-06
5.20737e-06
4.91865e-06
4.65794e-06
4.42242e-06
4.2082e-06
4.01342e-06
3.83523e-06
3.67206e-06
3.5222e-06
3.38386e-06
3.2566e-06
3.13806e-06
3.02898e-06
2.92653e-06
2.8323e-06
2.74313e-06
2.6613e-06
2.58302e-06
2.51208e-06
2.44232e-06
2.38166e-06
2.31775e-06
2.26836e-06
2.20817e-06
2.17027e-06
2.11353e-06
2.08576e-06
2.03293e-06
2.01234e-06
1.96411e-06
1.953e-06
1.91425e-06
1.92937e-06
1.97441e-06
1.9719e-06
1.99706e-05
1.78458e-05
1.6075e-05
1.47665e-05
1.36027e-05
1.25376e-05
1.15697e-05
1.0702e-05
9.92152e-06
9.22583e-06
8.60637e-06
8.05337e-06
7.55851e-06
7.1142e-06
6.71439e-06
6.35241e-06
6.02471e-06
5.72605e-06
5.45441e-06
5.20563e-06
4.97809e-06
4.76881e-06
4.57613e-06
4.39836e-06
4.2336e-06
4.08126e-06
3.93912e-06
3.8074e-06
3.68397e-06
3.56926e-06
3.46144e-06
3.36113e-06
3.26609e-06
3.17863e-06
3.09351e-06
3.01836e-06
2.94017e-06
2.87766e-06
2.80431e-06
2.75399e-06
2.68514e-06
2.64579e-06
2.58133e-06
2.55261e-06
2.49274e-06
2.47394e-06
2.42292e-06
2.42493e-06
2.46037e-06
2.44772e-06
2.00095e-05
1.47038e-05
1.3748e-05
1.32108e-05
1.25913e-05
1.19267e-05
1.12775e-05
1.06567e-05
1.00798e-05
9.54533e-06
9.04529e-06
8.57852e-06
8.14598e-06
7.74556e-06
7.37553e-06
7.03226e-06
6.71579e-06
6.42243e-06
6.15218e-06
5.90141e-06
5.66945e-06
5.45381e-06
5.25338e-06
5.06672e-06
4.89262e-06
4.7299e-06
4.57774e-06
4.43493e-06
4.30161e-06
4.17562e-06
4.05825e-06
3.94681e-06
3.84256e-06
3.74442e-06
3.65042e-06
3.56508e-06
3.47864e-06
3.40583e-06
3.32534e-06
3.26406e-06
3.18914e-06
3.13845e-06
3.06792e-06
3.02912e-06
2.96196e-06
2.93497e-06
2.87843e-06
2.85704e-06
2.8761e-06
2.85449e-06
2.01332e-05
1.54677e-05
9.6349e-06
9.39797e-06
9.49233e-06
9.49133e-06
9.43234e-06
9.29314e-06
9.05272e-06
8.77845e-06
8.48384e-06
8.18607e-06
7.89521e-06
7.61122e-06
7.33585e-06
7.0743e-06
6.82872e-06
6.59394e-06
6.37226e-06
6.16096e-06
5.96121e-06
5.77152e-06
5.5922e-06
5.4222e-06
5.26187e-06
5.10889e-06
4.96554e-06
4.82807e-06
4.70038e-06
4.57654e-06
4.46246e-06
4.35089e-06
4.24821e-06
4.14822e-06
4.05471e-06
3.96595e-06
3.87979e-06
3.80162e-06
3.722e-06
3.65318e-06
3.57986e-06
3.51972e-06
3.45155e-06
3.40065e-06
3.33698e-06
3.29513e-06
3.24587e-06
3.19851e-06
3.20279e-06
3.17364e-06
2.01713e-05
1.86761e-05
8.69287e-06
5.54035e-06
5.63029e-06
5.93361e-06
6.29125e-06
6.57529e-06
6.75421e-06
6.86186e-06
6.88076e-06
6.86109e-06
6.8091e-06
6.71964e-06
6.61016e-06
6.48779e-06
6.35163e-06
6.20932e-06
6.06824e-06
5.92605e-06
5.78669e-06
5.64929e-06
5.51614e-06
5.38618e-06
5.26103e-06
5.13978e-06
5.02634e-06
4.91346e-06
4.80909e-06
4.7036e-06
4.60762e-06
4.50947e-06
4.42103e-06
4.33042e-06
4.24848e-06
4.16544e-06
4.08941e-06
4.01334e-06
3.94327e-06
3.87309e-06
3.80906e-06
3.74446e-06
3.68599e-06
3.62676e-06
3.57436e-06
3.51837e-06
3.48011e-06
3.41848e-06
3.41235e-06
3.38004e-06
2.01672e-05
1.97239e-05
1.61678e-05
4.86248e-06
3.04257e-06
3.10543e-06
3.37366e-06
3.80243e-06
4.16737e-06
4.48372e-06
4.73032e-06
4.91841e-06
5.05899e-06
5.15778e-06
5.21681e-06
5.2519e-06
5.25599e-06
5.24737e-06
5.22597e-06
5.18668e-06
5.13993e-06
5.08405e-06
5.02478e-06
4.95916e-06
4.89315e-06
4.82136e-06
4.75154e-06
4.67631e-06
4.60666e-06
4.53155e-06
4.46398e-06
4.39049e-06
4.32578e-06
4.25476e-06
4.19319e-06
4.12518e-06
4.06716e-06
4.0019e-06
3.94817e-06
3.88542e-06
3.83663e-06
3.7762e-06
3.73179e-06
3.67307e-06
3.63403e-06
3.57507e-06
3.54455e-06
3.48282e-06
3.47078e-06
3.44218e-06
2.01476e-05
1.99342e-05
1.90657e-05
1.44996e-05
5.24549e-06
2.1552e-06
1.91434e-06
1.99304e-06
2.20555e-06
2.50273e-06
2.77782e-06
3.02906e-06
3.2534e-06
3.44838e-06
3.61188e-06
3.74884e-06
3.86041e-06
3.94794e-06
4.01965e-06
4.07126e-06
4.11046e-06
4.13366e-06
4.14955e-06
4.15139e-06
4.14831e-06
4.13898e-06
4.12562e-06
4.10279e-06
4.08116e-06
4.05076e-06
4.0233e-06
3.98777e-06
3.95664e-06
3.9171e-06
3.88457e-06
3.84219e-06
3.80924e-06
3.76474e-06
3.73226e-06
3.68601e-06
3.65418e-06
3.60659e-06
3.57624e-06
3.52769e-06
3.49976e-06
3.44979e-06
3.4245e-06
3.37228e-06
3.35589e-06
3.32929e-06
2.01216e-05
1.99661e-05
1.96424e-05
1.85466e-05
1.5214e-05
8.36423e-06
3.10989e-06
1.63375e-06
1.44227e-06
1.44869e-06
1.52476e-06
1.68404e-06
1.86553e-06
2.04077e-06
2.21028e-06
2.3678e-06
2.51467e-06
2.64431e-06
2.76258e-06
2.86489e-06
2.95671e-06
3.03375e-06
3.10219e-06
3.15777e-06
3.20602e-06
3.24366e-06
3.27714e-06
3.30027e-06
3.32066e-06
3.3326e-06
3.34214e-06
3.34582e-06
3.34553e-06
3.34266e-06
3.33788e-06
3.3271e-06
3.31893e-06
3.30205e-06
3.29119e-06
3.26949e-06
3.25649e-06
3.23082e-06
3.21609e-06
3.18701e-06
3.17092e-06
3.13882e-06
3.12145e-06
3.08549e-06
3.06922e-06
3.04781e-06
2.00982e-05
1.99327e-05
1.97573e-05
1.93526e-05
1.85067e-05
1.65388e-05
1.23348e-05
6.87194e-06
2.99708e-06
1.49586e-06
1.2435e-06
1.14723e-06
1.15081e-06
1.1923e-06
1.28362e-06
1.38889e-06
1.5011e-06
1.60925e-06
1.71901e-06
1.82245e-06
1.92234e-06
2.0138e-06
2.10041e-06
2.17808e-06
2.25119e-06
2.31513e-06
2.37533e-06
2.42702e-06
2.47514e-06
2.51592e-06
2.55333e-06
2.58446e-06
2.61278e-06
2.63485e-06
2.65593e-06
2.67037e-06
2.68469e-06
2.69288e-06
2.70087e-06
2.70414e-06
2.70583e-06
2.70456e-06
2.70214e-06
2.69565e-06
2.69022e-06
2.67827e-06
2.66992e-06
2.65178e-06
2.64172e-06
2.62745e-06
2.00781e-05
1.98876e-05
1.97569e-05
1.9461e-05
1.9146e-05
1.86418e-05
1.75584e-05
1.54321e-05
1.17573e-05
7.46952e-06
4.00455e-06
1.9273e-06
1.21184e-06
1.05781e-06
9.82936e-07
9.41671e-07
9.52225e-07
9.84746e-07
1.04664e-06
1.1092e-06
1.17797e-06
1.24651e-06
1.31676e-06
1.38515e-06
1.45357e-06
1.51729e-06
1.58003e-06
1.63754e-06
1.69337e-06
1.74411e-06
1.79295e-06
1.83661e-06
1.87854e-06
1.91527e-06
1.9503e-06
1.98072e-06
2.00915e-06
2.0336e-06
2.05597e-06
2.07458e-06
2.09166e-06
2.10418e-06
2.11644e-06
2.1236e-06
2.13038e-06
2.13352e-06
2.13358e-06
2.13102e-06
2.12879e-06
2.12263e-06
2.00614e-05
1.98539e-05
1.97343e-05
1.94711e-05
1.92553e-05
1.90472e-05
1.87369e-05
1.81932e-05
1.71037e-05
1.52455e-05
1.25929e-05
9.27322e-06
6.01543e-06
3.51453e-06
1.90483e-06
1.1766e-06
9.66851e-07
8.92022e-07
8.38008e-07
7.96057e-07
7.97175e-07
8.09721e-07
8.38375e-07
8.75907e-07
9.15663e-07
9.56461e-07
1.00025e-06
1.04309e-06
1.08781e-06
1.13084e-06
1.17424e-06
1.21487e-06
1.25515e-06
1.29255e-06
1.32892e-06
1.36269e-06
1.39493e-06
1.42459e-06
1.45263e-06
1.47769e-06
1.50168e-06
1.52167e-06
1.54139e-06
1.55675e-06
1.57133e-06
1.58232e-06
1.59231e-06
1.59674e-06
1.60266e-06
1.6022e-06
2.00475e-05
1.98303e-05
1.97077e-05
1.9449e-05
1.92722e-05
1.9115e-05
1.89658e-05
1.87516e-05
1.84648e-05
1.79179e-05
1.70874e-05
1.5721e-05
1.39135e-05
1.15803e-05
8.91473e-06
6.31164e-06
4.13292e-06
2.54905e-06
1.53438e-06
1.04337e-06
8.67196e-07
8.01576e-07
7.53702e-07
7.12869e-07
6.82742e-07
6.77418e-07
6.82583e-07
6.95306e-07
7.16553e-07
7.38663e-07
7.62945e-07
7.8679e-07
8.12849e-07
8.38624e-07
8.65339e-07
8.91542e-07
9.17802e-07
9.42984e-07
9.67502e-07
9.90511e-07
1.01281e-06
1.03271e-06
1.05251e-06
1.06917e-06
1.08555e-06
1.09904e-06
1.11166e-06
1.12104e-06
1.12916e-06
1.13518e-06
2.00362e-05
1.98125e-05
1.96852e-05
1.94187e-05
1.9258e-05
1.91087e-05
1.90006e-05
1.88504e-05
1.87136e-05
1.85038e-05
1.82524e-05
1.78406e-05
1.72452e-05
1.63821e-05
1.51946e-05
1.36709e-05
1.18802e-05
9.81159e-06
7.67651e-06
5.68004e-06
3.99061e-06
2.69977e-06
1.7688e-06
1.18796e-06
8.95432e-07
7.71568e-07
7.15696e-07
6.78174e-07
6.4342e-07
6.12424e-07
5.91583e-07
5.80715e-07
5.81693e-07
5.85946e-07
5.94955e-07
6.06364e-07
6.1898e-07
6.31674e-07
6.4464e-07
6.57732e-07
6.71039e-07
6.8413e-07
6.97542e-07
7.10021e-07
7.22212e-07
7.33778e-07
7.4396e-07
7.53282e-07
7.60602e-07
7.67843e-07
2.00272e-05
1.97986e-05
1.9666e-05
1.93969e-05
1.92321e-05
1.90813e-05
1.89825e-05
1.88538e-05
1.87378e-05
1.85989e-05
1.84637e-05
1.8294e-05
1.80882e-05
1.78036e-05
1.74228e-05
1.68844e-05
1.61857e-05
1.52744e-05
1.41478e-05
1.28179e-05
1.13356e-05
9.69079e-06
7.99459e-06
6.36308e-06
4.88131e-06
3.63265e-06
2.64079e-06
1.87661e-06
1.32941e-06
9.83209e-07
7.92919e-07
6.97199e-07
6.4794e-07
6.15577e-07
5.89007e-07
5.63055e-07
5.39547e-07
5.20473e-07
5.07491e-07
4.99751e-07
4.97519e-07
4.98361e-07
5.00595e-07
5.05096e-07
5.0893e-07
5.14747e-07
5.18165e-07
5.23063e-07
5.25662e-07
5.29705e-07
2.002e-05
1.97902e-05
1.96457e-05
1.93806e-05
1.92079e-05
1.90522e-05
1.89444e-05
1.88274e-05
1.87163e-05
1.85922e-05
1.84756e-05
1.83497e-05
1.82269e-05
1.80845e-05
1.79295e-05
1.7732e-05
1.74913e-05
1.71754e-05
1.67766e-05
1.62612e-05
1.56339e-05
1.48675e-05
1.39647e-05
1.29276e-05
1.17902e-05
1.05636e-05
9.25571e-06
7.93065e-06
6.63989e-06
5.43907e-06
4.35652e-06
3.43165e-06
2.66875e-06
2.04784e-06
1.55718e-06
1.19072e-06
9.35932e-07
7.73391e-07
6.75221e-07
6.17559e-07
5.82118e-07
5.57474e-07
5.37226e-07
5.19618e-07
5.01731e-07
4.87266e-07
4.70403e-07
4.60021e-07
4.46853e-07
4.41302e-07
2.00145e-05
1.97903e-05
1.96193e-05
1.93673e-05
1.91873e-05
1.90252e-05
1.89086e-05
1.87911e-05
1.86765e-05
1.85568e-05
1.84454e-05
1.83283e-05
1.82175e-05
1.80999e-05
1.79864e-05
1.78657e-05
1.7742e-05
1.76002e-05
1.74421e-05
1.72502e-05
1.70223e-05
1.67432e-05
1.64054e-05
1.59962e-05
1.55113e-05
1.49468e-05
1.42967e-05
1.35593e-05
1.27483e-05
1.18649e-05
1.09387e-05
9.96882e-06
8.96366e-06
7.95617e-06
6.97088e-06
6.0349e-06
5.162e-06
4.375e-06
3.66879e-06
3.06559e-06
2.55147e-06
2.11598e-06
1.75179e-06
1.45267e-06
1.21277e-06
1.02727e-06
8.84151e-07
7.84026e-07
7.02342e-07
6.58041e-07
2.00102e-05
1.97945e-05
1.95925e-05
1.93536e-05
1.91685e-05
1.89995e-05
1.88753e-05
1.87551e-05
1.86367e-05
1.85144e-05
1.84001e-05
1.82828e-05
1.81732e-05
1.80626e-05
1.79543e-05
1.7847e-05
1.77397e-05
1.76314e-05
1.75237e-05
1.74122e-05
1.72954e-05
1.71688e-05
1.70275e-05
1.68666e-05
1.66818e-05
1.64682e-05
1.62181e-05
1.59281e-05
1.55973e-05
1.52147e-05
1.47859e-05
1.43087e-05
1.37827e-05
1.32079e-05
1.25918e-05
1.19409e-05
1.1262e-05
1.05627e-05
9.86276e-06
9.14973e-06
8.44063e-06
7.7484e-06
7.08185e-06
6.45624e-06
5.86562e-06
5.33438e-06
4.83373e-06
4.41661e-06
4.00192e-06
3.65116e-06
2.0007e-05
1.9802e-05
1.95679e-05
1.93403e-05
1.91509e-05
1.89754e-05
1.88436e-05
1.87206e-05
1.8598e-05
1.84732e-05
1.83543e-05
1.82352e-05
1.81216e-05
1.80098e-05
1.78983e-05
1.77923e-05
1.76877e-05
1.75857e-05
1.74842e-05
1.73857e-05
1.7286e-05
1.71884e-05
1.70889e-05
1.69897e-05
1.68869e-05
1.67828e-05
1.66659e-05
1.6542e-05
1.64084e-05
1.62548e-05
1.60851e-05
1.58968e-05
1.56856e-05
1.54499e-05
1.51879e-05
1.49055e-05
1.45889e-05
1.42531e-05
1.38933e-05
1.35108e-05
1.31104e-05
1.26947e-05
1.22612e-05
1.18357e-05
1.13928e-05
1.09659e-05
1.05319e-05
1.01437e-05
9.72552e-06
9.35248e-06
2.00047e-05
1.98106e-05
1.95449e-05
1.93273e-05
1.91336e-05
1.89528e-05
1.88131e-05
1.86874e-05
1.85608e-05
1.84337e-05
1.83102e-05
1.81885e-05
1.80708e-05
1.79572e-05
1.78411e-05
1.77339e-05
1.76247e-05
1.75209e-05
1.74166e-05
1.73179e-05
1.72195e-05
1.71275e-05
1.70332e-05
1.69435e-05
1.68532e-05
1.67695e-05
1.66764e-05
1.65903e-05
1.65063e-05
1.64165e-05
1.63246e-05
1.62341e-05
1.61348e-05
1.60306e-05
1.59178e-05
1.58031e-05
1.56692e-05
1.55319e-05
1.53848e-05
1.52225e-05
1.50535e-05
1.48729e-05
1.4676e-05
1.44882e-05
1.4276e-05
1.40622e-05
1.38471e-05
1.36347e-05
1.34077e-05
1.31984e-05
2.0003e-05
1.98196e-05
1.95235e-05
1.93137e-05
1.91165e-05
1.89319e-05
1.87838e-05
1.86554e-05
1.85252e-05
1.83961e-05
1.82683e-05
1.81439e-05
1.80224e-05
1.79066e-05
1.77862e-05
1.76771e-05
1.75641e-05
1.74578e-05
1.73496e-05
1.72487e-05
1.71458e-05
1.70511e-05
1.6953e-05
1.68616e-05
1.67697e-05
1.66885e-05
1.65985e-05
1.65184e-05
1.64415e-05
1.63623e-05
1.62828e-05
1.6212e-05
1.61339e-05
1.60591e-05
1.59855e-05
1.59153e-05
1.58375e-05
1.57631e-05
1.56906e-05
1.56095e-05
1.55305e-05
1.54481e-05
1.53567e-05
1.52793e-05
1.51822e-05
1.50866e-05
1.49906e-05
1.48879e-05
1.47888e-05
1.46822e-05
2.00018e-05
1.98282e-05
1.9504e-05
1.92991e-05
1.90989e-05
1.89125e-05
1.87561e-05
1.86246e-05
1.84915e-05
1.83606e-05
1.82289e-05
1.81021e-05
1.79771e-05
1.78588e-05
1.77348e-05
1.76233e-05
1.75072e-05
1.73983e-05
1.72864e-05
1.71832e-05
1.70768e-05
1.69794e-05
1.68776e-05
1.67832e-05
1.66878e-05
1.66033e-05
1.65084e-05
1.64254e-05
1.63457e-05
1.62646e-05
1.61837e-05
1.61144e-05
1.60392e-05
1.59692e-05
1.59024e-05
1.5838e-05
1.57698e-05
1.57074e-05
1.5649e-05
1.55858e-05
1.55241e-05
1.5468e-05
1.5404e-05
1.53566e-05
1.52945e-05
1.52385e-05
1.51803e-05
1.51175e-05
1.50639e-05
1.49983e-05
2.00009e-05
1.98305e-05
1.94877e-05
1.9284e-05
1.90816e-05
1.88951e-05
1.87306e-05
1.85957e-05
1.84602e-05
1.83275e-05
1.81926e-05
1.80635e-05
1.79354e-05
1.78145e-05
1.7688e-05
1.75738e-05
1.7455e-05
1.73435e-05
1.72284e-05
1.71229e-05
1.70134e-05
1.69135e-05
1.68084e-05
1.67117e-05
1.66129e-05
1.6526e-05
1.64275e-05
1.63418e-05
1.62584e-05
1.61744e-05
1.60903e-05
1.60178e-05
1.59374e-05
1.58643e-05
1.57958e-05
1.57279e-05
1.56576e-05
1.55953e-05
1.55359e-05
1.54758e-05
1.54134e-05
1.5365e-05
1.53049e-05
1.526e-05
1.52054e-05
1.5156e-05
1.51045e-05
1.50501e-05
1.50032e-05
1.49492e-05
2.00003e-05
1.98288e-05
1.94744e-05
1.9268e-05
1.90641e-05
1.88796e-05
1.87073e-05
1.85689e-05
1.84314e-05
1.82974e-05
1.81597e-05
1.80287e-05
1.7898e-05
1.77747e-05
1.76464e-05
1.75295e-05
1.74084e-05
1.72947e-05
1.71766e-05
1.7069e-05
1.69565e-05
1.68545e-05
1.67463e-05
1.66481e-05
1.65456e-05
1.64571e-05
1.63557e-05
1.62677e-05
1.61814e-05
1.60953e-05
1.60086e-05
1.59337e-05
1.58494e-05
1.57744e-05
1.57037e-05
1.56324e-05
1.5558e-05
1.54952e-05
1.54314e-05
1.537e-05
1.53015e-05
1.52535e-05
1.51918e-05
1.51419e-05
1.50881e-05
1.50374e-05
1.49865e-05
1.49313e-05
1.48836e-05
1.48319e-05
2e-05
1.98271e-05
1.94631e-05
1.92504e-05
1.9046e-05
1.88654e-05
1.86862e-05
1.85442e-05
1.84052e-05
1.82703e-05
1.81308e-05
1.79982e-05
1.78654e-05
1.774e-05
1.76104e-05
1.74914e-05
1.73682e-05
1.72526e-05
1.71321e-05
1.70226e-05
1.69075e-05
1.68036e-05
1.66924e-05
1.65934e-05
1.64869e-05
1.63973e-05
1.62937e-05
1.62033e-05
1.61151e-05
1.6027e-05
1.59384e-05
1.58618e-05
1.57744e-05
1.56981e-05
1.56261e-05
1.55524e-05
1.54749e-05
1.54118e-05
1.53453e-05
1.52817e-05
1.52114e-05
1.51611e-05
1.51001e-05
1.50447e-05
1.49905e-05
1.49393e-05
1.48868e-05
1.48303e-05
1.47816e-05
1.47318e-05
1.99999e-05
1.98259e-05
1.94548e-05
1.92324e-05
1.9028e-05
1.88529e-05
1.8668e-05
1.85222e-05
1.83821e-05
1.82468e-05
1.81062e-05
1.79726e-05
1.78381e-05
1.77112e-05
1.75809e-05
1.74604e-05
1.73352e-05
1.72183e-05
1.70958e-05
1.69847e-05
1.68673e-05
1.67619e-05
1.66482e-05
1.65486e-05
1.64383e-05
1.6348e-05
1.62424e-05
1.61499e-05
1.60601e-05
1.59704e-05
1.58802e-05
1.58021e-05
1.57123e-05
1.56354e-05
1.55623e-05
1.54866e-05
1.54072e-05
1.53439e-05
1.52761e-05
1.52094e-05
1.51413e-05
1.50863e-05
1.50282e-05
1.49683e-05
1.49146e-05
1.48638e-05
1.48093e-05
1.47548e-05
1.4704e-05
1.46598e-05
1.99999e-05
1.98252e-05
1.94496e-05
1.92152e-05
1.90109e-05
1.88423e-05
1.86535e-05
1.85037e-05
1.83627e-05
1.82276e-05
1.80865e-05
1.79526e-05
1.78169e-05
1.76891e-05
1.75586e-05
1.74372e-05
1.73104e-05
1.71926e-05
1.70688e-05
1.69564e-05
1.68369e-05
1.67306e-05
1.66147e-05
1.65146e-05
1.64014e-05
1.63103e-05
1.6203e-05
1.61091e-05
1.60177e-05
1.59267e-05
1.58354e-05
1.57556e-05
1.56641e-05
1.55872e-05
1.55127e-05
1.54354e-05
1.53552e-05
1.52918e-05
1.52224e-05
1.51539e-05
1.50883e-05
1.50301e-05
1.49725e-05
1.49118e-05
1.4858e-05
1.48079e-05
1.47526e-05
1.47013e-05
1.46493e-05
1.46113e-05
1.99999e-05
1.98249e-05
1.94469e-05
1.91997e-05
1.89951e-05
1.88337e-05
1.86432e-05
1.84892e-05
1.83475e-05
1.82133e-05
1.80723e-05
1.79386e-05
1.78025e-05
1.76744e-05
1.75441e-05
1.74225e-05
1.72944e-05
1.71763e-05
1.70519e-05
1.69385e-05
1.68173e-05
1.67108e-05
1.65932e-05
1.64924e-05
1.63774e-05
1.62853e-05
1.61767e-05
1.60822e-05
1.5989e-05
1.58971e-05
1.58052e-05
1.57236e-05
1.56312e-05
1.5555e-05
1.54784e-05
1.53998e-05
1.532e-05
1.52564e-05
1.51849e-05
1.51163e-05
1.50517e-05
1.49934e-05
1.49329e-05
1.48754e-05
1.482e-05
1.47713e-05
1.47163e-05
1.46674e-05
1.46179e-05
1.45829e-05
1.99999e-05
1.9825e-05
1.94467e-05
1.91869e-05
1.89812e-05
1.88268e-05
1.86374e-05
1.8479e-05
1.83369e-05
1.82041e-05
1.80639e-05
1.79312e-05
1.77951e-05
1.76675e-05
1.7538e-05
1.74168e-05
1.72881e-05
1.71704e-05
1.70459e-05
1.6932e-05
1.68097e-05
1.67032e-05
1.65848e-05
1.64829e-05
1.63675e-05
1.62742e-05
1.61645e-05
1.60705e-05
1.59751e-05
1.58829e-05
1.57908e-05
1.57075e-05
1.56148e-05
1.55396e-05
1.54608e-05
1.5381e-05
1.53027e-05
1.52388e-05
1.51652e-05
1.50973e-05
1.50336e-05
1.49758e-05
1.49124e-05
1.48577e-05
1.48023e-05
1.47547e-05
1.47002e-05
1.46549e-05
1.46081e-05
1.45757e-05
1.99999e-05
1.98256e-05
1.94487e-05
1.91771e-05
1.89691e-05
1.88214e-05
1.86356e-05
1.84733e-05
1.8331e-05
1.82002e-05
1.80613e-05
1.79304e-05
1.77952e-05
1.76686e-05
1.75404e-05
1.74199e-05
1.72914e-05
1.71745e-05
1.70502e-05
1.69362e-05
1.68139e-05
1.67074e-05
1.65889e-05
1.64862e-05
1.63713e-05
1.6277e-05
1.61667e-05
1.60738e-05
1.59768e-05
1.58846e-05
1.57926e-05
1.57082e-05
1.56159e-05
1.55415e-05
1.54609e-05
1.53806e-05
1.53042e-05
1.52398e-05
1.51646e-05
1.50975e-05
1.5035e-05
1.49774e-05
1.49127e-05
1.48592e-05
1.48056e-05
1.47581e-05
1.47055e-05
1.46634e-05
1.46195e-05
1.45899e-05
1.99999e-05
1.98267e-05
1.94531e-05
1.9171e-05
1.89597e-05
1.88175e-05
1.86374e-05
1.84724e-05
1.833e-05
1.82014e-05
1.80644e-05
1.79356e-05
1.78015e-05
1.76765e-05
1.75501e-05
1.7431e-05
1.73033e-05
1.71881e-05
1.70644e-05
1.69508e-05
1.68292e-05
1.67231e-05
1.66048e-05
1.65014e-05
1.63876e-05
1.62924e-05
1.61819e-05
1.60903e-05
1.59919e-05
1.59e-05
1.58081e-05
1.57233e-05
1.56317e-05
1.55579e-05
1.54758e-05
1.53958e-05
1.53213e-05
1.52566e-05
1.51803e-05
1.51144e-05
1.50533e-05
1.49958e-05
1.49308e-05
1.48784e-05
1.48271e-05
1.47802e-05
1.47302e-05
1.4691e-05
1.46511e-05
1.46246e-05
1.99999e-05
1.98283e-05
1.94594e-05
1.91687e-05
1.89529e-05
1.8815e-05
1.86426e-05
1.84759e-05
1.83332e-05
1.82067e-05
1.80723e-05
1.79469e-05
1.78147e-05
1.76923e-05
1.75685e-05
1.74512e-05
1.73254e-05
1.72123e-05
1.70895e-05
1.69772e-05
1.68571e-05
1.67518e-05
1.6634e-05
1.6531e-05
1.64189e-05
1.63231e-05
1.62133e-05
1.61231e-05
1.60237e-05
1.59327e-05
1.58409e-05
1.57567e-05
1.56662e-05
1.55926e-05
1.55092e-05
1.54307e-05
1.53579e-05
1.52928e-05
1.5216e-05
1.51517e-05
1.50919e-05
1.50343e-05
1.49696e-05
1.49186e-05
1.48691e-05
1.48239e-05
1.47757e-05
1.47397e-05
1.47038e-05
1.46795e-05
1.99999e-05
1.98303e-05
1.94675e-05
1.91702e-05
1.89488e-05
1.8814e-05
1.86502e-05
1.8484e-05
1.83413e-05
1.82168e-05
1.80857e-05
1.79639e-05
1.7834e-05
1.77147e-05
1.7594e-05
1.74788e-05
1.73558e-05
1.72452e-05
1.71237e-05
1.70136e-05
1.68954e-05
1.67914e-05
1.66741e-05
1.65726e-05
1.64623e-05
1.63662e-05
1.6258e-05
1.6169e-05
1.60695e-05
1.59801e-05
1.58884e-05
1.58056e-05
1.57165e-05
1.56427e-05
1.55592e-05
1.5483e-05
1.54114e-05
1.53459e-05
1.52695e-05
1.52072e-05
1.51483e-05
1.50907e-05
1.50269e-05
1.49776e-05
1.49298e-05
1.48864e-05
1.484e-05
1.48073e-05
1.47747e-05
1.47539e-05
1.99999e-05
1.98329e-05
1.94773e-05
1.91753e-05
1.89478e-05
1.88146e-05
1.86597e-05
1.84961e-05
1.83533e-05
1.82305e-05
1.81032e-05
1.79855e-05
1.78583e-05
1.77429e-05
1.76256e-05
1.75131e-05
1.73934e-05
1.72857e-05
1.71659e-05
1.70589e-05
1.69427e-05
1.68405e-05
1.67241e-05
1.6625e-05
1.65165e-05
1.64207e-05
1.63147e-05
1.62269e-05
1.61277e-05
1.60406e-05
1.59492e-05
1.58683e-05
1.57806e-05
1.57068e-05
1.5624e-05
1.55505e-05
1.54796e-05
1.5414e-05
1.53389e-05
1.52789e-05
1.52205e-05
1.5163e-05
1.51005e-05
1.50534e-05
1.50073e-05
1.49653e-05
1.49209e-05
1.4891e-05
1.4862e-05
1.48422e-05
1.99999e-05
1.98359e-05
1.94881e-05
1.91841e-05
1.89499e-05
1.88169e-05
1.86705e-05
1.85117e-05
1.83687e-05
1.82475e-05
1.81242e-05
1.80108e-05
1.78867e-05
1.77758e-05
1.76622e-05
1.7553e-05
1.7437e-05
1.73323e-05
1.72149e-05
1.71116e-05
1.69976e-05
1.68976e-05
1.67826e-05
1.66867e-05
1.65796e-05
1.64852e-05
1.63814e-05
1.62954e-05
1.61966e-05
1.61123e-05
1.60217e-05
1.59427e-05
1.58565e-05
1.57831e-05
1.57016e-05
1.56311e-05
1.55606e-05
1.5495e-05
1.5422e-05
1.53646e-05
1.5306e-05
1.52487e-05
1.51882e-05
1.51437e-05
1.50988e-05
1.50579e-05
1.50159e-05
1.49881e-05
1.49616e-05
1.49423e-05
1.99999e-05
1.98392e-05
1.94998e-05
1.91959e-05
1.89549e-05
1.88214e-05
1.86824e-05
1.85302e-05
1.83873e-05
1.82674e-05
1.81482e-05
1.80392e-05
1.79188e-05
1.78127e-05
1.77029e-05
1.75973e-05
1.74854e-05
1.73841e-05
1.72696e-05
1.71705e-05
1.70585e-05
1.69614e-05
1.68482e-05
1.67561e-05
1.66499e-05
1.65579e-05
1.64563e-05
1.63727e-05
1.62742e-05
1.61934e-05
1.61039e-05
1.60267e-05
1.59423e-05
1.58697e-05
1.57898e-05
1.57225e-05
1.56519e-05
1.5587e-05
1.55167e-05
1.54615e-05
1.54021e-05
1.53457e-05
1.52877e-05
1.52455e-05
1.52012e-05
1.51615e-05
1.51214e-05
1.50956e-05
1.50701e-05
1.50497e-05
1.99999e-05
1.98429e-05
1.9512e-05
1.92102e-05
1.8963e-05
1.88282e-05
1.8695e-05
1.85508e-05
1.84084e-05
1.82898e-05
1.81743e-05
1.80698e-05
1.79535e-05
1.78526e-05
1.77466e-05
1.7645e-05
1.75375e-05
1.74396e-05
1.73288e-05
1.72339e-05
1.7124e-05
1.70305e-05
1.69193e-05
1.68315e-05
1.67257e-05
1.66372e-05
1.65376e-05
1.64567e-05
1.63588e-05
1.62818e-05
1.61935e-05
1.61182e-05
1.60359e-05
1.59642e-05
1.58863e-05
1.5822e-05
1.57511e-05
1.56876e-05
1.56205e-05
1.55666e-05
1.55062e-05
1.54514e-05
1.53963e-05
1.53557e-05
1.53114e-05
1.52729e-05
1.52345e-05
1.52099e-05
1.51841e-05
1.51614e-05
1.99999e-05
1.98467e-05
1.95246e-05
1.92264e-05
1.8974e-05
1.88373e-05
1.8708e-05
1.85727e-05
1.84313e-05
1.83142e-05
1.8202e-05
1.81019e-05
1.79903e-05
1.78946e-05
1.77922e-05
1.76949e-05
1.75919e-05
1.74978e-05
1.7391e-05
1.73005e-05
1.71927e-05
1.71035e-05
1.69944e-05
1.6911e-05
1.68055e-05
1.67213e-05
1.66237e-05
1.65453e-05
1.64486e-05
1.63755e-05
1.62884e-05
1.62152e-05
1.61349e-05
1.60645e-05
1.59889e-05
1.59272e-05
1.58561e-05
1.57946e-05
1.57305e-05
1.56771e-05
1.5616e-05
1.55636e-05
1.5511e-05
1.54713e-05
1.54266e-05
1.53892e-05
1.53519e-05
1.53276e-05
1.53004e-05
1.52742e-05
1.99999e-05
1.98506e-05
1.95374e-05
1.92442e-05
1.89878e-05
1.88489e-05
1.87212e-05
1.85953e-05
1.84557e-05
1.83402e-05
1.82308e-05
1.81349e-05
1.80284e-05
1.79379e-05
1.78388e-05
1.77462e-05
1.76479e-05
1.75578e-05
1.74553e-05
1.7369e-05
1.72635e-05
1.71791e-05
1.70721e-05
1.69931e-05
1.6888e-05
1.68086e-05
1.67129e-05
1.66366e-05
1.65423e-05
1.64724e-05
1.63869e-05
1.63158e-05
1.62372e-05
1.61688e-05
1.60952e-05
1.60357e-05
1.59649e-05
1.59058e-05
1.58439e-05
1.57909e-05
1.57293e-05
1.56796e-05
1.5629e-05
1.55894e-05
1.55438e-05
1.55073e-05
1.54707e-05
1.54459e-05
1.54158e-05
1.53853e-05
1.99999e-05
1.98546e-05
1.95501e-05
1.9263e-05
1.90041e-05
1.88624e-05
1.87347e-05
1.8618e-05
1.8481e-05
1.83673e-05
1.82601e-05
1.81683e-05
1.80671e-05
1.79815e-05
1.78857e-05
1.77981e-05
1.77045e-05
1.76184e-05
1.75204e-05
1.74383e-05
1.73354e-05
1.7256e-05
1.71511e-05
1.70764e-05
1.69718e-05
1.68976e-05
1.68036e-05
1.67293e-05
1.66381e-05
1.6571e-05
1.6487e-05
1.64183e-05
1.63409e-05
1.62752e-05
1.62036e-05
1.61454e-05
1.60756e-05
1.60188e-05
1.59583e-05
1.59056e-05
1.58442e-05
1.5797e-05
1.57476e-05
1.57074e-05
1.56607e-05
1.5625e-05
1.55883e-05
1.55618e-05
1.55277e-05
1.54923e-05
1.99999e-05
1.98586e-05
1.95628e-05
1.92825e-05
1.90228e-05
1.88777e-05
1.87485e-05
1.86405e-05
1.85065e-05
1.83952e-05
1.82894e-05
1.82018e-05
1.81058e-05
1.80247e-05
1.79322e-05
1.78501e-05
1.77608e-05
1.76789e-05
1.75857e-05
1.75076e-05
1.74076e-05
1.73331e-05
1.72304e-05
1.71597e-05
1.70562e-05
1.69869e-05
1.68943e-05
1.68222e-05
1.67343e-05
1.667e-05
1.65872e-05
1.65211e-05
1.64446e-05
1.63819e-05
1.6312e-05
1.62547e-05
1.61864e-05
1.61319e-05
1.60717e-05
1.60193e-05
1.59591e-05
1.59135e-05
1.5864e-05
1.5823e-05
1.57753e-05
1.574e-05
1.57022e-05
1.5673e-05
1.5634e-05
1.55935e-05
1.99999e-05
1.98625e-05
1.95754e-05
1.93023e-05
1.90432e-05
1.88944e-05
1.87629e-05
1.86625e-05
1.85318e-05
1.84232e-05
1.83185e-05
1.82349e-05
1.81438e-05
1.80668e-05
1.79779e-05
1.79014e-05
1.78162e-05
1.77385e-05
1.76504e-05
1.7576e-05
1.74794e-05
1.74092e-05
1.73093e-05
1.72418e-05
1.71403e-05
1.70753e-05
1.69838e-05
1.69147e-05
1.68297e-05
1.67681e-05
1.66861e-05
1.66225e-05
1.65472e-05
1.64875e-05
1.64189e-05
1.63623e-05
1.62955e-05
1.62433e-05
1.61826e-05
1.61307e-05
1.6072e-05
1.60274e-05
1.59763e-05
1.59344e-05
1.58861e-05
1.58503e-05
1.581e-05
1.57773e-05
1.57333e-05
1.56877e-05
1.99999e-05
1.98664e-05
1.95878e-05
1.9322e-05
1.90648e-05
1.89121e-05
1.87779e-05
1.86836e-05
1.85564e-05
1.8451e-05
1.8347e-05
1.82674e-05
1.81804e-05
1.81074e-05
1.80225e-05
1.79515e-05
1.78701e-05
1.7797e-05
1.77139e-05
1.76428e-05
1.75501e-05
1.74836e-05
1.73869e-05
1.7322e-05
1.72234e-05
1.71619e-05
1.70712e-05
1.7006e-05
1.69232e-05
1.68642e-05
1.6783e-05
1.67216e-05
1.6648e-05
1.65908e-05
1.65229e-05
1.64671e-05
1.64018e-05
1.63514e-05
1.629e-05
1.62386e-05
1.61812e-05
1.61367e-05
1.60835e-05
1.60406e-05
1.59914e-05
1.59541e-05
1.59102e-05
1.58736e-05
1.58247e-05
1.57742e-05
1.99999e-05
1.98702e-05
1.95999e-05
1.93414e-05
1.90871e-05
1.89307e-05
1.87937e-05
1.87038e-05
1.85801e-05
1.84782e-05
1.83748e-05
1.8299e-05
1.82153e-05
1.81463e-05
1.80659e-05
1.8e-05
1.79223e-05
1.78539e-05
1.77756e-05
1.77076e-05
1.76193e-05
1.75561e-05
1.74626e-05
1.74002e-05
1.73046e-05
1.72459e-05
1.71562e-05
1.70953e-05
1.70142e-05
1.69573e-05
1.68767e-05
1.68178e-05
1.67461e-05
1.66905e-05
1.6623e-05
1.65686e-05
1.65044e-05
1.64549e-05
1.6393e-05
1.63422e-05
1.62851e-05
1.624e-05
1.61846e-05
1.61405e-05
1.60897e-05
1.605e-05
1.6002e-05
1.59616e-05
1.59075e-05
1.5852e-05
1.99999e-05
1.98739e-05
1.96118e-05
1.93604e-05
1.91096e-05
1.89501e-05
1.88102e-05
1.87228e-05
1.86025e-05
1.85044e-05
1.84016e-05
1.83294e-05
1.82481e-05
1.81835e-05
1.81075e-05
1.80463e-05
1.79724e-05
1.7909e-05
1.7835e-05
1.77701e-05
1.76864e-05
1.76262e-05
1.75359e-05
1.7476e-05
1.73833e-05
1.73269e-05
1.72387e-05
1.71819e-05
1.71021e-05
1.70469e-05
1.6967e-05
1.69111e-05
1.68403e-05
1.67861e-05
1.67186e-05
1.66657e-05
1.66025e-05
1.65533e-05
1.64908e-05
1.64407e-05
1.63829e-05
1.63366e-05
1.62791e-05
1.62334e-05
1.61798e-05
1.61372e-05
1.60852e-05
1.60405e-05
1.59808e-05
1.59204e-05
1.99999e-05
1.98774e-05
1.96233e-05
1.93788e-05
1.91321e-05
1.89702e-05
1.88273e-05
1.87408e-05
1.86236e-05
1.85293e-05
1.84273e-05
1.83583e-05
1.82788e-05
1.82189e-05
1.81473e-05
1.80905e-05
1.80204e-05
1.79621e-05
1.78921e-05
1.78303e-05
1.77514e-05
1.76938e-05
1.76066e-05
1.75492e-05
1.74592e-05
1.74049e-05
1.73185e-05
1.72654e-05
1.71863e-05
1.71326e-05
1.70537e-05
1.70008e-05
1.69303e-05
1.6877e-05
1.68095e-05
1.67583e-05
1.66956e-05
1.66461e-05
1.6583e-05
1.65334e-05
1.64741e-05
1.64261e-05
1.63663e-05
1.63184e-05
1.62614e-05
1.62156e-05
1.6159e-05
1.61096e-05
1.60444e-05
1.59794e-05
1.99999e-05
1.98809e-05
1.96344e-05
1.93966e-05
1.91543e-05
1.89906e-05
1.88449e-05
1.87578e-05
1.86433e-05
1.85528e-05
1.84517e-05
1.83854e-05
1.83073e-05
1.82523e-05
1.81847e-05
1.81324e-05
1.80663e-05
1.80129e-05
1.79464e-05
1.78881e-05
1.78138e-05
1.77588e-05
1.76745e-05
1.76195e-05
1.7532e-05
1.74798e-05
1.73953e-05
1.73454e-05
1.72664e-05
1.72146e-05
1.71366e-05
1.70864e-05
1.70156e-05
1.6963e-05
1.68958e-05
1.68459e-05
1.67829e-05
1.67332e-05
1.66694e-05
1.66194e-05
1.65584e-05
1.65083e-05
1.64457e-05
1.63951e-05
1.63344e-05
1.62848e-05
1.62234e-05
1.61693e-05
1.60984e-05
1.60293e-05
1.99999e-05
1.98841e-05
1.9645e-05
1.94135e-05
1.91761e-05
1.9011e-05
1.88626e-05
1.87738e-05
1.86616e-05
1.85745e-05
1.84746e-05
1.84105e-05
1.83336e-05
1.82836e-05