/*--------------------------------*- C++ -*----------------------------------*\
  =========                 |
  \\      /  F ield         | OpenFOAM: The Open Source CFD Toolbox
   \\    /   O peration     | Website:  https://openfoam.org
    \\  /    A nd           | Version:  7
     \\/     M anipulation  |
\*---------------------------------------------------------------------------*/
FoamFile
{
    version     2.0;
    format      ascii;
    class       volScalarField;
    location    "0.27";
    object      p;
}
// * * * * * * * * * * * * * * * * * * * * * * * * * * * * * * * * * * * * * //

dimensions      [0 2 -2 0 0 0 0];

internalField   nonuniform List<scalar> 
70000
(
0.110958
0.0340701
0.020928
0.0233854
0.0236532
0.0226151
0.0216658
0.020947
0.0203495
0.0198234
0.0193545
0.0189349
0.0185569
0.0182138
0.0179002
0.0176118
0.0173449
0.0170966
0.0168645
0.0166467
0.0164414
0.0162472
0.0160629
0.0158876
0.0157203
0.0155603
0.015407
0.0152599
0.0151187
0.0149831
0.0148531
0.0147287
0.0146101
0.0144977
0.0143922
0.0142944
0.0142055
0.0141267
0.0140594
0.0140064
0.0139674
0.013949
0.0139434
0.0139696
0.0139915
0.0140693
0.0140708
0.0141899
0.0139914
0.013993
0.106657
0.0344321
0.0211305
0.02348
0.0237076
0.0226508
0.0216937
0.02097
0.0203688
0.0198399
0.0193689
0.0189476
0.0185682
0.018224
0.0179095
0.0176203
0.0173527
0.0171038
0.0168712
0.0166529
0.0164472
0.0162527
0.0160681
0.0158924
0.0157248
0.0155646
0.0154111
0.0152638
0.0151224
0.0149866
0.0148564
0.0147317
0.0146129
0.0145004
0.0143947
0.0142967
0.0142075
0.0141286
0.0140611
0.0140079
0.0139686
0.01395
0.0139442
0.0139702
0.0139919
0.0140695
0.0140712
0.0141888
0.0139956
0.0140499
0.103052
0.0353545
0.0214751
0.0236086
0.0237823
0.0226958
0.021726
0.0209962
0.0203906
0.0198583
0.0193848
0.0189615
0.0185806
0.0182352
0.0179196
0.0176295
0.0173612
0.0171117
0.0168785
0.0166597
0.0164535
0.0162586
0.0160736
0.0158977
0.0157298
0.0155693
0.0154155
0.015268
0.0151263
0.0149903
0.0148599
0.014735
0.0146161
0.0145033
0.0143974
0.0142992
0.0142098
0.0141306
0.0140629
0.0140095
0.01397
0.0139511
0.0139451
0.0139709
0.0139923
0.0140702
0.014072
0.0141893
0.0140213
0.0141256
0.0999474
0.0364536
0.0219516
0.0237812
0.0238835
0.0227538
0.0217643
0.0210261
0.0204152
0.0198788
0.0194022
0.0189767
0.018594
0.0182471
0.0179304
0.0176393
0.0173701
0.0171199
0.0168861
0.0166668
0.0164602
0.0162648
0.0160795
0.0159032
0.015735
0.0155742
0.0154201
0.0152724
0.0151305
0.0149943
0.0148636
0.0147386
0.0146194
0.0145064
0.0144003
0.0143019
0.0142123
0.0141329
0.014065
0.0140113
0.0139715
0.0139524
0.0139461
0.0139719
0.0139934
0.0140713
0.0140756
0.014192
0.0140676
0.0142236
0.0969911
0.0375474
0.0225251
0.0239995
0.0240181
0.0228323
0.0218134
0.0210632
0.0204453
0.0199035
0.0194229
0.0189943
0.0186094
0.0182607
0.0179426
0.0176503
0.0173802
0.0171291
0.0168946
0.0166747
0.0164675
0.0162717
0.0160859
0.0159092
0.0157407
0.0155796
0.0154253
0.0152773
0.0151352
0.0149987
0.0148679
0.0147426
0.0146232
0.0145101
0.0144038
0.0143052
0.0142154
0.0141358
0.0140676
0.0140137
0.0139737
0.0139544
0.013948
0.0139736
0.0139956
0.0140736
0.0140825
0.0141987
0.0141323
0.0143509
0.0940839
0.0385795
0.023149
0.024244
0.0241804
0.0229329
0.0218761
0.0211096
0.0204827
0.0199341
0.0194482
0.0190158
0.0186279
0.018277
0.0179571
0.0176633
0.0173919
0.0171398
0.0169045
0.0166838
0.016476
0.0162796
0.0160934
0.0159163
0.0157474
0.0155859
0.0154313
0.015283
0.0151407
0.015004
0.0148729
0.0147475
0.014628
0.0145146
0.0144082
0.0143094
0.0142195
0.0141397
0.0140713
0.0140172
0.0139771
0.0139577
0.0139513
0.0139769
0.0139999
0.0140781
0.0140947
0.014212
0.0142143
0.0145078
0.0912185
0.0395327
0.0237899
0.0244936
0.0243569
0.0230509
0.0219512
0.0211653
0.020528
0.0199713
0.0194791
0.0190419
0.0186504
0.0182967
0.0179745
0.0176789
0.017406
0.0171526
0.0169162
0.0166946
0.016486
0.016289
0.0161022
0.0159246
0.0157552
0.0155934
0.0154385
0.0152899
0.0151473
0.0150104
0.0148792
0.0147536
0.0146339
0.0145204
0.0144139
0.014315
0.014225
0.0141451
0.0140767
0.0140225
0.0139824
0.0139629
0.0139567
0.0139825
0.0140073
0.0140859
0.0141133
0.0142345
0.014312
0.0146908
0.0884041
0.0404007
0.0244317
0.0247365
0.0245368
0.0231798
0.0220354
0.0212283
0.0205798
0.0200144
0.0195151
0.0190726
0.018677
0.01832
0.0179951
0.0176974
0.0174227
0.0171679
0.0169302
0.0167075
0.016498
0.0163002
0.0161127
0.0159345
0.0157647
0.0156024
0.0154471
0.0152982
0.0151554
0.0150183
0.0148869
0.0147612
0.0146414
0.0145279
0.0144213
0.0143224
0.0142324
0.0141525
0.0140841
0.01403
0.01399
0.0139707
0.0139651
0.0139913
0.0140186
0.0140982
0.0141393
0.0142684
0.0144237
0.0148953
0.0856471
0.0411807
0.0250689
0.0249689
0.0247138
0.0233145
0.0221254
0.021296
0.0206361
0.020062
0.0195555
0.0191072
0.0187071
0.0183466
0.0180189
0.0177188
0.0174421
0.0171856
0.0169465
0.0167226
0.0165121
0.0163133
0.0161251
0.0159463
0.0157759
0.0156132
0.0154575
0.0153083
0.0151651
0.0150279
0.0148963
0.0147705
0.0146507
0.0145372
0.0144307
0.0143319
0.014242
0.0141624
0.0140942
0.0140404
0.0140007
0.0139818
0.0139771
0.014004
0.0140348
0.014116
0.0141735
0.0143152
0.0145473
0.0151159
0.0829511
0.0418721
0.0257
0.0251905
0.0248851
0.0234524
0.022219
0.0213663
0.0206952
0.0201126
0.0195988
0.0191447
0.0187402
0.018376
0.0180453
0.0177427
0.0174639
0.0172056
0.016965
0.0167398
0.0165282
0.0163285
0.0161394
0.0159599
0.0157889
0.0156257
0.0154696
0.0153201
0.0151767
0.0150393
0.0149077
0.0147818
0.0146621
0.0145487
0.0144423
0.0143438
0.0142542
0.0141749
0.0141072
0.0140538
0.0140148
0.0139966
0.0139932
0.0140212
0.0140563
0.0141401
0.0142164
0.0143756
0.0146809
0.0153459
0.0803192
0.0424751
0.0263241
0.0254025
0.0250492
0.0235918
0.0223152
0.0214381
0.0207559
0.0201649
0.019644
0.0191842
0.0187751
0.0184073
0.0180736
0.0177685
0.0174876
0.0172275
0.0169853
0.0167588
0.016546
0.0163454
0.0161555
0.0159752
0.0158037
0.01564
0.0154835
0.0153336
0.0151901
0.0150525
0.0149209
0.0147951
0.0146755
0.0145623
0.0144563
0.0143582
0.014269
0.0141903
0.0141231
0.0140705
0.0140324
0.0140151
0.0140135
0.014043
0.0140835
0.0141709
0.0142676
0.0144487
0.0148219
0.0155782
0.0777544
0.0429903
0.0269397
0.025606
0.0252053
0.0237319
0.0224136
0.0215111
0.0208174
0.0202184
0.0196904
0.0192249
0.0188114
0.01844
0.0181033
0.0177957
0.0175127
0.0172508
0.0170071
0.0167793
0.0165653
0.0163637
0.016173
0.015992
0.0158199
0.0156557
0.0154989
0.0153488
0.0152051
0.0150674
0.0149358
0.0148102
0.0146908
0.014578
0.0144724
0.0143748
0.0142862
0.0142083
0.014142
0.0140903
0.0140534
0.0140374
0.014038
0.0140694
0.0141159
0.0142083
0.0143262
0.0145329
0.0149666
0.0158061
0.0752596
0.0434182
0.0275443
0.0258024
0.0253527
0.0238719
0.0225141
0.021585
0.0208796
0.0202727
0.0197377
0.0192665
0.0188485
0.0184736
0.018134
0.0178239
0.0175388
0.0172751
0.0170299
0.0168007
0.0165857
0.0163831
0.0161916
0.01601
0.0158373
0.0156727
0.0155155
0.0153652
0.0152213
0.0150837
0.0149522
0.0148268
0.0147077
0.0145954
0.0144903
0.0143934
0.0143057
0.0142286
0.0141634
0.0141129
0.0140774
0.014063
0.0140662
0.0140999
0.0141531
0.0142516
0.0143909
0.0146255
0.0151121
0.016023
0.0728373
0.0437598
0.0281354
0.0259931
0.025491
0.0240109
0.0226166
0.0216599
0.0209422
0.0203276
0.0197858
0.0193089
0.0188864
0.0185079
0.0181654
0.0178528
0.0175656
0.0173002
0.0170534
0.016823
0.0166069
0.0164034
0.0162111
0.0160288
0.0158556
0.0156905
0.0155331
0.0153826
0.0152387
0.0151011
0.0149698
0.0148447
0.014726
0.0146142
0.0145098
0.0144137
0.0143269
0.0142509
0.0141869
0.0141378
0.014104
0.0140913
0.0140974
0.0141338
0.014194
0.0142999
0.0144599
0.0147234
0.015255
0.0162235
0.0704898
0.0440165
0.0287098
0.0261798
0.0256197
0.024148
0.0227209
0.0217357
0.0210052
0.0203831
0.0198345
0.0193519
0.0189249
0.0185428
0.0181973
0.0178823
0.017593
0.0173258
0.0170776
0.0168459
0.0166287
0.0164242
0.0162312
0.0160483
0.0158745
0.0157091
0.0155514
0.0154008
0.0152569
0.0151194
0.0149883
0.0148635
0.0147453
0.0146341
0.0145305
0.0144353
0.0143495
0.0142747
0.014212
0.0141644
0.0141325
0.0141217
0.014131
0.0141704
0.0142378
0.0143518
0.0145314
0.0148233
0.0153921
0.0164036
0.0682191
0.04419
0.0292643
0.0263638
0.0257388
0.0242821
0.0228267
0.0218124
0.0210686
0.020439
0.0198838
0.0193954
0.0189639
0.0185782
0.0182298
0.0179123
0.017621
0.017352
0.0171023
0.0168693
0.016651
0.0164456
0.0162518
0.0160683
0.0158941
0.0157283
0.0155703
0.0154196
0.0152757
0.0151383
0.0150074
0.0148831
0.0147654
0.0146549
0.014552
0.0144578
0.0143731
0.0142996
0.0142383
0.0141923
0.0141624
0.0141536
0.0141661
0.0142088
0.0142832
0.014406
0.0146037
0.0149224
0.0155207
0.0165606
0.0660269
0.0442825
0.0297958
0.0265465
0.0258482
0.0244124
0.0229339
0.0218902
0.0211322
0.0204953
0.0199337
0.0194396
0.0190035
0.0186142
0.0182628
0.0179428
0.0176494
0.0173786
0.0171274
0.0168931
0.0166737
0.0164675
0.0162729
0.0160887
0.015914
0.0157479
0.0155897
0.0154389
0.015295
0.0151578
0.0150272
0.0149032
0.0147861
0.0146763
0.0145743
0.014481
0.0143975
0.0143252
0.0142655
0.0142211
0.0141931
0.0141865
0.0142022
0.0142484
0.0143296
0.0144613
0.0146752
0.0150181
0.0156387
0.016693
0.0639143
0.0442967
0.0303011
0.026729
0.0259481
0.0245376
0.0230419
0.0219689
0.0211961
0.020552
0.0199842
0.0194844
0.0190436
0.0186507
0.0182963
0.0179738
0.0176783
0.0174057
0.017153
0.0169174
0.0166969
0.0164898
0.0162944
0.0161096
0.0159344
0.015768
0.0156095
0.0154586
0.0153147
0.0151777
0.0150474
0.0149239
0.0148073
0.0146982
0.014597
0.0145048
0.0144224
0.0143515
0.0142932
0.0142504
0.0142245
0.0142199
0.0142388
0.0142885
0.0143761
0.0145166
0.0147449
0.0151085
0.0157444
0.0168005
0.0618821
0.0442358
0.0307773
0.026912
0.026039
0.024657
0.0231503
0.0220487
0.0212601
0.0206088
0.020035
0.0195296
0.0190843
0.0186877
0.0183303
0.0180053
0.0177076
0.0174333
0.017179
0.0169422
0.0167206
0.0165125
0.0163163
0.016131
0.0159553
0.0157885
0.0156298
0.0154787
0.0153349
0.015198
0.015068
0.0149449
0.014829
0.0147205
0.0146203
0.014529
0.0144478
0.0143781
0.0143214
0.0142802
0.0142562
0.0142537
0.0142756
0.0143288
0.0144224
0.0145711
0.0148117
0.0151921
0.0158368
0.0168832
0.0599306
0.0441034
0.0312214
0.0270959
0.0261214
0.0247695
0.0232586
0.0221295
0.0213242
0.0206657
0.0200863
0.0195754
0.0191254
0.0187251
0.0183648
0.0180373
0.0177375
0.0174613
0.0172055
0.0169673
0.0167446
0.0165356
0.0163387
0.0161527
0.0159765
0.0158093
0.0156505
0.0154993
0.0153555
0.0152188
0.0150891
0.0149664
0.014851
0.0147433
0.0146439
0.0145536
0.0144735
0.0144051
0.0143498
0.0143102
0.0142881
0.0142876
0.0143124
0.014369
0.0144678
0.0146242
0.0148748
0.0152678
0.015915
0.0169415
0.0580598
0.0439039
0.0316306
0.0272809
0.026196
0.0248745
0.0233661
0.0222111
0.0213885
0.0207227
0.0201379
0.0196216
0.019167
0.018763
0.0183997
0.0180697
0.0177678
0.0174898
0.0172324
0.0169929
0.0167691
0.0165591
0.0163615
0.0161748
0.0159982
0.0158306
0.0156715
0.0155203
0.0153765
0.01524
0.0151105
0.0149883
0.0148735
0.0147665
0.0146679
0.0145786
0.0144996
0.0144324
0.0143786
0.0143404
0.0143201
0.0143216
0.0143489
0.0144087
0.0145123
0.0146752
0.0149336
0.015335
0.0159787
0.0169762
0.0562692
0.0436416
0.0320022
0.0274666
0.0262636
0.0249712
0.023472
0.0222935
0.0214529
0.0207795
0.0201897
0.0196683
0.019209
0.0188014
0.0184351
0.0181026
0.0177985
0.0175187
0.0172598
0.017019
0.016794
0.0165831
0.0163847
0.0161974
0.0160203
0.0158524
0.015693
0.0155417
0.0153979
0.0152615
0.0151324
0.0150106
0.0148963
0.01479
0.0146922
0.0146039
0.014526
0.01446
0.0144075
0.0143707
0.0143522
0.0143554
0.0143851
0.0144479
0.0145554
0.0147238
0.0149877
0.0153932
0.0160276
0.0169883
0.0545578
0.0433215
0.032334
0.0276523
0.0263252
0.0250591
0.0235756
0.0223766
0.0215174
0.0208362
0.0202417
0.0197153
0.0192515
0.0188401
0.0184709
0.0181359
0.0178297
0.0175481
0.0172876
0.0170455
0.0168194
0.0166075
0.0164083
0.0162204
0.0160427
0.0158745
0.0157149
0.0155635
0.0154198
0.0152835
0.0151547
0.0150333
0.0149195
0.0148139
0.0147169
0.0146295
0.0145527
0.0144879
0.0144366
0.0144012
0.0143842
0.0143891
0.0144209
0.0144862
0.0145969
0.0147694
0.0150366
0.015442
0.0160617
0.0169788
0.0529244
0.0429489
0.0326239
0.027837
0.0263819
0.0251379
0.023676
0.02246
0.021582
0.0208926
0.0202936
0.0197626
0.0192943
0.0188793
0.0185071
0.0181696
0.0178613
0.0175779
0.0173158
0.0170724
0.0168452
0.0166324
0.0164323
0.0162438
0.0160657
0.015897
0.0157372
0.0155857
0.015442
0.0153059
0.0151774
0.0150564
0.0149432
0.0148382
0.014742
0.0146555
0.0145797
0.0145159
0.0144659
0.0144317
0.0144161
0.0144225
0.0144561
0.0145235
0.0146366
0.0148119
0.0150798
0.0154812
0.0160812
0.0169486
0.0513674
0.0425291
0.0328702
0.028019
0.0264345
0.0252076
0.0237723
0.0225435
0.0216467
0.0209486
0.0203455
0.0198102
0.0193375
0.0189188
0.0185436
0.0182037
0.0178933
0.0176081
0.0173445
0.0170997
0.0168714
0.0166576
0.0164568
0.0162676
0.016089
0.01592
0.01576
0.0156083
0.0154647
0.0153287
0.0152004
0.0150798
0.0149672
0.0148628
0.0147674
0.0146818
0.0146069
0.0145442
0.0144952
0.0144622
0.0144479
0.0144556
0.0144906
0.0145596
0.0146743
0.0148508
0.0151172
0.0155106
0.0160863
0.0168992
0.0498849
0.0420679
0.0330717
0.0281967
0.0264841
0.0252682
0.0238636
0.0226265
0.0217115
0.0210042
0.0203971
0.0198579
0.019381
0.0189587
0.0185806
0.0182382
0.0179257
0.0176387
0.0173736
0.0171275
0.016898
0.0166833
0.0164817
0.0162919
0.0161128
0.0159434
0.0157831
0.0156314
0.0154877
0.015352
0.0152239
0.0151037
0.0149916
0.0148879
0.0147932
0.0147083
0.0146344
0.0145726
0.0145247
0.0144927
0.0144794
0.0144883
0.0145243
0.0145944
0.0147098
0.0148859
0.0151484
0.0155304
0.0160775
0.0168319
0.0484745
0.0415709
0.0332276
0.0283677
0.0265316
0.02532
0.0239492
0.0227087
0.0217763
0.0210593
0.0204484
0.0199056
0.0194247
0.0189988
0.0186178
0.0182731
0.0179585
0.0176697
0.017403
0.0171556
0.0169251
0.0167094
0.016507
0.0163166
0.016137
0.0159672
0.0158067
0.0156549
0.0155112
0.0153756
0.0152478
0.015128
0.0150163
0.0149132
0.0148192
0.0147352
0.0146621
0.0146012
0.0145542
0.0145232
0.0145108
0.0145204
0.0145572
0.0146277
0.0147427
0.014917
0.0151733
0.0155405
0.0160554
0.0167481
0.0471339
0.0410438
0.0333377
0.0285297
0.0265778
0.0253635
0.0240282
0.0227894
0.021841
0.021114
0.0204991
0.0199532
0.0194686
0.0190391
0.0186553
0.0183082
0.0179917
0.0177011
0.0174329
0.0171842
0.0169525
0.016736
0.0165328
0.0163417
0.0161616
0.0159915
0.0158307
0.0156788
0.0155351
0.0153996
0.0152721
0.0151527
0.0150415
0.0149389
0.0148456
0.0147623
0.01469
0.0146299
0.0145837
0.0145535
0.0145417
0.014552
0.014589
0.0146594
0.0147731
0.0149439
0.0151918
0.0155413
0.0160208
0.0166497
0.0458602
0.0404922
0.0334021
0.02868
0.0266231
0.0253992
0.0241
0.022868
0.0219055
0.0211681
0.0205493
0.0200006
0.0195125
0.0190797
0.0186931
0.0183437
0.0180252
0.0177328
0.0174632
0.0172132
0.0169804
0.0167629
0.0165589
0.0163672
0.0161866
0.0160161
0.0158552
0.0157031
0.0155595
0.0154241
0.0152968
0.0151777
0.015067
0.014965
0.0148723
0.0147897
0.0147181
0.0146587
0.0146133
0.0145836
0.0145723
0.0145828
0.0146197
0.0146892
0.0148006
0.0149664
0.0152039
0.015533
0.0159746
0.0165382
0.0446507
0.0399214
0.0334218
0.0288161
0.0266679
0.0254279
0.0241641
0.0229438
0.0219697
0.0212216
0.0205988
0.0200477
0.0195565
0.0191204
0.018731
0.0183794
0.0180589
0.0177649
0.0174938
0.0172425
0.0170086
0.0167902
0.0165855
0.0163931
0.016212
0.0160412
0.01588
0.0157278
0.0155842
0.0154489
0.0153219
0.0152031
0.0150928
0.0149914
0.0148993
0.0148173
0.0147463
0.0146876
0.0146427
0.0146135
0.0146025
0.0146129
0.0146491
0.0147171
0.0148252
0.0149846
0.0152096
0.0155161
0.0159177
0.0164158
0.0435024
0.0393364
0.0333979
0.0289357
0.0267119
0.0254504
0.0242203
0.023016
0.0220331
0.0212745
0.0206475
0.0200943
0.0196004
0.0191612
0.0187691
0.0184153
0.018093
0.0177973
0.0175247
0.0172722
0.0170373
0.0168179
0.0166124
0.0164195
0.0162379
0.0160667
0.0159053
0.0157529
0.0156093
0.0154742
0.0153474
0.0152289
0.015119
0.0150181
0.0149265
0.0148451
0.0147747
0.0147165
0.0146721
0.0146432
0.0146321
0.0146421
0.0146772
0.014743
0.0148468
0.0149984
0.0152093
0.0154911
0.0158515
0.0162842
0.0424123
0.0387419
0.0333325
0.0290365
0.0267546
0.0254675
0.0242683
0.0230841
0.0220955
0.0213268
0.0206953
0.0201403
0.019644
0.019202
0.0188073
0.0184514
0.0181272
0.01783
0.0175559
0.0173022
0.0170662
0.016846
0.0166398
0.0164462
0.0162641
0.0160926
0.0159309
0.0157785
0.0156349
0.0154998
0.0153732
0.0152551
0.0151456
0.015045
0.014954
0.014873
0.0148032
0.0147454
0.0147013
0.0146725
0.0146612
0.0146704
0.0147039
0.0147667
0.0148653
0.0150078
0.015203
0.0154588
0.0157771
0.0161455
0.0413773
0.038142
0.0332277
0.0291166
0.0267954
0.0254799
0.0243082
0.0231471
0.0221564
0.0213783
0.0207421
0.0201856
0.0196874
0.0192428
0.0188455
0.0184875
0.0181616
0.0178628
0.0175875
0.0173325
0.0170955
0.0168744
0.0166675
0.0164733
0.0162907
0.0161189
0.015957
0.0158044
0.0156608
0.0155259
0.0153994
0.0152816
0.0151724
0.0150723
0.0149817
0.0149012
0.0148317
0.0147743
0.0147303
0.0147014
0.0146896
0.0146977
0.0147291
0.0147883
0.0148807
0.0150129
0.0151912
0.0154198
0.0156958
0.0160019
0.0403942
0.0375405
0.0330864
0.0291746
0.0268329
0.0254882
0.0243402
0.0232046
0.0222154
0.0214289
0.0207879
0.0202299
0.0197303
0.0192833
0.0188838
0.0185238
0.0181962
0.0178959
0.0176192
0.0173631
0.0171251
0.0169032
0.0166955
0.0165007
0.0163177
0.0161455
0.0159834
0.0158307
0.0156871
0.0155523
0.015426
0.0153084
0.0151996
0.0150998
0.0150096
0.0149295
0.0148603
0.0148031
0.0147591
0.0147299
0.0147174
0.014724
0.0147528
0.0148077
0.0148931
0.015014
0.0151743
0.015375
0.015609
0.0158553
0.0394602
0.0369405
0.0329114
0.0292092
0.0268659
0.0254929
0.0243645
0.023256
0.0222718
0.0214786
0.0208327
0.0202733
0.0197725
0.0193237
0.0189219
0.01856
0.0182308
0.0179292
0.0176512
0.017394
0.017155
0.0169322
0.0167239
0.0165286
0.0163451
0.0161726
0.0160102
0.0158574
0.0157138
0.015579
0.0154529
0.0153356
0.015227
0.0151276
0.0150377
0.0149579
0.014889
0.0148318
0.0147877
0.0147579
0.0147443
0.0147491
0.0147749
0.0148249
0.0149025
0.0150113
0.0151528
0.0153253
0.0155183
0.0157078
0.0385722
0.036345
0.0327062
0.0292196
0.0268929
0.0254944
0.0243816
0.0233008
0.0223252
0.0215269
0.0208763
0.0203155
0.0198141
0.0193636
0.0189599
0.0185962
0.0182655
0.0179625
0.0176834
0.0174251
0.0171852
0.0169616
0.0167526
0.0165567
0.0163728
0.0162
0.0160374
0.0158845
0.0157408
0.0156061
0.0154802
0.015363
0.0152547
0.0151556
0.0150659
0.0149864
0.0149176
0.0148604
0.0148159
0.0147854
0.0147705
0.0147731
0.0147954
0.0148399
0.0149091
0.015005
0.0151273
0.0152717
0.0154249
0.0155613
0.0377274
0.0357563
0.0324741
0.0292056
0.0269123
0.0254927
0.0243921
0.0233388
0.022375
0.0215738
0.0209186
0.0203566
0.0198547
0.0194031
0.0189976
0.0186322
0.0183002
0.017996
0.0177157
0.0174564
0.0172156
0.0169912
0.0167816
0.0165852
0.0164008
0.0162277
0.0160649
0.0159119
0.0157682
0.0156335
0.0155077
0.0153907
0.0152827
0.0151837
0.0150943
0.0150149
0.0149461
0.0148888
0.0148438
0.0148124
0.0147959
0.014796
0.0148143
0.0148528
0.014913
0.0149956
0.0150984
0.0152151
0.0153305
0.0154177
0.0369231
0.0351762
0.0322185
0.0291672
0.0269226
0.0254879
0.0243964
0.0233698
0.0224206
0.0216187
0.0209597
0.0203962
0.0198943
0.019442
0.019035
0.0186681
0.0183347
0.0180294
0.0177481
0.0174878
0.0172462
0.0170211
0.0168108
0.0166139
0.0164292
0.0162557
0.0160927
0.0159396
0.0157958
0.0156612
0.0155355
0.0154187
0.0153108
0.0152121
0.0151228
0.0150434
0.0149746
0.0149169
0.0148713
0.0148388
0.0148204
0.0148176
0.0148316
0.0148637
0.0149145
0.0149834
0.0150668
0.0151566
0.0152364
0.0152788
0.0361566
0.0346064
0.0319427
0.0291047
0.0269223
0.0254794
0.0243949
0.0233939
0.0224615
0.0216615
0.0209992
0.0204345
0.0199327
0.01948
0.019072
0.0187037
0.0183691
0.0180627
0.0177805
0.0175193
0.0172769
0.0170512
0.0168403
0.0166429
0.0164578
0.016284
0.0161208
0.0159676
0.0158238
0.0156892
0.0155636
0.0154469
0.0153392
0.0152406
0.0151514
0.015072
0.0150029
0.0149448
0.0148984
0.0148645
0.0148441
0.0148381
0.0148475
0.0148728
0.0149138
0.0149689
0.0150331
0.0150973
0.0151439
0.0151461
0.0354256
0.0340479
0.03165
0.0290192
0.0269101
0.0254669
0.0243882
0.0234109
0.0224972
0.0217015
0.0210372
0.0204713
0.0199699
0.0195172
0.0191083
0.0187389
0.0184032
0.0180959
0.0178128
0.0175509
0.0173078
0.0170814
0.01687
0.0166721
0.0164866
0.0163126
0.0161492
0.0159958
0.015852
0.0157175
0.0155919
0.0154753
0.0153677
0.0152692
0.01518
0.0151005
0.0150311
0.0149724
0.014925
0.0148896
0.0148669
0.0148575
0.0148619
0.0148801
0.0149112
0.0149525
0.0149981
0.015038
0.0150543
0.0150208
0.0347277
0.0335018
0.0313433
0.0289116
0.0268851
0.0254497
0.0243765
0.0234213
0.0225275
0.0217384
0.0210733
0.0205065
0.0200055
0.0195533
0.019144
0.0187737
0.0184371
0.018129
0.0178451
0.0175825
0.0173387
0.0171117
0.0168998
0.0167015
0.0165157
0.0163414
0.0161778
0.0160244
0.0158805
0.015746
0.0156205
0.0155039
0.0153964
0.0152978
0.0152086
0.0151289
0.0150592
0.0149998
0.0149512
0.0149141
0.0148888
0.0148757
0.0148749
0.0148859
0.014907
0.0149348
0.0149627
0.0149799
0.0149687
0.0149045
0.0340609
0.0329685
0.0310254
0.0287834
0.0268465
0.025427
0.02436
0.0234251
0.0225519
0.0217718
0.0211073
0.02054
0.0200397
0.0195882
0.0191789
0.0188079
0.0184705
0.0181617
0.0178772
0.017614
0.0173696
0.0171421
0.0169297
0.0167311
0.016545
0.0163704
0.0162067
0.0160531
0.0159092
0.0157747
0.0156492
0.0155327
0.0154251
0.0153266
0.0152372
0.0151572
0.015087
0.0150267
0.0149769
0.0149379
0.0149099
0.014893
0.0148868
0.0148904
0.0149016
0.0149163
0.0149274
0.0149238
0.0148884
0.0147982
0.0334232
0.0324485
0.0306988
0.0286361
0.0267938
0.025398
0.0243388
0.0234227
0.0225703
0.0218013
0.021139
0.0205716
0.0200721
0.0196218
0.0192128
0.0188415
0.0185035
0.0181941
0.0179091
0.0176454
0.0174005
0.0171725
0.0169597
0.0167607
0.0165744
0.0163996
0.0162357
0.016082
0.0159381
0.0158035
0.015678
0.0155615
0.015454
0.0153553
0.0152657
0.0151854
0.0151145
0.0150534
0.0150021
0.0149611
0.0149302
0.0149092
0.0148976
0.0148939
0.0148954
0.0148975
0.0148929
0.0148706
0.0148142
0.0147026
0.0328126
0.0319419
0.0303659
0.0284715
0.0267268
0.025362
0.0243129
0.0234143
0.0225827
0.0218264
0.0211679
0.0206012
0.0201028
0.0196538
0.0192456
0.0188742
0.0185359
0.0182261
0.0179407
0.0176765
0.0174313
0.0172029
0.0169898
0.0167905
0.0166039
0.0164289
0.0162649
0.0161111
0.0159671
0.0158325
0.015707
0.0155905
0.0154828
0.015384
0.0152942
0.0152134
0.0151418
0.0150796
0.0150269
0.0149836
0.0149497
0.0149247
0.0149075
0.0148966
0.0148887
0.014879
0.01486
0.0148211
0.0147469
0.0146182
0.0322275
0.0314488
0.0300286
0.0282913
0.0266455
0.0253181
0.024282
0.0234001
0.022589
0.0218468
0.0211939
0.0206287
0.0201316
0.0196842
0.0192771
0.0189061
0.0185676
0.0182575
0.0179719
0.0177075
0.0174619
0.0172332
0.0170198
0.0168202
0.0166334
0.0164583
0.0162941
0.0161403
0.0159962
0.0158616
0.0157361
0.0156195
0.0155117
0.0154127
0.0153226
0.0152412
0.0151689
0.0151055
0.0150511
0.0150055
0.0149685
0.0149393
0.0149168
0.0148987
0.0148819
0.0148613
0.0148294
0.014776
0.0146872
0.0145456
0.0316664
0.0309691
0.0296886
0.0280973
0.0265504
0.0252659
0.0242458
0.0233804
0.0225892
0.0218623
0.0212165
0.0206538
0.0201584
0.0197129
0.0193072
0.0189369
0.0185985
0.0182884
0.0180026
0.017738
0.0174922
0.0172633
0.0170497
0.0168499
0.0166629
0.0164877
0.0163235
0.0161695
0.0160254
0.0158907
0.0157651
0.0156484
0.0155405
0.0154413
0.0153507
0.0152688
0.0151956
0.0151309
0.0150748
0.0150269
0.0149867
0.0149534
0.0149254
0.0149006
0.0148754
0.0148448
0.0148014
0.0147358
0.0146354
0.0144849
0.0311277
0.0305027
0.0293475
0.0278913
0.0264418
0.0252048
0.0242042
0.0233553
0.0225835
0.0218726
0.0212354
0.0206763
0.0201831
0.0197397
0.0193358
0.0189664
0.0186285
0.0183185
0.0180327
0.0177681
0.0175222
0.0172932
0.0170794
0.0168796
0.0166924
0.0165171
0.0163528
0.0161988
0.0160546
0.0159198
0.0157942
0.0156774
0.0155693
0.0154698
0.0153787
0.0152962
0.0152219
0.015156
0.015098
0.0150477
0.0150043
0.0149669
0.0149338
0.0149025
0.0148696
0.0148299
0.0147767
0.0147011
0.0145918
0.014436
0.0306102
0.0300493
0.0290065
0.0276749
0.0263205
0.0251344
0.0241567
0.0233249
0.022572
0.0218776
0.0212504
0.020696
0.0202054
0.0197644
0.0193626
0.0189947
0.0186575
0.0183478
0.0180622
0.0177977
0.0175519
0.0173228
0.017109
0.016909
0.0167218
0.0165464
0.016382
0.016228
0.0160838
0.0159489
0.0158232
0.0157063
0.0155979
0.015498
0.0154065
0.0153232
0.015248
0.0151806
0.0151208
0.015068
0.0150215
0.0149801
0.014942
0.0149047
0.0148647
0.0148172
0.0147556
0.0146722
0.0145568
0.0143987
0.0301125
0.0296087
0.0286668
0.0274498
0.0261873
0.0250547
0.024103
0.023289
0.0225548
0.0218772
0.0212612
0.0207125
0.0202253
0.0197871
0.0193877
0.0190215
0.0186853
0.0183762
0.018091
0.0178267
0.017581
0.017352
0.0171382
0.0169382
0.016751
0.0165756
0.0164112
0.0162571
0.0161128
0.015978
0.0158521
0.015735
0.0156264
0.0155261
0.015434
0.0153499
0.0152736
0.0152048
0.0151431
0.0150879
0.0150383
0.014993
0.0149503
0.0149075
0.0148612
0.0148068
0.0147385
0.0146491
0.0145302
0.0143728
0.0296335
0.0291805
0.0283292
0.0272174
0.0260431
0.0249656
0.0240428
0.0232478
0.0225321
0.0218714
0.0212675
0.0207258
0.0202426
0.0198075
0.0194108
0.0190466
0.0187118
0.0184035
0.0181189
0.017855
0.0176096
0.0173808
0.017167
0.0169672
0.01678
0.0166046
0.0164402
0.0162861
0.0161418
0.0160068
0.0158808
0.0157635
0.0156546
0.015554
0.0154613
0.0153763
0.0152989
0.0152286
0.015165
0.0151074
0.0150548
0.0150059
0.0149588
0.014911
0.0148592
0.0147992
0.0147255
0.0146322
0.014512
0.0143577
0.0291722
0.0287645
0.0279946
0.0269792
0.0258888
0.0248672
0.0239759
0.0232012
0.0225038
0.0218603
0.0212692
0.0207354
0.020257
0.0198254
0.0194317
0.01907
0.0187369
0.0184297
0.0181458
0.0178825
0.0176375
0.0174089
0.0171954
0.0169957
0.0168086
0.0166333
0.0164689
0.0163148
0.0161705
0.0160355
0.0159094
0.0157919
0.0156826
0.0155815
0.0154882
0.0154024
0.0153238
0.0152521
0.0151866
0.0151266
0.0150711
0.0150188
0.0149677
0.0149155
0.014859
0.0147944
0.0147169
0.0146213
0.0145017
0.0143527
0.0287276
0.0283602
0.0276635
0.0267363
0.0257254
0.0247598
0.023902
0.0231489
0.0224701
0.0218437
0.0212661
0.0207413
0.0202684
0.0198409
0.0194505
0.0190915
0.0187604
0.0184546
0.0181716
0.017909
0.0176646
0.0174365
0.0172233
0.0170238
0.0168369
0.0166617
0.0164974
0.0163433
0.016199
0.0160639
0.0159376
0.0158199
0.0157103
0.0156087
0.0155147
0.015428
0.0153483
0.0152751
0.0152077
0.0151455
0.0150874
0.0150319
0.0149772
0.0149212
0.0148608
0.0147926
0.0147126
0.0146163
0.014499
0.0143569
0.0282988
0.0279675
0.0273365
0.02649
0.0255541
0.0246439
0.0238211
0.023091
0.0224311
0.0218218
0.0212582
0.0207432
0.0202767
0.0198536
0.0194669
0.019111
0.0187821
0.018478
0.0181962
0.0179345
0.0176908
0.0174633
0.0172505
0.0170513
0.0168647
0.0166896
0.0165255
0.0163715
0.0162271
0.016092
0.0159656
0.0158476
0.0157377
0.0156356
0.0155409
0.0154533
0.0153724
0.0152977
0.0152286
0.0151642
0.0151035
0.0150452
0.0149874
0.0149281
0.0148646
0.0147939
0.0147126
0.014617
0.0145036
0.0143693
0.0278848
0.0275858
0.027014
0.0262411
0.0253756
0.0245198
0.0237332
0.0230274
0.0223867
0.0217946
0.0212454
0.0207409
0.0202815
0.0198635
0.0194809
0.0191282
0.018802
0.0184998
0.0182195
0.017959
0.0177161
0.0174893
0.017277
0.0170783
0.0168919
0.0167171
0.0165531
0.0163992
0.0162549
0.0161197
0.0159931
0.0158749
0.0157646
0.015662
0.0155666
0.0154781
0.0153961
0.01532
0.0152491
0.0151828
0.0151197
0.0150588
0.0149983
0.0149364
0.0148706
0.0147983
0.0147167
0.014623
0.0145144
0.0143891
0.0274851
0.0272149
0.0266964
0.0259906
0.025191
0.0243882
0.0236385
0.0229579
0.022337
0.0217621
0.0212277
0.0207343
0.0202827
0.0198704
0.0194922
0.0191432
0.0188199
0.01852
0.0182414
0.0179821
0.0177403
0.0175143
0.0173027
0.0171045
0.0169185
0.016744
0.0165802
0.0164264
0.0162822
0.0161469
0.0160203
0.0159018
0.0157911
0.0156879
0.0155919
0.0155025
0.0154193
0.0153419
0.0152694
0.0152011
0.0151361
0.0150729
0.0150101
0.0149461
0.0148786
0.0148056
0.0147247
0.0146338
0.0145309
0.0144153
0.0270987
0.0268543
0.0263839
0.0257393
0.0250013
0.0242495
0.023537
0.0228826
0.0222819
0.0217245
0.021205
0.0207233
0.0202803
0.0198742
0.0195008
0.0191558
0.0188357
0.0185383
0.0182616
0.0180039
0.0177633
0.0175383
0.0173275
0.0171298
0.0169443
0.0167702
0.0166067
0.0164531
0.0163089
0.0161736
0.0160468
0.0159281
0.0158171
0.0157134
0.0156166
0.0155264
0.0154421
0.0153634
0.0152894
0.0152194
0.0151525
0.0150874
0.0150228
0.0149571
0.0148887
0.0148157
0.0147363
0.0146489
0.0145524
0.0144466
0.0267251
0.0265039
0.0260767
0.025488
0.0248072
0.0241045
0.0234291
0.0228016
0.0222217
0.0216818
0.0211774
0.0207078
0.0202739
0.0198746
0.0195065
0.0191658
0.0188492
0.0185547
0.0182802
0.0180242
0.017785
0.0175611
0.0173512
0.0171543
0.0169694
0.0167957
0.0166324
0.0164791
0.016335
0.0161997
0.0160728
0.0159539
0.0158425
0.0157383
0.0156408
0.0155497
0.0154645
0.0153845
0.0153091
0.0152376
0.0151691
0.0151024
0.0150363
0.0149696
0.0149007
0.0148283
0.014751
0.0146677
0.014578
0.0144821
0.0263636
0.0261632
0.0257751
0.0252372
0.0246095
0.0239537
0.023315
0.0227148
0.0221561
0.0216341
0.0211449
0.0206878
0.0202636
0.0198716
0.0195092
0.0191731
0.0188604
0.0185689
0.0182969
0.0180429
0.0178052
0.0175826
0.0173738
0.0171777
0.0169935
0.0168203
0.0166574
0.0165043
0.0163604
0.0162252
0.0160982
0.015979
0.0158673
0.0157626
0.0156645
0.0155726
0.0154863
0.0154052
0.0153286
0.0152557
0.0151858
0.0151178
0.0150507
0.0149833
0.0149145
0.0148432
0.0147685
0.0146897
0.0146068
0.0145205
0.0260136
0.0258319
0.025479
0.0249875
0.0244091
0.0237979
0.0231952
0.0226225
0.0220854
0.0215814
0.0211075
0.0206633
0.0202493
0.019865
0.0195088
0.0191776
0.0188691
0.018581
0.0183117
0.0180598
0.0178239
0.0176028
0.0173951
0.0172
0.0170165
0.0168439
0.0166815
0.0165287
0.016385
0.0162498
0.0161228
0.0160034
0.0158914
0.0157862
0.0156875
0.0155948
0.0155076
0.0154255
0.0153478
0.0152737
0.0152026
0.0151336
0.0150657
0.0149981
0.0149298
0.01486
0.0147882
0.014714
0.0146378
0.0145607
0.0256747
0.0255098
0.0251887
0.0247394
0.0242066
0.0236376
0.02307
0.0225249
0.0220096
0.0215237
0.0210654
0.0206343
0.0202308
0.0198548
0.0195051