/*--------------------------------*- C++ -*----------------------------------*\
  =========                 |
  \\      /  F ield         | OpenFOAM: The Open Source CFD Toolbox
   \\    /   O peration     | Website:  https://openfoam.org
    \\  /    A nd           | Version:  7
     \\/     M anipulation  |
\*---------------------------------------------------------------------------*/
FoamFile
{
    version     2.0;
    format      ascii;
    class       surfaceScalarField;
    location    "0.27";
    object      phi_0;
}
// * * * * * * * * * * * * * * * * * * * * * * * * * * * * * * * * * * * * * //

dimensions      [0 3 -1 0 0 0 0];

internalField   nonuniform List<scalar> 
139350
(
6.45925e-08
9.2039e-08
3.19513e-08
3.26412e-08
2.30608e-08
8.89051e-09
1.95675e-08
3.49332e-09
1.76172e-08
1.95035e-09
1.61914e-08
1.42578e-09
1.50604e-08
1.13093e-09
1.41488e-08
9.11666e-10
1.33987e-08
7.50036e-10
1.27672e-08
6.31594e-10
1.22251e-08
5.42006e-10
1.17534e-08
4.71769e-10
1.13381e-08
4.15246e-10
1.09692e-08
3.68895e-10
1.06389e-08
3.30303e-10
1.03412e-08
2.97746e-10
1.00712e-08
2.69955e-10
9.82525e-09
2.45985e-10
9.60013e-09
2.25116e-10
9.39334e-09
2.06791e-10
9.20277e-09
1.90574e-10
9.02665e-09
1.76117e-10
8.86351e-09
1.63141e-10
8.71209e-09
1.51419e-10
8.57133e-09
1.40761e-10
8.44032e-09
1.31014e-10
8.31827e-09
1.22042e-10
8.20454e-09
1.13736e-10
8.09854e-09
1.05994e-10
7.9998e-09
9.87431e-11
7.90791e-09
9.18936e-11
7.8225e-09
8.54067e-11
7.74331e-09
7.91884e-11
7.67006e-09
7.32488e-11
7.6026e-09
6.74591e-11
7.5407e-09
6.19072e-11
7.48431e-09
5.63892e-11
7.4332e-09
5.11089e-11
7.38744e-09
4.57605e-11
7.34682e-09
4.06202e-11
7.31137e-09
3.54513e-11
7.28131e-09
3.00548e-11
7.25589e-09
2.54224e-11
7.23774e-09
1.81539e-11
7.22211e-09
1.56222e-11
7.2223e-09
-1.90406e-13
7.21562e-09
6.68583e-12
7.27611e-09
-6.04924e-11
7.149e-09
1.27114e-10
-3.32812e-09
1.04771e-08
1.26026e-07
1.27457e-07
9.12637e-08
6.74033e-08
7.19441e-08
2.82102e-08
6.12196e-08
1.42178e-08
5.47771e-08
8.39283e-09
5.02882e-08
5.91474e-09
4.68097e-08
4.60941e-09
4.4e-08
3.7214e-09
4.16795e-08
3.07046e-09
3.97236e-08
2.58757e-09
3.80449e-08
2.2207e-09
3.65834e-08
1.93324e-09
3.52965e-08
1.70211e-09
3.41528e-08
1.51261e-09
3.31283e-08
1.35483e-09
3.22043e-08
1.2217e-09
3.13662e-08
1.10804e-09
3.06022e-08
1.00999e-09
2.99027e-08
9.24614e-10
2.92599e-08
8.4964e-10
2.86672e-08
7.83286e-10
2.81192e-08
7.24136e-10
2.76113e-08
6.71048e-10
2.71396e-08
6.23093e-10
2.67008e-08
5.79501e-10
2.62922e-08
5.39632e-10
2.59113e-08
5.02938e-10
2.55561e-08
4.68963e-10
2.52248e-08
4.37295e-10
2.49159e-08
4.07606e-10
2.46283e-08
3.79554e-10
2.43608e-08
3.5293e-10
2.41125e-08
3.27392e-10
2.38829e-08
3.02894e-10
2.36714e-08
2.78979e-10
2.34774e-08
2.55898e-10
2.33009e-08
2.32856e-10
2.31413e-08
2.107e-10
2.29992e-08
1.87868e-10
2.28735e-08
1.66331e-10
2.27659e-08
1.43081e-10
2.26742e-08
1.21778e-10
2.26021e-08
9.74961e-11
2.25457e-08
7.45939e-11
2.25121e-08
4.91507e-11
2.24984e-08
1.35152e-11
2.25072e-08
-2.10806e-12
2.26117e-08
-1.64944e-10
2.25929e-08
1.45869e-10
-4.33923e-09
2.3604e-08
1.58807e-07
1.35053e-07
1.36495e-07
8.97157e-08
1.17495e-07
4.72099e-08
1.0332e-07
2.83923e-08
9.33188e-08
1.83945e-08
8.60239e-08
1.32097e-08
8.03264e-08
1.03069e-08
7.56845e-08
8.36332e-09
7.18156e-08
6.93935e-09
6.85326e-08
5.87058e-09
6.57021e-08
5.05118e-09
6.32294e-08
4.406e-09
6.10458e-08
3.88566e-09
5.91004e-08
3.45801e-09
5.73541e-08
3.10115e-09
5.57763e-08
2.79947e-09
5.43429e-08
2.54151e-09
5.30342e-08
2.31869e-09
5.18343e-08
2.12444e-09
5.07303e-08
1.9537e-09
4.97111e-08
1.80248e-09
4.87676e-08
1.66758e-09
4.78922e-08
1.54646e-09
4.70783e-08
1.43701e-09
4.63203e-08
1.3375e-09
4.56134e-08
1.24648e-09
4.49537e-08
1.16271e-09
4.43375e-08
1.08515e-09
4.37619e-08
1.01287e-09
4.32244e-08
9.451e-10
4.27229e-08
8.81092e-10
4.22555e-08
8.20315e-10
4.18209e-08
7.62036e-10
4.14177e-08
7.06059e-10
4.10453e-08
6.5142e-10
4.07026e-08
5.98554e-10
4.03897e-08
5.45727e-10
4.01056e-08
4.9479e-10
3.98515e-08
4.42012e-10
3.96254e-08
3.92429e-10
3.94309e-08
3.3762e-10
3.92631e-08
2.89489e-10
3.91312e-08
2.29404e-10
3.90233e-08
1.82562e-10
3.89608e-08
1.11598e-10
3.89199e-08
5.44851e-11
3.89369e-08
-1.91749e-11
3.90383e-08
-2.66348e-10
3.91951e-08
-1.08852e-11
-4.50666e-09
3.93625e-08
1.75664e-07
1.30905e-07
1.65595e-07
9.97848e-08
1.52725e-07
6.008e-08
1.40129e-07
4.09884e-08
1.29445e-07
2.90785e-08
1.20809e-07
2.18449e-08
1.13707e-07
1.74089e-08
1.07738e-07
1.43325e-08
1.0265e-07
1.20275e-08
9.82602e-08
1.02603e-08
9.44289e-08
8.88246e-09
9.10503e-08
7.7846e-09
8.80444e-08
6.8915e-09
8.535e-08
6.15249e-09
8.29188e-08
5.53234e-09
8.07126e-08
5.00566e-09
7.87006e-08
4.55354e-09
7.68575e-08
4.16171e-09
7.51628e-08
3.81917e-09
7.35992e-08
3.51735e-09
7.21522e-08
3.24948e-09
7.08096e-08
3.01012e-09
6.95612e-08
2.79488e-09
6.83981e-08
2.60016e-09
6.73126e-08
2.42294e-09
6.62984e-08
2.26072e-09
6.53497e-08
2.11136e-09
6.44619e-08
1.97301e-09
6.36307e-08
1.84407e-09
6.28526e-08
1.72317e-09
6.21247e-08
1.609e-09
6.14444e-08
1.5006e-09
6.08097e-08
1.39671e-09
6.02189e-08
1.2969e-09
5.96708e-08
1.19955e-09
5.91641e-08
1.10524e-09
5.86987e-08
1.0111e-09
5.82734e-08
9.20112e-10
5.78895e-08
8.25866e-10
5.75448e-08
7.37122e-10
5.72438e-08
6.38662e-10
5.69805e-08
5.5277e-10
5.67666e-08
4.43318e-10
5.65869e-08
3.62224e-10
5.6469e-08
2.2956e-10
5.63821e-08
1.41323e-10
5.63738e-08
-1.0823e-11
5.64479e-08
-3.40483e-10
5.66737e-08
-2.36662e-10
-4.47532e-09
5.66423e-08
1.8456e-07
1.2313e-07
1.82321e-07
1.02024e-07
1.76103e-07
6.62981e-08
1.67761e-07
4.93296e-08
1.59142e-07
3.76976e-08
1.5124e-07
2.97476e-08
1.44176e-07
2.44723e-08
1.37888e-07
2.06206e-08
1.32301e-07
1.76147e-08
1.2733e-07
1.52314e-08
1.22889e-07
1.33235e-08
1.18901e-07
1.17724e-08
1.15302e-07
1.04909e-08
1.12037e-07
9.41724e-09
1.09062e-07
8.50706e-09
1.0634e-07
7.72745e-09
1.03841e-07
7.05344e-09
1.01536e-07
6.46574e-09
9.94064e-08
5.94929e-09
9.74315e-08
5.49219e-09
9.55961e-08
5.08491e-09
9.38865e-08
4.71976e-09
9.22909e-08
4.39044e-09
9.07993e-08
4.09175e-09
8.94029e-08
3.81934e-09
8.80941e-08
3.56953e-09
8.68663e-08
3.33918e-09
8.57137e-08
3.12556e-09
8.46315e-08
2.9263e-09
8.36153e-08
2.73935e-09
8.26616e-08
2.56275e-09
8.17671e-08
2.39502e-09
8.09295e-08
2.23432e-09
8.01465e-08
2.07989e-09
7.94167e-08
1.92939e-09
7.87384e-08
1.78351e-09
7.81114e-08
1.63812e-09
7.75342e-08
1.49728e-09
7.70082e-08
1.35186e-09
7.65311e-08
1.21424e-09
7.61074e-08
1.06241e-09
7.57314e-08
9.28759e-10
7.54145e-08
7.60196e-10
7.51431e-08
6.33655e-10
7.49418e-08
4.3086e-10
7.47874e-08
2.95723e-10
7.47157e-08
6.08895e-11
7.47416e-08
-3.66432e-10
7.4933e-08
-4.27986e-10
-4.36649e-09
7.48241e-08
1.90388e-07
1.14959e-07
1.91851e-07
1.00561e-07
1.90243e-07
6.79064e-08
1.86153e-07
5.34198e-08
1.80716e-07
4.31344e-08
1.74966e-07
3.54978e-08
1.69276e-07
3.01619e-08
1.63802e-07
2.60946e-08
1.58639e-07
2.27775e-08
1.53829e-07
2.00414e-08
1.49374e-07
1.77784e-08
1.45258e-07
1.58892e-08
1.41455e-07
1.4294e-08
1.37939e-07
1.29332e-08
1.34684e-07
1.17621e-08
1.31665e-07
1.07461e-08
1.2886e-07
9.85814e-09
1.26249e-07
9.07661e-09
1.23814e-07
8.38426e-09
1.21539e-07
7.76712e-09
1.1941e-07
7.21385e-09
1.17415e-07
6.71509e-09
1.15542e-07
6.26312e-09
1.13783e-07
5.85145e-09
1.12127e-07
5.47461e-09
1.10569e-07
5.12791e-09
1.09101e-07
4.80732e-09
1.07717e-07
4.50931e-09
1.06413e-07
4.23078e-09
1.05183e-07
3.96902e-09
1.04024e-07
3.72145e-09
1.02933e-07
3.48607e-09
1.01907e-07
3.26045e-09
1.00944e-07
3.04345e-09
1.00041e-07
2.83208e-09
9.91975e-08
2.62697e-09
9.84127e-08
2.42291e-09
9.76852e-08
2.22474e-09
9.70161e-08
2.02099e-09
9.64034e-08
1.82691e-09
9.58509e-08
1.61493e-09
9.53544e-08
1.42527e-09
9.49227e-08
1.19192e-09
9.4547e-08
1.0093e-09
9.42434e-08
7.34471e-10
9.4004e-08
5.35172e-10
9.3842e-08
2.22813e-10
9.37937e-08
-3.18101e-10
9.39016e-08
-5.35932e-10
-4.15604e-09
9.36912e-08
1.95541e-07
1.07233e-07
1.98247e-07
9.78546e-08
1.98968e-07
6.71857e-08
1.97786e-07
5.46009e-08
1.95155e-07
4.57664e-08
1.91814e-07
3.8838e-08
1.88087e-07
3.38898e-08
1.84143e-07
3.00383e-08
1.80133e-07
2.67879e-08
1.76165e-07
2.40086e-08
1.72309e-07
2.16349e-08
1.68601e-07
1.95967e-08
1.65063e-07
1.78328e-08
1.61701e-07
1.62953e-08
1.58515e-07
1.49472e-08
1.55503e-07
1.37585e-08
1.52657e-07
1.27047e-08
1.49968e-07
1.17656e-08
1.47427e-07
1.09245e-08
1.45027e-07
1.01675e-08
1.42758e-07
9.48302e-09
1.40612e-07
8.86121e-09
1.38581e-07
8.29385e-09
1.36658e-07
7.77391e-09
1.34838e-07
7.29533e-09
1.33113e-07
6.85286e-09
1.31478e-07
6.44193e-09
1.29929e-07
6.05848e-09
1.28461e-07
5.69887e-09
1.2707e-07
5.35991e-09
1.25753e-07
5.03856e-09
1.24507e-07
4.73234e-09
1.23329e-07
4.43835e-09
1.22217e-07
4.15513e-09
1.2117e-07
3.87911e-09
1.20186e-07
3.61082e-09
1.19265e-07
3.34415e-09
1.18405e-07
3.08443e-09
1.17608e-07
2.81846e-09
1.16871e-07
2.56329e-09
1.16199e-07
2.28771e-09
1.15587e-07
2.03645e-09
1.15043e-07
1.73634e-09
1.14563e-07
1.48943e-09
1.14153e-07
1.14465e-09
1.1382e-07
8.6777e-10
1.13559e-07
4.84253e-10
1.13415e-07
-1.74083e-10
1.13419e-07
-5.40117e-10
-3.82926e-09
1.13092e-07
2.00848e-07
9.99696e-08
2.03775e-07
9.49271e-08
2.05326e-07
6.56352e-08
2.05641e-07
5.42861e-08
2.04813e-07
4.65937e-08
2.03332e-07
4.03192e-08
2.01386e-07
3.5836e-08
1.9906e-07
3.23645e-08
1.96459e-07
2.93882e-08
1.93688e-07
2.67804e-08
1.90825e-07
2.44976e-08
1.87931e-07
2.24905e-08
1.8505e-07
2.07136e-08
1.82214e-07
1.91317e-08
1.79444e-07
1.77174e-08
1.76754e-07
1.64482e-08
1.74154e-07
1.53049e-08
1.71648e-07
1.42714e-08
1.69239e-07
1.33336e-08
1.66927e-07
1.24797e-08
1.6471e-07
1.16993e-08
1.62588e-07
1.09836e-08
1.60557e-07
1.03248e-08
1.58615e-07
9.71621e-09
1.56758e-07
9.15202e-09
1.54984e-07
8.62697e-09
1.5329e-07
8.13643e-09
1.51672e-07
7.6762e-09
1.50128e-07
7.2425e-09
1.48656e-07
6.8319e-09
1.47254e-07
6.44111e-09
1.45919e-07
6.06743e-09
1.44649e-07
5.70764e-09
1.43444e-07
5.36005e-09
1.42303e-07
5.0207e-09
1.41224e-07
4.68997e-09
1.40207e-07
4.36122e-09
1.39251e-07
4.03986e-09
1.38358e-07
3.71177e-09
1.37526e-07
3.39464e-09
1.36758e-07
3.0557e-09
1.36054e-07
2.7408e-09
1.35415e-07
2.37538e-09
1.34845e-07
2.05994e-09
1.3434e-07
1.64949e-09
1.33919e-07
1.28844e-09
1.33565e-07
8.38594e-10
1.33319e-07
7.16025e-11
1.33213e-07
-4.33757e-10
-3.39259e-09
1.32776e-07
2.06447e-07
9.30548e-08
2.09339e-07
9.20349e-08
2.11036e-07
6.39384e-08
2.11929e-07
5.33932e-08
2.11997e-07
4.65258e-08
2.1161e-07
4.07063e-08
2.1088e-07
3.65654e-08
2.09812e-07
3.34331e-08
2.08442e-07
3.07579e-08
2.06829e-07
2.83928e-08
2.0503e-07
2.62967e-08
2.03093e-07
2.44274e-08
2.01061e-07
2.27461e-08
1.98968e-07
2.12243e-08
1.96845e-07
1.9841e-08
1.94713e-07
1.85797e-08
1.92592e-07
1.74262e-08
1.90495e-07
1.63685e-08
1.88432e-07
1.5396e-08
1.86413e-07
1.44993e-08
1.84442e-07
1.36704e-08
1.82523e-07
1.29019e-08
1.8066e-07
1.21876e-08
1.78855e-07
1.15216e-08
1.77108e-07
1.08989e-08
1.7542e-07
1.03149e-08
1.73791e-07
9.76517e-09
1.72222e-07
9.24595e-09
1.70711e-07
8.75361e-09
1.69258e-07
8.28482e-09
1.67862e-07
7.83632e-09
1.66525e-07
7.40539e-09
1.65243e-07
6.98873e-09
1.64019e-07
6.58456e-09
1.62851e-07
6.18875e-09
1.61739e-07
5.80158e-09
1.60684e-07
5.41614e-09
1.59686e-07
5.03775e-09
1.58746e-07
4.65203e-09
1.57864e-07
4.27638e-09
1.57042e-07
3.87823e-09
1.56281e-07
3.50189e-09
1.5558e-07
3.0759e-09
1.54948e-07
2.6925e-09
1.54375e-07
2.22249e-09
1.53885e-07
1.77783e-09
1.53458e-07
1.26617e-09
1.53122e-07
4.07736e-10
1.52911e-07
-2.23268e-10
-2.86385e-09
1.52382e-07
2.12289e-07
8.64285e-08
2.15152e-07
8.91718e-08
2.1679e-07
6.23002e-08
2.17841e-07
5.23421e-08
2.18255e-07
4.61116e-08
2.1837e-07
4.05913e-08
2.18294e-07
3.66419e-08
2.17995e-07
3.37319e-08
2.17467e-07
3.12861e-08
2.16728e-07
2.91313e-08
2.15804e-07
2.72213e-08
2.14718e-07
2.55128e-08
2.13498e-07
2.39665e-08
2.12168e-07
2.25546e-08
2.10751e-07
2.12579e-08
2.09268e-07
2.00622e-08
2.07738e-07
1.8956e-08
2.06177e-07
1.79297e-08
2.04598e-07
1.69752e-08
2.03012e-07
1.60852e-08
2.01429e-07
1.52534e-08
1.99857e-07
1.44743e-08
1.98301e-07
1.37429e-08
1.96769e-07
1.30545e-08
1.95263e-07
1.2405e-08
1.93787e-07
1.17905e-08
1.92345e-07
1.12076e-08
1.90938e-07
1.06528e-08
1.89568e-07
1.01229e-08
1.88238e-07
9.61502e-09
1.86948e-07
9.12605e-09
1.857e-07
8.65347e-09
1.84495e-07
8.19408e-09
1.83333e-07
7.74618e-09
1.82216e-07
7.30565e-09
1.81145e-07
6.87273e-09
1.80121e-07
6.44053e-09
1.79145e-07
6.01411e-09
1.78217e-07
5.57938e-09
1.77341e-07
5.15285e-09
1.76516e-07
4.70343e-09
1.75745e-07
4.27202e-09
1.75028e-07
3.79342e-09
1.74373e-07
3.34737e-09
1.7377e-07
2.82592e-09
1.73243e-07
2.30449e-09
1.72772e-07
1.73698e-09
1.72371e-07
8.09248e-10
1.72075e-07
7.18962e-11
-2.26896e-09
1.71481e-07
2.1833e-07
8.00793e-08
2.21205e-07
8.62962e-08
2.22763e-07
6.0743e-08
2.23841e-07
5.12642e-08
2.24364e-07
4.55881e-08
2.24657e-07
4.02986e-08
2.24856e-07
3.64425e-08
2.24935e-07
3.36531e-08
2.24871e-07
3.13496e-08
2.24666e-07
2.93366e-08
2.24324e-07
2.75635e-08
2.23851e-07
2.59855e-08
2.23257e-07
2.45606e-08
2.22553e-07
2.32587e-08
2.21751e-07
2.20596e-08
2.20865e-07
2.09485e-08
2.19907e-07
1.99144e-08
2.18888e-07
1.89482e-08
2.17821e-07
1.80426e-08
2.16715e-07
1.71913e-08
2.15579e-07
1.6389e-08
2.14422e-07
1.5631e-08
2.13252e-07
1.49133e-08
2.12074e-07
1.42322e-08
2.10895e-07
1.35841e-08
2.0972e-07
1.29661e-08
2.08552e-07
1.23751e-08
2.07397e-07
1.18083e-08
2.06257e-07
1.1263e-08
2.05135e-07
1.07365e-08
2.04035e-07
1.02263e-08
2.02958e-07
9.72991e-09
2.01908e-07
9.2445e-09
2.00886e-07
8.76845e-09
1.99894e-07
8.2978e-09
1.98933e-07
7.83279e-09
1.98007e-07
7.36674e-09
1.97117e-07
6.90441e-09
1.96264e-07
6.43235e-09
1.95451e-07
5.96575e-09
1.94679e-07
5.47598e-09
1.93951e-07
4.99926e-09
1.93266e-07
4.47863e-09
1.92634e-07
3.97918e-09
1.92044e-07
3.41633e-09
1.91518e-07
2.8299e-09
1.91041e-07
2.21469e-09
1.90608e-07
1.24232e-09
1.90257e-07
4.22426e-10
-1.63988e-09
1.89628e-07
2.24559e-07
7.4014e-08
2.2747e-07
8.33851e-08
2.28959e-07
5.92533e-08
2.30042e-07
5.01812e-08
2.30607e-07
4.50233e-08
2.30949e-07
3.99572e-08
2.31237e-07
3.61538e-08
2.31464e-07
3.34266e-08
2.31608e-07
3.12049e-08
2.3167e-07
2.92755e-08
2.31647e-07
2.75861e-08
2.31539e-07
2.60933e-08
2.31346e-07
2.47538e-08
2.31069e-07
2.35355e-08
2.30713e-07
2.24162e-08
2.30281e-07
2.13802e-08
2.2978e-07
2.04154e-08
2.29216e-07
1.95123e-08
2.28595e-07
1.86631e-08
2.27925e-07
1.78618e-08
2.27211e-07
1.71029e-08
2.2646e-07
1.63822e-08
2.25677e-07
1.56957e-08
2.2487e-07
1.50401e-08
2.24041e-07
1.44123e-08
2.23198e-07
1.38096e-08
2.22344e-07
1.32293e-08
2.21483e-07
1.26691e-08
2.20619e-07
1.21264e-08
2.19757e-07
1.15991e-08
2.18899e-07
1.10845e-08
2.18048e-07
1.05809e-08
2.17207e-07
1.00852e-08
2.16379e-07
9.59626e-09
2.15567e-07
9.11014e-09
2.14772e-07
8.62713e-09
2.13998e-07
8.14085e-09
2.13247e-07
7.65569e-09
2.1252e-07
7.15912e-09
2.11821e-07
6.66474e-09
2.1115e-07
6.1469e-09
2.10513e-07
5.63655e-09
2.09906e-07
5.08589e-09
2.0934e-07
4.54478e-09
2.08805e-07
3.95174e-09
2.08319e-07
3.31527e-09
2.07872e-07
2.6625e-09
2.07444e-07
1.67022e-09
2.07071e-07
7.94867e-10
-1.01103e-09
2.06442e-07
2.30979e-07
6.82406e-08
2.33934e-07
8.04303e-08
2.35365e-07
5.78228e-08
2.36454e-07
4.90921e-08
2.37052e-07
4.4425e-08
2.37409e-07
3.96005e-08
2.37719e-07
3.58436e-08
2.37991e-07
3.31542e-08
2.38211e-07
3.09848e-08
2.38381e-07
2.91054e-08
2.38504e-07
2.74636e-08
2.38577e-07
2.60199e-08
2.38599e-07
2.4732e-08
2.38568e-07
2.35667e-08
2.38483e-07
2.25011e-08
2.38345e-07
2.15185e-08
2.38154e-07
2.0606e-08
2.37913e-07
1.97534e-08
2.37624e-07
1.89525e-08
2.37289e-07
1.81965e-08
2.36912e-07
1.74798e-08
2.36496e-07
1.67978e-08
2.36046e-07
1.61464e-08
2.35563e-07
1.55223e-08
2.35053e-07
1.49224e-08
2.34519e-07
1.43438e-08
2.33964e-07
1.37842e-08
2.33392e-07
1.32412e-08
2.32806e-07
1.27123e-08
2.3221e-07
1.21956e-08
2.31606e-07
1.16887e-08
2.30997e-07
1.11897e-08
2.30386e-07
1.06958e-08
2.29776e-07
1.0206e-08
2.2917e-07
9.71641e-09
2.2857e-07
9.22735e-09
2.27978e-07
8.73277e-09
2.27397e-07
8.23658e-09
2.26829e-07
7.72734e-09
2.26277e-07
7.21682e-09
2.25741e-07
6.68277e-09
2.25227e-07
6.15046e-09
2.24731e-07
5.58159e-09
2.24265e-07
5.01132e-09
2.23817e-07
4.3992e-09
2.23404e-07
3.72879e-09
2.23017e-07
3.04965e-09
2.22627e-07
2.06027e-09
2.22264e-07
1.15725e-09
-4.14054e-10
2.21667e-07
2.376e-07
6.27649e-08
2.40602e-07
7.74291e-08
2.41975e-07
5.64495e-08
2.43069e-07
4.79981e-08
2.43704e-07
4.37896e-08
2.44074e-07
3.92304e-08
2.4439e-07
3.5528e-08
2.44675e-07
3.28695e-08
2.44918e-07
3.07419e-08
2.45124e-07
2.88988e-08
2.45301e-07
2.72869e-08
2.45449e-07
2.58718e-08
2.45568e-07
2.46133e-08
2.45656e-07
2.34787e-08
2.45712e-07
2.2445e-08
2.45735e-07
2.14953e-08
2.45725e-07
2.06164e-08
2.4568e-07
1.97977e-08
2.45602e-07
1.90307e-08
2.4549e-07
1.83082e-08
2.45346e-07
1.76242e-08
2.4517e-07
1.69737e-08
2.44964e-07
1.63524e-08
2.4473e-07
1.57567e-08
2.44469e-07
1.51832e-08
2.44184e-07
1.46292e-08
2.43876e-07
1.40919e-08
2.43548e-07
1.35689e-08
2.43203e-07
1.30578e-08
2.42842e-07
1.25566e-08
2.42467e-07
1.20629e-08
2.42082e-07
1.15749e-08
2.41688e-07
1.10898e-08
2.41288e-07
1.06064e-08
2.40883e-07
1.01212e-08
2.40476e-07
9.63426e-09
2.40069e-07
9.13991e-09
2.39664e-07
8.6415e-09
2.39263e-07
8.12874e-09
2.38868e-07
7.61146e-09
2.3848e-07
7.07091e-09
2.38104e-07
6.52672e-09
2.37736e-07
5.94966e-09
2.37385e-07
5.36176e-09
2.37044e-07
4.7403e-09
2.36722e-07
4.05115e-09
2.36415e-07
3.35679e-09
2.36085e-07
2.38934e-09
2.35758e-07
1.4848e-09
1.2709e-10
2.35217e-07
2.4443e-07
5.75907e-08
2.47471e-07
7.43882e-08
2.48796e-07
5.51253e-08
2.4989e-07
4.69038e-08
2.50564e-07
4.31155e-08
2.50951e-07
3.88433e-08
2.51271e-07
3.5208e-08
2.51561e-07
3.25793e-08
2.51812e-07
3.04914e-08
2.52029e-07
2.86814e-08
2.52223e-07
2.70932e-08
2.52397e-07
2.56978e-08
2.52552e-07
2.4458e-08
2.52689e-07
2.33418e-08
2.52807e-07
2.23267e-08
2.52907e-07
2.13961e-08
2.52986e-07
2.05369e-08
2.53045e-07
1.97387e-08
2.53083e-07
1.89927e-08
2.531e-07
1.82917e-08
2.53094e-07
1.76294e-08
2.53067e-07
1.70006e-08
2.53019e-07
1.6401e-08
2.52949e-07
1.58264e-08
2.52859e-07
1.52735e-08
2.52749e-07
1.47392e-08
2.5262e-07
1.42207e-08
2.52474e-07
1.37154e-08
2.52311e-07
1.32208e-08
2.52133e-07
1.27347e-08
2.51941e-07
1.22548e-08
2.51737e-07
1.1779e-08
2.51522e-07
1.13048e-08
2.51297e-07
1.08307e-08
2.51065e-07
1.03534e-08
2.50827e-07
9.87265e-09
2.50583e-07
9.38322e-09
2.50337e-07
8.88776e-09
2.50089e-07
8.37724e-09
2.49841e-07
7.85944e-09
2.49593e-07
7.31906e-09
2.49349e-07
6.77041e-09
2.49106e-07
6.19247e-09
2.48872e-07
5.59626e-09
2.48639e-07
4.97293e-09
2.48412e-07
4.2778e-09
2.48191e-07
3.57818e-09
2.47933e-07
2.64696e-09
2.47655e-07
1.76321e-09
5.9914e-10
2.47183e-07
2.51478e-07
5.27197e-08
2.54549e-07
7.13172e-08
2.55834e-07
5.38396e-08
2.56923e-07
4.58149e-08
2.57635e-07
4.24038e-08
2.58042e-07
3.84362e-08
2.58368e-07
3.48822e-08
2.58663e-07
3.22839e-08
2.58919e-07
3.02357e-08
2.59141e-07
2.84593e-08
2.5934e-07
2.6894e-08
2.59522e-07
2.55158e-08
2.59689e-07
2.42907e-08
2.59843e-07
2.31879e-08
2.59985e-07
2.21851e-08
2.60115e-07
2.12664e-08
2.60233e-07
2.04191e-08
2.60338e-07
1.96329e-08
2.60432e-07
1.88993e-08
2.60512e-07
1.82111e-08
2.6058e-07
1.7562e-08
2.60633e-07
1.69468e-08
2.60674e-07
1.63609e-08
2.607e-07
1.58002e-08
2.60712e-07
1.52612e-08
2.60711e-07
1.47406e-08
2.60696e-07
1.42355e-08
2.60668e-07
1.37433e-08
2.60627e-07
1.32613e-08
2.60575e-07
1.27872e-08
2.60511e-07
1.23186e-08
2.60437e-07
1.18534e-08
2.60353e-07
1.13889e-08
2.6026e-07
1.09237e-08
2.60159e-07
1.04545e-08
2.6005e-07
9.98077e-09
2.59936e-07
9.49771e-09
2.59816e-07
9.00724e-09
2.59692e-07
8.50155e-09
2.59565e-07
7.98645e-09
2.59434e-07
7.44987e-09
2.59303e-07
6.90138e-09
2.59169e-07
6.32694e-09
2.59036e-07
5.72902e-09
2.589e-07
5.10876e-09
2.58761e-07
4.41723e-09
2.58619e-07
3.72044e-09
2.58431e-07
2.8348e-09
2.58205e-07
1.98909e-09
9.99853e-10
2.57804e-07
2.58751e-07
4.81519e-08
2.61842e-07
6.8226e-08
2.631e-07
5.2582e-08
2.64178e-07
4.47363e-08
2.64925e-07
4.1657e-08
2.65354e-07
3.80069e-08
2.65687e-07
3.45497e-08
2.65988e-07
3.19829e-08
2.66249e-07
2.99745e-08
2.66475e-07
2.82333e-08
2.66677e-07
2.66919e-08
2.66862e-07
2.53307e-08
2.67033e-07
2.41194e-08
2.67193e-07
2.30284e-08
2.67342e-07
2.20357e-08
2.67483e-07
2.1126e-08
2.67615e-07
2.0287e-08
2.67739e-07
1.95089e-08
2.67855e-07
1.87831e-08
2.67963e-07
1.81028e-08
2.68064e-07
1.74617e-08
2.68156e-07
1.68547e-08
2.68239e-07
1.62771e-08
2.68315e-07
1.5725e-08
2.68381e-07
1.51946e-08
2.68439e-07
1.46827e-08
2.68488e-07
1.41863e-08
2.68529e-07
1.37027e-08
2.68561e-07
1.32291e-08
2.68585e-07
1.27632e-08
2.68601e-07
1.23026e-08
2.68609e-07
1.1845e-08
2.6861e-07
1.13879e-08
2.68605e-07
1.09296e-08
2.68592e-07
1.04669e-08
2.68574e-07
9.99912e-09
2.6855e-07
9.52185e-09
2.68521e-07
9.03628e-09
2.68486e-07
8.5358e-09
2.68449e-07
8.02439e-09
2.68406e-07
7.49288e-09
2.6836e-07
6.94684e-09
2.68309e-07
6.37786e-09
2.68256e-07
5.78234e-09
2.68197e-07
5.16788e-09
2.68128e-07
4.48632e-09
2.6805e-07
3.79844e-09
2.67921e-07
2.96332e-09
2.67743e-07
2.16767e-09
1.33544e-09
2.67407e-07
2.66258e-07
4.38858e-08
2.69359e-07
6.51252e-08
2.70599e-07
5.13419e-08
2.71663e-07
4.36726e-08
2.72442e-07
4.08785e-08
2.72895e-07
3.75539e-08
2.73235e-07
3.42095e-08
2.73541e-07
3.16763e-08
2.73809e-07
2.97073e-08
2.74039e-07
2.8003e-08
2.74244e-07
2.64867e-08
2.74432e-07
2.51432e-08
2.74605e-07
2.3946e-08
2.74767e-07
2.28665e-08
2.74919e-07
2.18836e-08
2.75063e-07
2.0982e-08
2.752e-07
2.01502e-08
2.7533e-07
1.93784e-08
2.75455e-07
1.86586e-08
2.75574e-07
1.79839e-08
2.75687e-07
1.73484e-08
2.75795e-07
1.67468e-08
2.75898e-07
1.61746e-08
2.75995e-07
1.56278e-08
2.76087e-07
1.51028e-08
2.76173e-07
1.45963e-08
2.76254e-07
1.41053e-08
2.7633e-07
1.3627e-08
2.764e-07
1.31587e-08
2.76465e-07
1.2698e-08
2.76526e-07
1.22424e-08
2.76581e-07
1.17898e-08
2.76631e-07
1.13374e-08
2.76677e-07
1.08838e-08
2.76718e-07
1.04256e-08
2.76755e-07
9.96216e-09
2.76788e-07
9.48929e-09
2.76816e-07
9.00758e-09
2.76841e-07
8.51156e-09
2.76861e-07
8.00359e-09
2.76877e-07
7.477e-09
2.7689e-07
6.9342e-09
2.76897e-07
6.37104e-09
2.76899e-07
5.78015e-09
2.76894e-07
5.17266e-09
2.76876e-07
4.50486e-09
2.76844e-07
3.8302e-09
2.7676e-07
3.04709e-09
2.76619e-07
2.30879e-09
1.6166e-09
2.76338e-07
2.74009e-07
3.99178e-08
2.77109e-07
6.20257e-08
2.78341e-07
5.01092e-08
2.79387e-07
4.26271e-08
2.80193e-07
4.00723e-08
2.80671e-07
3.70756e-08
2.8102e-07
3.38607e-08
2.81332e-07
3.13641e-08
2.81606e-07
2.9434e-08
2.81841e-07
2.77678e-08
2.82049e-07
2.62783e-08
2.82239e-07
2.49532e-08
2.82415e-07
2.37704e-08
2.82578e-07
2.27029e-08
2.82732e-07
2.17298e-08
2.82878e-07
2.08364e-08
2.83017e-07
2.00114e-08
2.83149e-07
1.92457e-08
2.83277e-07
1.85312e-08
2.83399e-07
1.78614e-08
2.83517e-07
1.72303e-08
2.83631e-07
1.66329e-08
2.83741e-07
1.60648e-08
2.83847e-07
1.55219e-08
2.83949e-07
1.50007e-08
2.84047e-07
1.44978e-08
2.84142e-07
1.40103e-08
2.84234e-07
1.35354e-08
2.84322e-07
1.30704e-08
2.84407e-07
1.26129e-08
2.84489e-07
1.21604e-08
2.84568e-07
1.17108e-08
2.84644e-07
1.12615e-08
2.84717e-07
1.08107e-08
2.84787e-07
1.03555e-08
2.84855e-07
9.89474e-09
2.84919e-07
9.42489e-09
2.84981e-07
8.94589e-09
2.85039e-07
8.45327e-09
2.85095e-07
7.94807e-09
2.85146e-07
7.42568e-09
2.85194e-07
6.88617e-09
2.85237e-07
6.32841e-09
2.85274e-07
5.74322e-09
2.85303e-07
5.14307e-09
2.85317e-07
4.49094e-09
2.85315e-07
3.8325e-09
2.85261e-07
3.10057e-09
2.85147e-07
2.423e-09
1.85491e-09
2.84909e-07
2.82013e-07
3.62427e-08
2.85099e-07
5.89391e-08
2.86334e-07
4.88743e-08
2.87359e-07
4.16027e-08
2.88188e-07
3.92432e-08
2.88693e-07
3.65707e-08
2.89051e-07
3.3502e-08
2.89369e-07
3.10464e-08
2.89649e-07
2.91545e-08
2.89889e-07
2.75275e-08
2.90101e-07
2.60663e-08
2.90294e-07
2.47605e-08
2.90471e-07
2.35927e-08
2.90637e-07
2.25375e-08
2.90792e-07
2.15744e-08
2.90939e-07
2.06894e-08
2.91079e-07
1.98714e-08
2.91213e-07
1.91117e-08
2.91342e-07
1.84025e-08
2.91466e-07
1.77373e-08
2.91586e-07
1.71105e-08
2.91701e-07
1.6517e-08
2.91814e-07
1.59524e-08
2.91923e-07
1.54128e-08
2.92029e-07
1.48947e-08
2.92132e-07
1.43947e-08
2.92233e-07
1.39098e-08
2.92331e-07
1.34374e-08
2.92426e-07
1.29747e-08
2.9252e-07
1.25194e-08
2.92611e-07
1.2069e-08
2.92701e-07
1.16213e-08
2.92788e-07
1.11738e-08
2.92874e-07
1.07247e-08
2.92959e-07
1.02713e-08
2.93041e-07
9.81234e-09
2.93121e-07
9.34451e-09
2.932e-07
8.86733e-09
2.93276e-07
8.37722e-09
2.9335e-07
7.8742e-09
2.9342e-07
7.35523e-09
2.93488e-07
6.81886e-09
2.9355e-07
6.26592e-09
2.93606e-07
5.68689e-09
2.93655e-07
5.09415e-09
2.93688e-07
4.45849e-09
2.93702e-07
3.81832e-09
2.93667e-07
3.13539e-09
2.93571e-07
2.51893e-09
2.05986e-09
2.93366e-07
2.90278e-07
3.28533e-08
2.9334e-07
5.58772e-08
2.94586e-07
4.76282e-08
2.95588e-07
4.06011e-08
2.96435e-07
3.83963e-08
2.96967e-07
3.60382e-08
2.97337e-07
3.31322e-08
2.9766e-07
3.07233e-08
2.97946e-07
2.88687e-08
2.98192e-07
2.72816e-08
2.98408e-07
2.58503e-08
2.98603e-07
2.45649e-08
2.98783e-07
2.34125e-08
2.98951e-07
2.237e-08
2.99108e-07
2.14174e-08
2.99256e-07
2.0541e-08
2.99398e-07
1.97303e-08
2.99533e-07
1.89767e-08
2.99662e-07
1.82728e-08
2.99787e-07
1.76124e-08
2.99908e-07
1.69898e-08
3.00025e-07
1.64001e-08
3.00138e-07
1.5839e-08
3.00249e-07
1.53025e-08
3.00356e-07
1.47872e-08
3.00461e-07
1.42898e-08
3.00563e-07
1.38073e-08
3.00664e-07
1.3337e-08
3.00762e-07
1.28763e-08
3.00859e-07
1.24227e-08
3.00954e-07
1.19737e-08
3.01048e-07
1.15274e-08
3.01141e-07
1.10812e-08
3.01232e-07
1.06334e-08
3.01322e-07
1.01812e-08
3.01411e-07
9.72336e-09
3.01499e-07
9.25696e-09
3.01585e-07
8.78108e-09
3.01669e-07
8.29291e-09
3.01752e-07
7.79169e-09
3.01831e-07
7.27557e-09
3.01908e-07
6.74223e-09
3.0198e-07
6.19362e-09
3.02046e-07
5.62098e-09
3.02105e-07
5.03575e-09
3.02146e-07
4.41672e-09
3.02169e-07
3.7962e-09
3.02145e-07
3.15936e-09
3.02061e-07
2.60219e-09
2.23795e-09
3.01883e-07
2.98815e-07
2.97408e-08
3.0184e-07
5.28518e-08
3.03106e-07
4.63631e-08
3.04083e-07
3.96233e-08
3.04942e-07
3.75372e-08
3.05503e-07
3.54776e-08
3.05886e-07
3.27496e-08
3.06214e-07
3.03946e-08
3.06506e-07
2.85766e-08
3.06758e-07
2.70299e-08
3.06978e-07
2.56302e-08
3.07177e-07
2.43662e-08
3.0736e-07
2.32298e-08
3.07529e-07
2.22003e-08
3.07688e-07
2.12586e-08
3.07838e-07
2.0391e-08
3.07981e-07
1.95877e-08
3.08117e-07
1.88405e-08
3.08248e-07
1.81421e-08
3.08373e-07
1.74865e-08
3.08495e-07
1.68682e-08
3.08613e-07
1.62824e-08
3.08727e-07
1.57248e-08
3.08838e-07
1.51915e-08
3.08946e-07
1.4679e-08
3.09052e-07
1.41842e-08
3.09155e-07
1.3704e-08
3.09256e-07
1.32357e-08
3.09356e-07
1.27767e-08
3.09454e-07
1.23246e-08
3.0955e-07
1.18771e-08
3.09646e-07
1.14319e-08
3.0974e-07
1.09868e-08
3.09834e-07
1.05399e-08
3.09926e-07
1.00887e-08
3.10018e-07
9.63178e-09
3.10108e-07
9.16652e-09
3.10198e-07
8.69173e-09
3.10285e-07
8.20517e-09
3.10371e-07
7.7056e-09
3.10455e-07
7.19198e-09
3.10536e-07
6.66167e-09
3.10612e-07
6.11711e-09
3.10682e-07
5.55099e-09
3.10744e-07
4.97347e-09
3.1079e-07
4.37088e-09
3.10816e-07
3.77086e-09
3.10798e-07
3.17689e-09
3.10725e-07
2.67552e-09
2.39263e-09
3.1057e-07
3.07633e-07
2.68946e-08
3.1061e-07
4.98752e-08
3.11901e-07
4.50724e-08
3.12855e-07
3.86692e-08
3.13721e-07
3.66712e-08
3.14309e-07
3.48895e-08
3.14706e-07
3.23527e-08
3.15041e-07
3.00601e-08
3.15339e-07
2.82784e-08
3.15597e-07
2.67722e-08
3.15821e-07
2.54054e-08
3.16023e-07
2.4164e-08
3.16209e-07
2.30442e-08
3.16381e-07
2.20282e-08
3.16542e-07
2.10977e-08
3.16694e-07
2.02393e-08
3.16838e-07
1.94437e-08
3.16975e-07
1.8703e-08
3.17107e-07
1.80103e-08
3.17234e-07
1.73597e-08
3.17356e-07
1.67458e-08
3.17475e-07
1.6164e-08
3.1759e-07
1.56099e-08
3.17701e-07
1.50799e-08
3.1781e-07
1.45703e-08
3.17916e-07
1.4078e-08
3.1802e-07
1.36001e-08
3.18122e-07
1.31338e-08
3.18222e-07
1.26766e-08
3.18321e-07
1.2226e-08
3.18418e-07
1.17798e-08
3.18514e-07
1.13358e-08
3.18609e-07
1.08917e-08
3.18703e-07
1.04457e-08
3.18797e-07
9.99541e-09
3.18889e-07
9.53926e-09
3.18981e-07
9.07503e-09
3.19071e-07
8.60126e-09
3.1916e-07
8.11618e-09
3.19248e-07
7.61825e-09
3.19333e-07
7.10698e-09
3.19415e-07
6.57974e-09
3.19492e-07
6.03914e-09
3.19564e-07
5.4796e-09
3.19627e-07
4.91006e-09
3.19675e-07
4.32352e-09
3.19701e-07
3.74438e-09
3.19688e-07
3.1898e-09
3.19624e-07
2.73959e-09
2.5251e-09
3.19492e-07
3.16743e-07
2.43028e-08
3.19659e-07
4.69593e-08
3.20981e-07
4.37505e-08
3.21912e-07
3.77377e-08
3.2278e-07
3.58034e-08
3.23395e-07
3.42747e-08
3.23808e-07
3.19399e-08
3.24148e-07
2.97195e-08
3.24453e-07
2.79741e-08
3.24717e-07
2.6508e-08
3.24946e-07
2.51757e-08
3.25152e-07
2.39581e-08
3.25341e-07
2.28556e-08
3.25516e-07
2.18535e-08
3.25679e-07
2.09345e-08
3.25832e-07
2.00857e-08
3.25978e-07
1.9298e-08
3.26117e-07
1.85641e-08
3.2625e-07
1.78772e-08
3.26378e-07
1.72317e-08
3.26501e-07
1.66224e-08
3.26621e-07
1.60447e-08
3.26736e-07
1.54943e-08
3.26849e-07
1.49675e-08
3.26958e-07
1.44609e-08
3.27065e-07
1.39713e-08
3.27169e-07
1.34957e-08
3.27272e-07
1.30315e-08
3.27372e-07
1.2576e-08
3.27471e-07
1.2127e-08
3.27569e-07
1.16821e-08
3.27665e-07
1.12393e-08
3.27761e-07
1.07962e-08
3.27856e-07
1.03511e-08
3.27949e-07
9.9017e-09
3.28042e-07
9.4464e-09
3.28134e-07
8.98318e-09
3.28225e-07
8.51046e-09
3.28314e-07
8.02681e-09
3.28402e-07
7.53057e-09
3.28487e-07
7.02159e-09
3.28569e-07
6.49751e-09
3.28648e-07
5.96088e-09
3.28719e-07
5.40797e-09
3.28783e-07
4.84667e-09
3.28831e-07
4.27564e-09
3.28858e-07
3.71723e-09
3.28849e-07
3.19842e-09
3.28795e-07
2.79385e-09
2.63514e-09
3.28685e-07
3.26154e-07
2.19518e-08
3.28997e-07
4.41159e-08
3.30354e-07
4.23938e-08
3.31264e-07
3.68268e-08
3.32129e-07
3.49387e-08
3.32769e-07
3.3635e-08
3.33199e-07
3.15098e-08
3.33547e-07
2.9372e-08
3.33857e-07
2.76638e-08
3.34128e-07
2.62374e-08
3.34363e-07
2.49406e-08
3.34572e-07
2.37482e-08
3.34764e-07
2.26637e-08
3.34942e-07
2.1676e-08
3.35107e-07
2.07689e-08
3.35263e-07
1.993e-08
3.35411e-07
1.91505e-08
3.35551e-07
1.84235e-08
3.35686e-07
1.77427e-08
3.35815e-07
1.71025e-08
3.3594e-07
1.64979e-08
3.3606e-07
1.59243e-08
3.36176e-07
1.53777e-08
3.3629e-07
1.48543e-08
3.364e-07
1.43508e-08
3.36507e-07
1.38639e-08
3.36612e-07
1.33907e-08
3.36715e-07
1.29286e-08
3.36816e-07
1.2475e-08
3.36915e-07
1.20276e-08