/*--------------------------------*- C++ -*----------------------------------*\
  =========                 |
  \\      /  F ield         | OpenFOAM: The Open Source CFD Toolbox
   \\    /   O peration     | Website:  https://openfoam.org
    \\  /    A nd           | Version:  7
     \\/     M anipulation  |
\*---------------------------------------------------------------------------*/
FoamFile
{
    version     2.0;
    format      ascii;
    class       volVectorField;
    location    "0.27";
    object      U_0;
}
// * * * * * * * * * * * * * * * * * * * * * * * * * * * * * * * * * * * * * //

dimensions      [0 1 -1 0 0 0 0];

internalField   nonuniform List<vector> 
70000
(
(0.55339 0.0167231 0)
(0.25126 0.00340101 0)
(0.1662 0.000321994 0)
(0.132454 5.42662e-05 0)
(0.117266 4.5699e-05 0)
(0.107348 5.38659e-05 0)
(0.0994068 4.62254e-05 0)
(0.0929753 3.688e-05 0)
(0.0877401 3.05611e-05 0)
(0.0833808 2.62307e-05 0)
(0.079669 2.29304e-05 0)
(0.0764565 2.02861e-05 0)
(0.073642 1.8128e-05 0)
(0.0711517 1.63423e-05 0)
(0.0689295 1.48449e-05 0)
(0.0669323 1.35734e-05 0)
(0.0651261 1.24811e-05 0)
(0.063484 1.15334e-05 0)
(0.0619841 1.07029e-05 0)
(0.0606085 9.96918e-06 0)
(0.0593427 9.31523e-06 0)
(0.0581744 8.7281e-06 0)
(0.0570933 8.19689e-06 0)
(0.0560907 7.71317e-06 0)
(0.0551593 7.26937e-06 0)
(0.0542928 6.8602e-06 0)
(0.0534859 6.47974e-06 0)
(0.0527341 6.12523e-06 0)
(0.0520333 5.79117e-06 0)
(0.0513802 5.47767e-06 0)
(0.0507721 5.17799e-06 0)
(0.0502064 4.89666e-06 0)
(0.0496812 4.62316e-06 0)
(0.0491948 4.36899e-06 0)
(0.0487456 4.11827e-06 0)
(0.0483329 3.88768e-06 0)
(0.0479546 3.66383e-06 0)
(0.0476126 3.44549e-06 0)
(0.0473008 3.2752e-06 0)
(0.0470295 3.01465e-06 0)
(0.0467781 3.00208e-06 0)
(0.0465837 2.46423e-06 0)
(0.0463797 2.98217e-06 0)
(0.0462871 1.27068e-06 0)
(0.0460957 3.58736e-06 0)
(0.046189 -2.3301e-06 0)
(0.045921 5.56748e-06 0)
(0.0464397 -1.49708e-05 0)
(0.0461669 2.00315e-05 0)
(0.044017 -0.00168869 0)
(0.884899 0.0431674 0)
(0.649714 0.0201942 0)
(0.494317 0.00659834 0)
(0.403664 0.00276742 0)
(0.354748 0.0015516 0)
(0.323461 0.00113101 0)
(0.299623 0.000909664 0)
(0.280451 0.000745673 0)
(0.264764 0.000622786 0)
(0.25167 0.000532031 0)
(0.240517 0.000463154 0)
(0.230863 0.000408956 0)
(0.222403 0.000365148 0)
(0.214914 0.000329057 0)
(0.208228 0.000298866 0)
(0.202217 0.000273272 0)
(0.196778 0.000251317 0)
(0.191831 0.000232281 0)
(0.18731 0.000215616 0)
(0.183162 0.000200896 0)
(0.179344 0.000187785 0)
(0.175817 0.000176017 0)
(0.172553 0.000165374 0)
(0.169524 0.000155679 0)
(0.166708 0.000146783 0)
(0.164087 0.000138561 0)
(0.161645 0.000130905 0)
(0.159367 0.000123724 0)
(0.157243 0.000116932 0)
(0.155262 0.000110465 0)
(0.153416 0.000104242 0)
(0.151697 9.82284e-05 0)
(0.150101 9.23328e-05 0)
(0.148621 8.65648e-05 0)
(0.147255 8.07893e-05 0)
(0.146 7.51046e-05 0)
(0.14485 6.92695e-05 0)
(0.143813 6.35523e-05 0)
(0.142871 5.75066e-05 0)
(0.142054 5.16523e-05 0)
(0.141307 4.52976e-05 0)
(0.14073 3.90142e-05 0)
(0.140148 3.24386e-05 0)
(0.139879 2.4356e-05 0)
(0.139369 1.84159e-05 0)
(0.139614 2.06e-06 0)
(0.138933 4.09184e-06 0)
(0.140224 -7.63152e-05 0)
(0.13939 0.000140741 0)
(0.138785 -0.00299964 0)
(0.991238 0.0499016 0)
(0.890347 0.0307192 0)
(0.76268 0.014598 0)
(0.656673 0.00797932 0)
(0.585362 0.00488383 0)
(0.53598 0.00346946 0)
(0.498145 0.00273351 0)
(0.467563 0.00224095 0)
(0.442288 0.00187772 0)
(0.421018 0.00160614 0)
(0.402805 0.00139877 0)
(0.386982 0.00123558 0)
(0.373072 0.00110376 0)
(0.360726 0.000995178 0)
(0.34968 0.000904325 0)
(0.339729 0.000827283 0)
(0.33071 0.000761175 0)
(0.322494 0.000703845 0)
(0.314976 0.000653646 0)
(0.308069 0.000609302 0)
(0.301702 0.000569807 0)
(0.295816 0.000534361 0)
(0.29036 0.00050231 0)
(0.285292 0.000473122 0)
(0.280575 0.00044635 0)
(0.276179 0.000421616 0)
(0.272077 0.000398595 0)
(0.268247 0.000377008 0)
(0.264669 0.000356598 0)
(0.261327 0.000337154 0)
(0.258208 0.00031845 0)
(0.255298 0.000300343 0)
(0.252589 0.000282585 0)
(0.250072 0.000265145 0)
(0.247742 0.000247658 0)
(0.245594 0.000230337 0)
(0.243622 0.000212488 0)
(0.241833 0.000194883 0)
(0.240204 0.00017602 0)
(0.238779 0.000157904 0)
(0.23748 0.00013725 0)
(0.23645 0.0001185 0)
(0.23544 9.49175e-05 0)
(0.234906 7.4684e-05 0)
(0.234061 4.65061e-05 0)
(0.234308 1.66517e-05 0)
(0.233298 -8.31347e-06 0)
(0.235002 -0.000157319 0)
(0.233681 7.27185e-05 0)
(0.23558 -0.00328141 0)
(1.0156 0.0489206 0)
(1.00596 0.0358757 0)
(0.935947 0.0207923 0)
(0.852118 0.013504 0)
(0.78219 0.0092061 0)
(0.727016 0.00677811 0)
(0.681972 0.00537927 0)
(0.644261 0.00443946 0)
(0.612294 0.00374546 0)
(0.584879 0.00321963 0)
(0.561078 0.00281347 0)
(0.540183 0.00249169 0)
(0.521664 0.00223069 0)
(0.505118 0.00201497 0)
(0.490232 0.00183395 0)
(0.476758 0.00168006 0)
(0.464498 0.00154775 0)
(0.453289 0.0014328 0)
(0.443 0.00133201 0)
(0.433521 0.00124286 0)
(0.424762 0.00116339 0)
(0.416644 0.00109201 0)
(0.409102 0.00102744 0)
(0.402082 0.000968625 0)
(0.395536 0.00091467 0)
(0.389422 0.00086483 0)
(0.383706 0.000818457 0)
(0.378358 0.000774991 0)
(0.373351 0.000733924 0)
(0.368663 0.000694822 0)
(0.364276 0.000657243 0)
(0.360173 0.000620873 0)
(0.356341 0.000585239 0)
(0.35277 0.000550225 0)
(0.349449 0.000515147 0)
(0.346376 0.000480332 0)
(0.343539 0.000444452 0)
(0.340948 0.000408947 0)
(0.338576 0.000370783 0)
(0.336472 0.000334132 0)
(0.334549 0.000291711 0)
(0.332971 0.000254131 0)
(0.331454 0.000204051 0)
(0.330518 0.00016615 0)
(0.329277 0.000101956 0)
(0.329294 5.62185e-05 0)
(0.327997 -1.94974e-05 0)
(0.329645 -0.000224124 0)
(0.32809 -8.82962e-05 0)
(0.330916 -0.00325525 0)
(1.01434 0.046004 0)
(1.04753 0.0374895 0)
(1.02457 0.0241527 0)
(0.974749 0.017559 0)
(0.92344 0.0131199 0)
(0.876686 0.0102012 0)
(0.834558 0.00833552 0)
(0.796859 0.00701294 0)
(0.763355 0.00600224 0)
(0.733604 0.00521432 0)
(0.707091 0.00459217 0)
(0.683343 0.00409145 0)
(0.661959 0.00368057 0)
(0.642607 0.00333789 0)
(0.625011 0.00304821 0)
(0.608942 0.00280046 0)
(0.594209 0.00258635 0)
(0.580652 0.00239954 0)
(0.568136 0.00223513 0)
(0.556547 0.00208928 0)
(0.545788 0.00195891 0)
(0.535777 0.00184156 0)
(0.526442 0.00173521 0)
(0.517722 0.00163818 0)
(0.509563 0.00154908 0)
(0.50192 0.0014667 0)
(0.494753 0.00139002 0)
(0.488027 0.00131813 0)
(0.481711 0.00125022 0)
(0.47578 0.00118557 0)
(0.470212 0.00112347 0)
(0.464988 0.0010634 0)
(0.460091 0.00100462 0)
(0.455509 0.00094686 0)
(0.451231 0.00088908 0)
(0.44725 0.000831689 0)
(0.443555 0.00077264 0)
(0.440154 0.000714067 0)
(0.437022 0.000651209 0)
(0.434204 0.000590605 0)
(0.431616 0.000520473 0)
(0.429419 0.000458281 0)
(0.427337 0.000374845 0)
(0.425875 0.000312905 0)
(0.424185 0.000205028 0)
(0.423745 0.000134643 0)
(0.422179 2.76797e-06 0)
(0.423326 -0.000263441 0)
(0.421797 -0.000244235 0)
(0.424121 -0.00319237 0)
(1.00933 0.0429155 0)
(1.05527 0.0372649 0)
(1.05868 0.0252972 0)
(1.03636 0.0197589 0)
(1.00709 0.0158087 0)
(0.976046 0.0129298 0)
(0.944542 0.0109505 0)
(0.913713 0.00946602 0)
(0.884408 0.00827402 0)
(0.857011 0.00730527 0)
(0.831597 0.00651476 0)
(0.8081 0.00586218 0)
(0.786398 0.00531593 0)
(0.766345 0.00485302 0)
(0.747796 0.00445658 0)
(0.730608 0.00411383 0)
(0.714654 0.0038149 0)
(0.699816 0.00355206 0)
(0.68599 0.00331921 0)
(0.673083 0.00311145 0)
(0.661014 0.00292483 0)
(0.64971 0.00275612 0)
(0.639108 0.00260265 0)
(0.629151 0.00246219 0)
(0.61979 0.00233286 0)
(0.610979 0.00221301 0)
(0.602681 0.00210125 0)
(0.594861 0.00199632 0)
(0.58749 0.0018971 0)
(0.58054 0.00180258 0)
(0.57399 0.00171177 0)
(0.56782 0.00162392 0)
(0.562012 0.00153797 0)
(0.556554 0.00145353 0)
(0.551434 0.00136916 0)
(0.546644 0.0012853 0)
(0.542173 0.0011992 0)
(0.538028 0.0011136 0)
(0.534185 0.0010221 0)
(0.530683 0.000933329 0)
(0.527452 0.00083143 0)
(0.524628 0.000739823 0)
(0.521977 0.000619141 0)
(0.519929 0.00052672 0)
(0.517773 0.000373053 0)
(0.516738 0.00026665 0)
(0.514901 8.08006e-05 0)
(0.515282 -0.000259065 0)
(0.51381 -0.000354874 0)
(0.515129 -0.00307962 0)
(1.00625 0.040034 0)
(1.05206 0.0363376 0)
(1.06609 0.0252267 0)
(1.05959 0.0205589 0)
(1.04686 0.0172354 0)
(1.03078 0.014649 0)
(1.01189 0.0128087 0)
(0.991229 0.0113801 0)
(0.969855 0.0101808 0)
(0.948498 0.00916319 0)
(0.927602 0.00830168 0)
(0.907427 0.0075682 0)
(0.888115 0.00693812 0)
(0.869736 0.00639237 0)
(0.852306 0.00591625 0)
(0.835812 0.00549811 0)
(0.820221 0.00512849 0)
(0.805493 0.00479972 0)
(0.791581 0.0045055 0)
(0.778436 0.00424067 0)
(0.766014 0.00400094 0)
(0.754268 0.00378273 0)
(0.743156 0.00358304 0)
(0.732638 0.0033993 0)
(0.72268 0.00322932 0)
(0.713246 0.00307116 0)
(0.704308 0.00292315 0)
(0.695836 0.00278376 0)
(0.687808 0.00265161 0)
(0.6802 0.00252545 0)
(0.672993 0.00240406 0)
(0.666171 0.00228645 0)
(0.659719 0.00217132 0)
(0.653625 0.0020581 0)
(0.647879 0.001945 0)
(0.642473 0.00183245 0)
(0.637399 0.00171711 0)
(0.63266 0.00160209 0)
(0.62824 0.00147972 0)
(0.624168 0.0013601 0)
(0.62039 0.00122437 0)
(0.617012 0.00109993 0)
(0.613857 0.000940747 0)
(0.611254 0.000812399 0)
(0.608666 0.000614569 0)
(0.607017 0.000461954 0)
(0.604902 0.000227817 0)
(0.604475 -0.000192366 0)
(0.602932 -0.000396618 0)
(0.603247 -0.00288479 0)
(1.00495 0.037356 0)
(1.04727 0.0352556 0)
(1.06397 0.0246869 0)
(1.06425 0.0205855 0)
(1.06066 0.0177735 0)
(1.05473 0.0154916 0)
(1.04597 0.0138654 0)
(1.03479 0.0126008 0)
(1.0219 0.0115114 0)
(1.0079 0.010556 0)
(0.993265 0.00972117 0)
(0.978331 0.0089895 0)
(0.963368 0.008344 0)
(0.948567 0.00777131 0)
(0.934061 0.00726088 0)
(0.919943 0.00680403 0)
(0.90627 0.00639339 0)
(0.893075 0.00602268 0)
(0.880378 0.00568654 0)
(0.868182 0.0053804 0)
(0.856486 0.00510037 0)
(0.845281 0.00484306 0)
(0.834556 0.00460559 0)
(0.824296 0.00438541 0)
(0.814486 0.00418032 0)
(0.80511 0.00398831 0)
(0.796154 0.0038076 0)
(0.787601 0.00363658 0)
(0.779438 0.00347373 0)
(0.77165 0.00331766 0)
(0.764227 0.00316699 0)
(0.757157 0.00302056 0)
(0.750431 0.0028769 0)
(0.744041 0.00273529 0)
(0.73798 0.00259367 0)
(0.732244 0.00245242 0)
(0.726828 0.00230775 0)
(0.721734 0.00216294 0)
(0.716953 0.00200951 0)
(0.712505 0.00185826 0)
(0.708356 0.00168867 0)
(0.704579 0.00152985 0)
(0.701054 0.0013331 0)
(0.698015 0.00116551 0)
(0.695086 0.000926946 0)
(0.692916 0.000722095 0)
(0.690545 0.000444727 0)
(0.689418 -5.26448e-05 0)
(0.687689 -0.000360065 0)
(0.687139 -0.00260575 0)
(1.0044 0.0348081 0)
(1.04324 0.0341824 0)
(1.05994 0.0240461 0)
(1.06228 0.020292 0)
(1.06248 0.0178377 0)
(1.06178 0.015773 0)
(1.05921 0.0143198 0)
(1.05466 0.0132199 0)
(1.04846 0.012272 0)
(1.04091 0.0114277 0)
(1.0323 0.0106764 0)
(1.02288 0.0100046 0)
(1.01289 0.00939945 0)
(1.00251 0.00885118 0)
(0.991914 0.00835259 0)
(0.981225 0.00789783 0)
(0.970548 0.00748185 0)
(0.959961 0.00710022 0)
(0.949526 0.00674902 0)
(0.939288 0.00642481 0)
(0.929281 0.00612451 0)
(0.91953 0.00584543 0)
(0.910051 0.00558513 0)
(0.900856 0.00534145 0)
(0.891952 0.00511243 0)
(0.883343 0.00489626 0)
(0.875031 0.00469128 0)
(0.867016 0.00449593 0)
(0.859295 0.00430873 0)
(0.851867 0.00412829 0)
(0.844729 0.00395317 0)
(0.83788 0.00378217 0)
(0.831316 0.00361371 0)
(0.825037 0.00344697 0)
(0.81904 0.00327976 0)
(0.813326 0.00311235 0)
(0.807896 0.00294072 0)
(0.802751 0.00276811 0)
(0.797889 0.00258566 0)
(0.793326 0.00240423 0)
(0.789043 0.0022029 0)
(0.78509 0.00201044 0)
(0.78139 0.00177894 0)
(0.778104 0.00157162 0)
(0.774982 0.00129664 0)
(0.77246 0.00103862 0)
(0.769912 0.000721659 0)
(0.768262 0.000157587 0)
(0.766329 -0.000245091 0)
(0.765091 -0.00225314 0)
(1.00402 0.032368 0)
(1.03991 0.0331324 0)
(1.05616 0.0234232 0)
(1.05892 0.0199041 0)
(1.06021 0.0177077 0)
(1.06155 0.0157777 0)
(1.06192 0.0144253 0)
(1.06103 0.0134399 0)
(1.05897 0.0126074 0)
(1.05586 0.0118681 0)
(1.05179 0.0112089 0)
(1.04687 0.0106161 0)
(1.04124 0.0100768 0)
(1.03501 0.00958197 0)
(1.0283 0.00912558 0)
(1.02123 0.00870312 0)
(1.01389 0.00831094 0)
(1.00636 0.00794588 0)
(0.998707 0.0076052 0)
(0.990999 0.00728643 0)
(0.983285 0.00698738 0)
(0.975604 0.00670606 0)
(0.967993 0.00644065 0)
(0.960479 0.00618947 0)
(0.953086 0.00595097 0)
(0.945832 0.00572367 0)
(0.938734 0.00550616 0)
(0.931804 0.00529709 0)
(0.925052 0.00509512 0)
(0.918486 0.00489897 0)
(0.912115 0.00470726 0)
(0.905942 0.00451882 0)
(0.899976 0.00433206 0)
(0.894219 0.00414616 0)
(0.888678 0.00395883 0)
(0.883356 0.0037703 0)
(0.878259 0.00357645 0)
(0.873393 0.00338037 0)
(0.86876 0.0031732 0)
(0.864375 0.00296533 0)
(0.860229 0.00273643 0)
(0.856359 0.00251345 0)
(0.852717 0.00225176 0)
(0.849413 0.00200718 0)
(0.846288 0.00170093 0)
(0.843626 0.0013932 0)
(0.841033 0.00104023 0)
(0.839071 0.000424856 0)
(0.836999 -6.17301e-05 0)
(0.835274 -0.00184421 0)
(1.00364 0.0300276 0)
(1.03692 0.0320849 0)
(1.05282 0.0228336 0)
(1.05568 0.0194992 0)
(1.05712 0.0175161 0)
(1.05901 0.015678 0)
(1.06045 0.014373 0)
(1.06114 0.0134503 0)
(1.06114 0.0126909 0)
(1.0605 0.0120253 0)
(1.0592 0.0114376 0)
(1.05727 0.0109129 0)
(1.05475 0.0104369 0)
(1.05167 0.00999946 0)
(1.04811 0.00959408 0)
(1.04411 0.00921621 0)
(1.03975 0.00886238 0)
(1.03507 0.00852982 0)
(1.03014 0.00821623 0)
(1.025 0.00791965 0)
(1.0197 0.00763836 0)
(1.01429 0.00737085 0)
(1.00879 0.00711573 0)
(1.00324 0.00687172 0)
(0.997679 0.0066376 0)
(0.992119 0.0064122 0)
(0.986587 0.00619439 0)
(0.981103 0.00598303 0)
(0.975685 0.00577697 0)
(0.970346 0.00557507 0)
(0.965103 0.00537608 0)
(0.959965 0.00517891 0)
(0.954946 0.00498201 0)
(0.950054 0.00478459 0)
(0.9453 0.00458438 0)
(0.940692 0.00438154 0)
(0.93624 0.00417199 0)
(0.931952 0.00395859 0)
(0.927837 0.00373275 0)
(0.923906 0.00350407 0)
(0.920159 0.00325347 0)
(0.916625 0.00300516 0)
(0.913277 0.00271933 0)
(0.910189 0.00244247 0)
(0.907264 0.00211107 0)
(0.90468 0.00176047 0)
(0.902203 0.0013762 0)
(0.900145 0.000726351 0)
(0.898051 0.000174509 0)
(0.896051 -0.00139925 0)
(1.00327 0.0277879 0)
(1.03409 0.0310263 0)
(1.0497 0.0222705 0)
(1.05272 0.0190922 0)
(1.05411 0.0173056 0)
(1.05606 0.0155492 0)
(1.05777 0.0142661 0)
(1.05899 0.0133735 0)
(1.0598 0.0126543 0)
(1.06026 0.0120316 0)
(1.06035 0.0114883 0)
(1.06006 0.0110095 0)
(1.05937 0.0105797 0)
(1.05829 0.0101877 0)
(1.05684 0.00982597 0)
(1.05503 0.00948937 0)
(1.05289 0.00917396 0)
(1.05044 0.0088767 0)
(1.04773 0.00859517 0)
(1.04477 0.00832739 0)
(1.04159 0.00807171 0)
(1.03823 0.0078267 0)
(1.03472 0.00759112 0)
(1.03107 0.00736385 0)
(1.02732 0.00714383 0)
(1.02349 0.00693006 0)
(1.0196 0.00672156 0)
(1.01567 0.00651735 0)
(1.01172 0.00631639 0)
(1.00777 0.00611767 0)
(1.00383 0.00592004 0)
(0.999912 0.00572248 0)
(0.996037 0.00552351 0)
(0.992215 0.00532236 0)
(0.988459 0.00511681 0)
(0.984779 0.00490697 0)
(0.981186 0.00468886 0)
(0.977693 0.00446506 0)
(0.974306 0.00422743 0)
(0.971042 0.00398457 0)
(0.967901 0.00371912 0)
(0.964908 0.00345193 0)
(0.962049 0.00314894 0)
(0.959374 0.00284652 0)
(0.956829 0.0024968 0)
(0.954516 0.00211246 0)
(0.952308 0.00170305 0)
(0.950351 0.00103565 0)
(0.948367 0.000439506 0)
(0.946295 -0.000942429 0)
(1.00292 0.0256522 0)
(1.03138 0.029952 0)
(1.0467 0.0217295 0)
(1.04993 0.0186832 0)
(1.0513 0.017083 0)
(1.05321 0.0154132 0)
(1.05495 0.0141456 0)
(1.05628 0.0132684 0)
(1.05733 0.012572 0)
(1.05818 0.0119728 0)
(1.05883 0.0114536 0)
(1.05927 0.0110007 0)
(1.05948 0.0105988 0)
(1.05946 0.010236 0)
(1.05921 0.00990426 0)
(1.05871 0.00959777 0)
(1.05798 0.00931216 0)
(1.05702 0.00904397 0)
(1.05584 0.00879045 0)
(1.05445 0.00854936 0)
(1.05287 0.00831883 0)
(1.05111 0.00809731 0)
(1.04918 0.00788347 0)
(1.0471 0.00767611 0)
(1.0449 0.00747417 0)
(1.04257 0.00727664 0)
(1.04015 0.00708256 0)
(1.03765 0.00689097 0)
(1.03507 0.00670088 0)
(1.03244 0.00651131 0)
(1.02977 0.00632114 0)
(1.02708 0.0061294 0)
(1.02437 0.00593463 0)
(1.02166 0.00573606 0)
(1.01895 0.00553151 0)
(1.01627 0.00532102 0)
(1.01362 0.00510074 0)
(1.01101 0.00487294 0)
(1.00846 0.00463003 0)
(1.00597 0.00437949 0)
(1.00355 0.00410592 0)
(1.00122 0.00382655 0)
(0.998971 0.00351342 0)
(0.996837 0.00319286 0)
(0.994793 0.00283167 0)
(0.992889 0.00242378 0)
(0.991065 0.00199616 0)
(0.989362 0.00132778 0)
(0.987602 0.000705951 0)
(0.985627 -0.000498639 0)
(1.0026 0.0236231 0)
(1.02879 0.0288606 0)
(1.04378 0.0212094 0)
(1.04724 0.018272 0)
(1.04862 0.016847 0)
(1.05049 0.0152727 0)
(1.05223 0.0140224 0)
(1.05356 0.013156 0)
(1.05465 0.0124757 0)
(1.05559 0.0118913 0)
(1.05641 0.0113853 0)
(1.05711 0.0109462 0)
(1.05769 0.0105592 0)
(1.05814 0.0102128 0)
(1.05845 0.00989846 0)
(1.05862 0.0096104 0)
(1.05865 0.00934397 0)
(1.05853 0.00909548 0)
(1.05827 0.00886189 0)
(1.05786 0.00864073 0)
(1.05731 0.00842991 0)
(1.05661 0.00822767 0)
(1.05579 0.00803249 0)
(1.05484 0.00784304 0)
(1.05377 0.00765813 0)
(1.05259 0.00747665 0)
(1.05131 0.00729754 0)
(1.04994 0.0071198 0)
(1.04849 0.00694238 0)
(1.04697 0.00676427 0)
(1.04538 0.00658432 0)
(1.04374 0.00640153 0)
(1.04206 0.00621443 0)
(1.04035 0.00602222 0)
(1.03861 0.00582274 0)
(1.03686 0.00561591 0)
(1.03511 0.00539805 0)
(1.03335 0.00517105 0)
(1.03161 0.00492795 0)
(1.0299 0.00467499 0)
(1.02821 0.00439892 0)
(1.02656 0.00411326 0)
(1.02495 0.00379603 0)
(1.0234 0.0034644 0)
(1.02191 0.00309781 0)
(1.02048 0.00267632 0)
(1.01909 0.00223763 0)
(1.01773 0.00158212 0)
(1.01627 0.000953599 0)
(1.01451 -8.81824e-05 0)
(1.0023 0.0217025 0)
(1.02634 0.0277532 0)
(1.04095 0.0207087 0)
(1.04463 0.0178603 0)
(1.04603 0.0165961 0)
(1.04787 0.0151262 0)
(1.04961 0.0138979 0)
(1.05094 0.0130413 0)
(1.05201 0.0123755 0)
(1.05296 0.0118032 0)
(1.05381 0.0113063 0)
(1.05458 0.0108752 0)
(1.05527 0.0104965 0)
(1.05588 0.0101587 0)
(1.05641 0.00985378 0)
(1.05687 0.00957576 0)
(1.05724 0.00932011 0)
(1.05753 0.00908309 0)
(1.05773 0.00886161 0)
(1.05785 0.00865306 0)
(1.05787 0.00845524 0)
(1.05781 0.00826623 0)
(1.05765 0.00808439 0)
(1.0574 0.00790823 0)
(1.05707 0.00773644 0)
(1.05665 0.00756779 0)
(1.05615 0.00740112 0)
(1.05557 0.00723531 0)
(1.05492 0.00706924 0)
(1.05421 0.00690184 0)
(1.05343 0.00673186 0)
(1.05261 0.00655828 0)
(1.05173 0.00637956 0)
(1.05081 0.00619485 0)
(1.04985 0.00600199 0)
(1.04887 0.00580077 0)
(1.04786 0.00558767 0)
(1.04683 0.00536415 0)
(1.0458 0.00512397 0)
(1.04476 0.00487205 0)
(1.04372 0.00459731 0)
(1.04269 0.00430971 0)
(1.04167 0.00399282 0)
(1.04067 0.00365591 0)
(1.03969 0.00328863 0)
(1.03873 0.00286209 0)
(1.03777 0.00241894 0)
(1.03677 0.00178689 0)
(1.03564 0.00116891 0)
(1.03414 0.000275325 0)
(1.00203 0.0198912 0)
(1.02402 0.0266327 0)
(1.03822 0.0202242 0)
(1.04211 0.0174499 0)
(1.04353 0.0163306 0)
(1.04534 0.0149723 0)
(1.04708 0.0137713 0)
(1.04841 0.0129246 0)
(1.04947 0.0122731 0)
(1.0504 0.0117129 0)
(1.05125 0.0112241 0)
(1.05202 0.0107992 0)
(1.05273 0.0104261 0)
(1.05338 0.0100936 0)
(1.05397 0.00979393 0)
(1.05452 0.00952131 0)
(1.05503 0.00927137 0)
(1.05548 0.00904048 0)
(1.05588 0.00882559 0)
(1.05624 0.00862409 0)
(1.05654 0.00843376 0)
(1.05678 0.00825263 0)
(1.05697 0.008079 0)
(1.05711 0.00791131 0)
(1.05719 0.00774814 0)
(1.05721 0.0075882 0)
(1.05718 0.00743023 0)
(1.05709 0.00727304 0)
(1.05695 0.00711542 0)
(1.05676 0.00695624 0)
(1.05652 0.00679418 0)
(1.05624 0.00662815 0)
(1.05592 0.00645657 0)
(1.05556 0.00627854 0)
(1.05517 0.00609187 0)
(1.05474 0.00589622 0)
(1.05429 0.00568825 0)
(1.05381 0.00546899 0)
(1.05332 0.0052329 0)
(1.05281 0.00498362 0)
(1.05228 0.00471218 0)
(1.05175 0.00442526 0)
(1.05121 0.00411129 0)
(1.05067 0.00377324 0)
(1.05012 0.00340835 0)
(1.04956 0.00298333 0)
(1.04897 0.00254117 0)
(1.0483 0.0019398 0)
(1.04747 0.00134618 0)
(1.04625 0.000587323 0)
(1.00179 0.0181893 0)
(1.02183 0.025503 0)
(1.03558 0.0197521 0)
(1.03967 0.0170426 0)
(1.04113 0.016051 0)
(1.0429 0.01481 0)
(1.04463 0.0136422 0)
(1.04597 0.0128058 0)
(1.04702 0.0121686 0)
(1.04794 0.0116211 0)
(1.04877 0.0111406 0)
(1.04953 0.0107216 0)
(1.05023 0.0103534 0)
(1.05088 0.010025 0)
(1.05149 0.00972899 0)
(1.05205 0.00945977 0)
(1.05259 0.00921315 0)
(1.05309 0.00898562 0)
(1.05357 0.00877424 0)
(1.05401 0.00857648 0)
(1.05442 0.00839014 0)
(1.0548 0.00821328 0)
(1.05514 0.00804417 0)
(1.05546 0.00788125 0)
(1.05574 0.00772307 0)
(1.05598 0.00756828 0)
(1.05619 0.0074156 0)
(1.05637 0.00726377 0)
(1.05651 0.00711154 0)
(1.05662 0.00695772 0)
(1.0567 0.00680097 0)
(1.05675 0.00664014 0)
(1.05676 0.00647363 0)
(1.05676 0.00630046 0)
(1.05672 0.00611849 0)
(1.05666 0.00592721 0)
(1.05657 0.00572351 0)
(1.05647 0.00550795 0)
(1.05634 0.00527574 0)
(1.0562 0.00502932 0)
(1.05604 0.0047616 0)
(1.05587 0.00447652 0)
(1.05568 0.00416649 0)
(1.05547 0.00382984 0)
(1.05525 0.00346896 0)
(1.05499 0.00304988 0)
(1.05469 0.00261293 0)
(1.05428 0.00204635 0)
(1.05369 0.00148697 0)
(1.05272 0.000849665 0)
(1.00157 0.0165966 0)
(1.01979 0.0243681 0)
(1.03304 0.0192883 0)
(1.03732 0.0166402 0)
(1.03882 0.0157588 0)
(1.04055 0.0146387 0)
(1.04228 0.0135102 0)
(1.04362 0.0126848 0)
(1.04466 0.0120618 0)
(1.04557 0.0115276 0)
(1.04639 0.011056 0)
(1.04714 0.0106431 0)
(1.04782 0.0102796 0)
(1.04846 0.0099552 0)
(1.04906 0.00966242 0)
(1.04962 0.00939594 0)
(1.05016 0.00915173 0)
(1.05067 0.00892643 0)
(1.05115 0.0087172 0)
(1.05162 0.00852158 0)
(1.05206 0.00833743 0)
(1.05248 0.00816286 0)
(1.05288 0.00799615 0)
(1.05327 0.00783575 0)
(1.05363 0.00768022 0)
(1.05397 0.00752819 0)
(1.05429 0.00737835 0)
(1.05458 0.00722946 0)
(1.05486 0.00708022 0)
(1.05512 0.00692944 0)
(1.05536 0.00677573 0)
(1.05558 0.00661794 0)
(1.05578 0.00645447 0)
(1.05597 0.00628426 0)
(1.05613 0.00610527 0)
(1.05628 0.00591681 0)
(1.05641 0.00571603 0)
(1.05653 0.00550307 0)
(1.05663 0.00527384 0)
(1.05672 0.00502971 0)
(1.05679 0.00476528 0)
(1.05684 0.00448223 0)
(1.05688 0.00417608 0)
(1.05689 0.00384214 0)
(1.05689 0.00348584 0)
(1.05684 0.00307534 0)
(1.05674 0.00264664 0)
(1.05652 0.00211642 0)
(1.05611 0.00159753 0)
(1.05533 0.00106907 0)
(1.00137 0.0151122 0)
(1.01788 0.0232319 0)
(1.03061 0.0188289 0)
(1.03505 0.0162441 0)
(1.0366 0.0154552 0)
(1.0383 0.0144578 0)
(1.04001 0.0133751 0)
(1.04135 0.0125616 0)
(1.0424 0.0119525 0)
(1.04329 0.0114321 0)
(1.0441 0.01097 0)
(1.04484 0.0105635 0)
(1.04551 0.0102049 0)
(1.04613 0.0098846 0)
(1.04672 0.00959506 0)
(1.04727 0.00933123 0)
(1.0478 0.00908921 0)
(1.0483 0.0088658 0)
(1.04878 0.00865823 0)
(1.04924 0.00846414 0)
(1.04969 0.00828144 0)
(1.05012 0.00810827 0)
(1.05053 0.00794295 0)
(1.05093 0.00778395 0)
(1.05132 0.00762982 0)
(1.05169 0.00747922 0)
(1.05205 0.00733083 0)
(1.05239 0.0071834 0)
(1.05272 0.00703564 0)
(1.05304 0.00688634 0)
(1.05335 0.00673412 0)
(1.05365 0.00657782 0)
(1.05394 0.00641586 0)
(1.05421 0.00624714 0)
(1.05448 0.0060697 0)
(1.05473 0.00588272 0)
(1.05498 0.00568362 0)
(1.05521 0.00547215 0)
(1.05543 0.00524487 0)
(1.05564 0.00500226 0)
(1.05584 0.00474033 0)
(1.05602 0.00445907 0)
(1.05619 0.00415628 0)
(1.05634 0.00382559 0)
(1.05646 0.00347388 0)
(1.05654 0.00307334 0)
(1.05656 0.00265498 0)
(1.05645 0.00216098 0)
(1.05617 0.00168578 0)
(1.05554 0.00125409 0)
(1.0012 0.0137344 0)
(1.0161 0.0220987 0)
(1.02829 0.0183702 0)
(1.03287 0.0158556 0)
(1.03447 0.0151421 0)
(1.03613 0.0142667 0)
(1.03783 0.0132363 0)
(1.03918 0.0124362 0)
(1.04022 0.0118407 0)
(1.0411 0.0113346 0)
(1.0419 0.0108827 0)
(1.04263 0.0104828 0)
(1.04329 0.0101294 0)
(1.0439 0.00981323 0)
(1.04448 0.00952706 0)
(1.04502 0.00926593 0)
(1.04553 0.00902611 0)
(1.04602 0.00880453 0)
(1.04649 0.00859852 0)
(1.04695 0.00840579 0)
(1.04738 0.0082243 0)
(1.04781 0.00805223 0)
(1.04822 0.00788792 0)
(1.04862 0.00772984 0)
(1.049 0.00757659 0)
(1.04938 0.0074268 0)
(1.04974 0.00727918 0)
(1.0501 0.00713247 0)
(1.05045 0.00698538 0)
(1.05079 0.00683671 0)
(1.05112 0.0066851 0)
(1.05144 0.00652937 0)
(1.05176 0.00636798 0)
(1.05207 0.00619981 0)
(1.05238 0.00602298 0)
(1.05268 0.00583657 0)
(1.05297 0.00563824 0)
(1.05326 0.00542742 0)
(1.05353 0.00520126 0)
(1.0538 0.00495953 0)
(1.05406 0.00469936 0)
(1.05431 0.00441958 0)
(1.05454 0.00411952 0)
(1.05475 0.00379227 0)
(1.05494 0.00344503 0)
(1.05509 0.00305502 0)
(1.05517 0.00264846 0)
(1.05513 0.00218943 0)
(1.05492 0.00175882 0)
(1.05441 0.00141248 0)
(1.00104 0.0124611 0)
(1.01446 0.0209725 0)
(1.02608 0.0179089 0)
(1.03078 0.0154754 0)
(1.03244 0.0148213 0)
(1.03406 0.014065 0)
(1.03574 0.0130934 0)
(1.03709 0.0123086 0)
(1.03813 0.0117263 0)
(1.03901 0.011235 0)
(1.03979 0.0107937 0)
(1.04051 0.010401 0)
(1.04116 0.0100529 0)
(1.04176 0.00974102 0)
(1.04233 0.00945835 0)
(1.04286 0.00920003 0)
(1.04336 0.00896248 0)
(1.04384 0.00874278 0)
(1.0443 0.00853836 0)
(1.04474 0.00834698 0)
(1.04517 0.00816666 0)
(1.04559 0.00799561 0)
(1.04599 0.00783219 0)
(1.04638 0.00767491 0)
(1.04676 0.00752234 0)
(1.04713 0.00737314 0)
(1.04749 0.00722601 0)
(1.04784 0.00707971 0)
(1.04819 0.00693295 0)
(1.04853 0.00678452 0)
(1.04886 0.00663309 0)
(1.04919 0.00647747 0)
(1.04952 0.00631617 0)
(1.04984 0.00614804 0)
(1.05015 0.00597131 0)
(1.05046 0.00578494 0)
(1.05077 0.00558684 0)
(1.05107 0.00537618 0)
(1.05137 0.00515061 0)
(1.05166 0.00490935 0)
(1.05195 0.0046504 0)
(1.05222 0.00437189 0)
(1.05248 0.00407408 0)
(1.05272 0.00375033 0)
(1.05293 0.00340746 0)
(1.05311 0.00302816 0)
(1.05322 0.00263445 0)
(1.05322 0.0022085 0)
(1.05305 0.0018216 0)
(1.05262 0.00154998 0)
(1.0009 0.0112892 0)
(1.01295 0.0198579 0)
(1.02398 0.0174417 0)
(1.02878 0.0151039 0)
(1.03051 0.014495 0)
(1.03208 0.0138524 0)
(1.03374 0.0129456 0)
(1.0351 0.0121789 0)
(1.03613 0.0116095 0)
(1.037 0.0111329 0)
(1.03778 0.0107031 0)
(1.03848 0.0103178 0)
(1.03913 0.00997525 0)
(1.03972 0.0096679 0)
(1.04027 0.00938887 0)
(1.04079 0.00913346 0)
(1.04129 0.00889829 0)
(1.04176 0.00868053 0)
(1.04221 0.00847775 0)
(1.04264 0.00828777 0)
(1.04306 0.00810865 0)
(1.04346 0.00793863 0)
(1.04385 0.0077761 0)
(1.04423 0.00761958 0)
(1.0446 0.00746765 0)
(1.04497 0.00731899 0)
(1.04532 0.00717228 0)
(1.04566 0.00702628 0)
(1.046 0.00687971 0)
(1.04634 0.00673138 0)
(1.04667 0.00657997 0)
(1.04699 0.00642427 0)
(1.04731 0.00626286 0)
(1.04763 0.00609454 0)
(1.04794 0.00591766 0)
(1.04825 0.00573109 0)
(1.04856 0.00553296 0)
(1.04887 0.00532222 0)
(1.04917 0.00509693 0)
(1.04946 0.00485596 0)
(1.04975 0.00459791 0)
(1.05002 0.00432057 0)
(1.05029 0.00402473 0)
(1.05054 0.00370453 0)
(1.05076 0.00336611 0)
(1.05094 0.0029974 0)
(1.05106 0.00261726 0)
(1.05108 0.00222228 0)
(1.05095 0.00187681 0)
(1.05059 0.0016698 0)
(1.00078 0.0102153 0)
(1.01157 0.0187592 0)
(1.02199 0.0169661 0)
(1.02686 0.0147414 0)
(1.02866 0.0141651 0)
(1.0302 0.013629 0)
(1.03183 0.0127925 0)
(1.03319 0.012047 0)
(1.03423 0.0114902 0)
(1.03509 0.0110284 0)
(1.03585 0.0106106 0)
(1.03655 0.0102333 0)
(1.03718 0.00989649 0)
(1.03777 0.00959378 0)
(1.03831 0.00931853 0)
(1.03882 0.00906617 0)
(1.03931 0.00883345 0)
(1.03977 0.00861773 0)
(1.04021 0.00841665 0)
(1.04063 0.00822811 0)
(1.04104 0.00805023 0)
(1.04144 0.00788128 0)
(1.04182 0.00771968 0)
(1.04219 0.00756394 0)
(1.04255 0.00741267 0)
(1.0429 0.00726454 0)
(1.04325 0.00711824 0)
(1.04358 0.00697253 0)
(1.04392 0.00682614 0)
(1.04424 0.00667786 0)
(1.04456 0.00652641 0)
(1.04488 0.00637058 0)
(1.04519 0.00620898 0)
(1.0455 0.00604041 0)
(1.04581 0.00586329 0)
(1.04612 0.00567644 0)
(1.04642 0.00547816 0)
(1.04672 0.00526726 0)
(1.04701 0.00504212 0)
(1.0473 0.00480138 0)
(1.04758 0.00454406 0)
(1.04786 0.00426791 0)
(1.04812 0.00397391 0)
(1.04836 0.0036573 0)
(1.04858 0.00332348 0)
(1.04876 0.00296516 0)
(1.04889 0.00259899 0)
(1.04892 0.00223262 0)
(1.04881 0.00192555 0)
(1.04851 0.00177349 0)
(1.00067 0.00923534 0)
(1.01031 0.0176809 0)
(1.02012 0.0164797 0)
(1.02503 0.0143874 0)
(1.0269 0.0138339 0)
(1.02841 0.013395 0)
(1.03001 0.0126333 0)
(1.03136 0.0119127 0)
(1.0324 0.0113684 0)
(1.03326 0.0109214 0)
(1.03402 0.0105161 0)
(1.03471 0.0101473 0)
(1.03533 0.00981648 0)
(1.03591 0.00951857 0)
(1.03644 0.00924725 0)
(1.03695 0.00899806 0)
(1.03742 0.0087679 0)
(1.03787 0.00855429 0)
(1.03831 0.00835499 0)
(1.03872 0.00816796 0)
(1.03912 0.00799137 0)
(1.03951 0.00782354 0)
(1.03988 0.0076629 0)
(1.04024 0.00750798 0)
(1.04059 0.00735739 0)
(1.04094 0.00720981 0)
(1.04127 0.00706394 0)
(1.0416 0.00691853 0)
(1.04193 0.00677232 0)
(1.04224 0.00662411 0)
(1.04256 0.00647262 0)
(1.04286 0.00631666 0)
(1.04317 0.00615486 0)
(1.04347 0.00598602 0)
(1.04377 0.00580865 0)
(1.04407 0.0056215 0)
(1.04436 0.00542304 0)
(1.04465 0.00521198 0)
(1.04494 0.00498694 0)
(1.04522 0.00474645 0)
(1.0455 0.0044898 0)
(1.04576 0.00421488 0)
(1.04602 0.0039227 0)
(1.04626 0.00360972 0)
(1.04647 0.00328067 0)
(1.04665 0.00293245 0)
(1.04677 0.00258029 0)
(1.04681 0.00224007 0)
(1.04673 0.00196772 0)
(1.04649 0.00186118 0)
(1.00058 0.00834467 0)
(1.00917 0.0166274 0)
(1.01837 0.0159809 0)
(1.02328 0.0140414 0)
(1.02523 0.0135031 0)
(1.02671 0.0131511 0)
(1.02827 0.0124674 0)
(1.02963 0.0117758 0)
(1.03067 0.0112443 0)
(1.03152 0.0108117 0)
(1.03227 0.0104194 0)
(1.03295 0.0100597 0)
(1.03357 0.00973512 0)
(1.03414 0.00944217 0)
(1.03467 0.00917494 0)
(1.03516 0.00892905 0)
(1.03563 0.00870157 0)
(1.03607 0.00849015 0)
(1.03649 0.00829269 0)
(1.0369 0.00810724 0)
(1.03729 0.007932 0)
(1.03767 0.00776534 0)
(1.03804 0.0076057 0)
(1.03839 0.00745164 0)
(1.03874 0.00730177 0)
(1.03907 0.00715478 0)
(1.0394 0.00700936 0)
(1.03972 0.00686427 0)
(1.04003 0.00671826 0)
(1.04034 0.00657013 0)
(1.04065 0.00641863 0)
(1.04095 0.00626254 0)
(1.04125 0.00610057 0)
(1.04154 0.00593148 0)
(1.04183 0.00575386 0)
(1.04212 0.00556644 0)
(1.04241 0.00536781 0)
(1.04269 0.00515662 0)
(1.04297 0.00493166 0)
(1.04324 0.00469147 0)
(1.04351 0.00443549 0)
(1.04377 0.00416185 0)
(1.04401 0.00387153 0)
(1.04424 0.00356217 0)
(1.04445 0.00323805 0)
(1.04462 0.00289957 0)
(1.04475 0.00256109 0)
(1.04479 0.00224445 0)
(1.04474 0.00200263 0)
(1.04455 0.00193248 0)
(1.0005 0.00753826 0)
(1.00813 0.0156028 0)
(1.01672 0.0154687 0)
(1.02161 0.0137025 0)
(1.02365 0.0131746 0)
(1.0251 0.012898 0)
(1.02662 0.0122943 0)
(1.02797 0.011636 0)
(1.02902 0.0111177 0)
(1.02987 0.0106993 0)
(1.03061 0.0103205 0)
(1.03128 0.00997028 0)
(1.0319 0.00965232 0)
(1.03246 0.00936451 0)