/*--------------------------------*- C++ -*----------------------------------*\
  =========                 |
  \\      /  F ield         | OpenFOAM: The Open Source CFD Toolbox
   \\    /   O peration     | Website:  https://openfoam.org
    \\  /    A nd           | Version:  7
     \\/     M anipulation  |
\*---------------------------------------------------------------------------*/
FoamFile
{
    version     2.0;
    format      ascii;
    class       volVectorField;
    location    "0.27";
    object      wallShearStress;
}
// * * * * * * * * * * * * * * * * * * * * * * * * * * * * * * * * * * * * * //

dimensions      [0 2 -2 0 0 0 0];

internalField   uniform (0 0 0);

boundaryField
{
    velocityInlet
    {
        type            calculated;
        value           uniform (0 0 0);
    }
    pressureOutlet
    {
        type            calculated;
        value           uniform (0 0 0);
    }
    fixedWalls
    {
        type            calculated;
        value           nonuniform List<vector> 
100
(
(-0.0196983 -0.00855751 0)
(0.00862576 -0.00151106 0)
(-0.000399101 0.000862403 0)
(-3.50992e-05 0.000353137 0)
(-0.00255412 0.000151608 0)
(0.000819041 -0.000747995 0)
(0.00819042 -0.00147505 0)
(0.0148657 -0.00105823 0)
(0.0152897 5.90948e-05 0)
(0.0109647 0.000796204 0)
(0.0051134 0.000845079 0)
(0.00021369 0.00059837 0)
(-0.00283558 0.000326066 0)
(-0.00431321 0.000129094 0)
(-0.00481601 2.82191e-05 0)
(-0.00482243 -1.5664e-05 0)
(-0.00461673 -3.13967e-05 0)
(-0.00434247 -3.38604e-05 0)
(-0.00406267 -3.16021e-05 0)
(-0.00380235 -2.78772e-05 0)
(-0.00357056 -2.38031e-05 0)
(-0.00336854 -2.00563e-05 0)
(-0.00319184 -1.73665e-05 0)
(-0.00303269 -1.61141e-05 0)
(-0.00288486 -1.58314e-05 0)
(-0.00274865 -1.53799e-05 0)
(-0.00263227 -1.35477e-05 0)
(-0.0025493 -9.93158e-06 0)
(-0.00251379 -5.55892e-06 0)
(-0.00253474 7.58503e-07 0)
(-0.00261548 7.082e-06 0)
(-0.00275842 1.3849e-05 0)
(-0.00296869 2.2006e-05 0)
(-0.00324282 2.91806e-05 0)
(-0.00354131 2.77153e-05 0)
(-0.00380779 1.73643e-05 0)
(-0.00408049 1.90272e-05 0)
(-0.00454188 5.27604e-05 0)
(-0.00530299 9.2864e-05 0)
(-0.00622165 0.000102971 0)
(-0.00719092 0.000117215 0)
(-0.00836367 0.000168975 0)
(-0.00963404 0.000199484 0)
(-0.010244 0.000140176 0)
(-0.0092816 -7.09408e-05 0)
(-0.00626439 -0.000372529 0)
(-0.00174299 -0.000558699 0)
(0.00286776 -0.000573802 0)
(0.00643414 -0.000450678 0)
(0.00836702 -0.000241042 0)
(0.00856889 -2.86724e-05 0)
(0.00738967 0.000130505 0)
(0.00538082 0.00021633 0)
(0.00308655 0.000236753 0)
(0.000898676 0.000218592 0)
(-0.000978245 0.000185098 0)
(-0.00247894 0.000148652 0)
(-0.00360426 0.000116395 0)
(-0.00434606 8.3894e-05 0)
(-0.00464229 4.68589e-05 0)
(-0.00439089 -1.06797e-05 0)
(-0.00354162 -7.48761e-05 0)
(-0.00213406 -0.000142985 0)
(-0.000351254 -0.000183036 0)
(0.00147331 -0.000192153 0)
(0.00302727 -0.00017077 0)
(0.00407506 -0.000120487 0)
(0.00443558 -5.02248e-05 0)
(0.003991 3.64117e-05 0)
(0.00279531 0.000113185 0)
(0.00112788 0.000156178 0)
(-0.00064431 0.000156467 0)
(-0.00222875 0.000140129 0)
(-0.00347223 0.000112957 0)
(-0.00429131 8.01468e-05 0)
(-0.00457297 3.78081e-05 0)
(-0.00415116 -3.52505e-05 0)
(-0.00291237 -0.000124378 0)
(-0.00106554 -0.000188504 0)
(0.000746388 -0.00017202 0)
(0.00169213 -8.31206e-05 0)
(0.0014257 3.70884e-05 0)
(0.000318666 9.70546e-05 0)
(-0.000981603 0.000106877 0)
(-0.00203571 8.04407e-05 0)
(-0.0026922 4.69166e-05 0)
(-0.00299694 2.03581e-05 0)
(-0.00306759 4.38186e-06 0)
(-0.00301055 -4.52231e-06 0)
(-0.00290915 -7.23237e-06 0)
(-0.00281214 -5.79734e-06 0)
(-0.00275024 -3.03414e-06 0)
(-0.00272872 1.08544e-06 0)
(-0.00274094 3.26127e-06 0)
(-0.00276987 5.62142e-06 0)
(-0.00277728 3.2503e-06 0)
(-0.00274805 4.18724e-07 0)
(-0.00261762 -6.92967e-06 0)
(-0.00252564 -8.22613e-06 0)
(-0.00216797 -1.53879e-05 0)
)
;
    }
    bottomWall
    {
        type            calculated;
        value           nonuniform List<vector> 
800
(
(-0.0353488 0.00214397 0)
(-0.0160267 0.000524829 0)
(-0.010608 0.00010071 0)
(-0.00845634 3.5253e-05 0)
(-0.00748681 1.98526e-05 0)
(-0.00685341 1.61134e-05 0)
(-0.00634608 1.33485e-05 0)
(-0.00593509 1.08926e-05 0)
(-0.00560047 9.07133e-06 0)
(-0.00532176 7.7553e-06 0)
(-0.00508441 6.75879e-06 0)
(-0.00487896 5.97144e-06 0)
(-0.00469894 5.33344e-06 0)
(-0.00453963 4.80735e-06 0)
(-0.00439745 4.36745e-06 0)
(-0.00426962 3.99519e-06 0)
(-0.00415394 3.67667e-06 0)
(-0.00404867 3.40156e-06 0)
(-0.0039524 3.16192e-06 0)
(-0.00386395 2.95157e-06 0)
(-0.00378238 2.76579e-06 0)
(-0.00370686 2.60068e-06 0)
(-0.00363673 2.45313e-06 0)
(-0.0035714 2.32065e-06 0)
(-0.00351037 2.20107e-06 0)
(-0.00345323 2.09263e-06 0)
(-0.00339959 1.994e-06 0)
(-0.00334914 1.90401e-06 0)
(-0.00330159 1.82143e-06 0)
(-0.0032567 1.74557e-06 0)
(-0.00321424 1.67579e-06 0)
(-0.00317401 1.61111e-06 0)
(-0.00313585 1.55117e-06 0)
(-0.00309959 1.49564e-06 0)
(-0.0030651 1.44387e-06 0)
(-0.00303224 1.39561e-06 0)
(-0.00300091 1.35048e-06 0)
(-0.002971 1.30823e-06 0)
(-0.00294241 1.26867e-06 0)
(-0.00291506 1.23155e-06 0)
(-0.00288886 1.19658e-06 0)
(-0.00286376 1.16356e-06 0)
(-0.00283968 1.13247e-06 0)
(-0.00281656 1.10319e-06 0)
(-0.00279434 1.07562e-06 0)
(-0.00277297 1.0491e-06 0)
(-0.00275241 1.02442e-06 0)
(-0.00273262 1.00032e-06 0)
(-0.00271353 9.78533e-07 0)
(-0.00269516 9.55332e-07 0)
(-0.00267979 9.36472e-07 0)
(-0.0026671 9.25684e-07 0)
(-0.00265457 9.1172e-07 0)
(-0.00264225 8.97069e-07 0)
(-0.0026301 8.83411e-07 0)
(-0.00261814 8.70165e-07 0)
(-0.00260637 8.57298e-07 0)
(-0.00259476 8.44832e-07 0)
(-0.00258332 8.32627e-07 0)
(-0.00257204 8.20678e-07 0)
(-0.00256093 8.09146e-07 0)
(-0.00254997 7.97689e-07 0)
(-0.00253916 7.86473e-07 0)
(-0.00252851 7.75663e-07 0)
(-0.002518 7.65089e-07 0)
(-0.00250763 7.54584e-07 0)
(-0.00249741 7.44309e-07 0)
(-0.00248732 7.34431e-07 0)
(-0.00247737 7.24614e-07 0)
(-0.00246755 7.15024e-07 0)
(-0.00245786 7.05824e-07 0)
(-0.00244829 6.9668e-07 0)
(-0.00243885 6.87589e-07 0)
(-0.00242952 6.78717e-07 0)
(-0.00242032 6.70064e-07 0)
(-0.00241124 6.61793e-07 0)
(-0.00240226 6.5357e-07 0)
(-0.0023934 6.45227e-07 0)
(-0.00238465 6.37262e-07 0)
(-0.00237601 6.29508e-07 0)
(-0.00236747 6.21798e-07 0)
(-0.00235904 6.14294e-07 0)
(-0.00235071 6.07e-07 0)
(-0.00234247 5.99744e-07 0)
(-0.00233434 5.92527e-07 0)
(-0.0023263 5.85514e-07 0)
(-0.00231836 5.78706e-07 0)
(-0.00231051 5.721e-07 0)
(-0.00230274 5.65363e-07 0)
(-0.00229507 5.58827e-07 0)
(-0.00228749 5.52491e-07 0)
(-0.00227999 5.46188e-07 0)
(-0.00227258 5.40252e-07 0)
(-0.00226525 5.34179e-07 0)
(-0.002258 5.28138e-07 0)
(-0.00225083 5.22294e-07 0)
(-0.00224374 5.16478e-07 0)
(-0.00223673 5.11025e-07 0)
(-0.00222979 5.056e-07 0)
(-0.00222293 5.00036e-07 0)
(-0.00221614 4.94665e-07 0)
(-0.00220943 4.8932e-07 0)
(-0.00220279 4.84167e-07 0)
(-0.00219621 4.79207e-07 0)
(-0.00218971 4.74103e-07 0)
(-0.00218327 4.69191e-07 0)
(-0.0021769 4.64469e-07 0)
(-0.00217059 4.5977e-07 0)
(-0.00216435 4.55094e-07 0)
(-0.00215817 4.50439e-07 0)
(-0.00215205 4.45808e-07 0)
(-0.002146 4.41364e-07 0)
(-0.00214 4.37109e-07 0)
(-0.00213407 4.32874e-07 0)
(-0.00212819 4.28495e-07 0)
(-0.00212237 4.24301e-07 0)
(-0.0021166 4.20461e-07 0)
(-0.00211089 4.16308e-07 0)
(-0.00210524 4.12341e-07 0)
(-0.00209964 4.08559e-07 0)
(-0.00209409 4.04629e-07 0)
(-0.00208859 4.00885e-07 0)
(-0.00208314 3.97158e-07 0)
(-0.00207775 3.93449e-07 0)
(-0.00207241 3.89924e-07 0)
(-0.00206711 3.86415e-07 0)
(-0.00206186 3.82924e-07 0)
(-0.00205666 3.79449e-07 0)
(-0.0020515 3.76158e-07 0)
(-0.00204639 3.7288e-07 0)
(-0.00204133 3.69451e-07 0)
(-0.00203631 3.6637e-07 0)
(-0.00203133 3.63305e-07 0)
(-0.00202639 3.60085e-07 0)
(-0.0020215 3.57047e-07 0)
(-0.00201665 3.54018e-07 0)
(-0.00201184 3.51007e-07 0)
(-0.00200707 3.48006e-07 0)
(-0.00200235 3.45188e-07 0)
(-0.00199766 3.42374e-07 0)
(-0.00199301 3.39585e-07 0)
(-0.00198839 3.36788e-07 0)
(-0.00198382 3.34034e-07 0)
(-0.00197928 3.3141e-07 0)
(-0.00197478 3.28865e-07 0)
(-0.00197031 3.26232e-07 0)
(-0.00196588 3.23581e-07 0)
(-0.00196149 3.20916e-07 0)
(-0.00195713 3.18654e-07 0)
(-0.0019528 3.16008e-07 0)
(-0.00194917 3.13318e-07 0)
(-0.0019462 3.12273e-07 0)
(-0.00194322 3.10751e-07 0)
(-0.00194025 3.08893e-07 0)
(-0.00193726 3.07335e-07 0)
(-0.00193427 3.05564e-07 0)
(-0.00193128 3.04045e-07 0)
(-0.00192828 3.023e-07 0)
(-0.00192528 3.00563e-07 0)
(-0.00192227 2.99063e-07 0)
(-0.00191926 2.97571e-07 0)
(-0.00191624 2.95863e-07 0)
(-0.00191322 2.94168e-07 0)
(-0.00191019 2.92694e-07 0)
(-0.00190716 2.91229e-07 0)
(-0.00190412 2.89555e-07 0)
(-0.00190108 2.87889e-07 0)
(-0.00189803 2.86232e-07 0)
(-0.00189499 2.84794e-07 0)
(-0.00189193 2.83365e-07 0)
(-0.00188887 2.8173e-07 0)
(-0.00188581 2.80104e-07 0)
(-0.00188274 2.78492e-07 0)
(-0.00187967 2.77085e-07 0)
(-0.0018766 2.75692e-07 0)
(-0.00187351 2.74099e-07 0)
(-0.00187043 2.72515e-07 0)
(-0.00186734 2.70941e-07 0)
(-0.00186425 2.69571e-07 0)
(-0.00186115 2.68209e-07 0)
(-0.00185804 2.66467e-07 0)
(-0.00185494 2.65113e-07 0)
(-0.00185182 2.63776e-07 0)
(-0.00184871 2.62247e-07 0)
(-0.00184559 2.6073e-07 0)
(-0.00184246 2.59219e-07 0)
(-0.00183934 2.57906e-07 0)
(-0.0018362 2.56597e-07 0)
(-0.00183306 2.55115e-07 0)
(-0.00182992 2.5345e-07 0)
(-0.00182678 2.52164e-07 0)
(-0.00182362 2.50882e-07 0)
(-0.00182047 2.49427e-07 0)
(-0.00181731 2.48158e-07 0)
(-0.00181414 2.46722e-07 0)
(-0.00181098 2.45291e-07 0)
(-0.0018078 2.4387e-07 0)
(-0.00180463 2.42629e-07 0)
(-0.00180144 2.41231e-07 0)
(-0.00179827 2.39829e-07 0)
(-0.00179507 2.38616e-07 0)
(-0.00179188 2.37402e-07 0)
(-0.00178868 2.36034e-07 0)
(-0.00178548 2.34671e-07 0)
(-0.00178227 2.33483e-07 0)
(-0.00177905 2.32139e-07 0)
(-0.00177584 2.30803e-07 0)
(-0.00177262 2.29473e-07 0)
(-0.0017694 2.28315e-07 0)
(-0.00176616 2.27159e-07 0)
(-0.00176293 2.25853e-07 0)
(-0.00175969 2.24553e-07 0)
(-0.00175645 2.23414e-07 0)
(-0.0017532 2.22285e-07 0)
(-0.00174994 2.21009e-07 0)
(-0.00174669 2.19737e-07 0)
(-0.00174342 2.18625e-07 0)
(-0.00174015 2.17366e-07 0)
(-0.00173689 2.16117e-07 0)
(-0.00173361 2.15021e-07 0)
(-0.00173033 2.13785e-07 0)
(-0.00172705 2.12704e-07 0)
(-0.00172375 2.11623e-07 0)
(-0.00172046 2.10421e-07 0)
(-0.00171716 2.09347e-07 0)
(-0.00171385 2.0818e-07 0)
(-0.00171054 2.07098e-07 0)
(-0.00170722 2.06131e-07 0)
(-0.0017039 2.04996e-07 0)
(-0.00170057 2.04022e-07 0)
(-0.00169724 2.0273e-07 0)
(-0.0016939 2.02189e-07 0)
(-0.00169056 2.00769e-07 0)
(-0.00168719 2.00651e-07 0)
(-0.00168385 1.98359e-07 0)
(-0.00168045 1.99584e-07 0)
(-0.00167712 1.95549e-07 0)
(-0.00167365 1.99715e-07 0)
(-0.00167038 1.91442e-07 0)
(-0.00166678 2.02164e-07 0)
(-0.00166365 1.84039e-07 0)
(-0.00165981 2.09846e-07 0)
(-0.00165697 1.69968e-07 0)
(-0.00165265 2.2774e-07 0)
(-0.00165039 1.42543e-07 0)
(-0.00164522 2.64476e-07 0)
(-0.00164399 9.04382e-08 0)
(-0.00163749 3.29807e-07 0)
(-0.00163776 7.5136e-09 0)
(-0.00162952 3.63286e-07 0)
(-0.0353488 -0.00214398 0)
(-0.0160265 -0.000524832 0)
(-0.0106078 -0.000100711 0)
(-0.00845615 -3.52525e-05 0)
(-0.00748674 -1.98497e-05 0)
(-0.00685354 -1.61081e-05 0)
(-0.00634652 -1.33409e-05 0)
(-0.00593589 -1.08833e-05 0)
(-0.00560166 -9.06107e-06 0)
(-0.00532335 -7.74471e-06 0)
(-0.00508637 -6.74832e-06 0)
(-0.00488127 -5.96128e-06 0)
(-0.00470159 -5.3234e-06 0)
(-0.00454259 -4.79727e-06 0)
(-0.00440072 -4.357e-06 0)
(-0.00427321 -3.98358e-06 0)
(-0.00415789 -3.66308e-06 0)
(-0.00405305 -3.38528e-06 0)
(-0.00395729 -3.14212e-06 0)
(-0.00386946 -2.92727e-06 0)
(-0.00378864 -2.73588e-06 0)
(-0.00371405 -2.5641e-06 0)
(-0.00364502 -2.40881e-06 0)
(-0.003581 -2.26737e-06 0)
(-0.00352153 -2.13762e-06 0)
(-0.0034662 -2.01789e-06 0)
(-0.00341468 -1.90638e-06 0)
(-0.00336667 -1.80204e-06 0)
(-0.00332191 -1.70366e-06 0)
(-0.0032802 -1.6103e-06 0)
(-0.00324136 -1.52085e-06 0)
(-0.00320522 -1.43501e-06 0)
(-0.00317167 -1.35136e-06 0)
(-0.00314059 -1.27068e-06 0)
(-0.00311188 -1.19045e-06 0)
(-0.00308551 -1.11296e-06 0)
(-0.00306132 -1.03445e-06 0)
(-0.00303945 -9.58694e-07 0)
(-0.0030195 -8.80937e-07 0)
(-0.00300213 -8.04547e-07 0)
(-0.00298603 -7.29316e-07 0)
(-0.00297357 -6.39609e-07 0)
(-0.00296049 -5.77163e-07 0)
(-0.00295454 -4.2262e-07 0)
(-0.00294229 -4.1096e-07 0)
(-0.00294825 2.80396e-09 0)
(-0.00293116 -1.6637e-07 0)
(-0.00296444 1.57658e-06 0)
(-0.00294437 -4.56008e-06 0)
(-0.00281046 0.000197971 0)
(-3.71385e-05 2.36765e-05 0)
(-2.54922e-05 5.53136e-05 0)
(-4.39317e-05 6.92912e-05 0)
(-7.83829e-05 0.000141377 0)
(-9.02856e-05 0.000270745 0)
(-8.2094e-05 0.000407517 0)
(-8.67556e-05 0.000526224 0)
(-0.000120313 0.000669774 0)
(-0.000177935 0.000888976 0)
(-0.000235749 0.00118572 0)
(-0.000239759 0.00149341 0)
(-0.000156434 0.00170449 0)
(-1.33059e-05 0.00173955 0)
(0.00013172 0.00158921 0)
(0.000244141 0.00130003 0)
(0.000317762 0.000916956 0)
(0.000353961 0.000486938 0)
(0.000359071 4.64449e-05 0)
(0.000346465 -0.000379954 0)
(0.000321679 -0.000778423 0)
(0.000290835 -0.00114106 0)
(0.000258079 -0.00146541 0)
(0.000225955 -0.00175228 0)
(0.000195737 -0.0020041 0)
(0.000167887 -0.00222394 0)
(0.000142393 -0.00241489 0)
(0.000119003 -0.00257976 0)
(9.7376e-05 -0.00272096 0)
(7.72048e-05 -0.00284045 0)
(5.82642e-05 -0.0029399 0)
(4.04049e-05 -0.00302072 0)
(2.35344e-05 -0.00308415 0)
(7.62346e-06 -0.00313133 0)
(-7.43394e-06 -0.00316341 0)
(-2.16878e-05 -0.0031813 0)
(-3.54464e-05 -0.00318633 0)
(-4.91665e-05 -0.0031786 0)
(-6.2511e-05 -0.00315915 0)
(-7.53743e-05 -0.00312888 0)
(-8.79962e-05 -0.0030884 0)
(-0.000100661 -0.00303812 0)
(-0.000113593 -0.00297831 0)
(-0.000126953 -0.00290904 0)
(-0.000140762 -0.00283022 0)
(-0.000154846 -0.00274168 0)
(-0.00016887 -0.00264336 0)
(-0.000182382 -0.00253532 0)
(-0.000194826 -0.00241783 0)
(-0.000205625 -0.00229147 0)
(-0.000214323 -0.00215712 0)
(-0.000220668 -0.00201591 0)
(-0.000224605 -0.0018691 0)
(-0.00022624 -0.00171806 0)
(-0.000225755 -0.00156412 0)
(-0.000223406 -0.00140865 0)
(-0.000219459 -0.00125282 0)
(-0.000214185 -0.00109776 0)
(-0.000207839 -0.000944468 0)
(-0.00020086 -0.000793856 0)
(-0.000194064 -0.000647047 0)
(-0.000188776 -0.000505347 0)
(-0.00018935 -0.000371918 0)
(-0.000211106 -0.000250642 0)
(-0.000289042 -0.00011009 0)
(-0.000352824 0.000133176 0)
(-0.000216109 0.00040194 0)
(3.74976e-05 0.000541228 0)
(0.000265357 0.000562877 0)
(0.00041606 0.000518322 0)
(0.00047202 0.00044091 0)
(0.000419044 0.000354279 0)
(0.000270571 0.000291788 0)
(5.73214e-05 0.000290067 0)
(-0.000124807 0.000356669 0)
(-0.000197546 0.000430718 0)
(-0.000186703 0.000453501 0)
(-0.000172254 0.000436154 0)
(-0.000177819 0.000432266 0)
(-0.000161687 0.000462796 0)
(-0.00010733 0.00050303 0)
(-3.5208e-05 0.000526298 0)
(2.55159e-05 0.000527126 0)
(5.51096e-05 0.000517921 0)
(5.65747e-05 0.000517763 0)
(4.74944e-05 0.000529172 0)
(4.0144e-05 0.000541181 0)
(3.70641e-05 0.000544008 0)
(3.4916e-05 0.00053517 0)
(2.9171e-05 0.000520181 0)
(2.0636e-05 0.0005077 0)
(1.63591e-05 0.000499985 0)
(1.91326e-05 0.000492579 0)
(2.68693e-05 0.000481715 0)
(3.65468e-05 0.000465833 0)
(4.58632e-05 0.000445015 0)
(5.49261e-05 0.000419929 0)
(6.51687e-05 0.000389898 0)
(7.70338e-05 0.000353468 0)
(8.9758e-05 0.000309705 0)
(0.000101405 0.000258616 0)
(0.000109551 0.000201748 0)
(0.000112309 0.000142 0)
(0.000108937 8.28792e-05 0)
(9.91972e-05 2.78158e-05 0)
(8.47859e-05 -1.92931e-05 0)
(6.72748e-05 -5.68189e-05 0)
(4.8253e-05 -8.394e-05 0)
(2.95068e-05 -0.000100297 0)
(1.19721e-05 -0.00010621 0)
(-6.60522e-07 -0.000112742 0)
(-9.20582e-06 -0.000106141 0)
(-1.55977e-05 -8.92193e-05 0)
(-2.04796e-05 -7.09389e-05 0)
(-2.39746e-05 -5.28717e-05 0)
(-2.58425e-05 -3.56497e-05 0)
(-2.56917e-05 -2.03942e-05 0)
(-2.43986e-05 -8.14804e-06 0)
(-2.38146e-05 1.4116e-06 0)
(-2.53859e-05 1.00022e-05 0)
(-2.95812e-05 1.95457e-05 0)
(-3.62902e-05 3.14268e-05 0)
(-4.52616e-05 4.64386e-05 0)
(-5.6286e-05 6.49272e-05 0)
(-6.93289e-05 8.71866e-05 0)
(-8.40052e-05 0.000113159 0)
(-9.97044e-05 0.000142935 0)
(-0.000115322 0.000176496 0)
(-0.000129499 0.000213558 0)
(-0.00014102 0.000253608 0)
(-0.000149118 0.000296107 0)
(-0.000153603 0.0003407 0)
(-0.000154655 0.000387191 0)
(-0.000152704 0.000435175 0)
(-0.000148528 0.000483892 0)
(-0.000143324 0.000532546 0)
(-0.000138298 0.000580656 0)
(-0.000134159 0.000628049 0)
(-0.000130901 0.000674598 0)
(-0.000127923 0.000719973 0)
(-0.000124348 0.000763541 0)
(-0.000119345 0.000804444 0)
(-0.000112347 0.000841756 0)
(-0.000103125 0.000874639 0)
(-9.17531e-05 0.000902459 0)
(-7.85272e-05 0.000924828 0)
(-6.38577e-05 0.000941588 0)
(-4.81395e-05 0.000952771 0)
(-3.1691e-05 0.000958526 0)
(-1.47254e-05 0.000959056 0)
(2.44814e-06 0.000954484 0)
(1.94829e-05 0.000945095 0)
(3.61972e-05 0.000931206 0)
(5.245e-05 0.000913145 0)
(6.81192e-05 0.000891233 0)
(8.30965e-05 0.000865788 0)
(9.72846e-05 0.000837114 0)
(0.000110594 0.000805511 0)
(0.000122946 0.000771274 0)
(0.000134268 0.000734695 0)
(0.000144493 0.000696046 0)
(0.000153543 0.000655596 0)
(0.000161582 0.000614555 0)
(0.000168394 0.000572375 0)
(0.000173917 0.000529254 0)
(0.000178087 0.000485416 0)
(0.000180835 0.000441094 0)
(0.000182094 0.000396526 0)
(0.000181794 0.000351956 0)
(0.00017987 0.000307645 0)
(0.000176267 0.000263875 0)
(0.000170949 0.000220955 0)
(0.000163906 0.000179223 0)
(0.000155174 0.000139048 0)
(0.000144839 0.000100822 0)
(0.00013305 6.49491e-05 0)
(0.000120032 3.18385e-05 0)
(0.00010609 1.87876e-06 0)
(9.1607e-05 -2.4584e-05 0)
(7.70415e-05 -4.72818e-05 0)
(6.28965e-05 -6.60475e-05 0)
(4.96989e-05 -8.0824e-05 0)
(3.79944e-05 -9.16891e-05 0)
(2.85459e-05 -9.97205e-05 0)
(2.14468e-05 -0.000104664 0)
(1.70658e-05 -0.000106974 0)
(1.5667e-05 -0.000107204 0)
(1.73837e-05 -0.000105981 0)
(2.22069e-05 -0.000103982 0)
(2.99705e-05 -0.000101961 0)
(4.03048e-05 -0.000100803 0)
(5.25417e-05 -0.0001016 0)
(6.61394e-05 -0.000106742 0)
(7.88791e-05 -0.000117731 0)
(8.70277e-05 -0.000138046 0)
(8.43847e-05 -0.000174208 0)
(6.15789e-05 -0.000239066 0)
(1.46505e-06 -0.000354391 0)
(-0.000128977 -0.000550346 0)
(-0.000375572 -0.000852083 0)
(-0.000736184 -0.001238 0)
(-1.03648e-06 4.29686e-05 0)
(-4.27408e-05 3.43458e-05 0)
(-5.5015e-05 1.18992e-05 0)
(-4.83e-05 -7.81513e-06 0)
(-3.53654e-05 -1.56561e-05 0)
(-2.81228e-05 -1.15289e-05 0)
(-3.22336e-05 -1.13847e-06 0)
(-4.78239e-05 1.03654e-05 0)
(-7.34626e-05 2.02902e-05 0)
(-0.000107174 2.49041e-05 0)
(-0.000142959 2.01469e-05 0)
(-0.000169508 5.88351e-06 0)
(-0.000176033 -9.25254e-06 0)
(-0.000164298 -1.45788e-05 0)
(-0.000146743 -7.33096e-06 0)
(-0.000137602 8.24078e-06 0)
(-0.000143911 2.9439e-05 0)
(-0.000175424 5.44525e-05 0)
(-0.000227528 7.22599e-05 0)
(-0.000302306 8.89535e-05 0)
(-0.00038714 7.09487e-05 0)
(-0.000420697 6.33211e-05 0)
(-0.000499181 7.99806e-05 0)
(-0.000556695 -2.24632e-05 0)
(-0.000507238 -0.000114579 0)
(-0.000493472 -0.000106928 0)
(-0.00050365 -0.000158368 0)
(-0.000396363 -0.000111188 0)
(-0.000322294 0.00010343 0)
(-0.000374739 0.000238946 0)
(-0.000459026 0.00018998 0)
(-0.000432106 3.82726e-05 0)
(-0.000278547 -5.15539e-06 0)
(-0.000147068 6.43053e-06 0)
(-2.34381e-05 -6.54322e-05 0)
(0.000160381 -0.000192833 0)
(0.000410003 -0.000318357 0)
(0.000691658 -0.000390278 0)
(0.000957306 -0.000389891 0)
(0.00117109 -0.00033814 0)
(0.00132541 -0.00026626 0)
(0.00143028 -0.000194474 0)
(0.00149312 -0.000131627 0)
(0.00152422 -8.21609e-05 0)
(0.00153275 -4.64669e-05 0)
(0.00152485 -2.02315e-05 0)
(0.00150457 2.0618e-06 0)
(0.00147102 2.33689e-05 0)
(0.00142277 4.59657e-05 0)
(0.00135635 7.26132e-05 0)
(0.0012665 0.000104277 0)
(0.00114934 0.00014092 0)
(0.00100006 0.000181522 0)
(0.000815572 0.000223669 0)
(0.00059431 0.00026323 0)
(0.00033719 0.000292986 0)
(6.00015e-05 0.000309145 0)
(-0.00022349 0.000312534 0)
(-0.000502431 0.000298987 0)
(-0.000760667 0.000265474 0)
(-0.000982625 0.000217475 0)
(-0.00115858 0.000159048 0)
(-0.00128177 9.4188e-05 0)
(-0.00134973 2.80415e-05 0)
(-0.00136548 -3.56205e-05 0)
(-0.00134632 -9.4427e-05 0)
(-0.00129441 -0.000146184 0)
(-0.00120132 -0.000187447 0)
(-0.00107771 -0.000218195 0)
(-0.000932279 -0.000240403 0)
(-0.000770332 -0.000256975 0)
(-0.000593703 -0.000270413 0)
(-0.000401224 -0.000280996 0)
(-0.000196382 -0.000288836 0)
(2.00262e-05 -0.000297309 0)
(0.000265253 -0.000298642 0)
(0.000537061 -0.000245533 0)
(0.00076777 -8.3154e-05 0)
(0.0008078 0.000169072 0)
(0.000624249 0.000360241 0)
(0.000352196 0.000364436 0)
(0.000179777 0.000203105 0)
(0.000184999 -2.09586e-05 0)
(0.000338072 -0.000185838 0)
(0.000513395 -0.000211598 0)
(0.000631093 -0.000155463 0)
(0.00069321 -9.75411e-05 0)
(0.000710245 -4.0417e-05 0)
(0.000688327 1.06367e-05 0)
(0.000635998 5.14167e-05 0)
(0.00055799 8.49152e-05 0)
(0.000460399 0.000107945 0)
(0.000351068 0.000121994 0)
(0.000234722 0.000127496 0)
(0.000117107 0.000123091 0)
(3.74679e-06 0.000104545 0)
(-9.20865e-05 6.61837e-05 0)
(-0.000143482 -2.13661e-06 0)
(-0.000114824 -6.75396e-05 0)
(-7.2116e-06 -8.46557e-05 0)
(-8.2769e-05 -3.77874e-05 0)
(-7.69256e-05 -0.000163232 0)
(-5.90711e-05 -0.00024419 0)
(-5.31171e-05 -0.00029115 0)
(-6.0609e-05 -0.000328461 0)
(-7.84648e-05 -0.000374411 0)
(-9.71916e-05 -0.000446664 0)
(-0.000105369 -0.000551856 0)
(-9.17564e-05 -0.000678055 0)
(-4.82667e-05 -0.000791197 0)
(7.59421e-06 -0.000850964 0)
(4.81726e-05 -0.000851179 0)
(6.35109e-05 -0.000816486 0)
(6.08651e-05 -0.000774375 0)
(5.13905e-05 -0.000736515 0)
(3.84789e-05 -0.000707368 0)
(2.0023e-05 -0.000692981 0)
(-6.92401e-06 -0.00070338 0)
(-3.46781e-05 -0.000748001 0)
(-4.91908e-05 -0.000821582 0)
(-3.66184e-05 -0.00090441 0)
(7.67311e-06 -0.00096625 0)
(7.49749e-05 -0.000970753 0)
(0.000139923 -0.000894851 0)
(0.000179815 -0.000749387 0)
(0.000192715 -0.000562416 0)
(0.000186875 -0.000363714 0)
(0.000168224 -0.000174797 0)
(0.000137253 -6.58392e-06 0)
(9.71981e-05 0.000136439 0)
(5.09411e-05 0.000253713 0)
(-4.83235e-06 0.000294652 0)
(-6.06186e-05 0.000250508 0)
(-0.000116979 0.000180795 0)
(-0.000172592 6.42456e-05 0)
(-0.000200175 -0.000101853 0)
(-0.000208257 -0.00022563 0)
(-0.000211042 -0.000322 0)
(-0.000121848 -0.000469725 0)
(0.00010579 -0.000525957 0)
(0.000253366 -0.000526547 0)
(0.000455785 -0.000552734 0)
(0.000658822 -0.000389505 0)
(0.00042044 -4.60758e-05 0)
(-0.000241447 5.27942e-05 0)
(-0.000753884 -0.000132753 0)
(-0.000924514 -0.000375154 0)
(-0.000839239 -0.000574208 0)
(-0.000520878 -0.000673619 0)
(-5.79012e-05 -0.000671255 0)
(0.000561911 -0.000371358 0)
(0.00083712 0.000267038 0)
(0.000538991 0.000683758 0)
(0.000344498 0.000850143 0)
(0.000294254 0.00100654 0)
(0.000257483 0.00117525 0)
(0.000244463 0.00132408 0)
(0.000241514 0.00147029 0)
(0.000242145 0.00160634 0)
(0.000242413 0.00173588 0)
(0.000236943 0.00185573 0)
(0.000222952 0.00196486 0)
(0.000200063 0.00206028 0)
(0.000170749 0.00214067 0)
(0.000139266 0.00220559 0)
(0.00011007 0.00225689 0)
(8.61588e-05 0.0022976 0)
(6.83619e-05 0.00233106 0)
(5.58326e-05 0.00235988 0)
(4.71062e-05 0.00238566 0)
(4.09147e-05 0.00240912 0)
(3.65399e-05 0.0024307 0)
(3.3594e-05 0.00245079 0)
(3.17246e-05 0.00246973 0)
(3.04848e-05 0.00248774 0)
(2.9502e-05 0.00250476 0)
(2.85532e-05 0.00252072 0)
(2.74349e-05 0.00253549 0)
(2.59651e-05 0.00254884 0)
(2.39984e-05 0.00256052 0)
(2.14006e-05 0.00257024 0)
(1.80014e-05 0.00257767 0)
(1.3595e-05 0.00258235 0)
(7.95927e-06 0.00258374 0)
(7.61502e-07 0.0025811 0)
(-8.13574e-06 0.00257354 0)
(-1.89958e-05 0.00256012 0)
(-3.22415e-05 0.00253958 0)
(-4.84285e-05 0.00251031 0)
(-6.82234e-05 0.00247029 0)
(-9.2219e-05 0.00241692 0)
(-0.000120705 0.00234717 0)
(-0.00015324 0.00225756 0)
(-0.000187799 0.00214461 0)
(-0.000219677 0.00200577 0)
(-0.000240444 0.00184112 0)
(-0.000238213 0.0016589 0)
(-0.00019849 0.00147019 0)
(-0.000110744 0.00129466 0)
(1.95086e-05 0.00115966 0)
(0.000161519 0.00108485 0)
(0.000273592 0.00107312 0)
(0.000336237 0.00110836 0)
(0.000367948 0.00120182 0)
(0.000360937 0.00145831 0)
(0.000197352 0.00191825 0)
(-0.000158654 0.00234462 0)
(-0.000341453 0.00237017 0)
(0.000330737 0.00197847 0)
(0.00227117 0.00214708 0)
(0.004238 0.0041947 0)
(0.00407838 0.00690907 0)
(0.00280105 0.00793224 0)
(0.00250364 0.00821643 0)
(0.00227889 0.00907932 0)
(0.00169492 0.00965177 0)
(0.00141866 0.00991391 0)
(0.00112864 0.0102657 0)
(0.000803323 0.0104398 0)
(0.000599594 0.010531 0)
(0.000377161 0.0106218 0)
(0.000192545 0.0106358 0)
(4.79542e-05 0.0106221 0)
(-8.71437e-05 0.0105722 0)
(-0.000190836 0.0104908 0)
(-0.000285227 0.0103932 0)
(-0.000365918 0.0102701 0)
(-0.000431944 0.0101329 0)
(-0.000491214 0.00998223 0)
(-0.000540071 0.00981858 0)
(-0.000582006 0.00964718 0)
(-0.000618161 0.00946763 0)
(-0.000648307 0.00928239 0)
(-0.000674399 0.00909301 0)
(-0.000696522 0.00890002 0)
(-0.000715381 0.00870489 0)
(-0.00073172 0.00850819 0)
(-0.000745775 0.00831052 0)
(-0.000758101 0.00811253 0)
(-0.00076903 0.00791447 0)
(-0.000778827 0.00771673 0)
(-0.000787795 0.00751951 0)
(-0.000796122 0.00732297 0)
(-0.000803978 0.00712722 0)
(-0.000811514 0.00693235 0)
(-0.000818828 0.00673837 0)
(-0.000825978 0.00654535 0)
(-0.000833038 0.0063533 0)
(-0.000840031 0.00616222 0)
(-0.000846965 0.00597215 0)
(-0.000853867 0.00578312 0)
(-0.000860733 0.00559513 0)
(-0.000867575 0.00540826 0)
(-0.000874408 0.00522252 0)
(-0.000881258 0.005038 0)
(-0.000888181 0.00485472 0)
(-0.000895221 0.00467272 0)
(-0.000902449 0.00449206 0)
(-0.000909958 0.00431276 0)
(-0.000917852 0.00413483 0)
(-0.000926255 0.00395827 0)
(-0.000935319 0.00378305 0)
(-0.000945185 0.0036091 0)
(-0.000956012 0.00343636 0)
(-0.000967975 0.00326472 0)
(-0.000981231 0.00309405 0)
(-0.000995972 0.0029242 0)
(-0.00101239 0.00275497 0)
(-0.00103068 0.00258612 0)
(-0.001051 0.00241736 0)
(-0.00107345 0.00224833 0)
(-0.00109795 0.00207874 0)
(-0.00112453 0.00190841 0)
(-0.00115361 0.00173705 0)
(-0.00118565 0.00156393 0)
(-0.00122584 0.00139514 0)
(-0.00129433 0.00124962 0)
(-0.00137348 0.00109962 0)
(-0.00146277 0.000939642 0)
(-0.00155775 0.000765521 0)
(-0.00165242 0.000575626 0)
(-0.0017416 0.000371584 0)
(-0.0018218 0.00015778 0)
(-0.00189115 -5.96348e-05 0)
(-0.00195374 -0.000274986 0)
(-0.00201713 -0.000485596 0)
(-0.00208824 -0.000691691 0)
(-0.00217227 -0.000897292 0)
(-0.00230312 -0.00112151 0)
(-0.00247295 -0.00136448 0)
(-0.00266276 -0.0016195 0)
(-0.00287414 -0.00188227 0)
(-0.00311292 -0.00216762 0)
(-0.0033757 -0.00244668 0)
(-0.00368232 -0.00278606 0)
(-0.00400259 -0.00305155 0)
(-0.00440827 -0.00351755 0)
(-0.00475119 -0.00364473 0)
(-0.00526598 -0.00445516 0)
(-0.00526194 -0.00393225 0)
)
;
    }
    frontAndBack
    {
        type            empty;
    }
}


// ************************************************************************* //
