/*--------------------------------*- C++ -*----------------------------------*\
  =========                 |
  \\      /  F ield         | OpenFOAM: The Open Source CFD Toolbox
   \\    /   O peration     | Website:  https://openfoam.org
    \\  /    A nd           | Version:  7
     \\/     M anipulation  |
\*---------------------------------------------------------------------------*/
FoamFile
{
    version     2.0;
    format      ascii;
    class       volScalarField;
    location    "0.27";
    object      yPlus;
}
// * * * * * * * * * * * * * * * * * * * * * * * * * * * * * * * * * * * * * //

dimensions      [0 0 0 0 0 0 0];

internalField   uniform 0;

boundaryField
{
    velocityInlet
    {
        type            calculated;
        value           uniform 0;
    }
    pressureOutlet
    {
        type            calculated;
        value           uniform 0;
    }
    fixedWalls
    {
        type            calculated;
        value           nonuniform List<scalar> 
100
(
2.3375
1.42708
0.382148
0.226445
0.788018
0.471724
1.42191
1.90821
1.93362
1.63886
1.12186
0.284472
0.832989
1.02797
1.08668
1.0876
1.06423
1.03217
0.998373
0.965861
0.935958
0.909091
0.884919
0.862566
0.841277
0.821179
0.803615
0.790854
0.785336
0.788609
0.801069
0.822675
0.853461
0.891968
0.932052
0.966473
1.00061
1.05577
1.14074
1.23552
1.32839
1.43272
1.53757
1.5851
1.50822
1.23876
0.655668
0.840563
1.25628
1.43219
1.44934
1.34603
1.14878
0.870339
0.470765
0.490362
0.779839
0.940304
1.03253
1.06708
1.03769
0.931846
0.723315
0.296023
0.601766
0.861862
0.999755
1.04292
0.989187
0.827849
0.526173
0.398423
0.739515
0.922939
1.02601
1.05906
1.00887
0.844933
0.511719
0.428973
0.643916
0.590847
0.279909
0.490962
0.706627
0.812604
0.857395
0.867471
0.859389
0.844812
0.830618
0.821432
0.818211
0.82004
0.824349
0.825441
0.821072
0.801358
0.787144
0.729268
)
;
    }
    bottomWall
    {
        type            calculated;
        value           nonuniform List<scalar> 
800
(
2.94479
1.98391
1.61346
1.44038
1.35528
1.29668
1.24776
1.20668
1.17217
1.14263
1.11686
1.09406
1.07369
1.05533
1.03868
1.02347
1.00951
0.996634
0.984712
0.973633
0.9633
0.953636
0.944572
0.936049
0.928017
0.920432
0.913256
0.906454
0.899996
0.893857
0.888011
0.882436
0.877116
0.87203
0.867164
0.862504
0.858036
0.853749
0.849632
0.845674
0.841865
0.8382
0.834668
0.831263
0.827977
0.824806
0.821742
0.818783
0.815919
0.813151
0.81083
0.808907
0.807006
0.80513
0.803277
0.801449
0.799644
0.797862
0.796101
0.794362
0.792643
0.790945
0.789268
0.78761
0.785972
0.784352
0.782752
0.781169
0.779605
0.778058
0.776529
0.775015
0.773519
0.77204
0.770577
0.769129
0.767696
0.766279
0.764877
0.76349
0.762117
0.760758
0.759414
0.758082
0.756765
0.755461
0.75417
0.752892
0.751626
0.750374
0.749133
0.747904
0.746688
0.745481
0.744288
0.743106
0.741935
0.740775
0.739625
0.738486
0.737358
0.736239
0.735132
0.734034
0.732946
0.731868
0.7308
0.72974
0.72869
0.727649
0.726617
0.725594
0.72458
0.723574
0.722577
0.721589
0.720608
0.719635
0.718671
0.717713
0.716764
0.715823
0.714889
0.713963
0.713044
0.712132
0.711228
0.71033
0.709439
0.708554
0.707677
0.706807
0.705942
0.705084
0.704233
0.703387
0.702548
0.701715
0.700889
0.700067
0.699252
0.698442
0.697639
0.69684
0.696047
0.695259
0.694477
0.693701
0.692929
0.692162
0.691518
0.690993
0.690463
0.689934
0.689403
0.688871
0.688338
0.687803
0.687267
0.68673
0.686192
0.685652
0.685111
0.684569
0.684026
0.683481
0.682935
0.682388
0.68184
0.68129
0.680739
0.680186
0.679633
0.679079
0.678523
0.677965
0.677407
0.676847
0.676287
0.675724
0.67516
0.674596
0.67403
0.673462
0.672893
0.672324
0.671753
0.67118
0.670606
0.670031
0.669456
0.668878
0.668299
0.667719
0.667137
0.666554
0.66597
0.665385
0.664798
0.664211
0.663621
0.663031
0.662438
0.661845
0.66125
0.660654
0.660056
0.659458
0.658858
0.658256
0.657652
0.657048
0.656442
0.655835
0.655226
0.654616
0.654004
0.653391
0.652777
0.652161
0.651544
0.650925
0.650304
0.649683
0.649059
0.648434
0.647808
0.647179
0.646549
0.645917
0.645285
0.644648
0.644013
0.64337
0.642733
0.642084
0.641448
0.640785
0.640157
0.639468
0.638866
0.638128
0.637582
0.636751
0.636315
0.635318
0.635081
0.633824
0.633876
0.632278
2.94479
1.98391
1.61345
1.44036
1.35527
1.29669
1.24781
1.20676
1.1723
1.1428
1.11708
1.09432
1.07399
1.05568
1.03906
1.0239
1.00999
0.997173
0.985321
0.974327
0.964098
0.954559
0.945647
0.937306
0.929491
0.92216
0.91528
0.908823
0.902762
0.897076
0.891749
0.886764
0.882111
0.877779
0.873757
0.870047
0.866629
0.863528
0.86069
0.85821
0.855906
0.854118
0.852238
0.851381
0.849615
0.850474
0.84801
0.852803
0.850348
0.830653
0.600417
0.762071
0.882642
1.22432
1.65206
2.02014
2.304
2.60862
3.00975
3.46655
3.86569
4.10387
4.13223
3.94983
3.58124
3.02548
2.25655
1.31782
2.02149
2.80342
3.37803
3.82373
4.18023
4.47063
4.70993
4.90852
5.07384
5.21128
5.32486
5.41761
5.49187
5.54951
5.59206
5.62086
5.63691
5.64142
5.63456
5.61739
5.59051
5.55426
5.50881
5.45421
5.39031
5.31673
5.23299
5.13858
5.03299
4.9158
4.78673
4.64565
4.49254
4.32751
4.1507
3.96222
3.76208
3.55003
3.3255
3.08735
2.83367
2.56186
2.26712
1.94166
1.57925
1.30084
1.46158
1.75975
2.0401
2.24565
2.35836
2.37006
2.27488
2.12963
2.05553
2.13242
2.19836
2.17489
2.12283
2.09866
2.1099
2.14858
2.19286
2.22706
2.25283
2.28535
2.32296
2.34867
2.34977
2.3274
2.2943
2.26315
2.23697
2.21165
2.18277
2.14671
2.1004
2.04105
1.96513
1.8688
1.7489
1.60266
1.42827
1.22448
0.991031
0.742729
0.623995
0.742133
0.872213
0.955418
0.994967
1.0395
1.01658
0.929265
0.82
0.701604
0.580792
0.464275
0.363214
0.326141
0.39836
0.509118
0.628564
0.75386
0.883905
1.018
1.15313
1.2871
1.41721
1.54068
1.65615
1.76456
1.86863
1.97196
2.07737
2.18527
2.29395
2.40078
2.50318
2.59919
2.68742
2.767
2.83739
2.89833
2.94974
2.99171
3.02447
3.04837
3.0638
3.07109
3.07044
3.06196
3.04605
3.02311
2.99351
2.95757
2.91555
2.86769
2.81421
2.75528
2.69106
2.62169
2.54729
2.46978
2.38769
2.30097
2.20958
2.11343
2.01241
1.90634
1.79499
1.67804
1.55509
1.4256
1.28888
1.14404
0.990131
0.827346
0.664623
0.558918
0.602656
0.71121
0.810373
0.88948
0.954132
1.00419
1.04241
1.07144
1.0939
1.11246
1.12974
1.14812
1.16928
1.19894
1.23085
1.25783
1.26976
1.25982
1.23093
1.24963
1.52987
2.11455
0.531405
0.838077
0.882617
0.833601
0.756535
0.713249
0.763541
0.91357
1.11278
1.32262
1.51082
1.64192
1.68484
1.64526
1.56901
1.52895
1.57213
1.72983
1.95634
2.22902
2.50516
2.63338
2.81388
2.90509
2.83784
2.82838
2.91369
2.75306
2.58236
2.65146
2.68843
2.54892
2.13696
1.54737
0.528991
1.91832
2.79959
3.47948
3.99316
4.36385
4.621
4.79523
4.90251
4.96011
4.98048
4.97124
4.93943
4.88419
4.8021
4.6862
4.52561
4.30884
4.01853
3.63261
3.11651
2.40979
1.58887
2.08248
2.89645
3.51519
3.97868
4.31337
4.53465
4.65399
4.68404
4.65617
4.57244
4.41306
4.18859
3.90528
3.56182
3.14635
2.63134
2.00384
1.587
2.18119
2.87452
3.35402
3.46039
3.1898
2.67193
2.14858
2.05948
2.52529
2.92451
3.17417
3.32105
3.3597
3.31082
3.18799
2.99274
2.7282
2.39605
1.9859
1.47648
0.892525
1.14268
1.41688
1.33618
0.726364
0.820696
1.28813
1.56384
1.71429
1.82688
1.9521
2.12566
2.35025
2.59112
2.791
2.89796
2.90839
2.85776
2.78796
2.72054
2.6675
2.643
2.66446
2.74413
2.86606
2.99413
3.08491
3.09111
2.97754
2.74014
2.39043
1.94636
1.41068
0.802382
1.13797
1.54992
1.67205
1.54084
1.326
1.01185
1.25247
1.62934
1.82385
2.02515
2.12353
2.20946
2.4023
2.47645
1.94697
1.66067
2.46873
2.78009
2.79915
2.53961
2.11694
1.78821
2.36531
2.59989
2.87011
3.16265
3.42474
3.64492
3.84394
4.01819
4.17434
4.31074
4.42923
4.5297
4.61348
4.68187
4.73736
4.78262
4.82024
4.85233
4.88045
4.90556
4.92838
4.94942
4.96902
4.9874
5.00457
5.02051
5.03511
5.04815
5.05945
5.06871
5.0756
5.07968
5.08037
5.07698
5.06871
5.05453
5.03305
5.00254
4.96077
4.90494
4.83169
4.73723
4.61768
4.47012
4.29424
4.0987
3.89501
3.7031
3.55041
3.45249
3.40257
3.37802
3.3898
3.54042
3.92085
4.49797
5.08878
5.60819
6.38982
7.46864
8.17647
8.61895
9.03627
9.4005
9.66447
9.86338
10.0153
10.1158
10.1803
10.2242
10.2466
10.2477
10.2307
10.2002
10.1572
10.1029
10.0396
9.96827
9.89
9.80601
9.71696
9.62374
9.52695
9.42709
9.32467
9.22001
9.11344
9.0052
8.89546
8.78438
8.67206
8.55856
8.44392
8.32817
8.21131
8.09332
7.97418
7.85386
7.73233
7.60955
7.48548
7.3601
7.23334
7.10519
6.97559
6.84447
6.71177
6.57741
6.44131
6.30334
6.16337
6.02121
5.87669
5.72957
5.57959
5.42645
5.26984
5.10935
4.94457
4.77504
4.60034
4.42025
4.23458
4.043
3.85532
3.70128
3.54776
3.39745
3.25963
3.15271
3.10285
3.13178
3.24182
3.41234
3.61908
3.84582
4.08504
4.36411
4.67115
4.98369
5.30093
5.62606
5.95472
6.29969
6.63916
7.02051
7.35466
7.8054
8.04452
)
;
    }
    frontAndBack
    {
        type            empty;
    }
}


// ************************************************************************* //
