/*--------------------------------*- C++ -*----------------------------------*\
  =========                 |
  \\      /  F ield         | OpenFOAM: The Open Source CFD Toolbox
   \\    /   O peration     | Website:  https://openfoam.org
    \\  /    A nd           | Version:  7
     \\/     M anipulation  |
\*---------------------------------------------------------------------------*/
FoamFile
{
    version     2.0;
    format      ascii;
    class       volScalarField;
    location    "0.29";
    object      k;
}
// * * * * * * * * * * * * * * * * * * * * * * * * * * * * * * * * * * * * * //

dimensions      [0 2 -2 0 0 0 0];

internalField   nonuniform List<scalar> 
70000
(
1.08549e-05
4.21879e-06
2.82438e-06
2.31682e-06
1.99745e-06
1.75705e-06
1.56495e-06
1.40799e-06
1.27707e-06
1.16631e-06
1.07125e-06
9.89239e-07
9.17561e-07
8.5495e-07
7.99412e-07
7.50461e-07
7.06406e-07
6.67292e-07
6.31634e-07
5.99807e-07
5.70486e-07
5.44203e-07
5.19767e-07
4.97796e-07
4.77167e-07
4.58631e-07
4.40975e-07
4.25248e-07
4.09901e-07
3.96528e-07
3.82983e-07
3.71606e-07
3.59496e-07
3.49799e-07
3.3888e-07
3.30567e-07
3.20706e-07
3.13487e-07
3.04655e-07
2.98237e-07
2.90755e-07
2.85584e-07
2.78475e-07
2.76099e-07
2.66732e-07
2.70312e-07
2.60172e-07
2.865e-07
2.64911e-07
5.24368e-07
1.72794e-05
1.13673e-05
8.52061e-06
7.01048e-06
6.03711e-06
5.31066e-06
4.73087e-06
4.25688e-06
3.86144e-06
3.52696e-06
3.23984e-06
2.99217e-06
2.77565e-06
2.58654e-06
2.41873e-06
2.27084e-06
2.13771e-06
2.0195e-06
1.91174e-06
1.81551e-06
1.72689e-06
1.6474e-06
1.57353e-06
1.50707e-06
1.44467e-06
1.38863e-06
1.33516e-06
1.28765e-06
1.24111e-06
1.20076e-06
1.15966e-06
1.12533e-06
1.0886e-06
1.05932e-06
1.02625e-06
1.0011e-06
9.71324e-07
9.49353e-07
9.22842e-07
9.03151e-07
8.80441e-07
8.64234e-07
8.42395e-07
8.33979e-07
8.07298e-07
8.11448e-07
7.87593e-07
8.42577e-07
7.98798e-07
1.00629e-06
1.93701e-05
1.61297e-05
1.32911e-05
1.12897e-05
9.82843e-06
8.69575e-06
7.77758e-06
7.01954e-06
6.38241e-06
5.84085e-06
5.37418e-06
4.97053e-06
4.61662e-06
4.30692e-06
4.03149e-06
3.78833e-06
3.56908e-06
3.37407e-06
3.19615e-06
3.03698e-06
2.89037e-06
2.7586e-06
2.63611e-06
2.5258e-06
2.42205e-06
2.329e-06
2.2398e-06
2.16097e-06
2.08311e-06
2.01617e-06
1.94729e-06
1.89032e-06
1.82877e-06
1.78005e-06
1.72478e-06
1.68265e-06
1.6332e-06
1.59598e-06
1.55239e-06
1.5186e-06
1.48075e-06
1.45246e-06
1.41528e-06
1.3995e-06
1.35671e-06
1.35513e-06
1.3216e-06
1.37973e-06
1.33206e-06
1.40857e-06
1.9861e-05
1.826e-05
1.60857e-05
1.42003e-05
1.26401e-05
1.13486e-05
1.02602e-05
9.33777e-06
8.54562e-06
7.86224e-06
7.26667e-06
6.74715e-06
6.28795e-06
5.88374e-06
5.522e-06
5.20106e-06
4.91027e-06
4.65051e-06
4.41282e-06
4.19933e-06
4.0023e-06
3.82461e-06
3.65904e-06
3.50972e-06
3.36859e-06
3.24238e-06
3.12027e-06
3.01321e-06
2.90608e-06
2.81503e-06
2.71999e-06
2.64225e-06
2.55731e-06
2.49044e-06
2.41443e-06
2.35594e-06
2.28857e-06
2.23595e-06
2.17732e-06
2.12897e-06
2.07743e-06
2.03683e-06
1.98432e-06
1.96037e-06
1.90384e-06
1.89342e-06
1.84788e-06
1.8929e-06
1.85046e-06
1.85557e-06
1.99706e-05
1.78458e-05
1.60748e-05
1.47665e-05
1.36025e-05
1.25377e-05
1.15692e-05
1.07017e-05
9.92015e-06
9.22477e-06
8.60381e-06
8.05157e-06
7.55467e-06
7.1114e-06
6.70923e-06
6.34837e-06
6.01811e-06
5.72043e-06
5.44623e-06
5.19812e-06
4.96789e-06
4.75913e-06
4.56332e-06
4.38647e-06
4.21761e-06
4.06729e-06
3.91958e-06
3.79145e-06
3.66081e-06
3.55127e-06
3.43485e-06
3.34067e-06
3.23652e-06
3.15457e-06
3.06186e-06
2.98881e-06
2.90762e-06
2.84039e-06
2.77054e-06
2.70839e-06
2.64579e-06
2.59503e-06
2.52897e-06
2.49691e-06
2.42856e-06
2.4095e-06
2.35038e-06
2.37484e-06
2.34483e-06
2.30163e-06
2.00095e-05
1.47038e-05
1.37476e-05
1.32108e-05
1.25914e-05
1.19275e-05
1.12782e-05
1.06583e-05
1.00814e-05
9.54809e-06
9.04709e-06
8.58179e-06
8.14722e-06
7.74835e-06
7.3758e-06
7.03372e-06
6.71453e-06
6.42207e-06
6.14908e-06
5.89885e-06
5.66387e-06
5.44891e-06
5.24448e-06
5.05956e-06
4.8796e-06
4.72048e-06
4.5603e-06
4.42319e-06
4.27983e-06
4.16129e-06
4.03257e-06
3.92929e-06
3.81389e-06
3.72223e-06
3.62021e-06
3.53621e-06
3.44804e-06
3.36894e-06
3.29327e-06
3.22059e-06
3.15009e-06
3.09304e-06
3.01653e-06
2.97885e-06
2.90194e-06
2.87602e-06
2.80543e-06
2.80873e-06
2.78278e-06
2.71741e-06
2.01331e-05
1.54679e-05
9.63442e-06
9.39793e-06
9.49289e-06
9.49255e-06
9.43462e-06
9.29768e-06
9.05784e-06
8.78528e-06
8.49093e-06
8.195e-06
7.90275e-06
7.62087e-06
7.34326e-06
7.08364e-06
6.83595e-06
6.60201e-06
6.37776e-06
6.16701e-06
5.96403e-06
5.77544e-06
5.59123e-06
5.42422e-06
5.25609e-06
5.10875e-06
4.95497e-06
4.82545e-06
4.68525e-06
4.57094e-06
4.44343e-06
4.34149e-06
4.22672e-06
4.13325e-06
4.03257e-06
3.94383e-06
3.8576e-06
3.77252e-06
3.69738e-06
3.62049e-06
3.54673e-06
3.488e-06
3.40746e-06
3.36597e-06
3.28622e-06
3.25589e-06
3.18301e-06
3.16849e-06
3.13586e-06
3.05989e-06
2.01713e-05
1.86762e-05
8.69312e-06
5.54017e-06
5.63046e-06
5.9347e-06
6.29365e-06
6.58013e-06
6.76157e-06
6.87177e-06
6.89376e-06
6.87534e-06
6.82451e-06
6.73778e-06
6.62788e-06
6.50635e-06
6.36868e-06
6.22696e-06
6.08379e-06
5.9424e-06
5.79985e-06
5.66409e-06
5.52566e-06
5.39946e-06
5.26615e-06
5.15248e-06
5.02721e-06
4.92391e-06
4.80589e-06
4.71107e-06
4.60119e-06
4.51297e-06
4.41325e-06
4.32809e-06
4.24103e-06
4.15675e-06
4.08188e-06
4.00005e-06
3.93228e-06
3.85957e-06
3.78973e-06
3.73344e-06
3.65909e-06
3.6139e-06
3.54202e-06
3.50766e-06
3.44287e-06
3.40681e-06
3.37427e-06
3.29783e-06
2.01671e-05
1.9724e-05
1.61681e-05
4.86207e-06
3.04235e-06
3.10574e-06
3.37514e-06
3.80615e-06
4.17345e-06
4.49325e-06
4.74261e-06
4.93458e-06
5.07672e-06
5.17923e-06
5.2393e-06
5.27686e-06
5.28207e-06
5.2739e-06
5.25235e-06
5.21465e-06
5.16542e-06
5.11198e-06
5.04823e-06
4.98683e-06
4.91339e-06
4.84809e-06
4.76696e-06
4.70132e-06
4.619e-06
4.55408e-06
4.47433e-06
4.40948e-06
4.33597e-06
4.26874e-06
4.20426e-06
4.13474e-06
4.07788e-06
4.00982e-06
3.95648e-06
3.89652e-06
3.83971e-06
3.79001e-06
3.73243e-06
3.68591e-06
3.63296e-06
3.59041e-06
3.54668e-06
3.49586e-06
3.46722e-06
3.3987e-06
2.01476e-05
1.99343e-05
1.90659e-05
1.44997e-05
5.2444e-06
2.15466e-06
1.91477e-06
1.99449e-06
2.20889e-06
2.50927e-06
2.78656e-06
3.04223e-06
3.26897e-06
3.46805e-06
3.63391e-06
3.7741e-06
3.88765e-06
3.97782e-06
4.04992e-06
4.10442e-06
4.14254e-06
4.16866e-06
4.18274e-06
4.18652e-06
4.18283e-06
4.17513e-06
4.15666e-06
4.14162e-06
4.11145e-06
4.08913e-06
4.054e-06
4.02445e-06
3.98908e-06
3.95182e-06
3.91888e-06
3.87616e-06
3.84456e-06
3.80023e-06
3.76636e-06
3.72472e-06
3.68643e-06
3.64803e-06
3.61039e-06
3.56995e-06
3.53603e-06
3.49524e-06
3.46711e-06
3.41967e-06
3.3969e-06
3.34195e-06
2.01216e-05
1.99661e-05
1.96425e-05
1.85467e-05
1.52134e-05
8.36038e-06
3.10499e-06
1.63313e-06
1.44283e-06
1.45051e-06
1.52869e-06
1.69182e-06
1.87572e-06
2.05457e-06
2.22696e-06
2.38832e-06
2.53761e-06
2.67115e-06
2.79056e-06
2.89714e-06
2.98864e-06
3.07028e-06
3.13731e-06
3.19764e-06
3.24342e-06
3.28698e-06
3.31606e-06
3.34563e-06
3.36227e-06
3.3791e-06
3.38677e-06
3.3933e-06
3.39373e-06
3.39191e-06
3.38826e-06
3.37931e-06
3.37254e-06
3.3582e-06
3.34851e-06
3.33184e-06
3.31761e-06
3.29868e-06
3.28315e-06
3.25948e-06
3.24386e-06
3.21696e-06
3.20133e-06
3.1698e-06
3.15524e-06
3.12022e-06
2.00981e-05
1.99327e-05
1.97574e-05
1.93528e-05
1.85067e-05
1.65374e-05
1.23282e-05
6.85571e-06
2.98112e-06
1.49157e-06
1.24308e-06
1.14852e-06
1.15377e-06
1.198e-06
1.29292e-06
1.40179e-06
1.51615e-06
1.62859e-06
1.73969e-06
1.84816e-06
1.94812e-06
2.04534e-06
2.13099e-06
2.21478e-06
2.28642e-06
2.35634e-06
2.41544e-06
2.47173e-06
2.5204e-06
2.56393e-06
2.60359e-06
2.63616e-06
2.66804e-06
2.69131e-06
2.7159e-06
2.73226e-06
2.75035e-06
2.76092e-06
2.77283e-06
2.77981e-06
2.78574e-06
2.78873e-06
2.78958e-06
2.78837e-06
2.78592e-06
2.77969e-06
2.77471e-06
2.76294e-06
2.75741e-06
2.74337e-06
2.00781e-05
1.98876e-05
1.9757e-05
1.94613e-05
1.91465e-05
1.86417e-05
1.75557e-05
1.54263e-05
1.17339e-05
7.42923e-06
3.96315e-06
1.90065e-06
1.20542e-06
1.05706e-06
9.8133e-07
9.45165e-07
9.57679e-07
9.9461e-07
1.05757e-06
1.12477e-06
1.19432e-06
1.26805e-06
1.33851e-06
1.41271e-06
1.48127e-06
1.54999e-06
1.61412e-06
1.67493e-06
1.73411e-06
1.78648e-06
1.84004e-06
1.88454e-06
1.93199e-06
1.96981e-06
2.01005e-06
2.04277e-06
2.07621e-06
2.10403e-06
2.13099e-06
2.15457e-06
2.17622e-06
2.19441e-06
2.21142e-06
2.22391e-06
2.23695e-06
2.24394e-06
2.25204e-06
2.25442e-06
2.25886e-06
2.26165e-06
2.00614e-05
1.98539e-05
1.97344e-05
1.94716e-05
1.92557e-05
1.90477e-05
1.87362e-05
1.81906e-05
1.7095e-05
1.52271e-05
1.25486e-05
9.20076e-06
5.92769e-06
3.43642e-06
1.85126e-06
1.15656e-06
9.62698e-07
8.90447e-07
8.35073e-07
7.99104e-07
8.02331e-07
8.18054e-07
8.5024e-07
8.91734e-07
9.32293e-07
9.77185e-07
1.02345e-06
1.06885e-06
1.11814e-06
1.16218e-06
1.21118e-06
1.25237e-06
1.29883e-06
1.33749e-06
1.3795e-06
1.41606e-06
1.45339e-06
1.48734e-06
1.51998e-06
1.55039e-06
1.57954e-06
1.60526e-06
1.63073e-06
1.65106e-06
1.67321e-06
1.68841e-06
1.70572e-06
1.71616e-06
1.7293e-06
1.7405e-06
2.00475e-05
1.98304e-05
1.97079e-05
1.94495e-05
1.92728e-05
1.91156e-05
1.89658e-05
1.87502e-05
1.84619e-05
1.79096e-05
1.70728e-05
1.56847e-05
1.38566e-05
1.14833e-05
8.78326e-06
6.16072e-06
3.99611e-06
2.43652e-06
1.46252e-06
1.01299e-06
8.57851e-07
7.96975e-07
7.48613e-07
7.09962e-07
6.8354e-07
6.84268e-07
6.91735e-07
7.08152e-07
7.32933e-07
7.56156e-07
7.84678e-07
8.09972e-07
8.41542e-07
8.68973e-07
9.0084e-07
9.30179e-07
9.60767e-07
9.90411e-07
1.01901e-06
1.04694e-06
1.07426e-06
1.09956e-06
1.12504e-06
1.14635e-06
1.16984e-06
1.18803e-06
1.20721e-06
1.22207e-06
1.23712e-06
1.25277e-06
2.00362e-05
1.98125e-05
1.96854e-05
1.94192e-05
1.92588e-05
1.91093e-05
1.90008e-05
1.88493e-05
1.87116e-05
1.84992e-05
1.82449e-05
1.78277e-05
1.72199e-05
1.63432e-05
1.51235e-05
1.35719e-05
1.17328e-05
9.61848e-06
7.45474e-06
5.44654e-06
3.78217e-06
2.52314e-06
1.63522e-06
1.10841e-06
8.58165e-07
7.56487e-07
7.07785e-07
6.70562e-07
6.35467e-07
6.08185e-07
5.90591e-07
5.88179e-07
5.91504e-07
5.98904e-07
6.12621e-07
6.26707e-07
6.41981e-07
6.58465e-07
6.74525e-07
6.92193e-07
7.09844e-07
7.27965e-07
7.46283e-07
7.62986e-07
7.80928e-07
7.97073e-07
8.1234e-07
8.26205e-07
8.38875e-07
8.54552e-07
2.00271e-05
1.97986e-05
1.96662e-05
1.93973e-05
1.92331e-05
1.90821e-05
1.89824e-05
1.88535e-05
1.87351e-05
1.8596e-05
1.84564e-05
1.82873e-05
1.80737e-05
1.77874e-05
1.7393e-05
1.68434e-05
1.61196e-05
1.51814e-05
1.40108e-05
1.26453e-05
1.11058e-05
9.41074e-06
7.67521e-06
6.02869e-06
4.54605e-06
3.33369e-06
2.38057e-06
1.66408e-06
1.17511e-06
8.88972e-07
7.42005e-07
6.7149e-07
6.3199e-07
6.02551e-07
5.75081e-07
5.49533e-07
5.28683e-07
5.15572e-07
5.07845e-07
5.08118e-07
5.10264e-07
5.15337e-07
5.21959e-07
5.29456e-07
5.3744e-07
5.4592e-07
5.53293e-07
5.61111e-07
5.68353e-07
5.78436e-07
2.002e-05
1.97901e-05
1.9646e-05
1.9381e-05
1.9209e-05
1.90535e-05
1.89441e-05
1.88274e-05
1.87132e-05
1.85895e-05
1.84682e-05
1.8343e-05
1.82151e-05
1.80722e-05
1.79125e-05
1.77111e-05
1.74622e-05
1.71364e-05
1.67218e-05
1.61831e-05
1.55312e-05
1.47224e-05
1.37812e-05
1.26865e-05
1.15078e-05
1.02132e-05
8.84667e-06
7.47481e-06
6.15371e-06
4.94562e-06
3.87162e-06
2.98856e-06
2.2691e-06
1.69711e-06
1.26671e-06
9.68666e-07
7.82036e-07
6.74084e-07
6.13286e-07
5.77689e-07
5.52157e-07
5.31565e-07
5.12337e-07
4.94535e-07
4.78608e-07
4.66116e-07
4.57056e-07
4.51434e-07
4.5325e-07
4.59967e-07
2.00144e-05
1.97902e-05
1.96196e-05
1.93675e-05
1.91887e-05
1.90268e-05
1.89084e-05
1.87912e-05
1.86732e-05
1.85534e-05
1.84379e-05
1.83207e-05
1.8206e-05
1.80866e-05
1.79718e-05
1.78476e-05
1.77224e-05
1.75761e-05
1.74161e-05
1.7213e-05
1.6981e-05
1.6683e-05
1.63315e-05
1.58933e-05
1.53816e-05
1.47765e-05
1.40811e-05
1.32888e-05
1.24196e-05
1.14687e-05
1.04836e-05
9.43164e-06
8.35224e-06
7.28093e-06
6.24577e-06
5.2762e-06
4.39398e-06
3.60813e-06
2.94307e-06
2.38579e-06
1.92061e-06
1.5426e-06
1.24378e-06
1.01729e-06
8.54816e-07
7.41558e-07
6.69998e-07
6.30114e-07
6.40396e-07
6.85707e-07
2.00102e-05
1.97943e-05
1.9593e-05
1.93534e-05
1.91704e-05
1.90011e-05
1.88753e-05
1.87551e-05
1.86335e-05
1.85103e-05
1.8392e-05
1.8274e-05
1.81605e-05
1.80478e-05
1.7939e-05
1.78283e-05
1.77198e-05
1.76096e-05
1.75022e-05
1.73849e-05
1.72704e-05
1.71363e-05
1.69926e-05
1.68224e-05
1.66292e-05
1.64e-05
1.61307e-05
1.58205e-05
1.54563e-05
1.50389e-05
1.45664e-05
1.40402e-05
1.34506e-05
1.28122e-05
1.21148e-05
1.13891e-05
1.06178e-05
9.84177e-06
9.03198e-06
8.22368e-06
7.42393e-06
6.65642e-06
5.93445e-06
5.26379e-06
4.6606e-06
4.12363e-06
3.64351e-06
3.25425e-06
2.92711e-06
2.927e-06
2.0007e-05
1.98018e-05
1.95687e-05
1.93396e-05
1.91534e-05
1.89771e-05
1.88438e-05
1.87207e-05
1.85946e-05
1.84687e-05
1.83451e-05
1.82256e-05
1.81068e-05
1.79933e-05
1.78806e-05
1.77716e-05
1.76646e-05
1.75629e-05
1.7461e-05
1.73583e-05
1.72621e-05
1.716e-05
1.7061e-05
1.69597e-05
1.68551e-05
1.67477e-05
1.6621e-05
1.65001e-05
1.6347e-05
1.61874e-05
1.59991e-05
1.57939e-05
1.55538e-05
1.52944e-05
1.49872e-05
1.46678e-05
1.42955e-05
1.3903e-05
1.34697e-05
1.30175e-05
1.25261e-05
1.20188e-05
1.14967e-05
1.09614e-05
1.04291e-05
9.91026e-06
9.39627e-06
8.90668e-06
8.41299e-06
8.09008e-06
2.00047e-05
1.98103e-05
1.95461e-05
1.9326e-05
1.9137e-05
1.89548e-05
1.88134e-05
1.86877e-05
1.8557e-05
1.8429e-05
1.82996e-05
1.81781e-05
1.80536e-05
1.79389e-05
1.78204e-05
1.77109e-05
1.75974e-05
1.74952e-05
1.73894e-05
1.72868e-05
1.71928e-05
1.7097e-05
1.70035e-05
1.6914e-05
1.68226e-05
1.67391e-05
1.66371e-05
1.65642e-05
1.64633e-05
1.6379e-05
1.62808e-05
1.6187e-05
1.60776e-05
1.59725e-05
1.58371e-05
1.57177e-05
1.55621e-05
1.54018e-05
1.52225e-05
1.50386e-05
1.48218e-05
1.45987e-05
1.43591e-05
1.40991e-05
1.38318e-05
1.35553e-05
1.32871e-05
1.29711e-05
1.26658e-05
1.23349e-05
2.0003e-05
1.98192e-05
1.95251e-05
1.9312e-05
1.91205e-05
1.89343e-05
1.87843e-05
1.86559e-05
1.8521e-05
1.8391e-05
1.82563e-05
1.81324e-05
1.80024e-05
1.78863e-05
1.77621e-05
1.76509e-05
1.75327e-05
1.7428e-05
1.73182e-05
1.72126e-05
1.71143e-05
1.70155e-05
1.69178e-05
1.6828e-05
1.67338e-05
1.66552e-05
1.65561e-05
1.64925e-05
1.63984e-05
1.63273e-05
1.62456e-05
1.61732e-05
1.60917e-05
1.60233e-05
1.59337e-05
1.58735e-05
1.57873e-05
1.57046e-05
1.56211e-05
1.55439e-05
1.54419e-05
1.53489e-05
1.52471e-05
1.51369e-05
1.50187e-05
1.49095e-05
1.47924e-05
1.4654e-05
1.44896e-05
1.43048e-05
2.00017e-05
1.98276e-05
1.95059e-05
1.92972e-05
1.91035e-05
1.89154e-05
1.87566e-05
1.86252e-05
1.8487e-05
1.83549e-05
1.82157e-05
1.80888e-05
1.79543e-05
1.7836e-05
1.77069e-05
1.75931e-05
1.74715e-05
1.73633e-05
1.72503e-05
1.71418e-05
1.70395e-05
1.69382e-05
1.68361e-05
1.67439e-05
1.66452e-05
1.65628e-05
1.64594e-05
1.63925e-05
1.62959e-05
1.62225e-05
1.61412e-05
1.60712e-05
1.59959e-05
1.59324e-05
1.5852e-05
1.58011e-05
1.57283e-05
1.56602e-05
1.55971e-05
1.55433e-05
1.54691e-05
1.54116e-05
1.53485e-05
1.52888e-05
1.52206e-05
1.51739e-05
1.51123e-05
1.50537e-05
1.49564e-05
1.48505e-05
2.00009e-05
1.98305e-05
1.94896e-05
1.92821e-05
1.90864e-05
1.88986e-05
1.8731e-05
1.85962e-05
1.84554e-05
1.83213e-05
1.81781e-05
1.80481e-05
1.79098e-05
1.77889e-05
1.76558e-05
1.7539e-05
1.74148e-05
1.73025e-05
1.71867e-05
1.70756e-05
1.69693e-05
1.68658e-05
1.67604e-05
1.66655e-05
1.65629e-05
1.6477e-05
1.6372e-05
1.62999e-05
1.62005e-05
1.61237e-05
1.60388e-05
1.59647e-05
1.58852e-05
1.58176e-05
1.57356e-05
1.56826e-05
1.56066e-05
1.55407e-05
1.54786e-05
1.54293e-05
1.53614e-05
1.53102e-05
1.52517e-05
1.52035e-05
1.51463e-05
1.51123e-05
1.5061e-05
1.50239e-05
1.49466e-05
1.48644e-05
2.00003e-05
1.98289e-05
1.94765e-05
1.92664e-05
1.90689e-05
1.88838e-05
1.87077e-05
1.85692e-05
1.84263e-05
1.82906e-05
1.81437e-05
1.80109e-05
1.78694e-05
1.77458e-05
1.76093e-05
1.74895e-05
1.73631e-05
1.72471e-05
1.71284e-05
1.70152e-05
1.69049e-05
1.6799e-05
1.66913e-05
1.65933e-05
1.64878e-05
1.63982e-05
1.62932e-05
1.62155e-05
1.61144e-05
1.60351e-05
1.59471e-05
1.58704e-05
1.57873e-05
1.57168e-05
1.56321e-05
1.55762e-05
1.54942e-05
1.54291e-05
1.53616e-05
1.53069e-05
1.52367e-05
1.51847e-05
1.512e-05
1.5072e-05
1.50171e-05
1.4981e-05
1.49281e-05
1.48929e-05
1.48239e-05
1.47337e-05
2e-05
1.98271e-05
1.94653e-05
1.92493e-05
1.90507e-05
1.88704e-05
1.86869e-05
1.85444e-05
1.83997e-05
1.82632e-05
1.81128e-05
1.79781e-05
1.78333e-05
1.77075e-05
1.7568e-05
1.74457e-05
1.73169e-05
1.71981e-05
1.7076e-05
1.69616e-05
1.68474e-05
1.67391e-05
1.66298e-05
1.65284e-05
1.64205e-05
1.63274e-05
1.62227e-05
1.61399e-05
1.60373e-05
1.59564e-05
1.58654e-05
1.57871e-05
1.57007e-05
1.56294e-05
1.55421e-05
1.5484e-05
1.53978e-05
1.53331e-05
1.52622e-05
1.52033e-05
1.51306e-05
1.50787e-05
1.50078e-05
1.49567e-05
1.49025e-05
1.48635e-05
1.48048e-05
1.47612e-05
1.46988e-05
1.45974e-05
1.99999e-05
1.98259e-05
1.94571e-05
1.92319e-05
1.90326e-05
1.88587e-05
1.86691e-05
1.85227e-05
1.83762e-05
1.82397e-05
1.80859e-05
1.79503e-05
1.78022e-05
1.76748e-05
1.75326e-05
1.74085e-05
1.72771e-05
1.71564e-05
1.70308e-05
1.69157e-05
1.67976e-05
1.66875e-05
1.65766e-05
1.64723e-05
1.6362e-05
1.6266e-05
1.61612e-05
1.60744e-05
1.59698e-05
1.58884e-05
1.57937e-05
1.57156e-05
1.56252e-05
1.55541e-05
1.54649e-05
1.54041e-05
1.53162e-05
1.52515e-05
1.51776e-05
1.51166e-05
1.50416e-05
1.49893e-05
1.49156e-05
1.48615e-05
1.48063e-05
1.47671e-05
1.47006e-05
1.46516e-05
1.4585e-05
1.44884e-05
1.99999e-05
1.98252e-05
1.94518e-05
1.92151e-05
1.90156e-05
1.88488e-05
1.86553e-05
1.85046e-05
1.83565e-05
1.82206e-05
1.80639e-05
1.79281e-05
1.77768e-05
1.76488e-05
1.75038e-05
1.73787e-05
1.72446e-05
1.71228e-05
1.69938e-05
1.68784e-05
1.67568e-05
1.66455e-05
1.65325e-05
1.64263e-05
1.63135e-05
1.62155e-05
1.61096e-05
1.602e-05
1.59132e-05
1.58322e-05
1.57331e-05
1.56566e-05
1.55619e-05
1.5491e-05
1.54012e-05
1.53369e-05
1.52486e-05
1.51845e-05
1.51062e-05
1.50454e-05
1.49693e-05
1.4914e-05
1.48401e-05
1.47847e-05
1.47265e-05
1.46862e-05
1.46147e-05
1.45609e-05
1.44876e-05
1.43925e-05
1.99999e-05
1.98248e-05
1.9449e-05
1.91999e-05
1.90003e-05
1.88405e-05
1.86459e-05
1.84909e-05
1.83413e-05
1.82061e-05
1.80474e-05
1.79122e-05
1.77579e-05
1.763e-05
1.74825e-05
1.73571e-05
1.72201e-05
1.7098e-05
1.6966e-05
1.68504e-05
1.67258e-05
1.66138e-05
1.64986e-05
1.63913e-05
1.6276e-05
1.61767e-05
1.60692e-05
1.59779e-05
1.58692e-05
1.57883e-05
1.56853e-05
1.56107e-05
1.55124e-05
1.5441e-05
1.53517e-05
1.52841e-05
1.51954e-05
1.51327e-05
1.50494e-05
1.49894e-05
1.49134e-05
1.48536e-05
1.478e-05
1.47255e-05
1.46634e-05
1.4618e-05
1.45458e-05
1.44869e-05
1.44049e-05
1.43079e-05
1.99999e-05
1.98249e-05
1.94487e-05
1.9187e-05
1.89872e-05
1.88339e-05
1.8641e-05
1.84817e-05
1.83308e-05
1.81966e-05
1.80371e-05
1.79027e-05
1.77459e-05
1.76187e-05
1.7469e-05
1.7344e-05
1.72045e-05
1.70825e-05
1.69481e-05
1.68324e-05
1.67053e-05
1.65932e-05
1.64757e-05
1.63679e-05
1.62506e-05
1.61502e-05
1.60411e-05
1.59487e-05
1.58387e-05
1.57574e-05
1.56519e-05
1.55787e-05
1.54773e-05
1.54062e-05
1.53162e-05
1.52477e-05
1.51575e-05
1.5096e-05
1.50094e-05
1.49494e-05
1.48735e-05
1.48103e-05
1.47358e-05
1.46831e-05
1.46168e-05
1.45648e-05
1.44922e-05
1.44293e-05
1.4337e-05
1.4237e-05
1.99999e-05
1.98255e-05
1.94507e-05
1.91768e-05
1.89763e-05
1.88285e-05
1.86405e-05
1.84774e-05
1.83255e-05
1.8192e-05
1.80331e-05
1.78996e-05
1.77412e-05
1.76153e-05
1.74638e-05
1.73398e-05
1.71981e-05
1.70767e-05
1.69405e-05
1.68249e-05
1.66959e-05
1.65842e-05
1.64644e-05
1.63566e-05
1.62378e-05
1.61366e-05
1.60262e-05
1.59332e-05
1.58224e-05
1.57403e-05
1.56335e-05
1.55615e-05
1.54572e-05
1.53877e-05
1.52957e-05
1.52278e-05
1.51368e-05
1.50743e-05
1.49873e-05
1.49266e-05
1.48494e-05
1.47852e-05
1.47091e-05
1.46568e-05
1.45865e-05
1.45286e-05
1.44535e-05
1.43864e-05
1.42853e-05
1.41805e-05
1.99999e-05
1.98265e-05
1.94552e-05
1.91703e-05
1.89678e-05
1.88249e-05
1.86435e-05
1.84778e-05
1.83252e-05
1.81927e-05
1.80355e-05
1.79027e-05
1.77437e-05
1.76191e-05
1.74669e-05
1.73438e-05
1.72009e-05
1.70802e-05
1.69432e-05
1.68277e-05
1.66977e-05
1.65866e-05
1.64652e-05
1.63578e-05
1.62382e-05
1.61364e-05
1.60251e-05
1.59317e-05
1.58208e-05
1.57378e-05
1.5631e-05
1.55594e-05
1.5453e-05
1.53855e-05
1.52914e-05
1.52245e-05
1.51337e-05
1.50688e-05
1.49827e-05
1.49221e-05
1.48413e-05
1.47779e-05
1.47011e-05
1.46459e-05
1.45719e-05
1.45103e-05
1.44299e-05
1.43569e-05
1.42493e-05
1.41391e-05
1.99999e-05
1.9828e-05
1.94618e-05
1.91672e-05
1.89622e-05
1.88225e-05
1.86505e-05
1.8483e-05
1.83294e-05
1.81977e-05
1.80432e-05
1.79113e-05
1.77525e-05
1.76297e-05
1.7477e-05
1.73555e-05
1.72114e-05
1.7092e-05
1.69543e-05
1.68393e-05
1.67085e-05
1.65982e-05
1.64755e-05
1.63685e-05
1.62486e-05
1.61465e-05
1.60346e-05
1.59411e-05
1.58305e-05
1.57467e-05
1.56409e-05
1.55687e-05
1.54621e-05
1.53959e-05
1.53006e-05
1.52346e-05
1.51441e-05
1.50779e-05
1.49921e-05
1.49322e-05
1.48481e-05
1.47854e-05
1.47085e-05
1.46493e-05
1.45715e-05
1.45079e-05
1.44215e-05
1.43398e-05
1.42262e-05
1.41127e-05
1.99999e-05
1.983e-05
1.94702e-05
1.9168e-05
1.89591e-05
1.88221e-05
1.86598e-05
1.8493e-05
1.83388e-05
1.82079e-05
1.80568e-05
1.79257e-05
1.77684e-05
1.76476e-05
1.74948e-05
1.73754e-05
1.72307e-05
1.71133e-05
1.69752e-05
1.68613e-05
1.67303e-05
1.66213e-05
1.64976e-05
1.63916e-05
1.62718e-05
1.61697e-05
1.60574e-05
1.59638e-05
1.58543e-05
1.57696e-05
1.56659e-05
1.55921e-05
1.54868e-05
1.54219e-05
1.53257e-05
1.52614e-05
1.51704e-05
1.51041e-05
1.50183e-05
1.49587e-05
1.48718e-05
1.48093e-05
1.47319e-05
1.46678e-05
1.45851e-05
1.4519e-05
1.44261e-05
1.43354e-05
1.42148e-05
1.40983e-05
1.99999e-05
1.98325e-05
1.94802e-05
1.91721e-05
1.8959e-05
1.88232e-05
1.86711e-05
1.85067e-05
1.83525e-05
1.82223e-05
1.80749e-05
1.79449e-05
1.77902e-05
1.76712e-05
1.75188e-05
1.74021e-05
1.7257e-05
1.7142e-05
1.70039e-05
1.68915e-05
1.67607e-05
1.66532e-05
1.65291e-05
1.64244e-05
1.63053e-05
1.62036e-05
1.60915e-05
1.5998e-05
1.58903e-05
1.58048e-05
1.5704e-05
1.56277e-05
1.55262e-05
1.54615e-05
1.53649e-05
1.53032e-05
1.52106e-05
1.51461e-05
1.50602e-05
1.49998e-05
1.49117e-05
1.48494e-05
1.477e-05
1.47015e-05
1.46144e-05
1.45447e-05
1.44442e-05
1.43448e-05
1.42158e-05
1.40951e-05
1.99999e-05
1.98354e-05
1.9491e-05
1.91801e-05
1.89618e-05
1.88264e-05
1.86842e-05
1.85242e-05
1.83704e-05
1.82407e-05
1.8097e-05
1.79685e-05
1.78172e-05
1.76998e-05
1.75482e-05
1.74346e-05
1.72894e-05
1.71771e-05
1.70391e-05
1.69288e-05
1.67983e-05
1.66928e-05
1.65686e-05
1.64655e-05
1.63471e-05
1.62461e-05
1.61346e-05
1.60414e-05
1.59359e-05
1.58499e-05
1.57521e-05
1.56735e-05
1.5577e-05
1.55115e-05
1.54156e-05
1.53563e-05
1.5262e-05
1.52002e-05
1.51141e-05
1.50521e-05
1.49637e-05
1.49017e-05
1.48183e-05
1.4746e-05
1.46553e-05
1.45801e-05
1.44715e-05
1.43646e-05
1.42268e-05
1.41009e-05
1.99999e-05
1.98386e-05
1.95027e-05
1.91908e-05
1.89679e-05
1.88319e-05
1.86986e-05
1.85447e-05
1.83921e-05
1.82627e-05
1.81225e-05
1.7996e-05
1.78486e-05
1.77324e-05
1.75824e-05
1.74718e-05
1.73268e-05
1.72176e-05
1.70798e-05
1.6972e-05
1.68419e-05
1.67386e-05
1.66147e-05
1.65135e-05
1.63958e-05
1.62958e-05
1.61851e-05
1.60927e-05
1.59891e-05
1.59034e-05
1.58078e-05
1.57285e-05
1.56367e-05
1.55699e-05
1.54763e-05
1.5418e-05
1.53236e-05
1.52641e-05
1.51774e-05
1.51141e-05
1.50256e-05
1.49632e-05
1.4875e-05
1.4799e-05
1.47046e-05
1.46229e-05
1.45052e-05
1.43909e-05
1.42456e-05
1.41133e-05
1.99999e-05
1.9842e-05
1.95147e-05
1.92039e-05
1.89769e-05
1.88396e-05
1.87139e-05
1.85677e-05
1.84169e-05
1.82876e-05
1.81509e-05
1.80268e-05
1.78836e-05
1.77684e-05
1.76204e-05
1.75128e-05
1.73683e-05
1.72622e-05
1.71249e-05
1.70196e-05
1.68901e-05
1.67894e-05
1.66659e-05
1.65667e-05
1.64498e-05
1.63511e-05
1.62415e-05
1.61502e-05
1.60478e-05
1.59635e-05
1.58691e-05
1.57914e-05
1.57024e-05
1.56353e-05
1.55443e-05
1.54863e-05
1.53934e-05
1.53351e-05
1.52476e-05
1.51837e-05
1.50946e-05
1.50314e-05
1.49374e-05
1.48584e-05
1.47598e-05
1.46703e-05
1.45429e-05
1.44215e-05
1.42697e-05
1.41296e-05
1.99999e-05
1.98457e-05
1.95269e-05
1.9219e-05
1.89887e-05
1.88495e-05
1.87299e-05
1.85924e-05
1.84443e-05
1.83152e-05
1.81818e-05
1.80604e-05
1.79214e-05
1.78071e-05
1.76616e-05
1.75565e-05
1.7413e-05
1.731e-05
1.71733e-05
1.70707e-05
1.69419e-05
1.68438e-05
1.67208e-05
1.66237e-05
1.65075e-05
1.64104e-05
1.6302e-05
1.62121e-05
1.61103e-05
1.60286e-05
1.59341e-05
1.58604e-05
1.57714e-05
1.5706e-05
1.56171e-05
1.55594e-05
1.54683e-05
1.54111e-05
1.53224e-05
1.5258e-05
1.51691e-05
1.5103e-05
1.50028e-05
1.4922e-05
1.48181e-05
1.47189e-05
1.45822e-05
1.44546e-05
1.42955e-05
1.41457e-05
1.99999e-05
1.98494e-05
1.9539e-05
1.92356e-05
1.90031e-05
1.88617e-05
1.87467e-05
1.86183e-05
1.84737e-05
1.83451e-05
1.82149e-05
1.80963e-05
1.79612e-05
1.78478e-05
1.77053e-05
1.76024e-05
1.74601e-05
1.73602e-05
1.72239e-05
1.71241e-05
1.69962e-05
1.69006e-05
1.67781e-05
1.66831e-05
1.65677e-05
1.64724e-05
1.63652e-05
1.62765e-05
1.61753e-05
1.60964e-05
1.60017e-05
1.59327e-05
1.58421e-05
1.57799e-05
1.56925e-05
1.56356e-05
1.55458e-05
1.54901e-05
1.53991e-05
1.53349e-05
1.52463e-05
1.51749e-05
1.50692e-05
1.49877e-05
1.48759e-05
1.47658e-05
1.46214e-05
1.44879e-05
1.43184e-05
1.4158e-05
1.99999e-05
1.98532e-05
1.9551e-05
1.92533e-05
1.90197e-05
1.88761e-05
1.87643e-05
1.86448e-05
1.85047e-05
1.83771e-05
1.82499e-05
1.81338e-05
1.80023e-05
1.78903e-05
1.77508e-05
1.76497e-05
1.75089e-05
1.74118e-05
1.72761e-05
1.7179e-05
1.7052e-05
1.69588e-05
1.68366e-05
1.67439e-05
1.66293e-05
1.65357e-05
1.64297e-05
1.63415e-05
1.62419e-05
1.61646e-05
1.60714e-05
1.60048e-05
1.59142e-05
1.58544e-05
1.57692e-05
1.57125e-05
1.56237e-05
1.55697e-05
1.54756e-05
1.5413e-05
1.53228e-05
1.52445e-05
1.51356e-05
1.50523e-05
1.49296e-05
1.48099e-05
1.46587e-05
1.45171e-05
1.4335e-05
1.41648e-05
1.99999e-05
1.98569e-05
1.95628e-05
1.92717e-05
1.90382e-05
1.88924e-05
1.87826e-05
1.86714e-05
1.85367e-05
1.84109e-05
1.82864e-05
1.81727e-05
1.80442e-05
1.79339e-05
1.77975e-05
1.76979e-05
1.75587e-05
1.74642e-05
1.7329e-05
1.72347e-05
1.71084e-05
1.70174e-05
1.68956e-05
1.68052e-05
1.66913e-05
1.65993e-05
1.64943e-05
1.64058e-05
1.63093e-05
1.62315e-05
1.61421e-05
1.60746e-05
1.59864e-05
1.59278e-05
1.58454e-05
1.57877e-05
1.57015e-05
1.56469e-05
1.55505e-05
1.54909e-05
1.53949e-05
1.53107e-05
1.52012e-05
1.51121e-05
1.49767e-05
1.48501e-05
1.46914e-05
1.45384e-05
1.43437e-05
1.41651e-05
1.99999e-05
1.98607e-05
1.95742e-05
1.92903e-05
1.90582e-05
1.89104e-05
1.88018e-05
1.86979e-05
1.85693e-05
1.84462e-05
1.8324e-05
1.82123e-05
1.80868e-05
1.79785e-05
1.7845e-05
1.77467e-05
1.76092e-05
1.75169e-05
1.73823e-05
1.72906e-05
1.71647e-05
1.70758e-05
1.69542e-05
1.68663e-05
1.67528e-05
1.6662e-05
1.6558e-05
1.64688e-05
1.63762e-05
1.62958e-05
1.62122e-05
1.6141e-05
1.60574e-05
1.59992e-05
1.59185e-05
1.58602e-05
1.57777e-05
1.57191e-05
1.56236e-05
1.55655e-05
1.54601e-05
1.53736e-05
1.5263e-05
1.51635e-05
1.50166e-05
1.48845e-05
1.47159e-05
1.45493e-05
1.43426e-05
1.41596e-05
1.99999e-05
1.98643e-05
1.95854e-05
1.93088e-05
1.90791e-05
1.89298e-05
1.88217e-05
1.87242e-05
1.86023e-05
1.84827e-05
1.83624e-05
1.82526e-05
1.81297e-05
1.80237e-05
1.78928e-05
1.77958e-05
1.766e-05
1.75696e-05
1.74356e-05
1.73461e-05
1.72205e-05
1.71335e-05
1.70122e-05
1.69266e-05
1.68131e-05
1.67234e-05
1.66196e-05
1.65302e-05
1.64408e-05
1.63578e-05
1.62791e-05
1.62043e-05
1.61254e-05
1.60678e-05
1.59871e-05
1.59297e-05
1.58495e-05
1.5786e-05
1.56938e-05
1.56332e-05
1.55188e-05
1.54327e-05
1.53167e-05
1.52054e-05
1.50491e-05
1.49104e-05
1.47283e-05
1.45487e-05
1.43334e-05
1.4145e-05
1.99999e-05
1.98678e-05
1.95962e-05
1.9327e-05
1.91005e-05
1.89504e-05
1.88425e-05
1.87502e-05
1.86353e-05
1.85198e-05
1.84015e-05
1.82933e-05
1.8173e-05
1.80694e-05
1.79408e-05
1.78452e-05
1.77109e-05
1.76221e-05
1.74886e-05
1.74011e-05
1.72754e-05
1.71902e-05
1.70692e-05
1.69857e-05
1.68716e-05
1.67831e-05
1.66783e-05
1.65904e-05
1.6501e-05
1.64182e-05
1.63407e-05
1.62649e-05
1.61895e-05
1.61314e-05
1.60511e-05
1.59953e-05
1.59143e-05
1.58489e-05
1.57585e-05
1.56915e-05
1.55725e-05
1.54849e-05
1.536e-05
1.52375e-05
1.5073e-05
1.49244e-05
1.47273e-05
1.45375e-05
1.43119e-05
1.41185e-05
1.99999e-05
1.98711e-05
1.96065e-05
1.93445e-05
1.91222e-05
1.89718e-05
1.88641e-05
1.8776e-05
1.86682e-05
1.85572e-05
1.84411e-05
1.83345e-05
1.82167e-05
1.81153e-05
1.7989e-05
1.78946e-05
1.77621e-05
1.7674e-05
1.75417e-05
1.74551e-05
1.73296e-05
1.72459e-05
1.71249e-05
1.70436e-05
1.69278e-05
1.68411e-05
1.67341e-05
1.66492e-05
1.65561e-05
1.64768e-05
1.63966e-05
1.63222e-05
1.62494e-05
1.61882e-05
1.61107e-05
1.60553e-05
1.59715e-05
1.59071e-05
1.58158e-05
1.57413e-05
1.56193e-05
1.55287e-05
1.5392e-05
1.52592e-05
1.50854e-05
1.49247e-05
1.47146e-05
1.45106e-05
1.42788e-05
1.40755e-05
1.99999e-05
1.98743e-05
1.96164e-05
1.93614e-05
1.91437e-05
1.89938e-05
1.88864e-05
1.88016e-05
1.87008e-05
1.85947e-05
1.84812e-05
1.8376e-05
1.8261e-05
1.81612e-05
1.80375e-05
1.79439e-05
1.78134e-05
1.77256e-05
1.75946e-05
1.7508e-05
1.73833e-05
1.73005e-05
1.71796e-05
1.70998e-05
1.69823e-05
1.6897e-05
1.67873e-05
1.67047e-05
1.66079e-05
1.65312e-05
1.6448e-05
1.63749e-05
1.63041e-05
1.62394e-05
1.61652e-05
1.61078e-05
1.6023e-05
1.5958e-05
1.58646e-05
1.57832e-05
1.5658e-05
1.55615e-05
1.5413e-05
1.52695e-05
1.50837e-05
1.49129e-05
1.46834e-05
1.44723e-05
1.42281e-05
1.40138e-05
1.99999e-05
1.98774e-05
1.96258e-05
1.93775e-05
1.91647e-05
1.9016e-05
1.89094e-05
1.88273e-05
1.87332e-05
1.86321e-05
1.85219e-05
1.8418e-05
1.83058e-05
1.82072e-05
1.80862e-05
1.79935e-05
1.78649e-05
1.77772e-05
1.76472e-05
1.75603e-05
1.74364e-05
1.7354e-05
1.72337e-05
1.71541e-05
1.70354e-05
1.69504e-05
1.6839e-05
1.67559e-05
1.66578e-05
1.65802e-05
1.64954e-05
1.64229e-05
1.63523e-05
1.62858e-05
1.62143e-05
1.6152e-05
1.60693e-05
1.60003e-05
1.59044e-05
1.58167e-05
1.56877e-05
1.55827e-05
1.54219e-05
1.52658e-05
1.50711e-05
1.48813e-05
1.46397e-05
1.44158e-05
1.4158e-05
1.39398e-05
1.99999e-05
1.98802e-05
1.96347e-05
1.93927e-05
1.9185e-05
1.90381e-05
1.89328e-05
1.88531e-05
1.87652e-05
1.86694e-05
1.8563e-05
1.84606e-05
1.8351e-05