/*--------------------------------*- C++ -*----------------------------------*\
  =========                 |
  \\      /  F ield         | OpenFOAM: The Open Source CFD Toolbox
   \\    /   O peration     | Website:  https://openfoam.org
    \\  /    A nd           | Version:  7
     \\/     M anipulation  |
\*---------------------------------------------------------------------------*/
FoamFile
{
    version     2.0;
    format      ascii;
    class       volScalarField;
    location    "0.29";
    object      k_0;
}
// * * * * * * * * * * * * * * * * * * * * * * * * * * * * * * * * * * * * * //

dimensions      [0 2 -2 0 0 0 0];

internalField   nonuniform List<scalar> 
70000
(
1.08549e-05
4.21879e-06
2.82438e-06
2.31682e-06
1.99745e-06
1.75704e-06
1.56494e-06
1.40799e-06
1.27706e-06
1.16631e-06
1.07124e-06
9.89236e-07
9.17558e-07
8.54948e-07
7.9941e-07
7.50459e-07
7.06404e-07
6.67291e-07
6.31632e-07
5.99806e-07
5.70483e-07
5.44201e-07
5.19764e-07
4.97794e-07
4.77165e-07
4.58629e-07
4.40975e-07
4.25246e-07
4.09901e-07
3.96527e-07
3.82983e-07
3.71605e-07
3.59496e-07
3.49798e-07
3.38878e-07
3.30567e-07
3.20703e-07
3.13486e-07
3.0465e-07
2.98237e-07
2.9075e-07
2.85582e-07
2.7848e-07
2.76097e-07
2.66733e-07
2.70328e-07
2.60156e-07
2.86576e-07
2.64894e-07
5.24029e-07
1.72794e-05
1.13673e-05
8.52061e-06
7.01048e-06
6.0371e-06
5.31065e-06
4.73086e-06
4.25687e-06
3.86143e-06
3.52695e-06
3.23983e-06
2.99216e-06
2.77565e-06
2.58653e-06
2.41873e-06
2.27083e-06
2.13771e-06
2.01949e-06
1.91173e-06
1.8155e-06
1.72689e-06
1.6474e-06
1.57352e-06
1.50707e-06
1.44466e-06
1.38862e-06
1.33515e-06
1.28764e-06
1.24111e-06
1.20075e-06
1.15966e-06
1.12533e-06
1.0886e-06
1.05932e-06
1.02625e-06
1.00109e-06
9.71312e-07
9.49353e-07
9.22823e-07
9.03152e-07
8.8042e-07
8.64213e-07
8.42396e-07
8.33959e-07
8.07285e-07
8.1145e-07
7.87551e-07
8.42666e-07
7.98762e-07
1.00596e-06
1.93701e-05
1.61297e-05
1.32911e-05
1.12897e-05
9.82843e-06
8.69574e-06
7.77757e-06
7.01952e-06
6.3824e-06
5.84084e-06
5.37417e-06
4.97052e-06
4.61661e-06
4.30691e-06
4.03148e-06
3.78832e-06
3.56907e-06
3.37406e-06
3.19614e-06
3.03697e-06
2.89035e-06
2.75859e-06
2.6361e-06
2.52579e-06
2.42204e-06
2.32898e-06
2.2398e-06
2.16095e-06
2.0831e-06
2.01615e-06
1.94729e-06
1.89031e-06
1.82876e-06
1.78004e-06
1.72476e-06
1.68265e-06
1.63317e-06
1.59598e-06
1.55236e-06
1.5186e-06
1.48072e-06
1.45241e-06
1.41528e-06
1.39946e-06
1.35665e-06
1.35509e-06
1.32154e-06
1.37976e-06
1.33201e-06
1.40841e-06
1.9861e-05
1.826e-05
1.60857e-05
1.42003e-05
1.26401e-05
1.13486e-05
1.02602e-05
9.33776e-06
8.54561e-06
7.86222e-06
7.26666e-06
6.74714e-06
6.28794e-06
5.88373e-06
5.52198e-06
5.20104e-06
4.91026e-06
4.65049e-06
4.4128e-06
4.19931e-06
4.00228e-06
3.82459e-06
3.65902e-06
3.50969e-06
3.36858e-06
3.24235e-06
3.12026e-06
3.01319e-06
2.90607e-06
2.81501e-06
2.71997e-06
2.64224e-06
2.55729e-06
2.49043e-06
2.4144e-06
2.35594e-06
2.28852e-06
2.23595e-06
2.17727e-06
2.12895e-06
2.07741e-06
2.03674e-06
1.98433e-06
1.96033e-06
1.90375e-06
1.89333e-06
1.84781e-06
1.89286e-06
1.85041e-06
1.85554e-06
1.99706e-05
1.78458e-05
1.60748e-05
1.47665e-05
1.36025e-05
1.25377e-05
1.15692e-05
1.07017e-05
9.92015e-06
9.22476e-06
8.6038e-06
8.05156e-06
7.55466e-06
7.11139e-06
6.70921e-06
6.34836e-06
6.01809e-06
5.72042e-06
5.44621e-06
5.19809e-06
4.96787e-06
4.7591e-06
4.5633e-06
4.38644e-06
4.21759e-06
4.06725e-06
3.91956e-06
3.79141e-06
3.66079e-06
3.55125e-06
3.43483e-06
3.34065e-06
3.23649e-06
3.15457e-06
3.06181e-06
2.98882e-06
2.90756e-06
2.84039e-06
2.77049e-06
2.70834e-06
2.64579e-06
2.5949e-06
2.52898e-06
2.49688e-06
2.42846e-06
2.40939e-06
2.3503e-06
2.37478e-06
2.34475e-06
2.30171e-06
2.00095e-05
1.47038e-05
1.37476e-05
1.32108e-05
1.25914e-05
1.19275e-05
1.12782e-05
1.06583e-05
1.00814e-05
9.5481e-06
9.04711e-06
8.5818e-06
8.14722e-06
7.74836e-06
7.37579e-06
7.03371e-06
6.71452e-06
6.42206e-06
6.14907e-06
5.89883e-06
5.66386e-06
5.44887e-06
5.24446e-06
5.05952e-06
4.87958e-06
4.72043e-06
4.56028e-06
4.42315e-06
4.2798e-06
4.16126e-06
4.03253e-06
3.92928e-06
3.81383e-06
3.72223e-06
3.62013e-06
3.53623e-06
3.44797e-06
3.36893e-06
3.29323e-06
3.2205e-06
3.15014e-06
3.09288e-06
3.01653e-06
2.97884e-06
2.90186e-06
2.87591e-06
2.80535e-06
2.80866e-06
2.78274e-06
2.71752e-06
2.01331e-05
1.54679e-05
9.63442e-06
9.39793e-06
9.4929e-06
9.49256e-06
9.43465e-06
9.29772e-06
9.05788e-06
8.78532e-06
8.49096e-06
8.19503e-06
7.90277e-06
7.6209e-06
7.34327e-06
7.08365e-06
6.83596e-06
6.60201e-06
6.37776e-06
6.167e-06
5.96402e-06
5.77541e-06
5.59122e-06
5.42417e-06
5.25607e-06
5.10871e-06
4.95494e-06
4.8254e-06
4.6852e-06
4.57091e-06
4.44338e-06
4.34148e-06
4.22664e-06
4.13326e-06
4.03248e-06
3.94384e-06
3.85753e-06
3.77249e-06
3.69737e-06
3.62036e-06
3.5468e-06
3.48785e-06
3.40744e-06
3.36594e-06
3.28619e-06
3.25581e-06
3.18293e-06
3.16842e-06
3.13582e-06
3.05998e-06
2.01713e-05
1.86762e-05
8.69315e-06
5.54017e-06
5.63047e-06
5.93472e-06
6.29368e-06
6.58017e-06
6.76162e-06
6.87183e-06
6.89381e-06
6.87539e-06
6.82456e-06
6.73783e-06
6.62792e-06
6.50639e-06
6.3687e-06
6.22697e-06
6.08381e-06
5.94239e-06
5.79986e-06
5.66406e-06
5.52567e-06
5.39942e-06
5.26613e-06
5.15245e-06
5.02718e-06
4.92388e-06
4.80584e-06
4.71105e-06
4.60113e-06
4.51298e-06
4.41315e-06
4.32811e-06
4.24094e-06
4.15675e-06
4.08183e-06
4e-06
3.93232e-06
3.85943e-06
3.78981e-06
3.73334e-06
3.65906e-06
3.61387e-06
3.54204e-06
3.50752e-06
3.44283e-06
3.40673e-06
3.37422e-06
3.29787e-06
2.01671e-05
1.9724e-05
1.61681e-05
4.86208e-06
3.04236e-06
3.10575e-06
3.37516e-06
3.80618e-06
4.17349e-06
4.4933e-06
4.74267e-06
4.93465e-06
5.07678e-06
5.1793e-06
5.23936e-06
5.27691e-06
5.28211e-06
5.27394e-06
5.25239e-06
5.21466e-06
5.16545e-06
5.11197e-06
5.04824e-06
4.98682e-06
4.91338e-06
4.84807e-06
4.76693e-06
4.7013e-06
4.61896e-06
4.55407e-06
4.47426e-06
4.40949e-06
4.33588e-06
4.26876e-06
4.20419e-06
4.13473e-06
4.07786e-06
4.00975e-06
3.95653e-06
3.89641e-06
3.83976e-06
3.78996e-06
3.73241e-06
3.68588e-06
3.63301e-06
3.59031e-06
3.54665e-06
3.49577e-06
3.46716e-06
3.39867e-06
2.01476e-05
1.99343e-05
1.90659e-05
1.44997e-05
5.2444e-06
2.15466e-06
1.91478e-06
1.9945e-06
2.20892e-06
2.5093e-06
2.7866e-06
3.04228e-06
3.26902e-06
3.46811e-06
3.63397e-06
3.77416e-06
3.8877e-06
3.97786e-06
4.04997e-06
4.10445e-06
4.14258e-06
4.16868e-06
4.18277e-06
4.18653e-06
4.18283e-06
4.17513e-06
4.15665e-06
4.14161e-06
4.11142e-06
4.08913e-06
4.05395e-06
4.02447e-06
3.98902e-06
3.95183e-06
3.91884e-06
3.87615e-06
3.84456e-06
3.80019e-06
3.76641e-06
3.72465e-06
3.68647e-06
3.64803e-06
3.61038e-06
3.56994e-06
3.53609e-06
3.49518e-06
3.46706e-06
3.41961e-06
3.39681e-06
3.34179e-06
2.01216e-05
1.99661e-05
1.96425e-05
1.85467e-05
1.52134e-05
8.36035e-06
3.10495e-06
1.63313e-06
1.44284e-06
1.45052e-06
1.52871e-06
1.69186e-06
1.87576e-06
2.05461e-06
2.22701e-06
2.38836e-06
2.53766e-06
2.67119e-06
2.79061e-06
2.89717e-06
2.98868e-06
3.07031e-06
3.13734e-06
3.19767e-06
3.24343e-06
3.287e-06
3.31606e-06
3.34564e-06
3.36225e-06
3.3791e-06
3.38675e-06
3.3933e-06
3.39372e-06
3.3919e-06
3.38825e-06
3.37931e-06
3.37254e-06
3.35819e-06
3.34855e-06
3.33183e-06
3.31764e-06
3.29871e-06
3.28317e-06
3.25951e-06
3.24391e-06
3.21695e-06
3.20129e-06
3.16972e-06
3.1551e-06
3.11988e-06
2.00981e-05
1.99327e-05
1.97574e-05
1.93528e-05
1.85067e-05
1.65373e-05
1.23281e-05
6.85557e-06
2.98101e-06
1.49154e-06
1.24307e-06
1.14852e-06
1.15378e-06
1.19802e-06
1.29295e-06
1.40182e-06
1.51619e-06
1.62862e-06
1.73974e-06
1.84819e-06
1.94816e-06
2.04538e-06
2.13102e-06
2.21482e-06
2.28643e-06
2.35637e-06
2.41545e-06
2.47176e-06
2.5204e-06
2.56395e-06
2.60358e-06
2.63617e-06
2.66805e-06
2.6913e-06
2.71591e-06
2.73227e-06
2.75037e-06
2.76092e-06
2.77288e-06
2.77984e-06
2.78578e-06
2.78877e-06
2.78963e-06
2.78842e-06
2.78597e-06
2.77972e-06
2.7747e-06
2.76287e-06
2.75725e-06
2.74295e-06
2.00781e-05
1.98876e-05
1.9757e-05
1.94613e-05
1.91465e-05
1.86416e-05
1.75557e-05
1.54262e-05
1.17337e-05
7.42897e-06
3.96292e-06
1.90052e-06
1.20539e-06
1.05706e-06
9.81324e-07
9.45171e-07
9.5769e-07
9.94625e-07
1.0576e-06
1.12479e-06
1.19435e-06
1.26807e-06
1.33853e-06
1.41274e-06
1.48129e-06
1.55003e-06
1.61412e-06
1.67496e-06
1.73412e-06
1.7865e-06
1.84005e-06
1.88455e-06
1.93201e-06
1.9698e-06
2.01008e-06
2.04278e-06
2.07624e-06
2.10405e-06
2.13104e-06
2.15462e-06
2.17627e-06
2.19447e-06
2.21147e-06
2.22398e-06
2.23701e-06
2.24397e-06
2.25202e-06
2.25437e-06
2.25867e-06
2.26126e-06
2.00614e-05
1.98539e-05
1.97344e-05
1.94716e-05
1.92557e-05
1.90477e-05
1.87362e-05
1.81906e-05
1.70949e-05
1.52269e-05
1.25483e-05
9.20039e-06
5.92731e-06
3.43613e-06
1.85109e-06
1.1565e-06
9.62685e-07
8.90438e-07
8.35067e-07
7.99107e-07
8.02338e-07
8.18065e-07
8.50254e-07
8.91757e-07
9.32302e-07
9.77217e-07
1.02345e-06
1.06889e-06
1.11815e-06
1.1622e-06
1.2112e-06
1.25238e-06
1.29886e-06
1.33748e-06
1.37954e-06
1.41607e-06
1.45343e-06
1.48736e-06
1.52001e-06
1.55044e-06
1.57959e-06
1.60533e-06
1.63078e-06
1.65113e-06
1.67328e-06
1.68844e-06
1.70572e-06
1.71608e-06
1.72917e-06
1.74007e-06
2.00475e-05
1.98304e-05
1.97079e-05
1.94495e-05
1.92728e-05
1.91156e-05
1.89658e-05
1.87502e-05
1.84618e-05
1.79096e-05
1.70727e-05
1.56845e-05
1.38563e-05
1.14829e-05
8.7828e-06
6.16027e-06
3.99574e-06
2.43625e-06
1.46237e-06
1.01293e-06
8.57834e-07
7.96965e-07
7.48603e-07
7.09957e-07
6.83541e-07
6.84274e-07
6.91743e-07
7.08172e-07
7.3294e-07
7.56166e-07
7.84693e-07
8.09977e-07
8.41571e-07
8.68969e-07
9.00878e-07
9.30183e-07
9.60807e-07
9.90436e-07
1.01904e-06
1.04699e-06
1.0743e-06
1.09962e-06
1.12508e-06
1.14641e-06
1.16992e-06
1.18805e-06
1.20721e-06
1.222e-06
1.23701e-06
1.25244e-06
2.00362e-05
1.98125e-05
1.96854e-05
1.94192e-05
1.92588e-05
1.91092e-05
1.90008e-05
1.88493e-05
1.87116e-05
1.84992e-05
1.82448e-05
1.78276e-05
1.72197e-05
1.6343e-05
1.51233e-05
1.35716e-05
1.17324e-05
9.61799e-06
7.45423e-06
5.44606e-06
3.78178e-06
2.52284e-06
1.63502e-06
1.1083e-06
8.58121e-07
7.5647e-07
7.07772e-07
6.70555e-07
6.35456e-07
6.0818e-07
5.90591e-07
5.88184e-07
5.91512e-07
5.98904e-07
6.12649e-07
6.26708e-07
6.42008e-07
6.58482e-07
6.74541e-07
6.92227e-07
7.09873e-07
7.28021e-07
7.46305e-07
7.63025e-07
7.80991e-07
7.97102e-07
8.12327e-07
8.26137e-07
8.38828e-07
8.54292e-07
2.00271e-05
1.97986e-05
1.96662e-05
1.93973e-05
1.92331e-05
1.90821e-05
1.89824e-05
1.88534e-05
1.8735e-05
1.85959e-05
1.84563e-05
1.82872e-05
1.80736e-05
1.77874e-05
1.73929e-05
1.68432e-05
1.61194e-05
1.51811e-05
1.40104e-05
1.26449e-05
1.11054e-05
9.41023e-06
7.67469e-06
6.02818e-06
4.54559e-06
3.33332e-06
2.38028e-06
1.66387e-06
1.17497e-06
8.88894e-07
7.41966e-07
6.71468e-07
6.31975e-07
6.02532e-07
5.75071e-07
5.49513e-07
5.28676e-07
5.15563e-07
5.07845e-07
5.08122e-07
5.10272e-07
5.15362e-07
5.2196e-07
5.29469e-07
5.37471e-07
5.45936e-07
5.53268e-07
5.61069e-07
5.68304e-07
5.78261e-07
2.002e-05
1.97901e-05
1.9646e-05
1.9381e-05
1.9209e-05
1.90534e-05
1.89441e-05
1.88274e-05
1.87131e-05
1.85894e-05
1.84681e-05
1.83429e-05
1.8215e-05
1.80722e-05
1.79125e-05
1.77111e-05
1.74621e-05
1.71363e-05
1.67216e-05
1.61829e-05
1.5531e-05
1.47221e-05
1.37809e-05
1.26861e-05
1.15074e-05
1.02127e-05
8.84615e-06
7.47428e-06
6.15319e-06
4.94512e-06
3.87118e-06
2.98819e-06
2.26877e-06
1.69685e-06
1.2665e-06
9.68518e-07
7.81936e-07
6.74017e-07
6.13237e-07
5.77652e-07
5.52117e-07
5.31546e-07
5.12306e-07
4.94533e-07
4.78618e-07
4.66164e-07
4.57088e-07
4.51495e-07
4.53309e-07
4.60016e-07
2.00144e-05
1.97902e-05
1.96196e-05
1.93676e-05
1.91887e-05
1.90267e-05
1.89084e-05
1.87912e-05
1.86732e-05
1.85534e-05
1.84378e-05
1.83206e-05
1.82059e-05
1.80865e-05
1.79718e-05
1.78476e-05
1.77223e-05
1.75761e-05
1.7416e-05
1.72129e-05
1.69809e-05
1.66829e-05
1.63314e-05
1.58931e-05
1.53814e-05
1.47762e-05
1.40808e-05
1.32884e-05
1.24192e-05
1.14683e-05
1.04831e-05
9.43113e-06
8.35169e-06
7.28033e-06
6.24514e-06
5.27557e-06
4.39333e-06
3.60754e-06
2.94255e-06
2.3854e-06
1.92036e-06
1.54257e-06
1.24399e-06
1.01778e-06
8.55568e-07
7.42546e-07
6.7111e-07
6.31352e-07
6.41706e-07
6.87289e-07
2.00102e-05
1.97943e-05
1.9593e-05
1.93535e-05
1.91704e-05
1.90011e-05
1.88753e-05
1.87551e-05
1.86334e-05
1.85102e-05
1.8392e-05
1.82739e-05
1.81605e-05
1.80478e-05
1.79389e-05
1.78282e-05
1.77197e-05
1.76096e-05
1.75021e-05
1.73848e-05
1.72704e-05
1.71362e-05
1.69926e-05
1.68223e-05
1.66291e-05
1.63999e-05
1.61306e-05
1.58204e-05
1.54561e-05
1.50388e-05
1.45662e-05
1.404e-05
1.34503e-05
1.28119e-05
1.21144e-05
1.13887e-05
1.06172e-05
9.84109e-06
9.03122e-06
8.22291e-06
7.42307e-06
6.65576e-06
5.93401e-06
5.26383e-06
4.66166e-06
4.12581e-06
3.64785e-06
3.26067e-06
2.93698e-06
2.93765e-06
2.0007e-05
1.98018e-05
1.95687e-05
1.93397e-05
1.91535e-05
1.8977e-05
1.88438e-05
1.87206e-05
1.85945e-05
1.84687e-05
1.8345e-05
1.82255e-05
1.81067e-05
1.79932e-05
1.78805e-05
1.77715e-05
1.76646e-05
1.75628e-05
1.74608e-05
1.73583e-05
1.7262e-05
1.71599e-05
1.70609e-05
1.69597e-05
1.68551e-05
1.67475e-05
1.6621e-05
1.65002e-05
1.63469e-05
1.61873e-05
1.5999e-05
1.57938e-05
1.55537e-05
1.52942e-05
1.49871e-05
1.46677e-05
1.42951e-05
1.39026e-05
1.34693e-05
1.30171e-05
1.25254e-05
1.20182e-05
1.1496e-05
1.09607e-05
1.0429e-05
9.91077e-06
9.39777e-06
8.90933e-06
8.4202e-06
8.09922e-06
2.00047e-05
1.98103e-05
1.95461e-05
1.9326e-05
1.9137e-05
1.89547e-05
1.88134e-05
1.86876e-05
1.85569e-05
1.84289e-05
1.82996e-05
1.8178e-05
1.80535e-05
1.79389e-05
1.78203e-05
1.77108e-05
1.75973e-05
1.74952e-05
1.73892e-05
1.72867e-05
1.71928e-05
1.70969e-05
1.70034e-05
1.6914e-05
1.68226e-05
1.67389e-05
1.66371e-05
1.65643e-05
1.64631e-05
1.6379e-05
1.62808e-05
1.6187e-05
1.60777e-05
1.59723e-05
1.58371e-05
1.57178e-05
1.55617e-05
1.54016e-05
1.52225e-05
1.50384e-05
1.48214e-05
1.45985e-05
1.43587e-05
1.40985e-05
1.38315e-05
1.35556e-05
1.3287e-05
1.29708e-05
1.26678e-05
1.23393e-05
2.0003e-05
1.98192e-05
1.95251e-05
1.9312e-05
1.91205e-05
1.89342e-05
1.87843e-05
1.86558e-05
1.8521e-05
1.8391e-05
1.82562e-05
1.81323e-05
1.80023e-05
1.78862e-05
1.77619e-05
1.76508e-05
1.75326e-05
1.7428e-05
1.7318e-05
1.72126e-05
1.71143e-05
1.70154e-05
1.69178e-05
1.68279e-05
1.67339e-05
1.66549e-05
1.65562e-05
1.64926e-05
1.63982e-05
1.63274e-05
1.62456e-05
1.61732e-05
1.60918e-05
1.60231e-05
1.59338e-05
1.58738e-05
1.5787e-05
1.57045e-05
1.56213e-05
1.55438e-05
1.54416e-05
1.53489e-05
1.52469e-05
1.51364e-05
1.50186e-05
1.49098e-05
1.4792e-05
1.4653e-05
1.44893e-05
1.43061e-05
2.00017e-05
1.98276e-05
1.95058e-05
1.92972e-05
1.91036e-05
1.89154e-05
1.87566e-05
1.86251e-05
1.84869e-05
1.83549e-05
1.82156e-05
1.80887e-05
1.79542e-05
1.78359e-05
1.77068e-05
1.7593e-05
1.74714e-05
1.73633e-05
1.72501e-05
1.71417e-05
1.70395e-05
1.69381e-05
1.68361e-05
1.67439e-05
1.66452e-05
1.65626e-05
1.64594e-05
1.63926e-05
1.62956e-05
1.62226e-05
1.61412e-05
1.60712e-05
1.5996e-05
1.59323e-05
1.58521e-05
1.58013e-05
1.5728e-05
1.56601e-05
1.55974e-05
1.55432e-05
1.54688e-05
1.54116e-05
1.53483e-05
1.52884e-05
1.52206e-05
1.5174e-05
1.5112e-05
1.50527e-05
1.49555e-05
1.48503e-05
2.00009e-05
1.98305e-05
1.94896e-05
1.92821e-05
1.90864e-05
1.88986e-05
1.8731e-05
1.85961e-05
1.84553e-05
1.83212e-05
1.81779e-05
1.80479e-05
1.79097e-05
1.77887e-05
1.76557e-05
1.75389e-05
1.74147e-05
1.73025e-05
1.71866e-05
1.70755e-05
1.69693e-05
1.68656e-05
1.67603e-05
1.66654e-05
1.65629e-05
1.64768e-05
1.63721e-05
1.62999e-05
1.62003e-05
1.61238e-05
1.60388e-05
1.59647e-05
1.58853e-05
1.58174e-05
1.57357e-05
1.56827e-05
1.56062e-05
1.55406e-05
1.54788e-05
1.54292e-05
1.53611e-05
1.53101e-05
1.52516e-05
1.52032e-05
1.51463e-05
1.51122e-05
1.50606e-05
1.50231e-05
1.49454e-05
1.48635e-05
2.00003e-05
1.98289e-05
1.94765e-05
1.92664e-05
1.9069e-05
1.88837e-05
1.87077e-05
1.85691e-05
1.84262e-05
1.82905e-05
1.81435e-05
1.80107e-05
1.78692e-05
1.77456e-05
1.76091e-05
1.74894e-05
1.73629e-05
1.7247e-05
1.71282e-05
1.70151e-05
1.69048e-05
1.67989e-05
1.66913e-05
1.65931e-05
1.64877e-05
1.6398e-05
1.62932e-05
1.62155e-05
1.61142e-05
1.60352e-05
1.5947e-05
1.58704e-05
1.57874e-05
1.57167e-05
1.56323e-05
1.55763e-05
1.54938e-05
1.54291e-05
1.53617e-05
1.53068e-05
1.52366e-05
1.51845e-05
1.51197e-05
1.50719e-05
1.5017e-05
1.49808e-05
1.49277e-05
1.48922e-05
1.48225e-05
1.47325e-05
2e-05
1.98271e-05
1.94653e-05
1.92493e-05
1.90507e-05
1.88704e-05
1.86868e-05
1.85443e-05
1.83996e-05
1.82631e-05
1.81126e-05
1.79779e-05
1.78331e-05
1.77073e-05
1.75678e-05
1.74456e-05
1.73168e-05
1.7198e-05
1.70759e-05
1.69615e-05
1.68472e-05
1.6739e-05
1.66297e-05
1.65283e-05
1.64204e-05
1.63272e-05
1.62227e-05
1.61399e-05
1.60371e-05
1.59565e-05
1.58654e-05
1.57871e-05
1.57008e-05
1.56293e-05
1.55422e-05
1.5484e-05
1.53975e-05
1.53332e-05
1.52623e-05
1.52031e-05
1.51305e-05
1.50784e-05
1.50074e-05
1.49566e-05
1.49025e-05
1.48631e-05
1.4804e-05
1.47605e-05
1.46973e-05
1.4596e-05
1.99999e-05
1.98259e-05
1.94571e-05
1.92319e-05
1.90327e-05
1.88586e-05
1.8669e-05
1.85225e-05
1.83761e-05
1.82395e-05
1.80857e-05
1.795e-05
1.7802e-05
1.76747e-05
1.75324e-05
1.74083e-05
1.72769e-05
1.71562e-05
1.70306e-05
1.69156e-05
1.67975e-05
1.66874e-05
1.65765e-05
1.64721e-05
1.63619e-05
1.62659e-05
1.61612e-05
1.60742e-05
1.59697e-05
1.58885e-05
1.57937e-05
1.57156e-05
1.56252e-05
1.55541e-05
1.5465e-05
1.54041e-05
1.53159e-05
1.52516e-05
1.51776e-05
1.51164e-05
1.50415e-05
1.49891e-05
1.49151e-05
1.48613e-05
1.48063e-05
1.47665e-05
1.46994e-05
1.46508e-05
1.45837e-05
1.44868e-05
1.99999e-05
1.98252e-05
1.94518e-05
1.92151e-05
1.90157e-05
1.88487e-05
1.86552e-05
1.85045e-05
1.83564e-05
1.82204e-05
1.80636e-05
1.79279e-05
1.77766e-05
1.76486e-05
1.75036e-05
1.73786e-05
1.72444e-05
1.71226e-05
1.69936e-05
1.68782e-05
1.67566e-05
1.66454e-05
1.65324e-05
1.64261e-05
1.63133e-05
1.62154e-05
1.61096e-05
1.60199e-05
1.59131e-05
1.58322e-05
1.57331e-05
1.56566e-05
1.55619e-05
1.5491e-05
1.54013e-05
1.53368e-05
1.52485e-05
1.51845e-05
1.51062e-05
1.50452e-05
1.49691e-05
1.49137e-05
1.48396e-05
1.47844e-05
1.47265e-05
1.46854e-05
1.46133e-05
1.45599e-05
1.44862e-05
1.43907e-05
1.99999e-05
1.98248e-05
1.9449e-05
1.91999e-05
1.90004e-05
1.88405e-05
1.86458e-05
1.84908e-05
1.83412e-05
1.82059e-05
1.80472e-05
1.7912e-05
1.77576e-05
1.76298e-05
1.74822e-05
1.73569e-05
1.72199e-05
1.70978e-05
1.69658e-05
1.68502e-05
1.67255e-05
1.66137e-05
1.64985e-05
1.6391e-05
1.62758e-05
1.61765e-05
1.60692e-05
1.59777e-05
1.58691e-05
1.57883e-05
1.56853e-05
1.56107e-05
1.55123e-05
1.54411e-05
1.53518e-05
1.5284e-05
1.51953e-05
1.51327e-05
1.50493e-05
1.49893e-05
1.49131e-05
1.48532e-05
1.47795e-05
1.47251e-05
1.46631e-05
1.46171e-05
1.45444e-05
1.44857e-05
1.44033e-05
1.43061e-05
1.99999e-05
1.98249e-05
1.94487e-05
1.9187e-05
1.89872e-05
1.88339e-05
1.86409e-05
1.84816e-05
1.83307e-05
1.81963e-05
1.80368e-05
1.79024e-05
1.77456e-05
1.76185e-05
1.74686e-05
1.73438e-05
1.72042e-05
1.70822e-05
1.69478e-05
1.68322e-05
1.6705e-05
1.65931e-05
1.64755e-05
1.63676e-05
1.62503e-05
1.615e-05
1.60411e-05
1.59485e-05
1.58386e-05
1.57574e-05
1.56519e-05
1.55787e-05
1.54773e-05
1.54063e-05
1.53163e-05
1.52476e-05
1.51575e-05
1.50959e-05
1.50091e-05
1.49494e-05
1.48731e-05
1.48097e-05
1.47354e-05
1.46827e-05
1.46161e-05
1.45637e-05
1.44908e-05
1.44277e-05
1.43351e-05
1.42352e-05
1.99999e-05
1.98255e-05
1.94507e-05
1.91769e-05
1.89764e-05
1.88285e-05
1.86404e-05
1.84772e-05
1.83253e-05
1.81917e-05
1.80329e-05
1.78993e-05
1.77408e-05
1.7615e-05
1.74635e-05
1.73395e-05
1.71978e-05
1.70763e-05
1.69403e-05
1.68246e-05
1.66956e-05
1.6584e-05
1.64642e-05
1.63563e-05
1.62375e-05
1.61364e-05
1.60261e-05
1.59329e-05
1.58223e-05
1.57403e-05
1.56336e-05
1.55615e-05
1.54571e-05
1.53878e-05
1.52957e-05
1.52278e-05
1.51368e-05
1.50742e-05
1.49871e-05
1.49265e-05
1.4849e-05
1.47846e-05
1.47086e-05
1.46563e-05
1.45855e-05
1.45274e-05
1.4452e-05
1.43847e-05
1.42832e-05
1.41784e-05
1.99999e-05
1.98265e-05
1.94552e-05
1.91703e-05
1.89679e-05
1.88249e-05
1.86435e-05
1.84777e-05
1.8325e-05
1.81924e-05
1.80352e-05
1.79023e-05
1.77434e-05
1.76188e-05
1.74665e-05
1.73435e-05
1.72006e-05
1.70799e-05
1.69429e-05
1.68275e-05
1.66974e-05
1.65863e-05
1.6465e-05
1.63574e-05
1.62379e-05
1.61362e-05
1.6025e-05
1.59315e-05
1.58207e-05
1.57377e-05
1.56311e-05
1.55593e-05
1.54529e-05
1.53857e-05
1.52914e-05
1.52245e-05
1.51336e-05
1.50687e-05
1.49825e-05
1.49219e-05
1.48408e-05
1.47773e-05
1.47005e-05
1.46452e-05
1.45708e-05
1.45089e-05
1.44283e-05
1.4355e-05
1.42469e-05
1.41368e-05
1.99999e-05
1.9828e-05
1.94618e-05
1.91673e-05
1.89623e-05
1.88226e-05
1.86504e-05
1.84829e-05
1.83293e-05
1.81973e-05
1.80429e-05
1.79109e-05
1.77522e-05
1.76294e-05
1.74765e-05
1.73551e-05
1.7211e-05
1.70917e-05
1.69539e-05
1.6839e-05
1.67082e-05
1.65979e-05
1.64752e-05
1.63682e-05
1.62482e-05
1.61462e-05
1.60345e-05
1.59409e-05
1.58304e-05
1.57466e-05
1.56409e-05
1.55686e-05
1.5462e-05
1.5396e-05
1.53006e-05
1.52346e-05
1.51439e-05
1.50777e-05
1.49919e-05
1.49319e-05
1.48475e-05
1.47848e-05
1.47078e-05
1.46484e-05
1.45702e-05
1.45064e-05
1.44196e-05
1.43377e-05
1.42237e-05
1.41101e-05
1.99999e-05
1.983e-05
1.94702e-05
1.9168e-05
1.89592e-05
1.88221e-05
1.86598e-05
1.84928e-05
1.83387e-05
1.82075e-05
1.80565e-05
1.79252e-05
1.7768e-05
1.76472e-05
1.74943e-05
1.73751e-05
1.72302e-05
1.71129e-05
1.69748e-05
1.6861e-05
1.673e-05
1.6621e-05
1.64973e-05
1.63912e-05
1.62714e-05
1.61694e-05
1.60572e-05
1.59636e-05
1.58542e-05
1.57695e-05
1.5666e-05
1.5592e-05
1.54869e-05
1.54221e-05
1.53257e-05
1.52614e-05
1.51703e-05
1.51039e-05
1.50181e-05
1.49583e-05
1.48711e-05
1.48088e-05
1.4731e-05
1.46666e-05
1.45838e-05
1.45173e-05
1.44239e-05
1.4333e-05
1.42122e-05
1.40955e-05
1.99999e-05
1.98325e-05
1.94802e-05
1.91722e-05
1.89591e-05
1.88233e-05
1.86711e-05
1.85066e-05
1.83523e-05
1.82219e-05
1.80746e-05
1.79444e-05
1.77898e-05
1.76708e-05
1.75183e-05
1.74017e-05
1.72565e-05
1.71416e-05
1.70034e-05
1.68911e-05
1.67603e-05
1.66529e-05
1.65287e-05
1.6424e-05
1.63048e-05
1.62032e-05
1.60912e-05
1.59977e-05
1.58901e-05
1.58047e-05
1.5704e-05
1.56276e-05
1.55263e-05
1.54616e-05
1.5365e-05
1.53032e-05
1.52104e-05
1.51459e-05
1.506e-05
1.49993e-05
1.4911e-05
1.48488e-05
1.4769e-05
1.47001e-05
1.4613e-05
1.45429e-05
1.44418e-05
1.43421e-05
1.4213e-05
1.40922e-05
1.99999e-05
1.98354e-05
1.9491e-05
1.91802e-05
1.89619e-05
1.88265e-05
1.86842e-05
1.8524e-05
1.83702e-05
1.82403e-05
1.80966e-05
1.79679e-05
1.78168e-05
1.76992e-05
1.75477e-05
1.74341e-05
1.72888e-05
1.71767e-05
1.70386e-05
1.69284e-05
1.67979e-05
1.66924e-05
1.65682e-05
1.64651e-05
1.63467e-05
1.62457e-05
1.61343e-05
1.60412e-05
1.59357e-05
1.58498e-05
1.5752e-05
1.56734e-05
1.55771e-05
1.55115e-05
1.54157e-05
1.53563e-05
1.52618e-05
1.52001e-05
1.51138e-05
1.50516e-05
1.4963e-05
1.4901e-05
1.48171e-05
1.47445e-05
1.46537e-05
1.45781e-05
1.44688e-05
1.43616e-05
1.42238e-05
1.40979e-05
1.99999e-05
1.98386e-05
1.95027e-05
1.91909e-05
1.8968e-05
1.8832e-05
1.86986e-05
1.85446e-05
1.83919e-05
1.82623e-05
1.81221e-05
1.79954e-05
1.78482e-05
1.77318e-05
1.75818e-05
1.74713e-05
1.73262e-05
1.7217e-05
1.70792e-05
1.69714e-05
1.68414e-05
1.67382e-05
1.66142e-05
1.6513e-05
1.63953e-05
1.62954e-05
1.61848e-05
1.60925e-05
1.59889e-05
1.59033e-05
1.58078e-05
1.57284e-05
1.56369e-05
1.55699e-05
1.54764e-05
1.5418e-05
1.53234e-05
1.5264e-05
1.5177e-05
1.51135e-05
1.50248e-05
1.49624e-05
1.48736e-05
1.47974e-05
1.47028e-05
1.46207e-05
1.45023e-05
1.43877e-05
1.42424e-05
1.411e-05
1.99999e-05
1.9842e-05
1.95147e-05
1.9204e-05
1.8977e-05
1.88397e-05
1.87139e-05
1.85676e-05
1.84167e-05
1.82872e-05
1.81504e-05
1.80262e-05
1.78832e-05
1.77677e-05
1.76198e-05
1.75122e-05
1.73677e-05
1.72616e-05
1.71243e-05
1.70191e-05
1.68896e-05
1.67889e-05
1.66653e-05
1.65662e-05
1.64492e-05
1.63506e-05
1.62411e-05
1.61499e-05
1.60476e-05
1.59634e-05
1.5869e-05
1.57914e-05
1.57026e-05
1.56353e-05
1.55444e-05
1.54862e-05
1.53932e-05
1.5335e-05
1.52471e-05
1.51831e-05
1.50939e-05
1.50304e-05
1.49358e-05
1.48567e-05
1.47579e-05
1.46678e-05
1.45397e-05
1.44182e-05
1.42663e-05
1.41258e-05
1.99999e-05
1.98457e-05
1.95269e-05
1.92191e-05
1.89888e-05
1.88496e-05
1.87299e-05
1.85923e-05
1.84441e-05
1.83148e-05
1.81813e-05
1.80598e-05
1.79209e-05
1.78063e-05
1.7661e-05
1.75559e-05
1.74123e-05
1.73094e-05
1.71725e-05
1.70701e-05
1.69413e-05
1.68432e-05
1.67202e-05
1.66231e-05
1.65069e-05
1.64098e-05
1.63016e-05
1.62117e-05
1.61101e-05
1.60284e-05
1.5934e-05
1.58604e-05
1.57715e-05
1.5706e-05
1.56172e-05
1.55593e-05
1.54682e-05
1.54109e-05
1.53218e-05
1.52574e-05
1.51683e-05
1.51018e-05
1.5001e-05
1.49202e-05
1.48159e-05
1.4716e-05
1.45789e-05
1.44512e-05
1.42918e-05
1.41414e-05
1.99999e-05
1.98494e-05
1.9539e-05
1.92357e-05
1.90032e-05
1.88619e-05
1.87468e-05
1.86183e-05
1.84735e-05
1.83447e-05
1.82144e-05
1.80956e-05
1.79606e-05
1.78471e-05
1.77047e-05
1.76016e-05
1.74593e-05
1.73595e-05
1.72231e-05
1.71234e-05
1.69955e-05
1.69e-05
1.67774e-05
1.66825e-05
1.6567e-05
1.64718e-05
1.63647e-05
1.6276e-05
1.6175e-05
1.60962e-05
1.60016e-05
1.59327e-05
1.58421e-05
1.578e-05
1.56926e-05
1.56355e-05
1.55456e-05
1.54898e-05
1.53984e-05
1.53343e-05
1.52454e-05
1.51733e-05
1.50673e-05
1.49859e-05
1.48734e-05
1.47626e-05
1.46181e-05
1.44843e-05
1.43142e-05
1.41532e-05
1.99999e-05
1.98532e-05
1.9551e-05
1.92534e-05
1.90199e-05
1.88763e-05
1.87644e-05
1.86448e-05
1.85045e-05
1.83767e-05
1.82494e-05
1.81332e-05
1.80017e-05
1.78895e-05
1.77501e-05
1.76489e-05
1.75081e-05
1.7411e-05
1.72752e-05
1.71783e-05
1.70512e-05
1.69581e-05
1.68359e-05
1.67433e-05
1.66285e-05
1.65351e-05
1.64291e-05
1.6341e-05
1.62416e-05
1.61644e-05
1.60714e-05
1.60047e-05
1.59142e-05
1.58545e-05
1.57693e-05
1.57124e-05
1.56236e-05
1.55693e-05
1.54749e-05
1.54124e-05
1.53217e-05
1.52428e-05
1.51338e-05
1.50503e-05
1.49267e-05
1.48066e-05
1.46553e-05
1.45132e-05
1.43304e-05
1.41598e-05
1.99999e-05
1.98569e-05
1.95627e-05
1.92718e-05
1.90385e-05
1.88927e-05
1.87827e-05
1.86715e-05
1.85365e-05
1.84106e-05
1.82859e-05
1.8172e-05
1.80436e-05
1.79331e-05
1.77968e-05
1.7697e-05
1.75579e-05
1.74634e-05
1.73281e-05
1.72339e-05
1.71076e-05
1.70167e-05
1.68947e-05
1.68045e-05
1.66904e-05
1.65986e-05
1.64936e-05
1.64053e-05
1.63089e-05
1.62312e-05
1.6142e-05
1.60745e-05
1.59865e-05
1.59279e-05
1.58455e-05
1.57875e-05
1.57014e-05
1.56464e-05
1.55498e-05
1.54902e-05
1.53935e-05
1.53089e-05
1.51994e-05
1.51097e-05
1.49735e-05
1.48467e-05
1.46876e-05
1.4534e-05
1.43387e-05
1.416e-05
1.99999e-05
1.98606e-05
1.95742e-05
1.92904e-05
1.90584e-05
1.89107e-05
1.88019e-05
1.8698e-05
1.85692e-05
1.84459e-05
1.83235e-05
1.82116e-05
1.80861e-05
1.79776e-05
1.78442e-05
1.77457e-05
1.76083e-05
1.7516e-05
1.73813e-05
1.72897e-05
1.71638e-05
1.7075e-05
1.69533e-05
1.68655e-05
1.67519e-05
1.66613e-05
1.65571e-05
1.64681e-05
1.63757e-05
1.62955e-05
1.6212e-05
1.61408e-05
1.60575e-05
1.59993e-05
1.59186e-05
1.58601e-05
1.57775e-05
1.57185e-05
1.5623e-05
1.55647e-05
1.54584e-05
1.53718e-05
1.52611e-05
1.51607e-05
1.50132e-05
1.4881e-05
1.47118e-05
1.45444e-05
1.43374e-05
1.41547e-05
1.99999e-05
1.98643e-05
1.95854e-05
1.93089e-05
1.90793e-05
1.89302e-05
1.8822e-05
1.87243e-05
1.86022e-05
1.84823e-05
1.83619e-05
1.82519e-05
1.8129e-05
1.80228e-05
1.7892e-05
1.77948e-05
1.76591e-05
1.75686e-05
1.74345e-05
1.73452e-05
1.72195e-05
1.71326e-05
1.70112e-05
1.69257e-05
1.68121e-05
1.67225e-05
1.66186e-05
1.65295e-05
1.64402e-05
1.63575e-05
1.62789e-05
1.62041e-05
1.61255e-05
1.60679e-05
1.5987e-05
1.59296e-05
1.58493e-05
1.57854e-05
1.56932e-05
1.56321e-05
1.55169e-05
1.5431e-05
1.53145e-05
1.52023e-05
1.50456e-05
1.49067e-05
1.47238e-05
1.45436e-05
1.43282e-05
1.414e-05
1.99999e-05
1.98677e-05
1.95961e-05
1.93271e-05
1.91008e-05
1.89508e-05
1.88428e-05
1.87504e-05
1.86352e-05
1.85195e-05
1.8401e-05
1.82926e-05
1.81723e-05
1.80684e-05
1.794e-05
1.78441e-05
1.77099e-05
1.7621e-05
1.74875e-05
1.74001e-05
1.72744e-05
1.71892e-05
1.70681e-05
1.69848e-05
1.68704e-05
1.67821e-05
1.66773e-05
1.65897e-05
1.65004e-05
1.64178e-05
1.63404e-05
1.62646e-05
1.61896e-05
1.61313e-05
1.60511e-05
1.59952e-05
1.5914e-05
1.58483e-05
1.57579e-05
1.56902e-05
1.55706e-05
1.54831e-05
1.53574e-05
1.52342e-05
1.50693e-05
1.49204e-05
1.47224e-05
1.45322e-05
1.43065e-05
1.41132e-05
1.99999e-05
1.98711e-05
1.96065e-05
1.93446e-05
1.91225e-05
1.89723e-05
1.88645e-05
1.87762e-05
1.86682e-05
1.8557e-05
1.84406e-05
1.83337e-05
1.8216e-05
1.81143e-05
1.79881e-05
1.78934e-05
1.7761e-05
1.76729e-05
1.75405e-05
1.7454e-05
1.73285e-05
1.72449e-05
1.71238e-05
1.70426e-05
1.69266e-05
1.684e-05
1.67329e-05
1.66483e-05
1.65553e-05
1.64763e-05
1.63962e-05
1.6322e-05
1.62494e-05
1.61881e-05
1.61107e-05
1.60552e-05
1.59711e-05
1.59066e-05
1.58151e-05
1.57397e-05
1.56174e-05
1.55267e-05
1.53891e-05
1.52556e-05
1.50816e-05
1.49202e-05
1.47093e-05
1.45051e-05
1.42733e-05
1.40698e-05
1.99999e-05
1.98743e-05
1.96164e-05
1.93615e-05
1.9144e-05
1.89943e-05
1.88869e-05
1.88019e-05
1.87009e-05
1.85945e-05
1.84808e-05
1.83753e-05
1.82603e-05
1.81602e-05
1.80366e-05
1.79428e-05
1.78123e-05
1.77244e-05
1.75933e-05
1.75069e-05
1.73821e-05
1.72993e-05
1.71785e-05
1.70987e-05
1.69809e-05
1.68958e-05
1.67861e-05
1.67038e-05
1.6607e-05
1.65307e-05
1.64475e-05
1.63747e-05
1.63041e-05
1.62392e-05
1.61653e-05
1.61076e-05
1.60226e-05
1.59575e-05
1.58637e-05
1.57815e-05
1.56561e-05
1.55593e-05
1.54097e-05
1.52657e-05
1.50796e-05
1.49081e-05
1.46778e-05
1.44666e-05
1.42223e-05
1.4008e-05
1.99999e-05
1.98773e-05
1.96257e-05
1.93776e-05
1.91651e-05
1.90165e-05
1.89099e-05
1.88277e-05
1.87334e-05
1.8632e-05
1.85215e-05
1.84173e-05
1.83051e-05
1.82062e-05
1.80853e-05
1.79923e-05
1.78637e-05
1.77759e-05
1.76459e-05
1.75591e-05
1.74352e-05
1.73527e-05
1.72324e-05
1.71529e-05
1.70339e-05
1.69491e-05
1.68376e-05
1.67548e-05
1.66568e-05
1.65795e-05
1.64948e-05
1.64227e-05
1.63522e-05
1.62857e-05
1.62143e-05
1.61517e-05
1.60689e-05
1.59997e-05
1.59034e-05
1.58149e-05
1.56857e-05
1.55801e-05
1.54183e-05
1.52618e-05
1.50667e-05
1.4876e-05
1.46338e-05
1.44097e-05
1.4152e-05
1.3934e-05
1.99999e-05
1.98802e-05
1.96346e-05
1.93928e-05
1.91855e-05
1.90388e-05
1.89334e-05
1.88536e-05
1.87655e-05
1.86693e-05
1.85626e-05
1.84599e-05
1.83503e-05
1.82525e-05