/*--------------------------------*- C++ -*----------------------------------*\
  =========                 |
  \\      /  F ield         | OpenFOAM: The Open Source CFD Toolbox
   \\    /   O peration     | Website:  https://openfoam.org
    \\  /    A nd           | Version:  7
     \\/     M anipulation  |
\*---------------------------------------------------------------------------*/
FoamFile
{
    version     2.0;
    format      ascii;
    class       volScalarField;
    location    "0.29";
    object      nut;
}
// * * * * * * * * * * * * * * * * * * * * * * * * * * * * * * * * * * * * * //

dimensions      [0 2 -1 0 0 0 0];

internalField   nonuniform List<scalar> 
70000
(
0
0
0
0
0
0
0
0
0
0
0
0
0
0
0
0
0
0
0
0
0
0
0
0
0
0
0
0
0
0
0
0
0
0
0
0
0
0
0
0
1.87498e-14
4.34498e-14
4.57714e-14
1.60363e-13
0
4.84976e-13
0
1.67101e-12
0
0
0
0
0
0
0
0
0
0
0
0
0
0
0
0
0
0
0
0
0
0
0
0
0
0
0
0
0
0
0
0
0
0
0
0
0
0
0
0
0
0
5.81918e-14
1.0446e-13
1.20505e-13
3.43392e-13
0
1.03402e-12
0
3.70433e-12
0
0
0
0
0
0
0
0
0
0
0
0
0
0
0
0
0
0
0
0
0
0
0
0
0
0
0
0
0
0
0
0
0
0
0
0
0
0
0
0
0
0
5.02853e-14
1.01867e-13
1.32052e-13
4.37771e-13
0
1.51416e-12
0
5.73776e-12
0
0
0
0
0
0
0
0
0
0
0
0
0
0
0
0
0
0
0
0
0
0
0
0
0
0
0
0
0
0
0
0
0
0
0
0
0
0
0
0
0
0
0
0
0
3.14167e-13
0
1.74704e-12
0
6.96997e-12
0
0
0
0
0
0
0
0
0
0
0
0
0
0
0
0
0
0
0
0
0
0
0
0
0
0
0
0
0
0
0
0
0
0
0
0
0
0
0
0
0
0
0
0
0
8.58993e-14
0
1.83556e-12
0
7.27666e-12
0
0
9.4499e-10
0
0
0
0
0
0
0
0
0
0
0
0
0
0
0
0
0
0
0
0
0
0
0
0
0
0
0
0
0
0
0
0
0
0
0
0
0
0
0
0
0
0
0
0
1.92347e-12
0
6.84348e-12
0
0
1.31902e-08
0
0
0
0
0
0
0
0
0
0
0
0
0
0
0
0
0
0
0
0
0
0
0
0
0
0
0
0
0
0
0
0
0
0
0
0
0
0
0
0
0
0
0
0
1.95785e-12
0
5.63491e-12
0
0
1.20838e-08
0
0
0
0
0
0
0
0
0
0
0
0
0
0
0
0
0
0
0
0
0
0
0
0
0
0
0
0
0
0
0
0
0
0
0
0
0
0
0
0
0
0
0
0
1.85294e-12
0
3.71897e-12
0
0
1.10646e-08
0
0
0
0
0
0
0
0
0
0
0
0
0
0
0
0
0
0
0
0
0
0
0
0
0
0
0
0
0
0
0
0
0
0
0
0
0
0
0
0
0
0
0
0
1.57855e-12
0
1.26211e-12
0
0
1.02165e-08
0
0
0
0
0
0
0
0
0
0
0
0
0
0
0
0
0
0
0
0
0
0
0
0
0
0
0
0
0
0
0
0
0
0
0
0
0
0
0
0
0
0
0
0
1.14425e-12
0
0
0
0
9.50616e-09
0
0
0
0
0
0
0
0
0
0
0
0
0
0
0
0
0
0
0
0
0
0
0
0
0
0
0
0
0
0
0
0
0
0
0
0
0
0
0
0
0
0
0
0
5.64624e-13
0
0
0
0
8.86316e-09
0
0
0
0
0
0
0
0
0
0
0
0
0
0
0
0
0
0
0
0
0
0
0
0
0
0
0
0
0
0
0
0
0
0
0
0
0
0
0
0
0
0
0
0
0
0
0
0
0
8.22165e-09
0
0
0
0
0
0
0
0
0
0
0
0
0
0
0
0
0
0
0
0
0
0
0
0
0
0
0
0
0
0
0
0
0
0
0
0
0
0
0
0
0
0
0
0
0
0
0
0
0
7.56181e-09
0
0
0
0
0
0
0
0
0
0
0
0
1.0755e-11
2.16235e-12
0
0
0
0
0
0
0
0
0
0
0
0
0
0
0
0
0
0
0
0
0
0
0
0
0
0
0
0
0
0
0
0
0
0
0
6.88979e-09
0
0
0
0
0
0
0
0
0
0
0
0
0
0
1.32723e-11
5.11918e-11
4.80851e-11
1.90154e-11
2.61772e-12
0
0
0
0
0
0
0
0
0
0
0
0
0
0
0
0
0
0
0
0
0
0
0
0
0
0
0
0
0
0
6.21667e-09
0
0
0
0
0
0
0
0
0
0
0
0
0
0
0
0
0
2.05579e-11
5.70698e-11
8.60473e-11
8.86399e-11
5.70661e-11
2.52249e-11
8.74156e-12
1.44693e-12
0
0
0
0
0
0
0
0
0
0
0
0
0
0
0
0
0
0
0
0
0
0
0
0
5.55096e-09
0
0
0
5.55337e-11
0
0
0
0
0
0
0
0
0
0
0
0
0
0
0
0
1.23533e-11
3.61263e-11
6.32133e-11
9.04362e-11
1.12054e-10
1.16261e-10
9.11611e-11
5.36167e-11
2.66378e-11
1.19132e-11
4.34859e-12
4.57456e-13
0
0
0
0
0
0
0
0
0
0
0
0
0
0
0
0
0
4.89894e-09
0
0
0
1.35943e-10
0
0
0
0
0
0
0
0
0
0
0
0
0
0
0
0
0
0
0
5.74201e-12
1.6853e-11
3.03556e-11
4.66942e-11
6.51374e-11
8.41392e-11
1.01268e-10
1.13715e-10
1.15296e-10
9.83235e-11
6.67838e-11
3.70064e-11
1.68503e-11
5.68527e-12
0
0
0
0
0
0
0
0
0
0
0
0
4.26612e-09
0
0
0
1.87506e-10
0
0
0
0
0
0
0
0
0
0
0
0
0
0
0
0
0
0
0
0
0
0
1.37777e-12
6.80109e-12
1.20307e-11
1.72786e-11
2.28312e-11
2.88729e-11
3.52547e-11
4.05266e-11
4.40505e-11
4.33313e-11
3.88609e-11
2.69684e-11
1.20185e-11
0
0
0
0
0
0
0
0
0
0
3.65761e-09
0
0
0
1.9499e-10
0
0
0
0
0
0
0
0
0
0
0
0
0
0
0
0
0
0
0
0
0
0
0
0
0
0
0
0
0
0
0
0
0
0
0
0
0
0
0
0
0
0
0
0
0
3.07769e-09
0
0
0
1.40841e-10
0
0
0
0
0
0
0
0
0
0
0
0
0
0
0
0
0
0
0
0
0
0
0
0
0
0
0
0
0
0
0
0
0
0
0
0
0
0
0
0
0
0
0
0
0
2.52929e-09
0
0
0
5.74328e-12
0
0
0
0
0
0
0
0
0
0
0
0
0
0
0
0
0
0
0
0
0
0
0
0
0
0
0
0
0
0
0
0
0
0
0
0
0
0
0
0
0
0
0
0
0
2.01373e-09
0
0
0
0
0
0
0
0
0
0
0
0
0
0
0
0
0
0
0
0
0
0
0
0
0
0
0
0
0
0
0
0
0
0
0
0
0
0
0
0
0
0
0
0
0
0
0
0
0
1.53058e-09
0
0
0
0
0
0
0
0
0
0
0
0
0
0
0
0
0
0
0
0
0
0
0
0
0
0
0
0
0
0
0
0
0
0
0
0
0
0
0
0
0
0
0
0
0
0
0
0
0
1.07784e-09
0
0
0
0
0
0
0
0
0
0
0
0
0
0
0
0
0
0
0
0
0
0
0
0
0
0
0
0
0
0
0
0
0
0
0
0
0
0
0
0
0
0
0
0
0
0
0
0
0
6.52322e-10
0
0
0
0
0
0
0
0
0
0
0
0
0
0
0
0
0
0
0
0
0
0
0
0
0
0
0
0
0
0
0
0
0
0
0
0
0
0
0
0
0
0
0
0
0
0
0
0
0
2.5024e-10
0
0
0
0
0
0
0
0
0
0
0
0
0
0
0
0
0
0
0
0
0
0
0
0
0
0
0
0
0
0
0
0
0
0
0
0
0
0
0
0
0
0
0
0
0
0
0
0
0
0
0
0
0
0
0
0
0
0
0
0
0
0
0
0
0
0
0
0
0
0
0
0
0
0
0
0
0
0
0
0
0
0
0
0
0
0
0
0
0
0
0
0
0
0
0
0
0
0
0
0
0
0
0
0
0
0
0
0
0
0
0
0
0
0
0
0
0
0
0
0
0
0
0
0
0
0
0
0
0
0
0
0
0
0
0
0
0
0
0
0
0
0
0
0
0
0
0
0
0
0
0
0
0
0
0
0
0
0
0
0
0
0
0
0
0
0
0
0
0
0
0
0
0
0
0
0
0
0
0
0
0
0
0
0
0
0
0
0
0
0
0
0
0
0
0
0
0
0
0
0
0
0
0
0
0
0
0
0
0
0
0
0
0
0
0
0
0
0
0
0
0
0
0
0
0
0
0
0
0
0
0
0
0
0
0
0
0
0
0
0
0
0
0
0
0
0
0
0
0
0
0
0
0
0
0
0
0
0
0
0
0
0
0
0
0
0
0
0
0
0
0
0
0
0
0
0
0
0
0
0
0
0
0
0
0
0
0
0
0
0
0
0
0
0
0
0
0
0
3.54828e-10
0
7.57251e-10
0
0
0
0
0
0
0
0
0
0
0
0
0
0
0
0
0
0
0
0
0
0
0
0
0
0
0
0
0
0
0
0
0
0
0
0
0
0
0
0
0
0
0
0
0
3.41856e-11
5.05663e-10
1.10846e-09
0
1.67386e-09
0
0
0
0
0
0
0
0
0
0
0
0
0
0
0
0
0
0
0
0
0
0
0
0
0
0
0
0
0
0
0
0
0
0
0
0
0
0
0
0
0
0
0
2.59217e-11
2.21264e-10
5.72891e-10
1.23756e-09
1.88876e-09
0
2.46462e-09
0
0
0
0
0
0
0
0
0
0
0
0
0
0
0
0
0
0
0
0
0
0
0
0
0
0
0
0
0
0
0
0
0
0
0
0
0
0
0
0
1.321e-11
5.60141e-11
1.61846e-10
3.15108e-10
6.55283e-10
1.17361e-09
2.01203e-09
2.68237e-09
0
3.13193e-09
0
0
0
0
0
0
0
0
0
0
0
0
0
0
0
0
0
0
0
0
0
0
0
0
0
0
0
0
0
0
0
0
0
0
0
0
0
0
1.16045e-11
4.92285e-11
1.23069e-10
2.1645e-10
3.99868e-10
6.58504e-10
1.14674e-09
1.82734e-09
2.81491e-09
3.47705e-09
0
3.68127e-09
0
0
0
0
0
0
0
0
0
0
0
0
0
0
0
0
0
0
0
0
0
0
0
0
0
0
0
0
0
0
0
0
0
0
0
0
0
2.46053e-11
7.69883e-11
1.43635e-10
2.60039e-10
4.12566e-10
6.82144e-10
1.05303e-09
1.68808e-09
2.52344e-09
3.6413e-09
4.26529e-09
0
4.12037e-09
0
0
0
0
0
0
0
0
0
0
0
0
0
0
0
0
0
0
0
0
0
0
0
0
0
0
0
0
0
0
0
0
0
0
0
0
3.36028e-11
8.14087e-11
1.58737e-10
2.59978e-10
4.25454e-10
6.44789e-10
1.00706e-09
1.49361e-09
2.27042e-09
3.24695e-09
4.47554e-09
5.03941e-09
0
4.45774e-09
0
0
0
0
0
0
0
0
0
0
0
0
0
0
0
0
0
0
0
0
0
0
0
0
0
0
0
0
0
0
0
0
0
0
0
3.08247e-11
8.24984e-11
1.51504e-10
2.57959e-10
3.99176e-10
6.19565e-10
9.12037e-10
1.37103e-09
1.97329e-09
2.88307e-09
3.98237e-09
5.29454e-09
5.79241e-09
0
4.70248e-09
0
0
0
0
0
0
0
0
0
0
0
0
0
0
0
0
0
0
0
0
0
0
0
0
0
0
0
0
0
0
0
0
0
0
2.47558e-11
7.22304e-11
1.41963e-10
2.3558e-10
3.75174e-10
5.61248e-10
8.41354e-10
1.2116e-09
1.76854e-09
2.48332e-09
3.51337e-09
4.71561e-09
6.08389e-09
6.51069e-09
0
4.86486e-09
0
0
0
0
0
0
0
0
0
0
0
0
0
0
0
0
0
0
0
0
0
0
0
0
0
0
0
0
0
0
0
0
0
1.20174e-11
5.88925e-11
1.21998e-10
2.12355e-10
3.33816e-10
5.1016e-10
7.45145e-10
1.08843e-09
1.53907e-09
2.19227e-09
3.01316e-09
4.14837e-09
5.43338e-09
6.83228e-09
7.17065e-09
0
4.9562e-09
0
0
0
0
0
0
0
0
0
0
0
0
0
0
0
0
0
0
0
0
0
0
0
0
0
0
0
0
0
0
0
0
0
3.93259e-11
9.94307e-11
1.80235e-10
2.93589e-10
4.45765e-10
6.61794e-10
9.48643e-10
1.35703e-09
1.88831e-09
2.6332e-09
3.55118e-09
4.77479e-09
6.12059e-09
7.52411e-09
7.75971e-09
0
4.98777e-09
0
0
0
0
0
0
0
0
0
0
0
0
0
0
0
0
0
0
0
0
0
0
0
0
0
0
0
0
0
0
0
0
1.63939e-11
7.14062e-11
1.46296e-10
2.46651e-10
3.85043e-10
5.70253e-10
8.27939e-10
1.16831e-09
1.64196e-09
2.25157e-09
3.08089e-09
4.08486e-09
5.37858e-09
6.76388e-09
8.14725e-09
8.26861e-09
0
4.96994e-09
0
0
0
0
0
0
0
0
0
0
0
0
0
0
0
0
0
0
0
0
0
0
0
0
0
0
0
0
0
0
0
0
4.04856e-11
1.08045e-10
1.99081e-10
3.20488e-10
4.85492e-10
7.0525e-10
1.0054e-09
1.39953e-09
1.93653e-09
2.6196e-09
3.52398e-09
4.60085e-09
5.94547e-09
7.35041e-09
8.69392e-09
8.69107e-09
0
4.91177e-09
0
0
0
0
0
0
0
0
0
0
0
0
0
0
0
0
0
0
0
0
0
0
0
0
0
0
0
0
0
0
0
6.6645e-12
6.76844e-11
1.48751e-10
2.56983e-10
4.00476e-10
5.93019e-10
8.47792e-10
1.19e-09
1.63644e-09
2.2326e-09
2.98207e-09
3.95031e-09
5.08528e-09
6.46108e-09
7.8668e-09
9.1543e-09
9.02224e-09
0
4.82098e-09
0
0
0
0
0
0
0
0
0
0
0
0
0
0
0
0
0
0
0
0
0
0
0
0
0
0
0
0
0
0
0
2.56509e-11
9.74739e-11
1.92711e-10
3.18743e-10
4.84797e-10
7.04933e-10
9.93997e-10
1.37655e-09
1.87186e-09
2.52087e-09
3.32771e-09
4.34699e-09
5.52392e-09
6.91169e-09
8.30091e-09
9.51636e-09
9.25519e-09
0
4.70399e-09
0
0
0
0
0
0
0
0
0
0
0
0
0
0
0
0
0
0
0
0
0
0
0
0
0
0
0
0
0
0
0
4.61661e-11
1.29082e-10
2.38751e-10
3.82643e-10
5.71011e-10
8.17766e-10
1.13913e-09
1.55868e-09
2.09751e-09
2.79105e-09
3.64443e-09
4.70041e-09
5.90267e-09
7.28462e-09
8.6398e-09
9.7716e-09
9.38341e-09
0
4.56612e-09
0
0
0
0
0
0
0
0
0
0
0
0
0
0
0
0
0
0
0
0
0
0
0
0
0
0
0
0
0
0
0
6.75372e-11
1.6146e-10
2.85306e-10
4.46501e-10
6.55999e-10
9.27278e-10
1.27759e-09
1.72903e-09
2.30396e-09
3.03202e-09
3.9194e-09
4.99655e-09
6.2083e-09
7.56588e-09
8.8744e-09
9.91072e-09
9.40232e-09
0
4.41178e-09
0
0
0
0
0
0
0
0
0
0
0
0
0
0
0
0
0
0
0
0
0
0
0
0
0
0
0
0
0
0
1.09542e-11
8.88991e-11
1.93274e-10
3.30431e-10
5.07624e-10
7.3602e-10
1.02848e-09
1.40281e-09
1.87928e-09
2.48093e-09
3.23171e-09
4.13899e-09
5.22219e-09
6.42581e-09
7.74532e-09
8.9937e-09
9.92738e-09
9.31176e-09
0
4.24471e-09
0
0
0
0
0
0
0
0
0
0
0
0
0
0
0
0
0
0
0
0
0
0
0
0
0
0
0
0
0
0
2.45322e-11
1.09198e-10
2.2291e-10
3.7182e-10
5.62798e-10
8.06768e-10
1.11566e-09
1.50738e-09
2.0002e-09
2.61725e-09
3.37704e-09
4.28994e-09
5.36183e-09
6.54347e-09
7.81065e-09
8.9896e-09
9.82031e-09
9.10895e-09
0
4.06818e-09
0
0
0
0
0
0
0
0
0
0
0
0
0
0
0
0
0
0
0
0
0
0
0
0
0
0
0
0
0
0
3.73211e-11
1.2722e-10
2.48494e-10
4.06839e-10
6.08361e-10
8.63325e-10
1.18246e-09
1.58316e-09
2.08166e-09
2.70073e-09
3.45493e-09
4.35693e-09
5.40193e-09
6.54765e-09
7.75191e-09
8.85817e-09
9.58421e-09
8.79557e-09
0
3.88501e-09
0
0
0
0
0
0
0
0
0
0
0
0
0
0
0
0
0
0
0
0
0
0
0
0
0
0
0
0
0
0
4.86179e-11
1.41638e-10
2.67967e-10
4.32545e-10
6.40277e-10
9.00293e-10
1.22191e-09
1.62124e-09
2.11271e-09
2.71851e-09
3.45098e-09
4.32461e-09
5.32838e-09
6.42535e-09
7.56265e-09
8.59308e-09
9.22004e-09
8.38219e-09
0
3.69764e-09
0
0
0
0
0
0
0
0
0
0
0
0
0
0
0
0
0
0
0
0
0
0
0
0
0
0
0
0
0
0
5.77596e-11
1.51086e-10
2.79171e-10
4.4578e-10
6.54211e-10
9.11949e-10
1.22643e-09
1.61209e-09
2.08164e-09
2.65693e-09
3.34936e-09
4.1778e-09
5.12494e-09
6.1679e-09
7.23422e-09
8.19225e-09
8.73756e-09
7.87307e-09
0
3.50823e-09
0
0
0
0
0
0
0
0
0
0
0
0
0
0
0
0
0
0
0
0
0
0
2.21063e-11
4.68482e-11
4.54736e-11
2.69782e-11
2.69085e-12
0
0
8.55931e-12
6.42256e-11
1.54283e-10
2.79943e-10
4.43342e-10
6.45693e-10
8.92265e-10
1.18804e-09
1.54559e-09
1.97592e-09
2.50084e-09
3.13399e-09
3.89834e-09
4.77883e-09
5.76357e-09
6.76198e-09
7.66266e-09
8.14054e-09
7.27565e-09
0
3.31882e-09
0
0
0
0
0
0
0
0
0
0
0
0
0
0
0
0
0
0
0
0
3.12528e-12
9.02355e-11
1.39068e-10
1.52865e-10
1.37095e-10
1.01803e-10
5.97324e-11
2.47387e-11
8.95397e-12
2.15584e-11
6.7798e-11
1.50177e-10
2.68302e-10
4.22166e-10
6.10252e-10
8.35201e-10
1.0985e-09
1.41135e-09
1.78147e-09
2.23451e-09
2.78617e-09
3.46845e-09
4.27559e-09
5.20226e-09
6.14764e-09
7.00987e-09
7.44091e-09
6.61133e-09
0
3.13128e-09
0
0
0
0
0
0
0
0
0
0
0
0
0
0
0
0
0
0
0
3.44232e-11
1.64212e-10
2.46671e-10
2.86268e-10
2.86646e-10
2.53275e-10
1.97347e-10
1.33141e-10
7.64954e-11
4.10791e-11
3.68262e-11
6.87569e-11
1.38185e-10
2.4269e-10
3.79527e-10
5.43828e-10
7.34784e-10
9.49823e-10
1.19773e-09
1.48404e-09
1.83995e-09
2.28466e-09
2.86956e-09
3.59899e-09
4.47812e-09
5.39719e-09
6.24692e-09
6.65829e-09
5.89534e-09
0
2.94728e-09
0
0
0
0
0
0
0
0
0
0
0
0
0
0
0
0
0
0
3.91459e-11
2.33162e-10
3.63059e-10
4.40162e-10
4.68949e-10
4.53383e-10
3.99062e-10
3.18246e-10
2.27031e-10
1.43443e-10
8.29131e-11
5.62498e-11
6.81622e-11
1.18472e-10
2.02294e-10
3.13458e-10
4.43105e-10
5.85585e-10
7.33967e-10
8.93153e-10
1.06816e-09
1.29584e-09
1.60642e-09
2.07955e-09
2.73325e-09
3.59137e-09
4.52237e-09
5.39256e-09
5.81535e-09
5.14752e-09
0
2.7682e-09
0
0
0
0
0
0
0
0
0
0
0
0
0
0
0
0
0
0
2.73401e-10
4.741e-10
6.04573e-10
6.7618e-10
6.92927e-10
6.59172e-10
5.80421e-10
4.70214e-10
3.46641e-10
2.3014e-10
1.38266e-10
8.28409e-11
6.81845e-11
9.23641e-11
1.47501e-10
2.23336e-10
3.05733e-10
3.83593e-10
4.43394e-10
4.86061e-10
5.15737e-10
5.78082e-10
7.2431e-10
1.07184e-09
1.66483e-09
2.5481e-09
3.54407e-09
4.47783e-09
4.94356e-09
4.39332e-09
0
2.59516e-09
0
0
0
0
0
0
0
0
0
0
0
0
0
0
0
0
0
2.5882e-10
5.52954e-10
7.61596e-10
8.93788e-10
9.60507e-10
9.64652e-10
9.10921e-10
8.04379e-10
6.6027e-10
4.98507e-10
3.42597e-10
2.12452e-10
1.21121e-10
7.25798e-11
6.28618e-11
8.05553e-11
1.10305e-10
1.31758e-10
1.2626e-10
7.22694e-11
0
0
0
0
0
3.85448e-10
1.36653e-09
2.49895e-09
3.54406e-09
4.07589e-09
3.65533e-09
0
2.42903e-09
0
0
0
0
0
0
0
0
0
0
0
0
0
0
0
0
1.68057e-10
5.72701e-10
8.80959e-10
1.09964e-09
1.23565e-09
1.29899e-09
1.2911e-09
1.2162e-09
1.07922e-09
8.96728e-10
6.90807e-10
4.88627e-10
3.12647e-10
1.77629e-10
8.72932e-11
3.5368e-11
6.25091e-12
0
0
0
0
0
0
0
0
0
0
8.20044e-11
1.44212e-09
2.64156e-09
3.24649e-09
2.95468e-09
0
2.27043e-09
0
0
0
0
0
0
0
0
0
0
0
0
0
0
0
0
5.057e-10
9.33676e-10
1.25943e-09
1.49139e-09
1.63451e-09
1.69735e-09
1.67932e-09
1.58337e-09
1.41426e-09
1.18936e-09
9.33652e-10
6.78108e-10
4.48376e-10
2.61562e-10
1.21183e-10
1.84849e-11
0
0
0
0
0
0
0
0
0
0
0
0
4.55706e-10
1.82844e-09
2.48735e-09
2.31041e-09
0
2.11981e-09
2.03239e-11
0
0
0
0
0
0
0
0
0
0
0
0
0
0
3.07625e-10
8.83964e-10
1.34072e-09
1.68879e-09
1.9386e-09
2.09367e-09
2.16057e-09
2.13608e-09
2.02114e-09
1.81957e-09
1.54948e-09
1.23907e-09
9.23296e-10
6.32072e-10
3.85379e-10
1.86751e-10
2.51554e-11
0
0
0
0
0
0
0
0
0
0
0
0
0
1.15811e-09
1.82147e-09
1.73951e-09
0
1.97743e-09
7.24946e-11
0
0
0
0
0
0
0
0
0
0
0
0
0
0
6.78127e-10
1.29851e-09
1.79044e-09
2.1671e-09
2.44095e-09
2.61453e-09
2.69203e-09
2.66715e-09
2.53768e-09
2.30565e-09
1.98954e-09
1.62088e-09
1.23895e-09
8.79373e-10
5.65181e-10
3.01132e-10
7.40307e-11
0
0
0
0
0
0
0
0
0
0
0
0
0
6.63928e-10
1.26093e-09
1.25206e-09
0
1.84344e-09
1.11543e-10
0
0
0
0
0
0
0
0
0
0
0
0
0
2.43491e-10
1.07232e-09
1.74249e-09
2.27664e-09
2.68932e-09
2.99493e-09
3.19551e-09
3.29246e-09
3.27598e-09
3.13955e-09
2.88226e-09
2.52232e-09
2.09394e-09
1.64222e-09
1.20864e-09
8.21252e-10
4.8673e-10
1.90528e-10
0
0
0
0
0
0
0
0
0
0
0
0
0
3.44674e-10
8.00252e-10
8.50704e-10
0
1.71788e-09
1.39635e-10
0
0
0
0
0
0
0
0
0
0
0
0
0
5.94962e-10
1.48108e-09
2.20612e-09
2.78964e-09
3.24651e-09
3.59275e-09
3.83048e-09
3.95819e-09
3.96209e-09
3.82975e-09
3.55665e-09
3.15863e-09
2.67325e-09
2.15066e-09
1.6406e-09
1.17727e-09
7.70928e-10
4.07309e-10
4.54636e-11
0
0
0
0
0
0
0
0
0
0
0
0
1.55235e-10
4.19868e-10
5.34554e-10
0
1.60071e-09
1.58687e-10
0
0
0
0
0
0
0
0
0
0
0
0
0
9.4902e-10
1.89265e-09
2.67636e-09
3.31555e-09
3.82477e-09
4.22096e-09
4.50718e-09
4.67912e-09
4.71839e-09
4.60552e-09
4.32994e-09
3.90495e-09
3.36935e-09
2.78016e-09
2.19557e-09
1.65784e-09
1.18417e-09
7.62888e-10
3.52067e-10
0
0
0
0
0
0
0
0
0
0
0
0
2.03572e-11
9.68647e-11
3.05302e-10
0
1.49184e-09
1.70361e-10
0
0
0
0
0
0
0
0
0
0
0
0
1.44773e-10
1.29333e-09
2.29266e-09
3.13675e-09
3.83598e-09
4.40446e-09
4.85932e-09
5.20581e-09
5.43641e-09
5.52823e-09
5.45311e-09
5.19373e-09
4.75745e-09
4.18459e-09
3.53877e-09
2.88708e-09
2.28321e-09
1.75416e-09
1.29534e-09
8.70845e-10
4.11563e-10
0
0
0
0
0
0
0
0
0
0
0
0
0
1.72104e-10
0
1.39112e-09
1.76084e-10
0
0
0
0
0
0
0
0
0
0
0
0
4.25335e-10
1.61393e-09
2.66449e-09
3.56745e-09
4.32803e-09
4.96017e-09
5.48026e-09
5.89699e-09
6.20023e-09
6.36145e-09
6.34465e-09
6.12219e-09
5.69558e-09
5.10463e-09
4.41746e-09
3.71259e-09
3.05768e-09
2.49277e-09
2.02708e-09
1.64167e-09
1.28973e-09
8.86301e-10
2.77912e-10
0
0
0
0
0
0
0
1.94388e-11
0
0
0
1.49664e-10
0
1.29837e-09
1.77083e-10
0
0
0
0
0
0
0
0
0
0
0
0
6.75703e-10
1.89578e-09
2.98998e-09
3.94603e-09
4.76533e-09
5.46049e-09
6.0492e-09
6.54171e-09
6.92714e-09
7.17248e-09
7.2319e-09
7.06735e-09
6.67345e-09
6.08632e-09
5.37777e-09
4.63862e-09
3.95158e-09
3.37357e-09
2.93567e-09
2.64832e-09
2.51112e-09
2.5289e-09
2.74791e-09
3.35446e-09
5.11974e-09
1.22052e-08
2.10089e-08
6.19912e-09
2.41046e-09
1.05365e-09
3.30473e-10
0
0
0
2.55637e-10
0
1.21338e-09
1.74419e-10
0
0
0
0
0
0
0
0
0
0
0
0
8.8395e-10
2.12387e-09
3.25019e-09
4.24924e-09
5.11881e-09
5.87092e-09
6.52493e-09
7.09204e-09
7.562e-09
7.89808e-09
8.04449e-09
7.95377e-09
7.61186e-09
7.04808e-09
6.338e-09
5.58288e-09
4.87889e-09
4.30334e-09
3.91387e-09
3.75614e-09
3.88888e-09
4.43387e-09
5.69332e-09
8.47195e-09
1.48709e-08
2.52427e-08
1.89684e-08
7.73726e-09
3.11361e-09
1.1467e-09
1.79768e-10
0
0
0
5.06163e-10
0
1.13596e-09
1.69019e-10
0
0
0
0
0
0
0
0
0
0
0
0
1.03939e-09
2.28454e-09
3.42751e-09
4.45396e-09
5.36004e-09
6.15676e-09
6.86379e-09
7.49409e-09
8.03878e-09
8.45941e-09
8.69453e-09
8.68101e-09
8.39678e-09
7.86727e-09
7.16759e-09
6.40322e-09
5.68396e-09
5.10506e-09
4.74372e-09
4.67122e-09
4.98187e-09
5.83969e-09
7.54782e-09
1.05336e-08
1.44321e-08
1.51133e-08
9.99292e-09
4.94343e-09
2.10886e-09
6.29257e-10
0
0
0
0
9.11839e-10
0
1.0659e-09
1.61709e-10
0
0
0
0
0
0
0
0
0
0
0
0
1.13374e-09
2.3666e-09
3.50697e-09
4.54107e-09
5.46413e-09
6.28602e-09
7.02567e-09
7.69665e-09
8.29136e-09
8.77264e-09
9.07815e-09
9.135e-09
8.89728e-09
8.39456e-09
7.69883e-09
6.91661e-09
6.1634e-09
5.54263e-09
5.13848e-09
5.02198e-09
5.2655e-09
5.94748e-09
7.10228e-09
8.47657e-09
9.06734e-09
7.64764e-09
4.90513e-09
2.49769e-09
9.57334e-10
6.71519e-11
0
0
0
0
1.47545e-09
0
1.00307e-09
1.53198e-10
0
0
0
0
0
0
0
0
0
0
0
0
1.16177e-09
2.36296e-09
3.47927e-09
4.49786e-09
5.41333e-09
6.23422e-09
6.97849e-09
7.65956e-09
8.27042e-09
8.77462e-09
9.10961e-09
9.20295e-09
8.9883e-09
8.48792e-09
7.77527e-09
6.95306e-09
6.13461e-09
5.42104e-09
4.88922e-09
4.58905e-09
4.54277e-09
4.72645e-09
5.01625e-09
5.10939e-09
4.60777e-09
3.43485e-09
2.04595e-09
9.00417e-10
1.53646e-10
0
0
0
0
2.52441e-10
2.19191e-09
0
9.47332e-10
1.44119e-10
0
0
0
0
0
0
0
0
0
0
0
0
1.12232e-09
2.27196e-09
3.34177e-09
4.31992e-09
5.2006e-09
5.99094e-09
6.70737e-09
7.36228e-09
7.94841e-09
8.42991e-09
8.74546e-09
8.82427e-09
8.59837e-09
8.06971e-09
7.31718e-09
6.43724e-09
5.5364e-09
4.70782e-09
4.01719e-09
3.49649e-09
3.14141e-09
2.90322e-09
2.68236e-09
2.34548e-09
1.81415e-09
1.1504e-09
5.24794e-10
5.81546e-11
0
0
0
0
1.39733e-10
8.77228e-10
3.04984e-09
0
8.9865e-10
1.35072e-10
0
0
0
0
0
0
0
0
0
0
0
0
1.01861e-09
2.09771e-09
3.09957e-09
4.0134e-09
4.83266e-09
5.56317e-09
6.21942e-09
6.81208e-09
7.33319e-09
7.74784e-09
7.99778e-09
8.01692e-09
7.74474e-09
7.16902e-09
6.37107e-09
5.44214e-09
4.48102e-09
3.57369e-09
2.78016e-09
2.12925e-09
1.62008e-09
1.22484e-09
8.99308e-10
5.99417e-10
3.12582e-10
6.07116e-11
0
0
0
0
1.84823e-10
4.35593e-10
8.10044e-10
1.66245e-09
4.0336e-09
0
8.57049e-10
1.26654e-10
0
0
0
0
0
0
0
0
0
0
0
0
8.58255e-10
1.8505e-09
2.76561e-09
3.59425e-09
4.33e-09
4.97587e-09
5.54503e-09
6.04634e-09
6.47126e-09
6.78688e-09
6.94033e-09
6.87384e-09
6.5394e-09
5.92161e-09
5.10114e-09
4.16558e-09
3.20681e-09
2.30538e-09
1.51982e-09
8.82477e-10
4.02224e-10
6.84928e-11
0
0
0
0
0
3.82414e-11
2.65661e-10
5.3475e-10
8.56849e-10
1.19956e-09
1.6483e-09
2.59053e-09
5.12539e-09
0
8.22676e-10
1.19525e-10
0
0
0
0
0
0
0
0
0
0
0
0
6.52728e-10
1.5459e-09
2.36065e-09
3.08862e-09
3.72419e-09
4.26912e-09
4.73422e-09
5.12732e-09
5.44019e-09
5.64354e-09
5.69227e-09
5.53994e-09
5.15309e-09
4.52357e-09
3.72699e-09
2.84841e-09
1.97211e-09
1.17246e-09
5.04817e-10
1.48667e-12
0
0
0
0
0
1.31437e-11
2.98298e-10
6.13296e-10
9.60722e-10
1.3265e-09
1.72518e-09
2.13164e-09
2.63229e-09
3.64169e-09
6.30732e-09
0
7.9583e-10
1.14432e-10
0
0
0
0
0
0
0
0
0
0
0
0
4.16565e-10
1.20331e-09
1.91006e-09
2.52939e-09
3.05649e-09
3.49355e-09
3.84942e-09
4.13169e-09
4.33368e-09
4.43134e-09
4.38912e-09
4.17346e-09
3.76544e-09
3.16839e-09
2.45117e-09
1.69387e-09
9.71507e-10
3.4929e-10
0
0
0
0
0
0
2.73453e-10
6.48763e-10
1.04735e-09
1.45635e-09
1.87956e-09
2.30765e-09
2.75614e-09
3.20469e-09
3.73909e-09
4.79618e-09
7.56262e-09
0
7.77009e-10
1.12296e-10
0
0
0
0
0
0
0
0
0
0
0
0
1.66329e-10
8.44472e-10
1.44193e-09
1.95227e-09
2.37172e-09
2.7035e-09
2.95627e-09
3.13799e-09
3.24472e-09
3.25869e-09
3.15458e-09
2.91145e-09
2.52331e-09
2.00424e-09
1.41591e-09
8.30012e-10
3.10229e-10
0
0
0
0
0
2.37665e-10
6.4548e-10
1.09412e-09
1.56013e-09
2.03255e-09
2.501e-09
2.97194e-09
3.43926e-09
3.91857e-09
4.39299e-09
4.94689e-09
6.03536e-09
8.87614e-09
0
7.66986e-10
1.14311e-10
0
0
0
0
0
0
0
0
0
0
0
0
0
4.91884e-10
9.84563e-10
1.39231e-09
1.71279e-09
1.95057e-09
2.11534e-09
2.21617e-09
2.25257e-09
2.21339e-09
2.083e-09
1.85147e-09
1.52311e-09
1.11997e-09
6.9621e-10
3.12469e-10
1.95335e-11
0
0
0
2.60426e-10
6.47279e-10
1.11062e-09
1.61708e-09
2.14203e-09
2.67027e-09
3.19061e-09
3.69707e-09
4.19773e-09
4.68885e-09
5.18563e-09
5.67391e-09
6.23629e-09
7.34273e-09
1.02349e-08
0
7.66917e-10
1.22108e-10
0
0
0
0
0
0
0
0
0
0
0
0
0
1.67157e-10
5.64539e-10
8.81518e-10
1.11747e-09
1.27861e-09
1.37614e-09
1.42081e-09
1.41573e-09
1.35596e-09
1.23419e-09
1.04939e-09
8.13387e-10
5.52914e-10
3.14332e-10
1.45844e-10
8.44518e-11
1.53401e-10
3.59239e-10
6.9205e-10
1.12955e-09
1.64221e-09
2.19972e-09
2.77464e-09
3.35209e-09
3.92306e-09
4.47533e-09
5.00638e-09
5.52526e-09
6.02993e-09
6.5349e-09
7.02826e-09
7.59073e-09
8.70428e-09
1.16284e-08
0
7.78501e-10
1.37973e-10
0
0
0
0
0
0
0
0
0
0
0
0
0
0
2.04649e-10
4.46465e-10
6.15985e-10
7.21089e-10
7.74563e-10
7.88974e-10
7.70798e-10
7.20392e-10
6.37204e-10
5.27007e-10
4.06836e-10
3.05009e-10
2.59485e-10
3.05952e-10
4.67375e-10
7.51729e-10
1.15168e-09
1.64756e-09
2.21306e-09
2.82012e-09
3.44334e-09
4.06334e-09
4.67632e-09
5.27735e-09
5.85195e-09
6.39956e-09
6.92966e-09
7.44129e-09
7.94812e-09
8.44019e-09
8.9964e-09
1.01083e-08
1.30481e-08
0
8.04225e-10
1.65194e-10
0
0
0
0
0
0
0
0
0
0
0
0
0
0
0
1.07481e-10
2.30084e-10
3.00562e-10
3.3308e-10
3.41695e-10
3.35687e-10
3.19711e-10
2.98549e-10
2.83158e-10
2.93974e-10
3.5814e-10
5.04138e-10
7.56125e-10
1.12332e-09
1.59933e-09
2.16471e-09
2.79272e-09
3.45586e-09
4.12978e-09
4.79543e-09
5.44235e-09
6.07793e-09
6.7019e-09
7.29367e-09
7.8535e-09
8.391e-09
8.90572e-09
9.4104e-09
9.89681e-09
1.04421e-08
1.15456e-08
1.44875e-08
0
8.47731e-10
2.08594e-10
0
0
0
0
0
0
0
0
0
0
0
0
0
0
0
0
0
3.06139e-11
6.32527e-11
8.74508e-11
1.14594e-10
1.52694e-10
2.10745e-10
3.03706e-10
4.54058e-10
6.85351e-10
1.01487e-09
1.45705e-09
2.00816e-09
2.64887e-09
3.34997e-09
4.08034e-09
4.81378e-09
5.53117e-09
6.22051e-09
6.88013e-09
7.52799e-09
8.17095e-09
8.77835e-09
9.34943e-09
9.89304e-09
1.04091e-08
1.09095e-08
1.13876e-08
1.19189e-08
1.30088e-08
1.5942e-08
0
9.14423e-10
2.75347e-10
0
0
0
0
0
0
0
0
0
0
0
0
0
0
0
0
0
0
0
2.6237e-11
1.02945e-10
2.09638e-10
3.58746e-10
5.68414e-10
8.62115e-10
1.25762e-09
1.75841e-09
2.37171e-09
3.08202e-09
3.85902e-09
4.66636e-09
5.47129e-09
6.2509e-09
6.99214e-09
7.69003e-09
8.35082e-09
9.00165e-09
9.66226e-09
1.0286e-08
1.08697e-08
1.14211e-08
1.19394e-08
1.24353e-08
1.29039e-08
1.34195e-08
1.44921e-08
1.74084e-08
0
1.01242e-09
3.76236e-10
0
0
0
0
0
0
0
0
0
0
0
0
0
0
0
0
0
0
4.79527e-11
1.52791e-10
2.91597e-10
4.77232e-10
7.25111e-10
1.05604e-09
1.49361e-09
2.04783e-09
2.70472e-09
3.46733e-09
4.31007e-09
5.19404e-09
6.07865e-09
6.93213e-09
7.73642e-09
8.48494e-09
9.17891e-09
9.83118e-09
1.04753e-08
1.1153e-08
1.17974e-08
1.23976e-08
1.296e-08
1.34837e-08
1.39777e-08
1.44382e-08
1.49383e-08
1.59916e-08
1.8885e-08
0
1.15418e-09
5.27597e-10
0
0
0
0
0
0
0
0
0
0
0
0
0
0
0
0
5.0141e-11
1.64925e-10
2.95973e-10
4.59246e-10
6.69431e-10
9.41238e-10
1.29273e-09
1.74694e-09
2.3268e-09
3.03277e-09
3.82833e-09
4.71595e-09
5.66228e-09
6.62268e-09
7.55548e-09
8.43243e-09
9.2416e-09
9.98287e-09
1.06624e-08
1.12977e-08
1.19263e-08
1.26158e-08
1.32898e-08
1.39143e-08
1.44946e-08
1.5029e-08
1.55255e-08
1.59813e-08
1.64688e-08
1.75038e-08
2.03712e-08
0
1.35927e-09
7.5415e-10
0
0
0
0
0
0
0
0
0
0
0
0
0
0
6.75801e-11
2.13957e-10
3.61341e-10
5.21225e-10
7.08364e-10
9.38324e-10
1.22637e-09
1.58893e-09
2.04657e-09
2.62416e-09
3.3432e-09
4.19322e-09
5.10826e-09
6.09385e-09
7.11221e-09
8.11624e-09
9.06669e-09
9.94152e-09
1.07361e-08
1.14566e-08
1.21126e-08
1.27236e-08
1.33283e-08
1.40165e-08
1.47334e-08
1.5395e-08
1.60047e-08
1.65596e-08
1.70668e-08
1.75242e-08
1.80038e-08
1.90235e-08
2.1865e-08
0
1.65924e-09
1.09261e-09
0
0
0
0
0
0
0
0
0
0
0
0
1.02172e-10
2.73081e-10
4.45695e-10
6.24124e-10
8.15035e-10
1.02923e-09
1.28049e-09
1.58361e-09
1.95425e-09
2.41049e-09
2.97523e-09
3.67489e-09
4.52881e-09
5.51448e-09
6.52865e-09
7.58123e-09
8.63583e-09
9.64649e-09
1.05805e-08
1.1425e-08
1.2184e-08
1.28697e-08
1.34939e-08
1.40738e-08
1.46477e-08
1.53123e-08
1.60863e-08
1.6805e-08
1.74621e-08
1.80534e-08
1.85847e-08
1.90549e-08
1.95356e-08
2.0546e-08
2.33644e-08
0
2.10624e-09
1.59486e-09
0
0
0
0
0
0
0
0
0
0
1.9525e-10
3.77297e-10
5.58259e-10
7.47768e-10
9.50522e-10
1.17016e-09
1.41282e-09
1.68839e-09
2.00955e-09
2.39034e-09
2.84653e-09
3.39787e-09
4.06948e-09
4.88896e-09
5.87273e-09
6.98552e-09
8.07839e-09
9.16176e-09
1.02106e-08
1.11841e-08
1.2061e-08
1.28414e-08
1.35399e-08
1.41742e-08
1.47576e-08
1.53007e-08
1.5838e-08
1.64544e-08
1.72853e-08
1.80936e-08
1.88267e-08
1.9479e-08
2.00554e-08
2.05558e-08
2.10518e-08
2.20639e-08
2.48664e-08
0
2.78814e-09
2.3248e-09
0
0
0
0
0
0
0
1.21624e-10
3.7173e-10
5.72253e-10
7.53287e-10
9.34935e-10
1.13036e-09
1.34687e-09
1.58793e-09
1.85647e-09
2.15781e-09
2.50059e-09
2.89612e-09
3.35756e-09
3.90095e-09
4.54745e-09
5.32429e-09
6.25991e-09
7.36725e-09
8.59781e-09
9.74962e-09
1.08211e-08
1.18138e-08
1.26965e-08
1.34654e-08
1.41388e-08
1.47443e-08
1.53058e-08
1.58362e-08
1.63376e-08
1.68337e-08
1.73979e-08
1.82336e-08
1.91859e-08
2.00402e-08
2.07917e-08
2.1445e-08
2.2002e-08
2.25349e-08
2.35656e-08
2.63645e-08
0
3.85546e-09
3.33863e-09
0
0
0
0
0
3.11576e-10
6.8224e-10
9.20012e-10
1.09814e-09
1.25873e-09
1.42556e-09
1.61301e-09
1.82984e-09
2.08038e-09
2.36641e-09
2.68988e-09
3.05509e-09
3.46928e-09
3.9422e-09
4.48608e-09
5.11718e-09
5.85814e-09
6.738e-09
7.7854e-09
9.0089e-09
1.03461e-08
1.15374e-08
1.25479e-08
1.34244e-08
1.41506e-08
1.47476e-08
1.52586e-08
1.57281e-08
1.6187e-08
1.66469e-08
1.71009e-08
1.75522e-08
1.80647e-08
1.88439e-08
1.99828e-08
2.10234e-08
2.19304e-08
2.27076e-08
2.33595e-08
2.39606e-08
2.50344e-08
2.78481e-08
0
5.55708e-09
4.66336e-09
0
0
0
3.32387e-10
1.09573e-09
1.52407e-09
1.73309e-09
1.85092e-09
1.95282e-09
2.07396e-09
2.22987e-09
2.42784e-09
2.6713e-09
2.96116e-09
3.29725e-09
3.68025e-09
4.11316e-09
4.60153e-09
5.15338e-09
5.77999e-09
6.49784e-09
7.33103e-09
8.31017e-09
9.46352e-09
1.07941e-08
1.22232e-08
1.34304e-08
1.43273e-08
1.50224e-08
1.55199e-08
1.58723e-08
1.61551e-08
1.64356e-08
1.67541e-08
1.71196e-08
1.75159e-08
1.79209e-08
1.83809e-08
1.90701e-08
2.03551e-08
2.16819e-08
2.28219e-08
2.37868e-08
2.45861e-08
2.52977e-08
2.6448e-08
2.93017e-08
0
8.28228e-09
6.20109e-09
1.1868e-09
3.58421e-10
1.0675e-09
1.97724e-09
2.63851e-09
2.90136e-09
2.94643e-09
2.9382e-09
2.95947e-09
3.04023e-09
3.18704e-09
3.39883e-09
3.67281e-09
4.00588e-09
4.3955e-09
4.84087e-09
5.34353e-09
5.90722e-09
6.53809e-09
7.2464e-09
8.04884e-09
8.97078e-09
1.0044e-08
1.12955e-08
1.27206e-08
1.42192e-08
1.53992e-08
1.61307e-08
1.65871e-08
1.67954e-08
1.68423e-08
1.68394e-08
1.68812e-08
1.70204e-08
1.72652e-08
1.75894e-08
1.79474e-08
1.83531e-08
1.89536e-08
2.02156e-08
2.19279e-08
2.33969e-08
2.46277e-08
2.56388e-08
2.65135e-08
2.77822e-08
3.07081e-08
0
1.24459e-08
7.50963e-09
2.53439e-09
2.04008e-09
2.78645e-09
3.61026e-09
4.28056e-09
4.44201e-09
4.33795e-09
4.20562e-09
4.14499e-09
4.18419e-09
4.32215e-09
4.54916e-09
4.85556e-09
5.23381e-09
5.67877e-09
6.18787e-09
6.76087e-09
7.3994e-09
8.10756e-09
8.89457e-09
9.77742e-09
1.07826e-08
1.19426e-08
1.32817e-08
1.47837e-08
1.63124e-08
1.73777e-08
1.78986e-08
1.80893e-08
1.79951e-08
1.7731e-08
1.74378e-08
1.72325e-08
1.71802e-08
1.72908e-08
1.75317e-08
1.78441e-08
1.81969e-08
1.86998e-08
1.97217e-08
2.17463e-08
2.36283e-08
2.52e-08
2.64875e-08
2.75806e-08
2.90136e-08
3.20477e-08
3.21908e-09
1.78034e-08
8.28217e-09
3.70385e-09
3.55454e-09
4.43295e-09
5.19809e-09
5.78477e-09
6.09048e-09
5.91415e-09
5.67323e-09
5.5347e-09
5.53406e-09
5.66352e-09
5.90576e-09
6.24465e-09
6.66801e-09
7.16784e-09
7.73969e-09
8.38137e-09
9.09216e-09
9.87397e-09
1.07349e-08
1.16922e-08
1.27732e-08
1.40102e-08
1.54218e-08
1.69722e-08
1.84555e-08
1.92632e-08
1.95512e-08
1.94972e-08
1.91645e-08
1.86814e-08
1.81952e-08
1.78251e-08
1.76372e-08
1.76424e-08
1.78095e-08
1.80804e-08
1.83949e-08
1.87956e-08
1.95005e-08
2.11928e-08
2.35255e-08
2.5489e-08
2.71051e-08
2.84674e-08
3.01105e-08
3.32914e-08
1.27475e-08
2.13305e-08
8.61164e-09
5.15259e-09
5.13475e-09
6.07927e-09
6.8822e-09
7.18732e-09
7.65917e-09
7.64038e-09
7.35851e-09
7.1571e-09
7.12019e-09
7.24222e-09
7.49889e-09
7.86838e-09
8.33441e-09
8.88629e-09
9.51751e-09
1.02237e-08
1.10016e-08
1.18507e-08
1.2778e-08
1.38012e-08
1.4948e-08
1.62485e-08
1.77107e-08
1.92607e-08
2.05375e-08
2.09778e-08
2.10541e-08
2.08374e-08
2.04116e-08
1.98951e-08
1.94091e-08
1.90448e-08
1.88501e-08
1.88322e-08
1.89678e-08
1.92135e-08
1.95148e-08
1.98462e-08
2.02841e-08
2.10855e-08
2.30041e-08
2.53876e-08
2.73836e-08
2.90758e-08
3.09884e-08
3.43657e-08
3.37447e-08
1.86783e-08
8.32109e-09
6.65679e-09
7.05689e-09
7.76973e-09
8.70078e-09
8.89948e-09
9.06194e-09
9.41643e-09
9.23328e-09
9.02456e-09
8.96594e-09
9.08255e-09
9.35303e-09
9.7506e-09
1.02552e-08
1.08538e-08
1.15383e-08
1.23019e-08
1.31387e-08
1.4046e-08
1.50295e-08
1.61072e-08
1.73059e-08
1.86506e-08
2.01282e-08
2.15883e-08
2.24148e-08
2.25653e-08
2.25021e-08
2.22618e-08
2.19054e-08
2.15087e-08
2.11473e-08
2.08812e-08
2.07463e-08
2.07532e-08
2.08909e-08
2.1132e-08
2.14378e-08
2.17658e-08
2.21087e-08
2.25279e-08
2.32316e-08
2.49043e-08
2.72726e-08
2.93416e-08
3.1581e-08
3.52066e-08
3.90054e-08
1.24434e-08
7.74976e-09
7.63436e-09
8.75142e-09
9.43098e-09
1.03645e-08
1.07632e-08
1.05048e-08
1.10183e-08
1.11688e-08
1.10567e-08
1.10213e-08
1.11443e-08
1.14278e-08
1.18486e-08
1.23846e-08
1.30213e-08
1.37492e-08
1.45593e-08
1.54428e-08
1.63945e-08
1.74193e-08
1.85351e-08
1.97665e-08
2.11282e-08
2.25706e-08
2.38031e-08
2.40883e-08
2.40072e-08