/*--------------------------------*- C++ -*----------------------------------*\
  =========                 |
  \\      /  F ield         | OpenFOAM: The Open Source CFD Toolbox
   \\    /   O peration     | Website:  https://openfoam.org
    \\  /    A nd           | Version:  7
     \\/     M anipulation  |
\*---------------------------------------------------------------------------*/
FoamFile
{
    version     2.0;
    format      ascii;
    class       volScalarField;
    location    "0.29";
    object      p;
}
// * * * * * * * * * * * * * * * * * * * * * * * * * * * * * * * * * * * * * //

dimensions      [0 2 -2 0 0 0 0];

internalField   nonuniform List<scalar> 
70000
(
0.110978
0.0340908
0.0209504
0.0234103
0.0236804
0.0226438
0.0216948
0.0209745
0.0203742
0.0198439
0.0193699
0.0189443
0.0185599
0.0182101
0.0178897
0.0175944
0.0173204
0.0170648
0.0168249
0.0165986
0.0163836
0.0161783
0.0159811
0.0157904
0.015605
0.0154234
0.0152445
0.0150671
0.0148898
0.0147115
0.0145308
0.0143465
0.0141574
0.0139619
0.0137591
0.0135477
0.0133275
0.0130977
0.01286
0.0126149
0.0123687
0.0121269
0.0118995
0.0117174
0.0115704
0.0115958
0.0116591
0.0122597
0.0127837
0.0150521
0.106677
0.0344528
0.0211529
0.0235049
0.0237349
0.0226796
0.0217227
0.0209976
0.0203936
0.0198605
0.0193843
0.0189571
0.0185713
0.0182205
0.0178992
0.017603
0.0173284
0.0170722
0.0168318
0.016605
0.0163896
0.016184
0.0159865
0.0157955
0.0156098
0.015428
0.0152489
0.0150713
0.0148938
0.0147153
0.0145345
0.0143501
0.0141607
0.0139651
0.0137622
0.0135506
0.0133302
0.0131001
0.0128622
0.0126169
0.0123703
0.0121282
0.0119002
0.0117176
0.0115697
0.0115947
0.0116568
0.0122558
0.0127862
0.0150435
0.103072
0.0353752
0.0214975
0.0236335
0.0238095
0.0227246
0.0217551
0.0210239
0.0204155
0.019879
0.0194003
0.0189712
0.0185839
0.0182317
0.0179094
0.0176124
0.017337
0.0170802
0.0168392
0.0166119
0.0163962
0.0161901
0.0159923
0.015801
0.0156151
0.015433
0.0152537
0.0150758
0.0148982
0.0147195
0.0145386
0.0143539
0.0141645
0.0139687
0.0137656
0.0135539
0.0133333
0.013103
0.0128649
0.0126192
0.0123723
0.0121296
0.0119009
0.0117175
0.011568
0.0115916
0.0116503
0.0122443
0.0127891
0.0149642
0.0999673
0.0364743
0.0219739
0.023806
0.0239107
0.0227825
0.0217933
0.0210538
0.0204401
0.0198996
0.0194178
0.0189864
0.0185973
0.0182437
0.0179202
0.0176222
0.017346
0.0170885
0.016847
0.0166191
0.0164029
0.0161965
0.0159983
0.0158067
0.0156205
0.0154382
0.0152587
0.0150806
0.0149028
0.0147239
0.0145428
0.0143581
0.0141685
0.0139726
0.0137694
0.0135575
0.0133368
0.0131063
0.012868
0.012622
0.0123746
0.0121313
0.0119017
0.0117169
0.0115652
0.0115857
0.01164
0.0122205
0.012783
0.0147977
0.097011
0.037568
0.0225473
0.0240242
0.0240452
0.0228608
0.0218422
0.0210907
0.0204701
0.0199242
0.0194384
0.019004
0.0186126
0.0182573
0.0179324
0.0176332
0.017356
0.0170977
0.0168555
0.016627
0.0164103
0.0162034
0.0160048
0.0158129
0.0156263
0.0154438
0.015264
0.0150857
0.0149077
0.0147287
0.0145475
0.0143626
0.0141729
0.0139769
0.0137737
0.0135617
0.013341
0.0131104
0.0128719
0.0126256
0.0123778
0.0121339
0.0119031
0.0117166
0.0115619
0.0115772
0.0116258
0.0121823
0.0127563
0.0145403
0.0941038
0.0386001
0.0231712
0.0242685
0.0242071
0.0229612
0.0219046
0.0211368
0.0205072
0.0199545
0.0194635
0.0190253
0.018631
0.0182735
0.0179467
0.0176461
0.0173677
0.0171083
0.0168652
0.016636
0.0164186
0.0162112
0.0160121
0.0158198
0.0156329
0.01545
0.01527
0.0150915
0.0149133
0.0147341
0.0145527
0.0143678
0.014178
0.013982
0.0137787
0.0135668
0.013346
0.0131155
0.0128769
0.0126305
0.0123824
0.0121378
0.0119057
0.0117171
0.0115588
0.0115665
0.0116078
0.0121285
0.0126989
0.0142
0.0912384
0.0395533
0.023812
0.0245179
0.0243833
0.0230788
0.0219793
0.0211921
0.020552
0.0199912
0.019494
0.019051
0.0186532
0.0182928
0.0179638
0.0176613
0.0173814
0.0171208
0.0168766
0.0166465
0.0164283
0.0162202
0.0160205
0.0158277
0.0156403
0.0154571
0.0152768
0.015098
0.0149196
0.0147403
0.0145588
0.0143737
0.0141839
0.0139879
0.0137847
0.0135729
0.0133523
0.0131219
0.0128834
0.0126371
0.0123887
0.0121437
0.0119102
0.0117193
0.0115565
0.011554
0.0115859
0.0120579
0.0126028
0.0137737
0.088424
0.0404212
0.0244537
0.0247606
0.0245629
0.0232072
0.0220629
0.0212545
0.0206032
0.0200338
0.0195295
0.0190811
0.0186792
0.0183156
0.017984
0.0176793
0.0173976
0.0171354
0.01689
0.0166588
0.0164396
0.0162307
0.0160303
0.0158369
0.015649
0.0154653
0.0152846
0.0151055
0.0149269
0.0147474
0.0145658
0.0143807
0.0141909
0.013995
0.013792
0.0135804
0.0133601
0.01313
0.0128918
0.0126459
0.0123974
0.0121522
0.0119172
0.0117237
0.011556
0.0115404
0.0115604
0.0119701
0.0124622
0.0132676
0.085667
0.0412012
0.0250908
0.0249927
0.0247395
0.0233414
0.0221523
0.0213215
0.0206589
0.0200807
0.0195691
0.0191151
0.0187087
0.0183416
0.0180071
0.0177
0.0174163
0.0171524
0.0169055
0.016673
0.0164528
0.0162429
0.0160417
0.0158475
0.015659
0.0154749
0.0152937
0.0151142
0.0149353
0.0147556
0.0145739
0.0143888
0.0141991
0.0140034
0.0138006
0.0135894
0.0133696
0.0131401
0.0129025
0.0126571
0.0124089
0.0121638
0.0119275
0.0117312
0.011558
0.0115264
0.011531
0.0118658
0.0122738
0.0126927
0.082971
0.0418925
0.0257218
0.0252142
0.0249105
0.0234787
0.0222452
0.0213911
0.0207172
0.0201305
0.0196116
0.0191518
0.018741
0.0183702
0.0180327
0.0177231
0.0174372
0.0171715
0.0169229
0.0166891
0.0164676
0.0162567
0.0160546
0.0158597
0.0156705
0.0154857
0.0153041
0.0151242
0.014945
0.0147651
0.0145833
0.0143983
0.0142087
0.0140132
0.0138108
0.0136002
0.013381
0.0131524
0.0129156
0.0126712
0.0124236
0.0121789
0.0119415
0.0117421
0.0115631
0.0115125
0.0114976
0.0117463
0.012039
0.0120648
0.080339
0.0424955
0.0263458
0.0254259
0.0250742
0.0236177
0.0223408
0.0214622
0.0207771
0.020182
0.019656
0.0191904
0.0187751
0.0184007
0.0180601
0.017748
0.0174599
0.0171923
0.0169421
0.0167068
0.0164841
0.0162721
0.016069
0.0158732
0.0156833
0.0154979
0.0153157
0.0151355
0.014956
0.0147759
0.014594
0.014409
0.0142196
0.0140245
0.0138226
0.0136128
0.0133944
0.0131669
0.0129313
0.0126883
0.0124416
0.0121977
0.0119595
0.0117567
0.0115717
0.0114995
0.0114601
0.0116137
0.0117631
0.011403
0.0777742
0.0430107
0.0269612
0.0256292
0.0252299
0.0237573
0.0224386
0.0215345
0.0208378
0.0202347
0.0197016
0.0192303
0.0188105
0.0184324
0.0180889
0.0177742
0.0174839
0.0172144
0.0169625
0.0167258
0.0165018
0.0162886
0.0160846
0.0158879
0.0156973
0.0155113
0.0153286
0.0151479
0.0149681
0.0147879
0.014606
0.0144211
0.0142319
0.0140373
0.0138361
0.0136271
0.0134098
0.0131837
0.0129495
0.0127083
0.0124628
0.0122201
0.0119814
0.0117751
0.0115836
0.0114876
0.0114185
0.011471
0.0114552
0.0107286
0.0752794
0.0434385
0.0275657
0.0258253
0.025377
0.0238968
0.0225385
0.0216077
0.0208992
0.0202881
0.019748
0.019271
0.0188467
0.0184651
0.0181185
0.0178013
0.0175088
0.0172374
0.0169839
0.0167457
0.0165205
0.0163062
0.0161011
0.0159036
0.0157122
0.0155256
0.0153424
0.0151614
0.0149813
0.0148009
0.014619
0.0144343
0.0142455
0.0140514
0.013851
0.0136431
0.0134271
0.0132026
0.0129702
0.012731
0.0124872
0.0122459
0.0120071
0.0117969
0.0115987
0.0114771
0.011373
0.0113214
0.011127
0.0100634
0.072857
0.04378
0.0281567
0.0260158
0.0255148
0.0240353
0.0226403
0.0216818
0.020961
0.0203422
0.0197952
0.0193125
0.0188836
0.0184984
0.0181489
0.0178291
0.0175345
0.0172612
0.017006
0.0167664
0.0165399
0.0163245
0.0161184
0.0159201
0.015728
0.0155407
0.015357
0.0151756
0.0149953
0.0148148
0.014633
0.0144485
0.0142601
0.0140667
0.0138672
0.0136605
0.0134461
0.0132234
0.012993
0.0127561
0.0125144
0.0122746
0.012036
0.0118218
0.0116162
0.0114681
0.0113244
0.0111686
0.010791
0.00942757
0.0705095
0.0440366
0.0287309
0.0262022
0.0256432
0.0241718
0.022744
0.0217569
0.0210232
0.0203968
0.0198431
0.0193545
0.0189212
0.0185323
0.0181798
0.0178575
0.0175607
0.0172855
0.0170287
0.0167876
0.0165598
0.0163433
0.0161363
0.0159371
0.0157443
0.0155564
0.0153723
0.0151905
0.01501
0.0148295
0.0146477
0.0144635
0.0142757
0.0140831
0.0138846
0.0136792
0.0134664
0.0132458
0.0130177
0.0127833
0.0125438
0.0123058
0.0120676
0.0118492
0.0116357
0.0114605
0.0112734
0.0110161
0.0104594
0.00883857
0.0682388
0.0442101
0.0292853
0.0263859
0.0257618
0.0243054
0.0228492
0.0218329
0.0210858
0.0204519
0.0198915
0.0193972
0.0189592
0.0185667
0.0182112
0.0178864
0.0175874
0.0173103
0.0170518
0.0168093
0.0165803
0.0163626
0.0161547
0.0159546
0.0157611
0.0155727
0.0153881
0.015206
0.0150253
0.0148448
0.0146632
0.0144793
0.0142921
0.0141003
0.0139029
0.0136991
0.0134881
0.0132697
0.0130439
0.0128122
0.0125752
0.012339
0.0121013
0.0118785
0.0116565
0.0114543
0.0112215
0.0108674
0.0101431
0.00831003
0.0660465
0.0443025
0.0298166
0.0265684
0.0258708
0.0244351
0.0229557
0.0219099
0.0211486
0.0205074
0.0199405
0.0194405
0.0189979
0.0186017
0.0182431
0.0179157
0.0176145
0.0173355
0.0170754
0.0168314
0.0166011
0.0163824
0.0161735
0.0159726
0.0157784
0.0155894
0.0154044
0.015222
0.0150412
0.0148606
0.0146792
0.0144958
0.0143092
0.0141183
0.0139222
0.0137199
0.0135108
0.0132947
0.0130715
0.0128426
0.0126082
0.0123738
0.0121367
0.0119094
0.0116783
0.0114495
0.0111702
0.0107258
0.00985117
0.00785148
0.0639338
0.0443166
0.0303218
0.0267506
0.0259704
0.0245599
0.023063
0.0219879
0.0212117
0.0205631
0.01999
0.0194843
0.019037
0.0186372
0.0182755
0.0179456
0.0176421
0.0173612
0.0170995
0.016854
0.0166224
0.0164026
0.0161927
0.015991
0.0157961
0.0156066
0.0154211
0.0152385
0.0150575
0.014877
0.0146958
0.0145129
0.0143269
0.0141371
0.0139422
0.0137416
0.0135345
0.0133208
0.0131002
0.0128742
0.0126426
0.0124099
0.0121734
0.0119417
0.011701
0.0114463
0.0111211
0.0105945
0.00959033
0.00746873
0.0619015
0.0442556
0.0307978
0.0269333
0.0260609
0.0246787
0.0231708
0.0220669
0.0212748
0.0206191
0.02004
0.0195286
0.0190767
0.0186731
0.0183084
0.0179759
0.0176702
0.0173874
0.017124
0.016877
0.0166442
0.0164232
0.0162124
0.0160099
0.0158143
0.0156242
0.0154383
0.0152554
0.0150743
0.0148939
0.014713
0.0145305
0.0143454
0.0141565
0.013963
0.0137641
0.0135591
0.0133479
0.0131301
0.012907
0.0126782
0.0124473
0.0122113
0.0119752
0.0117247
0.0114454
0.0110762
0.0104765
0.00936558
0.0071645
0.05995
0.0441231
0.0312418
0.027117
0.0261429
0.0247907
0.0232785
0.0221469
0.0213382
0.0206752
0.0200904
0.0195734
0.0191168
0.0187095
0.0183418
0.0180066
0.0176988
0.017414
0.0171489
0.0169005
0.0166663
0.0164443
0.0162324
0.0160291
0.0158328
0.0156422
0.0154559
0.0152728
0.0150917
0.0149113
0.0147308
0.0145488
0.0143644
0.0141767
0.0139846
0.0137875
0.0135847
0.013376
0.0131611
0.0129409
0.0127149
0.0124859
0.0122503
0.01201
0.0117496
0.0114473
0.0110371
0.0103745
0.00918052
0.00693907
0.0580791
0.0439234
0.0316507
0.0273017
0.026217
0.0248951
0.0233853
0.0222278
0.0214016
0.0207312
0.0201411
0.0196187
0.0191574
0.0187464
0.0183756
0.0180379
0.0177277
0.017441
0.0171742
0.0169244
0.0166889
0.0164657
0.0162529
0.0160488
0.0158519
0.0156607
0.015474
0.0152907
0.0151095
0.0149293
0.0147491
0.0145677
0.0143842
0.0141976
0.014007
0.0138117
0.0136112
0.0134051
0.0131931
0.012976
0.0127529
0.0125257
0.0122905
0.0120462
0.0117763
0.0114528
0.0110059
0.0102909
0.00903743
0.00679142
0.0562883
0.043661
0.0320222
0.0274871
0.0262842
0.0249912
0.0234906
0.0223095
0.0214652
0.0207872
0.0201919
0.0196644
0.0191984
0.0187837
0.0184099
0.0180695
0.0177572
0.0174685
0.0172
0.0169487
0.016712
0.0164877
0.0162739
0.0160689
0.0158713
0.0156796
0.0154926
0.0153091
0.0151278
0.0149478
0.0147679
0.0145872
0.0144046
0.0142192
0.0140302
0.0138369
0.0136386
0.0134352
0.0132262
0.0130122
0.0127921
0.0125668
0.0123321
0.0120842
0.0118053
0.0114628
0.0109842
0.0102279
0.00893763
0.00671884
0.0545769
0.0433408
0.0323538
0.0276725
0.0263454
0.0250786
0.0235935
0.0223918
0.0215289
0.020843
0.020243
0.0197104
0.0192399
0.0188214
0.0184445
0.0181016
0.017787
0.0174964
0.0172262
0.0169734
0.0167354
0.01651
0.0162953
0.0160895
0.0158912
0.015699
0.0155117
0.0153279
0.0151467
0.0149669
0.0147874
0.0146074
0.0144257
0.0142416
0.0140542
0.0138629
0.013667
0.0134664
0.0132605
0.0130496
0.0128325
0.0126093
0.0123752
0.0121243
0.0118372
0.0114785
0.0109737
0.0101874
0.008882
0.00671771
0.0529434
0.0429681
0.0326435
0.0278568
0.0264016
0.0251569
0.0236932
0.0224745
0.0215926
0.0208985
0.020294
0.0197568
0.0192817
0.0188594
0.0184796
0.0181341
0.0178173
0.0175248
0.0172529
0.0169986
0.0167593
0.0165328
0.0163171
0.0161105
0.0159116
0.0157189
0.0155312
0.0153473
0.0151661
0.0149865
0.0148076
0.0146282
0.0144476
0.0142648
0.0140791
0.0138899
0.0136965
0.0134987
0.0132959
0.0130883
0.0128743
0.0126534
0.0124201
0.0121667
0.0118728
0.0115006
0.0109759
0.0101711
0.00887055
0.00678465
0.0513863
0.0425482
0.0328896
0.0280386
0.0264538
0.025226
0.0237889
0.0225571
0.0216565
0.0209536
0.0203449
0.0198033
0.0193239
0.0188979
0.018515
0.018167
0.017848
0.0175536
0.01728
0.0170242
0.0167836
0.016556
0.0163393
0.016132
0.0159325
0.0157393
0.0155513
0.0153673
0.0151861
0.0150068
0.0148283
0.0146497
0.0144702
0.0142888
0.0141049
0.0139178
0.013727
0.0135321
0.0133326
0.0131283
0.0129176
0.0126991
0.012467
0.012212
0.0119126
0.0115303
0.0109921
0.0101801
0.00890223
0.00691682
0.0499036
0.0420868
0.0330909
0.0282159
0.026503
0.0252861
0.0238795
0.0226395
0.0217204
0.0210083
0.0203956
0.01985
0.0193663
0.0189366
0.0185508
0.0182003
0.0178791
0.0175827
0.0173075
0.0170502
0.0168084
0.0165796
0.0163621
0.016154
0.0159538
0.0157602
0.0155719
0.0153878
0.0152067
0.0150277
0.0148497
0.014672
0.0144936
0.0143137
0.0141316
0.0139467
0.0137586
0.0135667
0.0133706
0.0131697
0.0129625
0.0127466
0.0125161
0.0122604
0.0119573
0.0115684
0.0110234
0.010215
0.00897574
0.00711171
0.0484931
0.0415897
0.0332466
0.0283866
0.02655
0.0253373
0.0239644
0.0227209
0.0217844
0.0210626
0.0204459
0.0198968
0.019409
0.0189757
0.0185869
0.0182339
0.0179106
0.0176123
0.0173354
0.0170767
0.0168336
0.0166037
0.0163853
0.0161764
0.0159756
0.0157816
0.015593
0.0154088
0.0152278
0.0150492
0.0148719
0.014695
0.0145177
0.0143394
0.0141592
0.0139767
0.0137913
0.0136026
0.0134099
0.0132126
0.013009
0.0127962
0.0125678
0.0123124
0.0120077
0.0116157
0.0110706
0.0102763
0.00908974
0.00736007
0.0471523
0.0410624
0.0333564
0.0285482
0.0265958
0.0253802
0.0240427
0.0228008
0.0218483
0.0211163
0.0204958
0.0199434
0.0194518
0.019015
0.0186232
0.0182678
0.0179424
0.0176422
0.0173637
0.0171036
0.0168592
0.0166283
0.0164089
0.0161993
0.0159979
0.0158034
0.0156147
0.0154304
0.0152496
0.0150713
0.0148946
0.0147187
0.0145427
0.014366
0.0141878
0.0140077
0.0138251
0.0136396
0.0134506
0.0132571
0.0130573
0.0128479
0.0126222
0.0123683
0.0120641
0.0116731
0.0111345
0.0103637
0.00924241
0.00765761
0.0458785
0.0405106
0.0334206
0.0286983
0.0266407
0.0254154
0.0241139
0.0228787
0.0219121
0.0211696
0.020545
0.0199898
0.0194948
0.0190545
0.0186599
0.0183021
0.0179745
0.0176726
0.0173924
0.0171308
0.0168852
0.0166533
0.016433
0.0162226
0.0160207
0.0158259
0.0156369
0.0154526
0.015272
0.0150941
0.0149182
0.0147432
0.0145685
0.0143935
0.0142174
0.0140398
0.0138602
0.013678
0.0134927
0.0133032
0.0131075
0.0129019
0.0126797
0.0124286
0.0121272
0.0117411
0.0112152
0.010477
0.00943137
0.00799884
0.0446689
0.0399396
0.03344
0.0288341
0.026685
0.0254436
0.0241774
0.0229537
0.0219754
0.0212222
0.0205936
0.020036
0.0195377
0.0190941
0.0186967
0.0183365
0.018007
0.0177032
0.0174215
0.0171585
0.0169117
0.0166787
0.0164575
0.0162465
0.016044
0.0158488
0.0156596
0.0154753
0.015295
0.0151176
0.0149424
0.0147685
0.0145952
0.0144219
0.014248
0.014073
0.0138964
0.0137178
0.0135363
0.013351
0.0131596
0.0129584
0.0127405
0.0124936
0.0121974
0.01182
0.011313
0.0106153
0.00965379
0.00837806
0.0435205
0.0393545
0.033416
0.0289533
0.0267285
0.0254655
0.024233
0.0230253
0.022038
0.0212743
0.0206413
0.0200816
0.0195806
0.0191338
0.0187336
0.0183712
0.0180397
0.0177342
0.0174509
0.0171866
0.0169386
0.0167046
0.0164825
0.0162708
0.0160678
0.0158723
0.0156829
0.0154987
0.0153186
0.0151418
0.0149674
0.0147946
0.0146227
0.0144513
0.0142796
0.0141073
0.0139339
0.0137589
0.0135815
0.0134005
0.0132139
0.0130176
0.0128048
0.0125636
0.0122751
0.0119103
0.0114277
0.0107775
0.00990646
0.00878943
0.0424302
0.0387598
0.0333503
0.0290537
0.0267709
0.025482
0.0242803
0.0230926
0.0220996
0.0213257
0.0206882
0.0201267
0.0196233
0.0191736
0.0187707
0.0184061
0.0180727
0.0177655
0.0174806
0.017215
0.0169658
0.0167308
0.016508
0.0162956
0.0160921
0.0158963
0.0157068
0.0155227
0.0153429
0.0151667
0.0149931
0.0148215
0.0146512
0.0144816
0.0143123
0.0141428
0.0139726
0.0138014
0.0136282
0.0134519
0.0132704
0.0130795
0.0128728
0.0126389
0.0123605
0.012012
0.0115588
0.0109621
0.010186
0.00922698
0.041395
0.0381597
0.0332452
0.0291336
0.0268112
0.0254939
0.0243196
0.0231549
0.0221597
0.0213763
0.0207342
0.020171
0.0196656
0.0192133
0.0188078
0.0184411
0.0181058
0.017797
0.0175107
0.0172437
0.0169935
0.0167575
0.0165339
0.0163209
0.0161169
0.0159208
0.0157313
0.0155473
0.0153679
0.0151923
0.0150196
0.0148492
0.0146805
0.0145129
0.0143461
0.0141794
0.0140127
0.0138453
0.0136766
0.0135052
0.0133291
0.0131444
0.0129447
0.0127197
0.0124538
0.012125
0.0117057
0.0111671
0.0104888
0.00968525
0.0404118
0.0375579
0.0331036
0.0291912
0.0268483
0.0255016
0.0243509
0.0232117
0.0222179
0.0214261
0.0207791
0.0202144
0.0197075
0.0192528
0.018845
0.0184761
0.0181392
0.0178287
0.017541
0.0172728
0.0170215
0.0167846
0.0165602
0.0163466
0.0161422
0.0159459
0.0157563
0.0155725
0.0153935
0.0152186
0.0150469
0.0148778
0.0147107
0.0145453
0.0143809
0.0142173
0.0140541
0.0138907
0.0137266
0.0135605
0.0133903
0.0132123
0.0130206
0.012806
0.0125549
0.012249
0.0118673
0.0113905
0.0108114
0.0101587
0.0394776
0.0369578
0.0329285
0.0292255
0.0268808
0.0255058
0.0243746
0.0232623
0.0222736
0.0214749
0.020823
0.0202569
0.0197488
0.0192921
0.018882
0.0185112
0.0181726
0.0178607
0.0175716
0.0173022
0.0170498
0.0168121
0.0165869
0.0163728
0.016168
0.0159715
0.0157819
0.0155983
0.0154198
0.0152456
0.0150749
0.0149072
0.0147419
0.0145786
0.0144168
0.0142563
0.0140967
0.0139376
0.0137784
0.0136178
0.0134539
0.0132833
0.0131007
0.0128979
0.0126638
0.0123836
0.0120425
0.0116299
0.0111499
0.0106418
0.0385895
0.0363621
0.032723
0.0292356
0.0269074
0.0255068
0.0243911
0.0233065
0.0223262
0.0215225
0.0208657
0.0202982
0.0197894
0.0193311
0.0189189
0.0185463
0.018206
0.0178928
0.0176024
0.0173319
0.0170785
0.0168399
0.0166141
0.0163994
0.0161943
0.0159976
0.0158081
0.0156248
0.0154468
0.0152733
0.0151038
0.0149375
0.014774
0.0146129
0.0144539
0.0142966
0.0141408
0.0139861
0.0138318
0.013677
0.0135199
0.0133574
0.0131849
0.0129954
0.0127801
0.012528
0.0122299
0.0118828
0.0115003
0.0111292
0.0377445
0.0357732
0.0324906
0.0292212
0.0269264
0.0255046
0.024401
0.0233438
0.0223753
0.0215685
0.0209072
0.0203383
0.0198291
0.0193696
0.0189556
0.0185812
0.0182395
0.0179249
0.0176334
0.0173618
0.0171075
0.0168681
0.0166416
0.0164265
0.0162211
0.0160243
0.0158348
0.0156518
0.0154744
0.0153018
0.0151334
0.0149686
0.014807
0.0146482
0.014492
0.0143381
0.0141862
0.014036
0.013887
0.0137383
0.0135884
0.0134346
0.0132732
0.0130984
0.0129036
0.0126814
0.012428
0.0121465
0.0118587
0.011616
0.03694
0.0351929
0.0322348
0.0291825
0.0269362
0.0254992
0.0244047
0.0233742
0.0224202
0.0216127
0.0209474
0.0203772
0.0198678
0.0194075
0.018992
0.018616
0.0182729
0.0179571
0.0176645
0.0173919
0.0171367
0.0168966
0.0166696
0.016454
0.0162483
0.0160514
0.0158621
0.0156795
0.0155027
0.015331
0.0151638
0.0150006
0.014841
0.0146846
0.0145312
0.0143807
0.0142329
0.0140874
0.0139439
0.0138017
0.0136595
0.013515
0.0133654
0.0132064
0.0130336
0.0128429
0.0126349
0.0124184
0.0122212
0.0120974
0.0361734
0.0346229
0.0319587
0.0291197
0.0269355
0.0254902
0.0244026
0.0233976
0.0224603
0.0216547
0.0209862
0.0204146
0.0199053
0.0194446
0.019028
0.0186506
0.0183062
0.0179893
0.0176957
0.0174222
0.0171662
0.0169254
0.0166978
0.0164819
0.016276
0.0160791
0.01589
0.0157078
0.0155316
0.0153609
0.015195
0.0150334
0.0148758
0.0147219
0.0145716
0.0144246
0.0142809
0.0141403
0.0140025
0.013867
0.0137329
0.0135984
0.0134615
0.0133193
0.0131696
0.0130112
0.0128489
0.0126958
0.0125839
0.0125688
0.0354422
0.0340642
0.0316657
0.0290338
0.026923
0.0254773
0.0243953
0.023414
0.0224954
0.021694
0.0210234
0.0204506
0.0199416
0.0194809
0.0190634
0.0186848
0.0183393
0.0180215
0.0177269
0.0174526
0.0171958
0.0169544
0.0167264
0.0165101
0.0163042
0.0161073
0.0159184
0.0157366
0.0155612
0.0153915
0.0152269
0.0150671
0.0149116
0.0147603
0.014613
0.0144696
0.0143302
0.0141946
0.0140628
0.0139343
0.0138086
0.0136846
0.013561
0.0134365
0.0133106
0.0131851
0.0130679
0.0129758
0.0129433
0.013026
0.0347442
0.0335179
0.0313588
0.0289259
0.0268976
0.0254596
0.0243831
0.0234238
0.022525
0.0217302
0.0210587
0.020485
0.0199765
0.0195161
0.0190982
0.0187186
0.0183722
0.0180534
0.0177582
0.0174831
0.0172257
0.0169837
0.0167553
0.0165388
0.0163327
0.0161359
0.0159473
0.0157661
0.0155915
0.0154228
0.0152596
0.0151015
0.0149482
0.0147996
0.0146554
0.0145158
0.0143808
0.0142504
0.0141246
0.0140034
0.0138865
0.0137734
0.0136638
0.0135574
0.0134559
0.0133632
0.0132901
0.0132557
0.0132961
0.0134653
0.0340772
0.0329844
0.0310407
0.0287974
0.0268586
0.0254364
0.0243661
0.023427
0.0225488
0.0217629
0.021092
0.0205177
0.0200098
0.0195502
0.0191322
0.0187519
0.0184047
0.0180852
0.0177893
0.0175136
0.0172556
0.0170132
0.0167845
0.0165677
0.0163616
0.016165
0.0159767
0.0157961
0.0156223
0.0154548
0.0152931
0.0151368
0.0149857
0.0148398
0.0146988
0.014563
0.0144325
0.0143074
0.0141879
0.0140742
0.0139664
0.0138646
0.0137693
0.0136815
0.0136044
0.013544
0.0135132
0.0135328
0.0136391
0.0138835
0.0334393
0.0324642
0.0307139
0.0286499
0.0268056
0.025407
0.0243444
0.023424
0.0225666
0.0217917
0.021123
0.0205486
0.0200415
0.0195829
0.0191652
0.0187846
0.0184367
0.0181167
0.0178202
0.0175441
0.0172856
0.0170429
0.0168138
0.016597
0.0163909
0.0161945
0.0160066
0.0158266
0.0156538
0.0154874
0.0153272
0.0151728
0.0150241
0.0148809
0.0147432
0.0146113
0.0144854
0.0143657
0.0142527
0.0141466
0.0140481
0.0139578
0.013877
0.0138079
0.013755
0.013726
0.0137351
0.0138044
0.0139694
0.0142782
0.0328286
0.0319575
0.0303807
0.028485
0.0267382
0.0253706
0.024318
0.0234151
0.0225784
0.0218162
0.0211513
0.0205775
0.0200715
0.0196142
0.0191972
0.0188166
0.0184683
0.0181479
0.017851
0.0175744
0.0173157
0.0170726
0.0168434
0.0166265
0.0164205
0.0162243
0.016037
0.0158577
0.0156858
0.0155207
0.0153621
0.0152096
0.0150632
0.0149228
0.0147885
0.0146606
0.0145393
0.0144251
0.0143186
0.0142203
0.0141313
0.0140526
0.0139865
0.0139359
0.0139066
0.0139075
0.0139539
0.0140681
0.0142844
0.0146469
0.0322434
0.0314642
0.0300432
0.0283045
0.0266567
0.0253264
0.0242866
0.0234004
0.0225841
0.0218361
0.0211766
0.0206044
0.0200996
0.019644
0.019228
0.0188477
0.0184993
0.0181786
0.0178814
0.0176046
0.0173456
0.0171024
0.0168731
0.0166562
0.0164504
0.0162546
0.0160678
0.0158892
0.0157183
0.0155545
0.0153975
0.0152471
0.015103
0.0149655
0.0148347
0.0147107
0.0145942
0.0144855
0.0143856
0.0142952
0.0142156
0.0141487
0.014097
0.0140645
0.0140579
0.0140869
0.0141675
0.0143216
0.0145816
0.0149876
0.0316822
0.0309844
0.0297031
0.0281103
0.0265612
0.0252738
0.0242501
0.0233803
0.0225839
0.021851
0.0211987
0.0206289
0.0201258
0.019672
0.0192575
0.0188778
0.0185295
0.0182087
0.0179115
0.0176346
0.0173755
0.0171322
0.0169029
0.0166861
0.0164805
0.0162851
0.0160989
0.0159212
0.0157513
0.0155889
0.0154335
0.0152851
0.0151436
0.015009
0.0148815
0.0147616
0.0146498
0.0145467
0.0144534
0.0143709
0.0143008
0.0142454
0.0142078
0.0141928
0.0142076
0.0142627
0.014374
0.0145627
0.0148589
0.0152987
0.0311434
0.0305179
0.0293618
0.0279041
0.0264524
0.0252124
0.0242081
0.0233548
0.0225778
0.0218608
0.0212171
0.0206508
0.0201499
0.0196982
0.0192855
0.0189068
0.0185589
0.0182383
0.0179411
0.0176643
0.0174052
0.0171619
0.0169327
0.0167161
0.0165109
0.0163159
0.0161304
0.0159535
0.0157848
0.0156237
0.0154701
0.0153238
0.0151847
0.015053
0.014929
0.0148132
0.0147061
0.0146086
0.0145218
0.0144471
0.0143863
0.0143422
0.0143183
0.0143198
0.0143546
0.0144334
0.0145716
0.0147896
0.0151147
0.0155789
0.0306258
0.0300644
0.0290207
0.0276876
0.0263309
0.0251418
0.0241603
0.0233239
0.0225659
0.0218654
0.0212316
0.02067
0.0201717
0.0197225
0.0193119
0.0189346
0.0185874
0.0182671
0.0179702
0.0176935
0.0174346
0.0171915
0.0169625
0.0167462
0.0165414
0.0163469
0.0161621
0.0159862
0.0158186
0.015659
0.0155072
0.0153629
0.0152263
0.0150976
0.014977
0.0148652
0.0147629
0.0146709
0.0145906
0.0145235
0.0144718
0.0144385
0.0144276
0.0144446
0.0144976
0.0145973
0.0147587
0.0150005
0.0153475
0.0158274
0.0301281
0.0296238
0.0286809
0.0274623
0.0261975
0.0250618
0.0241063
0.0232878
0.0225483
0.0218647
0.021242
0.0206861
0.0201912
0.0197447
0.0193365
0.0189609
0.0186148
0.0182951
0.0179987
0.0177223
0.0174637
0.0172209
0.0169922
0.0167763
0.0165719
0.0163781
0.0161941
0.0160191
0.0158528
0.0156947
0.0155446
0.0154025
0.0152684
0.0151426
0.0150255
0.0149176
0.0148199
0.0147334
0.0146593
0.0145997
0.0145567
0.0145337
0.0145349
0.0145661
0.0146354
0.0147532
0.0149337
0.0151941
0.0155562
0.0160437
0.0296491
0.0291956
0.0283433
0.0272299
0.0260531
0.0249725
0.0240458
0.0232463
0.0225252
0.0218586
0.021248
0.020699
0.0202081
0.0197647
0.0193592
0.0189857
0.018641
0.0183222
0.0180264
0.0177506
0.0174924
0.01725
0.0170217
0.0168063
0.0166025
0.0164094
0.0162262
0.0160523
0.0158872
0.0157306
0.0155823
0.0154423
0.0153108
0.0151879
0.0150741
0.0149702
0.0148771
0.0147957
0.0147278
0.0146753
0.0146406
0.0146271
0.0146395
0.0146834
0.0147668
0.0148997
0.0150953
0.0153691
0.01574
0.016228
0.0291879
0.0287796
0.0280086
0.0269916
0.0258987
0.0248739
0.0239787
0.0231994
0.0224967
0.0218471
0.0212494
0.0207084
0.0202222
0.0197824
0.0193799
0.0190089
0.0186659
0.0183483
0.0180533
0.0177782
0.0175206
0.0172788
0.017051
0.0168362
0.016633
0.0164407
0.0162584
0.0160856
0.0159218
0.0157668
0.0156203
0.0154824
0.0153533
0.0152333
0.0151229
0.0150228
0.014934
0.0148578
0.0147957
0.0147498
0.0147228
0.0147182
0.0147404
0.0147954
0.0148907
0.0150357
0.0152425
0.0155246
0.0158985
0.0163803
0.0287433
0.0283754
0.0276776
0.0267487
0.0257353
0.0247665
0.0239047
0.023147
0.0224628
0.0218303
0.0212461
0.020714
0.0202334
0.0197977
0.0193985
0.0190302
0.0186893
0.0183731
0.0180792
0.017805
0.0175482
0.017307
0.01708
0.0168658
0.0166634
0.016472
0.0162907
0.016119
0.0159565
0.0158031
0.0156584
0.0155227
0.015396
0.0152788
0.0151716
0.0150752
0.0149906
0.0149192
0.0148625
0.0148228
0.0148028
0.0148061
0.014837
0.0149013
0.0150061
0.0151602
0.0153742
0.0156601
0.0160315
0.0165014
0.0283146
0.0279827
0.0273506
0.0265023
0.0255639
0.0246505
0.0238237
0.023089
0.0224237
0.0218083
0.0212381
0.0207158
0.0202416
0.0198103
0.0194149
0.0190497
0.0187111
0.0183967
0.0181041
0.0178309
0.0175751
0.0173348
0.0171085
0.0168952
0.0166936
0.0165031
0.0163228
0.0161523
0.0159912
0.0158393
0.0156965
0.0155628
0.0154386
0.0153241
0.01522
0.0151271
0.0150465
0.0149795
0.0149279
0.0148939
0.0148802
0.0148902
0.0149284
0.0150002
0.0151122
0.0152722
0.0154898
0.015775
0.0161391
0.0165921
0.0279008
0.0276012
0.0270283
0.0262535
0.0253855
0.0245264
0.0237358
0.0230253
0.0223792
0.0217811
0.0212252
0.0207135
0.0202464
0.0198202
0.0194289
0.0190671
0.0187312
0.0184188
0.0181278
0.0178559
0.0176012
0.0173619
0.0171366
0.0169241
0.0167235
0.0165339
0.0163548
0.0161855
0.0160259
0.0158755
0.0157345
0.0156029
0.0154809
0.015369
0.0152679
0.0151783
0.0151014
0.0150386
0.0149915
0.0149625
0.0149542
0.0149699
0.015014
0.0150913
0.0152081
0.0153712
0.0155888
0.0158693
0.0162217
0.0166535
0.0275013
0.0272305
0.0267108
0.0260032
0.0252011
0.0243948
0.0236412
0.0229559
0.0223295
0.0217487
0.0212075
0.0207069
0.0202477
0.0198272
0.0194404
0.0190823
0.0187494
0.0184394
0.0181502
0.0178799
0.0176264
0.0173883
0.017164
0.0169526
0.016753
0.0165645
0.0163865
0.0162185
0.0160602
0.0159115
0.0157722
0.0156426
0.0155229
0.0154135
0.0153151
0.0152286
0.0151551
0.015096
0.0150529
0.0150282
0.0150244
0.0150447
0.015093
0.0151741
0.0152932
0.0154566
0.0156709
0.0159431
0.0162801
0.0166871
0.0271152
0.0268702
0.0263986
0.0257522
0.0250115
0.0242564
0.0235398
0.0228807
0.0222747
0.0217112
0.021185
0.0206961
0.0202455
0.0198312
0.0194493
0.0190952
0.0187656
0.0184583
0.0181712
0.0179026
0.0176506
0.0174138
0.0171907
0.0169804
0.016782
0.0165946
0.0164178
0.0162512
0.0160943
0.0159471
0.0158096
0.0156818
0.0155642
0.0154572
0.0153614
0.0152777
0.0152072
0.0151513
0.0151117
0.0150905
0.0150902
0.0151138
0.015165
0.0152478
0.0153671
0.015528
0.0157361
0.0159968
0.0163151
0.0166944
0.0267419
0.0265201
0.0260917
0.0255011
0.0248176
0.0241116
0.0234321
0.0227999
0.0222146
0.0216688
0.0211576
0.0206809
0.0202394
0.019832
0.0194554
0.0191057
0.0187798
0.0184754
0.0181907
0.017924
0.0176737
0.0174383
0.0172166
0.0170076
0.0168103
0.0166242
0.0164487
0.0162833
0.0161279
0.0159822
0.0158464
0.0157205
0.0156048
0.0155
0.0154065
0.0153253
0.0152574
0.0152043
0.0151675
0.015149
0.0151512
0.0151769
0.0152293
0.0153121
0.0154293
0.0155853
0.0157845
0.0160308
0.0163278
0.0166773
0.0263808
0.0261798
0.0257904
0.0252507
0.0246203
0.0239612
0.0233184
0.0227135
0.0221494
0.0216214
0.0211255
0.0206614
0.0202296
0.0198295
0.0194586
0.0191137
0.0187917
0.0184905
0.0182085
0.017944
0.0176956
0.0174618
0.0172416
0.0170339
0.016838
0.0166531
0.0164789
0.0163149
0.0161609
0.0160167
0.0158825
0.0157583
0.0156445
0.0155416
0.0154502
0.0153711
0.0153055
0.0152545
0.0152198
0.0152033
0.015207
0.0152335
0.0152856
0.0153665
0.0154797
0.0156285
0.0158164
0.016046
0.0163196
0.0166376
0.0260314
0.025849
0.0254949
0.0250014
0.0244203
0.0238057
0.023199
0.0226216
0.0220791
0.0215691
0.0210887
0.0206374
0.0202158
0.0198236
0.0194589
0.019119
0.0188013
0.0185036
0.0182245
0.0179624
0.017716
0.0174841
0.0172655
0.0170593
0.0168648
0.0166813
0.0165084
0.0163458
0.0161931
0.0160504
0.0159177
0.0157951
0.015683
0.0155818
0.0154922
0.0154149
0.015351
0.0153017
0.0152685
0.0152529
0.0152571
0.0152831
0.0153336
0.015411
0.0155182
0.0156578
0.0158323
0.0160434
0.0162919
0.0165774
0.025693
0.0255274
0.0252051
0.0247539
0.0242183
0.023646
0.0230743
0.0225245
0.0220039
0.021512
0.0210472