/*--------------------------------*- C++ -*----------------------------------*\
  =========                 |
  \\      /  F ield         | OpenFOAM: The Open Source CFD Toolbox
   \\    /   O peration     | Website:  https://openfoam.org
    \\  /    A nd           | Version:  7
     \\/     M anipulation  |
\*---------------------------------------------------------------------------*/
FoamFile
{
    version     2.0;
    format      ascii;
    class       surfaceScalarField;
    location    "0.29";
    object      phi_0;
}
// * * * * * * * * * * * * * * * * * * * * * * * * * * * * * * * * * * * * * //

dimensions      [0 3 -1 0 0 0 0];

internalField   nonuniform List<scalar> 
139350
(
6.45926e-08
9.20389e-08
3.19515e-08
3.26411e-08
2.30608e-08
8.89064e-09
1.95669e-08
3.49395e-09
1.76153e-08
1.95162e-09
1.61875e-08
1.42775e-09
1.5054e-08
1.13353e-09
1.41392e-08
9.14805e-10
1.33856e-08
7.53599e-10
1.27501e-08
6.35474e-10
1.2204e-08
5.46111e-10
1.1728e-08
4.76033e-10
1.13083e-08
4.19627e-10
1.0935e-08
3.73374e-10
1.06001e-08
3.34881e-10
1.02977e-08
3.02436e-10
1.00229e-08
2.74789e-10
9.77186e-09
2.51001e-10
9.5415e-09
2.30357e-10
9.3292e-09
2.12304e-10
9.1328e-09
1.96405e-10
8.95049e-09
1.8231e-10
8.78075e-09
1.69733e-10
8.62231e-09
1.58441e-10
8.47407e-09
1.4824e-10
8.33511e-09
1.38964e-10
8.20463e-09
1.30473e-10
8.08199e-09
1.22645e-10
7.96662e-09
1.15368e-10
7.85807e-09
1.08553e-10
7.75597e-09
1.02096e-10
7.66004e-09
9.59349e-11
7.57009e-09
8.99507e-11
7.48596e-09
8.41293e-11
7.40768e-09
7.82816e-11
7.33515e-09
7.25217e-11
7.2687e-09
6.64536e-11
7.20814e-09
6.05655e-11
7.15424e-09
5.38941e-11
7.10632e-09
4.79245e-11
7.06589e-09
4.04214e-11
7.03112e-09
3.47715e-11
7.00358e-09
2.75436e-11
6.98102e-09
2.25648e-11
6.95882e-09
2.21925e-11
6.94087e-09
1.79542e-11
6.89274e-09
4.81291e-11
6.85333e-09
3.94134e-11
6.51652e-09
3.3681e-10
-2.77862e-09
9.29514e-09
1.26026e-07
1.27457e-07
9.12641e-08
6.74029e-08
7.19442e-08
2.82105e-08
6.12181e-08
1.42201e-08
5.47718e-08
8.39786e-09
5.02769e-08
5.92269e-09
4.67903e-08
4.62009e-09
4.39708e-08
3.73437e-09
4.16391e-08
3.08523e-09
3.9671e-08
2.60366e-09
3.79793e-08
2.23772e-09
3.65045e-08
1.9509e-09
3.52039e-08
1.72023e-09
3.40461e-08
1.53113e-09
3.30073e-08
1.37373e-09
3.20686e-08
1.24106e-09
3.12154e-08
1.12801e-09
3.04357e-08
1.03073e-09
2.97197e-08
9.46328e-10
2.90595e-08
8.72532e-10
2.84483e-08
8.07561e-10
2.78806e-08
7.49988e-10
2.73517e-08
6.98655e-10
2.68576e-08
6.52608e-10
2.63947e-08
6.11064e-10
2.59603e-08
5.7335e-10
2.55519e-08
5.38909e-10
2.51673e-08
5.07245e-10
2.48048e-08
4.77927e-10
2.44627e-08
4.50574e-10
2.414e-08
4.24813e-10
2.38356e-08
4.00344e-10
2.35488e-08
3.76773e-10
2.3279e-08
3.53917e-10
2.30261e-08
3.31191e-10
2.27898e-08
3.0876e-10
2.25709e-08
2.85404e-10
2.23691e-08
2.6237e-10
2.21863e-08
2.36671e-10
2.20217e-08
2.12581e-10
2.18794e-08
1.82713e-10
2.17554e-08
1.58699e-10
2.16589e-08
1.24097e-10
2.1576e-08
1.05407e-10
2.15264e-08
7.18215e-11
2.14678e-08
7.65629e-11
2.14354e-08
8.05558e-11
2.1349e-08
1.2582e-10
2.10108e-08
6.7503e-10
-2.58398e-09
2.08161e-08
1.58807e-07
1.35053e-07
1.36495e-07
8.97148e-08
1.17495e-07
4.72103e-08
1.03319e-07
2.83966e-08
9.33121e-08
1.84047e-08
8.60083e-08
1.32265e-08
8.02983e-08
1.03301e-08
7.56406e-08
8.39203e-09
7.17534e-08
6.97243e-09
6.84502e-08
5.90692e-09
6.5598e-08
5.08984e-09
6.31027e-08
4.44627e-09
6.08958e-08
3.92707e-09
5.89266e-08
3.50033e-09
5.7156e-08
3.14436e-09
5.55534e-08
2.84371e-09
5.40943e-08
2.58709e-09
5.2759e-08
2.36599e-09
5.15314e-08
2.17393e-09
5.03981e-08
2.00586e-09
4.93479e-08
1.85778e-09
4.83714e-08
1.72649e-09
4.74606e-08
1.6094e-09
4.66089e-08
1.50437e-09
4.58103e-08
1.40963e-09
4.506e-08
1.32369e-09
4.43536e-08
1.2453e-09
4.36875e-08
1.17334e-09
4.30585e-08
1.10687e-09
4.24641e-08
1.04503e-09
4.19019e-08
9.87033e-10
4.137e-08
9.32156e-10
4.08672e-08
8.7962e-10
4.03922e-08
8.28911e-10
3.99445e-08
7.78899e-10
3.95236e-08
7.29698e-10
3.913e-08
6.7897e-10
3.87636e-08
6.28806e-10
3.84267e-08
5.73494e-10
3.81185e-08
5.20799e-10
3.78451e-08
4.56119e-10
3.7601e-08
4.0283e-10
3.74021e-08
3.22994e-10
3.72241e-08
2.83349e-10
3.7113e-08
1.82965e-10
3.69825e-08
2.07009e-10
3.69424e-08
1.20735e-10
3.6805e-08
2.63185e-10
3.65653e-08
9.1472e-10
-1.3869e-09
3.53682e-08
1.75664e-07
1.30905e-07
1.65595e-07
9.97836e-08
1.52725e-07
6.00801e-08
1.40128e-07
4.09942e-08
1.29439e-07
2.90936e-08
1.20794e-07
2.18713e-08
1.13677e-07
1.74467e-08
1.07689e-07
1.43806e-08
1.02577e-07
1.20839e-08
9.81611e-08
1.03232e-08
9.43008e-08
8.95013e-09
9.08914e-08
7.85562e-09
8.78536e-08
6.9649e-09
8.51262e-08
6.22773e-09
8.26613e-08
5.60927e-09
8.04206e-08
5.08443e-09
7.8373e-08
4.63462e-09
7.64933e-08
4.24574e-09
7.47603e-08
3.90694e-09
7.31564e-08
3.60969e-09
7.1667e-08
3.34725e-09
7.02793e-08
3.11415e-09
6.89828e-08
2.90595e-09
6.77682e-08
2.71898e-09
6.66276e-08
2.5502e-09
6.55543e-08
2.39703e-09
6.45422e-08
2.25731e-09
6.35865e-08
2.12912e-09
6.26825e-08
2.01086e-09
6.18265e-08
1.901e-09
6.10153e-08
1.79823e-09
6.02462e-08
1.7013e-09
5.95169e-08
1.60891e-09
5.88257e-08
1.52012e-09
5.81714e-08
1.43313e-09
5.75532e-08
1.34792e-09
5.69713e-08
1.26086e-09
5.64253e-08
1.17485e-09
5.59176e-08
1.08114e-09
5.54473e-08
9.91125e-10
5.50213e-08
8.82088e-10
5.46335e-08
7.90695e-10
5.43035e-08
6.52987e-10
5.40021e-08
5.84752e-10
5.3787e-08
3.98039e-10
5.35603e-08
4.33717e-10
5.34434e-08
2.37594e-10
5.32543e-08
4.52342e-10
5.29795e-08
1.18952e-09
-1.20908e-10
5.17135e-08
1.8456e-07
1.2313e-07
1.82321e-07
1.02023e-07
1.76103e-07
6.62976e-08
1.67762e-07
4.93358e-08
1.59139e-07
3.77161e-08
1.51229e-07
2.97819e-08
1.44152e-07
2.45237e-08
1.37844e-07
2.06882e-08
1.32232e-07
1.76963e-08
1.27231e-07
1.53241e-08
1.22756e-07
1.34247e-08
1.18732e-07
1.188e-08
1.15094e-07
1.0603e-08
1.11789e-07
9.53286e-09
1.08772e-07
8.62568e-09
1.06008e-07
7.84913e-09
1.03463e-07
7.17869e-09
1.01114e-07
6.59542e-09
9.89362e-08
6.0845e-09
9.69118e-08
5.63415e-09
9.50241e-08
5.2349e-09
9.32592e-08
4.87904e-09
9.1605e-08
4.56022e-09
9.00508e-08
4.27316e-09
8.85875e-08
4.01347e-09
8.72072e-08
3.77739e-09
8.59027e-08
3.56175e-09
8.46681e-08
3.36376e-09
8.34979e-08
3.18104e-09
8.23875e-08
3.01137e-09
8.13329e-08
2.85282e-09
8.03307e-08
2.70352e-09
7.9378e-08
2.56162e-09
7.84725e-08
2.42566e-09
7.76125e-08
2.29312e-09
7.67966e-08
2.16377e-09
7.60248e-08
2.03265e-09
7.52964e-08
1.90325e-09
7.46136e-08
1.764e-09
7.39753e-08
1.62936e-09
7.33885e-08
1.46894e-09
7.28472e-08
1.33196e-09
7.23712e-08
1.12899e-09
7.19332e-08
1.02271e-09
7.15859e-08
7.45361e-10
7.12508e-08
7.68872e-10
7.10069e-08
4.8141e-10
7.07526e-08
7.06703e-10
7.03648e-08
1.57731e-09
1.0895e-09
6.91544e-08
1.90388e-07
1.14959e-07
1.91851e-07
1.00559e-07
1.90244e-07
6.79053e-08
1.86154e-07
5.34256e-08
1.80716e-07
4.31542e-08
1.74961e-07
3.55371e-08
1.69261e-07
3.02236e-08
1.6377e-07
2.61787e-08
1.58585e-07
2.28819e-08
1.53746e-07
2.01631e-08
1.49256e-07
1.79139e-08
1.45101e-07
1.60354e-08
1.41256e-07
1.44484e-08
1.37695e-07
1.30939e-08
1.34392e-07
1.1928e-08
1.31324e-07
1.0917e-08
1.28469e-07
1.00344e-08
1.25805e-07
9.2591e-09
1.23315e-07
8.57433e-09
1.20983e-07
7.96633e-09
1.18794e-07
7.42388e-09
1.16736e-07
6.93764e-09
1.14796e-07
6.49985e-09
1.12965e-07
6.10395e-09
1.11234e-07
5.74442e-09
1.09595e-07
5.41649e-09
1.08041e-07
5.11612e-09
1.06565e-07
4.8397e-09
1.05162e-07
4.58415e-09
1.03826e-07
4.34657e-09
1.02555e-07
4.12445e-09
1.01343e-07
3.91531e-09
1.00188e-07
3.71673e-09
9.90868e-08
3.52675e-09
9.80378e-08
3.34212e-09
9.70393e-08
3.1623e-09
9.60907e-08
2.98119e-09
9.51915e-08
2.80248e-09
9.43432e-08
2.61233e-09
9.35453e-08
2.42721e-09
9.28036e-08
2.21071e-09
9.21139e-08
2.02163e-09
9.14924e-08
1.75053e-09
9.09201e-08
1.59493e-09
9.04323e-08
1.23321e-09
8.99867e-08
1.21444e-09
8.9602e-08
8.66086e-10
8.92586e-08
1.05017e-09
8.87664e-08
2.06949e-09
2.29736e-09
8.75585e-08
1.95541e-07
1.07233e-07
1.98247e-07
9.7853e-08
1.98968e-07
6.71842e-08
1.97788e-07
5.46058e-08
1.95156e-07
4.57858e-08
1.91814e-07
3.88791e-08
1.88081e-07
3.39572e-08
1.84126e-07
3.01337e-08
1.80098e-07
2.691e-08
1.76106e-07
2.41547e-08
1.72219e-07
2.18012e-08
1.68475e-07
1.97795e-08
1.64894e-07
1.80287e-08
1.61486e-07
1.65018e-08
1.58252e-07
1.51624e-08
1.55187e-07
1.39817e-08
1.52286e-07
1.29358e-08
1.49539e-07
1.20055e-08
1.46939e-07
1.11746e-08
1.44476e-07
1.04294e-08
1.42141e-07
9.75871e-09
1.39926e-07
9.15278e-09
1.37822e-07
8.60339e-09
1.35823e-07
8.10343e-09
1.33921e-07
7.64685e-09
1.32109e-07
7.2283e-09
1.30382e-07
6.84323e-09
1.28734e-07
6.48747e-09
1.27161e-07
6.15747e-09
1.25657e-07
5.84983e-09
1.2422e-07
5.56157e-09
1.22846e-07
5.28974e-09
1.21531e-07
5.03143e-09
1.20274e-07
4.78424e-09
1.19071e-07
4.54429e-09
1.17923e-07
4.31065e-09
1.16828e-07
4.07636e-09
1.15785e-07
3.84485e-09
1.14797e-07
3.60088e-09
1.13863e-07
3.36156e-09
1.12987e-07
3.08679e-09
1.12168e-07
2.84061e-09
1.11416e-07
2.50198e-09
1.10724e-07
2.28655e-09
1.10107e-07
1.85036e-09
1.09558e-07
1.76423e-09
1.09045e-07
1.37817e-09
1.086e-07
1.49514e-09
1.0803e-07
2.63949e-09
3.48391e-09
1.06844e-07
2.00848e-07
9.99697e-08
2.03775e-07
9.49255e-08
2.05326e-07
6.56333e-08
2.05642e-07
5.42901e-08
2.04816e-07
4.66118e-08
2.03335e-07
4.03598e-08
2.01387e-07
3.59052e-08
1.99055e-07
3.24657e-08
1.96444e-07
2.95215e-08
1.93654e-07
2.6944e-08
1.90768e-07
2.46881e-08
1.87843e-07
2.27041e-08
1.84925e-07
2.09465e-08
1.82046e-07
1.93806e-08
1.79229e-07
1.798e-08
1.76488e-07
1.67229e-08
1.73832e-07
1.55914e-08
1.71268e-07
1.457e-08
1.68796e-07
1.36456e-08
1.66419e-07
1.28068e-08
1.64134e-07
1.20436e-08
1.6194e-07
1.13473e-08
1.59833e-07
1.07104e-08
1.5781e-07
1.01261e-08
1.55868e-07
9.58854e-09
1.54004e-07
9.09251e-09
1.52214e-07
8.63337e-09
1.50495e-07
8.20686e-09
1.48843e-07
7.80928e-09
1.47256e-07
7.43703e-09
1.4573e-07
7.08689e-09
1.44264e-07
6.75566e-09
1.42856e-07
6.44011e-09
1.41503e-07
6.13749e-09
1.40203e-07
5.84352e-09
1.38957e-07
5.55682e-09
1.37764e-07
5.26993e-09
1.36623e-07
4.98565e-09
1.35535e-07
4.68816e-09
1.34503e-07
4.39393e-09
1.33528e-07
4.06161e-09
1.32613e-07
3.75615e-09
1.31762e-07
3.3531e-09
1.30977e-07
3.07111e-09
1.30257e-07
2.56996e-09
1.29621e-07
2.40108e-09
1.29008e-07
1.99095e-09
1.28471e-07
2.03207e-09
1.27851e-07
3.25921e-09
4.59992e-09
1.26735e-07
2.06447e-07
9.30549e-08
2.09339e-07
9.20333e-08
2.11036e-07
6.39362e-08
2.1193e-07
5.3396e-08
2.12e-07
4.65422e-08
2.11615e-07
4.07451e-08
2.10886e-07
3.66338e-08
2.09816e-07
3.35357e-08
2.08441e-07
3.08966e-08
2.06818e-07
2.85668e-08
2.05003e-07
2.65037e-08
2.03043e-07
2.4664e-08
2.00981e-07
2.30084e-08
1.98852e-07
2.15089e-08
1.96687e-07
2.01452e-08
1.94509e-07
1.89014e-08
1.92336e-07
1.77645e-08
1.90182e-07
1.67234e-08
1.8806e-07
1.57683e-08
1.85976e-07
1.48906e-08
1.83937e-07
1.40827e-08
1.81946e-07
1.33377e-08
1.80007e-07
1.26494e-08
1.78121e-07
1.20121e-08
1.76289e-07
1.14207e-08
1.74511e-07
1.08707e-08
1.72786e-07
1.03578e-08
1.71115e-07
9.87812e-09
1.69496e-07
9.42815e-09
1.67929e-07
9.00441e-09
1.66412e-07
8.60374e-09
1.64945e-07
8.22291e-09
1.63526e-07
7.85859e-09
1.62156e-07
7.50789e-09
1.60833e-07
7.16629e-09
1.59558e-07
6.83206e-09
1.5833e-07
6.49752e-09
1.57151e-07
6.16465e-09
1.56022e-07
5.81773e-09
1.54944e-07
5.4717e-09
1.5392e-07
5.08578e-09
1.52953e-07
4.72274e-09
1.52046e-07
4.26061e-09
1.51206e-07
3.91051e-09
1.50423e-07
3.35356e-09
1.49728e-07
3.09531e-09
1.4905e-07
2.66904e-09
1.48447e-07
2.63518e-09
1.47814e-07
3.89193e-09
5.59883e-09
1.46815e-07
2.12289e-07
8.64286e-08
2.15152e-07
8.91701e-08
2.1679e-07
6.22975e-08
2.17843e-07
5.2344e-08
2.18259e-07
4.61262e-08
2.18376e-07
4.06276e-08
2.18302e-07
3.67079e-08
2.18004e-07
3.38332e-08
2.17475e-07
3.14258e-08
2.16732e-07
2.93101e-08
2.15798e-07
2.74378e-08
2.14697e-07
2.57645e-08
2.13456e-07
2.42501e-08
2.12098e-07
2.28667e-08
2.10647e-07
2.15957e-08
2.09125e-07
2.04235e-08
2.0755e-07
1.93394e-08
2.05939e-07
1.83349e-08
2.04304e-07
1.74027e-08
2.02659e-07
1.65363e-08
2.01011e-07
1.573e-08
1.9937e-07
1.49788e-08
1.97742e-07
1.42777e-08
1.96132e-07
1.36225e-08
1.94543e-07
1.30091e-08
1.92981e-07
1.24336e-08
1.91446e-07
1.18927e-08
1.89941e-07
1.1383e-08
1.88467e-07
1.09014e-08
1.87027e-07
1.04448e-08
1.8562e-07
1.00103e-08
1.84248e-07
9.5949e-09
1.82912e-07
9.19527e-09
1.81611e-07
8.80858e-09
1.80347e-07
8.43029e-09
1.79121e-07
8.05838e-09
1.77933e-07
7.68524e-09
1.76786e-07
7.31197e-09
1.7568e-07
6.92337e-09
1.74619e-07
6.5325e-09
1.73605e-07
6.10013e-09
1.72642e-07
5.68524e-09
1.71731e-07
5.1719e-09
1.70885e-07
4.75702e-09
1.70084e-07
4.15423e-09
1.69372e-07
3.80733e-09
1.68672e-07
3.36908e-09
1.6804e-07
3.26743e-09
1.67436e-07
4.49587e-09
6.43417e-09
1.666e-07
2.1833e-07
8.00795e-08
2.21206e-07
8.62944e-08
2.22763e-07
6.07398e-08
2.23842e-07
5.1265e-08
2.24368e-07
4.56009e-08
2.24663e-07
4.03323e-08
2.24865e-07
3.65055e-08
2.24947e-07
3.37517e-08
2.24885e-07
3.14879e-08
2.24678e-07
2.95165e-08
2.24331e-07
2.77846e-08
2.2385e-07
2.62461e-08
2.23242e-07
2.48582e-08
2.22518e-07
2.35905e-08
2.21691e-07
2.24228e-08
2.20773e-07
2.13411e-08
2.19778e-07
2.03348e-08
2.18717e-07
1.93959e-08
2.17601e-07
1.85179e-08
2.16443e-07
1.76952e-08
2.15249e-07
1.69232e-08
2.1403e-07
1.61977e-08
2.12793e-07
1.55151e-08
2.11544e-07
1.48717e-08
2.10288e-07
1.42645e-08
2.09032e-07
1.36904e-08
2.07778e-07
1.31465e-08
2.06531e-07
1.263e-08
2.05294e-07
1.21385e-08
2.0407e-07
1.16691e-08
2.02861e-07
1.12194e-08
2.01669e-07
1.07865e-08
2.00497e-07
1.03673e-08
1.99346e-07
9.9593e-09
1.98219e-07
9.55787e-09
1.97116e-07
9.16086e-09
1.9604e-07
8.76086e-09
1.94994e-07
8.35819e-09
1.93979e-07
7.93831e-09
1.92999e-07
7.51252e-09
1.92056e-07
7.04343e-09
1.91156e-07
6.58557e-09
1.90296e-07
6.03121e-09
1.89495e-07
5.55875e-09
1.88728e-07
4.92105e-09
1.88043e-07
4.49252e-09
1.87368e-07
4.04353e-09
1.86751e-07
3.88458e-09
1.86218e-07
5.0293e-09
7.06249e-09
1.85589e-07
2.24559e-07
7.40141e-08
2.2747e-07
8.33832e-08
2.2896e-07
5.92496e-08
2.30044e-07
5.01808e-08
2.30611e-07
4.50342e-08
2.30955e-07
3.99882e-08
2.31247e-07
3.62135e-08
2.31477e-07
3.3522e-08
2.31624e-07
3.13407e-08
2.31686e-07
2.94544e-08
2.31662e-07
2.78087e-08
2.31549e-07
2.63588e-08
2.31347e-07
2.50605e-08
2.31056e-07
2.3881e-08
2.30681e-07
2.27983e-08
2.30225e-07
2.17969e-08
2.29695e-07
2.08653e-08
2.29096e-07
1.99947e-08
2.28435e-07
1.91783e-08
2.2772e-07
1.84105e-08
2.26956e-07
1.76868e-08
2.26151e-07
1.70032e-08
2.2531e-07
1.63564e-08
2.24438e-07
1.57432e-08
2.23542e-07
1.51608e-08
2.22626e-07
1.46067e-08
2.21694e-07
1.40784e-08
2.2075e-07
1.35734e-08
2.19799e-07
1.30895e-08
2.18844e-07
1.26244e-08
2.17888e-07
1.21757e-08
2.16933e-07
1.1741e-08
2.15983e-07
1.13173e-08
2.1504e-07
1.0902e-08
2.14107e-07
1.04909e-08
2.13187e-07
1.00816e-08
2.12281e-07
9.66696e-09
2.11392e-07
9.24669e-09
2.10524e-07
8.80684e-09
2.09679e-07
8.35723e-09
2.0886e-07
7.86236e-09
2.08073e-07
7.37203e-09
2.07317e-07
6.78811e-09
2.06607e-07
6.26781e-09
2.05922e-07
5.60625e-09
2.05307e-07
5.10765e-09
2.04704e-07
4.64706e-09
2.04147e-07
4.44135e-09
2.03721e-07
5.45499e-09
7.45102e-09
2.03333e-07
2.30979e-07
6.82408e-08
2.33934e-07
8.04282e-08
2.35365e-07
5.78186e-08
2.36456e-07
4.90905e-08
2.37056e-07
4.44338e-08
2.37415e-07
3.96287e-08
2.37729e-07
3.58999e-08
2.38005e-07
3.32462e-08
2.38228e-07
3.11177e-08
2.384e-07
2.92826e-08
2.38522e-07
2.76865e-08
2.38592e-07
2.62884e-08
2.38608e-07
2.50449e-08
2.38567e-07
2.39223e-08
2.38467e-07
2.28975e-08
2.3831e-07
2.1954e-08
2.38096e-07
2.10794e-08
2.37827e-07
2.02641e-08
2.37504e-07
1.95006e-08
2.37132e-07
1.87828e-08
2.36713e-07
1.81057e-08
2.36251e-07
1.74653e-08
2.3575e-07
1.68579e-08
2.35212e-07
1.62805e-08
2.34643e-07
1.57303e-08
2.34045e-07
1.52046e-08
2.33422e-07
1.47013e-08
2.32778e-07
1.42179e-08
2.32115e-07
1.37524e-08
2.31437e-07
1.33025e-08
2.30747e-07
1.28659e-08
2.30047e-07
1.24404e-08
2.29341e-07
1.20231e-08
2.28632e-07
1.16116e-08
2.27921e-07
1.12015e-08
2.27212e-07
1.07905e-08
2.26508e-07
1.03716e-08
2.2581e-07
9.94407e-09
2.25123e-07
9.49443e-09
2.24449e-07
9.03129e-09
2.2379e-07
8.52106e-09
2.23154e-07
8.00848e-09
2.22536e-07
7.40613e-09
2.21955e-07
6.84858e-09
2.21388e-07
6.17307e-09
2.20877e-07
5.61813e-09
2.20381e-07
5.14355e-09
2.19923e-07
4.89889e-09
2.19633e-07
5.74491e-09
7.58443e-09
2.195e-07
2.376e-07
6.27652e-08
2.40602e-07
7.74268e-08
2.41976e-07
5.64446e-08
2.43071e-07
4.79951e-08
2.43709e-07
4.37963e-08
2.44082e-07
3.92557e-08
2.44401e-07
3.55809e-08
2.44689e-07
3.29579e-08
2.44935e-07
3.08718e-08
2.45143e-07
2.90741e-08
2.4532e-07
2.75096e-08
2.45466e-07
2.61423e-08
2.4558e-07
2.49311e-08
2.4566e-07
2.38425e-08
2.45704e-07
2.28532e-08
2.45712e-07
2.19465e-08
2.45681e-07
2.11096e-08
2.45613e-07
2.03324e-08
2.45507e-07
1.96069e-08
2.45363e-07
1.89266e-08
2.45182e-07
1.82862e-08
2.44967e-07
1.76812e-08
2.44717e-07
1.71077e-08
2.44435e-07
1.65625e-08
2.44122e-07
1.60425e-08
2.43782e-07
1.55451e-08
2.43415e-07
1.50679e-08
2.43025e-07
1.46084e-08
2.42613e-07
1.41645e-08
2.42181e-07
1.37339e-08
2.41733e-07
1.33143e-08
2.4127e-07
1.29034e-08
2.40795e-07
1.24984e-08
2.40309e-07
1.20967e-08
2.39817e-07
1.16942e-08
2.39319e-07
1.12883e-08
2.38818e-07
1.08721e-08
2.38318e-07
1.04447e-08
2.37819e-07
9.9928e-09
2.37327e-07
9.52397e-09
2.36841e-07
9.00667e-09
2.36369e-07
8.48028e-09
2.35907e-07
7.86864e-09
2.35472e-07
7.28363e-09
2.35043e-07
6.60176e-09
2.34657e-07
6.00392e-09
2.34289e-07
5.51166e-09
2.33957e-07
5.23106e-09
2.33818e-07
5.88418e-09
7.4679e-09
2.33934e-07
2.4443e-07
5.7591e-08
2.47471e-07
7.43858e-08
2.48796e-07
5.51197e-08
2.49892e-07
4.68995e-08
2.50568e-07
4.312e-08
2.50959e-07
3.88656e-08
2.51282e-07
3.52574e-08
2.51576e-07
3.26641e-08
2.51829e-07
3.06182e-08
2.52049e-07
2.88546e-08
2.52243e-07
2.73155e-08
2.52415e-07
2.59702e-08
2.52566e-07
2.47803e-08
2.52695e-07
2.37132e-08
2.52802e-07
2.27459e-08
2.52887e-07
2.18617e-08
2.52949e-07
2.10481e-08
2.52986e-07
2.0295e-08
2.52999e-07
1.95941e-08
2.52987e-07
1.89388e-08
2.52949e-07
1.83236e-08
2.52887e-07
1.77438e-08
2.52799e-07
1.71952e-08
2.52687e-07
1.66743e-08
2.52552e-07
1.61781e-08
2.52393e-07
1.57037e-08
2.52213e-07
1.52484e-08
2.52011e-07
1.48097e-08
2.51791e-07
1.43853e-08
2.51552e-07
1.39729e-08
2.51296e-07
1.35699e-08
2.51025e-07
1.31741e-08
2.50741e-07
1.27824e-08
2.50445e-07
1.23924e-08
2.5014e-07
1.19996e-08
2.49827e-07
1.16016e-08
2.49507e-07
1.11915e-08
2.49184e-07
1.07678e-08
2.48859e-07
1.03178e-08
2.48535e-07
9.84798e-09
2.48213e-07
9.32895e-09
2.47899e-07
8.7945e-09
2.47587e-07
8.17983e-09
2.47296e-07
7.57508e-09
2.47006e-07
6.89139e-09
2.46748e-07
6.26184e-09
2.46513e-07
5.7472e-09
2.46316e-07
5.42792e-09
2.46328e-07
5.87256e-09
7.12612e-09
2.46669e-07
2.51478e-07
5.27199e-08
2.54549e-07
7.13146e-08
2.55835e-07
5.38333e-08
2.56926e-07
4.5809e-08
2.5764e-07
4.24059e-08
2.5805e-07
3.84553e-08
2.58379e-07
3.4928e-08
2.58679e-07
3.23651e-08
2.58937e-07
3.03594e-08
2.59161e-07
2.86306e-08
2.59361e-07
2.71161e-08
2.59541e-07
2.57902e-08
2.59703e-07
2.46177e-08
2.5985e-07
2.35668e-08
2.59981e-07
2.2615e-08
2.60096e-07
2.17461e-08
2.60197e-07
2.09477e-08
2.60282e-07
2.021e-08
2.60351e-07
1.95248e-08
2.60404e-07
1.88855e-08
2.60441e-07
1.82866e-08
2.60462e-07
1.77232e-08
2.60466e-07
1.71912e-08
2.60453e-07
1.6687e-08
2.60424e-07
1.62073e-08
2.60379e-07
1.57492e-08
2.60317e-07
1.531e-08
2.6024e-07
1.48869e-08
2.60148e-07
1.44775e-08
2.60041e-07
1.40794e-08
2.59921e-07
1.36898e-08
2.59789e-07
1.33065e-08
2.59645e-07
1.29261e-08
2.59491e-07
1.25463e-08
2.59329e-07
1.21624e-08
2.59158e-07
1.17719e-08
2.58982e-07
1.13679e-08
2.58801e-07
1.09487e-08
2.58617e-07
1.05019e-08
2.58432e-07
1.00327e-08
2.58247e-07
9.51441e-09
2.58066e-07
8.97488e-09
2.57886e-07
8.36037e-09
2.5772e-07
7.74113e-09
2.57554e-07
7.05703e-09
2.57412e-07
6.40355e-09
2.57299e-07
5.86115e-09
2.57231e-07
5.4954e-09
2.57381e-07
5.72302e-09
6.59748e-09
2.57909e-07
2.58751e-07
4.81522e-08
2.61842e-07
6.82231e-08
2.63101e-07
5.25749e-08
2.64181e-07
4.47289e-08
2.6493e-07
4.16567e-08
2.65362e-07
3.80229e-08
2.65699e-07
3.45917e-08
2.66003e-07
3.20603e-08
2.66268e-07
3.0095e-08
2.66496e-07
2.84027e-08
2.66698e-07
2.69138e-08
2.66881e-07
2.56072e-08
2.67048e-07
2.44512e-08
2.67199e-07
2.34151e-08
2.67338e-07
2.24766e-08
2.67464e-07
2.162e-08
2.67578e-07
2.08333e-08
2.67681e-07
2.01067e-08
2.67774e-07
1.94326e-08
2.67855e-07
1.88042e-08
2.67925e-07
1.82161e-08
2.67985e-07
1.76635e-08
2.68034e-07
1.71425e-08
2.68072e-07
1.66492e-08
2.68099e-07
1.61805e-08
2.68114e-07
1.57333e-08
2.6812e-07
1.53048e-08
2.68114e-07
1.48923e-08
2.68099e-07
1.44933e-08
2.68073e-07
1.4105e-08
2.68038e-07
1.37249e-08
2.67994e-07
1.33504e-08
2.67942e-07
1.29782e-08
2.67882e-07
1.26057e-08
2.67816e-07
1.22283e-08
2.67745e-07
1.18433e-08
2.67669e-07
1.14438e-08
2.6759e-07
1.10279e-08
2.67508e-07
1.05835e-08
2.67426e-07
1.01148e-08
2.67343e-07
9.59737e-09
2.67264e-07
9.05365e-09
2.67185e-07
8.43999e-09
2.67117e-07
7.80921e-09
2.6705e-07
7.12366e-09
2.67003e-07
6.45042e-09
2.6699e-07
5.87444e-09
2.67034e-07
5.45124e-09
2.67299e-07
5.4581e-09
5.92618e-09
2.6797e-07
2.66258e-07
4.38861e-08
2.69359e-07
6.5122e-08
2.706e-07
5.1334e-08
2.71666e-07
4.36635e-08
2.72447e-07
4.08755e-08
2.72903e-07
3.75665e-08
2.73247e-07
3.42477e-08
2.73558e-07
3.17499e-08
2.73828e-07
2.98246e-08
2.7406e-07
2.81704e-08
2.74266e-07
2.67086e-08
2.74451e-07
2.5422e-08
2.74619e-07
2.42828e-08
2.74773e-07
2.32614e-08
2.74914e-07
2.23359e-08
2.75043e-07
2.14908e-08
2.75162e-07
2.07145e-08
2.75271e-07
1.99976e-08
2.75371e-07
1.93325e-08
2.75462e-07
1.87127e-08
2.75546e-07
1.81328e-08
2.75621e-07
1.75882e-08
2.75688e-07
1.70749e-08
2.75748e-07
1.65892e-08
2.75801e-07
1.6128e-08
2.75846e-07
1.56881e-08
2.75884e-07
1.52668e-08
2.75915e-07
1.48614e-08
2.75939e-07
1.44691e-08
2.75957e-07
1.40874e-08
2.75968e-07
1.37134e-08
2.75974e-07
1.33445e-08
2.75975e-07
1.29774e-08
2.75971e-07
1.26093e-08
2.75964e-07
1.22358e-08
2.75953e-07
1.18538e-08
2.75941e-07
1.14566e-08
2.75926e-07
1.10421e-08
2.75911e-07
1.05986e-08
2.75897e-07
1.0129e-08
2.75883e-07
9.61162e-09
2.75873e-07
9.06337e-09
2.75863e-07
8.4497e-09
2.75864e-07
7.80864e-09
2.75868e-07
7.11913e-09
2.75892e-07
6.42719e-09
2.75954e-07
5.81184e-09
2.76087e-07
5.31901e-09
2.7644e-07
5.10446e-09
5.1574e-09
2.77209e-07
2.74009e-07
3.99182e-08
2.77109e-07
6.20223e-08
2.78342e-07
5.01004e-08
2.7939e-07
4.26163e-08
2.80199e-07
4.00667e-08
2.8068e-07
3.70847e-08
2.81033e-07
3.38949e-08
2.81349e-07
3.14337e-08
2.81626e-07
2.95481e-08
2.81863e-07
2.79333e-08
2.82071e-07
2.65002e-08
2.82259e-07
2.52346e-08
2.82429e-07
2.41127e-08
2.82584e-07
2.31063e-08
2.82726e-07
2.2194e-08
2.82856e-07
2.13604e-08
2.82976e-07
2.05945e-08
2.83087e-07
1.98869e-08
2.83189e-07
1.92302e-08
2.83284e-07
1.86182e-08
2.83371e-07
1.80456e-08
2.83451e-07
1.75078e-08
2.83526e-07
1.70008e-08
2.83594e-07
1.65212e-08
2.83656e-07
1.60656e-08
2.83713e-07
1.56312e-08
2.83764e-07
1.52152e-08
2.83811e-07
1.48146e-08
2.83853e-07
1.4427e-08
2.83891e-07
1.40495e-08
2.83925e-07
1.36793e-08
2.83956e-07
1.33139e-08
2.83984e-07
1.29496e-08
2.84009e-07
1.25839e-08
2.84033e-07
1.22121e-08
2.84056e-07
1.18311e-08
2.84078e-07
1.14345e-08
2.841e-07
1.10195e-08
2.84124e-07
1.05754e-08
2.84149e-07
1.01035e-08
2.84176e-07
9.58484e-09
2.84208e-07
9.03131e-09
2.84241e-07
8.4161e-09
2.84285e-07
7.76502e-09
2.84336e-07
7.06848e-09
2.84406e-07
6.35682e-09
2.84521e-07
5.69667e-09
2.84718e-07
5.12238e-09
2.85133e-07
4.68937e-09
4.33115e-09
2.85959e-07
2.82013e-07
3.62431e-08
2.851e-07
5.89353e-08
2.86335e-07
4.88645e-08
2.87362e-07
4.159e-08
2.88194e-07
3.92347e-08
2.88702e-07
3.65761e-08
2.89065e-07
3.35321e-08
2.89387e-07
3.1112e-08
2.8967e-07
2.92652e-08
2.89912e-07
2.76911e-08
2.90124e-07
2.62883e-08
2.90314e-07
2.50446e-08
2.90486e-07
2.39406e-08
2.90642e-07
2.29498e-08
2.90785e-07
2.2051e-08
2.90916e-07
2.12294e-08
2.91037e-07
2.04739e-08
2.91148e-07
1.97757e-08
2.91251e-07
1.91275e-08
2.91346e-07
1.85232e-08
2.91434e-07
1.79576e-08
2.91515e-07
1.74262e-08
2.91591e-07
1.69251e-08
2.91661e-07
1.64509e-08
2.91727e-07
1.60004e-08
2.91787e-07
1.55707e-08
2.91843e-07
1.51589e-08
2.91896e-07
1.47623e-08
2.91945e-07
1.43781e-08
2.9199e-07
1.40037e-08
2.92033e-07
1.36362e-08
2.92074e-07
1.32728e-08
2.92114e-07
1.29102e-08
2.92152e-07
1.25454e-08
2.9219e-07
1.2174e-08
2.92229e-07
1.17928e-08
2.92268e-07
1.13954e-08
2.92309e-07
1.09787e-08
2.92351e-07
1.05329e-08
2.92397e-07
1.00576e-08
2.92445e-07
9.53656e-09
2.925e-07
8.9771e-09
2.92557e-07
8.35877e-09
2.92624e-07
7.69752e-09
2.92702e-07
6.99098e-09
2.92801e-07
6.25745e-09
2.9295e-07
5.54784e-09
2.9319e-07
4.8821e-09
2.93644e-07
4.23591e-09
3.48141e-09
2.94494e-07
2.90278e-07
3.28537e-08
2.93341e-07
5.5873e-08
2.94588e-07
4.76174e-08
2.95591e-07
4.05865e-08
2.96441e-07
3.83849e-08
2.96977e-07
3.60398e-08
2.97351e-07
3.3158e-08
2.97679e-07
3.07848e-08
2.97968e-07
2.89761e-08
2.98215e-07
2.74434e-08
2.98431e-07
2.60726e-08
2.98624e-07
2.48519e-08
2.98798e-07
2.37664e-08
2.98956e-07
2.27917e-08
2.991e-07
2.19069e-08
2.99232e-07
2.10975e-08
2.99353e-07
2.03528e-08
2.99465e-07
1.96643e-08
2.99567e-07
1.90247e-08
2.99662e-07
1.84282e-08
2.9975e-07
1.78697e-08
2.99832e-07
1.73447e-08
2.99907e-07
1.68495e-08
2.99978e-07
1.63806e-08
3.00043e-07
1.5935e-08
3.00104e-07
1.55096e-08
3.00161e-07
1.51018e-08
3.00215e-07
1.47087e-08
3.00265e-07
1.43277e-08
3.00313e-07
1.39559e-08
3.00359e-07
1.35904e-08
3.00403e-07
1.32285e-08
3.00447e-07
1.28669e-08
3.0049e-07
1.25023e-08
3.00533e-07
1.21307e-08
3.00577e-07
1.17485e-08
3.00623e-07
1.13496e-08
3.00671e-07
1.09306e-08
3.00722e-07
1.04822e-08
3.00777e-07
1.0003e-08
3.00834e-07
9.47884e-09
3.00898e-07
8.91311e-09
3.00967e-07
8.29037e-09
3.01045e-07
7.6187e-09
3.01137e-07
6.89962e-09
3.01253e-07
6.14171e-09
3.01421e-07
5.37901e-09
3.01689e-07
4.61432e-09
3.02162e-07
3.76337e-09
2.63571e-09
3.03007e-07
2.98815e-07
2.97412e-08
3.01841e-07
5.28473e-08
3.03107e-07
4.63513e-08
3.04087e-07
3.96066e-08
3.04949e-07
3.75227e-08
3.05514e-07
3.54754e-08
3.059e-07
3.27711e-08
3.06233e-07
3.04519e-08
3.06529e-07
2.86807e-08
3.06782e-07
2.71899e-08
3.07002e-07
2.58528e-08
3.07198e-07
2.46562e-08
3.07374e-07
2.35899e-08
3.07534e-07
2.26318e-08
3.0768e-07
2.17615e-08
3.07812e-07
2.09647e-08
3.07934e-07
2.02311e-08
3.08046e-07
1.95525e-08
3.08149e-07
1.89218e-08
3.08244e-07
1.83333e-08
3.08331e-07
1.7782e-08
3.08412e-07
1.72636e-08
3.08488e-07
1.67743e-08
3.08557e-07
1.63109e-08
3.08622e-07
1.58701e-08
3.08683e-07
1.54492e-08
3.08739e-07
1.50453e-08
3.08792e-07
1.46556e-08
3.08842e-07
1.42775e-08
3.0889e-07
1.39082e-08
3.08936e-07
1.35446e-08
3.0898e-07
1.3184e-08
3.09024e-07
1.2823e-08
3.09068e-07
1.24586e-08
3.09112e-07
1.20863e-08
3.09158e-07
1.17028e-08
3.09205e-07
1.13022e-08
3.09255e-07
1.08806e-08
3.09308e-07
1.04295e-08
3.09365e-07
9.94611e-09
3.09426e-07
9.41833e-09
3.09492e-07
8.84628e-09
3.09565e-07
8.21819e-09
3.09647e-07
7.53589e-09
3.09745e-07
6.80231e-09
3.09869e-07
6.0176e-09
3.10048e-07
5.19947e-09
3.10332e-07
4.33123e-09
3.10809e-07
3.28584e-09
1.81699e-09
3.11628e-07
3.07633e-07
2.6895e-08
3.1061e-07
4.98703e-08
3.11902e-07
4.50593e-08
3.12859e-07
3.86503e-08
3.13728e-07
3.66534e-08
3.1432e-07
3.48831e-08
3.14722e-07
3.23697e-08
3.1506e-07
3.0113e-08
3.15362e-07
2.8379e-08
3.15622e-07
2.69303e-08
3.15846e-07
2.56285e-08
3.16045e-07
2.44574e-08
3.16224e-07
2.3411e-08
3.16386e-07
2.24699e-08
3.16533e-07
2.16145e-08
3.16667e-07
2.08308e-08
3.16789e-07
2.01087e-08
3.16901e-07
1.94403e-08
3.17004e-07
1.88187e-08
3.17099e-07
1.82385e-08
3.17187e-07
1.76946e-08
3.17267e-07
1.71829e-08
3.17342e-07
1.66997e-08
3.17411e-07
1.62418e-08
3.17475e-07
1.5806e-08
3.17535e-07
1.53895e-08
3.1759e-07
1.49896e-08
3.17642e-07
1.46035e-08
3.17692e-07
1.42284e-08
3.17738e-07
1.38615e-08
3.17783e-07
1.34998e-08
3.17827e-07
1.31404e-08
3.1787e-07
1.27801e-08
3.17913e-07
1.24156e-08
3.17956e-07
1.20428e-08
3.18001e-07
1.16579e-08
3.18048e-07
1.12554e-08
3.18097e-07
1.08312e-08
3.18149e-07
1.03773e-08
3.18206e-07
9.88983e-09
3.18266e-07
9.35831e-09
3.18332e-07
8.78009e-09
3.18404e-07
8.14605e-09
3.18487e-07
7.453e-09
3.18586e-07
6.70351e-09
3.18713e-07
5.88999e-09
3.18897e-07
5.01529e-09
3.19187e-07
4.04213e-09
3.19657e-07
2.81542e-09
1.04048e-09
3.20433e-07
3.16743e-07
2.43031e-08
3.19659e-07
4.69539e-08
3.20982e-07
4.37362e-08
3.21916e-07
3.77165e-08
3.22787e-07
3.57823e-08
3.23406e-07
3.42641e-08
3.23824e-07
3.19522e-08
3.24169e-07
2.97679e-08
3.24477e-07
2.80712e-08
3.24743e-07
2.66644e-08
3.24972e-07
2.53994e-08
3.25174e-07
2.4255e-08
3.25356e-07
2.32293e-08
3.2552e-07
2.23059e-08
3.25669e-07
2.14659e-08
3.25804e-07
2.06957e-08
3.25927e-07
1.99854e-08
3.2604e-07
1.93275e-08
3.26143e-07
1.87154e-08
3.26238e-07
1.81435e-08
3.26325e-07
1.76073e-08
3.26406e-07
1.71025e-08
3.2648e-07
1.66256e-08
3.26548e-07
1.61733e-08
3.26612e-07
1.57426e-08
3.26671e-07
1.53308e-08
3.26725e-07
1.4935e-08
3.26776e-07
1.45524e-08
3.26824e-07
1.41804e-08
3.2687e-07
1.3816e-08
3.26913e-07
1.34562e-08
3.26956e-07
1.30982e-08
3.26997e-07
1.27385e-08
3.27039e-07
1.2374e-08
3.27081e-07
1.20006e-08
3.27124e-07
1.16145e-08
3.27169e-07
1.12103e-08
3.27217e-07
1.07836e-08
3.27267e-07
1.03269e-08
3.27322e-07
9.83555e-09
3.2738e-07
9.30029e-09
3.27444e-07
8.71621e-09
3.27514e-07
8.07588e-09
3.27595e-07
7.37205e-09
3.27692e-07
6.60575e-09
3.2782e-07
5.76203e-09
3.28005e-07
4.8309e-09
3.28292e-07
3.75444e-09
3.28746e-07
2.36213e-09
3.18855e-10
3.29467e-07
3.26154e-07
2.19522e-08
3.28997e-07
4.411e-08
3.30355e-07
4.23783e-08
3.31269e-07
3.68032e-08
3.32137e-07
3.4914e-08
3.32781e-07
3.362e-08
3.33216e-07
3.15173e-08
3.33568e-07
2.94158e-08
3.33882e-07
2.77574e-08
3.34154e-07
2.63919e-08
3.34389e-07
2.51651e-08
3.34595e-07
2.40489e-08
3.34779e-07
2.30447e-08
3.34946e-07
2.21395e-08
3.35096e-07
2.13155e-08
3.35233e-07
2.05591e-08
3.35357e-07
1.98611e-08
3.35471e-07
1.9214e-08
3.35575e-07
1.86115e-08
3.3567e-07
1.80484e-08
3.35757e-07
1.752e-08
3.35837e-07
1.70223e-08
3.35911e-07
1.65518e-08
3.35979e-07
1.61053e-08
3.36041e-07
1.56799e-08
3.36099e-07
1.52728e-08
3.36153e-07
1.48813e-08
3.36203e-07
1.45024e-08
3.3625e-07
1.41335e-08
3.36294e-07
1.37717e-08
3.36336e-07
1.3414e-08
3.36377e-07
1.30573e-08