/*--------------------------------*- C++ -*----------------------------------*\
  =========                 |
  \\      /  F ield         | OpenFOAM: The Open Source CFD Toolbox
   \\    /   O peration     | Website:  https://openfoam.org
    \\  /    A nd           | Version:  7
     \\/     M anipulation  |
\*---------------------------------------------------------------------------*/
FoamFile
{
    version     2.0;
    format      ascii;
    class       volVectorField;
    location    "0.29";
    object      U;
}
// * * * * * * * * * * * * * * * * * * * * * * * * * * * * * * * * * * * * * //

dimensions      [0 1 -1 0 0 0 0];

internalField   nonuniform List<vector> 
70000
(
(0.55339 0.016723 0)
(0.251261 0.00340101 0)
(0.166201 0.000322012 0)
(0.132453 5.42914e-05 0)
(0.117259 4.5735e-05 0)
(0.107331 5.39197e-05 0)
(0.0993749 4.62977e-05 0)
(0.0929248 3.69728e-05 0)
(0.0876681 3.06745e-05 0)
(0.0832849 2.63625e-05 0)
(0.0795475 2.30773e-05 0)
(0.0763082 2.04457e-05 0)
(0.0734661 1.82979e-05 0)
(0.0709475 1.65211e-05 0)
(0.0686964 1.50311e-05 0)
(0.0666697 1.37662e-05 0)
(0.0648332 1.26809e-05 0)
(0.0631596 1.17396e-05 0)
(0.061627 1.09171e-05 0)
(0.0602173 1.01917e-05 0)
(0.0589153 9.54784e-06 0)
(0.0577087 8.97173e-06 0)
(0.0565868 8.45242e-06 0)
(0.0555408 7.98035e-06 0)
(0.0545631 7.54801e-06 0)
(0.0536475 7.14746e-06 0)
(0.0527883 6.77331e-06 0)
(0.0519811 6.41952e-06 0)
(0.0512219 6.07973e-06 0)
(0.0505075 5.75211e-06 0)
(0.0498355 5.42587e-06 0)
(0.0492034 5.1063e-06 0)
(0.0486102 4.77466e-06 0)
(0.0480541 4.44871e-06 0)
(0.0475355 4.09377e-06 0)
(0.0470533 3.75731e-06 0)
(0.0466087 3.36384e-06 0)
(0.0462023 3.04062e-06 0)
(0.0458342 2.60485e-06 0)
(0.0455093 2.36853e-06 0)
(0.0452193 1.98375e-06 0)
(0.0449867 1.86066e-06 0)
(0.0447604 2.28443e-06 0)
(0.0446462 1.45642e-06 0)
(0.0443896 6.29195e-06 0)
(0.0444885 1.06875e-06 0)
(0.0438129 2.24532e-05 0)
(0.0444303 2.68857e-06 0)
(0.0420995 8.74354e-05 0)
(0.0409993 -0.00167006 0)
(0.884899 0.0431674 0)
(0.649715 0.0201941 0)
(0.49432 0.00659846 0)
(0.403663 0.00276796 0)
(0.354731 0.00155269 0)
(0.323414 0.00113267 0)
(0.299532 0.000911872 0)
(0.280303 0.000748351 0)
(0.264551 0.000625845 0)
(0.251384 0.000535391 0)
(0.240153 0.000466744 0)
(0.230418 0.000412725 0)
(0.221873 0.000369067 0)
(0.214298 0.000333116 0)
(0.207525 0.00030307 0)
(0.201424 0.000277642 0)
(0.195893 0.000255887 0)
(0.19085 0.000237094 0)
(0.18623 0.000220722 0)
(0.181978 0.00020635 0)
(0.178049 0.000193643 0)
(0.174405 0.000182333 0)
(0.171015 0.000172201 0)
(0.167851 0.000163064 0)
(0.164892 0.00015477 0)
(0.162117 0.000147185 0)
(0.159509 0.000140198 0)
(0.157056 0.000133705 0)
(0.154744 0.000127611 0)
(0.152564 0.000121835 0)
(0.150507 0.000116283 0)
(0.148566 0.000110888 0)
(0.146736 0.000105533 0)
(0.145012 0.000100189 0)
(0.143393 9.46571e-05 0)
(0.141877 8.90271e-05 0)
(0.140466 8.28677e-05 0)
(0.139162 7.66632e-05 0)
(0.137965 6.93332e-05 0)
(0.136891 6.25103e-05 0)
(0.135921 5.35374e-05 0)
(0.13512 4.66234e-05 0)
(0.134363 3.66694e-05 0)
(0.133939 3.11506e-05 0)
(0.133214 2.5961e-05 0)
(0.133506 2.67612e-05 0)
(0.131959 4.98706e-05 0)
(0.133937 6.14387e-05 0)
(0.129008 0.000403774 0)
(0.131023 -0.00217596 0)
(0.991237 0.0499015 0)
(0.890348 0.030719 0)
(0.762685 0.0145982 0)
(0.656674 0.00798064 0)
(0.585342 0.00488679 0)
(0.535919 0.00347422 0)
(0.49802 0.00274001 0)
(0.467353 0.00224896 0)
(0.441974 0.00188695 0)
(0.420588 0.00161632 0)
(0.402249 0.00140967 0)
(0.386292 0.00124703 0)
(0.372244 0.00111568 0)
(0.359757 0.00100751 0)
(0.348567 0.000917088 0)
(0.338468 0.000840542 0)
(0.329298 0.000775041 0)
(0.320926 0.000718454 0)
(0.313245 0.00066916 0)
(0.306167 0.000625896 0)
(0.29962 0.000587661 0)
(0.293542 0.000553652 0)
(0.287881 0.000523213 0)
(0.282593 0.0004958 0)
(0.277641 0.000470963 0)
(0.272994 0.000448309 0)
(0.268622 0.000427509 0)
(0.264502 0.000408262 0)
(0.260615 0.000390303 0)
(0.256942 0.000373384 0)
(0.25347 0.00035726 0)
(0.250185 0.000341711 0)
(0.247078 0.000326456 0)
(0.24414 0.000311332 0)
(0.241369 0.000295877 0)
(0.238759 0.000280175 0)
(0.23631 0.000263203 0)
(0.234026 0.000245917 0)
(0.231905 0.00022573 0)
(0.229972 0.000206232 0)
(0.228198 0.00018077 0)
(0.226678 0.000159972 0)
(0.225241 0.000127509 0)
(0.224303 0.000111527 0)
(0.222976 7.35656e-05 0)
(0.223153 8.54794e-05 0)
(0.220861 6.72893e-05 0)
(0.22351 0.000135753 0)
(0.217309 0.000600966 0)
(0.221972 -0.00147795 0)
(1.0156 0.0489205 0)
(1.00596 0.0358753 0)
(0.935951 0.0207924 0)
(0.852122 0.0135059 0)
(0.782177 0.00921102 0)
(0.726963 0.00678655 0)
(0.681848 0.00539129 0)
(0.644038 0.00445468 0)
(0.611946 0.00376335 0)
(0.584385 0.00323964 0)
(0.560422 0.00283511 0)
(0.539352 0.0025146 0)
(0.52065 0.0022546 0)
(0.503915 0.00203976 0)
(0.488835 0.00185962 0)
(0.475162 0.00170672 0)
(0.462698 0.00157559 0)
(0.451279 0.0014621 0)
(0.440772 0.00136309 0)
(0.431066 0.00127608 0)
(0.422066 0.0011991 0)
(0.413693 0.00113059 0)
(0.405881 0.00106925 0)
(0.398572 0.001014 0)
(0.391715 0.000963969 0)
(0.38527 0.000918379 0)
(0.379198 0.000876587 0)
(0.373467 0.000838006 0)
(0.368052 0.00080213 0)
(0.362925 0.00076847 0)
(0.35807 0.000736579 0)
(0.353466 0.000706011 0)
(0.349101 0.000676275 0)
(0.344961 0.000647011 0)
(0.341041 0.000617424 0)
(0.337332 0.000587553 0)
(0.333833 0.000555635 0)
(0.330545 0.000523135 0)
(0.327466 0.000485617 0)
(0.324621 0.000448908 0)
(0.321979 0.00040132 0)
(0.319647 0.000361651 0)
(0.317435 0.000297549 0)
(0.315816 0.000267767 0)
(0.313794 0.000178038 0)
(0.313498 0.000205629 0)
(0.3106 0.000112746 0)
(0.312957 0.000254158 0)
(0.306626 0.000763033 0)
(0.311066 -0.000512357 0)
(1.01434 0.046004 0)
(1.04753 0.037489 0)
(1.02458 0.0241526 0)
(0.974754 0.0175612 0)
(0.923438 0.0131264 0)
(0.876654 0.0102131 0)
(0.834467 0.00835319 0)
(0.796674 0.0070361 0)
(0.763043 0.00603017 0)
(0.733136 0.00524616 0)
(0.706443 0.0046271 0)
(0.682496 0.00412879 0)
(0.660899 0.00371984 0)
(0.641323 0.00337879 0)
(0.623495 0.00309066 0)
(0.607188 0.00284457 0)
(0.592209 0.00263239 0)
(0.578398 0.00244792 0)
(0.56562 0.00228635 0)
(0.553757 0.0021439 0)
(0.542711 0.00201753 0)
(0.532397 0.00190478 0)
(0.522741 0.00180364 0)
(0.513678 0.00171241 0)
(0.505155 0.0016297 0)
(0.497122 0.0015543 0)
(0.489536 0.00148517 0)
(0.482362 0.0014214 0)
(0.475567 0.0013622 0)
(0.469123 0.00130677 0)
(0.463005 0.00125445 0)
(0.457191 0.00120451 0)
(0.451666 0.00115621 0)
(0.446413 0.00110898 0)
(0.441422 0.00106162 0)
(0.436683 0.00101411 0)
(0.432193 0.000963885 0)
(0.42795 0.000912849 0)
(0.423953 0.000854689 0)
(0.420221 0.000797351 0)
(0.416731 0.00072394 0)
(0.413575 0.000661777 0)
(0.410587 0.000560888 0)
(0.408209 0.000513393 0)
(0.405506 0.000365302 0)
(0.404472 0.000398138 0)
(0.401172 0.000235444 0)
(0.402498 0.000409852 0)
(0.396755 0.00099953 0)
(0.399334 0.000382943 0)
(1.00933 0.0429154 0)
(1.05527 0.0372644 0)
(1.05868 0.025297 0)
(1.03637 0.0197611 0)
(1.00709 0.015816 0)
(0.976037 0.0129441 0)
(0.944494 0.0109729 0)
(0.913592 0.00949648 0)
(0.88418 0.00831184 0)
(0.85664 0.00734941 0)
(0.831052 0.00656409 0)
(0.807355 0.00591568 0)
(0.78543 0.0053728 0)
(0.765138 0.00491273 0)
(0.746335 0.00451886 0)
(0.728883 0.00417871 0)
(0.712654 0.00388267 0)
(0.697532 0.00362322 0)
(0.683411 0.00339442 0)
(0.670197 0.00319148 0)
(0.657808 0.00301051 0)
(0.646167 0.00284833 0)
(0.635208 0.00270226 0)
(0.624874 0.00257008 0)
(0.61511 0.0024499 0)
(0.605872 0.00234009 0)
(0.597117 0.00223925 0)
(0.588809 0.00214613 0)
(0.580916 0.00205963 0)
(0.573407 0.0019787 0)
(0.566259 0.00190239 0)
(0.559449 0.00182972 0)
(0.552959 0.0017597 0)
(0.54677 0.00169148 0)
(0.540873 0.00162351 0)
(0.535255 0.00155562 0)
(0.529914 0.00148453 0)
(0.524843 0.00141238 0)
(0.520045 0.00133124 0)
(0.515528 0.00125067 0)
(0.511286 0.00114924 0)
(0.50738 0.00106161 0)
(0.503696 0.0009222 0)
(0.500579 0.000851383 0)
(0.497289 0.000648197 0)
(0.495417 0.000666818 0)
(0.491875 0.000456957 0)
(0.491923 0.000618809 0)
(0.486863 0.00132009 0)
(0.487607 0.00125253 0)
(1.00625 0.040034 0)
(1.05206 0.036337 0)
(1.06609 0.0252262 0)
(1.0596 0.0205609 0)
(1.04687 0.0172429 0)
(1.03079 0.0146646 0)
(1.01188 0.0128342 0)
(0.991176 0.0114161 0)
(0.969726 0.0102269 0)
(0.948258 0.00921846 0)
(0.927215 0.0083648 0)
(0.906859 0.00763789 0)
(0.88734 0.00701325 0)
(0.868727 0.00647211 0)
(0.851043 0.0060001 0)
(0.834278 0.00558593 0)
(0.818402 0.00522049 0)
(0.803375 0.00489641 0)
(0.789151 0.00460764 0)
(0.775681 0.00434919 0)
(0.762918 0.00411689 0)
(0.750814 0.00390724 0)
(0.739326 0.00371725 0)
(0.728411 0.00354438 0)
(0.71803 0.00338645 0)
(0.708149 0.00324154 0)
(0.698734 0.003108 0)
(0.689756 0.0029843 0)
(0.681186 0.00286915 0)
(0.673 0.00276123 0)
(0.665177 0.00265939 0)
(0.657695 0.00256243 0)
(0.65054 0.00246908 0)
(0.643695 0.00237829 0)
(0.63715 0.00228815 0)
(0.630892 0.00219832 0)
(0.624921 0.00210491 0)
(0.619228 0.00201006 0)
(0.613822 0.00190469 0)
(0.608698 0.00179918 0)
(0.60387 0.00166887 0)
(0.599363 0.00155332 0)
(0.595128 0.00137621 0)
(0.591384 0.00127564 0)
(0.587637 0.0010253 0)
(0.585001 0.00101058 0)
(0.581292 0.000774651 0)
(0.580202 0.00089831 0)
(0.575648 0.00170213 0)
(0.575058 0.00212273 0)
(1.00495 0.0373561 0)
(1.04727 0.035255 0)
(1.06397 0.0246863 0)
(1.06425 0.0205872 0)
(1.06067 0.0177806 0)
(1.05474 0.0155074 0)
(1.04599 0.0138923 0)
(1.03479 0.0126402 0)
(1.02186 0.0115634 0)
(1.00779 0.0106199 0)
(0.993041 0.00979586 0)
(0.977966 0.00907361 0)
(0.962828 0.00843621 0)
(0.947821 0.00787051 0)
(0.933084 0.00736634 0)
(0.91871 0.00691537 0)
(0.90476 0.00651067 0)
(0.891272 0.00614634 0)
(0.878263 0.00581734 0)
(0.865739 0.00551937 0)
(0.853699 0.00524869 0)
(0.842131 0.00500206 0)
(0.831024 0.00477666 0)
(0.820361 0.00456999 0)
(0.810125 0.00437987 0)
(0.800298 0.00420434 0)
(0.790863 0.00404168 0)
(0.781802 0.00389028 0)
(0.773098 0.00374873 0)
(0.764735 0.00361559 0)
(0.756699 0.00348957 0)
(0.748976 0.00336933 0)
(0.741554 0.00325341 0)
(0.734421 0.00314058 0)
(0.727573 0.00302865 0)
(0.720998 0.00291705 0)
(0.714698 0.0028015 0)
(0.708665 0.00268388 0)
(0.702912 0.00255445 0)
(0.697428 0.00242357 0)
(0.692244 0.00226498 0)
(0.687352 0.00212011 0)
(0.682763 0.00190779 0)
(0.678584 0.00177247 0)
(0.674534 0.001483 0)
(0.67133 0.00142212 0)
(0.667511 0.00117312 0)
(0.665566 0.00124909 0)
(0.661401 0.00212916 0)
(0.659932 0.00296332 0)
(1.0044 0.0348081 0)
(1.04324 0.0341819 0)
(1.05994 0.0240453 0)
(1.06228 0.0202933 0)
(1.06249 0.0178443 0)
(1.0618 0.0157883 0)
(1.05924 0.0143468 0)
(1.05469 0.0132606 0)
(1.04847 0.0123271 0)
(1.04089 0.0114973 0)
(1.03221 0.0107595 0)
(1.0227 0.0101001 0)
(1.01257 0.00950597 0)
(1.00203 0.00896754 0)
(0.991239 0.00847786 0)
(0.980329 0.00803145 0)
(0.969404 0.0076237 0)
(0.958547 0.00725059 0)
(0.94782 0.00690862 0)
(0.937271 0.00659465 0)
(0.926933 0.00630586 0)
(0.91683 0.00603973 0)
(0.906981 0.00579397 0)
(0.897393 0.00556646 0)
(0.888075 0.00535535 0)
(0.879027 0.00515886 0)
(0.870251 0.00497543 0)
(0.861742 0.00480354 0)
(0.853498 0.00464183 0)
(0.845514 0.00448888 0)
(0.837787 0.00434339 0)
(0.83031 0.00420394 0)
(0.82308 0.00406901 0)
(0.816091 0.00393724 0)
(0.809343 0.00380626 0)
(0.802831 0.00367528 0)
(0.796561 0.00353981 0)
(0.790525 0.00340124 0)
(0.784743 0.00324973 0)
(0.7792 0.00309484 0)
(0.773937 0.00291013 0)
(0.768931 0.00273638 0)
(0.764225 0.00249241 0)
(0.759861 0.00232026 0)
(0.755692 0.00199869 0)
(0.752175 0.00188518 0)
(0.748351 0.00163062 0)
(0.745855 0.00165789 0)
(0.742061 0.00258069 0)
(0.740146 0.00373927 0)
(1.00402 0.0323681 0)
(1.03991 0.0331318 0)
(1.05616 0.0234223 0)
(1.05892 0.019905 0)
(1.06022 0.0177137 0)
(1.06157 0.0157922 0)
(1.06195 0.0144516 0)
(1.06107 0.0134805 0)
(1.05902 0.0126637 0)
(1.05589 0.0119406 0)
(1.05179 0.0112972 0)
(1.04682 0.0107195 0)
(1.04109 0.0101941 0)
(1.03475 0.00971203 0)
(1.02789 0.00926746 0)
(1.02064 0.00885618 0)
(1.01309 0.00847491 0)
(1.00533 0.00812095 0)
(0.997424 0.00779195 0)
(0.989438 0.00748584 0)
(0.981422 0.00720073 0)
(0.973419 0.00693484 0)
(0.965464 0.00668654 0)
(0.957585 0.00645428 0)
(0.949804 0.00623662 0)
(0.942139 0.00603216 0)
(0.934605 0.00583962 0)
(0.927212 0.0056577 0)
(0.91997 0.00548521 0)
(0.912885 0.00532088 0)
(0.905962 0.00516347 0)
(0.899206 0.00501164 0)
(0.89262 0.00486383 0)
(0.886207 0.00471867 0)
(0.879971 0.0045737 0)
(0.873914 0.00442792 0)
(0.868046 0.0042768 0)
(0.862363 0.00412117 0)
(0.856888 0.00395137 0)
(0.851608 0.0037758 0)
(0.846568 0.00356873 0)
(0.841742 0.00336876 0)
(0.837184 0.00309772 0)
(0.832908 0.00288973 0)
(0.82884 0.00254272 0)
(0.825274 0.00237532 0)
(0.821601 0.00211899 0)
(0.818858 0.00210238 0)
(0.815474 0.00302845 0)
(0.81352 0.00441674 0)
(1.00364 0.0300277 0)
(1.03692 0.0320843 0)
(1.05282 0.0228326 0)
(1.05568 0.0194997 0)
(1.05713 0.0175213 0)
(1.05903 0.0156915 0)
(1.06048 0.0143982 0)
(1.06119 0.01349 0)
(1.0612 0.012747 0)
(1.06056 0.0120987 0)
(1.05925 0.0115286 0)
(1.05729 0.0110211 0)
(1.05471 0.0105615 0)
(1.05156 0.0101396 0)
(1.04789 0.00974885 0)
(1.04376 0.00938502 0)
(1.03923 0.00904495 0)
(1.03437 0.00872626 0)
(1.02923 0.00842707 0)
(1.02385 0.0081458 0)
(1.01829 0.00788108 0)
(1.0126 0.00763164 0)
(1.0068 0.00739634 0)
(1.00092 0.00717403 0)
(0.99501 0.00696369 0)
(0.989079 0.00676423 0)
(0.983154 0.00657469 0)
(0.977252 0.00639399 0)
(0.971389 0.00622118 0)
(0.965581 0.00605514 0)
(0.959839 0.00589477 0)
(0.954175 0.00573881 0)
(0.948598 0.00558578 0)
(0.943116 0.00543431 0)
(0.937741 0.00528195 0)
(0.932478 0.00512752 0)
(0.92734 0.00496655 0)
(0.922329 0.0047993 0)
(0.917468 0.00461646 0)
(0.912751 0.00442521 0)
(0.908217 0.00420086 0)
(0.90385 0.00397921 0)
(0.899698 0.0036868 0)
(0.895771 0.00344642 0)
(0.892032 0.00308081 0)
(0.888671 0.00286254 0)
(0.885322 0.00260553 0)
(0.882625 0.00255297 0)
(0.879725 0.00344241 0)
(0.878067 0.0049625 0)
(1.00327 0.027788 0)
(1.03409 0.0310257 0)
(1.0497 0.0222693 0)
(1.05272 0.0190923 0)
(1.05413 0.0173101 0)
(1.05609 0.0155616 0)
(1.05781 0.0142901 0)
(1.05904 0.0134119 0)
(1.05987 0.0127095 0)
(1.06034 0.012105 0)
(1.06043 0.0115804 0)
(1.06012 0.0111204 0)
(1.0594 0.010709 0)
(1.05827 0.0103348 0)
(1.05674 0.00999024 0)
(1.05484 0.00967033 0)
(1.05257 0.00937139 0)
(1.04998 0.00909074 0)
(1.0471 0.00882634 0)
(1.04394 0.00857656 0)
(1.04055 0.00834011 0)
(1.03695 0.00811586 0)
(1.03318 0.00790281 0)
(1.02926 0.00770003 0)
(1.02521 0.00750666 0)
(1.02105 0.00732183 0)
(1.01682 0.00714474 0)
(1.01252 0.0069745 0)
(1.00819 0.00681028 0)
(1.00382 0.0066511 0)
(0.999442 0.00649598 0)
(0.995066 0.00634375 0)
(0.990705 0.00619297 0)
(0.986371 0.00604231 0)
(0.982077 0.00588933 0)
(0.977831 0.00573274 0)
(0.973649 0.00556813 0)
(0.969536 0.00539532 0)
(0.965515 0.00520529 0)
(0.961585 0.00500416 0)
(0.957778 0.00476835 0)
(0.954089 0.00453059 0)
(0.950555 0.00422329 0)
(0.947189 0.0039556 0)
(0.943973 0.00357817 0)
(0.941034 0.00331532 0)
(0.938166 0.00305681 0)
(0.935766 0.0029768 0)
(0.933436 0.00379399 0)
(0.932311 0.00534721 0)
(1.00292 0.0256522 0)
(1.03138 0.0299513 0)
(1.0467 0.0217281 0)
(1.04993 0.0186828 0)
(1.05131 0.0170868 0)
(1.05323 0.0154246 0)
(1.05499 0.0141682 0)
(1.05633 0.0133055 0)
(1.0574 0.0126261 0)
(1.05826 0.0120455 0)
(1.05891 0.011546 0)
(1.05935 0.0111131 0)
(1.05954 0.0107311 0)
(1.05949 0.010388 0)
(1.05917 0.0100755 0)
(1.05861 0.00978803 0)
(1.05778 0.00952131 0)
(1.05671 0.00927222 0)
(1.05539 0.00903834 0)
(1.05385 0.00881778 0)
(1.05209 0.00860903 0)
(1.05013 0.00841082 0)
(1.04799 0.00822209 0)
(1.04568 0.00804186 0)
(1.04322 0.00786927 0)
(1.04062 0.00770348 0)
(1.03791 0.00754372 0)
(1.03509 0.00738913 0)
(1.03219 0.00723893 0)
(1.02921 0.00709219 0)
(1.02617 0.00694794 0)
(1.02308 0.00680508 0)
(1.01996 0.00666216 0)
(1.01681 0.00651787 0)
(1.01366 0.00636977 0)
(1.0105 0.00621646 0)
(1.00736 0.00605358 0)
(1.00424 0.00588059 0)
(1.00117 0.00568872 0)
(0.998137 0.00548318 0)
(0.995176 0.00524153 0)
(0.992289 0.00499324 0)
(0.9895 0.00467738 0)
(0.986828 0.00438822 0)
(0.984264 0.00400496 0)
(0.981894 0.00370569 0)
(0.979617 0.00344364 0)
(0.977696 0.0033426 0)
(0.976003 0.00405916 0)
(0.975548 0.00555111 0)
(1.0026 0.0236232 0)
(1.02879 0.0288599 0)
(1.04378 0.0212078 0)
(1.04724 0.0182713 0)
(1.04863 0.01685 0)
(1.05051 0.0152831 0)
(1.05226 0.0140438 0)
(1.05361 0.0131917 0)
(1.05471 0.0125286 0)
(1.05567 0.0119632 0)
(1.0565 0.0114776 0)
(1.0572 0.0110595 0)
(1.05776 0.0106938 0)
(1.05818 0.0103685 0)
(1.05844 0.0100753 0)
(1.05856 0.00980812 0)
(1.05851 0.00956266 0)
(1.0583 0.00933542 0)
(1.05792 0.0091237 0)
(1.05739 0.00892533 0)
(1.05669 0.00873856 0)
(1.05583 0.00856193 0)
(1.05483 0.00839418 0)
(1.05368 0.00823423 0)
(1.0524 0.0080811 0)
(1.05099 0.00793386 0)
(1.04947 0.00779165 0)
(1.04784 0.00765358 0)
(1.04611 0.00751879 0)
(1.04429 0.00738634 0)
(1.04239 0.00725519 0)
(1.04043 0.00712423 0)
(1.0384 0.00699197 0)
(1.03633 0.00685706 0)
(1.03422 0.00671701 0)
(1.03209 0.00657034 0)
(1.02993 0.0064127 0)
(1.02777 0.00624325 0)
(1.02562 0.0060534 0)
(1.02348 0.0058476 0)
(1.02137 0.00560459 0)
(1.0193 0.00535034 0)
(1.01728 0.00503119 0)
(1.01534 0.00472608 0)
(1.01347 0.00434155 0)
(1.01173 0.00401419 0)
(1.01009 0.00374559 0)
(1.00874 0.00362632 0)
(1.00771 0.00422095 0)
(1.00796 0.005571 0)
(1.0023 0.0217026 0)
(1.02634 0.0277524 0)
(1.04095 0.0207069 0)
(1.04463 0.0178591 0)
(1.04604 0.0165983 0)
(1.0479 0.0151354 0)
(1.04964 0.0139179 0)
(1.05099 0.0130756 0)
(1.05208 0.0124271 0)
(1.05304 0.0118743 0)
(1.0539 0.0113984 0)
(1.05466 0.0109893 0)
(1.05534 0.010633 0)
(1.05592 0.0103178 0)
(1.05642 0.0100354 0)
(1.05682 0.00978002 0)
(1.05713 0.00954713 0)
(1.05734 0.00933325 0)
(1.05744 0.00913557 0)
(1.05744 0.00895177 0)
(1.05734 0.00877997 0)
(1.05713 0.00861857 0)
(1.05682 0.00846617 0)
(1.0564 0.00832156 0)
(1.05589 0.00818364 0)
(1.05527 0.00805137 0)
(1.05456 0.00792379 0)
(1.05376 0.00779991 0)
(1.05288 0.00767877 0)
(1.05192 0.00755935 0)
(1.05088 0.00744052 0)
(1.04978 0.00732111 0)
(1.04862 0.00719952 0)
(1.04741 0.00707435 0)
(1.04615 0.00694306 0)
(1.04486 0.00680403 0)
(1.04353 0.00665291 0)
(1.04219 0.00648863 0)
(1.04083 0.00630273 0)
(1.03947 0.00609892 0)
(1.03812 0.00585727 0)
(1.03678 0.0056001 0)
(1.03547 0.00528114 0)
(1.0342 0.00496452 0)
(1.03298 0.00458124 0)
(1.03185 0.00423308 0)
(1.03081 0.00395393 0)
(1.03004 0.00381491 0)
(1.02964 0.00427314 0)
(1.03055 0.00541612 0)
(1.00203 0.0198913 0)
(1.02402 0.0266318 0)
(1.03822 0.0202221 0)
(1.04211 0.0174481 0)
(1.04355 0.0163319 0)
(1.04537 0.0149803 0)
(1.04712 0.0137899 0)
(1.04846 0.0129576 0)
(1.04954 0.0123235 0)
(1.05048 0.0117832 0)
(1.05133 0.0113161 0)
(1.0521 0.0109141 0)
(1.0528 0.0105645 0)
(1.05342 0.0102559 0)
(1.05398 0.00998023 0)
(1.05448 0.00973179 0)
(1.05492 0.00950627 0)
(1.0553 0.00930021 0)
(1.05561 0.00911083 0)
(1.05586 0.00893581 0)
(1.05605 0.00877324 0)
(1.05616 0.00862144 0)
(1.05621 0.00847899 0)
(1.0562 0.00834458 0)
(1.05611 0.00821705 0)
(1.05596 0.00809528 0)
(1.05574 0.00797823 0)
(1.05546 0.00786482 0)
(1.05512 0.007754 0)
(1.05472 0.00764466 0)
(1.05426 0.00753556 0)
(1.05375 0.00742547 0)
(1.05319 0.00731267 0)
(1.05258 0.00719572 0)
(1.05194 0.00707196 0)
(1.05126 0.00693968 0)
(1.05056 0.0067945 0)
(1.04983 0.00663514 0)
(1.04909 0.00645331 0)
(1.04834 0.00625196 0)
(1.04758 0.00601261 0)
(1.04684 0.00575383 0)
(1.0461 0.00543666 0)
(1.0454 0.00511144 0)
(1.04472 0.00472998 0)
(1.04411 0.00436609 0)
(1.04359 0.00407208 0)
(1.04334 0.00390706 0)
(1.04349 0.00422089 0)
(1.04494 0.00510531 0)
(1.00179 0.0181894 0)
(1.02183 0.0255021 0)
(1.03558 0.0197497 0)
(1.03967 0.0170402 0)
(1.04114 0.0160515 0)
(1.04293 0.0148168 0)
(1.04467 0.0136594 0)
(1.04602 0.0128373 0)
(1.04709 0.0122177 0)
(1.04802 0.0116906 0)
(1.04886 0.0112325 0)
(1.04961 0.0108373 0)
(1.0503 0.0104937 0)
(1.05092 0.0101906 0)
(1.05149 0.00992002 0)
(1.05201 0.0096765 0)
(1.05249 0.00945587 0)
(1.05291 0.00925478 0)
(1.0533 0.00907053 0)
(1.05364 0.00890085 0)
(1.05394 0.00874384 0)
(1.0542 0.00859786 0)
(1.05441 0.00846146 0)
(1.05458 0.00833334 0)
(1.05471 0.0082123 0)
(1.05479 0.00809721 0)
(1.05484 0.00798696 0)
(1.05484 0.00788043 0)
(1.05479 0.0077765 0)
(1.05471 0.00767399 0)
(1.05459 0.00757157 0)
(1.05444 0.00746795 0)
(1.05425 0.00736133 0)
(1.05403 0.00725018 0)
(1.05378 0.00713179 0)
(1.05351 0.00700434 0)
(1.05322 0.00686343 0)
(1.05291 0.00670759 0)
(1.0526 0.00652873 0)
(1.05227 0.00632902 0)
(1.05194 0.00609156 0)
(1.05162 0.00583119 0)
(1.05131 0.00551579 0)
(1.05102 0.00518349 0)
(1.05075 0.00480267 0)
(1.05054 0.00442594 0)
(1.05042 0.00411203 0)
(1.05058 0.00391299 0)
(1.05117 0.00407545 0)
(1.05304 0.00466995 0)
(1.00157 0.0165968 0)
(1.01979 0.0243671 0)
(1.03304 0.0192856 0)
(1.03732 0.0166372 0)
(1.03883 0.0157582 0)
(1.04058 0.0146443 0)
(1.04232 0.0135259 0)
(1.04367 0.0127147 0)
(1.04473 0.0121096 0)
(1.04565 0.0115962 0)
(1.04647 0.0111478 0)
(1.04722 0.0107597 0)
(1.04789 0.010422 0)
(1.0485 0.0101242 0)
(1.04906 0.00985833 0)
(1.04958 0.0096191 0)
(1.05005 0.00940246 0)
(1.05049 0.0092052 0)
(1.05088 0.00902467 0)
(1.05125 0.00885867 0)
(1.05158 0.00870536 0)
(1.05189 0.00856312 0)
(1.05216 0.00843054 0)
(1.0524 0.00830632 0)
(1.05262 0.00818929 0)
(1.05281 0.00807829 0)
(1.05296 0.0079722 0)
(1.0531 0.00786989 0)
(1.0532 0.00777018 0)
(1.05328 0.00767187 0)
(1.05334 0.00757355 0)
(1.05337 0.00747387 0)
(1.05338 0.00737099 0)
(1.05338 0.00726329 0)
(1.05336 0.00714803 0)
(1.05332 0.0070233 0)
(1.05328 0.00688473 0)
(1.05322 0.00673061 0)
(1.05317 0.00655317 0)
(1.05311 0.00635371 0)
(1.05305 0.00611702 0)
(1.053 0.00585431 0)
(1.05296 0.00553967 0)
(1.05295 0.00520075 0)
(1.05295 0.00481843 0)
(1.05303 0.00442953 0)
(1.05319 0.004091 0)
(1.05364 0.00384807 0)
(1.05454 0.00385466 0)
(1.05668 0.0041462 0)
(1.00137 0.0151124 0)
(1.01788 0.0232308 0)
(1.03061 0.0188259 0)
(1.03506 0.0162405 0)
(1.03661 0.0154537 0)
(1.03832 0.014462 0)
(1.04005 0.0133893 0)
(1.04141 0.0125899 0)
(1.04247 0.011999 0)
(1.04337 0.0115 0)
(1.04418 0.0110618 0)
(1.04491 0.0106811 0)
(1.04558 0.0103496 0)
(1.04617 0.0100572 0)
(1.04672 0.00979606 0)
(1.04723 0.00956104 0)
(1.04769 0.00934822 0)
(1.04812 0.00915445 0)
(1.04851 0.00897717 0)
(1.04887 0.00881425 0)
(1.04921 0.00866387 0)
(1.04952 0.00852447 0)
(1.04981 0.00839465 0)
(1.05007 0.00827316 0)
(1.05031 0.00815881 0)
(1.05053 0.00805048 0)
(1.05073 0.00794704 0)
(1.05092 0.00784735 0)
(1.05108 0.00775019 0)
(1.05123 0.00765434 0)
(1.05136 0.00755835 0)
(1.05148 0.00746083 0)
(1.05159 0.00735988 0)
(1.05169 0.00725384 0)
(1.05178 0.00713997 0)
(1.05187 0.00701623 0)
(1.05195 0.00687834 0)
(1.05203 0.00672435 0)
(1.05211 0.00654686 0)
(1.0522 0.00634629 0)
(1.0523 0.00610909 0)
(1.0524 0.00584313 0)
(1.05252 0.00552784 0)
(1.05267 0.00518217 0)
(1.05284 0.0047959 0)
(1.05308 0.00439393 0)
(1.05342 0.00402645 0)
(1.05407 0.00372976 0)
(1.05517 0.00357907 0)
(1.05744 0.00356293 0)
(1.0012 0.0137346 0)
(1.0161 0.0220974 0)
(1.02829 0.0183669 0)
(1.03288 0.0158513 0)
(1.03449 0.0151395 0)
(1.03616 0.0142695 0)
(1.03787 0.0132489 0)
(1.03923 0.012463 0)
(1.04029 0.0118858 0)
(1.04118 0.0114017 0)
(1.04198 0.0109745 0)
(1.0427 0.0106015 0)
(1.04335 0.0102764 0)
(1.04394 0.00998954 0)
(1.04448 0.00973335 0)
(1.04497 0.00950266 0)
(1.04542 0.00929369 0)
(1.04584 0.00910341 0)
(1.04622 0.00892932 0)
(1.04657 0.00876933 0)
(1.0469 0.00862167 0)
(1.04721 0.0084848 0)
(1.04749 0.00835737 0)
(1.04775 0.00823812 0)
(1.048 0.00812591 0)
(1.04822 0.00801961 0)
(1.04843 0.00791809 0)
(1.04863 0.00782021 0)
(1.04881 0.00772473 0)
(1.04898 0.00763039 0)
(1.04914 0.00753573 0)
(1.04929 0.00743931 0)
(1.04943 0.00733922 0)
(1.04957 0.00723372 0)
(1.04971 0.00712009 0)
(1.04985 0.0069962 0)
(1.04999 0.00685785 0)
(1.05013 0.00670287 0)
(1.05028 0.00652425 0)
(1.05043 0.00632153 0)
(1.0506 0.00608278 0)
(1.05078 0.00581281 0)
(1.05098 0.00549552 0)
(1.05121 0.00514279 0)
(1.05147 0.00475015 0)
(1.05181 0.00433362 0)
(1.05225 0.00393297 0)
(1.053 0.00357423 0)
(1.05421 0.00326799 0)
(1.0565 0.00294843 0)
(1.00104 0.0124612 0)
(1.01446 0.0209712 0)
(1.02608 0.0179052 0)
(1.03079 0.0154704 0)
(1.03246 0.0148176 0)
(1.03409 0.0140664 0)
(1.03578 0.0131043 0)
(1.03715 0.0123338 0)
(1.0382 0.0117702 0)
(1.03909 0.0113013 0)
(1.03988 0.0108856 0)
(1.04059 0.0105208 0)
(1.04122 0.0102023 0)
(1.0418 0.00992126 0)
(1.04233 0.00967017 0)
(1.04281 0.00944395 0)
(1.04325 0.00923895 0)
(1.04365 0.00905225 0)
(1.04402 0.00888141 0)
(1.04437 0.00872438 0)
(1.04469 0.00857944 0)
(1.04498 0.00844506 0)
(1.04526 0.00831993 0)
(1.04551 0.00820281 0)
(1.04575 0.00809256 0)
(1.04597 0.00798807 0)
(1.04617 0.0078882 0)
(1.04637 0.00779181 0)
(1.04655 0.00769763 0)
(1.04672 0.0076044 0)
(1.04688 0.0075106 0)
(1.04704 0.00741477 0)
(1.04719 0.00731497 0)
(1.04734 0.00720943 0)
(1.04749 0.00709543 0)
(1.04764 0.00697074 0)
(1.0478 0.0068313 0)
(1.04796 0.00667467 0)
(1.04813 0.00649428 0)
(1.04832 0.00628881 0)
(1.04851 0.00604779 0)
(1.04872 0.00577337 0)
(1.04895 0.005453 0)
(1.04921 0.00509289 0)
(1.04951 0.00469192 0)
(1.04989 0.00425885 0)
(1.05038 0.003822 0)
(1.05118 0.00339428 0)
(1.05243 0.00293552 0)
(1.05467 0.00232949 0)
(1.0009 0.0112894 0)
(1.01295 0.0198564 0)
(1.02398 0.0174377 0)
(1.02879 0.0150982 0)
(1.03052 0.0144902 0)
(1.03211 0.0138523 0)
(1.03378 0.0129549 0)
(1.03515 0.0122024 0)
(1.0362 0.011652 0)
(1.03708 0.0111985 0)
(1.03786 0.010795 0)
(1.03856 0.0104389 0)
(1.03919 0.0101273 0)
(1.03976 0.00985225 0)
(1.04027 0.00960643 0)
(1.04074 0.00938485 0)
(1.04117 0.00918397 0)
(1.04156 0.00900096 0)
(1.04193 0.00883347 0)
(1.04226 0.00867949 0)
(1.04257 0.00853733 0)
(1.04285 0.0084055 0)
(1.04312 0.0082827 0)
(1.04336 0.00816771 0)
(1.04359 0.00805942 0)
(1.0438 0.0079567 0)
(1.044 0.00785843 0)
(1.04419 0.00776344 0)
(1.04436 0.00767046 0)
(1.04453 0.00757818 0)
(1.04468 0.00748508 0)
(1.04484 0.00738964 0)
(1.04499 0.00728992 0)
(1.04513 0.00718408 0)
(1.04528 0.00706945 0)
(1.04543 0.00694369 0)
(1.04559 0.00680287 0)
(1.04575 0.00664429 0)
(1.04593 0.00646182 0)
(1.04611 0.00625334 0)
(1.04631 0.00600966 0)
(1.04652 0.00573063 0)
(1.04676 0.00540643 0)
(1.04702 0.00503871 0)
(1.04733 0.00462784 0)
(1.04772 0.0041764 0)
(1.04823 0.00370094 0)
(1.04904 0.00319989 0)
(1.05028 0.00259423 0)
(1.05241 0.00171983 0)
(1.00078 0.0102155 0)
(1.01157 0.0187576 0)
(1.022 0.0169616 0)
(1.02687 0.0147349 0)
(1.02868 0.0141592 0)
(1.03023 0.0136274 0)
(1.03187 0.0128 0)
(1.03324 0.0120688 0)
(1.0343 0.0115312 0)
(1.03517 0.0110932 0)
(1.03594 0.0107027 0)
(1.03663 0.0103557 0)
(1.03725 0.0100512 0)
(1.0378 0.00978242 0)
(1.03831 0.00954208 0)
(1.03877 0.00932531 0)
(1.03919 0.00912869 0)
(1.03957 0.0089495 0)
(1.03992 0.00878547 0)
(1.04025 0.00863463 0)
(1.04055 0.00849534 0)
(1.04082 0.00836614 0)
(1.04108 0.00824574 0)
(1.04131 0.00813295 0)
(1.04153 0.00802665 0)
(1.04174 0.00792575 0)
(1.04192 0.00782911 0)
(1.0421 0.00773553 0)
(1.04227 0.00764374 0)
(1.04242 0.0075524 0)
(1.04257 0.00745996 0)
(1.04272 0.00736487 0)
(1.04286 0.00726518 0)
(1.043 0.00715898 0)
(1.04314 0.00704364 0)
(1.04329 0.00691674 0)
(1.04344 0.00677445 0)
(1.04359 0.00661387 0)
(1.04376 0.00642923 0)
(1.04394 0.0062177 0)
(1.04413 0.00597119 0)
(1.04433 0.00568761 0)
(1.04456 0.00535907 0)
(1.04482 0.00498361 0)
(1.04512 0.00456171 0)
(1.0455 0.0040903 0)
(1.04601 0.00357499 0)
(1.0468 0.00299764 0)
(1.048 0.00225456 0)
(1.04998 0.00113275 0)
(1.00067 0.00923553 0)
(1.01031 0.0176792 0)
(1.02013 0.0164748 0)
(1.02503 0.0143801 0)
(1.02692 0.0138267 0)
(1.02844 0.0133919 0)
(1.03005 0.012639 0)
(1.03142 0.0119327 0)
(1.03248 0.0114081 0)
(1.03334 0.0109854 0)
(1.0341 0.0106084 0)
(1.03478 0.0102711 0)
(1.03539 0.0099741 0)
(1.03594 0.00971169 0)
(1.03644 0.00947702 0)
(1.03689 0.00926525 0)
(1.0373 0.00907304 0)
(1.03767 0.00889781 0)
(1.03802 0.00873735 0)
(1.03833 0.00858977 0)
(1.03862 0.00845344 0)
(1.03889 0.00832695 0)
(1.03914 0.00820903 0)
(1.03936 0.00809851 0)
(1.03957 0.00799428 0)
(1.03977 0.00789526 0)
(1.03995 0.00780029 0)
(1.04012 0.00770818 0)
(1.04027 0.00761763 0)
(1.04042 0.00752726 0)
(1.04056 0.00743551 0)
(1.0407 0.00734079 0)
(1.04083 0.00724114 0)
(1.04097 0.0071346 0)
(1.0411 0.00701858 0)
(1.04123 0.00689056 0)
(1.04137 0.00674685 0)
(1.04152 0.00658431 0)
(1.04168 0.00639754 0)
(1.04184 0.00618307 0)
(1.04202 0.00593369 0)
(1.04221 0.00564571 0)
(1.04243 0.00531257 0)
(1.04267 0.00492932 0)
(1.04296 0.00449562 0)
(1.04333 0.00400305 0)
(1.04382 0.0034472 0)
(1.04458 0.00279437 0)
(1.04571 0.00192093 0)
(1.04752 0.000585811 0)
(1.00058 0.00834486 0)
(1.00917 0.0166255 0)
(1.01837 0.0159756 0)
(1.02329 0.0140332 0)
(1.02525 0.0134946 0)
(1.02674 0.0131463 0)
(1.02832 0.0124713 0)
(1.02968 0.011794 0)
(1.03074 0.0112825 0)
(1.0316 0.010875 0)
(1.03235 0.010512 0)
(1.03303 0.010185 0)
(1.03363 0.00989575 0)
(1.03417 0.00963997 0)
(1.03466 0.00941119 0)
(1.0351 0.00920459 0)
(1.0355 0.00901695 0)
(1.03587 0.00884582 0)
(1.0362 0.00868905 0)
(1.03651 0.00854484 0)
(1.03679 0.00841158 0)
(1.03705 0.00828789 0)
(1.03729 0.00817254 0)
(1.03751 0.00806436 0)
(1.03771 0.00796228 0)
(1.0379 0.0078652 0)
(1.03807 0.00777197 0)
(1.03823 0.00768139 0)
(1.03838 0.00759213 0)
(1.03852 0.00750279 0)
(1.03865 0.00741179 0)
(1.03878 0.00731749 0)
(1.03891 0.00721793 0)
(1.03903 0.00711111 0)
(1.03915 0.00699447 0)
(1.03928 0.00686541 0)
(1.03941 0.00672034 0)
(1.03955 0.00655597 0)
(1.03969 0.00636717 0)
(1.03984 0.00614994 0)
(1.04001 0.00589776 0)
(1.04019 0.00560562 0)
(1.04038 0.00526774 0)
(1.04061 0.00487674 0)
(1.04088 0.00443081 0)
(1.04123 0.00391632 0)
(1.0417 0.00332041 0)
(1.04241 0.0025937 0)
(1.04346 0.00160242 0)
(1.04508 9.01882e-05 0)
(1.0005 0.00753845 0)
(1.00813 0.0156007 0)
(1.01672 0.0154629 0)
(1.02162 0.0136934 0)
(1.02366 0.0131647 0)
(1.02513 0.0128915 0)
(1.02667 0.0122963 0)
(1.02803 0.0116524 0)
(1.02909 0.0111545 0)
(1.02995 0.0107618 0)
(1.03069 0.0104134 0)
(1.03136 0.0100972 0)
(1.03196 0.0098161 0)
(1.03249 0.00956718 0)
(1.03297 0.00934448 0)
(1.0334 0.00914325 0)
(1.0338 0.00896036 0)