/*--------------------------------*- C++ -*----------------------------------*\
  =========                 |
  \\      /  F ield         | OpenFOAM: The Open Source CFD Toolbox
   \\    /   O peration     | Website:  https://openfoam.org
    \\  /    A nd           | Version:  7
     \\/     M anipulation  |
\*---------------------------------------------------------------------------*/
FoamFile
{
    version     2.0;
    format      ascii;
    class       volVectorField;
    location    "0.29";
    object      wallShearStress;
}
// * * * * * * * * * * * * * * * * * * * * * * * * * * * * * * * * * * * * * //

dimensions      [0 2 -2 0 0 0 0];

internalField   uniform (0 0 0);

boundaryField
{
    velocityInlet
    {
        type            calculated;
        value           uniform (0 0 0);
    }
    pressureOutlet
    {
        type            calculated;
        value           uniform (0 0 0);
    }
    fixedWalls
    {
        type            calculated;
        value           nonuniform List<vector> 
100
(
(-0.0221206 -0.00261021 0)
(-0.0158051 -0.00110507 0)
(-0.0116403 -0.000564085 0)
(-0.00890826 -0.000269434 0)
(-0.00778446 -0.000103117 0)
(-0.00728885 -6.44466e-05 0)
(-0.00694594 -5.27114e-05 0)
(-0.00665732 -4.13873e-05 0)
(-0.00639569 -3.38462e-05 0)
(-0.00612678 -3.00363e-05 0)
(-0.0058259 -2.82451e-05 0)
(-0.00549394 -2.71968e-05 0)
(-0.00515354 -2.59383e-05 0)
(-0.00483431 -2.38422e-05 0)
(-0.00456142 -2.02985e-05 0)
(-0.00435218 -1.47617e-05 0)
(-0.00421623 -8.69133e-06 0)
(-0.00415896 -2.60633e-06 0)
(-0.00419168 7.7273e-06 0)
(-0.00433458 2.23391e-05 0)
(-0.00459004 3.4923e-05 0)
(-0.00493323 4.10037e-05 0)
(-0.00537496 5.27033e-05 0)
(-0.00598443 7.81859e-05 0)
(-0.00675683 9.98227e-05 0)
(-0.00759104 0.000115297 0)
(-0.00846422 0.000144732 0)
(-0.0092962 0.000169047 0)
(-0.00961861 0.000120761 0)
(-0.00870373 -7.93502e-05 0)
(-0.00591345 -0.000396849 0)
(-0.00151054 -0.000640946 0)
(0.00305354 -0.000649046 0)
(0.00639519 -0.000473354 0)
(0.00785395 -0.000200504 0)
(0.00739442 6.26371e-05 0)
(0.0055219 0.000237396 0)
(0.00296314 0.000308088 0)
(0.000390248 0.000292632 0)
(-0.00179013 0.00023962 0)
(-0.00345504 0.000180724 0)
(-0.00463967 0.000132444 0)
(-0.00543345 9.63814e-05 0)
(-0.00590699 6.80768e-05 0)
(-0.00608498 4.4438e-05 0)
(-0.00594703 1.04992e-05 0)
(-0.00544194 -3.05807e-05 0)
(-0.00451214 -8.28076e-05 0)
(-0.0030958 -0.000155 0)
(-0.00122741 -0.000218927 0)
(0.000916347 -0.000245226 0)
(0.00302083 -0.00025656 0)
(0.00481466 -0.000225991 0)
(0.00605269 -0.000162285 0)
(0.00655092 -7.82683e-05 0)
(0.00622171 1.92172e-05 0)
(0.00509295 0.000108611 0)
(0.00331737 0.000177844 0)
(0.00119765 0.000204935 0)
(-0.000913777 0.000197788 0)
(-0.00273484 0.000164688 0)
(-0.00417745 0.00013118 0)
(-0.00541579 0.000129339 0)
(-0.00662947 0.000145792 0)
(-0.00758517 0.000132529 0)
(-0.00757312 2.64382e-05 0)
(-0.00588245 -0.000180631 0)
(-0.0022671 -0.000433733 0)
(0.00222602 -0.000472792 0)
(0.00554062 -0.000340837 0)
(0.00641136 -6.52246e-05 0)
(0.00482718 0.000178498 0)
(0.00205618 0.000257096 0)
(-0.000594721 0.000227085 0)
(-0.00249215 0.000148429 0)
(-0.00354543 7.59691e-05 0)
(-0.0039684 2.80147e-05 0)
(-0.0040161 1.40399e-06 0)
(-0.00387659 -1.22107e-05 0)
(-0.00366417 -1.71076e-05 0)
(-0.00344329 -1.73009e-05 0)
(-0.00324649 -1.50981e-05 0)
(-0.00308832 -1.17783e-05 0)
(-0.00297136 -8.19112e-06 0)
(-0.00289021 -5.07747e-06 0)
(-0.00283082 -3.23572e-06 0)
(-0.00277684 -3.02446e-06 0)
(-0.00271395 -3.98615e-06 0)
(-0.00264076 -4.9452e-06 0)
(-0.00256869 -4.44117e-06 0)
(-0.00251345 -2.2462e-06 0)
(-0.00250507 2.62477e-06 0)
(-0.00252606 7.49639e-06 0)
(-0.00263402 1.53771e-05 0)
(-0.00268503 1.79269e-05 0)
(-0.00289128 2.52145e-05 0)
(-0.00270237 1.03132e-05 0)
(-0.00275292 -1.46089e-07 0)
(-0.00179162 -5.22945e-05 0)
(-0.00126307 -3.09949e-05 0)
)
;
    }
    bottomWall
    {
        type            calculated;
        value           nonuniform List<vector> 
800
(
(-0.0353488 0.00214398 0)
(-0.0160265 0.000524837 0)
(-0.0106075 0.000100719 0)
(-0.00845564 3.52605e-05 0)
(-0.00748591 1.98598e-05 0)
(-0.00685226 1.6119e-05 0)
(-0.00634488 1.3351e-05 0)
(-0.00593389 1.08933e-05 0)
(-0.00559934 9.07037e-06 0)
(-0.00532075 7.75304e-06 0)
(-0.00508354 6.75582e-06 0)
(-0.00487823 5.96823e-06 0)
(-0.00469837 5.33017e-06 0)
(-0.0045392 4.80457e-06 0)
(-0.00439712 4.36532e-06 0)
(-0.00426937 3.99377e-06 0)
(-0.00415375 3.67605e-06 0)
(-0.00404853 3.40154e-06 0)
(-0.00395227 3.16252e-06 0)
(-0.00386384 2.95275e-06 0)
(-0.00378226 2.76729e-06 0)
(-0.00370674 2.60246e-06 0)
(-0.00363659 2.45514e-06 0)
(-0.00357123 2.32263e-06 0)
(-0.00351019 2.20318e-06 0)
(-0.00345302 2.09502e-06 0)
(-0.00339935 1.99649e-06 0)
(-0.00334887 1.90666e-06 0)
(-0.00330128 1.82443e-06 0)
(-0.00325634 1.74884e-06 0)
(-0.00321383 1.67937e-06 0)
(-0.00317354 1.61511e-06 0)
(-0.00313531 1.55563e-06 0)
(-0.00309897 1.50048e-06 0)
(-0.00306439 1.44918e-06 0)
(-0.00303143 1.4014e-06 0)
(-0.003 1.35667e-06 0)
(-0.00296997 1.31481e-06 0)
(-0.00294127 1.27564e-06 0)
(-0.00291379 1.23879e-06 0)
(-0.00288747 1.20409e-06 0)
(-0.00286223 1.17142e-06 0)
(-0.00283802 1.14058e-06 0)
(-0.00281476 1.11142e-06 0)
(-0.0027924 1.08397e-06 0)
(-0.0027709 1.05778e-06 0)
(-0.00275019 1.03332e-06 0)
(-0.00273026 1.00921e-06 0)
(-0.00271103 9.87636e-07 0)
(-0.0026925 9.64659e-07 0)
(-0.002677 9.45605e-07 0)
(-0.00266421 9.34839e-07 0)
(-0.00265157 9.21212e-07 0)
(-0.00263913 9.06401e-07 0)
(-0.00262689 8.92743e-07 0)
(-0.00261481 8.79828e-07 0)
(-0.00260292 8.6696e-07 0)
(-0.0025912 8.54326e-07 0)
(-0.00257965 8.42286e-07 0)
(-0.00256825 8.305e-07 0)
(-0.00255702 8.18793e-07 0)
(-0.00254594 8.07329e-07 0)
(-0.00253503 7.96269e-07 0)
(-0.00252425 7.85446e-07 0)
(-0.00251363 7.74691e-07 0)
(-0.00250314 7.64335e-07 0)
(-0.0024928 7.54208e-07 0)
(-0.00248259 7.44311e-07 0)
(-0.00247252 7.34472e-07 0)
(-0.00246258 7.24857e-07 0)
(-0.00245276 7.15465e-07 0)
(-0.00244308 7.06294e-07 0)
(-0.00243351 6.97341e-07 0)
(-0.00242407 6.88439e-07 0)
(-0.00241475 6.79752e-07 0)
(-0.00240554 6.71447e-07 0)
(-0.00239645 6.63022e-07 0)
(-0.00238747 6.5481e-07 0)
(-0.0023786 6.46975e-07 0)
(-0.00236983 6.39019e-07 0)
(-0.00236117 6.31272e-07 0)
(-0.00235262 6.23734e-07 0)
(-0.00234416 6.16237e-07 0)
(-0.00233581 6.08947e-07 0)
(-0.00232756 6.01862e-07 0)
(-0.0023194 5.94983e-07 0)
(-0.00231133 5.87974e-07 0)
(-0.00230336 5.8117e-07 0)
(-0.00229548 5.74734e-07 0)
(-0.00228768 5.67998e-07 0)
(-0.00227998 5.61629e-07 0)
(-0.00227236 5.5546e-07 0)
(-0.00226483 5.49155e-07 0)
(-0.00225737 5.43047e-07 0)
(-0.00225001 5.37135e-07 0)
(-0.00224272 5.31251e-07 0)
(-0.00223551 5.25394e-07 0)
(-0.00222838 5.1973e-07 0)
(-0.00222132 5.14258e-07 0)
(-0.00221434 5.08644e-07 0)
(-0.00220744 5.03221e-07 0)
(-0.0022006 4.97986e-07 0)
(-0.00219384 4.92609e-07 0)
(-0.00218715 4.87419e-07 0)
(-0.00218053 4.82251e-07 0)
(-0.00217398 4.77271e-07 0)
(-0.00216749 4.72311e-07 0)
(-0.00216107 4.67372e-07 0)
(-0.00215472 4.6262e-07 0)
(-0.00214843 4.57887e-07 0)
(-0.00214221 4.53173e-07 0)
(-0.00213605 4.48645e-07 0)
(-0.00212994 4.44136e-07 0)
(-0.0021239 4.39645e-07 0)
(-0.00211792 4.35173e-07 0)
(-0.002112 4.30886e-07 0)
(-0.00210613 4.26617e-07 0)
(-0.00210033 4.22364e-07 0)
(-0.00209458 4.18297e-07 0)
(-0.00208888 4.1408e-07 0)
(-0.00208325 4.10047e-07 0)
(-0.00207766 4.06198e-07 0)
(-0.00207212 4.02198e-07 0)
(-0.00206665 3.98216e-07 0)
(-0.00206122 3.94582e-07 0)
(-0.00205584 3.90797e-07 0)
(-0.00205051 3.87028e-07 0)
(-0.00204523 3.83441e-07 0)
(-0.00204 3.79869e-07 0)
(-0.00203482 3.76312e-07 0)
(-0.00202969 3.72769e-07 0)
(-0.0020246 3.69409e-07 0)
(-0.00201956 3.65893e-07 0)
(-0.00201456 3.62562e-07 0)
(-0.00200961 3.5941e-07 0)
(-0.0020047 3.56104e-07 0)
(-0.00199983 3.52812e-07 0)
(-0.00199501 3.49531e-07 0)
(-0.00199024 3.46433e-07 0)
(-0.0019855 3.43507e-07 0)
(-0.0019808 3.40439e-07 0)
(-0.00197615 3.37364e-07 0)
(-0.00197153 3.34499e-07 0)
(-0.00196695 3.31598e-07 0)
(-0.00196241 3.28614e-07 0)
(-0.00195792 3.25706e-07 0)
(-0.00195346 3.23118e-07 0)
(-0.00194903 3.20179e-07 0)
(-0.00194465 3.17486e-07 0)
(-0.0019403 3.1446e-07 0)
(-0.00193665 3.1188e-07 0)
(-0.00193367 3.1062e-07 0)
(-0.00193068 3.09019e-07 0)
(-0.00192769 3.07101e-07 0)
(-0.0019247 3.04975e-07 0)
(-0.0019217 3.03163e-07 0)
(-0.0019187 3.01566e-07 0)
(-0.00191569 2.99763e-07 0)
(-0.00191269 2.97958e-07 0)
(-0.00190967 2.96168e-07 0)
(-0.00190666 2.94381e-07 0)
(-0.00190364 2.9261e-07 0)
(-0.00190062 2.90829e-07 0)
(-0.00189759 2.89314e-07 0)
(-0.00189456 2.87562e-07 0)
(-0.00189153 2.85612e-07 0)
(-0.0018885 2.83881e-07 0)
(-0.00188546 2.82174e-07 0)
(-0.00188242 2.80468e-07 0)
(-0.00187937 2.78776e-07 0)
(-0.00187633 2.77086e-07 0)
(-0.00187328 2.75411e-07 0)
(-0.00187022 2.73733e-07 0)
(-0.00186717 2.72089e-07 0)
(-0.00186411 2.70432e-07 0)
(-0.00186104 2.68805e-07 0)
(-0.00185798 2.67176e-07 0)
(-0.00185491 2.65567e-07 0)
(-0.00185184 2.63759e-07 0)
(-0.00184877 2.62165e-07 0)
(-0.00184569 2.60574e-07 0)
(-0.00184261 2.59006e-07 0)
(-0.00183953 2.57443e-07 0)
(-0.00183644 2.55892e-07 0)
(-0.00183335 2.54344e-07 0)
(-0.00183026 2.52812e-07 0)
(-0.00182717 2.51285e-07 0)
(-0.00182407 2.4959e-07 0)
(-0.00182097 2.48074e-07 0)
(-0.00181787 2.46602e-07 0)
(-0.00181477 2.45108e-07 0)
(-0.00181166 2.43653e-07 0)
(-0.00180855 2.42193e-07 0)
(-0.00180544 2.4075e-07 0)
(-0.00180232 2.39303e-07 0)
(-0.0017992 2.37887e-07 0)
(-0.00179608 2.36297e-07 0)
(-0.00179295 2.34892e-07 0)
(-0.00178983 2.33648e-07 0)
(-0.00178669 2.32287e-07 0)
(-0.00178356 2.30734e-07 0)
(-0.00178042 2.29381e-07 0)
(-0.00177728 2.28023e-07 0)
(-0.00177414 2.26685e-07 0)
(-0.00177099 2.25518e-07 0)
(-0.00176784 2.24036e-07 0)
(-0.00176469 2.22707e-07 0)
(-0.00176153 2.21593e-07 0)
(-0.00175837 2.20117e-07 0)
(-0.00175521 2.18862e-07 0)
(-0.00175204 2.17752e-07 0)
(-0.00174887 2.16664e-07 0)
(-0.00174569 2.15434e-07 0)
(-0.00174251 2.14033e-07 0)
(-0.00173933 2.12773e-07 0)
(-0.00173615 2.11773e-07 0)
(-0.00173295 2.10704e-07 0)
(-0.00172975 2.09534e-07 0)
(-0.00172656 2.08338e-07 0)
(-0.00172335 2.07363e-07 0)
(-0.00172014 2.06363e-07 0)
(-0.00171692 2.05392e-07 0)
(-0.0017137 2.0428e-07 0)
(-0.00171047 2.03316e-07 0)
(-0.00170724 2.02322e-07 0)
(-0.001704 2.01452e-07 0)
(-0.00170075 2.00452e-07 0)
(-0.0016975 1.99641e-07 0)
(-0.00169424 1.9876e-07 0)
(-0.00169097 1.98071e-07 0)
(-0.00168769 1.97242e-07 0)
(-0.0016844 1.96676e-07 0)
(-0.00168112 1.95347e-07 0)
(-0.0016778 1.95581e-07 0)
(-0.00167451 1.93543e-07 0)
(-0.00167115 1.95087e-07 0)
(-0.00166787 1.91475e-07 0)
(-0.00166444 1.9579e-07 0)
(-0.0016612 1.87715e-07 0)
(-0.00165764 1.98971e-07 0)
(-0.00165453 1.81095e-07 0)
(-0.00165071 2.07164e-07 0)
(-0.0016479 1.67518e-07 0)
(-0.0016436 2.25762e-07 0)
(-0.00164136 1.40581e-07 0)
(-0.00163619 2.63489e-07 0)
(-0.00163499 8.8933e-08 0)
(-0.00162846 3.2985e-07 0)
(-0.00162876 5.9701e-09 0)
(-0.00162049 3.6421e-07 0)
(-0.0353488 -0.00214397 0)
(-0.0160266 -0.000524831 0)
(-0.0106079 -0.000100714 0)
(-0.00845609 -3.52596e-05 0)
(-0.0074863 -1.9863e-05 0)
(-0.00685245 -1.61287e-05 0)
(-0.00634449 -1.33688e-05 0)
(-0.00593269 -1.09177e-05 0)
(-0.00559708 -9.10137e-06 0)
(-0.00531724 -7.78974e-06 0)
(-0.00507863 -6.79706e-06 0)
(-0.00487182 -6.01309e-06 0)
(-0.00469037 -5.3777e-06 0)
(-0.00452958 -4.85383e-06 0)
(-0.00438586 -4.41558e-06 0)
(-0.00425647 -4.04438e-06 0)
(-0.00413922 -3.72667e-06 0)
(-0.00403237 -3.45184e-06 0)
(-0.00393452 -3.21206e-06 0)
(-0.00384452 -3.00141e-06 0)
(-0.00376139 -2.81493e-06 0)
(-0.00368436 -2.64864e-06 0)
(-0.00361273 -2.49945e-06 0)
(-0.00354595 -2.36455e-06 0)
(-0.00348353 -2.24163e-06 0)
(-0.00342508 -2.12882e-06 0)
(-0.00337022 -2.02445e-06 0)
(-0.00331869 -1.92684e-06 0)
(-0.00327022 -1.83464e-06 0)
(-0.00322461 -1.74646e-06 0)
(-0.0031817 -1.66093e-06 0)
(-0.00314135 -1.57731e-06 0)
(-0.00310347 -1.49347e-06 0)
(-0.00306797 -1.40963e-06 0)
(-0.00303486 -1.32219e-06 0)
(-0.00300408 -1.23437e-06 0)
(-0.00297569 -1.13802e-06 0)
(-0.00294974 -1.04496e-06 0)
(-0.00292624 -9.35099e-07 0)
(-0.0029055 -8.43631e-07 0)
(-0.00288699 -7.22073e-07 0)
(-0.00287214 -6.5142e-07 0)
(-0.00285769 -5.64671e-07 0)
(-0.0028504 -5.34941e-07 0)
(-0.00283401 -7.09577e-07 0)
(-0.00284036 -7.52932e-07 0)
(-0.0027972 -1.96791e-06 0)
(-0.00283674 -2.25735e-06 0)
(-0.00268481 -1.15029e-05 0)
(-0.00265067 0.000189874 0)
(8.8912e-05 -3.91157e-05 0)
(8.11316e-05 -0.000212388 0)
(4.60763e-05 -0.000303927 0)
(4.0876e-05 -0.000386827 0)
(0.000123761 -0.000382628 0)
(7.99276e-06 -0.000329014 0)
(-0.000432078 0.000134387 0)
(-0.000609794 0.000894356 0)
(-0.000575307 0.00157064 0)
(-0.000473521 0.00211821 0)
(-0.000312695 0.00247426 0)
(-0.000149361 0.00263319 0)
(-1.261e-06 0.00262032 0)
(0.000117622 0.00246821 0)
(0.000198713 0.00222318 0)
(0.00024646 0.00191829 0)
(0.000263564 0.00159176 0)
(0.000262686 0.00126619 0)
(0.000248599 0.000957133 0)
(0.000228723 0.000671027 0)
(0.000207654 0.000410163 0)
(0.000187143 0.000173938 0)
(0.000172032 -4.12637e-05 0)
(0.000162248 -0.000241421 0)
(0.0001572 -0.000433898 0)
(0.000156229 -0.000618797 0)
(0.000159609 -0.000801418 0)
(0.000166746 -0.000986827 0)
(0.000176901 -0.00118039 0)
(0.000188382 -0.00138393 0)
(0.000198966 -0.00159735 0)
(0.000206343 -0.00181909 0)
(0.000208352 -0.00204547 0)
(0.000203389 -0.00227103 0)
(0.000190609 -0.00248949 0)
(0.000169805 -0.00269419 0)
(0.000141691 -0.0028788 0)
(0.000107666 -0.00303821 0)
(6.88658e-05 -0.00316832 0)
(2.74945e-05 -0.00326591 0)
(-1.34735e-05 -0.003331 0)
(-5.45773e-05 -0.00336477 0)
(-9.52533e-05 -0.00336493 0)
(-0.000130667 -0.00333426 0)
(-0.00015754 -0.00327797 0)
(-0.00017471 -0.00320163 0)
(-0.000182679 -0.00311155 0)
(-0.000183405 -0.0030135 0)
(-0.000179525 -0.00291185 0)
(-0.000173761 -0.00280958 0)
(-0.000168514 -0.00270828 0)
(-0.000165603 -0.00260827 0)
(-0.000166173 -0.00250894 0)
(-0.000170772 -0.00240902 0)
(-0.000179415 -0.00230681 0)
(-0.00019167 -0.00220052 0)
(-0.000206781 -0.00208836 0)
(-0.000223684 -0.00196883 0)
(-0.000241191 -0.00184076 0)
(-0.000257831 -0.00170358 0)
(-0.000272528 -0.00155756 0)
(-0.000284229 -0.00140335 0)
(-0.000291459 -0.00124236 0)
(-0.000293895 -0.00107535 0)
(-0.000290295 -0.000905993 0)
(-0.000284202 -0.000736816 0)
(-0.000276583 -0.000572006 0)
(-0.000288633 -0.000428506 0)
(-0.000362429 -0.000264267 0)
(-0.000423142 -9.71323e-06 0)
(-0.000317748 0.000280362 0)
(-9.97688e-05 0.000483016 0)
(0.000129721 0.000578595 0)
(0.000325521 0.000605039 0)
(0.000476478 0.000584706 0)
(0.000559929 0.000521379 0)
(0.000579864 0.000438445 0)
(0.000536327 0.000342391 0)
(0.000425348 0.000250257 0)
(0.000252827 0.000182068 0)
(4.61946e-05 0.000166545 0)
(-0.000136702 0.000220138 0)
(-0.000233288 0.000304322 0)
(-0.00024594 0.000359371 0)
(-0.00022212 0.000365208 0)
(-0.000203246 0.000346853 0)
(-0.000186629 0.000338211 0)
(-0.00015708 0.000344645 0)
(-0.000118269 0.000360015 0)
(-7.78826e-05 0.000382752 0)
(-3.64888e-05 0.000409086 0)
(1.2552e-06 0.000431914 0)
(2.46716e-05 0.000450147 0)
(3.17798e-05 0.000471089 0)
(2.97554e-05 0.000497114 0)
(2.62247e-05 0.000523642 0)
(2.56483e-05 0.00054488 0)
(2.9407e-05 0.000556249 0)
(3.62704e-05 0.000554864 0)
(4.3624e-05 0.000541857 0)
(4.90733e-05 0.000520822 0)
(5.37808e-05 0.000496474 0)
(6.08836e-05 0.000470005 0)
(7.07903e-05 0.000439796 0)
(8.16715e-05 0.000404901 0)
(9.08156e-05 0.000365776 0)
(9.60546e-05 0.000324666 0)
(9.70088e-05 0.000284283 0)
(9.43999e-05 0.000246311 0)
(8.88281e-05 0.000211493 0)
(8.05158e-05 0.00018042 0)
(6.9622e-05 0.000153809 0)
(5.64253e-05 0.000132383 0)
(4.13208e-05 0.000116749 0)
(2.47929e-05 0.000107346 0)
(7.41144e-06 0.000104966 0)
(-1.03113e-05 0.000109016 0)
(-2.74958e-05 0.000118971 0)
(-4.35312e-05 0.000134507 0)
(-5.80688e-05 0.000155086 0)
(-7.08473e-05 0.000180023 0)
(-8.16857e-05 0.00020862 0)
(-9.04394e-05 0.000240244 0)
(-9.69423e-05 0.000274344 0)
(-0.00010095 0.000310442 0)
(-0.0001021 0.000348082 0)
(-9.98931e-05 0.000386776 0)
(-9.37101e-05 0.000425905 0)
(-8.28953e-05 0.000464594 0)
(-6.6931e-05 0.000501601 0)
(-4.57618e-05 0.000535283 0)
(-2.02688e-05 0.000563764 0)
(7.2321e-06 0.000585357 0)
(3.28064e-05 0.000599268 0)
(5.14781e-05 0.000606313 0)
(5.85059e-05 0.000609065 0)
(5.03544e-05 0.000611068 0)
(2.43047e-05 0.000617888 0)
(-2.28523e-05 0.000630865 0)
(-9.22325e-05 0.00065584 0)
(-0.000179749 0.000702533 0)
(-0.000274463 0.000779038 0)
(-0.00036016 0.000882604 0)
(-0.000424235 0.00100319 0)
(-0.000462911 0.00112756 0)
(-0.000479556 0.00124659 0)
(-0.000479475 0.00135689 0)
(-0.000466878 0.00145769 0)
(-0.000444941 0.0015484 0)
(-0.00041648 0.00162904 0)
(-0.000383489 0.0016995 0)
(-0.000347424 0.00176017 0)
(-0.000309327 0.00181135 0)
(-0.000269977 0.00185333 0)
(-0.000229928 0.00188647 0)
(-0.00018952 0.0019111 0)
(-0.000148939 0.00192755 0)
(-0.000108245 0.00193606 0)
(-6.78472e-05 0.00193676 0)
(-2.80431e-05 0.00193026 0)
(1.1752e-05 0.00191707 0)
(5.17951e-05 0.00189709 0)
(9.20056e-05 0.00187047 0)
(0.0001325 0.0018372 0)
(0.000173267 0.00179735 0)
(0.000214333 0.00175093 0)
(0.000255675 0.00169794 0)
(0.000297215 0.0016384 0)
(0.000338844 0.0015723 0)
(0.000380399 0.00149965 0)
(0.000421626 0.00142045 0)
(0.0004622 0.00133475 0)
(0.000501731 0.00124258 0)
(0.000539739 0.001144 0)
(0.000575672 0.00103914 0)
(0.000608786 0.000927998 0)
(0.00063956 0.000812994 0)
(0.000674054 0.000701419 0)
(0.000704935 0.000583118 0)
(0.000730093 0.000457085 0)
(0.000746634 0.000323303 0)
(0.000751638 0.000183138 0)
(0.000742219 3.93556e-05 0)
(0.000716352 -0.000103853 0)
(0.000673865 -0.000241775 0)
(0.000615346 -0.000370028 0)
(0.000542253 -0.00048485 0)
(0.000457067 -0.000583826 0)
(0.000362382 -0.000666078 0)
(0.000260177 -0.000731376 0)
(0.000152503 -0.000780654 0)
(4.05168e-05 -0.000814529 0)
(-7.49259e-05 -0.000826318 0)
(-0.000189679 -0.0008155 0)
(-0.00030045 -0.000783143 0)
(-0.000405306 -0.000732156 0)
(-0.000503643 -0.000674874 0)
(-0.000605966 -0.000647158 0)
(-0.000731924 -0.000714095 0)
(-0.000904894 -0.000947717 0)
(5.51542e-07 -9.15097e-05 0)
(0.00012602 -0.000118768 0)
(0.000243443 -0.000112984 0)
(0.000306816 -3.78495e-05 0)
(0.000256483 6.33893e-05 0)
(0.000138745 0.000114129 0)
(1.34107e-05 0.000115659 0)
(-8.28992e-05 8.80249e-05 0)
(-0.000139392 4.95054e-05 0)
(-0.000160918 9.17809e-06 0)
(-0.000155995 -2.18981e-05 0)
(-0.000135008 -2.33935e-05 0)
(-0.000117955 1.83979e-06 0)
(-0.000119334 3.0467e-05 0)
(-0.000140721 5.25994e-05 0)
(-0.000179958 7.08695e-05 0)
(-0.000237369 9.01471e-05 0)
(-0.000317471 0.000112439 0)
(-0.000421931 0.000132337 0)
(-0.000544811 0.00014346 0)
(-0.000674751 0.000140729 0)
(-0.00079701 0.000125454 0)
(-0.000903842 0.000104217 0)
(-0.000991123 7.6176e-05 0)
(-0.00105336 4.15959e-05 0)
(-0.00108753 5.24153e-06 0)
(-0.00109375 -3.26614e-05 0)
(-0.00106711 -7.87577e-05 0)
(-0.000999992 -0.000133034 0)
(-0.000886612 -0.000190749 0)
(-0.000727369 -0.000246546 0)
(-0.000521562 -0.000300373 0)
(-0.000269578 -0.000338489 0)
(5.58348e-06 -0.00033484 0)
(0.000279099 -0.000307273 0)
(0.000558807 -0.000244814 0)
(0.000780071 -9.15305e-05 0)
(0.000825477 4.82177e-05 0)
(0.000779483 7.70242e-05 0)
(0.000752128 6.92723e-05 0)
(0.000734994 9.35147e-05 0)
(0.000695048 0.000141656 0)
(0.000655576 0.000164976 0)
(0.000653209 0.000128482 0)
(0.000713068 3.02816e-05 0)
(0.000845774 -0.000121616 0)
(0.00106617 -0.000290978 0)
(0.00136107 -0.000402793 0)
(0.00166655 -0.000406214 0)
(0.0019177 -0.000340732 0)
(0.00211283 -0.000285394 0)
(0.00229079 -0.000266045 0)
(0.00247362 -0.000265729 0)
(0.0026643 -0.000275101 0)
(0.00286745 -0.000293839 0)
(0.00308785 -0.000314843 0)
(0.00332133 -0.000322961 0)
(0.00354888 -0.000296414 0)
(0.00373721 -0.000210697 0)
(0.00382111 -5.35304e-05 0)
(0.00372357 0.000146235 0)
(0.00343592 0.00033561 0)
(0.0030091 0.000474533 0)
(0.00251444 0.000547681 0)
(0.002009 0.000576389 0)
(0.00150473 0.000594293 0)
(0.000991439 0.000615595 0)
(0.000461386 0.000638604 0)
(-8.542e-05 0.00065708 0)
(-0.000641972 0.000663335 0)
(-0.00119591 0.000659107 0)
(-0.00174024 0.000650954 0)
(-0.00227652 0.00064208 0)
(-0.00280816 0.000630493 0)
(-0.00333503 0.000604874 0)
(-0.00384189 0.000552741 0)
(-0.00430827 0.00046275 0)
(-0.00469529 0.000324064 0)
(-0.00496598 0.000135009 0)
(-0.00507068 -0.000102852 0)
(-0.00493865 -0.000360929 0)
(-0.0046109 -0.00057233 0)
(-0.00411921 -0.000686907 0)
(-0.00357211 -0.000705644 0)
(-0.00304641 -0.000665891 0)
(-0.00256679 -0.000613781 0)
(-0.00212439 -0.000571807 0)
(-0.0017064 -0.000543625 0)
(-0.00130776 -0.000515067 0)
(-0.000946325 -0.000501212 0)
(-0.000557947 -0.000544987 0)
(-8.12194e-05 -0.000469744 0)
(0.000290618 -0.000163613 0)
(0.000455805 7.35749e-05 0)
(0.000507119 0.000156766 0)
(0.00048624 0.00018382 0)
(0.000356431 0.000175651 0)
(0.000249216 0.000177259 0)
(0.000136766 0.000169 0)
(-8.24208e-06 0.000148329 0)
(0.000121648 8.72853e-05 0)
(3.36502e-05 0.000225206 0)
(-7.80851e-05 0.000164115 0)
(-0.000157507 -4.49185e-05 0)
(-0.000183293 -0.000327171 0)
(-0.000159026 -0.000600511 0)
(-0.00010127 -0.0008204 0)
(-2.1881e-05 -0.00095597 0)
(7.06273e-05 -0.000989711 0)
(0.0001573 -0.00091038 0)
(0.000217724 -0.000728797 0)
(0.000232749 -0.000475996 0)
(0.000188977 -0.000202458 0)
(0.000100015 3.20263e-05 0)
(1.03426e-05 0.000191222 0)
(-3.71488e-05 0.000273009 0)
(-2.97942e-05 0.000301242 0)
(1.08397e-05 0.000312425 0)
(5.76078e-05 0.000370638 0)
(0.000112339 0.000490732 0)
(0.000168708 0.000656087 0)
(0.000188007 0.000837272 0)
(0.000147774 0.000989056 0)
(6.73715e-05 0.00106 0)
(-2.32817e-05 0.00103249 0)
(-0.000103909 0.000921342 0)
(-0.000158224 0.000741564 0)
(-0.000165198 0.000531036 0)
(-0.000109418 0.00035956 0)
(-3.47773e-05 0.000286743 0)
(1.30662e-05 0.000298214 0)
(2.97194e-05 0.000339139 0)
(1.94802e-05 0.000374874 0)
(-1.13965e-05 0.000384643 0)
(-4.92823e-05 0.000356914 0)
(-7.94902e-05 0.000293354 0)
(-9.88529e-05 0.000211051 0)
(-0.0001135 0.000113015 0)
(-0.000107745 -1.85056e-05 0)
(-2.55194e-05 -0.000157324 0)
(7.78379e-05 -0.00023112 0)
(7.14564e-05 -0.000284237 0)
(3.23846e-05 -0.000334751 0)
(-7.39531e-05 -0.000323176 0)
(-0.000284961 -0.00031476 0)
(-0.000469811 -0.000378587 0)
(-0.000535425 -0.000483233 0)
(-0.000457675 -0.000563428 0)
(-0.000242291 -0.000561866 0)
(4.9364e-05 -0.000471046 0)
(0.000376625 -0.000193856 0)
(0.000506213 0.000214532 0)
(0.00044163 0.000527724 0)
(0.000407372 0.000759097 0)
(0.000372851 0.000983308 0)
(0.000337163 0.00117912 0)
(0.000309073 0.00135682 0)
(0.000282658 0.00151805 0)
(0.000259762 0.00166371 0)
(0.000237699 0.00179567 0)
(0.00021736 0.0019132 0)
(0.000198133 0.00201856 0)
(0.000180267 0.00211181 0)
(0.000163696 0.00219459 0)
(0.000148418 0.00226751 0)
(0.000134404 0.00233172 0)
(0.00012155 0.00238794 0)
(0.000109771 0.002437 0)
(9.89228e-05 0.00247956 0)
(8.88876e-05 0.0025162 0)
(7.95249e-05 0.00254746 0)
(7.07435e-05 0.00257375 0)
(6.2481e-05 0.00259547 0)
(5.47016e-05 0.00261298 0)
(4.74037e-05 0.0026266 0)
(4.06146e-05 0.00263668 0)
(3.42655e-05 0.00264358 0)
(2.83269e-05 0.00264756 0)
(2.27537e-05 0.00264886 0)
(1.7606e-05 0.00264766 0)
(1.28122e-05 0.00264441 0)
(8.28318e-06 0.00263915 0)
(4.0237e-06 0.00263215 0)
(-3.23508e-08 0.00262355 0)
(-3.87867e-06 0.00261349 0)
(-7.55192e-06 0.00260214 0)
(-1.10796e-05 0.00258962 0)
(-1.44753e-05 0.00257605 0)
(-1.77528e-05 0.00256153 0)
(-2.0921e-05 0.00254618 0)
(-2.39734e-05 0.00253008 0)
(-2.68949e-05 0.00251336 0)
(-2.96824e-05 0.00249612 0)
(-3.23259e-05 0.00247845 0)
(-3.48322e-05 0.0024605 0)
(-3.72324e-05 0.00244235 0)
(-3.95278e-05 0.00242409 0)
(-4.17214e-05 0.00240581 0)
(-4.38207e-05 0.0023876 0)
(-4.58269e-05 0.00236956 0)
(-4.77489e-05 0.00235175 0)
(-4.95904e-05 0.00233427 0)
(-5.13751e-05 0.00231721 0)
(-5.31125e-05 0.00230081 0)
(-5.48165e-05 0.002285 0)
(-5.6522e-05 0.00226983 0)
(-5.82756e-05 0.00225538 0)
(-6.01545e-05 0.00224169 0)
(-6.22183e-05 0.00222876 0)
(-6.45075e-05 0.0022166 0)
(-6.70792e-05 0.00220524 0)
(-7.00494e-05 0.0021947 0)
(-7.35562e-05 0.00218495 0)
(-7.77662e-05 0.00217596 0)
(-8.28925e-05 0.0021677 0)
(-8.91704e-05 0.00216008 0)
(-9.68297e-05 0.00215303 0)
(-0.000106114 0.00214643 0)
(-0.000117199 0.00214015 0)
(-0.000130181 0.00213409 0)
(-0.000145095 0.00212808 0)
(-0.000161886 0.00212184 0)
(-0.000180472 0.00211493 0)
(-0.000200734 0.00210656 0)
(-0.000222038 0.00209538 0)
(-0.00024217 0.00208054 0)
(-0.000255428 0.00206024 0)
(-0.000252243 0.0020376 0)
(-0.000221928 0.00202316 0)
(-0.000158229 0.00203342 0)
(-6.33751e-05 0.0020844 0)
(5.53854e-05 0.00218198 0)
(0.000196893 0.00231974 0)
(0.000373148 0.00248473 0)
(0.000609017 0.00266427 0)
(0.000936913 0.00286588 0)
(0.0013722 0.00316043 0)
(0.00185771 0.00365231 0)
(0.00224218 0.00432971 0)
(0.00243805 0.00507445 0)
(0.0024909 0.0057628 0)
(0.00248436 0.0063884 0)
(0.00244435 0.00699177 0)
(0.00236659 0.00757726 0)
(0.00225358 0.00812329 0)
(0.00211935 0.00861459 0)
(0.00197801 0.00905662 0)
(0.00182652 0.00946013 0)
(0.00166413 0.00981252 0)
(0.00150501 0.0101102 0)
(0.00134941 0.0103738 0)
(0.00118954 0.0106003 0)
(0.00103259 0.0107818 0)
(0.000883087 0.0109296 0)
(0.000735866 0.0110481 0)
(0.000591811 0.0111344 0)
(0.000454101 0.0111911 0)
(0.000321018 0.0112215 0)
(0.000190269 0.0112249 0)
(6.2468e-05 0.0112018 0)
(-5.90079e-05 0.0111573 0)
(-0.00017209 0.0111314 0)
(-0.000281034 0.0111006 0)
(-0.000389966 0.0110537 0)
(-0.000496633 0.0109903 0)
(-0.00060192 0.0109121 0)
(-0.000706552 0.0108187 0)
(-0.000810231 0.0107109 0)
(-0.00091376 0.0105893 0)
(-0.00101738 0.0104541 0)
(-0.00112133 0.0103058 0)
(-0.00122606 0.0101447 0)
(-0.00133191 0.00997123 0)
(-0.00143917 0.00978568 0)
(-0.00154823 0.00958835 0)
(-0.00165945 0.00937953 0)
(-0.00177324 0.00915947 0)
(-0.00189002 0.0089284 0)
(-0.00201024 0.00868653 0)
(-0.00213441 0.00843402 0)
(-0.00226306 0.00817097 0)
(-0.00239675 0.00789753 0)
(-0.00253611 0.0076138 0)
(-0.00268191 0.00731982 0)
(-0.00283496 0.00701564 0)
(-0.00299612 0.00670119 0)
(-0.00316615 0.00637652 0)
(-0.00334594 0.00604176 0)
(-0.00353715 0.00569695 0)
(-0.00374247 0.00534167 0)
(-0.00397253 0.00498532 0)
(-0.00434878 0.00475997 0)
(-0.00478886 0.00453181 0)
(-0.00529871 0.00428674 0)
(-0.00587559 0.00400909 0)
(-0.00650572 0.00368531 0)
(-0.00716084 0.00331295 0)
(-0.00784205 0.00294786 0)
(-0.00859789 0.0027923 0)
(-0.00882385 0.00389514 0)
)
;
    }
    frontAndBack
    {
        type            empty;
    }
}


// ************************************************************************* //
