/*--------------------------------*- C++ -*----------------------------------*\
  =========                 |
  \\      /  F ield         | OpenFOAM: The Open Source CFD Toolbox
   \\    /   O peration     | Website:  https://openfoam.org
    \\  /    A nd           | Version:  7
     \\/     M anipulation  |
\*---------------------------------------------------------------------------*/
FoamFile
{
    version     2.0;
    format      ascii;
    class       volScalarField;
    location    "0.29";
    object      yPlus;
}
// * * * * * * * * * * * * * * * * * * * * * * * * * * * * * * * * * * * * * //

dimensions      [0 0 0 0 0 0 0];

internalField   uniform 0;

boundaryField
{
    velocityInlet
    {
        type            calculated;
        value           uniform 0;
    }
    pressureOutlet
    {
        type            calculated;
        value           uniform 0;
    }
    fixedWalls
    {
        type            calculated;
        value           nonuniform List<scalar> 
100
(
2.33882
1.97397
1.69183
1.47929
1.3823
1.33729
1.30545
1.27805
1.25268
1.22605
1.19556
1.16098
1.12443
1.08904
1.05786
1.03332
1.01705
1.01013
1.01413
1.03128
1.0612
1.10015
1.1484
1.2118
1.28761
1.36482
1.44127
1.51037
1.53593
1.46037
1.20323
0.612141
0.867578
1.25226
1.38724
1.34604
1.16341
0.852741
0.316462
0.66286
0.920556
1.0668
1.15449
1.20378
1.22177
1.20779
1.15531
1.05187
0.871163
0.54892
0.475877
0.861253
1.08685
1.21843
1.26748
1.23517
1.1175
0.901969
0.542443
0.474162
0.819079
1.01235
1.15279
1.27546
1.36413
1.36268
1.20051
0.745911
0.7408
1.16564
1.25337
1.08766
0.710469
0.383887
0.781724
0.932445
0.986584
0.992549
0.975189
0.948117
0.919109
0.892464
0.870456
0.853814
0.842072
0.83337
0.82538
0.815976
0.8049
0.793848
0.785276
0.783973
0.787264
0.803905
0.811666
0.842227
0.814216
0.821705
0.662847
0.5567
)
;
    }
    bottomWall
    {
        type            calculated;
        value           nonuniform List<scalar> 
800
(
2.94479
1.9839
1.61343
1.44032
1.35519
1.29657
1.24765
1.20656
1.17205
1.14253
1.11677
1.09398
1.07363
1.05528
1.03864
1.02344
1.00948
0.996616
0.984697
0.973618
0.963285
0.953619
0.944552
0.936027
0.927993
0.920405
0.913224
0.906418
0.899954
0.893808
0.887954
0.88237
0.87704
0.871942
0.867064
0.862389
0.857906
0.853602
0.849467
0.845489
0.841662
0.837976
0.834424
0.830998
0.827691
0.824498
0.821411
0.818429
0.815541
0.81275
0.810408
0.808469
0.806549
0.804655
0.802786
0.800939
0.799115
0.797314
0.795535
0.793776
0.792038
0.790321
0.788625
0.786947
0.785289
0.78365
0.782029
0.780426
0.778841
0.777274
0.775723
0.77419
0.772674
0.771173
0.769689
0.76822
0.766766
0.765329
0.763905
0.762496
0.761102
0.759722
0.758356
0.757004
0.755665
0.75434
0.753026
0.751727
0.750439
0.749164
0.747902
0.746651
0.745412
0.744185
0.74297
0.741765
0.740572
0.73939
0.738218
0.737057
0.735907
0.734767
0.733637
0.732518
0.731408
0.730309
0.729218
0.728138
0.727067
0.726005
0.724953
0.72391
0.722875
0.721849
0.720832
0.719824
0.718823
0.717832
0.716849
0.715873
0.714907
0.713948
0.712996
0.712053
0.711117
0.710188
0.709268
0.708354
0.707448
0.706549
0.705657
0.704772
0.703894
0.703023
0.702158
0.7013
0.700448
0.699604
0.698766
0.697934
0.697107
0.696288
0.695474
0.694666
0.693864
0.693069
0.692279
0.691494
0.690716
0.689943
0.689295
0.688764
0.688232
0.687698
0.687164
0.686629
0.686093
0.685555
0.685017
0.684477
0.683936
0.683395
0.682852
0.682308
0.681763
0.681217
0.680671
0.680123
0.679575
0.679025
0.678474
0.677922
0.67737
0.676816
0.676261
0.675705
0.675149
0.674591
0.674032
0.673473
0.672912
0.672351
0.671788
0.671225
0.67066
0.670094
0.669527
0.66896
0.668392
0.667822
0.667252
0.66668
0.666108
0.665534
0.664959
0.664383
0.663806
0.663229
0.66265
0.66207
0.661489
0.660907
0.660324
0.65974
0.659155
0.658567
0.657981
0.657391
0.656802
0.656211
0.655619
0.655025
0.654429
0.653833
0.653236
0.652638
0.652037
0.651435
0.650833
0.650228
0.649622
0.649014
0.648405
0.647795
0.647181
0.646567
0.645951
0.645333
0.644713
0.644091
0.643466
0.642838
0.642212
0.641577
0.640948
0.640305
0.639676
0.639017
0.638397
0.637712
0.637114
0.636378
0.635835
0.635004
0.634573
0.633572
0.633338
0.632075
0.632132
0.630523
2.94479
1.98391
1.61345
1.44036
1.35523
1.29659
1.24761
1.20644
1.17182
1.14215
1.11623
1.09326
1.07271
1.05416
1.03731
1.02189
1.00772
0.994625
0.982483
0.971181
0.960624
0.950737
0.94145
0.932708
0.924462
0.916673
0.909303
0.902324
0.89571
0.889442
0.883505
0.877884
0.872576
0.867571
0.862876
0.858489
0.854423
0.85069
0.847294
0.844286
0.841592
0.839425
0.837311
0.836242
0.833835
0.834764
0.828401
0.834219
0.812042
0.801692
0.825028
1.45235
1.73523
2.01449
2.01604
1.65525
1.71164
3.11441
3.98611
4.59007
4.94438
5.09825
5.0881
4.94425
4.70027
4.3745
3.99282
3.56891
3.1115
2.61571
2.06393
1.40395
0.923743
1.58066
2.09388
2.49601
2.83904
3.14948
3.44363
3.72739
4.0026
4.269
4.52411
4.76422
4.98541
5.18396
5.35676
5.50171
5.61746
5.7033
5.76022
5.78965
5.7908
5.76672
5.72101
5.65724
5.57985
5.49317
5.40071
5.30505
5.20778
5.10943
5.0096
4.90716
4.80043
4.68739
4.56577
4.43331
4.28774
4.12691
3.94917
3.75315
3.53736
3.29898
3.03719
2.74896
2.42765
2.08716
1.7398
1.49165
1.54706
1.89163
2.17918
2.38193
2.50743
2.52827
2.47148
2.33997
2.13798
1.88911
1.73417
1.824
1.97053
2.02228
1.98882
1.92214
1.85859
1.81618
1.81731
1.86434
1.93682
2.01655
2.0933
2.1692
2.2427
2.30479
2.34809
2.36788
2.36057
2.32963
2.28137
2.22294
2.15702
2.08229
1.99775
1.90354
1.80189
1.69625
1.58958
1.48425
1.38273
1.28837
1.20561
1.14
1.09768
1.08652
1.10512
1.14961
1.21528
1.29618
1.38675
1.48267
1.58085
1.67909
1.77579
1.8697
1.95977
2.04494
2.12408
2.19588
2.25897
2.31229
2.35573
2.39091
2.42162
2.45366
2.49417
2.55426
2.63343
2.7336
2.85756
3.00351
3.15824
3.3119
3.45804
3.59363
3.71742
3.82899
3.92834
4.01619
4.09257
4.15792
4.21276
4.2575
4.29258
4.31837
4.33517
4.34317
4.34256
4.33396
4.31779
4.29379
4.26202
4.22237
4.17474
4.11898
4.0549
3.98225
3.90076
3.81009
3.70989
3.59976
3.47931
3.34809
3.20564
3.0515
2.88917
2.73231
2.56442
2.38641
2.20417
2.03349
1.90519
1.85603
1.89484
1.99098
2.10527
2.21326
2.30458
2.37676
2.43311
2.47603
2.49595
2.49315
2.47006
2.42779
2.36906
2.30366
2.26676
2.37169
0.730199
1.52941
1.98828
2.14137
1.94461
1.50343
0.96157
1.17951
1.45024
1.55306
1.57027
1.51966
1.44938
1.45264
1.56081
1.75321
2.00686
2.31188
2.65012
2.99368
3.31614
3.59549
3.82413
3.99957
4.12078
4.18727
4.19701
4.14069
4.00563
3.77454
3.42856
2.93925
2.27513
1.65664
2.20791
2.93228
3.43732
3.61126
3.57111
3.50138
3.4287
3.33377
3.28402
3.33592
3.52476
3.8533
4.29887
4.7834
5.21896
5.57016
5.8555
6.11014
6.35534
6.59955
6.8491
7.10565
7.36064
7.59165
7.76812
7.83587
7.72744
7.42836
6.96934
6.39416
5.73565
4.98408
4.09126
2.98996
2.31989
3.42159
4.4886
5.36516
6.11498
6.77719
7.3715
7.89716
8.34718
8.6987
8.93391
9.02157
8.90978
8.63133
8.18858
7.6534
7.08528
6.5108
5.92702
5.32224
4.67534
3.98717
3.21433
2.14942
1.73333
2.61057
2.90822
2.87075
2.46698
2.09908
1.66843
0.968978
1.09482
1.44163
1.22214
0.944363
1.8365
2.44072
2.83994
3.06145
3.11704
2.99983
2.70603
2.23045
1.54552
0.555859
1.32563
1.65664
1.76677
1.80114
1.95926
2.25622
2.59759
2.90424
3.12797
3.22364
3.17777
3.00659
2.71256
2.32757
1.94714
1.7388
1.75068
1.84526
1.92241
1.93707
1.86575
1.69941
1.45631
1.12343
0.677024
1.08327
1.50951
1.75822
1.94524
2.01635
2.14207
2.35541
2.49745
2.47521
2.23873
1.83772
1.39986
1.89621
2.38762
2.79661
3.14884
3.43699
3.68327
3.89379
4.07523
4.23291
4.36897
4.48754
4.59013
4.67941
4.75681
4.82399
4.88213
4.93232
4.97546
5.01231
5.04352
5.06963
5.09112
5.1084
5.12186
5.13183
5.13869
5.1427
5.1441
5.14305
5.14001
5.13497
5.12823
5.11991
5.11013
5.09906
5.0868
5.07346
5.05916
5.04399
5.02804
5.01142
4.99423
4.97655
4.95852
4.94021
4.92171
4.90313
4.88454
4.86604
4.84771
4.82965
4.81193
4.79484
4.77827
4.76228
4.74695
4.73231
4.7184
4.70522
4.69277
4.68105
4.66999
4.65954
4.64961
4.64007
4.63083
4.62177
4.61282
4.60396
4.59522
4.58661
4.57805
4.56918
4.55913
4.54771
4.53406
4.523
4.52643
4.56058
4.64025
4.77121
4.94991
5.17161
5.4365
5.74872
6.11872
6.53844
6.95007
7.33818
7.70635
8.05891
8.39127
8.69891
8.97941
9.23264
9.45809
9.65663
9.82971
9.97814
10.105
10.212
10.3004
10.3722
10.4282
10.47
10.4985
10.514
10.5169
10.5075
10.4878
10.4771
10.4639
10.4425
10.4133
10.3765
10.3321
10.2804
10.2215
10.1554
10.0823
10.0022
9.91516
9.82114
9.72015
9.61215
9.49706
9.3748
9.24526
9.1083
8.96378
8.81151
8.65138
8.48321
8.3069
8.12238
7.92977
7.72947
7.52231
7.30937
7.10099
6.99842
6.91415
6.84977
6.80896
6.79441
6.81148
6.88982
7.06905
7.34358
)
;
    }
    frontAndBack
    {
        type            empty;
    }
}


// ************************************************************************* //
