/*--------------------------------*- C++ -*----------------------------------*\
  =========                 |
  \\      /  F ield         | OpenFOAM: The Open Source CFD Toolbox
   \\    /   O peration     | Website:  https://openfoam.org
    \\  /    A nd           | Version:  7
     \\/     M anipulation  |
\*---------------------------------------------------------------------------*/
FoamFile
{
    version     2.0;
    format      ascii;
    class       surfaceScalarField;
    location    "0.07";
    object      ddtCorrDdt0(phi);
}
// * * * * * * * * * * * * * * * * * * * * * * * * * * * * * * * * * * * * * //

dimensions      [0 3 -2 0 0 0 0];

internalField   nonuniform List<scalar> 
139350
(
1.52687e-09
-1.53015e-09
4.13646e-09
-2.61747e-09
7.23996e-09
-3.11159e-09
1.04266e-08
-3.19406e-09
1.35512e-08
-3.13181e-09
1.65163e-08
-2.97189e-09
1.92189e-08
-2.70949e-09
2.16102e-08
-2.39852e-09
2.36936e-08
-2.09036e-09
2.55006e-08
-1.81485e-09
2.70834e-08
-1.58975e-09
2.85007e-08
-1.4245e-09
2.98137e-08
-1.31948e-09
3.10795e-08
-1.27204e-09
3.23497e-08
-1.27666e-09
3.36701e-08
-1.32687e-09
3.50802e-08
-1.41717e-09
3.66142e-08
-1.54154e-09
3.83041e-08
-1.69732e-09
4.01775e-08
-1.88121e-09
4.22626e-08
-2.09224e-09
4.4586e-08
-2.33039e-09
4.71749e-08
-2.596e-09
5.00573e-08
-2.88954e-09
5.32645e-08
-3.2148e-09
5.68295e-08
-3.57368e-09
6.0793e-08
-3.97183e-09
6.51985e-08
-4.41484e-09
7.01001e-08
-4.91028e-09
7.55593e-08
-5.46787e-09
8.16484e-08
-6.0982e-09
8.84574e-08
-6.81758e-09
9.60868e-08
-7.63959e-09
1.04667e-07
-8.58988e-09
1.14335e-07
-9.67845e-09
1.25289e-07
-1.09643e-08
1.37701e-07
-1.24223e-08
1.5189e-07
-1.41985e-08
1.68036e-07
-1.61556e-08
1.86693e-07
-1.86644e-08
2.07963e-07
-2.1281e-08
2.32847e-07
-2.48919e-08
2.61225e-07
-2.83907e-08
2.94876e-07
-3.36589e-08
3.33231e-07
-3.83683e-08
3.79593e-07
-4.63704e-08
4.31933e-07
-5.23549e-08
5.00632e-07
-6.87093e-08
5.57038e-07
-5.64166e-08
-3.95304e-07
9.52336e-07
2.21502e-09
-3.74914e-09
7.6245e-09
-8.03551e-09
1.49733e-08
-1.04691e-08
2.27726e-08
-1.10014e-08
3.03816e-08
-1.07486e-08
3.74871e-08
-1.00848e-08
4.3755e-08
-8.98482e-09
4.89834e-08
-7.63481e-09
5.31544e-08
-6.269e-09
5.63655e-08
-5.03436e-09
5.87766e-08
-4.00839e-09
6.05714e-08
-3.22712e-09
6.19373e-08
-2.69237e-09
6.30481e-08
-2.3896e-09
6.40576e-08
-2.29319e-09
6.50978e-08
-2.37412e-09
6.62806e-08
-2.6076e-09
6.77009e-08
-2.97009e-09
6.94428e-08
-3.44721e-09
7.15788e-08
-4.02564e-09
7.41769e-08
-4.69803e-09
7.72993e-08
-5.4604e-09
8.10063e-08
-6.31066e-09
8.53569e-08
-7.24804e-09
9.04152e-08
-8.28131e-09
9.62495e-08
-9.41751e-09
1.02942e-07
-1.06728e-08
1.10584e-07
-1.20672e-08
1.19289e-07
-1.36253e-08
1.29193e-07
-1.53807e-08
1.40455e-07
-1.73701e-08
1.53276e-07
-1.96481e-08
1.67889e-07
-2.22636e-08
1.8459e-07
-2.53009e-08
2.03713e-07
-2.88133e-08
2.25704e-07
-3.29665e-08
2.51031e-07
-3.776e-08
2.80379e-07
-4.35561e-08
3.1436e-07
-5.01476e-08
3.54103e-07
-5.8416e-08
4.0028e-07
-6.74693e-08
4.54928e-07
-7.9548e-08
5.184e-07
-9.18772e-08
5.94814e-07
-1.1008e-07
6.82862e-07
-1.26431e-07
7.92256e-07
-1.55774e-07
9.14871e-07
-1.74986e-07
1.0821e-06
-2.3595e-07
1.25282e-06
-2.27145e-07
-7.14423e-07
1.57193e-06
1.74692e-09
-5.50058e-09
7.61281e-09
-1.39105e-08
1.69419e-08
-1.98075e-08
2.78302e-08
-2.18981e-08
3.88389e-08
-2.17656e-08
4.91852e-08
-2.04389e-08
5.82527e-08
-1.80603e-08
6.56131e-08
-1.50036e-08
7.11268e-08
-1.17907e-08
7.48829e-08
-8.79952e-09
7.71084e-08
-6.24181e-09
7.80928e-08
-4.21971e-09
7.8145e-08
-2.75205e-09
7.75596e-08
-1.81138e-09
7.66001e-08
-1.34117e-09
7.54931e-08
-1.27462e-09
7.44298e-08
-1.55249e-09
7.35717e-08
-2.12075e-09
7.30581e-08
-2.94208e-09
7.30075e-08
-3.98397e-09
7.35256e-08
-5.22422e-09
7.47045e-08
-6.64735e-09
7.6628e-08
-8.24235e-09
7.9374e-08
-1.00024e-08
8.30218e-08
-1.19379e-08
8.76549e-08
-1.40607e-08
9.33711e-08
-1.63985e-08
1.00283e-07
-1.899e-08
1.0853e-07
-2.1882e-08
1.18281e-07
-2.5141e-08
1.29739e-07
-2.88388e-08
1.43163e-07
-3.30825e-08
1.58859e-07
-3.79711e-08
1.77215e-07
-4.36675e-08
1.98686e-07
-5.0297e-08
2.23859e-07
-5.81504e-08
2.53404e-07
-6.73168e-08
2.88211e-07
-7.83731e-08
3.29233e-07
-9.11811e-08
3.77906e-07
-1.07098e-07
4.3542e-07
-1.24995e-07
5.04398e-07
-1.48535e-07
5.85728e-07
-1.73221e-07
6.8511e-07
-2.09472e-07
8.00813e-07
-2.4215e-07
9.47372e-07
-3.02342e-07
1.11291e-06
-3.40539e-07
1.33893e-06
-4.61982e-07
1.598e-06
-4.86222e-07
-1.05291e-06
1.93648e-06
1.12566e-09
-6.63118e-09
5.98938e-09
-1.87838e-08
1.50297e-08
-2.88575e-08
2.69756e-08
-3.38529e-08
4.00788e-08
-3.48774e-08
5.29836e-08
-3.33519e-08
6.46279e-08
-2.97129e-08
7.423e-08
-2.46146e-08
8.13829e-08
-1.89521e-08
8.6022e-08
-1.3448e-08
8.83268e-08
-8.55498e-09
8.86175e-08
-4.51899e-09
8.72826e-08
-1.42488e-09
8.47204e-08
7.43379e-10
8.13041e-08
2.06733e-09
7.73642e-08
2.65731e-09
7.31846e-08
2.61861e-09
6.90064e-08
2.04826e-09
6.50369e-08
1.01857e-09
6.14516e-08
-4.07932e-10
5.84028e-08
-2.18395e-09
5.60198e-08
-4.2727e-09
5.44139e-08
-6.6449e-09
5.36824e-08
-9.27963e-09
5.39171e-08
-1.21817e-08
5.52094e-08
-1.53635e-08
5.7662e-08
-1.88611e-08
6.13926e-08
-2.27317e-08
6.65456e-08
-2.70453e-08
7.32995e-08
-3.19051e-08
8.18722e-08
-3.74224e-08
9.25432e-08
-4.37637e-08
1.05648e-07
-5.10882e-08
1.21614e-07
-5.9645e-08
1.40958e-07
-6.9654e-08
1.64329e-07
-8.15333e-08
1.92515e-07
-9.55141e-08
2.26502e-07
-1.12371e-07
2.67452e-07
-1.32142e-07
3.16963e-07
-1.56619e-07
3.76555e-07
-1.846e-07
4.49197e-07
-2.21186e-07
5.36164e-07
-2.60203e-07
6.44036e-07
-3.17353e-07
7.71351e-07
-3.69481e-07
9.34339e-07
-4.6534e-07
1.12294e-06
-5.29158e-07
1.37506e-06
-7.14112e-07
1.68691e-06
-7.98082e-07
-1.42503e-06
2.05902e-06
8.07674e-10
-7.44411e-09
4.37855e-09
-2.23646e-08
1.17962e-08
-3.62851e-08
2.28339e-08
-4.48998e-08
3.62211e-08
-4.82735e-08
5.049e-08
-4.76293e-08
6.42386e-08
-4.34701e-08
7.62718e-08
-3.66571e-08
8.57731e-08
-2.84621e-08
9.23427e-08
-2.00273e-08
9.59333e-08
-1.21542e-08
9.67466e-08
-5.34103e-09
9.51421e-08
1.7151e-10
9.15544e-08
4.32343e-09
8.64318e-08
7.18184e-09
8.01984e-08
8.88257e-09
7.32339e-08
9.57427e-09
6.58701e-08
9.40251e-09
5.83961e-08
8.48356e-09
5.10591e-08
6.91945e-09
4.40741e-08
4.79228e-09
3.76231e-08
2.16973e-09
3.18602e-08
-8.90748e-10
2.6916e-08
-4.34444e-09
2.29054e-08
-8.18056e-09
1.99348e-08
-1.24037e-08
1.8115e-08
-1.70515e-08
1.75666e-08
-2.21946e-08
1.84342e-08
-2.79235e-08
2.08955e-08
-3.43769e-08
2.51687e-08
-4.17067e-08
3.1534e-08
-5.01397e-08
4.0335e-08
-5.99017e-08
5.20058e-08
-7.13277e-08
6.70877e-08
-8.47491e-08
8.62457e-08
-1.00703e-07
1.10323e-07
-1.19603e-07
1.40337e-07
-1.42396e-07
1.77559e-07
-1.69375e-07
2.23646e-07
-2.02716e-07
2.80317e-07
-2.41283e-07
3.50648e-07
-2.91528e-07
4.36312e-07
-3.45881e-07
5.43914e-07
-4.24964e-07
6.73296e-07
-4.98879e-07
8.39108e-07
-6.31162e-07
1.03774e-06
-7.27803e-07
1.29591e-06
-9.72302e-07
1.63191e-06
-1.13409e-06
-1.81174e-06
2.01861e-06
7.74231e-10
-8.22385e-09
3.48824e-09
-2.50889e-08
9.15279e-09
-4.196e-08
1.82634e-08
-5.40199e-08
3.0357e-08
-6.03762e-08
4.44121e-08
-6.16932e-08
5.91286e-08
-5.81954e-08
7.31347e-08
-5.06725e-08
8.52547e-08
-4.05912e-08
9.46683e-08
-2.94509e-08
1.00942e-07
-1.84365e-08
1.03976e-07
-8.38435e-09
1.03934e-07
2.04851e-10
1.01153e-07
7.09685e-09
9.60617e-08
1.22649e-08
8.91203e-08
1.58155e-08
8.07758e-08
1.79098e-08
7.14396e-08
1.87289e-08
6.14826e-08
1.84313e-08
5.1231e-08
1.71613e-08
4.09735e-08
1.50409e-08
3.09601e-08
1.21743e-08
2.14065e-08
8.65395e-09
1.24966e-08
4.55623e-09
4.38888e-09
-8.24941e-11
-2.7769e-09
-5.249e-09
-8.86665e-09
-1.09722e-08
-1.37454e-08
-1.73274e-08
-1.72614e-08
-2.44184e-08
-1.92351e-08
-3.24137e-08
-1.94493e-08
-4.1504e-08
-1.76281e-08
-5.19716e-08
-1.34287e-08
-6.41138e-08
-6.42306e-09
-7.83454e-08
3.93623e-09
-9.51219e-08
1.83075e-08
-1.15087e-07
3.75551e-08
-1.38863e-07
6.26913e-08
-1.67543e-07
9.50379e-08
-2.01734e-07
1.3624e-07
-2.43927e-07
1.88151e-07
-2.93207e-07
2.53746e-07
-3.57132e-07
3.35189e-07
-4.2734e-07
4.38368e-07
-5.28152e-07
5.65232e-07
-6.2576e-07
7.26851e-07
-7.92791e-07
9.27439e-07
-9.28408e-07
1.18194e-06
-1.22681e-06
1.52373e-06
-1.47589e-06
-2.19844e-06
1.91043e-06
8.49721e-10
-9.07926e-09
3.25324e-09
-2.75029e-08
7.76714e-09
-4.64844e-08
1.50382e-08
-6.13006e-08
2.51968e-08
-7.05442e-08
3.78592e-08
-7.43646e-08
5.22073e-08
-7.25527e-08
6.70875e-08
-6.55624e-08
8.12561e-08
-5.4769e-08
9.36124e-08
-4.18173e-08
1.03338e-07
-2.8171e-08
1.09937e-07
-1.4993e-08
1.1323e-07
-3.09672e-09
1.13297e-07
7.02217e-09
1.10406e-07
1.51474e-08
1.04942e-07
2.12708e-08
9.73407e-08
2.5502e-08
8.80426e-08
2.80172e-08
7.74696e-08
2.89948e-08
6.601e-08
2.8611e-08
5.4019e-08
2.70228e-08
4.1816e-08
2.43684e-08
2.96864e-08
2.07745e-08
1.78827e-08
1.63505e-08
6.62686e-09
1.11636e-08
-3.8859e-09
5.25254e-09
-1.3476e-08
-1.39269e-09
-2.19743e-08
-8.84079e-09
-2.92048e-08
-1.71988e-08
-3.49747e-08
-2.66546e-08
-3.90585e-08
-3.74317e-08
-4.11809e-08
-4.98602e-08
-4.09985e-08
-6.4309e-08
-3.80913e-08
-8.12648e-08
-3.19122e-08
-1.01315e-07
-2.18166e-08
-1.25194e-07
-6.93658e-09
-1.53756e-07
1.37184e-08
-1.88208e-07
4.14892e-08
-2.29516e-07
7.79638e-08
-2.80412e-07
1.25103e-07
-3.40359e-07
1.85636e-07
-4.17675e-07
2.62262e-07
-5.03981e-07
3.59791e-07
-6.2569e-07
4.82324e-07
-7.48309e-07
6.37239e-07
-9.47715e-07
8.34892e-07
-1.12608e-06
1.08171e-06
-1.47365e-06
1.4169e-06
-1.81108e-06
-2.57569e-06
1.79414e-06
9.2056e-10
-1.00057e-08
3.34609e-09
-2.99392e-08
7.39935e-09
-5.05484e-08
1.35208e-08
-6.74318e-08
2.2033e-08
-7.90659e-08
3.29953e-08
-8.53361e-08
4.61377e-08
-8.57043e-08
6.07747e-08
-8.02093e-08
7.59192e-08
-6.99228e-08
9.04805e-08
-5.63891e-08
1.03449e-07
-4.11482e-08
1.14011e-07
-2.55649e-08
1.21625e-07
-1.0719e-08
1.26025e-07
2.61384e-09
1.27198e-07
1.39656e-08
1.25328e-07
2.31322e-08
1.20727e-07
3.00934e-08
1.13778e-07
3.49567e-08
1.04886e-07
3.78769e-08
9.44527e-08
3.90342e-08
8.28638e-08
3.86025e-08
7.04826e-08
3.67405e-08
5.765e-08
3.35978e-08
4.46829e-08
2.93082e-08
3.18721e-08
2.39644e-08
1.94821e-08
1.76312e-08
7.75651e-09
1.03221e-08
-3.08052e-09
1.98445e-09
-1.2809e-08
-7.48136e-09
-2.12044e-08
-1.827e-08
-2.80196e-08
-3.06283e-08
-3.2969e-08
-4.49217e-08
-3.57037e-08
-6.15873e-08
-3.58069e-08
-8.11738e-08
-3.2735e-08
-1.044e-07
-2.58564e-08
-1.32085e-07
-1.43113e-08
-1.65314e-07
2.86437e-09
-2.05395e-07
2.70071e-08
-2.5367e-07
5.96307e-08
-3.13045e-07
1.02759e-07
-3.83499e-07
1.58843e-07
-4.73769e-07
2.30992e-07
-5.76145e-07
3.23028e-07
-7.17735e-07
4.40547e-07
-8.65844e-07
5.88259e-07
-1.09544e-06
7.7996e-07
-1.3178e-06
1.01703e-06
-1.71072e-06
1.33808e-06
-2.13215e-06
-2.93627e-06
1.69865e-06
9.60479e-10
-1.09722e-08
3.50809e-09
-3.24979e-08
7.54283e-09
-5.45941e-08
1.32404e-08
-7.31394e-08
2.0814e-08
-8.66493e-08
3.04811e-08
-9.50126e-08
4.23308e-08
-9.75634e-08
5.61326e-08
-9.40211e-08
7.13076e-08
-8.51074e-08
8.70191e-08
-7.21111e-08
1.02321e-07
-5.64598e-08
1.16293e-07
-3.95458e-08
1.28155e-07
-2.25897e-08
1.37342e-07
-6.58218e-09
1.43535e-07
7.7643e-09
1.46645e-07
2.00136e-08
1.46772e-07
2.99563e-08
1.4415e-07
3.75692e-08
1.39086e-07
4.2931e-08
1.31924e-07
4.61859e-08
1.23021e-07
4.74965e-08
1.12733e-07
4.70194e-08
1.01415e-07
4.49065e-08
8.94169e-08
4.12963e-08
7.70799e-08
3.62914e-08
6.47293e-08
2.99703e-08
5.26753e-08
2.23652e-08
4.12074e-08
1.34405e-08
3.06042e-08
3.11066e-09
2.11378e-08
-8.81448e-09
1.30918e-08
-2.25939e-08
6.77371e-09
-3.86148e-08
2.54564e-09
-5.73723e-08
8.2593e-10
-7.94664e-08
2.15358e-09
-1.05742e-07
7.14712e-09
-1.37091e-07
1.66467e-08
-1.74826e-07
3.15895e-08
-2.20348e-07
5.32781e-08
-2.75371e-07
8.31582e-08
-3.42935e-07
1.23239e-07
-4.23593e-07
1.75751e-07
-5.26291e-07
2.43955e-07
-6.44364e-07
3.30997e-07
-8.04786e-07
4.43143e-07
-9.78007e-07
5.83458e-07
-1.23576e-06
7.67086e-07
-1.50144e-06
9.92404e-07
-1.93605e-06
1.29396e-06
-2.43372e-06
-3.27394e-06
1.63163e-06
9.824e-10
-1.19608e-08
3.64917e-09
-3.51758e-08
7.82898e-09
-5.8785e-08
1.35454e-08
-7.88661e-08
2.08374e-08
-9.39512e-08
2.98672e-08
-1.04052e-07
4.08515e-08
-1.08557e-07
5.38414e-08
-1.07021e-07
6.86099e-08
-9.98856e-08
8.46515e-08
-8.81634e-08
1.01253e-07
-7.30711e-08
1.17589e-07
-5.58911e-08
1.32837e-07
-3.78466e-08
1.46278e-07
-2.00312e-08
1.57367e-07
-3.33372e-09
1.65772e-07
1.15998e-08
1.71362e-07
2.43563e-08
1.74175e-07
3.47462e-08
1.74365e-07
4.27312e-08
1.72157e-07
4.83834e-08
1.67819e-07
5.18252e-08
1.61642e-07
5.3187e-08
1.53939e-07
5.25996e-08
1.45044e-07
5.01823e-08
1.35302e-07
4.6023e-08
1.25069e-07
4.0192e-08
1.147e-07
3.2723e-08
1.04541e-07
2.3588e-08
9.49272e-08
1.27127e-08
8.61852e-08
-8.34255e-11
7.86424e-08
-1.50629e-08
7.26378e-08
-3.26213e-08
6.85516e-08
-5.32992e-08
6.68083e-08
-7.77354e-08
6.79382e-08
-1.06885e-07
7.25462e-08
-1.41711e-07
8.14365e-08
-1.83729e-07
9.55183e-08
-2.34441e-07
1.16023e-07
-2.95887e-07
1.44343e-07
-3.71265e-07
1.82377e-07
-4.6164e-07
2.32209e-07
-5.76132e-07
2.97008e-07
-7.09177e-07
3.79475e-07
-8.87262e-07
4.85968e-07
-1.08451e-06
6.18449e-07
-1.36825e-06
7.92114e-07
-1.67512e-06
1.00346e-06
-2.1474e-06
1.28106e-06
-2.71133e-06
-3.58303e-06
1.59014e-06
1.00152e-09
-1.29686e-08
3.7671e-09
-3.79528e-08
8.11701e-09
-6.31463e-08
1.40266e-08
-8.4786e-08
2.142e-08
-1.01355e-07
3.03535e-08
-1.12995e-07
4.10218e-08
-1.19235e-07
5.357e-08
-1.1958e-07
6.7976e-08
-1.14302e-07
8.39957e-08
-1.04194e-07
1.01172e-07
-9.02567e-08
1.18876e-07
-7.36054e-08
1.36392e-07
-5.53718e-08
1.53004e-07
-3.6651e-08
1.6808e-07
-1.84193e-08
1.81143e-07
-1.47245e-09
1.9189e-07
1.35999e-08
2.00184e-07
2.64416e-08
2.06023e-07
3.68828e-08
2.09492e-07
4.49037e-08
2.1074e-07
5.05684e-08
2.09952e-07
5.39652e-08
2.07355e-07
5.5187e-08
2.03214e-07
5.43134e-08
1.97833e-07
5.13939e-08
1.91549e-07
4.64644e-08
1.84725e-07
3.95362e-08
1.77731e-07
3.05696e-08
1.70944e-07
1.94887e-08
1.64731e-07
6.11849e-09
1.59461e-07
-9.80459e-09
1.55504e-07
-2.8676e-08
1.5326e-07
-5.10683e-08
1.5316e-07
-7.76475e-08
1.5572e-07
-1.09459e-07
1.61527e-07
-1.4753e-07
1.71332e-07
-1.93546e-07
1.8601e-07
-2.49129e-07
2.06684e-07
-3.16573e-07
2.34693e-07
-3.99283e-07
2.71756e-07
-4.98716e-07
3.19828e-07
-6.24213e-07
3.81842e-07
-7.71206e-07
4.60121e-07
-9.65549e-07
5.60799e-07
-1.18521e-06
6.84952e-07
-1.49241e-06
8.4693e-07
-1.83712e-06
1.04211e-06
-2.3426e-06
1.29221e-06
-2.96143e-06
-3.85858e-06
1.56776e-06
1.02317e-09
-1.39982e-08
3.87996e-09
-4.08212e-08
8.38637e-09
-6.76642e-08
1.4524e-08
-9.09343e-08
2.2171e-08
-1.09012e-07
3.13044e-08
-1.22138e-07
4.20613e-08
-1.30002e-07
5.45811e-08
-1.3211e-07
6.89058e-08
-1.28636e-07
8.4929e-08
-1.20228e-07
1.02376e-07
-1.07714e-07
1.20809e-07
-9.20474e-08
1.39667e-07
-7.42397e-08
1.58336e-07
-5.5328e-08
1.76215e-07
-3.63072e-08
1.92792e-07
-1.80585e-08
2.07685e-07
-1.30341e-09
2.20656e-07
1.34602e-08
2.31589e-07
2.59398e-08
2.40458e-07
3.60239e-08
2.47301e-07
4.37162e-08
2.52197e-07
4.906e-08
2.55269e-07
5.21057e-08
2.56688e-07
5.28841e-08
2.56681e-07
5.13908e-08
2.55527e-07
4.76068e-08
2.53555e-07
4.14969e-08
2.51126e-07
3.2987e-08
2.48622e-07
2.19811e-08
2.46432e-07
8.2973e-09
2.44949e-07
-8.33338e-09
2.44567e-07
-2.83045e-08
2.45695e-07
-5.221e-08
2.4877e-07
-8.07343e-08
2.54285e-07
-1.14988e-07
2.62805e-07
-1.56062e-07
2.7501e-07
-2.05763e-07
2.91731e-07
-2.65862e-07
3.13956e-07
-3.38808e-07
3.4295e-07
-4.28287e-07
3.80216e-07
-5.35994e-07
4.27544e-07
-6.7155e-07
4.8758e-07
-8.31256e-07
5.62225e-07
-1.0402e-06
6.57218e-07
-1.28021e-06
7.72857e-07
-1.60806e-06
9.21959e-07
-1.98623e-06
1.09933e-06
-2.51998e-06
1.31976e-06
-3.18187e-06
-4.09718e-06
1.55836e-06
1.04703e-09
-1.50518e-08
3.99785e-09
-4.37838e-08
8.65275e-09
-7.23309e-08
1.50135e-08
-9.73058e-08
2.29492e-08
-1.16958e-07
3.23974e-08
-1.31596e-07
4.34536e-08
-1.41068e-07
5.62251e-08
-1.44892e-07
7.07498e-08
-1.43171e-07
8.69607e-08
-1.3645e-07
1.04673e-07
-1.25436e-07
1.23569e-07
-1.10954e-07
1.43223e-07
-9.39029e-08
1.63134e-07
-7.52477e-08
1.82785e-07
-5.5967e-08
2.01707e-07
-3.69901e-08
2.19524e-07
-1.91294e-08
2.35968e-07
-2.9944e-09
2.50878e-07
1.10195e-08
2.64169e-07
2.2722e-08
2.7581e-07
3.20657e-08
2.85802e-07
3.90583e-08
2.94184e-07
4.37147e-08
3.01038e-07
4.60197e-08
3.06507e-07
4.59122e-08
3.10794e-07
4.33076e-08
3.14171e-07
3.81084e-08
3.1696e-07
3.0187e-08
3.19521e-07
1.94084e-08
3.22238e-07
5.56906e-09
3.25508e-07
-1.16149e-08
3.29731e-07
-3.2539e-08
3.3532e-07
-5.78116e-08
3.42705e-07
-8.81321e-08
3.52353e-07
-1.24649e-07
3.648e-07
-1.6852e-07
3.80644e-07
-2.2162e-07
4.0066e-07
-2.85888e-07
4.25688e-07
-3.63847e-07
4.56889e-07
-4.59498e-07
4.95544e-07
-5.7466e-07
5.4322e-07
-7.19236e-07
6.0227e-07
-8.9032e-07
6.74119e-07
-1.11206e-06
7.63981e-07
-1.37009e-06
8.71477e-07
-1.71556e-06
1.00743e-06
-2.12219e-06
1.16635e-06
-2.67891e-06
1.35677e-06
-3.3723e-06
-4.29772e-06
1.55731e-06
1.07199e-09
-1.61305e-08
4.12274e-09
-4.68465e-08
8.92745e-09
-7.71474e-08
1.55079e-08
-1.03897e-07
2.37346e-08
-1.25195e-07
3.35275e-08
-1.41399e-07
4.49626e-08
-1.52514e-07
5.81249e-08
-1.58065e-07
7.30306e-08
-1.58087e-07
8.96081e-08
-1.53039e-07
1.07695e-07
-1.43533e-07
1.27027e-07
-1.30295e-07
1.47251e-07
-1.14136e-07
1.67953e-07
-9.59586e-08
1.88698e-07
-7.67219e-08
2.09084e-07
-5.73849e-08
2.28776e-07
-3.88312e-08
2.47533e-07
-2.17617e-08
2.652e-07
-6.65774e-09
2.81685e-07
6.22645e-09
2.96935e-07
1.68058e-08
3.10918e-07
2.50657e-08
3.23624e-07
3.09991e-08
3.35078e-07
3.45562e-08
3.45354e-07
3.56255e-08
3.54593e-07
3.40571e-08
3.63005e-07
2.96852e-08
3.70862e-07
2.23182e-08
3.78491e-07
1.17682e-08
3.86252e-07
-2.20284e-09
3.94528e-07
-1.99031e-08
4.03715e-07
-4.17371e-08
4.14215e-07
-6.83242e-08
4.26448e-07
-1.00378e-07
4.40849e-07
-1.39063e-07
4.57918e-07
-1.85602e-07
4.78177e-07
-2.41891e-07
5.0233e-07
-3.10051e-07
5.31074e-07
-3.92602e-07
5.65437e-07
-4.9387e-07
6.06497e-07
-6.15732e-07
6.55549e-07
-7.68296e-07
7.1466e-07
-9.49444e-07
7.84766e-07
-1.18217e-06
8.70447e-07
-1.45578e-06
9.70767e-07
-1.81589e-06
1.09431e-06
-2.24575e-06
1.23544e-06
-2.82004e-06
1.39741e-06
-3.53427e-06
-4.46172e-06
1.56141e-06
1.09773e-09
-1.7235e-08
4.24826e-09
-5.00092e-08
9.21365e-09
-8.21249e-08
1.60177e-08
-1.10712e-07
2.45379e-08
-1.33726e-07
3.4683e-08
-1.51555e-07
4.65208e-08
-1.64362e-07
6.01271e-08
-1.71683e-07
7.55016e-08
-1.73472e-07
9.25568e-08
-1.70106e-07
1.11124e-07
-1.62111e-07
1.30949e-07
-1.50131e-07
1.51707e-07
-1.34904e-07
1.73026e-07
-1.17286e-07
1.94522e-07
-9.82273e-08
2.15845e-07
-7.87172e-08
2.3671e-07
-5.97065e-08
2.56918e-07
-4.19802e-08
2.76346e-07
-2.6096e-08
2.94926e-07
-1.23635e-08
3.12617e-07
-8.95259e-10
3.2939e-07
8.28365e-09
3.45223e-07
1.51565e-08
3.60117e-07
1.9652e-08
3.74114e-07
2.16186e-08
3.87311e-07
2.08486e-08
3.99875e-07
1.71092e-08
4.1204e-07
1.01416e-08
4.24097e-07
-3.00323e-10
4.36381e-07
-1.44974e-08
4.49255e-07
-3.2789e-08
4.63103e-07
-5.55953e-08
4.78309e-07
-8.35436e-08
4.95283e-07
-1.17364e-07
5.14426e-07
-1.58218e-07
5.36205e-07
-2.07393e-07
5.61072e-07
-2.6677e-07
5.89655e-07
-3.38644e-07
6.22532e-07
-4.25489e-07
6.60578e-07
-5.31925e-07
7.04699e-07
-6.59865e-07
7.55898e-07
-8.19503e-07
8.15974e-07
-1.00953e-06
8.85402e-07
-1.25161e-06
9.68065e-07
-1.53846e-06
1.06259e-06
-1.91042e-06
1.1753e-06
-2.35847e-06
1.30048e-06
-2.94522e-06
1.43725e-06
-3.67105e-06
-4.59305e-06
1.56858e-06
1.12438e-09
-1.83663e-08
4.37669e-09
-5.32738e-08
9.51146e-09
-8.72718e-08
1.65463e-08
-1.17758e-07
2.53671e-08
-1.42558e-07
3.58728e-08
-1.62071e-07
4.81238e-08
-1.76623e-07
6.21943e-08
-1.85764e-07
7.80744e-08
-1.89363e-07
9.56625e-08
-1.87705e-07
1.14777e-07
-1.81236e-07
1.35157e-07
-1.70521e-07
1.56479e-07
-1.56234e-07
1.7838e-07
-1.39197e-07
2.005e-07
-1.20357e-07
2.22517e-07
-1.00743e-07
2.4418e-07
-8.13796e-08
2.65325e-07
-6.31352e-08
2.85862e-07
-4.66438e-08
3.05755e-07
-3.22671e-08
3.24991e-07
-2.01411e-08
3.43561e-07
-1.02951e-08
3.61454e-07
-2.74638e-09
3.78675e-07
2.4208e-09
3.95258e-07
5.02519e-09
4.11288e-07
4.80785e-09
4.26911e-07
1.47451e-09
4.42338e-07
-5.29664e-09
4.57839e-07
-1.58128e-08
4.7373e-07
-3.03992e-08
4.9036e-07
-4.94304e-08
5.08098e-07
-7.33444e-08
5.27317e-07
-1.02775e-07
5.48414e-07
-1.38472e-07
5.71762e-07
-1.8158e-07
5.97803e-07
-2.33445e-07
6.2693e-07
-2.95908e-07
6.59701e-07
-3.71424e-07
6.96602e-07
-4.624e-07
7.38356e-07
-5.73688e-07
7.85735e-07
-7.07255e-07
8.39463e-07
-8.73239e-07
9.0109e-07
-1.07117e-06
9.70705e-07
-1.32123e-06
1.05147e-06
-1.61923e-06
1.1417e-06
-2.00066e-06
1.24561e-06
-2.46239e-06
1.35742e-06
-3.05704e-06
1.47329e-06
-3.78693e-06
-4.69718e-06
1.57743e-06
1.1521e-09
-1.95254e-08
4.50944e-09
-5.66435e-08
9.82076e-09
-9.25954e-08
1.70943e-08
-1.25043e-07
2.6225e-08
-1.51699e-07
3.71027e-08
-1.72959e-07
4.97787e-08
-1.8931e-07
6.43266e-08
-2.00323e-07
8.07312e-08
-2.05778e-07
9.88797e-08
-2.05865e-07
1.18579e-07
-2.00946e-07
1.39556e-07
-1.91508e-07
1.61477e-07
-1.78165e-07
1.83978e-07
-1.61706e-07
2.06698e-07
-1.43086e-07
2.29327e-07
-1.23382e-07
2.51629e-07
-1.03692e-07
2.73462e-07
-8.49786e-08
2.94761e-07
-6.7953e-08
3.15514e-07
-5.30306e-08
3.35733e-07
-4.03699e-08
3.55431e-07
-3.00025e-08
3.74619e-07
-2.19438e-08
3.93316e-07
-1.62855e-08
4.11565e-07
-1.32343e-08
4.29455e-07
-1.30938e-08
4.47133e-07
-1.62147e-08
4.64805e-07
-2.29803e-08
4.82735e-07
-3.37537e-08
5.01233e-07
-4.89072e-08
5.20636e-07
-6.88453e-08
5.41313e-07
-9.40322e-08
5.63629e-07
-1.25103e-07
5.87968e-07
-1.62823e-07
6.14689e-07
-2.08314e-07
6.4421e-07
-2.62976e-07
6.76887e-07
-3.28597e-07
7.13218e-07
-4.07765e-07
7.53626e-07
-5.02818e-07
7.98697e-07
-6.18767e-07
8.49107e-07
-7.57674e-07
9.05339e-07
-9.29478e-07
9.6872e-07
-1.13456e-06
1.03904e-06
-1.39155e-06
1.11877e-06
-1.69897e-06
1.20602e-06
-2.08792e-06
1.30318e-06
-2.55955e-06
1.40442e-06
-3.15829e-06
1.50397e-06
-3.88648e-06
-4.78018e-06
1.58698e-06
1.18101e-09
-2.07135e-08
4.64668e-09
-6.01217e-08
1.01417e-08
-9.81029e-08
1.76619e-08
-1.32575e-07
2.7112e-08
-1.6116e-07
3.83748e-08
-1.84232e-07
5.14895e-08
-2.02435e-07
6.65291e-08
-2.15374e-07
8.34741e-08
-2.22734e-07
1.02202e-07
-2.24605e-07
1.22509e-07
-2.21263e-07
1.44109e-07
-2.13118e-07
1.66659e-07
-2.00725e-07
1.89783e-07
-1.84839e-07
2.13115e-07
-1.66428e-07
2.36344e-07
-1.4662e-07
2.59239e-07
-1.26598e-07
2.81667e-07
-1.07418e-07
3.03578e-07
-8.98742e-08
3.24975e-07
-7.44374e-08
3.45885e-07
-6.129e-08
3.6634e-07
-5.04661e-08
3.86365e-07
-4.1979e-08
4.05997e-07
-3.59273e-08
4.25295e-07
-3.25421e-08
4.44359e-07
-3.21688e-08
4.63346e-07
-3.52129e-08
4.82469e-07
-4.2115e-08
5.01998e-07
-5.32933e-08
5.22244e-07
-6.91632e-08
5.43549e-07
-9.01617e-08
5.66279e-07
-1.16773e-07
5.90796e-07
-1.49632e-07
6.17485e-07
-1.89523e-07
6.46697e-07
-2.37538e-07
6.78829e-07
-2.95119e-07
7.14222e-07
-3.64001e-07
7.53319e-07
-4.4687e-07
7.96511e-07
-5.46019e-07
8.44275e-07
-6.66538e-07
8.97209e-07
-8.10619e-07
9.55612e-07
-9.87887e-07
1.02061e-06
-1.19957e-06
1.0918e-06
-1.46274e-06
1.17099e-06
-1.77817e-06
1.25622e-06
-2.17315e-06
1.34835e-06
-2.65169e-06
1.44156e-06
-3.2515e-06
1.52893e-06
-3.97385e-06
-4.84778e-06
1.59653e-06
1.21123e-09
-2.1932e-08
4.78852e-09
-6.37117e-08
1.04747e-08
-1.03802e-07
1.82496e-08
-1.40361e-07
2.80284e-08
-1.7095e-07
3.96896e-08
-1.95904e-07
5.32581e-08
-2.16014e-07
6.88048e-08
-2.30932e-07
8.63068e-08
-2.40247e-07
1.05632e-07
-2.43941e-07
1.26565e-07
-2.42207e-07
1.4881e-07
-2.35373e-07
1.7201e-07
-2.23934e-07
1.95779e-07
-2.08617e-07
2.19741e-07
-1.904e-07
2.4358e-07
-1.70468e-07
2.67066e-07
-1.50093e-07
2.90068e-07
-1.30431e-07
3.12543e-07
-1.12359e-07
3.34501e-07
-9.64056e-08
3.5598e-07
-8.27778e-08
3.77017e-07
-7.15131e-08
3.97653e-07
-6.2624e-08
4.17933e-07
-5.62173e-08
4.3793e-07
-5.25492e-08
4.57759e-07
-5.2008e-08
4.77588e-07
-5.50531e-08
4.97643e-07
-6.21812e-08
5.18203e-07
-7.38642e-08
5.39589e-07
-9.05591e-08
5.62149e-07
-1.12732e-07
5.86253e-07
-1.40887e-07
6.12268e-07
-1.75659e-07
6.40577e-07
-2.17843e-07
6.71528e-07
-2.68501e-07
7.05509e-07
-3.29109e-07
7.42849e-07
-4.01352e-07
7.83954e-07
-4.87983e-07
8.29195e-07
-5.91269e-07
8.78958e-07
-7.16307e-07
9.338e-07
-8.6547e-07
9.93882e-07
-1.04797e-06
1.06015e-06
-1.26585e-06
1.13208e-06
-1.53467e-06
1.21092e-06
-1.85703e-06
1.29467e-06
-2.2569e-06
1.383e-06
-2.74003e-06
1.47015e-06
-3.33865e-06
1.54869e-06
-4.05239e-06
-4.90469e-06
1.60561e-06
1.24285e-09
-2.31821e-08
4.93508e-09
-6.74166e-08
1.08199e-08
-1.09699e-07
1.88579e-08
-1.4841e-07
2.89744e-08
-1.81078e-07
4.10477e-08
-2.07988e-07
5.50853e-08
-2.30062e-07
7.11553e-08
-2.47014e-07
8.92317e-08
-2.58334e-07
1.09173e-07
-2.63894e-07
1.30752e-07
-2.63796e-07
1.5366e-07
-2.58293e-07
1.7753e-07
-2.47814e-07
2.01962e-07
-2.33058e-07
2.26572e-07
-2.15019e-07
2.51037e-07
-1.94942e-07
2.75124e-07
-1.7419e-07
2.98704e-07
-1.54022e-07
3.21737e-07
-1.35402e-07
3.44236e-07
-1.18915e-07
3.66242e-07
-1.04793e-07
3.87799e-07
-9.30791e-08
4.0895e-07
-8.37845e-08
4.2975e-07
-7.70267e-08
4.5028e-07
-7.30891e-08
4.70665e-07
-7.24041e-08
4.91088e-07
-7.54864e-08
5.11785e-07
-8.2889e-08
5.33046e-07
-9.51361e-08
5.55203e-07
-1.12726e-07
5.78611e-07
-1.36151e-07
6.03649e-07
-1.65935e-07
6.30686e-07
-2.02707e-07
6.60107e-07
-2.47274e-07
6.9226e-07
-3.00666e-07
7.27521e-07
-3.6438e-07
7.6622e-07
-4.40061e-07
8.08727e-07
-5.30498e-07
8.55406e-07
-6.37957e-07
9.06576e-07
-7.67484e-07
9.62755e-07
-9.21657e-07
1.02401e-06
-1.10924e-06
1.09113e-06
-1.33298e-06
1.16351e-06
-1.60706e-06
1.24194e-06
-1.93546e-06
1.32439e-06
-2.33935e-06
1.40966e-06
-2.8253e-06
1.49206e-06
-3.42105e-06
1.56411e-06
-4.12444e-06
-4.95433e-06
1.61376e-06
1.27597e-09
-2.44654e-08
5.08646e-09
-7.12399e-08
1.11776e-08
-1.15803e-07
1.94872e-08
-1.56732e-07
2.99506e-08
-1.91552e-07
4.24494e-08
-2.20498e-07
5.69717e-08
-2.44595e-07
7.35816e-08
-2.63635e-07
9.225e-08
-2.77013e-07
1.12826e-07
-2.84481e-07
1.3507e-07
-2.86051e-07
1.58662e-07
-2.81895e-07
1.83221e-07
-2.72382e-07
2.08335e-07
-2.58181e-07
2.33609e-07
-2.40303e-07
2.58715e-07
-2.20056e-07
2.83416e-07
-1.98902e-07
3.07586e-07
-1.78201e-07
3.31183e-07
-1.59009e-07
3.54224e-07
-1.41966e-07
3.76752e-07
-1.2733e-07
3.98811e-07
-1.15147e-07
4.20448e-07
-1.0543e-07
4.4172e-07
-9.83081e-08
4.62715e-07
-9.40943e-08
4.83568e-07
-9.32675e-08
5.0447e-07
-9.63989e-08
5.25669e-07
-1.04098e-07
5.47466e-07
-1.16942e-07
5.702e-07
-1.35469e-07
5.94236e-07
-1.60198e-07
6.19958e-07
-1.91666e-07
6.47739e-07
-2.305e-07
6.77964e-07
-2.77509e-07
7.10982e-07
-3.33695e-07
7.47158e-07
-4.00565e-07
7.8682e-07
-4.79732e-07
8.3031e-07
-5.73995e-07
8.77986e-07
-6.8564e-07
9.30113e-07
-8.19617e-07
9.87172e-07
-9.78723e-07
1.04917e-06
-1.17124e-06
1.11673e-06
-1.40055e-06
1.18925e-06
-1.67958e-06
1.26706e-06
-2.01328e-06
1.34817e-06
-2.42046e-06
1.43074e-06
-2.90788e-06
1.50917e-06
-3.49948e-06
1.57619e-06
-4.19146e-06
-4.99891e-06
1.62078e-06
1.31072e-09
-2.57835e-08
5.24277e-09
-7.51847e-08
1.1548e-08
-1.22121e-07
2.01382e-08
-1.65333e-07
3.09579e-08
-2.02383e-07
4.38951e-08
-2.33446e-07
5.89181e-08
-2.59629e-07
7.60844e-08
-2.80813e-07
9.53627e-08
-2.96302e-07
1.16592e-07
-3.05723e-07
1.39521e-07
-3.0899e-07
1.63817e-07
-3.062e-07
1.89083e-07
-2.97658e-07
2.14897e-07
-2.84004e-07
2.40853e-07
-2.66268e-07
2.66615e-07
-2.45827e-07
2.91946e-07
-2.24242e-07
3.16716e-07
-2.02981e-07
3.40888e-07
-1.83191e-07
3.6448e-07
-1.65567e-07
3.87534e-07
-1.50394e-07
4.10096e-07
-1.37718e-07
4.32213e-07
-1.27555e-07
4.53944e-07
-1.20048e-07
4.75383e-07
-1.15543e-07
4.9667e-07
-1.14565e-07
5.18006e-07
-1.17745e-07
5.39648e-07
-1.2575e-07
5.61905e-07
-1.3921e-07
5.85127e-07
-1.587e-07
6.09684e-07
-1.84765e-07
6.35965e-07
-2.17956e-07
6.64346e-07
-2.58892e-07
6.9521e-07
-3.08382e-07
7.28904e-07
-3.67399e-07
7.65782e-07
-4.37451e-07
8.06169e-07
-5.20127e-07
8.50379e-07
-6.18212e-07
8.9876e-07
-7.34029e-07
9.51538e-07
-8.724e-07
1.00915e-06
-1.03634e-06
1.07155e-06
-1.23365e-06
1.13924e-06
-1.46824e-06
1.21156e-06
-1.75191e-06
1.28853e-06
-2.09024e-06
1.36812e-06
-2.50005e-06
1.44807e-06
-2.98783e-06
1.52291e-06
-3.57432e-06
1.58573e-06
-4.25428e-06
-5.03968e-06
1.62651e-06
1.3472e-09
-2.71381e-08
5.40412e-09
-7.92545e-08
1.19311e-08
-1.2866e-07
2.08111e-08
-1.74225e-07
3.19979e-08
-2.13581e-07
4.53853e-08
-2.46844e-07
6.0925e-08
-2.7518e-07
7.86647e-08
-2.98564e-07
9.85709e-08
-3.16219e-07
1.20474e-07
-3.27637e-07
1.44108e-07
-3.32635e-07
1.69126e-07
-3.31228e-07
1.9512e-07
-3.23661e-07
2.21653e-07
-3.10545e-07
2.48308e-07
-2.92932e-07
2.74742e-07
-2.7227e-07
3.00715e-07
-2.50224e-07
3.26099e-07
-2.28375e-07
3.50857e-07
-2.07959e-07
3.75009e-07
-1.89729e-07
3.98597e-07
-1.73991e-07
4.21667e-07
-1.60796e-07
4.44265e-07
-1.50162e-07
4.66454e-07
-1.42246e-07
4.88331e-07
-1.37429e-07
5.10042e-07
-1.36286e-07
5.31796e-07
-1.39508e-07
5.53858e-07
-1.47822e-07
5.76546e-07
-1.61907e-07
6.00216e-07
-1.82379e-07
6.25246e-07
-2.09804e-07
6.52027e-07
-2.44745e-07
6.80937e-07
-2.87812e-07
7.12354e-07
-3.39807e-07
7.46624e-07
-4.01679e-07
7.84086e-07
-4.74921e-07
8.25059e-07
-5.61107e-07
8.6983e-07
-6.62989e-07
9.18734e-07
-7.82939e-07
9.71959e-07
-9.2563e-07
1.02989e-06
-1.09427e-06
1.09246e-06
-1.29622e-06
1.16e-06
-1.53578e-06
1.23186e-06
-1.82377e-06
1.30773e-06
-2.16612e-06
1.3856e-06
-2.57791e-06
1.46288e-06
-3.06512e-06
1.53426e-06
-3.64568e-06
1.59324e-06
-4.31326e-06
-5.07725e-06
1.63082e-06
1.38551e-09
-2.85311e-08
5.57061e-09
-8.34524e-08
1.23271e-08
-1.3543e-07
2.15063e-08
-1.83416e-07
3.307e-08
-2.25156e-07
4.69201e-08
-2.60705e-07
6.29928e-08
-2.91263e-07
8.13231e-08
-3.16905e-07
1.01875e-07
-3.36782e-07
1.24471e-07
-3.50244e-07
1.4883e-07
-3.57004e-07
1.74592e-07
-3.57e-07
2.01333e-07
-3.50411e-07
2.28602e-07
-3.37823e-07
2.55974e-07
-3.20312e-07
2.83096e-07
-2.99401e-07
3.09726e-07
-2.76863e-07
3.35736e-07
-2.54395e-07
3.61092e-07
-2.33324e-07
3.85814e-07
-2.1446e-07
4.09945e-07
-1.9813e-07
4.33528e-07
-1.84388e-07
4.56612e-07
-1.73254e-07
4.79261e-07
-1.64904e-07
5.01575e-07
-1.59751e-07
5.23707e-07
-1.58427e-07
5.45871e-07
-1.61683e-07
5.68343e-07
-1.70303e-07
5.91448e-07
-1.85021e-07
6.15549e-07
-2.06488e-07
6.41028e-07
-2.35292e-07
6.68279e-07
-2.72004e-07
6.97681e-07
-3.17223e-07
7.29605e-07
-3.7174e-07
7.64393e-07
-4.36477e-07
8.02369e-07
-5.12904e-07
8.43841e-07
-6.02586e-07
8.89073e-07
-7.08226e-07