/*--------------------------------*- C++ -*----------------------------------*\
  =========                 |
  \\      /  F ield         | OpenFOAM: The Open Source CFD Toolbox
   \\    /   O peration     | Website:  https://openfoam.org
    \\  /    A nd           | Version:  7
     \\/     M anipulation  |
\*---------------------------------------------------------------------------*/
FoamFile
{
    version     2.0;
    format      ascii;
    class       volScalarField;
    location    "0.07";
    object      nut;
}
// * * * * * * * * * * * * * * * * * * * * * * * * * * * * * * * * * * * * * //

dimensions      [0 2 -1 0 0 0 0];

internalField   nonuniform List<scalar> 
70000
(
9.96324e-12
6.88591e-14
2.54606e-16
8.46634e-17
4.9278e-17
8.09001e-17
2.88111e-17
1.36777e-17
9.38331e-18
6.92571e-18
5.13594e-18
3.87684e-18
2.99598e-18
2.36498e-18
1.90122e-18
1.55304e-18
1.28691e-18
1.08052e-18
9.18269e-19
7.89391e-19
6.8597e-19
6.02386e-19
5.34345e-19
4.78833e-19
4.33198e-19
3.96052e-19
3.65324e-19
3.40969e-19
3.2055e-19
3.06045e-19
2.92766e-19
2.87247e-19
2.78334e-19
2.82915e-19
2.75365e-19
2.92759e-19
2.84411e-19
3.14163e-19
3.14625e-19
3.2696e-19
4.13847e-19
2.55308e-19
8.48468e-19
3.76042e-20
3.8689e-18
3.91485e-19
3.83477e-17
4.68591e-17
4.63306e-15
7.61158e-14
1.04286e-10
5.9847e-12
6.43631e-14
2.14409e-14
2.88007e-16
1.68821e-17
2.52893e-17
2.13138e-17
1.24592e-17
7.47842e-18
4.9496e-18
3.48889e-18
2.55526e-18
1.92596e-18
1.487e-18
1.17211e-18
9.40728e-19
7.66995e-19
6.34241e-19
5.31127e-19
4.49994e-19
3.85371e-19
3.33437e-19
2.91224e-19
2.5687e-19
2.28402e-19
2.05231e-19
1.85494e-19
1.69963e-19
1.55715e-19
1.46092e-19
1.34778e-19
1.30785e-19
1.19992e-19
1.22558e-19
1.09947e-19
1.19427e-19
1.05987e-19
1.13655e-19
1.20853e-19
7.94681e-20
2.32743e-19
7.65145e-21
1.24973e-18
3.64767e-19
1.72748e-17
3.60914e-17
3.21165e-16
2.19431e-14
8.63772e-15
3.19278e-10
3.39291e-12
1.901e-13
1.9804e-14
7.48532e-16
5.52637e-17
6.66473e-18
3.84844e-18
1.93747e-18
9.52963e-19
5.27938e-19
3.24477e-19
2.12229e-19
1.44571e-19
1.01607e-19
7.32791e-20
5.40102e-20
4.05209e-20
3.08631e-20
2.37981e-20
1.85525e-20
1.46032e-20
1.1611e-20
9.32061e-21
7.59137e-21
6.26066e-21
5.30977e-21
4.58508e-21
4.19682e-21
3.90201e-21
4.06368e-21
4.14252e-21
5.10081e-21
5.63949e-21
8.06055e-21
9.34476e-21
1.43571e-20
1.71296e-20
2.54246e-20
3.1895e-20
4.23351e-20
6.6522e-20
1.31348e-19
4.6795e-19
2.6656e-18
1.33798e-17
7.93365e-17
3.96722e-16
2.50416e-14
4.93079e-14
6.1551e-09
1.92448e-11
7.79666e-13
6.04816e-14
5.34407e-15
8.8864e-16
1.01514e-16
2.61516e-17
1.06588e-17
4.60657e-18
2.09645e-18
1.05095e-18
5.75028e-19
3.34171e-19
2.02221e-19
1.25855e-19
7.9777e-20
5.10276e-20
3.26125e-20
2.05957e-20
1.26816e-20
7.47948e-21
4.1188e-21
2.03182e-21
8.31402e-22
2.36624e-22
2.60808e-23
3.15895e-26
4.98006e-23
3.73036e-22
1.29695e-21
3.27733e-21
6.95663e-21
1.31861e-20
2.34009e-20
3.86215e-20
6.29918e-20
9.3573e-20
1.47464e-19
1.91936e-19
3.13413e-19
3.33189e-19
7.31521e-19
8.31244e-19
4.33588e-18
1.28786e-17
7.48438e-17
3.26806e-16
1.93529e-14
6.82537e-14
2.32577e-09
2.23016e-10
4.42571e-12
3.1815e-13
2.23748e-14
4.21016e-15
6.67821e-16
1.81952e-16
7.26857e-17
3.15792e-17
1.44669e-17
7.21637e-18
3.90742e-18
2.2495e-18
1.3533e-18
8.40832e-19
5.34556e-19
3.44737e-19
2.23546e-19
1.44382e-19
9.1886e-20
5.68575e-20
3.36062e-20
1.84835e-20
9.0591e-21
3.64528e-21
9.95107e-22
9.42191e-23
1.28342e-24
3.14275e-22
2.11294e-21
7.07865e-21
1.77106e-20
3.69439e-20
7.09514e-20
1.22234e-19
2.10266e-19
3.1936e-19
5.24941e-19
6.99912e-19
1.15437e-18
1.29694e-18
2.36383e-18
2.53309e-18
6.86471e-18
1.70934e-17
5.4931e-17
2.40584e-16
1.44854e-14
5.56248e-14
3.01756e-09
5.29013e-09
4.32637e-11
1.92095e-12
1.04611e-13
1.71231e-14
2.99658e-15
8.49966e-16
3.38853e-16
1.48407e-16
6.86824e-17
3.43705e-17
1.85689e-17
1.06486e-17
6.38485e-18
3.96044e-18
2.5198e-18
1.63148e-18
1.06647e-18
6.97982e-19
4.53204e-19
2.888e-19
1.78172e-19
1.0443e-19
5.6504e-20
2.68675e-20
1.0201e-20
2.43109e-21
1.36477e-22
4.70418e-23
1.95753e-21
1.04296e-20
3.25693e-20
7.66402e-20
1.60149e-19
2.90719e-19
5.23716e-19
8.19122e-19
1.38829e-18
1.89687e-18
3.17577e-18
3.69195e-18
6.37026e-18
6.75591e-18
1.26802e-17
2.54574e-17
3.68156e-17
1.65354e-16
1.08057e-14
4.48015e-14
1.07677e-09
4.7601e-09
3.69295e-09
1.82307e-11
6.4736e-13
8.67841e-14
1.39545e-14
3.69973e-15
1.39859e-15
5.97422e-16
2.73483e-16
1.3576e-16
7.27774e-17
4.14399e-17
2.47008e-17
1.52545e-17
9.68139e-18
6.26754e-18
4.10857e-18
2.70665e-18
1.77749e-18
1.15291e-18
7.30355e-19
4.45232e-19
2.55694e-19
1.33704e-19
5.99597e-20
2.02983e-20
3.63566e-21
3.49865e-23
8.16568e-22
1.12365e-20
4.80818e-20
1.32315e-19
3.03186e-19
5.85118e-19
1.09954e-18
1.7779e-18
3.084e-18
4.32232e-18
7.30651e-18
8.75549e-18
1.47069e-17
1.58165e-17
2.42051e-17
4.04029e-17
2.31692e-17
1.0546e-16
7.86687e-15
3.49665e-14
2.42707e-09
3.86531e-09
8.17371e-10
2.36211e-09
8.25176e-12
6.70984e-13
8.26544e-14
1.83281e-14
6.15419e-15
2.43649e-15
1.05982e-15
5.06896e-16
2.6417e-16
1.47185e-16
8.62627e-17
5.2581e-17
3.30437e-17
2.12459e-17
1.38749e-17
9.13684e-18
6.02142e-18
3.93825e-18
2.53141e-18
1.57928e-18
9.401e-19
5.202e-19
2.56387e-19
1.03608e-19
2.83459e-20
2.65482e-21
3.46486e-23
9.19699e-21
6.24467e-20
2.07829e-19
5.26334e-19
1.08241e-18
2.11594e-18
3.53443e-18
6.23825e-18
8.96529e-18
1.51806e-17
1.87768e-17
3.06731e-17
3.40678e-17
4.54869e-17
6.71133e-17
1.50098e-17
6.47381e-17
5.59099e-15
2.55217e-14
3.36832e-09
4.36605e-09
5.86773e-10
2.96665e-10
5.40812e-10
1.71922e-11
8.65183e-13
1.27549e-13
3.40326e-14
1.16354e-14
4.56159e-15
2.01821e-15
9.90843e-16
5.27033e-16
2.97802e-16
1.76325e-16
1.08271e-16
6.83522e-17
4.40158e-17
2.86951e-17
1.87966e-17
1.22723e-17
7.91406e-18
4.9845e-18
3.02117e-18
1.72421e-18
8.95715e-19
3.98109e-19
1.33136e-19
2.32175e-20
1.80473e-22
5.90821e-21
7.83218e-20
3.22137e-19
9.01069e-19
1.96559e-18
3.97315e-18
6.82548e-18
1.21789e-17
1.7893e-17
3.01399e-17
3.83984e-17
6.0839e-17
6.99997e-17
8.49215e-17
1.15395e-16
1.39296e-17
4.33623e-17
3.87671e-15
1.79334e-14
3.40954e-09
4.60307e-09
6.67645e-10
1.90908e-10
4.54234e-11
6.44677e-11
2.5167e-10
2.40483e-12
3.27805e-13
8.03639e-14
2.55673e-14
9.76735e-15
4.30094e-15
2.10452e-15
1.11352e-15
6.25417e-16
3.67918e-16
2.24262e-16
1.40328e-16
8.93778e-17
5.74782e-17
3.70134e-17
2.36526e-17
1.48382e-17
9.01404e-18
5.19947e-18
2.76552e-18
1.28786e-18
4.74918e-19
1.07107e-19
4.70496e-21
3.2372e-21
1.05947e-19
5.33448e-19
1.62191e-18
3.70376e-18
7.6581e-18
1.34182e-17
2.40163e-17
3.58589e-17
5.97234e-17
7.79303e-17
1.19595e-16
1.41769e-16
1.60943e-16
2.06013e-16
2.46588e-17
4.01029e-17
2.58712e-15
1.19727e-14
3.21023e-09
4.38633e-09
7.67996e-10
1.99179e-10
3.50807e-11
2.05549e-11
1.23611e-11
1.93684e-11
9.9289e-11
1.74421e-12
2.76242e-13
7.36443e-14
2.58277e-14
1.07746e-14
5.06088e-15
2.59091e-15
1.41522e-15
8.11961e-16
4.83235e-16
2.95172e-16
1.8329e-16
1.14638e-16
7.15254e-17
4.40286e-17
2.63788e-17
1.50933e-17
8.02398e-18
3.77949e-18
1.44344e-18
3.59491e-19
2.53834e-20
2.15223e-21
1.76989e-19
1.02152e-18
3.25642e-18
7.60871e-18
1.58365e-17
2.79621e-17
4.97211e-17
7.48295e-17
1.22448e-16
1.62402e-16
2.41058e-16
2.91948e-16
3.16512e-16
3.86559e-16
6.47217e-17
5.9329e-17
1.6387e-15
7.58924e-15
3.01577e-09
3.96743e-09
8.39952e-10
2.09658e-10
3.71717e-11
1.88627e-11
7.83555e-12
4.0516e-12
3.6524e-12
6.10182e-12
1.04337e-10
3.1528e-12
3.86119e-13
1.00145e-13
3.54057e-14
1.49343e-14
7.07357e-15
3.63456e-15
1.98021e-15
1.12489e-15
6.57347e-16
3.90478e-16
2.33103e-16
1.38124e-16
8.00669e-17
4.45203e-17
2.3094e-17
1.06578e-17
4.00964e-18
9.94004e-19
7.32928e-20
4.09298e-21
4.1579e-19
2.42627e-18
7.68511e-18
1.7815e-17
3.65701e-17
6.4096e-17
1.11937e-16
1.68121e-16
2.68355e-16
3.58582e-16
5.1369e-16
6.29676e-16
6.60494e-16
7.74988e-16
1.87565e-16
1.27485e-16
9.78076e-16
4.63316e-15
2.84435e-09
3.50697e-09
9.00968e-10
2.06755e-10
4.04616e-11
2.02099e-11
8.1689e-12
3.40366e-12
2.08974e-12
1.59756e-12
1.44337e-12
1.74151e-12
4.04021e-12
1.9717e-11
1.27567e-12
2.20896e-13
6.70025e-14
2.60765e-14
1.17006e-14
5.74585e-15
2.99353e-15
1.61889e-15
8.92944e-16
4.94105e-16
2.69485e-16
1.41653e-16
6.95811e-17
3.03244e-17
1.06464e-17
2.36438e-18
1.22892e-19
3.31459e-20
1.47971e-18
7.54033e-18
2.23182e-17
4.95671e-17
9.80401e-17
1.67668e-16
2.8382e-16
4.20597e-16
6.49484e-16
8.65763e-16
1.19331e-15
1.46544e-15
1.49905e-15
1.69445e-15
5.57167e-16
3.39732e-16
5.88241e-16
2.89945e-15
2.67432e-09
3.05097e-09
9.69307e-10
1.95316e-10
4.34256e-11
2.14678e-11
9.25727e-12
3.63441e-12
2.01073e-12
1.31688e-12
9.16639e-13
6.93709e-13
5.96721e-13
6.05794e-13
7.81772e-13
1.60227e-12
1.63188e-11
9.75893e-13
2.07496e-13
6.17527e-14
2.34412e-14
1.01476e-14
4.72677e-15
2.28182e-15
1.10754e-15
5.23625e-16
2.31721e-16
8.99656e-17
2.70589e-17
4.48729e-18
5.62497e-20
5.68966e-19
8.18176e-18
3.2266e-17
8.40032e-17
1.7222e-16
3.19741e-16
5.2315e-16
8.45119e-16
1.21915e-15
1.80325e-15
2.37035e-15
3.12974e-15
3.80676e-15
3.81236e-15
4.15018e-15
1.73436e-15
1.04567e-15
5.36299e-16
2.39373e-15
2.49582e-09
2.6156e-09
1.04845e-09
1.8094e-10
4.65315e-11
2.21716e-11
1.04619e-11
4.04232e-12
2.1614e-12
1.36314e-12
8.88442e-13
6.00616e-13
4.34463e-13
3.38922e-13
2.8546e-13
2.61831e-13
2.66974e-13
3.15412e-13
4.73391e-13
1.1651e-12
1.41581e-11
2.01512e-14
3.06698e-14
1.45965e-14
5.8145e-15
2.23925e-15
8.00907e-16
2.40671e-16
4.84569e-17
2.75716e-18
2.36029e-19
1.53096e-17
7.73967e-17
2.12889e-16
4.54298e-16
8.18969e-16
1.37641e-15
2.09517e-15
3.15878e-15
4.3512e-15
6.07647e-15
7.75302e-15
9.7333e-15
1.15594e-14
1.13294e-14
1.18398e-14
5.95463e-15
3.72229e-15
1.44077e-15
4.34833e-15
2.30945e-09
2.21487e-09
1.13306e-09
1.66228e-10
5.02284e-11
2.24477e-11
1.16901e-11
4.4964e-12
2.36001e-12
1.48033e-12
9.54161e-13
6.25062e-13
4.28869e-13
3.09964e-13
2.34578e-13
1.85284e-13
1.52823e-13
1.31974e-13
1.19933e-13
1.15779e-13
1.20817e-13
1.40792e-13
1.95471e-13
3.7296e-13
1.42693e-12
3.6069e-11
5.0778e-12
2.20798e-14
1.53513e-15
7.337e-16
8.82468e-16
1.3629e-15
2.16349e-15
3.30483e-15
4.90362e-15
6.92643e-15
9.68317e-15
1.2869e-14
1.72381e-14
2.17782e-14
2.78532e-14
3.34996e-14
3.92864e-14
4.45267e-14
4.23506e-14
4.21223e-14
2.43592e-14
1.6125e-14
8.32397e-15
1.83191e-14
2.11751e-09
1.85507e-09
1.21584e-09
1.52212e-10
5.45528e-11
2.24181e-11
1.29604e-11
4.99283e-12
2.57207e-12
1.6139e-12
1.04507e-12
6.80442e-13
4.59335e-13
3.23861e-13
2.36621e-13
1.78006e-13
1.37473e-13
1.0879e-13
8.80717e-14
7.28551e-14
6.15716e-14
5.3217e-14
4.71731e-14
4.31149e-14
4.10374e-14
4.14199e-14
4.58872e-14
5.95977e-14
1.03166e-13
3.055e-13
2.48994e-12
8.3357e-11
3.87082e-11
2.97728e-12
7.9597e-13
4.05814e-13
2.91748e-13
2.47258e-13
2.36919e-13
2.34717e-13
2.45469e-13
2.54039e-13
2.61314e-13
2.66724e-13
2.37639e-13
2.18771e-13
1.38374e-13
9.69929e-14
6.7067e-14
1.24335e-13
1.92165e-09
1.53663e-09
1.29021e-09
1.3965e-10
5.92592e-11
2.21488e-11
1.42693e-11
5.55005e-12
2.79859e-12
1.75408e-12
1.14499e-12
7.46234e-13
5.01021e-13
3.50301e-13
2.52965e-13
1.87148e-13
1.41213e-13
1.08312e-13
8.41603e-14
6.60211e-14
5.21231e-14
4.12873e-14
3.27082e-14
2.58146e-14
2.02e-14
1.55698e-14
1.17242e-14
8.52986e-15
5.91017e-15
3.83146e-15
2.26871e-15
1.21374e-15
5.96625e-16
3.5908e-16
5.44136e-16
4.42344e-15
9.98214e-14
3.84298e-12
1.10158e-10
1.42817e-10
4.3241e-11
1.71913e-11
9.3083e-12
6.02315e-12
4.0248e-12
2.93121e-12
1.78788e-12
1.24626e-12
9.75642e-13
1.49047e-12
1.72409e-09
1.2594e-09
1.35048e-09
1.29421e-10
6.39454e-11
2.17078e-11
1.55777e-11
6.1825e-12
3.04487e-12
1.90108e-12
1.25137e-12
8.17967e-13
5.47553e-13
3.81236e-13
2.74031e-13
2.01484e-13
1.50722e-13
1.14246e-13
8.73763e-14
6.71276e-14
5.15788e-14
3.94591e-14
2.9904e-14
2.23044e-14
1.62304e-14
1.13769e-14
7.53958e-15
4.58556e-15
2.43045e-15
1.01424e-15
2.55588e-16
1.21103e-17
1.08754e-17
3.73167e-16
2.12492e-15
6.97064e-15
1.81442e-14
3.96669e-14
7.92204e-14
1.42873e-13
2.31398e-13
3.33888e-13
3.25192e-13
1.44538e-13
1.40474e-14
1.24185e-11
1.58686e-10
2.38074e-10
1.50185e-10
1.08593e-10
1.52762e-09
1.02308e-09
1.39177e-09
1.22445e-10
6.80913e-11
2.11921e-11
1.68231e-11
6.89978e-12
3.31461e-12
2.05555e-12
1.364e-12
8.95165e-13
5.97705e-13
4.14624e-13
2.97095e-13
2.17712e-13
1.62174e-13
1.22257e-13
9.28398e-14
7.06612e-14
5.36318e-14
4.03788e-14
2.99727e-14
2.17622e-14
1.52874e-14
1.02238e-14
6.3495e-15
3.51389e-15
1.60262e-15
5.05551e-16
6.06066e-17
9.01165e-20
1.45292e-16
1.15893e-15
4.37012e-15
1.17488e-14
2.67698e-14
5.3756e-14
1.00577e-13
1.76079e-13
2.90991e-13
4.64108e-13
6.74137e-13
9.55649e-13
1.12614e-12
1.2005e-12
9.25438e-13
4.19404e-13
1.32497e-13
2.86358e-14
1.33516e-09
8.26493e-10
1.41007e-09
1.19588e-10
7.10999e-11
2.07262e-11
1.7929e-11
7.70807e-12
3.61066e-12
2.21738e-12
1.48219e-12
9.77709e-13
6.51307e-13
4.50002e-13
3.21419e-13
2.34854e-13
1.74372e-13
1.30948e-13
9.89812e-14
7.49043e-14
5.64383e-14
4.20938e-14
3.08662e-14
2.20539e-14
1.51619e-14
9.84193e-15
5.85399e-15
3.03029e-15
1.2307e-15
3.02508e-16
1.3785e-17
1.15144e-17
3.95139e-16
2.11706e-15
6.74645e-15
1.64823e-14
3.49323e-14
6.64379e-14
1.18001e-13
1.97538e-13
3.12332e-13
4.76392e-13
6.70105e-13
9.12354e-13
1.08672e-12
1.19856e-12
1.1259e-12
9.22366e-13
9.38348e-13
1.44944e-12
1.1497e-09
6.67325e-10
1.40249e-09
1.21605e-10
7.241e-11
2.04452e-11
1.8814e-11
8.60885e-12
3.93591e-12
2.38602e-12
1.60453e-12
1.06504e-12
7.08122e-13
4.8709e-13
3.46667e-13
2.5253e-13
1.86885e-13
1.39828e-13
1.05247e-13
7.92483e-14
5.93464e-14
4.39246e-14
3.18948e-14
2.24985e-14
1.52007e-14
9.62679e-15
5.51728e-15
2.68783e-15
9.73878e-16
1.80212e-16
1.15897e-18
5.97355e-17
8.06157e-16
3.47108e-15
9.96845e-15
2.29195e-14
4.63952e-14
8.53213e-14
1.46824e-13
2.39335e-13
3.68889e-13
5.4817e-13
7.57428e-13
1.00625e-12
1.20199e-12
1.33234e-12
1.33628e-12
1.25326e-12
1.45461e-12
2.39469e-12
9.74129e-10
5.42233e-10
1.36763e-09
1.29135e-10
7.16372e-11
2.04718e-11
1.94039e-11
9.59619e-12
4.29347e-12
2.5608e-12
1.72907e-12
1.15607e-12
7.67626e-13
5.25454e-13
3.72444e-13
2.70404e-13
1.99419e-13
1.48622e-13
1.1137e-13
8.34256e-14
6.20864e-14
4.56006e-14
3.27915e-14
2.28397e-14
1.51667e-14
9.36936e-15
5.16715e-15
2.35748e-15
7.48207e-16
9.3985e-17
4.27977e-20
1.79309e-16
1.4791e-15
5.46614e-15
1.45251e-14
3.18999e-14
6.24166e-14
1.12037e-13
1.88676e-13
3.02145e-13
4.58542e-13
6.70517e-13
9.18725e-13
1.20498e-12
1.45021e-12
1.62464e-12
1.7072e-12
1.73394e-12
2.12499e-12
3.47425e-12
8.11161e-10
4.47051e-10
1.30585e-09
1.42671e-10
6.86466e-11
2.0895e-11
1.96435e-11
1.06532e-11
4.68664e-12
2.74089e-12
1.85332e-12
1.24914e-12
8.28965e-13
5.64449e-13
3.982e-13
2.8803e-13
2.11621e-13
1.57048e-13
1.17116e-13
8.72378e-14
6.44869e-14
4.69719e-14
3.34247e-14
2.29629e-14
1.4963e-14
8.99187e-15
4.74684e-15
2.0039e-15
5.36855e-16
3.63692e-17
6.86847e-18
4.29653e-16
2.56621e-15
8.41858e-15
2.09878e-14
4.43558e-14
8.43902e-14
1.48499e-13
2.45944e-13
3.88528e-13
5.83464e-13
8.43847e-13
1.15189e-12
1.50164e-12
1.82506e-12
2.0759e-12
2.26704e-12
2.44317e-12
3.09282e-12
4.96833e-12
6.63096e-10
3.77104e-10
1.21941e-09
1.62435e-10
6.35888e-11
2.17554e-11
1.95085e-11
1.17478e-11
5.11862e-12
2.92527e-12
1.97441e-12
1.34194e-12
8.90893e-13
6.03188e-13
4.23201e-13
3.04822e-13
2.23039e-13
1.64755e-13
1.22211e-13
9.04701e-14
6.63802e-14
4.79087e-14
3.36956e-14
2.27952e-14
1.45389e-14
8.46305e-15
4.2419e-15
1.62597e-15
3.45374e-16
6.87569e-18
4.87214e-17
9.07114e-16
4.28962e-15
1.27621e-14
3.01193e-14
6.15309e-14
1.14228e-13
1.97488e-13
3.22507e-13
5.03615e-13
7.50203e-13
1.07608e-12
1.46651e-12
1.90779e-12
2.343e-12
2.71214e-12
3.06113e-12
3.4577e-12
4.47758e-12
7.05872e-12
5.31656e-10
3.2754e-10
1.11232e-09
1.88158e-10
5.69301e-11
2.3023e-11
1.90153e-11
1.28303e-11
5.59175e-12
3.11255e-12
2.08912e-12
1.43146e-12
9.51696e-13
6.40513e-13
4.46521e-13
3.20045e-13
2.3311e-13
1.71314e-13
1.26326e-13
9.28722e-14
6.75787e-14
4.82743e-14
3.35089e-14
2.22748e-14
1.38598e-14
7.77023e-15
3.6562e-15
1.2373e-15
1.86628e-16
2.20206e-20
1.79166e-16
1.76159e-15
6.97008e-15
1.90987e-14
4.29588e-14
8.51122e-14
1.54546e-13
2.62898e-13
4.23982e-13
6.55245e-13
9.69455e-13
1.38153e-12
1.88145e-12
2.44856e-12
3.03811e-12
3.58121e-12
4.15901e-12
4.87896e-12
6.42719e-12
9.95541e-12
4.17846e-10
2.93572e-10
9.90164e-10
2.18797e-10
4.9429e-11
2.45692e-11
1.82248e-11
1.38327e-11
6.10629e-12
3.30094e-12
2.19403e-12
1.51401e-12
1.00912e-12
6.74968e-13
4.67034e-13
3.32815e-13
2.4116e-13
1.76217e-13
1.29081e-13
9.41601e-14
6.78757e-14
4.7924e-14
3.27695e-14
2.13467e-14
1.2902e-14
6.91348e-15
3.00576e-15
8.59959e-16
7.38425e-17
3.93776e-18
4.90417e-16
3.22079e-15
1.10675e-14
2.82636e-14
6.09216e-14
1.17376e-13
2.08868e-13
3.49988e-13
5.58032e-13
8.54303e-13
1.25638e-12
1.78102e-12
2.42493e-12
3.16219e-12
3.96227e-12
4.75415e-12
5.65999e-12
6.84567e-12
9.13937e-12
1.39372e-11
3.2188e-10
2.70663e-10
8.60316e-10
2.52189e-10
4.20626e-11
2.6156e-11
1.72357e-11
1.4674e-11
6.65864e-12
3.48807e-12
2.28557e-12
1.58528e-12
1.06035e-12
7.04779e-13
4.83425e-13
3.4211e-13
2.46416e-13
1.78893e-13
1.30053e-13
9.40282e-14
6.70559e-14
4.6714e-14
3.13906e-14
1.99679e-14
1.16564e-14
5.90755e-15
2.31871e-15
5.21888e-16
1.43247e-17
5.09154e-17
1.1341e-15
5.62478e-15
1.72364e-14
4.14109e-14
8.59268e-14
1.6137e-13
2.81875e-13
4.65737e-13
7.34821e-13
1.11529e-12
1.63131e-12
2.3028e-12
3.13559e-12
4.10153e-12
5.18764e-12
6.32946e-12
7.70063e-12
9.54656e-12
1.28809e-11
1.93813e-11
2.43091e-10
2.5486e-10
7.31509e-10
2.84919e-10
3.58411e-11
2.74718e-11
1.6169e-11
1.52681e-11
7.23886e-12
3.6711e-12
2.36021e-12
1.64056e-12
1.10197e-12
7.27862e-13
4.9422e-13
3.46809e-13
2.48042e-13
1.78733e-13
1.28807e-13
9.21698e-14
6.49134e-14
4.45174e-14
2.93058e-14
1.81183e-14
1.01358e-14
4.78623e-15
1.63613e-15
2.53332e-16
5.58499e-20
2.3077e-16
2.35133e-15
9.47413e-15
2.64002e-14
6.01258e-14
1.20562e-13
2.21155e-13
3.79746e-13
6.19297e-13
9.67633e-13
1.45718e-12
2.12089e-12
2.98398e-12
4.06462e-12
5.33692e-12
6.81082e-12
8.43933e-12
1.04644e-11
1.32351e-11
1.80091e-11
2.6793e-11
1.80081e-10
2.42925e-10
6.11066e-10
3.12922e-10
3.15118e-11
2.81807e-11
1.51467e-11
1.55366e-11
7.82729e-12
3.84656e-12
2.4144e-12
1.67507e-12
1.13013e-12
7.41859e-13
4.97843e-13
3.45754e-13
2.45186e-13
1.75132e-13
1.24927e-13
8.83096e-14
6.12791e-14
4.12456e-14
2.6487e-14
1.5813e-14
8.38364e-15
3.60637e-15
1.01102e-15
7.96071e-17
7.76017e-18
7.04136e-16
4.51575e-15
1.54963e-14
3.98512e-14
8.65715e-14
1.68296e-13
3.02102e-13
5.10577e-13
8.22593e-13
1.2737e-12
1.90451e-12
2.75961e-12
3.87269e-12
5.27868e-12
6.96025e-12
8.95875e-12
1.12582e-11
1.41937e-11
1.82471e-11
2.49962e-11
3.68385e-11
1.31026e-10
2.32075e-10
5.02791e-10
3.32603e-10
2.94283e-11
2.79785e-11
1.42671e-11
1.54262e-11
8.39163e-12
4.01014e-12
2.44461e-12
1.68426e-12
1.14065e-12
7.44238e-13
4.92715e-13
3.37844e-13
2.37066e-13
1.6756e-13
1.18073e-13
8.22489e-14
5.60569e-14
3.68773e-14
2.29656e-14
1.31173e-14
6.48215e-15
2.44969e-15
5.0295e-16
7.22928e-18
1.03581e-16
1.74231e-15
8.19447e-15
2.47363e-14
5.93837e-14
1.23682e-13
2.33756e-13
4.11287e-13
6.84931e-13
1.09107e-12
1.67523e-12
2.48882e-12
3.5918e-12
5.03079e-12
6.86368e-12
9.09028e-12
1.17961e-11
1.50132e-11
1.9205e-11
2.50212e-11
3.4457e-11
5.03785e-11
9.38244e-11
2.20106e-10
4.0823e-10
3.41625e-10
2.96741e-11
2.67043e-11
1.35809e-11
1.49245e-11
8.88673e-12
4.15635e-12
2.44733e-12
1.66435e-12
1.1295e-12
7.32469e-13
4.77396e-13
3.22177e-13
2.2309e-13
1.55655e-13
1.08059e-13
7.39243e-14
4.92693e-14
3.14926e-14
1.88561e-14
1.01608e-14
4.5577e-15
1.4192e-15
1.64932e-16
5.56812e-19
4.76499e-16
3.78576e-15
1.42336e-14
3.86803e-14
8.747e-14
1.75411e-13
3.23072e-13
5.57974e-13
9.16504e-13
1.44462e-12
2.2007e-12
3.25041e-12
4.67399e-12
6.53715e-12
8.9294e-12
1.18791e-11
1.55343e-11
1.99965e-11
2.59049e-11
3.41204e-11
4.71755e-11
6.8495e-11
6.62766e-11
2.05754e-10
3.27961e-10
3.39137e-10
3.21957e-11
2.44325e-11
1.30804e-11
1.40649e-11
9.25716e-12
4.27802e-12
2.41924e-12
1.61273e-12
1.09322e-12
7.04301e-13
4.5079e-13
2.98226e-13
2.03005e-13
1.39342e-13
9.49384e-14
6.34778e-14
4.11096e-14
2.53083e-14
1.43779e-14
7.14654e-15
2.7784e-15
6.25343e-16
1.71461e-17
6.47383e-17
1.46992e-15
7.52885e-15
2.38777e-14
5.94228e-14
1.27495e-13
2.47059e-13
4.44337e-13
7.54239e-13
1.22298e-12
1.90874e-12
2.88638e-12
4.24045e-12
6.07788e-12
8.49166e-12
1.16149e-11
1.55193e-11
2.04411e-11
2.65784e-11
3.48073e-11
4.62516e-11
6.41237e-11
9.24972e-11
4.63081e-11
1.88651e-10
2.61711e-10
3.25672e-10
3.67874e-11
2.14507e-11
1.27026e-11
1.29218e-11
9.44317e-12
4.36538e-12
2.35743e-12
1.52832e-12
1.02959e-12
6.58142e-13
4.12388e-13
2.66037e-13
1.77069e-13
1.18967e-13
7.91097e-14
5.13281e-14
3.19893e-14
1.87071e-14
9.86649e-15
4.34737e-15
1.33618e-15
1.53948e-16
5.57447e-19
4.56525e-16
3.67132e-15
1.40416e-14
3.89352e-14
8.98931e-14
1.84064e-13
3.45697e-13
6.08176e-13
1.01575e-12
1.6271e-12
2.51595e-12
3.77831e-12
5.52353e-12
7.89363e-12
1.10197e-11
1.50944e-11
2.02522e-11
2.68509e-11
3.52195e-11
4.65466e-11
6.22763e-11
8.64581e-11
1.23878e-10
3.20994e-11
1.69141e-10
2.08395e-10
3.02926e-10
4.29925e-11
1.81683e-11
1.23412e-11
1.15966e-11
9.39029e-12
4.40514e-12
2.25963e-12
1.41179e-12
9.38304e-13
5.93536e-13
3.62562e-13
2.26449e-13
1.46223e-13
9.54316e-14
6.14047e-14
3.82286e-14
2.25695e-14
1.22445e-14
5.76187e-15
2.07631e-15
4.0105e-16
4.05039e-18
1.09343e-16
1.70078e-15
8.04544e-15
2.49432e-14
6.20077e-14
1.34161e-13
2.63419e-13
4.80721e-13
8.28498e-13
1.36278e-12
2.15795e-12
3.30752e-12
4.9345e-12
7.18061e-12
1.02338e-11
1.4277e-11
1.95836e-11
2.63749e-11
3.51734e-11
4.64788e-11
6.18807e-11
8.31984e-11
1.15471e-10
1.64179e-10
2.21414e-11
1.48103e-10
1.66335e-10
2.73397e-10
5.0053e-11
1.50134e-11
1.18687e-11
1.01976e-11
9.06162e-12
4.38019e-12
2.12463e-12
1.26576e-12
8.21533e-13
5.11713e-13
3.02882e-13
1.81291e-13
1.12231e-13
7.02856e-14
4.31435e-14
2.52836e-14
1.37467e-14
6.61162e-15
2.55004e-15
6.10854e-16
2.86051e-17
2.25039e-17
8.2295e-16
4.73482e-15
1.613e-14
4.26486e-14
9.68067e-14
1.97851e-13
3.73978e-13
6.64573e-13
1.12345e-12
1.82142e-12
2.85265e-12
4.33566e-12
6.42774e-12
9.31255e-12
1.32377e-11
1.84553e-11
2.53458e-11
3.4247e-11
4.58977e-11
6.10119e-11
8.16747e-11
1.10112e-10
1.5246e-10
2.14704e-10
1.52363e-11
1.26757e-10
1.33566e-10
2.39921e-10
5.69681e-11
1.23405e-11
1.11723e-11
8.81969e-12
8.44903e-12
4.27081e-12
1.95265e-12
1.09491e-12
6.844e-13
4.16124e-13
2.36407e-13
1.33511e-13
7.77337e-14
4.57347e-14
2.60988e-14
1.38779e-14
6.55404e-15
2.51399e-15
6.24808e-16
3.95671e-17
8.33112e-18
5.06684e-16
3.15613e-15
1.11487e-14
3.03208e-14
7.07169e-14
1.48592e-13
2.88704e-13
5.2707e-13
9.13694e-13
1.51665e-12
2.42525e-12
3.75838e-12
5.66605e-12
8.34883e-12
1.2044e-11
1.7076e-11
2.37867e-11
3.26961e-11
4.42921e-11
5.95876e-11
7.9551e-11
1.06846e-10
1.4408e-10
1.98471e-10
2.76028e-10
1.04789e-11
1.06236e-10
1.08136e-10
2.05307e-10
6.26595e-11
1.03614e-11
1.01939e-11
7.52875e-12
7.57936e-12
4.05778e-12
1.74582e-12
9.06093e-13
5.35073e-13
3.12824e-13
1.67871e-13
8.71599e-14
4.61189e-14
2.44647e-14
1.22915e-14
5.44627e-15
1.91084e-15
4.0754e-16
1.51912e-17
1.72909e-17
5.07321e-16
2.71336e-15
8.94815e-15
2.35442e-14
5.42853e-14
1.14345e-13
2.24776e-13
4.17339e-13
7.37906e-13
1.24978e-12
2.03883e-12
3.21738e-12
4.93504e-12
7.38114e-12
1.08104e-11
1.55279e-11
2.1955e-11
3.05479e-11
4.2003e-11
5.69925e-11
7.68614e-11
1.02853e-10
1.38252e-10
1.85904e-10
2.53877e-10
3.4728e-10
7.21689e-12
8.72438e-11
8.8284e-11
1.71955e-10
6.62262e-11
9.11865e-12
8.94731e-12
6.35548e-12
6.5131e-12
3.72735e-12
1.50835e-12
7.08407e-13
3.84414e-13
2.10456e-13
1.03568e-13
4.70713e-14
2.10766e-14
9.14764e-15
3.48616e-15
9.66977e-16
1.17569e-16
5.96424e-21
1.03253e-16
8.8612e-16
3.30894e-15
9.0677e-15
2.13576e-14
4.60685e-14
9.35604e-14
1.81065e-13
3.35769e-13
5.98294e-13
1.02689e-12
1.70145e-12
2.72991e-12
4.25304e-12
6.45841e-12
9.58392e-12
1.39514e-11
1.99497e-11
2.8121e-11
3.90616e-11
5.36825e-11
7.28702e-11
9.83442e-11
1.31598e-10
1.7649e-10
2.35769e-10
3.17776e-10
4.25284e-10
4.98451e-12
7.02286e-11
7.25417e-11
1.41432e-10
6.71517e-11
8.5239e-12
7.51419e-12
5.29868e-12
5.33515e-12
3.27774e-12
1.24705e-12
5.13125e-13
2.45112e-13
1.19558e-13
5.07115e-14
1.80278e-14
5.62099e-15
1.41992e-15
1.89754e-16
4.58676e-19
6.33486e-17
6.24586e-16
2.2389e-15
5.62858e-15
1.20532e-14
2.38962e-14
4.56114e-14
8.52007e-14
1.56416e-13
2.81726e-13
4.96139e-13
8.5145e-13
1.42139e-12
2.30644e-12
3.64175e-12
5.60301e-12
8.42422e-12
1.24026e-11
1.79416e-11
2.55321e-11
3.58616e-11
4.9692e-11
6.81829e-11
9.2446e-11
1.24581e-10
1.66223e-10
2.21601e-10
2.92752e-10
3.87298e-10
5.03844e-10
3.45334e-12
5.55103e-11
5.97803e-11
1.14503e-10
6.53622e-11
8.41645e-12
6.02124e-12
4.33957e-12
4.14019e-12
2.72487e-12
9.72116e-13
3.33383e-13
1.30142e-13
5.07959e-14
1.57932e-14
3.02272e-15
2.31859e-16
4.81551e-19
1.58664e-16
1.00964e-15
2.99128e-15
6.47821e-15
1.19496e-14
2.031e-14
3.33696e-14
5.45666e-14
9.01314e-14
1.50911e-13
2.55098e-13
4.319e-13
7.26249e-13
1.20398e-12
1.9581e-12
3.11453e-12
4.84174e-12
7.35788e-12
1.09531e-11
1.59957e-11
2.29869e-11
3.25376e-11
4.55044e-11
6.28332e-11
8.59504e-11
1.16167e-10
1.55898e-10
2.06673e-10
2.72663e-10
3.54273e-10
4.57042e-10
5.73611e-10
2.39923e-12
4.31944e-11
4.92015e-11
9.1427e-11
6.11786e-11
8.59737e-12
4.60144e-12
3.45832e-12
3.01729e-12
2.10524e-12
6.98074e-13
1.83152e-13
5.0232e-14
1.15719e-14
1.30718e-15
2.8092e-19
4.46478e-16
2.57665e-15
6.29458e-15
1.16157e-14
1.87878e-14
2.80811e-14
4.00421e-14
5.60076e-14
7.87276e-14
1.13228e-13
1.68223e-13
2.58364e-13
4.07631e-13
6.53856e-13
1.05453e-12
1.69306e-12
2.68634e-12
4.1915e-12
6.41749e-12
9.6335e-12
1.41964e-11
2.05582e-11
2.93336e-11
4.12692e-11
5.74082e-11
7.88823e-11
1.07371e-10
1.44292e-10
1.92197e-10
2.52081e-10
3.27359e-10
4.15652e-10
5.18991e-10
6.23016e-10
1.67064e-12
3.31765e-11
4.02792e-11
7.21221e-11
5.51903e-11
8.85243e-12
3.35852e-12
2.646e-12
2.03763e-12
1.47401e-12
4.44249e-13
7.503e-14
9.79783e-15
2.51355e-16
1.9703e-16
3.92112e-15
1.32596e-14
2.54364e-14
3.83011e-14
5.21242e-14
6.76512e-14
8.53511e-14
1.06069e-13
1.31959e-13
1.67296e-13
2.19457e-13
3.006e-13
4.30432e-13
6.40423e-13
9.79401e-13
1.52068e-12
2.36956e-12
3.67241e-12
5.62432e-12
8.48294e-12
1.25778e-11
1.83436e-11
2.63278e-11
3.72717e-11
5.20662e-11
7.19438e-11
9.81934e-11
1.32676e-10
1.76729e-10
2.32701e-10
3.00419e-10
3.81637e-10
4.70064e-10
5.63266e-10
6.40435e-10
1.16504e-12
2.52158e-11
3.26859e-11
5.6278e-11
4.80948e-11
8.98228e-12
2.34825e-12
1.9099e-12
1.2477e-12
8.97426e-13
2.33622e-13
1.60613e-14
6.35616e-16
3.19677e-15
1.62668e-14
4.23434e-14
7.60364e-14
1.08416e-13
1.36076e-13
1.61341e-13
1.86825e-13
2.13819e-13
2.43853e-13
2.80475e-13
3.30347e-13
4.0428e-13
5.1917e-13
7.01387e-13
9.92051e-13
1.45393e-12
2.18018e-12
3.30327e-12
5.00563e-12
7.5282e-12
1.11863e-11
1.63794e-11
2.36303e-11
3.35904e-11
4.71343e-11
6.52911e-11
8.94584e-11
1.21003e-10
1.61814e-10
2.12824e-10
2.75673e-10
3.48237e-10
4.29677e-10
5.09143e-10
5.79885e-10
6.17284e-10
8.12986e-13
1.90076e-11
2.6223e-11
4.34628e-11
4.05633e-11
8.8366e-12
1.57828e-12
1.27135e-12
6.67981e-13
4.39547e-13
8.80585e-14
1.79338e-16
1.11905e-14
5.19316e-14
1.11293e-13
1.86154e-13
2.63339e-13
3.26874e-13
3.73079e-13
4.09079e-13
4.41779e-13
4.74515e-13
5.10183e-13
5.54587e-13
6.18032e-13
7.16284e-13
8.72701e-13
1.12239e-12
1.51879e-12
2.14227e-12
3.11072e-12
4.5901e-12
6.80666e-12
1.00559e-11
1.47202e-11
2.12778e-11
3.03467e-11
4.26843e-11
5.92913e-11
8.13042e-11
1.10217e-10
1.47323e-10
1.94273e-10
2.51137e-10
3.18201e-10
3.90629e-10
4.64378e-10
5.24392e-10
5.61297e-10
5.51319e-10
5.67266e-13
1.42372e-11
2.07615e-11
3.32104e-11
3.31583e-11
8.34004e-12
1.02182e-12
7.572e-13
2.94427e-13
1.44771e-13
1.76304e-14
4.9235e-15
9.82414e-14
2.55806e-13
4.13611e-13
5.70855e-13
7.12418e-13
8.15862e-13
8.78578e-13
9.16301e-13
9.44126e-13
9.69697e-13
9.98515e-13
1.03998e-12
1.10984e-12
1.23093e-12
1.43538e-12
1.76961e-12
2.30272e-12
3.13709e-12
4.42128e-12
6.36219e-12
9.23875e-12
1.34103e-11
1.93352e-11
2.75759e-11
3.88469e-11
5.4e-11
7.41328e-11
1.00418e-10
1.34316e-10
1.76798e-10
2.28894e-10
2.89253e-10
3.56154e-10
4.21601e-10
4.78471e-10
5.09227e-10
5.05144e-10
4.4921e-10
3.95531e-13
1.06136e-11
1.6203e-11
2.50792e-11
2.62904e-11
7.50055e-12
6.35765e-13
3.87333e-13
9.96938e-14
1.75375e-14
5.44499e-15
8.00942e-14
4.06838e-13
8.18698e-13
1.159e-12
1.44123e-12
1.66582e-12
1.80961e-12
1.87372e-12
1.88758e-12
1.88034e-12
1.86789e-12
1.86062e-12
1.87364e-12
1.93077e-12
2.06484e-12
2.3197e-12
2.75639e-12
3.46366e-12
4.57118e-12
6.26521e-12
8.80218e-12
1.25233e-11
1.78609e-11
2.53554e-11
3.56535e-11
4.95547e-11
6.79724e-11
9.20355e-11
1.22826e-10
1.61558e-10
2.08538e-10
2.637e-10
3.23721e-10
3.84455e-10
4.34949e-10
4.66192e-10
4.61299e-10
4.16517e-10
3.27033e-10
2.75478e-13
7.88454e-12
1.24589e-11
1.86818e-11
2.02107e-11
6.39697e-12
3.76517e-13
1.63119e-13
3.42188e-14
3.03305e-16
5.51032e-14
3.91654e-13
1.20164e-12
2.09839e-12
2.76037e-12
3.22402e-12
3.54127e-12
3.7061e-12
3.73017e-12
3.6636e-12
3.55798e-12
3.44394e-12
3.34091e-12
3.27321e-12
3.27653e-12
3.39769e-12
3.69619e-12
4.25155e-12
5.17687e-12
6.63535e-12
8.85894e-12
1.21631e-11
1.69612e-11
2.37654e-11
3.31994e-11
4.5982e-11
6.29658e-11
8.50591e-11
1.13306e-10
1.485e-10
1.91309e-10
2.40958e-10
2.95813e-10
3.50238e-10
3.97748e-10
4.2559e-10
4.25194e-10
3.84433e-10
3.08574e-10
2.06904e-10
1.91637e-13
5.84048e-12
9.44167e-12
1.36931e-11
1.50383e-11
5.15129e-12
2.09389e-13
6.19611e-14
5.41314e-14
5.53216e-14
3.36948e-13
1.25092e-12
2.94338e-12
4.70263e-12
5.91963e-12
6.64602e-12
7.04617e-12
7.17309e-12
7.06596e-12
6.80643e-12
6.48035e-12
6.14336e-12
5.83123e-12
5.5833e-12
5.45289e-12
5.50629e-12
5.82342e-12
6.50692e-12
7.69951e-12
9.60474e-12
1.25091e-11
1.67968e-11
2.29616e-11
3.15981e-11
4.34033e-11
5.91362e-11
7.96383e-11
1.05698e-10
1.38093e-10
1.77051e-10
2.22336e-10
2.71677e-10
3.21558e-10
3.64146e-10
3.91472e-10
3.91161e-10
3.58259e-10
2.89339e-10
2.00101e-10
1.09378e-10
1.33192e-13
4.31477e-12
7.05594e-12
9.84567e-12
1.07965e-11
3.89693e-12
1.10306e-13
4.70156e-14
2.19839e-13
4.15439e-13
1.2246e-12
3.20738e-12
6.41144e-12
9.64288e-12