/*--------------------------------*- C++ -*----------------------------------*\
  =========                 |
  \\      /  F ield         | OpenFOAM: The Open Source CFD Toolbox
   \\    /   O peration     | Website:  https://openfoam.org
    \\  /    A nd           | Version:  7
     \\/     M anipulation  |
\*---------------------------------------------------------------------------*/
FoamFile
{
    version     2.0;
    format      ascii;
    class       surfaceScalarField;
    location    "0.07";
    object      phi;
}
// * * * * * * * * * * * * * * * * * * * * * * * * * * * * * * * * * * * * * //

dimensions      [0 3 -1 0 0 0 0];

internalField   nonuniform List<scalar> 
139350
(
6.45103e-08
9.21212e-08
3.19591e-08
3.25512e-08
2.30481e-08
8.91103e-09
1.9556e-08
3.49205e-09
1.75955e-08
1.96051e-09
1.61555e-08
1.43999e-09
1.50119e-08
1.14366e-09
1.40881e-08
9.23784e-10
1.33257e-08
7.62418e-10
1.26814e-08
6.44237e-10
1.21267e-08
5.54734e-10
1.16422e-08
4.84481e-10
1.12143e-08
4.27912e-10
1.08328e-08
3.81534e-10
1.04898e-08
3.42965e-10
1.01793e-08
3.10506e-10
9.8964e-09
2.82907e-10
9.63716e-09
2.59239e-10
9.39837e-09
2.38789e-10
9.17736e-09
2.21012e-10
8.97188e-09
2.05478e-10
8.78003e-09
1.91847e-10
8.60019e-09
1.79845e-10
8.43094e-09
1.69251e-10
8.27105e-09
1.59884e-10
8.11945e-09
1.51597e-10
7.97519e-09
1.44262e-10
7.83741e-09
1.37782e-10
7.70535e-09
1.32064e-10
7.5783e-09
1.27047e-10
7.45565e-09
1.22651e-10
7.33679e-09
1.18856e-10
7.22123e-09
1.15563e-10
7.10841e-09
1.12823e-10
6.99796e-09
1.10451e-10
6.88932e-09
1.08639e-10
6.78231e-09
1.07004e-10
6.67631e-09
1.06003e-10
6.57142e-09
1.04887e-10
6.46694e-09
1.04488e-10
6.36328e-09
1.03651e-10
6.26001e-09
1.0327e-10
6.15736e-09
1.0265e-10
6.0569e-09
1.00466e-10
5.95594e-09
1.00957e-10
5.86476e-09
9.11833e-11
5.76611e-09
9.8646e-11
5.71572e-09
5.03921e-11
5.52072e-09
1.95003e-10
-2.56511e-09
8.08583e-09
1.25941e-07
1.27624e-07
9.1279e-08
6.72128e-08
7.19121e-08
2.8278e-08
6.11777e-08
1.42265e-08
5.47183e-08
8.41984e-09
5.01967e-08
5.96164e-09
4.66824e-08
4.65791e-09
4.38372e-08
3.76905e-09
4.14808e-08
3.11879e-09
3.94883e-08
2.63668e-09
3.7773e-08
2.27004e-09
3.62751e-08
1.98238e-09
3.49522e-08
1.75089e-09
3.37726e-08
1.56109e-09
3.27124e-08
1.40319e-09
3.17527e-08
1.27023e-09
3.08784e-08
1.15711e-09
3.00776e-08
1.06004e-09
2.93403e-08
9.76116e-10
2.86582e-08
9.03105e-10
2.80245e-08
8.39254e-10
2.74331e-08
7.83174e-10
2.68792e-08
7.33748e-10
2.63584e-08
6.90071e-10
2.58669e-08
6.51403e-10
2.54013e-08
6.17136e-10
2.49588e-08
5.86763e-10
2.45368e-08
5.59872e-10
2.41327e-08
5.36106e-10
2.37446e-08
5.1519e-10
2.33704e-08
4.96852e-10
2.30083e-08
4.80944e-10
2.26566e-08
4.67194e-10
2.23138e-08
4.55633e-10
2.19785e-08
4.45824e-10
2.16489e-08
4.38161e-10
2.13243e-08
4.31691e-10
2.10026e-08
4.27614e-10
2.06838e-08
4.23728e-10
2.03654e-08
4.22914e-10
2.00486e-08
4.20464e-10
1.97297e-08
4.22174e-10
1.94129e-08
4.19424e-10
1.90923e-08
4.21086e-10
1.8777e-08
4.16222e-10
1.84608e-08
4.07364e-10
1.8151e-08
4.08519e-10
1.78965e-08
3.04799e-10
1.75111e-08
5.80487e-10
-3.03555e-09
1.79815e-08
1.58751e-07
1.35277e-07
1.36517e-07
8.94465e-08
1.17466e-07
4.73287e-08
1.03264e-07
2.84291e-08
9.32375e-08
1.84459e-08
8.58994e-08
1.32997e-08
8.01492e-08
1.04081e-08
7.54519e-08
8.46642e-09
7.1526e-08
7.04463e-09
6.8185e-08
5.97772e-09
6.52961e-08
5.15892e-09
6.27652e-08
4.51331e-09
6.0524e-08
3.99204e-09
5.85217e-08
3.56344e-09
5.67189e-08
3.20596e-09
5.50849e-08
2.90424e-09
5.3595e-08
2.64703e-09
5.22292e-08
2.42587e-09
5.09709e-08
2.23434e-09
4.98066e-08
2.06743e-09
4.87246e-08
1.92123e-09
4.77152e-08
1.79261e-09
4.67699e-08
1.67907e-09
4.58814e-08
1.57856e-09
4.50434e-08
1.48942e-09
4.42502e-08
1.41026e-09
4.3497e-08
1.33996e-09
4.27794e-08
1.27755e-09
4.20932e-08
1.22225e-09
4.1435e-08
1.17342e-09
4.08014e-08
1.13048e-09
4.01893e-08
1.09304e-09
3.95959e-08
1.0606e-09
3.90184e-08
1.03306e-09
3.84545e-08
1.00975e-09
3.79015e-08
9.9116e-10
3.73574e-08
9.75778e-10
3.68194e-08
9.65604e-10
3.62865e-08
9.56651e-10
3.57547e-08
9.54686e-10
3.52256e-08
9.49588e-10
3.4692e-08
9.55745e-10
3.41618e-08
9.49619e-10
3.36203e-08
9.62603e-10
3.30892e-08
9.47392e-10
3.25411e-08
9.55449e-10
3.20135e-08
9.3612e-10
3.15158e-08
8.02438e-10
3.10011e-08
1.0952e-09
-2.48515e-09
3.04507e-08
1.7561e-07
1.31183e-07
1.65616e-07
9.94405e-08
1.52713e-07
6.02325e-08
1.40077e-07
4.10643e-08
1.29361e-07
2.9162e-08
1.20678e-07
2.19832e-08
1.13514e-07
1.75722e-08
1.07475e-07
1.45047e-08
1.02314e-07
1.22059e-08
9.78488e-08
1.04431e-08
9.39405e-08
9.0672e-09
9.04847e-08
7.96912e-09
8.74022e-08
7.07459e-09
8.46318e-08
6.33378e-09
8.21256e-08
5.71216e-09
7.98451e-08
5.18481e-09
7.77588e-08
4.73325e-09
7.58412e-08
4.34347e-09
7.40708e-08
4.00472e-09
7.24297e-08
3.70859e-09
7.09025e-08
3.44844e-09
6.94761e-08
3.21895e-09
6.81394e-08
3.01582e-09
6.68824e-08
2.83555e-09
6.56966e-08
2.67526e-09
6.45743e-08
2.53254e-09
6.35088e-08
2.40542e-09
6.24941e-08
2.29224e-09
6.15248e-08
2.19164e-09
6.05957e-08
2.10245e-09
5.97025e-08
2.02372e-09
5.88409e-08
1.95468e-09
5.80069e-08
1.89459e-09
5.71968e-08
1.84312e-09
5.64072e-08
1.79934e-09
5.56346e-08
1.7638e-09
5.4876e-08
1.7344e-09
5.41276e-08
1.71398e-09
5.33876e-08
1.6966e-09
5.2651e-08
1.69137e-09
5.19187e-08
1.68181e-09
5.11817e-08
1.69279e-09
5.04488e-08
1.68253e-09
4.97008e-08
1.71059e-09
4.89637e-08
1.68451e-09
4.8202e-08
1.71713e-09
4.74625e-08
1.67559e-09
4.67334e-08
1.53156e-09
4.6061e-08
1.76762e-09
-1.50218e-09
4.5078e-08
1.84509e-07
1.23458e-07
1.82336e-07
1.01614e-07
1.76105e-07
6.64634e-08
1.67726e-07
4.94434e-08
1.59074e-07
3.78145e-08
1.51124e-07
2.9933e-08
1.43997e-07
2.4699e-08
1.37634e-07
2.08673e-08
1.31965e-07
1.78752e-08
1.26907e-07
1.55016e-08
1.22375e-07
1.35989e-08
1.18295e-07
1.20493e-08
1.14602e-07
1.07668e-08
1.11245e-07
9.69086e-09
1.08179e-07
8.77838e-09
1.05367e-07
7.99729e-09
1.02777e-07
7.32328e-09
1.00383e-07
6.73759e-09
9.81617e-08
6.22557e-09
9.60946e-08
5.77563e-09
9.41646e-08
5.37849e-09
9.23569e-08
5.02665e-09
9.06587e-08
4.714e-09
8.90588e-08
4.43547e-09
8.75471e-08
4.18691e-09
8.61148e-08
3.96483e-09
8.47539e-08
3.76632e-09
8.34572e-08
3.58893e-09
8.22182e-08
3.43065e-09
8.10309e-08
3.28973e-09
7.98899e-08
3.16479e-09
7.87899e-08
3.05461e-09
7.77263e-08
2.95819e-09
7.66946e-08
2.87488e-09
7.56903e-08
2.80355e-09
7.47095e-08
2.74468e-09
7.37482e-08
2.69569e-09
7.2802e-08
2.66014e-09
7.18683e-08
2.63026e-09
7.09413e-08
2.61839e-09
7.00212e-08
2.60187e-09
6.90982e-08
2.61584e-09
6.81799e-08
2.60088e-09
6.72472e-08
2.6433e-09
6.63225e-08
2.60912e-09
6.5375e-08
2.66465e-09
6.44418e-08
2.60883e-09
6.3516e-08
2.45735e-09
6.26569e-08
2.62674e-09
-2.95562e-10
6.14503e-08
1.90342e-07
1.15333e-07
1.91856e-07
1.001e-07
1.90252e-07
6.80671e-08
1.86132e-07
5.3564e-08
1.80667e-07
4.32794e-08
1.74877e-07
3.57227e-08
1.69131e-07
3.04455e-08
1.63586e-07
2.64124e-08
1.58341e-07
2.31202e-08
1.5344e-07
2.04026e-08
1.48887e-07
1.81514e-08
1.44669e-07
1.62679e-08
1.40761e-07
1.46741e-08
1.3714e-07
1.33121e-08
1.3378e-07
1.21387e-08
1.30656e-07
1.11209e-08
1.27747e-07
1.02325e-08
1.25032e-07
9.45272e-09
1.22492e-07
8.76509e-09
1.20112e-07
8.15614e-09
1.17875e-07
7.61493e-09
1.1577e-07
7.13246e-09
1.13782e-07
6.70127e-09
1.11903e-07
6.31515e-09
1.10121e-07
5.96888e-09
1.08427e-07
5.65805e-09
1.06815e-07
5.37898e-09
1.05275e-07
5.12849e-09
1.03802e-07
4.90399e-09
1.02388e-07
4.70319e-09
1.01029e-07
4.52428e-09
9.97178e-08
4.36565e-09
9.845e-08
4.22602e-09
9.72204e-08
4.10443e-09
9.60244e-08
3.99957e-09
9.48573e-08
3.91183e-09
9.37147e-08
3.83822e-09
9.2592e-08
3.78288e-09
9.14857e-08
3.73654e-09
9.03899e-08
3.71418e-09
8.93037e-08
3.68813e-09
8.82178e-08
3.70169e-09
8.71369e-08
3.68179e-09
8.60458e-08
3.73439e-09
8.49582e-08
3.69676e-09
8.38558e-08
3.76703e-09
8.27552e-08
3.70939e-09
8.16695e-08
3.54305e-09
8.06347e-08
3.66156e-09
1.08412e-09
7.9255e-08
1.95503e-07
1.07644e-07
1.98244e-07
9.73588e-08
1.98978e-07
6.73334e-08
1.97773e-07
5.47685e-08
1.95121e-07
4.59321e-08
1.91752e-07
3.90913e-08
1.87979e-07
3.42182e-08
1.83975e-07
3.04164e-08
1.79891e-07
2.72044e-08
1.75838e-07
2.44556e-08
1.71886e-07
2.21035e-08
1.68075e-07
2.00787e-08
1.64428e-07
1.83216e-08
1.60953e-07
1.67866e-08
1.57653e-07
1.54384e-08
1.54525e-07
1.42489e-08
1.51563e-07
1.31952e-08
1.48757e-07
1.22582e-08
1.461e-07
1.14223e-08
1.43582e-07
1.06744e-08
1.41193e-07
1.00036e-08
1.38925e-07
9.40056e-09
1.36768e-07
8.85757e-09
1.34716e-07
8.36796e-09
1.32758e-07
7.9261e-09
1.30889e-07
7.52712e-09
1.29101e-07
7.16691e-09
1.27388e-07
6.84188e-09
1.25743e-07
6.54906e-09
1.2416e-07
6.2858e-09
1.22635e-07
6.05002e-09
1.2116e-07
5.8398e-09
1.19733e-07
5.65368e-09
1.18347e-07
5.49048e-09
1.16998e-07
5.34876e-09
1.15681e-07
5.22881e-09
1.14391e-07
5.12742e-09
1.13125e-07
5.04909e-09
1.11878e-07
4.98353e-09
1.10645e-07
4.94754e-09
1.09423e-07
4.91012e-09
1.08205e-07
4.9197e-09
1.06991e-07
4.89515e-09
1.05773e-07
4.95243e-09
1.04554e-07
4.9163e-09
1.0333e-07
4.99136e-09
1.02096e-07
4.94297e-09
1.00883e-07
4.75615e-09
9.97078e-08
4.83664e-09
2.60414e-09
9.81878e-08
2.00818e-07
1.00411e-07
2.03769e-07
9.44087e-08
2.05338e-07
6.57639e-08
2.05632e-07
5.44747e-08
2.04789e-07
4.67756e-08
2.03288e-07
4.05914e-08
2.0131e-07
3.61966e-08
1.98937e-07
3.27892e-08
1.96277e-07
2.9865e-08
1.93431e-07
2.7301e-08
1.90483e-07
2.50522e-08
1.87492e-07
2.30691e-08
1.84506e-07
2.13078e-08
1.81557e-07
1.97352e-08
1.7867e-07
1.83259e-08
1.75859e-07
1.70595e-08
1.73136e-07
1.59188e-08
1.70505e-07
1.48892e-08
1.67969e-07
1.39581e-08
1.65529e-07
1.31147e-08
1.63183e-07
1.23498e-08
1.60928e-07
1.16552e-08
1.58761e-07
1.1024e-08
1.56679e-07
1.04501e-08
1.54677e-07
9.92818e-09
1.52751e-07
9.45352e-09
1.50896e-07
9.02214e-09
1.49107e-07
8.63047e-09
1.47381e-07
8.27553e-09
1.45712e-07
7.95461e-09
1.44096e-07
7.6656e-09
1.42529e-07
7.40646e-09
1.41007e-07
7.17574e-09
1.39526e-07
6.97214e-09
1.3808e-07
6.79425e-09
1.36667e-07
6.6423e-09
1.35281e-07
6.51304e-09
1.33919e-07
6.41117e-09
1.32577e-07
6.32596e-09
1.31249e-07
6.27507e-09
1.29933e-07
6.22607e-09
1.28624e-07
6.22929e-09
1.27318e-07
6.20119e-09
1.26011e-07
6.25854e-09
1.24699e-07
6.22826e-09
1.23391e-07
6.30028e-09
1.22066e-07
6.26792e-09
1.2076e-07
6.06199e-09
1.19486e-07
6.11088e-09
4.21729e-09
1.17872e-07
2.06422e-07
9.35209e-08
2.09328e-07
9.15024e-08
2.11049e-07
6.40429e-08
2.11923e-07
5.36004e-08
2.11977e-07
4.67224e-08
2.11576e-07
4.09917e-08
2.10824e-07
3.69487e-08
2.09721e-07
3.38922e-08
2.08305e-07
3.12811e-08
2.06634e-07
2.89723e-08
2.04763e-07
2.69231e-08
2.02742e-07
2.50901e-08
2.00614e-07
2.34355e-08
1.98417e-07
2.19324e-08
1.96181e-07
2.05622e-08
1.9393e-07
1.93101e-08
1.91685e-07
1.81643e-08
1.89459e-07
1.71145e-08
1.87266e-07
1.61518e-08
1.85112e-07
1.52686e-08
1.83004e-07
1.44579e-08
1.80945e-07
1.37136e-08
1.78939e-07
1.30303e-08
1.76986e-07
1.24032e-08
1.75086e-07
1.18279e-08
1.73239e-07
1.13005e-08
1.71444e-07
1.08177e-08
1.69698e-07
1.03763e-08
1.68e-07
9.9737e-09
1.66347e-07
9.60749e-09
1.64737e-07
9.27581e-09
1.63166e-07
8.97674e-09
1.61633e-07
8.70904e-09
1.60134e-07
8.47147e-09
1.58665e-07
8.26281e-09
1.57224e-07
8.08335e-09
1.55807e-07
7.92995e-09
1.54411e-07
7.80746e-09
1.53032e-07
7.70515e-09
1.51666e-07
7.64086e-09
1.5031e-07
7.58223e-09
1.4896e-07
7.57897e-09
1.47612e-07
7.54965e-09
1.46266e-07
7.60471e-09
1.4491e-07
7.58405e-09
1.43561e-07
7.64903e-09
1.42193e-07
7.63581e-09
1.40837e-07
7.41828e-09
1.39508e-07
7.43995e-09
5.86871e-09
1.37856e-07
2.12268e-07
8.69152e-08
2.15137e-07
8.86335e-08
2.16804e-07
6.23759e-08
2.17838e-07
5.25664e-08
2.18237e-07
4.6323e-08
2.18342e-07
4.08874e-08
2.18248e-07
3.70425e-08
2.17923e-07
3.42171e-08
2.17359e-07
3.18447e-08
2.16575e-07
2.97568e-08
2.15592e-07
2.79053e-08
2.14437e-07
2.62452e-08
2.13136e-07
2.47373e-08
2.11713e-07
2.33552e-08
2.10193e-07
2.20815e-08
2.086e-07
2.09038e-08
2.06951e-07
1.98127e-08
2.05265e-07
1.88007e-08
2.03555e-07
1.78614e-08
2.01835e-07
1.69895e-08
2.00112e-07
1.61802e-08
1.98396e-07
1.54293e-08
1.96694e-07
1.47331e-08
1.95009e-07
1.40881e-08
1.93345e-07
1.34913e-08
1.91706e-07
1.29396e-08
1.90093e-07
1.24308e-08
1.88507e-07
1.19623e-08
1.86949e-07
1.15322e-08
1.85417e-07
1.11386e-08
1.83913e-07
1.07801e-08
1.82435e-07
1.04552e-08
1.80981e-07
1.0163e-08
1.7955e-07
9.90243e-09
1.7814e-07
9.67265e-09
1.76749e-07
9.47413e-09
1.75375e-07
9.30398e-09
1.74015e-07
9.16719e-09
1.72667e-07
9.05335e-09
1.71328e-07
8.98006e-09
1.69994e-07
8.91612e-09
1.68664e-07
8.90882e-09
1.67332e-07
8.88203e-09
1.66001e-07
8.93513e-09
1.64658e-07
8.92772e-09
1.63321e-07
8.98558e-09
1.61964e-07
8.99271e-09
1.60608e-07
8.7748e-09
1.59273e-07
8.77456e-09
7.50087e-09
1.57641e-07
2.18314e-07
8.05821e-08
2.21186e-07
8.57613e-08
2.22776e-07
6.07858e-08
2.23838e-07
5.15042e-08
2.24346e-07
4.58151e-08
2.24629e-07
4.06047e-08
2.24813e-07
3.6858e-08
2.2487e-07
3.41602e-08
2.24778e-07
3.19371e-08
2.24535e-07
2.99994e-08
2.24146e-07
2.82944e-08
2.23616e-07
2.67753e-08
2.22954e-07
2.53998e-08
2.2217e-07
2.41388e-08
2.21278e-07
2.29732e-08
2.20292e-07
2.18901e-08
2.19225e-07
2.08801e-08
2.18089e-07
1.99362e-08
2.16898e-07
1.90531e-08
2.15661e-07
1.82262e-08
2.14389e-07
1.74522e-08
2.1309e-07
1.67279e-08
2.11773e-07
1.60507e-08
2.10443e-07
1.54183e-08
2.09105e-07
1.48285e-08
2.07766e-07
1.42794e-08
2.06427e-07
1.37695e-08
2.05092e-07
1.3297e-08
2.03764e-07
1.28606e-08
2.02443e-07
1.24592e-08
2.01132e-07
1.20918e-08
1.99829e-07
1.17573e-08
1.98537e-07
1.14553e-08
1.97254e-07
1.11852e-08
1.95981e-07
1.09464e-08
1.94715e-07
1.07398e-08
1.93456e-07
1.05626e-08
1.92203e-07
1.04202e-08
1.90954e-07
1.03026e-08
1.89707e-07
1.02269e-08
1.88459e-07
1.01638e-08
1.87211e-07
1.01569e-08
1.85956e-07
1.01376e-08
1.84699e-07
1.01914e-08
1.83426e-07
1.02009e-08
1.82157e-07
1.02547e-08
1.80867e-07
1.02827e-08
1.79565e-07
1.00772e-08
1.78277e-07
1.00622e-08
9.05643e-09
1.76721e-07
2.24548e-07
7.45277e-08
2.27446e-07
8.28629e-08
2.28972e-07
5.92598e-08
2.30041e-07
5.04352e-08
2.30589e-07
4.5267e-08
2.3092e-07
4.02738e-08
2.31195e-07
3.65836e-08
2.31401e-07
3.39541e-08
2.31519e-07
3.18185e-08
2.31548e-07
2.99708e-08
2.31485e-07
2.83573e-08
2.31328e-07
2.69323e-08
2.31076e-07
2.56519e-08
2.3073e-07
2.44845e-08
2.30295e-07
2.34089e-08
2.29774e-07
2.24107e-08
2.29175e-07
2.14795e-08
2.28503e-07
2.06075e-08
2.27767e-07
1.9789e-08
2.26974e-07
1.90196e-08
2.2613e-07
1.8296e-08
2.25243e-07
1.76154e-08
2.24318e-07
1.69756e-08
2.23361e-07
1.63748e-08
2.22378e-07
1.58115e-08
2.21373e-07
1.52842e-08
2.20351e-07
1.4792e-08
2.19314e-07
1.43337e-08
2.18266e-07
1.39086e-08
2.17209e-07
1.3516e-08
2.16146e-07
1.31554e-08
2.15077e-07
1.28262e-08
2.14004e-07
1.25284e-08
2.12927e-07
1.22617e-08
2.11848e-07
1.20259e-08
2.10766e-07
1.18222e-08
2.0968e-07
1.16482e-08
2.08591e-07
1.15094e-08
2.07497e-07
1.13964e-08
2.06399e-07
1.13256e-08
2.05292e-07
1.127e-08
2.0418e-07
1.1269e-08
2.03055e-07
1.12626e-08
2.01926e-07
1.13209e-08
2.00776e-07
1.13508e-08
1.99625e-07
1.14055e-08
1.98453e-07
1.14547e-08
1.97257e-07
1.12738e-08
1.96066e-07
1.12527e-08
1.04831e-08
1.9464e-07
2.30973e-07
6.87602e-08
2.33907e-07
7.99296e-08
2.35376e-07
5.77908e-08
2.36453e-07
4.9358e-08
2.37033e-07
4.46863e-08
2.37379e-07
3.99283e-08
2.37675e-07
3.62878e-08
2.37927e-07
3.3702e-08
2.38121e-07
3.16238e-08
2.3826e-07
2.98316e-08
2.38345e-07
2.82724e-08
2.38374e-07
2.69041e-08
2.38342e-07
2.56835e-08
2.38249e-07
2.45779e-08
2.38092e-07
2.35651e-08
2.37873e-07
2.26296e-08
2.37593e-07
2.17597e-08
2.37254e-07
2.0947e-08
2.36858e-07
2.01851e-08
2.36408e-07
1.94689e-08
2.3591e-07
1.87949e-08
2.35365e-07
1.81601e-08
2.34778e-07
1.75622e-08
2.34154e-07
1.69995e-08
2.33495e-07
1.64705e-08
2.32805e-07
1.59741e-08
2.32087e-07
1.55094e-08
2.31345e-07
1.50757e-08
2.30581e-07
1.46725e-08
2.29798e-07
1.42994e-08
2.28997e-07
1.39564e-08
2.2818e-07
1.3643e-08
2.27349e-07
1.33595e-08
2.26504e-07
1.31061e-08
2.25648e-07
1.28827e-08
2.24779e-07
1.26908e-08
2.23899e-07
1.25283e-08
2.23007e-07
1.24008e-08
2.22104e-07
1.22996e-08
2.2119e-07
1.224e-08
2.20262e-07
1.2198e-08
2.19323e-07
1.22078e-08
2.18367e-07
1.22188e-08
2.17402e-07
1.22856e-08
2.16414e-07
1.23383e-08
2.1542e-07
1.23996e-08
2.14405e-07
1.24697e-08
2.13355e-07
1.23237e-08
2.12302e-07
1.23056e-08
1.17402e-08
2.11045e-07
2.376e-07
6.32853e-08
2.40572e-07
7.69571e-08
2.41984e-07
5.63791e-08
2.43068e-07
4.82739e-08
2.43685e-07
4.40694e-08
2.44043e-07
3.95704e-08
2.44344e-07
3.5987e-08
2.44608e-07
3.34381e-08
2.44825e-07
3.14069e-08
2.45e-07
2.96562e-08
2.4514e-07
2.81329e-08
2.45244e-07
2.67999e-08
2.45311e-07
2.56162e-08
2.4534e-07
2.45492e-08
2.45329e-07
2.35765e-08
2.45276e-07
2.26821e-08
2.45182e-07
2.18542e-08
2.45045e-07
2.10836e-08
2.44866e-07
2.03636e-08
2.44647e-07
1.96886e-08
2.44387e-07
1.90546e-08
2.44089e-07
1.84584e-08
2.43754e-07
1.78974e-08
2.43383e-07
1.73698e-08
2.4298e-07
1.68739e-08
2.42545e-07
1.64085e-08
2.42082e-07
1.59729e-08
2.41591e-07
1.55664e-08
2.41075e-07
1.51885e-08
2.40536e-07
1.48391e-08
2.39974e-07
1.45181e-08
2.39391e-07
1.42255e-08
2.38789e-07
1.39615e-08
2.38169e-07
1.37267e-08
2.37531e-07
1.3521e-08
2.36875e-07
1.33463e-08
2.36203e-07
1.32004e-08
2.35515e-07
1.3089e-08
2.3481e-07
1.30042e-08
2.3409e-07
1.296e-08
2.33353e-07
1.29354e-08
2.32601e-07
1.29594e-08
2.3183e-07
1.29904e-08
2.31046e-07
1.30688e-08
2.3024e-07
1.31451e-08
2.29422e-07
1.32176e-08
2.28583e-07
1.3308e-08
2.27704e-07
1.32036e-08
2.26812e-07
1.3197e-08
1.28047e-08
2.25748e-07
2.44435e-07
5.81065e-08
2.47446e-07
7.39462e-08
2.48802e-07
5.50229e-08
2.49889e-07
4.71872e-08
2.50544e-07
4.34144e-08
2.50918e-07
3.91964e-08
2.51222e-07
3.56824e-08
2.51491e-07
3.31693e-08
2.51715e-07
3.11832e-08
2.519e-07
2.94708e-08
2.52056e-07
2.79771e-08
2.52186e-07
2.66704e-08
2.52289e-07
2.55124e-08
2.52367e-07
2.44712e-08
2.52419e-07
2.35246e-08
2.52444e-07
2.26571e-08
2.52442e-07
2.18566e-08
2.52411e-07
2.11141e-08
2.52353e-07
2.04224e-08
2.52265e-07
1.97761e-08
2.52149e-07
1.91708e-08
2.52004e-07
1.86032e-08
2.51831e-07
1.80704e-08
2.51631e-07
1.75703e-08
2.51403e-07
1.71014e-08
2.5115e-07
1.66621e-08
2.50871e-07
1.62517e-08
2.50568e-07
1.58695e-08
2.50241e-07
1.5515e-08
2.49892e-07
1.51881e-08
2.49521e-07
1.48887e-08
2.4913e-07
1.4617e-08
2.48718e-07
1.43732e-08
2.48287e-07
1.4158e-08
2.47837e-07
1.39713e-08
2.47368e-07
1.38151e-08
2.46881e-07
1.36875e-08
2.46376e-07
1.35939e-08
2.45853e-07
1.35271e-08
2.45313e-07
1.34998e-08
2.44755e-07
1.34939e-08
2.44181e-07
1.35331e-08
2.43587e-07
1.35848e-08
2.42979e-07
1.36761e-08
2.4235e-07
1.37748e-08
2.41706e-07
1.38615e-08
2.41043e-07
1.39705e-08
2.40336e-07
1.39109e-08
2.39611e-07
1.39224e-08
1.36744e-08
2.38741e-07
2.51487e-07
5.3226e-08
2.54526e-07
7.09071e-08
2.55838e-07
5.37112e-08
2.56922e-07
4.61033e-08
2.57614e-07
4.27221e-08
2.58007e-07
3.88037e-08
2.58317e-07
3.53726e-08
2.5859e-07
3.28959e-08
2.58818e-07
3.09553e-08
2.59007e-07
2.9282e-08
2.59167e-07
2.78171e-08
2.59303e-07
2.65342e-08
2.59418e-07
2.53978e-08
2.59512e-07
2.43771e-08
2.59586e-07
2.34503e-08
2.59641e-07
2.2602e-08
2.59677e-07
2.18207e-08
2.59693e-07
2.10974e-08
2.59691e-07
2.04252e-08
2.59668e-07
1.97985e-08
2.59626e-07
1.9213e-08
2.59564e-07
1.86652e-08
2.59482e-07
1.81524e-08
2.5938e-07
1.76724e-08
2.59258e-07
1.72232e-08
2.59116e-07
1.68037e-08
2.58955e-07
1.64128e-08
2.58775e-07
1.60498e-08
2.58576e-07
1.57142e-08
2.58358e-07
1.54059e-08
2.58122e-07
1.51249e-08
2.57868e-07
1.48712e-08
2.57596e-07
1.46453e-08
2.57306e-07
1.44477e-08
2.56999e-07
1.42783e-08
2.56675e-07
1.41393e-08
2.56333e-07
1.40288e-08
2.55975e-07
1.39519e-08
2.556e-07
1.39023e-08
2.55209e-07
1.38909e-08
2.548e-07
1.39028e-08
2.54377e-07
1.39565e-08
2.53934e-07
1.40272e-08
2.53479e-07
1.41312e-08
2.53004e-07
1.42495e-08
2.52514e-07
1.43518e-08
2.52007e-07
1.44769e-08
2.51457e-07
1.44619e-08
2.50883e-07
1.44959e-08
1.43661e-08
2.50191e-07
2.58765e-07
4.8644e-08
2.61822e-07
6.78502e-08
2.631e-07
5.2433e-08
2.64176e-07
4.50274e-08
2.64903e-07
4.19948e-08
2.65317e-07
3.83902e-08
2.65633e-07
3.50567e-08
2.65911e-07
3.26177e-08
2.66143e-07
3.07228e-08
2.66335e-07
2.90904e-08
2.66496e-07
2.76555e-08
2.66634e-07
2.63964e-08
2.66751e-07
2.5281e-08
2.66849e-07
2.42793e-08
2.66929e-07
2.337e-08
2.66993e-07
2.25381e-08
2.67042e-07
2.17723e-08
2.67075e-07
2.1064e-08
2.67094e-07
2.04064e-08
2.67098e-07
1.97941e-08
2.67088e-07
1.92229e-08
2.67064e-07
1.86894e-08
2.67026e-07
1.81909e-08
2.66973e-07
1.77251e-08
2.66906e-07
1.72903e-08
2.66824e-07
1.68851e-08
2.66729e-07
1.65085e-08
2.66619e-07
1.61597e-08
2.66495e-07
1.58385e-08
2.66356e-07
1.55444e-08
2.66203e-07
1.52777e-08
2.66036e-07
1.50384e-08
2.65855e-07
1.48267e-08
2.65659e-07
1.46435e-08
2.65449e-07
1.44885e-08
2.65224e-07
1.4364e-08
2.64985e-07
1.4268e-08
2.64731e-07
1.42054e-08
2.64463e-07
1.41706e-08
2.64181e-07
1.41729e-08
2.63884e-07
1.42002e-08
2.63574e-07
1.42663e-08
2.63248e-07
1.43533e-08
2.62911e-07
1.44685e-08
2.62557e-07
1.46028e-08
2.62189e-07
1.47202e-08
2.61807e-07
1.4859e-08
2.61383e-07
1.48856e-08
2.60934e-07
1.49446e-08
1.49101e-08
2.6039e-07
2.66277e-07
4.43593e-08
2.69341e-07
6.47862e-08
2.70596e-07
5.11777e-08
2.7166e-07
4.39636e-08
2.72419e-07
4.12356e-08
2.72855e-07
3.79543e-08
2.73178e-07
3.4734e-08
2.73461e-07
3.23345e-08
2.73698e-07
3.04855e-08
2.73893e-07
2.88958e-08
2.74056e-07
2.74925e-08
2.74194e-07
2.62579e-08
2.74312e-07
2.51638e-08
2.7441e-07
2.41812e-08
2.74491e-07
2.32891e-08
2.74556e-07
2.24728e-08
2.74607e-07
2.17214e-08
2.74644e-07
2.10265e-08
2.74669e-07
2.03816e-08
2.74682e-07
1.97814e-08
2.74683e-07
1.92219e-08
2.74672e-07
1.86998e-08
2.74651e-07
1.82124e-08
2.74619e-07
1.77576e-08
2.74575e-07
1.73336e-08
2.74521e-07
1.69392e-08
2.74456e-07
1.65732e-08
2.74381e-07
1.62352e-08
2.74295e-07
1.59247e-08
2.74198e-07
1.56414e-08
2.7409e-07
1.53855e-08
2.73971e-07
1.51572e-08
2.73841e-07
1.49566e-08
2.737e-07
1.47847e-08
2.73547e-07
1.46412e-08
2.73383e-07
1.45281e-08
2.73207e-07
1.44438e-08
2.7302e-07
1.43927e-08
2.72821e-07
1.437e-08
2.7261e-07
1.43834e-08
2.72387e-07
1.44234e-08
2.72154e-07
1.44995e-08
2.71907e-07
1.45995e-08
2.71652e-07
1.47243e-08
2.71384e-07
1.48708e-08
2.71102e-07
1.50022e-08
2.70809e-07
1.51523e-08
2.70478e-07
1.52163e-08
2.70121e-07
1.53014e-08
1.53431e-08
2.69688e-07
2.74032e-07
4.03688e-08
2.77092e-07
6.17261e-08
2.78334e-07
4.99351e-08
2.79382e-07
4.29157e-08
2.8017e-07
4.04482e-08
2.8063e-07
3.74945e-08
2.8096e-07
3.44035e-08
2.81248e-07
3.20465e-08
2.8149e-07
3.02431e-08
2.81689e-07
2.86977e-08
2.81853e-07
2.73277e-08
2.81993e-07
2.61187e-08
2.8211e-07
2.50465e-08
2.82208e-07
2.40836e-08
2.82288e-07
2.32089e-08
2.82352e-07
2.24084e-08
2.82402e-07
2.16713e-08
2.82439e-07
2.09895e-08
2.82464e-07
2.03568e-08
2.82477e-07
1.9768e-08
2.8248e-07
1.92192e-08
2.82473e-07
1.87072e-08
2.82456e-07
1.82296e-08
2.82429e-07
1.77841e-08
2.82393e-07
1.73693e-08
2.82349e-07
1.69837e-08
2.82296e-07
1.66265e-08
2.82234e-07
1.62971e-08
2.82163e-07
1.59951e-08
2.82084e-07
1.57204e-08
2.81997e-07
1.54731e-08
2.819e-07
1.52535e-08
2.81795e-07
1.50617e-08
2.81681e-07
1.48988e-08
2.81558e-07
1.47643e-08
2.81426e-07
1.46604e-08
2.81284e-07
1.45856e-08
2.81133e-07
1.45437e-08
2.80972e-07
1.45308e-08
2.80803e-07
1.4553e-08
2.80623e-07
1.4603e-08
2.80435e-07
1.46872e-08
2.80237e-07
1.47973e-08
2.80032e-07
1.493e-08
2.79817e-07
1.50858e-08
2.79589e-07
1.52298e-08
2.79352e-07
1.53895e-08
2.79082e-07
1.54864e-08
2.78785e-07
1.55977e-08
1.57005e-08
2.78428e-07
2.82039e-07
3.66678e-08
2.85084e-07
5.86808e-08
2.86323e-07
4.86956e-08
2.87353e-07
4.18865e-08
2.88164e-07
3.96372e-08
2.88649e-07
3.70095e-08
2.88988e-07
3.40641e-08
2.89281e-07
3.17537e-08
2.89528e-07
2.99955e-08
2.8973e-07
2.84958e-08
2.89897e-07
2.71608e-08
2.90037e-07
2.59785e-08
2.90155e-07
2.49291e-08
2.90252e-07
2.39863e-08
2.90331e-07
2.31297e-08
2.90394e-07
2.23453e-08
2.90443e-07
2.16228e-08
2.90478e-07
2.09544e-08
2.90501e-07
2.03338e-08
2.90512e-07
1.97563e-08
2.90513e-07
1.9218e-08
2.90505e-07
1.8716e-08
2.90487e-07
1.82476e-08
2.9046e-07
1.7811e-08
2.90424e-07
1.74046e-08
2.90381e-07
1.70271e-08
2.9033e-07
1.66777e-08
2.90271e-07
1.63559e-08
2.90205e-07
1.60614e-08
2.90131e-07
1.57941e-08
2.9005e-07
1.55542e-08
2.89961e-07
1.5342e-08
2.89865e-07
1.51577e-08
2.89762e-07
1.50023e-08
2.89651e-07
1.48755e-08
2.89532e-07
1.47793e-08
2.89405e-07
1.47124e-08
2.89271e-07
1.46781e-08
2.89128e-07
1.46734e-08
2.88978e-07
1.47028e-08
2.8882e-07
1.47611e-08
2.88656e-07
1.48518e-08
2.88483e-07
1.497e-08
2.88304e-07
1.51094e-08
2.88117e-07
1.52723e-08
2.87919e-07
1.54278e-08
2.87712e-07
1.55964e-08
2.87476e-07
1.57223e-08
2.87214e-07
1.58595e-08
1.6012e-08
2.86903e-07
2.90307e-07
3.32498e-08
2.93326e-07
5.56616e-08
2.94571e-07
4.74503e-08
2.9558e-07
4.0878e-08
2.9641e-07
3.88074e-08
2.96921e-07
3.64984e-08
2.9727e-07
3.37148e-08
2.97568e-07
3.14563e-08
2.9782e-07
2.97427e-08
2.98026e-07
2.82899e-08
2.98195e-07
2.69918e-08
2.98337e-07
2.58374e-08
2.98454e-07
2.48113e-08
2.98551e-07
2.38894e-08
2.9863e-07
2.30514e-08
2.98691e-07
2.22836e-08
2.98738e-07
2.15761e-08
2.98771e-07
2.09213e-08
2.98792e-07
2.03132e-08
2.98801e-07
1.97472e-08
2.98799e-07
1.92195e-08
2.98788e-07
1.87274e-08
2.98767e-07
1.82683e-08
2.98738e-07
1.78405e-08
2.987e-07
1.74423e-08
2.98654e-07
1.70727e-08
2.98601e-07
1.67309e-08
2.98541e-07
1.64164e-08
2.98473e-07
1.61289e-08
2.98399e-07
1.58685e-08
2.98317e-07
1.56354e-08
2.98229e-07
1.54301e-08
2.98135e-07
1.52526e-08
2.98033e-07
1.5104e-08
2.97924e-07
1.49842e-08
2.97809e-07
1.48948e-08
2.97686e-07
1.4835e-08
2.97557e-07
1.48075e-08
2.9742e-07
1.48099e-08
2.97277e-07
1.48457e-08
2.97127e-07
1.49111e-08
2.96971e-07
1.50077e-08
2.96809e-07
1.51325e-08
2.9664e-07
1.52782e-08
2.96465e-07
1.54471e-08
2.9628e-07
1.56133e-08
2.96085e-07
1.57909e-08
2.95865e-07
1.59424e-08
2.95619e-07
1.61051e-08
1.62989e-08
2.95332e-07
2.98846e-07
3.01066e-08
3.01828e-07
5.26795e-08
3.03087e-07
4.61915e-08
3.04073e-07
3.98916e-08
3.04916e-07
3.79642e-08
3.05454e-07
3.59605e-08
3.05815e-07
3.33538e-08
3.06117e-07
3.11542e-08
3.06375e-07
2.94848e-08
3.06585e-07
2.80796e-08
3.06757e-07
2.68202e-08
3.06899e-07
2.5695e-08
3.07018e-07
2.46932e-08
3.07114e-07
2.37927e-08
3.07192e-07
2.29738e-08
3.07252e-07
2.22232e-08
3.07297e-07
2.15311e-08
3.07328e-07
2.08903e-08
3.07347e-07
2.0295e-08
3.07353e-07
1.97407e-08
3.07349e-07
1.92239e-08
3.07334e-07
1.87419e-08
3.0731e-07
1.82923e-08
3.07277e-07
1.78733e-08
3.07236e-07
1.74835e-08
3.07187e-07
1.71218e-08
3.07131e-07
1.67875e-08
3.07067e-07
1.64802e-08
3.06996e-07
1.61997e-08
3.06918e-07
1.59461e-08
3.06834e-07
1.57197e-08
3.06743e-07
1.55209e-08
3.06646e-07
1.535e-08
3.06542e-07
1.5208e-08
3.06431e-07
1.50948e-08
3.06314e-07
1.50121e-08
3.0619e-07
1.4959e-08
3.0606e-07
1.49378e-08
3.05923e-07
1.49469e-08
3.0578e-07
1.49887e-08
3.0563e-07
1.50606e-08
3.05475e-07
1.51628e-08
3.05314e-07
1.52935e-08
3.05147e-07
1.54453e-08
3.04974e-07
1.56198e-08
3.04791e-07
1.57964e-08
3.04599e-07
1.59836e-08
3.04383e-07
1.61584e-08
3.04142e-07
1.63461e-08
1.65752e-08
3.03865e-07
3.07665e-07
2.72285e-08
3.10599e-07
4.97458e-08
3.11878e-07
4.49122e-08
3.12842e-07
3.89278e-08
3.13694e-07
3.71128e-08
3.14258e-07
3.53959e-08
3.14632e-07
3.29799e-08
3.14939e-07
3.08472e-08
3.15202e-07
2.92219e-08
3.15417e-07
2.78647e-08
3.15591e-07
2.66458e-08
3.15735e-07
2.55511e-08
3.15854e-07
2.45744e-08
3.15951e-07
2.3696e-08
3.16027e-07
2.2897e-08
3.16087e-07
2.2164e-08
3.1613e-07
2.14877e-08
3.16159e-07
2.08613e-08
3.16175e-07
2.02791e-08
3.16179e-07
1.97369e-08
3.16171e-07
1.92313e-08
3.16154e-07
1.87596e-08
3.16126e-07
1.83196e-08
3.1609e-07
1.79096e-08
3.16045e-07
1.75283e-08
3.15992e-07
1.71746e-08
3.15932e-07
1.68479e-08
3.15864e-07
1.65479e-08
3.15789e-07
1.62744e-08
3.15708e-07
1.60277e-08
3.15619e-07
1.5808e-08
3.15525e-07
1.56158e-08
3.15423e-07
1.54515e-08
3.15315e-07
1.5316e-08
3.152e-07
1.52094e-08
3.15079e-07
1.51331e-08
3.14952e-07
1.50866e-08
3.14818e-07
1.50717e-08
3.14678e-07
1.50873e-08
3.14531e-07
1.5135e-08
3.14379e-07
1.52131e-08
3.1422e-07
1.5321e-08
3.14057e-07
1.54573e-08
3.13887e-07
1.56154e-08
3.13711e-07
1.57957e-08
3.13525e-07
1.59825e-08
3.13328e-07
1.61802e-08
3.1311e-07
1.63764e-08
3.12867e-07
1.65886e-08
1.6849e-08
3.12594e-07
3.16775e-07
2.46042e-08
3.1965e-07
4.68717e-08
3.20955e-07
4.3607e-08
3.21897e-07
3.79861e-08
3.22751e-07
3.62582e-08
3.23341e-07
3.48056e-08
3.2373e-07
3.25915e-08
3.24042e-07
3.0535e-08
3.2431e-07
2.8954e-08
3.2453e-07
2.76449e-08
3.24707e-07
2.64682e-08
3.24853e-07
2.54057e-08
3.24972e-07
2.44549e-08
3.25069e-07
2.35993e-08
3.25145e-07
2.28207e-08
3.25203e-07
2.21058e-08
3.25245e-07
2.14459e-08
3.25272e-07
2.08343e-08
3.25286e-07
2.02656e-08
3.25287e-07
1.97357e-08
3.25277e-07
1.92415e-08
3.25256e-07
1.87804e-08
3.25225e-07
1.83503e-08
3.25185e-07
1.79495e-08
3.25137e-07
1.75768e-08
3.2508e-07
1.72313e-08
3.25015e-07
1.69124e-08
3.24944e-07
1.66198e-08
3.24865e-07
1.63534e-08
3.24779e-07
1.61136e-08
3.24686e-07
1.59007e-08
3.24587e-07
1.57152e-08
3.24481e-07
1.55575e-08
3.24368e-07
1.54286e-08
3.24249e-07
1.53286e-08
3.24123e-07
1.52588e-08
3.23991e-07
1.52188e-08
3.23852e-07
1.52103e-08
3.23707e-07
1.52324e-08
3.23556e-07
1.52861e-08
3.23399e-07
1.53703e-08
3.23236e-07
1.5484e-08
3.23068e-07
1.5626e-08
3.22892e-07
1.57906e-08
3.22711e-07
1.5977e-08
3.22519e-07
1.61742e-08
3.22316e-07
1.63832e-08
3.22093e-07
1.65996e-08
3.21846e-07
1.68358e-08
1.71244e-08
3.21571e-07
3.26186e-07
2.22211e-08
3.28989e-07
4.4068e-08
3.30325e-07
4.22715e-08
3.31246e-07
3.70654e-08
3.32099e-07
3.54053e-08
3.32713e-07
3.41909e-08
3.33117e-07
3.21872e-08
3.33435e-07
3.02172e-08
3.33708e-07
2.86813e-08
3.33933e-07
2.74202e-08
3.34114e-07
2.62872e-08
3.34261e-07
2.52584e-08
3.34381e-07
2.43345e-08
3.34478e-07
2.35024e-08
3.34554e-07
2.27448e-08
3.34611e-07
2.20487e-08
3.34652e-07
2.14056e-08
3.34677e-07
2.08091e-08
3.34688e-07
2.02543e-08
3.34687e-07
1.97371e-08
3.34674e-07
1.92546e-08
3.3465e-07
1.88043e-08
3.34616e-07
1.83843e-08
3.34572e-07
1.79929e-08
3.3452e-07
1.76291e-08
3.34459e-07
1.72919e-08
3.34391e-07
1.69809e-08
3.34315e-07
1.66958e-08
3.34232e-07
1.64367e-08
3.34141e-07
1.62039e-08
3.34044e-07
1.59978e-08
3.3394e-07