/*--------------------------------*- C++ -*----------------------------------*\
  =========                 |
  \\      /  F ield         | OpenFOAM: The Open Source CFD Toolbox
   \\    /   O peration     | Website:  https://openfoam.org
    \\  /    A nd           | Version:  7
     \\/     M anipulation  |
\*---------------------------------------------------------------------------*/
FoamFile
{
    version     2.0;
    format      ascii;
    class       volVectorField;
    location    "0.07";
    object      U;
}
// * * * * * * * * * * * * * * * * * * * * * * * * * * * * * * * * * * * * * //

dimensions      [0 1 -1 0 0 0 0];

internalField   nonuniform List<vector> 
70000
(
(0.55341 0.0169784 0)
(0.251394 0.00340088 0)
(0.165868 0.000319503 0)
(0.132342 4.94647e-05 0)
(0.117186 4.4515e-05 0)
(0.10717 5.26993e-05 0)
(0.0991364 4.49171e-05 0)
(0.0926263 3.58655e-05 0)
(0.0873136 2.9853e-05 0)
(0.0828743 2.5736e-05 0)
(0.0790813 2.25911e-05 0)
(0.0757875 2.0072e-05 0)
(0.072892 1.80195e-05 0)
(0.0703209 1.63253e-05 0)
(0.0680181 1.49097e-05 0)
(0.0659399 1.3714e-05 0)
(0.0640518 1.26946e-05 0)
(0.0623262 1.18188e-05 0)
(0.0607405 1.10614e-05 0)
(0.0592762 1.04034e-05 0)
(0.0579176 9.82943e-06 0)
(0.0566518 9.32762e-06 0)
(0.0554674 8.88826e-06 0)
(0.0543548 8.50382e-06 0)
(0.0533057 8.16753e-06 0)
(0.0523128 7.87494e-06 0)
(0.0513696 7.62047e-06 0)
(0.0504704 7.40225e-06 0)
(0.0496101 7.21428e-06 0)
(0.0487838 7.05822e-06 0)
(0.0479877 6.92412e-06 0)
(0.0472175 6.82174e-06 0)
(0.0464701 6.72839e-06 0)
(0.0457415 6.67332e-06 0)
(0.0450299 6.60409e-06 0)
(0.0443308 6.58853e-06 0)
(0.0436435 6.52137e-06 0)
(0.0429639 6.5246e-06 0)
(0.0422911 6.4415e-06 0)
(0.0416247 6.38661e-06 0)
(0.0409566 6.33039e-06 0)
(0.0403062 5.94043e-06 0)
(0.0396285 6.21349e-06 0)
(0.03902 4.59325e-06 0)
(0.0383019 6.34452e-06 0)
(0.0378193 8.28172e-07 0)
(0.036986 7.67946e-06 0)
(0.0368319 -9.51946e-06 0)
(0.0359283 1.48135e-05 0)
(0.0337738 -0.00133247 0)
(0.884862 0.0434945 0)
(0.650113 0.0201521 0)
(0.493865 0.00660954 0)
(0.403333 0.00276082 0)
(0.354489 0.001555 0)
(0.323019 0.00113959 0)
(0.298947 0.000917852 0)
(0.279553 0.000753778 0)
(0.263646 0.000631469 0)
(0.250327 0.000541265 0)
(0.238947 0.000472759 0)
(0.229067 0.000418819 0)
(0.220382 0.000375222 0)
(0.21267 0.000339343 0)
(0.205763 0.000309399 0)
(0.199531 0.000284115 0)
(0.193869 0.000262555 0)
(0.188697 0.000244017 0)
(0.183946 0.000227969 0)
(0.17956 0.000214 0)
(0.175494 0.000201789 0)
(0.171707 0.000191081 0)
(0.168166 0.000181672 0)
(0.164843 0.0001734 0)
(0.161713 0.00016613 0)
(0.158753 0.000159754 0)
(0.155944 0.000154184 0)
(0.15327 0.000149348 0)
(0.150715 0.000145185 0)
(0.148264 0.000141654 0)
(0.145906 0.000138702 0)
(0.143627 0.000136326 0)
(0.14142 0.000134453 0)
(0.139271 0.000133141 0)
(0.137173 0.000132241 0)
(0.135115 0.000131944 0)
(0.133092 0.000131895 0)
(0.131092 0.000132574 0)
(0.12911 0.000133181 0)
(0.127142 0.000134719 0)
(0.125165 0.000135663 0)
(0.123225 0.000137605 0)
(0.1212 0.000138488 0)
(0.119337 0.000139197 0)
(0.117162 0.00014003 0)
(0.115566 0.000133701 0)
(0.113015 0.00013896 0)
(0.112142 8.70229e-05 0)
(0.1092 0.000256884 0)
(0.106531 -0.00226333 0)
(0.99121 0.0499579 0)
(0.890899 0.0305696 0)
(0.762383 0.0146223 0)
(0.656283 0.00798638 0)
(0.584992 0.00489842 0)
(0.535398 0.00349621 0)
(0.497247 0.00276234 0)
(0.466335 0.00226976 0)
(0.440722 0.00190726 0)
(0.419106 0.00163651 0)
(0.400542 0.00142966 0)
(0.384367 0.00126674 0)
(0.370109 0.00113509 0)
(0.357419 0.00102671 0)
(0.346033 0.000936181 0)
(0.335744 0.000859669 0)
(0.326387 0.000794358 0)
(0.317831 0.000738141 0)
(0.309966 0.000689417 0)
(0.302704 0.00064695 0)
(0.295968 0.000609772 0)
(0.289696 0.000577117 0)
(0.283833 0.000548371 0)
(0.278332 0.000523039 0)
(0.273152 0.000500719 0)
(0.268257 0.000481083 0)
(0.263617 0.000463864 0)
(0.259203 0.000448845 0)
(0.25499 0.000435848 0)
(0.250955 0.000424737 0)
(0.247078 0.000415387 0)
(0.243338 0.000407743 0)
(0.239721 0.000401677 0)
(0.236205 0.000397253 0)
(0.232781 0.000394225 0)
(0.229426 0.000392927 0)
(0.226135 0.000392702 0)
(0.222886 0.000394551 0)
(0.219671 0.00039671 0)
(0.216481 0.000401774 0)
(0.213279 0.000405395 0)
(0.210129 0.000413555 0)
(0.206851 0.000416719 0)
(0.203794 0.000426687 0)
(0.200276 0.000426192 0)
(0.197548 0.000430343 0)
(0.193452 0.000429642 0)
(0.191624 0.000348684 0)
(0.186789 0.000579952 0)
(0.184541 -0.00211954 0)
(1.01554 0.0489566 0)
(1.00648 0.0357342 0)
(0.935809 0.0208381 0)
(0.851802 0.0135252 0)
(0.781831 0.00923137 0)
(0.726431 0.00682274 0)
(0.68104 0.00543155 0)
(0.642938 0.00449411 0)
(0.610555 0.00380219 0)
(0.582705 0.00327819 0)
(0.558458 0.00287319 0)
(0.537112 0.00255199 0)
(0.518143 0.00229126 0)
(0.501152 0.00207578 0)
(0.485827 0.00189516 0)
(0.471918 0.00174203 0)
(0.459225 0.00161093 0)
(0.447583 0.0014978 0)
(0.436857 0.0013995 0)
(0.426933 0.00131361 0)
(0.417715 0.00123824 0)
(0.409121 0.00117188 0)
(0.401079 0.00111331 0)
(0.39353 0.00106156 0)
(0.386419 0.00101581 0)
(0.379699 0.000975428 0)
(0.37333 0.000939869 0)
(0.367273 0.000908698 0)
(0.361496 0.000881567 0)
(0.355967 0.00085819 0)
(0.350661 0.000838342 0)
(0.34555 0.000821874 0)
(0.340613 0.000808602 0)
(0.335824 0.000798558 0)
(0.331167 0.000791431 0)
(0.326615 0.000787661 0)
(0.322158 0.000786326 0)
(0.317767 0.000788994 0)
(0.313433 0.000792802 0)
(0.309139 0.000802398 0)
(0.304842 0.000809679 0)
(0.300609 0.000827002 0)
(0.296233 0.00083371 0)
(0.292101 0.0008591 0)
(0.287442 0.000857283 0)
(0.283645 0.000883085 0)
(0.278324 0.000873213 0)
(0.275423 0.00078482 0)
(0.269167 0.000997695 0)
(0.266654 -0.00148588 0)
(1.01435 0.0461012 0)
(1.04797 0.0373534 0)
(1.02452 0.0242114 0)
(0.974533 0.0175946 0)
(0.92317 0.0131573 0)
(0.876206 0.0102639 0)
(0.833745 0.0084125 0)
(0.795647 0.00709658 0)
(0.761697 0.00609079 0)
(0.731464 0.00530677 0)
(0.704445 0.00468718 0)
(0.680176 0.00418786 0)
(0.658267 0.00377767 0)
(0.638391 0.0034354 0)
(0.620275 0.00314624 0)
(0.603691 0.0028994 0)
(0.588447 0.00268686 0)
(0.574381 0.00250247 0)
(0.561355 0.00234152 0)
(0.54925 0.0022003 0)
(0.537964 0.00207589 0)
(0.527409 0.00196592 0)
(0.517508 0.00186852 0)
(0.508193 0.00178212 0)
(0.499404 0.00170547 0)
(0.491088 0.00163752 0)
(0.483198 0.00157742 0)
(0.47569 0.00152447 0)
(0.468526 0.00147811 0)
(0.46167 0.00143786 0)
(0.455092 0.00140338 0)
(0.448759 0.0013744 0)
(0.442647 0.00135067 0)
(0.436725 0.00133218 0)
(0.430974 0.00131855 0)
(0.425362 0.00131033 0)
(0.419877 0.00130634 0)
(0.414486 0.00130874 0)
(0.409175 0.00131355 0)
(0.403923 0.00132762 0)
(0.398686 0.00133885 0)
(0.393522 0.0013666 0)
(0.388229 0.0013781 0)
(0.383171 0.0014218 0)
(0.377608 0.00142121 0)
(0.372851 0.00147274 0)
(0.366656 0.00145786 0)
(0.362661 0.00137388 0)
(0.35559 0.00154405 0)
(0.352007 -0.000673028 0)
(1.00941 0.0430511 0)
(1.05563 0.0371102 0)
(1.05864 0.0253568 0)
(1.03621 0.0198075 0)
(1.00691 0.0158581 0)
(0.975708 0.0130093 0)
(0.943924 0.0110514 0)
(0.912736 0.00957914 0)
(0.883008 0.00839635 0)
(0.855133 0.0074349 0)
(0.829199 0.00664951 0)
(0.805153 0.00600008 0)
(0.782883 0.00545561 0)
(0.762254 0.00499376 0)
(0.743126 0.00459818 0)
(0.725361 0.00425661 0)
(0.708832 0.00395957 0)
(0.693422 0.00369968 0)
(0.679024 0.0034711 0)
(0.665542 0.0032692 0)
(0.652889 0.00309024 0)
(0.640989 0.00293119 0)
(0.629771 0.00278956 0)
(0.619172 0.00266332 0)
(0.609136 0.00255077 0)
(0.59961 0.00245051 0)
(0.590548 0.00236139 0)
(0.581906 0.00228245 0)
(0.573647 0.00221291 0)
(0.565732 0.00215212 0)
(0.558131 0.00209962 0)
(0.550809 0.00205499 0)
(0.543739 0.00201797 0)
(0.536891 0.00198843 0)
(0.530243 0.00196602 0)
(0.523762 0.00195131 0)
(0.517433 0.00194297 0)
(0.51122 0.00194366 0)
(0.505111 0.00194845 0)
(0.499077 0.00196619 0)
(0.493082 0.0019812 0)
(0.487163 0.0020191 0)
(0.481149 0.00203666 0)
(0.475338 0.00209836 0)
(0.469105 0.00210335 0)
(0.463536 0.00217817 0)
(0.456782 0.0021681 0)
(0.451778 0.00208698 0)
(0.444358 0.00222549 0)
(0.439505 0.000269003 0)
(1.00635 0.0401835 0)
(1.0524 0.0361646 0)
(1.06603 0.0252829 0)
(1.05946 0.020618 0)
(1.04674 0.0172948 0)
(1.03056 0.014742 0)
(1.01146 0.0129298 0)
(0.990516 0.0115199 0)
(0.968784 0.0103353 0)
(0.947001 0.00932976 0)
(0.925619 0.00847734 0)
(0.90491 0.00775011 0)
(0.885032 0.00712407 0)
(0.866061 0.00658094 0)
(0.848025 0.00610677 0)
(0.830917 0.00569054 0)
(0.814708 0.00532342 0)
(0.799361 0.00499822 0)
(0.784827 0.00470909 0)
(0.771058 0.00445124 0)
(0.758005 0.00422071 0)
(0.745617 0.00401423 0)
(0.733848 0.00382906 0)
(0.722651 0.00366292 0)
(0.711984 0.00351389 0)
(0.701806 0.00338035 0)
(0.692077 0.00326096 0)
(0.682763 0.00315458 0)
(0.673829 0.0030603 0)
(0.665243 0.00297735 0)
(0.656974 0.00290517 0)
(0.648993 0.00284326 0)
(0.641275 0.00279132 0)
(0.633788 0.0027492 0)
(0.626514 0.00271653 0)
(0.619419 0.00269396 0)
(0.61249 0.00268004 0)
(0.605689 0.00267784 0)
(0.599007 0.00268174 0)
(0.59241 0.00270214 0)
(0.585872 0.00272075 0)
(0.579406 0.00276769 0)
(0.572886 0.00279261 0)
(0.566524 0.00287004 0)
(0.559848 0.00288547 0)
(0.553666 0.00297784 0)
(0.546604 0.0029831 0)
(0.540795 0.00290032 0)
(0.533279 0.0030195 0)
(0.527407 0.00132881 0)
(1.00506 0.0375067 0)
(1.04761 0.0350674 0)
(1.06393 0.0247376 0)
(1.06412 0.0206532 0)
(1.06058 0.01784 0)
(1.05458 0.0155938 0)
(1.04568 0.0140016 0)
(1.0343 0.0127619 0)
(1.02113 0.0116933 0)
(1.00679 0.0107556 0)
(0.991735 0.00993519 0)
(0.976327 0.00921429 0)
(0.96084 0.00857654 0)
(0.945474 0.00800938 0)
(0.930374 0.00750314 0)
(0.915639 0.00704992 0)
(0.901334 0.00664311 0)
(0.887497 0.00627712 0)
(0.874149 0.0059472 0)
(0.861296 0.00564931 0)
(0.848934 0.00538003 0)
(0.837053 0.00513641 0)
(0.825637 0.00491595 0)
(0.814667 0.00471651 0)
(0.804122 0.00453624 0)
(0.79398 0.00437357 0)
(0.784217 0.00422717 0)
(0.77481 0.00409588 0)
(0.765736 0.00397882 0)
(0.756971 0.00387516 0)
(0.748493 0.00378437 0)
(0.740278 0.00370593 0)
(0.732306 0.00363957 0)
(0.724551 0.00358514 0)
(0.716998 0.00354235 0)
(0.709615 0.00351188 0)
(0.702394 0.0034923 0)
(0.695299 0.00348697 0)
(0.688323 0.0034899 0)
(0.68143 0.00351244 0)
(0.674606 0.00353493 0)
(0.667842 0.00358979 0)
(0.66106 0.00362352 0)
(0.654387 0.00371399 0)
(0.647501 0.00374414 0)
(0.640953 0.00384852 0)
(0.633793 0.00387637 0)
(0.627468 0.00379165 0)
(0.62 0.00389805 0)
(0.613485 0.0024711 0)
(1.00451 0.0349712 0)
(1.04358 0.0339887 0)
(1.0599 0.0240888 0)
(1.06217 0.0203672 0)
(1.06241 0.0179102 0)
(1.06168 0.0158812 0)
(1.059 0.0144666 0)
(1.05431 0.013397 0)
(1.0479 0.0124753 0)
(1.04009 0.0116546 0)
(1.03116 0.0109234 0)
(1.02135 0.0102679 0)
(1.0109 0.0096754 0)
(1.00002 0.00913695 0)
(0.98888 0.00864614 0)
(0.977609 0.008198 0)
(0.966321 0.00778832 0)
(0.955101 0.00741349 0)
(0.944014 0.00707036 0)
(0.93311 0.00675618 0)
(0.922424 0.00646852 0)
(0.911978 0.00620524 0)
(0.90179 0.00596447 0)
(0.891867 0.00574453 0)
(0.882212 0.00554399 0)
(0.872823 0.00536157 0)
(0.863696 0.00519619 0)
(0.854824 0.00504687 0)
(0.846196 0.0049129 0)
(0.8378 0.00479357 0)
(0.829627 0.00468847 0)
(0.821659 0.00459717 0)
(0.813886 0.00451953 0)
(0.806289 0.00445545 0)
(0.798857 0.00440477 0)
(0.791567 0.00436827 0)
(0.784413 0.00434463 0)
(0.777364 0.00433738 0)
(0.770418 0.00434052 0)
(0.76354 0.00436577 0)
(0.756726 0.00439322 0)
(0.749955 0.00445567 0)
(0.743181 0.00449991 0)
(0.736476 0.00460156 0)
(0.729627 0.0046497 0)
(0.722993 0.00476266 0)
(0.715948 0.00481655 0)
(0.709424 0.00473448 0)
(0.70215 0.00483084 0)
(0.695359 0.00365919 0)
(1.00412 0.032541 0)
(1.04025 0.0329365 0)
(1.05614 0.0234564 0)
(1.05881 0.0199859 0)
(1.06015 0.0177858 0)
(1.06146 0.0158904 0)
(1.06175 0.0145797 0)
(1.06075 0.0136287 0)
(1.05854 0.0128268 0)
(1.05524 0.0121162 0)
(1.05092 0.0114827 0)
(1.04569 0.0109118 0)
(1.03969 0.0103906 0)
(1.03304 0.0099108 0)
(1.02586 0.00946688 0)
(1.01826 0.00905521 0)
(1.01036 0.00867298 0)
(1.00223 0.00831792 0)
(0.993962 0.00798815 0)
(0.985609 0.00768204 0)
(0.977227 0.00739817 0)
(0.968859 0.00713525 0)
(0.960541 0.00689215 0)
(0.952299 0.00666785 0)
(0.944154 0.00646145 0)
(0.936122 0.00627213 0)
(0.928214 0.00609921 0)
(0.920435 0.00594205 0)
(0.912789 0.00580023 0)
(0.905278 0.00567327 0)
(0.897899 0.00556101 0)
(0.890648 0.00546318 0)
(0.883521 0.00537986 0)
(0.876508 0.00531109 0)
(0.869605 0.00525691 0)
(0.862796 0.00521821 0)
(0.85608 0.00519388 0)
(0.849433 0.00518757 0)
(0.842858 0.00519349 0)
(0.836324 0.00522338 0)
(0.829832 0.00525788 0)
(0.823361 0.00532877 0)
(0.816884 0.00538559 0)
(0.810439 0.00549787 0)
(0.803891 0.00556651 0)
(0.797464 0.00568701 0)
(0.790761 0.00576794 0)
(0.784353 0.0056958 0)
(0.777451 0.00578518 0)
(0.77072 0.00485244 0)
(1.00374 0.0302072 0)
(1.03726 0.0318887 0)
(1.0528 0.0228551 0)
(1.05557 0.019587 0)
(1.05705 0.0175999 0)
(1.05893 0.0157946 0)
(1.06029 0.0145335 0)
(1.06089 0.0136483 0)
(1.06078 0.012923 0)
(1.05998 0.01229 0)
(1.05849 0.0117327 0)
(1.05631 0.011235 0)
(1.05349 0.0107826 0)
(1.05007 0.0103655 0)
(1.0461 0.00997778 0)
(1.04166 0.00961559 0)
(1.0368 0.00927624 0)
(1.03159 0.00895783 0)
(1.02609 0.00865896 0)
(1.02035 0.00837854 0)
(1.01442 0.00811576 0)
(1.00835 0.0078699 0)
(1.00217 0.00764039 0)
(0.995915 0.00742673 0)
(0.989618 0.0072285 0)
(0.983299 0.00704533 0)
(0.976977 0.00687694 0)
(0.970668 0.00672305 0)
(0.964384 0.00658358 0)
(0.958134 0.00645836 0)
(0.951924 0.00634749 0)
(0.945759 0.00625094 0)
(0.93964 0.00616903 0)
(0.933565 0.00610201 0)
(0.927537 0.00605012 0)
(0.921547 0.00601445 0)
(0.915596 0.0059941 0)
(0.909671 0.00599286 0)
(0.903775 0.00600526 0)
(0.897886 0.00604285 0)
(0.892008 0.00608733 0)
(0.886124 0.00616854 0)
(0.880217 0.00624042 0)
(0.87431 0.006364 0)
(0.868316 0.00645515 0)
(0.862373 0.00658409 0)
(0.856237 0.0066918 0)
(0.850237 0.00663785 0)
(0.843898 0.00672476 0)
(0.83753 0.00600906 0)
(1.00337 0.027972 0)
(1.03442 0.0308328 0)
(1.0497 0.0222789 0)
(1.05261 0.0191856 0)
(1.05405 0.0173956 0)
(1.05598 0.0156697 0)
(1.05762 0.0144322 0)
(1.05875 0.0135797 0)
(1.05946 0.0128973 0)
(1.05979 0.0123103 0)
(1.05971 0.0118011 0)
(1.05922 0.0113537 0)
(1.05828 0.0109522 0)
(1.05691 0.0105855 0)
(1.05512 0.0102466 0)
(1.05292 0.00993072 0)
(1.05035 0.00963469 0)
(1.04744 0.00935625 0)
(1.04421 0.00909385 0)
(1.0407 0.00884642 0)
(1.03695 0.00861321 0)
(1.03298 0.00839372 0)
(1.02883 0.00818758 0)
(1.02452 0.00799455 0)
(1.02007 0.0078145 0)
(1.01552 0.00764733 0)
(1.01088 0.00749305 0)
(1.00616 0.00735168 0)
(1.00139 0.00722339 0)
(0.996569 0.00710828 0)
(0.991715 0.0070067 0)
(0.986833 0.00691886 0)
(0.981931 0.0068453 0)
(0.977011 0.00678648 0)
(0.972078 0.00674284 0)
(0.96713 0.00671569 0)
(0.962171 0.0067043 0)
(0.957193 0.00671264 0)
(0.952202 0.00673559 0)
(0.947184 0.00678436 0)
(0.942142 0.00684207 0)
(0.937068 0.00693596 0)
(0.931949 0.00702544 0)
(0.9268 0.00716173 0)
(0.921569 0.00727687 0)
(0.916333 0.00741638 0)
(0.910956 0.00755 0)
(0.905603 0.00752206 0)
(0.9 0.00761223 0)
(0.894246 0.0070892 0)
(1.00301 0.0258392 0)
(1.0317 0.0297649 0)
(1.0467 0.0217239 0)
(1.04982 0.0187813 0)
(1.05123 0.0171797 0)
(1.05313 0.0155379 0)
(1.0548 0.0143172 0)
(1.05604 0.0134827 0)
(1.05699 0.0128253 0)
(1.05772 0.0122643 0)
(1.05822 0.0117823 0)
(1.05847 0.0113644 0)
(1.05847 0.0109949 0)
(1.05819 0.0106619 0)
(1.05764 0.0103576 0)
(1.05681 0.0100766 0)
(1.0557 0.00981513 0)
(1.05432 0.00957048 0)
(1.05269 0.0093407 0)
(1.05081 0.00912441 0)
(1.0487 0.0089207 0)
(1.04638 0.00872893 0)
(1.04386 0.0085487 0)
(1.04117 0.0083798 0)
(1.03831 0.00822212 0)
(1.03532 0.00807568 0)
(1.03219 0.00794063 0)
(1.02895 0.0078171 0)
(1.0256 0.00770545 0)
(1.02216 0.00760593 0)
(1.01864 0.00751907 0)
(1.01505 0.00744526 0)
(1.01139 0.00738518 0)
(1.00767 0.00733952 0)
(1.00389 0.00730882 0)
(1.00006 0.00729463 0)
(0.996177 0.00729633 0)
(0.992243 0.00731803 0)
(0.988261 0.00735499 0)
(0.984225 0.00741791 0)
(0.980137 0.00749162 0)
(0.975993 0.00760029 0)
(0.971787 0.00770934 0)
(0.967526 0.00785978 0)
(0.963185 0.00799954 0)
(0.958799 0.0081521 0)
(0.954301 0.00831032 0)
(0.949755 0.00831474 0)
(0.945005 0.00841424 0)
(0.940039 0.00805909 0)
(1.00268 0.0238112 0)
(1.0291 0.0286831 0)
(1.04379 0.0211898 0)
(1.04713 0.018374 0)
(1.04854 0.0169506 0)
(1.0504 0.015402 0)
(1.05207 0.0141998 0)
(1.05332 0.0133785 0)
(1.05431 0.0127393 0)
(1.05513 0.0121954 0)
(1.0558 0.0117294 0)
(1.05633 0.0113284 0)
(1.0567 0.0109775 0)
(1.05691 0.0106646 0)
(1.05695 0.0103819 0)
(1.05682 0.0101237 0)
(1.0565 0.00988589 0)
(1.056 0.0096654 0)
(1.05532 0.00946 0)
(1.05447 0.00926806 0)
(1.05343 0.00908841 0)
(1.05223 0.00892023 0)
(1.05086 0.00876296 0)
(1.04934 0.00861627 0)
(1.04767 0.00848 0)
(1.04587 0.00835411 0)
(1.04393 0.00823876 0)
(1.04187 0.00813413 0)
(1.0397 0.00804059 0)
(1.03743 0.00795851 0)
(1.03506 0.00788847 0)
(1.03259 0.00783098 0)
(1.03004 0.00778681 0)
(1.0274 0.00775677 0)
(1.02469 0.00774148 0)
(1.0219 0.00774266 0)
(1.01905 0.00775978 0)
(1.01611 0.00779698 0)
(1.01312 0.00784997 0)
(1.01005 0.00792875 0)
(1.00691 0.00801999 0)
(1.0037 0.00814455 0)
(1.00042 0.008274 0)
(0.997075 0.00843941 0)
(0.993648 0.00860325 0)
(0.990153 0.00877087 0)
(0.986563 0.00895179 0)
(0.982884 0.00899269 0)
(0.979026 0.00910701 0)
(0.974924 0.00889565 0)
(1.00238 0.0218897 0)
(1.02663 0.0275868 0)
(1.04097 0.0206761 0)
(1.04452 0.0179653 0)
(1.04595 0.0167069 0)
(1.04778 0.0152604 0)
(1.04945 0.0140812 0)
(1.05069 0.0132722 0)
(1.05167 0.0126497 0)
(1.05249 0.0121202 0)
(1.0532 0.0116659 0)
(1.0538 0.011276 0)
(1.05428 0.0109366 0)
(1.05466 0.0106361 0)
(1.05494 0.0103665 0)
(1.0551 0.0101222 0)
(1.05515 0.00989926 0)
(1.05508 0.0096944 0)
(1.05489 0.00950528 0)
(1.05459 0.00933013 0)
(1.05416 0.00916765 0)
(1.05362 0.00901687 0)
(1.05295 0.00887711 0)
(1.05217 0.00874792 0)
(1.05128 0.00862904 0)
(1.05027 0.00852038 0)
(1.04916 0.00842201 0)
(1.04794 0.0083341 0)
(1.04662 0.00825702 0)
(1.04521 0.00819114 0)
(1.04371 0.00813706 0)
(1.04211 0.00809537 0)
(1.04043 0.00806682 0)
(1.03867 0.00805234 0)
(1.03683 0.00805255 0)
(1.03491 0.00806928 0)
(1.03291 0.00810205 0)
(1.03084 0.00815498 0)
(1.02869 0.0082242 0)
(1.02647 0.00831886 0)
(1.02418 0.0084276 0)
(1.02181 0.00856782 0)
(1.01937 0.00871703 0)
(1.01686 0.00889722 0)
(1.01427 0.00908326 0)
(1.01161 0.00926689 0)
(1.00887 0.00946805 0)
(1.00602 0.00954692 0)
(1.00301 0.00968026 0)
(0.99975 0.00958987 0)
(1.0021 0.0200758 0)
(1.0243 0.0264778 0)
(1.03824 0.0201807 0)
(1.04199 0.0175572 0)
(1.04345 0.0164488 0)
(1.04525 0.0151118 0)
(1.04692 0.0139607 0)
(1.04816 0.0131642 0)
(1.04912 0.0125583 0)
(1.04993 0.0120433 0)
(1.05063 0.0115998 0)
(1.05123 0.011219 0)
(1.05174 0.0108884 0)
(1.05216 0.0105966 0)
(1.0525 0.0103359 0)
(1.05276 0.0101008 0)
(1.05295 0.00988741 0)
(1.05305 0.00969257 0)
(1.05308 0.00951395 0)
(1.05303 0.00934978 0)
(1.0529 0.00919872 0)
(1.05269 0.00905977 0)
(1.0524 0.0089322 0)
(1.05202 0.00881547 0)
(1.05157 0.00870929 0)
(1.05104 0.0086135 0)
(1.05042 0.00852814 0)
(1.04973 0.00845334 0)
(1.04896 0.00838945 0)
(1.04812 0.00833684 0)
(1.04719 0.0082961 0)
(1.0462 0.00826785 0)
(1.04513 0.00825282 0)
(1.04399 0.00825202 0)
(1.04279 0.00826602 0)
(1.04151 0.00829673 0)
(1.04016 0.0083437 0)
(1.03874 0.00841094 0)
(1.03725 0.00849503 0)
(1.0357 0.00860415 0)
(1.03408 0.00872891 0)
(1.03239 0.00888331 0)
(1.03064 0.00905029 0)
(1.02881 0.00924404 0)
(1.02693 0.0094493 0)
(1.02497 0.00964871 0)
(1.02294 0.00986718 0)
(1.02081 0.00998311 0)
(1.01852 0.0101381 0)
(1.01601 0.0101476 0)
(1.00185 0.0183696 0)
(1.0221 0.0253603 0)
(1.03561 0.0196998 0)
(1.03956 0.0171513 0)
(1.04104 0.0161767 0)
(1.04281 0.0149554 0)
(1.04447 0.013838 0)
(1.04572 0.0130543 0)
(1.04667 0.0124653 0)
(1.04746 0.0119654 0)
(1.04815 0.0115329 0)
(1.04874 0.0111611 0)
(1.04924 0.0108385 0)
(1.04966 0.0105544 0)
(1.05 0.0103009 0)
(1.05029 0.0100729 0)
(1.05051 0.00986656 0)
(1.05067 0.00967885 0)
(1.05077 0.00950751 0)
(1.05082 0.00935084 0)
(1.05081 0.00920754 0)
(1.05074 0.00907661 0)
(1.05062 0.00895735 0)
(1.05044 0.00884921 0)
(1.0502 0.00875188 0)
(1.04991 0.00866519 0)
(1.04956 0.00858916 0)
(1.04916 0.00852394 0)
(1.0487 0.00846984 0)
(1.04818 0.00842726 0)
(1.04761 0.00839676 0)
(1.04698 0.00837902 0)
(1.04629 0.00837472 0)
(1.04555 0.00838493 0)
(1.04475 0.00841019 0)
(1.0439 0.00845244 0)
(1.04298 0.00851127 0)
(1.04202 0.00859048 0)
(1.04099 0.00868718 0)
(1.03991 0.00880849 0)
(1.03877 0.00894689 0)
(1.03757 0.00911323 0)
(1.03633 0.00929518 0)
(1.03502 0.00950058 0)
(1.03366 0.00972149 0)
(1.03224 0.00993548 0)
(1.03076 0.0101682 0)
(1.02918 0.0103185 0)
(1.02747 0.0104962 0)
(1.02555 0.0105871 0)
(1.00162 0.0167709 0)
(1.02003 0.0242384 0)
(1.03308 0.0192294 0)
(1.03721 0.0167494 0)
(1.03872 0.0158919 0)
(1.04045 0.0147905 0)
(1.04211 0.0137128 0)
(1.04336 0.0129425 0)
(1.0443 0.0123703 0)
(1.04509 0.0118863 0)
(1.04576 0.0114654 0)
(1.04633 0.0111028 0)
(1.04682 0.0107884 0)
(1.04723 0.0105117 0)
(1.04757 0.0102652 0)
(1.04784 0.0100437 0)
(1.04807 0.00984348 0)
(1.04823 0.00966174 0)
(1.04835 0.00949629 0)
(1.04842 0.00934546 0)
(1.04845 0.00920803 0)
(1.04843 0.00908306 0)
(1.04837 0.00896985 0)
(1.04827 0.00886792 0)
(1.04812 0.00877696 0)
(1.04794 0.00869681 0)
(1.04771 0.00862751 0)
(1.04744 0.00856922 0)
(1.04713 0.00852226 0)
(1.04678 0.00848707 0)
(1.04639 0.0084642 0)
(1.04596 0.00845437 0)
(1.04549 0.00845824 0)
(1.04497 0.00847695 0)
(1.04441 0.00851099 0)
(1.04381 0.0085623 0)
(1.04316 0.00863056 0)
(1.04246 0.0087193 0)
(1.04173 0.00882617 0)
(1.04094 0.0089572 0)
(1.04012 0.00910666 0)
(1.03925 0.00928257 0)
(1.03833 0.00947649 0)
(1.03737 0.00969144 0)
(1.03637 0.00992449 0)
(1.03532 0.0101514 0)
(1.03422 0.0103957 0)
(1.03303 0.0105767 0)
(1.03173 0.0107771 0)
(1.03025 0.0109335 0)
(1.00142 0.0152789 0)
(1.01811 0.0231161 0)
(1.03065 0.0187654 0)
(1.03495 0.0163528 0)
(1.0365 0.0155957 0)
(1.03819 0.0146165 0)
(1.03984 0.0135847 0)
(1.04109 0.0128287 0)
(1.04203 0.0122733 0)
(1.0428 0.0118058 0)
(1.04346 0.0113973 0)
(1.04402 0.0110443 0)
(1.0445 0.0107383 0)
(1.04489 0.0104693 0)
(1.04522 0.0102297 0)
(1.04548 0.0100146 0)
(1.04569 0.00982047 0)
(1.04585 0.00964441 0)
(1.04597 0.00948439 0)
(1.04604 0.00933882 0)
(1.04607 0.00920651 0)
(1.04606 0.0090866 0)
(1.04601 0.00897842 0)
(1.04593 0.00888152 0)
(1.04582 0.00879562 0)
(1.04567 0.0087206 0)
(1.04549 0.00865652 0)
(1.04527 0.00860356 0)
(1.04503 0.00856208 0)
(1.04475 0.00853255 0)
(1.04444 0.00851554 0)
(1.0441 0.00851179 0)
(1.04373 0.00852199 0)
(1.04333 0.00854728 0)
(1.04289 0.00858819 0)
(1.04241 0.0086466 0)
(1.04191 0.00872232 0)
(1.04136 0.00881857 0)
(1.04079 0.00893354 0)
(1.04018 0.00907223 0)
(1.03953 0.00923048 0)
(1.03885 0.00941393 0)
(1.03814 0.00961719 0)
(1.03739 0.0098399 0)
(1.03661 0.0100821 0)
(1.03579 0.0103203 0)
(1.03493 0.0105742 0)
(1.03399 0.0107821 0)
(1.03295 0.0110046 0)
(1.03176 0.0112137 0)
(1.00124 0.0138923 0)
(1.01632 0.0219977 0)
(1.02833 0.0183042 0)
(1.03277 0.0159629 0)
(1.03437 0.0152896 0)
(1.03602 0.0144329 0)
(1.03766 0.0134533 0)
(1.03891 0.0127131 0)
(1.03985 0.0121742 0)
(1.04061 0.0117238 0)
(1.04126 0.0113284 0)
(1.04181 0.0109854 0)
(1.04227 0.0106881 0)
(1.04265 0.010427 0)
(1.04296 0.0101946 0)
(1.04322 0.00998619 0)
(1.04342 0.00979813 0)
(1.04357 0.0096278 0)
(1.04367 0.00947319 0)
(1.04373 0.00933276 0)
(1.04375 0.0092054 0)
(1.04374 0.00909026 0)
(1.04369 0.00898675 0)
(1.04361 0.00889444 0)
(1.0435 0.00881307 0)
(1.04336 0.00874256 0)
(1.04319 0.00868299 0)
(1.04299 0.00863459 0)
(1.04276 0.00859774 0)
(1.04251 0.00857294 0)
(1.04223 0.00856078 0)
(1.04193 0.00856206 0)
(1.0416 0.00857747 0)
(1.04124 0.00860818 0)
(1.04085 0.00865474 0)
(1.04044 0.00871897 0)
(1.04 0.00880083 0)
(1.03953 0.0089032 0)
(1.03903 0.00902482 0)
(1.03851 0.00916974 0)
(1.03796 0.00933511 0)
(1.03738 0.00952468 0)
(1.03677 0.00973531 0)
(1.03614 0.0099645 0)
(1.03548 0.0102139 0)
(1.03479 0.010462 0)
(1.03406 0.0107243 0)
(1.03326 0.0109557 0)
(1.03238 0.0111997 0)
(1.03137 0.0114514 0)
(1.00107 0.012609 0)
(1.01466 0.0208869 0)
(1.02613 0.0178423 0)
(1.03068 0.0155804 0)
(1.03233 0.0149755 0)
(1.03394 0.0142393 0)
(1.03556 0.0133181 0)
(1.03682 0.0125956 0)
(1.03775 0.012073 0)
(1.0385 0.0116401 0)
(1.03914 0.0112586 0)
(1.03968 0.0109261 0)
(1.04013 0.0106378 0)
(1.0405 0.0103849 0)
(1.0408 0.01016 0)
(1.04105 0.00995836 0)
(1.04123 0.00977659 0)
(1.04137 0.00961213 0)
(1.04146 0.00946303 0)
(1.04152 0.00932783 0)
(1.04153 0.00920545 0)
(1.0415 0.0090951 0)
(1.04145 0.00899621 0)
(1.04136 0.00890839 0)
(1.04124 0.00883141 0)
(1.0411 0.00876522 0)
(1.04092 0.00870993 0)
(1.04073 0.00866579 0)
(1.0405 0.00863322 0)
(1.04026 0.00861275 0)
(1.03999 0.00860501 0)
(1.03969 0.00861083 0)
(1.03937 0.00863091 0)
(1.03903 0.00866644 0)
(1.03866 0.00871801 0)
(1.03827 0.00878737 0)
(1.03786 0.00887463 0)
(1.03742 0.00898235 0)
(1.03695 0.00910974 0)
(1.03647 0.00926005 0)
(1.03596 0.00943148 0)
(1.03542 0.00962638 0)
(1.03487 0.00984312 0)
(1.03429 0.0100781 0)
(1.03369 0.0103333 0)
(1.03306 0.0105906 0)
(1.0324 0.0108609 0)
(1.03168 0.0111132 0)
(1.03088 0.011378 0)
(1.02996 0.0116651 0)
(1.00093 0.0114263 0)
(1.01313 0.019788 0)
(1.02403 0.0173766 0)
(1.02868 0.015206 0)
(1.03039 0.0146554 0)
(1.03196 0.0140353 0)
(1.03356 0.0131787 0)
(1.03482 0.0124763 0)
(1.03575 0.0119697 0)
(1.03649 0.0115548 0)
(1.03712 0.0111878 0)
(1.03765 0.0108663 0)
(1.03809 0.0105874 0)
(1.03845 0.0103429 0)
(1.03874 0.0101257 0)
(1.03897 0.00993112 0)
(1.03915 0.00975585 0)
(1.03927 0.00959743 0)
(1.03936 0.00945399 0)
(1.0394 0.00932415 0)
(1.0394 0.00920686 0)
(1.03937 0.0091014 0)
(1.0393 0.00900721 0)
(1.03921 0.00892393 0)
(1.03908 0.00885137 0)
(1.03893 0.00878951 0)
(1.03875 0.00873846 0)
(1.03855 0.00869854 0)
(1.03832 0.00867017 0)
(1.03807 0.00865393 0)
(1.03779 0.00865047 0)
(1.0375 0.00866065 0)
(1.03718 0.00868521 0)
(1.03684 0.00872533 0)
(1.03648 0.00878167 0)
(1.03609 0.00885585 0)
(1.03568 0.00894818 0)
(1.03525 0.0090609 0)
(1.0348 0.00919364 0)
(1.03433 0.00934896 0)
(1.03383 0.00952591 0)
(1.03332 0.0097258 0)
(1.03278 0.00994797 0)
(1.03223 0.0101885 0)
(1.03165 0.0104491 0)
(1.03105 0.0107151 0)
(1.03041 0.0109937 0)
(1.02973 0.0112648 0)
(1.02896 0.0115499 0)
(1.0281 0.0118672 0)
(1.0008 0.010341 0)
(1.01173 0.0187051 0)
(1.02205 0.0169044 0)
(1.02677 0.0148399 0)
(1.02854 0.0143313 0)
(1.03007 0.0138209 0)
(1.03164 0.0130343 0)
(1.03291 0.0123551 0)
(1.03384 0.0118644 0)
(1.03457 0.0114676 0)
(1.03519 0.0111158 0)
(1.03571 0.010806 0)
(1.03614 0.0105367 0)
(1.03649 0.0103009 0)
(1.03677 0.0100918 0)
(1.03699 0.00990445 0)
(1.03716 0.00973587 0)
(1.03727 0.00958367 0)
(1.03735 0.00944607 0)
(1.03738 0.00932173 0)
(1.03737 0.00920968 0)
(1.03733 0.00910922 0)
(1.03726 0.00901984 0)
(1.03715 0.00894121 0)
(1.03702 0.00887316 0)
(1.03686 0.00881569 0)
(1.03667 0.00876897 0)
(1.03646 0.00873331 0)
(1.03623 0.00870917 0)
(1.03597 0.00869718 0)
(1.03569 0.00869802 0)
(1.03539 0.00871256 0)
(1.03507 0.00874158 0)
(1.03473 0.00878626 0)
(1.03436 0.00884729 0)
(1.03397 0.00892625 0)
(1.03357 0.00902355 0)
(1.03314 0.00914116 0)
(1.03269 0.00927909 0)
(1.03222 0.00943935 0)
(1.03173 0.00962157 0)
(1.03122 0.00982641 0)
(1.03069 0.0100538 0)
(1.03014 0.0102998 0)
(1.02957 0.0105658 0)
(1.02898 0.0108405 0)
(1.02835 0.0111278 0)
(1.02767 0.0114164 0)
(1.02693 0.0117214 0)
(1.02609 0.0120653 0)
(1.00069 0.00934932 0)
(1.01045 0.0176423 0)
(1.02017 0.0164235 0)
(1.02494 0.0144822 0)
(1.02678 0.0140053 0)
(1.02827 0.0135963 0)
(1.02982 0.0128845 0)
(1.03108 0.012232 0)
(1.03201 0.0117571 0)
(1.03274 0.0113784 0)
(1.03335 0.0110427 0)
(1.03386 0.010745 0)
(1.03428 0.0104858 0)
(1.03462 0.010259 0)
(1.03489 0.0100581 0)
(1.0351 0.00987829 0)
(1.03526 0.00971662 0)
(1.03537 0.00957083 0)
(1.03543 0.00943924 0)
(1.03545 0.00932057 0)
(1.03544 0.0092139 0)
(1.03539 0.00911858 0)
(1.03531 0.00903414 0)
(1.03519 0.00896027 0)
(1.03505 0.00889684 0)
(1.03489 0.00884387 0)
(1.03469 0.00880154 0)
(1.03448 0.00877023 0)
(1.03423 0.00875041 0)
(1.03397 0.00874275 0)
(1.03369 0.00874795 0)
(1.03338 0.00876691 0)
(1.03306 0.00880045 0)
(1.03271 0.00884973 0)
(1.03234 0.00891551 0)
(1.03195 0.00899926 0)
(1.03154 0.00910154 0)
(1.03111 0.0092241 0)
(1.03066 0.00936719 0)
(1.03019 0.00953244 0)
(1.0297 0.00971989 0)
(1.02919 0.00992981 0)
(1.02866 0.0101623 0)
(1.02811 0.0104142 0)
(1.02754 0.0106858 0)
(1.02695 0.0109691 0)
(1.02632 0.0112658 0)
(1.02564 0.0115709 0)
(1.0249 0.0118955 0)
(1.02408 0.0122634 0)
(1.0006 0.0084469 0)
(1.00929 0.0166036 0)
(1.01842 0.0159319 0)
(1.02319 0.0141324 0)
(1.0251 0.0136791 0)
(1.02657 0.013362 0)
(1.02808 0.0127285 0)
(1.02934 0.0121066 0)
(1.03027 0.0116479 0)
(1.03099 0.0112872 0)
(1.03159 0.0109681 0)
(1.03209 0.0106833 0)
(1.03251 0.0104345 0)
(1.03284 0.010217 0)
(1.0331 0.0100246 0)
(1.03331 0.00985259 0)
(1.03346 0.00969806 0)
(1.03356 0.00955889 0)
(1.03361 0.00943348 0)
(1.03363 0.00932063 0)
(1.0336 0.0092195 0)
(1.03354 0.00912946 0)
(1.03345 0.00905008 0)
(1.03333 0.0089811 0)
(1.03319 0.0089224 0)
(1.03301 0.00887403 0)
(1.03281 0.00883622 0)
(1.03259 0.00880935 0)
(1.03234 0.00879395 0)
(1.03207 0.0087907 0)
(1.03179 0.00880034 0)
(1.03147 0.00882381 0)
(1.03114 0.00886195 0)
(1.03079 0.00891591 0)
(1.03042 0.00898651 0)
(1.03003 0.00907513 0)
(1.02961 0.00918247 0)
(1.02918 0.00931005 0)
(1.02873 0.00945836 0)
(1.02825 0.00962872 0)
(1.02776 0.00982143 0)
(1.02725 0.0100366 0)
(1.02672 0.0102744 0)
(1.02617 0.0105322 0)
(1.0256 0.0108099 0)
(1.025 0.011102 0)
(1.02438 0.0114088 0)
(1.0237 0.0117298 0)
(1.02296 0.0120734 0)
(1.02214 0.0124636 0)
(1.00051 0.00762898 0)
(1.00824 0.015593 0)
(1.01677 0.0154286 0)
(1.02153 0.0137901 0)
(1.02351 0.0133547 0)
(1.02495 0.0131187 0)
(1.02643 0.0125659 0)
(1.02768 0.0119789 0)
(1.02862 0.0115368 0)
(1.02933 0.011194 0)
(1.02992 0.0108921 0)
(1.03042 0.0106208 0)
(1.03082 0.0103828 0)
(1.03115 0.0101749 0)
(1.03141 0.00999129 0)
(1.0316 0.00982732 0)
(1.03174 0.00968014 0)
(1.03183 0.00954779 0)
(1.03188 0.00942874 0)
(1.03189 0.0093219 0)
(1.03186 0.00922646 0)
(1.03179 0.00914184 0)