/*--------------------------------*- C++ -*----------------------------------*\
  =========                 |
  \\      /  F ield         | OpenFOAM: The Open Source CFD Toolbox
   \\    /   O peration     | Website:  https://openfoam.org
    \\  /    A nd           | Version:  7
     \\/     M anipulation  |
\*---------------------------------------------------------------------------*/
FoamFile
{
    version     2.0;
    format      ascii;
    class       volVectorField;
    location    "0.07";
    object      vorticity;
}
// * * * * * * * * * * * * * * * * * * * * * * * * * * * * * * * * * * * * * //

dimensions      [0 0 -1 0 0 0 0];

internalField   nonuniform List<vector> 
70000
(
(0 -0 -45715.9)
(0 -0 -28615.8)
(0 -0 -20907.8)
(0 -0 -16969.5)
(0 -0 -14942.2)
(0 -0 -13628.3)
(0 -0 -12611.2)
(0 -0 -11790.5)
(0 -0 -11118.2)
(0 -0 -10555.6)
(0 -0 -10074.9)
(0 -0 -9657.56)
(0 -0 -9290.68)
(0 -0 -8964.91)
(0 -0 -8673.14)
(0 -0 -8409.85)
(0 -0 -8170.69)
(0 -0 -7952.15)
(0 -0 -7751.39)
(0 -0 -7566.06)
(0 -0 -7394.18)
(0 -0 -7234.11)
(0 -0 -7084.42)
(0 -0 -6943.89)
(0 -0 -6811.48)
(0 -0 -6686.25)
(0 -0 -6567.39)
(0 -0 -6454.17)
(0 -0 -6345.95)
(0 -0 -6242.13)
(0 -0 -6142.19)
(0 -0 -6045.6)
(0 -0 -5951.98)
(0 -0 -5860.8)
(0 -0 -5771.8)
(0 -0 -5684.44)
(0 -0 -5598.57)
(0 -0 -5513.66)
(0 -0 -5429.54)
(0 -0 -5346.09)
(0 -0 -5262.27)
(0 -0 -5180.2)
(0 -0 -5094.59)
(0 -0 -5016.31)
(0 -0 -4924.66)
(0 -0 -4858.83)
(0 -0 -4751.65)
(0 -0 -4719.16)
(0 -0 -4602.15)
(0 -0 -4438.64)
(0 -0 -13549.8)
(0 -0 -19947.2)
(0 -0 -18534.4)
(0 -0 -16244.7)
(0 -0 -14494.5)
(0 -0 -13265.3)
(0 -0 -12331.2)
(0 -0 -11574.6)
(0 -0 -10945.3)
(0 -0 -10413)
(0 -0 -9955.27)
(0 -0 -9556.15)
(0 -0 -9204.1)
(0 -0 -8890.62)
(0 -0 -8609.22)
(0 -0 -8354.86)
(0 -0 -8123.5)
(0 -0 -7911.9)
(0 -0 -7717.41)
(0 -0 -7537.81)
(0 -0 -7371.26)
(0 -0 -7216.19)
(0 -0 -7071.26)
(0 -0 -6935.32)
(0 -0 -6807.37)
(0 -0 -6686.52)
(0 -0 -6572.01)
(0 -0 -6463.13)
(0 -0 -6359.27)
(0 -0 -6259.87)
(0 -0 -6164.43)
(0 -0 -6072.44)
(0 -0 -5983.52)
(0 -0 -5897.18)
(0 -0 -5813.13)
(0 -0 -5730.87)
(0 -0 -5650.19)
(0 -0 -5570.57)
(0 -0 -5491.79)
(0 -0 -5413.59)
(0 -0 -5335.08)
(0 -0 -5257.63)
(0 -0 -5177.07)
(0 -0 -5101.21)
(0 -0 -5014.44)
(0 -0 -4944.92)
(0 -0 -4843.95)
(0 -0 -4791.61)
(0 -0 -4678.66)
(0 -0 -4669.79)
(0 -0 -3818.84)
(0 -0 -10829.4)
(0 -0 -13364.3)
(0 -0 -13519.7)
(0 -0 -12864.4)
(0 -0 -12135.3)
(0 -0 -11489.9)
(0 -0 -10925.1)
(0 -0 -10428.3)
(0 -0 -9990.45)
(0 -0 -9602.92)
(0 -0 -9257.74)
(0 -0 -8948.25)
(0 -0 -8669.05)
(0 -0 -8415.78)
(0 -0 -8184.87)
(0 -0 -7973.37)
(0 -0 -7778.83)
(0 -0 -7599.16)
(0 -0 -7432.63)
(0 -0 -7277.73)
(0 -0 -7133.18)
(0 -0 -6997.85)
(0 -0 -6870.78)
(0 -0 -6751.11)
(0 -0 -6638.08)
(0 -0 -6531.02)
(0 -0 -6429.33)
(0 -0 -6332.48)
(0 -0 -6239.95)
(0 -0 -6151.32)
(0 -0 -6066.15)
(0 -0 -5984.08)
(0 -0 -5904.71)
(0 -0 -5827.75)
(0 -0 -5752.77)
(0 -0 -5679.57)
(0 -0 -5607.71)
(0 -0 -5536.95)
(0 -0 -5467.01)
(0 -0 -5397.23)
(0 -0 -5328.27)
(0 -0 -5257.54)
(0 -0 -5189.32)
(0 -0 -5114.62)
(0 -0 -5048.46)
(0 -0 -4965.38)
(0 -0 -4903.68)
(0 -0 -4813.27)
(0 -0 -4816.43)
(0 -0 -533.023)
(0 -0 -4663.17)
(0 -0 -7720.22)
(0 -0 -9331.48)
(0 -0 -9895.74)
(0 -0 -9960.72)
(0 -0 -9827.81)
(0 -0 -9613.83)
(0 -0 -9367.71)
(0 -0 -9114.27)
(0 -0 -8866.08)
(0 -0 -8628.86)
(0 -0 -8404.84)
(0 -0 -8194.56)
(0 -0 -7997.74)
(0 -0 -7813.73)
(0 -0 -7641.68)
(0 -0 -7480.7)
(0 -0 -7329.92)
(0 -0 -7188.49)
(0 -0 -7055.62)
(0 -0 -6930.58)
(0 -0 -6812.7)
(0 -0 -6701.37)
(0 -0 -6596.02)
(0 -0 -6496.14)
(0 -0 -6401.27)
(0 -0 -6310.97)
(0 -0 -6224.85)
(0 -0 -6142.54)
(0 -0 -6063.71)
(0 -0 -5988.03)
(0 -0 -5915.23)
(0 -0 -5844.99)
(0 -0 -5777.09)
(0 -0 -5711.22)
(0 -0 -5647.19)
(0 -0 -5584.65)
(0 -0 -5523.47)
(0 -0 -5463.29)
(0 -0 -5403.88)
(0 -0 -5345.09)
(0 -0 -5286.22)
(0 -0 -5227.87)
(0 -0 -5168.16)
(0 -0 -5108.96)
(0 -0 -5048.01)
(0 -0 -4984.08)
(0 -0 -4927.2)
(0 -0 -4887.98)
(0 -0 322.52)
(0 -0 -1444.73)
(0 -0 -3533.94)
(0 -0 -5262.44)
(0 -0 -6404.51)
(0 -0 -7080.97)
(0 -0 -7459.54)
(0 -0 -7650.52)
(0 -0 -7722.13)
(0 -0 -7718.66)
(0 -0 -7668.76)
(0 -0 -7590.64)
(0 -0 -7495.85)
(0 -0 -7391.81)
(0 -0 -7283.3)
(0 -0 -7173.45)
(0 -0 -7064.3)
(0 -0 -6957.14)
(0 -0 -6852.79)
(0 -0 -6751.73)
(0 -0 -6654.24)
(0 -0 -6560.43)
(0 -0 -6470.31)
(0 -0 -6383.82)
(0 -0 -6300.85)
(0 -0 -6221.27)
(0 -0 -6144.93)
(0 -0 -6071.67)
(0 -0 -6001.3)
(0 -0 -5933.68)
(0 -0 -5868.62)
(0 -0 -5805.96)
(0 -0 -5745.54)
(0 -0 -5687.18)
(0 -0 -5630.76)
(0 -0 -5576.07)
(0 -0 -5523.02)
(0 -0 -5471.37)
(0 -0 -5421.07)
(0 -0 -5371.77)
(0 -0 -5323.63)
(0 -0 -5275.85)
(0 -0 -5229.39)
(0 -0 -5181.86)
(0 -0 -5137.2)
(0 -0 -5087.07)
(0 -0 -5046.9)
(0 -0 -4986.71)
(0 -0 -4961.26)
(0 -0 -4894.66)
(0 -0 364.761)
(0 -0 -158.516)
(0 -0 -1182.14)
(0 -0 -2364.24)
(0 -0 -3422.03)
(0 -0 -4263.28)
(0 -0 -4901)
(0 -0 -5368.8)
(0 -0 -5701.52)
(0 -0 -5931.08)
(0 -0 -6083.74)
(0 -0 -6179.67)
(0 -0 -6233.87)
(0 -0 -6257.43)
(0 -0 -6258.51)
(0 -0 -6243.16)
(0 -0 -6215.87)
(0 -0 -6179.97)
(0 -0 -6137.98)
(0 -0 -6091.78)
(0 -0 -6042.78)
(0 -0 -5992.05)
(0 -0 -5940.39)
(0 -0 -5888.41)
(0 -0 -5836.56)
(0 -0 -5785.17)
(0 -0 -5734.49)
(0 -0 -5684.7)
(0 -0 -5635.91)
(0 -0 -5588.21)
(0 -0 -5541.64)
(0 -0 -5496.24)
(0 -0 -5451.99)
(0 -0 -5408.91)
(0 -0 -5366.96)
(0 -0 -5326.11)
(0 -0 -5286.33)
(0 -0 -5247.53)
(0 -0 -5209.77)
(0 -0 -5172.72)
(0 -0 -5136.86)
(0 -0 -5101.03)
(0 -0 -5067.21)
(0 -0 -5031.35)
(0 -0 -5000.7)
(0 -0 -4961.58)
(0 -0 -4938.19)
(0 -0 -4887.83)
(0 -0 -4882.24)
(0 -0 -4818.93)
(0 -0 254.049)
(0 -0 185.391)
(0 -0 -173.404)
(0 -0 -765.694)
(0 -0 -1450.44)
(0 -0 -2120.65)
(0 -0 -2728.77)
(0 -0 -3255.02)
(0 -0 -3694.95)
(0 -0 -4054.08)
(0 -0 -4342.51)
(0 -0 -4571.28)
(0 -0 -4750.68)
(0 -0 -4889.71)
(0 -0 -4995.97)
(0 -0 -5075.73)
(0 -0 -5134.1)
(0 -0 -5175.25)
(0 -0 -5202.54)
(0 -0 -5218.68)
(0 -0 -5225.87)
(0 -0 -5225.88)
(0 -0 -5220.16)
(0 -0 -5209.86)
(0 -0 -5195.96)
(0 -0 -5179.2)
(0 -0 -5160.24)
(0 -0 -5139.57)
(0 -0 -5117.61)
(0 -0 -5094.71)
(0 -0 -5071.15)
(0 -0 -5047.15)
(0 -0 -5022.9)
(0 -0 -4998.57)
(0 -0 -4974.26)
(0 -0 -4950.1)
(0 -0 -4926.16)
(0 -0 -4902.49)
(0 -0 -4879.23)
(0 -0 -4856.19)
(0 -0 -4833.93)
(0 -0 -4811.36)
(0 -0 -4790.69)
(0 -0 -4767.69)
(0 -0 -4750.16)
(0 -0 -4724.01)
(0 -0 -4713.71)
(0 -0 -4678.03)
(0 -0 -4682.46)
(0 -0 -4637.92)
(0 -0 178.763)
(0 -0 204.57)
(0 -0 130.734)
(0 -0 -85.474)
(0 -0 -419.089)
(0 -0 -817.759)
(0 -0 -1241.61)
(0 -0 -1661.6)
(0 -0 -2057.63)
(0 -0 -2418.43)
(0 -0 -2739.51)
(0 -0 -3020.58)
(0 -0 -3263.69)
(0 -0 -3472.09)
(0 -0 -3649.49)
(0 -0 -3799.65)
(0 -0 -3926.12)
(0 -0 -4032.15)
(0 -0 -4120.63)
(0 -0 -4194.09)
(0 -0 -4254.72)
(0 -0 -4304.43)
(0 -0 -4344.83)
(0 -0 -4377.32)
(0 -0 -4403.08)
(0 -0 -4423.13)
(0 -0 -4438.33)
(0 -0 -4449.42)
(0 -0 -4457.03)
(0 -0 -4461.69)
(0 -0 -4463.87)
(0 -0 -4463.97)
(0 -0 -4462.32)
(0 -0 -4459.23)
(0 -0 -4454.93)
(0 -0 -4449.69)
(0 -0 -4443.66)
(0 -0 -4437.04)
(0 -0 -4430.01)
(0 -0 -4422.58)
(0 -0 -4415.22)
(0 -0 -4407.23)
(0 -0 -4400.42)
(0 -0 -4391.47)
(0 -0 -4386.84)
(0 -0 -4375.05)
(0 -0 -4376.07)
(0 -0 -4357.17)
(0 -0 -4368.21)
(0 -0 -4344.43)
(0 -0 148.039)
(0 -0 164.65)
(0 -0 170.073)
(0 -0 121.014)
(0 -0 0.718263)
(0 -0 -181.893)
(0 -0 -411.566)
(0 -0 -671.97)
(0 -0 -947.185)
(0 -0 -1224.12)
(0 -0 -1493.35)
(0 -0 -1748.66)
(0 -0 -1986.34)
(0 -0 -2204.57)
(0 -0 -2402.86)
(0 -0 -2581.6)
(0 -0 -2741.74)
(0 -0 -2884.55)
(0 -0 -3011.43)
(0 -0 -3123.85)
(0 -0 -3223.24)
(0 -0 -3310.94)
(0 -0 -3388.24)
(0 -0 -3456.27)
(0 -0 -3516.1)
(0 -0 -3568.68)
(0 -0 -3614.84)
(0 -0 -3655.36)
(0 -0 -3690.89)
(0 -0 -3722.03)
(0 -0 -3749.32)
(0 -0 -3773.23)
(0 -0 -3794.16)
(0 -0 -3812.52)
(0 -0 -3828.59)
(0 -0 -3842.74)
(0 -0 -3855.17)
(0 -0 -3866.21)
(0 -0 -3876.01)
(0 -0 -3884.81)
(0 -0 -3892.89)
(0 -0 -3900.05)
(0 -0 -3907.45)
(0 -0 -3913.03)
(0 -0 -3921.34)
(0 -0 -3924.27)
(0 -0 -3936.29)
(0 -0 -3933.95)
(0 -0 -3951.97)
(0 -0 -3946.71)
(0 -0 136.853)
(0 -0 137.107)
(0 -0 148.802)
(0 -0 149.774)
(0 -0 122.216)
(0 -0 59.8325)
(0 -0 -37.3379)
(0 -0 -165.744)
(0 -0 -319.073)
(0 -0 -489.977)
(0 -0 -671.443)
(0 -0 -857.42)
(0 -0 -1043.01)
(0 -0 -1224.49)
(0 -0 -1399.15)
(0 -0 -1565.2)
(0 -0 -1721.54)
(0 -0 -1867.62)
(0 -0 -2003.32)
(0 -0 -2128.77)
(0 -0 -2244.33)
(0 -0 -2350.48)
(0 -0 -2447.79)
(0 -0 -2536.86)
(0 -0 -2618.29)
(0 -0 -2692.71)
(0 -0 -2760.7)
(0 -0 -2822.82)
(0 -0 -2879.6)
(0 -0 -2931.54)
(0 -0 -2979.09)
(0 -0 -3022.68)
(0 -0 -3062.69)
(0 -0 -3099.5)
(0 -0 -3133.42)
(0 -0 -3164.8)
(0 -0 -3193.86)
(0 -0 -3220.98)
(0 -0 -3246.26)
(0 -0 -3270.11)
(0 -0 -3292.63)
(0 -0 -3314)
(0 -0 -3334.84)
(0 -0 -3354.09)
(0 -0 -3374.74)
(0 -0 -3391.38)
(0 -0 -3414.07)
(0 -0 -3426.68)
(0 -0 -3452.41)
(0 -0 -3463.01)
(0 -0 129.978)
(0 -0 124.039)
(0 -0 129.237)
(0 -0 136.468)
(0 -0 136.575)
(0 -0 123.249)
(0 -0 92.7495)
(0 -0 43.1164)
(0 -0 -25.5704)
(0 -0 -111.525)
(0 -0 -211.972)
(0 -0 -323.731)
(0 -0 -443.578)
(0 -0 -568.504)
(0 -0 -695.866)
(0 -0 -823.445)
(0 -0 -949.454)
(0 -0 -1072.51)
(0 -0 -1191.59)
(0 -0 -1305.96)
(0 -0 -1415.16)
(0 -0 -1518.92)
(0 -0 -1617.13)
(0 -0 -1709.79)
(0 -0 -1797.03)
(0 -0 -1879)
(0 -0 -1955.93)
(0 -0 -2028.07)
(0 -0 -2095.69)
(0 -0 -2159.07)
(0 -0 -2218.49)
(0 -0 -2274.24)
(0 -0 -2326.57)
(0 -0 -2375.78)
(0 -0 -2422.07)
(0 -0 -2465.78)
(0 -0 -2507.05)
(0 -0 -2546.24)
(0 -0 -2583.4)
(0 -0 -2618.98)
(0 -0 -2652.97)
(0 -0 -2685.72)
(0 -0 -2717.54)
(0 -0 -2747.95)
(0 -0 -2778.91)
(0 -0 -2806.87)
(0 -0 -2838.7)
(0 -0 -2863.57)
(0 -0 -2896.51)
(0 -0 -2919.92)
(0 -0 122.991)
(0 -0 116.692)
(0 -0 118.071)
(0 -0 122.566)
(0 -0 126.535)
(0 -0 127.019)
(0 -0 121.504)
(0 -0 107.623)
(0 -0 83.6637)
(0 -0 48.85)
(0 -0 3.23238)
(0 -0 -52.4962)
(0 -0 -117.197)
(0 -0 -189.466)
(0 -0 -267.791)
(0 -0 -350.672)
(0 -0 -436.695)
(0 -0 -524.59)
(0 -0 -613.246)
(0 -0 -701.725)
(0 -0 -789.255)
(0 -0 -875.216)
(0 -0 -959.129)
(0 -0 -1040.63)
(0 -0 -1119.48)
(0 -0 -1195.49)
(0 -0 -1268.59)
(0 -0 -1338.73)
(0 -0 -1405.93)
(0 -0 -1470.24)
(0 -0 -1531.74)
(0 -0 -1590.53)
(0 -0 -1646.73)
(0 -0 -1700.48)
(0 -0 -1751.89)
(0 -0 -1801.16)
(0 -0 -1848.37)
(0 -0 -1893.8)
(0 -0 -1937.44)
(0 -0 -1979.68)
(0 -0 -2020.46)
(0 -0 -2060.12)
(0 -0 -2098.85)
(0 -0 -2136.41)
(0 -0 -2174.15)
(0 -0 -2209.67)
(0 -0 -2247.67)
(0 -0 -2281.03)
(0 -0 -2319.13)
(0 -0 -2351.52)
(0 -0 115.673)
(0 -0 110.465)
(0 -0 110.795)
(0 -0 113.247)
(0 -0 116.079)
(0 -0 118.362)
(0 -0 119.254)
(0 -0 117.526)
(0 -0 111.857)
(0 -0 101.146)
(0 -0 84.6233)
(0 -0 61.879)
(0 -0 32.8349)
(0 -0 -2.29562)
(0 -0 -43.0743)
(0 -0 -88.9071)
(0 -0 -139.107)
(0 -0 -192.946)
(0 -0 -249.7)
(0 -0 -308.671)
(0 -0 -369.217)
(0 -0 -430.754)
(0 -0 -492.768)
(0 -0 -554.818)
(0 -0 -616.529)
(0 -0 -677.591)
(0 -0 -737.756)
(0 -0 -796.83)
(0 -0 -854.663)
(0 -0 -911.154)
(0 -0 -966.226)
(0 -0 -1019.85)
(0 -0 -1072)
(0 -0 -1122.7)
(0 -0 -1171.95)
(0 -0 -1219.86)
(0 -0 -1266.39)
(0 -0 -1311.75)
(0 -0 -1355.87)
(0 -0 -1399.02)
(0 -0 -1441.15)
(0 -0 -1482.49)
(0 -0 -1523.18)
(0 -0 -1563.04)
(0 -0 -1603.06)
(0 -0 -1641.61)
(0 -0 -1681.78)
(0 -0 -1719.11)
(0 -0 -1759.14)
(0 -0 -1796.06)
(0 -0 108.431)
(0 -0 104.251)
(0 -0 104.475)
(0 -0 106.196)
(0 -0 108.08)
(0 -0 109.809)
(0 -0 111.367)
(0 -0 112.402)
(0 -0 112.316)
(0 -0 110.454)
(0 -0 106.201)
(0 -0 99.0238)
(0 -0 88.5182)
(0 -0 74.4258)
(0 -0 56.6366)
(0 -0 35.1744)
(0 -0 10.1765)
(0 -0 -18.1316)
(0 -0 -49.4609)
(0 -0 -83.4815)
(0 -0 -119.842)
(0 -0 -158.188)
(0 -0 -198.17)
(0 -0 -239.455)
(0 -0 -281.737)
(0 -0 -324.735)
(0 -0 -368.199)
(0 -0 -411.911)
(0 -0 -455.68)
(0 -0 -499.349)
(0 -0 -542.783)
(0 -0 -585.881)
(0 -0 -628.548)
(0 -0 -670.741)
(0 -0 -712.388)
(0 -0 -753.508)
(0 -0 -794.035)
(0 -0 -834.056)
(0 -0 -873.5)
(0 -0 -912.517)
(0 -0 -951.05)
(0 -0 -989.238)
(0 -0 -1027.19)
(0 -0 -1064.74)
(0 -0 -1102.59)
(0 -0 -1139.66)
(0 -0 -1177.9)
(0 -0 -1214.66)
(0 -0 -1253)
(0 -0 -1289.95)
(0 -0 101.456)
(0 -0 98.0637)
(0 -0 98.3033)
(0 -0 99.7916)
(0 -0 101.319)
(0 -0 102.607)
(0 -0 103.85)
(0 -0 105.058)
(0 -0 106.055)
(0 -0 106.584)
(0 -0 106.352)
(0 -0 105.045)
(0 -0 102.352)
(0 -0 97.997)
(0 -0 91.7551)
(0 -0 83.4615)
(0 -0 73.0157)
(0 -0 60.3796)
(0 -0 45.5708)
(0 -0 28.6544)
(0 -0 9.73421)
(0 -0 -11.0566)
(0 -0 -33.5645)
(0 -0 -57.6235)
(0 -0 -83.0619)
(0 -0 -109.708)
(0 -0 -137.396)
(0 -0 -165.969)
(0 -0 -195.277)
(0 -0 -225.19)
(0 -0 -255.581)
(0 -0 -286.35)
(0 -0 -317.395)
(0 -0 -348.651)
(0 -0 -380.032)
(0 -0 -411.515)
(0 -0 -443.024)
(0 -0 -474.584)
(0 -0 -506.124)
(0 -0 -537.711)
(0 -0 -569.303)
(0 -0 -600.953)
(0 -0 -632.745)
(0 -0 -664.548)
(0 -0 -696.811)
(0 -0 -728.882)
(0 -0 -761.888)
(0 -0 -794.391)
(0 -0 -827.933)
(0 -0 -861.169)
(0 -0 94.7826)
(0 -0 92.018)
(0 -0 92.2467)
(0 -0 93.5872)
(0 -0 94.9835)
(0 -0 96.0981)
(0 -0 97.115)
(0 -0 98.133)
(0 -0 99.1239)
(0 -0 100.018)
(0 -0 100.723)
(0 -0 101.113)
(0 -0 101.041)
(0 -0 100.349)
(0 -0 98.8791)
(0 -0 96.484)
(0 -0 93.037)
(0 -0 88.4351)
(0 -0 82.6024)
(0 -0 75.4909)
(0 -0 67.0788)
(0 -0 57.369)
(0 -0 46.3857)
(0 -0 34.1706)
(0 -0 20.7801)
(0 -0 6.28029)
(0 -0 -9.2545)
(0 -0 -25.7477)
(0 -0 -43.1192)
(0 -0 -61.2931)
(0 -0 -80.1914)
(0 -0 -99.7467)
(0 -0 -119.887)
(0 -0 -140.562)
(0 -0 -161.705)
(0 -0 -183.287)
(0 -0 -205.248)
(0 -0 -227.585)
(0 -0 -250.247)
(0 -0 -273.253)
(0 -0 -296.579)
(0 -0 -320.234)
(0 -0 -344.279)
(0 -0 -368.62)
(0 -0 -393.523)
(0 -0 -418.633)
(0 -0 -444.541)
(0 -0 -470.556)
(0 -0 -497.36)
(0 -0 -524.465)
(0 -0 88.4096)
(0 -0 86.1661)
(0 -0 86.3773)
(0 -0 87.5691)
(0 -0 88.8678)
(0 -0 89.9037)
(0 -0 90.8141)
(0 -0 91.7029)
(0 -0 92.5744)
(0 -0 93.4136)
(0 -0 94.2034)
(0 -0 94.9129)
(0 -0 95.4932)
(0 -0 95.8808)
(0 -0 96.0024)
(0 -0 95.7788)
(0 -0 95.1298)
(0 -0 93.978)
(0 -0 92.2524)
(0 -0 89.8909)
(0 -0 86.8424)
(0 -0 83.067)
(0 -0 78.5371)
(0 -0 73.2366)
(0 -0 67.1605)
(0 -0 60.3126)
(0 -0 52.7063)
(0 -0 44.3601)
(0 -0 35.299)
(0 -0 25.5497)
(0 -0 15.144)
(0 -0 4.11078)
(0 -0 -7.51498)
(0 -0 -19.7077)
(0 -0 -32.432)
(0 -0 -45.6699)
(0 -0 -59.3877)
(0 -0 -73.5788)
(0 -0 -88.215)
(0 -0 -103.299)
(0 -0 -118.823)
(0 -0 -134.781)
(0 -0 -151.215)
(0 -0 -168.072)
(0 -0 -185.494)
(0 -0 -203.318)
(0 -0 -221.816)
(0 -0 -240.715)
(0 -0 -260.264)
(0 -0 -280.372)
(0 -0 82.3357)
(0 -0 80.5261)
(0 -0 80.7284)
(0 -0 81.7762)
(0 -0 82.9721)
(0 -0 83.9432)
(0 -0 84.7858)
(0 -0 85.5972)
(0 -0 86.3853)
(0 -0 87.1433)
(0 -0 87.8721)
(0 -0 88.5707)
(0 -0 89.2295)
(0 -0 89.8309)
(0 -0 90.3504)
(0 -0 90.7575)
(0 -0 91.0165)
(0 -0 91.089)
(0 -0 90.9348)
(0 -0 90.5136)
(0 -0 89.7868)
(0 -0 88.7186)
(0 -0 87.277)
(0 -0 85.4347)
(0 -0 83.1692)
(0 -0 80.4634)
(0 -0 77.3048)
(0 -0 73.6854)
(0 -0 69.6021)
(0 -0 65.0537)
(0 -0 60.044)
(0 -0 54.576)
(0 -0 48.6584)
(0 -0 42.2966)
(0 -0 35.5014)
(0 -0 28.277)
(0 -0 20.6351)
(0 -0 12.5769)
(0 -0 4.1115)
(0 -0 -4.7628)
(0 -0 -14.0469)
(0 -0 -23.7401)
(0 -0 -33.8665)
(0 -0 -44.4083)
(0 -0 -55.431)
(0 -0 -66.8834)
(0 -0 -78.868)
(0 -0 -91.3207)
(0 -0 -104.296)
(0 -0 -117.86)
(0 -0 76.5613)
(0 -0 75.1095)
(0 -0 75.312)
(0 -0 76.2286)
(0 -0 77.3193)
(0 -0 78.2241)
(0 -0 79.0055)
(0 -0 79.7545)
(0 -0 80.4808)
(0 -0 81.1765)
(0 -0 81.8437)
(0 -0 82.4869)
(0 -0 83.1073)
(0 -0 83.7025)
(0 -0 84.2672)
(0 -0 84.793)
(0 -0 85.2689)
(0 -0 85.6807)
(0 -0 86.0119)
(0 -0 86.2443)
(0 -0 86.358)
(0 -0 86.3327)
(0 -0 86.1482)
(0 -0 85.7848)
(0 -0 85.2242)
(0 -0 84.4495)
(0 -0 83.4458)
(0 -0 82.2)
(0 -0 80.7012)
(0 -0 78.9398)
(0 -0 76.9085)
(0 -0 74.601)
(0 -0 72.0126)
(0 -0 69.1388)
(0 -0 65.9778)
(0 -0 62.5257)
(0 -0 58.7818)
(0 -0 54.742)
(0 -0 50.4047)
(0 -0 45.7649)
(0 -0 40.8182)
(0 -0 35.5592)
(0 -0 29.9745)
(0 -0 24.0604)
(0 -0 17.7928)
(0 -0 11.1682)
(0 -0 4.16208)
(0 -0 -3.24702)
(0 -0 -11.0429)
(0 -0 -19.3306)
(0 -0 71.0861)
(0 -0 69.9266)
(0 -0 70.135)
(0 -0 70.9349)
(0 -0 71.9222)
(0 -0 72.7607)
(0 -0 73.4824)
(0 -0 74.1721)
(0 -0 74.8425)
(0 -0 75.485)
(0 -0 76.1)
(0 -0 76.6918)
(0 -0 77.2632)
(0 -0 77.8153)
(0 -0 78.348)
(0 -0 78.8604)
(0 -0 79.3505)
(0 -0 79.8149)
(0 -0 80.2488)
(0 -0 80.6463)
(0 -0 80.9999)
(0 -0 81.301)
(0 -0 81.5403)
(0 -0 81.7079)
(0 -0 81.7938)
(0 -0 81.7881)
(0 -0 81.681)
(0 -0 81.4633)
(0 -0 81.1262)
(0 -0 80.6613)
(0 -0 80.0609)
(0 -0 79.3177)
(0 -0 78.4251)
(0 -0 77.3766)
(0 -0 76.1665)
(0 -0 74.789)
(0 -0 73.239)
(0 -0 71.511)
(0 -0 69.6001)
(0 -0 67.5)
(0 -0 65.2051)
(0 -0 62.7073)
(0 -0 60.0005)
(0 -0 57.0721)
(0 -0 53.9175)
(0 -0 50.5139)
(0 -0 46.8666)
(0 -0 42.93)
(0 -0 38.7386)
(0 -0 34.1952)
(0 -0 65.9087)
(0 -0 64.9858)
(0 -0 65.2032)
(0 -0 65.9001)
(0 -0 66.7878)
(0 -0 67.5611)
(0 -0 68.2255)
(0 -0 68.8579)
(0 -0 69.4744)
(0 -0 70.0667)
(0 -0 70.6336)
(0 -0 71.1787)
(0 -0 71.7047)
(0 -0 72.2128)
(0 -0 72.7039)
(0 -0 73.1788)
(0 -0 73.6379)
(0 -0 74.0814)
(0 -0 74.5089)
(0 -0 74.919)
(0 -0 75.3101)
(0 -0 75.6794)
(0 -0 76.0237)
(0 -0 76.3394)
(0 -0 76.6224)
(0 -0 76.8684)
(0 -0 77.0729)
(0 -0 77.2315)
(0 -0 77.3395)
(0 -0 77.3922)
(0 -0 77.385)
(0 -0 77.3131)
(0 -0 77.1717)
(0 -0 76.9562)
(0 -0 76.6619)
(0 -0 76.2841)
(0 -0 75.8183)
(0 -0 75.2598)
(0 -0 74.6043)
(0 -0 73.8462)
(0 -0 72.9822)
(0 -0 72.004)
(0 -0 70.9104)
(0 -0 69.6874)
(0 -0 68.339)
(0 -0 66.8403)
(0 -0 65.2057)
(0 -0 63.3921)
(0 -0 61.4321)
(0 -0 59.2497)
(0 -0 61.0264)
(0 -0 60.2937)
(0 -0 60.5207)
(0 -0 61.1272)
(0 -0 61.9201)
(0 -0 62.6302)
(0 -0 63.24)
(0 -0 63.8178)
(0 -0 64.3823)
(0 -0 64.9262)
(0 -0 65.4472)
(0 -0 65.9481)
(0 -0 66.4313)
(0 -0 66.8979)
(0 -0 67.3488)
(0 -0 67.7848)
(0 -0 68.2069)
(0 -0 68.6161)
(0 -0 69.013)
(0 -0 69.3979)
(0 -0 69.7709)
(0 -0 70.1316)
(0 -0 70.4792)
(0 -0 70.8128)
(0 -0 71.1312)
(0 -0 71.4334)
(0 -0 71.7178)
(0 -0 71.9832)
(0 -0 72.2277)
(0 -0 72.4498)
(0 -0 72.6473)
(0 -0 72.8181)
(0 -0 72.96)
(0 -0 73.0705)
(0 -0 73.147)
(0 -0 73.1868)
(0 -0 73.1872)
(0 -0 73.1453)
(0 -0 73.0587)
(0 -0 72.9235)
(0 -0 72.7386)
(0 -0 72.4976)
(0 -0 72.2022)
(0 -0 71.841)
(0 -0 71.4206)
(0 -0 70.921)
(0 -0 70.3573)
(0 -0 69.6959)
(0 -0 68.9651)
(0 -0 68.1085)
(0 -0 56.4353)
(0 -0 55.8542)
(0 -0 56.0901)
(0 -0 56.6177)
(0 -0 57.3215)
(0 -0 57.9704)
(0 -0 58.5286)
(0 -0 59.0548)
(0 -0 59.5696)
(0 -0 60.0672)
(0 -0 60.5442)
(0 -0 61.0028)
(0 -0 61.4451)
(0 -0 61.8722)
(0 -0 62.2847)
(0 -0 62.6834)
(0 -0 63.0694)
(0 -0 63.4437)
(0 -0 63.807)
(0 -0 64.1602)
(0 -0 64.5036)
(0 -0 64.8375)
(0 -0 65.1619)
(0 -0 65.4769)
(0 -0 65.7823)
(0 -0 66.0783)
(0 -0 66.3649)
(0 -0 66.6419)
(0 -0 66.9094)
(0 -0 67.1671)
(0 -0 67.4145)
(0 -0 67.6511)
(0 -0 67.8762)
(0 -0 68.089)
(0 -0 68.2883)
(0 -0 68.473)
(0 -0 68.642)
(0 -0 68.7938)
(0 -0 68.9277)
(0 -0 69.0414)
(0 -0 69.1354)
(0 -0 69.2054)
(0 -0 69.2544)
(0 -0 69.2744)
(0 -0 69.2726)
(0 -0 69.2343)
(0 -0 69.1734)
(0 -0 69.0651)
(0 -0 68.9342)
(0 -0 68.7383)
(0 -0 52.13)
(0 -0 51.6694)
(0 -0 51.912)
(0 -0 52.371)
(0 -0 52.9922)
(0 -0 53.5821)
(0 -0 54.0918)
(0 -0 54.5694)
(0 -0 55.0372)
(0 -0 55.4907)
(0 -0 55.9259)
(0 -0 56.3441)
(0 -0 56.7474)
(0 -0 57.1367)
(0 -0 57.5126)
(0 -0 57.8758)
(0 -0 58.2272)
(0 -0 58.5679)
(0 -0 58.8986)
(0 -0 59.2202)
(0 -0 59.5331)
(0 -0 59.8377)
(0 -0 60.1341)
(0 -0 60.4226)
(0 -0 60.7035)
(0 -0 60.9771)
(0 -0 61.2441)
(0 -0 61.5048)
(0 -0 61.7598)
(0 -0 62.0094)
(0 -0 62.254)
(0 -0 62.4936)
(0 -0 62.7283)
(0 -0 62.9579)
(0 -0 63.1824)
(0 -0 63.4012)
(0 -0 63.6143)
(0 -0 63.821)
(0 -0 64.0215)
(0 -0 64.2146)
(0 -0 64.4017)
(0 -0 64.58)
(0 -0 64.7532)
(0 -0 64.9156)
(0 -0 65.0742)
(0 -0 65.2184)
(0 -0 65.3607)
(0 -0 65.4827)
(0 -0 65.6062)
(0 -0 65.6981)
(0 -0 48.1044)
(0 -0 47.739)
(0 -0 47.9853)
(0 -0 48.3851)
(0 -0 48.9304)
(0 -0 49.4639)
(0 -0 49.928)
(0 -0 50.3604)
(0 -0 50.7839)
(0 -0 51.1957)
(0 -0 51.5913)
(0 -0 51.9714)
(0 -0 52.3377)
(0 -0 52.6911)
(0 -0 53.0321)
(0 -0 53.3614)
(0 -0 53.6798)
(0 -0 53.9884)
(0 -0 54.288)
(0 -0 54.5793)
(0 -0 54.8628)
(0 -0 55.1387)
(0 -0 55.4073)
(0 -0 55.6688)
(0 -0 55.9236)
(0 -0 56.1722)
(0 -0 56.4151)
(0 -0 56.6531)
(0 -0 56.8868)
(0 -0 57.1167)
(0 -0 57.3434)
(0 -0 57.5672)
(0 -0 57.7885)
(0 -0 58.0073)
(0 -0 58.2238)
(0 -0 58.4381)
(0 -0 58.6502)
(0 -0 58.8599)
(0 -0 59.0679)
(0 -0 59.2735)
(0 -0 59.4785)
(0 -0 59.6811)
(0 -0 59.8847)
(0 -0 60.0855)
(0 -0 60.2898)
(0 -0 60.4899)
(0 -0 60.6968)
(0 -0 60.8957)
(0 -0 61.1072)
(0 -0 61.3031)
(0 -0 44.3508)
(0 -0 44.0607)
(0 -0 44.3072)
(0 -0 44.656)
(0 -0 45.1324)
(0 -0 45.6125)
(0 -0 46.0338)
(0 -0 46.4243)
(0 -0 46.8064)
(0 -0 47.179)
(0 -0 47.5374)
(0 -0 47.8816)
(0 -0 48.213)
(0 -0 48.5325)
(0 -0 48.8405)
(0 -0 49.1376)
(0 -0 49.4248)
(0 -0 49.7029)
(0 -0 49.9729)
(0 -0 50.2354)
(0 -0 50.4908)
(0 -0 50.7394)
(0 -0 50.9813)
(0 -0 51.2168)
(0 -0 51.4463)
(0 -0 51.6702)
(0 -0 51.8892)
(0 -0 52.104)
(0 -0 52.3152)
(0 -0 52.5234)
(0 -0 52.7292)
(0 -0 52.933)
(0 -0 53.1352)
(0 -0 53.3359)
(0 -0 53.5354)
(0 -0 53.7336)
(0 -0 53.931)
(0 -0 54.1273)
(0 -0 54.3234)
(0 -0 54.5188)
(0 -0 54.7153)
(0 -0 54.9117)
(0 -0 55.1113)
(0 -0 55.311)
(0 -0 55.5167)
(0 -0 55.722)
(0 -0 55.9371)
(0 -0 56.1494)
(0 -0 56.3782)
(0 -0 56.5981)
(0 -0 40.8605)
(0 -0 40.6301)
(0 -0 40.8732)
(0 -0 41.1782)
(0 -0 41.5928)
(0 -0 42.0225)
(0 -0 42.404)
(0 -0 42.7558)
(0 -0 43.0996)
(0 -0 43.4356)
(0 -0 43.7592)
(0 -0 44.0698)
(0 -0 44.3685)
(0 -0 44.6561)
(0 -0 44.933)
(0 -0 45.1999)
(0 -0 45.4575)
(0 -0 45.7069)
(0 -0 45.9489)
(0 -0 46.1841)
(0 -0 46.4129)
(0 -0 46.6356)
(0 -0 46.8522)
(0 -0 47.063)
(0 -0 47.2684)
(0 -0 47.4688)
(0 -0 47.6649)
(0 -0 47.8573)
(0 -0 48.0467)
(0 -0 48.2337)
(0 -0 48.4189)
(0 -0 48.6026)
(0 -0 48.7852)
(0 -0 48.9668)
(0 -0 49.1475)
(0 -0 49.3275)
(0 -0 49.5069)
(0 -0 49.6858)
(0 -0 49.8649)
(0 -0 50.0439)
(0 -0 50.2243)
(0 -0 50.4054)
(0 -0 50.5901)
(0 -0 50.7759)
(0 -0 50.9681)
(0 -0 51.1614)
(0 -0 51.365)
(0 -0 51.5676)
(0 -0 51.7875)
(0 -0 52.0012)
(0 -0 37.6238)
(0 -0 37.4411)
(0 -0 37.677)
(0 -0 37.9446)
(0 -0 38.3043)
(0 -0 38.687)
(0 -0 39.0315)
(0 -0 39.348)
(0 -0 39.6564)
(0 -0 39.9584)
(0 -0 40.2497)
(0 -0 40.529)
(0 -0 40.7973)
(0 -0 41.0552)
(0 -0 41.303)
(0 -0 41.5415)
(0 -0 41.7714)
(0 -0 41.9938)
(0 -0 42.2094)
(0 -0 42.4189)
(0 -0 42.6227)
(0 -0 42.821)
(0 -0 43.0137)
(0 -0 43.2012)
(0 -0 43.3838)
(0 -0 43.562)
(0 -0 43.7364)
(0 -0 43.9077)
(0 -0 44.0765)
(0 -0 44.2434)
(0 -0 44.4089)
(0 -0 44.5734)
(0 -0 44.7372)
(0 -0 44.9002)
(0 -0 45.0627)
(0 -0 45.2247)
(0 -0 45.3863)
(0 -0 45.5475)
(0 -0 45.709)
(0 -0 45.8705)
(0 -0 46.0336)
(0 -0 46.1974)
(0 -0 46.3648)
(0 -0 46.5336)
(0 -0 46.7087)
(0 -0 46.885)
(0 -0 47.0715)
(0 -0 47.2575)
(0 -0 47.4606)
(0 -0 47.6581)
(0 -0 34.6302)
(0 -0 34.4862)
(0 -0 34.7112)
(0 -0 34.9467)
(0 -0 35.2582)
(0 -0 35.5975)
(0 -0 35.9078)
(0 -0 36.1922)
(0 -0 36.4682)
(0 -0 36.7389)
(0 -0 37.0004)
(0 -0 37.2509)
(0 -0 37.4909)
(0 -0 37.7212)
(0 -0 37.942)
(0 -0 38.1541)
(0 -0 38.3581)
(0 -0 38.5552)
(0 -0 38.7462)
(0 -0 38.9317)
(0 -0 39.1121)
(0 -0 39.2874)
(0 -0 39.4578)
(0 -0 39.6234)
(0 -0 39.7846)
(0 -0 39.9419)
(0 -0 40.0959)
(0 -0 40.2473)
(0 -0 40.3967)
(0 -0 40.5448)
(0 -0 40.6918)
(0 -0 40.8382)
(0 -0 40.9842)
(0 -0 41.1298)
(0 -0 41.275)
(0 -0 41.4199)
(0 -0 41.5645)
(0 -0 41.7088)
(0 -0 41.8534)
(0 -0 41.998)
(0 -0 42.1442)
(0 -0 42.2911)
(0 -0 42.4413)
(0 -0 42.593)
(0 -0 42.7506)
(0 -0 42.9095)
(0 -0 43.0782)
(0 -0 43.2463)
(0 -0 43.4309)
(0 -0 43.61)
(0 -0 31.8681)
(0 -0 31.7559)
(0 -0 31.967)
(0 -0 32.1753)
(0 -0 32.445)
(0 -0 32.7446)
(0 -0 33.0234)
(0 -0 33.2786)
(0 -0 33.5253)
(0 -0 33.7673)
(0 -0 34.0014)
(0 -0 34.2254)
(0 -0 34.4394)
(0 -0 34.6442)
(0 -0 34.8401)
(0 -0 35.0276)
(0 -0 35.2077)
(0 -0 35.3813)
(0 -0 35.5494)
(0 -0 35.7126)
(0 -0 35.871)
(0 -0 36.025)
(0 -0 36.1745)
(0 -0 36.3197)
(0 -0 36.4609)
(0 -0 36.5987)
(0 -0 36.7337)
(0 -0 36.8665)
(0 -0 36.9978)
(0 -0 37.1281)
(0 -0 37.2579)
(0 -0 37.3874)
(0 -0 37.5168)
(0 -0 37.6461)
(0 -0 37.7752)
(0 -0 37.904)
(0 -0 38.0327)
(0 -0 38.1611)
(0 -0 38.2897)
(0 -0 38.4185)
(0 -0 38.5486)
(0 -0 38.6795)
(0 -0 38.8135)
(0 -0 38.9488)
(0 -0 39.0898)
(0 -0 39.2319)
(0 -0 39.3834)
(0 -0 39.5341)
(0 -0 39.7006)
(0 -0 39.8614)
(0 -0 29.3255)
(0 -0 29.2396)
(0 -0 29.4349)
(0 -0 29.6207)
(0 -0 29.8542)
(0 -0 30.1178)
(0 -0 30.3677)
(0 -0 30.5966)
(0 -0 30.8167)
(0 -0 31.0327)
(0 -0 31.2417)
(0 -0 31.4415)
(0 -0 31.6318)
(0 -0 31.8131)
(0 -0 31.986)
(0 -0 32.1509)
(0 -0 32.3088)
(0 -0 32.4608)
(0 -0 32.6077)
(0 -0 32.7501)
(0 -0 32.8883)
(0 -0 33.0225)
(0 -0 33.1525)
(0 -0 33.2788)
(0 -0 33.4014)
(0 -0 33.521)
(0 -0 33.6383)
(0 -0 33.7538)
(0 -0 33.8683)
(0 -0 33.9823)
(0 -0 34.096)
(0 -0 34.2098)
(0 -0 34.3238)
(0 -0 34.4379)
(0 -0 34.552)
(0 -0 34.6659)
(0 -0 34.7797)
(0 -0 34.8933)
(0 -0 35.0071)
(0 -0 35.121)
(0 -0 35.2361)
(0 -0 35.352)
(0 -0 35.4708)
(0 -0 35.5908)
(0 -0 35.7162)
(0 -0 35.8426)
(0 -0 35.9778)
(0 -0 36.1121)
(0 -0 36.2615)
(0 -0 36.4049)
(0 -0 26.9899)
(0 -0 26.9257)
(0 -0 27.1045)
(0 -0 27.2713)
(0 -0 27.474)
(0 -0 27.7054)
(0 -0 27.929)
(0 -0 28.1342)
(0 -0 28.3307)
(0 -0 28.5231)
(0 -0 28.7094)
(0 -0 28.8871)
(0 -0 29.0557)
(0 -0 29.2157)
(0 -0 29.3675)
(0 -0 29.5117)
(0 -0 29.6492)
(0 -0 29.7813)
(0 -0 29.9086)
(0 -0 30.0319)
(0 -0 30.1514)
(0 -0 30.2673)
(0 -0 30.3794)
(0 -0 30.4881)
(0 -0 30.5935)
(0 -0 30.6964)
(0 -0 30.7972)
(0 -0 30.8968)
(0 -0 30.9957)
(0 -0 31.0945)
(0 -0 31.1935)
(0 -0 31.2928)
(0 -0 31.3925)
(0 -0 31.4925)
(0 -0 31.5927)
(0 -0 31.6929)
(0 -0 31.793)
(0 -0 31.8928)
(0 -0 31.9928)
(0 -0 32.0929)
(0 -0 32.1942)
(0 -0 32.2961)
(0 -0 32.4008)
(0 -0 32.5066)
(0 -0 32.6175)
(0 -0 32.7292)
(0 -0 32.8494)
(0 -0 32.9682)
(0 -0 33.1018)
(0 -0 33.2289)
(0 -0 24.8486)
(0 -0 24.8022)
(0 -0 24.9646)
(0 -0 25.1154)
(0 -0 25.2921)
(0 -0 25.495)
(0 -0 25.6946)
(0 -0 25.8788)
(0 -0 26.0541)
(0 -0 26.2255)
(0 -0 26.3912)
(0 -0 26.549)
(0 -0 26.6981)
(0 -0 26.8387)
(0 -0 26.9713)
(0 -0 27.0966)
(0 -0 27.2155)
(0 -0 27.3293)
(0 -0 27.4387)
(0 -0 27.5445)
(0 -0 27.6469)
(0 -0 27.7459)
(0 -0 27.8415)
(0 -0 27.934)
(0 -0 28.0237)
(0 -0 28.111)
(0 -0 28.1968)
(0 -0 28.2817)
(0 -0 28.3663)
(0 -0 28.4511)
(0 -0 28.5364)
(0 -0 28.6224)
(0 -0 28.7091)
(0 -0 28.7962)
(0 -0 28.8837)
(0 -0 28.9711)
(0 -0 29.0585)
(0 -0 29.1457)
(0 -0 29.2331)
(0 -0 29.3204)
(0 -0 29.4089)
(0 -0 29.4979)
(0 -0 29.5896)
(0 -0 29.6823)
(0 -0 29.7798)
(0 -0 29.8779)
(0 -0 29.9841)
(0 -0 30.0888)
(0 -0 30.2076)
(0 -0 30.3195)
(0 -0 22.8885)
(0 -0 22.8568)
(0 -0 23.0035)
(0 -0 23.1407)
(0 -0 23.2954)
(0 -0 23.4734)
(0 -0 23.6516)
(0 -0 23.817)
(0 -0 23.9737)
(0 -0 24.1263)
(0 -0 24.2737)
(0 -0 24.4137)
(0 -0 24.5451)
(0 -0 24.6682)
(0 -0 24.7834)
(0 -0 24.8915)
(0 -0 24.9936)
(0 -0 25.0907)
(0 -0 25.1838)
(0 -0 25.2736)
(0 -0 25.3603)
(0 -0 25.4439)
(0 -0 25.5245)
(0 -0 25.6021)
(0 -0 25.6773)
(0 -0 25.7505)
(0 -0 25.8224)
(0 -0 25.8938)
(0 -0 25.9653)
(0 -0 26.0373)
(0 -0 26.1102)
(0 -0 26.1841)
(0 -0 26.2588)
(0 -0 26.3341)
(0 -0 26.4099)
(0 -0 26.4857)
(0 -0 26.5616)
(0 -0 26.6371)
(0 -0 26.7129)
(0 -0 26.7885)
(0 -0 26.8653)
(0 -0 26.9425)
(0 -0 27.0222)
(0 -0 27.1028)
(0 -0 27.1881)
(0 -0 27.2737)
(0 -0 27.3672)
(0 -0 27.4587)
(0 -0 27.5641)
(0 -0 27.6619)
(0 -0 21.0966)
(0 -0 21.0772)
(0 -0 21.2092)
(0 -0 21.3348)
(0 -0 21.4712)
(0 -0 21.6276)
(0 -0 21.7867)
(0 -0 21.9355)
(0 -0 22.0759)
(0 -0 22.2118)
(0 -0 22.3429)
(0 -0 22.4669)
(0 -0 22.5826)
(0 -0 22.69)
(0 -0 22.7896)
(0 -0 22.8822)
(0 -0 22.9689)
(0 -0 23.051)
(0 -0 23.1293)
(0 -0 23.2045)
(0 -0 23.2769)
(0 -0 23.3465)
(0 -0 23.4133)
(0 -0 23.4775)
(0 -0 23.5394)
(0 -0 23.5996)
(0 -0 23.659)
(0 -0 23.7181)
(0 -0 23.7776)
(0 -0 23.838)
(0 -0 23.8996)
(0 -0 23.9623)
(0 -0 24.0262)
(0 -0 24.0908)
(0 -0 24.156)
(0 -0 24.2213)
(0 -0 24.2865)
(0 -0 24.3515)
(0 -0 24.4167)
(0 -0 24.4817)
(0 -0 24.5477)
(0 -0 24.6141)
(0 -0 24.683)
(0 -0 24.7525)
(0 -0 24.8266)
(0 -0 24.9008)
(0 -0 24.9826)
(0 -0 25.0622)
(0 -0 25.1552)
(0 -0 25.2402)
(0 -0 19.4602)
(0 -0 19.4508)
(0 -0 19.5698)
(0 -0 19.6852)
(0 -0 19.8065)
(0 -0 19.9444)
(0 -0 20.0865)
(0 -0 20.2207)
(0 -0 20.3468)
(0 -0 20.4683)
(0 -0 20.585)
(0 -0 20.6948)
(0 -0 20.7965)
(0 -0 20.8898)
(0 -0 20.9754)
(0 -0 21.0541)
(0 -0 21.127)
(0 -0 21.1954)
(0 -0 21.2603)
(0 -0 21.3224)
(0 -0 21.3818)
(0 -0 21.4387)
(0 -0 21.493)
(0 -0 21.5449)
(0 -0 21.5947)
(0 -0 21.6432)
(0 -0 21.6911)
(0 -0 21.739)
(0 -0 21.7877)
(0 -0 21.8376)
(0 -0 21.8889)
(0 -0 21.9416)
(0 -0 21.9956)
(0 -0 22.0506)
(0 -0 22.1061)
(0 -0 22.1618)
(0 -0 22.2176)
(0 -0 22.273)
(0 -0 22.3285)
(0 -0 22.3838)
(0 -0 22.4401)
(0 -0 22.4967)
(0 -0 22.5557)
(0 -0 22.6152)
(0 -0 22.6791)
(0 -0 22.743)
(0 -0 22.8142)
(0 -0 22.883)
(0 -0 22.9647)
(0 -0 23.038)
(0 -0 17.9666)
(0 -0 17.9656)
(0 -0 18.0732)
(0 -0 18.1797)
(0 -0 18.2885)
(0 -0 18.4108)
(0 -0 18.5381)
(0 -0 18.6594)
(0 -0 18.7732)
(0 -0 18.8821)
(0 -0 18.9861)
(0 -0 19.0834)
(0 -0 19.1726)
(0 -0 19.2535)
(0 -0 19.3266)
(0 -0 19.3927)
(0 -0 19.4532)
(0 -0 19.5094)
(0 -0 19.5622)
(0 -0 19.6124)
(0 -0 19.6601)
(0 -0 19.7055)
(0 -0 19.7485)
(0 -0 19.7892)
(0 -0 19.8282)
(0 -0 19.866)
(0 -0 19.9034)
(0 -0 19.9412)
(0 -0 19.9801)
(0 -0 20.0204)
(0 -0 20.0625)
(0 -0 20.1062)
(0 -0 20.1514)
(0 -0 20.1976)
(0 -0 20.2445)
(0 -0 20.2916)
(0 -0 20.3387)
(0 -0 20.3854)
(0 -0 20.4322)
(0 -0 20.4789)
(0 -0 20.5263)
(0 -0 20.5741)
(0 -0 20.6241)
(0 -0 20.6746)
(0 -0 20.7293)
(0 -0 20.7838)
(0 -0 20.8455)
(0 -0 20.9044)
(0 -0 20.976)
(0 -0 21.0388)
(0 -0 16.6038)
(0 -0 16.6098)
(0 -0 16.7076)
(0 -0 16.8064)
(0 -0 16.9051)
(0 -0 17.0142)
(0 -0 17.1286)
(0 -0 17.2387)
(0 -0 17.3419)
(0 -0 17.4399)
(0 -0 17.5328)
(0 -0 17.6192)
(0 -0 17.6974)
(0 -0 17.7673)
(0 -0 17.8292)
(0 -0 17.8842)
(0 -0 17.9335)
(0 -0 17.9786)
(0 -0 18.0206)
(0 -0 18.0601)
(0 -0 18.0973)
(0 -0 18.1323)
(0 -0 18.165)
(0 -0 18.1957)
(0 -0 18.2248)
(0 -0 18.2529)
(0 -0 18.2809)
(0 -0 18.3096)
(0 -0 18.3396)
(0 -0 18.3714)
(0 -0 18.4051)
(0 -0 18.4407)
(0 -0 18.4779)
(0 -0 18.5163)
(0 -0 18.5554)
(0 -0 18.5947)
(0 -0 18.6341)
(0 -0 18.6731)
(0 -0 18.712)
(0 -0 18.7508)
(0 -0 18.7903)
(0 -0 18.8301)
(0 -0 18.872)
(0 -0 18.9144)
(0 -0 18.9609)
(0 -0 19.007)
(0 -0 19.0601)
(0 -0 19.1101)
(0 -0 19.1727)
(0 -0 19.2259)
(0 -0 15.3601)
(0 -0 15.372)
(0 -0 15.4618)
(0 -0 15.5538)
(0 -0 15.6442)
(0 -0 15.7425)
(0 -0 15.8459)
(0 -0 15.9463)
(0 -0 16.0404)
(0 -0 16.129)
(0 -0 16.2124)
(0 -0 16.2891)
(0 -0 16.3578)
(0 -0 16.4179)
(0 -0 16.4699)
(0 -0 16.5149)
(0 -0 16.5543)
(0 -0 16.5895)
(0 -0 16.6217)
(0 -0 16.6516)