/*--------------------------------*- C++ -*----------------------------------*\
  =========                 |
  \\      /  F ield         | OpenFOAM: The Open Source CFD Toolbox
   \\    /   O peration     | Website:  https://openfoam.org
    \\  /    A nd           | Version:  7
     \\/     M anipulation  |
\*---------------------------------------------------------------------------*/
FoamFile
{
    version     2.0;
    format      ascii;
    class       volVectorField;
    location    "0.07";
    object      wallShearStress;
}
// * * * * * * * * * * * * * * * * * * * * * * * * * * * * * * * * * * * * * //

dimensions      [0 2 -2 0 0 0 0];

internalField   uniform (0 0 0);

boundaryField
{
    velocityInlet
    {
        type            calculated;
        value           uniform (0 0 0);
    }
    pressureOutlet
    {
        type            calculated;
        value           uniform (0 0 0);
    }
    fixedWalls
    {
        type            calculated;
        value           nonuniform List<vector> 
100
(
(-0.011932 -0.00715006 0)
(0.0113017 -0.00057501 0)
(-0.00272895 0.000854826 0)
(-0.00257849 0.000491425 0)
(-0.00771773 0.000272076 0)
(-0.00792698 0.000210871 0)
(-0.00726597 -0.000128217 0)
(-0.00197441 -0.000968516 0)
(0.00766464 -0.00181386 0)
(0.0175226 -0.00189176 0)
(0.0223928 -0.000925301 0)
(0.0189892 0.000801968 0)
(0.00482466 0.00217363 0)
(-0.0149891 0.00111478 0)
(-0.01831 -0.00074276 0)
(-0.0123008 -0.000730991 0)
(-0.00790324 -0.000316174 0)
(-0.00727365 7.10025e-05 0)
(-0.00968366 0.000424962 0)
(-0.0132884 0.000530637 0)
(-0.015839 0.000538702 0)
(-0.0147677 3.15028e-05 0)
(-0.00801178 -0.00125352 0)
(0.00476226 -0.00197797 0)
(0.0170921 -0.00206563 0)
(0.0256062 -0.00144057 0)
(0.0293666 -0.000658391 0)
(0.0286433 4.21737e-05 0)
(0.0244766 0.000554058 0)
(0.0182104 0.000831517 0)
(0.0112211 0.000876535 0)
(0.00477276 0.000723347 0)
(-0.000298403 0.000535399 0)
(-0.0037643 0.000336271 0)
(-0.00575294 0.000176035 0)
(-0.0066272 7.04548e-05 0)
(-0.00679956 1.15198e-05 0)
(-0.00660808 -2.00858e-05 0)
(-0.00627694 -3.02849e-05 0)
(-0.00592585 -2.95555e-05 0)
(-0.00559558 -2.64058e-05 0)
(-0.00526975 -2.72537e-05 0)
(-0.00490883 -3.39705e-05 0)
(-0.00449061 -4.30453e-05 0)
(-0.00403528 -4.84388e-05 0)
(-0.0035971 -4.61106e-05 0)
(-0.00323331 -3.67354e-05 0)
(-0.00297609 -2.42205e-05 0)
(-0.00282521 -1.23467e-05 0)
(-0.00275993 -3.01177e-06 0)
(-0.00275437 3.72761e-06 0)
(-0.0027855 8.40661e-06 0)
(-0.00283229 1.11768e-05 0)
(-0.00287083 1.18272e-05 0)
(-0.00287 8.32514e-06 0)
(-0.00279141 -5.48213e-07 0)
(-0.00259543 -1.48175e-05 0)
(-0.00225512 -3.2844e-05 0)
(-0.00177271 -5.0765e-05 0)
(-0.00118987 -6.35555e-05 0)
(-0.000582256 -6.72092e-05 0)
(-3.89759e-05 -6.04572e-05 0)
(0.00036195 -4.46547e-05 0)
(0.000572804 -2.45399e-05 0)
(0.000590287 -4.28131e-06 0)
(0.000444266 1.24043e-05 0)
(0.0001847 2.36267e-05 0)
(-0.000139479 2.86815e-05 0)
(-0.000486388 3.14038e-05 0)
(-0.000827175 3.09381e-05 0)
(-0.00114745 2.93553e-05 0)
(-0.00143796 2.72624e-05 0)
(-0.00168614 2.40841e-05 0)
(-0.00186762 1.8273e-05 0)
(-0.00194593 9.60186e-06 0)
(-0.00188674 -3.75387e-06 0)
(-0.00168364 -1.73122e-05 0)
(-0.00137902 -2.65851e-05 0)
(-0.00105968 -2.77327e-05 0)
(-0.000822824 -1.95796e-05 0)
(-0.000733873 -7.18185e-06 0)
(-0.000801199 5.86357e-06 0)
(-0.000981098 1.45417e-05 0)
(-0.00120954 1.78788e-05 0)
(-0.00143223 1.71115e-05 0)
(-0.00161758 1.42351e-05 0)
(-0.00175186 1.05841e-05 0)
(-0.00183122 6.36409e-06 0)
(-0.00185368 2.05348e-06 0)
(-0.00182215 -2.91851e-06 0)
(-0.00174617 -6.79178e-06 0)
(-0.00164945 -8.82613e-06 0)
(-0.00156316 -7.21238e-06 0)
(-0.00151601 -3.73289e-06 0)
(-0.00152997 2.01485e-06 0)
(-0.00158281 5.54745e-06 0)
(-0.0017024 9.93192e-06 0)
(-0.00176027 7.42632e-06 0)
(-0.00192236 1.08207e-05 0)
(-0.00190339 -1.54511e-07 0)
)
;
    }
    bottomWall
    {
        type            calculated;
        value           nonuniform List<vector> 
800
(
(-0.0353513 0.00216561 0)
(-0.016037 0.000524938 0)
(-0.0105919 0.000100521 0)
(-0.00845814 3.45538e-05 0)
(-0.00749538 1.96436e-05 0)
(-0.00686119 1.59679e-05 0)
(-0.00635403 1.31645e-05 0)
(-0.00594455 1.07123e-05 0)
(-0.00561174 8.90973e-06 0)
(-0.00533484 7.60904e-06 0)
(-0.00509923 6.62408e-06 0)
(-0.00489548 5.84649e-06 0)
(-0.00471709 5.21717e-06 0)
(-0.00455932 4.69914e-06 0)
(-0.00441858 4.26665e-06 0)
(-0.00429208 3.90107e-06 0)
(-0.00417766 3.58863e-06 0)
(-0.00407356 3.31898e-06 0)
(-0.00397837 3.08424e-06 0)
(-0.00389094 2.87831e-06 0)
(-0.00381032 2.6964e-06 0)
(-0.0037357 2.53469e-06 0)
(-0.00366641 2.39013e-06 0)
(-0.00360189 2.26022e-06 0)
(-0.00354164 2.14291e-06 0)
(-0.00348524 2.03653e-06 0)
(-0.00343232 1.93968e-06 0)
(-0.00338257 1.85116e-06 0)
(-0.0033357 1.77e-06 0)
(-0.00329147 1.69534e-06 0)
(-0.00324966 1.62646e-06 0)
(-0.00321008 1.56275e-06 0)
(-0.00317255 1.50367e-06 0)
(-0.00313691 1.44875e-06 0)
(-0.00310304 1.39759e-06 0)
(-0.00307079 1.34984e-06 0)
(-0.00304007 1.30518e-06 0)
(-0.00301076 1.26334e-06 0)
(-0.00298277 1.22408e-06 0)
(-0.00295601 1.18718e-06 0)
(-0.00293041 1.15245e-06 0)
(-0.0029059 1.11971e-06 0)
(-0.0028824 1.08883e-06 0)
(-0.00285986 1.05959e-06 0)
(-0.00283823 1.03205e-06 0)
(-0.00281745 1.00571e-06 0)
(-0.00279746 9.81206e-07 0)
(-0.00277825 9.57096e-07 0)
(-0.00275973 9.35431e-07 0)
(-0.00274192 9.12287e-07 0)
(-0.00272705 8.93338e-07 0)
(-0.00271477 8.82626e-07 0)
(-0.00270267 8.68827e-07 0)
(-0.00269075 8.54096e-07 0)
(-0.00267904 8.40309e-07 0)
(-0.0026675 8.27204e-07 0)
(-0.00265615 8.14412e-07 0)
(-0.00264497 8.01889e-07 0)
(-0.00263397 7.89666e-07 0)
(-0.00262313 7.77737e-07 0)
(-0.00261245 7.66087e-07 0)
(-0.00260193 7.54704e-07 0)
(-0.00259157 7.43578e-07 0)
(-0.00258136 7.32702e-07 0)
(-0.00257129 7.22068e-07 0)
(-0.00256138 7.11668e-07 0)
(-0.0025516 7.01496e-07 0)
(-0.00254197 6.91546e-07 0)
(-0.00253247 6.81811e-07 0)
(-0.0025231 6.72286e-07 0)
(-0.00251387 6.62965e-07 0)
(-0.00250476 6.53842e-07 0)
(-0.00249578 6.44913e-07 0)
(-0.00248692 6.36171e-07 0)
(-0.00247818 6.27613e-07 0)
(-0.00246955 6.19233e-07 0)
(-0.00246104 6.11027e-07 0)
(-0.00245265 6.02989e-07 0)
(-0.00244436 5.95117e-07 0)
(-0.00243619 5.87404e-07 0)
(-0.00242811 5.79846e-07 0)
(-0.00242015 5.7244e-07 0)
(-0.00241228 5.6518e-07 0)
(-0.00240451 5.58064e-07 0)
(-0.00239684 5.51087e-07 0)
(-0.00238927 5.44246e-07 0)
(-0.00238179 5.37536e-07 0)
(-0.00237441 5.30954e-07 0)
(-0.00236711 5.24497e-07 0)
(-0.0023599 5.18162e-07 0)
(-0.00235278 5.11945e-07 0)
(-0.00234575 5.05843e-07 0)
(-0.0023388 4.99853e-07 0)
(-0.00233193 4.93973e-07 0)
(-0.00232515 4.88199e-07 0)
(-0.00231844 4.82528e-07 0)
(-0.00231181 4.76958e-07 0)
(-0.00230526 4.71486e-07 0)
(-0.00229878 4.6611e-07 0)
(-0.00229238 4.60828e-07 0)
(-0.00228605 4.55636e-07 0)
(-0.0022798 4.50533e-07 0)
(-0.00227361 4.45516e-07 0)
(-0.00226749 4.40582e-07 0)
(-0.00226144 4.35729e-07 0)
(-0.00225546 4.30957e-07 0)
(-0.00224955 4.26261e-07 0)
(-0.00224369 4.21641e-07 0)
(-0.00223791 4.17094e-07 0)
(-0.00223218 4.12619e-07 0)
(-0.00222652 4.08214e-07 0)
(-0.00222092 4.03878e-07 0)
(-0.00221538 3.99608e-07 0)
(-0.0022099 3.95404e-07 0)
(-0.00220448 3.91263e-07 0)
(-0.00219911 3.87185e-07 0)
(-0.0021938 3.83168e-07 0)
(-0.00218855 3.79211e-07 0)
(-0.00218335 3.75311e-07 0)
(-0.0021782 3.71469e-07 0)
(-0.00217311 3.67681e-07 0)
(-0.00216807 3.63948e-07 0)
(-0.00216309 3.60267e-07 0)
(-0.00215815 3.56638e-07 0)
(-0.00215327 3.53058e-07 0)
(-0.00214843 3.49526e-07 0)
(-0.00214365 3.46043e-07 0)
(-0.00213891 3.42606e-07 0)
(-0.00213422 3.39213e-07 0)
(-0.00212958 3.35863e-07 0)
(-0.00212498 3.32556e-07 0)
(-0.00212043 3.29291e-07 0)
(-0.00211593 3.26065e-07 0)
(-0.00211147 3.22875e-07 0)
(-0.00210706 3.19722e-07 0)
(-0.00210269 3.16604e-07 0)
(-0.00209836 3.13522e-07 0)
(-0.00209408 3.10467e-07 0)
(-0.00208984 3.07448e-07 0)
(-0.00208565 3.04448e-07 0)
(-0.00208149 3.0149e-07 0)
(-0.00207738 2.98536e-07 0)
(-0.00207331 2.95642e-07 0)
(-0.00206928 2.9272e-07 0)
(-0.00206528 2.89896e-07 0)
(-0.00206134 2.86984e-07 0)
(-0.00205742 2.84245e-07 0)
(-0.00205355 2.81302e-07 0)
(-0.00204972 2.7863e-07 0)
(-0.00204593 2.75551e-07 0)
(-0.00204276 2.72859e-07 0)
(-0.00204017 2.71514e-07 0)
(-0.00203758 2.69807e-07 0)
(-0.00203499 2.67795e-07 0)
(-0.0020324 2.65789e-07 0)
(-0.00202981 2.63834e-07 0)
(-0.00202722 2.61907e-07 0)
(-0.00202464 2.59971e-07 0)
(-0.00202206 2.58031e-07 0)
(-0.00201947 2.56085e-07 0)
(-0.00201689 2.5414e-07 0)
(-0.00201432 2.52188e-07 0)
(-0.00201174 2.50236e-07 0)
(-0.00200917 2.4827e-07 0)
(-0.0020066 2.46304e-07 0)
(-0.00200404 2.4433e-07 0)
(-0.00200148 2.42352e-07 0)
(-0.00199892 2.40368e-07 0)
(-0.00199636 2.38379e-07 0)
(-0.00199381 2.36383e-07 0)
(-0.00199127 2.34384e-07 0)
(-0.00198873 2.32376e-07 0)
(-0.00198619 2.30361e-07 0)
(-0.00198366 2.28338e-07 0)
(-0.00198113 2.2631e-07 0)
(-0.00197861 2.24273e-07 0)
(-0.0019761 2.22231e-07 0)
(-0.00197359 2.2018e-07 0)
(-0.00197109 2.18125e-07 0)
(-0.00196859 2.16061e-07 0)
(-0.00196611 2.13987e-07 0)
(-0.00196363 2.11905e-07 0)
(-0.00196116 2.09813e-07 0)
(-0.00195869 2.07714e-07 0)
(-0.00195624 2.05607e-07 0)
(-0.00195379 2.03493e-07 0)
(-0.00195135 2.01369e-07 0)
(-0.00194893 1.99237e-07 0)
(-0.00194651 1.97096e-07 0)
(-0.0019441 1.94946e-07 0)
(-0.0019417 1.92789e-07 0)
(-0.00193932 1.90622e-07 0)
(-0.00193694 1.88446e-07 0)
(-0.00193458 1.86263e-07 0)
(-0.00193223 1.84072e-07 0)
(-0.00192989 1.81873e-07 0)
(-0.00192756 1.79665e-07 0)
(-0.00192525 1.77453e-07 0)
(-0.00192295 1.75234e-07 0)
(-0.00192066 1.73006e-07 0)
(-0.00191839 1.70773e-07 0)
(-0.00191614 1.68533e-07 0)
(-0.00191389 1.66289e-07 0)
(-0.00191167 1.64042e-07 0)
(-0.00190946 1.61787e-07 0)
(-0.00190726 1.59534e-07 0)
(-0.00190508 1.57273e-07 0)
(-0.00190292 1.55012e-07 0)
(-0.00190078 1.52747e-07 0)
(-0.00189865 1.50479e-07 0)
(-0.00189654 1.48208e-07 0)
(-0.00189445 1.4594e-07 0)
(-0.00189238 1.43668e-07 0)
(-0.00189033 1.41406e-07 0)
(-0.0018883 1.39143e-07 0)
(-0.00188628 1.36879e-07 0)
(-0.00188429 1.3462e-07 0)
(-0.00188232 1.32369e-07 0)
(-0.00188036 1.30127e-07 0)
(-0.00187843 1.27889e-07 0)
(-0.00187652 1.2566e-07 0)
(-0.00187463 1.23448e-07 0)
(-0.00187276 1.21238e-07 0)
(-0.00187091 1.19063e-07 0)
(-0.00186909 1.16892e-07 0)
(-0.00186728 1.14758e-07 0)
(-0.0018655 1.12621e-07 0)
(-0.00186374 1.10553e-07 0)
(-0.001862 1.08445e-07 0)
(-0.00186028 1.06491e-07 0)
(-0.00185858 1.04377e-07 0)
(-0.00185691 1.02624e-07 0)
(-0.00185525 1.00452e-07 0)
(-0.00185361 9.90535e-08 0)
(-0.001852 9.65883e-08 0)
(-0.00185039 9.59471e-08 0)
(-0.00184883 9.26762e-08 0)
(-0.00184723 9.36432e-08 0)
(-0.00184574 8.83759e-08 0)
(-0.00184412 9.28114e-08 0)
(-0.00184272 8.295e-08 0)
(-0.00184103 9.47446e-08 0)
(-0.00183979 7.48593e-08 0)
(-0.00183793 1.01834e-07 0)
(-0.00183695 6.12661e-08 0)
(-0.00183476 1.17808e-07 0)
(-0.0018342 3.78855e-08 0)
(-0.0018315 1.46065e-07 0)
(-0.00183151 4.25883e-09 0)
(-0.00182809 1.54703e-07 0)
(-0.035351 -0.00216567 0)
(-0.0160348 -0.000525038 0)
(-0.0105866 -0.000100649 0)
(-0.00844898 -3.46867e-05 0)
(-0.00748164 -1.97911e-05 0)
(-0.0068422 -1.61317e-05 0)
(-0.00632926 -1.33414e-05 0)
(-0.00591363 -1.09005e-05 0)
(-0.00557445 -9.10698e-06 0)
(-0.00529103 -7.81273e-06 0)
(-0.00504887 -6.832e-06 0)
(-0.00483858 -6.05709e-06 0)
(-0.00465372 -5.42945e-06 0)
(-0.00448957 -4.9125e-06 0)
(-0.00434255 -4.48098e-06 0)
(-0.00420987 -4.11663e-06 0)
(-0.00408933 -3.80598e-06 0)
(-0.00397916 -3.53898e-06 0)
(-0.00387792 -3.30794e-06 0)
(-0.00378443 -3.10696e-06 0)
(-0.0036977 -2.93139e-06 0)
(-0.00361688 -2.77757e-06 0)
(-0.00354126 -2.64256e-06 0)
(-0.00347023 -2.52403e-06 0)
(-0.00340326 -2.42001e-06 0)
(-0.00333987 -2.32898e-06 0)
(-0.00327965 -2.24957e-06 0)
(-0.00322224 -2.18082e-06 0)
(-0.00316731 -2.12169e-06 0)
(-0.00311456 -2.07169e-06 0)
(-0.00306373 -2.02975e-06 0)
(-0.00301456 -1.99608e-06 0)
(-0.00296684 -1.9689e-06 0)
(-0.00292033 -1.94988e-06 0)
(-0.00287489 -1.93504e-06 0)
(-0.00283026 -1.92917e-06 0)
(-0.00278638 -1.9235e-06 0)
(-0.00274299 -1.92855e-06 0)
(-0.00270004 -1.92738e-06 0)
(-0.00265749 -1.9376e-06 0)
(-0.00261484 -1.93555e-06 0)
(-0.00257331 -1.93285e-06 0)
(-0.00253005 -1.93011e-06 0)
(-0.0024912 -1.85814e-06 0)
(-0.00244535 -1.88424e-06 0)
(-0.00241454 -1.56956e-06 0)
(-0.00236132 -1.78685e-06 0)
(-0.00235151 -4.33076e-07 0)
(-0.00229144 -4.89946e-06 0)
(-0.00215878 0.000155341 0)
(1.00707e-06 1.56011e-07 0)
(3.25796e-06 -3.3705e-06 0)
(6.08149e-06 -1.21296e-05 0)
(8.90034e-06 -2.59381e-05 0)
(1.12923e-05 -4.42564e-05 0)
(1.30556e-05 -6.57326e-05 0)
(1.42001e-05 -8.92612e-05 0)
(1.48251e-05 -0.000113841 0)
(1.50647e-05 -0.000138775 0)
(1.50321e-05 -0.000163585 0)
(1.48145e-05 -0.000187958 0)
(1.4475e-05 -0.000211687 0)
(1.40562e-05 -0.000234648 0)
(1.35848e-05 -0.000256769 0)
(1.30769e-05 -0.000278007 0)
(1.2543e-05 -0.000298342 0)
(1.19895e-05 -0.00031776 0)
(1.14206e-05 -0.00033626 0)
(1.08393e-05 -0.000353841 0)
(1.02478e-05 -0.000370508 0)
(9.64813e-06 -0.000386266 0)
(9.04191e-06 -0.000401123 0)
(8.4306e-06 -0.00041509 0)
(7.81535e-06 -0.000428177 0)
(7.19735e-06 -0.000440396 0)
(6.5777e-06 -0.000451762 0)
(5.95727e-06 -0.000462287 0)
(5.33686e-06 -0.000471987 0)
(4.71714e-06 -0.000480876 0)
(4.09867e-06 -0.00048897 0)
(3.48206e-06 -0.000496284 0)
(2.86791e-06 -0.000502836 0)
(2.25669e-06 -0.00050864 0)
(1.64885e-06 -0.000513714 0)
(1.04485e-06 -0.000518073 0)
(4.45158e-07 -0.000521733 0)
(-1.49779e-07 -0.000524712 0)
(-7.3951e-07 -0.000527024 0)
(-1.32352e-06 -0.000528688 0)
(-1.90139e-06 -0.000529719 0)
(-2.47294e-06 -0.000530133 0)
(-3.0387e-06 -0.000529945 0)
(-3.59862e-06 -0.00052917 0)
(-4.1501e-06 -0.000527824 0)
(-4.69167e-06 -0.000525926 0)
(-5.22033e-06 -0.000523492 0)
(-5.73425e-06 -0.000520543 0)
(-6.23476e-06 -0.000517096 0)
(-6.72227e-06 -0.000513167 0)
(-7.19495e-06 -0.000508774 0)
(-7.65141e-06 -0.000503934 0)
(-8.0903e-06 -0.000498666 0)
(-8.51036e-06 -0.000492989 0)
(-8.91048e-06 -0.000486922 0)
(-9.28989e-06 -0.000480484 0)
(-9.64774e-06 -0.000473695 0)
(-9.98289e-06 -0.000466574 0)
(-1.02941e-05 -0.000459141 0)
(-1.05802e-05 -0.000451418 0)
(-1.08404e-05 -0.000443423 0)
(-1.10737e-05 -0.000435179 0)
(-1.1279e-05 -0.000426706 0)
(-1.14547e-05 -0.000418026 0)
(-1.15994e-05 -0.000409161 0)
(-1.17119e-05 -0.000400133 0)
(-1.1791e-05 -0.000390966 0)
(-1.1836e-05 -0.000381683 0)
(-1.18464e-05 -0.000372307 0)
(-1.18224e-05 -0.000362863 0)
(-1.17645e-05 -0.000353375 0)
(-1.16734e-05 -0.000343866 0)
(-1.15507e-05 -0.000334361 0)
(-1.13982e-05 -0.000324882 0)
(-1.12186e-05 -0.000315452 0)
(-1.10153e-05 -0.000306094 0)
(-1.07921e-05 -0.000296828 0)
(-1.05538e-05 -0.000287675 0)
(-1.03052e-05 -0.000278653 0)
(-1.0052e-05 -0.000269778 0)
(-9.79972e-06 -0.000261065 0)
(-9.55399e-06 -0.000252528 0)
(-9.31991e-06 -0.000244178 0)
(-9.10182e-06 -0.000236024 0)
(-8.90294e-06 -0.000228072 0)
(-8.72492e-06 -0.000220329 0)
(-8.56721e-06 -0.000212799 0)
(-8.42646e-06 -0.000205485 0)
(-8.29589e-06 -0.000198391 0)
(-8.16488e-06 -0.000191522 0)
(-8.01914e-06 -0.00018489 0)
(-7.84242e-06 -0.000178512 0)
(-7.62094e-06 -0.000172413 0)
(-7.35139e-06 -0.000166634 0)
(-7.05221e-06 -0.000161215 0)
(-6.77599e-06 -0.000156193 0)
(-6.61714e-06 -0.000151569 0)
(-6.70438e-06 -0.000147276 0)
(-7.17527e-06 -0.000143155 0)
(-8.14276e-06 -0.000138952 0)
(-9.6657e-06 -0.000134335 0)
(-1.17291e-05 -0.00012894 0)
(-1.42336e-05 -0.00012243 0)
(-1.6999e-05 -0.000114557 0)
(-1.97653e-05 -0.000105208 0)
(-2.21871e-05 -9.44459e-05 0)
(-2.38423e-05 -8.25471e-05 0)
(-2.42699e-05 -7.00247e-05 0)
(-2.30369e-05 -5.76184e-05 0)
(-1.98148e-05 -4.62487e-05 0)
(-1.44633e-05 -3.69478e-05 0)
(-7.08861e-06 -3.07647e-05 0)
(1.89353e-06 -2.86544e-05 0)
(1.17265e-05 -3.12716e-05 0)
(2.14964e-05 -3.88688e-05 0)
(3.02586e-05 -5.13049e-05 0)
(3.70694e-05 -6.80805e-05 0)
(4.0978e-05 -8.82957e-05 0)
(4.12115e-05 -0.000110545 0)
(3.74305e-05 -0.000133008 0)
(2.98976e-05 -0.000153712 0)
(1.95124e-05 -0.000170847 0)
(7.6827e-06 -0.000183084 0)
(-3.95793e-06 -0.000189807 0)
(-1.38917e-05 -0.000191175 0)
(-2.10323e-05 -0.000188068 0)
(-2.49882e-05 -0.000181724 0)
(-2.58971e-05 -0.000173387 0)
(-2.42939e-05 -0.000164178 0)
(-2.09277e-05 -0.000154929 0)
(-1.65721e-05 -0.000146143 0)
(-1.19222e-05 -0.000138038 0)
(-7.56713e-06 -0.000130604 0)
(-3.99343e-06 -0.000123653 0)
(-1.58966e-06 -0.000116865 0)
(-6.43644e-07 -0.000109838 0)
(-1.32944e-06 -0.000102142 0)
(-3.68586e-06 -9.33657e-05 0)
(-7.60325e-06 -8.31657e-05 0)
(-1.28365e-05 -7.12961e-05 0)
(-1.90421e-05 -5.76417e-05 0)
(-2.5825e-05 -4.22515e-05 0)
(-3.27791e-05 -2.53226e-05 0)
(-3.95502e-05 -7.14426e-06 0)
(-4.58175e-05 1.19852e-05 0)
(-5.12781e-05 3.17331e-05 0)
(-5.57149e-05 5.17325e-05 0)
(-5.89957e-05 7.16333e-05 0)
(-6.1037e-05 9.10933e-05 0)
(-6.18208e-05 0.000109797 0)
(-6.13841e-05 0.000127469 0)
(-5.98035e-05 0.000143878 0)
(-5.71827e-05 0.000158842 0)
(-5.36401e-05 0.000172221 0)
(-4.93008e-05 0.000183915 0)
(-4.42901e-05 0.000193858 0)
(-3.87296e-05 0.000202016 0)
(-3.27367e-05 0.000208378 0)
(-2.64276e-05 0.000212956 0)
(-1.99098e-05 0.000215779 0)
(-1.32432e-05 0.000216894 0)
(-6.50419e-06 0.000216331 0)
(1.92413e-07 0.000214164 0)
(6.77446e-06 0.000210489 0)
(1.32008e-05 0.000205395 0)
(1.9432e-05 0.000198972 0)
(2.54317e-05 0.000191313 0)
(3.1167e-05 0.000182509 0)
(3.66082e-05 0.000172655 0)
(4.17284e-05 0.000161845 0)
(4.65028e-05 0.000150178 0)
(5.09093e-05 0.000137749 0)
(5.49278e-05 0.000124658 0)
(5.8541e-05 0.000111004 0)
(6.17341e-05 9.68891e-05 0)
(6.44962e-05 8.24156e-05 0)
(6.68202e-05 6.76881e-05 0)
(6.87045e-05 5.28128e-05 0)
(7.01538e-05 3.7898e-05 0)
(7.11806e-05 2.30528e-05 0)
(7.18059e-05 8.3867e-06 0)
(7.20608e-05 -5.99206e-06 0)
(7.19881e-05 -1.99792e-05 0)
(7.16416e-05 -3.34783e-05 0)
(7.10843e-05 -4.64046e-05 0)
(7.0387e-05 -5.86898e-05 0)
(6.96226e-05 -7.02893e-05 0)
(6.88568e-05 -8.11931e-05 0)
(6.81322e-05 -9.14417e-05 0)
(6.74412e-05 -0.000101155 0)
(6.66786e-05 -0.000110578 0)
(6.55619e-05 -0.000120171 0)
(6.34914e-05 -0.000130764 0)
(5.93066e-05 -0.000143838 0)
(5.08959e-05 -0.000162055 0)
(3.45418e-05 -0.000190131 0)
(3.71834e-06 -0.000236104 0)
(-5.34443e-05 -0.000313432 0)
(-0.000158874 -0.000442326 0)
(-0.000343411 -0.000643666 0)
(-0.000601215 -0.000915332 0)
(1.75566e-07 -6.7054e-07 0)
(2.02958e-06 -1.28821e-06 0)
(4.81453e-06 -1.69463e-06 0)
(7.90129e-06 -1.74204e-06 0)
(1.09516e-05 -1.64834e-06 0)
(1.38957e-05 -1.54237e-06 0)
(1.67703e-05 -1.47046e-06 0)
(1.96149e-05 -1.43411e-06 0)
(2.24633e-05 -1.42659e-06 0)
(2.53416e-05 -1.44225e-06 0)
(2.82731e-05 -1.47847e-06 0)
(3.12807e-05 -1.53523e-06 0)
(3.43889e-05 -1.61388e-06 0)
(3.76245e-05 -1.71616e-06 0)
(4.10168e-05 -1.84399e-06 0)
(4.45979e-05 -1.99967e-06 0)
(4.84034e-05 -2.18548e-06 0)
(5.24723e-05 -2.40285e-06 0)
(5.68452e-05 -2.65151e-06 0)
(6.15639e-05 -2.92987e-06 0)
(6.66701e-05 -3.23479e-06 0)
(7.22035e-05 -3.56047e-06 0)
(7.81992e-05 -3.89896e-06 0)
(8.46865e-05 -4.24124e-06 0)
(9.16879e-05 -4.57828e-06 0)
(9.92193e-05 -4.90182e-06 0)
(0.000107292 -5.20667e-06 0)
(0.000115914 -5.49347e-06 0)
(0.000125103 -5.77042e-06 0)
(0.000134887 -6.05409e-06 0)
(0.000145321 -6.36922e-06 0)
(0.000156494 -6.74661e-06 0)
(0.000168538 -7.22058e-06 0)
(0.000181636 -7.82625e-06 0)
(0.000196024 -8.59677e-06 0)
(0.000211992 -9.56222e-06 0)
(0.000229882 -1.07519e-05 0)
(0.000250082 -1.22002e-05 0)
(0.000273034 -1.39581e-05 0)
(0.000299235 -1.61104e-05 0)
(0.000329266 -1.87985e-05 0)
(0.000363823 -2.22445e-05 0)
(0.000403765 -2.67888e-05 0)
(0.000450171 -3.29302e-05 0)
(0.000504374 -4.13463e-05 0)
(0.000567953 -5.28822e-05 0)
(0.00064265 -6.84516e-05 0)
(0.000730179 -8.87478e-05 0)
(0.0008319 -0.000113651 0)
(0.000948199 -0.000141356 0)
(0.00107749 -0.000167962 0)
(0.0012152 -0.000188374 0)
(0.0013535 -0.000197228 0)
(0.00148257 -0.000191293 0)
(0.00159339 -0.000171608 0)
(0.00168029 -0.00014282 0)
(0.0017418 -0.000110535 0)
(0.00177971 -7.90724e-05 0)
(0.00179688 -5.0644e-05 0)
(0.00179538 -2.54819e-05 0)
(0.00177749 -1.6134e-06 0)
(0.00174281 2.35664e-05 0)
(0.00168857 5.09577e-05 0)
(0.00161277 8.17826e-05 0)
(0.00151161 0.000116773 0)
(0.00138182 0.000155174 0)
(0.00122103 0.000195653 0)
(0.00102875 0.000236059 0)
(0.000807462 0.000274058 0)
(0.000561923 0.000308541 0)
(0.000291158 0.000338647 0)
(-1.05149e-05 0.000352484 0)
(-0.000311018 0.000339783 0)
(-0.000587273 0.000316259 0)
(-0.000846209 0.000288818 0)
(-0.0010856 0.000256181 0)
(-0.00129912 0.000218378 0)
(-0.00148178 0.000176535 0)
(-0.00163031 0.000132045 0)
(-0.0017428 8.65489e-05 0)
(-0.00181902 4.16674e-05 0)
(-0.00185998 -1.37557e-06 0)
(-0.00186796 -4.27446e-05 0)
(-0.00184362 -8.29364e-05 0)
(-0.00178945 -0.000121574 0)
(-0.00170808 -0.000160958 0)
(-0.0015993 -0.00020537 0)
(-0.00145949 -0.000260511 0)
(-0.00127743 -0.000329884 0)
(-0.00103945 -0.000407829 0)
(-0.000719809 -0.000465346 0)
(-0.000333343 -0.000412265 0)
(-1.8593e-05 -0.000217321 0)
(0.000149595 -3.30542e-05 0)
(0.000225192 4.47421e-05 0)
(0.000249499 7.43279e-05 0)
(0.000230828 9.5484e-05 0)
(0.000180221 0.000113566 0)
(0.000104605 0.000122325 0)
(-5.29258e-06 0.00010808 0)
(9.00201e-05 6.31075e-05 0)
(2.1745e-05 0.000170549 0)
(-8.52391e-05 0.000111803 0)
(-0.000176436 -0.00010948 0)
(-0.000224128 -0.000419393 0)
(-0.000231089 -0.000752219 0)
(-0.000205585 -0.00107291 0)
(-0.000153361 -0.0013456 0)
(-8.25077e-05 -0.00154342 0)
(8.41919e-07 -0.0016524 0)
(9.15224e-05 -0.001662 0)
(0.000178218 -0.00156755 0)
(0.000247834 -0.00137858 0)
(0.00028775 -0.00111616 0)
(0.000291376 -0.000813384 0)
(0.00026263 -0.000507537 0)
(0.000215699 -0.0002279 0)
(0.000167541 1.15594e-05 0)
(0.000129314 0.000211507 0)
(0.000102 0.00037997 0)
(8.0701e-05 0.000507878 0)
(6.61169e-05 0.000616457 0)
(5.47926e-05 0.000711827 0)
(4.49978e-05 0.000794104 0)
(3.57511e-05 0.000864523 0)
(2.66094e-05 0.000923692 0)
(1.73834e-05 0.000971756 0)
(7.8642e-06 0.00100845 0)
(-2.20068e-06 0.0010333 0)
(-1.33382e-05 0.0010456 0)
(-2.64081e-05 0.00104396 0)
(-4.30161e-05 0.00102598 0)
(-6.48896e-05 0.000987709 0)
(-9.37236e-05 0.000923298 0)
(-0.000131134 0.000825737 0)
(-0.000178035 0.000687708 0)
(-0.000234571 0.000503608 0)
(-0.000298925 0.000265504 0)
(-0.000353874 -3.7809e-05 0)
(-0.000374709 -0.00037687 0)
(-0.000358837 -0.000709662 0)
(-0.000310705 -0.00101258 0)
(-0.000232438 -0.00126739 0)
(-0.000123331 -0.00145768 0)
(1.70996e-05 -0.0015613 0)
(0.000161704 -0.00156039 0)
(0.000273358 -0.00146012 0)
(0.000333854 -0.00128691 0)
(0.000338419 -0.0010681 0)
(0.000305201 -0.000823676 0)
(0.00027291 -0.000568096 0)
(0.00026789 -0.000307002 0)
(0.000311295 -5.86277e-05 0)
(0.000313877 0.000105097 0)
(0.000109773 0.000115858 0)
(-0.000249487 7.93271e-05 0)
(-0.000836026 0.000139872 0)
(-0.00132103 0.000147621 0)
(-0.00140894 -7.88786e-05 0)
(0.000129047 -0.000245899 0)
(0.00210996 0.000890178 0)
(0.00276406 0.00304105 0)
(0.00163306 0.00447827 0)
(0.00107462 0.00451088 0)
(0.00096936 0.00497208 0)
(0.00069285 0.0053466 0)
(0.000587839 0.00558252 0)
(0.00046534 0.00582519 0)
(0.000373079 0.00598117 0)
(0.000301328 0.00611746 0)
(0.000230681 0.00621089 0)
(0.000178342 0.0062755 0)
(0.000125324 0.00631598 0)
(8.22786e-05 0.00632986 0)
(4.22013e-05 0.00632523 0)
(7.63544e-06 0.00630164 0)
(-2.31997e-05 0.00626448 0)
(-5.15472e-05 0.00621315 0)
(-7.64268e-05 0.00615047 0)
(-9.94633e-05 0.00607735 0)
(-0.000120073 0.00599497 0)
(-0.000139105 0.0059045 0)
(-0.000156609 0.00580657 0)
(-0.000172705 0.00570207 0)
(-0.000187676 0.00559164 0)
(-0.000201508 0.00547584 0)
(-0.000214288 0.00535526 0)
(-0.000226011 0.00523045 0)
(-0.000236685 0.00510195 0)
(-0.000246299 0.00497031 0)
(-0.00025482 0.00483605 0)
(-0.00026224 0.00469973 0)
(-0.000268532 0.00456185 0)
(-0.000273672 0.00442297 0)
(-0.000277641 0.0042836 0)
(-0.000280426 0.00414426 0)
(-0.000282023 0.00400546 0)
(-0.000282436 0.00386771 0)
(-0.000281675 0.00373147 0)
(-0.000279764 0.00359722 0)
(-0.000276736 0.00346539 0)
(-0.000272634 0.0033364 0)
(-0.000267511 0.00321061 0)
(-0.000261435 0.00308839 0)
(-0.000254482 0.00297004 0)
(-0.000246738 0.00285583 0)
(-0.000238299 0.002746 0)
(-0.000229268 0.00264071 0)
(-0.000219755 0.00254011 0)
(-0.000209871 0.0024443 0)
(-0.000199732 0.00235331 0)
(-0.000189452 0.00226715 0)
(-0.000179142 0.00218576 0)
(-0.000168911 0.00210908 0)
(-0.000158862 0.00203696 0)
(-0.000149093 0.00196927 0)
(-0.000139699 0.00190581 0)
(-0.000130767 0.00184637 0)
(-0.000122382 0.00179072 0)
(-0.000114624 0.0017386 0)
(-0.000107579 0.00168974 0)
(-0.000101326 0.00164383 0)
(-9.59153e-05 0.00160056 0)
(-9.13598e-05 0.00155958 0)
(-8.76464e-05 0.00152057 0)
(-8.47451e-05 0.00148325 0)
(-8.26334e-05 0.00144735 0)
(-8.13145e-05 0.0014126 0)
(-8.07783e-05 0.00137873 0)
(-8.09939e-05 0.00134547 0)
(-8.19328e-05 0.0013126 0)
(-8.3582e-05 0.00127989 0)
(-8.59166e-05 0.00124714 0)
(-8.89164e-05 0.00121415 0)
(-9.25588e-05 0.00118074 0)
(-9.68024e-05 0.00114673 0)
(-0.000101589 0.00111199 0)
(-0.00010691 0.00107641 0)
(-0.000112795 0.00103987 0)
(-0.000119167 0.00100223 0)
(-0.000125981 0.000963435 0)
(-0.000133326 0.000923397 0)
(-0.000141148 0.000881992 0)
(-0.000149375 0.000839209 0)
(-0.000158045 0.000794984 0)
(-0.000167164 0.00074926 0)
(-0.000176717 0.000702024 0)
(-0.000186731 0.000653223 0)
(-0.000197204 0.000602815 0)
(-0.000208138 0.000550777 0)
(-0.000219567 0.000497037 0)
(-0.000231496 0.000441509 0)
(-0.000243925 0.000384102 0)
(-0.000256825 0.0003247 0)
(-0.000270225 0.000263166 0)
(-0.000284012 0.00019941 0)
(-0.00029811 0.000133516 0)
(-0.000312546 6.55636e-05 0)
(-0.00032735 -4.37815e-06 0)
(-0.000342564 -7.62122e-05 0)
(-0.000358303 -0.000149922 0)
(-0.000374648 -0.000225531 0)
(-0.000391681 -0.000303095 0)
(-0.000409487 -0.000382683 0)
(-0.000428149 -0.000464378 0)
(-0.00044775 -0.000548264 0)
(-0.000468381 -0.000634421 0)
(-0.000490141 -0.000722935 0)
(-0.000513141 -0.00081389 0)
(-0.000537508 -0.000907377 0)
(-0.000563385 -0.00100349 0)
(-0.000590934 -0.00110233 0)
(-0.00062034 -0.00120402 0)
(-0.000651813 -0.00130867 0)
(-0.000685589 -0.00141642 0)
(-0.000721938 -0.00152741 0)
(-0.000761162 -0.00164181 0)
(-0.000803608 -0.00175978 0)
(-0.000849664 -0.00188154 0)
(-0.000899772 -0.00200728 0)
(-0.000954434 -0.00213723 0)
(-0.00101422 -0.00227166 0)
(-0.00107976 -0.00241086 0)
(-0.00115178 -0.00255516 0)
(-0.00123108 -0.00270498 0)
(-0.0013185 -0.00286065 0)
(-0.00141506 -0.00302287 0)
(-0.00152175 -0.00319173 0)
(-0.00163996 -0.0033687 0)
(-0.00177057 -0.00355271 0)
(-0.00191596 -0.00374799 0)
(-0.00207592 -0.00394844 0)
(-0.00225587 -0.00416866 0)
(-0.00245063 -0.004383 0)
(-0.00267602 -0.00464409 0)
(-0.00290713 -0.00485458 0)
(-0.00319415 -0.00520123 0)
(-0.00343693 -0.00533523 0)
(-0.00378576 -0.00589891 0)
(-0.00383497 -0.00565515 0)
)
;
    }
    frontAndBack
    {
        type            empty;
    }
}


// ************************************************************************* //
