/*--------------------------------*- C++ -*----------------------------------*\
  =========                 |
  \\      /  F ield         | OpenFOAM: The Open Source CFD Toolbox
   \\    /   O peration     | Website:  https://openfoam.org
    \\  /    A nd           | Version:  7
     \\/     M anipulation  |
\*---------------------------------------------------------------------------*/
FoamFile
{
    version     2.0;
    format      ascii;
    class       volScalarField;
    location    "0.16";
    object      k_0;
}
// * * * * * * * * * * * * * * * * * * * * * * * * * * * * * * * * * * * * * //

dimensions      [0 2 -2 0 0 0 0];

internalField   nonuniform List<scalar> 
70000
(
1.08549e-05
4.21872e-06
2.82416e-06
2.31654e-06
1.99705e-06
1.75672e-06
1.56457e-06
1.40778e-06
1.27683e-06
1.16625e-06
1.07113e-06
9.89244e-07
9.1747e-07
8.54901e-07
7.9925e-07
7.50277e-07
7.06124e-07
6.66955e-07
6.31211e-07
5.9932e-07
5.69901e-07
5.43562e-07
5.18986e-07
4.9697e-07
4.76142e-07
4.57561e-07
4.39651e-07
4.23852e-07
4.0822e-07
3.94719e-07
3.80884e-07
3.69305e-07
3.56902e-07
3.46938e-07
3.35694e-07
3.27088e-07
3.16788e-07
3.09337e-07
2.99797e-07
2.93351e-07
2.84402e-07
2.78853e-07
2.70354e-07
2.65767e-07
2.57299e-07
2.55635e-07
2.44991e-07
2.55168e-07
2.4227e-07
3.09351e-07
1.72794e-05
1.13672e-05
8.52006e-06
7.00972e-06
6.03595e-06
5.30968e-06
4.72969e-06
4.25616e-06
3.86063e-06
3.52666e-06
3.2394e-06
2.99208e-06
2.77531e-06
2.5863e-06
2.4182e-06
2.27022e-06
2.13682e-06
2.01844e-06
1.91042e-06
1.81402e-06
1.7251e-06
1.64548e-06
1.57117e-06
1.50463e-06
1.44161e-06
1.38548e-06
1.33126e-06
1.28355e-06
1.2362e-06
1.19545e-06
1.15353e-06
1.11859e-06
1.08101e-06
1.05094e-06
1.01688e-06
9.90916e-07
9.59722e-07
9.37249e-07
9.08361e-07
8.88935e-07
8.61843e-07
8.45129e-07
8.19431e-07
8.05283e-07
7.79992e-07
7.72298e-07
7.42948e-07
7.60952e-07
7.34214e-07
7.97028e-07
1.937e-05
1.61297e-05
1.32905e-05
1.12888e-05
9.82686e-06
8.69439e-06
7.77577e-06
7.01836e-06
6.38101e-06
5.84018e-06
5.37331e-06
4.97015e-06
4.61592e-06
4.30635e-06
4.0305e-06
3.78719e-06
3.56752e-06
3.37225e-06
3.19388e-06
3.03451e-06
2.88734e-06
2.7555e-06
2.63223e-06
2.52193e-06
2.41717e-06
2.32407e-06
2.23371e-06
2.15458e-06
2.07552e-06
2.00792e-06
1.93783e-06
1.87985e-06
1.81698e-06
1.76705e-06
1.71005e-06
1.66692e-06
1.6147e-06
1.57737e-06
1.52899e-06
1.49675e-06
1.45138e-06
1.42364e-06
1.38067e-06
1.35702e-06
1.31512e-06
1.29918e-06
1.25276e-06
1.26613e-06
1.23804e-06
1.26227e-06
1.9861e-05
1.82601e-05
1.60854e-05
1.42e-05
1.26389e-05
1.13476e-05
1.02585e-05
9.33665e-06
8.54403e-06
7.86136e-06
7.26548e-06
6.74643e-06
6.28686e-06
5.88273e-06
5.52052e-06
5.19934e-06
4.908e-06
4.64798e-06
4.40961e-06
4.19604e-06
3.99814e-06
3.82062e-06
3.65393e-06
3.50488e-06
3.36245e-06
3.23632e-06
3.11286e-06
3.00544e-06
2.89697e-06
2.80505e-06
2.70861e-06
2.62963e-06
2.54295e-06
2.47482e-06
2.39613e-06
2.33718e-06
2.26498e-06
2.21394e-06
2.14696e-06
2.10286e-06
2.04e-06
2.00204e-06
1.94254e-06
1.91008e-06
1.85259e-06
1.8277e-06
1.76605e-06
1.76645e-06
1.74695e-06
1.734e-06
1.99706e-05
1.7846e-05
1.60747e-05
1.4767e-05
1.36025e-05
1.2538e-05
1.15686e-05
1.07016e-05
9.91926e-06
9.2243e-06
8.6028e-06
8.05073e-06
7.55337e-06
7.10999e-06
6.70726e-06
6.34615e-06
6.01514e-06
5.71735e-06
5.44215e-06
5.19428e-06
4.96284e-06
4.75467e-06
4.55747e-06
4.38129e-06
4.21105e-06
4.06099e-06
3.91207e-06
3.78359e-06
3.65182e-06
3.54137e-06
3.42358e-06
3.32827e-06
3.22197e-06
3.13944e-06
3.04257e-06
2.97097e-06
2.88178e-06
2.81967e-06
2.73669e-06
2.68293e-06
2.60492e-06
2.55853e-06
2.48469e-06
2.44474e-06
2.37404e-06
2.34146e-06
2.27035e-06
2.25334e-06
2.23403e-06
2.19095e-06
2.00095e-05
1.47038e-05
1.37482e-05
1.32125e-05
1.25929e-05
1.19295e-05
1.12796e-05
1.066e-05
1.00822e-05
9.54896e-06
9.04708e-06
8.58143e-06
8.14615e-06
7.74686e-06
7.37352e-06
7.03117e-06
6.71091e-06
6.41863e-06
6.14425e-06
5.89476e-06
5.65824e-06
5.4444e-06
5.23851e-06
5.05464e-06
4.87361e-06
4.71493e-06
4.55407e-06
4.41676e-06
4.27276e-06
4.15362e-06
4.02368e-06
3.92003e-06
3.80183e-06
3.7115e-06
3.603e-06
3.52421e-06
3.42372e-06
3.35504e-06
3.26108e-06
3.20135e-06
3.11273e-06
3.06088e-06
2.97708e-06
2.93157e-06
2.85242e-06
2.81336e-06
2.74037e-06
2.70129e-06
2.67857e-06
2.61969e-06
2.01332e-05
1.54668e-05
9.63447e-06
9.40046e-06
9.49612e-06
9.49655e-06
9.43887e-06
9.30243e-06
9.0611e-06
8.78822e-06
8.4925e-06
8.1958e-06
7.90251e-06
7.61986e-06
7.34107e-06
7.08113e-06
6.83191e-06
6.59846e-06
6.37238e-06
6.16289e-06
5.95818e-06
5.77118e-06
5.58576e-06
5.42001e-06
5.25152e-06
5.1048e-06
4.95114e-06
4.82182e-06
4.68162e-06
4.56755e-06
4.43899e-06
4.3383e-06
4.21969e-06
4.1309e-06
4.02068e-06
3.94247e-06
3.83934e-06
3.7705e-06
3.67328e-06
3.61284e-06
3.52076e-06
3.46744e-06
3.381e-06
3.33177e-06
3.25339e-06
3.20448e-06
3.14156e-06
3.08313e-06
3.05696e-06
2.98908e-06
2.01713e-05
1.86755e-05
8.68861e-06
5.54121e-06
5.63263e-06
5.93882e-06
6.29855e-06
6.58604e-06
6.76684e-06
6.87705e-06
6.89714e-06
6.87805e-06
6.82581e-06
6.73797e-06
6.62641e-06
6.50448e-06
6.36502e-06
6.22381e-06
6.07857e-06
5.93876e-06
5.79444e-06
5.66041e-06
5.5212e-06
5.3962e-06
5.26345e-06
5.1506e-06
5.02634e-06
4.92396e-06
4.80657e-06
4.71337e-06
4.60253e-06
4.51797e-06
4.41315e-06
4.33694e-06
4.23752e-06
4.16916e-06
4.07448e-06
4.01314e-06
3.92275e-06
3.86796e-06
3.78204e-06
3.73184e-06
3.65295e-06
3.60183e-06
3.53564e-06
3.47758e-06
3.4302e-06
3.36214e-06
3.33521e-06
3.26545e-06
2.01672e-05
1.97237e-05
1.6165e-05
4.85697e-06
3.04286e-06
3.10754e-06
3.37888e-06
3.81109e-06
4.1786e-06
4.49869e-06
4.74714e-06
4.93828e-06
5.07906e-06
5.18064e-06
5.23882e-06
5.27592e-06
5.27929e-06
5.27096e-06
5.24794e-06
5.21188e-06
5.16101e-06
5.10944e-06
5.0454e-06
4.98562e-06
4.9134e-06
4.84912e-06
4.76976e-06
4.70573e-06
4.62456e-06
4.56272e-06
4.48211e-06
4.42311e-06
4.34396e-06
4.28868e-06
4.21129e-06
4.16002e-06
4.08477e-06
4.0384e-06
3.96605e-06
3.92346e-06
3.85448e-06
3.81245e-06
3.75172e-06
3.70304e-06
3.65675e-06
3.5984e-06
3.56589e-06
3.50211e-06
3.47755e-06
3.41435e-06
2.01477e-05
1.99342e-05
1.90648e-05
1.44933e-05
5.23274e-06
2.15332e-06
1.91536e-06
1.99615e-06
2.21215e-06
2.51313e-06
2.79032e-06
3.04591e-06
3.27154e-06
3.47034e-06
3.63417e-06
3.77446e-06
3.88563e-06
3.9765e-06
4.0463e-06
4.10231e-06
4.13903e-06
4.16694e-06
4.18064e-06
4.1869e-06
4.18414e-06
4.17802e-06
4.16241e-06
4.1493e-06
4.12167e-06
4.1039e-06
4.0688e-06
4.04666e-06
4.00763e-06
3.98287e-06
3.94099e-06
3.91551e-06
3.87118e-06
3.84475e-06
3.79834e-06
3.77169e-06
3.72623e-06
3.69669e-06
3.65838e-06
3.61981e-06
3.59195e-06
3.54692e-06
3.52399e-06
3.47746e-06
3.458e-06
3.4094e-06
2.01216e-05
1.99661e-05
1.9642e-05
1.85442e-05
1.52034e-05
8.3371e-06
3.09014e-06
1.6313e-06
1.44271e-06
1.45116e-06
1.53021e-06
1.69441e-06
1.87762e-06
2.05678e-06
2.22748e-06
2.3895e-06
2.53649e-06
2.6709e-06
2.78832e-06
2.89578e-06
2.98642e-06
3.06905e-06
3.13641e-06
3.19816e-06
3.24548e-06
3.29115e-06
3.32216e-06
3.35546e-06
3.37359e-06
3.39607e-06
3.40501e-06
3.4178e-06
3.42048e-06
3.42457e-06
3.4231e-06
3.42134e-06
3.41548e-06
3.41131e-06
3.40114e-06
3.39488e-06
3.38178e-06
3.37169e-06
3.36071e-06
3.34304e-06
3.33363e-06
3.31424e-06
3.30375e-06
3.2813e-06
3.27092e-06
3.24481e-06
2.00982e-05
1.99328e-05
1.97571e-05
1.93513e-05
1.85027e-05
1.65269e-05
1.23021e-05
6.82365e-06
2.96088e-06
1.48726e-06
1.24213e-06
1.14833e-06
1.15398e-06
1.19865e-06
1.2934e-06
1.40292e-06
1.51572e-06
1.62884e-06
1.73863e-06
1.84745e-06
1.94701e-06
2.04464e-06
2.13073e-06
2.21566e-06
2.28826e-06
2.36073e-06
2.42078e-06
2.48168e-06
2.5308e-06
2.58101e-06
2.62116e-06
2.66165e-06
2.69411e-06
2.72661e-06
2.75206e-06
2.77825e-06
2.79785e-06
2.81871e-06
2.83379e-06
2.84978e-06
2.86213e-06
2.87238e-06
2.88385e-06
2.88898e-06
2.89775e-06
2.90067e-06
2.90628e-06
2.90674e-06
2.90818e-06
2.90642e-06
2.00782e-05
1.98877e-05
1.97568e-05
1.94599e-05
1.91437e-05
1.86368e-05
1.75451e-05
1.54077e-05
1.16995e-05
7.39076e-06
3.93451e-06
1.88722e-06
1.20253e-06
1.05606e-06
9.80396e-07
9.44949e-07
9.57478e-07
9.9468e-07
1.05703e-06
1.12439e-06
1.19381e-06
1.26777e-06
1.33847e-06
1.41365e-06
1.48255e-06
1.55376e-06
1.61785e-06
1.6836e-06
1.74187e-06
1.80154e-06
1.85422e-06
1.90751e-06
1.95435e-06
2.00209e-06
2.04317e-06
2.08537e-06
2.12217e-06
2.15877e-06
2.19171e-06
2.22337e-06
2.25352e-06
2.2804e-06
2.30693e-06
2.33151e-06
2.3536e-06
2.37532e-06
2.39368e-06
2.4132e-06
2.42649e-06
2.44258e-06
2.00614e-05
1.9854e-05
1.97342e-05
1.94703e-05
1.9253e-05
1.90441e-05
1.87306e-05
1.81823e-05
1.70799e-05
1.52048e-05
1.25138e-05
9.16067e-06
5.89181e-06
3.41206e-06
1.83891e-06
1.15284e-06
9.6152e-07
8.89579e-07
8.34213e-07
7.98598e-07
8.01935e-07
8.17824e-07
8.50182e-07
8.92267e-07
9.3289e-07
9.79756e-07
1.02542e-06
1.07537e-06
1.12273e-06
1.1736e-06
1.22084e-06
1.27005e-06
1.3155e-06
1.36296e-06
1.40593e-06
1.45045e-06
1.49195e-06
1.53315e-06
1.57211e-06
1.61062e-06
1.64737e-06
1.68372e-06
1.71555e-06
1.75243e-06
1.78035e-06
1.81425e-06
1.83869e-06
1.87154e-06
1.89235e-06
1.91926e-06
2.00475e-05
1.98304e-05
1.97075e-05
1.94482e-05
1.92699e-05
1.91121e-05
1.89609e-05
1.87449e-05
1.84543e-05
1.78997e-05
1.70581e-05
1.56627e-05
1.383e-05
1.14501e-05
8.74925e-06
6.13111e-06
3.97465e-06
2.42273e-06
1.45546e-06
1.01019e-06
8.56631e-07
7.9601e-07
7.47702e-07
7.09089e-07
6.83567e-07
6.84779e-07
6.92874e-07
7.11586e-07
7.34735e-07
7.62778e-07
7.89902e-07
8.21106e-07
8.51993e-07
8.86181e-07
9.18864e-07
9.5422e-07
9.8857e-07
1.024e-06
1.0576e-06
1.09318e-06
1.12631e-06
1.16252e-06
1.19127e-06
1.23017e-06
1.25781e-06
1.29327e-06
1.31908e-06
1.35434e-06
1.38104e-06
1.40607e-06
2.00362e-05
1.98126e-05
1.9685e-05
1.94178e-05
1.92557e-05
1.91055e-05
1.89959e-05
1.88439e-05
1.87058e-05
1.84924e-05
1.82379e-05
1.78178e-05
1.72084e-05
1.63278e-05
1.51045e-05
1.35508e-05
1.1709e-05
9.59367e-06
7.43096e-06
5.42426e-06
3.76289e-06
2.50664e-06
1.62198e-06
1.09969e-06
8.53511e-07
7.54171e-07
7.06148e-07
6.69235e-07
6.33405e-07
6.07819e-07
5.91541e-07
5.92095e-07
5.96722e-07
6.07525e-07
6.22048e-07
6.39639e-07
6.57901e-07
6.78192e-07
6.98323e-07
7.21956e-07
7.44277e-07
7.71236e-07
7.91457e-07
8.22517e-07
8.45277e-07
8.72667e-07
8.95174e-07
9.2492e-07
9.50005e-07
9.6979e-07
2.00272e-05
1.97987e-05
1.96658e-05
1.93958e-05
1.92298e-05
1.90778e-05
1.89774e-05
1.88473e-05
1.87294e-05
1.85892e-05
1.84508e-05
1.82806e-05
1.80679e-05
1.77804e-05
1.73855e-05
1.68345e-05
1.61099e-05
1.51699e-05
1.3998e-05
1.26317e-05
1.10885e-05
9.38854e-06
7.64624e-06
5.99295e-06
4.50245e-06
3.28777e-06
2.33394e-06
1.62032e-06
1.14018e-06
8.66159e-07
7.29552e-07
6.65199e-07
6.27614e-07
5.98597e-07
5.70317e-07
5.45402e-07
5.2836e-07
5.17602e-07
5.17665e-07
5.20333e-07
5.26171e-07
5.3749e-07
5.45621e-07
5.61477e-07
5.74005e-07
5.87743e-07
6.01361e-07
6.20358e-07
6.3669e-07
6.49653e-07
2.002e-05
1.97901e-05
1.96459e-05
1.93793e-05
1.92054e-05
1.90485e-05
1.89387e-05
1.88204e-05
1.87072e-05
1.85822e-05
1.84625e-05
1.83364e-05
1.82106e-05
1.80671e-05
1.79088e-05
1.77072e-05
1.74595e-05
1.7133e-05
1.67188e-05
1.618e-05
1.55272e-05
1.47159e-05
1.37717e-05
1.26692e-05
1.14826e-05
1.01706e-05
8.7839e-06
7.38648e-06
6.04299e-06
4.81063e-06
3.72699e-06
2.83901e-06
2.11958e-06
1.55664e-06
1.14617e-06
8.78271e-07
7.21878e-07
6.37391e-07
5.91535e-07
5.61762e-07
5.3783e-07
5.16178e-07
4.94364e-07
4.77694e-07
4.65469e-07
4.56743e-07
4.55518e-07
4.56978e-07
4.60425e-07
4.65683e-07
2.00145e-05
1.979e-05
1.96197e-05
1.93659e-05
1.91847e-05
1.90212e-05
1.89023e-05
1.87833e-05
1.86665e-05
1.85452e-05
1.84316e-05
1.83135e-05
1.82015e-05
1.80813e-05
1.79687e-05
1.78447e-05
1.7722e-05
1.75752e-05
1.74167e-05
1.72152e-05
1.69823e-05
1.66851e-05
1.63326e-05
1.58931e-05
1.53767e-05
1.47652e-05
1.40594e-05
1.32506e-05
1.23573e-05
1.1381e-05
1.0355e-05
9.25496e-06
8.1222e-06
6.99699e-06
5.90729e-06
4.89654e-06
3.97129e-06
3.17745e-06
2.51096e-06
1.95707e-06
1.50715e-06
1.15903e-06
9.07408e-07
7.40526e-07
6.36398e-07
5.74947e-07
5.372e-07
5.15463e-07
4.95836e-07
4.86957e-07
2.00102e-05
1.97941e-05
1.95931e-05
1.93519e-05
1.91659e-05
1.89951e-05
1.88684e-05
1.87462e-05
1.86259e-05
1.85009e-05
1.83849e-05
1.82655e-05
1.81557e-05
1.80419e-05
1.79359e-05
1.78251e-05
1.77203e-05
1.76088e-05
1.75036e-05
1.73894e-05
1.72732e-05
1.71414e-05
1.69974e-05
1.68281e-05
1.66333e-05
1.64002e-05
1.61329e-05
1.58102e-05
1.54411e-05
1.5007e-05
1.45196e-05
1.39628e-05
1.33438e-05
1.26541e-05
1.19142e-05
1.11111e-05
1.02814e-05
9.4038e-06
8.48967e-06
7.56518e-06
6.65059e-06
5.76765e-06
4.93533e-06
4.17479e-06
3.48812e-06
2.91143e-06
2.42386e-06
2.03311e-06
1.71081e-06
1.49095e-06
2.0007e-05
1.98015e-05
1.95686e-05
1.93383e-05
1.91482e-05
1.89706e-05
1.88359e-05
1.87106e-05
1.8586e-05
1.84579e-05
1.83371e-05
1.82155e-05
1.81017e-05
1.79859e-05
1.78775e-05
1.77675e-05
1.76661e-05
1.75619e-05
1.74628e-05
1.73644e-05
1.72649e-05
1.71666e-05
1.70669e-05
1.69676e-05
1.68622e-05
1.67497e-05
1.66325e-05
1.64974e-05
1.63487e-05
1.61797e-05
1.59879e-05
1.57704e-05
1.55188e-05
1.52362e-05
1.49146e-05
1.45535e-05
1.41465e-05
1.37042e-05
1.32074e-05
1.26747e-05
1.20881e-05
1.14712e-05
1.08136e-05
1.01358e-05
9.43823e-06
8.73123e-06
8.00512e-06
7.31735e-06
6.64822e-06
6.05945e-06
2.00047e-05
1.98101e-05
1.95457e-05
1.9325e-05
1.91309e-05
1.89478e-05
1.88045e-05
1.86765e-05
1.85474e-05
1.84166e-05
1.82906e-05
1.81662e-05
1.80481e-05
1.79301e-05
1.78171e-05
1.77058e-05
1.75995e-05
1.74939e-05
1.73913e-05
1.72948e-05
1.71957e-05
1.71052e-05
1.701e-05
1.6924e-05
1.68311e-05
1.67413e-05
1.66526e-05
1.65627e-05
1.64685e-05
1.63782e-05
1.62787e-05
1.61808e-05
1.60646e-05
1.595e-05
1.58175e-05
1.56737e-05
1.5509e-05
1.53328e-05
1.51279e-05
1.49095e-05
1.46546e-05
1.43822e-05
1.40741e-05
1.37452e-05
1.33774e-05
1.29934e-05
1.25732e-05
1.21379e-05
1.16808e-05
1.12185e-05
2.0003e-05
1.98192e-05
1.95244e-05
1.93111e-05
1.91137e-05
1.89264e-05
1.87742e-05
1.86433e-05
1.85101e-05
1.83768e-05
1.8246e-05
1.81185e-05
1.79964e-05
1.78759e-05
1.77582e-05
1.76452e-05
1.75349e-05
1.74269e-05
1.73198e-05
1.72226e-05
1.71174e-05
1.70254e-05
1.69253e-05
1.68402e-05
1.67439e-05
1.66581e-05
1.65744e-05
1.64922e-05
1.64047e-05
1.63282e-05
1.6246e-05
1.61699e-05
1.60824e-05
1.60076e-05
1.59281e-05
1.58456e-05
1.57614e-05
1.56759e-05
1.5583e-05
1.54903e-05
1.53803e-05
1.52691e-05
1.5145e-05
1.50104e-05
1.48605e-05
1.46999e-05
1.45202e-05
1.4332e-05
1.41227e-05
1.38958e-05
2.00018e-05
1.98279e-05
1.95049e-05
1.92963e-05
1.90964e-05
1.89064e-05
1.87453e-05
1.86112e-05
1.84743e-05
1.83388e-05
1.82037e-05
1.8073e-05
1.79472e-05
1.78242e-05
1.77022e-05
1.75871e-05
1.74735e-05
1.73626e-05
1.72518e-05
1.71534e-05
1.70437e-05
1.69493e-05
1.68455e-05
1.67581e-05
1.66573e-05
1.65672e-05
1.64795e-05
1.63947e-05
1.63022e-05
1.62241e-05
1.61435e-05
1.60682e-05
1.59866e-05
1.59184e-05
1.58482e-05
1.57755e-05
1.57065e-05
1.56384e-05
1.5569e-05
1.55043e-05
1.54294e-05
1.53635e-05
1.52959e-05
1.52241e-05
1.51521e-05
1.50777e-05
1.49949e-05
1.49176e-05
1.48267e-05
1.47246e-05
2.00009e-05
1.98306e-05
1.94887e-05
1.9281e-05
1.90793e-05
1.88883e-05
1.87185e-05
1.85808e-05
1.84405e-05
1.8303e-05
1.81641e-05
1.80301e-05
1.79013e-05
1.77759e-05
1.76498e-05
1.75328e-05
1.74164e-05
1.73022e-05
1.71887e-05
1.70882e-05
1.69756e-05
1.68778e-05
1.67723e-05
1.66815e-05
1.65777e-05
1.64841e-05
1.6393e-05
1.63063e-05
1.62069e-05
1.61263e-05
1.60436e-05
1.59606e-05
1.58747e-05
1.58032e-05
1.57295e-05
1.5654e-05
1.55827e-05
1.55157e-05
1.54494e-05
1.53912e-05
1.53217e-05
1.52652e-05
1.52067e-05
1.51487e-05
1.50912e-05
1.50354e-05
1.49757e-05
1.49238e-05
1.48645e-05
1.48014e-05
2.00003e-05
1.9829e-05
1.94755e-05
1.92649e-05
1.90622e-05
1.8872e-05
1.86941e-05
1.85524e-05
1.8409e-05
1.827e-05
1.81276e-05
1.79905e-05
1.78592e-05
1.77316e-05
1.76018e-05
1.74831e-05
1.73643e-05
1.72468e-05
1.71313e-05
1.70285e-05
1.69138e-05
1.68122e-05
1.67062e-05
1.66115e-05
1.65055e-05
1.6409e-05
1.6315e-05
1.62266e-05
1.61217e-05
1.60391e-05
1.59545e-05
1.58659e-05
1.57764e-05
1.57027e-05
1.56238e-05
1.55445e-05
1.54682e-05
1.53983e-05
1.53265e-05
1.52627e-05
1.51885e-05
1.51296e-05
1.50663e-05
1.50087e-05
1.49478e-05
1.48933e-05
1.48383e-05
1.4791e-05
1.47365e-05
1.4682e-05
2e-05
1.98273e-05
1.94643e-05
1.92474e-05
1.90444e-05
1.8857e-05
1.8672e-05
1.85261e-05
1.83799e-05
1.824e-05
1.80947e-05
1.79549e-05
1.78213e-05
1.76919e-05
1.75588e-05
1.74388e-05
1.73178e-05
1.71976e-05
1.70806e-05
1.69754e-05
1.6859e-05
1.67541e-05
1.66478e-05
1.65491e-05
1.64414e-05
1.63428e-05
1.62459e-05
1.61552e-05
1.60469e-05
1.59624e-05
1.58754e-05
1.57827e-05
1.56903e-05
1.56156e-05
1.55317e-05
1.54501e-05
1.53696e-05
1.5298e-05
1.52218e-05
1.51532e-05
1.5076e-05
1.50135e-05
1.49444e-05
1.48847e-05
1.48171e-05
1.47587e-05
1.46997e-05
1.4646e-05
1.4585e-05
1.45269e-05
1.99999e-05
1.98261e-05
1.94561e-05
1.92294e-05
1.90267e-05
1.88437e-05
1.86529e-05
1.85026e-05
1.83538e-05
1.82135e-05
1.80657e-05
1.7924e-05
1.77882e-05
1.76575e-05
1.75218e-05
1.74009e-05
1.72776e-05
1.71556e-05
1.70372e-05
1.693e-05
1.68121e-05
1.6705e-05
1.6598e-05
1.6496e-05
1.63865e-05
1.62867e-05
1.61869e-05
1.60931e-05
1.59835e-05
1.58967e-05
1.58065e-05
1.57111e-05
1.56167e-05
1.55406e-05
1.54522e-05
1.53691e-05
1.52853e-05
1.52126e-05
1.51327e-05
1.50602e-05
1.49813e-05
1.49161e-05
1.48425e-05
1.47802e-05
1.47079e-05
1.4647e-05
1.4583e-05
1.4525e-05
1.44575e-05
1.4394e-05
1.99999e-05
1.98255e-05
1.94509e-05
1.92123e-05
1.90096e-05
1.88327e-05
1.86375e-05
1.84825e-05
1.83316e-05
1.81912e-05
1.80414e-05
1.78986e-05
1.77607e-05
1.7629e-05
1.74915e-05
1.737e-05
1.72446e-05
1.71217e-05
1.70022e-05
1.68932e-05
1.67743e-05
1.66658e-05
1.65576e-05
1.64532e-05
1.63423e-05
1.62417e-05
1.61392e-05
1.60418e-05
1.59325e-05
1.58431e-05
1.5749e-05
1.56522e-05
1.55565e-05
1.54778e-05
1.53861e-05
1.53017e-05
1.52155e-05
1.51412e-05
1.50579e-05
1.49828e-05
1.49022e-05
1.48351e-05
1.47577e-05
1.46924e-05
1.46175e-05
1.45544e-05
1.4485e-05
1.44243e-05
1.43508e-05
1.42827e-05
1.99999e-05
1.98253e-05
1.94487e-05
1.91971e-05
1.89938e-05
1.88238e-05
1.86263e-05
1.84664e-05
1.83138e-05
1.81734e-05
1.80223e-05
1.78793e-05
1.77394e-05
1.76071e-05
1.74687e-05
1.73468e-05
1.72196e-05
1.70967e-05
1.69764e-05
1.6866e-05
1.67465e-05
1.66375e-05
1.65279e-05
1.6422e-05
1.63099e-05
1.62087e-05
1.61036e-05
1.60033e-05
1.58946e-05
1.58027e-05
1.57046e-05
1.56074e-05
1.55106e-05
1.54286e-05
1.53345e-05
1.5249e-05
1.51607e-05
1.50845e-05
1.49982e-05
1.49213e-05
1.48388e-05
1.477e-05
1.46891e-05
1.4621e-05
1.45442e-05
1.44788e-05
1.44037e-05
1.43409e-05
1.42618e-05
1.41896e-05
1.99999e-05
1.98255e-05
1.94491e-05
1.91845e-05
1.89797e-05
1.88168e-05
1.86194e-05
1.84548e-05
1.83006e-05
1.81605e-05
1.80088e-05
1.78662e-05
1.77248e-05
1.75923e-05
1.74539e-05
1.73318e-05
1.72033e-05
1.70811e-05
1.69602e-05
1.68491e-05
1.67295e-05
1.66206e-05
1.65096e-05
1.64031e-05
1.62905e-05
1.61885e-05
1.60812e-05
1.5979e-05
1.58708e-05
1.57763e-05
1.56749e-05
1.55777e-05
1.54797e-05
1.53944e-05
1.52986e-05
1.52123e-05
1.5122e-05
1.50436e-05
1.4955e-05
1.48767e-05
1.47921e-05
1.47213e-05
1.46373e-05
1.45668e-05
1.4488e-05
1.44202e-05
1.43396e-05
1.42743e-05
1.41896e-05
1.41134e-05
1.99999e-05
1.98262e-05
1.94519e-05
1.91751e-05
1.89677e-05
1.88115e-05
1.86168e-05
1.84479e-05
1.82922e-05
1.81526e-05
1.80011e-05
1.78595e-05
1.77169e-05
1.75848e-05
1.74471e-05
1.73251e-05
1.71961e-05
1.70753e-05
1.69543e-05
1.68432e-05
1.67241e-05
1.66156e-05
1.65038e-05
1.63975e-05
1.62847e-05
1.61819e-05
1.6073e-05
1.597e-05
1.58616e-05
1.57649e-05
1.5661e-05
1.5564e-05
1.54645e-05
1.53764e-05
1.52794e-05
1.51925e-05
1.51002e-05
1.50196e-05
1.49291e-05
1.48498e-05
1.47631e-05
1.46902e-05
1.46032e-05
1.45309e-05
1.44494e-05
1.43789e-05
1.42936e-05
1.42247e-05
1.41343e-05
1.4054e-05
1.99999e-05
1.98275e-05
1.94574e-05
1.91694e-05
1.89585e-05
1.88078e-05
1.86183e-05
1.84461e-05
1.82887e-05
1.81498e-05
1.79994e-05
1.78591e-05
1.77161e-05
1.7585e-05
1.74483e-05
1.73269e-05
1.71982e-05
1.70788e-05
1.6958e-05
1.68474e-05
1.6729e-05
1.6621e-05
1.6509e-05
1.64032e-05
1.62905e-05
1.61872e-05
1.60775e-05
1.59743e-05
1.58657e-05
1.57674e-05
1.56624e-05
1.55655e-05
1.54648e-05
1.53748e-05
1.52772e-05
1.51897e-05
1.50956e-05
1.50133e-05
1.49212e-05
1.4841e-05
1.47522e-05
1.46772e-05
1.45875e-05
1.45135e-05
1.4429e-05
1.43553e-05
1.42663e-05
1.41926e-05
1.40965e-05
1.40115e-05
1.99999e-05
1.98292e-05
1.94648e-05
1.91676e-05
1.89524e-05
1.88057e-05
1.86234e-05
1.84489e-05
1.82897e-05
1.81519e-05
1.80029e-05
1.78642e-05
1.77211e-05
1.75913e-05
1.7456e-05
1.73354e-05
1.72076e-05
1.70906e-05
1.69705e-05
1.68612e-05
1.67444e-05
1.66376e-05
1.65258e-05
1.64214e-05
1.63092e-05
1.62056e-05
1.60953e-05
1.59925e-05
1.58834e-05
1.57836e-05
1.56776e-05
1.55806e-05
1.54785e-05
1.53871e-05
1.52889e-05
1.52008e-05
1.51054e-05
1.5022e-05
1.49286e-05
1.48477e-05
1.47571e-05
1.46806e-05
1.45887e-05
1.45135e-05
1.44258e-05
1.4349e-05
1.42569e-05
1.41773e-05
1.4076e-05
1.3985e-05
1.99999e-05
1.98314e-05
1.94742e-05
1.91696e-05
1.89495e-05
1.88052e-05
1.86315e-05
1.84568e-05
1.82953e-05
1.81584e-05
1.80113e-05
1.78749e-05
1.77323e-05
1.76046e-05
1.7471e-05
1.73521e-05
1.72259e-05
1.71116e-05
1.69927e-05
1.68854e-05
1.67705e-05
1.66655e-05
1.65546e-05
1.6452e-05
1.63407e-05
1.62377e-05
1.61275e-05
1.60253e-05
1.59164e-05
1.58159e-05
1.57096e-05
1.56129e-05
1.55099e-05
1.54174e-05
1.53187e-05
1.523e-05
1.51333e-05
1.50487e-05
1.49538e-05
1.48718e-05
1.4779e-05
1.47007e-05
1.46061e-05
1.45289e-05
1.44377e-05
1.43577e-05
1.42622e-05
1.4177e-05
1.40711e-05
1.3973e-05
1.99999e-05
1.98341e-05
1.94852e-05
1.91755e-05
1.89503e-05
1.88065e-05
1.8642e-05
1.8469e-05
1.83055e-05
1.81697e-05
1.80246e-05
1.78907e-05
1.77491e-05
1.76238e-05
1.7492e-05
1.73753e-05
1.72511e-05
1.71399e-05
1.70227e-05
1.69178e-05
1.6805e-05
1.67024e-05
1.6593e-05
1.64924e-05
1.63826e-05
1.62807e-05
1.61711e-05
1.60697e-05
1.59612e-05
1.58609e-05
1.57542e-05
1.56579e-05
1.55548e-05
1.5462e-05
1.53633e-05
1.52743e-05
1.5177e-05
1.50919e-05
1.49961e-05
1.49134e-05
1.48189e-05
1.47393e-05
1.46426e-05
1.45638e-05
1.44684e-05
1.43853e-05
1.42849e-05
1.41935e-05
1.40823e-05
1.39756e-05
1.99999e-05
1.98373e-05
1.94971e-05
1.91852e-05
1.89545e-05
1.881e-05
1.86545e-05
1.84851e-05
1.83199e-05
1.81847e-05
1.80416e-05
1.79107e-05
1.77705e-05
1.76477e-05
1.75179e-05
1.74039e-05
1.7282e-05
1.71742e-05
1.70592e-05
1.69571e-05
1.68468e-05
1.67472e-05
1.66397e-05
1.65413e-05
1.64333e-05
1.63332e-05
1.62246e-05
1.61243e-05
1.60164e-05
1.59168e-05
1.58103e-05
1.57144e-05
1.56116e-05
1.55188e-05
1.54201e-05
1.53311e-05
1.52335e-05
1.51481e-05
1.50516e-05
1.49681e-05
1.48721e-05
1.47917e-05
1.46926e-05
1.46124e-05
1.45129e-05
1.44277e-05
1.43215e-05
1.4226e-05
1.41088e-05
1.39936e-05
1.99999e-05
1.98409e-05
1.95099e-05
1.91981e-05
1.89625e-05
1.88161e-05
1.86686e-05
1.85048e-05
1.83383e-05
1.82035e-05
1.80621e-05
1.79344e-05
1.77959e-05
1.76757e-05
1.75479e-05
1.7437e-05
1.73176e-05
1.72134e-05
1.71009e-05
1.70021e-05
1.68945e-05
1.67983e-05
1.66931e-05
1.65974e-05
1.64915e-05
1.63936e-05
1.62864e-05
1.61875e-05
1.60804e-05
1.59819e-05
1.58759e-05
1.57805e-05
1.56784e-05
1.5586e-05
1.54874e-05
1.53987e-05
1.53011e-05
1.52156e-05
1.51186e-05
1.50346e-05
1.49371e-05
1.48558e-05
1.47545e-05
1.46727e-05
1.4569e-05
1.44813e-05
1.43689e-05
1.42697e-05
1.41448e-05
1.40233e-05
1.99999e-05
1.98447e-05
1.95232e-05
1.92137e-05
1.89738e-05
1.8825e-05
1.86839e-05
1.85272e-05
1.83602e-05
1.82256e-05
1.80854e-05
1.7961e-05
1.78245e-05
1.7707e-05
1.75812e-05
1.74737e-05
1.73569e-05
1.72564e-05
1.71467e-05
1.70514e-05
1.69467e-05
1.68542e-05
1.67517e-05
1.6659e-05
1.65556e-05
1.64603e-05
1.63547e-05
1.62575e-05
1.61514e-05
1.60543e-05
1.59492e-05
1.58546e-05
1.57531e-05
1.56616e-05
1.55634e-05
1.5475e-05
1.53777e-05
1.52921e-05
1.51949e-05
1.51105e-05
1.50116e-05
1.49294e-05
1.48261e-05
1.47424e-05
1.46346e-05
1.4544e-05
1.44257e-05
1.43223e-05
1.41883e-05
1.40637e-05
1.99999e-05
1.98488e-05
1.95368e-05
1.92317e-05
1.89884e-05
1.88367e-05
1.87004e-05
1.85517e-05
1.83851e-05
1.82505e-05
1.81113e-05
1.799e-05
1.78555e-05
1.77408e-05
1.7617e-05
1.75129e-05
1.73987e-05
1.73022e-05
1.71952e-05
1.71039e-05
1.70021e-05
1.69135e-05
1.6814e-05
1.67248e-05
1.66239e-05
1.65316e-05
1.64278e-05
1.63326e-05
1.62278e-05
1.61321e-05
1.60282e-05
1.59346e-05
1.5834e-05
1.57434e-05
1.56458e-05
1.5558e-05
1.54612e-05
1.53757e-05
1.52783e-05
1.51937e-05
1.50936e-05
1.50103e-05
1.49049e-05
1.48194e-05
1.47073e-05
1.46133e-05
1.44894e-05
1.43812e-05
1.4238e-05
1.41118e-05
1.99999e-05
1.9853e-05
1.95505e-05
1.92516e-05
1.90062e-05
1.88513e-05
1.87181e-05
1.85777e-05
1.84127e-05
1.8278e-05
1.81392e-05
1.80208e-05
1.78885e-05
1.77765e-05
1.76545e-05
1.75539e-05
1.74422e-05
1.73497e-05
1.72456e-05
1.71583e-05
1.70597e-05
1.69751e-05
1.68788e-05
1.67933e-05
1.66951e-05
1.6606e-05
1.65042e-05
1.64113e-05
1.63077e-05
1.62137e-05
1.6111e-05
1.60188e-05
1.59191e-05
1.58296e-05
1.57329e-05
1.56456e-05
1.55495e-05
1.54641e-05
1.53666e-05
1.52819e-05
1.51806e-05
1.50962e-05
1.49883e-05
1.49012e-05
1.47844e-05
1.46872e-05
1.45569e-05
1.4444e-05
1.42923e-05
1.41639e-05
1.99999e-05
1.98572e-05
1.95642e-05
1.92729e-05
1.90267e-05
1.88688e-05
1.8737e-05
1.86048e-05
1.84423e-05
1.83078e-05
1.8169e-05
1.80531e-05
1.79227e-05
1.78135e-05
1.76932e-05
1.75958e-05
1.74866e-05
1.73981e-05
1.72968e-05
1.72137e-05
1.71182e-05
1.70377e-05
1.69447e-05
1.68631e-05
1.67679e-05
1.66821e-05
1.65824e-05
1.64919e-05
1.63898e-05
1.62975e-05
1.61963e-05
1.61055e-05
1.60069e-05
1.59185e-05
1.58226e-05
1.57361e-05
1.56407e-05
1.55554e-05
1.5458e-05
1.5373e-05
1.52706e-05
1.5185e-05
1.50745e-05
1.49854e-05
1.48639e-05
1.47633e-05
1.46265e-05
1.45079e-05
1.43499e-05
1.42157e-05
1.99999e-05
1.98615e-05
1.95777e-05
1.92952e-05
1.90497e-05
1.8889e-05
1.87572e-05
1.86324e-05
1.84736e-05
1.83395e-05
1.82003e-05
1.80865e-05
1.79578e-05
1.78512e-05
1.77325e-05
1.76381e-05
1.75312e-05
1.74466e-05
1.7348e-05
1.72692e-05
1.71767e-05
1.71005e-05
1.70107e-05
1.69334e-05
1.68411e-05
1.67588e-05
1.66613e-05
1.65733e-05
1.64728e-05
1.63823e-05
1.62824e-05
1.61931e-05
1.60956e-05
1.60084e-05
1.59135e-05
1.58277e-05
1.57331e-05
1.5648e-05
1.55506e-05
1.54652e-05
1.53617e-05
1.52748e-05
1.51616e-05
1.507e-05
1.49439e-05
1.48391e-05
1.46966e-05
1.45711e-05
1.44082e-05
1.42649e-05
1.99999e-05
1.98658e-05
1.95912e-05
1.93181e-05
1.90747e-05
1.89115e-05
1.8779e-05
1.86605e-05
1.8506e-05
1.83727e-05
1.82329e-05
1.81207e-05
1.79934e-05
1.78893e-05
1.77718e-05
1.76802e-05
1.75753e-05
1.74945e-05
1.73986e-05
1.73241e-05
1.72344e-05
1.71626e-05
1.7076e-05
1.7003e-05
1.69138e-05
1.68351e-05
1.67399e-05
1.66545e-05
1.65555e-05
1.6467e-05
1.63684e-05
1.62805e-05
1.61843e-05
1.60981e-05
1.60042e-05
1.59193e-05
1.58254e-05
1.57404e-05
1.56431e-05
1.55571e-05
1.54522e-05
1.53638e-05
1.52477e-05
1.51536e-05
1.50223e-05
1.49134e-05
1.47646e-05
1.46322e-05
1.44646e-05
1.43118e-05
1.99999e-05
1.987e-05
1.96044e-05
1.93411e-05
1.91012e-05
1.89362e-05
1.88023e-05
1.86889e-05
1.85392e-05
1.84073e-05
1.82666e-05
1.81555e-05
1.80292e-05
1.79275e-05
1.78108e-05
1.77218e-05
1.76186e-05
1.75415e-05
1.74481e-05
1.73777e-05
1.72908e-05
1.72234e-05
1.71398e-05
1.70714e-05
1.69853e-05
1.69102e-05
1.68174e-05
1.67346e-05
1.66371e-05
1.65506e-05
1.64532e-05
1.63668e-05
1.62717e-05
1.61866e-05
1.60938e-05
1.60096e-05
1.59163e-05
1.58314e-05
1.57341e-05
1.56472e-05
1.55409e-05
1.54507e-05
1.53316e-05
1.52346e-05
1.50976e-05
1.49853e-05
1.48281e-05
1.46918e-05
1.45153e-05
1.43577e-05
1.99999e-05
1.98742e-05
1.96174e-05
1.93641e-05
1.91288e-05
1.89629e-05
1.88272e-05
1.87177e-05
1.8573e-05
1.84428e-05
1.83015e-05
1.8191e-05
1.80652e-05
1.79654e-05
1.78493e-05
1.77626e-05
1.76609e-05
1.75871e-05
1.74961e-05
1.74296e-05
1.73454e-05
1.72824e-05
1.72019e-05
1.7138e-05
1.70549e-05
1.69837e-05
1.68931e-05
1.6813e-05
1.67171e-05
1.66324e-05
1.65361e-05
1.64512e-05
1.6357e-05
1.62731e-05
1.61814e-05
1.60978e-05
1.60051e-05
1.59202e-05
1.58226e-05
1.57345e-05
1.56267e-05
1.55346e-05
1.5412e-05
1.53118e-05
1.51692e-05
1.5053e-05
1.48868e-05
1.47479e-05
1.45596e-05
1.44028e-05
1.99999e-05
1.98782e-05
1.96302e-05
1.93869e-05
1.91572e-05
1.89911e-05
1.88538e-05
1.87469e-05
1.86071e-05
1.84792e-05
1.83373e-05
1.82269e-05
1.81012e-05
1.80029e-05
1.78871e-05
1.78025e-05
1.77019e-05
1.76313e-05
1.75423e-05
1.74795e-05
1.7398e-05
1.73393e-05
1.72621e-05
1.72025e-05
1.71226e-05
1.70552e-05
1.69667e-05
1.68895e-05
1.6795e-05
1.6712e-05
1.6617e-05
1.65331e-05
1.644e-05
1.63573e-05
1.62664e-05
1.61833e-05
1.60913e-05
1.6006e-05
1.59077e-05
1.58185e-05
1.57092e-05
1.56144e-05
1.54883e-05
1.53846e-05
1.52364e-05
1.51149e-05
1.49415e-05
1.47971e-05
1.46007e-05
1.44451e-05
1.99999e-05
1.98822e-05
1.96426e-05
1.94092e-05
1.9186e-05
1.90207e-05
1.88821e-05
1.87767e-05
1.86415e-05
1.85162e-05
1.83741e-05
1.82634e-05
1.81372e-05
1.80399e-05
1.79243e-05
1.78415e-05
1.77416e-05
1.76739e-05
1.75863e-05
1.75275e-05
1.74482e-05
1.73942e-05
1.73198e-05
1.72648e-05
1.71879e-05
1.71241e-05
1.70382e-05
1.69638e-05
1.68704e-05
1.67895e-05
1.66952e-05
1.66123e-05
1.65204e-05
1.64386e-05
1.63484e-05
1.6266e-05
1.61743e-05
1.60882e-05
1.59894e-05
1.58989e-05
1.57875e-05
1.56898e-05
1.55604e-05
1.54524e-05
1.52984e-05
1.51709e-05
1.49915e-05
1.48394e-05
1.46401e-05
1.44801e-05
1.99999e-05
1.9886e-05
1.96548e-05
1.94311e-05
1.92149e-05
1.90514e-05
1.89118e-05
1.88073e-05
1.86761e-05
1.85537e-05
1.84117e-05
1.83004e-05
1.81734e-05
1.80766e-05
1.79608e-05
1.78795e-05
1.77798e-05
1.77146e-05
1.76283e-05
1.75733e-05
1.74962e-05
1.74468e-05
1.7375e-05
1.73248e-05
1.72507e-05
1.71909e-05
1.71075e-05
1.70355e-05
1.69437e-05
1.68645e-05
1.67705e-05
1.6689e-05
1.6598e-05
1.65168e-05
1.64276e-05
1.63456e-05
1.62536e-05
1.6167e-05
1.60678e-05
1.5975e-05
1.58615e-05
1.57609e-05
1.56277e-05
1.55147e-05
1.53543e-05
1.52221e-05
1.5035e-05
1.48771e-05
1.46754e-05
1.45083e-05
1.99999e-05
1.98897e-05
1.96666e-05
1.94524e-05
1.92437e-05
1.90829e-05
1.8943e-05
1.88388e-05
1.8711e-05
1.85916e-05
1.84501e-05
1.83378e-05
1.82097e-05
1.8113e-05
1.79969e-05
1.79163e-05