/*--------------------------------*- C++ -*----------------------------------*\
  =========                 |
  \\      /  F ield         | OpenFOAM: The Open Source CFD Toolbox
   \\    /   O peration     | Website:  https://openfoam.org
    \\  /    A nd           | Version:  7
     \\/     M anipulation  |
\*---------------------------------------------------------------------------*/
FoamFile
{
    version     2.0;
    format      ascii;
    class       volScalarField;
    location    "0.16";
    object      p;
}
// * * * * * * * * * * * * * * * * * * * * * * * * * * * * * * * * * * * * * //

dimensions      [0 2 -2 0 0 0 0];

internalField   nonuniform List<scalar> 
70000
(
0.104491
0.0276047
0.0144645
0.0169231
0.0171905
0.0161506
0.0151983
0.0144751
0.0138726
0.0133408
0.0128662
0.0124405
0.0120563
0.0117065
0.0113856
0.0110886
0.0108117
0.0105514
0.0103049
0.0100695
0.00984289
0.00962293
0.0094076
0.00919496
0.00898311
0.00877009
0.00855394
0.00833251
0.00810358
0.00786459
0.00761285
0.00734512
0.00705805
0.00674729
0.00640861
0.00603598
0.00562398
0.00516423
0.00464942
0.00406858
0.00341027
0.00266311
0.00180427
0.000832274
-0.00030832
-0.00157557
-0.0031163
-0.00474288
-0.00686854
-0.0088302
0.100191
0.0279666
0.0146672
0.0170177
0.017245
0.0161864
0.0152263
0.0144983
0.013892
0.0133575
0.0128807
0.0124534
0.0120678
0.0117169
0.011395
0.0110973
0.0108197
0.0105589
0.0103119
0.0100761
0.00984911
0.00962883
0.00941322
0.00920033
0.00898824
0.00877503
0.0085587
0.00833713
0.00810806
0.00786895
0.0076171
0.00734929
0.00706214
0.00675131
0.00641258
0.0060399
0.00562785
0.00516807
0.00465321
0.00407235
0.00341398
0.00266679
0.00180782
0.000835809
-0.000305061
-0.00157238
-0.00311346
-0.00474129
-0.00686306
-0.00879658
0.0965851
0.028889
0.0150117
0.0171463
0.0173197
0.0162315
0.0152587
0.0145246
0.0139139
0.013376
0.0128967
0.0124675
0.0120804
0.0117283
0.0114053
0.0111067
0.0108284
0.010567
0.0103195
0.0100832
0.00985581
0.00963518
0.00941926
0.0092061
0.00899379
0.00878037
0.00856387
0.00834214
0.00811294
0.00787372
0.00762179
0.00735391
0.00706671
0.00675587
0.00641712
0.00604447
0.00563246
0.00517275
0.00465799
0.00407726
0.00341902
0.00267206
0.00181323
0.000841581
-0.000299239
-0.00156603
-0.00310726
-0.00473588
-0.00684028
-0.00877077
0.0934803
0.0299879
0.0154879
0.0173188
0.0174208
0.0162894
0.0152969
0.0145545
0.0139386
0.0133966
0.0129142
0.0124827
0.0120938
0.0117403
0.0114162
0.0111166
0.0108375
0.0105754
0.0103273
0.0100905
0.00986272
0.00964172
0.00942547
0.00921204
0.00899948
0.00878586
0.00856918
0.0083473
0.00811798
0.00787868
0.00762668
0.00735877
0.00707157
0.00676076
0.00642208
0.00604953
0.00563768
0.00517818
0.00466368
0.0040833
0.00342546
0.00267904
0.00182078
0.000849913
-0.000290143
-0.00155602
-0.00309556
-0.00472627
-0.00680207
-0.00875405
0.0905239
0.0310815
0.0160611
0.0175368
0.0175552
0.0163677
0.0153458
0.0145914
0.0139685
0.0134212
0.0129348
0.0125003
0.0121091
0.0117539
0.0114283
0.0111276
0.0108476
0.0105846
0.0103358
0.0100984
0.00987013
0.0096487
0.00943208
0.00921832
0.00900549
0.00879163
0.00857476
0.00835272
0.00812328
0.00788389
0.00763186
0.00736393
0.00707677
0.00676604
0.0064275
0.00605516
0.00564358
0.00518445
0.0046704
0.00409062
0.0034335
0.00268799
0.00183081
0.00086127
-0.000277105
-0.00154162
-0.00307715
-0.00471102
-0.00675102
-0.00873781
0.0876166
0.0321134
0.0166847
0.0177809
0.017717
0.0164679
0.0154081
0.0146375
0.0140057
0.0134515
0.0129599
0.0125216
0.0121275
0.0117699
0.0114426
0.0111404
0.0108591
0.0105951
0.0103454
0.0101073
0.00987838
0.0096564
0.00943932
0.00922517
0.00901199
0.00879785
0.00858074
0.00835852
0.00812893
0.00788944
0.00763735
0.00736943
0.00708234
0.00677174
0.0064334
0.00606136
0.00565018
0.00519159
0.00467821
0.00409932
0.00344326
0.00269915
0.00184364
0.000876093
-0.000259494
-0.00152203
-0.00305082
-0.00468832
-0.00668906
-0.0087183
0.0847511
0.0330664
0.0173253
0.01803
0.017893
0.0165854
0.0154828
0.0146928
0.0140504
0.0134883
0.0129903
0.0125472
0.0121495
0.0117891
0.0114595
0.0111554
0.0108726
0.0106073
0.0103565
0.0101175
0.00988776
0.0096651
0.00944743
0.00923277
0.00901916
0.00880465
0.00858723
0.00836476
0.00813499
0.00789537
0.00764321
0.00737529
0.00708827
0.00677784
0.00643976
0.00606812
0.00565745
0.00519959
0.00468711
0.00410945
0.00345485
0.00271268
0.00185953
0.000894783
-0.000236687
-0.00149644
-0.00301541
-0.00465623
-0.00661765
-0.00869314
0.0819365
0.0339341
0.0179667
0.0182724
0.0180723
0.0167136
0.0155663
0.0147552
0.0141017
0.0135308
0.0130258
0.0125773
0.0121754
0.0118117
0.0114794
0.0111731
0.0108884
0.0106215
0.0103694
0.0101293
0.00989853
0.00967502
0.00945662
0.00924131
0.00902716
0.00881218
0.00859436
0.00837157
0.00814154
0.00790174
0.00764947
0.00738154
0.00709458
0.00678434
0.00644658
0.00607542
0.0056654
0.00520847
0.00469713
0.00412106
0.00346836
0.00272874
0.00187876
0.000917715
-0.000208079
-0.001464
-0.00296995
-0.00461276
-0.00653772
-0.0086596
0.0791794
0.0347138
0.0186035
0.0185043
0.0182487
0.0168476
0.0156556
0.0148221
0.0141573
0.0135777
0.0130654
0.0126111
0.0122048
0.0118374
0.0115021
0.0111934
0.0109065
0.0106379
0.0103843
0.0101427
0.00991085
0.00968632
0.00946703
0.00925096
0.00903613
0.00882056
0.00860225
0.00837904
0.00814867
0.00790863
0.0076562
0.00738822
0.00710132
0.00679129
0.00645388
0.00608329
0.00567404
0.00521824
0.0047083
0.0041342
0.0034839
0.00274749
0.00190159
0.000945252
-0.000173112
-0.00142387
-0.00291369
-0.00455609
-0.00644944
-0.00861323
0.0764833
0.035405
0.0192342
0.0187255
0.0184194
0.0169848
0.0157484
0.0148916
0.0142157
0.0136275
0.0131079
0.0126478
0.0122368
0.0118657
0.0115273
0.0112159
0.0109268
0.0106563
0.0104009
0.0101579
0.00992471
0.00969903
0.00947872
0.00926175
0.00904613
0.00882987
0.00861096
0.00838725
0.00815647
0.00791611
0.00766348
0.0073954
0.00710855
0.00679873
0.00646171
0.00609178
0.00568343
0.00522896
0.0047207
0.00414898
0.0035016
0.00276911
0.00192829
0.000977747
-0.000131304
-0.00137522
-0.0028461
-0.00448467
-0.00635205
-0.00855052
0.0738512
0.0360078
0.0198579
0.0189369
0.0185829
0.0171236
0.0158439
0.0149627
0.0142755
0.013679
0.0131522
0.0126863
0.0122707
0.0118959
0.0115544
0.0112402
0.0109488
0.0106762
0.0104191
0.0101745
0.00993995
0.00971303
0.00949161
0.00927365
0.00905715
0.00884012
0.00862053
0.00839623
0.00816498
0.00792425
0.00767136
0.00740316
0.00711634
0.00680675
0.00647016
0.00610098
0.00569366
0.00524074
0.00473445
0.00416552
0.00352164
0.00279377
0.00195911
0.00101553
-8.22802e-05
-0.00131735
-0.00276685
-0.00439738
-0.00624391
-0.00846753
0.0712863
0.0365227
0.0204731
0.0191399
0.0187384
0.017263
0.0159415
0.0150349
0.0143362
0.0137316
0.0131977
0.012726
0.0123059
0.0119273
0.0115826
0.0112658
0.0109721
0.0106975
0.0104385
0.0101923
0.00995632
0.00972811
0.00950554
0.00928653
0.0090691
0.00885124
0.00863091
0.00840599
0.0081742
0.00793306
0.00767988
0.00741156
0.00712476
0.00681543
0.00647932
0.00611099
0.00570485
0.0052537
0.00474969
0.00418397
0.00354419
0.00282168
0.00199429
0.0010589
-2.57862e-05
-0.00124969
-0.00267582
-0.00429361
-0.00612279
-0.00836033
0.0687913
0.0369504
0.0210773
0.0193358
0.0188852
0.0174023
0.0160413
0.0151081
0.0143976
0.0137851
0.0132441
0.0127666
0.0123419
0.0119596
0.0116118
0.0112923
0.0109963
0.0107196
0.0104588
0.0102111
0.00997358
0.00974407
0.00952031
0.00930024
0.00908184
0.00886312
0.00864203
0.00841645
0.00818412
0.00794255
0.00768908
0.00742062
0.00713388
0.00682484
0.0064893
0.00612192
0.00571714
0.00526798
0.00476659
0.0042045
0.00356944
0.00285302
0.00203401
0.0011081
3.83117e-05
-0.00117191
-0.00257301
-0.00417317
-0.00598621
-0.00822528
0.0663688
0.0372917
0.021668
0.019526
0.0190228
0.0175406
0.016143
0.0151821
0.0144594
0.0138391
0.0132912
0.0128079
0.0123786
0.0119926
0.0116417
0.0113195
0.0110211
0.0107424
0.0104799
0.0102304
0.00999153
0.0097607
0.00953576
0.00931461
0.00909525
0.00887566
0.00865381
0.00842756
0.00819468
0.00795269
0.00769894
0.00743038
0.00714374
0.00683507
0.00650018
0.0061339
0.00573065
0.00528375
0.00478532
0.0042273
0.00359759
0.00288799
0.00207844
0.00116332
0.000110045
-0.00108391
-0.00245853
-0.00403625
-0.00583186
-0.00805931
0.0640211
0.0375481
0.022242
0.0197121
0.019151
0.017677
0.0162465
0.0152571
0.0145216
0.0138937
0.013339
0.0128498
0.0124159
0.0120261
0.0116721
0.0113472
0.0110465
0.0107658
0.0105014
0.0102504
0.01001
0.00977789
0.00955176
0.00932955
0.00910922
0.00888877
0.00866616
0.00843927
0.00820586
0.00796347
0.00770948
0.00744087
0.00715438
0.00684617
0.00651206
0.00614703
0.00574553
0.00530113
0.00480603
0.00425251
0.00362878
0.00292674
0.00212768
0.00122468
0.000189383
-0.000985719
-0.00233251
-0.00388321
-0.0056578
-0.00786017
0.0617503
0.0377213
0.0227961
0.0198956
0.0192694
0.0178104
0.0163516
0.0153331
0.0145841
0.0139487
0.0133874
0.0128924
0.0124537
0.0120602
0.011703
0.0113755
0.0110724
0.0107896
0.0105235
0.0102708
0.010029
0.00979556
0.00956826
0.00934498
0.0091237
0.0089024
0.00867906
0.00845154
0.00821763
0.00797488
0.0077207
0.0074521
0.00716586
0.00685821
0.00652501
0.0061614
0.00576188
0.00532026
0.00482888
0.0042803
0.00366318
0.00296945
0.00218184
0.00129227
0.000276276
-0.000877509
-0.00219508
-0.00371448
-0.00546265
-0.00762656
0.0595578
0.0378136
0.0233271
0.0200778
0.0193782
0.0179399
0.016458
0.01541
0.0146469
0.0140042
0.0134363
0.0129355
0.0124921
0.0120948
0.0117345
0.0114042
0.0110988
0.010814
0.010546
0.0102917
0.0100484
0.00981369
0.00958521
0.00936088
0.00913866
0.00891653
0.00869247
0.00846436
0.00822998
0.00798693
0.00773261
0.0074641
0.0071782
0.00687123
0.00653911
0.00617711
0.00577981
0.00534127
0.004854
0.00431083
0.00370092
0.00301624
0.00224101
0.00136618
0.000370706
-0.000759446
-0.00204627
-0.00353036
-0.00524545
-0.00735797
0.057445
0.0378275
0.0238321
0.0202597
0.0194776
0.0180645
0.0165653
0.015488
0.0147099
0.0140599
0.0134857
0.0129791
0.012531
0.0121299
0.0117664
0.0114334
0.0111257
0.0108387
0.0105689
0.010313
0.0100683
0.00983226
0.00960261
0.00937723
0.00915409
0.00893115
0.0087064
0.00847772
0.00824293
0.00799963
0.00774525
0.00747691
0.00719147
0.00688531
0.00655443
0.00619423
0.00579943
0.00536428
0.00488151
0.00434422
0.00374215
0.00306728
0.0023053
0.0014465
0.000472715
-0.000631642
-0.001886
-0.00333099
-0.00500567
-0.00705453
0.0554126
0.0377663
0.0243079
0.0204422
0.0195679
0.0181832
0.0166729
0.0155669
0.014773
0.0141158
0.0135356
0.0130233
0.0125704
0.0121655
0.0117988
0.0114631
0.011153
0.010864
0.0105923
0.0103348
0.0100886
0.00985127
0.00962046
0.00939405
0.00916999
0.00894627
0.00872085
0.00849166
0.00825649
0.008013
0.00775863
0.00749057
0.0072057
0.0069005
0.00657104
0.00621287
0.00582083
0.00538938
0.00491155
0.00438062
0.003787
0.00312271
0.00237485
0.00153334
0.000582417
-0.000494116
-0.00171407
-0.00311631
-0.00474302
-0.00671678
0.0534609
0.0376337
0.0247515
0.0206256
0.0196496
0.018295
0.0167805
0.0156468
0.0148363
0.0141719
0.0135859
0.013068
0.0126103
0.0122016
0.0118317
0.0114933
0.0111808
0.0108897
0.0106162
0.010357
0.0101094
0.00987074
0.00963877
0.00941134
0.00918638
0.0089619
0.00873585
0.00850618
0.0082707
0.00802708
0.00777281
0.00750512
0.00722094
0.00691686
0.00658901
0.00623309
0.0058441
0.0054167
0.00494422
0.00442018
0.00383562
0.0031827
0.00244983
0.00162686
0.000699994
-0.000346783
-0.00153019
-0.00288609
-0.00445736
-0.00634555
0.0515899
0.0374338
0.0251603
0.0208101
0.0197236
0.0183993
0.0168872
0.0157277
0.0148997
0.0142279
0.0136365
0.0131131
0.0126507
0.0122381
0.011865
0.0115239
0.011209
0.0109158
0.0106405
0.0103797
0.0101306
0.00989066
0.00965755
0.00942911
0.00920328
0.00897806
0.00875142
0.00852131
0.00828557
0.0080419
0.00778782
0.00752061
0.00723726
0.00693446
0.00660841
0.006255
0.00586935
0.00544636
0.00497967
0.00446304
0.00388818
0.00324744
0.00253044
0.00172723
0.000825677
-0.000189477
-0.001334
-0.00264002
-0.00414872
-0.00594187
0.049799
0.0371712
0.0255315
0.0209953
0.0197906
0.0184953
0.0169924
0.0158093
0.0149633
0.0142838
0.0136874
0.0131587
0.0126915
0.012275
0.0118988
0.011555
0.0112377
0.0109424
0.0106652
0.0104028
0.0101523
0.00991106
0.00967681
0.00944738
0.0092207
0.00899477
0.00876758
0.00853709
0.00830115
0.0080575
0.0078037
0.00753708
0.00725472
0.00695335
0.00662934
0.00627867
0.00589669
0.00547847
0.00501803
0.00450936
0.00394483
0.0033171
0.00261687
0.00183465
0.000959721
-2.19741e-05
-0.00112517
-0.00237775
-0.00381722
-0.00550695
0.0480874
0.0368508
0.0258629
0.0211805
0.0198516
0.0185825
0.0170952
0.0158915
0.0150269
0.0143396
0.0137383
0.0132046
0.0127327
0.0123124
0.011933
0.0115865
0.0112669
0.0109695
0.0106905
0.0104264
0.0101744
0.00993194
0.00969657
0.00946616
0.00923866
0.00901206
0.00878436
0.00855353
0.00831746
0.00807392
0.0078205
0.0075546
0.00727336
0.00697363
0.00665186
0.0063042
0.00592621
0.00551316
0.00505942
0.00455928
0.00400576
0.00339186
0.00270933
0.00194932
0.00110238
0.000155967
-0.000903362
-0.00209902
-0.00346316
-0.00504222
0.0464538
0.0364779
0.0261524
0.0213646
0.0199077
0.0186607
0.0171948
0.0159741
0.0150906
0.014395
0.0137893
0.0132508
0.0127743
0.0123502
0.0119677
0.0116184
0.0112964
0.010997
0.0107161
0.0104505
0.0101971
0.0099533
0.00971683
0.00948548
0.00925718
0.00902994
0.00880178
0.00857067
0.00833455
0.00809119
0.00783827
0.00757322
0.00729326
0.00699534
0.00667605
0.00633169
0.00595801
0.00555053
0.00510399
0.00461297
0.00407112
0.00347191
0.00280802
0.00207144
0.00125391
0.000344582
-0.00066833
-0.00180363
-0.00308701
-0.00454934
0.0448965
0.0360579
0.0263983
0.0215461
0.0199597
0.0187298
0.0172904
0.0160568
0.0151545
0.0144501
0.0138401
0.0132973
0.0128163
0.0123883
0.0120027
0.0116508
0.0113265
0.0110249
0.0107423
0.010475
0.0102202
0.00997517
0.00973761
0.00950534
0.00927628
0.00904844
0.00881986
0.00858855
0.00835244
0.00810937
0.00785704
0.00759298
0.00731447
0.00701858
0.00670201
0.00636123
0.00599222
0.00559073
0.00515186
0.00467057
0.00414108
0.00355742
0.00291315
0.0022012
0.00141451
0.000544073
-0.000419904
-0.00149158
-0.00268944
-0.00403019
0.0434137
0.0355964
0.0265994
0.0217232
0.0200087
0.0187897
0.017381
0.016139
0.0152184
0.0145048
0.0138907
0.0133438
0.0128585
0.0124268
0.012038
0.0116835
0.0113569
0.0110533
0.0107689
0.0105
0.0102438
0.00999753
0.00975892
0.00952575
0.00929597
0.00906758
0.00883864
0.00860718
0.00837117
0.00812849
0.00787689
0.00761395
0.00733707
0.0070434
0.00672981
0.00639291
0.00602893
0.00563385
0.00520318
0.00473222
0.0042158
0.00364854
0.00302488
0.00233877
0.00158436
0.000754593
-0.000158022
-0.00116301
-0.00227131
-0.00348685
0.0420031
0.0350991
0.0267549
0.0218937
0.0200556
0.0188409
0.0174658
0.0162204
0.0152824
0.0145591
0.013941
0.0133904
0.012901
0.0124655
0.0120737
0.0117166
0.0113877
0.0110822
0.0107959
0.0105255
0.0102678
0.0100204
0.00978077
0.00954674
0.00931627
0.00908738
0.00885815
0.00862661
0.00839078
0.00814859
0.00789784
0.00763619
0.00736112
0.00706989
0.00675953
0.00642683
0.00606825
0.00568004
0.00525807
0.00479806
0.00429543
0.00374544
0.00314338
0.00248429
0.0017636
0.000976227
0.000117264
-0.000818244
-0.00183372
-0.00292164
0.0406622
0.0345717
0.0268646
0.0220552
0.0201012
0.0188837
0.0175441
0.0163003
0.0153463
0.0146128
0.0139908
0.013437
0.0129437
0.0125045
0.0121097
0.01175
0.0114189
0.0111114
0.0108234
0.0105514
0.0102924
0.0100438
0.00980318
0.00956832
0.00933721
0.00910787
0.0088784
0.00864686
0.00841131
0.00816972
0.00791996
0.00765975
0.00738668
0.00709813
0.00679127
0.00646309
0.00611029
0.00572938
0.00531665
0.00486822
0.00438011
0.00384824
0.00326878
0.00263787
0.0019523
0.00120898
0.000405778
-0.000457809
-0.00137794
-0.00233703
0.0393882
0.0340198
0.0269287
0.0222051
0.020146
0.0189188
0.0176153
0.0163782
0.01541
0.014666
0.0140401
0.0134834
0.0129864
0.0125438
0.0121459
0.0117838
0.0114505
0.011141
0.0108513
0.0105778
0.0103175
0.0100677
0.00982614
0.0095905
0.00935879
0.00912907
0.00889942
0.00866797
0.0084328
0.00819193
0.00794329
0.00768469
0.00741381
0.00712818
0.00682511
0.00650178
0.00615514
0.00578201
0.00537905
0.00494283
0.00446996
0.00395706
0.00340117
0.00279957
0.00215047
0.00145277
0.000707213
-8.24094e-05
-0.000905454
-0.00173564
0.0381785
0.0334487
0.0269479
0.0223407
0.0201902
0.0189469
0.0176788
0.0164532
0.0154733
0.0147187
0.0140886
0.0135294
0.0130293
0.0125832
0.0121824
0.0118179
0.0114824
0.011171
0.0108796
0.0106046
0.010343
0.0100922
0.00984967
0.0096133
0.00938105
0.00915099
0.00892125
0.00868998
0.00845529
0.00821525
0.00796788
0.00771107
0.0074426
0.00716012
0.00686113
0.00654298
0.00620291
0.00583802
0.00544537
0.005022
0.00456508
0.00407199
0.00354063
0.00296944
0.00235806
0.00170742
0.00102113
0.000307064
-0.000417937
-0.00112021
0.0370299
0.0328634
0.0269238
0.0224598
0.0202336
0.0189689
0.0177343
0.0165248
0.0155359
0.0147708
0.0141364
0.013575
0.013072
0.0126227
0.0122191
0.0118521
0.0115147
0.0112014
0.0109083
0.0106319
0.0103691
0.0101172
0.00987378
0.00963672
0.00940399
0.00917367
0.00894391
0.0087129
0.0084788
0.00823974
0.0079938
0.00773895
0.0074731
0.00719403
0.0068994
0.0065868
0.00625369
0.00589751
0.00551571
0.00510581
0.00466557
0.00419309
0.00368718
0.00314743
0.00257495
0.00197264
0.00134694
0.000709542
8.27837e-05
-0.000493616
0.0359396
0.0322686
0.026858
0.0225601
0.0202759
0.0189854
0.0177817
0.0165921
0.0155976
0.0148222
0.0141833
0.01362
0.0131146
0.0126622
0.0122559
0.0118866
0.0115472
0.0112322
0.0109375
0.0106597
0.0103956
0.0101427
0.00989847
0.00966078
0.00942763
0.00919712
0.00896743
0.00873679
0.00850339
0.00826544
0.00802108
0.00776839
0.00750537
0.00722997
0.00694001
0.0066333
0.00630757
0.00596057
0.00559016
0.00519434
0.00477148
0.0043204
0.00384082
0.00333347
0.00280092
0.00224803
0.00168392
0.00112379
0.000594722
0.000141223
0.0349043
0.0316685
0.0267528
0.0226398
0.0203161
0.0189972
0.017821
0.0166545
0.0156577
0.0148729
0.0142292
0.0136643
0.0131568
0.0127018
0.0122928
0.0119213
0.0115799
0.0112632
0.010967
0.0106878
0.0104227
0.0101688
0.00992376
0.0096855
0.00945199
0.00922136
0.00899184
0.00876166
0.00852909
0.00829239
0.00804977
0.00779943
0.00753948
0.00726801
0.00698303
0.00668256
0.00636462
0.00602728
0.00566879
0.00528766
0.00488285
0.00445392
0.00400148
0.00352739
0.00303569
0.00253308
0.00203122
0.00154843
0.00111576
0.000781312
0.033921
0.0310666
0.0266112
0.0226974
0.0203531
0.0190049
0.0178523
0.0167113
0.015716
0.0149228
0.0142742
0.0137078
0.0131987
0.0127412
0.0123297
0.0119561
0.0116129
0.0112946
0.0109969
0.0107164
0.0104502
0.0101954
0.00994964
0.00971087
0.00947708
0.00924643
0.00901715
0.00878755
0.00855593
0.00832062
0.00807993
0.00783214
0.00757549
0.00730822
0.00702853
0.00673466
0.00642491
0.00609769
0.00575165
0.0053858
0.00499968
0.00459359
0.00416905
0.003729
0.00327888
0.00282717
0.00238783
0.00198192
0.00164365
0.00142363
0.0329867
0.0304664
0.0264359
0.0227316
0.0203857
0.0190091
0.0178761
0.0167621
0.0157718
0.0149717
0.0143181
0.0137502
0.01324
0.0127804
0.0123666
0.0119909
0.011646
0.0113262
0.0110271
0.0107454
0.0104781
0.0102225
0.00997611
0.00973691
0.00950292
0.00927232
0.0090434
0.00881448
0.00858395
0.0083502
0.00811161
0.00786656
0.00761345
0.00735065
0.00707657
0.00678966
0.0064885
0.00617186
0.00583878
0.00548876
0.00512194
0.00473935
0.00434335
0.00393798
0.00353001
0.00312955
0.00275262
0.00242259
0.00217608
0.00206515
0.0320985
0.0298707
0.0262304
0.0227417
0.0204122
0.0190101
0.0178927
0.0168063
0.0158245
0.0150193
0.014361
0.0137916
0.0132805
0.0128193
0.0124034
0.0120258
0.0116793
0.011358
0.0110576
0.0107748
0.0105065
0.0102501
0.0100032
0.00976362
0.00952951
0.00929907
0.0090706
0.0088425
0.00861319
0.00838114
0.00814483
0.00790275
0.00765341
0.00739536
0.00712719
0.0068476
0.00655544
0.00624981
0.00593019
0.00559653
0.00524958
0.00489105
0.00452417
0.00415398
0.00378851
0.00343936
0.00312434
0.00286866
0.00271065
0.00270285
0.0312535
0.0292817
0.0259981
0.0227273
0.0204312
0.019008
0.0179027
0.0168438
0.0158737
0.0150655
0.0144026
0.0138318
0.0133203
0.0128578
0.01244
0.0120607
0.0117126
0.01139
0.0110884
0.0108046
0.0105354
0.0102783
0.0100309
0.00979102
0.00955688
0.00932668
0.00909878
0.00887161
0.00864367
0.00841349
0.00817965
0.00794074
0.00769543
0.0074424
0.00718045
0.00690853
0.00662575
0.00633157
0.00602585
0.00570905
0.00538247
0.0050485
0.00471119
0.00437653
0.00405371
0.00375564
0.00350162
0.00331827
0.0032449
0.00333377
0.030449
0.0287014
0.0257422
0.0226885
0.020441
0.0190026
0.0179065
0.0168743
0.0159187
0.0151098
0.0144429
0.0138708
0.013359
0.0128957
0.0124764
0.0120954
0.0117459
0.0114221
0.0111195
0.0108347
0.0105647
0.010307
0.0100591
0.00981909
0.00958501
0.00935517
0.00912795
0.00890185
0.00867542
0.00844728
0.0082161
0.00798058
0.00773953
0.00749179
0.00723638
0.00697246
0.00669945
0.00641712
0.00612575
0.00582624
0.00552047
0.00521148
0.00490406
0.00460512
0.00432485
0.00407732
0.00388299
0.00376945
0.00377638
0.003955
0.0296823
0.0281314
0.0254662
0.0226258
0.0204404
0.0189938
0.0179046
0.0168978
0.0159591
0.0151519
0.0144819
0.0139084
0.0133967
0.0129329
0.0125124
0.01213
0.0117792
0.0114543
0.0111507
0.0108651
0.0105944
0.0103361
0.010088
0.00984784
0.00961393
0.00938455
0.00915814
0.00893324
0.00870847
0.00848254
0.0082542
0.0080223
0.00778574
0.00754358
0.00729501
0.00703942
0.00677653
0.00650643
0.00622979
0.00594797
0.00566338
0.00537967
0.00510235
0.00483912
0.00460108
0.00440322
0.00426688
0.00422019
0.00430262
0.00456373
0.0289511
0.0275728
0.0251732
0.02254
0.0204279
0.0189809
0.0178974
0.0169145
0.0159943
0.0151914
0.0145192
0.0139445
0.0134331
0.0129693
0.0125479
0.0121643
0.0118124
0.0114865
0.0111821
0.0108957
0.0106244
0.0103658
0.0101174
0.00987727
0.00964363
0.00941483
0.00918935
0.00896579
0.00874284
0.00851929
0.00829399
0.00806591
0.0078341
0.00759778
0.00735633
0.00710939
0.00685695
0.00659943
0.00633787
0.00607408
0.00581096
0.00555273
0.00530555
0.00507784
0.00488144
0.00473208
0.00465165
0.00466843
0.00482117
0.00515725
0.0282532
0.0270264
0.0248663
0.0224322
0.0204026
0.0189633
0.0178854
0.0169245
0.0160241
0.0152279
0.0145548
0.0139791
0.0134682
0.0130048
0.0125829
0.0121983
0.0118455
0.0115188
0.0112136
0.0109266
0.0106549
0.0103959
0.0101474
0.00990736
0.00967412
0.00944601
0.00922159
0.00899951
0.00877854
0.00855755
0.00833549
0.00811144
0.00788461
0.00765438
0.00742033
0.00718235
0.00694067
0.00669604
0.00644986
0.00620436
0.0059629
0.00573023
0.00551309
0.0053205
0.00516491
0.00506257
0.00503562
0.00511212
0.00532964
0.00573301
0.0275862
0.026493
0.0245483
0.0223038
0.0203637
0.0189403
0.0178686
0.016928
0.0160482
0.0152609
0.0145884
0.0140121
0.0135018
0.0130391
0.0126171
0.0122319
0.0118783
0.0115509
0.0112452
0.0109577
0.0106856
0.0104264
0.0101779
0.00993812
0.00970538
0.00947809
0.00925487
0.00903442
0.00881559
0.00859732
0.00837869
0.0081589
0.00793728
0.00771339
0.00748701
0.00725824
0.00702761
0.00679614
0.00656558
0.00633855
0.00611885
0.00591171
0.00572433
0.00556627
0.00545039
0.00539328
0.00541704
0.00554919
0.00582571
0.00628859
0.0269484
0.0259729
0.0242216
0.0221563
0.0203108
0.0189111
0.0178471
0.0169253
0.0160663
0.01529
0.0146196
0.0140433
0.0135338
0.0130722
0.0126505
0.0122649
0.0119108
0.0115829
0.0112768
0.010989
0.0107166
0.0104573
0.0102089
0.00996952
0.00973741
0.00951108
0.00928918
0.00907051
0.00885398
0.00863862
0.00842361
0.00820827
0.00799209
0.00777477
0.00755631
0.00733701
0.00711765
0.00689956
0.00668481
0.00647636
0.00627841
0.0060966
0.00593856
0.00581421
0.00573672
0.00572276
0.00579417
0.0059776
0.00630716
0.00682176
0.0263378
0.0254662
0.0238886
0.0219916
0.0202436
0.0188748
0.0178209
0.0169166
0.0160784
0.0153148
0.0146483
0.0140726
0.0135642
0.0131039
0.012683
0.0122973
0.0119429
0.0116147
0.0113083
0.0110203
0.0107479
0.0104886
0.0102405
0.0100015
0.00977019
0.00954495
0.00932453
0.00910779
0.00889372
0.00868144
0.00847024
0.00825955
0.00804901
0.00783849
0.00762816
0.00741855
0.00721067
0.00700613
0.00680729
0.00661744
0.00644112
0.00628432
0.006155
0.00606334
0.00602265
0.00604952
0.00616524
0.00639536
0.00677189
0.00733048
0.0257527
0.0249731
0.0235512
0.0218113
0.0201623
0.0188309
0.0177899
0.0169023
0.0160846
0.015335
0.014674
0.0140999
0.0135928
0.0131341
0.0127143
0.012329
0.0119745
0.0116461
0.0113397
0.0110517
0.0107793
0.0105203
0.0102725
0.0100342
0.00980371
0.0095797
0.0093609
0.00914624
0.00893479
0.00872577
0.00851855
0.00831271
0.00810801
0.00790449
0.00770248
0.00750274
0.0073065
0.00711561
0.00693272
0.0067614
0.00660647
0.00647421
0.00637282
0.00631263
0.00630694
0.00637205
0.00652852
0.00680057
0.00721791
0.00781291
0.0251915
0.0244934
0.0232112
0.0216173
0.0200671
0.0187786
0.0177537
0.0168825
0.0160847
0.0153504
0.0146965
0.0141249
0.0136194
0.0131626
0.0127443
0.0123598
0.0120055
0.0116773
0.0113709
0.0110831
0.0108109
0.0105522
0.0103049
0.0100674
0.00983794
0.0096153
0.00939827
0.00918584
0.00897717
0.00877157
0.00856852
0.00836771
0.00816903
0.00797268
0.00777917
0.00758944
0.00740494
0.00722775
0.00706075
0.00690778
0.00677388
0.00666556
0.00659113
0.006561
0.00658827
0.00668882
0.0068823
0.00719139
0.00764343
0.00826743
0.0246529
0.0240271
0.0228702
0.0214114
0.0199585
0.0187174
0.017712
0.0168574
0.0160791
0.0153607
0.0147155
0.0141474
0.0136441
0.0131895
0.012773
0.0123896
0.0120359
0.0117079
0.0114019
0.0111144
0.0108426
0.0105844
0.0103378
0.0101011
0.00987286
0.00965172
0.00943661
0.00922657
0.00902084
0.00881882
0.0086201
0.00842448
0.00823198
0.00804295
0.00785808
0.00767846
0.00750575
0.00734224
0.00719101
0.0070561
0.00694276
0.0068576
0.00680901
0.00680732
0.00686534
0.00699835
0.00722492
0.00756612
0.00804678
0.00869267
0.0241355
0.0235738
0.0225293
0.0211951
0.0198373
0.0186472
0.0176646
0.016827
0.0160676
0.0153658
0.0147305
0.0141671
0.0136666
0.0132145
0.0128002
0.0124183
0.0120654
0.0117381
0.0114325
0.0111455
0.0108743
0.0106168
0.010371
0.0101354
0.00990842
0.00968894
0.00947589
0.00926839
0.00906575
0.00886747
0.00867323
0.00848295
0.00829678
0.0081152
0.00793905
0.0077696
0.00760868
0.00745874
0.00732306
0.00720583
0.00711242
0.00704953
0.00702549
0.00705046
0.00713683
0.00729916
0.00755482
0.00792317
0.00842652
0.00908747
0.023638
0.0231333
0.0221897
0.0209701
0.0197043
0.0185676
0.017611
0.0167914
0.0160506
0.0153657
0.0147415
0.014184
0.0136868
0.0132375
0.0128258
0.0124457
0.0120941
0.0117676
0.0114627
0.0111764
0.010906
0.0106493
0.0104045
0.01017
0.00994458
0.00972691
0.00951607
0.00931125
0.00911186
0.00891746
0.00872784
0.00854302
0.0083633
0.00818926
0.00802189
0.00786262
0.00771341
0.00757688
0.00745644
0.0073564
0.00728219
0.0072405
0.00723957
0.00728926
0.00740144
0.00758983
0.00787052
0.00826109
0.00878137
0.00945093
0.0231592
0.0227054
0.0218524
0.020738
0.0195602
0.0184786
0.017551
0.0167504
0.0160281
0.0153602
0.0147482
0.0141976
0.0137046
0.0132585
0.0128495
0.0124718
0.0121217
0.0117963
0.0114924
0.0112071
0.0109376
0.0106819
0.0104382
0.0102051
0.00998128
0.00976558
0.00955709
0.0093551
0.00915908
0.0089687
0.00878383
0.0086046
0.0084314
0.00826496
0.00810639
0.00795724
0.00781961
0.00769624
0.00759064
0.00750718
0.00745131
0.00742965
0.00745024
0.00752257
0.00765788
0.007869
0.00817064
0.0085786
0.00911028
0.00978237
0.0226982
0.0222897
0.021518
0.0205001
0.0194063
0.0183806
0.0174844
0.0167041
0.0160003
0.0153495
0.0147504
0.0142078
0.0137196
0.0132772
0.0128715
0.0124963
0.0121481
0.0118242
0.0115215
0.0112373
0.0109689
0.0107144
0.0104721
0.0102405
0.0100185
0.00980488
0.00959889
0.00939987
0.00920736
0.00902111
0.0088411
0.00866753
0.00850093
0.00834211
0.0081923
0.00805317
0.00792692
0.00781638
0.00772511
0.00765753
0.00761902
0.00761609
0.00765648
0.00774925
0.00790495
0.0081354
0.00845394
0.00887458
0.00941239
0.0100814
0.022254
0.0218858
0.0211873
0.0202576
0.0192433
0.0182736
0.0174109
0.0166523
0.0159671
0.0153335
0.014748
0.0142144
0.0137319
0.0132936
0.0128914
0.0125192
0.0121733
0.0118511
0.0115499
0.011267
0.011
0.0107469
0.0105061
0.0102762
0.0100561
0.00984474
0.00964139
0.00944547
0.00925659
0.00907458
0.00889951
0.00873168
0.00857169
0.00842048
0.00827935
0.00815007
0.00803493
0.0079368
0.00785929
0.00780677
0.00778455
0.00779892
0.00785729
0.00796821
0.00814146
0.00838785
0.00871931
0.0091481
0.00968708
0.0103478
0.0218255
0.0214934
0.0208608
0.0200116
0.0190724
0.0181581
0.0173306
0.016595
0.0159287
0.0153122
0.0147409
0.0142171
0.0137411
0.0133076
0.0129092
0.0125403
0.0121971
0.011877
0.0115775
0.0112962
0.0110308
0.0107793
0.0105401
0.0103121
0.010094
0.00988509
0.00968451
0.00949181
0.00930666
0.00912899
0.00895892
0.00879686
0.00864349
0.00849982
0.00836724
0.00824759
0.00814321
0.00805701
0.00799257
0.00795421
0.00794708
0.00797723
0.00805166
0.00817837
0.00836632
0.00862528
0.00896577
0.0093984
0.00993393
0.0105816
0.0214121
0.0211123
0.0205388
0.0197633
0.0188945
0.0180347
0.0172434
0.016532
0.015885
0.0152859
0.014729
0.0142159
0.0137472
0.0133189
0.0129248
0.0125595
0.0122193
0.0119016
0.0116042
0.0113247
0.011061
0.0108113
0.0105741
0.010348
0.0101322
0.00992582
0.00972815
0.00953877
0.00935746
0.00918419
0.00901917
0.00886289
0.00871608
0.00857985
0.00845563
0.00834533
0.0082513
0.00817646
0.00812433
0.00809913
0.00810582
0.00815013
0.00823864
0.00837873
0.00857853
0.00884674
0.00919254
0.00962492
0.0101527
0.0107832
0.0210129
0.0207419
0.0202218
0.0195135
0.0187106
0.0179037
0.0171493
0.0164633
0.0158362
0.0152545
0.0147124
0.0142106
0.0137498
0.0133274
0.012938
0.0125767
0.0122399
0.011925
0.0116299
0.0113525
0.0110908
0.010843
0.0106078
0.010384
0.0101706
0.00996684
0.00977219
0.00958624
0.00940883
0.00924002
0.00908007
0.00892953
0.00878922
0.00866027
0.00854419
0.00844288
0.00835872
0.00829459
0.00825394
0.00824082
0.00825996
0.00831676
0.00841731
0.00856835
0.00877717
0.00905142
0.00939897
0.00982731
0.0103435
0.0109531
0.0206272
0.0203821
0.01991
0.0192629
0.0185216
0.0177659
0.0170488
0.016389
0.0157823
0.0152181
0.014691
0.014201
0.013749
0.013333
0.0129488
0.0125918
0.0122586
0.0119468
0.0116544
0.0113793
0.0111198
0.0108743
0.0106413
0.0104198
0.010209
0.010008
0.0098165
0.00963407
0.00946063
0.0092963
0.00914141
0.00899656
0.00886262
0.00874076
0.00863252