/*--------------------------------*- C++ -*----------------------------------*\
  =========                 |
  \\      /  F ield         | OpenFOAM: The Open Source CFD Toolbox
   \\    /   O peration     | Website:  https://openfoam.org
    \\  /    A nd           | Version:  7
     \\/     M anipulation  |
\*---------------------------------------------------------------------------*/
FoamFile
{
    version     2.0;
    format      ascii;
    class       surfaceScalarField;
    location    "0.16";
    object      phi_0;
}
// * * * * * * * * * * * * * * * * * * * * * * * * * * * * * * * * * * * * * //

dimensions      [0 3 -1 0 0 0 0];

internalField   nonuniform List<scalar> 
139350
(
6.4592e-08
9.20395e-08
3.19494e-08
3.26426e-08
2.30566e-08
8.89281e-09
1.95602e-08
3.49639e-09
1.76061e-08
1.9541e-09
1.6176e-08
1.4301e-09
1.50403e-08
1.13566e-09
1.41237e-08
9.16669e-10
1.33684e-08
7.55237e-10
1.27315e-08
6.36957e-10
1.21839e-08
5.47537e-10
1.17064e-08
4.77508e-10
1.12852e-08
4.2126e-10
1.09099e-08
3.75263e-10
1.05728e-08
3.37109e-10
1.02677e-08
3.05071e-10
9.98985e-09
2.77881e-10
9.73526e-09
2.54588e-10
9.50079e-09
2.34469e-10
9.28383e-09
2.16965e-10
9.08219e-09
2.01636e-10
8.89406e-09
1.88131e-10
8.71789e-09
1.76168e-10
8.55237e-09
1.65518e-10
8.39639e-09
1.55988e-10
8.24897e-09
1.4742e-10
8.10929e-09
1.39676e-10
7.97665e-09
1.32645e-10
7.85043e-09
1.26215e-10
7.73012e-09
1.20309e-10
7.61531e-09
1.14816e-10
7.50561e-09
1.09699e-10
7.4008e-09
1.04806e-10
7.30063e-09
1.00175e-10
7.2051e-09
9.55302e-11
7.11402e-09
9.10752e-11
7.02777e-09
8.62547e-11
6.94616e-09
8.16048e-11
6.8701e-09
7.60598e-11
6.79943e-09
7.067e-11
6.73569e-09
6.37432e-11
6.67909e-09
5.65986e-11
6.63131e-09
4.77766e-11
6.5947e-09
3.66134e-11
6.56811e-09
2.65916e-11
6.56252e-09
5.5848e-12
6.56033e-09
2.18947e-12
6.62053e-09
-6.01951e-11
6.49846e-09
1.22065e-10
-3.16665e-09
9.66512e-09
1.26025e-07
1.27458e-07
9.12598e-08
6.74077e-08
7.19341e-08
2.82186e-08
6.12009e-08
1.42295e-08
5.47476e-08
8.40742e-09
5.0246e-08
5.93173e-09
4.67534e-08
4.62817e-09
4.39288e-08
3.7413e-09
4.15929e-08
3.09113e-09
3.9621e-08
2.60884e-09
3.7926e-08
2.2426e-09
3.64475e-08
1.95594e-09
3.51429e-08
1.72589e-09
3.39804e-08
1.53782e-09
3.29357e-08
1.3818e-09
3.199e-08
1.25078e-09
3.11283e-08
1.13958e-09
3.03385e-08
1.04433e-09
2.96109e-08
9.62063e-10
2.89374e-08
8.90507e-10
2.83111e-08
8.27866e-10
2.77266e-08
7.72715e-10
2.71788e-08
7.23905e-10
2.66638e-08
6.80501e-10
2.61781e-08
6.41731e-10
2.57186e-08
6.06957e-10
2.52826e-08
5.75633e-10
2.4868e-08
5.47304e-10
2.44726e-08
5.21559e-10
2.40949e-08
4.9806e-10
2.37332e-08
4.7645e-10
2.33864e-08
4.56504e-10
2.30534e-08
4.37806e-10
2.27333e-08
4.20301e-10
2.24255e-08
4.03306e-10
2.21294e-08
3.87161e-10
2.18452e-08
3.70458e-10
2.15723e-08
3.54493e-10
2.13122e-08
3.36181e-10
2.1064e-08
3.18933e-10
2.08314e-08
2.96281e-10
2.06124e-08
2.75646e-10
2.04153e-08
2.44863e-10
2.02348e-08
2.17063e-10
2.00871e-08
1.74344e-10
1.99634e-08
1.29254e-10
1.98798e-08
8.58357e-11
1.98806e-08
-6.10421e-11
1.97444e-08
2.58242e-10
-3.81672e-09
2.03945e-08
1.58807e-07
1.35055e-07
1.36491e-07
8.97233e-08
1.17484e-07
4.72259e-08
1.03297e-07
2.84161e-08
9.32795e-08
1.84251e-08
8.59652e-08
1.3246e-08
8.02458e-08
1.03476e-08
7.55802e-08
8.40687e-09
7.16866e-08
6.98477e-09
6.8378e-08
5.91739e-09
6.55213e-08
5.09936e-09
6.30213e-08
4.45588e-09
6.08094e-08
3.93784e-09
5.8834e-08
3.51322e-09
5.70556e-08
3.16018e-09
5.54433e-08
2.86312e-09
5.39723e-08
2.61058e-09
5.26226e-08
2.39395e-09
5.13781e-08
2.20665e-09
5.0225e-08
2.04357e-09
4.91522e-08
1.90071e-09
4.815e-08
1.77485e-09
4.72105e-08
1.66342e-09
4.63267e-08
1.56432e-09
4.54926e-08
1.47582e-09
4.47031e-08
1.39648e-09
4.39536e-08
1.32509e-09
4.32403e-08
1.26062e-09
4.25597e-08
1.20219e-09
4.19087e-08
1.14901e-09
4.12848e-08
1.10038e-09
4.06856e-08
1.05571e-09
4.01091e-08
1.01428e-09
3.95536e-08
9.75758e-10
3.90179e-08
9.39064e-10
3.85006e-08
9.04483e-10
3.80013e-08
8.69739e-10
3.75189e-08
8.3683e-10
3.70549e-08
8.00235e-10
3.66073e-08
7.66534e-10
3.61813e-08
7.22214e-10
3.5772e-08
6.85001e-10
3.53934e-08
6.23504e-10
3.50312e-08
5.79232e-10
3.4718e-08
4.87496e-10
3.44227e-08
4.24612e-10
3.41969e-08
3.11641e-10
3.40419e-08
9.39473e-11
3.38922e-08
4.07938e-10
-3.44014e-09
3.35156e-08
1.75664e-07
1.30907e-07
1.65592e-07
9.97946e-08
1.52716e-07
6.01025e-08
1.40107e-07
4.10246e-08
1.29405e-07
2.91271e-08
1.20747e-07
2.19043e-08
1.13618e-07
1.74767e-08
1.07619e-07
1.44062e-08
1.02498e-07
1.21051e-08
9.80752e-08
1.03407e-08
9.42092e-08
8.96535e-09
9.07947e-08
7.8704e-09
8.77514e-08
6.98109e-09
8.50176e-08
6.24706e-09
8.25445e-08
5.63325e-09
8.02934e-08
5.11429e-09
7.82326e-08
4.67132e-09
7.63365e-08
4.29002e-09
7.45838e-08
3.95938e-09
7.29566e-08
3.67079e-09
7.14399e-08
3.4174e-09
7.0021e-08
3.19377e-09
6.86889e-08
2.99547e-09
6.74344e-08
2.81887e-09
6.62492e-08
2.661e-09
6.51263e-08
2.51936e-09
6.40596e-08
2.39187e-09
6.30434e-08
2.27673e-09
6.20732e-08
2.17245e-09
6.11445e-08
2.07766e-09
6.02537e-08
1.99118e-09
5.93975e-08
1.91196e-09
5.85729e-08
1.8389e-09
5.77773e-08
1.7713e-09
5.70088e-08
1.70764e-09
5.62652e-08
1.64803e-09
5.55456e-08
1.58933e-09
5.48483e-08
1.53416e-09
5.41741e-08
1.47439e-09
5.35205e-08
1.42015e-09
5.2893e-08
1.34976e-09
5.22847e-08
1.29324e-09
5.1712e-08
1.19619e-09
5.1157e-08
1.13432e-09
5.06571e-08
9.87356e-10
5.01759e-08
9.0582e-10
4.97717e-08
7.15825e-10
4.94332e-08
4.32433e-10
4.9176e-08
6.65177e-10
-2.7307e-09
4.84665e-08
1.8456e-07
1.23132e-07
1.8232e-07
1.02035e-07
1.76097e-07
6.6325e-08
1.67746e-07
4.93756e-08
1.59111e-07
3.77624e-08
1.51185e-07
2.98295e-08
1.44094e-07
2.45685e-08
1.37772e-07
2.07273e-08
1.32149e-07
1.77289e-08
1.27138e-07
1.53509e-08
1.22656e-07
1.34474e-08
1.18626e-07
1.1901e-08
1.14982e-07
1.06251e-08
1.1167e-07
9.55865e-09
1.08646e-07
8.65755e-09
1.05871e-07
7.88908e-09
1.03314e-07
7.22832e-09
1.00948e-07
6.65603e-09
9.87503e-08
6.15712e-09
9.67014e-08
5.71964e-09
9.47849e-08
5.334e-09
9.29862e-08
4.99244e-09
9.1293e-08
4.68864e-09
8.96945e-08
4.41735e-09
8.81813e-08
4.17426e-09
8.67449e-08
3.95572e-09
8.53781e-08
3.75869e-09
8.40743e-08
3.58052e-09
8.28277e-08
3.41901e-09
8.16333e-08
3.27213e-09
8.04862e-08
3.1382e-09
7.93826e-08
3.0156e-09
7.83186e-08
2.90286e-09
7.72912e-08
2.79877e-09
7.62974e-08
2.70143e-09
7.53348e-08
2.61065e-09
7.44016e-08
2.52247e-09
7.34958e-08
2.44002e-09
7.26175e-08
2.35264e-09
7.17639e-08
2.27377e-09
7.09398e-08
2.17388e-09
7.01384e-08
2.0946e-09
6.93747e-08
1.95993e-09
6.86326e-08
1.87635e-09
6.79446e-08
1.67541e-09
6.72841e-08
1.56629e-09
6.66929e-08
1.30709e-09
6.61764e-08
9.48846e-10
6.57514e-08
1.09025e-09
-1.86534e-09
6.4886e-08
1.90388e-07
1.14961e-07
1.91851e-07
1.00573e-07
1.9024e-07
6.79358e-08
1.86143e-07
5.34723e-08
1.80694e-07
4.32114e-08
1.74925e-07
3.55987e-08
1.6921e-07
3.02838e-08
1.63704e-07
2.62333e-08
1.58504e-07
2.29287e-08
1.53653e-07
2.0202e-08
1.49153e-07
1.79467e-08
1.4499e-07
1.60649e-08
1.41137e-07
1.44778e-08
1.37569e-07
1.31269e-08
1.34258e-07
1.19678e-08
1.31181e-07
1.09665e-08
1.28313e-07
1.0096e-08
1.25634e-07
9.33491e-09
1.23126e-07
8.66597e-09
1.2077e-07
8.07521e-09
1.18553e-07
7.55121e-09
1.16461e-07
7.08456e-09
1.14482e-07
6.66747e-09
1.12606e-07
6.29342e-09
1.10823e-07
5.95696e-09
1.09125e-07
5.65345e-09
1.07505e-07
5.37898e-09
1.05955e-07
5.13014e-09
1.0447e-07
4.90406e-09
1.03044e-07
4.69809e-09
1.01673e-07
4.51006e-09
1.0035e-07
4.33782e-09
9.90737e-08
4.17949e-09
9.78391e-08
4.03338e-09
9.66433e-08
3.89723e-09
9.54835e-08
3.77047e-09
9.43575e-08
3.64846e-09
9.3263e-08
3.53457e-09
9.21996e-08
3.41605e-09
9.11645e-08
3.30885e-09
9.01612e-08
3.17712e-09
8.91847e-08
3.07114e-09
8.82458e-08
2.89879e-09
8.7335e-08
2.78721e-09
8.64728e-08
2.5376e-09
8.56511e-08
2.388e-09
8.48856e-08
2.07254e-09
8.42064e-08
1.62808e-09
8.36152e-08
1.68139e-09
-8.63745e-10
8.26136e-08
1.9554e-07
1.07235e-07
1.98246e-07
9.78666e-08
1.98966e-07
6.72165e-08
1.97781e-07
5.46572e-08
1.95141e-07
4.58514e-08
1.91787e-07
3.89525e-08
1.88039e-07
3.4032e-08
1.84068e-07
3.02041e-08
1.80024e-07
2.69727e-08
1.76018e-07
2.42084e-08
1.72117e-07
2.18471e-08
1.68362e-07
1.98204e-08
1.64771e-07
1.80681e-08
1.61355e-07
1.65438e-08
1.58111e-07
1.52112e-08
1.55037e-07
1.40409e-08
1.52124e-07
1.30089e-08
1.49364e-07
1.20952e-08
1.46746e-07
1.12834e-08
1.44262e-07
1.05594e-08
1.41901e-07
9.91186e-09
1.39655e-07
9.33078e-09
1.37515e-07
8.80791e-09
1.35472e-07
8.33617e-09
1.33519e-07
7.90954e-09
1.3165e-07
7.5228e-09
1.29857e-07
7.17154e-09
1.28136e-07
6.85181e-09
1.26479e-07
6.56031e-09
1.24884e-07
6.29392e-09
1.23344e-07
6.05011e-09
1.21855e-07
5.82627e-09
1.20414e-07
5.62027e-09
1.19018e-07
5.42994e-09
1.17662e-07
5.25277e-09
1.16345e-07
5.08776e-09
1.15064e-07
4.9298e-09
1.13816e-07
4.78221e-09
1.12601e-07
4.6308e-09
1.11417e-07
4.49286e-09
1.10266e-07
4.32844e-09
1.09145e-07
4.19242e-09
1.0806e-07
3.98383e-09
1.07009e-07
3.83811e-09
1.06e-07
3.54606e-09
1.05044e-07
3.34461e-09
1.04133e-07
2.98309e-09
1.03312e-07
2.44927e-09
1.02584e-07
2.40958e-09
2.43557e-10
1.01476e-07
2.00848e-07
9.9972e-08
2.03775e-07
9.49396e-08
2.05324e-07
6.56669e-08
2.05637e-07
5.43447e-08
2.04805e-07
4.66836e-08
2.03314e-07
4.04428e-08
2.01354e-07
3.59927e-08
1.99007e-07
3.25511e-08
1.96379e-07
2.96004e-08
1.93573e-07
2.70141e-08
1.90671e-07
2.47497e-08
1.87732e-07
2.27593e-08
1.84801e-07
2.09988e-08
1.8191e-07
1.94344e-08
1.79082e-07
1.80397e-08
1.7633e-07
1.6793e-08
1.73663e-07
1.5676e-08
1.71085e-07
1.46728e-08
1.68598e-07
1.37699e-08
1.66202e-07
1.29554e-08
1.63895e-07
1.22193e-08
1.61673e-07
1.15526e-08
1.59534e-07
1.09476e-08
1.57472e-07
1.03977e-08
1.55485e-07
9.89692e-09
1.53567e-07
9.44016e-09
1.51716e-07
9.02294e-09
1.49927e-07
8.64122e-09
1.48195e-07
8.29156e-09
1.46519e-07
7.97066e-09
1.44893e-07
7.67585e-09
1.43315e-07
7.40427e-09
1.41781e-07
7.15366e-09
1.4029e-07
6.92152e-09
1.38837e-07
6.70523e-09
1.37422e-07
6.5034e-09
1.36041e-07
6.31065e-09
1.34693e-07
6.13005e-09
1.33377e-07
5.9466e-09
1.32092e-07
5.77784e-09
1.30839e-07
5.58192e-09
1.29617e-07
5.41449e-09
1.28428e-07
5.1724e-09
1.27278e-07
4.98865e-09
1.26164e-07
4.65996e-09
1.25108e-07
4.39997e-09
1.24093e-07
3.99817e-09
1.23162e-07
3.3805e-09
1.22333e-07
3.23877e-09
1.4049e-09
1.21172e-07
2.06447e-07
9.30574e-08
2.09338e-07
9.20479e-08
2.11034e-07
6.39711e-08
2.11925e-07
5.34534e-08
2.1199e-07
4.6619e-08
2.11597e-07
4.08359e-08
2.10858e-07
3.6732e-08
2.09774e-07
3.36347e-08
2.08383e-07
3.09911e-08
2.06744e-07
2.86537e-08
2.04911e-07
2.65824e-08
2.02935e-07
2.47357e-08
2.00857e-07
2.30764e-08
1.98714e-07
2.15772e-08
1.96535e-07
2.02184e-08
1.94344e-07
1.89843e-08
1.92158e-07
1.78618e-08
1.89992e-07
1.68393e-08
1.87855e-07
1.59069e-08
1.85755e-07
1.50557e-08
1.83696e-07
1.42778e-08
1.81683e-07
1.35661e-08
1.79716e-07
1.29143e-08
1.77797e-07
1.23167e-08
1.75925e-07
1.17684e-08
1.74101e-07
1.12646e-08
1.72322e-07
1.08014e-08
1.70589e-07
1.0375e-08
1.68898e-07
9.98232e-09
1.67249e-07
9.62003e-09
1.65639e-07
9.28563e-09
1.64067e-07
8.97623e-09
1.62531e-07
8.68963e-09
1.61029e-07
8.4232e-09
1.5956e-07
8.17431e-09
1.58122e-07
7.94135e-09
1.56714e-07
7.71881e-09
1.55335e-07
7.50944e-09
1.53983e-07
7.29794e-09
1.5266e-07
7.10132e-09
1.51364e-07
6.87755e-09
1.50098e-07
6.68018e-09
1.48862e-07
6.40884e-09
1.47664e-07
6.18653e-09
1.46497e-07
5.82678e-09
1.4539e-07
5.50683e-09
1.44321e-07
5.06801e-09
1.43324e-07
4.37742e-09
1.42436e-07
4.12626e-09
2.56423e-09
1.41277e-07
2.12289e-07
8.64312e-08
2.15151e-07
8.91854e-08
2.16788e-07
6.23339e-08
2.17838e-07
5.2404e-08
2.18249e-07
4.62076e-08
2.1836e-07
4.07253e-08
2.18276e-07
3.68157e-08
2.17966e-07
3.39445e-08
2.17422e-07
3.1535e-08
2.16663e-07
2.94135e-08
2.15711e-07
2.7534e-08
2.14593e-07
2.58541e-08
2.13333e-07
2.43356e-08
2.11959e-07
2.29518e-08
2.10492e-07
2.16848e-08
2.08956e-07
2.05213e-08
2.07366e-07
1.94509e-08
2.05741e-07
1.84648e-08
2.04092e-07
1.75555e-08
2.02432e-07
1.67165e-08
2.00768e-07
1.59418e-08
1.99107e-07
1.52263e-08
1.97457e-07
1.45652e-08
1.95819e-07
1.39539e-08
1.94199e-07
1.33886e-08
1.92598e-07
1.28654e-08
1.91018e-07
1.23812e-08
1.89461e-07
1.19326e-08
1.87926e-07
1.15169e-08
1.86415e-07
1.11313e-08
1.84927e-07
1.07735e-08
1.83463e-07
1.04409e-08
1.82021e-07
1.01314e-08
1.80602e-07
9.84236e-09
1.79205e-07
9.57138e-09
1.77829e-07
9.31671e-09
1.76475e-07
9.07287e-09
1.75142e-07
8.84232e-09
1.7383e-07
8.60975e-09
1.72541e-07
8.39123e-09
1.71272e-07
8.14569e-09
1.7003e-07
7.92278e-09
1.6881e-07
7.62815e-09
1.67627e-07
7.37009e-09
1.66468e-07
6.98537e-09
1.65366e-07
6.60874e-09
1.64299e-07
6.13548e-09
1.6329e-07
5.38592e-09
1.62395e-07
5.02181e-09
3.66612e-09
1.61293e-07
2.1833e-07
8.00821e-08
2.21205e-07
8.63103e-08
2.22761e-07
6.07777e-08
2.23837e-07
5.13279e-08
2.24358e-07
4.56867e-08
2.24647e-07
4.04366e-08
2.2484e-07
3.66224e-08
2.2491e-07
3.38747e-08
2.24834e-07
3.16111e-08
2.24611e-07
2.96358e-08
2.24247e-07
2.78982e-08
2.23747e-07
2.6354e-08
2.2312e-07
2.49623e-08
2.22378e-07
2.36939e-08
2.21534e-07
2.25295e-08
2.20599e-07
2.14557e-08
2.19588e-07
2.04621e-08
2.18512e-07
1.95408e-08
2.17382e-07
1.86852e-08
2.16209e-07
1.78898e-08
2.15001e-07
1.715e-08
2.13766e-07
1.64615e-08
2.1251e-07
1.58208e-08
2.1124e-07
1.52242e-08
2.0996e-07
1.46688e-08
2.08673e-07
1.41516e-08
2.07385e-07
1.36699e-08
2.06096e-07
1.32211e-08
2.0481e-07
1.2803e-08
2.03528e-07
1.24131e-08
2.02252e-07
1.20495e-08
2.00983e-07
1.17098e-08
1.99722e-07
1.13922e-08
1.9847e-07
1.10943e-08
1.97228e-07
1.08138e-08
1.95996e-07
1.05489e-08
1.94774e-07
1.02943e-08
1.93565e-07
1.00522e-08
1.92367e-07
9.80753e-09
1.91183e-07
9.57518e-09
1.90013e-07
9.31573e-09
1.88862e-07
9.07382e-09
1.87727e-07
8.76328e-09
1.86622e-07
8.47489e-09
1.85535e-07
8.07185e-09
1.84499e-07
7.64556e-09
1.83493e-07
7.1407e-09
1.82532e-07
6.34718e-09
1.81683e-07
5.87121e-09
4.65773e-09
1.80691e-07
2.24558e-07
7.40169e-08
2.27469e-07
8.33998e-08
2.28958e-07
5.9289e-08
2.30039e-07
5.02467e-08
2.30601e-07
4.51248e-08
2.30938e-07
4.00993e-08
2.31221e-07
3.63395e-08
2.31439e-07
3.36563e-08
2.31573e-07
3.14776e-08
2.31619e-07
2.95895e-08
2.31578e-07
2.79397e-08
2.31447e-07
2.64852e-08
2.31225e-07
2.51836e-08
2.30916e-07
2.40035e-08
2.30521e-07
2.29237e-08
2.30048e-07
2.19295e-08
2.295e-07
2.10096e-08
2.28885e-07
2.01556e-08
2.2821e-07
1.93607e-08
2.2748e-07
1.86195e-08
2.26702e-07
1.79276e-08
2.25883e-07
1.72812e-08
2.25026e-07
1.6677e-08
2.24139e-07
1.61121e-08
2.23224e-07
1.55838e-08
2.22285e-07
1.50898e-08
2.21328e-07
1.46277e-08
2.20354e-07
1.41954e-08
2.19366e-07
1.37909e-08
2.18367e-07
1.34122e-08
2.17358e-07
1.30576e-08
2.16343e-07
1.27249e-08
2.15323e-07
1.24126e-08
2.14299e-07
1.21185e-08
2.13272e-07
1.18403e-08
2.12244e-07
1.15765e-08
2.11217e-07
1.13215e-08
2.10192e-07
1.10777e-08
2.09169e-07
1.08301e-08
2.08152e-07
1.05923e-08
2.07141e-07
1.03273e-08
2.06141e-07
1.00737e-08
2.05149e-07
9.75495e-09
2.04181e-07
9.44312e-09
2.03224e-07
9.02833e-09
2.02308e-07
8.56173e-09
2.0142e-07
8.02846e-09
2.00562e-07
7.20524e-09
1.99811e-07
6.62277e-09
5.49341e-09
1.98975e-07
2.30979e-07
6.82436e-08
2.33934e-07
8.04455e-08
2.35363e-07
5.78596e-08
2.3645e-07
4.91594e-08
2.37046e-07
4.45294e-08
2.37398e-07
3.97469e-08
2.37702e-07
3.60353e-08
2.37966e-07
3.33921e-08
2.38176e-07
3.12683e-08
2.38332e-07
2.94334e-08
2.38437e-07
2.78348e-08
2.38489e-07
2.64333e-08
2.38485e-07
2.51873e-08
2.38424e-07
2.40643e-08
2.38305e-07
2.30424e-08
2.38129e-07
2.21055e-08
2.37897e-07
2.12418e-08
2.37611e-07
2.0442e-08
2.37273e-07
1.96988e-08
2.36886e-07
1.90064e-08
2.36453e-07
1.83602e-08
2.35978e-07
1.77563e-08
2.35464e-07
1.71914e-08
2.34913e-07
1.66625e-08
2.3433e-07
1.61674e-08
2.33716e-07
1.57035e-08
2.33075e-07
1.52689e-08
2.32409e-07
1.48616e-08
2.3172e-07
1.44797e-08
2.31011e-07
1.41214e-08
2.30283e-07
1.37851e-08
2.29539e-07
1.34688e-08
2.28781e-07
1.3171e-08
2.2801e-07
1.28897e-08
2.27227e-07
1.26225e-08
2.26436e-07
1.23682e-08
2.25636e-07
1.2121e-08
2.2483e-07
1.18833e-08
2.2402e-07
1.16403e-08
2.23208e-07
1.14043e-08
2.22395e-07
1.11408e-08
2.21586e-07
1.08821e-08
2.2078e-07
1.05617e-08
2.19989e-07
1.02333e-08
2.19206e-07
9.81224e-09
2.18452e-07
9.31524e-09
2.17724e-07
8.7567e-09
2.17013e-07
7.91561e-09
2.16401e-07
7.23508e-09
6.14064e-09
2.15754e-07
2.376e-07
6.27681e-08
2.40601e-07
7.74448e-08
2.41973e-07
5.64873e-08
2.43065e-07
4.80673e-08
2.43698e-07
4.3897e-08
2.44063e-07
3.93813e-08
2.44373e-07
3.57259e-08
2.44649e-07
3.31158e-08
2.44881e-07
3.10365e-08
2.45073e-07
2.92408e-08
2.45233e-07
2.76754e-08
2.4536e-07
2.6306e-08
2.45454e-07
2.50931e-08
2.45514e-07
2.40045e-08
2.45538e-07
2.3018e-08
2.45526e-07
2.21174e-08
2.45478e-07
2.12906e-08
2.45392e-07
2.05278e-08
2.45269e-07
1.98214e-08
2.4511e-07
1.91653e-08
2.44916e-07
1.85544e-08
2.44688e-07
1.79848e-08
2.44426e-07
1.74528e-08
2.44133e-07
1.69557e-08
2.4381e-07
1.64907e-08
2.43458e-07
1.60556e-08
2.43078e-07
1.56483e-08
2.42673e-07
1.52667e-08
2.42244e-07
1.49092e-08
2.41791e-07
1.45737e-08
2.41318e-07
1.42588e-08
2.40824e-07
1.39624e-08
2.40312e-07
1.3683e-08
2.39783e-07
1.34187e-08
2.39239e-07
1.31669e-08
2.38681e-07
1.29265e-08
2.3811e-07
1.26917e-08
2.37529e-07
1.24645e-08
2.36938e-07
1.22307e-08
2.36342e-07
1.20009e-08
2.35739e-07
1.17434e-08
2.35137e-07
1.1484e-08
2.34532e-07
1.11666e-08
2.33938e-07
1.08271e-08
2.33348e-07
1.04032e-08
2.32778e-07
9.8845e-09
2.32232e-07
9.30319e-09
2.31695e-07
8.45238e-09
2.31246e-07
7.68366e-09
6.58498e-09
2.30802e-07
2.4443e-07
5.75939e-08
2.47471e-07
7.44045e-08
2.48794e-07
5.51641e-08
2.49886e-07
4.6975e-08
2.50557e-07
4.32261e-08
2.5094e-07
3.89987e-08
2.51253e-07
3.54123e-08
2.51535e-07
3.28343e-08
2.51774e-07
3.07974e-08
2.51977e-07
2.90378e-08
2.52153e-07
2.74994e-08
2.52306e-07
2.61532e-08
2.52436e-07
2.49623e-08
2.52545e-07
2.38956e-08
2.52633e-07
2.29309e-08
2.52697e-07
2.20525e-08
2.5274e-07
2.12482e-08
2.52759e-07
2.05085e-08
2.52755e-07
1.98254e-08
2.52727e-07
1.91929e-08
2.52676e-07
1.86058e-08
2.52601e-07
1.80598e-08
2.52503e-07
1.75514e-08
2.52381e-07
1.70775e-08
2.52236e-07
1.66355e-08
2.52068e-07
1.6223e-08
2.51879e-07
1.58378e-08
2.51668e-07
1.54779e-08
2.51436e-07
1.51413e-08
2.51183e-07
1.48261e-08
2.50911e-07
1.45307e-08
2.50621e-07
1.4253e-08
2.50313e-07
1.39913e-08
2.49988e-07
1.37437e-08
2.49647e-07
1.35074e-08
2.49292e-07
1.32814e-08
2.48924e-07
1.30597e-08
2.48544e-07
1.28441e-08
2.48154e-07
1.26208e-08
2.47757e-07
1.23985e-08
2.47352e-07
1.21486e-08
2.46945e-07
1.18905e-08
2.46534e-07
1.15776e-08
2.46131e-07
1.12304e-08
2.45729e-07
1.08047e-08
2.45343e-07
1.02707e-08
2.44978e-07
9.66799e-09
2.44619e-07
8.81144e-09
2.44339e-07
7.96425e-09
6.83199e-09
2.44092e-07
2.51478e-07
5.2723e-08
2.54548e-07
7.1334e-08
2.55833e-07
5.38796e-08
2.5692e-07
4.58881e-08
2.57628e-07
4.25176e-08
2.58031e-07
3.85964e-08
2.5835e-07
3.50933e-08
2.58636e-07
3.2548e-08
2.5888e-07
3.05536e-08
2.59087e-07
2.88307e-08
2.59268e-07
2.73185e-08
2.59428e-07
2.59928e-08
2.5957e-07
2.48201e-08
2.59696e-07
2.377e-08
2.59806e-07
2.28208e-08
2.59901e-07
2.19572e-08
2.59982e-07
2.11674e-08
2.60049e-07
2.0442e-08
2.60101e-07
1.97733e-08
2.60138e-07
1.91553e-08
2.60161e-07
1.85828e-08
2.60169e-07
1.80517e-08
2.60162e-07
1.75584e-08
2.6014e-07
1.70997e-08
2.60103e-07
1.66731e-08
2.6005e-07
1.6276e-08
2.59981e-07
1.59063e-08
2.59897e-07
1.55619e-08
2.59798e-07
1.52408e-08
2.59683e-07
1.4941e-08
2.59553e-07
1.46606e-08
2.59408e-07
1.43976e-08
2.59249e-07
1.41501e-08
2.59077e-07
1.39162e-08
2.58891e-07
1.36928e-08
2.58694e-07
1.34789e-08
2.58485e-07
1.32684e-08
2.58267e-07
1.30625e-08
2.58039e-07
1.28483e-08
2.57806e-07
1.26322e-08
2.57565e-07
1.2389e-08
2.57324e-07
1.21317e-08
2.57079e-07
1.18225e-08
2.56841e-07
1.14688e-08
2.56605e-07
1.10402e-08
2.56381e-07
1.04944e-08
2.56179e-07
9.87061e-09
2.55982e-07
9.00854e-09
2.55854e-07
8.09142e-09
6.90503e-09
2.55781e-07
2.58751e-07
4.81553e-08
2.61841e-07
6.82434e-08
2.63098e-07
5.2623e-08
2.64174e-07
4.48116e-08
2.64918e-07
4.17742e-08
2.65342e-07
3.81721e-08
2.65668e-07
3.47677e-08
2.65959e-07
3.22565e-08
2.66208e-07
3.03046e-08
2.66419e-07
2.86202e-08
2.66602e-07
2.71352e-08
2.66765e-07
2.58301e-08
2.6691e-07
2.46747e-08
2.67041e-07
2.36396e-08
2.67158e-07
2.27037e-08
2.67263e-07
2.18519e-08
2.67358e-07
2.10729e-08
2.67442e-07
2.03576e-08
2.67517e-07
1.96986e-08
2.67582e-07
1.909e-08
2.67638e-07
1.85267e-08
2.67685e-07
1.80048e-08
2.67723e-07
1.75206e-08
2.67751e-07
1.70713e-08
2.6777e-07
1.66542e-08
2.67779e-07
1.62668e-08
2.67778e-07
1.5907e-08
2.67768e-07
1.55726e-08
2.67747e-07
1.52617e-08
2.67716e-07
1.49722e-08
2.67674e-07
1.4702e-08
2.67623e-07
1.44493e-08
2.67561e-07
1.42116e-08
2.6749e-07
1.39873e-08
2.6741e-07
1.3773e-08
2.67321e-07
1.35677e-08
2.67225e-07
1.33649e-08
2.67121e-07
1.31657e-08
2.67012e-07
1.29576e-08
2.66899e-07
1.2745e-08
2.66782e-07
1.2506e-08
2.66666e-07
1.22477e-08
2.66549e-07
1.19396e-08
2.66439e-07
1.1579e-08
2.66334e-07
1.1145e-08
2.6624e-07
1.05889e-08
2.66167e-07
9.94324e-09
2.66103e-07
9.07312e-09
2.66101e-07
8.09308e-09
6.83956e-09
2.66166e-07
2.66258e-07
4.38892e-08
2.69359e-07
6.5143e-08
2.70598e-07
5.13841e-08
2.71659e-07
4.37498e-08
2.72434e-07
4.09991e-08
2.72882e-07
3.77243e-08
2.73215e-07
3.44347e-08
2.73512e-07
3.19596e-08
2.73766e-07
3.00502e-08
2.73981e-07
2.84059e-08
2.74166e-07
2.69495e-08
2.74331e-07
2.56657e-08
2.74478e-07
2.45278e-08
2.74609e-07
2.35078e-08
2.74728e-07
2.25847e-08
2.74836e-07
2.17439e-08
2.74935e-07
2.09746e-08
2.75025e-07
2.02678e-08
2.75107e-07
1.96165e-08
2.75182e-07
1.90148e-08
2.7525e-07
1.84581e-08
2.75313e-07
1.79424e-08
2.75369e-07
1.74642e-08
2.7542e-07
1.70208e-08
2.75464e-07
1.66096e-08
2.75503e-07
1.62281e-08
2.75536e-07
1.58744e-08
2.75562e-07
1.55463e-08
2.75582e-07
1.52417e-08
2.75596e-07
1.49585e-08
2.75603e-07
1.46947e-08
2.75604e-07
1.44483e-08
2.75599e-07
1.42169e-08
2.75588e-07
1.39985e-08
2.75571e-07
1.37897e-08
2.75549e-07
1.35893e-08
2.75523e-07
1.3391e-08
2.75494e-07
1.31951e-08
2.75461e-07
1.299e-08
2.75428e-07
1.2778e-08
2.75394e-07
1.25402e-08
2.75363e-07
1.22784e-08
2.75335e-07
1.19684e-08
2.75314e-07
1.15997e-08
2.75301e-07
1.11574e-08
2.753e-07
1.05907e-08
2.7532e-07
9.9224e-09
2.75353e-07
9.04029e-09
2.75443e-07
8.00308e-09
6.67579e-09
2.75607e-07
2.74009e-07
3.99213e-08
2.77108e-07
6.20441e-08
2.7834e-07
5.01525e-08
2.79383e-07
4.27065e-08
2.80186e-07
4.01965e-08
2.80659e-07
3.72513e-08
2.81e-07
3.40934e-08
2.81302e-07
3.16575e-08
2.81562e-07
2.97901e-08
2.81781e-07
2.81873e-08
2.81969e-07
2.67613e-08
2.82135e-07
2.54996e-08
2.82283e-07
2.43798e-08
2.82416e-07
2.33752e-08
2.82535e-07
2.24651e-08
2.82644e-07
2.16354e-08
2.82743e-07
2.08754e-08
2.82834e-07
2.01768e-08
2.82918e-07
1.95325e-08
2.82996e-07
1.89371e-08
2.83068e-07
1.83858e-08
2.83135e-07
1.7875e-08
2.83198e-07
1.74014e-08
2.83257e-07
1.69623e-08
2.83311e-07
1.65551e-08
2.83362e-07
1.61777e-08
2.83408e-07
1.58279e-08
2.83451e-07
1.55037e-08
2.83489e-07
1.5203e-08
2.83524e-07
1.49238e-08
2.83555e-07
1.4664e-08
2.83582e-07
1.44214e-08
2.83605e-07
1.41935e-08
2.83625e-07
1.39784e-08
2.83642e-07
1.37725e-08
2.83657e-07
1.35744e-08
2.83671e-07
1.33779e-08
2.83683e-07
1.31826e-08
2.83695e-07
1.29779e-08
2.83709e-07
1.2764e-08
2.83725e-07
1.25245e-08
2.83746e-07
1.22573e-08
2.83772e-07
1.19426e-08
2.83807e-07
1.15647e-08
2.83853e-07
1.11116e-08
2.8391e-07
1.05333e-08
2.8399e-07
9.84185e-09
2.84087e-07
8.94367e-09
2.84236e-07
7.85428e-09
6.45194e-09
2.8446e-07
2.82013e-07
3.62462e-08
2.85099e-07
5.89579e-08
2.86333e-07
4.89187e-08
2.87355e-07
4.16842e-08
2.8818e-07
3.9371e-08
2.8868e-07
3.67519e-08
2.8903e-07
3.37425e-08
2.89338e-07
3.13504e-08
2.89603e-07
2.95243e-08
2.89827e-07
2.79641e-08
2.90018e-07
2.65702e-08
2.90186e-07
2.53316e-08
2.90335e-07
2.42305e-08
2.90469e-07
2.32417e-08
2.90589e-07
2.2345e-08
2.90697e-07
2.15266e-08
2.90797e-07
2.07763e-08
2.90888e-07
2.00858e-08
2.90972e-07
1.94485e-08
2.9105e-07
1.88591e-08
2.91123e-07
1.8313e-08
2.91191e-07
1.78067e-08
2.91255e-07
1.73372e-08
2.91316e-07
1.69016e-08
2.91373e-07
1.64978e-08
2.91427e-07
1.61235e-08
2.91478e-07
1.57767e-08
2.91527e-07
1.54554e-08
2.91572e-07
1.51575e-08
2.91615e-07
1.4881e-08
2.91655e-07
1.46237e-08
2.91693e-07
1.43834e-08
2.91729e-07
1.41575e-08
2.91764e-07
1.39441e-08
2.91797e-07
1.37395e-08
2.91829e-07
1.35419e-08
2.91861e-07
1.33456e-08
2.91895e-07
1.31491e-08
2.9193e-07
1.2943e-08
2.91968e-07
1.27255e-08
2.9201e-07
1.24826e-08
2.92059e-07
1.22086e-08
2.92114e-07
1.18871e-08
2.9218e-07
1.14992e-08
2.92258e-07
1.10334e-08
2.92348e-07
1.04428e-08
2.92462e-07
9.72835e-09
2.92595e-07
8.81087e-09
2.92775e-07
7.67409e-09
6.1998e-09
2.93027e-07
2.90278e-07
3.28568e-08
2.9334e-07
5.58965e-08
2.94585e-07
4.76738e-08
2.95584e-07
4.06849e-08
2.96427e-07
3.8528e-08
2.96954e-07
3.62251e-08
2.97315e-07
3.33807e-08
2.97628e-07
3.10382e-08
2.97899e-07
2.92526e-08
2.98127e-07
2.77361e-08
2.98322e-07
2.63758e-08
2.98492e-07
2.51614e-08
2.98643e-07
2.40796e-08
2.98777e-07
2.31072e-08
2.98898e-07
2.22243e-08
2.99007e-07
2.14176e-08
2.99106e-07
2.06771e-08
2.99197e-07
1.99949e-08
2.99281e-07
1.93648e-08
2.99358e-07
1.87814e-08
2.99431e-07
1.82406e-08
2.99499e-07
1.77388e-08
2.99563e-07
1.72731e-08
2.99623e-07
1.6841e-08
2.99681e-07
1.64403e-08
2.99736e-07
1.60688e-08
2.99788e-07
1.57246e-08
2.99837e-07
1.54058e-08
2.99885e-07
1.51102e-08
2.9993e-07
1.48358e-08
2.99973e-07
1.45804e-08
3.00015e-07
1.43418e-08
3.00055e-07
1.41173e-08
3.00094e-07
1.39048e-08
3.00133e-07
1.37005e-08
3.00172e-07
1.35026e-08
3.00213e-07
1.33054e-08
3.00255e-07
1.31069e-08
3.00299e-07
1.28983e-08
3.00349e-07
1.26764e-08
3.00402e-07
1.24287e-08
3.00464e-07
1.21474e-08
3.00533e-07
1.18179e-08
3.00612e-07
1.14196e-08
3.00705e-07
1.09406e-08
3.00811e-07
1.03371e-08
3.00939e-07
9.60058e-09
3.01088e-07
8.66191e-09
3.01279e-07
7.48276e-09
5.94308e-09
3.01536e-07
2.98815e-07
2.97443e-08
3.0184e-07
5.28716e-08
3.03104e-07
4.64099e-08
3.04079e-07
3.97094e-08
3.04935e-07
3.76728e-08
3.05489e-07
3.56705e-08
3.05863e-07
3.30065e-08
3.06181e-07
3.07208e-08
3.06458e-07
2.89753e-08
3.06691e-07
2.75028e-08
3.06889e-07
2.6178e-08
3.07062e-07
2.4989e-08
3.07214e-07
2.39271e-08
3.0735e-07
2.29715e-08
3.07471e-07
2.21029e-08
3.07581e-07
2.13082e-08
3.0768e-07
2.05778e-08
3.07771e-07
1.99042e-08
3.07854e-07
1.92814e-08
3.07931e-07
1.87042e-08
3.08003e-07
1.81686e-08
3.08071e-07
1.76714e-08
3.08134e-07
1.72097e-08
3.08194e-07
1.6781e-08
3.08251e-07
1.63834e-08
3.08305e-07
1.60147e-08
3.08357e-07
1.56731e-08
3.08406e-07
1.53565e-08
3.08453e-07
1.50631e-08
3.08498e-07
1.47907e-08
3.08542e-07
1.4537e-08
3.08584e-07
1.42998e-08
3.08624e-07
1.40763e-08
3.08665e-07
1.38644e-08
3.08705e-07
1.36602e-08
3.08746e-07
1.34616e-08
3.08789e-07
1.32631e-08
3.08833e-07
1.30621e-08
3.08881e-07
1.28505e-08
3.08934e-07
1.26239e-08
3.08991e-07
1.2371e-08
3.09057e-07
1.20822e-08
3.0913e-07
1.17443e-08
3.09214e-07
1.13358e-08
3.09311e-07
1.08436e-08
3.09421e-07
1.02273e-08
3.09551e-07
9.47024e-09
3.09703e-07
8.50995e-09
3.09892e-07
7.2939e-09
5.69806e-09
3.10137e-07
3.07633e-07
2.68982e-08
3.1061e-07
4.98954e-08
3.11899e-07
4.51204e-08
3.12851e-07
3.87576e-08
3.13713e-07
3.68108e-08
3.14295e-07
3.50885e-08
3.14683e-07
3.26183e-08
3.15006e-07
3.0398e-08
3.15289e-07
2.86923e-08
3.15528e-07
2.72641e-08
3.15729e-07
2.59763e-08
3.15904e-07
2.4814e-08
3.16059e-07
2.37727e-08
3.16196e-07
2.28344e-08
3.16318e-07
2.19806e-08
3.16428e-07
2.11983e-08
3.16528e-07
2.04783e-08
3.16618e-07
1.98135e-08
3.16702e-07
1.91981e-08
3.16778e-07
1.86273e-08
3.1685e-07
1.80972e-08
3.16917e-07
1.76046e-08
3.1698e-07
1.71469e-08
3.17039e-07
1.67218e-08
3.17095e-07
1.63272e-08
3.17148e-07
1.59614e-08
3.17199e-07
1.56223e-08
3.17247e-07
1.53082e-08
3.17294e-07
1.50169e-08
3.17338e-07
1.47464e-08
3.1738e-07
1.44944e-08
3.17422e-07
1.42586e-08
3.17462e-07
1.40361e-08
3.17502e-07
1.38246e-08
3.17542e-07
1.36204e-08
3.17582e-07
1.3421e-08
3.17624e-07
1.32211e-08
3.17669e-07
1.30176e-08
3.17716e-07
1.28029e-08
3.17769e-07
1.25715e-08
3.17827e-07
1.23133e-08
3.17891e-07
1.20173e-08
3.17965e-07
1.1671e-08
3.18048e-07
1.12529e-08
3.18143e-07
1.07481e-08
3.18251e-07
1.01194e-08
3.18377e-07
9.34407e-09
3.18524e-07
8.36316e-09
3.18702e-07
7.11618e-09
5.47526e-09
3.18925e-07
3.16743e-07
2.43063e-08
3.19659e-07
4.698e-08
3.20979e-07
4.37998e-08
3.21908e-07
3.78285e-08
3.22772e-07
3.59471e-08
3.2338e-07
3.44801e-08
3.23784e-07
3.22145e-08
3.24113e-07
3.00695e-08
3.24401e-07
2.84037e-08
3.24646e-07
2.70196e-08
3.24852e-07
2.57704e-08
3.25029e-07
2.46361e-08
3.25186e-07
2.36163e-08
3.25324e-07
2.26959e-08
3.25448e-07
2.18572e-08
3.25558e-07
2.10876e-08
3.25658e-07
2.03784e-08
3.25749e-07
1.97227e-08
3.25832e-07
1.9115e-08
3.25909e-07
1.85507e-08
3.2598e-07
1.80261e-08
3.26046e-07
1.75383e-08
3.26108e-07
1.70847e-08
3.26167e-07
1.66632e-08
3.26222e-07
1.62718e-08
3.26275e-07
1.59088e-08
3.26325e-07
1.55724e-08
3.26372e-07
1.52607e-08
3.26418e-07
1.49717e-08
3.26461e-07
1.47032e-08
3.26502e-07
1.44529e-08
3.26542e-07
1.42185e-08
3.26582e-07
1.3997e-08
3.2662e-07
1.3786e-08
3.26659e-07
1.35817e-08
3.26698e-07
1.33815e-08
3.26739e-07
1.31803e-08
3.26782e-07
1.29744e-08
3.26828e-07
1.27566e-08
3.26879e-07
1.25208e-08
3.26935e-07
1.22573e-08
3.26998e-07
1.19546e-08
3.27069e-07
1.16003e-08
3.27148e-07
1.11733e-08
3.27239e-07
1.06571e-08
3.27342e-07
1.0017e-08
3.2746e-07
9.2258e-09
3.27596e-07
8.22649e-09
3.27758e-07
6.95508e-09
5.28132e-09
3.27952e-07
3.26154e-07
2.19554e-08
3.28997e-07
4.4137e-08
3.30352e-07
4.24443e-08
3.3126e-07
3.69201e-08
3.32121e-07
3.50866e-08
3.32754e-07
3.38469e-08
3.33175e-07
3.17937e-08
3.3351e-07
2.97345e-08
3.33804e-07
2.81097e-08
3.34054e-07
2.67693e-08
3.34265e-07
2.556e-08
3.34445e-07
2.44552e-08
3.34604e-07
2.34576e-08
3.34744e-07
2.25556e-08
3.34869e-07
2.17326e-08
3.34981e-07
2.09762e-08
3.35081e-07
2.0278e-08
3.35172e-07
1.96316e-08
3.35255e-07
1.90318e-08
3.35332e-07
1.84741e-08
3.35403e-07
1.79553e-08
3.35469e-07
1.74723e-08
3.3553e-07
1.7023e-08
3.35588e-07
1.66051e-08
3.35643e-07
1.62171e-08
3.35695e-07
1.58571e-08
3.35744e-07
1.55234e-08
3.3579e-07
1.52141e-08
3.35835e-07
1.49274e-08
3.35877e-07
1.4661e-08
3.35917e-07
1.44125e-08
3.35956e-07