/*--------------------------------*- C++ -*----------------------------------*\
  =========                 |
  \\      /  F ield         | OpenFOAM: The Open Source CFD Toolbox
   \\    /   O peration     | Website:  https://openfoam.org
    \\  /    A nd           | Version:  7
     \\/     M anipulation  |
\*---------------------------------------------------------------------------*/
FoamFile
{
    version     2.0;
    format      ascii;
    class       volVectorField;
    location    "0.16";
    object      U;
}
// * * * * * * * * * * * * * * * * * * * * * * * * * * * * * * * * * * * * * //

dimensions      [0 1 -1 0 0 0 0];

internalField   nonuniform List<vector> 
70000
(
(0.55339 0.0167231 0)
(0.251254 0.00340116 0)
(0.166182 0.000322173 0)
(0.132419 5.44084e-05 0)
(0.117209 4.58475e-05 0)
(0.107265 5.40309e-05 0)
(0.0992949 4.64055e-05 0)
(0.0928321 3.70773e-05 0)
(0.0875644 3.07747e-05 0)
(0.0831715 2.6458e-05 0)
(0.0794251 2.31697e-05 0)
(0.0761768 2.05375e-05 0)
(0.0733251 1.83929e-05 0)
(0.0707956 1.66233e-05 0)
(0.0685316 1.51449e-05 0)
(0.0664896 1.38954e-05 0)
(0.0646351 1.28284e-05 0)
(0.0629406 1.19086e-05 0)
(0.0613837 1.11091e-05 0)
(0.0599462 1.04088e-05 0)
(0.0586131 9.79083e-06 0)
(0.0573715 9.24183e-06 0)
(0.0562109 8.75035e-06 0)
(0.0551222 8.30722e-06 0)
(0.0540977 7.90384e-06 0)
(0.0531308 7.5339e-06 0)
(0.0522159 7.18949e-06 0)
(0.0513481 6.86677e-06 0)
(0.0505231 6.55619e-06 0)
(0.0497374 6.25754e-06 0)
(0.0489882 5.95497e-06 0)
(0.0482727 5.65771e-06 0)
(0.0475894 5.33149e-06 0)
(0.046936 5.00999e-06 0)
(0.046313 4.61755e-06 0)
(0.045718 4.23855e-06 0)
(0.0451539 3.72188e-06 0)
(0.0446188 3.22954e-06 0)
(0.044117 2.52547e-06 0)
(0.0436512 1.79103e-06 0)
(0.043219 9.0189e-07 0)
(0.0428473 -4.4057e-07 0)
(0.0424911 -1.19781e-06 0)
(0.0422705 -4.20439e-06 0)
(0.0419793 -3.48655e-06 0)
(0.0420378 -1.10861e-05 0)
(0.0417377 -4.54997e-06 0)
(0.0423332 -2.51003e-05 0)
(0.0419614 1.32128e-05 0)
(0.0402347 -0.00168481 0)
(0.884899 0.0431678 0)
(0.649705 0.0201952 0)
(0.494279 0.00660018 0)
(0.40358 0.00276992 0)
(0.354603 0.00155467 0)
(0.323243 0.00113455 0)
(0.299322 0.000913579 0)
(0.280059 0.000749854 0)
(0.264278 0.000627174 0)
(0.251087 0.000536608 0)
(0.239834 0.000467932 0)
(0.230078 0.00041398 0)
(0.221511 0.000370487 0)
(0.213909 0.000334792 0)
(0.207104 0.000305085 0)
(0.200963 0.000280065 0)
(0.195384 0.000258775 0)
(0.190285 0.000240497 0)
(0.185599 0.00022468 0)
(0.18127 0.000210902 0)
(0.177254 0.000198826 0)
(0.173512 0.000188187 0)
(0.170011 0.000178768 0)
(0.166726 0.000170392 0)
(0.163632 0.000162911 0)
(0.160709 0.000156204 0)
(0.15794 0.000150161 0)
(0.15531 0.000144694 0)
(0.152805 0.000139714 0)
(0.150414 0.000135154 0)
(0.148128 0.000130922 0)
(0.145936 0.000126978 0)
(0.143835 0.00012319 0)
(0.141815 0.000119574 0)
(0.139874 0.000115874 0)
(0.138006 0.000112255 0)
(0.136214 0.000108163 0)
(0.13449 0.000104105 0)
(0.132843 9.89133e-05 0)
(0.131276 9.37622e-05 0)
(0.129777 8.64522e-05 0)
(0.128413 7.90623e-05 0)
(0.12706 6.83483e-05 0)
(0.126027 5.63742e-05 0)
(0.124764 4.14981e-05 0)
(0.124365 1.90651e-05 0)
(0.122981 6.68026e-06 0)
(0.123824 -6.53836e-05 0)
(0.12216 0.000145107 0)
(0.121358 -0.002771 0)
(0.991238 0.0499022 0)
(0.89034 0.0307214 0)
(0.762644 0.0146024 0)
(0.656577 0.00798591 0)
(0.58518 0.00489227 0)
(0.535692 0.00347948 0)
(0.497732 0.00274474 0)
(0.467013 0.00225304 0)
(0.441591 0.00189043 0)
(0.42017 0.00161939 0)
(0.401802 0.00141258 0)
(0.385818 0.00125009 0)
(0.371742 0.00111917 0)
(0.359222 0.00101173 0)
(0.347991 0.000922291 0)
(0.337841 0.000846939 0)
(0.328606 0.000782804 0)
(0.320156 0.000727733 0)
(0.312382 0.000680081 0)
(0.305194 0.000638575 0)
(0.298521 0.000602212 0)
(0.292298 0.000570195 0)
(0.286475 0.000541876 0)
(0.281006 0.000516732 0)
(0.275852 0.000494326 0)
(0.270981 0.000474297 0)
(0.266364 0.000456335 0)
(0.261975 0.000440175 0)
(0.257792 0.000425583 0)
(0.253796 0.000412353 0)
(0.249971 0.000400273 0)
(0.2463 0.000389194 0)
(0.242774 0.00037885 0)
(0.239376 0.000369186 0)
(0.236104 0.000359727 0)
(0.232942 0.000350683 0)
(0.229895 0.000340988 0)
(0.226948 0.000331597 0)
(0.22411 0.000319952 0)
(0.221381 0.00030894 0)
(0.218743 0.000292561 0)
(0.216284 0.000278134 0)
(0.213823 0.000252499 0)
(0.211793 0.000231749 0)
(0.209412 0.000190697 0)
(0.208208 0.000155827 0)
(0.205614 0.000105468 0)
(0.205997 -2.32982e-05 0)
(0.202934 0.000232785 0)
(0.203427 -0.00274331 0)
(1.0156 0.0489212 0)
(1.00596 0.0358789 0)
(0.935923 0.0207995 0)
(0.85204 0.0135153 0)
(0.782024 0.00922118 0)
(0.72673 0.00679651 0)
(0.681538 0.00540035 0)
(0.643659 0.00446247 0)
(0.61151 0.00376987 0)
(0.583904 0.00324517 0)
(0.559904 0.00284013 0)
(0.538803 0.00251968 0)
(0.520071 0.00226036 0)
(0.503303 0.00204679 0)
(0.488181 0.00186843 0)
(0.474456 0.00171777 0)
(0.461923 0.00158925 0)
(0.45042 0.00147868 0)
(0.439809 0.00138285 0)
(0.429977 0.00129926 0)
(0.420831 0.00122596 0)
(0.412289 0.00116135 0)
(0.404283 0.00110417 0)
(0.396755 0.00105338 0)
(0.389654 0.00100813 0)
(0.382935 0.000967698 0)
(0.37656 0.00093148 0)
(0.370496 0.000898961 0)
(0.364713 0.000869692 0)
(0.359184 0.000843272 0)
(0.353888 0.000819328 0)
(0.3488 0.000797542 0)
(0.343908 0.000777509 0)
(0.339189 0.00075903 0)
(0.334638 0.000741433 0)
(0.330233 0.000724888 0)
(0.325977 0.00070783 0)
(0.321849 0.000691648 0)
(0.317859 0.000672201 0)
(0.314 0.00065452 0)
(0.310251 0.00062765 0)
(0.306706 0.000606353 0)
(0.30316 0.000563178 0)
(0.300092 0.000535669 0)
(0.296631 0.000462498 0)
(0.294448 0.000419794 0)
(0.290774 0.000319174 0)
(0.290222 0.000146423 0)
(0.286084 0.000358478 0)
(0.286464 -0.00227521 0)
(1.01434 0.0460047 0)
(1.04753 0.0374933 0)
(1.02456 0.0241619 0)
(0.974699 0.0175745 0)
(0.923318 0.0131417 0)
(0.876454 0.0102287 0)
(0.834181 0.00836773 0)
(0.796306 0.00704879 0)
(0.762604 0.00604078 0)
(0.732638 0.00525497 0)
(0.705898 0.00463476 0)
(0.681913 0.00413618 0)
(0.660282 0.00372792 0)
(0.640673 0.00338855 0)
(0.622806 0.00310298 0)
(0.606448 0.00286023 0)
(0.591405 0.00265204 0)
(0.577513 0.00247212 0)
(0.564632 0.00231559 0)
(0.552645 0.0021786 0)
(0.541449 0.00205811 0)
(0.530959 0.00195166 0)
(0.521098 0.00185725 0)
(0.511802 0.00177323 0)
(0.503013 0.00169827 0)
(0.494681 0.0016312 0)
(0.486763 0.0015711 0)
(0.479219 0.00151712 0)
(0.472015 0.00146858 0)
(0.465118 0.00142482 0)
(0.458504 0.0013853 0)
(0.452145 0.00134948 0)
(0.446023 0.00131681 0)
(0.440113 0.00128691 0)
(0.434406 0.00125892 0)
(0.428876 0.00123292 0)
(0.423525 0.00120688 0)
(0.418327 0.00118257 0)
(0.41329 0.00115424 0)
(0.408403 0.00112917 0)
(0.403647 0.00109114 0)
(0.399105 0.0010629 0)
(0.394583 0.00100175 0)
(0.39053 0.000967807 0)
(0.386133 0.000862866 0)
(0.382932 0.000810894 0)
(0.378422 0.000663608 0)
(0.376696 0.00044683 0)
(0.371951 0.000595319 0)
(0.371156 -0.00169336 0)
(1.00933 0.0429162 0)
(1.05527 0.037269 0)
(1.05868 0.0253077 0)
(1.03633 0.0197775 0)
(1.00701 0.0158359 0)
(0.975885 0.0129654 0)
(0.944259 0.0109936 0)
(0.913271 0.0095151 0)
(0.883776 0.00832774 0)
(0.856163 0.00736266 0)
(0.830514 0.00657537 0)
(0.806766 0.00592607 0)
(0.784798 0.0053836 0)
(0.764467 0.0049253 0)
(0.745624 0.00453452 0)
(0.728125 0.00419864 0)
(0.711838 0.0039079 0)
(0.696642 0.00365464 0)
(0.682429 0.00343281 0)
(0.6691 0.00323755 0)
(0.65657 0.00306493 0)
(0.644761 0.00291174 0)
(0.633604 0.00277535 0)
(0.623039 0.00265357 0)
(0.613011 0.00254457 0)
(0.603472 0.00244682 0)
(0.594377 0.00235902 0)
(0.585688 0.00228003 0)
(0.57737 0.00220892 0)
(0.56939 0.00214479 0)
(0.561721 0.0020869 0)
(0.554335 0.00203451 0)
(0.547213 0.00198692 0)
(0.540327 0.00194354 0)
(0.533668 0.00190336 0)
(0.527208 0.0018663 0)
(0.520948 0.00182995 0)
(0.514857 0.00179634 0)
(0.508947 0.00175831 0)
(0.503198 0.00172504 0)
(0.4976 0.00167568 0)
(0.492211 0.00163973 0)
(0.486884 0.00156172 0)
(0.481973 0.00151934 0)
(0.476831 0.00138715 0)
(0.472694 0.00131925 0)
(0.467585 0.00113629 0)
(0.464696 0.000867734 0)
(0.459643 0.00095883 0)
(0.457516 -0.00101804 0)
(1.00625 0.0400348 0)
(1.05206 0.0363418 0)
(1.06608 0.0252378 0)
(1.05958 0.0205794 0)
(1.04682 0.0172665 0)
(1.03068 0.014691 0)
(1.0117 0.0128609 0)
(0.990914 0.0114412 0)
(0.969378 0.0102491 0)
(0.947827 0.00923736 0)
(0.926709 0.00838097 0)
(0.906288 0.00765243 0)
(0.886712 0.00702766 0)
(0.868049 0.00648807 0)
(0.850319 0.00601932 0)
(0.833505 0.00560999 0)
(0.817574 0.00525085 0)
(0.802481 0.00493437 0)
(0.788175 0.00465436 0)
(0.774605 0.00440572 0)
(0.761717 0.00418425 0)
(0.749464 0.00398639 0)
(0.737796 0.00380918 0)
(0.726669 0.00365014 0)
(0.716042 0.00350714 0)
(0.705876 0.00337836 0)
(0.696135 0.00326229 0)
(0.686787 0.00315754 0)
(0.677803 0.003063 0)
(0.669152 0.00297757 0)
(0.660811 0.00290036 0)
(0.652755 0.00283044 0)
(0.644965 0.00276701 0)
(0.637417 0.00270927 0)
(0.6301 0.0026561 0)
(0.622988 0.00260726 0)
(0.616082 0.00256 0)
(0.609351 0.0025165 0)
(0.602809 0.00246851 0)
(0.596428 0.00242648 0)
(0.590215 0.00236618 0)
(0.584194 0.00232146 0)
(0.578275 0.00222862 0)
(0.572706 0.00217476 0)
(0.56703 0.00202122 0)
(0.562144 0.00192975 0)
(0.556638 0.00172153 0)
(0.55279 0.00139733 0)
(0.547559 0.00143048 0)
(0.544397 -0.000250598 0)
(1.00495 0.0373569 0)
(1.04727 0.03526 0)
(1.06397 0.0246984 0)
(1.06423 0.020607 0)
(1.06064 0.0178069 0)
(1.05467 0.0155379 0)
(1.04585 0.0139244 0)
(1.03458 0.0126714 0)
(1.02157 0.0115921 0)
(1.00741 0.0106453 0)
(0.992582 0.00981814 0)
(0.977428 0.00909366 0)
(0.962219 0.00845553 0)
(0.947149 0.00789095 0)
(0.932354 0.00738985 0)
(0.917924 0.00694391 0)
(0.903917 0.00654607 0)
(0.890366 0.00619032 0)
(0.877285 0.00587148 0)
(0.864674 0.00558514 0)
(0.852529 0.00532751 0)
(0.840834 0.0050953 0)
(0.829573 0.00488571 0)
(0.818727 0.00469628 0)
(0.808274 0.0045249 0)
(0.798194 0.00436972 0)
(0.788466 0.00422915 0)
(0.779067 0.00410176 0)
(0.76998 0.00398635 0)
(0.761183 0.00388172 0)
(0.75266 0.00378693 0)
(0.74439 0.00370092 0)
(0.736361 0.00362285 0)
(0.728553 0.00355175 0)
(0.720958 0.00348645 0)
(0.713553 0.00342653 0)
(0.706341 0.00336906 0)
(0.699294 0.00331618 0)
(0.692429 0.00325896 0)
(0.685713 0.00320837 0)
(0.679166 0.00313833 0)
(0.672789 0.00308428 0)
(0.666541 0.00297917 0)
(0.660575 0.00291137 0)
(0.654602 0.00274183 0)
(0.649233 0.00262162 0)
(0.64352 0.00239446 0)
(0.63902 0.00201788 0)
(0.633717 0.00198645 0)
(0.629882 0.00057554 0)
(1.0044 0.034809 0)
(1.04324 0.034187 0)
(1.05993 0.0240579 0)
(1.06227 0.0203142 0)
(1.06246 0.0178726 0)
(1.06174 0.015822 0)
(1.05913 0.0143834 0)
(1.05452 0.0132975 0)
(1.04823 0.0123624 0)
(1.04056 0.0115296 0)
(1.0318 0.0107887 0)
(1.0222 0.0101268 0)
(1.01199 0.00953151 0)
(1.00138 0.00899373 0)
(0.990514 0.00850676 0)
(0.979538 0.00806523 0)
(0.96855 0.00766449 0)
(0.957629 0.00730047 0)
(0.946834 0.00696955 0)
(0.936208 0.00666853 0)
(0.925781 0.00639455 0)
(0.915574 0.00614505 0)
(0.905599 0.00591775 0)
(0.895861 0.00571062 0)
(0.886364 0.00552183 0)
(0.877104 0.00534975 0)
(0.868078 0.00519297 0)
(0.859279 0.00505013 0)
(0.850701 0.00492013 0)
(0.842334 0.00480179 0)
(0.834171 0.00469424 0)
(0.826202 0.00459637 0)
(0.818419 0.00450738 0)
(0.81081 0.00442622 0)
(0.803374 0.00435171 0)
(0.796091 0.00428331 0)
(0.78897 0.004218 0)
(0.781985 0.00415776 0)
(0.775155 0.00409338 0)
(0.768452 0.00403569 0)
(0.761902 0.00395806 0)
(0.755492 0.00389532 0)
(0.749214 0.00378087 0)
(0.743162 0.00369833 0)
(0.73716 0.00351723 0)
(0.731617 0.0033665 0)
(0.725919 0.00312348 0)
(0.721102 0.0027023 0)
(0.715878 0.00259995 0)
(0.711716 0.00142011 0)
(1.00402 0.0323689 0)
(1.03991 0.0331372 0)
(1.05616 0.0234353 0)
(1.05891 0.019927 0)
(1.06019 0.0177437 0)
(1.06152 0.0158286 0)
(1.06186 0.0144922 0)
(1.06092 0.0135225 0)
(1.0588 0.012705 0)
(1.0556 0.0119797 0)
(1.05141 0.0113337 0)
(1.04635 0.0107535 0)
(1.04054 0.0102268 0)
(1.03411 0.00974513 0)
(1.02718 0.00930291 0)
(1.01986 0.0088962 0)
(1.01224 0.00852179 0)
(1.0044 0.00817699 0)
(0.99643 0.00785945 0)
(0.988373 0.00756705 0)
(0.980281 0.0072979 0)
(0.972192 0.00705026 0)
(0.964137 0.00682252 0)
(0.956139 0.00661321 0)
(0.948217 0.00642097 0)
(0.940384 0.00624454 0)
(0.932651 0.00608281 0)
(0.925023 0.00593465 0)
(0.917507 0.00579917 0)
(0.910103 0.00567533 0)
(0.902814 0.00556239 0)
(0.895637 0.00545932 0)
(0.888575 0.0053654 0)
(0.881621 0.00527958 0)
(0.874781 0.00520076 0)
(0.868042 0.00512829 0)
(0.861415 0.00505917 0)
(0.854882 0.00499519 0)
(0.848464 0.00492707 0)
(0.842138 0.00486516 0)
(0.835931 0.00478312 0)
(0.829831 0.0047137 0)
(0.823846 0.0045934 0)
(0.818035 0.0044971 0)
(0.812294 0.00430846 0)
(0.8069 0.00412837 0)
(0.801466 0.00387116 0)
(0.796666 0.00341501 0)
(0.791718 0.00323871 0)
(0.787558 0.00224361 0)
(1.00364 0.0300286 0)
(1.03692 0.0320899 0)
(1.05281 0.0228461 0)
(1.05567 0.0195226 0)
(1.05709 0.017553 0)
(1.05897 0.0157305 0)
(1.06039 0.0144423 0)
(1.06104 0.0135367 0)
(1.061 0.012794 0)
(1.06029 0.0121445 0)
(1.0589 0.0115724 0)
(1.05686 0.0110629 0)
(1.05419 0.0106021 0)
(1.05095 0.0101804 0)
(1.04719 0.00979178 0)
(1.04298 0.00943221 0)
(1.03838 0.0090987 0)
(1.03344 0.00878899 0)
(1.02823 0.00850124 0)
(1.02279 0.00823394 0)
(1.01716 0.00798576 0)
(1.01139 0.00775554 0)
(1.00551 0.0075422 0)
(0.999545 0.00734472 0)
(0.993525 0.0071622 0)
(0.987469 0.00699372 0)
(0.981393 0.00683849 0)
(0.975312 0.00669566 0)
(0.969238 0.00656456 0)
(0.963181 0.00644434 0)
(0.957148 0.00633443 0)
(0.951146 0.00623391 0)
(0.945182 0.00614222 0)
(0.939255 0.00605834 0)
(0.933376 0.00598124 0)
(0.92754 0.00591028 0)
(0.921759 0.00584246 0)
(0.916024 0.00577944 0)
(0.910355 0.005712 0)
(0.904736 0.00564979 0)
(0.899194 0.00556733 0)
(0.893722 0.00549436 0)
(0.888332 0.00537215 0)
(0.883069 0.00526453 0)
(0.877873 0.00507218 0)
(0.87293 0.00486623 0)
(0.868013 0.00459601 0)
(0.863543 0.004115 0)
(0.859078 0.0038653 0)
(0.855225 0.00300563 0)
(1.00327 0.0277889 0)
(1.03409 0.0310315 0)
(1.0497 0.0222834 0)
(1.05271 0.0191163 0)
(1.05409 0.0173435 0)
(1.05603 0.0156032 0)
(1.05772 0.0143376 0)
(1.0589 0.0134631 0)
(1.05967 0.0127621 0)
(1.06007 0.0121572 0)
(1.06009 0.0116314 0)
(1.0597 0.0111699 0)
(1.05889 0.0107576 0)
(1.05767 0.0103838 0)
(1.05606 0.0100413 0)
(1.05407 0.00972537 0)
(1.05173 0.00943268 0)
(1.04906 0.00916068 0)
(1.0461 0.00890745 0)
(1.04288 0.00867153 0)
(1.03942 0.00845173 0)
(1.03576 0.00824708 0)
(1.03192 0.00805673 0)
(1.02793 0.00787992 0)
(1.0238 0.00771599 0)
(1.01955 0.00756426 0)
(1.01521 0.00742416 0)
(1.01079 0.00729504 0)
(1.0063 0.00717641 0)
(1.00175 0.00706756 0)
(0.997156 0.00696808 0)
(0.992526 0.00687715 0)
(0.987869 0.0067943 0)
(0.98319 0.00671862 0)
(0.9785 0.0066491 0)
(0.9738 0.00658517 0)
(0.969102 0.0065238 0)
(0.964405 0.00646657 0)
(0.959725 0.00640433 0)
(0.955058 0.00634598 0)
(0.950423 0.00626724 0)
(0.945823 0.00619425 0)
(0.941269 0.00607413 0)
(0.936797 0.00595844 0)
(0.932377 0.00576587 0)
(0.928133 0.00553903 0)
(0.923943 0.00525682 0)
(0.920065 0.00476041 0)
(0.916269 0.0044406 0)
(0.912972 0.00366999 0)
(1.00292 0.0256532 0)
(1.03138 0.0299573 0)
(1.0467 0.0217428 0)
(1.04992 0.0187079 0)
(1.05128 0.0171221 0)
(1.05317 0.0154688 0)
(1.0549 0.0142194 0)
(1.05619 0.0133612 0)
(1.0572 0.0126841 0)
(1.05799 0.0121041 0)
(1.05858 0.0116041 0)
(1.05893 0.0111704 0)
(1.05904 0.010788 0)
(1.0589 0.0104455 0)
(1.0585 0.010135 0)
(1.05785 0.00985138 0)
(1.05694 0.00959062 0)
(1.05579 0.00934981 0)
(1.0544 0.00912672 0)
(1.05279 0.00891966 0)
(1.05097 0.00872732 0)
(1.04895 0.00854864 0)
(1.04675 0.00838278 0)
(1.04438 0.00822902 0)
(1.04186 0.00808675 0)
(1.0392 0.00795537 0)
(1.03641 0.0078344 0)
(1.03351 0.00772327 0)
(1.0305 0.00762156 0)
(1.0274 0.00752867 0)
(1.02421 0.00744421 0)
(1.02094 0.00736746 0)
(1.01761 0.00729797 0)
(1.01421 0.00723491 0)
(1.01076 0.00717725 0)
(1.00727 0.00712449 0)
(1.00374 0.00707351 0)
(1.00018 0.00702583 0)
(0.996593 0.00697244 0)
(0.992993 0.00692133 0)
(0.989389 0.00684974 0)
(0.985791 0.00677978 0)
(0.982209 0.00666503 0)
(0.978672 0.00654453 0)
(0.97517 0.00635432 0)
(0.971782 0.00611201 0)
(0.968456 0.00581865 0)
(0.965345 0.00531453 0)
(0.962348 0.00492978 0)
(0.959776 0.00420771 0)
(1.0026 0.0236242 0)
(1.02879 0.0288662 0)
(1.04378 0.0212231 0)
(1.04723 0.0182975 0)
(1.0486 0.0168871 0)
(1.05045 0.01533 0)
(1.05217 0.0140986 0)
(1.05347 0.0132521 0)
(1.05452 0.0125922 0)
(1.05541 0.0120283 0)
(1.05616 0.0115429 0)
(1.05678 0.0111246 0)
(1.05726 0.010759 0)
(1.0576 0.0104345 0)
(1.05778 0.0101434 0)
(1.05781 0.00988007 0)
(1.05768 0.00964033 0)
(1.05739 0.009421 0)
(1.05694 0.00921962 0)
(1.05633 0.00903427 0)
(1.05557 0.00886345 0)
(1.05466 0.00870597 0)
(1.0536 0.00856088 0)
(1.05241 0.00842739 0)
(1.05108 0.00830484 0)
(1.04963 0.00819261 0)
(1.04805 0.0080902 0)
(1.04636 0.00799703 0)
(1.04456 0.0079127 0)
(1.04266 0.00783658 0)
(1.04067 0.00776829 0)
(1.03859 0.00770712 0)
(1.03642 0.00765256 0)
(1.03418 0.00760384 0)
(1.03187 0.00755983 0)
(1.02949 0.00752008 0)
(1.02707 0.00748136 0)
(1.02459 0.00744511 0)
(1.02207 0.00740245 0)
(1.01951 0.00736036 0)
(1.01693 0.00729785 0)
(1.01434 0.00723272 0)
(1.01174 0.00712521 0)
(1.00917 0.00700233 0)
(1.00661 0.00681571 0)
(1.00413 0.00656267 0)
(1.00171 0.00625856 0)
(0.999434 0.00575179 0)
(0.997282 0.00530813 0)
(0.995504 0.00460079 0)
(1.0023 0.0217036 0)
(1.02634 0.0277589 0)
(1.04095 0.0207227 0)
(1.04462 0.0178865 0)
(1.04601 0.0166375 0)
(1.04784 0.0151852 0)
(1.04955 0.0139765 0)
(1.05085 0.0131408 0)
(1.05188 0.0124964 0)
(1.05277 0.0119459 0)
(1.05356 0.0114711 0)
(1.05425 0.0110624 0)
(1.05484 0.0107066 0)
(1.05534 0.0103926 0)
(1.05575 0.0101124 0)
(1.05607 0.00986074 0)
(1.0563 0.00963337 0)
(1.05643 0.00942705 0)
(1.05646 0.00923925 0)
(1.05639 0.00906793 0)
(1.05623 0.00891151 0)
(1.05597 0.0087687 0)
(1.05561 0.00863847 0)
(1.05514 0.00851996 0)
(1.05459 0.00841244 0)
(1.05394 0.00831525 0)
(1.05319 0.00822784 0)
(1.05235 0.00814959 0)
(1.05143 0.00808004 0)
(1.05042 0.00801854 0)
(1.04932 0.00796463 0)
(1.04815 0.00791758 0)
(1.0469 0.00787679 0)
(1.04557 0.00784151 0)
(1.04419 0.00781043 0)
(1.04273 0.00778317 0)
(1.04122 0.00775634 0)
(1.03966 0.0077312 0)
(1.03806 0.00769915 0)
(1.03641 0.00766596 0)
(1.03474 0.00761258 0)
(1.03305 0.00755245 0)
(1.03134 0.00745225 0)
(1.02964 0.00732812 0)
(1.02796 0.00714469 0)
(1.02633 0.00688421 0)
(1.02475 0.00656907 0)
(1.02328 0.00606176 0)
(1.02193 0.00556498 0)
(1.02092 0.00484568 0)
(1.00203 0.0198923 0)
(1.02402 0.0266386 0)
(1.03821 0.0202386 0)
(1.0421 0.0174768 0)
(1.04351 0.0163731 0)
(1.04531 0.015033 0)
(1.04702 0.0138525 0)
(1.04832 0.0130277 0)
(1.04934 0.0123987 0)
(1.05022 0.0118616 0)
(1.051 0.0113963 0)
(1.05169 0.0109954 0)
(1.0523 0.0106468 0)
(1.05284 0.0103396 0)
(1.05332 0.0100663 0)
(1.05374 0.00982149 0)
(1.05409 0.00960127 0)
(1.05439 0.00940242 0)
(1.05463 0.00922244 0)
(1.05482 0.00905934 0)
(1.05494 0.00891151 0)
(1.055 0.00877766 0)
(1.05501 0.00865674 0)
(1.05495 0.00854786 0)
(1.05483 0.00845027 0)
(1.05465 0.00836329 0)
(1.0544 0.00828633 0)
(1.05409 0.00821874 0)
(1.05372 0.00816001 0)
(1.05329 0.00810945 0)
(1.05279 0.00806652 0)
(1.05224 0.00803046 0)
(1.05162 0.00800055 0)
(1.05095 0.00797603 0)
(1.05023 0.00795543 0)
(1.04945 0.00793835 0)
(1.04863 0.00792129 0)
(1.04777 0.00790527 0)
(1.04687 0.007882 0)
(1.04593 0.00785597 0)
(1.04498 0.00781013 0)
(1.044 0.00775371 0)
(1.04302 0.00765925 0)
(1.04204 0.00753362 0)
(1.04108 0.00735155 0)
(1.04016 0.00708517 0)
(1.03929 0.00675798 0)
(1.03852 0.00624955 0)
(1.03786 0.00570442 0)
(1.03751 0.00495352 0)
(1.00179 0.0181905 0)
(1.02183 0.0255091 0)
(1.03557 0.0197669 0)
(1.03966 0.0170703 0)
(1.04111 0.0160948 0)
(1.04287 0.0148726 0)
(1.04458 0.013726 0)
(1.04588 0.0129125 0)
(1.04689 0.0122991 0)
(1.04776 0.011776 0)
(1.04852 0.0113205 0)
(1.0492 0.010927 0)
(1.04981 0.0105848 0)
(1.05035 0.0102834 0)
(1.05083 0.0100153 0)
(1.05127 0.00977537 0)
(1.05166 0.00955982 0)
(1.05201 0.00936559 0)
(1.05232 0.00919026 0)
(1.0526 0.00903189 0)
(1.05284 0.00888897 0)
(1.05304 0.00876022 0)
(1.05321 0.00864464 0)
(1.05334 0.00854135 0)
(1.05343 0.00844964 0)
(1.05349 0.00836882 0)
(1.05351 0.0082983 0)
(1.05349 0.00823744 0)
(1.05343 0.00818568 0)
(1.05332 0.00814231 0)
(1.05318 0.00810672 0)
(1.053 0.00807814 0)
(1.05278 0.00805571 0)
(1.05252 0.00803865 0)
(1.05223 0.00802537 0)
(1.05189 0.00801541 0)
(1.05153 0.00800519 0)
(1.05114 0.0079954 0)
(1.05073 0.0079782 0)
(1.05029 0.00795666 0)
(1.04984 0.00791578 0)
(1.04939 0.00786085 0)
(1.04893 0.00776952 0)
(1.04849 0.00764114 0)
(1.04807 0.0074577 0)
(1.04768 0.00718546 0)
(1.04735 0.00684471 0)
(1.04711 0.00633258 0)
(1.04698 0.00574278 0)
(1.04714 0.00494679 0)
(1.00157 0.0165978 0)
(1.01979 0.0243744 0)
(1.03304 0.0193035 0)
(1.03731 0.0166686 0)
(1.0388 0.0158038 0)
(1.04052 0.0147033 0)
(1.04222 0.0135968 0)
(1.04353 0.0127953 0)
(1.04453 0.0121972 0)
(1.04539 0.0116889 0)
(1.04614 0.0112438 0)
(1.0468 0.010858 0)
(1.0474 0.0105222 0)
(1.04793 0.0102263 0)
(1.0484 0.00996304 0)
(1.04883 0.00972735 0)
(1.04923 0.00951557 0)
(1.04959 0.00932478 0)
(1.04991 0.00915267 0)
(1.05021 0.00899738 0)
(1.05049 0.00885746 0)
(1.05074 0.00873171 0)
(1.05096 0.00861918 0)
(1.05117 0.00851905 0)
(1.05135 0.00843063 0)
(1.05151 0.00835327 0)
(1.05165 0.00828641 0)
(1.05176 0.00822941 0)
(1.05185 0.0081817 0)
(1.05192 0.00814258 0)
(1.05196 0.00811137 0)
(1.05197 0.00808729 0)
(1.05197 0.00806936 0)
(1.05194 0.00805682 0)
(1.05189 0.00804792 0)
(1.05182 0.00804214 0)
(1.05173 0.00803588 0)
(1.05162 0.00802943 0)
(1.05151 0.00801546 0)
(1.05138 0.00799566 0)
(1.05126 0.00795691 0)
(1.05114 0.00790105 0)
(1.05103 0.00780992 0)
(1.05093 0.00767713 0)
(1.05087 0.00748936 0)
(1.05085 0.00721036 0)
(1.05089 0.00685448 0)
(1.05102 0.00633506 0)
(1.05126 0.00570346 0)
(1.05176 0.00485427 0)
(1.00137 0.0151134 0)
(1.01788 0.0232384 0)
(1.03061 0.0188445 0)
(1.03504 0.0162733 0)
(1.03658 0.0155015 0)
(1.03826 0.0145243 0)
(1.03995 0.0134646 0)
(1.04126 0.012676 0)
(1.04226 0.0120932 0)
(1.04311 0.0116001 0)
(1.04385 0.0111661 0)
(1.0445 0.0107883 0)
(1.04508 0.0104591 0)
(1.0456 0.0101689 0)
(1.04606 0.00991047 0)
(1.04648 0.00967891 0)
(1.04687 0.00947069 0)
(1.04722 0.009283 0)
(1.04754 0.00911362 0)
(1.04784 0.00896078 0)
(1.04812 0.00882308 0)
(1.04838 0.0086994 0)
(1.04862 0.00858884 0)
(1.04884 0.00849063 0)
(1.04905 0.00840414 0)
(1.04925 0.00832876 0)
(1.04943 0.00826395 0)
(1.04959 0.00820911 0)
(1.04974 0.00816364 0)
(1.04988 0.00812688 0)
(1.05 0.00809806 0)
(1.05011 0.00807643 0)
(1.05021 0.00806091 0)
(1.05029 0.0080507 0)
(1.05036 0.00804397 0)
(1.05042 0.0080401 0)
(1.05047 0.00803552 0)
(1.05052 0.00803008 0)
(1.05057 0.00801699 0)
(1.05062 0.00799663 0)
(1.05068 0.00795756 0)
(1.05075 0.00789871 0)
(1.05084 0.00780516 0)
(1.05095 0.00766644 0)
(1.05111 0.00747177 0)
(1.0513 0.0071848 0)
(1.05156 0.00681258 0)
(1.05191 0.0062822 0)
(1.05237 0.00561131 0)
(1.05307 0.00470552 0)
(1.0012 0.0137356 0)
(1.0161 0.0221053 0)
(1.02829 0.0183862 0)
(1.03287 0.0158855 0)
(1.03445 0.0151898 0)
(1.0361 0.0143353 0)
(1.03777 0.0133287 0)
(1.03909 0.0125546 0)
(1.04009 0.0119867 0)
(1.04092 0.0115095 0)
(1.04165 0.0110872 0)
(1.04229 0.0107178 0)
(1.04286 0.0103955 0)
(1.04336 0.0101111 0)
(1.04382 0.0098577 0)
(1.04423 0.00963037 0)
(1.0446 0.00942575 0)
(1.04494 0.00924114 0)
(1.04525 0.0090744 0)
(1.04554 0.00892383 0)
(1.04581 0.00878811 0)
(1.04607 0.00866617 0)
(1.0463 0.00855716 0)
(1.04653 0.00846038 0)
(1.04674 0.00837523 0)
(1.04694 0.00830116 0)
(1.04713 0.00823763 0)
(1.04731 0.00818409 0)
(1.04748 0.00813993 0)
(1.04764 0.00810449 0)
(1.04779 0.00807697 0)
(1.04793 0.00805659 0)
(1.04807 0.00804222 0)
(1.04819 0.00803301 0)
(1.04832 0.00802708 0)
(1.04844 0.00802364 0)
(1.04855 0.00801922 0)
(1.04867 0.00801323 0)
(1.0488 0.00799939 0)
(1.04893 0.00797688 0)
(1.04908 0.00793571 0)
(1.04924 0.00787245 0)
(1.04943 0.00777453 0)
(1.04966 0.0076288 0)
(1.04992 0.00742544 0)
(1.05023 0.00712943 0)
(1.05059 0.00674033 0)
(1.05105 0.00619595 0)
(1.05162 0.00548841 0)
(1.0524 0.00452638 0)
(1.00104 0.0124623 0)
(1.01446 0.0209793 0)
(1.02608 0.0179253 0)
(1.03078 0.0155061 0)
(1.03242 0.0148704 0)
(1.03403 0.0141357 0)
(1.03568 0.0131889 0)
(1.037 0.0124313 0)
(1.038 0.011878 0)
(1.03882 0.0114169 0)
(1.03954 0.011007 0)
(1.04017 0.0106464 0)
(1.04073 0.0103312 0)
(1.04122 0.010053 0)
(1.04167 0.00980469 0)
(1.04206 0.00958174 0)
(1.04243 0.00938082 0)
(1.04276 0.00919935 0)
(1.04306 0.00903529 0)
(1.04334 0.00888701 0)
(1.0436 0.00875324 0)
(1.04385 0.00863297 0)
(1.04408 0.00852541 0)
(1.04429 0.00842991 0)
(1.0445 0.0083459 0)
(1.0447 0.00827288 0)
(1.04488 0.00821035 0)
(1.04506 0.00815776 0)
(1.04523 0.00811451 0)
(1.04539 0.00807992 0)
(1.04555 0.00805319 0)
(1.0457 0.00803349 0)
(1.04584 0.00801964 0)
(1.04598 0.00801073 0)
(1.04612 0.00800484 0)
(1.04626 0.00800103 0)
(1.0464 0.00799594 0)
(1.04654 0.0079885 0)
(1.04669 0.00797295 0)
(1.04686 0.0079474 0)
(1.04704 0.00790303 0)
(1.04724 0.0078346 0)
(1.04747 0.00773111 0)
(1.04774 0.00757784 0)
(1.04804 0.00736482 0)
(1.04839 0.00705909 0)
(1.0488 0.00665329 0)
(1.0493 0.00609295 0)
(1.04989 0.00535176 0)
(1.05067 0.00433699 0)
(1.0009 0.0112904 0)
(1.01295 0.0198648 0)
(1.02398 0.0174586 0)
(1.02877 0.0151355 0)
(1.03049 0.0145455 0)
(1.03205 0.0139254 0)
(1.03368 0.0130443 0)
(1.03501 0.012306 0)
(1.036 0.011767 0)
(1.03681 0.0113223 0)
(1.03752 0.0109254 0)
(1.03815 0.0105742 0)
(1.03869 0.0102663 0)
(1.03918 0.00999432 0)
(1.03961 0.0097514 0)
(1.04 0.00953296 0)
(1.04035 0.00933586 0)
(1.04067 0.00915765 0)
(1.04096 0.00899635 0)
(1.04124 0.00885041 0)
(1.04149 0.00871862 0)
(1.04172 0.00860004 0)
(1.04194 0.00849393 0)
(1.04215 0.00839969 0)
(1.04235 0.0083168 0)
(1.04254 0.00824478 0)
(1.04272 0.00818316 0)
(1.04289 0.00813141 0)
(1.04305 0.00808893 0)
(1.04321 0.00805505 0)
(1.04336 0.00802891 0)
(1.04351 0.00800967 0)
(1.04365 0.00799608 0)
(1.04379 0.00798718 0)
(1.04392 0.00798101 0)
(1.04406 0.00797647 0)
(1.0442 0.00797031 0)
(1.04435 0.00796102 0)
(1.04451 0.00794329 0)
(1.04468 0.00791433 0)
(1.04487 0.00786621 0)
(1.04508 0.00779235 0)
(1.04532 0.00768272 0)
(1.04559 0.00752184 0)
(1.0459 0.00729893 0)
(1.04625 0.00698326 0)
(1.04666 0.00656159 0)
(1.04715 0.00598448 0)
(1.04773 0.00521314 0)
(1.04846 0.00415147 0)
(1.00078 0.0102165 0)
(1.01157 0.0187663 0)
(1.02199 0.0169834 0)
(1.02685 0.0147738 0)
(1.02864 0.0142172 0)
(1.03017 0.0137043 0)
(1.03177 0.0128945 0)
(1.0331 0.0121786 0)
(1.03409 0.0116536 0)
(1.0349 0.0112254 0)
(1.0356 0.0108423 0)
(1.03621 0.0105009 0)
(1.03675 0.0102006 0)
(1.03723 0.00993512 0)
(1.03765 0.00969774 0)
(1.03803 0.00948399 0)
(1.03837 0.00929084 0)
(1.03868 0.00911597 0)
(1.03897 0.00895751 0)
(1.03923 0.00881399 0)
(1.03947 0.00868425 0)
(1.0397 0.00856741 0)
(1.03991 0.00846279 0)
(1.04011 0.00836984 0)
(1.0403 0.00828808 0)
(1.04048 0.00821707 0)
(1.04065 0.00815637 0)
(1.04081 0.00810546 0)
(1.04097 0.00806375 0)
(1.04112 0.00803054 0)
(1.04126 0.00800495 0)
(1.0414 0.00798611 0)
(1.04154 0.00797272 0)
(1.04167 0.00796373 0)
(1.0418 0.00795719 0)
(1.04193 0.0079518 0)
(1.04207 0.00794443 0)
(1.04221 0.00793319 0)
(1.04237 0.0079131 0)
(1.04253 0.00788067 0)
(1.04272 0.00782861 0)
(1.04292 0.00774942 0)
(1.04315 0.00763354 0)
(1.04341 0.00746529 0)
(1.0437 0.0072328 0)
(1.04404 0.00690739 0)
(1.04443 0.00647115 0)
(1.04488 0.00587757 0)
(1.04542 0.00508012 0)
(1.04607 0.00397909 0)
(1.00067 0.00923656 0)
(1.01031 0.0176882 0)
(1.02012 0.0164974 0)
(1.02502 0.0144207 0)
(1.02688 0.0138874 0)
(1.02838 0.0134727 0)
(1.02995 0.0127387 0)
(1.03127 0.012049 0)
(1.03227 0.0115381 0)
(1.03307 0.0111262 0)
(1.03376 0.0107575 0)
(1.03437 0.0104265 0)
(1.0349 0.0101341 0)
(1.03537 0.00987529 0)
(1.03578 0.00964364 0)
(1.03615 0.00943474 0)
(1.03648 0.00924568 0)
(1.03679 0.00907427 0)
(1.03706 0.00891875 0)
(1.03732 0.00877771 0)
(1.03755 0.00865008 0)
(1.03777 0.00853504 0)
(1.03797 0.00843196 0)
(1.03817 0.00834034 0)
(1.03835 0.00825975 0)
(1.03852 0.00818979 0)
(1.03868 0.00813004 0)
(1.03884 0.00808001 0)
(1.03899 0.00803909 0)
(1.03913 0.00800658 0)
(1.03926 0.00798156 0)
(1.0394 0.00796313 0)
(1.03952 0.00794995 0)
(1.03965 0.00794088 0)
(1.03977 0.00793397 0)
(1.0399 0.00792773 0)
(1.04003 0.00791915 0)
(1.04016 0.00790599 0)
(1.04031 0.00788355 0)
(1.04046 0.00784778 0)
(1.04063 0.0077918 0)
(1.04083 0.00770755 0)
(1.04104 0.00758561 0)
(1.04128 0.00741044 0)
(1.04156 0.00716905 0)
(1.04187 0.00683443 0)
(1.04222 0.00638528 0)
(1.04263 0.00577647 0)
(1.04311 0.0049574 0)
(1.04367 0.00382567 0)
(1.00058 0.00834588 0)
(1.00917 0.0166348 0)
(1.01836 0.0159991 0)
(1.02327 0.0140756 0)
(1.02521 0.0135582 0)
(1.02668 0.0132313 0)
(1.02822 0.0125764 0)
(1.02954 0.0119169 0)
(1.03054 0.0114203 0)
(1.03133 0.0110247 0)
(1.03201 0.0106709 0)
(1.03261 0.0103508 0)
(1.03314 0.0100667 0)
(1.03359 0.00981476 0)
(1.034 0.00958903 0)
(1.03436 0.00938515 0)
(1.03469 0.00920031 0)
(1.03498 0.00903248 0)
(1.03525 0.00887999 0)
(1.0355 0.00874152 0)
(1.03573 0.00861606 0)
(1.03594 0.00850288 0)
(1.03613 0.00840139 0)
(1.03632 0.00831115 0)
(1.03649 0.00823177 0)
(1.03666 0.00816291 0)
(1.03681 0.00810416 0)
(1.03696 0.00805504 0)
(1.0371 0.00801495 0)
(1.03724 0.00798318 0)
(1.03737 0.00795879 0)
(1.03749 0.00794081 0)
(1.03761 0.00792788 0)
(1.03773 0.00791877 0)
(1.03784 0.00791153 0)
(1.03796 0.00790451 0)
(1.03808 0.00789478 0)
(1.03821 0.0078798 0)
(1.03834 0.0078551 0)
(1.03849 0.00781618 0)
(1.03865 0.00775646 0)
(1.03882 0.00766752 0)
(1.03902 0.00753991 0)
(1.03924 0.00735839 0)
(1.03949 0.00710899 0)
(1.03977 0.006766 0)
(1.04009 0.00630582 0)
(1.04045 0.00568383 0)
(1.04086 0.00484802 0)
(1.04132 0.00369496 0)
(1.0005 0.00753946 0)
(1.00813 0.0156103 0)
(1.01672 0.0154873 0)
(1.0216 0.0137376 0)
(1.02363 0.0132313 0)
(1.02507 0.0129808 0)
(1.02657 0.0124069 0)
(1.02788 0.0117822 0)
(1.02889 0.0113004 0)
(1.02968 0.0109207 0)
(1.03035 0.0105823 0)
(1.03094 0.0102737 0)
(1.03146 0.00999824 0)
(1.03191 0.00975343 0)
(1.03231 0.00953382 0)
(1.03267 0.00933513 0)
(1.03299 0.00915467 0)
(1.03327 0.00899053 0)