/*--------------------------------*- C++ -*----------------------------------*\
  =========                 |
  \\      /  F ield         | OpenFOAM: The Open Source CFD Toolbox
   \\    /   O peration     | Website:  https://openfoam.org
    \\  /    A nd           | Version:  7
     \\/     M anipulation  |
\*---------------------------------------------------------------------------*/
FoamFile
{
    version     2.0;
    format      ascii;
    class       volVectorField;
    location    "0.16";
    object      wallShearStress;
}
// * * * * * * * * * * * * * * * * * * * * * * * * * * * * * * * * * * * * * //

dimensions      [0 2 -2 0 0 0 0];

internalField   uniform (0 0 0);

boundaryField
{
    velocityInlet
    {
        type            calculated;
        value           uniform (0 0 0);
    }
    pressureOutlet
    {
        type            calculated;
        value           uniform (0 0 0);
    }
    fixedWalls
    {
        type            calculated;
        value           nonuniform List<vector> 
100
(
(-0.0130068 -0.00450326 0)
(0.00282035 -0.000814236 0)
(-0.00112853 0.000342794 0)
(-0.000217589 7.17732e-06 0)
(-0.000788923 1.74227e-05 0)
(-0.000524983 -5.11817e-06 0)
(-0.00102951 0.000100275 0)
(-0.002542 0.000284618 0)
(-0.00493841 0.000364171 0)
(-0.00631731 0.000183998 0)
(-0.00407093 -0.000628654 0)
(0.00301862 -0.00119076 0)
(0.0102001 -0.00118236 0)
(0.0130352 -0.000415678 0)
(0.0107412 0.000432529 0)
(0.00548903 0.000757087 0)
(8.40498e-05 0.000641089 0)
(-0.00369744 0.000370421 0)
(-0.0055491 0.000137998 0)
(-0.00605512 1.65272e-05 0)
(-0.00588989 -3.53278e-05 0)
(-0.00547975 -4.96173e-05 0)
(-0.00501847 -4.99508e-05 0)
(-0.00457935 -4.62296e-05 0)
(-0.00418534 -4.13932e-05 0)
(-0.00384408 -3.58349e-05 0)
(-0.0035594 -2.9582e-05 0)
(-0.00333211 -2.30262e-05 0)
(-0.00315864 -1.67961e-05 0)
(-0.00303159 -1.13334e-05 0)
(-0.00294179 -6.72643e-06 0)
(-0.00287973 -2.93872e-06 0)
(-0.00283463 -2.08793e-07 0)
(-0.00279245 7.82348e-07 0)
(-0.00273497 -8.99559e-07 0)
(-0.00264084 -5.95443e-06 0)
(-0.00248906 -1.45449e-05 0)
(-0.00226381 -2.60284e-05 0)
(-0.00196096 -3.86535e-05 0)
(-0.00159474 -4.94376e-05 0)
(-0.00120292 -5.45425e-05 0)
(-0.000845033 -5.05343e-05 0)
(-0.000590176 -3.69212e-05 0)
(-0.000496482 -1.72666e-05 0)
(-0.000587785 7.56628e-06 0)
(-0.00084417 2.82564e-05 0)
(-0.00121448 4.14214e-05 0)
(-0.0016406 4.65349e-05 0)
(-0.00208156 4.69998e-05 0)
(-0.00252799 4.81562e-05 0)
(-0.00299949 5.40384e-05 0)
(-0.00351227 6.32318e-05 0)
(-0.00401901 6.61832e-05 0)
(-0.00437068 5.24964e-05 0)
(-0.00434924 9.8703e-06 0)
(-0.00376929 -5.86154e-05 0)
(-0.00259089 -0.000133597 0)
(-0.00100628 -0.000185035 0)
(0.000548086 -0.000173209 0)
(0.00150819 -0.000101326 0)
(0.00148577 1.48179e-05 0)
(0.000610642 9.61471e-05 0)
(-0.000634991 0.000120107 0)
(-0.001802 0.000106706 0)
(-0.0026576 7.38435e-05 0)
(-0.00318546 4.42446e-05 0)
(-0.00346568 2.38214e-05 0)
(-0.00358116 1.13405e-05 0)
(-0.00358362 2.37752e-06 0)
(-0.00350104 -5.15565e-06 0)
(-0.00335741 -1.05964e-05 0)
(-0.00318258 -1.30505e-05 0)
(-0.0030072 -1.24954e-05 0)
(-0.00285074 -1.03649e-05 0)
(-0.00271433 -8.74216e-06 0)
(-0.00258441 -9.04797e-06 0)
(-0.00244624 -1.0992e-05 0)
(-0.00230095 -1.22867e-05 0)
(-0.00217326 -1.01285e-05 0)
(-0.00209661 -4.13667e-06 0)
(-0.00208679 3.36506e-06 0)
(-0.00209944 6.61966e-06 0)
(-0.00198811 -6.50759e-06 0)
(-0.00153969 -4.01719e-05 0)
(-0.000733953 -6.85752e-05 0)
(6.78379e-05 -5.87928e-05 0)
(0.000398 -1.40095e-05 0)
(0.000172105 2.8625e-05 0)
(-0.000273973 3.61616e-05 0)
(-0.000568672 1.61526e-05 0)
(-0.000537919 -1.46599e-05 0)
(-0.000250859 -3.57616e-05 0)
(9.44392e-05 -3.52396e-05 0)
(0.000240842 -1.62322e-05 0)
(6.27054e-05 1.23764e-05 0)
(-0.000417003 3.76085e-05 0)
(-0.00118763 5.51655e-05 0)
(-0.00179872 5.07936e-05 0)
(-0.00272925 6.3206e-05 0)
(-0.0035381 3.60744e-05 0)
)
;
    }
    bottomWall
    {
        type            calculated;
        value           nonuniform List<vector> 
800
(
(-0.0353488 0.00214397 0)
(-0.0160267 0.000524827 0)
(-0.0106081 0.000100705 0)
(-0.0084566 3.5248e-05 0)
(-0.00748725 1.98475e-05 0)
(-0.00685405 1.61068e-05 0)
(-0.00634703 1.33408e-05 0)
(-0.00593633 1.08851e-05 0)
(-0.00560197 9.0642e-06 0)
(-0.00532351 7.74893e-06 0)
(-0.00508635 6.75346e-06 0)
(-0.00488105 5.96725e-06 0)
(-0.00470115 5.33021e-06 0)
(-0.00454193 4.80503e-06 0)
(-0.00439981 4.366e-06 0)
(-0.00427201 3.99424e-06 0)
(-0.00415636 3.67603e-06 0)
(-0.00405111 3.40111e-06 0)
(-0.00395486 3.16149e-06 0)
(-0.00386644 2.95111e-06 0)
(-0.0037849 2.76509e-06 0)
(-0.00370943 2.59963e-06 0)
(-0.00363936 2.45166e-06 0)
(-0.00357409 2.31875e-06 0)
(-0.00351315 2.19879e-06 0)
(-0.00345609 2.08995e-06 0)
(-0.00340256 1.991e-06 0)
(-0.00335221 1.90062e-06 0)
(-0.00330478 1.81785e-06 0)
(-0.00326 1.74179e-06 0)
(-0.00321767 1.67175e-06 0)
(-0.00317756 1.6071e-06 0)
(-0.00313952 1.54723e-06 0)
(-0.00310338 1.49169e-06 0)
(-0.00306901 1.43992e-06 0)
(-0.00303627 1.39187e-06 0)
(-0.00300504 1.34697e-06 0)
(-0.00297523 1.30496e-06 0)
(-0.00294674 1.26555e-06 0)
(-0.00291948 1.22859e-06 0)
(-0.00289338 1.19388e-06 0)
(-0.00286836 1.16113e-06 0)
(-0.00284435 1.13031e-06 0)
(-0.0028213 1.10119e-06 0)
(-0.00279915 1.0738e-06 0)
(-0.00277785 1.04768e-06 0)
(-0.00275734 1.02341e-06 0)
(-0.0027376 9.99487e-07 0)
(-0.00271855 9.78005e-07 0)
(-0.00270021 9.55171e-07 0)
(-0.00268487 9.36503e-07 0)
(-0.0026722 9.25824e-07 0)
(-0.00265969 9.12262e-07 0)
(-0.00264737 8.97857e-07 0)
(-0.00263524 8.84275e-07 0)
(-0.00262328 8.71607e-07 0)
(-0.0026115 8.5899e-07 0)
(-0.00259989 8.46613e-07 0)
(-0.00258844 8.34832e-07 0)
(-0.00257716 8.23143e-07 0)
(-0.00256603 8.1187e-07 0)
(-0.00255505 8.00843e-07 0)
(-0.00254422 7.89892e-07 0)
(-0.00253354 7.79348e-07 0)
(-0.002523 7.69042e-07 0)
(-0.0025126 7.58971e-07 0)
(-0.00250233 7.49135e-07 0)
(-0.0024922 7.3953e-07 0)
(-0.0024822 7.30153e-07 0)
(-0.00247232 7.21003e-07 0)
(-0.00246256 7.11912e-07 0)
(-0.00245294 7.03043e-07 0)
(-0.00244342 6.94563e-07 0)
(-0.00243402 6.86135e-07 0)
(-0.00242474 6.77925e-07 0)
(-0.00241557 6.69766e-07 0)
(-0.00240651 6.61821e-07 0)
(-0.00239755 6.54259e-07 0)
(-0.0023887 6.46575e-07 0)
(-0.00237995 6.39105e-07 0)
(-0.0023713 6.31845e-07 0)
(-0.00236275 6.24795e-07 0)
(-0.00235429 6.17787e-07 0)
(-0.00234593 6.10821e-07 0)
(-0.00233767 6.04228e-07 0)
(-0.00232949 5.97673e-07 0)
(-0.0023214 5.91323e-07 0)
(-0.00231339 5.8501e-07 0)
(-0.00230547 5.78732e-07 0)
(-0.00229764 5.72655e-07 0)
(-0.00228989 5.66611e-07 0)
(-0.00228222 5.60766e-07 0)
(-0.00227463 5.55118e-07 0)
(-0.00226712 5.495e-07 0)
(-0.00225968 5.43743e-07 0)
(-0.00225232 5.38349e-07 0)
(-0.00224503 5.33147e-07 0)
(-0.00223782 5.27805e-07 0)
(-0.00223068 5.22487e-07 0)
(-0.00222361 5.1736e-07 0)
(-0.0022166 5.1259e-07 0)
(-0.00220966 5.07508e-07 0)
(-0.0022028 5.02616e-07 0)
(-0.00219599 4.97912e-07 0)
(-0.00218926 4.93062e-07 0)
(-0.00218259 4.88566e-07 0)
(-0.00217597 4.84089e-07 0)
(-0.00216942 4.79466e-07 0)
(-0.00216294 4.74861e-07 0)
(-0.00215651 4.70609e-07 0)
(-0.00215014 4.66373e-07 0)
(-0.00214383 4.61989e-07 0)
(-0.00213758 4.57956e-07 0)
(-0.00213138 4.53773e-07 0)
(-0.00212525 4.49605e-07 0)
(-0.00211916 4.45788e-07 0)
(-0.00211313 4.41818e-07 0)
(-0.00210716 4.37698e-07 0)
(-0.00210124 4.33925e-07 0)
(-0.00209536 4.30167e-07 0)
(-0.00208955 4.26257e-07 0)
(-0.00208378 4.22693e-07 0)
(-0.00207806 4.19143e-07 0)
(-0.00207239 4.15439e-07 0)
(-0.00206677 4.11748e-07 0)
(-0.00206121 4.08236e-07 0)
(-0.00205568 4.049e-07 0)
(-0.00205021 4.01411e-07 0)
(-0.00204478 3.97933e-07 0)
(-0.0020394 3.94634e-07 0)
(-0.00203406 3.91345e-07 0)
(-0.00202877 3.879e-07 0)
(-0.00202353 3.84632e-07 0)
(-0.00201832 3.81543e-07 0)
(-0.00201316 3.78464e-07 0)
(-0.00200804 3.75226e-07 0)
(-0.00200298 3.72001e-07 0)
(-0.00199794 3.69115e-07 0)
(-0.00199295 3.66076e-07 0)
(-0.001988 3.6304e-07 0)
(-0.00198309 3.60025e-07 0)
(-0.00197823 3.56999e-07 0)
(-0.0019734 3.5418e-07 0)
(-0.00196861 3.51322e-07 0)
(-0.00196386 3.48544e-07 0)
(-0.00195915 3.45503e-07 0)
(-0.00195449 3.42782e-07 0)
(-0.00194985 3.40032e-07 0)
(-0.00194525 3.37368e-07 0)
(-0.0019407 3.34369e-07 0)
(-0.00193687 3.31813e-07 0)
(-0.00193374 3.30293e-07 0)
(-0.00193061 3.28622e-07 0)
(-0.00192747 3.26866e-07 0)
(-0.00192433 3.24677e-07 0)
(-0.00192119 3.22779e-07 0)
(-0.00191804 3.21109e-07 0)
(-0.00191489 3.19223e-07 0)
(-0.00191174 3.1734e-07 0)
(-0.00190858 3.15691e-07 0)
(-0.00190541 3.13826e-07 0)
(-0.00190224 3.1175e-07 0)
(-0.00189908 3.09892e-07 0)
(-0.0018959 3.08061e-07 0)
(-0.00189273 3.06218e-07 0)
(-0.00188955 3.04612e-07 0)
(-0.00188636 3.02794e-07 0)
(-0.00188318 3.00768e-07 0)
(-0.00187999 2.98964e-07 0)
(-0.0018768 2.97169e-07 0)
(-0.00187361 2.95381e-07 0)
(-0.00187041 2.93398e-07 0)
(-0.00186722 2.91617e-07 0)
(-0.00186401 2.89865e-07 0)
(-0.00186081 2.87896e-07 0)
(-0.00185761 2.86354e-07 0)
(-0.0018544 2.84416e-07 0)
(-0.00185119 2.82483e-07 0)
(-0.00184798 2.80764e-07 0)
(-0.00184477 2.79054e-07 0)
(-0.00184155 2.77339e-07 0)
(-0.00183833 2.7546e-07 0)
(-0.00183512 2.73568e-07 0)
(-0.0018319 2.71702e-07 0)
(-0.00182868 2.70032e-07 0)
(-0.00182546 2.68369e-07 0)
(-0.00182223 2.66532e-07 0)
(-0.00181901 2.64705e-07 0)
(-0.00181578 2.62879e-07 0)
(-0.00181256 2.61261e-07 0)
(-0.00180933 2.59453e-07 0)
(-0.00180611 2.57667e-07 0)
(-0.00180287 2.56071e-07 0)
(-0.00179964 2.54301e-07 0)
(-0.00179641 2.52722e-07 0)
(-0.00179318 2.50974e-07 0)
(-0.00178995 2.49068e-07 0)
(-0.00178672 2.47519e-07 0)
(-0.00178348 2.4597e-07 0)
(-0.00178024 2.44107e-07 0)
(-0.00177701 2.42403e-07 0)
(-0.00177377 2.40896e-07 0)
(-0.00177054 2.39397e-07 0)
(-0.00176729 2.37737e-07 0)
(-0.00176406 2.35932e-07 0)
(-0.00176082 2.34463e-07 0)
(-0.00175758 2.32837e-07 0)
(-0.00175434 2.31231e-07 0)
(-0.0017511 2.29787e-07 0)
(-0.00174785 2.282e-07 0)
(-0.00174461 2.26628e-07 0)
(-0.00174137 2.25217e-07 0)
(-0.00173812 2.23674e-07 0)
(-0.00173487 2.22138e-07 0)
(-0.00173162 2.20767e-07 0)
(-0.00172838 2.19406e-07 0)
(-0.00172512 2.17902e-07 0)
(-0.00172187 2.16414e-07 0)
(-0.00171861 2.15093e-07 0)
(-0.00171536 2.13778e-07 0)
(-0.00171209 2.12481e-07 0)
(-0.00170883 2.11045e-07 0)
(-0.00170557 2.09778e-07 0)
(-0.0017023 2.08674e-07 0)
(-0.00169903 2.07272e-07 0)
(-0.00169576 2.06062e-07 0)
(-0.00169248 2.04943e-07 0)
(-0.00168919 2.03661e-07 0)
(-0.00168591 2.0251e-07 0)
(-0.00168262 2.01641e-07 0)
(-0.00167932 2.0034e-07 0)
(-0.00167602 1.99504e-07 0)
(-0.00167272 1.98077e-07 0)
(-0.00166939 1.97933e-07 0)
(-0.0016661 1.95626e-07 0)
(-0.00166273 1.96835e-07 0)
(-0.00165945 1.92675e-07 0)
(-0.00165603 1.96825e-07 0)
(-0.0016528 1.88563e-07 0)
(-0.00164925 1.99401e-07 0)
(-0.00164615 1.81267e-07 0)
(-0.00164235 2.06959e-07 0)
(-0.00163956 1.6703e-07 0)
(-0.00163528 2.24863e-07 0)
(-0.00163307 1.39572e-07 0)
(-0.00162794 2.61605e-07 0)
(-0.00162676 8.75217e-08 0)
(-0.0016203 3.26879e-07 0)
(-0.00162061 4.64972e-09 0)
(-0.00161244 3.60258e-07 0)
(-0.0353488 -0.00214399 0)
(-0.0160261 -0.000524856 0)
(-0.0106067 -0.000100744 0)
(-0.00845392 -3.52891e-05 0)
(-0.00748311 -1.98929e-05 0)
(-0.00684824 -1.61576e-05 0)
(-0.00633938 -1.33954e-05 0)
(-0.00592677 -1.09424e-05 0)
(-0.00559046 -9.12384e-06 0)
(-0.00531 -7.81065e-06 0)
(-0.00507082 -6.8174e-06 0)
(-0.00486344 -6.03398e-06 0)
(-0.00468137 -5.40041e-06 0)
(-0.00451988 -4.87974e-06 0)
(-0.00437534 -4.44596e-06 0)
(-0.00424497 -4.08016e-06 0)
(-0.00412657 -3.76859e-06 0)
(-0.00401839 -3.50083e-06 0)
(-0.00391899 -3.26886e-06 0)
(-0.00382721 -3.06627e-06 0)
(-0.0037421 -2.8884e-06 0)
(-0.00366283 -2.73133e-06 0)
(-0.00358873 -2.59168e-06 0)
(-0.00351923 -2.46695e-06 0)
(-0.00345382 -2.35483e-06 0)
(-0.00339209 -2.25342e-06 0)
(-0.00333368 -2.16098e-06 0)
(-0.00327827 -2.07636e-06 0)
(-0.0032256 -1.9978e-06 0)
(-0.00317544 -1.92418e-06 0)
(-0.00312761 -1.8537e-06 0)
(-0.00308193 -1.78613e-06 0)
(-0.0030383 -1.71821e-06 0)
(-0.00299659 -1.65099e-06 0)
(-0.00295681 -1.57821e-06 0)
(-0.00291882 -1.50468e-06 0)
(-0.00288281 -1.41704e-06 0)
(-0.00284865 -1.32751e-06 0)
(-0.00281661 -1.21119e-06 0)
(-0.00278687 -1.09018e-06 0)
(-0.00275928 -9.27961e-07 0)
(-0.00273554 -7.44491e-07 0)
(-0.0027128 -5.25579e-07 0)
(-0.00269872 -2.08349e-07 0)
(-0.00268012 3.8697e-08 0)
(-0.00268387 6.6612e-07 0)
(-0.00266468 7.35287e-07 0)
(-0.00270276 2.39033e-06 0)
(-0.00267601 -3.62561e-06 0)
(-0.00258158 0.000196641 0)
(2.85967e-05 -9.99726e-06 0)
(3.88366e-05 -7.89046e-05 0)
(3.01718e-05 -0.000146677 0)
(1.95523e-05 -0.000194627 0)
(8.89509e-06 -0.000228873 0)
(1.62223e-06 -0.000246823 0)
(-1.71615e-07 -0.000253004 0)
(2.67278e-06 -0.000254628 0)
(7.05919e-06 -0.000257944 0)
(1.09686e-05 -0.000265761 0)
(1.39511e-05 -0.000278644 0)
(1.6196e-05 -0.000296174 0)
(1.79922e-05 -0.000317547 0)
(1.95952e-05 -0.000342024 0)
(2.12261e-05 -0.000369163 0)
(2.30501e-05 -0.000398841 0)
(2.51515e-05 -0.000431153 0)
(2.75473e-05 -0.000466288 0)
(3.02259e-05 -0.000504441 0)
(3.31915e-05 -0.000545774 0)
(3.64951e-05 -0.000590438 0)
(4.02866e-05 -0.000638631 0)
(4.48296e-05 -0.000690742 0)
(5.04355e-05 -0.000747483 0)
(5.73438e-05 -0.000809927 0)
(6.56018e-05 -0.000879367 0)
(7.5114e-05 -0.000957096 0)
(8.54762e-05 -0.00104453 0)
(9.46324e-05 -0.00114304 0)
(9.81783e-05 -0.0012516 0)
(9.28538e-05 -0.00136492 0)
(7.50397e-05 -0.00147815 0)
(2.34629e-05 -0.00158248 0)
(-8.64922e-05 -0.0016351 0)
(-0.000215534 -0.00157447 0)
(-0.000267297 -0.00140096 0)
(-0.000199955 -0.00119595 0)
(-7.7831e-05 -0.00103914 0)
(2.53679e-05 -0.000950711 0)
(8.99022e-05 -0.000923617 0)
(0.000123767 -0.000954806 0)
(0.000130724 -0.00102862 0)
(0.000118379 -0.00111478 0)
(0.00011164 -0.00120985 0)
(9.61611e-05 -0.00131902 0)
(-3.32126e-05 -0.00134268 0)
(-0.00030589 -0.00106978 0)
(-0.000520566 -0.000563912 0)
(-0.000580846 -6.23228e-05 0)
(-0.000550118 0.000358826 0)
(-0.000483389 0.000704902 0)
(-0.000403665 0.00098398 0)
(-0.000321976 0.00119968 0)
(-0.000244774 0.00135777 0)
(-0.000175393 0.00146557 0)
(-0.00011549 0.00153212 0)
(-6.51547e-05 0.00156414 0)
(-2.46214e-05 0.00156829 0)
(7.48051e-06 0.0015517 0)
(3.21009e-05 0.00151968 0)
(5.02426e-05 0.0014765 0)
(6.27326e-05 0.0014259 0)
(7.04059e-05 0.00137099 0)
(7.40742e-05 0.00131439 0)
(7.45536e-05 0.00125814 0)
(7.26241e-05 0.00120386 0)
(6.90011e-05 0.00115272 0)
(6.433e-05 0.00110556 0)
(5.91871e-05 0.00106292 0)
(5.40943e-05 0.00102508 0)
(4.95407e-05 0.000992086 0)
(4.60042e-05 0.000963799 0)
(4.39556e-05 0.000939844 0)
(4.37349e-05 0.00091956 0)
(4.53006e-05 0.000901995 0)
(4.8011e-05 0.000886413 0)
(5.07372e-05 0.000872143 0)
(5.24793e-05 0.000857889 0)
(5.28119e-05 0.000843132 0)
(5.17168e-05 0.000827438 0)
(4.92099e-05 0.000810608 0)
(4.50795e-05 0.000793127 0)
(3.93592e-05 0.000776308 0)
(3.28385e-05 0.000761579 0)
(2.66638e-05 0.00074952 0)
(2.13852e-05 0.000739809 0)
(1.68609e-05 0.000732017 0)
(1.33073e-05 0.000725832 0)
(1.18704e-05 0.000720375 0)
(1.36424e-05 0.000713623 0)
(1.88704e-05 0.000703443 0)
(2.70835e-05 0.000688337 0)
(3.75562e-05 0.000667462 0)
(4.94079e-05 0.0006404 0)
(6.15377e-05 0.000607205 0)
(7.27928e-05 0.000568566 0)
(8.22744e-05 0.000525768 0)
(8.94482e-05 0.000480082 0)
(9.40982e-05 0.000432762 0)
(9.61431e-05 0.000384788 0)
(9.53203e-05 0.00033692 0)
(9.10293e-05 0.000290017 0)
(8.24042e-05 0.000245348 0)
(6.86582e-05 0.000204823 0)
(4.95419e-05 0.000170838 0)
(2.56055e-05 0.000145831 0)
(-1.851e-06 0.000131733 0)
(-3.06388e-05 0.000130296 0)
(-5.58781e-05 0.000142435 0)
(-7.19957e-05 0.000166985 0)
(-7.54737e-05 0.000201099 0)
(-6.75911e-05 0.000244887 0)
(-5.05742e-05 0.000306993 0)
(-1.79296e-05 0.000394187 0)
(3.33768e-05 0.000483399 0)
(6.60924e-05 0.000528725 0)
(2.64275e-06 0.000511856 0)
(-0.0002243 0.000489578 0)
(-0.000588478 0.000610859 0)
(-0.000889207 0.000984449 0)
(-0.000901915 0.0014492 0)
(-0.000694024 0.00171946 0)
(-0.000510663 0.00178789 0)
(-0.00041007 0.00183291 0)
(-0.00032536 0.00189577 0)
(-0.000249211 0.00193634 0)
(-0.000192871 0.00196045 0)
(-0.000147939 0.00197971 0)
(-0.000110899 0.0019914 0)
(-8.16693e-05 0.0019968 0)
(-5.8024e-05 0.00199816 0)
(-3.8725e-05 0.0019958 0)
(-2.29731e-05 0.00199051 0)
(-9.69387e-06 0.00198297 0)
(1.864e-06 0.00197333 0)
(1.21612e-05 0.00196177 0)
(2.16163e-05 0.00194841 0)
(3.05604e-05 0.0019333 0)
(3.92466e-05 0.00191644 0)
(4.78756e-05 0.00189783 0)
(5.66186e-05 0.00187742 0)
(6.55877e-05 0.00185512 0)
(7.48755e-05 0.00183089 0)
(8.45434e-05 0.00180462 0)
(9.46519e-05 0.00177624 0)
(0.000105221 0.00174564 0)
(0.00011626 0.00171277 0)
(0.00012778 0.00167751 0)
(0.000139749 0.00163979 0)
(0.000152145 0.00159957 0)
(0.000164916 0.00155678 0)
(0.00017802 0.0015114 0)
(0.000191397 0.0014634 0)
(0.000204966 0.00141279 0)
(0.000218659 0.0013596 0)
(0.000232401 0.00130387 0)
(0.0002461 0.00124566 0)
(0.000259674 0.00118502 0)
(0.000273003 0.00112205 0)
(0.000285952 0.00105689 0)
(0.000298432 0.000989701 0)
(0.000310328 0.000920628 0)
(0.00032152 0.000849867 0)
(0.000331891 0.000777626 0)
(0.000341318 0.000704147 0)
(0.000349734 0.00062969 0)
(0.00035743 0.000554881 0)
(0.000365323 0.000481175 0)
(0.000371938 0.000406702 0)
(0.000377127 0.000331698 0)
(0.000380646 0.000256221 0)
(0.000382116 0.000180364 0)
(0.000381091 0.000104458 0)
(0.000377128 2.9139e-05 0)
(0.000369917 -4.47031e-05 0)
(0.00035941 -0.000116063 0)
(0.000345859 -0.000184148 0)
(0.000329543 -0.000248524 0)
(0.000310675 -0.000309044 0)
(0.000289404 -0.000365841 0)
(0.000265757 -0.000419358 0)
(0.000240412 -0.000471518 0)
(0.000211339 -0.000519248 0)
(0.000178458 -0.000562058 0)
(0.000141684 -0.000599371 0)
(0.000101034 -0.000630551 0)
(5.66564e-05 -0.000654956 0)
(8.92988e-06 -0.000671927 0)
(-4.19683e-05 -0.000680734 0)
(-9.52432e-05 -0.000680373 0)
(-0.000149662 -0.000670389 0)
(-0.000204205 -0.000650314 0)
(-0.000257553 -0.000619971 0)
(-0.000308285 -0.000579964 0)
(-0.00035524 -0.000533225 0)
(-0.000398968 -0.000488792 0)
(-0.00044643 -0.000468398 0)
(-0.000520461 -0.000512388 0)
(-0.00065545 -0.000671116 0)
(-0.000866883 -0.000969896 0)
(3.34102e-07 -2.85794e-05 0)
(4.86247e-05 -3.54823e-05 0)
(7.67884e-05 -1.98847e-05 0)
(7.49073e-05 -2.95785e-06 0)
(6.76631e-05 -1.51671e-06 0)
(6.49514e-05 -3.33244e-06 0)
(6.3117e-05 -5.02504e-06 0)
(6.2345e-05 -9.43873e-06 0)
(6.82337e-05 -1.73136e-05 0)
(8.70106e-05 -2.34175e-05 0)
(0.000117617 -1.64528e-05 0)
(0.000142671 8.04098e-06 0)
(0.000142168 3.15541e-05 0)
(0.000127272 2.77038e-05 0)
(0.000130529 -5.07195e-06 0)
(0.000162863 -3.50857e-05 0)
(0.000190782 -2.36779e-05 0)
(0.000164024 3.1236e-05 0)
(7.48908e-05 8.25822e-05 0)
(-3.73487e-05 9.21044e-05 0)
(-0.000126311 6.52369e-05 0)
(-0.000172919 2.60653e-05 0)
(-0.000183097 -9.19644e-06 0)
(-0.000170369 -3.33403e-05 0)
(-0.000138608 -4.28299e-05 0)
(-9.83079e-05 -3.90286e-05 0)
(-5.84029e-05 -3.00544e-05 0)
(-2.80125e-05 -2.73993e-05 0)
(-7.66423e-06 -3.75753e-05 0)
(2.59783e-06 -5.20775e-05 0)
(9.76875e-07 -3.69925e-05 0)
(-4.79626e-06 1.77694e-05 0)
(-3.76651e-06 0.000111577 0)
(-5.2366e-07 0.000201304 0)
(-5.12158e-06 0.000202809 0)
(2.72921e-05 5.49309e-05 0)
(0.000175633 -0.000205932 0)
(0.00048693 -0.0004249 0)
(0.000844481 -0.000414103 0)
(0.00107012 -0.000271213 0)
(0.00120406 -0.000200404 0)
(0.00134562 -0.000190223 0)
(0.00149419 -0.000188624 0)
(0.00164215 -0.000198213 0)
(0.00179644 -0.000213296 0)
(0.00195713 -0.000223818 0)
(0.00212213 -0.000225939 0)
(0.00228765 -0.000219881 0)
(0.00244931 -0.000207735 0)
(0.00260178 -0.000191212 0)
(0.00273894 -0.000169269 0)
(0.0028527 -0.00013934 0)
(0.00293479 -9.98155e-05 0)
(0.00297782 -5.09509e-05 0)
(0.00297359 3.62197e-06 0)
(0.00291831 6.16793e-05 0)
(0.00281196 0.000125139 0)
(0.00264892 0.000192689 0)
(0.00242785 0.000261682 0)
(0.00214916 0.0003309 0)
(0.00181409 0.000398049 0)
(0.00142647 0.000460723 0)
(0.000991625 0.000516957 0)
(0.000516326 0.000564779 0)
(9.55305e-06 0.00060322 0)
(-0.000523471 0.000630476 0)
(-0.00107246 0.000643438 0)
(-0.00162305 0.000641427 0)
(-0.00216491 0.000622691 0)
(-0.00268444 0.000584987 0)
(-0.00316595 0.000526704 0)
(-0.00359238 0.000447477 0)
(-0.00394657 0.000348567 0)
(-0.00421275 0.000231542 0)
(-0.00437551 0.000102562 0)
(-0.0044312 -3.663e-05 0)
(-0.00437375 -0.000176279 0)
(-0.00421333 -0.000297528 0)
(-0.0039614 -0.000385442 0)
(-0.00365318 -0.000431633 0)
(-0.00332569 -0.000438778 0)
(-0.0030065 -0.000422261 0)
(-0.0027075 -0.000402087 0)
(-0.00242692 -0.000396794 0)
(-0.00214934 -0.000416728 0)
(-0.00185738 -0.00047128 0)
(-0.00151516 -0.000555919 0)
(-0.00112395 -0.000654458 0)
(-0.000608755 -0.000788097 0)
(0.000103151 -0.000687902 0)
(0.000660328 -0.000151535 0)
(0.000817912 0.000224961 0)
(0.000812132 0.000269724 0)
(0.000717541 0.000227062 0)
(0.00052179 0.000191854 0)
(0.0003837 0.000168068 0)
(0.000271149 0.000137399 0)
(0.000181429 0.000116152 0)
(0.000101399 0.000103172 0)
(1.57232e-06 9.15956e-05 0)
(8.61198e-05 4.38143e-05 0)
(7.39236e-05 0.000168633 0)
(5.45767e-05 0.000245497 0)
(3.75835e-05 0.000289676 0)
(3.48088e-05 0.000315949 0)
(4.20423e-05 0.000346418 0)
(5.11227e-05 0.000388262 0)
(5.86593e-05 0.000443794 0)
(6.6383e-05 0.000504788 0)
(7.66563e-05 0.000570713 0)
(8.97696e-05 0.000647922 0)
(0.000102622 0.000745237 0)
(0.000103458 0.000867629 0)
(7.52784e-05 0.00100388 0)
(1.74528e-05 0.00111797 0)
(-3.80054e-05 0.00117325 0)
(-6.58796e-05 0.00117436 0)
(-5.99745e-05 0.00115619 0)
(-1.75518e-05 0.00115379 0)
(4.93355e-05 0.00119442 0)
(9.58343e-05 0.00127012 0)
(5.02775e-05 0.00130154 0)
(-0.000114348 0.0011716 0)
(-0.000322511 0.000833032 0)
(-0.000488817 0.000341546 0)
(-0.000590995 -0.000238532 0)
(-0.000641274 -0.000867923 0)
(-0.000630496 -0.00150419 0)
(-0.000552206 -0.00209685 0)
(-0.000407706 -0.00258863 0)
(-0.000208562 -0.00292652 0)
(2.7016e-05 -0.00307596 0)
(0.000272463 -0.00304244 0)
(0.000501868 -0.00284389 0)
(0.000662552 -0.00244839 0)
(0.000705262 -0.00193074 0)
(0.000599427 -0.0013982 0)
(0.000361088 -0.000979255 0)
(0.000100566 -0.000748729 0)
(-2.73989e-05 -0.000683358 0)
(1.10456e-06 -0.000778382 0)
(4.27634e-05 -0.000873669 0)
(-2.85862e-05 -0.000986394 0)
(-0.000159411 -0.00119066 0)
(-0.000310062 -0.00147996 0)
(-0.000552744 -0.00174973 0)
(-0.000829718 -0.00187249 0)
(-0.000907501 -0.00176734 0)
(-0.000737401 -0.00148265 0)
(-0.000438509 -0.00117249 0)
(-8.2965e-05 -0.000921051 0)
(0.000334682 -0.000691954 0)
(0.000820019 -0.000407338 0)
(0.00121738 9.31527e-05 0)
(0.00101397 0.000733987 0)
(0.000181774 0.00116494 0)
(-0.000797804 0.00122509 0)
(-0.0014063 0.00100036 0)
(-0.00137587 0.000700884 0)
(-0.000737944 0.000531217 0)
(0.000342253 0.000695855 0)
(0.00152133 0.00150564 0)
(0.00180031 0.00280026 0)
(0.000884011 0.00352888 0)
(0.000235806 0.00347847 0)
(0.000251178 0.00351855 0)
(0.000110482 0.00380319 0)
(-0.000127824 0.00394403 0)
(-0.000118582 0.00403528 0)
(-3.58081e-05 0.00423381 0)
(0.000162753 0.00444475 0)
(0.000633401 0.00472797 0)
(0.0012777 0.00524309 0)
(0.00183767 0.00607417 0)
(0.00189403 0.00710005 0)
(0.00132186 0.00787249 0)
(0.000640568 0.00809964 0)
(0.000321584 0.00804438 0)
(0.000246151 0.00805013 0)
(0.000127565 0.00810265 0)
(-3.03076e-05 0.0080561 0)
(-9.74976e-05 0.00794041 0)
(-0.000103699 0.00785279 0)
(-0.0001316 0.00778223 0)
(-0.000171207 0.00768309 0)
(-0.00018489 0.0075668 0)
(-0.000181889 0.00746173 0)
(-0.000186208 0.00736486 0)
(-0.000196267 0.00726179 0)
(-0.000200584 0.00715393 0)
(-0.000199872 0.00704932 0)
(-0.000200351 0.00694831 0)
(-0.000202721 0.00684721 0)
(-0.000204366 0.00674551 0)
(-0.000204794 0.00664499 0)
(-0.000205196 0.00654605 0)
(-0.000205905 0.00644802 0)
(-0.000206418 0.00635068 0)
(-0.000206582 0.00625443 0)
(-0.000206662 0.00615941 0)
(-0.000206766 0.00606548 0)
(-0.000206771 0.00597257 0)
(-0.000206613 0.00588081 0)
(-0.000206368 0.00579026 0)
(-0.000206121 0.00570092 0)
(-0.000205884 0.00561271 0)
(-0.000205614 0.00552563 0)
(-0.00020532 0.00543972 0)
(-0.000205041 0.00535495 0)
(-0.000204795 0.0052713 0)
(-0.000204602 0.00518875 0)
(-0.000204465 0.00510725 0)
(-0.000204373 0.00502677 0)
(-0.000204347 0.00494732 0)
(-0.000204397 0.00486883 0)
(-0.000204523 0.00479129 0)
(-0.000204731 0.00471465 0)
(-0.000205021 0.00463888 0)
(-0.000205388 0.00456395 0)
(-0.000205844 0.00448985 0)
(-0.000206392 0.00441652 0)
(-0.000207015 0.00434394 0)
(-0.000207725 0.00427209 0)
(-0.000208521 0.00420094 0)
(-0.000209391 0.00413045 0)
(-0.00021034 0.00406061 0)
(-0.000211362 0.00399139 0)
(-0.000212462 0.00392278 0)
(-0.000213634 0.00385475 0)
(-0.000214872 0.00378728 0)
(-0.000216187 0.00372035 0)
(-0.000217559 0.00365394 0)
(-0.000218993 0.00358806 0)
(-0.00022049 0.00352266 0)
(-0.00022205 0.00345775 0)
(-0.00022368 0.00339331 0)
(-0.000225365 0.00332933 0)
(-0.000227117 0.00326579 0)
(-0.000228947 0.00320269 0)
(-0.000230847 0.00314 0)
(-0.000232832 0.00307772 0)
(-0.000234915 0.00301582 0)
(-0.000237083 0.00295428 0)
(-0.000239361 0.0028931 0)
(-0.000241759 0.00283224 0)
(-0.000244274 0.0027717 0)
(-0.000246949 0.00271145 0)
(-0.000249775 0.00265144 0)
(-0.000252775 0.00259168 0)
(-0.00025598 0.00253211 0)
(-0.00025939 0.00247271 0)
(-0.000263048 0.00241344 0)
(-0.000266983 0.00235427 0)
(-0.000271205 0.00229513 0)
(-0.00027574 0.00223599 0)
(-0.000280621 0.00217677 0)
(-0.000285852 0.00211743 0)
(-0.000291456 0.0020579 0)
(-0.000297461 0.00199814 0)
(-0.000303884 0.00193807 0)
(-0.000310765 0.00187765 0)
(-0.000318151 0.00181683 0)
(-0.000326102 0.00175556 0)
(-0.000334692 0.00169376 0)
(-0.000344026 0.0016314 0)
(-0.000354211 0.00156835 0)
(-0.000365348 0.00150454 0)
(-0.000377585 0.00143986 0)
(-0.000391054 0.00137419 0)
(-0.000405889 0.0013074 0)
(-0.000422251 0.00123936 0)
(-0.000440324 0.00116993 0)
(-0.00046031 0.00109896 0)
(-0.000482421 0.00102621 0)
(-0.000506822 0.000951446 0)
(-0.00053677 0.000879603 0)
(-0.000570743 0.000805862 0)
(-0.000609038 0.000729209 0)
(-0.000651877 0.000648742 0)
(-0.000699243 0.000563514 0)
(-0.000750714 0.000472704 0)
(-0.00080558 0.000375881 0)
(-0.000863852 0.000273238 0)
(-0.000925447 0.000165162 0)
(-0.000990095 5.25877e-05 0)
(-0.00105942 -6.35336e-05 0)
(-0.00113597 -0.000183235 0)
(-0.00122124 -0.000307124 0)
(-0.00132256 -0.000437579 0)
(-0.00144167 -0.000576292 0)
(-0.00157539 -0.000723024 0)
(-0.0017256 -0.000878169 0)
(-0.00189491 -0.00104435 0)
(-0.00208557 -0.00121711 0)
(-0.00230287 -0.0014135 0)
(-0.00254409 -0.00159003 0)
(-0.00282974 -0.00186238 0)
(-0.00310918 -0.00194767 0)
(-0.00347432 -0.00250019 0)
(-0.00351453 -0.00197771 0)
)
;
    }
    frontAndBack
    {
        type            empty;
    }
}


// ************************************************************************* //
