/*--------------------------------*- C++ -*----------------------------------*\
  =========                 |
  \\      /  F ield         | OpenFOAM: The Open Source CFD Toolbox
   \\    /   O peration     | Website:  https://openfoam.org
    \\  /    A nd           | Version:  7
     \\/     M anipulation  |
\*---------------------------------------------------------------------------*/
FoamFile
{
    version     2.0;
    format      ascii;
    class       volScalarField;
    location    "0.22";
    object      k;
}
// * * * * * * * * * * * * * * * * * * * * * * * * * * * * * * * * * * * * * //

dimensions      [0 2 -2 0 0 0 0];

internalField   nonuniform List<scalar> 
70000
(
1.08549e-05
4.21877e-06
2.82436e-06
2.31684e-06
1.99758e-06
1.75729e-06
1.56536e-06
1.40854e-06
1.2778e-06
1.16714e-06
1.07228e-06
9.90285e-07
9.18835e-07
8.56176e-07
8.00906e-07
7.51854e-07
7.0811e-07
6.68879e-07
6.33546e-07
6.01623e-07
5.72596e-07
5.46274e-07
5.22061e-07
5.00133e-07
4.79632e-07
4.61226e-07
4.43619e-07
4.28077e-07
4.12761e-07
3.99569e-07
3.8612e-07
3.74849e-07
3.62981e-07
3.53263e-07
3.4278e-07
3.34325e-07
3.25033e-07
3.17723e-07
3.09366e-07
3.03826e-07
2.95743e-07
2.92338e-07
2.84264e-07
2.82467e-07
2.7419e-07
2.76124e-07
2.68075e-07
2.84236e-07
2.75655e-07
2.94119e-07
1.72794e-05
1.13673e-05
8.52055e-06
7.01048e-06
6.03739e-06
5.31125e-06
4.73196e-06
4.25834e-06
3.86347e-06
3.52924e-06
3.24276e-06
2.99513e-06
2.77933e-06
2.59004e-06
2.42308e-06
2.27487e-06
2.14268e-06
2.02413e-06
1.91732e-06
1.82085e-06
1.73308e-06
1.65354e-06
1.58028e-06
1.51404e-06
1.45197e-06
1.39637e-06
1.34304e-06
1.2961e-06
1.24971e-06
1.20983e-06
1.16913e-06
1.135e-06
1.09914e-06
1.06965e-06
1.03803e-06
1.01232e-06
9.8431e-07
9.62085e-07
9.36766e-07
9.19907e-07
8.95305e-07
8.8432e-07
8.60262e-07
8.53149e-07
8.29587e-07
8.30606e-07
8.10612e-07
8.42049e-07
8.32978e-07
8.60381e-07
1.937e-05
1.61297e-05
1.32911e-05
1.12896e-05
9.82871e-06
8.69639e-06
7.77895e-06
7.02137e-06
6.38518e-06
5.84392e-06
5.37835e-06
4.97467e-06
4.62202e-06
4.31198e-06
4.03798e-06
3.7943e-06
3.57659e-06
3.38109e-06
3.20465e-06
3.04524e-06
2.89986e-06
2.76825e-06
2.6466e-06
2.53686e-06
2.43355e-06
2.34137e-06
2.25245e-06
2.17448e-06
2.09709e-06
2.03069e-06
1.96285e-06
1.9058e-06
1.84617e-06
1.79662e-06
1.74419e-06
1.70081e-06
1.6544e-06
1.61689e-06
1.57468e-06
1.54553e-06
1.50439e-06
1.48464e-06
1.44458e-06
1.4306e-06
1.39295e-06
1.3884e-06
1.35782e-06
1.38487e-06
1.39903e-06
1.41397e-06
1.9861e-05
1.826e-05
1.60857e-05
1.42003e-05
1.26403e-05
1.13489e-05
1.02613e-05
9.33917e-06
8.54814e-06
7.86488e-06
7.27079e-06
6.751e-06
6.29357e-06
5.88878e-06
5.52901e-06
5.20736e-06
4.9186e-06
4.65834e-06
4.42244e-06
4.20893e-06
4.01326e-06
3.83618e-06
3.67146e-06
3.52326e-06
3.38265e-06
3.25769e-06
3.1362e-06
3.03005e-06
2.92411e-06
2.83321e-06
2.7404e-06
2.66173e-06
2.58034e-06
2.51147e-06
2.44008e-06
2.3794e-06
2.31622e-06
2.26358e-06
2.20572e-06
2.16324e-06
2.10726e-06
2.07683e-06
2.02235e-06
2.00053e-06
1.95012e-06
1.93768e-06
1.89521e-06
1.90686e-06
1.9442e-06
1.94015e-06
1.99706e-05
1.78458e-05
1.60749e-05
1.47665e-05
1.36027e-05
1.25376e-05
1.15696e-05
1.07018e-05
9.9213e-06
9.22554e-06
8.60612e-06
8.05311e-06
7.55827e-06
7.11406e-06
6.71417e-06
6.3525e-06
6.02444e-06
5.72645e-06
5.45398e-06
5.20632e-06
4.97726e-06
4.76973e-06
4.57463e-06
4.39941e-06
4.23126e-06
4.0823e-06
3.93595e-06
3.80827e-06
3.68015e-06
3.5697e-06
3.45737e-06
3.36071e-06
3.2623e-06
3.17672e-06
3.09051e-06
3.01442e-06
2.93805e-06
2.87154e-06
2.80162e-06
2.74622e-06
2.6797e-06
2.6361e-06
2.57207e-06
2.54089e-06
2.47892e-06
2.45805e-06
2.40556e-06
2.39995e-06
2.42787e-06
2.41452e-06
2.00095e-05
1.47038e-05
1.37479e-05
1.3211e-05
1.25914e-05
1.1927e-05
1.12778e-05
1.06572e-05
1.00804e-05
9.54599e-06
9.04599e-06
8.5792e-06
8.14649e-06
7.74618e-06
7.37572e-06
7.0328e-06
6.7155e-06
6.423e-06
6.15126e-06
5.90205e-06
5.66774e-06
5.45457e-06
5.25067e-06
5.06755e-06
4.88882e-06
4.73057e-06
4.573e-06
4.43519e-06
4.29623e-06
4.17505e-06
4.05276e-06
3.94492e-06
3.83765e-06
3.74067e-06
3.64652e-06
3.55924e-06
3.47558e-06
3.39828e-06
3.32194e-06
3.25536e-06
3.18418e-06
3.12811e-06
3.06101e-06
3.01609e-06
2.95174e-06
2.91895e-06
2.86645e-06
2.83172e-06
2.84487e-06
2.82315e-06
2.01332e-05
1.54676e-05
9.63473e-06
9.39817e-06
9.49276e-06
9.49198e-06
9.43329e-06
9.29465e-06
9.05434e-06
8.78022e-06
8.48567e-06
8.18792e-06
7.89674e-06
7.61293e-06
7.33678e-06
7.07568e-06
6.8288e-06
6.59495e-06
6.37108e-06
6.16167e-06
5.95872e-06
5.77205e-06
5.58826e-06
5.42259e-06
5.25654e-06
5.10887e-06
4.95923e-06
4.82722e-06
4.6935e-06
4.57441e-06
4.45566e-06
4.34703e-06
4.24216e-06
4.14236e-06
4.04966e-06
3.95831e-06
3.87537e-06
3.79286e-06
3.71745e-06
3.64374e-06
3.57472e-06
3.5091e-06
3.44589e-06
3.38808e-06
3.33062e-06
3.27899e-06
3.2382e-06
3.1776e-06
3.17628e-06
3.14594e-06
2.01713e-05
1.8676e-05
8.6923e-06
5.54035e-06
5.63051e-06
5.93426e-06
6.29229e-06
6.57702e-06
6.75645e-06
6.86465e-06
6.88379e-06
6.86419e-06
6.81198e-06
6.72282e-06
6.61227e-06
6.49019e-06
6.35241e-06
6.2108e-06
6.06718e-06
5.92694e-06
5.78391e-06
5.64956e-06
5.51152e-06
5.38594e-06
5.25467e-06
5.13881e-06
5.01882e-06
4.9111e-06
4.80107e-06
4.69954e-06
4.59974e-06
4.50348e-06
4.41383e-06
4.3226e-06
4.242e-06
4.15639e-06
4.0833e-06
4.00379e-06
3.93723e-06
3.8634e-06
3.80313e-06
3.73436e-06
3.68043e-06
3.61585e-06
3.56924e-06
3.50638e-06
3.47282e-06
3.40428e-06
3.39372e-06
3.3528e-06
2.01672e-05
1.97239e-05
1.61675e-05
4.86185e-06
3.04256e-06
3.10567e-06
3.37437e-06
3.80382e-06
4.16928e-06
4.48645e-06
4.73334e-06
4.92208e-06
5.06229e-06
5.1617e-06
5.21966e-06
5.25522e-06
5.2578e-06
5.24897e-06
5.22577e-06
5.18796e-06
5.1375e-06
5.08389e-06
5.02027e-06
4.95777e-06
4.8865e-06
4.81925e-06
4.74351e-06
4.67244e-06
4.59817e-06
4.5258e-06
4.45551e-06
4.38289e-06
4.31766e-06
4.24569e-06
4.18537e-06
4.11541e-06
4.05947e-06
3.99213e-06
3.94065e-06
3.87599e-06
3.82969e-06
3.76726e-06
3.72581e-06
3.66481e-06
3.62887e-06
3.56821e-06
3.53831e-06
3.47502e-06
3.45943e-06
3.42385e-06
2.01476e-05
1.99342e-05
1.90656e-05
1.4499e-05
5.24424e-06
2.15499e-06
1.91455e-06
1.99359e-06
2.20667e-06
2.50464e-06
2.78002e-06
3.03221e-06
3.25632e-06
3.45217e-06
3.61479e-06
3.75245e-06
3.86253e-06
3.95063e-06
4.01994e-06
4.07266e-06
4.10903e-06
4.13306e-06
4.14661e-06
4.1481e-06
4.14414e-06
4.13536e-06
4.11785e-06
4.09751e-06
4.07282e-06
4.0436e-06
4.01463e-06
3.97905e-06
3.94779e-06
3.90745e-06
3.87566e-06
3.83233e-06
3.80048e-06
3.75529e-06
3.72408e-06
3.67749e-06
3.64707e-06
3.59935e-06
3.57063e-06
3.52215e-06
3.49563e-06
3.44658e-06
3.42186e-06
3.37206e-06
3.34964e-06
3.32458e-06
2.01216e-05
1.99661e-05
1.96424e-05
1.85464e-05
1.5213e-05
8.36147e-06
3.10762e-06
1.63355e-06
1.44248e-06
1.44924e-06
1.5258e-06
1.686e-06
1.86747e-06
2.04356e-06
2.2125e-06
2.37099e-06
2.51654e-06
2.64714e-06
2.76331e-06
2.86656e-06
2.95596e-06
3.0337e-06
3.09974e-06
3.15589e-06
3.20146e-06
3.24043e-06
3.27094e-06
3.29473e-06
3.31344e-06
3.3252e-06
3.33409e-06
3.33708e-06
3.33667e-06
3.33337e-06
3.32862e-06
3.31771e-06
3.30977e-06
3.29313e-06
3.28272e-06
3.26171e-06
3.2494e-06
3.22493e-06
3.21101e-06
3.18344e-06
3.16826e-06
3.13803e-06
3.12133e-06
3.08943e-06
3.06886e-06
3.04989e-06
2.00982e-05
1.99327e-05
1.97573e-05
1.93525e-05
1.85064e-05
1.65376e-05
1.23312e-05
6.86573e-06
2.99202e-06
1.49469e-06
1.24345e-06
1.14757e-06
1.15143e-06
1.19338e-06
1.28494e-06
1.39107e-06
1.50235e-06
1.61156e-06
1.71968e-06
1.82414e-06
1.92197e-06
2.01428e-06
2.09869e-06
2.17701e-06
2.24797e-06
2.31223e-06
2.37093e-06
2.42211e-06
2.46955e-06
2.50938e-06
2.54659e-06
2.5767e-06
2.60515e-06
2.62635e-06
2.64777e-06
2.66166e-06
2.67667e-06
2.68444e-06
2.69356e-06
2.69676e-06
2.70004e-06
2.69938e-06
2.69784e-06
2.69315e-06
2.68871e-06
2.67868e-06
2.6715e-06
2.65683e-06
2.64497e-06
2.6333e-06
2.00781e-05
1.98876e-05
1.97569e-05
1.94609e-05
1.91459e-05
1.86414e-05
1.75569e-05
1.54292e-05
1.17492e-05
7.45776e-06
3.99386e-06
1.92117e-06
1.21052e-06
1.05765e-06
9.82659e-07
9.42115e-07
9.52781e-07
9.85921e-07
1.04691e-06
1.1103e-06
1.1778e-06
1.24697e-06
1.31585e-06
1.38446e-06
1.45176e-06
1.51511e-06
1.57728e-06
1.6338e-06
1.68953e-06
1.73905e-06
1.78798e-06
1.83041e-06
1.87274e-06
1.90831e-06
1.94383e-06
1.97351e-06
2.00265e-06
2.02661e-06
2.04978e-06
2.06885e-06
2.08632e-06
2.10043e-06
2.11289e-06
2.12205e-06
2.12983e-06
2.13414e-06
2.13676e-06
2.13576e-06
2.13404e-06
2.12989e-06
2.00614e-05
1.98539e-05
1.97343e-05
1.94711e-05
1.92552e-05
1.90471e-05
1.87363e-05
1.81919e-05
1.71004e-05
1.52394e-05
1.25806e-05
9.25556e-06
5.99656e-06
3.49953e-06
1.89572e-06
1.17353e-06
9.66162e-07
8.91725e-07
8.37497e-07
7.95945e-07
7.97046e-07
8.09586e-07
8.37946e-07
8.75386e-07
9.1476e-07
9.55033e-07
9.98711e-07
1.04057e-06
1.08547e-06
1.12737e-06
1.17099e-06
1.21045e-06
1.25119e-06
1.2875e-06
1.32429e-06
1.35733e-06
1.39022e-06
1.41924e-06
1.44803e-06
1.47331e-06
1.49769e-06
1.51875e-06
1.53887e-06
1.55555e-06
1.57138e-06
1.58313e-06
1.59475e-06
1.60097e-06
1.60774e-06
1.60991e-06
2.00475e-05
1.98303e-05
1.97077e-05
1.9449e-05
1.92721e-05
1.9115e-05
1.89654e-05
1.87508e-05
1.84634e-05
1.79151e-05
1.70826e-05
1.57114e-05
1.38999e-05
1.15603e-05
8.89096e-06
6.28801e-06
4.11421e-06
2.53594e-06
1.52725e-06
1.04068e-06
8.6621e-07
8.0088e-07
7.52994e-07
7.12152e-07
6.82137e-07
6.76473e-07
6.81531e-07
6.93786e-07
7.15196e-07
7.36525e-07
7.60972e-07
7.84023e-07
8.10326e-07
8.35356e-07
8.62304e-07
8.87853e-07
9.14754e-07
9.39026e-07
9.64512e-07
9.87112e-07
1.01017e-06
1.03036e-06
1.05069e-06
1.06827e-06
1.08535e-06
1.09986e-06
1.11307e-06
1.12433e-06
1.13262e-06
1.14082e-06
2.00362e-05
1.98125e-05
1.96852e-05
1.94187e-05
1.92581e-05
1.91086e-05
1.90003e-05
1.88496e-05
1.87127e-05
1.85018e-05
1.825e-05
1.78364e-05
1.72388e-05
1.63727e-05
1.51805e-05
1.36534e-05
1.18579e-05
9.78699e-06
7.65277e-06
5.65982e-06
3.9761e-06
2.69039e-06
1.76374e-06
1.18579e-06
8.94485e-07
7.70752e-07
7.14853e-07
6.77185e-07
6.42637e-07
6.11351e-07
5.90561e-07
5.79171e-07
5.80038e-07
5.84093e-07
5.92934e-07
6.03848e-07
6.16955e-07
6.28815e-07
6.42611e-07
6.55142e-07
6.69085e-07
6.82216e-07
6.9589e-07
7.0907e-07
7.21535e-07
7.33855e-07
7.4429e-07
7.54905e-07
7.62424e-07
7.70554e-07
2.00272e-05
1.97986e-05
1.9666e-05
1.93967e-05
1.92323e-05
1.90811e-05
1.89822e-05
1.8853e-05
1.87368e-05
1.85971e-05
1.84616e-05
1.82912e-05
1.80843e-05
1.77988e-05
1.74163e-05
1.68758e-05
1.61742e-05
1.52604e-05
1.41309e-05
1.28001e-05
1.13168e-05
9.67305e-06
7.97982e-06
6.35233e-06
4.87493e-06
3.62998e-06
2.64096e-06
1.87842e-06
1.33161e-06
9.84595e-07
7.93222e-07
6.96573e-07
6.46839e-07
6.14247e-07
5.87709e-07
5.61578e-07
5.38217e-07
5.187e-07
5.05894e-07
4.97859e-07
4.95726e-07
4.96608e-07
4.98942e-07
5.03698e-07
5.07814e-07
5.13867e-07
5.17726e-07
5.23226e-07
5.26457e-07
5.30732e-07
2.002e-05
1.979e-05
1.9646e-05
1.93802e-05
1.92081e-05
1.90521e-05
1.89441e-05
1.88266e-05
1.87152e-05
1.85904e-05
1.84733e-05
1.83469e-05
1.82235e-05
1.80806e-05
1.79252e-05
1.7727e-05
1.74848e-05
1.71687e-05
1.67677e-05
1.62519e-05
1.56231e-05
1.4856e-05
1.39532e-05
1.29172e-05
1.17814e-05
1.05571e-05
9.25254e-06
7.93097e-06
6.64322e-06
5.44469e-06
4.36359e-06
3.43887e-06
2.6756e-06
2.05393e-06
1.56201e-06
1.19384e-06
9.37374e-07
7.7339e-07
6.74272e-07
6.16118e-07
5.8046e-07
5.55873e-07
5.35882e-07
5.18509e-07
5.01462e-07
4.87287e-07
4.7181e-07
4.62038e-07
4.50295e-07
4.44995e-07
2.00145e-05
1.979e-05
1.96198e-05
1.93668e-05
1.91875e-05
1.90254e-05
1.8908e-05
1.87905e-05
1.86751e-05
1.85548e-05
1.84429e-05
1.83252e-05
1.8214e-05
1.80956e-05
1.79825e-05
1.78612e-05
1.77364e-05
1.7596e-05
1.7436e-05
1.7245e-05
1.70161e-05
1.67367e-05
1.63989e-05
1.59901e-05
1.55048e-05
1.4941e-05
1.42921e-05
1.35571e-05
1.27471e-05
1.18666e-05
1.0942e-05
9.97498e-06
8.9711e-06
7.96432e-06
6.97896e-06
6.04137e-06
5.16661e-06
4.37745e-06
3.66835e-06
3.06426e-06
2.54894e-06
2.11451e-06
1.75172e-06
1.45478e-06
1.21833e-06
1.03497e-06
8.95351e-07
7.95166e-07
7.13065e-07
6.64024e-07
2.00102e-05
1.97941e-05
1.95931e-05
1.9353e-05
1.91686e-05
1.89999e-05
1.88744e-05
1.87546e-05
1.86352e-05
1.8512e-05
1.83974e-05
1.8279e-05
1.81695e-05
1.80575e-05
1.79505e-05
1.78421e-05
1.77337e-05
1.76277e-05
1.75176e-05
1.7408e-05
1.72905e-05
1.71637e-05
1.70231e-05
1.68629e-05
1.66772e-05
1.64636e-05
1.62139e-05
1.5926e-05
1.55937e-05
1.52131e-05
1.47847e-05
1.43097e-05
1.37841e-05
1.32101e-05
1.2596e-05
1.1943e-05
1.1265e-05
1.05644e-05
9.85999e-06
9.14786e-06
8.43081e-06
7.73873e-06
7.06837e-06
6.43994e-06
5.85419e-06
5.32117e-06
4.83531e-06
4.41741e-06
4.01625e-06
3.68794e-06
2.0007e-05
1.98016e-05
1.95686e-05
1.93395e-05
1.91509e-05
1.8976e-05
1.88424e-05
1.87202e-05
1.85965e-05
1.84702e-05
1.83516e-05
1.82303e-05
1.81177e-05
1.80033e-05
1.78947e-05
1.77863e-05
1.76807e-05
1.75819e-05
1.74772e-05
1.73816e-05
1.7281e-05
1.71829e-05
1.70849e-05
1.69866e-05
1.68825e-05
1.67783e-05
1.66617e-05
1.65406e-05
1.64037e-05
1.6252e-05
1.60817e-05
1.58957e-05
1.56834e-05
1.54481e-05
1.51886e-05
1.49033e-05
1.45889e-05
1.42545e-05
1.3888e-05
1.35133e-05
1.31004e-05
1.26907e-05
1.22509e-05
1.18186e-05
1.13761e-05
1.0942e-05
1.05172e-05
1.01096e-05
9.71839e-06
9.34821e-06
2.00047e-05
1.98101e-05
1.95459e-05
1.9326e-05
1.91339e-05
1.89536e-05
1.88118e-05
1.86869e-05
1.85593e-05
1.84299e-05
1.83076e-05
1.81824e-05
1.80668e-05
1.79493e-05
1.78375e-05
1.77267e-05
1.76166e-05
1.75167e-05
1.74081e-05
1.73133e-05
1.72137e-05
1.7121e-05
1.70288e-05
1.69401e-05
1.68483e-05
1.67644e-05
1.66719e-05
1.65892e-05
1.65007e-05
1.64129e-05
1.63203e-05
1.62319e-05
1.6131e-05
1.60272e-05
1.59163e-05
1.57992e-05
1.5667e-05
1.55329e-05
1.53785e-05
1.52267e-05
1.50461e-05
1.48741e-05
1.46743e-05
1.44792e-05
1.42684e-05
1.40539e-05
1.38375e-05
1.36162e-05
1.34096e-05
1.31897e-05
2.0003e-05
1.9819e-05
1.95249e-05
1.9312e-05
1.9117e-05
1.89326e-05
1.87825e-05
1.86547e-05
1.85238e-05
1.83915e-05
1.82655e-05
1.81367e-05
1.80179e-05
1.78974e-05
1.77821e-05
1.76686e-05
1.75547e-05
1.74528e-05
1.73398e-05
1.72433e-05
1.7139e-05
1.70432e-05
1.69481e-05
1.68575e-05
1.67638e-05
1.66824e-05
1.65934e-05
1.65172e-05
1.64351e-05
1.63579e-05
1.62781e-05
1.62091e-05
1.61296e-05
1.60551e-05
1.59822e-05
1.59113e-05
1.58337e-05
1.57636e-05
1.56841e-05
1.56123e-05
1.55259e-05
1.545e-05
1.53598e-05
1.52744e-05
1.51825e-05
1.50883e-05
1.49905e-05
1.48922e-05
1.48025e-05
1.46994e-05
2.00018e-05
1.98274e-05
1.95058e-05
1.9297e-05
1.90998e-05
1.89132e-05
1.87548e-05
1.86237e-05
1.84899e-05
1.83554e-05
1.82256e-05
1.80938e-05
1.79717e-05
1.78487e-05
1.77298e-05
1.76135e-05
1.74965e-05
1.73919e-05
1.72755e-05
1.71766e-05
1.70687e-05
1.69702e-05
1.6872e-05
1.67781e-05
1.6681e-05
1.65959e-05
1.65028e-05
1.64236e-05
1.63383e-05
1.62594e-05
1.61783e-05
1.61106e-05
1.60346e-05
1.59647e-05
1.58976e-05
1.58343e-05
1.57654e-05
1.57074e-05
1.56428e-05
1.55869e-05
1.55226e-05
1.54689e-05
1.54085e-05
1.53538e-05
1.52986e-05
1.52443e-05
1.51854e-05
1.51342e-05
1.50862e-05
1.50343e-05
2.00009e-05
1.98305e-05
1.94894e-05
1.92815e-05
1.90827e-05
1.88957e-05
1.87293e-05
1.85944e-05
1.84582e-05
1.8322e-05
1.81885e-05
1.80543e-05
1.7929e-05
1.78038e-05
1.76816e-05
1.75627e-05
1.7443e-05
1.73352e-05
1.72166e-05
1.71145e-05
1.70038e-05
1.69031e-05
1.68019e-05
1.67052e-05
1.66052e-05
1.65172e-05
1.64214e-05
1.63391e-05
1.625e-05
1.61687e-05
1.60839e-05
1.6013e-05
1.59329e-05
1.58595e-05
1.57895e-05
1.57241e-05
1.56535e-05
1.55945e-05
1.55305e-05
1.54748e-05
1.54156e-05
1.5365e-05
1.53095e-05
1.52596e-05
1.52108e-05
1.51641e-05
1.51121e-05
1.50712e-05
1.50317e-05
1.49931e-05
2.00003e-05
1.98288e-05
1.94762e-05
1.92655e-05
1.90654e-05
1.888e-05
1.8706e-05
1.8567e-05
1.8429e-05
1.82915e-05
1.81546e-05
1.80188e-05
1.78903e-05
1.77634e-05
1.76382e-05
1.7517e-05
1.73951e-05
1.72839e-05
1.71639e-05
1.70585e-05
1.69455e-05
1.68428e-05
1.67387e-05
1.66398e-05
1.65371e-05
1.64466e-05
1.63489e-05
1.6264e-05
1.61718e-05
1.60892e-05
1.60012e-05
1.59277e-05
1.58452e-05
1.57694e-05
1.5696e-05
1.56284e-05
1.55549e-05
1.54936e-05
1.54272e-05
1.53677e-05
1.53072e-05
1.52537e-05
1.51956e-05
1.51447e-05
1.50949e-05
1.50478e-05
1.49954e-05
1.49551e-05
1.4916e-05
1.48799e-05
2e-05
1.98271e-05
1.9465e-05
1.92481e-05
1.90474e-05
1.88657e-05
1.86851e-05
1.85418e-05
1.84025e-05
1.82642e-05
1.81245e-05
1.79874e-05
1.78563e-05
1.7728e-05
1.76002e-05
1.74772e-05
1.73533e-05
1.72394e-05
1.7118e-05
1.70097e-05
1.68949e-05
1.67903e-05
1.66836e-05
1.65829e-05
1.64776e-05
1.63852e-05
1.62859e-05
1.61986e-05
1.61039e-05
1.60204e-05
1.593e-05
1.58542e-05
1.57704e-05
1.56929e-05
1.56172e-05
1.55482e-05
1.54728e-05
1.541e-05
1.53418e-05
1.52798e-05
1.52191e-05
1.51637e-05
1.51026e-05
1.50512e-05
1.49999e-05
1.49509e-05
1.48976e-05
1.48568e-05
1.48155e-05
1.47804e-05
1.99999e-05
1.98259e-05
1.94567e-05
1.92304e-05
1.90294e-05
1.8853e-05
1.86671e-05
1.85193e-05
1.8379e-05
1.82404e-05
1.80986e-05
1.79608e-05
1.78275e-05
1.76982e-05
1.75685e-05
1.74443e-05
1.73186e-05
1.72025e-05
1.70799e-05
1.69692e-05
1.68531e-05
1.67468e-05
1.66377e-05
1.65356e-05
1.6428e-05
1.63342e-05
1.62333e-05
1.61438e-05
1.60474e-05
1.59631e-05
1.58709e-05
1.57929e-05
1.57087e-05
1.56296e-05
1.55522e-05
1.54824e-05
1.54059e-05
1.53426e-05
1.52728e-05
1.52097e-05
1.51494e-05
1.50928e-05
1.50297e-05
1.49789e-05
1.49271e-05
1.48765e-05
1.4823e-05
1.47827e-05
1.47401e-05
1.47058e-05
1.99999e-05
1.98252e-05
1.94514e-05
1.92135e-05
1.90123e-05
1.88422e-05
1.86527e-05
1.85005e-05
1.83594e-05
1.82209e-05
1.80778e-05
1.79396e-05
1.78047e-05
1.76749e-05
1.75437e-05
1.74189e-05
1.72917e-05
1.71742e-05
1.70506e-05
1.69381e-05
1.68211e-05
1.67132e-05
1.66022e-05
1.64992e-05
1.63896e-05
1.62947e-05
1.61925e-05
1.61012e-05
1.60035e-05
1.59185e-05
1.58249e-05
1.57449e-05
1.56606e-05
1.55806e-05
1.55019e-05
1.54312e-05
1.53545e-05
1.52911e-05
1.52196e-05
1.51568e-05
1.50972e-05
1.50394e-05
1.49755e-05
1.4926e-05
1.4874e-05
1.48223e-05
1.47695e-05
1.473e-05
1.46875e-05
1.46535e-05
1.99999e-05
1.98249e-05
1.94488e-05
1.91982e-05
1.89967e-05
1.88333e-05
1.86424e-05
1.8486e-05
1.8344e-05
1.82061e-05
1.80626e-05
1.79245e-05
1.77885e-05
1.76587e-05
1.75265e-05
1.74018e-05
1.72736e-05
1.71552e-05
1.7031e-05
1.69172e-05
1.67999e-05
1.66907e-05
1.65781e-05
1.64746e-05
1.63635e-05
1.62677e-05
1.61646e-05
1.6072e-05
1.59732e-05
1.58879e-05
1.57932e-05
1.57119e-05
1.56272e-05
1.55472e-05
1.54672e-05
1.53957e-05
1.53199e-05
1.52563e-05
1.51832e-05
1.51219e-05
1.50628e-05
1.50037e-05
1.49403e-05
1.48924e-05
1.48397e-05
1.47878e-05
1.47364e-05
1.46978e-05
1.46557e-05
1.46216e-05
1.99999e-05
1.9825e-05
1.94488e-05
1.91852e-05
1.89831e-05
1.88261e-05
1.86364e-05
1.8476e-05
1.83331e-05
1.81962e-05
1.80532e-05
1.79157e-05
1.77792e-05
1.76501e-05
1.75176e-05
1.73934e-05
1.72648e-05
1.71461e-05
1.70218e-05
1.69073e-05
1.67901e-05
1.66801e-05
1.65663e-05
1.64629e-05
1.63508e-05
1.62543e-05
1.61506e-05
1.60573e-05
1.59576e-05
1.58725e-05
1.57769e-05
1.5695e-05
1.56097e-05
1.55307e-05
1.54494e-05
1.53774e-05
1.53033e-05
1.52392e-05
1.51651e-05
1.51062e-05
1.50469e-05
1.4987e-05
1.49254e-05
1.48786e-05
1.48249e-05
1.47738e-05
1.47242e-05
1.46861e-05
1.46441e-05
1.46096e-05
1.99999e-05
1.98256e-05
1.94511e-05
1.91749e-05
1.89717e-05
1.88204e-05
1.86345e-05
1.84708e-05
1.83268e-05
1.81915e-05
1.80499e-05
1.79135e-05
1.77773e-05
1.76493e-05
1.75174e-05
1.7394e-05
1.7266e-05
1.71472e-05
1.70236e-05
1.69088e-05
1.6792e-05
1.66819e-05
1.65674e-05
1.64644e-05
1.6352e-05
1.62552e-05
1.61513e-05
1.6058e-05
1.59576e-05
1.58731e-05
1.57771e-05
1.56952e-05
1.56092e-05
1.55318e-05
1.54494e-05
1.53774e-05
1.53053e-05
1.52405e-05
1.51663e-05
1.51097e-05
1.50498e-05
1.49901e-05
1.49307e-05
1.48843e-05
1.48297e-05
1.47805e-05
1.47326e-05
1.46943e-05
1.46522e-05
1.4617e-05
1.99999e-05
1.98267e-05
1.94559e-05
1.91683e-05
1.89628e-05
1.88163e-05
1.86363e-05
1.84704e-05
1.83253e-05
1.81919e-05
1.80523e-05
1.79175e-05
1.77821e-05
1.76554e-05
1.75244e-05
1.74021e-05
1.72752e-05
1.71567e-05
1.70343e-05
1.69198e-05
1.68037e-05
1.66941e-05
1.65792e-05
1.6477e-05
1.63648e-05
1.62678e-05
1.6164e-05
1.60714e-05
1.59702e-05
1.5887e-05
1.57907e-05
1.57095e-05
1.56224e-05
1.55479e-05
1.5464e-05
1.53927e-05
1.53231e-05
1.52575e-05
1.51845e-05
1.51306e-05
1.50696e-05
1.50115e-05
1.49549e-05
1.49081e-05
1.48534e-05
1.48071e-05
1.47607e-05
1.47216e-05
1.46794e-05
1.46438e-05
1.99999e-05
1.98283e-05
1.94629e-05
1.91652e-05
1.89567e-05
1.88134e-05
1.86418e-05
1.84743e-05
1.83281e-05
1.81966e-05
1.80596e-05
1.79272e-05
1.77933e-05
1.76687e-05
1.75398e-05
1.74192e-05
1.72943e-05
1.71767e-05
1.70564e-05
1.69428e-05
1.68277e-05
1.67193e-05
1.66046e-05
1.65035e-05
1.63925e-05
1.62956e-05
1.61921e-05
1.61012e-05
1.59992e-05
1.59179e-05
1.58217e-05
1.57419e-05
1.56536e-05
1.55828e-05
1.54976e-05
1.54279e-05
1.53606e-05
1.52947e-05
1.5224e-05
1.5172e-05
1.51102e-05
1.50551e-05
1.50007e-05
1.49529e-05
1.4899e-05
1.4856e-05
1.481e-05
1.47699e-05
1.47274e-05
1.46913e-05
1.99999e-05
1.98303e-05
1.94716e-05
1.91658e-05
1.89535e-05
1.88122e-05
1.86499e-05
1.8483e-05
1.83356e-05
1.82062e-05
1.80724e-05
1.79427e-05
1.78111e-05
1.76887e-05
1.75624e-05
1.74438e-05
1.73215e-05
1.72054e-05
1.70873e-05
1.69755e-05
1.68618e-05
1.67549e-05
1.66416e-05
1.65415e-05
1.64323e-05
1.63362e-05
1.62331e-05
1.61447e-05
1.60425e-05
1.59631e-05
1.58677e-05
1.579e-05
1.57006e-05
1.56337e-05
1.55479e-05
1.54805e-05
1.54146e-05
1.53494e-05
1.52817e-05
1.52308e-05
1.5169e-05
1.51178e-05
1.50647e-05
1.50161e-05
1.49642e-05
1.49242e-05
1.48777e-05
1.48368e-05
1.47942e-05
1.4758e-05
1.99999e-05
1.98329e-05
1.94819e-05
1.917e-05
1.89531e-05
1.88126e-05
1.86601e-05
1.84953e-05
1.83471e-05
1.82198e-05
1.80893e-05
1.79629e-05
1.78341e-05
1.77143e-05
1.7591e-05
1.74751e-05
1.73556e-05
1.72418e-05
1.71262e-05
1.70167e-05
1.69047e-05
1.67998e-05
1.66886e-05
1.65897e-05
1.64827e-05
1.6388e-05
1.62856e-05
1.62002e-05
1.60983e-05
1.6021e-05
1.59267e-05
1.58517e-05
1.57617e-05
1.56984e-05
1.5613e-05
1.55484e-05
1.54833e-05
1.542e-05
1.53556e-05
1.53051e-05
1.52446e-05
1.51975e-05
1.51448e-05
1.50962e-05
1.5047e-05
1.5009e-05
1.49616e-05
1.49203e-05
1.48777e-05
1.48417e-05
1.99999e-05
1.98359e-05
1.94932e-05
1.91781e-05
1.89559e-05
1.88147e-05
1.86718e-05
1.85109e-05
1.83624e-05
1.82369e-05
1.81097e-05
1.7987e-05
1.78614e-05
1.77447e-05
1.76248e-05
1.75119e-05
1.73954e-05
1.72846e-05
1.71716e-05
1.70651e-05
1.69552e-05
1.68527e-05
1.67441e-05
1.66466e-05
1.65421e-05
1.64496e-05
1.63479e-05
1.62658e-05
1.6165e-05
1.60898e-05
1.59971e-05
1.59251e-05
1.5835e-05
1.5775e-05
1.5691e-05
1.56294e-05
1.55647e-05
1.55045e-05
1.54432e-05
1.53931e-05
1.53348e-05
1.52916e-05
1.52388e-05
1.51911e-05
1.51448e-05
1.51078e-05
1.50594e-05
1.50182e-05
1.49754e-05
1.49399e-05
1.99999e-05
1.98392e-05
1.95053e-05
1.91892e-05
1.89619e-05
1.88192e-05
1.86849e-05
1.85295e-05
1.83813e-05
1.82571e-05
1.81331e-05
1.80145e-05
1.78924e-05
1.7779e-05
1.76626e-05
1.75533e-05
1.74399e-05
1.73327e-05
1.72224e-05
1.71194e-05
1.70117e-05
1.6912e-05
1.68065e-05
1.67109e-05
1.66088e-05
1.65191e-05
1.64185e-05
1.63397e-05
1.62407e-05
1.61677e-05
1.60767e-05
1.60081e-05
1.59185e-05
1.58615e-05
1.57798e-05
1.5721e-05
1.56567e-05
1.56006e-05
1.55419e-05
1.54926e-05
1.54373e-05
1.5397e-05
1.53442e-05
1.52986e-05
1.52546e-05
1.52177e-05
1.51686e-05
1.51279e-05
1.50847e-05
1.50493e-05
1.99999e-05
1.98429e-05
1.95179e-05
1.92028e-05
1.89708e-05
1.88259e-05
1.86985e-05
1.85502e-05
1.8403e-05
1.828e-05
1.81588e-05
1.80445e-05
1.79261e-05
1.78164e-05
1.77036e-05
1.75982e-05
1.74879e-05
1.73846e-05
1.72774e-05
1.7178e-05
1.70731e-05
1.69763e-05
1.68742e-05
1.67807e-05
1.66813e-05
1.65945e-05
1.64956e-05
1.642e-05
1.63232e-05
1.62528e-05
1.61635e-05
1.60985e-05
1.60101e-05
1.59556e-05
1.58769e-05
1.58209e-05
1.57572e-05
1.57056e-05
1.56489e-05
1.56012e-05
1.55491e-05
1.55109e-05
1.54586e-05
1.5416e-05
1.53731e-05
1.53356e-05
1.52866e-05
1.52465e-05
1.52024e-05
1.51663e-05
1.99999e-05
1.98466e-05
1.95307e-05
1.92185e-05
1.89826e-05
1.88349e-05
1.87128e-05
1.85723e-05
1.84271e-05
1.83049e-05
1.81863e-05
1.80764e-05
1.79619e-05
1.7856e-05
1.77469e-05
1.76454e-05
1.75386e-05
1.74393e-05
1.73356e-05
1.72394e-05
1.71381e-05
1.70441e-05
1.69459e-05
1.68545e-05
1.67579e-05
1.66743e-05
1.65775e-05
1.65048e-05
1.64108e-05
1.63432e-05
1.62556e-05
1.61943e-05
1.61078e-05
1.60552e-05
1.59801e-05
1.59268e-05
1.58637e-05
1.58169e-05
1.57619e-05
1.57164e-05
1.56675e-05
1.56306e-05
1.55795e-05
1.55403e-05
1.54972e-05
1.5459e-05
1.54108e-05
1.53711e-05
1.53255e-05
1.52872e-05
1.99999e-05
1.98506e-05
1.95436e-05
1.92358e-05
1.89971e-05
1.88462e-05
1.87275e-05
1.85955e-05
1.8453e-05
1.83316e-05
1.82153e-05
1.81095e-05
1.79989e-05
1.7897e-05
1.77916e-05
1.76941e-05
1.75909e-05
1.74956e-05
1.73957e-05
1.73026e-05
1.72055e-05
1.71141e-05
1.70199e-05
1.69308e-05
1.68372e-05
1.67566e-05
1.66625e-05
1.65925e-05
1.65014e-05
1.6437e-05
1.6351e-05
1.62931e-05
1.62096e-05
1.61581e-05
1.6087e-05
1.60363e-05
1.59741e-05
1.59322e-05
1.58783e-05
1.58361e-05
1.57896e-05
1.57534e-05
1.57047e-05
1.56686e-05
1.56241e-05
1.55854e-05
1.55385e-05
1.54988e-05
1.54507e-05
1.54087e-05
1.99999e-05
1.98546e-05
1.95564e-05
1.92543e-05
1.90141e-05
1.88598e-05
1.87428e-05
1.86189e-05
1.84801e-05
1.83595e-05
1.82452e-05
1.81434e-05
1.80366e-05
1.79387e-05
1.7837e-05
1.77434e-05
1.76441e-05
1.75526e-05
1.74566e-05
1.73666e-05
1.72738e-05
1.71854e-05
1.70948e-05
1.70086e-05
1.69178e-05
1.68402e-05
1.67492e-05
1.66815e-05
1.65936e-05
1.65325e-05
1.64481e-05
1.63934e-05
1.63136e-05
1.62624e-05
1.61957e-05
1.61472e-05
1.60866e-05
1.60489e-05
1.59959e-05
1.59578e-05
1.59128e-05
1.58772e-05
1.58319e-05
1.5798e-05
1.57512e-05
1.5713e-05
1.56673e-05
1.56265e-05
1.55754e-05
1.55286e-05
1.99999e-05
1.98585e-05
1.9569e-05
1.92737e-05
1.90331e-05
1.88753e-05
1.87587e-05
1.86423e-05
1.85078e-05
1.83883e-05
1.82758e-05
1.81774e-05
1.80742e-05
1.79806e-05
1.78826e-05
1.77928e-05
1.76973e-05
1.76098e-05
1.75174e-05
1.7431e-05
1.73418e-05
1.72574e-05
1.71692e-05
1.70868e-05
1.69985e-05
1.69239e-05
1.68362e-05
1.67706e-05
1.66859e-05
1.66283e-05
1.65455e-05
1.64935e-05
1.64178e-05
1.63669e-05
1.63042e-05
1.62576e-05
1.61995e-05
1.61649e-05
1.61128e-05
1.60796e-05
1.6035e-05
1.60002e-05
1.59589e-05
1.59259e-05
1.58766e-05
1.58399e-05
1.57949e-05
1.5752e-05
1.56971e-05
1.56453e-05
1.99999e-05
1.98625e-05
1.95813e-05
1.92935e-05
1.90537e-05
1.88926e-05
1.87753e-05
1.86653e-05
1.85356e-05
1.84177e-05
1.83068e-05
1.82112e-05
1.81115e-05
1.8022e-05
1.79277e-05
1.78417e-05
1.77498e-05
1.76663e-05
1.75771e-05
1.7495e-05
1.74088e-05
1.73288e-05
1.72426e-05
1.71643e-05
1.70786e-05
1.70064e-05
1.69223e-05
1.68588e-05
1.67772e-05
1.67228e-05
1.66421e-05
1.65923e-05
1.65205e-05
1.64706e-05
1.64104e-05
1.63661e-05
1.63114e-05
1.62784e-05
1.62275e-05
1.61991e-05
1.61543e-05
1.61213e-05
1.60834e-05
1.60502e-05
1.59991e-05
1.59643e-05
1.5919e-05
1.58733e-05
1.58142e-05
1.5758e-05
1.99999e-05
1.98664e-05
1.95932e-05
1.93135e-05
1.90756e-05
1.89114e-05
1.87925e-05
1.86877e-05
1.8563e-05
1.84475e-05
1.83377e-05
1.82443e-05
1.8148e-05
1.80627e-05
1.79718e-05
1.78896e-05
1.78013e-05
1.77215e-05
1.76356e-05
1.75577e-05
1.74745e-05
1.73985e-05
1.73148e-05
1.72399e-05
1.71574e-05
1.70868e-05
1.70066e-05
1.69451e-05
1.68666e-05
1.68148e-05
1.67368e-05
1.66888e-05
1.662e-05
1.65725e-05
1.65131e-05
1.64716e-05
1.64203e-05
1.63881e-05
1.63392e-05
1.63146e-05
1.62694e-05
1.62394e-05
1.62034e-05
1.6169e-05
1.61177e-05
1.60848e-05
1.60377e-05
1.59887e-05
1.59258e-05
1.58666e-05
1.99999e-05
1.98702e-05
1.96047e-05
1.93335e-05
1.90981e-05
1.89313e-05
1.88106e-05
1.87094e-05
1.85898e-05
1.84771e-05
1.83683e-05
1.82765e-05
1.81836e-05
1.81023e-05
1.80148e-05
1.79361e-05
1.78515e-05
1.7775e-05
1.76925e-05
1.76185e-05
1.75387e-05
1.74658e-05
1.73856e-05
1.7313e-05
1.72344e-05
1.71648e-05
1.70884e-05
1.7029e-05
1.69533e-05
1.69036e-05
1.68286e-05
1.67825e-05
1.67153e-05
1.66713e-05
1.66117e-05
1.6573e-05
1.65249e-05
1.64929e-05
1.64471e-05
1.64244e-05
1.63804e-05
1.63522e-05
1.63173e-05
1.62821e-05
1.62316e-05
1.62002e-05
1.61495e-05
1.60973e-05
1.60311e-05
1.59709e-05
1.99999e-05
1.98739e-05
1.96158e-05
1.93533e-05
1.91209e-05
1.89521e-05
1.88294e-05
1.87306e-05
1.86159e-05
1.85063e-05
1.83983e-05
1.8308e-05
1.82182e-05
1.81404e-05
1.80562e-05
1.79812e-05
1.79e-05
1.78266e-05
1.77475e-05
1.76771e-05
1.76009e-05
1.75306e-05
1.74543e-05
1.73835e-05
1.73084e-05
1.72402e-05
1.7167e-05
1.71099e-05
1.70366e-05
1.69887e-05
1.6917e-05
1.68721e-05
1.6807e-05
1.67649e-05
1.67062e-05
1.66698e-05
1.66235e-05
1.65922e-05
1.65502e-05
1.65282e-05
1.64853e-05
1.64586e-05
1.64245e-05
1.63894e-05
1.63396e-05
1.63085e-05
1.62539e-05
1.61987e-05
1.613e-05
1.60704e-05
1.99999e-05
1.98774e-05
1.96266e-05
1.93726e-05
1.91435e-05
1.89736e-05
1.88488e-05
1.87513e-05
1.8641e-05
1.85348e-05
1.84275e-05
1.83387e-05
1.82516e-05
1.8177e-05
1.80959e-05
1.80247e-05
1.79465e-05
1.78762e-05
1.78002e-05
1.77336e-05
1.76606e-05
1.75931e-05
1.75202e-05
1.74517e-05
1.73789e-05
1.73132e-05
1.72421e-05
1.71875e-05
1.71164e-05
1.70697e-05
1.70015e-05
1.69574e-05
1.68941e-05
1.68532e-05
1.6796e-05
1.67613e-05
1.67158e-05
1.6686e-05
1.66471e-05
1.66251e-05
1.65836e-05
1.65591e-05
1.6525e-05
1.64897e-05
1.64411e-05
1.64089e-05
1.63498e-05
1.62928e-05
1.6223e-05
1.61641e-05
1.99999e-05
1.98809e-05
1.9637e-05
1.93913e-05
1.91657e-05
1.89957e-05
1.88686e-05
1.87715e-05
1.86653e-05
1.85623e-05
1.8456e-05
1.83686e-05
1.82835e-05
1.82118e-05
1.8134e-05
1.80666e-05
1.79909e-05
1.79238e-05
1.78508e-05
1.77877e-05
1.77175e-05
1.76534e-05
1.75832e-05
1.75172e-05
1.74459e-05
1.73831e-05
1.73138e-05
1.72609e-05
1.71923e-05
1.71466e-05
1.70817e-05
1.7038e-05
1.69763e-05
1.6936e-05
1.68802e-05
1.68469e-05
1.68015e-05
1.6774e-05
1.67367e-05
1.6715e-05
1.66753e-05
1.66532e-05
1.66179e-05
1.65824e-05
1.65356e-05
1.65016e-05
1.64375e-05
1.63794e-05
1.63093e-05
1.62497e-05
1.99999e-05
1.98841e-05
1.96471e-05
1.9409e-05
1.91874e-05
1.90181e-05
1.88886e-05
1.87915e-05
1.86887e-05
1.85887e-05
1.84835e-05
1.83975e-05
1.83139e-05
1.82449e-05
1.81705e-05
1.81064e-05