/*--------------------------------*- C++ -*----------------------------------*\
  =========                 |
  \\      /  F ield         | OpenFOAM: The Open Source CFD Toolbox
   \\    /   O peration     | Website:  https://openfoam.org
    \\  /    A nd           | Version:  7
     \\/     M anipulation  |
\*---------------------------------------------------------------------------*/
FoamFile
{
    version     2.0;
    format      ascii;
    class       volScalarField;
    location    "0.22";
    object      k_0;
}
// * * * * * * * * * * * * * * * * * * * * * * * * * * * * * * * * * * * * * //

dimensions      [0 2 -2 0 0 0 0];

internalField   nonuniform List<scalar> 
70000
(
1.08549e-05
4.21877e-06
2.82436e-06
2.31684e-06
1.99758e-06
1.75729e-06
1.56536e-06
1.40854e-06
1.2778e-06
1.16714e-06
1.07228e-06
9.90285e-07
9.18835e-07
8.56177e-07
8.00907e-07
7.51854e-07
7.0811e-07
6.6888e-07
6.33547e-07
6.01623e-07
5.72597e-07
5.46274e-07
5.22062e-07
5.00132e-07
4.79633e-07
4.61225e-07
4.4362e-07
4.28077e-07
4.12762e-07
3.99569e-07
3.86119e-07
3.74849e-07
3.6298e-07
3.53264e-07
3.42779e-07
3.34327e-07
3.25031e-07
3.17723e-07
3.09367e-07
3.0383e-07
2.95749e-07
2.92346e-07
2.84272e-07
2.82479e-07
2.74197e-07
2.7615e-07
2.68081e-07
2.84281e-07
2.75692e-07
2.94146e-07
1.72794e-05
1.13673e-05
8.52055e-06
7.01048e-06
6.03739e-06
5.31125e-06
4.73196e-06
4.25834e-06
3.86348e-06
3.52924e-06
3.24276e-06
2.99513e-06
2.77933e-06
2.59005e-06
2.42308e-06
2.27487e-06
2.14268e-06
2.02413e-06
1.91733e-06
1.82085e-06
1.73308e-06
1.65354e-06
1.58028e-06
1.51404e-06
1.45197e-06
1.39637e-06
1.34305e-06
1.29609e-06
1.24971e-06
1.20983e-06
1.16912e-06
1.135e-06
1.09914e-06
1.06965e-06
1.03803e-06
1.01232e-06
9.84306e-07
9.62087e-07
9.36772e-07
9.19913e-07
8.95319e-07
8.84336e-07
8.60278e-07
8.53172e-07
8.29604e-07
8.30656e-07
8.10635e-07
8.42133e-07
8.33097e-07
8.605e-07
1.937e-05
1.61297e-05
1.32911e-05
1.12896e-05
9.82871e-06
8.6964e-06
7.77895e-06
7.02138e-06
6.38519e-06
5.84392e-06
5.37835e-06
4.97467e-06
4.62202e-06
4.31198e-06
4.03798e-06
3.7943e-06
3.57659e-06
3.38109e-06
3.20466e-06
3.04524e-06
2.89986e-06
2.76825e-06
2.6466e-06
2.53686e-06
2.43356e-06
2.34136e-06
2.25245e-06
2.17448e-06
2.09709e-06
2.03069e-06
1.96284e-06
1.9058e-06
1.84616e-06
1.79663e-06
1.74418e-06
1.70082e-06
1.65439e-06
1.61689e-06
1.57469e-06
1.54554e-06
1.5044e-06
1.48465e-06
1.44459e-06
1.43062e-06
1.39296e-06
1.38845e-06
1.35786e-06
1.38494e-06
1.39926e-06
1.41418e-06
1.9861e-05
1.826e-05
1.60857e-05
1.42003e-05
1.26403e-05
1.13489e-05
1.02613e-05
9.33917e-06
8.54814e-06
7.86489e-06
7.27079e-06
6.751e-06
6.29357e-06
5.88878e-06
5.52902e-06
5.20736e-06
4.9186e-06
4.65834e-06
4.42244e-06
4.20893e-06
4.01327e-06
3.83618e-06
3.67146e-06
3.52325e-06
3.38265e-06
3.25769e-06
3.1362e-06
3.03005e-06
2.92411e-06
2.83321e-06
2.74039e-06
2.66174e-06
2.58032e-06
2.51148e-06
2.44007e-06
2.37941e-06
2.31622e-06
2.26358e-06
2.20573e-06
2.16324e-06
2.10727e-06
2.07683e-06
2.02236e-06
2.00055e-06
1.95014e-06
1.93771e-06
1.89525e-06
1.90693e-06
1.94442e-06
1.9404e-06
1.99706e-05
1.78458e-05
1.60749e-05
1.47665e-05
1.36027e-05
1.25376e-05
1.15696e-05
1.07018e-05
9.9213e-06
9.22554e-06
8.60612e-06
8.05311e-06
7.55827e-06
7.11406e-06
6.71417e-06
6.3525e-06
6.02445e-06
5.72645e-06
5.45399e-06
5.20632e-06
4.97727e-06
4.76973e-06
4.57464e-06
4.39941e-06
4.23126e-06
4.0823e-06
3.93594e-06
3.80827e-06
3.68014e-06
3.56971e-06
3.45735e-06
3.36072e-06
3.26229e-06
3.17673e-06
3.0905e-06
3.01443e-06
2.93805e-06
2.87154e-06
2.80163e-06
2.74621e-06
2.67972e-06
2.6361e-06
2.57209e-06
2.54091e-06
2.47894e-06
2.45808e-06
2.40558e-06
2.40002e-06
2.42806e-06
2.41475e-06
2.00095e-05
1.47038e-05
1.37479e-05
1.3211e-05
1.25914e-05
1.1927e-05
1.12778e-05
1.06572e-05
1.00804e-05
9.54599e-06
9.04599e-06
8.5792e-06
8.14649e-06
7.74618e-06
7.37572e-06
7.0328e-06
6.71551e-06
6.42299e-06
6.15127e-06
5.90204e-06
5.66775e-06
5.45457e-06
5.25068e-06
5.06754e-06
4.88882e-06
4.73057e-06
4.57299e-06
4.43519e-06
4.29621e-06
4.17506e-06
4.05274e-06
3.94494e-06
3.83762e-06
3.74068e-06
3.64651e-06
3.55924e-06
3.47558e-06
3.39827e-06
3.32196e-06
3.25535e-06
3.18419e-06
3.1281e-06
3.06104e-06
3.0161e-06
2.95177e-06
2.91898e-06
2.86648e-06
2.83178e-06
2.84502e-06
2.82336e-06
2.01332e-05
1.54676e-05
9.63473e-06
9.39817e-06
9.49276e-06
9.49197e-06
9.43329e-06
9.29465e-06
9.05434e-06
8.78022e-06
8.48567e-06
8.18792e-06
7.89674e-06
7.61293e-06
7.33678e-06
7.07568e-06
6.8288e-06
6.59495e-06
6.37109e-06
6.16166e-06
5.95873e-06
5.77205e-06
5.58826e-06
5.42258e-06
5.25654e-06
5.10887e-06
4.95921e-06
4.82723e-06
4.69348e-06
4.57442e-06
4.45563e-06
4.34704e-06
4.24213e-06
4.14237e-06
4.04965e-06
3.95831e-06
3.87538e-06
3.79285e-06
3.71746e-06
3.64373e-06
3.57474e-06
3.5091e-06
3.44592e-06
3.38808e-06
3.33065e-06
3.27902e-06
3.23823e-06
3.17765e-06
3.17638e-06
3.14614e-06
2.01713e-05
1.8676e-05
8.69232e-06
5.54035e-06
5.6305e-06
5.93426e-06
6.29229e-06
6.57701e-06
6.75645e-06
6.86465e-06
6.88379e-06
6.86418e-06
6.81198e-06
6.72281e-06
6.61227e-06
6.49019e-06
6.35242e-06
6.2108e-06
6.06718e-06
5.92694e-06
5.78391e-06
5.64955e-06
5.51152e-06
5.38594e-06
5.25465e-06
5.13882e-06
5.0188e-06
4.91111e-06
4.80104e-06
4.69955e-06
4.59971e-06
4.50349e-06
4.4138e-06
4.3226e-06
4.24199e-06
4.15638e-06
4.0833e-06
4.00378e-06
3.93724e-06
3.86339e-06
3.80315e-06
3.73435e-06
3.68045e-06
3.61586e-06
3.56926e-06
3.50641e-06
3.47284e-06
3.40431e-06
3.39378e-06
3.35301e-06
2.01672e-05
1.97239e-05
1.61675e-05
4.86186e-06
3.04256e-06
3.10567e-06
3.37437e-06
3.80381e-06
4.16927e-06
4.48645e-06
4.73334e-06
4.92208e-06
5.06229e-06
5.1617e-06
5.21966e-06
5.25522e-06
5.2578e-06
5.24897e-06
5.22578e-06
5.18796e-06
5.13751e-06
5.08388e-06
5.02026e-06
4.95777e-06
4.88648e-06
4.81925e-06
4.74348e-06
4.67245e-06
4.59814e-06
4.52581e-06
4.45548e-06
4.38289e-06
4.31764e-06
4.24568e-06
4.18536e-06
4.11539e-06
4.05946e-06
3.99212e-06
3.94065e-06
3.87598e-06
3.8297e-06
3.76726e-06
3.72582e-06
3.66481e-06
3.62888e-06
3.56822e-06
3.53833e-06
3.47504e-06
3.45945e-06
3.42396e-06
2.01476e-05
1.99342e-05
1.90656e-05
1.4499e-05
5.24426e-06
2.15499e-06
1.91455e-06
1.99359e-06
2.20667e-06
2.50464e-06
2.78002e-06
3.0322e-06
3.25632e-06
3.45216e-06
3.61479e-06
3.75245e-06
3.86253e-06
3.95062e-06
4.01994e-06
4.07265e-06
4.10902e-06
4.13306e-06
4.14661e-06
4.1481e-06
4.14414e-06
4.13535e-06
4.11782e-06
4.09752e-06
4.07279e-06
4.0436e-06
4.0146e-06
3.97904e-06
3.94777e-06
3.90743e-06
3.87565e-06
3.83231e-06
3.80046e-06
3.75527e-06
3.72407e-06
3.67748e-06
3.64706e-06
3.59934e-06
3.57063e-06
3.52214e-06
3.49562e-06
3.44656e-06
3.42184e-06
3.37204e-06
3.34959e-06
3.32454e-06
2.01216e-05
1.99661e-05
1.96424e-05
1.85464e-05
1.52131e-05
8.3615e-06
3.10764e-06
1.63355e-06
1.44248e-06
1.44924e-06
1.52579e-06
1.68599e-06
1.86746e-06
2.04356e-06
2.2125e-06
2.37098e-06
2.51654e-06
2.64714e-06
2.7633e-06
2.86655e-06
2.95595e-06
3.0337e-06
3.09973e-06
3.15588e-06
3.20144e-06
3.24043e-06
3.27092e-06
3.29472e-06
3.31342e-06
3.32519e-06
3.33407e-06
3.33706e-06
3.33665e-06
3.33336e-06
3.32861e-06
3.31769e-06
3.30975e-06
3.29311e-06
3.2827e-06
3.26169e-06
3.24938e-06
3.22491e-06
3.21099e-06
3.18342e-06
3.16823e-06
3.13799e-06
3.12128e-06
3.08936e-06
3.06877e-06
3.04977e-06
2.00982e-05
1.99327e-05
1.97573e-05
1.93525e-05
1.85064e-05
1.65376e-05
1.23312e-05
6.86577e-06
2.99204e-06
1.4947e-06
1.24345e-06
1.14757e-06
1.15143e-06
1.19338e-06
1.28494e-06
1.39106e-06
1.50235e-06
1.61155e-06
1.71967e-06
1.82413e-06
1.92196e-06
2.01428e-06
2.09868e-06
2.17701e-06
2.24796e-06
2.31223e-06
2.37092e-06
2.42211e-06
2.46953e-06
2.50937e-06
2.54657e-06
2.57668e-06
2.60513e-06
2.62633e-06
2.64776e-06
2.66164e-06
2.67665e-06
2.68441e-06
2.69354e-06
2.69673e-06
2.70002e-06
2.69935e-06
2.69781e-06
2.69312e-06
2.68867e-06
2.67862e-06
2.67143e-06
2.65673e-06
2.64483e-06
2.63313e-06
2.00781e-05
1.98876e-05
1.97569e-05
1.94609e-05
1.91459e-05
1.86414e-05
1.75569e-05
1.54292e-05
1.17492e-05
7.45779e-06
3.99389e-06
1.92119e-06
1.21052e-06
1.05766e-06
9.82661e-07
9.42114e-07
9.5278e-07
9.85919e-07
1.04691e-06
1.1103e-06
1.17779e-06
1.24697e-06
1.31584e-06
1.38446e-06
1.45176e-06
1.51511e-06
1.57727e-06
1.63379e-06
1.68952e-06
1.73904e-06
1.78797e-06
1.83039e-06
1.87273e-06
1.90829e-06
1.94382e-06
1.97349e-06
2.00263e-06
2.02659e-06
2.04976e-06
2.06882e-06
2.08629e-06
2.1004e-06
2.11285e-06
2.12201e-06
2.12977e-06
2.13408e-06
2.13666e-06
2.13564e-06
2.1339e-06
2.12969e-06
2.00614e-05
1.98539e-05
1.97343e-05
1.94711e-05
1.92552e-05
1.90471e-05
1.87363e-05
1.81919e-05
1.71004e-05
1.52394e-05
1.25806e-05
9.2556e-06
5.9966e-06
3.49957e-06
1.89574e-06
1.17354e-06
9.66164e-07
8.91726e-07
8.37497e-07
7.95945e-07
7.97045e-07
8.09584e-07
8.37942e-07
8.75386e-07
9.14755e-07
9.55031e-07
9.98705e-07
1.04057e-06
1.08546e-06
1.12736e-06
1.17098e-06
1.21044e-06
1.25119e-06
1.28748e-06
1.32427e-06
1.35732e-06
1.3902e-06
1.41921e-06
1.44801e-06
1.47328e-06
1.49766e-06
1.51872e-06
1.53884e-06
1.55551e-06
1.57132e-06
1.58307e-06
1.59466e-06
1.60085e-06
1.6076e-06
1.60967e-06
2.00475e-05
1.98303e-05
1.97077e-05
1.9449e-05
1.92721e-05
1.9115e-05
1.89654e-05
1.87508e-05
1.84634e-05
1.79151e-05
1.70826e-05
1.57114e-05
1.39e-05
1.15603e-05
8.89102e-06
6.28806e-06
4.11426e-06
2.53597e-06
1.52727e-06
1.04069e-06
8.66211e-07
8.00881e-07
7.52993e-07
7.12152e-07
6.82136e-07
6.76471e-07
6.81528e-07
6.93782e-07
7.15193e-07
7.36519e-07
7.60965e-07
7.84016e-07
8.10322e-07
8.35341e-07
8.62294e-07
8.87845e-07
9.14736e-07
9.39005e-07
9.64502e-07
9.87088e-07
1.01015e-06
1.03033e-06
1.05066e-06
1.06823e-06
1.08531e-06
1.09979e-06
1.11299e-06
1.12422e-06
1.13248e-06
1.14064e-06
2.00362e-05
1.98125e-05
1.96852e-05
1.94187e-05
1.92581e-05
1.91086e-05
1.90003e-05
1.88496e-05
1.87127e-05
1.85019e-05
1.825e-05
1.78364e-05
1.72388e-05
1.63728e-05
1.51806e-05
1.36535e-05
1.1858e-05
9.78703e-06
7.65282e-06
5.65987e-06
3.97614e-06
2.69042e-06
1.76377e-06
1.1858e-06
8.94491e-07
7.70753e-07
7.14853e-07
6.77185e-07
6.42637e-07
6.1135e-07
5.9056e-07
5.79167e-07
5.80034e-07
5.84088e-07
5.92927e-07
6.03844e-07
6.16943e-07
6.28801e-07
6.42607e-07
6.55125e-07
6.69073e-07
6.82189e-07
6.95874e-07
7.09035e-07
7.21502e-07
7.33804e-07
7.44233e-07
7.54824e-07
7.62316e-07
7.70439e-07
2.00272e-05
1.97986e-05
1.9666e-05
1.93967e-05
1.92323e-05
1.90811e-05
1.89822e-05
1.8853e-05
1.87368e-05
1.85971e-05
1.84616e-05
1.82912e-05
1.80844e-05
1.77989e-05
1.74163e-05
1.68758e-05
1.61742e-05
1.52604e-05
1.41309e-05
1.28001e-05
1.13169e-05
9.67309e-06
7.97986e-06
6.35238e-06
4.87498e-06
3.63003e-06
2.64101e-06
1.87846e-06
1.33165e-06
9.84622e-07
7.93238e-07
6.96581e-07
6.46844e-07
6.14251e-07
5.87714e-07
5.61585e-07
5.38222e-07
5.18704e-07
5.059e-07
4.9786e-07
4.95724e-07
4.96604e-07
4.98938e-07
5.03688e-07
5.07808e-07
5.13856e-07
5.17705e-07
5.23208e-07
5.26425e-07
5.30684e-07
2.002e-05
1.979e-05
1.9646e-05
1.93802e-05
1.92081e-05
1.90521e-05
1.89441e-05
1.88266e-05
1.87152e-05
1.85904e-05
1.84733e-05
1.83469e-05
1.82235e-05
1.80806e-05
1.79252e-05
1.7727e-05
1.74848e-05
1.71687e-05
1.67677e-05
1.62519e-05
1.56231e-05
1.4856e-05
1.39532e-05
1.29172e-05
1.17814e-05
1.05572e-05
9.25259e-06
7.93104e-06
6.64331e-06
5.4448e-06
4.36372e-06
3.439e-06
2.67575e-06
2.05408e-06
1.56215e-06
1.19398e-06
9.37494e-07
7.73487e-07
6.74351e-07
6.16181e-07
5.80517e-07
5.5593e-07
5.3595e-07
5.18583e-07
5.01562e-07
4.87403e-07
4.7194e-07
4.62207e-07
4.50477e-07
4.45167e-07
2.00145e-05
1.979e-05
1.96198e-05
1.93668e-05
1.91875e-05
1.90254e-05
1.8908e-05
1.87905e-05
1.86751e-05
1.85548e-05
1.84429e-05
1.83252e-05
1.8214e-05
1.80956e-05
1.79825e-05
1.78612e-05
1.77364e-05
1.7596e-05
1.7436e-05
1.7245e-05
1.70161e-05
1.67367e-05
1.63989e-05
1.599e-05
1.55048e-05
1.4941e-05
1.42921e-05
1.35572e-05
1.27471e-05
1.18666e-05
1.09421e-05
9.9751e-06
8.97125e-06
7.96453e-06
6.97923e-06
6.0417e-06
5.167e-06
4.37791e-06
3.6689e-06
3.06487e-06
2.54964e-06
2.1153e-06
1.75261e-06
1.45578e-06
1.21943e-06
1.03615e-06
8.9663e-07
7.9649e-07
7.14424e-07
6.65369e-07
2.00102e-05
1.97941e-05
1.95931e-05
1.9353e-05
1.91686e-05
1.89999e-05
1.88744e-05
1.87547e-05
1.86352e-05
1.8512e-05
1.83974e-05
1.8279e-05
1.81695e-05
1.80575e-05
1.79505e-05
1.78421e-05
1.77337e-05
1.76277e-05
1.75175e-05
1.74081e-05
1.72905e-05
1.71637e-05
1.70231e-05
1.68628e-05
1.66771e-05
1.64636e-05
1.62139e-05
1.5926e-05
1.55937e-05
1.52131e-05
1.47847e-05
1.43098e-05
1.37842e-05
1.32102e-05
1.25961e-05
1.19432e-05
1.12653e-05
1.05647e-05
9.86045e-06
9.14841e-06
8.43152e-06
7.73973e-06
7.06956e-06
6.44157e-06
5.85622e-06
5.32368e-06
4.83869e-06
4.4214e-06
4.02135e-06
3.69439e-06
2.0007e-05
1.98016e-05
1.95686e-05
1.93395e-05
1.91509e-05
1.8976e-05
1.88424e-05
1.87202e-05
1.85965e-05
1.84702e-05
1.83516e-05
1.82303e-05
1.81178e-05
1.80033e-05
1.78947e-05
1.77863e-05
1.76808e-05
1.75819e-05
1.74772e-05
1.73816e-05
1.7281e-05
1.71829e-05
1.70849e-05
1.69865e-05
1.68825e-05
1.67783e-05
1.66617e-05
1.65406e-05
1.64037e-05
1.6252e-05
1.60818e-05
1.58958e-05
1.56833e-05
1.54482e-05
1.51887e-05
1.49034e-05
1.45891e-05
1.42546e-05
1.38882e-05
1.35135e-05
1.31007e-05
1.26912e-05
1.22514e-05
1.18195e-05
1.1377e-05
1.09434e-05
1.0519e-05
1.0112e-05
9.72191e-06
9.35212e-06
2.00047e-05
1.98101e-05
1.95459e-05
1.9326e-05
1.91339e-05
1.89536e-05
1.88118e-05
1.86869e-05
1.85593e-05
1.84299e-05
1.83075e-05
1.81824e-05
1.80669e-05
1.79493e-05
1.78375e-05
1.77267e-05
1.76166e-05
1.75167e-05
1.74081e-05
1.73134e-05
1.72137e-05
1.7121e-05
1.70289e-05
1.69401e-05
1.68483e-05
1.67644e-05
1.66719e-05
1.65893e-05
1.65006e-05
1.64128e-05
1.63204e-05
1.6232e-05
1.61309e-05
1.60272e-05
1.59164e-05
1.57992e-05
1.56671e-05
1.5533e-05
1.53787e-05
1.52267e-05
1.50462e-05
1.48743e-05
1.46745e-05
1.44796e-05
1.42687e-05
1.40545e-05
1.38381e-05
1.36173e-05
1.34109e-05
1.31908e-05
2.0003e-05
1.9819e-05
1.95249e-05
1.9312e-05
1.9117e-05
1.89326e-05
1.87825e-05
1.86547e-05
1.85238e-05
1.83916e-05
1.82654e-05
1.81367e-05
1.8018e-05
1.78974e-05
1.77821e-05
1.76685e-05
1.75548e-05
1.74528e-05
1.73397e-05
1.72434e-05
1.71389e-05
1.70432e-05
1.69482e-05
1.68575e-05
1.67638e-05
1.66823e-05
1.65934e-05
1.65173e-05
1.6435e-05
1.63579e-05
1.62782e-05
1.62092e-05
1.61295e-05
1.60551e-05
1.59824e-05
1.59113e-05
1.58337e-05
1.57637e-05
1.56842e-05
1.56123e-05
1.5526e-05
1.54502e-05
1.53599e-05
1.52746e-05
1.51827e-05
1.50885e-05
1.49907e-05
1.48928e-05
1.4803e-05
1.46994e-05
2.00018e-05
1.98274e-05
1.95058e-05
1.92969e-05
1.90999e-05
1.89132e-05
1.87548e-05
1.86237e-05
1.84899e-05
1.83555e-05
1.82256e-05
1.80938e-05
1.79718e-05
1.78487e-05
1.77299e-05
1.76135e-05
1.74966e-05
1.73919e-05
1.72755e-05
1.71766e-05
1.70686e-05
1.69703e-05
1.6872e-05
1.6778e-05
1.6681e-05
1.65959e-05
1.65028e-05
1.64237e-05
1.63382e-05
1.62594e-05
1.61784e-05
1.61107e-05
1.60345e-05
1.59647e-05
1.58978e-05
1.58343e-05
1.57655e-05
1.57075e-05
1.56429e-05
1.55869e-05
1.55228e-05
1.54691e-05
1.54086e-05
1.5354e-05
1.52988e-05
1.52444e-05
1.51856e-05
1.51347e-05
1.50866e-05
1.50341e-05
2.00009e-05
1.98305e-05
1.94894e-05
1.92815e-05
1.90827e-05
1.88957e-05
1.87293e-05
1.85944e-05
1.84582e-05
1.8322e-05
1.81884e-05
1.80543e-05
1.7929e-05
1.78038e-05
1.76817e-05
1.75626e-05
1.74431e-05
1.73352e-05
1.72166e-05
1.71145e-05
1.70038e-05
1.69031e-05
1.68019e-05
1.67051e-05
1.66052e-05
1.65171e-05
1.64214e-05
1.63391e-05
1.62499e-05
1.61687e-05
1.6084e-05
1.60131e-05
1.59328e-05
1.58596e-05
1.57897e-05
1.57241e-05
1.56536e-05
1.55947e-05
1.55306e-05
1.54749e-05
1.54157e-05
1.53652e-05
1.53096e-05
1.52598e-05
1.52111e-05
1.51642e-05
1.51122e-05
1.50717e-05
1.50321e-05
1.4993e-05
2.00003e-05
1.98288e-05
1.94762e-05
1.92655e-05
1.90655e-05
1.888e-05
1.8706e-05
1.8567e-05
1.8429e-05
1.82916e-05
1.81546e-05
1.80188e-05
1.78904e-05
1.77634e-05
1.76382e-05
1.75169e-05
1.73951e-05
1.72839e-05
1.71638e-05
1.70585e-05
1.69454e-05
1.68428e-05
1.67387e-05
1.66397e-05
1.6537e-05
1.64466e-05
1.63489e-05
1.6264e-05
1.61717e-05
1.60891e-05
1.60013e-05
1.59278e-05
1.58451e-05
1.57694e-05
1.56962e-05
1.56284e-05
1.5555e-05
1.54937e-05
1.54273e-05
1.53678e-05
1.53074e-05
1.52538e-05
1.51957e-05
1.5145e-05
1.50952e-05
1.50479e-05
1.49956e-05
1.49557e-05
1.49165e-05
1.48799e-05
2e-05
1.98271e-05
1.9465e-05
1.92481e-05
1.90474e-05
1.88657e-05
1.86851e-05
1.85418e-05
1.84025e-05
1.82642e-05
1.81244e-05
1.79874e-05
1.78563e-05
1.7728e-05
1.76003e-05
1.74772e-05
1.73534e-05
1.72393e-05
1.7118e-05
1.70096e-05
1.68948e-05
1.67903e-05
1.66835e-05
1.65828e-05
1.64775e-05
1.63852e-05
1.62859e-05
1.61986e-05
1.61039e-05
1.60204e-05
1.59301e-05
1.58543e-05
1.57704e-05
1.56929e-05
1.56173e-05
1.55482e-05
1.5473e-05
1.54102e-05
1.53419e-05
1.528e-05
1.52194e-05
1.51638e-05
1.51027e-05
1.50515e-05
1.50002e-05
1.4951e-05
1.48979e-05
1.48574e-05
1.4816e-05
1.47807e-05
1.99999e-05
1.98259e-05
1.94567e-05
1.92304e-05
1.90294e-05
1.8853e-05
1.86671e-05
1.85193e-05
1.8379e-05
1.82404e-05
1.80986e-05
1.79608e-05
1.78276e-05
1.76982e-05
1.75685e-05
1.74443e-05
1.73186e-05
1.72025e-05
1.70799e-05
1.69692e-05
1.6853e-05
1.67468e-05
1.66377e-05
1.65355e-05
1.64279e-05
1.63342e-05
1.62333e-05
1.61438e-05
1.60474e-05
1.59631e-05
1.58709e-05
1.5793e-05
1.57086e-05
1.56297e-05
1.55524e-05
1.54824e-05
1.5406e-05
1.53428e-05
1.52729e-05
1.52099e-05
1.51497e-05
1.50929e-05
1.50299e-05
1.49793e-05
1.49274e-05
1.48766e-05
1.48234e-05
1.47832e-05
1.47406e-05
1.47062e-05
1.99999e-05
1.98252e-05
1.94514e-05
1.92135e-05
1.90123e-05
1.88422e-05
1.86527e-05
1.85005e-05
1.83594e-05
1.82209e-05
1.80778e-05
1.79396e-05
1.78048e-05
1.76749e-05
1.75437e-05
1.74189e-05
1.72917e-05
1.71742e-05
1.70505e-05
1.69381e-05
1.68211e-05
1.67132e-05
1.66022e-05
1.6499e-05
1.63895e-05
1.62947e-05
1.61925e-05
1.61012e-05
1.60035e-05
1.59185e-05
1.58249e-05
1.5745e-05
1.56606e-05
1.55806e-05
1.5502e-05
1.54313e-05
1.53547e-05
1.52913e-05
1.52197e-05
1.51571e-05
1.50976e-05
1.50395e-05
1.49757e-05
1.49265e-05
1.48742e-05
1.48224e-05
1.47699e-05
1.47306e-05
1.4688e-05
1.46539e-05
1.99999e-05
1.98249e-05
1.94488e-05
1.91982e-05
1.89968e-05
1.88333e-05
1.86425e-05
1.8486e-05
1.8344e-05
1.82061e-05
1.80626e-05
1.79245e-05
1.77885e-05
1.76588e-05
1.75266e-05
1.74018e-05
1.72736e-05
1.71552e-05
1.70309e-05
1.69172e-05
1.67999e-05
1.66906e-05
1.65781e-05
1.64745e-05
1.63634e-05
1.62677e-05
1.61645e-05
1.60719e-05
1.59732e-05
1.58879e-05
1.57932e-05
1.5712e-05
1.56273e-05
1.55472e-05
1.54674e-05
1.53959e-05
1.53202e-05
1.52565e-05
1.51833e-05
1.51223e-05
1.50631e-05
1.50038e-05
1.49406e-05
1.48929e-05
1.48399e-05
1.47879e-05
1.47368e-05
1.46983e-05
1.46561e-05
1.46219e-05
1.99999e-05
1.9825e-05
1.94488e-05
1.91852e-05
1.89832e-05
1.88262e-05
1.86364e-05
1.8476e-05
1.83331e-05
1.81963e-05
1.80533e-05
1.79158e-05
1.77793e-05
1.76501e-05
1.75176e-05
1.73934e-05
1.72648e-05
1.7146e-05
1.70218e-05
1.69073e-05
1.67901e-05
1.668e-05
1.65662e-05
1.64628e-05
1.63507e-05
1.62543e-05
1.61506e-05
1.60572e-05
1.59576e-05
1.58725e-05
1.57769e-05
1.56951e-05
1.56098e-05
1.55307e-05
1.54495e-05
1.53776e-05
1.53036e-05
1.52394e-05
1.51653e-05
1.51067e-05
1.50472e-05
1.49872e-05
1.49258e-05
1.48791e-05
1.48251e-05
1.4774e-05
1.47246e-05
1.46866e-05
1.46444e-05
1.46096e-05
1.99999e-05
1.98256e-05
1.94511e-05
1.9175e-05
1.89717e-05
1.88204e-05
1.86345e-05
1.84708e-05
1.83268e-05
1.81915e-05
1.80499e-05
1.79136e-05
1.77774e-05
1.76493e-05
1.75175e-05
1.7394e-05
1.7266e-05
1.71472e-05
1.70235e-05
1.69088e-05
1.67919e-05
1.66818e-05
1.65674e-05
1.64643e-05
1.63519e-05
1.62552e-05
1.61512e-05
1.60579e-05
1.59576e-05
1.58732e-05
1.5777e-05
1.56953e-05
1.56093e-05
1.55319e-05
1.54494e-05
1.53776e-05
1.53056e-05
1.52406e-05
1.51666e-05
1.51103e-05
1.50501e-05
1.49903e-05
1.49312e-05
1.48847e-05
1.48299e-05
1.47807e-05
1.47331e-05
1.46947e-05
1.46524e-05
1.4617e-05
1.99999e-05
1.98267e-05
1.94559e-05
1.91683e-05
1.89628e-05
1.88163e-05
1.86363e-05
1.84704e-05
1.83253e-05
1.8192e-05
1.80523e-05
1.79175e-05
1.77821e-05
1.76554e-05
1.75244e-05
1.74022e-05
1.72752e-05
1.71567e-05
1.70343e-05
1.69198e-05
1.68037e-05
1.66939e-05
1.65791e-05
1.64769e-05
1.63647e-05
1.62678e-05
1.61639e-05
1.60713e-05
1.59702e-05
1.5887e-05
1.57906e-05
1.57096e-05
1.56225e-05
1.5548e-05
1.5464e-05
1.53931e-05
1.53235e-05
1.52576e-05
1.51848e-05
1.51311e-05
1.50699e-05
1.50118e-05
1.49554e-05
1.49085e-05
1.48536e-05
1.48075e-05
1.4761e-05
1.47219e-05
1.46795e-05
1.46437e-05
1.99999e-05
1.98283e-05
1.94628e-05
1.91652e-05
1.89567e-05
1.88135e-05
1.86418e-05
1.84743e-05
1.83281e-05
1.81966e-05
1.80596e-05
1.79272e-05
1.77934e-05
1.76687e-05
1.75398e-05
1.74192e-05
1.72943e-05
1.71767e-05
1.70563e-05
1.69427e-05
1.68277e-05
1.67191e-05
1.66045e-05
1.65034e-05
1.63924e-05
1.62955e-05
1.61921e-05
1.61011e-05
1.59992e-05
1.59179e-05
1.58217e-05
1.5742e-05
1.56537e-05
1.5583e-05
1.54976e-05
1.54283e-05
1.5361e-05
1.52948e-05
1.52244e-05
1.51725e-05
1.51105e-05
1.50555e-05
1.50012e-05
1.49532e-05
1.48994e-05
1.48564e-05
1.48103e-05
1.47701e-05
1.47275e-05
1.46912e-05
1.99999e-05
1.98303e-05
1.94715e-05
1.91659e-05
1.89535e-05
1.88122e-05
1.86499e-05
1.8483e-05
1.83356e-05
1.82063e-05
1.80724e-05
1.79427e-05
1.78112e-05
1.76888e-05
1.75624e-05
1.74439e-05
1.73215e-05
1.72054e-05
1.70873e-05
1.69754e-05
1.68618e-05
1.67548e-05
1.66415e-05
1.65414e-05
1.64322e-05
1.63361e-05
1.62331e-05
1.61446e-05
1.60425e-05
1.59632e-05
1.58677e-05
1.57901e-05
1.57008e-05
1.56338e-05
1.55479e-05
1.5481e-05
1.5415e-05
1.53496e-05
1.52822e-05
1.52313e-05
1.51694e-05
1.51183e-05
1.50652e-05
1.50164e-05
1.49646e-05
1.49246e-05
1.48779e-05
1.48368e-05
1.47942e-05
1.47579e-05
1.99999e-05
1.98329e-05
1.94819e-05
1.91701e-05
1.89531e-05
1.88126e-05
1.86601e-05
1.84953e-05
1.83472e-05
1.82198e-05
1.80893e-05
1.79629e-05
1.78341e-05
1.77144e-05
1.75911e-05
1.74751e-05
1.73556e-05
1.72418e-05
1.71261e-05
1.70166e-05
1.69047e-05
1.67997e-05
1.66885e-05
1.65895e-05
1.64826e-05
1.63879e-05
1.62856e-05
1.62001e-05
1.60983e-05
1.60211e-05
1.59267e-05
1.58517e-05
1.57619e-05
1.56986e-05
1.5613e-05
1.55489e-05
1.54836e-05
1.54202e-05
1.53561e-05
1.53056e-05
1.5245e-05
1.51981e-05
1.51452e-05
1.50964e-05
1.50474e-05
1.50094e-05
1.49616e-05
1.49203e-05
1.48776e-05
1.48417e-05
1.99999e-05
1.98359e-05
1.94932e-05
1.91782e-05
1.89559e-05
1.88147e-05
1.86719e-05
1.8511e-05
1.83624e-05
1.82369e-05
1.81097e-05
1.79871e-05
1.78615e-05
1.77447e-05
1.76248e-05
1.7512e-05
1.73954e-05
1.72846e-05
1.71715e-05
1.70651e-05
1.69551e-05
1.68525e-05
1.6744e-05
1.66465e-05
1.6542e-05
1.64495e-05
1.63479e-05
1.62657e-05
1.6165e-05
1.60899e-05
1.59971e-05
1.5925e-05
1.58351e-05
1.57752e-05
1.5691e-05
1.56299e-05
1.5565e-05
1.55048e-05
1.54438e-05
1.53936e-05
1.53354e-05
1.52922e-05
1.5239e-05
1.51914e-05
1.51453e-05
1.51081e-05
1.50593e-05
1.50181e-05
1.49754e-05
1.494e-05
1.99999e-05
1.98392e-05
1.95053e-05
1.91892e-05
1.89619e-05
1.88192e-05
1.86849e-05
1.85295e-05
1.83813e-05
1.82572e-05
1.81331e-05
1.80145e-05
1.78925e-05
1.77791e-05
1.76626e-05
1.75534e-05
1.74399e-05
1.73326e-05
1.72223e-05
1.71194e-05
1.70117e-05
1.69119e-05
1.68064e-05
1.67107e-05
1.66087e-05
1.65189e-05
1.64184e-05
1.63396e-05
1.62406e-05
1.61678e-05
1.60767e-05
1.6008e-05
1.59186e-05
1.58617e-05
1.57799e-05
1.57214e-05
1.56571e-05
1.5601e-05
1.55424e-05
1.54931e-05
1.54379e-05
1.53976e-05
1.53444e-05
1.5299e-05
1.52551e-05
1.52178e-05
1.51684e-05
1.51278e-05
1.50846e-05
1.50493e-05
1.99999e-05
1.98429e-05
1.95179e-05
1.92028e-05
1.89708e-05
1.88259e-05
1.86986e-05
1.85502e-05
1.8403e-05
1.828e-05
1.81588e-05
1.80445e-05
1.79262e-05
1.78165e-05
1.77037e-05
1.75982e-05
1.74879e-05
1.73846e-05
1.72774e-05
1.71779e-05
1.7073e-05
1.69762e-05
1.68741e-05
1.67805e-05
1.66812e-05
1.65943e-05
1.64955e-05
1.64199e-05
1.63232e-05
1.62528e-05
1.61636e-05
1.60985e-05
1.60103e-05
1.59559e-05
1.58771e-05
1.58213e-05
1.57576e-05
1.57061e-05
1.56495e-05
1.56017e-05
1.55498e-05
1.55115e-05
1.54588e-05
1.54164e-05
1.53735e-05
1.53356e-05
1.52864e-05
1.52463e-05
1.52022e-05
1.5166e-05
1.99999e-05
1.98466e-05
1.95307e-05
1.92185e-05
1.89826e-05
1.88349e-05
1.87128e-05
1.85724e-05
1.84271e-05
1.83049e-05
1.81864e-05
1.80764e-05
1.7962e-05
1.78561e-05
1.77469e-05
1.76454e-05
1.75386e-05
1.74393e-05
1.73355e-05
1.72394e-05
1.7138e-05
1.7044e-05
1.69457e-05
1.68543e-05
1.67578e-05
1.6674e-05
1.65774e-05
1.65047e-05
1.64107e-05
1.63432e-05
1.62556e-05
1.61942e-05
1.61079e-05
1.60555e-05
1.59802e-05
1.59272e-05
1.58642e-05
1.58175e-05
1.57624e-05
1.5717e-05
1.56682e-05
1.56311e-05
1.55798e-05
1.55408e-05
1.54975e-05
1.54589e-05
1.54105e-05
1.53708e-05
1.53251e-05
1.52866e-05
1.99999e-05
1.98506e-05
1.95436e-05
1.92358e-05
1.89972e-05
1.88463e-05
1.87275e-05
1.85955e-05
1.84531e-05
1.83316e-05
1.82153e-05
1.81096e-05
1.7999e-05
1.78971e-05
1.77917e-05
1.76941e-05
1.75909e-05
1.74956e-05
1.73956e-05
1.73025e-05
1.72054e-05
1.71139e-05
1.70197e-05
1.69306e-05
1.68371e-05
1.67564e-05
1.66625e-05
1.65924e-05
1.65014e-05
1.6437e-05
1.6351e-05
1.62932e-05
1.62097e-05
1.61584e-05
1.60872e-05
1.60367e-05
1.59746e-05
1.59328e-05
1.58788e-05
1.58367e-05
1.57903e-05
1.57539e-05
1.5705e-05
1.5669e-05
1.56242e-05
1.55853e-05
1.55382e-05
1.54984e-05
1.54502e-05
1.54077e-05
1.99999e-05
1.98545e-05
1.95564e-05
1.92543e-05
1.90141e-05
1.88598e-05
1.87428e-05
1.8619e-05
1.84802e-05
1.83595e-05
1.82452e-05
1.81435e-05
1.80367e-05
1.79388e-05
1.78371e-05
1.77435e-05
1.76441e-05
1.75526e-05
1.74566e-05
1.73666e-05
1.72737e-05
1.71853e-05
1.70946e-05
1.70083e-05
1.69177e-05
1.684e-05
1.67492e-05
1.66814e-05
1.65936e-05
1.65325e-05
1.64482e-05
1.63934e-05
1.63137e-05
1.62627e-05
1.6196e-05
1.61476e-05
1.60871e-05
1.60496e-05
1.59964e-05
1.59585e-05
1.59134e-05
1.58777e-05
1.58323e-05
1.57982e-05
1.57512e-05
1.57129e-05
1.5667e-05
1.5626e-05
1.55747e-05
1.55272e-05
1.99999e-05
1.98585e-05
1.9569e-05
1.92737e-05
1.90331e-05
1.88754e-05
1.87587e-05
1.86424e-05
1.85078e-05
1.83883e-05
1.82759e-05
1.81775e-05
1.80744e-05
1.79807e-05
1.78827e-05
1.77929e-05
1.76973e-05
1.76098e-05
1.75173e-05
1.7431e-05
1.73417e-05
1.72572e-05
1.7169e-05
1.70865e-05
1.69984e-05
1.69236e-05
1.68361e-05
1.67705e-05
1.66859e-05
1.66282e-05
1.65455e-05
1.64936e-05
1.64178e-05
1.63671e-05
1.63045e-05
1.62579e-05
1.62001e-05
1.61656e-05
1.61133e-05
1.60803e-05
1.60356e-05
1.60008e-05
1.59594e-05
1.5926e-05
1.58765e-05
1.58399e-05
1.57946e-05
1.57513e-05
1.56961e-05
1.56437e-05
1.99999e-05
1.98625e-05
1.95813e-05
1.92935e-05
1.90538e-05
1.88927e-05
1.87753e-05
1.86654e-05
1.85356e-05
1.84177e-05
1.83068e-05
1.82112e-05
1.81116e-05
1.80222e-05
1.79278e-05
1.78418e-05
1.77498e-05
1.76663e-05
1.75771e-05
1.74949e-05
1.74087e-05
1.73286e-05
1.72424e-05
1.7164e-05
1.70784e-05
1.70061e-05
1.69222e-05
1.68586e-05
1.67772e-05
1.67227e-05
1.66421e-05
1.65924e-05
1.65205e-05
1.64708e-05
1.64107e-05
1.63665e-05
1.6312e-05
1.6279e-05
1.62282e-05
1.61999e-05
1.61548e-05
1.6122e-05
1.60839e-05
1.60502e-05
1.5999e-05
1.59643e-05
1.59186e-05
1.58724e-05
1.5813e-05
1.57565e-05
1.99999e-05
1.98664e-05
1.95932e-05
1.93135e-05
1.90756e-05
1.89114e-05
1.87926e-05
1.86877e-05
1.8563e-05
1.84474e-05
1.83377e-05
1.82443e-05
1.81481e-05
1.80629e-05
1.7972e-05
1.78896e-05
1.78013e-05
1.77215e-05
1.76356e-05
1.75577e-05
1.74744e-05
1.73983e-05
1.73146e-05
1.72396e-05
1.71572e-05
1.70865e-05
1.70065e-05
1.69449e-05
1.68666e-05
1.68147e-05
1.67367e-05
1.66889e-05
1.662e-05
1.65727e-05
1.65133e-05
1.6472e-05
1.64209e-05
1.63887e-05
1.634e-05
1.63154e-05
1.62699e-05
1.62401e-05
1.62039e-05
1.6169e-05
1.61176e-05
1.60849e-05
1.60371e-05
1.59877e-05
1.59244e-05
1.58652e-05
1.99999e-05
1.98702e-05
1.96047e-05
1.93335e-05
1.90981e-05
1.89313e-05
1.88107e-05
1.87095e-05
1.85899e-05
1.84771e-05
1.83683e-05
1.82766e-05
1.81838e-05
1.81025e-05
1.80149e-05
1.79362e-05
1.78515e-05
1.7775e-05
1.76925e-05
1.76185e-05
1.75387e-05
1.74656e-05
1.73854e-05
1.73127e-05
1.72341e-05
1.71644e-05
1.70883e-05
1.70288e-05
1.69532e-05
1.69035e-05
1.68285e-05
1.67825e-05
1.67153e-05
1.66714e-05
1.66119e-05
1.65735e-05
1.65254e-05
1.64934e-05
1.64479e-05
1.64251e-05
1.63809e-05
1.63529e-05
1.63177e-05
1.6282e-05
1.62316e-05
1.62001e-05
1.61488e-05
1.60961e-05
1.60297e-05
1.59697e-05
1.99999e-05
1.98738e-05
1.96158e-05
1.93532e-05
1.91209e-05
1.89521e-05
1.88294e-05
1.87307e-05
1.86159e-05
1.85063e-05
1.83983e-05
1.83081e-05
1.82184e-05
1.81406e-05
1.80563e-05
1.79813e-05
1.79e-05
1.78266e-05
1.77475e-05
1.76771e-05
1.76008e-05
1.75304e-05
1.74541e-05
1.73832e-05
1.73081e-05
1.72398e-05
1.71669e-05
1.71097e-05
1.70365e-05
1.69886e-05
1.69169e-05
1.68721e-05
1.6807e-05
1.6765e-05
1.67064e-05
1.66703e-05
1.6624e-05
1.65928e-05
1.65511e-05
1.65289e-05
1.64859e-05
1.64593e-05
1.6425e-05
1.63893e-05
1.63396e-05
1.63084e-05
1.6253e-05
1.61974e-05
1.61287e-05
1.60694e-05
1.99999e-05
1.98774e-05
1.96265e-05
1.93726e-05
1.91435e-05
1.89736e-05
1.88488e-05
1.87513e-05
1.8641e-05
1.85348e-05
1.84275e-05
1.83388e-05
1.82518e-05
1.81772e-05
1.80961e-05
1.80249e-05
1.79465e-05
1.78762e-05
1.78003e-05
1.77336e-05
1.76605e-05
1.7593e-05
1.752e-05
1.74514e-05
1.73785e-05
1.73128e-05
1.72419e-05
1.71873e-05
1.71162e-05
1.70696e-05
1.70014e-05
1.69573e-05
1.68941e-05
1.68532e-05
1.67961e-05
1.67617e-05
1.67163e-05
1.66867e-05
1.66479e-05
1.66259e-05
1.65842e-05
1.656e-05
1.65254e-05
1.64896e-05
1.64411e-05
1.64087e-05
1.63488e-05
1.62915e-05
1.62218e-05
1.61631e-05
1.99999e-05
1.98808e-05
1.96369e-05
1.93912e-05
1.91657e-05
1.89957e-05
1.88687e-05
1.87716e-05
1.86653e-05
1.85623e-05
1.84559e-05
1.83686e-05
1.82837e-05
1.82121e-05
1.81342e-05
1.80667e-05
1.79909e-05
1.79238e-05
1.78508e-05
1.77877e-05
1.77174e-05
1.76533e-05
1.75829e-05
1.75169e-05
1.74456e-05
1.73827e-05
1.73136e-05
1.72607e-05
1.71922e-05
1.71465e-05
1.70815e-05
1.70379e-05
1.69762e-05
1.6936e-05
1.68804e-05
1.68473e-05
1.6802e-05
1.67747e-05
1.67375e-05
1.67157e-05
1.6676e-05
1.6654e-05
1.66183e-05
1.65824e-05
1.65358e-05
1.65012e-05
1.64364e-05
1.63782e-05
1.63082e-05
1.62485e-05
1.99999e-05
1.98841e-05
1.9647e-05
1.94089e-05
1.91874e-05
1.90181e-05
1.88887e-05
1.87916e-05
1.86887e-05
1.85886e-05
1.84835e-05
1.83975e-05
1.83141e-05
1.82452e-05
1.81708e-05