/*--------------------------------*- C++ -*----------------------------------*\
  =========                 |
  \\      /  F ield         | OpenFOAM: The Open Source CFD Toolbox
   \\    /   O peration     | Website:  https://openfoam.org
    \\  /    A nd           | Version:  7
     \\/     M anipulation  |
\*---------------------------------------------------------------------------*/
FoamFile
{
    version     2.0;
    format      ascii;
    class       volScalarField;
    location    "0.22";
    object      nut;
}
// * * * * * * * * * * * * * * * * * * * * * * * * * * * * * * * * * * * * * //

dimensions      [0 2 -1 0 0 0 0];

internalField   nonuniform List<scalar> 
70000
(
0
0
0
0
0
0
0
0
0
0
0
0
0
0
0
0
0
0
0
0
0
0
0
0
0
0
0
0
0
0
0
0
0
0
0
0
0
0
0
0
0
4.07541e-14
2.73375e-15
1.20041e-13
0
3.08901e-13
0
1.13192e-12
0
0
0
0
0
0
0
0
0
0
0
0
0
0
0
0
0
0
0
0
0
0
0
0
0
0
0
0
0
0
0
0
0
0
0
0
0
0
0
0
0
3.65801e-14
3.87091e-14
1.2254e-13
5.05151e-14
2.81053e-13
0
6.61008e-13
0
2.41421e-12
0
0
0
0
0
0
0
0
0
0
0
0
0
0
0
0
0
0
0
0
0
0
0
0
0
0
0
0
0
0
0
0
0
0
0
0
0
0
0
0
2.27282e-14
7.27485e-14
7.34336e-14
1.90037e-13
8.78003e-14
4.187e-13
0
9.83874e-13
0
3.49731e-12
2.36439e-12
0
0
0
0
0
0
0
0
0
0
0
0
0
0
0
0
0
0
0
0
0
0
0
0
0
0
0
0
0
0
0
0
0
0
0
0
0
0
0
0
0
0
1.21663e-13
0
4.12115e-13
0
1.15198e-12
0
3.87161e-12
5.86692e-12
0
0
0
0
0
0
0
0
0
0
0
0
0
0
0
0
0
0
0
0
0
0
0
0
0
0
0
0
0
0
0
0
0
0
0
0
0
0
0
0
0
0
0
0
2.68066e-13
0
1.14238e-12
0
3.60685e-12
7.19203e-12
0
9.4477e-10
0
0
0
0
0
0
0
0
0
0
0
0
0
0
0
0
0
0
0
0
0
0
0
0
0
0
0
0
0
0
0
0
0
0
0
0
0
0
0
0
0
0
4.8707e-14
0
1.00053e-12
0
3.01081e-12
7.33759e-12
0
1.31909e-08
0
0
0
0
0
0
0
0
0
0
0
0
0
0
0
0
0
0
0
0
0
0
0
0
0
0
0
0
0
0
0
0
0
0
0
0
0
0
0
0
0
0
0
0
7.42069e-13
0
2.14682e-12
7.35279e-12
0
1.20845e-08
0
0
0
0
0
0
0
0
0
0
0
0
0
0
0
0
0
0
0
0
0
0
0
0
0
0
0
0
0
0
0
0
0
0
0
0
0
0
0
0
0
0
0
0
3.79658e-13
0
1.04262e-12
7.29788e-12
0
1.10653e-08
0
0
0
0
0
0
0
0
0
0
0
0
0
0
0
0
0
0
0
0
0
0
0
0
0
0
0
0
0
0
0
0
0
0
0
0
0
0
0
0
0
0
0
0
0
0
0
7.00551e-12
0
1.02171e-08
0
0
0
0
0
0
0
0
0
0
0
0
0
0
0
0
0
0
0
0
0
0
0
0
0
0
0
0
0
0
0
0
0
0
0
0
0
0
0
0
0
0
0
0
0
0
0
6.45034e-12
0
9.5069e-09
0
0
0
0
0
0
0
0
0
0
0
0
0
0
0
0
0
0
0
0
0
0
0
0
0
0
0
0
0
0
0
0
0
0
0
0
0
0
0
0
0
0
0
0
0
0
0
5.66862e-12
0
8.86397e-09
0
0
0
0
0
0
0
0
0
0
0
0
0
0
0
0
0
0
0
0
0
0
0
0
0
0
0
0
0
0
0
0
0
0
0
0
0
0
0
0
0
0
0
0
0
0
0
4.70129e-12
0
8.22257e-09
0
0
0
0
0
0
0
0
0
0
0
0
0
0
0
0
0
0
0
0
0
0
0
0
0
0
0
0
0
0
0
0
0
0
0
0
0
0
0
0
0
0
0
0
0
0
0
3.60572e-12
0
7.56284e-09
0
0
0
0
0
0
0
0
0
0
0
0
1.03868e-12
0
0
0
0
0
0
0
0
0
0
0
0
0
0
0
0
0
0
0
0
0
0
0
0
0
0
0
0
0
0
0
0
0
0
2.43369e-12
0
6.89095e-09
0
0
0
0
0
0
0
0
0
0
0
0
0
0
0
2.0768e-11
2.3959e-11
6.77947e-12
0
0
0
0
0
0
0
0
0
0
0
0
0
0
0
0
0
0
0
0
0
0
0
0
0
0
0
0
0
1.2143e-12
0
6.21797e-09
0
0
0
0
0
0
0
0
0
0
0
0
0
0
0
0
0
0
9.28454e-12
2.92024e-11
3.50231e-11
2.22672e-11
6.80043e-12
0
0
0
0
0
0
0
0
0
0
0
0
0
0
0
0
0
0
0
0
0
0
0
0
0
0
5.55245e-09
0
0
0
6.32543e-11
0
0
0
0
0
0
0
0
0
0
0
0
0
0
0
0
0
0
0
1.28312e-11
2.23905e-11
2.57735e-11
1.99424e-11
8.78041e-12
3.14563e-13
0
0
0
0
0
0
0
0
0
0
0
0
0
0
0
0
5.65021e-14
0
0
0
4.90065e-09
0
0
0
1.44665e-10
0
0
0
0
0
0
0
0
0
0
0
0
0
0
0
0
0
0
0
0
0
0
0
0
0
0
0
0
0
0
0
0
0
0
0
0
0
0
0
0
0
0
0
0
0
4.26809e-09
0
0
0
1.97459e-10
0
0
0
0
0
0
0
0
0
0
0
0
0
0
0
0
0
0
0
0
0
0
0
0
0
0
0
0
0
0
0
0
0
0
0
0
0
0
0
0
0
0
0
0
0
3.65989e-09
0
0
0
2.06472e-10
0
0
0
0
0
0
0
0
0
0
0
0
0
0
0
0
0
0
0
0
0
0
0
0
0
0
0
0
0
0
0
0
0
0
0
0
0
0
0
0
0
0
0
0
0
3.08032e-09
0
0
0
1.54237e-10
0
0
0
0
0
0
0
0
0
0
0
0
0
0
0
0
0
0
0
0
0
0
0
0
0
0
0
0
0
0
0
0
0
0
0
0
0
0
0
0
0
0
0
0
0
2.53234e-09
0
0
0
2.15502e-11
0
0
0
0
0
0
0
0
0
0
0
0
0
0
0
0
0
0
0
0
0
0
0
0
0
0
0
0
0
0
0
0
0
0
0
0
0
0
0
0
0
0
0
0
0
2.01726e-09
0
0
0
0
0
0
0
0
0
0
0
0
0
0
0
0
0
0
0
0
0
0
0
0
0
0
0
0
0
0
0
0
0
0
0
0
0
0
0
0
0
0
0
0
0
0
0
0
0
1.53465e-09
0
0
0
0
0
0
0
0
0
0
0
0
0
0
0
0
0
0
0
0
0
0
0
0
0
0
0
0
0
0
0
0
0
0
0
0
0
0
0
0
0
0
0
0
0
0
0
0
0
1.08253e-09
0
0
0
0
0
0
0
0
0
0
0
0
0
0
0
0
0
0
0
0
0
0
0
0
0
0
0
0
0
0
0
0
0
0
0
0
0
0
0
0
0
0
0
0
0
0
0
0
0
6.5771e-10
0
0
0
0
0
0
0
0
0
0
0
0
0
0
0
0
0
0
0
0
0
0
0
0
0
0
0
0
0
0
0
0
0
0
0
0
0
0
0
0
0
0
0
0
0
0
0
0
0
2.56394e-10
0
0
0
0
0
0
0
0
0
0
0
0
0
0
0
0
0
0
0
0
0
0
0
0
0
0
0
0
0
0
0
0
0
0
0
0
0
0
0
0
0
0
0
0
0
0
0
0
0
0
0
0
0
0
0
0
0
0
0
0
0
0
0
0
0
0
0
0
0
0
0
0
0
0
0
0
0
0
0
0
0
0
0
0
0
0
0
0
0
0
0
0
0
0
0
0
0
0
0
0
0
0
0
0
0
0
0
0
0
0
0
0
0
0
0
0
0
0
0
0
0
0
0
0
0
0
0
0
0
0
0
0
0
0
0
0
0
0
0
0
0
0
0
0
0
0
0
0
0
0
0
0
0
0
0
0
0
0
0
0
0
0
0
0
0
0
0
0
0
0
0
0
0
0
0
0
0
0
0
0
0
0
0
0
0
0
0
0
0
0
0
0
0
0
0
0
0
0
0
0
0
0
0
0
0
0
0
0
0
0
0
0
0
0
0
0
0
0
0
0
0
0
0
0
0
0
0
0
0
0
0
0
0
0
0
0
0
0
0
0
0
0
0
0
0
0
0
0
0
0
0
0
0
0
0
0
0
0
0
0
0
0
0
0
0
0
0
0
0
0
0
0
0
0
0
0
0
0
0
0
0
0
0
0
0
0
0
0
0
0
0
0
0
0
0
0
0
0
0
0
8.31211e-10
0
0
0
0
0
0
0
0
0
0
0
0
0
0
0
0
0
0
0
0
0
0
0
0
0
0
0
0
0
0
0
0
0
0
0
0
0
0
0
0
0
0
0
0
0
0
0
0
0
1.75603e-09
0
0
0
0
0
0
0
0
0
0
0
0
0
0
0
0
0
0
0
0
0
0
0
0
0
0
0
0
0
0
0
0
0
0
0
0
0
0
0
0
0
0
0
0
0
0
0
0
0
2.55537e-09
0
0
0
0
0
0
0
0
0
0
0
0
0
0
0
0
0
0
0
0
0
0
0
0
0
0
0
0
0
0
0
0
0
0
0
0
0
0
0
0
0
0
0
0
0
0
0
0
0
3.23141e-09
0
0
0
0
0
0
0
0
0
0
0
0
0
0
0
0
0
0
0
0
0
0
0
0
0
0
0
0
0
0
0
0
0
0
0
0
0
0
0
0
0
0
0
0
0
0
0
0
0
3.78948e-09
0
0
0
0
0
0
0
0
0
0
0
0
0
0
0
0
0
0
0
0
0
0
0
0
0
0
0
0
0
0
0
0
0
0
0
0
0
0
0
0
0
0
0
0
0
0
0
0
0
4.23721e-09
0
0
0
0
0
0
0
0
0
0
0
0
0
0
0
0
0
0
0
0
0
0
0
0
0
0
0
0
0
0
0
0
0
0
0
0
0
0
0
0
0
0
0
0
0
0
0
0
0
4.58298e-09
0
0
0
0
0
0
0
0
0
0
0
0
0
0
0
0
0
0
0
0
0
0
0
0
0
0
0
0
0
0
0
0
0
0
0
0
0
0
0
0
0
0
0
0
0
0
0
0
0
4.83576e-09
0
0
0
0
0
0
0
0
0
0
0
0
0
0
0
0
0
0
0
0
0
0
0
0
0
0
0
0
0
0
0
0
0
0
0
0
0
0
0
0
0
0
0
0
0
0
0
0
0
5.0057e-09
0
0
0
0
0
0
0
0
0
0
0
0
0
0
0
0
0
0
0
0
0
0
0
0
0
0
0
0
0
0
0
0
0
0
0
0
0
0
0
0
0
0
0
0
0
0
0
0
0
5.104e-09
0
0
0
0
0
0
0
0
0
0
0
0
0
0
0
0
0
0
0
0
0
0
0
0
0
0
0
0
0
0
0
0
0
0
0
0
0
0
0
0
0
0
0
0
0
0
0
0
0
5.14185e-09
0
0
0
0
0
0
0
0
0
0
0
0
0
0
0
0
0
0
0
0
0
0
0
0
0
0
0
0
0
0
0
0
0
0
0
0
0
0
0
0
0
0
0
0
0
0
0
1.05738e-10
0
5.12954e-09
0
0
0
0
0
0
0
0
0
0
0
0
0
0
0
0
0
0
0
0
0
0
0
0
0
0
0
0
0
0
0
0
0
0
0
0
0
0
0
0
0
0
0
0
0
0
1.28321e-10
3.57794e-10
0
5.07608e-09
0
0
0
0
0
0
0
0
0
0
0
0
0
0
0
0
0
0
0
0
0
0
0
0
0
0
0
0
0
0
0
0
0
0
0
0
0
0
0
0
0
0
0
0
0
7.11953e-11
3.92548e-10
6.27305e-10
0
4.98914e-09
0
0
0
0
0
0
0
0
0
0
0
0
0
0
0
0
0
0
0
0
0
0
0
0
0
0
0
0
0
0
0
0
0
0
0
0
0
0
0
0
0
0
0
0
0
3.14775e-10
6.7931e-10
9.09901e-10
0
4.87512e-09
0
0
0
0
0
0
0
0
0
0
0
0
0
0
0
0
0
0
0
0
0
0
0
0
0
0
0
0
0
0
0
0
0
0
0
0
0
0
0
0
0
0
0
0
2.13972e-10
5.7684e-10
9.81689e-10
1.19934e-09
0
4.73932e-09
0
0
0
0
0
0
0
0
0
0
0
0
0
0
0
0
0
0
0
0
0
0
0
0
0
0
0
0
0
0
0
0
0
0
0
0
0
0
0
0
0
0
0
8.37397e-11
4.49116e-10
8.50573e-10
1.28888e-09
1.48711e-09
0
4.58614e-09
0
0
0
0
0
0
0
0
0
0
0
0
0
0
0
0
0
0
0
0
0
0
0
0
0
0
0
0
0
0
0
0
0
0
0
0
0
0
0
0
0
0
0
2.93387e-10
6.96175e-10
1.13257e-09
1.59681e-09
1.76812e-09
0
4.41933e-09
0
0
0
0
0
0
0
0
0
0
0
0
0
0
0
0
0
0
0
0
0
0
0
0
0
0
0
0
0
0
0
0
0
0
0
0
0
0
0
0
0
0
1.45747e-10
5.13782e-10
9.50456e-10
1.41908e-09
1.90283e-09
2.0371e-09
0
4.24218e-09
0
0
0
0
0
0
0
0
0
0
0
0
0
0
0
0
0
0
0
0
0
0
0
0
0
0
0
0
0
0
0
0
0
0
0
0
0
0
0
0
0
0
3.42705e-10
7.4071e-10
1.20724e-09
1.70268e-09
2.19831e-09
2.28596e-09
0
4.05753e-09
0
0
0
0
0
0
0
0
0
0
0
0
0
0
0
0
0
0
0
0
0
0
0
0
0
0
0
0
0
0
0
0
0
0
0
0
0
0
0
0
0
1.56661e-10
5.45066e-10
9.69528e-10
1.4608e-09
1.97624e-09
2.47589e-09
2.50874e-09
0
3.86787e-09
0
0
0
0
0
0
0
0
0
0
0
0
0
0
0
0
0
0
0
0
0
0
0
0
0
0
0
0
0
0
0
0
0
0
0
0
0
0
0
0
0
3.36546e-10
7.48663e-10
1.19497e-09
1.7053e-09
2.23472e-09
2.73279e-09
2.70375e-09
0
3.67539e-09
0
0
0
0
0
0
0
0
0
0
0
0
0
0
0
0
0
0
0
0
0
0
0
0
0
0
0
0
0
0
0
0
0
0
0
0
0
0
0
0
1.35705e-10
5.17185e-10
9.49011e-10
1.41164e-09
1.93556e-09
2.47246e-09
2.96356e-09
2.87078e-09
0
3.48214e-09
0
0
0
0
0
0
0
0
0
0
0
0
0
0
0
0
0
0
0
0
0
0
0
0
0
0
0
0
0
0
0
0
0
0
0
0
0
0
0
0
2.95314e-10
6.94651e-10
1.14114e-09
1.61501e-09
2.14603e-09
2.68301e-09
3.15869e-09
3.00438e-09
0
3.29e-09
8.56115e-11
0
0
0
0
0
0
0
0
0
0
0
0
0
0
0
0
0
0
0
0
0
0
0
0
0
0
0
0
0
0
0
0
0
0
0
0
0
0
6.7801e-11
4.51614e-10
8.64651e-10
1.32049e-09
1.80047e-09
2.33054e-09
2.86128e-09
3.31276e-09
3.09293e-09
0
3.10069e-09
2.96421e-10
0
0
0
0
0
0
0
0
0
0
0
0
0
0
0
0
0
0
0
0
0
0
0
0
0
0
0
0
0
0
0
0
0
0
0
0
0
0
2.0491e-10
6.00797e-10
1.02283e-09
1.48281e-09
1.96277e-09
2.48509e-09
3.00262e-09
3.42352e-09
3.13047e-09
0
2.91571e-09
4.72794e-10
0
0
0
0
0
0
0
0
0
0
0
0
0
0
0
0
0
0
0
0
0
0
0
0
0
0
0
0
0
0
0
0
0
0
0
0
0
0
3.35335e-10
7.38985e-10
1.16507e-09
1.62377e-09
2.09726e-09
2.60619e-09
3.10272e-09
3.48716e-09
3.11659e-09
0
2.73618e-09
6.18788e-10
0
0
0
0
0
0
0
0
0
0
0
0
0
0
0
0
0
0
0
0
0
0
0
0
0
0
0
0
0
0
0
0
0
0
0
0
0
7.55891e-11
4.55606e-10
8.62393e-10
1.28739e-09
1.73912e-09
2.20021e-09
2.68922e-09
3.15862e-09
3.4999e-09
3.04997e-09
0
2.56296e-09
7.38071e-10
0
0
0
0
0
0
0
0
0
0
0
0
0
0
0
0
0
0
0
0
0
0
0
0
0
0
0
0
0
0
0
0
0
0
0
0
0
1.79239e-10
5.62397e-10
9.67557e-10
1.38629e-09
1.82529e-09
2.2681e-09
2.73041e-09
3.16718e-09
3.45991e-09
2.93264e-09
0
2.39669e-09
8.33989e-10
0
0
0
0
0
0
0
0
0
0
0
0
0
0
0
0
0
0
0
0
0
0
0
0
0
0
0
0
0
0
0
0
0
0
0
0
0
2.70675e-10
6.52558e-10
1.05127e-09
1.45858e-09
1.87933e-09
2.29804e-09
2.72764e-09
3.12639e-09
3.36673e-09
2.76653e-09
0
2.23781e-09
9.09588e-10
0
0
0
0
0
0
0
0
0
0
0
0
0
0
0
0
0
0
0
0
0
0
0
0
0
0
0
0
0
0
0
0
0
0
0
0
0
3.47166e-10
7.23278e-10
1.11073e-09
1.50154e-09
1.89872e-09
2.28793e-09
2.67965e-09
3.03518e-09
3.21981e-09
2.55195e-09
0
2.0866e-09
9.67647e-10
0
0
0
0
0
0
0
0
0
0
0
0
0
0
0
0
0
0
0
0
0
0
0
0
0
0
0
0
0
0
0
0
0
0
0
0
4.72956e-11
4.06332e-10
7.72193e-10
1.14369e-09
1.51313e-09
1.88172e-09
2.2365e-09
2.58563e-09
2.89316e-09
3.01979e-09
2.29185e-09
0
1.94319e-09
1.01069e-09
0
0
0
0
0
0
0
0
0
0
0
0
0
0
0
0
0
0
0
0
0
0
0
0
0
0
0
0
0
0
0
0
0
0
0
0
9.72215e-11
4.46234e-10
7.97471e-10
1.14852e-09
1.49202e-09
1.82747e-09
2.14344e-09
2.44565e-09
2.70115e-09
2.76924e-09
1.99124e-09
0
1.80762e-09
1.04101e-09
0
0
0
0
0
0
0
0
0
0
0
0
0
0
0
0
0
0
0
0
0
0
0
0
0
0
0
0
0
0
0
0
0
0
0
0
1.30585e-10
4.65503e-10
7.97944e-10
1.12437e-09
1.43777e-09
1.73607e-09
2.00934e-09
2.26099e-09
2.46157e-09
2.4723e-09
1.65607e-09
0
1.67983e-09
1.06059e-09
0
0
0
0
0
0
0
0
0
0
0
0
0
0
0
0
0
0
0
0
0
0
0
0
0
0
0
0
0
0
0
0
0
0
0
0
1.46484e-10
4.63437e-10
7.73213e-10
1.07124e-09
1.35089e-09
1.60866e-09
1.83611e-09
2.03438e-09
2.1786e-09
2.13442e-09
1.29397e-09
0
1.55968e-09
1.0712e-09
0
0
0
0
0
0
0
0
0
0
0
0
0
0
0
0
0
0
0
0
0
0
0
0
0
0
0
0
0
0
0
0
0
0
0
0
1.44703e-10
4.40116e-10
7.23763e-10
9.90148e-10
1.23303e-09
1.44765e-09
1.62705e-09
1.77017e-09
1.8582e-09
1.76217e-09
9.15935e-10
0
1.44698e-09
1.07436e-09
0
0
0
0
0
0
0
0
0
0
0
0
0
0
0
0
0
0
0
0
0
0
0
0
0
0
0
0
0
0
0
0
0
0
0
0
1.25833e-10
3.96526e-10
6.51079e-10
8.83206e-10
1.08708e-09
1.25687e-09
1.3871e-09
1.47506e-09
1.50771e-09
1.36455e-09
5.37796e-10
0
1.34146e-09
1.07135e-09
0
0
0
0
0
0
0
0
0
0
0
0
0
0
0
0
0
0
0
0
0
0
0
0
0
0
0
0
0
0
0
0
0
0
0
0
9.13782e-11
3.34662e-10
5.57768e-10
7.53797e-10
9.17357e-10
1.04175e-09
1.12299e-09
1.1572e-09
1.13623e-09
9.5606e-10
1.7916e-10
0
1.24283e-09
1.06331e-09
0
0
0
0
0
0
0
0
0
0
0
0
0
0
0
0
0
0
0
0
0
0
0
0
0
0
0
0
0
0
0
0
0
0
0
0
4.38783e-11
2.57662e-10
4.47686e-10
6.06641e-10
7.29627e-10
8.09375e-10
8.4343e-10
8.26956e-10
7.58264e-10
5.53844e-10
0
0
1.15078e-09
1.05121e-09
0
0
0
0
0
0
0
0
0
0
0
0
0
0
0
0
0
0
0
0
0
0
0
0
0
0
0
0
0
0
0
0
0
0
0
0
0
1.69886e-10
3.26029e-10
4.47954e-10
5.31338e-10
5.68707e-10
5.59342e-10
4.98137e-10
3.90542e-10
1.78908e-10
0
0
1.06498e-09
1.03589e-09
0
0
0
0
0
0
0
0
0
0
0
0
0
0
0
0
0
0
0
0
0
0
0
0
0
0
0
0
0
0
0
0
0
0
0
0
0
7.70677e-11
1.99469e-10
2.85499e-10
3.31613e-10
3.30636e-10
2.83917e-10
1.87097e-10
5.33435e-11
0
0
0
9.85106e-10
1.01805e-09
0
0
0
0
0
0
0
0
0
0
0
0
0
0
0
0
0
0
0
0
0
0
0
0
0
0
0
0
0
0
0
0
0
0
0
0
0
0
7.62079e-11
1.28672e-10
1.41297e-10
1.07828e-10
3.22414e-11
0
0
0
0
0
9.10819e-10
9.98294e-10
0
0
0
0
0
0
0
0
0
0
0
0
0
0
0
0
0
0
0
0
0
0
0
0
0
0
0
0
0
0
0
0
0
0
0
0
0
0
0
0
0
0
0
0
0
0
0
0
8.418e-10
9.77131e-10
0
0
0
0
0
0
0
0
0
0
0
0
0
0
0
0
0
0
0
0
0
0
0
0
0
0
0
0
0
0
0
0
0
0
0
0
0
0
0
0
0
0
0
0
0
0
3.53334e-10
0
7.77732e-10
9.55007e-10
0
0
0
0
0
0
0
0
0
0
0
0
0
0
0
0
0
0
0
0
0
0
0
0
0
0
0
0
0
0
0
0
0
0
0
0
0
0
0
0
0
0
0
0
0
0
1.01704e-09
0
7.18315e-10
9.3232e-10
0
0
0
0
0
0
0
0
0
0
0
0
0
0
0
0
0
0
0
0
0
0
0
0
0
0
0
0
0
0
0
0
0
0
0
0
0
0
0
0
0
0
0
0
0
0
1.31473e-09
0
6.63265e-10
9.09435e-10
0
0
0
0
0
0
0
0
0
0
0
0
0
0
0
0
0
0
0
0
0
0
0
0
0
0
0
0
0
0
0
0
0
0
0
0
0
0
0
0
0
0
0
0
0
0
0
0
6.1232e-10
8.86705e-10
0
0
0
0
0
0
0
0
0
0
0
0
0
0
0
0
0
0
0
0
0
0
0
0
0
0
0
0
0
0
0
0
0
0
3.00054e-11
8.61676e-11
1.20651e-10
1.30757e-10
1.1675e-10
7.56667e-11
9.05816e-12
0
0
0
0
0
0
0
5.6525e-10
8.64487e-10
0
0
0
0
0
0
0
0
0
0
0
0
0
0
0
0
0
0
0
0
0
0
0
0
0
0
0
0
0
0
0
3.95236e-12
1.21076e-10
2.23901e-10
3.10424e-10
3.77766e-10
4.246e-10
4.48909e-10
4.51332e-10
4.28285e-10
3.76867e-10
2.80252e-10
1.14071e-10
0
0
0
0
0
5.21851e-10
8.43169e-10
0
0
0
0
0
0
0
0
0
0
0
0
0
0
0
0
0
0
0
0
0
0
0
0
0
0
0
0
0
2.80342e-11
1.8255e-10
3.28815e-10
4.66541e-10
5.93525e-10
7.06704e-10
8.02759e-10
8.80624e-10
9.39379e-10
9.8006e-10
9.99307e-10
9.90597e-10
9.27965e-10
7.69279e-10
4.18902e-10
0
0
0
0
4.81963e-10
8.23156e-10
0
0
0
0
0
0
0
0
0
0
0
0
0
0
0
0
0
0
0
0
0
0
0
0
0
0
0
3.95255e-11
2.22681e-10
4.01503e-10
5.78094e-10
7.53688e-10
9.27478e-10
1.09599e-09
1.25479e-09
1.39995e-09
1.53085e-09
1.64805e-09
1.75464e-09
1.84807e-09
1.92296e-09
1.95227e-09
1.89192e-09
1.66652e-09
1.20214e-09
4.72553e-10
0
0
4.45472e-10
8.04902e-10
0
0
0
0
0
0
0
0
0
0
0
0
0
0
0
0
0
0
0
0
0
0
0
0
0
6.75516e-11
2.72521e-10
4.7472e-10
6.78042e-10
8.82504e-10
1.09336e-09
1.31257e-09
1.53869e-09
1.76669e-09
1.9904e-09
2.2051e-09
2.41071e-09
2.60992e-09
2.80866e-09
3.00817e-09
3.20633e-09
3.38231e-09
3.5073e-09
3.5267e-09
3.43689e-09
3.39225e-09
3.89299e-09
0
4.12326e-10
7.89179e-10
0
0
0
0
0
0
0
0
0
0
0
0
0
0
0
0
0
0
0
0
0
0
0
1.16077e-10
3.60393e-10
5.86307e-10
8.08404e-10
1.03659e-09
1.27333e-09
1.51494e-09
1.77148e-09
2.04603e-09
2.33652e-09
2.63628e-09
2.93744e-09
3.23454e-09
3.52817e-09
3.82328e-09
4.12886e-09
4.45033e-09
4.78944e-09
5.13036e-09
5.46377e-09
5.74771e-09
5.99388e-09
6.44115e-09
7.85567e-09
0
3.82548e-10
7.76647e-10
0
0
0
0
0
0
0
0
0
0
0
0
0
0
0
0
0
0
0
0
0
1.61565e-10
4.75876e-10
7.4992e-10
1.00001e-09
1.24382e-09
1.49552e-09
1.76417e-09
2.05001e-09
2.34025e-09
2.65135e-09
2.98777e-09
3.34657e-09
3.7194e-09
4.09695e-09
4.47363e-09
4.85106e-09
5.23638e-09
5.64099e-09
6.07292e-09
6.53504e-09
7.01289e-09
7.51438e-09
8.01749e-09
8.50242e-09
9.27269e-09
1.12655e-08
0
3.56286e-10
7.68309e-10
0
0
0
0
0
0
0
0
0
0
0
0
0
0
0
0
0
0
0
2.08283e-10
6.003e-10
9.4965e-10
1.25934e-09
1.53818e-09
1.80593e-09
2.08113e-09
2.37687e-09
2.70066e-09
3.04921e-09
3.394e-09
3.75805e-09
4.14933e-09
4.56387e-09
4.9921e-09
5.42436e-09
5.85614e-09
6.29105e-09
6.73833e-09
7.21059e-09
7.71634e-09
8.25638e-09
8.8153e-09
9.41117e-09
1.00728e-08
1.07276e-08
1.17134e-08
1.40791e-08
0
3.3381e-10
7.65448e-10
0
0
0
0
0
0
0
0
0
0
0
0
0
0
0
0
0
2.94835e-10
7.50873e-10
1.17162e-09
1.55366e-09
1.8982e-09
2.21242e-09
2.50746e-09
2.8059e-09
3.12723e-09
3.48248e-09
3.87618e-09
4.29848e-09
4.69679e-09
5.09976e-09
5.5221e-09
5.95889e-09
6.4009e-09
6.84078e-09
7.27815e-09
7.7211e-09
8.18194e-09
8.67391e-09
9.20389e-09
9.7685e-09
1.03504e-08
1.09717e-08
1.17241e-08
1.25271e-08
1.36805e-08
1.62978e-08
0
3.15626e-10
7.69904e-10
0
0
0
0
0
0
0
0
0
0
0
0
0
0
0
4.16112e-10
9.39975e-10
1.42935e-09
1.88331e-09
2.30009e-09
2.67973e-09
3.02852e-09
3.35824e-09
3.68233e-09
4.0242e-09
4.40379e-09
4.82899e-09
5.29989e-09
5.79477e-09
6.22756e-09
6.63943e-09
7.05227e-09
7.46072e-09
7.85778e-09
8.24177e-09
8.62039e-09
9.00962e-09
9.42693e-09
9.88641e-09
1.03922e-08
1.09356e-08
1.14955e-08
1.20936e-08
1.28602e-08
1.3815e-08
1.5128e-08
1.7928e-08
0
3.02543e-10
7.84203e-10
2.43117e-11
0
0
0
0
0
0
0
0
0
0
0
0
5.32601e-10
1.12415e-09
1.69423e-09
2.2297e-09
2.7275e-09
3.18682e-09
3.60717e-09
3.99203e-09
4.35302e-09
4.70793e-09
5.07381e-09
5.47132e-09
5.91909e-09
6.42019e-09
6.96737e-09
7.51421e-09
7.93526e-09
8.31021e-09
8.65949e-09
8.98e-09
9.26948e-09
9.5348e-09
9.7947e-09
1.00753e-08
1.04004e-08
1.07855e-08
1.12316e-08
1.17247e-08
1.2237e-08
1.27843e-08
1.34866e-08
1.45679e-08
1.60439e-08
1.89814e-08
0
2.95869e-10
8.11947e-10
9.6765e-11
0
0
0
0
0
0
0
0
0
1.96473e-10
7.15353e-10
1.30141e-09
1.91927e-09
2.5356e-09
3.12731e-09
3.68101e-09
4.19408e-09
4.66584e-09
5.09736e-09
5.49547e-09
5.87633e-09
6.26374e-09
6.68061e-09
7.14387e-09
7.66231e-09
8.23479e-09
8.8407e-09
9.37706e-09
9.72143e-09
1.00051e-08
1.02405e-08
1.04291e-08
1.05753e-08
1.0694e-08
1.08133e-08
1.09666e-08
1.11823e-08
1.14767e-08
1.18487e-08
1.22808e-08
1.2739e-08
1.32251e-08
1.38258e-08
1.48714e-08
1.64945e-08
1.95146e-08
0
2.97681e-10
8.58424e-10
1.96503e-10
0
0
0
0
0
0
1.04522e-10
5.51275e-10
1.03516e-09
1.56966e-09
2.16208e-09
2.79769e-09
3.44769e-09
4.08905e-09
4.70842e-09
5.28763e-09
5.82374e-09
6.3158e-09
6.76581e-09
7.18344e-09
7.58915e-09
8.01123e-09
8.47677e-09
9.00186e-09
9.5906e-09
1.02307e-08
1.08707e-08
1.13059e-08
1.14861e-08
1.16111e-08
1.16934e-08
1.17407e-08
1.17621e-08
1.17745e-08
1.18035e-08
1.18788e-08
1.20254e-08
1.22572e-08
1.2573e-08
1.29562e-08
1.33734e-08
1.38091e-08
1.43088e-08
1.51232e-08
1.6725e-08
1.97018e-08
0
3.11309e-10
9.31725e-10
3.36964e-10
0
0
0
0
2.64113e-10
7.52865e-10
1.29509e-09
1.86437e-09
2.45735e-09
3.0827e-09
3.74287e-09
4.42294e-09
5.10098e-09
5.76528e-09
6.41763e-09
7.02945e-09
7.59645e-09
8.11693e-09
8.59293e-09
9.03594e-09
9.46978e-09
9.92645e-09
1.04364e-08
1.10151e-08
1.16598e-08
1.23405e-08
1.29512e-08
1.31547e-08
1.31091e-08
1.30375e-08
1.29685e-08
1.29251e-08
1.29191e-08
1.29541e-08
1.30312e-08
1.31548e-08
1.33338e-08
1.35774e-08
1.38876e-08
1.42555e-08
1.46585e-08
1.50711e-08
1.54877e-08
1.59895e-08
1.70842e-08
1.97416e-08
0
3.42191e-10
1.04408e-09
5.38059e-10
1.34447e-10
9.56921e-11
3.42444e-10
7.75967e-10
1.33777e-09
1.98471e-09
2.65469e-09
3.33099e-09
4.01544e-09
4.71505e-09
5.42927e-09
6.14287e-09
6.84017e-09
7.52218e-09
8.21277e-09
8.86838e-09
9.47769e-09
1.00371e-08
1.0547e-08
1.10198e-08
1.14823e-08
1.19701e-08
1.25171e-08
1.3138e-08
1.38186e-08
1.44975e-08
1.49558e-08
1.48027e-08
1.454e-08
1.43084e-08
1.41637e-08
1.41323e-08
1.4208e-08
1.4362e-08
1.45616e-08
1.47873e-08
1.50341e-08
1.53246e-08
1.57389e-08
1.62223e-08
1.67044e-08
1.71728e-08
1.76122e-08
1.80618e-08
1.8889e-08
2.10021e-08
0
3.99554e-10
1.21489e-09
8.29691e-10
6.09081e-10
7.84576e-10
1.24445e-09
1.87596e-09
2.61567e-09
3.41403e-09
4.18567e-09
4.93467e-09
5.6754e-09
6.41836e-09
7.16292e-09
7.8937e-09
8.59759e-09
9.28841e-09
1.00201e-08
1.07387e-08
1.14083e-08
1.2023e-08
1.25796e-08
1.30893e-08
1.35809e-08
1.4094e-08
1.46667e-08
1.53127e-08
1.59995e-08
1.66109e-08
1.67229e-08
1.62467e-08
1.57957e-08
1.54789e-08
1.53583e-08
1.54415e-08
1.56788e-08
1.59854e-08
1.62761e-08
1.65498e-08
1.70247e-08
1.76436e-08
1.81776e-08
1.86602e-08
1.91187e-08
1.95692e-08
1.99665e-08
2.02072e-08
2.07247e-08
2.26386e-08
0
4.99473e-10
1.47584e-09
1.25771e-09
1.26578e-09
1.68752e-09
2.3782e-09
3.21284e-09
4.12371e-09
5.04774e-09
5.86818e-09
6.63016e-09
7.36854e-09
8.10533e-09
8.84348e-09
9.56714e-09
1.02601e-08
1.09476e-08
1.17212e-08
1.25377e-08
1.33001e-08
1.39964e-08
1.46178e-08
1.5173e-08
1.56932e-08
1.62235e-08
1.68088e-08
1.74601e-08
1.81153e-08
1.85601e-08
1.81875e-08
1.74851e-08
1.69278e-08
1.66136e-08
1.65856e-08
1.68043e-08
1.71589e-08
1.75079e-08
1.78352e-08
1.84863e-08
1.95486e-08
2.03813e-08
2.10306e-08
2.15723e-08
2.20657e-08
2.25484e-08
2.29429e-08
2.30111e-08
2.30547e-08
2.4533e-08
0
6.7132e-10
1.87916e-09
1.89025e-09
2.17589e-09
2.86766e-09
3.79163e-09
4.81396e-09
5.86528e-09
6.8537e-09
7.63827e-09
8.32485e-09
8.9759e-09
9.63608e-09
1.03174e-08
1.10019e-08
1.16631e-08
1.23324e-08
1.31442e-08
1.41119e-08
1.50192e-08
1.58399e-08
1.6556e-08
1.71724e-08
1.77231e-08
1.82615e-08
1.88433e-08
1.94742e-08
2.00458e-08
2.01643e-08
1.93399e-08
1.85317e-08
1.79659e-08
1.77342e-08
1.78327e-08
1.81614e-08
1.85537e-08
1.8905e-08
1.94802e-08
2.08999e-08
2.2279e-08
2.32714e-08
2.40131e-08
2.46119e-08
2.51468e-08
2.5671e-08
2.61092e-08
2.62037e-08
2.59408e-08
2.70495e-08
0
9.71139e-10
2.51336e-09
2.82521e-09
3.42282e-09
4.38499e-09
5.51956e-09
6.6847e-09
7.80555e-09
8.72862e-09
9.36408e-09
9.86494e-09
1.03271e-08
1.08281e-08
1.13941e-08
1.2003e-08
1.26101e-08
1.32408e-08
1.40595e-08
1.52459e-08
1.63829e-08
1.73928e-08
1.82459e-08
1.89439e-08
1.95273e-08
2.00636e-08
2.0625e-08
2.12064e-08
2.16259e-08
2.12521e-08
2.02237e-08
1.94162e-08
1.89572e-08
1.8881e-08
1.91199e-08
1.95164e-08
1.98948e-08
2.03663e-08
2.15838e-08
2.35898e-08
2.50715e-08
2.61285e-08
2.69147e-08
2.75529e-08
2.81272e-08
2.86938e-08
2.92051e-08
2.9463e-08
2.92698e-08
3.014e-08
0
1.50491e-09
3.51529e-09
4.18582e-09
5.08557e-09
6.2668e-09
7.53653e-09
8.74534e-09
9.78452e-09
1.04593e-08
1.08519e-08
1.10785e-08
1.12809e-08
1.15667e-08
1.19739e-08
1.24763e-08
1.30114e-08
1.35777e-08
1.43373e-08
1.56819e-08
1.71751e-08
1.84527e-08
1.94882e-08
2.02869e-08
2.09031e-08
2.14251e-08
2.19477e-08
2.24456e-08
2.26242e-08
2.17929e-08
2.08231e-08
2.01943e-08
1.99649e-08
2.00987e-08
2.04642e-08
2.08712e-08
2.13019e-08
2.21801e-08
2.43615e-08
2.63825e-08
2.77956e-08
2.88038e-08
2.95729e-08
3.02227e-08
3.0828e-08
3.1432e-08
3.20203e-08
3.24849e-08
3.27974e-08
3.36822e-08
0
2.45687e-09
5.03695e-09
6.01526e-09
7.10704e-09
8.36041e-09
9.59569e-09
1.06386e-08
1.13597e-08
1.17289e-08
1.18283e-08
1.18099e-08
1.18259e-08
1.19713e-08
1.22673e-08
1.26804e-08
1.31486e-08
1.36411e-08
1.42683e-08
1.54044e-08
1.72076e-08
1.87627e-08
1.99781e-08
2.0865e-08
2.14969e-08
2.19871e-08
2.24525e-08
2.28366e-08
2.26974e-08
2.18089e-08
2.11701e-08
2.09065e-08
2.10005e-08
2.13438e-08
2.17678e-08
2.22094e-08
2.29765e-08
2.49928e-08
2.73987e-08
2.90956e-08
3.02761e-08
3.11316e-08
3.18188e-08
3.24433e-08
3.30614e-08
3.36944e-08
3.43373e-08
3.49656e-08
3.58485e-08
3.74e-08
0
4.06164e-09
6.97616e-09
7.8841e-09
8.84598e-09
9.9236e-09
1.08823e-08
1.15427e-08
1.18687e-08
1.19527e-08
1.19474e-08
1.19877e-08
1.21424e-08
1.24166e-08
1.27842e-08
1.3213e-08
1.36691e-08
1.41328e-08
1.46313e-08
1.52706e-08
1.64262e-08
1.79549e-08
1.91799e-08
2.00672e-08
2.06784e-08
2.11263e-08
2.15315e-08
2.18364e-08
2.16543e-08
2.12809e-08
2.12029e-08
2.13981e-08
2.17778e-08
2.22137e-08
2.27063e-08
2.35552e-08
2.56525e-08
2.81551e-08
2.99509e-08
3.11844e-08
3.20313e-08
3.26635e-08
3.32183e-08
3.37815e-08
3.43881e-08
3.50364e-08
3.57069e-08
3.64256e-08
3.76019e-08
4.01584e-08
0
0
0
0
1.19121e-11
6.34041e-12
0
0
0
0
0
0
0
0
3.04707e-10
1.65738e-09
4.55818e-09
6.6722e-09
6.62185e-09
4.20038e-09
1.32933e-09
2.16322e-10
1.61942e-10
4.62583e-10
7.48331e-10
8.685e-10
1.39821e-09
2.79381e-09
3.31694e-09
2.42963e-09
0
0
0
0
0
0
0
0
0
0
0
0
0
0
0
0
0
0
0
0
0
0
0
0
5.852e-09
2.25059e-09
3.5142e-09
1.68962e-08
3.02787e-08
1.25709e-08
0
0
0
0
0
0
1.06819e-08
3.25776e-08
3.3816e-08
0
0
1.54455e-08
6.79439e-08
8.79446e-08
7.38634e-08
3.1789e-08
0
0
0
0
0
1.2245e-09
3.01313e-09
3.98193e-09
4.91356e-09
4.98689e-09
5.00018e-09
4.57777e-09
5.90915e-09
4.59748e-09
3.91324e-09
1.69809e-09
7.2316e-09
7.83263e-09
1.29283e-08
1.23359e-08
1.84082e-08
2.07622e-08
2.1824e-08
0
0
0
0
0
2.46915e-12
3.38289e-12
0
0
0
0
0
0
0
0
2.71792e-10
1.4319e-09
4.02294e-09
5.87773e-09
5.81814e-09
3.52672e-09
1.01876e-09
2.24623e-10
3.16083e-10
6.29363e-10
9.11574e-10
9.91223e-10
1.2891e-09
2.41172e-09
3.32962e-09
2.88823e-09
0
0
0
0
0
0
0
0
0
0
0
0
0
0
0
0
0
0
0
0
0
0
0
0
7.36864e-09
3.47875e-09
3.80726e-09
1.48835e-08
3.00942e-08
1.4712e-08
0
0
0
0
0
0
1.06459e-08
3.08852e-08
3.13128e-08
0
0
2.36373e-08
8.01607e-08
1.01297e-07
8.45686e-08
3.68694e-08
0
0
0
0
0
1.50063e-09
3.15023e-09
4.00467e-09
4.84687e-09
4.94998e-09
5.01922e-09
4.36666e-09
5.6858e-09
4.64681e-09
4.30695e-09
1.31734e-09
6.73171e-09
7.57501e-09
1.36754e-08
1.38697e-08
2.08529e-08
2.13562e-08
3.95351e-08
0
0
4.02515e-12
0
0
0
3.55123e-13
0
0
0
0
0
0
0
0
2.47818e-10
1.19748e-09
3.44092e-09
5.10909e-09
5.0779e-09
2.91591e-09
7.3636e-10
2.58804e-10
5.16656e-10
8.3884e-10
1.10283e-09
1.16099e-09
1.24149e-09
2.03581e-09
3.25838e-09
3.15808e-09
1.60866e-09
0
0
0
0
0
0
0
0
0
0
0
0
0
0
7.92106e-09
0
0
0
0
0
0
0
0
8.88823e-09
4.86011e-09
4.21028e-09
1.32161e-08
2.96939e-08
1.71046e-08
0
0
0
0
0
0
1.06443e-08
2.92587e-08
2.89323e-08
0
0
3.51354e-08
9.49735e-08
1.17387e-07
9.73392e-08
4.26751e-08
0
0
0
0
0
1.79983e-09
3.31204e-09
4.06921e-09
4.81392e-09
4.91843e-09
5.07934e-09
4.2242e-09
5.45647e-09
4.63721e-09
4.77349e-09
1.06568e-09
6.34235e-09
7.44021e-09
1.45655e-08
1.57388e-08
2.39203e-08
2.15149e-08
5.74849e-08
2.52761e-08
0
1.6143e-11
0
0
0
0
0
0
0
0
0
0
0
0
2.33605e-10
1.00488e-09
2.91576e-09
4.3969e-09
4.36299e-09
2.29793e-09
4.72415e-10
3.32668e-10
7.74297e-10
1.0944e-09
1.31473e-09
1.36234e-09
1.24767e-09
1.75152e-09
3.0333e-09
3.31776e-09
2.67794e-09
0
0
0
0
0
0
0
0
0
0
0
0
0
0
1.57894e-08
0
0
0
0
0
0
0
0
1.03453e-08
6.37033e-09
4.70101e-09
1.1769e-08
2.88111e-08
1.95689e-08
7.4986e-10
0
0
0
0
0
1.05876e-08
2.75737e-08
2.64284e-08
0
0
5.1067e-08
1.12619e-07
1.36248e-07
1.12107e-07
4.91564e-08
1.78249e-10
0
0
0
2.00099e-10
2.11575e-09
3.48358e-09
4.15658e-09
4.80193e-09
4.87285e-09
5.14574e-09
4.14232e-09
5.21846e-09
4.54032e-09
5.25451e-09
9.78564e-10
6.07516e-09
7.37628e-09
1.54752e-08
1.76401e-08
2.76529e-08
2.13159e-08
7.22226e-08
9.48336e-08
9.54456e-12
2.72279e-11
0
0
0
0
0
0
0
0
0
0
0
0
2.32905e-10
8.85661e-10
2.51485e-09
3.78462e-09
3.68472e-09
1.67802e-09
2.48231e-10
4.69235e-10
1.09083e-09
1.39011e-09
1.53934e-09
1.57731e-09
1.309e-09
1.50163e-09
2.65329e-09
3.40067e-09
3.21738e-09
7.08664e-10
0
0
0
0
0
0
0
0
0
0
0
0
0
2.2228e-08
3.4086e-08
0
0
0
0
0
0
0
1.16853e-08
7.94955e-09
5.2603e-09
1.05688e-08
2.74558e-08
2.19429e-08
2.21391e-09
0
0
0
0
0
1.04137e-08
2.5853e-08
2.38015e-08
0
0
7.19426e-08
1.33072e-07
1.57707e-07
1.28588e-07
5.59668e-08
1.59769e-09
0
0
0
7.96295e-10
2.44324e-09
3.65754e-09
4.25313e-09
4.8078e-09
4.80817e-09
5.19322e-09
4.10667e-09
4.99487e-09
4.34409e-09
5.69207e-09
1.04311e-09
5.96635e-09
7.18575e-09
1.62814e-08
1.91212e-08
3.16763e-08
2.24298e-08
7.89761e-08
1.38765e-07
1.39911e-11
3.65136e-11
0
0
0
0
0
0
0
0
0
0
0
2.53978e-11
2.48969e-10
8.41109e-10
2.24361e-09
3.2906e-09
3.04191e-09
1.04708e-09
8.52149e-11
6.96463e-10
1.45946e-09
1.73519e-09
1.79737e-09
1.79372e-09
1.43083e-09
1.2693e-09
2.15416e-09
3.37254e-09
3.50579e-09
2.46276e-09
0
0
0
0
0
0
0
0
0
0
0
0
0
2.67916e-08
6.93636e-08
0
0
0
0
0
0
0
1.28851e-08
9.56266e-09
5.89575e-09
9.58387e-09
2.56415e-08
2.40975e-08
3.89101e-09
0
0
0
0
0
1.01062e-08
2.41068e-08
2.1088e-08
0
0
9.8269e-08
1.56221e-07
1.81859e-07
1.46831e-07
6.29113e-08
2.92881e-09
0
0
0
1.39768e-09
2.78289e-09
3.83509e-09
4.35336e-09
4.83229e-09
4.73216e-09
5.20867e-09
4.10307e-09
4.81009e-09
4.05729e-09
6.03963e-09
1.23959e-09
6.01635e-09
6.61608e-09
1.68434e-08
1.98394e-08
3.56481e-08
2.59469e-08
7.87326e-08
1.49741e-07
1.38457e-11
4.19023e-11
0
0
0
0
0
0
0
0
0
0
0
5.74669e-11
2.85269e-10
8.66289e-10
2.06408e-09
2.9072e-09
2.40337e-09
4.07465e-10
2.45331e-11
1.04423e-09
1.88113e-09
2.15163e-09
2.09437e-09
2.00162e-09
1.60189e-09
1.07843e-09
1.69147e-09
3.13712e-09
3.65697e-09
3.26327e-09
0
0
0
0
0
0
0
0
0
0
0
0
0
2.91463e-08
9.99546e-08
0
0
0
0
0
0
0
1.39295e-08
1.11588e-08
6.63038e-09
8.82653e-09
2.34738e-08
2.59013e-08
5.82087e-09
0
0
0
0
0
9.66028e-09
2.23022e-08
1.83995e-08
0
0
1.30199e-07
1.81673e-07
2.08771e-07
1.66817e-07
6.96382e-08
4.10699e-09
0
0
0
2.00143e-09
3.13449e-09
4.01927e-09
4.45456e-09
4.87459e-09
4.65683e-09
5.18618e-09
4.11397e-09
4.68223e-09
3.69961e-09
6.25656e-09
1.51984e-09
6.2118e-09
5.44981e-09
1.69558e-08
1.95644e-08
3.84596e-08
3.11121e-08
6.85951e-08
1.29985e-07
1.11446e-11
4.33684e-11
0
0
0
0
0
0
0
0
0
0
5.33713e-13
9.47154e-11
3.38971e-10
9.36153e-10
1.95315e-09
2.60677e-09
1.69514e-09
0
1.35582e-10
1.52052e-09
2.34415e-09
2.62543e-09
2.424e-09
2.19945e-09
1.80305e-09
9.81275e-10
1.21134e-09
2.69472e-09
3.7083e-09
3.53523e-09
1.37526e-09
0
0
0
0
0
0
0
0
0
0
0
0
2.91213e-08
1.22167e-07
0
0
0
0
0
0
0
1.48363e-08
1.26985e-08
7.47783e-09
8.27985e-09
2.1035e-08
2.72092e-08
8.06417e-09
0
0
0
0
0
9.07638e-09
2.03884e-08
1.58918e-08
0
2.4561e-08
1.67153e-07
2.09043e-07
2.38514e-07
1.88322e-07
7.57002e-08
5.08071e-09
0
0
9.22224e-10
2.60509e-09
3.49683e-09
4.21292e-09
4.55549e-09
4.93028e-09
4.59357e-09
5.12648e-09
4.11935e-09
4.61527e-09
3.29731e-09
6.31281e-09
1.81606e-09
6.46921e-09
3.65869e-09
1.64245e-08
1.83811e-08
3.96577e-08
3.56691e-08
5.73413e-08
9.38484e-08
7.5644e-12
4.24832e-11
0
0
0
0
0
0
0
0
0
0
2.38785e-11
1.4021e-10
4.10256e-10
1.03368e-09
1.90925e-09
2.32776e-09
8.38611e-10
0
5.14836e-10
2.09698e-09
2.85902e-09
3.19364e-09
2.83155e-09
2.38182e-09
2.00316e-09
1.01752e-09
6.77264e-10
2.06881e-09
3.60262e-09
3.56011e-09
2.31022e-09
0
0
0
0
0
0
0
0
0
0
0
0
2.67555e-08
1.33007e-07
2.01317e-07
0
0
0
0
0
0
1.55875e-08
1.41417e-08
8.45101e-09
7.93755e-09
1.84709e-08
2.78849e-08
1.06695e-08
0
0
0
0
0
8.34607e-09
1.83552e-08
1.3774e-08
0
1.50334e-07
2.07563e-07
2.37937e-07
2.71157e-07
2.11274e-07
8.04559e-08
5.83195e-09
0
0
1.93542e-09
3.20641e-09
3.86789e-09
4.41817e-09
4.65707e-09
4.99281e-09
4.55109e-09
5.03679e-09
4.10123e-09
4.59704e-09
2.8801e-09
6.1885e-09
2.05534e-09
6.68927e-09
1.5369e-09
1.50987e-08
1.6521e-08
3.82695e-08
3.68949e-08
4.54416e-08
6.17965e-08
4.04599e-12
4.04676e-11
0
0
0
0
0
0
0
0
0
0
5.1648e-11
1.96184e-10
5.06933e-10
1.1561e-09
1.92509e-09
1.99861e-09
0
0
1.21337e-09
2.75773e-09
3.40856e-09
3.81832e-09
3.36056e-09
2.59169e-09
2.17217e-09
1.18486e-09
1.49581e-10
1.40884e-09
3.21317e-09
3.45441e-09
2.46317e-09
0
0
0
0
0
0
0
0
0
0
0
0
2.23104e-08
1.31467e-07
4.15583e-07
0
0
0
0
0
6.84104e-10
1.61788e-08
1.54606e-08
9.54252e-09
7.7727e-09
1.60088e-08
2.77526e-08
1.36024e-08
0
0
0
0
0
7.46512e-09
1.62314e-08
1.22838e-08
0
2.992e-07
2.49039e-07
2.67775e-07
3.06748e-07
2.34908e-07
8.31775e-08
6.39741e-09
0
1.14193e-09
2.9326e-09
3.80351e-09
4.2453e-09
4.63579e-09