/*--------------------------------*- C++ -*----------------------------------*\
  =========                 |
  \\      /  F ield         | OpenFOAM: The Open Source CFD Toolbox
   \\    /   O peration     | Website:  https://openfoam.org
    \\  /    A nd           | Version:  7
     \\/     M anipulation  |
\*---------------------------------------------------------------------------*/
FoamFile
{
    version     2.0;
    format      ascii;
    class       volScalarField;
    location    "0.22";
    object      p;
}
// * * * * * * * * * * * * * * * * * * * * * * * * * * * * * * * * * * * * * //

dimensions      [0 2 -2 0 0 0 0];

internalField   nonuniform List<scalar> 
70000
(
0.121804
0.0449174
0.0317777
0.0342386
0.0345106
0.0334771
0.0325328
0.0318192
0.0312274
0.0307075
0.0302455
0.0298335
0.0294639
0.0291301
0.0288268
0.0285494
0.0282944
0.0280588
0.0278399
0.0276355
0.0274439
0.0272632
0.0270921
0.0269292
0.0267735
0.0266238
0.0264792
0.026339
0.0262023
0.0260684
0.0259367
0.0258067
0.0256779
0.0255498
0.0254224
0.0252955
0.0251692
0.025044
0.0249202
0.0248003
0.0246832
0.024577
0.0244745
0.0244005
0.0243243
0.0243206
0.024282
0.0244318
0.024418
0.0248908
0.117504
0.0452794
0.0319803
0.0343332
0.034565
0.0335128
0.0325607
0.0318423
0.0312468
0.030724
0.0302599
0.0298461
0.0294752
0.0291403
0.0288361
0.0285579
0.0283022
0.028066
0.0278466
0.0276418
0.0274497
0.0272686
0.0270972
0.0269341
0.026778
0.0266281
0.0264833
0.0263429
0.026206
0.0260719
0.02594
0.0258098
0.0256808
0.0255526
0.025425
0.0252978
0.0251713
0.025046
0.024922
0.0248018
0.0246844
0.024578
0.0244752
0.0244009
0.0243243
0.0243201
0.0242814
0.0244289
0.0244211
0.024928
0.113898
0.0462018
0.0323249
0.0344619
0.0346397
0.0335578
0.0325931
0.0318685
0.0312686
0.0307425
0.0302758
0.0298601
0.0294876
0.0291515
0.0288462
0.0285671
0.0283107
0.0280738
0.0278538
0.0276485
0.027456
0.0272746
0.0271028
0.0269393
0.026783
0.0266328
0.0264878
0.0263471
0.02621
0.0260757
0.0259436
0.0258132
0.025684
0.0255556
0.0254278
0.0253005
0.0251738
0.0250482
0.024924
0.0248036
0.0246859
0.0245792
0.024476
0.0244013
0.0243241
0.0243195
0.0242792
0.024425
0.0244392
0.0249585
0.110793
0.0473008
0.0328013
0.0346344
0.0347409
0.0336158
0.0326313
0.0318984
0.0312932
0.030763
0.0302932
0.0298753
0.029501
0.0291634
0.0288569
0.0285769
0.0283196
0.028082
0.0278614
0.0276556
0.0274626
0.0272808
0.0271086
0.0269448
0.0267882
0.0266377
0.0264925
0.0263515
0.0262142
0.0260797
0.0259475
0.0258169
0.0256875
0.0255589
0.025431
0.0253035
0.0251766
0.0250508
0.0249264
0.0248057
0.0246878
0.0245808
0.0244772
0.024402
0.0243244
0.0243187
0.0242792
0.0244196
0.0244687
0.024983
0.107837
0.0483946
0.0333747
0.0348527
0.0348755
0.0336942
0.0326804
0.0319354
0.0313232
0.0307877
0.0303139
0.0298929
0.0295164
0.029177
0.0288691
0.0285879
0.0283297
0.0280912
0.0278699
0.0276634
0.0274699
0.0272876
0.027115
0.0269509
0.0267939
0.0266432
0.0264976
0.0263565
0.0262189
0.0260842
0.0259518
0.025821
0.0256915
0.0255628
0.0254347
0.0253071
0.0251801
0.0250541
0.0249295
0.0248087
0.0246905
0.0245832
0.0244793
0.0244036
0.0243257
0.0243185
0.0242811
0.0244141
0.0245053
0.0250087
0.10493
0.0494266
0.0339986
0.0350971
0.0350376
0.0337948
0.032743
0.0319818
0.0313607
0.0308183
0.0303392
0.0299144
0.029535
0.0291933
0.0288836
0.0286009
0.0283414
0.0281019
0.0278798
0.0276726
0.0274784
0.0272955
0.0271225
0.0269579
0.0268005
0.0266495
0.0265036
0.0263622
0.0262244
0.0260896
0.025957
0.025826
0.0256964
0.0255676
0.0254394
0.0253117
0.0251846
0.0250586
0.0249339
0.0248129
0.0246947
0.0245872
0.0244831
0.0244068
0.024329
0.0243197
0.0242862
0.0244104
0.0245463
0.0250361
0.102064
0.0503798
0.0346395
0.0353466
0.035214
0.0339127
0.032818
0.0320375
0.0314058
0.0308554
0.0303701
0.0299405
0.0295575
0.0292131
0.028901
0.0286165
0.0283555
0.0281148
0.0278915
0.0276834
0.0274884
0.0273049
0.0271313
0.0269661
0.0268084
0.0266569
0.0265108
0.0263691
0.0262311
0.026096
0.0259632
0.0258322
0.0257025
0.0255736
0.0254454
0.0253176
0.0251905
0.0250646
0.0249399
0.024819
0.0247008
0.0245932
0.0244892
0.0244125
0.0243352
0.0243235
0.0242954
0.0244105
0.0245884
0.025064
0.0992499
0.0512476
0.0352812
0.0355894
0.0353938
0.0340414
0.0329021
0.0321004
0.0314576
0.0308985
0.0304061
0.0299712
0.0295841
0.0292364
0.0289218
0.0286351
0.0283723
0.02813
0.0279055
0.0276963
0.0275004
0.0273161
0.0271417
0.026976
0.0268178
0.0266659
0.0265194
0.0263774
0.0262391
0.0261038
0.0259709
0.0258398
0.02571
0.0255811
0.025453
0.0253253
0.0251984
0.0250726
0.0249482
0.0248275
0.0247096
0.0246022
0.0244986
0.0244215
0.0243454
0.0243311
0.0243097
0.0244161
0.0246313
0.0250912
0.0964929
0.0520276
0.0359183
0.0358216
0.0355707
0.034176
0.0329919
0.0321679
0.0315139
0.030946
0.0304465
0.0300059
0.0296143
0.0292631
0.0289456
0.0286566
0.0283918
0.0281478
0.0279219
0.0277114
0.0275145
0.0273292
0.0271541
0.0269877
0.0268289
0.0266765
0.0265296
0.0263873
0.0262488
0.0261133
0.0259803
0.0258491
0.0257194
0.0255906
0.0254625
0.0253352
0.0252085
0.0250831
0.0249591
0.0248389
0.0247215
0.0246146
0.0245118
0.0244346
0.0243603
0.0243434
0.0243299
0.0244291
0.0246711
0.0251166
0.0937968
0.0527189
0.0365493
0.0360432
0.0357418
0.0343137
0.0330853
0.032238
0.0315728
0.0309965
0.0304897
0.0300434
0.0296474
0.0292926
0.0289721
0.0286806
0.0284137
0.0281679
0.0279404
0.0277287
0.0275306
0.0273443
0.0271684
0.0270013
0.0268418
0.0266889
0.0265416
0.0263989
0.0262602
0.0261246
0.0259915
0.0258603
0.0257307
0.025602
0.0254743
0.0253473
0.0252211
0.0250963
0.0249729
0.0248535
0.024737
0.0246309
0.0245293
0.0244523
0.0243805
0.0243614
0.0243563
0.02445
0.024709
0.025139
0.0911648
0.0533219
0.0371733
0.036255
0.0359058
0.034453
0.0331814
0.0323098
0.0316334
0.0310488
0.0305349
0.0300829
0.0296824
0.029324
0.0290006
0.0287066
0.0284375
0.0281899
0.0279609
0.0277477
0.0275485
0.0273612
0.0271844
0.0270165
0.0268565
0.026703
0.0265553
0.0264123
0.0262733
0.0261376
0.0260045
0.0258734
0.0257439
0.0256156
0.0254883
0.0253618
0.0252362
0.0251122
0.0249898
0.0248715
0.0247562
0.0246512
0.0245514
0.024475
0.0244063
0.0243856
0.0243889
0.0244789
0.024745
0.0251575
0.0886
0.053837
0.0377887
0.0364584
0.0360617
0.0345929
0.0332796
0.0323826
0.0316948
0.0311022
0.0305813
0.0301236
0.0297187
0.0293568
0.0290304
0.0287339
0.0284628
0.0282134
0.0279827
0.0277682
0.0275678
0.0273795
0.0272018
0.0270332
0.0268725
0.0267186
0.0265705
0.0264272
0.026288
0.0261522
0.0260192
0.0258882
0.025759
0.0256311
0.0255043
0.0253786
0.0252539
0.0251309
0.0250097
0.0248927
0.024779
0.0246755
0.0245779
0.0245025
0.0244375
0.0244159
0.0244269
0.0245149
0.0247795
0.0251717
0.0861051
0.0542648
0.0383932
0.0366546
0.036209
0.0347328
0.03338
0.0324564
0.0317568
0.0311564
0.0306286
0.0301653
0.0297559
0.0293905
0.0290612
0.0287622
0.028489
0.0282378
0.0280056
0.0277898
0.0275882
0.027399
0.0272204
0.0270511
0.0268898
0.0267354
0.0265869
0.0264434
0.0263041
0.0261683
0.0260353
0.0259046
0.0257758
0.0256484
0.0255223
0.0253974
0.0252738
0.025152
0.0250322
0.0249169
0.0248051
0.0247034
0.0246084
0.0245344
0.0244735
0.0244518
0.0244695
0.0245566
0.0248127
0.0251817
0.0836827
0.0546063
0.0389842
0.0368452
0.0363471
0.0348716
0.0334823
0.0325311
0.0318193
0.0312113
0.0306766
0.0302076
0.0297938
0.0294249
0.0290926
0.0287912
0.0285159
0.028263
0.0280293
0.0278122
0.0276094
0.0274192
0.0272398
0.0270698
0.0269079
0.0267531
0.0266043
0.0264606
0.0263212
0.0261854
0.0260526
0.0259223
0.0257939
0.0256672
0.0255419
0.025418
0.0252955
0.0251752
0.0250571
0.0249436
0.0248341
0.0247345
0.0246424
0.0245702
0.0245134
0.0244925
0.0245157
0.0246024
0.0248448
0.0251877
0.081335
0.0548628
0.0395584
0.0370317
0.0364756
0.0350084
0.0335864
0.0326067
0.0318822
0.0312666
0.0307253
0.0302506
0.0298323
0.0294598
0.0291247
0.0288208
0.0285435
0.0282888
0.0280535
0.0278351
0.0276313
0.0274401
0.0272599
0.0270892
0.0269268
0.0267715
0.0266224
0.0264785
0.0263391
0.0262034
0.0260709
0.0259409
0.0258131
0.0256871
0.0255627
0.02544
0.0253188
0.0252001
0.0250838
0.0249723
0.0248653
0.024768
0.0246792
0.024609
0.0245564
0.0245369
0.0245641
0.0246504
0.0248758
0.0251901
0.0790642
0.0550362
0.0401128
0.0372155
0.0365945
0.0351424
0.033692
0.0326833
0.0319454
0.0313225
0.0307745
0.0302942
0.0298714
0.0294953
0.0291573
0.028851
0.0285715
0.028315
0.0280783
0.0278585
0.0276536
0.0274615
0.0272804
0.0271091
0.0269462
0.0267905
0.0266411
0.0264971
0.0263577
0.0262222
0.0260899
0.0259603
0.0258331
0.0257079
0.0255845
0.025463
0.0253433
0.0252263
0.025112
0.0250027
0.0248983
0.0248034
0.0247179
0.0246501
0.0246016
0.0245838
0.0246137
0.0246991
0.0249056
0.0251897
0.0768719
0.0551285
0.0406441
0.037398
0.0367037
0.0352724
0.033799
0.0327608
0.0320089
0.0313787
0.0308244
0.0303383
0.029911
0.0295313
0.0291904
0.0288816
0.0286
0.0283418
0.0281035
0.0278825
0.0276764
0.0274833
0.0273015
0.0271295
0.0269661
0.02681
0.0266604
0.0265163
0.0263768
0.0262415
0.0261095
0.0259805
0.0258539
0.0257295
0.0256072
0.025487
0.0253688
0.0252536
0.0251414
0.0250343
0.0249326
0.0248403
0.0247582
0.024693
0.0246481
0.0246324
0.0246637
0.0247472
0.0249342
0.0251873
0.0747591
0.0551425
0.0411492
0.0375803
0.0368034
0.0353974
0.0339068
0.0328394
0.0320726
0.0314352
0.0308747
0.030383
0.0299511
0.0295679
0.0292239
0.0289127
0.028629
0.028369
0.0281291
0.0279068
0.0276996
0.0275056
0.027323
0.0271504
0.0269864
0.02683
0.0266801
0.0265359
0.0263965
0.0262613
0.0261297
0.0260011
0.0258753
0.0257518
0.0256306
0.0255117
0.0253951
0.0252817
0.0251716
0.0250669
0.0249679
0.0248783
0.0247995
0.024737
0.0246955
0.0246819
0.0247135
0.0247941
0.0249615
0.0251838
0.0727267
0.0550815
0.0416252
0.0377631
0.0368941
0.0355166
0.034015
0.0329189
0.0321364
0.0314919
0.0309255
0.0304282
0.0299918
0.0296049
0.029258
0.0289442
0.0286585
0.0283966
0.0281553
0.0279316
0.0277233
0.0275283
0.0273449
0.0271716
0.0270072
0.0268504
0.0267003
0.0265559
0.0264166
0.0262816
0.0261504
0.0260224
0.0258972
0.0257747
0.0256546
0.025537
0.0254221
0.0253105
0.0252027
0.0251003
0.0250041
0.0249172
0.0248416
0.0247818
0.0247433
0.0247317
0.0247627
0.0248393
0.0249876
0.02518
0.0707751
0.0549489
0.0420691
0.0379468
0.0369762
0.0356289
0.034123
0.0329995
0.0322004
0.0315487
0.0309767
0.030474
0.0300329
0.0296423
0.0292925
0.0289763
0.0286884
0.0284247
0.0281818
0.0279568
0.0277474
0.0275514
0.0273672
0.0271933
0.0270284
0.0268712
0.0267209
0.0265765
0.0264372
0.0263024
0.0261715
0.0260441
0.0259197
0.0257981
0.0256792
0.025563
0.0254498
0.0253401
0.0252345
0.0251344
0.025041
0.0249569
0.0248843
0.0248273
0.0247914
0.0247814
0.0248111
0.0248828
0.0250128
0.0251764
0.0689041
0.0547491
0.0424781
0.0381316
0.0370505
0.0357335
0.0342303
0.0330809
0.0322645
0.0316055
0.0310282
0.0305201
0.0300745
0.0296803
0.0293275
0.0290088
0.0287188
0.0284533
0.0282088
0.0279825
0.0277719
0.027575
0.02739
0.0272154
0.02705
0.0268925
0.0267419
0.0265974
0.0264583
0.0263237
0.0261932
0.0260664
0.0259427
0.0258221
0.0257044
0.0255897
0.0254781
0.0253703
0.0252669
0.0251693
0.0250785
0.0249971
0.0249276
0.0248732
0.0248396
0.024831
0.0248587
0.0249246
0.0250372
0.0251738
0.0671132
0.0544866
0.0428495
0.038317
0.0371179
0.0358299
0.0343359
0.0331631
0.0323286
0.0316621
0.0310799
0.0305667
0.0301165
0.0297186
0.0293629
0.0290417
0.0287496
0.0284823
0.0282362
0.0280086
0.0277969
0.027599
0.0274132
0.027238
0.027072
0.0269142
0.0267634
0.0266189
0.0264798
0.0263455
0.0262154
0.0260892
0.0259663
0.0258467
0.0257302
0.0256169
0.025507
0.0254012
0.0253
0.0252048
0.0251167
0.025038
0.0249713
0.0249195
0.0248879
0.0248802
0.0249055
0.024965
0.0250611
0.0251725
0.0654016
0.0541663
0.043181
0.0385024
0.0371792
0.0359176
0.0344392
0.0332459
0.0323929
0.0317186
0.0311317
0.0306136
0.0301589
0.0297574
0.0293987
0.029075
0.0287808
0.0285117
0.0282641
0.0280351
0.0278223
0.0276234
0.0274369
0.027261
0.0270946
0.0269364
0.0267854
0.0266408
0.0265018
0.0263678
0.0262382
0.0261125
0.0259905
0.0258719
0.0257566
0.0256448
0.0255366
0.0254328
0.0253338
0.0252409
0.0251555
0.0250795
0.0250155
0.0249662
0.0249363
0.0249292
0.0249517
0.0250042
0.0250849
0.0251729
0.0637679
0.0537934
0.0434706
0.0386868
0.0372355
0.0359961
0.0345393
0.033329
0.0324573
0.0317748
0.0311835
0.0306608
0.0302017
0.0297965
0.0294349
0.0291088
0.0288125
0.0285415
0.0282924
0.0280621
0.0278481
0.0276483
0.027461
0.0272845
0.0271175
0.026959
0.0268078
0.0266632
0.0265243
0.0263906
0.0262614
0.0261364
0.0260152
0.0258976
0.0257836
0.0256733
0.0255669
0.025465
0.0253682
0.0252778
0.025195
0.0251216
0.0250602
0.0250132
0.0249847
0.0249778
0.0249973
0.0250426
0.0251088
0.0251755
0.0622107
0.0533734
0.0437166
0.0388685
0.0372878
0.0360655
0.0346353
0.0334122
0.0325217
0.0318306
0.0312352
0.0307083
0.0302448
0.029836
0.0294715
0.029143
0.0288445
0.0285718
0.0283211
0.0280895
0.0278744
0.0276736
0.0274855
0.0273084
0.0271409
0.0269821
0.0268307
0.0266861
0.0265473
0.0264139
0.0262852
0.0261608
0.0260405
0.025924
0.0258112
0.0257024
0.0255978
0.0254978
0.0254033
0.0253152
0.025235
0.0251642
0.0251053
0.0250604
0.0250332
0.0250262
0.0250424
0.0250806
0.0251332
0.0251805
0.0607278
0.0529118
0.0439178
0.0390458
0.0373371
0.0361257
0.0347263
0.0334949
0.0325862
0.031886
0.0312866
0.0307558
0.0302881
0.0298758
0.0295084
0.0291775
0.028877
0.0286025
0.0283502
0.0281173
0.027901
0.0276994
0.0275104
0.0273327
0.0271648
0.0270056
0.0268541
0.0267094
0.0265708
0.0264377
0.0263095
0.0261858
0.0260663
0.0259509
0.0258395
0.0257322
0.0256293
0.0255314
0.0254391
0.0253534
0.0252757
0.0252074
0.0251508
0.025108
0.0250818
0.0250744
0.0250873
0.0251183
0.0251584
0.0251882
0.0593171
0.0524145
0.0440733
0.0392164
0.0373842
0.0361772
0.0348114
0.0335767
0.0326507
0.0319408
0.0313376
0.0308033
0.0303317
0.0299158
0.0295456
0.0292123
0.0289098
0.0286335
0.0283798
0.0281455
0.0279281
0.0277255
0.0275358
0.0273575
0.0271891
0.0270296
0.026878
0.0267333
0.0265949
0.0264621
0.0263344
0.0262114
0.0260928
0.0259785
0.0258684
0.0257627
0.0256616
0.0255656
0.0254755
0.0253922
0.0253169
0.0252512
0.0251969
0.0251559
0.0251306
0.0251225
0.0251321
0.0251561
0.0251847
0.025199
0.0579761
0.051887
0.044183
0.039378
0.03743
0.0362202
0.0348901
0.0336571
0.0327151
0.0319952
0.0313882
0.0308508
0.0303755
0.0299561
0.029583
0.0292474
0.0289429
0.0286649
0.0284097
0.0281741
0.0279556
0.0277521
0.0275617
0.0273827
0.0272139
0.0270541
0.0269023
0.0267577
0.0266194
0.026487
0.0263598
0.0262375
0.0261199
0.0260067
0.0258979
0.0257938
0.0256945
0.0256005
0.0255126
0.0254316
0.0253588
0.0252955
0.0252433
0.0252041
0.0251795
0.0251706
0.0251769
0.0251943
0.0252124
0.025213
0.056702
0.051335
0.044247
0.039528
0.0374749
0.0362555
0.0349615
0.0337353
0.0327793
0.032049
0.0314381
0.030898
0.0304193
0.0299966
0.0296207
0.0292829
0.0289764
0.0286967
0.0284399
0.0282031
0.0279836
0.0277791
0.0275879
0.0274084
0.0272391
0.0270791
0.0269271
0.0267825
0.0266445
0.0265124
0.0263858
0.0262642
0.0261475
0.0260355
0.0259281
0.0258255
0.025728
0.0256361
0.0255504
0.0254717
0.0254013
0.0253403
0.0252902
0.0252526
0.0252286
0.0252189
0.0252219
0.0252332
0.0252419
0.0252305
0.0554921
0.0507638
0.0442663
0.0396637
0.0375192
0.0362838
0.0350252
0.0338107
0.0328431
0.0321022
0.0314873
0.0309449
0.0304631
0.0300371
0.0296586
0.0293185
0.0290101
0.0287287
0.0284706
0.0282325
0.0280119
0.0278065
0.0276146
0.0274345
0.0272648
0.0271045
0.0269525
0.0268079
0.0266701
0.0265384
0.0264123
0.0262916
0.0261758
0.0260649
0.0259589
0.0258579
0.0257622
0.0256723
0.0255888
0.0255125
0.0254444
0.0253857
0.0253376
0.0253015
0.025278
0.0252673
0.0252674
0.025273
0.0252734
0.0252518
0.0543434
0.0501784
0.044242
0.0397827
0.0375627
0.0363059
0.0350809
0.0338825
0.0329061
0.0321548
0.0315357
0.0309912
0.0305067
0.0300778
0.0296966
0.0293543
0.0290441
0.0287611
0.0285015
0.0282622
0.0280405
0.0278343
0.0276417
0.027461
0.0272909
0.0271304
0.0269782
0.0268338
0.0266962
0.0265649
0.0264394
0.0263194
0.0262047
0.026095
0.0259904
0.025891
0.0257971
0.0257092
0.0256279
0.0255538
0.0254881
0.0254316
0.0253855
0.0253507
0.0253278
0.0253162
0.0253134
0.0253139
0.0253072
0.0252772
0.0532528
0.0495834
0.044176
0.039883
0.037605
0.0363224
0.0351285
0.0339501
0.0329681
0.0322066
0.0315832
0.0310369
0.0305502
0.0301184
0.0297346
0.0293903
0.0290783
0.0287937
0.0285327
0.0282922
0.0280696
0.0278625
0.0276692
0.0274879
0.0273175
0.0271567
0.0270045
0.0268601
0.0267228
0.0265919
0.0264671
0.0263479
0.0262341
0.0261257
0.0260225
0.0259247
0.0258327
0.0257468
0.0256676
0.0255958
0.0255323
0.025478
0.0254338
0.0254004
0.0253779
0.0253655
0.0253602
0.0253564
0.0253436
0.0253069
0.0522172
0.0489829
0.0440707
0.0399626
0.0376452
0.0363343
0.0351678
0.0340126
0.0330285
0.0322578
0.0316296
0.0310819
0.0305933
0.0301589
0.0297727
0.0294263
0.0291127
0.0288266
0.0285642
0.0283226
0.0280989
0.027891
0.027697
0.0275153
0.0273445
0.0271835
0.0270313
0.026887
0.0267499
0.0266195
0.0264953
0.026377
0.0262642
0.026157
0.0260552
0.0259591
0.0258689
0.025785
0.025708
0.0256385
0.0255772
0.025525
0.0254826
0.0254505
0.0254285
0.0254154
0.0254079
0.0254004
0.0253828
0.0253412
0.0512336
0.0483808
0.0439288
0.04002
0.0376821
0.036342
0.0351992
0.0340696
0.033087
0.032308
0.0316751
0.0311259
0.0306359
0.0301993
0.0298108
0.0294624
0.0291471
0.0288596
0.028596
0.0283532
0.0281286
0.0279199
0.0277253
0.0275431
0.027372
0.0272108
0.0270585
0.0269143
0.0267776
0.0266477
0.0265241
0.0264066
0.0262949
0.0261889
0.0260886
0.0259942
0.0259058
0.0258239
0.025749
0.0256817
0.0256226
0.0255725
0.0255319
0.0255011
0.0254796
0.025466
0.0254568
0.0254463
0.0254251
0.0253802
0.050299
0.0477803
0.0437532
0.040054
0.0377145
0.0363461
0.035223
0.0341204
0.033143
0.0323571
0.0317194
0.0311689
0.0306778
0.0302394
0.0298487
0.0294985
0.0291817
0.0288928
0.028628
0.0283841
0.0281586
0.0279491
0.0277539
0.0275712
0.0273998
0.0272384
0.0270862
0.0269422
0.0268058
0.0266763
0.0265535
0.0264368
0.0263262
0.0262215
0.0261226
0.0260298
0.0259433
0.0258634
0.0257906
0.0257255
0.0256687
0.0256206
0.0255818
0.0255522
0.0255313
0.0255174
0.0255069
0.0254943
0.0254705
0.025424
0.0494103
0.0471841
0.0435474
0.0400638
0.0377408
0.0363469
0.0352395
0.0341647
0.0331958
0.032405
0.0317625
0.0312108
0.030719
0.030279
0.0298864
0.0295345
0.0292162
0.028926
0.0286601
0.0284152
0.0281888
0.0279787
0.0277828
0.0275997
0.027428
0.0272665
0.0271143
0.0269705
0.0268344
0.0267055
0.0265834
0.0264676
0.0263581
0.0262546
0.0261573
0.0260661
0.0259815
0.0259036
0.0258329
0.02577
0.0257153
0.0256692
0.0256322
0.0256039
0.0255837
0.0255697
0.0255584
0.0255444
0.0255194
0.0254728
0.0485648
0.0465947
0.0433146
0.040049
0.0377595
0.0363446
0.0352493
0.034202
0.033245
0.0324513
0.0318044
0.0312514
0.0307593
0.0303182
0.0299239
0.0295703
0.0292506
0.0289593
0.0286923
0.0284465
0.0282193
0.0280084
0.0278121
0.0276286
0.0274566
0.027295
0.0271429
0.0269993
0.0268636
0.0267352
0.0266138
0.026499
0.0263905
0.0262884
0.0261925
0.026103
0.0260202
0.0259443
0.0258758
0.025815
0.0257624
0.0257184
0.0256831
0.0256562
0.0256369
0.0256231
0.0256115
0.0255969
0.0255717
0.0255266
0.0477597
0.0460138
0.0430582
0.0400098
0.0377691
0.036339
0.0352528
0.0342324
0.03329
0.0324956
0.0318449
0.0312906
0.0307985
0.0303567
0.029961
0.0296059
0.029285
0.0289926
0.0287246
0.0284779
0.0282499
0.0280385
0.0278416
0.0276578
0.0274856
0.0273239
0.0271718
0.0270285
0.0268932
0.0267654
0.0266448
0.0265309
0.0264235
0.0263227
0.0262283
0.0261405
0.0260596
0.0259857
0.0259192
0.0258605
0.0258101
0.0257681
0.0257345
0.0257091
0.0256908
0.0256776
0.0256662
0.0256518
0.0256276
0.0255854
0.0469924
0.0454432
0.0427816
0.0399466
0.0377679
0.0363297
0.0352506
0.0342557
0.0333302
0.0325377
0.0318839
0.0313283
0.0308364
0.0303943
0.0299975
0.0296412
0.0293191
0.0290258
0.0287569
0.0285094
0.0282807
0.0280687
0.0278714
0.0276873
0.0275149
0.0273532
0.0272012
0.0270581
0.0269233
0.0267961
0.0266762
0.0265633
0.0264571
0.0263576
0.0262647
0.0261786
0.0260995
0.0260276
0.0259632
0.0259066
0.0258583
0.0258183
0.0257866
0.0257627
0.0257456
0.0257333
0.0257226
0.0257093
0.0256871
0.025649
0.0462605
0.0448839
0.042488
0.0398601
0.0377549
0.0363163
0.0352431
0.034272
0.0333652
0.0325771
0.0319212
0.0313645
0.030873
0.030431
0.0300335
0.0296761
0.029353
0.0290588
0.0287891
0.0285409
0.0283117
0.0280991
0.0279014
0.027717
0.0275445
0.0273828
0.027231
0.0270882
0.0269538
0.0268272
0.0267081
0.0265962
0.0264912
0.026393
0.0263016
0.0262172
0.0261399
0.02607
0.0260077
0.0259533
0.025907
0.025869
0.0258392
0.0258169
0.0258012
0.0257902
0.0257808
0.0257693
0.0257502
0.0257175
0.0455618
0.0443368
0.0421803
0.0397516
0.037729
0.0362982
0.0352305
0.0342815
0.0333946
0.0326133
0.0319566
0.0313991
0.0309081
0.0304666
0.0300688
0.0297105
0.0293866
0.0290916
0.0288213
0.0285725
0.0283426
0.0281296
0.0279316
0.027747
0.0275744
0.0274127
0.0272611
0.0271186
0.0269847
0.0268588
0.0267405
0.0266296
0.0265257
0.0264289
0.0263391
0.0262564
0.0261809
0.0261129
0.0260527
0.0260004
0.0259562
0.0259202
0.0258923
0.0258719
0.0258578
0.0258483
0.0258408
0.0258318
0.0258166
0.0257905
0.044894
0.0438025
0.0418614
0.0396224
0.0376894
0.0362745
0.0352131
0.0342844
0.0334182
0.0326459
0.0319899
0.0314319
0.0309416
0.030501
0.0301032
0.0297443
0.0294197
0.0291241
0.0288532
0.0286039
0.0283736
0.0281602
0.0279619
0.0277771
0.0276045
0.0274429
0.0272915
0.0271494
0.027016
0.0268908
0.0267734
0.0266634
0.0265608
0.0264653
0.026377
0.026296
0.0262224
0.0261563
0.0260981
0.0260479
0.0260059
0.025972
0.025946
0.0259275
0.0259152
0.0259077
0.0259026
0.0258967
0.0258864
0.0258677
0.0442551
0.0432814
0.0415338
0.0394741
0.0376356
0.0362445
0.0351909
0.034281
0.0334357
0.0326744
0.0320207
0.0314628
0.0309734
0.0305339
0.0301365
0.0297774
0.0294523
0.0291562
0.0288849
0.0286352
0.0284045
0.0281908
0.0279923
0.0278074
0.0276348
0.0274733
0.0273222
0.0271805
0.0270476
0.0269232
0.0268066
0.0266977
0.0265962
0.0265021
0.0264154
0.0263361
0.0262643
0.0262002
0.026144
0.0260959
0.0260559
0.0260241
0.0260003
0.0259837
0.0259736
0.0259684
0.025966
0.025964
0.0259592
0.0259487
0.0436434
0.0427737
0.0411997
0.0393083
0.0375675
0.0362074
0.0351638
0.0342716
0.0334471
0.0326986
0.0320488
0.0314916
0.0310034
0.0305653
0.0301687
0.0298096
0.0294842
0.0291878
0.0289162
0.0286662
0.0284353
0.0282214
0.0280228
0.0278378
0.0276652
0.027504
0.0273531
0.0272119
0.0270796
0.0269558
0.0268402
0.0267323
0.0266321
0.0265394
0.0264542
0.0263765
0.0263066
0.0262444
0.0261902
0.0261442
0.0261064
0.0260767
0.026055
0.0260406
0.0260328
0.0260302
0.0260311
0.0260334
0.0260348
0.0260332
0.0430571
0.0422793
0.0408612
0.0391269
0.0374851
0.0361624
0.0351318
0.0342563
0.0334523
0.032718
0.0320738
0.0315182
0.0310314
0.030595
0.0301996
0.0298409
0.0295154
0.0292189
0.0289471
0.028697
0.0284659
0.0282519
0.0280532
0.0278682
0.0276958
0.0275348
0.0273842
0.0272435
0.0271118
0.0269888
0.0268741
0.0267673
0.0266683
0.026577
0.0264933
0.0264174
0.0263492
0.026289
0.0262368
0.0261929
0.0261572
0.0261297
0.0261101
0.0260981
0.0260928
0.0260931
0.0260977
0.0261048
0.0261129
0.0261206
0.0424946
0.0417983
0.0405199
0.0389316
0.0373886
0.0361089
0.0350944
0.0342354
0.0334514
0.0327324
0.0320954
0.0315423
0.0310573
0.0306228
0.0302289
0.0298711
0.0295458
0.0292493
0.0289775
0.0287274
0.0284963
0.0282822
0.0280835
0.0278986
0.0277264
0.0275656
0.0274155
0.0272753
0.0271443
0.0270221
0.0269083
0.0268026
0.0267048
0.0266149
0.0265328
0.0264585
0.0263921
0.0263338
0.0262836
0.0262418
0.0262082
0.0261829
0.0261657
0.026156
0.0261534
0.026157
0.0261655
0.0261779
0.0261931
0.0262104
0.0419546
0.0413305
0.0401774
0.0387242
0.0372787
0.0360464
0.0350515
0.034209
0.0334445
0.0327416
0.0321133
0.0315638
0.031081
0.0306487
0.0302567
0.0298999
0.0295752
0.0292789
0.0290073
0.0287573
0.0285262
0.0283123
0.0281137
0.027929
0.027757
0.0275966
0.0274469
0.0273072
0.0271769
0.0270555
0.0269427
0.0268381
0.0267416
0.026653
0.0265724
0.0264998
0.0264352
0.0263788
0.0263306
0.0262908
0.0262594
0.0262364
0.0262215
0.0262144
0.0262147
0.0262216
0.0262344
0.0262523
0.0262748
0.0263019
0.0414355
0.0408756
0.0398349
0.0385064
0.0371559
0.0359747
0.0350026
0.0341772
0.0334317
0.0327453
0.032127
0.0315823
0.0311023
0.0306725
0.0302827
0.0299274
0.0296035
0.0293077
0.0290364
0.0287866
0.0285558
0.028342
0.0281436
0.0279592
0.0277875
0.0276275
0.0274783
0.0273392
0.0272096
0.0270891
0.0269772
0.0268737
0.0267785
0.0266913
0.0266123
0.0265413
0.0264785
0.026424
0.0263778
0.02634
0.0263108
0.02629
0.0262775
0.0262731
0.0262764
0.0262869
0.0263042
0.0263278
0.0263577
0.0263945
0.0409362
0.0404334
0.0394936
0.0382797
0.0370211
0.0358934
0.0349474
0.0341399
0.0334131
0.0327436
0.0321365
0.0315977
0.031121
0.0306941
0.0303068
0.0299533
0.0296305
0.0293354
0.0290646
0.0288153
0.0285848
0.0283714
0.0281733
0.0279892
0.0278178
0.0276583
0.0275096
0.0273712
0.0272424
0.0271227
0.0270119
0.0269095
0.0268155
0.0267298
0.0266522
0.0265829
0.0265218
0.0264692
0.0264249
0.0263892
0.0263621
0.0263436
0.0263336
0.0263319
0.0263383
0.0263525
0.0263744
0.0264038
0.0264411
0.0264874
0.0404555
0.0400035
0.0391543
0.0380456
0.0368752
0.0358026
0.0348855
0.0340972
0.0333888
0.0327364
0.0321414
0.0316096
0.031137
0.0307133
0.0303288
0.0299775
0.0296562
0.029362
0.029092
0.0288432
0.0286132
0.0284002
0.0282025
0.0280188
0.027848
0.0276889
0.0275409
0.0274031
0.0272751
0.0271564
0.0270465
0.0269453
0.0268526
0.0267682
0.0266922
0.0266245
0.0265652
0.0265143
0.026472
0.0264383
0.0264134
0.0263971
0.0263896
0.0263906
0.0264002
0.0264182
0.0264447
0.0264799
0.0265246
0.02658
0.0399924
0.0395856
0.0388178
0.0378056
0.0367191
0.0357024
0.0348169
0.0340488
0.0333589
0.0327236
0.0321416
0.0316178
0.0311501
0.0307301
0.0303486
0.0299999
0.0296803
0.0293874
0.0291182
0.0288702
0.0286409
0.0284284
0.0282313
0.0280481
0.0278778
0.0277194
0.027572
0.027435
0.0273078
0.0271899
0.0270811
0.0269811
0.0268896
0.0268066
0.0267321
0.026666
0.0266084
0.0265593
0.0265189
0.0264872
0.0264644
0.0264504
0.0264453
0.0264492
0.026462
0.0264838
0.0265149
0.0265557
0.0266074
0.0266714
0.0395458
0.0391795
0.0384848
0.0375607
0.0365539
0.0355932
0.0347411
0.0339947
0.0333234
0.0327053
0.032137
0.0316221
0.0311601
0.0307441
0.0303661
0.0300202
0.0297028
0.0294114
0.0291434
0.0288962
0.0286677
0.028456
0.0282595
0.0280769
0.0279072
0.0277494
0.0276028
0.0274665
0.0273402
0.0272233
0.0271156
0.0270167
0.0269265
0.0268449
0.0267718
0.0267073
0.0266513
0.026604
0.0265655
0.0265358
0.026515
0.0265033
0.0265007
0.0265073
0.0265232
0.0265488
0.0265844
0.0266307
0.026689
0.0267609
0.0391148
0.0387846
0.0381557
0.0373123
0.0363804
0.0354752
0.0346582
0.0339349
0.0332825
0.0326816
0.0321273
0.0316223
0.0311667
0.0307554
0.0303811
0.0300383
0.0297234
0.0294338
0.0291672
0.0289212
0.0286936
0.0284827
0.028287
0.0281051
0.0279361
0.0277791
0.0276332
0.0274978
0.0273724
0.0272565
0.0271498
0.0270521
0.0269631
0.0268829
0.0268112
0.0267482
0.0266939
0.0266483
0.0266116
0.0265838
0.0265651
0.0265556
0.0265554
0.0265647
0.0265837
0.0266129
0.0266528
0.0267042
0.0267686
0.0268478
0.0386986
0.0384006
0.037831
0.0370612
0.0361998
0.0353489
0.0345682
0.0338691
0.0332361
0.0326524
0.0321126
0.0316182
0.0311698
0.0307636
0.0303935
0.0300542
0.029742
0.0294545
0.0291895
0.0289449
0.0287184
0.0285085
0.0283137
0.0281327
0.0279645
0.0278082
0.0276632
0.0275287
0.0274042
0.0272893
0.0271837
0.0270871
0.0269994
0.0269205
0.0268503
0.0267888
0.0267361
0.0266921
0.0266572
0.0266312
0.0266145
0.0266071
0.0266092
0.0266211
0.0266431
0.0266757
0.0267196
0.0267758
0.0268457
0.0269313
0.0382964
0.0380273
0.0375109
0.0368083
0.0360128
0.0352149
0.0344712
0.0337974
0.0331842
0.0326179
0.0320928
0.0316096
0.0311692
0.0307687
0.0304032
0.0300676
0.0297585
0.0294734
0.0292103
0.0289672
0.0287421
0.0285333
0.0283394
0.0281594
0.0279921
0.0278367
0.0276926
0.027559
0.0274355
0.0273216
0.0272171
0.0271217
0.0270352
0.0269576
0.0268888
0.0268288
0.0267776
0.0267353
0.026702
0.0266778
0.026663
0.0266576
0.0266619
0.0266763
0.0267011
0.0267369
0.0267844
0.0268448
0.0269196
0.0270106
0.0379075
0.0376642
0.0371959
0.0365545
0.0358205
0.0350738
0.0343673
0.0337197
0.0331268
0.032578
0.0320679
0.0315965
0.0311646
0.0307705
0.0304099
0.0300785
0.0297727
0.0294904
0.0292294
0.028988
0.0287644
0.0285569
0.0283642
0.0281852
0.0280189
0.0278645
0.0277213
0.0275887
0.0274662
0.0273534
0.0272499
0.0271557
0.0270705
0.0269941
0.0269267
0.026868
0.0268183
0.0267775
0.0267458
0.0267234
0.0267103
0.0267068
0.0267133
0.0267299
0.0267573
0.0267959
0.0268468
0.0269108
0.0269897
0.0270851
0.0375311
0.037311
0.036886
0.0363004
0.0356237
0.0349261
0.0342567
0.0336361
0.033064
0.0325328
0.0320379
0.0315787
0.0311561
0.0307688
0.0304136
0.0300866
0.0297846
0.0295052
0.0292466
0.0290072
0.0287852
0.0285792
0.0283878
0.0282099
0.0280447
0.0278914
0.0277492
0.0276176
0.0274961
0.0273844
0.0272821
0.027189
0.027105
0.0270299
0.0269637
0.0269064
0.0268581
0.0268188
0.0267886
0.0267677
0.0267563
0.0267546
0.0267629
0.0267817
0.0268113
0.0268525
0.0269061
0.0269732
0.0270554
0.0271542
0.0371667
0.0369673
0.0365814
0.0360467
0.0354232
0.0347725
0.0341398
0.0335466
0.0329957
0.0324824
0.0320028
0.0315562
0.0311434
0.0307635
0.0304141
0.0300919
0.0297938
0.0295177
0.0292618
0.0290246
0.0288045
0.0286
0.0284101
0.0282335
0.0280695
0.0279173
0.0277762
0.0276457
0.0275253
0.0274146
0.0273134
0.0272215
0.0271386
0.0270647
0.0269998
0.0269438
0.0268968
0.0268588
0.02683
0.0268106
0.0268007
0.0268006
0.0268106
0.0268312
0.0268628
0.0269061
0.026962
0.0270315
0.0271161
0.0272173
0.0368135
0.0366329
0.0362822
0.0357939
0.0352196
0.0346136
0.034017
0.0334513
0.0329221
0.0324268
0.0319627
0.031529
0.0311264
0.0307545
0.0304113
0.0300942
0.0298004
0.0295278
0.0292748
0.02904
0.028822
0.0286193
0.0284309
0.0282558
0.0280931
0.027942
0.0278021
0.0276727
0.0275534
0.0274438
0.0273437
0.0272529
0.0271712
0.0270985
0.0270347
0.0269799
0.0269341
0.0268974
0.0268699
0.0268518
0.0268433
0.0268446
0.026856
0.0268781
0.0269113
0.0269563
0.0270139
0.0270851
0.0271713
0.0272738
0.0364712
0.0363074
0.0359885
0.0355425
0.0350138
0.03445
0.0338885
0.0333505
0.0328431
0.0323661
0.0319175
0.031497
0.031105