/*--------------------------------*- C++ -*----------------------------------*\
  =========                 |
  \\      /  F ield         | OpenFOAM: The Open Source CFD Toolbox
   \\    /   O peration     | Website:  https://openfoam.org
    \\  /    A nd           | Version:  7
     \\/     M anipulation  |
\*---------------------------------------------------------------------------*/
FoamFile
{
    version     2.0;
    format      ascii;
    class       surfaceScalarField;
    location    "0.22";
    object      phi;
}
// * * * * * * * * * * * * * * * * * * * * * * * * * * * * * * * * * * * * * //

dimensions      [0 3 -1 0 0 0 0];

internalField   nonuniform List<scalar> 
139350
(
6.45924e-08
9.20391e-08
3.1951e-08
3.26414e-08
2.30602e-08
8.89083e-09
1.95664e-08
3.49377e-09
1.76154e-08
1.95095e-09
1.61889e-08
1.42651e-09
1.50572e-08
1.13172e-09
1.41448e-08
9.12459e-10
1.3394e-08
7.50779e-10
1.27617e-08
6.32242e-10
1.22192e-08
5.42526e-10
1.17471e-08
4.72143e-10
1.13316e-08
4.15467e-10
1.09626e-08
3.68968e-10
1.06324e-08
3.30239e-10
1.03348e-08
2.97561e-10
1.00652e-08
2.69673e-10
9.81953e-09
2.45632e-10
9.59481e-09
2.2472e-10
9.38843e-09
2.0638e-10
9.19826e-09
1.90176e-10
9.0225e-09
1.75757e-10
8.85966e-09
1.62842e-10
8.70846e-09
1.51198e-10
8.56783e-09
1.40632e-10
8.43684e-09
1.30985e-10
8.31472e-09
1.22117e-10
8.20081e-09
1.13914e-10
8.09454e-09
1.06271e-10
7.99543e-09
9.9106e-11
7.90311e-09
9.23269e-11
7.81722e-09
8.58852e-11
7.73754e-09
7.96796e-11
7.66383e-09
7.37067e-11
7.59601e-09
6.78274e-11
7.5339e-09
6.21087e-11
7.47756e-09
5.63425e-11
7.42687e-09
5.06814e-11
7.382e-09
4.48722e-11
7.34297e-09
3.90354e-11
7.30976e-09
3.32068e-11
7.28303e-09
2.67315e-11
7.26151e-09
2.15149e-11
7.24851e-09
1.30038e-11
7.23739e-09
1.11202e-11
7.24197e-09
-4.57975e-12
7.233e-09
8.96485e-12
7.28363e-09
-5.06274e-11
7.09613e-09
1.87503e-10
-3.26916e-09
1.03653e-08
1.26026e-07
1.27457e-07
9.12632e-08
6.74039e-08
7.19428e-08
2.82112e-08
6.12171e-08
1.42194e-08
5.4773e-08
8.39511e-09
5.02819e-08
5.91756e-09
4.68011e-08
4.61255e-09
4.39889e-08
3.72459e-09
4.16663e-08
3.07346e-09
3.97083e-08
2.59017e-09
3.80281e-08
2.22278e-09
3.65655e-08
1.93471e-09
3.5278e-08
1.70293e-09
3.41342e-08
1.51282e-09
3.311e-08
1.35446e-09
3.21867e-08
1.22083e-09
3.13496e-08
1.10678e-09
3.05868e-08
1.00846e-09
2.98886e-08
9.22931e-10
2.9247e-08
8.47935e-10
2.86555e-08
7.81682e-10
2.81085e-08
7.22746e-10
2.76014e-08
6.6997e-10
2.71302e-08
6.22411e-10
2.66915e-08
5.79281e-10
2.62826e-08
5.39926e-10
2.59009e-08
5.03786e-10
2.55444e-08
4.70388e-10
2.52114e-08
4.39312e-10
2.49003e-08
4.10207e-10
2.46099e-08
3.82727e-10
2.43392e-08
3.56625e-10
2.40873e-08
3.31551e-10
2.38536e-08
3.07397e-10
2.36377e-08
2.83694e-10
2.34392e-08
2.60594e-10
2.32583e-08
2.37296e-10
2.30945e-08
2.14469e-10
2.29487e-08
1.90637e-10
2.28204e-08
1.6737e-10
2.27114e-08
1.42181e-10
2.26205e-08
1.17628e-10
2.25511e-08
9.09254e-11
2.2501e-08
6.31243e-11
2.24742e-08
3.79296e-11
2.24719e-08
-2.27131e-12
2.24809e-08
-8.83331e-14
2.25855e-08
-1.55209e-10
2.2481e-08
2.92037e-10
-4.04831e-09
2.32601e-08
1.58807e-07
1.35054e-07
1.36494e-07
8.97167e-08
1.17494e-07
4.72118e-08
1.03318e-07
2.83955e-08
9.33135e-08
1.83991e-08
8.60154e-08
1.32157e-08
8.03142e-08
1.03138e-08
7.56683e-08
8.37043e-09
7.17957e-08
6.94614e-09
6.85093e-08
5.87657e-09
6.5676e-08
5.05602e-09
6.32013e-08
4.40947e-09
6.10165e-08
3.88767e-09
5.90708e-08
3.45858e-09
5.73249e-08
3.10037e-09
5.57482e-08
2.79752e-09
5.43163e-08
2.53863e-09
5.30096e-08
2.31514e-09
5.1812e-08
2.12053e-09
5.07102e-08
1.94973e-09
4.96932e-08
1.79872e-09
4.87516e-08
1.66433e-09
4.78776e-08
1.54394e-09
4.70646e-08
1.43543e-09
4.63069e-08
1.33702e-09
4.55996e-08
1.24725e-09
4.49385e-08
1.16486e-09
4.43201e-08
1.08876e-09
4.37414e-08
1.01803e-09
4.31998e-08
9.51847e-10
4.2693e-08
8.89466e-10
4.22194e-08
8.30283e-10
4.17773e-08
7.73573e-10
4.13657e-08
7.18995e-10
4.09838e-08
6.65603e-10
4.06308e-08
6.136e-10
4.03068e-08
5.61272e-10
4.00112e-08
5.10105e-10
3.97454e-08
4.56466e-10
3.9508e-08
4.04722e-10
3.93031e-08
3.47114e-10
3.9127e-08
2.93766e-10
3.89885e-08
2.29413e-10
3.88784e-08
1.73177e-10
3.88144e-08
1.01924e-10
3.87801e-08
3.20931e-11
3.87911e-08
-1.10865e-11
3.88927e-08
-2.5684e-10
3.89629e-08
2.21877e-10
-3.94192e-09
3.88565e-08
1.75664e-07
1.30906e-07
1.65594e-07
9.97861e-08
1.52724e-07
6.00826e-08
1.40126e-07
4.09931e-08
1.29439e-07
2.90857e-08
1.208e-07
2.18546e-08
1.13694e-07
1.74203e-08
1.0772e-07
1.43447e-08
1.02626e-07
1.20394e-08
9.82318e-08
1.02711e-08
9.43964e-08
8.89141e-09
9.10146e-08
7.79126e-09
8.80067e-08
6.89562e-09
8.53112e-08
6.15403e-09
8.28802e-08
5.53145e-09
8.06751e-08
5.00258e-09
7.8665e-08
4.54868e-09
7.68247e-08
4.15553e-09
7.5133e-08
3.8122e-09
7.35726e-08
3.51014e-09
7.21287e-08
3.24255e-09
7.07891e-08
3.00396e-09
6.95431e-08
2.78994e-09
6.83817e-08
2.59682e-09
6.72972e-08
2.42155e-09
6.62829e-08
2.26155e-09
6.53331e-08
2.11466e-09
6.44428e-08
1.979e-09
6.36079e-08
1.85295e-09
6.28247e-08
1.73508e-09
6.209e-08
1.62411e-09
6.14014e-08
1.51893e-09
6.07566e-08
1.41835e-09
6.01539e-08
1.32169e-09
5.95921e-08
1.22738e-09
5.90701e-08
1.13566e-09
5.85877e-08
1.04367e-09
5.81439e-08
9.53844e-10
5.77406e-08
8.59854e-10
5.73757e-08
7.69544e-10
5.70544e-08
6.68404e-10
5.67719e-08
5.76279e-10
5.65398e-08
4.6157e-10
5.63458e-08
3.67142e-10
5.62135e-08
2.34198e-10
5.61207e-08
1.24925e-10
5.60949e-08
1.4733e-11
5.61551e-08
-3.17048e-10
5.62952e-08
8.1799e-11
-3.64228e-09
5.59955e-08
1.8456e-07
1.23131e-07
1.8232e-07
1.02026e-07
1.76102e-07
6.63012e-08
1.67759e-07
4.93354e-08
1.59138e-07
3.77069e-08
1.51232e-07
2.97606e-08
1.44164e-07
2.44882e-08
1.37871e-07
2.06383e-08
1.32278e-07
1.76326e-08
1.27301e-07
1.52481e-08
1.22854e-07
1.33378e-08
1.18862e-07
1.17836e-08
1.15259e-07
1.04984e-08
1.11992e-07
9.42087e-09
1.09017e-07
8.50689e-09
1.06296e-07
7.7238e-09
1.03797e-07
7.04683e-09
1.01496e-07
6.45685e-09
9.93693e-08
5.9389e-09
9.73984e-08
5.48111e-09
9.55669e-08
5.07397e-09
9.38612e-08
4.70973e-09
9.22691e-08
4.38203e-09
9.07803e-08
4.08558e-09
8.93859e-08
3.81596e-09
8.80781e-08
3.56942e-09
8.685e-08
3.34277e-09
8.56957e-08
3.13324e-09
8.46102e-08
2.93845e-09
8.3589e-08
2.75625e-09
8.26284e-08
2.58475e-09
8.17251e-08
2.42228e-09
8.08763e-08
2.26708e-09
8.00799e-08
2.11807e-09
7.93343e-08
1.97303e-09
7.86378e-08
1.83212e-09
7.79902e-08
1.69126e-09
7.73903e-08
1.55382e-09
7.68395e-08
1.41066e-09
7.6336e-08
1.27304e-09
7.58847e-08
1.11964e-09
7.54812e-08
9.79835e-10
7.51368e-08
8.05991e-10
7.48405e-08
6.6344e-10
7.4614e-08
4.60689e-10
7.44403e-08
2.98556e-10
7.43413e-08
1.1375e-10
7.43348e-08
-3.10504e-10
7.44419e-08
-2.53196e-11
-3.28638e-09
7.4086e-08
1.90388e-07
1.14959e-07
1.91851e-07
1.00563e-07
1.90242e-07
6.79098e-08
1.86152e-07
5.34262e-08
1.80713e-07
4.31452e-08
1.74961e-07
3.55134e-08
1.69267e-07
3.01818e-08
1.63788e-07
2.61174e-08
1.58619e-07
2.28014e-08
1.53803e-07
2.00645e-08
1.49342e-07
1.7799e-08
1.45219e-07
1.59061e-08
1.41411e-07
1.43063e-08
1.37892e-07
1.29404e-08
1.34634e-07
1.17641e-08
1.31615e-07
1.07431e-08
1.28811e-07
9.85081e-09
1.26202e-07
9.06575e-09
1.2377e-07
8.37086e-09
1.21499e-07
7.75228e-09
1.19374e-07
7.19869e-09
1.17383e-07
6.7007e-09
1.15515e-07
6.2505e-09
1.13759e-07
5.84151e-09
1.12107e-07
5.46816e-09
1.10551e-07
5.12568e-09
1.09083e-07
4.80996e-09
1.07699e-07
4.51743e-09
1.06393e-07
4.24497e-09
1.05159e-07
3.98977e-09
1.03995e-07
3.74931e-09
1.02895e-07
3.5214e-09
1.01859e-07
3.30368e-09
1.00882e-07
3.09468e-09
9.99638e-08
2.89148e-09
9.91018e-08
2.69415e-09
9.82956e-08
2.49745e-09
9.7544e-08
2.30545e-09
9.68481e-08
2.10653e-09
9.62064e-08
1.91471e-09
9.56231e-08
1.70294e-09
9.50949e-08
1.50808e-09
9.46308e-08
1.27003e-09
9.42242e-08
1.07007e-09
9.38895e-08
7.95346e-10
9.36219e-08
5.66219e-10
9.34277e-08
3.07909e-10
9.33338e-08
-2.1655e-10
9.33624e-08
-5.39571e-11
-2.86228e-09
9.29383e-08
1.9554e-07
1.07234e-07
1.98247e-07
9.78566e-08
1.98967e-07
6.71894e-08
1.97786e-07
5.46077e-08
1.95153e-07
4.57779e-08
1.91811e-07
3.88551e-08
1.88081e-07
3.39123e-08
1.84133e-07
3.00651e-08
1.80117e-07
2.68169e-08
1.76144e-07
2.40378e-08
1.72281e-07
2.1662e-08
1.68567e-07
1.96201e-08
1.65022e-07
1.7851e-08
1.61655e-07
1.63075e-08
1.58466e-07
1.4953e-08
1.55452e-07
1.3758e-08
1.52604e-07
1.26984e-08
1.49915e-07
1.17543e-08
1.47377e-07
1.09095e-08
1.44979e-07
1.015e-08
1.42713e-07
9.46438e-09
1.40571e-07
8.84284e-09
1.38545e-07
8.27707e-09
1.36626e-07
7.75992e-09
1.34809e-07
7.28524e-09
1.33087e-07
6.84767e-09
1.31455e-07
6.44257e-09
1.29906e-07
6.06577e-09
1.28438e-07
5.71367e-09
1.27044e-07
5.38294e-09
1.25723e-07
5.07061e-09
1.24471e-07
4.774e-09
1.23284e-07
4.4903e-09
1.22161e-07
4.21766e-09
1.211e-07
3.95257e-09
1.20099e-07
3.69495e-09
1.19158e-07
3.43861e-09
1.18275e-07
3.18802e-09
1.17452e-07
2.92967e-09
1.16688e-07
2.67933e-09
1.15984e-07
2.40603e-09
1.15342e-07
2.15102e-09
1.14765e-07
1.84701e-09
1.14252e-07
1.58238e-09
1.1381e-07
1.23719e-09
1.13447e-07
9.30071e-10
1.13153e-07
6.0131e-10
1.12959e-07
-2.24771e-11
1.12895e-07
1.04829e-11
-2.36903e-09
1.12401e-07
2.00848e-07
9.99706e-08
2.03775e-07
9.49293e-08
2.05325e-07
6.5639e-08
2.0564e-07
5.42931e-08
2.04812e-07
4.66055e-08
2.0333e-07
4.03371e-08
2.01383e-07
3.58601e-08
1.99054e-07
3.2394e-08
1.96449e-07
2.94212e-08
1.93673e-07
2.68146e-08
1.90804e-07
2.45307e-08
1.87904e-07
2.25203e-08
1.85016e-07
2.07383e-08
1.82174e-07
1.91501e-08
1.79398e-07
1.77286e-08
1.76704e-07
1.6452e-08
1.74101e-07
1.53017e-08
1.71593e-07
1.42619e-08
1.69183e-07
1.33191e-08
1.66872e-07
1.24615e-08
1.64657e-07
1.16789e-08
1.62538e-07
1.09626e-08
1.6051e-07
1.03049e-08
1.58571e-07
9.6989e-09
1.56717e-07
9.13864e-09
1.54946e-07
8.61879e-09
1.53254e-07
8.13465e-09
1.51638e-07
7.68193e-09
1.50095e-07
7.25683e-09
1.48622e-07
6.85582e-09
1.47217e-07
6.47568e-09
1.45877e-07
6.11348e-09
1.44602e-07
5.7661e-09
1.43388e-07
5.43143e-09
1.42235e-07
5.10554e-09
1.41142e-07
4.7882e-09
1.40108e-07
4.47255e-09
1.39133e-07
4.16317e-09
1.38217e-07
3.84537e-09
1.37361e-07
3.53561e-09
1.36566e-07
3.20097e-09
1.35833e-07
2.88386e-09
1.35165e-07
2.51525e-09
1.34565e-07
2.18215e-09
1.34032e-07
1.77018e-09
1.33582e-07
1.37973e-09
1.33201e-07
9.82939e-10
1.32908e-07
2.69709e-10
1.3275e-07
1.68838e-10
-1.82391e-09
1.32205e-07
2.06447e-07
9.3056e-08
2.09339e-07
9.20374e-08
2.11035e-07
6.39426e-08
2.11928e-07
5.34003e-08
2.11996e-07
4.65377e-08
2.11608e-07
4.07245e-08
2.10878e-07
3.65903e-08
2.09808e-07
3.34641e-08
2.08436e-07
3.07935e-08
2.0682e-07
2.84308e-08
2.05015e-07
2.63348e-08
2.03073e-07
2.44632e-08
2.01034e-07
2.27773e-08
1.98934e-07
2.12493e-08
1.96804e-07
1.98587e-08
1.94667e-07
1.85895e-08
1.9254e-07
1.74282e-08
1.90439e-07
1.63632e-08
1.88374e-07
1.53844e-08
1.86352e-07
1.44829e-08
1.8438e-07
1.36507e-08
1.82462e-07
1.28808e-08
1.80601e-07
1.21667e-08
1.78797e-07
1.15027e-08
1.77052e-07
1.08836e-08
1.75366e-07
1.03047e-08
1.73739e-07
9.76153e-09
1.72171e-07
9.25024e-09
1.7066e-07
8.76718e-09
1.69207e-07
8.30892e-09
1.67811e-07
7.87225e-09
1.6647e-07
7.45423e-09
1.65184e-07
7.05165e-09
1.63954e-07
6.6623e-09
1.62777e-07
6.28205e-09
1.61655e-07
5.91055e-09
1.60587e-07
5.54057e-09
1.59573e-07
5.17659e-09
1.58615e-07
4.80344e-09
1.57714e-07
4.43732e-09
1.56869e-07
4.04518e-09
1.56085e-07
3.6679e-09
1.55361e-07
3.23911e-09
1.54705e-07
2.8381e-09
1.54111e-07
2.36483e-09
1.53599e-07
1.892e-09
1.53152e-07
1.42982e-09
1.52779e-07
6.42645e-10
1.52538e-07
4.09903e-10
-1.25072e-09
1.51964e-07
2.12289e-07
8.64297e-08
2.15151e-07
8.91745e-08
2.16789e-07
6.23046e-08
2.1784e-07
5.23494e-08
2.18254e-07
4.61236e-08
2.18369e-07
4.06095e-08
2.18293e-07
3.6667e-08
2.17993e-07
3.37637e-08
2.17463e-07
3.13233e-08
2.16722e-07
2.91721e-08
2.15794e-07
2.72632e-08
2.14703e-07
2.55535e-08
2.13477e-07
2.40037e-08
2.1214e-07
2.25862e-08
2.10716e-07
2.12826e-08
2.09227e-07
2.0079e-08
2.0769e-07
1.89647e-08
2.06123e-07
1.79305e-08
2.04538e-07
1.69689e-08
2.02948e-07
1.60732e-08
2.01362e-07
1.52372e-08
1.99787e-07
1.44556e-08
1.9823e-07
1.37235e-08
1.96696e-07
1.30364e-08
1.9519e-07
1.23899e-08
1.93714e-07
1.17801e-08
1.92272e-07
1.12036e-08
1.90866e-07
1.06567e-08
1.89497e-07
1.01364e-08
1.88166e-07
9.63945e-09
1.86875e-07
9.16299e-09
1.85625e-07
8.70422e-09
1.84417e-07
8.26002e-09
1.83251e-07
7.82828e-09
1.82128e-07
7.4048e-09
1.8105e-07
6.98922e-09
1.80016e-07
6.57419e-09
1.79029e-07
6.16399e-09
1.78089e-07
5.74351e-09
1.77198e-07
5.32804e-09
1.76357e-07
4.88578e-09
1.75571e-07
4.45415e-09
1.74837e-07
3.97266e-09
1.74167e-07
3.50867e-09
1.7355e-07
2.9816e-09
1.73009e-07
2.43301e-09
1.72529e-07
1.90971e-09
1.72105e-07
1.06695e-09
1.71804e-07
7.1098e-10
-6.76587e-10
1.7123e-07
2.1833e-07
8.00806e-08
2.21205e-07
8.62991e-08
2.22762e-07
6.07476e-08
2.2384e-07
5.12717e-08
2.24363e-07
4.56001e-08
2.24656e-07
4.03167e-08
2.24855e-07
3.64678e-08
2.24934e-07
3.36853e-08
2.24869e-07
3.13878e-08
2.24662e-07
2.93793e-08
2.24317e-07
2.76084e-08
2.2384e-07
2.60302e-08
2.23241e-07
2.46029e-08
2.2253e-07
2.32965e-08
2.21722e-07
2.20911e-08
2.20828e-07
2.09727e-08
2.19862e-07
1.99307e-08
2.18836e-07
1.89566e-08
2.17762e-07
1.80436e-08
2.16649e-07
1.71859e-08
2.15507e-07
1.63787e-08
2.14345e-07
1.56175e-08
2.13171e-07
1.48984e-08
2.11989e-07
1.42176e-08
2.10807e-07
1.35719e-08
2.0963e-07
1.29579e-08
2.0846e-07
1.23728e-08
2.07303e-07
1.18137e-08
2.06162e-07
1.12777e-08
2.05039e-07
1.07623e-08
2.03938e-07
1.02647e-08
2.02859e-07
9.78253e-09
2.01806e-07
9.31283e-09
2.00781e-07
8.85364e-09
1.99785e-07
8.40086e-09
1.9882e-07
7.95415e-09
1.97888e-07
7.50625e-09
1.96991e-07
7.06115e-09
1.9613e-07
6.60423e-09
1.95309e-07
6.14944e-09
1.94527e-07
5.66722e-09
1.93791e-07
5.19027e-09
1.93098e-07
4.66599e-09
1.92459e-07
4.14769e-09
1.91864e-07
3.57612e-09
1.91334e-07
2.96295e-09
1.90859e-07
2.38499e-09
1.9042e-07
1.50598e-09
1.9009e-07
1.04117e-09
-1.30538e-10
1.89544e-07
2.24558e-07
7.40154e-08
2.27469e-07
8.33883e-08
2.28959e-07
5.92581e-08
2.30042e-07
5.01889e-08
2.30606e-07
4.50354e-08
2.30948e-07
3.99753e-08
2.31236e-07
3.61791e-08
2.31463e-07
3.34591e-08
2.31607e-07
3.12439e-08
2.31666e-07
2.93196e-08
2.31641e-07
2.76334e-08
2.3153e-07
2.61415e-08
2.31332e-07
2.48007e-08
2.3105e-07
2.35789e-08
2.30687e-07
2.24544e-08
2.30247e-07
2.14119e-08
2.29738e-07
2.04397e-08
2.29166e-07
1.95289e-08
2.28537e-07
1.86725e-08
2.27858e-07
1.78647e-08
2.27136e-07
1.71005e-08
2.26378e-07
1.6376e-08
2.25589e-07
1.56874e-08
2.24775e-07
1.50315e-08
2.23941e-07
1.44054e-08
2.23093e-07
1.38061e-08
2.22235e-07
1.32312e-08
2.21371e-07
1.2678e-08
2.20504e-07
1.21443e-08
2.19639e-07
1.16276e-08
2.18778e-07
1.11256e-08
2.17924e-07
1.0636e-08
2.17081e-07
1.01561e-08
2.1625e-07
9.68407e-09
2.15435e-07
9.21596e-09
2.14638e-07
8.75147e-09
2.13861e-07
8.28354e-09
2.13106e-07
7.8158e-09
2.12376e-07
7.33443e-09
2.11674e-07
6.85168e-09
2.11e-07
6.34099e-09
2.10361e-07
5.82951e-09
2.09753e-07
5.27365e-09
2.09189e-07
4.71211e-09
2.08658e-07
4.10638e-09
2.08179e-07
3.44269e-09
2.07745e-07
2.81856e-09
2.07329e-07
1.92178e-09
2.07004e-07
1.36662e-09
3.59601e-10
2.06514e-07
2.30979e-07
6.82422e-08
2.33934e-07
8.04337e-08
2.35364e-07
5.78279e-08
2.36453e-07
4.90999e-08
2.37051e-07
4.44372e-08
2.37408e-07
3.96187e-08
2.37718e-07
3.58688e-08
2.3799e-07
3.3187e-08
2.3821e-07
3.10245e-08
2.38378e-07
2.91508e-08
2.38499e-07
2.75131e-08
2.38569e-07
2.60713e-08
2.38586e-07
2.47831e-08
2.3855e-07
2.36155e-08
2.38459e-07
2.25457e-08
2.38313e-07
2.15575e-08
2.38114e-07
2.06384e-08
2.37864e-07
1.97788e-08
2.37566e-07
1.8971e-08
2.37222e-07
1.82086e-08
2.36836e-07
1.74866e-08
2.36411e-07
1.68006e-08
2.35952e-07
1.61467e-08
2.35462e-07
1.55218e-08
2.34944e-07
1.49229e-08
2.34403e-07
1.43472e-08
2.33842e-07
1.37923e-08
2.33264e-07
1.32558e-08
2.32673e-07
1.27353e-08
2.32072e-07
1.22288e-08
2.31464e-07
1.17338e-08
2.30852e-07
1.12484e-08
2.30238e-07
1.07699e-08
2.29625e-07
1.02965e-08
2.29017e-07
9.82455e-09
2.28415e-07
9.35358e-09
2.27821e-07
8.87683e-09
2.2724e-07
8.39744e-09
2.26671e-07
7.90263e-09
2.2612e-07
7.40272e-09
2.25587e-07
6.8745e-09
2.25077e-07
6.33933e-09
2.24588e-07
5.76282e-09
2.2413e-07
5.16978e-09
2.23696e-07
4.54013e-09
2.23298e-07
3.84082e-09
2.22937e-07
3.18017e-09
2.22577e-07
2.28168e-09
2.22287e-07
1.65652e-09
7.71254e-10
2.21875e-07
2.376e-07
6.27666e-08
2.40601e-07
7.74327e-08
2.41974e-07
5.64548e-08
2.43068e-07
4.8006e-08
2.43704e-07
4.38019e-08
2.44074e-07
3.92486e-08
2.44389e-07
3.55533e-08
2.44674e-07
3.29025e-08
2.44916e-07
3.07823e-08
2.45121e-07
2.89456e-08
2.45296e-07
2.73385e-08
2.45441e-07
2.59262e-08
2.45555e-07
2.46685e-08
2.45638e-07
2.35326e-08
2.45688e-07
2.24958e-08
2.45704e-07
2.15414e-08
2.45685e-07
2.06569e-08
2.45632e-07
1.9832e-08
2.45545e-07
1.90587e-08
2.45423e-07
1.83302e-08
2.45269e-07
1.7641e-08
2.45083e-07
1.69865e-08
2.44867e-07
1.63625e-08
2.44623e-07
1.57657e-08
2.44353e-07
1.51928e-08
2.44059e-07
1.46411e-08
2.43744e-07
1.4108e-08
2.43409e-07
1.35909e-08
2.43056e-07
1.30876e-08
2.42689e-07
1.2596e-08
2.42309e-07
1.21135e-08
2.41919e-07
1.16384e-08
2.41521e-07
1.11678e-08
2.41118e-07
1.07002e-08
2.4071e-07
1.02317e-08
2.40302e-07
9.76191e-09
2.39895e-07
9.28429e-09
2.39491e-07
8.80137e-09
2.39092e-07
8.30156e-09
2.38701e-07
7.79305e-09
2.3832e-07
7.25623e-09
2.37952e-07
6.70664e-09
2.37597e-07
6.11866e-09
2.37261e-07
5.50489e-09
2.36941e-07
4.8602e-09
2.36643e-07
4.13908e-09
2.36372e-07
3.45155e-09
2.3609e-07
2.56371e-09
2.35858e-07
1.88848e-09
1.09023e-09
2.35539e-07
2.4443e-07
5.75925e-08
2.47471e-07
7.43921e-08
2.48795e-07
5.51308e-08
2.49889e-07
4.6912e-08
2.50563e-07
4.31279e-08
2.5095e-07
3.88615e-08
2.5127e-07
3.52334e-08
2.5156e-07
3.26126e-08
2.5181e-07
3.05326e-08
2.52026e-07
2.87295e-08
2.52217e-07
2.7147e-08
2.52388e-07
2.57554e-08
2.52539e-07
2.45173e-08
2.52671e-07
2.3401e-08
2.52783e-07
2.23838e-08
2.52875e-07
2.14495e-08
2.52946e-07
2.05856e-08
2.52996e-07
1.9782e-08
2.53025e-07
1.90303e-08
2.53031e-07
1.83238e-08
2.53015e-07
1.76567e-08
2.52978e-07
1.7024e-08
2.52919e-07
1.64216e-08
2.52839e-07
1.58458e-08
2.52738e-07
1.52932e-08
2.52619e-07
1.47609e-08
2.52481e-07
1.4246e-08
2.52325e-07
1.37461e-08
2.52154e-07
1.32587e-08
2.51969e-07
1.27815e-08
2.5177e-07
1.23121e-08
2.5156e-07
1.18484e-08
2.5134e-07
1.13878e-08
2.51112e-07
1.09285e-08
2.50877e-07
1.04666e-08
2.50637e-07
1.00017e-08
2.50394e-07
9.52739e-09
2.5015e-07
9.04561e-09
2.49906e-07
8.54597e-09
2.49664e-07
8.03448e-09
2.49425e-07
7.49503e-09
2.49194e-07
6.93778e-09
2.48968e-07
6.3449e-09
2.48754e-07
5.71901e-09
2.48548e-07
5.06598e-09
2.48353e-07
4.33429e-09
2.48176e-07
3.62842e-09
2.4798e-07
2.75934e-09
2.47817e-07
2.05142e-09
1.31308e-09
2.47595e-07
2.51478e-07
5.27216e-08
2.54548e-07
7.13214e-08
2.55834e-07
5.38454e-08
2.56923e-07
4.58232e-08
2.57634e-07
4.24162e-08
2.58041e-07
3.84544e-08
2.58367e-07
3.49078e-08
2.58662e-07
3.23176e-08
2.58917e-07
3.02777e-08
2.59137e-07
2.8509e-08
2.59334e-07
2.69501e-08
2.59513e-07
2.55766e-08
2.59676e-07
2.43543e-08
2.59825e-07
2.32523e-08
2.5996e-07
2.22485e-08
2.60082e-07
2.13272e-08
2.60192e-07
2.04761e-08
2.60289e-07
1.96853e-08
2.60372e-07
1.89468e-08
2.60442e-07
1.82536e-08
2.60499e-07
1.76001e-08
2.60542e-07
1.69811e-08
2.60571e-07
1.63926e-08
2.60586e-07
1.58305e-08
2.60588e-07
1.52916e-08
2.60576e-07
1.47727e-08
2.60551e-07
1.4271e-08
2.60513e-07
1.37837e-08
2.60464e-07
1.33082e-08
2.60403e-07
1.28424e-08
2.60331e-07
1.23835e-08
2.6025e-07
1.19295e-08
2.60161e-07
1.14776e-08
2.60063e-07
1.1026e-08
2.59959e-07
1.05708e-08
2.59849e-07
1.01113e-08
2.59735e-07
9.6415e-09
2.59618e-07
9.16253e-09
2.59499e-07
8.66523e-09
2.5938e-07
8.15352e-09
2.5926e-07
7.61455e-09
2.59144e-07
7.05375e-09
2.5903e-07
6.45974e-09
2.58921e-07
5.82771e-09
2.58816e-07
5.17065e-09
2.58714e-07
4.43641e-09
2.58624e-07
3.71895e-09
2.5851e-07
2.87256e-09
2.58416e-07
2.1456e-09
1.44626e-09
2.58283e-07
2.58751e-07
4.8154e-08
2.61842e-07
6.82304e-08
2.63099e-07
5.2588e-08
2.64177e-07
4.47448e-08
2.64924e-07
4.16695e-08
2.65353e-07
3.80252e-08
2.65686e-07
3.45753e-08
2.65986e-07
3.2017e-08
2.66247e-07
3.00173e-08
2.66471e-07
2.82845e-08
2.66671e-07
2.67503e-08
2.66853e-07
2.53949e-08
2.67019e-07
2.41875e-08
2.67173e-07
2.30983e-08
2.67316e-07
2.21057e-08
2.67449e-07
2.11944e-08
2.67573e-07
2.03525e-08
2.67687e-07
1.95706e-08
2.67794e-07
1.88406e-08
2.67891e-07
1.81559e-08
2.67981e-07
1.75108e-08
2.68061e-07
1.69003e-08
2.68134e-07
1.63202e-08
2.68198e-07
1.57667e-08
2.68253e-07
1.52362e-08
2.683e-07
1.47258e-08
2.68339e-07
1.42323e-08
2.68369e-07
1.37532e-08
2.68392e-07
1.32857e-08
2.68406e-07
1.28274e-08
2.68414e-07
1.23757e-08
2.68415e-07
1.19285e-08
2.6841e-07
1.14828e-08
2.68399e-07
1.10368e-08
2.68384e-07
1.05867e-08
2.68363e-07
1.01313e-08
2.6834e-07
9.66526e-09
2.68313e-07
9.18876e-09
2.68285e-07
8.69392e-09
2.68256e-07
8.18267e-09
2.68225e-07
7.64508e-09
2.68196e-07
7.08265e-09
2.68167e-07
6.48904e-09
2.6814e-07
5.85442e-09
2.68115e-07
5.19554e-09
2.68088e-07
4.46366e-09
2.68068e-07
3.73942e-09
2.68024e-07
2.91619e-09
2.6799e-07
2.17979e-09
1.50357e-09
2.67932e-07
2.66258e-07
4.3888e-08
2.69359e-07
6.51298e-08
2.70599e-07
5.13481e-08
2.71662e-07
4.36812e-08
2.72441e-07
4.0891e-08
2.72894e-07
3.75722e-08
2.73234e-07
3.42353e-08
2.7354e-07
3.17108e-08
2.73806e-07
2.97511e-08
2.74035e-07
2.80558e-08
2.74237e-07
2.65477e-08
2.74421e-07
2.52109e-08
2.7459e-07
2.40186e-08
2.74747e-07
2.29421e-08
2.74892e-07
2.19603e-08
2.75028e-07
2.10582e-08
2.75156e-07
2.02244e-08
2.75277e-07
1.94497e-08
2.75391e-07
1.87264e-08
2.75499e-07
1.80479e-08
2.75601e-07
1.74087e-08
2.75698e-07
1.68039e-08
2.75789e-07
1.62293e-08
2.75874e-07
1.56811e-08
2.75955e-07
1.5156e-08
2.7603e-07
1.46507e-08
2.761e-07
1.41623e-08
2.76165e-07
1.36881e-08
2.76225e-07
1.32253e-08
2.76281e-07
1.27716e-08
2.76333e-07
1.23242e-08
2.7638e-07
1.1881e-08
2.76424e-07
1.1439e-08
2.76465e-07
1.09962e-08
2.76502e-07
1.05491e-08
2.76537e-07
1.00962e-08
2.7657e-07
9.63237e-09
2.76602e-07
9.15718e-09
2.76632e-07
8.66385e-09
2.76662e-07
8.15264e-09
2.76691e-07
7.61604e-09
2.76721e-07
7.05252e-09
2.76751e-07
6.45937e-09
2.76781e-07
5.82394e-09
2.76813e-07
5.16403e-09
2.76839e-07
4.43689e-09
2.7687e-07
3.70903e-09
2.76879e-07
2.90697e-09
2.76892e-07
2.16709e-09
1.50204e-09
2.76893e-07
2.74009e-07
3.99202e-08
2.77108e-07
6.20306e-08
2.78341e-07
5.01157e-08
2.79386e-07
4.26359e-08
2.80192e-07
4.00849e-08
2.8067e-07
3.7094e-08
2.81019e-07
3.38866e-08
2.81331e-07
3.13991e-08
2.81603e-07
2.94788e-08
2.81836e-07
2.78224e-08
2.82042e-07
2.63419e-08
2.82229e-07
2.50246e-08
2.82399e-07
2.38478e-08
2.82557e-07
2.27844e-08
2.82704e-07
2.18134e-08
2.82842e-07
2.09205e-08
2.82971e-07
2.00946e-08
2.83094e-07
1.93268e-08
2.83211e-07
1.86096e-08
2.83322e-07
1.79365e-08
2.83429e-07
1.73022e-08
2.83531e-07
1.67019e-08
2.83629e-07
1.61314e-08
2.83723e-07
1.55871e-08
2.83813e-07
1.50656e-08
2.839e-07
1.45637e-08
2.83984e-07
1.40786e-08
2.84064e-07
1.36073e-08
2.84142e-07
1.31474e-08
2.84218e-07
1.26962e-08
2.84291e-07
1.22512e-08
2.84362e-07
1.181e-08
2.84431e-07
1.13698e-08
2.84498e-07
1.09286e-08
2.84565e-07
1.04828e-08
2.8463e-07
1.00307e-08
2.84695e-07
9.5677e-09
2.84759e-07
9.09257e-09
2.84824e-07
8.59961e-09
2.84889e-07
8.08766e-09
2.84954e-07
7.55117e-09
2.8502e-07
6.98646e-09
2.85086e-07
6.39318e-09
2.85152e-07
5.75761e-09
2.85219e-07
5.09673e-09
2.85281e-07
4.37503e-09
2.85345e-07
3.6455e-09
2.85391e-07
2.86126e-09
2.85437e-07
2.12099e-09
1.45823e-09
2.8548e-07
2.82012e-07
3.62452e-08
2.85099e-07
5.89443e-08
2.86334e-07
4.8881e-08
2.87358e-07
4.16116e-08
2.88187e-07
3.92559e-08
2.88692e-07
3.65891e-08
2.8905e-07
3.35282e-08
2.89367e-07
3.10819e-08
2.89646e-07
2.92003e-08
2.89884e-07
2.75839e-08
2.90094e-07
2.61326e-08
2.90282e-07
2.48357e-08
2.90455e-07
2.3675e-08
2.90615e-07
2.2625e-08
2.90763e-07
2.16653e-08
2.90901e-07
2.07818e-08
2.91032e-07
1.99639e-08
2.91156e-07
1.9203e-08
2.91274e-07
1.84918e-08
2.91386e-07
1.78239e-08
2.91494e-07
1.71943e-08
2.91598e-07
1.65981e-08
2.91698e-07
1.60313e-08
2.91795e-07
1.54903e-08
2.91889e-07
1.49717e-08
2.9198e-07
1.44724e-08
2.92069e-07
1.39896e-08
2.92156e-07
1.35205e-08
2.92241e-07
1.30623e-08
2.92325e-07
1.26126e-08
2.92407e-07
1.21688e-08
2.92488e-07
1.17286e-08
2.92569e-07
1.12892e-08
2.92649e-07
1.08483e-08
2.9273e-07
1.04027e-08
2.9281e-07
9.95036e-09
2.92891e-07
9.48709e-09
2.92972e-07
9.01109e-09
2.93054e-07
8.51754e-09
2.93138e-07
8.0042e-09
2.93222e-07
7.46697e-09
2.93307e-07
6.90082e-09
2.93394e-07
6.30671e-09
2.9348e-07
5.67115e-09
2.93568e-07
5.00912e-09
2.9365e-07
4.29261e-09
2.93733e-07
3.56259e-09
2.93802e-07
2.79237e-09
2.9387e-07
2.05275e-09
1.38581e-09
2.93943e-07
2.90278e-07
3.2856e-08
2.9334e-07
5.58826e-08
2.94586e-07
4.76352e-08
2.95587e-07
4.06102e-08
2.96434e-07
3.84091e-08
2.96966e-07
3.60567e-08
2.97336e-07
3.31586e-08
2.97658e-07
3.07594e-08
2.97943e-07
2.89157e-08
2.98187e-07
2.73399e-08
2.984e-07
2.59196e-08
2.98592e-07
2.46441e-08
2.98767e-07
2.35e-08
2.98928e-07
2.24638e-08
2.99077e-07
2.15158e-08
2.99217e-07
2.0642e-08
2.99349e-07
1.98323e-08
2.99473e-07
1.90784e-08
2.99592e-07
1.83733e-08
2.99705e-07
1.77108e-08
2.99814e-07
1.70857e-08
2.99918e-07
1.64936e-08
3.00019e-07
1.59304e-08
3.00117e-07
1.53925e-08
3.00212e-07
1.48766e-08
3.00305e-07
1.43797e-08
3.00395e-07
1.38989e-08
3.00484e-07
1.34314e-08
3.00572e-07
1.29746e-08
3.00659e-07
1.2526e-08
3.00744e-07
1.20829e-08
3.0083e-07
1.16431e-08
3.00915e-07
1.12038e-08
3.01001e-07
1.07627e-08
3.01087e-07
1.03167e-08
3.01174e-07
9.8635e-09
3.01262e-07
9.39934e-09
3.01351e-07
8.92193e-09
3.01441e-07
8.42717e-09
3.01533e-07
7.91203e-09
3.01627e-07
7.37346e-09
3.01722e-07
6.80567e-09
3.01818e-07
6.2102e-09
3.01915e-07
5.57459e-09
3.02013e-07
4.91132e-09
3.02106e-07
4.1993e-09
3.02199e-07
3.46952e-09
3.02282e-07
2.70964e-09
3.02364e-07
1.97049e-09
1.29471e-09
3.02455e-07
2.98815e-07
2.97436e-08
3.0184e-07
5.28575e-08
3.03105e-07
4.63704e-08
3.04082e-07
3.96326e-08
3.04942e-07
3.75501e-08
3.05502e-07
3.54962e-08
3.05884e-07
3.27762e-08
3.06212e-07
3.04313e-08
3.06503e-07
2.86248e-08
3.06753e-07
2.70903e-08
3.0697e-07
2.57025e-08
3.07165e-07
2.44495e-08
3.07342e-07
2.33225e-08
3.07505e-07
2.23007e-08
3.07656e-07
2.13646e-08
3.07797e-07
2.05009e-08
3.0793e-07
1.96997e-08
3.08055e-07
1.8953e-08
3.08175e-07
1.82541e-08
3.08288e-07
1.7597e-08
3.08397e-07
1.69767e-08
3.08502e-07
1.63887e-08
3.08604e-07
1.5829e-08
3.08702e-07
1.52943e-08
3.08797e-07
1.47811e-08
3.08891e-07
1.42865e-08
3.08982e-07
1.38076e-08
3.09072e-07
1.33417e-08
3.0916e-07
1.28861e-08
3.09248e-07
1.24383e-08
3.09335e-07
1.19958e-08
3.09422e-07
1.15562e-08
3.09509e-07
1.11167e-08
3.09596e-07
1.06752e-08
3.09685e-07
1.02284e-08
3.09774e-07
9.77411e-09
3.09865e-07
9.30875e-09
3.09957e-07
8.82969e-09
3.10051e-07
8.33337e-09
3.10146e-07
7.81626e-09
3.10244e-07
7.27598e-09
3.10343e-07
6.7065e-09
3.10444e-07
6.10936e-09
3.10545e-07
5.47363e-09
3.10647e-07
4.80914e-09
3.10746e-07
4.1008e-09
3.10843e-07
3.37166e-09
3.10934e-07
2.61889e-09
3.11025e-07
1.87933e-09
1.19147e-09
3.11129e-07
3.07633e-07
2.68976e-08
3.1061e-07
4.98812e-08
3.119e-07
4.50799e-08
3.12854e-07
3.86786e-08
3.1372e-07
3.66841e-08
3.14308e-07
3.49082e-08
3.14705e-07
3.23796e-08
3.15039e-07
3.00975e-08
3.15335e-07
2.83279e-08
3.15591e-07
2.68347e-08
3.15813e-07
2.54809e-08
3.16011e-07
2.42516e-08
3.16191e-07
2.31425e-08
3.16356e-07
2.21354e-08
3.16509e-07
2.12117e-08
3.16651e-07
2.03583e-08
3.16785e-07
1.95658e-08
3.16912e-07
1.88266e-08
3.17032e-07
1.81341e-08
3.17146e-07
1.74826e-08
3.17256e-07
1.68671e-08
3.17361e-07
1.62833e-08
3.17463e-07
1.57273e-08
3.17561e-07
1.51957e-08
3.17657e-07
1.46853e-08
3.1775e-07
1.4193e-08
3.17842e-07
1.37161e-08
3.17932e-07
1.32517e-08
3.18021e-07
1.27973e-08
3.18109e-07
1.23503e-08
3.18196e-07
1.19083e-08
3.18284e-07
1.14687e-08
3.18371e-07
1.10291e-08
3.1846e-07
1.05869e-08
3.18549e-07
1.01394e-08
3.18639e-07
9.68386e-09
3.1873e-07
9.21716e-09
3.18824e-07
8.73637e-09
3.18919e-07
8.23834e-09
3.19016e-07
7.71925e-09
3.19115e-07
7.17709e-09
3.19215e-07
6.60594e-09
3.19318e-07
6.00704e-09
3.1942e-07
5.37109e-09
3.19524e-07
4.70555e-09
3.19624e-07
4.00007e-09
3.19724e-07
3.27177e-09
3.1982e-07
2.52342e-09
3.19917e-07
1.78221e-09
1.08009e-09
3.20028e-07
3.16743e-07
2.43059e-08
3.19659e-07
4.69656e-08
3.2098e-07
4.37583e-08
3.21911e-07
3.77473e-08
3.22779e-07
3.58164e-08
3.23394e-07
3.42935e-08
3.23806e-07
3.19671e-08
3.24146e-07
2.97576e-08
3.24449e-07
2.8025e-08
3.24711e-07
2.65728e-08
3.24937e-07
2.52545e-08
3.25139e-07
2.40502e-08
3.25322e-07
2.29597e-08
3.25489e-07
2.19678e-08
3.25644e-07
2.10569e-08
3.25788e-07
2.02141e-08
3.25924e-07
1.94306e-08
3.26051e-07
1.86991e-08
3.26172e-07
1.80132e-08
3.26287e-07
1.73674e-08
3.26397e-07
1.67569e-08
3.26503e-07
1.61774e-08
3.26605e-07
1.56252e-08
3.26704e-07
1.50968e-08
3.268e-07
1.45892e-08
3.26894e-07
1.40993e-08
3.26986e-07
1.36243e-08
3.27076e-07
1.31615e-08
3.27165e-07
1.27083e-08
3.27253e-07
1.22622e-08
3.27341e-07
1.18205e-08
3.27429e-07
1.13811e-08
3.27517e-07
1.09412e-08
3.27605e-07
1.04985e-08
3.27694e-07
1.00501e-08
3.27785e-07
9.59335e-09
3.27877e-07
9.12528e-09
3.2797e-07
8.64277e-09
3.28066e-07
8.14298e-09
3.28163e-07
7.62195e-09
3.28262e-07
7.07787e-09
3.28363e-07
6.50514e-09
3.28466e-07
5.9045e-09
3.28568e-07
5.26827e-09
3.28672e-07
4.60188e-09
3.28774e-07
3.89855e-09
3.28874e-07
3.1711e-09
3.28973e-07
2.42501e-09
3.29074e-07
1.68079e-09
9.63041e-10
3.29191e-07
3.26153e-07
2.19551e-08
3.28997e-07
4.41224e-08
3.30353e-07
4.24019e-08
3.31264e-07
3.68366e-08
3.32128e-07
3.49518e-08
3.32768e-07
3.36539e-08
3.33198e-07
3.15373e-08
3.33544e-07
2.94108e-08
3.33853e-07
2.77162e-08
3.34121e-07
2.63045e-08
3.34353e-07
2.50229e-08
3.34558e-07
2.38451e-08
3.34744e-07
2.27738e-08
3.34914e-07
2.17975e-08
3.35071e-07
2.08998e-08
3.35217e-07
2.00682e-08
3.35354e-07
1.92939e-08
3.35483e-07
1.85703e-08
3.35605e-07
1.78912e-08
3.35721e-07
1.72513e-08
3.35832e-07
1.66459e-08
3.35939e-07
1.60708e-08
3.36041e-07
1.55225e-08
3.36141e-07
1.49974e-08
3.36237e-07
1.44927e-08
3.36331e-07
1.40052e-08
3.36423e-07
1.35322e-08
3.36514e-07
1.30711e-08
3.36603e-07
1.26191e-08
3.36691e-07
1.21738e-08
3.36779e-07