/*--------------------------------*- C++ -*----------------------------------*\
  =========                 |
  \\      /  F ield         | OpenFOAM: The Open Source CFD Toolbox
   \\    /   O peration     | Website:  https://openfoam.org
    \\  /    A nd           | Version:  7
     \\/     M anipulation  |
\*---------------------------------------------------------------------------*/
FoamFile
{
    version     2.0;
    format      ascii;
    class       volVectorField;
    location    "0.22";
    object      U;
}
// * * * * * * * * * * * * * * * * * * * * * * * * * * * * * * * * * * * * * //

dimensions      [0 1 -1 0 0 0 0];

internalField   nonuniform List<vector> 
70000
(
(0.55339 0.0167231 0)
(0.251259 0.00340104 0)
(0.166197 0.000322026 0)
(0.132449 5.42937e-05 0)
(0.117258 4.57267e-05 0)
(0.107335 5.38959e-05 0)
(0.0993888 4.62575e-05 0)
(0.0929521 3.69138e-05 0)
(0.0877119 3.05955e-05 0)
(0.0833481 2.62639e-05 0)
(0.0796325 2.29606e-05 0)
(0.0764171 2.03122e-05 0)
(0.0736008 1.8149e-05 0)
(0.0711095 1.63578e-05 0)
(0.0688873 1.48545e-05 0)
(0.066891 1.35768e-05 0)
(0.0650863 1.24784e-05 0)
(0.0634463 1.15246e-05 0)
(0.0619488 1.06885e-05 0)
(0.0605759 9.94945e-06 0)
(0.0593127 9.29088e-06 0)
(0.0581469 8.69972e-06 0)
(0.0570679 8.16501e-06 0)
(0.056067 7.67795e-06 0)
(0.0551367 7.23061e-06 0)
(0.0542708 6.81713e-06 0)
(0.0534638 6.43101e-06 0)
(0.0527111 6.06877e-06 0)
(0.0520089 5.72405e-06 0)
(0.0513538 5.39635e-06 0)
(0.0507432 5.07724e-06 0)
(0.0501745 4.77148e-06 0)
(0.0496463 4.46511e-06 0)
(0.0491567 4.17139e-06 0)
(0.048705 3.86892e-06 0)
(0.0482902 3.57775e-06 0)
(0.0479116 3.2804e-06 0)
(0.0475706 2.97207e-06 0)
(0.0472631 2.7128e-06 0)
(0.0469991 2.32409e-06 0)
(0.0467598 2.24062e-06 0)
(0.0465826 1.54801e-06 0)
(0.0464014 2.10098e-06 0)
(0.0463366 3.13715e-07 0)
(0.0461791 2.93593e-06 0)
(0.0462914 -2.13881e-06 0)
(0.0460591 7.32254e-06 0)
(0.0464844 -9.37296e-06 0)
(0.0461751 3.31444e-05 0)
(0.0432653 -0.00171416 0)
(0.884899 0.0431675 0)
(0.649712 0.0201943 0)
(0.494312 0.00659859 0)
(0.403653 0.00276779 0)
(0.354729 0.00155209 0)
(0.32343 0.0011316 0)
(0.299577 0.000910316 0)
(0.28039 0.000746332 0)
(0.264689 0.000623405 0)
(0.251581 0.000532572 0)
(0.240417 0.000463588 0)
(0.230755 0.000409265 0)
(0.22229 0.000365324 0)
(0.214798 0.000329102 0)
(0.208113 0.000298787 0)
(0.202105 0.000273084 0)
(0.196671 0.000251038 0)
(0.191731 0.000231935 0)
(0.187218 0.000215229 0)
(0.183079 0.000200495 0)
(0.179268 0.000187399 0)
(0.175749 0.000175671 0)
(0.17249 0.000165093 0)
(0.169465 0.000155484 0)
(0.166651 0.00014669 0)
(0.164029 0.000138583 0)
(0.161583 0.000131052 0)
(0.1593 0.000124 0)
(0.157166 0.000117338 0)
(0.155173 0.000110993 0)
(0.153311 0.000104883 0)
(0.151574 9.8958e-05 0)
(0.149957 9.31214e-05 0)
(0.148453 8.7362e-05 0)
(0.147061 8.15348e-05 0)
(0.145778 7.57041e-05 0)
(0.144601 6.96219e-05 0)
(0.143536 6.34891e-05 0)
(0.14257 5.69001e-05 0)
(0.141732 5.02052e-05 0)
(0.140973 4.29626e-05 0)
(0.140393 3.52671e-05 0)
(0.13982 2.77157e-05 0)
(0.139576 1.77506e-05 0)
(0.139115 1.2219e-05 0)
(0.139388 -4.92583e-06 0)
(0.138819 5.38075e-06 0)
(0.139954 -6.70223e-05 0)
(0.139296 0.000215467 0)
(0.137382 -0.00287873 0)
(0.991237 0.0499017 0)
(0.890345 0.0307195 0)
(0.762675 0.0145985 0)
(0.656662 0.00798023 0)
(0.585338 0.00488515 0)
(0.53594 0.00347113 0)
(0.498084 0.0027354 0)
(0.467478 0.0022429 0)
(0.442179 0.00187957 0)
(0.420887 0.00160776 0)
(0.402656 0.00140007 0)
(0.386818 0.0012365 0)
(0.372898 0.00110427 0)
(0.360548 0.000995283 0)
(0.349502 0.000904046 0)
(0.339556 0.000826665 0)
(0.330545 0.000760281 0)
(0.32234 0.000702751 0)
(0.314835 0.000652438 0)
(0.307942 0.000608071 0)
(0.301589 0.000568645 0)
(0.295715 0.000533352 0)
(0.290269 0.000501536 0)
(0.285208 0.000472653 0)
(0.280495 0.000446248 0)
(0.276098 0.000421936 0)
(0.271991 0.000399384 0)
(0.268151 0.000378303 0)
(0.264557 0.000358432 0)
(0.261194 0.000339545 0)
(0.258046 0.000321413 0)
(0.255102 0.000303861 0)
(0.252352 0.000286639 0)
(0.249787 0.000269656 0)
(0.247404 0.000252544 0)
(0.245196 0.000235412 0)
(0.24316 0.000217563 0)
(0.241301 0.000199598 0)
(0.239604 0.000180058 0)
(0.238107 0.000160604 0)
(0.236743 0.000138308 0)
(0.235655 0.000116691 0)
(0.234599 9.0768e-05 0)
(0.234033 6.57303e-05 0)
(0.233189 3.75113e-05 0)
(0.23341 2.10663e-06 0)
(0.232505 -6.89958e-06 0)
(0.233981 -0.00015196 0)
(0.232933 0.000215489 0)
(0.233474 -0.00297825 0)
(1.0156 0.0489207 0)
(1.00596 0.0358761 0)
(0.935943 0.0207932 0)
(0.852109 0.0135055 0)
(0.782169 0.00920839 0)
(0.726977 0.00678114 0)
(0.681908 0.00538284 0)
(0.644169 0.00444325 0)
(0.612171 0.00374915 0)
(0.584727 0.00322294 0)
(0.5609 0.00281619 0)
(0.539983 0.00249369 0)
(0.521448 0.00223187 0)
(0.504894 0.00201531 0)
(0.490005 0.00183349 0)
(0.476535 0.00167889 0)
(0.464284 0.00154598 0)
(0.453089 0.00143059 0)
(0.442817 0.00132953 0)
(0.433357 0.00124031 0)
(0.424616 0.00116095 0)
(0.416516 0.00108986 0)
(0.408991 0.00102575 0)
(0.401983 0.000967545 0)
(0.395445 0.000914344 0)
(0.389334 0.000865383 0)
(0.383614 0.000820006 0)
(0.378256 0.000777637 0)
(0.373231 0.000737767 0)
(0.368518 0.00069994 0)
(0.364096 0.000663717 0)
(0.359949 0.000628733 0)
(0.356064 0.000594528 0)
(0.352429 0.000560877 0)
(0.349035 0.000527112 0)
(0.345876 0.000493376 0)
(0.342946 0.000458348 0)
(0.34025 0.000423178 0)
(0.337768 0.000384861 0)
(0.335547 0.000347048 0)
(0.333505 0.000302856 0)
(0.331811 0.000261519 0)
(0.330183 0.000208195 0)
(0.329146 0.000162608 0)
(0.327834 9.80461e-05 0)
(0.327748 4.09214e-05 0)
(0.326485 -9.15938e-06 0)
(0.327846 -0.000215847 0)
(0.326484 0.000111206 0)
(0.328104 -0.00275318 0)
(1.01434 0.0460043 0)
(1.04753 0.03749 0)
(1.02457 0.0241537 0)
(0.974742 0.017561 0)
(0.923425 0.0131231 0)
(0.876656 0.0102056 0)
(0.834505 0.00834093 0)
(0.796777 0.0070189 0)
(0.763239 0.00600824 0)
(0.733454 0.00521989 0)
(0.706908 0.0045969 0)
(0.683132 0.00409507 0)
(0.661725 0.0036829 0)
(0.642358 0.00333885 0)
(0.624754 0.00304782 0)
(0.608685 0.00279883 0)
(0.593959 0.00258365 0)
(0.580414 0.00239602 0)
(0.567916 0.00223107 0)
(0.556348 0.00208498 0)
(0.545612 0.00195469 0)
(0.535623 0.00183772 0)
(0.52631 0.00173204 0)
(0.517608 0.00163595 0)
(0.509463 0.00154804 0)
(0.501829 0.00146708 0)
(0.494664 0.00139202 0)
(0.487932 0.00132196 0)
(0.481603 0.00125607 0)
(0.475649 0.00119361 0)
(0.470048 0.00113391 0)
(0.464778 0.00107634 0)
(0.459826 0.00102021 0)
(0.455174 0.000965107 0)
(0.450814 0.000910018 0)
(0.446736 0.000855097 0)
(0.442933 0.000798309 0)
(0.439408 0.000741391 0)
(0.436142 0.000679579 0)
(0.433178 0.000618739 0)
(0.430437 0.000547484 0)
(0.428083 0.00048147 0)
(0.425843 0.000394708 0)
(0.424229 0.000323021 0)
(0.422404 0.000215102 0)
(0.421807 0.000128132 0)
(0.420184 2.93338e-05 0)
(0.421028 -0.000238341 0)
(0.419536 9.60218e-06 0)
(0.420893 -0.00250697 0)
(1.00933 0.0429157 0)
(1.05527 0.0372655 0)
(1.05868 0.0252985 0)
(1.03636 0.0197612 0)
(1.00708 0.0158125 0)
(0.976026 0.0129354 0)
(0.944504 0.0109576 0)
(0.91365 0.00947416 0)
(0.884315 0.00828251 0)
(0.856883 0.00731344 0)
(0.831433 0.006522 0)
(0.807903 0.00586801 0)
(0.786171 0.00532003 0)
(0.766096 0.0048552 0)
(0.74753 0.00445679 0)
(0.730335 0.00411216 0)
(0.714381 0.00381156 0)
(0.699551 0.00354737 0)
(0.685739 0.00331354 0)
(0.672851 0.00310524 0)
(0.660804 0.00291853 0)
(0.649525 0.00275018 0)
(0.638946 0.00259751 0)
(0.629012 0.00245825 0)
(0.619669 0.00233049 0)
(0.610873 0.00221257 0)
(0.602584 0.00210308 0)
(0.594766 0.00200073 0)
(0.587388 0.00190442 0)
(0.580423 0.00181311 0)
(0.573847 0.00172584 0)
(0.567638 0.00164176 0)
(0.56178 0.00155989 0)
(0.556258 0.00147963 0)
(0.551059 0.0013996 0)
(0.546174 0.00131994 0)
(0.541595 0.00123789 0)
(0.537324 0.00115571 0)
(0.533341 0.00106694 0)
(0.529686 0.000979443 0)
(0.526289 0.000877673 0)
(0.523294 0.000782913 0)
(0.520463 0.000659454 0)
(0.518242 0.000556269 0)
(0.515915 0.000403069 0)
(0.514703 0.000277129 0)
(0.51274 0.000128301 0)
(0.512844 -0.000205454 0)
(0.511279 -4.09269e-05 0)
(0.511884 -0.00222675 0)
(1.00625 0.0400343 0)
(1.05206 0.0363383 0)
(1.06608 0.025228 0)
(1.05959 0.0205614 0)
(1.04685 0.0172397 0)
(1.03077 0.0146554 0)
(1.01187 0.0128171 0)
(0.991189 0.0113901 0)
(0.969789 0.0101916 0)
(0.948402 0.009174 0)
(0.927472 0.00831168 0)
(0.907261 0.00757669 0)
(0.887917 0.00694457 0)
(0.869507 0.00639645 0)
(0.852053 0.00591779 0)
(0.835542 0.00549712 0)
(0.819943 0.00512517 0)
(0.805213 0.0047944 0)
(0.791306 0.00449865 0)
(0.778174 0.00423282 0)
(0.765768 0.00399267 0)
(0.754042 0.00377464 0)
(0.742952 0.00357571 0)
(0.732458 0.00339328 0)
(0.72252 0.00322514 0)
(0.713104 0.00306932 0)
(0.704179 0.00292412 0)
(0.695716 0.002788 0)
(0.687688 0.00265959 0)
(0.680073 0.00253763 0)
(0.67285 0.00242091 0)
(0.666 0.00230836 0)
(0.659508 0.00219875 0)
(0.653361 0.00209131 0)
(0.647548 0.0019843 0)
(0.642059 0.00187781 0)
(0.636888 0.00176846 0)
(0.632035 0.00165885 0)
(0.627486 0.00154115 0)
(0.62327 0.00142461 0)
(0.619334 0.00129057 0)
(0.615793 0.00116412 0)
(0.61246 0.001003 0)
(0.609689 0.000863711 0)
(0.606923 0.000666581 0)
(0.605106 0.000493674 0)
(0.602837 0.000298226 0)
(0.602181 -0.000103536 0)
(0.600486 -3.03039e-05 0)
(0.600326 -0.00189391 0)
(1.00495 0.0373564 0)
(1.04727 0.0352563 0)
(1.06397 0.0246883 0)
(1.06424 0.0205881 0)
(1.06066 0.0177779 0)
(1.05472 0.0154984 0)
(1.04596 0.0138747 0)
(1.03477 0.0126121 0)
(1.02186 0.0115241 0)
(1.00784 0.0105691 0)
(0.993172 0.00973383 0)
(0.978206 0.0090008 0)
(0.963209 0.00835321 0)
(0.948374 0.00777789 0)
(0.933838 0.00726451 0)
(0.919694 0.00680461 0)
(0.906001 0.00639102 0)
(0.892794 0.00601767 0)
(0.880091 0.00567936 0)
(0.867896 0.00537167 0)
(0.856207 0.00509074 0)
(0.845013 0.00483327 0)
(0.834303 0.00459634 0)
(0.82406 0.00437741 0)
(0.814267 0.00417423 0)
(0.804908 0.00398478 0)
(0.795966 0.00380728 0)
(0.787424 0.00364005 0)
(0.779266 0.00348163 0)
(0.771478 0.00333059 0)
(0.764047 0.00318559 0)
(0.756959 0.0030454 0)
(0.750206 0.0029086 0)
(0.743776 0.00277427 0)
(0.737664 0.00264041 0)
(0.731862 0.00250701 0)
(0.726367 0.00237024 0)
(0.721178 0.00223282 0)
(0.716288 0.00208598 0)
(0.711718 0.00193969 0)
(0.707432 0.0017734 0)
(0.703515 0.00161388 0)
(0.699834 0.00141604 0)
(0.69665 0.00123779 0)
(0.693561 0.000999707 0)
(0.691251 0.000775189 0)
(0.688735 0.0005361 0)
(0.687435 7.10307e-05 0)
(0.685567 4.88559e-05 0)
(0.684762 -0.00151499 0)
(1.0044 0.0348085 0)
(1.04324 0.0341833 0)
(1.05993 0.0240476 0)
(1.06228 0.0202947 0)
(1.06248 0.0178422 0)
(1.06178 0.01578 0)
(1.0592 0.0143295 0)
(1.05465 0.013232 0)
(1.04844 0.012286 0)
(1.04087 0.0114427 0)
(1.03224 0.0106913 0)
(1.02279 0.0100186 0)
(1.01277 0.00941151 0)
(1.00236 0.00886062 0)
(0.991728 0.00835892 0)
(0.981008 0.00790078 0)
(0.970302 0.00748141 0)
(0.959692 0.00709661 0)
(0.949239 0.00674267 0)
(0.938989 0.00641631 0)
(0.928976 0.00611459 0)
(0.919223 0.00583488 0)
(0.909747 0.00557477 0)
(0.900559 0.0053321 0)
(0.891665 0.00510488 0)
(0.883067 0.0048913 0)
(0.874765 0.00468968 0)
(0.866758 0.00449845 0)
(0.859043 0.00431615 0)
(0.851617 0.00414135 0)
(0.844476 0.00397269 0)
(0.837616 0.00380887 0)
(0.831035 0.00364838 0)
(0.824728 0.00349021 0)
(0.818696 0.00333218 0)
(0.812934 0.00317422 0)
(0.807444 0.00301215 0)
(0.802227 0.0028487 0)
(0.797282 0.00267458 0)
(0.792625 0.00249981 0)
(0.788234 0.00230321 0)
(0.784173 0.00211125 0)
(0.78035 0.00187933 0)
(0.776952 0.00166174 0)
(0.773706 0.00138654 0)
(0.771083 0.00110998 0)
(0.768424 0.000829441 0)
(0.766665 0.000310785 0)
(0.764648 0.000193712 0)
(0.763362 -0.0011068 0)
(1.00402 0.0323684 0)
(1.03991 0.0331334 0)
(1.05616 0.0234247 0)
(1.05892 0.0199068 0)
(1.06021 0.0177123 0)
(1.06155 0.0157847 0)
(1.06192 0.0144352 0)
(1.06102 0.0134525 0)
(1.05896 0.0126222 0)
(1.05584 0.0118844 0)
(1.05175 0.0112257 0)
(1.04681 0.0106323 0)
(1.04115 0.0100915 0)
(1.03489 0.00959434 0)
(1.02815 0.00913493 0)
(1.02105 0.00870904 0)
(1.01367 0.00831325 0)
(1.00611 0.00794469 0)
(0.998429 0.00760084 0)
(0.990697 0.00727945 0)
(0.982963 0.00697848 0)
(0.975269 0.00669604 0)
(0.967648 0.00643039 0)
(0.960128 0.00617986 0)
(0.952732 0.00594291 0)
(0.945479 0.00571804 0)
(0.938383 0.00550387 0)
(0.931454 0.005299 0)
(0.924704 0.00510216 0)
(0.918138 0.00491201 0)
(0.911764 0.00472726 0)
(0.905585 0.00454666 0)
(0.899606 0.00436869 0)
(0.893832 0.00419231 0)
(0.888266 0.00401527 0)
(0.882912 0.00383743 0)
(0.877775 0.00365445 0)
(0.872859 0.00346895 0)
(0.868169 0.00327146 0)
(0.863719 0.00307158 0)
(0.859498 0.00284851 0)
(0.855554 0.0026269 0)
(0.851828 0.00236511 0)
(0.848452 0.00211043 0)
(0.845246 0.0018028 0)
(0.842527 0.00147759 0)
(0.839872 0.00115804 0)
(0.837868 0.00059881 0)
(0.835792 0.000391474 0)
(0.834212 -0.000688598 0)
(1.00364 0.0300281 0)
(1.03692 0.032086 0)
(1.05281 0.0228352 0)
(1.05568 0.0195019 0)
(1.05711 0.0175207 0)
(1.05901 0.015685 0)
(1.06044 0.0143829 0)
(1.06113 0.0134631 0)
(1.06113 0.0127062 0)
(1.06048 0.0120424 0)
(1.05918 0.0114557 0)
(1.05723 0.010931 0)
(1.05468 0.010454 0)
(1.05158 0.0100146 0)
(1.04798 0.00960652 0)
(1.04395 0.00922539 0)
(1.03955 0.008868 0)
(1.03484 0.00853184 0)
(1.02987 0.00821487 0)
(1.0247 0.00791536 0)
(1.01938 0.00763178 0)
(1.01394 0.00736274 0)
(1.00842 0.00710696 0)
(1.00285 0.00686321 0)
(0.997271 0.0066303 0)
(0.991699 0.00640707 0)
(0.986158 0.0061924 0)
(0.980667 0.00598515 0)
(0.975242 0.00578421 0)
(0.969898 0.00558844 0)
(0.964648 0.00539664 0)
(0.959503 0.00520766 0)
(0.954474 0.00502002 0)
(0.949569 0.00483273 0)
(0.944799 0.0046435 0)
(0.940171 0.00445216 0)
(0.935693 0.00425435 0)
(0.931376 0.00405245 0)
(0.927226 0.00383717 0)
(0.923257 0.00361731 0)
(0.919468 0.00337317 0)
(0.915894 0.00312659 0)
(0.912501 0.00284054 0)
(0.90938 0.00255334 0)
(0.906421 0.00221886 0)
(0.903825 0.00185143 0)
(0.90134 0.00149632 0)
(0.899309 0.000910426 0)
(0.897298 0.000622448 0)
(0.89562 -0.000280612 0)
(1.00327 0.0277884 0)
(1.03409 0.0310274 0)
(1.0497 0.0222722 0)
(1.05271 0.019095 0)
(1.05411 0.0173102 0)
(1.05606 0.0155562 0)
(1.05777 0.014276 0)
(1.05898 0.0133864 0)
(1.05979 0.01267 0)
(1.06025 0.0120494 0)
(1.06033 0.0115076 0)
(1.06003 0.0110292 0)
(1.05932 0.0105988 0)
(1.05822 0.0102054 0)
(1.05674 0.00984139 0)
(1.05489 0.00950188 0)
(1.05272 0.00918316 0)
(1.05024 0.00888243 0)
(1.04748 0.00859753 0)
(1.04448 0.00832671 0)
(1.04127 0.00806852 0)
(1.03787 0.00782171 0)
(1.03433 0.00758515 0)
(1.03065 0.0073578 0)
(1.02688 0.00713865 0)
(1.02302 0.00692674 0)
(1.01911 0.00672111 0)
(1.01517 0.00652078 0)
(1.0112 0.0063248 0)
(1.00723 0.00613212 0)
(1.00328 0.00594167 0)
(0.999353 0.00575238 0)
(0.995467 0.00556281 0)
(0.991633 0.00537202 0)
(0.987865 0.00517774 0)
(0.984172 0.00497976 0)
(0.980565 0.00477376 0)
(0.977057 0.00456186 0)
(0.973655 0.00433513 0)
(0.970375 0.00410132 0)
(0.967219 0.00384238 0)
(0.964216 0.0035767 0)
(0.961348 0.00327281 0)
(0.958677 0.0029593 0)
(0.956141 0.00260416 0)
(0.95386 0.00220304 0)
(0.951697 0.00181724 0)
(0.949835 0.00121785 0)
(0.948021 0.000862195 0)
(0.946425 9.71564e-05 0)
(1.00292 0.0256527 0)
(1.03138 0.0299532 0)
(1.0467 0.0217313 0)
(1.04992 0.0186861 0)
(1.0513 0.0170877 0)
(1.05321 0.0154202 0)
(1.05495 0.0141555 0)
(1.05628 0.0132814 0)
(1.05732 0.0125879 0)
(1.05817 0.0119912 0)
(1.05881 0.0114737 0)
(1.05924 0.0110218 0)
(1.05944 0.0106198 0)
(1.0594 0.0102561 0)
(1.05911 0.00992253 0)
(1.05859 0.00961357 0)
(1.05782 0.00932502 0)
(1.05682 0.00905365 0)
(1.0556 0.00879694 0)
(1.05417 0.00855287 0)
(1.05255 0.00831981 0)
(1.05075 0.00809637 0)
(1.04878 0.00788135 0)
(1.04667 0.00767366 0)
(1.04443 0.00747232 0)
(1.04207 0.00727636 0)
(1.03962 0.00708487 0)
(1.03709 0.0068969 0)
(1.03449 0.00671154 0)
(1.03184 0.0065278 0)
(1.02915 0.00634462 0)
(1.02644 0.006161 0)
(1.02372 0.0059755 0)
(1.02099 0.00578721 0)
(1.01828 0.00559384 0)
(1.01559 0.00539515 0)
(1.01293 0.00518689 0)
(1.01032 0.00497086 0)
(1.00776 0.00473863 0)
(1.00527 0.00449675 0)
(1.00286 0.00422915 0)
(1.00054 0.00395044 0)
(0.998316 0.00363508 0)
(0.996218 0.00330212 0)
(0.99422 0.00293247 0)
(0.992388 0.00250705 0)
(0.990654 0.00209642 0)
(0.989106 0.00149499 0)
(0.987599 0.0010864 0)
(0.986225 0.00042554 0)
(1.0026 0.0236237 0)
(1.02879 0.0288619 0)
(1.04378 0.0212113 0)
(1.04723 0.018275 0)
(1.04861 0.0168516 0)
(1.05049 0.0152798 0)
(1.05222 0.0140324 0)
(1.05356 0.0131691 0)
(1.05464 0.0124919 0)
(1.05558 0.0119102 0)
(1.05639 0.0114063 0)
(1.05709 0.0109685 0)
(1.05765 0.010582 0)
(1.05807 0.0102351 0)
(1.05836 0.00991948 0)
(1.0585 0.00962943 0)
(1.0585 0.00936051 0)
(1.05834 0.0091092 0)
(1.05804 0.00887272 0)
(1.05759 0.00864879 0)
(1.05699 0.00843554 0)
(1.05626 0.00823139 0)
(1.05539 0.00803497 0)
(1.0544 0.00784506 0)
(1.05329 0.00766056 0)
(1.05208 0.00748042 0)
(1.05076 0.00730366 0)
(1.04936 0.00712928 0)
(1.04787 0.00695631 0)
(1.04632 0.00678374 0)
(1.04471 0.00661049 0)
(1.04305 0.00643552 0)
(1.04135 0.00625737 0)
(1.03962 0.00607511 0)
(1.03787 0.00588642 0)
(1.03611 0.00569098 0)
(1.03435 0.00548464 0)
(1.0326 0.00526879 0)
(1.03087 0.00503566 0)
(1.02917 0.00479042 0)
(1.0275 0.00451919 0)
(1.02589 0.00423274 0)
(1.02432 0.00391133 0)
(1.02284 0.0035654 0)
(1.02141 0.00318666 0)
(1.02009 0.00274586 0)
(1.01883 0.0023165 0)
(1.01768 0.001722 0)
(1.01654 0.00127518 0)
(1.01547 0.000690045 0)
(1.0023 0.0217031 0)
(1.02634 0.0277546 0)
(1.04095 0.0207107 0)
(1.04463 0.0178634 0)
(1.04603 0.0166008 0)
(1.04787 0.0151332 0)
(1.0496 0.0139078 0)
(1.05093 0.0130545 0)
(1.05201 0.0123919 0)
(1.05295 0.0118226 0)
(1.05379 0.0113282 0)
(1.05455 0.0108988 0)
(1.05522 0.010521 0)
(1.05581 0.0101833 0)
(1.05632 0.00987752 0)
(1.05675 0.009598 0)
(1.05709 0.00934031 0)
(1.05735 0.00910091 0)
(1.05751 0.00887689 0)
(1.05758 0.00866585 0)
(1.05756 0.00846579 0)
(1.05745 0.00827499 0)
(1.05725 0.00809193 0)
(1.05696 0.00791527 0)
(1.05658 0.0077438 0)
(1.05612 0.00757634 0)
(1.05558 0.00741182 0)
(1.05497 0.00724914 0)
(1.05429 0.00708726 0)
(1.05354 0.00692509 0)
(1.05274 0.00676147 0)
(1.05188 0.00659532 0)
(1.05098 0.0064251 0)
(1.05004 0.00624984 0)
(1.04907 0.00606719 0)
(1.04808 0.00587666 0)
(1.04707 0.00567426 0)
(1.04605 0.00546093 0)
(1.04502 0.00522957 0)
(1.04401 0.00498397 0)
(1.043 0.00471242 0)
(1.04202 0.00442208 0)
(1.04106 0.00409847 0)
(1.04013 0.00374482 0)
(1.03925 0.00336107 0)
(1.03841 0.00291239 0)
(1.03762 0.0024698 0)
(1.03687 0.00188834 0)
(1.03611 0.0014163 0)
(1.03538 0.000884223 0)
(1.00203 0.0198919 0)
(1.02402 0.0266342 0)
(1.03821 0.0202263 0)
(1.0421 0.017453 0)
(1.04353 0.0163353 0)
(1.04534 0.0149793 0)
(1.04707 0.0137813 0)
(1.0484 0.012938 0)
(1.04946 0.0122899 0)
(1.05039 0.0117329 0)
(1.05123 0.0112469 0)
(1.05199 0.0108242 0)
(1.05268 0.0104524 0)
(1.05331 0.0101204 0)
(1.05389 0.00982043 0)
(1.05441 0.0095468 0)
(1.05488 0.0092953 0)
(1.0553 0.00906245 0)
(1.05566 0.0088454 0)
(1.05597 0.00864173 0)
(1.05623 0.00844941 0)
(1.05643 0.00826665 0)
(1.05658 0.00809189 0)
(1.05667 0.00792372 0)
(1.0567 0.00776083 0)
(1.05668 0.00760199 0)
(1.05661 0.00744603 0)
(1.05648 0.00729179 0)
(1.0563 0.00713811 0)
(1.05608 0.00698387 0)
(1.05581 0.00682781 0)
(1.0555 0.00666879 0)
(1.05515 0.0065052 0)
(1.05477 0.006336 0)
(1.05436 0.00615881 0)
(1.05393 0.00597298 0)
(1.05347 0.00577469 0)
(1.053 0.00556436 0)
(1.05252 0.00533563 0)
(1.05204 0.00509092 0)
(1.05155 0.00482062 0)
(1.05107 0.00452859 0)
(1.0506 0.00420491 0)
(1.05015 0.00384718 0)
(1.04971 0.00346101 0)
(1.04929 0.00300984 0)
(1.04889 0.00255856 0)
(1.0485 0.00199321 0)
(1.04808 0.00150624 0)
(1.04767 0.00100995 0)
(1.00179 0.01819 0)
(1.02183 0.0255046 0)
(1.03558 0.0197542 0)
(1.03967 0.0170458 0)
(1.04112 0.0160558 0)
(1.0429 0.0148171 0)
(1.04463 0.0136522 0)
(1.04596 0.0128193 0)
(1.04702 0.0121857 0)
(1.04793 0.0116418 0)
(1.04875 0.0111644 0)
(1.0495 0.010748 0)
(1.05019 0.0103815 0)
(1.05082 0.0100542 0)
(1.0514 0.00975833 0)
(1.05194 0.00948859 0)
(1.05244 0.00924087 0)
(1.05291 0.00901182 0)
(1.05335 0.00879868 0)
(1.05375 0.00859908 0)
(1.05411 0.00841101 0)
(1.05445 0.0082327 0)
(1.05475 0.00806259 0)
(1.05502 0.00789924 0)
(1.05525 0.00774134 0)
(1.05545 0.00758761 0)
(1.05562 0.00743682 0)
(1.05576 0.00728778 0)
(1.05586 0.00713928 0)
(1.05594 0.00699014 0)
(1.05598 0.00683903 0)
(1.056 0.00668476 0)
(1.05599 0.0065257 0)
(1.05596 0.00636069 0)
(1.0559 0.00618738 0)
(1.05583 0.00600494 0)
(1.05575 0.00580973 0)
(1.05565 0.00560169 0)
(1.05554 0.00537518 0)
(1.05542 0.00513132 0)
(1.0553 0.00486242 0)
(1.05519 0.00456958 0)
(1.05507 0.00424647 0)
(1.05496 0.00388678 0)
(1.05485 0.00349938 0)
(1.05475 0.00304911 0)
(1.05465 0.00259234 0)
(1.05454 0.00204367 0)
(1.0544 0.0015491 0)
(1.05425 0.00107552 0)
(1.00157 0.0165974 0)
(1.01978 0.0243698 0)
(1.03304 0.0192905 0)
(1.03731 0.0166434 0)
(1.03881 0.0157635 0)
(1.04055 0.0146458 0)
(1.04228 0.0135204 0)
(1.04361 0.0126985 0)
(1.04466 0.0120793 0)
(1.04556 0.0115489 0)
(1.04637 0.0110808 0)
(1.04711 0.0106709 0)
(1.04778 0.0103096 0)
(1.0484 0.00998676 0)
(1.04897 0.00969467 0)
(1.0495 0.00942818 0)
(1.05001 0.00918335 0)
(1.05048 0.00895698 0)
(1.05093 0.00874637 0)
(1.05135 0.00854925 0)
(1.05176 0.00836364 0)
(1.05213 0.00818782 0)
(1.05249 0.00802024 0)
(1.05283 0.00785949 0)
(1.05314 0.00770425 0)
(1.05344 0.00755324 0)
(1.05372 0.00740522 0)
(1.05398 0.00725898 0)
(1.05422 0.00711327 0)
(1.05444 0.00696689 0)
(1.05464 0.00681847 0)
(1.05483 0.0066668 0)
(1.055 0.0065102 0)
(1.05517 0.00634747 0)
(1.05531 0.00617628 0)
(1.05545 0.00599562 0)
(1.05558 0.00580207 0)
(1.0557 0.00559509 0)
(1.05582 0.00536976 0)
(1.05593 0.00512604 0)
(1.05605 0.00485789 0)
(1.05616 0.00456423 0)
(1.05627 0.00424142 0)
(1.05639 0.00388073 0)
(1.0565 0.00349237 0)
(1.05661 0.00304463 0)
(1.05672 0.00258449 0)
(1.05681 0.00205126 0)
(1.05686 0.00155362 0)
(1.05691 0.00109243 0)
(1.00137 0.015113 0)
(1.01788 0.0232337 0)
(1.03061 0.0188312 0)
(1.03505 0.0162474 0)
(1.03659 0.01546 0)
(1.03829 0.0144649 0)
(1.04001 0.0133853 0)
(1.04135 0.0125754 0)
(1.04239 0.0119704 0)
(1.04328 0.0114541 0)
(1.04408 0.0109959 0)
(1.0448 0.0105928 0)
(1.04546 0.010237 0)
(1.04607 0.00991866 0)
(1.04663 0.00963034 0)
(1.04715 0.009367 0)
(1.04765 0.00912485 0)
(1.04811 0.0089008 0)
(1.04856 0.00869226 0)
(1.04898 0.008497 0)
(1.04938 0.00831312 0)
(1.04977 0.0081389 0)
(1.05014 0.00797286 0)
(1.05049 0.00781358 0)
(1.05083 0.00765976 0)
(1.05116 0.00751015 0)
(1.05148 0.00736351 0)
(1.05178 0.0072186 0)
(1.05208 0.00707417 0)
(1.05236 0.006929 0)
(1.05263 0.00678172 0)
(1.0529 0.00663109 0)
(1.05316 0.00647543 0)
(1.05341 0.00631347 0)
(1.05366 0.00614295 0)
(1.0539 0.00596268 0)
(1.05414 0.0057695 0)
(1.05438 0.00556241 0)
(1.05462 0.00533715 0)
(1.05486 0.00509273 0)
(1.0551 0.00482443 0)
(1.05534 0.00452958 0)
(1.05559 0.00420637 0)
(1.05583 0.00384494 0)
(1.05608 0.0034554 0)
(1.05632 0.00301068 0)
(1.05655 0.00254847 0)
(1.05676 0.00202834 0)
(1.05694 0.00152991 0)
(1.05713 0.0010733 0)
(1.0012 0.0137353 0)
(1.0161 0.0221005 0)
(1.02829 0.0183727 0)
(1.03287 0.0158589 0)
(1.03447 0.0151469 0)
(1.03613 0.0142738 0)
(1.03783 0.0132466 0)
(1.03917 0.0124502 0)
(1.04021 0.011859 0)
(1.04109 0.0113574 0)
(1.04188 0.0109097 0)
(1.04259 0.0105137 0)
(1.04324 0.0101635 0)
(1.04383 0.00984988 0)
(1.04438 0.00956546 0)
(1.0449 0.00930534 0)
(1.04538 0.00906588 0)
(1.04584 0.00884412 0)
(1.04627 0.00863755 0)
(1.04668 0.008444 0)
(1.04708 0.00826159 0)
(1.04746 0.00808868 0)
(1.04782 0.00792377 0)
(1.04818 0.0077655 0)
(1.04852 0.00761258 0)
(1.04885 0.00746376 0)
(1.04918 0.00731779 0)
(1.04949 0.00717347 0)
(1.0498 0.00702952 0)
(1.0501 0.00688472 0)
(1.0504 0.00673769 0)
(1.0507 0.00658717 0)
(1.05099 0.0064315 0)
(1.05127 0.00626935 0)
(1.05156 0.00609854 0)
(1.05185 0.00591772 0)
(1.05214 0.00572397 0)
(1.05243 0.00551591 0)
(1.05272 0.00528985 0)
(1.05302 0.00504403 0)
(1.05332 0.00477477 0)
(1.05363 0.00447835 0)
(1.05393 0.00415403 0)
(1.05425 0.00379182 0)
(1.05456 0.00340079 0)
(1.05486 0.00295887 0)
(1.05516 0.00249537 0)
(1.05544 0.00198558 0)
(1.0557 0.00148723 0)
(1.05597 0.00102931 0)
(1.00104 0.012462 0)
(1.01446 0.0209744 0)
(1.02608 0.0179114 0)
(1.03078 0.0154788 0)
(1.03244 0.0148262 0)
(1.03406 0.0140721 0)
(1.03574 0.0131037 0)
(1.03709 0.0123229 0)
(1.03812 0.0117451 0)
(1.03899 0.0112585 0)
(1.03977 0.0108219 0)
(1.04048 0.0104335 0)
(1.04111 0.0100892 0)
(1.0417 0.00978037 0)
(1.04223 0.00949998 0)
(1.04274 0.00924319 0)
(1.04321 0.00900652 0)
(1.04365 0.0087871 0)
(1.04408 0.00858252 0)
(1.04448 0.00839067 0)
(1.04487 0.00820971 0)
(1.04524 0.00803802 0)
(1.04559 0.00787415 0)
(1.04594 0.00771674 0)
(1.04628 0.00756452 0)
(1.0466 0.00741626 0)
(1.04692 0.00727071 0)
(1.04723 0.00712666 0)
(1.04754 0.00698283 0)
(1.04785 0.006838 0)
(1.04815 0.00669078 0)
(1.04844 0.0065399 0)
(1.04874 0.00638372 0)
(1.04904 0.00622087 0)
(1.04934 0.00604924 0)
(1.04964 0.00586733 0)
(1.04994 0.00567245 0)
(1.05025 0.0054629 0)
(1.05056 0.00523546 0)
(1.05088 0.00498782 0)
(1.05121 0.00471704 0)
(1.05153 0.00441876 0)
(1.05187 0.00409281 0)
(1.0522 0.00372969 0)
(1.05254 0.00333695 0)
(1.05288 0.00289733 0)
(1.0532 0.00243304 0)
(1.05352 0.0019308 0)
(1.05382 0.00143245 0)
(1.05413 0.000969083 0)
(1.0009 0.0112902 0)
(1.01295 0.0198599 0)
(1.02398 0.0174444 0)
(1.02878 0.0151074 0)
(1.0305 0.0144999 0)
(1.03208 0.0138596 0)
(1.03374 0.012956 0)
(1.03509 0.0121934 0)
(1.03613 0.0116288 0)
(1.03699 0.0111573 0)
(1.03776 0.0107325 0)
(1.03845 0.0103521 0)
(1.03908 0.0100138 0)
(1.03965 0.00971004 0)
(1.04018 0.00943385 0)
(1.04067 0.00918052 0)
(1.04113 0.00894672 0)
(1.04157 0.00872972 0)
(1.04198 0.0085272 0)
(1.04237 0.00833709 0)
(1.04275 0.0081576 0)
(1.04311 0.00798715 0)
(1.04346 0.00782431 0)
(1.0438 0.00766774 0)
(1.04412 0.00751618 0)
(1.04444 0.00736841 0)
(1.04475 0.00722319 0)
(1.04506 0.0070793 0)
(1.04536 0.00693546 0)
(1.04566 0.00679044 0)
(1.04595 0.00664286 0)
(1.04625 0.00649143 0)
(1.04654 0.00633453 0)
(1.04684 0.00617073 0)
(1.04713 0.00599802 0)
(1.04743 0.00581477 0)
(1.04774 0.00561847 0)
(1.04805 0.00540718 0)
(1.04836 0.00517805 0)
(1.04868 0.00492837 0)
(1.04901 0.00465572 0)
(1.04934 0.00435548 0)
(1.04968 0.00402759 0)
(1.05002 0.00366345 0)
(1.05036 0.00326891 0)
(1.0507 0.00283103 0)
(1.05104 0.00236623 0)
(1.05136 0.00186911 0)
(1.05168 0.00137006 0)
(1.05201 0.000898138 0)
(1.00078 0.0102164 0)
(1.01157 0.0187613 0)
(1.02199 0.0169688 0)
(1.02686 0.0147449 0)
(1.02866 0.0141701 0)
(1.0302 0.0136362 0)
(1.03183 0.012803 0)
(1.03318 0.0120618 0)
(1.03422 0.0115099 0)
(1.03507 0.0110536 0)
(1.03583 0.0106413 0)
(1.03652 0.0102694 0)
(1.03713 0.00993736 0)
(1.0377 0.00963881 0)
(1.03822 0.00936697 0)
(1.0387 0.00911723 0)
(1.03915 0.00888641 0)
(1.03958 0.00867193 0)
(1.03998 0.00847153 0)
(1.04036 0.00828322 0)
(1.04073 0.00810526 0)
(1.04108 0.00793608 0)
(1.04142 0.00777429 0)
(1.04175 0.00761858 0)
(1.04207 0.0074677 0)
(1.04238 0.00732042 0)
(1.04268 0.00717552 0)
(1.04298 0.00703176 0)
(1.04327 0.00688788 0)
(1.04356 0.00674262 0)
(1.04385 0.00659462 0)
(1.04414 0.00644257 0)
(1.04442 0.00628486 0)
(1.04471 0.00612003 0)
(1.045 0.00594613 0)
(1.0453 0.00576144 0)
(1.04559 0.00556359 0)
(1.0459 0.00535047 0)
(1.04621 0.0051195 0)
(1.04652 0.00486773 0)
(1.04684 0.00459305 0)
(1.04717 0.00429081 0)
(1.0475 0.00396085 0)
(1.04784 0.00359561 0)
(1.04818 0.00319935 0)
(1.04851 0.00276265 0)
(1.04884 0.00229747 0)
(1.04917 0.00180343 0)
(1.04949 0.00130269 0)
(1.04984 0.000820277 0)
(1.00067 0.00923643 0)
(1.01031 0.0176832 0)
(1.02012 0.0164825 0)
(1.02502 0.014391 0)
(1.0269 0.0138389 0)
(1.02841 0.0134023 0)
(1.03 0.0126439 0)
(1.03136 0.0119277 0)
(1.0324 0.0113887 0)
(1.03325 0.0109475 0)
(1.034 0.0105482 0)
(1.03467 0.0101852 0)
(1.03528 0.00985977 0)
(1.03584 0.0095666 0)
(1.03635 0.00929926 0)
(1.03682 0.00905326 0)
(1.03726 0.00882554 0)
(1.03768 0.00861366 0)
(1.03808 0.00841546 0)
(1.03845 0.00822901 0)
(1.03881 0.00805263 0)
(1.03915 0.00788478 0)
(1.03948 0.00772408 0)
(1.0398 0.00756925 0)
(1.04011 0.00741907 0)
(1.04042 0.0072723 0)
(1.04071 0.00712773 0)
(1.041 0.00698412 0)
(1.04128 0.00684019 0)
(1.04157 0.0066947 0)
(1.04185 0.00654626 0)
(1.04212 0.00639356 0)
(1.0424 0.00623503 0)
(1.04268 0.00606914 0)
(1.04297 0.00589403 0)
(1.04325 0.00570787 0)
(1.04354 0.00550844 0)
(1.04384 0.00529347 0)
(1.04414 0.0050606 0)
(1.04444 0.00480675 0)
(1.04476 0.00452998 0)
(1.04507 0.00422578 0)
(1.0454 0.00389374 0)
(1.04573 0.00352736 0)
(1.04605 0.0031295 0)
(1.04638 0.00269346 0)
(1.04671 0.00222797 0)
(1.04703 0.00173529 0)
(1.04735 0.00123186 0)
(1.0477 0.000737694 0)
(1.00058 0.00834582 0)
(1.00916 0.0166297 0)
(1.01836 0.0159839 0)
(1.02327 0.0140451 0)
(1.02523 0.0135081 0)
(1.02671 0.0131584 0)
(1.02827 0.0124781 0)
(1.02962 0.0117911 0)
(1.03066 0.0112651 0)
(1.03151 0.0108387 0)
(1.03225 0.0104529 0)
(1.03292 0.0100995 0)
(1.03352 0.00978093 0)
(1.03407 0.00949331 0)
(1.03457 0.00923065 0)
(1.03503 0.00898853 0)
(1.03547 0.00876403 0)
(1.03588 0.00855484 0)
(1.03627 0.00835892 0)
(1.03663 0.00817441 0)
(1.03698 0.00799965 0)
(1.03732 0.00783317 0)
(1.03764 0.00767361 0)
(1.03795 0.00751971 0)
(1.03825 0.00737025 0)
(1.03855 0.00722403 0)
(1.03884 0.00707981 0)
(1.03912 0.00693636 0)
(1.03939 0.0067924 0)
(1.03967 0.00664667 0)
(1.03994 0.00649782 0)
(1.04021 0.00634448 0)
(1.04048 0.00618512 0)
(1.04075 0.00601819 0)
(1.04103 0.00584185 0)
(1.04131 0.00565423 0)
(1.04159 0.00545321 0)
(1.04187 0.00523643 0)
(1.04217 0.00500165 0)
(1.04246 0.00474578 0)
(1.04277 0.00446692 0)
(1.04307 0.00416082 0)
(1.04339 0.00382675 0)
(1.0437 0.00345919 0)
(1.04402 0.00305988 0)
(1.04434 0.00262407 0)
(1.04465 0.00215818 0)
(1.04497 0.0016655 0)
(1.04529 0.00115845 0)
(1.04564 0.000651632 0)
(1.0005 0.00753947 0)
(1.00813 0.0156052 0)
(1.01672 0.0154718 0)
(1.02161 0.0137062 0)
(1.02364 0.0131796 0)
(1.0251 0.0129054 0)
(1.02662 0.0123052 0)
(1.02797 0.0116516 0)
(1.02901 0.0111392 0)
(1.02985 0.0107273 0)
(1.03059 0.0103555 0)
(1.03125 0.0100122 0)
(1.03184 0.00970074 0)
(1.03238 0.00941887 0)
(1.03288 0.00916104 0)