/*--------------------------------*- C++ -*----------------------------------*\
  =========                 |
  \\      /  F ield         | OpenFOAM: The Open Source CFD Toolbox
   \\    /   O peration     | Website:  https://openfoam.org
    \\  /    A nd           | Version:  7
     \\/     M anipulation  |
\*---------------------------------------------------------------------------*/
FoamFile
{
    version     2.0;
    format      ascii;
    class       volVectorField;
    location    "0.22";
    object      U_0;
}
// * * * * * * * * * * * * * * * * * * * * * * * * * * * * * * * * * * * * * //

dimensions      [0 1 -1 0 0 0 0];

internalField   nonuniform List<vector> 
70000
(
(0.55339 0.0167231 0)
(0.251259 0.00340104 0)
(0.166197 0.000322025 0)
(0.132449 5.42932e-05 0)
(0.117258 4.57262e-05 0)
(0.107335 5.38954e-05 0)
(0.099389 4.6257e-05 0)
(0.0929523 3.69133e-05 0)
(0.0877121 3.05949e-05 0)
(0.0833484 2.62633e-05 0)
(0.0796329 2.296e-05 0)
(0.0764175 2.03115e-05 0)
(0.0736012 1.81483e-05 0)
(0.07111 1.6357e-05 0)
(0.0688879 1.48536e-05 0)
(0.0668916 1.35758e-05 0)
(0.065087 1.24774e-05 0)
(0.063447 1.15235e-05 0)
(0.0619496 1.06872e-05 0)
(0.0605768 9.94804e-06 0)
(0.0593137 9.28931e-06 0)
(0.0581479 8.69799e-06 0)
(0.057069 8.16309e-06 0)
(0.0560682 7.67581e-06 0)
(0.0551381 7.2282e-06 0)
(0.0542723 6.81442e-06 0)
(0.0534654 6.42795e-06 0)
(0.0527129 6.06529e-06 0)
(0.0520108 5.72008e-06 0)
(0.0513559 5.3918e-06 0)
(0.0507455 5.07201e-06 0)
(0.0501771 4.76544e-06 0)
(0.0496492 4.45812e-06 0)
(0.0491599 4.16329e-06 0)
(0.0487086 3.85949e-06 0)
(0.0482942 3.56675e-06 0)
(0.0479161 3.26755e-06 0)
(0.0475758 2.95696e-06 0)
(0.047269 2.69513e-06 0)
(0.0470058 2.30315e-06 0)
(0.0467676 2.21618e-06 0)
(0.0465916 1.51878e-06 0)
(0.0464119 2.06654e-06 0)
(0.0463488 2.70559e-07 0)
(0.0461933 2.88735e-06 0)
(0.0463081 -2.19573e-06 0)
(0.0460787 7.28483e-06 0)
(0.0465074 -9.44338e-06 0)
(0.0462022 3.31409e-05 0)
(0.0432941 -0.00171542 0)
(0.884899 0.0431675 0)
(0.649712 0.0201943 0)
(0.494312 0.00659858 0)
(0.403653 0.00276778 0)
(0.354729 0.00155209 0)
(0.32343 0.0011316 0)
(0.299578 0.000910312 0)
(0.28039 0.000746328 0)
(0.264689 0.0006234 0)
(0.251582 0.000532568 0)
(0.240418 0.000463583 0)
(0.230756 0.00040926 0)
(0.22229 0.000365318 0)
(0.214799 0.000329095 0)
(0.208114 0.00029878 0)
(0.202106 0.000273076 0)
(0.196673 0.000251029 0)
(0.191732 0.000231926 0)
(0.18722 0.000215218 0)
(0.18308 0.000200484 0)
(0.17927 0.000187387 0)
(0.175751 0.000175658 0)
(0.172492 0.000165079 0)
(0.169467 0.000155468 0)
(0.166653 0.000146672 0)
(0.164032 0.000138564 0)
(0.161587 0.00013103 0)
(0.159303 0.000123975 0)
(0.15717 0.000117309 0)
(0.155177 0.00011096 0)
(0.153316 0.000104844 0)
(0.151579 9.8913e-05 0)
(0.149962 9.30688e-05 0)
(0.148459 8.73001e-05 0)
(0.147068 8.14616e-05 0)
(0.145786 7.56171e-05 0)
(0.14461 6.95182e-05 0)
(0.143546 6.33649e-05 0)
(0.142581 5.67513e-05 0)
(0.141745 5.00255e-05 0)
(0.140988 4.27464e-05 0)
(0.140411 3.50044e-05 0)
(0.139841 2.73994e-05 0)
(0.1396 1.73623e-05 0)
(0.139144 1.17611e-05 0)
(0.139422 -5.50605e-06 0)
(0.13886 4.52313e-06 0)
(0.140003 -6.79002e-05 0)
(0.139355 0.000214706 0)
(0.137451 -0.00288153 0)
(0.991237 0.0499017 0)
(0.890345 0.0307195 0)
(0.762676 0.0145985 0)
(0.656662 0.00798022 0)
(0.585338 0.00488514 0)
(0.53594 0.00347113 0)
(0.498084 0.00273539 0)
(0.467479 0.00224289 0)
(0.44218 0.00187956 0)
(0.420888 0.00160775 0)
(0.402657 0.00140006 0)
(0.386819 0.00123649 0)
(0.372899 0.00110426 0)
(0.360549 0.000995268 0)
(0.349503 0.000904029 0)
(0.339557 0.000826646 0)
(0.330547 0.000760261 0)
(0.322342 0.000702729 0)
(0.314837 0.000652415 0)
(0.307944 0.000608046 0)
(0.301591 0.000568618 0)
(0.295717 0.000533323 0)
(0.290272 0.000501504 0)
(0.285211 0.000472618 0)
(0.280498 0.00044621 0)
(0.276102 0.000421894 0)
(0.271995 0.000399337 0)
(0.268155 0.000378249 0)
(0.264562 0.000358371 0)
(0.261198 0.000339475 0)
(0.258051 0.000321331 0)
(0.255107 0.000303765 0)
(0.252358 0.000286526 0)
(0.249795 0.000269523 0)
(0.247412 0.000252386 0)
(0.245205 0.000235223 0)
(0.24317 0.000217336 0)
(0.241313 0.000199323 0)
(0.239617 0.000179726 0)
(0.238123 0.0001602 0)
(0.23676 0.000137817 0)
(0.235676 0.000116089 0)
(0.234623 9.00349e-05 0)
(0.234062 6.48267e-05 0)
(0.233224 3.64221e-05 0)
(0.233452 7.51977e-07 0)
(0.232555 -8.76118e-06 0)
(0.234041 -0.00015411 0)
(0.233006 0.000213066 0)
(0.233563 -0.00298276 0)
(1.0156 0.0489207 0)
(1.00596 0.0358761 0)
(0.935943 0.0207932 0)
(0.852109 0.0135055 0)
(0.782169 0.00920838 0)
(0.726977 0.00678113 0)
(0.681909 0.00538283 0)
(0.644169 0.00444323 0)
(0.612172 0.00374913 0)
(0.584728 0.00322293 0)
(0.560901 0.00281617 0)
(0.539984 0.00249367 0)
(0.52145 0.00223185 0)
(0.504895 0.00201529 0)
(0.490007 0.00183346 0)
(0.476537 0.00167886 0)
(0.464285 0.00154595 0)
(0.453091 0.00143055 0)
(0.442819 0.00132949 0)
(0.433359 0.00124026 0)
(0.424619 0.0011609 0)
(0.416519 0.00108981 0)
(0.408994 0.0010257 0)
(0.401986 0.000967491 0)
(0.395448 0.000914285 0)
(0.389337 0.000865317 0)
(0.383618 0.000819932 0)
(0.37826 0.000777553 0)
(0.373236 0.000737672 0)
(0.368523 0.00069983 0)
(0.364102 0.00066359 0)
(0.359955 0.000628584 0)
(0.356071 0.000594353 0)
(0.352436 0.00056067 0)
(0.349043 0.000526864 0)
(0.345885 0.000493078 0)
(0.342956 0.000457989 0)
(0.340261 0.000422741 0)
(0.337781 0.00038433 0)
(0.335562 0.000346397 0)
(0.333523 0.000302059 0)
(0.331832 0.000260536 0)
(0.330208 0.000206986 0)
(0.329176 0.000161107 0)
(0.327869 9.62057e-05 0)
(0.327791 3.86509e-05 0)
(0.326536 -1.19771e-05 0)
(0.327909 -0.00021948 0)
(0.32656 0.000106684 0)
(0.328199 -0.00275983 0)
(1.01434 0.0460043 0)
(1.04753 0.03749 0)
(1.02457 0.0241537 0)
(0.974743 0.0175609 0)
(0.923425 0.0131231 0)
(0.876656 0.0102056 0)
(0.834506 0.00834091 0)
(0.796777 0.00701888 0)
(0.76324 0.00600822 0)
(0.733455 0.00521986 0)
(0.706909 0.00459688 0)
(0.683133 0.00409504 0)
(0.661726 0.00368286 0)
(0.642359 0.00333881 0)
(0.624755 0.00304778 0)
(0.608686 0.00279879 0)
(0.59396 0.0025836 0)
(0.580416 0.00239597 0)
(0.567918 0.00223101 0)
(0.55635 0.00208492 0)
(0.545615 0.00195462 0)
(0.535626 0.00183765 0)
(0.526313 0.00173197 0)
(0.517611 0.00163588 0)
(0.509467 0.00154796 0)
(0.501833 0.00146699 0)
(0.494668 0.00139192 0)
(0.487936 0.00132184 0)
(0.481607 0.00125594 0)
(0.475654 0.00119346 0)
(0.470053 0.00113373 0)
(0.464785 0.00107614 0)
(0.459832 0.00101997 0)
(0.455182 0.000964826 0)
(0.450822 0.000909682 0)
(0.446745 0.000854693 0)
(0.442943 0.000797819 0)
(0.43942 0.000740794 0)
(0.436155 0.000678849 0)
(0.433193 0.000617842 0)
(0.430454 0.000546378 0)
(0.428104 0.000480099 0)
(0.425867 0.000393012 0)
(0.424258 0.000320905 0)
(0.422439 0.000212482 0)
(0.421849 0.000124869 0)
(0.420235 2.53111e-05 0)
(0.42109 -0.000243535 0)
(0.419611 3.2038e-06 0)
(0.420987 -0.00251585 0)
(1.00933 0.0429157 0)
(1.05527 0.0372655 0)
(1.05868 0.0252984 0)
(1.03636 0.0197612 0)
(1.00708 0.0158125 0)
(0.976026 0.0129353 0)
(0.944505 0.0109576 0)
(0.913651 0.00947413 0)
(0.884315 0.00828248 0)
(0.856884 0.0073134 0)
(0.831434 0.00652196 0)
(0.807904 0.00586797 0)
(0.786173 0.00531998 0)
(0.766097 0.00485515 0)
(0.747532 0.00445674 0)
(0.730337 0.0041121 0)
(0.714383 0.0038115 0)
(0.699553 0.0035473 0)
(0.685741 0.00331347 0)
(0.672853 0.00310517 0)
(0.660807 0.00291845 0)
(0.649527 0.0027501 0)
(0.638949 0.00259742 0)
(0.629015 0.00245815 0)
(0.619673 0.00233038 0)
(0.610877 0.00221246 0)
(0.602588 0.00210295 0)
(0.594771 0.00200059 0)
(0.587393 0.00190426 0)
(0.580428 0.00181292 0)
(0.573852 0.00172562 0)
(0.567644 0.00164151 0)
(0.561787 0.00155959 0)
(0.556265 0.00147928 0)
(0.551067 0.00139918 0)
(0.546183 0.00131943 0)
(0.541605 0.00123727 0)
(0.537335 0.00115495 0)
(0.533354 0.00106602 0)
(0.529701 0.000978303 0)
(0.526306 0.000876262 0)
(0.523314 0.000781159 0)
(0.520487 0.000657275 0)
(0.51827 0.000553542 0)
(0.515948 0.000399673 0)
(0.514743 0.000272867 0)
(0.512789 0.000123039 0)
(0.512904 -0.000212192 0)
(0.511352 -4.91529e-05 0)
(0.511975 -0.00223799 0)
(1.00625 0.0400343 0)
(1.05206 0.0363382 0)
(1.06608 0.0252279 0)
(1.05959 0.0205614 0)
(1.04685 0.0172397 0)
(1.03077 0.0146554 0)
(1.01187 0.012817 0)
(0.991189 0.0113901 0)
(0.96979 0.0101916 0)
(0.948403 0.00917396 0)
(0.927473 0.00831163 0)
(0.907262 0.00757665 0)
(0.887918 0.00694452 0)
(0.869509 0.00639639 0)
(0.852055 0.00591773 0)
(0.835544 0.00549705 0)
(0.819944 0.00512509 0)
(0.805215 0.00479432 0)
(0.791308 0.00449856 0)
(0.778176 0.00423272 0)
(0.765771 0.00399257 0)
(0.754045 0.00377453 0)
(0.742955 0.00357559 0)
(0.732461 0.00339316 0)
(0.722523 0.003225 0)
(0.713108 0.00306917 0)
(0.704183 0.00292396 0)
(0.69572 0.00278782 0)
(0.687693 0.00265939 0)
(0.680078 0.0025374 0)
(0.672855 0.00242065 0)
(0.666006 0.00230806 0)
(0.659515 0.0021984 0)
(0.653368 0.00209088 0)
(0.647556 0.00198379 0)
(0.642068 0.0018772 0)
(0.636898 0.00176772 0)
(0.632046 0.00165794 0)
(0.627499 0.00154003 0)
(0.623285 0.00142323 0)
(0.619351 0.00128886 0)
(0.615813 0.00116198 0)
(0.612483 0.00100034 0)
(0.609716 0.000860378 0)
(0.606956 0.000662416 0)
(0.605146 0.000488434 0)
(0.602884 0.000291692 0)
(0.602239 -0.000111883 0)
(0.600557 -4.03922e-05 0)
(0.600414 -0.00190752 0)
(1.00495 0.0373564 0)
(1.04727 0.0352563 0)
(1.06397 0.0246883 0)
(1.06424 0.0205881 0)
(1.06066 0.0177779 0)
(1.05472 0.0154984 0)
(1.04596 0.0138746 0)
(1.03477 0.0126121 0)
(1.02186 0.011524 0)
(1.00784 0.0105691 0)
(0.993173 0.00973377 0)
(0.978207 0.00900074 0)
(0.96321 0.00835315 0)
(0.948375 0.00777782 0)
(0.93384 0.00726444 0)
(0.919696 0.00680452 0)
(0.906003 0.00639092 0)
(0.892796 0.00601757 0)
(0.880093 0.00567926 0)
(0.867898 0.00537155 0)
(0.856209 0.00509062 0)
(0.845016 0.00483314 0)
(0.834306 0.0045962 0)
(0.824063 0.00437727 0)
(0.81427 0.00417407 0)
(0.804912 0.00398461 0)
(0.79597 0.00380709 0)
(0.787428 0.00363984 0)
(0.779271 0.00348139 0)
(0.771483 0.00333032 0)
(0.764052 0.00318528 0)
(0.756965 0.00304504 0)
(0.750213 0.00290818 0)
(0.743783 0.00277377 0)
(0.737672 0.00263981 0)
(0.731871 0.00250629 0)
(0.726377 0.00236936 0)
(0.721189 0.00223175 0)
(0.716301 0.00208466 0)
(0.711733 0.00193806 0)
(0.707449 0.00177138 0)
(0.703535 0.00161136 0)
(0.699857 0.00141291 0)
(0.696677 0.00123386 0)
(0.693593 0.00099478 0)
(0.69129 0.000768987 0)
(0.688781 0.000528328 0)
(0.687492 6.11609e-05 0)
(0.685636 3.67374e-05 0)
(0.684847 -0.00153093 0)
(1.0044 0.0348085 0)
(1.04324 0.0341833 0)
(1.05993 0.0240475 0)
(1.06228 0.0202946 0)
(1.06248 0.0178422 0)
(1.06178 0.01578 0)
(1.0592 0.0143294 0)
(1.05465 0.013232 0)
(1.04844 0.0122859 0)
(1.04087 0.0114426 0)
(1.03224 0.0106913 0)
(1.0228 0.0100185 0)
(1.01277 0.00941143 0)
(1.00236 0.00886054 0)
(0.991729 0.00835883 0)
(0.981009 0.00790069 0)
(0.970304 0.0074813 0)
(0.959694 0.00709649 0)
(0.949241 0.00674254 0)
(0.938991 0.00641618 0)
(0.928978 0.00611446 0)
(0.919225 0.00583473 0)
(0.90975 0.00557461 0)
(0.900562 0.00533193 0)
(0.891668 0.0051047 0)
(0.88307 0.0048911 0)
(0.874769 0.00468946 0)
(0.866762 0.0044982 0)
(0.859047 0.00431587 0)
(0.851621 0.00414103 0)
(0.844481 0.00397233 0)
(0.837622 0.00380845 0)
(0.831042 0.00364789 0)
(0.824736 0.00348963 0)
(0.818704 0.00333149 0)
(0.812943 0.00317339 0)
(0.807454 0.00301114 0)
(0.802238 0.00284747 0)
(0.797295 0.00267306 0)
(0.792639 0.00249794 0)
(0.788251 0.00230089 0)
(0.784192 0.00210836 0)
(0.780372 0.00187571 0)
(0.776979 0.00165721 0)
(0.773737 0.00138086 0)
(0.771121 0.00110284 0)
(0.768469 0.00082047 0)
(0.76672 0.000299462 0)
(0.764714 0.000179434 0)
(0.763443 -0.00112501 0)
(1.00402 0.0323684 0)
(1.03991 0.0331333 0)
(1.05616 0.0234247 0)
(1.05892 0.0199068 0)
(1.06021 0.0177122 0)
(1.06155 0.0157847 0)
(1.06192 0.0144351 0)
(1.06102 0.0134524 0)
(1.05896 0.0126221 0)
(1.05584 0.0118843 0)
(1.05175 0.0112256 0)
(1.04681 0.0106323 0)
(1.04115 0.0100914 0)
(1.03489 0.00959424 0)
(1.02815 0.00913483 0)
(1.02105 0.00870893 0)
(1.01367 0.00831313 0)
(1.00611 0.00794456 0)
(0.998431 0.0076007 0)
(0.990699 0.0072793 0)
(0.982966 0.00697832 0)
(0.975271 0.00669587 0)
(0.96765 0.00643021 0)
(0.960131 0.00617967 0)
(0.952736 0.0059427 0)
(0.945483 0.00571781 0)
(0.938386 0.00550361 0)
(0.931458 0.00529872 0)
(0.924708 0.00510183 0)
(0.918143 0.00491164 0)
(0.911769 0.00472684 0)
(0.90559 0.00454617 0)
(0.899613 0.00436812 0)
(0.893839 0.00419164 0)
(0.888274 0.00401447 0)
(0.882921 0.00383647 0)
(0.877785 0.0036533 0)
(0.872871 0.00346754 0)
(0.868182 0.00326973 0)
(0.863733 0.00306946 0)
(0.859515 0.00284588 0)
(0.855573 0.00262363 0)
(0.85185 0.00236103 0)
(0.848479 0.00210532 0)
(0.845277 0.00179639 0)
(0.842564 0.00146953 0)
(0.839916 0.00114792 0)
(0.837921 0.000586019 0)
(0.835855 0.00037542 0)
(0.834288 -0.000708944 0)
(1.00364 0.0300281 0)
(1.03692 0.0320859 0)
(1.05281 0.0228352 0)
(1.05568 0.0195019 0)
(1.05711 0.0175206 0)
(1.05901 0.015685 0)
(1.06044 0.0143828 0)
(1.06113 0.013463 0)
(1.06113 0.0127061 0)
(1.06048 0.0120423 0)
(1.05918 0.0114556 0)
(1.05723 0.0109309 0)
(1.05468 0.0104539 0)
(1.05158 0.0100145 0)
(1.04798 0.0096064 0)
(1.04396 0.00922526 0)
(1.03955 0.00886787 0)
(1.03484 0.0085317 0)
(1.02988 0.00821472 0)
(1.02471 0.00791519 0)
(1.01938 0.0076316 0)
(1.01394 0.00736255 0)
(1.00842 0.00710676 0)
(1.00285 0.00686299 0)
(0.997274 0.00663006 0)
(0.991702 0.00640681 0)
(0.986162 0.00619211 0)
(0.980671 0.00598482 0)
(0.975247 0.00578385 0)
(0.969903 0.00558802 0)
(0.964653 0.00539616 0)
(0.959509 0.00520711 0)
(0.95448 0.00501937 0)
(0.949576 0.00483197 0)
(0.944807 0.00464259 0)
(0.940179 0.00445108 0)
(0.935703 0.00425304 0)
(0.931387 0.00405087 0)
(0.927238 0.00383523 0)
(0.923272 0.00361493 0)
(0.919484 0.00337023 0)
(0.915913 0.00312294 0)
(0.912523 0.00283599 0)
(0.909406 0.00254765 0)
(0.906451 0.00221174 0)
(0.903861 0.00184248 0)
(0.901382 0.0014851 0)
(0.899359 0.000896265 0)
(0.897358 0.000604715 0)
(0.895692 -0.000302942 0)
(1.00327 0.0277884 0)
(1.03409 0.0310274 0)
(1.0497 0.0222722 0)
(1.05271 0.019095 0)
(1.05411 0.0173101 0)
(1.05606 0.0155561 0)
(1.05777 0.0142759 0)
(1.05898 0.0133863 0)
(1.05979 0.0126699 0)
(1.06025 0.0120494 0)
(1.06033 0.0115075 0)
(1.06003 0.0110291 0)
(1.05932 0.0105987 0)
(1.05822 0.0102052 0)
(1.05674 0.00984126 0)
(1.05489 0.00950174 0)
(1.05272 0.00918301 0)
(1.05024 0.00888227 0)
(1.04748 0.00859736 0)
(1.04448 0.00832653 0)
(1.04127 0.00806833 0)
(1.03788 0.0078215 0)
(1.03433 0.00758493 0)
(1.03065 0.00735756 0)
(1.02688 0.00713839 0)
(1.02303 0.00692645 0)
(1.01912 0.00672079 0)
(1.01517 0.00652042 0)
(1.0112 0.00632439 0)
(1.00724 0.00613165 0)
(1.00328 0.00594113 0)
(0.999358 0.00575175 0)
(0.995473 0.00556208 0)
(0.99164 0.00537117 0)
(0.987872 0.00517672 0)
(0.98418 0.00497855 0)
(0.980575 0.00477231 0)
(0.977067 0.0045601 0)
(0.973667 0.00433297 0)
(0.970389 0.00409868 0)
(0.967235 0.00383913 0)
(0.964235 0.00357267 0)
(0.96137 0.00326781 0)
(0.958702 0.00295305 0)
(0.95617 0.00259635 0)
(0.953894 0.00219325 0)
(0.951736 0.00180498 0)
(0.949882 0.00120242 0)
(0.948077 0.000842916 0)
(0.946491 7.29698e-05 0)
(1.00292 0.0256527 0)
(1.03138 0.0299531 0)
(1.0467 0.0217313 0)
(1.04992 0.018686 0)
(1.0513 0.0170876 0)
(1.05321 0.0154202 0)
(1.05495 0.0141554 0)
(1.05628 0.0132813 0)
(1.05732 0.0125878 0)
(1.05817 0.0119911 0)
(1.05881 0.0114736 0)
(1.05924 0.0110217 0)
(1.05944 0.0106197 0)
(1.0594 0.0102559 0)
(1.05911 0.00992238 0)
(1.05859 0.00961342 0)
(1.05782 0.00932486 0)
(1.05683 0.00905347 0)
(1.05561 0.00879675 0)
(1.05418 0.00855268 0)
(1.05255 0.0083196 0)
(1.05075 0.00809615 0)
(1.04878 0.00788111 0)
(1.04667 0.0076734 0)
(1.04443 0.00747204 0)
(1.04208 0.00727605 0)
(1.03963 0.00708451 0)
(1.03709 0.0068965 0)
(1.0345 0.00671108 0)
(1.03185 0.00652728 0)
(1.02916 0.00634403 0)
(1.02645 0.0061603 0)
(1.02372 0.00597469 0)
(1.021 0.00578626 0)
(1.01828 0.00559271 0)
(1.01559 0.00539381 0)
(1.01294 0.00518528 0)
(1.01033 0.00496891 0)
(1.00777 0.00473626 0)
(1.00529 0.00449385 0)
(1.00288 0.00422559 0)
(1.00056 0.00394604 0)
(0.998337 0.00362963 0)
(0.996242 0.00329534 0)
(0.994247 0.00292402 0)
(0.99242 0.00249646 0)
(0.990692 0.0020832 0)
(0.98915 0.0014784 0)
(0.987651 0.00106572 0)
(0.986285 0.000399708 0)
(1.0026 0.0236237 0)
(1.02879 0.0288619 0)
(1.04378 0.0212113 0)
(1.04723 0.018275 0)
(1.04861 0.0168516 0)
(1.05049 0.0152797 0)
(1.05222 0.0140323 0)
(1.05356 0.013169 0)
(1.05464 0.0124918 0)
(1.05558 0.0119101 0)
(1.0564 0.0114062 0)
(1.05709 0.0109684 0)
(1.05765 0.0105819 0)
(1.05807 0.0102349 0)
(1.05836 0.00991932 0)
(1.0585 0.00962927 0)
(1.0585 0.00936033 0)
(1.05835 0.00910901 0)
(1.05804 0.00887252 0)
(1.05759 0.00864858 0)
(1.057 0.00843532 0)
(1.05626 0.00823115 0)
(1.0554 0.00803471 0)
(1.0544 0.00784478 0)
(1.0533 0.00766025 0)
(1.05208 0.00748008 0)
(1.05076 0.00730327 0)
(1.04936 0.00712884 0)
(1.04788 0.00695581 0)
(1.04633 0.00678317 0)
(1.04472 0.00660983 0)
(1.04306 0.00643476 0)
(1.04136 0.00625648 0)
(1.03963 0.00607406 0)
(1.03788 0.00588518 0)
(1.03612 0.00568951 0)
(1.03436 0.00548287 0)
(1.03261 0.00526666 0)
(1.03088 0.00503307 0)
(1.02918 0.00478727 0)
(1.02752 0.00451533 0)
(1.0259 0.00422798 0)
(1.02434 0.00390545 0)
(1.02286 0.0035581 0)
(1.02144 0.00317759 0)
(1.02012 0.00273454 0)
(1.01887 0.00230239 0)
(1.01772 0.00170435 0)
(1.01659 0.00125325 0)
(1.01553 0.0006628 0)
(1.0023 0.0217031 0)
(1.02634 0.0277545 0)
(1.04095 0.0207106 0)
(1.04463 0.0178633 0)
(1.04603 0.0166007 0)
(1.04787 0.0151332 0)
(1.0496 0.0139077 0)
(1.05093 0.0130544 0)
(1.05201 0.0123918 0)
(1.05295 0.0118225 0)
(1.05379 0.011328 0)
(1.05455 0.0108987 0)
(1.05522 0.0105209 0)
(1.05582 0.0101831 0)
(1.05632 0.00987735 0)
(1.05675 0.00959782 0)
(1.05709 0.00934012 0)
(1.05735 0.0091007 0)
(1.05751 0.00887667 0)
(1.05759 0.00866563 0)
(1.05757 0.00846555 0)
(1.05746 0.00827473 0)
(1.05725 0.00809165 0)
(1.05696 0.00791497 0)
(1.05659 0.00774346 0)
(1.05613 0.00757597 0)
(1.05559 0.0074114 0)
(1.05497 0.00724867 0)
(1.05429 0.00708672 0)
(1.05354 0.00692447 0)
(1.05274 0.00676076 0)
(1.05188 0.00659449 0)
(1.05099 0.00642413 0)
(1.05005 0.0062487 0)
(1.04908 0.00606583 0)
(1.04809 0.00587505 0)
(1.04708 0.00567234 0)
(1.04606 0.00545862 0)
(1.04503 0.00522677 0)
(1.04402 0.00498056 0)
(1.04301 0.00470826 0)
(1.04203 0.00441697 0)
(1.04108 0.00409218 0)
(1.04016 0.00373703 0)
(1.03928 0.00335143 0)
(1.03844 0.00290038 0)
(1.03765 0.00245489 0)
(1.03691 0.00186975 0)
(1.03615 0.00139326 0)
(1.03543 0.000855715 0)
(1.00203 0.0198918 0)
(1.02402 0.0266341 0)
(1.03821 0.0202262 0)
(1.0421 0.0174529 0)
(1.04353 0.0163352 0)
(1.04534 0.0149792 0)
(1.04707 0.0137812 0)
(1.0484 0.0129379 0)
(1.04946 0.0122898 0)
(1.05039 0.0117328 0)
(1.05123 0.0112468 0)
(1.05199 0.010824 0)
(1.05268 0.0104523 0)
(1.05331 0.0101203 0)
(1.05389 0.00982024 0)
(1.05441 0.00954661 0)
(1.05488 0.00929509 0)
(1.0553 0.00906223 0)
(1.05566 0.00884517 0)
(1.05598 0.00864149 0)
(1.05623 0.00844915 0)
(1.05644 0.00826637 0)
(1.05658 0.00809159 0)
(1.05667 0.00792339 0)
(1.05671 0.00776047 0)
(1.05669 0.00760159 0)
(1.05661 0.00744558 0)
(1.05648 0.00729128 0)
(1.05631 0.00713753 0)
(1.05608 0.0069832 0)
(1.05582 0.00682703 0)
(1.05551 0.00666789 0)
(1.05516 0.00650415 0)
(1.05478 0.00633476 0)
(1.05437 0.00615734 0)
(1.05394 0.00597124 0)
(1.05348 0.00577261 0)
(1.05301 0.00556186 0)
(1.05253 0.00533262 0)
(1.05205 0.00508726 0)
(1.05157 0.00481616 0)
(1.05109 0.00452314 0)
(1.05062 0.00419822 0)
(1.05017 0.00383892 0)
(1.04974 0.00345082 0)
(1.04932 0.0029972 0)
(1.04892 0.0025429 0)
(1.04853 0.00197376 0)
(1.04812 0.00148221 0)
(1.04772 0.000980334 0)
(1.00179 0.01819 0)
(1.02183 0.0255045 0)
(1.03558 0.0197542 0)
(1.03967 0.0170457 0)
(1.04112 0.0160557 0)
(1.0429 0.0148169 0)
(1.04463 0.0136521 0)
(1.04596 0.0128192 0)
(1.04702 0.0121856 0)
(1.04793 0.0116416 0)
(1.04876 0.0111643 0)
(1.0495 0.0107478 0)
(1.05019 0.0103813 0)
(1.05082 0.010054 0)
(1.0514 0.00975813 0)
(1.05194 0.00948838 0)
(1.05244 0.00924064 0)
(1.05291 0.00901159 0)
(1.05335 0.00879843 0)
(1.05375 0.00859882 0)
(1.05412 0.00841073 0)
(1.05445 0.00823241 0)
(1.05475 0.00806227 0)
(1.05502 0.0078989 0)
(1.05526 0.00774096 0)
(1.05546 0.00758718 0)
(1.05563 0.00743634 0)
(1.05576 0.00728724 0)
(1.05587 0.00713866 0)
(1.05594 0.00698942 0)
(1.05598 0.00683819 0)
(1.056 0.00668379 0)
(1.05599 0.00652456 0)
(1.05596 0.00635935 0)
(1.05591 0.00618581 0)
(1.05584 0.00600307 0)
(1.05575 0.0058075 0)
(1.05566 0.00559901 0)
(1.05555 0.00537195 0)
(1.05543 0.00512742 0)
(1.05532 0.00485767 0)
(1.0552 0.00456379 0)
(1.05509 0.00423939 0)
(1.05498 0.00387808 0)
(1.05488 0.00348867 0)
(1.05478 0.00303587 0)
(1.05468 0.002576 0)
(1.05458 0.00202344 0)
(1.05444 0.00152419 0)
(1.0543 0.00104492 0)
(1.00157 0.0165974 0)
(1.01978 0.0243697 0)
(1.03304 0.0192905 0)
(1.03731 0.0166433 0)
(1.03881 0.0157634 0)
(1.04055 0.0146457 0)
(1.04228 0.0135202 0)
(1.04361 0.0126984 0)
(1.04466 0.0120791 0)
(1.04556 0.0115487 0)
(1.04637 0.0110807 0)
(1.04711 0.0106707 0)
(1.04778 0.0103095 0)
(1.0484 0.00998656 0)
(1.04897 0.00969445 0)
(1.04951 0.00942795 0)
(1.05001 0.00918311 0)
(1.05048 0.00895672 0)
(1.05093 0.00874611 0)
(1.05136 0.00854897 0)
(1.05176 0.00836335 0)
(1.05214 0.00818751 0)
(1.05249 0.00801991 0)
(1.05283 0.00785913 0)
(1.05315 0.00770384 0)
(1.05344 0.00755279 0)
(1.05372 0.00740471 0)
(1.05398 0.0072584 0)
(1.05422 0.00711261 0)
(1.05444 0.00696612 0)
(1.05465 0.00681758 0)
(1.05484 0.00666576 0)
(1.05501 0.00650899 0)
(1.05517 0.00634604 0)
(1.05532 0.00617459 0)
(1.05546 0.00599361 0)
(1.05559 0.00579968 0)
(1.05571 0.00559223 0)
(1.05583 0.00536632 0)
(1.05595 0.00512189 0)
(1.05606 0.00485287 0)
(1.05617 0.00455812 0)
(1.05629 0.00423396 0)
(1.05641 0.00387159 0)
(1.05652 0.00348116 0)
(1.05664 0.00303082 0)
(1.05675 0.00256751 0)
(1.05684 0.00203031 0)
(1.0569 0.00152791 0)
(1.05695 0.00106095 0)
(1.00137 0.015113 0)
(1.01788 0.0232336 0)
(1.03061 0.0188312 0)
(1.03505 0.0162473 0)
(1.03659 0.0154599 0)
(1.03829 0.0144648 0)
(1.04001 0.0133851 0)
(1.04135 0.0125753 0)
(1.04239 0.0119702 0)
(1.04328 0.011454 0)
(1.04408 0.0109958 0)
(1.0448 0.0105926 0)
(1.04546 0.0102368 0)
(1.04607 0.00991844 0)
(1.04663 0.00963011 0)
(1.04716 0.00936675 0)
(1.04765 0.00912459 0)
(1.04812 0.00890053 0)
(1.04856 0.00869198 0)
(1.04898 0.00849671 0)
(1.04938 0.00831281 0)
(1.04977 0.00813857 0)
(1.05014 0.0079725 0)
(1.0505 0.00781319 0)
(1.05084 0.00765933 0)
(1.05117 0.00750967 0)
(1.05148 0.00736296 0)
(1.05179 0.00721798 0)
(1.05208 0.00707346 0)
(1.05236 0.00692818 0)
(1.05264 0.00678077 0)
(1.05291 0.00662998 0)
(1.05317 0.00647413 0)
(1.05342 0.00631194 0)
(1.05367 0.00614114 0)
(1.05391 0.00596054 0)
(1.05415 0.00576695 0)
(1.05439 0.00555937 0)
(1.05463 0.0053335 0)
(1.05487 0.00508833 0)
(1.05511 0.00481912 0)
(1.05536 0.00452314 0)
(1.0556 0.00419854 0)
(1.05585 0.00383538 0)
(1.0561 0.00344371 0)
(1.05634 0.00299633 0)
(1.05658 0.00253087 0)
(1.05679 0.00200672 0)
(1.05698 0.00150346 0)
(1.05717 0.001041 0)
(1.0012 0.0137353 0)
(1.0161 0.0221004 0)
(1.02829 0.0183726 0)
(1.03287 0.0158588 0)
(1.03447 0.0151468 0)
(1.03613 0.0142737 0)
(1.03783 0.0132464 0)
(1.03917 0.0124501 0)
(1.04021 0.0118588 0)
(1.04109 0.0113572 0)
(1.04188 0.0109095 0)
(1.04259 0.0105135 0)
(1.04324 0.0101633 0)
(1.04384 0.00984966 0)
(1.04439 0.00956521 0)
(1.0449 0.00930507 0)
(1.04538 0.0090656 0)
(1.04584 0.00884384 0)
(1.04627 0.00863725 0)
(1.04668 0.00844368 0)
(1.04708 0.00826126 0)
(1.04746 0.00808832 0)
(1.04783 0.00792339 0)
(1.04818 0.00776509 0)
(1.04852 0.00761212 0)
(1.04886 0.00746325 0)
(1.04918 0.00731722 0)
(1.0495 0.00717282 0)
(1.0498 0.00702877 0)
(1.05011 0.00688385 0)
(1.05041 0.00673668 0)
(1.0507 0.00658599 0)
(1.05099 0.00643011 0)
(1.05128 0.00626772 0)
(1.05157 0.00609662 0)
(1.05186 0.00591545 0)
(1.05215 0.00572127 0)
(1.05244 0.00551269 0)
(1.05273 0.00528599 0)
(1.05303 0.00503939 0)
(1.05333 0.00476919 0)
(1.05364 0.00447159 0)
(1.05395 0.00414583 0)
(1.05426 0.00378184 0)
(1.05458 0.00338862 0)
(1.05489 0.00294399 0)
(1.05519 0.00247719 0)
(1.05547 0.00196331 0)
(1.05573 0.00146007 0)
(1.056 0.000996243 0)
(1.00104 0.012462 0)
(1.01446 0.0209744 0)
(1.02608 0.0179113 0)
(1.03078 0.0154787 0)
(1.03244 0.014826 0)
(1.03406 0.014072 0)
(1.03574 0.0131035 0)
(1.03709 0.0123227 0)
(1.03812 0.0117449 0)
(1.03899 0.0112583 0)
(1.03977 0.0108217 0)
(1.04048 0.0104333 0)
(1.04111 0.0100889 0)
(1.0417 0.00978013 0)
(1.04224 0.00949972 0)
(1.04274 0.00924291 0)
(1.04321 0.00900622 0)
(1.04366 0.0087868 0)
(1.04408 0.00858221 0)
(1.04448 0.00839034 0)
(1.04487 0.00820936 0)
(1.04524 0.00803765 0)
(1.0456 0.00787374 0)
(1.04594 0.0077163 0)
(1.04628 0.00756404 0)
(1.04661 0.00741572 0)
(1.04693 0.0072701 0)
(1.04724 0.00712596 0)
(1.04755 0.00698203 0)
(1.04785 0.00683707 0)
(1.04815 0.0066897 0)
(1.04845 0.00653865 0)
(1.04875 0.00638225 0)
(1.04905 0.00621914 0)
(1.04935 0.0060472 0)
(1.04965 0.00586492 0)
(1.04995 0.00566959 0)
(1.05026 0.00545949 0)
(1.05057 0.00523139 0)
(1.05089 0.00498293 0)
(1.05122 0.00471117 0)
(1.05155 0.00441168 0)
(1.05188 0.00408425 0)
(1.05222 0.0037193 0)
(1.05256 0.00332432 0)
(1.0529 0.00288194 0)
(1.05323 0.0024143 0)
(1.05355 0.00190792 0)
(1.05385 0.00140463 0)
(1.05416 0.000935268 0)
(1.0009 0.0112902 0)
(1.01295 0.0198599 0)
(1.02398 0.0174443 0)
(1.02878 0.0151073 0)
(1.0305 0.0144997 0)
(1.03208 0.0138594 0)
(1.03374 0.0129559 0)
(1.03509 0.0121933 0)
(1.03613 0.0116286 0)
(1.03699 0.0111571 0)
(1.03776 0.0107323 0)
(1.03845 0.0103519 0)
(1.03908 0.0100136 0)
(1.03965 0.00970978 0)
(1.04018 0.00943357 0)
(1.04067 0.00918022 0)
(1.04113 0.0089464 0)
(1.04157 0.0087294 0)
(1.04198 0.00852686 0)
(1.04238 0.00833674 0)
(1.04275 0.00815723 0)
(1.04311 0.00798676 0)
(1.04346 0.00782388 0)
(1.0438 0.00766728 0)
(1.04413 0.00751567 0)
(1.04445 0.00736784 0)
(1.04476 0.00722255 0)
(1.04506 0.00707857 0)
(1.04536 0.00693462 0)
(1.04566 0.00678946 0)
(1.04596 0.00664172 0)
(1.04625 0.0064901 0)
(1.04655 0.00633297 0)
(1.04684 0.0061689 0)
(1.04714 0.00599586 0)
(1.04744 0.00581222 0)
(1.04775 0.00561545 0)
(1.04806 0.00540359 0)
(1.04837 0.00517376 0)
(1.04869 0.00492324 0)
(1.04902 0.00464957 0)
(1.04935 0.00434807 0)
(1.04969 0.00401866 0)
(1.05004 0.00365265 0)
(1.05038 0.00325584 0)
(1.05073 0.00281515 0)
(1.05106 0.00234694 0)
(1.05139 0.00184564 0)
(1.05171 0.0013416 0)
(1.05205 0.000863627 0)
(1.00078 0.0102163 0)
(1.01157 0.0187613 0)
(1.02199 0.0169687 0)
(1.02686 0.0147448 0)
(1.02866 0.0141699 0)
(1.0302 0.013636 0)
(1.03183 0.0128028 0)
(1.03318 0.0120616 0)
(1.03422 0.0115098 0)
(1.03507 0.0110534 0)
(1.03583 0.0106411 0)
(1.03652 0.0102691 0)
(1.03714 0.00993711 0)
(1.0377 0.00963853 0)
(1.03822 0.00936667 0)
(1.0387 0.00911691 0)
(1.03915 0.00888608 0)
(1.03958 0.00867159 0)
(1.03998 0.00847117 0)
(1.04037 0.00828285 0)
(1.04073 0.00810487 0)
(1.04109 0.00793567 0)
(1.04143 0.00777385 0)
(1.04175 0.00761809 0)
(1.04207 0.00746716 0)
(1.04238 0.00731982 0)
(1.04269 0.00717484 0)
(1.04298 0.00703099 0)
(1.04328 0.00688699 0)
(1.04357 0.00674159 0)
(1.04385 0.00659342 0)
(1.04414 0.00644116 0)
(1.04443 0.00628321 0)
(1.04472 0.0061181 0)
(1.04501 0.00594386 0)
(1.0453 0.00575875 0)
(1.0456 0.00556041 0)
(1.04591 0.00534669 0)
(1.04622 0.005115 0)
(1.04653 0.00486235 0)
(1.04685 0.00458662 0)
(1.04718 0.00428309 0)
(1.04752 0.00395157 0)
(1.04786 0.00358442 0)
(1.0482 0.00318583 0)
(1.04853 0.00274628 0)
(1.04887 0.00227765 0)
(1.0492 0.0017794 0)
(1.04952 0.00127363 0)
(1.04987 0.000785103 0)
(1.00067 0.00923641 0)
(1.01031 0.0176831 0)
(1.02012 0.0164824 0)
(1.02502 0.0143909 0)
(1.0269 0.0138387 0)
(1.02841 0.0134021 0)
(1.03 0.0126437 0)
(1.03136 0.0119275 0)
(1.0324 0.0113885 0)
(1.03325 0.0109473 0)
(1.034 0.0105479 0)
(1.03467 0.010185 0)
(1.03528 0.0098595 0)
(1.03584 0.0095663 0)
(1.03635 0.00929895 0)
(1.03682 0.00905293 0)
(1.03727 0.00882519 0)
(1.03768 0.0086133 0)
(1.03808 0.00841508 0)
(1.03845 0.00822863 0)
(1.03881 0.00805222 0)
(1.03916 0.00788434 0)
(1.03949 0.00772361 0)
(1.03981 0.00756874 0)
(1.04012 0.0074185 0)
(1.04042 0.00727167 0)
(1.04071 0.00712702 0)
(1.041 0.0069833 0)
(1.04129 0.00683925 0)
(1.04157 0.0066936 0)
(1.04185 0.00654499 0)
(1.04213 0.00639208 0)
(1.04241 0.00623329 0)
(1.04269 0.00606711 0)
(1.04297 0.00589163 0)
(1.04326 0.00570504 0)
(1.04355 0.00550509 0)
(1.04385 0.0052895 0)
(1.04415 0.00505588 0)
(1.04446 0.00480113 0)
(1.04477 0.00452327 0)
(1.04509 0.00421775 0)
(1.04541 0.00388411 0)
(1.04574 0.00351577 0)
(1.04607 0.00311554 0)
(1.0464 0.00267661 0)
(1.04673 0.00220764 0)
(1.04705 0.00171071 0)
(1.04738 0.00120222 0)
(1.04774 0.000701896 0)
(1.00058 0.0083458 0)
(1.00916 0.0166296 0)
(1.01836 0.0159837 0)
(1.02328 0.0140449 0)
(1.02523 0.013508 0)
(1.02671 0.0131583 0)
(1.02827 0.012478 0)
(1.02962 0.0117909 0)
(1.03066 0.0112649 0)
(1.03151 0.0108385 0)
(1.03225 0.0104527 0)
(1.03292 0.0100993 0)
(1.03352 0.00978065 0)
(1.03407 0.00949301 0)
(1.03457 0.00923032 0)
(1.03504 0.00898818 0)
(1.03547 0.00876366 0)
(1.03588 0.00855446 0)
(1.03627 0.00835852 0)
(1.03663 0.008174 0)
(1.03698 0.00799922 0)
(1.03732 0.00783272 0)
(1.03764 0.00767312 0)
(1.03795 0.00751918 0)
(1.03826 0.00736966 0)
(1.03855 0.00722337 0)
(1.03884 0.00707906 0)
(1.03912 0.0069355 0)
(1.0394 0.00679141 0)
(1.03967 0.00664553 0)
(1.03994 0.00649648 0)
(1.04022 0.00634292 0)
(1.04049 0.00618329 0)
(1.04076 0.00601604 0)
(1.04104 0.00583933 0)
(1.04131 0.00565126 0)
(1.0416 0.0054497 0)
(1.04188 0.00523227 0)
(1.04218 0.00499672 0)
(1.04247 0.00473991 0)
(1.04278 0.00445993 0)
(1.04309 0.00415247 0)
(1.0434 0.00381677 0)
(1.04372 0.00344721 0)
(1.04404 0.0030455 0)
(1.04436 0.00260677 0)
(1.04468 0.00213737 0)
(1.04499 0.00164041 0)
(1.04532 0.00112826 0)
(1.04567 0.000615259 0)
(1.0005 0.00753944 0)
(1.00813 0.0156052 0)
(1.01672 0.0154716 0)
(1.02161 0.0137061 0)
(1.02364 0.0131794 0)
(1.0251 0.0129052 0)
(1.02662 0.012305 0)
(1.02797 0.0116514 0)
(1.02901 0.011139 0)
(1.02985 0.0107271 0)
(1.03059 0.0103552 0)
(1.03125 0.0100119 0)
(1.03184 0.00970045 0)
(1.03238 0.00941854 0)