/*--------------------------------*- C++ -*----------------------------------*\
  =========                 |
  \\      /  F ield         | OpenFOAM: The Open Source CFD Toolbox
   \\    /   O peration     | Website:  https://openfoam.org
    \\  /    A nd           | Version:  7
     \\/     M anipulation  |
\*---------------------------------------------------------------------------*/
FoamFile
{
    version     2.0;
    format      ascii;
    class       surfaceScalarField;
    location    "0.5";
    object      ddtCorrDdt0(phi);
}
// * * * * * * * * * * * * * * * * * * * * * * * * * * * * * * * * * * * * * //

dimensions      [0 3 -2 0 0 0 0];

internalField   nonuniform List<scalar> 
139350
(
-1.2698e-10
1.2778e-10
-4.75711e-10
3.5049e-10
-1.08727e-09
6.13532e-10
-1.90903e-09
8.23424e-10
-2.87907e-09
9.71736e-10
-3.93166e-09
1.05416e-09
-4.99269e-09
1.06267e-09
-6.01362e-09
1.02267e-09
-6.98434e-09
9.7253e-10
-7.92492e-09
9.42468e-10
-8.87209e-09
9.49033e-10
-9.86508e-09
9.94654e-10
-1.09351e-08
1.0716e-09
-1.21025e-08
1.16875e-09
-1.33773e-08
1.27651e-09
-1.47655e-08
1.3895e-09
-1.62707e-08
1.50736e-09
-1.79024e-08
1.63304e-09
-1.96708e-08
1.77076e-09
-2.15941e-08
1.92457e-09
-2.36917e-08
2.09926e-09
-2.5989e-08
2.29843e-09
-2.85131e-08
2.52553e-09
-3.12954e-08
2.78348e-09
-3.43677e-08
3.07418e-09
-3.7767e-08
3.40033e-09
-4.15301e-08
3.76527e-09
-4.57003e-08
4.17128e-09
-5.0321e-08
4.6224e-09
-5.54429e-08
5.12347e-09
-6.11139e-08
5.67237e-09
-6.73859e-08
6.27392e-09
-7.4303e-08
6.91848e-09
-8.19076e-08
7.60625e-09
-9.02179e-08
8.31135e-09
-9.92306e-08
9.01364e-09
-1.08896e-07
9.66573e-09
-1.19085e-07
1.01888e-08
-1.29595e-07
1.05099e-08
-1.39959e-07
1.03644e-08
-1.49721e-07
9.76128e-09
-1.57563e-07
7.84256e-09
-1.62505e-07
4.94291e-09
-1.61615e-07
-8.88635e-10
-1.52491e-07
-9.12403e-09
-1.28986e-07
-2.35047e-08
-8.66489e-08
-4.23384e-08
-1.29349e-08
-7.37149e-08
9.5601e-08
-1.08535e-07
-1.98097e-07
2.93701e-07
-1.80663e-10
3.09414e-10
-9.99909e-10
1.17164e-09
-2.66923e-09
2.28498e-09
-5.05691e-09
3.2129e-09
-7.94212e-09
3.8588e-09
-1.10925e-08
4.20629e-09
-1.42557e-08
4.22766e-09
-1.72584e-08
4.02726e-09
-2.00638e-08
3.77992e-09
-2.27417e-08
3.62241e-09
-2.54108e-08
3.62013e-09
-2.81898e-08
3.77538e-09
-3.11692e-08
4.05274e-09
-3.44044e-08
4.40543e-09
-3.79212e-08
4.79512e-09
-4.17324e-08
5.20217e-09
-4.58489e-08
5.62627e-09
-5.02926e-08
6.07813e-09
-5.50928e-08
6.57343e-09
-6.02947e-08
7.12787e-09
-6.59518e-08
7.75815e-09
-7.21297e-08
8.47767e-09
-7.8901e-08
9.2983e-09
-8.63484e-08
1.02322e-08
-9.45613e-08
1.12891e-08
-1.03642e-07
1.24819e-08
-1.13701e-07
1.38264e-08
-1.24866e-07
1.53381e-08
-1.3728e-07
1.70378e-08
-1.51105e-07
1.89508e-08
-1.66519e-07
2.10877e-08
-1.83718e-07
2.34752e-08
-2.02907e-07
2.61081e-08
-2.24307e-07
2.90088e-08
-2.48121e-07
3.21259e-08
-2.7455e-07
3.54442e-08
-3.0372e-07
3.88354e-08
-3.35677e-07
4.21459e-08
-3.70329e-07
4.51616e-08
-4.07156e-07
4.71919e-08
-4.45682e-07
4.8287e-08
-4.83709e-07
4.58705e-08
-5.20042e-07
4.12768e-08
-5.48518e-07
2.75881e-08
-5.66234e-07
8.59249e-09
-5.57997e-07
-3.1742e-08
-5.16781e-07
-8.35555e-08
-4.17235e-07
-1.73262e-07
-2.25041e-07
-3.00727e-07
-3.78671e-07
-4.44626e-08
-9.05061e-11
4.01027e-10
-9.17843e-10
2.00101e-09
-2.99401e-09
4.36339e-09
-6.35053e-09
6.57131e-09
-1.06878e-08
8.19797e-09
-1.56069e-08
9.12724e-09
-2.06696e-08
9.29225e-09
-2.55329e-08
8.89265e-09
-3.00644e-08
8.31353e-09
-3.43263e-08
7.88652e-09
-3.84868e-08
7.78273e-09
-4.27327e-08
8.02312e-09
-4.72164e-08
8.53829e-09
-5.20375e-08
9.22812e-09
-5.72481e-08
1.00076e-08
-6.28757e-08
1.08314e-08
-6.89418e-08
1.1695e-08
-7.5479e-08
1.26169e-08
-8.25304e-08
1.36274e-08
-9.01589e-08
1.47578e-08
-9.84398e-08
1.60409e-08
-1.07464e-07
1.75034e-08
-1.17333e-07
1.91689e-08
-1.28163e-07
2.10629e-08
-1.4008e-07
2.32087e-08
-1.53232e-07
2.56349e-08
-1.67782e-07
2.83789e-08
-1.83921e-07
3.1479e-08
-2.01867e-07
3.49853e-08
-2.21871e-07
3.89572e-08
-2.44217e-07
4.3435e-08
-2.69225e-07
4.8485e-08
-2.97242e-07
5.41267e-08
-3.28662e-07
6.04305e-08
-3.63871e-07
6.73367e-08
-4.033e-07
7.48742e-08
-4.47306e-07
8.28406e-08
-4.962e-07
9.10409e-08
-5.50196e-07
9.9157e-08
-6.0897e-07
1.05966e-07
-6.72477e-07
1.11795e-07
-7.38327e-07
1.11721e-07
-8.05996e-07
1.08947e-07
-8.67803e-07
8.93958e-08
-9.22041e-07
6.2831e-08
-9.48745e-07
-5.03861e-09
-9.39747e-07
-9.2554e-08
-8.6884e-07
-2.4417e-07
-6.70817e-07
-4.98748e-07
-5.36709e-07
-5.12776e-07
-3.69278e-12
4.0593e-10
-5.50059e-10
2.54951e-09
-2.34202e-09
6.15771e-09
-5.74873e-09
9.98001e-09
-1.06498e-08
1.31011e-08
-1.66278e-08
1.51071e-08
-2.31175e-08
1.57839e-08
-2.95945e-08
1.53718e-08
-3.57519e-08
1.44732e-08
-4.15387e-08
1.36755e-08
-4.70823e-08
1.33286e-08
-5.25838e-08
1.35266e-08
-5.82384e-08
1.41948e-08
-6.41957e-08
1.51871e-08
-7.05526e-08
1.63665e-08
-7.73719e-08
1.76523e-08
-8.47012e-08
1.9027e-08
-9.25931e-08
2.05104e-08
-1.01107e-07
2.21435e-08
-1.10318e-07
2.3971e-08
-1.20316e-07
2.60411e-08
-1.31205e-07
2.83932e-08
-1.43097e-07
3.10631e-08
-1.56124e-07
3.40914e-08
-1.70431e-07
3.75172e-08
-1.86184e-07
4.13899e-08
-2.03577e-07
4.57737e-08
-2.22834e-07
5.07373e-08
-2.44216e-07
5.63695e-08
-2.6803e-07
6.27736e-08
-2.94626e-07
7.00328e-08
-3.24406e-07
7.82672e-08
-3.57813e-07
8.75353e-08
-3.95359e-07
9.79782e-08
-4.37564e-07
1.09542e-07
-4.85019e-07
1.22331e-07
-5.38273e-07
1.36094e-07
-5.97834e-07
1.50602e-07
-6.64207e-07
1.65529e-07
-7.37252e-07
1.79011e-07
-8.17374e-07
1.91917e-07
-9.02273e-07
1.9662e-07
-9.92049e-07
1.98724e-07
-1.0788e-06
1.76145e-07
-1.16133e-06
1.45366e-07
-1.21986e-06
5.34914e-08
-1.24136e-06
-7.10532e-08
-1.2103e-06
-2.75239e-07
-1.03544e-06
-6.73605e-07
-7.1556e-07
-8.56584e-07
2.09684e-11
3.86248e-10
-2.34887e-10
2.80759e-09
-1.41062e-09
7.33588e-09
-4.11533e-09
1.26868e-08
-8.56767e-09
1.75556e-08
-1.45804e-08
2.11218e-08
-2.1661e-08
2.28666e-08
-2.92059e-08
2.29189e-08
-3.67294e-08
2.1999e-08
-4.39812e-08
2.09297e-08
-5.09303e-08
2.028e-08
-5.76855e-08
2.02838e-08
-6.44145e-08
2.09258e-08
-7.12871e-08
2.20614e-08
-7.84457e-08
2.35271e-08
-8.60067e-08
2.5215e-08
-9.40676e-08
2.70907e-08
-1.02722e-07
2.91668e-08
-1.12062e-07
3.14854e-08
-1.22184e-07
3.40955e-08
-1.33194e-07
3.70525e-08
-1.45202e-07
4.04031e-08
-1.58328e-07
4.41909e-08
-1.72704e-07
4.84685e-08
-1.88476e-07
5.32914e-08
-2.05815e-07
5.87301e-08
-2.24918e-07
6.48795e-08
-2.46022e-07
7.18427e-08
-2.69404e-07
7.97532e-08
-2.95393e-07
8.87652e-08
-3.24372e-07
9.90129e-08
-3.56784e-07
1.10681e-07
-3.93123e-07
1.23876e-07
-4.33965e-07
1.38823e-07
-4.7991e-07
1.55488e-07
-5.31633e-07
1.74056e-07
-5.89812e-07
1.94273e-07
-6.55047e-07
2.15837e-07
-7.28048e-07
2.3853e-07
-8.08791e-07
2.59754e-07
-8.97931e-07
2.81057e-07
-9.93405e-07
2.92095e-07
-1.09545e-06
3.00769e-07
-1.19687e-06
2.77569e-07
-1.29542e-06
2.43915e-07
-1.37533e-06
1.33404e-07
-1.41507e-06
-3.132e-08
-1.41262e-06
-2.77684e-07
-1.26628e-06
-8.19942e-07
-9.48192e-07
-1.03365e-06
7.62173e-12
3.79974e-10
-9.23466e-11
2.90984e-09
-7.13053e-10
7.95909e-09
-2.46173e-09
1.44376e-08
-5.80988e-09
2.09059e-08
-1.09098e-08
2.62238e-08
-1.75553e-08
2.95142e-08
-2.52765e-08
3.06424e-08
-3.3544e-08
3.0269e-08
-4.19377e-08
2.93258e-08
-5.02092e-08
2.85539e-08
-5.82705e-08
2.83471e-08
-6.61535e-08
2.88108e-08
-7.39651e-08
2.98747e-08
-8.1847e-08
3.14112e-08
-8.99559e-08
3.33256e-08
-9.84482e-08
3.55859e-08
-1.0748e-07
3.82006e-08
-1.17198e-07
4.12058e-08
-1.27744e-07
4.46431e-08
-1.39252e-07
4.85625e-08
-1.51853e-07
5.30057e-08
-1.65674e-07
5.80134e-08
-1.80846e-07
6.36423e-08
-1.97511e-07
6.99588e-08
-2.15832e-07
7.70521e-08
-2.35996e-07
8.50464e-08
-2.58233e-07
9.40813e-08
-2.82815e-07
1.04337e-07
-3.10071e-07
1.16024e-07
-3.40387e-07
1.2933e-07
-3.74218e-07
1.44515e-07
-4.12077e-07
1.61736e-07
-4.54561e-07
1.81309e-07
-5.02309e-07
2.03237e-07
-5.56025e-07
2.27772e-07
-6.16458e-07
2.54706e-07
-6.84238e-07
2.83618e-07
-7.60175e-07
3.14467e-07
-8.44332e-07
3.43911e-07
-9.37383e-07
3.74109e-07
-1.03763e-06
3.9234e-07
-1.14492e-06
4.08064e-07
-1.25344e-06
3.86088e-07
-1.3585e-06
3.48976e-07
-1.45031e-06
2.25216e-07
-1.4985e-06
1.68643e-08
-1.50897e-06
-2.67218e-07
-1.38632e-06
-9.42583e-07
-1.23758e-06
-1.09693e-06
-6.64814e-12
3.8802e-10
-6.95325e-11
2.97508e-09
-3.75212e-10
8.26734e-09
-1.35276e-09
1.54173e-08
-3.51245e-09
2.30678e-08
-7.24602e-09
2.99594e-08
-1.26842e-08
3.49547e-08
-1.96542e-08
3.76146e-08
-2.77801e-08
3.83974e-08
-3.66264e-08
3.81745e-08
-4.57978e-08
3.77277e-08
-5.49948e-08
3.75462e-08
-6.40393e-08
3.78573e-08
-7.28787e-08
3.87159e-08
-8.15668e-08
4.01015e-08
-9.02395e-08
4.2e-08
-9.90823e-08
4.44316e-08
-1.08309e-07
4.74286e-08
-1.18132e-07
5.1032e-08
-1.28761e-07
5.52734e-08
-1.40382e-07
6.01862e-08
-1.53168e-07
6.57931e-08
-1.6727e-07
7.21171e-08
-1.82831e-07
7.92049e-08
-1.99992e-07
8.71219e-08
-2.18906e-07
9.59676e-08
-2.39747e-07
1.0589e-07
-2.62725e-07
1.17061e-07
-2.88093e-07
1.29707e-07
-3.16162e-07
1.44095e-07
-3.47299e-07
1.6047e-07
-3.81949e-07
1.79167e-07
-4.20615e-07
2.00404e-07
-4.63886e-07
2.24582e-07
-5.12412e-07
2.51765e-07
-5.66885e-07
2.82246e-07
-6.28086e-07
3.15908e-07
-6.96644e-07
3.52175e-07
-7.73382e-07
3.91204e-07
-8.58458e-07
4.28987e-07
-9.52403e-07
4.68055e-07
-1.05396e-06
4.93896e-07
-1.16229e-06
5.164e-07
-1.27331e-06
4.97109e-07
-1.37928e-06
4.54941e-07
-1.47653e-06
3.22471e-07
-1.52884e-06
6.91737e-08
-1.54035e-06
-2.55715e-07
-1.43525e-06
-1.04767e-06
-1.57748e-06
-1.09536e-06
-8.34804e-12
3.97809e-10
-8.50297e-11
3.05417e-09
-2.83961e-10
8.46889e-09
-8.31684e-10
1.59672e-08
-2.12382e-09
2.43622e-08
-4.60059e-09
3.24383e-08
-8.61063e-09
3.89669e-08
-1.42808e-08
4.32872e-08
-2.15023e-08
4.56214e-08
-2.99907e-08
4.66654e-08
-3.93595e-08
4.70989e-08
-4.91948e-08
4.73837e-08
-5.91322e-08
4.77967e-08
-6.89202e-08
4.85058e-08
-7.84501e-08
4.96337e-08
-8.77562e-08
5.1308e-08
-9.69863e-08
5.36646e-08
-1.06368e-07
5.68126e-08
-1.16165e-07
6.08319e-08
-1.26652e-07
6.57617e-08
-1.38086e-07
7.16217e-08
-1.50699e-07
7.84086e-08
-1.64695e-07
8.61145e-08
-1.80248e-07
9.47594e-08
-1.97515e-07
1.04392e-07
-2.16653e-07
1.15107e-07
-2.37824e-07
1.27063e-07
-2.61219e-07
1.40458e-07
-2.87065e-07
1.55554e-07
-3.15641e-07
1.72672e-07
-3.47283e-07
1.92114e-07
-3.82399e-07
2.14286e-07
-4.21467e-07
2.39473e-07
-4.65037e-07
2.68154e-07
-5.13744e-07
3.00473e-07
-5.68241e-07
3.36744e-07
-6.29303e-07
3.7697e-07
-6.97543e-07
4.20416e-07
-7.73736e-07
4.67396e-07
-8.58145e-07
5.13396e-07
-9.51073e-07
5.60983e-07
-1.05174e-06
5.94568e-07
-1.15852e-06
6.23178e-07
-1.26919e-06
6.07778e-07
-1.3731e-06
5.58852e-07
-1.47124e-06
4.20613e-07
-1.52764e-06
1.25575e-07
-1.53142e-06
-2.51943e-07
-1.44595e-06
-1.13313e-06
-1.95097e-06
-1.07245e-06
-2.80798e-12
4.02098e-10
-9.21573e-11
3.14598e-09
-2.86684e-10
8.6661e-09
-6.84206e-10
1.6367e-08
-1.52282e-09
2.52031e-08
-3.16584e-09
3.40835e-08
-6.0123e-09
4.18157e-08
-1.03661e-08
4.76434e-08
-1.63597e-08
5.16176e-08
-2.39304e-08
5.42386e-08
-3.28296e-08
5.60006e-08
-4.26674e-08
5.72238e-08
-5.29958e-08
5.81272e-08
-6.34099e-08
5.89218e-08
-7.36276e-08
5.98536e-08
-8.35321e-08
6.12144e-08
-9.3168e-08
6.33035e-08
-1.02716e-07
6.6362e-08
-1.12439e-07
7.05585e-08
-1.22653e-07
7.59769e-08
-1.33674e-07
8.2645e-08
-1.45806e-07
9.05422e-08
-1.59317e-07
9.9627e-08
-1.74437e-07
1.09881e-07
-1.91364e-07
1.21321e-07
-2.10275e-07
1.3402e-07
-2.31338e-07
1.48128e-07
-2.54733e-07
1.63855e-07
-2.80663e-07
1.81486e-07
-3.09374e-07
2.01385e-07
-3.4116e-07
2.23902e-07
-3.76381e-07
2.49509e-07
-4.15466e-07
2.7856e-07
-4.58906e-07
3.11596e-07
-5.07291e-07
3.48859e-07
-5.61213e-07
3.90667e-07
-6.21399e-07
4.37156e-07
-6.88433e-07
4.87451e-07
-7.62994e-07
5.41957e-07
-8.45447e-07
5.95849e-07
-9.35836e-07
6.51372e-07
-1.03386e-06
6.92594e-07
-1.13712e-06
7.26439e-07
-1.24511e-06
7.15768e-07
-1.34551e-06
6.59251e-07
-1.44031e-06
5.15418e-07
-1.50258e-06
1.87837e-07
-1.49531e-06
-2.59207e-07
-1.42689e-06
-1.20155e-06
-2.34389e-06
-1.03397e-06
3.38753e-12
4.0023e-10
-8.80925e-11
3.23998e-09
-2.9802e-10
8.87876e-09
-6.80815e-10
1.67521e-08
-1.37002e-09
2.58947e-08
-2.61634e-09
3.53321e-08
-4.76426e-09
4.39659e-08
-8.15814e-09
5.10398e-08
-1.30596e-08
5.65217e-08
-1.95877e-08
6.07693e-08
-2.76697e-08
6.40851e-08
-3.70312e-08
6.65874e-08
-4.72497e-08
6.83479e-08
-5.7859e-08
6.95329e-08
-6.84554e-08
7.04525e-08
-7.87794e-08
7.15403e-08
-8.87447e-08
7.32719e-08
-9.84366e-08
7.60557e-08
-1.08069e-07
8.01939e-08
-1.17949e-07
8.58587e-08
-1.28424e-07
9.31219e-08
-1.3985e-07
1.0197e-07
-1.52559e-07
1.12339e-07
-1.6685e-07
1.24174e-07
-1.82976e-07
1.3745e-07
-2.01158e-07
1.52203e-07
-2.21586e-07
1.6856e-07
-2.4445e-07
1.8672e-07
-2.6994e-07
2.06978e-07
-2.98273e-07
2.29721e-07
-3.29705e-07
2.55337e-07
-3.6454e-07
2.84347e-07
-4.03147e-07
3.17169e-07
-4.45942e-07
3.54393e-07
-4.93441e-07
3.96359e-07
-5.46156e-07
4.43384e-07
-6.04728e-07
4.95727e-07
-6.6969e-07
5.52413e-07
-7.41587e-07
6.13854e-07
-8.20858e-07
6.7512e-07
-9.07297e-07
7.37812e-07
-1.00101e-06
7.86307e-07
-1.09907e-06
8.24503e-07
-1.20199e-06
8.18684e-07
-1.29807e-06
7.55332e-07
-1.38598e-06
6.03329e-07
-1.45355e-06
2.55407e-07
-1.44e-06
-2.72751e-07
-1.37622e-06
-1.26532e-06
-2.71153e-06
-1.00857e-06
7.97142e-12
3.93813e-10
-8.02358e-11
3.33075e-09
-2.99025e-10
9.10033e-09
-7.03125e-10
1.71586e-08
-1.38695e-09
2.65809e-08
-2.52602e-09
3.64734e-08
-4.38547e-09
4.58278e-08
-7.26598e-09
5.39228e-08
-1.14565e-08
6.07148e-08
-1.71694e-08
6.64849e-08
-2.44623e-08
7.13806e-08
-3.3189e-08
7.53164e-08
-4.30113e-08
7.81725e-08
-5.34805e-08
8.0004e-08
-6.41452e-08
8.11195e-08
-7.46517e-08
8.20487e-08
-8.48008e-08
8.3424e-08
-9.45714e-08
8.58282e-08
-1.04096e-07
8.97219e-08
-1.13636e-07
9.54003e-08
-1.23527e-07
1.03015e-07
-1.34147e-07
1.12591e-07
-1.45873e-07
1.24067e-07
-1.59061e-07
1.37363e-07
-1.74024e-07
1.52416e-07
-1.91037e-07
1.69218e-07
-2.10332e-07
1.87857e-07
-2.32119e-07
2.08509e-07
-2.56596e-07
2.31457e-07
-2.83965e-07
2.57092e-07
-3.14452e-07
2.85825e-07
-3.48309e-07
3.18206e-07
-3.85844e-07
3.54705e-07
-4.27392e-07
3.95943e-07
-4.73378e-07
4.42347e-07
-5.24218e-07
4.94225e-07
-5.80434e-07
5.51943e-07
-6.42486e-07
6.14465e-07
-7.10762e-07
6.82129e-07
-7.85721e-07
7.50079e-07
-8.66951e-07
8.19042e-07
-9.54802e-07
8.74159e-07
-1.04627e-06
9.15969e-07
-1.14186e-06
9.14278e-07
-1.23262e-06
8.46093e-07
-1.31212e-06
6.82835e-07
-1.38055e-06
3.23833e-07
-1.37047e-06
-2.82829e-07
-1.30137e-06
-1.33442e-06
-3.02285e-06
-9.90045e-07
1.16384e-11
3.83765e-10
-7.31428e-11
3.41815e-09
-2.93613e-10
9.32364e-09
-7.1741e-10
1.75848e-08
-1.43747e-09
2.73035e-08
-2.5983e-09
3.76366e-08
-4.41222e-09
4.76441e-08
-7.12623e-09
5.66394e-08
-1.09985e-08
6.45898e-08
-1.62574e-08
7.17465e-08
-2.30233e-08
7.81491e-08
-3.12371e-08
8.35326e-08
-4.06443e-08
8.75819e-08
-5.08476e-08
9.02093e-08
-6.14019e-08
9.16762e-08
-7.19142e-08
9.2563e-08
-8.2114e-08
9.36268e-08
-9.18943e-08
9.56106e-08
-1.01306e-07
9.91364e-08
-1.10543e-07
1.0464e-07
-1.19904e-07
1.12378e-07
-1.29754e-07
1.22442e-07
-1.40486e-07
1.34801e-07
-1.5249e-07
1.4937e-07
-1.66129e-07
1.66056e-07
-1.81724e-07
1.84815e-07
-1.99555e-07
2.0569e-07
-2.19863e-07
2.2882e-07
-2.42865e-07
2.5446e-07
-2.68762e-07
2.82992e-07
-2.97764e-07
3.14829e-07
-3.30086e-07
3.5053e-07
-3.65978e-07
3.90599e-07
-4.057e-07
4.35668e-07
-4.49585e-07
4.86233e-07
-4.97943e-07
5.42584e-07
-5.51167e-07
6.05167e-07
-6.09613e-07
6.72912e-07
-6.73514e-07
7.4603e-07
-7.43284e-07
8.19849e-07
-8.18369e-07
8.94128e-07
-8.9917e-07
9.54961e-07
-9.83008e-07
9.99808e-07
-1.06974e-06
1.00101e-06
-1.15378e-06
9.30128e-07
-1.22531e-06
7.54374e-07
-1.28929e-06
3.87804e-07
-1.28989e-06
-2.82222e-07
-1.21843e-06
-1.40587e-06
-3.27502e-06
-9.66259e-07
1.53319e-11
3.70058e-10
-6.71638e-11
3.50332e-09
-2.87361e-10
9.54672e-09
-7.2495e-10
1.80248e-08
-1.48317e-09
2.80642e-08
-2.70225e-09
3.8858e-08
-4.57317e-09
4.95175e-08
-7.30808e-09
5.93769e-08
-1.11303e-08
6.84147e-08
-1.62495e-08
7.68685e-08
-2.27963e-08
8.46985e-08
-3.07483e-08
9.14869e-08
-3.99007e-08
9.67366e-08
-4.99016e-08
1.00212e-07
-6.03308e-08
1.02108e-07
-7.07926e-08
1.03027e-07
-8.09847e-08
1.03822e-07
-9.07476e-08
1.05376e-07
-1.00069e-07
1.08461e-07
-1.09083e-07
1.13655e-07
-1.18036e-07
1.21333e-07
-1.27262e-07
1.3167e-07
-1.37145e-07
1.44686e-07
-1.48084e-07
1.60311e-07
-1.60467e-07
1.78441e-07
-1.7465e-07
1.99e-07
-1.90947e-07
2.2199e-07
-2.09634e-07
2.47508e-07
-2.30948e-07
2.75776e-07
-2.551e-07
3.07147e-07
-2.82293e-07
3.42024e-07
-3.12717e-07
3.80957e-07
-3.46581e-07
4.24465e-07
-3.84081e-07
4.7317e-07
-4.25464e-07
5.27617e-07
-4.70943e-07
5.88064e-07
-5.20781e-07
6.55006e-07
-5.7522e-07
7.27351e-07
-6.34347e-07
8.05157e-07
-6.98476e-07
8.83978e-07
-7.66981e-07
9.62633e-07
-8.40169e-07
1.02815e-06
-9.15869e-07
1.07551e-06
-9.93238e-07
1.07838e-06
-1.06942e-06
1.00631e-06
-1.13404e-06
8.18995e-07
-1.191e-06
4.44764e-07
-1.20369e-06
-2.69533e-07
-1.14178e-06
-1.46777e-06
-3.47442e-06
-9.4237e-07
1.93251e-11
3.52391e-10
-6.14998e-11
3.58686e-09
-2.81713e-10
9.76986e-09
-7.31348e-10
1.8477e-08
-1.52382e-09
2.88592e-08
-2.80387e-09
4.01405e-08
-4.75906e-09
5.14752e-08
-7.58892e-09
6.22095e-08
-1.14962e-08
7.23247e-08
-1.66707e-08
8.20458e-08
-2.32315e-08
9.1262e-08
-3.1159e-08
9.94168e-08
-4.02637e-08
1.05844e-07
-5.02158e-08
1.10166e-07
-6.06149e-08
1.12509e-07
-7.10733e-08
1.13487e-07
-8.12809e-08
1.14033e-07
-9.10538e-08
1.1515e-07
-1.00343e-07
1.17753e-07
-1.09237e-07
1.22552e-07
-1.17941e-07
1.30039e-07
-1.26752e-07
1.40483e-07
-1.36028e-07
1.53964e-07
-1.46161e-07
1.70445e-07
-1.57541e-07
1.89824e-07
-1.70541e-07
2.12002e-07
-1.85496e-07
2.36947e-07
-2.02702e-07
2.64716e-07
-2.22414e-07
2.95491e-07
-2.44854e-07
3.2959e-07
-2.70223e-07
3.67394e-07
-2.98695e-07
4.09432e-07
-3.30451e-07
4.56223e-07
-3.65639e-07
5.0836e-07
-4.04433e-07
5.66412e-07
-4.46963e-07
6.30595e-07
-4.93383e-07
7.01426e-07
-5.43815e-07
7.77783e-07
-5.98232e-07
8.59572e-07
-6.56808e-07
9.42555e-07
-7.18904e-07
1.02473e-06
-7.84677e-07
1.09392e-06
-8.52418e-07
1.14325e-06
-9.20927e-07
1.14689e-06
-9.89129e-07
1.07451e-06
-1.04784e-06
8.77703e-07
-1.09852e-06
4.95447e-07
-1.12173e-06
-2.46317e-07
-1.08107e-06
-1.50843e-06
-3.61927e-06
-9.3622e-07
2.3511e-11
3.30573e-10
-5.36645e-11
3.6668e-09
-2.76272e-10
9.99545e-09
-7.38649e-10
1.89419e-08
-1.5644e-09
2.96875e-08
-2.90343e-09
4.1482e-08
-4.9453e-09
5.35196e-08
-7.88931e-09
6.51562e-08
-1.19323e-08
7.63705e-08
-1.72537e-08
8.737e-08
-2.39603e-08
9.79714e-08
-3.20225e-08
1.07481e-07
-4.1246e-08
1.15069e-07
-5.13019e-08
1.20224e-07
-6.17951e-08
1.23005e-07
-7.23432e-08
1.24037e-07
-8.26364e-08
1.24329e-07
-9.2483e-08
1.24999e-07
-1.01816e-07
1.27089e-07
-1.10702e-07
1.31439e-07
-1.19313e-07
1.38652e-07
-1.27919e-07
1.49091e-07
-1.36855e-07
1.62902e-07
-1.46492e-07
1.80084e-07
-1.57213e-07
2.00548e-07
-1.69391e-07
2.24181e-07
-1.83366e-07
2.50924e-07
-1.99441e-07
2.80794e-07
-2.17882e-07
3.13934e-07
-2.38914e-07
3.50624e-07
-2.62736e-07
3.91218e-07
-2.89514e-07
4.36213e-07
-3.19405e-07
4.86116e-07
-3.52523e-07
5.4148e-07
-3.88989e-07
6.02879e-07
-4.28867e-07
6.70475e-07
-4.72222e-07
7.44781e-07
-5.19076e-07
8.24638e-07
-5.69314e-07
9.0981e-07
-6.22964e-07
9.96206e-07
-6.79423e-07
1.08119e-06
-7.387e-07
1.1532e-06
-7.99423e-07
1.20398e-06
-8.6042e-07
1.20789e-06
-9.21643e-07
1.13574e-06
-9.75764e-07
9.31825e-07
-1.02287e-06
5.4255e-07
-1.0554e-06
-2.13776e-07
-1.04337e-06
-1.52045e-06
-3.69984e-06
-9.62787e-07
2.77673e-11
3.04531e-10
-4.49057e-11
3.74229e-09
-2.70689e-10
1.02243e-08
-7.468e-10
1.94206e-08
-1.60682e-09
3.05501e-08
-3.00526e-09
4.28829e-08
-5.13339e-09
5.56503e-08
-8.19439e-09
6.82199e-08
-1.23872e-08
8.05662e-08
-1.78892e-08
9.28748e-08
-2.48005e-08
1.04886e-07
-3.30807e-08
1.15764e-07
-4.25234e-08
1.24514e-07
-5.27896e-08
1.30493e-07
-6.34781e-08
1.33696e-07
-7.42045e-08
1.34766e-07
-8.46588e-08
1.34787e-07
-9.46476e-08
1.3499e-07
-1.041e-07
1.36544e-07
-1.1307e-07
1.40411e-07
-1.21718e-07
1.47303e-07
-1.30296e-07
1.57671e-07
-1.3912e-07
1.71727e-07
-1.48547e-07
1.89512e-07
-1.58946e-07
2.10949e-07
-1.70681e-07
2.35919e-07
-1.84089e-07
2.64334e-07
-1.99472e-07
2.9618e-07
-2.17094e-07
3.31557e-07
-2.37178e-07
3.70711e-07
-2.59919e-07
4.13961e-07
-2.85473e-07
4.61769e-07
-3.13978e-07
5.14624e-07
-3.45527e-07
5.73031e-07
-3.80199e-07
6.37552e-07
-4.18014e-07
7.08291e-07
-4.58967e-07
7.85734e-07
-5.0301e-07
8.68681e-07
-5.49965e-07
9.56765e-07
-5.99734e-07
1.04597e-06
-6.51786e-07
1.13324e-06
-7.06006e-07
1.20742e-06
-7.613e-07
1.25927e-06
-8.16738e-07
1.26333e-06
-8.72804e-07
1.19181e-06
-9.24401e-07
9.83423e-07
-9.71338e-07
5.89489e-07
-1.01344e-06
-1.71667e-07
-1.0345e-06
-1.49939e-06
-3.70686e-06
-1.02748e-06
3.20557e-11
2.74232e-10
-3.58941e-11
3.8131e-09
-2.64967e-10
1.04564e-08
-7.55508e-10
1.99137e-08
-1.65105e-09
3.14483e-08
-3.11093e-09
4.43453e-08
-5.32691e-09
5.78689e-08
-8.50637e-09
7.14022e-08
-1.28533e-08
8.4916e-08
-1.85472e-08
9.85716e-08
-2.56859e-08
1.12027e-07
-3.42207e-08
1.24301e-07
-4.39322e-08
1.34228e-07
-5.44677e-08
1.4103e-07
-6.54143e-08
1.44645e-07
-7.63803e-08
1.45734e-07
-8.70528e-08
1.45462e-07
-9.72379e-08
1.45177e-07
-1.06864e-07
1.46174e-07
-1.15986e-07
1.49535e-07
-1.24761e-07
1.5608e-07
-1.33433e-07
1.66345e-07
-1.4231e-07
1.80607e-07
-1.5174e-07
1.98944e-07
-1.62083e-07
2.21295e-07
-1.73695e-07
2.47532e-07
-1.86904e-07
2.77545e-07
-2.02005e-07
3.11283e-07
-2.19256e-07
3.48811e-07
-2.38875e-07
3.90332e-07
-2.61048e-07
4.36136e-07
-2.8592e-07
4.86644e-07
-3.13617e-07
5.42323e-07
-3.44212e-07
6.03628e-07
-3.77755e-07
6.71097e-07
-4.14239e-07
7.44776e-07
-4.53609e-07
8.25104e-07
-4.95776e-07
9.10847e-07
-5.40525e-07
1.00151e-06
-5.8767e-07
1.09312e-06
-6.36764e-07
1.18234e-06
-6.87619e-07
1.25828e-06
-7.39432e-07
1.31109e-06
-7.91552e-07
1.31545e-06
-8.44777e-07
1.24503e-06
-8.96463e-07
1.03511e-06
-9.46702e-07
6.3973e-07
-1.00028e-06
-1.18083e-07
-1.05751e-06
-1.44216e-06
-3.63625e-06
-1.12811e-06
3.63778e-11
2.39643e-10
-2.66893e-11
3.87907e-09
-2.59215e-10
1.06921e-08
-7.64733e-10
2.04219e-08
-1.69674e-09
3.2383e-08
-3.22044e-09
4.58716e-08
-5.52706e-09
6.01782e-08
-8.82787e-09
7.47059e-08
-1.33326e-08
8.94236e-08
-1.92245e-08
1.04466e-07
-2.66009e-08
1.19406e-07
-3.54062e-08
1.33109e-07
-4.54092e-08
1.44234e-07
-5.62425e-08
1.51866e-07
-6.74799e-08
1.55885e-07
-7.87201e-08
1.56977e-07
-8.96451e-08
1.5639e-07
-1.0006e-07
1.55595e-07
-1.09896e-07
1.56013e-07
-1.1921e-07
1.58851e-07
-1.28163e-07
1.65034e-07
-1.37001e-07
1.75185e-07
-1.46032e-07
1.8964e-07
-1.55602e-07
2.08516e-07
-1.66068e-07
2.31763e-07
-1.77779e-07
2.59245e-07
-1.91056e-07
2.90826e-07
-2.06191e-07
3.2642e-07
-2.23433e-07
3.66054e-07
-2.42991e-07
4.09892e-07
-2.65043e-07
4.5819e-07
-2.89726e-07
5.1133e-07
-3.17152e-07
5.69751e-07
-3.4738e-07
6.33859e-07
-3.80443e-07
7.04161e-07
-4.16316e-07
7.8065e-07
-4.54913e-07
8.63702e-07
-4.96124e-07
9.52059e-07
-5.39723e-07
1.04511e-06
-5.85491e-07
1.13889e-06
-6.33052e-07
1.2299e-06
-6.82216e-07
1.30744e-06
-7.32495e-07
1.36137e-06
-7.83527e-07
1.36648e-06
-8.36379e-07
1.29789e-06
-8.90813e-07
1.08955e-06
-9.47709e-07
6.96628e-07
-1.0159e-06
-4.98848e-08
-1.11108e-06
-1.34697e-06
-3.48771e-06
-1.25961e-06
4.0737e-11
2.00725e-10
-1.73093e-11
3.94006e-09
-2.53501e-10
1.09314e-08
-7.74543e-10
2.09457e-08
-1.74374e-09
3.33549e-08
-3.33344e-09
4.74639e-08
-5.73382e-09
6.25813e-08
-9.15962e-09
7.81345e-08
-1.38268e-08
9.40938e-08
-1.99227e-08
1.10565e-07
-2.75442e-08
1.27031e-07
-3.66297e-08
1.42197e-07
-4.69362e-08
1.54543e-07
-5.80817e-08
1.63013e-07
-6.96263e-08
1.67432e-07
-8.11582e-08
1.68511e-07
-9.23536e-08
1.67589e-07
-1.03016e-07
1.6626e-07
-1.1308e-07
1.6608e-07
-1.22607e-07
1.6838e-07
-1.31764e-07
1.74194e-07
-1.40805e-07
1.84227e-07
-1.50043e-07
1.98881e-07
-1.59828e-07
2.18303e-07
-1.70517e-07
2.42454e-07
-1.8246e-07
2.71189e-07
-1.95975e-07
3.04344e-07
-2.11349e-07
3.41796e-07
-2.28826e-07
3.83533e-07
-2.48608e-07
4.29678e-07
-2.70868e-07
4.80452e-07
-2.95732e-07
5.36197e-07
-3.23304e-07
5.97325e-07
-3.53636e-07
6.64193e-07
-3.86744e-07
7.37271e-07
-4.22598e-07
8.16505e-07
-4.61096e-07
9.022e-07
-5.02125e-07
9.93088e-07
-5.45463e-07
1.08845e-06
-5.90906e-07
1.18433e-06
-6.38149e-07
1.27714e-06
-6.87067e-07
1.35636e-06
-7.3749e-07
1.41179e-06
-7.89411e-07
1.41841e-06
-8.44177e-07
1.35266e-06
-9.03724e-07
1.1491e-06
-9.7038e-07
7.63287e-07
-1.05666e-06
3.63993e-08
-1.19082e-06
-1.21281e-06
-3.26246e-06
-1.41607e-06
4.51276e-11
1.57446e-10
-7.75054e-12
3.99593e-09
-2.47843e-10
1.11747e-08
-7.84996e-10
2.14856e-08
-1.79195e-09
3.43646e-08
-3.44973e-09
4.91244e-08
-5.94692e-09
6.50812e-08
-9.50152e-09
8.1692e-08
-1.43361e-08
9.89314e-08
-2.06424e-08
1.16875e-07
-2.85168e-08
1.34908e-07
-3.78909e-08
1.51574e-07
-4.85101e-08
1.65164e-07
-5.99773e-08
1.74483e-07
-7.18387e-08
1.79296e-07
-8.36718e-08
1.80346e-07
-9.51466e-08
1.79067e-07
-1.06066e-07
1.77181e-07
-1.16366e-07
1.76383e-07
-1.26115e-07
1.78131e-07
-1.35488e-07
1.8357e-07
-1.44748e-07
1.9349e-07
-1.54217e-07
2.08352e-07
-1.64252e-07
2.28339e-07
-1.75215e-07
2.5342e-07
-1.87458e-07
2.83435e-07
-2.01302e-07
3.1819e-07
-2.17031e-07
3.57527e-07
-2.34886e-07
4.0139e-07
-2.55067e-07
4.49861e-07
-2.77739e-07
5.03126e-07
-3.03026e-07
5.61487e-07
-3.31022e-07
6.25324e-07
-3.61776e-07
6.94948e-07
-3.95295e-07
7.70791e-07
-4.31549e-07
8.5276e-07
-4.70433e-07
9.41084e-07
-5.11843e-07
1.0345e-06
-5.55575e-07
1.13218e-06
-6.01476e-07
1.23023e-06
-6.4932e-07
1.32499e-06
-6.991e-07
1.40615e-06
-7.50949e-07
1.46364e-06
-8.05324e-07
1.47278e-06
-8.63905e-07
1.41124e-06
-9.30497e-07
1.21569e-06
-1.0095e-06
8.42298e-07
-1.11694e-06
1.43837e-07
-1.29082e-06
-1.03892e-06
-2.96293e-06
-1.59033e-06
4.95403e-11
1.09782e-10
1.97815e-12
4.04652e-09
-2.42247e-10
1.14221e-08
-7.9611e-10
2.20422e-08
-1.84133e-09
3.54126e-08
-3.56912e-09
5.08548e-08
-6.16612e-09
6.7681e-08
-9.8533e-09
8.53822e-08
-1.48603e-08
1.03941e-07
-2.13836e-08
1.23401e-07
-2.95184e-08
1.43046e-07
-3.91898e-08
1.61248e-07
-5.01302e-08
1.76107e-07
-6.19275e-08
1.86283e-07
-7.41133e-08
1.91485e-07
-8.62541e-08
1.92489e-07
-9.80141e-08
1.9083e-07
-1.09194e-07
1.88363e-07
-1.19734e-07
1.86926e-07
-1.29709e-07
1.88108e-07
-1.39303e-07
1.93166e-07
-1.48789e-07
2.02977e-07
-1.58498e-07
2.18064e-07
-1.68798e-07
2.3864e-07
-1.80057e-07
2.64682e-07
-1.92633e-07
2.96013e-07
-2.06849e-07
3.32409e-07
-2.22991e-07
3.73671e-07
-2.41298e-07
4.19699e-07
-2.61968e-07
4.70534e-07
-2.85165e-07
5.26325e-07
-3.11009e-07
5.87333e-07
-3.3959e-07
6.53907e-07
-3.70955e-07
7.26316e-07
-4.05107e-07
8.04945e-07
-4.4202e-07
8.89675e-07
-4.81594e-07
9.80658e-07
-5.23745e-07
1.07665e-06
-5.68299e-07
1.17674e-06
-6.15171e-07
1.27711e-06
-6.64236e-07
1.37405e-06
-7.15648e-07
1.45756e-06
-7.69814e-07
1.51781e-06
-8.27761e-07
1.53073e-06
-8.91597e-07
1.47508e-06
-9.66724e-07
1.29082e-06
-1.06e-06
9.35581e-07
-1.19103e-06
2.74868e-07
-1.40496e-06
-8.24977e-07
-2.59289e-06
-1.77499e-06
5.39653e-11
5.77205e-11
1.18791e-11
4.09166e-09
-2.36712e-10
1.1674e-08
-8.07883e-10
2.26162e-08
-1.89206e-09
3.64996e-08
-3.69141e-09
5.26569e-08
-6.39116e-09
7.03836e-08
-1.02146e-08
8.92086e-08
-1.53989e-08
1.09129e-07
-2.21455e-08
1.30151e-07
-3.05487e-08
1.51452e-07
-4.05256e-08
1.71228e-07
-5.17959e-08
1.8738e-07
-6.39313e-08
1.9842e-07
-7.64486e-08
2.04004e-07
-8.8903e-08
2.04946e-07
-1.00952e-07
2.02883e-07
-1.12397e-07
1.9981e-07
-1.23179e-07
1.97711e-07
-1.33382e-07
1.98312e-07
-1.43197e-07
2.02984e-07
-1.5291e-07
2.12692e-07
-1.62864e-07
2.28019e-07
-1.73434e-07
2.49212e-07
-1.84998e-07
2.76249e-07
-1.97921e-07
3.08938e-07
-2.12529e-07
3.47019e-07
-2.29108e-07
3.90253e-07
-2.47901e-07
4.38495e-07
-2.69105e-07
4.91741e-07
-2.9288e-07
5.50103e-07
-3.19348e-07
6.13804e-07
-3.48595e-07
6.83155e-07
-3.80668e-07
7.58391e-07
-4.1557e-07
8.39848e-07
-4.53283e-07
9.27389e-07
-4.93715e-07
1.02109e-06
-5.3681e-07
1.11975e-06
-5.82434e-07
1.22236e-06
-6.30583e-07
1.32525e-06
-6.81246e-07
1.42472e-06
-7.34777e-07
1.51109e-06
-7.9184e-07
1.57488e-06
-8.54096e-07
1.59299e-06
-9.24182e-07
1.54517e-06
-1.00897e-06
1.37561e-06
-1.11778e-06
1.0444e-06
-1.27392e-06
4.31013e-07
-1.52769e-06
-5.71201e-07
-2.15718e-06
-1.96339e-06
5.83938e-11
1.25549e-12
2.1943e-11
4.13121e-09
-2.31231e-10
1.19305e-08
-8.20294e-10
2.32081e-08
-1.94465e-09
3.76268e-08
-3.8164e-09
5.45314e-08
-6.62175e-09
7.31918e-08
-1.05852e-08
9.31751e-08
-1.59515e-08
1.14498e-07
-2.29275e-08
1.3713e-07
-3.16066e-08
1.60134e-07
-4.18974e-08
1.81521e-07
-5.35059e-08
1.98991e-07
-6.59874e-08
2.10904e-07
-7.88432e-08
2.16863e-07
-9.16168e-08
2.17722e-07
-1.0396e-07
2.15229e-07
-1.15671e-07
2.11524e-07
-1.26698e-07
2.08741e-07
-1.37128e-07
2.08745e-07
-1.47167e-07
2.13024e-07
-1.57108e-07
2.22635e-07
-1.67306e-07
2.3822e-07
-1.78148e-07
2.60056e-07
-1.90022e-07
2.88125e-07
-2.03297e-07
3.22214e-07
-2.18303e-07
3.62029e-07
-2.35332e-07
4.07284e-07
-2.54625e-07
4.5779e-07
-2.7638e-07
5.13499e-07
-3.00757e-07
5.74483e-07
-3.27878e-07
6.40927e-07
-3.57825e-07
7.13105e-07
-3.9065e-07
7.91219e-07
-4.26356e-07
8.75555e-07
-4.64933e-07
9.65967e-07
-5.06305e-07
1.06246e-06
-5.50447e-07
1.16389e-06
-5.97271e-07
1.26919e-06
-6.46863e-07
1.37485e-06
-6.99336e-07
1.47719e-06
-7.55275e-07
1.56703e-06
-8.15602e-07
1.63521e-06
-8.82615e-07
1.66001e-06
-9.59609e-07
1.62217e-06
-1.05482e-06
1.47083e-06
-1.17991e-06
1.16949e-06
-1.36179e-06
6.12904e-07
-1.65439e-06
-2.78596e-07
-1.66163e-06
-2.14993e-06
6.28193e-11
-5.96113e-11
3.21749e-11
4.16497e-09
-2.25782e-10
1.21917e-08
-8.33304e-10
2.38185e-08
-1.99848e-09
3.87949e-08
-3.94382e-09
5.64796e-08
-6.85744e-09
7.61083e-08
-1.09645e-08
9.72852e-08
-1.65173e-08
1.20054e-07
-2.37289e-08
1.44344e-07
-3.26911e-08
1.69099e-07
-4.33039e-08
1.92137e-07
-5.52588e-08
2.10948e-07
-6.80942e-08
2.23742e-07
-8.12953e-08
2.30067e-07
-9.43937e-08
2.30823e-07
-1.07035e-07
2.27873e-07
-1.19016e-07
2.23508e-07
-1.30288e-07
2.20016e-07
-1.40947e-07
2.19406e-07
-1.51208e-07
2.23287e-07
-1.61376e-07
2.32805e-07
-1.7182e-07
2.48666e-07
-1.82935e-07
2.71174e-07
-1.95119e-07
3.00312e-07
-2.08748e-07
3.35845e-07
-2.24157e-07
3.77441e-07
-2.41639e-07
4.24768e-07
-2.61438e-07
4.7759e-07
-2.83751e-07