/*--------------------------------*- C++ -*----------------------------------*\
  =========                 |
  \\      /  F ield         | OpenFOAM: The Open Source CFD Toolbox
   \\    /   O peration     | Website:  https://openfoam.org
    \\  /    A nd           | Version:  7
     \\/     M anipulation  |
\*---------------------------------------------------------------------------*/
FoamFile
{
    version     2.0;
    format      ascii;
    class       surfaceScalarField;
    location    "0.5";
    object      phi;
}
// * * * * * * * * * * * * * * * * * * * * * * * * * * * * * * * * * * * * * //

dimensions      [0 3 -1 0 0 0 0];

internalField   nonuniform List<scalar> 
139350
(
6.45112e-08
9.21203e-08
3.19619e-08
3.25492e-08
2.30543e-08
8.90764e-09
1.95669e-08
3.48739e-09
1.76122e-08
1.95468e-09
1.61791e-08
1.43309e-09
1.50432e-08
1.13592e-09
1.41277e-08
9.15468e-10
1.3374e-08
7.53743e-10
1.27386e-08
6.3539e-10
1.21927e-08
5.45856e-10
1.17171e-08
4.7566e-10
1.12979e-08
4.19189e-10
1.0925e-08
3.72913e-10
1.05905e-08
3.34428e-10
1.02885e-08
3.0202e-10
1.00141e-08
2.74427e-10
9.76339e-09
2.5071e-10
9.53323e-09
2.30153e-10
9.32103e-09
2.12201e-10
9.12462e-09
1.96419e-10
8.94215e-09
1.82461e-10
8.77211e-09
1.70049e-10
8.61315e-09
1.58958e-10
8.46414e-09
1.49005e-10
8.3241e-09
1.40042e-10
8.19216e-09
1.31944e-10
8.06754e-09
1.24614e-10
7.94958e-09
1.17966e-10
7.83763e-09
1.11942e-10
7.73116e-09
1.06475e-10
7.6296e-09
1.01557e-10
7.53249e-09
9.71089e-11
7.43929e-09
9.32056e-11
7.34958e-09
8.97028e-11
7.26275e-09
8.68339e-11
7.17846e-09
8.42916e-11
7.09586e-09
8.25932e-11
7.01473e-09
8.11297e-11
6.93392e-09
8.08147e-11
6.8532e-09
8.07219e-11
6.77137e-09
8.18258e-11
6.6876e-09
8.37756e-11
6.6024e-09
8.51947e-11
6.51163e-09
9.0769e-11
6.42499e-09
8.66459e-11
6.32325e-09
1.01734e-10
6.26896e-09
5.42947e-11
6.04492e-09
2.24039e-10
-2.75543e-09
8.80035e-09
1.25942e-07
1.27622e-07
9.12847e-08
6.72063e-08
7.19267e-08
2.82656e-08
6.12054e-08
1.42087e-08
5.4763e-08
8.3971e-09
5.02618e-08
5.93431e-09
4.67708e-08
4.62693e-09
4.39507e-08
3.73554e-09
4.16207e-08
3.08376e-09
3.96551e-08
2.60094e-09
3.79668e-08
2.2342e-09
3.64957e-08
1.9468e-09
3.51991e-08
1.71575e-09
3.40456e-08
1.52643e-09
3.30111e-08
1.36893e-09
3.20769e-08
1.23624e-09
3.12281e-08
1.12321e-09
3.04528e-08
1.02601e-09
2.97412e-08
9.41691e-10
2.90854e-08
8.68003e-10
2.84787e-08
8.03161e-10
2.79154e-08
7.4575e-10
2.73908e-08
6.9463e-10
2.69009e-08
6.48881e-10
2.64422e-08
6.07747e-10
2.60116e-08
5.70615e-10
2.56066e-08
5.36973e-10
2.52248e-08
5.06403e-10
2.48642e-08
4.78553e-10
2.4523e-08
4.53151e-10
2.41995e-08
4.29941e-10
2.38923e-08
4.08797e-10
2.35999e-08
3.89482e-10
2.3321e-08
3.72096e-10
2.30544e-08
3.56273e-10
2.27987e-08
3.42564e-10
2.25529e-08
3.3014e-10
2.23149e-08
3.20537e-10
2.20843e-08
3.11708e-10
2.18579e-08
3.07241e-10
2.16361e-08
3.02494e-10
2.14133e-08
3.04636e-10
2.11924e-08
3.04714e-10
2.09636e-08
3.14023e-10
2.07345e-08
3.19793e-10
2.04928e-08
3.2842e-10
2.02466e-08
3.47896e-10
2.00409e-08
2.5996e-10
1.96973e-08
5.6771e-10
-3.264e-09
2.02058e-08
1.58751e-07
1.35275e-07
1.36522e-07
8.94354e-08
1.17482e-07
4.73052e-08
1.03298e-07
2.83931e-08
9.32969e-08
1.83983e-08
8.59899e-08
1.32413e-08
8.0276e-08
1.03408e-08
7.56188e-08
8.39274e-09
7.17356e-08
6.96699e-09
6.84384e-08
5.89809e-09
6.55938e-08
5.07879e-09
6.3107e-08
4.43364e-09
6.09094e-08
3.91335e-09
5.89499e-08
3.48589e-09
5.71894e-08
3.12945e-09
5.55971e-08
2.82852e-09
5.41486e-08
2.57171e-09
5.28241e-08
2.35049e-09
5.16075e-08
2.15831e-09
5.04854e-08
1.99011e-09
4.94467e-08
1.8419e-09
4.84819e-08
1.71049e-09
4.75832e-08
1.59333e-09
4.67438e-08
1.48832e-09
4.59578e-08
1.39377e-09
4.52201e-08
1.30827e-09
4.45264e-08
1.23066e-09
4.38729e-08
1.15997e-09
4.3256e-08
1.09541e-09
4.26729e-08
1.0363e-09
4.21207e-08
9.82082e-10
4.15972e-08
9.3237e-10
4.10999e-08
8.86699e-10
4.0627e-08
8.45068e-10
4.01764e-08
8.06861e-10
3.97461e-08
7.72889e-10
3.93345e-08
7.41692e-10
3.8939e-08
7.16075e-10
3.85587e-08
6.91944e-10
3.81891e-08
6.76919e-10
3.78314e-08
6.60165e-10
3.74761e-08
6.59878e-10
3.71305e-08
6.50334e-10
3.67745e-08
6.70011e-10
3.64291e-08
6.65237e-10
3.6057e-08
7.0049e-10
3.5699e-08
7.05963e-10
3.53494e-08
6.09562e-10
3.49983e-08
9.18759e-10
-2.8194e-09
3.45537e-08
1.75611e-07
1.3118e-07
1.6562e-07
9.94262e-08
1.52726e-07
6.01994e-08
1.40109e-07
4.101e-08
1.2942e-07
2.90869e-08
1.20773e-07
2.18884e-08
1.13653e-07
1.74604e-08
1.07666e-07
1.43802e-08
1.0256e-07
1.20729e-08
9.81526e-08
1.03055e-08
9.43036e-08
8.92771e-09
9.09075e-08
7.8298e-09
8.78842e-08
6.93663e-09
8.51724e-08
6.19772e-09
8.27238e-08
5.57804e-09
8.04999e-08
5.05235e-09
7.84698e-08
4.60187e-09
7.66079e-08
4.21241e-09
7.48932e-08
3.87303e-09
7.33081e-08
3.57516e-09
7.1838e-08
3.31202e-09
7.04703e-08
3.07818e-09
6.91944e-08
2.86923e-09
6.80011e-08
2.6816e-09
6.68826e-08
2.51232e-09
6.58319e-08
2.35895e-09
6.48431e-08
2.21946e-09
6.39109e-08
2.09215e-09
6.30307e-08
1.97561e-09
6.21984e-08
1.86862e-09
6.14103e-08
1.77021e-09
6.0663e-08
1.67958e-09
5.99538e-08
1.59598e-09
5.92796e-08
1.5192e-09
5.86382e-08
1.44831e-09
5.80268e-08
1.38431e-09
5.74434e-08
1.32503e-09
5.68849e-08
1.27464e-09
5.63502e-08
1.22664e-09
5.58338e-08
1.19333e-09
5.53374e-08
1.1565e-09
5.48498e-08
1.14753e-09
5.43796e-08
1.12048e-09
5.3903e-08
1.14669e-09
5.34445e-08
1.12367e-09
5.29603e-08
1.18472e-09
5.24968e-08
1.16942e-09
5.20308e-08
1.07563e-09
5.1636e-08
1.31353e-09
-2.10471e-09
5.09213e-08
1.8451e-07
1.23456e-07
1.82338e-07
1.01598e-07
1.76113e-07
6.64239e-08
1.67749e-07
4.93746e-08
1.59121e-07
3.77148e-08
1.51206e-07
2.98028e-08
1.44125e-07
2.45415e-08
1.37818e-07
2.06879e-08
1.32211e-07
1.76801e-08
1.27219e-07
1.52967e-08
1.22758e-07
1.3389e-08
1.1875e-07
1.18379e-08
1.1513e-07
1.05562e-08
1.11846e-07
9.48255e-09
1.08851e-07
8.57281e-09
1.06109e-07
7.79435e-09
1.03588e-07
7.12238e-09
1.01263e-07
6.53776e-09
9.91105e-08
6.02551e-09
9.71119e-08
5.57376e-09
9.52509e-08
5.17298e-09
9.35136e-08
4.81546e-09
9.18879e-08
4.49491e-09
9.03634e-08
4.20615e-09
8.89308e-08
3.94489e-09
8.75822e-08
3.70754e-09
8.63105e-08
3.49114e-09
8.51096e-08
3.29313e-09
8.39738e-08
3.11142e-09
8.28982e-08
2.94417e-09
8.18785e-08
2.7899e-09
8.09107e-08
2.64737e-09
7.99913e-08
2.51546e-09
7.91168e-08
2.39366e-09
7.82844e-08
2.28071e-09
7.7491e-08
2.17773e-09
7.67342e-08
2.08181e-09
7.60104e-08
1.99839e-09
7.53184e-08
1.91862e-09
7.46525e-08
1.85931e-09
7.40138e-08
1.79519e-09
7.33913e-08
1.77006e-09
7.27924e-08
1.71938e-09
7.2195e-08
1.74403e-09
7.16187e-08
1.69993e-09
7.10287e-08
1.77479e-09
7.04545e-08
1.74355e-09
6.98908e-08
1.63943e-09
6.93995e-08
1.80478e-09
-1.30621e-09
6.8601e-08
1.90342e-07
1.1533e-07
1.91857e-07
1.00083e-07
1.90257e-07
6.8024e-08
1.86146e-07
5.34856e-08
1.80699e-07
4.31614e-08
1.74938e-07
3.55635e-08
1.69232e-07
3.02474e-08
1.63739e-07
2.61812e-08
1.58556e-07
2.28634e-08
1.53724e-07
2.0128e-08
1.49248e-07
1.78658e-08
1.45109e-07
1.59769e-08
1.41283e-07
1.43817e-08
1.37745e-07
1.30209e-08
1.34468e-07
1.18502e-08
1.31426e-07
1.08355e-08
1.28599e-07
9.94995e-09
1.25964e-07
9.17214e-09
1.23505e-07
8.48494e-09
1.21204e-07
7.87446e-09
1.19048e-07
7.32936e-09
1.17023e-07
6.8403e-09
1.15118e-07
6.39953e-09
1.13324e-07
6.00063e-09
1.11631e-07
5.63818e-09
1.10031e-07
5.30764e-09
1.08517e-07
5.00518e-09
1.07082e-07
4.72751e-09
1.05722e-07
4.47189e-09
1.0443e-07
4.23589e-09
1.03202e-07
4.01755e-09
1.02035e-07
3.81517e-09
1.00923e-07
3.62727e-09
9.98633e-08
3.45303e-09
9.88531e-08
3.29088e-09
9.78889e-08
3.14197e-09
9.6968e-08
3.00274e-09
9.60867e-08
2.87966e-09
9.52433e-08
2.76201e-09
9.44325e-08
2.67012e-09
9.36544e-08
2.57335e-09
9.28995e-08
2.5249e-09
9.21718e-08
2.44706e-09
9.14554e-08
2.46051e-09
9.07586e-08
2.39669e-09
9.00644e-08
2.46897e-09
8.93759e-08
2.43209e-09
8.87165e-08
2.29884e-09
8.81142e-08
2.40706e-09
-4.19058e-10
8.7227e-08
1.95504e-07
1.07641e-07
1.98245e-07
9.73415e-08
1.98981e-07
6.72883e-08
1.97782e-07
5.46846e-08
1.95141e-07
4.58025e-08
1.91792e-07
3.89117e-08
1.88051e-07
3.39889e-08
1.8409e-07
3.01425e-08
1.8006e-07
2.68934e-08
1.76071e-07
2.41164e-08
1.72192e-07
2.17446e-08
1.68462e-07
1.97075e-08
1.649e-07
1.7944e-08
1.61514e-07
1.64068e-08
1.58304e-07
1.50594e-08
1.55268e-07
1.38723e-08
1.52396e-07
1.28214e-08
1.49682e-07
1.18867e-08
1.47115e-07
1.10517e-08
1.44687e-07
1.03025e-08
1.42389e-07
9.62777e-09
1.40211e-07
9.01757e-09
1.38147e-07
8.46373e-09
1.36188e-07
7.95925e-09
1.34328e-07
7.49819e-09
1.32561e-07
7.07549e-09
1.30879e-07
6.6868e-09
1.29278e-07
6.32837e-09
1.27753e-07
5.99702e-09
1.26299e-07
5.6899e-09
1.24912e-07
5.40472e-09
1.23588e-07
5.1394e-09
1.22323e-07
4.8922e-09
1.21114e-07
4.66206e-09
1.19957e-07
4.44714e-09
1.18851e-07
4.2486e-09
1.17791e-07
4.06244e-09
1.16775e-07
3.89582e-09
1.158e-07
3.73681e-09
1.14862e-07
3.60804e-09
1.1396e-07
3.4758e-09
1.13086e-07
3.39858e-09
1.1224e-07
3.29257e-09
1.11415e-07
3.2864e-09
1.10605e-07
3.20624e-09
1.09812e-07
3.26202e-09
1.09017e-07
3.22752e-09
1.08258e-07
3.05711e-09
1.07551e-07
3.11385e-09
5.73469e-10
1.06559e-07
2.00819e-07
1.00407e-07
2.0377e-07
9.43907e-08
2.0534e-07
6.57174e-08
2.05637e-07
5.43876e-08
2.04801e-07
4.66389e-08
2.03314e-07
4.03988e-08
2.01357e-07
3.5946e-08
1.99015e-07
3.24838e-08
1.96398e-07
2.95114e-08
1.93606e-07
2.69078e-08
1.90722e-07
2.46287e-08
1.87805e-07
2.2624e-08
1.84901e-07
2.08485e-08
1.8204e-07
1.92677e-08
1.79245e-07
1.78547e-08
1.76529e-07
1.65877e-08
1.73903e-07
1.5448e-08
1.7137e-07
1.44196e-08
1.68933e-07
1.34889e-08
1.66591e-07
1.26441e-08
1.64344e-07
1.1875e-08
1.62189e-07
1.11727e-08
1.60123e-07
1.05295e-08
1.58143e-07
9.93897e-09
1.56246e-07
9.39524e-09
1.54428e-07
8.89333e-09
1.52686e-07
8.42893e-09
1.51016e-07
7.99819e-09
1.49415e-07
7.59789e-09
1.4788e-07
7.22501e-09
1.46408e-07
6.87718e-09
1.44995e-07
6.55213e-09
1.43639e-07
6.24805e-09
1.42338e-07
5.96373e-09
1.41088e-07
5.69723e-09
1.39886e-07
5.44972e-09
1.38732e-07
5.21703e-09
1.37621e-07
5.00666e-09
1.36552e-07
4.80629e-09
1.3552e-07
4.63954e-09
1.34524e-07
4.47195e-09
1.33559e-07
4.36343e-09
1.32621e-07
4.23054e-09
1.31708e-07
4.19961e-09
1.30807e-07
4.10684e-09
1.29931e-07
4.13844e-09
1.29049e-07
4.10949e-09
1.28199e-07
3.90673e-09
1.274e-07
3.91284e-09
1.66253e-09
1.26311e-07
2.06422e-07
9.35173e-08
2.09329e-07
9.14836e-08
2.11051e-07
6.39951e-08
2.11928e-07
5.35109e-08
2.11986e-07
4.65812e-08
2.11594e-07
4.07909e-08
2.10855e-07
3.66844e-08
2.09774e-07
3.35652e-08
2.08389e-07
3.08966e-08
2.06759e-07
2.85379e-08
2.0494e-07
2.64475e-08
2.02982e-07
2.45823e-08
2.00926e-07
2.29038e-08
1.9881e-07
2.13843e-08
1.96661e-07
2.00034e-08
1.94503e-07
1.87453e-08
1.92355e-07
1.75963e-08
1.9023e-07
1.65448e-08
1.88138e-07
1.55805e-08
1.86088e-07
1.46944e-08
1.84085e-07
1.38782e-08
1.82132e-07
1.3125e-08
1.80234e-07
1.24284e-08
1.7839e-07
1.17829e-08
1.76602e-07
1.11834e-08
1.74869e-07
1.06256e-08
1.73193e-07
1.01056e-08
1.71571e-07
9.62008e-09
1.70003e-07
9.16593e-09
1.68487e-07
8.7404e-09
1.67023e-07
8.34124e-09
1.65609e-07
7.9663e-09
1.64243e-07
7.61384e-09
1.62924e-07
7.28271e-09
1.6165e-07
6.97106e-09
1.6042e-07
6.68011e-09
1.59231e-07
6.40577e-09
1.58082e-07
6.15573e-09
1.56971e-07
5.91784e-09
1.55894e-07
5.7158e-09
1.5485e-07
5.5162e-09
1.53836e-07
5.37748e-09
1.52845e-07
5.22122e-09
1.5188e-07
5.16457e-09
1.50924e-07
5.0631e-09
1.49993e-07
5.0692e-09
1.49056e-07
5.04665e-09
1.4814e-07
4.82283e-09
1.47267e-07
4.78624e-09
2.81889e-09
1.4611e-07
2.12268e-07
8.69114e-08
2.15138e-07
8.8614e-08
2.16806e-07
6.23267e-08
2.17842e-07
5.24745e-08
2.18246e-07
4.61781e-08
2.18356e-07
4.06807e-08
2.18271e-07
3.67687e-08
2.17961e-07
3.38754e-08
2.17419e-07
3.14384e-08
2.16665e-07
2.92921e-08
2.15723e-07
2.73898e-08
2.14618e-07
2.56873e-08
2.13376e-07
2.41455e-08
2.12023e-07
2.27373e-08
2.10582e-07
2.14444e-08
2.09074e-07
2.02532e-08
2.07518e-07
1.91528e-08
2.05928e-07
1.81342e-08
2.0432e-07
1.71893e-08
2.02703e-07
1.63113e-08
2.01087e-07
1.54941e-08
1.9948e-07
1.47321e-08
1.97887e-07
1.40205e-08
1.96316e-07
1.33548e-08
1.94768e-07
1.27311e-08
1.93247e-07
1.21459e-08
1.91757e-07
1.15961e-08
1.90298e-07
1.10788e-08
1.88873e-07
1.05915e-08
1.87481e-07
1.01319e-08
1.86124e-07
9.69815e-09
1.84802e-07
9.28835e-09
1.83515e-07
8.90103e-09
1.82263e-07
8.53528e-09
1.81044e-07
8.18945e-09
1.79859e-07
7.86497e-09
1.78707e-07
7.55799e-09
1.77587e-07
7.2763e-09
1.76496e-07
7.00838e-09
1.75434e-07
6.77742e-09
1.74398e-07
6.55225e-09
1.73388e-07
6.38796e-09
1.72395e-07
6.21413e-09
1.71425e-07
6.13474e-09
1.70458e-07
6.02934e-09
1.69514e-07
6.01329e-09
1.68562e-07
5.99901e-09
1.67618e-07
5.76693e-09
1.66699e-07
5.70473e-09
4.01e-09
1.65508e-07
2.18314e-07
8.05781e-08
2.21187e-07
8.5741e-08
2.22779e-07
6.07351e-08
2.23843e-07
5.14099e-08
2.24355e-07
4.56666e-08
2.24643e-07
4.03929e-08
2.24835e-07
3.65766e-08
2.24903e-07
3.38073e-08
2.24827e-07
3.15146e-08
2.24607e-07
2.95119e-08
2.24248e-07
2.77483e-08
2.23758e-07
2.6178e-08
2.23144e-07
2.47593e-08
2.22419e-07
2.34627e-08
2.21594e-07
2.22688e-08
2.20684e-07
2.11638e-08
2.19699e-07
2.0137e-08
2.18654e-07
1.918e-08
2.17557e-07
1.82858e-08
2.1642e-07
1.74483e-08
2.15252e-07
1.66624e-08
2.14061e-07
1.59236e-08
2.12853e-07
1.52278e-08
2.11636e-07
1.45717e-08
2.10415e-07
1.3952e-08
2.09195e-07
1.3366e-08
2.0798e-07
1.28112e-08
2.06774e-07
1.22854e-08
2.05578e-07
1.17867e-08
2.04397e-07
1.13132e-08
2.03232e-07
1.08634e-08
2.02084e-07
1.0436e-08
2.00956e-07
1.00297e-08
1.99847e-07
9.64409e-09
1.98759e-07
9.27769e-09
1.97691e-07
8.93228e-09
1.96645e-07
8.60434e-09
1.95619e-07
8.30175e-09
1.94614e-07
8.01391e-09
1.93628e-07
7.76309e-09
1.92659e-07
7.52115e-09
1.91709e-07
7.33871e-09
1.90768e-07
7.15496e-09
1.89844e-07
7.05879e-09
1.88918e-07
6.9554e-09
1.88007e-07
6.92361e-09
1.87085e-07
6.92135e-09
1.86157e-07
6.69506e-09
1.85234e-07
6.62729e-09
5.20387e-09
1.8404e-07
2.24548e-07
7.45237e-08
2.27447e-07
8.28419e-08
2.28974e-07
5.92076e-08
2.30046e-07
5.03384e-08
2.30598e-07
4.51147e-08
2.30934e-07
4.00567e-08
2.31216e-07
3.62949e-08
2.31432e-07
3.35912e-08
2.31564e-07
3.13822e-08
2.31612e-07
2.94645e-08
2.31574e-07
2.77862e-08
2.31449e-07
2.63028e-08
2.31237e-07
2.4971e-08
2.3094e-07
2.37595e-08
2.30562e-07
2.2647e-08
2.30107e-07
2.16185e-08
2.29582e-07
2.06626e-08
2.28991e-07
1.97704e-08
2.28343e-07
1.89344e-08
2.27642e-07
1.81487e-08
2.26896e-07
1.74083e-08
2.26111e-07
1.67088e-08
2.25293e-07
1.60465e-08
2.24446e-07
1.54182e-08
2.23577e-07
1.48213e-08
2.22689e-07
1.42533e-08
2.21788e-07
1.37123e-08
2.20877e-07
1.31963e-08
2.1996e-07
1.27039e-08
2.1904e-07
1.22336e-08
2.18119e-07
1.17843e-08
2.172e-07
1.1355e-08
2.16285e-07
1.09448e-08
2.15375e-07
1.05536e-08
2.14473e-07
1.01801e-08
2.13578e-07
9.82664e-09
2.12693e-07
9.48991e-09
2.11817e-07
9.1779e-09
2.1095e-07
8.88105e-09
2.10092e-07
8.6205e-09
2.09242e-07
8.37157e-09
2.08401e-07
8.1797e-09
2.07561e-07
7.99457e-09
2.06731e-07
7.88928e-09
2.05892e-07
7.79449e-09
2.0506e-07
7.75528e-09
2.04212e-07
7.76954e-09
2.03342e-07
7.5651e-09
2.02459e-07
7.50998e-09
6.36488e-09
2.01298e-07
2.30974e-07
6.8756e-08
2.33908e-07
7.99078e-08
2.35378e-07
5.77372e-08
2.36458e-07
4.92587e-08
2.37042e-07
4.45302e-08
2.37393e-07
3.97058e-08
2.37696e-07
3.59918e-08
2.37958e-07
3.33292e-08
2.38166e-07
3.11744e-08
2.38323e-07
2.9308e-08
2.3843e-07
2.76788e-08
2.38487e-07
2.6246e-08
2.38491e-07
2.49671e-08
2.3844e-07
2.381e-08
2.38335e-07
2.27525e-08
2.38174e-07
2.17789e-08
2.3796e-07
2.08769e-08
2.37694e-07
2.00368e-08
2.37377e-07
1.92509e-08
2.37013e-07
1.85125e-08
2.36606e-07
1.78162e-08
2.36157e-07
1.71575e-08
2.35671e-07
1.65326e-08
2.35151e-07
1.59382e-08
2.346e-07
1.53716e-08
2.34023e-07
1.48305e-08
2.33422e-07
1.43129e-08
2.32802e-07
1.38171e-08
2.32164e-07
1.3342e-08
2.31511e-07
1.2886e-08
2.30847e-07
1.24486e-08
2.30173e-07
1.20287e-08
2.29492e-07
1.16258e-08
2.28806e-07
1.12401e-08
2.28115e-07
1.08705e-08
2.27422e-07
1.05196e-08
2.26728e-07
1.01845e-08
2.26032e-07
9.8731e-09
2.25336e-07
9.57704e-09
2.24641e-07
9.31604e-09
2.23943e-07
9.06922e-09
2.23247e-07
8.87638e-09
2.22543e-07
8.69789e-09
2.21841e-07
8.59138e-09
2.21124e-07
8.51127e-09
2.20406e-07
8.4738e-09
2.19667e-07
8.50869e-09
2.18889e-07
8.34256e-09
2.18082e-07
8.31692e-09
7.45634e-09
2.16991e-07
2.376e-07
6.32809e-08
2.40573e-07
7.69346e-08
2.41986e-07
5.6324e-08
2.43073e-07
4.81719e-08
2.43694e-07
4.39092e-08
2.44058e-07
3.93422e-08
2.44366e-07
3.56834e-08
2.4464e-07
3.3055e-08
2.44871e-07
3.0944e-08
2.45063e-07
2.91153e-08
2.45225e-07
2.75173e-08
2.45356e-07
2.61143e-08
2.45457e-07
2.48662e-08
2.45526e-07
2.3741e-08
2.45562e-07
2.27167e-08
2.45564e-07
2.17773e-08
2.4553e-07
2.09104e-08
2.45461e-07
2.01059e-08
2.45357e-07
1.93555e-08
2.45217e-07
1.86524e-08
2.45042e-07
1.79909e-08
2.44834e-07
1.73658e-08
2.44593e-07
1.67732e-08
2.44322e-07
1.62096e-08
2.44021e-07
1.56719e-08
2.43694e-07
1.51577e-08
2.43342e-07
1.46651e-08
2.42967e-07
1.41924e-08
2.42571e-07
1.37381e-08
2.42156e-07
1.33011e-08
2.41724e-07
1.28806e-08
2.41276e-07
1.2476e-08
2.40815e-07
1.20866e-08
2.40343e-07
1.17129e-08
2.39859e-07
1.1354e-08
2.39366e-07
1.10126e-08
2.38864e-07
1.06862e-08
2.38355e-07
1.03825e-08
2.37838e-07
1.00944e-08
2.37314e-07
9.83997e-09
2.36781e-07
9.60222e-09
2.36242e-07
9.4152e-09
2.3569e-07
9.24961e-09
2.35133e-07
9.14876e-09
2.34556e-07
9.08785e-09
2.33969e-07
9.06076e-09
2.33358e-07
9.1196e-09
2.32695e-07
9.00598e-09
2.31985e-07
9.02642e-09
8.44977e-09
2.30992e-07
2.44435e-07
5.81021e-08
2.47447e-07
7.39229e-08
2.48804e-07
5.49663e-08
2.49894e-07
4.70825e-08
2.50553e-07
4.32501e-08
2.50933e-07
3.89624e-08
2.51245e-07
3.53708e-08
2.51525e-07
3.27756e-08
2.51762e-07
3.07064e-08
2.51966e-07
2.8912e-08
2.52144e-07
2.7339e-08
2.52301e-07
2.59571e-08
2.52438e-07
2.47289e-08
2.52556e-07
2.36234e-08
2.52654e-07
2.26189e-08
2.52731e-07
2.16998e-08
2.52788e-07
2.0854e-08
2.52822e-07
2.00714e-08
2.52834e-07
1.93437e-08
2.52823e-07
1.86639e-08
2.52788e-07
1.80259e-08
2.52729e-07
1.74247e-08
2.52646e-07
1.68558e-08
2.5254e-07
1.63156e-08
2.52411e-07
1.58008e-08
2.5226e-07
1.53089e-08
2.52087e-07
1.48377e-08
2.51894e-07
1.43853e-08
2.51682e-07
1.39504e-08
2.51451e-07
1.35317e-08
2.51204e-07
1.31284e-08
2.5094e-07
1.27399e-08
2.50661e-07
1.23657e-08
2.50367e-07
1.20061e-08
2.50061e-07
1.16605e-08
2.49742e-07
1.13316e-08
2.49411e-07
1.10173e-08
2.49068e-07
1.0725e-08
2.48714e-07
1.04488e-08
2.48349e-07
1.0205e-08
2.47971e-07
9.98052e-09
2.47582e-07
9.80369e-09
2.47177e-07
9.65478e-09
2.46761e-07
9.56464e-09
2.46323e-07
9.52535e-09
2.45869e-07
9.51564e-09
2.45387e-07
9.60082e-09
2.44843e-07
9.55003e-09
2.44238e-07
9.6322e-09
9.3319e-09
2.43355e-07
2.51487e-07
5.32215e-08
2.54527e-07
7.08831e-08
2.5584e-07
5.36531e-08
2.56927e-07
4.5996e-08
2.57623e-07
4.25535e-08
2.58022e-07
3.85636e-08
2.5834e-07
3.50527e-08
2.58625e-07
3.24912e-08
2.58867e-07
3.04639e-08
2.59075e-07
2.87046e-08
2.59258e-07
2.71558e-08
2.59423e-07
2.57924e-08
2.59571e-07
2.45801e-08
2.59706e-07
2.3489e-08
2.59827e-07
2.2498e-08
2.59934e-07
2.15921e-08
2.60029e-07
2.07594e-08
2.6011e-07
1.99904e-08
2.60177e-07
1.92767e-08
2.60229e-07
1.86114e-08
2.60267e-07
1.79885e-08
2.60289e-07
1.74028e-08
2.60295e-07
1.68498e-08
2.60285e-07
1.63256e-08
2.60259e-07
1.5827e-08
2.60216e-07
1.53512e-08
2.60158e-07
1.4896e-08
2.60084e-07
1.44593e-08
2.59995e-07
1.40397e-08
2.59891e-07
1.36359e-08
2.59772e-07
1.32471e-08
2.59639e-07
1.28726e-08
2.59493e-07
1.25119e-08
2.59334e-07
1.21655e-08
2.59161e-07
1.18328e-08
2.58976e-07
1.15164e-08
2.58779e-07
1.12147e-08
2.5857e-07
1.09345e-08
2.58347e-07
1.06714e-08
2.58113e-07
1.04396e-08
2.57863e-07
1.02298e-08
2.57602e-07
1.00652e-08
2.57322e-07
9.93432e-09
2.57029e-07
9.85787e-09
2.56714e-07
9.84068e-09
2.56376e-07
9.85316e-09
2.56011e-07
9.96616e-09
2.55576e-07
9.98446e-09
2.55067e-07
1.01415e-08
1.01048e-08
2.54294e-07
2.58765e-07
4.86395e-08
2.61823e-07
6.78255e-08
2.63102e-07
5.23735e-08
2.64181e-07
4.49173e-08
2.64913e-07
4.18218e-08
2.65332e-07
3.81438e-08
2.65657e-07
3.47281e-08
2.65947e-07
3.22014e-08
2.66194e-07
3.02163e-08
2.66405e-07
2.84937e-08
2.66591e-07
2.697e-08
2.66758e-07
2.5625e-08
2.66911e-07
2.44278e-08
2.6705e-07
2.33497e-08
2.67178e-07
2.237e-08
2.67296e-07
2.14743e-08
2.67404e-07
2.06512e-08
2.67503e-07
1.98916e-08
2.67592e-07
1.91873e-08
2.67672e-07
1.85316e-08
2.67742e-07
1.79185e-08
2.67802e-07
1.7343e-08
2.67851e-07
1.68004e-08
2.6789e-07
1.62869e-08
2.67918e-07
1.57992e-08
2.67934e-07
1.53345e-08
2.6794e-07
1.48903e-08
2.67935e-07
1.44647e-08
2.67918e-07
1.40562e-08
2.67891e-07
1.36635e-08
2.67852e-07
1.32856e-08
2.67803e-07
1.2922e-08
2.67743e-07
1.2572e-08
2.67672e-07
1.22365e-08
2.6759e-07
1.19145e-08
2.67497e-07
1.1609e-08
2.67394e-07
1.13185e-08
2.67279e-07
1.10494e-08
2.67151e-07
1.07986e-08
2.67013e-07
1.05784e-08
2.66859e-07
1.03831e-08
2.66694e-07
1.02309e-08
2.66511e-07
1.01175e-08
2.66312e-07
1.0056e-08
2.66093e-07
1.006e-08
2.65849e-07
1.00974e-08
2.65576e-07
1.0239e-08
2.65231e-07
1.03293e-08
2.64802e-07
1.05709e-08
1.07816e-08
2.64125e-07
2.66277e-07
4.43547e-08
2.69342e-07
6.47609e-08
2.70598e-07
5.11167e-08
2.71665e-07
4.38508e-08
2.72429e-07
4.1058e-08
2.72871e-07
3.77014e-08
2.73203e-07
3.43964e-08
2.73498e-07
3.19061e-08
2.73751e-07
2.99633e-08
2.73966e-07
2.8279e-08
2.74154e-07
2.67819e-08
2.74323e-07
2.54558e-08
2.74477e-07
2.42739e-08
2.74618e-07
2.32086e-08
2.74748e-07
2.22397e-08
2.74869e-07
2.13534e-08
2.74982e-07
2.05389e-08
2.75086e-07
1.9787e-08
2.75183e-07
1.90903e-08
2.75273e-07
1.84419e-08
2.75355e-07
1.78362e-08
2.7543e-07
1.7268e-08
2.75498e-07
1.67329e-08
2.75558e-07
1.62269e-08
2.7561e-07
1.57469e-08
2.75655e-07
1.52898e-08
2.75692e-07
1.48533e-08
2.75721e-07
1.44356e-08
2.75742e-07
1.40349e-08
2.75756e-07
1.36501e-08
2.75761e-07
1.32801e-08
2.75759e-07
1.29245e-08
2.75748e-07
1.25827e-08
2.75729e-07
1.22554e-08
2.75702e-07
1.1942e-08
2.75665e-07
1.16452e-08
2.7562e-07
1.1364e-08
2.75565e-07
1.11043e-08
2.75499e-07
1.08643e-08
2.75423e-07
1.06545e-08
2.75334e-07
1.04721e-08
2.75233e-07
1.03318e-08
2.75116e-07
1.02345e-08
2.74984e-07
1.0188e-08
2.74833e-07
1.02115e-08
2.74655e-07
1.02752e-08
2.74448e-07
1.04457e-08
2.74169e-07
1.06082e-08
2.738e-07
1.09404e-08
1.13803e-08
2.73201e-07
2.74032e-07
4.03642e-08
2.77092e-07
6.17002e-08
2.78337e-07
4.98726e-08
2.79387e-07
4.28e-08
2.80179e-07
4.0266e-08
2.80646e-07
3.72348e-08
2.80986e-07
3.40566e-08
2.81286e-07
3.16056e-08
2.81545e-07
2.97044e-08
2.81764e-07
2.806e-08
2.81955e-07
2.65909e-08
2.82126e-07
2.52847e-08
2.82282e-07
2.41186e-08
2.82424e-07
2.30664e-08
2.82555e-07
2.21085e-08
2.82677e-07
2.12316e-08
2.8279e-07
2.04253e-08
2.82896e-07
1.96809e-08
2.82996e-07
1.89911e-08
2.83088e-07
1.83494e-08
2.83174e-07
1.775e-08
2.83254e-07
1.7188e-08
2.83328e-07
1.6659e-08
2.83396e-07
1.61591e-08
2.83458e-07
1.5685e-08
2.83514e-07
1.52339e-08
2.83564e-07
1.48033e-08
2.83608e-07
1.43914e-08
2.83646e-07
1.39966e-08
2.83679e-07
1.36176e-08
2.83705e-07
1.32535e-08
2.83726e-07
1.2904e-08
2.8374e-07
1.25683e-08
2.83748e-07
1.22474e-08
2.8375e-07
1.19407e-08
2.83744e-07
1.16508e-08
2.83731e-07
1.13772e-08
2.8371e-07
1.11254e-08
2.83679e-07
1.08946e-08
2.8364e-07
1.06938e-08
2.83589e-07
1.05229e-08
2.83527e-07
1.03935e-08
2.83451e-07
1.03104e-08
2.83361e-07
1.02787e-08
2.83252e-07
1.03201e-08
2.83117e-07
1.04101e-08
2.82953e-07
1.06099e-08
2.82718e-07
1.08434e-08
2.82389e-07
1.12689e-08
1.19186e-08
2.81851e-07
2.82039e-07
3.66632e-08
2.85084e-07
5.86543e-08
2.86326e-07
4.86315e-08
2.87358e-07
4.17678e-08
2.88173e-07
3.94502e-08
2.88665e-07
3.67428e-08
2.89014e-07
3.37076e-08
2.8932e-07
3.12998e-08
2.89585e-07
2.94398e-08
2.89809e-07
2.78363e-08
2.90002e-07
2.6397e-08
2.90176e-07
2.51114e-08
2.90333e-07
2.39616e-08
2.90476e-07
2.29229e-08
2.90608e-07
2.19765e-08
2.90731e-07
2.11092e-08
2.90845e-07
2.03113e-08
2.90951e-07
1.95744e-08
2.91051e-07
1.88915e-08
2.91144e-07
1.82562e-08
2.91231e-07
1.7663e-08
2.91312e-07
1.71068e-08
2.91388e-07
1.65835e-08
2.91458e-07
1.60891e-08
2.91522e-07
1.56203e-08
2.91582e-07
1.51743e-08
2.91636e-07
1.47489e-08
2.91686e-07
1.43419e-08
2.91731e-07
1.39519e-08
2.9177e-07
1.35778e-08
2.91805e-07
1.32185e-08
2.91836e-07
1.28738e-08
2.91861e-07
1.25431e-08
2.91881e-07
1.22273e-08
2.91895e-07
1.19261e-08
2.91904e-07
1.1642e-08
2.91906e-07
1.13749e-08
2.91902e-07
1.11298e-08
2.9189e-07
1.09069e-08
2.91869e-07
1.07142e-08
2.91839e-07
1.05534e-08
2.91798e-07
1.04341e-08
2.91745e-07
1.03637e-08
2.91677e-07
1.03462e-08
2.91593e-07
1.04041e-08
2.91483e-07
1.05204e-08
2.91343e-07
1.07497e-08
2.91135e-07
1.10517e-08
2.90834e-07
1.15703e-08
1.24093e-08
2.90343e-07
2.90307e-07
3.32451e-08
2.93327e-07
5.56344e-08
2.94574e-07
4.73847e-08
2.95585e-07
4.07564e-08
2.9642e-07
3.86155e-08
2.96938e-07
3.62244e-08
2.97298e-07
3.33481e-08
2.97608e-07
3.09888e-08
2.97879e-07
2.91693e-08
2.98108e-07
2.76077e-08
2.98305e-07
2.61997e-08
2.9848e-07
2.49359e-08
2.98639e-07
2.38029e-08
2.98784e-07
2.27782e-08
2.98917e-07
2.18434e-08
2.9904e-07
2.09861e-08
2.99155e-07
2.01968e-08
2.99261e-07
1.94676e-08
2.99361e-07
1.87918e-08
2.99454e-07
1.8163e-08
2.99541e-07
1.75759e-08
2.99622e-07
1.70257e-08
2.99698e-07
1.65079e-08
2.99768e-07
1.60189e-08
2.99833e-07
1.55553e-08
2.99893e-07
1.51143e-08
2.99949e-07
1.46935e-08
2.99999e-07
1.42912e-08
3.00046e-07
1.39057e-08
3.00088e-07
1.35359e-08
3.00125e-07
1.31809e-08
3.00158e-07
1.28405e-08
3.00187e-07
1.25143e-08
3.00212e-07
1.2203e-08
3.00231e-07
1.19067e-08
3.00246e-07
1.16276e-08
3.00254e-07
1.13663e-08
3.00257e-07
1.11272e-08
3.00252e-07
1.09115e-08
3.0024e-07
1.07261e-08
3.00219e-07
1.05745e-08
3.00189e-07
1.04646e-08
3.00147e-07
1.04059e-08
3.00091e-07
1.04022e-08
3.00019e-07
1.04756e-08
2.99922e-07
1.06176e-08
2.99795e-07
1.08769e-08
2.99602e-07
1.1244e-08
2.9932e-07
1.18529e-08
1.286e-08
2.98869e-07
2.98846e-07
3.01019e-08
3.01828e-07
5.26517e-08
3.03089e-07
4.61243e-08
3.04078e-07
3.9767e-08
3.04927e-07
3.77672e-08
3.05472e-07
3.5679e-08
3.05843e-07
3.29767e-08
3.0616e-07
3.06726e-08
3.06436e-07
2.8893e-08
3.0667e-07
2.73739e-08
3.06871e-07
2.59988e-08
3.07049e-07
2.47578e-08
3.07209e-07
2.36422e-08
3.07356e-07
2.26319e-08
3.0749e-07
2.17093e-08
3.07614e-07
2.08622e-08
3.07729e-07
2.00818e-08
3.07836e-07
1.93605e-08
3.07936e-07
1.86919e-08
3.08029e-07
1.80698e-08
3.08116e-07
1.7489e-08
3.08197e-07
1.69448e-08
3.08272e-07
1.64327e-08
3.08342e-07
1.59491e-08
3.08406e-07
1.54907e-08
3.08466e-07
1.50546e-08
3.08521e-07
1.46386e-08
3.08571e-07
1.42408e-08
3.08617e-07
1.38596e-08
3.08659e-07
1.3494e-08
3.08697e-07
1.31432e-08
3.08731e-07
1.28069e-08
3.0876e-07
1.24848e-08
3.08785e-07
1.21778e-08
3.08806e-07
1.18861e-08
3.08822e-07
1.16118e-08
3.08832e-07
1.13558e-08
3.08837e-07
1.11223e-08
3.08835e-07
1.09133e-08
3.08826e-07
1.0735e-08
3.08809e-07
1.05918e-08
3.08782e-07
1.04912e-08
3.08745e-07
1.04432e-08
3.08694e-07
1.0453e-08
3.08629e-07
1.05414e-08
3.08538e-07
1.07083e-08
3.08417e-07
1.09976e-08
3.08235e-07
1.1426e-08
3.07968e-07
1.21199e-08
1.32729e-08
3.07555e-07
3.07665e-07
2.72239e-08
3.106e-07
4.97175e-08
3.1188e-07
4.48434e-08
3.12847e-07
3.88001e-08
3.13704e-07
3.69107e-08
3.14276e-07
3.51066e-08
3.14661e-07
3.2592e-08
3.14983e-07
3.0351e-08
3.15265e-07
2.86108e-08
3.15504e-07
2.71345e-08
3.15709e-07
2.5794e-08
3.1589e-07
2.4577e-08
3.16053e-07
2.34793e-08
3.16201e-07
2.24839e-08
3.16336e-07
2.15738e-08
3.16461e-07
2.07373e-08
3.16577e-07
1.9966e-08
3.16684e-07
1.9253e-08
3.16784e-07
1.85918e-08
3.16878e-07
1.79766e-08
3.16964e-07
1.74023e-08
3.17045e-07
1.68641e-08
3.1712e-07
1.63579e-08
3.17189e-07
1.58798e-08
3.17253e-07
1.54266e-08
3.17312e-07
1.49956e-08
3.17366e-07
1.45844e-08
3.17416e-07
1.41911e-08
3.17461e-07
1.38142e-08
3.17503e-07
1.34528e-08
3.1754e-07
1.31061e-08
3.17573e-07
1.27739e-08
3.17601e-07
1.2456e-08
3.17626e-07
1.21531e-08
3.17646e-07
1.18658e-08
3.17662e-07
1.15962e-08
3.17672e-07
1.13454e-08
3.17677e-07
1.11174e-08
3.17676e-07
1.09148e-08
3.17668e-07
1.07433e-08
3.17651e-07
1.06082e-08
3.17626e-07
1.05165e-08
3.17591e-07
1.04787e-08
3.17542e-07
1.05015e-08
3.17479e-07
1.06045e-08
3.17392e-07
1.07953e-08
3.17275e-07
1.11144e-08
3.17102e-07
1.15994e-08
3.16851e-07
1.2371e-08
1.36469e-08
3.16477e-07
3.16775e-07
2.45997e-08
3.1965e-07
4.68429e-08
3.20957e-07
4.35366e-08
3.21902e-07
3.78552e-08
3.22762e-07
3.60507e-08
3.2336e-07
3.45082e-08
3.2376e-07
3.21922e-08
3.24087e-07
3.00237e-08
3.24375e-07
2.83231e-08
3.2462e-07
2.68894e-08
3.24829e-07
2.55849e-08
3.25013e-07
2.43931e-08
3.25178e-07
2.33142e-08
3.25328e-07
2.2334e-08
3.25465e-07
2.14368e-08
3.25591e-07
2.06113e-08
3.25708e-07
1.98495e-08
3.25816e-07
1.91448e-08
3.25916e-07
1.84913e-08
3.2601e-07
1.78832e-08
3.26096e-07
1.73155e-08
3.26177e-07
1.67837e-08
3.26251e-07
1.62834e-08
3.2632e-07
1.5811e-08
3.26384e-07
1.53632e-08
3.26442e-07
1.49372e-08
3.26496e-07
1.45309e-08
3.26544e-07
1.41422e-08
3.26589e-07
1.37697e-08
3.26629e-07
1.34126e-08
3.26665e-07
1.307e-08
3.26697e-07
1.27419e-08
3.26725e-07
1.2428e-08
3.26749e-07
1.21293e-08
3.26768e-07
1.18464e-08
3.26783e-07
1.15814e-08
3.26793e-07
1.13357e-08
3.26797e-07
1.11131e-08
3.26795e-07
1.09167e-08
3.26787e-07
1.07518e-08
3.2677e-07
1.06244e-08
3.26745e-07
1.05415e-08
3.26711e-07
1.05134e-08
3.26663e-07
1.05488e-08
3.26602e-07
1.0666e-08
3.26518e-07
1.08796e-08
3.26405e-07
1.12274e-08
3.2624e-07
1.17637e-08
3.26008e-07
1.26039e-08
1.39785e-08
3.25676e-07
3.26186e-07
2.22166e-08
3.2899e-07
4.40387e-08
3.30327e-07
4.21995e-08
3.31251e-07
3.69313e-08
3.32109e-07
3.51923e-08
3.32732e-07
3.38852e-08
3.33148e-07
3.17762e-08
3.33482e-07
2.969e-08
3.33775e-07
2.80297e-08
3.34026e-07
2.66383e-08
3.3424e-07
2.5371e-08
3.34427e-07
2.4206e-08
3.34595e-07
2.31464e-08
3.34747e-07
2.21821e-08
3.34886e-07
2.12982e-08
3.35013e-07
2.0484e-08
3.35131e-07
1.9732e-08
3.35239e-07
1.9036e-08
3.3534e-07
1.83903e-08
3.35434e-07
1.77895e-08
3.35521e-07
1.72287e-08
3.35601e-07
1.67033e-08
3.35676e-07
1.62091e-08
3.35744e-07
1.57425e-08
3.35807e-07
1.53002e-08
3.35865e-07
1.48795e-08
3.35918e-07
1.4478e-08
3.35966e-07
1.4094e-08
3.36009e-07
1.37261e-08
3.36049e-07
1.33732e-08
3.36084e-07
1.30348e-08
3.36115e-07
1.27108e-08
3.36142e-07
1.24011e-08
3.36165e-07