/*--------------------------------*- C++ -*----------------------------------*\
  =========                 |
  \\      /  F ield         | OpenFOAM: The Open Source CFD Toolbox
   \\    /   O peration     | Website:  https://openfoam.org
    \\  /    A nd           | Version:  7
     \\/     M anipulation  |
\*---------------------------------------------------------------------------*/
FoamFile
{
    version     2.0;
    format      ascii;
    class       surfaceScalarField;
    location    "0.5";
    object      phi_0;
}
// * * * * * * * * * * * * * * * * * * * * * * * * * * * * * * * * * * * * * //

dimensions      [0 3 -1 0 0 0 0];

internalField   nonuniform List<scalar> 
139350
(
6.45112e-08
9.21203e-08
3.19619e-08
3.25492e-08
2.30543e-08
8.90764e-09
1.95669e-08
3.48738e-09
1.76122e-08
1.95467e-09
1.61792e-08
1.43308e-09
1.50432e-08
1.13591e-09
1.41278e-08
9.15458e-10
1.33741e-08
7.53733e-10
1.27387e-08
6.3538e-10
1.21928e-08
5.45847e-10
1.17172e-08
4.7565e-10
1.1298e-08
4.19178e-10
1.09251e-08
3.72901e-10
1.05907e-08
3.34416e-10
1.02887e-08
3.02006e-10
1.00143e-08
2.74412e-10
9.76357e-09
2.50694e-10
9.53343e-09
2.30135e-10
9.32125e-09
2.12182e-10
9.12485e-09
1.96398e-10
8.94241e-09
1.82438e-10
8.77239e-09
1.70023e-10
8.61346e-09
1.58931e-10
8.46449e-09
1.48975e-10
8.32448e-09
1.40008e-10
8.19257e-09
1.31907e-10
8.068e-09
1.24573e-10
7.95008e-09
1.1792e-10
7.83819e-09
1.11891e-10
7.73177e-09
1.06419e-10
7.63027e-09
1.01495e-10
7.53323e-09
9.70399e-11
7.4401e-09
9.31298e-11
7.35048e-09
8.962e-11
7.26374e-09
8.67441e-11
7.17954e-09
8.41953e-11
7.09705e-09
8.24918e-11
7.01603e-09
8.10252e-11
6.93532e-09
8.07118e-11
6.85469e-09
8.06251e-11
6.77294e-09
8.17484e-11
6.68922e-09
8.37273e-11
6.60401e-09
8.52048e-11
6.51315e-09
9.08616e-11
6.42627e-09
8.68821e-11
6.32411e-09
1.02158e-10
6.26908e-09
5.50307e-11
6.04396e-09
2.25119e-10
-2.75346e-09
8.79741e-09
1.25942e-07
1.27622e-07
9.12847e-08
6.72062e-08
7.19267e-08
2.82656e-08
6.12055e-08
1.42086e-08
5.47631e-08
8.39706e-09
5.02619e-08
5.93427e-09
4.67709e-08
4.62688e-09
4.39509e-08
3.7355e-09
4.16209e-08
3.08372e-09
3.96554e-08
2.60091e-09
3.7967e-08
2.23416e-09
3.64959e-08
1.94676e-09
3.51994e-08
1.71571e-09
3.40459e-08
1.52638e-09
3.30115e-08
1.36888e-09
3.20773e-08
1.23619e-09
3.12285e-08
1.12315e-09
3.04533e-08
1.02594e-09
2.97418e-08
9.41625e-10
2.9086e-08
8.67932e-10
2.84794e-08
8.03084e-10
2.79161e-08
7.45665e-10
2.73916e-08
6.94537e-10
2.69018e-08
6.48779e-10
2.64431e-08
6.07635e-10
2.60126e-08
5.70491e-10
2.56077e-08
5.36835e-10
2.5226e-08
5.0625e-10
2.48656e-08
4.78383e-10
2.45245e-08
4.52962e-10
2.42012e-08
4.2973e-10
2.38941e-08
4.08563e-10
2.36019e-08
3.89222e-10
2.33232e-08
3.71806e-10
2.30569e-08
3.55953e-10
2.28014e-08
3.42211e-10
2.25559e-08
3.29753e-10
2.23183e-08
3.20117e-10
2.2088e-08
3.11259e-10
2.1862e-08
3.06772e-10
2.16406e-08
3.02014e-10
2.14181e-08
3.04182e-10
2.11976e-08
3.04306e-10
2.0969e-08
3.13753e-10
2.07402e-08
3.19714e-10
2.04983e-08
3.28744e-10
2.02517e-08
3.48739e-10
2.00451e-08
2.61697e-10
1.96995e-08
5.70718e-10
-3.26022e-09
2.02062e-08
1.58751e-07
1.35275e-07
1.36522e-07
8.94354e-08
1.17482e-07
4.73052e-08
1.03298e-07
2.8393e-08
9.3297e-08
1.83982e-08
8.599e-08
1.32412e-08
8.02762e-08
1.03407e-08
7.5619e-08
8.39266e-09
7.17359e-08
6.9669e-09
6.84388e-08
5.89801e-09
6.55942e-08
5.07871e-09
6.31074e-08
4.43356e-09
6.09099e-08
3.91327e-09
5.89504e-08
3.48579e-09
5.719e-08
3.12935e-09
5.55978e-08
2.82841e-09
5.41493e-08
2.5716e-09
5.28249e-08
2.35036e-09
5.16083e-08
2.15817e-09
5.04863e-08
1.98996e-09
4.94477e-08
1.84174e-09
4.8483e-08
1.71032e-09
4.75844e-08
1.59313e-09
4.67451e-08
1.48811e-09
4.59592e-08
1.39354e-09
4.52217e-08
1.30801e-09
4.45281e-08
1.23037e-09
4.38747e-08
1.15966e-09
4.3258e-08
1.09506e-09
4.26751e-08
1.03591e-09
4.21232e-08
9.81649e-10
4.15999e-08
9.31886e-10
4.11029e-08
8.86158e-10
4.06303e-08
8.44465e-10
4.018e-08
8.06189e-10
3.97501e-08
7.72142e-10
3.9339e-08
7.40866e-10
3.89439e-08
7.15168e-10
3.85642e-08
6.90956e-10
3.81951e-08
6.75864e-10
3.78381e-08
6.59053e-10
3.74835e-08
6.58768e-10
3.71386e-08
6.49254e-10
3.67832e-08
6.69128e-10
3.64383e-08
6.64623e-10
3.60665e-08
7.00556e-10
3.57083e-08
7.06908e-10
3.5358e-08
6.12015e-10
3.50049e-08
9.23759e-10
-2.81404e-09
3.45588e-08
1.75611e-07
1.3118e-07
1.6562e-07
9.94262e-08
1.52726e-07
6.01993e-08
1.40109e-07
4.10099e-08
1.2942e-07
2.90868e-08
1.20773e-07
2.18883e-08
1.13654e-07
1.74603e-08
1.07666e-07
1.43801e-08
1.0256e-07
1.20728e-08
9.8153e-08
1.03053e-08
9.43041e-08
8.92757e-09
9.0908e-08
7.82967e-09
8.78848e-08
6.93649e-09
8.5173e-08
6.19757e-09
8.27245e-08
5.57788e-09
8.05007e-08
5.05217e-09
7.84706e-08
4.60168e-09
7.66088e-08
4.21221e-09
7.48942e-08
3.8728e-09
7.33092e-08
3.57492e-09
7.18392e-08
3.31176e-09
7.04716e-08
3.07789e-09
6.91958e-08
2.86892e-09
6.80027e-08
2.68126e-09
6.68843e-08
2.51194e-09
6.58338e-08
2.35853e-09
6.48451e-08
2.219e-09
6.39131e-08
2.09164e-09
6.30331e-08
1.97504e-09
6.22011e-08
1.868e-09
6.14132e-08
1.76951e-09
6.06663e-08
1.6788e-09
5.99573e-08
1.59511e-09
5.92836e-08
1.51822e-09
5.86426e-08
1.44721e-09
5.80316e-08
1.38309e-09
5.74488e-08
1.32367e-09
5.68908e-08
1.27313e-09
5.63568e-08
1.22499e-09
5.58411e-08
1.19155e-09
5.53456e-08
1.15459e-09
5.48588e-08
1.14558e-09
5.43895e-08
1.11851e-09
5.39137e-08
1.14494e-09
5.34561e-08
1.12224e-09
5.29725e-08
1.18421e-09
5.25092e-08
1.17016e-09
5.20428e-08
1.07841e-09
5.16463e-08
1.32029e-09
-2.09756e-09
5.09298e-08
1.8451e-07
1.23456e-07
1.82338e-07
1.01598e-07
1.76113e-07
6.64238e-08
1.67749e-07
4.93745e-08
1.59121e-07
3.77146e-08
1.51207e-07
2.98026e-08
1.44126e-07
2.45412e-08
1.37818e-07
2.06876e-08
1.32211e-07
1.76799e-08
1.2722e-07
1.52965e-08
1.22759e-07
1.33888e-08
1.18751e-07
1.18377e-08
1.15131e-07
1.0556e-08
1.11846e-07
9.48233e-09
1.08852e-07
8.57258e-09
1.0611e-07
7.7941e-09
1.03589e-07
7.12211e-09
1.01264e-07
6.53747e-09
9.91116e-08
6.0252e-09
9.71131e-08
5.57342e-09
9.52522e-08
5.17261e-09
9.35151e-08
4.81506e-09
9.18895e-08
4.49447e-09
9.03651e-08
4.20567e-09
8.89327e-08
3.94435e-09
8.75843e-08
3.70696e-09
8.63128e-08
3.49049e-09
8.5112e-08
3.29241e-09
8.39765e-08
3.11062e-09
8.29012e-08
2.94328e-09
8.18818e-08
2.78891e-09
8.09143e-08
2.64627e-09
7.99952e-08
2.51422e-09
7.91211e-08
2.39227e-09
7.82892e-08
2.27916e-09
7.74963e-08
2.176e-09
7.67401e-08
2.07987e-09
7.6017e-08
1.99623e-09
7.53257e-08
1.91625e-09
7.46605e-08
1.85673e-09
7.40228e-08
1.79239e-09
7.34012e-08
1.76715e-09
7.28033e-08
1.71639e-09
7.2207e-08
1.74128e-09
7.16317e-08
1.69752e-09
7.10424e-08
1.77349e-09
7.04686e-08
1.74391e-09
6.99048e-08
1.64224e-09
6.94121e-08
1.81301e-09
-1.29673e-09
6.86113e-08
1.90342e-07
1.1533e-07
1.91857e-07
1.00083e-07
1.90257e-07
6.80239e-08
1.86146e-07
5.34855e-08
1.80699e-07
4.31612e-08
1.74939e-07
3.55633e-08
1.69233e-07
3.02471e-08
1.63739e-07
2.61809e-08
1.58556e-07
2.28631e-08
1.53725e-07
2.01277e-08
1.49248e-07
1.78655e-08
1.45109e-07
1.59766e-08
1.41284e-07
1.43814e-08
1.37746e-07
1.30206e-08
1.34468e-07
1.18499e-08
1.31427e-07
1.08352e-08
1.286e-07
9.94959e-09
1.25965e-07
9.17176e-09
1.23506e-07
8.48452e-09
1.21206e-07
7.87401e-09
1.19049e-07
7.32888e-09
1.17025e-07
6.83977e-09
1.1512e-07
6.39895e-09
1.13326e-07
5.99999e-09
1.11633e-07
5.63748e-09
1.10033e-07
5.30687e-09
1.08519e-07
5.00433e-09
1.07085e-07
4.72657e-09
1.05725e-07
4.47085e-09
1.04433e-07
4.23473e-09
1.03206e-07
4.01626e-09
1.02038e-07
3.81372e-09
1.00927e-07
3.62565e-09
9.98679e-08
3.45122e-09
9.88582e-08
3.28885e-09
9.78945e-08
3.1397e-09
9.69741e-08
3.0002e-09
9.60935e-08
2.87683e-09
9.52509e-08
2.75887e-09
9.4441e-08
2.66669e-09
9.36637e-08
2.56962e-09
9.29099e-08
2.52099e-09
9.21833e-08
2.443e-09
9.14679e-08
2.45668e-09
9.07722e-08
2.39324e-09
9.00789e-08
2.46676e-09
8.93908e-08
2.43198e-09
8.87315e-08
2.30156e-09
8.8128e-08
2.41654e-09
-4.06673e-10
8.72379e-08
1.95504e-07
1.07641e-07
1.98245e-07
9.73415e-08
1.98981e-07
6.72882e-08
1.97782e-07
5.46845e-08
1.95141e-07
4.58023e-08
1.91792e-07
3.89114e-08
1.88051e-07
3.39886e-08
1.8409e-07
3.01421e-08
1.8006e-07
2.68931e-08
1.76072e-07
2.4116e-08
1.72193e-07
2.17442e-08
1.68462e-07
1.97071e-08
1.649e-07
1.79436e-08
1.61514e-07
1.64064e-08
1.58305e-07
1.5059e-08
1.55269e-07
1.38719e-08
1.52397e-07
1.28209e-08
1.49683e-07
1.18862e-08
1.47116e-07
1.10511e-08
1.44688e-07
1.0302e-08
1.4239e-07
9.62717e-09
1.40213e-07
9.01692e-09
1.38149e-07
8.46301e-09
1.3619e-07
7.95845e-09
1.3433e-07
7.49732e-09
1.32563e-07
7.07453e-09
1.30881e-07
6.68575e-09
1.29281e-07
6.3272e-09
1.27756e-07
5.99572e-09
1.26302e-07
5.68846e-09
1.24915e-07
5.40312e-09
1.23591e-07
5.13761e-09
1.22327e-07
4.8902e-09
1.21118e-07
4.65982e-09
1.19962e-07
4.44463e-09
1.18856e-07
4.24578e-09
1.17797e-07
4.05929e-09
1.16782e-07
3.89231e-09
1.15808e-07
3.73291e-09
1.14871e-07
3.60377e-09
1.13969e-07
3.47114e-09
1.13096e-07
3.39366e-09
1.12252e-07
3.28744e-09
1.11427e-07
3.28147e-09
1.10619e-07
3.20173e-09
1.09827e-07
3.25885e-09
1.09032e-07
3.2269e-09
1.08274e-07
3.05973e-09
1.07566e-07
3.12438e-09
5.89268e-10
1.0657e-07
2.00819e-07
1.00407e-07
2.0377e-07
9.43907e-08
2.0534e-07
6.57173e-08
2.05637e-07
5.43874e-08
2.04801e-07
4.66387e-08
2.03314e-07
4.03985e-08
2.01357e-07
3.59456e-08
1.99016e-07
3.24834e-08
1.96398e-07
2.9511e-08
1.93606e-07
2.69074e-08
1.90722e-07
2.46282e-08
1.87806e-07
2.26235e-08
1.84902e-07
2.0848e-08
1.82041e-07
1.92672e-08
1.79246e-07
1.78543e-08
1.7653e-07
1.65872e-08
1.73904e-07
1.54474e-08
1.71371e-07
1.4419e-08
1.68934e-07
1.34883e-08
1.66592e-07
1.26435e-08
1.64345e-07
1.18743e-08
1.6219e-07
1.11719e-08
1.60125e-07
1.05287e-08
1.58145e-07
9.93802e-09
1.56248e-07
9.39419e-09
1.5443e-07
8.89218e-09
1.52689e-07
8.42766e-09
1.51019e-07
7.99679e-09
1.49418e-07
7.59633e-09
1.47884e-07
7.22329e-09
1.46411e-07
6.87526e-09
1.44999e-07
6.54999e-09
1.43644e-07
6.24566e-09
1.42342e-07
5.96105e-09
1.41093e-07
5.69423e-09
1.39892e-07
5.44636e-09
1.38738e-07
5.21326e-09
1.37628e-07
5.00247e-09
1.36559e-07
4.80163e-09
1.35529e-07
4.63442e-09
1.34533e-07
4.46636e-09
1.3357e-07
4.35752e-09
1.32633e-07
4.22434e-09
1.31721e-07
4.19358e-09
1.30821e-07
4.10131e-09
1.29946e-07
4.13429e-09
1.29064e-07
4.10831e-09
1.28215e-07
3.90932e-09
1.27415e-07
3.92424e-09
1.68206e-09
1.26322e-07
2.06422e-07
9.35173e-08
2.09329e-07
9.14835e-08
2.11051e-07
6.3995e-08
2.11928e-07
5.35107e-08
2.11986e-07
4.6581e-08
2.11594e-07
4.07906e-08
2.10856e-07
3.6684e-08
2.09774e-07
3.35647e-08
2.08389e-07
3.08961e-08
2.06759e-07
2.85373e-08
2.0494e-07
2.6447e-08
2.02982e-07
2.45818e-08
2.00927e-07
2.29033e-08
1.9881e-07
2.13837e-08
1.96662e-07
2.00028e-08
1.94504e-07
1.87447e-08
1.92356e-07
1.75957e-08
1.90231e-07
1.65442e-08
1.88139e-07
1.55798e-08
1.86089e-07
1.46936e-08
1.84086e-07
1.38774e-08
1.82134e-07
1.31241e-08
1.80235e-07
1.24274e-08
1.78391e-07
1.17818e-08
1.76603e-07
1.11822e-08
1.74871e-07
1.06242e-08
1.73195e-07
1.01042e-08
1.71573e-07
9.61844e-09
1.70005e-07
9.16412e-09
1.6849e-07
8.73839e-09
1.67027e-07
8.339e-09
1.65613e-07
7.9638e-09
1.64247e-07
7.61106e-09
1.62929e-07
7.2796e-09
1.61655e-07
6.96757e-09
1.60426e-07
6.67621e-09
1.59237e-07
6.40141e-09
1.58089e-07
6.15086e-09
1.56978e-07
5.91243e-09
1.55903e-07
5.70986e-09
1.54859e-07
5.50971e-09
1.53846e-07
5.37058e-09
1.52857e-07
5.21399e-09
1.51893e-07
5.15746e-09
1.50938e-07
5.05657e-09
1.50008e-07
5.06412e-09
1.49071e-07
5.04486e-09
1.48155e-07
4.82552e-09
1.47281e-07
4.79834e-09
2.84234e-09
1.46121e-07
2.12268e-07
8.69114e-08
2.15138e-07
8.8614e-08
2.16806e-07
6.23266e-08
2.17842e-07
5.24744e-08
2.18246e-07
4.61779e-08
2.18356e-07
4.06804e-08
2.18272e-07
3.67683e-08
2.17961e-07
3.38749e-08
2.1742e-07
3.14379e-08
2.16665e-07
2.92915e-08
2.15723e-07
2.73892e-08
2.14618e-07
2.56866e-08
2.13377e-07
2.41448e-08
2.12024e-07
2.27366e-08
2.10583e-07
2.14437e-08
2.09075e-07
2.02525e-08
2.07519e-07
1.91521e-08
2.05929e-07
1.81334e-08
2.04321e-07
1.71885e-08
2.02704e-07
1.63105e-08
2.01088e-07
1.54932e-08
1.99481e-07
1.47311e-08
1.97889e-07
1.40194e-08
1.96317e-07
1.33536e-08
1.9477e-07
1.27297e-08
1.93249e-07
1.21444e-08
1.91759e-07
1.15944e-08
1.90301e-07
1.10769e-08
1.88875e-07
1.05894e-08
1.87484e-07
1.01296e-08
1.86128e-07
9.6956e-09
1.84806e-07
9.2855e-09
1.83519e-07
8.89786e-09
1.82267e-07
8.53174e-09
1.81049e-07
8.18549e-09
1.79865e-07
7.86054e-09
1.78713e-07
7.55304e-09
1.77593e-07
7.27078e-09
1.76503e-07
7.00226e-09
1.75443e-07
6.77069e-09
1.74407e-07
6.5449e-09
1.73398e-07
6.38013e-09
1.72406e-07
6.20593e-09
1.71437e-07
6.12661e-09
1.70471e-07
6.02185e-09
1.69528e-07
6.00735e-09
1.68577e-07
5.99655e-09
1.67632e-07
5.76976e-09
1.66713e-07
5.71748e-09
4.03712e-09
1.65518e-07
2.18314e-07
8.05781e-08
2.21187e-07
8.5741e-08
2.22779e-07
6.0735e-08
2.23843e-07
5.14097e-08
2.24355e-07
4.56663e-08
2.24643e-07
4.03925e-08
2.24835e-07
3.65761e-08
2.24903e-07
3.38068e-08
2.24827e-07
3.1514e-08
2.24607e-07
2.95112e-08
2.24249e-07
2.77476e-08
2.23758e-07
2.61773e-08
2.23144e-07
2.47585e-08
2.22419e-07
2.34619e-08
2.21595e-07
2.2268e-08
2.20684e-07
2.1163e-08
2.197e-07
2.01362e-08
2.18655e-07
1.91792e-08
2.17558e-07
1.82849e-08
2.16421e-07
1.74473e-08
2.15253e-07
1.66613e-08
2.14062e-07
1.59224e-08
2.12855e-07
1.52266e-08
2.11638e-07
1.45703e-08
2.10417e-07
1.39505e-08
2.09197e-07
1.33643e-08
2.07982e-07
1.28093e-08
2.06776e-07
1.22833e-08
2.05581e-07
1.17844e-08
2.044e-07
1.13106e-08
2.03235e-07
1.08606e-08
2.02088e-07
1.04328e-08
2.00959e-07
1.00262e-08
1.99851e-07
9.64013e-09
1.98763e-07
9.27327e-09
1.97696e-07
8.92734e-09
1.96651e-07
8.59883e-09
1.95626e-07
8.29562e-09
1.94621e-07
8.00711e-09
1.93636e-07
7.75561e-09
1.92668e-07
7.51299e-09
1.91718e-07
7.33e-09
1.90778e-07
7.14584e-09
1.89855e-07
7.04971e-09
1.8893e-07
6.94702e-09
1.8802e-07
6.91688e-09
1.87099e-07
6.91822e-09
1.8617e-07
6.69801e-09
1.85247e-07
6.64075e-09
5.23412e-09
1.8405e-07
2.24548e-07
7.45237e-08
2.27447e-07
8.28418e-08
2.28974e-07
5.92075e-08
2.30046e-07
5.03382e-08
2.30598e-07
4.51144e-08
2.30934e-07
4.00563e-08
2.31216e-07
3.62944e-08
2.31432e-07
3.35906e-08
2.31564e-07
3.13815e-08
2.31612e-07
2.94638e-08
2.31574e-07
2.77855e-08
2.31449e-07
2.63019e-08
2.31238e-07
2.49701e-08
2.30941e-07
2.37586e-08
2.30563e-07
2.26461e-08
2.30108e-07
2.16176e-08
2.29583e-07
2.06617e-08
2.28992e-07
1.97694e-08
2.28344e-07
1.89334e-08
2.27643e-07
1.81477e-08
2.26898e-07
1.74072e-08
2.26112e-07
1.67076e-08
2.25294e-07
1.60451e-08
2.24448e-07
1.54167e-08
2.23578e-07
1.48196e-08
2.22691e-07
1.42515e-08
2.2179e-07
1.37102e-08
2.2088e-07
1.3194e-08
2.19963e-07
1.27013e-08
2.19042e-07
1.22308e-08
2.18122e-07
1.17812e-08
2.17203e-07
1.13515e-08
2.16288e-07
1.09409e-08
2.15379e-07
1.05492e-08
2.14477e-07
1.01753e-08
2.13583e-07
9.82122e-09
2.12698e-07
9.48387e-09
2.11823e-07
9.17118e-09
2.10956e-07
8.87361e-09
2.101e-07
8.61232e-09
2.0925e-07
8.36266e-09
2.0841e-07
8.17019e-09
2.07571e-07
7.98462e-09
2.06741e-07
7.87933e-09
2.05903e-07
7.78527e-09
2.05072e-07
7.74784e-09
2.04225e-07
7.76578e-09
2.03355e-07
7.56804e-09
2.02471e-07
7.52417e-09
6.39766e-09
2.01308e-07
2.30974e-07
6.8756e-08
2.33908e-07
7.99078e-08
2.35378e-07
5.77371e-08
2.36458e-07
4.92585e-08
2.37042e-07
4.45299e-08
2.37393e-07
3.97054e-08
2.37696e-07
3.59913e-08
2.37958e-07
3.33286e-08
2.38166e-07
3.11737e-08
2.38323e-07
2.93072e-08
2.3843e-07
2.7678e-08
2.38487e-07
2.6245e-08
2.38491e-07
2.49661e-08
2.38441e-07
2.3809e-08
2.38335e-07
2.27515e-08
2.38175e-07
2.17779e-08
2.37961e-07
2.08759e-08
2.37694e-07
2.00358e-08
2.37378e-07
1.92498e-08
2.37015e-07
1.85113e-08
2.36607e-07
1.7815e-08
2.36158e-07
1.71562e-08
2.35672e-07
1.65312e-08
2.35152e-07
1.59366e-08
2.34602e-07
1.53699e-08
2.34025e-07
1.48285e-08
2.33424e-07
1.43107e-08
2.32804e-07
1.38147e-08
2.32166e-07
1.33392e-08
2.31514e-07
1.2883e-08
2.3085e-07
1.24451e-08
2.30176e-07
1.20249e-08
2.29496e-07
1.16216e-08
2.28809e-07
1.12354e-08
2.28119e-07
1.08653e-08
2.27427e-07
1.05137e-08
2.26733e-07
1.01779e-08
2.26038e-07
9.86584e-09
2.25343e-07
9.56901e-09
2.24648e-07
9.30723e-09
2.23951e-07
9.05962e-09
2.23255e-07
8.86614e-09
2.22552e-07
8.68719e-09
2.21851e-07
8.58066e-09
2.21135e-07
8.5013e-09
2.20417e-07
8.46572e-09
2.19679e-07
8.50437e-09
2.18901e-07
8.34539e-09
2.18094e-07
8.33174e-09
7.49114e-09
2.17e-07
2.376e-07
6.32809e-08
2.40573e-07
7.69345e-08
2.41986e-07
5.6324e-08
2.43073e-07
4.81717e-08
2.43694e-07
4.39089e-08
2.44058e-07
3.93418e-08
2.44366e-07
3.56829e-08
2.4464e-07
3.30544e-08
2.44871e-07
3.09433e-08
2.45063e-07
2.91144e-08
2.45225e-07
2.75164e-08
2.45357e-07
2.61133e-08
2.45458e-07
2.48651e-08
2.45527e-07
2.37399e-08
2.45563e-07
2.27156e-08
2.45564e-07
2.17762e-08
2.45531e-07
2.09092e-08
2.45462e-07
2.01047e-08
2.45358e-07
1.93543e-08
2.45218e-07
1.86512e-08
2.45043e-07
1.79896e-08
2.44835e-07
1.73644e-08
2.44594e-07
1.67717e-08
2.44323e-07
1.62078e-08
2.44023e-07
1.567e-08
2.43696e-07
1.51556e-08
2.43344e-07
1.46628e-08
2.42969e-07
1.41897e-08
2.42573e-07
1.37351e-08
2.42158e-07
1.32978e-08
2.41726e-07
1.28769e-08
2.41279e-07
1.24719e-08
2.40819e-07
1.20821e-08
2.40346e-07
1.17078e-08
2.39863e-07
1.13484e-08
2.39371e-07
1.10063e-08
2.38869e-07
1.06792e-08
2.3836e-07
1.03748e-08
2.37844e-07
1.00858e-08
2.3732e-07
9.83057e-09
2.36788e-07
9.59201e-09
2.3625e-07
9.40431e-09
2.35699e-07
9.23824e-09
2.35142e-07
9.13737e-09
2.34566e-07
9.07719e-09
2.3398e-07
9.0521e-09
2.33369e-07
9.11477e-09
2.32706e-07
9.00858e-09
2.31996e-07
9.04167e-09
8.48605e-09
2.31001e-07
2.44435e-07
5.81021e-08
2.47447e-07
7.39229e-08
2.48804e-07
5.49662e-08
2.49894e-07
4.70824e-08
2.50553e-07
4.32498e-08
2.50933e-07
3.8962e-08
2.51245e-07
3.53702e-08
2.51525e-07
3.27749e-08
2.51763e-07
3.07056e-08
2.51966e-07
2.89111e-08
2.52144e-07
2.7338e-08
2.52301e-07
2.5956e-08
2.52439e-07
2.47277e-08
2.52557e-07
2.36222e-08
2.52655e-07
2.26176e-08
2.52732e-07
2.16986e-08
2.52789e-07
2.08527e-08
2.52823e-07
2.00701e-08
2.52835e-07
1.93424e-08
2.52824e-07
1.86625e-08
2.52789e-07
1.80245e-08
2.5273e-07
1.74232e-08
2.52648e-07
1.68542e-08
2.52542e-07
1.63138e-08
2.52413e-07
1.57988e-08
2.52262e-07
1.53067e-08
2.52089e-07
1.48352e-08
2.51896e-07
1.43825e-08
2.51684e-07
1.39473e-08
2.51454e-07
1.35282e-08
2.51206e-07
1.31245e-08
2.50943e-07
1.27356e-08
2.50664e-07
1.23608e-08
2.50371e-07
1.20007e-08
2.50065e-07
1.16545e-08
2.49746e-07
1.13249e-08
2.49415e-07
1.10099e-08
2.49073e-07
1.07168e-08
2.4872e-07
1.04398e-08
2.48355e-07
1.01951e-08
2.47977e-07
9.96974e-09
2.47589e-07
9.7922e-09
2.47185e-07
9.6428e-09
2.4677e-07
9.55263e-09
2.46333e-07
9.51409e-09
2.45878e-07
9.50644e-09
2.45398e-07
9.59553e-09
2.44854e-07
9.55231e-09
2.44248e-07
9.64757e-09
9.36902e-09
2.43365e-07
2.51487e-07
5.32215e-08
2.54527e-07
7.08831e-08
2.5584e-07
5.3653e-08
2.56927e-07
4.59958e-08
2.57623e-07
4.25532e-08
2.58022e-07
3.85632e-08
2.5834e-07
3.50521e-08
2.58625e-07
3.24905e-08
2.58867e-07
3.04631e-08
2.59075e-07
2.87037e-08
2.59258e-07
2.71547e-08
2.59423e-07
2.57912e-08
2.59572e-07
2.45789e-08
2.59706e-07
2.34877e-08
2.59827e-07
2.24967e-08
2.59935e-07
2.15908e-08
2.6003e-07
2.07581e-08
2.60111e-07
1.9989e-08
2.60178e-07
1.92753e-08
2.6023e-07
1.861e-08
2.60268e-07
1.7987e-08
2.6029e-07
1.74012e-08
2.60296e-07
1.68481e-08
2.60286e-07
1.63237e-08
2.6026e-07
1.58249e-08
2.60218e-07
1.53489e-08
2.6016e-07
1.48933e-08
2.60086e-07
1.44563e-08
2.59997e-07
1.40364e-08
2.59893e-07
1.36322e-08
2.59774e-07
1.3243e-08
2.59642e-07
1.2868e-08
2.59496e-07
1.25068e-08
2.59337e-07
1.21598e-08
2.59165e-07
1.18264e-08
2.58981e-07
1.15094e-08
2.58784e-07
1.12068e-08
2.58575e-07
1.09258e-08
2.58353e-07
1.06618e-08
2.58119e-07
1.04291e-08
2.5787e-07
1.02185e-08
2.57609e-07
1.00532e-08
2.5733e-07
9.92179e-09
2.57037e-07
9.84531e-09
2.56722e-07
9.82886e-09
2.56385e-07
9.84345e-09
2.5602e-07
9.96041e-09
2.55586e-07
9.98633e-09
2.55077e-07
1.01567e-08
1.0142e-08
2.54304e-07
2.58765e-07
4.86395e-08
2.61823e-07
6.78255e-08
2.63102e-07
5.23734e-08
2.64181e-07
4.49171e-08
2.64913e-07
4.18215e-08
2.65332e-07
3.81434e-08
2.65657e-07
3.47276e-08
2.65947e-07
3.22007e-08
2.66194e-07
3.02155e-08
2.66405e-07
2.84927e-08
2.66591e-07
2.69689e-08
2.66759e-07
2.56237e-08
2.66911e-07
2.44265e-08
2.67051e-07
2.33483e-08
2.67179e-07
2.23685e-08
2.67297e-07
2.14728e-08
2.67405e-07
2.06498e-08
2.67504e-07
1.98901e-08
2.67593e-07
1.91858e-08
2.67673e-07
1.85301e-08
2.67743e-07
1.7917e-08
2.67803e-07
1.73413e-08
2.67853e-07
1.67986e-08
2.67891e-07
1.62849e-08
2.67919e-07
1.5797e-08
2.67936e-07
1.5332e-08
2.67942e-07
1.48875e-08
2.67937e-07
1.44616e-08
2.6792e-07
1.40527e-08
2.67893e-07
1.36596e-08
2.67855e-07
1.32812e-08
2.67806e-07
1.29171e-08
2.67746e-07
1.25666e-08
2.67675e-07
1.22304e-08
2.67594e-07
1.19078e-08
2.67502e-07
1.16016e-08
2.67398e-07
1.13102e-08
2.67284e-07
1.10403e-08
2.67157e-07
1.07886e-08
2.67019e-07
1.05675e-08
2.66866e-07
1.03713e-08
2.66701e-07
1.02184e-08
2.66518e-07
1.01045e-08
2.6632e-07
1.00429e-08
2.66101e-07
1.00476e-08
2.65858e-07
1.00872e-08
2.65585e-07
1.02328e-08
2.65241e-07
1.03306e-08
2.64812e-07
1.05855e-08
1.08181e-08
2.64136e-07
2.66277e-07
4.43547e-08
2.69342e-07
6.47609e-08
2.70598e-07
5.11166e-08
2.71665e-07
4.38506e-08
2.72429e-07
4.10577e-08
2.72871e-07
3.77009e-08
2.73203e-07
3.43958e-08
2.73498e-07
3.19054e-08
2.73751e-07
2.99624e-08
2.73966e-07
2.82779e-08
2.74154e-07
2.67807e-08
2.74324e-07
2.54545e-08
2.74478e-07
2.42725e-08
2.74619e-07
2.32071e-08
2.74749e-07
2.22382e-08
2.7487e-07
2.13519e-08
2.74983e-07
2.05373e-08
2.75087e-07
1.97855e-08
2.75184e-07
1.90887e-08
2.75274e-07
1.84403e-08
2.75357e-07
1.78346e-08
2.75432e-07
1.72663e-08
2.75499e-07
1.6731e-08
2.75559e-07
1.62249e-08
2.75612e-07
1.57445e-08
2.75657e-07
1.52872e-08
2.75694e-07
1.48504e-08
2.75723e-07
1.44323e-08
2.75744e-07
1.40312e-08
2.75758e-07
1.3646e-08
2.75764e-07
1.32755e-08
2.75761e-07
1.29194e-08
2.75751e-07
1.2577e-08
2.75732e-07
1.2249e-08
2.75705e-07
1.19349e-08
2.7567e-07
1.16374e-08
2.75624e-07
1.13553e-08
2.7557e-07
1.10948e-08
2.75505e-07
1.08538e-08
2.75429e-07
1.06431e-08
2.7534e-07
1.04599e-08
2.7524e-07
1.03188e-08
2.75124e-07
1.02209e-08
2.74992e-07
1.01744e-08
2.74841e-07
1.01987e-08
2.74664e-07
1.02644e-08
2.74458e-07
1.04389e-08
2.7418e-07
1.06089e-08
2.73811e-07
1.09541e-08
1.14154e-08
2.73214e-07
2.74032e-07
4.03642e-08
2.77092e-07
6.17001e-08
2.78337e-07
4.98724e-08
2.79387e-07
4.27998e-08
2.80179e-07
4.02657e-08
2.80646e-07
3.72343e-08
2.80986e-07
3.4056e-08
2.81286e-07
3.16048e-08
2.81545e-07
2.97035e-08
2.81764e-07
2.80589e-08
2.81955e-07
2.65897e-08
2.82127e-07
2.52833e-08
2.82282e-07
2.4117e-08
2.82424e-07
2.30647e-08
2.82556e-07
2.21069e-08
2.82678e-07
2.12299e-08
2.82791e-07
2.04236e-08
2.82898e-07
1.96793e-08
2.82997e-07
1.89895e-08
2.83089e-07
1.83477e-08
2.83176e-07
1.77483e-08
2.83256e-07
1.71862e-08
2.8333e-07
1.6657e-08
2.83398e-07
1.61569e-08
2.8346e-07
1.56826e-08
2.83516e-07
1.52311e-08
2.83566e-07
1.48003e-08
2.8361e-07
1.4388e-08
2.83649e-07
1.39928e-08
2.83681e-07
1.36133e-08
2.83708e-07
1.32487e-08
2.83729e-07
1.28986e-08
2.83743e-07
1.25624e-08
2.83752e-07
1.22407e-08
2.83753e-07
1.19333e-08
2.83748e-07
1.16426e-08
2.83735e-07
1.13682e-08
2.83715e-07
1.11155e-08
2.83685e-07
1.08837e-08
2.83646e-07
1.0682e-08
2.83595e-07
1.05102e-08
2.83534e-07
1.038e-08
2.83459e-07
1.02964e-08
2.83369e-07
1.02646e-08
2.83261e-07
1.03066e-08
2.83126e-07
1.03988e-08
2.82963e-07
1.06024e-08
2.82728e-07
1.08432e-08
2.82401e-07
1.12812e-08
1.19514e-08
2.81865e-07
2.82039e-07
3.66632e-08
2.85084e-07
5.86542e-08
2.86326e-07
4.86314e-08
2.87358e-07
4.17676e-08
2.88174e-07
3.94499e-08
2.88666e-07
3.67423e-08
2.89015e-07
3.37069e-08
2.8932e-07
3.1299e-08
2.89585e-07
2.94388e-08
2.89809e-07
2.78352e-08
2.90003e-07
2.63956e-08
2.90176e-07
2.51099e-08
2.90333e-07
2.39599e-08
2.90477e-07
2.29212e-08
2.90609e-07
2.19747e-08
2.90731e-07
2.11074e-08
2.90846e-07
2.03095e-08
2.90952e-07
1.95727e-08
2.91052e-07
1.88897e-08
2.91145e-07
1.82544e-08
2.91232e-07
1.76611e-08
2.91314e-07
1.71049e-08
2.91389e-07
1.65814e-08
2.91459e-07
1.60868e-08
2.91524e-07
1.56178e-08
2.91584e-07
1.51715e-08
2.91638e-07
1.47457e-08
2.91688e-07
1.43383e-08
2.91733e-07
1.39479e-08
2.91773e-07
1.35733e-08
2.91808e-07
1.32135e-08
2.91839e-07
1.28682e-08
2.91864e-07
1.25369e-08
2.91884e-07
1.22204e-08
2.91899e-07
1.19184e-08
2.91908e-07
1.16335e-08
2.91911e-07
1.13655e-08
2.91907e-07
1.11195e-08
2.91895e-07
1.08956e-08
2.91875e-07
1.07019e-08
2.91845e-07
1.05402e-08
2.91805e-07
1.042e-08
2.91752e-07
1.03492e-08
2.91685e-07
1.03316e-08
2.91602e-07
1.03901e-08
2.91492e-07
1.05084e-08
2.91353e-07
1.07415e-08
2.91146e-07
1.10504e-08
2.90846e-07
1.15809e-08
1.24392e-08
2.90359e-07
2.90307e-07
3.32451e-08
2.93327e-07
5.56343e-08
2.94574e-07
4.73846e-08
2.95585e-07
4.07562e-08
2.9642e-07
3.86152e-08
2.96938e-07
3.62239e-08
2.97298e-07
3.33474e-08
2.97609e-07
3.0988e-08
2.97879e-07
2.91683e-08
2.98108e-07
2.76065e-08
2.98305e-07
2.61983e-08
2.98481e-07
2.49343e-08
2.9864e-07
2.38011e-08
2.98785e-07
2.27763e-08
2.98918e-07
2.18415e-08
2.99041e-07
2.09842e-08
2.99156e-07
2.01949e-08
2.99262e-07
1.94658e-08
2.99362e-07
1.87899e-08
2.99456e-07
1.81611e-08
2.99543e-07
1.7574e-08
2.99624e-07
1.70236e-08
2.997e-07
1.65057e-08
2.9977e-07
1.60165e-08
2.99835e-07
1.55526e-08
2.99895e-07
1.51113e-08
2.99951e-07
1.46902e-08
3.00002e-07
1.42875e-08
3.00048e-07
1.39015e-08
3.0009e-07
1.35312e-08
3.00128e-07
1.31756e-08
3.00162e-07
1.28346e-08
3.00191e-07
1.25077e-08
3.00215e-07
1.21957e-08
3.00235e-07
1.18986e-08
3.0025e-07
1.16187e-08
3.00259e-07
1.13565e-08
3.00262e-07
1.11164e-08
3.00258e-07
1.08997e-08
3.00246e-07
1.07134e-08
3.00226e-07
1.05608e-08
3.00196e-07
1.04501e-08
3.00154e-07
1.03908e-08
3.00099e-07
1.0387e-08
3.00028e-07
1.0461e-08
2.99931e-07
1.06048e-08
2.99805e-07
1.08677e-08
2.99614e-07
1.12415e-08
2.99334e-07
1.18614e-08
1.28862e-08
2.98887e-07
2.98846e-07
3.01019e-08
3.01828e-07
5.26517e-08
3.03089e-07
4.61242e-08
3.04078e-07
3.97668e-08
3.04927e-07
3.77669e-08
3.05472e-07
3.56784e-08
3.05843e-07
3.2976e-08
3.0616e-07
3.06717e-08
3.06436e-07
2.88919e-08
3.0667e-07
2.73726e-08
3.06871e-07
2.59973e-08
3.07049e-07
2.47561e-08
3.0721e-07
2.36403e-08
3.07356e-07
2.26299e-08
3.07491e-07
2.17072e-08
3.07615e-07
2.08601e-08
3.0773e-07
2.00797e-08
3.07837e-07
1.93585e-08
3.07937e-07
1.86899e-08
3.0803e-07
1.80678e-08
3.08117e-07
1.7487e-08
3.08198e-07
1.69426e-08
3.08274e-07
1.64304e-08
3.08343e-07
1.59466e-08
3.08408e-07
1.54879e-08
3.08468e-07
1.50515e-08
3.08523e-07
1.46351e-08
3.08574e-07
1.42369e-08
3.0862e-07
1.38552e-08
3.08662e-07
1.34891e-08
3.087e-07
1.31377e-08
3.08734e-07
1.28007e-08
3.08764e-07
1.2478e-08
3.08789e-07
1.21702e-08
3.0881e-07
1.18777e-08
3.08826e-07
1.16025e-08
3.08837e-07
1.13456e-08
3.08842e-07
1.11112e-08
3.08841e-07
1.09011e-08
3.08833e-07
1.07218e-08
3.08816e-07
1.05777e-08
3.0879e-07
1.04761e-08
3.08753e-07
1.04276e-08
3.08703e-07
1.04371e-08
3.08638e-07
1.0526e-08
3.08548e-07
1.06946e-08
3.08428e-07
1.09874e-08
3.08248e-07
1.14219e-08
3.07983e-07
1.21259e-08
1.32948e-08
3.07575e-07
3.07665e-07
2.72239e-08
3.106e-07
4.97175e-08
3.1188e-07
4.48433e-08
3.12847e-07
3.87998e-08
3.13704e-07
3.69103e-08
3.14276e-07
3.51061e-08
3.14661e-07
3.25912e-08
3.14983e-07
3.03501e-08
3.15265e-07
2.86097e-08
3.15504e-07
2.71332e-08
3.15709e-07
2.57924e-08
3.1589e-07
2.45752e-08
3.16053e-07
2.34774e-08
3.16201e-07
2.24818e-08
3.16337e-07
2.15716e-08
3.16462e-07
2.07351e-08
3.16578e-07
1.99639e-08
3.16685e-07
1.92509e-08
3.16786e-07
1.85897e-08
3.16879e-07
1.79745e-08
3.16966e-07
1.74002e-08
3.17047e-07
1.68619e-08
3.17122e-07
1.63555e-08
3.17191e-07
1.58772e-08
3.17255e-07
1.54238e-08
3.17314e-07
1.49924e-08
3.17369e-07
1.45807e-08
3.17418e-07
1.4187e-08
3.17464e-07
1.38097e-08
3.17505e-07
1.34477e-08
3.17543e-07
1.31004e-08
3.17576e-07
1.27675e-08
3.17605e-07
1.24488e-08
3.1763e-07
1.21452e-08
3.17651e-07
1.18571e-08
3.17667e-07
1.15865e-08
3.17678e-07
1.13348e-08
3.17683e-07
1.11058e-08
3.17682e-07
1.09021e-08
3.17674e-07
1.07296e-08
3.17658e-07
1.05934e-08
3.17634e-07
1.05009e-08
3.17599e-07
1.04624e-08
3.17551e-07
1.0485e-08
3.17489e-07
1.05884e-08
3.17402e-07
1.07808e-08
3.17287e-07
1.11029e-08
3.17115e-07
1.15935e-08
3.16867e-07
1.23741e-08
1.36638e-08
3.16498e-07
3.16775e-07
2.45997e-08
3.1965e-07
4.68428e-08
3.20957e-07
4.35364e-08
3.21902e-07
3.7855e-08
3.22762e-07
3.60504e-08
3.2336e-07
3.45076e-08
3.2376e-07
3.21915e-08
3.24087e-07
3.00227e-08
3.24375e-07
2.83219e-08
3.2462e-07
2.6888e-08
3.2483e-07
2.55832e-08
3.25014e-07
2.43912e-08
3.25179e-07
2.33121e-08
3.25329e-07
2.23318e-08
3.25466e-07
2.14345e-08
3.25592e-07
2.0609e-08
3.25709e-07
1.98472e-08
3.25817e-07
1.91426e-08
3.25918e-07
1.84891e-08
3.26011e-07
1.7881e-08
3.26098e-07
1.73133e-08
3.26178e-07
1.67813e-08
3.26253e-07
1.62809e-08
3.26322e-07
1.58083e-08
3.26386e-07
1.53602e-08
3.26444e-07
1.49339e-08
3.26498e-07
1.45271e-08
3.26547e-07
1.41379e-08
3.26592e-07
1.3765e-08
3.26632e-07
1.34073e-08
3.26668e-07
1.3064e-08
3.26701e-07
1.27352e-08
3.26729e-07
1.24206e-08
3.26753e-07
1.21211e-08
3.26773e-07
1.18373e-08
3.26788e-07
1.15713e-08
3.26798e-07
1.13247e-08
3.26803e-07
1.11011e-08
3.26801e-07
1.09036e-08
3.26793e-07
1.07376e-08
3.26778e-07
1.06092e-08
3.26753e-07
1.05253e-08
3.26719e-07
1.04965e-08
3.26673e-07
1.05316e-08
3.26612e-07
1.0649e-08
3.26529e-07
1.08639e-08
3.26417e-07
1.12145e-08
3.26255e-07
1.17557e-08
3.26025e-07
1.26036e-08
1.399e-08
3.25699e-07
3.26186e-07
2.22166e-08
3.2899e-07
4.40386e-08
3.30327e-07
4.21993e-08
3.31251e-07
3.69311e-08
3.32109e-07
3.51919e-08
3.32732e-07
3.38846e-08
3.33148e-07
3.17754e-08
3.33482e-07
2.9689e-08
3.33776e-07
2.80284e-08
3.34027e-07
2.66368e-08
3.34241e-07
2.53693e-08
3.34428e-07
2.42039e-08
3.34596e-07
2.31442e-08
3.34748e-07
2.21797e-08
3.34887e-07
2.12958e-08
3.35014e-07
2.04815e-08
3.35132e-07
1.97296e-08
3.35241e-07
1.90336e-08
3.35342e-07
1.8388e-08
3.35436e-07
1.77872e-08
3.35522e-07
1.72263e-08
3.35603e-07
1.67008e-08
3.35677e-07
1.62065e-08
3.35746e-07
1.57397e-08
3.35809e-07
1.52971e-08
3.35867e-07
1.4876e-08
3.3592e-07
1.44741e-08
3.35968e-07
1.40896e-08
3.36012e-07
1.37211e-08
3.36052e-07
1.33677e-08
3.36087e-07
1.30286e-08
3.36119e-07