/*--------------------------------*- C++ -*----------------------------------*\
  =========                 |
  \\      /  F ield         | OpenFOAM: The Open Source CFD Toolbox
   \\    /   O peration     | Website:  https://openfoam.org
    \\  /    A nd           | Version:  7
     \\/     M anipulation  |
\*---------------------------------------------------------------------------*/
FoamFile
{
    version     2.0;
    format      ascii;
    class       volVectorField;
    location    "0.5";
    object      U;
}
// * * * * * * * * * * * * * * * * * * * * * * * * * * * * * * * * * * * * * //

dimensions      [0 1 -1 0 0 0 0];

internalField   nonuniform List<vector> 
70000
(
(0.553411 0.0169783 0)
(0.251403 0.00340068 0)
(0.165895 0.000319256 0)
(0.132394 4.92651e-05 0)
(0.117272 4.43064e-05 0)
(0.107297 5.24666e-05 0)
(0.0993103 4.46618e-05 0)
(0.092852 3.55827e-05 0)
(0.0875938 2.95444e-05 0)
(0.0832107 2.54082e-05 0)
(0.0794744 2.22509e-05 0)
(0.0762372 1.97232e-05 0)
(0.0733977 1.7665e-05 0)
(0.070882 1.59668e-05 0)
(0.0686339 1.45476e-05 0)
(0.06661 1.33478e-05 0)
(0.0647759 1.23231e-05 0)
(0.0631045 1.1441e-05 0)
(0.0615735 1.06758e-05 0)
(0.0601648 1.00084e-05 0)
(0.0588631 9.42323e-06 0)
(0.057656 8.90835e-06 0)
(0.0565326 8.45375e-06 0)
(0.055484 8.05201e-06 0)
(0.0545023 7.69637e-06 0)
(0.0535809 7.38304e-06 0)
(0.0527137 7.10684e-06 0)
(0.0518956 6.86723e-06 0)
(0.0511221 6.65968e-06 0)
(0.0503888 6.48775e-06 0)
(0.0496923 6.34463e-06 0)
(0.0490287 6.24284e-06 0)
(0.0483953 6.16539e-06 0)
(0.0477881 6.14506e-06 0)
(0.047205 6.14098e-06 0)
(0.0466417 6.22152e-06 0)
(0.0460962 6.30859e-06 0)
(0.0455643 6.50846e-06 0)
(0.0450414 6.73068e-06 0)
(0.0445283 7.02491e-06 0)
(0.0440069 7.51285e-06 0)
(0.0435033 7.67645e-06 0)
(0.042949 8.83731e-06 0)
(0.0424613 7.95773e-06 0)
(0.041811 1.10365e-05 0)
(0.0414037 5.97959e-06 0)
(0.0405319 1.49682e-05 0)
(0.0404432 -5.13962e-06 0)
(0.0392563 2.7486e-05 0)
(0.0373803 -0.00145216 0)
(0.884862 0.043494 0)
(0.650127 0.0201506 0)
(0.493921 0.00660683 0)
(0.403458 0.00275704 0)
(0.354707 0.00155023 0)
(0.323354 0.0011339 0)
(0.299418 0.000911423 0)
(0.280175 0.000746804 0)
(0.264429 0.000624127 0)
(0.251276 0.000533698 0)
(0.240063 0.000465079 0)
(0.23035 0.000411096 0)
(0.22183 0.000367488 0)
(0.21428 0.000331599 0)
(0.207533 0.000301627 0)
(0.201459 0.000276282 0)
(0.195956 0.000254616 0)
(0.190941 0.00023592 0)
(0.186348 0.000219649 0)
(0.182123 0.000205386 0)
(0.178221 0.000192799 0)
(0.174605 0.000181624 0)
(0.171241 0.00017165 0)
(0.168104 0.000162706 0)
(0.16517 0.000154651 0)
(0.16242 0.000147372 0)
(0.159835 0.000140774 0)
(0.157401 0.000134786 0)
(0.155104 0.000129342 0)
(0.152933 0.000124404 0)
(0.150876 0.000119923 0)
(0.148924 0.000115902 0)
(0.147069 0.000112287 0)
(0.145301 0.000109159 0)
(0.143614 0.000106405 0)
(0.141997 0.00010427 0)
(0.140445 0.000102473 0)
(0.138949 0.000101597 0)
(0.137497 0.000100973 0)
(0.136092 0.000101801 0)
(0.134688 0.000102739 0)
(0.133353 0.000105731 0)
(0.131907 0.0001089 0)
(0.130658 0.000113654 0)
(0.128996 0.000120201 0)
(0.127974 0.000121598 0)
(0.125739 0.000135833 0)
(0.125434 8.85059e-05 0)
(0.122294 0.000282937 0)
(0.120849 -0.00242461 0)
(0.991209 0.049957 0)
(0.890908 0.0305663 0)
(0.762436 0.0146156 0)
(0.656425 0.00797638 0)
(0.585264 0.00488522 0)
(0.535838 0.00348004 0)
(0.497892 0.00274369 0)
(0.467212 0.0022493 0)
(0.441849 0.0018856 0)
(0.420495 0.00161412 0)
(0.402197 0.00140692 0)
(0.386289 0.00124387 0)
(0.372294 0.00111222 0)
(0.359864 0.00100385 0)
(0.348734 0.00091329 0)
(0.338696 0.000836659 0)
(0.329589 0.000771098 0)
(0.321281 0.000714473 0)
(0.313665 0.000665148 0)
(0.306654 0.000621859 0)
(0.300175 0.000583607 0)
(0.294166 0.000549596 0)
(0.288576 0.000519184 0)
(0.283362 0.000491852 0)
(0.278485 0.000467172 0)
(0.273912 0.000444797 0)
(0.269617 0.000424437 0)
(0.265573 0.000405856 0)
(0.26176 0.000388858 0)
(0.258157 0.000373292 0)
(0.254749 0.00035902 0)
(0.251519 0.000345985 0)
(0.248455 0.000334063 0)
(0.245541 0.000323354 0)
(0.24277 0.000313647 0)
(0.240124 0.000305396 0)
(0.237597 0.000298015 0)
(0.235175 0.00029283 0)
(0.232842 0.000288143 0)
(0.230604 0.000287317 0)
(0.228394 0.000285918 0)
(0.226313 0.000291551 0)
(0.224103 0.00029407 0)
(0.222202 0.000308364 0)
(0.219747 0.000314721 0)
(0.218206 0.000333893 0)
(0.215008 0.000347999 0)
(0.214411 0.000284453 0)
(0.209906 0.000536475 0)
(0.209816 -0.0023162 0)
(1.01554 0.0489556 0)
(1.00648 0.0357295 0)
(0.935844 0.0208275 0)
(0.851917 0.0135081 0)
(0.78208 0.00920788 0)
(0.726867 0.00679311 0)
(0.681713 0.00539659 0)
(0.643892 0.00445505 0)
(0.611821 0.00376028 0)
(0.584303 0.00323451 0)
(0.5604 0.00282856 0)
(0.539402 0.00250697 0)
(0.520781 0.00224616 0)
(0.504133 0.00203071 0)
(0.489146 0.0018501 0)
(0.475571 0.00169685 0)
(0.463206 0.00156541 0)
(0.45189 0.00145163 0)
(0.441488 0.00135233 0)
(0.431889 0.00126501 0)
(0.423 0.0011877 0)
(0.414742 0.00111885 0)
(0.407048 0.00105718 0)
(0.39986 0.00100165 0)
(0.39313 0.000951407 0)
(0.386814 0.000905758 0)
(0.380875 0.000864118 0)
(0.375281 0.000826002 0)
(0.370003 0.000791013 0)
(0.365015 0.000758817 0)
(0.360295 0.00072914 0)
(0.355823 0.000701802 0)
(0.351581 0.000676586 0)
(0.34755 0.000653553 0)
(0.343718 0.000632376 0)
(0.340067 0.000613694 0)
(0.336588 0.000596558 0)
(0.333263 0.000583159 0)
(0.330073 0.000570452 0)
(0.327027 0.000564655 0)
(0.324046 0.000556968 0)
(0.321247 0.00056313 0)
(0.318338 0.000560545 0)
(0.315807 0.000585037 0)
(0.3127 0.000585176 0)
(0.310618 0.000628143 0)
(0.306787 0.000633505 0)
(0.305697 0.000574397 0)
(0.300514 0.000791103 0)
(0.300627 -0.00180833 0)
(1.01435 0.0461002 0)
(1.04797 0.0373478 0)
(1.02454 0.0241978 0)
(0.974607 0.0175711 0)
(0.923352 0.0131236 0)
(0.876557 0.01022 0)
(0.834327 0.00835938 0)
(0.796516 0.00703595 0)
(0.7629 0.00602463 0)
(0.733036 0.00523691 0)
(0.706409 0.0046151 0)
(0.682546 0.00411467 0)
(0.661047 0.00370405 0)
(0.641582 0.00336172 0)
(0.623872 0.00307259 0)
(0.60769 0.00282567 0)
(0.592842 0.00261277 0)
(0.579167 0.00242761 0)
(0.566527 0.00226533 0)
(0.554808 0.00212213 0)
(0.543911 0.00199494 0)
(0.53375 0.00188131 0)
(0.524252 0.00177925 0)
(0.515354 0.00168712 0)
(0.507 0.00160356 0)
(0.499143 0.00152745 0)
(0.49174 0.00145785 0)
(0.484753 0.00139398 0)
(0.47815 0.00133517 0)
(0.471901 0.00128088 0)
(0.46598 0.00123065 0)
(0.460362 0.00118413 0)
(0.455029 0.00114099 0)
(0.449957 0.00110119 0)
(0.445134 0.0010643 0)
(0.440537 0.00103108 0)
(0.436157 0.0010002 0)
(0.431973 0.000974731 0)
(0.427967 0.000950169 0)
(0.424143 0.000935764 0)
(0.420427 0.000918014 0)
(0.416925 0.000921344 0)
(0.413362 0.000909945 0)
(0.410192 0.000941554 0)
(0.406524 0.000932609 0)
(0.403828 0.000995395 0)
(0.399588 0.000992153 0)
(0.39777 0.000938024 0)
(0.392471 0.00110093 0)
(0.391634 -0.0012426 0)
(1.00941 0.04305 0)
(1.05563 0.0371042 0)
(1.05865 0.0253413 0)
(1.03625 0.0197795 0)
(1.00702 0.0158161 0)
(0.975948 0.0129527 0)
(0.944355 0.0109809 0)
(0.913421 0.00949676 0)
(0.884007 0.00830461 0)
(0.856495 0.00733638 0)
(0.830962 0.00654649 0)
(0.807344 0.00589437 0)
(0.785519 0.00534851 0)
(0.765344 0.00488606 0)
(0.746672 0.00449028 0)
(0.729361 0.00414855 0)
(0.713283 0.00385112 0)
(0.698318 0.00359038 0)
(0.684361 0.00336028 0)
(0.671317 0.00315597 0)
(0.659102 0.00297352 0)
(0.647643 0.00280975 0)
(0.636873 0.002662 0)
(0.626733 0.00252809 0)
(0.617172 0.0024062 0)
(0.608144 0.00229479 0)
(0.599606 0.0021926 0)
(0.591522 0.00209851 0)
(0.583859 0.00201162 0)
(0.576587 0.00193114 0)
(0.569679 0.00185643 0)
(0.563109 0.00178696 0)
(0.556859 0.00172225 0)
(0.550903 0.00166219 0)
(0.545229 0.00160618 0)
(0.539813 0.00155511 0)
(0.534644 0.00150727 0)
(0.529701 0.00146652 0)
(0.524969 0.00142705 0)
(0.520443 0.00140077 0)
(0.516064 0.00137017 0)
(0.51191 0.00136703 0)
(0.507756 0.00134483 0)
(0.503965 0.00137842 0)
(0.499812 0.00136133 0)
(0.496468 0.00143399 0)
(0.491945 0.00142997 0)
(0.489286 0.00136719 0)
(0.484088 0.00149199 0)
(0.481982 -0.000633923 0)
(1.00635 0.0401824 0)
(1.0524 0.0361584 0)
(1.06603 0.0252665 0)
(1.05948 0.0205873 0)
(1.04681 0.0172471 0)
(1.03071 0.0146758 0)
(1.01175 0.012845 0)
(0.990995 0.0114183 0)
(0.969521 0.0102196 0)
(0.948056 0.00920312 0)
(0.927044 0.0083427 0)
(0.906747 0.00761005 0)
(0.887311 0.00698059 0)
(0.868805 0.00643549 0)
(0.851247 0.00596023 0)
(0.834624 0.00554333 0)
(0.818902 0.00517553 0)
(0.80404 0.00484928 0)
(0.78999 0.00455839 0)
(0.776702 0.00429776 0)
(0.764129 0.00406316 0)
(0.752222 0.00385105 0)
(0.740939 0.00365846 0)
(0.730237 0.00348289 0)
(0.720078 0.00332223 0)
(0.710426 0.00317468 0)
(0.701249 0.00303872 0)
(0.692515 0.00291302 0)
(0.684198 0.00279649 0)
(0.676272 0.00268814 0)
(0.668712 0.00258718 0)
(0.661497 0.00249292 0)
(0.654608 0.0024048 0)
(0.648024 0.00232257 0)
(0.641731 0.00224555 0)
(0.635708 0.00217469 0)
(0.629945 0.00210801 0)
(0.62442 0.00204994 0)
(0.619122 0.00199377 0)
(0.614038 0.00195335 0)
(0.609128 0.00190847 0)
(0.604436 0.00189578 0)
(0.599801 0.00186256 0)
(0.595475 0.00189282 0)
(0.590928 0.00187079 0)
(0.586995 0.00194297 0)
(0.582255 0.0019467 0)
(0.578827 0.00186565 0)
(0.573688 0.00196092 0)
(0.570512 4.98407e-05 0)
(1.00506 0.0375055 0)
(1.04762 0.0350609 0)
(1.06393 0.0247206 0)
(1.06414 0.0206209 0)
(1.06062 0.0177889 0)
(1.05467 0.0155212 0)
(1.04586 0.0139066 0)
(1.0346 0.0126455 0)
(1.02163 0.0115578 0)
(1.00754 0.0106043 0)
(0.992791 0.00977138 0)
(0.977743 0.00904111 0)
(0.962659 0.0083967 0)
(0.947733 0.00782501 0)
(0.9331 0.00731577 0)
(0.91885 0.00686052 0)
(0.905042 0.00645208 0)
(0.89171 0.00608437 0)
(0.87887 0.00575215 0)
(0.866526 0.00545097 0)
(0.854674 0.00517697 0)
(0.843306 0.00492686 0)
(0.832406 0.0046978 0)
(0.82196 0.00448733 0)
(0.811949 0.00429335 0)
(0.802357 0.00411403 0)
(0.793166 0.00394779 0)
(0.784356 0.00379325 0)
(0.775911 0.00364923 0)
(0.767814 0.00351466 0)
(0.760049 0.0033887 0)
(0.752599 0.00327058 0)
(0.745451 0.00315967 0)
(0.738588 0.00305568 0)
(0.732001 0.00295786 0)
(0.72567 0.00286723 0)
(0.71959 0.00278166 0)
(0.713739 0.00270597 0)
(0.708111 0.00263298 0)
(0.702688 0.00257761 0)
(0.697448 0.00251857 0)
(0.692405 0.00249462 0)
(0.687456 0.00245151 0)
(0.682755 0.00247465 0)
(0.677946 0.00245125 0)
(0.673579 0.00251626 0)
(0.668689 0.00253218 0)
(0.66469 0.00243438 0)
(0.659539 0.00249896 0)
(0.655579 0.000813792 0)
(1.00451 0.0349699 0)
(1.04359 0.0339819 0)
(1.05991 0.0240713 0)
(1.06218 0.0203339 0)
(1.06245 0.017857 0)
(1.06174 0.0158048 0)
(1.05912 0.0143649 0)
(1.05451 0.0132702 0)
(1.04823 0.0123251 0)
(1.0406 0.0114838 0)
(1.0319 0.0107352 0)
(1.02238 0.0100656 0)
(1.01227 0.00946219 0)
(1.00178 0.00891549 0)
(0.991058 0.00841861 0)
(0.980242 0.00796596 0)
(0.969432 0.00755272 0)
(0.958707 0.00717468 0)
(0.948128 0.00682808 0)
(0.93774 0.0065096 0)
(0.927576 0.00621626 0)
(0.917659 0.00594544 0)
(0.908005 0.00569481 0)
(0.898623 0.0054623 0)
(0.88952 0.00524609 0)
(0.880698 0.00504457 0)
(0.872155 0.00485633 0)
(0.863889 0.00468009 0)
(0.855896 0.00451478 0)
(0.84817 0.00435938 0)
(0.840705 0.0042131 0)
(0.833493 0.00407517 0)
(0.826528 0.00394502 0)
(0.8198 0.00382236 0)
(0.813305 0.00370647 0)
(0.807029 0.00359842 0)
(0.800971 0.00349611 0)
(0.795111 0.00340452 0)
(0.789451 0.00331649 0)
(0.783969 0.00324727 0)
(0.778656 0.00317581 0)
(0.773511 0.00314074 0)
(0.768469 0.00309 0)
(0.76362 0.00310462 0)
(0.758727 0.00308303 0)
(0.754147 0.00313884 0)
(0.749224 0.00316803 0)
(0.744896 0.00306137 0)
(0.739774 0.0030976 0)
(0.735261 0.00163712 0)
(1.00412 0.0325397 0)
(1.04026 0.0329295 0)
(1.05615 0.0234384 0)
(1.05883 0.0199518 0)
(1.06018 0.0177311 0)
(1.06152 0.0158113 0)
(1.06184 0.0144737 0)
(1.06089 0.013495 0)
(1.05877 0.0126663 0)
(1.05559 0.011931 0)
(1.05144 0.0112755 0)
(1.04643 0.0106858 0)
(1.0407 0.010149 0)
(1.03436 0.00965649 0)
(1.02754 0.00920249 0)
(1.02035 0.00878282 0)
(1.01288 0.00839407 0)
(1.00522 0.00803334 0)
(0.997426 0.00769805 0)
(0.989572 0.00738589 0)
(0.981702 0.00709478 0)
(0.973857 0.00682283 0)
(0.966072 0.00656833 0)
(0.958374 0.00632973 0)
(0.950785 0.00610566 0)
(0.943322 0.00589484 0)
(0.935999 0.0056962 0)
(0.928826 0.00550869 0)
(0.921812 0.00533146 0)
(0.914962 0.00516365 0)
(0.908279 0.00500463 0)
(0.901765 0.00485375 0)
(0.895421 0.00471055 0)
(0.889245 0.00457482 0)
(0.883239 0.00444596 0)
(0.877395 0.00432512 0)
(0.871715 0.00421033 0)
(0.866188 0.00410666 0)
(0.860816 0.00400727 0)
(0.855582 0.00392723 0)
(0.850485 0.0038467 0)
(0.845516 0.00380261 0)
(0.840636 0.00374756 0)
(0.835896 0.00375471 0)
(0.831138 0.00373797 0)
(0.826593 0.00378614 0)
(0.821815 0.00382901 0)
(0.817403 0.00372286 0)
(0.812448 0.00374082 0)
(0.807607 0.00249382 0)
(1.00374 0.0302058 0)
(1.03726 0.0318814 0)
(1.05281 0.0228366 0)
(1.05559 0.019552 0)
(1.05708 0.0175439 0)
(1.05898 0.0157135 0)
(1.06037 0.0144243 0)
(1.06101 0.0135097 0)
(1.06096 0.0127551 0)
(1.06025 0.0120943 0)
(1.05889 0.0115112 0)
(1.05688 0.0109905 0)
(1.05426 0.0105178 0)
(1.05109 0.0100835 0)
(1.04742 0.00968134 0)
(1.04331 0.00930704 0)
(1.03883 0.00895746 0)
(1.03403 0.00863009 0)
(1.02896 0.00832281 0)
(1.02369 0.00803383 0)
(1.01824 0.00776155 0)
(1.01266 0.00750458 0)
(1.007 0.00726164 0)
(1.00127 0.00703161 0)
(0.995517 0.00681348 0)
(0.989755 0.00660633 0)
(0.984006 0.00640938 0)
(0.97829 0.00622186 0)
(0.972621 0.00604316 0)
(0.967012 0.00587265 0)
(0.961475 0.00570988 0)
(0.956017 0.00555439 0)
(0.950647 0.00540586 0)
(0.945367 0.00526425 0)
(0.940185 0.00512908 0)
(0.935098 0.00500167 0)
(0.930114 0.00488021 0)
(0.925225 0.00476984 0)
(0.920436 0.00466421 0)
(0.915738 0.00457795 0)
(0.91113 0.00449297 0)
(0.906606 0.00444361 0)
(0.902139 0.00438846 0)
(0.897762 0.00439114 0)
(0.893366 0.00438259 0)
(0.889098 0.0044267 0)
(0.884664 0.00448492 0)
(0.880405 0.0043881 0)
(0.875779 0.00440276 0)
(0.870889 0.00335889 0)
(1.00337 0.0279706 0)
(1.03442 0.0308253 0)
(1.0497 0.0222598 0)
(1.05262 0.0191496 0)
(1.05408 0.0173382 0)
(1.05603 0.0155866 0)
(1.0577 0.0143201 0)
(1.05886 0.013437 0)
(1.05963 0.0127236 0)
(1.06003 0.0121064 0)
(1.06005 0.0115685 0)
(1.05969 0.0110944 0)
(1.05892 0.0106688 0)
(1.05775 0.0102807 0)
(1.0562 0.00992294 0)
(1.05429 0.00959075 0)
(1.05204 0.00928046 0)
(1.04948 0.00898932 0)
(1.04664 0.0087151 0)
(1.04354 0.00845599 0)
(1.04023 0.00821046 0)
(1.03672 0.00797721 0)
(1.03304 0.00775513 0)
(1.02922 0.00754326 0)
(1.02529 0.00734079 0)
(1.02127 0.00714698 0)
(1.01717 0.00696123 0)
(1.01302 0.00678298 0)
(1.00883 0.00661181 0)
(1.00462 0.00644726 0)
(1.00041 0.00628905 0)
(0.996194 0.00613689 0)
(0.991995 0.00599062 0)
(0.987817 0.00585037 0)
(0.983669 0.0057158 0)
(0.979555 0.00558838 0)
(0.975482 0.00546651 0)
(0.971448 0.00535537 0)
(0.96746 0.00524923 0)
(0.963512 0.00516204 0)
(0.959605 0.00507785 0)
(0.955736 0.00502784 0)
(0.951888 0.00497731 0)
(0.948079 0.00497959 0)
(0.944239 0.0049829 0)
(0.940452 0.00502761 0)
(0.93654 0.00510365 0)
(0.932649 0.00502566 0)
(0.928486 0.00505086 0)
(0.923832 0.00420932 0)
(1.00301 0.0258377 0)
(1.0317 0.029757 0)
(1.04671 0.0217043 0)
(1.04983 0.0187443 0)
(1.05126 0.0171208 0)
(1.05318 0.0154528 0)
(1.05488 0.0142024 0)
(1.05616 0.0133361 0)
(1.05716 0.0126462 0)
(1.05795 0.0120531 0)
(1.05854 0.01154 0)
(1.05891 0.0110926 0)
(1.05904 0.0106956 0)
(1.05894 0.0103375 0)
(1.0586 0.0100105 0)
(1.058 0.00970918 0)
(1.05717 0.00942956 0)
(1.0561 0.00916843 0)
(1.05481 0.00892323 0)
(1.05329 0.00869189 0)
(1.05158 0.00847269 0)
(1.04967 0.00826419 0)
(1.04759 0.00806519 0)
(1.04536 0.00787468 0)
(1.04298 0.00769182 0)
(1.04047 0.00751592 0)
(1.03785 0.00734641 0)
(1.03514 0.0071828 0)
(1.03234 0.00702475 0)
(1.02947 0.00687188 0)
(1.02654 0.00672403 0)
(1.02357 0.00658103 0)
(1.02056 0.00644281 0)
(1.01752 0.00630965 0)
(1.01446 0.00618131 0)
(1.01139 0.00605943 0)
(1.00831 0.00594259 0)
(1.00522 0.00583598 0)
(1.00213 0.00573452 0)
(0.999042 0.00565137 0)
(0.99595 0.0055729 0)
(0.992855 0.00552679 0)
(0.989746 0.00548533 0)
(0.986633 0.00549151 0)
(0.983473 0.00551005 0)
(0.980302 0.00556055 0)
(0.977028 0.00565659 0)
(0.973664 0.00560778 0)
(0.970055 0.00565519 0)
(0.965849 0.00501992 0)
(1.00268 0.0238096 0)
(1.0291 0.028675 0)
(1.0438 0.0211696 0)
(1.04714 0.0183361 0)
(1.04857 0.0168901 0)
(1.05045 0.0153147 0)
(1.05215 0.014082 0)
(1.05344 0.0132278 0)
(1.05447 0.0125549 0)
(1.05536 0.0119772 0)
(1.05612 0.011478 0)
(1.05675 0.011045 0)
(1.05725 0.0106637 0)
(1.05762 0.0103225 0)
(1.05785 0.0100136 0)
(1.05793 0.00973153 0)
(1.05786 0.00947192 0)
(1.05764 0.00923137 0)
(1.05727 0.0090071 0)
(1.05674 0.00879676 0)
(1.05606 0.00859843 0)
(1.05524 0.00841046 0)
(1.05427 0.00823146 0)
(1.05317 0.00806029 0)
(1.05193 0.00789599 0)
(1.05058 0.00773776 0)
(1.04911 0.00758498 0)
(1.04754 0.00743713 0)
(1.04588 0.00729384 0)
(1.04413 0.00715477 0)
(1.04231 0.00701976 0)
(1.04041 0.0068887 0)
(1.03845 0.00676156 0)
(1.03644 0.00663874 0)
(1.03438 0.00652004 0)
(1.03227 0.00640722 0)
(1.03013 0.00629905 0)
(1.02795 0.00620062 0)
(1.02574 0.00610761 0)
(1.02349 0.00603217 0)
(1.02122 0.00596315 0)
(1.01891 0.00592456 0)
(1.01656 0.00589557 0)
(1.01417 0.00590942 0)
(1.01173 0.00594555 0)
(1.00923 0.00600686 0)
(1.00662 0.00612436 0)
(1.00387 0.00611427 0)
(1.00085 0.00619492 0)
(0.997196 0.0057669 0)
(1.00238 0.0218881 0)
(1.02663 0.0275784 0)
(1.04097 0.0206554 0)
(1.04453 0.0179264 0)
(1.04598 0.0166449 0)
(1.04783 0.0151709 0)
(1.04953 0.0139603 0)
(1.05081 0.0131174 0)
(1.05183 0.0124598 0)
(1.05272 0.0118948 0)
(1.05352 0.0114053 0)
(1.05422 0.010981 0)
(1.05483 0.0106086 0)
(1.05536 0.0102767 0)
(1.05581 0.00997787 0)
(1.05618 0.00970652 0)
(1.05646 0.00945845 0)
(1.05665 0.00923025 0)
(1.05675 0.00901902 0)
(1.05675 0.00882233 0)
(1.05666 0.00863812 0)
(1.05646 0.0084646 0)
(1.05616 0.00830025 0)
(1.05577 0.00814377 0)
(1.05528 0.00799407 0)
(1.05469 0.00785026 0)
(1.05401 0.0077116 0)
(1.05325 0.0075775 0)
(1.0524 0.00744754 0)
(1.05147 0.00732133 0)
(1.05047 0.0071987 0)
(1.0494 0.00707955 0)
(1.04827 0.00696382 0)
(1.04707 0.00685201 0)
(1.04582 0.00674391 0)
(1.04451 0.00664139 0)
(1.04315 0.00654336 0)
(1.04174 0.00645476 0)
(1.04028 0.00637204 0)
(1.03878 0.00630625 0)
(1.03723 0.00624874 0)
(1.03562 0.00621984 0)
(1.03397 0.00620519 0)
(1.03225 0.00622935 0)
(1.03047 0.00628407 0)
(1.0286 0.00636025 0)
(1.02663 0.00650002 0)
(1.02447 0.0065358 0)
(1.02203 0.00666038 0)
(1.01894 0.00643685 0)
(1.0021 0.0200742 0)
(1.0243 0.0264692 0)
(1.03824 0.0201594 0)
(1.04201 0.0175173 0)
(1.04348 0.0163852 0)
(1.0453 0.01502 0)
(1.04699 0.0138366 0)
(1.04827 0.0130051 0)
(1.04929 0.0123627 0)
(1.05016 0.0118105 0)
(1.05095 0.0113296 0)
(1.05165 0.0109122 0)
(1.05229 0.010546 0)
(1.05286 0.0102201 0)
(1.05338 0.00992706 0)
(1.05384 0.00966179 0)
(1.05425 0.00942019 0)
(1.0546 0.00919893 0)
(1.05491 0.00899519 0)
(1.05515 0.00880656 0)
(1.05533 0.00863093 0)
(1.05545 0.00846647 0)
(1.05551 0.0083116 0)
(1.0555 0.00816494 0)
(1.05543 0.00802531 0)
(1.05529 0.00789174 0)
(1.05509 0.00776342 0)
(1.05482 0.00763968 0)
(1.05449 0.00752003 0)
(1.05409 0.00740408 0)
(1.05364 0.00729157 0)
(1.05313 0.00718245 0)
(1.05256 0.00707661 0)
(1.05194 0.00697459 0)
(1.05127 0.00687621 0)
(1.05055 0.00678334 0)
(1.04977 0.00669511 0)
(1.04895 0.00661622 0)
(1.04807 0.0065439 0)
(1.04714 0.00648804 0)
(1.04616 0.00644244 0)
(1.04513 0.0064239 0)
(1.04403 0.00642389 0)
(1.04287 0.00645971 0)
(1.04164 0.00653269 0)
(1.04031 0.00662644 0)
(1.03888 0.00678871 0)
(1.03723 0.00687474 0)
(1.03531 0.00705291 0)
(1.03272 0.00702719 0)
(1.00185 0.0183679 0)
(1.0221 0.0253514 0)
(1.03561 0.0196779 0)
(1.03957 0.0171104 0)
(1.04107 0.0161115 0)
(1.04285 0.0148612 0)
(1.04455 0.0137106 0)
(1.04583 0.0128907 0)
(1.04683 0.0122636 0)
(1.0477 0.0117247 0)
(1.04847 0.0112529 0)
(1.04916 0.010842 0)
(1.04979 0.0104812 0)
(1.05036 0.0101601 0)
(1.05088 0.00987138 0)
(1.05137 0.00961018 0)
(1.05181 0.00937262 0)
(1.05222 0.00915553 0)
(1.05259 0.0089562 0)
(1.05292 0.00877229 0)
(1.05321 0.00860172 0)
(1.05347 0.00844269 0)
(1.05369 0.00829359 0)
(1.05386 0.00815303 0)
(1.05399 0.0080198 0)
(1.05408 0.00789287 0)
(1.05412 0.00777141 0)
(1.05412 0.00765471 0)
(1.05408 0.00754224 0)
(1.05399 0.0074336 0)
(1.05386 0.00732849 0)
(1.05369 0.00722687 0)
(1.05347 0.00712862 0)
(1.05322 0.00703431 0)
(1.05292 0.00694379 0)
(1.05257 0.00685893 0)
(1.05219 0.00677908 0)
(1.05176 0.00670864 0)
(1.05128 0.00664568 0)
(1.05076 0.00659888 0)
(1.05018 0.00656437 0)
(1.04956 0.00655579 0)
(1.04887 0.00656952 0)
(1.04812 0.00661725 0)
(1.0473 0.00670718 0)
(1.04638 0.0068199 0)
(1.04536 0.00700447 0)
(1.04412 0.0071428 0)
(1.0426 0.00738204 0)
(1.04044 0.00754407 0)
(1.00162 0.0167692 0)
(1.02004 0.0242292 0)
(1.03308 0.019207 0)
(1.03722 0.0167074 0)
(1.03875 0.015825 0)
(1.0405 0.0146938 0)
(1.04219 0.0135819 0)
(1.04348 0.0127741 0)
(1.04447 0.0121624 0)
(1.04532 0.0116375 0)
(1.04608 0.0111752 0)
(1.04676 0.010771 0)
(1.04737 0.0104157 0)
(1.04793 0.0100991 0)
(1.04845 0.00981431 0)
(1.04893 0.00955654 0)
(1.04937 0.00932213 0)
(1.04979 0.00910809 0)
(1.05017 0.0089118 0)
(1.05053 0.008731 0)
(1.05085 0.0085637 0)
(1.05115 0.00840811 0)
(1.05143 0.00826265 0)
(1.05167 0.00812592 0)
(1.05188 0.00799673 0)
(1.05207 0.00787403 0)
(1.05223 0.00775698 0)
(1.05235 0.00764486 0)
(1.05245 0.00753713 0)
(1.05251 0.00743338 0)
(1.05255 0.00733332 0)
(1.05256 0.00723694 0)
(1.05253 0.0071441 0)
(1.05247 0.00705542 0)
(1.05239 0.00697081 0)
(1.05227 0.0068921 0)
(1.05211 0.0068189 0)
(1.05192 0.00675529 0)
(1.05169 0.00670017 0)
(1.05142 0.00666111 0)
(1.0511 0.00663627 0)
(1.05074 0.00663666 0)
(1.05033 0.0066626 0)
(1.04985 0.00672181 0)
(1.04931 0.00682699 0)
(1.04867 0.00695906 0)
(1.04794 0.00716554 0)
(1.04699 0.00735651 0)
(1.04577 0.00766171 0)
(1.04394 0.00799941 0)
(1.00142 0.0152773 0)
(1.01811 0.0231068 0)
(1.03065 0.0187424 0)
(1.03496 0.0163098 0)
(1.03652 0.0155269 0)
(1.03823 0.0145172 0)
(1.03992 0.0134502 0)
(1.04121 0.0126555 0)
(1.0422 0.0120589 0)
(1.04304 0.0115486 0)
(1.04378 0.0110964 0)
(1.04445 0.0106993 0)
(1.04506 0.0103495 0)
(1.0456 0.0100376 0)
(1.04611 0.00975676 0)
(1.04657 0.00950231 0)
(1.04701 0.00927086 0)
(1.04741 0.00905952 0)
(1.04779 0.00886581 0)
(1.04815 0.00868754 0)
(1.04848 0.00852276 0)
(1.04879 0.00836974 0)
(1.04907 0.00822691 0)
(1.04933 0.0080929 0)
(1.04957 0.00796651 0)
(1.04979 0.00784672 0)
(1.04999 0.00773266 0)
(1.05016 0.00762363 0)
(1.05032 0.00751909 0)
(1.05045 0.00741867 0)
(1.05056 0.00732206 0)
(1.05064 0.0072293 0)
(1.05071 0.00714026 0)
(1.05075 0.00705562 0)
(1.05077 0.00697535 0)
(1.05076 0.00690124 0)
(1.05072 0.0068332 0)
(1.05066 0.00677498 0)
(1.05057 0.00672626 0)
(1.05044 0.00669363 0)
(1.05027 0.00667701 0)
(1.05006 0.00668532 0)
(1.04981 0.00672184 0)
(1.0495 0.00679185 0)
(1.04913 0.00691059 0)
(1.04867 0.00706186 0)
(1.04812 0.00728996 0)
(1.04737 0.00753267 0)
(1.04634 0.00790641 0)
(1.04476 0.00840626 0)
(1.00124 0.0138907 0)
(1.01632 0.021988 0)
(1.02834 0.0182806 0)
(1.03278 0.0159187 0)
(1.03439 0.015219 0)
(1.03606 0.014331 0)
(1.03773 0.0133151 0)
(1.03903 0.0125348 0)
(1.04002 0.011953 0)
(1.04085 0.0114578 0)
(1.04158 0.0110164 0)
(1.04224 0.0106267 0)
(1.04283 0.0102827 0)
(1.04337 0.00997569 0)
(1.04386 0.00969884 0)
(1.04431 0.00944781 0)
(1.04474 0.00921933 0)
(1.04513 0.00901067 0)
(1.0455 0.00881945 0)
(1.04585 0.00864356 0)
(1.04617 0.00848109 0)
(1.04647 0.00833035 0)
(1.04675 0.00818979 0)
(1.04702 0.00805805 0)
(1.04726 0.00793395 0)
(1.04748 0.00781645 0)
(1.04769 0.00770471 0)
(1.04787 0.00759804 0)
(1.04804 0.0074959 0)
(1.04819 0.00739794 0)
(1.04833 0.00730388 0)
(1.04844 0.00721379 0)
(1.04854 0.00712759 0)
(1.04862 0.00704597 0)
(1.04869 0.00696902 0)
(1.04873 0.00689848 0)
(1.04875 0.00683455 0)
(1.04875 0.00678069 0)
(1.04872 0.00673728 0)
(1.04866 0.00671008 0)
(1.04857 0.00670049 0)
(1.04844 0.00671586 0)
(1.04827 0.00676159 0)
(1.04805 0.00684178 0)
(1.04778 0.00697272 0)
(1.04743 0.0071428 0)
(1.04698 0.00739241 0)
(1.04634 0.00768523 0)
(1.04545 0.00812799 0)
(1.04406 0.00877567 0)
(1.00107 0.0126073 0)
(1.01466 0.0208771 0)
(1.02613 0.0178182 0)
(1.03069 0.0155351 0)
(1.03236 0.0149031 0)
(1.03399 0.0141345 0)
(1.03564 0.0131761 0)
(1.03694 0.012412 0)
(1.03792 0.0118448 0)
(1.03874 0.0113651 0)
(1.03947 0.0109351 0)
(1.04012 0.0105532 0)
(1.0407 0.0102152 0)
(1.04122 0.00991319 0)
(1.0417 0.00964053 0)
(1.04215 0.00939303 0)
(1.04256 0.00916761 0)
(1.04295 0.00896171 0)
(1.04331 0.00877303 0)
(1.04364 0.00859953 0)
(1.04396 0.00843936 0)
(1.04425 0.00829085 0)
(1.04452 0.00815248 0)
(1.04477 0.0080229 0)
(1.04501 0.00790091 0)
(1.04523 0.00778551 0)
(1.04543 0.00767584 0)
(1.04561 0.00757122 0)
(1.04578 0.00747114 0)
(1.04594 0.00737526 0)
(1.04607 0.00728333 0)
(1.0462 0.00719545 0)
(1.04631 0.00711159 0)
(1.0464 0.00703246 0)
(1.04648 0.00695828 0)
(1.04653 0.00689072 0)
(1.04657 0.00683028 0)
(1.04659 0.00678015 0)
(1.04659 0.00674135 0)
(1.04656 0.00671898 0)
(1.04651 0.00671556 0)
(1.04642 0.00673744 0)
(1.04629 0.00679136 0)
(1.04612 0.00688124 0)
(1.0459 0.00702347 0)
(1.0456 0.00721187 0)
(1.04521 0.00748309 0)
(1.04465 0.00782388 0)
(1.04385 0.0083343 0)
(1.0426 0.00911481 0)
(1.00093 0.0114246 0)
(1.01313 0.019778 0)
(1.02403 0.0173519 0)
(1.02869 0.0151596 0)
(1.03041 0.0145811 0)
(1.032 0.0139277 0)
(1.03363 0.0130326 0)
(1.03494 0.0122872 0)
(1.03592 0.0117342 0)
(1.03673 0.0112703 0)
(1.03745 0.0108523 0)
(1.03809 0.0104786 0)
(1.03866 0.0101469 0)
(1.03917 0.00985006 0)
(1.03964 0.00958175 0)
(1.04008 0.00933792 0)
(1.04048 0.00911568 0)
(1.04086 0.00891262 0)
(1.04121 0.00872656 0)
(1.04153 0.00855552 0)
(1.04184 0.00839771 0)
(1.04212 0.00825148 0)
(1.04238 0.00811532 0)
(1.04263 0.0079879 0)
(1.04286 0.00786802 0)
(1.04306 0.00775468 0)
(1.04326 0.00764702 0)
(1.04344 0.00754438 0)
(1.0436 0.00744625 0)
(1.04375 0.00735232 0)
(1.04388 0.00726236 0)
(1.044 0.0071765 0)
(1.04411 0.00709478 0)
(1.0442 0.00701791 0)
(1.04428 0.00694623 0)
(1.04434 0.00688138 0)
(1.04439 0.00682411 0)
(1.04441 0.0067774 0)
(1.04442 0.0067428 0)
(1.0444 0.00672493 0)
(1.04436 0.00672714 0)
(1.04428 0.00675519 0)
(1.04417 0.00681661 0)
(1.04402 0.00691587 0)
(1.04383 0.00706881 0)
(1.04356 0.00727501 0)
(1.0432 0.00756792 0)
(1.04269 0.00795414 0)
(1.04196 0.00852922 0)
(1.04085 0.00942671 0)
(1.0008 0.0103394 0)
(1.01173 0.0186949 0)
(1.02205 0.0168791 0)
(1.02678 0.0147924 0)
(1.02856 0.0142551 0)
(1.03011 0.0137103 0)
(1.03172 0.012884 0)
(1.03302 0.0121603 0)
(1.03401 0.0116213 0)
(1.03481 0.0111732 0)
(1.03552 0.010768 0)
(1.03615 0.010403 0)
(1.03671 0.0100778 0)
(1.03722 0.00978625 0)
(1.03768 0.00952244 0)
(1.0381 0.00928242 0)
(1.0385 0.00906348 0)
(1.03886 0.00886336 0)
(1.0392 0.00868001 0)
(1.03952 0.00851152 0)
(1.03981 0.00835614 0)
(1.04009 0.00821225 0)
(1.04034 0.00807837 0)
(1.04058 0.00795315 0)
(1.0408 0.00783542 0)
(1.041 0.00772417 0)
(1.04119 0.00761854 0)
(1.04136 0.00751788 0)
(1.04151 0.0074217 0)
(1.04165 0.0073297 0)
(1.04178 0.00724168 0)
(1.0419 0.0071578 0)
(1.042 0.00707815 0)
(1.04209 0.00700346 0)
(1.04216 0.00693418 0)
(1.04222 0.00687193 0)
(1.04226 0.00681768 0)
(1.04229 0.00677425 0)
(1.04229 0.00674362 0)
(1.04228 0.00673008 0)
(1.04224 0.00673758 0)
(1.04217 0.00677162 0)
(1.04207 0.00684009 0)
(1.04193 0.00694844 0)
(1.04175 0.00711174 0)
(1.0415 0.00733516 0)
(1.04117 0.00764963 0)
(1.0407 0.00807834 0)
(1.04003 0.00871349 0)
(1.03904 0.00971148 0)
(1.00069 0.00934767 0)
(1.01045 0.0176319 0)
(1.02018 0.0163976 0)
(1.02495 0.0144335 0)
(1.0268 0.013927 0)
(1.02832 0.0134826 0)
(1.02989 0.0127298 0)
(1.0312 0.0120312 0)
(1.03218 0.0115061 0)
(1.03298 0.0110739 0)
(1.03368 0.0106819 0)
(1.0343 0.0103261 0)
(1.03485 0.0100076 0)
(1.03535 0.00972165 0)
(1.03581 0.00946252 0)
(1.03622 0.00922645 0)
(1.03661 0.00901093 0)
(1.03696 0.00881386 0)
(1.0373 0.00863332 0)
(1.0376 0.00846746 0)
(1.03789 0.00831459 0)
(1.03816 0.00817312 0)
(1.0384 0.00804159 0)
(1.03863 0.00791865 0)
(1.03884 0.00780312 0)
(1.03903 0.00769401 0)
(1.03921 0.00759045 0)
(1.03937 0.00749182 0)
(1.03952 0.00739761 0)
(1.03966 0.00730756 0)
(1.03978 0.0072215 0)
(1.03989 0.00713959 0)
(1.03998 0.00706201 0)
(1.04006 0.00698948 0)
(1.04013 0.00692259 0)
(1.04019 0.00686288 0)
(1.04023 0.00681159 0)
(1.04025 0.00677138 0)
(1.04025 0.00674459 0)
(1.04024 0.00673529 0)
(1.0402 0.00674784 0)
(1.04013 0.00678771 0)
(1.04004 0.00686291 0)
(1.03991 0.00698008 0)
(1.03973 0.00715347 0)
(1.0395 0.00739336 0)
(1.03919 0.00772894 0)
(1.03876 0.00819667 0)
(1.03816 0.00888592 0)
(1.03729 0.00996725 0)
(1.0006 0.00844527 0)
(1.00929 0.016593 0)
(1.01842 0.0159055 0)
(1.0232 0.0140826 0)
(1.02513 0.0135988 0)
(1.02661 0.0132451 0)
(1.02815 0.0125693 0)
(1.02946 0.0118997 0)
(1.03044 0.0113887 0)
(1.03124 0.0109721 0)
(1.03193 0.010594 0)
(1.03254 0.0102479 0)
(1.03309 0.00993645 0)
(1.03358 0.00965619 0)
(1.03402 0.0094019 0)
(1.03443 0.00916994 0)
(1.03481 0.00895797 0)
(1.03516 0.00876407 0)
(1.03548 0.00858643 0)
(1.03578 0.0084233 0)
(1.03606 0.00827303 0)
(1.03632 0.00813406 0)
(1.03656 0.00800494 0)
(1.03678 0.00788435 0)
(1.03698 0.00777109 0)
(1.03717 0.00766417 0)
(1.03734 0.00756275 0)
(1.03749 0.00746618 0)
(1.03763 0.00737398 0)
(1.03776 0.00728591 0)
(1.03788 0.00720183 0)
(1.03798 0.00712193 0)
(1.03807 0.00704643 0)
(1.03814 0.00697607 0)
(1.03821 0.00691155 0)
(1.03826 0.0068544 0)
(1.03829 0.00680601 0)
(1.03831 0.00676899 0)
(1.03831 0.00674593 0)
(1.0383 0.0067408 0)
(1.03826 0.00675821 0)
(1.03819 0.00680376 0)
(1.0381 0.00688542 0)
(1.03798 0.00701106 0)
(1.03781 0.00719425 0)
(1.0376 0.00744965 0)
(1.03731 0.00780541 0)
(1.03692 0.00830815 0)
(1.03638 0.00904431 0)
(1.03565 0.0101913 0)
(1.00051 0.00762738 0)
(1.00824 0.0155821 0)
(1.01677 0.0154015 0)
(1.02154 0.013739 0)
(1.02354 0.0132722 0)
(1.02499 0.0129986 0)
(1.0265 0.012402 0)
(1.0278 0.0117655 0)
(1.02879 0.0112691 0)
(1.02958 0.0108678 0)
(1.03026 0.010504 0)
(1.03087 0.0101683 0)
(1.03141 0.00986414 0)
(1.03189 0.00958979 0)
(1.03233 0.00934051 0)
(1.03273 0.00911281 0)
(1.0331 0.00890452 0)