/*--------------------------------*- C++ -*----------------------------------*\
  =========                 |
  \\      /  F ield         | OpenFOAM: The Open Source CFD Toolbox
   \\    /   O peration     | Website:  https://openfoam.org
    \\  /    A nd           | Version:  7
     \\/     M anipulation  |
\*---------------------------------------------------------------------------*/
FoamFile
{
    version     2.0;
    format      ascii;
    class       volVectorField;
    location    "0.5";
    object      wallShearStress;
}
// * * * * * * * * * * * * * * * * * * * * * * * * * * * * * * * * * * * * * //

dimensions      [0 2 -2 0 0 0 0];

internalField   uniform (0 0 0);

boundaryField
{
    velocityInlet
    {
        type            calculated;
        value           uniform (0 0 0);
    }
    pressureOutlet
    {
        type            calculated;
        value           uniform (0 0 0);
    }
    fixedWalls
    {
        type            calculated;
        value           nonuniform List<vector> 
100
(
(-0.015016 -0.00758344 0)
(0.0105166 -0.000897265 0)
(-0.00164769 0.000664872 0)
(0.001125 9.26486e-05 0)
(-0.0020255 0.000197836 0)
(-0.001535 0.000143081 0)
(-0.00179276 -0.000117309 0)
(0.000426884 -0.000320471 0)
(0.00270303 -0.000456196 0)
(0.0051352 -0.000398787 0)
(0.00621179 -0.000180135 0)
(0.00584377 8.72228e-05 0)
(0.00421221 0.000263192 0)
(0.00210872 0.000319435 0)
(0.000168862 0.000277159 0)
(-0.00108555 0.000188792 0)
(-0.00172082 0.000128946 0)
(-0.00210255 9.13172e-05 0)
(-0.00220082 3.14995e-05 0)
(-0.00179764 -5.22371e-05 0)
(-0.000890704 -0.000125734 0)
(0.000407887 -0.000179336 0)
(0.00194798 -0.000226969 0)
(0.0035312 -0.000243493 0)
(0.00497509 -0.000229578 0)
(0.00611323 -0.000188263 0)
(0.00681753 -0.000126975 0)
(0.00701293 -5.47681e-05 0)
(0.00668914 2.03917e-05 0)
(0.00589506 8.691e-05 0)
(0.0047312 0.00013702 0)
(0.00334933 0.000163631 0)
(0.00190964 0.000169039 0)
(0.000544429 0.000158591 0)
(-0.000645296 0.000136176 0)
(-0.00160565 0.000108454 0)
(-0.00232497 8.07755e-05 0)
(-0.00282396 5.63148e-05 0)
(-0.00314016 3.64806e-05 0)
(-0.00331572 2.1779e-05 0)
(-0.00338855 1.1753e-05 0)
(-0.00338665 4.00484e-06 0)
(-0.0033263 -2.42422e-06 0)
(-0.0032142 -8.53006e-06 0)
(-0.00305281 -1.47526e-05 0)
(-0.00284813 -2.04923e-05 0)
(-0.00261579 -2.44371e-05 0)
(-0.00238183 -2.5274e-05 0)
(-0.00217739 -2.24298e-05 0)
(-0.00203046 -1.63972e-05 0)
(-0.00195967 -9.23141e-06 0)
(-0.00197247 -9.49046e-07 0)
(-0.00206583 6.98104e-06 0)
(-0.00222601 1.29782e-05 0)
(-0.00242911 1.5317e-05 0)
(-0.00265043 1.40939e-05 0)
(-0.00289926 1.54637e-05 0)
(-0.00325132 2.96467e-05 0)
(-0.00379903 5.5056e-05 0)
(-0.0045376 7.70541e-05 0)
(-0.00535657 8.66508e-05 0)
(-0.00613783 8.76949e-05 0)
(-0.00677854 8.07771e-05 0)
(-0.00713304 6.35649e-05 0)
(-0.00699144 1.66463e-05 0)
(-0.00613647 -6.1214e-05 0)
(-0.00445724 -0.000159266 0)
(-0.00200596 -0.000259517 0)
(0.000715572 -0.000278101 0)
(0.00297085 -0.000234185 0)
(0.00426436 -0.000128272 0)
(0.00443074 -1.23466e-05 0)
(0.00369167 7.56018e-05 0)
(0.00245336 0.000119305 0)
(0.00111076 0.000125287 0)
(-5.03821e-05 0.000107898 0)
(-0.00085444 7.49993e-05 0)
(-0.00119773 3.47769e-05 0)
(-0.00105758 -9.95796e-06 0)
(-0.000485432 -5.4236e-05 0)
(0.000378959 -7.5636e-05 0)
(0.00131643 -8.83004e-05 0)
(0.00209902 -7.78562e-05 0)
(0.00251072 -4.45273e-05 0)
(0.00236321 7.73212e-06 0)
(0.00162556 6.04558e-05 0)
(0.000481184 8.98201e-05 0)
(-0.00076967 9.45723e-05 0)
(-0.00187905 8.06765e-05 0)
(-0.00270545 5.84042e-05 0)
(-0.00324541 3.73754e-05 0)
(-0.00352375 1.9429e-05 0)
(-0.00361946 7.61344e-06 0)
(-0.00354503 -4.91216e-06 0)
(-0.00338204 -1.1949e-05 0)
(-0.0031406 -1.8412e-05 0)
(-0.0028971 -1.72063e-05 0)
(-0.00273944 -1.43855e-05 0)
(-0.00255196 -9.43058e-06 0)
(-0.00262991 4.22348e-07 0)
)
;
    }
    bottomWall
    {
        type            calculated;
        value           nonuniform List<vector> 
800
(
(-0.0353513 0.00216562 0)
(-0.0160367 0.000524951 0)
(-0.0105912 0.00010054 0)
(-0.00845679 3.45755e-05 0)
(-0.00749318 1.96696e-05 0)
(-0.00685795 1.59987e-05 0)
(-0.00634958 1.31991e-05 0)
(-0.00593877 1.07501e-05 0)
(-0.00560457 8.94977e-06 0)
(-0.00532625 7.65018e-06 0)
(-0.00508924 6.66536e-06 0)
(-0.00488412 5.88718e-06 0)
(-0.00470442 5.25681e-06 0)
(-0.0045454 4.73742e-06 0)
(-0.00440348 4.30341e-06 0)
(-0.00427588 3.93624e-06 0)
(-0.00416042 3.6222e-06 0)
(-0.00405535 3.35098e-06 0)
(-0.00395925 3.11471e-06 0)
(-0.00387096 2.90731e-06 0)
(-0.00378954 2.72402e-06 0)
(-0.00371417 2.56105e-06 0)
(-0.00364418 2.41534e-06 0)
(-0.00357899 2.28442e-06 0)
(-0.00351811 2.16627e-06 0)
(-0.0034611 2.05919e-06 0)
(-0.0034076 1.96178e-06 0)
(-0.00335729 1.87285e-06 0)
(-0.00330987 1.7914e-06 0)
(-0.00326511 1.71657e-06 0)
(-0.00322278 1.64761e-06 0)
(-0.00318268 1.58391e-06 0)
(-0.00314464 1.52489e-06 0)
(-0.0031085 1.4701e-06 0)
(-0.00307412 1.4191e-06 0)
(-0.00304138 1.37154e-06 0)
(-0.00301015 1.32708e-06 0)
(-0.00298035 1.28547e-06 0)
(-0.00295187 1.24644e-06 0)
(-0.00292462 1.20977e-06 0)
(-0.00289853 1.17527e-06 0)
(-0.00287353 1.14277e-06 0)
(-0.00284955 1.11213e-06 0)
(-0.00282653 1.08312e-06 0)
(-0.00280441 1.05581e-06 0)
(-0.00278315 1.02969e-06 0)
(-0.00276268 1.00541e-06 0)
(-0.00274299 9.8153e-07 0)
(-0.002724 9.60078e-07 0)
(-0.00270572 9.37173e-07 0)
(-0.00269044 9.18415e-07 0)
(-0.00267782 9.07824e-07 0)
(-0.00266536 8.94209e-07 0)
(-0.0026531 8.79671e-07 0)
(-0.00264103 8.66061e-07 0)
(-0.00262914 8.53128e-07 0)
(-0.00261743 8.4051e-07 0)
(-0.00260589 8.28166e-07 0)
(-0.00259452 8.16124e-07 0)
(-0.00258332 8.04378e-07 0)
(-0.00257227 7.92913e-07 0)
(-0.00256138 7.81716e-07 0)
(-0.00255065 7.70778e-07 0)
(-0.00254006 7.60092e-07 0)
(-0.00252962 7.4965e-07 0)
(-0.00251932 7.39444e-07 0)
(-0.00250916 7.29466e-07 0)
(-0.00249914 7.19711e-07 0)
(-0.00248925 7.10172e-07 0)
(-0.00247949 7.00843e-07 0)
(-0.00246986 6.91717e-07 0)
(-0.00246036 6.82789e-07 0)
(-0.00245097 6.74055e-07 0)
(-0.00244171 6.65508e-07 0)
(-0.00243256 6.57144e-07 0)
(-0.00242353 6.48957e-07 0)
(-0.00241461 6.40942e-07 0)
(-0.0024058 6.33096e-07 0)
(-0.0023971 6.25414e-07 0)
(-0.0023885 6.1789e-07 0)
(-0.00238001 6.10522e-07 0)
(-0.00237161 6.03306e-07 0)
(-0.00236332 5.96236e-07 0)
(-0.00235512 5.89308e-07 0)
(-0.00234702 5.8252e-07 0)
(-0.00233901 5.75867e-07 0)
(-0.0023311 5.69344e-07 0)
(-0.00232327 5.62948e-07 0)
(-0.00231553 5.56677e-07 0)
(-0.00230788 5.50526e-07 0)
(-0.00230032 5.44491e-07 0)
(-0.00229283 5.3857e-07 0)
(-0.00228543 5.3276e-07 0)
(-0.00227811 5.27058e-07 0)
(-0.00227086 5.2146e-07 0)
(-0.0022637 5.15965e-07 0)
(-0.00225661 5.1057e-07 0)
(-0.00224959 5.05273e-07 0)
(-0.00224265 5.00071e-07 0)
(-0.00223578 4.94962e-07 0)
(-0.00222898 4.89945e-07 0)
(-0.00222225 4.85017e-07 0)
(-0.00221558 4.80176e-07 0)
(-0.00220899 4.75421e-07 0)
(-0.00220246 4.70751e-07 0)
(-0.00219599 4.66163e-07 0)
(-0.00218959 4.61655e-07 0)
(-0.00218325 4.57228e-07 0)
(-0.00217697 4.52878e-07 0)
(-0.00217075 4.48605e-07 0)
(-0.00216459 4.44406e-07 0)
(-0.00215849 4.40282e-07 0)
(-0.00215244 4.36229e-07 0)
(-0.00214645 4.32248e-07 0)
(-0.00214052 4.28335e-07 0)
(-0.00213464 4.24491e-07 0)
(-0.00212881 4.20712e-07 0)
(-0.00212304 4.16998e-07 0)
(-0.00211731 4.13347e-07 0)
(-0.00211164 4.09758e-07 0)
(-0.00210602 4.0623e-07 0)
(-0.00210045 4.0276e-07 0)
(-0.00209492 3.99348e-07 0)
(-0.00208944 3.95992e-07 0)
(-0.00208401 3.92692e-07 0)
(-0.00207863 3.89446e-07 0)
(-0.00207329 3.86252e-07 0)
(-0.00206799 3.8311e-07 0)
(-0.00206274 3.80018e-07 0)
(-0.00205753 3.76976e-07 0)
(-0.00205236 3.73982e-07 0)
(-0.00204724 3.71035e-07 0)
(-0.00204215 3.68134e-07 0)
(-0.00203711 3.65279e-07 0)
(-0.0020321 3.62469e-07 0)
(-0.00202714 3.59701e-07 0)
(-0.00202221 3.56977e-07 0)
(-0.00201732 3.54291e-07 0)
(-0.00201247 3.5165e-07 0)
(-0.00200766 3.49042e-07 0)
(-0.00200288 3.46483e-07 0)
(-0.00199814 3.43945e-07 0)
(-0.00199343 3.41468e-07 0)
(-0.00198876 3.38989e-07 0)
(-0.00198412 3.366e-07 0)
(-0.00197952 3.34161e-07 0)
(-0.00197495 3.31872e-07 0)
(-0.00197041 3.29441e-07 0)
(-0.0019659 3.27241e-07 0)
(-0.00196143 3.24739e-07 0)
(-0.00195767 3.22515e-07 0)
(-0.0019546 3.21392e-07 0)
(-0.00195152 3.20004e-07 0)
(-0.00194843 3.18394e-07 0)
(-0.00194534 3.16795e-07 0)
(-0.00194224 3.15254e-07 0)
(-0.00193913 3.13733e-07 0)
(-0.00193602 3.12218e-07 0)
(-0.0019329 3.10706e-07 0)
(-0.00192977 3.09199e-07 0)
(-0.00192664 3.07698e-07 0)
(-0.0019235 3.06203e-07 0)
(-0.00192036 3.04709e-07 0)
(-0.00191721 3.03223e-07 0)
(-0.00191405 3.0174e-07 0)
(-0.00191089 3.00263e-07 0)
(-0.00190772 2.9879e-07 0)
(-0.00190454 2.9732e-07 0)
(-0.00190136 2.95856e-07 0)
(-0.00189817 2.94395e-07 0)
(-0.00189498 2.92938e-07 0)
(-0.00189178 2.91488e-07 0)
(-0.00188857 2.90039e-07 0)
(-0.00188536 2.88597e-07 0)
(-0.00188214 2.87156e-07 0)
(-0.00187892 2.85719e-07 0)
(-0.00187569 2.84287e-07 0)
(-0.00187245 2.82859e-07 0)
(-0.00186921 2.81433e-07 0)
(-0.00186596 2.80014e-07 0)
(-0.0018627 2.78593e-07 0)
(-0.00185944 2.77181e-07 0)
(-0.00185617 2.75769e-07 0)
(-0.0018529 2.7436e-07 0)
(-0.00184962 2.72955e-07 0)
(-0.00184634 2.71553e-07 0)
(-0.00184305 2.70153e-07 0)
(-0.00183975 2.68761e-07 0)
(-0.00183645 2.67365e-07 0)
(-0.00183314 2.65979e-07 0)
(-0.00182983 2.64591e-07 0)
(-0.00182651 2.6321e-07 0)
(-0.00182319 2.61832e-07 0)
(-0.00181986 2.60458e-07 0)
(-0.00181652 2.59089e-07 0)
(-0.00181318 2.57723e-07 0)
(-0.00180984 2.56361e-07 0)
(-0.00180648 2.55007e-07 0)
(-0.00180313 2.53652e-07 0)
(-0.00179976 2.52306e-07 0)
(-0.0017964 2.50961e-07 0)
(-0.00179302 2.49621e-07 0)
(-0.00178964 2.48285e-07 0)
(-0.00178626 2.46952e-07 0)
(-0.00178287 2.45622e-07 0)
(-0.00177948 2.44298e-07 0)
(-0.00177608 2.42972e-07 0)
(-0.00177267 2.41654e-07 0)
(-0.00176926 2.40333e-07 0)
(-0.00176584 2.39017e-07 0)
(-0.00176242 2.37704e-07 0)
(-0.001759 2.36391e-07 0)
(-0.00175557 2.35084e-07 0)
(-0.00175213 2.33779e-07 0)
(-0.00174869 2.32472e-07 0)
(-0.00174525 2.31174e-07 0)
(-0.0017418 2.29872e-07 0)
(-0.00173834 2.28578e-07 0)
(-0.00173488 2.27287e-07 0)
(-0.00173142 2.26001e-07 0)
(-0.00172795 2.24719e-07 0)
(-0.00172448 2.23442e-07 0)
(-0.001721 2.22168e-07 0)
(-0.00171752 2.2091e-07 0)
(-0.00171403 2.19638e-07 0)
(-0.00171054 2.18411e-07 0)
(-0.00170704 2.17137e-07 0)
(-0.00170354 2.15962e-07 0)
(-0.00170003 2.14667e-07 0)
(-0.00169652 2.13599e-07 0)
(-0.001693 2.12204e-07 0)
(-0.00168947 2.11387e-07 0)
(-0.00168595 2.09687e-07 0)
(-0.0016824 2.09441e-07 0)
(-0.00167888 2.06967e-07 0)
(-0.0016753 2.08046e-07 0)
(-0.0016718 2.03674e-07 0)
(-0.00166815 2.07822e-07 0)
(-0.00166471 1.98948e-07 0)
(-0.00166094 2.10109e-07 0)
(-0.00165764 1.90945e-07 0)
(-0.00165361 2.17648e-07 0)
(-0.00165063 1.75922e-07 0)
(-0.00164611 2.35775e-07 0)
(-0.00164375 1.46886e-07 0)
(-0.00163833 2.73413e-07 0)
(-0.00163707 9.25248e-08 0)
(-0.00163026 3.40533e-07 0)
(-0.00163057 7.01153e-09 0)
(-0.00162194 3.74168e-07 0)
(-0.0353511 -0.00216565 0)
(-0.0160354 -0.000525006 0)
(-0.0105883 -0.000100601 0)
(-0.00845233 -3.46324e-05 0)
(-0.00748712 -1.9726e-05 0)
(-0.00685029 -1.6055e-05 0)
(-0.00634036 -1.32549e-05 0)
(-0.00592804 -1.08059e-05 0)
(-0.00559234 -9.00608e-06 0)
(-0.00531251 -7.70766e-06 0)
(-0.00507397 -6.7245e-06 0)
(-0.00486729 -5.94825e-06 0)
(-0.00468601 -5.31988e-06 0)
(-0.0045254 -4.8024e-06 0)
(-0.00438187 -4.37023e-06 0)
(-0.00425265 -4.00486e-06 0)
(-0.00413556 -3.69268e-06 0)
(-0.00402885 -3.42352e-06 0)
(-0.00393111 -3.18956e-06 0)
(-0.00384117 -2.98481e-06 0)
(-0.00375806 -2.80449e-06 0)
(-0.00368099 -2.64487e-06 0)
(-0.00360927 -2.50289e-06 0)
(-0.00354233 -2.37614e-06 0)
(-0.00347965 -2.2626e-06 0)
(-0.00342082 -2.16076e-06 0)
(-0.00336546 -2.06924e-06 0)
(-0.00331323 -1.98719e-06 0)
(-0.00326384 -1.91368e-06 0)
(-0.00321703 -1.84843e-06 0)
(-0.00317256 -1.79068e-06 0)
(-0.0031302 -1.74106e-06 0)
(-0.00308975 -1.69837e-06 0)
(-0.00305099 -1.66503e-06 0)
(-0.00301376 -1.63822e-06 0)
(-0.0029778 -1.62388e-06 0)
(-0.00294297 -1.61551e-06 0)
(-0.00290902 -1.62503e-06 0)
(-0.00287563 -1.63982e-06 0)
(-0.00284287 -1.6786e-06 0)
(-0.00280958 -1.72534e-06 0)
(-0.00277743 -1.79051e-06 0)
(-0.00274204 -1.88722e-06 0)
(-0.00271091 -1.93652e-06 0)
(-0.00266938 -2.12319e-06 0)
(-0.00264339 -1.96708e-06 0)
(-0.00258771 -2.37548e-06 0)
(-0.00258208 -1.06361e-06 0)
(-0.00250369 -5.97917e-06 0)
(-0.00239634 0.00016889 0)
(2.06421e-05 -7.2996e-06 0)
(2.76893e-05 -4.4958e-05 0)
(3.60156e-05 -8.97248e-05 0)
(4.60056e-05 -0.000148432 0)
(5.03227e-05 -0.000221342 0)
(4.12243e-05 -0.000287438 0)
(3.46741e-05 -0.000324911 0)
(3.45325e-05 -0.000328014 0)
(1.00327e-05 -0.000295081 0)
(-5.72606e-05 -0.000186466 0)
(-0.000167199 1.66484e-05 0)
(-0.000277409 0.000330367 0)
(-0.000320768 0.000693695 0)
(-0.000284288 0.00100622 0)
(-0.000209217 0.00122422 0)
(-0.000127338 0.00134445 0)
(-5.35506e-05 0.00137973 0)
(9.17442e-06 0.00134726 0)
(5.8805e-05 0.00126307 0)
(9.73806e-05 0.00113759 0)
(0.000125834 0.000982243 0)
(0.000146179 0.000805426 0)
(0.000159821 0.00061595 0)
(0.0001688 0.000421657 0)
(0.000173676 0.000221776 0)
(0.000171107 1.73998e-05 0)
(0.000167194 -0.000178433 0)
(0.000162814 -0.000366711 0)
(0.000158029 -0.000548386 0)
(0.000153117 -0.000723284 0)
(0.000148373 -0.000891591 0)
(0.000143893 -0.00105371 0)
(0.000139616 -0.00121007 0)
(0.000135382 -0.00136099 0)
(0.000130968 -0.00150667 0)
(0.000126125 -0.00164705 0)
(0.000120602 -0.00178189 0)
(0.000114185 -0.00191071 0)
(0.000106715 -0.00203291 0)
(9.8085e-05 -0.00214777 0)
(8.82597e-05 -0.00225453 0)
(7.72321e-05 -0.00235247 0)
(6.50458e-05 -0.00244082 0)
(5.17939e-05 -0.00251898 0)
(3.74835e-05 -0.00258634 0)
(2.2285e-05 -0.00264237 0)
(6.19997e-06 -0.00268682 0)
(-1.08488e-05 -0.00271899 0)
(-2.85815e-05 -0.00273889 0)
(-4.75947e-05 -0.00274635 0)
(-6.82669e-05 -0.00273973 0)
(-8.97452e-05 -0.00271925 0)
(-0.000111836 -0.00268486 0)
(-0.000134244 -0.00263633 0)
(-0.000156838 -0.00257374 0)
(-0.000179666 -0.00249726 0)
(-0.000202857 -0.00240694 0)
(-0.000226574 -0.00230277 0)
(-0.000250992 -0.00218466 0)
(-0.000276289 -0.00205251 0)
(-0.000302549 -0.00190611 0)
(-0.000329678 -0.00174522 0)
(-0.000357262 -0.00156948 0)
(-0.000384284 -0.0013783 0)
(-0.000408881 -0.00117082 0)
(-0.000426574 -0.000944753 0)
(-0.000425344 -0.000699632 0)
(-0.000385192 -0.000443057 0)
(-0.000290818 -0.000195419 0)
(-0.000148559 1.39312e-05 0)
(1.58628e-05 0.000169973 0)
(0.000173585 0.000268212 0)
(0.000301797 0.000307276 0)
(0.00038582 0.00030134 0)
(0.000416643 0.000264166 0)
(0.000397338 0.000215336 0)
(0.000336106 0.000163776 0)
(0.000237248 0.000118855 0)
(0.000114375 9.04672e-05 0)
(-6.86058e-06 8.85752e-05 0)
(-9.71076e-05 0.000111233 0)
(-0.00014674 0.000145058 0)
(-0.000142616 0.000153749 0)
(-0.000122345 0.000148971 0)
(-9.80351e-05 0.000133201 0)
(-7.29742e-05 0.000119289 0)
(-4.48707e-05 0.000111159 0)
(-1.47939e-05 0.00010566 0)
(1.25017e-05 9.92748e-05 0)
(3.24295e-05 9.08065e-05 0)
(4.21016e-05 8.14818e-05 0)
(4.18705e-05 7.4161e-05 0)
(3.52134e-05 7.07312e-05 0)
(2.65278e-05 7.02508e-05 0)
(1.8515e-05 7.02967e-05 0)
(1.26804e-05 6.92065e-05 0)
(9.11481e-06 6.6356e-05 0)
(7.83735e-06 6.19304e-05 0)
(9.27799e-06 5.60445e-05 0)
(1.37909e-05 4.81249e-05 0)
(2.11459e-05 3.7168e-05 0)
(3.05939e-05 2.22227e-05 0)
(4.10504e-05 2.67602e-06 0)
(5.15563e-05 -2.1404e-05 0)
(6.15539e-05 -4.9748e-05 0)
(7.04528e-05 -8.20321e-05 0)
(7.7789e-05 -0.000117692 0)
(8.29613e-05 -0.000155986 0)
(8.55141e-05 -0.00019575 0)
(8.53049e-05 -0.000235677 0)
(8.24496e-05 -0.000274496 0)
(7.72903e-05 -0.000311043 0)
(7.03717e-05 -0.000344343 0)
(6.23906e-05 -0.000373692 0)
(5.41175e-05 -0.000398712 0)
(4.63006e-05 -0.00041938 0)
(3.95607e-05 -0.000436004 0)
(3.43033e-05 -0.000449156 0)
(3.06846e-05 -0.000459557 0)
(2.86474e-05 -0.000467954 0)
(2.80218e-05 -0.000475004 0)
(2.87122e-05 -0.000481145 0)
(3.10098e-05 -0.000486616 0)
(3.56437e-05 -0.00049194 0)
(4.28512e-05 -0.000498458 0)
(5.08762e-05 -0.000506627 0)
(5.69779e-05 -0.000512762 0)
(6.19088e-05 -0.000510799 0)
(6.97571e-05 -0.000499651 0)
(7.88959e-05 -0.000484745 0)
(7.82856e-05 -0.000478804 0)
(5.09218e-05 -0.000483203 0)
(-1.67679e-05 -0.000476136 0)
(-0.000119246 -0.000435983 0)
(-0.000234219 -0.000353333 0)
(-0.000337718 -0.000234386 0)
(-0.000415491 -9.48203e-05 0)
(-0.000463752 5.06874e-05 0)
(-0.000484936 0.000191732 0)
(-0.00048478 0.000322003 0)
(-0.000469966 0.000439087 0)
(-0.0004461 0.000543067 0)
(-0.000417216 0.000635035 0)
(-0.000385986 0.000716228 0)
(-0.000354126 0.000787747 0)
(-0.000322735 0.000850545 0)
(-0.000292515 0.000905465 0)
(-0.000263904 0.000953287 0)
(-0.000237153 0.000994743 0)
(-0.000212373 0.00103052 0)
(-0.000189574 0.00106125 0)
(-0.000168712 0.00108751 0)
(-0.00014967 0.00110982 0)
(-0.000132278 0.00112868 0)
(-0.000116331 0.00114449 0)
(-0.000101598 0.00115759 0)
(-8.78341e-05 0.00116826 0)
(-7.47843e-05 0.00117669 0)
(-6.21867e-05 0.00118304 0)
(-4.97913e-05 0.00118737 0)
(-3.73852e-05 0.00118973 0)
(-2.48296e-05 0.00119011 0)
(-1.19068e-05 0.00118855 0)
(1.66972e-06 0.00118493 0)
(1.60422e-05 0.00117912 0)
(3.13292e-05 0.00117096 0)
(4.76242e-05 0.00116029 0)
(6.49971e-05 0.00114694 0)
(8.34918e-05 0.00113071 0)
(0.000103117 0.00111142 0)
(0.000123834 0.00108887 0)
(0.000145561 0.00106288 0)
(0.000168176 0.00103329 0)
(0.000191515 0.000999976 0)
(0.000215366 0.000962814 0)
(0.000239465 0.000921722 0)
(0.000263495 0.000876656 0)
(0.000287087 0.00082762 0)
(0.000309821 0.00077467 0)
(0.000331228 0.000717926 0)
(0.000350791 0.000657578 0)
(0.000367949 0.000593905 0)
(0.000382114 0.00052729 0)
(0.000392691 0.000458239 0)
(0.000399105 0.000387389 0)
(0.000400833 0.00031551 0)
(0.000397435 0.000243507 0)
(0.0003886 0.000172407 0)
(0.000374208 0.000103316 0)
(0.000354401 3.73404e-05 0)
(0.00032896 -2.46055e-05 0)
(0.000297993 -8.17158e-05 0)
(0.000262161 -0.000134202 0)
(0.000220708 -0.000184036 0)
(0.000171148 -0.00023578 0)
(0.000108416 -0.000298836 0)
(2.05185e-05 -0.000389891 0)
(-0.000116857 -0.000533904 0)
(-0.000334984 -0.000757029 0)
(-0.00063681 -0.00106372 0)
(1.62249e-06 -1.98581e-05 0)
(2.86149e-05 -2.07033e-05 0)
(4.56351e-05 -1.54328e-05 0)
(5.55905e-05 -9.71931e-06 0)
(6.12142e-05 -5.8641e-06 0)
(6.62333e-05 -4.46536e-06 0)
(7.3285e-05 -4.70796e-06 0)
(8.31247e-05 -5.39297e-06 0)
(9.45137e-05 -5.8618e-06 0)
(0.000105693 -5.74491e-06 0)
(0.00011486 -4.23539e-06 0)
(0.000119627 1.75868e-07 0)
(0.00011644 8.56458e-06 0)
(0.000102206 2.02557e-05 0)
(7.53156e-05 3.35256e-05 0)
(3.57088e-05 4.61281e-05 0)
(-1.4962e-05 5.52775e-05 0)
(-7.16578e-05 5.88553e-05 0)
(-0.000128927 5.64115e-05 0)
(-0.000181448 4.81953e-05 0)
(-0.000223128 3.56164e-05 0)
(-0.000251382 2.27548e-05 0)
(-0.000264903 1.02644e-05 0)
(-0.000261936 -1.89417e-06 0)
(-0.000251204 -1.60698e-05 0)
(-0.000232306 -4.32504e-05 0)
(-0.000195628 -7.06896e-05 0)
(-0.000156368 -7.14589e-05 0)
(-0.000137546 -5.01681e-05 0)
(-0.000120854 -5.83473e-06 0)
(-8.78912e-05 6.23036e-05 0)
(-8.79493e-05 0.000107791 0)
(-0.00011342 9.4579e-05 0)
(-0.000110385 6.2635e-06 0)
(-3.60193e-05 -9.19363e-05 0)
(8.31418e-05 -0.000112604 0)
(0.000175449 -6.26555e-05 0)
(0.000232618 -4.55757e-05 0)
(0.000296778 -6.51179e-05 0)
(0.000367294 -8.41395e-05 0)
(0.00043286 -9.31433e-05 0)
(0.000487302 -8.72158e-05 0)
(0.000523977 -6.9324e-05 0)
(0.000541936 -4.72019e-05 0)
(0.000542959 -2.52266e-05 0)
(0.000528719 -5.43829e-06 0)
(0.000501344 1.21244e-05 0)
(0.000462239 2.79539e-05 0)
(0.000412682 4.24683e-05 0)
(0.000353543 5.6092e-05 0)
(0.000285368 6.90197e-05 0)
(0.000208572 8.14163e-05 0)
(0.000123356 9.3414e-05 0)
(2.9442e-05 0.000105595 0)
(-7.52545e-05 0.000119073 0)
(-0.000191533 0.000132604 0)
(-0.000313811 0.000143656 0)
(-0.000441335 0.000153464 0)
(-0.000577121 0.000162079 0)
(-0.000720828 0.000169589 0)
(-0.000871208 0.000175494 0)
(-0.00102665 0.000179186 0)
(-0.00118507 0.000179664 0)
(-0.00134322 0.000175681 0)
(-0.00149769 0.000165857 0)
(-0.00164394 0.000148268 0)
(-0.00177613 0.000121849 0)
(-0.00188821 8.34965e-05 0)
(-0.00196994 3.30663e-05 0)
(-0.00201622 -3.3186e-05 0)
(-0.00200974 -0.000115936 0)
(-0.00193958 -0.000210422 0)
(-0.00179497 -0.000313351 0)
(-0.00156584 -0.000408847 0)
(-0.00125929 -0.000473528 0)
(-0.000898829 -0.000481372 0)
(-0.00053323 -0.000422113 0)
(-0.000217086 -0.000325472 0)
(3.49397e-05 -0.000235031 0)
(0.00025195 -0.000157444 0)
(0.000434222 -1.84258e-05 0)
(0.000500428 0.000190266 0)
(0.000400764 0.000304859 0)
(0.000247411 0.000280721 0)
(0.000104961 0.000185491 0)
(6.67796e-05 5.47832e-05 0)
(0.000144851 -0.000104839 0)
(0.000317284 -0.000229183 0)
(0.000533347 -0.000243596 0)
(0.000679454 -0.000164018 0)
(0.000727797 -6.60421e-05 0)
(0.000703653 1.99923e-05 0)
(0.000621321 8.4968e-05 0)
(0.000504391 0.000123082 0)
(0.000372197 0.000138345 0)
(0.000239265 0.000134871 0)
(0.000115527 0.000113192 0)
(1.63578e-05 7.35438e-05 0)
(-4.12943e-05 1.72456e-05 0)
(-1.80849e-05 -3.73008e-05 0)
(-4.96746e-05 -1.53865e-05 0)
(-3.42483e-05 -5.79353e-05 0)
(4.4297e-06 -4.32456e-05 0)
(4.16936e-05 2.31577e-05 0)
(5.48367e-05 9.95578e-05 0)
(4.7843e-05 0.00016025 0)
(3.59632e-05 0.000203605 0)
(2.33177e-05 0.000233785 0)
(1.02393e-05 0.000253097 0)
(1.81022e-06 0.000266565 0)
(1.08779e-05 0.00028843 0)
(5.5233e-05 0.000344283 0)
(0.0001284 0.000465021 0)
(0.000164683 0.000636272 0)
(9.87709e-05 0.000755707 0)
(-3.60861e-05 0.000728884 0)
(-0.000181979 0.000555952 0)
(-0.000295526 0.000236683 0)
(-0.000307748 -0.000161745 0)
(-0.000244478 -0.000504709 0)
(-0.000145254 -0.000756293 0)
(-2.83452e-05 -0.000896513 0)
(8.59737e-05 -0.00091833 0)
(0.000186692 -0.000823783 0)
(0.000247065 -0.00062591 0)
(0.000212446 -0.00037562 0)
(0.000103355 -0.000180085 0)
(1.42993e-05 -8.76525e-05 0)
(-1.77707e-05 -5.77066e-05 0)
(-1.77579e-05 -4.86326e-05 0)
(-8.93363e-06 -4.29954e-05 0)
(1.16865e-06 -3.62301e-05 0)
(1.40702e-05 -2.70107e-05 0)
(3.13898e-05 -1.22692e-05 0)
(3.81203e-05 1.20342e-05 0)
(1.72124e-05 2.81675e-05 0)
(-2.2872e-05 3.65136e-05 0)
(-7.97802e-05 3.1064e-05 0)
(-9.3104e-05 -1.35261e-05 0)
(-3.36228e-05 -7.50419e-05 0)
(6.83566e-05 -0.000122457 0)
(0.000111917 -0.00019933 0)
(0.000136489 -0.000292442 0)
(0.000154165 -0.000339963 0)
(-9.86362e-05 -0.000209712 0)
(-0.000428307 -0.000245413 0)
(-0.000619261 -0.000379314 0)
(-0.000628006 -0.000523363 0)
(-0.000558799 -0.000730467 0)
(-0.0002441 -0.000733489 0)
(0.00011895 -0.000488429 0)
(0.000381506 -0.00017183 0)
(0.000438333 0.000172666 0)
(0.000368407 0.000425159 0)
(0.000322994 0.000598421 0)
(0.00028966 0.000756033 0)
(0.000269775 0.000886601 0)
(0.000261286 0.00100614 0)
(0.000260765 0.001117 0)
(0.00027139 0.00122953 0)
(0.0002889 0.00135581 0)
(0.000307467 0.00150375 0)
(0.00031631 0.00167537 0)
(0.00030455 0.00186093 0)
(0.000264615 0.00204267 0)
(0.000195607 0.00219968 0)
(0.000105012 0.00231607 0)
(9.4591e-06 0.00238781 0)
(-6.98728e-05 0.00243573 0)
(-0.000124157 0.00251426 0)
(-0.000162887 0.00266247 0)
(-0.000127791 0.00281897 0)
(0.000219724 0.0030894 0)
(0.00115383 0.00373414 0)
(0.0017202 0.0039728 0)
(0.0015598 0.0051685 0)
(0.000484264 0.00571981 0)
(-0.000223936 0.00503144 0)
(-9.71543e-05 0.00464948 0)
(8.1652e-05 0.0047132 0)
(-9.56141e-05 0.00477891 0)
(-0.000248878 0.00458276 0)
(-0.000161159 0.00440949 0)
(-7.11259e-05 0.00439536 0)
(-0.000108812 0.00438437 0)
(-0.000138787 0.00429501 0)
(-9.53531e-05 0.00422136 0)
(-6.20765e-05 0.0042029 0)
(-7.16377e-05 0.00418083 0)
(-7.38225e-05 0.00413497 0)
(-5.47441e-05 0.00409973 0)
(-4.43014e-05 0.00408177 0)
(-4.65495e-05 0.00405955 0)
(-4.40229e-05 0.00403116 0)
(-3.69242e-05 0.00400821 0)
(-3.47971e-05 0.00398923 0)
(-3.57884e-05 0.00396732 0)
(-3.49283e-05 0.00394397 0)
(-3.4083e-05 0.0039222 0)
(-3.54485e-05 0.00390018 0)
(-3.74791e-05 0.00387629 0)
(-3.92431e-05 0.00385154 0)
(-4.1615e-05 0.00382631 0)
(-4.47342e-05 0.00379981 0)
(-4.79847e-05 0.0037719 0)
(-5.12968e-05 0.00374295 0)
(-5.48478e-05 0.00371293 0)
(-5.84896e-05 0.00368171 0)
(-6.2041e-05 0.00364942 0)
(-6.54983e-05 0.00361621 0)
(-6.88455e-05 0.00358213 0)
(-7.20001e-05 0.00354728 0)
(-7.49197e-05 0.00351178 0)
(-7.76034e-05 0.00347576 0)
(-8.00423e-05 0.00343932 0)
(-8.2228e-05 0.00340257 0)
(-8.41735e-05 0.00336562 0)
(-8.59051e-05 0.00332854 0)
(-8.74525e-05 0.00329142 0)
(-8.88526e-05 0.0032543 0)
(-9.01511e-05 0.00321723 0)
(-9.13986e-05 0.00318023 0)
(-9.26479e-05 0.0031433 0)
(-9.39532e-05 0.00310642 0)
(-9.53684e-05 0.00306957 0)
(-9.69455e-05 0.00303269 0)
(-9.87326e-05 0.00299572 0)
(-0.000100773 0.00295859 0)
(-0.000103105 0.00292121 0)
(-0.000105759 0.0028835 0)
(-0.00010876 0.00284535 0)
(-0.000112126 0.00280668 0)
(-0.00011587 0.00276739 0)
(-0.000119998 0.0027274 0)
(-0.00012451 0.0026866 0)
(-0.000129405 0.00264492 0)
(-0.000134677 0.00260229 0)
(-0.000140319 0.00255863 0)
(-0.000146321 0.00251388 0)
(-0.000152676 0.00246799 0)
(-0.000159377 0.00242091 0)
(-0.000166416 0.00237259 0)
(-0.000173792 0.00232299 0)
(-0.000181503 0.00227207 0)
(-0.000189551 0.00221981 0)
(-0.000197941 0.00216616 0)
(-0.000206681 0.00211111 0)
(-0.000215782 0.00205461 0)
(-0.000225259 0.00199664 0)
(-0.000235126 0.00193716 0)
(-0.000245404 0.00187616 0)
(-0.000256117 0.00181358 0)
(-0.00026729 0.0017494 0)
(-0.000278952 0.00168358 0)
(-0.000291133 0.00161609 0)
(-0.000303869 0.00154687 0)
(-0.000317205 0.0014759 0)
(-0.000331191 0.00140313 0)
(-0.000345882 0.00132852 0)
(-0.000361338 0.00125202 0)
(-0.000377634 0.00117358 0)
(-0.000394851 0.00109314 0)
(-0.000413086 0.00101065 0)
(-0.000432473 0.000925997 0)
(-0.000453153 0.00083906 0)
(-0.000475195 0.000749659 0)
(-0.000498719 0.000657582 0)
(-0.00052395 0.000562552 0)
(-0.000550796 0.000464238 0)
(-0.000579492 0.000362496 0)
(-0.000610153 0.000256968 0)
(-0.000642503 0.000147608 0)
(-0.000676698 3.45309e-05 0)
(-0.000712963 -8.22889e-05 0)
(-0.000751517 -0.000202655 0)
(-0.000792903 -0.000326633 0)
(-0.000837457 -0.000454349 0)
(-0.000885659 -0.000585999 0)
(-0.000938041 -0.000721846 0)
(-0.000995179 -0.000862207 0)
(-0.0010577 -0.00100744 0)
(-0.00112628 -0.00115795 0)
(-0.00120167 -0.00131414 0)
(-0.0012847 -0.00147648 0)
(-0.00137629 -0.00164547 0)
(-0.00147745 -0.0018216 0)
(-0.00158934 -0.00200559 0)
(-0.00171317 -0.00219777 0)
(-0.00185053 -0.00239956 0)
(-0.00200261 -0.00261021 0)
(-0.00217209 -0.00283398 0)
(-0.002359 -0.0030647 0)
(-0.00256974 -0.00331844 0)
(-0.00279813 -0.00356584 0)
(-0.00306424 -0.00386956 0)
(-0.00333526 -0.00410989 0)
(-0.00367953 -0.00452189 0)
(-0.00395785 -0.00465706 0)
(-0.00439123 -0.00535165 0)
(-0.00439254 -0.00498355 0)
)
;
    }
    frontAndBack
    {
        type            empty;
    }
}


// ************************************************************************* //
